# vtk DataFile Version 3.0
Malha 2D com triângulos e temperatura
ASCII
DATASET UNSTRUCTURED_GRID

POINTS 40000 double
0 0 0
1 0 0
1 1 0
0 1 0
0.00502513 0 0
0.0100503 0 0
0.0150754 0 0
0.0201005 0 0
0.0251256 0 0
0.0301508 0 0
0.0351759 0 0
0.040201 0 0
0.0452261 0 0
0.0502513 0 0
0.0552764 0 0
0.0603015 0 0
0.0653266 0 0
0.0703518 0 0
0.0753769 0 0
0.080402 0 0
0.0854271 0 0
0.0904523 0 0
0.0954774 0 0
0.100503 0 0
0.105528 0 0
0.110553 0 0
0.115578 0 0
0.120603 0 0
0.125628 0 0
0.130653 0 0
0.135678 0 0
0.140704 0 0
0.145729 0 0
0.150754 0 0
0.155779 0 0
0.160804 0 0
0.165829 0 0
0.170854 0 0
0.175879 0 0
0.180905 0 0
0.18593 0 0
0.190955 0 0
0.19598 0 0
0.201005 0 0
0.20603 0 0
0.211055 0 0
0.21608 0 0
0.221106 0 0
0.226131 0 0
0.231156 0 0
0.236181 0 0
0.241206 0 0
0.246231 0 0
0.251256 0 0
0.256281 0 0
0.261307 0 0
0.266332 0 0
0.271357 0 0
0.276382 0 0
0.281407 0 0
0.286432 0 0
0.291457 0 0
0.296482 0 0
0.301508 0 0
0.306533 0 0
0.311558 0 0
0.316583 0 0
0.321608 0 0
0.326633 0 0
0.331658 0 0
0.336683 0 0
0.341709 0 0
0.346734 0 0
0.351759 0 0
0.356784 0 0
0.361809 0 0
0.366834 0 0
0.371859 0 0
0.376884 0 0
0.38191 0 0
0.386935 0 0
0.39196 0 0
0.396985 0 0
0.40201 0 0
0.407035 0 0
0.41206 0 0
0.417085 0 0
0.422111 0 0
0.427136 0 0
0.432161 0 0
0.437186 0 0
0.442211 0 0
0.447236 0 0
0.452261 0 0
0.457286 0 0
0.462312 0 0
0.467337 0 0
0.472362 0 0
0.477387 0 0
0.482412 0 0
0.487437 0 0
0.492462 0 0
0.497487 0 0
0.502513 0 0
0.507538 0 0
0.512563 0 0
0.517588 0 0
0.522613 0 0
0.527638 0 0
0.532663 0 0
0.537688 0 0
0.542714 0 0
0.547739 0 0
0.552764 0 0
0.557789 0 0
0.562814 0 0
0.567839 0 0
0.572864 0 0
0.577889 0 0
0.582915 0 0
0.58794 0 0
0.592965 0 0
0.59799 0 0
0.603015 0 0
0.60804 0 0
0.613065 0 0
0.61809 0 0
0.623116 0 0
0.628141 0 0
0.633166 0 0
0.638191 0 0
0.643216 0 0
0.648241 0 0
0.653266 0 0
0.658291 0 0
0.663317 0 0
0.668342 0 0
0.673367 0 0
0.678392 0 0
0.683417 0 0
0.688442 0 0
0.693467 0 0
0.698492 0 0
0.703518 0 0
0.708543 0 0
0.713568 0 0
0.718593 0 0
0.723618 0 0
0.728643 0 0
0.733668 0 0
0.738693 0 0
0.743719 0 0
0.748744 0 0
0.753769 0 0
0.758794 0 0
0.763819 0 0
0.768844 0 0
0.773869 0 0
0.778894 0 0
0.78392 0 0
0.788945 0 0
0.79397 0 0
0.798995 0 0
0.80402 0 0
0.809045 0 0
0.81407 0 0
0.819095 0 0
0.824121 0 0
0.829146 0 0
0.834171 0 0
0.839196 0 0
0.844221 0 0
0.849246 0 0
0.854271 0 0
0.859296 0 0
0.864322 0 0
0.869347 0 0
0.874372 0 0
0.879397 0 0
0.884422 0 0
0.889447 0 0
0.894472 0 0
0.899497 0 0
0.904523 0 0
0.909548 0 0
0.914573 0 0
0.919598 0 0
0.924623 0 0
0.929648 0 0
0.934673 0 0
0.939698 0 0
0.944724 0 0
0.949749 0 0
0.954774 0 0
0.959799 0 0
0.964824 0 0
0.969849 0 0
0.974874 0 0
0.979899 0 0
0.984925 0 0
0.98995 0 0
0.994975 0 0
1 0.00502513 0
1 0.0100503 0
1 0.0150754 0
1 0.0201005 0
1 0.0251256 0
1 0.0301508 0
1 0.0351759 0
1 0.040201 0
1 0.0452261 0
1 0.0502513 0
1 0.0552764 0
1 0.0603015 0
1 0.0653266 0
1 0.0703518 0
1 0.0753769 0
1 0.080402 0
1 0.0854271 0
1 0.0904523 0
1 0.0954774 0
1 0.100503 0
1 0.105528 0
1 0.110553 0
1 0.115578 0
1 0.120603 0
1 0.125628 0
1 0.130653 0
1 0.135678 0
1 0.140704 0
1 0.145729 0
1 0.150754 0
1 0.155779 0
1 0.160804 0
1 0.165829 0
1 0.170854 0
1 0.175879 0
1 0.180905 0
1 0.18593 0
1 0.190955 0
1 0.19598 0
1 0.201005 0
1 0.20603 0
1 0.211055 0
1 0.21608 0
1 0.221106 0
1 0.226131 0
1 0.231156 0
1 0.236181 0
1 0.241206 0
1 0.246231 0
1 0.251256 0
1 0.256281 0
1 0.261307 0
1 0.266332 0
1 0.271357 0
1 0.276382 0
1 0.281407 0
1 0.286432 0
1 0.291457 0
1 0.296482 0
1 0.301508 0
1 0.306533 0
1 0.311558 0
1 0.316583 0
1 0.321608 0
1 0.326633 0
1 0.331658 0
1 0.336683 0
1 0.341709 0
1 0.346734 0
1 0.351759 0
1 0.356784 0
1 0.361809 0
1 0.366834 0
1 0.371859 0
1 0.376884 0
1 0.38191 0
1 0.386935 0
1 0.39196 0
1 0.396985 0
1 0.40201 0
1 0.407035 0
1 0.41206 0
1 0.417085 0
1 0.422111 0
1 0.427136 0
1 0.432161 0
1 0.437186 0
1 0.442211 0
1 0.447236 0
1 0.452261 0
1 0.457286 0
1 0.462312 0
1 0.467337 0
1 0.472362 0
1 0.477387 0
1 0.482412 0
1 0.487437 0
1 0.492462 0
1 0.497487 0
1 0.502513 0
1 0.507538 0
1 0.512563 0
1 0.517588 0
1 0.522613 0
1 0.527638 0
1 0.532663 0
1 0.537688 0
1 0.542714 0
1 0.547739 0
1 0.552764 0
1 0.557789 0
1 0.562814 0
1 0.567839 0
1 0.572864 0
1 0.577889 0
1 0.582915 0
1 0.58794 0
1 0.592965 0
1 0.59799 0
1 0.603015 0
1 0.60804 0
1 0.613065 0
1 0.61809 0
1 0.623116 0
1 0.628141 0
1 0.633166 0
1 0.638191 0
1 0.643216 0
1 0.648241 0
1 0.653266 0
1 0.658291 0
1 0.663317 0
1 0.668342 0
1 0.673367 0
1 0.678392 0
1 0.683417 0
1 0.688442 0
1 0.693467 0
1 0.698492 0
1 0.703518 0
1 0.708543 0
1 0.713568 0
1 0.718593 0
1 0.723618 0
1 0.728643 0
1 0.733668 0
1 0.738693 0
1 0.743719 0
1 0.748744 0
1 0.753769 0
1 0.758794 0
1 0.763819 0
1 0.768844 0
1 0.773869 0
1 0.778894 0
1 0.78392 0
1 0.788945 0
1 0.79397 0
1 0.798995 0
1 0.80402 0
1 0.809045 0
1 0.81407 0
1 0.819095 0
1 0.824121 0
1 0.829146 0
1 0.834171 0
1 0.839196 0
1 0.844221 0
1 0.849246 0
1 0.854271 0
1 0.859296 0
1 0.864322 0
1 0.869347 0
1 0.874372 0
1 0.879397 0
1 0.884422 0
1 0.889447 0
1 0.894472 0
1 0.899497 0
1 0.904523 0
1 0.909548 0
1 0.914573 0
1 0.919598 0
1 0.924623 0
1 0.929648 0
1 0.934673 0
1 0.939698 0
1 0.944724 0
1 0.949749 0
1 0.954774 0
1 0.959799 0
1 0.964824 0
1 0.969849 0
1 0.974874 0
1 0.979899 0
1 0.984925 0
1 0.98995 0
1 0.994975 0
0.994975 1 0
0.98995 1 0
0.984925 1 0
0.979899 1 0
0.974874 1 0
0.969849 1 0
0.964824 1 0
0.959799 1 0
0.954774 1 0
0.949749 1 0
0.944724 1 0
0.939698 1 0
0.934673 1 0
0.929648 1 0
0.924623 1 0
0.919598 1 0
0.914573 1 0
0.909548 1 0
0.904523 1 0
0.899497 1 0
0.894472 1 0
0.889447 1 0
0.884422 1 0
0.879397 1 0
0.874372 1 0
0.869347 1 0
0.864322 1 0
0.859296 1 0
0.854271 1 0
0.849246 1 0
0.844221 1 0
0.839196 1 0
0.834171 1 0
0.829146 1 0
0.824121 1 0
0.819095 1 0
0.81407 1 0
0.809045 1 0
0.80402 1 0
0.798995 1 0
0.79397 1 0
0.788945 1 0
0.78392 1 0
0.778894 1 0
0.773869 1 0
0.768844 1 0
0.763819 1 0
0.758794 1 0
0.753769 1 0
0.748744 1 0
0.743719 1 0
0.738693 1 0
0.733668 1 0
0.728643 1 0
0.723618 1 0
0.718593 1 0
0.713568 1 0
0.708543 1 0
0.703518 1 0
0.698492 1 0
0.693467 1 0
0.688442 1 0
0.683417 1 0
0.678392 1 0
0.673367 1 0
0.668342 1 0
0.663317 1 0
0.658291 1 0
0.653266 1 0
0.648241 1 0
0.643216 1 0
0.638191 1 0
0.633166 1 0
0.628141 1 0
0.623116 1 0
0.61809 1 0
0.613065 1 0
0.60804 1 0
0.603015 1 0
0.59799 1 0
0.592965 1 0
0.58794 1 0
0.582915 1 0
0.577889 1 0
0.572864 1 0
0.567839 1 0
0.562814 1 0
0.557789 1 0
0.552764 1 0
0.547739 1 0
0.542714 1 0
0.537688 1 0
0.532663 1 0
0.527638 1 0
0.522613 1 0
0.517588 1 0
0.512563 1 0
0.507538 1 0
0.502513 1 0
0.497487 1 0
0.492462 1 0
0.487437 1 0
0.482412 1 0
0.477387 1 0
0.472362 1 0
0.467337 1 0
0.462312 1 0
0.457286 1 0
0.452261 1 0
0.447236 1 0
0.442211 1 0
0.437186 1 0
0.432161 1 0
0.427136 1 0
0.422111 1 0
0.417085 1 0
0.41206 1 0
0.407035 1 0
0.40201 1 0
0.396985 1 0
0.39196 1 0
0.386935 1 0
0.38191 1 0
0.376884 1 0
0.371859 1 0
0.366834 1 0
0.361809 1 0
0.356784 1 0
0.351759 1 0
0.346734 1 0
0.341709 1 0
0.336683 1 0
0.331658 1 0
0.326633 1 0
0.321608 1 0
0.316583 1 0
0.311558 1 0
0.306533 1 0
0.301508 1 0
0.296482 1 0
0.291457 1 0
0.286432 1 0
0.281407 1 0
0.276382 1 0
0.271357 1 0
0.266332 1 0
0.261307 1 0
0.256281 1 0
0.251256 1 0
0.246231 1 0
0.241206 1 0
0.236181 1 0
0.231156 1 0
0.226131 1 0
0.221106 1 0
0.21608 1 0
0.211055 1 0
0.20603 1 0
0.201005 1 0
0.19598 1 0
0.190955 1 0
0.18593 1 0
0.180905 1 0
0.175879 1 0
0.170854 1 0
0.165829 1 0
0.160804 1 0
0.155779 1 0
0.150754 1 0
0.145729 1 0
0.140704 1 0
0.135678 1 0
0.130653 1 0
0.125628 1 0
0.120603 1 0
0.115578 1 0
0.110553 1 0
0.105528 1 0
0.100503 1 0
0.0954774 1 0
0.0904523 1 0
0.0854271 1 0
0.080402 1 0
0.0753769 1 0
0.0703518 1 0
0.0653266 1 0
0.0603015 1 0
0.0552764 1 0
0.0502513 1 0
0.0452261 1 0
0.040201 1 0
0.0351759 1 0
0.0301508 1 0
0.0251256 1 0
0.0201005 1 0
0.0150754 1 0
0.0100503 1 0
0.00502513 1 0
0 0.994975 0
0 0.98995 0
0 0.984925 0
0 0.979899 0
0 0.974874 0
0 0.969849 0
0 0.964824 0
0 0.959799 0
0 0.954774 0
0 0.949749 0
0 0.944724 0
0 0.939698 0
0 0.934673 0
0 0.929648 0
0 0.924623 0
0 0.919598 0
0 0.914573 0
0 0.909548 0
0 0.904523 0
0 0.899497 0
0 0.894472 0
0 0.889447 0
0 0.884422 0
0 0.879397 0
0 0.874372 0
0 0.869347 0
0 0.864322 0
0 0.859296 0
0 0.854271 0
0 0.849246 0
0 0.844221 0
0 0.839196 0
0 0.834171 0
0 0.829146 0
0 0.824121 0
0 0.819095 0
0 0.81407 0
0 0.809045 0
0 0.80402 0
0 0.798995 0
0 0.79397 0
0 0.788945 0
0 0.78392 0
0 0.778894 0
0 0.773869 0
0 0.768844 0
0 0.763819 0
0 0.758794 0
0 0.753769 0
0 0.748744 0
0 0.743719 0
0 0.738693 0
0 0.733668 0
0 0.728643 0
0 0.723618 0
0 0.718593 0
0 0.713568 0
0 0.708543 0
0 0.703518 0
0 0.698492 0
0 0.693467 0
0 0.688442 0
0 0.683417 0
0 0.678392 0
0 0.673367 0
0 0.668342 0
0 0.663317 0
0 0.658291 0
0 0.653266 0
0 0.648241 0
0 0.643216 0
0 0.638191 0
0 0.633166 0
0 0.628141 0
0 0.623116 0
0 0.61809 0
0 0.613065 0
0 0.60804 0
0 0.603015 0
0 0.59799 0
0 0.592965 0
0 0.58794 0
0 0.582915 0
0 0.577889 0
0 0.572864 0
0 0.567839 0
0 0.562814 0
0 0.557789 0
0 0.552764 0
0 0.547739 0
0 0.542714 0
0 0.537688 0
0 0.532663 0
0 0.527638 0
0 0.522613 0
0 0.517588 0
0 0.512563 0
0 0.507538 0
0 0.502513 0
0 0.497487 0
0 0.492462 0
0 0.487437 0
0 0.482412 0
0 0.477387 0
0 0.472362 0
0 0.467337 0
0 0.462312 0
0 0.457286 0
0 0.452261 0
0 0.447236 0
0 0.442211 0
0 0.437186 0
0 0.432161 0
0 0.427136 0
0 0.422111 0
0 0.417085 0
0 0.41206 0
0 0.407035 0
0 0.40201 0
0 0.396985 0
0 0.39196 0
0 0.386935 0
0 0.38191 0
0 0.376884 0
0 0.371859 0
0 0.366834 0
0 0.361809 0
0 0.356784 0
0 0.351759 0
0 0.346734 0
0 0.341709 0
0 0.336683 0
0 0.331658 0
0 0.326633 0
0 0.321608 0
0 0.316583 0
0 0.311558 0
0 0.306533 0
0 0.301508 0
0 0.296482 0
0 0.291457 0
0 0.286432 0
0 0.281407 0
0 0.276382 0
0 0.271357 0
0 0.266332 0
0 0.261307 0
0 0.256281 0
0 0.251256 0
0 0.246231 0
0 0.241206 0
0 0.236181 0
0 0.231156 0
0 0.226131 0
0 0.221106 0
0 0.21608 0
0 0.211055 0
0 0.20603 0
0 0.201005 0
0 0.19598 0
0 0.190955 0
0 0.18593 0
0 0.180905 0
0 0.175879 0
0 0.170854 0
[...]
CELL_DATA 39601
SCALARS Temperatura double 1
LOOKUP_TABLE default
6.2301e-05
0.000186888
0.000311428
0.00043589
0.000560243
0.000684457
0.0008085
0.000932342
0.00105595
0.0011793
0.00130235
0.00142508
0.00154745
0.00166944
0.00179101
0.00191213
0.00203278
0.00215292
0.00227252
0.00239156
0.00251
0.00262782
0.00274498
0.00286146
0.00297722
0.00309224
0.00320649
0.00331995
0.00343257
0.00354434
0.00365523
0.0037652
0.00387424
0.00398231
0.00408939
0.00419545
0.00430046
0.0044044
0.00450725
0.00460897
0.00470954
0.00480894
0.00490714
0.00500412
0.00509985
0.00519431
0.00528747
0.00537932
0.00546983
0.00555897
0.00564673
0.00573308
0.005818
0.00590147
0.00598347
0.00606398
0.00614298
0.00622045
0.00629636
0.00637071
0.00644347
0.00651463
0.00658416
0.00665205
0.00671828
0.00678284
0.0068457
0.00690686
0.0069663
0.00702401
0.00707996
0.00713415
0.00718656
0.00723718
0.007286
0.007333
0.00737817
0.0074215
0.00746299
0.00750261
0.00754037
0.00757624
0.00761023
0.00764232
0.0076725
0.00770078
0.00772713
0.00775156
0.00777406
0.00779462
0.00781323
0.0078299
0.00784462
0.00785739
0.00786819
0.00787704
0.00788392
0.00788883
0.00789178
0.00789277
0.00789178
0.00788883
0.00788392
0.00787703
0.00786819
0.00785738
0.00784462
0.0078299
0.00781323
0.00779461
0.00777405
0.00775156
0.00772713
0.00770077
0.0076725
0.00764231
0.00761022
0.00757623
0.00754036
0.0075026
0.00746298
0.00742149
0.00737816
0.00733299
0.00728599
0.00723717
0.00718655
0.00713414
0.00707995
0.007024
0.00696629
0.00690685
0.00684569
0.00678282
0.00671826
0.00665203
0.00658414
0.00651461
0.00644346
0.0063707
0.00629635
0.00622043
0.00614296
0.00606396
0.00598345
0.00590145
0.00581798
0.00573306
0.00564671
0.00555895
0.00546981
0.0053793
0.00528745
0.00519429
0.00509983
0.0050041
0.00490712
0.00480892
0.00470952
0.00460895
0.00450723
0.00440438
0.00430044
0.00419543
0.00408937
0.00398229
0.00387422
0.00376518
0.00365521
0.00354432
0.00343255
0.00331993
0.00320648
0.00309222
0.0029772
0.00286144
0.00274496
0.0026278
0.00250998
0.00239154
0.00227251
0.0021529
0.00203276
0.00191211
0.00179099
0.00166942
0.00154744
0.00142506
0.00130234
0.00117929
0.00105594
0.000932333
0.000808492
0.00068445
0.000560237
0.000435885
0.000311424
0.000186885
6.23004e-05
0.000186887
0.000560616
0.000934204
0.00130756
0.00168059
0.0020532
0.0024253
0.00279679
0.00316759
0.00353759
0.00390672
0.00427487
0.00464196
0.00500788
0.00537256
0.00573591
0.00609782
0.00645821
0.00681699
0.00717408
0.00752937
0.00788279
0.00823424
0.00858365
0.00893091
0.00927595
0.00961867
0.009959
0.0102968
0.0106321
0.0109648
0.0112947
0.0116217
0.0119459
0.0122671
0.0125853
0.0129003
0.0132121
0.0135206
0.0138257
0.0141274
0.0144256
0.0147202
0.0150111
0.0152983
0.0155816
0.0158611
0.0161366
0.0164081
0.0166755
0.0169387
0.0171978
0.0174525
0.0177029
0.0179489
0.0181904
0.0184274
0.0186598
0.0188875
0.0191105
0.0193288
0.0195422
0.0197508
0.0199545
0.0201531
0.0203468
0.0205354
0.0207188
0.0208971
0.0210702
0.0212381
0.0214006
0.0215579
0.0217097
0.0218561
0.0219971
0.0221326
0.0222626
0.0223871
0.0225059
0.0226192
0.0227268
0.0228288
0.022925
0.0230156
0.0231004
0.0231794
0.0232527
0.0233202
0.0233819
0.0234377
0.0234877
0.0235319
0.0235702
0.0236026
0.0236291
0.0236498
0.0236645
0.0236733
0.0236763
0.0236733
0.0236645
0.0236497
0.0236291
0.0236026
0.0235702
0.0235319
0.0234877
0.0234377
0.0233819
0.0233202
0.0232527
0.0231794
0.0231004
0.0230155
0.022925
0.0228287
0.0227268
0.0226192
0.0225059
0.022387
0.0222626
0.0221326
0.0219971
0.0218561
0.0217097
0.0215578
0.0214006
0.0212381
0.0210702
0.0208971
0.0207188
0.0205353
0.0203467
0.0201531
0.0199544
0.0197508
0.0195422
0.0193287
0.0191105
0.0188874
0.0186597
0.0184273
0.0181904
0.0179488
0.0177029
0.0174525
0.0171977
0.0169387
0.0166754
0.016408
0.0161365
0.015861
0.0155816
0.0152982
0.015011
0.0147201
0.0144255
0.0141274
0.0138257
0.0135205
0.013212
0.0129002
0.0125852
0.0122671
0.0119459
0.0116217
0.0112946
0.0109647
0.0106321
0.0102968
0.00995894
0.00961861
0.00927589
0.00893085
0.00858359
0.00823419
0.00788274
0.00752932
0.00717402
0.00681694
0.00645816
0.00609777
0.00573586
0.00537252
0.00500784
0.00464191
0.00427483
0.00390668
0.00353756
0.00316755
0.00279676
0.00242527
0.00205318
0.00168057
0.00130754
0.000934193
0.000560609
0.000186885
0.000311427
0.000934205
0.00155675
0.0021789
0.00280052
0.00342143
0.00404149
0.00466054
0.00527844
0.00589501
0.00651012
0.0071236
0.00773531
0.00834509
0.00895279
0.00955826
0.0101613
0.0107619
0.0113598
0.0119548
0.0125469
0.0131358
0.0137215
0.0143037
0.0148824
0.0154573
0.0160285
0.0165956
0.0171586
0.0177173
0.0182716
0.0188213
0.0193663
0.0199066
0.0204418
0.020972
0.0214969
0.0220165
0.0225306
0.0230391
0.0235418
0.0240387
0.0245296
0.0250143
0.0254929
0.025965
0.0264307
0.0268899
0.0273423
0.0277879
0.0282266
0.0286582
0.0290827
0.0295
0.0299099
0.0303123
0.0307072
0.0310944
0.0314739
0.0318456
0.0322093
0.032565
0.0329125
0.0332519
0.033583
0.0339057
0.0342199
0.0345257
0.0348228
0.0351112
0.0353909
0.0356618
0.0359238
0.0361768
0.0364209
0.0366558
0.0368816
0.0370982
0.0373056
0.0375037
0.0376924
0.0378717
0.0380416
0.038202
0.0383529
0.0384942
0.038626
0.0387481
0.0388606
0.0389633
0.0390564
0.0391397
0.0392133
0.0392771
0.0393311
0.0393753
0.0394097
0.0394343
0.039449
0.0394539
0.039449
0.0394343
0.0394097
0.0393753
0.0393311
0.0392771
0.0392133
0.0391397
0.0390564
0.0389633
0.0388605
0.0387481
0.038626
0.0384942
0.0383529
0.038202
0.0380416
0.0378717
0.0376923
0.0375036
0.0373055
0.0370982
0.0368816
0.0366557
0.0364208
0.0361768
0.0359237
0.0356618
0.0353909
0.0351112
0.0348227
0.0345256
0.0342199
0.0339056
0.0335829
0.0332518
0.0329125
0.0325649
0.0322092
0.0318455
0.0314738
0.0310944
0.0307071
0.0303122
0.0299098
0.0294999
0.0290826
0.0286581
0.0282265
0.0277878
0.0273422
0.0268898
0.0264306
0.0259649
0.0254928
0.0250142
0.0245295
0.0240386
0.0235417
0.023039
0.0225305
0.0220164
0.0214968
0.0209719
0.0204417
0.0199065
0.0193662
0.0188212
0.0182715
0.0177172
0.0171585
0.0165955
0.0160284
0.0154572
0.0148823
0.0143036
0.0137214
0.0131357
0.0125468
0.0119547
0.0113597
0.0107618
0.0101613
0.00955818
0.00895271
0.00834502
0.00773524
0.00712353
0.00651005
0.00589495
0.00527838
0.00466049
0.00404145
0.00342139
0.00280048
0.00217888
0.00155673
0.000934193
0.000311424
0.00043589
0.00130756
0.00217891
0.00304971
0.00391975
0.00478881
0.00565668
0.00652314
0.00738797
0.00825096
0.0091119
0.00997056
0.0108267
0.0116802
0.0125308
0.0133782
0.0142223
0.0150629
0.0158997
0.0167326
0.0175612
0.0183855
0.0192053
0.0200202
0.0208301
0.0216349
0.0224343
0.023228
0.024016
0.024798
0.0255738
0.0263433
0.0271061
0.0278623
0.0286114
0.0293535
0.0300882
0.0308154
0.031535
0.0322467
0.0329503
0.0336458
0.0343328
0.0350113
0.0356811
0.036342
0.0369938
0.0376364
0.0382697
0.0388934
0.0395073
0.0401115
0.0407057
0.0412897
0.0418634
0.0424267
0.0429794
0.0435214
0.0440525
0.0445727
0.0450818
0.0455796
0.0460661
0.0465411
0.0470045
0.0474561
0.047896
0.0483239
0.0487398
0.0491435
0.049535
0.0499141
0.0502808
0.050635
0.0509765
0.0513053
0.0516214
0.0519246
0.0522148
0.052492
0.0527562
0.0530072
0.053245
0.0534695
0.0536807
0.0538785
0.0540629
0.0542338
0.0543912
0.0545351
0.0546653
0.054782
0.0548849
0.0549742
0.0550498
0.0551117
0.0551598
0.0551942
0.0552149
0.0552218
0.0552149
0.0551942
0.0551598
0.0551117
0.0550498
0.0549742
0.0548849
0.0547819
0.0546653
0.054535
0.0543912
0.0542338
0.0540629
0.0538785
0.0536807
0.0534695
0.0532449
0.0530071
0.0527561
0.052492
0.0522147
0.0519245
0.0516213
0.0513053
0.0509764
0.0506349
0.0502807
0.049914
0.0495349
0.0491434
0.0487397
0.0483238
0.0478959
0.047456
0.0470044
0.046541
0.046066
0.0455795
0.0450817
0.0445726
0.0440524
0.0435213
0.0429793
0.0424265
0.0418633
0.0412895
0.0407055
0.0401114
0.0395072
0.0388932
0.0382695
0.0376363
0.0369937
0.0363419
0.035681
0.0350112
0.0343327
0.0336456
0.0329502
0.0322465
0.0315348
0.0308153
0.0300881
0.0293533
0.0286113
0.0278621
0.027106
0.0263431
0.0255737
0.0247979
0.0240159
0.0232279
0.0224341
0.0216348
0.02083
0.0200201
0.0192051
0.0183854
0.0175611
0.0167324
0.0158996
0.0150628
0.0142222
0.0133781
0.0125307
0.0116801
0.0108266
0.00997046
0.00911181
0.00825088
0.00738789
0.00652307
0.00565662
0.00478875
0.0039197
0.00304967
0.00217888
0.00130754
0.000435885
0.000560244
0.00168059
0.00280052
0.00391975
0.005038
0.006155
0.00727046
0.00838411
0.00949567
0.0106049
0.0117114
0.012815
0.0139155
0.0150124
0.0161057
0.0171949
0.0182798
0.0193602
0.0204357
0.0215062
0.0225712
0.0236307
0.0246843
0.0257317
0.0267727
0.0278071
0.0288345
0.0298547
0.0308675
0.0318726
0.0328697
0.0338587
0.0348392
0.035811
0.0367739
0.0377276
0.038672
0.0396067
0.0405315
0.0414462
0.0423506
0.0432445
0.0441276
0.0449996
0.0458605
0.0467099
0.0475477
0.0483736
0.0491875
0.0499891
0.0507783
0.0515548
0.0523185
0.0530691
0.0538065
0.0545305
0.0552408
0.0559375
0.0566202
0.0572887
0.057943
0.0585829
0.0592081
0.0598186
0.0604142
0.0609948
0.0615601
0.0621101
0.0626446
0.0631635
0.0636667
0.064154
0.0646253
0.0650805
0.0655194
0.0659421
0.0663483
0.066738
0.067111
0.0674674
0.0678069
0.0681295
0.0684351
0.0687237
0.0689951
0.0692494
0.0694864
0.069706
0.0699084
0.0700932
0.0702606
0.0704105
0.0705429
0.0706577
0.0707548
0.0708344
0.0708962
0.0709405
0.070967
0.0709758
0.070967
0.0709404
0.0708962
0.0708344
0.0707548
0.0706576
0.0705429
0.0704105
0.0702606
0.0700932
0.0699083
0.069706
0.0694863
0.0692493
0.0689951
0.0687236
0.068435
0.0681294
0.0678068
0.0674673
0.0671109
0.0667379
0.0663482
0.065942
0.0655193
0.0650804
0.0646252
0.0641538
0.0636666
0.0631634
0.0626445
0.06211
0.06156
0.0609946
0.0604141
0.0598185
0.059208
0.0585827
0.0579429
0.0572886
0.05662
0.0559373
0.0552407
0.0545303
0.0538063
0.0530689
0.0523183
0.0515546
0.0507781
0.0499889
0.0491873
0.0483734
0.0475475
0.0467097
0.0458603
0.0449994
0.0441274
0.0432443
0.0423505
0.0414461
0.0405313
0.0396065
0.0386718
0.0377275
0.0367737
0.0358108
0.034839
0.0338585
0.0328695
0.0318724
0.0308673
0.0298545
0.0288343
0.0278069
0.0267725
0.0257315
0.0246841
0.0236305
0.0225711
0.021506
0.0204355
0.01936
0.0182796
0.0171947
0.0161055
0.0150123
0.0139153
0.0128149
0.0117113
0.0106047
0.00949556
0.00838401
0.00727037
0.00615492
0.00503794
0.0039197
0.00280048
0.00168057
0.000560237
0.000684458
0.0020532
0.00342144
0.00478882
0.006155
0.00751965
0.00888243
0.010243
0.011601
0.0129561
0.014308
0.0156563
0.0170007
0.0183409
0.0196765
0.0210072
0.0223327
0.0236526
0.0249666
0.0262744
0.0275756
0.02887
0.0301572
0.0314368
0.0327086
0.0339723
0.0352275
0.0364739
0.0377112
0.0389392
0.0401574
0.0413656
0.0425635
0.0437508
0.0449272
0.0460924
0.0472461
0.0483881
0.049518
0.0506355
0.0517404
0.0528324
0.0539113
0.0549767
0.0560284
0.0570662
0.0580897
0.0590988
0.0600931
0.0610724
0.0620366
0.0629852
0.0639182
0.0648353
0.0657361
0.0666206
0.0674885
0.0683396
0.0691737
0.0699905
0.0707898
0.0715716
0.0723355
0.0730813
0.073809
0.0745182
0.0752089
0.0758808
0.0765338
0.0771678
0.0777825
0.0783778
0.0789536
0.0795098
0.0800461
0.0805624
0.0810587
0.0815348
0.0819905
0.0824259
0.0828406
0.0832348
0.0836082
0.0839607
0.0842924
0.084603
0.0848925
0.0851609
0.0854081
0.0856339
0.0858385
0.0860216
0.0861833
0.0863235
0.0864422
0.0865394
0.086615
0.086669
0.0867014
0.0867122
0.0867014
0.086669
0.086615
0.0865394
0.0864422
0.0863235
0.0861833
0.0860215
0.0858384
0.0856339
0.085408
0.0851608
0.0848924
0.0846029
0.0842923
0.0839606
0.0836081
0.0832347
0.0828405
0.0824258
0.0819904
0.0815347
0.0810586
0.0805623
0.0800459
0.0795096
0.0789535
0.0783777
0.0777824
0.0771676
0.0765337
0.0758807
0.0752087
0.074518
0.0738088
0.0730811
0.0723353
0.0715714
0.0707897
0.0699903
0.0691735
0.0683394
0.0674883
0.0666204
0.0657359
0.0648351
0.063918
0.062985
0.0620364
0.0610722
0.0600929
0.0590985
0.0580895
0.0570659
0.0560282
0.0549765
0.053911
0.0528322
0.0517402
0.0506352
0.0495177
0.0483878
0.0472459
0.0460922
0.044927
0.0437506
0.0425633
0.0413654
0.0401572
0.0389389
0.037711
0.0364737
0.0352273
0.0339721
0.0327084
0.0314366
0.0301569
0.0288698
0.0275754
0.0262742
0.0249664
0.0236524
0.0223325
0.021007
0.0196763
0.0183407
0.0170006
0.0156562
0.0143078
0.012956
0.0116009
0.0102429
0.00888232
0.00751956
0.00615492
0.00478875
0.00342139
0.00205318
0.00068445
0.000808502
0.0024253
0.0040415
0.00565669
0.00727047
0.00888243
0.0104922
0.0120993
0.0137034
0.0153041
0.016901
0.0184937
0.0200818
0.0216648
0.0232425
0.0248144
0.02638
0.0279391
0.0294913
0.0310361
0.0325731
0.0341021
0.0356225
0.0371341
0.0386364
0.0401291
0.0416117
0.0430841
0.0445456
0.0459961
0.0474351
0.0488623
0.0502773
0.0516798
0.0530693
0.0544457
0.0558085
0.0571574
0.058492
0.0598121
0.0611173
0.0624072
0.0636816
0.0649401
0.0661824
0.0674082
0.0686173
0.0698092
0.0709837
0.0721406
0.0732794
0.0744
0.0755021
0.0765853
0.0776495
0.0786943
0.0797194
0.0807248
0.08171
0.0826748
0.083619
0.0845424
0.0854447
0.0863258
0.0871853
0.0880231
0.0888389
0.0896326
0.090404
0.0911528
0.091879
0.0925822
0.0932623
0.0939192
0.0945527
0.0951627
0.0957489
0.0963112
0.0968496
0.0973638
0.0978538
0.0983193
0.0987604
0.0991768
0.0995686
0.0999355
0.100278
0.100595
0.100886
0.101153
0.101395
0.101611
0.101802
0.101968
0.102108
0.102223
0.102312
0.102376
0.102414
0.102427
0.102414
0.102376
0.102312
0.102223
0.102108
0.101968
0.101802
0.101611
0.101395
0.101153
0.100886
0.100594
0.100277
0.0999354
0.0995685
0.0991767
0.0987603
0.0983192
0.0978536
0.0973637
0.0968495
0.0963111
0.0957487
0.0951625
0.0945526
0.0939191
0.0932622
0.092582
0.0918788
0.0911526
0.0904038
0.0896324
0.0888387
0.0880229
0.0871851
0.0863256
0.0854445
0.0845422
0.0836188
0.0826746
0.0817097
0.0807245
0.0797192
0.078694
0.0776492
0.076585
0.0755018
0.0743997
0.0732791
0.0721403
0.0709834
0.0698089
0.068617
0.067408
0.0661821
0.0649398
0.0636813
0.0624069
0.061117
0.0598118
0.0584918
0.0571571
0.0558082
0.0544454
0.053069
0.0516795
0.050277
0.048862
0.0474348
0.0459958
0.0445453
0.0430838
0.0416115
0.0401288
0.0386361
0.0371338
0.0356222
0.0341018
0.0325729
0.0310358
0.029491
0.0279389
0.0263798
0.0248141
0.0232423
0.0216646
0.0200816
0.0184935
0.0169008
0.015304
0.0137033
0.0120992
0.0104921
0.00888232
0.00727037
0.00565662
0.00404145
0.00242527
0.000808492
0.000932345
0.0027968
0.00466056
0.00652315
0.00838412
0.010243
0.0120993
0.0139526
0.0158025
0.0176484
0.0194898
0.0213265
0.0231578
0.0249833
0.0268027
0.0286153
0.0304208
0.0322187
0.0340086
0.03579
0.0375625
0.0393257
0.041079
0.0428221
0.0445545
0.0462758
0.0479856
0.0496835
0.0513689
0.0530415
0.054701
0.0563468
0.0579785
0.0595958
0.0611982
0.0627854
0.064357
0.0659125
0.0674516
0.0689738
0.0704789
0.0719664
0.073436
0.0748873
0.0763199
0.0777335
0.0791277
0.0805022
0.0818566
0.0831907
0.084504
0.0857962
0.0870671
0.0883163
0.0895434
0.0907482
0.0919305
0.0930898
0.0942259
0.0953385
0.0964274
0.0974922
0.0985327
0.0995487
0.10054
0.101506
0.102447
0.103362
0.104252
0.105115
0.105953
0.106763
0.107548
0.108305
0.109036
0.109739
0.110415
0.111064
0.111685
0.112278
0.112843
0.113379
0.113888
0.114368
0.11482
0.115243
0.115638
0.116003
0.11634
0.116647
0.116926
0.117175
0.117396
0.117587
0.117748
0.117881
0.117984
0.118057
0.118102
0.118116
0.118101
0.118057
0.117984
0.117881
0.117748
0.117587
0.117396
0.117175
0.116926
0.116647
0.11634
0.116003
0.115637
0.115243
0.11482
0.114368
0.113888
0.113379
0.112842
0.112277
0.111684
0.111064
0.110415
0.109739
0.109036
0.108305
0.107548
0.106763
0.105952
0.105115
0.104251
0.103362
0.102447
0.101506
0.10054
0.0995485
0.0985325
0.0974919
0.0964271
0.0953382
0.0942256
0.0930895
0.0919302
0.0907479
0.0895431
0.088316
0.0870668
0.0857959
0.0845037
0.0831904
0.0818563
0.0805019
0.0791274
0.0777332
0.0763196
0.0748869
0.0734357
0.0719661
0.0704786
0.0689735
0.0674512
0.0659121
0.0643566
0.0627851
0.0611979
0.0595955
0.0579782
0.0563464
0.0547006
0.0530412
0.0513686
0.0496831
0.0479853
0.0462755
0.0445542
0.0428218
0.0410787
0.0393253
0.0375622
0.0357897
0.0340083
0.0322184
0.0304205
0.028615
0.0268024
0.0249831
0.0231576
0.0213262
0.0194896
0.0176482
0.0158023
0.0139525
0.0120992
0.0102429
0.00838401
0.00652307
0.00466049
0.00279676
0.000932333
0.00105595
0.0031676
0.00527846
0.00738799
0.00949569
0.011601
0.0137035
0.0158025
0.0178976
0.0199882
0.0220738
0.0241539
0.026228
0.0282956
0.0303561
0.0324091
0.034454
0.0364903
0.0385175
0.0405351
0.0425426
0.0445395
0.0465252
0.0484994
0.0504616
0.0524111
0.0543476
0.0562705
0.0581794
0.0600738
0.0619532
0.0638172
0.0656653
0.067497
0.0693119
0.0711095
0.0728894
0.0746512
0.0763943
0.0781184
0.079823
0.0815077
0.0831721
0.0848158
0.0864384
0.0880394
0.0896184
0.0911752
0.0927092
0.0942201
0.0957075
0.0971711
0.0986104
0.100025
0.101415
0.10278
0.104119
0.105432
0.106718
0.107978
0.109212
0.110418
0.111596
0.112747
0.113869
0.114964
0.116029
0.117066
0.118073
0.119051
0.12
0.120918
0.121806
0.122664
0.123492
0.124288
0.125054
0.125789
0.126492
0.127163
0.127803
0.128411
0.128987
0.129531
0.130043
0.130522
0.130969
0.131383
0.131764
0.132113
0.132428
0.132711
0.13296
0.133176
0.13336
0.133509
0.133626
0.133709
0.133759
0.133776
0.133759
0.133709
0.133626
0.133509
0.133359
0.133176
0.13296
0.132711
0.132428
0.132112
0.131764
0.131383
0.130969
0.130522
0.130043
0.129531
0.128987
0.128411
0.127803
0.127163
0.126491
0.125788
0.125054
0.124288
0.123492
0.122664
0.121806
0.120918
0.119999
0.119051
0.118073
0.117066
0.116029
0.114963
0.113869
0.112747
0.111596
0.110417
0.109211
0.107978
0.106718
0.105431
0.104118
0.102779
0.101415
0.100025
0.0986101
0.0971707
0.0957071
0.0942197
0.0927088
0.0911748
0.0896181
0.088039
0.086438
0.0848154
0.0831717
0.0815073
0.0798226
0.078118
0.0763939
0.0746508
0.072889
0.0711091
0.0693115
0.0674966
0.0656649
0.0638168
0.0619528
0.0600734
0.058179
0.0562701
0.0543472
0.0524107
0.0504612
0.0484991
0.0465249
0.0445391
0.0425422
0.0405347
0.0385171
0.0364899
0.0344537
0.0324088
0.0303558
0.0282953
0.0262278
0.0241537
0.0220736
0.0199879
0.0178973
0.0158023
0.0137033
0.0116009
0.00949556
0.00738789
0.00527838
0.00316755
0.00105594
0.0011793
0.00353761
0.00589504
0.00825099
0.0106049
0.0129561
0.0153042
0.0176484
0.0199882
0.022323
0.0246523
0.0269754
0.0292918
0.0316009
0.0339021
0.0361948
0.0384786
0.0407527
0.0430167
0.04527
0.047512
0.0497421
0.0519599
0.0541647
0.056356
0.0585333
0.0606959
0.0628435
0.0649754
0.067091
0.06919
0.0712717
0.0733357
0.0753814
0.0774083
0.0794159
0.0814037
0.0833712
0.085318
0.0872434
0.0891472
0.0910287
0.0928875
0.0947232
0.0965353
0.0983233
0.100087
0.101825
0.103539
0.105226
0.106887
0.108522
0.110129
0.111709
0.113261
0.114785
0.116281
0.117747
0.119184
0.120592
0.121969
0.123316
0.124632
0.125917
0.127171
0.128393
0.129583
0.13074
0.131866
0.132958
0.134017
0.135043
0.136035
0.136993
0.137917
0.138807
0.139662
0.140482
0.141267
0.142017
0.142732
0.143411
0.144054
0.144662
0.145233
0.145768
0.146267
0.14673
0.147156
0.147545
0.147897
0.148213
0.148491
0.148733
0.148937
0.149105
0.149235
0.149328
0.149384
0.149403
0.149384
0.149328
0.149235
0.149105
0.148937
0.148733
0.148491
0.148213
0.147897
0.147545
0.147155
0.14673
0.146267
0.145768
0.145233
0.144662
0.144054
0.143411
0.142732
0.142017
0.141267
0.140482
0.139661
0.138806
0.137917
0.136993
0.136034
0.135042
0.134017
0.132957
0.131865
0.13074
0.129582
0.128392
0.12717
0.125917
0.124631
0.123315
0.121968
0.120591
0.119184
0.117747
0.11628
0.114785
0.113261
0.111709
0.110129
0.108521
0.106887
0.105226
0.103538
0.101825
0.100086
0.0983229
0.0965349
0.0947228
0.0928871
0.0910283
0.0891467
0.087243
0.0853175
0.0833708
0.0814032
0.0794154
0.0774078
0.0753809
0.0733352
0.0712713
0.0691896
0.0670906
0.0649749
0.062843
0.0606955
0.0585328
0.0563556
0.0541643
0.0519595
0.0497417
0.0475116
0.0452696
0.0430163
0.0407524
0.0384782
0.0361945
0.0339017
0.0316005
0.0292915
0.0269751
0.024652
0.0223227
0.0199879
0.0176482
0.015304
0.012956
0.0106047
0.00825088
0.00589495
0.00353756
0.00117929
0.00130236
0.00390674
0.00651015
0.00911194
0.0117114
0.014308
0.0169011
0.0194899
0.0220738
0.0246523
0.0272246
0.0297901
0.0323482