# vtk DataFile Version 3.0
Malha 2D com triângulos e temperatura
ASCII
DATASET UNSTRUCTURED_GRID

POINTS 100 double
0 0 0
1 0 0
1 1 0
0 1 0
0.111111 0 0
0.222222 0 0
0.333333 0 0
0.444444 0 0
0.555556 0 0
0.666667 0 0
0.777778 0 0
0.888889 0 0
1 0.111111 0
1 0.222222 0
1 0.333333 0
1 0.444444 0
1 0.555556 0
1 0.666667 0
1 0.777778 0
1 0.888889 0
0.888889 1 0
0.777778 1 0
0.666667 1 0
0.555556 1 0
0.444444 1 0
0.333333 1 0
0.222222 1 0
0.111111 1 0
0 0.888889 0
0 0.777778 0
0 0.666667 0
0 0.555556 0
0 0.444444 0
0 0.333333 0
0 0.222222 0
0 0.111111 0
0.111111 0.888889 0
0.111111 0.777778 0
0.111111 0.666667 0
0.111111 0.555556 0
0.111111 0.444444 0
0.111111 0.333333 0
0.111111 0.222222 0
0.111111 0.111111 0
0.222222 0.888889 0
0.222222 0.777778 0
0.222222 0.666667 0
0.222222 0.555556 0
0.222222 0.444444 0
0.222222 0.333333 0
0.222222 0.222222 0
0.222222 0.111111 0
0.333333 0.888889 0
0.333333 0.777778 0
0.333333 0.666667 0
0.333333 0.555556 0
0.333333 0.444444 0
0.333333 0.333333 0
0.333333 0.222222 0
0.333333 0.111111 0
0.444444 0.888889 0
0.444444 0.777778 0
0.444444 0.666667 0
0.444444 0.555556 0
0.444444 0.444444 0
0.444444 0.333333 0
0.444444 0.222222 0
0.444444 0.111111 0
0.555556 0.888889 0
0.555556 0.777778 0
0.555556 0.666667 0
0.555556 0.555556 0
0.555556 0.444444 0
0.555556 0.333333 0
0.555556 0.222222 0
0.555556 0.111111 0
0.666667 0.888889 0
0.666667 0.777778 0
0.666667 0.666667 0
0.666667 0.555556 0
0.666667 0.444444 0
0.666667 0.333333 0
0.666667 0.222222 0
0.666667 0.111111 0
0.777778 0.888889 0
0.777778 0.777778 0
0.777778 0.666667 0
0.777778 0.555556 0
0.777778 0.444444 0
0.777778 0.333333 0
0.777778 0.222222 0
0.777778 0.111111 0
0.888889 0.888889 0
0.888889 0.777778 0
0.888889 0.666667 0
0.888889 0.555556 0
0.888889 0.444444 0
0.888889 0.333333 0
0.888889 0.222222 0
0.888889 0.111111 0

CELLS 81 405
4 3 28 36 27
4 28 29 37 36
4 29 30 38 37
4 30 31 39 38
4 31 32 40 39
4 32 33 41 40
4 33 34 42 41
4 34 35 43 42
4 35 0 4 43
4 27 36 44 26
4 36 37 45 44
4 37 38 46 45
4 38 39 47 46
4 39 40 48 47
4 40 41 49 48
4 41 42 50 49
4 42 43 51 50
4 43 4 5 51
4 26 44 52 25
4 44 45 53 52
4 45 46 54 53
4 46 47 55 54
4 47 48 56 55
4 48 49 57 56
4 49 50 58 57
4 50 51 59 58
4 51 5 6 59
4 25 52 60 24
4 52 53 61 60
4 53 54 62 61
4 54 55 63 62
4 55 56 64 63
4 56 57 65 64
4 57 58 66 65
4 58 59 67 66
4 59 6 7 67
4 24 60 68 23
4 60 61 69 68
4 61 62 70 69
4 62 63 71 70
4 63 64 72 71
4 64 65 73 72
4 65 66 74 73
4 66 67 75 74
4 67 7 8 75
4 23 68 76 22
4 68 69 77 76
4 69 70 78 77
4 70 71 79 78
4 71 72 80 79
4 72 73 81 80
4 73 74 82 81
4 74 75 83 82
4 75 8 9 83
4 22 76 84 21
4 76 77 85 84
4 77 78 86 85
4 78 79 87 86
4 79 80 88 87
4 80 81 89 88
4 81 82 90 89
4 82 83 91 90
4 83 9 10 91
4 21 84 92 20
4 84 85 93 92
4 85 86 94 93
4 86 87 95 94
4 87 88 96 95
4 88 89 97 96
4 89 90 98 97
4 90 91 99 98
4 91 10 11 99
4 20 92 19 2
4 92 93 18 19
4 93 94 17 18
4 94 95 16 17
4 95 96 15 16
4 96 97 14 15
4 97 98 13 14
4 98 99 12 13
4 99 11 1 12

CELL_TYPES 81
9
9
9
9
9
9
9
9
9
9
9
9
9
9
9
9
9
9
9
9
9
9
9
9
9
9
9
9
9
9
9
9
9
9
9
9
9
9
9
9
9
9
9
9
9
9
9
9
9
9
9
9
9
9
9
9
9
9
9
9
9
9
9
9
9
9
9
9
9
9
9
9
9
9
9
9
9
9
9
9
9

CELL_DATA 81
SCALARS Temperatura double 1
LOOKUP_TABLE default
0.0294867
0.0848321
0.129809
0.159106
0.16921
0.158906
0.129444
0.084415
0.0295167
0.0835086
0.241
0.369043
0.452492
0.481356
0.452178
0.368506
0.24055
0.084415
0.127704
0.368848
0.56493
0.692738
0.736983
0.692375
0.564345
0.368506
0.129444
0.156594
0.452425
0.692977
0.849772
0.904068
0.849382
0.692375
0.452178
0.158906
0.166671
0.481571
0.737603
0.904476
0.962261
0.904068
0.736983
0.481356
0.16921
0.156702
0.452732
0.693373
0.850189
0.904476
0.849772
0.692738
0.452492
0.159106
0.127854
0.369319
0.565538
0.693373
0.737603
0.692977
0.56493
0.369043
0.129809
0.0835243
0.241231
0.369319
0.452732
0.481571
0.452425
0.368848
0.241
0.0848321
0.028892
0.0835243
0.127854
0.156702
0.166671
0.156594
0.127704
0.0835086
0.0294867
