# vtk DataFile Version 3.0
Malha 2D com triângulos e temperatura
ASCII
DATASET UNSTRUCTURED_GRID

POINTS 900 double
0 0 0
1 0 0
1 1 0
0 1 0
0.0344828 0 0
0.0689655 0 0
0.103448 0 0
0.137931 0 0
0.172414 0 0
0.206897 0 0
0.241379 0 0
0.275862 0 0
0.310345 0 0
0.344828 0 0
0.37931 0 0
0.413793 0 0
0.448276 0 0
0.482759 0 0
0.517241 0 0
0.551724 0 0
0.586207 0 0
0.62069 0 0
0.655172 0 0
0.689655 0 0
0.724138 0 0
0.758621 0 0
0.793103 0 0
0.827586 0 0
0.862069 0 0
0.896552 0 0
0.931034 0 0
0.965517 0 0
1 0.0344828 0
1 0.0689655 0
1 0.103448 0
1 0.137931 0
1 0.172414 0
1 0.206897 0
1 0.241379 0
1 0.275862 0
1 0.310345 0
1 0.344828 0
1 0.37931 0
1 0.413793 0
1 0.448276 0
1 0.482759 0
1 0.517241 0
1 0.551724 0
1 0.586207 0
1 0.62069 0
1 0.655172 0
1 0.689655 0
1 0.724138 0
1 0.758621 0
1 0.793103 0
1 0.827586 0
1 0.862069 0
1 0.896552 0
1 0.931034 0
1 0.965517 0
0.965517 1 0
0.931034 1 0
0.896552 1 0
0.862069 1 0
0.827586 1 0
0.793103 1 0
0.758621 1 0
0.724138 1 0
0.689655 1 0
0.655172 1 0
0.62069 1 0
0.586207 1 0
0.551724 1 0
0.517241 1 0
0.482759 1 0
0.448276 1 0
0.413793 1 0
0.37931 1 0
0.344828 1 0
0.310345 1 0
0.275862 1 0
0.241379 1 0
0.206897 1 0
0.172414 1 0
0.137931 1 0
0.103448 1 0
0.0689655 1 0
0.0344828 1 0
0 0.965517 0
0 0.931034 0
0 0.896552 0
0 0.862069 0
0 0.827586 0
0 0.793103 0
0 0.758621 0
0 0.724138 0
0 0.689655 0
0 0.655172 0
0 0.62069 0
0 0.586207 0
0 0.551724 0
0 0.517241 0
0 0.482759 0
0 0.448276 0
0 0.413793 0
0 0.37931 0
0 0.344828 0
0 0.310345 0
0 0.275862 0
0 0.241379 0
0 0.206897 0
0 0.172414 0
0 0.137931 0
0 0.103448 0
0 0.0689655 0
0 0.0344828 0
0.0344828 0.965517 0
0.0344828 0.931034 0
0.0344828 0.896552 0
0.0344828 0.862069 0
0.0344828 0.827586 0
0.0344828 0.793103 0
0.0344828 0.758621 0
0.0344828 0.724138 0
0.0344828 0.689655 0
0.0344828 0.655172 0
0.0344828 0.62069 0
0.0344828 0.586207 0
0.0344828 0.551724 0
0.0344828 0.517241 0
0.0344828 0.482759 0
0.0344828 0.448276 0
0.0344828 0.413793 0
0.0344828 0.37931 0
0.0344828 0.344828 0
0.0344828 0.310345 0
0.0344828 0.275862 0
0.0344828 0.241379 0
0.0344828 0.206897 0
0.0344828 0.172414 0
0.0344828 0.137931 0
0.0344828 0.103448 0
0.0344828 0.0689655 0
0.0344828 0.0344828 0
0.0689655 0.965517 0
0.0689655 0.931034 0
0.0689655 0.896552 0
0.0689655 0.862069 0
0.0689655 0.827586 0
0.0689655 0.793103 0
0.0689655 0.758621 0
0.0689655 0.724138 0
0.0689655 0.689655 0
0.0689655 0.655172 0
0.0689655 0.62069 0
0.0689655 0.586207 0
0.0689655 0.551724 0
0.0689655 0.517241 0
0.0689655 0.482759 0
0.0689655 0.448276 0
0.0689655 0.413793 0
0.0689655 0.37931 0
0.0689655 0.344828 0
0.0689655 0.310345 0
0.0689655 0.275862 0
0.0689655 0.241379 0
0.0689655 0.206897 0
0.0689655 0.172414 0
0.0689655 0.137931 0
0.0689655 0.103448 0
0.0689655 0.0689655 0
0.0689655 0.0344828 0
0.103448 0.965517 0
0.103448 0.931034 0
0.103448 0.896552 0
0.103448 0.862069 0
0.103448 0.827586 0
0.103448 0.793103 0
0.103448 0.758621 0
0.103448 0.724138 0
0.103448 0.689655 0
0.103448 0.655172 0
0.103448 0.62069 0
0.103448 0.586207 0
0.103448 0.551724 0
0.103448 0.517241 0
0.103448 0.482759 0
0.103448 0.448276 0
0.103448 0.413793 0
0.103448 0.37931 0
0.103448 0.344828 0
0.103448 0.310345 0
0.103448 0.275862 0
0.103448 0.241379 0
0.103448 0.206897 0
0.103448 0.172414 0
0.103448 0.137931 0
0.103448 0.103448 0
0.103448 0.0689655 0
0.103448 0.0344828 0
0.137931 0.965517 0
0.137931 0.931034 0
0.137931 0.896552 0
0.137931 0.862069 0
0.137931 0.827586 0
0.137931 0.793103 0
0.137931 0.758621 0
0.137931 0.724138 0
0.137931 0.689655 0
0.137931 0.655172 0
0.137931 0.62069 0
0.137931 0.586207 0
0.137931 0.551724 0
0.137931 0.517241 0
0.137931 0.482759 0
0.137931 0.448276 0
0.137931 0.413793 0
0.137931 0.37931 0
0.137931 0.344828 0
0.137931 0.310345 0
0.137931 0.275862 0
0.137931 0.241379 0
0.137931 0.206897 0
0.137931 0.172414 0
0.137931 0.137931 0
0.137931 0.103448 0
0.137931 0.0689655 0
0.137931 0.0344828 0
0.172414 0.965517 0
0.172414 0.931034 0
0.172414 0.896552 0
0.172414 0.862069 0
0.172414 0.827586 0
0.172414 0.793103 0
0.172414 0.758621 0
0.172414 0.724138 0
0.172414 0.689655 0
0.172414 0.655172 0
0.172414 0.62069 0
0.172414 0.586207 0
0.172414 0.551724 0
0.172414 0.517241 0
0.172414 0.482759 0
0.172414 0.448276 0
0.172414 0.413793 0
0.172414 0.37931 0
0.172414 0.344828 0
0.172414 0.310345 0
0.172414 0.275862 0
0.172414 0.241379 0
0.172414 0.206897 0
0.172414 0.172414 0
0.172414 0.137931 0
0.172414 0.103448 0
0.172414 0.0689655 0
0.172414 0.0344828 0
0.206897 0.965517 0
0.206897 0.931034 0
0.206897 0.896552 0
0.206897 0.862069 0
0.206897 0.827586 0
0.206897 0.793103 0
0.206897 0.758621 0
0.206897 0.724138 0
0.206897 0.689655 0
0.206897 0.655172 0
0.206897 0.62069 0
0.206897 0.586207 0
0.206897 0.551724 0
0.206897 0.517241 0
0.206897 0.482759 0
0.206897 0.448276 0
0.206897 0.413793 0
0.206897 0.37931 0
0.206897 0.344828 0
0.206897 0.310345 0
0.206897 0.275862 0
0.206897 0.241379 0
0.206897 0.206897 0
0.206897 0.172414 0
0.206897 0.137931 0
0.206897 0.103448 0
0.206897 0.0689655 0
0.206897 0.0344828 0
0.241379 0.965517 0
0.241379 0.931034 0
0.241379 0.896552 0
0.241379 0.862069 0
0.241379 0.827586 0
0.241379 0.793103 0
0.241379 0.758621 0
0.241379 0.724138 0
0.241379 0.689655 0
0.241379 0.655172 0
0.241379 0.62069 0
0.241379 0.586207 0
0.241379 0.551724 0
0.241379 0.517241 0
0.241379 0.482759 0
0.241379 0.448276 0
0.241379 0.413793 0
0.241379 0.37931 0
0.241379 0.344828 0
0.241379 0.310345 0
0.241379 0.275862 0
0.241379 0.241379 0
0.241379 0.206897 0
0.241379 0.172414 0
0.241379 0.137931 0
0.241379 0.103448 0
0.241379 0.0689655 0
0.241379 0.0344828 0
0.275862 0.965517 0
0.275862 0.931034 0
0.275862 0.896552 0
0.275862 0.862069 0
0.275862 0.827586 0
0.275862 0.793103 0
0.275862 0.758621 0
0.275862 0.724138 0
0.275862 0.689655 0
0.275862 0.655172 0
0.275862 0.62069 0
0.275862 0.586207 0
0.275862 0.551724 0
0.275862 0.517241 0
0.275862 0.482759 0
0.275862 0.448276 0
0.275862 0.413793 0
0.275862 0.37931 0
0.275862 0.344828 0
0.275862 0.310345 0
0.275862 0.275862 0
0.275862 0.241379 0
0.275862 0.206897 0
0.275862 0.172414 0
0.275862 0.137931 0
0.275862 0.103448 0
0.275862 0.0689655 0
0.275862 0.0344828 0
0.310345 0.965517 0
0.310345 0.931034 0
0.310345 0.896552 0
0.310345 0.862069 0
0.310345 0.827586 0
0.310345 0.793103 0
0.310345 0.758621 0
0.310345 0.724138 0
0.310345 0.689655 0
0.310345 0.655172 0
0.310345 0.62069 0
0.310345 0.586207 0
0.310345 0.551724 0
0.310345 0.517241 0
0.310345 0.482759 0
0.310345 0.448276 0
0.310345 0.413793 0
0.310345 0.37931 0
0.310345 0.344828 0
0.310345 0.310345 0
0.310345 0.275862 0
0.310345 0.241379 0
0.310345 0.206897 0
0.310345 0.172414 0
0.310345 0.137931 0
0.310345 0.103448 0
0.310345 0.0689655 0
0.310345 0.0344828 0
0.344828 0.965517 0
0.344828 0.931034 0
0.344828 0.896552 0
0.344828 0.862069 0
0.344828 0.827586 0
0.344828 0.793103 0
0.344828 0.758621 0
0.344828 0.724138 0
0.344828 0.689655 0
0.344828 0.655172 0
0.344828 0.62069 0
0.344828 0.586207 0
0.344828 0.551724 0
0.344828 0.517241 0
0.344828 0.482759 0
0.344828 0.448276 0
0.344828 0.413793 0
0.344828 0.37931 0
0.344828 0.344828 0
0.344828 0.310345 0
0.344828 0.275862 0
0.344828 0.241379 0
0.344828 0.206897 0
0.344828 0.172414 0
0.344828 0.137931 0
0.344828 0.103448 0
0.344828 0.0689655 0
0.344828 0.0344828 0
0.37931 0.965517 0
0.37931 0.931034 0
0.37931 0.896552 0
0.37931 0.862069 0
0.37931 0.827586 0
0.37931 0.793103 0
0.37931 0.758621 0
0.37931 0.724138 0
0.37931 0.689655 0
0.37931 0.655172 0
0.37931 0.62069 0
0.37931 0.586207 0
0.37931 0.551724 0
0.37931 0.517241 0
0.37931 0.482759 0
0.37931 0.448276 0
0.37931 0.413793 0
0.37931 0.37931 0
0.37931 0.344828 0
0.37931 0.310345 0
0.37931 0.275862 0
0.37931 0.241379 0
0.37931 0.206897 0
0.37931 0.172414 0
0.37931 0.137931 0
0.37931 0.103448 0
0.37931 0.0689655 0
0.37931 0.0344828 0
0.413793 0.965517 0
0.413793 0.931034 0
0.413793 0.896552 0
0.413793 0.862069 0
0.413793 0.827586 0
0.413793 0.793103 0
0.413793 0.758621 0
0.413793 0.724138 0
0.413793 0.689655 0
0.413793 0.655172 0
0.413793 0.62069 0
0.413793 0.586207 0
0.413793 0.551724 0
0.413793 0.517241 0
0.413793 0.482759 0
0.413793 0.448276 0
0.413793 0.413793 0
0.413793 0.37931 0
0.413793 0.344828 0
0.413793 0.310345 0
0.413793 0.275862 0
0.413793 0.241379 0
0.413793 0.206897 0
0.413793 0.172414 0
0.413793 0.137931 0
0.413793 0.103448 0
0.413793 0.0689655 0
0.413793 0.0344828 0
0.448276 0.965517 0
0.448276 0.931034 0
0.448276 0.896552 0
0.448276 0.862069 0
0.448276 0.827586 0
0.448276 0.793103 0
0.448276 0.758621 0
0.448276 0.724138 0
0.448276 0.689655 0
0.448276 0.655172 0
0.448276 0.62069 0
0.448276 0.586207 0
0.448276 0.551724 0
0.448276 0.517241 0
0.448276 0.482759 0
0.448276 0.448276 0
0.448276 0.413793 0
0.448276 0.37931 0
0.448276 0.344828 0
0.448276 0.310345 0
0.448276 0.275862 0
0.448276 0.241379 0
0.448276 0.206897 0
0.448276 0.172414 0
0.448276 0.137931 0
0.448276 0.103448 0
0.448276 0.0689655 0
0.448276 0.0344828 0
0.482759 0.965517 0
0.482759 0.931034 0
0.482759 0.896552 0
0.482759 0.862069 0
0.482759 0.827586 0
0.482759 0.793103 0
0.482759 0.758621 0
0.482759 0.724138 0
0.482759 0.689655 0
0.482759 0.655172 0
0.482759 0.62069 0
0.482759 0.586207 0
0.482759 0.551724 0
0.482759 0.517241 0
0.482759 0.482759 0
0.482759 0.448276 0
0.482759 0.413793 0
0.482759 0.37931 0
0.482759 0.344828 0
0.482759 0.310345 0
0.482759 0.275862 0
0.482759 0.241379 0
0.482759 0.206897 0
0.482759 0.172414 0
0.482759 0.137931 0
0.482759 0.103448 0
0.482759 0.0689655 0
0.482759 0.0344828 0
0.517241 0.965517 0
0.517241 0.931034 0
0.517241 0.896552 0
0.517241 0.862069 0
0.517241 0.827586 0
0.517241 0.793103 0
0.517241 0.758621 0
0.517241 0.724138 0
0.517241 0.689655 0
0.517241 0.655172 0
0.517241 0.62069 0
0.517241 0.586207 0
0.517241 0.551724 0
0.517241 0.517241 0
0.517241 0.482759 0
0.517241 0.448276 0
0.517241 0.413793 0
0.517241 0.37931 0
0.517241 0.344828 0
0.517241 0.310345 0
0.517241 0.275862 0
0.517241 0.241379 0
0.517241 0.206897 0
0.517241 0.172414 0
0.517241 0.137931 0
0.517241 0.103448 0
[...]
CELL_DATA 841
SCALARS Temperatura double 1
LOOKUP_TABLE default
0.00292227
0.00873284
0.0144403
0.019978
0.0252813
0.0302881
0.0349397
0.0391816
0.0429641
0.0462429
0.0489795
0.0511419
0.0527047
0.0536496
0.0539656
0.0536488
0.0527031
0.0511395
0.0489764
0.046239
0.0429597
0.0391766
0.0349344
0.0302826
0.0252758
0.0199728
0.0144356
0.00872945
0.00292234
0.00872859
0.0260851
0.0431334
0.0596746
0.0755153
0.0904703
0.104364
0.117034
0.128332
0.138126
0.1463
0.152759
0.157426
0.160248
0.161192
0.160246
0.157421
0.15275
0.146289
0.138113
0.128317
0.117018
0.104346
0.0904516
0.0754968
0.0596571
0.0431183
0.0260746
0.00872945
0.0144349
0.0431377
0.0713306
0.0986847
0.12488
0.149611
0.172586
0.193539
0.212221
0.228416
0.241933
0.252613
0.260332
0.264998
0.266558
0.264993
0.260321
0.252597
0.241912
0.228391
0.212193
0.193507
0.172553
0.149576
0.124845
0.0986519
0.0713025
0.0431183
0.0144356
0.0199731
0.0596876
0.0986959
0.136543
0.172787
0.207004
0.238793
0.267781
0.29363
0.316037
0.334738
0.349514
0.360193
0.366649
0.368807
0.366641
0.360176
0.349489
0.334705
0.315998
0.293585
0.267731
0.238739
0.206949
0.172732
0.136492
0.0986519
0.0596571
0.0199728
0.0252783
0.0755405
0.124908
0.172806
0.218674
0.261976
0.302206
0.338891
0.371603
0.399959
0.423625
0.442324
0.455838
0.464008
0.466737
0.463995
0.455814
0.442289
0.423578
0.399903
0.371539
0.33882
0.302129
0.261897
0.218596
0.172732
0.124845
0.0754968
0.0252758
0.0302882
0.0905105
0.14966
0.207047
0.262002
0.313882
0.362081
0.406034
0.445226
0.479198
0.507551
0.529954
0.546144
0.555931
0.559201
0.555915
0.546112
0.529906
0.507489
0.479122
0.445139
0.405938
0.361979
0.313777
0.261897
0.206949
0.149576
0.0904516
0.0302826
0.0349441
0.104422
0.17266
0.238865
0.302264
0.362115
0.417718
0.468423
0.513635
0.552825
0.585533
0.611377
0.630053
0.641343
0.645113
0.641321
0.630011
0.611315
0.585453
0.552728
0.513523
0.468299
0.417586
0.361979
0.302129
0.238739
0.172553
0.104346
0.0349344
0.0391915
0.117112
0.193641
0.267888
0.338987
0.406107
0.468463
0.525325
0.576027
0.619976
0.656656
0.685637
0.70658
0.719239
0.723467
0.719213
0.706528
0.68556
0.656556
0.619856
0.575889
0.525172
0.468299
0.405938
0.33882
0.267731
0.193507
0.117018
0.0391766
0.0429804
0.128431
0.212354
0.293774
0.37174
0.445343
0.513721
0.576074
0.631672
0.679864
0.720085
0.751863
0.774828
0.788708
0.793343
0.788677
0.774765
0.751771
0.719964
0.679718
0.631505
0.575889
0.513523
0.445139
0.371539
0.293585
0.212193
0.128317
0.0429597
0.0462664
0.138248
0.228582
0.31622
0.40014
0.479363
0.552961
0.620074
0.679916
0.731786
0.775076
0.80928
0.833996
0.848934
0.853921
0.848897
0.833922
0.809171
0.774934
0.731614
0.679718
0.619856
0.552728
0.479122
0.399903
0.315998
0.228391
0.138113
0.046239
0.049011
0.146445
0.242133
0.334963
0.423854
0.507767
0.585723
0.65681
0.720194
0.775133
0.820985
0.857212
0.88339
0.899211
0.904491
0.899168
0.883304
0.857086
0.820821
0.774934
0.719964
0.656556
0.585453
0.507489
0.423578
0.334705
0.241912
0.146289
0.0489764
0.0511819
0.152928
0.252849
0.349783
0.442602
0.530223
0.611623
0.685849
0.752032
0.809398
0.857273
0.895099
0.922431
0.938949
0.94446
0.9389
0.922333
0.894955
0.857086
0.809171
0.751771
0.68556
0.611315
0.529906
0.442289
0.349489
0.252597
0.15275
0.0511395
0.0527536
0.157621
0.260603
0.360505
0.456165
0.546467
0.630357
0.706852
0.775058
0.834176
0.883515
0.922495
0.950661
0.967682
0.973359
0.967626
0.950551
0.922333
0.883304
0.833922
0.774765
0.706528
0.630011
0.546112
0.455814
0.360176
0.260321
0.157421
0.0527031
0.0537077
0.160467
0.265304
0.367004
0.464384
0.556308
0.641704
0.719571
0.789001
0.849179
0.899401
0.939079
0.967748
0.985072
0.990849
0.985011
0.967626
0.9389
0.899168
0.848897
0.788677
0.719213
0.641321
0.555915
0.463995
0.366641
0.264993
0.160246
0.0536488
0.0540329
0.161434
0.266898
0.369204
0.467162
0.559631
0.645531
0.723858
0.793697
0.854229
0.904746
0.944656
0.973492
0.990916
0.996724
0.990849
0.973359
0.94446
0.904491
0.853921
0.793343
0.723467
0.645113
0.559201
0.466737
0.368807
0.266558
0.161192
0.0539656
0.0537254
0.16051
0.265365
0.367078
0.464466
0.556395
0.641793
0.719662
0.789091
0.849267
0.899487
0.939161
0.967825
0.985145
0.990916
0.985072
0.967682
0.938949
0.899211
0.848934
0.788708
0.719239
0.641343
0.555931
0.464008
0.366649
0.264998
0.160248
0.0536496
0.0527886
0.157706
0.260724
0.360651
0.456327
0.54664
0.630534
0.707032
0.775237
0.834351
0.883684
0.922657
0.950814
0.967825
0.973492
0.967748
0.950661
0.922431
0.88339
0.833996
0.774828
0.70658
0.630053
0.546144
0.455838
0.360193
0.260332
0.157426
0.0527047
0.0512334
0.153054
0.253027
0.349997
0.442841
0.530478
0.611886
0.686114
0.752295
0.809656
0.857523
0.895338
0.922657
0.939161
0.944656
0.939079
0.922495
0.895099
0.857212
0.80928
0.751863
0.685637
0.611377
0.529954
0.442324
0.349514
0.252613
0.152759
0.0511419
0.049078
0.146609
0.242365
0.335242
0.424164
0.508098
0.586065
0.657154
0.720536
0.775469
0.82131
0.857523
0.883684
0.899487
0.904746
0.899401
0.883515
0.857273
0.820985
0.775076
0.720085
0.656656
0.585533
0.507551
0.423625
0.334738
0.241933
0.1463
0.0489795
0.0463474
0.138446
0.228863
0.316558
0.400516
0.479763
0.553374
0.620491
0.68033
0.732192
0.775469
0.809656
0.834351
0.849267
0.854229
0.849179
0.834176
0.809398
0.775133
0.731786
0.679864
0.619976
0.552825
0.479198
0.399959
0.316037
0.228416
0.138126
0.0462429
0.0430735
0.128659
0.212677
0.294162
0.372172
0.445802
0.514195
0.576553
0.632148
0.68033
0.720536
0.752295
0.775237
0.789091
0.793697
0.789001
0.775058
0.752032
0.720194
0.679916
0.631672
0.576027
0.513635
0.445226
0.371603
0.29363
0.212221
0.128332
0.0429641
0.0392944
0.117364
0.193997
0.268317
0.339464
0.406614
0.468987
0.525854
0.576553
0.620491
0.657154
0.686114
0.707032
0.719662
0.723858
0.719571
0.706852
0.685849
0.65681
0.620074
0.576074
0.525325
0.468423
0.406034
0.338891
0.267781
0.193539
0.117034
0.0391816
0.0350538
0.10469
0.17304
0.239322
0.302772
0.362656
0.418276
0.468987
0.514195
0.553374
0.586065
0.611886
0.630534
0.641793
0.645531
0.641704
0.630357
0.611623
0.585723
0.552961
0.513721
0.468463
0.417718
0.362081
0.302206
0.238793
0.172586
0.104364
0.0349397
0.0304009
0.0907862
0.15005
0.207517
0.262525
0.314439
0.362656
0.406614
0.445802
0.479763
0.508098
0.530478
0.54664
0.556395
0.559631
0.556308
0.546467
0.530223
0.507767
0.479363
0.445343
0.406107
0.362115
0.313882
0.261976
0.207004
0.149611
0.0904703
0.0302881
0.0253895
0.0758126
0.125294
0.17327
0.21919
0.262525
0.302772
0.339464
0.372172
0.400516
0.424164
0.442841
0.456327
0.464466
0.467162
0.464384
0.456165
0.442602
0.423854
0.40014
0.37174
0.338987
0.302264
0.262002
0.218674
0.172787
0.12488
0.0755153
0.0252813
0.0200769
0.0599417
0.099056
0.136977
0.17327
0.207517
0.239322
0.268317
0.294162
0.316558
0.335242
0.349997
0.360651
0.367078
0.369204
0.367004
0.360505
0.349783
0.334963
0.31622
0.293774
0.267888
0.238865
0.207047
0.172806
0.136543
0.0986847
0.0596746
0.019978
0.0145237
0.0433554
0.0716391
0.099056
0.125294
0.15005
0.17304
0.193997
0.212677
0.228863
0.242365
0.253027
0.260724
0.265365
0.266898
0.265304
0.260603
0.252849
0.242133
0.228582
0.212354
0.193641
0.17266
0.14966
0.124908
0.0986959
0.0713306
0.0431334
0.0144403
0.00879252
0.0262417
0.0433554
0.0599417
0.0758126
0.0907862
0.10469
0.117364
0.128659
0.138446
0.146609
0.153054
0.157706
0.16051
0.161434
0.160467
0.157621
0.152928
0.146445
0.138248
0.128431
0.117112
0.104422
0.0905105
0.0755405
0.0596876
0.0431377
0.0260851
0.00873284
0.00294686
0.00879252
0.0145237
0.0200769
0.0253895
0.0304009
0.0350538
0.0392944
0.0430735
0.0463474
0.049078
0.0512334
0.0527886
0.0537254
0.0540329
0.0537077
0.0527536
0.0511819
0.049011
0.0462664
0.0429804
0.0391915
0.0349441
0.0302882
0.0252783
0.0199731
0.0144349
0.00872859
0.00292227
