# vtk DataFile Version 3.0
Malha 2D com triângulos: velocidade e pressão
ASCII
DATASET UNSTRUCTURED_GRID

POINTS 259 double
-0.5 0 0
1.5 0 0
1.5 2 0
-0.5 2 0
-0.357143 0 0
-0.214286 0 0
-0.0714286 0 0
0.0714286 0 0
0.214286 0 0
0.357143 0 0
0.5 0 0
0.642857 0 0
0.785714 0 0
0.928571 0 0
1.07143 0 0
1.21429 0 0
1.35714 0 0
1.5 0.142857 0
1.5 0.285714 0
1.5 0.428571 0
1.5 0.571429 0
1.5 0.714286 0
1.5 0.857143 0
1.5 1 0
1.5 1.14286 0
1.5 1.28571 0
1.5 1.42857 0
1.5 1.57143 0
1.5 1.71429 0
1.5 1.85714 0
1.35714 2 0
1.21429 2 0
1.07143 2 0
0.928571 2 0
0.785714 2 0
0.642857 2 0
0.5 2 0
0.357143 2 0
0.214286 2 0
0.0714286 2 0
-0.0714286 2 0
-0.214286 2 0
-0.357143 2 0
-0.5 1.85714 0
-0.5 1.71429 0
-0.5 1.57143 0
-0.5 1.42857 0
-0.5 1.28571 0
-0.5 1.14286 0
-0.5 1 0
-0.5 0.857143 0
-0.5 0.714286 0
-0.5 0.571429 0
-0.5 0.428571 0
-0.5 0.285714 0
-0.5 0.142857 0
0.427902 1.87414 0
-0.367311 0.931658 0
0.569353 0.106223 0
1.37628 1.07143 0
0.143471 0.0979514 0
1.37628 0.642857 0
0.858884 1.87729 0
-0.369552 1.35714 0
1.00157 0.12695 0
-0.374306 0.499838 0
1.37628 1.5 0
0.0083863 1.86357 0
-0.144905 0.123521 0
1.37696 0.35831 0
1.13476 1.88307 0
-0.366943 1.64169 0
1.37903 1.78511 0
1.2726 0.129385 0
-0.287014 1.87745 0
-0.379267 0.214193 0
1.37628 1.35714 0
1.25256 1.42857 0
1.25256 1.28571 0
1.12885 1.35714 0
1.12885 1.21429 0
1.00513 1.28571 0
1.00513 1.14286 0
0.88141 1.21429 0
0.88141 1.07143 0
0.757693 1.14286 0
0.757693 1 0
0.633975 1.07143 0
0.633975 0.928571 0
0.510257 1 0
0.510257 0.857143 0
0.510257 1.14286 0
0.386539 1.07143 0
0.757693 0.857143 0
0.386539 1.21429 0
0.262821 1.14286 0
0.262821 1.28571 0
0.757693 1.28571 0
0.262821 1 0
0.386539 1.35714 0
0.139103 1.21429 0
0.139103 1.35714 0
1.00513 1 0
1.00513 1.42857 0
0.015385 1.28571 0
0.015385 1.14286 0
0.015385 1.42857 0
0.139103 1.5 0
0.015385 1.57143 0
0.139103 1.64286 0
-0.108333 1.21429 0
-0.107531 1.07282 0
-0.108575 1.5 0
1.25256 1.57143 0
0.262821 1.57143 0
0.0155188 1.00023 0
-0.109293 0.933162 0
0.0152472 0.857947 0
-0.110435 0.789544 0
0.0150118 0.715058 0
-0.11032 0.640909 0
0.0134167 0.568518 0
0.138713 0.642501 0
0.13946 0.500755 0
0.262815 0.571495 0
0.26363 0.430008 0
0.386673 0.500251 0
0.0189247 0.424422 0
0.262755 0.714237 0
0.386696 0.357424 0
0.510305 0.42866 0
0.510287 0.571485 0
0.633988 0.500024 0
-0.106282 1.63923 0
-0.234651 0.71753 0
-0.231115 1.14448 0
0.635465 0.359726 0
0.757943 0.429006 0
0.757736 0.571505 0
0.88146 0.500085 0
0.881414 0.642864 0
1.00514 0.571444 0
1.00514 0.428588 0
1.00513 0.714289 0
1.12885 0.500005 0
0.75627 0.285434 0
1.12885 0.357147 0
0.260872 1.71091 0
0.384265 1.63892 0
0.268685 0.288783 0
0.394004 0.222933 0
0.138237 1.78225 0
1.00454 0.282111 0
1.13383 0.212834 0
-0.234434 1.28598 0
-0.234211 0.57061 0
-0.234096 1.57063 0
-0.230472 1.73542 0
0.273734 1.8625 0
0.869203 0.211469 0
-0.365145 1.2146 0
-0.367349 1.49967 0
-0.366489 0.643234 0
-0.246567 0.423937 0
-0.109548 0.495038 0
-0.10147 0.354651 0
0.0231672 0.289135 0
-0.228201 0.259412 0
-0.364983 0.788606 0
-0.235652 0.861473 0
-0.360547 1.07256 0
-0.237056 1.42843 0
-0.374106 0.35579 0
1.25256 1.14286 0
0.881411 0.785716 0
1.37674 1.64276 0
1.26477 1.71681 0
1.1288 1.65102 0
1.12885 1.07143 0
1.12885 0.928571 0
0.38616 1.49934 0
0.509815 1.57066 0
0.502873 1.73762 0
0.636379 1.6501 0
0.634302 1.50108 0
0.757693 1.57143 0
0.633975 1.78571 0
0.731914 0.132322 0
1.37628 1.21429 0
0.998941 1.87939 0
0.93268 1.76385 0
0.774201 1.73751 0
0.757701 0.7143 0
0.633976 0.785717 0
0.510262 0.714296 0
0.139125 1.07147 0
0.0165077 1.71055 0
0.0142394 0.139669 0
1.37639 0.500195 0
1.37628 0.785714 0
1.25256 0.714286 0
1.25256 0.857143 0
0.88141 1.35714 0
0.262758 1.42846 0
0.510174 1.42851 0
0.510243 1.2857 0
0.633972 1.21428 0
0.757747 1.42875 0
0.880362 1.4982 0
-0.109605 1.35716 0
-0.148433 1.8734 0
1.12884 1.50136 0
0.139103 0.785714 0
0.26281 0.857135 0
0.139104 0.928749 0
1.25256 1 0
0.879092 0.356115 0
0.881411 0.928572 0
0.386537 0.92857 0
1.37628 0.928571 0
1.00404 1.56493 0
0.633992 0.642888 0
0.386539 0.785714 0
0.509479 0.297167 0
0.386555 0.642913 0
1.12885 0.785715 0
0.634022 1.35734 0
1.12885 0.642861 0
1.00513 0.857144 0
1.25258 0.571463 0
1.2527 0.428806 0
1.25754 0.284629 0
0.279361 0.136191 0
-0.284301 0.117729 0
1.38277 0.21864 0
-0.380147 1.78289 0
1.27402 1.86554 0
0.143606 0.364942 0
-0.232954 1.00431 0
1.06232 1.77238 0
0.718815 1.88184 0
0.887522 1.63464 0
0.622962 0.228175 0
0.559432 1.88409 0
0.369929 1.76482 0
0.428571 0.0993605 0
-0.0874338 0.233277 0
-0.0920585 1.76444 0
0.147356 0.231624 0
1.13874 0.0938339 0
0.142857 1.90473 0
0.863394 0.0941481 0
1.39542 1.89542 0
-0.395421 1.89542 0
-0.395421 0.104579 0
1.39542 0.104579 0
1.00605 1.67856 0
0.499923 0.189006 0
1.17271 1.77835 0

CELLS 460 1840
3 185 191 183
3 145 187 159
3 157 210 74
3 197 248 166
3 60 248 197
3 182 243 56
3 183 191 186
3 73 231 153
3 187 251 159
3 37 158 56
3 149 248 232
3 185 241 191
3 68 246 167
3 167 233 68
3 157 247 210
3 163 167 165
3 67 196 151
3 74 235 157
3 56 244 182
3 153 249 73
3 232 248 60
3 38 158 37
3 118 169 134
3 52 162 51
3 49 170 48
3 51 168 50
3 162 168 51
3 48 170 160
3 48 160 47
3 156 157 71
3 163 165 164
3 154 171 63
3 186 243 182
3 64 153 152
3 46 161 45
3 167 172 75
3 120 164 121
3 35 243 240
3 157 235 71
3 57 238 170
3 163 172 167
3 65 163 155
3 75 233 167
3 152 159 64
3 167 246 165
3 169 238 57
3 72 236 176
3 116 169 118
3 149 232 150
3 71 161 156
3 47 160 63
3 63 160 154
3 50 168 57
3 65 162 52
3 155 162 65
3 57 170 49
3 73 234 231
3 134 169 168
3 63 171 161
3 63 161 46
3 45 161 71
3 121 164 127
3 155 164 120
3 158 244 56
3 240 243 186
3 151 250 67
3 67 247 196
3 236 258 176
3 145 242 187
3 159 216 145
3 152 216 159
3 163 164 155
3 191 240 186
3 166 246 197
3 65 172 163
3 171 209 112
3 168 169 57
3 54 172 53
3 164 165 127
3 161 171 156
3 154 209 171
3 156 171 112
3 64 249 153
3 53 172 65
3 75 172 54
3 165 166 127
3 93 192 174
3 59 188 173
3 201 219 215
3 201 215 179
3 215 219 59
3 90 193 88
3 72 175 28
3 217 228 102
3 174 217 93
3 174 228 217
3 24 188 59
3 66 113 77
3 181 204 184
3 179 225 201
3 76 188 25
3 77 79 78
3 79 80 78
3 90 194 193
3 26 76 25
3 28 175 27
3 72 176 175
3 77 78 76
3 173 188 78
3 204 226 184
3 21 199 61
3 78 188 76
3 88 193 93
3 183 186 182
3 94 95 92
3 99 204 180
3 206 226 205
3 66 76 26
3 173 215 59
3 62 191 190
3 85 86 84
3 81 83 82
3 83 84 82
3 104 110 105
3 180 204 181
3 225 227 200
3 16 73 15
3 24 59 23
3 25 188 24
3 29 72 28
3 37 56 36
3 80 173 78
3 103 220 208
3 128 224 222
3 194 221 193
3 74 210 41
3 66 175 113
3 101 104 100
3 114 148 147
3 147 158 151
3 199 219 201
3 27 175 66
3 103 202 81
3 91 94 92
3 94 205 99
3 96 100 95
3 96 203 101
3 195 214 98
3 106 209 104
3 131 221 194
3 192 221 138
3 139 141 140
3 180 181 148
3 177 220 211
3 207 208 185
3 205 226 204
3 11 58 10
3 11 187 58
3 21 61 20
3 33 189 32
3 34 62 33
3 50 57 49
3 66 77 76
3 80 178 173
3 87 91 89
3 93 193 192
3 101 203 107
3 107 114 109
3 111 116 115
3 176 177 113
3 115 214 195
3 128 212 122
3 184 207 185
3 14 64 13
3 27 66 26
3 53 65 52
3 113 211 77
3 85 206 87
3 89 90 88
3 94 96 95
3 98 214 213
3 114 180 148
3 125 126 124
3 128 213 212
3 202 208 207
3 40 67 39
3 84 102 82
3 85 87 86
3 97 206 85
3 88 93 86
3 91 205 94
3 202 207 97
3 104 105 100
3 103 208 202
3 107 203 114
3 120 121 119
3 8 60 7
3 77 211 79
3 87 89 88
3 218 222 90
3 94 99 96
3 99 205 204
3 111 115 105
3 122 212 119
3 121 123 122
3 149 150 129
3 139 216 142
3 174 192 140
3 12 187 11
3 22 199 21
3 42 74 41
3 55 75 54
3 62 190 189
3 79 211 103
3 87 88 86
3 91 92 89
3 104 209 110
3 115 195 105
3 110 209 154
3 114 203 180
3 116 117 115
3 123 124 122
3 123 125 124
3 134 168 162
3 137 139 138
3 145 216 137
3 141 143 140
3 181 183 182
3 213 214 212
3 6 68 5
3 6 197 68
3 22 219 199
3 62 189 33
3 47 63 46
3 89 218 90
3 95 98 92
3 100 195 95
3 105 195 100
3 108 112 106
3 110 154 135
3 175 176 113
3 212 214 117
3 121 127 123
3 125 129 126
3 136 137 132
3 137 138 132
3 137 216 139
3 139 140 138
3 181 182 148
3 222 224 194
3 201 225 200
3 7 197 6
3 19 69 18
3 20 198 19
3 32 70 31
3 41 210 40
3 45 71 44
3 81 82 80
3 83 202 97
3 84 217 102
3 99 203 96
3 96 101 100
3 180 203 99
3 147 151 109
3 110 135 111
3 117 214 115
3 118 119 117
3 121 122 119
3 132 221 131
3 143 174 140
3 179 215 178
3 181 184 183
3 199 201 200
3 60 197 7
3 59 219 23
3 102 178 82
3 83 85 84
3 112 209 106
3 116 118 117
3 119 212 117
3 124 224 128
3 125 149 129
3 194 224 131
3 138 221 132
3 140 192 138
3 142 144 141
3 86 217 84
3 95 195 98
3 97 226 206
3 213 218 98
3 101 106 104
3 102 179 178
3 151 196 109
3 124 128 122
3 129 130 126
3 130 131 126
3 143 228 174
3 178 215 173
3 23 219 22
3 79 81 80
3 82 178 80
3 83 97 85
3 93 217 86
3 107 108 106
3 108 196 133
3 133 156 112
3 126 224 124
3 133 157 156
3 154 160 135
3 213 222 218
3 92 218 89
3 109 196 108
3 114 147 109
3 118 120 119
3 118 134 120
3 134 155 120
3 130 132 131
3 134 162 155
3 139 142 141
3 193 221 192
3 61 198 20
3 199 200 61
3 79 103 81
3 81 202 83
3 91 206 205
3 207 226 97
3 101 107 106
3 102 228 179
3 177 211 113
3 128 222 213
3 130 136 132
3 136 145 137
3 143 227 225
3 225 228 143
3 184 226 207
3 19 198 69
3 32 189 70
3 108 133 112
3 131 224 126
3 142 216 152
3 40 210 67
3 90 222 194
3 150 223 129
3 142 152 146
3 87 206 91
3 110 111 105
3 107 109 108
3 130 223 136
3 160 170 135
3 98 218 92
3 211 220 103
3 129 223 130
3 61 229 198
3 152 153 146
3 184 185 183
3 198 230 69
3 142 146 144
3 141 227 143
3 229 230 198
3 144 227 141
3 200 229 61
3 179 228 225
3 144 230 229
3 144 229 227
3 230 231 69
3 227 229 200
3 146 231 230
3 146 230 144
3 153 231 146
3 223 257 242
3 191 241 190
3 9 232 8
3 116 238 169
3 44 235 43
3 18 234 17
3 31 236 30
3 5 233 4
3 231 234 69
3 8 232 60
3 166 237 127
3 125 237 149
3 127 237 123
3 170 238 135
3 111 238 116
3 242 257 58
3 190 239 189
3 35 240 34
3 62 240 191
3 220 241 208
3 9 245 232
3 223 242 136
3 210 247 67
3 36 243 35
3 71 235 44
3 70 236 31
3 68 233 5
3 69 234 18
3 159 251 64
3 123 237 125
3 182 244 148
3 147 244 158
3 232 245 150
3 58 245 10
3 133 247 157
3 135 238 111
3 14 249 64
3 73 249 15
3 67 250 39
3 64 251 13
3 12 251 187
3 189 239 70
3 43 253 3
3 30 252 2
3 3 253 42
3 4 254 0
3 17 255 1
3 0 254 55
3 2 252 29
3 1 255 16
3 34 240 62
3 208 241 185
3 38 250 158
3 136 242 145
3 187 242 58
3 56 243 36
3 176 258 177
3 220 256 241
3 70 258 236
3 158 250 151
3 148 244 147
3 165 246 166
3 10 245 9
3 197 246 68
3 196 247 133
3 237 248 149
3 15 249 14
3 177 258 239
3 39 250 38
3 177 256 220
3 13 251 12
3 241 256 190
3 235 253 43
3 233 254 4
3 234 255 17
3 236 252 30
3 166 248 237
3 29 252 72
3 42 253 74
3 16 255 73
3 55 254 75
3 58 257 245
3 190 256 239
3 239 256 177
3 150 257 223
3 73 255 234
3 72 252 236
3 75 254 233
3 74 253 235
3 239 258 70
3 245 257 150

CELL_TYPES 460
5
5
5
5
5
5
5
5
5
5
5
5
5
5
5
5
5
5
5
5
5
5
5
5
5
5
5
5
5
5
5
5
5
5
5
5
5
5
5
5
5
5
5
5
5
5
5
5
5
5
5
5
5
5
5
5
5
5
5
5
5
5
5
5
5
5
5
5
5
5
5
5
5
5
5
5
5
5
5
5
5
5
5
5
5
5
5
5
5
5
5
5
5
5
5
5
5
5
5
5
5
5
5
5
5
5
5
5
5
5
5
5
5
5
5
5
5
5
5
5
5
5
5
5
5
5
5
5
5
5
5
5
5
5
5
5
5
5
5
5
5
5
5
5
5
5
5
5
5
5
5
5
5
5
5
5
5
5
5
5
5
5
5
5
5
5
5
5
5
5
5
5
5
5
5
5
5
5
5
5
5
5
5
5
5
5
5
5
5
5
5
5
5
5
5
5
5
5
5
5
5
5
5
5
5
5
5
5
5
5
5
5
5
5
5
5
5
5
5
5
5
5
5
5
5
5
5
5
5
5
5
5
5
5
5
5
5
5
5
5
5
5
5
5
5
5
5
5
5
5
5
5
5
5
5
5
5
5
5
5
5
5
5
5
5
5
5
5
5
5
5
5
5
5
5
5
5
5
5
5
5
5
5
5
5
5
5
5
5
5
5
5
5
5
5
5
5
5
5
5
5
5
5
5
5
5
5
5
5
5
5
5
5
5
5
5
5
5
5
5
5
5
5
5
5
5
5
5
5
5
5
5
5
5
5
5
5
5
5
5
5
5
5
5
5
5
5
5
5
5
5
5
5
5
5
5
5
5
5
5
5
5
5
5
5
5
5
5
5
5
5
5
5
5
5
5
5
5
5
5
5
5
5
5
5
5
5
5
5
5
5
5
5
5
5
5
5
5
5
5
5
5
5
5
5
5
5
5
5
5
5
5
5
5
5
5
5
5
5
5
5
5
5
5
5
5
5
5
5
5
5
5
5
5
5
5
5
5
5
5
5
5
5
5
5
5
5
5
5
5
5
5
5
5
5
5
5
5
5
5

CELL_DATA 460
VECTORS velocity double
1.13838 0.0587304 0
0.932456 -0.0616384 0
0.315955 0.396623 0
0.818789 -0.245844 0
0.572443 -0.233563 0
0.827596 0.095435 0
1.04929 0.0765864 0
0.965208 -0.0301062 0
0.862516 -0.0562907 0
0.553207 0.0922091 0
0.896981 -0.18657 0
1.12108 0.0485763 0
0.630248 -0.421347 0
0.27386 -0.388014 0
0.656673 0.427089 0
1.79613 -0.352395 0
0.794241 0.24729 0
0.547687 0.49853 0
0.894497 0.112029 0
0.925761 -0.0270085 0
0.638312 -0.171957 0
0.425506 0.0464999 0
0.647345 0.427877 0
2.52614 0.524255 0
-0.808373 -0.266228 0
0.516637 0.613848 0
1.57468 0.585974 0
-0.282697 -0.513673 0
0.530002 -0.614501 0
1.99346 0.406079 0
2.13452 -0.161753 0
2.06101 -0.39424 0
0.891283 0.0952895 0
0.949822 -0.0395262 0
3.46367 -0.00168192 0
1.34352 -0.531484 0
2.01892 0.147824 0
0.723154 0.0445692 0
1.3819 0.51777 0
-0.839282 -0.0073593 0
1.97841 -0.425926 0
2.62787 0.00649175 0
0.500671 -0.496613 0
0.948929 -0.0485253 0
1.32859 -0.41629 0
-0.562427 0.219075 0
0.971178 0.0223072 0
0.171003 0.333409 0
0.869012 -0.157716 0
2.64263 0.230991 0
1.59254 -0.5952 0
1.3985 -0.52713 0
-0.323224 0.508472 0
2.93912 0.277302 0
2.64822 0.252942 0
-1.15534 -0.00747851 0
0.966217 -0.0241028 0
0.660019 0.508066 0
2.63734 -0.239673 0
2.9264 -0.2646 0
2.93421 0.259461 0
1.97805 -0.00940196 0
2.16143 0.170788 0
0.748551 0.138068 0
0.81497 0.0697058 0
0.535089 0.226858 0
0.839155 0.294751 0
0.972098 0.0256169 0
0.936874 -0.073713 0
1.03663 -0.0565038 0
1.02955 -0.0505728 0
2.43065 0.00213587 0
0.917708 0.0652356 0
0.835412 -0.288597 0
2.65409 -0.243213 0
2.16043 -0.175273 0
-0.239123 0.404374 0
2.52454 -0.527812 0
1.97457 -0.146064 0
2.61238 -0.00451145 0
1.918 -0.34709 0
2.42509 -0.00264763 0
0.910553 -0.0338376 0
2.93414 -0.267515 0
1.60214 -0.5873 0
1.63869 -0.23962 0
0.9658 0.0611506 0
0.962446 -0.0156749 0
0.935362 0.00977951 0
0.92561 0.0119808 0
0.934067 9.80581e-05 0
0.824212 0.076212 0
1.01231 0.0179932 0
0.876067 0.020204 0
0.894215 0.0460718 0
0.908343 0.0386762 0
0.967939 -0.0119436 0
1.08618 0.0018988 0
1.33747 -0.00143978 0
0.945757 0.0231422 0
1.02245 -0.014468 0
1.06584 -0.0198251 0
1.0321 -0.0279099 0
0.939996 0.100563 0
1.04238 -0.0097051 0
1.03549 0.0135826 0
1.01342 0.0217808 0
1.05851 -0.0161561 0
0.990885 -0.0212748 0
1.27872 -0.0408264 0
1.02222 0.0144126 0
1.0251 -0.0189377 0
0.846815 0.0636914 0
1.05555 0.10146 0
0.705871 -0.125642 0
1.38609 -0.0578918 0
1.08128 -0.0913664 0
1.06444 -0.00520671 0
0.935335 -0.00956425 0
0.944564 0.0575625 0
0.821416 -0.0270576 0
0.978192 -0.0439439 0
0.90782 -0.0382401 0
0.819777 -0.323365 0
1.38444 -0.00267368 0
1.03208 0.0280852 0
0.902627 -0.00661303 0
0.95674 -0.00591243 0
0.995443 -0.0130758 0
0.980589 0.017084 0
0.552711 0.0354581 0
0.988993 -0.0260176 0
1.15247 0.00123038 0
1.13124 0.149819 0
1.08261 0.091403 0
-0.297729 0.227875 0
1.07025 0.0106076 0
1.21213 -0.246015 0
1.34822 0.120912 0
0.886555 0.191307 0
0.962466 0.0158397 0
1.06122 0.00888223 0
1.10156 -0.0340481 0
0.742399 -0.103917 0
1.10785 -0.126851 0
0.887581 -0.197336 0
1.39952 -0.150655 0
0.294624 0.00166801 0
1.65358 -0.247605 0
1.21871 0.079137 0
1.15858 0.0564684 0
1.15434 0.0201658 0
1.38753 0.0500661 0
1.10733 0.0167936 0
1.21212 0.000658066 0
1.21809 -0.0794694 0
0.650757 -0.0244236 0
0.731678 -0.0399852 0
1.0416 0.00941826 0
0.838051 0.0115603 0
0.790851 0.0140098 0
-0.859591 0.255314 0
1.07319 -0.00704687 0
0.945655 -0.0228855 0
0.703941 -0.044569 0
0.961029 0.072541 0
1.61638 -0.0928321 0
1.61801 0.0832016 0
-0.145585 -0.00174224 0
1.05761 0.0255994 0
0.174097 0.000736719 0
1.18001 0.211122 0
1.24099 0.000472237 0
0.840549 -0.0108763 0
1.06117 0.00188724 0
3.46728 0.000914771 0
1.09713 0.00182854 0
0.845199 -0.0627539 0
0.705612 0.0465044 0
0.893936 -0.165169 0
0.433495 0.0957497 0
1.44262 0.0568906 0
1.53461 0.00454196 0
0.894555 0.19972 0
1.17607 -0.024178 0
0.0297158 0.0760042 0
0.875798 -0.0196723 0
0.793384 -0.0323485 0
0.959755 -0.0721123 0
0.79422 0.0335081 0
0.930598 -0.118708 0
1.1396 -0.0480781 0
0.820215 -0.271872 0
1.15458 -0.0200366 0
1.61125 -0.00449379 0
1.66381 0.24964 0
0.224828 -0.0384514 0
1.09894 -0.0110017 0
0.702461 0.000970232 0
0.746446 0.10593 0
1.12805 -0.149301 0
1.24967 -0.0929698 0
0.0570396 -0.151846 0
1.21807 0.248621 0
1.70772 0.108019 0
1.1231 -0.142078 0
1.14941 -0.0222245 0
1.05377 0.0557896 0
0.738966 -0.0196093 0
0.995263 0.0130807 0
-0.691389 0.109863 0
0.492671 -0.603744 0
0.902057 0.043523 0
1.11194 -0.0134693 0
0.743401 0.000734106 0
0.657147 -0.0540072 0
1.27402 -0.340701 0
0.188389 -0.123112 0
1.35142 -0.394264 0
1.53679 -0.00453894 0
0.0514535 0.151261 0
1.61402 0.0947294 0
1.61045 0.0059694 0
1.36836 0.524815 0
1.21139 -0.000223195 0
1.12922 -0.0492369 0
1.10147 0.0343044 0
1.1908 0.0797189 0
0.578275 0.176398 0
-0.29996 -0.083957 0
0.0331617 -0.177574 0
0.96791 0.0120394 0
0.835164 0.0263768 0
2.52752 -0.524821 0
0.659324 0.0565166 0
0.508707 -0.0745408 0
0.571982 -0.17291 0
0.516298 -0.210266 0
1.98186 0.00224809 0
0.690685 -0.427075 0
1.05098 0.0205328 0
0.522557 0.2142 0
1.85445 -0.00119891 0
1.43773 -0.0572605 0
1.23845 -0.0334366 0
1.24083 0.000214904 0
1.17103 -0.0249442 0
1.17547 0.0239715 0
1.23143 0.0935527 0
1.11044 0.127264 0
0.989045 0.0262243 0
0.0406249 -0.0792805 0
1.03074 -0.0151095 0
1.0586 -0.00279345 0
0.872492 0.00838053 0
-0.304561 0.0847003 0
2.53329 0.522985 0
0.981501 -0.0368768 0
1.05359 -0.0557446 0
0.845003 0.000331938 0
1.3459 -0.129433 0
1.17297 -0.20916 0
1.4404 -0.0671792 0
1.18278 0.199979 0
0.21014 -0.336427 0
0.191118 0.125714 0
0.81867 0.326165 0
1.56922 0.214502 0
1.27729 0.0404356 0
1.04725 0.0471745 0
0.906631 0.000159665 0
1.26898 0.0372455 0
0.990894 0.0214351 0
0.218798 -0.148597 0
0.943337 6.85177e-05 0
0.892704 -0.016473 0
0.893454 -0.0455181 0
2.00573 -0.152201 0
0.268079 0.275699 0
0.827716 0.275316 0
1.34691 0.129815 0
1.34001 -0.122953 0
1.25056 0.0929128 0
1.2435 0.0341301 0
1.13901 0.0479708 0
1.13364 -0.00162179 0
0.820537 0.000431657 0
0.429871 -0.091988 0
1.0705 -0.0774477 0
0.512115 0.0779971 0
1.56276 -0.213035 0
0.892034 0.000201883 0
1.21301 0.227288 0
1.40126 0.151328 0
1.38313 -0.0503658 0
1.38251 0.00286843 0
0.978457 0.0441399 0
0.925559 -0.0117132 0
0.956708 0.00601037 0
1.03604 -0.0335535 0
0.937002 -0.0275348 0
0.964885 -0.0608397 0
0.82202 0.0279505 0
1.85888 -0.000636213 0
1.66681 0.240318 0
2.14602 0.150255 0
1.4398 0.0670014 0
1.83348 0.339483 0
0.705502 -0.508727 0
0.710865 0.128171 0
0.57502 0.00149528 0
1.55466 0.204173 0
1.40183 0.143959 0
1.2786 0.346047 0
1.34669 0.403658 0
1.91271 0.35053 0
1.33598 0.00172522 0
2.04663 0.395437 0
1.15203 -0.00115972 0
1.07133 0.0774644 0
1.06333 0.00480274 0
1.025 0.0190034 0
1.08941 -0.0286224 0
1.04717 -0.0470701 0
0.937396 -0.0998584 0
1.15914 -0.0568686 0
1.70666 -0.106425 0
0.892885 0.01689 0
1.09393 0.0153104 0
0.899905 0.166971 0
1.27323 -0.0393762 0
1.1488 -0.0565323 0
1.03605 0.0337217 0
0.981653 0.0370998 0
1.24514 -0.0343459 0
1.05789 -0.0100219 0
0.870172 0.0193862 0
1.99835 0.137377 0
1.38559 0.0575016 0
1.08914 -0.0383537 0
0.0232268 0.177059 0
0.933902 0.119574 0
1.10983 -0.119734 0
1.07713 -0.0327845 0
0.822052 -0.0750457 0
0.287503 -0.276198 0
1.7041 0.0966377 0
1.21756 -0.0749622 0
-0.185388 -0.422887 0
0.504996 0.00182469 0
1.13334 0.00142578 0
1.25103 -0.0860057 0
1.07242 0.00687678 0
1.01766 -0.0369226 0
1.23683 0.0340055 0
1.06695 -0.0116329 0
1.10634 -0.0172993 0
1.08936 0.0288329 0
1.08462 -0.00244473 0
1.11182 0.0137797 0
1.05829 0.0161654 0
0.937171 0.0278302 0
1.09596 -0.00232066 0
1.09849 0.0111398 0
1.0465 -0.0209459 0
1.0657 0.0199649 0
1.05377 -0.0250572 0
1.09286 -0.0153947 0
1.01533 -0.0322326 0
0.975021 -0.103393 0
1.04696 0.0580841 0
0.426811 -0.040102 0
-0.324077 0.18188 0
0.503846 0.604164 0
0.977384 -0.0169207 0
0.903614 0.00750252 0
-0.693386 -0.102267 0
1.00947 -0.0225805 0
0.415149 -0.0725916 0
1.54332 -0.194932 0
1.40661 -0.141696 0
1.70338 -0.088908 0
-0.521234 -0.241299 0
-0.354497 -0.00858545 0
0.842104 -0.0812698 0
0.942761 0.0441198 0
0.732828 0.0214354 0
0.894849 0.0569468 0
1.15215 0.0204626 0
0.527497 -0.0777989 0
1.08541 -0.0907252 0
0.392413 0.292173 0
0.644622 0.0211117 0
1.62232 0.572536 0
0.899686 0.0156867 0
-0.307321 -0.220499 0
1.00805 -0.0189752 0
0.883177 -0.044416 0
1.62376 -0.0759786 0
1.11354 0.119669 0
0.891562 0.167775 0
0.718524 -0.129845 0
0.631825 -0.0501852 0
1.37236 0.417957 0
-0.29416 -0.195856 0
0.864299 -0.021117 0
0.897574 -0.012059 0
0.208153 0.144961 0
0.833299 -0.0200305 0
0.780694 -0.0348296 0
0.919657 0.0341135 0
-0.891496 0.291949 0
0.919531 0.00445166 0
-1.18459 0.0164536 0
-1.18167 -0.0157701 0
0.933433 -0.0055726 0
-0.892261 -0.291442 0
0.934456 0.00615858 0
0.919695 -0.00462053 0
0.791553 0.0332111 0
1.17178 0.023607 0
0.410514 0.0785161 0
1.06401 -0.0778095 0
0.830153 -0.0683463 0
0.648437 0.0554735 0
1.02337 0.0301473 0
1.10825 0.0340928 0
0.93348 0.0267857 0
0.611285 0.169849 0
1.15284 0.145467 0
1.34524 -0.337072 0
0.538463 -0.023516 0
0.391929 -0.283211 0
1.37757 0.340649 0
1.22092 -0.1934 0
0.870959 -0.00699085 0
1.01192 0.0363248 0
0.223778 0.0380038 0
1.08925 0.0268722 0
0.785754 -0.0104769 0
1.05858 0.047837 0
-0.172916 0.550244 0
-0.71839 -0.21158 0
0.951777 -0.0156748 0
0.916881 0.0132116 0
1.24374 -0.21768 0
0.954455 0.0154144 0
-0.712353 0.217715 0
0.915391 -0.0132519 0
-0.184752 -0.546435 0
0.726422 -0.0820984 0
1.00851 0.0464652 0
1.03577 0.0352151 0
0.967179 -0.122866 0
0.943574 -0.0202217 0
0.946186 0.0201335 0
-0.174466 -0.473324 0
-0.151943 0.475284 0
0.948906 0.035326 0
0.78508 -0.117883 0

SCALARS pressure double 1
LOOKUP_TABLE default
0.446279
0.477681
-0.588834
0.18816
0.258325
0.448642
0.458669
0.49273
0.495405
0.364455
0.267568
0.487011
-0.532239
-0.571483
-0.551614
-0.415161
0.168921
-1.03476
0.424277
0.485204
0.215787
0.343822
-0.562838
-2.37405
-2.66343
-2.52243
-2.03516
-1.86333
-2.54066
-0.977371
-0.564194
-1.0119
0.405529
0.48976
-2.16848
-1.18696
-0.0516329
0.453524
-1.18042
-1.22734
-1.02203
-1.08782
-1.02171
0.480957
-0.238587
-0.854488
0.497607
-0.326956
0.373897
-0.89859
-2.04213
-1.08794
-1.88736
-2.16492
-0.929457
-1.82538
0.496773
-0.903587
-0.915549
-2.15922
-2.14367
-0.141593
-0.488213
0.419272
0.4789
0.245512
0.00218636
0.49523
0.465735
0.471468
0.480619
-0.417576
0.485929
0.00341519
-0.954149
-0.511427
-1.22955
-2.34107
-0.1093
-1.02498
-0.484664
-0.410596
0.505669
-2.15061
-2.04604
-0.105505
0.476793
0.500995
0.492755
0.502329
0.503849
0.469172
0.495286
0.499247
0.49112
0.481196
0.497857
0.498465
0.465937
0.490894
0.49674
0.488756
0.495214
0.443793
0.491319
0.490819
0.497252
0.498061
0.495268
0.428573
0.496589
0.494406
0.458694
0.464208
0.405313
0.432337
0.446973
0.495876
0.492781
0.462911
0.469297
0.490751
0.481227
-0.0181237
0.389887
0.495142
0.494268
0.505574
0.499137
0.497718
0.412135
0.496457
0.474036
0.36486
0.446149
-0.624176
0.488265
0.15498
0.382305
0.284065
0.50093
0.495613
0.479637
0.402554
0.420417
0.313166
0.261883
0.236166
-0.0952396
0.45664
0.456605
0.493757
0.427579
0.481817
0.490025
0.457597
0.437956
0.454113
0.491005
0.488204
0.483431
-2.72101
0.489148
0.490956
0.432027
0.474648
0.301748
0.299269
-0.177439
0.48901
0.225996
0.282528
0.447545
0.484688
0.488141
-2.15612
0.484854
0.458778
0.432092
0.357424
0.348069
0.337097
0.385784
0.312447
0.465555
0.0381526
0.499382
0.489311
0.475255
0.489002
0.43209
0.485952
0.115565
0.493659
0.240938
-0.110276
0.244516
0.498347
0.479726
0.402756
0.366677
0.402346
0.0225278
0.156227
0.0842672
0.368948
0.492934
0.477095
0.463499
0.499003
-0.983853
-2.53961
0.496866
0.482239
0.453323
0.455534
-0.0981525
0.081921
-0.419841
0.387991
0.0235063
0.294249
0.237728
-1.07694
0.488115
0.486107
0.479291
0.469758
0.252911
-0.282249
-0.0825714
0.497776
0.479783
-2.37075
0.45519
0.336603
0.252465
0.214693
-0.13162
-0.547906
0.501096
0.214721
0.17969
0.331783
0.477541
0.447088
0.464551
0.465797
0.391747
0.419362
0.496334
0.0389
0.490253
0.487397
0.493816
-0.284353
-2.32866
0.489797
0.477762
0.47781
0.377842
0.283132
0.336053
0.261991
-0.318974
0.0783398
-0.0138859
0.153562
0.426742
0.488413
0.488911
0.422326
0.495172
0.0608711
0.498286
0.485019
0.491459
-0.0451589
-0.161908
0.113883
0.375533
0.392189
0.401286
0.47759
0.48555
0.497111
0.497375
0.3471
0.470046
0.336899
0.154879
0.502185
0.171092
0.259283
0.427952
0.387095
0.490447
0.502394
0.505535
0.489446
0.498422
0.476947
0.469261
0.177805
-0.121236
-0.520278
0.334433
-0.394487
-0.885519
0.404828
0.393144
0.19543
0.260494
-0.112798
-0.420524
-0.461104
0.460647
-0.984975
0.474214
0.469909
0.495462
0.494308
0.495418
0.488754
0.444226
0.457064
0.0970705
0.48501
0.498821
0.357697
0.426699
0.457774
0.489386
0.489699
0.47894
0.49469
0.484209
-0.106767
0.431285
0.477356
-0.105866
0.430919
0.410189
0.495626
0.469904
-0.155143
0.115873
0.443844
-1.19382
0.420038
0.497
0.395742
0.488762
0.488366
0.473554
0.488345
0.480881
0.495101
0.498943
0.482065
0.497951
0.498237
0.484903
0.498296
0.498574
0.488709
0.487322
0.497203
0.489914
0.425643
0.490915
0.338364
-0.61215
-2.53499
0.495157
0.49419
-0.972428
0.494628
0.307193
0.203752
0.253358
0.126686
-0.835863
-0.314046
0.44405
0.482487
0.457186
0.478281
0.487815
0.344393
0.438478
-0.101881
0.456505
-2.03698
0.49384
-0.598592
0.492909
0.47119
0.279376
0.382622
0.351753
0.422442
0.431188
-0.254869
-0.597728
0.479582
0.493989
0.0653123
0.484234
0.449263
0.492839
-2.88655
0.503077
-1.94712
-1.94328
0.502515
-2.88295
0.502441
0.503635
0.461775
0.463663
0.31945
0.470292
0.453337
0.400647
0.486121
0.480964
0.496665
0.237409
0.377634
-0.116548
0.429791
-0.083993
-0.131425
0.235902
0.494619
0.502854
0.253603
0.487583
0.481745
0.481103
-1.87289
-1.37584
0.492831
0.487641
0.203952
0.494429
-1.36803
0.492375
-1.87368
0.454348
0.496852
0.499794
0.433461
0.508913
0.504661
-1.50544
-1.52745
0.482473
0.382411
