# vtk DataFile Version 3.0
Malha 2D com triângulos: velocidade e pressão
ASCII
DATASET UNSTRUCTURED_GRID

POINTS 7987 double
-0.5 0 0
1.5 0 0
1.5 2 0
-0.5 2 0
-0.47561 0 0
-0.45122 0 0
-0.426829 0 0
-0.402439 0 0
-0.378049 0 0
-0.353659 0 0
-0.329268 0 0
-0.304878 0 0
-0.280488 0 0
-0.256098 0 0
-0.231707 0 0
-0.207317 0 0
-0.182927 0 0
-0.158537 0 0
-0.134146 0 0
-0.109756 0 0
-0.0853659 0 0
-0.0609756 0 0
-0.0365854 0 0
-0.0121951 0 0
0.0121951 0 0
0.0365854 0 0
0.0609756 0 0
0.0853659 0 0
0.109756 0 0
0.134146 0 0
0.158537 0 0
0.182927 0 0
0.207317 0 0
0.231707 0 0
0.256098 0 0
0.280488 0 0
0.304878 0 0
0.329268 0 0
0.353659 0 0
0.378049 0 0
0.402439 0 0
0.426829 0 0
0.45122 0 0
0.47561 0 0
0.5 0 0
0.52439 0 0
0.54878 0 0
0.573171 0 0
0.597561 0 0
0.621951 0 0
0.646341 0 0
0.670732 0 0
0.695122 0 0
0.719512 0 0
0.743902 0 0
0.768293 0 0
0.792683 0 0
0.817073 0 0
0.841463 0 0
0.865854 0 0
0.890244 0 0
0.914634 0 0
0.939024 0 0
0.963415 0 0
0.987805 0 0
1.0122 0 0
1.03659 0 0
1.06098 0 0
1.08537 0 0
1.10976 0 0
1.13415 0 0
1.15854 0 0
1.18293 0 0
1.20732 0 0
1.23171 0 0
1.2561 0 0
1.28049 0 0
1.30488 0 0
1.32927 0 0
1.35366 0 0
1.37805 0 0
1.40244 0 0
1.42683 0 0
1.45122 0 0
1.47561 0 0
1.5 0.0243902 0
1.5 0.0487805 0
1.5 0.0731707 0
1.5 0.097561 0
1.5 0.121951 0
1.5 0.146341 0
1.5 0.170732 0
1.5 0.195122 0
1.5 0.219512 0
1.5 0.243902 0
1.5 0.268293 0
1.5 0.292683 0
1.5 0.317073 0
1.5 0.341463 0
1.5 0.365854 0
1.5 0.390244 0
1.5 0.414634 0
1.5 0.439024 0
1.5 0.463415 0
1.5 0.487805 0
1.5 0.512195 0
1.5 0.536585 0
1.5 0.560976 0
1.5 0.585366 0
1.5 0.609756 0
1.5 0.634146 0
1.5 0.658537 0
1.5 0.682927 0
1.5 0.707317 0
1.5 0.731707 0
1.5 0.756098 0
1.5 0.780488 0
1.5 0.804878 0
1.5 0.829268 0
1.5 0.853659 0
1.5 0.878049 0
1.5 0.902439 0
1.5 0.926829 0
1.5 0.95122 0
1.5 0.97561 0
1.5 1 0
1.5 1.02439 0
1.5 1.04878 0
1.5 1.07317 0
1.5 1.09756 0
1.5 1.12195 0
1.5 1.14634 0
1.5 1.17073 0
1.5 1.19512 0
1.5 1.21951 0
1.5 1.2439 0
1.5 1.26829 0
1.5 1.29268 0
1.5 1.31707 0
1.5 1.34146 0
1.5 1.36585 0
1.5 1.39024 0
1.5 1.41463 0
1.5 1.43902 0
1.5 1.46341 0
1.5 1.4878 0
1.5 1.5122 0
1.5 1.53659 0
1.5 1.56098 0
1.5 1.58537 0
1.5 1.60976 0
1.5 1.63415 0
1.5 1.65854 0
1.5 1.68293 0
1.5 1.70732 0
1.5 1.73171 0
1.5 1.7561 0
1.5 1.78049 0
1.5 1.80488 0
1.5 1.82927 0
1.5 1.85366 0
1.5 1.87805 0
1.5 1.90244 0
1.5 1.92683 0
1.5 1.95122 0
1.5 1.97561 0
1.47561 2 0
1.45122 2 0
1.42683 2 0
1.40244 2 0
1.37805 2 0
1.35366 2 0
1.32927 2 0
1.30488 2 0
1.28049 2 0
1.2561 2 0
1.23171 2 0
1.20732 2 0
1.18293 2 0
1.15854 2 0
1.13415 2 0
1.10976 2 0
1.08537 2 0
1.06098 2 0
1.03659 2 0
1.0122 2 0
0.987805 2 0
0.963415 2 0
0.939024 2 0
0.914634 2 0
0.890244 2 0
0.865854 2 0
0.841463 2 0
0.817073 2 0
0.792683 2 0
0.768293 2 0
0.743902 2 0
0.719512 2 0
0.695122 2 0
0.670732 2 0
0.646341 2 0
0.621951 2 0
0.597561 2 0
0.573171 2 0
0.54878 2 0
0.52439 2 0
0.5 2 0
0.47561 2 0
0.45122 2 0
0.426829 2 0
0.402439 2 0
0.378049 2 0
0.353659 2 0
0.329268 2 0
0.304878 2 0
0.280488 2 0
0.256098 2 0
0.231707 2 0
0.207317 2 0
0.182927 2 0
0.158537 2 0
0.134146 2 0
0.109756 2 0
0.0853659 2 0
0.0609756 2 0
0.0365854 2 0
0.0121951 2 0
-0.0121951 2 0
-0.0365854 2 0
-0.0609756 2 0
-0.0853659 2 0
-0.109756 2 0
-0.134146 2 0
-0.158537 2 0
-0.182927 2 0
-0.207317 2 0
-0.231707 2 0
-0.256098 2 0
-0.280488 2 0
-0.304878 2 0
-0.329268 2 0
-0.353659 2 0
-0.378049 2 0
-0.402439 2 0
-0.426829 2 0
-0.45122 2 0
-0.47561 2 0
-0.5 1.97561 0
-0.5 1.95122 0
-0.5 1.92683 0
-0.5 1.90244 0
-0.5 1.87805 0
-0.5 1.85366 0
-0.5 1.82927 0
-0.5 1.80488 0
-0.5 1.78049 0
-0.5 1.7561 0
-0.5 1.73171 0
-0.5 1.70732 0
-0.5 1.68293 0
-0.5 1.65854 0
-0.5 1.63415 0
-0.5 1.60976 0
-0.5 1.58537 0
-0.5 1.56098 0
-0.5 1.53659 0
-0.5 1.5122 0
-0.5 1.4878 0
-0.5 1.46341 0
-0.5 1.43902 0
-0.5 1.41463 0
-0.5 1.39024 0
-0.5 1.36585 0
-0.5 1.34146 0
-0.5 1.31707 0
-0.5 1.29268 0
-0.5 1.26829 0
-0.5 1.2439 0
-0.5 1.21951 0
-0.5 1.19512 0
-0.5 1.17073 0
-0.5 1.14634 0
-0.5 1.12195 0
-0.5 1.09756 0
-0.5 1.07317 0
-0.5 1.04878 0
-0.5 1.02439 0
-0.5 1 0
-0.5 0.97561 0
-0.5 0.95122 0
-0.5 0.926829 0
-0.5 0.902439 0
-0.5 0.878049 0
-0.5 0.853659 0
-0.5 0.829268 0
-0.5 0.804878 0
-0.5 0.780488 0
-0.5 0.756098 0
-0.5 0.731707 0
-0.5 0.707317 0
-0.5 0.682927 0
-0.5 0.658537 0
-0.5 0.634146 0
-0.5 0.609756 0
-0.5 0.585366 0
-0.5 0.560976 0
-0.5 0.536585 0
-0.5 0.512195 0
-0.5 0.487805 0
-0.5 0.463415 0
-0.5 0.439024 0
-0.5 0.414634 0
-0.5 0.390244 0
-0.5 0.365854 0
-0.5 0.341463 0
-0.5 0.317073 0
-0.5 0.292683 0
-0.5 0.268293 0
-0.5 0.243902 0
-0.5 0.219512 0
-0.5 0.195122 0
-0.5 0.170732 0
-0.5 0.146341 0
-0.5 0.121951 0
-0.5 0.097561 0
-0.5 0.0731707 0
-0.5 0.0487805 0
-0.5 0.0243902 0
1.47852 1.01279 0
-0.479289 0.987093 0
0.490424 1.97803 0
0.512195 0.0211226 0
0.317073 0.0211226 0
1.47923 0.8165 0
0.685534 1.97809 0
-0.478264 1.1829 0
0.707317 0.0211226 0
1.47819 1.20908 0
0.290064 1.97803 0
-0.479385 0.792683 0
0.146341 0.0211226 0
1.47888 0.646341 0
-0.478479 1.35269 0
0.853659 1.97888 0
0.878049 0.0211226 0
1.47829 1.37916 0
0.121951 1.97888 0
-0.478877 0.621951 0
1 1.97888 0
-0.479523 1.50133 0
1.47682 0.503202 0
3.77476e-15 0.0211226 0
1.47673 1.52257 0
-0.0243902 1.97888 0
1.02439 0.0211226 0
-0.480619 0.476045 0
1.12195 1.97888 0
-0.478255 1.62062 0
1.47787 0.378973 0
-0.121951 0.0211226 0
1.14634 0.0211226 0
-0.478099 0.352312 0
1.47679 1.64733 0
-0.14896 1.97803 0
-0.243902 0.0211226 0
1.47538 0.25503 0
-0.478877 1.7439 0
1.2439 1.97888 0
1.48099 1.74363 0
-0.243902 1.97888 0
1.2439 0.0211226 0
-0.476707 0.254666 0
0.414634 0.0211226 0
0.609756 0.0211226 0
-0.478189 1.08587 0
-0.477727 0.889119 0
0.387625 1.97803 0
1.47813 0.915685 0
0.585366 1.97888 0
1.47888 1.10976 0
-0.344082 1.97803 0
1.47822 1.84305 0
-0.478877 0.158537 0
1.34146 0.0211226 0
-0.341463 0.0211226 0
1.34146 1.97888 0
-0.479337 1.84226 0
1.47888 0.158537 0
-0.479411 1.27986 0
1.47803 0.718936 0
0.77948 1.98041 0
1.47938 0.574078 0
0.926829 1.97888 0
0.219512 0.0211226 0
0.0731707 0.0211226 0
-0.482596 1.4282 0
0.804878 0.0211226 0
0.95122 0.0211226 0
-0.478791 0.695434 0
-0.478517 0.548841 0
1.47888 1.45122 0
0.195122 1.97888 0
0.0487805 1.97888 0
1.47847 1.28045 0
-0.414634 1.97888 0
1.47844 1.91442 0
-0.478314 0.0850463 0
1.41463 0.0211226 0
1.41725 1.97803 0
-0.414634 0.0211226 0
-0.479256 1.91418 0
1.47831 0.0850463 0
-0.478877 0.304878 0
-0.192494 1.97879 0
1.19512 0.0211226 0
1.47733 1.69317 0
1.29268 0.0211226 0
1.47938 1.79181 0
-0.476743 0.209277 0
1.04878 1.97888 0
-0.478009 1.03916 0
-0.47673 0.843231 0
0.658537 0.0211226 0
1.17073 1.97888 0
-0.479216 1.67145 0
-0.290064 1.97803 0
0.463415 0.0211226 0
1.29006 1.97879 0
-0.480626 0.403716 0
1.09756 0.0211226 0
-0.478031 1.79048 0
-0.170732 0.0211226 0
1.47682 0.96704 0
1.47804 1.15648 0
0.344091 1.97879 0
0.365854 0.0211226 0
-0.478042 1.54869 0
0.268293 0.0211226 0
1.47696 0.764766 0
0.7291 1.97809 0
-0.0949335 1.97879 0
0.560976 0.0211226 0
1.47681 0.333027 0
0.439024 1.97888 0
-0.476547 0.935265 0
1.47938 1.59756 0
-0.0731707 0.0211226 0
0.536585 1.97888 0
-0.476811 1.22865 0
-0.477496 1.13692 0
-0.478276 0.744551 0
0.756098 0.0211226 0
1.47676 0.424676 0
1.47741 1.0585 0
1.48334 0.866402 0
0.631527 1.97803 0
1.4807 0.206783 0
1.47801 1.32665 0
0.243902 1.97888 0
-0.292683 0.0211226 0
1.46102 1.979 0
-0.47791 0.038825 0
-0.461024 1.979 0
1.46247 0.020578 0
1.31707 0.0211226 0
1.30488 0.0422451 0
1.28049 0.0422451 0
1.29268 0.0633677 0
1.26829 0.0633677 0
1.28049 0.0844903 0
1.2561 0.0844903 0
1.26829 0.105613 0
1.2439 0.105613 0
1.2561 0.126735 0
1.23171 0.126735 0
1.2439 0.147858 0
1.21951 0.147858 0
1.23171 0.168981 0
1.20732 0.168981 0
1.21951 0.190103 0
1.19512 0.190103 0
1.20732 0.211226 0
1.18293 0.211226 0
1.19512 0.232348 0
1.17073 0.232348 0
1.18293 0.253471 0
1.15854 0.253471 0
1.17073 0.274593 0
1.14634 0.274593 0
1.15854 0.295716 0
1.13415 0.295716 0
1.14634 0.316839 0
1.12195 0.316839 0
1.13415 0.337961 0
1.10976 0.337961 0
1.12195 0.359084 0
1.09756 0.359084 0
1.10976 0.380206 0
1.08537 0.380206 0
1.09756 0.401329 0
1.07317 0.401329 0
1.08537 0.422451 0
1.06098 0.422451 0
1.07317 0.443574 0
1.04878 0.443574 0
1.06098 0.464697 0
1.03659 0.464697 0
1.04878 0.485819 0
1.02439 0.485819 0
1.03659 0.506942 0
1.0122 0.506942 0
1.02439 0.528064 0
1 0.528064 0
1.0122 0.549187 0
0.987805 0.549187 0
1 0.570309 0
0.97561 0.570309 0
0.987805 0.591432 0
0.963415 0.591432 0
0.97561 0.612555 0
0.95122 0.612555 0
0.963415 0.633677 0
0.939024 0.633677 0
0.95122 0.6548 0
0.926829 0.6548 0
0.939024 0.675922 0
0.914634 0.675922 0
0.926829 0.697045 0
0.902439 0.697045 0
0.914634 0.718167 0
0.890244 0.718167 0
0.902439 0.73929 0
0.878049 0.73929 0
0.890244 0.760413 0
0.865854 0.760413 0
0.878049 0.781535 0
0.853659 0.781535 0
0.865854 0.802658 0
0.841463 0.802658 0
0.853659 0.82378 0
0.829268 0.82378 0
0.841463 0.844903 0
0.817073 0.844903 0
0.829268 0.866025 0
0.804878 0.866025 0
0.817073 0.887148 0
0.792683 0.887148 0
0.780488 0.866025 0
0.768293 0.887148 0
0.756098 0.866025 0
0.743902 0.887148 0
0.731707 0.866025 0
0.719512 0.887148 0
0.707317 0.866025 0
0.695122 0.887148 0
0.682927 0.866025 0
0.670732 0.887148 0
0.658537 0.866025 0
0.646341 0.887148 0
0.634146 0.866025 0
0.621951 0.887148 0
0.609756 0.866025 0
0.597561 0.887148 0
0.585366 0.866025 0
0.573171 0.887148 0
0.560976 0.866025 0
0.54878 0.887148 0
0.536585 0.866025 0
0.52439 0.887148 0
0.560976 0.908271 0
0.804878 0.908271 0
0.512195 0.866025 0
0.5 0.887148 0
0.487805 0.866025 0
0.47561 0.887148 0
0.463415 0.866025 0
0.45122 0.887148 0
0.439024 0.866025 0
0.426829 0.887148 0
0.414634 0.866025 0
0.402439 0.887148 0
0.414634 0.908271 0
0.390244 0.866025 0
0.390244 0.908271 0
0.402439 0.929393 0
0.378049 0.929393 0
0.390244 0.950516 0
0.365854 0.950516 0
0.378049 0.971638 0
0.353659 0.971638 0
0.365854 0.992761 0
0.341463 0.992761 0
0.353659 1.01388 0
0.329268 1.01388 0
0.341463 1.03501 0
0.317073 1.03501 0
0.329268 1.05613 0
0.317073 0.992761 0
0.304878 1.05613 0
0.317073 1.07725 0
0.292683 1.07725 0
0.304878 1.09837 0
[...]
CELL_DATA 15644
VECTORS velocity double
-1.06682 0.299019 0
1.13712 -0.647514 0
1.02816 -0.0159656 0
1.03869 -0.0151196 0
-1.22132 -0.213983 0
0.957191 0.0140032 0
1.03248 -0.0154836 0
1.0595 0.0110821 0
0.929386 0.00255668 0
-1.23601 -0.176312 0
0.587548 0.653494 0
0.955664 0.0134381 0
-1.17275 0.133811 0
0.956462 -0.0136312 0
-0.476356 -0.545745 0
0.955423 -0.0146241 0
0.998139 0.0174029 0
1.03992 -0.0147859 0
1.04856 0.0136451 0
1.07588 0.664826 0
0.98791 -0.0171829 0
1.33252 -0.641865 0
-1.07282 0.322905 0
0.956183 0.0146297 0
0.897465 0.665278 0
2.86894 0.432192 0
2.26023 -0.56075 0
1.07116 0.00106262 0
2.82275 0.418651 0
0.447721 0.644865 0
3.40361 -0.0431023 0
0.979298 0.0174472 0
0.364858 0.61756 0
1.62991 -0.6399 0
1.01827 -0.0173299 0
0.930162 0.00191511 0
0.936504 0.00777728 0
1.05545 -0.0110455 0
1.06524 0.00695063 0
0.553037 -0.660537 0
-0.12688 -0.584375 0
0.964829 -0.0161606 0
1.06885 -0.00427387 0
0.942098 -0.00998814 0
-0.91615 -0.385943 0
2.56034 0.496577 0
1.26603 0.659343 0
0.959703 -0.0142542 0
1.04914 0.0140485 0
0.983262 -0.0168955 0
1.0655 -0.00666055 0
3.17762 0.248371 0
1.03754 0.0139746 0
0.942392 0.0107549 0
1.84862 -0.561772 0
1.00853 -0.0175218 0
0.959239 0.0152247 0
-1.21767 -0.193934 0
1.00016 0.0172727 0
0.931828 -0.00543841 0
1.02759 0.0164508 0
3.20341 0.203632 0
1.69375 -0.610213 0
-0.868629 0.353396 0
2.70348 0.447738 0
0.972938 0.0169345 0
0.177738 0.604033 0
1.62537 -0.624345 0
2.399 0.524794 0
1.0699 0.001648 0
1.44337 0.649768 0
1.05296 -0.0117741 0
1.06119 -0.00896568 0
-1.20456 0.0849014 0
1.05527 0.0122618 0
-0.411166 -0.531609 0
2.37091 -0.537789 0
1.06018 0.0102978 0
0.471601 -0.662226 0
0.532029 -0.654649 0
1.95275 -0.562962 0
1.01378 -0.0175954 0
1.47311 -0.649316 0
-0.631443 -0.514212 0
0.955043 -0.0137554 0
1.07095 0.00195426 0
-0.382226 0.542853 0
-0.689015 0.150062 0
-0.692183 0.171171 0
0.0331968 0.053903 0
0.0419678 0.0413452 0
-0.943961 0.0829909 0
-0.960314 0.109347 0
0.864211 0.00593344 0
0.863343 0.0077373 0
0.153548 0.0473283 0
0.161115 0.0362444 0
0.571942 0.0360337 0
0.570647 0.0417149 0
0.265477 0.0318345 0
0.258832 0.041459 0
0.806028 0.00847156 0
0.8908 0.00619879 0
0.804524 0.0110048 0
0.891425 0.00475844 0
0.830333 0.00744914 0
0.829034 0.00964444 0
0.918245 0.00728982 0
0.9182 0.00843279 0
-0.0933475 0.0468031 0
-0.102548 0.0600643 0
1.06765 -0.00543015 0
-1.19332 0.162865 0
3.00964 0.394773 0
-0.449797 -0.536815 0
0.955528 -0.0148795 0
0.9381 0.00871776 0
-0.699641 0.455984 0
3.44385 0.00543584 0
0.936666 -0.00438008 0
1.06712 -0.00353321 0
1.06745 0.00588376 0
1.03267 0.0147615 0
0.948663 -0.67011 0
1.66539 -0.584156 0
0.0293184 -0.605256 0
0.96956 -0.0166693 0
-0.770581 0.388114 0
-1.23069 -0.222332 0
0.939593 0.00991822 0
1.05336 -0.0117282 0
1.06807 -0.00534912 0
-0.373391 -0.553305 0
2.82768 0.426705 0
1.09819 0.648133 0
3.34905 -0.0486019 0
1.01311 -0.0171173 0
0.938814 -0.00900602 0
-0.980674 -0.349782 0
1.02957 0.0160294 0
1.00375 -0.017771 0
1.9154 -0.620947 0
1.06679 -0.00247665 0
1.01764 0.0167718 0
0.947424 0.0117044 0
0.944769 0.011595 0
1.03907 0.0147354 0
2.12774 -0.534662 0
1.0215 0.0169915 0
-1.05342 -0.318216 0
0.938807 -0.00891704 0
3.0853 0.288632 0
1.09917 0.662724 0
0.99804 -0.017952 0
2.66581 0.464699 0
0.446917 0.628321 0
0.982744 0.0175082 0
1.0604 -0.00854877 0
3.07777 0.353285 0
0.950417 0.0123695 0
0.998585 -0.0167612 0
1.06422 -0.00795705 0
3.17829 0.229227 0
0.934229 -0.00344887 0
0.944668 -0.0109241 0
-0.838765 0.413918 0
0.929496 -0.00470445 0
2.73822 -0.441066 0
1.07044 -0.00307956 0
2.30288 -0.555531 0
0.929154 -0.00220508 0
0.145759 -0.625954 0
-1.14448 0.254944 0
1.03858 0.0142239 0
-0.048508 -0.605574 0
1.05903 -0.0101219 0
-0.261414 -0.55931 0
0.959995 -0.0156855 0
1.05895 -0.00947097 0
1.04144 -0.0140689 0
1.06925 0.00437889 0
2.90683 0.381963 0
-0.795693 -0.422028 0
-1.29209 -0.0768196 0
3.24243 0.177831 0
2.02059 -0.614152 0
-0.346233 0.516801 0
0.951909 0.0138479 0
1.0635 0.00802869 0
-0.943408 -0.366328 0
0.941796 -0.0102265 0
0.993107 -0.0174027 0
0.931982 -0.00489339 0
1.01118 0.017115 0
0.611652 -0.666942 0
0.928485 -0.000731343 0
0.9339 0.0066724 0
2.47025 -0.522219 0
0.928173 -0.00318628 0
0.93391 0.00638965 0
-1.18442 0.223738 0
0.950333 0.0121378 0
1.04867 -0.0129085 0
3.27696 -0.121241 0
0.136826 0.61759 0
1.07009 0.00127498 0
-0.483332 -0.480022 0
-1.26615 -0.14317 0
1.04339 -0.652111 0
1.78771 -0.626072 0
1.02337 -0.0170177 0
-0.481636 0.530876 0
2.23791 -0.531194 0
0.968549 -0.0154941 0
0.973331 -0.0159397 0
0.994682 -0.0177594 0
-0.0673862 -0.545417 0
1.0636 0.00911563 0
1.0335 -0.0157108 0
2.10205 -0.581325 0
0.96763 0.0165334 0
-0.662656 0.481181 0
3.0576 -0.290223 0
-0.338202 -0.513279 0
1.06116 -0.00881595 0
3.03274 0.345954 0
3.11317 -0.287422 0
0.948968 0.0124443 0
0.998612 -0.0171438 0
2.46468 0.519972 0
0.930493 0.00387484 0
2.83982 -0.417913 0
0.850855 -0.675452 0
1.04556 -0.0134259 0
1.05795 0.0122608 0
0.992171 0.0172256 0
0.72809 0.66022 0
-1.15191 0.097446 0
-1.10485 0.127211 0
-0.739745 0.176556 0
-0.89101 0.0849515 0
-0.580148 0.071075 0
-0.545824 0.0923148 0
0.286047 0.0321126 0
-0.326246 0.060414 0
-0.221775 0.124059 0
-0.0388353 0.0625416 0
-0.0630063 0.0474443 0
0.302525 0.0419295 0
0.203663 0.0480051 0
0.625187 0.0224096 0
0.657028 0.0205649 0
0.0689835 0.0416296 0
0.184784 0.0364386 0
0.090456 0.0548596 0
0.616517 0.0174232 0
0.730911 0.0122767 0
0.648817 0.0158728 0
0.752913 0.0251865 0
0.539443 0.0469615 0
0.596141 0.041094 0
0.789946 0.0127023 0
0.58413 0.0355053 0
0.499029 0.0227502 0
0.784701 0.00969924 0
0.449928 0.0559528 0
0.678278 0.0145244 0
0.346778 0.0296448 0
0.36182 0.0383797 0
0.401802 0.0273101 0
0.839285 0.0097555 0
0.853137 0.00894003 0
0.849308 0.00681102 0
0.835154 0.00744481 0
0.816258 0.0111704 0
0.811565 0.00844133 0
0.879503 0.00545242 0
0.882637 0.00716474 0
0.894543 0.00472444 0
0.897371 0.0062576 0
0.929081 0.00316477 0
0.868091 0.00590129 0
0.913004 0.00738377 0
0.923763 0.00647684 0
0.925916 0.00746483 0
0.871563 0.0078046 0
0.903491 0.00433962 0
0.91576 0.00867549 0
-1.04905 0.122539 0
-1.03341 0.0953377 0
-0.0104232 0.060796 0
-0.364576 0.0615775 0
-1.21675 0.10109 0
-0.628264 0.0748557 0
-0.00292422 0.047307 0
-0.624266 0.156335 0
0.3809 0.0362938 0
0.115388 0.0534106 0
0.323387 0.0395054 0
0.121846 0.0415679 0
-0.188567 0.101858 0
-0.185751 0.117401 0
0.383541 0.0282052 0
0.231042 0.0363908 0
0.484607 0.0233261 0
0.552144 0.0456558 0
0.552585 0.0394509 0
0.466048 0.0530072 0
0.225442 0.0467614 0
0.464755 0.0459595 0
0.326297 0.0307806 0
0.668554 0.0151739 0
0.667322 0.0194698 0
0.795749 0.0124021 0
0.607547 0.0384604 0
-0.141509 0.0523351 0
0.857229 0.00872251 0
0.60486 0.0184548 0
0.900467 0.00592123 0
0.857947 0.00680065 0
0.637825 0.0165056 0
0.79696 0.00966826 0
0.885922 0.00699 0
0.63637 0.0211384 0
0.900571 0.00463905 0
0.822371 0.00848052 0
0.886437 0.00545833 0
0.722975 0.0129161 0
0.875442 0.0073621 0
0.875655 0.00576868 0
0.821359 0.0108748 0
0.844505 0.00718252 0
0.759455 0.0206907 0
0.760112 0.0238612 0
0.844138 0.00918429 0
0.777947 0.0102399 0
0.777234 0.0130744 0
0.921613 0.00663185 0
0.921558 0.0076759 0
0.927929 0.00694824 0
0.927111 0.00342091 0
2.62023 -0.473679 0
1.03777 -0.0142958 0
3.24573 0.084249 0
3.21208 0.142781 0
-1.31569 -0.117471 0
1.13784 -0.670335 0
1.00348 -0.0178595 0
-0.00523277 -0.573115 0
2.16871 0.617595 0
-0.323203 0.508972 0
0.943777 0.0107943 0
3.30312 -0.0769136 0
0.96248 0.0146956 0
-0.221862 0.570778 0
1.07148 -0.000310803 0
2.26686 0.568687 0
1.05466 -0.0111138 0
1.07023 0.00326323 0
1.628 0.650168 0
1.83048 0.66112 0
0.745317 -0.670374 0
0.350566 -0.646324 0
0.952013 -0.0128029 0
0.935476 0.00744536 0
-1.12464 0.260509 0
1.06416 -0.00776361 0
0.760634 0.660482 0
3.16034 0.188818 0
1.02329 -0.0163081 0
0.93381 -0.00656174 0
-1.13535 -0.257528 0
-0.226508 -0.518618 0
-0.78421 0.153018 0
-0.253584 0.107394 0
0.527332 0.0403864 0
0.736381 0.0157778 0
0.435516 0.0483702 0
-0.621007 0.14019 0
0.606926 0.0345728 0
0.722232 0.0162856 0
0.927799 0.00625509 0
0.942012 -0.0114937 0
0.945534 -0.012961 0
-0.842106 -0.379081 0
-0.721871 -0.425029 0
-1.30732 -0.0382914 0
1.06864 -0.00368883 0
1.58935 -0.605453 0
2.17972 -0.5591 0
-0.118997 -0.572631 0
1.04396 0.0138892 0
-0.852919 0.110855 0
-0.300934 0.0776453 0
0.746407 0.0217694 0
0.508911 0.0292723 0
0.685012 0.0187909 0
0.413718 0.0349916 0
-0.635136 0.0912404 0
0.603439 0.0224794 0
0.927035 0.00410707 0
0.905955 0.00573815 0
-0.369784 0.0781523 0
0.482862 0.0299278 0
-0.149403 0.0668232 0
1.06768 0.00558956 0
-0.0123023 0.603285 0
3.31196 0.0483431 0
0.972088 0.0168943 0
1.98377 0.633778 0
2.30862 0.580535 0
1.00198 0.01797 0
1.0083 0.0178338 0
1.98657 0.634823 0
1.64019 0.666717 0
0.949017 -0.0137637 0
-0.683235 -0.465051 0
1.02028 0.016431 0
0.237775 0.640468 0
1.0443 0.0144561 0
0.930651 0.004082 0
-1.22741 0.129319 0
-0.851056 0.377427 0
1.03591 0.0150225 0
2.33912 0.544249 0
1.06462 0.00939944 0
1.99469 -0.589832 0
-0.288201 -0.538162 0
2.09438 0.588933 0
-1.13832 -0.293119 0
0.938436 -0.00814946 0
0.965599 -0.0147561 0
0.979934 -0.0172418 0
1.96042 0.616368 0
0.985517 0.0191261 0
1.87841 -0.589137 0
1.01938 0.0178018 0
0.977385 -0.0159682 0
1.95324 0.618674 0
1.79037 0.627719 0
1.7775 0.629576 0
0.912143 -0.00578807 0
0.914514 -0.0080187 0
0.914029 -0.00932227 0
0.935773 -0.0226433 0
0.924414 -0.0142056 0
0.924931 -0.0155115 0
0.92949 -0.00452694 0
0.931344 -0.0062539 0
0.930896 -0.0186443 0
0.936711 -0.0202975 0
0.92975 -0.0173377 0
0.945332 -0.0254565 0
0.942815 -0.0241657 0
0.635182 -0.0905378 0
0.867908 -0.244157 0
0.983033 -0.0301769 0
0.923794 -0.00396096 0
0.996917 -0.0312541 0
0.733593 -0.223541 0
0.99231 -0.0304617 0
0.861946 -0.255196 0
0.827022 -0.247649 0
0.979752 -0.0278433 0
0.819204 -0.258846 0
0.81103 -0.27055 0
0.855713 -0.266735 0
0.879065 -0.223492 0
0.70032 -0.0970738 0
0.953227 -0.0267224 0
0.917082 -0.0114896 0
0.920626 -0.0122429 0
1.00648 -0.0311844 0
0.95821 -0.0266287 0
1.0606 -0.010708 0
0.889271 -0.204578 0
0.756153 -0.204626 0
1.0115 -0.0318061 0
0.861298 -0.198532 0
1.05652 -0.01183 0
0.730267 -0.126533 0
1.06632 -0.0109777 0
0.602892 -0.0609722 0
0.602858 -0.0545894 0
0.916753 -0.00434288 0
0.912972 -0.00454602 0
1.02117 -0.031366 0
0.920359 -0.00414798 0
0.894044 -0.195732 0
0.704786 -0.125702 0
0.718051 -0.132247 0
0.91597 -0.0055278 0
1.02653 -0.0317973 0
0.919616 -0.00527775 0
0.930045 -0.00351634 0
0.773036 -0.221771 0
0.0483776 -0.0879269 0
0.867286 -0.189948 0
0.564335 -0.108029 0
0.93232 -0.00403504 0
0.841653 -0.226689 0
0.623029 -0.0709005 0
0.966467 -0.027553 0
1.07167 -0.02819 0
1.11626 -0.0162944 0
0.62034 -0.134346 0
0.898609 -0.187268 0
0.930972 -0.00731823 0
0.284821 -0.01832 0
0.873014 -0.181735 0
0.625993 -0.0773616 0
1.07998 -0.0262383 0
1.0698 -0.00943668 0
0.648165 -0.164938 0
0.933912 -0.0213011 0
0.603139 -0.140414 0
1.03614 -0.0309769 0
0.849195 -0.278797 0
0.591244 -0.132238 0
0.978903 -0.029236 0
0.902977 -0.179172 0
1.11601 -0.0144592 0
0.57272 -0.13821 0
1.08578 -0.0257747 0
1.07277 -0.00888943 0
0.848494 -0.216885 0
0.977491 -0.288409 0
0.541095 -0.215021 0
1.06583 -0.0284172 0
0.579988 -0.19683 0
1.09894 -0.0227715 0
0.597461 -0.573937 0
0.8345 -0.236937 0
0.497661 -0.2136 0
1.09329 -0.0234734 0
0.671921 -0.0890325 0
0.53312 -0.150977 0
0.709006 -0.103071 0
0.983709 -0.028752 0
0.489857 -0.164924 0
0.526194 -0.167557 0
0.546725 -0.160315 0
0.878493 -0.173879 0
0.657032 -0.0930519 0
1.07548 -0.00716893 0
0.511967 -0.157796 0
0.44259 -0.180161 0
0.855038 -0.207505 0
0.971294 -0.0272598 0
0.938497 -0.0215818 0
0.907154 -0.171426 0
0.520318 -0.224739 0
0.502968 0.123728 0
1.04175 -0.031201 0
1.14272 -0.00588004 0
0.691411 -0.131378 0
1.06805 -0.0173789 0
0.782853 -0.212181 0
0.495843 0.114712 0
0.792244 -0.203005 0
1.12127 -0.0151288 0
1.07818 -0.0064695 0
1.14042 0.00325529 0
0.762774 -0.231796 0
0.877731 -0.119468 0
1.1299 -0.010582 0
0.363361 -0.205698 0
0.652543 -0.122987 0
1.12538 -0.0119642 0
0.829957 -0.0235944 0
1.08003 -0.00460418 0
1.05203 -0.0272974 0
1.78744 0.096152 0
1.10548 -0.0201467 0
1.81917 0.0879445 0
1.97162 0.199228 0
1.13839 0.0144519 0
1.14232 0.0108512 0
1.1407 0.00880931 0
0.717582 -0.120271 0
1.1009 -0.0192423 0
1.06022 -0.0258555 0
1.10161 -0.0125824 0
0.667606 -0.0457539 0
1.10145 -0.0175242 0
1.14289 0.00517157 0
0.475898 -0.245512 0
1.93649 0.174663 0
0.682021 -0.112589 0
0.590443 -0.111031 0
0.914974 -0.156926 0
1.06217 -0.0189692 0
0.918632 -0.150144 0
0.0806066 0.113993 0
0.524578 0.11843 0
1.13258 -0.0072147 0
0.625923 -0.121058 0
1.05112 -0.0299971 0
0.517873 0.109844 0
0.571874 -0.116044 0
1.11122 -0.0155688 0
1.7215 -0.0989256 0
1.13909 0.0165868 0
1.1203 0.024448 0
0.0714537 0.275629 0
0.923089 -0.00503648 0
1.05969 0.0508709 0
0.874219 -0.00829889 0
1.84644 0.0329352 0
2.01622 0.0931261 0
1.84614 -0.0325642 0
0.382142 0.0857875 0
0.893547 -0.152292 0
0.856556 -0.120422 0
0.877577 -0.0115234 0
1.12445 0.0278064 0
0.928682 -0.131509 0
0.925479 -0.137448 0
0.711237 -0.0310499 0
0.718529 -0.0183946 0
0.608967 -0.126525 0
0.614895 -0.163852 0
1.11542 0.0308823 0
0.976131 0.027528 0
2.21293 0.248546 0
0.678592 -0.591425 0
1.05689 -0.0300005 0
-0.479623 -0.399504 0
1.0791 -0.00355159 0
0.806138 0.024152 0
0.812984 -0.156966 0
1.02942 0.055587 0
0.31799 0.320839 0
1.02683 0.050876 0
0.408738 -0.20899 0
0.294149 -0.2494 0
-0.0697162 0.242862 0
0.631581 -0.156771 0
1.54794 0.314501 0
0.238384 -0.206094 0
1.09908 0.0379634 0
1.01423 0.173479 0
0.304385 -0.224703 0
1.03971 0.169327 0
0.519425 -0.204366 0
0.648371 -0.0229383 0
0.883735 -0.166362 0
0.906727 -0.13339 0
0.819909 -0.0118277 0
-0.44078 -0.35555 0
0.189739 -0.200496 0
1.08706 0.0403488 0
1.10248 0.035836 0
0.153756 -0.546133 0
2.29684 -0.034636 0
1.11307 0.0330726 0
0.355822 0.0794417 0
2.27755 0.238085 0
1.05078 0.0504701 0
1.60362 -0.50717 0
2.07001 0.113267 0
1.05452 0.0465551 0
1.0279 0.0502327 0
0.540246 -0.195531 0
1.64284 0.272094 0
0.980537 0.0528984 0
2.99495 0.344373 0
1.98645 0.14994 0
1.04952 0.0476417 0
0.902527 -0.139414 0
2.35722 -0.0897787 0
0.814118 0.0260023 0
2.02353 0.108367 0
0.65713 -0.0318568 0
0.0104342 0.204959 0
0.222931 0.302118 0
0.87116 -0.0140092 0
0.585159 -0.146757 0
1.04315 0.049327 0
0.409779 0.100761 0
0.970576 0.0562572 0
1.06389 -0.0103761 0
0.83391 0.0380561 0
0.850173 0.0375847 0
1.09314 0.392317 0
0.69594 0.440098 0
0.920181 0.0129669 0
0.125069 0.164986 0
1.08637 0.0443297 0
1.53389 0.343191 0
0.458859 -0.19131 0
1.06318 -0.0113385 0
0.472954 0.119842 0
2.28228 0.0650962 0
1.08839 0.0175701 0
-0.115579 -0.472765 0
1.07437 0.0192422 0
0.426273 -0.243884 0
1.08 -0.00168557 0
-0.0480857 0.178868 0
1.56301 0.55012 0
0.566367 -0.153386 0
0.560166 -0.187078 0
1.08181 0.00116472 0
0.504735 -0.175127 0
2.28124 -0.0677942 0
2.26879 0.116208 0
0.823474 -0.0191029 0
0.609643 0.126773 0
0.482305 -0.18304 0
0.474911 -0.223252 0
0.888749 -0.159171 0
1.10181 -0.0141895 0
0.824577 -0.0164284 0
1.06533 0.0555733 0
3.07841 0.220982 0
1.02159 0.0540673 0
-0.0985757 0.168854 0
0.641472 -0.097253 0
0.637054 0.426256 0
1.17076 0.166272 0
2.01622 0.326656 0
-0.145684 0.140135 0
2.27221 -0.0177018 0
0.0909876 -0.523002 0
1.08186 -0.000772578 0
0.120449 0.150093 0
1.09743 -0.0135316 0
1.14391 -0.00219908 0
2.04088 0.0666665 0
1.77759 -0.0719389 0
1.82878 0.534899 0
1.06854 -0.0269076 0
1.03529 0.051601 0
1.46914 -0.199816 0
2.1317 0.278656 0
1.78359 0.0841135 0
0.905123 0.0497659 0
0.898136 -0.14571 0
0.0791924 0.127961 0
0.159009 0.298309 0
1.37579 0.275098 0
1.8232 0.100526 0
1.1386 -0.00753744 0
0.920689 0.0520138 0
0.930264 0.0518108 0
2.02698 0.0521623 0
0.263423 0.126244 0
0.599642 0.118952 0
0.895325 0.049593 0
0.298877 0.132366 0
0.438393 0.105964 0
3.00353 0.304898 0
0.0801764 0.157108 0
0.508062 0.4153 0
0.457092 0.399682 0
1.78758 0.134155 0
1.10494 0.0288045 0
1.44572 -0.520588 0
0.836213 -0.137482 0
2.3458 0.204384 0
1.10797 0.00660045 0
1.42649 0.276095 0
-0.19221 0.128005 0
1.8055 -0.0633189 0
1.09707 -0.0167233 0
0.926599 0.0730417 0
1.10919 0.008153 0
0.451131 -0.23334 0
0.880601 0.0467038 0
1.14091 -0.000353445 0
0.241508 0.246412 0
0.977392 0.315938 0
0.940203 0.0253851 0
1.03696 0.438954 0
1.66112 0.234115 0
0.742534 -0.01684 0
0.69226 -0.440062 0
0.922646 0.0230575 0
1.38484 0.0410766 0
1.90661 0.223364 0
1.26396 0.306754 0
0.239948 -0.245461 0
0.747764 0.636818 0
2.28429 -0.177794 0
1.61132 0.237008 0
1.06556 -0.0256665 0
-0.0345457 0.214195 0
1.11298 -0.000333838 0
0.773729 -0.096444 0
1.13652 -0.00563237 0
1.85263 0.229577 0
0.87553 -0.00651236 0
1.04675 -0.0272741 0
0.851106 -0.00777588 0
1.979 0.182564 0
-0.22653 0.0970717 0
1.02598 0.323017 0
1.10633 -0.00575391 0
0.802484 -0.282783 0
0.353978 -0.228303 0
0.783869 -0.101463 0
-0.0653431 -0.497748 0
-0.481491 -0.13666 0
2.18835 0.459382 0
1.09653 -0.0183683 0
1.48811 -0.189385 0
1.04471 -0.0259703 0
0.84238 -0.291404 0
2.32445 -0.124263 0
2.11262 0.299333 0
0.879209 0.0472676 0
0.707828 -0.0726045 0
1.72999 0.216263 0
1.78936 0.12125 0
1.10417 -0.00841719 0
1.73012 0.533515 0
2.33366 -0.144139 0
3.08858 0.251839 0
0.325552 0.0833467 0
1.10605 -0.018352 0
1.09289 -0.0159467 0
2.03093 0.140284 0
1.26597 0.376915 0
1.44875 -0.19117 0
1.96024 0.217654 0
0.935052 0.0251982 0
1.07991 0.00206797 0
1.53365 -0.158141 0
0.0851036 0.172727 0
0.381964 -0.218433 0
0.879746 -0.00793755 0
2.29735 0.031919 0
1.11166 0.0280436 0
2.91184 0.231741 0
1.06296 -0.0271161 0
0.842562 -0.0103585 0
1.07327 -0.32953 0
1.12161 0.0169489 0
1.03649 -0.027016 0
1.09356 0.0152807 0
0.262188 -0.260667 0
-0.086832 -0.100375 0
2.06237 0.0973385 0
0.933412 0.176388 0
0.545281 0.113326 0
1.92943 0.190609 0
0.844291 -0.0081276 0
1.38211 0.0353225 0
1.10567 -0.0016523 0
1.02262 -0.3229 0
1.12576 0.0255949 0
1.49706 -0.289262 0
0.169545 -0.268131 0
0.927751 0.0234656 0
1.64219 0.29923 0
1.10669 0.0125089 0
1.60974 -0.180581 0
0.975484 0.0638923 0
0.880985 -0.00622907 0
0.944311 -0.0321865 0
0.864853 0.0482535 0
1.12692 -0.00632028 0
0.860409 -0.136393 0
0.883901 -0.0546852 0
1.29039 0.283612 0
0.678462 0.316709 0
0.924049 -0.322175 0
1.08263 0.0423709 0
0.881156 0.314072 0
1.42662 0.355499 0
1.10974 0.0301208 0
1.14032 -0.0033799 0
0.11276 0.344465 0
1.10619 0.0108796 0
0.888937 0.0477038 0
0.897993 -0.262882 0
1.01919 -0.270471 0
1.13342 0.0200821 0
1.12442 0.321139 0
0.829691 0.319199 0
-0.0232225 0.23239 0
0.975441 -0.315089 0
0.793548 -0.29557 0
1.98845 0.511174 0
0.870753 0.0461413 0
1.12736 0.0212745 0
0.996778 0.0531981 0
1.38039 0.368644 0
2.11355 -0.015502 0
0.978073 -0.0932843 0
1.77883 0.250537 0
0.721874 -0.0383489 0
1.51045 -0.151302 0
1.07282 0.0206601 0
0.862759 -0.11522 0
1.4979 -0.16121 0
0.934987 -0.281548 0
1.75239 -0.0916126 0
0.733066 0.313541 0
0.840631 -0.155722 0
1.11905 0.0265638 0
1.0638 0.0237778 0
0.943613 0.0210477 0
-0.931218 -0.177781 0
2.99776 0.241311 0
0.961197 0.173181 0
0.984851 0.065564 0
0.862051 0.0412883 0
1.31397 -0.310014 0
0.833432 -0.162757 0
0.434295 0.29489 0
0.860851 -0.597439 0
0.712836 -0.0779873 0
2.02875 -0.142528 0
1.3688 -0.312561 0
-0.108407 0.0288754 0
2.08582 -0.0290296 0
1.13194 0.0251085 0
1.09443 0.0407118 0
0.147934 0.36342 0
1.86138 -0.119345 0
1.02066 0.051689 0
0.942734 0.0241991 0
-0.506006 -0.371642 0
1.70837 -0.0273366 0
0.858786 0.622488 0
0.804899 0.00510847 0
1.12862 -0.00812584 0
0.90462 0.0708589 0
1.50908 0.264115 0
0.971871 0.0537878 0
0.00839032 0.269254 0
0.408528 0.308211 0
1.5366 0.251726 0
1.08839 -0.0167003 0
-0.378411 -0.340233 0
1.07817 -0.0194254 0
1.1064 -0.0148679 0
1.08962 -0.234962 0
2.01891 -0.0141724 0
-0.351755 -0.43559 0
0.81015 0.00744574 0
0.941728 0.0183126 0
1.89441 -0.0967751 0
0.694965 -0.25551 0
1.7197 -0.0876556 0
1.15704 0.0321214 0
1.68803 -0.0355747 0
1.49229 -0.111703 0
0.960215 -0.0166039 0
0.0212589 0.222367 0
0.526343 0.308253 0
1.69014 -0.0946534 0
0.936653 -0.269868 0
0.683313 0.0393805 0
1.8478 -0.176348 0
1.0693 -0.0160914 0
1.10507 -0.0099582 0
1.0639 0.0461912 0
1.05313 0.0527542 0
2.15733 -0.373862 0
1.05817 0.0576288 0
1.09101 0.042217 0