# vtk DataFile Version 3.0
Malha 2D com triângulos: velocidade e pressão
ASCII
DATASET UNSTRUCTURED_GRID

POINTS 1055 double
-0.5 0 0
1.5 0 0
1.5 2 0
-0.5 2 0
-0.431034 0 0
-0.362069 0 0
-0.293103 0 0
-0.224138 0 0
-0.155172 0 0
-0.0862069 0 0
-0.0172414 0 0
0.0517241 0 0
0.12069 0 0
0.189655 0 0
0.258621 0 0
0.327586 0 0
0.396552 0 0
0.465517 0 0
0.534483 0 0
0.603448 0 0
0.672414 0 0
0.741379 0 0
0.810345 0 0
0.87931 0 0
0.948276 0 0
1.01724 0 0
1.08621 0 0
1.15517 0 0
1.22414 0 0
1.2931 0 0
1.36207 0 0
1.43103 0 0
1.5 0.0689655 0
1.5 0.137931 0
1.5 0.206897 0
1.5 0.275862 0
1.5 0.344828 0
1.5 0.413793 0
1.5 0.482759 0
1.5 0.551724 0
1.5 0.62069 0
1.5 0.689655 0
1.5 0.758621 0
1.5 0.827586 0
1.5 0.896552 0
1.5 0.965517 0
1.5 1.03448 0
1.5 1.10345 0
1.5 1.17241 0
1.5 1.24138 0
1.5 1.31034 0
1.5 1.37931 0
1.5 1.44828 0
1.5 1.51724 0
1.5 1.58621 0
1.5 1.65517 0
1.5 1.72414 0
1.5 1.7931 0
1.5 1.86207 0
1.5 1.93103 0
1.43103 2 0
1.36207 2 0
1.2931 2 0
1.22414 2 0
1.15517 2 0
1.08621 2 0
1.01724 2 0
0.948276 2 0
0.87931 2 0
0.810345 2 0
0.741379 2 0
0.672414 2 0
0.603448 2 0
0.534483 2 0
0.465517 2 0
0.396552 2 0
0.327586 2 0
0.258621 2 0
0.189655 2 0
0.12069 2 0
0.0517241 2 0
-0.0172414 2 0
-0.0862069 2 0
-0.155172 2 0
-0.224138 2 0
-0.293103 2 0
-0.362069 2 0
-0.431034 2 0
-0.5 1.93103 0
-0.5 1.86207 0
-0.5 1.7931 0
-0.5 1.72414 0
-0.5 1.65517 0
-0.5 1.58621 0
-0.5 1.51724 0
-0.5 1.44828 0
-0.5 1.37931 0
-0.5 1.31034 0
-0.5 1.24138 0
-0.5 1.17241 0
-0.5 1.10345 0
-0.5 1.03448 0
-0.5 0.965517 0
-0.5 0.896552 0
-0.5 0.827586 0
-0.5 0.758621 0
-0.5 0.689655 0
-0.5 0.62069 0
-0.5 0.551724 0
-0.5 0.482759 0
-0.5 0.413793 0
-0.5 0.344828 0
-0.5 0.275862 0
-0.5 0.206897 0
-0.5 0.137931 0
-0.5 0.0689655 0
-0.438073 1.00381 0
1.43807 1.00381 0
0.5 0.0597259 0
0.5 1.94027 0
0.775862 0.0597259 0
1.43414 1.27991 0
0.775862 1.94027 0
-0.438279 0.722304 0
0.224138 0.0597259 0
1.44136 0.722908 0
0.224138 1.94027 0
-0.434252 1.28003 0
1.05172 1.94027 0
-0.446099 1.55154 0
-0.0530726 0.0531812 0
1.4387 0.447866 0
1.44027 1.55172 0
-0.0517241 1.94027 0
1.05123 0.0581178 0
-0.43885 0.448095 0
1.25862 1.94027 0
-0.440274 1.75862 0
-0.259112 0.0581178 0
1.44034 0.24021 0
1.43878 1.7601 0
-0.258621 1.94027 0
1.25707 0.0530036 0
-0.44503 0.242417 0
-0.441717 1.13793 0
0.362069 0.0597259 0
1.44506 0.858036 0
1.43424 1.40825 0
0.637931 1.94027 0
-0.436614 1.40976 0
0.913793 0.0597259 0
0.362069 1.94027 0
0.0862069 1.94027 0
-0.436051 0.577703 0
0.0862069 0.0597259 0
0.637931 0.0597259 0
1.43445 0.577154 0
0.913793 1.94027 0
-0.445062 0.858036 0
1.44027 1.13793 0
-0.396234 0.0529035 0
-0.433937 1.89061 0
1.39655 1.94027 0
1.44207 0.103741 0
1.18966 1.94027 0
1.22363 1.88084 0
1.15509 1.8806 0
1.18905 1.82117 0
1.12058 1.82089 0
1.15505 1.76117 0
1.08617 1.76112 0
1.12066 1.70139 0
1.05171 1.70138 0
1.0862 1.64165 0
1.01724 1.64165 0
1.05172 1.58192 0
0.982758 1.58192 0
1.01724 1.52219 0
0.948276 1.52219 0
0.982759 1.46247 0
0.913793 1.46247 0
0.948276 1.40274 0
0.87931 1.40274 0
0.913793 1.34302 0
0.844828 1.34302 0
0.87931 1.28329 0
0.810345 1.28329 0
0.844828 1.22356 0
0.775862 1.22356 0
0.810345 1.16384 0
0.741379 1.16384 0
0.775862 1.10411 0
0.706897 1.10411 0
0.672414 1.16384 0
0.637931 1.10411 0
0.603448 1.16384 0
0.568966 1.10411 0
0.534483 1.16384 0
0.5 1.10411 0
0.672414 1.04439 0
0.465517 1.16384 0
0.431034 1.10411 0
0.396552 1.16384 0
0.362069 1.10411 0
0.396552 1.04439 0
0.327586 1.16384 0
0.327586 1.04439 0
0.362069 0.98466 0
0.293103 0.98466 0
0.327586 0.924934 0
0.258621 0.924934 0
0.293103 0.865208 0
0.431034 1.22356 0
0.224138 0.865208 0
0.258621 0.805482 0
0.327586 0.805482 0
0.224138 0.98466 0
0.293103 0.745756 0
0.362069 0.745756 0
0.224138 0.745756 0
0.844828 1.10411 0
0.810345 1.40274 0
0.258621 0.68603 0
0.189655 0.68603 0
0.224138 0.626305 0
0.155172 0.626305 0
0.12069 0.68603 0
0.0862069 0.626305 0
0.0517241 0.68603 0
0.948276 1.28329 0
0.12069 0.566579 0
0.0517241 0.566579 0
0.913793 1.58192 0
0.0862069 0.506853 0
0.0172414 0.506853 0
1.05172 1.46247 0
0.0517241 0.447127 0
0.12069 0.447127 0
-0.0172414 0.447127 0
-0.0517241 0.506853 0
-0.0862069 0.447127 0
0.0172414 0.387401 0
-0.12069 0.506853 0
-0.155172 0.447127 0
1.15517 1.64165 0
-0.12069 0.387401 0
0.293103 0.626305 0
0.396552 0.924934 0
0.568966 1.22356 0
0.982756 1.70137 0
0.810345 1.04439 0
0.87931 1.04439 0
0.844828 0.98466 0
0.913793 0.98466 0
0.87931 0.924934 0
0.948276 0.924934 0
0.913793 0.865208 0
0.844828 0.865208 0
0.87931 0.805482 0
0.948276 0.805482 0
0.913793 0.745756 0
0.844828 0.745756 0
0.87931 0.68603 0
0.810345 0.68603 0
0.844828 0.626305 0
0.913793 0.626305 0
0.775862 0.626305 0
0.810345 0.566579 0
0.741379 0.566579 0
0.982759 0.98466 0
0.775862 0.506853 0
0.706897 0.506853 0
0.741379 0.68603 0
0.741379 0.447127 0
0.810345 0.447127 0
0.672414 0.447127 0
0.637931 0.506853 0
0.603448 0.447127 0
0.706897 0.387401 0
0.982759 0.745756 0
1.01724 0.805482 0
1.05172 0.745756 0
1.08621 0.805482 0
1.12069 0.745756 0
1.08621 0.68603 0
1.15517 0.68603 0
1.12069 0.626305 0
0.568966 0.506853 0
0.534483 0.447127 0
0.568966 0.387401 0
0.5 0.387401 0
1.15517 0.805482 0
-0.189655 0.387401 0
-0.155172 0.327675 0
0.534483 0.327675 0
0.465517 0.327675 0
0.431034 0.387401 0
0.396552 0.327675 0
-0.189655 0.506853 0
-0.155172 0.566579 0
1.18966 0.626305 0
1.15517 0.566579 0
0.362069 0.387401 0
0.327586 0.327675 0
1.22414 0.566579 0
1.18966 0.506853 0
1.12069 0.506853 0
1.15517 0.447127 0
1.08621 0.447127 0
1.12069 0.387401 0
1.05172 0.387401 0
1.18966 0.387401 0
1.15517 0.327675 0
0.5 0.506853 0
0.534483 0.566579 0
-0.224138 0.327675 0
1.22558 0.326791 0
1.22356 1.76269 0
-0.224138 0.566579 0
-0.189655 0.626305 0
1.22414 0.68603 0
-0.189655 0.267949 0
-0.12069 0.267949 0
1.19049 0.267456 0
1.12083 0.267867 0
0.431034 0.267949 0
0.913793 1.10411 0
0.0862069 0.745756 0
0.0172414 0.745756 0
0.0517241 0.805482 0
-0.0172414 0.805482 0
0.0172414 0.865208 0
-0.0517241 0.865208 0
-0.0172414 0.924934 0
-0.0862069 0.924934 0
-0.0517241 0.98466 0
-0.12069 0.98466 0
-0.0862069 1.04439 0
-0.155172 1.04439 0
-0.12069 1.10411 0
-0.0517241 1.10411 0
-0.0862069 1.16384 0
-0.0172414 1.16384 0
-0.0517241 1.22356 0
0.0172414 1.22356 0
-0.0172414 1.28329 0
0.0517241 1.28329 0
0.0172414 1.34302 0
0.0862069 1.34302 0
0.0517241 1.40274 0
0.12069 1.40274 0
0.0862069 1.46247 0
0.155172 1.46247 0
0.0172414 1.46247 0
0.0517241 1.52219 0
-0.0172414 1.52219 0
-0.0862069 1.28329 0
0.0172414 1.58192 0
-0.0517241 1.58192 0
-0.0862069 1.52219 0
-0.12069 1.58192 0
-0.155172 1.52219 0
-0.0172414 1.64164 0
0.0517241 1.64164 0
0.189655 1.40274 0
0.224138 1.46247 0
-0.155172 1.16384 0
-0.12069 0.865208 0
-0.189655 1.58192 0
-0.155172 1.64164 0
-0.189655 0.98466 0
0.0172414 1.70137 0
0.0862069 1.70137 0
0.0517241 1.16384 0
0.258621 1.40274 0
0.293103 1.46247 0
0.258621 1.52219 0
0.327586 1.52219 0
0.293103 1.58192 0
0.362069 1.58192 0
0.396552 1.52219 0
0.431034 1.58192 0
0.465517 1.52219 0
0.5 1.58192 0
0.327586 1.64164 0
0.465517 1.64164 0
0.534483 1.64164 0
0.568966 1.58192 0
0.603448 1.64164 0
0.568966 1.70137 0
0.637931 1.70137 0
0.637931 1.58192 0
0.603448 1.52219 0
-0.224138 1.64164 0
-0.189655 1.70137 0
-0.224138 1.52219 0
0.431034 1.46247 0
0.12069 1.28329 0
-0.224138 1.04439 0
1.12069 0.865208 0
1.18966 0.865208 0
1.15517 0.924934 0
1.22414 0.924934 0
1.18966 0.98466 0
0.741379 1.28329 0
0.0172414 0.98466 0
0.534483 1.04439 0
-0.189655 1.46247 0
1.01724 0.447127 0
0.982759 0.387401 0
0.258621 0.566579 0
-0.258865 0.626163 0
-0.224179 0.686007 0
-0.258621 0.98466 0
1.15593 0.207782 0
-0.155172 0.208223 0
1.25862 0.865208 0
-0.258621 0.387401 0
1.26113 0.38582 0
-0.257737 1.70086 0
-0.258331 1.4623 0
-0.22409 1.40271 0
1.25862 0.98466 0
1.22414 1.04439 0
1.15517 1.04439 0
1.18966 1.10411 0
1.12069 1.10411 0
1.15517 1.16384 0
1.22414 1.16384 0
1.18966 1.22356 0
1.25862 1.22356 0
1.22414 1.28329 0
1.15517 1.28329 0
1.18966 1.34302 0
1.25862 1.34302 0
1.22414 1.40274 0
-0.258621 0.267949 0
1.2612 0.266803 0
-0.223991 1.76101 0
-0.155148 1.76108 0
0.0517241 1.7611 0
0.12069 1.7611 0
0.603448 1.7611 0
0.534483 1.7611 0
0.672414 1.7611 0
0.706897 1.70137 0
0.741379 1.7611 0
1.08621 1.16384 0
0.775862 1.70137 0
0.810345 1.7611 0
0.672414 1.52219 0
0.637931 1.46247 0
0.12069 1.64164 0
-0.0172414 0.68603 0
0.465517 0.566579 0
0.5 0.626305 0
0.568966 0.626305 0
0.534483 0.68603 0
0.293103 0.387401 0
0.258621 0.327675 0
0.293103 0.267949 0
0.224138 0.267949 0
1.08636 0.208136 0
-0.0862069 0.208223 0
-0.293103 1.04439 0
1.2931 1.04439 0
-0.287206 1.63732 0
-0.293103 0.566579 0
-0.292757 1.40254 0
-0.258555 1.34298 0
-0.288253 1.76049 0
-0.293396 0.685862 0
-0.258676 0.745724 0
0.258621 0.208223 0
0.189655 0.208223 0
0.155172 0.267949 0
0.12069 0.208223 0
1.2931 1.40274 0
1.25862 1.46247 0
-0.189627 1.82081 0
-0.120681 1.82082 0
1.18966 1.46247 0
1.22414 1.52219 0
1.2931 1.52219 0
1.25862 1.58192 0
0.568966 1.82082 0
0.5 1.82082 0
0.706897 1.82082 0
1.05172 1.10411 0
1.12069 1.34302 0
1.08621 1.28329 0
0.0862069 0.865208 0
1.0517 1.82084 0
1.25862 0.506853 0
1.2931 0.566579 0
0.706897 1.58192 0
0.844828 1.70137 0
0.87931 1.7611 0
0.844828 1.82082 0
0.913793 1.82082 0
0.396552 0.447127 0
1.05177 0.267921 0
1.01727 0.208204 0
0.982772 0.267941 0
0.948284 0.208219 0
0.913797 0.267947 0
0.879312 0.208222 0
0.844828 0.267949 0
0.810345 0.208223 0
-0.258621 1.10411 0
0.327586 0.208223 0
0.224138 1.34302 0
0.293103 1.34302 0
0.810345 1.64164 0
1.01724 1.16384 0
0.741379 1.52219 0
0.396552 0.805482 0
0.258621 1.28329 0
-0.224138 0.924934 0
-0.293103 0.924934 0
0.603448 0.68603 0
0.568966 0.745756 0
0.637931 0.745756 0
0.603448 0.805482 0
0.672414 0.805482 0
0.637931 0.865208 0
0.568966 0.865208 0
-0.0517241 0.267949 0
0.258621 1.64164 0
0.293103 1.70137 0
0.362069 1.70137 0
0.327586 1.7611 0
0.706897 0.865208 0
0.603448 0.327675 0
0.568966 0.267949 0
0.637931 0.267949 0
0.603448 0.208223 0
0.534483 0.208223 0
1.05172 0.626305 0
-0.155164 1.40274 0
1.2931 1.88055 0
1.2931 1.16384 0
0.775862 0.98466 0
[...]
CELL_DATA 1992
VECTORS velocity double
1.06258 0.00971621 0
-0.116113 -0.446156 0
1.45821 -0.633457 0
-1.07872 -0.139038 0
0.919402 -0.00498341 0
1.08078 0.00626996 0
0.959524 -0.0178759 0
1.07944 0.00297034 0
1.80877 0.553679 0
1.04728 0.0203581 0
2.97368 0.21005 0
1.02537 0.0226844 0
1.07938 0.00414019 0
0.285597 -0.50129 0
1.06617 0.0106585 0
0.979628 -0.02018 0
1.05084 0.0126841 0
-1.06586 -0.0388988 0
0.915012 -0.00138392 0
2.56019 -0.384788 0
1.06086 -0.0128734 0
0.97265 -0.019284 0
1.04749 -0.0171399 0
1.95836 -0.614299 0
3.10746 0.155909 0
1.67448 -0.571901 0
1.02631 -0.0188636 0
0.995039 -0.0208266 0
1.08206 -0.000863394 0
1.33703 0.574019 0
1.387 -0.601712 0
0.999247 -0.026907 0
-0.358696 -0.412373 0
0.924342 0.014713 0
1.06062 -0.0240692 0
1.05181 -0.0151981 0
2.85092 -0.275893 0
2.86645 -0.25181 0
-0.728933 0.304545 0
0.927766 0.0106763 0
1.02316 -0.0262804 0
1.06609 -0.0202829 0
0.982239 0.0199959 0
3.04559 -0.134693 0
1.07573 -0.00927521 0
1.0779 0.00697613 0
1.08325 -0.0041525 0
2.16902 0.497022 0
1.01564 0.0269117 0
1.0038 0.0203472 0
2.46598 -0.44291 0
1.05211 -0.0137289 0
1.05403 0.0179422 0
0.94534 0.0227905 0
1.08343 -0.0152261 0
0.939376 0.0192597 0
1.03738 -0.0270985 0
-0.72313 0.3401 0
0.944363 -0.0157318 0
-0.878719 -0.249863 0
0.922867 -0.00858475 0
-0.492801 -0.405821 0
-0.76583 -0.323934 0
0.9669 0.0257892 0
1.00384 0.0293143 0
-0.6493 0.393426 0
0.937615 0.0122991 0
2.7093 -0.0399581 0
0.984976 -0.0331835 0
0.187372 -0.214503 0
-0.303406 -0.0816271 0
0.87828 -0.00757233 0
1.00307 0.025061 0
1.03335 -0.0169916 0
1.92474 -0.559863 0
0.999704 -0.0229579 0
0.935717 -0.0120327 0
1.08476 -0.01138 0
-0.921313 0.219636 0
0.919641 0.00709023 0
0.923132 0.0112127 0
1.00725 -0.0197853 0
0.945635 0.0155893 0
2.74751 0.15091 0
2.55932 0.267362 0
1.07275 0.0103311 0
0.987911 -0.0235769 0
0.963187 -0.0186074 0
1.07259 -0.00901985 0
1.2133 -0.605348 0
-0.451425 0.4151 0
0.943236 0.0115083 0
2.68481 0.0847917 0
2.78869 -0.103621 0
0.999588 -0.0314015 0
0.956142 -0.0309518 0
0.952446 -0.0236108 0
0.961693 -0.0267413 0
1.07438 -0.0131406 0
0.986454 -0.028702 0
0.970246 0.0218112 0
-0.222213 -0.154532 0
0.886121 -0.014499 0
2.04189 0.394645 0
0.0511575 -0.162698 0
2.94662 -0.0466163 0
0.933113 -0.0132396 0
2.34718 0.300467 0
1.93097 0.471244 0
2.78006 0.213567 0
0.965053 -0.0222234 0
2.8078 -0.199871 0
1.0597 -0.0172129 0
0.924124 -0.0197421 0
0.979496 0.0245053 0
1.05344 -0.0202372 0
2.92238 0.105192 0
1.03243 -0.0232233 0
-0.409176 0.0496761 0
-0.303067 0.274386 0
0.107112 0.186685 0
-0.243114 0.043752 0
-0.807994 0.0626116 0
-0.290127 0.0965195 0
-0.504501 0.234961 0
0.211387 0.164336 0
0.0900732 0.142528 0
0.303198 0.144823 0
0.196608 0.125693 0
0.290427 0.110936 0
0.37316 0.0979701 0
0.384173 0.127753 0
-0.658306 0.123013 0
0.455677 0.112775 0
0.697765 0.134269 0
0.446192 0.0865527 0
-0.138383 0.0847255 0
-0.0310894 0.161751 0
1.01789 0.0310932 0
0.667862 0.0686806 0
1.14495 0.0117795 0
-0.463121 0.110038 0
0.541274 0.0163768 0
1.06088 0.0287782 0
1.04504 0.0287754 0
1.14052 -0.00401587 0
0.663523 0.115042 0
0.618105 0.0597292 0
0.662648 0.0527805 0
-0.326906 0.209341 0
1.13054 0.015866 0
0.797664 0.0418231 0
1.11273 0.0246777 0
1.10192 0.012332 0
0.619402 0.130163 0
1.15039 0.00106227 0
1.09815 -0.0251424 0
0.740708 0.0536057 0
1.01337 -0.0486922 0
1.08419 0.0235342 0
1.1043 -0.0346098 0
0.57897 0.0309902 0
0.523249 0.0351023 0
-0.483704 0.299765 0
0.518868 0.0995984 0
0.770938 0.0473522 0
0.732665 0.118674 0
0.642437 0.0128071 0
0.702021 0.0466358 0
0.73682 0.0412018 0
1.05563 -0.0460965 0
1.1322 -0.0139023 0
1.11308 0.00921618 0
0.674594 0.282165 0
0.949729 0.0701601 0
0.706519 0.0606791 0
0.702547 0.101689 0
0.842155 0.03261 0
1.07041 -0.0410057 0
0.767573 0.0363964 0
0.841714 -0.0264935 0
0.83657 0.072427 0
0.567715 0.0675887 0
0.818523 0.06205 0
0.991935 -0.052039 0
0.936659 -0.132057 0
1.08804 0.0190989 0
1.17808 0.0497662 0
1.02973 -0.0229344 0
1.11122 -0.0286706 0
1.10444 -0.00634415 0
1.00799 0.0492585 0
1.07461 0.0478226 0
0.869569 -0.036734 0
0.293929 0.243471 0
0.81875 0.0283892 0
0.946675 -0.0499458 0
0.786086 0.31084 0
0.839948 0.025065 0
1.15204 -0.523682 0
0.879179 -0.0437375 0
0.924992 0.0637761 0
0.786624 -0.108989 0
0.830776 0.00609452 0
1.00634 -0.0242582 0
0.812795 0.103478 0
0.821285 0.0369341 0
1.10034 -0.00264451 0
1.07882 0.0164285 0
1.21057 0.0457251 0
1.06094 0.0210434 0
0.628201 0.0273606 0
2.86496 0.30927 0
1.06136 0.315845 0
0.92096 -0.0508042 0
1.10043 0.0476268 0
0.671695 0.0241559 0
0.986088 -0.0972412 0
1.09199 -0.0304044 0
1.20181 0.0562586 0
0.824353 -0.123295 0
0.794746 0.0321471 0
-0.706676 -0.0182538 0
0.286392 -0.00600988 0
1.16398 0.0357776 0
1.02956 -0.103204 0
0.993885 -0.0353553 0
0.915193 0.0721735 0
1.05516 -0.0406861 0
-0.222047 -0.350519 0
0.441649 0.250892 0
1.11751 -0.0173234 0
0.839656 0.0548234 0
0.841608 -0.019399 0
1.03076 0.0516919 0
0.829778 -0.00773769 0
1.08156 -0.0111365 0
1.59894 -0.494069 0
1.20793 0.331725 0
0.81821 -0.173637 0
2.24593 -0.136627 0
1.03805 -0.132369 0
1.23858 0.051679 0
0.911865 0.0389155 0
0.904125 0.0816605 0
0.994972 -0.110776 0
0.191312 0.0838582 0
1.12232 0.0343887 0
0.984349 -0.110125 0
1.09143 -0.107803 0
0.888534 0.021068 0
0.922876 -0.0401251 0
1.12798 0.0104303 0
2.39025 -0.0832817 0
1.18583 0.0404511 0
0.815134 0.0819536 0
0.922061 0.0343074 0
0.72862 -0.176301 0
0.788356 -0.137531 0
1.21084 0.0169139 0
0.760364 -0.155709 0
0.794175 -0.196641 0
0.38296 -0.0757698 0
0.856726 -0.00133765 0
1.26467 0.129002 0
1.48785 0.0229294 0
1.92407 0.207762 0
0.303386 0.0440336 0
1.7305 0.156193 0
1.65487 0.304582 0
0.88943 0.037757 0
0.965095 0.0483454 0
1.87007 -0.163977 0
0.983889 0.0454461 0
0.551266 -0.127274 0
0.993008 -0.141916 0
1.04263 -0.0236912 0
1.06215 -0.0461629 0
1.50435 0.0425033 0
0.874055 0.023957 0
0.856687 0.0144122 0
0.845105 -0.0114548 0
1.18551 -0.141426 0
0.900284 0.0440961 0
1.02097 0.0354253 0
1.069 0.0327224 0
1.10834 0.201449 0
1.18987 0.0228965 0
1.28184 -0.0425031 0
1.07362 0.00228438 0
1.90749 0.639523 0
1.02755 -0.0303825 0
-0.809423 -0.0943085 0
0.544005 0.190534 0
2.10973 -0.168403 0
0.909193 0.00322461 0
0.954048 0.0387234 0
0.870964 -0.0836948 0
0.90878 0.0376583 0
-0.669773 0.103696 0
0.962633 -0.033944 0
1.05467 -0.0315778 0
0.935917 0.0898071 0
0.957983 -0.0387022 0
1.10004 0.00809001 0
1.06204 -0.0360404 0
0.927986 -0.0187974 0
0.900224 0.00959893 0
0.902293 0.0333077 0
1.11529 0.0140064 0
1.63714 -0.259254 0
1.00606 0.0382703 0
1.00487 0.0336854 0
1.10794 0.030364 0
0.982354 -0.124708 0
2.32242 -0.0419871 0
0.955485 0.0619928 0
0.992686 -0.0458406 0
1.089 -0.0356622 0
1.43197 0.269191 0
2.57679 -0.0945226 0
0.766925 -0.222726 0
1.71063 0.267365 0
0.88353 0.00417562 0
0.875154 0.0195064 0
1.03254 0.0316148 0
1.43591 -0.0111903 0
1.30371 -0.231432 0
1.7888 -0.250036 0
1.11303 0.0247633 0
1.12979 0.0106137 0
2.10307 0.00337207 0
0.475684 -0.376849 0
0.944446 -0.0399933 0
0.944295 -0.11667 0
0.996787 0.0166931 0
0.963077 -0.0151944 0
0.744058 0.0188266 0
0.112706 0.0656999 0
0.37465 -0.660487 0
0.57474 0.0879846 0
0.923417 0.025736 0
2.41425 0.00378106 0
0.895017 -0.0045426 0
0.91316 -0.0135679 0
1.0973 -0.00244563 0
0.0920553 0.316092 0
0.188434 0.372561 0
1.38871 -0.296526 0
0.892836 0.00781745 0
0.463888 0.134686 0
2.27045 -0.180917 0
0.999515 -0.0407178 0
1.06244 -0.217813 0
1.25024 -0.206546 0
0.912423 0.0160129 0
0.692266 0.455486 0
0.76761 0.0794504 0
0.998364 -0.0594455 0
0.449032 0.188997 0
0.794627 0.070218 0
1.14484 -0.0588945 0
0.926717 -0.000153462 0
0.952022 -0.0123479 0
1.01034 -0.0168083 0
1.06039 -0.00871371 0
0.994642 0.0183008 0
0.897113 0.00368514 0
0.823874 0.0129467 0
1.07989 -0.046573 0
0.939841 -0.0566378 0
0.770872 -0.0282427 0
0.740758 -0.0319778 0
0.706651 -0.0361958 0
0.901986 -0.0932808 0
0.889154 -0.105629 0
0.690739 -0.0877948 0
0.874605 -0.119604 0
0.858111 -0.135425 0
0.368912 0.0649528 0
1.13863 0.0389143 0
1.21208 0.0177277 0
0.84203 0.00982332 0
1.43103 0.0201834 0
-0.0900532 -0.0496656 0
1.18281 0.291946 0
1.33603 0.209577 0
1.33253 0.0917809 0
1.1798 0.113225 0
1.27623 0.0329478 0
1.08131 0.409371 0
-0.299584 -0.221453 0
0.892342 0.026483 0
0.873095 -0.00116973 0
0.899646 -0.000906601 0
0.966765 -0.0296292 0
1.04309 -0.0356101 0
1.07663 -0.019006 0
0.810299 0.273673 0
1.04073 0.216559 0
1.12907 0.0609592 0
1.09149 -0.00906773 0
1.10381 0.000900432 0
0.632176 0.320823 0
0.993334 -0.0403144 0
0.288166 0.137737 0
0.872323 0.0565408 0
-0.0753495 -0.305801 0
1.15219 -0.125476 0
0.615401 0.0392093 0
0.860221 0.0086535 0
0.973516 0.0749882 0
0.944813 0.0690163 0
1.03356 -0.116883 0
1.21516 0.0258537 0
1.97915 -0.148513 0
0.831401 0.211446 0
0.878316 0.0300847 0
1.10462 -0.086337 0
1.23562 -0.0613134 0
1.57004 0.121854 0
1.02883 0.0160307 0
0.868107 0.00474162 0
0.774033 0.0166192 0
0.0316944 0.034151 0
2.76472 0.472337 0
0.8073 -0.401818 0
-0.303347 -0.159852 0
0.889965 -0.0131304 0
0.933618 -0.0224784 0
0.961945 -0.0216223 0
1.81729 -0.214499 0
1.08859 0.0420691 0
1.18607 0.0149953 0
1.05313 0.0530756 0
1.02795 0.051223 0
1.14447 0.0319764 0
0.838099 -0.00152432 0
0.98735 0.0350936 0
1.11582 0.0192988 0
0.945347 0.0293691 0
2.50609 -0.0370577 0
1.12578 0.00559761 0
1.1319 -0.156223 0
1.05358 0.0244596 0
1.89998 0.24714 0
1.55774 0.347816 0
0.468001 -0.194619 0
1.4389 -0.114636 0
1.59284 0.00205772 0
1.85308 0.39279 0
0.967039 -0.232336 0
0.936646 0.0254733 0
0.87621 0.00760176 0
0.95107 -0.030293 0
0.956502 -0.0261575 0
0.758721 0.353558 0
0.859953 -0.0233421 0
1.4903 0.305664 0
0.970988 -0.205108 0
-0.0106421 -0.0691816 0
0.508074 -0.00446073 0
1.20625 0.208722 0
0.994039 -0.125394 0
1.59875 -0.200166 0
1.57726 0.268164 0
0.651781 -0.226112 0
2.11513 -0.376034 0
0.64263 0.448108 0
0.368189 0.285346 0
2.27273 -0.417189 0
2.09948 -0.120453 0
0.211274 0.0499966 0
0.6527 0.193076 0
0.88982 0.683344 0
0.90368 0.0196533 0
1.16971 -0.0180789 0
1.11825 -0.0393242 0
1.09571 0.177851 0
1.99181 -0.14089 0
-0.147357 -0.194592 0
1.51829 -0.304372 0
1.61937 0.169734 0
1.15712 0.0440138 0
1.19202 -0.111909 0
1.07511 0.122552 0
0.897503 -0.00328891 0
0.808299 0.00690155 0
0.914224 -0.645901 0
1.10262 0.0168637 0
1.10716 -0.0198713 0
1.15768 0.293221 0
0.393301 0.152782 0
0.0313833 -0.0335928 0
0.80117 -0.0146978 0
0.952702 -0.0134936 0
1.06315 0.00845368 0
0.594994 0.0144839 0
0.834816 -0.107299 0
1.13312 -0.0197807 0
1.10999 -0.034422 0
1.0916 0.000813732 0
1.07802 0.0167143 0
1.09099 0.0066168 0
0.858339 0.0484291 0
1.18357 -0.00471923 0
1.86423 -0.497643 0
1.04726 0.0216329 0
0.753821 -0.512029 0
1.17892 0.332665 0
0.672119 -0.0242324 0
1.39237 0.651939 0
2.22801 -0.073504 0
1.40256 -0.024907 0
1.09469 -0.0175586 0
1.55408 -0.0176647 0
0.911978 -0.0455561 0
-0.0115406 0.212335 0
0.754588 0.102071 0
-0.0322859 0.359731 0
0.459779 -0.0399406 0
0.595119 -0.0145225 0
0.916042 0.00592123 0
0.878729 0.00886744 0
-0.816906 0.403909 0
0.876845 0.0253886 0
0.444614 0.107104 0
1.38514 -0.00991512 0
1.08645 -0.0266067 0
2.18504 0.267387 0
0.397641 -0.220504 0
1.14165 0.227076 0
1.81493 0.401034 0
1.20667 0.1006 0
1.27873 -0.162664 0
1.0488 -0.169772 0
0.455687 -0.0918704 0
0.411252 -0.0210045 0
0.83122 -0.00612246 0
1.01523 -0.0168579 0
-1.12603 -0.284007 0
1.43434 0.212312 0
1.29733 0.0138173 0
1.22487 -0.0321234 0
1.41377 -0.0786367 0
-0.0363147 -0.00794491 0
1.3208 -0.26526 0
0.25052 0.315291 0
1.63334 0.397412 0
1.01163 -0.0428568 0
1.09919 0.00410323 0
0.800933 -0.139563 0
0.974433 -0.181098 0
1.31927 -0.0482038 0
-0.658481 -0.12074 0
0.905175 -0.00593399 0
-0.00491968 0.0745905 0
2.30533 0.546927 0
0.907624 0.598991 0
1.03678 0.0361924 0
1.36852 -0.0527707 0
1.14515 -0.110442 0
1.67366 -0.102151 0
1.52126 -0.0567873 0
1.24123 0.112635 0
1.27029 0.430534 0
1.23664 0.37785 0
0.915511 0.0203241 0
1.26795 0.059689 0
0.917807 -0.0584443 0
0.725905 -0.139654 0
0.951058 -0.103058 0
0.978251 0.0240974 0
0.844503 0.0114233 0
0.414367 0.641634 0
-0.0333299 -0.52133 0
0.624626 -0.0633623 0
1.08458 0.157039 0
0.338405 0.278 0
0.661391 -0.32408 0
0.493511 -0.329187 0
2.01918 0.280624 0
1.26418 0.0984696 0
0.882774 0.166239 0
1.02374 0.132226 0
0.105945 -0.285741 0
1.12477 0.20056 0
0.383806 -0.103997 0
0.249446 -0.0342114 0
-0.807095 -0.0612219 0
3.06807 -0.352751 0
-1.23397 0.145305 0
1.88288 0.612404 0
1.15085 -0.0225259 0
1.19231 -0.0205666 0
1.06317 -0.0523165 0
1.10279 -0.0599175 0
0.776479 -0.0815757 0
0.668024 -0.0409591 0
0.575161 -0.071716 0
0.676067 -0.118371 0
0.519139 -0.0811685 0
0.482646 -0.0237076 0
0.509373 0.0944919 0
0.581376 0.10479 0
1.13905 0.258634 0
2.32935 -0.0323777 0
2.31329 0.0645583 0
0.771419 0.0142797 0
0.985743 0.0399905 0
1.06817 0.0324763 0
1.25945 -0.082435 0
2.26228 -0.237723 0
1.37571 -0.119403 0
1.2098 -0.159994 0
1.80502 0.303452 0
1.03523 -0.0396409 0
-0.0368078 0.108258 0
1.56267 -0.147192 0
2.08512 0.126807 0
1.9363 0.200892 0
1.74403 0.346419 0
1.50454 0.0393241 0
1.44472 0.0952754 0
1.30618 0.0659976 0
-0.584578 -0.0759822 0
1.04512 0.0749255 0
1.03971 0.0662269 0
0.847632 -0.313744 0
2.34559 -0.355073 0
1.11386 0.0538909 0
0.886469 -0.0585113 0
0.928046 -0.149451 0
1.31554 -0.184281 0
1.36396 -0.121484 0
1.05522 -0.192285 0
0.811817 -0.096267 0
0.80038 0.171062 0
0.658336 0.151946 0
1.34232 -0.0892747 0
1.25052 -0.0835444 0
1.13435 -0.110782 0
1.11858 -0.0978029 0
1.04331 0.0174736 0
0.642645 -0.0128363 0
0.968001 -0.0150191 0
1.01189 0.0160452 0
0.980851 0.0151539 0
0.952874 0.0115385 0
0.965315 0.0142182 0
0.933231 0.00698626 0
0.924033 0.00379721 0
0.753995 0.00884333 0
0.721328 0.0100073 0
0.684333 0.0113221 0
0.710118 0.0213259 0
0.480445 0.0185135 0
0.411568 0.0209258 0
0.33357 0.0236503 0
0.388798 0.0450517 0
0.245228 0.02673 0
0.145141 0.0302158 0
-0.0970136 0.0386228 0
-0.598034 0.055904 0
-1.08305 0.280264 0
2.36607 0.572976 0
0.910712 -0.057588 0
0.747081 -0.0923578 0
0.883703 0.145462 0
1.3837 0.187415 0
1.56318 0.126049 0
0.792971 -0.00196651 0
0.820915 -0.022002 0
0.867909 0.0548379 0
1.21413 0.0364332 0
1.26274 0.0121878 0
1.2423 0.0412732 0
1.30732 0.0257713 0
1.35569 -0.0220394 0
1.34783 0.0291945 0
1.22937 -0.0728239 0
1.29351 -0.0932927 0
1.31369 -0.37043 0
1.30326 0.0675972 0
1.62741 -0.02007 0
-0.507968 0.157058 0
1.09548 -0.01329 0
1.03791 -0.031128 0
0.937938 -0.0394304 0
1.31688 -0.034246 0
0.918338 -0.169108 0
1.26074 0.490601 0
0.284696 0.325169 0
1.0745 0.0205823 0
1.03962 -0.0450173 0
1.04456 -0.0510468 0
0.971155 -0.062637 0
1.29893 0.111523 0
0.376444 0.214369 0
1.13279 0.00100546 0
0.692617 -0.199642 0
0.301293 -0.0856688 0
0.921602 0.0134453 0
0.523133 -0.0352477 0
0.62849 -0.0274563 0
0.710641 -0.0213866 0
1.06983 -0.00589179 0
1.0407 0.0133014 0
0.782837 0.0078132 0
0.442437 0.0572097 0
0.526259 0.11878 0
0.685557 0.130927 0
0.936751 0.179031 0
0.337059 -0.0302723 0
1.16107 0.162682 0
1.18225 0.184256 0
1.29954 0.146094 0
1.43307 0.162084 0
1.49005 0.183629 0
1.1227 0.228225 0
1.73752 0.127203 0
1.9059 0.0437665 0
0.617074 0.0736123 0
0.792721 0.0210112 0
0.844338 0.0386769 0
0.979359 0.0584461 0
1.06008 0.0601488 0
1.09849 0.0476522 0
1.14245 0.0528467 0
1.16116 0.0598618 0
1.07686 0.0771628 0
1.28551 -0.0543108 0
0.966347 0.0417756 0
0.970207 0.036725 0
1.01933 0.034828 0
1.23685 -0.096768 0
0.928553 0.0291086 0
0.97356 0.0321852 0
1.26795 -0.109496 0
1.33206 -0.105556 0
1.41704 -0.0596964 0
1.11669 -0.138077 0
2.35832 0.116351 0
2.36889 0.238999 0
1.71601 0.351726 0
1.01704 0.0303368 0
0.809271 0.239648 0
0.896992 0.295386 0
0.555588 0.248274 0
0.120282 0.223321 0
-0.0115914 0.0643716 0
-0.015362 -0.124052 0
1.76296 -0.115706 0
0.431174 0.319621 0
0.348128 -0.184653 0
1.41217 -0.137619 0
1.10045 -0.0404665 0
1.62493 0.0296522 0
1.34323 0.0765571 0
1.18263 0.0888429 0
1.14916 -0.176724 0
0.991875 -0.16059 0
0.980793 -0.0429924 0
0.977988 -0.0487824 0
1.19519 -0.160964 0
-0.280225 0.325361 0
1.05166 0.0955283 0
1.16139 0.0784596 0
0.929244 0.0884907 0
0.834592 0.0913833 0
0.735909 0.0506899 0
0.984201 -0.29768 0
0.850502 0.0621001 0
1.32138 -0.107238 0
1.21745 -0.126767 0
0.758127 -0.123378 0
0.849397 -0.00680675 0
2.63103 -0.2327 0
0.302366 -0.117755 0
0.491854 -0.144056 0
0.989805 0.0265233 0
-1.05137 -0.0588201 0
0.388036 -0.0452672 0
0.997552 -0.0165185 0
1.02857 -0.0163078 0
1.06995 -0.00142078 0
0.919436 0.00266012 0
-0.824127 0.398674 0
1.03129 0.0187208 0
1.0658 0.0422207 0
1.0953 0.0267742 0
1.16756 0.0202723 0
1.23347 0.236487 0
1.87629 -0.124565 0
2.12263 -0.15953 0
2.01017 -0.321127 0
1.12192 -0.0171138 0
1.3103 0.0529612 0
1.02867 0.027182 0
0.982361 -0.337204 0
0.756025 0.308196 0
-0.150334 -0.140643 0
1.71041 -0.0227657 0
2.16778 -0.0371106 0
0.902274 0.00572406 0
1.55698 0.272706 0
0.913167 -0.00923128 0
0.900015 -0.0516419 0
1.2389 0.0190769 0
0.863417 -0.0961905 0
1.23159 -0.00701538 0
0.860585 0.0287833 0
0.210086 -0.133389 0
0.424499 -0.163077 0
1.14663 0.0121157 0
0.905369 0.00688109 0
0.850612 0.00537897 0
3.30633 0.223475 0
0.858659 0.0221217 0
0.443813 0.593974 0
1.95815 -0.0577076 0
1.98495 -0.185449 0
1.25439 -0.0363829 0
1.08712 0.031868 0
1.06042 0.0283573 0
1.38084 0.0177783 0
1.12844 -0.0975686 0
1.13292 -0.00814942 0
1.35117 0.0599996 0
-0.398767 -0.0647671 0
1.95819 0.111848 0
2.22917 0.143958 0
1.16237 -0.00417209 0
2.43033 -0.269875 0
0.919469 -0.0217636 0
0.530347 0.417611 0
1.07037 0.359154 0
-0.472122 -0.250146 0
1.74942 -0.443998 0
1.08099 -0.0952273 0
1.18514 -0.0755263 0
1.09305 -0.00540927 0
0.506319 0.220975 0
-0.885459 -0.127575 0
0.579082 -0.0311087 0
0.744651 -0.0188743 0
-0.4431 0.510152 0
-1.33101 -0.00568931 0
-0.51391 0.52735 0
0.381545 0.665878 0
1.41897 0.67194 0
0.917176 0.658776 0
3.0985 0.335733 0
2.69762 0.432153 0
3.29706 -0.215203 0
0.902348 0.0150963 0
1.19306 0.00119794 0
0.885908 -0.073905 0
0.797584 -0.0340429 0
0.633343 -0.134012 0
1.339 0.165462 0
1.49761 0.111264 0
2.0601 0.0905957 0
0.782287 -0.00996194 0
0.838936 0.0308199 0
0.976621 0.0662127 0
1.0404 0.0745052 0
0.930332 0.0381046 0
2.53844 0.132322 0
1.91321 0.345195 0
0.980487 -0.38157 0
0.415708 0.245055 0
0.0870814 0.177197 0
0.163248 -0.237041 0
1.82698 0.177042 0
2.24898 0.00372828 0
1.49694 -0.129895 0
0.873147 0.0126723 0
1.43626 0.448354 0
0.354462 -0.335645 0
1.08931 0.462309 0
0.91606 -0.0298188 0
0.944927 -0.0346366 0
0.994829 -0.0267286 0
1.29728 -0.00917106 0
1.27973 -0.0301619 0
1.23347 0.0869486 0
1.42512 -0.13504 0
0.859843 -0.017082 0
0.960586 0.0547592 0
0.998824 -0.0524519 0
0.929989 -0.0447859 0
1.24788 0.00135928 0
0.853854 0.0807062 0
0.774477 0.0561917 0
0.783195 0.0901413 0
1.16049 0.00734311 0
1.01414 0.0229639 0
0.885904 0.0629418 0
1.2742 0.0467527 0
2.05158 -0.425572 0
0.976344 0.0281003 0
0.318878 -0.486291 0
1.38763 -0.101167 0
-0.0989889 -0.0348545 0
0.144583 -0.0305308 0
0.244385 -0.0267913 0
0.33303 -0.0237487 0
0.306774 -0.0512966 0
0.480315 -0.018577 0
0.541287 -0.0164267 0
0.684602 -0.0113434 0
0.721641 -0.0100222 0
0.754337 -0.00885318 0
0.783197 -0.00781877 0
0.808672 -0.00690994 0
0.98129 -0.0172248 0
0.216446 0.0578975 0
0.889684 -0.691968 0
1.14788 0.0179409 0
0.668307 -0.0559771 0
0.566563 0.0833904 0
0.644079 0.148328 0
0.760239 0.132722 0
1.73126 0.0620198 0
2.17419 -0.0286288 0
0.630086 0.0924747 0
1.81636 -0.332149 0
1.16408 -0.12499 0
1.11289 -0.00295951 0
1.07632 -0.0233679 0
1.35485 -0.42013 0
0.261521 -0.20915 0
0.552945 -0.290265 0
1.76002 0.00241321 0
2.06018 0.228138 0
1.4496 0.208658 0
1.59486 -0.0901762 0
-0.330411 0.13892 0
2.59979 0.00247972 0
1.46033 -0.0500608 0
0.943237 0.0793851 0
1.16873 -0.199885 0
0.601857 -0.202616 0
0.737069 0.0898873 0
0.974801 -0.0552806 0
-0.506262 0.291166 0
1.76406 0.559776 0
0.11038 -0.0647043 0
0.774674 -0.0166562 0
0.824581 -0.0130162 0
-0.0534441 0.603654 0
1.33617 0.610791 0
1.05803 0.0372288 0
1.20438 -0.00612562 0
1.09063 -0.0528418 0
0.932084 -0.0641891 0
0.740946 -0.0436715 0
0.854022 -0.094769 0
0.574726 -0.052412 0
0.944102 0.158066 0
0.852552 -0.0416473 0
1.18355 -0.0476923 0
1.63739 0.142806 0
1.84647 -0.0512165 0
2.02523 0.049856 0
1.27155 0.0227521 0
1.24546 -0.0152181 0
1.22305 -0.042373 0