# vtk DataFile Version 3.0
Malha 2D com triângulos: velocidade e pressão
ASCII
DATASET UNSTRUCTURED_GRID

POINTS 2064 double
-0.5 0 0
1.5 0 0
1.5 2 0
-0.5 2 0
-0.45122 0 0
-0.402439 0 0
-0.353659 0 0
-0.304878 0 0
-0.256098 0 0
-0.207317 0 0
-0.158537 0 0
-0.109756 0 0
-0.0609756 0 0
-0.0121951 0 0
0.0365854 0 0
0.0853659 0 0
0.134146 0 0
0.182927 0 0
0.231707 0 0
0.280488 0 0
0.329268 0 0
0.378049 0 0
0.426829 0 0
0.47561 0 0
0.52439 0 0
0.573171 0 0
0.621951 0 0
0.670732 0 0
0.719512 0 0
0.768293 0 0
0.817073 0 0
0.865854 0 0
0.914634 0 0
0.963415 0 0
1.0122 0 0
1.06098 0 0
1.10976 0 0
1.15854 0 0
1.20732 0 0
1.2561 0 0
1.30488 0 0
1.35366 0 0
1.40244 0 0
1.45122 0 0
1.5 0.0487805 0
1.5 0.097561 0
1.5 0.146341 0
1.5 0.195122 0
1.5 0.243902 0
1.5 0.292683 0
1.5 0.341463 0
1.5 0.390244 0
1.5 0.439024 0
1.5 0.487805 0
1.5 0.536585 0
1.5 0.585366 0
1.5 0.634146 0
1.5 0.682927 0
1.5 0.731707 0
1.5 0.780488 0
1.5 0.829268 0
1.5 0.878049 0
1.5 0.926829 0
1.5 0.97561 0
1.5 1.02439 0
1.5 1.07317 0
1.5 1.12195 0
1.5 1.17073 0
1.5 1.21951 0
1.5 1.26829 0
1.5 1.31707 0
1.5 1.36585 0
1.5 1.41463 0
1.5 1.46341 0
1.5 1.5122 0
1.5 1.56098 0
1.5 1.60976 0
1.5 1.65854 0
1.5 1.70732 0
1.5 1.7561 0
1.5 1.80488 0
1.5 1.85366 0
1.5 1.90244 0
1.5 1.95122 0
1.45122 2 0
1.40244 2 0
1.35366 2 0
1.30488 2 0
1.2561 2 0
1.20732 2 0
1.15854 2 0
1.10976 2 0
1.06098 2 0
1.0122 2 0
0.963415 2 0
0.914634 2 0
0.865854 2 0
0.817073 2 0
0.768293 2 0
0.719512 2 0
0.670732 2 0
0.621951 2 0
0.573171 2 0
0.52439 2 0
0.47561 2 0
0.426829 2 0
0.378049 2 0
0.329268 2 0
0.280488 2 0
0.231707 2 0
0.182927 2 0
0.134146 2 0
0.0853659 2 0
0.0365854 2 0
-0.0121951 2 0
-0.0609756 2 0
-0.109756 2 0
-0.158537 2 0
-0.207317 2 0
-0.256098 2 0
-0.304878 2 0
-0.353659 2 0
-0.402439 2 0
-0.45122 2 0
-0.5 1.95122 0
-0.5 1.90244 0
-0.5 1.85366 0
-0.5 1.80488 0
-0.5 1.7561 0
-0.5 1.70732 0
-0.5 1.65854 0
-0.5 1.60976 0
-0.5 1.56098 0
-0.5 1.5122 0
-0.5 1.46341 0
-0.5 1.41463 0
-0.5 1.36585 0
-0.5 1.31707 0
-0.5 1.26829 0
-0.5 1.21951 0
-0.5 1.17073 0
-0.5 1.12195 0
-0.5 1.07317 0
-0.5 1.02439 0
-0.5 0.97561 0
-0.5 0.926829 0
-0.5 0.878049 0
-0.5 0.829268 0
-0.5 0.780488 0
-0.5 0.731707 0
-0.5 0.682927 0
-0.5 0.634146 0
-0.5 0.585366 0
-0.5 0.536585 0
-0.5 0.487805 0
-0.5 0.439024 0
-0.5 0.390244 0
-0.5 0.341463 0
-0.5 0.292683 0
-0.5 0.243902 0
-0.5 0.195122 0
-0.5 0.146341 0
-0.5 0.097561 0
-0.5 0.0487805 0
-0.457755 1 0
1.46057 1.00082 0
0.506404 0.0463622 0
0.50514 1.95406 0
-0.457755 1.2439 0
0.257943 0.0437775 0
0.744918 1.96355 0
1.45775 0.756098 0
0.257959 1.95297 0
1.45775 1.2439 0
-0.457755 0.756098 0
0.744918 0.0364463 0
0.00924843 1.9535 0
1.46057 1.48863 0
-0.457755 0.512195 0
0.991014 0.0438483 0
-0.457755 1.4878 0
0.991014 1.95615 0
0.0100602 0.0492357 0
1.45775 0.512195 0
1.46057 1.68211 0
-0.182927 1.95775 0
-0.457755 0.317073 0
1.1872 0.0492008 0
1.18293 1.95775 0
-0.457755 1.68293 0
1.46097 0.318614 0
-0.182927 0.0422451 0
-0.330019 1.95578 0
1.46381 1.82766 0
-0.459787 0.169266 0
1.33137 0.0437443 0
1.32927 1.95775 0
-0.457755 1.82927 0
1.45709 0.171717 0
-0.330312 0.0433024 0
-0.457755 1.09756 0
0.650669 1.95607 0
-0.457755 1.58537 0
-0.457755 1.39024 0
1.46059 0.852837 0
0.403309 0.041478 0
0.650669 0.0439328 0
0.354529 1.96148 0
-0.457755 0.853659 0
1.45775 1.14634 0
0.885657 1.95623 0
0.107691 1.96028 0
1.08537 1.95775 0
0.109756 0.0422451 0
1.46381 0.611366 0
1.45775 1.58537 0
-0.457755 0.414634 0
1.45243 0.413254 0
1.08537 0.0422451 0
0.885657 0.0437703 0
-0.457755 0.609756 0
-0.0814452 1.95349 0
1.46057 1.34064 0
-0.0864342 0.0386062 0
1.42263 1.95327 0
-0.42235 1.95582 0
-0.459558 0.0726595 0
1.42706 0.047123 0
-0.457755 1.34146 0
-0.41551 1.36585 0
-0.41551 1.41463 0
-0.373265 1.39024 0
-0.373265 1.43902 0
-0.331019 1.41463 0
-0.331019 1.46341 0
-0.288774 1.43902 0
-0.288774 1.39024 0
-0.246529 1.41463 0
-0.246529 1.36585 0
-0.204284 1.39024 0
-0.204284 1.34146 0
-0.162039 1.36585 0
-0.162039 1.31707 0
-0.119794 1.34146 0
-0.119794 1.29268 0
-0.0775486 1.31707 0
-0.0775486 1.26829 0
-0.0353034 1.29268 0
-0.0353034 1.2439 0
0.0069417 1.26829 0
0.0069417 1.21951 0
0.0491868 1.2439 0
0.0491868 1.19512 0
0.091432 1.21951 0
0.091432 1.17073 0
0.133677 1.19512 0
0.133677 1.14634 0
0.175922 1.17073 0
0.175922 1.12195 0
0.218167 1.14634 0
0.218167 1.09756 0
0.260413 1.12195 0
0.260413 1.07317 0
0.302658 1.09756 0
0.302658 1.04878 0
0.344903 1.07317 0
0.344903 1.02439 0
0.387148 1.04878 0
0.387148 1 0
0.429393 1.02439 0
0.302658 1 0
0.429393 0.97561 0
0.471638 1 0
0.471638 1.04878 0
0.471638 0.95122 0
0.513883 0.97561 0
0.513883 0.926829 0
0.556129 0.95122 0
0.556129 0.902439 0
0.513883 0.878049 0
0.556129 0.853659 0
0.302658 1.14634 0
0.598374 0.926829 0
0.513883 0.829268 0
0.556129 0.804878 0
0.513883 0.780488 0
0.133677 1.09756 0
0.133677 1.2439 0
0.556129 0.756098 0
0.513883 0.731707 0
0.556129 0.707317 0
0.598374 0.731707 0
0.513883 0.682927 0
0.598374 0.682927 0
0.640619 0.707317 0
0.640619 0.658537 0
0.682864 0.682927 0
-0.0353034 1.34146 0
0.682864 0.634146 0
0.725109 0.658537 0
0.725109 0.609756 0
0.767354 0.634146 0
0.682864 0.585366 0
0.767354 0.585366 0
0.809599 0.609756 0
0.809599 0.658537 0
0.851845 0.634146 0
0.851845 0.682927 0
0.851845 0.585366 0
0.471638 0.707317 0
0.471638 0.658537 0
0.429393 0.682927 0
0.429393 0.634146 0
0.387148 0.658537 0
0.387148 0.609756 0
0.344903 0.634146 0
0.344903 0.585366 0
0.302658 0.609756 0
0.89409 0.658537 0
0.89409 0.707317 0
0.302658 0.560976 0
0.260413 0.585366 0
-0.204284 1.43902 0
0.387148 0.560976 0
-0.0353034 1.19512 0
0.936335 0.682927 0
0.936335 0.731707 0
0.260413 0.536585 0
0.218167 0.560976 0
0.218167 0.609756 0
0.175922 0.585366 0
0.175922 0.536585 0
0.133677 0.560976 0
0.133677 0.609756 0
0.091432 0.585366 0
0.091432 0.634146 0
0.091432 0.536585 0
0.0491868 0.560976 0
0.0491868 0.512195 0
0.598374 0.97561 0
0.97858 0.707317 0
0.97858 0.756098 0
0.97858 0.658537 0
0.0069417 0.536585 0
0.0069417 0.487805 0
0.0491868 0.463415 0
1.02083 0.682927 0
1.02083 0.634146 0
0.936335 0.780488 0
0.97858 0.804878 0
0.936335 0.829268 0
0.97858 0.853659 0
0.936335 0.878049 0
0.97858 0.902439 0
0.936335 0.926829 0
0.97858 0.95122 0
0.936335 0.97561 0
0.97858 1 0
0.936335 1.02439 0
0.97858 1.04878 0
0.936335 1.07317 0
0.97858 1.09756 0
0.936335 1.12195 0
0.97858 1.14634 0
0.936335 1.17073 0
0.97858 1.19512 0
0.936335 1.21951 0
0.97858 1.2439 0
0.936335 1.26829 0
0.97858 1.29268 0
0.936335 1.31707 0
0.97858 1.34146 0
0.936335 1.36585 0
0.97858 1.39024 0
0.89409 1.34146 0
0.89409 1.39024 0
0.851845 1.36585 0
0.851845 1.41463 0
0.809599 1.39024 0
0.809599 1.43902 0
0.767354 1.41463 0
0.767354 1.46341 0
0.725109 1.43902 0
0.725109 1.4878 0
0.682864 1.46341 0
0.809599 1.4878 0
0.682864 1.5122 0
0.640619 1.4878 0
0.640619 1.53659 0
0.598374 1.5122 0
1.02083 0.926829 0
1.02083 1.07317 0
0.598374 1.46341 0
0.556129 1.4878 0
0.556129 1.53659 0
0.513883 1.5122 0
1.02083 1.21951 0
1.02083 1.36585 0
1.02083 1.41463 0
0.513883 1.56098 0
0.471638 1.53659 0
0.767354 1.36585 0
0.682864 1.56098 0
-0.0353034 0.512195 0
-0.0353034 0.560976 0
-0.0353034 0.463415 0
1.06307 0.658537 0
1.06307 0.609756 0
1.06307 1.39024 0
1.06307 1.43902 0
0.471638 1.58537 0
0.429393 1.56098 0
0.429393 1.5122 0
0.387148 1.53659 0
0.387148 1.58537 0
0.344903 1.56098 0
0.556129 1.43902 0
0.89409 1.14634 0
-0.162039 1.26829 0
-0.0775486 0.487805 0
-0.0775486 0.439024 0
0.513883 1.60976 0
0.344903 1.60976 0
0.302658 1.58537 0
1.10532 1.41463 0
1.10532 1.46341 0
1.06307 1.4878 0
1.10532 1.5122 0
1.06307 1.53659 0
1.10532 1.56098 0
1.06307 1.58537 0
1.10532 1.60976 0
0.387148 1.4878 0
1.10532 0.634146 0
1.10532 0.585366 0
1.06307 0.560976 0
1.10532 0.536585 0
1.06307 0.512195 0
1.10532 0.487805 0
1.06307 0.463415 0
1.10532 0.439024 0
1.06307 0.414634 0
1.10532 0.390244 0
1.10532 0.682927 0
0.302658 1.63415 0
0.260413 1.60976 0
0.260413 1.56098 0
0.218167 1.58537 0
0.218167 1.63415 0
0.175922 1.60976 0
-0.119794 0.463415 0
-0.119794 0.414634 0
-0.0775486 0.390244 0
-0.119794 0.365854 0
1.06307 1.63415 0
1.06307 0.365854 0
1.02083 0.390244 0
0.344903 0.682927 0
0.344903 1.65854 0
1.02083 0.341463 0
0.97858 0.365854 0
-0.0775486 0.341463 0
1.10532 1.65854 0
1.10532 0.341463 0
0.175922 1.65854 0
0.133677 1.63415 0
1.14756 1.43902 0
1.14756 1.39024 0
1.14756 0.365854 0
1.14756 0.658537 0
1.14756 0.707317 0
1.14756 1.63415 0
0.89409 0.853659 0
0.218167 1.53659 0
1.14756 0.512195 0
0.89409 1 0
-0.162039 0.390244 0
-0.162039 0.341463 0
0.133677 1.68293 0
0.091432 1.65854 0
0.091432 1.60976 0
0.0491868 1.63415 0
1.14756 1.68293 0
1.14756 0.317073 0
0.97858 0.317073 0
0.936335 0.341463 0
0.0491868 1.68293 0
0.0069417 1.65854 0
1.06307 1.68293 0
1.02083 1.65854 0
0.0069417 1.60976 0
-0.0353034 1.63415 0
-0.0353034 1.68293 0
-0.0775486 1.65854 0
1.18981 0.682927 0
1.18981 0.731707 0
1.18981 1.41463 0
1.18981 1.36585 0
-0.0775486 1.70732 0
-0.119794 1.68293 0
1.18981 0.341463 0
1.18981 0.292683 0
1.18981 1.65854 0
1.18981 1.70732 0
0.682864 0.731707 0
0.175922 1.70732 0
1.02083 1.70732 0
0.97858 1.68293 0
0.936335 0.292683 0
0.89409 0.317073 0
0.640619 0.95122 0
0.640619 1 0
-0.204284 0.365854 0
-0.204284 0.317073 0
0.89409 0.268293 0
0.851845 0.292683 0
0.851845 0.341463 0
0.809599 0.317073 0
0.97858 0.268293 0
0.97858 1.73171 0
0.936335 1.70732 0
0.809599 0.268293 0
0.767354 0.292683 0
0.767354 0.341463 0
0.725109 0.317073 0
0.725109 0.268293 0
0.682864 0.292683 0
0.682864 0.341463 0
0.640619 0.317073 0
0.640619 0.365854 0
0.598374 0.341463 0
0.598374 0.390244 0
0.556129 0.365854 0
0.556129 0.317073 0
0.513883 0.341463 0
0.513883 0.292683 0
0.471638 0.317073 0
0.471638 0.268293 0
0.429393 0.292683 0
-0.119794 1.73171 0
-0.162039 1.70732 0
1.14756 0.268293 0
1.23205 0.707317 0
1.23205 0.756098 0
1.23205 0.658537 0
1.23205 1.39024 0
1.23205 1.34146 0
1.23205 1.43902 0
0.556129 0.414634 0
1.18981 0.780488 0
1.23205 0.804878 0
0.429393 0.341463 0
0.387148 0.317073 0
0.387148 0.268293 0
0.344903 0.292683 0
-0.162039 1.65854 0
-0.204284 1.68293 0
[...]
CELL_DATA 3962
VECTORS velocity double
-0.445608 -0.0867446 0
0.898574 -0.0146499 0
0.803504 0.0217752 0
0.803465 -0.0216769 0
0.895617 -0.0110037 0
0.726647 0.030996 0
0.726201 -0.0309497 0
0.816339 0.0266266 0
0.815976 -0.0266567 0
-0.42885 0.19993 0
0.38319 0.161265 0
0.852051 0.0166201 0
0.852015 -0.0165925 0
0.649449 0.0483394 0
0.650271 -0.0474076 0
0.203763 -0.0900651 0
0.725625 0.0372679 0
0.725205 -0.0373358 0
0.919061 -0.00860126 0
0.874694 0.0138433 0
0.874662 -0.0137242 0
-0.244621 0.13835 0
-0.247775 -0.13867 0
0.665982 -0.0868368 0
-0.886784 0.25357 0
0.883657 0.0166322 0
-0.53895 0.145337 0
0.651513 -0.0925941 0
0.851322 0.0202879 0
0.851352 -0.0202547 0
0.638328 0.0355603 0
0.639004 -0.0352344 0
0.35417 0.171401 0
-0.380131 -0.143644 0
0.508399 -0.0688865 0
-0.52869 -0.0474972 0
-0.904386 -0.246851 0
-0.0169542 0.139538 0
0.201148 -0.108828 0
0.918667 -0.0105785 0
0.930274 0.0151483 0
0.882759 -0.0167114 0
1.01802 0.0175562 0
1.01993 0.018225 0
0.96327 0.0178774 0
0.962985 0.0166015 0
1.05926 0.0124449 0
1.05846 0.0114109 0
0.939952 0.0175237 0
0.0916254 0.129592 0
0.330889 0.132244 0
-0.162649 0.167137 0
-0.159219 -0.162119 0
-0.937373 0.183219 0
-0.950789 -0.176179 0
0.447095 -0.0745414 0
0.323713 -0.518864 0
0.634659 0.052892 0
0.909116 -0.0133274 0
-0.687952 0.232475 0
0.108087 -0.136052 0
0.0820572 -0.472341 0
0.453283 0.080912 0
-0.699719 -0.226933 0
-0.25715 0.167039 0
-0.256825 -0.167636 0
0.468677 -0.0501577 0
0.68771 0.044236 0
0.688358 -0.0442628 0
-0.854148 -0.366858 0
-0.0594358 -0.396536 0
-0.0658778 -0.550468 0
-0.603952 0.217083 0
-0.610067 -0.216975 0
0.834308 0.0241814 0
0.834006 -0.0242943 0
-0.0248687 -0.521792 0
0.873364 0.0168126 0
0.873193 -0.016751 0
0.256325 -0.103241 0
-0.0464492 0.101751 0
0.799532 0.0267543 0
0.799228 -0.0265934 0
0.923705 -0.0101001 0
0.64054 -0.073441 0
0.901656 -0.00989693 0
-0.602876 -0.431931 0
0.424998 0.0828101 0
0.420872 -0.0798698 0
0.702422 0.044042 0
0.70251 -0.043879 0
-0.978096 0.27607 0
0.930549 0.00849666 0
0.917732 -0.552701 0
0.635927 -0.528938 0
0.0281608 -0.101317 0
0.134079 -0.447974 0
0.442466 0.058458 0
0.839605 0.0238192 0
0.839591 -0.023935 0
-0.296818 -0.352808 0
0.0161823 0.093894 0
0.861231 0.0196231 0
0.861209 -0.0196363 0
0.932487 0.00669562 0
0.956042 0.0181557 0
1.07367 0.00962213 0
1.00141 -0.0170154 0
1.02475 0.0156193 0
0.936996 0.00805786 0
1.0636 -0.0108388 0
1.0391 -0.0186656 0
0.967824 -0.0174514 0
1.06755 0.01146 0
1.00176 0.017336 0
1.06565 -0.00769938 0
0.978687 0.0202238 0
1.06052 -0.00903078 0
0.138727 -0.130758 0
-0.367061 0.19777 0
0.912287 -0.0128938 0
0.921117 -0.582432 0
0.894272 -0.0152382 0
0.637074 -0.0504852 0
0.896664 0.021618 0
0.433448 -0.053541 0
-0.0542449 0.149042 0
0.945905 0.0165415 0
0.745564 0.0356525 0
0.744776 -0.0353736 0
0.132028 0.127629 0
0.819133 0.0192692 0
0.818747 -0.0193977 0
0.928379 0.00895327 0
0.531026 -0.0688494 0
0.924242 0.014436 0
1.06864 -0.00949394 0
0.95904 -0.0167872 0
0.991547 -0.0171537 0
1.03368 0.0149042 0
1.04837 -0.0174295 0
0.992137 0.0172291 0
0.989125 0.0204242 0
-0.60267 -0.309651 0
1.58818 -0.62032 0
0.697363 0.0324489 0
0.697068 -0.0322836 0
0.590473 -0.586732 0
-0.377874 -0.369303 0
-0.821507 0.17169 0
-0.991848 -0.268175 0
-0.0875582 -0.127885 0
1.25304 -0.623472 0
-0.206252 -0.434376 0
0.683558 0.0920157 0
-0.267559 -0.457829 0
1.96787 -0.430898 0
1.4285 -0.446774 0
0.930453 -0.512172 0
-0.0807837 -0.40691 0
0.458726 -0.436307 0
-0.456353 -0.294198 0
-0.555014 -0.222108 0
-0.249557 -0.34695 0
-0.696442 -0.154227 0
-0.715235 -0.0764213 0
-0.779024 -3.09555e-06 0
0.672237 -0.490839 0
1.18875 -0.472262 0
0.684687 -0.466329 0
-0.715235 0.076415 0
-0.0807803 0.406905 0
-0.696441 0.154221 0
0.458735 0.436304 0
-0.555013 0.222102 0
1.20199 -0.496546 0
1.67485 -0.434069 0
-0.120237 -0.595228 0
-0.249554 0.346945 0
1.71184 -0.456029 0
1.06334 0.157431 0
-0.314504 0.266858 0
1.13504 0.141522 0
0.172675 -0.439367 0
-0.477812 0.210305 0
0.17268 0.439363 0
1.12815 0.134494 0
0.43895 -0.446161 0
0.619963 0.305719 0
0.210551 -0.416947 0
1.57948 0.372838 0
0.410347 -0.470382 0
0.231783 -0.406776 0
0.759131 0.36235 0
1.19287 0.123999 0
0.323067 0.358372 0
1.05987 0.149636 0
1.18324 0.117884 0
1.13986 0.34841 0
1.11575 0.121454 0
1.75079 0.333973 0
0.488457 -0.142469 0
0.53582 0.37489 0
1.34798 0.365026 0
0.210557 0.416943 0
0.934153 -0.0524437 0
1.10985 0.115454 0
0.268884 -0.386073 0
1.149 0.366497 0
1.04384 0.110209 0
3.17119 0.0481357 0
1.94198 0.305148 0
0.93085 -0.0551134 0
0.462689 -0.150627 0
-0.456352 0.294193 0
0.628387 0.106884 0
1.36782 0.383801 0
0.520554 -0.383664 0
2.01919 -0.45247 0
1.8292 -0.530415 0
2.0634 0.253142 0
1.04636 0.115992 0
0.296389 -0.56058 0
0.556512 0.355983 0
2.12767 -0.50135 0
0.957069 0.341681 0
0.498455 -0.404132 0
0.659132 0.129362 0
2.87152 0.126532 0
1.02005 -0.0512127 0
2.21645 0.209013 0
0.793477 0.311084 0
1.09914 0.104223 0
0.895731 0.155616 0
0.967331 0.024923 0
0.601978 0.321953 0
-0.189157 0.328834 0
0.930803 -0.0125067 0
0.876084 -0.0464785 0
0.738019 0.139373 0
0.992867 -0.0502133 0
0.931672 -0.0178423 0
0.809009 0.152912 0
0.749825 -0.370723 0
-0.975682 0.179585 0
2.27702 0.148846 0
0.739387 -0.390511 0
0.846192 -0.0404393 0
0.978262 0.162473 0
1.02115 -0.0539094 0
0.941114 -0.0211085 0
1.12153 0.0783411 0
0.56969 -0.346582 0
1.16585 0.0739306 0
0.920393 -0.0152711 0
1.02155 0.0208063 0
0.588899 -0.329645 0
0.914901 -0.0114159 0
1.53671 -0.173905 0
1.1347 0.0867783 0
0.954853 0.0226033 0
0.982294 0.0251314 0
1.00919 0.0220975 0
1.09412 0.0990358 0
2.37757 0.0934057 0
0.950004 0.37817 0
1.14173 0.0913116 0
1.07619 -0.01227 0
0.419749 0.161922 0
1.08096 -0.018858 0
1.08799 -0.0147504 0
0.323167 0.137621 0
0.982268 -0.0252393 0
0.883744 -0.172585 0
1.189 -0.0840356 0
0.899687 -0.0528261 0
0.993147 -0.0477074 0
1.35686 -0.229092 0
0.766471 -0.188385 0
2.52296 0.0340995 0
1.09988 0.00669973 0
0.98939 -0.0858533 0
0.580306 -0.159307 0
1.46937 0.0105325 0
1.14621 -0.0937701 0
0.288298 0.145052 0
0.415212 0.221702 0
1.17443 0.0777751 0
0.482474 0.414301 0
0.839341 1.14429e-05 0
1.10501 0.00246226 0
1.13768 -0.339049 0
2.48142 -0.0324539 0
0.95485 -0.0225966 0
1.21309 0.0144523 0
0.892391 -0.00956483 0
0.19918 0.114556 0
1.07679 0.00818497 0
1.09733 0.0165049 0
0.410982 0.0843583 0
0.814846 0.0365241 0
1.13983 -0.348412 0
1.11019 0.00258811 0
0.9637 -0.0533016 0
1.42392 -0.100993 0
0.853512 -0.0556668 0
1.09524 0.00632511 0
0.781664 1.0208e-05 0
0.105207 0.182269 0
1.0762 0.0122796 0
1.08838 0.00993382 0
1.13199 -0.0846122 0
1.29194 -0.304787 0
0.190604 0.22569 0
1.07279 0.0114676 0
-0.258749 0.473496 0
0.996719 0.0264423 0
0.983067 -0.0236406 0
1.11551 0.0744594 0
0.94982 -0.39791 0
2.78425 0.305374 0
0.950769 -0.0741958 0
-0.0295099 0.0459056 0
0.953286 -0.0688777 0
1.25526 0.0172005 0
0.821574 -0.0363505 0
2.55903 -0.369647 0
2.44691 0.0980414 0
0.99058 -0.0683038 0
0.79915 -0.0287545 0
0.886998 0.0101444 0
1.01807 -0.0462144 0
1.44666 0.0100111 0
0.87835 -0.181768 0
0.303062 0.191962 0
1.2034 0.0906548 0
1.16254 -0.405747 0
1.05356 -0.0344881 0
0.0663681 0.133436 0
1.22418 0.00502425 0
1.1385 0.0161741 0
1.15696 0.0106976 0
1.08838 -0.00990307 0
1.27639 -0.289774 0
1.12023 0.299036 0
1.10238 0.00194441 0
1.16084 -0.00340481 0
0.266593 0.279074 0
1.43472 -0.0095165 0
1.27621 0.0473773 0
1.26827 0.0181075 0
1.471 0.0319242 0
0.77724 -0.178799 0
1.11085 -0.276545 0
1.10219 -0.0174319 0
1.05683 -0.0248425 0
0.891286 0.00472163 0
1.01136 -0.0255235 0
1.077 -0.0343197 0
1.27649 0.289682 0
0.891003 0.0153255 0
0.887107 1.13801e-05 0
0.788808 -0.0302869 0
1.09524 -0.00631523 0
0.799516 -0.16133 0
1.41621 -0.267038 0
1.10499 -0.002464 0
1.01714 -0.0438817 0
1.39321 -0.0264577 0
0.874899 0.0113132 0
0.419634 -0.0531314 0
0.323363 -0.188725 0
1.23706 -0.248579 0
1.41367 -0.00905493 0
0.00691589 0.522723 0
0.793458 -0.311089 0
0.38967 0.124447 0
0.419568 0.118088 0
2.87267 0.320323 0
1.78729 0.254286 0
1.52282 -0.060638 0
1.63862 -0.152222 0
1.08436 0.00933325 0
1.76796 -0.13206 0
1.80629 -0.0941123 0
1.06992 -0.0158231 0
0.342679 -0.350195 0
0.907868 0.64213 0
-0.199926 0.0534242 0
0.268857 0.204316 0
0.974722 -0.189709 0
0.974651 0.189644 0
1.01148 0.0255329 0
1.15752 0.164975 0
0.74971 -0.0700055 0
0.965236 -0.271196 0
1.15709 0.101171 0
1.25441 0.0056181 0
0.210798 -0.160336 0
0.447975 0.153663 0
1.74665 0.0865759 0
1.66042 0.293765 0
0.839592 0.0428557 0
1.0096 0.0237221 0
3.07453 0.240913 0
0.619947 -0.305724 0
0.502456 -0.264375 0
-0.128384 0.103279 0
1.25647 0.268866 0
1.05632 -0.0363405 0
0.967358 -0.0249705 0
0.170127 0.169022 0
1.01546 0.0395516 0
1.09731 -0.0165125 0
0.323372 0.188718 0
1.43493 -0.103357 0
1.1151 0.0274233 0
1.16136 -0.0107006 0
1.12549 -0.0804009 0
0.901434 -0.00288825 0
0.413919 0.0262357 0
1.82461 -0.018583 0
1.19337 0.0861718 0
0.977573 0.171047 0
1.06977 0.174467 0
2.55893 0.369676 0
0.891285 -0.00469895 0
1.26257 0.0304958 0
1.03362 -0.0354942 0
0.974149 -0.199694 0
1.31207 0.0742805 0
0.783435 -0.0816149 0
0.157647 0.120772 0
0.957454 -0.324687 0
0.776067 0.119472 0
0.772361 -0.0859028 0
1.11039 0.00747437 0
0.957047 -0.341685 0
1.14937 0.0101752 0
1.16513 0.00377639 0
2.48732 -0.100083 0
1.09987 -0.00669549 0
1.39499 -0.25392 0
2.27846 -0.41359 0
1.57945 -0.372833 0
-0.0404299 0.551952 0
1.76964 0.342353 0
0.879744 0.00528042 0
1.01545 -0.0395645 0
1.21905 0.0147118 0
0.906469 -0.00555145 0
0.792367 1.05283e-05 0
0.825623 -0.0490927 0
0.909377 0.0118279 0
0.385742 0.23361 0
1.24408 -0.108617 0
0.698018 0.243393 0
0.477921 3.23995e-07 0
1.08095 -0.0361417 0
0.977782 -0.0316406 0
1.57689 -0.039173 0
3.06997 -0.0459277 0
0.818887 0.02597 0
0.938251 -0.0224487 0
1.25023 -0.261492 0
1.86635 -0.0195263 0
1.48591 -0.21626 0
0.994583 -0.0367954 0
1.40509 -0.425034 0
0.0800928 -0.0840729 0
0.816817 -0.0517758 0
0.969833 0.0217623 0
1.01466 0.0375174 0
0.891317 0.0872319 0
0.846972 -0.0311338 0
1.43688 0.458056 0
1.29075 -0.0941134 0
1.23021 0.0154938 0
1.23561 0.00527041 0
0.885495 0.0161921 0
0.807015 -0.0402372 0
1.17973 -0.0798626 0
0.152501 0.239313 0
1.91771 0.296335 0
0.883661 0.172399 0
0.707373 0.111235 0
0.776463 -0.33535 0
1.37516 0.0644348 0
1.0807 -0.0849266 0
1.04386 -0.110125 0
1.14868 0.0354398 0
1.93674 0.222557 0
1.08389 -0.0138759 0
1.71053 -0.0824115 0
1.10221 0.0174226 0
1.87131 -0.14918 0
0.816389 0.0976797 0
0.477933 -0.278505 0
2.18399 -0.202647 0
1.81035 0.359751 0
0.974084 0.199673 0
1.1496 0.0667448 0
0.875565 -0.186593 0
0.784746 -0.174463 0
0.435867 0.300982 0
3.06999 0.0459624 0
1.22976 -0.0545992 0
2.41055 -0.0308896 0
0.970359 -0.0219251 0
1.14897 -0.366498 0
1.09915 -0.104153 0
0.538592 0.129351 0
-0.0834497 0.0484204 0
1.23053 0.0746622 0
1.27453 0.0652853 0
1.18735 -0.00403393 0
0.380503 0.0889054 0
2.41685 -0.165098 0
0.232877 0.406848 0
2.38063 0.445875 0
1.86954 -0.0590584 0
0.73119 -0.143239 0
0.815475 -0.0974967 0
1.80358 -0.190947 0
1.02358 0.0237753 0
0.609383 -0.0560697 0
1.09436 0.0421805 0
0.498414 0.403905 0
0.794849 -0.16568 0
1.24207 0.00532646 0
1.19336 0.0223558 0
1.14548 0.0472122 0
1.21782 0.535233 0
1.14944 0.156773 0
1.1822 -0.0434104 0
3.17823 -0.146997 0
1.32251 0.143485 0
1.05877 0.01785 0
1.33154 -0.14769 0
0.44285 0.024895 0
0.551119 0.0411803 0
1.33648 0.0799973 0
1.15381 -0.098674 0
1.12927 -0.322329 0
1.91109 0.587297 0
1.72467 0.172112 0
0.925919 -0.00932153 0
1.07391 0.183659 0
0.830296 -0.0345108 0
2.01146 -0.240999 0
0.83528 0.247139 0
-0.00302002 0.376753 0
0.916575 0.675115 0
1.01064 0.0269608 0
0.643228 0.190361 0
0.840639 -0.0602014 0
0.994051 -0.0408477 0
1.36779 -0.383799 0
0.389527 -0.0559962 0
1.11899 0.0138519 0
1.08504 0.0199433 0
0.0321168 -0.0886587 0
2.12666 -0.19293 0
2.15466 0.373115 0
1.27653 -0.0894596 0
1.36534 -0.118182 0
3.36939 0.158477 0
1.84614 -0.0568794 0
0.919533 0.0644517 0
2.37381 0.326892 0
0.976736 -0.0334254 0
0.918567 -0.0225382 0
0.994073 0.0408433 0
1.24835 0.016802 0
0.879084 -0.0966336 0
0.994588 0.0367542 0
1.67139 -0.160018 0
1.17828 -0.0038156 0
3.17118 -0.0481073 0
1.03392 -0.0852988 0
0.336147 0.251526 0
-0.262981 0.0563859 0
0.667813 -0.126497 0
0.869755 -0.196448 0
0.615146 -0.0784996 0
0.0321196 0.0886514 0
0.413917 -0.0262378 0
0.450818 -2.53548e-07 0
0.54447 0.0653912 0
1.12479 0.040515 0
3.0214 0.136138 0
1.31206 -0.0742742 0
0.997141 -0.0216936 0
1.80528 0.0540837 0
1.27653 -0.123111 0
0.993823 0.0430066 0
1.38476 -0.0446273 0
1.06714 0.006595 0
2.92203 -0.329449 0
0.497438 0.0225 0
1.28862 0.0686641 0
1.062 0.0265652 0
0.996117 -0.0316623 0
0.881445 1.14214e-05 0
1.08932 0.0577176 0
0.965836 -0.257693 0
-1.32792 -0.103887 0
3.02018 -0.234508 0
1.10773 0.0689442 0
1.25536 0.0297189 0
1.14899 0.00343736 0
1.13176 0.0226339 0
1.02633 -0.0255497 0
1.11329 0.0131436 0
0.995874 -0.0214716 0
1.41566 0.04842 0
0.9592 -0.0193643 0
0.630477 -0.0165383 0
0.686147 -0.0639017 0
0.898022 0.00519929 0
2.7345 -0.201671 0
0.748989 -0.203411 0
0.953386 0.368022 0
0.561664 0.122315 0
1.54899 -0.0372526 0
0.634103 0.10216 0
1.87488 -0.388828 0
0.937156 -0.0509063 0
1.13151 -0.00268913 0
1.08745 0.0282252 0
1.02638 0.0255942 0
1.08228 0.0129636 0
1.14225 0.0634503 0
2.87268 0.217169 0
1.54708 -0.0123117 0
2.06335 -0.253131 0
1.96568 -0.112019 0
1.0586 0.0369719 0
1.13181 0.015368 0
1.12863 0.0146384 0
1.04561 0.0280911 0
1.04601 0.029339 0
0.994779 -0.0349055 0
0.995206 -0.0313142 0
0.950168 -0.0255371 0
0.77291 0.0861818 0
1.80241 0.0174827 0
0.934758 -0.0167101 0
1.02474 0.0253586 0
1.16597 0.0191115 0
1.03965 -0.099413 0
0.949983 -0.378172 0
1.60994 0.104392 0
1.7673 -0.0895472 0
1.05131 0.128407 0
0.968679 -0.0232737 0
0.769529 -0.122845 0
1.12245 -0.0138489 0
1.28861 -0.0686271 0
-0.785945 -0.162997 0
0.633988 -0.0745169 0
0.909665 -0.00241237 0
1.06794 -0.00405167 0
0.928608 -0.00258834 0
0.680356 0.0191695 0
-1.38909 -8.94095e-07 0
1.20322 0.0235399 0
1.70742 0.0159074 0
1.07939 -0.0505944 0
0.965795 0.0265517 0
0.970243 0.0433496 0
1.06799 0.0214675 0
1.1024 -0.00194698 0
1.38643 -0.172205 0
1.14259 0.0241866 0
1.10239 0.0118009 0
1.52063 0.0116856 0
0.722919 0.0775317 0
0.149449 0.17502 0
0.931252 -0.538777 0
0.761794 -0.0659123 0
0.757897 -0.129369 0
0.932647 0.0356542 0
0.391214 -1.28451e-06 0
1.22531 0.0261202 0
1.59121 0.140436 0
0.980758 0.0267523 0
-0.183717 -3.70548e-06 0
0.715148 -0.108475 0
3.18557 0.252475 0
1.61098 -0.391825 0
1.23679 -0.0274746 0
1.0919 -0.0297511 0
1.06792 -0.0214714 0
0.502304 0.045572 0
0.896419 0.00445327 0
1.19852 -0.127518 0
1.0491 0.0207218 0
0.816915 0.0517825 0
1.47172 -0.0808025 0
1.89445 -0.104386 0
0.873662 0.00557867 0
1.04113 -0.0422915 0
1.72587 -0.0487992 0
0.87523 -0.0347135 0
1.0728 0.0470499 0
0.828599 -0.00763535 0
1.16921 -0.0400924 0
1.10198 -0.0237034 0
1.52063 -0.0117022 0
1.82899 0.141912 0
1.0807 0.0849495 0
1.38646 0.172193 0
3.01251 0.044348 0
0.808894 -0.153193 0
1.37481 -0.0436635 0
0.864914 0.0383027 0
2.0436 0.179394 0
1.03754 -0.0944677 0
0.755743 -0.0930159 0
1.74328 0.0167233 0
1.11947 -0.052931 0
1.21367 0.137386 0
1.74845 0.241952 0
1.01465 -0.0375447 0
1.2136 -0.137415 0
0.76898 0.344218 0
1.01313 -0.0305808 0
1.15351 -0.0179078 0
1.3474 -0.112359 0
1.68841 -0.0150348 0
1.27074 0.282813 0
1.6934 -0.224758 0
1.25561 0.0827202 0
1.08165 -0.0256493 0
1.2491 -0.160253 0
-0.629077 -0.0723286 0
0.986015 0.102661 0
1.09262 -0.0965758 0
1.78376 -0.0532466 0
1.09084 0.0020894 0
0.983368 0.125987 0
0.936362 -0.0332584 0
-0.721533 0.244739 0
-0.310664 -3.62556e-06 0
0.651941 0.096983 0
1.20275 0.0137503 0
0.855158 -0.00763755 0
2.44403 -0.343056 0
2.87149 -0.126497 0
0.848118 -0.229028 0
0.854781 -0.217538 0
0.717669 -0.150856 0
1.89451 0.10437 0
1.01951 -0.0471505 0
1.06819 -0.0432847 0
1.11052 -0.0353788 0
1.26256 -0.0304767 0
1.11317 0.0193736 0
1.02749 -0.069608 0
0.415201 -0.221709 0
0.852989 0.118873 0
-0.0723082 -0.0979051 0
0.846819 0.0406882 0
0.535807 -0.374893 0
1.34715 -0.0594735 0
0.760684 -0.193163 0
1.03047 -0.030527 0
1.0247 -0.0254146 0
0.996676 -0.0264996 0
1.03942 -0.0234165 0
1.05354 -0.0222014 0
0.634096 -0.102158 0
1.37415 -0.0251639 0
1.08262 -0.00854529 0
0.0798868 -0.186732 0
2.27086 0.0277993 0
1.08261 -0.00530946 0
1.08271 0.00524079 0
1.18891 0.197835 0
0.908675 -0.0340123 0
0.913851 -0.0452305 0
1.0359 0.0217887 0
0.385732 -0.233617 0
2.32683 -0.583008 0
2.86394 -0.041469 0
0.56906 -0.0192905 0
0.744091 0.071329 0
0.969048 -0.0466151 0
1.22549 -0.0385714 0
1.53671 0.344789 0
1.07579 -0.0167692 0
1.12199 0.0544658 0
1.96128 -0.0216502 0
1.5647 -0.0658666 0
1.08883 -0.00530148 0
1.05553 -0.0156174 0
1.01085 -0.0239101 0
0.960703 -0.0184249 0
0.941309 -0.463141 0
0.802078 0.0181168 0
1.07222 -0.00157837 0
2.48606 -0.480935 0
0.419741 -0.161929 0
0.380498 -0.0889101 0
0.313169 -0.0983269 0
1.34694 0.040301 0
1.33009 0.0383279 0
1.11898 -0.0138552 0
1.64051 0.0742693 0
1.15058 0.375322 0
0.976769 0.0333539 0
0.945417 -0.428868 0
1.07284 0.0766985 0
0.371027 -0.239004 0
2.12061 -0.0252032 0
1.08484 -0.00144493 0
1.0726 -0.0113856 0
0.992287 -0.0630794 0
0.893247 -0.0569217 0
0.918614 -0.0658628 0
-0.0704477 -0.025181 0
0.965652 -0.0146307 0
0.152592 0.0425365 0
-0.198656 0.0679486 0
2.81967 0.429712 0
2.92204 0.32946 0
0.419561 -0.118093 0
1.0838 0.036803 0
1.29648 -0.00656942 0
1.2754 0.0185915 0
1.32002 0.00706738 0
1.34716 0.0594978 0
1.87241 0.282024 0
0.566846 0.0620656 0
0.717679 7.96844e-06 0
0.730877 0.0246532 0
-0.39828 0.0621605 0
-0.379726 -3.57268e-06 0
0.977226 -0.0338404 0
0.535177 0.176156 0
0.968737 -0.04569 0
-0.811628 0.258698 0
1.21238 0.0505816 0
1.1053 0.017509 0
0.879332 -0.00704336 0
1.07222 0.00159952 0
3.09258 0.355315 0
2.87903 -0.442293 0
3.34866 -0.0516553 0
2.48835 -0.173285 0
0.590279 0.0183155 0
1.23681 0.0274941 0
0.963875 -0.054476 0
1.01523 0.0361782 0
1.59637 0.264969 0
1.93877 0.0630704 0
1.33877 -0.217805 0
1.65517 -0.0143055 0
1.70739 -0.0159394 0
1.07914 -0.007968 0
0.893369 -0.160034 0
-0.00668527 -0.271829 0
-0.574065 0.316603 0
0.940607 0.0473069 0
0.985944 0.0179329 0
1.20338 -0.0347777 0
1.3216 -0.0374265 0
1.43861 0.195017 0
1.6753 0.218175 0
0.897828 1.05539e-05 0
1.46237 0.481498 0
1.03394 0.0853253 0
1.65824 -0.0768048 0
0.890999 -0.0153034 0
0.802402 -0.105348 0
1.1733 0.0412887 0
1.16256 0.405748 0
0.916623 -0.0314181 0
0.973106 -0.0391244 0
1.11803 0.290902 0
1.02293 -0.0209212 0
1.21924 0.070976 0
0.359557 -1.7389e-06 0
-0.00952621 -0.0539303 0
1.00872 -0.0165783 0
1.03894 0.0145467 0
0.871447 0.00317895 0
-0.315348 0.0667898 0
2.62175 0.518741 0
1.96894 0.616291 0
1.2255 0.0385904 0
1.05101 0.125324 0
0.902865 -0.0368126 0
1.65516 0.0142702 0
1.02764 0.027203 0
1.05614 -0.0236073 0
0.977583 -0.171199 0
0.945676 -0.0800782 0
1.08491 0.0548499 0
1.03963 0.099456 0
2.91642 0.0422421 0
0.908046 -0.0252703 0
0.980756 -0.150837 0
1.24353 -0.156437 0
0.785548 -0.318737 0
0.983587 0.129359 0
1.23629 0.0159853 0
0.824134 -0.142094 0
1.21832 0.00477702 0
0.634012 -0.0335138 0
-1.1099 -0.301794 0
2.28468 -0.566881 0
1.17456 0.0297951 0
1.549 0.0372328 0
0.683142 0.0141907 0
1.14984 -0.0254666 0
1.16608 -0.0282773 0
1.24206 -0.00530681 0
1.13481 0.00919452 0
1.1315 0.002697 0
1.03048 0.0305575 0
1.01253 0.0288648 0
2.01462 0.117669 0
-0.532787 0.13998 0
0.65983 0.18051 0
1.18805 0.0323293 0
1.306 0.0355871 0
0.757311 -0.0222445 0
1.39499 -0.127952 0
0.665052 -0.0480754 0
-0.13955 0.607685 0
0.323161 -0.137627 0
0.99343 -0.0540275 0
1.1935 -0.0330383 0
1.237 -0.0405924 0
0.726872 -0.0391331 0
0.85476 -0.0774616 0
0.943348 0.0299794 0
0.164925 -0.316853 0
1.63992 -0.0434473 0
1.10264 0.00644146 0
1.53421 -0.0359244 0
0.157642 -0.120779 0
-0.531599 0.310682 0
-0.721534 -0.244744 0
0.573174 0.0868898 0
0.989819 -0.0815563 0
0.842396 -0.00804522 0
0.919842 -0.692647 0
0.893782 0.010981 0
2.96555 -0.132633 0
0.968452 -0.251623 0
1.15766 0.0508643 0
1.17927 0.115067 0
1.0838 -0.0367824 0
1.2556 -0.082676 0
1.24306 -0.0416636 0
0.686158 -0.0287364 0
0.980407 -0.0285249 0
1.35491 -0.00778811 0
0.841935 0.0834638 0
0.926396 0.108974 0
1.1219 0.00284957 0
0.9923 0.0630993 0
0.948721 0.04134 0