# vtk DataFile Version 3.0
Malha 2D com triângulos: velocidade e pressão
ASCII
DATASET UNSTRUCTURED_GRID

POINTS 512 double
-0.5 0 0
1.5 0 0
1.5 2 0
-0.5 2 0
-0.4 0 0
-0.3 0 0
-0.2 0 0
-0.1 0 0
0 0 0
0.1 0 0
0.2 0 0
0.3 0 0
0.4 0 0
0.5 0 0
0.6 0 0
0.7 0 0
0.8 0 0
0.9 0 0
1 0 0
1.1 0 0
1.2 0 0
1.3 0 0
1.4 0 0
1.5 0.1 0
1.5 0.2 0
1.5 0.3 0
1.5 0.4 0
1.5 0.5 0
1.5 0.6 0
1.5 0.7 0
1.5 0.8 0
1.5 0.9 0
1.5 1 0
1.5 1.1 0
1.5 1.2 0
1.5 1.3 0
1.5 1.4 0
1.5 1.5 0
1.5 1.6 0
1.5 1.7 0
1.5 1.8 0
1.5 1.9 0
1.4 2 0
1.3 2 0
1.2 2 0
1.1 2 0
1 2 0
0.9 2 0
0.8 2 0
0.7 2 0
0.6 2 0
0.5 2 0
0.4 2 0
0.3 2 0
0.2 2 0
0.1 2 0
0 2 0
-0.1 2 0
-0.2 2 0
-0.3 2 0
-0.4 2 0
-0.5 1.9 0
-0.5 1.8 0
-0.5 1.7 0
-0.5 1.6 0
-0.5 1.5 0
-0.5 1.4 0
-0.5 1.3 0
-0.5 1.2 0
-0.5 1.1 0
-0.5 1 0
-0.5 0.9 0
-0.5 0.8 0
-0.5 0.7 0
-0.5 0.6 0
-0.5 0.5 0
-0.5 0.4 0
-0.5 0.3 0
-0.5 0.2 0
-0.5 0.1 0
0.453099 1.93202 0
0.54413 0.095501 0
1.41071 1.0544 0
-0.413397 0.95 0
-0.413397 1.35 0
1.4134 0.65 0
0.865412 1.90492 0
0.150633 0.075445 0
0.865412 0.0950818 0
1.41251 1.34167 0
0.147722 1.92061 0
-0.413397 0.65 0
1.15585 0.0796603 0
1.15585 1.92034 0
-0.413397 0.35 0
-0.15131 1.91109 0
1.41308 1.66471 0
-0.413397 1.65 0
-0.151099 0.0888652 0
1.4134 0.35 0
-0.413397 1.15 0
1.4134 0.85 0
0.654914 1.91026 0
0.355845 0.0919101 0
-0.41563 1.84613 0
1.35016 0.0848164 0
-0.41563 0.153868 0
1.4171 1.85606 0
-0.413397 1.25 0
-0.326795 1.2 0
-0.326795 1.1 0
-0.240192 1.15 0
-0.240192 1.05 0
-0.15359 1.1 0
-0.15359 1 0
-0.0669873 1.05 0
-0.0669873 0.95 0
0.0196152 1 0
0.0196152 0.9 0
0.106218 0.95 0
0.106218 1.05 0
0.19282 1 0
0.19282 1.1 0
0.279423 1.05 0
0.279423 0.95 0
0.366025 1 0
0.366025 1.1 0
0.452628 1.05 0
0.452628 0.95 0
0.53923 1 0
0.53923 0.9 0
0.53923 1.1 0
0.625833 0.95 0
0.625833 0.85 0
-0.15359 1.2 0
0.53923 0.8 0
0.625833 0.75 0
0.712436 0.9 0
0.53923 0.7 0
0.625833 0.65 0
0.53923 0.6 0
0.625833 0.55 0
0.712436 0.6 0
0.452628 0.65 0
0.452628 0.55 0
0.366025 0.6 0
0.366025 0.5 0
0.279423 0.55 0
0.712436 0.5 0
0.799038 0.55 0
-0.0669873 0.85 0
0.712436 1 0
0.799038 0.95 0
0.799038 1.05 0
0.885641 1 0
0.885641 1.1 0
0.972243 1.05 0
0.972243 0.95 0
0.972243 1.15 0
0.885641 1.2 0
0.972243 1.25 0
0.885641 1.3 0
0.972243 1.35 0
0.885641 1.4 0
0.972243 1.45 0
0.885641 1.5 0
0.799038 1.45 0
0.972243 1.55 0
1.05885 1.5 0
1.05885 1.2 0
0.799038 1.55 0
0.712436 1.5 0
0.279423 0.45 0
0.19282 0.5 0
0.452628 0.45 0
0.799038 0.45 0
0.885641 0.5 0
0.885641 0.6 0
0.972243 0.55 0
0.972243 0.45 0
1.05885 0.5 0
1.05885 0.6 0
1.05885 1 0
0.712436 0.4 0
0.0196152 0.8 0
-0.0669873 0.75 0
0.712436 1.4 0
0.625833 1.45 0
0.625833 1.55 0
0.53923 1.5 0
1.05885 0.4 0
1.05885 1.6 0
0.53923 1.6 0
0.452628 1.55 0
0.452628 1.45 0
0.366025 1.5 0
0.366025 1.6 0
0.279423 1.55 0
0.279423 1.45 0
0.19282 1.5 0
0.19282 0.4 0
0.106218 0.45 0
0.19282 1.6 0
0.106218 1.55 0
0.106218 1.45 0
0.0196152 1.5 0
0.0196152 1.6 0
-0.0669873 1.55 0
0.279423 0.65 0
-0.15359 0.8 0
-0.15359 0.7 0
0.106218 1.15 0
1.05885 0.9 0
0.106218 0.35 0
0.0196152 0.4 0
1.14545 0.45 0
1.14545 1.55 0
1.14545 1.45 0
1.14545 0.95 0
1.14545 0.85 0
0.972243 0.35 0
0.972243 1.65 0
1.14545 0.35 0
1.14545 1.65 0
-0.0669873 1.65 0
0.279666 0.350421 0
0.625833 1.65 0
0.0196152 0.3 0
-0.0669873 0.35 0
-0.0669873 0.45 0
-0.15359 0.4 0
0.0196152 0.7 0
0.19282 1.2 0
0.625833 1.35 0
0.972243 0.85 0
-0.0669873 1.45 0
-0.15359 1.5 0
1.23205 1.5 0
0.0196152 1.7 0
0.53923 1.7 0
-0.15359 0.3 0
-0.15359 0.5 0
0.106218 0.75 0
-0.240192 0.75 0
-0.240192 0.65 0
0.799038 0.85 0
-0.240192 0.95 0
0.712436 1.1 0
-0.240192 0.45 0
0.799038 1.25 0
1.14545 1.05 0
0.799038 0.35 0
0.712436 0.3 0
0.625833 0.35 0
0.106218 1.25 0
-0.15359 1.4 0
-0.0669873 1.35 0
-0.240192 1.45 0
-0.240192 1.55 0
1.22978 1.40393 0
1.23158 0.9 0
1.2315 0.8 0
1.23158 0.4 0
1.2315 0.3 0
1.23197 0.5 0
-0.0669873 1.75017 0
-0.15359 1.70003 0
0.624369 0.252536 0
0.538986 0.300423 0
0.707556 0.185944 0
0.0190005 1.79898 0
0.105079 1.74804 0
0.106218 0.55 0
-0.0669873 0.55 0
0.19282 1.3 0
0.279423 1.25 0
1.14536 0.75 0
1.23147 0.7 0
0.0196152 1.2 0
-0.240192 1.35 0
1.14507 1.35066 0
1.23205 1.3 0
-0.326795 1.5 0
0.104752 0.252539 0
0.0206001 0.199822 0
1.14363 0.252992 0
0.624369 1.74746 0
0.712192 1.69958 0
1.22326 0.21192 0
1.31865 0.45 0
1.31916 1.45899 0
1.31865 0.75 0
1.32569 0.252227 0
0.54106 1.79626 0
0.454676 1.74636 0
0.708223 1.81355 0
0.799038 1.75 0
1.32143 1.5471 0
1.31865 0.55 0
0.538298 0.202279 0
0.452432 0.25045 0
0.451122 0.151138 0
0.363094 0.20024 0
0.272262 0.15542 0
-0.15321 1.80255 0
-0.240129 1.75043 0
-0.240192 1.85 0
-0.0637387 1.84957 0
0.0358448 1.90607 0
-0.240192 0.55 0
-0.326795 0.5 0
0.106218 0.65 0
-0.326795 0.6 0
-0.15359 0.6 0
-0.326795 0.4 0
0.452609 0.350038 0
0.19282 0.7 0
0.19282 0.8 0
-0.326795 0.7 0
-0.326795 0.8 0
1.05885 1.7 0
0.972243 1.75 0
1.14372 1.74701 0
1.23129 1.6995 0
1.22442 1.78958 0
1.31945 1.73804 0
1.05536 1.79874 0
0.963109 1.84979 0
0.279423 1.35 0
0.366025 1.3 0
0.279423 0.75 0
0.365902 0.300312 0
-0.240192 0.35 0
-0.240192 0.25 0
-0.153175 0.197475 0
-0.240192 0.15 0
-0.0584435 0.148031 0
-0.326795 0.3 0
-0.327167 0.200645 0
-0.337112 0.0921006 0
0.880907 1.79901 0
0.0196152 1.3 0
0.0196152 0.6 0
0.366025 0.9 0
1.14544 0.55 0
1.05854 0.300499 0
0.972193 0.250083 0
1.05528 0.201354 0
0.963088 0.15024 0
0.880895 0.20101 0
0.366025 0.7 0
0.452628 0.85 0
-0.413397 0.55 0
0.625833 0.45 0
0.712436 1.3 0
0.625833 1.25 0
0.53923 1.3 0
0.53923 1.2 0
0.712436 1.2 0
0.452969 1.64939 0
0.366424 1.69929 0
0.365907 1.79872 0
0.279423 1.75 0
0.27488 1.84412 0
0.193487 1.79203 0
0.0196152 0.5 0
-0.15359 0.9 0
0.885641 1.6 0
0.972243 0.65 0
0.885641 0.7 0
1.05883 0.7 0
0.106028 1.64967 0
1.41372 1.24861 0
1.25393 1.92615 0
-0.413397 0.75 0
-0.413397 0.85 0
1.05885 1.1 0
1.14498 1.15 0
1.23205 1.1 0
0.539187 0.400077 0
0.19271 1.69829 0
1.41347 1.1505 0
1.32679 1.2 0
0.53923 1.4 0
1.2297 0.996066 0
1.31863 0.934817 0
0.65223 0.0882272 0
0.75 0.0866025 0
-0.413397 1.05 0
-0.326795 1 0
-0.413397 0.45 0
-0.0669873 1.15 0
0.19282 0.9 0
0.885641 0.9 0
0.799038 1.35 0
1.14533 0.65 0
1.23192 1.59943 0
-0.0669873 1.25 0
0.0196152 1.4 0
-0.41377 1.74936 0
0.539223 0.500013 0
0.799038 0.65 0
0.0375414 0.0927837 0
1.25279 0.0775089 0
0.75 1.9134 0
0.54703 1.90074 0
0.0196152 1.1 0
0.106218 1.35 0
0.279423 0.85 0
0.452628 0.75 0
0.19282 0.6 0
-0.15359 1.6 0
-0.326795 0.9 0
0.712436 0.8 0
-0.0669873 0.65 0
-0.413832 0.250752 0
0.452628 1.35 0
0.625833 1.05 0
0.712436 0.7 0
0.885641 0.4 0
0.625833 1.15 0
1.05883 0.8 0
1.23145 0.6 0
0.972242 0.75 0
1.05133 0.0953599 0
1.05134 1.90466 0
0.106218 0.85 0
-0.15359 1.3 0
0.366034 0.400066 0
-0.06533 0.249221 0
0.88564 0.8 0
0.884841 0.300182 0
0.799038 1.15 0
0.192429 0.301659 0
0.366025 0.8 0
-0.240192 1.25 0
0.884852 1.69983 0
-0.240192 0.85 0
0.799038 0.75 0
0.279423 1.15 0
0.712395 1.59993 0
0.279423 1.65 0
0.19282 1.4 0
-0.240182 1.65008 0
-0.326795 1.3 0
0.366025 1.4 0
0.452628 1.15 0
0.366025 1.2 0
0.798859 1.64989 0
0.797461 0.249632 0
1.05878 1.40011 0
0.452628 1.25 0
-0.413397 1.45 0
-0.413397 1.55 0
-0.326793 1.60001 0
-0.326795 1.4 0
1.05877 1.30013 0
1.14482 1.25013 0
-0.326844 1.69998 0
-0.327227 1.79932 0
-0.337121 1.90789 0
0.354499 1.91134 0
1.33268 1.29737 0
1.39893 1.50122 0
1.32169 1.64076 0
1.41266 1.76245 0
1.22582 1.20001 0
1.3317 1.10163 0
1.41032 0.957811 0
1.30275 0.846963 0
1.42909 0.75 0
1.30273 0.65 0
1.41622 0.55 0
1.41972 0.45 0
1.31279 0.350116 0
1.43107 0.251419 0
0.278299 0.252212 0
1.31108 1.83758 0
0.191924 0.209439 0
1.40918 0.159089 0
0.113078 1.83937 0
0.118208 0.160678 0
0.800097 0.161747 0
0.800261 1.83819 0
1.35161 1.92455 0
0.25 0.0712615 0
1.29351 0.153728 0
0.25 1.93045 0
0.613317 0.164897 0
0.615119 1.83365 0
0.95 0.0683159 0
0.95 1.93168 0
-0.25 1.93301 0
-0.25 0.0669873 0
0.45 0.0666897 0
1.13509 0.167949 0
1.13509 1.83205 0
0.463085 1.83189 0
-0.0544002 0.0659359 0
-0.05207 1.93411 0
-0.426795 0.0732051 0
1.42679 0.0732051 0
-0.426795 1.92679 0
1.41934 1.42744 0
1.31203 1.37286 0
1.42702 1.5736 0
1.30503 1.0264 0
1.42753 1.92753 0
0.204023 1.86879 0
0.200129 0.134247 0
1.20617 0.137494 0
1.21607 1.86114 0

CELLS 942 3768
3 348 349 88
3 86 340 327
3 361 497 461
3 461 497 80
3 289 472 298
3 289 473 472
3 55 308 90
3 88 490 348
3 327 491 86
3 382 462 281
3 101 468 385
3 281 466 382
3 385 469 101
3 325 464 96
3 96 465 325
3 85 470 291
3 291 471 85
3 99 473 289
3 289 474 99
3 382 466 378
3 378 467 382
3 101 469 291
3 291 470 101
3 298 472 85
3 85 471 298
3 99 474 292
3 292 475 99
3 107 477 465
3 465 477 325
3 82 506 468
3 297 505 464
3 336 402 284
3 468 506 385
3 464 505 96
3 386 387 269
3 295 404 102
3 292 486 479
3 292 479 475
3 503 504 89
3 290 504 503
3 336 498 402
3 301 302 103
3 269 488 386
3 102 489 295
3 56 308 55
3 308 480 90
3 60 460 59
3 5 339 4
3 299 301 81
3 95 306 304
3 334 335 98
3 405 497 293
3 302 303 103
3 60 502 460
3 339 500 4
3 424 495 347
3 326 496 425
3 98 336 334
3 304 307 95
3 103 494 301
3 361 461 363
3 348 424 347
3 326 425 327
3 387 482 269
3 295 483 404
3 80 497 405
3 349 482 88
3 86 483 340
3 92 495 424
3 425 496 93
3 301 494 81
3 477 511 324
3 373 511 477
3 81 488 299
3 293 489 405
3 402 481 284
3 336 429 334
3 284 429 336
3 270 307 265
3 265 307 304
3 270 308 307
3 302 476 303
3 95 492 306
3 335 493 98
3 106 339 338
3 337 415 338
3 338 415 106
3 312 318 91
3 94 337 314
3 94 415 337
3 309 313 244
3 314 390 94
3 244 318 312
3 244 312 309
3 91 352 312
3 312 352 310
3 352 390 310
3 315 428 331
3 342 365 272
3 310 390 314
3 273 414 313
3 342 414 273
3 73 374 72
3 337 338 333
3 331 428 225
3 311 342 272
3 273 365 342
3 272 410 311
3 273 313 241
3 241 313 309
3 311 410 316
3 316 410 208
3 244 313 210
3 230 332 240
3 294 361 360
3 204 442 199
3 294 360 359
3 374 375 72
3 315 379 174
3 174 428 315
3 332 337 333
3 76 390 75
3 319 437 412
3 208 330 316
3 271 380 364
3 407 442 204
3 72 375 71
3 332 333 240
3 205 398 204
3 398 407 204
3 412 437 246
3 248 332 230
3 436 448 367
3 357 420 355
3 256 397 341
3 416 451 356
3 71 375 83
3 143 350 145
[...]
CELL_DATA 942
VECTORS velocity double
0.882441 -0.0425379 0
0.882125 0.0425661 0
0.712283 0.113006 0
0.647117 0.0920936 0
1.08319 0.00185408 0
1.07865 -0.0035269 0
0.201376 0.101259 0
0.851661 -0.0352204 0
0.851341 0.0352606 0
1.01143 -0.0258527 0
0.935795 0.00971434 0
0.995898 -0.0246342 0
0.943116 0.0135761 0
1.03221 0.0205356 0
1.01155 0.0210664 0
1.01994 0.0205242 0
1.03449 0.0189227 0
1.06731 -0.0102016 0
1.06252 -0.0135078 0
0.953202 -0.0206055 0
0.943404 -0.0185395 0
0.971805 0.0193451 0
0.985705 0.0208504 0
1.06938 0.00922232 0
1.06522 0.0125608 0
1.03045 -0.0199062 0
1.01573 -0.0216217 0
0.962649 0.0208818 0
0.979397 0.0231635 0
0.922753 -0.00208271 0
1.07032 0.0120232 0
0.402817 -0.23936 0
0.919686 0.00366332 0
1.05423 0.0147005 0
0.802961 -0.0532771 0
0.803636 0.0534659 0
0.965897 -0.0212912 0
0.98176 -0.0221122 0
1.06114 -0.01432 0
1.07612 -0.011955 0
0.168708 -0.183407 0
0.702782 -0.110221 0
0.819571 -0.0642761 0
0.821461 0.0647128 0
0.0852711 0.0539615 0
0.362035 0.158406 0
-0.857238 0.0962826 0
-0.857309 -0.0963387 0
0.772417 -0.0933516 0
0.149296 0.332029 0
0.150164 -0.331943 0
0.787381 0.0954569 0
0.679509 -0.12567 0
-0.91376 0.174544 0
-0.913828 -0.174471 0
0.917045 -0.0333857 0
0.916578 0.0332687 0
0.208273 -0.283795 0
0.208046 0.285543 0
0.62939 -0.0865702 0
0.675227 0.127021 0
0.906873 -0.0366302 0
0.906461 0.0365498 0
0.841932 -0.0602213 0
0.841731 0.0602153 0
0.69491 0.0752856 0
0.876634 -0.0470592 0
0.876252 0.0470533 0
0.899555 -0.0256307 0
0.898864 0.0256724 0
0.675367 -0.0731112 0
0.947959 0.0248318 0
0.925432 0.019217 0
0.792906 -0.0874438 0
0.793026 0.0885836 0
0.465479 -0.217095 0
0.637835 -0.330961 0
0.666869 -0.299572 0
0.675775 0.30155 0
0.643006 0.333108 0
0.408994 0.241391 0
0.83134 -0.158689 0
-0.178473 0.25756 0
-0.178153 -0.25836 0
-0.150329 -0.463888 0
1.03159 -0.559425 0
0.373082 -0.560331 0
2.13544 0.449782 0
2.13558 -0.44917 0
1.6194 -0.553701 0
2.19717 0.256125 0
2.63604 -0.345682 0
2.02684 0.41068 0
2.3225 0.280835 0
2.6359 0.347156 0
2.80577 0.172933 0
3.02474 0.000696371 0
1.28356 -0.111649 0
1.86546 0.0842297 0
2.80573 -0.171217 0
1.95908 0.205483 0
1.86872 0.186476 0
1.02685 0.66865 0
0.999351 -0.500695 0
1.31428 -0.124429 0
1.69527 0.149416 0
1.95255 0.0927856 0
1.62997 0.135147 0
2.19448 0.115737 0
2.31321 0.126982 0
1.43606 0.175319 0
1.39326 0.158054 0
1.8304 0.331587 0
1.83025 -0.329139 0
1.00577 0.135498 0
1.69143 -0.067503 0
1.14797 0.121818 0
0.340401 0.611768 0
1.33115 -0.0686175 0
1.36517 -0.0760276 0
1.53123 -0.451325 0
3.31643 -0.212214 0
-0.0321148 0.403834 0
1.20121 0.176074 0
1.0284 0.216282 0
1.62996 -0.135102 0
-0.33605 0.533019 0
1.46545 -0.410929 0
1.8655 -0.0841688 0
1.69529 -0.149369 0
-0.332306 0.286026 0
2.19706 -0.25313 0
1.11913 0.0487592 0
0.903802 -0.0929025 0
1.34 -0.302096 0
1.13093 -0.114474 0
-0.819783 0.389647 0
1.28577 0.114262 0
1.3656 0.0751989 0
1.73236 0.605722 0
2.82696 -0.375915 0
0.99858 -0.0395441 0
0.980574 -0.0167363 0
1.14095 0.0136958 0
1.74712 0.300905 0
1.31626 -0.126935 0
1.3163 0.126896 0
1.07809 -0.0317392 0
1.45738 -0.0977399 0
2.19721 -0.256124 0
3.24137 -0.000399915 0
0.798386 -0.0834108 0
1.29767 0.000549631 0
3.24136 0.000380534 0
1.15826 0.000283085 0
1.07796 0.0316369 0
1.06253 0.025832 0
2.31327 -0.126977 0
1.17483 0.156718 0
0.876466 -0.0269488 0
1.36499 -0.0335579 0
1.0863 -0.0353535 0
1.10463 -0.00864082 0
1.04716 0.0438281 0
1.06645 -0.0238817 0
1.00142 -0.0320999 0
1.14368 -0.124643 0
0.948765 0.0449307 0
0.998408 -0.0444943 0
0.846305 3.40293e-05 0
1.12262 -0.0481792 0
1.12699 0.0271146 0
1.26682 -0.0256901 0
1.19354 -0.0183735 0
1.2838 0.110334 0
1.9526 -0.0927325 0
1.11539 -0.000564235 0
1.10748 0.0436694 0
1.86876 -0.186445 0
1.25123 0.214488 0
1.00336 0.0387551 0
0.999382 0.0611218 0
1.28575 -0.114335 0
1.0195 0.195301 0
1.19956 0.175732 0
0.863401 -0.0301183 0
1.54069 0.21532 0
1.01676 -0.413459 0
0.964253 -0.0129054 0
1.02403 -0.0158916 0
1.0381 0.014861 0
0.781636 0.02584 0
0.49353 -0.0498543 0
1.02427 -0.413393 0
0.810509 -0.0417204 0
1.26596 0.0245832 0
1.16775 -0.0666155 0
1.33157 0.0302474 0
1.33176 0.0683203 0
1.17967 0.158259 0
0.854706 -0.060275 0
0.930864 -0.0671432 0
0.90123 -0.00879205 0
1.60212 -0.241732 0
1.00321 0.0308572 0
1.14941 0.0594957 0
0.830269 0.159282 0
0.912252 -0.0831653 0
2.0267 0.408827 0
1.33274 0.0707194 0
1.1225 0.0481348 0
1.12694 -0.000497311 0
1.50457 -0.108277 0
1.04738 -0.0438653 0
2.067 0.00186417 0
1.10627 -0.0922189 0
0.978174 -0.0207738 0
-0.657697 -0.3396 0
0.0331905 -0.211471 0
0.366992 0.0612969 0
1.44961 -0.00144006 0
0.895377 0.0435716 0
1.22796 -0.0900498 0
3.31642 0.212573 0
1.61331 0.55515 0
0.669962 -0.03197 0
1.32755 0.000765295 0
0.828114 -0.0166765 0
1.00429 -0.059851 0
1.12801 0.0123456 0
1.10192 0.0218974 0
1.45517 0.0955119 0
1.95228 0.089162 0
1.09243 -0.0199119 0
1.05248 -0.048585 0
1.09579 -0.00726043 0
0.901671 -0.0215597 0
2.02686 -0.410681 0
0.987318 0.0736879 0
1.14586 -0.127403 0
0.831336 0.160972 0
-0.647991 -0.152716 0
-0.654084 2.70398e-06 0
0.12466 -0.0843063 0
1.00449 0.102541 0
1.12901 0.011536 0
1.95882 0.201937 0
1.00368 0.0432368 0
0.875011 -0.00576185 0
0.912871 -0.00416189 0
1.0376 -0.0151365 0
1.04096 0.0134647 0
0.791042 0.0128361 0
-0.329082 0.526589 0
2.43433 0.550288 0
2.43421 -0.550806 0
0.574641 -0.179598 0
0.648918 -0.33907 0
1.3658 0.035502 0
1.14585 0.127341 0
1.26579 -0.0247063 0
1.19457 0.0183262 0
0.648921 0.339085 0
1.19371 0.018329 0
1.17498 -0.0368947 0
1.40871 -0.00120276 0
1.22808 0.0903555 0
2.1733 -0.00178731 0
1.46382 0.412982 0
1.95217 -0.0891555 0
1.10527 0.0897496 0
1.09509 0.0824865 0
1.00847 0.114721 0
0.839719 -0.0674044 0
1.46384 -0.412973 0
0.99237 0.0839525 0
-0.12475 0.457979 0
0.866701 0.128612 0
1.00523 0.156419 0
-0.336051 -0.533018 0
2.13545 -0.449786 0
-0.341595 0.129859 0
0.670717 0.0714431 0
1.21692 7.90282e-05 0
0.828555 0.0372784 0
1.60067 -0.238678 0
-0.481935 3.85551e-06 0
0.29792 0.0691593 0
0.877821 0.11503 0
0.25283 0.300575 0
1.0072 0.271399 0
1.6948 0.145652 0
0.764016 -0.220353 0
0.764031 0.220366 0
1.53034 0.454756 0
2.32254 -0.278173 0
1.0041 -0.0742044 0
1.07781 -0.0667466 0
0.911202 -0.0183705 0
1.06601 0.0599337 0
0.99816 -0.0543434 0
1.00618 -0.114417 0
0.895967 -0.00491927 0
-0.308298 0.0713384 0
2.82675 0.376821 0
-0.203737 5.8581e-06 0
1.26719 0.0568648 0
1.36682 0.0784663 0
1.17699 0.0369134 0
0.895443 -0.0435609 0
0.916901 -0.0351329 0
1.0038 -0.0536507 0
1.17581 0.0166582 0
1.14005 0.0300553 0
1.17405 -0.000208177 0
1.11114 0.0432023 0
1.12687 -0.0271691 0
1.24074 -0.0500845 0
1.50241 -0.0489705 0
1.10272 -0.0101862 0
1.2082 -0.0827561 0
0.991612 -0.0836651 0
1.00719 -0.271379 0
0.910795 0.00968238 0
0.994932 0.369365 0
3.02476 -0.000729104 0
0.997886 0.0543933 0
0.534315 -0.409995 0
1.33153 -0.0302864 0
0.827802 0.17858 0
0.634895 -0.0210664 0
0.742412 -0.0125412 0
0.890858 -0.0107907 0
1.0028 -0.0158284 0
0.238352 0.0360161 0
1.73709 0.603171 0
0.0276139 -0.0953482 0
0.591168 -9.12605e-06 0
0.798363 0.0833785 0
0.736358 0.0258472 0
1.12782 -0.0124398 0
1.62878 -0.131439 0
1.85106 0.0018928 0
1.0167 0.302066 0
1.2472 0.218977 0
1.74714 -0.300889 0
1.01479 0.413695 0
0.670583 -0.303137 0
0.997988 0.0443532 0
1.00835 0.158267 0
0.515709 -0.451467 0
0.624144 0.0318585 0
1.73236 -0.605722 0
-0.124752 -0.457976 0
0.0331963 0.211483 0
0.368015 -0.136754 0
0.543822 -0.098994 0
0.546919 -6.98866e-06 0
0.636105 0.0802138 0
0.777877 0.0933611 0
0.704821 -1.04447e-05 0
0.903764 0.0928622 0
1.10621 0.0921577 0
0.810476 0.0417034 0
1.16766 0.0665497 0
1.45643 0.0441671 0
0.829924 1.02235e-05 0
0.950549 -0.0485149 0
1.05722 -0.048256 0
1.21707 -0.000151254 0
1.19505 -0.0411744 0
1.17524 0.0368505 0
1.50342 -0.105946 0
1.69086 -0.0639451 0
1.17565 -0.0167164 0
1.08964 0.0347032 0
1.00598 0.372316 0
1.20543 0.0809796 0
1.33279 -0.0708327 0
1.62738 0.0581693 0
1.50289 0.10648 0
1.86496 -0.0805452 0
1.62936 0.131441 0
1.02426 0.413404 0
1.54 -0.215207 0
1.86825 -0.182979 0
1.00626 -0.196376 0
1.00292 0.101419 0
0.884463 0.0486789 0
2.61922 0.00125591 0
2.65126 -0.156205 0
1.20597 -0.0809136 0
1.00246 -0.139332 0
0.532579 0.41046 0
0.692568 0.129521 0
1.00522 0.141868 0
1.0571 0.0482319 0
1.00402 0.0741646 0
0.736525 -0.0283583 0
0.125385 0.187371 0
1.00598 -0.372301 0
1.20814 0.0826802 0
1.33234 0.0319855 0
1.24133 -0.0223372 0
0.786936 -3.48135e-06 0
1.14248 -0.0296446 0
1.17422 0.000144574 0
1.62742 -0.0579586 0
1.45586 -0.0952861 0
1.14199 0.0129812 0
1.31342 0.124097 0
1.69409 -0.145731 0
1.86509 0.080628 0
1.60062 0.238955 0
0.968061 0.031285 0
1.27843 0.243323 0
0.993544 -0.368897 0
1.82999 0.328924 0
1.53035 -0.454752 0
1.00628 0.19638 0
0.94378 -0.0484364 0
1.00453 -0.102592 0
1.23002 -0.0919839 0
-0.307219 -0.0710999 0
0.238253 -0.0331653 0
0.479419 -0.0301866 0
0.682676 -0.0407896 0
-1.14785 0.201107 0
-0.657695 0.339602 0
-0.205235 0.114504 0
0.692561 -0.129533 0
0.63462 -0.0358908 0
0.67315 -1.1109e-05 0
1.56175 0.00126428 0
0.828096 0.0166862 0
0.862922 -0.0134502 0
1.24244 -0.0230613 0
1.16467 -0.0664885 0
1.33244 -0.0320752 0
1.08615 0.0353347 0
1.09554 -0.0185445 0
0.900568 0.0101839 0
1.03474 -0.0317915 0
1.00488 -0.266927 0
2.17323 0.00181001 0
1.093 0.000927236 0
1.27989 0.239418 0
1.01205 0.21907 0
1.39323 -0.158039 0
1.01766 -0.302359 0
0.86383 -0.125585 0
1.54204 -0.21846 0
0.720472 0.115483 0
0.791219 -0.0128062 0
0.940205 -0.00465055 0
0.557673 0.0169567 0
1.02685 -0.668649 0
2.43433 -0.550287 0
0.340424 -0.550549 0
0.411233 0.247871 0
0.216576 5.17857e-06 0
0.912205 0.0831274 0
1.22997 0.0918995 0
0.863363 0.030136 0
1.01766 0.30238 0
1.45539 0.0414392 0
1.5616 -0.00128869 0
1.6909 0.0641488 0
1.7737 -0.00174222 0
0.745985 -0.246704 0
1.3387 0.29942 0
1.95874 -0.201819 0
2.19424 -0.112291 0
2.313 -0.123853 0
0.95045 0.0485249 0
2.19454 -0.11572 0
2.47272 -0.00149269 0
2.31311 0.1238 0
1.13303 0.111413 0
1.83042 -0.331579 0
2.65133 0.158444 0
0.693776 -0.0172642 0
0.964015 0.0139598 0
0.694433 0.0171977 0
2.43421 0.550806 0
-0.329033 -0.526666 0
-0.204881 -0.252726 0
-0.205238 -0.114493 0
0.0276181 0.0953616 0
0.124664 0.0843194 0
1.40857 0.00102496 0
1.50249 0.0488961 0
1.45548 -0.0418161 0
1.50463 0.108303 0
1.36683 -0.078596 0
1.39406 -0.155175 0
2.19433 0.112269 0
1.10745 -0.043714 0
2.47264 0.0014802 0
-0.204877 0.252734 0
-0.64799 0.152721 0
1.0039 -0.114354 0
0.574653 0.179607 0
0.869813 0.0155627 0
0.742018 0.012297 0
0.736883 0.0282355 0
0.636731 0.0201539 0
1.02983 -0.66608 0
1.73775 -0.603091 0
0.301687 -0.154125 0
0.366987 -0.0612921 0
0.371773 1.45834e-06 0
0.493533 0.0498483 0
0.495894 0.111394 0
0.542874 0.0442799 0
0.634615 0.0358694 0
0.777892 -0.0933925 0
0.762339 0.0515801 0
0.761748 0.023071 0
1.13091 0.114408 0
1.24231 0.0229814 0
1.44955 0.00112791 0
1.45744 0.0977175 0
1.19472 -0.0183865 0
1.23891 -0.000318995 0
1.15808 -0.000330878 0
1.13994 -0.0301143 0
0.876026 0.0121709 0
1.14884 -0.0596624 0
1.15206 -0.0598704 0
1.32766 -0.000872187 0
1.24099 0.0498708 0
1.3651 0.0335685 0
1.8511 -0.00178068 0
2.06708 -0.00180716 0
1.86826 0.183006 0
0.964721 0.0350034 0
1.0524 0.0485705 0
1.6021 0.241763 0
1.09581 -0.0828222 0
1.95912 -0.205464 0
1.09414 -0.0826855 0
1.00076 -0.0277212 0
1.1287 -0.112577 0
1.17965 -0.158277 0
1.00833 -0.158289 0
0.411224 -0.247855 0
0.877215 -0.115558 0
2.02668 -0.408825 0
-0.0829946 -0.387328 0
1.0946 0.0187955 0
0.364214 -0.609788 0
-0.8397 0.175532 0
-0.0321172 -0.403828 0
-0.332309 -0.28602 0
-0.839701 -0.175529 0
-0.341598 -0.12985 0
-0.0803685 6.46929e-06 0
0.368024 0.136765 0
1.2798 -0.238818 0
0.955097 0.0434635 0
1.00717 0.267804 0
1.26562 -0.0553 0
1.24719 -0.218957 0
0.998201 0.0393504 0
0.781976 -0.0258791 0
0.852664 -0.00856386 0
0.945032 -0.00962843 0
1.04551 -0.0142781 0
0.957022 0.0143813 0
0.87502 0.00574917 0
0.890281 0.0103879 0
-1.03054 5.64948e-07 0
0.301696 0.154139 0
0.462147 0.220496 0
0.297915 -0.0691503 0
0.73735 -0.0578202 0
1.00615 0.114365 0
1.61817 0.0014256 0
1.62809 0.0610572 0
0.809829 -0.0186625 0
0.93718 -0.060135 0
1.17712 -0.0369698 0
1.12721 0.000446265 0
1.19338 0.0404616 0
1.77371 0.00182186 0
1.14078 -0.0137525 0
0.745997 0.24672 0
1.24261 -0.0512378 0
1.2657 0.0550893 0
1.10182 -0.0220341 0
1.43674 -0.171655 0
1.06255 -0.026022 0
1.03485 0.0317544 0
1.38539 -0.334676 0
1.00298 0.0259655 0
1.00265 -0.101185 0
0.830256 -0.159292 0
1.00141 0.028819 0
-0.819784 -0.389646 0
1.61331 -0.555149 0
0.125378 -0.187358 0
0.612459 -0.159896 0
0.542873 -0.044292 0
1.00492 0.0827042 0
1.26671 0.0256021 0
1.15196 0.0598113 0
1.23877 0.000239135 0
0.828592 -0.037286 0
0.955208 -0.0434135 0
1.11128 -0.0432442 0
1.1422 -0.0129932 0
0.964795 -0.0350935 0
1.19308 -0.0405807 0
1.17675 0.016382 0
1.12927 0.0265117 0
1.10407 0.021136 0
0.924769 0.0314275 0
1.25117 -0.214179 0
0.888891 0.000590122 0
1.74646 -0.297776 0
0.998554 0.503064 0
1.10504 -0.0901783 0
1.27843 -0.243297 0
1.09455 0.00769776 0
1.43605 -0.175291 0
1.04201 0.0347492 0
1.06558 0.024796 0
1.00498 -0.0827495 0
1.05177 0.0432514 0
1.07029 0.0598718 0
1.00369 0.0536393 0
-1.14785 -0.201108 0
0.129348 6.24651e-06 0
1.19493 0.0411089 0
0.670588 0.303154 0
1.69144 0.0675557 0
1.14234 0.0296023 0
1.38538 0.334695 0
1.62804 -0.0610087 0
0.462137 -0.220481 0
1.11571 0.000534985 0
1.09261 0.0198474 0
1.3842 0.330528 0
1.33658 -0.299676 0
1.54203 0.218493 0
2.32253 -0.280839 0
1.09327 -0.000559272 0
0.815904 0.178251 0
0.895645 0.00456743 0
0.684672 0.0410917 0
-1.25902 -3.62913e-07 0
0.252825 -0.300562 0
0.543829 0.0989892 0
0.669954 0.0319471 0
0.737332 0.0577933 0
0.83968 0.0673749 0
1.24252 0.0511587 0
1.50161 -0.0464924 0
0.761763 -0.0230877 0
0.736371 -0.0258684 0
0.809811 0.0186604 0
0.862875 0.0135213 0
1.0704 -0.0599105 0
1.1769 -0.0164352 0
1.24151 0.0222279 0
1.2978 -0.000656964 0
0.876109 -0.0119827 0
1.26728 -0.0569476 0
0.184688 0.337969 0
0.901477 0.0217733 0
0.940185 0.0252589 0
1.0385 0.0350738 0
1.16532 0.0662975 0
1.38188 -0.330898 0
1.01204 -0.219058 0
0.930798 0.0671144 0
0.937106 0.0601145 0
0.762362 -0.0516054 0
1.07307 0.0653977 0
0.340425 0.550552 0
1.07771 0.0667007 0
0.870067 -0.015472 0
0.536588 -0.411058 0
0.85466 0.0602504 0
0.764189 -6.73976e-06 0
1.0386 -0.0352145 0
0.513311 0.458682 0
0.986655 -0.0734754 0
2.19693 0.253212 0
0.199948 -0.0966413 0
0.184684 -0.337958 0
0.876423 0.0269724 0
0.877478 0.000149321 0
0.536589 0.411068 0
1.0126 -0.301441 0
1.20118 -0.176073 0
1.03819 0.0310104 0
0.612472 0.159899 0
1.00419 0.0598262 0
0.852494 0.00855283 0
1.09574 0.0827652 0
0.924839 -0.0314216 0
1.7467 0.297829 0
0.949091 -0.0450326 0
0.908964 -0.0088451 0
0.433831 -1.23634e-06 0
0.884523 -0.0486868 0
1.43738 0.171605 0
1.0294 0.666129 0
2.13572 0.448904 0
0.720471 -0.115503 0
0.670724 -0.0714662 0
1.08139 0.0310427 0
1.33999 0.302118 0
1.36589 -0.0356051 0
1.61808 -0.00132698 0
1.39371 0.155811 0
0.815889 -0.178252 0
0.943469 0.0484616 0
0.086777 -0.0531555 0
0.340401 -0.611766 0
0.910723 0.0193773 0
1.11896 -0.0487912 0
1.02566 -0.557132 0
0.916862 0.0351786 0
1.07263 -0.0654197 0
1.09341 -0.00890139 0
3.31642 -0.212577 0
1.10299 0.0101488 0
2.61928 -0.00129399 0
2.65136 -0.158459 0
0.513311 -0.458675 0
1.12924 -0.0115317 0
1.4564 -0.0443208 0
1.10427 -0.0210135 0
1.10385 0.00897735 0
3.31643 0.212199 0
0.636107 -0.0802323 0
1.02566 0.557135 0
0.866704 -0.128645 0
1.12944 -0.0265265 0
1.50133 0.0463395 0
0.363576 0.609702 0
1.06581 -0.0599445 0
0.998558 -0.503058 0
0.495886 -0.111393 0
1.00522 -0.141905 0
0.877836 -0.115068 0
1.05195 -0.0432751 0
1.09371 0.00909647 0
2.6513 0.156161 0
1.0005 0.032137 0
0.999436 -0.0610585 0
1.00358 -0.0386701 0
2.80579 -0.172956 0
1.52944 0.451551 0
1.46302 0.41093 0
2.82696 0.37589 0
2.80576 0.171174 0
2.63591 -0.347164 0
2.32234 0.278298 0
2.82675 -0.376826 0
1.00392 -0.0432154 0
1.61874 0.553499 0
1.08174 -0.0309391 0
0.514141 0.450858 0
2.63605 0.345642 0
1.08981 -0.034704 0
1.04245 -0.034534 0
0.998879 0.500574 0
0.372597 0.560439 0
1.03851 -0.029615 0
1.03182 0.559381 0
-0.150235 0.464004 0
-0.0827956 0.386895 0
0.641096 0.189601 0
1.0237 -0.195184 0
0.924112 -0.0192597 0
0.477058 0.0296555 0
1.01609 0.0177231 0
1.02999 0.0251009 0
1.00086 -0.0215879 0
1.07566 0.0151661 0
0.931365 -0.000382562 0
0.938651 -0.0250818 0
0.972124 0.0175987 0
0.975572 0.0245468 0
0.979273 0.0160204 0
0.955485 -0.0177465 0
1.02603 0.0157868 0
0.929019 0.0160395 0
0.944197 0.00979151 0
1.07831 0.0148482 0
1.05964 0.00959567 0
1.02195 -0.0172158 0
1.0758 -0.01619 0
1.05689 -0.0110338 0
1.03106 0.0243851 0
1.02645 -0.0258377 0
1.0047 -0.0307953 0
1.00671 -0.155384 0
1.20353 -0.174921 0
0.946433 -0.0261889 0
0.831061 -0.18006 0
0.956947 -0.0155477 0
0.537898 0.0535136 0
1.0577 0.0225237 0
0.996352 0.017468 0
1.02559 -0.0175067 0
1.08526 0.000303058 0
0.967951 -0.032629 0
0.939608 -0.0110728 0
0.940178 0.004733 0
1.00257 0.013811 0
0.945149 0.0232596 0
1.07288 -0.00121012 0
1.06295 -0.00564987 0
1.06405 0.00390093 0
1.06064 0.0229046 0
0.997135 -0.0154872 0
1.05702 -0.024271 0
1.17927 -0.156325 0
1.07676 0.00604575 0
1.04814 -0.0181815 0
1.07793 -0.00651525 0
0.924419 -0.00848904 0
0.463486 0.159531 0
0.53761 -0.101065 0
0.973349 0.0263432 0
0.451981 0.0534906 0
1.03072 -0.215106 0
0.793686 0.217388 0
0.747796 -0.0657785 0
0.750745 0.0674351 0
0.939653 -0.0164317 0
0.907852 0.00822775 0
0.464774 0.216329 0
0.0472332 -0.213736 0
0.331876 -0.0607982 0
0.455105 -0.0560939 0
0.536 0.0998598 0
0.331145 0.0621873 0
0.868627 -0.0296674 0
0.868279 0.029661 0
0.911774 -0.0824942 0
0.913176 0.0826811 0
0.845861 -0.0141063 0
0.812973 -0.0207088 0
0.812695 0.0207543 0
0.845603 0.0140883 0
0.6473 -0.190131 0
-0.366671 0.118713 0
-0.365601 -0.119132 0
0.619424 -0.0344601 0
0.535367 -0.0516934 0
0.974632 -0.0176355 0
0.968817 -0.0330895 0
0.968356 0.0327474 0
0.886769 0.121879 0
-0.165289 -0.13229 0
0.044612 -0.0865434 0
0.0479987 0.214098 0
-0.60475 -0.372913 0
0.924531 -0.00267823 0
-1.15761 -0.226805 0
-1.25187 0.0330575 0
-1.25189 -0.0330339 0
-1.15763 0.226808 0
0.93336 -0.00526922 0
-0.604789 0.373045 0
1.06352 -0.0199048 0
1.05956 -0.00705211 0
1.06295 0.00788847 0
0.908406 -0.00641547 0
0.923361 -0.0161553 0
0.9232 0.0717836 0
0.922901 -0.0716225 0
0.796601 -0.216053 0
0.923643 0.0160444 0
0.936956 0.0171313 0
0.933492 0.00503439 0
0.925064 0.00278987 0
-0.163071 0.132164 0
0.938642 -0.0623883 0
0.938565 0.0624814 0
1.04484 -0.0237282 0
1.07043 -0.00189453 0
1.07044 0.00535985 0
0.920483 -0.0132242 0
0.460054 -0.159901 0
0.360643 -0.157379 0
0.765041 0.244055 0
0.764795 -0.243275 0
0.822309 -0.0424573 0
0.821814 0.0424172 0
0.912451 0.00365703 0
-0.648055 0.183993 0
-0.648017 -0.184247 0
0.36527 -0.0266902 0
0.971323 -0.0262289 0
0.364173 0.0252916 0
0.911098 -0.0956931 0
0.912361 0.0957264 0
0.0451031 0.0861143 0
0.818822 -0.00637192 0
0.818685 0.00637945 0
-0.581574 0.0478328 0
-0.581299 -0.0480141 0
-0.325499 0.304888 0
-0.325585 -0.30537 0
0.554959 -0.0160034 0
-0.098692 0.0375746 0
0.962965 -0.0366391 0
0.962834 0.0364482 0
0.902801 0.115222 0
-0.101349 -0.0381668 0
0.172352 0.185005 0
0.941277 -0.0122232 0
0.944208 -0.0300719 0
0.943888 0.0292051 0
0.931947 0.0126617 0
0.940422 0.0116622 0
-0.733197 -0.423563 0
-0.733258 0.423582 0
0.920653 -0.00738757 0
0.418729 -0.108617 0
1.08163 -0.0127255 0
1.06138 -0.0117409 0
1.05412 0.012493 0
0.910123 0.00322708 0
0.420019 0.110404 0
0.668825 0.16629 0
0.90566 -0.0180734 0
0.905314 0.018117 0
0.934807 -0.0135388 0
0.674056 -0.167918 0
0.920502 0.00689842 0
0.532194 -0.120281 0
0.529644 0.121266 0
0.914265 -0.025393 0
0.914721 0.0251579 0

SCALARS pressure double 1
LOOKUP_TABLE default
0.481752
0.481755
0.397163
0.438876
0.49767
0.494231
0.134461
0.49252
0.49254
0.484449
0.501693
0.488159
0.499046
0.499578
0.499441
0.503896
0.501064
0.487414
0.491746
0.500651
0.506299
0.491074
0.489708
0.489049
0.492847
0.50192
0.504442
0.502646
0.498452
0.503265
0.497384
0.0145523
0.496194
0.493368
0.465636
0.465119
0.493993
0.490412
0.486352
0.49224
-0.0746181
0.377775
0.462113
0.460913
0.0732528
0.20751
-1.30991
-1.30986
0.422697
-0.473899
-0.469887
0.404973
0.366198