# vtk DataFile Version 3.0
Malha 2D com triângulos: velocidade e pressão
ASCII
DATASET UNSTRUCTURED_GRID

POINTS 4030 double
-0.5 0 0
1.5 0 0
1.5 2 0
-0.5 2 0
-0.465517 0 0
-0.431034 0 0
-0.396552 0 0
-0.362069 0 0
-0.327586 0 0
-0.293103 0 0
-0.258621 0 0
-0.224138 0 0
-0.189655 0 0
-0.155172 0 0
-0.12069 0 0
-0.0862069 0 0
-0.0517241 0 0
-0.0172414 0 0
0.0172414 0 0
0.0517241 0 0
0.0862069 0 0
0.12069 0 0
0.155172 0 0
0.189655 0 0
0.224138 0 0
0.258621 0 0
0.293103 0 0
0.327586 0 0
0.362069 0 0
0.396552 0 0
0.431034 0 0
0.465517 0 0
0.5 0 0
0.534483 0 0
0.568966 0 0
0.603448 0 0
0.637931 0 0
0.672414 0 0
0.706897 0 0
0.741379 0 0
0.775862 0 0
0.810345 0 0
0.844828 0 0
0.87931 0 0
0.913793 0 0
0.948276 0 0
0.982759 0 0
1.01724 0 0
1.05172 0 0
1.08621 0 0
1.12069 0 0
1.15517 0 0
1.18966 0 0
1.22414 0 0
1.25862 0 0
1.2931 0 0
1.32759 0 0
1.36207 0 0
1.39655 0 0
1.43103 0 0
1.46552 0 0
1.5 0.0344828 0
1.5 0.0689655 0
1.5 0.103448 0
1.5 0.137931 0
1.5 0.172414 0
1.5 0.206897 0
1.5 0.241379 0
1.5 0.275862 0
1.5 0.310345 0
1.5 0.344828 0
1.5 0.37931 0
1.5 0.413793 0
1.5 0.448276 0
1.5 0.482759 0
1.5 0.517241 0
1.5 0.551724 0
1.5 0.586207 0
1.5 0.62069 0
1.5 0.655172 0
1.5 0.689655 0
1.5 0.724138 0
1.5 0.758621 0
1.5 0.793103 0
1.5 0.827586 0
1.5 0.862069 0
1.5 0.896552 0
1.5 0.931034 0
1.5 0.965517 0
1.5 1 0
1.5 1.03448 0
1.5 1.06897 0
1.5 1.10345 0
1.5 1.13793 0
1.5 1.17241 0
1.5 1.2069 0
1.5 1.24138 0
1.5 1.27586 0
1.5 1.31034 0
1.5 1.34483 0
1.5 1.37931 0
1.5 1.41379 0
1.5 1.44828 0
1.5 1.48276 0
1.5 1.51724 0
1.5 1.55172 0
1.5 1.58621 0
1.5 1.62069 0
1.5 1.65517 0
1.5 1.68966 0
1.5 1.72414 0
1.5 1.75862 0
1.5 1.7931 0
1.5 1.82759 0
1.5 1.86207 0
1.5 1.89655 0
1.5 1.93103 0
1.5 1.96552 0
1.46552 2 0
1.43103 2 0
1.39655 2 0
1.36207 2 0
1.32759 2 0
1.2931 2 0
1.25862 2 0
1.22414 2 0
1.18966 2 0
1.15517 2 0
1.12069 2 0
1.08621 2 0
1.05172 2 0
1.01724 2 0
0.982759 2 0
0.948276 2 0
0.913793 2 0
0.87931 2 0
0.844828 2 0
0.810345 2 0
0.775862 2 0
0.741379 2 0
0.706897 2 0
0.672414 2 0
0.637931 2 0
0.603448 2 0
0.568966 2 0
0.534483 2 0
0.5 2 0
0.465517 2 0
0.431034 2 0
0.396552 2 0
0.362069 2 0
0.327586 2 0
0.293103 2 0
0.258621 2 0
0.224138 2 0
0.189655 2 0
0.155172 2 0
0.12069 2 0
0.0862069 2 0
0.0517241 2 0
0.0172414 2 0
-0.0172414 2 0
-0.0517241 2 0
-0.0862069 2 0
-0.12069 2 0
-0.155172 2 0
-0.189655 2 0
-0.224138 2 0
-0.258621 2 0
-0.293103 2 0
-0.327586 2 0
-0.362069 2 0
-0.396552 2 0
-0.431034 2 0
-0.465517 2 0
-0.5 1.96552 0
-0.5 1.93103 0
-0.5 1.89655 0
-0.5 1.86207 0
-0.5 1.82759 0
-0.5 1.7931 0
-0.5 1.75862 0
-0.5 1.72414 0
-0.5 1.68966 0
-0.5 1.65517 0
-0.5 1.62069 0
-0.5 1.58621 0
-0.5 1.55172 0
-0.5 1.51724 0
-0.5 1.48276 0
-0.5 1.44828 0
-0.5 1.41379 0
-0.5 1.37931 0
-0.5 1.34483 0
-0.5 1.31034 0
-0.5 1.27586 0
-0.5 1.24138 0
-0.5 1.2069 0
-0.5 1.17241 0
-0.5 1.13793 0
-0.5 1.10345 0
-0.5 1.06897 0
-0.5 1.03448 0
-0.5 1 0
-0.5 0.965517 0
-0.5 0.931034 0
-0.5 0.896552 0
-0.5 0.862069 0
-0.5 0.827586 0
-0.5 0.793103 0
-0.5 0.758621 0
-0.5 0.724138 0
-0.5 0.689655 0
-0.5 0.655172 0
-0.5 0.62069 0
-0.5 0.586207 0
-0.5 0.551724 0
-0.5 0.517241 0
-0.5 0.482759 0
-0.5 0.448276 0
-0.5 0.413793 0
-0.5 0.37931 0
-0.5 0.344828 0
-0.5 0.310345 0
-0.5 0.275862 0
-0.5 0.241379 0
-0.5 0.206897 0
-0.5 0.172414 0
-0.5 0.137931 0
-0.5 0.103448 0
-0.5 0.0689655 0
-0.5 0.0344828 0
0.483811 1.96948 0
-0.466251 0.986419 0
0.520484 0.0309411 0
1.47014 1.01724 0
-0.470137 1.22414 0
0.273954 0.0289513 0
1.47014 0.775862 0
0.723905 1.96517 0
0.724053 0.0303731 0
-0.470137 0.775862 0
1.47014 1.22414 0
0.275052 1.97657 0
0.92923 0.0273914 0
-0.470137 0.568966 0
1.47014 1.43103 0
0.0679221 1.96907 0
0.0680363 0.0308282 0
1.47014 0.568966 0
0.929018 1.97253 0
-0.469267 1.4307 0
-0.465806 0.400257 0
1.47014 1.60345 0
-0.107705 1.96721 0
1.10254 0.0293368 0
1.10273 1.9692 0
1.47014 0.396552 0
-0.465806 1.59974 0
-0.107705 0.0327885 0
1.47014 1.74138 0
-0.237051 1.96722 0
-0.470137 0.258621 0
1.24138 0.0298629 0
1.24138 1.97014 0
-0.470137 1.74138 0
1.47014 0.258621 0
-0.237051 0.0327844 0
-0.470137 1.08621 0
0.418779 0.0327669 0
0.586247 1.97196 0
0.377139 1.97542 0
-0.466251 0.87565 0
1.47014 1.12069 0
0.621209 0.0274849 0
1.47014 0.87931 0
1.47014 0.672414 0
0.827586 1.97133 0
0.826971 0.0274 0
-0.470137 0.672414 0
-0.470137 1.32759 0
0.174101 0.0280714 0
1.47014 1.32759 0
0.174419 1.9754 0
1.47014 1.84483 0
-0.348071 1.96715 0
-0.470137 0.155172 0
1.34277 0.030771 0
1.34374 1.97077 0
-0.469267 1.8445 0
-0.348071 0.0328497 0
1.47014 0.155172 0
1.17241 1.97014 0
1.0347 0.030076 0
-0.466251 1.53814 0
-0.470137 1.15517 0
1.03448 1.97086 0
-0.471462 1.67096 0
0.653485 1.96923 0
1.47014 1.53448 0
-0.470137 0.465517 0
1.47014 0.5 0
1.47014 0.327586 0
-0.172376 0.0312577 0
1.47014 0.948276 0
0.345637 0.0293668 0
0.00331644 0.032845 0
-0.0344828 1.97014 0
-0.466251 0.323926 0
-0.172376 1.96874 0
1.17458 0.0275167 0
1.47014 1.67241 0
1.41707 0.0310695 0
1.47014 1.91379 0
-0.412868 1.96883 0
-0.470137 0.0862069 0
-0.412868 0.031175 0
-0.466125 1.91759 0
1.41678 1.96909 0
1.4703 0.0864887 0
1.47014 1.77586 0
1.44027 1.75862 0
1.44027 1.72414 0
1.41041 1.74138 0
1.41041 1.7069 0
1.38055 1.72414 0
1.38055 1.68966 0
1.35069 1.7069 0
1.35069 1.67241 0
1.32082 1.68966 0
1.32082 1.65517 0
1.29096 1.67241 0
1.29096 1.63793 0
1.2611 1.65517 0
1.2611 1.62069 0
1.23123 1.63793 0
1.23123 1.60345 0
1.20137 1.62069 0
1.20137 1.58621 0
1.17151 1.60345 0
1.17151 1.56897 0
1.14164 1.58621 0
1.14164 1.55172 0
1.11178 1.56897 0
1.11178 1.53448 0
1.08192 1.55172 0
1.08192 1.51724 0
1.05206 1.53448 0
1.05206 1.5 0
1.02219 1.51724 0
1.02219 1.48276 0
0.99233 1.5 0
0.99233 1.46552 0
0.962467 1.48276 0
0.962467 1.44828 0
0.932604 1.46552 0
0.932604 1.43103 0
0.902741 1.44828 0
0.902741 1.41379 0
0.872878 1.43103 0
0.872878 1.39655 0
0.843015 1.41379 0
0.843015 1.37931 0
0.813152 1.39655 0
0.813152 1.36207 0
0.783289 1.37931 0
0.783289 1.34483 0
0.753426 1.36207 0
0.753426 1.32759 0
0.723563 1.34483 0
0.723563 1.31034 0
0.6937 1.32759 0
0.6937 1.2931 0
0.663838 1.31034 0
0.663838 1.27586 0
0.633975 1.2931 0
0.633975 1.25862 0
0.604112 1.27586 0
0.604112 1.24138 0
0.633975 1.22414 0
0.604112 1.2069 0
0.633975 1.18966 0
0.604112 1.17241 0
0.633975 1.15517 0
0.604112 1.13793 0
0.633975 1.12069 0
0.604112 1.10345 0
0.633975 1.08621 0
0.604112 1.06897 0
0.633975 1.05172 0
0.604112 1.03448 0
0.633975 1.01724 0
0.574249 1.25862 0
0.574249 1.05172 0
0.574249 1.01724 0
0.544386 1.03448 0
0.544386 1 0
0.514523 1.01724 0
0.514523 0.982759 0
0.48466 1 0
0.48466 0.965517 0
0.454797 0.982759 0
0.454797 0.948276 0
0.48466 0.931034 0
0.454797 0.913793 0
0.48466 0.896552 0
0.454797 0.87931 0
0.424934 0.931034 0
0.48466 0.862069 0
0.454797 0.844828 0
0.48466 0.827586 0
0.454797 0.810345 0
0.48466 0.793103 0
0.454797 0.775862 0
0.872878 1.36207 0
0.48466 0.758621 0
0.454797 0.741379 0
0.424934 0.758621 0
0.48466 0.724138 0
0.424934 0.724138 0
0.395071 0.741379 0
0.395071 0.706897 0
0.365208 0.724138 0
0.574249 1.2931 0
0.544386 1.27586 0
0.365208 0.689655 0
0.335345 0.706897 0
0.544386 1.31034 0
0.514523 1.2931 0
0.514523 1.32759 0
0.48466 1.31034 0
0.335345 0.672414 0
0.305482 0.689655 0
0.48466 1.34483 0
0.454797 1.32759 0
0.305482 0.655172 0
0.275619 0.672414 0
0.663838 1.03448 0
0.275619 0.637931 0
0.245756 0.655172 0
0.335345 0.637931 0
0.454797 1.36207 0
0.424934 1.34483 0
0.245756 0.62069 0
0.215893 0.637931 0
0.215893 0.672414 0
0.18603 0.655172 0
0.18603 0.689655 0
0.18603 0.62069 0
0.424934 1.37931 0
0.395071 1.36207 0
0.156167 0.637931 0
0.663838 1 0
0.6937 1.01724 0
0.6937 0.982759 0
0.723563 1 0
0.723563 0.965517 0
0.753426 0.982759 0
0.753426 0.948276 0
0.783289 0.965517 0
0.783289 0.931034 0
0.813152 0.948276 0
0.813152 0.913793 0
0.843015 0.931034 0
0.843015 0.896552 0
0.99233 1.43103 0
0.395071 1.39655 0
0.365208 1.37931 0
0.753426 1.39655 0
0.156167 0.603448 0
0.126305 0.62069 0
0.872878 0.913793 0
0.872878 0.87931 0
0.365208 1.41379 0
0.335345 1.39655 0
0.424934 1.41379 0
0.126305 0.586207 0
0.335345 1.43103 0
0.305482 1.41379 0
0.305482 1.37931 0
0.275619 1.39655 0
0.275619 1.36207 0
0.245756 1.37931 0
0.245756 1.34483 0
0.215893 1.36207 0
0.215893 1.32759 0
0.18603 1.34483 0
0.18603 1.31034 0
0.18603 1.37931 0
0.156167 1.36207 0
0.156167 1.39655 0
0.126305 1.37931 0
0.126305 1.41379 0
0.0964416 1.39655 0
0.0964416 1.43103 0
0.0964416 0.603448 0
0.0964416 0.568966 0
0.902741 0.896552 0
0.902741 0.862069 0
0.126305 0.551724 0
0.0964416 0.534483 0
0.872878 1.46552 0
0.932604 0.87931 0
0.932604 0.844828 0
0.902741 0.827586 0
0.932604 0.810345 0
0.902741 0.793103 0
0.932604 0.775862 0
0.902741 0.758621 0
0.932604 0.741379 0
0.902741 0.724138 0
0.932604 0.706897 0
0.902741 0.689655 0
0.932604 0.672414 0
0.902741 0.655172 0
0.932604 0.637931 0
0.902741 0.62069 0
0.932604 0.603448 0
0.902741 0.586207 0
0.932604 0.568966 0
0.902741 0.551724 0
0.932604 0.913793 0
0.932604 0.534483 0
0.0665786 1.41379 0
0.0665786 1.37931 0
0.0665786 1.44828 0
0.0665786 0.586207 0
0.0665786 0.62069 0
0.902741 0.517241 0
0.126305 0.517241 0
0.962467 0.62069 0
0.962467 0.827586 0
0.0367157 1.39655 0
0.0367157 1.36207 0
0.0367157 0.603448 0
0.0367157 0.637931 0
0.0964416 1.46552 0
0.0665786 1.48276 0
0.0964416 1.5 0
0.0964416 0.5 0
0.932604 0.5 0
0.902741 0.482759 0
0.872878 0.5 0
0.126305 0.482759 0
0.0665786 1.51724 0
0.00685275 1.37931 0
0.00685275 1.34483 0
0.00685275 0.62069 0
0.00685275 0.655172 0
0.99233 1.53448 0
1.11178 1.5 0
0.872878 0.465517 0
0.843015 0.482759 0
0.0964416 1.53448 0
0.0964416 0.465517 0
0.932604 0.465517 0
0.962467 0.482759 0
0.126305 0.448276 0
-0.0230102 1.36207 0
-0.0230102 1.32759 0
-0.0230102 0.637931 0
-0.0230102 0.672414 0
0.962467 0.448276 0
0.99233 0.465517 0
0.843015 0.448276 0
0.813152 0.465517 0
0.0665786 1.55172 0
0.0964416 1.56897 0
0.99233 0.431034 0
1.02219 0.448276 0
0.813152 0.431034 0
0.783289 0.448276 0
0.0964416 0.431034 0
-0.0528731 1.34483 0
-0.0528731 1.31034 0
-0.0528731 0.655172 0
-0.0528731 0.689655 0
-0.0528731 0.62069 0
0.126305 0.413793 0
[...]
CELL_DATA 7826
VECTORS velocity double
0.445235 0.0546194 0
0.635805 -0.0281038 0
0.926567 -0.00523418 0
0.926389 0.00518466 0
0.71267 0.0222008 0
0.564282 -0.0406148 0
0.632742 -0.0342838 0
0.420857 0.0396935 0
0.865098 0.0221101 0
0.763704 0.0178942 0
0.875694 -0.0208045 0
0.925869 -0.00636169 0
0.925747 0.00633158 0
0.911595 -0.00646152 0
0.374582 -0.105997 0
0.688725 -0.0117059 0
0.847397 -0.0118222 0
0.769546 -0.00897049 0
0.558499 -0.0729239 0
0.470799 0.631516 0
0.313263 0.619099 0
2.33604 0.488634 0
2.45711 0.453214 0
-0.10285 0.56568 0
2.6992 -0.427594 0
0.00512582 0.583741 0
2.61093 -0.466041 0
-1.20045 -0.163898 0
-1.2727 -0.120597 0
0.291115 -0.624763 0
0.477286 -0.637598 0
1.28835 0.641559 0
1.47847 0.635696 0
3.30213 0.0438529 0
3.23522 0.0920266 0
2.58488 0.458573 0
1.45114 -0.638184 0
2.74581 0.426079 0
1.2811 -0.647835 0
0.864382 0.0103102 0
0.723702 0.0270301 0
-0.428251 -0.132786 0
-0.429768 0.132913 0
-0.640155 -0.124422 0
-0.641373 0.124654 0
-0.0609729 -0.0807576 0
-0.0617581 0.0807218 0
-0.178892 -0.112264 0
-0.179974 0.11236 0
0.559291 -0.0297325 0
0.900658 -0.00759094 0
0.761391 0.0219149 0
0.870175 0.0123924 0
-0.0205612 0.0411828 0
0.914876 -0.00793134 0
0.711167 0.0463038 0
0.814122 0.0305415 0
0.0737433 -0.0863918 0
0.544046 -0.0762146 0
-0.818362 -0.173014 0
-0.819328 0.171926 0
0.879478 -0.0198766 0
0.719102 0.0738612 0
0.94026 -0.644576 0
0.805564 -0.652752 0
-0.794672 -0.411563 0
-0.838935 -0.382328 0
1.29056 -0.6508 0
1.4252 -0.63571 0
-0.120573 -0.572377 0
2.9668 0.31772 0
2.94657 0.352506 0
-0.020356 -0.582544 0
-0.119703 -0.570333 0
-0.0208018 -0.581637 0
1.89425 0.604522 0
1.79847 0.613911 0
0.315463 0.624067 0
3.15182 0.225186 0
0.457206 0.646076 0
3.23173 -0.0949669 0
-1.00112 0.229117 0
-1.08722 0.182917 0
2.34441 -0.521285 0
3.18178 0.0218749 0
2.21169 -0.553239 0
3.29624 -0.0501187 0
-1.30162 -0.0237142 0
3.01746 -0.310309 0
3.13266 -0.0187106 0
0.806498 0.650787 0
-0.835789 -0.379691 0
0.945967 0.66273 0
-0.794318 -0.40882 0
2.08666 0.545811 0
-0.0305518 0.592313 0
-0.151334 0.566142 0
3.01232 0.311523 0
-0.406988 -0.527759 0
1.42615 0.645106 0
1.27141 0.654482 0
-0.549611 -0.491323 0
-0.624407 0.405626 0
-0.839738 0.336835 0
-0.863585 0.302647 0
-0.407463 0.524876 0
3.16846 -0.220062 0
3.16427 -0.182044 0
-1.12382 -0.262858 0
-1.01885 -0.310392 0
0.762206 0.655228 0
0.937804 0.656651 0
2.99204 -0.310279 0
2.94371 -0.354515 0
0.991121 -0.666617 0
0.815585 -0.660353 0
-0.550538 -0.493082 0
2.35522 -0.488694 0
0.464467 -0.649178 0
2.43096 -0.458571 0
-0.407957 -0.530042 0
2.34336 0.530273 0
3.20082 0.190402 0
3.10217 0.244154 0
2.17113 0.563314 0
0.314562 -0.627052 0
1.79939 -0.618563 0
1.9431 -0.600936 0
3.10628 -0.107389 0
1.76083 -0.609112 0
0.860747 0.0232157 0
3.14539 0.193369 0
-1.25762 0.0135966 0
-0.581316 0.436128 0
-0.475832 0.492187 0
3.13697 -0.139669 0
1.84309 -0.602472 0
2.92567 -0.343167 0
2.02036 0.555546 0
2.92225 0.343875 0
0.921176 0.0124283 0
0.395459 -0.103284 0
0.845776 -0.0144327 0
-1.00557 -0.314268 0
0.80775 0.03177 0
-0.442847 -0.0972665 0
-0.443948 0.0973909 0
0.708274 0.0605007 0
-1.12795 0.25379 0
-1.11846 -0.267846 0
-0.227825 -0.0816281 0
-0.228688 0.081693 0
0.718558 0.0589315 0
0.812104 0.0401148 0
-1.04521 0.289036 0
0.696052 -0.0063955 0
0.761538 -0.00489134 0
0.919173 0.0127543 0
0.68706 0.0652637 0
0.861277 0.0184187 0
0.898982 -0.00931642 0
0.00449112 0.0211862 0
0.69479 -0.0215536 0
0.638396 0.0316841 0
0.867381 -0.0174535 0
-0.970703 -0.182736 0
-0.969979 0.180601 0
0.775508 -0.0157473 0
-0.658416 -0.152146 0
-0.660089 0.152332 0
0.142755 -0.080511 0
0.142474 0.0812932 0
-0.0180911 -0.0981316 0
-0.0187429 0.0981988 0
0.32699 -0.0872565 0
0.399349 0.0592366 0
0.729256 0.0714302 0
0.904439 -0.00900208 0
0.699659 0.04691 0
0.881631 -0.0118205 0
0.0659563 -0.0630274 0
0.546061 -0.0606813 0
0.90392 -0.00341337 0
0.738481 -0.0244571 0
-0.896055 0.125071 0
-0.895281 -0.125594 0
-0.0744563 -0.0986452 0
-0.0753698 0.0986999 0
-0.573013 -0.1501 0
-0.574111 0.15043 0
0.677837 0.0688566 0
0.832621 -0.0170702 0
0.832426 0.0170356 0
-0.278209 -0.11868 0
-0.279431 0.118763 0
0.819031 0.039209 0
0.792045 0.0336644 0
-1.03548 -0.198953 0
-1.04239 0.191468 0
0.624062 0.0230419 0
-0.322384 -0.12418 0
-0.323643 0.124267 0
0.61007 0.0355139 0
0.757149 0.0643392 0
0.747 -0.0233088 0
0.91032 -0.00787166 0
0.610827 -0.0390337 0
-0.000206107 0.071573 0
0.171171 -0.0776991 0
0.597681 -0.0386214 0
0.597269 0.0381734 0
0.928858 0.00582416 0
0.651321 -0.03272 0
0.922018 -0.00742015 0
0.921951 0.00735744 0
0.170514 0.0782664 0
0.877087 0.0164339 0
0.91147 0.0180708 0
0.462929 0.0517563 0
0.37862 0.060311 0
0.704508 0.0384291 0
0.742257 0.0258644 0
0.929105 -0.00588382 0
0.862423 0.0124362 0
0.394609 0.0430568 0
0.881204 -0.00865401 0
0.748139 0.0254891 0
0.853394 -0.0140445 0
0.648395 0.0600221 0
0.920281 -0.00753184 0
0.815366 -0.0205111 0
0.740189 0.0555703 0
0.748729 0.0672377 0
0.905555 -0.00640456 0
0.807896 -0.0152804 0
0.824458 -0.0126213 0
0.824254 0.0125938 0
0.551892 -0.0427282 0
0.912096 0.0194561 0
0.836764 -0.0165641 0
0.763344 -0.0313321 0
0.772049 -0.0305008 0
0.450989 -0.0534613 0
0.464312 -0.0533325 0
-0.469421 -0.140074 0
-0.47096 0.139974 0
-0.141428 -0.112674 0
-0.142483 0.112735 0
0.708311 0.0266095 0
0.878316 -0.0119278 0
0.61027 -0.028906 0
-0.75951 -0.174405 0
-0.760975 0.173393 0
0.0479646 -0.0912494 0
0.836564 0.0164872 0
0.382121 -0.0854875 0
-0.982277 -0.130394 0
-0.982291 0.129681 0
0.772912 0.0211304 0
0.634286 0.0471461 0
0.920176 0.00740491 0
0.10493 -0.0584574 0
0.10428 0.0588227 0
0.921939 -0.00554256 0
0.921865 0.00550026 0
0.766856 -0.0220947 0
0.223025 -0.103483 0
0.251558 -0.10035 0
0.728983 0.0199582 0
0.645367 0.0442185 0
0.30581 -0.120813 0
0.234026 -0.0770173 0
0.891391 -0.0084242 0
0.668327 0.053504 0
0.330985 -0.116105 0
0.342746 -0.143893 0
0.678553 0.0507689 0
0.47195 -0.144563 0
0.367692 -0.172765 0
0.446718 -0.188066 0
0.31881 -0.149333 0
0.994327 0.0240253 0
0.985323 0.0221423 0
1.02364 0.0236574 0
1.01534 0.0270559 0
0.994447 0.0229178 0
1.02449 0.0247462 0
0.994786 0.0197319 0
1.01478 0.0259196 0
0.97796 0.0191004 0
1.04666 0.024711 0
1.05377 0.0290318 0
1.08015 0.0270558 0
0.98572 0.0210723 0
1.06575 0.0277328 0
1.06812 0.0288207 0
1.06045 0.0109068 0
0.926394 -0.00848146 0
1.0519 0.0279149 0
1.09493 0.0258448 0
1.08304 0.0280998 0
1.09836 0.0268289 0
1.10993 0.0240646 0
1.11391 0.0249711 0
0.928747 -0.0056555 0
0.943018 0.0135283 0
1.14478 0.0193688 0
1.12494 0.0216841 0
1.04832 0.0257573 0
1.12946 0.0224935 0
1.13972 0.0186769 0
0.970347 0.0179961 0
0.936975 0.0123249 0
0.9622 0.0175903 0
1.04577 0.0126528 0
0.981244 0.016193 0
1.04012 0.0287772 0
0.915524 -0.00477471 0
0.980566 0.0169298 0
1.02632 0.0269643 0
1.05446 0.0120993 0
1.0591 0.0246263 0
0.986481 0.0190448 0
0.948285 0.0152863 0
0.994684 0.020767 0
0.940241 -0.00845158 0
0.932815 0.0101191 0
1.03593 -0.0169112 0
1.00414 0.0245541 0
0.93268 -0.00728008 0
1.06121 0.0256373 0
0.95565 0.0161247 0
0.97733 0.0201006 0
1.03485 -0.0160947 0
1.06224 0.0114617 0
1.14423 0.0250951 0
0.940349 0.0144216 0
1.03605 0.0254472 0
1.07043 -0.00552695 0
0.952055 -0.0132738 0
1.07855 -0.00213435 0
0.995262 -0.0178678 0
0.953699 -0.0126925 0
1.06802 -0.00528137 0
1.05952 0.0140628 0
1.13918 0.0242012 0
1.02039 -0.0172419 0
1.20794 0.00659956 0
1.05411 -0.012002 0
1.18662 0.00593315 0
0.9189 6.35592e-05 0
0.926477 0.00860769 0
1.26682 -0.0462126 0
0.988283 0.0177599 0
0.996474 0.0175474 0
1.18672 0.011927 0
1.05261 0.0115707 0
0.945469 -0.0122602 0
-0.491801 0.251948 0
1.2765 -0.0479038 0
1.11083 0.0377483 0
1.02069 0.0173512 0
1.19802 -0.0671169 0
0.943001 -0.0100619 0
1.2983 -0.0397226 0
0.960959 -0.0136139 0
1.02805 0.016335 0
1.01372 0.0236968 0
0.718349 -0.0268118 0
0.944912 -0.0128546 0
1.11487 0.0391409 0
1.04847 -0.0138661 0
1.1596 0.0155753 0
1.03583 0.0159156 0
0.920827 0.00443753 0
0.918079 0.00232018 0
1.01255 0.0173464 0
1.15403 0.0150227 0
0.97455 0.0154114 0
1.04082 0.0139231 0
0.929492 0.0108257 0
1.20817 -0.0131258 0
1.30911 -0.0411756 0
1.00459 0.0179752 0
1.19349 0.012361 0
1.04191 -0.0144563 0
1.1542 -0.0836505 0
0.915427 -0.00231076 0
1.21572 -0.0136121 0
0.763979 -0.0409232 0
0.91938 -0.00694875 0
1.34483 -0.010749 0
1.13129 0.0359723 0
0.921951 0.00672823 0
0.974341 -0.0152926 0
1.21325 -0.0206308 0
1.02774 -0.016228 0
-0.426592 -0.247426 0
1.21561 -0.028674 0
1.22098 -0.0213914 0
-0.450771 -0.318595 0
1.13607 0.0372952 0
1.0701 0.00573574 0
1.06842 -0.00747606 0
1.06009 -0.0108118 0
1.0761 0.00406087 0
1.01227 -0.0172354 0
1.11968 -0.0863938 0
1.0682 -0.00347589 0
1.07048 -0.0056691 0
1.02871 -0.0182497 0
1.37057 -0.0234634 0
0.777079 -0.0489465 0
1.1171 0.0500183 0
0.996214 -0.0174326 0
1.02022 -0.0184758 0
1.07518 9.90507e-05 0
1.04895 -0.0136337 0
0.921888 -0.00660163 0
0.988037 -0.0176433 0
1.38421 0.0121193 0
1.01218 -0.0194252 0
1.05373 -0.0122103 0
0.979363 -0.0173092 0
-0.301779 -0.285559 0
0.971379 -0.0171282 0
1.20067 0.00637034 0
1.12353 0.0420862 0
1.00431 -0.017862 0
1.03872 0.027644 0
1.39812 0.0125574 0
1.13836 -0.0750868 0
-0.0728032 0.186413 0
1.07865 0.00208282 0
1.06798 0.00769559 0
0.934984 -0.00696025 0
1.07508 0.0061961 0
1.04133 -0.014712 0
1.06836 -0.00763206 0
0.736737 -0.0351943 0
-0.16825 -0.256167 0
-0.4006 0.307294 0
-0.182256 -0.114946 0
0.951344 -0.0138472 0
0.80037 -0.0545574 0
1.06322 0.0092085 0
1.79435 -0.33917 0
1.12803 0.0436318 0
1.16759 0.010708 0
1.1801 0.00572726 0
-0.0351922 0.17807 0
-0.281026 -0.22147 0
1.06359 -0.00914888 0
0.81868 -0.0615106 0
0.812138 -0.0637615 0
1.21079 -0.0461077 0
1.0355 -0.0158106 0
1.02934 0.0304503 0
1.21844 -0.0477988 0
1.17167 9.1005e-05 0
1.88069 0.0559905 0
-0.127223 -0.246829 0
1.08033 0.430794 0
1.21032 -0.0573557 0
1.91345 -0.0285213 0
1.05982 -0.0110012 0
1.46284 0.480468 0
1.07082 0.0079498 0
0.966573 -0.0147289 0
1.0733 0.00398518 0
0.971148 0.0171242 0
-0.0439279 -0.444101 0
1.2434 -0.0532758 0
1.11298 0.0482479 0
0.507996 0.108217 0
2.10713 -0.243679 0
1.20295 -0.0553277 0
-0.073649 0.0335968 0
-0.181865 -8.0896e-05 0
1.22343 -0.0297285 0
-0.350181 0.366541 0
1.22614 -0.0616664 0
1.04211 -0.0739753 0
-0.0812337 -0.461876 0
-0.256018 -0.275075 0
1.06377 -0.00897864 0
-0.271375 -0.432282 0
1.94635 -0.0295621 0
1.19107 -0.0647444 0
1.16945 0.0372568 0
0.745602 -0.0339142 0
0.377798 -0.108051 0
1.03042 0.031667 0
-0.0606918 -4.14443e-05 0
-0.316189 -0.449256 0
0.887989 0.563791 0
0.659825 -0.591194 0
-0.152975 -0.153712 0
1.05945 0.0110576 0
-0.140438 -0.110755 0
2.00306 -0.341952 0
1.37021 0.0494863 0
1.29559 0.519969 0
0.944298 0.097054 0
0.853895 -0.0794063 0
1.10738 -0.0775509 0
1.32876 -0.0318747 0
1.82361 -0.351524 0
-0.452858 0.316815 0
2.95113 -0.0610462 0
0.901327 0.0710086 0
0.961133 0.0137351 0
1.07781 -2.3998e-05 0
-0.124781 -0.30734 0
0.957077 -0.0153468 0
1.2227 -0.0385577 0
1.02728 0.0281024 0
1.35732 -0.0111439 0
0.909696 -0.0118751 0
1.13644 0.0299869 0
1.33256 -0.0210478 0
-0.478813 -0.25692 0
0.940619 -0.0110732 0
1.99436 0.217725 0
-0.280382 -0.221969 0
2.09022 0.188924 0
-0.317257 -0.128109 0
0.324101 -0.28712 0
0.88671 -0.0819895 0
0.515355 0.0660365 0
1.38426 -0.0119878 0
1.33648 0.0739008 0
1.26526 0.465988 0
1.9002 -0.306626 0
1.37912 0.128621 0
0.231004 -0.561021 0
0.944599 0.0128171 0
0.521216 -0.162581 0
1.35762 -0.0226351 0
0.561876 -0.186381 0
1.88504 -0.378291 0
0.921603 0.0329759 0
2.13333 0.150909 0
1.9676 -0.329968 0
1.21491 -0.0371923 0
0.384124 0.209285 0
1.05336 0.0122627 0
0.876509 0.0527461 0
1.28043 0.0767551 0
0.175176 0.279443 0
0.928625 -0.00804766 0
0.94098 -0.0105232 0
0.869709 0.0443644 0
0.935585 0.0123798 0
1.08248 0.000108265 0
-0.327181 -0.230416 0
1.90178 0.000115875 0
1.96848 -0.329206 0
0.985899 -0.0748855 0
2.31167 0.0828536 0
-0.0231418 -3.23877e-05 0
1.36184 0.0794442 0
1.37939 6.58893e-05 0
0.542019 0.124782 0
0.472922 -0.144131 0
1.28366 0.501277 0
1.01433 -0.0762317 0
0.664078 -0.591044 0
2.51332 -0.203313 0
1.47679 -0.0633897 0
1.10358 -0.0748146 0
-0.164529 -0.494453 0
2.01815 -0.0322367 0
0.96447 -0.0159534 0
1.37499 0.0823354 0
1.48024 -0.203789 0
0.834117 -0.0704893 0
0.83705 -0.0287723 0
-0.113067 0.0348514 0
0.12527 -0.23845 0
0.145575 0.289857 0
0.660058 -0.352975 0
0.48591 -0.37244 0
1.19259 0.0335142 0
1.24623 -0.0238531 0
0.503906 -0.168617 0
1.16751 0.00533442 0
1.17365 0.0110988 0
0.795308 -0.213171 0
0.538791 -0.334305 0
1.13852 0.0468437 0
1.07091 -0.073532 0
0.57317 0.0934364 0
0.0817468 -1.35145e-05 0
0.45392 -0.569241 0
1.88046 -0.117306 0
1.17788 8.85417e-05 0
0.456068 0.231311 0
-0.195184 -0.159527 0
0.411215 -0.12908 0
0.69593 0.527666 0
1.06762 -0.00992057 0
0.91537 -0.0183606 0
0.897586 0.0137281 0
0.260149 -0.0718786 0
0.554644 0.242616 0
1.17561 0.0386203 0
-0.595138 0.212207 0
0.950671 0.0260932 0
1.31254 0.0855243 0
1.2131 7.78116e-05 0
1.21463 0.0373412 0
0.85478 0.0494555 0
1.3316 0.0575364 0
0.684626 -0.3285 0
0.908875 0.0139482 0
0.134638 -0.114853 0
1.36101 0.0987592 0
0.937419 -0.0116297 0
1.27957 0.118762 0
0.910919 0.0149415 0
1.47513 0.0824661 0
0.912343 -0.0142236 0
0.849503 0.0512822 0
0.0581835 -0.205964 0
0.984981 -0.0249435 0
1.32836 0.111383 0
1.54449 0.393602 0
0.0259325 -0.265763 0
1.02098 -0.0181265 0
1.04013 -0.0193701 0
1.01847 0.0330724 0
0.000782571 0.06335 0
1.15244 0.0415073 0
0.0478418 0.0925135 0
0.641322 0.259668 0
0.711076 -0.209216 0
1.3886 0.106098 0
1.3403 0.115441 0
0.0460675 -0.52202 0
1.19959 0.034739 0
1.30251 0.0662954 0
0.825633 -0.307398 0
0.081463 0.0891782 0
1.55114 -0.0171201 0
1.1798 0.0311282 0
1.07045 -0.0078597 0
1.53192 0.016803 0
-0.0854479 -0.29613 0
1.32467 0.0713025 0
-0.71548 0.0531471 0
0.901774 -0.0709785 0
1.23774 -0.128918 0
0.889213 -0.0191875 0
1.91201 0.121734 0
1.91778 -0.39207 0
1.01884 -0.0330331 0
0.695127 -0.316793 0
-0.00934928 -0.275763 0
-0.911037 0.0592721 0
-0.139977 -6.52018e-05 0
0.919625 0.0131221 0
-0.181626 0.399795 0
-0.311682 0.448191 0
1.15983 -0.0867062 0
1.08431 0.446585 0
1.91339 0.0287459 0
1.5347 0.227259 0
0.715102 -0.120795 0
0.641218 -0.195464 0
0.828131 -0.0730934 0
1.09347 -0.49797 0
1.39842 0.0253642 0
2.68704 -0.225281 0
0.909005 0.0117578 0
1.1702 0.0372052 0
1.2682 -0.0169259 0
1.23824 0.418132 0
1.44552 0.463537 0
0.890097 0.0791086 0
1.06799 0.0100139 0
1.04059 -0.0713592 0
1.04941 0.0255413 0
0.103504 -0.0281383 0
0.921355 -0.42284 0
1.32392 0.0886415 0
3.14713 -0.00169319 0
0.00104619 -0.0313634 0
1.05278 0.279195 0
2.40637 0.18784 0
1.09475 -0.0120287 0
0.880837 0.0508661 0
2.02825 -0.282056 0
0.251296 -0.0475563 0
0.953544 -0.0329969 0
-0.653151 -0.221173 0
-0.955581 -0.190931 0
2.72914 -0.169192 0
1.11544 -0.0833475 0
1.37947 0.0369628 0
1.09809 0.535751 0
0.843598 -0.275931 0
0.827999 0.047114 0
2.20566 0.116823 0
0.745991 0.264596 0
1.03889 -0.0184191 0
0.918814 0.0342156 0
0.0480875 -1.86725e-05 0
-0.25468 0.342031 0
1.26013 -0.269378 0
0.0296705 0.411551 0
1.2232 0.0298764 0
0.93675 -0.0262559 0
-0.399673 -0.306757 0
1.94729 -0.0600041 0
1.34832 0.0952901 0
2.00394 -0.341175 0
0.987081 -0.0181141 0
1.87726 0.152266 0
1.5159 0.219413 0
2.24914 0.121015 0
0.903739 0.0148798 0
1.07261 -0.126968 0
0.322568 0.28746 0
0.79346 -0.0453174 0
1.21812 0.0479456 0
1.07353 -0.0762245 0
2.62746 -0.0518524 0
-0.348407 -0.368457 0
1.10554 -0.00307554 0
0.821744 0.0488536 0
1.25489 0.449537 0
1.51261 0.0684365 0
1.01207 0.0613559 0
1.55161 -0.0348228 0
1.29457 -0.519728 0
1.07368 0.00200579 0
1.91226 -0.121558 0
1.09158 -0.0115288 0
0.957059 -0.0753682 0
1.65099 0.47189 0
1.16979 0.0462724 0
-0.53985 0.0972116 0
0.554406 -0.322342 0
1.04776 0.0244867 0
1.25884 -0.0163318 0
0.298378 0.298216 0
1.10117 -3.36051e-05 0
1.22242 0.0387046 0
0.550062 0.0789271 0
0.941848 0.023949 0
0.899673 -0.0425141 0
0.136192 0.11528 0
1.0591 -0.311082 0
0.670732 0.140061 0
1.15511 -0.270929 0
-0.284594 -0.171274 0
2.31022 0.0406251 0
2.09411 0.0691562 0
1.03799 0.0187642 0
1.65196 0.000145659 0
1.0303 -0.0188817 0
1.46261 -0.481034 0
-0.270621 -0.123412 0
0.902782 -0.506809 0
0.135183 -0.02712 0
0.906655 -0.00550601 0
1.08072 -0.00210895 0
1.01917 0.0343697 0
0.940206 -0.0142972 0
0.704873 -0.12545 0
2.47915 0.324494 0
-0.209607 0.329687 0
0.165697 -0.0529909 0
-0.0112641 0.276141 0
0.185423 0.178442 0
1.53194 -0.0165166 0
0.931624 0.0225185 0
1.19405 0.0123117 0
0.863647 0.0981734 0
0.901518 -0.0331582 0
0.848894 -0.0145947 0
-0.0337903 -0.17791 0
0.864975 0.0460066 0
1.14342 -0.0778304 0
0.93032 -0.0722938 0
1.15165 0.0415665 0
0.902412 -0.0211385 0
0.897793 0.0736204 0
0.977016 -0.0216408 0
1.12198 -0.126218 0
0.0364073 0.0301806 0
1.01332 -0.0709283 0
1.10038 0.054294 0
1.1728 -0.301906 0
1.15473 0.270972 0
1.02939 -0.0179283 0
1.268 -0.0356175 0
0.460081 0.0940479 0
1.43294 0.118213 0
0.854177 -0.0140611 0
1.13769 0.0469059 0
2.01368 0.175639 0
-0.0095346 -0.275745 0
1.04047 0.0194775 0
1.33984 0.115536 0
0.928502 0.051331 0
-0.578948 -0.0628678 0
1.08571 -0.0229848 0
1.62912 0.342124 0
0.29565 -0.192349 0
0.296291 0.192148 0
0.964485 0.191176 0
1.08642 -0.0624737 0
1.1432 -0.048524 0
1.06181 -0.322499 0
0.451143 0.120796 0
-0.539565 -0.0485952 0
0.955802 0.0452074 0
-0.315819 -0.447671 0
1.30546 0.103612 0
1.25866 -0.008032 0
1.36895 0.0641234 0
0.892712 -0.585528 0
0.717077 -0.294835 0
1.10425 0.000119307 0
1.36582 0.124103 0
0.903612 0.0127674 0
0.928312 -0.014808 0
0.913807 -0.0142001 0
0.873807 -0.222276 0
-0.0146488 0.221951 0
1.11668 -0.0200515 0
0.896554 0.00639559 0
0.892433 0.00993052 0
0.774839 -0.396128 0
1.11798 0.0499482 0
0.924612 0.0199095 0
0.793577 0.0453887 0
1.26511 -0.0256409 0
1.05359 0.0550618 0
1.30192 0.0663263 0
1.01261 -0.0204439 0
1.29064 0.0795562 0
-0.16472 -0.495918 0
1.00815 -0.044265 0
1.02302 -0.0211278 0
0.0238273 0.266157 0
0.168194 -0.144144 0
0.93345 0.0477487 0
1.03451 -0.181007 0
0.88921 0.0473126 0
2.55103 -0.151873 0
1.21539 0.0288245 0
0.830632 -0.0295379 0
-0.327404 -0.230151 0
0.95856 0.0204111 0
0.955491 -0.237443 0
1.0636 -0.0659951 0
0.757649 -0.425291 0
0.910487 -0.47222 0
2.62921 -0.104439 0
2.40954 0.0436995 0
1.32523 0.0712676 0
1.86974 -0.475379 0
0.227495 0.134114 0
0.232662 0.416383 0
1.46015 -0.0611633 0
2.85983 0.180176 0
1.1093 -0.00663126 0
2.05484 -0.033423 0
-0.127529 -0.246958 0
0.909146 -0.0244401 0
1.07816 0.0022093 0
1.40829 -0.221601 0
0.925956 0.053211 0
-0.635663 0.158455 0
1.03229 -0.0208745 0
2.05603 0.0667688 0
0.843379 0.275884 0
1.06566 -0.346672 0
0.890134 -0.565266 0
-0.0222549 -0.346582 0
1.37876 0.12872 0
1.07782 0.00925109 0
0.557581 0.0969391 0
1.90226 -0.0875185 0
1.08538 0.013977 0
1.26975 0.114582 0
0.888163 0.582961 0
-0.506315 0.409869 0
1.01547 0.085009 0
1.87755 -0.152106 0
2.92613 0.185613 0
0.773534 -0.0393005 0
0.918058 -0.00219314 0
1.23712 -0.418631 0
1.4484 0.122578 0
0.954629 -0.0233336 0
0.782977 -0.381671 0
1.34072 -0.246002 0
1.12451 -0.218323 0
0.974579 -0.0249048 0
2.12904 -0.195962 0
0.904695 0.0515306 0
1.66034 -0.020542 0
0.224899 0.134632 0
1.19393 0.0258287 0
1.17353 0.0300219 0
1.19183 0.0186086 0
1.88023 0.117496 0
0.831711 4.81967e-05 0
1.38234 0.0664564 0
0.942948 -0.0232971 0
0.938284 -0.0150437 0
1.46326 -0.196624 0
0.924061 0.015739 0
0.847956 0.0821974 0
0.980648 0.1 0
1.70106 0.381325 0
1.00847 -0.0459171 0
2.74755 -0.232796 0
0.409809 0.129079 0
1.77936 -0.426399 0
0.920171 -0.00326664 0
1.45449 0.24709 0
0.870737 -0.0282178 0
0.74045 0.0252961 0
1.25971 0.269446 0
0.159037 0.356564 0
0.876865 -0.0162316 0
1.36602 -0.199096 0
0.819064 0.0176271 0
1.98718 -0.421191 0
1.21047 0.046256 0
0.970554 0.154232 0
1.0755 0.00418577 0
1.30001 0.127789 0
0.685987 0.54647 0
0.800824 0.0437727 0
1.08287 0.0603454 0
0.0811774 0.311167 0
1.43264 0.118282 0
0.251723 0.129514 0
1.11264 -0.0193163 0
1.58456 -0.198081 0
1.65214 -0.0634108 0
1.59267 -0.018418 0
0.91757 0.0592635 0
0.951194 -0.0503694 0
0.898258 -0.0735919 0
-0.168547 -0.255479 0
1.03441 0.0595463 0
0.515974 -0.0836893 0
1.10271 -0.0220848 0
1.23919 0.0416044 0
-0.180037 0.401014 0
0.992939 0.0334787 0
0.949194 0.274197 0
1.68416 -0.0212932 0