# vtk DataFile Version 3.0
Malha 2D com triângulos e temperatura
ASCII
DATASET UNSTRUCTURED_GRID

POINTS 10000 double
0 0 0
10 0 0
10 10 0
0 10 0
0.10101 0 0
0.20202 0 0
0.30303 0 0
0.40404 0 0
0.505051 0 0
0.606061 0 0
0.707071 0 0
0.808081 0 0
0.909091 0 0
1.0101 0 0
1.11111 0 0
1.21212 0 0
1.31313 0 0
1.41414 0 0
1.51515 0 0
1.61616 0 0
1.71717 0 0
1.81818 0 0
1.91919 0 0
2.0202 0 0
2.12121 0 0
2.22222 0 0
2.32323 0 0
2.42424 0 0
2.52525 0 0
2.62626 0 0
2.72727 0 0
2.82828 0 0
2.92929 0 0
3.0303 0 0
3.13131 0 0
3.23232 0 0
3.33333 0 0
3.43434 0 0
3.53535 0 0
3.63636 0 0
3.73737 0 0
3.83838 0 0
3.93939 0 0
4.0404 0 0
4.14141 0 0
4.24242 0 0
4.34343 0 0
4.44444 0 0
4.54545 0 0
4.64646 0 0
4.74747 0 0
4.84848 0 0
4.94949 0 0
5.05051 0 0
5.15152 0 0
5.25253 0 0
5.35354 0 0
5.45455 0 0
5.55556 0 0
5.65657 0 0
5.75758 0 0
5.85859 0 0
5.9596 0 0
6.06061 0 0
6.16162 0 0
6.26263 0 0
6.36364 0 0
6.46465 0 0
6.56566 0 0
6.66667 0 0
6.76768 0 0
6.86869 0 0
6.9697 0 0
7.07071 0 0
7.17172 0 0
7.27273 0 0
7.37374 0 0
7.47475 0 0
7.57576 0 0
7.67677 0 0
7.77778 0 0
7.87879 0 0
7.9798 0 0
8.08081 0 0
8.18182 0 0
8.28283 0 0
8.38384 0 0
8.48485 0 0
8.58586 0 0
8.68687 0 0
8.78788 0 0
8.88889 0 0
8.9899 0 0
9.09091 0 0
9.19192 0 0
9.29293 0 0
9.39394 0 0
9.49495 0 0
9.59596 0 0
9.69697 0 0
9.79798 0 0
9.89899 0 0
10 0.10101 0
10 0.20202 0
10 0.30303 0
10 0.40404 0
10 0.505051 0
10 0.606061 0
10 0.707071 0
10 0.808081 0
10 0.909091 0
10 1.0101 0
10 1.11111 0
10 1.21212 0
10 1.31313 0
10 1.41414 0
10 1.51515 0
10 1.61616 0
10 1.71717 0
10 1.81818 0
10 1.91919 0
10 2.0202 0
10 2.12121 0
10 2.22222 0
10 2.32323 0
10 2.42424 0
10 2.52525 0
10 2.62626 0
10 2.72727 0
10 2.82828 0
10 2.92929 0
10 3.0303 0
10 3.13131 0
10 3.23232 0
10 3.33333 0
10 3.43434 0
10 3.53535 0
10 3.63636 0
10 3.73737 0
10 3.83838 0
10 3.93939 0
10 4.0404 0
10 4.14141 0
10 4.24242 0
10 4.34343 0
10 4.44444 0
10 4.54545 0
10 4.64646 0
10 4.74747 0
10 4.84848 0
10 4.94949 0
10 5.05051 0
10 5.15152 0
10 5.25253 0
10 5.35354 0
10 5.45455 0
10 5.55556 0
10 5.65657 0
10 5.75758 0
10 5.85859 0
10 5.9596 0
10 6.06061 0
10 6.16162 0
10 6.26263 0
10 6.36364 0
10 6.46465 0
10 6.56566 0
10 6.66667 0
10 6.76768 0
10 6.86869 0
10 6.9697 0
10 7.07071 0
10 7.17172 0
10 7.27273 0
10 7.37374 0
10 7.47475 0
10 7.57576 0
10 7.67677 0
10 7.77778 0
10 7.87879 0
10 7.9798 0
10 8.08081 0
10 8.18182 0
10 8.28283 0
10 8.38384 0
10 8.48485 0
10 8.58586 0
10 8.68687 0
10 8.78788 0
10 8.88889 0
10 8.9899 0
10 9.09091 0
10 9.19192 0
10 9.29293 0
10 9.39394 0
10 9.49495 0
10 9.59596 0
10 9.69697 0
10 9.79798 0
10 9.89899 0
9.89899 10 0
9.79798 10 0
9.69697 10 0
9.59596 10 0
9.49495 10 0
9.39394 10 0
9.29293 10 0
9.19192 10 0
9.09091 10 0
8.9899 10 0
8.88889 10 0
8.78788 10 0
8.68687 10 0
8.58586 10 0
8.48485 10 0
8.38384 10 0
8.28283 10 0
8.18182 10 0
8.08081 10 0
7.9798 10 0
7.87879 10 0
7.77778 10 0
7.67677 10 0
7.57576 10 0
7.47475 10 0
7.37374 10 0
7.27273 10 0
7.17172 10 0
7.07071 10 0
6.9697 10 0
6.86869 10 0
6.76768 10 0
6.66667 10 0
6.56566 10 0
6.46465 10 0
6.36364 10 0
6.26263 10 0
6.16162 10 0
6.06061 10 0
5.9596 10 0
5.85859 10 0
5.75758 10 0
5.65657 10 0
5.55556 10 0
5.45455 10 0
5.35354 10 0
5.25253 10 0
5.15152 10 0
5.05051 10 0
4.94949 10 0
4.84848 10 0
4.74747 10 0
4.64646 10 0
4.54545 10 0
4.44444 10 0
4.34343 10 0
4.24242 10 0
4.14141 10 0
4.0404 10 0
3.93939 10 0
3.83838 10 0
3.73737 10 0
3.63636 10 0
3.53535 10 0
3.43434 10 0
3.33333 10 0
3.23232 10 0
3.13131 10 0
3.0303 10 0
2.92929 10 0
2.82828 10 0
2.72727 10 0
2.62626 10 0
2.52525 10 0
2.42424 10 0
2.32323 10 0
2.22222 10 0
2.12121 10 0
2.0202 10 0
1.91919 10 0
1.81818 10 0
1.71717 10 0
1.61616 10 0
1.51515 10 0
1.41414 10 0
1.31313 10 0
1.21212 10 0
1.11111 10 0
1.0101 10 0
0.909091 10 0
0.808081 10 0
0.707071 10 0
0.606061 10 0
0.505051 10 0
0.40404 10 0
0.30303 10 0
0.20202 10 0
0.10101 10 0
0 9.89899 0
0 9.79798 0
0 9.69697 0
0 9.59596 0
0 9.49495 0
0 9.39394 0
0 9.29293 0
0 9.19192 0
0 9.09091 0
0 8.9899 0
0 8.88889 0
0 8.78788 0
0 8.68687 0
0 8.58586 0
0 8.48485 0
0 8.38384 0
0 8.28283 0
0 8.18182 0
0 8.08081 0
0 7.9798 0
0 7.87879 0
0 7.77778 0
0 7.67677 0
0 7.57576 0
0 7.47475 0
0 7.37374 0
0 7.27273 0
0 7.17172 0
0 7.07071 0
0 6.9697 0
0 6.86869 0
0 6.76768 0
0 6.66667 0
0 6.56566 0
0 6.46465 0
0 6.36364 0
0 6.26263 0
0 6.16162 0
0 6.06061 0
0 5.9596 0
0 5.85859 0
0 5.75758 0
0 5.65657 0
0 5.55556 0
0 5.45455 0
0 5.35354 0
0 5.25253 0
0 5.15152 0
0 5.05051 0
0 4.94949 0
0 4.84848 0
0 4.74747 0
0 4.64646 0
0 4.54545 0
0 4.44444 0
0 4.34343 0
0 4.24242 0
0 4.14141 0
0 4.0404 0
0 3.93939 0
0 3.83838 0
0 3.73737 0
0 3.63636 0
0 3.53535 0
0 3.43434 0
0 3.33333 0
0 3.23232 0
0 3.13131 0
0 3.0303 0
0 2.92929 0
0 2.82828 0
0 2.72727 0
0 2.62626 0
0 2.52525 0
0 2.42424 0
0 2.32323 0
0 2.22222 0
0 2.12121 0
0 2.0202 0
0 1.91919 0
0 1.81818 0
0 1.71717 0
0 1.61616 0
0 1.51515 0
0 1.41414 0
0 1.31313 0
0 1.21212 0
0 1.11111 0
0 1.0101 0
0 0.909091 0
0 0.808081 0
0 0.707071 0
0 0.606061 0
0 0.505051 0
0 0.40404 0
0 0.30303 0
0 0.20202 0
0 0.10101 0
0.10101 0.10101 0
0.10101 0.20202 0
0.10101 0.30303 0
0.10101 0.40404 0
0.10101 0.505051 0
0.10101 0.606061 0
0.10101 0.707071 0
0.10101 0.808081 0
0.10101 0.909091 0
0.10101 1.0101 0
0.10101 1.11111 0
0.10101 1.21212 0
0.10101 1.31313 0
0.10101 1.41414 0
0.10101 1.51515 0
0.10101 1.61616 0
0.10101 1.71717 0
0.10101 1.81818 0
0.10101 1.91919 0
0.10101 2.0202 0
0.10101 2.12121 0
0.10101 2.22222 0
0.10101 2.32323 0
0.10101 2.42424 0
0.10101 2.52525 0
0.10101 2.62626 0
0.10101 2.72727 0
0.10101 2.82828 0
0.10101 2.92929 0
0.10101 3.0303 0
0.10101 3.13131 0
0.10101 3.23232 0
0.10101 3.33333 0
0.10101 3.43434 0
0.10101 3.53535 0
0.10101 3.63636 0
0.10101 3.73737 0
0.10101 3.83838 0
0.10101 3.93939 0
0.10101 4.0404 0
0.10101 4.14141 0
0.10101 4.24242 0
0.10101 4.34343 0
0.10101 4.44444 0
0.10101 4.54545 0
0.10101 4.64646 0
0.10101 4.74747 0
0.10101 4.84848 0
0.10101 4.94949 0
0.10101 5.05051 0
0.10101 5.15152 0
0.10101 5.25253 0
0.10101 5.35354 0
0.10101 5.45455 0
0.10101 5.55556 0
0.10101 5.65657 0
0.10101 5.75758 0
0.10101 5.85859 0
0.10101 5.9596 0
0.10101 6.06061 0
0.10101 6.16162 0
0.10101 6.26263 0
0.10101 6.36364 0
0.10101 6.46465 0
0.10101 6.56566 0
0.10101 6.66667 0
0.10101 6.76768 0
0.10101 6.86869 0
0.10101 6.9697 0
0.10101 7.07071 0
0.10101 7.17172 0
0.10101 7.27273 0
0.10101 7.37374 0
0.10101 7.47475 0
0.10101 7.57576 0
0.10101 7.67677 0
0.10101 7.77778 0
0.10101 7.87879 0
0.10101 7.9798 0
0.10101 8.08081 0
0.10101 8.18182 0
0.10101 8.28283 0
0.10101 8.38384 0
0.10101 8.48485 0
0.10101 8.58586 0
0.10101 8.68687 0
0.10101 8.78788 0
0.10101 8.88889 0
0.10101 8.9899 0
0.10101 9.09091 0
0.10101 9.19192 0
0.10101 9.29293 0
0.10101 9.39394 0
0.10101 9.49495 0
0.10101 9.59596 0
0.10101 9.69697 0
0.10101 9.79798 0
0.10101 9.89899 0
0.20202 0.10101 0
0.20202 0.20202 0
0.20202 0.30303 0
0.20202 0.40404 0
0.20202 0.505051 0
0.20202 0.606061 0
0.20202 0.707071 0
0.20202 0.808081 0
0.20202 0.909091 0
0.20202 1.0101 0
0.20202 1.11111 0
0.20202 1.21212 0
0.20202 1.31313 0
0.20202 1.41414 0
0.20202 1.51515 0
0.20202 1.61616 0
0.20202 1.71717 0
0.20202 1.81818 0
0.20202 1.91919 0
0.20202 2.0202 0
0.20202 2.12121 0
0.20202 2.22222 0
0.20202 2.32323 0
0.20202 2.42424 0
0.20202 2.52525 0
0.20202 2.62626 0
0.20202 2.72727 0
0.20202 2.82828 0
0.20202 2.92929 0
0.20202 3.0303 0
0.20202 3.13131 0
0.20202 3.23232 0
0.20202 3.33333 0
0.20202 3.43434 0
0.20202 3.53535 0
0.20202 3.63636 0
0.20202 3.73737 0
0.20202 3.83838 0
0.20202 3.93939 0
0.20202 4.0404 0
0.20202 4.14141 0
0.20202 4.24242 0
0.20202 4.34343 0
0.20202 4.44444 0
0.20202 4.54545 0
0.20202 4.64646 0
0.20202 4.74747 0
0.20202 4.84848 0
0.20202 4.94949 0
0.20202 5.05051 0
0.20202 5.15152 0
0.20202 5.25253 0
0.20202 5.35354 0
0.20202 5.45455 0
0.20202 5.55556 0
0.20202 5.65657 0
0.20202 5.75758 0
0.20202 5.85859 0
0.20202 5.9596 0
0.20202 6.06061 0
0.20202 6.16162 0
0.20202 6.26263 0
0.20202 6.36364 0
0.20202 6.46465 0
0.20202 6.56566 0
0.20202 6.66667 0
0.20202 6.76768 0
0.20202 6.86869 0
0.20202 6.9697 0
0.20202 7.07071 0
0.20202 7.17172 0
0.20202 7.27273 0
0.20202 7.37374 0
0.20202 7.47475 0
0.20202 7.57576 0
0.20202 7.67677 0
0.20202 7.77778 0
0.20202 7.87879 0
0.20202 7.9798 0
0.20202 8.08081 0
0.20202 8.18182 0
0.20202 8.28283 0
0.20202 8.38384 0
0.20202 8.48485 0
0.20202 8.58586 0
0.20202 8.68687 0
0.20202 8.78788 0
0.20202 8.88889 0
0.20202 8.9899 0
0.20202 9.09091 0
0.20202 9.19192 0
0.20202 9.29293 0
0.20202 9.39394 0
0.20202 9.49495 0
0.20202 9.59596 0
0.20202 9.69697 0
0.20202 9.79798 0
0.20202 9.89899 0
0.30303 0.10101 0
0.30303 0.20202 0
0.30303 0.30303 0
0.30303 0.40404 0
0.30303 0.505051 0
0.30303 0.606061 0
0.30303 0.707071 0
0.30303 0.808081 0
0.30303 0.909091 0
0.30303 1.0101 0
0.30303 1.11111 0
0.30303 1.21212 0
0.30303 1.31313 0
0.30303 1.41414 0
0.30303 1.51515 0
0.30303 1.61616 0
0.30303 1.71717 0
0.30303 1.81818 0
0.30303 1.91919 0
0.30303 2.0202 0
0.30303 2.12121 0
0.30303 2.22222 0
0.30303 2.32323 0
0.30303 2.42424 0
0.30303 2.52525 0
0.30303 2.62626 0
0.30303 2.72727 0
0.30303 2.82828 0
0.30303 2.92929 0
0.30303 3.0303 0
0.30303 3.13131 0
0.30303 3.23232 0
0.30303 3.33333 0
0.30303 3.43434 0
0.30303 3.53535 0
0.30303 3.63636 0
0.30303 3.73737 0
0.30303 3.83838 0
0.30303 3.93939 0
0.30303 4.0404 0
0.30303 4.14141 0
0.30303 4.24242 0
0.30303 4.34343 0
0.30303 4.44444 0
0.30303 4.54545 0
0.30303 4.64646 0
0.30303 4.74747 0
0.30303 4.84848 0
0.30303 4.94949 0
0.30303 5.05051 0
0.30303 5.15152 0
0.30303 5.25253 0
0.30303 5.35354 0
0.30303 5.45455 0
0.30303 5.55556 0
0.30303 5.65657 0
0.30303 5.75758 0
0.30303 5.85859 0
0.30303 5.9596 0
0.30303 6.06061 0
0.30303 6.16162 0
0.30303 6.26263 0
0.30303 6.36364 0
0.30303 6.46465 0
0.30303 6.56566 0
0.30303 6.66667 0
0.30303 6.76768 0
0.30303 6.86869 0
0.30303 6.9697 0
0.30303 7.07071 0
0.30303 7.17172 0
0.30303 7.27273 0
0.30303 7.37374 0
0.30303 7.47475 0
0.30303 7.57576 0
0.30303 7.67677 0
0.30303 7.77778 0
0.30303 7.87879 0
0.30303 7.9798 0
0.30303 8.08081 0
[...]
CELL_DATA 9801
SCALARS Temperatura double 1
LOOKUP_TABLE default
8.81396e-13
1.77556e-12
3.54444e-12
7.01066e-12
1.37379e-11
2.66672e-11
5.12717e-11
9.76264e-11
1.84072e-10
3.43619e-10
6.35005e-10
1.16151e-09
2.10256e-09
3.76608e-09
6.67385e-09
1.16987e-08
2.02818e-08
3.47701e-08
5.89335e-08
9.87414e-08
1.63508e-07
2.6755e-07
4.32528e-07
6.90694e-07
1.08927e-06
1.69621e-06
2.60753e-06
3.95638e-06
5.92372e-06
8.75039e-06
1.27498e-05
1.832e-05
2.59535e-05
3.62423e-05
4.98749e-05
6.76221e-05
9.03085e-05
0.000118766
0.000153768
0.000195944
0.000245682
0.000303015
0.000367519
0.000438215
0.000513514
0.000591201
0.000668487
0.00074212
0.000808585
0.000864345
0.00090613
0.000945848
0.000982984
0.00101701
0.0010474
0.00107362
0.00109517
0.00111156
0.00112235
0.00112712
0.00112555
0.00111737
0.0011024
0.00108058
0.00105193
0.00101661
0.000974922
0.000927281
0.000874253
0.000816539
0.000754969
0.000690491
0.000624148
0.000557057
0.000490374
0.000425254
0.00036281
0.000304064
0.000249905
0.000201041
0.000157968
0.000120941
8.99745e-05
6.48406e-05
4.51034e-05
3.01591e-05
1.92931e-05
1.17416e-05
6.7533e-06
3.64175e-06
1.82344e-06
8.37562e-07
3.47534e-07
1.27654e-07
4.0369e-08
1.05554e-08
2.1402e-09
2.99231e-10
2.16457e-11
1.24264e-11
2.43533e-11
4.72634e-11
9.08227e-11
1.72785e-10
3.25384e-10
6.0646e-10
1.11855e-09
2.0412e-09
3.68487e-09
6.57939e-09
1.16172e-08
2.02807e-08
3.49986e-08
5.96923e-08
1.00599e-07
1.6749e-07
2.75426e-07
4.47247e-07
7.16995e-07
1.13451e-06
1.77142e-06
2.72864e-06
4.14547e-06
6.21002e-06
9.17047e-06
1.33461e-05
1.91366e-05
2.70278e-05
3.759e-05
5.14683e-05
6.9359e-05
9.19723e-05
0.000119979
0.000153946
0.000194256
0.000241036
0.000294089
0.000352851
0.000416389
0.000483441
0.000552523
0.000622065
0.000690598
0.00075693
0.000820301
0.000880455
0.000937618
0.000992346
0.00104527
0.00109676
0.00114608
0.00119263
0.00123579
0.00127493
0.00130943
0.00133865
0.00136201
0.00137892
0.00138887
0.00139141
0.00138614
0.00137278
0.00135115
0.0013212
0.00128299
0.00123675
0.00118288
0.00112192
0.0010546
0.000981804
0.000904579
0.000824116
0.000741722
0.00065879
0.000576757
0.000497055
0.000421053
0.000349996
0.000284951
0.000226744
0.000175921
0.000132719
9.70585e-05
6.85606e-05
4.65879e-05
3.0308e-05
1.87716e-05
1.09957e-05
6.04327e-06
3.08625e-06
1.44696e-06
6.13285e-07
2.30278e-07
7.4499e-08
1.99432e-08
4.1431e-09
5.93974e-10
4.40926e-11
9.09116e-11
1.73459e-10
3.27532e-10
6.11968e-10
1.13124e-09
2.06851e-09
3.74084e-09
6.68974e-09
1.18277e-08
2.06707e-08
3.57017e-08
6.09275e-08
1.02715e-07
1.71023e-07
2.81175e-07
4.56349e-07
7.3099e-07
1.15534e-06
1.80131e-06
2.76968e-06
4.19876e-06
6.27405e-06
9.23838e-06
1.34014e-05
1.91467e-05
2.69353e-05
3.73012e-05
5.08393e-05
6.81807e-05
8.99563e-05
0.000116748
0.000149032
0.000187115
0.000231083
0.000280755
0.000335671
0.000395108
0.000458138
0.000523716
0.000590798
0.000658459
0.00072599
0.000792965
0.000859238
0.000924886
0.000990104
0.00105508
0.00111986
0.00118432
0.00124813
0.00131078
0.00137123
0.00142878
0.0014827
0.00153227
0.00157673
0.00161535
0.00164738
0.00167214
0.00168896
0.00169725
0.00169648
0.00168624
0.00166621
0.00163621
0.00159621
0.00154634
0.00148691
0.00141843
0.00134161
0.00125734
0.00116675
0.00107114
0.00097198
0.000870899
0.000769616
0.000669903
0.000573515
0.000482123
0.000397231
0.000320101
0.000251683
0.000192562
0.000142919
0.000102535
7.08169e-05
4.68618e-05
2.95456e-05
1.76312e-05
9.87951e-06
5.14798e-06
2.4646e-06
1.06753e-06
4.09958e-07
1.35755e-07
3.72275e-08
7.92888e-09
1.16634e-09
8.89107e-11
4.60068e-10
8.55236e-10
1.57241e-09
2.85887e-09
5.13921e-09
9.13262e-09
1.60402e-08
2.78394e-08
4.7737e-08
8.08548e-08
1.35244e-07
2.23355e-07
3.64114e-07
5.85787e-07
9.29818e-07
1.45581e-06
2.24774e-06
3.42148e-06
5.1333e-06
7.58894e-06
1.10524e-05
1.58533e-05
2.23904e-05
3.11307e-05
4.26001e-05
5.73658e-05
7.60073e-05
9.90779e-05
0.000127058
0.000160307
0.000199013
0.000243158
0.000292507
0.000346607
0.000404837
0.000466467
0.000530744
0.000596982
0.000664636
0.000733353
0.00080298
0.000873528
0.000945108
0.00101785
0.00109181
0.00116693
0.00124301
0.00131969
0.0013965
0.0014729
0.00154828
0.00162147
0.00169169
0.00175811
0.00181989
0.00187615
0.00192602
0.00196861
0.0020031
0.00202867
0.00204457
0.00205012
0.00204475
0.002028
0.00199952
0.00195916
0.00190692
0.001843
0.00176781
0.00168202
0.00158649
0.00148236
0.001371
0.00125403
0.00113325
0.00101066
0.000888366
0.000768529
0.00065329
0.000544667
0.000444458
0.000354143
0.000274792
0.000207
0.000150849
0.000105912
7.13037e-05
4.57746e-05
2.7836e-05
1.59078e-05
8.46095e-06
4.13805e-06
1.83256e-06
7.20126e-07
2.44219e-07
6.86453e-08
1.49985e-08
2.26529e-09
1.77456e-10
1.81135e-09
3.28305e-09
5.8819e-09
1.04147e-08
1.82218e-08
3.14967e-08
5.37758e-08
9.06709e-08
1.50945e-07
2.48051e-07
4.02292e-07
6.43752e-07
1.01618e-06
1.58194e-06
2.42816e-06
3.67384e-06
5.47792e-06
8.04745e-06
1.16452e-05
1.65952e-05
2.3285e-05
3.2162e-05
4.37236e-05
5.84978e-05
7.70155e-05
9.97753e-05
0.000127202
0.000159605
0.000197145
0.000239804
0.000287388
0.00033954
0.000395782
0.000455573
0.000518385
0.000583763
0.00065138
0.000721065
0.000792792
0.000866649
0.000942774
0.0010213
0.00110228
0.00118568
0.00127132
0.00135891
0.00144804
0.00153823
0.00162891
0.00171946
0.00180918
0.00189682
0.00198149
0.00206226
0.00213815
0.00220815
0.00227125
0.00232642
0.00237267
0.00240901
0.00243454
0.00244841
0.00244987
0.00243829
0.00241316
0.00237415
0.00232112
0.00225411
0.00217344
0.00207963
0.0019735
0.00185615
0.00172897
0.00159363
0.0014521
0.00130658
0.00115949
0.0010134
0.00087093
0.000734659
0.00060701
0.000490113
0.000385678
0.000294883
0.000218295
0.000155825
0.00010675
6.97934e-05
4.32623e-05
2.52233e-05
1.36988e-05
6.84717e-06
3.10174e-06
1.24788e-06
4.33652e-07
1.25013e-07
2.80393e-08
4.35116e-09
3.50531e-10
5.9168e-09
1.04641e-08
1.82826e-08
3.15517e-08
5.37743e-08
9.0492e-08
1.50329e-07
2.46481e-07
3.98785e-07
6.36527e-07
1.00212e-06
1.55579e-06
2.38126e-06
3.59247e-06
5.34085e-06
7.82278e-06
1.12864e-05
1.60362e-05
2.2435e-05
3.08998e-05
4.18927e-05
5.59029e-05
7.34224e-05
9.49145e-05
0.000120778
0.000151314
0.000186694
0.000226944
0.000271942
0.000321437
0.000375083
0.000432493
0.000493294
0.000557184
0.000623973
0.000693594
0.000766106
0.000841652
0.00092042
0.00100259
0.00108827
0.00117749
0.00127017
0.00136612
0.00146503
0.00156653
0.00167013
0.00177528
0.00188136
0.00198767
0.00209344
0.00219733
0.00229833
0.00239538
0.00248737
0.00257317
0.00265159
0.00272146
0.00278161
0.00283089
0.00286821
0.00289253
0.00290292
0.00289857
0.00287878
0.00284305
0.00279105
0.00272267
0.00263804
0.00253756
0.00242193
0.00229216
0.00214958
0.00199589
0.00183311
0.00166361
0.00149005
0.00131535
0.0011426
0.000974961
0.000815525
0.000667173
0.000532401
0.000413157
0.000310703
0.00022551
0.000157224
0.000104711
6.61773e-05
3.93756e-05
2.18442e-05
1.11634e-05
5.17522e-06
2.13274e-06
7.59897e-07
2.24814e-07
5.17961e-08
8.26434e-09
6.85198e-10
1.66994e-08
2.88393e-08
4.91772e-08
8.27867e-08
1.3756e-07
2.25569e-07
3.64949e-07
5.82457e-07
9.16822e-07
1.423e-06
2.17737e-06
3.2838e-06
4.8803e-06
7.14588e-06
1.03067e-05
1.46408e-05
2.04796e-05
2.82051e-05
3.82422e-05
5.10436e-05
6.70687e-05
8.67565e-05
0.000110495
0.000138593
0.00017125
0.000208546
0.000250434
0.00029676
0.000347287
0.000401745
0.000459874
0.000521474
0.000586439
0.000654774
0.000726595
0.000802096
0.000881519
0.000965105
0.00105306
0.0011455
0.00124246
0.00134389
0.00144962
0.00155938
0.00167284
0.00178955
0.00190902
0.00203063
0.00215371
0.00227749
0.00240113
0.00252315
0.00264244
0.00275782
0.00286804
0.00297179
0.00306774
0.00315455
0.00323084
0.00329531
0.00334665
0.00338366
0.00340519
0.00341023
0.0033979
0.00336751
0.00331851
0.00325064
0.00316382
0.0030583
0.00293461
0.00279362
0.00263657
0.00246508
0.00228117
0.00208726
0.0018862
0.00168116
0.00147564
0.00127334
0.00107805
0.00089343
0.000722896
0.000569339
0.000434942
0.000320995
0.000227782
0.000154556
9.96154e-05
6.05058e-05
3.42996e-05
1.79292e-05
8.51009e-06
3.59429e-06
1.31381e-06
3.99146e-07
9.45293e-08
1.55193e-08
1.32529e-09
4.18766e-08
7.06744e-08
1.17715e-07
1.93466e-07
3.13687e-07
5.01683e-07
7.91259e-07
1.2305e-06
1.8864e-06
2.85031e-06
4.244e-06
6.22593e-06
8.99714e-06
1.28058e-05
1.79496e-05
2.47739e-05
3.36662e-05
4.50437e-05
5.93362e-05
7.6963e-05
9.83066e-05
0.000123686
0.000153334
0.00018738
0.000225846
0.000268659
0.000315672
0.000366699
0.000421563
0.000480129
0.000542348
0.000608267
0.000678039
0.000751897
0.000830135
0.000913061
0.00100096
0.00109408
0.00119257
0.00129652
0.0014059
0.00152063
0.0016405
0.00176524
0.00189448
0.00202778
0.00216457
0.00230423
0.00244601
0.00258907
0.00273248
0.00287465
0.00301434
0.00315022
0.00328088
0.00340487
0.00352067
0.00362674
0.00372154
0.00380354
0.00387124
0.00392322
0.00395815
0.00397481
0.00397211
0.00394915
0.00390521
0.00383981
0.0037527
0.00364392
0.00351383
0.00336313
0.00319289
0.00300461
0.00280023
0.00258215
0.00235324
0.00211686
0.00187681
0.00163723
0.00140252
0.00117719
0.000965587
0.000771693
0.000598826
0.000449376
0.000324584
0.00022441
0.000147534
9.15018e-05
5.30211e-05
2.83601e-05
1.37888e-05
5.97182e-06
2.24069e-06
6.99514e-07
1.70412e-07
2.88094e-08
2.53607e-09
9.5223e-08
1.57175e-07
2.55918e-07
4.10977e-07
6.50813e-07
1.01611e-06
1.56383e-06
2.37209e-06
3.54559e-06
5.22145e-06
7.5748e-06
1.08235e-05
1.5231e-05
2.11062e-05
2.87994e-05
3.86933e-05
5.11889e-05
6.66864e-05
8.55623e-05
0.000108146
0.000134696
0.000165387
0.0002003
0.000239427
0.00028269
0.00032997
0.000381143
0.000436121
0.00049488
0.00055749
0.000624118
0.000695022
0.00077053
0.000851006
0.000936818
0.00102831
0.00112576
0.0012294
0.00133937
0.00145574
0.00157848
0.00170749
0.00184258
0.00198348
0.00212982
0.00228112
0.00243681
0.0025962
0.00275848
0.00292275
0.00308799
0.00325246
0.00341477
0.00357347
0.00372696
0.00387362
0.00401172
0.00413953
0.0042553
0.00435727
0.00444374
0.00451307
0.00456371
0.00459422
0.00460332
0.0045899
0.00455305
0.00449207
0.00440655
0.00429633
0.00416157
0.00400279
0.00382087
0.00361715
0.00339339
0.00315189
0.00289546
0.0026275
0.00235196
0.00207329
0.00179642
0.00152656
0.00126902
0.00102894
0.000810922
0.000618728
0.000454896
0.000320488
0.000214951
0.000136159
8.06732e-05
4.41716e-05
2.20093e-05
9.77957e-06
3.7689e-06
1.20985e-06
3.03407e-07
5.28605e-08
4.80082e-09
1.99404e-07
3.22164e-07
5.13222e-07
8.06018e-07
1.24774e-06
1.90357e-06
2.86164e-06
4.2383e-06
6.18358e-06
8.88594e-06
1.25757e-05
1.75264e-05
2.40521e-05
3.25019e-05
4.32479e-05
5.66705e-05
7.31382e-05
9.29861e-05
0.000116495
0.000143876
0.000175255
0.00021068
0.000250128
0.000293529
0.000340797
0.000391865
0.000446721
0.000505433
0.000568162
0.000635169
0.000706792
0.000783431
0.000865515
0.000953468
0.00104769
0.00114854
0.0012563
0.00137121
0.00149342
0.00162301
0.00175999
0.00190428
0.00205572
0.00221403
0.00237884
0.00254966
0.0027259
0.00290681
0.00309154
0.0032791
0.00346836
0.00365743
0.00384478
0.00402878
0.00420767
0.00437959
0.00454263
0.00469482
0.00483417
0.0049587
0.00506647
0.0051556
0.00522431
0.00527094
0.005294
0.00529218
0.00526437
0.00520969
0.00512754
0.00501759
0.00487982
0.00471455
0.0045225
0.00430479
0.00406299
0.00379921
0.00351612
0.003217
0.00290582
0.00258717
0.00226631
0.00194902
0.00164145
0.00134986
0.00108023
0.000837886
0.000626998
0.000450155
0.000308045
0.000199333
0.000120795
6.77294e-05
3.46003e-05
1.57818e-05
6.25079e-06
2.06468e-06
5.33408e-07
9.58504e-08
8.98923e-09
3.89241e-07
6.16055e-07
9.61011e-07
1.47733e-06
2.23768e-06
3.3391e-06
4.90809e-06
7.10549e-06
1.01305e-05
1.42227e-05
1.96619e-05
2.6764e-05
3.58729e-05
4.73479e-05
6.1547e-05
7.8808e-05
9.94278e-05
0.000123645
0.000151628
0.000183467
0.000219184
0.000258747
0.000302095
0.000349172
0.000399958
0.000454502
0.000512941
0.000575507
0.00064253
0.000714412
0.000791614
0.000874619
0.000963912
0.00105996
0.00116318
0.00127396
0.00139262
0.00151942
0.00165456
0.00179817
0.00195029
0.00211089
0.00227983
0.00245685
0.00264159
0.00283356
0.00303212
0.00323649
0.00344574
0.00365881
0.00387445
0.00409062
0.00430563
0.00451764
0.00472469
0.0049247
0.00511553
0.00529494
0.0054607
0.00561055
0.00574229
0.0058538
0.00594303
0.0060081
0.00604729
0.00605909
0.00604218
0.00599554
0.00591838
0.00581023
0.0056709
0.00550057
0.00529977
0.00506943
0.00481093
0.00452616
0.00421755
0.00388821
0.00354193
0.00318327
0.00281759
0.00245103
0.00209036
0.00174283
0.00141575
0.00111611
0.000849965
0.000621833
0.000434185
0.000287053
0.000177961
0.000102216
5.35615e-05
2.50912e-05
1.02199e-05
3.47589e-06
9.25813e-07
1.71734e-07
1.66467e-08
7.15194e-07
1.1098e-06
1.69674e-06
2.55544e-06
3.79089e-06
5.53847e-06
7.96829e-06
1.12883e-05
1.57456e-05
2.16241e-05
2.92397e-05
3.89298e-05
5.10403e-05
6.59082e-05
8.38425e-05
0.000105106
0.0001299
0.000158356
0.000190534
0.000226434
0.000266013
0.000309219
0.000356013
0.000406413
0.000460508
0.000518486
0.000580632
0.000647324
0.000719016
0.000796215
0.000879459
0.000969288
0.00106623
0.0011708
0.00128345
0.00140461
0.00153467
0.00167394
0.00182268
0.00198109
0.00214927
0.00232723
0.00251488
0.00271198
0.0029182
0.00313301
0.00335578
0.00358566
0.00382168
0.00406266
0.00430725
0.00455323
0.00479872
0.00504168
0.00527992
0.00551111
0.00573283
0.00594258
0.00613781
0.00631598
0.0064746
0.00661124
0.0067236
0.00680952
0.00686707
0.00689449
0.0068903
0.0068533
0.00678257
0.00667749
0.00653778
0.00636348
0.006155
0.00591312
0.00563905
0.00533445
0.00500152
0.0046431
0.0042627
0.00386467
0.00345427
0.00303769
0.00262207
0.00221536
0.00182603
0.00146266
0.00113331
0.000844792
0.000601858
0.000406579
0.000257924
0.000151804
8.16261e-05
3.92929e-05
1.64685e-05
5.77139e-06
1.58611e-06
3.0398e-07
3.04847e-08
1.24684e-06
1.89856e-06
2.84732e-06
4.20525e-06
6.11565e-06
8.75688e-06
1.23447e-05
1.71324e-05
2.34078e-05
3.1486e-05
4.16991e-05
5.43807e-05
6.98491e-05
8.83882e-05
0.000110231
0.000135546
0.000164431
0.000196919
0.000232986
0.00027258
0.000315644
0.000362153
0.000412139
0.000465721
0.000523116
0.000584642
0.000650713
0.000721819
0.000798506
0.000881356
0.000970963
0.00106792
0.00117281
0.00128619
0.00140859
0.00154051
0.00168241
0.00183468
0.00199768
0.00217167
0.00235683
0.00255323
0.00276083
0.00297945
0.00320874
0.00344821
0.00369717
0.00395477
0.00421994
0.00449141
0.00476773
0.00504645
0.0053255
0.00560263
0.00587538
0.00614114
0.00639719
0.00664069
0.00686877
0.00707857
0.00726723
0.00743202
0.00757032
0.00767969
0.00775792
0.00780303
0.00781336
0.00778753
0.00772448
0.00762352
0.00748428
0.00730673
0.00709121
0.00683843
0.00654948
0.00622585
0.00586954
0.00548308
0.00506968
0.00463333
0.00417898
0.00371262
0.0032414
0.00277362
0.00231858
0.00188622
0.00148654
0.00112879
0.000820467
0.000566354
0.000367691
0.000221816
0.000122438
6.05949e-05
2.61491e-05
9.44935e-06
2.68166e-06
5.31485e-07
5.5198e-08
2.0761e-06
3.10477e-06
4.57169e-06
6.62744e-06
9.45802e-06
1.32866e-05
1.83728e-05
2.50084e-05
3.35094e-05
4.42041e-05
5.74169e-05
7.34511e-05
9.257e-05
0.000114981
0.000140823
0.000170166
0.000203014
0.00023932
0.000279014
0.000322028
0.000368334
0.000417969
0.000471061
0.00052784
0.00058864
0.000653893
0.000724112
0.000799871
0.000881786
0.0009705
0.00106666
0.00117093
0.00128394
0.00140633
0.00153873
0.00168171
0.00183583
0.00200161
0.00217948
0.00236981
0.00257286
0.00278878
0.0030176
0.00325919
0.00351322
0.00377923
0.0040565
0.00434414
0.00464101
0.00494575
0.00525676
0.0055714
0.00588739
0.0062022
0.0065131
0.00681717
0.00711131
0.00739236
0.00765704
0.00790212
0.00812435
0.00832063
0.00848797
0.00862362
0.00872507
0.00879008
0.00881677
0.0088036
0.00874941
0.00865341
0.00851519
0.00833473
0.00811236
0.00784878
0.00754506
0.00720263
0.00682333
0.00640947
0.00596395
0.00549036
0.00499317
0.00447796
0.00395155
0.00342218
0.0028995
0.00239442
0.00191857
0.00148359
0.00109999
0.000775835
0.000515524
0.000318839
0.000180729
9.20007e-05
4.0903e-05
1.52522e-05
4.47349e-06
9.17735e-07
9.88095e-08
3.3201e-06
4.88064e-06
7.06246e-06
1.0059e-05
1.41009e-05
1.94548e-05
2.64179e-05
3.53092e-05
4.64564e-05
6.01789e-05
7.67698e-05
9.64769e-05
0.000119487
0.000145916
0.000175805
0.000209131
0.000245821
0.000285781
0.000328924
0.000375206
0.000424651
0.000477381
0.00053362
0.000593702
0.000658063
0.000727221
0.000801768
0.000882342
0.000969619
0.0010643
0.0011671
0.00127874
0.00139995
0.00153147
0.00167402
0.0018283
0.00199498
0.0021747
0.002368
0.00257538
0.00279719
0.0030337
0.00328501
0.00355103
0.00383152
0.004126
0.00443378
0.00475391
0.00508519
0.00542616
0.00577507
0.00612908
0.00648565
0.00684198
0.00719503
0.0075415
0.00787793
0.00820072
0.00850618
0.00879061
0.00905034
0.00928183
0.0094817
0.00964679
0.00977425
0.00986158
0.00990664
0.00990771
0.0098635
0.00977317
0.00963631
0.00945292
0.00922342
0.0089486
0.00862958
0.00826785
0.00786524
0.00742394
0.00694661
0.00643645
0.00589747
0.00533462
0.00475414
0.00416379
0.00357308
0.00299327
0.00243715
0.0019184
0.00145048
0.00104516
0.000710808
0.000450772
0.00026247
0.000137494
6.30157e-05
2.42647e-05
7.36159e-06
1.56476e-06
1.74843e-07
5.12342e-06
7.40993e-06
1.05469e-05
1.47731e-05
2.03631e-05
2.76217e-05
3.6874e-05
4.84511e-05
6.26726e-05
7.98274e-05
0.000100154
0.000123825
0.000150936
0.000181507
0.000215485
0.000252771
0.000293239
0.000336773
0.000383301
0.000432822
0.000485433
0.000541336
0.000600848
0.00066439
0.000732473
0.000805687
0.000884681
0.000970149
0.00106283
0.00116347
0.00127289
0.00139188
0.00152129
0.00166195
0.00181473
0.00198045
0.00215992
0.00235392
0.00256314
0.00278821
0.00302961
0.00328771
0.00356273
0.00385466
0.00416333
0.00448828
0.00482884
0.00518403
0.00555257
0.00593291
0.00632316
0.00672022
0.00712133
0.00752338
0.00792294
0.00831634
0.00869967
0.00906886
0.00941972
0.00974806
0.0100497
0.0103206
0.0105569
0.0107549
0.0109116
0.0110239
0.0110896
0.0111066
0.0110736
0.0109896
0.0108543
0.0106678
0.0104305
0.0101434
0.00980794
0.00942567
0.00899859
0.00852891
0.0080192
0.00747244
0.00689215
0.00628268
0.00564949
0.00499954
0.00434166
0.00368686
0.00304834
0.00244119
0.00188148
0.0013847
0.00096377
0.000626751
0.000374968
0.000202218
9.55955e-05
3.80389e-05
1.19477e-05
2.63392e-06
3.05785e-07
7.6599e-06
1.09091e-05
1.52874e-05
2.1079e-05
2.85987e-05
3.81809e-05
5.01655e-05
6.4878e-05
8.26102e-05
0.000103599
0.000128009
0.000155924
0.000187343
0.00022219
0.000260335
0.000301617
0.000345883
0.000393021
0.00044299
0.000495846
0.000551755
0.000610996
0.000673961
0.000741136
0.000813091
0.000890467
0.000973961
0.00106432
0.00116235
0.00126888
0.00138479
0.00151101
0.0016485
0.00179822
0.00196118
0.00213837
0.00233076
0.00253928
0.00276479
0.00300807
0.00326978
0.00355041
0.00385031
0.00416959
0.00450814
0.00486559
0.00524126
0.00563416
0.00604296
0.006466
0.00690122
0.00734533
0.00779525
0.00824755
0.0086984
0.00914369
0.009579
0.00999974
0.0104012
0.0107785
0.0111269
0.0114419
0.011719
0.0119541
0.0121435
0.0122839
0.0123727
0.0124077
0.0123872
0.0123103
0.0121767
0.0119865
0.0117405
0.0114398
0.0110861
0.0106814
0.0102278
0.00972783
0.00918417
0.00859971
0.0079777
0.00732195
0.00663711
0.00592914
0.0052058
0.00447718
0.0037561
0.00305819
0.00240132
0.00180438
0.00128503
0.000856937
0.00052687
0.000292625
0.000142765
5.87474e-05
1.91201e-05
4.37623e-06
5.2849e-07
1.11338e-05
1.5628e-05
2.15817e-05
2.93221e-05
3.91972e-05
5.15606e-05
6.67507e-05
8.50697e-05
0.000106761
0.000131992
0.000160841
0.000193293
0.000229252
0.000268557
0.000311011
0.000356417
0.000404611
0.000455502
0.00050909
0.000565487
0.00062492
0.000687731
0.000754362
0.000825349
0.000901302
0.000982903
0.00107089
0.00116608
0.00126932
0.00138155
0.00150375
0.00163697
0.00178229
0.00194086
0.00211383
0.00230238
0.00250765
0.00273077
0.0029728
0.0032347
0.0035173
0.00382129
0.00414715
0.00449514
0.00486526
0.00525721
0.00567035
0.0061037
0.00655587
0.0070251
0.00750918
0.00800457
0.0085079
0.00901537
0.00952271
0.0100253
0.0105182
0.0109961
0.0114538
0.0118857
0.0122865
0.0126507
0.0129736
0.0132502
0.0134764
0.0136485
0.0137633