# vtk DataFile Version 3.0
Malha 2D com triângulos e temperatura
ASCII
DATASET UNSTRUCTURED_GRID

POINTS 10000 double
0 0 0
10 0 0
10 10 0
0 10 0
0.10101 0 0
0.20202 0 0
0.30303 0 0
0.40404 0 0
0.505051 0 0
0.606061 0 0
0.707071 0 0
0.808081 0 0
0.909091 0 0
1.0101 0 0
1.11111 0 0
1.21212 0 0
1.31313 0 0
1.41414 0 0
1.51515 0 0
1.61616 0 0
1.71717 0 0
1.81818 0 0
1.91919 0 0
2.0202 0 0
2.12121 0 0
2.22222 0 0
2.32323 0 0
2.42424 0 0
2.52525 0 0
2.62626 0 0
2.72727 0 0
2.82828 0 0
2.92929 0 0
3.0303 0 0
3.13131 0 0
3.23232 0 0
3.33333 0 0
3.43434 0 0
3.53535 0 0
3.63636 0 0
3.73737 0 0
3.83838 0 0
3.93939 0 0
4.0404 0 0
4.14141 0 0
4.24242 0 0
4.34343 0 0
4.44444 0 0
4.54545 0 0
4.64646 0 0
4.74747 0 0
4.84848 0 0
4.94949 0 0
5.05051 0 0
5.15152 0 0
5.25253 0 0
5.35354 0 0
5.45455 0 0
5.55556 0 0
5.65657 0 0
5.75758 0 0
5.85859 0 0
5.9596 0 0
6.06061 0 0
6.16162 0 0
6.26263 0 0
6.36364 0 0
6.46465 0 0
6.56566 0 0
6.66667 0 0
6.76768 0 0
6.86869 0 0
6.9697 0 0
7.07071 0 0
7.17172 0 0
7.27273 0 0
7.37374 0 0
7.47475 0 0
7.57576 0 0
7.67677 0 0
7.77778 0 0
7.87879 0 0
7.9798 0 0
8.08081 0 0
8.18182 0 0
8.28283 0 0
8.38384 0 0
8.48485 0 0
8.58586 0 0
8.68687 0 0
8.78788 0 0
8.88889 0 0
8.9899 0 0
9.09091 0 0
9.19192 0 0
9.29293 0 0
9.39394 0 0
9.49495 0 0
9.59596 0 0
9.69697 0 0
9.79798 0 0
9.89899 0 0
10 0.10101 0
10 0.20202 0
10 0.30303 0
10 0.40404 0
10 0.505051 0
10 0.606061 0
10 0.707071 0
10 0.808081 0
10 0.909091 0
10 1.0101 0
10 1.11111 0
10 1.21212 0
10 1.31313 0
10 1.41414 0
10 1.51515 0
10 1.61616 0
10 1.71717 0
10 1.81818 0
10 1.91919 0
10 2.0202 0
10 2.12121 0
10 2.22222 0
10 2.32323 0
10 2.42424 0
10 2.52525 0
10 2.62626 0
10 2.72727 0
10 2.82828 0
10 2.92929 0
10 3.0303 0
10 3.13131 0
10 3.23232 0
10 3.33333 0
10 3.43434 0
10 3.53535 0
10 3.63636 0
10 3.73737 0
10 3.83838 0
10 3.93939 0
10 4.0404 0
10 4.14141 0
10 4.24242 0
10 4.34343 0
10 4.44444 0
10 4.54545 0
10 4.64646 0
10 4.74747 0
10 4.84848 0
10 4.94949 0
10 5.05051 0
10 5.15152 0
10 5.25253 0
10 5.35354 0
10 5.45455 0
10 5.55556 0
10 5.65657 0
10 5.75758 0
10 5.85859 0
10 5.9596 0
10 6.06061 0
10 6.16162 0
10 6.26263 0
10 6.36364 0
10 6.46465 0
10 6.56566 0
10 6.66667 0
10 6.76768 0
10 6.86869 0
10 6.9697 0
10 7.07071 0
10 7.17172 0
10 7.27273 0
10 7.37374 0
10 7.47475 0
10 7.57576 0
10 7.67677 0
10 7.77778 0
10 7.87879 0
10 7.9798 0
10 8.08081 0
10 8.18182 0
10 8.28283 0
10 8.38384 0
10 8.48485 0
10 8.58586 0
10 8.68687 0
10 8.78788 0
10 8.88889 0
10 8.9899 0
10 9.09091 0
10 9.19192 0
10 9.29293 0
10 9.39394 0
10 9.49495 0
10 9.59596 0
10 9.69697 0
10 9.79798 0
10 9.89899 0
9.89899 10 0
9.79798 10 0
9.69697 10 0
9.59596 10 0
9.49495 10 0
9.39394 10 0
9.29293 10 0
9.19192 10 0
9.09091 10 0
8.9899 10 0
8.88889 10 0
8.78788 10 0
8.68687 10 0
8.58586 10 0
8.48485 10 0
8.38384 10 0
8.28283 10 0
8.18182 10 0
8.08081 10 0
7.9798 10 0
7.87879 10 0
7.77778 10 0
7.67677 10 0
7.57576 10 0
7.47475 10 0
7.37374 10 0
7.27273 10 0
7.17172 10 0
7.07071 10 0
6.9697 10 0
6.86869 10 0
6.76768 10 0
6.66667 10 0
6.56566 10 0
6.46465 10 0
6.36364 10 0
6.26263 10 0
6.16162 10 0
6.06061 10 0
5.9596 10 0
5.85859 10 0
5.75758 10 0
5.65657 10 0
5.55556 10 0
5.45455 10 0
5.35354 10 0
5.25253 10 0
5.15152 10 0
5.05051 10 0
4.94949 10 0
4.84848 10 0
4.74747 10 0
4.64646 10 0
4.54545 10 0
4.44444 10 0
4.34343 10 0
4.24242 10 0
4.14141 10 0
4.0404 10 0
3.93939 10 0
3.83838 10 0
3.73737 10 0
3.63636 10 0
3.53535 10 0
3.43434 10 0
3.33333 10 0
3.23232 10 0
3.13131 10 0
3.0303 10 0
2.92929 10 0
2.82828 10 0
2.72727 10 0
2.62626 10 0
2.52525 10 0
2.42424 10 0
2.32323 10 0
2.22222 10 0
2.12121 10 0
2.0202 10 0
1.91919 10 0
1.81818 10 0
1.71717 10 0
1.61616 10 0
1.51515 10 0
1.41414 10 0
1.31313 10 0
1.21212 10 0
1.11111 10 0
1.0101 10 0
0.909091 10 0
0.808081 10 0
0.707071 10 0
0.606061 10 0
0.505051 10 0
0.40404 10 0
0.30303 10 0
0.20202 10 0
0.10101 10 0
0 9.89899 0
0 9.79798 0
0 9.69697 0
0 9.59596 0
0 9.49495 0
0 9.39394 0
0 9.29293 0
0 9.19192 0
0 9.09091 0
0 8.9899 0
0 8.88889 0
0 8.78788 0
0 8.68687 0
0 8.58586 0
0 8.48485 0
0 8.38384 0
0 8.28283 0
0 8.18182 0
0 8.08081 0
0 7.9798 0
0 7.87879 0
0 7.77778 0
0 7.67677 0
0 7.57576 0
0 7.47475 0
0 7.37374 0
0 7.27273 0
0 7.17172 0
0 7.07071 0
0 6.9697 0
0 6.86869 0
0 6.76768 0
0 6.66667 0
0 6.56566 0
0 6.46465 0
0 6.36364 0
0 6.26263 0
0 6.16162 0
0 6.06061 0
0 5.9596 0
0 5.85859 0
0 5.75758 0
0 5.65657 0
0 5.55556 0
0 5.45455 0
0 5.35354 0
0 5.25253 0
0 5.15152 0
0 5.05051 0
0 4.94949 0
0 4.84848 0
0 4.74747 0
0 4.64646 0
0 4.54545 0
0 4.44444 0
0 4.34343 0
0 4.24242 0
0 4.14141 0
0 4.0404 0
0 3.93939 0
0 3.83838 0
0 3.73737 0
0 3.63636 0
0 3.53535 0
0 3.43434 0
0 3.33333 0
0 3.23232 0
0 3.13131 0
0 3.0303 0
0 2.92929 0
0 2.82828 0
0 2.72727 0
0 2.62626 0
0 2.52525 0
0 2.42424 0
0 2.32323 0
0 2.22222 0
0 2.12121 0
0 2.0202 0
0 1.91919 0
0 1.81818 0
0 1.71717 0
0 1.61616 0
0 1.51515 0
0 1.41414 0
0 1.31313 0
0 1.21212 0
0 1.11111 0
0 1.0101 0
0 0.909091 0
0 0.808081 0
0 0.707071 0
0 0.606061 0
0 0.505051 0
0 0.40404 0
0 0.30303 0
0 0.20202 0
0 0.10101 0
0.10101 0.10101 0
0.10101 0.20202 0
0.10101 0.30303 0
0.10101 0.40404 0
0.10101 0.505051 0
0.10101 0.606061 0
0.10101 0.707071 0
0.10101 0.808081 0
0.10101 0.909091 0
0.10101 1.0101 0
0.10101 1.11111 0
0.10101 1.21212 0
0.10101 1.31313 0
0.10101 1.41414 0
0.10101 1.51515 0
0.10101 1.61616 0
0.10101 1.71717 0
0.10101 1.81818 0
0.10101 1.91919 0
0.10101 2.0202 0
0.10101 2.12121 0
0.10101 2.22222 0
0.10101 2.32323 0
0.10101 2.42424 0
0.10101 2.52525 0
0.10101 2.62626 0
0.10101 2.72727 0
0.10101 2.82828 0
0.10101 2.92929 0
0.10101 3.0303 0
0.10101 3.13131 0
0.10101 3.23232 0
0.10101 3.33333 0
0.10101 3.43434 0
0.10101 3.53535 0
0.10101 3.63636 0
0.10101 3.73737 0
0.10101 3.83838 0
0.10101 3.93939 0
0.10101 4.0404 0
0.10101 4.14141 0
0.10101 4.24242 0
0.10101 4.34343 0
0.10101 4.44444 0
0.10101 4.54545 0
0.10101 4.64646 0
0.10101 4.74747 0
0.10101 4.84848 0
0.10101 4.94949 0
0.10101 5.05051 0
0.10101 5.15152 0
0.10101 5.25253 0
0.10101 5.35354 0
0.10101 5.45455 0
0.10101 5.55556 0
0.10101 5.65657 0
0.10101 5.75758 0
0.10101 5.85859 0
0.10101 5.9596 0
0.10101 6.06061 0
0.10101 6.16162 0
0.10101 6.26263 0
0.10101 6.36364 0
0.10101 6.46465 0
0.10101 6.56566 0
0.10101 6.66667 0
0.10101 6.76768 0
0.10101 6.86869 0
0.10101 6.9697 0
0.10101 7.07071 0
0.10101 7.17172 0
0.10101 7.27273 0
0.10101 7.37374 0
0.10101 7.47475 0
0.10101 7.57576 0
0.10101 7.67677 0
0.10101 7.77778 0
0.10101 7.87879 0
0.10101 7.9798 0
0.10101 8.08081 0
0.10101 8.18182 0
0.10101 8.28283 0
0.10101 8.38384 0
0.10101 8.48485 0
0.10101 8.58586 0
0.10101 8.68687 0
0.10101 8.78788 0
0.10101 8.88889 0
0.10101 8.9899 0
0.10101 9.09091 0
0.10101 9.19192 0
0.10101 9.29293 0
0.10101 9.39394 0
0.10101 9.49495 0
0.10101 9.59596 0
0.10101 9.69697 0
0.10101 9.79798 0
0.10101 9.89899 0
0.20202 0.10101 0
0.20202 0.20202 0
0.20202 0.30303 0
0.20202 0.40404 0
0.20202 0.505051 0
0.20202 0.606061 0
0.20202 0.707071 0
0.20202 0.808081 0
0.20202 0.909091 0
0.20202 1.0101 0
0.20202 1.11111 0
0.20202 1.21212 0
0.20202 1.31313 0
0.20202 1.41414 0
0.20202 1.51515 0
0.20202 1.61616 0
0.20202 1.71717 0
0.20202 1.81818 0
0.20202 1.91919 0
0.20202 2.0202 0
0.20202 2.12121 0
0.20202 2.22222 0
0.20202 2.32323 0
0.20202 2.42424 0
0.20202 2.52525 0
0.20202 2.62626 0
0.20202 2.72727 0
0.20202 2.82828 0
0.20202 2.92929 0
0.20202 3.0303 0
0.20202 3.13131 0
0.20202 3.23232 0
0.20202 3.33333 0
0.20202 3.43434 0
0.20202 3.53535 0
0.20202 3.63636 0
0.20202 3.73737 0
0.20202 3.83838 0
0.20202 3.93939 0
0.20202 4.0404 0
0.20202 4.14141 0
0.20202 4.24242 0
0.20202 4.34343 0
0.20202 4.44444 0
0.20202 4.54545 0
0.20202 4.64646 0
0.20202 4.74747 0
0.20202 4.84848 0
0.20202 4.94949 0
0.20202 5.05051 0
0.20202 5.15152 0
0.20202 5.25253 0
0.20202 5.35354 0
0.20202 5.45455 0
0.20202 5.55556 0
0.20202 5.65657 0
0.20202 5.75758 0
0.20202 5.85859 0
0.20202 5.9596 0
0.20202 6.06061 0
0.20202 6.16162 0
0.20202 6.26263 0
0.20202 6.36364 0
0.20202 6.46465 0
0.20202 6.56566 0
0.20202 6.66667 0
0.20202 6.76768 0
0.20202 6.86869 0
0.20202 6.9697 0
0.20202 7.07071 0
0.20202 7.17172 0
0.20202 7.27273 0
0.20202 7.37374 0
0.20202 7.47475 0
0.20202 7.57576 0
0.20202 7.67677 0
0.20202 7.77778 0
0.20202 7.87879 0
0.20202 7.9798 0
0.20202 8.08081 0
0.20202 8.18182 0
0.20202 8.28283 0
0.20202 8.38384 0
0.20202 8.48485 0
0.20202 8.58586 0
0.20202 8.68687 0
0.20202 8.78788 0
0.20202 8.88889 0
0.20202 8.9899 0
0.20202 9.09091 0
0.20202 9.19192 0
0.20202 9.29293 0
0.20202 9.39394 0
0.20202 9.49495 0
0.20202 9.59596 0
0.20202 9.69697 0
0.20202 9.79798 0
0.20202 9.89899 0
0.30303 0.10101 0
0.30303 0.20202 0
0.30303 0.30303 0
0.30303 0.40404 0
0.30303 0.505051 0
0.30303 0.606061 0
0.30303 0.707071 0
0.30303 0.808081 0
0.30303 0.909091 0
0.30303 1.0101 0
0.30303 1.11111 0
0.30303 1.21212 0
0.30303 1.31313 0
0.30303 1.41414 0
0.30303 1.51515 0
0.30303 1.61616 0
0.30303 1.71717 0
0.30303 1.81818 0
0.30303 1.91919 0
0.30303 2.0202 0
0.30303 2.12121 0
0.30303 2.22222 0
0.30303 2.32323 0
0.30303 2.42424 0
0.30303 2.52525 0
0.30303 2.62626 0
0.30303 2.72727 0
0.30303 2.82828 0
0.30303 2.92929 0
0.30303 3.0303 0
0.30303 3.13131 0
0.30303 3.23232 0
0.30303 3.33333 0
0.30303 3.43434 0
0.30303 3.53535 0
0.30303 3.63636 0
0.30303 3.73737 0
0.30303 3.83838 0
0.30303 3.93939 0
0.30303 4.0404 0
0.30303 4.14141 0
0.30303 4.24242 0
0.30303 4.34343 0
0.30303 4.44444 0
0.30303 4.54545 0
0.30303 4.64646 0
0.30303 4.74747 0
0.30303 4.84848 0
0.30303 4.94949 0
0.30303 5.05051 0
0.30303 5.15152 0
0.30303 5.25253 0
0.30303 5.35354 0
0.30303 5.45455 0
0.30303 5.55556 0
0.30303 5.65657 0
0.30303 5.75758 0
0.30303 5.85859 0
0.30303 5.9596 0
0.30303 6.06061 0
0.30303 6.16162 0
0.30303 6.26263 0
0.30303 6.36364 0
0.30303 6.46465 0
0.30303 6.56566 0
0.30303 6.66667 0
0.30303 6.76768 0
0.30303 6.86869 0
0.30303 6.9697 0
0.30303 7.07071 0
0.30303 7.17172 0
0.30303 7.27273 0
0.30303 7.37374 0
0.30303 7.47475 0
0.30303 7.57576 0
0.30303 7.67677 0
0.30303 7.77778 0
0.30303 7.87879 0
0.30303 7.9798 0
0.30303 8.08081 0
[...]
CELL_DATA 9801
SCALARS Temperatura double 1
LOOKUP_TABLE default
-2.77585e-16
1.37609e-15
3.56244e-15
5.45325e-15
4.97135e-15
-3.46513e-16
-1.17567e-14
-2.70872e-14
-3.907e-14
-3.59407e-14
-5.67127e-15
5.63825e-14
1.39097e-13
2.11256e-13
2.26231e-13
1.37762e-13
-7.64866e-14
-3.92591e-13
-7.30938e-13
-9.68614e-13
-9.74376e-13
-6.56494e-13
-6.00073e-15
8.82961e-13
1.82665e-12
2.59728e-12
2.98623e-12
2.86347e-12
2.21354e-12
1.13725e-12
-1.78966e-13
-1.51397e-12
-2.66588e-12
-3.49354e-12
-3.93649e-12
-4.01222e-12
-3.79631e-12
-3.39434e-12
-2.91417e-12
-2.44518e-12
-2.04684e-12
-1.7467e-12
-1.54507e-12
-1.4235e-12
-1.35415e-12
-1.30785e-12
-1.25997e-12
-1.19362e-12
-1.1007e-12
-9.81266e-13
-8.42662e-13
-7.06901e-13
-5.72751e-13
-4.45245e-13
-3.27785e-13
-2.23191e-13
-1.33325e-13
-5.91108e-14
-6.07944e-16
4.28524e-14
7.25048e-14
8.998e-14
9.71456e-14
9.59696e-14
8.8411e-14
7.6339e-14
6.14792e-14
4.53793e-14
2.93888e-14
1.46437e-14
2.05044e-15
-7.73536e-15
-1.4334e-14
-1.76654e-14
-1.79603e-14
-1.57444e-14
-1.1785e-14
-6.99184e-15
-2.28242e-15
1.56988e-15
4.06795e-15
5.0671e-15
4.76699e-15
3.61598e-15
2.1546e-15
8.49804e-16
-2.29463e-17
-4.121e-16
-4.36753e-16
-2.84682e-16
-1.1548e-16
-1.00182e-17
2.51382e-17
2.07037e-17
7.62215e-18
1.97925e-19
-1.19368e-18
-4.9603e-19
1.53548e-20
3.90482e-15
6.59591e-15
5.17009e-15
-2.82207e-15
-1.86621e-14
-3.82703e-14
-5.00244e-14
-3.63143e-14
1.88893e-14
1.17105e-13
2.32136e-13
3.05447e-13
2.58934e-13
2.78293e-14
-3.94594e-13
-9.20131e-13
-1.36053e-12
-1.47023e-12
-1.03328e-12
3.29381e-14
1.60021e-12
3.31899e-12
4.69245e-12
5.21863e-12
4.55322e-12
2.63373e-12
-2.81591e-13
-3.67467e-12
-6.90619e-12
-9.38309e-12
-1.07009e-11
-1.07208e-11
-9.56855e-12
-7.56769e-12
-5.13811e-12
-2.69329e-12
-5.62469e-13
1.04961e-12
2.06646e-12
2.51708e-12
2.5e-12
2.14637e-12
1.58982e-12
9.46818e-13
3.07139e-13
-2.67826e-13
-7.41887e-13
-1.09872e-12
-1.33627e-12
-1.46198e-12
-1.49004e-12
-1.43373e-12
-1.31508e-12
-1.15519e-12
-9.72624e-13
-7.83005e-13
-5.98655e-13
-4.28653e-13
-2.7906e-13
-1.53296e-13
-5.25892e-14
2.35433e-14
7.68339e-14
1.09846e-13
1.25623e-13
1.27401e-13
1.18412e-13
1.01734e-13
8.02176e-14
5.64299e-14
3.26342e-14
1.07614e-14
-7.62827e-15
-2.14023e-14
-2.99254e-14
-3.31218e-14
-3.15008e-14
-2.61137e-14
-1.84181e-14
-1.00492e-14
-2.53108e-15
3.00963e-15
6.04539e-15
6.69718e-15
5.60661e-15
3.66954e-15
1.72628e-15
3.22845e-16
-3.75292e-16
-5.08111e-16
-3.50296e-16
-1.44612e-16
-1.50859e-17
2.62181e-17
2.03416e-17
6.29169e-18
-4.10478e-19
-1.03321e-18
-2.25125e-19
9.33373e-15
7.15083e-16
-1.90264e-14
-4.74825e-14
-7.03837e-14
-6.18192e-14
6.56522e-15
1.45767e-13
3.25e-13
4.57109e-13
4.11742e-13
6.69543e-14
-6.09386e-13
-1.48147e-12
-2.21934e-12
-2.36563e-12
-1.50059e-12
5.41629e-13
3.49576e-12
6.62426e-12
8.8672e-12
9.15916e-12
6.80933e-12
1.79986e-12
-5.12142e-12
-1.26006e-11
-1.90383e-11
-2.30251e-11
-2.37038e-11
-2.09489e-11
-1.53294e-11
-7.89463e-12
1.23056e-13
7.59257e-12
1.36815e-11
1.79386e-11
2.02728e-11
2.08657e-11
2.00592e-11
1.82534e-11
1.58315e-11
1.31177e-11
1.03615e-11
7.74044e-12
5.37035e-12
3.31856e-12
1.61564e-12
2.65031e-13
-7.49619e-13
-1.45842e-12
-1.90243e-12
-2.11549e-12
-2.14597e-12
-2.04203e-12
-1.84606e-12
-1.59467e-12
-1.31786e-12
-1.03907e-12
-7.75562e-13
-5.39038e-13
-3.36434e-13
-1.70813e-13
-4.22379e-14
5.14004e-14
1.13654e-13
1.48912e-13
1.61923e-13
1.5745e-13
1.40048e-13
1.13933e-13
8.29265e-14
5.04333e-14
1.94249e-14
-7.60199e-15
-2.87085e-14
-4.26322e-14
-4.89157e-14
-4.79934e-14
-4.11776e-14
-3.04923e-14
-1.83438e-14
-7.06873e-15
1.535e-15
6.55753e-15
8.08422e-15
7.01262e-15
4.64114e-15
2.18813e-15
4.30067e-16
-4.1425e-16
-5.52171e-16
-3.55468e-16
-1.27184e-16
-7.59553e-19
2.86518e-17
1.64506e-17
3.08138e-18
-1.08896e-18
-6.85391e-19
-6.16786e-15
-4.89516e-14
-8.72374e-14
-9.69918e-14
-3.39152e-14
1.33451e-13
3.85882e-13
6.19229e-13
6.44375e-13
2.48701e-13
-6.78862e-13
-2.00044e-12
-3.24115e-12
-3.64977e-12
-2.45058e-12
7.64947e-13
5.65978e-12
1.09873e-11
1.47936e-11
1.49941e-11
1.01508e-11
1.53756e-13
-1.34931e-11
-2.79343e-11
-3.97114e-11
-4.5736e-11
-4.4142e-11
-3.47369e-11
-1.8939e-11
7.17595e-13
2.12949e-11
4.01323e-11
5.53137e-11
6.58475e-11
7.15925e-11
7.30285e-11
7.09798e-11
6.63758e-11
6.00888e-11
5.28515e-11
4.52363e-11
3.76686e-11
3.0453e-11
2.38e-11
1.78464e-11
1.26703e-11
8.3019e-12
4.73266e-12
1.92305e-12
-1.89419e-13
-1.69169e-12
-2.65343e-12
-3.17113e-12
-3.34487e-12
-3.26385e-12
-3.0068e-12
-2.64016e-12
-2.21789e-12
-1.78184e-12
-1.36278e-12
-9.81653e-13
-6.51142e-13
-3.77272e-13
-1.60954e-13
5.84374e-16
1.12549e-13
1.81557e-13
2.14834e-13
2.19642e-13
2.02911e-13
1.71039e-13
1.2982e-13
8.44423e-14
3.94966e-14
-1.0545e-15
-3.39869e-14
-5.70056e-14
-6.89782e-14
-7.01282e-14
-6.2082e-14
-4.767e-14
-3.04449e-14
-1.39753e-14
-1.08406e-15
6.7354e-15
9.51311e-15
8.52409e-15
5.64426e-15
2.60933e-15
4.83125e-16
-4.77285e-16
-5.87527e-16
-3.4115e-16
-9.8256e-17
1.4262e-17
2.79544e-17
1.11765e-17
4.81259e-19
-1.3021e-18
-7.84897e-14
-1.32345e-13
-9.94902e-14
6.32348e-14
3.73293e-13
7.40221e-13
9.33711e-13
6.28293e-13
-4.4166e-13
-2.24511e-12
-4.24326e-12
-5.36349e-12
-4.28801e-12
-5.56042e-14
7.21859e-12
1.58545e-11
2.27025e-11
2.39786e-11
1.66528e-11
-1.1171e-13
-2.40986e-11
-5.02088e-11
-7.1708e-11
-8.21385e-11
-7.72007e-11
-5.59358e-11
-2.08432e-11
2.3002e-11
6.94187e-11
1.12625e-10
1.48329e-10
1.74195e-10
1.89724e-10
1.9577e-10
1.93943e-10
1.86086e-10
1.73938e-10
1.58968e-10
1.42348e-10
1.24988e-10
1.07595e-10
9.07161e-11
7.47754e-11
6.00886e-11
4.6875e-11
3.52656e-11
2.53132e-11
1.70023e-11
1.02623e-11
4.98034e-12
9.88559e-13
-1.8381e-12
-3.67853e-12
-4.72843e-12
-5.16453e-12
-5.14644e-12
-4.81224e-12
-4.27755e-12
-3.63552e-12
-2.95813e-12
-2.29816e-12
-1.69168e-12
-1.16082e-12
-7.1653e-13
-3.61271e-13
-9.13911e-14
1.00791e-13
2.25279e-13
2.93089e-13
3.15297e-13
3.02446e-13
2.64229e-13
2.09395e-13
1.45789e-13
8.04176e-14
1.94555e-14
-3.18892e-14
-6.9667e-14
-9.15879e-14
-9.73986e-14
-8.90491e-14
-7.04684e-14
-4.6861e-14
-2.36089e-14
-5.05133e-15
6.46038e-15
1.08804e-14
1.00259e-14
6.56916e-15
2.91548e-15
4.54705e-16
-5.59069e-16
-6.01223e-16
-3.02393e-16
-6.09121e-17
2.60212e-17
2.33117e-17
5.58718e-18
-1.49149e-18
-1.73504e-13
-5.98442e-14
2.55174e-13
7.40629e-13
1.1817e-12
1.16316e-12
2.08083e-13
-1.91554e-12
-4.81167e-12
-7.21775e-12
-7.17749e-12
-2.77384e-12
6.71351e-12
1.96992e-11
3.18911e-11
3.71147e-11
2.93798e-11
5.55799e-12
-3.24373e-11
-7.70509e-11
-1.16578e-10
-1.38371e-10
-1.32612e-10
-9.52429e-11
-2.90206e-11
5.75507e-11
1.52812e-10
2.45011e-10
3.24783e-10
3.8645e-10
4.2806e-10
4.50549e-10
4.56557e-10
4.49345e-10
4.32066e-10
4.07422e-10
3.77598e-10
3.44343e-10
3.09091e-10
2.7305e-10
2.37252e-10
2.02571e-10
1.69728e-10
1.39288e-10
1.11657e-10
8.70968e-11
6.57289e-11
4.75548e-11
3.24736e-11
2.03045e-11
1.07438e-11
3.58087e-12
-1.50074e-12
-4.86954e-12
-6.86305e-12
-7.79298e-12
-7.93506e-12
-7.52609e-12
-6.7627e-12
-5.80249e-12
-4.7667e-12
-3.74409e-12
-2.79551e-12
-1.95861e-12
-1.25265e-12
-6.82953e-13
-2.44829e-13
7.29698e-14
2.85492e-13
4.09436e-13
4.61621e-13
4.58005e-13
4.13191e-13
3.40301e-13
2.51081e-13
1.56087e-13
6.47732e-14
-1.46555e-14
-7.56746e-14
-1.14105e-13
-1.28794e-13
-1.21999e-13
-9.91522e-14
-6.78268e-14
-3.60364e-14
-1.03087e-14
5.80144e-15
1.21833e-14
1.14398e-14
7.31552e-15
3.03963e-15
3.27581e-16
-6.48446e-16
-5.82626e-16
-2.40455e-16
-2.19442e-17
3.09645e-17
1.55647e-17
2.20135e-19
-4.47615e-14
5.62819e-13
1.23599e-12
1.66509e-12
1.18653e-12
-8.16283e-13
-4.38851e-12
-8.44889e-12
-1.0604e-11
-7.73455e-12
2.5288e-12
1.9853e-11
3.97171e-11
5.34995e-11
5.0779e-11
2.34785e-11
-2.96367e-11
-1.00166e-10
-1.70629e-10
-2.18674e-10
-2.23604e-10
-1.72777e-10
-6.5437e-11
8.73376e-11
2.66244e-10
4.49267e-10
6.16972e-10
7.55949e-10
8.59804e-10
9.28124e-10
9.64366e-10
9.73704e-10
9.61445e-10
9.3221e-10
8.89748e-10
8.37079e-10
7.76743e-10
7.10996e-10
6.41912e-10
5.71411e-10
5.01244e-10
4.32956e-10
3.67865e-10
3.07037e-10
2.51278e-10
2.01141e-10
1.56932e-10
1.18738e-10
8.6451e-11
5.98107e-11
3.82866e-11
2.1543e-11
9.03909e-12
9.94816e-14
-5.90312e-12
-9.56057e-12
-1.14072e-11
-1.19121e-11
-1.14747e-11
-1.04241e-11
-9.02284e-12
-7.4722e-12
-5.91925e-12
-4.46497e-12
-3.17241e-12
-2.07469e-12
-1.18232e-12
-4.8967e-13
1.94696e-14
3.67464e-13
5.79365e-13
6.80453e-13
6.94663e-13
6.43791e-13
5.47313e-13
4.22615e-13
2.85378e-13
1.49826e-13
2.86056e-14
-6.78515e-14
-1.32396e-13
-1.62338e-13
-1.602e-13
-1.33484e-13
-9.31476e-14
-5.09688e-14
-1.65483e-14
4.95535e-15
1.34507e-14
1.26766e-14
7.77709e-15
2.92896e-15
1.05615e-16
-7.23455e-16
-5.2338e-16
-1.62571e-16
1.01208e-17
2.75354e-17
6.21995e-18
7.56863e-13
1.87228e-12
2.1429e-12
8.94907e-13
-2.61444e-12
-8.02282e-12
-1.31461e-11
-1.39708e-11
-5.95502e-12
1.33584e-11
4.13175e-11
6.84022e-11
7.94462e-11
5.85151e-11
-3.73222e-12
-1.03121e-10
-2.18961e-10
-3.17233e-10
-3.5958e-10
-3.15003e-10
-1.6971e-10
6.869e-11
3.73953e-10
7.09353e-10
1.03767e-09
1.32938e-09
1.56675e-09
1.74368e-09
1.86268e-09
1.93083e-09
1.95642e-09
1.94695e-09
1.90843e-09
1.84558e-09
1.7623e-09
1.66215e-09
1.54855e-09
1.42497e-09
1.29481e-09
1.1614e-09
1.02783e-09
8.9693e-10
7.71177e-10
6.52632e-10
5.4292e-10
4.43218e-10
3.5426e-10
2.76373e-10
2.09519e-10
1.53366e-10
1.07015e-10
6.99561e-11
4.12949e-11
1.98204e-11
4.39314e-12
-6.08472e-12
-1.2623e-11
-1.61259e-11
-1.73793e-11
-1.7047e-11
-1.56726e-11
-1.36875e-11
-1.14211e-11
-9.1136e-12
-6.93046e-12
-4.97566e-12
-3.3051e-12
-1.93852e-12
-8.69969e-13
-7.65567e-14
4.74412e-13
8.19999e-13
9.97718e-13
1.04303e-12
9.88091e-13
8.61451e-13
6.88511e-13
4.92222e-13
2.93635e-13
1.1185e-13
-3.69024e-14
-1.40954e-13
-1.95164e-13
-2.02264e-13
-1.72653e-13
-1.22103e-13
-6.76815e-14
-2.31772e-14
4.24231e-15
1.47265e-14
1.36327e-14
7.85446e-15
2.56016e-15
-1.81066e-16
-7.55829e-16
-4.22489e-16
-8.19814e-17
2.77934e-17
1.84478e-17
2.35922e-12
2.62808e-12
2.13987e-13
-5.30586e-12
-1.29401e-11
-1.88828e-11
-1.69143e-11
-8.06894e-13
3.14116e-11
7.30132e-11
1.06716e-10
1.07968e-10
5.39405e-11
-6.43361e-11
-2.31865e-10
-4.07175e-10
-5.30316e-10
-5.39612e-10
-3.91033e-10
-7.24953e-11
3.92525e-10
9.5292e-10
1.54545e-09
2.11128e-09
2.60773e-09
3.01249e-09
3.32104e-09
3.54031e-09
3.68198e-09
3.75771e-09
3.77686e-09
3.74631e-09
3.67123e-09
3.55615e-09
3.40559e-09
3.2245e-09
3.01824e-09
2.79254e-09
2.55326e-09
2.30626e-09
2.05716e-09
1.81119e-09
1.57299e-09
1.34658e-09
1.13517e-09
9.41219e-10
7.66366e-10
6.11509e-10
4.7687e-10
3.62116e-10
2.65759e-10
1.87073e-10
1.24624e-10
7.62856e-11
4.00293e-11
1.38618e-11
-4.08364e-12
-1.55085e-11
-2.19195e-11
-2.46146e-11
-2.4682e-11
-2.30074e-11
-2.02897e-11
-1.70609e-11
-1.37087e-11
-1.05e-11
-7.60407e-12
-5.11378e-12
-3.06492e-12
-1.45277e-12
-2.45955e-13
6.02452e-13
1.1464e-12
1.44076e-12
1.53736e-12
1.48299e-12
1.31898e-12
1.08193e-12
8.04941e-13
5.18693e-13
2.51507e-13
2.80486e-14
-1.33335e-13
-2.23801e-13
-2.46285e-13
-2.15298e-13
-1.53412e-13
-8.49984e-14
-2.93436e-14
4.05792e-15
1.60358e-14
1.4188e-14
7.47292e-15
1.95306e-15
-4.77452e-16
-7.19594e-16
-2.90376e-16
-1.53384e-17
3.4158e-17
3.39449e-12
-8.4007e-13
-8.95371e-12
-1.92471e-11
-2.57236e-11
-1.92279e-11
8.49663e-12
5.82293e-11
1.16917e-10
1.55917e-10
1.37566e-10
3.03696e-11
-1.71894e-10
-4.35761e-10
-6.86965e-10
-8.26277e-10
-7.58179e-10
-4.21538e-10
1.90213e-10
1.02738e-09
2.00054e-09
3.00736e-09
3.95852e-09
4.79398e-09
5.48639e-09
6.03422e-09
6.45044e-09
6.75209e-09
6.95382e-09
7.06569e-09
7.09391e-09
7.04269e-09
6.91604e-09
6.71883e-09
6.4573e-09
6.13907e-09
5.77299e-09
5.36876e-09
4.93666e-09
4.4871e-09
4.03027e-09
3.57579e-09
3.13238e-09
2.70763e-09
2.30785e-09
1.93793e-09
1.60137e-09
1.3003e-09
1.03565e-09
8.07282e-10
6.12804e-10
4.51271e-10
3.20466e-10
2.16727e-10
1.36513e-10
7.62744e-11
3.26303e-11
2.44676e-12
-1.70982e-11
-2.84791e-11
-3.38102e-11
-3.48506e-11
-3.30238e-11
-2.94478e-11
-2.49704e-11
-2.02089e-11
-1.5589e-11
-1.13822e-11
-7.74075e-12
-4.72775e-12
-2.34317e-12
-5.45458e-13
7.31355e-13
1.56448e-12
2.03291e-12
2.21135e-12
2.16698e-12
1.95885e-12
1.63898e-12
1.2545e-12
8.49445e-13
4.6516e-13
1.38362e-13
-1.02984e-13
-2.44715e-13
-2.90113e-13
-2.59604e-13
-1.85282e-13
-1.01352e-13
-3.40265e-14
4.78957e-15
1.73453e-14
1.42113e-14
6.60218e-15
1.17711e-15
-7.12985e-16
-6.01532e-16
-1.4996e-16
3.78158e-17
-1.37905e-13
-1.36493e-11
-2.70581e-11
-3.39134e-11
-2.10857e-11
2.22738e-11
9.50703e-11
1.75251e-10
2.18223e-10
1.68156e-10
-1.78363e-11
-3.40494e-10
-7.37817e-10
-1.08618e-09
-1.22798e-09
-1.01809e-09
-3.71127e-10
7.09981e-10
2.13581e-09
3.76023e-09
5.4242e-09
6.99529e-09
8.38992e-09
9.57468e-09
1.05527e-08
1.13448e-08
1.19737e-08
1.24558e-08
1.2799e-08
1.30058e-08
1.3076e-08
1.30103e-08
1.28116e-08
1.2486e-08
1.20429e-08
1.14945e-08
1.08555e-08
1.01428e-08
9.37413e-09
8.56812e-09
7.74304e-09
6.91636e-09
6.10413e-09
5.32053e-09
4.57755e-09
3.88474e-09
3.24922e-09
2.67568e-09
2.16662e-09
1.72268e-09
1.34008e-09
1.01779e-09
7.52533e-10
5.38111e-10
3.68467e-10
2.37393e-10
1.38881e-10
6.727e-11
1.73852e-11
-1.5385e-11
-3.50474e-11
-4.49974e-11
-4.8041e-11
-4.64359e-11
-4.19469e-11
-3.59089e-11
-2.92922e-11
-2.27673e-11
-1.67652e-11
-1.15318e-11
-7.17568e-12
-3.70824e-12
-1.07671e-12
8.0958e-13
2.05924e-12
2.78436e-12
3.09105e-12
3.07459e-12
2.81825e-12
2.39512e-12
1.87147e-12
1.30974e-12
7.69437e-13
3.04213e-13
-4.44398e-14
-2.55059e-13
-3.31748e-13
-3.03493e-13
-2.15527e-13
-1.14924e-13
-3.61813e-14
6.71553e-15
1.85304e-14
1.35731e-14
5.27287e-15
3.4904e-16
-8.16515e-16
-4.11063e-16
-8.72271e-18
-1.41537e-11
-3.69401e-11
-4.39147e-11
-2.32224e-11
4.0107e-11
1.427e-10
2.50599e-10
2.97538e-10
2.02543e-10
-9.33253e-11
-5.83128e-10
-1.16399e-09
-1.64073e-09
-1.77013e-09
-1.3332e-09
-2.07172e-10
1.59322e-09
3.92221e-09
6.55224e-09
9.24277e-09
1.17999e-08
1.41071e-08
1.6123e-08
1.78576e-08
1.93415e-08
2.06036e-08
2.16589e-08
2.25086e-08
2.31446e-08
2.35562e-08
2.37343e-08
2.36747e-08
2.33791e-08
2.28557e-08
2.21189e-08
2.11884e-08
2.00893e-08
1.88502e-08
1.75021e-08
1.60775e-08
1.46088e-08
1.31273e-08
1.16621e-08
1.02391e-08
8.88068e-09
7.605e-09
6.42604e-09
5.35359e-09
4.39355e-09
3.5485e-09
2.81269e-09
2.18542e-09
1.66209e-09
1.23246e-09
8.86327e-10
6.13036e-10
4.02094e-10
2.43465e-10
1.27838e-10
4.67927e-11
-7.09739e-12
-4.02283e-11
-5.79796e-11
-6.47681e-11
-6.41287e-11
-5.88132e-11
-5.08973e-11
-4.18889e-11
-3.28319e-11
-2.44019e-11
-1.69913e-11
-1.07831e-11
-5.81184e-12
-2.01394e-12
7.3254e-13
2.5779e-12
3.67892e-12
4.18453e-12
4.2282e-12
3.92613e-12
3.3799e-12
2.68175e-12
1.91933e-12
1.17719e-12
5.32468e-13
4.52164e-14
-2.53536e-13
-3.69798e-13
-3.44879e-13
-2.41782e-13
-1.23849e-13
-3.49076e-14
9.91094e-15
1.93543e-14
1.21605e-14
3.58988e-15
-3.74409e-16
-7.36245e-16
-1.67968e-16
-4.15872e-11
-5.73994e-11
-2.69827e-11
6.05149e-11
2.01004e-10
3.45771e-10
4.00049e-10
2.48102e-10
-1.93087e-10
-9.08902e-10
-1.74192e-09
-2.39676e-09
-2.50621e-09
-1.74015e-09
8.56586e-11
2.94745e-09
6.6245e-09
1.07754e-08
1.50434e-08
1.91461e-08
2.29195e-08
2.6311e-08
2.93401e-08
3.20515e-08
3.44796e-08
3.66342e-08
3.85009e-08
4.00508e-08
4.12501e-08
4.20684e-08
4.24834e-08
4.24827e-08
4.20658e-08
4.12436e-08
4.00384e-08
3.84827e-08
3.66181e-08
3.44929e-08
3.21606e-08
2.96772e-08
2.70993e-08
2.44821e-08
2.18772e-08
1.93315e-08
1.68857e-08
1.45739e-08
1.24227e-08
1.04517e-08
8.67369e-09
7.09566e-09
5.70916e-09
4.5149e-09
3.50697e-09
2.66869e-09
1.98325e-09
1.43265e-09
9.9888e-10
6.64448e-10
4.12893e-10
2.29129e-10
9.96633e-11
1.27056e-11
-4.18144e-11
-7.2307e-11
-8.56359e-11
-8.72672e-11
-8.14406e-11
-7.13463e-11
-5.93006e-11
-4.69105e-11
-3.52227e-11
-2.48552e-11
-1.61091e-11
-9.06132e-12
-3.64052e-12
3.14154e-13
3.00776e-12
4.65699e-12
5.46858e-12
5.62769e-12
5.29493e-12
4.61036e-12
3.70128e-12
2.68965e-12
1.69428e-12
8.24404e-13
1.64898e-13
-2.41237e-13
-4.03925e-13
-3.81951e-13
-2.61723e-13
-1.26411e-13
-2.9594e-14
1.41666e-14
1.94468e-14
9.90075e-15
1.75741e-15
-8.10281e-16
-4.98332e-16
-7.22635e-11
-3.56714e-11
8.07836e-11
2.6834e-10
4.63225e-10
5.34353e-10
3.18377e-10
-3.05074e-10
-1.31859e-09
-2.49744e-09
-3.4111e-09
-3.51583e-09
-2.31391e-09
4.82739e-10
4.85556e-09
1.04914e-08
1.68941e-08
2.35425e-08
3.00261e-08
3.61106e-08
4.17267e-08
4.69084e-08
5.17202e-08
5.62043e-08
6.03591e-08
6.41425e-08
6.74868e-08
7.03156e-08
7.25561e-08
7.41475e-08
7.50446e-08
7.52214e-08
7.46718e-08
7.34105e-08
7.14716e-08
6.89079e-08
6.57875e-08
6.21914e-08
5.82099e-08
5.39384e-08
4.94745e-08
4.49137e-08
4.03468e-08
3.58569e-08
3.15174e-08
2.73904e-08
2.35259e-08
1.99615e-08
1.67236e-08
1.38285e-08
1.12642e-08
9.03527e-09
7.13517e-09
5.53727e-09
4.21435e-09
3.13651e-09
2.27335e-09
1.59487e-09
1.07246e-09
6.79546e-10
3.9206e-10
1.88693e-10
5.09886e-11
-3.66984e-11
-8.73482e-11
-1.11495e-10
-1.17491e-10
-1.11791e-10
-9.92434e-11
-8.33656e-11
-6.66025e-11
-5.05557e-11
-3.61835e-11
-2.397e-11
-1.40642e-11
-6.39263e-12
-7.46543e-13
3.15079e-12
5.59605e-12
6.87376e-12
7.23877e-12
6.91157e-12
6.08392e-12
4.93046e-12
3.61958e-12
2.31658e-12
1.17371e-12
3.08312e-13
-2.22315e-13
-4.35238e-13
-4.13401e-13
-2.73218e-13
-1.21143e-13
-2.00324e-14
1.88779e-14
1.8283e-14
6.83691e-15
1.24103e-16
-9.61201e-16
-7.00998e-11
9.6412e-11
3.4087e-10
6.03802e-10
7.10677e-10
4.34019e-10
-4.04455e-10
-1.79823e-09
-3.44763e-09
-4.74798e-09
-4.91005e-09
-3.18568e-09
8.88405e-10
7.33508e-09
1.5739e-08
2.54015e-08
3.55719e-08
4.56528e-08
5.53045e-08
6.44313e-08
7.30891e-08
8.13745e-08
8.93436e-08
9.69783e-08
1.04192e-07
1.10852e-07
1.16808e-07
1.21912e-07
1.26029e-07
1.29047e-07
1.30882e-07
1.31483e-07
1.30832e-07
1.28948e-07
1.25883e-07
1.21719e-07
1.16568e-07
1.10563e-07
1.03854e-07
9.66022e-08
8.89724e-08
8.11288e-08
7.32287e-08
6.54172e-08
5.78243e-08
5.05614e-08
4.37202e-08
3.73718e-08
3.15676e-08
2.63427e-08
2.16813e-08
1.75967e-08
1.40837e-08
1.11008e-08
8.60467e-09
6.5466e-09
4.87599e-09
3.5422e-09
2.49628e-09
1.69219e-09
1.08771e-09
6.45015e-10
3.30923e-10
1.1693e-10
-2.0956e-11
-1.02521e-10
-1.43738e-10
-1.5722e-10
-1.52682e-10
-1.37407e-10
-1.16672e-10
-9.41523e-11
-7.22635e-11
-5.2467e-11
-3.55215e-11
-2.16899e-11
-1.09052e-11
-2.89961e-12
2.6981e-12
6.29155e-12
8.26992e-12
8.98198e-12
8.72885e-12
7.77191e-12
6.34944e-12
4.69229e-12
3.02789e-12
1.56525e-12
4.6322e-13
-2.04466e-13
-4.66539e-13
-4.38416e-13
-2.74155e-13
-1.06794e-13
-6.62575e-15
2.2846e-14
1.52625e-14
3.32777e-15
-1.23263e-15
3.46301e-11
4.15559e-10
7.64712e-10
9.38693e-10
6.22215e-10
-4.50439e-10
-2.31097e-09
-4.58925e-09
-6.46895e-09
-6.83051e-09
-4.55889e-09
1.09872e-09
1.02811e-08
2.24821e-08
3.67505e-08
5.20211e-08
6.74255e-08
8.24627e-08
9.69928e-08
1.11106e-07
1.24952e-07
1.38619e-07
1.52071e-07
1.65158e-07
1.77649e-07
1.89274e-07
1.99756e-07
2.08832e-07
2.16264e-07
2.21856e-07
2.25457e-07
2.26969e-07
2.26354e-07
2.23629e-07
2.18871e-07
2.1221e-07
2.03822e-07
1.93923e-07
1.82761e-07
1.70602e-07
1.57725e-07
1.44406e-07
1.30915e-07
1.17501e-07
1.04392e-07
9.17839e-08
7.98418e-08
6.86964e-08
5.84461e-08
4.91611e-08
4.08232e-08
3.34633e-08
2.70833e-08
2.16197e-08
1.70051e-08
1.3161e-08
1.00046e-08
7.45189e-09
5.42023e-09
3.8311e-09
2.61163e-09
1.69576e-09
1.02489e-09
5.48055e-10
2.21801e-10
9.79708e-12
-1.17747e-10
-1.84769e-10
-2.10091e-10
-2.08166e-10
-1.89797e-10
-1.62808e-10
-1.32643e-10
-1.0289e-10
-7.57357e-11
-5.23369e-11
-3.31257e-11
-1.80522e-11
-6.77254e-12
1.20982e-12
6.44237e-12
9.45545e-12
1.07246e-11
1.06597e-11
9.61568e-12
7.9159e-12
5.87421e-12
3.79974e-12
1.97499e-12
6.11089e-13
-1.99273e-13
-5.02186e-13
-4.55982e-13
-2.61824e-13
-8.24218e-14
9.04749e-15
2.41215e-14
1.01407e-14
-4.35531e-16
3.35673e-10
9.50586e-10
1.22271e-09
9.13512e-10
-3.85301e-10
-2.7887e-09
-5.88242e-09
-8.61337e-09
-9.43674e-09
-6.71599e-09
7.64591e-10
1.33959e-08
3.06354e-08
5.12408e-08
7.37286e-08
9.68402e-08
1.19826e-07
1.42468e-07
1.64906e-07
1.87387e-07
2.10062e-07
2.32893e-07
2.5565e-07
2.77964e-07
2.99386e-07
3.19435e-07
3.37634e-07
3.53535e-07
3.66733e-07
3.76885e-07
3.83726e-07
3.87077e-07
3.86855e-07
3.8307e-07
3.7583e-07
3.65332e-07
3.51854e-07
3.35744e-07