# vtk DataFile Version 3.0
Malha 2D com triângulos e temperatura
ASCII
DATASET UNSTRUCTURED_GRID

POINTS 10000 double
0 0 0
10 0 0
10 10 0
0 10 0
0.10101 0 0
0.20202 0 0
0.30303 0 0
0.40404 0 0
0.505051 0 0
0.606061 0 0
0.707071 0 0
0.808081 0 0
0.909091 0 0
1.0101 0 0
1.11111 0 0
1.21212 0 0
1.31313 0 0
1.41414 0 0
1.51515 0 0
1.61616 0 0
1.71717 0 0
1.81818 0 0
1.91919 0 0
2.0202 0 0
2.12121 0 0
2.22222 0 0
2.32323 0 0
2.42424 0 0
2.52525 0 0
2.62626 0 0
2.72727 0 0
2.82828 0 0
2.92929 0 0
3.0303 0 0
3.13131 0 0
3.23232 0 0
3.33333 0 0
3.43434 0 0
3.53535 0 0
3.63636 0 0
3.73737 0 0
3.83838 0 0
3.93939 0 0
4.0404 0 0
4.14141 0 0
4.24242 0 0
4.34343 0 0
4.44444 0 0
4.54545 0 0
4.64646 0 0
4.74747 0 0
4.84848 0 0
4.94949 0 0
5.05051 0 0
5.15152 0 0
5.25253 0 0
5.35354 0 0
5.45455 0 0
5.55556 0 0
5.65657 0 0
5.75758 0 0
5.85859 0 0
5.9596 0 0
6.06061 0 0
6.16162 0 0
6.26263 0 0
6.36364 0 0
6.46465 0 0
6.56566 0 0
6.66667 0 0
6.76768 0 0
6.86869 0 0
6.9697 0 0
7.07071 0 0
7.17172 0 0
7.27273 0 0
7.37374 0 0
7.47475 0 0
7.57576 0 0
7.67677 0 0
7.77778 0 0
7.87879 0 0
7.9798 0 0
8.08081 0 0
8.18182 0 0
8.28283 0 0
8.38384 0 0
8.48485 0 0
8.58586 0 0
8.68687 0 0
8.78788 0 0
8.88889 0 0
8.9899 0 0
9.09091 0 0
9.19192 0 0
9.29293 0 0
9.39394 0 0
9.49495 0 0
9.59596 0 0
9.69697 0 0
9.79798 0 0
9.89899 0 0
10 0.10101 0
10 0.20202 0
10 0.30303 0
10 0.40404 0
10 0.505051 0
10 0.606061 0
10 0.707071 0
10 0.808081 0
10 0.909091 0
10 1.0101 0
10 1.11111 0
10 1.21212 0
10 1.31313 0
10 1.41414 0
10 1.51515 0
10 1.61616 0
10 1.71717 0
10 1.81818 0
10 1.91919 0
10 2.0202 0
10 2.12121 0
10 2.22222 0
10 2.32323 0
10 2.42424 0
10 2.52525 0
10 2.62626 0
10 2.72727 0
10 2.82828 0
10 2.92929 0
10 3.0303 0
10 3.13131 0
10 3.23232 0
10 3.33333 0
10 3.43434 0
10 3.53535 0
10 3.63636 0
10 3.73737 0
10 3.83838 0
10 3.93939 0
10 4.0404 0
10 4.14141 0
10 4.24242 0
10 4.34343 0
10 4.44444 0
10 4.54545 0
10 4.64646 0
10 4.74747 0
10 4.84848 0
10 4.94949 0
10 5.05051 0
10 5.15152 0
10 5.25253 0
10 5.35354 0
10 5.45455 0
10 5.55556 0
10 5.65657 0
10 5.75758 0
10 5.85859 0
10 5.9596 0
10 6.06061 0
10 6.16162 0
10 6.26263 0
10 6.36364 0
10 6.46465 0
10 6.56566 0
10 6.66667 0
10 6.76768 0
10 6.86869 0
10 6.9697 0
10 7.07071 0
10 7.17172 0
10 7.27273 0
10 7.37374 0
10 7.47475 0
10 7.57576 0
10 7.67677 0
10 7.77778 0
10 7.87879 0
10 7.9798 0
10 8.08081 0
10 8.18182 0
10 8.28283 0
10 8.38384 0
10 8.48485 0
10 8.58586 0
10 8.68687 0
10 8.78788 0
10 8.88889 0
10 8.9899 0
10 9.09091 0
10 9.19192 0
10 9.29293 0
10 9.39394 0
10 9.49495 0
10 9.59596 0
10 9.69697 0
10 9.79798 0
10 9.89899 0
9.89899 10 0
9.79798 10 0
9.69697 10 0
9.59596 10 0
9.49495 10 0
9.39394 10 0
9.29293 10 0
9.19192 10 0
9.09091 10 0
8.9899 10 0
8.88889 10 0
8.78788 10 0
8.68687 10 0
8.58586 10 0
8.48485 10 0
8.38384 10 0
8.28283 10 0
8.18182 10 0
8.08081 10 0
7.9798 10 0
7.87879 10 0
7.77778 10 0
7.67677 10 0
7.57576 10 0
7.47475 10 0
7.37374 10 0
7.27273 10 0
7.17172 10 0
7.07071 10 0
6.9697 10 0
6.86869 10 0
6.76768 10 0
6.66667 10 0
6.56566 10 0
6.46465 10 0
6.36364 10 0
6.26263 10 0
6.16162 10 0
6.06061 10 0
5.9596 10 0
5.85859 10 0
5.75758 10 0
5.65657 10 0
5.55556 10 0
5.45455 10 0
5.35354 10 0
5.25253 10 0
5.15152 10 0
5.05051 10 0
4.94949 10 0
4.84848 10 0
4.74747 10 0
4.64646 10 0
4.54545 10 0
4.44444 10 0
4.34343 10 0
4.24242 10 0
4.14141 10 0
4.0404 10 0
3.93939 10 0
3.83838 10 0
3.73737 10 0
3.63636 10 0
3.53535 10 0
3.43434 10 0
3.33333 10 0
3.23232 10 0
3.13131 10 0
3.0303 10 0
2.92929 10 0
2.82828 10 0
2.72727 10 0
2.62626 10 0
2.52525 10 0
2.42424 10 0
2.32323 10 0
2.22222 10 0
2.12121 10 0
2.0202 10 0
1.91919 10 0
1.81818 10 0
1.71717 10 0
1.61616 10 0
1.51515 10 0
1.41414 10 0
1.31313 10 0
1.21212 10 0
1.11111 10 0
1.0101 10 0
0.909091 10 0
0.808081 10 0
0.707071 10 0
0.606061 10 0
0.505051 10 0
0.40404 10 0
0.30303 10 0
0.20202 10 0
0.10101 10 0
0 9.89899 0
0 9.79798 0
0 9.69697 0
0 9.59596 0
0 9.49495 0
0 9.39394 0
0 9.29293 0
0 9.19192 0
0 9.09091 0
0 8.9899 0
0 8.88889 0
0 8.78788 0
0 8.68687 0
0 8.58586 0
0 8.48485 0
0 8.38384 0
0 8.28283 0
0 8.18182 0
0 8.08081 0
0 7.9798 0
0 7.87879 0
0 7.77778 0
0 7.67677 0
0 7.57576 0
0 7.47475 0
0 7.37374 0
0 7.27273 0
0 7.17172 0
0 7.07071 0
0 6.9697 0
0 6.86869 0
0 6.76768 0
0 6.66667 0
0 6.56566 0
0 6.46465 0
0 6.36364 0
0 6.26263 0
0 6.16162 0
0 6.06061 0
0 5.9596 0
0 5.85859 0
0 5.75758 0
0 5.65657 0
0 5.55556 0
0 5.45455 0
0 5.35354 0
0 5.25253 0
0 5.15152 0
0 5.05051 0
0 4.94949 0
0 4.84848 0
0 4.74747 0
0 4.64646 0
0 4.54545 0
0 4.44444 0
0 4.34343 0
0 4.24242 0
0 4.14141 0
0 4.0404 0
0 3.93939 0
0 3.83838 0
0 3.73737 0
0 3.63636 0
0 3.53535 0
0 3.43434 0
0 3.33333 0
0 3.23232 0
0 3.13131 0
0 3.0303 0
0 2.92929 0
0 2.82828 0
0 2.72727 0
0 2.62626 0
0 2.52525 0
0 2.42424 0
0 2.32323 0
0 2.22222 0
0 2.12121 0
0 2.0202 0
0 1.91919 0
0 1.81818 0
0 1.71717 0
0 1.61616 0
0 1.51515 0
0 1.41414 0
0 1.31313 0
0 1.21212 0
0 1.11111 0
0 1.0101 0
0 0.909091 0
0 0.808081 0
0 0.707071 0
0 0.606061 0
0 0.505051 0
0 0.40404 0
0 0.30303 0
0 0.20202 0
0 0.10101 0
0.10101 0.10101 0
0.10101 0.20202 0
0.10101 0.30303 0
0.10101 0.40404 0
0.10101 0.505051 0
0.10101 0.606061 0
0.10101 0.707071 0
0.10101 0.808081 0
0.10101 0.909091 0
0.10101 1.0101 0
0.10101 1.11111 0
0.10101 1.21212 0
0.10101 1.31313 0
0.10101 1.41414 0
0.10101 1.51515 0
0.10101 1.61616 0
0.10101 1.71717 0
0.10101 1.81818 0
0.10101 1.91919 0
0.10101 2.0202 0
0.10101 2.12121 0
0.10101 2.22222 0
0.10101 2.32323 0
0.10101 2.42424 0
0.10101 2.52525 0
0.10101 2.62626 0
0.10101 2.72727 0
0.10101 2.82828 0
0.10101 2.92929 0
0.10101 3.0303 0
0.10101 3.13131 0
0.10101 3.23232 0
0.10101 3.33333 0
0.10101 3.43434 0
0.10101 3.53535 0
0.10101 3.63636 0
0.10101 3.73737 0
0.10101 3.83838 0
0.10101 3.93939 0
0.10101 4.0404 0
0.10101 4.14141 0
0.10101 4.24242 0
0.10101 4.34343 0
0.10101 4.44444 0
0.10101 4.54545 0
0.10101 4.64646 0
0.10101 4.74747 0
0.10101 4.84848 0
0.10101 4.94949 0
0.10101 5.05051 0
0.10101 5.15152 0
0.10101 5.25253 0
0.10101 5.35354 0
0.10101 5.45455 0
0.10101 5.55556 0
0.10101 5.65657 0
0.10101 5.75758 0
0.10101 5.85859 0
0.10101 5.9596 0
0.10101 6.06061 0
0.10101 6.16162 0
0.10101 6.26263 0
0.10101 6.36364 0
0.10101 6.46465 0
0.10101 6.56566 0
0.10101 6.66667 0
0.10101 6.76768 0
0.10101 6.86869 0
0.10101 6.9697 0
0.10101 7.07071 0
0.10101 7.17172 0
0.10101 7.27273 0
0.10101 7.37374 0
0.10101 7.47475 0
0.10101 7.57576 0
0.10101 7.67677 0
0.10101 7.77778 0
0.10101 7.87879 0
0.10101 7.9798 0
0.10101 8.08081 0
0.10101 8.18182 0
0.10101 8.28283 0
0.10101 8.38384 0
0.10101 8.48485 0
0.10101 8.58586 0
0.10101 8.68687 0
0.10101 8.78788 0
0.10101 8.88889 0
0.10101 8.9899 0
0.10101 9.09091 0
0.10101 9.19192 0
0.10101 9.29293 0
0.10101 9.39394 0
0.10101 9.49495 0
0.10101 9.59596 0
0.10101 9.69697 0
0.10101 9.79798 0
0.10101 9.89899 0
0.20202 0.10101 0
0.20202 0.20202 0
0.20202 0.30303 0
0.20202 0.40404 0
0.20202 0.505051 0
0.20202 0.606061 0
0.20202 0.707071 0
0.20202 0.808081 0
0.20202 0.909091 0
0.20202 1.0101 0
0.20202 1.11111 0
0.20202 1.21212 0
0.20202 1.31313 0
0.20202 1.41414 0
0.20202 1.51515 0
0.20202 1.61616 0
0.20202 1.71717 0
0.20202 1.81818 0
0.20202 1.91919 0
0.20202 2.0202 0
0.20202 2.12121 0
0.20202 2.22222 0
0.20202 2.32323 0
0.20202 2.42424 0
0.20202 2.52525 0
0.20202 2.62626 0
0.20202 2.72727 0
0.20202 2.82828 0
0.20202 2.92929 0
0.20202 3.0303 0
0.20202 3.13131 0
0.20202 3.23232 0
0.20202 3.33333 0
0.20202 3.43434 0
0.20202 3.53535 0
0.20202 3.63636 0
0.20202 3.73737 0
0.20202 3.83838 0
0.20202 3.93939 0
0.20202 4.0404 0
0.20202 4.14141 0
0.20202 4.24242 0
0.20202 4.34343 0
0.20202 4.44444 0
0.20202 4.54545 0
0.20202 4.64646 0
0.20202 4.74747 0
0.20202 4.84848 0
0.20202 4.94949 0
0.20202 5.05051 0
0.20202 5.15152 0
0.20202 5.25253 0
0.20202 5.35354 0
0.20202 5.45455 0
0.20202 5.55556 0
0.20202 5.65657 0
0.20202 5.75758 0
0.20202 5.85859 0
0.20202 5.9596 0
0.20202 6.06061 0
0.20202 6.16162 0
0.20202 6.26263 0
0.20202 6.36364 0
0.20202 6.46465 0
0.20202 6.56566 0
0.20202 6.66667 0
0.20202 6.76768 0
0.20202 6.86869 0
0.20202 6.9697 0
0.20202 7.07071 0
0.20202 7.17172 0
0.20202 7.27273 0
0.20202 7.37374 0
0.20202 7.47475 0
0.20202 7.57576 0
0.20202 7.67677 0
0.20202 7.77778 0
0.20202 7.87879 0
0.20202 7.9798 0
0.20202 8.08081 0
0.20202 8.18182 0
0.20202 8.28283 0
0.20202 8.38384 0
0.20202 8.48485 0
0.20202 8.58586 0
0.20202 8.68687 0
0.20202 8.78788 0
0.20202 8.88889 0
0.20202 8.9899 0
0.20202 9.09091 0
0.20202 9.19192 0
0.20202 9.29293 0
0.20202 9.39394 0
0.20202 9.49495 0
0.20202 9.59596 0
0.20202 9.69697 0
0.20202 9.79798 0
0.20202 9.89899 0
0.30303 0.10101 0
0.30303 0.20202 0
0.30303 0.30303 0
0.30303 0.40404 0
0.30303 0.505051 0
0.30303 0.606061 0
0.30303 0.707071 0
0.30303 0.808081 0
0.30303 0.909091 0
0.30303 1.0101 0
0.30303 1.11111 0
0.30303 1.21212 0
0.30303 1.31313 0
0.30303 1.41414 0
0.30303 1.51515 0
0.30303 1.61616 0
0.30303 1.71717 0
0.30303 1.81818 0
0.30303 1.91919 0
0.30303 2.0202 0
0.30303 2.12121 0
0.30303 2.22222 0
0.30303 2.32323 0
0.30303 2.42424 0
0.30303 2.52525 0
0.30303 2.62626 0
0.30303 2.72727 0
0.30303 2.82828 0
0.30303 2.92929 0
0.30303 3.0303 0
0.30303 3.13131 0
0.30303 3.23232 0
0.30303 3.33333 0
0.30303 3.43434 0
0.30303 3.53535 0
0.30303 3.63636 0
0.30303 3.73737 0
0.30303 3.83838 0
0.30303 3.93939 0
0.30303 4.0404 0
0.30303 4.14141 0
0.30303 4.24242 0
0.30303 4.34343 0
0.30303 4.44444 0
0.30303 4.54545 0
0.30303 4.64646 0
0.30303 4.74747 0
0.30303 4.84848 0
0.30303 4.94949 0
0.30303 5.05051 0
0.30303 5.15152 0
0.30303 5.25253 0
0.30303 5.35354 0
0.30303 5.45455 0
0.30303 5.55556 0
0.30303 5.65657 0
0.30303 5.75758 0
0.30303 5.85859 0
0.30303 5.9596 0
0.30303 6.06061 0
0.30303 6.16162 0
0.30303 6.26263 0
0.30303 6.36364 0
0.30303 6.46465 0
0.30303 6.56566 0
0.30303 6.66667 0
0.30303 6.76768 0
0.30303 6.86869 0
0.30303 6.9697 0
0.30303 7.07071 0
0.30303 7.17172 0
0.30303 7.27273 0
0.30303 7.37374 0
0.30303 7.47475 0
0.30303 7.57576 0
0.30303 7.67677 0
0.30303 7.77778 0
0.30303 7.87879 0
0.30303 7.9798 0
0.30303 8.08081 0
[...]
CELL_DATA 9801
SCALARS Temperatura double 1
LOOKUP_TABLE default
4.89672e-10
4.03497e-10
-4.21443e-10
-2.68397e-09
-6.82152e-09
-1.1958e-08
-1.42069e-08
-4.9639e-09
2.90654e-08
1.01109e-07
2.1144e-07
3.24947e-07
3.43828e-07
9.05805e-08
-6.71209e-07
-2.14357e-06
-4.30244e-06
-6.61688e-06
-7.75425e-06
-5.42883e-06
3.38093e-06
2.16195e-05
5.06296e-05
8.80439e-05
0.000125565
0.000147438
0.000130611
4.74405e-05
-0.000128691
-0.000415327
-0.000811879
-0.00129177
-0.00179822
-0.00224581
-0.00252854
-0.00253408
-0.00216169
-0.00134069
-4.5766e-05
0.00169412
0.00379504
0.00612582
0.00852281
0.010809
0.0128145
0.014395
0.0154461
0.015913
0.0157934
0.0151375
0.0140485
0.0128869
0.0116397
0.0103522
0.00905856
0.00779077
0.00657651
0.00543878
0.00439559
0.00345983
0.00263943
0.00193762
0.00135334
0.000881751
0.000514837
0.000242075
5.11312e-05
-7.14035e-05
-0.000139291
-0.000165943
-0.000163791
-0.000143747
-0.000114809
-8.38414e-05
-5.55358e-05
-3.25669e-05
-1.59075e-05
-5.25762e-06
4.7768e-07
2.73397e-06
2.91785e-06
2.16345e-06
1.22573e-06
4.91887e-07
7.01589e-08
-9.23753e-08
-1.04463e-07
-6.21304e-08
-2.11473e-08
3.11412e-10
5.53763e-09
3.64269e-09
1.03607e-09
-1.61056e-10
-2.80825e-10
-1.02177e-10
1.95216e-12
1.42432e-11
3.23569e-12
-3.72196e-10
-2.72886e-09
-6.14363e-09
-9.63946e-09
-8.9435e-09
4.33603e-09
4.15624e-08
1.10478e-07
2.00265e-07
2.58617e-07
1.69211e-07
-2.49646e-07
-1.19223e-06
-2.72372e-06
-4.5376e-06
-5.6587e-06
-4.23066e-06
2.37528e-06
1.68463e-05
4.04029e-05
7.0518e-05
9.83748e-05
0.000107067
7.19208e-05
-3.5719e-05
-0.000240516
-0.000551514
-0.000948986
-0.0013733
-0.00172
-0.00184474
-0.00157946
-0.000758587
0.000749462
0.00301208
0.00601092
0.0096346
0.0136882
0.0179181
0.0220465
0.0258096
0.0289902
0.0314404
0.0330901
0.0339426
0.0340594
0.0335393
0.0324964
0.0310421
0.0292722
0.0272736
0.0251192
0.0228585
0.0205484
0.0182401
0.0159798
0.0138071
0.0117551
0.00984995
0.00811095
0.00655074
0.00517582
0.00398705
0.00298034
0.0021473
0.00147596
0.000951476
0.000556901
0.000273902
8.35377e-05
-3.29796e-05
-9.35407e-05
-0.000114449
-0.000109838
-9.12478e-05
-6.74081e-05
-4.426e-05
-2.52119e-05
-1.15929e-05
-3.23354e-06
9.19891e-07
2.25244e-06
2.06363e-06
1.32572e-06
6.11644e-07
1.50342e-07
-5.26238e-08
-8.91576e-08
-5.77029e-08
-2.05742e-08
-3.14415e-10
4.65865e-09
2.96539e-09
7.28744e-10
-1.87644e-10
-2.12479e-10
-5.64843e-11
9.09694e-12
9.27324e-12
-4.36323e-09
-8.51943e-09
-9.07322e-09
8.20467e-10
3.23564e-08
9.46116e-08
1.80263e-07
2.41934e-07
1.66941e-07
-2.27782e-07
-1.1434e-06
-2.64766e-06
-4.40589e-06
-5.3458e-06
-3.42205e-06
4.22429e-06
2.0351e-05
4.56848e-05
7.60739e-05
9.9436e-05
9.39351e-05
2.93333e-05
-0.000126641
-0.000396106
-0.00077418
-0.00121112
-0.00159914
-0.00177019
-0.00150953
-0.000585932
0.00120557
0.00399738
0.00781121
0.0125387
0.0179475
0.0237126
0.0294656
0.0348507
0.0395737
0.0434343
0.046336
0.0482758
0.0493195
0.0495712
0.0491459
0.0481511
0.0466778
0.0448016
0.0425877
0.0400974
0.0373847
0.0344854
0.0314778
0.0284255
0.0253887
0.0224209
0.0195681
0.0168682
0.0143513
0.012039
0.00994571
0.00807876
0.0064393
0.00502312
0.00382152
0.00282203
0.00200925
0.00136547
0.000871337
0.000506501
0.000250196
8.19001e-05
-1.80247e-05
-6.76846e-05
-8.30642e-05
-7.75464e-05
-6.16097e-05
-4.27551e-05
-2.56842e-05
-1.27114e-05
-4.34543e-06
5.61447e-08
1.66775e-06
1.70703e-06
1.13113e-06
5.22729e-07
1.24392e-07
-4.69254e-08
-7.33446e-08
-4.40591e-08
-1.33562e-08
1.48458e-09
3.91186e-09
1.93073e-09
2.50938e-10
-2.20564e-10
-1.27669e-10
-1.36107e-11
1.32928e-11
-9.09546e-09
-3.73662e-09
1.81621e-08
6.73434e-08
1.43378e-07
2.13428e-07
1.85389e-07
-1.05922e-07
-8.63295e-07
-2.19546e-06
-3.8584e-06
-4.9038e-06
-3.39214e-06
3.51814e-06
1.86895e-05
4.29891e-05
7.21738e-05
9.34279e-05
8.32212e-05
8.86337e-06
-0.00016388
-0.000455969
-0.000854446
-0.00129058
-0.00162425
-0.0016428
-0.00108045
0.000341052
0.00285697
0.0066022
0.0115678
0.0175854
0.0243453
0.0314458
0.0384606
0.0450062
0.050793
0.0556492
0.0595154
0.0624174
0.064429
0.0656373
0.066119
0.0659316
0.0651154
0.0637042
0.0617349
0.0592558
0.0563289
0.0530291
0.0494363
0.0456424
0.041732
0.0377834
0.0338687
0.0300518
0.0263873
0.0229197
0.0196835
0.0167033
0.0139946
0.0115645
0.00941287
0.00753375
0.00591613
0.00454522
0.00340336
0.00247087
0.00172661
0.00114861
0.000714442
0.00040173
0.000188549
5.3943e-05
-2.15381e-05
-5.52845e-05
-6.21256e-05
-5.39608e-05
-3.9598e-05
-2.48516e-05
-1.29011e-05
-4.86246e-06
-4.70773e-07
1.24499e-06
1.41025e-06
9.47581e-07
4.28321e-07
9.1331e-08
-4.5856e-08
-6.01752e-08
-3.21937e-08
-7.43102e-09
2.57545e-09
3.03779e-09
1.08346e-09
-3.15505e-11
-1.82204e-10
-5.72991e-11
1.05379e-11
5.94547e-10
3.88246e-08
9.9405e-08
1.72134e-07
1.9424e-07
3.3807e-08
-4.99452e-07
-1.56301e-06
-3.0659e-06
-4.3316e-06
-3.75454e-06
1.26876e-06
1.37014e-05
3.50831e-05
6.24715e-05
8.46907e-05
7.95018e-05
1.42896e-05
-0.000146855
-0.000427817
-0.000817763
-0.00124576
-0.0015611
-0.00152942
-0.00085248
0.00078655
0.00365934
0.00792558
0.0135824
0.0204474
0.0281818
0.0363504
0.0445001
0.0522348
0.059267
0.0654356
0.0706892
0.0750485
0.0785636
0.0812792
0.0832176
0.0843789
0.084752
0.0843304
0.0831242
0.0811666
0.0785143
0.0752437
0.0714451
0.0672178
0.0626592
0.0578713
0.0529577
0.0480126
0.0431229
0.0383653
0.0338047
0.0294939
0.025473
0.0217699
0.018401
0.0153726
0.0126823
0.0103205
0.00827225
0.00651827
0.00503672
0.00380409
0.00279606
0.0019881
0.00135589
0.000875535
0.000523749
0.000278084
0.000117188
2.11742e-05
-2.79194e-05
-4.56521e-05
-4.47679e-05
-3.49513e-05
-2.2831e-05
-1.2265e-05
-4.87446e-06
-7.2994e-07
9.40227e-07
1.15255e-06
7.7083e-07
3.32504e-07
5.70361e-08
-4.52241e-08
-4.78146e-08
-2.17764e-08
-2.92863e-09
2.90056e-09
2.08565e-09
4.55922e-10
-1.44822e-10
-1.10924e-10
-6.2601e-12
4.64845e-08
1.22228e-07
1.75275e-07
1.29141e-07
-1.74601e-07
-9.17416e-07
-2.15511e-06
-3.53365e-06
-3.92429e-06
-1.18536e-06
7.55702e-06
2.4615e-05
4.90937e-05
7.31401e-05
7.83547e-05
3.48364e-05
-9.39224e-05
-0.000337564
-0.000696431
-0.00111383
-0.00145121
-0.0014775
-0.000882899
0.000678297
0.00352112
0.00785515
0.0137236
0.020977
0.0292926
0.0382356
0.047344
0.0562112
0.0645419
0.0721689
0.079033
0.0851386
0.090507
0.0951411
0.0990119
0.102064
0.104231
0.105457
0.105709
0.104982
0.103304
0.100726
0.0973248
0.0931924
0.0884356
0.0831714
0.0775163
0.0715932
0.0655286
0.0594369
0.0534238
0.0475824
0.0419914
0.0367141
0.0317984
0.0272766
0.0231669
0.0194748
0.016195
0.0133132
0.0108084
0.00865513
0.00682472
0.00528731
0.00401286
0.00297206
0.00213687
0.00148069
0.000978467
0.000606528
0.00034254
0.000165487
5.58155e-05
-4.25819e-06
-3.03426e-05
-3.54464e-05
-2.96673e-05
-2.01041e-05
-1.10564e-05
-4.50293e-06
-7.71707e-07
7.38943e-07
9.3562e-07
6.08064e-07
2.42345e-07
2.60531e-08
-4.31905e-08
-3.6098e-08
-1.31117e-08
4.53474e-11
2.5944e-09
1.2021e-09
7.40303e-11
-1.39723e-10
-4.12585e-11
1.22141e-07
1.58129e-07
3.84913e-08
-3.90553e-07
-1.27543e-06
-2.53966e-06
-3.55905e-06
-2.82001e-06
2.14326e-06
1.40614e-05
3.40037e-05
5.80713e-05
7.34179e-05
5.55568e-05
-2.99026e-05
-0.000217654
-0.000523266
-0.000915548
-0.00128735
-0.00143591
-0.00106518
0.000181493
0.00265917
0.00664262
0.0122534
0.0194177
0.027871
0.0372116
0.0469863
0.0567799
0.0662815
0.0753082
0.0837875
0.0917104
0.0990798
0.105871
0.112017
0.117412
0.121937
0.125476
0.127934
0.12925
0.129395
0.128373
0.126218
0.12299
0.118776
0.113684
0.107843
0.101393
0.0944743
0.0872368
0.0798346
0.0724069
0.0650827
0.0579752
0.0511802
0.0447747
0.0388162
0.0333435
0.0283775
0.0239236
0.0199735
0.0165078
0.0134987
0.0109125
0.00871205
0.0068587
0.00531403
0.0040412
0.00300576
0.0021761
0.00152351
0.00102199
0.000647839
0.00037931
0.000196279
8.0129e-05
1.38654e-05
-1.75878e-05
-2.69871e-05
-2.44119e-05
-1.70933e-05
-9.52719e-06
-3.88747e-06
-6.65327e-07
6.13269e-07
7.53558e-07
4.62633e-07
1.62851e-07
1.58777e-09
-3.87881e-08
-2.52327e-08
-6.46861e-09
1.57e-09
1.89903e-09
5.19174e-10
-8.66829e-11
-8.81934e-11
1.4548e-07
-5.40701e-08
-5.73488e-07
-1.5255e-06
-2.70087e-06
-3.24432e-06
-1.37237e-06
5.48717e-06
1.96194e-05
4.05805e-05
6.14922e-05
6.52435e-05
2.31451e-05
-0.000100391
-0.000333869
-0.000674577
-0.00105808
-0.00133054
-0.00123695
-0.000437145
0.00144502
0.00474665
0.0096842
0.0162919
0.0244034
0.0336861
0.0437191
0.0540873
0.0644608
0.0746347
0.084521
0.094105
0.103388
0.112341
0.120879
0.128869
0.136143
0.142526
0.147858
0.152004
0.154861
0.156359
0.156464
0.155176
0.152528
0.14859
0.143464
0.13728
0.130191
0.122369
0.113985
0.10522
0.0962602
0.0872753
0.0784213
0.0698353
0.0616336
0.0539089
0.0467309
0.0401461
0.0341795
0.028837
0.0241077
0.019967
0.0163798
0.0133038
0.0106917
0.00849456
0.00666363
0.00515211
0.00391655
0.00291758
0.00212025
0.00149395
0.00101195
0.000650828
0.000389721
0.000209775
9.37306e-05
2.58268e-05
-8.0384e-06
-1.99559e-05
-1.96252e-05
-1.41131e-05
-7.88515e-06
-3.15383e-06
-4.78306e-07
5.33656e-07
5.98394e-07
3.35967e-07
9.71986e-08
-1.47209e-08
-3.2035e-08
-1.57238e-08
-1.97489e-09
1.92246e-09
1.10277e-09
1.06012e-10
-1.23335e-10
-4.48693e-08
-7.03873e-07
-1.65668e-06
-2.68164e-06
-2.75392e-06
5.69178e-08
8.26397e-06
2.3572e-05
4.40786e-05
6.041e-05
5.23585e-05
-1.10008e-05
-0.000163944
-0.00042659
-0.000777606
-0.00112283
-0.00127095
-0.000930109
0.000263822
0.00268619
0.00664211
0.0122889
0.0195903
0.0283213
0.038126
0.0486083
0.0594234
0.0703386
0.0812456
0.092127
0.102998
0.113851
0.124615
0.135154
0.145277
0.154766
0.163401
0.170972
0.177296
0.182214
0.185604
0.187376
0.187481
0.185916
0.182718
0.177971
0.171796
0.164352
0.155823
0.146417
0.13634
0.125813
0.115057
0.104277
0.0936587
0.0833681
0.0735435
0.0642961
0.0557091
0.0478379
0.0407126
0.0343397
0.028706
0.0237818
0.0195246
0.0158826
0.0127982
0.0102113
0.0080616
0.00629085
0.00484478
0.00367406
0.00273509
0.00199013
0.00140705
0.000958746
0.000622263
0.000377881
0.000208238
9.76882e-05
3.1982e-05
-1.7145e-06
-1.45356e-05
-1.55291e-05
-1.13621e-05
-6.28147e-06
-2.40233e-06
-2.67434e-07
4.74759e-07
4.63278e-07
2.28861e-07
4.70583e-08
-2.27167e-08
-2.37615e-08
-8.15722e-09
4.85266e-10
1.53038e-09
4.52039e-10
-1.04856e-10
-5.91888e-07
-1.69481e-06
-2.54694e-06
-2.24415e-06
1.19964e-06
1.01456e-05
2.57411e-05
4.49227e-05
5.65656e-05
3.86364e-05
-4.0404e-05
-0.000212144
-0.000488275
-0.000831585
-0.00112506
-0.00115147
-0.000597441
0.0009091
0.00373055
0.00813701
0.0142366
0.0219454
0.0310126
0.0410929
0.0518421
0.0629984
0.0744234
0.08609
0.0980325
0.110282
0.122815
0.135528
0.148244
0.16073
0.172729
0.183973
0.194207
0.203186
0.210691
0.21653
0.22055
0.222639
0.22274
0.220845
0.217004
0.211317
0.203932
0.195039
0.184861
0.173644
0.161639
0.149106
0.13631
0.123493
0.110875
0.0986527
0.0869894
0.0760166
0.0658321
0.0565014
0.0480593
0.0405137
0.0338484
0.0280283
0.0230028
0.0187105
0.0150831
0.0120485
0.00953448
0.0074708
0.00579138
0.00443575
0.00335007
0.00248755
0.00180849
0.0012799
0.000874674
0.000570634
0.000349356
0.000195102
9.39602e-05
3.33301e-05
1.80322e-06
-1.06246e-05
-1.21721e-05
-8.93935e-06
-4.81296e-06
-1.70452e-06
-7.44951e-08
4.18668e-07
3.44155e-07
1.42e-07
1.26801e-08
-2.35573e-08
-1.52877e-08
-2.93792e-09
1.31189e-09
8.64721e-10
1.45758e-11
-1.42986e-06
-2.37772e-06
-1.82151e-06
1.91508e-06
1.10391e-05
2.6272e-05
4.38205e-05
5.16354e-05
2.70164e-05
-6.10643e-05
-0.000241179
-0.000518163
-0.000843558
-0.00108587
-0.00101372
-0.000305411
0.00140778
0.00446996
0.0091202
0.0154317
0.0232961
0.0324622
0.0426177
0.0534827
0.0648794
0.0767538
0.0891466
0.102132
0.115754
0.129978
0.14468
0.159658
0.174651
0.18937
0.203508
0.216759
0.228818
0.239397
0.24823
0.255088
0.259786
0.262197
0.262252
0.259951
0.255353
0.248582
0.239816
0.229281
0.217241
0.203987
0.189819
0.175042
0.159966
0.144875
0.130028
0.115654
0.101945
0.0890523
0.0770911
0.0661368
0.0562294
0.0473771
0.0395609
0.0327389
0.0268518
0.0218278
0.0175867
0.0140443
0.0111158
0.00871861
0.0067745
0.00521151
0.00396493
0.00297801
0.00220218
0.00159687
0.00112897
0.000771925
0.000504605
0.000310038
0.000174175
8.48621e-05
3.11726e-05
3.16807e-06
-7.95397e-06
-9.49048e-06
-6.87272e-06
-3.53258e-06
-1.10536e-06
7.44977e-08
3.55885e-07
2.40083e-07
7.58421e-08
-7.1245e-09
-1.93998e-08
-7.99114e-09
-7.49326e-11
1.12114e-09
2.59058e-10
-2.10932e-06
-1.55661e-06
2.18056e-06
1.10177e-05
2.54625e-05
4.1454e-05
4.68039e-05
1.91024e-05
-7.14901e-05
-0.000250924
-0.000519647
-0.000823331
-0.0010245
-0.000888254
-9.50974e-05
0.00171309
0.00486128
0.00956488
0.0158771
0.0236837
0.0327512
0.042812
0.0536531
0.0651744
0.0773954
0.0904141
0.10434
0.119231
0.135055
0.151681
0.168898
0.186431
0.20397
0.221176
0.237696
0.253169
0.267236
0.279556
0.289815
0.297748
0.303144
0.305858
0.305817
0.303023
0.297554
0.289557
0.279243
0.266878
0.252771
0.237265
0.220707
0.203457
0.185873
0.168283
0.15099
0.134257
0.118306
0.103313
0.0894083
0.0766792
0.0651705
0.0548906
0.0458162
0.0378982
0.0310671
0.0252394
0.020322
0.0162175
0.0128277
0.0100571
0.00781526
0.00601846
0.00459109
0.00346629
0.00258626
0.00190216
0.00137371
0.000968551
0.000661211
0.000431932
0.000265324
0.000149043
7.26495e-05
2.68354e-05
3.09164e-06
-6.19179e-06
-7.36613e-06
-5.14785e-06
-2.46229e-06
-6.27837e-07
1.67932e-07
2.84635e-07
1.52477e-07
3.0074e-08
-1.49398e-08
-1.2901e-08
-2.85624e-09
8.89706e-10
5.91034e-10
-1.79651e-06
2.05354e-06
1.02512e-05
2.36418e-05
3.8326e-05
4.2648e-05
1.52386e-05
-7.2179e-05
-0.000243666
-0.000497964
-0.000780119
-0.000954371
-0.000791268
1.84116e-05
0.0018178
0.00491426
0.00950748
0.0156434
0.0232161
0.0320203
0.0418368
0.0525157
0.064025
0.076447
0.0899293
0.104616
0.120585
0.13782
0.156199
0.175515
0.195497
0.215823
0.236136
0.256047
0.275143
0.293004
0.309212
0.323371
0.335126
0.344172
0.350273
0.353268
0.35308
0.349715
0.343268
0.333912
0.321895
0.307525
0.291163
0.273201
0.254046
0.234111
0.213806
0.193511
0.173571
0.154289
0.135918
0.118658
0.10266
0.0880203
0.0747891
0.0629746
0.0525486
0.0434535
0.0356086
0.0289171
0.0232717
0.0185606
0.0146711
0.0114939
0.0089255
0.00687032
0.00524179
0.00396308
0.00296731
0.00219742
0.00160577
0.00115354
0.000809925
0.000551067
0.00035887
0.000219634
0.000122698
5.9248e-05
2.14813e-05
2.21953e-06
-5.0206e-06
-5.67172e-06
-3.73217e-06
-1.60441e-06
-2.77879e-07
2.06157e-07
2.09037e-07
8.36661e-08
2.9924e-09
-1.44488e-08
-6.56438e-09
-1.46837e-10
8.81521e-10
4.51642e-07
9.0017e-06
2.11104e-05
3.47367e-05
3.92295e-05
1.48345e-05
-6.49329e-05
-0.000222978
-0.000458724
-0.000721089
-0.000882435
-0.000725984
4.11466e-05
0.00174438
0.00467563
0.00902587
0.0148437
0.0220405
0.0304442
0.0398824
0.0502607
0.0616041
0.0740473
0.0877819
0.102987
0.11977
0.138139
0.157997
0.179158
0.201367
0.22431
0.247621
0.270891
0.293672
0.315489
0.335858
0.354305
0.370381
0.383685
0.393875
0.400688
0.403946
0.403564
0.399557
0.392035
0.381202
0.367342
0.350812
0.332023
0.311427
0.289488
0.266681
0.243469
0.220286
0.197523
0.175526
0.154579
0.134911
0.116689
0.100021
0.0849643
0.0715245
0.0596686
0.0493292
0.0404135
0.0328102
0.0263967
0.021045
0.0166271
0.0130187
0.0101025
0.00777017
0.00592399
0.0044771
0.00335378
0.00248908
0.00182832
0.00132638
0.00094686
0.000661211
0.000447649
0.00028997
0.000176223
9.73761e-05
4.61209e-05
1.60105e-05
1.06166e-06
-4.18345e-06
-4.29852e-06
-2.59027e-06
-9.4936e-07
-4.84796e-08
1.98529e-07
1.36581e-07
3.5228e-08
-8.82648e-09
-9.77877e-09
-2.08226e-09
9.14996e-10
5.18741e-06
1.82768e-05
3.08305e-05
3.62853e-05
1.67623e-05
-5.22209e-05
-0.000192918
-0.000407206
-0.000651277
-0.000810524
-0.000686381
-6.91376e-06
0.00153363
0.00421349
0.00822019
0.0136117
0.0203221
0.0282132
0.0371548
0.0470979
0.0581131
0.0703774
0.0841211
0.0995593
0.116835
0.135992
0.156969
0.179617
0.203711
0.22896
0.25501
0.281447
0.307805
0.333573
0.358213
0.38118
0.40194
0.419993
0.434889
0.446247
0.453775
0.457274
0.456657
0.451943
0.443262
0.430846
0.415024
0.396199
0.37484
0.351458
0.326582
0.300747
0.274476
0.248257
0.222531
0.197685
0.17404
0.15185
0.131301
0.112515
0.0955511
0.0804161
0.0670699
0.0554351
0.0454058
0.0368553
0.0296446
0.0236288
0.0186633
0.0146079
0.0113304
0.0087093
0.00663496
0.00501022
0.00375046
0.00278309
0.00204679
0.00149057
0.00107286
0.000760457
0.000527596
0.000354881
0.000228144
0.000137198
7.45503e-05
3.42479e-05
1.10349e-05
-3.14955e-08
-3.50211e-06
-3.16867e-06
-1.69121e-06
-4.79964e-07
7.69992e-08
1.60139e-07
7.52829e-08
6.58115e-09
-1.02599e-08
-4.56277e-09
4.50314e-10
1.20537e-05
2.69576e-05
3.3413e-05
1.9725e-05
-3.66719e-05
-0.000157529
-0.000348171
-0.000574237
-0.000737509
-0.000661619
-9.91127e-05
0.00123433
0.0036041
0.0071975
0.0120859
0.0182284
0.0255192
0.0338636
0.0432478
0.0537756
0.0656567
0.0791541
0.0945186
0.111933
0.131483
0.153155
0.176848
0.202382
0.229503
0.257888
0.28714
0.316792
0.346318
0.375147
0.402677
0.428301
0.451426
0.471494
0.488006
0.500541
0.508775
0.512491
0.511595
0.506114
0.496199
0.482116
0.464233
0.44301
0.418971
0.39269
0.364762
0.335788
0.30635
0.276991
0.248205
0.22042
0.193993
0.169206
0.146264
0.1253
0.106379
0.089504
0.0746301
0.0616687
0.0504998
0.0409811
0.0329565
0.0262636
0.0207404
0.0162301
0.0125853
0.0096705
0.00736359
0.00555671
0.00415607
0.00308139
0.00226493
0.00165028
0.00119115
0.00085022
0.000597984
0.000411785
0.000274785
0.000174908
0.000103676
5.5019e-05
2.41743e-05
6.90114e-06
-8.60159e-07
-2.87525e-06
-2.23562e-06
-1.00945e-06
-1.73134e-07
1.21961e-07
1.08246e-07
3.09862e-08
-5.63867e-09
-6.67233e-09
-6.62257e-10
1.95122e-05
3.06469e-05
2.25091e-05
-2.07005e-05
-0.000120515
-0.000285889
-0.000492852
-0.000661417
-0.000639984
-0.000208225
0.000894915
0.00292172
0.00606051
0.0103978
0.015918
0.0225452
0.0302128
0.0389321
0.0488286
0.0601337
0.0731367
0.088121
0.10531
0.124838
0.146745
0.170985
0.197435
0.225894
0.256086
0.287651
0.320145
0.353048
0.385777
0.417697
0.448145
0.476448
0.501953
0.524042
0.542167
0.555864
0.564778
0.568675
0.567455
0.561155
0.549947
0.534132
0.514123
0.490432
0.463645
0.434399
0.403357
0.371185
0.338523
0.305975
0.274084
0.243321
0.214078
0.186666
0.161306
0.138144
0.117249
0.0986216
0.0822099
0.0679142
0.0556003
0.0451096
0.0362686
0.0288973
0.0228159
0.0178512
0.0138399
0.0106324
0.00809386
0.00610542
0.00456388
0.00338111
0.00248293
0.00180768
0.00130477
0.000933226
0.000660353
0.000460598
0.00031453
0.000207902
0.000130679
7.5996e-05
3.905e-05
1.60985e-05
3.74181e-06
-1.34794e-06
-2.26444e-06
-1.47713e-06
-5.22051e-07
-3.67693e-10
1.13484e-07
5.85703e-08
5.41705e-09
-7.05669e-09
-2.34099e-09
2.50031e-05
2.46485e-05
-6.30308e-06
-8.50286e-05
-0.000224175
-0.000409938
-0.000581007
-0.00061177
-0.000310854
0.000557638
0.00223156
0.00489975
0.00866386
0.0135327
0.0194569
0.026392
0.0343644
0.0435102
0.0540721
0.0663573
0.0806769
0.0972933
0.11639
0.138062
0.162326
0.189123
0.218317
0.249693
0.282946
0.317678
0.353399
0.389537
0.42545
0.460441
0.493783
0.52474
0.552593
0.576669
0.596368
0.611184
0.620733
0.624764
0.623175
0.616012
0.603472
0.585888
0.563723
0.537541
0.507988
0.475764
0.441603
0.406233
0.370356
0.33463
0.299649
0.265926
0.23389
0.203874
0.176121
0.150786
0.127939
0.107582
0.089654
0.0740435
0.0606023
0.0491555
0.0395121
0.0314745
0.0248457
0.0194357
0.0150659
0.0115724
0.00880801
0.00664277
0.00496407
0.00367587
0.0026975
0.00196208
0.00141488
0.00101162
0.000716897
0.000502762
0.000347606
0.000235174
0.000153711
9.51036e-05
5.39441e-05
2.65333e-05
9.97115e-06
1.5347e-06
-1.5074e-06
-1.6748e-06
-8.84902e-07
-2.04457e-07
7.14629e-08
7.85898e-08
2.19484e-08
-4.34532e-09
-4.17328e-09
2.55374e-05
5.49566e-06
-5.35671e-05
-0.000166337
-0.000328511
-0.000496595
-0.000570917
-0.000390012
0.000255054
0.00158556
0.003789
0.00698058
0.011192
0.0163973
0.0225688
0.0297401
0.0380478
0.0477353
0.0591179
0.0725274
0.0882603
0.106546
0.127536
0.151309
0.177874
0.207167
0.239046
0.273276
0.309522
0.34735
0.386224
0.425519
0.464537
0.502518
0.538673
0.572198
0.602316
0.628296
0.649489
0.665351
0.675471
0.679583
0.677581
0.669526
0.655636
0.636282
0.611972
0.583324
0.551043
0.515892
0.47867
0.440171
0.401152