# vtk DataFile Version 3.0
Malha 2D com triângulos e temperatura
ASCII
DATASET UNSTRUCTURED_GRID

POINTS 10000 double
0 0 0
1 0 0
1 2 0
0 2 0
0.010101 0 0
0.020202 0 0
0.030303 0 0
0.040404 0 0
0.0505051 0 0
0.0606061 0 0
0.0707071 0 0
0.0808081 0 0
0.0909091 0 0
0.10101 0 0
0.111111 0 0
0.121212 0 0
0.131313 0 0
0.141414 0 0
0.151515 0 0
0.161616 0 0
0.171717 0 0
0.181818 0 0
0.191919 0 0
0.20202 0 0
0.212121 0 0
0.222222 0 0
0.232323 0 0
0.242424 0 0
0.252525 0 0
0.262626 0 0
0.272727 0 0
0.282828 0 0
0.292929 0 0
0.30303 0 0
0.313131 0 0
0.323232 0 0
0.333333 0 0
0.343434 0 0
0.353535 0 0
0.363636 0 0
0.373737 0 0
0.383838 0 0
0.393939 0 0
0.40404 0 0
0.414141 0 0
0.424242 0 0
0.434343 0 0
0.444444 0 0
0.454545 0 0
0.464646 0 0
0.474747 0 0
0.484848 0 0
0.494949 0 0
0.505051 0 0
0.515152 0 0
0.525253 0 0
0.535354 0 0
0.545455 0 0
0.555556 0 0
0.565657 0 0
0.575758 0 0
0.585859 0 0
0.59596 0 0
0.606061 0 0
0.616162 0 0
0.626263 0 0
0.636364 0 0
0.646465 0 0
0.656566 0 0
0.666667 0 0
0.676768 0 0
0.686869 0 0
0.69697 0 0
0.707071 0 0
0.717172 0 0
0.727273 0 0
0.737374 0 0
0.747475 0 0
0.757576 0 0
0.767677 0 0
0.777778 0 0
0.787879 0 0
0.79798 0 0
0.808081 0 0
0.818182 0 0
0.828283 0 0
0.838384 0 0
0.848485 0 0
0.858586 0 0
0.868687 0 0
0.878788 0 0
0.888889 0 0
0.89899 0 0
0.909091 0 0
0.919192 0 0
0.929293 0 0
0.939394 0 0
0.949495 0 0
0.959596 0 0
0.969697 0 0
0.979798 0 0
0.989899 0 0
1 0.020202 0
1 0.040404 0
1 0.0606061 0
1 0.0808081 0
1 0.10101 0
1 0.121212 0
1 0.141414 0
1 0.161616 0
1 0.181818 0
1 0.20202 0
1 0.222222 0
1 0.242424 0
1 0.262626 0
1 0.282828 0
1 0.30303 0
1 0.323232 0
1 0.343434 0
1 0.363636 0
1 0.383838 0
1 0.40404 0
1 0.424242 0
1 0.444444 0
1 0.464646 0
1 0.484848 0
1 0.505051 0
1 0.525253 0
1 0.545455 0
1 0.565657 0
1 0.585859 0
1 0.606061 0
1 0.626263 0
1 0.646465 0
1 0.666667 0
1 0.686869 0
1 0.707071 0
1 0.727273 0
1 0.747475 0
1 0.767677 0
1 0.787879 0
1 0.808081 0
1 0.828283 0
1 0.848485 0
1 0.868687 0
1 0.888889 0
1 0.909091 0
1 0.929293 0
1 0.949495 0
1 0.969697 0
1 0.989899 0
1 1.0101 0
1 1.0303 0
1 1.05051 0
1 1.07071 0
1 1.09091 0
1 1.11111 0
1 1.13131 0
1 1.15152 0
1 1.17172 0
1 1.19192 0
1 1.21212 0
1 1.23232 0
1 1.25253 0
1 1.27273 0
1 1.29293 0
1 1.31313 0
1 1.33333 0
1 1.35354 0
1 1.37374 0
1 1.39394 0
1 1.41414 0
1 1.43434 0
1 1.45455 0
1 1.47475 0
1 1.49495 0
1 1.51515 0
1 1.53535 0
1 1.55556 0
1 1.57576 0
1 1.59596 0
1 1.61616 0
1 1.63636 0
1 1.65657 0
1 1.67677 0
1 1.69697 0
1 1.71717 0
1 1.73737 0
1 1.75758 0
1 1.77778 0
1 1.79798 0
1 1.81818 0
1 1.83838 0
1 1.85859 0
1 1.87879 0
1 1.89899 0
1 1.91919 0
1 1.93939 0
1 1.9596 0
1 1.9798 0
0.989899 2 0
0.979798 2 0
0.969697 2 0
0.959596 2 0
0.949495 2 0
0.939394 2 0
0.929293 2 0
0.919192 2 0
0.909091 2 0
0.89899 2 0
0.888889 2 0
0.878788 2 0
0.868687 2 0
0.858586 2 0
0.848485 2 0
0.838384 2 0
0.828283 2 0
0.818182 2 0
0.808081 2 0
0.79798 2 0
0.787879 2 0
0.777778 2 0
0.767677 2 0
0.757576 2 0
0.747475 2 0
0.737374 2 0
0.727273 2 0
0.717172 2 0
0.707071 2 0
0.69697 2 0
0.686869 2 0
0.676768 2 0
0.666667 2 0
0.656566 2 0
0.646465 2 0
0.636364 2 0
0.626263 2 0
0.616162 2 0
0.606061 2 0
0.59596 2 0
0.585859 2 0
0.575758 2 0
0.565657 2 0
0.555556 2 0
0.545455 2 0
0.535354 2 0
0.525253 2 0
0.515152 2 0
0.505051 2 0
0.494949 2 0
0.484848 2 0
0.474747 2 0
0.464646 2 0
0.454545 2 0
0.444444 2 0
0.434343 2 0
0.424242 2 0
0.414141 2 0
0.40404 2 0
0.393939 2 0
0.383838 2 0
0.373737 2 0
0.363636 2 0
0.353535 2 0
0.343434 2 0
0.333333 2 0
0.323232 2 0
0.313131 2 0
0.30303 2 0
0.292929 2 0
0.282828 2 0
0.272727 2 0
0.262626 2 0
0.252525 2 0
0.242424 2 0
0.232323 2 0
0.222222 2 0
0.212121 2 0
0.20202 2 0
0.191919 2 0
0.181818 2 0
0.171717 2 0
0.161616 2 0
0.151515 2 0
0.141414 2 0
0.131313 2 0
0.121212 2 0
0.111111 2 0
0.10101 2 0
0.0909091 2 0
0.0808081 2 0
0.0707071 2 0
0.0606061 2 0
0.0505051 2 0
0.040404 2 0
0.030303 2 0
0.020202 2 0
0.010101 2 0
0 1.9798 0
0 1.9596 0
0 1.93939 0
0 1.91919 0
0 1.89899 0
0 1.87879 0
0 1.85859 0
0 1.83838 0
0 1.81818 0
0 1.79798 0
0 1.77778 0
0 1.75758 0
0 1.73737 0
0 1.71717 0
0 1.69697 0
0 1.67677 0
0 1.65657 0
0 1.63636 0
0 1.61616 0
0 1.59596 0
0 1.57576 0
0 1.55556 0
0 1.53535 0
0 1.51515 0
0 1.49495 0
0 1.47475 0
0 1.45455 0
0 1.43434 0
0 1.41414 0
0 1.39394 0
0 1.37374 0
0 1.35354 0
0 1.33333 0
0 1.31313 0
0 1.29293 0
0 1.27273 0
0 1.25253 0
0 1.23232 0
0 1.21212 0
0 1.19192 0
0 1.17172 0
0 1.15152 0
0 1.13131 0
0 1.11111 0
0 1.09091 0
0 1.07071 0
0 1.05051 0
0 1.0303 0
0 1.0101 0
0 0.989899 0
0 0.969697 0
0 0.949495 0
0 0.929293 0
0 0.909091 0
0 0.888889 0
0 0.868687 0
0 0.848485 0
0 0.828283 0
0 0.808081 0
0 0.787879 0
0 0.767677 0
0 0.747475 0
0 0.727273 0
0 0.707071 0
0 0.686869 0
0 0.666667 0
0 0.646465 0
0 0.626263 0
0 0.606061 0
0 0.585859 0
0 0.565657 0
0 0.545455 0
0 0.525253 0
0 0.505051 0
0 0.484848 0
0 0.464646 0
0 0.444444 0
0 0.424242 0
0 0.40404 0
0 0.383838 0
0 0.363636 0
0 0.343434 0
0 0.323232 0
0 0.30303 0
0 0.282828 0
0 0.262626 0
0 0.242424 0
0 0.222222 0
0 0.20202 0
0 0.181818 0
0 0.161616 0
0 0.141414 0
0 0.121212 0
0 0.10101 0
0 0.0808081 0
0 0.0606061 0
0 0.040404 0
0 0.020202 0
0.010101 0.020202 0
0.010101 0.040404 0
0.010101 0.0606061 0
0.010101 0.0808081 0
0.010101 0.10101 0
0.010101 0.121212 0
0.010101 0.141414 0
0.010101 0.161616 0
0.010101 0.181818 0
0.010101 0.20202 0
0.010101 0.222222 0
0.010101 0.242424 0
0.010101 0.262626 0
0.010101 0.282828 0
0.010101 0.30303 0
0.010101 0.323232 0
0.010101 0.343434 0
0.010101 0.363636 0
0.010101 0.383838 0
0.010101 0.40404 0
0.010101 0.424242 0
0.010101 0.444444 0
0.010101 0.464646 0
0.010101 0.484848 0
0.010101 0.505051 0
0.010101 0.525253 0
0.010101 0.545455 0
0.010101 0.565657 0
0.010101 0.585859 0
0.010101 0.606061 0
0.010101 0.626263 0
0.010101 0.646465 0
0.010101 0.666667 0
0.010101 0.686869 0
0.010101 0.707071 0
0.010101 0.727273 0
0.010101 0.747475 0
0.010101 0.767677 0
0.010101 0.787879 0
0.010101 0.808081 0
0.010101 0.828283 0
0.010101 0.848485 0
0.010101 0.868687 0
0.010101 0.888889 0
0.010101 0.909091 0
0.010101 0.929293 0
0.010101 0.949495 0
0.010101 0.969697 0
0.010101 0.989899 0
0.010101 1.0101 0
0.010101 1.0303 0
0.010101 1.05051 0
0.010101 1.07071 0
0.010101 1.09091 0
0.010101 1.11111 0
0.010101 1.13131 0
0.010101 1.15152 0
0.010101 1.17172 0
0.010101 1.19192 0
0.010101 1.21212 0
0.010101 1.23232 0
0.010101 1.25253 0
0.010101 1.27273 0
0.010101 1.29293 0
0.010101 1.31313 0
0.010101 1.33333 0
0.010101 1.35354 0
0.010101 1.37374 0
0.010101 1.39394 0
0.010101 1.41414 0
0.010101 1.43434 0
0.010101 1.45455 0
0.010101 1.47475 0
0.010101 1.49495 0
0.010101 1.51515 0
0.010101 1.53535 0
0.010101 1.55556 0
0.010101 1.57576 0
0.010101 1.59596 0
0.010101 1.61616 0
0.010101 1.63636 0
0.010101 1.65657 0
0.010101 1.67677 0
0.010101 1.69697 0
0.010101 1.71717 0
0.010101 1.73737 0
0.010101 1.75758 0
0.010101 1.77778 0
0.010101 1.79798 0
0.010101 1.81818 0
0.010101 1.83838 0
0.010101 1.85859 0
0.010101 1.87879 0
0.010101 1.89899 0
0.010101 1.91919 0
0.010101 1.93939 0
0.010101 1.9596 0
0.010101 1.9798 0
0.020202 0.020202 0
0.020202 0.040404 0
0.020202 0.0606061 0
0.020202 0.0808081 0
0.020202 0.10101 0
0.020202 0.121212 0
0.020202 0.141414 0
0.020202 0.161616 0
0.020202 0.181818 0
0.020202 0.20202 0
0.020202 0.222222 0
0.020202 0.242424 0
0.020202 0.262626 0
0.020202 0.282828 0
0.020202 0.30303 0
0.020202 0.323232 0
0.020202 0.343434 0
0.020202 0.363636 0
0.020202 0.383838 0
0.020202 0.40404 0
0.020202 0.424242 0
0.020202 0.444444 0
0.020202 0.464646 0
0.020202 0.484848 0
0.020202 0.505051 0
0.020202 0.525253 0
0.020202 0.545455 0
0.020202 0.565657 0
0.020202 0.585859 0
0.020202 0.606061 0
0.020202 0.626263 0
0.020202 0.646465 0
0.020202 0.666667 0
0.020202 0.686869 0
0.020202 0.707071 0
0.020202 0.727273 0
0.020202 0.747475 0
0.020202 0.767677 0
0.020202 0.787879 0
0.020202 0.808081 0
0.020202 0.828283 0
0.020202 0.848485 0
0.020202 0.868687 0
0.020202 0.888889 0
0.020202 0.909091 0
0.020202 0.929293 0
0.020202 0.949495 0
0.020202 0.969697 0
0.020202 0.989899 0
0.020202 1.0101 0
0.020202 1.0303 0
0.020202 1.05051 0
0.020202 1.07071 0
0.020202 1.09091 0
0.020202 1.11111 0
0.020202 1.13131 0
0.020202 1.15152 0
0.020202 1.17172 0
0.020202 1.19192 0
0.020202 1.21212 0
0.020202 1.23232 0
0.020202 1.25253 0
0.020202 1.27273 0
0.020202 1.29293 0
0.020202 1.31313 0
0.020202 1.33333 0
0.020202 1.35354 0
0.020202 1.37374 0
0.020202 1.39394 0
0.020202 1.41414 0
0.020202 1.43434 0
0.020202 1.45455 0
0.020202 1.47475 0
0.020202 1.49495 0
0.020202 1.51515 0
0.020202 1.53535 0
0.020202 1.55556 0
0.020202 1.57576 0
0.020202 1.59596 0
0.020202 1.61616 0
0.020202 1.63636 0
0.020202 1.65657 0
0.020202 1.67677 0
0.020202 1.69697 0
0.020202 1.71717 0
0.020202 1.73737 0
0.020202 1.75758 0
0.020202 1.77778 0
0.020202 1.79798 0
0.020202 1.81818 0
0.020202 1.83838 0
0.020202 1.85859 0
0.020202 1.87879 0
0.020202 1.89899 0
0.020202 1.91919 0
0.020202 1.93939 0
0.020202 1.9596 0
0.020202 1.9798 0
0.030303 0.020202 0
0.030303 0.040404 0
0.030303 0.0606061 0
0.030303 0.0808081 0
0.030303 0.10101 0
0.030303 0.121212 0
0.030303 0.141414 0
0.030303 0.161616 0
0.030303 0.181818 0
0.030303 0.20202 0
0.030303 0.222222 0
0.030303 0.242424 0
0.030303 0.262626 0
0.030303 0.282828 0
0.030303 0.30303 0
0.030303 0.323232 0
0.030303 0.343434 0
0.030303 0.363636 0
0.030303 0.383838 0
0.030303 0.40404 0
0.030303 0.424242 0
0.030303 0.444444 0
0.030303 0.464646 0
0.030303 0.484848 0
0.030303 0.505051 0
0.030303 0.525253 0
0.030303 0.545455 0
0.030303 0.565657 0
0.030303 0.585859 0
0.030303 0.606061 0
0.030303 0.626263 0
0.030303 0.646465 0
0.030303 0.666667 0
0.030303 0.686869 0
0.030303 0.707071 0
0.030303 0.727273 0
0.030303 0.747475 0
0.030303 0.767677 0
0.030303 0.787879 0
0.030303 0.808081 0
0.030303 0.828283 0
0.030303 0.848485 0
0.030303 0.868687 0
0.030303 0.888889 0
0.030303 0.909091 0
0.030303 0.929293 0
0.030303 0.949495 0
0.030303 0.969697 0
0.030303 0.989899 0
0.030303 1.0101 0
0.030303 1.0303 0
0.030303 1.05051 0
0.030303 1.07071 0
[...]
CELL_DATA 9801
SCALARS Temperatura double 1
LOOKUP_TABLE default
0.0968727
0.0965431
0.0959744
0.0952054
0.0942608
0.0931593
0.0919167
0.0905468
0.0890618
0.0874728
0.0857898
0.0840217
0.082177
0.080263
0.0782865
0.0762537
0.0741699
0.0720403
0.0698693
0.067661
0.0654193
0.0631475
0.0608488
0.0585269
0.0561932
0.0540114
0.0519598
0.0499756
0.0480234
0.0460821
0.0441387
0.0421847
0.0402144
0.0382237
0.0362099
0.0341709
0.0321049
0.0300108
0.0278872
0.025733
0.0235467
0.0213267
0.0190705
0.0167748
0.0144357
0.0120515
0.00963871
0.00728575
0.00529028
0.00436158
0.00529028
0.00728575
0.00963871
0.0120515
0.0144357
0.0167748
0.0190705
0.0213267
0.0235467
0.025733
0.0278872
0.0300108
0.0321049
0.0341709
0.0362099
0.0382237
0.0402144
0.0421847
0.0441387
0.0460821
0.0480234
0.0499756
0.0519598
0.0540114
0.0561932
0.0585269
0.0608488
0.0631475
0.0654193
0.067661
0.0698693
0.0720403
0.0741699
0.0762537
0.0782865
0.080263
0.082177
0.0840217
0.0857898
0.0874728
0.0890618
0.0905468
0.0919167
0.0931593
0.0942608
0.0952054
0.0959744
0.0965431
0.0968727
0.264
0.26313
0.261644
0.259655
0.257232
0.254428
0.251286
0.247844
0.244133
0.240181
0.236012
0.231647
0.227105
0.2224
0.217545
0.212552
0.20743
0.202186
0.196825
0.191352
0.185772
0.180086
0.174296
0.168406
0.162429
0.156535
0.15074
0.144999
0.139281
0.133559
0.127817
0.122042
0.116224
0.110356
0.104433
0.0984513
0.092407
0.0862971
0.0801184
0.0738672
0.0675392
0.0611287
0.054628
0.0480265
0.0413115
0.034477
0.027568
0.0208361
0.0151302
0.0124757
0.0151302
0.0208361
0.027568
0.034477
0.0413115
0.0480265
0.054628
0.0611287
0.0675392
0.0738672
0.0801184
0.0862971
0.092407
0.0984513
0.104433
0.110356
0.116224
0.122042
0.127817
0.133559
0.139281
0.144999
0.15074
0.156535
0.162429
0.168406
0.174296
0.180086
0.185772
0.191352
0.196825
0.202186
0.20743
0.212552
0.217545
0.2224
0.227105
0.231647
0.236012
0.240181
0.244133
0.247844
0.251286
0.254428
0.257232
0.259655
0.261644
0.26313
0.264
0.390886
0.389576
0.387366
0.38444
0.380915
0.376881
0.372408
0.367558
0.36238
0.356918
0.351207
0.345276
0.33915
0.332846
0.326379
0.319758
0.312988
0.306072
0.29901
0.291797
0.284429
0.276898
0.269196
0.261314
0.253249
0.245072
0.236806
0.228444
0.219978
0.211401
0.202706
0.193888
0.184943
0.175868
0.16666
0.157316
0.147836
0.138216
0.128454
0.118547
0.108489
0.0982726
0.0878884
0.0773208
0.0665515
0.0555726
0.044459
0.0336193
0.0244265
0.0201492
0.0244265
0.0336193
0.044459
0.0555726
0.0665515
0.0773208
0.0878884
0.0982726
0.108489
0.118547
0.128454
0.138216
0.147836
0.157316
0.16666
0.175868
0.184943
0.193888
0.202706
0.211401
0.219978
0.228444
0.236806
0.245072
0.253249
0.261314
0.269196
0.276898
0.284429
0.291797
0.29901
0.306072
0.312988
0.319758
0.326379
0.332846
0.33915
0.345276
0.351207
0.356918
0.36238
0.367558
0.372408
0.376881
0.380915
0.38444
0.387366
0.389576
0.390886
0.477009
0.475304
0.472459
0.46874
0.464317
0.459321
0.453857
0.448013
0.441862
0.435463
0.428865
0.422107
0.415218
0.408218
0.401121
0.393932
0.386652
0.379274
0.371787
0.364177
0.356424
0.348505
0.340394
0.332063
0.323482
0.314594
0.305399
0.295904
0.286115
0.276035
0.265666
0.25501
0.244066
0.232836
0.221321
0.209519
0.197434
0.185064
0.17241
0.159471
0.146246
0.132729
0.118911
0.104778
0.0903105
0.0755047
0.0604699
0.045771
0.0332876
0.0274766
0.0332876
0.045771
0.0604699
0.0755047
0.0903105
0.104778
0.118911
0.132729
0.146246
0.159471
0.17241
0.185064
0.197434
0.209519
0.221321
0.232836
0.244066
0.25501
0.265666
0.276035
0.286115
0.295904
0.305399
0.314594
0.323482
0.332063
0.340394
0.348505
0.356424
0.364177
0.371787
0.379274
0.386652
0.393932
0.401121
0.408218
0.415218
0.422107
0.428865
0.435463
0.441862
0.448013
0.453857
0.459321
0.464317
0.46874
0.472459
0.475304
0.477009
0.529982
0.527868
0.524373
0.519852
0.514543
0.508626
0.502247
0.495528
0.488568
0.481449
0.474236
0.46698
0.459717
0.452473
0.445262
0.438087
0.430945
0.423822
0.416699
0.409548
0.402338
0.39503
0.387581
0.37994
0.372048
0.363738
0.354962
0.345718
0.335999
0.325801
0.315116
0.303938
0.292262
0.280083
0.267398
0.254204
0.240502
0.226291
0.211573
0.196352
0.180628
0.164403
0.147671
0.130425
0.112651
0.0943535
0.0756843
0.0573674
0.0417777
0.0345151
0.0417777
0.0573674
0.0756843
0.0943535
0.112651
0.130425
0.147671
0.164403
0.180628
0.196352
0.211573
0.226291
0.240502
0.254204
0.267398
0.280083
0.292262
0.303938
0.315116
0.325801
0.335999
0.345718
0.354962
0.363738
0.372048
0.37994
0.387581
0.39503
0.402338
0.409548
0.416699
0.423822
0.430945
0.438087
0.445262
0.452473
0.459717
0.46698
0.474236
0.481449
0.488568
0.495528
0.502247
0.508626
0.514543
0.519852
0.524373
0.527868
0.529982
0.559912
0.557334
0.553101
0.547673
0.541362
0.534408
0.527008
0.519322
0.511484
0.5036
0.495755
0.488014
0.480423
0.473016
0.465807
0.458803
0.451998
0.445374
0.438908
0.432564
0.426303
0.420074
0.413822
0.40748
0.400964
0.394034
0.386593
0.378606
0.370036
0.360847
0.351006
0.34048
0.32924
0.317262
0.304523
0.291007
0.276702
0.2616
0.245698
0.228996
0.211498
0.193208
0.174128
0.154258
0.133594
0.112158
0.0901482
0.0684533
0.0499363
0.0413013
0.0499363
0.0684533
0.0901482
0.112158
0.133594
0.154258
0.174128
0.193208
0.211498
0.228996
0.245698
0.2616
0.276702
0.291007
0.304523
0.317262
0.32924
0.34048
0.351006
0.360847
0.370036
0.378606
0.386593
0.394034
0.400964
0.40748
0.413822
0.420074
0.426303
0.432564
0.438908
0.445374
0.451998
0.458803
0.465807
0.473016
0.480423
0.488014
0.495755
0.5036
0.511484
0.519322
0.527008
0.534408
0.541362
0.547673
0.553101
0.557334
0.559912
0.575706
0.572596
0.56751
0.561027
0.553546
0.545378
0.536776
0.527947
0.519059
0.510249
0.50162
0.493254
0.485206
0.477516
0.470204
0.463277
0.456728
0.450542
0.44469
0.439138
0.433839
0.428741
0.423781
0.418886
0.41396
0.408729
0.40306
0.396876
0.390102
0.38266
0.374476
0.365475
0.35559
0.344758
0.332923
0.320038
0.306062
0.290967
0.274731
0.257343
0.238798
0.219101
0.198255
0.176269
0.153148
0.128937
0.103888
0.079056
0.057789
0.0478592
0.057789
0.079056
0.103888
0.128937
0.153148
0.176269
0.198255
0.219101
0.238798
0.257343
0.274731
0.290967
0.306062
0.320038
0.332923
0.344758
0.35559
0.365475
0.374476
0.38266
0.390102
0.396876
0.40306
0.408729
0.41396
0.418886
0.423781
0.428741
0.433839
0.439138
0.44469
0.450542
0.456728
0.463277
0.470204
0.477516
0.485206
0.493254
0.50162
0.510249
0.519059
0.527947
0.536776
0.545378
0.553546
0.561027
0.56751
0.572596
0.575706
0.583699
0.579989
0.573934
0.56625
0.557433
0.547876
0.537895
0.527748
0.51764
0.507736
0.498162
0.489009
0.480343
0.472206
0.464622
0.457596
0.451124
0.445186
0.439758
0.434802
0.430275
0.426123
0.422285
0.418689
0.415238
0.411665
0.407813
0.403576
0.39884
0.393485
0.387393
0.380441
0.372513
0.363497
0.353286
0.341788
0.328918
0.314607
0.298801
0.28146
0.262561
0.242093
0.220057
0.196461
0.171322
0.144705
0.116919
0.0891931
0.0653528
0.0542055
0.0653528
0.0891931
0.116919
0.144705
0.171322
0.196461
0.220057
0.242093
0.262561
0.28146
0.298801
0.314607
0.328918
0.341788
0.353286
0.363497
0.372513
0.380441
0.387393
0.393485
0.39884
0.403576
0.407813
0.411665
0.415238
0.418689
0.422285
0.426123
0.430275
0.434802
0.439758
0.445186
0.451124
0.457596
0.464622
0.472206
0.480343
0.489009
0.498162
0.507736
0.51764
0.527748
0.537895
0.547876
0.557433
0.56625
0.573934
0.579989
0.583699
0.587771
0.583399
0.576274
0.56726
0.556968
0.54588
0.534381
0.522783
0.511333
0.500221
0.489588
0.479538
0.470139
0.461433
0.453442
0.446168
0.439604
0.433729
0.428516
0.423929
0.419927
0.416459
0.41347
0.410893
0.40864
0.406477
0.404244
0.401815
0.399052
0.395804
0.391912
0.387213
0.381538
0.37472
0.366596
0.357014
0.345832
0.332924
0.318186
0.301531
0.282899
0.262252
0.239572
0.214858
0.188131
0.159474
0.129254
0.0988769
0.0726397
0.0603522
0.0726397
0.0988769
0.129254
0.159474
0.188131
0.214858
0.239572
0.262252
0.282899
0.301531
0.318186
0.332924
0.345832
0.357014
0.366596
0.37472
0.381538
0.387213
0.391912
0.395804
0.399052
0.401815
0.404244
0.406477
0.40864
0.410893
0.41347
0.416459
0.419927
0.423929
0.428516
0.433729
0.439604
0.446168
0.453442
0.461433
0.470139
0.479538
0.489588
0.500221
0.511333
0.522783
0.534381
0.54588
0.556968
0.56726
0.576274
0.583399
0.587771
0.590031
0.584945
0.576663
0.566214
0.554337
0.541611
0.528502
0.515376
0.502519
0.490146
0.478412
0.467423
0.457246
0.447918
0.439454
0.43185
0.425091
0.41915
0.413997
0.409595
0.405903
0.402878
0.400468
0.398616
0.397248
0.396173
0.395245
0.394336
0.393297
0.391963
0.390149
0.387656
0.384276
0.379789
0.373976
0.366619
0.357509
0.346451
0.333273
0.317827
0.299995
0.279694
0.25687
0.231501
0.203598
0.173259
0.140906
0.108117
0.0796585
0.0663078
0.0796585
0.108117
0.140906
0.173259
0.203598
0.231501
0.25687
0.279694
0.299995
0.317827
0.333273
0.346451
0.357509
0.366619
0.373976
0.379789
0.384276
0.387656
0.390149
0.391963
0.393297
0.394336
0.395245
0.396173
0.397248
0.398616
0.400468
0.402878
0.405903
0.409595
0.413997
0.41915
0.425091
0.43185
0.439454
0.447918
0.457246
0.467423
0.478412
0.490146
0.502519
0.515376
0.528502
0.541611
0.554337
0.566214
0.576663
0.584945
0.590031
0.591523
0.585677
0.576163
0.564192
0.550644
0.536209
0.521435
0.506748
0.492472
0.478841
0.466019
0.454111
0.443175
0.433239
0.424303
0.416353
0.409361
0.403294
0.398114
0.39378
0.390252
0.387488
0.385442
0.384069
0.383306
0.38301
0.383059
0.383335
0.383694
0.383969
0.383969
0.383477
0.382253
0.38004
0.376565
0.371549
0.364713
0.355786
0.344516
0.330678
0.314081
0.294575
0.272052
0.24645
0.217761
0.186082
0.151885
0.116921
0.086416
0.0720793
0.086416
0.116921
0.151885
0.186082
0.217761
0.24645
0.272052
0.294575
0.314081
0.330678
0.344516
0.355786
0.364713
0.371549
0.376565
0.38004
0.382253
0.383477
0.383969
0.383969
0.383694
0.383335
0.383059
0.38301
0.383306
0.384069
0.385442
0.387488
0.390252
0.39378
0.398114
0.403294
0.409361
0.416353
0.424303
0.433239
0.443175
0.454111
0.466019
0.478841
0.492472
0.506748
0.521435
0.536209
0.550644
0.564192
0.576163
0.585677
0.591523
0.592719
0.586073
0.575261
0.561694
0.546409
0.530217
0.513755
0.49751
0.48184
0.466997
0.453145
0.440381
0.428752
0.418266
0.408909
0.400647
0.393439
0.38724
0.382002
0.37768
0.374231
0.371611
0.369783
0.368705
0.36833
0.368559
0.369295
0.370438
0.371862
0.373413
0.374905
0.37612
0.376806
0.376679
0.375428
0.372719
0.368209
0.361549
0.352402
0.340453
0.325423
0.307078
0.285237
0.259782
0.230663
0.197966
0.162206
0.125298
0.0929182
0.0776719
0.0929182
0.125298
0.162206
0.197966
0.230663
0.259782
0.285237
0.307078
0.325423
0.340453
0.352402
0.361549
0.368209
0.372719
0.375428
0.376679
0.376806
0.37612
0.374905
0.373413
0.371862
0.370438
0.369295
0.368559
0.36833
0.368705
0.369783
0.371611
0.374231
0.37768
0.382002
0.38724
0.393439
0.400647
0.408909
0.418266
0.428752
0.440381
0.453145
0.466997
0.48184
0.49751
0.513755
0.530217
0.546409
0.561694
0.575261
0.586073
0.592719
0.593819
0.586336
0.574166
0.55894
0.541866
0.523889
0.505739
0.487963
0.470954
0.454971
0.440176
0.426651
0.414422
0.403476
0.393774
0.385265
0.37789
0.371589
0.366303
0.361978
0.358568
0.35603
0.354326
0.353422
0.353283
0.353843
0.355034
0.356778
0.358971
0.36148
0.36414
0.366744
0.369042
0.370741
0.371507
0.370966
0.368718
0.364342
0.357415
0.347528
0.334302
0.317405
0.296565
0.271584
0.242357
0.208943
0.171884
0.133256
0.0991702
0.0830902
0.0991702
0.133256
0.171884
0.208943
0.242357
0.271584
0.296565
0.317405
0.334302
0.347528
0.357415
0.364342
0.368718
0.370966
0.371507
0.370741
0.369042
0.366744
0.36414
0.36148
0.358971
0.356778
0.355034
0.353843
0.353283
0.353422
0.354326
0.35603
0.358568
0.361978
0.366303
0.371589
0.37789
0.385265
0.393774
0.403476
0.414422
0.426651
0.440176
0.454971
0.470954
0.487963
0.505739
0.523889
0.541866
0.55894
0.574166
0.586336
0.593819
0.594903
0.586548
0.572965
0.556024
0.537122
0.517345
0.497525
0.478268
0.459992
0.442964
0.427332
0.413156
0.400436
0.389132
0.37918
0.370503
0.363025
0.356668
0.351362
0.347047
0.343667
0.34118
0.339548
0.338741
0.338734
0.33949
0.340964
0.343099
0.345816
0.349012
0.352544
0.356229
0.359834
0.363072
0.365599
0.36702
0.366888
0.364723
0.360021
0.352278
0.341007
0.325767
0.306181
0.281954
0.252904
0.219047
0.180939
0.140804
0.105177
0.088338
0.105177
0.140804
0.180939
0.219047
0.252904
0.281954
0.306181
0.325767
0.341007
0.352278
0.360021
0.364723
0.366888
0.36702
0.365599
0.363072
0.359834
0.356229
0.352544
0.349012
0.345816
0.343099
0.340964
0.33949
0.338734
0.338741
0.339548
0.34118
0.343667
0.347047
0.351362
0.356668
0.363025
0.370503
0.37918
0.389132
0.400436
0.413156
0.427332
0.442964
0.459992
0.478268
0.497525
0.517345
0.537122
0.556024
0.572965
0.586548
0.594903
0.595999
0.586741
0.571696
0.55299
0.532228
0.510651
0.489193
0.468518
0.449066
0.4311
0.414747
0.40004
0.386945
0.375391
0.365283
0.356522
0.349008
0.342649
0.337361
0.333075
0.329732
0.327285
0.325698
0.324943
0.325003
0.325861
0.327493
0.329862
0.332915
0.336573
0.340727
0.34522
0.349846
0.354336
0.358354
0.361495
0.363285
0.363195
0.36065
0.355055
0.345817
0.332377
0.314238
0.290995
0.262369
0.228315
0.189389
0.147953
0.110944
0.0934189
0.110944
0.147953
0.189389
0.228315
0.262369
0.290995
0.314238
0.332377
0.345817
0.355055
0.36065
0.363195
0.363285
0.361495
0.358354
0.354336
0.349846
0.34522
0.340727
0.336573
0.332915
0.329862
0.327493
0.325861
0.325003
0.324943
0.325698
0.327285
0.329732
0.333075
0.337361
0.342649
0.349008
0.356522
0.365283
0.375391
0.386945
0.40004
0.414747
0.4311
0.449066
0.468518
0.489193
0.510651
0.532228
0.55299
0.571696
0.586741
0.595999
0.59712
0.586928
0.570373
0.549859
0.527216
0.50385
0.4808
0.458783
0.438255
0.419466
0.402516
0.3874
0.374046
0.362347
0.352178
0.343411
0.335926
0.329613
0.32438
0.320147
0.316852
0.314444
0.312887
0.312158
0.312242
0.313141
0.314845
0.317335
0.32058
0.324527
0.329097
0.334167
0.339562
0.345039
0.350283
0.354893
0.358385
0.360194
0.359688
0.356188
0.348999
0.33744
0.320888
0.298811
0.27082
0.236788
0.197258
0.154712
0.116475
0.0983364
0.116475
0.154712
0.197258
0.236788
0.27082
0.298811
0.320888
0.33744
0.348999
0.356188
0.359688
0.360194
0.358385
0.354893
0.350283
0.345039
0.339562
0.334167
0.329097
0.324527
0.32058
0.317335
0.314845
0.313141
0.312242
0.312158
0.312887
0.314444
0.316852
0.320147
0.32438
0.329613
0.335926
0.343411
0.352178
0.362347
0.374046
0.3874
0.402516
0.419466
0.438255
0.458783
0.4808
0.50385
0.527216
0.549859
0.570373
0.586928
0.59712
0.598269
0.587116
0.569007
0.546647
0.52211
0.496975
0.472388
0.449117
0.427622
0.408133
0.39071
0.375305
0.361805
0.35006
0.339914
0.331212
0.323812
0.31759
0.312442
0.308283
0.305045
0.302678
0.301145
0.300425
0.300506
0.301404
0.303121
0.305652
0.308984
0.31309
0.317916
0.323374
0.329323
0.335554
0.341779
0.347615
0.352581
0.356093
0.357473
0.355973
0.350799
0.341154
0.32628
0.305509
0.278326
0.244509
0.204568
0.161092
0.121777
0.103094
0.121777
0.161092
0.204568
0.244509
0.278326
0.305509
0.32628
0.341154
0.350799
0.355973
0.357473
0.356093
0.352581
0.347615
0.341779
0.335554
0.329323
0.323374
0.317916
0.31309
0.308984
0.305652
0.303121
0.301404
0.300506
0.300425
0.301145
0.302678
0.305045
0.308283
0.312442
0.31759
0.323812
0.331212
0.339914
0.35006
0.361805
0.375305
0.39071
0.408133
0.427622
0.449117
0.472388
0.496975
0.52211
0.546647
0.569007
0.587116
0.598269
0.599448
0.587308
0.567603
0.543366
0.516928
0.490056
0.463999
0.439568
0.417222
0.397155
0.379382
0.363806
0.350263
0.338564
0.328515
0.319937
0.312668
0.306571
0.301532
0.297461
0.294288
0.291962
0.290448
0.289726
0.289787
0.290658
0.292348
0.294863
0.298208
0.302374
0.307336
0.313033
0.31936
0.326145
0.333134
0.339972
0.346191
0.351201
0.354297
0.354671
0.351444
0.343702
0.330556
0.311192
0.284959
0.251521
0.211344
0.167107
0.126854
0.107694
0.126854
0.167107
0.211344
0.251521
0.284959
0.311192
0.330556
0.343702
0.351444
0.354671
0.354297
0.351201
0.346191
0.339972
0.333134
0.326145
0.31936
0.313033
0.307336
0.302374
0.298208
0.294863
0.292348
0.290658
0.289787
0.289726
0.290448
0.291962
0.294288
0.297461
0.301532
0.306571
0.312668
0.319937
0.328515
0.338564
0.350263
0.363806
0.379382
0.397155
0.417222
0.439568
0.463999
0.490056
0.516928
0.543366
0.567603
0.587308
0.599448
0.600658
0.587506
0.566169
0.540025
0.51169
0.483118
0.455667
0.430179
0.407099
0.386578
0.368576
0.352937
0.339447
0.327871
0.317983
0.309577
0.302473
0.296523
0.291608
0.287633
0.284528
0.282242
0.280742
0.280009
0.28004
0.280864
0.282501
0.284964
0.288269
0.292427
0.297433
0.303255
0.309821
0.316995
0.324561
0.332199
0.339463
0.345772
0.350406
0.352512
0.351135
0.345255
0.33385
0.315961
0.290787
0.257869
0.21761
0.172768
0.131711
0.11214
0.131711
0.172768
0.21761
0.257869
0.290787
0.315961
0.33385
0.345255
0.351135
0.352512
0.350406
0.345772
0.339463
0.332199
0.324561
0.316995
0.309821
0.303255
0.297433
0.292427
0.288269
0.284964
0.282501
0.280864
0.28004
0.280009
0.280742
0.282242
0.284528
0.287633
0.291608
0.296523
0.302473
0.309577
0.317983
0.327871
0.339447
0.352937
0.368576
0.386578
0.407099
0.430179
0.455667
0.483118
0.51169
0.540025
0.566169
0.587506
0.600658
0.601899
0.587712
0.564708
0.536636
0.506412
0.476189
0.447425
0.420987
0.397293
0.376439
0.358322
0.342721
0.329366
0.31798
0.308302
0.300102
0.293187
0.287398
0.282612
0.278734
0.275694
0.273444
0.271952
0.271203
0.271195
0.271962
0.273528
0.275915
0.279147
0.283248
0.288233
0.294095
0.300791
0.308221
0.316208
0.324469
0.332591
0.340011
0.346005
0.349692
0.35005
0.345966
0.336288
0.31991
0.295878
0.263595
0.223392
0.178088
0.136356
0.116436
0.136356
0.178088
0.223392
0.263595
0.295878
0.31991
0.336288
0.345966
0.35005
0.349692
0.346005
0.340011
0.332591
0.324469
0.316208
0.308221
0.300791
0.294095
0.288233
0.283248
0.279147
0.275915
0.273528
0.271962
0.271195
0.271203
0.271952
0.273444
0.275694
0.278734
0.282612
0.287398
0.293187
0.300102
0.308302
0.31798
0.329366
0.342721
0.358322
0.376439
0.397293
0.420987
0.447425
0.476189
0.506412
0.536636
0.564708
0.587712
0.601899
0.603171
0.587929
0.563225
0.533209
0.501112
0.469293
0.439304
0.412027
0.387837
0.366768
0.34864
0.333166
0.320019
0.308876
0.299444
0.291473
0.284757
0.279133
0.274473
0.270686
0.267705
0.265483
0.263993
0.263221
0.263169
0.263873
0.26536
0.267656
0.270794
0.274809
0.279729
0.285568
0.292312
0.299893
0.308173
0.316908
0.325722
0.334079
0.341264
0.346376
0.348347
0.345973
0.337986
0.323131
0.300297
0.268744
0.228715
0.18308
0.140793
0.120584
0.140793
0.18308
0.228715
0.268744
0.300297
0.323131
0.337986
0.345973
0.348347
0.346376
0.341264
0.334079
0.325722
0.316908
0.308173
0.299893
0.292312
0.285568
0.279729
0.274809
0.270794
0.267656
0.26536
0.263873
0.263169
0.263221
0.263993
0.265483
0.267705
0.270686
0.274473
0.279133
0.284757
0.291473
0.299444
0.308876
0.320019
0.333166
0.34864
0.366768
0.387837
0.412027
0.439304
0.469293
0.501112
0.533209
0.563225
0.587929
0.603171
0.604476
0.588159
0.561727
0.529754
0.495806
0.462451
0.431331
0.403326
0.378759
0.357585
0.339543
0.324274
0.311392
0.300531
0.29137
0.283639
0.277123
0.271656
0.267114
0.263407
0.260472
0.258268
0.256772
0.255973
0.255874
0.256512
0.257917
0.260117
0.263151
0.267061
0.271888
0.277663
0.284395
0.292047
0.300517
0.309601
0.318964
0.328103
0.336319
0.342706
0.346159
0.3454
0.339048
0.325707
0.304107
0.273357
0.233605
0.187758
0.145028
0.124589
0.145028
0.187758
0.233605
0.273357
0.304107
0.325707
0.339048
0.3454
0.346159
0.342706
0.336319
0.328103
0.318964
0.309601
0.300517
0.292047
0.284395
0.277663
0.271888
0.267061
0.263151
0.260117
0.257917
0.256512
0.255874
0.255973
0.256772
0.258268
0.260472
0.263407
0.267114
0.271656
0.277123
0.283639
0.29137
0.300531
0.311392
0.324274
0.339543
0.357585
0.378759
0.403326
0.431331
0.462451
0.495806
0.529754
0.561727
0.588159
0.604476
0.605813
0.588403
0.560217
0.526279
0.490509
0.455687
0.423532
0.394912
0.37008
0.348903
0.331033
0.316035
0.303464
0.292912
0.284032
0.27654
0.270216
0.264894
0.260453
0.25681
0.253907
0.25171
0.250199
0.249367
0.24922
0.249793
0.251116
0.253221
0.25615
0.259948
0.264667
0.270352
0.27703
0.284694
0.293274
0.302606
0.312395
0.322177
0.331278