# vtk DataFile Version 3.0
Malha 2D com triângulos e temperatura
ASCII
DATASET UNSTRUCTURED_GRID

POINTS 10000 double
0 0 0
10 0 0
10 10 0
0 10 0
0.10101 0 0
0.20202 0 0
0.30303 0 0
0.40404 0 0
0.505051 0 0
0.606061 0 0
0.707071 0 0
0.808081 0 0
0.909091 0 0
1.0101 0 0
1.11111 0 0
1.21212 0 0
1.31313 0 0
1.41414 0 0
1.51515 0 0
1.61616 0 0
1.71717 0 0
1.81818 0 0
1.91919 0 0
2.0202 0 0
2.12121 0 0
2.22222 0 0
2.32323 0 0
2.42424 0 0
2.52525 0 0
2.62626 0 0
2.72727 0 0
2.82828 0 0
2.92929 0 0
3.0303 0 0
3.13131 0 0
3.23232 0 0
3.33333 0 0
3.43434 0 0
3.53535 0 0
3.63636 0 0
3.73737 0 0
3.83838 0 0
3.93939 0 0
4.0404 0 0
4.14141 0 0
4.24242 0 0
4.34343 0 0
4.44444 0 0
4.54545 0 0
4.64646 0 0
4.74747 0 0
4.84848 0 0
4.94949 0 0
5.05051 0 0
5.15152 0 0
5.25253 0 0
5.35354 0 0
5.45455 0 0
5.55556 0 0
5.65657 0 0
5.75758 0 0
5.85859 0 0
5.9596 0 0
6.06061 0 0
6.16162 0 0
6.26263 0 0
6.36364 0 0
6.46465 0 0
6.56566 0 0
6.66667 0 0
6.76768 0 0
6.86869 0 0
6.9697 0 0
7.07071 0 0
7.17172 0 0
7.27273 0 0
7.37374 0 0
7.47475 0 0
7.57576 0 0
7.67677 0 0
7.77778 0 0
7.87879 0 0
7.9798 0 0
8.08081 0 0
8.18182 0 0
8.28283 0 0
8.38384 0 0
8.48485 0 0
8.58586 0 0
8.68687 0 0
8.78788 0 0
8.88889 0 0
8.9899 0 0
9.09091 0 0
9.19192 0 0
9.29293 0 0
9.39394 0 0
9.49495 0 0
9.59596 0 0
9.69697 0 0
9.79798 0 0
9.89899 0 0
10 0.10101 0
10 0.20202 0
10 0.30303 0
10 0.40404 0
10 0.505051 0
10 0.606061 0
10 0.707071 0
10 0.808081 0
10 0.909091 0
10 1.0101 0
10 1.11111 0
10 1.21212 0
10 1.31313 0
10 1.41414 0
10 1.51515 0
10 1.61616 0
10 1.71717 0
10 1.81818 0
10 1.91919 0
10 2.0202 0
10 2.12121 0
10 2.22222 0
10 2.32323 0
10 2.42424 0
10 2.52525 0
10 2.62626 0
10 2.72727 0
10 2.82828 0
10 2.92929 0
10 3.0303 0
10 3.13131 0
10 3.23232 0
10 3.33333 0
10 3.43434 0
10 3.53535 0
10 3.63636 0
10 3.73737 0
10 3.83838 0
10 3.93939 0
10 4.0404 0
10 4.14141 0
10 4.24242 0
10 4.34343 0
10 4.44444 0
10 4.54545 0
10 4.64646 0
10 4.74747 0
10 4.84848 0
10 4.94949 0
10 5.05051 0
10 5.15152 0
10 5.25253 0
10 5.35354 0
10 5.45455 0
10 5.55556 0
10 5.65657 0
10 5.75758 0
10 5.85859 0
10 5.9596 0
10 6.06061 0
10 6.16162 0
10 6.26263 0
10 6.36364 0
10 6.46465 0
10 6.56566 0
10 6.66667 0
10 6.76768 0
10 6.86869 0
10 6.9697 0
10 7.07071 0
10 7.17172 0
10 7.27273 0
10 7.37374 0
10 7.47475 0
10 7.57576 0
10 7.67677 0
10 7.77778 0
10 7.87879 0
10 7.9798 0
10 8.08081 0
10 8.18182 0
10 8.28283 0
10 8.38384 0
10 8.48485 0
10 8.58586 0
10 8.68687 0
10 8.78788 0
10 8.88889 0
10 8.9899 0
10 9.09091 0
10 9.19192 0
10 9.29293 0
10 9.39394 0
10 9.49495 0
10 9.59596 0
10 9.69697 0
10 9.79798 0
10 9.89899 0
9.89899 10 0
9.79798 10 0
9.69697 10 0
9.59596 10 0
9.49495 10 0
9.39394 10 0
9.29293 10 0
9.19192 10 0
9.09091 10 0
8.9899 10 0
8.88889 10 0
8.78788 10 0
8.68687 10 0
8.58586 10 0
8.48485 10 0
8.38384 10 0
8.28283 10 0
8.18182 10 0
8.08081 10 0
7.9798 10 0
7.87879 10 0
7.77778 10 0
7.67677 10 0
7.57576 10 0
7.47475 10 0
7.37374 10 0
7.27273 10 0
7.17172 10 0
7.07071 10 0
6.9697 10 0
6.86869 10 0
6.76768 10 0
6.66667 10 0
6.56566 10 0
6.46465 10 0
6.36364 10 0
6.26263 10 0
6.16162 10 0
6.06061 10 0
5.9596 10 0
5.85859 10 0
5.75758 10 0
5.65657 10 0
5.55556 10 0
5.45455 10 0
5.35354 10 0
5.25253 10 0
5.15152 10 0
5.05051 10 0
4.94949 10 0
4.84848 10 0
4.74747 10 0
4.64646 10 0
4.54545 10 0
4.44444 10 0
4.34343 10 0
4.24242 10 0
4.14141 10 0
4.0404 10 0
3.93939 10 0
3.83838 10 0
3.73737 10 0
3.63636 10 0
3.53535 10 0
3.43434 10 0
3.33333 10 0
3.23232 10 0
3.13131 10 0
3.0303 10 0
2.92929 10 0
2.82828 10 0
2.72727 10 0
2.62626 10 0
2.52525 10 0
2.42424 10 0
2.32323 10 0
2.22222 10 0
2.12121 10 0
2.0202 10 0
1.91919 10 0
1.81818 10 0
1.71717 10 0
1.61616 10 0
1.51515 10 0
1.41414 10 0
1.31313 10 0
1.21212 10 0
1.11111 10 0
1.0101 10 0
0.909091 10 0
0.808081 10 0
0.707071 10 0
0.606061 10 0
0.505051 10 0
0.40404 10 0
0.30303 10 0
0.20202 10 0
0.10101 10 0
0 9.89899 0
0 9.79798 0
0 9.69697 0
0 9.59596 0
0 9.49495 0
0 9.39394 0
0 9.29293 0
0 9.19192 0
0 9.09091 0
0 8.9899 0
0 8.88889 0
0 8.78788 0
0 8.68687 0
0 8.58586 0
0 8.48485 0
0 8.38384 0
0 8.28283 0
0 8.18182 0
0 8.08081 0
0 7.9798 0
0 7.87879 0
0 7.77778 0
0 7.67677 0
0 7.57576 0
0 7.47475 0
0 7.37374 0
0 7.27273 0
0 7.17172 0
0 7.07071 0
0 6.9697 0
0 6.86869 0
0 6.76768 0
0 6.66667 0
0 6.56566 0
0 6.46465 0
0 6.36364 0
0 6.26263 0
0 6.16162 0
0 6.06061 0
0 5.9596 0
0 5.85859 0
0 5.75758 0
0 5.65657 0
0 5.55556 0
0 5.45455 0
0 5.35354 0
0 5.25253 0
0 5.15152 0
0 5.05051 0
0 4.94949 0
0 4.84848 0
0 4.74747 0
0 4.64646 0
0 4.54545 0
0 4.44444 0
0 4.34343 0
0 4.24242 0
0 4.14141 0
0 4.0404 0
0 3.93939 0
0 3.83838 0
0 3.73737 0
0 3.63636 0
0 3.53535 0
0 3.43434 0
0 3.33333 0
0 3.23232 0
0 3.13131 0
0 3.0303 0
0 2.92929 0
0 2.82828 0
0 2.72727 0
0 2.62626 0
0 2.52525 0
0 2.42424 0
0 2.32323 0
0 2.22222 0
0 2.12121 0
0 2.0202 0
0 1.91919 0
0 1.81818 0
0 1.71717 0
0 1.61616 0
0 1.51515 0
0 1.41414 0
0 1.31313 0
0 1.21212 0
0 1.11111 0
0 1.0101 0
0 0.909091 0
0 0.808081 0
0 0.707071 0
0 0.606061 0
0 0.505051 0
0 0.40404 0
0 0.30303 0
0 0.20202 0
0 0.10101 0
0.10101 0.10101 0
0.10101 0.20202 0
0.10101 0.30303 0
0.10101 0.40404 0
0.10101 0.505051 0
0.10101 0.606061 0
0.10101 0.707071 0
0.10101 0.808081 0
0.10101 0.909091 0
0.10101 1.0101 0
0.10101 1.11111 0
0.10101 1.21212 0
0.10101 1.31313 0
0.10101 1.41414 0
0.10101 1.51515 0
0.10101 1.61616 0
0.10101 1.71717 0
0.10101 1.81818 0
0.10101 1.91919 0
0.10101 2.0202 0
0.10101 2.12121 0
0.10101 2.22222 0
0.10101 2.32323 0
0.10101 2.42424 0
0.10101 2.52525 0
0.10101 2.62626 0
0.10101 2.72727 0
0.10101 2.82828 0
0.10101 2.92929 0
0.10101 3.0303 0
0.10101 3.13131 0
0.10101 3.23232 0
0.10101 3.33333 0
0.10101 3.43434 0
0.10101 3.53535 0
0.10101 3.63636 0
0.10101 3.73737 0
0.10101 3.83838 0
0.10101 3.93939 0
0.10101 4.0404 0
0.10101 4.14141 0
0.10101 4.24242 0
0.10101 4.34343 0
0.10101 4.44444 0
0.10101 4.54545 0
0.10101 4.64646 0
0.10101 4.74747 0
0.10101 4.84848 0
0.10101 4.94949 0
0.10101 5.05051 0
0.10101 5.15152 0
0.10101 5.25253 0
0.10101 5.35354 0
0.10101 5.45455 0
0.10101 5.55556 0
0.10101 5.65657 0
0.10101 5.75758 0
0.10101 5.85859 0
0.10101 5.9596 0
0.10101 6.06061 0
0.10101 6.16162 0
0.10101 6.26263 0
0.10101 6.36364 0
0.10101 6.46465 0
0.10101 6.56566 0
0.10101 6.66667 0
0.10101 6.76768 0
0.10101 6.86869 0
0.10101 6.9697 0
0.10101 7.07071 0
0.10101 7.17172 0
0.10101 7.27273 0
0.10101 7.37374 0
0.10101 7.47475 0
0.10101 7.57576 0
0.10101 7.67677 0
0.10101 7.77778 0
0.10101 7.87879 0
0.10101 7.9798 0
0.10101 8.08081 0
0.10101 8.18182 0
0.10101 8.28283 0
0.10101 8.38384 0
0.10101 8.48485 0
0.10101 8.58586 0
0.10101 8.68687 0
0.10101 8.78788 0
0.10101 8.88889 0
0.10101 8.9899 0
0.10101 9.09091 0
0.10101 9.19192 0
0.10101 9.29293 0
0.10101 9.39394 0
0.10101 9.49495 0
0.10101 9.59596 0
0.10101 9.69697 0
0.10101 9.79798 0
0.10101 9.89899 0
0.20202 0.10101 0
0.20202 0.20202 0
0.20202 0.30303 0
0.20202 0.40404 0
0.20202 0.505051 0
0.20202 0.606061 0
0.20202 0.707071 0
0.20202 0.808081 0
0.20202 0.909091 0
0.20202 1.0101 0
0.20202 1.11111 0
0.20202 1.21212 0
0.20202 1.31313 0
0.20202 1.41414 0
0.20202 1.51515 0
0.20202 1.61616 0
0.20202 1.71717 0
0.20202 1.81818 0
0.20202 1.91919 0
0.20202 2.0202 0
0.20202 2.12121 0
0.20202 2.22222 0
0.20202 2.32323 0
0.20202 2.42424 0
0.20202 2.52525 0
0.20202 2.62626 0
0.20202 2.72727 0
0.20202 2.82828 0
0.20202 2.92929 0
0.20202 3.0303 0
0.20202 3.13131 0
0.20202 3.23232 0
0.20202 3.33333 0
0.20202 3.43434 0
0.20202 3.53535 0
0.20202 3.63636 0
0.20202 3.73737 0
0.20202 3.83838 0
0.20202 3.93939 0
0.20202 4.0404 0
0.20202 4.14141 0
0.20202 4.24242 0
0.20202 4.34343 0
0.20202 4.44444 0
0.20202 4.54545 0
0.20202 4.64646 0
0.20202 4.74747 0
0.20202 4.84848 0
0.20202 4.94949 0
0.20202 5.05051 0
0.20202 5.15152 0
0.20202 5.25253 0
0.20202 5.35354 0
0.20202 5.45455 0
0.20202 5.55556 0
0.20202 5.65657 0
0.20202 5.75758 0
0.20202 5.85859 0
0.20202 5.9596 0
0.20202 6.06061 0
0.20202 6.16162 0
0.20202 6.26263 0
0.20202 6.36364 0
0.20202 6.46465 0
0.20202 6.56566 0
0.20202 6.66667 0
0.20202 6.76768 0
0.20202 6.86869 0
0.20202 6.9697 0
0.20202 7.07071 0
0.20202 7.17172 0
0.20202 7.27273 0
0.20202 7.37374 0
0.20202 7.47475 0
0.20202 7.57576 0
0.20202 7.67677 0
0.20202 7.77778 0
0.20202 7.87879 0
0.20202 7.9798 0
0.20202 8.08081 0
0.20202 8.18182 0
0.20202 8.28283 0
0.20202 8.38384 0
0.20202 8.48485 0
0.20202 8.58586 0
0.20202 8.68687 0
0.20202 8.78788 0
0.20202 8.88889 0
0.20202 8.9899 0
0.20202 9.09091 0
0.20202 9.19192 0
0.20202 9.29293 0
0.20202 9.39394 0
0.20202 9.49495 0
0.20202 9.59596 0
0.20202 9.69697 0
0.20202 9.79798 0
0.20202 9.89899 0
0.30303 0.10101 0
0.30303 0.20202 0
0.30303 0.30303 0
0.30303 0.40404 0
0.30303 0.505051 0
0.30303 0.606061 0
0.30303 0.707071 0
0.30303 0.808081 0
0.30303 0.909091 0
0.30303 1.0101 0
0.30303 1.11111 0
0.30303 1.21212 0
0.30303 1.31313 0
0.30303 1.41414 0
0.30303 1.51515 0
0.30303 1.61616 0
0.30303 1.71717 0
0.30303 1.81818 0
0.30303 1.91919 0
0.30303 2.0202 0
0.30303 2.12121 0
0.30303 2.22222 0
0.30303 2.32323 0
0.30303 2.42424 0
0.30303 2.52525 0
0.30303 2.62626 0
0.30303 2.72727 0
0.30303 2.82828 0
0.30303 2.92929 0
0.30303 3.0303 0
0.30303 3.13131 0
0.30303 3.23232 0
0.30303 3.33333 0
0.30303 3.43434 0
0.30303 3.53535 0
0.30303 3.63636 0
0.30303 3.73737 0
0.30303 3.83838 0
0.30303 3.93939 0
0.30303 4.0404 0
0.30303 4.14141 0
0.30303 4.24242 0
0.30303 4.34343 0
0.30303 4.44444 0
0.30303 4.54545 0
0.30303 4.64646 0
0.30303 4.74747 0
0.30303 4.84848 0
0.30303 4.94949 0
0.30303 5.05051 0
0.30303 5.15152 0
0.30303 5.25253 0
0.30303 5.35354 0
0.30303 5.45455 0
0.30303 5.55556 0
0.30303 5.65657 0
0.30303 5.75758 0
0.30303 5.85859 0
0.30303 5.9596 0
0.30303 6.06061 0
0.30303 6.16162 0
0.30303 6.26263 0
0.30303 6.36364 0
0.30303 6.46465 0
0.30303 6.56566 0
0.30303 6.66667 0
0.30303 6.76768 0
0.30303 6.86869 0
0.30303 6.9697 0
0.30303 7.07071 0
0.30303 7.17172 0
0.30303 7.27273 0
0.30303 7.37374 0
0.30303 7.47475 0
0.30303 7.57576 0
0.30303 7.67677 0
0.30303 7.77778 0
0.30303 7.87879 0
0.30303 7.9798 0
0.30303 8.08081 0
[...]
CELL_DATA 9801
SCALARS Temperatura double 1
LOOKUP_TABLE default
3.81783e-18
3.55511e-17
1.04973e-16
2.56075e-16
5.43686e-16
1.01354e-15
1.61567e-15
1.98286e-15
9.54788e-16
-4.30646e-15
-1.97202e-14
-5.60488e-14
-1.30065e-13
-2.62413e-13
-4.66186e-13
-7.15051e-13
-8.7334e-13
-5.65757e-13
1.03104e-12
5.46374e-12
1.52561e-11
3.38972e-11
6.5063e-11
1.10219e-10
1.6339e-10
2.0173e-10
1.70944e-10
-3.38798e-11
-5.88359e-10
-1.7512e-09
-3.8539e-09
-7.24594e-09
-1.21692e-08
-1.85337e-08
-2.55723e-08
-3.13611e-08
-3.22058e-08
-2.19111e-08
9.03309e-09
7.42875e-08
1.92424e-07
3.87456e-07
6.88933e-07
1.13132e-06
1.7524e-06
2.59047e-06
3.68033e-06
5.0483e-06
6.70733e-06
8.6539e-06
1.08771e-05
1.3557e-05
1.67246e-05
2.04225e-05
2.46825e-05
2.95252e-05
3.49554e-05
4.09598e-05
4.75038e-05
5.45296e-05
6.19547e-05
6.96722e-05
7.75521e-05
8.54436e-05
9.31796e-05
0.000100582
0.000107469
0.000113661
0.000118991
0.000123309
0.000126495
0.000128458
0.000129145
0.000128532
0.000126621
0.000123419
0.000118918
0.000113065
0.000105754
9.68356e-05
8.61789e-05
7.37819e-05
5.99143e-05
4.5237e-05
3.08162e-05
1.79632e-05
7.89771e-06
1.33748e-06
-1.78856e-06
-2.3222e-06
-1.51496e-06
-5.00569e-07
9.92525e-08
2.23689e-07
1.16258e-07
9.56601e-09
-2.11147e-08
-1.04774e-08
5.65346e-10
7.00686e-17
1.56257e-16
2.73781e-16
3.90688e-16
3.44008e-16
-3.18022e-16
-2.62851e-15
-8.63038e-15
-2.18166e-14
-4.7108e-14
-8.91533e-14
-1.46403e-13
-1.9641e-13
-1.65559e-13
1.2447e-13
1.03685e-12
3.21252e-12
7.62026e-12
1.54268e-11
2.74179e-11
4.25287e-11
5.48807e-11
4.8721e-11
-8.94053e-12
-1.77018e-10
-5.47033e-10
-1.24074e-09
-2.38671e-09
-4.05907e-09
-6.15837e-09
-8.2161e-09
-9.11212e-09
-6.70845e-09
2.57981e-09
2.42414e-08
6.6114e-08
1.38788e-07
2.55957e-07
4.34731e-07
6.95933e-07
1.06443e-06
1.56951e-06
2.24545e-06
3.13217e-06
4.2763e-06
5.73242e-06
7.5644e-06
9.84642e-06
1.26628e-05
1.61059e-05
2.02701e-05
2.5245e-05
3.11159e-05
3.79582e-05
4.58316e-05
5.47742e-05
6.47962e-05
7.58743e-05
8.79463e-05
0.000100908
0.000114608
0.000128854
0.000143406
0.00015799
0.0001723
0.000186008
0.00019878
0.000210285
0.000220211
0.000228282
0.000234269
0.000238003
0.000239382
0.000238374
0.000235002
0.000229326
0.000221404
0.000211241
0.000198744
0.00018371
0.000165875
0.000145064
0.000121427
9.57048e-05
6.9391e-05
4.46312e-05
2.37733e-05
8.65001e-06
-1.12023e-07
-3.37081e-06
-3.10133e-06
-1.52184e-06
-2.0506e-07
3.0895e-07
2.54439e-07
6.6679e-08
-2.32744e-08
-2.17257e-08
-2.27649e-09
1.3237e-16
1.29308e-16
-1.75513e-17
-6.23547e-16
-2.31654e-15
-6.23239e-15
-1.40878e-14
-2.77629e-14
-4.752e-14
-6.71919e-14
-6.36357e-14
2.30465e-14
3.212e-13
1.0685e-12
2.64405e-12
5.54111e-12
1.01714e-11
1.63054e-11
2.18536e-11
2.06328e-11
-1.14209e-12
-6.94494e-11
-2.26876e-10
-5.33641e-10
-1.05911e-09
-1.85409e-09
-2.89113e-09
-3.95878e-09
-4.49899e-09
-3.38498e-09
1.35003e-09
1.28098e-08
3.55282e-08
7.57364e-08
1.4161e-07
2.43539e-07
3.94497e-07
6.1061e-07
9.11994e-07
1.3239e-06
1.87811e-06
2.61457e-06
3.58303e-06
4.84465e-06
6.47331e-06
8.55652e-06
1.11957e-05
1.4506e-05
1.86154e-05
2.36642e-05
2.97853e-05
3.71005e-05
4.57439e-05
5.58286e-05
6.74456e-05
8.0654e-05
9.5472e-05
0.000111868
0.000129753
0.000148974
0.000169313
0.000190484
0.000212134
0.000233858
0.000255201
0.000275678
0.000294789
0.00031204
0.000326965
0.000339146
0.000348235
0.000353975
0.000356208
0.000354883
0.000350051
0.000341836
0.000330389
0.000315816
0.000298099
0.00027704
0.000252274
0.000223426
0.000190411
0.000153847
0.000115421
7.79439e-05
4.48942e-05
1.94475e-05
3.31913e-06
-3.9767e-06
-4.93726e-06
-2.93352e-06
-7.45856e-07
3.42573e-07
4.26625e-07
1.56222e-07
-1.7486e-08
-3.59236e-08
-7.34866e-09
-1.78434e-17
-4.60521e-16
-1.39781e-15
-3.43111e-15
-7.24873e-15
-1.33355e-14
-2.07609e-14
-2.42495e-14
-8.1933e-15
6.38661e-14
2.64711e-13
7.20266e-13
1.61412e-12
3.14598e-12
5.37624e-12
7.84118e-12
8.77412e-12
3.75322e-12
-1.63089e-11
-6.75913e-11
-1.75243e-10
-3.72477e-10
-6.9279e-10
-1.14898e-09
-1.6907e-09
-2.13175e-09
-2.04007e-09
-5.89149e-10
3.62344e-09
1.2777e-08
3.00349e-08
5.97547e-08
1.07725e-07
1.81482e-07
2.90805e-07
4.48459e-07
6.71295e-07
9.8168e-07
1.40924e-06
1.99279e-06
2.78235e-06
3.84112e-06
5.24735e-06
7.09589e-06
9.49951e-06
1.25895e-05
1.6516e-05
2.1447e-05
2.75675e-05
3.50781e-05
4.41697e-05
5.50417e-05
6.78921e-05
8.28906e-05
0.000100174
0.000119833
0.000141895
0.000166316
0.000192966
0.000221621
0.000251955
0.000283545
0.000315871
0.000348325
0.000380233
0.000410872
0.000439494
0.000465363
0.000487777
0.000506111
0.000519838
0.000528563
0.000532043
0.0005302
0.000523116
0.000511012
0.000494186
0.000472923
0.000447369
0.000417412
0.00038264
0.000342446
0.00029639
0.000244782
0.000189321
0.000133459
8.20766e-05
4.02835e-05
1.16572e-05
-3.26756e-06
-7.29673e-06
-5.28275e-06
-1.88854e-06
2.15956e-07
6.61953e-07
3.22475e-07
1.19337e-08
-5.47725e-08
-1.77938e-08
-5.57285e-16
-1.59853e-15
-3.22237e-15
-5.6221e-15
-7.99861e-15
-7.2177e-15
5.12511e-15
4.7618e-14
1.55752e-13
3.87906e-13
8.22526e-13
1.52772e-12
2.46692e-12
3.28043e-12
2.86018e-12
-1.36643e-12
-1.44662e-11
-4.51742e-11
-1.06631e-10
-2.15377e-10
-3.86238e-10
-6.19422e-10
-8.74926e-10
-1.02876e-09
-8.06168e-10
3.10638e-10
3.19929e-09
9.23493e-09
2.04464e-08
3.96974e-08
7.09173e-08
1.1943e-07
1.92455e-07
2.99853e-07
4.55197e-07
6.7717e-07
9.91304e-07
1.43197e-06
2.04458e-06
2.88797e-06
4.03687e-06
5.58449e-06
7.6452e-06
1.03569e-05
1.38833e-05
1.84154e-05
2.41722e-05
3.14003e-05
4.03726e-05
5.13859e-05
6.47251e-05
8.0683e-05
9.95521e-05
0.000121584
0.000146983
0.000175884
0.000208333
0.000244267
0.000283498
0.0003257
0.000370398
0.000416971
0.000464656
0.000512561
0.000559694
0.000604988
0.000647343
0.000685668
0.000718928
0.000746192
0.000766675
0.000779782
0.00078514
0.000782621
0.000772347
0.000754666
0.000730092
0.000699188
0.000662393
0.000619826
0.000571135
0.000515518
0.000452076
0.000380553
0.000302337
0.000221298
0.000143827
7.75775e-05
2.90065e-05
7.39593e-07
-9.71923e-06
-8.85804e-06
-4.03642e-06
-2.88145e-07
9.29761e-07
6.03219e-07
9.03842e-08
-7.51436e-08
-3.71452e-08
-1.22606e-15
-2.18636e-15
-2.88418e-15
-1.87648e-15
4.73722e-15
2.53497e-14
7.55906e-14
1.8033e-13
3.70875e-13
6.68147e-13
1.03421e-12
1.26335e-12
7.73558e-13
-1.74048e-12
-8.79944e-12
-2.46859e-11
-5.57431e-11
-1.0975e-10
-1.93124e-10
-3.03978e-10
-4.18272e-10
-4.65742e-10
-2.92214e-10
3.94495e-10
2.09688e-09
5.61951e-09
1.21834e-08
2.35719e-08
4.23294e-08
7.20498e-08
1.17808e-07
1.86802e-07
2.89261e-07
4.39675e-07
6.58358e-07
9.73353e-07
1.42268e-06
2.05692e-06
2.94221e-06
4.16361e-06
5.82884e-06
8.0723e-06
1.10592e-05
1.49892e-05
2.01002e-05
2.667e-05
3.50178e-05
4.5503e-05
5.85232e-05
7.45108e-05
9.38822e-05
0.000117065
0.000144488
0.000176519
0.000213459
0.000255508
0.000302736
0.000355058
0.000412204
0.000473704
0.000538871
0.000606803
0.000676393
0.000746345
0.000815211
0.00088144
0.000943424
0.000999572
0.00104837
0.00108845
0.00111865
0.0011381
0.00114622
0.00114282
0.00112805
0.00110244
0.00106678
0.00102206
0.00096918
0.000908698
0.000840528
0.000763805
0.000677135
0.000579433
0.000471317
0.00035661
0.000243078
0.000141422
6.22065e-05
1.17254e-05
-1.09875e-05
-1.38375e-05
-7.76047e-06
-1.55564e-06
1.13158e-06
1.03991e-06
2.60459e-07
-8.76779e-08
-7.02098e-08
-1.21866e-15
-4.84531e-16
2.39362e-15
1.11113e-14
3.20594e-14
7.53031e-14
1.53086e-13
2.72045e-13
4.11215e-13
4.72824e-13
1.87944e-13
-1.04113e-12
-4.36595e-12
-1.17441e-11
-2.60796e-11
-5.09311e-11
-8.91823e-11
-1.39674e-10
-1.90332e-10
-2.05879e-10
-1.07896e-10
2.55148e-10
1.15031e-09
3.0179e-09
6.54913e-09
1.27923e-08
2.33037e-08
4.03704e-08
6.73439e-08
1.09136e-07
1.72934e-07
2.69187e-07
4.12916e-07
6.25395e-07
9.36238e-07
1.38597e-06
2.02913e-06
2.938e-06
4.20697e-06
5.95761e-06
8.34415e-06
1.15594e-05
1.58408e-05
2.14757e-05
2.88061e-05
3.82323e-05
5.02138e-05
6.52683e-05
8.39687e-05
0.000106938
0.000134779
0.00016811
0.00020755
0.000253634
0.000306798
0.000367335
0.000435355
0.000510737
0.000593101
0.000681774
0.000775774
0.000873806
0.000974276
0.00107532
0.00117486
0.00127064
0.00136036
0.00144171
0.00151249
0.00157074
0.00161476
0.00164327
0.00165542
0.00165089
0.00162987
0.00159312
0.00154183
0.00147753
0.00140184
0.00131603
0.00122059
0.00111488
0.00099711
0.000865157
0.000718317
0.000559622
0.000397675
0.000246436
0.000121859
3.60189e-05
-8.46063e-06
-1.9975e-05
-1.37552e-05
-4.21106e-06
1.03821e-06
1.65839e-06
5.86696e-07
-7.1278e-08
-1.22459e-07
2.7708e-16
4.24523e-15
1.22152e-14
2.88697e-14
5.90122e-14
1.05268e-13
1.59056e-13
1.80141e-13
5.67366e-14
-4.62484e-13
-1.86802e-12
-5.0062e-12
-1.11558e-11
-2.1926e-11
-3.87009e-11
-6.11564e-11
-8.41145e-11
-9.16972e-11
-4.74304e-11
1.21361e-10
5.46907e-10
1.45481e-09
3.2124e-09
6.39864e-09
1.19071e-08
2.1101e-08
3.60487e-08
5.98776e-08
9.72933e-08
1.5532e-07
2.4432e-07
3.79357e-07
5.8198e-07
8.8251e-07
1.32295e-06
1.96061e-06
2.87259e-06
4.16119e-06
5.96021e-06
8.44218e-06
1.18263e-05
1.63867e-05
2.24611e-05
3.04583e-05
4.08655e-05
5.42526e-05
7.12742e-05
9.26686e-05
0.000119252
0.000151913
0.000191515
0.000238944
0.000295082
0.000360697
0.000436417
0.000522667
0.000619608
0.00072708
0.000844546
0.000971055
0.00110521
0.00124518
0.0013887
0.0015331
0.00167542
0.00181246
0.00194091
0.00205747
0.00215903
0.00224273
0.00230615
0.00234744
0.00236536
0.00235941
0.00232983
0.00227764
0.00220456
0.00211288
0.00200518
0.00188382
0.00175034
0.00160473
0.00144513
0.00126835
0.00107182
0.000856761
0.000631558
0.000413078
0.000223722
8.38892e-05
2.89595e-06
-2.60738e-05
-2.27001e-05
-9.18293e-06
1.99159e-07
2.43089e-06
1.15738e-06
1.48656e-08
-1.98263e-07
3.23323e-15
1.03181e-14
2.14501e-14
3.90895e-14
6.05176e-14
7.12548e-14
2.91598e-14
-1.63491e-13
-7.02712e-13
-1.93645e-12
-4.40859e-12
-8.83862e-12
-1.59218e-11
-2.57398e-11
-3.64356e-11
-4.16292e-11
-2.58302e-11
4.31644e-11
2.26269e-10
6.31463e-10
1.44149e-09
2.95571e-09
5.65407e-09
1.02957e-08
1.80715e-08
3.0838e-08
5.14689e-08
8.43708e-08
1.3622e-07
2.16987e-07
3.41334e-07
5.3048e-07
8.14668e-07
1.23637e-06
1.85438e-06
2.74898e-06
4.02833e-06
5.83603e-06
8.36008e-06
1.18431e-05
1.65933e-05
2.29964e-05
3.15278e-05
4.27633e-05
5.7389e-05
7.62084e-05
0.000100145
0.000130239
0.000167643
0.000213611
0.000269365
0.00033616
0.000415243
0.000507704
0.000614435
0.000736047
0.000872774
0.0010244
0.00119018
0.00136878
0.00155825
0.001756
0.00195883
0.002163
0.00236433
0.00255829
0.00274022
0.00290544
0.00304954
0.00316847
0.00325882
0.00331791
0.00334398
0.00333628
0.00329508
0.00322176
0.00311872
0.00298923
0.00283716
0.00266643
0.00248016
0.00227966
0.00206359
0.00182795
0.0015679
0.00128168
0.000975836
0.000668937
0.000390248
0.000171155
3.18773e-05
-2.91198e-05
-3.49308e-05
-1.77254e-05
-2.17725e-06
3.20694e-06
2.07732e-06
2.41664e-07
-2.96966e-07
6.41641e-15
1.39785e-14
2.25825e-14
2.8817e-14
1.82681e-14
-4.41786e-14
-2.31982e-13
-6.80984e-13
-1.61372e-12
-3.3447e-12
-6.22255e-12
-1.04227e-11
-1.54393e-11
-1.90319e-11
-1.52516e-11
9.00475e-12
7.97217e-11
2.44986e-10
5.89586e-10
1.25803e-09
2.49092e-09
4.68264e-09
8.47268e-09
1.48889e-08
2.55688e-08
4.30936e-08
7.14827e-08
1.16906e-07
1.88694e-07
3.00739e-07
4.73412e-07
7.36145e-07
1.13086e-06
1.71646e-06
2.57454e-06
3.81661e-06
5.59296e-06
8.10327e-06
1.16091e-05
1.64478e-05
2.30487e-05
3.19489e-05
4.38105e-05
5.94361e-05
7.97827e-05
0.000105971
0.000139289
0.000181191
0.000233285
0.00029732
0.000375013
0.000468118
0.000578382
0.000707333
0.000856229
0.00102593
0.00121678
0.00142848
0.00166002
0.00190954
0.00217433
0.00245078
0.00273444
0.00302009
0.00330188
0.00357349
0.0038284
0.00406008
0.00426232
0.00442947
0.00455671
0.0046403
0.00467773
0.00466789
0.00461111
0.00450922
0.00436548
0.00418446
0.0039717
0.00373318
0.00347432
0.00319862
0.00290616
0.00259281
0.00225146
0.00187626
0.00146974
0.00104991
0.00065215
0.000321043
9.28316e-05
-2.29694e-05
-4.98053e-05
-3.13297e-05
-7.36054e-06
3.60148e-06
3.44239e-06
7.2153e-07
-4.05527e-07
7.93071e-15
1.15184e-14
1.04379e-14
-6.65163e-15
-6.54148e-14
-2.15899e-13
-5.44905e-13
-1.18464e-12
-2.30242e-12
-4.03917e-12
-6.33578e-12
-8.54208e-12
-8.63578e-12
-1.77959e-12
2.22073e-11
8.31285e-11
2.17505e-10
4.90224e-10
1.01361e-09
1.97854e-09
3.70512e-09
6.72412e-09
1.19064e-08
2.06644e-08
3.52596e-08
5.92623e-08
9.82258e-08
1.60657e-07
2.59393e-07
4.13515e-07
6.50991e-07
1.01223e-06
1.55481e-06
2.35967e-06
3.539e-06
5.24618e-06
7.68798e-06
1.11392e-05
1.596e-05
2.26151e-05
3.16958e-05
4.39426e-05
6.02684e-05
8.17808e-05
0.0001098
0.000145874
0.000191782
0.000249533
0.000321349
0.000409647
0.000516807
0.000645261
0.000797427
0.000975429
0.00118101
0.00141539
0.00167903
0.00197158
0.00229161
0.00263659
0.0030028
0.00338525
0.00377781
0.00417326
0.00456353
0.00493987
0.00529325
0.00561464
0.00589543
0.00612779
0.00630501
0.0064219
0.00647493
0.00646251
0.00638505
0.00624496
0.00604663
0.00579626
0.00550157
0.00517118
0.00481363
0.00443564
0.00403997
0.00362358
0.00317766
0.00269153
0.00216133
0.00160109
0.00104978
0.000566124
0.000207835
3.49204e-06
-6.46282e-05
-5.14206e-05
-1.72163e-05
2.83123e-06
5.28197e-06
1.61702e-06
-4.8629e-07
6.29668e-15
1.55939e-15
-1.4423e-14
-6.02744e-14
-1.67803e-13
-3.89581e-13
-8.00531e-13
-1.48456e-12
-2.48388e-12
-3.66966e-12
-4.46166e-12
-3.27512e-12
3.50526e-12
2.33533e-11
7.07768e-11
1.7275e-10
3.77936e-10
7.72226e-10
1.50476e-09
2.83103e-09
5.18322e-09
9.28318e-09
1.63204e-08
2.82269e-08
4.80947e-08
8.07975e-08
1.33902e-07
2.18984e-07
3.53495e-07
5.63376e-07
8.86648e-07
1.37827e-06
2.11658e-06
3.21173e-06
4.81645e-06
7.13959e-06
1.04628e-05
1.51604e-05
2.17232e-05
3.07849e-05
4.3152e-05
5.98348e-05
8.20796e-05
0.000111399
0.000149596
0.000198786
0.000261403
0.000340192
0.000438193
0.00055871
0.000705011
0.000880432
0.00108828
0.00133148
0.00161244
0.00193281
0.00229329
0.00269337
0.00313117
0.00360322
0.00410444
0.00462806
0.00516568
0.00570744
0.00624229
0.00675828
0.00724302
0.00768414
0.00806983
0.00838934
0.00863347
0.00879505
0.00886923
0.00885377
0.00874913
0.00855852
0.0082878
0.00794527
0.00754139
0.00708816
0.00659811
0.00608237
0.00554795
0.00499466
0.00441337
0.00378866
0.00310805
0.00237719
0.00163405
0.000950072
0.000409095
6.87393e-05
-7.29909e-05
-7.86924e-05
-3.42351e-05
-4.98963e-07
7.45187e-06
3.13924e-06
-4.58614e-07
1.26749e-15
-1.41661e-14
-4.60394e-14
-1.17319e-13
-2.58649e-13
-5.11673e-13
-9.17518e-13
-1.48031e-12
-2.07791e-12
-2.2706e-12
-9.22046e-13
4.51544e-12
1.93051e-11
5.37571e-11
1.2734e-10
2.75856e-10
5.63835e-10
1.1057e-09
2.10135e-09
3.89514e-09
7.07162e-09
1.26085e-08
2.21165e-08
3.82084e-08
6.50588e-08
1.09239e-07
1.8094e-07
2.95747e-07
4.77151e-07
7.60078e-07
1.19572e-06
1.85811e-06
2.85279e-06
4.32816e-06
6.49008e-06
9.62006e-06
1.40978e-05
2.04283e-05
2.92737e-05
4.14892e-05
5.81636e-05
8.06617e-05
0.000110667
0.000150225
0.000201773
0.000268174
0.000352718
0.000459124
0.000591506
0.000754333
0.000952046
0.00118917
0.0014702
0.00179909
0.00217913
0.00261258
0.00310042
0.00364197
0.00423471
0.00487399
0.00555295
0.00626243
0.00699109
0.0077256
0.00845098
0.00915104
0.009809
0.0104081
0.0109323
0.0113669
0.0116996
0.0119204
0.0120229
0.0120039
0.0118639
0.0116072
0.0112416
0.010778
0.0102305
0.00961515
0.00894956
0.00825057
0.00753121
0.00679634
0.00603888
0.00523988
0.0043769
0.00344247
0.00246667
0.00152886
0.000741273
0.000201448
-6.24198e-05
-0.000111902
-6.13543e-05
-8.63638e-06
9.45887e-06
5.52336e-06
-1.7414e-07
-6.13654e-15
-3.18918e-14
-7.64277e-14
-1.63216e-13
-3.15213e-13
-5.53293e-13
-8.71801e-13
-1.18036e-12
-1.17829e-12
-1.0147e-13
3.76622e-12
1.40094e-11
3.7767e-11
8.87882e-11
1.92897e-10
3.97631e-10
7.88984e-10
1.52001e-09
2.85882e-09
5.26775e-09
9.53143e-09
1.69606e-08
2.97113e-08
5.12757e-08
8.72269e-08
1.4633e-07
2.42175e-07
3.95538e-07
6.37738e-07
1.01534e-06
1.5966e-06
2.48025e-06
3.80705e-06
5.775e-06
8.65872e-06
1.28339e-05
1.88075e-05
2.72536e-05
3.90566e-05
5.53593e-05
7.76169e-05
0.000107654
0.000147723
0.000200559
0.000269427
0.000358158
0.00047116
0.000613414
0.000790433
0.0010082
0.00127269
0.00158997
0.00196608
0.00240634
0.00291517
0.00349565
0.00414909
0.00487465
0.00566896
0.00652585
0.00743612
0.00838756
0.00936498
0.0103505
0.0113241
0.0122641
0.0131478
0.0139529
0.0146578
0.0152428
0.0156912
0.0159898
0.0161296
0.0161064
0.015921
0.0155788
0.0150901
0.0144694
0.0137352
0.0129087
0.0120138
0.0110743
0.0101111
0.0091368
0.00814953
0.00712952
0.00604465
0.00487009
0.00361943
0.002371
0.00126329
0.000443518
-1.13186e-05
-0.000145932
-0.000101398
-2.48863e-05
1.02028e-05
8.96247e-06
6.12259e-07
-1.42704e-14
-4.77764e-14
-9.93688e-14
-1.89651e-13
-3.29816e-13
-5.14981e-13
-6.87425e-13
-6.56804e-13
6.48421e-14
2.59063e-12
9.29119e-12
2.49906e-11
5.91891e-11
1.30125e-10
2.72079e-10
5.48271e-10
1.07323e-09
2.0509e-09
3.83837e-09
7.05054e-09
1.27293e-08
2.26125e-08
3.95542e-08
6.81727e-08
1.15832e-07
1.9411e-07
3.20951e-07
5.23782e-07
8.4395e-07
1.34292e-06
2.11083e-06
3.27801e-06
5.03035e-06
7.62934e-06
1.14378e-05
1.6952e-05
2.4842e-05
3.59988e-05
5.15918e-05
7.31325e-05
0.000102546
0.000142248
0.00019522
0.000265086
0.00035617
0.00047355
0.000623071
0.000811337
0.00104566
0.00133397
0.0016842
0.00210445
0.00260271
0.00318608
0.00386044
0.00462991
0.00549627
0.00645844
0.00751202
0.00864883
0.00985674
0.0111196
0.0124172
0.013726
0.0150192
0.0162682
0.017443
0.0185137
0.0194517
0.0202308
0.0208288
0.021228
0.0214165
0.0213886
0.0211452
0.0206935
0.020047
0.0192247
0.0182506
0.0171527
0.015962
0.0147112
0.0134307
0.0121437
0.0108573
0.00955511
0.00819791
0.00674108
0.00517255
0.00355648
0.00204904
0.000852801
0.000114642
-0.000168964
-0.000155906
-5.36677e-05
7.63822e-06
1.34753e-05
2.26961e-06
-2.16717e-14
-5.94333e-14
-1.12359e-13
-1.95886e-13
-3.07645e-13
-4.14983e-13
-4.05165e-13
1.95676e-14
1.55694e-12
5.73194e-12
1.57265e-11
3.79582e-11
8.50253e-11
1.81098e-10
3.716e-10
7.40259e-10
1.43859e-09
2.73598e-09
5.10315e-09
9.34923e-09
1.68429e-08
2.98636e-08
5.21512e-08
8.97521e-08
1.52303e-07
2.54945e-07
4.21142e-07
6.8675e-07
1.10581e-06
1.75868e-06
2.76315e-06
4.28962e-06
6.58111e-06
9.97955e-06
1.49594e-05
2.217e-05
3.24878e-05
4.70791e-05
6.74743e-05
9.56526e-05
0.000134136
0.000186089
0.00025542
0.000346879
0.00046614
0.000619862
0.000815719
0.00106237
0.00136943
0.00174728
0.00220639
0.0027574
0.00341081
0.00417597
0.00506065
0.0060703
0.0072073
0.00847029
0.00985352
0.0113463
0.0129329
0.0145919
0.016297
0.0180172
0.0197174
0.02136
0.0229055
0.0243147
0.0255498
0.0265767
0.0273657
0.0278936
0.0281448
0.0281117
0.0277952
0.0272048
0.0263582
0.02528
0.0240014
0.0225585
0.0209916
0.0193433
0.0176558
0.0159653
0.0142919
0.0126284
0.0109334
0.00914318
0.00721221
0.00517409
0.00318639
0.00150484
0.000366293
-0.000158745
-0.000223107
-0.000100232
-1.61066e-06
1.86809e-05
5.3033e-06
-2.756e-14
-6.63347e-14
-1.16204e-13
-1.86e-13
-2.58898e-13
-2.72353e-13
-5.23828e-14
8.24205e-13
3.31188e-12
9.45843e-12
2.34987e-11
5.3936e-11
1.17422e-10
2.45837e-10
4.9897e-10
9.86776e-10
1.90776e-09
3.61401e-09
6.71952e-09
1.22778e-08
2.20681e-08
3.90505e-08
6.80769e-08
1.16986e-07
1.98265e-07
3.31523e-07
5.4714e-07
8.91529e-07
1.43464e-06
2.28044e-06
3.58141e-06
5.55805e-06
8.52498e-06
1.29249e-05
1.93721e-05
2.87075e-05
4.20664e-05
6.096e-05
8.73714e-05
0.000123866
0.000173715
0.000241021
0.000330858
0.000449388
0.00060398
0.000803282
0.00105726
0.00137717
0.00177548
0.00226571
0.00286149
0.00357666
0.00442488
0.00541836
0.00656723
0.00787861
0.00935567
0.0109967
0.0127943
0.0147347
0.0167973
0.0189546
0.0211723
0.0234101
0.0256226
0.0277605
0.0297729
0.0316084
0.0332181
0.0345572
0.0355873
0.0362782
0.0366091
0.0365702
0.0361626
0.0353986
0.0343009
0.0329016
0.0312407
0.0293647
0.0273249
0.0251761
0.022974
0.0207701
0.0186015
0.0164761
0.0143582
0.0121698
0.00982751
0.00731733
0.00477406
0.00249282
0.000814206
-7.81107e-05
-0.000294799
-0.000169785
-2.25933e-05
2.34579e-05
1.03314e-05
-3.18697e-14
-6.92291e-14
-1.1319e-13
-1.6473e-13
-1.91002e-13
-9.47869e-14
3.72207e-13
1.79096e-12
5.44649e-12
1.40666e-11
3.32561e-11
7.42185e-11