# vtk DataFile Version 3.0
Malha 2D com triângulos e temperatura
ASCII
DATASET UNSTRUCTURED_GRID

POINTS 10000 double
0 0 0
10 0 0
10 10 0
0 10 0
0.10101 0 0
0.20202 0 0
0.30303 0 0
0.40404 0 0
0.505051 0 0
0.606061 0 0
0.707071 0 0
0.808081 0 0
0.909091 0 0
1.0101 0 0
1.11111 0 0
1.21212 0 0
1.31313 0 0
1.41414 0 0
1.51515 0 0
1.61616 0 0
1.71717 0 0
1.81818 0 0
1.91919 0 0
2.0202 0 0
2.12121 0 0
2.22222 0 0
2.32323 0 0
2.42424 0 0
2.52525 0 0
2.62626 0 0
2.72727 0 0
2.82828 0 0
2.92929 0 0
3.0303 0 0
3.13131 0 0
3.23232 0 0
3.33333 0 0
3.43434 0 0
3.53535 0 0
3.63636 0 0
3.73737 0 0
3.83838 0 0
3.93939 0 0
4.0404 0 0
4.14141 0 0
4.24242 0 0
4.34343 0 0
4.44444 0 0
4.54545 0 0
4.64646 0 0
4.74747 0 0
4.84848 0 0
4.94949 0 0
5.05051 0 0
5.15152 0 0
5.25253 0 0
5.35354 0 0
5.45455 0 0
5.55556 0 0
5.65657 0 0
5.75758 0 0
5.85859 0 0
5.9596 0 0
6.06061 0 0
6.16162 0 0
6.26263 0 0
6.36364 0 0
6.46465 0 0
6.56566 0 0
6.66667 0 0
6.76768 0 0
6.86869 0 0
6.9697 0 0
7.07071 0 0
7.17172 0 0
7.27273 0 0
7.37374 0 0
7.47475 0 0
7.57576 0 0
7.67677 0 0
7.77778 0 0
7.87879 0 0
7.9798 0 0
8.08081 0 0
8.18182 0 0
8.28283 0 0
8.38384 0 0
8.48485 0 0
8.58586 0 0
8.68687 0 0
8.78788 0 0
8.88889 0 0
8.9899 0 0
9.09091 0 0
9.19192 0 0
9.29293 0 0
9.39394 0 0
9.49495 0 0
9.59596 0 0
9.69697 0 0
9.79798 0 0
9.89899 0 0
10 0.10101 0
10 0.20202 0
10 0.30303 0
10 0.40404 0
10 0.505051 0
10 0.606061 0
10 0.707071 0
10 0.808081 0
10 0.909091 0
10 1.0101 0
10 1.11111 0
10 1.21212 0
10 1.31313 0
10 1.41414 0
10 1.51515 0
10 1.61616 0
10 1.71717 0
10 1.81818 0
10 1.91919 0
10 2.0202 0
10 2.12121 0
10 2.22222 0
10 2.32323 0
10 2.42424 0
10 2.52525 0
10 2.62626 0
10 2.72727 0
10 2.82828 0
10 2.92929 0
10 3.0303 0
10 3.13131 0
10 3.23232 0
10 3.33333 0
10 3.43434 0
10 3.53535 0
10 3.63636 0
10 3.73737 0
10 3.83838 0
10 3.93939 0
10 4.0404 0
10 4.14141 0
10 4.24242 0
10 4.34343 0
10 4.44444 0
10 4.54545 0
10 4.64646 0
10 4.74747 0
10 4.84848 0
10 4.94949 0
10 5.05051 0
10 5.15152 0
10 5.25253 0
10 5.35354 0
10 5.45455 0
10 5.55556 0
10 5.65657 0
10 5.75758 0
10 5.85859 0
10 5.9596 0
10 6.06061 0
10 6.16162 0
10 6.26263 0
10 6.36364 0
10 6.46465 0
10 6.56566 0
10 6.66667 0
10 6.76768 0
10 6.86869 0
10 6.9697 0
10 7.07071 0
10 7.17172 0
10 7.27273 0
10 7.37374 0
10 7.47475 0
10 7.57576 0
10 7.67677 0
10 7.77778 0
10 7.87879 0
10 7.9798 0
10 8.08081 0
10 8.18182 0
10 8.28283 0
10 8.38384 0
10 8.48485 0
10 8.58586 0
10 8.68687 0
10 8.78788 0
10 8.88889 0
10 8.9899 0
10 9.09091 0
10 9.19192 0
10 9.29293 0
10 9.39394 0
10 9.49495 0
10 9.59596 0
10 9.69697 0
10 9.79798 0
10 9.89899 0
9.89899 10 0
9.79798 10 0
9.69697 10 0
9.59596 10 0
9.49495 10 0
9.39394 10 0
9.29293 10 0
9.19192 10 0
9.09091 10 0
8.9899 10 0
8.88889 10 0
8.78788 10 0
8.68687 10 0
8.58586 10 0
8.48485 10 0
8.38384 10 0
8.28283 10 0
8.18182 10 0
8.08081 10 0
7.9798 10 0
7.87879 10 0
7.77778 10 0
7.67677 10 0
7.57576 10 0
7.47475 10 0
7.37374 10 0
7.27273 10 0
7.17172 10 0
7.07071 10 0
6.9697 10 0
6.86869 10 0
6.76768 10 0
6.66667 10 0
6.56566 10 0
6.46465 10 0
6.36364 10 0
6.26263 10 0
6.16162 10 0
6.06061 10 0
5.9596 10 0
5.85859 10 0
5.75758 10 0
5.65657 10 0
5.55556 10 0
5.45455 10 0
5.35354 10 0
5.25253 10 0
5.15152 10 0
5.05051 10 0
4.94949 10 0
4.84848 10 0
4.74747 10 0
4.64646 10 0
4.54545 10 0
4.44444 10 0
4.34343 10 0
4.24242 10 0
4.14141 10 0
4.0404 10 0
3.93939 10 0
3.83838 10 0
3.73737 10 0
3.63636 10 0
3.53535 10 0
3.43434 10 0
3.33333 10 0
3.23232 10 0
3.13131 10 0
3.0303 10 0
2.92929 10 0
2.82828 10 0
2.72727 10 0
2.62626 10 0
2.52525 10 0
2.42424 10 0
2.32323 10 0
2.22222 10 0
2.12121 10 0
2.0202 10 0
1.91919 10 0
1.81818 10 0
1.71717 10 0
1.61616 10 0
1.51515 10 0
1.41414 10 0
1.31313 10 0
1.21212 10 0
1.11111 10 0
1.0101 10 0
0.909091 10 0
0.808081 10 0
0.707071 10 0
0.606061 10 0
0.505051 10 0
0.40404 10 0
0.30303 10 0
0.20202 10 0
0.10101 10 0
0 9.89899 0
0 9.79798 0
0 9.69697 0
0 9.59596 0
0 9.49495 0
0 9.39394 0
0 9.29293 0
0 9.19192 0
0 9.09091 0
0 8.9899 0
0 8.88889 0
0 8.78788 0
0 8.68687 0
0 8.58586 0
0 8.48485 0
0 8.38384 0
0 8.28283 0
0 8.18182 0
0 8.08081 0
0 7.9798 0
0 7.87879 0
0 7.77778 0
0 7.67677 0
0 7.57576 0
0 7.47475 0
0 7.37374 0
0 7.27273 0
0 7.17172 0
0 7.07071 0
0 6.9697 0
0 6.86869 0
0 6.76768 0
0 6.66667 0
0 6.56566 0
0 6.46465 0
0 6.36364 0
0 6.26263 0
0 6.16162 0
0 6.06061 0
0 5.9596 0
0 5.85859 0
0 5.75758 0
0 5.65657 0
0 5.55556 0
0 5.45455 0
0 5.35354 0
0 5.25253 0
0 5.15152 0
0 5.05051 0
0 4.94949 0
0 4.84848 0
0 4.74747 0
0 4.64646 0
0 4.54545 0
0 4.44444 0
0 4.34343 0
0 4.24242 0
0 4.14141 0
0 4.0404 0
0 3.93939 0
0 3.83838 0
0 3.73737 0
0 3.63636 0
0 3.53535 0
0 3.43434 0
0 3.33333 0
0 3.23232 0
0 3.13131 0
0 3.0303 0
0 2.92929 0
0 2.82828 0
0 2.72727 0
0 2.62626 0
0 2.52525 0
0 2.42424 0
0 2.32323 0
0 2.22222 0
0 2.12121 0
0 2.0202 0
0 1.91919 0
0 1.81818 0
0 1.71717 0
0 1.61616 0
0 1.51515 0
0 1.41414 0
0 1.31313 0
0 1.21212 0
0 1.11111 0
0 1.0101 0
0 0.909091 0
0 0.808081 0
0 0.707071 0
0 0.606061 0
0 0.505051 0
0 0.40404 0
0 0.30303 0
0 0.20202 0
0 0.10101 0
0.10101 0.10101 0
0.10101 0.20202 0
0.10101 0.30303 0
0.10101 0.40404 0
0.10101 0.505051 0
0.10101 0.606061 0
0.10101 0.707071 0
0.10101 0.808081 0
0.10101 0.909091 0
0.10101 1.0101 0
0.10101 1.11111 0
0.10101 1.21212 0
0.10101 1.31313 0
0.10101 1.41414 0
0.10101 1.51515 0
0.10101 1.61616 0
0.10101 1.71717 0
0.10101 1.81818 0
0.10101 1.91919 0
0.10101 2.0202 0
0.10101 2.12121 0
0.10101 2.22222 0
0.10101 2.32323 0
0.10101 2.42424 0
0.10101 2.52525 0
0.10101 2.62626 0
0.10101 2.72727 0
0.10101 2.82828 0
0.10101 2.92929 0
0.10101 3.0303 0
0.10101 3.13131 0
0.10101 3.23232 0
0.10101 3.33333 0
0.10101 3.43434 0
0.10101 3.53535 0
0.10101 3.63636 0
0.10101 3.73737 0
0.10101 3.83838 0
0.10101 3.93939 0
0.10101 4.0404 0
0.10101 4.14141 0
0.10101 4.24242 0
0.10101 4.34343 0
0.10101 4.44444 0
0.10101 4.54545 0
0.10101 4.64646 0
0.10101 4.74747 0
0.10101 4.84848 0
0.10101 4.94949 0
0.10101 5.05051 0
0.10101 5.15152 0
0.10101 5.25253 0
0.10101 5.35354 0
0.10101 5.45455 0
0.10101 5.55556 0
0.10101 5.65657 0
0.10101 5.75758 0
0.10101 5.85859 0
0.10101 5.9596 0
0.10101 6.06061 0
0.10101 6.16162 0
0.10101 6.26263 0
0.10101 6.36364 0
0.10101 6.46465 0
0.10101 6.56566 0
0.10101 6.66667 0
0.10101 6.76768 0
0.10101 6.86869 0
0.10101 6.9697 0
0.10101 7.07071 0
0.10101 7.17172 0
0.10101 7.27273 0
0.10101 7.37374 0
0.10101 7.47475 0
0.10101 7.57576 0
0.10101 7.67677 0
0.10101 7.77778 0
0.10101 7.87879 0
0.10101 7.9798 0
0.10101 8.08081 0
0.10101 8.18182 0
0.10101 8.28283 0
0.10101 8.38384 0
0.10101 8.48485 0
0.10101 8.58586 0
0.10101 8.68687 0
0.10101 8.78788 0
0.10101 8.88889 0
0.10101 8.9899 0
0.10101 9.09091 0
0.10101 9.19192 0
0.10101 9.29293 0
0.10101 9.39394 0
0.10101 9.49495 0
0.10101 9.59596 0
0.10101 9.69697 0
0.10101 9.79798 0
0.10101 9.89899 0
0.20202 0.10101 0
0.20202 0.20202 0
0.20202 0.30303 0
0.20202 0.40404 0
0.20202 0.505051 0
0.20202 0.606061 0
0.20202 0.707071 0
0.20202 0.808081 0
0.20202 0.909091 0
0.20202 1.0101 0
0.20202 1.11111 0
0.20202 1.21212 0
0.20202 1.31313 0
0.20202 1.41414 0
0.20202 1.51515 0
0.20202 1.61616 0
0.20202 1.71717 0
0.20202 1.81818 0
0.20202 1.91919 0
0.20202 2.0202 0
0.20202 2.12121 0
0.20202 2.22222 0
0.20202 2.32323 0
0.20202 2.42424 0
0.20202 2.52525 0
0.20202 2.62626 0
0.20202 2.72727 0
0.20202 2.82828 0
0.20202 2.92929 0
0.20202 3.0303 0
0.20202 3.13131 0
0.20202 3.23232 0
0.20202 3.33333 0
0.20202 3.43434 0
0.20202 3.53535 0
0.20202 3.63636 0
0.20202 3.73737 0
0.20202 3.83838 0
0.20202 3.93939 0
0.20202 4.0404 0
0.20202 4.14141 0
0.20202 4.24242 0
0.20202 4.34343 0
0.20202 4.44444 0
0.20202 4.54545 0
0.20202 4.64646 0
0.20202 4.74747 0
0.20202 4.84848 0
0.20202 4.94949 0
0.20202 5.05051 0
0.20202 5.15152 0
0.20202 5.25253 0
0.20202 5.35354 0
0.20202 5.45455 0
0.20202 5.55556 0
0.20202 5.65657 0
0.20202 5.75758 0
0.20202 5.85859 0
0.20202 5.9596 0
0.20202 6.06061 0
0.20202 6.16162 0
0.20202 6.26263 0
0.20202 6.36364 0
0.20202 6.46465 0
0.20202 6.56566 0
0.20202 6.66667 0
0.20202 6.76768 0
0.20202 6.86869 0
0.20202 6.9697 0
0.20202 7.07071 0
0.20202 7.17172 0
0.20202 7.27273 0
0.20202 7.37374 0
0.20202 7.47475 0
0.20202 7.57576 0
0.20202 7.67677 0
0.20202 7.77778 0
0.20202 7.87879 0
0.20202 7.9798 0
0.20202 8.08081 0
0.20202 8.18182 0
0.20202 8.28283 0
0.20202 8.38384 0
0.20202 8.48485 0
0.20202 8.58586 0
0.20202 8.68687 0
0.20202 8.78788 0
0.20202 8.88889 0
0.20202 8.9899 0
0.20202 9.09091 0
0.20202 9.19192 0
0.20202 9.29293 0
0.20202 9.39394 0
0.20202 9.49495 0
0.20202 9.59596 0
0.20202 9.69697 0
0.20202 9.79798 0
0.20202 9.89899 0
0.30303 0.10101 0
0.30303 0.20202 0
0.30303 0.30303 0
0.30303 0.40404 0
0.30303 0.505051 0
0.30303 0.606061 0
0.30303 0.707071 0
0.30303 0.808081 0
0.30303 0.909091 0
0.30303 1.0101 0
0.30303 1.11111 0
0.30303 1.21212 0
0.30303 1.31313 0
0.30303 1.41414 0
0.30303 1.51515 0
0.30303 1.61616 0
0.30303 1.71717 0
0.30303 1.81818 0
0.30303 1.91919 0
0.30303 2.0202 0
0.30303 2.12121 0
0.30303 2.22222 0
0.30303 2.32323 0
0.30303 2.42424 0
0.30303 2.52525 0
0.30303 2.62626 0
0.30303 2.72727 0
0.30303 2.82828 0
0.30303 2.92929 0
0.30303 3.0303 0
0.30303 3.13131 0
0.30303 3.23232 0
0.30303 3.33333 0
0.30303 3.43434 0
0.30303 3.53535 0
0.30303 3.63636 0
0.30303 3.73737 0
0.30303 3.83838 0
0.30303 3.93939 0
0.30303 4.0404 0
0.30303 4.14141 0
0.30303 4.24242 0
0.30303 4.34343 0
0.30303 4.44444 0
0.30303 4.54545 0
0.30303 4.64646 0
0.30303 4.74747 0
0.30303 4.84848 0
0.30303 4.94949 0
0.30303 5.05051 0
0.30303 5.15152 0
0.30303 5.25253 0
0.30303 5.35354 0
0.30303 5.45455 0
0.30303 5.55556 0
0.30303 5.65657 0
0.30303 5.75758 0
0.30303 5.85859 0
0.30303 5.9596 0
0.30303 6.06061 0
0.30303 6.16162 0
0.30303 6.26263 0
0.30303 6.36364 0
0.30303 6.46465 0
0.30303 6.56566 0
0.30303 6.66667 0
0.30303 6.76768 0
0.30303 6.86869 0
0.30303 6.9697 0
0.30303 7.07071 0
0.30303 7.17172 0
0.30303 7.27273 0
0.30303 7.37374 0
0.30303 7.47475 0
0.30303 7.57576 0
0.30303 7.67677 0
0.30303 7.77778 0
0.30303 7.87879 0
0.30303 7.9798 0
0.30303 8.08081 0
[...]
CELL_DATA 9801
SCALARS Temperatura double 1
LOOKUP_TABLE default
6.45836e-10
1.10483e-09
9.9763e-10
-4.63594e-10
-4.21804e-09
-1.04396e-08
-1.71176e-08
-1.85267e-08
-4.83993e-09
3.52266e-08
1.07013e-07
1.97803e-07
2.63695e-07
2.23849e-07
-2.62669e-08
-5.72699e-07
-1.41163e-06
-2.36591e-06
-3.02676e-06
-2.76993e-06
-8.89164e-07
3.14399e-06
9.33969e-06
1.68735e-05
2.39343e-05
2.78632e-05
2.56366e-05
1.46333e-05
-6.49613e-06
-3.71148e-05
-7.42872e-05
-0.000113024
-0.00014708
-0.000170127
-0.000177025
-0.000164866
-0.000133546
-8.57558e-05
-2.6432e-05
3.81641e-05
0.000101506
0.000157773
0.000202563
0.000233269
0.000249112
0.000250916
0.000240707
0.000221246
0.000195597
0.000166766
0.00013743
0.000111974
8.97396e-05
7.07676e-05
5.48465e-05
4.17212e-05
3.10914e-05
2.26397e-05
1.60491e-05
1.10166e-05
7.26234e-06
4.53547e-06
2.61665e-06
1.31864e-06
4.85135e-07
-1.14238e-08
-2.72736e-07
-3.7781e-07
-3.86217e-07
-3.41262e-07
-2.72955e-07
-2.00747e-07
-1.35975e-07
-8.40299e-08
-4.62104e-08
-2.1274e-08
-6.66803e-09
5.5468e-10
3.12268e-09
3.20584e-09
2.29986e-09
1.27359e-09
5.11498e-10
8.81052e-11
-7.40475e-11
-9.10859e-11
-5.61955e-11
-2.07795e-11
-1.43337e-12
4.07622e-12
3.11716e-12
1.08466e-12
-9.67269e-15
-2.18045e-13
-1.06617e-13
-1.11957e-14
1.15558e-14
5.2803e-15
-2.42667e-16
9.02805e-10
-1.04306e-09
-5.0321e-09
-1.10817e-08
-1.63595e-08
-1.39422e-08
6.96108e-09
5.67602e-08
1.35431e-07
2.17629e-07
2.39194e-07
9.74393e-08
-3.19154e-07
-1.06144e-06
-2.01742e-06
-2.81277e-06
-2.77851e-06
-1.06082e-06
3.07758e-06
9.78691e-06
1.81156e-05
2.56698e-05
2.86979e-05
2.27712e-05
4.04966e-06
-2.91319e-05
-7.48317e-05
-0.000126773
-0.000174738
-0.000206197
-0.000208858
-0.000173521
-9.64389e-05
1.94688e-05
0.000164897
0.000325824
0.000486106
0.000630304
0.000746098
0.000825799
0.000866796
0.000871042
0.000843881
0.000792596
0.000725017
0.00064843
0.000568885
0.000490899
0.000417482
0.000350362
0.000290372
0.000237793
0.000192336
0.00015362
0.000121111
9.41926e-05
7.2213e-05
5.45167e-05
4.04728e-05
2.94932e-05
2.10445e-05
1.46537e-05
9.91004e-06
6.46365e-06
4.02143e-06
2.342e-06
1.22982e-06
5.29075e-07
1.17815e-07
-9.7507e-08
-1.86961e-07
-2.01481e-07
-1.76664e-07
-1.36067e-07
-9.4047e-08
-5.82174e-08
-3.15209e-08
-1.39511e-08
-3.91322e-09
7.69307e-10
2.18964e-09
1.99557e-09
1.27229e-09
5.93756e-10
1.62926e-10
-2.86884e-11
-6.99325e-11
-4.87879e-11
-1.94406e-11
-2.11372e-12
3.10744e-12
2.45303e-12
8.03281e-13
-4.29008e-14
-1.67216e-13
-6.69882e-14
-1.04301e-15
8.34841e-15
1.97741e-15
-3.05713e-09
-1.04897e-08
-1.70722e-08
-1.71291e-08
1.49123e-09
5.21862e-08
1.38584e-07
2.36139e-07
2.72963e-07
1.25455e-07
-3.49187e-07
-1.22546e-06
-2.37118e-06
-3.30341e-06
-3.1312e-06
-7.03056e-07
4.95338e-06
1.39194e-05
2.45902e-05
3.31566e-05
3.37921e-05
1.9862e-05
-1.38591e-05
-6.84337e-05
-0.000138354
-0.000210518
-0.000265366
-0.000280336
-0.000234945
-0.000116173
7.74857e-05
0.000334564
0.00063228
0.000940844
0.00122919
0.00147056
0.0016466
0.00174917
0.00177981
0.00174757
0.00166591
0.00154964
0.00141259
0.00126623
0.00111909
0.00097699
0.000843554
0.000720808
0.000609737
0.000510657
0.0004233
0.000346977
0.000281348
0.000225613
0.000178884
0.00014019
0.000108544
8.298e-05
6.25865e-05
4.65236e-05
3.40374e-05
2.44646e-05
1.7233e-05
1.18572e-05
7.93199e-06
5.12423e-06
3.16387e-06
1.83496e-06
9.67153e-07
4.2798e-07
1.16004e-07
-4.50234e-08
-1.11111e-07
-1.22164e-07
-1.05445e-07
-7.84732e-08
-5.14859e-08
-2.95152e-08
-1.41294e-08
-4.84623e-09
-2.14736e-10
1.42793e-09
1.50495e-09
1.00536e-09
4.77579e-10
1.31808e-10
-2.19585e-11
-5.34965e-11
-3.56555e-11
-1.28146e-11
-4.04917e-13
2.60213e-12
1.63463e-12
3.81e-13
-1.09853e-13
-1.12629e-13
-2.72276e-14
5.808e-15
4.73681e-15
-1.45372e-08
-1.97501e-08
-7.96777e-09
3.48672e-08
1.18863e-07
2.28507e-07
2.98066e-07
1.97408e-07
-2.44473e-07
-1.14989e-06
-2.42933e-06
-3.58656e-06
-3.60187e-06
-1.05546e-06
5.36057e-06
1.59179e-05
2.87278e-05
3.89017e-05
3.8651e-05
1.88797e-05
-2.76209e-05
-0.000101988
-0.000195444
-0.000287492
-0.000347544
-0.000340371
-0.000234387
-1.04965e-05
0.00033127
0.00076961
0.00126518
0.00176832
0.00222902
0.00260615
0.00287375
0.00302303
0.00306041
0.00300297
0.00287294
0.00269294
0.00248271
0.0022577
0.00202897
0.00180405
0.00158787
0.00138372
0.00119383
0.00101967
0.000862133
0.000721578
0.000597739
0.000490118
0.000397825
0.000319622
0.000254143
0.000199956
0.000155631
0.000119787
9.11342e-05
6.84924e-05
5.08091e-05
3.71632e-05
2.6763e-05
1.89398e-05
1.31375e-05
8.90047e-06
5.8603e-06
3.7231e-06
2.25714e-06
1.28185e-06
6.58124e-07
2.80072e-07
6.82489e-08
-3.5913e-08
-7.45651e-08
-7.70369e-08
-6.27571e-08
-4.36689e-08
-2.62554e-08
-1.32447e-08
-5.01867e-09
-7.23034e-10
9.2678e-10
1.13628e-09
7.83687e-10
3.71106e-10
9.76578e-11
-2.07119e-11
-4.15413e-11
-2.54102e-11
-7.73064e-12
7.16342e-13
2.06749e-12
9.94243e-13
1.14921e-13
-1.16576e-13
-6.27776e-14
-5.22474e-15
6.87874e-15
-1.99376e-08
1.19711e-08
8.25214e-08
1.9362e-07
2.98655e-07
2.80051e-07
-4.67504e-08
-8.62007e-07
-2.17696e-06
-3.59714e-06
-4.11788e-06
-2.14433e-06
4.0422e-06
1.52517e-05
2.99378e-05
4.2873e-05
4.4814e-05
2.40583e-05
-2.96699e-05
-0.000119519
-0.000235646
-0.000351647
-0.000425631
-0.000407074
-0.000248489
8.1145e-05
0.000585502
0.00123644
0.00197784
0.00273682
0.00343884
0.00402215
0.00444759
0.00470169
0.00479343
0.00474705
0.0045936
0.00436395
0.00408446
0.00377539
0.00345137
0.00312283
0.00279744
0.00248119
0.00217893
0.0018946
0.00163118
0.00139065
0.00117409
0.000981705
0.000812819
0.000666378
0.000541037
0.000434986
0.00034629
0.000272947
0.000212978
0.000164487
0.000125708
9.50349e-05
7.10388e-05
5.24726e-05
3.82674e-05
2.75227e-05
1.94916e-05
1.35639e-05
9.24811e-06
6.15354e-06
3.97329e-06
2.4691e-06
1.4578e-06
7.99952e-07
3.9041e-07
1.50684e-07
2.2955e-08
-3.45982e-08
-5.14217e-08
-4.74226e-08
-3.52461e-08
-2.21574e-08
-1.16286e-08
-4.67049e-09
-9.1044e-10
5.99626e-10
8.50363e-10
5.95863e-10
2.75761e-10
6.54464e-11
-2.07806e-11
-3.17769e-11
-1.71832e-11
-3.98884e-12
1.26366e-12
1.4958e-12
5.14803e-13
-2.42019e-14
-8.80542e-14
-2.56896e-14
5.71883e-15
2.43584e-08
1.3786e-07
2.61607e-07
3.28284e-07
1.65548e-07
-4.47379e-07
-1.64593e-06
-3.23385e-06
-4.39523e-06
-3.55156e-06
1.35756e-06
1.19209e-05
2.76203e-05
4.39604e-05
5.13351e-05
3.58967e-05
-1.65819e-05
-0.000113878
-0.000249105
-0.000394158
-0.000498398
-0.000495107
-0.000315674
9.17892e-05
0.000745166
0.00161855
0.00264398
0.00372465
0.00475561
0.00564518
0.00633091
0.00678598
0.00701606
0.0070496
0.00692584
0.00668466
0.00636028
0.00597912
0.00556057
0.00511908
0.00466614
0.00421161
0.00376423
0.00333167
0.00292033
0.00253521
0.00217986
0.00185648
0.00156606
0.00130857
0.00108288
0.000887451
0.000720365
0.000579134
0.000461121
0.000363614
0.000283944
0.00021956
0.000168097
0.000127403
9.55687e-05
7.09304e-05
5.20636e-05
3.77697e-05
2.70566e-05
1.91153e-05
1.32957e-05
9.08268e-06
6.0734e-06
3.95651e-06
2.49407e-06
1.50596e-06
8.57006e-07
4.46475e-07
1.99863e-07
6.25452e-08
-5.0121e-09
-3.08299e-08
-3.41122e-08
-2.73331e-08
-1.79241e-08
-9.69094e-09
-4.02056e-09
-8.81364e-10
4.04588e-10
6.35664e-10
4.42499e-10
1.95218e-10
3.82406e-11
-2.05096e-11
-2.35726e-11
-1.07772e-11
-1.47216e-12
1.35162e-12
9.55768e-13
1.97284e-13
-6.99963e-14
-4.94294e-14
-1.69222e-15
1.61712e-07
3.14958e-07
3.10458e-07
-3.46692e-08
-9.54602e-07
-2.48461e-06
-4.14125e-06
-4.61801e-06
-1.78118e-06
6.67722e-06
2.16988e-05
4.06203e-05
5.50869e-05
5.05888e-05
9.23633e-06
-8.33719e-05
-0.000228052
-0.000401745
-0.000551672
-0.000598388
-0.000449796
-2.39365e-05
0.000725869
0.00179217
0.00310824
0.00455943
0.00600779
0.0073218
0.00840175
0.00919348
0.00968839
0.00991262
0.00991116
0.00973312
0.00942203
0.00901189
0.00852786
0.00798899
0.00741103
0.00680827
0.00619424
0.00558152
0.00498146
0.00440374
0.00385621
0.00334487
0.00287395
0.002446
0.00206211
0.00172207
0.00142431
0.00116667
0.000946565
0.000760661
0.000605434
0.000477275
0.000372639
0.000288146
0.00022066
0.000167339
0.000125659
9.34228e-05
6.87525e-05
5.00688e-05
3.60653e-05
2.5678e-05
1.80531e-05
1.25153e-05
8.53768e-06
5.71464e-06
3.73765e-06
2.37472e-06
1.45304e-06
8.44946e-07
4.5667e-07
2.19689e-07
8.41751e-08
1.41848e-08
-1.58244e-08
-2.35142e-08
-2.05384e-08
-1.40123e-08
-7.73659e-09
-3.2517e-09
-7.33503e-10
2.96642e-10
4.75772e-10
3.20238e-10
1.30484e-10
1.75045e-11
-1.90778e-11
-1.66156e-11
-6.02738e-12
-3.32234e-15
1.13402e-12
5.11745e-13
2.46948e-14
-6.1002e-14
-1.64702e-14
3.34624e-07
2.55609e-07
-2.90528e-07
-1.50284e-06
-3.27764e-06
-4.79479e-06
-4.23833e-06
1.00322e-06
1.32306e-05
3.2256e-05
5.26196e-05
6.15293e-05
3.953e-05
-3.42253e-05
-0.000171611
-0.000362103
-0.000561088
-0.000686143
-0.000626342
-0.000265406
0.000486393
0.00166164
0.00321788
0.00504018
0.00696449
0.00881423
0.0104377
0.0117345
0.012664
0.0132376
0.0134995
0.0135064
0.0133122
0.0129602
0.0124821
0.0119016
0.0112383
0.0105103
0.00973589
0.008933
0.00811896
0.00730969
0.0065193
0.00575977
0.00504087
0.00437015
0.0037529
0.00319237
0.00268987
0.00224506
0.00185582
0.00151926
0.00123192
0.000989399
0.000787035
0.000620078
0.000483866
0.00037396
0.000286247
0.000217002
0.000162923
0.000121138
8.91912e-05
6.50221e-05
4.6926e-05
3.35155e-05
2.36781e-05
1.65344e-05
1.1399e-05
7.74528e-06
5.17373e-06
3.38514e-06
2.15803e-06
1.33013e-06
7.83474e-07
4.32838e-07
2.16809e-07
9.1233e-08
2.44661e-08
-5.96193e-09
-1.56697e-08
-1.50771e-08
-1.0655e-08
-5.95209e-09
-2.48965e-09
-5.4032e-10
2.38907e-10
3.55452e-10
2.24453e-10
8.08813e-11
3.40019e-12
-1.63892e-11
-1.0844e-11
-2.76666e-12
6.49483e-13
7.76185e-13
2.03918e-13
-3.85296e-14
-3.51824e-14
2.6759e-07
-5.64932e-07
-2.0305e-06
-3.9602e-06
-5.18119e-06
-3.38816e-06
4.41063e-06
2.02911e-05
4.25886e-05
6.26438e-05
6.29823e-05
1.94697e-05
-9.05017e-05
-0.000273852
-0.000505132
-0.000714046
-0.000785033
-0.000574188
5.74381e-05
0.00120276
0.00287378
0.00498674
0.00737459
0.00982368
0.0121221
0.014103
0.0156696
0.016797
0.0175148
0.0178815
0.0179608
0.0178066
0.0174592
0.0169467
0.0162911
0.0155125
0.0146321
0.013672
0.0126553
0.0116048
0.010542
0.0094869
0.00845736
0.00746865
0.00653334
0.00566116
0.00485898
0.00413095
0.0034787
0.00290172
0.00239718
0.00196125
0.00158935
0.00127566
0.0010141
0.000798467
0.000622665
0.000480917
0.000367876
0.000278705
0.00020912
0.000155399
0.000114366
8.33543e-05
6.01611e-05
4.29948e-05
3.04191e-05
2.12994e-05
1.47515e-05
1.00963e-05
6.81913e-06
4.5351e-06
2.96014e-06
1.88712e-06
1.16667e-06
6.92016e-07
3.87264e-07
1.98613e-07
8.78935e-08
2.79974e-08
-2.55004e-10
-1.02272e-08
-1.09017e-08
-7.92103e-09
-4.42842e-09
-1.80879e-09
-3.50204e-10
2.0513e-10
2.62837e-10
1.50686e-10
4.48718e-11
-4.75883e-12
-1.28146e-11
-6.31076e-12
-7.86493e-13
7.50191e-13
4.20958e-13
3.59814e-14
-4.80912e-14
-5.10881e-07
-2.50858e-06
-4.5063e-06
-5.36104e-06
-2.30071e-06
7.96471e-06
2.71625e-05
5.19983e-05
7.04865e-05
6.04884e-05
-6.4552e-06
-0.000153795
-0.000381855
-0.000647934
-0.000853405
-0.000847273
-0.000451512
0.000494908
0.0020858
0.00430936
0.00703764
0.0100502
0.0130845
0.0158959
0.018305
0.0202205
0.0216323
0.0225854
0.0231482
0.0233868
0.0233518
0.0230775
0.0225871
0.0218997
0.0210352
0.0200169
0.0188707
0.0176246
0.0163076
0.0149481
0.0135736
0.0122098
0.0108795
0.00960254
0.0083953
0.00727029
0.00623632
0.00529862
0.00445918
0.00371719
0.00306891
0.00250926
0.00203216
0.00163005
0.00129502
0.001019
0.000794139
0.000612963
0.000468579
0.000354763
0.000266009
0.000197538
0.000145279
0.000105814
7.63259e-05
5.45228e-05
3.85692e-05
2.70157e-05
1.87335e-05
1.28553e-05
8.72396e-06
5.84807e-06
3.86515e-06
2.51129e-06
1.59681e-06
9.86977e-07
5.87016e-07
3.30696e-07
1.7184e-07
7.81706e-08
2.70232e-08
2.44964e-09
-6.66371e-09
-7.82299e-09
-5.77694e-09
-3.18997e-09
-1.24384e-09
-1.90138e-10
1.79188e-10
1.89864e-10
9.51944e-11
2.05014e-11
-8.16586e-12
-8.95093e-12
-3.05813e-12
1.82954e-13
5.60415e-13
1.60369e-13
-4.04551e-14
-2.34079e-06
-4.96658e-06
-5.43112e-06
-1.24385e-06
1.11982e-05
3.32698e-05
6.01133e-05
7.65557e-05
5.59973e-05
-3.40836e-05
-0.000217631
-0.000487856
-0.000784019
-0.000978048
-0.000882145
-0.000282753
0.00100442
0.00307481
0.00589321
0.00928774
0.012985
0.0166746
0.0200797
0.0230092
0.0253759
0.0271825
0.0284863
0.0293614
0.0298724
0.0300632
0.0299597
0.0295773
0.0289302
0.0280362
0.0269188
0.0256066
0.0241321
0.0225306
0.0208386
0.0190927
0.0173283
0.0155783
0.0138726
0.0122367
0.0106913
0.00925245
0.00793125
0.00673416
0.00566348
0.00471793
0.00389255
0.00318065
0.00257424
0.00206356
0.0016384
0.0012884
0.00100347
0.000774063
0.00059137
0.000447454
0.000335301
0.000248837
0.000182886
0.000133115
9.59515e-05
6.84938e-05
4.84198e-05
3.38969e-05
2.34987e-05
1.61297e-05
1.09598e-05
7.36821e-06
4.89675e-06
3.21182e-06
2.07371e-06
1.31243e-06
8.08953e-07
4.80843e-07
2.71424e-07
1.41847e-07
6.53821e-08
2.34911e-08
3.22123e-09
-4.44221e-09
-5.60409e-09
-4.13946e-09
-2.22145e-09
-8.02626e-10
-7.11675e-11
1.53073e-10
1.31722e-10
5.49603e-11
5.61771e-12
-8.2532e-12
-5.4103e-12
-1.02647e-12
4.60639e-13
2.97059e-13
1.64428e-15
-4.79795e-06
-5.56486e-06
-4.55698e-07
1.37121e-05
3.81768e-05
6.67896e-05
8.15762e-05
5.18147e-05
-5.90033e-05
-0.000275674
-0.000585073
-0.000909322
-0.00109138
-0.000906097
-0.00010242
0.00153049
0.00409383
0.00753297
0.0116353
0.0160764
0.0204983
0.0245912
0.02815
0.0310898
0.0334226
0.0352147
0.036543
0.0374673
0.0380216
0.0382197
0.0380664
0.0375673
0.0367347
0.0355896
0.0341609
0.0324846
0.0306017
0.0285573
0.0263984
0.0241721
0.0219241
0.0196968
0.017528
0.0154501
0.0134894
0.0116657
0.00999284
0.00847863
0.00712563
0.00593185
0.00489078
0.00399367
0.00323014
0.00258767
0.00205322
0.00161359
0.00125597
0.000968253
0.000739288
0.000559045
0.000418678
0.000310532
0.000228095
0.000165921
0.000119524
8.52649e-05
6.0234e-05
4.21374e-05
2.91909e-05
2.00251e-05
1.36028e-05
9.1484e-06
6.0895e-06
4.00896e-06
2.60686e-06
1.67036e-06
1.0505e-06
6.44388e-07
3.81768e-07
2.15124e-07
1.12415e-07
5.19527e-08
1.88853e-08
2.9173e-09
-3.10164e-09
-4.01919e-09
-2.91133e-09
-1.48849e-09
-4.77052e-10
6.21744e-12
1.24442e-10
8.58709e-11
2.74397e-11
-2.01953e-12
-6.46601e-12
-2.65374e-12
-1.69858e-14
3.69923e-13
8.16003e-14
-6.05459e-06
-1.67078e-07
1.52168e-05
4.15614e-05
7.19673e-05
8.62611e-05
5.00712e-05
-7.71922e-05
-0.000322227
-0.000667656
-0.00102111
-0.00119874
-0.000938445
5.07042e-05
0.00201146
0.00505815
0.00912445
0.0139632
0.0192019
0.0244349
0.0293173
0.0336261
0.0372745
0.0402811
0.0427183
0.0446635
0.0461691
0.0472563
0.0479232
0.0481592
0.0479568
0.0473182
0.0462577
0.0448014
0.0429858
0.0408567
0.0384671
0.0358749
0.0331406
0.0303245
0.0274845
0.0246743
0.0219414
0.0193262
0.0168612
0.0145711
0.0124726
0.0105751
0.0088812
0.00738807
0.0060872
0.00496727
0.0040149
0.00321421
0.00254868
0.00200168
0.00155706
0.00119962
0.000915389
0.000691799
0.000517799
0.000383831
0.000281777
0.000204857
0.000147489
0.000105154
7.42401e-05
5.19025e-05
3.59312e-05
2.46312e-05
1.67198e-05
1.12383e-05
7.47928e-06
4.92738e-06
3.21172e-06
2.06889e-06
1.3143e-06
8.20314e-07
4.9992e-07
2.94542e-07
1.65155e-07
8.58708e-08
3.94407e-08
1.42066e-08
2.14812e-09
-2.29252e-09
-2.8825e-09
-2.00194e-09
-9.50929e-10
-2.50983e-10
4.76754e-11
9.43345e-11
5.10091e-11
1.02755e-11
-4.6372e-12
-4.06205e-12
-8.86453e-13
2.8336e-13
1.8238e-13
-2.77257e-06
1.56087e-05
4.31917e-05
7.55422e-05
9.10339e-05
5.22876e-05
-8.55169e-05
-0.000352553
-0.000730426
-0.00111662
-0.00130452
-0.000996798
0.000139674
0.00238646
0.00588141
0.0105578
0.016143
0.0222214
0.0283396
0.0341134
0.039297
0.0437967
0.0476344
0.050887
0.053631
0.05591
0.0577295
0.0590679
0.0598943
0.0601823
0.059918
0.0591037
0.0577574
0.0559127
0.053617
0.0509293
0.047918
0.044657
0.0412231
0.0376921
0.0341368
0.0306236
0.0272115
0.0239504
0.0208803
0.0180311
0.0154231
0.0130672
0.0109662
0.00911597
0.00750554
0.00612041
0.00494353
0.00395494
0.00313393
0.00245968
0.00191208
0.00147219
0.00112267
0.000847923
0.000634272
0.000469892
0.000344759
0.000250506
0.000180257
0.000128447
9.06365e-05
6.33307e-05
4.38172e-05
3.00184e-05
2.03627e-05
1.36769e-05
9.09588e-06
5.98953e-06
3.90455e-06
2.51887e-06
1.60653e-06
1.01106e-06
6.25624e-07
3.78261e-07
2.21196e-07
1.23059e-07
6.33686e-08
2.86853e-08
1.00383e-08
1.29768e-09
-1.77702e-09
-2.056e-09
-1.33615e-09
-5.70001e-10
-1.05335e-10
6.1782e-11
6.53213e-11
2.62157e-11
1.1039e-12
-4.30759e-12
-1.94696e-12
-3.45853e-14
2.62453e-13
8.96559e-06
4.32844e-05
7.72829e-05
9.58576e-05
5.90752e-05
-8.21114e-05
-0.00036315
-0.000768704
-0.00119201
-0.00140975
-0.00109292
0.000135178
0.00260253
0.00648325
0.0117249
0.018042
0.0249829
0.0320471
0.0388064
0.0449855
0.0504781
0.055306
0.0595497
0.063285
0.0665467
0.0693225
0.0715674
0.0732246
0.0742422
0.0745838
0.0742322
0.0731913
0.0714859
0.06916
0.0662755
0.0629082
0.0591449
0.0550787
0.0508053
0.0464188
0.0420089
0.0376576
0.0334369
0.0294079
0.0256192
0.0221071
0.0188956
0.0159975
0.0134155
0.0111439
0.00916856
0.00747121
0.00603032
0.00482102
0.00381756
0.00299418
0.002326
0.0017897
0.00136389
0.00102945
0.000769575
0.000569779
0.000417795
0.000303398
0.000218193
0.000155395
0.000109593
7.65362e-05
5.29262e-05
3.62392e-05
2.45684e-05
1.64912e-05
1.09599e-05
7.21166e-06
4.69825e-06
3.03021e-06
1.93425e-06
1.22097e-06
7.60812e-07
4.66332e-07
2.79385e-07
1.61859e-07
8.90915e-08
4.52218e-08
1.99964e-08
6.64671e-09
5.71474e-10
-1.41015e-09
-1.44485e-09
-8.55583e-10
-3.11414e-10
-2.09976e-11
5.7825e-11
4.01395e-11
1.03598e-11
-2.47697e-12
-2.7639e-12
-5.77141e-13
2.63343e-13
3.15754e-05
7.77253e-05
0.000100138
6.99994e-05
-6.66417e-05
-0.000352069
-0.000778461
-0.00124194
-0.00151055
-0.00122967
2.04371e-05
0.0026212
0.00679712
0.0125279
0.0195313
0.0273301
0.0353786
0.0432004
0.0504825
0.0570993
0.0630687
0.0684748
0.0733948
0.0778556
0.081827
0.0852376
0.0879996
0.0900288
0.0912583
0.0916437
0.0911669
0.0898358
0.0876847
0.0847719
0.0811765
0.0769946
0.0723344
0.067311
0.0620422
0.0566433
0.0512239
0.0458839
0.0407109
0.0357787
0.031146
0.0268561
0.0229376
0.0194051
0.016261
0.0134975
0.0110968
0.00903592
0.00728799
0.00582231
0.00460716
0.00361092
0.00280316
0.00215535
0.00164143
0.00123811
0.000924951
0.000684376
0.000501509
0.000363967
0.000261596
0.000186199
0.000131245
9.16077e-05
6.33153e-05
4.33305e-05
2.93607e-05
1.96974e-05
1.30829e-05
8.60291e-06
5.60053e-06
3.60957e-06
2.30304e-06
1.45434e-06
9.08331e-07
5.6014e-07
3.3985e-07
2.0153e-07
1.15464e-07
6.26925e-08
3.12029e-08
1.33364e-08
4.08422e-09
5.03571e-11
-1.11465e-09
-9.8774e-10
-5.16337e-10
-1.45984e-10
1.96275e-11
4.43632e-11
2.07842e-11
1.82256e-12
-2.76746e-12
-1.21692e-12
1.30684e-13
6.32396e-05
0.000104342
8.34899e-05
-4.04205e-05
-0.000319269
-0.000756832
-0.00125991
-0.00159789
-0.00139944
-0.000205422
0.00242401
0.0067778
0.0128878
0.0204955
0.0291121
0.038152
0.0470865
0.0555568
0.0634091
0.0706534
0.0773777
0.0836635
0.0895341
0.0949429
0.0997907
0.103954
0.107312
0.109756
0.111209
0.111619
0.110968
0.109273
0.10658
0.102963
0.0985224
0.0933773
0.0876602
0.081512
0.0750758
0.0684919
0.0618927
0.055399
0.0491164
0.0431335
0.0375201
0.0323279
0.0275901
0.0233234
0.0195297
0.0161983
0.0133073
0.0108279
0.00872688
0.00696671
0.0055087
0.00431441
0.00334688
0.0025716
0.00195706
0.00147517
0.0011013
0.000814315
0.000596338
0.000432511
0.000310667
0.000220992
0.000155678
0.0001086
7.50182e-05
5.13122e-05
3.47511e-05
2.33018e-05
1.54688e-05
1.01661e-05
6.614e-06
4.25972e-06
2.71584e-06
1.71403e-06
1.07064e-06
6.61453e-07
4.03516e-07
2.42183e-07
1.41993e-07
8.03017e-08
4.28645e-08
2.07873e-08
8.4708e-09
2.27733e-09
-2.6158e-10
-8.57102e-10
-6.46259e-10
-2.85279e-10
-4.91903e-11
3.18566e-11
2.83121e-11
8.01758e-12
-1.46829e-12
-1.7063e-12
-1.56138e-13
9.55595e-05
9.909e-05
-6.55129e-06
-0.000266891
-0.000702901
-0.00123949
-0.00165876
-0.00158456
-0.000526065
0.00201617
0.00640778
0.0127539
0.0208434
0.0301954
0.0401937
0.0502555
0.0599672
0.0691374
0.0777619
0.0859325
0.0937401
0.10121
0.108284
0.114837
0.120707
0.125729
0.12975
0.132646
0.134325
0.134733
0.133854
0.131713
0.128372