# vtk DataFile Version 3.0
Malha 2D com triângulos e temperatura
ASCII
DATASET UNSTRUCTURED_GRID

POINTS 2500 double
0 0 0
1 0 0
1 2 0
0 2 0
0.0204082 0 0
0.0408163 0 0
0.0612245 0 0
0.0816327 0 0
0.102041 0 0
0.122449 0 0
0.142857 0 0
0.163265 0 0
0.183673 0 0
0.204082 0 0
0.22449 0 0
0.244898 0 0
0.265306 0 0
0.285714 0 0
0.306122 0 0
0.326531 0 0
0.346939 0 0
0.367347 0 0
0.387755 0 0
0.408163 0 0
0.428571 0 0
0.44898 0 0
0.469388 0 0
0.489796 0 0
0.510204 0 0
0.530612 0 0
0.55102 0 0
0.571429 0 0
0.591837 0 0
0.612245 0 0
0.632653 0 0
0.653061 0 0
0.673469 0 0
0.693878 0 0
0.714286 0 0
0.734694 0 0
0.755102 0 0
0.77551 0 0
0.795918 0 0
0.816327 0 0
0.836735 0 0
0.857143 0 0
0.877551 0 0
0.897959 0 0
0.918367 0 0
0.938776 0 0
0.959184 0 0
0.979592 0 0
1 0.0408163 0
1 0.0816327 0
1 0.122449 0
1 0.163265 0
1 0.204082 0
1 0.244898 0
1 0.285714 0
1 0.326531 0
1 0.367347 0
1 0.408163 0
1 0.44898 0
1 0.489796 0
1 0.530612 0
1 0.571429 0
1 0.612245 0
1 0.653061 0
1 0.693878 0
1 0.734694 0
1 0.77551 0
1 0.816327 0
1 0.857143 0
1 0.897959 0
1 0.938776 0
1 0.979592 0
1 1.02041 0
1 1.06122 0
1 1.10204 0
1 1.14286 0
1 1.18367 0
1 1.22449 0
1 1.26531 0
1 1.30612 0
1 1.34694 0
1 1.38776 0
1 1.42857 0
1 1.46939 0
1 1.5102 0
1 1.55102 0
1 1.59184 0
1 1.63265 0
1 1.67347 0
1 1.71429 0
1 1.7551 0
1 1.79592 0
1 1.83673 0
1 1.87755 0
1 1.91837 0
1 1.95918 0
0.979592 2 0
0.959184 2 0
0.938776 2 0
0.918367 2 0
0.897959 2 0
0.877551 2 0
0.857143 2 0
0.836735 2 0
0.816327 2 0
0.795918 2 0
0.77551 2 0
0.755102 2 0
0.734694 2 0
0.714286 2 0
0.693878 2 0
0.673469 2 0
0.653061 2 0
0.632653 2 0
0.612245 2 0
0.591837 2 0
0.571429 2 0
0.55102 2 0
0.530612 2 0
0.510204 2 0
0.489796 2 0
0.469388 2 0
0.44898 2 0
0.428571 2 0
0.408163 2 0
0.387755 2 0
0.367347 2 0
0.346939 2 0
0.326531 2 0
0.306122 2 0
0.285714 2 0
0.265306 2 0
0.244898 2 0
0.22449 2 0
0.204082 2 0
0.183673 2 0
0.163265 2 0
0.142857 2 0
0.122449 2 0
0.102041 2 0
0.0816327 2 0
0.0612245 2 0
0.0408163 2 0
0.0204082 2 0
0 1.95918 0
0 1.91837 0
0 1.87755 0
0 1.83673 0
0 1.79592 0
0 1.7551 0
0 1.71429 0
0 1.67347 0
0 1.63265 0
0 1.59184 0
0 1.55102 0
0 1.5102 0
0 1.46939 0
0 1.42857 0
0 1.38776 0
0 1.34694 0
0 1.30612 0
0 1.26531 0
0 1.22449 0
0 1.18367 0
0 1.14286 0
0 1.10204 0
0 1.06122 0
0 1.02041 0
0 0.979592 0
0 0.938776 0
0 0.897959 0
0 0.857143 0
0 0.816327 0
0 0.77551 0
0 0.734694 0
0 0.693878 0
0 0.653061 0
0 0.612245 0
0 0.571429 0
0 0.530612 0
0 0.489796 0
0 0.44898 0
0 0.408163 0
0 0.367347 0
0 0.326531 0
0 0.285714 0
0 0.244898 0
0 0.204082 0
0 0.163265 0
0 0.122449 0
0 0.0816327 0
0 0.0408163 0
0.0204082 0.0408163 0
0.0204082 0.0816327 0
0.0204082 0.122449 0
0.0204082 0.163265 0
0.0204082 0.204082 0
0.0204082 0.244898 0
0.0204082 0.285714 0
0.0204082 0.326531 0
0.0204082 0.367347 0
0.0204082 0.408163 0
0.0204082 0.44898 0
0.0204082 0.489796 0
0.0204082 0.530612 0
0.0204082 0.571429 0
0.0204082 0.612245 0
0.0204082 0.653061 0
0.0204082 0.693878 0
0.0204082 0.734694 0
0.0204082 0.77551 0
0.0204082 0.816327 0
0.0204082 0.857143 0
0.0204082 0.897959 0
0.0204082 0.938776 0
0.0204082 0.979592 0
0.0204082 1.02041 0
0.0204082 1.06122 0
0.0204082 1.10204 0
0.0204082 1.14286 0
0.0204082 1.18367 0
0.0204082 1.22449 0
0.0204082 1.26531 0
0.0204082 1.30612 0
0.0204082 1.34694 0
0.0204082 1.38776 0
0.0204082 1.42857 0
0.0204082 1.46939 0
0.0204082 1.5102 0
0.0204082 1.55102 0
0.0204082 1.59184 0
0.0204082 1.63265 0
0.0204082 1.67347 0
0.0204082 1.71429 0
0.0204082 1.7551 0
0.0204082 1.79592 0
0.0204082 1.83673 0
0.0204082 1.87755 0
0.0204082 1.91837 0
0.0204082 1.95918 0
0.0408163 0.0408163 0
0.0408163 0.0816327 0
0.0408163 0.122449 0
0.0408163 0.163265 0
0.0408163 0.204082 0
0.0408163 0.244898 0
0.0408163 0.285714 0
0.0408163 0.326531 0
0.0408163 0.367347 0
0.0408163 0.408163 0
0.0408163 0.44898 0
0.0408163 0.489796 0
0.0408163 0.530612 0
0.0408163 0.571429 0
0.0408163 0.612245 0
0.0408163 0.653061 0
0.0408163 0.693878 0
0.0408163 0.734694 0
0.0408163 0.77551 0
0.0408163 0.816327 0
0.0408163 0.857143 0
0.0408163 0.897959 0
0.0408163 0.938776 0
0.0408163 0.979592 0
0.0408163 1.02041 0
0.0408163 1.06122 0
0.0408163 1.10204 0
0.0408163 1.14286 0
0.0408163 1.18367 0
0.0408163 1.22449 0
0.0408163 1.26531 0
0.0408163 1.30612 0
0.0408163 1.34694 0
0.0408163 1.38776 0
0.0408163 1.42857 0
0.0408163 1.46939 0
0.0408163 1.5102 0
0.0408163 1.55102 0
0.0408163 1.59184 0
0.0408163 1.63265 0
0.0408163 1.67347 0
0.0408163 1.71429 0
0.0408163 1.7551 0
0.0408163 1.79592 0
0.0408163 1.83673 0
0.0408163 1.87755 0
0.0408163 1.91837 0
0.0408163 1.95918 0
0.0612245 0.0408163 0
0.0612245 0.0816327 0
0.0612245 0.122449 0
0.0612245 0.163265 0
0.0612245 0.204082 0
0.0612245 0.244898 0
0.0612245 0.285714 0
0.0612245 0.326531 0
0.0612245 0.367347 0
0.0612245 0.408163 0
0.0612245 0.44898 0
0.0612245 0.489796 0
0.0612245 0.530612 0
0.0612245 0.571429 0
0.0612245 0.612245 0
0.0612245 0.653061 0
0.0612245 0.693878 0
0.0612245 0.734694 0
0.0612245 0.77551 0
0.0612245 0.816327 0
0.0612245 0.857143 0
0.0612245 0.897959 0
0.0612245 0.938776 0
0.0612245 0.979592 0
0.0612245 1.02041 0
0.0612245 1.06122 0
0.0612245 1.10204 0
0.0612245 1.14286 0
0.0612245 1.18367 0
0.0612245 1.22449 0
0.0612245 1.26531 0
0.0612245 1.30612 0
0.0612245 1.34694 0
0.0612245 1.38776 0
0.0612245 1.42857 0
0.0612245 1.46939 0
0.0612245 1.5102 0
0.0612245 1.55102 0
0.0612245 1.59184 0
0.0612245 1.63265 0
0.0612245 1.67347 0
0.0612245 1.71429 0
0.0612245 1.7551 0
0.0612245 1.79592 0
0.0612245 1.83673 0
0.0612245 1.87755 0
0.0612245 1.91837 0
0.0612245 1.95918 0
0.0816327 0.0408163 0
0.0816327 0.0816327 0
0.0816327 0.122449 0
0.0816327 0.163265 0
0.0816327 0.204082 0
0.0816327 0.244898 0
0.0816327 0.285714 0
0.0816327 0.326531 0
0.0816327 0.367347 0
0.0816327 0.408163 0
0.0816327 0.44898 0
0.0816327 0.489796 0
0.0816327 0.530612 0
0.0816327 0.571429 0
0.0816327 0.612245 0
0.0816327 0.653061 0
0.0816327 0.693878 0
0.0816327 0.734694 0
0.0816327 0.77551 0
0.0816327 0.816327 0
0.0816327 0.857143 0
0.0816327 0.897959 0
0.0816327 0.938776 0
0.0816327 0.979592 0
0.0816327 1.02041 0
0.0816327 1.06122 0
0.0816327 1.10204 0
0.0816327 1.14286 0
0.0816327 1.18367 0
0.0816327 1.22449 0
0.0816327 1.26531 0
0.0816327 1.30612 0
0.0816327 1.34694 0
0.0816327 1.38776 0
0.0816327 1.42857 0
0.0816327 1.46939 0
0.0816327 1.5102 0
0.0816327 1.55102 0
0.0816327 1.59184 0
0.0816327 1.63265 0
0.0816327 1.67347 0
0.0816327 1.71429 0
0.0816327 1.7551 0
0.0816327 1.79592 0
0.0816327 1.83673 0
0.0816327 1.87755 0
0.0816327 1.91837 0
0.0816327 1.95918 0
0.102041 0.0408163 0
0.102041 0.0816327 0
0.102041 0.122449 0
0.102041 0.163265 0
0.102041 0.204082 0
0.102041 0.244898 0
0.102041 0.285714 0
0.102041 0.326531 0
0.102041 0.367347 0
0.102041 0.408163 0
0.102041 0.44898 0
0.102041 0.489796 0
0.102041 0.530612 0
0.102041 0.571429 0
0.102041 0.612245 0
0.102041 0.653061 0
0.102041 0.693878 0
0.102041 0.734694 0
0.102041 0.77551 0
0.102041 0.816327 0
0.102041 0.857143 0
0.102041 0.897959 0
0.102041 0.938776 0
0.102041 0.979592 0
0.102041 1.02041 0
0.102041 1.06122 0
0.102041 1.10204 0
0.102041 1.14286 0
0.102041 1.18367 0
0.102041 1.22449 0
0.102041 1.26531 0
0.102041 1.30612 0
0.102041 1.34694 0
0.102041 1.38776 0
0.102041 1.42857 0
0.102041 1.46939 0
0.102041 1.5102 0
0.102041 1.55102 0
0.102041 1.59184 0
0.102041 1.63265 0
0.102041 1.67347 0
0.102041 1.71429 0
0.102041 1.7551 0
0.102041 1.79592 0
0.102041 1.83673 0
0.102041 1.87755 0
0.102041 1.91837 0
0.102041 1.95918 0
0.122449 0.0408163 0
0.122449 0.0816327 0
0.122449 0.122449 0
0.122449 0.163265 0
0.122449 0.204082 0
0.122449 0.244898 0
0.122449 0.285714 0
0.122449 0.326531 0
0.122449 0.367347 0
0.122449 0.408163 0
0.122449 0.44898 0
0.122449 0.489796 0
0.122449 0.530612 0
0.122449 0.571429 0
0.122449 0.612245 0
0.122449 0.653061 0
0.122449 0.693878 0
0.122449 0.734694 0
0.122449 0.77551 0
0.122449 0.816327 0
0.122449 0.857143 0
0.122449 0.897959 0
0.122449 0.938776 0
0.122449 0.979592 0
0.122449 1.02041 0
0.122449 1.06122 0
0.122449 1.10204 0
0.122449 1.14286 0
0.122449 1.18367 0
0.122449 1.22449 0
0.122449 1.26531 0
0.122449 1.30612 0
0.122449 1.34694 0
0.122449 1.38776 0
0.122449 1.42857 0
0.122449 1.46939 0
0.122449 1.5102 0
0.122449 1.55102 0
0.122449 1.59184 0
0.122449 1.63265 0
0.122449 1.67347 0
0.122449 1.71429 0
0.122449 1.7551 0
0.122449 1.79592 0
0.122449 1.83673 0
0.122449 1.87755 0
0.122449 1.91837 0
0.122449 1.95918 0
0.142857 0.0408163 0
0.142857 0.0816327 0
0.142857 0.122449 0
0.142857 0.163265 0
0.142857 0.204082 0
0.142857 0.244898 0
0.142857 0.285714 0
0.142857 0.326531 0
0.142857 0.367347 0
0.142857 0.408163 0
0.142857 0.44898 0
0.142857 0.489796 0
0.142857 0.530612 0
0.142857 0.571429 0
0.142857 0.612245 0
0.142857 0.653061 0
0.142857 0.693878 0
0.142857 0.734694 0
0.142857 0.77551 0
0.142857 0.816327 0
0.142857 0.857143 0
0.142857 0.897959 0
0.142857 0.938776 0
0.142857 0.979592 0
0.142857 1.02041 0
0.142857 1.06122 0
0.142857 1.10204 0
0.142857 1.14286 0
0.142857 1.18367 0
0.142857 1.22449 0
0.142857 1.26531 0
0.142857 1.30612 0
0.142857 1.34694 0
0.142857 1.38776 0
0.142857 1.42857 0
0.142857 1.46939 0
0.142857 1.5102 0
0.142857 1.55102 0
0.142857 1.59184 0
0.142857 1.63265 0
0.142857 1.67347 0
0.142857 1.71429 0
0.142857 1.7551 0
0.142857 1.79592 0
0.142857 1.83673 0
0.142857 1.87755 0
0.142857 1.91837 0
0.142857 1.95918 0
0.163265 0.0408163 0
0.163265 0.0816327 0
0.163265 0.122449 0
0.163265 0.163265 0
0.163265 0.204082 0
0.163265 0.244898 0
0.163265 0.285714 0
0.163265 0.326531 0
0.163265 0.367347 0
0.163265 0.408163 0
0.163265 0.44898 0
0.163265 0.489796 0
0.163265 0.530612 0
0.163265 0.571429 0
0.163265 0.612245 0
0.163265 0.653061 0
0.163265 0.693878 0
0.163265 0.734694 0
0.163265 0.77551 0
0.163265 0.816327 0
0.163265 0.857143 0
0.163265 0.897959 0
0.163265 0.938776 0
0.163265 0.979592 0
0.163265 1.02041 0
0.163265 1.06122 0
0.163265 1.10204 0
0.163265 1.14286 0
0.163265 1.18367 0
0.163265 1.22449 0
0.163265 1.26531 0
0.163265 1.30612 0
0.163265 1.34694 0
0.163265 1.38776 0
[...]
CELL_DATA 2401
SCALARS Temperatura double 1
LOOKUP_TABLE default
0.159009
0.155657
0.151109
0.1458
0.139956
0.133715
0.12717
0.120379
0.113381
0.106195
0.0988336
0.0913122
0.0839916
0.0776851
0.0719133
0.0663812
0.0608985
0.0553358
0.0495983
0.0436082
0.0372914
0.0305631
0.0233379
0.0158532
0.0110316
0.0158532
0.0233379
0.0305631
0.0372914
0.0436082
0.0495983
0.0553358
0.0608985
0.0663812
0.0719133
0.0776851
0.0839916
0.0913122
0.0988336
0.106195
0.113381
0.120379
0.12717
0.133715
0.139956
0.1458
0.151109
0.155657
0.159009
0.352866
0.345032
0.334995
0.323903
0.312309
0.300516
0.288679
0.276853
0.265016
0.253085
0.240932
0.228389
0.215303
0.201751
0.187777
0.173401
0.158625
0.143435
0.127795
0.111645
0.0948811
0.0773328
0.0587938
0.0398318
0.0277046
0.0398318
0.0587938
0.0773328
0.0948811
0.111645
0.127795
0.143435
0.158625
0.173401
0.187777
0.201751
0.215303
0.228389
0.240932
0.253085
0.265016
0.276853
0.288679
0.300516
0.312309
0.323903
0.334995
0.345032
0.352866
0.439167
0.427333
0.412775
0.39743
0.382225
0.367648
0.353934
0.341146
0.329224
0.318007
0.307251
0.296614
0.285389
0.272562
0.258173
0.242254
0.224831
0.205922
0.185533
0.163643
0.140186
0.115004
0.0878881
0.0598003
0.0417309
0.0598003
0.0878881
0.115004
0.140186
0.163643
0.185533
0.205922
0.224831
0.242254
0.258173
0.272562
0.285389
0.296614
0.307251
0.318007
0.329224
0.341146
0.353934
0.367648
0.382225
0.39743
0.412775
0.427333
0.439167
0.470577
0.454329
0.434776
0.414792
0.395731
0.378284
0.362764
0.349256
0.337693
0.327898
0.319606
0.312436
0.305517
0.297298
0.287385
0.275399
0.261003
0.243923
0.223947
0.200921
0.174713
0.145154
0.112081
0.0769025
0.0539771
0.0769025
0.112081
0.145154
0.174713
0.200921
0.223947
0.243923
0.261003
0.275399
0.287385
0.297298
0.305517
0.312436
0.319606
0.327898
0.337693
0.349256
0.362764
0.378284
0.395731
0.414792
0.434776
0.454329
0.470577
0.481405
0.46022
0.435027
0.409785
0.386305
0.365443
0.347538
0.332643
0.320653
0.311375
0.304553
0.29985
0.296521
0.293083
0.288769
0.282739
0.274144
0.262185
0.246169
0.225536
0.199859
0.168788
0.132116
0.0916665
0.0648334
0.0916665
0.132116
0.168788
0.199859
0.225536
0.246169
0.262185
0.274144
0.282739
0.288769
0.293083
0.296521
0.29985
0.304553
0.311375
0.320653
0.332643
0.347538
0.365443
0.386305
0.409785
0.435027
0.46022
0.481405
0.486012
0.459491
0.428219
0.397397
0.369295
0.344869
0.324397
0.307818
0.294921
0.285443
0.279112
0.275638
0.274482
0.274517
0.274879
0.274487
0.272098
0.266393
0.256081
0.239998
0.217171
0.186835
0.148549
0.104419
0.0745217
0.104419
0.148549
0.186835
0.217171
0.239998
0.256081
0.266393
0.272098
0.274487
0.274879
0.274517
0.274482
0.275638
0.279112
0.285443
0.294921
0.307818
0.324397
0.344869
0.369295
0.397397
0.428219
0.459491
0.486012
0.489006
0.456865
0.419262
0.382802
0.350209
0.32245
0.299643
0.281522
0.267704
0.257805
0.251495
0.248497
0.248446
0.250608
0.254228
0.258234
0.261227
0.261536
0.257331
0.246779
0.228205
0.200199
0.161868
0.115409
0.0831911
0.115409
0.161868
0.200199
0.228205
0.246779
0.257331
0.261536
0.261227
0.258234
0.254228
0.250608
0.248446
0.248497
0.251495
0.257805
0.267704
0.281522
0.299643
0.32245
0.350209
0.382802
0.419262
0.456865
0.489006
0.491621
0.453651
0.409581
0.367596
0.330839
0.300188
0.275492
0.256203
0.241706
0.231463
0.225062
0.222209
0.222658
0.225997
0.231665
0.238756
0.245929
0.251374
0.252887
0.248034
0.23438
0.209726
0.172521
0.124844
0.0909552
0.124844
0.172521
0.209726
0.23438
0.248034
0.252887
0.251374
0.245929
0.238756
0.231665
0.225997
0.222658
0.222209
0.225062
0.231463
0.241706
0.256203
0.275492
0.300188
0.330839
0.367596
0.409581
0.453651
0.491621
0.494157
0.450197
0.399606
0.352316
0.311835
0.278832
0.252774
0.232758
0.217905
0.207504
0.201051
0.198229
0.198869
0.2028
0.209656
0.218762
0.228963
0.238498
0.244975
0.245498
0.236916
0.216176
0.180918
0.13291
0.0979073
0.13291
0.180918
0.216176
0.236916
0.245498
0.244975
0.238498
0.228963
0.218762
0.209656
0.2028
0.198869
0.198229
0.201051
0.207504
0.217905
0.232758
0.252774
0.278832
0.311835
0.352316
0.399606
0.450197
0.494157
0.496687
0.446622
0.389519
0.337223
0.293527
0.258746
0.23186
0.21155
0.196648
0.186275
0.179847
0.177024
0.177695
0.181865
0.189338
0.19967
0.211951
0.22459
0.235174
0.240502
0.236814
0.220206
0.187427
0.139773
0.104128
0.139773
0.187427
0.220206
0.236814
0.240502
0.235174
0.22459
0.211951
0.19967
0.189338
0.181865
0.177695
0.177024
0.179847
0.186275
0.196648
0.21155
0.23186
0.258746
0.293527
0.337223
0.389519
0.446622
0.496687
0.499234
0.442988
0.37944
0.322499
0.276134
0.240151
0.212936
0.192708
0.17801
0.167811
0.161467
0.158632
0.159242
0.163433
0.171147
0.182149
0.195784
0.210692
0.22456
0.234033
0.234866
0.22237
0.19237
0.145584
0.10969
0.145584
0.19237
0.22237
0.234866
0.234033
0.22456
0.210692
0.195784
0.182149
0.171147
0.163433
0.159242
0.158632
0.161467
0.167811
0.17801
0.192708
0.212936
0.240151
0.276134
0.322499
0.37944
0.442988
0.499234
0.501813
0.439344
0.369469
0.308294
0.25982
0.223184
0.196079
0.176236
0.161919
0.15198
0.145745
0.142884
0.143375
0.147449
0.15516
0.166452
0.180906
0.197416
0.213846
0.226804
0.231693
0.223126
0.196029
0.150477
0.114656
0.150477
0.196029
0.223126
0.231693
0.226804
0.213846
0.197416
0.180906
0.166452
0.15516
0.147449
0.143375
0.142884
0.145745
0.15198
0.161919
0.176236
0.196079
0.223184
0.25982
0.308294
0.369469
0.439344
0.501813
0.504428
0.435734
0.359699
0.294736
0.244707
0.207916
0.181285
0.162042
0.148205
0.138549
0.132411
0.129499
0.129832
0.133708
0.141269
0.1526
0.167495
0.185097
0.203484
0.219318
0.227766
0.222848
0.198645
0.154571
0.119085
0.154571
0.198645
0.222848
0.227766
0.219318
0.203484
0.185097
0.167495
0.1526
0.141269
0.133708
0.129832
0.129499
0.132411
0.138549
0.148205
0.162042
0.181285
0.207916
0.244707
0.294736
0.359699
0.435734
0.504428
0.507088
0.432197
0.350218
0.281933
0.230878
0.194366
0.168485
0.149971
0.136637
0.127229
0.121139
0.11814
0.118294
0.121936
0.12927
0.140495
0.155577
0.173893
0.19375
0.211924
0.223441
0.221835
0.200421
0.157971
0.123028
0.157971
0.200421
0.221835
0.223441
0.211924
0.19375
0.173893
0.155577
0.140495
0.12927
0.121936
0.118294
0.11814
0.121139
0.127229
0.136637
0.149971
0.168485
0.194366
0.230878
0.281933
0.350218
0.432197
0.507088
0.509796
0.428772
0.341106
0.269975
0.218382
0.182505
0.157563
0.139827
0.126954
0.117711
0.11159
0.108458
0.108424
0.111832
0.118925
0.129975
0.145091
0.163855
0.184801
0.204856
0.218982
0.220326
0.20153
0.160772
0.126534
0.160772
0.20153
0.220326
0.218982
0.204856
0.184801
0.163855
0.145091
0.129975
0.118925
0.111832
0.108424
0.108458
0.11159
0.117711
0.126954
0.139827
0.157563
0.182505
0.218382
0.269975
0.341106
0.428772
0.509796
0.512557
0.425496
0.332442
0.258937
0.207237
0.17227
0.148373
0.131395
0.118887
0.109693
0.10344
0.100122
0.0998993
0.103107
0.10999
0.120862
0.135937
0.154972
0.176718
0.19827
0.214584
0.21851
0.202113
0.163052
0.129646
0.163052
0.202113
0.21851
0.214584
0.19827
0.176718
0.154972
0.135937
0.120862
0.10999
0.103107
0.0998993
0.100122
0.10344
0.109693
0.118887
0.131395
0.148373
0.17227
0.207237
0.258937
0.332442
0.425496
0.512557
0.515374
0.422404
0.324298
0.248874
0.197435
0.163569
0.140751
0.124457
0.112189
0.102906
0.0964069
0.0928426
0.0924396
0.0955038
0.102247
0.112984
0.127999
0.147199
0.16953
0.192264
0.210388
0.216533
0.202287
0.164884
0.132401
0.164884
0.202287
0.216533
0.210388
0.192264
0.16953
0.147199
0.127999
0.112984
0.102247
0.0955038
0.0924396
0.0928426
0.0964069
0.102906
0.112189
0.124457
0.140751
0.163569
0.197435
0.248874
0.324298
0.422404
0.515374
0.518251
0.419532
0.316744
0.239831
0.188945
0.156293
0.134527
0.11881
0.106643
0.0971283
0.0902649
0.0863903
0.0858188
0.0888145
0.0955133
0.106191
0.12117
0.140479
0.163241
0.186898
0.206496
0.214508
0.202149
0.166326
0.134835
0.166326
0.202149
0.214508
0.206496
0.186898
0.163241
0.140479
0.12117
0.106191
0.0955133
0.0888145
0.0858188
0.0863903
0.0902649
0.0971283
0.106643
0.11881
0.134527
0.156293
0.188945
0.239831
0.316744
0.419532
0.518251
0.52119
0.416913
0.309844
0.231836
0.18172
0.150323
0.129537
0.114275
0.102075
0.0922
0.0848581
0.0806039
0.0798759
0.0828893
0.0896536
0.100365
0.115357
0.134754
0.157838
0.182205
0.202977
0.212521
0.201774
0.167431
0.136978
0.167431
0.201774
0.212521
0.202977
0.182205
0.157838
0.134754
0.115357
0.100365
0.0896536
0.0828893
0.0798759
0.0806039
0.0848581
0.0922
0.102075
0.114275
0.129537
0.150323
0.18172
0.231836
0.309844
0.416913
0.52119
0.524195
0.414581
0.30366
0.224905
0.175701
0.145538
0.125631
0.110704
0.0983594
0.0880229
0.0801037
0.0753955
0.0745183
0.077641
0.0845846
0.095426
0.110489
0.129976
0.1533
0.178202
0.199879
0.210638
0.201224
0.168241
0.138858
0.168241
0.201224
0.210638
0.199879
0.178202
0.1533
0.129976
0.110489
0.095426
0.0845846
0.077641
0.0745183
0.0753955
0.0801037
0.0880229
0.0983594
0.110704
0.125631
0.145538
0.175701
0.224905
0.30366
0.414581
0.524195
0.527269
0.412568
0.29825
0.219048
0.170823
0.141821
0.122677
0.107981
0.0954174
0.0845605
0.0759935
0.0707525
0.0697221
0.0730446
0.0802735
0.091331
0.106518
0.126102
0.149608
0.174894
0.197232
0.208901
0.200545
0.168793
0.140499
0.168793
0.200545
0.208901
0.197232
0.174894
0.149608
0.126102
0.106518
0.091331
0.0802735
0.0730446
0.0697221
0.0707525
0.0759935
0.0845605
0.0954174
0.107981
0.122677
0.141821
0.170823
0.219048
0.29825
0.412568
0.527269
0.530416
0.410906
0.293666
0.214264
0.167018
0.139064
0.120565
0.106023
0.0932108
0.08183
0.0725909
0.0667417
0.0655316
0.0691362
0.076734
0.0880686
0.103418
0.123105
0.146742
0.172281
0.195055
0.207344
0.199772
0.169117
0.141924
0.169117
0.199772
0.207344
0.195055
0.172281
0.146742
0.123105
0.103418
0.0880686
0.076734
0.0691362
0.0655316
0.0667417
0.0725909
0.08183
0.0932108
0.106023
0.120565
0.139064
0.167018
0.214264
0.293666
0.410906
0.530416
0.53364
0.409626
0.289958
0.210548
0.16422
0.137171
0.119204
0.104773
0.0917334
0.0798894
0.0700235
0.0635188
0.0620635
0.0660099
0.0740187
0.0856529
0.10118
0.120966
0.144687
0.170355
0.193353
0.205981
0.198927
0.169236
0.143152
0.169236
0.198927
0.205981
0.193353
0.170355
0.144687
0.120966
0.10118
0.0856529
0.0740187
0.0660099
0.0620635
0.0635188
0.0700235
0.0798894
0.0917334
0.104773
0.119204
0.137171
0.16422
0.210548
0.289958
0.409626
0.53364
0.536944
0.408758
0.28717
0.207894
0.16237
0.136064
0.118525
0.104193
0.090999
0.0788204
0.0684668
0.0613445
0.0595323
0.0638204
0.0722103
0.0841158
0.0998058
0.119675
0.143427
0.169106
0.192121
0.204818
0.198024
0.169172
0.1442
0.169172
0.198024
0.204818
0.192121
0.169106
0.143427
0.119675
0.0998058
0.0841158
0.0722103
0.0638204
0.0595323
0.0613445
0.0684668
0.0788204
0.090999
0.104193
0.118525
0.136064
0.16237
0.207894
0.28717
0.408758
0.536944
0.540332
0.408333
0.285344
0.206294
0.16142
0.135678
0.118477
0.104264
0.091029
0.0787063
0.0681135
0.060593
0.0583404
0.0628059
0.071427
0.0835137
0.0993181
0.11923
0.142945
0.168503
0.191326
0.203828
0.197061
0.168947
0.145092
0.168947
0.197061
0.203828
0.191326
0.168503
0.142945
0.11923
0.0993181
0.0835137
0.071427
0.0628059
0.0583404
0.060593
0.0681135
0.0787063
0.091029
0.104264
0.118477
0.135678
0.16142
0.206294
0.285344
0.408333
0.540332
0.543809
0.408379
0.284514
0.205744
0.161333
0.135969
0.119024
0.10497
0.0918401
0.079609
0.0691243
0.0617062
0.0593067
0.0634105
0.0719261
0.084021
0.0998304
0.119669
0.14318
0.168377
0.19072
0.202772
0.195946
0.168678
0.145926
0.168678
0.195946
0.202772
0.19072
0.168377
0.14318
0.119669
0.0998304
0.084021
0.0719261
0.0634105
0.0593067
0.0617062
0.0691243
0.079609
0.0918401
0.10497
0.119024
0.135969
0.161333
0.205744
0.284514
0.408379
0.543809
0.54789
0.409345
0.284658
0.205994
0.16186
0.136784
0.120111
0.106313
0.0934324
0.0814672
0.0712897
0.0641918
0.061843
0.0654695
0.0736688
0.0856202
0.10132
0.120962
0.144095
0.168693
0.190278
0.201647
0.194693
0.168367
0.146706
0.168367
0.194693
0.201647
0.190278
0.168693
0.144095
0.120962
0.10132
0.0856202
0.0736688
0.0654695
0.061843
0.0641918
0.0712897
0.0814672
0.0934324
0.106313
0.120111
0.136784
0.16186
0.205994
0.284658
0.409345
0.54789
0.552657
0.411303
0.285782
0.207017
0.162969
0.138094
0.12172
0.10828
0.0957893
0.0842384
0.0744996
0.0678105
0.0655888
0.068796
0.0765859
0.0882756
0.103752
0.123061
0.145635
0.1694
0.189968
0.200447
0.193313
0.168014
0.147434
0.168014
0.193313
0.200447
0.189968
0.1694
0.145635
0.123061
0.103752
0.0882756
0.0765859
0.068796
0.0655888
0.0678105
0.0744996
0.0842384
0.0957893
0.10828
0.12172
0.138094
0.162969
0.207017
0.285782
0.411303
0.552657
0.558158
0.414295
0.287912
0.208821
0.164654
0.139887
0.12383
0.110844
0.0988738
0.0878645
0.0786572
0.0724128
0.070345
0.073228
0.0805915
0.0919335
0.107072
0.125905
0.147733
0.170437
0.189752
0.199167
0.191818
0.167619
0.148113
0.167619
0.191818
0.199167
0.189752
0.170437
0.147733
0.125905
0.107072
0.0919335
0.0805915
0.073228
0.070345
0.0724128
0.0786572
0.0878645
0.0988738
0.110844
0.12383
0.139887
0.164654
0.208821
0.287912
0.414295
0.558158
0.564439
0.418374
0.29109
0.211438
0.166927
0.142154
0.126415
0.113965
0.10263
0.0922721
0.0836678
0.0778896
0.0759929
0.0786352
0.0855905
0.0965214
0.111209
0.129413
0.150305
0.171732
0.189586
0.197797
0.19022
0.167184
0.148745
0.167184
0.19022
0.197797
0.189586
0.171732
0.150305
0.129413
0.111209
0.0965214
0.0855905
0.0786352
0.0759929
0.0778896
0.0836678
0.0922721
0.10263
0.113965
0.126415
0.142154
0.166927
0.211438
0.29109
0.418374
0.564439
0.571553
0.423606
0.295379
0.214915
0.169814
0.14489
0.129443
0.117588
0.106987
0.0973746
0.0894357
0.0841471
0.0824415
0.0849061
0.0914787
0.101946
0.116069
0.133487
0.153253
0.173203
0.18942
0.19633
0.188529
0.166708
0.14933
0.166708
0.188529
0.19633
0.18942
0.173203
0.153253
0.133487
0.116069
0.101946
0.0914787
0.0849061
0.0824415
0.0841471
0.0894357
0.0973746
0.106987
0.117588
0.129443
0.14489
0.169814
0.214915
0.295379
0.423606
0.571553
0.579559
0.430068
0.300866
0.219329
0.173359
0.148098
0.132879
0.121648
0.111857
0.103072
0.0958574
0.0910882
0.0895981
0.09193
0.0981385
0.108092
0.121535
0.138008
0.156468
0.174762
0.189207
0.194757
0.186756
0.166191
0.14987
0.166191
0.186756
0.194757
0.189207
0.174762
0.156468
0.138008
0.121535
0.108092
0.0981385
0.09193
0.0895981
0.0910882
0.0958574
0.103072
0.111857
0.121648
0.132879
0.148098
0.173359
0.219329
0.300866
0.430068
0.579559
0.588519
0.437859
0.307666
0.224787
0.177633
0.151799
0.136691
0.126072
0.11714
0.10925
0.102814
0.098599
0.0973513
0.0995817
0.105432
0.114817
0.127466
0.14284
0.159826
0.176317
0.188896
0.193069
0.18491
0.165634
0.150364
0.165634
0.18491
0.193069
0.188896
0.176317
0.159826
0.14284
0.127466
0.114817
0.105432
0.0995817
0.0973513
0.098599
0.102814
0.10925
0.11714
0.126072
0.136691
0.151799
0.177633
0.224787
0.307666
0.437859
0.588519
0.598506
0.447095
0.315928
0.231435
0.18274
0.156033
0.140856
0.130784
0.122724
0.115774
0.110164
0.106539
0.105561
0.10771
0.113196
0.121955
0.133699
0.147829
0.163198
0.177775
0.188439
0.19126
0.183001
0.165037
0.150811
0.165037
0.183001
0.19126
0.188439
0.177775
0.163198
0.147829
0.133699
0.121955
0.113196
0.10771
0.105561
0.106539
0.110164
0.115774
0.122724
0.130784
0.140856
0.156033
0.18274
0.231435
0.315928
0.447095
0.598506
0.609601
0.457914
0.325838
0.239468
0.188837
0.160883
0.145371
0.13571
0.128486
0.122492
0.117742
0.114738
0.114052
0.116133
0.121238
0.129311
0.140047
0.152809
0.166446
0.179041
0.187791
0.189323
0.181035
0.164397
0.15121
0.164397
0.181035
0.189323
0.187791
0.179041
0.166446
0.152809
0.140047
0.129311
0.121238
0.116133
0.114052
0.114738
0.117742
0.122492
0.128486
0.13571
0.145371
0.160883
0.188837
0.239468
0.325838
0.457914
0.609601
0.621892
0.470484
0.337635
0.249148
0.196147
0.166488
0.150274
0.140795
0.134301
0.129239
0.125358
0.122994
0.122617
0.124634
0.129338
0.136669
0.146308
0.157606
0.169436
0.180028
0.186912
0.187253
0.179021
0.163714
0.151559
0.163714
0.179021
0.187253
0.186912
0.180028
0.169436
0.157606
0.146308
0.136669
0.129338
0.124634
0.122617
0.122994
0.125358
0.129239
0.134301
0.140795
0.150274
0.166488
0.196147
0.249148
0.337635
0.470484
0.621892
0.635482
0.485001
0.35161
0.260818
0.204991
0.173077
0.155671
0.146025
0.140062
0.135842
0.132805
0.13108
0.131016
0.132971
0.137252
0.143794
0.15227
0.162039
0.172034
0.180653
0.185769
0.185049
0.176963
0.162985
0.151853
0.162985
0.176963
0.185049
0.185769
0.180653
0.172034
0.162039
0.15227
0.143794
0.137252
0.132971
0.131016
0.13108
0.132805
0.135842
0.140062
0.146025
0.155671
0.173077
0.204991
0.260818
0.35161
0.485001
0.635482
0.650484
0.501694
0.368128
0.274927
0.215816
0.181011
0.16178
0.151462
0.145699
0.142142
0.139866
0.138751
0.138993
0.140881
0.144722
0.150441
0.157718
0.165937
0.174116
0.180846
0.184332
0.182707
0.174865
0.162207
0.152088
0.162207
0.174865
0.182707
0.184332
0.180846
0.174116
0.165937
0.157718
0.150441
0.144722
0.140881
0.138993
0.138751
0.139866
0.142142
0.145699
0.151462
0.16178
0.181011
0.215816
0.274927
0.368128
0.501694
0.650484
0.667023
0.520835
0.387635
0.292058
0.229249
0.190848
0.169001
0.157313
0.151238
0.148028
0.146347
0.145763
0.146281
0.148094
0.151483
0.156369
0.162443
0.169137
0.175573
0.180546
0.182582
0.180229
0.172729
0.161374
0.152257
0.161374
0.172729
0.180229
0.182582
0.180546
0.175573
0.169137
0.162443
0.156369
0.151483
0.148094
0.146281
0.145763
0.146347
0.148028
0.151238
0.157313
0.169001
0.190848
0.229249
0.292058
0.387635
0.520835
0.667023
0.685244
0.542736
0.410672
0.312961
0.246152
0.203429
0.178025
0.164037
0.156894
0.15351
0.152116
0.151907
0.152636
0.154354
0.157289
0.161352
0.166257
0.171497
0.176315
0.179708
0.180506
0.177616
0.170554
0.160481
0.152351
0.160481
0.170554
0.177616
0.180506
0.179708
0.176315
0.171497
0.166257
0.161352
0.157289
0.154354
0.152636
0.151907
0.152116
0.15351
0.156894
0.164037
0.178025
0.203429
0.246152
0.312961
0.410672
0.542736
0.685244
0.705308
0.567761
0.437894
0.338591
0.267704
0.220001
0.189993
0.172527
0.163245
0.158864
0.157217
0.157079
0.157878
0.159458
0.161933
0.165203
0.169007
0.172908
0.176276
0.178306
0.178101
0.174869
0.168338
0.159517
0.152359
0.159517
0.168338
0.174869
0.178101
0.178306
0.176276
0.172908
0.169007
0.165203
0.161933
0.159458
0.157878
0.157079
0.157217
0.158864
0.163245
0.172527
0.189993
0.220001
0.267704
0.338591
0.437894
0.567761
0.705308
0.727398
0.596326
0.47008
0.37015
0.295484
0.242379
0.206737
0.184413
0.171557
0.164936
0.162116
0.161467
0.162032
0.16335
0.165327
0.167829
0.170618
0.173324
0.175441
0.176349
0.175385
0.172005
0.166087
0.158484
0.152277
0.158484
0.166087
0.172005
0.175385
0.176349
0.175441
0.173324
0.170618
0.167829
0.165327
0.16335
0.162032
0.161467
0.162116
0.164936
0.171557
0.184413
0.206737
0.242379
0.295484
0.37015
0.47008
0.596326
0.727398
0.751724
0.628905
0.508144
0.409117
0.331573
0.273141
0.23111
0.202523
0.184349
0.173742
0.168268
0.166033
0.165709
0.166433
0.167741
0.169424
0.171244
0.172885
0.173947
0.173967
0.172476
0.169121
0.163881
0.157449
0.152168
0.157449
0.163881
0.169121
0.172476
0.173967
0.173947
0.172885
0.171244
0.169424
0.167741
0.166433
0.165709
0.166033
0.168268
0.173742
0.184349
0.202523
0.23111
0.273141
0.331573
0.409117
0.508144
0.628905
0.751724
0.778535
0.666039
0.55314
0.457273
0.378621
0.315825
0.267379
0.231533
0.206303
0.189584
0.179326
0.17369
0.171164
0.170479
0.170586
0.171139
0.17185
0.17242
0.17252
0.171804
0.169946
0.166728
0.162182
0.15685
0.152457
0.15685
0.162182
0.166728
0.169946
0.171804
0.17252
0.17242
0.17185
0.171139
0.170586
0.170479
0.171164
0.17369
0.179326
0.189584
0.206303
0.231533
0.267379
0.315825
0.378621
0.457273
0.55314
0.666039
0.778535
0.80814
0.70835
0.60626
0.51668
0.439865
0.375054
0.321586
0.278714
0.245503
0.22081
0.20335
0.191784
0.18483
0.181039
0.178662
0.177152
0.176111
0.1752
0.174104
0.172535
0.170254
0.167113
0.163158
0.158782
0.155209
0.158782
0.163158
0.167113
0.170254
0.172535
0.174104
0.1752
0.176111
0.177152
0.178662
0.181039
0.18483
0.191784
0.20335
0.22081
0.245503
0.278714
0.321586
0.375054
0.439865
0.51668
0.60626
0.70835
0.80814
0.840948
0.756579
0.668838
0.589625
0.519003