# vtk DataFile Version 3.0
Malha 2D com triângulos e temperatura
ASCII
DATASET UNSTRUCTURED_GRID

POINTS 10000 double
0 0 0
10 0 0
10 10 0
0 10 0
0.10101 0 0
0.20202 0 0
0.30303 0 0
0.40404 0 0
0.505051 0 0
0.606061 0 0
0.707071 0 0
0.808081 0 0
0.909091 0 0
1.0101 0 0
1.11111 0 0
1.21212 0 0
1.31313 0 0
1.41414 0 0
1.51515 0 0
1.61616 0 0
1.71717 0 0
1.81818 0 0
1.91919 0 0
2.0202 0 0
2.12121 0 0
2.22222 0 0
2.32323 0 0
2.42424 0 0
2.52525 0 0
2.62626 0 0
2.72727 0 0
2.82828 0 0
2.92929 0 0
3.0303 0 0
3.13131 0 0
3.23232 0 0
3.33333 0 0
3.43434 0 0
3.53535 0 0
3.63636 0 0
3.73737 0 0
3.83838 0 0
3.93939 0 0
4.0404 0 0
4.14141 0 0
4.24242 0 0
4.34343 0 0
4.44444 0 0
4.54545 0 0
4.64646 0 0
4.74747 0 0
4.84848 0 0
4.94949 0 0
5.05051 0 0
5.15152 0 0
5.25253 0 0
5.35354 0 0
5.45455 0 0
5.55556 0 0
5.65657 0 0
5.75758 0 0
5.85859 0 0
5.9596 0 0
6.06061 0 0
6.16162 0 0
6.26263 0 0
6.36364 0 0
6.46465 0 0
6.56566 0 0
6.66667 0 0
6.76768 0 0
6.86869 0 0
6.9697 0 0
7.07071 0 0
7.17172 0 0
7.27273 0 0
7.37374 0 0
7.47475 0 0
7.57576 0 0
7.67677 0 0
7.77778 0 0
7.87879 0 0
7.9798 0 0
8.08081 0 0
8.18182 0 0
8.28283 0 0
8.38384 0 0
8.48485 0 0
8.58586 0 0
8.68687 0 0
8.78788 0 0
8.88889 0 0
8.9899 0 0
9.09091 0 0
9.19192 0 0
9.29293 0 0
9.39394 0 0
9.49495 0 0
9.59596 0 0
9.69697 0 0
9.79798 0 0
9.89899 0 0
10 0.10101 0
10 0.20202 0
10 0.30303 0
10 0.40404 0
10 0.505051 0
10 0.606061 0
10 0.707071 0
10 0.808081 0
10 0.909091 0
10 1.0101 0
10 1.11111 0
10 1.21212 0
10 1.31313 0
10 1.41414 0
10 1.51515 0
10 1.61616 0
10 1.71717 0
10 1.81818 0
10 1.91919 0
10 2.0202 0
10 2.12121 0
10 2.22222 0
10 2.32323 0
10 2.42424 0
10 2.52525 0
10 2.62626 0
10 2.72727 0
10 2.82828 0
10 2.92929 0
10 3.0303 0
10 3.13131 0
10 3.23232 0
10 3.33333 0
10 3.43434 0
10 3.53535 0
10 3.63636 0
10 3.73737 0
10 3.83838 0
10 3.93939 0
10 4.0404 0
10 4.14141 0
10 4.24242 0
10 4.34343 0
10 4.44444 0
10 4.54545 0
10 4.64646 0
10 4.74747 0
10 4.84848 0
10 4.94949 0
10 5.05051 0
10 5.15152 0
10 5.25253 0
10 5.35354 0
10 5.45455 0
10 5.55556 0
10 5.65657 0
10 5.75758 0
10 5.85859 0
10 5.9596 0
10 6.06061 0
10 6.16162 0
10 6.26263 0
10 6.36364 0
10 6.46465 0
10 6.56566 0
10 6.66667 0
10 6.76768 0
10 6.86869 0
10 6.9697 0
10 7.07071 0
10 7.17172 0
10 7.27273 0
10 7.37374 0
10 7.47475 0
10 7.57576 0
10 7.67677 0
10 7.77778 0
10 7.87879 0
10 7.9798 0
10 8.08081 0
10 8.18182 0
10 8.28283 0
10 8.38384 0
10 8.48485 0
10 8.58586 0
10 8.68687 0
10 8.78788 0
10 8.88889 0
10 8.9899 0
10 9.09091 0
10 9.19192 0
10 9.29293 0
10 9.39394 0
10 9.49495 0
10 9.59596 0
10 9.69697 0
10 9.79798 0
10 9.89899 0
9.89899 10 0
9.79798 10 0
9.69697 10 0
9.59596 10 0
9.49495 10 0
9.39394 10 0
9.29293 10 0
9.19192 10 0
9.09091 10 0
8.9899 10 0
8.88889 10 0
8.78788 10 0
8.68687 10 0
8.58586 10 0
8.48485 10 0
8.38384 10 0
8.28283 10 0
8.18182 10 0
8.08081 10 0
7.9798 10 0
7.87879 10 0
7.77778 10 0
7.67677 10 0
7.57576 10 0
7.47475 10 0
7.37374 10 0
7.27273 10 0
7.17172 10 0
7.07071 10 0
6.9697 10 0
6.86869 10 0
6.76768 10 0
6.66667 10 0
6.56566 10 0
6.46465 10 0
6.36364 10 0
6.26263 10 0
6.16162 10 0
6.06061 10 0
5.9596 10 0
5.85859 10 0
5.75758 10 0
5.65657 10 0
5.55556 10 0
5.45455 10 0
5.35354 10 0
5.25253 10 0
5.15152 10 0
5.05051 10 0
4.94949 10 0
4.84848 10 0
4.74747 10 0
4.64646 10 0
4.54545 10 0
4.44444 10 0
4.34343 10 0
4.24242 10 0
4.14141 10 0
4.0404 10 0
3.93939 10 0
3.83838 10 0
3.73737 10 0
3.63636 10 0
3.53535 10 0
3.43434 10 0
3.33333 10 0
3.23232 10 0
3.13131 10 0
3.0303 10 0
2.92929 10 0
2.82828 10 0
2.72727 10 0
2.62626 10 0
2.52525 10 0
2.42424 10 0
2.32323 10 0
2.22222 10 0
2.12121 10 0
2.0202 10 0
1.91919 10 0
1.81818 10 0
1.71717 10 0
1.61616 10 0
1.51515 10 0
1.41414 10 0
1.31313 10 0
1.21212 10 0
1.11111 10 0
1.0101 10 0
0.909091 10 0
0.808081 10 0
0.707071 10 0
0.606061 10 0
0.505051 10 0
0.40404 10 0
0.30303 10 0
0.20202 10 0
0.10101 10 0
0 9.89899 0
0 9.79798 0
0 9.69697 0
0 9.59596 0
0 9.49495 0
0 9.39394 0
0 9.29293 0
0 9.19192 0
0 9.09091 0
0 8.9899 0
0 8.88889 0
0 8.78788 0
0 8.68687 0
0 8.58586 0
0 8.48485 0
0 8.38384 0
0 8.28283 0
0 8.18182 0
0 8.08081 0
0 7.9798 0
0 7.87879 0
0 7.77778 0
0 7.67677 0
0 7.57576 0
0 7.47475 0
0 7.37374 0
0 7.27273 0
0 7.17172 0
0 7.07071 0
0 6.9697 0
0 6.86869 0
0 6.76768 0
0 6.66667 0
0 6.56566 0
0 6.46465 0
0 6.36364 0
0 6.26263 0
0 6.16162 0
0 6.06061 0
0 5.9596 0
0 5.85859 0
0 5.75758 0
0 5.65657 0
0 5.55556 0
0 5.45455 0
0 5.35354 0
0 5.25253 0
0 5.15152 0
0 5.05051 0
0 4.94949 0
0 4.84848 0
0 4.74747 0
0 4.64646 0
0 4.54545 0
0 4.44444 0
0 4.34343 0
0 4.24242 0
0 4.14141 0
0 4.0404 0
0 3.93939 0
0 3.83838 0
0 3.73737 0
0 3.63636 0
0 3.53535 0
0 3.43434 0
0 3.33333 0
0 3.23232 0
0 3.13131 0
0 3.0303 0
0 2.92929 0
0 2.82828 0
0 2.72727 0
0 2.62626 0
0 2.52525 0
0 2.42424 0
0 2.32323 0
0 2.22222 0
0 2.12121 0
0 2.0202 0
0 1.91919 0
0 1.81818 0
0 1.71717 0
0 1.61616 0
0 1.51515 0
0 1.41414 0
0 1.31313 0
0 1.21212 0
0 1.11111 0
0 1.0101 0
0 0.909091 0
0 0.808081 0
0 0.707071 0
0 0.606061 0
0 0.505051 0
0 0.40404 0
0 0.30303 0
0 0.20202 0
0 0.10101 0
0.10101 0.10101 0
0.10101 0.20202 0
0.10101 0.30303 0
0.10101 0.40404 0
0.10101 0.505051 0
0.10101 0.606061 0
0.10101 0.707071 0
0.10101 0.808081 0
0.10101 0.909091 0
0.10101 1.0101 0
0.10101 1.11111 0
0.10101 1.21212 0
0.10101 1.31313 0
0.10101 1.41414 0
0.10101 1.51515 0
0.10101 1.61616 0
0.10101 1.71717 0
0.10101 1.81818 0
0.10101 1.91919 0
0.10101 2.0202 0
0.10101 2.12121 0
0.10101 2.22222 0
0.10101 2.32323 0
0.10101 2.42424 0
0.10101 2.52525 0
0.10101 2.62626 0
0.10101 2.72727 0
0.10101 2.82828 0
0.10101 2.92929 0
0.10101 3.0303 0
0.10101 3.13131 0
0.10101 3.23232 0
0.10101 3.33333 0
0.10101 3.43434 0
0.10101 3.53535 0
0.10101 3.63636 0
0.10101 3.73737 0
0.10101 3.83838 0
0.10101 3.93939 0
0.10101 4.0404 0
0.10101 4.14141 0
0.10101 4.24242 0
0.10101 4.34343 0
0.10101 4.44444 0
0.10101 4.54545 0
0.10101 4.64646 0
0.10101 4.74747 0
0.10101 4.84848 0
0.10101 4.94949 0
0.10101 5.05051 0
0.10101 5.15152 0
0.10101 5.25253 0
0.10101 5.35354 0
0.10101 5.45455 0
0.10101 5.55556 0
0.10101 5.65657 0
0.10101 5.75758 0
0.10101 5.85859 0
0.10101 5.9596 0
0.10101 6.06061 0
0.10101 6.16162 0
0.10101 6.26263 0
0.10101 6.36364 0
0.10101 6.46465 0
0.10101 6.56566 0
0.10101 6.66667 0
0.10101 6.76768 0
0.10101 6.86869 0
0.10101 6.9697 0
0.10101 7.07071 0
0.10101 7.17172 0
0.10101 7.27273 0
0.10101 7.37374 0
0.10101 7.47475 0
0.10101 7.57576 0
0.10101 7.67677 0
0.10101 7.77778 0
0.10101 7.87879 0
0.10101 7.9798 0
0.10101 8.08081 0
0.10101 8.18182 0
0.10101 8.28283 0
0.10101 8.38384 0
0.10101 8.48485 0
0.10101 8.58586 0
0.10101 8.68687 0
0.10101 8.78788 0
0.10101 8.88889 0
0.10101 8.9899 0
0.10101 9.09091 0
0.10101 9.19192 0
0.10101 9.29293 0
0.10101 9.39394 0
0.10101 9.49495 0
0.10101 9.59596 0
0.10101 9.69697 0
0.10101 9.79798 0
0.10101 9.89899 0
0.20202 0.10101 0
0.20202 0.20202 0
0.20202 0.30303 0
0.20202 0.40404 0
0.20202 0.505051 0
0.20202 0.606061 0
0.20202 0.707071 0
0.20202 0.808081 0
0.20202 0.909091 0
0.20202 1.0101 0
0.20202 1.11111 0
0.20202 1.21212 0
0.20202 1.31313 0
0.20202 1.41414 0
0.20202 1.51515 0
0.20202 1.61616 0
0.20202 1.71717 0
0.20202 1.81818 0
0.20202 1.91919 0
0.20202 2.0202 0
0.20202 2.12121 0
0.20202 2.22222 0
0.20202 2.32323 0
0.20202 2.42424 0
0.20202 2.52525 0
0.20202 2.62626 0
0.20202 2.72727 0
0.20202 2.82828 0
0.20202 2.92929 0
0.20202 3.0303 0
0.20202 3.13131 0
0.20202 3.23232 0
0.20202 3.33333 0
0.20202 3.43434 0
0.20202 3.53535 0
0.20202 3.63636 0
0.20202 3.73737 0
0.20202 3.83838 0
0.20202 3.93939 0
0.20202 4.0404 0
0.20202 4.14141 0
0.20202 4.24242 0
0.20202 4.34343 0
0.20202 4.44444 0
0.20202 4.54545 0
0.20202 4.64646 0
0.20202 4.74747 0
0.20202 4.84848 0
0.20202 4.94949 0
0.20202 5.05051 0
0.20202 5.15152 0
0.20202 5.25253 0
0.20202 5.35354 0
0.20202 5.45455 0
0.20202 5.55556 0
0.20202 5.65657 0
0.20202 5.75758 0
0.20202 5.85859 0
0.20202 5.9596 0
0.20202 6.06061 0
0.20202 6.16162 0
0.20202 6.26263 0
0.20202 6.36364 0
0.20202 6.46465 0
0.20202 6.56566 0
0.20202 6.66667 0
0.20202 6.76768 0
0.20202 6.86869 0
0.20202 6.9697 0
0.20202 7.07071 0
0.20202 7.17172 0
0.20202 7.27273 0
0.20202 7.37374 0
0.20202 7.47475 0
0.20202 7.57576 0
0.20202 7.67677 0
0.20202 7.77778 0
0.20202 7.87879 0
0.20202 7.9798 0
0.20202 8.08081 0
0.20202 8.18182 0
0.20202 8.28283 0
0.20202 8.38384 0
0.20202 8.48485 0
0.20202 8.58586 0
0.20202 8.68687 0
0.20202 8.78788 0
0.20202 8.88889 0
0.20202 8.9899 0
0.20202 9.09091 0
0.20202 9.19192 0
0.20202 9.29293 0
0.20202 9.39394 0
0.20202 9.49495 0
0.20202 9.59596 0
0.20202 9.69697 0
0.20202 9.79798 0
0.20202 9.89899 0
0.30303 0.10101 0
0.30303 0.20202 0
0.30303 0.30303 0
0.30303 0.40404 0
0.30303 0.505051 0
0.30303 0.606061 0
0.30303 0.707071 0
0.30303 0.808081 0
0.30303 0.909091 0
0.30303 1.0101 0
0.30303 1.11111 0
0.30303 1.21212 0
0.30303 1.31313 0
0.30303 1.41414 0
0.30303 1.51515 0
0.30303 1.61616 0
0.30303 1.71717 0
0.30303 1.81818 0
0.30303 1.91919 0
0.30303 2.0202 0
0.30303 2.12121 0
0.30303 2.22222 0
0.30303 2.32323 0
0.30303 2.42424 0
0.30303 2.52525 0
0.30303 2.62626 0
0.30303 2.72727 0
0.30303 2.82828 0
0.30303 2.92929 0
0.30303 3.0303 0
0.30303 3.13131 0
0.30303 3.23232 0
0.30303 3.33333 0
0.30303 3.43434 0
0.30303 3.53535 0
0.30303 3.63636 0
0.30303 3.73737 0
0.30303 3.83838 0
0.30303 3.93939 0
0.30303 4.0404 0
0.30303 4.14141 0
0.30303 4.24242 0
0.30303 4.34343 0
0.30303 4.44444 0
0.30303 4.54545 0
0.30303 4.64646 0
0.30303 4.74747 0
0.30303 4.84848 0
0.30303 4.94949 0
0.30303 5.05051 0
0.30303 5.15152 0
0.30303 5.25253 0
0.30303 5.35354 0
0.30303 5.45455 0
0.30303 5.55556 0
0.30303 5.65657 0
0.30303 5.75758 0
0.30303 5.85859 0
0.30303 5.9596 0
0.30303 6.06061 0
0.30303 6.16162 0
0.30303 6.26263 0
0.30303 6.36364 0
0.30303 6.46465 0
0.30303 6.56566 0
0.30303 6.66667 0
0.30303 6.76768 0
0.30303 6.86869 0
0.30303 6.9697 0
0.30303 7.07071 0
0.30303 7.17172 0
0.30303 7.27273 0
0.30303 7.37374 0
0.30303 7.47475 0
0.30303 7.57576 0
0.30303 7.67677 0
0.30303 7.77778 0
0.30303 7.87879 0
0.30303 7.9798 0
0.30303 8.08081 0
[...]
CELL_DATA 9801
SCALARS Temperatura double 1
LOOKUP_TABLE default
-1.99904e-19
-2.02681e-19
-2.62412e-20
3.96534e-19
1.04526e-18
1.72389e-18
2.02348e-18
1.37038e-18
-8.07697e-19
-4.80224e-18
-1.02793e-17
-1.59597e-17
-1.94522e-17
-1.73968e-17
-6.0725e-18
1.74634e-17
5.38637e-17
1.00127e-16
1.49242e-16
1.91733e-16
2.19379e-16
2.2991e-16
2.29469e-16
2.27765e-16
2.20237e-16
1.53275e-16
-1.26917e-16
-9.3404e-16
-2.79339e-15
-6.45978e-15
-1.2868e-14
-2.2977e-14
-3.74665e-14
-5.62522e-14
-7.77958e-14
-9.82129e-14
-1.10219e-13
-1.02e-13
-5.61653e-14
5.10316e-14
2.49924e-13
5.76858e-13
1.07255e-12
1.77916e-12
2.73609e-12
3.97452e-12
5.5113e-12
7.3429e-12
9.44102e-12
1.1752e-11
1.42166e-11
1.70118e-11
2.012e-11
2.35426e-11
2.72797e-11
3.13377e-11
3.57343e-11
4.05057e-11
4.57134e-11
5.14486e-11
5.78331e-11
6.50118e-11
7.31353e-11
8.23263e-11
9.26299e-11
1.03948e-10
1.1596e-10
1.28053e-10
1.39263e-10
1.48277e-10
1.53511e-10
1.53288e-10
1.46128e-10
1.31119e-10
1.08302e-10
7.89568e-11
4.5686e-11
1.21663e-11
-1.74453e-11
-3.93773e-11
-5.11713e-11
-5.23768e-11
-4.47312e-11
-3.1686e-11
-1.73791e-11
-5.39945e-12
2.1872e-12
5.17196e-12
4.80463e-12
2.92006e-12
1.05451e-12
-3.95884e-14
-3.54874e-13
-2.54215e-13
-8.3861e-14
4.38028e-15
1.71548e-14
6.35535e-15
-4.12739e-16
-1.56443e-20
6.73165e-19
1.45963e-18
2.10414e-18
1.959e-18
2.58939e-19
-3.53372e-18
-9.23561e-18
-1.54643e-17
-1.93923e-17
-1.69524e-17
-3.66612e-18
2.38404e-17
6.57426e-17
1.16764e-16
1.64613e-16
1.90317e-16
1.716e-16
8.9389e-17
-6.45876e-17
-2.83804e-16
-5.53086e-16
-8.70463e-16
-1.28513e-15
-1.94255e-15
-3.11588e-15
-5.19249e-15
-8.57806e-15
-1.34831e-14
-1.95663e-14
-2.54273e-14
-2.79652e-14
-2.16444e-14
2.25822e-15
5.63302e-14
1.57504e-13
3.27225e-13
5.91198e-13
9.78673e-13
1.52128e-12
2.25156e-12
3.20139e-12
4.40056e-12
5.87581e-12
7.65044e-12
9.74439e-12
1.21745e-11
1.49542e-11
1.80913e-11
2.15833e-11
2.54283e-11
2.95967e-11
3.40376e-11
3.86976e-11
4.35206e-11
4.84575e-11
5.34797e-11
5.85959e-11
6.38722e-11
6.94546e-11
7.55898e-11
8.26414e-11
9.10934e-11
1.01531e-10
1.14593e-10
1.30871e-10
1.50774e-10
1.74334e-10
2.00991e-10
2.29382e-10
2.57208e-10
2.81249e-10
2.97601e-10
3.022e-10
2.91599e-10
2.6391e-10
2.19672e-10
1.62381e-10
9.83638e-11
3.58404e-11
-1.67501e-11
-5.27876e-11
-6.92401e-11
-6.74899e-11
-5.27997e-11
-3.25017e-11
-1.35645e-11
-5.11104e-13
5.4693e-12
5.96052e-12
3.78215e-12
1.38705e-12
-1.54613e-14
-3.92886e-13
-2.58823e-13
-6.85456e-14
1.2133e-14
1.4892e-14
2.61554e-15
1.48543e-18
2.73726e-18
2.69066e-18
5.35761e-19
-4.59516e-18
-1.23953e-17
-2.06222e-17
-2.47744e-17
-1.86768e-17
3.8058e-18
4.60306e-17
1.05264e-16
1.69594e-16
2.16262e-16
2.12971e-16
1.23747e-16
-8.00711e-17
-4.05672e-16
-8.27102e-16
-1.28492e-15
-1.70565e-15
-2.04306e-15
-2.33038e-15
-2.71608e-15
-3.44268e-15
-4.72499e-15
-6.49539e-15
-8.00922e-15
-7.33551e-15
-7.89219e-16
1.76187e-14
5.66315e-14
1.28027e-13
2.46678e-13
4.30393e-13
6.99548e-13
1.07661e-12
1.58563e-12
2.25188e-12
3.1016e-12
4.16205e-12
5.4615e-12
7.02911e-12
8.89426e-12
1.1085e-11
1.36251e-11
1.65307e-11
1.98048e-11
2.34325e-11
2.73747e-11
3.15803e-11
3.59298e-11
4.03113e-11
4.45979e-11
4.86554e-11
5.23537e-11
5.55842e-11
5.82823e-11
6.04558e-11
6.22211e-11
6.38441e-11
6.57837e-11
6.87331e-11
7.36462e-11
8.17337e-11
9.44086e-11
1.13156e-10
1.39305e-10
1.737e-10
2.16281e-10
2.65634e-10
3.18614e-10
3.70191e-10
4.1368e-10
4.41491e-10
4.46433e-10
4.23418e-10
3.71209e-10
2.93663e-10
1.99902e-10
1.02992e-10
1.71966e-11
-4.55813e-11
-7.90323e-11
-8.41067e-11
-6.83059e-11
-4.2731e-11
-1.80531e-11
-1.12753e-12
6.33069e-12
6.69262e-12
3.91806e-12
1.18172e-12
-2.00956e-13
-4.2665e-13
-2.08369e-13
-2.70611e-14
1.97037e-14
9.17404e-15
3.80199e-18
1.66559e-18
-4.30604e-18
-1.41605e-17
-2.51292e-17
-3.09813e-17
-2.29344e-17
7.49429e-18
6.39645e-17
1.40264e-16
2.16406e-16
2.57665e-16
2.18228e-16
5.08196e-17
-2.77193e-16
-7.62899e-16
-1.34781e-15
-1.90898e-15
-2.27369e-15
-2.26488e-15
-1.77069e-15
-8.10025e-16
4.52588e-16
1.79544e-15
3.16798e-15
5.05866e-15
8.95628e-15
1.78218e-14
3.6477e-14
7.18376e-14
1.32966e-13
2.30974e-13
3.78864e-13
5.91395e-13
8.85094e-13
1.27845e-12
1.79228e-12
2.45017e-12
3.27878e-12
4.30774e-12
5.56881e-12
7.094e-12
8.9126e-12
1.1047e-11
1.35079e-11
1.62884e-11
1.93589e-11
2.26611e-11
2.61022e-11
2.95478e-11
3.28686e-11
3.58668e-11
3.83141e-11
3.99781e-11
4.06176e-11
3.99991e-11
3.79164e-11
3.42161e-11
2.88302e-11
2.18172e-11
1.34152e-11
4.10699e-12
-5.30311e-12
-1.36073e-11
-1.91213e-11
-1.96445e-11
-1.24936e-11
5.34478e-12
3.68878e-11
8.46222e-11
1.49762e-10
2.31374e-10
3.25529e-10
4.24757e-10
5.18128e-10
5.92262e-10
6.33426e-10
6.30519e-10
5.7838e-10
4.80412e-10
3.49413e-10
2.05772e-10
7.29762e-11
-2.84996e-11
-8.69261e-11
-1.02385e-10
-8.57182e-11
-5.36392e-11
-2.21118e-11
-1.02631e-12
7.55355e-12
7.33554e-12
3.79248e-12
8.13074e-13
-3.96096e-13
-4.11506e-13
-1.34632e-13
6.39542e-15
1.98923e-14
-7.68227e-20
-1.36552e-17
-2.79824e-17
-3.81266e-17
-3.21064e-17
2.45442e-18
7.15858e-17
1.66962e-16
2.60134e-16
3.02403e-16
2.32518e-16
-7.52029e-18
-4.49877e-16
-1.07442e-15
-1.78367e-15
-2.3886e-15
-2.61885e-15
-2.17025e-15
-7.91863e-16
1.60788e-15
4.88319e-15
8.66443e-15
1.25168e-14
1.62562e-14
2.03739e-14
2.64682e-14
3.75644e-14
5.82393e-14
9.45414e-14
1.53786e-13
2.44366e-13
3.75718e-13
5.58548e-13
8.05305e-13
1.13079e-12
1.55269e-12
2.09175e-12
2.77125e-12
3.61565e-12
4.64806e-12
5.88663e-12
7.34e-12
9.00192e-12
1.08455e-11
1.2817e-11
1.48304e-11
1.67608e-11
1.84382e-11
1.96397e-11
2.00774e-11
1.95031e-11
1.75596e-11
1.38455e-11
7.98541e-12
-3.90082e-13
-1.16184e-11
-2.59816e-11
-4.36795e-11
-6.4801e-11
-8.92878e-11
-1.16889e-10
-1.47099e-10
-1.79069e-10
-2.11492e-10
-2.42457e-10
-2.69292e-10
-2.8842e-10
-2.95311e-10
-2.84592e-10
-2.50457e-10
-1.8745e-10
-9.16913e-11
3.7536e-11
1.96082e-10
3.73564e-10
5.52968e-10
7.11856e-10
8.25582e-10
8.72376e-10
8.39326e-10
7.27537e-10
5.54348e-10
3.50931e-10
1.55024e-10
5.68843e-13
-9.21431e-11
-1.21768e-10
-1.04144e-10
-6.41168e-11
-2.48633e-11
1.45379e-13
9.05149e-12
7.67699e-12
3.30803e-12
3.18827e-13
-5.37415e-13
-3.31881e-13
-5.50242e-14
2.94422e-14
-2.24631e-17
-4.46251e-17
-4.59019e-17
-1.47021e-17
6.19363e-17
1.78237e-16
2.999e-16
3.62396e-16
2.82975e-16
-1.36915e-17
-5.61493e-16
-1.31869e-15
-2.14177e-15
-2.77496e-15
-2.86428e-15
-2.00741e-15
1.51835e-16
3.79028e-15
8.76774e-15
1.45487e-14
2.02565e-14
2.49041e-14
2.7778e-14
2.88723e-14
2.92245e-14
3.10242e-14
3.74523e-14
5.23319e-14
7.97655e-14
1.23953e-13
1.89318e-13
2.80929e-13
4.05067e-13
5.69659e-13
7.84267e-13
1.05934e-12
1.40449e-12
1.82567e-12
2.32124e-12
2.87688e-12
3.45953e-12
4.01046e-12
4.4376e-12
4.60748e-12
4.33692e-12
3.38487e-12
1.44463e-12
-1.86404e-12
-7.00437e-12
-1.45385e-11
-2.49191e-11
-3.87439e-11
-5.66772e-11
-7.92842e-11
-1.07076e-10
-1.40465e-10
-1.79729e-10
-2.2498e-10
-2.76144e-10
-3.32937e-10
-3.94856e-10
-4.61146e-10
-5.30762e-10
-6.02277e-10
-6.73728e-10
-7.4239e-10
-8.04469e-10
-8.54762e-10
-8.86383e-10
-8.907e-10
-8.57712e-10
-7.7709e-10
-6.40062e-10
-4.42122e-10
-1.86224e-10
1.14279e-10
4.34097e-10
7.37146e-10
9.81309e-10
1.12681e-09
1.14676e-09
1.03671e-09
8.19554e-10
5.42349e-10
2.64553e-10
4.07034e-11
-9.60967e-11
-1.42771e-10
-1.22875e-10
-7.28932e-11
-2.53538e-11
2.63718e-12
1.06092e-11
7.49235e-12
2.4513e-12
-1.94894e-13
-5.62108e-13
-2.02051e-13
1.97757e-14
-5.85744e-17
-4.32165e-17
2.95677e-17
1.61818e-16
3.23016e-16
4.35794e-16
3.8841e-16
7.1175e-17
-5.69544e-16
-1.47788e-15
-2.45576e-15
-3.16401e-15
-3.15969e-15
-1.96647e-15
8.23509e-16
5.41565e-15
1.1657e-14
1.88964e-14
2.59297e-14
3.11034e-14
3.2604e-14
2.88725e-14
1.89908e-14
2.85556e-15
-1.89825e-14
-4.57986e-14
-7.73245e-14
-1.14286e-13
-1.58642e-13
-2.13477e-13
-2.82679e-13
-3.70689e-13
-4.82696e-13
-6.25576e-13
-8.09843e-13
-1.05276e-12
-1.38269e-12
-1.84482e-12
-2.50828e-12
-3.47465e-12
-4.888e-12
-6.94609e-12
-9.91244e-12
-1.41286e-11
-2.00259e-11
-2.81357e-11
-3.90972e-11
-5.36652e-11
-7.27179e-11
-9.72763e-11
-1.28128e-10
-1.66233e-10
-2.12647e-10
-2.68186e-10
-3.33511e-10
-4.09039e-10
-4.94891e-10
-5.90845e-10
-6.96309e-10
-8.10327e-10
-9.31604e-10
-1.05855e-09
-1.18936e-09
-1.32201e-09
-1.45422e-09
-1.58334e-09
-1.70595e-09
-1.81738e-09
-1.91098e-09
-1.97738e-09
-2.00396e-09
-1.97493e-09
-1.87251e-09
-1.67964e-09
-1.38435e-09
-9.85494e-10
-4.98524e-10
4.06209e-11
5.75938e-10
1.03816e-09
1.35829e-09
1.48565e-09
1.40509e-09
1.14646e-09
7.80408e-10
3.99199e-10
8.80443e-11
-1.01824e-10
-1.66185e-10
-1.4077e-10
-7.8331e-11
-2.2698e-11
6.36991e-12
1.17867e-11
6.57817e-12
1.33135e-12
-5.74272e-13
-4.44647e-13
-4.66592e-14
-4.45109e-17
1.07388e-16
3.04043e-16
4.94876e-16
5.4025e-16
2.75851e-16
-4.1079e-16
-1.48833e-15
-2.71632e-15
-3.6442e-15
-3.68701e-15
-2.25757e-15
1.08219e-15
6.48033e-15
1.36711e-14
2.18634e-14
2.96556e-14
3.50269e-14
3.54673e-14
2.82666e-14
1.08755e-14
-1.8843e-14
-6.26799e-14
-1.22575e-13
-2.01462e-13
-3.04238e-13
-4.38549e-13
-6.15231e-13
-8.48435e-13
-1.15569e-12
-1.55833e-12
-2.08259e-12
-2.76181e-12
-3.63988e-12
-4.77604e-12
-6.25138e-12
-8.17703e-12
-1.07045e-11
-1.40383e-11
-1.84507e-11
-2.42985e-11
-3.20412e-11
-4.22601e-11
-5.56752e-11
-7.31609e-11
-9.57564e-11
-1.24672e-10
-1.61292e-10
-2.07177e-10
-2.64081e-10
-3.33328e-10
-4.164e-10
-5.14917e-10
-6.3002e-10
-7.62502e-10
-9.12671e-10
-1.08024e-09
-1.26427e-09
-1.46311e-09
-1.67441e-09
-1.89521e-09
-2.12209e-09
-2.35135e-09
-2.57922e-09
-2.80212e-09
-3.01674e-09
-3.21994e-09
-3.40831e-09
-3.57733e-09
-3.71998e-09
-3.82517e-09
-3.87618e-09
-3.84988e-09
-3.71769e-09
-3.44918e-09
-3.01892e-09
-2.41624e-09
-1.65599e-09
-7.87013e-10
1.06324e-10
9.13496e-10
1.51944e-09
1.83486e-09
1.8262e-09
1.53281e-09
1.06087e-09
5.51756e-10
1.351e-10
-1.1391e-10
-1.92596e-10
-1.55924e-10
-7.85142e-11
-1.63899e-11
1.07529e-11
1.19838e-11
4.89092e-12
2.08726e-13
-6.81762e-13
-2.23145e-13
1.53843e-16
4.9347e-16
6.80709e-16
5.7981e-16
-3.12929e-17
-1.22423e-15
-2.78992e-15
-4.18028e-15
-4.59125e-15
-3.1848e-15
6.23643e-16
6.92111e-15
1.51741e-14
2.42288e-14
3.23711e-14
3.73788e-14
3.65578e-14
2.68107e-14
4.7777e-15
-3.30061e-14
-9.01146e-14
-1.70608e-13
-2.79889e-13
-4.2594e-13
-6.20655e-13
-8.80966e-13
-1.22962e-12
-1.69577e-12
-2.31565e-12
-3.13397e-12
-4.20629e-12
-5.60274e-12
-7.41341e-12
-9.7554e-12
-1.27822e-11
-1.66956e-11
-2.17606e-11
-2.83235e-11
-3.68344e-11
-4.78715e-11
-6.2169e-11
-8.0645e-11
-1.0443e-10
-1.3489e-10
-1.73643e-10
-2.22574e-10
-2.83825e-10
-3.5979e-10
-4.53103e-10
-5.6664e-10
-7.02558e-10
-8.63053e-10
-1.05051e-09
-1.26646e-09
-1.51178e-09
-1.78642e-09
-2.08934e-09
-2.41827e-09
-2.76974e-09
-3.13903e-09
-3.52032e-09
-3.9069e-09
-4.29152e-09
-4.66688e-09
-5.02617e-09
-5.36362e-09
-5.67493e-09
-5.95735e-09
-6.20916e-09
-6.42835e-09
-6.6103e-09
-6.74455e-09
-6.8114e-09
-6.77921e-09
-6.60433e-09
-6.23546e-09
-5.624e-09
-4.7402e-09
-3.59249e-09
-2.24419e-09
-8.19438e-10
5.09476e-10
1.55636e-09
2.17148e-09
2.29234e-09
1.97298e-09
1.37385e-09
7.09157e-10
1.70639e-10
-1.37689e-10
-2.21472e-10
-1.65367e-10
-7.15995e-11
-6.75032e-12
1.46115e-11
1.06657e-11
2.69918e-12
-5.66864e-13
-5.44158e-13
6.24539e-16
8.84723e-16
5.28719e-16
-5.761e-16
-2.41566e-15
-4.47812e-15
-5.75453e-15
-4.9826e-15
-1.11838e-15
6.14435e-15
1.60435e-14
2.67625e-14
3.57592e-14
4.02066e-14
3.72975e-14
2.42805e-14
-1.72949e-15
-4.40298e-14
-1.06621e-13
-1.94606e-13
-3.14892e-13
-4.77344e-13
-6.96327e-13
-9.92364e-13
-1.39364e-12
-1.93726e-12
-2.6704e-12
-3.65197e-12
-4.95515e-12
-6.67133e-12
-8.9158e-12
-1.18354e-11
-1.56185e-11
-2.05081e-11
-2.68187e-11
-3.49568e-11
-4.54476e-11
-5.89663e-11
-7.63744e-11
-9.87606e-11
-1.27484e-10
-1.64217e-10
-2.10986e-10
-2.70202e-10
-3.44678e-10
-4.37634e-10
-5.52676e-10
-6.93756e-10
-8.65125e-10
-1.0713e-09
-1.31571e-09
-1.60145e-09
-1.93189e-09
-2.30893e-09
-2.73334e-09
-3.20439e-09
-3.71959e-09
-4.27456e-09
-4.86288e-09
-5.47618e-09
-6.10423e-09
-6.73526e-09
-7.35647e-09
-7.95473e-09
-8.51741e-09
-9.03354e-09
-9.49483e-09
-9.89669e-09
-1.02387e-08
-1.05241e-08
-1.0758e-08
-1.09433e-08
-1.10751e-08
-1.1134e-08
-1.10792e-08
-1.08466e-08
-1.03527e-08
-9.51028e-09
-8.25426e-09
-6.57567e-09
-4.55265e-09
-2.36482e-09
-2.76338e-10
1.41851e-09
2.47825e-09
2.79831e-09
2.45834e-09
1.70266e-09
8.51771e-10
1.80498e-10
-1.77541e-10
-2.49943e-10
-1.65094e-10
-5.65679e-11
4.63061e-12
1.64093e-11
7.74391e-12
6.20735e-13
-9.3339e-13
1.10598e-15
3.90869e-16
-1.38701e-15
-4.02415e-15
-6.56811e-15
-7.35398e-15
-4.54148e-15
3.02196e-15
1.49431e-14
2.88871e-14
4.09245e-14
4.65185e-14
4.16779e-14
2.3686e-14
-8.96028e-15
-5.73433e-14
-1.23274e-13
-2.104e-13
-3.25151e-13
-4.77666e-13
-6.82997e-13
-9.62671e-13
-1.34649e-12
-1.87437e-12
-2.59805e-12
-3.58311e-12
-4.91162e-12
-6.68607e-12
-9.03508e-12
-1.21212e-11
-1.61511e-11
-2.13891e-11
-2.81745e-11
-3.69435e-11
-4.82585e-11
-6.28432e-11
-8.16269e-11
-1.05796e-10
-1.36853e-10
-1.76683e-10
-2.27615e-10
-2.92495e-10
-3.74734e-10
-4.78354e-10
-6.08e-10
-7.68928e-10
-9.66944e-10
-1.20832e-09
-1.49965e-09
-1.84776e-09
-2.25796e-09
-2.73441e-09
-3.28154e-09
-3.90156e-09
-4.59476e-09
-5.35898e-09
-6.18934e-09
-7.07805e-09
-8.01428e-09
-8.98424e-09
-9.97141e-09
-1.0957e-08
-1.19204e-08
-1.28403e-08
-1.36957e-08
-1.44673e-08
-1.51394e-08
-1.57016e-08
-1.61508e-08
-1.64926e-08
-1.67406e-08
-1.69144e-08
-1.70334e-08
-1.71066e-08
-1.71208e-08
-1.70268e-08
-1.67319e-08
-1.61037e-08
-1.49913e-08
-1.32679e-08
-1.08881e-08
-7.94342e-09
-4.69167e-09
-1.53382e-09
1.07342e-09
2.75331e-09
3.34526e-09
2.97666e-09
2.02204e-09
9.5344e-10
1.49858e-10
-2.34204e-10
-2.71761e-10
-1.50884e-10
-3.43514e-11
1.47968e-11
1.49101e-11
3.92513e-12
-1.04008e-12
6.20201e-16
-2.48932e-15
-6.09024e-15
-9.1166e-15
-8.97935e-15
-3.09331e-15
9.68184e-15
2.76848e-14
4.6008e-14
5.74578e-14
5.46998e-14
3.2649e-14
-1.00896e-14
-7.15057e-14
-1.48112e-13
-2.37671e-13
-3.41692e-13
-4.67079e-13
-6.2704e-13
-8.41766e-13
-1.13941e-12
-1.55759e-12
-2.14523e-12
-2.9648e-12
-4.09501e-12
-5.63459e-12
-7.70745e-12
-1.047e-11
-1.4121e-11
-1.89141e-11
-2.51742e-11
-3.33194e-11
-4.38888e-11
-5.75793e-11
-7.52923e-11
-9.81921e-11
-1.27777e-10
-1.6596e-10
-2.15167e-10
-2.78434e-10
-3.59507e-10
-4.62946e-10
-5.94196e-10
-7.59644e-10
-9.66622e-10
-1.22336e-09
-1.53885e-09
-1.92269e-09
-2.38477e-09
-2.93494e-09
-3.58137e-09
-4.32927e-09
-5.18406e-09
-6.14798e-09
-7.22008e-09
-8.3957e-09
-9.66608e-09
-1.10182e-08
-1.24346e-08
-1.3894e-08
-1.53713e-08
-1.68383e-08
-1.82648e-08
-1.96193e-08
-2.08704e-08
-2.19884e-08
-2.29473e-08
-2.37272e-08
-2.43176e-08
-2.47203e-08
-2.49522e-08
-2.50455e-08
-2.50451e-08
-2.49997e-08
-2.49456e-08
-2.4885e-08
-2.47617e-08
-2.44429e-08
-2.37201e-08
-2.23399e-08
-2.00711e-08
-1.68011e-08
-1.26322e-08
-7.93532e-09
-3.31654e-09
5.25566e-10
3.02077e-09
3.94273e-09
3.50945e-09
2.29607e-09
9.83122e-10
6.75453e-11
-3.01509e-10
-2.77337e-10
-1.20287e-10
-8.90112e-12
2.01681e-11
1.01553e-11
-4.49968e-14
-2.53885e-15
-8.7684e-15
-1.22406e-14
-1.07759e-14
-6.43768e-16
1.91926e-14
4.51138e-14
6.83066e-14
7.66914e-14
5.89434e-14
8.94462e-15
-7.15326e-14
-1.73425e-13
-2.84184e-13
-3.93154e-13
-4.96342e-13
-5.99053e-13
-7.1628e-13
-8.71865e-13
-1.09775e-12
-1.43421e-12
-1.93112e-12
-2.65034e-12
-3.66884e-12
-5.08312e-12
-7.01514e-12
-9.62044e-12
-1.30987e-11
-1.77076e-11
-2.37812e-11
-3.17539e-11
-4.21932e-11
-5.58433e-11
-7.36821e-11
-9.69945e-11
-1.27464e-10
-1.67285e-10
-2.1929e-10
-2.87097e-10
-3.75266e-10
-4.89455e-10
-6.36561e-10
-8.24841e-10
-1.06397e-09
-1.36502e-09
-1.7404e-09
-2.20354e-09
-2.76861e-09
-3.44989e-09
-4.26107e-09
-5.21464e-09
-6.31657e-09
-7.57283e-09
-8.98512e-09
-1.05502e-08
-1.22592e-08
-1.40976e-08
-1.60443e-08
-1.80731e-08
-2.0152e-08
-2.22448e-08
-2.4312e-08
-2.63121e-08
-2.82024e-08
-2.9941e-08
-3.14877e-08
-3.28061e-08
-3.38659e-08
-3.4646e-08
-3.51388e-08
-3.53555e-08
-3.5331e-08
-3.51265e-08
-3.48264e-08
-3.45262e-08
-3.43076e-08
-3.42019e-08
-3.41465e-08
-3.39499e-08
-3.32853e-08
-3.17346e-08
-2.88962e-08
-2.45436e-08
-1.87885e-08
-1.21726e-08
-5.6123e-09
-1.62919e-10
3.33877e-09
4.60595e-09
4.02582e-09
2.47643e-09
9.09582e-10
-6.74317e-11
-3.63868e-10
-2.56112e-10
-7.56029e-11
1.28397e-11
1.83971e-11
3.40053e-12
-9.82761e-15
-1.64065e-14
-1.30618e-14
2.51987e-15
3.16744e-14
6.80579e-14
9.72529e-14
9.99977e-14
5.90607e-14
-3.29713e-14
-1.68789e-13
-3.27161e-13
-4.79537e-13
-5.99667e-13
-6.72072e-13
-6.96219e-13
-6.85707e-13
-6.64269e-13
-6.61284e-13
-7.08945e-13
-8.4177e-13
-1.0981e-12
-1.52295e-12
-2.17199e-12
-3.11672e-12
-4.45123e-12
-6.30124e-12
-8.836e-12
-1.22847e-11
-1.69597e-11
-2.32887e-11
-3.18611e-11
-4.3491e-11
-5.93021e-11
-8.08386e-11
-1.10204e-10
-1.50233e-10
-2.04689e-10
-2.78493e-10
-3.7796e-10
-5.11043e-10
-6.87548e-10
-9.19311e-10
-1.22028e-09
-1.60647e-09
-2.09581e-09
-2.70767e-09
-3.46223e-09
-4.37939e-09
-5.47726e-09
-6.77501e-09
-8.27876e-09
-9.99385e-09
-1.19207e-08
-1.40523e-08
-1.63737e-08
-1.88617e-08
-2.14849e-08
-2.42045e-08
-2.69757e-08
-2.97488e-08
-3.24713e-08
-3.50901e-08
-3.75526e-08
-3.98089e-08
-4.18122e-08
-4.35205e-08
-4.48969e-08
-4.59123e-08
-4.65485e-08
-4.68044e-08
-4.67042e-08
-4.63066e-08
-4.57117e-08
-4.50596e-08
-4.45146e-08
-4.42273e-08
-4.42749e-08
-4.45875e-08
-4.48832e-08
-4.46491e-08
-4.32062e-08
-3.98819e-08
-3.42704e-08
-2.65007e-08
-1.73839e-08
-8.31005e-09
-8.53764e-10
3.79977e-09
5.34482e-09
4.47314e-09
2.50365e-09
7.10929e-10
-2.38196e-10
-3.97045e-10
-2.02135e-10
-2.63157e-11
2.33606e-11
1.07562e-11
-1.99895e-14
-1.67955e-14
5.76384e-15
4.68543e-14
9.73147e-14
1.35022e-13
1.30345e-13
5.70136e-14
-9.48625e-14
-3.09922e-13
-5.47915e-13
-7.54078e-13
-8.75198e-13
-8.74142e-13
-7.36715e-13
-4.68932e-13
-8.73826e-14
3.92281e-13
9.64362e-13
1.63788e-12
2.43767e-12
3.40358e-12
4.58908e-12
6.05989e-12
7.89246e-12
1.01717e-11
1.29868e-11
1.64242e-11
2.05535e-11
2.54043e-11
3.09281e-11
3.69395e-11
4.30308e-11
4.84524e-11
5.1952e-11
5.15674e-11
4.43698e-11
2.61582e-11
-8.88724e-12
-6.85778e-11
-1.63092e-10
-3.05317e-10
-5.1112e-10
-7.99481e-10
-1.19244e-09
-1.71479e-09
-2.39335e-09
-3.25584e-09
-4.32895e-09
-5.63525e-09
-7.20454e-09
-9.04188e-09
-1.11498e-08
-1.35269e-08
-1.61608e-08
-1.90283e-08
-2.20954e-08
-2.53178e-08
-2.86422e-08
-3.2009e-08
-3.53546e-08
-3.86147e-08
-4.17271e-08
-4.46348e-08
-4.7287e-08
-4.96405e-08
-5.16589e-08
-5.33118e-08
-5.4573e-08
-5.54216e-08
-5.58449e-08
-5.58471e-08
-5.54626e-08
-5.47728e-08
-5.39222e-08
-5.31218e-08
-5.26291e-08
-5.2693e-08
-5.34566e-08
-5.48354e-08
-5.64038e-08
-5.73552e-08
-5.66013e-08
-5.30514e-08
-4.60363e-08
-3.57387e-08
-2.34101e-08
-1.11672e-08
-1.32343e-09
4.51631e-09
6.14213e-09
4.76733e-09
2.31578e-09
3.89807e-10
-4.04812e-10
-3.75461e-10
-1.21677e-10
1.21022e-11
2.21808e-11
-2.53163e-14
7.70501e-15
6.38697e-14
1.33331e-13
1.84404e-13
1.72754e-13
5.81084e-14
-1.74963e-13
-5.01264e-13
-8.53188e-13
-1.1355e-12
-1.25076e-12
-1.12353e-12
-7.12413e-13
-5.00318e-15
1.00073e-12
2.32008e-12
4.00216e-12
6.14332e-12
8.89425e-12
1.24644e-11
1.71268e-11
2.32262e-11
3.11892e-11
4.15383e-11
5.49062e-11
7.205e-11
9.38625e-11
1.21375e-10
1.55745e-10
1.98226e-10
2.50103e-10
3.12585e-10
3.86651e-10
4.7282e-10
5.70855e-10
6.79376e-10
7.95399e-10
9.13798e-10
1.02672e-09
1.123e-09
1.18757e-09
1.20107e-09
1.13953e-09
9.74471e-10
6.73348e-10
2.00634e-10
-4.8022e-10
-1.4034e-09
-2.59485e-09
-4.10187e-09
-5.92666e-09
-8.06544e-09
-1.05149e-08
-1.32567e-08
-1.62586e-08
-1.94753e-08
-2.28492e-08
-2.6314e-08
-2.97977e-08
-3.32271e-08
-3.65332e-08
-3.9655e-08
-4.25436e-08
-4.5164e-08
-4.74961e-08
-4.95312e-08
-5.12688e-08
-5.27096e-08
-5.38501e-08
-5.46795e-08
-5.51824e-08
-5.53515e-08
-5.52109e-08
-5.48471e-08
-5.44415e-08
-5.42851e-08
-5.47562e-08
-5.62361e-08
-5.89575e-08
-6.28015e-08
-6.71094e-08
-7.06111e-08
-7.15854e-08
-6.83166e-08
-5.97796e-08
-4.63131e-08
-2.99064e-08
-1.37839e-08
-1.27399e-09
5.58459e-09
6.92213e-09
4.79056e-09
1.87022e-09
-8.75979e-12
-5.08622e-10
-2.87505e-10
-3.76911e-11
3.36585e-11
-8.09696e-15
8.1645e-14
1.75659e-13
2.48301e-13
2.34402e-13
7.22056e-14
-2.65554e-13
-7.44413e-13
-1.26062e-12
-1.65987e-12