# vtk DataFile Version 3.0
Malha 2D com triângulos e temperatura
ASCII
DATASET UNSTRUCTURED_GRID

POINTS 10000 double
0 0 0
10 0 0
10 10 0
0 10 0
0.10101 0 0
0.20202 0 0
0.30303 0 0
0.40404 0 0
0.505051 0 0
0.606061 0 0
0.707071 0 0
0.808081 0 0
0.909091 0 0
1.0101 0 0
1.11111 0 0
1.21212 0 0
1.31313 0 0
1.41414 0 0
1.51515 0 0
1.61616 0 0
1.71717 0 0
1.81818 0 0
1.91919 0 0
2.0202 0 0
2.12121 0 0
2.22222 0 0
2.32323 0 0
2.42424 0 0
2.52525 0 0
2.62626 0 0
2.72727 0 0
2.82828 0 0
2.92929 0 0
3.0303 0 0
3.13131 0 0
3.23232 0 0
3.33333 0 0
3.43434 0 0
3.53535 0 0
3.63636 0 0
3.73737 0 0
3.83838 0 0
3.93939 0 0
4.0404 0 0
4.14141 0 0
4.24242 0 0
4.34343 0 0
4.44444 0 0
4.54545 0 0
4.64646 0 0
4.74747 0 0
4.84848 0 0
4.94949 0 0
5.05051 0 0
5.15152 0 0
5.25253 0 0
5.35354 0 0
5.45455 0 0
5.55556 0 0
5.65657 0 0
5.75758 0 0
5.85859 0 0
5.9596 0 0
6.06061 0 0
6.16162 0 0
6.26263 0 0
6.36364 0 0
6.46465 0 0
6.56566 0 0
6.66667 0 0
6.76768 0 0
6.86869 0 0
6.9697 0 0
7.07071 0 0
7.17172 0 0
7.27273 0 0
7.37374 0 0
7.47475 0 0
7.57576 0 0
7.67677 0 0
7.77778 0 0
7.87879 0 0
7.9798 0 0
8.08081 0 0
8.18182 0 0
8.28283 0 0
8.38384 0 0
8.48485 0 0
8.58586 0 0
8.68687 0 0
8.78788 0 0
8.88889 0 0
8.9899 0 0
9.09091 0 0
9.19192 0 0
9.29293 0 0
9.39394 0 0
9.49495 0 0
9.59596 0 0
9.69697 0 0
9.79798 0 0
9.89899 0 0
10 0.10101 0
10 0.20202 0
10 0.30303 0
10 0.40404 0
10 0.505051 0
10 0.606061 0
10 0.707071 0
10 0.808081 0
10 0.909091 0
10 1.0101 0
10 1.11111 0
10 1.21212 0
10 1.31313 0
10 1.41414 0
10 1.51515 0
10 1.61616 0
10 1.71717 0
10 1.81818 0
10 1.91919 0
10 2.0202 0
10 2.12121 0
10 2.22222 0
10 2.32323 0
10 2.42424 0
10 2.52525 0
10 2.62626 0
10 2.72727 0
10 2.82828 0
10 2.92929 0
10 3.0303 0
10 3.13131 0
10 3.23232 0
10 3.33333 0
10 3.43434 0
10 3.53535 0
10 3.63636 0
10 3.73737 0
10 3.83838 0
10 3.93939 0
10 4.0404 0
10 4.14141 0
10 4.24242 0
10 4.34343 0
10 4.44444 0
10 4.54545 0
10 4.64646 0
10 4.74747 0
10 4.84848 0
10 4.94949 0
10 5.05051 0
10 5.15152 0
10 5.25253 0
10 5.35354 0
10 5.45455 0
10 5.55556 0
10 5.65657 0
10 5.75758 0
10 5.85859 0
10 5.9596 0
10 6.06061 0
10 6.16162 0
10 6.26263 0
10 6.36364 0
10 6.46465 0
10 6.56566 0
10 6.66667 0
10 6.76768 0
10 6.86869 0
10 6.9697 0
10 7.07071 0
10 7.17172 0
10 7.27273 0
10 7.37374 0
10 7.47475 0
10 7.57576 0
10 7.67677 0
10 7.77778 0
10 7.87879 0
10 7.9798 0
10 8.08081 0
10 8.18182 0
10 8.28283 0
10 8.38384 0
10 8.48485 0
10 8.58586 0
10 8.68687 0
10 8.78788 0
10 8.88889 0
10 8.9899 0
10 9.09091 0
10 9.19192 0
10 9.29293 0
10 9.39394 0
10 9.49495 0
10 9.59596 0
10 9.69697 0
10 9.79798 0
10 9.89899 0
9.89899 10 0
9.79798 10 0
9.69697 10 0
9.59596 10 0
9.49495 10 0
9.39394 10 0
9.29293 10 0
9.19192 10 0
9.09091 10 0
8.9899 10 0
8.88889 10 0
8.78788 10 0
8.68687 10 0
8.58586 10 0
8.48485 10 0
8.38384 10 0
8.28283 10 0
8.18182 10 0
8.08081 10 0
7.9798 10 0
7.87879 10 0
7.77778 10 0
7.67677 10 0
7.57576 10 0
7.47475 10 0
7.37374 10 0
7.27273 10 0
7.17172 10 0
7.07071 10 0
6.9697 10 0
6.86869 10 0
6.76768 10 0
6.66667 10 0
6.56566 10 0
6.46465 10 0
6.36364 10 0
6.26263 10 0
6.16162 10 0
6.06061 10 0
5.9596 10 0
5.85859 10 0
5.75758 10 0
5.65657 10 0
5.55556 10 0
5.45455 10 0
5.35354 10 0
5.25253 10 0
5.15152 10 0
5.05051 10 0
4.94949 10 0
4.84848 10 0
4.74747 10 0
4.64646 10 0
4.54545 10 0
4.44444 10 0
4.34343 10 0
4.24242 10 0
4.14141 10 0
4.0404 10 0
3.93939 10 0
3.83838 10 0
3.73737 10 0
3.63636 10 0
3.53535 10 0
3.43434 10 0
3.33333 10 0
3.23232 10 0
3.13131 10 0
3.0303 10 0
2.92929 10 0
2.82828 10 0
2.72727 10 0
2.62626 10 0
2.52525 10 0
2.42424 10 0
2.32323 10 0
2.22222 10 0
2.12121 10 0
2.0202 10 0
1.91919 10 0
1.81818 10 0
1.71717 10 0
1.61616 10 0
1.51515 10 0
1.41414 10 0
1.31313 10 0
1.21212 10 0
1.11111 10 0
1.0101 10 0
0.909091 10 0
0.808081 10 0
0.707071 10 0
0.606061 10 0
0.505051 10 0
0.40404 10 0
0.30303 10 0
0.20202 10 0
0.10101 10 0
0 9.89899 0
0 9.79798 0
0 9.69697 0
0 9.59596 0
0 9.49495 0
0 9.39394 0
0 9.29293 0
0 9.19192 0
0 9.09091 0
0 8.9899 0
0 8.88889 0
0 8.78788 0
0 8.68687 0
0 8.58586 0
0 8.48485 0
0 8.38384 0
0 8.28283 0
0 8.18182 0
0 8.08081 0
0 7.9798 0
0 7.87879 0
0 7.77778 0
0 7.67677 0
0 7.57576 0
0 7.47475 0
0 7.37374 0
0 7.27273 0
0 7.17172 0
0 7.07071 0
0 6.9697 0
0 6.86869 0
0 6.76768 0
0 6.66667 0
0 6.56566 0
0 6.46465 0
0 6.36364 0
0 6.26263 0
0 6.16162 0
0 6.06061 0
0 5.9596 0
0 5.85859 0
0 5.75758 0
0 5.65657 0
0 5.55556 0
0 5.45455 0
0 5.35354 0
0 5.25253 0
0 5.15152 0
0 5.05051 0
0 4.94949 0
0 4.84848 0
0 4.74747 0
0 4.64646 0
0 4.54545 0
0 4.44444 0
0 4.34343 0
0 4.24242 0
0 4.14141 0
0 4.0404 0
0 3.93939 0
0 3.83838 0
0 3.73737 0
0 3.63636 0
0 3.53535 0
0 3.43434 0
0 3.33333 0
0 3.23232 0
0 3.13131 0
0 3.0303 0
0 2.92929 0
0 2.82828 0
0 2.72727 0
0 2.62626 0
0 2.52525 0
0 2.42424 0
0 2.32323 0
0 2.22222 0
0 2.12121 0
0 2.0202 0
0 1.91919 0
0 1.81818 0
0 1.71717 0
0 1.61616 0
0 1.51515 0
0 1.41414 0
0 1.31313 0
0 1.21212 0
0 1.11111 0
0 1.0101 0
0 0.909091 0
0 0.808081 0
0 0.707071 0
0 0.606061 0
0 0.505051 0
0 0.40404 0
0 0.30303 0
0 0.20202 0
0 0.10101 0
0.10101 0.10101 0
0.10101 0.20202 0
0.10101 0.30303 0
0.10101 0.40404 0
0.10101 0.505051 0
0.10101 0.606061 0
0.10101 0.707071 0
0.10101 0.808081 0
0.10101 0.909091 0
0.10101 1.0101 0
0.10101 1.11111 0
0.10101 1.21212 0
0.10101 1.31313 0
0.10101 1.41414 0
0.10101 1.51515 0
0.10101 1.61616 0
0.10101 1.71717 0
0.10101 1.81818 0
0.10101 1.91919 0
0.10101 2.0202 0
0.10101 2.12121 0
0.10101 2.22222 0
0.10101 2.32323 0
0.10101 2.42424 0
0.10101 2.52525 0
0.10101 2.62626 0
0.10101 2.72727 0
0.10101 2.82828 0
0.10101 2.92929 0
0.10101 3.0303 0
0.10101 3.13131 0
0.10101 3.23232 0
0.10101 3.33333 0
0.10101 3.43434 0
0.10101 3.53535 0
0.10101 3.63636 0
0.10101 3.73737 0
0.10101 3.83838 0
0.10101 3.93939 0
0.10101 4.0404 0
0.10101 4.14141 0
0.10101 4.24242 0
0.10101 4.34343 0
0.10101 4.44444 0
0.10101 4.54545 0
0.10101 4.64646 0
0.10101 4.74747 0
0.10101 4.84848 0
0.10101 4.94949 0
0.10101 5.05051 0
0.10101 5.15152 0
0.10101 5.25253 0
0.10101 5.35354 0
0.10101 5.45455 0
0.10101 5.55556 0
0.10101 5.65657 0
0.10101 5.75758 0
0.10101 5.85859 0
0.10101 5.9596 0
0.10101 6.06061 0
0.10101 6.16162 0
0.10101 6.26263 0
0.10101 6.36364 0
0.10101 6.46465 0
0.10101 6.56566 0
0.10101 6.66667 0
0.10101 6.76768 0
0.10101 6.86869 0
0.10101 6.9697 0
0.10101 7.07071 0
0.10101 7.17172 0
0.10101 7.27273 0
0.10101 7.37374 0
0.10101 7.47475 0
0.10101 7.57576 0
0.10101 7.67677 0
0.10101 7.77778 0
0.10101 7.87879 0
0.10101 7.9798 0
0.10101 8.08081 0
0.10101 8.18182 0
0.10101 8.28283 0
0.10101 8.38384 0
0.10101 8.48485 0
0.10101 8.58586 0
0.10101 8.68687 0
0.10101 8.78788 0
0.10101 8.88889 0
0.10101 8.9899 0
0.10101 9.09091 0
0.10101 9.19192 0
0.10101 9.29293 0
0.10101 9.39394 0
0.10101 9.49495 0
0.10101 9.59596 0
0.10101 9.69697 0
0.10101 9.79798 0
0.10101 9.89899 0
0.20202 0.10101 0
0.20202 0.20202 0
0.20202 0.30303 0
0.20202 0.40404 0
0.20202 0.505051 0
0.20202 0.606061 0
0.20202 0.707071 0
0.20202 0.808081 0
0.20202 0.909091 0
0.20202 1.0101 0
0.20202 1.11111 0
0.20202 1.21212 0
0.20202 1.31313 0
0.20202 1.41414 0
0.20202 1.51515 0
0.20202 1.61616 0
0.20202 1.71717 0
0.20202 1.81818 0
0.20202 1.91919 0
0.20202 2.0202 0
0.20202 2.12121 0
0.20202 2.22222 0
0.20202 2.32323 0
0.20202 2.42424 0
0.20202 2.52525 0
0.20202 2.62626 0
0.20202 2.72727 0
0.20202 2.82828 0
0.20202 2.92929 0
0.20202 3.0303 0
0.20202 3.13131 0
0.20202 3.23232 0
0.20202 3.33333 0
0.20202 3.43434 0
0.20202 3.53535 0
0.20202 3.63636 0
0.20202 3.73737 0
0.20202 3.83838 0
0.20202 3.93939 0
0.20202 4.0404 0
0.20202 4.14141 0
0.20202 4.24242 0
0.20202 4.34343 0
0.20202 4.44444 0
0.20202 4.54545 0
0.20202 4.64646 0
0.20202 4.74747 0
0.20202 4.84848 0
0.20202 4.94949 0
0.20202 5.05051 0
0.20202 5.15152 0
0.20202 5.25253 0
0.20202 5.35354 0
0.20202 5.45455 0
0.20202 5.55556 0
0.20202 5.65657 0
0.20202 5.75758 0
0.20202 5.85859 0
0.20202 5.9596 0
0.20202 6.06061 0
0.20202 6.16162 0
0.20202 6.26263 0
0.20202 6.36364 0
0.20202 6.46465 0
0.20202 6.56566 0
0.20202 6.66667 0
0.20202 6.76768 0
0.20202 6.86869 0
0.20202 6.9697 0
0.20202 7.07071 0
0.20202 7.17172 0
0.20202 7.27273 0
0.20202 7.37374 0
0.20202 7.47475 0
0.20202 7.57576 0
0.20202 7.67677 0
0.20202 7.77778 0
0.20202 7.87879 0
0.20202 7.9798 0
0.20202 8.08081 0
0.20202 8.18182 0
0.20202 8.28283 0
0.20202 8.38384 0
0.20202 8.48485 0
0.20202 8.58586 0
0.20202 8.68687 0
0.20202 8.78788 0
0.20202 8.88889 0
0.20202 8.9899 0
0.20202 9.09091 0
0.20202 9.19192 0
0.20202 9.29293 0
0.20202 9.39394 0
0.20202 9.49495 0
0.20202 9.59596 0
0.20202 9.69697 0
0.20202 9.79798 0
0.20202 9.89899 0
0.30303 0.10101 0
0.30303 0.20202 0
0.30303 0.30303 0
0.30303 0.40404 0
0.30303 0.505051 0
0.30303 0.606061 0
0.30303 0.707071 0
0.30303 0.808081 0
0.30303 0.909091 0
0.30303 1.0101 0
0.30303 1.11111 0
0.30303 1.21212 0
0.30303 1.31313 0
0.30303 1.41414 0
0.30303 1.51515 0
0.30303 1.61616 0
0.30303 1.71717 0
0.30303 1.81818 0
0.30303 1.91919 0
0.30303 2.0202 0
0.30303 2.12121 0
0.30303 2.22222 0
0.30303 2.32323 0
0.30303 2.42424 0
0.30303 2.52525 0
0.30303 2.62626 0
0.30303 2.72727 0
0.30303 2.82828 0
0.30303 2.92929 0
0.30303 3.0303 0
0.30303 3.13131 0
0.30303 3.23232 0
0.30303 3.33333 0
0.30303 3.43434 0
0.30303 3.53535 0
0.30303 3.63636 0
0.30303 3.73737 0
0.30303 3.83838 0
0.30303 3.93939 0
0.30303 4.0404 0
0.30303 4.14141 0
0.30303 4.24242 0
0.30303 4.34343 0
0.30303 4.44444 0
0.30303 4.54545 0
0.30303 4.64646 0
0.30303 4.74747 0
0.30303 4.84848 0
0.30303 4.94949 0
0.30303 5.05051 0
0.30303 5.15152 0
0.30303 5.25253 0
0.30303 5.35354 0
0.30303 5.45455 0
0.30303 5.55556 0
0.30303 5.65657 0
0.30303 5.75758 0
0.30303 5.85859 0
0.30303 5.9596 0
0.30303 6.06061 0
0.30303 6.16162 0
0.30303 6.26263 0
0.30303 6.36364 0
0.30303 6.46465 0
0.30303 6.56566 0
0.30303 6.66667 0
0.30303 6.76768 0
0.30303 6.86869 0
0.30303 6.9697 0
0.30303 7.07071 0
0.30303 7.17172 0
0.30303 7.27273 0
0.30303 7.37374 0
0.30303 7.47475 0
0.30303 7.57576 0
0.30303 7.67677 0
0.30303 7.77778 0
0.30303 7.87879 0
0.30303 7.9798 0
0.30303 8.08081 0
[...]
CELL_DATA 9801
SCALARS Temperatura double 1
LOOKUP_TABLE default
3.43474e-14
1.8035e-15
-1.20835e-13
-4.21266e-13
-9.49768e-13
-1.55508e-12
-1.55444e-12
7.23744e-13
8.24452e-12
2.46698e-11
5.14792e-11
8.09827e-11
8.39935e-11
-6.02186e-12
-3.03345e-10
-9.53921e-10
-2.05684e-09
-3.4774e-09
-4.51604e-09
-3.45136e-09
2.90321e-09
1.9288e-08
5.11306e-08
1.01889e-07
1.67702e-07
2.28785e-07
2.37936e-07
1.08245e-07
-2.95478e-07
-1.15427e-06
-2.67185e-06
-5.02001e-06
-8.24312e-06
-1.21174e-05
-1.59681e-05
-1.84602e-05
-1.7389e-05
-9.50863e-06
9.55414e-06
4.52566e-05
0.000103925
0.000192343
0.000317139
0.000483993
0.000696716
0.000956292
0.00126
0.00160078
0.00196715
0.0023439
0.00271856
0.00312819
0.00356238
0.0040154
0.00447876
0.00494178
0.00539134
0.00581169
0.00618442
0.00648864
0.00670148
0.00679918
0.00675878
0.00656064
0.00619161
0.00564877
0.00494288
0.0041011
0.00316769
0.00220196
0.00127284
0.000450306
-0.000205317
-0.000653945
-0.000883722
-0.00091379
-0.000790419
-0.000576814
-0.00033896
-0.000131409
1.28467e-05
8.55375e-05
9.89102e-05
7.64021e-05
4.21551e-05
1.32572e-05
-3.11731e-06
-7.95289e-06
-6.1937e-06
-2.73872e-06
-3.25637e-07
5.25049e-07
4.45033e-07
1.55194e-07
-7.37232e-09
-3.33281e-08
-1.32805e-08
-1.46584e-10
1.75094e-09
-8.57855e-14
-3.34942e-13
-6.81022e-13
-9.69578e-13
-5.77454e-13
1.83948e-12
8.36834e-12
2.09082e-11
3.81743e-11
4.94768e-11
2.52958e-11
-9.16804e-11
-3.84227e-10
-9.25917e-10
-1.68392e-09
-2.33112e-09
-1.96982e-09
1.15171e-09
9.70675e-09
2.67277e-08
5.38213e-08
8.75361e-08
1.13566e-07
9.93487e-08
-1.28119e-08
-3.07739e-07
-8.87707e-07
-1.84244e-06
-3.19006e-06
-4.78291e-06
-6.17869e-06
-6.48693e-06
-4.2121e-06
2.87492e-06
1.78006e-05
4.4354e-05
8.69348e-05
0.000150287
0.000239149
0.000357889
0.000510187
0.000698865
0.000925898
0.00119265
0.00150027
0.00185016
0.00224431
0.00268542
0.00317638
0.00371931
0.00431477
0.00495738
0.00564071
0.00635624
0.00709301
0.00783747
0.00857332
0.00928135
0.00993914
0.010521
0.0109977
0.0113372
0.0115053
0.0114678
0.0111933
0.0106584
0.00985246
0.00878425
0.00748665
0.00601956
0.00446857
0.00293826
0.00153994
0.000375238
-0.000481489
-0.000997593
-0.00118909
-0.0011171
-0.000873739
-0.000560576
-0.000265893
-4.74349e-05
7.42761e-05
0.00011095
9.30967e-05
5.42536e-05
1.90216e-05
-1.6264e-06
-8.12866e-06
-6.49638e-06
-2.78058e-06
-2.58717e-07
5.40806e-07
4.01314e-07
1.1157e-07
-2.06234e-08
-2.75208e-08
-7.03967e-09
1.86124e-09
-4.40629e-13
-7.45129e-13
-5.94761e-13
9.47835e-13
5.50834e-12
1.47362e-11
2.80784e-11
3.79087e-11
2.18857e-11
-6.45838e-11
-2.86777e-10
-7.0208e-10
-1.27856e-09
-1.73736e-09
-1.32447e-09
1.40783e-09
8.59859e-09
2.24725e-08
4.36071e-08
6.75774e-08
7.98787e-08
4.99985e-08
-7.28592e-08
-3.57775e-07
-8.77172e-07
-1.67128e-06
-2.68558e-06
-3.67938e-06
-4.11127e-06
-3.01734e-06
1.09272e-06
1.02921e-05
2.72197e-05
5.4977e-05
9.69508e-05
0.000156598
0.000237252
0.000342018
0.000473799
0.00063549
0.000830267
0.00106192
0.00133511
0.00165537
0.00202887
0.00246193
0.00296026
0.00352832
0.00416874
0.0048821
0.00566509
0.00650918
0.00740727
0.00834839
0.00931888
0.0103023
0.0112794
0.0122282
0.013124
0.013939
0.0146422
0.0151991
0.015572
0.0157209
0.0156053
0.0151879
0.0144399
0.0133482
0.0119228
0.0102043
0.00826779
0.00622201
0.00420114
0.00234918
0.000798423
-0.000353857
-0.0010647
-0.0013547
-0.00130322
-0.00102936
-0.000663475
-0.000317433
-6.28169e-05
7.65155e-05
0.000116648
9.55187e-05
5.29081e-05
1.63255e-05
-3.42809e-06
-8.35818e-06
-5.76343e-06
-1.98749e-06
1.22708e-07
5.52432e-07
2.88572e-07
3.91329e-08
-3.14722e-08
-1.69233e-08
-3.77723e-11
-6.62856e-13
1.43266e-13
2.78829e-12
8.77533e-12
1.84629e-11
2.78714e-11
2.30158e-11
-2.65953e-11
-1.6925e-10
-4.5397e-10
-8.74721e-10
-1.25534e-09
-1.07461e-09
7.12314e-10
5.69518e-09
1.55707e-08
3.08227e-08
4.8118e-08
5.63494e-08
3.20821e-08
-6.34524e-08
-2.81906e-07
-6.74387e-07
-1.26102e-06
-1.97897e-06
-2.60895e-06
-2.68692e-06
-1.41624e-06
2.39904e-06
1.0378e-05
2.45304e-05
4.71703e-05
8.08006e-05
0.000128012
0.000191449
0.000273879
0.000378394
0.000508688
0.000669365
0.00086617
0.00110604
0.00139697
0.00174755
0.00216653
0.00266212
0.00324145
0.00391009
0.00467171
0.00552779
0.00647745
0.00751558
0.0086349
0.00982515
0.0110718
0.012357
0.0136594
0.0149549
0.0162168
0.0174158
0.0185207
0.019498
0.0203112
0.0209213
0.0212855
0.0213586
0.0210944
0.0204498
0.019391
0.0179021
0.0159954
0.013721
0.011173
0.00848888
0.00583984
0.00341066
0.00137157
-0.000152388
-0.00110688
-0.00152017
-0.00149622
-0.00118908
-0.000765024
-0.000364149
-7.33605e-05
8.11686e-05
0.000121942
9.59198e-05
4.95185e-05
1.25198e-05
-5.37589e-06
-8.29087e-06
-4.78901e-06
-1.17505e-06
4.03877e-07
4.88513e-07
1.69424e-07
-8.7676e-09
-2.73801e-08
-5.63433e-09
5.14843e-13
4.34623e-12
1.0692e-11
1.87987e-11
2.1508e-11
5.56695e-13
-7.69188e-11
-2.51716e-10
-5.41063e-10
-8.64549e-10
-9.19441e-10
-3.32737e-11
2.90426e-09
9.21868e-09
1.96177e-08
3.24089e-08
4.06364e-08
2.85938e-08
-3.07869e-08
-1.74782e-07
-4.41767e-07
-8.49469e-07
-1.35708e-06
-1.81122e-06
-1.88109e-06
-9.94516e-07
1.70966e-06
7.39797e-06
1.75208e-05
3.37606e-05
5.79747e-05
9.21703e-05
0.000138551
0.000199658
0.000278603
0.000379353
0.000506996
0.000667916
0.000869822
0.00112161
0.00143306
0.00181451
0.00227641
0.00282895
0.0034817
0.0042432
0.0051205
0.00611865
0.00724011
0.00848428
0.00984487
0.0113116
0.0128707
0.014503
0.0161847
0.0178879
0.0195811
0.0212304
0.0227997
0.0242521
0.0255496
0.0266536
0.0275244
0.0281202
0.0283963
0.0283049
0.0277969
0.0268248
0.0253509
0.0233568
0.0208572
0.0179118
0.0146352
0.0111966
0.00780898
0.00470366
0.00209441
0.000137713
-0.00110007
-0.00165777
-0.00166964
-0.00133125
-0.000850297
-0.000397958
-7.64484e-05
8.75907e-05
0.000125106
9.2967e-05
4.36471e-05
7.82023e-06
-7.09855e-06
-7.73207e-06
-3.58767e-06
-4.29188e-07
5.42608e-07
3.61711e-07
6.61016e-08
-2.81056e-08
-1.58882e-08
4.37264e-12
1.11571e-11
1.65459e-11
1.23326e-11
-2.13374e-11
-1.14681e-10
-2.94683e-10
-5.44136e-10
-7.21496e-10
-4.47813e-10
9.87316e-10
4.57111e-09
1.11419e-08
2.03167e-08
2.85824e-08
2.67095e-08
-2.64234e-09
-8.5235e-08
-2.50505e-07
-5.18186e-07
-8.73316e-07
-1.22892e-06
-1.37963e-06
-9.54078e-07
6.22771e-07
4.14699e-06
1.06282e-05
2.12645e-05
3.74194e-05
6.06315e-05
9.26858e-05
0.000135764
0.000192668
0.000267082
0.000363818
0.000489005
0.000650161
0.000856163
0.00111713
0.00144425
0.00184956
0.00234575
0.00294587
0.00366296
0.00450955
0.00549703
0.00663488
0.00792983
0.00938512
0.0109998
0.0127658
0.0146696
0.0166932
0.0188112
0.0209923
0.0231998
0.0253924
0.0275258
0.0295539
0.0314302
0.0331093
0.0345477
0.0357038
0.0365372
0.0370075
0.0370723
0.0366859
0.0357998
0.0343659
0.0323439
0.0297142
0.0264933
0.0227511
0.0186228
0.0143122
0.0100777
0.00620242
0.00294829
0.000506016
-0.00104661
-0.00176323
-0.00181508
-0.00144632
-0.000911184
-0.000413651
-6.98489e-05
9.60231e-05
0.000125714
8.6497e-05
3.56201e-05
2.74629e-06
-8.25817e-06
-6.64877e-06
-2.29233e-06
1.43769e-07
5.29631e-07
2.09401e-07
-6.76049e-10
-2.86371e-08
9.76135e-12
1.31539e-11
3.5203e-12
-3.73462e-11
-1.3431e-10
-2.997e-10
-4.88897e-10
-5.24175e-10
-4.88732e-12
1.72956e-09
5.44688e-09
1.14765e-08
1.85698e-08
2.21278e-08
1.2175e-08
-2.78418e-08
-1.19495e-07
-2.82462e-07
-5.19685e-07
-7.93304e-07
-9.92635e-07
-8.9891e-07
-1.5429e-07
1.75703e-06
5.51162e-06
1.19376e-05
2.20081e-05
3.68592e-05
5.78573e-05
8.67306e-05
0.000125763
0.000178028
0.000247627
0.000339893
0.000461532
0.000620702
0.000827038
0.00109165
0.00142708
0.00184729
0.00236748
0.00300388
0.00377338
0.00469292
0.00577881
0.00704581
0.00850619
0.0101687
0.0120375
0.0141114
0.0163802
0.0188266
0.0214274
0.0241496
0.0269526
0.0297886
0.0326037
0.0353402
0.0379379
0.040337
0.0424801
0.0443144
0.0457927
0.046874
0.047522
0.0477034
0.0473841
0.0465269
0.0450895
0.0430272
0.0403006
0.0368891
0.0328112
0.0281454
0.0230478
0.0177571
0.0125803
0.00785573
0.00389728
0.000931339
-0.000954881
-0.00183527
-0.00192565
-0.00152588
-0.000940872
-0.000407514
-5.27063e-05
0.000105815
0.000123068
7.65277e-05
2.60604e-05
-2.03424e-06
-8.55961e-06
-5.11616e-06
-1.08316e-06
4.66809e-07
3.97534e-07
7.701e-08
-3.54553e-08
1.09499e-11
-3.02203e-12
-4.57148e-11
-1.37218e-10
-2.78083e-10
-4.07416e-10
-3.36493e-10
3.15575e-10
2.11311e-09
5.59281e-09
1.06825e-08
1.56238e-08
1.5474e-08
6.84611e-10
-4.31355e-08
-1.32534e-07
-2.78572e-07
-4.72634e-07
-6.65602e-07
-7.42658e-07
-4.98398e-07
3.81988e-07
2.33142e-06
5.90065e-06
1.17579e-05
2.07043e-05
3.37249e-05
5.20896e-05
7.7509e-05
0.000112333
0.000159772
0.000224106
0.000310873
0.000427023
0.000581054
0.000783128
0.0010452
0.00138111
0.00180664
0.00233948
0.00299903
0.00380605
0.00478212
0.00594891
0.00732721
0.0089359
0.0107907
0.0129027
0.0152775
0.0179137
0.0207984
0.0239101
0.027219
0.0306832
0.0342509
0.0378608
0.0414437
0.0449249
0.0482266
0.0512713
0.0539849
0.0562999
0.0581586
0.059514
0.0603309
0.060584
0.0602543
0.0593244
0.0577732
0.0555719
0.0526848
0.0490761
0.0447259
0.0396532
0.0339435
0.0277714
0.0214102
0.0152162
0.00958556
0.00488589
0.00137915
-0.000841608
-0.00187755
-0.00199745
-0.00156373
-0.000934654
-0.000377855
-2.57676e-05
0.00011546
0.000116371
6.33971e-05
1.589e-05
-5.81075e-06
-7.85486e-06
-3.34189e-06
-1.48773e-07
5.25743e-07
2.15645e-07
-1.94272e-08
-1.11447e-12
-4.74387e-11
-1.28121e-10
-2.42572e-10
-3.24194e-10
-1.92463e-10
4.89979e-10
2.17975e-09
5.22194e-09
9.29559e-09
1.24699e-08
1.00139e-08
-6.51697e-09
-4.88986e-08
-1.29121e-07
-2.52055e-07
-4.03076e-07
-5.31232e-07
-5.30427e-07
-2.22528e-07
6.53898e-07
2.44818e-06
5.59968e-06
1.06478e-05
1.82643e-05
2.9323e-05
4.50137e-05
6.70002e-05
9.76081e-05
0.000140027
0.000198509
0.000278566
0.000387158
0.000532899
0.000726276
0.000979877
0.0013086
0.0017298
0.00226336
0.00293158
0.00375896
0.00477167
0.00599693
0.00746205
0.0091933
0.0112146
0.0135457
0.016201
0.0191875
0.0225035
0.0261334
0.0300504
0.034217
0.0385808
0.0430764
0.0476266
0.0521439
0.0565334
0.0606958
0.0645316
0.0679455
0.0708504
0.0731718
0.0748512
0.0758485
0.0761415
0.0757243
0.0746016
0.0727822
0.0702703
0.0670586
0.0631264
0.0584454
0.0529967
0.0467983
0.039939
0.0326086
0.0251121
0.0178547
0.0112908
0.00584205
0.00180395
-0.00073027
-0.0018977
-0.00202929
-0.00155615
-0.000890439
-0.000325487
8.40199e-06
0.000122684
0.000104953
4.78998e-05
6.27819e-06
-7.98001e-06
-6.23317e-06
-1.64086e-06
3.78551e-07
3.86925e-07
4.27345e-08
-3.27634e-11
-1.128e-10
-2.02898e-10
-2.52419e-10
-9.99825e-11
5.39167e-10
2.02358e-09
4.56362e-09
7.7303e-09
9.66937e-09
6.18855e-09
-9.79179e-09
-4.75539e-08
-1.15533e-07
-2.1488e-07
-3.2929e-07
-4.11978e-07
-3.72033e-07
-6.30512e-08
7.23916e-07
2.26404e-06
4.90445e-06
9.082e-06
1.5365e-05
2.45294e-05
3.76724e-05
5.63616e-05
8.28081e-05
0.000120054
0.000172172
0.000244474
0.000343749
0.000478528
0.000659386
0.000899255
0.00121374
0.00162136
0.00214376
0.00280572
0.00363503
0.0046622
0.00591987
0.00744199
0.00926266
0.0114147
0.013928
0.0168276
0.0201313
0.0238482
0.0279763
0.0324967
0.0373765
0.0425692
0.0480096
0.0536167
0.0592943
0.0649333
0.0704151
0.075615
0.0804078
0.0846722
0.088297
0.0911859
0.0932632
0.0944772
0.0948026
0.0942399
0.0928127
0.0905602
0.0875276
0.0837542
0.0792626
0.0740531
0.068108
0.0614095
0.0539715
0.0458812
0.0373381
0.0286749
0.0203431
0.0128543
0.00668289
0.00215371
-0.00064776
-0.00190517
-0.00202156
-0.00150165
-0.000809003
-0.000253971
4.54844e-05
0.000124802
8.86364e-05
3.13906e-05
-1.5161e-06
-8.23965e-06
-4.06017e-06
-3.46128e-07
4.89888e-07
1.69847e-07
-7.95034e-11
-1.65971e-10
-1.96011e-10
-5.1344e-11
5.01864e-10
1.74203e-09
3.7977e-09
6.23471e-09
7.4232e-09
3.84828e-09
-1.02106e-08
-4.19226e-08
-9.72094e-08
-1.75421e-07
-2.61313e-07
-3.15233e-07
-2.63335e-07
1.01474e-08
6.67755e-07
1.92269e-06
4.04733e-06
7.39506e-06
1.24449e-05
1.98759e-05
3.06739e-05
4.62667e-05
6.86823e-05
0.000100727
0.000146183
0.000210038
0.000298754
0.000420584
0.000585933
0.000807752
0.00110193
0.00148768
0.00198783
0.00262902
0.00344179
0.00446039
0.00572243
0.00726819
0.00913958
0.0113787
0.0140263
0.0171193
0.0206888
0.024757
0.0293354
0.0344216
0.0399932
0.04601
0.0524149
0.0591279
0.0660495
0.0730614
0.0800292
0.0868064
0.0932391
0.0991719
0.104454
0.108945
0.112523
0.11509
0.116579
0.116954
0.116215
0.114397
0.111565
0.107804
0.103204
0.0978505
0.091803
0.0850882
0.0777011
0.0696233
0.0608603
0.051491
0.0417178
0.0318955
0.0225183
0.0141528
0.00732295
0.00237647
-0.000619501
-0.00190804
-0.00197465
-0.00140058
-0.000694141
-0.000169646
7.98153e-05
0.000119356
6.81494e-05
1.575e-05
-6.43561e-06
-6.76573e-06
-1.90812e-06
3.3117e-07
3.53828e-07
-1.2163e-10
-1.54924e-10
-3.27982e-11
4.17004e-10
1.41271e-09
3.04027e-09
4.92167e-09
5.71596e-09
2.5982e-09
-8.93465e-09
-3.43721e-08
-7.79669e-08
-1.38517e-07
-2.03214e-07
-2.40355e-07
-1.92348e-07
2.96838e-08
5.4956e-07
1.53023e-06
3.18359e-06
5.7932e-06
9.75728e-06
1.56572e-05
2.43528e-05
3.71034e-05
5.57111e-05
8.26889e-05
0.000121458
0.000176587
0.000254082
0.000361734
0.00050953
0.000710102
0.000979202
0.00133618
0.00180444
0.00241178
0.00319068
0.00417834
0.00541655
0.00695121
0.0088315
0.0111087
0.0138342
0.017058
0.0208254
0.0251745
0.030133
0.0357148
0.0419176
0.0487147
0.0560577
0.0638769
0.0720757
0.0805326
0.0891037
0.0976253
0.105919
0.113796
0.121067
0.127546
0.133062
0.137462
0.140623
0.142458
0.142916
0.141994
0.139729
0.136204
0.131534
0.125861
0.119332
0.112084
0.10422
0.0957963
0.0868201
0.0772698
0.0671361
0.0564818
0.0455039
0.0345729
0.0242218
0.0150693
0.00768418
0.00242827
-0.000663622
-0.00190942
-0.00188747
-0.00125503
-0.000552889
-8.13825e-05
0.000105222
0.000104989
4.54363e-05
3.0881e-06
-8.01305e-06
-4.2616e-06
-3.47036e-07
5.28538e-07
-1.28334e-10
-3.18168e-11
3.15459e-10
1.08789e-09
2.35439e-09
3.82013e-09
4.44035e-09
2.022e-09
-6.90993e-09
-2.65509e-08
-6.00784e-08
-1.06418e-07
-1.55615e-07
-1.83476e-07
-1.46533e-07
2.18099e-08
4.14199e-07
1.1535e-06
2.40263e-06
4.38592e-06
7.4279e-06
1.20134e-05
1.88707e-05
2.90775e-05
4.41898e-05
6.63984e-05
9.87212e-05
0.000145242
0.00021141
0.000304405
0.000433571
0.00061091
0.000851625
0.00117469
0.00160341
0.00216598
0.00289592
0.00383237
0.00502023
0.00650994
0.00835697
0.0106208
0.0133633
0.0166471
0.0205324
0.0250743
0.0303194
0.0363012
0.0430372
0.0505248
0.0587326
0.0676029
0.0770521
0.0869637
0.0971916
0.107562
0.117878
0.127923
0.137471
0.146291
0.154159
0.160866
0.166228
0.170093
0.172349
0.172933
0.171831
0.169082
0.164779
0.159061
0.152109
0.144127
0.135327
0.125901
0.116
0.105709
0.0950457
0.0839803
0.0724802
0.0605827
0.0484712
0.0365256
0.0253143
0.0155054
0.00770657
0.00228152
-0.000785248
-0.00190454
-0.00175682
-0.00106935
-0.000395817
1.38907e-07
0.000116349
8.23582e-05
2.35892e-05
-4.86436e-06
-6.69593e-06
-1.75432e-06
5.42992e-07
-7.01942e-11
2.18424e-10
7.97819e-10
1.76724e-09
2.91809e-09
3.4754e-09
1.7885e-09
-4.77925e-09
-1.94353e-08
-4.46566e-08
-7.97759e-08
-1.17552e-07
-1.4024e-07
-1.15949e-07
4.17581e-09
2.88302e-07
8.27732e-07
1.74584e-06
3.21682e-06
5.49898e-06
8.98578e-06
1.42765e-05
2.22677e-05
3.42669e-05
5.21362e-05
7.84727e-05
0.00011684
0.000172065
0.0002506
0.000360971
0.000514292
0.000724855
0.00101077
0.00139463
0.00190424
0.00257319
0.00344147
0.00455581
0.00596983
0.00774381
0.00994407
0.0126418
0.0159111
0.019827
0.0244619
0.029882
0.0361432
0.0432864
0.0513328
0.0602796
0.0700906
0.0806976
0.0920011
0.103862
0.116107
0.128528
0.140889
0.152933
0.164388
0.174979
0.184436
0.19251
0.198977
0.203657
0.206412
0.207163
0.205887
0.202623
0.197474
0.190596
0.182201
0.172541
0.16189
0.150527
0.1387
0.126606
0.114357
0.101975
0.0894141
0.0766086
0.0635608
0.0504323
0.037608
0.02569
0.0153935
0.007358
0.0019323
-0.000972263
-0.00187973
-0.00157856
-0.00085157
-0.000237081
6.38926e-05
0.000110369
5.4682e-05
6.16165e-06
-7.53223e-06
-3.83866e-06
1.63706e-07
6.55359e-11
5.59835e-10
1.28475e-09
2.18948e-09
2.7228e-09
1.67914e-09
-2.90875e-09
-1.34896e-08
-3.20584e-08
-5.83961e-08
-8.75576e-08
-1.07e-07
-9.39183e-08
-1.31746e-08
1.84567e-07
5.66086e-07
1.22315e-06
2.28813e-06
3.96145e-06
6.55372e-06
1.05445e-05
1.66594e-05
2.59693e-05
4.00177e-05
6.09861e-05
9.19106e-05
0.000136962
0.000201799
0.000294007
0.00042362
0.000603729
0.000851172
0.00118729
0.00163874
0.00223829
0.00302561
0.00404789
0.00536038
0.00702644
0.0091174
0.0117118
0.0148938
0.0187516
0.0233739
0.0288468
0.0352493
0.0426478
0.0510914
0.0606059
0.0711883
0.0827971
0.095353
0.108738
0.122789
0.137301
0.152029
0.166693
0.180988
0.194593
0.207181
0.218433
0.228051
0.235773
0.241381
0.244711
0.245667
0.244219
0.240408
0.234345
0.226208
0.216236
0.204718
0.191982
0.178374
0.164237
0.149875
0.135521
0.121308
0.107255
0.0932868
0.0792966
0.0652412
0.0512541
0.0377239
0.0252876
0.0147068
0.00664202
0.00140534
-0.00119397
-0.00181421
-0.00135061
-0.000615165
-9.35784e-05
0.000100921
8.86081e-05
2.73761e-05
-4.14411e-06
-6.01049e-06
-8.62846e-07
2.64701e-10
9.0868e-10
1.6071e-09
2.11612e-09
1.57489e-09
-1.45687e-09
-8.83822e-09
-2.22018e-08
-4.16983e-08
-6.41781e-08
-8.10925e-08
-7.65387e-08
-2.57206e-08
1.06481e-07
3.68085e-07
8.26012e-07
1.57851e-06
2.77704e-06
4.66008e-06
7.60096e-06
1.21718e-05
1.92274e-05
3.00161e-05
4.63263e-05
7.06824e-05
0.000106602
0.000158926
0.000234239
0.000341371
0.000492014
0.000701426
0.000989239
0.00138035
0.00190586
0.00260403
0.0035212
0.00471256
0.00624268
0.00818575
0.0106253
0.0136533
0.0173686
0.0218745
0.0272753
0.0336725
0.0411588
0.0498129
0.059693
0.0708298
0.0832207
0.0968186
0.111532
0.127223
0.143701
0.160728
0.178015
0.195236
0.212033
0.22803
0.242842
0.256096
0.26744
0.276565
0.283215
0.287197
0.288395
0.286773
0.282375
0.275328
0.265833
0.254157
0.240629
0.225621
0.209538
0.192792
0.175783
0.158861
0.142286
0.1262
0.110608
0.0953939
0.0803969
0.0655209
0.0508685
0.0368351
0.0240982
0.0134649
0.00560226
0.000755055
-0.00140396
-0.00168548
-0.00107765
-0.000380088
1.75551e-05
0.000107404
5.72113e-05
6.38548e-06
-6.92231e-06
-2.6658e-06
4.86666e-10
1.15824e-09
1.61579e-09
1.42855e-09
-4.46756e-10
-5.405e-09
-1.47812e-08
-2.89762e-08
-4.61547e-08
-6.0716e-08
-6.18498e-08
-3.23905e-08
5.22456e-08
2.25981e-07
5.36611e-07
1.05528e-06
1.8934e-06
3.22907e-06
5.34516e-06
8.68105e-06
1.39022e-05
2.19935e-05
3.43861e-05
5.31283e-05
8.11151e-05
0.000122388
0.00018252
0.000269094
0.00039229
0.000565588
0.00080659
0.00113795
0.00158841
0.0021939
0.00299865
0.00405623
0.00543052
0.00719627
0.00943942
0.0122568
0.0157551
0.0200491
0.0252588
0.0315056
0.0389075
0.0475728
0.0575936
0.069038
0.0819427
0.0963053
0.112073
0.129141
0.147351
0.166482
0.186259
0.206347
0.22637
0.245911
0.264532
0.281789
0.297244
0.31049
0.321166
0.32897
0.333681
0.33516
0.333362
0.32834
0.320235
0.309278
0.295774
0.280093
0.262653
0.24391
0.224338
0.204408
0.184562
0.165181
0.14654
0.128775
0.11186
0.0956274
0.0798509
0.0643759
0.0492768
0.034965
0.0221681
0.0117369
0.00432248
6.15892e-05
-0.00154777
-0.00147759
-0.00077554
-0.000171482
8.33851e-05
8.72654e-05
2.57812e-05
-4.49669e-06
-5.03336e-06
6.75645e-10
1.21449e-09
1.23558e-09
1.74341e-10
-3.01272e-09
-9.401e-09
-1.9523e-08
-3.24486e-08
-4.46742e-08
-4.90514e-08
-3.39308e-08
1.76062e-08
1.29101e-07
3.33969e-07
6.82459e-07
1.25429e-06
2.17887e-06
3.66474e-06
6.04071e-06
9.81186e-06
1.57364e-05
2.49318e-05
3.90202e-05
6.03268e-05
9.21433e-05
0.000139072
0.000207464
0.000305967
0.000446193
0.000643526
0.000918061
0.00129568
0.00180922
0.00249979
0.00341797
0.00462511
0.00619435
0.00821138
0.0107748
0.0139956
0.0179965
0.0229092
0.0288719
0.0360243
0.0445025
0.0544315
0.065918
0.0790412
0.0938442
0.110325
0.128426
0.148027
0.168948
0.190938
0.213679
0.23679
0.259837
0.282344
0.303806
0.32371
0.341554
0.356867
0.369233
0.378303
0.383818
0.385618
0.383649
0.377968
0.368739
0.356223
0.340767
0.322793
0.302772
0.281214
0.258648
0.235605
0.212598
0.190096
0.16849
0.148054
0.128898
0.110953
0.0939845
0.0776918
0.061861
0.046548
0.0321968
0.0195979
0.00963941
0.00292132
-0.000578996
-0.00157526
-0.00119058
-0.000473243
-1.47209e-05
0.000100587
5.24159e-05