# vtk DataFile Version 3.0
Malha 2D com triângulos e temperatura
ASCII
DATASET UNSTRUCTURED_GRID

POINTS 10000 double
0 0 0
10 0 0
10 10 0
0 10 0
0.10101 0 0
0.20202 0 0
0.30303 0 0
0.40404 0 0
0.505051 0 0
0.606061 0 0
0.707071 0 0
0.808081 0 0
0.909091 0 0
1.0101 0 0
1.11111 0 0
1.21212 0 0
1.31313 0 0
1.41414 0 0
1.51515 0 0
1.61616 0 0
1.71717 0 0
1.81818 0 0
1.91919 0 0
2.0202 0 0
2.12121 0 0
2.22222 0 0
2.32323 0 0
2.42424 0 0
2.52525 0 0
2.62626 0 0
2.72727 0 0
2.82828 0 0
2.92929 0 0
3.0303 0 0
3.13131 0 0
3.23232 0 0
3.33333 0 0
3.43434 0 0
3.53535 0 0
3.63636 0 0
3.73737 0 0
3.83838 0 0
3.93939 0 0
4.0404 0 0
4.14141 0 0
4.24242 0 0
4.34343 0 0
4.44444 0 0
4.54545 0 0
4.64646 0 0
4.74747 0 0
4.84848 0 0
4.94949 0 0
5.05051 0 0
5.15152 0 0
5.25253 0 0
5.35354 0 0
5.45455 0 0
5.55556 0 0
5.65657 0 0
5.75758 0 0
5.85859 0 0
5.9596 0 0
6.06061 0 0
6.16162 0 0
6.26263 0 0
6.36364 0 0
6.46465 0 0
6.56566 0 0
6.66667 0 0
6.76768 0 0
6.86869 0 0
6.9697 0 0
7.07071 0 0
7.17172 0 0
7.27273 0 0
7.37374 0 0
7.47475 0 0
7.57576 0 0
7.67677 0 0
7.77778 0 0
7.87879 0 0
7.9798 0 0
8.08081 0 0
8.18182 0 0
8.28283 0 0
8.38384 0 0
8.48485 0 0
8.58586 0 0
8.68687 0 0
8.78788 0 0
8.88889 0 0
8.9899 0 0
9.09091 0 0
9.19192 0 0
9.29293 0 0
9.39394 0 0
9.49495 0 0
9.59596 0 0
9.69697 0 0
9.79798 0 0
9.89899 0 0
10 0.10101 0
10 0.20202 0
10 0.30303 0
10 0.40404 0
10 0.505051 0
10 0.606061 0
10 0.707071 0
10 0.808081 0
10 0.909091 0
10 1.0101 0
10 1.11111 0
10 1.21212 0
10 1.31313 0
10 1.41414 0
10 1.51515 0
10 1.61616 0
10 1.71717 0
10 1.81818 0
10 1.91919 0
10 2.0202 0
10 2.12121 0
10 2.22222 0
10 2.32323 0
10 2.42424 0
10 2.52525 0
10 2.62626 0
10 2.72727 0
10 2.82828 0
10 2.92929 0
10 3.0303 0
10 3.13131 0
10 3.23232 0
10 3.33333 0
10 3.43434 0
10 3.53535 0
10 3.63636 0
10 3.73737 0
10 3.83838 0
10 3.93939 0
10 4.0404 0
10 4.14141 0
10 4.24242 0
10 4.34343 0
10 4.44444 0
10 4.54545 0
10 4.64646 0
10 4.74747 0
10 4.84848 0
10 4.94949 0
10 5.05051 0
10 5.15152 0
10 5.25253 0
10 5.35354 0
10 5.45455 0
10 5.55556 0
10 5.65657 0
10 5.75758 0
10 5.85859 0
10 5.9596 0
10 6.06061 0
10 6.16162 0
10 6.26263 0
10 6.36364 0
10 6.46465 0
10 6.56566 0
10 6.66667 0
10 6.76768 0
10 6.86869 0
10 6.9697 0
10 7.07071 0
10 7.17172 0
10 7.27273 0
10 7.37374 0
10 7.47475 0
10 7.57576 0
10 7.67677 0
10 7.77778 0
10 7.87879 0
10 7.9798 0
10 8.08081 0
10 8.18182 0
10 8.28283 0
10 8.38384 0
10 8.48485 0
10 8.58586 0
10 8.68687 0
10 8.78788 0
10 8.88889 0
10 8.9899 0
10 9.09091 0
10 9.19192 0
10 9.29293 0
10 9.39394 0
10 9.49495 0
10 9.59596 0
10 9.69697 0
10 9.79798 0
10 9.89899 0
9.89899 10 0
9.79798 10 0
9.69697 10 0
9.59596 10 0
9.49495 10 0
9.39394 10 0
9.29293 10 0
9.19192 10 0
9.09091 10 0
8.9899 10 0
8.88889 10 0
8.78788 10 0
8.68687 10 0
8.58586 10 0
8.48485 10 0
8.38384 10 0
8.28283 10 0
8.18182 10 0
8.08081 10 0
7.9798 10 0
7.87879 10 0
7.77778 10 0
7.67677 10 0
7.57576 10 0
7.47475 10 0
7.37374 10 0
7.27273 10 0
7.17172 10 0
7.07071 10 0
6.9697 10 0
6.86869 10 0
6.76768 10 0
6.66667 10 0
6.56566 10 0
6.46465 10 0
6.36364 10 0
6.26263 10 0
6.16162 10 0
6.06061 10 0
5.9596 10 0
5.85859 10 0
5.75758 10 0
5.65657 10 0
5.55556 10 0
5.45455 10 0
5.35354 10 0
5.25253 10 0
5.15152 10 0
5.05051 10 0
4.94949 10 0
4.84848 10 0
4.74747 10 0
4.64646 10 0
4.54545 10 0
4.44444 10 0
4.34343 10 0
4.24242 10 0
4.14141 10 0
4.0404 10 0
3.93939 10 0
3.83838 10 0
3.73737 10 0
3.63636 10 0
3.53535 10 0
3.43434 10 0
3.33333 10 0
3.23232 10 0
3.13131 10 0
3.0303 10 0
2.92929 10 0
2.82828 10 0
2.72727 10 0
2.62626 10 0
2.52525 10 0
2.42424 10 0
2.32323 10 0
2.22222 10 0
2.12121 10 0
2.0202 10 0
1.91919 10 0
1.81818 10 0
1.71717 10 0
1.61616 10 0
1.51515 10 0
1.41414 10 0
1.31313 10 0
1.21212 10 0
1.11111 10 0
1.0101 10 0
0.909091 10 0
0.808081 10 0
0.707071 10 0
0.606061 10 0
0.505051 10 0
0.40404 10 0
0.30303 10 0
0.20202 10 0
0.10101 10 0
0 9.89899 0
0 9.79798 0
0 9.69697 0
0 9.59596 0
0 9.49495 0
0 9.39394 0
0 9.29293 0
0 9.19192 0
0 9.09091 0
0 8.9899 0
0 8.88889 0
0 8.78788 0
0 8.68687 0
0 8.58586 0
0 8.48485 0
0 8.38384 0
0 8.28283 0
0 8.18182 0
0 8.08081 0
0 7.9798 0
0 7.87879 0
0 7.77778 0
0 7.67677 0
0 7.57576 0
0 7.47475 0
0 7.37374 0
0 7.27273 0
0 7.17172 0
0 7.07071 0
0 6.9697 0
0 6.86869 0
0 6.76768 0
0 6.66667 0
0 6.56566 0
0 6.46465 0
0 6.36364 0
0 6.26263 0
0 6.16162 0
0 6.06061 0
0 5.9596 0
0 5.85859 0
0 5.75758 0
0 5.65657 0
0 5.55556 0
0 5.45455 0
0 5.35354 0
0 5.25253 0
0 5.15152 0
0 5.05051 0
0 4.94949 0
0 4.84848 0
0 4.74747 0
0 4.64646 0
0 4.54545 0
0 4.44444 0
0 4.34343 0
0 4.24242 0
0 4.14141 0
0 4.0404 0
0 3.93939 0
0 3.83838 0
0 3.73737 0
0 3.63636 0
0 3.53535 0
0 3.43434 0
0 3.33333 0
0 3.23232 0
0 3.13131 0
0 3.0303 0
0 2.92929 0
0 2.82828 0
0 2.72727 0
0 2.62626 0
0 2.52525 0
0 2.42424 0
0 2.32323 0
0 2.22222 0
0 2.12121 0
0 2.0202 0
0 1.91919 0
0 1.81818 0
0 1.71717 0
0 1.61616 0
0 1.51515 0
0 1.41414 0
0 1.31313 0
0 1.21212 0
0 1.11111 0
0 1.0101 0
0 0.909091 0
0 0.808081 0
0 0.707071 0
0 0.606061 0
0 0.505051 0
0 0.40404 0
0 0.30303 0
0 0.20202 0
0 0.10101 0
0.10101 0.10101 0
0.10101 0.20202 0
0.10101 0.30303 0
0.10101 0.40404 0
0.10101 0.505051 0
0.10101 0.606061 0
0.10101 0.707071 0
0.10101 0.808081 0
0.10101 0.909091 0
0.10101 1.0101 0
0.10101 1.11111 0
0.10101 1.21212 0
0.10101 1.31313 0
0.10101 1.41414 0
0.10101 1.51515 0
0.10101 1.61616 0
0.10101 1.71717 0
0.10101 1.81818 0
0.10101 1.91919 0
0.10101 2.0202 0
0.10101 2.12121 0
0.10101 2.22222 0
0.10101 2.32323 0
0.10101 2.42424 0
0.10101 2.52525 0
0.10101 2.62626 0
0.10101 2.72727 0
0.10101 2.82828 0
0.10101 2.92929 0
0.10101 3.0303 0
0.10101 3.13131 0
0.10101 3.23232 0
0.10101 3.33333 0
0.10101 3.43434 0
0.10101 3.53535 0
0.10101 3.63636 0
0.10101 3.73737 0
0.10101 3.83838 0
0.10101 3.93939 0
0.10101 4.0404 0
0.10101 4.14141 0
0.10101 4.24242 0
0.10101 4.34343 0
0.10101 4.44444 0
0.10101 4.54545 0
0.10101 4.64646 0
0.10101 4.74747 0
0.10101 4.84848 0
0.10101 4.94949 0
0.10101 5.05051 0
0.10101 5.15152 0
0.10101 5.25253 0
0.10101 5.35354 0
0.10101 5.45455 0
0.10101 5.55556 0
0.10101 5.65657 0
0.10101 5.75758 0
0.10101 5.85859 0
0.10101 5.9596 0
0.10101 6.06061 0
0.10101 6.16162 0
0.10101 6.26263 0
0.10101 6.36364 0
0.10101 6.46465 0
0.10101 6.56566 0
0.10101 6.66667 0
0.10101 6.76768 0
0.10101 6.86869 0
0.10101 6.9697 0
0.10101 7.07071 0
0.10101 7.17172 0
0.10101 7.27273 0
0.10101 7.37374 0
0.10101 7.47475 0
0.10101 7.57576 0
0.10101 7.67677 0
0.10101 7.77778 0
0.10101 7.87879 0
0.10101 7.9798 0
0.10101 8.08081 0
0.10101 8.18182 0
0.10101 8.28283 0
0.10101 8.38384 0
0.10101 8.48485 0
0.10101 8.58586 0
0.10101 8.68687 0
0.10101 8.78788 0
0.10101 8.88889 0
0.10101 8.9899 0
0.10101 9.09091 0
0.10101 9.19192 0
0.10101 9.29293 0
0.10101 9.39394 0
0.10101 9.49495 0
0.10101 9.59596 0
0.10101 9.69697 0
0.10101 9.79798 0
0.10101 9.89899 0
0.20202 0.10101 0
0.20202 0.20202 0
0.20202 0.30303 0
0.20202 0.40404 0
0.20202 0.505051 0
0.20202 0.606061 0
0.20202 0.707071 0
0.20202 0.808081 0
0.20202 0.909091 0
0.20202 1.0101 0
0.20202 1.11111 0
0.20202 1.21212 0
0.20202 1.31313 0
0.20202 1.41414 0
0.20202 1.51515 0
0.20202 1.61616 0
0.20202 1.71717 0
0.20202 1.81818 0
0.20202 1.91919 0
0.20202 2.0202 0
0.20202 2.12121 0
0.20202 2.22222 0
0.20202 2.32323 0
0.20202 2.42424 0
0.20202 2.52525 0
0.20202 2.62626 0
0.20202 2.72727 0
0.20202 2.82828 0
0.20202 2.92929 0
0.20202 3.0303 0
0.20202 3.13131 0
0.20202 3.23232 0
0.20202 3.33333 0
0.20202 3.43434 0
0.20202 3.53535 0
0.20202 3.63636 0
0.20202 3.73737 0
0.20202 3.83838 0
0.20202 3.93939 0
0.20202 4.0404 0
0.20202 4.14141 0
0.20202 4.24242 0
0.20202 4.34343 0
0.20202 4.44444 0
0.20202 4.54545 0
0.20202 4.64646 0
0.20202 4.74747 0
0.20202 4.84848 0
0.20202 4.94949 0
0.20202 5.05051 0
0.20202 5.15152 0
0.20202 5.25253 0
0.20202 5.35354 0
0.20202 5.45455 0
0.20202 5.55556 0
0.20202 5.65657 0
0.20202 5.75758 0
0.20202 5.85859 0
0.20202 5.9596 0
0.20202 6.06061 0
0.20202 6.16162 0
0.20202 6.26263 0
0.20202 6.36364 0
0.20202 6.46465 0
0.20202 6.56566 0
0.20202 6.66667 0
0.20202 6.76768 0
0.20202 6.86869 0
0.20202 6.9697 0
0.20202 7.07071 0
0.20202 7.17172 0
0.20202 7.27273 0
0.20202 7.37374 0
0.20202 7.47475 0
0.20202 7.57576 0
0.20202 7.67677 0
0.20202 7.77778 0
0.20202 7.87879 0
0.20202 7.9798 0
0.20202 8.08081 0
0.20202 8.18182 0
0.20202 8.28283 0
0.20202 8.38384 0
0.20202 8.48485 0
0.20202 8.58586 0
0.20202 8.68687 0
0.20202 8.78788 0
0.20202 8.88889 0
0.20202 8.9899 0
0.20202 9.09091 0
0.20202 9.19192 0
0.20202 9.29293 0
0.20202 9.39394 0
0.20202 9.49495 0
0.20202 9.59596 0
0.20202 9.69697 0
0.20202 9.79798 0
0.20202 9.89899 0
0.30303 0.10101 0
0.30303 0.20202 0
0.30303 0.30303 0
0.30303 0.40404 0
0.30303 0.505051 0
0.30303 0.606061 0
0.30303 0.707071 0
0.30303 0.808081 0
0.30303 0.909091 0
0.30303 1.0101 0
0.30303 1.11111 0
0.30303 1.21212 0
0.30303 1.31313 0
0.30303 1.41414 0
0.30303 1.51515 0
0.30303 1.61616 0
0.30303 1.71717 0
0.30303 1.81818 0
0.30303 1.91919 0
0.30303 2.0202 0
0.30303 2.12121 0
0.30303 2.22222 0
0.30303 2.32323 0
0.30303 2.42424 0
0.30303 2.52525 0
0.30303 2.62626 0
0.30303 2.72727 0
0.30303 2.82828 0
0.30303 2.92929 0
0.30303 3.0303 0
0.30303 3.13131 0
0.30303 3.23232 0
0.30303 3.33333 0
0.30303 3.43434 0
0.30303 3.53535 0
0.30303 3.63636 0
0.30303 3.73737 0
0.30303 3.83838 0
0.30303 3.93939 0
0.30303 4.0404 0
0.30303 4.14141 0
0.30303 4.24242 0
0.30303 4.34343 0
0.30303 4.44444 0
0.30303 4.54545 0
0.30303 4.64646 0
0.30303 4.74747 0
0.30303 4.84848 0
0.30303 4.94949 0
0.30303 5.05051 0
0.30303 5.15152 0
0.30303 5.25253 0
0.30303 5.35354 0
0.30303 5.45455 0
0.30303 5.55556 0
0.30303 5.65657 0
0.30303 5.75758 0
0.30303 5.85859 0
0.30303 5.9596 0
0.30303 6.06061 0
0.30303 6.16162 0
0.30303 6.26263 0
0.30303 6.36364 0
0.30303 6.46465 0
0.30303 6.56566 0
0.30303 6.66667 0
0.30303 6.76768 0
0.30303 6.86869 0
0.30303 6.9697 0
0.30303 7.07071 0
0.30303 7.17172 0
0.30303 7.27273 0
0.30303 7.37374 0
0.30303 7.47475 0
0.30303 7.57576 0
0.30303 7.67677 0
0.30303 7.77778 0
0.30303 7.87879 0
0.30303 7.9798 0
0.30303 8.08081 0
[...]
CELL_DATA 9801
SCALARS Temperatura double 1
LOOKUP_TABLE default
6.22765e-10
1.07313e-09
9.81224e-10
-4.12494e-10
-4.01862e-09
-1.00166e-08
-1.64906e-08
-1.79588e-08
-4.99872e-09
3.32224e-08
1.01871e-07
1.88883e-07
2.5246e-07
2.1564e-07
-2.10086e-08
-5.3923e-07
-1.33535e-06
-2.24142e-06
-2.87066e-06
-2.63374e-06
-8.65787e-07
2.92802e-06
8.7526e-06
1.58282e-05
2.24522e-05
2.61351e-05
2.40583e-05
1.37939e-05
-5.88662e-06
-3.43541e-05
-6.88446e-05
-0.000104703
-0.000136135
-0.000157307
-0.000163516
-0.000152148
-0.000123186
-7.91826e-05
-2.47343e-05
3.43776e-05
9.21668e-05
0.000143329
0.000183888
0.000211521
0.000225585
0.000226891
0.00021733
0.000199448
0.000176044
0.000149852
0.000123286
0.000100281
8.02312e-05
6.31595e-05
4.8863e-05
3.71016e-05
2.75963e-05
2.00545e-05
1.41861e-05
9.71477e-06
6.38679e-06
3.97535e-06
2.28292e-06
1.14143e-06
4.11049e-07
-2.20039e-08
-2.48137e-07
-3.37365e-07
-3.42304e-07
-3.01065e-07
-2.39953e-07
-1.75928e-07
-1.18804e-07
-7.3179e-08
-4.0081e-08
-1.83371e-08
-5.65451e-09
5.79424e-10
2.76636e-09
2.8057e-09
1.99993e-09
1.10106e-09
4.38419e-10
7.26772e-11
-6.59636e-11
-7.93797e-11
-4.85471e-11
-1.77634e-11
-1.09895e-12
3.57244e-12
2.69358e-12
9.25985e-13
-1.4852e-14
-1.89622e-13
-9.15183e-14
-9.20713e-15
1.00716e-14
4.52945e-15
-2.2868e-16
8.90327e-10
-9.73047e-10
-4.81831e-09
-1.06744e-08
-1.58317e-08
-1.36404e-08
6.28223e-09
5.39803e-08
1.29524e-07
2.0876e-07
2.30413e-07
9.64101e-08
-2.99728e-07
-1.00662e-06
-1.91785e-06
-2.67792e-06
-2.65231e-06
-1.03282e-06
2.87612e-06
9.21277e-06
1.70744e-05
2.42017e-05
2.70655e-05
2.1516e-05
3.97493e-06
-2.70789e-05
-6.97817e-05
-0.000118227
-0.000162862
-0.000192032
-0.000194372
-0.000161456
-8.99646e-05
1.72281e-05
0.000151364
0.000299389
0.000446373
0.000578133
0.000683437
0.000755367
0.000791693
0.000794366
0.000768416
0.000720602
0.000658138
0.000587699
0.000514797
0.000443527
0.000376598
0.000315546
0.000261096
0.000213471
0.00017238
0.000137453
0.000108184
8.39965e-05
6.42857e-05
4.84474e-05
3.59029e-05
2.61152e-05
1.85987e-05
1.29247e-05
8.72196e-06
5.67513e-06
3.52093e-06
2.04317e-06
1.06719e-06
4.54209e-07
9.59334e-08
-9.04744e-08
-1.66871e-07
-1.7808e-07
-1.55319e-07
-1.1916e-07
-8.2077e-08
-5.06283e-08
-2.72955e-08
-1.2001e-08
-3.30284e-09
7.27643e-10
1.92899e-09
1.73982e-09
1.10218e-09
5.10783e-10
1.37902e-10
-2.65869e-11
-6.10864e-11
-4.21831e-11
-1.66459e-11
-1.71263e-12
2.72431e-12
2.11834e-12
6.85061e-13
-4.15994e-14
-1.4501e-13
-5.73491e-14
-6.20672e-16
7.23406e-15
1.67745e-15
-2.91152e-09
-1.01133e-08
-1.65397e-08
-1.67394e-08
1.00336e-09
4.96414e-08
1.32785e-07
2.27027e-07
2.63562e-07
1.24012e-07
-3.28419e-07
-1.16528e-06
-2.26087e-06
-3.15532e-06
-3.00106e-06
-7.04347e-07
4.65588e-06
1.31529e-05
2.32629e-05
3.1381e-05
3.20104e-05
1.89136e-05
-1.27916e-05
-6.40479e-05
-0.000129621
-0.000197175
-0.000248396
-0.000262253
-0.000219785
-0.000109092
7.09296e-05
0.000309321
0.000584687
0.000869276
0.00113433
0.00135523
0.0015153
0.0016073
0.001633
0.001601
0.00152386
0.00141534
0.00128821
0.00115296
0.00101742
0.000886862
0.000764546
0.000652274
0.000550893
0.000460641
0.000381227
0.000311984
0.00025256
0.000202195
0.00016005
0.00012522
9.6789e-05
7.38674e-05
5.56171e-05
4.12704e-05
3.01401e-05
2.16237e-05
1.52031e-05
1.04398e-05
6.96907e-06
4.49171e-06
2.76591e-06
1.5988e-06
8.38677e-07
3.67867e-07
9.65251e-08
-4.2694e-08
-9.9112e-08
-1.07759e-07
-9.24812e-08
-6.85394e-08
-4.47998e-08
-2.55782e-08
-1.21773e-08
-4.12805e-09
-1.35602e-10
1.26355e-09
1.31275e-09
8.70816e-10
4.10771e-10
1.11633e-10
-2.03022e-11
-4.66543e-11
-3.07822e-11
-1.09462e-11
-2.71903e-13
2.26838e-12
1.40735e-12
3.22542e-13
-9.72023e-14
-9.71798e-14
-2.31284e-14
5.12797e-15
4.06564e-15
-1.40667e-08
-1.92648e-08
-8.09141e-09
3.30345e-08
1.13987e-07
2.20028e-07
2.88141e-07
1.93388e-07
-2.28503e-07
-1.09527e-06
-2.32195e-06
-3.4349e-06
-3.46108e-06
-1.0472e-06
5.05086e-06
1.50886e-05
2.72674e-05
3.69468e-05
3.67529e-05
1.81014e-05
-2.57728e-05
-9.58719e-05
-0.000183845
-0.000270346
-0.000326637
-0.000319778
-0.000220426
-1.10978e-05
0.000307709
0.000715643
0.00117567
0.00164137
0.0020663
0.00241253
0.0026564
0.00279027
0.00282057
0.0027635
0.00263989
0.0024708
0.00227451
0.00206527
0.00185325
0.00164532
0.00144595
0.00125812
0.00108378
0.000924232
0.000780212
0.000651978
0.000539218
0.000441418
0.000357711
0.00028692
0.000227762
0.0001789
0.000139007
0.00010681
8.11214e-05
6.08613e-05
4.50689e-05
3.29059e-05
2.36541e-05
1.67087e-05
1.15678e-05
7.82131e-06
5.13879e-06
3.25707e-06
1.96928e-06
1.11461e-06
5.69484e-07
2.4013e-07
5.63579e-08
-3.34211e-08
-6.62248e-08
-6.77259e-08
-5.48675e-08
-3.80167e-08
-2.27629e-08
-1.1425e-08
-4.29014e-09
-5.84792e-10
8.24472e-10
9.91366e-10
6.78517e-10
3.19003e-10
8.26111e-11
-1.88496e-11
-3.6147e-11
-2.18963e-11
-6.57913e-12
6.6844e-13
1.79364e-12
8.53022e-13
9.50254e-14
-1.0155e-13
-5.39044e-14
-4.29677e-15
5.94684e-15
-1.95552e-08
1.10159e-08
7.90669e-08
1.86588e-07
2.8889e-07
2.7287e-07
-3.91762e-08
-8.21053e-07
-2.0845e-06
-3.45233e-06
-3.96315e-06
-2.09185e-06
3.80304e-06
1.44926e-05
2.84995e-05
4.08446e-05
4.27441e-05
2.31078e-05
-2.77596e-05
-0.000112759
-0.000222484
-0.000331919
-0.000401554
-0.000383943
-0.000234758
7.46097e-05
0.000546934
0.00115516
0.0018462
0.00255163
0.00320191
0.0037398
0.00412944
0.00435899
0.00443754
0.00438816
0.0042401
0.00402224
0.00375914
0.0034696
0.00316717
0.00286145
0.00255948
0.00226672
0.00198758
0.00172558
0.00148337
0.00126268
0.00106437
0.00088856
0.000734522
0.000601214
0.000487333
0.000391164
0.000310886
0.000244631
0.00019056
0.000146922
0.00011209
8.45923e-05
6.31218e-05
4.65419e-05
3.38813e-05
2.43238e-05
1.71942e-05
1.19425e-05
8.1267e-06
5.39629e-06
3.47672e-06
2.15528e-06
1.26892e-06
6.93793e-07
3.36762e-07
1.28488e-07
1.80367e-08
-3.13283e-08
-4.53898e-08
-4.15177e-08
-3.07e-08
-1.9215e-08
-1.00352e-08
-3.99922e-09
-7.55099e-10
5.36466e-10
7.41785e-10
5.15544e-10
2.36825e-10
5.51978e-11
-1.86013e-11
-2.75794e-11
-1.47745e-11
-3.3727e-12
1.11936e-12
1.29232e-12
4.39623e-13
-2.31462e-14
-7.61363e-14
-2.19162e-14
5.00837e-15
2.29501e-08
1.32819e-07
2.53124e-07
3.19124e-07
1.64558e-07
-4.23808e-07
-1.57737e-06
-3.10872e-06
-4.23528e-06
-3.44298e-06
1.2429e-06
1.13428e-05
2.63593e-05
4.19957e-05
4.9089e-05
3.44609e-05
-1.53834e-05
-0.000107754
-0.000236001
-0.000373375
-0.000471902
-0.000468633
-0.000299152
8.48216e-05
0.000699255
0.00151882
0.00247879
0.0034878
0.00444734
0.00527196
0.00590398
0.00631929
0.00652414
0.0065459
0.00642176
0.00618928
0.00588052
0.0055202
0.00512641
0.00471258
0.00428936
0.00386585
0.00345009
0.00304908
0.00266861
0.00231317
0.0019859
0.00168868
0.00142229
0.00118656
0.000980353
0.000802127
0.000650045
0.000521741
0.000414733
0.000326486
0.000254518
0.00019647
0.000150158
0.000113608
8.50705e-05
6.30263e-05
4.61786e-05
3.34394e-05
2.39105e-05
1.6861e-05
1.17054e-05
7.9807e-06
5.32575e-06
3.46209e-06
2.1774e-06
1.31137e-06
7.43976e-07
3.85993e-07
1.71609e-07
5.26999e-08
-5.46227e-09
-2.74156e-08
-2.99203e-08
-2.38207e-08
-1.55459e-08
-8.36403e-09
-3.44518e-09
-7.36936e-10
3.63389e-10
5.54113e-10
3.82481e-10
1.67437e-10
3.20499e-11
-1.81255e-11
-2.0403e-11
-9.24161e-12
-1.223e-12
1.18005e-12
8.22581e-13
1.66952e-13
-6.13161e-14
-4.25068e-14
-1.31012e-15
1.56191e-07
3.05886e-07
3.03648e-07
-2.71645e-08
-9.13501e-07
-2.39082e-06
-3.99496e-06
-4.46952e-06
-1.76316e-06
6.34118e-06
2.07465e-05
3.88987e-05
5.27991e-05
4.85828e-05
9.19825e-06
-7.90184e-05
-0.000216727
-0.000381853
-0.000524151
-0.000568288
-0.0004273
-2.42826e-05
0.000683869
0.00168887
0.00292654
0.00428793
0.00564277
0.00686763
0.00786963
0.00859907
0.00904917
0.00924553
0.00923116
0.00905264
0.00875104
0.00835839
0.00789836
0.00738881
0.00684453
0.00627885
0.00570431
0.00513258
0.00457405
0.00403758
0.00353029
0.00305754
0.00262306
0.00222903
0.00187626
0.00156441
0.00129185
0.00105646
0.000855758
0.000686559
0.000545547
0.000429344
0.000334648
0.000258326
0.000197482
0.000149499
0.000112064
8.31668e-05
6.10943e-05
4.44105e-05
3.19304e-05
2.26915e-05
1.59232e-05
1.10175e-05
7.50116e-06
5.01071e-06
3.27035e-06
2.07318e-06
1.26544e-06
7.33793e-07
3.95203e-07
1.89146e-07
7.17253e-08
1.13681e-08
-1.42939e-08
-2.06753e-08
-1.79089e-08
-1.21531e-08
-6.6765e-09
-2.78673e-09
-6.1494e-10
2.66328e-10
4.14214e-10
2.76459e-10
1.11718e-10
1.44346e-11
-1.6709e-11
-1.43416e-11
-5.15004e-12
2.54906e-14
9.82847e-13
4.38578e-13
1.94983e-14
-5.28148e-14
-1.40126e-14
3.25655e-07
2.52208e-07
-2.73814e-07
-1.44547e-06
-3.16445e-06
-4.6408e-06
-4.12398e-06
9.02459e-07
1.26539e-05
3.09497e-05
5.05446e-05
5.9168e-05
3.81941e-05
-3.22788e-05
-0.000163498
-0.000345264
-0.000534876
-0.000653775
-0.000596626
-0.000253531
0.000459617
0.00157225
0.00304254
0.00476029
0.00656954
0.0083034
0.0098194
0.0110241
0.0118808
0.0124017
0.0126295
0.0126186
0.0124202
0.0120751
0.0116137
0.0110583
0.0104274
0.00973836
0.00900807
0.00825343
0.00749054
0.00673413
0.00599717
0.00529064
0.00462339
0.00400216
0.00343166
0.00291461
0.00245201
0.00204333
0.00168638
0.00137833
0.00111583
0.000894694
0.000710522
0.00055886
0.000435358
0.000335895
0.000256666
0.000194237
0.000145574
0.000108045
7.94076e-05
5.77839e-05
4.16252e-05
2.96739e-05
2.09243e-05
1.45833e-05
1.00343e-05
6.80445e-06
4.53601e-06
2.96163e-06
1.88387e-06
1.15838e-06
6.80495e-07
3.74748e-07
1.86903e-07
7.80677e-08
2.0445e-08
-5.64087e-09
-1.38204e-08
-1.3153e-08
-9.23993e-09
-5.13487e-09
-2.13301e-09
-4.52765e-10
2.13379e-10
3.08925e-10
1.93477e-10
6.90807e-11
2.4918e-12
-1.42629e-11
-9.33302e-12
-2.34952e-12
5.74491e-13
6.69377e-13
1.73619e-13
-3.39472e-14
-3.01984e-14
2.64425e-07
-5.39682e-07
-1.9601e-06
-3.83472e-06
-5.03093e-06
-3.32132e-06
4.18371e-06
1.9488e-05
4.09879e-05
6.03473e-05
6.07692e-05
1.91011e-05
-8.62714e-05
-0.000261842
-0.000483067
-0.000682585
-0.000750061
-0.000548616
5.32206e-05
0.00114239
0.00272839
0.00472967
0.00698609
0.00929426
0.0114536
0.0133072
0.0147652
0.0158059
0.016459
0.0167808
0.0168325
0.0166656
0.0163184
0.0158179
0.0151853
0.0144398
0.0136014
0.0126912
0.0117309
0.0107418
0.00974403
0.00875611
0.00779446
0.00687307
0.00600337
0.0051941
0.00445132
0.00377855
0.003177
0.0026459
0.00218238
0.00178266
0.00144228
0.00115573
0.000917244
0.000720998
0.000561305
0.000432787
0.00033049
0.000249945
0.00018721
0.00013887
0.000102018
7.42187e-05
5.34687e-05
3.81406e-05
2.69337e-05
1.88226e-05
1.30108e-05
8.88728e-06
5.99045e-06
3.97576e-06
2.58954e-06
1.6472e-06
1.01595e-06
6.01051e-07
3.35347e-07
1.71324e-07
7.53605e-08
2.36501e-08
-6.00595e-10
-9.05227e-09
-9.51313e-09
-6.86677e-09
-3.81843e-09
-1.54863e-09
-2.92359e-10
1.81803e-10
2.27958e-10
1.2966e-10
3.81812e-11
-4.37182e-12
-1.10994e-11
-5.414e-12
-6.55052e-13
6.52258e-13
3.61423e-13
2.97872e-14
-4.1522e-14
-4.88088e-07
-2.42882e-06
-4.37523e-06
-5.2217e-06
-2.28369e-06
7.62386e-06
2.61728e-05
5.01823e-05
6.8089e-05
5.85661e-05
-5.74485e-06
-0.000147297
-0.00036623
-0.000621355
-0.00081799
-0.000811681
-0.000432765
0.000471332
0.00198819
0.00410417
0.00669503
0.00954916
0.0124162
0.0150641
0.0173239
0.0191111
0.020418
0.0212892
0.0217907
0.0219862
0.0219243
0.021638
0.0211499
0.0204786
0.0196436
0.0186671
0.0175739
0.0163906
0.0151444
0.0138622
0.0125695
0.0112901
0.0100453
0.0088532
0.00772862
0.00668287
0.00572372
0.00485563
0.00408004
0.00339582
0.00279915
0.00228503
0.00184757
0.00147957
0.00117353
0.000921875
0.000717237
0.000552666
0.00042176
0.000318762
0.000238596
0.000176867
0.000129843
9.43998e-05
6.79675e-05
4.84616e-05
3.42169e-05
2.39214e-05
1.65556e-05
1.13384e-05
7.67912e-06
5.13715e-06
3.38818e-06
2.19665e-06
1.39363e-06
8.5936e-07
5.09808e-07
2.86367e-07
1.48269e-07
6.7092e-08
2.29314e-08
1.82631e-09
-5.91862e-09
-6.82625e-09
-5.00533e-09
-2.7486e-09
-1.06377e-09
-1.57141e-10
1.57602e-10
1.64298e-10
8.17395e-11
1.73166e-11
-7.18465e-12
-7.72326e-12
-2.61204e-12
1.6972e-13
4.83911e-13
1.36853e-13
-3.52738e-14
-2.2695e-06
-4.83403e-06
-5.30524e-06
-1.26919e-06
1.07704e-05
3.21482e-05
5.81633e-05
7.41447e-05
5.44102e-05
-3.23725e-05
-0.000209164
-0.00046922
-0.000753868
-0.0009399
-0.000847243
-0.00027193
0.00096095
0.00294033
0.00562966
0.00886199
0.0123744
0.0158701
0.019086
0.0218416
0.0240565
0.0257353
0.0269343
0.0277256
0.0281714
0.0283145
0.02818
0.0277836
0.0271396
0.0262657
0.0251847
0.0239243
0.0225155
0.020992
0.0193882
0.0177386
0.0160762
0.0144317
0.0128328
0.0113027
0.00986059
0.00852071
0.00729291
0.00618267
0.00519163
0.0043181
0.00355704
0.00290186
0.00234482
0.0018766
0.00148751
0.0011678
0.000908016
0.000699245
0.000533297
0.000402815
0.000301324
0.000223226
0.00016377
0.000118986
8.56101e-05
6.09986e-05
4.30404e-05
3.00737e-05
2.08081e-05
1.42549e-05
9.66661e-06
6.4856e-06
4.30126e-06
2.81526e-06
1.8137e-06
1.14528e-06
7.04252e-07
4.17542e-07
2.3502e-07
1.22398e-07
5.61435e-08
1.99783e-08
2.5662e-09
-3.95477e-09
-4.88766e-09
-3.58377e-09
-1.91231e-09
-6.85316e-10
-5.67444e-11
1.33774e-10
1.13719e-10
4.70664e-11
4.61434e-12
-7.17789e-12
-4.65184e-12
-8.68252e-13
4.01618e-13
2.55239e-13
6.3409e-16
-4.67621e-06
-5.44978e-06
-5.09426e-07
1.32331e-05
3.69842e-05
6.47801e-05
7.92016e-05
5.05175e-05
-5.65262e-05
-0.000265748
-0.000564243
-0.00087663
-0.00105148
-0.000872364
-9.89287e-05
0.00146939
0.00392682
0.00721762
0.011135
0.015366
0.0195676
0.0234444
0.0268025
0.0295631
0.0317404
0.0333993
0.0346147
0.0354448
0.0359229
0.0360634
0.0358718
0.0353549
0.0345254
0.0334042
0.0320199
0.0304069
0.0286049
0.0266567
0.0246068
0.0224996
0.0203779
0.0182811
0.0162444
0.0142976
0.0124645
0.0107632
0.0092058
0.0077989
0.00654424
0.00543936
0.00447766
0.00365051
0.00294783
0.00235768
0.00186766
0.00146533
0.00113867
0.000876335
0.000667964
0.000504239
0.000376975
0.000279108
0.000204648
0.000148597
0.000106849
7.60826e-05
5.36469e-05
3.74584e-05
2.58997e-05
1.77327e-05
1.20218e-05
8.06887e-06
5.35991e-06
3.52125e-06
2.28479e-06
1.46076e-06
9.16582e-07
5.60892e-07
3.31451e-07
1.86241e-07
9.69947e-08
4.46191e-08
1.60778e-08
2.3622e-09
-2.76142e-09
-3.50191e-09
-2.51797e-09
-1.27987e-09
-4.06316e-10
8.32231e-12
1.08206e-10
7.3956e-11
2.34048e-11
-1.86802e-12
-5.59038e-12
-2.27235e-12
-6.01463e-15
3.19559e-13
6.93156e-14
-5.93139e-06
-2.31895e-07
1.4725e-05
4.03586e-05
6.99633e-05
8.39434e-05
4.8957e-05
-7.4286e-05
-0.000311489
-0.00064557
-0.000986912
-0.00115779
-0.000905615
4.89224e-05
0.00193736
0.00486641
0.00876843
0.0134023
0.0184079
0.0233952
0.0280342
0.0321135
0.0355525
0.0383714
0.0406417
0.0424387
0.0438139
0.0447886
0.0453625
0.045527
0.0452765
0.0446148
0.043557
0.042129
0.0403669
0.038315
0.0360242
0.0335498
0.0309491
0.028279
0.0255939
0.0229438
0.0203728
0.0179181
0.0156095
0.0134692
0.0115119
0.00974563
0.008172
0.00678752
0.0055836
0.00454907
0.00367098
0.00293411
0.00232277
0.00182124
0.00141434
0.00108783
0.000828665
0.000625181
0.000467122
0.000345657
0.000253302
0.000183824
0.000132106
9.40132e-05
6.62509e-05
4.62299e-05
3.1943e-05
2.18549e-05
1.48061e-05
9.93208e-06
6.59656e-06
4.33683e-06
2.82079e-06
1.81311e-06
1.14923e-06
7.15619e-07
4.35057e-07
2.55665e-07
1.42949e-07
7.40778e-08
3.38709e-08
1.2098e-08
1.74352e-09
-2.03553e-09
-2.5079e-09
-1.72934e-09
-8.1647e-10
-2.12856e-10
4.28637e-11
8.16995e-11
4.38154e-11
8.68802e-12
-4.05456e-12
-3.49711e-12
-7.53078e-13
2.47262e-13
1.56333e-13
-2.76696e-06
1.51373e-05
4.20348e-05
7.36005e-05
8.87796e-05
5.12252e-05
-8.25573e-05
-0.000341701
-0.000708068
-0.00108195
-0.00126309
-0.000964129
0.000135652
0.00230569
0.00567531
0.0101758
0.0155404
0.0213659
0.0272151
0.0327189
0.0376435
0.0419014
0.0455161
0.0485635
0.0511185
0.0532242
0.0548872
0.0560886
0.0568005
0.0569998
0.0566755
0.0558316
0.0544872
0.0526761
0.0504448
0.0478506
0.0449591
0.0418412
0.0385695
0.0352159
0.0318485
0.0285296
0.0253139
0.0222475
0.0193669
0.0166992
0.0142622
0.0120652
0.0101097
0.00839095
0.00689775
0.00561586
0.00452873
0.00361723
0.00286164
0.00224227
0.00174016
0.00133757
0.00101827
0.000767756
0.000573307
0.000423982
0.000310524
0.000225225
0.000161772
0.000115064
8.10419e-05
5.65202e-05
3.90308e-05
2.66877e-05
1.80679e-05
1.21115e-05
8.03856e-06
5.28242e-06
3.43636e-06
2.21207e-06
1.40774e-06
8.83937e-07
5.4567e-07
3.29107e-07
1.9195e-07
1.06484e-07
5.46504e-08
2.46279e-08
8.5456e-09
1.04379e-09
-1.57039e-09
-1.78561e-09
-1.15256e-09
-4.88494e-10
-8.84658e-11
5.42001e-11
5.63846e-11
2.24425e-11
8.54669e-13
-3.72964e-12
-1.66893e-12
-2.43589e-14
2.26089e-13
8.67916e-06
4.22131e-05
7.54557e-05
9.36753e-05
5.79464e-05
-7.94515e-05
-0.000352855
-0.000747043
-0.0011579
-0.00136835
-0.00105956
0.000132288
0.00252217
0.00627457
0.011334
0.0174199
0.0240926
0.0308676
0.0373325
0.0432238
0.0484417
0.0530096
0.057007
0.0605084
0.0635484
0.0661168
0.0681722
0.0696623
0.07054
0.0707729
0.0703473
0.0692695
0.0675654
0.0652794
0.062472
0.0592169
0.0555978
0.0517035
0.047625
0.0434516
0.0392675
0.0351494
0.0311645
0.0273691
0.0238078
0.0205132
0.0175068
0.0147991
0.0123915
0.0102773
0.00844233
0.00686852
0.005535
0.00441788
0.00349263
0.00273481
0.00212098
0.00162921
0.00123948
0.000933941
0.000696965
0.000515116
0.000377045
0.000273315
0.000196203
0.000139478
9.81854e-05
6.84409e-05
4.72383e-05
3.22824e-05
2.18431e-05
1.4633e-05
9.70538e-06
6.37314e-06
4.14333e-06
2.66662e-06
1.69845e-06
1.06973e-06
6.65024e-07
4.06642e-07
2.43013e-07
1.40414e-07
7.70642e-08
3.89853e-08
1.71601e-08
5.65285e-09
4.4238e-10
-1.23945e-09
-1.25235e-09
-7.36831e-10
-2.66184e-10
-1.66668e-11
5.02652e-11
3.45416e-11
8.8147e-12
-2.17848e-12
-2.38077e-12
-4.90643e-13
2.28201e-13
3.0828e-05
7.60432e-05
9.80503e-05
6.87281e-05
-6.45591e-05
-0.000342909
-0.000758389
-0.00120939
-0.00146983
-0.00119502
2.17254e-05
0.00254809
0.00659772
0.0121457
0.0189134
0.0264344
0.0341786
0.0416851
0.0486532
0.0549637
0.0606365
0.0657544
0.0703933
0.0745804
0.0782882
0.0814499
0.0839835
0.0858111
0.0868715
0.0871257
0.0865592
0.0851831
0.0830329
0.0801671
0.0766632
0.0726147
0.0681258
0.0633068
0.0582697
0.053124
0.0479728
0.0429099
0.038017
0.0333623
0.0289995
0.0249679
0.0212928
0.0179862
0.0150489
0.012472
0.0102377
0.00832315
0.00670239
0.00534584
0.00422324
0.00330458
0.00256109
0.00196592
0.00149463
0.00112545
0.000839332
0.00061994
0.000453488
0.000328528
0.000235698
0.000167458
0.000117817
8.20814e-05
5.66236e-05
3.86765e-05
2.61562e-05
1.75129e-05
1.16087e-05
7.61797e-06
4.94906e-06
3.18296e-06
2.02647e-06
1.27686e-06
7.95661e-07
4.89503e-07
2.96266e-07
1.75236e-07
1.00128e-07
5.42059e-08
2.68864e-08
1.1437e-08
3.46715e-09
1.08587e-11
-9.74737e-10
-8.54362e-10
-4.4383e-10
-1.24224e-10
1.77028e-11
3.83641e-11
1.78238e-11
1.50413e-12
-2.39734e-12
-1.04314e-12
1.15539e-13
6.19645e-05
0.000102365
8.20612e-05
-3.90807e-05
-0.00031167
-0.000739098
-0.00122991
-0.00155869
-0.00136343
-0.000197809
0.00236381
0.00659832
0.0125312
0.0199054
0.0282414
0.0369682
0.0455721
0.0537065
0.0612246
0.0681382
0.0745339
0.080492
0.0860359
0.091122
0.0956567
0.099524
0.102609
0.104813
0.106064
0.106318
0.105561
0.103811
0.101118
0.0975561
0.0932229
0.0882344
0.0827185
0.0768104
0.0706466
0.0643602
0.0580764
0.0519085
0.0459551
0.0402982
0.0350021
0.0301134
0.0256615
0.0216601
0.0181092
0.0149969
0.0123011
0.00999331
0.0080414
0.00640915
0.00505959
0.00395616
0.00306388
0.00235021
0.00178556
0.00134359
0.00100134
0.00073911
0.000540309
0.000391176
0.00028047
0.000199147
0.00014003
9.75015e-05
6.72244e-05
4.58931e-05
3.10206e-05
2.07593e-05
1.37535e-05
9.0204e-06
5.8565e-06
3.76392e-06
2.39458e-06
1.50796e-06
9.398e-07
5.79269e-07
3.5253e-07
2.11053e-07
1.23418e-07
6.96044e-08
3.70427e-08
1.79004e-08
7.25743e-09
1.92678e-09
-2.45656e-10
-7.46236e-10
-5.57803e-10
-2.44635e-10
-4.13685e-11
2.78171e-11
2.43897e-11
6.83627e-12
-1.29406e-12
-1.46933e-12
-1.30243e-13
9.38913e-05
9.75221e-05
-5.98861e-06
-0.000261084
-0.000688051
-0.00121294
-0.00162211
-0.00154777
-0.00051126
0.00197264
0.00625647
0.012437
0.0203025
0.0293789
0.0390627
0.0487857
0.0581462
0.06696
0.0752247
0.0830308
0.0904672
0.0975595
0.104252
0.110426
0.115928
0.1206
0.124301
0.126914
0.128356
0.12858
0.127575
0.12537
0.122028