# vtk DataFile Version 3.0
Malha 2D com triângulos e temperatura
ASCII
DATASET UNSTRUCTURED_GRID

POINTS 10000 double
0 0 0
10 0 0
10 10 0
0 10 0
0.10101 0 0
0.20202 0 0
0.30303 0 0
0.40404 0 0
0.505051 0 0
0.606061 0 0
0.707071 0 0
0.808081 0 0
0.909091 0 0
1.0101 0 0
1.11111 0 0
1.21212 0 0
1.31313 0 0
1.41414 0 0
1.51515 0 0
1.61616 0 0
1.71717 0 0
1.81818 0 0
1.91919 0 0
2.0202 0 0
2.12121 0 0
2.22222 0 0
2.32323 0 0
2.42424 0 0
2.52525 0 0
2.62626 0 0
2.72727 0 0
2.82828 0 0
2.92929 0 0
3.0303 0 0
3.13131 0 0
3.23232 0 0
3.33333 0 0
3.43434 0 0
3.53535 0 0
3.63636 0 0
3.73737 0 0
3.83838 0 0
3.93939 0 0
4.0404 0 0
4.14141 0 0
4.24242 0 0
4.34343 0 0
4.44444 0 0
4.54545 0 0
4.64646 0 0
4.74747 0 0
4.84848 0 0
4.94949 0 0
5.05051 0 0
5.15152 0 0
5.25253 0 0
5.35354 0 0
5.45455 0 0
5.55556 0 0
5.65657 0 0
5.75758 0 0
5.85859 0 0
5.9596 0 0
6.06061 0 0
6.16162 0 0
6.26263 0 0
6.36364 0 0
6.46465 0 0
6.56566 0 0
6.66667 0 0
6.76768 0 0
6.86869 0 0
6.9697 0 0
7.07071 0 0
7.17172 0 0
7.27273 0 0
7.37374 0 0
7.47475 0 0
7.57576 0 0
7.67677 0 0
7.77778 0 0
7.87879 0 0
7.9798 0 0
8.08081 0 0
8.18182 0 0
8.28283 0 0
8.38384 0 0
8.48485 0 0
8.58586 0 0
8.68687 0 0
8.78788 0 0
8.88889 0 0
8.9899 0 0
9.09091 0 0
9.19192 0 0
9.29293 0 0
9.39394 0 0
9.49495 0 0
9.59596 0 0
9.69697 0 0
9.79798 0 0
9.89899 0 0
10 0.10101 0
10 0.20202 0
10 0.30303 0
10 0.40404 0
10 0.505051 0
10 0.606061 0
10 0.707071 0
10 0.808081 0
10 0.909091 0
10 1.0101 0
10 1.11111 0
10 1.21212 0
10 1.31313 0
10 1.41414 0
10 1.51515 0
10 1.61616 0
10 1.71717 0
10 1.81818 0
10 1.91919 0
10 2.0202 0
10 2.12121 0
10 2.22222 0
10 2.32323 0
10 2.42424 0
10 2.52525 0
10 2.62626 0
10 2.72727 0
10 2.82828 0
10 2.92929 0
10 3.0303 0
10 3.13131 0
10 3.23232 0
10 3.33333 0
10 3.43434 0
10 3.53535 0
10 3.63636 0
10 3.73737 0
10 3.83838 0
10 3.93939 0
10 4.0404 0
10 4.14141 0
10 4.24242 0
10 4.34343 0
10 4.44444 0
10 4.54545 0
10 4.64646 0
10 4.74747 0
10 4.84848 0
10 4.94949 0
10 5.05051 0
10 5.15152 0
10 5.25253 0
10 5.35354 0
10 5.45455 0
10 5.55556 0
10 5.65657 0
10 5.75758 0
10 5.85859 0
10 5.9596 0
10 6.06061 0
10 6.16162 0
10 6.26263 0
10 6.36364 0
10 6.46465 0
10 6.56566 0
10 6.66667 0
10 6.76768 0
10 6.86869 0
10 6.9697 0
10 7.07071 0
10 7.17172 0
10 7.27273 0
10 7.37374 0
10 7.47475 0
10 7.57576 0
10 7.67677 0
10 7.77778 0
10 7.87879 0
10 7.9798 0
10 8.08081 0
10 8.18182 0
10 8.28283 0
10 8.38384 0
10 8.48485 0
10 8.58586 0
10 8.68687 0
10 8.78788 0
10 8.88889 0
10 8.9899 0
10 9.09091 0
10 9.19192 0
10 9.29293 0
10 9.39394 0
10 9.49495 0
10 9.59596 0
10 9.69697 0
10 9.79798 0
10 9.89899 0
9.89899 10 0
9.79798 10 0
9.69697 10 0
9.59596 10 0
9.49495 10 0
9.39394 10 0
9.29293 10 0
9.19192 10 0
9.09091 10 0
8.9899 10 0
8.88889 10 0
8.78788 10 0
8.68687 10 0
8.58586 10 0
8.48485 10 0
8.38384 10 0
8.28283 10 0
8.18182 10 0
8.08081 10 0
7.9798 10 0
7.87879 10 0
7.77778 10 0
7.67677 10 0
7.57576 10 0
7.47475 10 0
7.37374 10 0
7.27273 10 0
7.17172 10 0
7.07071 10 0
6.9697 10 0
6.86869 10 0
6.76768 10 0
6.66667 10 0
6.56566 10 0
6.46465 10 0
6.36364 10 0
6.26263 10 0
6.16162 10 0
6.06061 10 0
5.9596 10 0
5.85859 10 0
5.75758 10 0
5.65657 10 0
5.55556 10 0
5.45455 10 0
5.35354 10 0
5.25253 10 0
5.15152 10 0
5.05051 10 0
4.94949 10 0
4.84848 10 0
4.74747 10 0
4.64646 10 0
4.54545 10 0
4.44444 10 0
4.34343 10 0
4.24242 10 0
4.14141 10 0
4.0404 10 0
3.93939 10 0
3.83838 10 0
3.73737 10 0
3.63636 10 0
3.53535 10 0
3.43434 10 0
3.33333 10 0
3.23232 10 0
3.13131 10 0
3.0303 10 0
2.92929 10 0
2.82828 10 0
2.72727 10 0
2.62626 10 0
2.52525 10 0
2.42424 10 0
2.32323 10 0
2.22222 10 0
2.12121 10 0
2.0202 10 0
1.91919 10 0
1.81818 10 0
1.71717 10 0
1.61616 10 0
1.51515 10 0
1.41414 10 0
1.31313 10 0
1.21212 10 0
1.11111 10 0
1.0101 10 0
0.909091 10 0
0.808081 10 0
0.707071 10 0
0.606061 10 0
0.505051 10 0
0.40404 10 0
0.30303 10 0
0.20202 10 0
0.10101 10 0
0 9.89899 0
0 9.79798 0
0 9.69697 0
0 9.59596 0
0 9.49495 0
0 9.39394 0
0 9.29293 0
0 9.19192 0
0 9.09091 0
0 8.9899 0
0 8.88889 0
0 8.78788 0
0 8.68687 0
0 8.58586 0
0 8.48485 0
0 8.38384 0
0 8.28283 0
0 8.18182 0
0 8.08081 0
0 7.9798 0
0 7.87879 0
0 7.77778 0
0 7.67677 0
0 7.57576 0
0 7.47475 0
0 7.37374 0
0 7.27273 0
0 7.17172 0
0 7.07071 0
0 6.9697 0
0 6.86869 0
0 6.76768 0
0 6.66667 0
0 6.56566 0
0 6.46465 0
0 6.36364 0
0 6.26263 0
0 6.16162 0
0 6.06061 0
0 5.9596 0
0 5.85859 0
0 5.75758 0
0 5.65657 0
0 5.55556 0
0 5.45455 0
0 5.35354 0
0 5.25253 0
0 5.15152 0
0 5.05051 0
0 4.94949 0
0 4.84848 0
0 4.74747 0
0 4.64646 0
0 4.54545 0
0 4.44444 0
0 4.34343 0
0 4.24242 0
0 4.14141 0
0 4.0404 0
0 3.93939 0
0 3.83838 0
0 3.73737 0
0 3.63636 0
0 3.53535 0
0 3.43434 0
0 3.33333 0
0 3.23232 0
0 3.13131 0
0 3.0303 0
0 2.92929 0
0 2.82828 0
0 2.72727 0
0 2.62626 0
0 2.52525 0
0 2.42424 0
0 2.32323 0
0 2.22222 0
0 2.12121 0
0 2.0202 0
0 1.91919 0
0 1.81818 0
0 1.71717 0
0 1.61616 0
0 1.51515 0
0 1.41414 0
0 1.31313 0
0 1.21212 0
0 1.11111 0
0 1.0101 0
0 0.909091 0
0 0.808081 0
0 0.707071 0
0 0.606061 0
0 0.505051 0
0 0.40404 0
0 0.30303 0
0 0.20202 0
0 0.10101 0
0.10101 0.10101 0
0.10101 0.20202 0
0.10101 0.30303 0
0.10101 0.40404 0
0.10101 0.505051 0
0.10101 0.606061 0
0.10101 0.707071 0
0.10101 0.808081 0
0.10101 0.909091 0
0.10101 1.0101 0
0.10101 1.11111 0
0.10101 1.21212 0
0.10101 1.31313 0
0.10101 1.41414 0
0.10101 1.51515 0
0.10101 1.61616 0
0.10101 1.71717 0
0.10101 1.81818 0
0.10101 1.91919 0
0.10101 2.0202 0
0.10101 2.12121 0
0.10101 2.22222 0
0.10101 2.32323 0
0.10101 2.42424 0
0.10101 2.52525 0
0.10101 2.62626 0
0.10101 2.72727 0
0.10101 2.82828 0
0.10101 2.92929 0
0.10101 3.0303 0
0.10101 3.13131 0
0.10101 3.23232 0
0.10101 3.33333 0
0.10101 3.43434 0
0.10101 3.53535 0
0.10101 3.63636 0
0.10101 3.73737 0
0.10101 3.83838 0
0.10101 3.93939 0
0.10101 4.0404 0
0.10101 4.14141 0
0.10101 4.24242 0
0.10101 4.34343 0
0.10101 4.44444 0
0.10101 4.54545 0
0.10101 4.64646 0
0.10101 4.74747 0
0.10101 4.84848 0
0.10101 4.94949 0
0.10101 5.05051 0
0.10101 5.15152 0
0.10101 5.25253 0
0.10101 5.35354 0
0.10101 5.45455 0
0.10101 5.55556 0
0.10101 5.65657 0
0.10101 5.75758 0
0.10101 5.85859 0
0.10101 5.9596 0
0.10101 6.06061 0
0.10101 6.16162 0
0.10101 6.26263 0
0.10101 6.36364 0
0.10101 6.46465 0
0.10101 6.56566 0
0.10101 6.66667 0
0.10101 6.76768 0
0.10101 6.86869 0
0.10101 6.9697 0
0.10101 7.07071 0
0.10101 7.17172 0
0.10101 7.27273 0
0.10101 7.37374 0
0.10101 7.47475 0
0.10101 7.57576 0
0.10101 7.67677 0
0.10101 7.77778 0
0.10101 7.87879 0
0.10101 7.9798 0
0.10101 8.08081 0
0.10101 8.18182 0
0.10101 8.28283 0
0.10101 8.38384 0
0.10101 8.48485 0
0.10101 8.58586 0
0.10101 8.68687 0
0.10101 8.78788 0
0.10101 8.88889 0
0.10101 8.9899 0
0.10101 9.09091 0
0.10101 9.19192 0
0.10101 9.29293 0
0.10101 9.39394 0
0.10101 9.49495 0
0.10101 9.59596 0
0.10101 9.69697 0
0.10101 9.79798 0
0.10101 9.89899 0
0.20202 0.10101 0
0.20202 0.20202 0
0.20202 0.30303 0
0.20202 0.40404 0
0.20202 0.505051 0
0.20202 0.606061 0
0.20202 0.707071 0
0.20202 0.808081 0
0.20202 0.909091 0
0.20202 1.0101 0
0.20202 1.11111 0
0.20202 1.21212 0
0.20202 1.31313 0
0.20202 1.41414 0
0.20202 1.51515 0
0.20202 1.61616 0
0.20202 1.71717 0
0.20202 1.81818 0
0.20202 1.91919 0
0.20202 2.0202 0
0.20202 2.12121 0
0.20202 2.22222 0
0.20202 2.32323 0
0.20202 2.42424 0
0.20202 2.52525 0
0.20202 2.62626 0
0.20202 2.72727 0
0.20202 2.82828 0
0.20202 2.92929 0
0.20202 3.0303 0
0.20202 3.13131 0
0.20202 3.23232 0
0.20202 3.33333 0
0.20202 3.43434 0
0.20202 3.53535 0
0.20202 3.63636 0
0.20202 3.73737 0
0.20202 3.83838 0
0.20202 3.93939 0
0.20202 4.0404 0
0.20202 4.14141 0
0.20202 4.24242 0
0.20202 4.34343 0
0.20202 4.44444 0
0.20202 4.54545 0
0.20202 4.64646 0
0.20202 4.74747 0
0.20202 4.84848 0
0.20202 4.94949 0
0.20202 5.05051 0
0.20202 5.15152 0
0.20202 5.25253 0
0.20202 5.35354 0
0.20202 5.45455 0
0.20202 5.55556 0
0.20202 5.65657 0
0.20202 5.75758 0
0.20202 5.85859 0
0.20202 5.9596 0
0.20202 6.06061 0
0.20202 6.16162 0
0.20202 6.26263 0
0.20202 6.36364 0
0.20202 6.46465 0
0.20202 6.56566 0
0.20202 6.66667 0
0.20202 6.76768 0
0.20202 6.86869 0
0.20202 6.9697 0
0.20202 7.07071 0
0.20202 7.17172 0
0.20202 7.27273 0
0.20202 7.37374 0
0.20202 7.47475 0
0.20202 7.57576 0
0.20202 7.67677 0
0.20202 7.77778 0
0.20202 7.87879 0
0.20202 7.9798 0
0.20202 8.08081 0
0.20202 8.18182 0
0.20202 8.28283 0
0.20202 8.38384 0
0.20202 8.48485 0
0.20202 8.58586 0
0.20202 8.68687 0
0.20202 8.78788 0
0.20202 8.88889 0
0.20202 8.9899 0
0.20202 9.09091 0
0.20202 9.19192 0
0.20202 9.29293 0
0.20202 9.39394 0
0.20202 9.49495 0
0.20202 9.59596 0
0.20202 9.69697 0
0.20202 9.79798 0
0.20202 9.89899 0
0.30303 0.10101 0
0.30303 0.20202 0
0.30303 0.30303 0
0.30303 0.40404 0
0.30303 0.505051 0
0.30303 0.606061 0
0.30303 0.707071 0
0.30303 0.808081 0
0.30303 0.909091 0
0.30303 1.0101 0
0.30303 1.11111 0
0.30303 1.21212 0
0.30303 1.31313 0
0.30303 1.41414 0
0.30303 1.51515 0
0.30303 1.61616 0
0.30303 1.71717 0
0.30303 1.81818 0
0.30303 1.91919 0
0.30303 2.0202 0
0.30303 2.12121 0
0.30303 2.22222 0
0.30303 2.32323 0
0.30303 2.42424 0
0.30303 2.52525 0
0.30303 2.62626 0
0.30303 2.72727 0
0.30303 2.82828 0
0.30303 2.92929 0
0.30303 3.0303 0
0.30303 3.13131 0
0.30303 3.23232 0
0.30303 3.33333 0
0.30303 3.43434 0
0.30303 3.53535 0
0.30303 3.63636 0
0.30303 3.73737 0
0.30303 3.83838 0
0.30303 3.93939 0
0.30303 4.0404 0
0.30303 4.14141 0
0.30303 4.24242 0
0.30303 4.34343 0
0.30303 4.44444 0
0.30303 4.54545 0
0.30303 4.64646 0
0.30303 4.74747 0
0.30303 4.84848 0
0.30303 4.94949 0
0.30303 5.05051 0
0.30303 5.15152 0
0.30303 5.25253 0
0.30303 5.35354 0
0.30303 5.45455 0
0.30303 5.55556 0
0.30303 5.65657 0
0.30303 5.75758 0
0.30303 5.85859 0
0.30303 5.9596 0
0.30303 6.06061 0
0.30303 6.16162 0
0.30303 6.26263 0
0.30303 6.36364 0
0.30303 6.46465 0
0.30303 6.56566 0
0.30303 6.66667 0
0.30303 6.76768 0
0.30303 6.86869 0
0.30303 6.9697 0
0.30303 7.07071 0
0.30303 7.17172 0
0.30303 7.27273 0
0.30303 7.37374 0
0.30303 7.47475 0
0.30303 7.57576 0
0.30303 7.67677 0
0.30303 7.77778 0
0.30303 7.87879 0
0.30303 7.9798 0
0.30303 8.08081 0
[...]
CELL_DATA 9801
SCALARS Temperatura double 1
LOOKUP_TABLE default
2.73566e-15
-1.29941e-15
-1.38553e-14
-4.24684e-14
-9.01282e-14
-1.40074e-13
-1.25657e-13
1.10837e-13
8.44754e-13
2.4123e-12
4.9414e-12
7.69351e-12
7.88021e-12
-9.17118e-13
-2.99356e-11
-9.40529e-11
-2.04668e-10
-3.51668e-10
-4.6975e-10
-3.88688e-10
2.21498e-10
1.8784e-09
5.22539e-09
1.07828e-08
1.83904e-08
2.62312e-08
2.94025e-08
1.8179e-08
-2.3594e-08
-1.1914e-07
-2.97139e-07
-5.86208e-07
-1.00364e-06
-1.53684e-06
-2.11656e-06
-2.58243e-06
-2.64308e-06
-1.83514e-06
5.12345e-07
5.29994e-06
1.36573e-05
2.69113e-05
4.65145e-05
7.39313e-05
0.00011048
0.000157138
0.00021433
0.000281729
0.000358117
0.000441396
0.000529581
0.000630109
0.000742015
0.000865039
0.000998401
0.00114089
0.00129085
0.00144614
0.00160413
0.0017617
0.00191517
0.00206024
0.00219183
0.002304
0.00238975
0.00244108
0.00244919
0.00240515
0.00230102
0.00213164
0.00189669
0.00160281
0.00126499
0.000906615
0.000557277
0.000248444
7.41825e-06
-0.000148869
-0.000218266
-0.000214156
-0.000161751
-9.07833e-05
-2.70513e-05
1.40324e-05
2.94938e-05
2.60501e-05
1.43896e-05
3.51707e-06
-2.30316e-06
-3.3123e-06
-1.94666e-06
-4.48818e-07
2.44152e-07
2.73278e-07
9.97034e-08
-6.14678e-09
-2.06701e-08
-6.6865e-09
1.14664e-09
-1.0071e-14
-3.32264e-14
-6.27988e-14
-8.20911e-14
-3.12444e-14
2.13743e-13
8.39824e-13
2.00771e-12
3.57296e-12
4.50737e-12
2.01118e-12
-9.36781e-12
-3.7626e-11
-9.02186e-11
-1.6498e-10
-2.31873e-10
-2.04739e-10
9.0693e-11
9.32355e-10
2.65993e-09
5.51099e-09
9.25657e-09
1.2573e-08
1.21607e-08
1.77927e-09
-2.83732e-08
-9.11741e-08
-1.99871e-07
-3.6182e-07
-5.6736e-07
-7.73016e-07
-8.79189e-07
-7.03932e-07
4.3945e-08
1.78784e-06
5.09719e-06
1.06875e-05
1.94044e-05
3.21923e-05
5.0053e-05
7.40041e-05
0.000105047
0.00014416
0.000192313
0.000250524
0.00031992
0.000401804
0.000497668
0.000609135
0.000737773
0.000884909
0.00105089
0.00123565
0.00143856
0.00165832
0.00189292
0.00213962
0.00239496
0.0026548
0.00291439
0.00316838
0.00341081
0.00363507
0.00383368
0.003998
0.00411802
0.00418209
0.0041772
0.00408971
0.00390715
0.00362086
0.00322959
0.00274308
0.00218475
0.00159196
0.00101274
0.000498593
9.43479e-05
-0.000172236
-0.000297819
-0.000304509
-0.000233357
-0.000132
-4.08289e-05
1.69693e-05
3.78297e-05
3.256e-05
1.69586e-05
3.36694e-06
-3.17396e-06
-3.75924e-06
-1.8872e-06
-2.51028e-07
3.30716e-07
2.48754e-07
5.7759e-08
-1.92509e-08
-1.56391e-08
-1.30761e-09
-4.18823e-14
-6.26439e-14
-3.56773e-14
1.26079e-13
5.65289e-13
1.41582e-12
2.59596e-12
3.36317e-12
1.61596e-12
-6.80607e-12
-2.80166e-11
-6.75204e-11
-1.22706e-10
-1.67892e-10
-1.31732e-10
1.26591e-10
8.23386e-10
2.20168e-09
4.37224e-09
6.98284e-09
8.68042e-09
6.41512e-09
-5.20105e-09
-3.40248e-08
-8.9258e-08
-1.78084e-07
-2.99019e-07
-4.31189e-07
-5.19471e-07
-4.56481e-07
-6.37591e-08
9.24519e-07
2.87161e-06
6.23928e-06
1.15794e-05
1.95187e-05
3.07434e-05
4.5991e-05
6.6059e-05
9.18346e-05
0.000124345
0.000164816
0.000214732
0.000275864
0.000350259
0.000440182
0.000548007
0.000676089
0.000826635
0.00100161
0.00120217
0.00142835
0.00168034
0.00195728
0.00225739
0.0025779
0.00291503
0.003264
0.00361916
0.00397404
0.00432156
0.00465409
0.00496352
0.00524119
0.00547762
0.00566212
0.00578229
0.00582373
0.00577015
0.00560445
0.00531112
0.00488006
0.00431156
0.0036214
0.00284431
0.00203381
0.00125687
0.000582908
6.92562e-05
-0.000253003
-0.000387692
-0.000372527
-0.000267579
-0.000136774
-2.9423e-05
3.08758e-05
4.60554e-05
3.37828e-05
1.42376e-05
4.02064e-07
-4.4967e-06
-3.59616e-06
-1.25371e-06
1.33884e-07
3.7227e-07
1.61865e-07
4.07296e-09
-2.27972e-08
-6.35129e-09
-5.00114e-14
4.3794e-14
3.04288e-13
8.56529e-13
1.70314e-12
2.43975e-12
1.75063e-12
-3.16502e-12
-1.67008e-11
-4.33049e-11
-8.24148e-11
-1.17835e-10
-1.01102e-10
6.67028e-11
5.4058e-10
1.4965e-09
3.01305e-09
4.82318e-09
5.91179e-09
4.00526e-09
-4.86794e-09
-2.63733e-08
-6.68339e-08
-1.30414e-07
-2.13784e-07
-2.97825e-07
-3.36558e-07
-2.44368e-07
1.16535e-07
9.45964e-07
2.51086e-06
5.14501e-06
9.2451e-06
1.52676e-05
2.37332e-05
3.52441e-05
5.05209e-05
7.04546e-05
9.61697e-05
0.000129085
0.000170959
0.000223902
0.000290359
0.00037305
0.000474892
0.000598897
0.00074807
0.000925303
0.00113327
0.00137432
0.00164986
0.00196082
0.00230733
0.0026882
0.00310098
0.00354183
0.0040055
0.00448534
0.00497346
0.00546091
0.00593795
0.00639434
0.00681953
0.00720286
0.0075334
0.00779963
0.00798878
0.00808603
0.00807394
0.00793247
0.00764041
0.00717872
0.00653597
0.00571542
0.00474208
0.00366715
0.00256693
0.00153399
0.00066067
1.83682e-05
-0.000361242
-0.000495503
-0.000445587
-0.000297132
-0.000133442
-1.1951e-05
4.65415e-05
5.27144e-05
3.25633e-05
1.00779e-05
-2.62697e-06
-5.2217e-06
-2.96889e-06
-5.51553e-07
3.81458e-07
3.10775e-07
6.79237e-08
-2.20451e-08
-1.50916e-08
8.22859e-14
4.44043e-13
9.99584e-13
1.6465e-12
1.69631e-12
-5.19139e-13
-7.92846e-12
-2.40951e-11
-5.03829e-11
-7.92852e-11
-8.30225e-11
4.6108e-13
2.75426e-10
8.71254e-10
1.87003e-09
3.14315e-09
4.07441e-09
3.19489e-09
-2.15071e-09
-1.58457e-08
-4.23323e-08
-8.46952e-08
-1.40976e-07
-1.98418e-07
-2.25803e-07
-1.64675e-07
7.91917e-08
6.42529e-07
1.70846e-06
3.50782e-06
6.32013e-06
1.04785e-05
1.63832e-05
2.45294e-05
3.55495e-05
5.02684e-05
6.97653e-05
9.54307e-05
0.000129012
0.000172637
0.000228819
0.000300441
0.000390729
0.00050321
0.000641657
0.000810022
0.00101232
0.00125253
0.00153437
0.00186117
0.00223499
0.00265701
0.00312743
0.00364468
0.00420542
0.00480445
0.00543457
0.00608669
0.00674996
0.00741206
0.00805958
0.00867853
0.00925478
0.00977452
0.0102244
0.0105917
0.0108631
0.0110245
0.0110592
0.0109469
0.0106638
0.0101842
0.00948519
0.00855436
0.00739976
0.00605945
0.00460702
0.00314873
0.00180948
0.000708617
-6.89285e-05
-0.000496328
-0.00061327
-0.000513425
-0.000313887
-0.000118231
1.13729e-05
6.18227e-05
5.58917e-05
2.82554e-05
4.8546e-06
-5.14028e-06
-5.11428e-06
-1.9824e-06
5.61651e-08
4.46095e-07
1.8714e-07
8.43747e-10
-2.61447e-08
4.3836e-13
9.93559e-13
1.34335e-12
7.18143e-13
-2.63669e-12
-1.13044e-11
-2.74564e-11
-4.92209e-11
-6.35832e-11
-3.62174e-11
9.74671e-11
4.28898e-10
1.04056e-09
1.91144e-09
2.74149e-09
2.69972e-09
1.60688e-10
-7.41011e-09
-2.31461e-08
-4.96742e-08
-8.68342e-08
-1.27973e-07
-1.54878e-07
-1.31818e-07
4.26544e-10
3.29585e-07
9.75402e-07
2.09208e-06
3.87155e-06
6.55092e-06
1.04281e-05
1.58888e-05
2.34467e-05
3.3794e-05
4.78589e-05
6.68629e-05
9.23722e-05
0.000126341
0.000171144
0.000229605
0.000305018
0.000401155
0.000522266
0.000673049
0.000858586
0.00108423
0.00135544
0.00167758
0.00205571
0.00249429
0.00299615
0.00356292
0.00419491
0.00489004
0.00564387
0.00644942
0.00729701
0.00817438
0.0090668
0.00995753
0.0108283
0.0116599
0.0124332
0.0131297
0.0137323
0.0142253
0.0145948
0.0148273
0.0149082
0.0148201
0.0145406
0.0140421
0.0132941
0.0122696
0.0109558
0.00936807
0.00756255
0.00564273
0.00375346
0.00205931
0.000709716
-0.000199861
-0.000656296
-0.000733443
-0.000567766
-0.00031267
-9.02938e-05
3.84407e-05
7.41465e-05
5.43468e-05
2.11596e-05
-5.21582e-07
-6.56848e-06
-4.19025e-06
-8.98839e-07
4.21462e-07
3.51915e-07
6.47841e-08
-3.35638e-08
8.43627e-13
9.46824e-13
-1.7584e-13
-4.10026e-12
-1.28275e-11
-2.71104e-11
-4.25963e-11
-4.3237e-11
6.58794e-12
1.65703e-10
5.03774e-10
1.05485e-09
1.71721e-09
2.09128e-09
1.2809e-09
-2.2563e-09
-1.06428e-08
-2.60546e-08
-4.94575e-08
-7.83897e-08
-1.03754e-07
-1.05861e-07
-5.0239e-08
1.16179e-07
4.68113e-07
1.10457e-06
2.15242e-06
3.77334e-06
6.17726e-06
9.64497e-06
1.45615e-05
2.14597e-05
3.10712e-05
4.43819e-05
6.26878e-05
8.76511e-05
0.000121356
0.000166364
0.000225776
0.000303283
0.000403218
0.000530577
0.000691019
0.000890813
0.00113674
0.00143595
0.00179572
0.00222321
0.00272514
0.00330748
0.0039741
0.0047272
0.00556725
0.00649153
0.00749423
0.00856609
0.00969428
0.0108625
0.012051
0.0132375
0.0143972
0.0155044
0.0165331
0.0174581
0.0182564
0.0189083
0.0193969
0.0197089
0.0198323
0.0197545
0.0194588
0.0189218
0.0181125
0.0169952
0.0155385
0.0137301
0.0115959
0.00921654
0.00673449
0.00434307
0.00225371
0.000647011
-0.000377723
-0.000834078
-0.000844695
-0.000599197
-0.000289525
-5.08924e-05
6.56895e-05
8.07996e-05
4.7582e-05
1.23066e-05
-4.96088e-06
-6.59527e-06
-2.72577e-06
-1.65445e-08
4.95099e-07
1.84666e-07
-2.42841e-08
7.36955e-13
-8.0883e-13
-4.77249e-12
-1.27182e-11
-2.42948e-11
-3.37718e-11
-2.44652e-11
3.66972e-11
1.98609e-10
5.0849e-10
9.62661e-10
1.41295e-09
1.43125e-09
1.68684e-10
-3.70114e-09
-1.18046e-08
-2.54637e-08
-4.44819e-08
-6.52297e-08
-7.81107e-08
-6.46846e-08
5.15971e-09
1.75697e-07
5.07655e-07
1.08116e-06
2.00101e-06
3.40658e-06
5.48868e-06
8.51512e-06
1.28654e-05
1.90736e-05
2.78781e-05
4.02765e-05
5.75855e-05
8.1507e-05
0.000114202
0.00015837
0.000217342
0.000295162
0.000396671
0.000527566
0.000694428
0.000904713
0.00116668
0.00148927
0.00188188
0.00235414
0.00291547
0.00357477
0.0043399
0.00521607
0.00620627
0.00731115
0.00852723
0.00984693
0.0112582
0.0127441
0.0142833
0.0158499
0.0174143
0.0189438
0.020404
0.0217602
0.0229785
0.0240279
0.0248818
0.0255188
0.0259235
0.0260857
0.025998
0.0256528
0.0250365
0.0241264
0.0228882
0.0212807
0.0192675
0.0168381
0.0140329
0.0109649
0.00782658
0.00487034
0.00236053
0.000506607
-0.000599974
-0.00101715
-0.000932998
-0.000598939
-0.00024316
-3.86216e-06
8.85699e-05
7.96914e-05
3.62475e-05
3.33479e-06
-7.52839e-06
-5.3245e-06
-1.18376e-06
4.56583e-07
3.51634e-07
2.23288e-08
-5.93472e-13
-4.79084e-12
-1.15028e-11
-2.03313e-11
-2.51662e-11
-1.04371e-11
5.23131e-11
2.01274e-10
4.65309e-10
8.17675e-10
1.0955e-09
8.93841e-10
-5.26325e-10
-4.23407e-09
-1.14052e-08
-2.2739e-08
-3.74072e-08
-5.15208e-08
-5.6237e-08
-3.57407e-08
3.46693e-08
1.90376e-07
4.79565e-07
9.66714e-07
1.73909e-06
2.91814e-06
4.67747e-06
7.26848e-06
1.10539e-05
1.65489e-05
2.44697e-05
3.57897e-05
5.18055e-05
7.42137e-05
0.000105202
0.000147551
0.000204752
0.000281119
0.000381909
0.000513419
0.000683066
0.000899416
0.00117217
0.0015121
0.00193084
0.00244067
0.00305413
0.00378355
0.00464053
0.00563537
0.00677496
0.00806333
0.00950137
0.0110847
0.0128035
0.0146421
0.0165788
0.0185857
0.0206291
0.0226705
0.0246673
0.0265742
0.0283455
0.0299364
0.0313054
0.0324165
0.0332411
0.0337593
0.0339603
0.0338413
0.0334039
0.032649
0.0315697
0.0301454
0.0283389
0.0261025
0.0233942
0.0202065
0.0165996
0.0127289
0.00884891
0.00528202
0.00234913
0.000281118
-0.000856335
-0.00118765
-0.00098327
-0.000560841
-0.000176116
4.45148e-05
0.00010247
7.01432e-05
2.22387e-05
-3.92192e-06
-7.80848e-06
-3.2932e-06
-2.91019e-08
5.0247e-07
1.2918e-07
-3.3965e-12
-9.7812e-12
-1.61992e-11
-1.80336e-11
-1.75084e-12
5.58508e-11
1.83454e-10
3.97158e-10
6.60343e-10
8.18179e-10
5.18088e-10
-8.46982e-10
-4.10334e-09
-1.00738e-08
-1.90701e-08
-3.00425e-08
-3.941e-08
-3.96918e-08
-1.81044e-08
4.47799e-08
1.76474e-07
4.14689e-07
8.11166e-07
1.43863e-06
2.40241e-06
3.85787e-06
6.03469e-06
9.26822e-06
1.40385e-05
2.10178e-05
3.11287e-05
4.56147e-05
6.61269e-05
9.48278e-05
0.000134513
0.000188746
0.000262008
0.000359848
0.000489027
0.000657649
0.000875255
0.00115288
0.00150302
0.00193955
0.00247748
0.00313267
0.00392131
0.00485934
0.00596176
0.00724187
0.00870874
0.0103677
0.01222
0.01426
0.0164754
0.018846
0.021344
0.0239334
0.0265712
0.0292074
0.0317873
0.0342525
0.0365434
0.0386016
0.0403728
0.041809
0.0428715
0.0435332
0.04378
0.0436108
0.0430356
0.0420703
0.0407295
0.0390164
0.0369141
0.0343823
0.0313651
0.027814
0.0237262
0.0191885
0.0144099
0.00972113
0.00552396
0.00219532
-2.69465e-05
-0.00112783
-0.00132373
-0.000981979
-0.000483547
-9.53441e-05
8.64124e-05
0.000103993
5.34563e-05
8.35777e-06
-8.04057e-06
-6.12854e-06
-1.27738e-06
4.8722e-07
3.06076e-07
-6.85069e-12
-1.25409e-11
-1.26969e-11
2.48914e-12
5.13084e-11
1.54858e-10
3.21549e-10
5.14266e-10
5.99146e-10
2.87172e-10
-8.99961e-10
-3.58459e-09
-8.33711e-09
-1.52637e-08
-2.33495e-08
-2.95942e-08
-2.80379e-08
-8.78152e-09
4.29972e-08
1.48274e-07
3.3624e-07
6.48146e-07
1.14408e-06
1.91391e-06
3.09335e-06
4.88606e-06
7.59243e-06
1.16463e-05
1.7661e-05
2.64885e-05
3.92925e-05
5.76417e-05
8.36222e-05
0.000119973
0.000170242
0.000238958
0.000331819
0.000455882
0.00061975
0.000833736
0.00110999
0.00146258
0.00190743
0.00246225
0.0031462
0.00397953
0.00498293
0.00617681
0.00758036
0.0092106
0.0110793
0.0131935
0.0155547
0.0181561
0.0209821
0.0240071
0.0271957
0.0305024
0.033872
0.0372413
0.0405401
0.0436941
0.046627
0.0492639
0.0515345
0.0533764
0.0547382
0.055583
0.0558904
0.0556581
0.0549014
0.0536499
0.0519404
0.0498065
0.047265
0.0443041
0.0408792
0.0369236
0.0323806
0.0272547
0.0216673
0.0158952
0.0103591
0.0055477
0.00188662
-0.000402558
-0.00138731
-0.00140249
-0.00092038
-0.000372205
-1.1746e-05
0.000114145
9.22527e-05
3.29353e-05
-2.47864e-06
-8.5888e-06
-3.47824e-06
5.8652e-08
5.21978e-07
-9.00843e-12
-9.03078e-12
3.71789e-12
4.25603e-11
1.23003e-10
2.4947e-10
3.89737e-10
4.35968e-10
1.62157e-10
-7.96872e-10
-2.90269e-09
-6.55467e-09
-1.17715e-08
-1.77008e-08
-2.19931e-08
-2.01129e-08
-4.6468e-09
3.54432e-08
1.1588e-07
2.58986e-07
4.97255e-07
8.79534e-07
1.4808e-06
2.41641e-06
3.86172e-06
6.07802e-06
9.44658e-06
1.45128e-05
2.20438e-05
3.31028e-05
4.91442e-05
7.21316e-05
0.000104682
0.000150236
0.000213252
0.000299426
0.000415927
0.000571635
0.000777382
0.00104616
0.00139329
0.00183649
0.00239589
0.00309382
0.00395451
0.00500356
0.00626714
0.00777108
0.0095397
0.0115946
0.0139508
0.0166174
0.0195966
0.02288
0.0264478
0.0302683
0.0342968
0.0384759
0.0427363
0.046998
0.0511727
0.0551663
0.0588825
0.0622265
0.0651088
0.0674497
0.0691828
0.0702588
0.0706488
0.0703466
0.0693697
0.0677578
0.065568
0.0628652
0.0597075
0.0561282
0.0521208
0.0476336
0.0425855
0.0369097
0.0306208
0.0238861
0.0170653
0.0106832
0.00531783
0.00142701
-0.000817121
-0.00160193
-0.00140402
-0.000797751
-0.000239077
6.1567e-05
0.000122341
6.96763e-05
1.31521e-05
-8.27778e-06
-6.37251e-06
-1.07788e-06
6.69115e-07
-7.5453e-12
3.28116e-12
3.25759e-11
9.27598e-11
1.86574e-10
2.88882e-10
3.17703e-10
1.03164e-10
-6.26467e-10
-2.21027e-09
-4.93416e-09
-8.79448e-09
-1.31411e-08
-1.623e-08
-1.47378e-08
-3.26663e-09
2.62292e-08
8.53389e-08
1.90876e-07
3.68006e-07
6.55607e-07
1.11467e-06
1.84053e-06
2.97995e-06
4.75406e-06
7.48927e-06
1.16584e-05
1.79358e-05
2.72694e-05
4.09751e-05
6.08559e-05
8.93498e-05
0.000129709
0.000186211
0.000264404
0.000371374
0.000516045
0.00070948
0.000965177
0.00129934
0.00173107
0.0022825
0.00297876
0.00384777
0.00491982
0.00622695
0.00780193
0.00967714
0.011883
0.0144467
0.0173873
0.0207164
0.024437
0.0285387
0.0329973
0.0377731
0.0428108
0.0480386
0.0533702
0.0587057
0.0639346
0.0689394
0.0735997
0.0777967
0.0814184
0.0843643
0.0865503
0.0879129
0.0884129
0.0880385
0.086807
0.0847651
0.0819861
0.0785631
0.0745959
0.0701719
0.0653433
0.0601066
0.0543987
0.0481187
0.0411876
0.0336354
0.0256878
0.0178051
0.0106283
0.00481929
0.000840265
-0.0012297
-0.00173759
-0.00131629
-0.000623707
-0.000102392
0.000112224
0.000109996
4.18166e-05
-1.49522e-06
-8.82709e-06
-3.11117e-06
5.35049e-07
-1.00719e-12
2.3368e-11
6.67326e-11
1.3491e-10
2.09825e-10
2.3227e-10
7.90248e-11
-4.47487e-10
-1.59441e-09
-3.57157e-09
-6.38187e-09
-9.56689e-09
-1.18907e-08
-1.09978e-08
-3.05708e-09
1.76765e-08
5.95924e-08
1.35127e-07
2.63373e-07
4.74535e-07
8.16913e-07
1.36717e-06
2.24478e-06
3.63202e-06
5.8013e-06
9.15258e-06
1.42642e-05
2.19613e-05
3.34055e-05
5.02117e-05
7.45951e-05
0.000109553
0.000159087
0.000228459
0.0003245
0.000455938
0.000633769
0.000871633
0.00118618
0.00159741
0.00212891
0.00280803
0.00366583
0.00473685
0.0060586
0.00767074
0.00961392
0.0119283
0.0146516
0.0178175
0.0214501
0.0255641
0.0301634
0.0352353
0.0407504
0.0466598
0.0528954
0.0593687
0.065973
0.0725848
0.0790676
0.0852758
0.0910602
0.0962738
0.100778
0.104447
0.107177
0.108888
0.109529
0.109082
0.107563
0.105024
0.101551
0.0972619
0.0922924
0.0867839
0.0808565
0.0745804
0.0679519
0.0608889
0.0532642
0.0449849
0.0361034
0.0269204
0.0180155
0.0101532
0.00406337
0.000170857
-0.00159089
-0.00176507
-0.00113971
-0.000418636
1.68062e-05
0.000132171
8.15427e-05
1.58774e-05
-8.48728e-06
-5.84695e-06
-1.86786e-07
1.01538e-11
4.62043e-11
9.43943e-11
1.49276e-10
1.69759e-10
6.94715e-11
-2.92017e-10
-1.09316e-09
-2.49082e-09
-4.50222e-09
-6.82719e-09
-8.62683e-09
-8.28303e-09
-3.14304e-09
1.08105e-08
3.95324e-08
9.20325e-08
1.82463e-07
3.33692e-07
5.82945e-07
9.90189e-07
1.65015e-06
2.7092e-06
4.38909e-06
7.01991e-06
1.10858e-05
1.72875e-05
2.66258e-05
4.05117e-05
6.09085e-05
9.05109e-05
0.000132967
0.000193146
0.000277461
0.000394231
0.000554101
0.000770482
0.00106002
0.00144305
0.00194399
0.00259169
0.0034196
0.00446572
0.00577235
0.00738544
0.00935363
0.0117268
0.0145542
0.0178823
0.0217523
0.0261943
0.0312267
0.0368545
0.0430627
0.0498155
0.0570537
0.0646939
0.0726283
0.0807264
0.088837
0.0967928
0.104416
0.111523
0.117933
0.123476
0.128
0.131374
0.1335
0.134315
0.133795
0.131954
0.12885
0.124582
0.119286
0.113131
0.106304
0.0989924
0.0913491
0.0834598
0.0753127
0.0667975
0.057753
0.0480716
0.0378392
0.0274515
0.0176254
0.00924957
0.00309134
-0.000518251
-0.0018493
-0.00166686
-0.000890128
-0.000211429
9.95846e-05
0.000120814
4.61642e-05
-1.83626e-06
-8.34916e-06
-1.80801e-06
2.33954e-11
6.437e-11
1.03786e-10
1.23201e-10
6.35321e-11
-1.72642e-10
-7.12564e-10
-1.67427e-09
-3.08696e-09
-4.76915e-09
-6.17543e-09
-6.2282e-09
-3.13569e-09
5.85061e-09
2.4868e-08
6.02963e-08
1.22366e-07
2.27932e-07
4.0491e-07
6.98952e-07
1.18319e-06
1.97223e-06
3.24209e-06
5.25859e-06
8.41727e-06
1.32988e-05
2.07444e-05
3.19572e-05
4.86346e-05
7.31395e-05
0.000108716
0.000159759
0.000232137
0.00033358
0.000474125
0.000666616
0.000927249
0.00127613
0.00173784
0.00234191
0.00312326
0.00412235
0.00538526
0.00696323
0.00891201
0.0112906
0.0141596
0.0175789
0.021605
0.0262879
0.0316648
0.0377586
0.0445754
0.0520977
0.0602825
0.0690587
0.0783256
0.0879528
0.0977823
0.107631
0.117296
0.126562
0.135206
0.143008
0.149762
0.15528
0.159407
0.162022
0.163047
0.162451
0.16025
0.15651
0.151341
0.144901
0.137386
0.129024
0.120057
0.110719
0.101194
0.0915756
0.0818342
0.0718189
0.061326
0.0502355
0.0386824
0.0271811
0.0166027
0.00794831
0.00197499
-0.00115115
-0.00196014
-0.00144358
-0.000599109
-3.42149e-05
0.000134816
8.63357e-05
1.49208e-05
-8.64497e-06
-4.44522e-06
3.49081e-11
7.09327e-11
8.80565e-11
5.66756e-11
-8.97892e-11
-4.40493e-10
-1.08376e-09
-2.05501e-09
-3.25497e-09
-4.34492e-09
-4.62992e-09
-2.93053e-09
2.59077e-09
1.47433e-08
3.79353e-08
7.93698e-08
1.51135e-07
2.73591e-07
4.80564e-07
8.27053e-07
1.40051e-06
2.33723e-06
3.84605e-06
6.24226e-06
9.99539e-06
1.57955e-05
2.46434e-05
3.79711e-05
5.78001e-05
8.69455e-05
0.000129274
0.000190025
0.000276201
0.000397025
0.000564485
0.000793925
0.0011047
0.00152086
0.00207182
0.00279292
0.00372599
0.00491955
0.0064288
0.00831527
0.0106459
0.0134915
0.016925
0.0210184
0.0258398
0.0314495
0.0378925
0.045197
0.0533709
0.0623938
0.0722146
0.0827485
0.0938753
0.105439
0.11725
0.12909
0.140714
0.151863
0.16227
0.171671
0.179816
0.186482
0.191478
0.19466
0.195933
0.195259
0.192656
0.1882
0.18202
0.174296
0.165253
0.155152
0.144285
0.132951
0.121426
0.109921
0.0985263
0.0871781
0.0756718
0.063754
0.0512988
0.0385121
0.0260548
0.0149629
0.00632331
0.000813313
-0.00164796
-0.00189506
-0.00111846
-0.000310229
8.55541e-05
0.000123908
4.38303e-05
-3.75109e-06
-7.71374e-06
4.10415e-11
6.21669e-11
4.80082e-11
-3.76613e-11
-2.56745e-10
-6.74229e-10
-1.32615e-09
-2.16596e-09
-2.99397e-09
-3.37723e-09
-2.56032e-09
6.55556e-10
8.13209e-09
2.28379e-08
4.9708e-08
9.71713e-08
1.79671e-07
3.21595e-07
5.6323e-07
9.69618e-07
1.64367e-06
2.74544e-06
4.52012e-06
7.33819e-06
1.17519e-05
1.85738e-05
2.89825e-05
4.46656e-05
6.80063e-05
0.000102325
0.000152183
0.000223765
0.00032534
0.000467808
0.000665337
0.000936076
0.00130293
0.00179437
0.00244522
0.00329739
0.00440047
0.005812
0.00759755
0.00983018
0.0125894
0.0159596
0.0200274
0.0248786
0.0305944
0.0372466
0.0448896
0.0535576
0.0632604
0.0739744
0.0856399
0.0981568
0.111383
0.125133
0.139184
0.153273
0.167113
0.180394