# vtk DataFile Version 3.0
Malha 2D com triângulos e temperatura
ASCII
DATASET UNSTRUCTURED_GRID

POINTS 10000 double
0 0 0
10 0 0
10 10 0
0 10 0
0.10101 0 0
0.20202 0 0
0.30303 0 0
0.40404 0 0
0.505051 0 0
0.606061 0 0
0.707071 0 0
0.808081 0 0
0.909091 0 0
1.0101 0 0
1.11111 0 0
1.21212 0 0
1.31313 0 0
1.41414 0 0
1.51515 0 0
1.61616 0 0
1.71717 0 0
1.81818 0 0
1.91919 0 0
2.0202 0 0
2.12121 0 0
2.22222 0 0
2.32323 0 0
2.42424 0 0
2.52525 0 0
2.62626 0 0
2.72727 0 0
2.82828 0 0
2.92929 0 0
3.0303 0 0
3.13131 0 0
3.23232 0 0
3.33333 0 0
3.43434 0 0
3.53535 0 0
3.63636 0 0
3.73737 0 0
3.83838 0 0
3.93939 0 0
4.0404 0 0
4.14141 0 0
4.24242 0 0
4.34343 0 0
4.44444 0 0
4.54545 0 0
4.64646 0 0
4.74747 0 0
4.84848 0 0
4.94949 0 0
5.05051 0 0
5.15152 0 0
5.25253 0 0
5.35354 0 0
5.45455 0 0
5.55556 0 0
5.65657 0 0
5.75758 0 0
5.85859 0 0
5.9596 0 0
6.06061 0 0
6.16162 0 0
6.26263 0 0
6.36364 0 0
6.46465 0 0
6.56566 0 0
6.66667 0 0
6.76768 0 0
6.86869 0 0
6.9697 0 0
7.07071 0 0
7.17172 0 0
7.27273 0 0
7.37374 0 0
7.47475 0 0
7.57576 0 0
7.67677 0 0
7.77778 0 0
7.87879 0 0
7.9798 0 0
8.08081 0 0
8.18182 0 0
8.28283 0 0
8.38384 0 0
8.48485 0 0
8.58586 0 0
8.68687 0 0
8.78788 0 0
8.88889 0 0
8.9899 0 0
9.09091 0 0
9.19192 0 0
9.29293 0 0
9.39394 0 0
9.49495 0 0
9.59596 0 0
9.69697 0 0
9.79798 0 0
9.89899 0 0
10 0.10101 0
10 0.20202 0
10 0.30303 0
10 0.40404 0
10 0.505051 0
10 0.606061 0
10 0.707071 0
10 0.808081 0
10 0.909091 0
10 1.0101 0
10 1.11111 0
10 1.21212 0
10 1.31313 0
10 1.41414 0
10 1.51515 0
10 1.61616 0
10 1.71717 0
10 1.81818 0
10 1.91919 0
10 2.0202 0
10 2.12121 0
10 2.22222 0
10 2.32323 0
10 2.42424 0
10 2.52525 0
10 2.62626 0
10 2.72727 0
10 2.82828 0
10 2.92929 0
10 3.0303 0
10 3.13131 0
10 3.23232 0
10 3.33333 0
10 3.43434 0
10 3.53535 0
10 3.63636 0
10 3.73737 0
10 3.83838 0
10 3.93939 0
10 4.0404 0
10 4.14141 0
10 4.24242 0
10 4.34343 0
10 4.44444 0
10 4.54545 0
10 4.64646 0
10 4.74747 0
10 4.84848 0
10 4.94949 0
10 5.05051 0
10 5.15152 0
10 5.25253 0
10 5.35354 0
10 5.45455 0
10 5.55556 0
10 5.65657 0
10 5.75758 0
10 5.85859 0
10 5.9596 0
10 6.06061 0
10 6.16162 0
10 6.26263 0
10 6.36364 0
10 6.46465 0
10 6.56566 0
10 6.66667 0
10 6.76768 0
10 6.86869 0
10 6.9697 0
10 7.07071 0
10 7.17172 0
10 7.27273 0
10 7.37374 0
10 7.47475 0
10 7.57576 0
10 7.67677 0
10 7.77778 0
10 7.87879 0
10 7.9798 0
10 8.08081 0
10 8.18182 0
10 8.28283 0
10 8.38384 0
10 8.48485 0
10 8.58586 0
10 8.68687 0
10 8.78788 0
10 8.88889 0
10 8.9899 0
10 9.09091 0
10 9.19192 0
10 9.29293 0
10 9.39394 0
10 9.49495 0
10 9.59596 0
10 9.69697 0
10 9.79798 0
10 9.89899 0
9.89899 10 0
9.79798 10 0
9.69697 10 0
9.59596 10 0
9.49495 10 0
9.39394 10 0
9.29293 10 0
9.19192 10 0
9.09091 10 0
8.9899 10 0
8.88889 10 0
8.78788 10 0
8.68687 10 0
8.58586 10 0
8.48485 10 0
8.38384 10 0
8.28283 10 0
8.18182 10 0
8.08081 10 0
7.9798 10 0
7.87879 10 0
7.77778 10 0
7.67677 10 0
7.57576 10 0
7.47475 10 0
7.37374 10 0
7.27273 10 0
7.17172 10 0
7.07071 10 0
6.9697 10 0
6.86869 10 0
6.76768 10 0
6.66667 10 0
6.56566 10 0
6.46465 10 0
6.36364 10 0
6.26263 10 0
6.16162 10 0
6.06061 10 0
5.9596 10 0
5.85859 10 0
5.75758 10 0
5.65657 10 0
5.55556 10 0
5.45455 10 0
5.35354 10 0
5.25253 10 0
5.15152 10 0
5.05051 10 0
4.94949 10 0
4.84848 10 0
4.74747 10 0
4.64646 10 0
4.54545 10 0
4.44444 10 0
4.34343 10 0
4.24242 10 0
4.14141 10 0
4.0404 10 0
3.93939 10 0
3.83838 10 0
3.73737 10 0
3.63636 10 0
3.53535 10 0
3.43434 10 0
3.33333 10 0
3.23232 10 0
3.13131 10 0
3.0303 10 0
2.92929 10 0
2.82828 10 0
2.72727 10 0
2.62626 10 0
2.52525 10 0
2.42424 10 0
2.32323 10 0
2.22222 10 0
2.12121 10 0
2.0202 10 0
1.91919 10 0
1.81818 10 0
1.71717 10 0
1.61616 10 0
1.51515 10 0
1.41414 10 0
1.31313 10 0
1.21212 10 0
1.11111 10 0
1.0101 10 0
0.909091 10 0
0.808081 10 0
0.707071 10 0
0.606061 10 0
0.505051 10 0
0.40404 10 0
0.30303 10 0
0.20202 10 0
0.10101 10 0
0 9.89899 0
0 9.79798 0
0 9.69697 0
0 9.59596 0
0 9.49495 0
0 9.39394 0
0 9.29293 0
0 9.19192 0
0 9.09091 0
0 8.9899 0
0 8.88889 0
0 8.78788 0
0 8.68687 0
0 8.58586 0
0 8.48485 0
0 8.38384 0
0 8.28283 0
0 8.18182 0
0 8.08081 0
0 7.9798 0
0 7.87879 0
0 7.77778 0
0 7.67677 0
0 7.57576 0
0 7.47475 0
0 7.37374 0
0 7.27273 0
0 7.17172 0
0 7.07071 0
0 6.9697 0
0 6.86869 0
0 6.76768 0
0 6.66667 0
0 6.56566 0
0 6.46465 0
0 6.36364 0
0 6.26263 0
0 6.16162 0
0 6.06061 0
0 5.9596 0
0 5.85859 0
0 5.75758 0
0 5.65657 0
0 5.55556 0
0 5.45455 0
0 5.35354 0
0 5.25253 0
0 5.15152 0
0 5.05051 0
0 4.94949 0
0 4.84848 0
0 4.74747 0
0 4.64646 0
0 4.54545 0
0 4.44444 0
0 4.34343 0
0 4.24242 0
0 4.14141 0
0 4.0404 0
0 3.93939 0
0 3.83838 0
0 3.73737 0
0 3.63636 0
0 3.53535 0
0 3.43434 0
0 3.33333 0
0 3.23232 0
0 3.13131 0
0 3.0303 0
0 2.92929 0
0 2.82828 0
0 2.72727 0
0 2.62626 0
0 2.52525 0
0 2.42424 0
0 2.32323 0
0 2.22222 0
0 2.12121 0
0 2.0202 0
0 1.91919 0
0 1.81818 0
0 1.71717 0
0 1.61616 0
0 1.51515 0
0 1.41414 0
0 1.31313 0
0 1.21212 0
0 1.11111 0
0 1.0101 0
0 0.909091 0
0 0.808081 0
0 0.707071 0
0 0.606061 0
0 0.505051 0
0 0.40404 0
0 0.30303 0
0 0.20202 0
0 0.10101 0
0.10101 0.10101 0
0.10101 0.20202 0
0.10101 0.30303 0
0.10101 0.40404 0
0.10101 0.505051 0
0.10101 0.606061 0
0.10101 0.707071 0
0.10101 0.808081 0
0.10101 0.909091 0
0.10101 1.0101 0
0.10101 1.11111 0
0.10101 1.21212 0
0.10101 1.31313 0
0.10101 1.41414 0
0.10101 1.51515 0
0.10101 1.61616 0
0.10101 1.71717 0
0.10101 1.81818 0
0.10101 1.91919 0
0.10101 2.0202 0
0.10101 2.12121 0
0.10101 2.22222 0
0.10101 2.32323 0
0.10101 2.42424 0
0.10101 2.52525 0
0.10101 2.62626 0
0.10101 2.72727 0
0.10101 2.82828 0
0.10101 2.92929 0
0.10101 3.0303 0
0.10101 3.13131 0
0.10101 3.23232 0
0.10101 3.33333 0
0.10101 3.43434 0
0.10101 3.53535 0
0.10101 3.63636 0
0.10101 3.73737 0
0.10101 3.83838 0
0.10101 3.93939 0
0.10101 4.0404 0
0.10101 4.14141 0
0.10101 4.24242 0
0.10101 4.34343 0
0.10101 4.44444 0
0.10101 4.54545 0
0.10101 4.64646 0
0.10101 4.74747 0
0.10101 4.84848 0
0.10101 4.94949 0
0.10101 5.05051 0
0.10101 5.15152 0
0.10101 5.25253 0
0.10101 5.35354 0
0.10101 5.45455 0
0.10101 5.55556 0
0.10101 5.65657 0
0.10101 5.75758 0
0.10101 5.85859 0
0.10101 5.9596 0
0.10101 6.06061 0
0.10101 6.16162 0
0.10101 6.26263 0
0.10101 6.36364 0
0.10101 6.46465 0
0.10101 6.56566 0
0.10101 6.66667 0
0.10101 6.76768 0
0.10101 6.86869 0
0.10101 6.9697 0
0.10101 7.07071 0
0.10101 7.17172 0
0.10101 7.27273 0
0.10101 7.37374 0
0.10101 7.47475 0
0.10101 7.57576 0
0.10101 7.67677 0
0.10101 7.77778 0
0.10101 7.87879 0
0.10101 7.9798 0
0.10101 8.08081 0
0.10101 8.18182 0
0.10101 8.28283 0
0.10101 8.38384 0
0.10101 8.48485 0
0.10101 8.58586 0
0.10101 8.68687 0
0.10101 8.78788 0
0.10101 8.88889 0
0.10101 8.9899 0
0.10101 9.09091 0
0.10101 9.19192 0
0.10101 9.29293 0
0.10101 9.39394 0
0.10101 9.49495 0
0.10101 9.59596 0
0.10101 9.69697 0
0.10101 9.79798 0
0.10101 9.89899 0
0.20202 0.10101 0
0.20202 0.20202 0
0.20202 0.30303 0
0.20202 0.40404 0
0.20202 0.505051 0
0.20202 0.606061 0
0.20202 0.707071 0
0.20202 0.808081 0
0.20202 0.909091 0
0.20202 1.0101 0
0.20202 1.11111 0
0.20202 1.21212 0
0.20202 1.31313 0
0.20202 1.41414 0
0.20202 1.51515 0
0.20202 1.61616 0
0.20202 1.71717 0
0.20202 1.81818 0
0.20202 1.91919 0
0.20202 2.0202 0
0.20202 2.12121 0
0.20202 2.22222 0
0.20202 2.32323 0
0.20202 2.42424 0
0.20202 2.52525 0
0.20202 2.62626 0
0.20202 2.72727 0
0.20202 2.82828 0
0.20202 2.92929 0
0.20202 3.0303 0
0.20202 3.13131 0
0.20202 3.23232 0
0.20202 3.33333 0
0.20202 3.43434 0
0.20202 3.53535 0
0.20202 3.63636 0
0.20202 3.73737 0
0.20202 3.83838 0
0.20202 3.93939 0
0.20202 4.0404 0
0.20202 4.14141 0
0.20202 4.24242 0
0.20202 4.34343 0
0.20202 4.44444 0
0.20202 4.54545 0
0.20202 4.64646 0
0.20202 4.74747 0
0.20202 4.84848 0
0.20202 4.94949 0
0.20202 5.05051 0
0.20202 5.15152 0
0.20202 5.25253 0
0.20202 5.35354 0
0.20202 5.45455 0
0.20202 5.55556 0
0.20202 5.65657 0
0.20202 5.75758 0
0.20202 5.85859 0
0.20202 5.9596 0
0.20202 6.06061 0
0.20202 6.16162 0
0.20202 6.26263 0
0.20202 6.36364 0
0.20202 6.46465 0
0.20202 6.56566 0
0.20202 6.66667 0
0.20202 6.76768 0
0.20202 6.86869 0
0.20202 6.9697 0
0.20202 7.07071 0
0.20202 7.17172 0
0.20202 7.27273 0
0.20202 7.37374 0
0.20202 7.47475 0
0.20202 7.57576 0
0.20202 7.67677 0
0.20202 7.77778 0
0.20202 7.87879 0
0.20202 7.9798 0
0.20202 8.08081 0
0.20202 8.18182 0
0.20202 8.28283 0
0.20202 8.38384 0
0.20202 8.48485 0
0.20202 8.58586 0
0.20202 8.68687 0
0.20202 8.78788 0
0.20202 8.88889 0
0.20202 8.9899 0
0.20202 9.09091 0
0.20202 9.19192 0
0.20202 9.29293 0
0.20202 9.39394 0
0.20202 9.49495 0
0.20202 9.59596 0
0.20202 9.69697 0
0.20202 9.79798 0
0.20202 9.89899 0
0.30303 0.10101 0
0.30303 0.20202 0
0.30303 0.30303 0
0.30303 0.40404 0
0.30303 0.505051 0
0.30303 0.606061 0
0.30303 0.707071 0
0.30303 0.808081 0
0.30303 0.909091 0
0.30303 1.0101 0
0.30303 1.11111 0
0.30303 1.21212 0
0.30303 1.31313 0
0.30303 1.41414 0
0.30303 1.51515 0
0.30303 1.61616 0
0.30303 1.71717 0
0.30303 1.81818 0
0.30303 1.91919 0
0.30303 2.0202 0
0.30303 2.12121 0
0.30303 2.22222 0
0.30303 2.32323 0
0.30303 2.42424 0
0.30303 2.52525 0
0.30303 2.62626 0
0.30303 2.72727 0
0.30303 2.82828 0
0.30303 2.92929 0
0.30303 3.0303 0
0.30303 3.13131 0
0.30303 3.23232 0
0.30303 3.33333 0
0.30303 3.43434 0
0.30303 3.53535 0
0.30303 3.63636 0
0.30303 3.73737 0
0.30303 3.83838 0
0.30303 3.93939 0
0.30303 4.0404 0
0.30303 4.14141 0
0.30303 4.24242 0
0.30303 4.34343 0
0.30303 4.44444 0
0.30303 4.54545 0
0.30303 4.64646 0
0.30303 4.74747 0
0.30303 4.84848 0
0.30303 4.94949 0
0.30303 5.05051 0
0.30303 5.15152 0
0.30303 5.25253 0
0.30303 5.35354 0
0.30303 5.45455 0
0.30303 5.55556 0
0.30303 5.65657 0
0.30303 5.75758 0
0.30303 5.85859 0
0.30303 5.9596 0
0.30303 6.06061 0
0.30303 6.16162 0
0.30303 6.26263 0
0.30303 6.36364 0
0.30303 6.46465 0
0.30303 6.56566 0
0.30303 6.66667 0
0.30303 6.76768 0
0.30303 6.86869 0
0.30303 6.9697 0
0.30303 7.07071 0
0.30303 7.17172 0
0.30303 7.27273 0
0.30303 7.37374 0
0.30303 7.47475 0
0.30303 7.57576 0
0.30303 7.67677 0
0.30303 7.77778 0
0.30303 7.87879 0
0.30303 7.9798 0
0.30303 8.08081 0
[...]
CELL_DATA 9801
SCALARS Temperatura double 1
LOOKUP_TABLE default
7.49503e-14
6.09324e-15
-2.56593e-13
-9.01164e-13
-2.03371e-12
-3.3253e-12
-3.30943e-12
1.57644e-12
1.75909e-11
5.23292e-11
1.08511e-10
1.6921e-10
1.72285e-10
-2.15434e-11
-6.47531e-10
-1.99862e-09
-4.25711e-09
-7.10685e-09
-9.06417e-09
-6.58297e-09
6.76034e-09
4.02988e-08
1.04335e-07
2.0464e-07
3.31793e-07
4.44553e-07
4.48438e-07
1.74032e-07
-6.35911e-07
-2.31673e-06
-5.2319e-06
-9.66484e-06
-1.56385e-05
-2.26593e-05
-2.93987e-05
-3.33449e-05
-3.04789e-05
-1.50445e-05
2.0509e-05
8.53407e-05
0.000189733
0.000344286
0.000558806
0.000840961
0.00119479
0.00161926
0.00210705
0.00264384
0.00320848
0.00377456
0.00432125
0.00490702
0.00551212
0.00612486
0.00672912
0.00730565
0.00783191
0.00828231
0.00862887
0.0088423
0.00889382
0.00875763
0.00841417
0.00785387
0.00708102
0.00611708
0.00500256
0.00379654
0.0025731
0.00141437
0.000400609
-0.000401201
-0.000948287
-0.0012298
-0.00126912
-0.00111943
-0.000853008
-0.000546498
-0.000265784
-5.45511e-05
7.05373e-05
0.000117164
0.000108798
7.37137e-05
3.55019e-05
7.86069e-06
-5.65346e-06
-8.28758e-06
-5.62421e-06
-2.18153e-06
-8.03405e-08
5.40597e-07
3.91703e-07
1.19863e-07
-1.49197e-08
-3.01744e-08
-1.07005e-08
3.13527e-10
1.51731e-09
-1.82191e-13
-7.19464e-13
-1.46611e-12
-2.08863e-12
-1.24669e-12
3.93474e-12
1.78793e-11
4.4512e-11
8.08214e-11
1.037e-10
5.04036e-11
-1.99165e-10
-8.15191e-10
-1.94188e-09
-3.49182e-09
-4.75826e-09
-3.86067e-09
2.79381e-09
2.05642e-08
5.53055e-08
1.09622e-07
1.75508e-07
2.22956e-07
1.85973e-07
-4.94556e-08
-6.46689e-07
-1.796e-06
-3.65263e-06
-6.22053e-06
-9.17381e-06
-1.16212e-05
-1.18373e-05
-7.00579e-06
6.9656e-06
3.54921e-05
8.5167e-05
0.000163403
0.00027788
0.00043588
0.000643625
0.000905762
0.00122513
0.0016029
0.00203907
0.00253323
0.00308541
0.00369666
0.00436912
0.00510522
0.00590589
0.00676941
0.00768429
0.00863779
0.00961403
0.0105934
0.0115526
0.012464
0.0132963
0.0140139
0.014578
0.014947
0.015079
0.0149344
0.0144801
0.013695
0.012576
0.0111439
0.00944777
0.00756653
0.00560566
0.00368881
0.00194395
0.000485888
-0.00060183
-0.00128157
-0.00156867
-0.0015282
-0.00126112
-0.000882772
-0.000499052
-0.000186785
1.64435e-05
0.000110844
0.000123201
9.09241e-05
4.74329e-05
1.34921e-05
-4.10684e-06
-8.34743e-06
-5.8735e-06
-2.2446e-06
-5.66282e-08
5.32944e-07
3.48301e-07
8.45236e-08
-2.34582e-08
-2.41697e-08
-5.46478e-09
1.79713e-09
-9.50621e-13
-1.61459e-12
-1.29729e-12
2.01732e-12
1.18079e-11
3.15468e-11
5.98809e-11
8.02314e-11
4.47536e-11
-1.40864e-10
-6.1232e-10
-1.48365e-09
-2.67349e-09
-3.57639e-09
-2.60014e-09
3.25171e-09
1.83041e-08
4.68596e-08
8.95457e-08
1.36463e-07
1.57143e-07
8.93442e-08
-1.68015e-07
-7.48486e-07
-1.78545e-06
-3.33935e-06
-5.27443e-06
-7.08475e-06
-7.68474e-06
-5.19879e-06
3.20016e-06
2.13471e-05
5.39923e-05
0.000106546
0.000184693
0.000293955
0.000439325
0.000625077
0.000854853
0.00113202
0.00146022
0.00184396
0.00228895
0.00280216
0.0033913
0.00406389
0.00482615
0.00568185
0.00663161
0.00767272
0.00879663
0.00998691
0.0112299
0.0125064
0.0137935
0.0150645
0.016289
0.0174327
0.0184575
0.0193217
0.0199799
0.0203844
0.0204868
0.0202409
0.0196075
0.0185604
0.0170944
0.0152325
0.0130323
0.0105889
0.00803234
0.00551738
0.00320714
0.00125062
-0.000240904
-0.00121354
-0.00168105
-0.00172162
-0.00146074
-0.00104368
-0.000604781
-0.000242043
-4.118e-06
0.000107666
0.000124792
9.13247e-05
4.58843e-05
1.15251e-05
-5.11091e-06
-8.14864e-06
-5.08169e-06
-1.55842e-06
2.26603e-07
5.11342e-07
2.43113e-07
2.49328e-08
-2.97605e-08
-1.42891e-08
3.73621e-10
-1.44591e-12
2.82176e-13
5.98415e-12
1.88762e-11
3.96511e-11
5.95833e-11
4.84622e-11
-5.8885e-11
-3.6425e-10
-9.67789e-10
-1.84746e-09
-2.61572e-09
-2.15876e-09
1.71362e-09
1.22614e-08
3.28229e-08
6.39948e-08
9.82385e-08
1.11936e-07
5.66657e-08
-1.45713e-07
-5.962e-07
-1.38925e-06
-2.54971e-06
-3.92913e-06
-5.06392e-06
-5.01231e-06
-2.20194e-06
5.66958e-06
2.16411e-05
4.93796e-05
9.29697e-05
0.000156654
0.000244615
0.00036089
0.000509497
0.00069478
0.000921903
0.00119735
0.00152927
0.00192746
0.00240301
0.00296753
0.00363219
0.00440672
0.0052985
0.00631202
0.00744839
0.00870521
0.0100765
0.0115501
0.0131113
0.0147412
0.0164155
0.0181056
0.0197792
0.0214002
0.0229295
0.0243249
0.0255417
0.0265321
0.0272456
0.0276293
0.0276299
0.0271957
0.0262824
0.0248597
0.0229204
0.0204906
0.0176379
0.0144766
0.0111653
0.0078965
0.00487549
0.0022928
0.000293423
-0.0010493
-0.00174783
-0.0018973
-0.00165405
-0.0012004
-0.000705227
-0.000291553
-2.03494e-05
0.000106194
0.000125659
8.97819e-05
4.25015e-05
8.56141e-06
-6.29852e-06
-7.75991e-06
-4.12837e-06
-8.71451e-07
4.28511e-07
4.34463e-07
1.37705e-07
-1.30685e-08
-2.43321e-08
-4.30672e-09
1.08246e-12
9.3724e-12
2.30913e-11
4.05324e-11
4.60998e-11
3.46748e-13
-1.66984e-10
-5.41467e-10
-1.15485e-09
-1.82596e-09
-1.89841e-09
5.84948e-11
6.36168e-09
1.969e-08
4.12685e-08
6.71069e-08
8.21326e-08
5.33341e-08
-7.48013e-08
-3.76537e-07
-9.24452e-07
-1.7435e-06
-2.73385e-06
-3.56455e-06
-3.55116e-06
-1.54251e-06
4.15142e-06
1.57628e-05
3.59897e-05
6.78611e-05
0.000114594
0.000179516
0.000266134
0.000378371
0.000520964
0.000699939
0.000923018
0.00119983
0.00154186
0.00196203
0.00247415
0.00309218
0.00382952
0.00469839
0.00570926
0.00687034
0.00818701
0.00966111
0.0112903
0.0130677
0.0149781
0.017001
0.0191119
0.0212791
0.023466
0.0256316
0.0277313
0.0297183
0.0315441
0.0331593
0.0345138
0.0355565
0.0362351
0.0364959
0.0362845
0.0355479
0.0342394
0.0323262
0.0298
0.0266893
0.0230707
0.0190768
0.0148959
0.0107596
0.00691962
0.00361267
0.0010222
-0.000755745
-0.00173162
-0.00201962
-0.00181122
-0.00133091
-0.000786432
-0.000328295
-3.01666e-05
0.000105824
0.000124415
8.52951e-05
3.70174e-05
4.83751e-06
-7.33685e-06
-7.01165e-06
-3.02329e-06
-2.54316e-07
5.1389e-07
3.11959e-07
4.94733e-08
-2.68261e-08
-1.33049e-08
9.45969e-12
2.42043e-11
3.5847e-11
2.65005e-11
-4.681e-11
-2.48756e-10
-6.35266e-10
-1.16408e-09
-1.52287e-09
-8.92519e-10
2.23684e-09
9.91534e-09
2.37796e-08
4.27394e-08
5.89717e-08
5.26761e-08
-1.24458e-08
-1.88927e-07
-5.34372e-07
-1.08242e-06
-1.79056e-06
-2.46479e-06
-2.66956e-06
-1.64052e-06
1.77658e-06
9.14016e-06
2.23735e-05
4.36881e-05
7.55126e-05
0.000120485
0.000181565
0.000262289
0.000367149
0.000502023
0.000674548
0.000894343
0.00117302
0.001524
0.00196215
0.00250334
0.00316406
0.00396096
0.00491034
0.00602756
0.00732632
0.00881766
0.0105089
0.0124028
0.0144962
0.0167797
0.0192337
0.0218318
0.0245417
0.0273222
0.0301258
0.0328995
0.0355865
0.0381281
0.0404652
0.0425402
0.0442978
0.0456854
0.046653
0.0471517
0.0471328
0.0465474
0.0453466
0.0434862
0.0409342
0.0376825
0.0337615
0.0292557
0.0243142
0.0191535
0.0140454
0.00928969
0.00517304
0.00192077
-0.000346037
-0.00163595
-0.00208503
-0.00192458
-0.00142635
-0.000840716
-0.000347061
-3.097e-05
0.000107314
0.000121059
7.79047e-05
2.9766e-05
7.96089e-07
-7.94726e-06
-5.87716e-06
-1.87483e-06
2.07291e-07
4.76551e-07
1.74696e-07
-5.46409e-09
-2.5046e-08
2.12638e-11
2.8676e-11
7.58312e-12
-8.15259e-11
-2.91968e-10
-6.48243e-10
-1.04907e-09
-1.1039e-09
5.38859e-11
3.82907e-09
1.18049e-08
2.4536e-08
3.90973e-08
4.53758e-08
2.2016e-08
-6.55891e-08
-2.61154e-07
-6.01911e-07
-1.08671e-06
-1.626e-06
-1.97758e-06
-1.67917e-06
5.82583e-09
4.11322e-06
1.19664e-05
2.51383e-05
4.54164e-05
7.48168e-05
0.000115692
0.000170955
0.000244412
0.00034115
0.000467899
0.00063331
0.000848085
0.00112497
0.00147866
0.00192563
0.00248393
0.00317303
0.00401342
0.00502619
0.0062323
0.00765166
0.00930201
0.0111976
0.013348
0.0157564
0.018419
0.0213237
0.0244457
0.0277511
0.0311984
0.0347346
0.0382984
0.0418213
0.0452302
0.04845
0.0514059
0.0540267
0.056247
0.0580087
0.0592616
0.0599626
0.0600738
0.0595596
0.0583844
0.0565116
0.0539057
0.0505398
0.0464077
0.0415416
0.0360308
0.0300381
0.0238049
0.0176414
0.0118958
0.00690623
0.00294217
0.00015103
-0.00147481
-0.00209667
-0.00199073
-0.00148078
-0.000862659
-0.000344561
-2.1682e-05
0.000110461
0.000115237
6.77463e-05
2.13175e-05
-2.98859e-06
-7.87941e-06
-4.41827e-06
-8.31274e-07
4.52376e-07
3.45622e-07
6.00426e-08
-3.24715e-08
2.40221e-11
-6.50594e-12
-9.98716e-11
-2.9927e-10
-6.03979e-10
-8.77549e-10
-7.05031e-10
7.3976e-10
4.65895e-09
1.21473e-08
2.29097e-08
3.29421e-08
3.14028e-08
-2.17476e-09
-9.7888e-08
-2.89008e-07
-5.94955e-07
-9.90856e-07
-1.36431e-06
-1.46509e-06
-8.58476e-07
1.10536e-06
5.29775e-06
1.27968e-05
2.48707e-05
4.2991e-05
6.8914e-05
0.000104855
0.000153759
0.000219636
0.000307911
0.000425733
0.000582209
0.000788546
0.00105814
0.00140665
0.00185199
0.0024144
0.00311634
0.00398222
0.00503802
0.0063105
0.0078263
0.00961066
0.011686
0.0140705
0.0167762
0.0198074
0.0231594
0.0268169
0.0307491
0.0349134
0.0392571
0.0437131
0.0482034
0.0526409
0.0569321
0.0609807
0.0646911
0.0679728
0.070744
0.0729349
0.0744895
0.0753669
0.075539
0.074988
0.0737015
0.0716674
0.0688702
0.0652911
0.0609132
0.0557346
0.0497882
0.0431651
0.036036
0.0286624
0.0213884
0.0146088
0.00871287
0.0040151
0.000689014
-0.00127416
-0.00206535
-0.00201106
-0.00149151
-0.000849394
-0.000319673
-2.89223e-06
0.000114119
0.000106383
5.51728e-05
1.24852e-05
-5.90492e-06
-7.00819e-06
-2.81014e-06
-4.71483e-08
4.74305e-07
1.80986e-07
-2.09058e-08
-2.22331e-12
-1.03839e-10
-2.80507e-10
-5.29396e-10
-7.01718e-10
-3.99423e-10
1.11233e-09
4.80927e-09
1.13836e-08
2.00189e-08
2.63524e-08
1.99895e-08
-1.72316e-08
-1.09981e-07
-2.8214e-07
-5.40505e-07
-8.48183e-07
-1.08959e-06
-1.03308e-06
-2.99969e-07
1.6519e-06
5.52827e-06
1.21914e-05
2.26673e-05
3.81958e-05
6.03513e-05
9.12435e-05
0.00013379
0.000192032
0.000271442
0.000379213
0.000524497
0.000718624
0.000975303
0.00131085
0.00174439
0.00229802
0.00299688
0.00386902
0.004945
0.00625732
0.00783946
0.00972471
0.0119446
0.0145274
0.0174957
0.0208648
0.0246403
0.0288165
0.0333746
0.0382767
0.0434699
0.0488886
0.0544491
0.0600537
0.0655933
0.07095
0.076002
0.0806281
0.0847129
0.0881521
0.0908575
0.0927606
0.0938154
0.0939987
0.0933077
0.0917555
0.0893639
0.0861555
0.0821461
0.0773414
0.0717404
0.0653475
0.0581947
0.0503701
0.0420455
0.0334951
0.0250908
0.0172695
0.0104699
0.00505034
0.00120883
-0.00106819
-0.00200697
-0.00199028
-0.00145851
-0.000800679
-0.000273734
2.29964e-05
0.000116314
9.39576e-05
4.09018e-05
4.28618e-06
-7.44106e-06
-5.41732e-06
-1.31901e-06
3.74305e-07
3.35516e-07
3.0342e-08
-7.17963e-11
-2.47989e-10
-4.45234e-10
-5.49865e-10
-2.04592e-10
1.21422e-09
4.47646e-09
9.99461e-09
1.67343e-08
2.05092e-08
1.20717e-08
-2.38807e-08
-1.06861e-07
-2.53508e-07
-4.63245e-07
-6.9631e-07
-8.46582e-07
-7.14538e-07
1.303e-08
1.77213e-06
5.12165e-06
1.07459e-05
1.94803e-05
3.23827e-05
5.0869e-05
7.69154e-05
0.000113315
0.000163963
0.000234145
0.000330817
0.000462885
0.000641497
0.000880364
0.00119612
0.00160866
0.00214147
0.0028218
0.00368072
0.00475287
0.00607602
0.00769032
0.00963713
0.0119576
0.0146908
0.0178717
0.0215284
0.0256802
0.0303342
0.0354836
0.0411054
0.0471537
0.0535638
0.0602547
0.0671234
0.0740496
0.0808981
0.0875231
0.0937729
0.0994962
0.104548
0.108796
0.112127
0.114455
0.115721
0.115898
0.114993
0.113039
0.110092
0.10622
0.101491
0.0959616
0.0896701
0.0826363
0.0748725
0.0664073
0.0573194
0.0477738
0.0380478
0.0285331
0.0197031
0.0120423
0.00595034
0.00164645
-0.0008935
-0.00193844
-0.00193406
-0.00138352
-0.000718775
-0.000210609
5.1908e-05
0.000114628
7.78184e-05
2.61268e-05
-2.20177e-06
-7.36143e-06
-3.43157e-06
-2.20314e-07
4.38903e-07
1.38789e-07
-1.75432e-10
-3.66412e-10
-4.3047e-10
-1.04295e-10
1.12756e-09
3.86717e-09
8.36107e-09
1.35796e-08
1.58345e-08
7.33022e-09
-2.4378e-08
-9.44438e-08
-2.14469e-07
-3.80576e-07
-5.55954e-07
-6.50266e-07
-5.00271e-07
1.43665e-07
1.62331e-06
4.37469e-06
8.93828e-06
1.5995e-05
2.64458e-05
4.15467e-05
6.30984e-05
9.36793e-05
0.000136905
0.000197701
0.00028259
0.00040001
0.000560669
0.000777964
0.00106844
0.00145227
0.00195369
0.00260135
0.00342855
0.00447321
0.00577763
0.00738796
0.00935322
0.011724
0.0145507
0.0178812
0.0217583
0.0262169
0.0312805
0.0369584
0.0432426
0.0501053
0.0574911
0.065322
0.0734991
0.0818971
0.0903693
0.0987509
0.106863
0.114521
0.121539
0.127736
0.132948
0.137036
0.139885
0.141421
0.141608
0.140451
0.137997
0.13433
0.129559
0.123809
0.117203
0.109848
0.101821
0.0931649
0.0839006
0.0740494
0.0636736
0.0529211
0.0420621
0.0314992
0.0217355
0.0132971
0.00662116
0.00194238
-0.000781977
-0.00187307
-0.00184661
-0.00126917
-0.000608401
-0.000136613
7.85723e-05
0.000106866
5.86356e-05
1.24804e-05
-6.11042e-06
-5.85922e-06
-1.54493e-06
3.2564e-07
2.99511e-07
-2.70083e-10
-3.43576e-10
-6.88786e-11
9.36209e-10
3.14814e-09
6.73154e-09
1.07947e-08
1.22909e-08
4.9145e-09
-2.12059e-08
-7.77648e-08
-1.73098e-07
-3.02661e-07
-4.35523e-07
-4.98957e-07
-3.6452e-07
1.61221e-07
1.34097e-06
3.51079e-06
7.09465e-06
1.26441e-05
2.09168e-05
3.30016e-05
5.04896e-05
7.56822e-05
0.000111827
0.000163377
0.000236288
0.000338357
0.000479629
0.000672884
0.00093417
0.00128339
0.00174486
0.00234784
0.00312693
0.00412232
0.0053798
0.00695047
0.00889011
0.011258
0.0141154
0.0175234
0.02154
0.0262174
0.0315979
0.0377105
0.0445668
0.0521575
0.0604493
0.0693764
0.0788453
0.0887366
0.0988995
0.109157
0.11931
0.129144
0.138433
0.146952
0.154483
0.160826
0.165806
0.169285
0.171165
0.171395
0.169977
0.166963
0.162455
0.156597
0.149564
0.141545
0.132726
0.123269
0.113292
0.102866
0.0920156
0.0807503
0.069107
0.0572061
0.0453
0.033793
0.0232117
0.0141191
0.00698493
0.00205153
-0.000753845
-0.00181645
-0.00172903
-0.00111891
-0.000476898
-6.01643e-05
9.74113e-05
9.19051e-05
3.8154e-05
1.74281e-06
-7.12433e-06
-3.57823e-06
-2.27433e-07
4.5833e-07
-2.87223e-10
-7.11518e-11
7.07549e-10
2.43347e-09
5.2436e-09
8.4428e-09
9.64555e-09
3.92179e-09
-1.64123e-08
-6.03851e-08
-1.34292e-07
-2.3433e-07
-3.36332e-07
-3.84299e-07
-2.80314e-07
1.22098e-07
1.02154e-06
2.67391e-06
5.40839e-06
9.66594e-06
1.60712e-05
2.55436e-05
3.94466e-05
5.97716e-05
8.93507e-05
0.000132104
0.000193331
0.000280067
0.000401513
0.00056956
0.000799384
0.0011101
0.00152546
0.00207449
0.00279212
0.00371966
0.00490512
0.00640321
0.00827504
0.0105873
0.0134111
0.0168197
0.0208864
0.025681
0.0312662
0.0376931
0.0449969
0.0531919
0.0622675
0.0721842
0.0828648
0.094198
0.106042
0.118215
0.130508
0.142682
0.15448
0.165633
0.17587
0.184931
0.192574
0.198589
0.202806
0.205105
0.20542
0.203744
0.200132
0.1947
0.187615
0.179093
0.169381
0.158741
0.147423
0.135645
0.123569
0.111286
0.0988248
0.0861733
0.0733343
0.0603899
0.0475647
0.0352567
0.0240113
0.014424
0.006991
0.00195155
-0.000812318
-0.0017641
-0.0015792
-0.000937711
-0.000334482
9.01042e-06
0.000103837
7.04968e-05
1.9067e-05
-4.7202e-06
-5.73532e-06
-1.40566e-06
4.88791e-07
-1.59893e-10
4.88403e-10
1.79063e-09
3.95912e-09
6.50121e-09
7.6377e-09
3.62981e-09
-1.14071e-08
-4.44579e-08
-1.00532e-07
-1.77111e-07
-2.56445e-07
-2.97044e-07
-2.2626e-07
6.46064e-08
7.23387e-07
1.9424e-06
3.97366e-06
7.1635e-06
1.2015e-05
1.92829e-05
3.01022e-05
4.61465e-05
6.98197e-05
0.000104485
0.000154744
0.000226794
0.000328861
0.000471738
0.000669415
0.000939784
0.00130541
0.00179432
0.0024408
0.0032861
0.00437904
0.00577637
0.0075428
0.00975067
0.012479
0.015812
0.0198366
0.0246399
0.0303049
0.0369062
0.044505
0.0531434
0.0628391
0.0735802
0.0853204
0.0979695
0.111397
0.125435
0.13987
0.154453
0.168903
0.182915
0.196169
0.208346
0.219136
0.228251
0.235443
0.240508
0.2433
0.243737
0.241806
0.237564
0.231137
0.222717
0.212553
0.200936
0.188192
0.174651
0.160631
0.1464
0.132158
0.118014
0.103988
0.0900428
0.0761341
0.0622963
0.0487179
0.0357857
0.0240607
0.0141685
0.00662405
0.00164831
-0.000941207
-0.00170189
-0.00139366
-0.000733606
-0.000194167
6.13672e-05
9.57795e-05
4.56291e-05
4.33017e-06
-6.61174e-06
-3.17639e-06
1.94014e-07
1.43297e-10
1.25956e-09
2.89466e-09
4.91805e-09
6.05738e-09
3.56071e-09
-7.0059e-09
-3.10451e-08
-7.26988e-08
-1.30753e-07
-1.92929e-07
-2.29555e-07
-1.8806e-07
1.07263e-08
4.75172e-07
1.34771e-06
2.81809e-06
5.15262e-06
8.74626e-06
1.42017e-05
2.24368e-05
3.48206e-05
5.33407e-05
8.08108e-05
0.000121133
0.000179635
0.000263495
0.000382269
0.000548529
0.000778593
0.00109335
0.00151915
0.00208873
0.00284215
0.00382763
0.00510227
0.00673246
0.00879401
0.0113716
0.014558
0.0184519
0.0231556
0.0287713
0.0353966
0.0431198
0.0520129
0.0621264
0.0734816
0.0860654
0.0998241
0.114654
0.130403
0.146874
0.163819
0.180945
0.197924
0.214398
0.229991
0.244329
0.257048
0.267809
0.276319
0.282338
0.285693
0.286285
0.284096
0.279187
0.2717
0.261848
0.249912
0.236227
0.221168
0.205134
0.188522
0.171705
0.154998
0.138627
0.122708
0.107247
0.0921655
0.0773656
0.0628248
0.0486902
0.0353363
0.0233407
0.0133568
0.00590812
0.00117739
-0.00110636
-0.00160949
-0.00117115
-0.000519277
-7.07361e-05
8.97654e-05
7.49494e-05
2.20179e-05
-4.00648e-06
-5.05832e-06
-6.408e-07
5.94439e-10
2.05813e-09
3.63943e-09
4.76533e-09
3.45561e-09
-3.56893e-09
-2.04663e-08
-5.07198e-08
-9.41853e-08
-1.429e-07
-1.76384e-07
-1.57502e-07
-2.96315e-08
2.85446e-07
8.91565e-07
1.92894e-06
3.59772e-06
6.19989e-06
1.02035e-05
1.63306e-05
2.56717e-05
3.98289e-05
6.10995e-05
9.27129e-05
0.00013914
0.000206493
0.000303027
0.000439759
0.000631196
0.000896183
0.00125885
0.00174964
0.00240641
0.00327547
0.00441263
0.00588398
0.00776645
0.0101479
0.0131266
0.01681
0.0213131
0.0267545
0.0332533
0.0409233
0.0498675
0.0601704
0.0718911
0.0850557
0.0996497
0.115612
0.132823
0.151109
0.170241
0.189933
0.209845
0.229596
0.24877
0.266933
0.283647
0.298489
0.311065
0.321032
0.328111
0.332097
0.332876
0.330423
0.324807
0.316187
0.304806
0.290979
0.275085
0.257547
0.238819
0.219368
0.199648
0.180074
0.160992
0.14264
0.125132
0.108443
0.092446
0.0769789
0.0619569
0.047485
0.0339291
0.0218878
0.0120409
0.00490591
0.000600863
-0.00126121
-0.00146667
-0.000916979
-0.00031255
2.17404e-05
9.19991e-05
4.70809e-05
4.51952e-06
-5.94173e-06
-2.12805e-06
1.10548e-09
2.64382e-09
3.68159e-09
3.21531e-09
-1.15459e-09
-1.25914e-08
-3.40178e-08
-6.60357e-08
-1.03884e-07
-1.33954e-07
-1.30657e-07
-5.42307e-08
1.50898e-07
5.59192e-07
1.27223e-06
2.43687e-06
4.27791e-06
7.14883e-06
1.16026e-05
1.84853e-05
2.90563e-05
4.5146e-05
6.93631e-05
0.00010537
0.000158246
0.000234947
0.00034489
0.000500652
0.000718807
0.00102089
0.00143448
0.00199441
0.00274397
0.00373619
0.00503498
0.0067161
0.00886775
0.0115907
0.0149979
0.0192128
0.0243675
0.0305986
0.0380433
0.046833
0.0570866
0.0689022
0.0823488
0.0974574
0.114212
0.132544
0.152319
0.173338
0.195339
0.217993
0.240913
0.26366
0.285755
0.3067
0.325991
0.343138
0.357689
0.369246
0.377486
0.382173
0.383171
0.380451
0.374089
0.364266
0.351257
0.335423
0.317187
0.297027
0.275452
0.252986
0.230149
0.207435
0.185286
0.164057
0.143987
0.125167
0.107531
0.0908916
0.0750157
0.059754
0.0451746
0.0316442
0.0197907
0.0103168
0.00371337
-3.32684e-07
-0.00135593
-0.00126113
-0.000646292
-0.000134634
7.37731e-05
7.25858e-05
2.04062e-05
-4.11958e-06
-4.09983e-06
1.55165e-09
2.79847e-09
2.83629e-09
3.51808e-10
-7.05448e-09
-2.17926e-08
-4.48972e-08
-7.3848e-08
-9.99925e-08
-1.06163e-07
-6.49677e-08
6.24519e-08
3.28616e-07
8.05652e-07
1.59872e-06
2.87072e-06
4.88134e-06
8.04273e-06
1.29944e-05
2.07021e-05
3.25886e-05
5.07109e-05
7.79973e-05
0.000118566
0.000178137
0.000264562
0.000388476
0.000564094
0.000810154
0.00115101
0.00161787
0.00225015
0.00309689
0.00421818
0.00568649
0.00758776
0.0100221
0.0131041
0.0169619
0.0217361
0.0275769
0.0346403
0.0430825
0.0530537
0.06469
0.078104
0.0933754
0.110541
0.129584
0.150426
0.172918
0.196837
0.221883
0.247687
0.273805
0.29974
0.324949
0.348862
0.370905
0.39052
0.40719
0.420459
0.429956
0.43541
0.436663
0.433679
0.426542
0.415457
0.400736
0.382784
0.362084
0.339172
0.314616
0.289002
0.262907
0.236887
0.211453
0.187051
0.164028
0.142603
0.122827
0.104583
0.0876103
0.0716024
0.0563486
0.0418909
0.0286129
0.0171822
0.00831681
0.00245018
-0.000538129
-0.00134914
-0.000995974
-0.000384567
-5.40083e-06
8.46174e-05
4.23278e-05
2.30343e-06
-5.92648e-06
1.8093e-09
2.39734e-09
1.14004e-09
-3.39765e-09
-1.31901e-08
-2.94454e-08
-5.11157e-08
-7.30008e-08