# vtk DataFile Version 3.0
Malha 2D com triângulos e temperatura
ASCII
DATASET UNSTRUCTURED_GRID

POINTS 10000 double
0 0 0
10 0 0
10 10 0
0 10 0
0.10101 0 0
0.20202 0 0
0.30303 0 0
0.40404 0 0
0.505051 0 0
0.606061 0 0
0.707071 0 0
0.808081 0 0
0.909091 0 0
1.0101 0 0
1.11111 0 0
1.21212 0 0
1.31313 0 0
1.41414 0 0
1.51515 0 0
1.61616 0 0
1.71717 0 0
1.81818 0 0
1.91919 0 0
2.0202 0 0
2.12121 0 0
2.22222 0 0
2.32323 0 0
2.42424 0 0
2.52525 0 0
2.62626 0 0
2.72727 0 0
2.82828 0 0
2.92929 0 0
3.0303 0 0
3.13131 0 0
3.23232 0 0
3.33333 0 0
3.43434 0 0
3.53535 0 0
3.63636 0 0
3.73737 0 0
3.83838 0 0
3.93939 0 0
4.0404 0 0
4.14141 0 0
4.24242 0 0
4.34343 0 0
4.44444 0 0
4.54545 0 0
4.64646 0 0
4.74747 0 0
4.84848 0 0
4.94949 0 0
5.05051 0 0
5.15152 0 0
5.25253 0 0
5.35354 0 0
5.45455 0 0
5.55556 0 0
5.65657 0 0
5.75758 0 0
5.85859 0 0
5.9596 0 0
6.06061 0 0
6.16162 0 0
6.26263 0 0
6.36364 0 0
6.46465 0 0
6.56566 0 0
6.66667 0 0
6.76768 0 0
6.86869 0 0
6.9697 0 0
7.07071 0 0
7.17172 0 0
7.27273 0 0
7.37374 0 0
7.47475 0 0
7.57576 0 0
7.67677 0 0
7.77778 0 0
7.87879 0 0
7.9798 0 0
8.08081 0 0
8.18182 0 0
8.28283 0 0
8.38384 0 0
8.48485 0 0
8.58586 0 0
8.68687 0 0
8.78788 0 0
8.88889 0 0
8.9899 0 0
9.09091 0 0
9.19192 0 0
9.29293 0 0
9.39394 0 0
9.49495 0 0
9.59596 0 0
9.69697 0 0
9.79798 0 0
9.89899 0 0
10 0.10101 0
10 0.20202 0
10 0.30303 0
10 0.40404 0
10 0.505051 0
10 0.606061 0
10 0.707071 0
10 0.808081 0
10 0.909091 0
10 1.0101 0
10 1.11111 0
10 1.21212 0
10 1.31313 0
10 1.41414 0
10 1.51515 0
10 1.61616 0
10 1.71717 0
10 1.81818 0
10 1.91919 0
10 2.0202 0
10 2.12121 0
10 2.22222 0
10 2.32323 0
10 2.42424 0
10 2.52525 0
10 2.62626 0
10 2.72727 0
10 2.82828 0
10 2.92929 0
10 3.0303 0
10 3.13131 0
10 3.23232 0
10 3.33333 0
10 3.43434 0
10 3.53535 0
10 3.63636 0
10 3.73737 0
10 3.83838 0
10 3.93939 0
10 4.0404 0
10 4.14141 0
10 4.24242 0
10 4.34343 0
10 4.44444 0
10 4.54545 0
10 4.64646 0
10 4.74747 0
10 4.84848 0
10 4.94949 0
10 5.05051 0
10 5.15152 0
10 5.25253 0
10 5.35354 0
10 5.45455 0
10 5.55556 0
10 5.65657 0
10 5.75758 0
10 5.85859 0
10 5.9596 0
10 6.06061 0
10 6.16162 0
10 6.26263 0
10 6.36364 0
10 6.46465 0
10 6.56566 0
10 6.66667 0
10 6.76768 0
10 6.86869 0
10 6.9697 0
10 7.07071 0
10 7.17172 0
10 7.27273 0
10 7.37374 0
10 7.47475 0
10 7.57576 0
10 7.67677 0
10 7.77778 0
10 7.87879 0
10 7.9798 0
10 8.08081 0
10 8.18182 0
10 8.28283 0
10 8.38384 0
10 8.48485 0
10 8.58586 0
10 8.68687 0
10 8.78788 0
10 8.88889 0
10 8.9899 0
10 9.09091 0
10 9.19192 0
10 9.29293 0
10 9.39394 0
10 9.49495 0
10 9.59596 0
10 9.69697 0
10 9.79798 0
10 9.89899 0
9.89899 10 0
9.79798 10 0
9.69697 10 0
9.59596 10 0
9.49495 10 0
9.39394 10 0
9.29293 10 0
9.19192 10 0
9.09091 10 0
8.9899 10 0
8.88889 10 0
8.78788 10 0
8.68687 10 0
8.58586 10 0
8.48485 10 0
8.38384 10 0
8.28283 10 0
8.18182 10 0
8.08081 10 0
7.9798 10 0
7.87879 10 0
7.77778 10 0
7.67677 10 0
7.57576 10 0
7.47475 10 0
7.37374 10 0
7.27273 10 0
7.17172 10 0
7.07071 10 0
6.9697 10 0
6.86869 10 0
6.76768 10 0
6.66667 10 0
6.56566 10 0
6.46465 10 0
6.36364 10 0
6.26263 10 0
6.16162 10 0
6.06061 10 0
5.9596 10 0
5.85859 10 0
5.75758 10 0
5.65657 10 0
5.55556 10 0
5.45455 10 0
5.35354 10 0
5.25253 10 0
5.15152 10 0
5.05051 10 0
4.94949 10 0
4.84848 10 0
4.74747 10 0
4.64646 10 0
4.54545 10 0
4.44444 10 0
4.34343 10 0
4.24242 10 0
4.14141 10 0
4.0404 10 0
3.93939 10 0
3.83838 10 0
3.73737 10 0
3.63636 10 0
3.53535 10 0
3.43434 10 0
3.33333 10 0
3.23232 10 0
3.13131 10 0
3.0303 10 0
2.92929 10 0
2.82828 10 0
2.72727 10 0
2.62626 10 0
2.52525 10 0
2.42424 10 0
2.32323 10 0
2.22222 10 0
2.12121 10 0
2.0202 10 0
1.91919 10 0
1.81818 10 0
1.71717 10 0
1.61616 10 0
1.51515 10 0
1.41414 10 0
1.31313 10 0
1.21212 10 0
1.11111 10 0
1.0101 10 0
0.909091 10 0
0.808081 10 0
0.707071 10 0
0.606061 10 0
0.505051 10 0
0.40404 10 0
0.30303 10 0
0.20202 10 0
0.10101 10 0
0 9.89899 0
0 9.79798 0
0 9.69697 0
0 9.59596 0
0 9.49495 0
0 9.39394 0
0 9.29293 0
0 9.19192 0
0 9.09091 0
0 8.9899 0
0 8.88889 0
0 8.78788 0
0 8.68687 0
0 8.58586 0
0 8.48485 0
0 8.38384 0
0 8.28283 0
0 8.18182 0
0 8.08081 0
0 7.9798 0
0 7.87879 0
0 7.77778 0
0 7.67677 0
0 7.57576 0
0 7.47475 0
0 7.37374 0
0 7.27273 0
0 7.17172 0
0 7.07071 0
0 6.9697 0
0 6.86869 0
0 6.76768 0
0 6.66667 0
0 6.56566 0
0 6.46465 0
0 6.36364 0
0 6.26263 0
0 6.16162 0
0 6.06061 0
0 5.9596 0
0 5.85859 0
0 5.75758 0
0 5.65657 0
0 5.55556 0
0 5.45455 0
0 5.35354 0
0 5.25253 0
0 5.15152 0
0 5.05051 0
0 4.94949 0
0 4.84848 0
0 4.74747 0
0 4.64646 0
0 4.54545 0
0 4.44444 0
0 4.34343 0
0 4.24242 0
0 4.14141 0
0 4.0404 0
0 3.93939 0
0 3.83838 0
0 3.73737 0
0 3.63636 0
0 3.53535 0
0 3.43434 0
0 3.33333 0
0 3.23232 0
0 3.13131 0
0 3.0303 0
0 2.92929 0
0 2.82828 0
0 2.72727 0
0 2.62626 0
0 2.52525 0
0 2.42424 0
0 2.32323 0
0 2.22222 0
0 2.12121 0
0 2.0202 0
0 1.91919 0
0 1.81818 0
0 1.71717 0
0 1.61616 0
0 1.51515 0
0 1.41414 0
0 1.31313 0
0 1.21212 0
0 1.11111 0
0 1.0101 0
0 0.909091 0
0 0.808081 0
0 0.707071 0
0 0.606061 0
0 0.505051 0
0 0.40404 0
0 0.30303 0
0 0.20202 0
0 0.10101 0
0.10101 0.10101 0
0.10101 0.20202 0
0.10101 0.30303 0
0.10101 0.40404 0
0.10101 0.505051 0
0.10101 0.606061 0
0.10101 0.707071 0
0.10101 0.808081 0
0.10101 0.909091 0
0.10101 1.0101 0
0.10101 1.11111 0
0.10101 1.21212 0
0.10101 1.31313 0
0.10101 1.41414 0
0.10101 1.51515 0
0.10101 1.61616 0
0.10101 1.71717 0
0.10101 1.81818 0
0.10101 1.91919 0
0.10101 2.0202 0
0.10101 2.12121 0
0.10101 2.22222 0
0.10101 2.32323 0
0.10101 2.42424 0
0.10101 2.52525 0
0.10101 2.62626 0
0.10101 2.72727 0
0.10101 2.82828 0
0.10101 2.92929 0
0.10101 3.0303 0
0.10101 3.13131 0
0.10101 3.23232 0
0.10101 3.33333 0
0.10101 3.43434 0
0.10101 3.53535 0
0.10101 3.63636 0
0.10101 3.73737 0
0.10101 3.83838 0
0.10101 3.93939 0
0.10101 4.0404 0
0.10101 4.14141 0
0.10101 4.24242 0
0.10101 4.34343 0
0.10101 4.44444 0
0.10101 4.54545 0
0.10101 4.64646 0
0.10101 4.74747 0
0.10101 4.84848 0
0.10101 4.94949 0
0.10101 5.05051 0
0.10101 5.15152 0
0.10101 5.25253 0
0.10101 5.35354 0
0.10101 5.45455 0
0.10101 5.55556 0
0.10101 5.65657 0
0.10101 5.75758 0
0.10101 5.85859 0
0.10101 5.9596 0
0.10101 6.06061 0
0.10101 6.16162 0
0.10101 6.26263 0
0.10101 6.36364 0
0.10101 6.46465 0
0.10101 6.56566 0
0.10101 6.66667 0
0.10101 6.76768 0
0.10101 6.86869 0
0.10101 6.9697 0
0.10101 7.07071 0
0.10101 7.17172 0
0.10101 7.27273 0
0.10101 7.37374 0
0.10101 7.47475 0
0.10101 7.57576 0
0.10101 7.67677 0
0.10101 7.77778 0
0.10101 7.87879 0
0.10101 7.9798 0
0.10101 8.08081 0
0.10101 8.18182 0
0.10101 8.28283 0
0.10101 8.38384 0
0.10101 8.48485 0
0.10101 8.58586 0
0.10101 8.68687 0
0.10101 8.78788 0
0.10101 8.88889 0
0.10101 8.9899 0
0.10101 9.09091 0
0.10101 9.19192 0
0.10101 9.29293 0
0.10101 9.39394 0
0.10101 9.49495 0
0.10101 9.59596 0
0.10101 9.69697 0
0.10101 9.79798 0
0.10101 9.89899 0
0.20202 0.10101 0
0.20202 0.20202 0
0.20202 0.30303 0
0.20202 0.40404 0
0.20202 0.505051 0
0.20202 0.606061 0
0.20202 0.707071 0
0.20202 0.808081 0
0.20202 0.909091 0
0.20202 1.0101 0
0.20202 1.11111 0
0.20202 1.21212 0
0.20202 1.31313 0
0.20202 1.41414 0
0.20202 1.51515 0
0.20202 1.61616 0
0.20202 1.71717 0
0.20202 1.81818 0
0.20202 1.91919 0
0.20202 2.0202 0
0.20202 2.12121 0
0.20202 2.22222 0
0.20202 2.32323 0
0.20202 2.42424 0
0.20202 2.52525 0
0.20202 2.62626 0
0.20202 2.72727 0
0.20202 2.82828 0
0.20202 2.92929 0
0.20202 3.0303 0
0.20202 3.13131 0
0.20202 3.23232 0
0.20202 3.33333 0
0.20202 3.43434 0
0.20202 3.53535 0
0.20202 3.63636 0
0.20202 3.73737 0
0.20202 3.83838 0
0.20202 3.93939 0
0.20202 4.0404 0
0.20202 4.14141 0
0.20202 4.24242 0
0.20202 4.34343 0
0.20202 4.44444 0
0.20202 4.54545 0
0.20202 4.64646 0
0.20202 4.74747 0
0.20202 4.84848 0
0.20202 4.94949 0
0.20202 5.05051 0
0.20202 5.15152 0
0.20202 5.25253 0
0.20202 5.35354 0
0.20202 5.45455 0
0.20202 5.55556 0
0.20202 5.65657 0
0.20202 5.75758 0
0.20202 5.85859 0
0.20202 5.9596 0
0.20202 6.06061 0
0.20202 6.16162 0
0.20202 6.26263 0
0.20202 6.36364 0
0.20202 6.46465 0
0.20202 6.56566 0
0.20202 6.66667 0
0.20202 6.76768 0
0.20202 6.86869 0
0.20202 6.9697 0
0.20202 7.07071 0
0.20202 7.17172 0
0.20202 7.27273 0
0.20202 7.37374 0
0.20202 7.47475 0
0.20202 7.57576 0
0.20202 7.67677 0
0.20202 7.77778 0
0.20202 7.87879 0
0.20202 7.9798 0
0.20202 8.08081 0
0.20202 8.18182 0
0.20202 8.28283 0
0.20202 8.38384 0
0.20202 8.48485 0
0.20202 8.58586 0
0.20202 8.68687 0
0.20202 8.78788 0
0.20202 8.88889 0
0.20202 8.9899 0
0.20202 9.09091 0
0.20202 9.19192 0
0.20202 9.29293 0
0.20202 9.39394 0
0.20202 9.49495 0
0.20202 9.59596 0
0.20202 9.69697 0
0.20202 9.79798 0
0.20202 9.89899 0
0.30303 0.10101 0
0.30303 0.20202 0
0.30303 0.30303 0
0.30303 0.40404 0
0.30303 0.505051 0
0.30303 0.606061 0
0.30303 0.707071 0
0.30303 0.808081 0
0.30303 0.909091 0
0.30303 1.0101 0
0.30303 1.11111 0
0.30303 1.21212 0
0.30303 1.31313 0
0.30303 1.41414 0
0.30303 1.51515 0
0.30303 1.61616 0
0.30303 1.71717 0
0.30303 1.81818 0
0.30303 1.91919 0
0.30303 2.0202 0
0.30303 2.12121 0
0.30303 2.22222 0
0.30303 2.32323 0
0.30303 2.42424 0
0.30303 2.52525 0
0.30303 2.62626 0
0.30303 2.72727 0
0.30303 2.82828 0
0.30303 2.92929 0
0.30303 3.0303 0
0.30303 3.13131 0
0.30303 3.23232 0
0.30303 3.33333 0
0.30303 3.43434 0
0.30303 3.53535 0
0.30303 3.63636 0
0.30303 3.73737 0
0.30303 3.83838 0
0.30303 3.93939 0
0.30303 4.0404 0
0.30303 4.14141 0
0.30303 4.24242 0
0.30303 4.34343 0
0.30303 4.44444 0
0.30303 4.54545 0
0.30303 4.64646 0
0.30303 4.74747 0
0.30303 4.84848 0
0.30303 4.94949 0
0.30303 5.05051 0
0.30303 5.15152 0
0.30303 5.25253 0
0.30303 5.35354 0
0.30303 5.45455 0
0.30303 5.55556 0
0.30303 5.65657 0
0.30303 5.75758 0
0.30303 5.85859 0
0.30303 5.9596 0
0.30303 6.06061 0
0.30303 6.16162 0
0.30303 6.26263 0
0.30303 6.36364 0
0.30303 6.46465 0
0.30303 6.56566 0
0.30303 6.66667 0
0.30303 6.76768 0
0.30303 6.86869 0
0.30303 6.9697 0
0.30303 7.07071 0
0.30303 7.17172 0
0.30303 7.27273 0
0.30303 7.37374 0
0.30303 7.47475 0
0.30303 7.57576 0
0.30303 7.67677 0
0.30303 7.77778 0
0.30303 7.87879 0
0.30303 7.9798 0
0.30303 8.08081 0
[...]
CELL_DATA 9801
SCALARS Temperatura double 1
LOOKUP_TABLE default
-1.50816e-16
-1.02473e-15
-2.6983e-15
-5.47567e-15
-8.5745e-15
-8.50256e-15
3.74843e-15
4.57578e-14
1.43747e-13
3.22054e-13
5.68587e-13
7.58867e-13
5.27434e-13
-8.93563e-13
-4.77331e-12
-1.26889e-11
-2.56266e-11
-4.18043e-11
-5.26667e-11
-3.70009e-11
4.55501e-11
2.5781e-10
6.77754e-10
1.36871e-09
2.31167e-09
3.28424e-09
3.67788e-09
2.26371e-09
-3.04861e-09
-1.53635e-08
-3.87025e-08
-7.74241e-08
-1.34868e-07
-2.10906e-07
-2.98112e-07
-3.76412e-07
-4.06275e-07
-3.20873e-07
-1.80144e-08
6.46911e-07
1.86538e-06
3.87572e-06
6.95674e-06
1.14133e-05
1.75528e-05
2.56521e-05
3.59172e-05
4.844e-05
6.31607e-05
7.98537e-05
9.82635e-05
0.00011986
0.000144673
0.00017283
0.000204357
0.000239177
0.00027709
0.000317769
0.000360749
0.000405427
0.000451078
0.000496866
0.000541867
0.0005851
0.000625543
0.000662151
0.000693845
0.000719474
0.000737753
0.00074717
0.000745924
0.00073193
0.00070297
0.000657082
0.000593186
0.000511895
0.000416292
0.000312341
0.000208572
0.000114806
4.00518e-05
-9.88494e-06
-3.41702e-05
-3.72313e-05
-2.72133e-05
-1.31011e-05
-1.74065e-06
3.8855e-06
4.44101e-06
2.49577e-06
4.83779e-07
-4.69391e-07
-4.88864e-07
-1.85013e-07
1.7983e-08
5.21592e-08
2.01607e-08
-9.15269e-10
-3.43494e-09
-1.7975e-15
-3.39982e-15
-4.14848e-15
-9.75869e-16
1.31612e-14
5.00154e-14
1.23108e-13
2.34604e-13
3.42589e-13
3.00042e-13
-2.30732e-13
-1.84806e-12
-5.35278e-12
-1.1341e-11
-1.91172e-11
-2.45839e-11
-1.70391e-11
2.43721e-11
1.32185e-10
3.45298e-10
6.89165e-10
1.13193e-09
1.50833e-09
1.41095e-09
6.63782e-11
-3.75646e-09
-1.17165e-08
-2.56121e-08
-4.66513e-08
-7.40785e-08
-1.02968e-07
-1.21083e-07
-1.0483e-07
-1.4587e-08
2.10129e-07
6.5494e-07
1.43356e-06
2.6888e-06
4.59132e-06
7.33647e-06
1.11403e-05
1.62362e-05
2.28745e-05
3.1326e-05
4.18907e-05
5.49102e-05
7.07804e-05
8.99587e-05
0.000112957
0.000140311
0.000172543
0.000210047
0.000253131
0.000301993
0.000356681
0.000417061
0.000482792
0.000553306
0.000627798
0.000705227
0.000784329
0.00086365
0.000941589
0.00101645
0.0010865
0.00115003
0.00120536
0.00125086
0.00128484
0.00130546
0.00131048
0.00129722
0.00126242
0.00120262
0.00111476
0.000997375
0.000852045
0.000684701
0.000506232
0.000331669
0.00017766
5.85836e-05
-1.75063e-05
-5.14445e-05
-5.26369e-05
-3.56174e-05
-1.48117e-05
1.04545e-07
6.11625e-06
5.48435e-06
2.41419e-06
3.74305e-08
-7.2663e-07
-4.86366e-07
-9.87209e-08
6.00305e-08
4.66955e-08
7.81522e-09
-4.99631e-09
-2.97015e-15
-3.29883e-16
9.34762e-15
3.44765e-14
8.40571e-14
1.58567e-13
2.26038e-13
1.77518e-13
-2.34576e-13
-1.44286e-12
-4.00633e-12
-8.27149e-12
-1.34955e-11
-1.61818e-11
-7.64258e-12
2.84537e-11
1.16366e-10
2.82144e-10
5.3464e-10
8.26389e-10
9.89829e-10
6.53699e-10
-8.3693e-10
-4.44511e-09
-1.13238e-08
-2.2434e-08
-3.7759e-08
-5.49837e-08
-6.75634e-08
-6.22056e-08
-1.59273e-08
1.07004e-07
3.57834e-07
8.05401e-07
1.53727e-06
2.66008e-06
4.29964e-06
6.60185e-06
9.73574e-06
1.38997e-05
1.93315e-05
2.63208e-05
3.52231e-05
4.64711e-05
6.05798e-05
7.8145e-05
9.9831e-05
0.000126354
0.00015846
0.000196908
0.000242334
0.00029519
0.000355979
0.000424988
0.000502298
0.000587734
0.000680829
0.000780789
0.000886484
0.000996441
0.00110887
0.00122169
0.00133262
0.00143923
0.00153903
0.00162961
0.00170867
0.00177406
0.00182378
0.00185577
0.00186777
0.00185694
0.00181968
0.00175166
0.00164826
0.00150581
0.00132338
0.00110498
0.000861314
0.000610037
0.000373777
0.000175566
3.28029e-05
-4.8117e-05
-7.3995e-05
-6.23099e-05
-3.46536e-05
-9.01883e-06
5.36273e-06
8.37077e-06
5.17547e-06
1.24335e-06
-7.22171e-07
-8.32656e-07
-3.0546e-07
3.18183e-08
7.51509e-08
2.31441e-08
-5.27603e-09
2.88581e-15
1.95355e-14
4.90746e-14
9.51938e-14
1.39907e-13
1.17482e-13
-1.27132e-13
-8.73056e-13
-2.49304e-12
-5.23842e-12
-8.65704e-12
-1.04575e-11
-4.80992e-12
1.93942e-11
7.87508e-11
1.9089e-10
3.60601e-10
5.51179e-10
6.38027e-10
3.4927e-10
-7.86802e-10
-3.44531e-09
-8.39112e-09
-1.61581e-08
-2.64251e-08
-3.70146e-08
-4.24919e-08
-3.24269e-08
1.05346e-08
1.1258e-07
3.10419e-07
6.52664e-07
1.20104e-06
2.03187e-06
3.23856e-06
4.93607e-06
7.26813e-06
1.04176e-05
1.46194e-05
2.01754e-05
2.74678e-05
3.69704e-05
4.92544e-05
6.4989e-05
8.49356e-05
0.000109938
0.00014091
0.000178814
0.000224648
0.000279419
0.000343988
0.00041917
0.000505663
0.000603887
0.000713965
0.000835659
0.000968311
0.0011108
0.00126153
0.00141839
0.00157884
0.00173991
0.00189831
0.00205055
0.00219305
0.00232234
0.00243514
0.00252854
0.00259995
0.00264708
0.0026676
0.00265883
0.00261719
0.00253789
0.00241508
0.00224274
0.0020167
0.00173756
0.00141381
0.00106399
0.000716042
0.000403011
0.000155322
-8.12398e-06
-8.63009e-05
-9.64494e-05
-6.74582e-05
-2.88649e-05
-7.60977e-07
1.04771e-05
9.275e-06
3.81006e-06
-1.39123e-07
-1.19047e-06
-6.72118e-07
-7.79978e-08
9.87839e-08
5.01589e-08
-1.77737e-09
2.15346e-14
5.18427e-14
8.15246e-14
8.15446e-14
-3.32981e-14
-4.26304e-13
-1.33425e-12
-2.95969e-12
-5.14184e-12
-6.66772e-12
-4.17022e-12
9.12642e-12
4.38795e-11
1.12311e-10
2.19862e-10
3.46917e-10
4.17996e-10
2.60857e-10
-4.31629e-10
-2.10803e-09
-5.28576e-09
-1.03365e-08
-1.70643e-08
-2.40279e-08
-2.76036e-08
-2.08377e-08
7.80732e-09
7.56968e-08
2.07191e-07
4.34799e-07
8.00587e-07
1.35832e-06
2.17699e-06
3.34637e-06
4.98522e-06
7.25199e-06
1.03579e-05
1.45811e-05
2.02811e-05
2.79116e-05
3.80315e-05
5.13136e-05
6.85509e-05
9.06601e-05
0.000118682
0.000153778
0.000197218
0.000250361
0.000314625
0.000391453
0.000482088
0.000587666
0.000709178
0.000847227
0.001002
0.00117318
0.00135986
0.00156047
0.00177277
0.00199382
0.00222004
0.00244723
0.00267075
0.00288564
0.00308681
0.0032693
0.00342844
0.00356013
0.00366093
0.00372805
0.00375915
0.00375191
0.00370328
0.00360881
0.00346216
0.0032555
0.00298115
0.00263492
0.00222066
0.00175457
0.00126724
0.000801123
0.000402229
0.000107836
-6.55775e-05
-0.000128365
-0.000113751
-6.46834e-05
-1.75808e-05
8.77546e-06
1.40466e-05
8.27609e-06
1.65054e-06
-1.29326e-06
-1.20584e-06
-3.36169e-07
8.88676e-08
8.92721e-08
9.94501e-09
4.28768e-14
5.35156e-14
1.29738e-14
-1.63353e-13
-6.14799e-13
-1.49342e-12
-2.80652e-12
-4.04666e-12
-3.53837e-12
2.41993e-12
2.01643e-11
5.79015e-11
1.2157e-10
2.04623e-10
2.69362e-10
2.2007e-10
-1.25536e-10
-1.04961e-09
-2.90207e-09
-5.98116e-09
-1.02804e-08
-1.50669e-08
-1.82825e-08
-1.58003e-08
-5.98373e-10
3.8081e-08
1.15575e-07
2.52746e-07
4.77291e-07
8.25835e-07
1.34734e-06
2.10834e-06
3.20039e-06
4.74984e-06
6.92973e-06
9.97339e-06
1.41891e-05
1.99757e-05
2.78381e-05
3.84037e-05
5.24385e-05
7.08629e-05
9.47657e-05
0.000125414
0.000164254
0.000212908
0.000273153
0.000346885
0.000436087
0.000542766
0.000668668
0.000815387
0.000984315
0.00117631
0.00139164
0.0016299
0.00188982
0.00216926
0.00246511
0.0027733
0.00308882
0.00340586
0.00371793
0.00401808
0.00429915
0.00455413
0.00477642
0.0049602
0.00510069
0.00519428
0.00523843
0.0052313
0.0051709
0.005054
0.00487504
0.00462556
0.00429511
0.00387422
0.00335982
0.00276192
0.0021093
0.00145046
0.000847198
0.000360087
3.01634e-05
-0.000135691
-0.00016759
-0.00012053
-5.22236e-05
-2.15592e-06
1.73035e-05
1.47745e-05
5.48148e-06
-6.04802e-07
-1.8046e-06
-8.16026e-07
-8.73962e-09
1.32603e-07
3.61349e-08
3.3299e-14
-4.20566e-14
-2.38102e-13
-6.64934e-13
-1.38519e-12
-2.25318e-12
-2.56851e-12
-5.48148e-13
7.21544e-12
2.57761e-11
6.02389e-11
1.10849e-10
1.62865e-10
1.70311e-10
3.58654e-11
-4.04745e-10
-1.37679e-09
-3.11271e-09
-5.71872e-09
-8.9333e-09
-1.17649e-08
-1.20206e-08
-5.76285e-09
1.32663e-08
5.42483e-08
1.29999e-07
2.57989e-07
4.62012e-07
7.74921e-07
1.24287e-06
1.93139e-06
2.93357e-06
4.38023e-06
6.45228e-06
9.39485e-06
1.35336e-05
1.92931e-05
2.72173e-05
3.79929e-05
5.24732e-05
7.17043e-05
9.69478e-05
0.000129701
0.00017171
0.000224969
0.000291715
0.000374394
0.000475627
0.000598142
0.000744712
0.000917761
0.0011195
0.00135187
0.00161606
0.00191247
0.00224056
0.00259862
0.00298372
0.00339159
0.00381666
0.00425203
0.00468972
0.00512075
0.00553552
0.00592413
0.00627678
0.00658423
0.00683828
0.00703218
0.00716099
0.00722162
0.00721263
0.00713343
0.00698294
0.00675787
0.0064511
0.00605122
0.00554436
0.00491945
0.00417665
0.00333698
0.00244879
0.00158593
0.000834207
0.00026789
-7.54903e-05
-0.000209831
-0.000195082
-0.000112193
-3.05907e-05
1.42707e-05
2.22642e-05
1.21611e-05
1.75945e-06
-2.14181e-06
-1.55436e-06
-2.77953e-07
1.55072e-07
8.33061e-08
-4.46761e-14
-2.56439e-13
-6.06889e-13
-1.12257e-12
-1.57269e-12
-1.21984e-12
1.55655e-12
9.52077e-12
2.62107e-11
5.40007e-11
8.93157e-11
1.13858e-10
8.19694e-11
-9.26709e-11
-5.42703e-10
-1.4303e-09
-2.88754e-09
-4.89237e-09
-7.06483e-09
-8.38261e-09
-6.83237e-09
9.78848e-10
2.02439e-08
5.84524e-08
1.26098e-07
2.37835e-07
4.14409e-07
6.85734e-07
1.09544e-06
1.70719e-06
2.61286e-06
3.94292e-06
5.87904e-06
8.66933e-06
1.26467e-05
1.82509e-05
2.60538e-05
3.67896e-05
5.13867e-05
7.10031e-05
9.70602e-05
0.000131275
0.000175687
0.000232673
0.000304951
0.000395568
0.000507863
0.000645407
0.000811927
0.00101121
0.00124658
0.00152108
0.00183736
0.00219707
0.00260081
0.00304785
0.0035359
0.00406099
0.00461736
0.00519739
0.00579176
0.00638955
0.00697855
0.00754564
0.00807726
0.00855995
0.00898095
0.00932885
0.00959416
0.0097699
0.0098519
0.00983883
0.00973159
0.00953196
0.00924046
0.0088537
0.00836223
0.00775037
0.00699997
0.00609915
0.00505524
0.00390768
0.00273409
0.00164208
0.000744445
0.00012358
-0.000199578
-0.000274829
-0.000201721
-8.6983e-05
-3.38374e-06
2.73756e-05
2.18819e-05
6.98336e-06
-1.52854e-06
-2.46397e-06
-8.21407e-07
1.03572e-07
1.53937e-07
-1.89824e-13
-4.94254e-13
-8.18586e-13
-9.62176e-13
-2.57359e-13
2.61415e-12
9.68764e-12
2.31636e-11
4.3515e-11
6.53699e-11
7.05967e-11
1.92657e-11
-1.58251e-10
-5.60848e-10
-1.29633e-09
-2.42649e-09
-3.86388e-09
-5.2128e-09
-5.55776e-09
-3.2115e-09
4.56842e-09
2.19117e-08
5.4789e-08
1.11737e-07
2.05089e-07
3.52993e-07
5.82537e-07
9.3425e-07
1.46825e-06
2.27229e-06
3.47206e-06
5.24419e-06
7.83262e-06
1.15689e-05
1.68974e-05
2.44053e-05
3.48584e-05
4.92413e-05
6.88016e-05
9.50963e-05
0.000130038
0.000175938
0.000235542
0.000312051
0.000409131
0.000530889
0.000681832
0.000866781
0.00109077
0.0013589
0.00167571
0.00204533
0.00247134
0.00295603
0.00350021
0.00410295
0.00476121
0.00546968
0.00622061
0.00700379
0.00780664
0.00861446
0.00941078
0.0101779
0.0108975
0.0115513
0.0121219
0.0125937
0.0129536
0.0131916
0.0133019
0.0132827
0.0131362
0.0128675
0.012482
0.0119826
0.0113654
0.0106173
0.00971638
0.00863946
0.00737599
0.0059471
0.00442163
0.00291873
0.00158799
0.000567697
-6.45946e-05
-0.000324492
-0.000315056
-0.000181205
-4.78081e-05
2.30097e-05
3.31506e-05
1.62263e-05
1.19078e-06
-3.19426e-06
-1.71827e-06
-1.11427e-07
2.38005e-07
-3.32417e-13
-5.50131e-13
-5.1028e-13
2.86742e-13
2.83049e-12
8.50814e-12
1.85341e-11
3.23258e-11
4.42602e-11
3.85933e-11
-1.66144e-11
-1.73723e-10
-5.02234e-10
-1.06951e-09
-1.89553e-09
-2.87312e-09
-3.6502e-09
-3.47708e-09
-1.02452e-09
5.8307e-09
2.02848e-08
4.70321e-08
9.29809e-08
1.68467e-07
2.89213e-07
4.79293e-07
7.75381e-07
1.23256e-06
1.93207e-06
2.99144e-06
4.57773e-06
6.92466e-06
1.03545e-05
1.53055e-05
2.23661e-05
3.23153e-05
4.617e-05
6.5239e-05
9.11816e-05
0.00012607
0.000172449
0.000233397
0.000312572
0.000414243
0.000543298
0.000705221
0.000906028
0.00115216
0.00145035
0.00180741
0.00222943
0.00272198
0.00328986
0.00393615
0.00466201
0.00546624
0.00634484
0.00729076
0.00829372
0.00934012
0.0104132
0.0114934
0.0125587
0.0135854
0.0145491
0.0154253
0.0161907
0.0168242
0.0173078
0.0176279
0.017776
0.0177492
0.0175506
0.0171884
0.0166741
0.0160186
0.0152274
0.0142952
0.0132025
0.0119191
0.0104164
0.00868963
0.00678446
0.0048143
0.00295399
0.00140022
0.000307106
-0.000275641
-0.000426286
-0.00031654
-0.000133458
-2.81199e-06
4.12243e-05
2.98368e-05
7.58912e-06
-2.95689e-06
-2.93241e-06
-6.12044e-07
2.99778e-07
-3.54209e-13
-2.24149e-13
5.03931e-13
2.53402e-12
6.75555e-12
1.37511e-11
2.25235e-11
2.81055e-11
1.80179e-11
-3.16312e-11
-1.5817e-10
-4.08355e-10
-8.22404e-10
-1.39945e-09
-2.03914e-09
-2.45749e-09
-2.07833e-09
9.91701e-11
5.66789e-09
1.70522e-08
3.78979e-08
7.37423e-08
1.33139e-07
2.29454e-07
3.83563e-07
6.27727e-07
1.01097e-06
1.60637e-06
2.52092e-06
3.90867e-06
5.98811e-06
9.06495e-06
1.35612e-05
2.00519e-05
2.93095e-05
4.23577e-05
6.0534e-05
8.55601e-05
0.00011962
0.00016544
0.000226376
0.000306483
0.000410586
0.000544315
0.000714127
0.000927262
0.00119167
0.00151588
0.00190876
0.00237936
0.00293576
0.00358537
0.00433455
0.00518745
0.00614566
0.00720763
0.00836818
0.00961805
0.0109437
0.0123273
0.0137466
0.0151759
0.0165861
0.0179459
0.0192229
0.0203849
0.0214008
0.0222425
0.0228862
0.0233131
0.0235113
0.0234762
0.0232112
0.0227273
0.0220422
0.0211764
0.0201477
0.0189641
0.0176164
0.0160755
0.0142998
0.0122565
0.00995517
0.00748201
0.00501466
0.0027973
0.00107127
-1.58289e-05
-0.000476341
-0.000479602
-0.000272458
-6.68862e-05
3.63207e-05
4.59518e-05
1.92662e-05
-3.82068e-07
-4.15926e-06
-1.52108e-06
2.61724e-07
-1.57631e-13
5.2218e-13
2.01741e-12
4.97308e-12
9.61207e-12
1.4914e-11
1.69369e-11
6.44549e-12
-3.3519e-11
-1.28492e-10
-3.08963e-10
-5.98274e-10
-9.87733e-10
-1.39556e-09
-1.60823e-09
-1.20411e-09
5.43908e-10
4.80056e-09
1.33718e-08
2.90491e-08
5.62048e-08
1.01785e-07
1.76887e-07
2.99135e-07
4.96125e-07
8.10291e-07
1.30566e-06
2.07717e-06
3.2634e-06
5.06375e-06
7.76127e-06
1.17525e-05
1.75854e-05
2.60071e-05
3.80222e-05
5.49626e-05
7.85686e-05
0.000111082
0.000155347
0.000214918
0.000294168
0.00039839
0.000533878
0.000707989
0.000929154
0.00120684
0.00155145
0.00197413
0.00248651
0.0031004
0.00382647
0.00467443
0.00565267
0.00676666
0.00801857
0.00940648
0.0109237
0.0125581
0.0142923
0.0161027
0.0179606
0.0198322
0.0216796
0.0234617
0.0251363
0.026661
0.0279952
0.0291021
0.0299499
0.030514
0.0307779
0.0307346
0.0303873
0.0297497
0.0288453
0.0277045
0.0263598
0.0248372
0.0231456
0.021268
0.0191605
0.0167675
0.0140561
0.0110646
0.00794271
0.00495498
0.0024235
0.000617989
-0.000359422
-0.000626303
-0.000465545
-0.000188113
2.34014e-06
5.85103e-05
3.68921e-05
6.45784e-06
-4.62453e-06
-2.88227e-06
-7.94682e-09
2.60278e-13
1.48646e-12
3.44797e-12
6.404e-12
9.48597e-12
9.80011e-12
8.74001e-13
-2.88324e-11
-9.62342e-11
-2.20803e-10
-4.15997e-10
-6.72129e-10
-9.2844e-10
-1.03308e-09
-6.89696e-10
6.14016e-10
3.71018e-09
9.91927e-09
2.13418e-08
4.13637e-08
7.54981e-08
1.32724e-07
2.27522e-07
3.82864e-07
6.34516e-07
1.03715e-06
1.67297e-06
2.66361e-06
4.1867e-06
6.49801e-06
9.96102e-06
1.50853e-05
2.25757e-05
3.33933e-05
4.88313e-05
7.06043e-05
0.000100954
0.00014277
0.000199719
0.000276386
0.000378415
0.00051264
0.000687193
0.000911582
0.00119671
0.00155483
0.00199941
0.00254487
0.00320629
0.00399894
0.00493674
0.00603233
0.0072966
0.00873674
0.0103557
0.0121509
0.014114
0.0162295
0.0184746
0.0208193
0.0232263
0.0256518
0.0280468
0.0303584
0.0325316
0.0345114
0.0362453
0.0376854
0.0387906
0.0395284
0.039877
0.0398264
0.0393792
0.0385514
0.0373724
0.0358827
0.03413
0.0321614
0.0300106
0.0276841
0.0251508
0.0223457
0.0191975
0.0156832
0.0118924
0.00806844
0.00458471
0.00183729
8.7072e-05
-0.000665726
-0.000688035
-0.000380471
-8.25827e-05
5.50873e-05
5.85187e-05
1.96443e-05
-2.89774e-06
-4.5169e-06
-6.90766e-07
7.83205e-13
2.2914e-12
4.1022e-12
5.84916e-12
5.51636e-12
-1.23222e-12
-2.19808e-11
-6.76545e-11
-1.50538e-10
-2.78527e-10
-4.43795e-10
-6.0432e-10
-6.57077e-10
-4.01095e-10
5.1461e-10
2.67112e-09
7.01465e-09
1.50938e-08
2.9472e-08
5.44169e-08
9.70035e-08
1.6881e-07
2.88457e-07
4.85324e-07
8.04944e-07
1.31674e-06
2.12496e-06
3.384e-06
5.31944e-06
8.25641e-06
1.26573e-05
1.91705e-05
2.86933e-05
4.24499e-05
6.20876e-05
8.9792e-05
0.000128422
0.000181662
0.000254194
0.000351871
0.000481905
0.000653028
0.00087564
0.00116191
0.00152579
0.00198297
0.00255069
0.00324747
0.00409261
0.0051057
0.00630466
0.0077058
0.00932312
0.0111659
0.0132381
0.0155366
0.0180507
0.0207608
0.0236378
0.0266432
0.0297296
0.0328408
0.035914
0.0388813
0.0416723
0.0442165
0.0464465
0.0483006
0.049726
0.050681
0.051137
0.0510804
0.0505132
0.0494542
0.0479384
0.0460166
0.0437518
0.0412131
0.0384636
0.0355428
0.0324484
0.0291259
0.0254822
0.021433
0.0169831
0.0123067
0.00777606
0.00388719
0.0010837
-0.000445969
-0.000871948
-0.000640401
-0.000241884
1.55381e-05
7.72251e-05
4.03762e-05
3.14273e-06
-5.82119e-06
-1.97595e-06
1.2206e-12
2.56138e-12
3.52336e-12
3.06684e-12
-1.6241e-12
-1.53881e-11
-4.51408e-11
-9.85876e-11
-1.80549e-10
-2.85723e-10
-3.86784e-10
-4.16758e-10
-2.43824e-10
3.66018e-10
1.80914e-09
4.74874e-09
1.03007e-08
2.03587e-08
3.81407e-08
6.90733e-08
1.22171e-07
2.12134e-07
3.62492e-07
6.1023e-07
1.01256e-06
1.65668e-06
2.67358e-06
4.25741e-06
6.69201e-06
1.03867e-05
1.59238e-05
2.41202e-05
3.61067e-05
5.34266e-05
7.81575e-05
0.000113057
0.000161734
0.000228842
0.000320294
0.000443492
0.000607552
0.000823524
0.00110457
0.0014661
0.0019258
0.00250355
0.00322123
0.0041023
0.00517127
0.006453
0.00797033
0.00974406
0.011792
0.0141261
0.0167515
0.0196644
0.0228515
0.0262879
0.029937
0.0337502
0.0376673
0.0416172
0.0455203
0.0492905
0.0528383
0.0560742
0.0589125
0.0612749
0.0630941
0.0643169
0.0649068
0.064846
0.0641361
0.0627989
0.0608764
0.0584297
0.0555374
0.0522906
0.0487828
0.0450928
0.0412607
0.0372652
0.0330168
0.028388
0.0232911
0.0177895
0.0121867
0.00701793
0.00289597
0.000251958
-0.000887833
-0.000928705
-0.000490871
-8.68865e-05
7.86263e-05
6.71215e-05
1.59755e-05
-5.55139e-06
-3.95681e-06
1.3953e-12
2.10161e-12
1.71114e-12
-1.33732e-12
-1.00697e-11
-2.87901e-11
-6.23219e-11
-1.13762e-10
-1.80008e-10
-2.44296e-10
-2.64839e-10
-1.57951e-10
2.2814e-10
1.15722e-09
3.08314e-09
6.79042e-09
1.36421e-08
2.60008e-08
4.79182e-08
8.62285e-08
1.52242e-07
2.64329e-07
4.51796e-07
7.60653e-07
1.26206e-06
2.06449e-06
3.33103e-06
5.30351e-06
8.33561e-06
1.29375e-05
1.98352e-05
3.00476e-05
4.49854e-05
6.65748e-05
9.741e-05
0.000140935
0.000201661
0.000285403
0.00039956
0.000553391
0.000758309
0.00102815
0.00137942
0.00183141
0.00240632
0.00312909
0.00402718
0.00513006
0.00646851
0.00807374
0.00997458
0.0121973
0.0147643
0.0176908
0.0209834
0.0246376
0.0286367
0.0329499
0.0375315
0.0423204
0.0472413
0.052205
0.0571117
0.0618531
0.0663169
0.0703905
0.0739661
0.076945
0.0792426
0.0807917
0.0815464
0.0814836
0.0806049
0.0789364
0.0765281
0.0734536
0.0698073
0.0657021
0.0612613
0.0566047
0.0518232
0.0469482
0.0419247
0.0366144
0.0308536
0.0245732
0.0179421
0.0114457
0.00580429
0.00170543
-0.000532577
-0.00114948
-0.000820498
-0.000279841
3.94464e-05
9.30384e-05
3.7473e-05
-1.71071e-06
-6.44915e-06
1.22191e-12
9.79115e-13
-8.97323e-13
-6.21892e-12
-1.76329e-11
-3.81554e-11
-6.98669e-11
-1.11243e-10
-1.52592e-10
-1.68905e-10
-1.088e-10
1.23389e-10
6.98674e-10
1.91981e-09
4.32417e-09
8.86703e-09
1.72368e-08
3.23787e-08
5.93392e-08
1.06599e-07
1.88142e-07
3.2662e-07
5.58133e-07
9.39346e-07
1.55792e-06
2.54757e-06
4.10938e-06
6.54161e-06
1.02806e-05
1.59559e-05
2.44637e-05
3.70621e-05
5.54935e-05
8.2138e-05
0.000120202
0.000173946
0.000248947
0.000352407
0.000493483
0.000683646
0.000937038
0.00127082
0.00170544
0.00226487
0.00297665
0.00387177
0.00498433
0.00635099
0.00800999
0.0100001
0.0123574
0.0151147
0.0182999
0.0219321
0.0260197
0.0305575
0.035525
0.0408839
0.0465779
0.0525314
0.0586507
0.0648253
0.070931
0.0768334
0.0823926
0.0874686
0.091927
0.095645
0.0985168
0.100459
0.101413
0.101352
0.100275
0.0982153
0.0952329
0.0914158
0.0868771
0.0817517
0.0761919
0.0703564
0.0643894
0.058387
0.0523562
0.0461892
0.0396857
0.0326538
0.025083
0.0173114
0.010059
0.00422179
0.000468862
-0.00113178
-0.00117568
-0.000579694
-7.09355e-05
0.000103255
6.71143e-05
8.2724e-06
-8.74158e-06
7.35584e-13
-5.24561e-13
-3.64244e-12
-1.03999e-11
-2.26724e-11
-4.18964e-11
-6.75246e-11
-9.43194e-11
-1.07964e-10
-7.80024e-11
5.40609e-11
3.96041e-10
1.1445e-09
2.65767e-09
5.58707e-09
1.1107e-08
2.13018e-08
3.98018e-08
7.28049e-08
1.30691e-07
2.30536e-07
3.99974e-07
6.83035e-07
1.14885e-06
1.90439e-06
3.11288e-06
5.01984e-06
7.98952e-06
1.25549e-05
1.94851e-05
2.98753e-05
4.52636e-05