# vtk DataFile Version 3.0
Malha 2D com triângulos e temperatura
ASCII
DATASET UNSTRUCTURED_GRID

POINTS 10000 double
0 0 0
10 0 0
10 10 0
0 10 0
0.10101 0 0
0.20202 0 0
0.30303 0 0
0.40404 0 0
0.505051 0 0
0.606061 0 0
0.707071 0 0
0.808081 0 0
0.909091 0 0
1.0101 0 0
1.11111 0 0
1.21212 0 0
1.31313 0 0
1.41414 0 0
1.51515 0 0
1.61616 0 0
1.71717 0 0
1.81818 0 0
1.91919 0 0
2.0202 0 0
2.12121 0 0
2.22222 0 0
2.32323 0 0
2.42424 0 0
2.52525 0 0
2.62626 0 0
2.72727 0 0
2.82828 0 0
2.92929 0 0
3.0303 0 0
3.13131 0 0
3.23232 0 0
3.33333 0 0
3.43434 0 0
3.53535 0 0
3.63636 0 0
3.73737 0 0
3.83838 0 0
3.93939 0 0
4.0404 0 0
4.14141 0 0
4.24242 0 0
4.34343 0 0
4.44444 0 0
4.54545 0 0
4.64646 0 0
4.74747 0 0
4.84848 0 0
4.94949 0 0
5.05051 0 0
5.15152 0 0
5.25253 0 0
5.35354 0 0
5.45455 0 0
5.55556 0 0
5.65657 0 0
5.75758 0 0
5.85859 0 0
5.9596 0 0
6.06061 0 0
6.16162 0 0
6.26263 0 0
6.36364 0 0
6.46465 0 0
6.56566 0 0
6.66667 0 0
6.76768 0 0
6.86869 0 0
6.9697 0 0
7.07071 0 0
7.17172 0 0
7.27273 0 0
7.37374 0 0
7.47475 0 0
7.57576 0 0
7.67677 0 0
7.77778 0 0
7.87879 0 0
7.9798 0 0
8.08081 0 0
8.18182 0 0
8.28283 0 0
8.38384 0 0
8.48485 0 0
8.58586 0 0
8.68687 0 0
8.78788 0 0
8.88889 0 0
8.9899 0 0
9.09091 0 0
9.19192 0 0
9.29293 0 0
9.39394 0 0
9.49495 0 0
9.59596 0 0
9.69697 0 0
9.79798 0 0
9.89899 0 0
10 0.10101 0
10 0.20202 0
10 0.30303 0
10 0.40404 0
10 0.505051 0
10 0.606061 0
10 0.707071 0
10 0.808081 0
10 0.909091 0
10 1.0101 0
10 1.11111 0
10 1.21212 0
10 1.31313 0
10 1.41414 0
10 1.51515 0
10 1.61616 0
10 1.71717 0
10 1.81818 0
10 1.91919 0
10 2.0202 0
10 2.12121 0
10 2.22222 0
10 2.32323 0
10 2.42424 0
10 2.52525 0
10 2.62626 0
10 2.72727 0
10 2.82828 0
10 2.92929 0
10 3.0303 0
10 3.13131 0
10 3.23232 0
10 3.33333 0
10 3.43434 0
10 3.53535 0
10 3.63636 0
10 3.73737 0
10 3.83838 0
10 3.93939 0
10 4.0404 0
10 4.14141 0
10 4.24242 0
10 4.34343 0
10 4.44444 0
10 4.54545 0
10 4.64646 0
10 4.74747 0
10 4.84848 0
10 4.94949 0
10 5.05051 0
10 5.15152 0
10 5.25253 0
10 5.35354 0
10 5.45455 0
10 5.55556 0
10 5.65657 0
10 5.75758 0
10 5.85859 0
10 5.9596 0
10 6.06061 0
10 6.16162 0
10 6.26263 0
10 6.36364 0
10 6.46465 0
10 6.56566 0
10 6.66667 0
10 6.76768 0
10 6.86869 0
10 6.9697 0
10 7.07071 0
10 7.17172 0
10 7.27273 0
10 7.37374 0
10 7.47475 0
10 7.57576 0
10 7.67677 0
10 7.77778 0
10 7.87879 0
10 7.9798 0
10 8.08081 0
10 8.18182 0
10 8.28283 0
10 8.38384 0
10 8.48485 0
10 8.58586 0
10 8.68687 0
10 8.78788 0
10 8.88889 0
10 8.9899 0
10 9.09091 0
10 9.19192 0
10 9.29293 0
10 9.39394 0
10 9.49495 0
10 9.59596 0
10 9.69697 0
10 9.79798 0
10 9.89899 0
9.89899 10 0
9.79798 10 0
9.69697 10 0
9.59596 10 0
9.49495 10 0
9.39394 10 0
9.29293 10 0
9.19192 10 0
9.09091 10 0
8.9899 10 0
8.88889 10 0
8.78788 10 0
8.68687 10 0
8.58586 10 0
8.48485 10 0
8.38384 10 0
8.28283 10 0
8.18182 10 0
8.08081 10 0
7.9798 10 0
7.87879 10 0
7.77778 10 0
7.67677 10 0
7.57576 10 0
7.47475 10 0
7.37374 10 0
7.27273 10 0
7.17172 10 0
7.07071 10 0
6.9697 10 0
6.86869 10 0
6.76768 10 0
6.66667 10 0
6.56566 10 0
6.46465 10 0
6.36364 10 0
6.26263 10 0
6.16162 10 0
6.06061 10 0
5.9596 10 0
5.85859 10 0
5.75758 10 0
5.65657 10 0
5.55556 10 0
5.45455 10 0
5.35354 10 0
5.25253 10 0
5.15152 10 0
5.05051 10 0
4.94949 10 0
4.84848 10 0
4.74747 10 0
4.64646 10 0
4.54545 10 0
4.44444 10 0
4.34343 10 0
4.24242 10 0
4.14141 10 0
4.0404 10 0
3.93939 10 0
3.83838 10 0
3.73737 10 0
3.63636 10 0
3.53535 10 0
3.43434 10 0
3.33333 10 0
3.23232 10 0
3.13131 10 0
3.0303 10 0
2.92929 10 0
2.82828 10 0
2.72727 10 0
2.62626 10 0
2.52525 10 0
2.42424 10 0
2.32323 10 0
2.22222 10 0
2.12121 10 0
2.0202 10 0
1.91919 10 0
1.81818 10 0
1.71717 10 0
1.61616 10 0
1.51515 10 0
1.41414 10 0
1.31313 10 0
1.21212 10 0
1.11111 10 0
1.0101 10 0
0.909091 10 0
0.808081 10 0
0.707071 10 0
0.606061 10 0
0.505051 10 0
0.40404 10 0
0.30303 10 0
0.20202 10 0
0.10101 10 0
0 9.89899 0
0 9.79798 0
0 9.69697 0
0 9.59596 0
0 9.49495 0
0 9.39394 0
0 9.29293 0
0 9.19192 0
0 9.09091 0
0 8.9899 0
0 8.88889 0
0 8.78788 0
0 8.68687 0
0 8.58586 0
0 8.48485 0
0 8.38384 0
0 8.28283 0
0 8.18182 0
0 8.08081 0
0 7.9798 0
0 7.87879 0
0 7.77778 0
0 7.67677 0
0 7.57576 0
0 7.47475 0
0 7.37374 0
0 7.27273 0
0 7.17172 0
0 7.07071 0
0 6.9697 0
0 6.86869 0
0 6.76768 0
0 6.66667 0
0 6.56566 0
0 6.46465 0
0 6.36364 0
0 6.26263 0
0 6.16162 0
0 6.06061 0
0 5.9596 0
0 5.85859 0
0 5.75758 0
0 5.65657 0
0 5.55556 0
0 5.45455 0
0 5.35354 0
0 5.25253 0
0 5.15152 0
0 5.05051 0
0 4.94949 0
0 4.84848 0
0 4.74747 0
0 4.64646 0
0 4.54545 0
0 4.44444 0
0 4.34343 0
0 4.24242 0
0 4.14141 0
0 4.0404 0
0 3.93939 0
0 3.83838 0
0 3.73737 0
0 3.63636 0
0 3.53535 0
0 3.43434 0
0 3.33333 0
0 3.23232 0
0 3.13131 0
0 3.0303 0
0 2.92929 0
0 2.82828 0
0 2.72727 0
0 2.62626 0
0 2.52525 0
0 2.42424 0
0 2.32323 0
0 2.22222 0
0 2.12121 0
0 2.0202 0
0 1.91919 0
0 1.81818 0
0 1.71717 0
0 1.61616 0
0 1.51515 0
0 1.41414 0
0 1.31313 0
0 1.21212 0
0 1.11111 0
0 1.0101 0
0 0.909091 0
0 0.808081 0
0 0.707071 0
0 0.606061 0
0 0.505051 0
0 0.40404 0
0 0.30303 0
0 0.20202 0
0 0.10101 0
0.10101 0.10101 0
0.10101 0.20202 0
0.10101 0.30303 0
0.10101 0.40404 0
0.10101 0.505051 0
0.10101 0.606061 0
0.10101 0.707071 0
0.10101 0.808081 0
0.10101 0.909091 0
0.10101 1.0101 0
0.10101 1.11111 0
0.10101 1.21212 0
0.10101 1.31313 0
0.10101 1.41414 0
0.10101 1.51515 0
0.10101 1.61616 0
0.10101 1.71717 0
0.10101 1.81818 0
0.10101 1.91919 0
0.10101 2.0202 0
0.10101 2.12121 0
0.10101 2.22222 0
0.10101 2.32323 0
0.10101 2.42424 0
0.10101 2.52525 0
0.10101 2.62626 0
0.10101 2.72727 0
0.10101 2.82828 0
0.10101 2.92929 0
0.10101 3.0303 0
0.10101 3.13131 0
0.10101 3.23232 0
0.10101 3.33333 0
0.10101 3.43434 0
0.10101 3.53535 0
0.10101 3.63636 0
0.10101 3.73737 0
0.10101 3.83838 0
0.10101 3.93939 0
0.10101 4.0404 0
0.10101 4.14141 0
0.10101 4.24242 0
0.10101 4.34343 0
0.10101 4.44444 0
0.10101 4.54545 0
0.10101 4.64646 0
0.10101 4.74747 0
0.10101 4.84848 0
0.10101 4.94949 0
0.10101 5.05051 0
0.10101 5.15152 0
0.10101 5.25253 0
0.10101 5.35354 0
0.10101 5.45455 0
0.10101 5.55556 0
0.10101 5.65657 0
0.10101 5.75758 0
0.10101 5.85859 0
0.10101 5.9596 0
0.10101 6.06061 0
0.10101 6.16162 0
0.10101 6.26263 0
0.10101 6.36364 0
0.10101 6.46465 0
0.10101 6.56566 0
0.10101 6.66667 0
0.10101 6.76768 0
0.10101 6.86869 0
0.10101 6.9697 0
0.10101 7.07071 0
0.10101 7.17172 0
0.10101 7.27273 0
0.10101 7.37374 0
0.10101 7.47475 0
0.10101 7.57576 0
0.10101 7.67677 0
0.10101 7.77778 0
0.10101 7.87879 0
0.10101 7.9798 0
0.10101 8.08081 0
0.10101 8.18182 0
0.10101 8.28283 0
0.10101 8.38384 0
0.10101 8.48485 0
0.10101 8.58586 0
0.10101 8.68687 0
0.10101 8.78788 0
0.10101 8.88889 0
0.10101 8.9899 0
0.10101 9.09091 0
0.10101 9.19192 0
0.10101 9.29293 0
0.10101 9.39394 0
0.10101 9.49495 0
0.10101 9.59596 0
0.10101 9.69697 0
0.10101 9.79798 0
0.10101 9.89899 0
0.20202 0.10101 0
0.20202 0.20202 0
0.20202 0.30303 0
0.20202 0.40404 0
0.20202 0.505051 0
0.20202 0.606061 0
0.20202 0.707071 0
0.20202 0.808081 0
0.20202 0.909091 0
0.20202 1.0101 0
0.20202 1.11111 0
0.20202 1.21212 0
0.20202 1.31313 0
0.20202 1.41414 0
0.20202 1.51515 0
0.20202 1.61616 0
0.20202 1.71717 0
0.20202 1.81818 0
0.20202 1.91919 0
0.20202 2.0202 0
0.20202 2.12121 0
0.20202 2.22222 0
0.20202 2.32323 0
0.20202 2.42424 0
0.20202 2.52525 0
0.20202 2.62626 0
0.20202 2.72727 0
0.20202 2.82828 0
0.20202 2.92929 0
0.20202 3.0303 0
0.20202 3.13131 0
0.20202 3.23232 0
0.20202 3.33333 0
0.20202 3.43434 0
0.20202 3.53535 0
0.20202 3.63636 0
0.20202 3.73737 0
0.20202 3.83838 0
0.20202 3.93939 0
0.20202 4.0404 0
0.20202 4.14141 0
0.20202 4.24242 0
0.20202 4.34343 0
0.20202 4.44444 0
0.20202 4.54545 0
0.20202 4.64646 0
0.20202 4.74747 0
0.20202 4.84848 0
0.20202 4.94949 0
0.20202 5.05051 0
0.20202 5.15152 0
0.20202 5.25253 0
0.20202 5.35354 0
0.20202 5.45455 0
0.20202 5.55556 0
0.20202 5.65657 0
0.20202 5.75758 0
0.20202 5.85859 0
0.20202 5.9596 0
0.20202 6.06061 0
0.20202 6.16162 0
0.20202 6.26263 0
0.20202 6.36364 0
0.20202 6.46465 0
0.20202 6.56566 0
0.20202 6.66667 0
0.20202 6.76768 0
0.20202 6.86869 0
0.20202 6.9697 0
0.20202 7.07071 0
0.20202 7.17172 0
0.20202 7.27273 0
0.20202 7.37374 0
0.20202 7.47475 0
0.20202 7.57576 0
0.20202 7.67677 0
0.20202 7.77778 0
0.20202 7.87879 0
0.20202 7.9798 0
0.20202 8.08081 0
0.20202 8.18182 0
0.20202 8.28283 0
0.20202 8.38384 0
0.20202 8.48485 0
0.20202 8.58586 0
0.20202 8.68687 0
0.20202 8.78788 0
0.20202 8.88889 0
0.20202 8.9899 0
0.20202 9.09091 0
0.20202 9.19192 0
0.20202 9.29293 0
0.20202 9.39394 0
0.20202 9.49495 0
0.20202 9.59596 0
0.20202 9.69697 0
0.20202 9.79798 0
0.20202 9.89899 0
0.30303 0.10101 0
0.30303 0.20202 0
0.30303 0.30303 0
0.30303 0.40404 0
0.30303 0.505051 0
0.30303 0.606061 0
0.30303 0.707071 0
0.30303 0.808081 0
0.30303 0.909091 0
0.30303 1.0101 0
0.30303 1.11111 0
0.30303 1.21212 0
0.30303 1.31313 0
0.30303 1.41414 0
0.30303 1.51515 0
0.30303 1.61616 0
0.30303 1.71717 0
0.30303 1.81818 0
0.30303 1.91919 0
0.30303 2.0202 0
0.30303 2.12121 0
0.30303 2.22222 0
0.30303 2.32323 0
0.30303 2.42424 0
0.30303 2.52525 0
0.30303 2.62626 0
0.30303 2.72727 0
0.30303 2.82828 0
0.30303 2.92929 0
0.30303 3.0303 0
0.30303 3.13131 0
0.30303 3.23232 0
0.30303 3.33333 0
0.30303 3.43434 0
0.30303 3.53535 0
0.30303 3.63636 0
0.30303 3.73737 0
0.30303 3.83838 0
0.30303 3.93939 0
0.30303 4.0404 0
0.30303 4.14141 0
0.30303 4.24242 0
0.30303 4.34343 0
0.30303 4.44444 0
0.30303 4.54545 0
0.30303 4.64646 0
0.30303 4.74747 0
0.30303 4.84848 0
0.30303 4.94949 0
0.30303 5.05051 0
0.30303 5.15152 0
0.30303 5.25253 0
0.30303 5.35354 0
0.30303 5.45455 0
0.30303 5.55556 0
0.30303 5.65657 0
0.30303 5.75758 0
0.30303 5.85859 0
0.30303 5.9596 0
0.30303 6.06061 0
0.30303 6.16162 0
0.30303 6.26263 0
0.30303 6.36364 0
0.30303 6.46465 0
0.30303 6.56566 0
0.30303 6.66667 0
0.30303 6.76768 0
0.30303 6.86869 0
0.30303 6.9697 0
0.30303 7.07071 0
0.30303 7.17172 0
0.30303 7.27273 0
0.30303 7.37374 0
0.30303 7.47475 0
0.30303 7.57576 0
0.30303 7.67677 0
0.30303 7.77778 0
0.30303 7.87879 0
0.30303 7.9798 0
0.30303 8.08081 0
[...]
CELL_DATA 9801
SCALARS Temperatura double 1
LOOKUP_TABLE default
1.02014e-10
2.01632e-10
3.9431e-10
7.62859e-10
1.45991e-09
2.76332e-09
5.17254e-09
9.57386e-09
1.75196e-08
3.16925e-08
5.66662e-08
1.0013e-07
1.74829e-07
3.01584e-07
5.13901e-07
8.64891e-07
1.43742e-06
2.35869e-06
3.82078e-06
6.10872e-06
9.63801e-06
1.50032e-05
2.30385e-05
3.48912e-05
5.21052e-05
7.6711e-05
0.000111315
0.000159174
0.000224242
0.000311158
0.00042517
0.00057194
0.000757239
0.00098649
0.00126418
0.00159315
0.00197381
0.00240338
0.00287519
0.00337825
0.00389718
0.00441249
0.00490149
0.00533967
0.0057025
0.00596754
0.00611662
0.00613777
0.00602672
0.00578764
0.00543299
0.00506675
0.00469429
0.00432067
0.00395056
0.00358818
0.00323721
0.00290081
0.00258155
0.00228143
0.00200191
0.00174392
0.00150791
0.0012939
0.00110153
0.000930118
0.000778726
0.000646206
0.00053126
0.000432489
0.000348437
0.000277631
0.000218615
0.000169975
0.000130366
9.85214e-05
7.32721e-05
5.3551e-05
3.83985e-05
2.69637e-05
1.85037e-05
1.238e-05
8.05357e-06
5.07835e-06
3.09299e-06
1.81208e-06
1.01635e-06
5.42684e-07
2.74037e-07
1.29828e-07
5.7149e-08
2.3093e-08
8.43521e-09
2.72932e-09
7.60817e-10
1.75474e-10
3.14048e-11
3.87846e-12
2.48004e-13
1.47488e-09
2.84211e-09
5.41514e-09
1.02e-08
1.89913e-08
3.49462e-08
6.35437e-08
1.14157e-07
2.02589e-07
3.55092e-07
6.14614e-07
1.05032e-06
1.7718e-06
2.94987e-06
4.84617e-06
7.85439e-06
1.25561e-05
1.97937e-05
3.07636e-05
4.71281e-05
7.11466e-05
0.000105816
0.00015501
0.000223598
0.000317509
0.000443714
0.000610081
0.000825051
0.00109712
0.0014341
0.00184213
0.00232462
0.00288101
0.00350572
0.0041873
0.00490813
0.00564473
0.00636884
0.00704938
0.00765503
0.00815726
0.00853335
0.00876899
0.00885987
0.00881199
0.00864058
0.00836755
0.00801811
0.00761702
0.00718524
0.00673762
0.00627747
0.00581129
0.00534518
0.00488477
0.00443508
0.00400048
0.00358469
0.00319069
0.0028208
0.00247665
0.00215926
0.00186906
0.00160597
0.00136946
0.00115865
0.000972321
0.000809043
0.000667207
0.000545093
0.000440926
0.000352918
0.000279305
0.000218386
0.000168539
0.000128243
9.60936e-05
7.08059e-05
5.12232e-05
3.6316e-05
2.51805e-05
1.7035e-05
1.12141e-05
7.16135e-06
4.4207e-06
2.62709e-06
1.49582e-06
8.11472e-07
4.16657e-07
2.0088e-07
9.00592e-08
3.70944e-08
1.38225e-08
4.56635e-09
1.30071e-09
3.06803e-10
5.62026e-11
7.11059e-12
4.66193e-13
1.10317e-08
2.07422e-08
3.85368e-08
7.07347e-08
1.28248e-07
2.29644e-07
4.06036e-07
7.08764e-07
1.22118e-06
2.07643e-06
3.48354e-06
5.76502e-06
9.40943e-06
1.5143e-05
2.4024e-05
3.7563e-05
5.78697e-05
8.78232e-05
0.000131257
0.000193141
0.000279737
0.000398684
0.00055897
0.000770738
0.00104486
0.00139228
0.00182299
0.00234485
0.0029622
0.00367432
0.00447422
0.00534769
0.00627308
0.00722185
0.00816016
0.00905128
0.0098588
0.0105501
0.0110994
0.0114905
0.011718
0.0117868
0.0117107
0.0115095
0.0112058
0.0108219
0.0103776
0.00988873
0.0093677
0.00882387
0.008265
0.0076929
0.00711541
0.00653984
0.00597287
0.00542045
0.00488773
0.004379
0.00389773
0.00344654
0.00302725
0.00264092
0.00228793
0.00196807
0.00168059
0.00142431
0.00119771
0.000998992
0.000826177
0.000677164
0.000549797
0.000441917
0.000351408
0.000276231
0.000214449
0.000164254
0.000123973
9.20784e-05
6.71939e-05
4.80912e-05
3.36881e-05
2.30434e-05
1.53503e-05
9.92781e-06
6.21187e-06
3.74497e-06
2.16504e-06
1.19356e-06
6.23318e-07
3.05915e-07
1.39734e-07
5.86903e-08
2.23207e-08
7.53231e-09
2.1936e-09
5.29464e-10
9.9339e-11
1.28838e-11
8.66717e-13
5.68958e-08
1.04463e-07
1.89406e-07
3.3907e-07
5.99192e-07
1.04506e-06
1.79856e-06
3.05373e-06
5.11401e-06
8.44549e-06
1.37506e-05
2.20674e-05
3.48986e-05
5.43738e-05
8.3442e-05
0.000126091
0.000187573
0.00027462
0.000395596
0.000560548
0.000781084
0.00107002
0.00144071
0.00190612
0.00247744
0.00316261
0.00396455
0.00487961
0.00589623
0.00699435
0.00814557
0.00931447
0.0104609
0.0115432
0.0125217
0.0133627
0.0140412
0.0145427
0.0148639
0.0150116
0.0150001
0.0148485
0.0145777
0.0142077
0.0137562
0.0132383
0.0126662
0.0120506
0.011401
0.0107264
0.0100356
0.00933132
0.00862284
0.00791886
0.00722726
0.00655503
0.00590815
0.0052916
0.00470931
0.00416424
0.00365836
0.00319275
0.00276772
0.00238283
0.00203707
0.00172889
0.00145637
0.00121729
0.00100922
0.000829609
0.000675846
0.000545342
0.00043557
0.000344102
0.000268645
0.000207059
0.000157373
0.00011779
8.66876e-05
6.26203e-05
4.43103e-05
3.06424e-05
2.06545e-05
1.35287e-05
8.58055e-06
5.24837e-06
3.08119e-06
1.72652e-06
9.17288e-07
4.58421e-07
2.13417e-07
9.14443e-08
3.55106e-08
1.22472e-08
3.64859e-09
9.01711e-10
1.73388e-10
2.30687e-11
1.59349e-12
2.27537e-07
4.0827e-07
7.23004e-07
1.26341e-06
2.17808e-06
3.70366e-06
6.21047e-06
1.02673e-05
1.67313e-05
2.68681e-05
4.25089e-05
6.62443e-05
0.000101657
0.000153579
0.000228363
0.00033412
0.000480898
0.000680713
0.000947385
0.00129608
0.00174254
0.00230186
0.00298701
0.00380702
0.00476503
0.00585659
0.00706827
0.00837711
0.00975103
0.0111504
0.0125308
0.0138462
0.0150535
0.0161157
0.017005
0.0177049
0.0182097
0.0185237
0.018659
0.018632
0.0184611
0.0181645
0.0177587
0.017258
0.0166751
0.0160214
0.0153079
0.0145453
0.0137443
0.0129156
0.0120698
0.0112107
0.0103493
0.00949593
0.00865974
0.00784889
0.00707029
0.00632963
0.00563137
0.00497877
0.00437394
0.00381796
0.00331097
0.00285227
0.00244046
0.00207359
0.00174925
0.00146468
0.00121693
0.00100291
0.000819486
0.000663564
0.000532138
0.000422337
0.000331459
0.00025699
0.000196622
0.000148258
0.000110008
8.01861e-05
5.73035e-05
4.00569e-05
2.73177e-05
1.81204e-05
1.16499e-05
7.23002e-06
4.31085e-06
2.45565e-06
1.32762e-06
6.75814e-07
3.20783e-07
1.40274e-07
5.56468e-08
1.96247e-08
5.9841e-09
1.51521e-09
2.98803e-10
4.08115e-11
2.89697e-12
7.5236e-07
1.32028e-06
2.28547e-06
3.90177e-06
6.56794e-06
1.08989e-05
1.78245e-05
2.87236e-05
4.55973e-05
7.12879e-05
0.000109739
0.00016629
0.000247986
0.000363857
0.000525136
0.000745323
0.00104003
0.00142653
0.00192288
0.00254672
0.00331357
0.00423488
0.00531589
0.00655373
0.00793583
0.00943921
0.0110308
0.012669
0.0143064
0.0158934
0.0173821
0.0187306
0.0199059
0.0208859
0.0216597
0.0222265
0.0225937
0.0227739
0.0227823
0.0226343
0.022345
0.0219276
0.0213945
0.0207572
0.0200273
0.0192165
0.018337
0.0174015
0.0164229
0.015414
0.0143874
0.0133484
0.01231
0.011284
0.0102814
0.00931135
0.0083819
0.00749947
0.00666907
0.00589424
0.00517722
0.00451901
0.00391952
0.0033777
0.00289171
0.00245905
0.00207673
0.00174138
0.00144941
0.00119711
0.000980725
0.000796586
0.000641134
0.000510986
0.000402975
0.000314166
0.000241873
0.000183664
0.000137353
0.000100994
7.28713e-05
5.14801e-05
3.55151e-05
2.38546e-05
1.55454e-05
9.78901e-06
5.92828e-06
3.43359e-06
1.88939e-06
9.79927e-07
4.744e-07
2.11801e-07
8.58726e-08
3.09835e-08
9.67581e-09
2.51173e-09
5.08335e-10
7.13298e-11
5.20737e-12
2.14174e-06
3.67865e-06
6.22968e-06
1.03992e-05
1.71079e-05
2.77302e-05
4.4276e-05
6.96209e-05
0.000107786
0.00016426
0.000246344
0.000363488
0.000527561
0.000752992
0.00105669
0.00145763
0.00197612
0.00263251
0.00344551
0.00443016
0.00559555
0.00694258
0.00846216
0.0101341
0.0119271
0.0137999
0.0157038
0.0175864
0.0193951
0.0210822
0.0226074
0.0239411
0.0250647
0.0259701
0.0266582
0.0271359
0.027414
0.0275046
0.02742
0.0271714
0.0267699
0.026226
0.0255506
0.0247555
0.0238534
0.022858
0.021784
0.0206466
0.0194611
0.0182431
0.0170074
0.0157609
0.0145189
0.0132951
0.0121021
0.0109507
0.00984968
0.00880649
0.0078266
0.00691386
0.00607056
0.00529756
0.00459447
0.00395979
0.0033911
0.00288529
0.00243864
0.00204709
0.00170629
0.0014118
0.00115916
0.000944039
0.000762235
0.000609789
0.000483004
0.000378469
0.000293075
0.000224017
0.000168783
0.000125145
9.11406e-05
6.5052e-05
4.53885e-05
3.08654e-05
2.03861e-05
1.30251e-05
8.01228e-06
4.71892e-06
2.64342e-06
1.39723e-06
6.9013e-07
3.14706e-07
1.30467e-07
4.81862e-08
1.54206e-08
4.10665e-09
8.53583e-10
1.23149e-10
9.25418e-12
5.39709e-06
9.08017e-06
1.50552e-05
2.45946e-05
3.95779e-05
6.27227e-05
9.78711e-05
0.000150328
0.000227236
0.000337963
0.00049444
0.000711404
0.00100643
0.0013997
0.00191331
0.00257022
0.00339261
0.00439983
0.00560605
0.00701781
0.0086318
0.0104333
0.0123956
0.0144806
0.0166408
0.0188223
0.0209693
0.0230278
0.0249502
0.0266976
0.0282421
0.0295665
0.0306631
0.0315317
0.0321772
0.0326067
0.0328286
0.0328512
0.0326826
0.0323309
0.0318051
0.0311155
0.0302738
0.0292934
0.0281895
0.0269786
0.0256783
0.0243067
0.0228822
0.0214231
0.0199471
0.018463
0.0169885
0.0155396
0.0141305
0.0127736
0.011479
0.0102548
0.009107
0.00803977
0.00705536
0.00615442
0.00533614
0.00459845
0.00393829
0.00335174
0.0028343
0.00238103
0.00198674
0.00164616
0.00135402
0.0011052
0.000894795
0.000718189
0.000571084
0.000449536
0.000349962
0.000269141
0.000204204
0.000152612
0.000112138
8.08387e-05
5.70283e-05
3.92542e-05
2.62734e-05
1.70308e-05
1.06413e-05
6.37359e-06
3.63517e-06
1.95867e-06
9.87355e-07
4.60054e-07
1.95109e-07
7.38042e-08
2.42187e-08
6.62117e-09
1.4145e-09
2.09997e-10
1.62579e-11
1.22858e-05
2.02621e-05
3.29186e-05
5.26719e-05
8.29844e-05
0.000128705
0.000196461
0.000295081
0.000436007
0.000633638
0.000905514
0.00127225
0.00175711
0.00238512
0.00318164
0.00417048
0.00537151
0.00679809
0.00845452
0.0103339
0.012417
0.0146717
0.0170547
0.0195138
0.0219916
0.0244296
0.0267729
0.0289736
0.0309933
0.0328042
0.0343886
0.0357373
0.0368474
0.0377199
0.0383579
0.038765
0.0389453
0.0389031
0.0386438
0.0381741
0.0375032
0.0366423
0.0356052
0.0344082
0.0330694
0.0316086
0.0300467
0.0284055
0.0267067
0.0249718
0.0232215
0.0214671
0.019729
0.0180255
0.0163729
0.0147851
0.0132734
0.0118468
0.0105118
0.00927275
0.00813181
0.0070893
0.00614388
0.0052928
0.00453218
0.00385721
0.00326243
0.00274192
0.00228952
0.00189899
0.00156415
0.00127902
0.00103787
0.000835353
0.000666501
0.000526771
0.000412054
0.00031867
0.000243353
0.000183225
0.000135775
9.88147e-05
7.04567e-05
4.90751e-05
3.32784e-05
2.18823e-05
1.38871e-05
8.45891e-06
4.91275e-06
2.6989e-06
1.38892e-06
6.61516e-07
2.87134e-07
1.11304e-07
3.7475e-08
1.05253e-08
2.31288e-09
3.53641e-10
2.82338e-11
2.56563e-05
4.15094e-05
6.61328e-05
0.00010373
0.000160146
0.000243307
0.000363685
0.000534733
0.000773224
0.00109938
0.00153671
0.0021114
0.00285125
0.00378395
0.00493494
0.00632477
0.0079664
0.00986253
0.0120037
0.014367
0.0169168
0.0196058
0.0223783
0.0251742
0.0279332
0.0305992
0.0331236
0.0354672
0.0376011
0.0395055
0.0411684
0.0425829
0.0437452
0.0446534
0.0453058
0.0457018
0.0458414
0.0457264
0.0453608
0.0447517
0.0439094
0.0428474
0.0415823
0.0401336
0.0385231
0.0367745
0.0349126
0.032963
0.0309514
0.0289029
0.0268419
0.0247822
0.0227472
0.020758
0.0188328
0.0169873
0.015234
0.0135828
0.0120406
0.0106119
0.0092986
0.00810063
0.00701596
0.006041
0.00517091
0.00439984
0.00372122
0.00312802
0.00261296
0.00216874
0.00178812
0.00146417
0.00119026
0.000960211
0.000768317
0.000609371
0.000478681
0.00037206
0.000285806
0.000216673
0.000161836
0.000118851
8.56142e-05
6.03207e-05
4.14295e-05
2.76286e-05
1.78068e-05
1.10304e-05
6.52383e-06
3.6548e-06
1.92065e-06
9.35407e-07
4.15741e-07
1.65237e-07
5.71196e-08
1.64931e-08
3.73102e-09
5.88071e-10
4.84639e-11
4.9748e-05
7.90191e-05
0.000123555
0.000190137
0.000287912
0.000428892
0.000628416
0.000905477
0.00128282
0.00178667
0.00244603
0.00329136
0.00435273
0.0056574
0.00722699
0.00907465
0.0112024
0.0135992
0.0162401
0.0190868
0.0220894
0.0251899
0.0283261
0.0314362
0.0344626
0.0373556
0.0400742
0.0425873
0.044872
0.046912
0.0486958
0.0502142
0.0514591
0.0524235
0.053101
0.0534866
0.0535777
0.0533747
0.0528818
0.0521072
0.0510633
0.0497665
0.0482369
0.0464979
0.0445755
0.0424976
0.0402937
0.0379938
0.035628
0.0332255
0.0308146
0.0284124
0.0260456
0.0237379
0.02151
0.019379
0.0173589
0.0154603
0.0136906
0.0120541
0.0105526
0.00918527
0.00794929
0.00684009
0.00585167
0.00497698
0.0042082
0.00353704
0.00295497
0.00245347
0.00202419
0.00165908
0.00135055
0.0010915
0.000875419
0.000696366
0.000549012
0.000428614
0.000330996
0.000252508
0.000189989
0.000140714
0.000102352
7.29123e-05
5.07017e-05
3.4282e-05
2.24346e-05
1.41314e-05
8.51148e-06
4.86318e-06
2.61038e-06
1.30046e-06
5.92096e-07
2.41425e-07
8.5741e-08
2.54717e-08
5.93691e-09
9.6553e-10
8.22221e-11
9.04422e-05
0.000141142
0.000216765
0.000327551
0.0004869
0.000711856
0.00102344
0.0014467
0.00201044
0.00274632
0.00368747
0.00486644
0.0063126
0.00804918
0.0100903
0.0124383
0.0150817
0.0179947
0.0211377
0.0244595
0.0279005
0.031397
0.0348859
0.0383082
0.041612
0.0447544
0.0477008
0.0504246
0.0529048
0.0551241
0.0570674
0.0587202
0.0600689
0.0611009
0.0618054
0.0621743
0.0622032
0.0618923
0.0612467
0.0602766
0.0589971
0.0574281
0.0555938
0.053522
0.0512436
0.0487916
0.0462004
0.0435053
0.0407411
0.0379418
0.0351398
0.0323562
0.0296211
0.0269612
0.0243994
0.0219548
0.0196424
0.0174736
0.015456
0.0135939
0.0118885
0.0103382
0.00893923
0.00768577
0.00657053
0.00558508
0.00472019
0.00396612
0.00331299
0.00275093
0.00227032
0.00186195
0.00151714
0.00122781
0.000986559
0.000786661
0.000622095
0.000487518
0.000378239
0.000290171
0.000219788
0.000164067
0.000120432
8.66958e-05
6.10094e-05
4.1809e-05
2.77732e-05
1.77863e-05
1.09093e-05
6.35767e-06
3.48632e-06
1.7772e-06
8.29273e-07
3.47083e-07
1.26725e-07
3.87635e-08
9.31724e-09
1.56504e-09
1.37867e-10
0.000155396
0.000238442
0.000359967
0.000534563
0.000780755
0.00112135
0.00158351
0.00219836
0.00300013
0.00402462
0.005307
0.00687913
0.00876644
0.0109848
0.013538
0.0164153
0.0195913
0.0230265
0.0266691
0.0304589
0.0343316
0.0382226
0.0420715
0.0458241
0.0494347
0.0528652
0.0560845
0.0590662
0.0617872
0.0642256
0.0663603
0.0681704
0.0696363
0.0707402
0.0714675
0.071808
0.0717566
0.0713137
0.070486
0.0692864
0.0677332
0.0658506
0.0636675
0.0612168
0.0585348
0.0556604
0.0526338
0.0494957
0.0462866
0.0430456
0.0398098
0.0366047
0.0334641
0.0304177
0.0274908
0.0247043
0.0220743
0.0196128
0.0173277
0.0152227
0.0132984
0.0115523
0.00997927
0.00857223
0.00732235
0.00621961
0.00525318
0.00441178
0.00368398
0.00305845
0.00252421
0.00207077
0.00168828
0.0013676
0.00110039
0.000879077
0.000696902
0.000547882
0.000426772
0.000329019
0.000250708
0.000188492
0.000139535
0.000101443
7.22034e-05
5.01255e-05
3.37879e-05
2.19941e-05
1.37357e-05
8.16484e-06
4.57474e-06
2.38693e-06
1.14195e-06
4.90874e-07
1.8438e-07
5.8119e-08
1.44193e-08
2.5042e-09
2.28462e-10
0.000254017
0.000383518
0.000569582
0.00083196
0.00119498
0.00168761
0.00234314
0.0031982
0.00429123
0.0056602
0.00733982
0.00935833
0.0117343
0.0144737
0.017568
0.0209934
0.0247115
0.0286713
0.0328129
0.0370715
0.0413818
0.0456816
0.0499148
0.0540323
0.0579923
0.061759
0.0653004
0.0685872
0.0715906
0.0742822
0.0766336
0.078617
0.0802071
0.0813815
0.0821227
0.0824188
0.0822645
0.0816614
0.0806183
0.079151
0.0772821
0.0750406
0.0724606
0.0695811
0.0664447
0.0630967
0.0595837
0.0559528
0.0522504
0.0485215
0.0448081
0.0411408
0.0375573
0.0340903
0.0307676
0.0276116
0.0246396
0.0218641
0.0192926
0.0169285
0.0147715
0.0128178
0.0110609
0.00949198
0.00810056
0.00687486
0.00580228
0.00486981
0.00406433
0.00337296
0.00278323
0.00228329
0.00186204
0.00150923
0.00121549
0.000972383
0.000772365
0.000608775
0.000475789
0.000368363
0.000282164
0.000213507
0.000159278
0.000116862
8.40748e-05
5.90948e-05
4.04015e-05
2.67227e-05
1.69892e-05
1.03e-05
5.89721e-06
3.15013e-06
1.54582e-06
6.82815e-07
2.64036e-07
8.58355e-08
2.20026e-08
3.95511e-09
3.7415e-10
0.00039726
0.000590608
0.000863575
0.0012417
0.00175549
0.00244009
0.00333437
0.00447937
0.00591597
0.00768207
0.00980925
0.0123195
0.0152223
0.0185121
0.0221682
0.0261543
0.0304214
0.0349106
0.0395576
0.0442965
0.0490638
0.0538013
0.0584569
0.0629848
0.0673445
0.0714985
0.0754111
0.0790467
0.0823691
0.0853419
0.0879289
0.0900959
0.0918118
0.0930506
0.0937921
0.0940235
0.0937396
0.0929437
0.0916473
0.0898701
0.0876393
0.0849893
0.0819608
0.0785994
0.0749547
0.0710793
0.0670269
0.0628518
0.0586068
0.054343
0.0501081
0.0459383
0.041875
0.0379543
0.0342062
0.0306547
0.0273179
0.0242085
0.0213337
0.0186961
0.0162942
0.0141227
0.0121734
0.0104357
0.00889713
0.00754394
0.0063616
0.0053352
0.00444985
0.00369094
0.00304443
0.00249704
0.00203635
0.00165093
0.00133038
0.00106532
0.000847399
0.000669262
0.00052448
0.000407497
0.000313552
0.000238599
0.000179235
0.000132612
9.63646e-05
6.85325e-05
4.74948e-05
3.19062e-05
2.06436e-05
1.27631e-05
7.46734e-06
4.08451e-06
2.0566e-06
9.34e-07
3.72069e-07
1.24853e-07
3.30995e-08
6.16543e-09
6.05555e-10
0.00059724
0.000874973
0.00126056
0.0017857
0.00248711
0.00340565
0.00458483
0.00606851
0.00789801
0.0101088
0.0127269
0.0157662
0.0192255
0.0230879
0.0273209
0.0318782
0.0367032
0.0417324
0.0469004
0.0521426
0.057399
0.0626145
0.0677398
0.0727298
0.0775416
0.0821336
0.0864631
0.0904864
0.0941586
0.0974347
0.100271
0.102626
0.104465
0.105757
0.106481
0.106622
0.106178
0.105152
0.10356
0.101426
0.0987829
0.0956714
0.0921393
0.0882399
0.0840307
0.0795723
0.0749263
0.0701547
0.0653175
0.0604723
0.0556727
0.050961
0.0463829
0.0419772
0.0377762
0.0338053
0.0300832
0.0266225
0.0234297
0.0205065
0.0178496
0.0154522
0.013304
0.0113923
0.00970253
0.00821874
0.00692428
0.00580222
0.00483572
0.00400839
0.00330451
0.0027093
0.00220897
0.00179088
0.00144353
0.0011566
0.000920927
0.000728422
0.000572052
0.000445736
0.000344272
0.000263252
0.000198967
0.000148328
0.000108779
7.82153e-05
5.49101e-05
3.74445e-05
2.46457e-05
1.55351e-05
9.28751e-06
5.20264e-06
2.68875e-06
1.2561e-06
5.15845e-07
1.78831e-07
4.90834e-08
9.48548e-09
9.686e-10
0.000866707
0.00125215
0.0017788
0.00248458
0.00341208
0.00460705
0.00611626
0.00798462
0.0102518
0.0129486
0.016094
0.019692
0.023731
0.0281831
0.0330062
0.0381466
0.043543
0.0491307
0.0548449
0.060624
0.0664107
0.0721524
0.0777996
0.0833049
0.0886208
0.0936981
0.0984855
0.10293
0.106977
0.110573
0.113666
0.11621
0.118163
0.119493
0.120176
0.120197
0.119556
0.118258
0.116324
0.113782
0.110672
0.107043
0.102949
0.0984531
0.0936215
0.0885234
0.0832293
0.0778092
0.072331
0.0668591
0.0614534
0.056163
0.0510373
0.0461183
0.04144
0.037029
0.0329042
0.0290778
0.0255554
0.0223371
0.019418
0.016789
0.0144377
0.012349
0.0105058
0.00888997
0.00748252
0.00626434
0.00521655
0.00432086
0.00355983
0.00291711
0.0023775
0.00192711
0.00155335
0.00124494
0.000991878
0.000785365
0.000617748
0.000482428
0.000373761
0.00028697
0.000218041
0.000163639
0.000121008
8.78948e-05
6.24596e-05
4.3207e-05
2.89151e-05
1.85759e-05
1.13461e-05
6.50948e-06
3.45389e-06
1.66061e-06
7.03526e-07
2.52196e-07
7.17415e-08
1.44022e-08
1.53122e-09
0.00121841
0.00173711
0.00243518
0.00335651
0.00454886
0.00606173
0.00794361
0.0102386
0.0129827
0.0162005
0.0199026
0.0240832
0.0287204
0.0337772
0.0392042
0.0449431
0.0509307
0.0571029
0.0633972
0.0697544
0.0761193
0.0824389
0.0886616
0.0947345
0.100603
0.106208
0.111489
0.116382
0.120823
0.124749
0.128102
0.130828
0.132882
0.134228
0.134842
0.134709
0.133828
0.132212
0.129884
0.126879
0.123245
0.119038
0.114323
0.109171
0.103658
0.0978639
0.0918676
0.0857484
0.0795824
0.0734412
0.0673909
0.0614882
0.0557861
0.0503292
0.0451532
0.0402852
0.0357443
0.0315417
0.0276817
0.0241625
0.020977
0.0181138
0.0155577
0.0132913
0.0112947
0.00954735
0.00802771
0.00671441
0.00558643
0.00462351
0.00380645
0.00311727
0.00253936
0.00205757
0.0016582
0.00132902
0.0010592
0.000839231
0.00066086
0.000516976
0.000401503
0.000309301
0.000236059
0.000178192
0.000132748
9.73147e-05
6.99379e-05
4.90399e-05
3.33472e-05
2.18242e-05
1.36155e-05
8.00008e-06
4.35896e-06
2.15784e-06
9.43727e-07
3.50135e-07
1.03346e-07
2.15807e-08
2.39255e-09
0.00166443
0.00234345
0.00324426
0.00441618
0.00591118
0.00778115
0.0100746
0.0128332
0.0160877
0.0198555
0.024138
0.0289203
0.0341718
0.0398482
0.0458953
0.0522527
0.0588574
0.0656471
0.0725615
0.0795433
0.086537
0.0934872
0.100337
0.107026
0.11349
0.11966
0.125464
0.130827
0.135675
0.139936
0.143545
0.146442
0.148577
0.149913
0.150423
0.150094
0.148929
0.146942
0.144165
0.140639
0.13642
0.131574
0.126175
0.120306
0.114054
0.107508
0.100758
0.0938914
0.0869939
0.0801444
0.0734155
0.0668714
0.0605687
0.0545542
0.048865