# vtk DataFile Version 3.0
Malha 2D com triângulos e temperatura
ASCII
DATASET UNSTRUCTURED_GRID

POINTS 10000 double
0 0 0
10 0 0
10 10 0
0 10 0
0.10101 0 0
0.20202 0 0
0.30303 0 0
0.40404 0 0
0.505051 0 0
0.606061 0 0
0.707071 0 0
0.808081 0 0
0.909091 0 0
1.0101 0 0
1.11111 0 0
1.21212 0 0
1.31313 0 0
1.41414 0 0
1.51515 0 0
1.61616 0 0
1.71717 0 0
1.81818 0 0
1.91919 0 0
2.0202 0 0
2.12121 0 0
2.22222 0 0
2.32323 0 0
2.42424 0 0
2.52525 0 0
2.62626 0 0
2.72727 0 0
2.82828 0 0
2.92929 0 0
3.0303 0 0
3.13131 0 0
3.23232 0 0
3.33333 0 0
3.43434 0 0
3.53535 0 0
3.63636 0 0
3.73737 0 0
3.83838 0 0
3.93939 0 0
4.0404 0 0
4.14141 0 0
4.24242 0 0
4.34343 0 0
4.44444 0 0
4.54545 0 0
4.64646 0 0
4.74747 0 0
4.84848 0 0
4.94949 0 0
5.05051 0 0
5.15152 0 0
5.25253 0 0
5.35354 0 0
5.45455 0 0
5.55556 0 0
5.65657 0 0
5.75758 0 0
5.85859 0 0
5.9596 0 0
6.06061 0 0
6.16162 0 0
6.26263 0 0
6.36364 0 0
6.46465 0 0
6.56566 0 0
6.66667 0 0
6.76768 0 0
6.86869 0 0
6.9697 0 0
7.07071 0 0
7.17172 0 0
7.27273 0 0
7.37374 0 0
7.47475 0 0
7.57576 0 0
7.67677 0 0
7.77778 0 0
7.87879 0 0
7.9798 0 0
8.08081 0 0
8.18182 0 0
8.28283 0 0
8.38384 0 0
8.48485 0 0
8.58586 0 0
8.68687 0 0
8.78788 0 0
8.88889 0 0
8.9899 0 0
9.09091 0 0
9.19192 0 0
9.29293 0 0
9.39394 0 0
9.49495 0 0
9.59596 0 0
9.69697 0 0
9.79798 0 0
9.89899 0 0
10 0.10101 0
10 0.20202 0
10 0.30303 0
10 0.40404 0
10 0.505051 0
10 0.606061 0
10 0.707071 0
10 0.808081 0
10 0.909091 0
10 1.0101 0
10 1.11111 0
10 1.21212 0
10 1.31313 0
10 1.41414 0
10 1.51515 0
10 1.61616 0
10 1.71717 0
10 1.81818 0
10 1.91919 0
10 2.0202 0
10 2.12121 0
10 2.22222 0
10 2.32323 0
10 2.42424 0
10 2.52525 0
10 2.62626 0
10 2.72727 0
10 2.82828 0
10 2.92929 0
10 3.0303 0
10 3.13131 0
10 3.23232 0
10 3.33333 0
10 3.43434 0
10 3.53535 0
10 3.63636 0
10 3.73737 0
10 3.83838 0
10 3.93939 0
10 4.0404 0
10 4.14141 0
10 4.24242 0
10 4.34343 0
10 4.44444 0
10 4.54545 0
10 4.64646 0
10 4.74747 0
10 4.84848 0
10 4.94949 0
10 5.05051 0
10 5.15152 0
10 5.25253 0
10 5.35354 0
10 5.45455 0
10 5.55556 0
10 5.65657 0
10 5.75758 0
10 5.85859 0
10 5.9596 0
10 6.06061 0
10 6.16162 0
10 6.26263 0
10 6.36364 0
10 6.46465 0
10 6.56566 0
10 6.66667 0
10 6.76768 0
10 6.86869 0
10 6.9697 0
10 7.07071 0
10 7.17172 0
10 7.27273 0
10 7.37374 0
10 7.47475 0
10 7.57576 0
10 7.67677 0
10 7.77778 0
10 7.87879 0
10 7.9798 0
10 8.08081 0
10 8.18182 0
10 8.28283 0
10 8.38384 0
10 8.48485 0
10 8.58586 0
10 8.68687 0
10 8.78788 0
10 8.88889 0
10 8.9899 0
10 9.09091 0
10 9.19192 0
10 9.29293 0
10 9.39394 0
10 9.49495 0
10 9.59596 0
10 9.69697 0
10 9.79798 0
10 9.89899 0
9.89899 10 0
9.79798 10 0
9.69697 10 0
9.59596 10 0
9.49495 10 0
9.39394 10 0
9.29293 10 0
9.19192 10 0
9.09091 10 0
8.9899 10 0
8.88889 10 0
8.78788 10 0
8.68687 10 0
8.58586 10 0
8.48485 10 0
8.38384 10 0
8.28283 10 0
8.18182 10 0
8.08081 10 0
7.9798 10 0
7.87879 10 0
7.77778 10 0
7.67677 10 0
7.57576 10 0
7.47475 10 0
7.37374 10 0
7.27273 10 0
7.17172 10 0
7.07071 10 0
6.9697 10 0
6.86869 10 0
6.76768 10 0
6.66667 10 0
6.56566 10 0
6.46465 10 0
6.36364 10 0
6.26263 10 0
6.16162 10 0
6.06061 10 0
5.9596 10 0
5.85859 10 0
5.75758 10 0
5.65657 10 0
5.55556 10 0
5.45455 10 0
5.35354 10 0
5.25253 10 0
5.15152 10 0
5.05051 10 0
4.94949 10 0
4.84848 10 0
4.74747 10 0
4.64646 10 0
4.54545 10 0
4.44444 10 0
4.34343 10 0
4.24242 10 0
4.14141 10 0
4.0404 10 0
3.93939 10 0
3.83838 10 0
3.73737 10 0
3.63636 10 0
3.53535 10 0
3.43434 10 0
3.33333 10 0
3.23232 10 0
3.13131 10 0
3.0303 10 0
2.92929 10 0
2.82828 10 0
2.72727 10 0
2.62626 10 0
2.52525 10 0
2.42424 10 0
2.32323 10 0
2.22222 10 0
2.12121 10 0
2.0202 10 0
1.91919 10 0
1.81818 10 0
1.71717 10 0
1.61616 10 0
1.51515 10 0
1.41414 10 0
1.31313 10 0
1.21212 10 0
1.11111 10 0
1.0101 10 0
0.909091 10 0
0.808081 10 0
0.707071 10 0
0.606061 10 0
0.505051 10 0
0.40404 10 0
0.30303 10 0
0.20202 10 0
0.10101 10 0
0 9.89899 0
0 9.79798 0
0 9.69697 0
0 9.59596 0
0 9.49495 0
0 9.39394 0
0 9.29293 0
0 9.19192 0
0 9.09091 0
0 8.9899 0
0 8.88889 0
0 8.78788 0
0 8.68687 0
0 8.58586 0
0 8.48485 0
0 8.38384 0
0 8.28283 0
0 8.18182 0
0 8.08081 0
0 7.9798 0
0 7.87879 0
0 7.77778 0
0 7.67677 0
0 7.57576 0
0 7.47475 0
0 7.37374 0
0 7.27273 0
0 7.17172 0
0 7.07071 0
0 6.9697 0
0 6.86869 0
0 6.76768 0
0 6.66667 0
0 6.56566 0
0 6.46465 0
0 6.36364 0
0 6.26263 0
0 6.16162 0
0 6.06061 0
0 5.9596 0
0 5.85859 0
0 5.75758 0
0 5.65657 0
0 5.55556 0
0 5.45455 0
0 5.35354 0
0 5.25253 0
0 5.15152 0
0 5.05051 0
0 4.94949 0
0 4.84848 0
0 4.74747 0
0 4.64646 0
0 4.54545 0
0 4.44444 0
0 4.34343 0
0 4.24242 0
0 4.14141 0
0 4.0404 0
0 3.93939 0
0 3.83838 0
0 3.73737 0
0 3.63636 0
0 3.53535 0
0 3.43434 0
0 3.33333 0
0 3.23232 0
0 3.13131 0
0 3.0303 0
0 2.92929 0
0 2.82828 0
0 2.72727 0
0 2.62626 0
0 2.52525 0
0 2.42424 0
0 2.32323 0
0 2.22222 0
0 2.12121 0
0 2.0202 0
0 1.91919 0
0 1.81818 0
0 1.71717 0
0 1.61616 0
0 1.51515 0
0 1.41414 0
0 1.31313 0
0 1.21212 0
0 1.11111 0
0 1.0101 0
0 0.909091 0
0 0.808081 0
0 0.707071 0
0 0.606061 0
0 0.505051 0
0 0.40404 0
0 0.30303 0
0 0.20202 0
0 0.10101 0
0.10101 0.10101 0
0.10101 0.20202 0
0.10101 0.30303 0
0.10101 0.40404 0
0.10101 0.505051 0
0.10101 0.606061 0
0.10101 0.707071 0
0.10101 0.808081 0
0.10101 0.909091 0
0.10101 1.0101 0
0.10101 1.11111 0
0.10101 1.21212 0
0.10101 1.31313 0
0.10101 1.41414 0
0.10101 1.51515 0
0.10101 1.61616 0
0.10101 1.71717 0
0.10101 1.81818 0
0.10101 1.91919 0
0.10101 2.0202 0
0.10101 2.12121 0
0.10101 2.22222 0
0.10101 2.32323 0
0.10101 2.42424 0
0.10101 2.52525 0
0.10101 2.62626 0
0.10101 2.72727 0
0.10101 2.82828 0
0.10101 2.92929 0
0.10101 3.0303 0
0.10101 3.13131 0
0.10101 3.23232 0
0.10101 3.33333 0
0.10101 3.43434 0
0.10101 3.53535 0
0.10101 3.63636 0
0.10101 3.73737 0
0.10101 3.83838 0
0.10101 3.93939 0
0.10101 4.0404 0
0.10101 4.14141 0
0.10101 4.24242 0
0.10101 4.34343 0
0.10101 4.44444 0
0.10101 4.54545 0
0.10101 4.64646 0
0.10101 4.74747 0
0.10101 4.84848 0
0.10101 4.94949 0
0.10101 5.05051 0
0.10101 5.15152 0
0.10101 5.25253 0
0.10101 5.35354 0
0.10101 5.45455 0
0.10101 5.55556 0
0.10101 5.65657 0
0.10101 5.75758 0
0.10101 5.85859 0
0.10101 5.9596 0
0.10101 6.06061 0
0.10101 6.16162 0
0.10101 6.26263 0
0.10101 6.36364 0
0.10101 6.46465 0
0.10101 6.56566 0
0.10101 6.66667 0
0.10101 6.76768 0
0.10101 6.86869 0
0.10101 6.9697 0
0.10101 7.07071 0
0.10101 7.17172 0
0.10101 7.27273 0
0.10101 7.37374 0
0.10101 7.47475 0
0.10101 7.57576 0
0.10101 7.67677 0
0.10101 7.77778 0
0.10101 7.87879 0
0.10101 7.9798 0
0.10101 8.08081 0
0.10101 8.18182 0
0.10101 8.28283 0
0.10101 8.38384 0
0.10101 8.48485 0
0.10101 8.58586 0
0.10101 8.68687 0
0.10101 8.78788 0
0.10101 8.88889 0
0.10101 8.9899 0
0.10101 9.09091 0
0.10101 9.19192 0
0.10101 9.29293 0
0.10101 9.39394 0
0.10101 9.49495 0
0.10101 9.59596 0
0.10101 9.69697 0
0.10101 9.79798 0
0.10101 9.89899 0
0.20202 0.10101 0
0.20202 0.20202 0
0.20202 0.30303 0
0.20202 0.40404 0
0.20202 0.505051 0
0.20202 0.606061 0
0.20202 0.707071 0
0.20202 0.808081 0
0.20202 0.909091 0
0.20202 1.0101 0
0.20202 1.11111 0
0.20202 1.21212 0
0.20202 1.31313 0
0.20202 1.41414 0
0.20202 1.51515 0
0.20202 1.61616 0
0.20202 1.71717 0
0.20202 1.81818 0
0.20202 1.91919 0
0.20202 2.0202 0
0.20202 2.12121 0
0.20202 2.22222 0
0.20202 2.32323 0
0.20202 2.42424 0
0.20202 2.52525 0
0.20202 2.62626 0
0.20202 2.72727 0
0.20202 2.82828 0
0.20202 2.92929 0
0.20202 3.0303 0
0.20202 3.13131 0
0.20202 3.23232 0
0.20202 3.33333 0
0.20202 3.43434 0
0.20202 3.53535 0
0.20202 3.63636 0
0.20202 3.73737 0
0.20202 3.83838 0
0.20202 3.93939 0
0.20202 4.0404 0
0.20202 4.14141 0
0.20202 4.24242 0
0.20202 4.34343 0
0.20202 4.44444 0
0.20202 4.54545 0
0.20202 4.64646 0
0.20202 4.74747 0
0.20202 4.84848 0
0.20202 4.94949 0
0.20202 5.05051 0
0.20202 5.15152 0
0.20202 5.25253 0
0.20202 5.35354 0
0.20202 5.45455 0
0.20202 5.55556 0
0.20202 5.65657 0
0.20202 5.75758 0
0.20202 5.85859 0
0.20202 5.9596 0
0.20202 6.06061 0
0.20202 6.16162 0
0.20202 6.26263 0
0.20202 6.36364 0
0.20202 6.46465 0
0.20202 6.56566 0
0.20202 6.66667 0
0.20202 6.76768 0
0.20202 6.86869 0
0.20202 6.9697 0
0.20202 7.07071 0
0.20202 7.17172 0
0.20202 7.27273 0
0.20202 7.37374 0
0.20202 7.47475 0
0.20202 7.57576 0
0.20202 7.67677 0
0.20202 7.77778 0
0.20202 7.87879 0
0.20202 7.9798 0
0.20202 8.08081 0
0.20202 8.18182 0
0.20202 8.28283 0
0.20202 8.38384 0
0.20202 8.48485 0
0.20202 8.58586 0
0.20202 8.68687 0
0.20202 8.78788 0
0.20202 8.88889 0
0.20202 8.9899 0
0.20202 9.09091 0
0.20202 9.19192 0
0.20202 9.29293 0
0.20202 9.39394 0
0.20202 9.49495 0
0.20202 9.59596 0
0.20202 9.69697 0
0.20202 9.79798 0
0.20202 9.89899 0
0.30303 0.10101 0
0.30303 0.20202 0
0.30303 0.30303 0
0.30303 0.40404 0
0.30303 0.505051 0
0.30303 0.606061 0
0.30303 0.707071 0
0.30303 0.808081 0
0.30303 0.909091 0
0.30303 1.0101 0
0.30303 1.11111 0
0.30303 1.21212 0
0.30303 1.31313 0
0.30303 1.41414 0
0.30303 1.51515 0
0.30303 1.61616 0
0.30303 1.71717 0
0.30303 1.81818 0
0.30303 1.91919 0
0.30303 2.0202 0
0.30303 2.12121 0
0.30303 2.22222 0
0.30303 2.32323 0
0.30303 2.42424 0
0.30303 2.52525 0
0.30303 2.62626 0
0.30303 2.72727 0
0.30303 2.82828 0
0.30303 2.92929 0
0.30303 3.0303 0
0.30303 3.13131 0
0.30303 3.23232 0
0.30303 3.33333 0
0.30303 3.43434 0
0.30303 3.53535 0
0.30303 3.63636 0
0.30303 3.73737 0
0.30303 3.83838 0
0.30303 3.93939 0
0.30303 4.0404 0
0.30303 4.14141 0
0.30303 4.24242 0
0.30303 4.34343 0
0.30303 4.44444 0
0.30303 4.54545 0
0.30303 4.64646 0
0.30303 4.74747 0
0.30303 4.84848 0
0.30303 4.94949 0
0.30303 5.05051 0
0.30303 5.15152 0
0.30303 5.25253 0
0.30303 5.35354 0
0.30303 5.45455 0
0.30303 5.55556 0
0.30303 5.65657 0
0.30303 5.75758 0
0.30303 5.85859 0
0.30303 5.9596 0
0.30303 6.06061 0
0.30303 6.16162 0
0.30303 6.26263 0
0.30303 6.36364 0
0.30303 6.46465 0
0.30303 6.56566 0
0.30303 6.66667 0
0.30303 6.76768 0
0.30303 6.86869 0
0.30303 6.9697 0
0.30303 7.07071 0
0.30303 7.17172 0
0.30303 7.27273 0
0.30303 7.37374 0
0.30303 7.47475 0
0.30303 7.57576 0
0.30303 7.67677 0
0.30303 7.77778 0
0.30303 7.87879 0
0.30303 7.9798 0
0.30303 8.08081 0
[...]
CELL_DATA 9801
SCALARS Temperatura double 1
LOOKUP_TABLE default
-4.24359e-16
3.55709e-15
8.6033e-15
1.26495e-14
1.07399e-14
-2.78944e-15
-3.0445e-14
-6.63243e-14
-9.23692e-14
-8.02289e-14
-1.9046e-15
1.51563e-13
3.50074e-13
5.14887e-13
5.3142e-13
2.89195e-13
-2.59751e-13
-1.04657e-12
-1.86445e-12
-2.40237e-12
-2.33506e-12
-1.4441e-12
2.74106e-13
2.55979e-12
4.92779e-12
6.7871e-12
7.6046e-12
7.05807e-12
5.1278e-12
2.09935e-12
-1.51809e-12
-5.12603e-12
-8.17939e-12
-1.0297e-11
-1.13157e-11
-1.12847e-11
-1.04145e-11
-9.00176e-12
-7.35545e-12
-5.73874e-12
-4.33604e-12
-3.24431e-12
-2.48315e-12
-2.01555e-12
-1.77203e-12
-1.67246e-12
-1.64247e-12
-1.62355e-12
-1.57723e-12
-1.48492e-12
-1.35075e-12
-1.20186e-12
-1.03639e-12
-8.65473e-13
-6.97327e-13
-5.39119e-13
-3.96165e-13
-2.71929e-13
-1.68137e-13
-8.50268e-14
-2.1663e-14
2.37375e-14
5.34962e-14
7.02065e-14
7.65189e-14
7.49816e-14
6.79321e-14
5.74319e-14
4.52339e-14
3.27721e-14
2.11636e-14
1.12162e-14
3.43743e-15
-1.95268e-15
-5.00323e-15
-6.00007e-15
-5.41445e-15
-3.82993e-15
-1.85174e-15
-1.07895e-17
1.31893e-15
1.96896e-15
1.97637e-15
1.53329e-15
9.01047e-16
3.17402e-16
-7.14834e-17
-2.33082e-16
-2.23587e-16
-1.35577e-16
-4.73572e-17
3.43895e-18
1.70436e-17
1.15636e-17
3.50796e-18
-3.88599e-19
-8.12154e-19
-2.70189e-19
3.00456e-20
9.42323e-15
1.50663e-14
1.0706e-14
-9.24487e-15
-4.70802e-14
-9.20981e-14
-1.15828e-13
-7.64319e-14
6.25033e-14
3.00732e-13
5.70314e-13
7.26313e-13
5.80245e-13
-1.78581e-14
-1.07016e-12
-2.34326e-12
-3.36083e-12
-3.51523e-12
-2.2874e-12
4.948e-13
4.46793e-12
8.71534e-12
1.19635e-11
1.29485e-11
1.08308e-11
5.50854e-12
-2.2904e-12
-1.11735e-11
-1.94474e-11
-2.55555e-11
-2.84486e-11
-2.77864e-11
-2.3933e-11
-1.77815e-11
-1.04851e-11
-3.18358e-12
3.2071e-12
8.10599e-12
1.1282e-11
1.27963e-11
1.29082e-11
1.19754e-11
1.0371e-11
8.42744e-12
6.40755e-12
4.49714e-12
2.81188e-12
1.41083e-12
3.11778e-13
-4.95037e-13
-1.04081e-12
-1.35227e-12
-1.47783e-12
-1.46554e-12
-1.3579e-12
-1.19119e-12
-9.94756e-13
-7.91086e-13
-5.96358e-13
-4.21222e-13
-2.71749e-13
-1.50412e-13
-5.7015e-14
1.0466e-14
5.51859e-14
8.08696e-14
9.1397e-14
9.05149e-14
8.16564e-14
6.78425e-14
5.16396e-14
3.5149e-14
2.00087e-14
7.39679e-15
-1.96874e-15
-7.82598e-15
-1.03481e-14
-1.00888e-14
-7.88268e-15
-4.69946e-15
-1.47005e-15
1.08206e-15
2.56081e-15
2.93234e-15
2.46144e-15
1.57036e-15
6.71498e-16
3.61925e-17
-2.55491e-16
-2.78205e-16
-1.72856e-16
-6.00666e-17
3.49109e-18
1.88031e-17
1.14981e-17
2.69211e-18
-7.16516e-19
-6.75791e-19
-9.39992e-20
2.06526e-14
-1.58421e-15
-4.89645e-14
-1.14748e-13
-1.63662e-13
-1.33996e-13
3.9333e-14
3.76883e-13
7.97088e-13
1.08412e-12
9.24043e-13
3.35593e-14
-1.64149e-12
-3.74018e-12
-5.4321e-12
-5.59324e-12
-3.22152e-12
2.02783e-12
9.4129e-12
1.70224e-11
2.21722e-11
2.22168e-11
1.55095e-11
2.14528e-12
-1.58261e-11
-3.48307e-11
-5.07107e-11
-5.98488e-11
-6.00987e-11
-5.12389e-11
-3.48637e-11
-1.38172e-11
8.59156e-12
2.93365e-11
4.61963e-11
5.79736e-11
6.44403e-11
6.61039e-11
6.39068e-11
5.89481e-11
5.22792e-11
4.47865e-11
3.71479e-11
2.98388e-11
2.31635e-11
1.72936e-11
1.23028e-11
8.19599e-12
4.93045e-12
2.43267e-12
5.99202e-13
-6.52932e-13
-1.42776e-12
-1.83457e-12
-1.96847e-12
-1.91187e-12
-1.7328e-12
-1.48528e-12
-1.21024e-12
-9.37037e-13
-6.85182e-13
-4.66211e-13
-2.85491e-13
-1.43872e-13
-3.91264e-14
3.28771e-14
7.7247e-14
9.93955e-14
1.0458e-13
9.7623e-14
8.27712e-14
6.36423e-14
4.32261e-14
2.39001e-14
7.43908e-15
-4.99039e-15
-1.28432e-14
-1.6193e-14
-1.56842e-14
-1.2411e-14
-7.71675e-15
-2.93477e-15
8.7584e-16
3.12717e-15
3.76777e-15
3.19072e-15
2.01736e-15
8.41637e-16
3.68281e-17
-3.06719e-16
-3.11633e-16
-1.751e-16
-4.81043e-17
1.22519e-17
1.97288e-17
8.82831e-18
8.16425e-19
-9.63576e-19
-3.76669e-19
-1.95182e-14
-1.19791e-13
-2.04616e-13
-2.16302e-13
-5.19475e-14
3.56189e-13
9.51064e-13
1.47268e-12
1.46463e-12
4.29114e-13
-1.86799e-12
-5.0452e-12
-7.90641e-12
-8.60987e-12
-5.303e-12
2.91115e-12
1.50576e-11
2.79195e-11
3.65846e-11
3.59146e-11
2.24991e-11
-3.66126e-12
-3.84812e-11
-7.45115e-11
-1.0288e-10
-1.15783e-10
-1.08648e-10
-8.12556e-11
-3.75352e-11
1.57439e-11
7.0835e-11
1.20786e-10
1.60649e-10
1.87937e-10
2.0241e-10
2.05465e-10
1.99388e-10
1.86715e-10
1.69796e-10
1.50574e-10
1.30537e-10
1.10756e-10
9.19725e-11
7.46727e-11
5.91548e-11
4.55735e-11
3.3972e-11
2.43072e-11
1.647e-11
1.03045e-11
5.59623e-12
2.17716e-12
-1.64023e-13
-1.65141e-12
-2.48189e-12
-2.82842e-12
-2.83658e-12
-2.62491e-12
-2.28638e-12
-1.89082e-12
-1.48802e-12
-1.1111e-12
-7.79803e-13
-5.0371e-13
-2.8501e-13
-1.20895e-13
-5.50074e-15
6.86075e-14
1.09354e-13
1.2443e-13
1.2087e-13
1.0484e-13
8.1587e-14
5.54582e-14
2.99538e-14
7.75415e-15
-9.28822e-15
-2.0186e-14
-2.48454e-14
-2.40322e-14
-1.92242e-14
-1.23268e-14
-5.28036e-15
3.54495e-16
3.71354e-15
4.73658e-15
4.02262e-15
2.48994e-15
9.84835e-16
3.83764e-18
-3.70425e-16
-3.37068e-16
-1.64275e-16
-2.95852e-17
2.04469e-17
1.81888e-17
5.30422e-18
-5.52112e-19
-8.63243e-19
-1.88761e-13
-3.01683e-13
-2.05463e-13
1.9748e-13
9.34381e-13
1.77294e-12
2.15362e-12
1.30806e-12
-1.36051e-12
-5.70968e-12
-1.03668e-11
-1.26981e-11
-9.54551e-12
1.28902e-12
1.92977e-11
4.01215e-11
5.58635e-11
5.72231e-11
3.69731e-11
-6.49083e-12
-6.70876e-11
-1.31593e-10
-1.82874e-10
-2.04756e-10
-1.86767e-10
-1.2706e-10
-3.26118e-11
8.31249e-11
2.0404e-10
3.15251e-10
4.05885e-10
4.70234e-10
5.074e-10
5.19981e-10
5.12481e-10
4.89927e-10
4.5697e-10
4.17469e-10
3.74423e-10
3.30091e-10
2.86157e-10
2.43884e-10
2.04205e-10
1.67791e-10
1.35077e-10
1.06298e-10
8.15104e-11
6.06207e-11
4.34197e-11
2.96134e-11
1.87867e-11
1.06252e-11
4.73395e-12
6.79046e-13
-1.92436e-12
-3.42001e-12
-4.10248e-12
-4.21704e-12
-3.96117e-12
-3.48833e-12
-2.91296e-12
-2.31624e-12
-1.752e-12
-1.25248e-12
-8.33579e-13
-4.99448e-13
-2.46368e-13
-6.58308e-14
5.31073e-14
1.22137e-13
1.52581e-13
1.54743e-13
1.37613e-13
1.08809e-13
7.46542e-14
4.02812e-14
9.70168e-15
-1.42026e-14
-2.97558e-14
-3.65732e-14
-3.55613e-14
-2.87391e-14
-1.88312e-14
-8.66989e-15
-5.44899e-16
4.29495e-15
5.80448e-15
4.90154e-15
2.92852e-15
1.06109e-15
-7.41467e-17
-4.38937e-16
-3.44331e-16
-1.37231e-16
-7.12657e-18
2.52895e-17
1.3877e-17
1.83099e-18
-1.3623e-18
-3.89521e-13
-8.92554e-14
6.69105e-13
1.79729e-12
2.76365e-12
2.57898e-12
1.4309e-13
-5.01586e-12
-1.18384e-11
-1.7202e-11
-1.63952e-11
-4.93702e-12
1.861e-11
5.00008e-11
7.84467e-11
8.87697e-11
6.65795e-11
4.87295e-12
-9.06847e-11
-2.00469e-10
-2.94821e-10
-3.42195e-10
-3.18633e-10
-2.15015e-10
-3.95148e-11
1.85299e-10
4.29204e-10
6.6217e-10
8.60663e-10
1.01086e-09
1.10862e-09
1.15723e-09
1.16423e-09
1.13859e-09
1.08883e-09
1.02205e-09
9.43902e-10
8.5876e-10
7.70096e-10
6.8074e-10
5.93038e-10
5.08922e-10
4.29927e-10
3.57205e-10
2.91532e-10
2.33342e-10
1.82759e-10
1.39645e-10
1.0365e-10
7.42715e-11
5.07517e-11
3.2536e-11
1.89156e-11
9.07954e-12
2.29998e-12
-2.084e-12
-4.64868e-12
-5.88321e-12
-6.19031e-12
-5.89132e-12
-5.23401e-12
-4.40194e-12
-3.52465e-12
-2.68781e-12
-1.94277e-12
-1.31513e-12
-8.12145e-13
-4.28843e-13
-1.52866e-13
3.18687e-14
1.42566e-13
1.95848e-13
2.06775e-13
1.88417e-13
1.5181e-13
1.06109e-13
5.87978e-14
1.58275e-14
-1.83926e-14
-4.11348e-14
-5.1537e-14
-5.06726e-14
-4.13366e-14
-2.74527e-14
-1.31557e-14
-1.77812e-15
4.91857e-15
6.9659e-15
5.77184e-15
3.26734e-15
1.03164e-15
-2.01156e-16
-4.99525e-16
-3.2469e-16
-9.54896e-17
1.40041e-17
2.45828e-17
7.85015e-18
-1.16065e-18
-3.49103e-14
1.40619e-12
2.93467e-12
3.80463e-12
2.46014e-12
-2.4824e-12
-1.09889e-11
-2.03223e-11
-2.46751e-11
-1.66644e-11
9.06365e-12
5.11545e-11
9.80891e-11
1.2861e-10
1.17539e-10
4.60003e-11
-8.76348e-11
-2.61152e-10
-4.30231e-10
-5.39199e-10
-5.37387e-10
-3.94983e-10
-1.12304e-10
2.80732e-10
7.34043e-10
1.19149e-09
1.60428e-09
1.93956e-09
2.18268e-09
2.33433e-09
2.40492e-09
2.409e-09
2.36106e-09
2.27355e-09
2.15635e-09
2.01722e-09
1.86251e-09
1.69771e-09
1.52771e-09
1.35691e-09
1.18923e-09
1.028e-09
8.75957e-10
7.35216e-10
6.07256e-10
4.92966e-10
3.92694e-10
3.06315e-10
2.33314e-10
1.72878e-10
1.23673e-10
8.47522e-11
5.488e-11
3.25752e-11
1.64936e-11
5.39444e-12
-1.82164e-12
-6.10394e-12
-8.2491e-12
-8.90692e-12
-8.59157e-12
-7.6966e-12
-6.51184e-12
-5.24084e-12
-4.01784e-12
-2.92333e-12
-1.99784e-12
-1.2536e-12
-6.84106e-13
-2.71602e-13
7.31622e-15
1.77733e-13
2.63837e-13
2.87458e-13
2.67454e-13
2.19686e-13
1.57306e-13
9.11373e-14
2.99165e-14
-1.97064e-14
-5.34219e-14
-6.96182e-14
-6.95778e-14
-5.72218e-14
-3.82299e-14
-1.86213e-14
-3.18429e-15
5.678e-15
8.20705e-15
6.55224e-15
3.42909e-15
8.66951e-16
-3.65394e-16
-5.32321e-16
-2.7284e-16
-4.60302e-17
2.74973e-17
1.81647e-17
1.27513e-18
1.87442e-12
4.36733e-12
4.77713e-12
1.54697e-12
-6.93484e-12
-1.95922e-11
-3.10359e-11
-3.16716e-11
-1.09316e-11
3.6425e-11
1.03156e-10
1.65569e-10
1.86827e-10
1.29058e-10
-2.86881e-11
-2.73824e-10
-5.53414e-10
-7.82608e-10
-8.67252e-10
-7.3286e-10
-3.48701e-10
2.62372e-10
1.03154e-09
1.86492e-09
2.66886e-09
3.3704e-09
3.92729e-09
4.32715e-09
4.57934e-09
4.7045e-09
4.72586e-09
4.66405e-09
4.53552e-09
4.35294e-09
4.12662e-09
3.86562e-09
3.57852e-09
3.27364e-09
2.95899e-09
2.64208e-09
2.32976e-09
2.028e-09
1.74184e-09
1.47524e-09
1.23113e-09
1.01139e-09
8.16941e-10
6.47824e-10
5.03358e-10
3.82296e-10
2.82337e-10
2.0191e-10
1.38905e-10
9.06679e-11
5.47635e-11
2.89081e-11
1.10484e-11
-6.16511e-13
-7.62345e-12
-1.12494e-11
-1.25268e-11
-1.2266e-11
-1.10833e-11
-9.4297e-12
-7.6206e-12
-5.86342e-12
-4.28261e-12
-2.9414e-12
-1.85995e-12
-1.03007e-12
-4.26644e-13
-1.60599e-14
2.37791e-13
3.69686e-13
4.109e-13
3.88337e-13
3.24539e-13
2.38201e-13
1.44806e-13
5.70449e-14
-1.51943e-14
-6.52683e-14
-9.0435e-14
-9.22706e-14
-7.63552e-14
-5.0936e-14
-2.47201e-14
-4.46401e-15
6.70266e-15
9.4875e-15
7.13112e-15
3.33657e-15
5.61189e-16
-5.34774e-16
-5.15501e-16
-1.92187e-16
-9.40536e-19
2.90138e-17
8.17419e-18
5.47624e-12
5.70471e-12
-3.21994e-13
-1.34557e-11
-3.10409e-11
-4.38419e-11
-3.7179e-11
3.19222e-12
8.09085e-11
1.78611e-10
2.53964e-10
2.48092e-10
1.07616e-10
-1.86042e-10
-5.927e-10
-1.00824e-09
-1.28506e-09
-1.27371e-09
-8.70401e-10
-5.15885e-11
1.11821e-09
2.50717e-09
3.95541e-09
5.31647e-09
6.4864e-09
7.41362e-09
8.09181e-09
8.54329e-09
8.80187e-09
8.9005e-09
8.86572e-09
8.71714e-09
8.46964e-09
8.13593e-09
7.72841e-09
7.25993e-09
6.74399e-09
6.19437e-09
5.62477e-09
5.04831e-09
4.47716e-09
3.92221e-09
3.39276e-09
2.89639e-09
2.43882e-09
2.02396e-09
1.65396e-09
1.32941e-09
1.04955e-09
8.1255e-10
6.14514e-10
4.52896e-10
3.24166e-10
2.23647e-10
1.47004e-10
9.01074e-11
4.91941e-11
2.09159e-11
2.3729e-12
-8.88392e-12
-1.48706e-11
-1.72032e-11
-1.7141e-11
-1.5635e-11
-1.33776e-11
-1.08508e-11
-8.37068e-12
-6.12713e-12
-4.2174e-12
-2.67409e-12
-1.48744e-12
-6.22513e-13
-3.17732e-14
3.3603e-13
5.30211e-13
5.94985e-13
5.68222e-13
4.81549e-13
3.6121e-13
2.29096e-13
1.03427e-13
-1.28839e-15
-7.50304e-14
-1.13425e-13
-1.18524e-13
-9.83881e-14
-6.50027e-14
-3.08361e-14
-5.19104e-15
8.11848e-15
1.07119e-14
7.3694e-15
2.93476e-15
1.47686e-16
-6.59625e-16
-4.3572e-16
-9.85493e-17
2.66786e-17
2.10744e-17
7.37491e-12
-3.10871e-12
-2.21549e-11
-4.55238e-11
-5.88237e-11
-4.06851e-11
2.74614e-11
1.45834e-10
2.81612e-10
3.65487e-10
3.0814e-10
3.71132e-11
-4.57497e-10
-1.08928e-09
-1.67428e-09
-1.97084e-09
-1.75017e-09
-8.70925e-10
6.72566e-10
2.74789e-09
5.12695e-09
7.55322e-09
9.80625e-09
1.17414e-08
1.32976e-08
1.44785e-08
1.53243e-08
1.58845e-08
1.62016e-08
1.63061e-08
1.62182e-08
1.59525e-08
1.55227e-08
1.49441e-08
1.42345e-08
1.34142e-08
1.25056e-08
1.15322e-08
1.05175e-08
9.48476e-09
8.45579e-09
7.45032e-09
6.48552e-09
5.5756e-09
4.73158e-09
3.96127e-09
3.26939e-09
2.65785e-09
2.12608e-09
1.67158e-09
1.28788e-09
9.70932e-10
7.14952e-10
5.11835e-10
3.53981e-10
2.34052e-10
1.45269e-10
8.15222e-11
3.74465e-11
8.44565e-12
-9.32332e-12
-1.89958e-11
-2.30651e-11
-2.34601e-11
-2.16283e-11
-1.86178e-11
-1.51553e-11
-1.17163e-11
-8.58634e-12
-5.91319e-12
-3.74859e-12
-2.08182e-12
-8.65147e-13
-3.23896e-14
4.8814e-13
7.65383e-13
8.60965e-13
8.27456e-13
7.08624e-13
5.40825e-13
3.54649e-13
1.75961e-13
2.57808e-14
-8.10825e-14
-1.38008e-13
-1.4791e-13
-1.22599e-13
-7.94583e-14
-3.60828e-14
-4.87154e-15
9.97955e-15
1.17033e-14
7.12126e-15
2.22263e-15
-2.9309e-16
-6.87419e-16
-3.00709e-16
-1.77146e-17
3.70761e-17
-1.69754e-12
-3.32407e-11
-6.32612e-11
-7.65078e-11
-4.25944e-11
6.25049e-11
2.33835e-10
4.16823e-10
5.04639e-10
3.66185e-10
-9.57406e-11
-8.75136e-10
-1.81506e-09
-2.61258e-09
-2.88749e-09
-2.29565e-09
-6.43109e-10
2.04636e-09
5.53832e-09
9.46303e-09
1.34244e-08
1.70975e-08
2.02827e-08
2.29071e-08
2.49898e-08
2.65936e-08
2.77855e-08
2.86159e-08
2.91139e-08
2.92942e-08
2.91653e-08
2.8737e-08
2.80243e-08
2.70487e-08
2.58382e-08
2.44261e-08
2.28498e-08
2.11495e-08
1.93664e-08
1.75411e-08
1.57126e-08
1.39161e-08
1.21829e-08
1.05392e-08
9.00579e-09
7.59774e-09
6.32489e-09
5.192e-09
4.19948e-09
3.34422e-09
2.61561e-09
2.00744e-09
1.5104e-09
1.11066e-09
7.95116e-10
5.50928e-10
3.66085e-10
2.29623e-10
1.31798e-10
6.41522e-11
1.95137e-11
-8.05746e-12
-2.33665e-11
-3.02054e-11
-3.14876e-11
-2.93859e-11
-2.54657e-11
-2.08082e-11
-1.61189e-11
-1.18224e-11
-8.13978e-12
-5.15184e-12
-2.84839e-12
-1.16541e-12
-1.21549e-14
7.10232e-13
1.09679e-12
1.23224e-12
1.18854e-12
1.02545e-12
7.92707e-13
5.32573e-13
2.81405e-13
6.92953e-14
-8.22896e-14
-1.63809e-13
-1.79818e-13
-1.47824e-13
-9.28979e-14
-3.93686e-14
-3.06384e-15
1.21815e-14
1.21985e-14
6.28123e-15
1.28518e-15
-6.44783e-16
-5.89095e-16
-1.45514e-16
4.22346e-17
-3.46924e-11
-8.55585e-11
-9.79446e-11
-4.46252e-11
1.07246e-10
3.46418e-10
5.89784e-10
6.79936e-10
4.28336e-10
-2.96951e-10
-1.46796e-09
-2.82772e-09
-3.90223e-09
-4.10955e-09
-2.93482e-09
-1.02879e-10
4.32485e-09
9.96985e-09
1.62598e-08
2.25985e-08
2.85121e-08
3.37226e-08
3.81418e-08
4.18091e-08
4.48162e-08
4.72494e-08
4.91611e-08
5.05696e-08
5.14714e-08
5.18563e-08
5.17192e-08
5.1066e-08
4.99158e-08
4.83013e-08
4.62672e-08
4.38686e-08
4.11689e-08
3.82365e-08
3.51427e-08
3.19583e-08
2.87512e-08
2.55843e-08
2.25133e-08
1.95856e-08
1.68395e-08
1.43038e-08
1.19978e-08
9.93241e-09
8.11054e-09
6.52901e-09
5.17082e-09
4.02663e-09
3.08186e-09
2.31323e-09
1.69851e-09
1.21554e-09
8.43382e-10
5.6268e-10
3.56029e-10
2.08139e-10
1.05887e-10
3.82524e-11
-3.8114e-12
-2.75633e-11
-3.86896e-11
-4.15303e-11
-3.93039e-11
-3.43174e-11
-2.81583e-11
-2.18609e-11
-1.60476e-11
-1.10455e-11
-6.97861e-12
-3.83995e-12
-1.54521e-12
2.8373e-14
1.01529e-12
1.5449e-12
1.73214e-12
1.67428e-12
1.45186e-12
1.13216e-12
7.73038e-13
4.25146e-13
1.31099e-13
-7.85911e-14
-1.90876e-13
-2.13428e-13
-1.72387e-13
-1.03517e-13
-3.95559e-14
4.45103e-16
1.43878e-14
1.1892e-14
4.85428e-15
3.05303e-16
-7.942e-16
-3.8583e-16
4.12739e-18
-9.65148e-11
-1.2694e-10
-4.9898e-11
1.58195e-10
4.83131e-10
8.06653e-10
9.05272e-10
5.1142e-10
-5.5919e-10
-2.2556e-09
-4.18826e-09
-5.6454e-09
-5.75477e-09
-3.74559e-09
7.92009e-10
7.76199e-09
1.65943e-08
2.64341e-08
3.64e-08
4.58027e-08
5.42505e-08
6.16305e-08
6.80096e-08
7.35172e-08
7.82596e-08
8.22831e-08
8.55772e-08
8.8098e-08
8.9793e-08
9.06194e-08
9.05543e-08
8.9599e-08
8.77797e-08
8.51469e-08
8.17729e-08
7.77491e-08
7.31816e-08
6.81864e-08
6.28848e-08
5.73987e-08
5.18455e-08
4.63348e-08
4.09647e-08
3.58199e-08
3.09697e-08
2.64673e-08
2.23502e-08
1.8641e-08
1.53487e-08
1.24715e-08
9.9826e-09
7.86865e-09
6.10722e-09
4.65978e-09
3.48908e-09
2.55751e-09
1.82907e-09
1.27011e-09
8.50023e-10
5.41633e-10
3.21341e-10
1.69092e-10
6.82051e-11
5.1007e-12
-3.10325e-11
-4.86048e-11
-5.39951e-11
-5.19076e-11
-4.56994e-11
-3.76719e-11
-2.93218e-11
-2.15511e-11
-1.48367e-11
-9.36578e-12
-5.13882e-12
-2.04638e-12
7.55786e-14
1.40802e-12
2.12499e-12
2.38069e-12
2.30505e-12
2.00545e-12
1.57202e-12
1.08336e-12
6.0961e-13
2.10472e-13
-7.15803e-14
-2.19791e-13
-2.476e-13
-1.94037e-13
-1.09256e-13
-3.57325e-14
5.44175e-15
1.6022e-14
1.05446e-14
3.02324e-15
-4.70827e-16
-6.91278e-16
-1.28886e-16
-1.61079e-10
-6.57992e-11
2.09091e-10
6.40131e-10
1.0729e-09
1.20016e-09
6.46498e-10
-8.54244e-10
-3.23825e-09
-5.95313e-09
-7.96851e-09
-8.001e-09
-4.8951e-09
1.98909e-09
1.25498e-08
2.59797e-08
4.10405e-08
5.64475e-08
7.1198e-08
8.4729e-08
9.68875e-08
1.07776e-07
1.17577e-07
1.26419e-07
1.34331e-07
1.41246e-07
1.47043e-07
1.51585e-07
1.54751e-07
1.56452e-07
1.56636e-07
1.55297e-07
1.52471e-07
1.48236e-07
1.4271e-07
1.36042e-07
1.28408e-07
1.20001e-07
1.11027e-07
1.01691e-07
9.21939e-08
8.27245e-08
7.34534e-08
6.45291e-08
5.60751e-08
4.81883e-08
4.0939e-08
3.43721e-08
2.85097e-08
2.3355e-08
1.88667e-08
1.50261e-08
1.18e-08
9.12548e-09
6.94098e-09
5.1836e-09
3.79228e-09
2.70936e-09
1.88184e-09
1.26217e-09
8.08586e-10
4.85232e-10
2.61924e-10
1.13778e-10
2.06991e-11
-3.31947e-11
-6.01756e-11
-6.94969e-11
-6.79466e-11
-6.03475e-11
-4.9995e-11
-3.9028e-11
-2.8736e-11
-1.98055e-11
-1.25129e-11
-6.87199e-12
-2.74202e-12
9.43385e-14
1.8784e-12
2.8422e-12
3.19058e-12
3.09542e-12
2.69857e-12
2.1199e-12
1.46568e-12
8.32458e-13
3.03024e-13
-6.48923e-14
-2.51555e-13
-2.80643e-13
-2.0996e-13
-1.08104e-13
-2.75721e-14
1.11445e-14
1.63805e-14
8.1414e-15
1.1638e-15
-8.26984e-16
-4.06185e-16
-1.43894e-10
2.50156e-10
8.08675e-10
1.39044e-09
1.58791e-09
8.80819e-10
-1.12478e-09
-4.38238e-09
-8.15847e-09
-1.10143e-08
-1.10979e-08
-6.68021e-09
3.26996e-09
1.8724e-08
3.86085e-08
6.11829e-08
8.45993e-08
1.07397e-07
1.28752e-07
1.4844e-07
1.66614e-07
1.83532e-07
1.99359e-07
2.14091e-07
2.27567e-07
2.39532e-07
2.497e-07
2.57802e-07
2.63612e-07
2.66965e-07
2.67763e-07
2.65984e-07
2.61676e-07
2.5496e-07
2.46024e-07
2.35108e-07
2.22501e-07
2.08522e-07
1.93511e-07
1.77813e-07
1.61766e-07
1.45691e-07
1.29881e-07
1.14593e-07
1.00044e-07
8.64068e-08
7.38107e-08
6.23423e-08
5.20492e-08
4.29471e-08
3.49738e-08
2.81055e-08
2.22937e-08
1.74373e-08
1.34363e-08
1.01867e-08
7.58636e-09
5.53792e-09
3.95085e-09
2.74312e-09
1.84203e-09
1.18448e-09
7.16769e-10
3.94157e-10
1.80045e-10
4.51072e-11
-3.36733e-11
-7.39703e-11
-8.90338e-11
-8.85353e-11
-7.93169e-11
-6.60373e-11
-5.17139e-11
-3.8165e-11
-2.63626e-11
-1.67058e-11
-9.22803e-12
-3.74872e-12
1.89364e-14
2.39482e-12
3.68608e-12
4.16277e-12
4.0504e-12
3.53503e-12
2.7753e-12
1.91448e-12
1.08486e-12
3.99896e-13
-6.41566e-14
-2.87135e-13
-3.10031e-13
-2.16964e-13
-9.85926e-14
-1.57003e-14
1.62281e-14
1.48873e-14
5.03141e-15
-2.45049e-16
-8.09252e-16
1.11724e-10
9.8275e-10
1.75307e-09
2.09059e-09
1.27625e-09
-1.27759e-09
-5.60273e-09
-1.0794e-08
-1.49189e-08
-1.5364e-08
-9.56246e-09
4.16669e-09
2.60339e-08
5.47182e-08
8.7852e-08
1.22816e-07
1.57482e-07
1.90622e-07
2.21889e-07
2.51501e-07
2.79834e-07
3.07122e-07
3.33321e-07
3.5813e-07
3.81081e-07
4.0164e-07
4.19277e-07
4.33521e-07
4.43979e-07
4.50361e-07
4.52489e-07
4.50305e-07
4.43876e-07
4.33382e-07
4.19117e-07
4.01466e-07
3.80892e-07
3.57918e-07
3.33101e-07
3.07011e-07
2.80214e-07
2.53247e-07
2.26606e-07
2.00731e-07
1.75998e-07
1.52711e-07
1.31102e-07
1.11334e-07
9.35017e-08
7.76501e-08
6.36869e-08
5.15847e-08
4.12758e-08
3.26e-08
2.53968e-08
1.94967e-08
1.47313e-08
1.0938e-08
7.96453e-09
5.6713e-09
3.93351e-09
2.6418e-09
1.70224e-09
1.03569e-09
5.76719e-10
2.72266e-10
8.01072e-11
-3.2678e-11
-9.12136e-11
-1.14233e-10
-1.1534e-10
-1.04119e-10
-8.70707e-11
-6.83917e-11
-5.06077e-11
-3.50697e-11
-2.23386e-11
-1.24726e-11
-5.23755e-12
-2.54882e-13
2.89807e-12
4.62591e-12
5.28248e-12
5.16184e-12
4.50674e-12
3.52662e-12
2.41431e-12
1.35024e-12
4.8767e-13
-7.62959e-14
-3.26679e-13
-3.32176e-13
-2.11918e-13
-8.04169e-14
-1.90781e-15
1.91022e-14
1.14335e-14
1.9422e-15
-1.12531e-15
8.07619e-10
2.17224e-09
2.71805e-09
1.90186e-09
-1.18196e-09
-6.74412e-09
-1.37668e-08
-1.97672e-08
-2.11564e-08
-1.41809e-08
3.88143e-09
3.37856e-08
7.40795e-08
1.21669e-07
1.72907e-07
2.24706e-07
2.7521e-07
3.23851e-07
3.70927e-07
4.17009e-07
4.62464e-07
5.07229e-07
5.50816e-07
5.92445e-07
6.31195e-07
6.66116e-07
6.96313e-07
7.20989e-07
7.39481e-07
7.51289e-07
7.56095e-07
7.53777e-07
7.44411e-07
7.28266e-07
7.0579e-07
6.77592e-07
6.44411e-07
6.07086e-07
5.66522e-07
5.23653e-07
4.7941e-07
4.34687e-07