# vtk DataFile Version 3.0
Malha 2D com triângulos e temperatura
ASCII
DATASET UNSTRUCTURED_GRID

POINTS 10000 double
0 0 0
10 0 0
10 10 0
0 10 0
0.10101 0 0
0.20202 0 0
0.30303 0 0
0.40404 0 0
0.505051 0 0
0.606061 0 0
0.707071 0 0
0.808081 0 0
0.909091 0 0
1.0101 0 0
1.11111 0 0
1.21212 0 0
1.31313 0 0
1.41414 0 0
1.51515 0 0
1.61616 0 0
1.71717 0 0
1.81818 0 0
1.91919 0 0
2.0202 0 0
2.12121 0 0
2.22222 0 0
2.32323 0 0
2.42424 0 0
2.52525 0 0
2.62626 0 0
2.72727 0 0
2.82828 0 0
2.92929 0 0
3.0303 0 0
3.13131 0 0
3.23232 0 0
3.33333 0 0
3.43434 0 0
3.53535 0 0
3.63636 0 0
3.73737 0 0
3.83838 0 0
3.93939 0 0
4.0404 0 0
4.14141 0 0
4.24242 0 0
4.34343 0 0
4.44444 0 0
4.54545 0 0
4.64646 0 0
4.74747 0 0
4.84848 0 0
4.94949 0 0
5.05051 0 0
5.15152 0 0
5.25253 0 0
5.35354 0 0
5.45455 0 0
5.55556 0 0
5.65657 0 0
5.75758 0 0
5.85859 0 0
5.9596 0 0
6.06061 0 0
6.16162 0 0
6.26263 0 0
6.36364 0 0
6.46465 0 0
6.56566 0 0
6.66667 0 0
6.76768 0 0
6.86869 0 0
6.9697 0 0
7.07071 0 0
7.17172 0 0
7.27273 0 0
7.37374 0 0
7.47475 0 0
7.57576 0 0
7.67677 0 0
7.77778 0 0
7.87879 0 0
7.9798 0 0
8.08081 0 0
8.18182 0 0
8.28283 0 0
8.38384 0 0
8.48485 0 0
8.58586 0 0
8.68687 0 0
8.78788 0 0
8.88889 0 0
8.9899 0 0
9.09091 0 0
9.19192 0 0
9.29293 0 0
9.39394 0 0
9.49495 0 0
9.59596 0 0
9.69697 0 0
9.79798 0 0
9.89899 0 0
10 0.10101 0
10 0.20202 0
10 0.30303 0
10 0.40404 0
10 0.505051 0
10 0.606061 0
10 0.707071 0
10 0.808081 0
10 0.909091 0
10 1.0101 0
10 1.11111 0
10 1.21212 0
10 1.31313 0
10 1.41414 0
10 1.51515 0
10 1.61616 0
10 1.71717 0
10 1.81818 0
10 1.91919 0
10 2.0202 0
10 2.12121 0
10 2.22222 0
10 2.32323 0
10 2.42424 0
10 2.52525 0
10 2.62626 0
10 2.72727 0
10 2.82828 0
10 2.92929 0
10 3.0303 0
10 3.13131 0
10 3.23232 0
10 3.33333 0
10 3.43434 0
10 3.53535 0
10 3.63636 0
10 3.73737 0
10 3.83838 0
10 3.93939 0
10 4.0404 0
10 4.14141 0
10 4.24242 0
10 4.34343 0
10 4.44444 0
10 4.54545 0
10 4.64646 0
10 4.74747 0
10 4.84848 0
10 4.94949 0
10 5.05051 0
10 5.15152 0
10 5.25253 0
10 5.35354 0
10 5.45455 0
10 5.55556 0
10 5.65657 0
10 5.75758 0
10 5.85859 0
10 5.9596 0
10 6.06061 0
10 6.16162 0
10 6.26263 0
10 6.36364 0
10 6.46465 0
10 6.56566 0
10 6.66667 0
10 6.76768 0
10 6.86869 0
10 6.9697 0
10 7.07071 0
10 7.17172 0
10 7.27273 0
10 7.37374 0
10 7.47475 0
10 7.57576 0
10 7.67677 0
10 7.77778 0
10 7.87879 0
10 7.9798 0
10 8.08081 0
10 8.18182 0
10 8.28283 0
10 8.38384 0
10 8.48485 0
10 8.58586 0
10 8.68687 0
10 8.78788 0
10 8.88889 0
10 8.9899 0
10 9.09091 0
10 9.19192 0
10 9.29293 0
10 9.39394 0
10 9.49495 0
10 9.59596 0
10 9.69697 0
10 9.79798 0
10 9.89899 0
9.89899 10 0
9.79798 10 0
9.69697 10 0
9.59596 10 0
9.49495 10 0
9.39394 10 0
9.29293 10 0
9.19192 10 0
9.09091 10 0
8.9899 10 0
8.88889 10 0
8.78788 10 0
8.68687 10 0
8.58586 10 0
8.48485 10 0
8.38384 10 0
8.28283 10 0
8.18182 10 0
8.08081 10 0
7.9798 10 0
7.87879 10 0
7.77778 10 0
7.67677 10 0
7.57576 10 0
7.47475 10 0
7.37374 10 0
7.27273 10 0
7.17172 10 0
7.07071 10 0
6.9697 10 0
6.86869 10 0
6.76768 10 0
6.66667 10 0
6.56566 10 0
6.46465 10 0
6.36364 10 0
6.26263 10 0
6.16162 10 0
6.06061 10 0
5.9596 10 0
5.85859 10 0
5.75758 10 0
5.65657 10 0
5.55556 10 0
5.45455 10 0
5.35354 10 0
5.25253 10 0
5.15152 10 0
5.05051 10 0
4.94949 10 0
4.84848 10 0
4.74747 10 0
4.64646 10 0
4.54545 10 0
4.44444 10 0
4.34343 10 0
4.24242 10 0
4.14141 10 0
4.0404 10 0
3.93939 10 0
3.83838 10 0
3.73737 10 0
3.63636 10 0
3.53535 10 0
3.43434 10 0
3.33333 10 0
3.23232 10 0
3.13131 10 0
3.0303 10 0
2.92929 10 0
2.82828 10 0
2.72727 10 0
2.62626 10 0
2.52525 10 0
2.42424 10 0
2.32323 10 0
2.22222 10 0
2.12121 10 0
2.0202 10 0
1.91919 10 0
1.81818 10 0
1.71717 10 0
1.61616 10 0
1.51515 10 0
1.41414 10 0
1.31313 10 0
1.21212 10 0
1.11111 10 0
1.0101 10 0
0.909091 10 0
0.808081 10 0
0.707071 10 0
0.606061 10 0
0.505051 10 0
0.40404 10 0
0.30303 10 0
0.20202 10 0
0.10101 10 0
0 9.89899 0
0 9.79798 0
0 9.69697 0
0 9.59596 0
0 9.49495 0
0 9.39394 0
0 9.29293 0
0 9.19192 0
0 9.09091 0
0 8.9899 0
0 8.88889 0
0 8.78788 0
0 8.68687 0
0 8.58586 0
0 8.48485 0
0 8.38384 0
0 8.28283 0
0 8.18182 0
0 8.08081 0
0 7.9798 0
0 7.87879 0
0 7.77778 0
0 7.67677 0
0 7.57576 0
0 7.47475 0
0 7.37374 0
0 7.27273 0
0 7.17172 0
0 7.07071 0
0 6.9697 0
0 6.86869 0
0 6.76768 0
0 6.66667 0
0 6.56566 0
0 6.46465 0
0 6.36364 0
0 6.26263 0
0 6.16162 0
0 6.06061 0
0 5.9596 0
0 5.85859 0
0 5.75758 0
0 5.65657 0
0 5.55556 0
0 5.45455 0
0 5.35354 0
0 5.25253 0
0 5.15152 0
0 5.05051 0
0 4.94949 0
0 4.84848 0
0 4.74747 0
0 4.64646 0
0 4.54545 0
0 4.44444 0
0 4.34343 0
0 4.24242 0
0 4.14141 0
0 4.0404 0
0 3.93939 0
0 3.83838 0
0 3.73737 0
0 3.63636 0
0 3.53535 0
0 3.43434 0
0 3.33333 0
0 3.23232 0
0 3.13131 0
0 3.0303 0
0 2.92929 0
0 2.82828 0
0 2.72727 0
0 2.62626 0
0 2.52525 0
0 2.42424 0
0 2.32323 0
0 2.22222 0
0 2.12121 0
0 2.0202 0
0 1.91919 0
0 1.81818 0
0 1.71717 0
0 1.61616 0
0 1.51515 0
0 1.41414 0
0 1.31313 0
0 1.21212 0
0 1.11111 0
0 1.0101 0
0 0.909091 0
0 0.808081 0
0 0.707071 0
0 0.606061 0
0 0.505051 0
0 0.40404 0
0 0.30303 0
0 0.20202 0
0 0.10101 0
0.10101 0.10101 0
0.10101 0.20202 0
0.10101 0.30303 0
0.10101 0.40404 0
0.10101 0.505051 0
0.10101 0.606061 0
0.10101 0.707071 0
0.10101 0.808081 0
0.10101 0.909091 0
0.10101 1.0101 0
0.10101 1.11111 0
0.10101 1.21212 0
0.10101 1.31313 0
0.10101 1.41414 0
0.10101 1.51515 0
0.10101 1.61616 0
0.10101 1.71717 0
0.10101 1.81818 0
0.10101 1.91919 0
0.10101 2.0202 0
0.10101 2.12121 0
0.10101 2.22222 0
0.10101 2.32323 0
0.10101 2.42424 0
0.10101 2.52525 0
0.10101 2.62626 0
0.10101 2.72727 0
0.10101 2.82828 0
0.10101 2.92929 0
0.10101 3.0303 0
0.10101 3.13131 0
0.10101 3.23232 0
0.10101 3.33333 0
0.10101 3.43434 0
0.10101 3.53535 0
0.10101 3.63636 0
0.10101 3.73737 0
0.10101 3.83838 0
0.10101 3.93939 0
0.10101 4.0404 0
0.10101 4.14141 0
0.10101 4.24242 0
0.10101 4.34343 0
0.10101 4.44444 0
0.10101 4.54545 0
0.10101 4.64646 0
0.10101 4.74747 0
0.10101 4.84848 0
0.10101 4.94949 0
0.10101 5.05051 0
0.10101 5.15152 0
0.10101 5.25253 0
0.10101 5.35354 0
0.10101 5.45455 0
0.10101 5.55556 0
0.10101 5.65657 0
0.10101 5.75758 0
0.10101 5.85859 0
0.10101 5.9596 0
0.10101 6.06061 0
0.10101 6.16162 0
0.10101 6.26263 0
0.10101 6.36364 0
0.10101 6.46465 0
0.10101 6.56566 0
0.10101 6.66667 0
0.10101 6.76768 0
0.10101 6.86869 0
0.10101 6.9697 0
0.10101 7.07071 0
0.10101 7.17172 0
0.10101 7.27273 0
0.10101 7.37374 0
0.10101 7.47475 0
0.10101 7.57576 0
0.10101 7.67677 0
0.10101 7.77778 0
0.10101 7.87879 0
0.10101 7.9798 0
0.10101 8.08081 0
0.10101 8.18182 0
0.10101 8.28283 0
0.10101 8.38384 0
0.10101 8.48485 0
0.10101 8.58586 0
0.10101 8.68687 0
0.10101 8.78788 0
0.10101 8.88889 0
0.10101 8.9899 0
0.10101 9.09091 0
0.10101 9.19192 0
0.10101 9.29293 0
0.10101 9.39394 0
0.10101 9.49495 0
0.10101 9.59596 0
0.10101 9.69697 0
0.10101 9.79798 0
0.10101 9.89899 0
0.20202 0.10101 0
0.20202 0.20202 0
0.20202 0.30303 0
0.20202 0.40404 0
0.20202 0.505051 0
0.20202 0.606061 0
0.20202 0.707071 0
0.20202 0.808081 0
0.20202 0.909091 0
0.20202 1.0101 0
0.20202 1.11111 0
0.20202 1.21212 0
0.20202 1.31313 0
0.20202 1.41414 0
0.20202 1.51515 0
0.20202 1.61616 0
0.20202 1.71717 0
0.20202 1.81818 0
0.20202 1.91919 0
0.20202 2.0202 0
0.20202 2.12121 0
0.20202 2.22222 0
0.20202 2.32323 0
0.20202 2.42424 0
0.20202 2.52525 0
0.20202 2.62626 0
0.20202 2.72727 0
0.20202 2.82828 0
0.20202 2.92929 0
0.20202 3.0303 0
0.20202 3.13131 0
0.20202 3.23232 0
0.20202 3.33333 0
0.20202 3.43434 0
0.20202 3.53535 0
0.20202 3.63636 0
0.20202 3.73737 0
0.20202 3.83838 0
0.20202 3.93939 0
0.20202 4.0404 0
0.20202 4.14141 0
0.20202 4.24242 0
0.20202 4.34343 0
0.20202 4.44444 0
0.20202 4.54545 0
0.20202 4.64646 0
0.20202 4.74747 0
0.20202 4.84848 0
0.20202 4.94949 0
0.20202 5.05051 0
0.20202 5.15152 0
0.20202 5.25253 0
0.20202 5.35354 0
0.20202 5.45455 0
0.20202 5.55556 0
0.20202 5.65657 0
0.20202 5.75758 0
0.20202 5.85859 0
0.20202 5.9596 0
0.20202 6.06061 0
0.20202 6.16162 0
0.20202 6.26263 0
0.20202 6.36364 0
0.20202 6.46465 0
0.20202 6.56566 0
0.20202 6.66667 0
0.20202 6.76768 0
0.20202 6.86869 0
0.20202 6.9697 0
0.20202 7.07071 0
0.20202 7.17172 0
0.20202 7.27273 0
0.20202 7.37374 0
0.20202 7.47475 0
0.20202 7.57576 0
0.20202 7.67677 0
0.20202 7.77778 0
0.20202 7.87879 0
0.20202 7.9798 0
0.20202 8.08081 0
0.20202 8.18182 0
0.20202 8.28283 0
0.20202 8.38384 0
0.20202 8.48485 0
0.20202 8.58586 0
0.20202 8.68687 0
0.20202 8.78788 0
0.20202 8.88889 0
0.20202 8.9899 0
0.20202 9.09091 0
0.20202 9.19192 0
0.20202 9.29293 0
0.20202 9.39394 0
0.20202 9.49495 0
0.20202 9.59596 0
0.20202 9.69697 0
0.20202 9.79798 0
0.20202 9.89899 0
0.30303 0.10101 0
0.30303 0.20202 0
0.30303 0.30303 0
0.30303 0.40404 0
0.30303 0.505051 0
0.30303 0.606061 0
0.30303 0.707071 0
0.30303 0.808081 0
0.30303 0.909091 0
0.30303 1.0101 0
0.30303 1.11111 0
0.30303 1.21212 0
0.30303 1.31313 0
0.30303 1.41414 0
0.30303 1.51515 0
0.30303 1.61616 0
0.30303 1.71717 0
0.30303 1.81818 0
0.30303 1.91919 0
0.30303 2.0202 0
0.30303 2.12121 0
0.30303 2.22222 0
0.30303 2.32323 0
0.30303 2.42424 0
0.30303 2.52525 0
0.30303 2.62626 0
0.30303 2.72727 0
0.30303 2.82828 0
0.30303 2.92929 0
0.30303 3.0303 0
0.30303 3.13131 0
0.30303 3.23232 0
0.30303 3.33333 0
0.30303 3.43434 0
0.30303 3.53535 0
0.30303 3.63636 0
0.30303 3.73737 0
0.30303 3.83838 0
0.30303 3.93939 0
0.30303 4.0404 0
0.30303 4.14141 0
0.30303 4.24242 0
0.30303 4.34343 0
0.30303 4.44444 0
0.30303 4.54545 0
0.30303 4.64646 0
0.30303 4.74747 0
0.30303 4.84848 0
0.30303 4.94949 0
0.30303 5.05051 0
0.30303 5.15152 0
0.30303 5.25253 0
0.30303 5.35354 0
0.30303 5.45455 0
0.30303 5.55556 0
0.30303 5.65657 0
0.30303 5.75758 0
0.30303 5.85859 0
0.30303 5.9596 0
0.30303 6.06061 0
0.30303 6.16162 0
0.30303 6.26263 0
0.30303 6.36364 0
0.30303 6.46465 0
0.30303 6.56566 0
0.30303 6.66667 0
0.30303 6.76768 0
0.30303 6.86869 0
0.30303 6.9697 0
0.30303 7.07071 0
0.30303 7.17172 0
0.30303 7.27273 0
0.30303 7.37374 0
0.30303 7.47475 0
0.30303 7.57576 0
0.30303 7.67677 0
0.30303 7.77778 0
0.30303 7.87879 0
0.30303 7.9798 0
0.30303 8.08081 0
[...]
CELL_DATA 9801
SCALARS Temperatura double 1
LOOKUP_TABLE default
-5.61591e-17
-7.34315e-18
1.92211e-16
6.97006e-16
1.60221e-15
2.64453e-15
2.59471e-15
-1.57785e-15
-1.51998e-14
-4.45567e-14
-9.10552e-14
-1.37621e-13
-1.25906e-13
6.99902e-14
6.52431e-13
1.84787e-12
3.7259e-12
5.81876e-12
6.52092e-12
2.39482e-12
-1.22199e-11
-4.45229e-11
-1.00364e-10
-1.77919e-10
-2.572e-10
-2.86181e-10
-1.66983e-10
2.50757e-10
1.15839e-09
2.74521e-09
5.11134e-09
8.13001e-09
1.12652e-08
1.33678e-08
1.24938e-08
5.80431e-09
-1.03855e-08
-4.03497e-08
-8.84557e-08
-1.58443e-07
-2.52551e-07
-3.70618e-07
-5.09349e-07
-6.61919e-07
-8.18135e-07
-9.65228e-07
-1.0893e-06
-1.17724e-06
-1.21863e-06
-1.20698e-06
-1.16964e-06
-1.16707e-06
-1.22103e-06
-1.37952e-06
-1.69989e-06
-2.24905e-06
-3.09984e-06
-4.32556e-06
-5.99212e-06
-8.14795e-06
-1.08122e-05
-1.3962e-05
-1.75203e-05
-2.1347e-05
-2.52347e-05
-2.89129e-05
-3.20636e-05
-3.43475e-05
-3.54434e-05
-3.50958e-05
-3.3165e-05
-2.96716e-05
-2.48227e-05
-1.90115e-05
-1.27809e-05
-6.752e-06
-1.52555e-06
2.4247e-06
4.84197e-06
5.73402e-06
5.36083e-06
4.1611e-06
2.63575e-06
1.22274e-06
2.02374e-07
-3.38106e-07
-4.74596e-07
-3.70586e-07
-1.92298e-07
-4.95687e-08
2.02836e-08
3.21507e-08
1.87876e-08
4.80128e-09
-1.32552e-09
-1.70633e-09
-5.78869e-10
1.96455e-11
8.42728e-11
1.29858e-16
5.38825e-16
1.13046e-15
1.64881e-15
1.00734e-15
-3.19452e-15
-1.47076e-14
-3.68276e-14
-6.66099e-14
-8.30315e-14
-2.97735e-14
1.98848e-13
7.45728e-13
1.71069e-12
2.94815e-12
3.70714e-12
2.16165e-12
-4.93862e-12
-2.19847e-11
-5.277e-11
-9.63273e-11
-1.39706e-10
-1.48249e-10
-5.62349e-11
2.35908e-10
8.48068e-10
1.87866e-09
3.32407e-09
4.95605e-09
6.16816e-09
5.82251e-09
2.15036e-09
-7.22287e-09
-2.50542e-08
-5.40045e-08
-9.58887e-08
-1.507e-07
-2.15516e-07
-2.83463e-07
-3.42935e-07
-3.77246e-07
-3.64875e-07
-2.8033e-07
-9.55954e-08
2.1797e-07
6.87462e-07
1.33617e-06
2.18135e-06
3.23225e-06
4.48852e-06
5.93174e-06
7.54526e-06
9.28147e-06
1.10649e-05
1.27911e-05
1.43245e-05
1.55004e-05
1.61287e-05
1.60034e-05
1.49165e-05
1.26766e-05
9.13461e-06
4.21109e-06
-2.07289e-06
-9.56799e-06
-1.79757e-05
-2.68406e-05
-3.55631e-05
-4.34363e-05
-4.97114e-05
-5.3688e-05
-5.48215e-05
-5.28309e-05
-4.77854e-05
-4.01448e-05
-3.07337e-05
-2.06381e-05
-1.10344e-05
-2.97876e-06
2.79398e-06
6.00786e-06
6.87532e-06
6.00333e-06
4.20043e-06
2.24547e-06
6.94485e-07
-2.11993e-07
-5.21139e-07
-4.49989e-07
-2.42377e-07
-6.55805e-08
2.07496e-08
3.4489e-08
1.8645e-08
3.68515e-09
-1.76176e-09
-1.47657e-09
-3.19664e-10
1.08877e-10
7.05359e-16
1.25156e-15
1.07362e-15
-1.46896e-15
-9.30577e-15
-2.54733e-14
-4.89388e-14
-6.53579e-14
-3.27355e-14
1.31692e-13
5.44459e-13
1.29265e-12
2.26607e-12
2.85121e-12
1.52848e-12
-4.4159e-12
-1.85859e-11
-4.38134e-11
-7.82563e-11
-1.08771e-10
-1.02357e-10
1.10717e-12
2.88256e-10
8.53873e-10
1.75351e-09
2.91882e-09
4.03696e-09
4.41239e-09
2.85087e-09
-2.37322e-09
-1.33949e-08
-3.24175e-08
-6.11206e-08
-9.98383e-08
-1.46592e-07
-1.96115e-07
-2.39036e-07
-2.6135e-07
-2.44255e-07
-1.64327e-07
6.09693e-09
2.9848e-07
7.47764e-07
1.3922e-06
2.27327e-06
3.43538e-06
4.92507e-06
6.78928e-06
9.0725e-06
1.18129e-05
1.50224e-05
1.86857e-05
2.27684e-05
2.71927e-05
3.18365e-05
3.65265e-05
4.10352e-05
4.5081e-05
4.83329e-05
5.0423e-05
5.09653e-05
4.95849e-05
4.59551e-05
3.9844e-05
3.11649e-05
2.00277e-05
6.78259e-06
-7.95414e-06
-2.33025e-05
-3.8161e-05
-5.12953e-05
-6.14729e-05
-6.76351e-05
-6.90813e-05
-6.56318e-05
-5.77268e-05
-4.6423e-05
-3.32636e-05
-2.00275e-05
-8.4007e-06
3.55458e-07
5.64716e-06
7.6245e-06
7.05998e-06
5.0639e-06
2.73296e-06
8.55805e-07
-2.2614e-07
-5.73461e-07
-4.72484e-07
-2.31466e-07
-4.53848e-08
3.16335e-08
3.39884e-08
1.39612e-08
7.29226e-10
-2.12332e-09
-9.34103e-10
3.08942e-11
1.1362e-15
-5.32391e-17
-4.39853e-15
-1.46695e-14
-3.17793e-14
-4.87769e-14
-4.00498e-14
5.09944e-14
3.13337e-13
8.3202e-13
1.57387e-12
2.15942e-12
1.53625e-12
-2.30093e-12
-1.21762e-11
-3.05556e-11
-5.65573e-11
-8.06545e-11
-7.76226e-11
-3.73203e-13
2.19716e-10
6.5738e-10
1.3531e-09
2.24079e-09
3.04539e-09
3.16791e-09
1.5949e-09
-3.11312e-09
-1.26925e-08
-2.88564e-08
-5.27656e-08
-8.43218e-08
-1.21364e-07
-1.58881e-07
-1.88342e-07
-1.9721e-07
-1.68606e-07
-8.10127e-08
9.21215e-08
3.8304e-07
8.3062e-07
1.4815e-06
2.39115e-06
3.62444e-06
5.25547e-06
7.36619e-06
1.00438e-05
1.33769e-05
1.74509e-05
2.23429e-05
2.80995e-05
3.47448e-05
4.22717e-05
5.06178e-05
5.96593e-05
6.91995e-05
7.89594e-05
8.8571e-05
9.75761e-05
0.000105432
0.000111526
0.000115202
0.000115802
0.00011272
0.000105475
9.37867e-05
7.76671e-05
5.74965e-05
3.40826e-05
8.6788e-06
-1.70576e-05
-4.11804e-05
-6.16504e-05
-7.65997e-05
-8.4633e-05
-8.51124e-05
-7.83559e-05
-6.56806e-05
-4.92439e-05
-3.16807e-05
-1.55961e-05
-3.03463e-06
4.92628e-06
8.32522e-06
8.15275e-06
5.92713e-06
3.165e-06
9.44341e-07
-2.88796e-07
-6.36123e-07
-4.80885e-07
-2.03949e-07
-1.82704e-08
4.09536e-08
3.0209e-08
8.27198e-09
-1.4655e-09
-1.79511e-09
-2.88913e-10
-5.75841e-16
-6.81455e-15
-1.77905e-14
-3.25743e-14
-3.88074e-14
-3.26893e-15
1.35269e-13
4.53048e-13
9.78242e-13
1.54274e-12
1.53801e-12
-3.52764e-13
-6.21096e-12
-1.82681e-11
-3.69832e-11
-5.72643e-11
-6.29611e-11
-2.12954e-11
1.187e-10
4.16991e-10
9.14297e-10
1.57804e-09
2.22235e-09
2.41444e-09
1.39578e-09
-1.93821e-09
-8.94977e-09
-2.10202e-08
-3.91457e-08
-6.33915e-08
-9.22654e-08
-1.22089e-07
-1.4643e-07
-1.55608e-07
-1.36211e-07
-7.04897e-08
6.44978e-08
2.98124e-07
6.678e-07
1.22083e-06
2.01631e-06
3.12669e-06
4.63886e-06
6.65437e-06
9.2888e-06
1.26701e-05
1.69358e-05
2.22291e-05
2.86938e-05
3.64679e-05
4.56559e-05
5.63375e-05
6.85551e-05
8.22833e-05
9.74197e-05
0.000113767
0.000131017
0.000148736
0.000166357
0.000183173
0.000198343
0.000210914
0.000219849
0.000224085
0.000222609
0.000214558
0.000199341
0.000176774
0.000147212
0.000111659
7.18278e-05
3.01092e-05
-1.05646e-05
-4.69928e-05
-7.6098e-05
-9.53978e-05
-0.000103477
-0.000100347
-8.7579e-05
-6.8121e-05
-4.57795e-05
-2.44549e-05
-7.31226e-06
3.86916e-06
8.95288e-06
9.21356e-06
6.70398e-06
3.47006e-06
9.2395e-07
-4.02201e-07
-6.95167e-07
-4.6352e-07
-1.57891e-07
1.16693e-08
4.52223e-08
2.28341e-08
2.73562e-09
-2.34133e-09
-1.00934e-09
-6.688e-15
-1.85655e-14
-2.92992e-14
-2.47407e-14
3.13323e-14
1.96383e-13
5.23864e-13
9.82719e-13
1.2973e-12
7.24054e-13
-2.11609e-12
-9.06122e-12
-2.14121e-11
-3.75792e-11
-4.91454e-11
-3.6075e-11
3.64584e-11
2.14898e-10
5.41198e-10
1.01731e-09
1.54762e-09
1.86544e-09
1.46205e-09
-4.49741e-10
-4.89828e-09
-1.30062e-08
-2.57167e-08
-4.3403e-08
-6.54036e-08
-8.9534e-08
-1.11617e-07
-1.25027e-07
-1.20176e-07
-8.38384e-08
1.85444e-09
1.60821e-07
4.2489e-07
8.36025e-07
1.44877e-06
2.33269e-06
3.57465e-06
5.28073e-06
7.57759e-06
1.06132e-05
1.45564e-05
1.9596e-05
2.59369e-05
3.3796e-05
4.33957e-05
5.4956e-05
6.86583e-05
8.46572e-05
0.000103066
0.000123915
0.000147144
0.000172575
0.000199889
0.00022861
0.000258083
0.000287461
0.0003157
0.000341561
0.000363635
0.000380381
0.000390194
0.000391508
0.00038293
0.000363412
0.000332451
0.000290296
0.00023814
0.000178239
0.000113924
4.94473e-05
-1.03836e-05
-6.07623e-05
-9.75993e-05
-0.000118268
-0.00012222
-0.00011126
-8.93578e-05
-6.19085e-05
-3.46e-05
-1.21471e-05
2.71241e-06
9.61824e-06
1.02407e-05
7.33291e-06
3.58687e-06
7.67954e-07
-5.60201e-07
-7.34275e-07
-4.12917e-07
-9.7168e-08
3.78004e-08
4.20142e-08
1.32702e-08
-1.13779e-09
-2.1426e-09
-1.60599e-14
-2.43325e-14
-1.17077e-14
5.52838e-14
2.25955e-13
5.30366e-13
8.92357e-13
9.75306e-13
-1.40371e-15
-3.32906e-12
-1.04565e-11
-2.17798e-11
-3.41831e-11
-3.74018e-11
-1.03577e-11
7.96859e-11
2.7046e-10
5.84883e-10
9.93902e-10
1.36287e-09
1.3912e-09
5.65896e-10
-1.84216e-09
-6.70884e-09
-1.48944e-08
-2.69877e-08
-4.29797e-08
-6.19022e-08
-8.14611e-08
-9.76597e-08
-1.04358e-07
-9.26599e-08
-5.00092e-08
4.11386e-08
2.05116e-07
4.75313e-07
8.9685e-07
1.52953e-06
2.45095e-06
3.75971e-06
5.57845e-06
8.05671e-06
1.13732e-05
1.5737e-05
2.13881e-05
2.85952e-05
3.76523e-05
4.88727e-05
6.25808e-05
7.91028e-05
9.87186e-05
0.000121677
0.000148182
0.000178337
0.000212134
0.000249423
0.000289885
0.000333008
0.00037806
0.000424067
0.000469802
0.000513773
0.000554231
0.000589188
0.00061647
0.00063379
0.00063888
0.000629657
0.00060446
0.000562327
0.000503302
0.00042874
0.00034153
0.000246177
0.000148647
5.59084e-05
-2.48511e-05
-8.72662e-05
-0.00012694
-0.000142432
-0.000135773
-0.000112265
-7.94537e-05
-4.54504e-05
-1.7047e-05
1.78238e-06
1.04534e-05
1.12161e-05
7.73572e-06
3.45724e-06
4.68786e-07
-7.38445e-07
-7.31583e-07
-3.26572e-07
-3.13865e-08
5.28188e-08
3.13559e-08
4.28455e-09
-3.21969e-09
-2.05612e-14
-2.61914e-15
6.62113e-14
2.2713e-13
4.92351e-13
7.61203e-13
6.81964e-13
-4.89604e-13
-3.88094e-12
-1.0554e-11
-2.02429e-11
-2.9026e-11
-2.62066e-11
8.24609e-12
1.02849e-10
2.86125e-10
5.66069e-10
8.95287e-10
1.12492e-09
9.58346e-10
-7.61061e-11
-2.60999e-09
-7.35664e-09
-1.49618e-08
-2.57917e-08
-3.96814e-08
-5.56663e-08
-7.16993e-08
-8.43187e-08
-8.81842e-08
-7.53683e-08
-3.42809e-08
5.18664e-08
2.07107e-07
4.65281e-07
8.73078e-07
1.49353e-06
2.40991e-06
3.72993e-06
5.59019e-06
8.16055e-06
1.16483e-05
1.63012e-05
2.241e-05
3.03081e-05
4.03702e-05
5.30069e-05
6.86572e-05
8.77782e-05
0.000110833
0.000138226
0.000170324
0.00020744
0.000249763
0.000297343
0.000350054
0.000407567
0.000469315
0.000534469
0.000601914
0.000670227
0.000737668
0.000802171
0.000861352
0.000912527
0.000952768
0.000978984
0.000988068
0.000977107
0.000943677
0.000886213
0.00080445
0.000699871
0.000576092
0.000439055
0.000296907
0.000159442
3.70365e-05
-6.08404e-05
-0.000127329
-0.000159708
-0.000160264
-0.000136087
-9.76228e-05
-5.62221e-05
-2.13708e-05
1.46401e-06
1.15748e-05
1.20821e-05
7.81545e-06
3.03831e-06
4.88911e-08
-8.94025e-07
-6.66614e-07
-2.1203e-07
2.50035e-08
5.20233e-08
1.67278e-08
-2.8186e-09
-6.02402e-15
6.61185e-14
2.08214e-13
4.30884e-13
6.2808e-13
4.67773e-13
-7.15203e-13
-3.86723e-12
-9.74687e-12
-1.77313e-11
-2.37474e-11
-1.77051e-11
1.82086e-11
1.07764e-10
2.71868e-10
5.09366e-10
7.66536e-10
8.99316e-10
6.38795e-10
-4.23804e-10
-2.81498e-09
-7.10711e-09
-1.37958e-08
-2.31375e-08
-3.49658e-08
-4.84946e-08
-6.20918e-08
-7.29707e-08
-7.67077e-08
-6.64742e-08
-3.18752e-08
4.26979e-08
1.80256e-07
4.13982e-07
7.90618e-07
1.37448e-06
2.25215e-06
3.53775e-06
5.37881e-06
7.96234e-06
1.1521e-05
1.63387e-05
2.2755e-05
3.11685e-05
4.20366e-05
5.58734e-05
7.32432e-05
9.47504e-05
0.000121025
0.000152708
0.000190365
0.00023451
0.000285593
0.000343899
0.000409536
0.00048239
0.000562088
0.000647965
0.000739035
0.000833973
0.000931099
0.00102837
0.00112336
0.0012133
0.00129504
0.00136509
0.0014197
0.00145489
0.00146661
0.00145103
0.00140484
0.00132575
0.0012131
0.00106848
0.000896312
0.000704298
0.000503311
0.000306761
0.000129188
-1.58326e-05
-0.000118161
-0.00017338
-0.000184168
-0.000160078
-0.000115472
-6.59517e-05
-2.4376e-05
2.13489e-06
1.30265e-05
1.27165e-05
7.46525e-06
2.32305e-06
-4.29942e-07
-9.72465e-07
-5.31336e-07
-8.97695e-08
5.73139e-08
3.68841e-08
1.79414e-09
4.00303e-14
1.78813e-13
3.61505e-13
5.11974e-13
3.38321e-13
-7.27567e-13
-3.4664e-12
-8.43736e-12
-1.49247e-11
-1.91749e-11
-1.23166e-11
2.07976e-11
9.95659e-11
2.39498e-10
4.35481e-10
6.36275e-10
7.14281e-10
4.39722e-10
-5.27889e-10
-2.61835e-09
-6.29242e-09
-1.19489e-08
-1.98078e-08
-2.97816e-08
-4.13324e-08
-5.32869e-08
-6.35505e-08
-6.86271e-08
-6.28427e-08
-3.71657e-08
2.24667e-08
1.374e-07
3.39172e-07
6.73165e-07
1.2031e-06
2.01643e-06
3.23068e-06
5.00067e-06
7.5264e-06
1.10614e-05
1.59211e-05
2.24903e-05
3.12296e-05
4.26794e-05
5.74605e-05
7.62713e-05
9.98788e-05
0.000129105
0.000164809
0.000207863
0.000259044
0.00031906
0.000388532
0.000467864
0.000557225
0.00065649
0.0007652
0.000882517
0.0010072
0.00113761
0.00127164
0.00140683
0.00154027
0.00166869
0.00178843
0.0018955
0.00198555
0.00205395
0.00209582
0.00210619
0.00208028
0.00201383
0.00190378
0.00174897
0.0015511
0.00131557
0.00105216
0.00077512
0.000502417
0.000253916
4.84787e-05
-9.95515e-05
-0.000183689
-0.000207341
-0.000183537
-0.000131906
-7.35301e-05
-2.52974e-05
4.0713e-06
1.47165e-05
1.29236e-05
6.59595e-06
1.36602e-06
-8.66841e-07
-9.25496e-07
-3.41874e-07
1.03201e-08
5.84814e-08
1.43206e-08
1.17139e-13
2.95044e-13
4.169e-13
2.74248e-13
-6.03565e-13
-2.85758e-12
-6.93491e-12
-1.22075e-11
-1.55127e-11
-9.4647e-12
1.84104e-11
8.38387e-11
1.98898e-10
3.58175e-10
5.18089e-10
5.72925e-10
3.34993e-10
-4.71273e-10
-2.19251e-09
-5.20331e-09
-9.84056e-09
-1.63244e-08
-2.46715e-08
-3.45941e-08
-4.53502e-08
-5.54864e-08
-6.23863e-08
-6.15265e-08
-4.53385e-08
-1.57294e-09
8.89384e-08
2.55246e-07
5.40111e-07
1.00484e-06
1.73528e-06
2.84905e-06
4.50402e-06
6.90801e-06
1.03294e-05
1.51082e-05
2.16676e-05
3.05239e-05
4.22953e-05
5.77078e-05
7.75962e-05
0.0001029
0.000134653
0.000173965
0.000221994
0.00027992
0.000348801
0.000429602
0.000523168
0.000630059
0.000750514
0.000884387
0.00103108
0.00118949
0.001358
0.00153446
0.00171619
0.00190002
0.00208234
0.00225914
0.00242609
0.00257854
0.00271156
0.00281998
0.00289834
0.00294098
0.00294212
0.00289608
0.00279775
0.00264326
0.00243098
0.00216273
0.00184504
0.00149021
0.00111662
0.000747929
0.00041068
0.000130385
-7.34284e-05
-0.00019197
-0.00023008
-0.000205748
-0.000145655
-7.77558e-05
-2.34662e-05
7.33125e-06
1.63658e-05
1.24571e-05
5.18561e-06
3.03979e-07
-1.14125e-06
-7.37667e-07
-1.42626e-07
6.15763e-08
3.74667e-08
2.04469e-13
3.41873e-13
2.48501e-13
-4.17011e-13
-2.18327e-12
-5.44162e-12
-9.74567e-12
-1.26306e-11
-8.23001e-12
1.34651e-11
6.51953e-11
1.56979e-10
2.85136e-10
4.15908e-10
4.66509e-10
2.89322e-10
-3.33456e-10
-1.67873e-09
-4.05337e-09
-7.75106e-09
-1.30022e-08
-1.992e-08
-2.84314e-08
-3.8161e-08
-4.82109e-08
-5.67572e-08
-6.03725e-08
-5.29723e-08
-2.42744e-08
4.23555e-08
1.72828e-07
4.06207e-07
7.99737e-07
1.43523e-06
2.42699e-06
3.93138e-06
6.15805e-06
9.38279e-06
1.39616e-05
2.03457e-05
2.90964e-05
4.08993e-05
5.65763e-05
7.70929e-05
0.000103561
0.000137235
0.000179496
0.000231827
0.000295783
0.000372947
0.000464749
0.000572503
0.000697352
0.000840066
0.00100099
0.00117994
0.00137615
0.00158814
0.00181378
0.0020502
0.00229386
0.0025406
0.00278574
0.00302419
0.00325053
0.00345918
0.00364441
0.00380042
0.00392131
0.00400104
0.0040334
0.00401205
0.00393069
0.00378347
0.00356586
0.00327578
0.00291527
0.00249222
0.00202196
0.00152791
0.00104073
0.000595271
0.000225218
-4.37622e-05
-0.000200641
-0.000252962
-0.000225828
-0.00015523
-7.74351e-05
-1.84785e-05
1.16324e-05
1.74994e-05
1.10927e-05
3.34175e-06
-6.48452e-07
-1.15713e-06
-4.50107e-07
7.2143e-09
6.84287e-08
2.63375e-13
2.40133e-13
-2.24624e-13
-1.54111e-12
-4.07482e-12
-7.58551e-12
-1.02971e-11
-7.75758e-12
7.86419e-12
4.68666e-11
1.17981e-10
2.19996e-10
3.29052e-10
3.83675e-10
2.71807e-10
-1.7483e-10
-1.17496e-09
-2.97998e-09
-5.8481e-09
-1.00157e-08
-1.56675e-08
-2.2894e-08
-3.16068e-08
-4.13606e-08
-5.10121e-08
-5.813e-08
-5.80582e-08
-4.25156e-08
2.41007e-09
9.90534e-08
2.81963e-07
6.02944e-07
1.13762e-06
1.99377e-06
3.32166e-06
5.32661e-06
8.28365e-06
1.25544e-05
1.86058e-05
2.70296e-05
3.85628e-05
5.41063e-05
7.47411e-05
0.000101739
0.000136569
0.000180886
0.000236521
0.000305443
0.000389719
0.000491459
0.000612589
0.000754881
0.000919885
0.00110866
0.00132171
0.00155884
0.00181903
0.0021004
0.00240009
0.0027143
0.00303831
0.00336661
0.00369299
0.00401075
0.00431293
0.00459245
0.00484234
0.00505585
0.00522644
0.00534783
0.00541377
0.00541798
0.00535401
0.00521531
0.00499565
0.00468997
0.00429592
0.00381588
0.00325941
0.00264547
0.00200365
0.00137322
0.000799181
0.000325067
-1.6513e-05
-0.000212911
-0.000276492
-0.000242491
-0.000158916
-7.15656e-05
-1.04104e-05
1.62652e-05
1.75207e-05
8.75258e-06
1.34577e-06
-1.25087e-06
-9.02286e-07
-1.5946e-07
9.17173e-08
2.50164e-13
-6.03998e-14
-9.89261e-13
-2.89548e-12
-5.7256e-12
-8.3118e-12
-7.43871e-12
2.84855e-12
3.07979e-11
8.41732e-11
1.64116e-10
2.55496e-10
3.15162e-10
2.61124e-10
-3.34622e-11
-7.38703e-10
-2.05873e-09
-4.21819e-09
-7.44888e-09
-1.19773e-08
-1.80032e-08
-2.56438e-08
-3.47998e-08
-4.48818e-08
-5.43201e-08
-5.97644e-08
-5.48563e-08
-2.84242e-08
3.80896e-08
1.74212e-07
4.25319e-07
8.59132e-07
1.57418e-06
2.71055e-06
4.4633e-06
7.09859e-06
1.09729e-05
1.6555e-05
2.44501e-05
3.54262e-05
5.04405e-05
7.06644e-05
9.75055e-05
0.000132623
0.000177935
0.000235611
0.000308051
0.000397847
0.000507724
0.000640473
0.000798666
0.000984681
0.00120061
0.00144791
0.00172732
0.00203866
0.00238067
0.00275092
0.0031457
0.00356002
0.00398764
0.00442124
0.00485257
0.00527274
0.00567254
0.00604273
0.00637441
0.00665925
0.00688965
0.0070588
0.00716052
0.00718905
0.0071387
0.00700358
0.00677746
0.00645414
0.00602839
0.00549771
0.00486505
0.00414199
0.00335195
0.00253202
0.00173201
0.00100927
0.000418876
8.23566e-07
-0.000232141
-0.000300546
-0.000253793
-0.000154878
-5.96374e-05
-4.4165e-08
2.01107e-05
1.59001e-05
5.64829e-06
-3.71467e-07
-1.3434e-06
-4.87106e-07
7.13302e-08
1.32866e-13
-5.55804e-13
-1.92954e-12
-4.15465e-12
-6.55486e-12
-6.94136e-12
-9.42969e-13
1.79219e-11
5.65014e-11
1.17714e-10
1.93412e-10
2.55259e-10
2.45717e-10
7.18911e-11
-3.9578e-10
-1.32017e-09
-2.89232e-09
-5.32822e-09
-8.86843e-09
-1.37727e-08
-2.02894e-08
-2.85628e-08
-3.8427e-08
-4.90181e-08
-5.81178e-08
-6.11169e-08
-4.94495e-08
-8.30142e-09
8.66584e-08
2.73836e-07
6.11925e-07
1.18819e-06
2.12925e-06
3.61484e-06
5.89494e-06
9.31055e-06
1.43184e-05
2.15191e-05
3.16891e-05
4.58144e-05
6.51251e-05
9.1129e-05
0.000125641
0.000170803
0.000229098
0.000303338
0.000396644
0.000512392
0.000654146
0.000825561
0.00103004
0.00127076
0.00155051
0.0018713
0.0022342
0.0026391
0.0030845
0.00356733
0.00408285
0.00462462
0.00518451
0.00575291
0.00631894
0.00687082
0.00739631
0.00788316
0.00831967
0.00869507
0.00899993
0.00922633
0.00936783
0.00941929
0.00937633
0.00923483
0.00899032
0.00863762
0.00817111
0.00758567
0.00687895
0.00605464
0.00512688
0.0041245
0.00309384
0.00209757
0.00120787
0.000493053
1.60915e-07
-0.000260869
-0.000323701
-0.000256996
-0.000141478
-4.20522e-05
1.09882e-05
2.18487e-05
1.24682e-05
2.35876e-06
-1.37096e-06
-9.66835e-07
-5.22239e-08
-9.64823e-14
-1.18572e-12
-2.86326e-12
-4.98317e-12
-6.16135e-12
-3.33158e-12
8.45013e-12
3.50554e-11
8.04474e-11
1.41578e-10
2.01443e-10
2.2167e-10
1.36571e-10
-1.49905e-10
-7.64551e-10
-1.86496e-09
-3.64255e-09
-6.32983e-09
-1.02065e-08
-1.5589e-08
-2.27741e-08
-3.1895e-08
-4.26299e-08
-5.36877e-08
-6.19671e-08
-6.12472e-08
-4.02196e-08
2.03912e-08
1.5194e-07
4.03597e-07
8.50182e-07
1.6026e-06
2.8215e-06
4.73465e-06
7.65869e-06
1.20256e-05
1.84141e-05
2.7586e-05
4.05268e-05
5.84894e-05
8.30392e-05
0.000116098
0.000159981
0.000217431
0.000291625
0.000386179
0.000505107
0.000652771
0.000833782
0.00105289
0.00131455
0.00162296
0.00198181
0.00239385
0.00286061
0.00338213
0.00395665
0.00458042
0.00524748
0.00594963
0.00667646
0.00741554
0.00815269
0.00887248
0.00955876
0.0101953
0.0107666
0.0112583
0.0116581
0.0119562
0.0121452
0.0122201
0.012178
0.0120173
0.0117365
0.0113338
0.0108057
0.0101478
0.00935551
0.0084267
0.00736616
0.00619114
0.00493723
0.00366214
0.00244433
0.00137356
0.000532721
-2.569e-05
-0.000299538
-0.000342627
-0.000248746
-0.0001179
-2.05728e-05
2.03048e-05
2.0415e-05
7.71127e-06
-2.80544e-07
-1.44992e-06
-3.50617e-07
-4.19657e-13
-1.85383e-12
-3.60306e-12
-5.14508e-12
-4.44191e-12
2.12435e-12
1.93823e-11
5.1647e-11
9.92305e-11
1.53304e-10
1.89948e-10
1.6472e-10
8.78138e-12
-3.73573e-10
-1.10787e-09
-2.3558e-09
-4.32661e-09
-7.29049e-09
-1.15829e-08
-1.75778e-08
-2.55962e-08
-3.57011e-08
-4.73143e-08
-5.85621e-08
-6.52231e-08
-5.90995e-08
-2.55688e-08
5.99986e-08
2.37361e-07
5.68558e-07
1.14768e-06
2.11392e-06
3.66867e-06
6.09731e-06
9.7966e-06
1.5308e-05
2.33574e-05
3.49012e-05
5.1178e-05
7.37644e-05
0.000104633
0.00014621
0.000201423
0.000273744
0.00036721
0.000486418
0.00063649
0.000823001
0.00105187
0.00132919
0.00166078
0.00205208
0.00250796
0.00303211
0.0036267
0.00429202
0.00502609
0.00582434
0.00667942
0.00758107
0.00851613
0.00946875
0.0104208
0.0113522