# vtk DataFile Version 3.0
Malha 2D com triângulos e temperatura
ASCII
DATASET UNSTRUCTURED_GRID

POINTS 10000 double
0 0 0
10 0 0
10 10 0
0 10 0
0.10101 0 0
0.20202 0 0
0.30303 0 0
0.40404 0 0
0.505051 0 0
0.606061 0 0
0.707071 0 0
0.808081 0 0
0.909091 0 0
1.0101 0 0
1.11111 0 0
1.21212 0 0
1.31313 0 0
1.41414 0 0
1.51515 0 0
1.61616 0 0
1.71717 0 0
1.81818 0 0
1.91919 0 0
2.0202 0 0
2.12121 0 0
2.22222 0 0
2.32323 0 0
2.42424 0 0
2.52525 0 0
2.62626 0 0
2.72727 0 0
2.82828 0 0
2.92929 0 0
3.0303 0 0
3.13131 0 0
3.23232 0 0
3.33333 0 0
3.43434 0 0
3.53535 0 0
3.63636 0 0
3.73737 0 0
3.83838 0 0
3.93939 0 0
4.0404 0 0
4.14141 0 0
4.24242 0 0
4.34343 0 0
4.44444 0 0
4.54545 0 0
4.64646 0 0
4.74747 0 0
4.84848 0 0
4.94949 0 0
5.05051 0 0
5.15152 0 0
5.25253 0 0
5.35354 0 0
5.45455 0 0
5.55556 0 0
5.65657 0 0
5.75758 0 0
5.85859 0 0
5.9596 0 0
6.06061 0 0
6.16162 0 0
6.26263 0 0
6.36364 0 0
6.46465 0 0
6.56566 0 0
6.66667 0 0
6.76768 0 0
6.86869 0 0
6.9697 0 0
7.07071 0 0
7.17172 0 0
7.27273 0 0
7.37374 0 0
7.47475 0 0
7.57576 0 0
7.67677 0 0
7.77778 0 0
7.87879 0 0
7.9798 0 0
8.08081 0 0
8.18182 0 0
8.28283 0 0
8.38384 0 0
8.48485 0 0
8.58586 0 0
8.68687 0 0
8.78788 0 0
8.88889 0 0
8.9899 0 0
9.09091 0 0
9.19192 0 0
9.29293 0 0
9.39394 0 0
9.49495 0 0
9.59596 0 0
9.69697 0 0
9.79798 0 0
9.89899 0 0
10 0.10101 0
10 0.20202 0
10 0.30303 0
10 0.40404 0
10 0.505051 0
10 0.606061 0
10 0.707071 0
10 0.808081 0
10 0.909091 0
10 1.0101 0
10 1.11111 0
10 1.21212 0
10 1.31313 0
10 1.41414 0
10 1.51515 0
10 1.61616 0
10 1.71717 0
10 1.81818 0
10 1.91919 0
10 2.0202 0
10 2.12121 0
10 2.22222 0
10 2.32323 0
10 2.42424 0
10 2.52525 0
10 2.62626 0
10 2.72727 0
10 2.82828 0
10 2.92929 0
10 3.0303 0
10 3.13131 0
10 3.23232 0
10 3.33333 0
10 3.43434 0
10 3.53535 0
10 3.63636 0
10 3.73737 0
10 3.83838 0
10 3.93939 0
10 4.0404 0
10 4.14141 0
10 4.24242 0
10 4.34343 0
10 4.44444 0
10 4.54545 0
10 4.64646 0
10 4.74747 0
10 4.84848 0
10 4.94949 0
10 5.05051 0
10 5.15152 0
10 5.25253 0
10 5.35354 0
10 5.45455 0
10 5.55556 0
10 5.65657 0
10 5.75758 0
10 5.85859 0
10 5.9596 0
10 6.06061 0
10 6.16162 0
10 6.26263 0
10 6.36364 0
10 6.46465 0
10 6.56566 0
10 6.66667 0
10 6.76768 0
10 6.86869 0
10 6.9697 0
10 7.07071 0
10 7.17172 0
10 7.27273 0
10 7.37374 0
10 7.47475 0
10 7.57576 0
10 7.67677 0
10 7.77778 0
10 7.87879 0
10 7.9798 0
10 8.08081 0
10 8.18182 0
10 8.28283 0
10 8.38384 0
10 8.48485 0
10 8.58586 0
10 8.68687 0
10 8.78788 0
10 8.88889 0
10 8.9899 0
10 9.09091 0
10 9.19192 0
10 9.29293 0
10 9.39394 0
10 9.49495 0
10 9.59596 0
10 9.69697 0
10 9.79798 0
10 9.89899 0
9.89899 10 0
9.79798 10 0
9.69697 10 0
9.59596 10 0
9.49495 10 0
9.39394 10 0
9.29293 10 0
9.19192 10 0
9.09091 10 0
8.9899 10 0
8.88889 10 0
8.78788 10 0
8.68687 10 0
8.58586 10 0
8.48485 10 0
8.38384 10 0
8.28283 10 0
8.18182 10 0
8.08081 10 0
7.9798 10 0
7.87879 10 0
7.77778 10 0
7.67677 10 0
7.57576 10 0
7.47475 10 0
7.37374 10 0
7.27273 10 0
7.17172 10 0
7.07071 10 0
6.9697 10 0
6.86869 10 0
6.76768 10 0
6.66667 10 0
6.56566 10 0
6.46465 10 0
6.36364 10 0
6.26263 10 0
6.16162 10 0
6.06061 10 0
5.9596 10 0
5.85859 10 0
5.75758 10 0
5.65657 10 0
5.55556 10 0
5.45455 10 0
5.35354 10 0
5.25253 10 0
5.15152 10 0
5.05051 10 0
4.94949 10 0
4.84848 10 0
4.74747 10 0
4.64646 10 0
4.54545 10 0
4.44444 10 0
4.34343 10 0
4.24242 10 0
4.14141 10 0
4.0404 10 0
3.93939 10 0
3.83838 10 0
3.73737 10 0
3.63636 10 0
3.53535 10 0
3.43434 10 0
3.33333 10 0
3.23232 10 0
3.13131 10 0
3.0303 10 0
2.92929 10 0
2.82828 10 0
2.72727 10 0
2.62626 10 0
2.52525 10 0
2.42424 10 0
2.32323 10 0
2.22222 10 0
2.12121 10 0
2.0202 10 0
1.91919 10 0
1.81818 10 0
1.71717 10 0
1.61616 10 0
1.51515 10 0
1.41414 10 0
1.31313 10 0
1.21212 10 0
1.11111 10 0
1.0101 10 0
0.909091 10 0
0.808081 10 0
0.707071 10 0
0.606061 10 0
0.505051 10 0
0.40404 10 0
0.30303 10 0
0.20202 10 0
0.10101 10 0
0 9.89899 0
0 9.79798 0
0 9.69697 0
0 9.59596 0
0 9.49495 0
0 9.39394 0
0 9.29293 0
0 9.19192 0
0 9.09091 0
0 8.9899 0
0 8.88889 0
0 8.78788 0
0 8.68687 0
0 8.58586 0
0 8.48485 0
0 8.38384 0
0 8.28283 0
0 8.18182 0
0 8.08081 0
0 7.9798 0
0 7.87879 0
0 7.77778 0
0 7.67677 0
0 7.57576 0
0 7.47475 0
0 7.37374 0
0 7.27273 0
0 7.17172 0
0 7.07071 0
0 6.9697 0
0 6.86869 0
0 6.76768 0
0 6.66667 0
0 6.56566 0
0 6.46465 0
0 6.36364 0
0 6.26263 0
0 6.16162 0
0 6.06061 0
0 5.9596 0
0 5.85859 0
0 5.75758 0
0 5.65657 0
0 5.55556 0
0 5.45455 0
0 5.35354 0
0 5.25253 0
0 5.15152 0
0 5.05051 0
0 4.94949 0
0 4.84848 0
0 4.74747 0
0 4.64646 0
0 4.54545 0
0 4.44444 0
0 4.34343 0
0 4.24242 0
0 4.14141 0
0 4.0404 0
0 3.93939 0
0 3.83838 0
0 3.73737 0
0 3.63636 0
0 3.53535 0
0 3.43434 0
0 3.33333 0
0 3.23232 0
0 3.13131 0
0 3.0303 0
0 2.92929 0
0 2.82828 0
0 2.72727 0
0 2.62626 0
0 2.52525 0
0 2.42424 0
0 2.32323 0
0 2.22222 0
0 2.12121 0
0 2.0202 0
0 1.91919 0
0 1.81818 0
0 1.71717 0
0 1.61616 0
0 1.51515 0
0 1.41414 0
0 1.31313 0
0 1.21212 0
0 1.11111 0
0 1.0101 0
0 0.909091 0
0 0.808081 0
0 0.707071 0
0 0.606061 0
0 0.505051 0
0 0.40404 0
0 0.30303 0
0 0.20202 0
0 0.10101 0
0.10101 0.10101 0
0.10101 0.20202 0
0.10101 0.30303 0
0.10101 0.40404 0
0.10101 0.505051 0
0.10101 0.606061 0
0.10101 0.707071 0
0.10101 0.808081 0
0.10101 0.909091 0
0.10101 1.0101 0
0.10101 1.11111 0
0.10101 1.21212 0
0.10101 1.31313 0
0.10101 1.41414 0
0.10101 1.51515 0
0.10101 1.61616 0
0.10101 1.71717 0
0.10101 1.81818 0
0.10101 1.91919 0
0.10101 2.0202 0
0.10101 2.12121 0
0.10101 2.22222 0
0.10101 2.32323 0
0.10101 2.42424 0
0.10101 2.52525 0
0.10101 2.62626 0
0.10101 2.72727 0
0.10101 2.82828 0
0.10101 2.92929 0
0.10101 3.0303 0
0.10101 3.13131 0
0.10101 3.23232 0
0.10101 3.33333 0
0.10101 3.43434 0
0.10101 3.53535 0
0.10101 3.63636 0
0.10101 3.73737 0
0.10101 3.83838 0
0.10101 3.93939 0
0.10101 4.0404 0
0.10101 4.14141 0
0.10101 4.24242 0
0.10101 4.34343 0
0.10101 4.44444 0
0.10101 4.54545 0
0.10101 4.64646 0
0.10101 4.74747 0
0.10101 4.84848 0
0.10101 4.94949 0
0.10101 5.05051 0
0.10101 5.15152 0
0.10101 5.25253 0
0.10101 5.35354 0
0.10101 5.45455 0
0.10101 5.55556 0
0.10101 5.65657 0
0.10101 5.75758 0
0.10101 5.85859 0
0.10101 5.9596 0
0.10101 6.06061 0
0.10101 6.16162 0
0.10101 6.26263 0
0.10101 6.36364 0
0.10101 6.46465 0
0.10101 6.56566 0
0.10101 6.66667 0
0.10101 6.76768 0
0.10101 6.86869 0
0.10101 6.9697 0
0.10101 7.07071 0
0.10101 7.17172 0
0.10101 7.27273 0
0.10101 7.37374 0
0.10101 7.47475 0
0.10101 7.57576 0
0.10101 7.67677 0
0.10101 7.77778 0
0.10101 7.87879 0
0.10101 7.9798 0
0.10101 8.08081 0
0.10101 8.18182 0
0.10101 8.28283 0
0.10101 8.38384 0
0.10101 8.48485 0
0.10101 8.58586 0
0.10101 8.68687 0
0.10101 8.78788 0
0.10101 8.88889 0
0.10101 8.9899 0
0.10101 9.09091 0
0.10101 9.19192 0
0.10101 9.29293 0
0.10101 9.39394 0
0.10101 9.49495 0
0.10101 9.59596 0
0.10101 9.69697 0
0.10101 9.79798 0
0.10101 9.89899 0
0.20202 0.10101 0
0.20202 0.20202 0
0.20202 0.30303 0
0.20202 0.40404 0
0.20202 0.505051 0
0.20202 0.606061 0
0.20202 0.707071 0
0.20202 0.808081 0
0.20202 0.909091 0
0.20202 1.0101 0
0.20202 1.11111 0
0.20202 1.21212 0
0.20202 1.31313 0
0.20202 1.41414 0
0.20202 1.51515 0
0.20202 1.61616 0
0.20202 1.71717 0
0.20202 1.81818 0
0.20202 1.91919 0
0.20202 2.0202 0
0.20202 2.12121 0
0.20202 2.22222 0
0.20202 2.32323 0
0.20202 2.42424 0
0.20202 2.52525 0
0.20202 2.62626 0
0.20202 2.72727 0
0.20202 2.82828 0
0.20202 2.92929 0
0.20202 3.0303 0
0.20202 3.13131 0
0.20202 3.23232 0
0.20202 3.33333 0
0.20202 3.43434 0
0.20202 3.53535 0
0.20202 3.63636 0
0.20202 3.73737 0
0.20202 3.83838 0
0.20202 3.93939 0
0.20202 4.0404 0
0.20202 4.14141 0
0.20202 4.24242 0
0.20202 4.34343 0
0.20202 4.44444 0
0.20202 4.54545 0
0.20202 4.64646 0
0.20202 4.74747 0
0.20202 4.84848 0
0.20202 4.94949 0
0.20202 5.05051 0
0.20202 5.15152 0
0.20202 5.25253 0
0.20202 5.35354 0
0.20202 5.45455 0
0.20202 5.55556 0
0.20202 5.65657 0
0.20202 5.75758 0
0.20202 5.85859 0
0.20202 5.9596 0
0.20202 6.06061 0
0.20202 6.16162 0
0.20202 6.26263 0
0.20202 6.36364 0
0.20202 6.46465 0
0.20202 6.56566 0
0.20202 6.66667 0
0.20202 6.76768 0
0.20202 6.86869 0
0.20202 6.9697 0
0.20202 7.07071 0
0.20202 7.17172 0
0.20202 7.27273 0
0.20202 7.37374 0
0.20202 7.47475 0
0.20202 7.57576 0
0.20202 7.67677 0
0.20202 7.77778 0
0.20202 7.87879 0
0.20202 7.9798 0
0.20202 8.08081 0
0.20202 8.18182 0
0.20202 8.28283 0
0.20202 8.38384 0
0.20202 8.48485 0
0.20202 8.58586 0
0.20202 8.68687 0
0.20202 8.78788 0
0.20202 8.88889 0
0.20202 8.9899 0
0.20202 9.09091 0
0.20202 9.19192 0
0.20202 9.29293 0
0.20202 9.39394 0
0.20202 9.49495 0
0.20202 9.59596 0
0.20202 9.69697 0
0.20202 9.79798 0
0.20202 9.89899 0
0.30303 0.10101 0
0.30303 0.20202 0
0.30303 0.30303 0
0.30303 0.40404 0
0.30303 0.505051 0
0.30303 0.606061 0
0.30303 0.707071 0
0.30303 0.808081 0
0.30303 0.909091 0
0.30303 1.0101 0
0.30303 1.11111 0
0.30303 1.21212 0
0.30303 1.31313 0
0.30303 1.41414 0
0.30303 1.51515 0
0.30303 1.61616 0
0.30303 1.71717 0
0.30303 1.81818 0
0.30303 1.91919 0
0.30303 2.0202 0
0.30303 2.12121 0
0.30303 2.22222 0
0.30303 2.32323 0
0.30303 2.42424 0
0.30303 2.52525 0
0.30303 2.62626 0
0.30303 2.72727 0
0.30303 2.82828 0
0.30303 2.92929 0
0.30303 3.0303 0
0.30303 3.13131 0
0.30303 3.23232 0
0.30303 3.33333 0
0.30303 3.43434 0
0.30303 3.53535 0
0.30303 3.63636 0
0.30303 3.73737 0
0.30303 3.83838 0
0.30303 3.93939 0
0.30303 4.0404 0
0.30303 4.14141 0
0.30303 4.24242 0
0.30303 4.34343 0
0.30303 4.44444 0
0.30303 4.54545 0
0.30303 4.64646 0
0.30303 4.74747 0
0.30303 4.84848 0
0.30303 4.94949 0
0.30303 5.05051 0
0.30303 5.15152 0
0.30303 5.25253 0
0.30303 5.35354 0
0.30303 5.45455 0
0.30303 5.55556 0
0.30303 5.65657 0
0.30303 5.75758 0
0.30303 5.85859 0
0.30303 5.9596 0
0.30303 6.06061 0
0.30303 6.16162 0
0.30303 6.26263 0
0.30303 6.36364 0
0.30303 6.46465 0
0.30303 6.56566 0
0.30303 6.66667 0
0.30303 6.76768 0
0.30303 6.86869 0
0.30303 6.9697 0
0.30303 7.07071 0
0.30303 7.17172 0
0.30303 7.27273 0
0.30303 7.37374 0
0.30303 7.47475 0
0.30303 7.57576 0
0.30303 7.67677 0
0.30303 7.77778 0
0.30303 7.87879 0
0.30303 7.9798 0
0.30303 8.08081 0
[...]
CELL_DATA 9801
SCALARS Temperatura double 1
LOOKUP_TABLE default
6.42398e-14
4.97858e-15
-2.20792e-13
-7.74847e-13
-1.74896e-12
-2.86154e-12
-2.85246e-12
1.34554e-12
1.51332e-11
4.50906e-11
9.36424e-11
1.46314e-10
1.49587e-10
-1.69322e-11
-5.57317e-10
-1.72704e-09
-3.68813e-09
-6.17324e-09
-7.90295e-09
-5.80129e-09
5.72837e-09
3.48569e-08
9.06728e-08
1.78413e-07
2.90151e-07
3.90181e-07
3.96045e-07
1.59104e-07
-5.47456e-07
-2.02093e-06
-4.5861e-06
-8.50052e-06
-1.37952e-05
-2.00465e-05
-2.60907e-05
-2.9707e-05
-2.73201e-05
-1.37804e-05
1.7704e-05
7.54206e-05
0.000168736
0.000307387
0.000500492
0.000755332
0.001076
0.00146204
0.00190734
0.00239938
0.00291936
0.00344353
0.00395302
0.00450137
0.00507113
0.00565201
0.00622972
0.00678694
0.0073032
0.00775495
0.00811604
0.00835857
0.00845444
0.00837749
0.00810653
0.00762888
0.00694427
0.00606841
0.00503532
0.00389774
0.00272439
0.00159402
0.000586215
-0.000229792
-0.000806292
-0.00112573
-0.00120431
-0.00108898
-0.000847913
-0.000556286
-0.000281037
-6.86071e-05
6.10049e-05
0.000112613
0.000107927
7.46852e-05
3.68275e-05
8.76703e-06
-5.30555e-06
-8.30166e-06
-5.7543e-06
-2.28158e-06
-1.16957e-07
5.42707e-07
4.02572e-07
1.25916e-07
-1.39435e-08
-3.08562e-08
-1.11521e-08
2.48857e-10
1.56161e-09
-1.56747e-13
-6.18103e-13
-1.25951e-12
-1.79499e-12
-1.07312e-12
3.37974e-12
1.53782e-11
3.83274e-11
6.96892e-11
8.96305e-11
4.40949e-11
-1.70711e-10
-7.02471e-10
-1.67763e-09
-3.02401e-09
-4.13455e-09
-3.38376e-09
2.34753e-09
1.77338e-08
4.79225e-08
9.52953e-08
1.5306e-07
1.95278e-07
1.64503e-07
-3.90145e-08
-5.58949e-07
-1.56385e-06
-3.19338e-06
-5.45649e-06
-8.07386e-06
-1.02684e-05
-1.0524e-05
-6.352e-06
5.88277e-06
3.10159e-05
7.49691e-05
0.000144445
0.000246446
0.00038769
0.000574012
0.000809901
0.00109827
0.00144057
0.0018372
0.00228819
0.00279397
0.00335589
0.00397626
0.00465769
0.00540146
0.00620649
0.00706279
0.00795914
0.00888145
0.00981219
0.0107302
0.0116107
0.0124248
0.0131398
0.0137195
0.0141245
0.0143143
0.0142495
0.0138955
0.0132279
0.0122378
0.0109385
0.00937002
0.0076019
0.00573108
0.00387503
0.0021591
0.000699691
-0.000413999
-0.00113565
-0.00147065
-0.00147491
-0.0012428
-0.000886661
-0.000512921
-0.00020151
5.82509e-06
0.000105546
0.000122043
9.18893e-05
4.8828e-05
1.44368e-05
-3.76253e-06
-8.37793e-06
-6.01073e-06
-2.34074e-06
-8.6703e-08
5.38115e-07
3.58649e-07
8.91128e-08
-2.31984e-08
-2.48274e-08
-5.73497e-09
1.81766e-09
-8.1608e-13
-1.38572e-12
-1.11355e-12
1.73276e-12
1.01468e-11
2.71295e-11
5.15533e-11
6.92092e-11
3.89447e-11
-1.2059e-10
-5.26891e-10
-1.27969e-09
-2.31134e-09
-3.10243e-09
-2.27902e-09
2.75541e-09
1.57669e-08
4.05375e-08
7.77106e-08
1.18837e-07
1.37586e-07
7.98563e-08
-1.42661e-07
-6.47335e-07
-1.55259e-06
-2.91465e-06
-4.61965e-06
-6.23016e-06
-6.79894e-06
-4.67957e-06
2.62242e-06
1.85082e-05
4.72147e-05
9.35989e-05
0.000162806
0.000259888
0.000389479
0.000555622
0.000761843
0.00101146
0.00130808
0.00165611
0.00206107
0.00252968
0.00306935
0.00368742
0.00439007
0.00518133
0.00606239
0.0070314
0.00808108
0.0091969
0.0103668
0.0115734
0.0127961
0.0140105
0.0151887
0.0162991
0.0173067
0.0181725
0.0188541
0.0193061
0.0194815
0.0193345
0.018824
0.0179204
0.0166117
0.0149123
0.0128693
0.0105667
0.00812408
0.00568893
0.00342092
0.00147068
-4.39849e-05
-0.0010591
-0.00157683
-0.00166474
-0.00144078
-0.00104687
-0.000618057
-0.000255909
-1.36666e-05
0.000103374
0.000124324
9.25848e-05
4.72711e-05
1.23291e-05
-4.89742e-06
-8.23984e-06
-5.22e-06
-1.63327e-06
2.12808e-07
5.21021e-07
2.51568e-07
2.72465e-08
-3.02006e-08
-1.47768e-08
3.11898e-10
-1.23968e-12
2.43848e-13
5.13866e-12
1.62136e-11
3.40832e-11
5.12865e-11
4.18903e-11
-5.01936e-11
-3.12846e-10
-8.33152e-10
-1.59386e-09
-2.26347e-09
-1.88331e-09
1.43953e-09
1.05356e-08
2.83294e-08
5.54104e-08
8.53595e-08
9.78194e-08
5.08117e-08
-1.23753e-07
-5.14433e-07
-1.20504e-06
-2.21999e-06
-3.4337e-06
-4.4459e-06
-4.4369e-06
-2.03053e-06
4.79857e-06
1.87375e-05
4.30479e-05
8.13881e-05
0.000137591
0.000215474
0.00031877
0.000451235
0.000616958
0.000820803
0.00106887
0.00136878
0.00172974
0.00216218
0.0026771
0.00328521
0.00399599
0.00481691
0.00575282
0.00680558
0.00797379
0.00925272
0.010632
0.0120985
0.0136355
0.0152208
0.0168283
0.0184281
0.0199869
0.0214681
0.0228327
0.0240384
0.0250406
0.0257915
0.0262405
0.0263357
0.0260257
0.0252643
0.0240166
0.0222685
0.0200358
0.0173741
0.0143846
0.011214
0.00804584
0.0050815
0.00251337
0.000494033
-0.000891362
-0.00164186
-0.00184047
-0.00163508
-0.0012045
-0.000718692
-0.000304793
-2.88026e-05
0.000102981
0.000125908
9.13153e-05
4.38478e-05
9.21149e-06
-6.20666e-06
-7.89438e-06
-4.25614e-06
-9.23105e-07
4.27587e-07
4.45485e-07
1.43449e-07
-1.24641e-08
-2.49426e-08
-4.53993e-09
9.30796e-13
8.04296e-12
1.98211e-11
3.482e-11
3.96806e-11
5.34459e-13
-1.43092e-10
-4.65183e-10
-9.94067e-10
-1.5756e-09
-1.6466e-09
2.55792e-11
5.44546e-09
1.69468e-08
3.56352e-08
5.81413e-08
7.15245e-08
4.72656e-08
-6.2836e-08
-3.2365e-07
-7.99275e-07
-1.51337e-06
-2.38207e-06
-3.12077e-06
-3.13613e-06
-1.42454e-06
3.49483e-06
1.35879e-05
3.12451e-05
5.91681e-05
0.00010025
0.000157512
0.000234165
0.000333827
0.000460876
0.000620882
0.00082098
0.00107008
0.00137883
0.00175927
0.00222438
0.00278735
0.00346103
0.00425732
0.00518665
0.00625748
0.00747572
0.00884412
0.0103616
0.0120228
0.0138147
0.0157192
0.0177141
0.0197706
0.0218549
0.0239289
0.0259507
0.0278763
0.0296598
0.0312544
0.0326125
0.0336854
0.0344233
0.0347742
0.034685
0.0341026
0.032978
0.0312737
0.0289734
0.0260945
0.0227001
0.0189083
0.0148937
0.0108781
0.00710863
0.0038244
0.00121761
-0.000602177
-0.00163029
-0.00196748
-0.00179618
-0.00133745
-0.000800636
-0.000340951
-3.74226e-05
0.000103742
0.000125346
8.70236e-05
3.82627e-05
5.31623e-06
-7.35223e-06
-7.16832e-06
-3.12943e-06
-2.82982e-07
5.21441e-07
3.21608e-07
5.24104e-08
-2.71646e-08
-1.37893e-08
8.11247e-12
2.07603e-11
3.07734e-11
2.28292e-11
-3.99595e-11
-2.13259e-10
-5.45588e-10
-1.00168e-09
-1.31461e-09
-7.81086e-10
1.90017e-09
8.50504e-09
2.04708e-08
3.6908e-08
5.11383e-08
4.61284e-08
-9.50693e-09
-1.61438e-07
-4.60181e-07
-9.36161e-07
-1.55455e-06
-2.14965e-06
-2.34572e-06
-1.47949e-06
1.45577e-06
7.82626e-06
1.93275e-05
3.79219e-05
6.57808e-05
0.000105282
0.000159112
0.000230496
0.00032354
0.000443619
0.000597723
0.000794676
0.00104517
0.0013616
0.00175779
0.00224863
0.00284968
0.00357682
0.00444575
0.0054715
0.00666768
0.00804565
0.00961346
0.0113749
0.0133285
0.015467
0.0177736
0.0202246
0.0227912
0.0254356
0.0281138
0.0307762
0.0333693
0.0358372
0.0381235
0.0401727
0.0419314
0.0433488
0.0443762
0.0449663
0.0450715
0.0446432
0.0436321
0.0419913
0.0396837
0.0366926
0.0330367
0.0287858
0.0240735
0.0191015
0.0141309
0.00945716
0.00536969
0.00210406
-0.000203505
-0.00154489
-0.00204173
-0.00191607
-0.00143663
-0.000856101
-0.000359165
-3.69792e-05
0.000106343
0.000122575
7.97234e-05
3.08494e-05
1.09664e-06
-8.0475e-06
-6.03434e-06
-1.95197e-06
1.98287e-07
4.87697e-07
1.81275e-07
-4.69182e-09
-2.5757e-08
1.82228e-11
2.45964e-11
6.57779e-12
-6.97318e-11
-2.50225e-10
-5.56406e-10
-9.02307e-10
-9.53854e-10
3.30207e-11
3.26905e-09
1.01281e-08
2.11157e-08
3.37609e-08
3.9409e-08
1.96807e-08
-5.53564e-08
-2.23762e-07
-5.18434e-07
-9.39672e-07
-1.41184e-06
-1.72732e-06
-1.48708e-06
-5.1964e-08
3.48137e-06
1.02733e-05
2.17113e-05
3.93831e-05
6.50928e-05
0.000100959
0.000149615
0.000214513
0.000300266
0.000412994
0.000560576
0.000752793
0.00100135
0.0013198
0.00172343
0.00222912
0.00285517
0.00362099
0.00454672
0.00565261
0.0069581
0.00848087
0.0102356
0.0122325
0.0144767
0.0169661
0.0196916
0.0226316
0.0257562
0.0290278
0.0323979
0.0358097
0.0391989
0.0424965
0.0456305
0.0485291
0.0511231
0.0533483
0.0551473
0.0564703
0.0572741
0.0575208
0.0571746
0.0561994
0.0545572
0.0522095
0.0491239
0.0452853
0.0407139
0.035484
0.0297419
0.0237141
0.0176998
0.0120429
0.00708576
0.00310941
0.000278016
-0.00139809
-0.00206524
-0.00199056
-0.0014956
-0.00087939
-0.000356048
-2.64092e-05
0.000110525
0.0001172
6.95352e-05
2.21858e-05
-2.85959e-06
-8.03531e-06
-4.55601e-06
-8.76914e-07
4.57068e-07
3.55978e-07
6.3188e-08
-3.31178e-08
2.05801e-11
-5.51869e-12
-8.5432e-11
-2.56326e-10
-5.1802e-10
-7.54355e-10
-6.10394e-10
6.22855e-10
3.98129e-09
1.04177e-08
1.97049e-08
2.84418e-08
2.73455e-08
-1.19438e-09
-8.32106e-08
-2.47725e-07
-5.12204e-07
-8.56366e-07
-1.18471e-06
-1.28259e-06
-7.74897e-07
9.01921e-07
4.50739e-06
1.09867e-05
2.14586e-05
3.72305e-05
5.9872e-05
9.13723e-05
0.000134382
0.000192518
0.000270679
0.000375339
0.000514768
0.000699189
0.000940877
0.00125424
0.00165588
0.00216463
0.00280151
0.00358954
0.00455336
0.00571857
0.00711089
0.00875503
0.0106734
0.0128846
0.0154018
0.0182314
0.0213711
0.0248092
0.028519
0.0324627
0.0365928
0.0408478
0.0451552
0.0494333
0.0535934
0.0575434
0.061191
0.0644478
0.067233
0.0694765
0.0711216
0.0721253
0.0724577
0.072099
0.0710348
0.069251
0.0667299
0.063449
0.0593859
0.0545301
0.0489023
0.0425786
0.0357137
0.028554
0.0214334
0.0147431
0.00887815
0.00416608
0.000798732
-0.00121378
-0.00204731
-0.00202
-0.00151099
-0.000867292
-0.000330352
-6.29726e-06
0.000115106
0.000108625
5.68098e-05
1.31009e-05
-5.9251e-06
-7.18596e-06
-2.91324e-06
-6.44826e-08
4.8528e-07
1.87743e-07
-2.07373e-08
-1.87766e-12
-8.8796e-11
-2.40073e-10
-4.53642e-10
-6.02752e-10
-3.47106e-10
9.43411e-10
4.10924e-09
9.7556e-09
1.72049e-08
2.27459e-08
1.74815e-08
-1.42054e-08
-9.36488e-08
-2.41728e-07
-4.64946e-07
-7.32535e-07
-9.46148e-07
-9.07155e-07
-2.89107e-07
1.37772e-06
4.70806e-06
1.04574e-05
1.95306e-05
3.30279e-05
5.23531e-05
7.93937e-05
0.000116766
0.000168098
0.000238318
0.000333922
0.000463204
0.000636474
0.00086627
0.00116758
0.00155806
0.00205822
0.0026915
0.0034842
0.00446517
0.00566528
0.00711662
0.00885138
0.0109005
0.0132921
0.0160496
0.0191897
0.0227204
0.0266392
0.0309315
0.0355646
0.0404917
0.0456533
0.0509727
0.056359
0.0617096
0.0669129
0.0718522
0.0764102
0.080474
0.0839403
0.0867201
0.0887429
0.0899593
0.0903416
0.0898828
0.0885913
0.0864851
0.0835831
0.0798978
0.0754308
0.0701757
0.0641286
0.0573102
0.0497943
0.0417374
0.0333996
0.0251436
0.0174046
0.0106284
0.00518842
0.00130231
-0.00102409
-0.00200233
-0.00200807
-0.00148217
-0.000819232
-0.00028329
2.09574e-05
0.000118078
9.62923e-05
4.22745e-05
4.63604e-06
-7.57134e-06
-5.58266e-06
-1.3803e-06
3.76784e-07
3.45929e-07
3.26344e-08
-6.13553e-11
-2.12062e-10
-3.81128e-10
-4.71825e-10
-1.78956e-10
1.03168e-09
3.82271e-09
8.55717e-09
1.43677e-08
1.76926e-08
1.06232e-08
-1.99862e-08
-9.10001e-08
-2.17004e-07
-3.98055e-07
-6.008e-07
-7.34949e-07
-6.29611e-07
-1.51253e-08
1.4858e-06
4.35943e-06
9.20486e-06
1.67579e-05
2.79556e-05
4.4057e-05
6.68243e-05
9.8753e-05
0.000143331
0.000205304
0.000290941
0.000408296
0.000567497
0.000781055
0.00106421
0.00143529
0.00191601
0.00253171
0.00331139
0.0042876
0.00549605
0.00697494
0.00876397
0.010903
0.0134304
0.0163812
0.0197843
0.0236608
0.0280208
0.0328615
0.0381649
0.0438916
0.049984
0.0563688
0.0629514
0.0696196
0.0762464
0.0826933
0.088815
0.0944648
0.0995007
0.103792
0.107225
0.109709
0.111181
0.111609
0.110991
0.109353
0.106744
0.103226
0.0988622
0.0937041
0.0877863
0.0811232
0.0737198
0.0655946
0.0568135
0.0475275
0.0380014
0.0286198
0.0198563
0.0122047
0.00608148
0.00172672
-0.000864067
-0.00194607
-0.00195963
-0.00141033
-0.000737203
-0.000218646
5.12578e-05
0.000116979
8.0046e-05
2.71465e-05
-2.09853e-06
-7.54858e-06
-3.5564e-06
-2.43137e-07
4.49797e-07
1.44843e-07
-1.49871e-10
-3.13289e-10
-3.6886e-10
-9.19374e-11
9.58439e-10
3.29982e-09
7.15074e-09
1.1645e-08
1.36465e-08
6.49586e-09
-2.04839e-08
-8.03766e-08
-1.83373e-07
-3.26594e-07
-4.79115e-07
-5.6415e-07
-4.4209e-07
1.01645e-07
1.36234e-06
3.71883e-06
7.64362e-06
1.37355e-05
2.27908e-05
3.59231e-05
5.47331e-05
8.1518e-05
0.000119507
0.000173113
0.000248202
0.000352391
0.000495389
0.000689392
0.00094953
0.00129432
0.00174613
0.00233149
0.00308141
0.00403136
0.00522116
0.00669448
0.00849809
0.0106806
0.0132909
0.0163761
0.0199792
0.024136
0.0288724
0.0342011
0.0401191
0.0466047
0.0536102
0.0610662
0.0688831
0.0769454
0.0851164
0.0932408
0.101149
0.108663
0.115602
0.12179
0.127066
0.131286
0.134334
0.136129
0.136627
0.135824
0.133757
0.130498
0.126147
0.120822
0.114638
0.107696
0.100071
0.0918014
0.0829011
0.0733835
0.0632999
0.0527864
0.0421031
0.0316476
0.0219257
0.0134752
0.00675218
0.00201325
-0.000764943
-0.00189127
-0.00187842
-0.00129778
-0.00062575
-0.000142717
7.92668e-05
0.000109556
6.05575e-05
1.31017e-05
-6.19757e-06
-6.04489e-06
-1.61549e-06
3.28155e-07
3.10414e-07
-2.30614e-10
-2.93882e-10
-6.05982e-11
7.95726e-10
2.68391e-09
5.75021e-09
9.24387e-09
1.05766e-08
4.36914e-09
-1.78345e-08
-6.61162e-08
-1.47801e-07
-2.59347e-07
-3.74773e-07
-4.32355e-07
-3.22445e-07
1.20916e-07
1.12429e-06
2.97916e-06
6.05553e-06
1.08375e-05
1.79929e-05
2.84848e-05
4.37236e-05
6.57543e-05
9.74707e-05
0.000142855
0.000207252
0.000297687
0.000423248
0.000595546
0.000829221
0.0011425
0.00155776
0.00210202
0.0028074
0.00371137
0.00485686
0.00629203
0.00806978
0.0102467
0.0128819
0.0160346
0.0197621
0.0241166
0.0291419
0.0348697
0.0413159
0.048477
0.0563272
0.0648098
0.0738414
0.0833138
0.0930876
0.102998
0.112856
0.122458
0.131588
0.140026
0.147559
0.153988
0.159137
0.162864
0.165062
0.165673
0.164686
0.16214
0.158123
0.152767
0.146234
0.138704
0.130356
0.121345
0.111788
0.101751
0.0912551
0.0803035
0.0689247
0.0572297
0.0454635
0.034028
0.0234555
0.0143231
0.00712155
0.00211611
-0.00074719
-0.00184342
-0.00176527
-0.00114774
-0.000492144
-6.40037e-05
9.9281e-05
9.46271e-05
3.96016e-05
1.98325e-06
-7.31438e-06
-3.71486e-06
-2.49381e-07
4.72838e-07
-2.45133e-10
-6.16391e-11
6.01257e-10
2.07275e-09
4.47359e-09
7.21865e-09
8.2836e-09
3.46899e-09
-1.37954e-08
-5.12774e-08
-1.14498e-07
-2.00468e-07
-2.88915e-07
-3.32402e-07
-2.4751e-07
9.11604e-08
8.54528e-07
2.26411e-06
4.60659e-06
8.26814e-06
1.37981e-05
2.20073e-05
3.41015e-05
5.1846e-05
7.77593e-05
0.000115339
0.000169333
0.000246067
0.000353849
0.000503458
0.000708709
0.000987071
0.00136033
0.00185523
0.00250411
0.00334536
0.00442383
0.00579089
0.00750426
0.0096273
0.012228
0.015377
0.0191458
0.0236032
0.0288121
0.0348255
0.0416816
0.0494002
0.0579775
0.067383
0.0775498
0.0883789
0.0997408
0.111469
0.123366
0.135208
0.146748
0.157727
0.167884
0.176961
0.184718
0.190945
0.195466
0.19815
0.198923
0.197762
0.194709
0.189861
0.18337
0.175438
0.166297
0.156198
0.145386
0.134072
0.122417
0.110511
0.0983798
0.0860083
0.0733931
0.0606098
0.0478782
0.035597
0.0243199
0.0146598
0.00713593
0.00201109
-0.000814933
-0.00179826
-0.00161794
-0.000965051
-0.000346663
7.56975e-06
0.000106542
7.29107e-05
1.99472e-05
-4.77008e-06
-5.93176e-06
-1.47346e-06
5.00751e-07
-1.36498e-10
4.15014e-10
1.5239e-09
3.37349e-09
5.54943e-09
6.5438e-09
3.17696e-09
-9.57317e-09
-3.77012e-08
-8.55812e-08
-1.51254e-07
-2.19863e-07
-2.56335e-07
-1.98921e-07
4.52195e-08
6.03011e-07
1.64054e-06
3.37681e-06
6.11439e-06
1.02946e-05
1.65815e-05
2.59761e-05
3.99591e-05
6.06635e-05
9.10839e-05
0.000135335
0.000198978
0.000289426
0.000416442
0.000592732
0.000834606
0.00116272
0.00160284
0.0021866
0.00295225
0.00394524
0.00521869
0.00683346
0.00885798
0.0113674
0.0144425
0.0181673
0.0226267
0.0279026
0.0340702
0.0411926
0.0493161
0.0584644
0.0686339
0.0797886
0.0918508
0.104704
0.118195
0.132126
0.146265
0.160345
0.174073
0.187144
0.199244
0.21007
0.219335
0.226788
0.232219
0.235472
0.236452
0.235129
0.231544
0.225802
0.218078
0.2086
0.197646
0.185525
0.17256
0.15906
0.145291
0.131452
0.117655
0.10392
0.0902063
0.0764688
0.062737
0.0491973
0.03624
0.0244377
0.0144362
0.00677585
0.00170159
-0.000953034
-0.00174179
-0.0014328
-0.000757722
-0.000202552
6.21409e-05
9.88101e-05
4.74361e-05
4.6691e-06
-6.80686e-06
-3.30809e-06
1.89869e-07
1.21706e-10
1.07117e-09
2.46348e-09
4.19103e-09
5.17681e-09
3.08431e-09
-5.86279e-09
-2.62886e-08
-6.17886e-08
-1.11464e-07
-1.65062e-07
-1.97564e-07
-1.64395e-07
1.89187e-09
3.94097e-07
1.13491e-06
2.38881e-06
4.38789e-06
7.47774e-06
1.21874e-05
1.93246e-05
3.00976e-05
4.62667e-05
7.03326e-05
0.000105777
0.000157371
0.00023157
0.000337002
0.000485058
0.000690583
0.000972653
0.00135543
0.00186905
0.00255057
0.00344475
0.00460485
0.00609314
0.00798101
0.0103488
0.0132847
0.0168837
0.0212446
0.0264674
0.0326488
0.0398773
0.0482279
0.0577554
0.0684887
0.080424
0.0935198
0.107686
0.122788
0.138646
0.155028
0.171662
0.188234
0.204403
0.219806
0.234077
0.246858
0.257812
0.266641
0.273098
0.276998
0.278227
0.276747
0.2726
0.265905
0.256855
0.245709
0.232783
0.218436
0.203053
0.187024
0.170717
0.154446
0.138441
0.12282
0.107594
0.0926841
0.0779926
0.0634947
0.0493376
0.035902
0.0237804
0.0136497
0.00606091
0.00122092
-0.00112795
-0.00165347
-0.00120834
-0.000538578
-7.50424e-05
9.21852e-05
7.77169e-05
2.30619e-05
-4.05354e-06
-5.25085e-06
-6.82534e-07
5.05263e-10
1.74958e-09
3.09633e-09
4.06248e-09
2.96943e-09
-2.96984e-09
-1.7304e-08
-4.30387e-08
-8.01429e-08
-1.21994e-07
-1.51366e-07
-1.36857e-07
-3.03607e-08
2.34916e-07
7.48167e-07
1.6306e-06
3.05618e-06
5.28852e-06
8.73742e-06
1.4037e-05
2.21477e-05
3.44852e-05
5.30872e-05
8.08293e-05
0.000121708
0.000181208
0.000266768
0.000388347
0.000559117
0.00079625
0.00112182
0.00156379
0.00215707
0.00294456
0.00397817
0.00531967
0.00704129
0.00922594
0.0119669
0.0153669
0.0195363
0.0245902
0.0306451
0.0378138
0.0462
0.0558915
0.066953
0.0794187
0.0932853
0.108505
0.124976
0.142542
0.160993
0.180065
0.199438
0.218749
0.237601
0.255572
0.272236
0.287173
0.299993
0.310346
0.317944
0.32257
0.324088
0.322453
0.317712
0.309997
0.299528
0.286598
0.271561
0.254824
0.236826
0.218023
0.198863
0.179761
0.161064
0.143018
0.125743
0.109219
0.0933233
0.0778944
0.0628468
0.0482877
0.0345915
0.0223754
0.0123459
0.00505026
0.000629994
-0.00129283
-0.00151241
-0.00094969
-0.000325896
2.11556e-05
9.51728e-05
4.90887e-05
4.86371e-06
-6.14506e-06
-2.23248e-06
9.3883e-10
2.24575e-09
3.13117e-09
2.74688e-09
-9.4236e-10
-1.06286e-08
-2.88197e-08
-5.60864e-08
-8.84899e-08
-1.14617e-07
-1.12888e-07
-4.96203e-08
1.22499e-07
4.67237e-07
1.07214e-06
2.06452e-06
3.64011e-06
6.1077e-06
9.95181e-06
1.59159e-05
2.51107e-05
3.91563e-05
6.03708e-05
9.20217e-05
0.000138657
0.000206531
0.000304142
0.000442883
0.000637824
0.000908623
0.00128056
0.00178566
0.00246395
0.00336461
0.00454722
0.00608267
0.00805394
0.0105563
0.0136972
0.0175946
0.0223757
0.0281734
0.0351219
0.0433518
0.0529829
0.0641172
0.07683
0.091162
0.10711
0.124621
0.143578
0.163805
0.185061
0.20704
0.229378
0.251657
0.273417
0.294176
0.31344
0.330725
0.345579
0.357598
0.366448
0.371876
0.373725
0.37194
0.366572
0.357774
0.345792
0.330961
0.313682
0.294411
0.273641
0.251886
0.229658
0.207449
0.185704
0.164787
0.144943
0.126275
0.108724
0.0921085
0.0761961
0.0608383
0.0461062
0.0323779
0.0203034
0.0106161
0.00383813
1.01666e-05
-0.00139656
-0.00130546
-0.000672156
-0.000141707
7.58636e-05
7.55265e-05
2.1443e-05
-4.21035e-06
-4.28376e-06
1.31612e-09
2.37482e-09
2.41256e-09
3.18275e-10
-5.94443e-09
-1.84332e-08
-3.80624e-08
-6.27648e-08
-8.53078e-08
-9.12557e-08
-5.74741e-08
4.90127e-08
2.73033e-07
6.76555e-07
1.35048e-06
2.43627e-06
4.16026e-06
6.88274e-06
1.11645e-05
1.78554e-05
2.82123e-05
4.40591e-05
6.80029e-05
0.000103724
0.000156355
0.000232966
0.000343172
0.000499871
0.000720131
0.00102622
0.00144679
0.00201816
0.00278574
0.00380535
0.00514467
0.00688426
0.00911849
0.0119558
0.0155183
0.0199408
0.025368
0.0319517
0.0398453
0.049198
0.0601474
0.0728103
0.0872741
0.103586
0.121744
0.141689
0.16329
0.186347
0.210588
0.235666
0.261166
0.286611
0.31148
0.33522
0.357268
0.377072
0.394113
0.407929
0.418135
0.42444
0.426663
0.424738
0.41872
0.408782
0.395206
0.378367
0.358721
0.336783
0.313104
0.288258
0.262814
0.237327
0.212311
0.188219
0.165412
0.144117
0.124402
0.106156
0.0891265
0.073007
0.0575873
0.0429138
0.0293842
0.0176923
0.00859063
0.00254494
-0.000548284
-0.00139576
-0.00103512
-0.000401971
-6.9953e-06
8.78608e-05
4.43009e-05
2.53292e-06
-6.17777e-06
1.53231e-09
2.03214e-09
9.73801e-10
-2.85737e-09
-1.11396e-08