# vtk DataFile Version 3.0
Malha 2D com triângulos e temperatura
ASCII
DATASET UNSTRUCTURED_GRID

POINTS 10000 double
0 0 0
1 0 0
1 2 0
0 2 0
0.010101 0 0
0.020202 0 0
0.030303 0 0
0.040404 0 0
0.0505051 0 0
0.0606061 0 0
0.0707071 0 0
0.0808081 0 0
0.0909091 0 0
0.10101 0 0
0.111111 0 0
0.121212 0 0
0.131313 0 0
0.141414 0 0
0.151515 0 0
0.161616 0 0
0.171717 0 0
0.181818 0 0
0.191919 0 0
0.20202 0 0
0.212121 0 0
0.222222 0 0
0.232323 0 0
0.242424 0 0
0.252525 0 0
0.262626 0 0
0.272727 0 0
0.282828 0 0
0.292929 0 0
0.30303 0 0
0.313131 0 0
0.323232 0 0
0.333333 0 0
0.343434 0 0
0.353535 0 0
0.363636 0 0
0.373737 0 0
0.383838 0 0
0.393939 0 0
0.40404 0 0
0.414141 0 0
0.424242 0 0
0.434343 0 0
0.444444 0 0
0.454545 0 0
0.464646 0 0
0.474747 0 0
0.484848 0 0
0.494949 0 0
0.505051 0 0
0.515152 0 0
0.525253 0 0
0.535354 0 0
0.545455 0 0
0.555556 0 0
0.565657 0 0
0.575758 0 0
0.585859 0 0
0.59596 0 0
0.606061 0 0
0.616162 0 0
0.626263 0 0
0.636364 0 0
0.646465 0 0
0.656566 0 0
0.666667 0 0
0.676768 0 0
0.686869 0 0
0.69697 0 0
0.707071 0 0
0.717172 0 0
0.727273 0 0
0.737374 0 0
0.747475 0 0
0.757576 0 0
0.767677 0 0
0.777778 0 0
0.787879 0 0
0.79798 0 0
0.808081 0 0
0.818182 0 0
0.828283 0 0
0.838384 0 0
0.848485 0 0
0.858586 0 0
0.868687 0 0
0.878788 0 0
0.888889 0 0
0.89899 0 0
0.909091 0 0
0.919192 0 0
0.929293 0 0
0.939394 0 0
0.949495 0 0
0.959596 0 0
0.969697 0 0
0.979798 0 0
0.989899 0 0
1 0.020202 0
1 0.040404 0
1 0.0606061 0
1 0.0808081 0
1 0.10101 0
1 0.121212 0
1 0.141414 0
1 0.161616 0
1 0.181818 0
1 0.20202 0
1 0.222222 0
1 0.242424 0
1 0.262626 0
1 0.282828 0
1 0.30303 0
1 0.323232 0
1 0.343434 0
1 0.363636 0
1 0.383838 0
1 0.40404 0
1 0.424242 0
1 0.444444 0
1 0.464646 0
1 0.484848 0
1 0.505051 0
1 0.525253 0
1 0.545455 0
1 0.565657 0
1 0.585859 0
1 0.606061 0
1 0.626263 0
1 0.646465 0
1 0.666667 0
1 0.686869 0
1 0.707071 0
1 0.727273 0
1 0.747475 0
1 0.767677 0
1 0.787879 0
1 0.808081 0
1 0.828283 0
1 0.848485 0
1 0.868687 0
1 0.888889 0
1 0.909091 0
1 0.929293 0
1 0.949495 0
1 0.969697 0
1 0.989899 0
1 1.0101 0
1 1.0303 0
1 1.05051 0
1 1.07071 0
1 1.09091 0
1 1.11111 0
1 1.13131 0
1 1.15152 0
1 1.17172 0
1 1.19192 0
1 1.21212 0
1 1.23232 0
1 1.25253 0
1 1.27273 0
1 1.29293 0
1 1.31313 0
1 1.33333 0
1 1.35354 0
1 1.37374 0
1 1.39394 0
1 1.41414 0
1 1.43434 0
1 1.45455 0
1 1.47475 0
1 1.49495 0
1 1.51515 0
1 1.53535 0
1 1.55556 0
1 1.57576 0
1 1.59596 0
1 1.61616 0
1 1.63636 0
1 1.65657 0
1 1.67677 0
1 1.69697 0
1 1.71717 0
1 1.73737 0
1 1.75758 0
1 1.77778 0
1 1.79798 0
1 1.81818 0
1 1.83838 0
1 1.85859 0
1 1.87879 0
1 1.89899 0
1 1.91919 0
1 1.93939 0
1 1.9596 0
1 1.9798 0
0.989899 2 0
0.979798 2 0
0.969697 2 0
0.959596 2 0
0.949495 2 0
0.939394 2 0
0.929293 2 0
0.919192 2 0
0.909091 2 0
0.89899 2 0
0.888889 2 0
0.878788 2 0
0.868687 2 0
0.858586 2 0
0.848485 2 0
0.838384 2 0
0.828283 2 0
0.818182 2 0
0.808081 2 0
0.79798 2 0
0.787879 2 0
0.777778 2 0
0.767677 2 0
0.757576 2 0
0.747475 2 0
0.737374 2 0
0.727273 2 0
0.717172 2 0
0.707071 2 0
0.69697 2 0
0.686869 2 0
0.676768 2 0
0.666667 2 0
0.656566 2 0
0.646465 2 0
0.636364 2 0
0.626263 2 0
0.616162 2 0
0.606061 2 0
0.59596 2 0
0.585859 2 0
0.575758 2 0
0.565657 2 0
0.555556 2 0
0.545455 2 0
0.535354 2 0
0.525253 2 0
0.515152 2 0
0.505051 2 0
0.494949 2 0
0.484848 2 0
0.474747 2 0
0.464646 2 0
0.454545 2 0
0.444444 2 0
0.434343 2 0
0.424242 2 0
0.414141 2 0
0.40404 2 0
0.393939 2 0
0.383838 2 0
0.373737 2 0
0.363636 2 0
0.353535 2 0
0.343434 2 0
0.333333 2 0
0.323232 2 0
0.313131 2 0
0.30303 2 0
0.292929 2 0
0.282828 2 0
0.272727 2 0
0.262626 2 0
0.252525 2 0
0.242424 2 0
0.232323 2 0
0.222222 2 0
0.212121 2 0
0.20202 2 0
0.191919 2 0
0.181818 2 0
0.171717 2 0
0.161616 2 0
0.151515 2 0
0.141414 2 0
0.131313 2 0
0.121212 2 0
0.111111 2 0
0.10101 2 0
0.0909091 2 0
0.0808081 2 0
0.0707071 2 0
0.0606061 2 0
0.0505051 2 0
0.040404 2 0
0.030303 2 0
0.020202 2 0
0.010101 2 0
0 1.9798 0
0 1.9596 0
0 1.93939 0
0 1.91919 0
0 1.89899 0
0 1.87879 0
0 1.85859 0
0 1.83838 0
0 1.81818 0
0 1.79798 0
0 1.77778 0
0 1.75758 0
0 1.73737 0
0 1.71717 0
0 1.69697 0
0 1.67677 0
0 1.65657 0
0 1.63636 0
0 1.61616 0
0 1.59596 0
0 1.57576 0
0 1.55556 0
0 1.53535 0
0 1.51515 0
0 1.49495 0
0 1.47475 0
0 1.45455 0
0 1.43434 0
0 1.41414 0
0 1.39394 0
0 1.37374 0
0 1.35354 0
0 1.33333 0
0 1.31313 0
0 1.29293 0
0 1.27273 0
0 1.25253 0
0 1.23232 0
0 1.21212 0
0 1.19192 0
0 1.17172 0
0 1.15152 0
0 1.13131 0
0 1.11111 0
0 1.09091 0
0 1.07071 0
0 1.05051 0
0 1.0303 0
0 1.0101 0
0 0.989899 0
0 0.969697 0
0 0.949495 0
0 0.929293 0
0 0.909091 0
0 0.888889 0
0 0.868687 0
0 0.848485 0
0 0.828283 0
0 0.808081 0
0 0.787879 0
0 0.767677 0
0 0.747475 0
0 0.727273 0
0 0.707071 0
0 0.686869 0
0 0.666667 0
0 0.646465 0
0 0.626263 0
0 0.606061 0
0 0.585859 0
0 0.565657 0
0 0.545455 0
0 0.525253 0
0 0.505051 0
0 0.484848 0
0 0.464646 0
0 0.444444 0
0 0.424242 0
0 0.40404 0
0 0.383838 0
0 0.363636 0
0 0.343434 0
0 0.323232 0
0 0.30303 0
0 0.282828 0
0 0.262626 0
0 0.242424 0
0 0.222222 0
0 0.20202 0
0 0.181818 0
0 0.161616 0
0 0.141414 0
0 0.121212 0
0 0.10101 0
0 0.0808081 0
0 0.0606061 0
0 0.040404 0
0 0.020202 0
0.010101 0.020202 0
0.010101 0.040404 0
0.010101 0.0606061 0
0.010101 0.0808081 0
0.010101 0.10101 0
0.010101 0.121212 0
0.010101 0.141414 0
0.010101 0.161616 0
0.010101 0.181818 0
0.010101 0.20202 0
0.010101 0.222222 0
0.010101 0.242424 0
0.010101 0.262626 0
0.010101 0.282828 0
0.010101 0.30303 0
0.010101 0.323232 0
0.010101 0.343434 0
0.010101 0.363636 0
0.010101 0.383838 0
0.010101 0.40404 0
0.010101 0.424242 0
0.010101 0.444444 0
0.010101 0.464646 0
0.010101 0.484848 0
0.010101 0.505051 0
0.010101 0.525253 0
0.010101 0.545455 0
0.010101 0.565657 0
0.010101 0.585859 0
0.010101 0.606061 0
0.010101 0.626263 0
0.010101 0.646465 0
0.010101 0.666667 0
0.010101 0.686869 0
0.010101 0.707071 0
0.010101 0.727273 0
0.010101 0.747475 0
0.010101 0.767677 0
0.010101 0.787879 0
0.010101 0.808081 0
0.010101 0.828283 0
0.010101 0.848485 0
0.010101 0.868687 0
0.010101 0.888889 0
0.010101 0.909091 0
0.010101 0.929293 0
0.010101 0.949495 0
0.010101 0.969697 0
0.010101 0.989899 0
0.010101 1.0101 0
0.010101 1.0303 0
0.010101 1.05051 0
0.010101 1.07071 0
0.010101 1.09091 0
0.010101 1.11111 0
0.010101 1.13131 0
0.010101 1.15152 0
0.010101 1.17172 0
0.010101 1.19192 0
0.010101 1.21212 0
0.010101 1.23232 0
0.010101 1.25253 0
0.010101 1.27273 0
0.010101 1.29293 0
0.010101 1.31313 0
0.010101 1.33333 0
0.010101 1.35354 0
0.010101 1.37374 0
0.010101 1.39394 0
0.010101 1.41414 0
0.010101 1.43434 0
0.010101 1.45455 0
0.010101 1.47475 0
0.010101 1.49495 0
0.010101 1.51515 0
0.010101 1.53535 0
0.010101 1.55556 0
0.010101 1.57576 0
0.010101 1.59596 0
0.010101 1.61616 0
0.010101 1.63636 0
0.010101 1.65657 0
0.010101 1.67677 0
0.010101 1.69697 0
0.010101 1.71717 0
0.010101 1.73737 0
0.010101 1.75758 0
0.010101 1.77778 0
0.010101 1.79798 0
0.010101 1.81818 0
0.010101 1.83838 0
0.010101 1.85859 0
0.010101 1.87879 0
0.010101 1.89899 0
0.010101 1.91919 0
0.010101 1.93939 0
0.010101 1.9596 0
0.010101 1.9798 0
0.020202 0.020202 0
0.020202 0.040404 0
0.020202 0.0606061 0
0.020202 0.0808081 0
0.020202 0.10101 0
0.020202 0.121212 0
0.020202 0.141414 0
0.020202 0.161616 0
0.020202 0.181818 0
0.020202 0.20202 0
0.020202 0.222222 0
0.020202 0.242424 0
0.020202 0.262626 0
0.020202 0.282828 0
0.020202 0.30303 0
0.020202 0.323232 0
0.020202 0.343434 0
0.020202 0.363636 0
0.020202 0.383838 0
0.020202 0.40404 0
0.020202 0.424242 0
0.020202 0.444444 0
0.020202 0.464646 0
0.020202 0.484848 0
0.020202 0.505051 0
0.020202 0.525253 0
0.020202 0.545455 0
0.020202 0.565657 0
0.020202 0.585859 0
0.020202 0.606061 0
0.020202 0.626263 0
0.020202 0.646465 0
0.020202 0.666667 0
0.020202 0.686869 0
0.020202 0.707071 0
0.020202 0.727273 0
0.020202 0.747475 0
0.020202 0.767677 0
0.020202 0.787879 0
0.020202 0.808081 0
0.020202 0.828283 0
0.020202 0.848485 0
0.020202 0.868687 0
0.020202 0.888889 0
0.020202 0.909091 0
0.020202 0.929293 0
0.020202 0.949495 0
0.020202 0.969697 0
0.020202 0.989899 0
0.020202 1.0101 0
0.020202 1.0303 0
0.020202 1.05051 0
0.020202 1.07071 0
0.020202 1.09091 0
0.020202 1.11111 0
0.020202 1.13131 0
0.020202 1.15152 0
0.020202 1.17172 0
0.020202 1.19192 0
0.020202 1.21212 0
0.020202 1.23232 0
0.020202 1.25253 0
0.020202 1.27273 0
0.020202 1.29293 0
0.020202 1.31313 0
0.020202 1.33333 0
0.020202 1.35354 0
0.020202 1.37374 0
0.020202 1.39394 0
0.020202 1.41414 0
0.020202 1.43434 0
0.020202 1.45455 0
0.020202 1.47475 0
0.020202 1.49495 0
0.020202 1.51515 0
0.020202 1.53535 0
0.020202 1.55556 0
0.020202 1.57576 0
0.020202 1.59596 0
0.020202 1.61616 0
0.020202 1.63636 0
0.020202 1.65657 0
0.020202 1.67677 0
0.020202 1.69697 0
0.020202 1.71717 0
0.020202 1.73737 0
0.020202 1.75758 0
0.020202 1.77778 0
0.020202 1.79798 0
0.020202 1.81818 0
0.020202 1.83838 0
0.020202 1.85859 0
0.020202 1.87879 0
0.020202 1.89899 0
0.020202 1.91919 0
0.020202 1.93939 0
0.020202 1.9596 0
0.020202 1.9798 0
0.030303 0.020202 0
0.030303 0.040404 0
0.030303 0.0606061 0
0.030303 0.0808081 0
0.030303 0.10101 0
0.030303 0.121212 0
0.030303 0.141414 0
0.030303 0.161616 0
0.030303 0.181818 0
0.030303 0.20202 0
0.030303 0.222222 0
0.030303 0.242424 0
0.030303 0.262626 0
0.030303 0.282828 0
0.030303 0.30303 0
0.030303 0.323232 0
0.030303 0.343434 0
0.030303 0.363636 0
0.030303 0.383838 0
0.030303 0.40404 0
0.030303 0.424242 0
0.030303 0.444444 0
0.030303 0.464646 0
0.030303 0.484848 0
0.030303 0.505051 0
0.030303 0.525253 0
0.030303 0.545455 0
0.030303 0.565657 0
0.030303 0.585859 0
0.030303 0.606061 0
0.030303 0.626263 0
0.030303 0.646465 0
0.030303 0.666667 0
0.030303 0.686869 0
0.030303 0.707071 0
0.030303 0.727273 0
0.030303 0.747475 0
0.030303 0.767677 0
0.030303 0.787879 0
0.030303 0.808081 0
0.030303 0.828283 0
0.030303 0.848485 0
0.030303 0.868687 0
0.030303 0.888889 0
0.030303 0.909091 0
0.030303 0.929293 0
0.030303 0.949495 0
0.030303 0.969697 0
0.030303 0.989899 0
0.030303 1.0101 0
0.030303 1.0303 0
0.030303 1.05051 0
0.030303 1.07071 0
[...]
CELL_DATA 9801
SCALARS Temperatura double 1
LOOKUP_TABLE default
0.0992756
0.0989514
0.0983907
0.097631
0.096696
0.0956039
0.0943698
0.0930068
0.0915269
0.0899407
0.0882577
0.0864867
0.0846358
0.082712
0.080722
0.0786717
0.0765664
0.074411
0.0722099
0.0699674
0.0676869
0.0653721
0.0630262
0.0606526
0.0582637
0.0560293
0.0539275
0.0518931
0.0498896
0.0478952
0.0458965
0.0438845
0.0418534
0.0397991
0.0377185
0.0356095
0.0334705
0.0313
0.0290969
0.0268599
0.0245875
0.0222779
0.0199287
0.0175365
0.0150971
0.0126088
0.0100887
0.00762951
0.00554278
0.00457129
0.00554278
0.00762951
0.0100887
0.0126088
0.0150971
0.0175365
0.0199287
0.0222779
0.0245875
0.0268599
0.0290969
0.0313
0.0334705
0.0356095
0.0377185
0.0397991
0.0418534
0.0438845
0.0458965
0.0478952
0.0498896
0.0518931
0.0539275
0.0560293
0.0582637
0.0606526
0.0630262
0.0653721
0.0676869
0.0699674
0.0722099
0.074411
0.0765664
0.0786717
0.080722
0.082712
0.0846358
0.0864867
0.0882577
0.0899407
0.0915269
0.0930068
0.0943698
0.0956039
0.096696
0.097631
0.0983907
0.0989514
0.0992756
0.270536
0.269684
0.268227
0.266272
0.263886
0.261121
0.258017
0.25461
0.250931
0.247005
0.242857
0.238505
0.233967
0.229258
0.224389
0.219372
0.214214
0.208922
0.203502
0.197958
0.192292
0.186509
0.180609
0.174596
0.168483
0.162448
0.156509
0.15062
0.144746
0.138864
0.132953
0.127001
0.120998
0.114938
0.108814
0.102622
0.0963601
0.0900237
0.0836099
0.0771152
0.0705351
0.0638636
0.0570929
0.0502119
0.0432075
0.0360734
0.0288564
0.0218199
0.0158528
0.0130758
0.0158528
0.0218199
0.0288564
0.0360734
0.0432075
0.0502119
0.0570929
0.0638636
0.0705351
0.0771152
0.0836099
0.0900237
0.0963601
0.102622
0.108814
0.114938
0.120998
0.127001
0.132953
0.138864
0.144746
0.15062
0.156509
0.162448
0.168483
0.174596
0.180609
0.186509
0.192292
0.197958
0.203502
0.208922
0.214214
0.219372
0.224389
0.229258
0.233967
0.238505
0.242857
0.247005
0.250931
0.25461
0.258017
0.261121
0.263886
0.266272
0.268227
0.269684
0.270536
0.400532
0.399257
0.397101
0.394243
0.390796
0.386843
0.382454
0.377686
0.372588
0.367199
0.361553
0.355678
0.349596
0.343324
0.336874
0.330254
0.323469
0.31652
0.309405
0.302121
0.294662
0.287018
0.279183
0.271146
0.262904
0.254534
0.246062
0.237479
0.228778
0.219952
0.210992
0.201896
0.192657
0.183274
0.173743
0.164062
0.15423
0.144244
0.134102
0.1238
0.113333
0.102695
0.0918734
0.0808536
0.069616
0.0581524
0.0465409
0.0352089
0.025594
0.021119
0.025594
0.0352089
0.0465409
0.0581524
0.069616
0.0808536
0.0918734
0.102695
0.113333
0.1238
0.134102
0.144244
0.15423
0.164062
0.173743
0.183274
0.192657
0.201896
0.210992
0.219952
0.228778
0.237479
0.246062
0.254534
0.262904
0.271146
0.279183
0.287018
0.294662
0.302121
0.309405
0.31652
0.323469
0.330254
0.336874
0.343324
0.349596
0.355678
0.361553
0.367199
0.372588
0.377686
0.382454
0.386843
0.390796
0.394243
0.397101
0.399257
0.400532
0.488725
0.487075
0.484318
0.480709
0.476413
0.471555
0.466234
0.460536
0.454528
0.448267
0.441799
0.43516
0.428377
0.421467
0.414443
0.407308
0.40006
0.392692
0.385192
0.377542
0.369724
0.361712
0.35348
0.345
0.336238
0.327144
0.317717
0.307965
0.297894
0.287508
0.276809
0.265799
0.254478
0.242847
0.230908
0.218662
0.206109
0.19325
0.180086
0.166617
0.15284
0.138751
0.12434
0.109593
0.0944883
0.0790226
0.0633093
0.0479395
0.0348809
0.0288005
0.0348809
0.0479395
0.0633093
0.0790226
0.0944883
0.109593
0.12434
0.138751
0.15284
0.166617
0.180086
0.19325
0.206109
0.218662
0.230908
0.242847
0.254478
0.265799
0.276809
0.287508
0.297894
0.307965
0.317717
0.327144
0.336238
0.345
0.35348
0.361712
0.369724
0.377542
0.385192
0.392692
0.40006
0.407308
0.414443
0.421467
0.428377
0.43516
0.441799
0.448267
0.454528
0.460536
0.466234
0.471555
0.476413
0.480709
0.484318
0.487075
0.488725
0.542927
0.540889
0.53752
0.533159
0.528033
0.522317
0.51615
0.509647
0.502904
0.495998
0.48899
0.481927
0.474844
0.467762
0.460692
0.453638
0.446591
0.439538
0.432456
0.425318
0.41809
0.410731
0.403197
0.395437
0.38739
0.378888
0.369886
0.36038
0.350366
0.339836
0.328786
0.31721
0.305101
0.292457
0.279274
0.265551
0.251288
0.236486
0.221148
0.205277
0.188874
0.171941
0.154474
0.136463
0.117893
0.0987699
0.0792506
0.0600922
0.0437808
0.0361803
0.0437808
0.0600922
0.0792506
0.0987699
0.117893
0.136463
0.154474
0.171941
0.188874
0.205277
0.221148
0.236486
0.251288
0.265551
0.279274
0.292457
0.305101
0.31721
0.328786
0.339836
0.350366
0.36038
0.369886
0.378888
0.38739
0.395437
0.403197
0.410731
0.41809
0.425318
0.432456
0.439538
0.446591
0.453638
0.460692
0.467762
0.474844
0.481927
0.48899
0.495998
0.502904
0.509647
0.51615
0.522317
0.528033
0.533159
0.53752
0.540889
0.542927
0.573502
0.571026
0.566958
0.561742
0.555676
0.548991
0.541875
0.534481
0.526937
0.519345
0.511783
0.504313
0.496978
0.489806
0.482811
0.475996
0.469353
0.462863
0.456498
0.450225
0.443999
0.43777
0.43148
0.425062
0.418429
0.41134
0.403698
0.395467
0.38661
0.377091
0.366876
0.355933
0.344233
0.331751
0.318465
0.304361
0.289426
0.273652
0.257039
0.239586
0.221299
0.202181
0.182236
0.161462
0.139854
0.117436
0.0944138
0.0717145
0.0523355
0.0432969
0.0523355
0.0717145
0.0944138
0.117436
0.139854
0.161462
0.182236
0.202181
0.221299
0.239586
0.257039
0.273652
0.289426
0.304361
0.318465
0.331751
0.344233
0.355933
0.366876
0.377091
0.38661
0.395467
0.403698
0.41134
0.418429
0.425062
0.43148
0.43777
0.443999
0.450225
0.456498
0.462863
0.469353
0.475996
0.482811
0.489806
0.496978
0.504313
0.511783
0.519345
0.526937
0.534481
0.541875
0.548991
0.555676
0.561742
0.566958
0.571026
0.573502
0.589588
0.586604
0.581727
0.57551
0.568338
0.560509
0.552266
0.543807
0.535292
0.526851
0.518583
0.510563
0.502844
0.495461
0.488431
0.481758
0.475434
0.469441
0.463749
0.458321
0.453109
0.44806
0.443109
0.438181
0.433178
0.427826
0.421989
0.41559
0.408552
0.400797
0.392247
0.38283
0.372477
0.361124
0.348716
0.335204
0.320549
0.304723
0.287705
0.269484
0.250057
0.229427
0.207601
0.184584
0.160384
0.135044
0.108827
0.0828355
0.060572
0.0501758
0.060572
0.0828355
0.108827
0.135044
0.160384
0.184584
0.207601
0.229427
0.250057
0.269484
0.287705
0.304723
0.320549
0.335204
0.348716
0.361124
0.372477
0.38283
0.392247
0.400797
0.408552
0.41559
0.421989
0.427826
0.433178
0.438181
0.443109
0.44806
0.453109
0.458321
0.463749
0.469441
0.475434
0.481758
0.488431
0.495461
0.502844
0.510563
0.518583
0.526851
0.535292
0.543807
0.552266
0.560509
0.568338
0.57551
0.581727
0.586604
0.589588
0.597679
0.594123
0.588322
0.580961
0.57252
0.563374
0.553828
0.544127
0.53447
0.525013
0.515873
0.507139
0.498871
0.491107
0.483867
0.477155
0.470963
0.465272
0.460053
0.455268
0.450871
0.44681
0.443021
0.43943
0.435939
0.432279
0.428292
0.42387
0.418896
0.413251
0.406811
0.399455
0.391064
0.381524
0.37073
0.358584
0.345005
0.329921
0.31328
0.295041
0.275182
0.253693
0.230574
0.205834
0.17949
0.151608
0.122508
0.0934739
0.0685084
0.0568346
0.0685084
0.0934739
0.122508
0.151608
0.17949
0.205834
0.230574
0.253693
0.275182
0.295041
0.31328
0.329921
0.345005
0.358584
0.37073
0.381524
0.391064
0.399455
0.406811
0.413251
0.418896
0.42387
0.428292
0.432279
0.435939
0.43943
0.443021
0.44681
0.450871
0.455268
0.460053
0.465272
0.470963
0.477155
0.483867
0.491107
0.498871
0.507139
0.515873
0.525013
0.53447
0.544127
0.553828
0.563374
0.57252
0.580961
0.588322
0.594123
0.597679
0.601754
0.597565
0.59074
0.58211
0.572263
0.56166
0.550673
0.539601
0.528678
0.518087
0.507962
0.4984
0.489463
0.48119
0.4736
0.466693
0.460458
0.454874
0.449912
0.445535
0.441699
0.438355
0.435446
0.432903
0.430638
0.428415
0.426073
0.423484
0.420508
0.416991
0.412772
0.407684
0.401557
0.394222
0.385514
0.375277
0.363368
0.34966
0.334048
0.316446
0.296792
0.275048
0.251197
0.225237
0.19719
0.167141
0.13547
0.103643
0.0761574
0.0632857
0.0761574
0.103643
0.13547
0.167141
0.19719
0.225237
0.251197
0.275048
0.296792
0.316446
0.334048
0.34966
0.363368
0.375277
0.385514
0.394222
0.401557
0.407684
0.412772
0.416991
0.420508
0.423484
0.426073
0.428415
0.430638
0.432903
0.435446
0.438355
0.441699
0.445535
0.449912
0.454874
0.460458
0.466693
0.4736
0.48119
0.489463
0.4984
0.507962
0.518087
0.528678
0.539601
0.550673
0.56166
0.572263
0.58211
0.59074
0.597565
0.601754
0.603975
0.599102
0.591169
0.581167
0.569806
0.557643
0.545124
0.532602
0.52035
0.508572
0.497416
0.486979
0.477326
0.468488
0.460477
0.453287
0.446899
0.441287
0.43642
0.432259
0.428763
0.425887
0.423579
0.421783
0.420422
0.419306
0.418287
0.417237
0.416002
0.414416
0.41229
0.409424
0.405605
0.40061
0.394217
0.386203
0.376358
0.364484
0.350406
0.333974
0.315072
0.293611
0.26954
0.242836
0.213509
0.181659
0.147725
0.113352
0.0835282
0.0695386
0.0835282
0.113352
0.147725
0.181659
0.213509
0.242836
0.26954
0.293611
0.315072
0.333974
0.350406
0.364484
0.376358
0.386203
0.394217
0.40061
0.405605
0.409424
0.41229
0.414416
0.416002
0.417237
0.418287
0.419306
0.420422
0.421783
0.423579
0.425887
0.428763
0.432259
0.43642
0.441287
0.446899
0.453287
0.460477
0.468488
0.477326
0.486979
0.497416
0.508572
0.52035
0.532602
0.545124
0.557643
0.569806
0.581167
0.591169
0.599102
0.603975
0.605411
0.599809
0.590696
0.579237
0.566279
0.552485
0.538383
0.52438
0.510785
0.497822
0.485646
0.474353
0.463999
0.454605
0.44617
0.438675
0.432094
0.426389
0.421524
0.417457
0.414147
0.411551
0.409625
0.408321
0.407578
0.407252
0.407222
0.407366
0.40754
0.407573
0.407272
0.406417
0.404764
0.402051
0.398001
0.392331
0.384757
0.375005
0.362817
0.347967
0.330259
0.309542
0.285707
0.258691
0.228484
0.195185
0.159285
0.122611
0.0906282
0.0756002
0.0906282
0.122611
0.159285
0.195185
0.228484
0.258691
0.285707
0.309542
0.330259
0.347967
0.362817
0.375005
0.384757
0.392331
0.398001
0.402051
0.404764
0.406417
0.407272
0.407573
0.40754
0.407366
0.407222
0.407252
0.407578
0.408321
0.409625
0.411551
0.414147
0.417457
0.421524
0.426389
0.432094
0.438675
0.44617
0.454605
0.463999
0.474353
0.485646
0.497822
0.510785
0.52438
0.538383
0.552485
0.566279
0.579237
0.590696
0.599809
0.605411
0.606545
0.600176
0.589818
0.576832
0.562213
0.546744
0.531035
0.515553
0.500641
0.486537
0.473397
0.461309
0.450316
0.440422
0.431609
0.423841
0.417078
0.411271
0.406374
0.402341
0.399127
0.396692
0.394995
0.393996
0.393649
0.393853
0.394515
0.39553
0.396772
0.398085
0.399281
0.400138
0.400399
0.399777
0.397956
0.394596
0.389347
0.381855
0.371779
0.358797
0.342626
0.323029
0.299821
0.272882
0.242159
0.207743
0.170166
0.131427
0.0974636
0.0814763
0.0974636
0.131427
0.170166
0.207743
0.242159
0.272882
0.299821
0.323029
0.342626
0.358797
0.371779
0.381855
0.389347
0.394596
0.397956
0.399777
0.400399
0.400138
0.399281
0.398085
0.396772
0.39553
0.394515
0.393853
0.393649
0.393996
0.394995
0.396692
0.399127
0.402341
0.406374
0.411271
0.417078
0.423841
0.431609
0.440422
0.450316
0.461309
0.473397
0.486537
0.500641
0.515553
0.531035
0.546744
0.562213
0.576832
0.589818
0.600176
0.606545
0.607582
0.600409
0.58875
0.574175
0.557846
0.540674
0.523359
0.506427
0.49025
0.475077
0.461058
0.448267
0.436726
0.426417
0.4173
0.409322
0.402422
0.396539
0.391616
0.3876
0.384441
0.382099
0.380536
0.379717
0.379609
0.380148
0.381265
0.38288
0.384889
0.38716
0.389522
0.391766
0.39364
0.394845
0.395041
0.39385
0.390862
0.385651
0.377786
0.366852
0.352461
0.334277
0.312023
0.285497
0.254591
0.219365
0.180383
0.13981
0.10404
0.0871716
0.10404
0.13981
0.180383
0.219365
0.254591
0.285497
0.312023
0.334277
0.352461
0.366852
0.377786
0.385651
0.390862
0.39385
0.395041
0.394845
0.39364
0.391766
0.389522
0.38716
0.384889
0.38288
0.381265
0.380148
0.379609
0.379717
0.380536
0.382099
0.384441
0.3876
0.391616
0.396539
0.402422
0.409322
0.4173
0.426417
0.436726
0.448267
0.461058
0.475077
0.49025
0.506427
0.523359
0.540674
0.557846
0.574175
0.58875
0.600409
0.607582
0.608602
0.600592
0.587579
0.571362
0.553285
0.534397
0.515495
0.49716
0.479792
0.463642
0.448846
0.43546
0.423476
0.412852
0.403522
0.395408
0.388433
0.382519
0.377597
0.373606
0.370491
0.36821
0.366727
0.366011
0.366038
0.366771
0.368168
0.37017
0.3727
0.37565
0.378879
0.3822
0.385376
0.388115
0.390071
0.390838
0.389965
0.386961
0.381314
0.372511
0.360057
0.343503
0.322463
0.296637
0.26584
0.230086
0.189956
0.147769
0.110362
0.0926902
0.110362
0.147769
0.189956
0.230086
0.26584
0.296637
0.322463
0.343503
0.360057
0.372511
0.381314
0.386961
0.389965
0.390838
0.390071
0.388115
0.385376
0.3822
0.378879
0.37565
0.3727
0.37017
0.368168
0.366771
0.366038
0.366011
0.366727
0.36821
0.370491
0.373606
0.377597
0.382519
0.388433
0.395408
0.403522
0.412852
0.423476
0.43546
0.448846
0.463642
0.479792
0.49716
0.515495
0.534397
0.553285
0.571362
0.587579
0.600592
0.608602
0.609635
0.600758
0.586342
0.568435
0.548582
0.527979
0.507521
0.487847
0.469374
0.452351
0.436894
0.423027
0.410714
0.39988
0.390429
0.382261
0.375275
0.36938
0.364494
0.360547
0.357481
0.35525
0.353817
0.353157
0.353251
0.354087
0.355638
0.35787
0.360727
0.364132
0.367973
0.372092
0.376281
0.380266
0.383705
0.386187
0.387231
0.386298
0.382802
0.376137
0.3657
0.350922
0.331295
0.306407
0.275972
0.239944
0.198904
0.155314
0.116435
0.0980358
0.116435
0.155314
0.198904
0.239944
0.275972
0.306407
0.331295
0.350922
0.3657
0.376137
0.382802
0.386298
0.387231
0.386187
0.383705
0.380266
0.376281
0.372092
0.367973
0.364132
0.360727
0.35787
0.355638
0.354087
0.353251
0.353157
0.353817
0.35525
0.357481
0.360547
0.364494
0.36938
0.375275
0.382261
0.390429
0.39988
0.410714
0.423027
0.436894
0.452351
0.469374
0.487847
0.507521
0.527979
0.548582
0.568435
0.586342
0.600758
0.609635
0.610693
0.60092
0.585055
0.565416
0.543766
0.521459
0.499492
0.478552
0.459074
0.441291
0.425291
0.411064
0.398534
0.387592
0.37811
0.369963
0.363029
0.357201
0.352386
0.348506
0.345498
0.343313
0.341918
0.341286
0.341406
0.34228
0.3439
0.346246
0.349287
0.352971
0.357218
0.361903
0.366849
0.37181
0.376466
0.38041
0.383148
0.384107
0.382642
0.378063
0.369662
0.356745
0.338676
0.314913
0.285058
0.248981
0.207251
0.162456
0.122264
0.103212
0.122264
0.162456
0.207251
0.248981
0.285058
0.314913
0.338676
0.356745
0.369662
0.378063
0.382642
0.384107
0.383148
0.38041
0.376466
0.37181
0.366849
0.361903
0.357218
0.352971
0.349287
0.346246
0.3439
0.34228
0.341406
0.341286
0.341918
0.343313
0.345498
0.348506
0.352386
0.357201
0.363029
0.369963
0.37811
0.387592
0.398534
0.411064
0.425291
0.441291
0.459074
0.478552
0.499492
0.521459
0.543766
0.565416
0.585055
0.60092
0.610693
0.611779
0.601082
0.583727
0.562321
0.538861
0.51487
0.491448
0.469329
0.448951
0.430527
0.414106
0.399636
0.386998
0.376043
0.366614
0.358555
0.351727
0.346008
0.341293
0.337498
0.334558
0.332422
0.331055
0.330435
0.330553
0.331425
0.333054
0.335434
0.338555
0.342387
0.346879
0.351939
0.357426
0.363128
0.368753
0.373912
0.378115
0.380767
0.381181
0.378593
0.372195
0.361174
0.344757
0.322264
0.293167
0.25724
0.215019
0.169207
0.127855
0.108222
0.127855
0.169207
0.215019
0.25724
0.293167
0.322264
0.344757
0.361174
0.372195
0.378593
0.381181
0.380767
0.378115
0.373912
0.368753
0.363128
0.357426
0.351939
0.346879
0.342387
0.338555
0.335434
0.333054
0.331425
0.330553
0.330435
0.331055
0.332422
0.334558
0.337498
0.341293
0.346008
0.351727
0.358555
0.366614
0.376043
0.386998
0.399636
0.414106
0.430527
0.448951
0.469329
0.491448
0.51487
0.538861
0.562321
0.583727
0.601082
0.611779
0.612894
0.60125
0.582364
0.559159
0.533885
0.508241
0.483429
0.460224
0.439058
0.420112
0.403391
0.38879
0.376145
0.365266
0.35596
0.348048
0.34137
0.33579
0.331198
0.327502
0.324636
0.322549
0.321205
0.320586
0.320686
0.321528
0.323126
0.325486
0.328611
0.332494
0.337109
0.342395
0.348247
0.354489
0.360864
0.367011
0.372454
0.376595
0.378715
0.377991
0.373528
0.364395
0.349683
0.328565
0.300373
0.264766
0.222234
0.175577
0.133213
0.113069
0.133213
0.175577
0.222234
0.264766
0.300373
0.328565
0.349683
0.364395
0.373528
0.377991
0.378715
0.376595
0.372454
0.367011
0.360864
0.354489
0.348247
0.342395
0.337109
0.332494
0.328611
0.325486
0.323126
0.321528
0.320686
0.320586
0.321205
0.322549
0.324636
0.327502
0.331198
0.33579
0.34137
0.348048
0.35596
0.365266
0.376145
0.38879
0.403391
0.420112
0.439058
0.460224
0.483429
0.508241
0.533885
0.559159
0.582364
0.60125
0.612894
0.61404
0.601424
0.580971
0.555941
0.528855
0.501597
0.475469
0.451276
0.429438
0.410091
0.393185
0.37856
0.365999
0.355271
0.346148
0.338428
0.331932
0.326515
0.322058
0.318469
0.315679
0.313638
0.312313
0.311687
0.311756
0.312552
0.314093
0.316395
0.319473
0.323338
0.327986
0.333384
0.33946
0.346076
0.353013
0.359945
0.366421
0.371848
0.375495
0.376493
0.373868
0.366582
0.353592
0.333919
0.306746
0.271604
0.228921
0.181581
0.138344
0.117757
0.138344
0.181581
0.228921
0.271604
0.306746
0.333919
0.353592
0.366582
0.373868
0.376493
0.375495
0.371848
0.366421
0.359945
0.353013
0.346076
0.33946
0.333384
0.327986
0.323338
0.319473
0.316395
0.314093
0.312552
0.311756
0.311687
0.312313
0.313638
0.315679
0.318469
0.322058
0.326515
0.331932
0.338428
0.346148
0.355271
0.365999
0.37856
0.393185
0.410091
0.429438
0.451276
0.475469
0.501597
0.528855
0.555941
0.580971
0.601424
0.61404
0.615218
0.601607
0.579554
0.552678
0.523789
0.494962
0.467598
0.442523
0.420128
0.400497
0.383517
0.368964
0.356568
0.346054
0.337163
0.329667
0.323375
0.318132
0.313816
0.310333
0.307616
0.305616
0.304304
0.303664
0.303696
0.304434
0.305902
0.308122
0.31112
0.31492
0.319536
0.324962
0.331153
0.33801
0.345352
0.352892
0.360211
0.366736
0.371731
0.374297
0.373396
0.367892
0.356611
0.338423
0.312354
0.277797
0.235106
0.187232
0.143254
0.122289
0.143254
0.187232
0.235106
0.277797
0.312354
0.338423
0.356611
0.367892
0.373396
0.374297
0.371731
0.366736
0.360211
0.352892
0.345352
0.33801
0.331153
0.324962
0.319536
0.31492
0.31112
0.308122
0.305902
0.304434
0.303696
0.303664
0.304304
0.305616
0.307616
0.310333
0.313816
0.318132
0.323375
0.329667
0.337163
0.346054
0.356568
0.368964
0.383517
0.400497
0.420128
0.442523
0.467598
0.494962
0.523789
0.552678
0.579554
0.601607
0.615218
0.616426
0.6018
0.578116
0.549377
0.518701
0.48836
0.459845
0.433995
0.41116
0.391358
0.374405
0.360011
0.347849
0.3376
0.328974
0.321723
0.315645
0.310578
0.306399
0.303016
0.300364
0.298399
0.297093
0.296433
0.296423
0.297097
0.298483
0.300609
0.303507
0.307211
0.311752
0.317143
0.323369
0.330362
0.337981
0.345979
0.353975
0.361422
0.367594
0.371573
0.372272
0.368465
0.358857
0.342168
0.317264
0.283391
0.240814
0.192542
0.147948
0.126668
0.147948
0.192542
0.240814
0.283391
0.317264
0.342168
0.358857
0.368465
0.372272
0.371573
0.367594
0.361422
0.353975
0.345979
0.337981
0.330362
0.323369
0.317143
0.311752
0.307211
0.303507
0.300609
0.298483
0.297097
0.296423
0.296433
0.297093
0.298399
0.300364
0.303016
0.306399
0.310578
0.315645
0.321723
0.328974
0.3376
0.347849
0.360011
0.374405
0.391358
0.41116
0.433995
0.459845
0.48836
0.518701
0.549377
0.578116
0.6018
0.616426
0.617666
0.602006
0.576663
0.54605
0.513609
0.481813
0.452238
0.425721
0.402559
0.382693
0.365861
0.351699
0.339827
0.32988
0.321541
0.314545
0.30868
0.303783
0.299731
0.296436
0.293838
0.291897
0.290589
0.289904
0.289848
0.290456
0.291758
0.293784
0.296572
0.300164
0.304603
0.309918
0.316119
0.323168
0.330962
0.339293
0.347821
0.356035
0.363223
0.368465
0.370633
0.368427
0.360438
0.345241
0.32154
0.288427
0.246073
0.197525
0.152433
0.130898
0.152433
0.197525
0.246073
0.288427
0.32154
0.345241
0.360438
0.368427
0.370633
0.368465
0.363223
0.356035
0.347821
0.339293
0.330962
0.323168
0.316119
0.309918
0.304603
0.300164
0.296572
0.293784
0.291758
0.290456
0.289848
0.289904
0.290589
0.291897
0.293838
0.296436
0.299731
0.303783
0.30868
0.314545
0.321541
0.32988
0.339827
0.351699
0.365861
0.382693
0.402559
0.425721
0.452238
0.481813
0.513609
0.54605
0.576663
0.602006
0.617666
0.618937
0.602226
0.575199
0.542704
0.508526
0.475341
0.4448
0.417724
0.394344
0.374515
0.357885
0.34402
0.332479
0.32286
0.314818
0.308075
0.302414
0.297672
0.293731
0.290508
0.287949
0.286019
0.2847
0.283986
0.283883
0.284426
0.285645
0.287572
0.290249
0.293723
0.298045
0.303259
0.309394
0.316441
0.324329
0.332892
0.341831
0.350671
0.35873
0.36509
0.368597
0.367888
0.36145
0.347721