# vtk DataFile Version 3.0
Malha 2D com triângulos e temperatura
ASCII
DATASET UNSTRUCTURED_GRID

POINTS 10000 double
0 0 0
10 0 0
10 10 0
0 10 0
0.10101 0 0
0.20202 0 0
0.30303 0 0
0.40404 0 0
0.505051 0 0
0.606061 0 0
0.707071 0 0
0.808081 0 0
0.909091 0 0
1.0101 0 0
1.11111 0 0
1.21212 0 0
1.31313 0 0
1.41414 0 0
1.51515 0 0
1.61616 0 0
1.71717 0 0
1.81818 0 0
1.91919 0 0
2.0202 0 0
2.12121 0 0
2.22222 0 0
2.32323 0 0
2.42424 0 0
2.52525 0 0
2.62626 0 0
2.72727 0 0
2.82828 0 0
2.92929 0 0
3.0303 0 0
3.13131 0 0
3.23232 0 0
3.33333 0 0
3.43434 0 0
3.53535 0 0
3.63636 0 0
3.73737 0 0
3.83838 0 0
3.93939 0 0
4.0404 0 0
4.14141 0 0
4.24242 0 0
4.34343 0 0
4.44444 0 0
4.54545 0 0
4.64646 0 0
4.74747 0 0
4.84848 0 0
4.94949 0 0
5.05051 0 0
5.15152 0 0
5.25253 0 0
5.35354 0 0
5.45455 0 0
5.55556 0 0
5.65657 0 0
5.75758 0 0
5.85859 0 0
5.9596 0 0
6.06061 0 0
6.16162 0 0
6.26263 0 0
6.36364 0 0
6.46465 0 0
6.56566 0 0
6.66667 0 0
6.76768 0 0
6.86869 0 0
6.9697 0 0
7.07071 0 0
7.17172 0 0
7.27273 0 0
7.37374 0 0
7.47475 0 0
7.57576 0 0
7.67677 0 0
7.77778 0 0
7.87879 0 0
7.9798 0 0
8.08081 0 0
8.18182 0 0
8.28283 0 0
8.38384 0 0
8.48485 0 0
8.58586 0 0
8.68687 0 0
8.78788 0 0
8.88889 0 0
8.9899 0 0
9.09091 0 0
9.19192 0 0
9.29293 0 0
9.39394 0 0
9.49495 0 0
9.59596 0 0
9.69697 0 0
9.79798 0 0
9.89899 0 0
10 0.10101 0
10 0.20202 0
10 0.30303 0
10 0.40404 0
10 0.505051 0
10 0.606061 0
10 0.707071 0
10 0.808081 0
10 0.909091 0
10 1.0101 0
10 1.11111 0
10 1.21212 0
10 1.31313 0
10 1.41414 0
10 1.51515 0
10 1.61616 0
10 1.71717 0
10 1.81818 0
10 1.91919 0
10 2.0202 0
10 2.12121 0
10 2.22222 0
10 2.32323 0
10 2.42424 0
10 2.52525 0
10 2.62626 0
10 2.72727 0
10 2.82828 0
10 2.92929 0
10 3.0303 0
10 3.13131 0
10 3.23232 0
10 3.33333 0
10 3.43434 0
10 3.53535 0
10 3.63636 0
10 3.73737 0
10 3.83838 0
10 3.93939 0
10 4.0404 0
10 4.14141 0
10 4.24242 0
10 4.34343 0
10 4.44444 0
10 4.54545 0
10 4.64646 0
10 4.74747 0
10 4.84848 0
10 4.94949 0
10 5.05051 0
10 5.15152 0
10 5.25253 0
10 5.35354 0
10 5.45455 0
10 5.55556 0
10 5.65657 0
10 5.75758 0
10 5.85859 0
10 5.9596 0
10 6.06061 0
10 6.16162 0
10 6.26263 0
10 6.36364 0
10 6.46465 0
10 6.56566 0
10 6.66667 0
10 6.76768 0
10 6.86869 0
10 6.9697 0
10 7.07071 0
10 7.17172 0
10 7.27273 0
10 7.37374 0
10 7.47475 0
10 7.57576 0
10 7.67677 0
10 7.77778 0
10 7.87879 0
10 7.9798 0
10 8.08081 0
10 8.18182 0
10 8.28283 0
10 8.38384 0
10 8.48485 0
10 8.58586 0
10 8.68687 0
10 8.78788 0
10 8.88889 0
10 8.9899 0
10 9.09091 0
10 9.19192 0
10 9.29293 0
10 9.39394 0
10 9.49495 0
10 9.59596 0
10 9.69697 0
10 9.79798 0
10 9.89899 0
9.89899 10 0
9.79798 10 0
9.69697 10 0
9.59596 10 0
9.49495 10 0
9.39394 10 0
9.29293 10 0
9.19192 10 0
9.09091 10 0
8.9899 10 0
8.88889 10 0
8.78788 10 0
8.68687 10 0
8.58586 10 0
8.48485 10 0
8.38384 10 0
8.28283 10 0
8.18182 10 0
8.08081 10 0
7.9798 10 0
7.87879 10 0
7.77778 10 0
7.67677 10 0
7.57576 10 0
7.47475 10 0
7.37374 10 0
7.27273 10 0
7.17172 10 0
7.07071 10 0
6.9697 10 0
6.86869 10 0
6.76768 10 0
6.66667 10 0
6.56566 10 0
6.46465 10 0
6.36364 10 0
6.26263 10 0
6.16162 10 0
6.06061 10 0
5.9596 10 0
5.85859 10 0
5.75758 10 0
5.65657 10 0
5.55556 10 0
5.45455 10 0
5.35354 10 0
5.25253 10 0
5.15152 10 0
5.05051 10 0
4.94949 10 0
4.84848 10 0
4.74747 10 0
4.64646 10 0
4.54545 10 0
4.44444 10 0
4.34343 10 0
4.24242 10 0
4.14141 10 0
4.0404 10 0
3.93939 10 0
3.83838 10 0
3.73737 10 0
3.63636 10 0
3.53535 10 0
3.43434 10 0
3.33333 10 0
3.23232 10 0
3.13131 10 0
3.0303 10 0
2.92929 10 0
2.82828 10 0
2.72727 10 0
2.62626 10 0
2.52525 10 0
2.42424 10 0
2.32323 10 0
2.22222 10 0
2.12121 10 0
2.0202 10 0
1.91919 10 0
1.81818 10 0
1.71717 10 0
1.61616 10 0
1.51515 10 0
1.41414 10 0
1.31313 10 0
1.21212 10 0
1.11111 10 0
1.0101 10 0
0.909091 10 0
0.808081 10 0
0.707071 10 0
0.606061 10 0
0.505051 10 0
0.40404 10 0
0.30303 10 0
0.20202 10 0
0.10101 10 0
0 9.89899 0
0 9.79798 0
0 9.69697 0
0 9.59596 0
0 9.49495 0
0 9.39394 0
0 9.29293 0
0 9.19192 0
0 9.09091 0
0 8.9899 0
0 8.88889 0
0 8.78788 0
0 8.68687 0
0 8.58586 0
0 8.48485 0
0 8.38384 0
0 8.28283 0
0 8.18182 0
0 8.08081 0
0 7.9798 0
0 7.87879 0
0 7.77778 0
0 7.67677 0
0 7.57576 0
0 7.47475 0
0 7.37374 0
0 7.27273 0
0 7.17172 0
0 7.07071 0
0 6.9697 0
0 6.86869 0
0 6.76768 0
0 6.66667 0
0 6.56566 0
0 6.46465 0
0 6.36364 0
0 6.26263 0
0 6.16162 0
0 6.06061 0
0 5.9596 0
0 5.85859 0
0 5.75758 0
0 5.65657 0
0 5.55556 0
0 5.45455 0
0 5.35354 0
0 5.25253 0
0 5.15152 0
0 5.05051 0
0 4.94949 0
0 4.84848 0
0 4.74747 0
0 4.64646 0
0 4.54545 0
0 4.44444 0
0 4.34343 0
0 4.24242 0
0 4.14141 0
0 4.0404 0
0 3.93939 0
0 3.83838 0
0 3.73737 0
0 3.63636 0
0 3.53535 0
0 3.43434 0
0 3.33333 0
0 3.23232 0
0 3.13131 0
0 3.0303 0
0 2.92929 0
0 2.82828 0
0 2.72727 0
0 2.62626 0
0 2.52525 0
0 2.42424 0
0 2.32323 0
0 2.22222 0
0 2.12121 0
0 2.0202 0
0 1.91919 0
0 1.81818 0
0 1.71717 0
0 1.61616 0
0 1.51515 0
0 1.41414 0
0 1.31313 0
0 1.21212 0
0 1.11111 0
0 1.0101 0
0 0.909091 0
0 0.808081 0
0 0.707071 0
0 0.606061 0
0 0.505051 0
0 0.40404 0
0 0.30303 0
0 0.20202 0
0 0.10101 0
0.10101 0.10101 0
0.10101 0.20202 0
0.10101 0.30303 0
0.10101 0.40404 0
0.10101 0.505051 0
0.10101 0.606061 0
0.10101 0.707071 0
0.10101 0.808081 0
0.10101 0.909091 0
0.10101 1.0101 0
0.10101 1.11111 0
0.10101 1.21212 0
0.10101 1.31313 0
0.10101 1.41414 0
0.10101 1.51515 0
0.10101 1.61616 0
0.10101 1.71717 0
0.10101 1.81818 0
0.10101 1.91919 0
0.10101 2.0202 0
0.10101 2.12121 0
0.10101 2.22222 0
0.10101 2.32323 0
0.10101 2.42424 0
0.10101 2.52525 0
0.10101 2.62626 0
0.10101 2.72727 0
0.10101 2.82828 0
0.10101 2.92929 0
0.10101 3.0303 0
0.10101 3.13131 0
0.10101 3.23232 0
0.10101 3.33333 0
0.10101 3.43434 0
0.10101 3.53535 0
0.10101 3.63636 0
0.10101 3.73737 0
0.10101 3.83838 0
0.10101 3.93939 0
0.10101 4.0404 0
0.10101 4.14141 0
0.10101 4.24242 0
0.10101 4.34343 0
0.10101 4.44444 0
0.10101 4.54545 0
0.10101 4.64646 0
0.10101 4.74747 0
0.10101 4.84848 0
0.10101 4.94949 0
0.10101 5.05051 0
0.10101 5.15152 0
0.10101 5.25253 0
0.10101 5.35354 0
0.10101 5.45455 0
0.10101 5.55556 0
0.10101 5.65657 0
0.10101 5.75758 0
0.10101 5.85859 0
0.10101 5.9596 0
0.10101 6.06061 0
0.10101 6.16162 0
0.10101 6.26263 0
0.10101 6.36364 0
0.10101 6.46465 0
0.10101 6.56566 0
0.10101 6.66667 0
0.10101 6.76768 0
0.10101 6.86869 0
0.10101 6.9697 0
0.10101 7.07071 0
0.10101 7.17172 0
0.10101 7.27273 0
0.10101 7.37374 0
0.10101 7.47475 0
0.10101 7.57576 0
0.10101 7.67677 0
0.10101 7.77778 0
0.10101 7.87879 0
0.10101 7.9798 0
0.10101 8.08081 0
0.10101 8.18182 0
0.10101 8.28283 0
0.10101 8.38384 0
0.10101 8.48485 0
0.10101 8.58586 0
0.10101 8.68687 0
0.10101 8.78788 0
0.10101 8.88889 0
0.10101 8.9899 0
0.10101 9.09091 0
0.10101 9.19192 0
0.10101 9.29293 0
0.10101 9.39394 0
0.10101 9.49495 0
0.10101 9.59596 0
0.10101 9.69697 0
0.10101 9.79798 0
0.10101 9.89899 0
0.20202 0.10101 0
0.20202 0.20202 0
0.20202 0.30303 0
0.20202 0.40404 0
0.20202 0.505051 0
0.20202 0.606061 0
0.20202 0.707071 0
0.20202 0.808081 0
0.20202 0.909091 0
0.20202 1.0101 0
0.20202 1.11111 0
0.20202 1.21212 0
0.20202 1.31313 0
0.20202 1.41414 0
0.20202 1.51515 0
0.20202 1.61616 0
0.20202 1.71717 0
0.20202 1.81818 0
0.20202 1.91919 0
0.20202 2.0202 0
0.20202 2.12121 0
0.20202 2.22222 0
0.20202 2.32323 0
0.20202 2.42424 0
0.20202 2.52525 0
0.20202 2.62626 0
0.20202 2.72727 0
0.20202 2.82828 0
0.20202 2.92929 0
0.20202 3.0303 0
0.20202 3.13131 0
0.20202 3.23232 0
0.20202 3.33333 0
0.20202 3.43434 0
0.20202 3.53535 0
0.20202 3.63636 0
0.20202 3.73737 0
0.20202 3.83838 0
0.20202 3.93939 0
0.20202 4.0404 0
0.20202 4.14141 0
0.20202 4.24242 0
0.20202 4.34343 0
0.20202 4.44444 0
0.20202 4.54545 0
0.20202 4.64646 0
0.20202 4.74747 0
0.20202 4.84848 0
0.20202 4.94949 0
0.20202 5.05051 0
0.20202 5.15152 0
0.20202 5.25253 0
0.20202 5.35354 0
0.20202 5.45455 0
0.20202 5.55556 0
0.20202 5.65657 0
0.20202 5.75758 0
0.20202 5.85859 0
0.20202 5.9596 0
0.20202 6.06061 0
0.20202 6.16162 0
0.20202 6.26263 0
0.20202 6.36364 0
0.20202 6.46465 0
0.20202 6.56566 0
0.20202 6.66667 0
0.20202 6.76768 0
0.20202 6.86869 0
0.20202 6.9697 0
0.20202 7.07071 0
0.20202 7.17172 0
0.20202 7.27273 0
0.20202 7.37374 0
0.20202 7.47475 0
0.20202 7.57576 0
0.20202 7.67677 0
0.20202 7.77778 0
0.20202 7.87879 0
0.20202 7.9798 0
0.20202 8.08081 0
0.20202 8.18182 0
0.20202 8.28283 0
0.20202 8.38384 0
0.20202 8.48485 0
0.20202 8.58586 0
0.20202 8.68687 0
0.20202 8.78788 0
0.20202 8.88889 0
0.20202 8.9899 0
0.20202 9.09091 0
0.20202 9.19192 0
0.20202 9.29293 0
0.20202 9.39394 0
0.20202 9.49495 0
0.20202 9.59596 0
0.20202 9.69697 0
0.20202 9.79798 0
0.20202 9.89899 0
0.30303 0.10101 0
0.30303 0.20202 0
0.30303 0.30303 0
0.30303 0.40404 0
0.30303 0.505051 0
0.30303 0.606061 0
0.30303 0.707071 0
0.30303 0.808081 0
0.30303 0.909091 0
0.30303 1.0101 0
0.30303 1.11111 0
0.30303 1.21212 0
0.30303 1.31313 0
0.30303 1.41414 0
0.30303 1.51515 0
0.30303 1.61616 0
0.30303 1.71717 0
0.30303 1.81818 0
0.30303 1.91919 0
0.30303 2.0202 0
0.30303 2.12121 0
0.30303 2.22222 0
0.30303 2.32323 0
0.30303 2.42424 0
0.30303 2.52525 0
0.30303 2.62626 0
0.30303 2.72727 0
0.30303 2.82828 0
0.30303 2.92929 0
0.30303 3.0303 0
0.30303 3.13131 0
0.30303 3.23232 0
0.30303 3.33333 0
0.30303 3.43434 0
0.30303 3.53535 0
0.30303 3.63636 0
0.30303 3.73737 0
0.30303 3.83838 0
0.30303 3.93939 0
0.30303 4.0404 0
0.30303 4.14141 0
0.30303 4.24242 0
0.30303 4.34343 0
0.30303 4.44444 0
0.30303 4.54545 0
0.30303 4.64646 0
0.30303 4.74747 0
0.30303 4.84848 0
0.30303 4.94949 0
0.30303 5.05051 0
0.30303 5.15152 0
0.30303 5.25253 0
0.30303 5.35354 0
0.30303 5.45455 0
0.30303 5.55556 0
0.30303 5.65657 0
0.30303 5.75758 0
0.30303 5.85859 0
0.30303 5.9596 0
0.30303 6.06061 0
0.30303 6.16162 0
0.30303 6.26263 0
0.30303 6.36364 0
0.30303 6.46465 0
0.30303 6.56566 0
0.30303 6.66667 0
0.30303 6.76768 0
0.30303 6.86869 0
0.30303 6.9697 0
0.30303 7.07071 0
0.30303 7.17172 0
0.30303 7.27273 0
0.30303 7.37374 0
0.30303 7.47475 0
0.30303 7.57576 0
0.30303 7.67677 0
0.30303 7.77778 0
0.30303 7.87879 0
0.30303 7.9798 0
0.30303 8.08081 0
[...]
CELL_DATA 9801
SCALARS Temperatura double 1
LOOKUP_TABLE default
4.20673e-16
2.51799e-14
5.3891e-14
7.27395e-14
5.12455e-14
-4.28111e-14
-2.1871e-13
-4.30851e-13
-5.58305e-13
-4.21583e-13
1.44493e-13
1.16877e-12
2.41822e-12
3.34641e-12
3.19335e-12
1.26441e-12
-2.67417e-12
-8.03909e-12
-1.33109e-11
-1.62988e-11
-1.47911e-11
-7.413e-12
5.62585e-12
2.22195e-11
3.86822e-11
5.06513e-11
5.43003e-11
4.74603e-11
3.02754e-11
5.19105e-12
-2.36898e-11
-5.16449e-11
-7.44291e-11
-8.9123e-11
-9.45476e-11
-9.12189e-11
-8.09447e-11
-6.62377e-11
-4.97234e-11
-3.36728e-11
-1.97244e-11
-8.79873e-12
-1.16192e-12
3.41928e-12
5.49011e-12
5.73193e-12
4.82404e-12
3.3529e-12
1.76647e-12
3.64912e-13
-7.4383e-13
-1.48658e-12
-1.89562e-12
-2.04865e-12
-2.01437e-12
-1.8548e-12
-1.62159e-12
-1.3553e-12
-1.08579e-12
-8.33369e-13
-6.10371e-13
-4.22865e-13
-2.7228e-13
-1.56864e-13
-7.28861e-14
-1.55797e-14
2.016e-14
3.92993e-14
4.63637e-14
4.52692e-14
3.92491e-14
3.08456e-14
2.19408e-14
1.3815e-14
7.21971e-15
2.46487e-15
-4.84695e-16
-1.90512e-15
-2.20722e-15
-1.83645e-15
-1.18957e-15
-5.5802e-16
-1.04512e-16
1.27322e-16
1.78131e-16
1.26868e-16
4.92962e-17
-7.21371e-18
-2.87544e-17
-2.45821e-17
-1.13145e-17
-9.67019e-19
2.87871e-18
2.37482e-18
8.22766e-19
-4.88368e-20
-1.77802e-19
-6.51177e-20
5.1835e-21
5.8742e-14
8.34164e-14
4.45985e-14
-8.89364e-14
-3.21762e-13
-5.75811e-13
-6.66027e-13
-3.35915e-13
6.17007e-13
2.14237e-12
3.74907e-12
4.46749e-12
3.09425e-12
-1.2508e-12
-8.4056e-12
-1.66147e-11
-2.25387e-11
-2.20742e-11
-1.18981e-11
8.75866e-12
3.68603e-11
6.5542e-11
8.56012e-11
8.81771e-11
6.7741e-11
2.43042e-11
-3.60088e-11
-1.0228e-10
-1.61572e-10
-2.02228e-10
-2.16643e-10
-2.0274e-10
-1.63885e-10
-1.07501e-10
-4.2966e-11
2.05239e-11
7.5595e-11
1.17577e-10
1.44626e-10
1.57273e-10
1.5768e-10
1.48837e-10
1.33887e-10
1.15658e-10
9.64167e-11
7.77882e-11
6.08088e-11
4.60324e-11
3.36582e-11
2.36497e-11
1.57913e-11
9.89306e-12
5.62937e-12
2.67278e-12
7.30586e-13
-4.52074e-13
-1.08784e-12
-1.3481e-12
-1.36597e-12
-1.241e-12
-1.04443e-12
-8.24631e-13
-6.12247e-13
-4.24712e-13
-2.70093e-13
-1.50178e-13
-6.28558e-14
-3.86593e-15
3.19823e-14
5.00084e-14
5.51734e-14
5.18134e-14
4.35194e-14
3.31076e-14
2.2642e-14
1.34895e-14
6.39744e-15
1.59182e-15
-1.10313e-15
-2.12908e-15
-2.05078e-15
-1.42346e-15
-6.89916e-16
-1.23699e-16
1.74983e-16
2.38443e-16
1.66058e-16
6.03435e-17
-1.39729e-17
-3.95124e-17
-3.12435e-17
-1.29429e-17
-2.27244e-19
3.60473e-18
2.4358e-18
6.13153e-19
-1.51694e-19
-1.54602e-19
-2.37121e-20
1.05515e-13
-5.12572e-14
-3.44749e-13
-7.21203e-13
-9.48419e-13
-6.47464e-13
5.5135e-13
2.70406e-12
5.20365e-12
6.61183e-12
4.93958e-12
-1.48167e-12
-1.27072e-11
-2.60162e-11
-3.56627e-11
-3.41774e-11
-1.52494e-11
2.2652e-11
7.34684e-11
1.23199e-10
1.52888e-10
1.44465e-10
8.75307e-11
-1.55026e-11
-1.48143e-10
-2.8321e-10
-3.89881e-10
-4.42006e-10
-4.24889e-10
-3.38497e-10
-1.96426e-10
-2.14713e-11
1.60413e-10
3.2584e-10
4.57939e-10
5.47973e-10
5.94833e-10
6.03147e-10
5.80873e-10
5.37079e-10
4.80306e-10
4.17646e-10
3.54411e-10
2.94215e-10
2.39258e-10
1.90683e-10
1.48885e-10
1.13765e-10
8.49168e-11
6.17542e-11
4.35e-11
2.95087e-11
1.91238e-11
1.16299e-11
6.40996e-12
2.92647e-12
7.30425e-13
-5.43199e-13
-1.18207e-12
-1.40592e-12
-1.37691e-12
-1.2102e-12
-9.83788e-13
-7.47446e-13
-5.30244e-13
-3.46762e-13
-2.01962e-13
-9.48583e-14
-2.11584e-14
2.49303e-14
4.95432e-14
5.84731e-14
5.6812e-14
4.87985e-14
3.77862e-14
2.62729e-14
1.59599e-14
7.83043e-15
2.24827e-15
-9.18183e-16
-2.14421e-15
-2.07902e-15
-1.37886e-15
-5.71398e-16
2.24323e-17
2.96524e-16
3.0618e-16
1.81606e-16
4.56758e-17
-3.42572e-17
-5.11807e-17
-3.28134e-17
-9.84445e-18
2.39279e-18
4.16514e-18
1.90316e-18
1.61994e-19
-2.26017e-19
-8.76208e-20
-1.78871e-13
-7.68698e-13
-1.2061e-12
-1.13153e-12
5.33666e-14
2.67552e-12
6.24439e-12
9.00958e-12
8.07943e-12
4.8284e-13
-1.4851e-11
-3.48915e-11
-5.13865e-11
-5.22016e-11
-2.57035e-11
3.27727e-11
1.14963e-10
1.97564e-10
2.46421e-10
2.26981e-10
1.17903e-10
-7.74498e-11
-3.26803e-10
-5.74695e-10
-7.56817e-10
-8.18114e-10
-7.28281e-10
-4.89501e-10
-1.34405e-10
2.84094e-10
7.06913e-10
1.0821e-09
1.37372e-09
1.56507e-09
1.65668e-09
1.66138e-09
1.59836e-09
1.4882e-09
1.34943e-09
1.19694e-09
1.04167e-09
8.91132e-10
7.5011e-10
6.2146e-10
5.06667e-10
4.06266e-10
3.20108e-10
2.47556e-10
1.87628e-10
1.39119e-10
1.00506e-10
7.05636e-11
4.7959e-11
3.1288e-11
1.93329e-11
1.1031e-11
5.48839e-12
1.97139e-12
-1.05397e-13
-1.19636e-12
-1.64386e-12
-1.69755e-12
-1.53285e-12
-1.26757e-12
-9.76429e-13
-7.03002e-13
-4.69401e-13
-2.83676e-13
-1.45311e-13
-4.91064e-14
1.22212e-14
4.64109e-14
6.073e-14
6.1517e-14
5.40153e-14
4.23647e-14
2.96636e-14
1.80534e-14
8.81248e-15
2.46285e-15
-1.09215e-15
-2.39175e-15
-2.20869e-15
-1.33441e-15
-3.99669e-16
2.29177e-16
4.5767e-16
3.86407e-16
1.92342e-16
2.27281e-17
-5.79775e-17
-6.10633e-17
-3.11925e-17
-5.17561e-18
4.75891e-18
4.00193e-18
1.10456e-18
-1.67656e-19
-2.02689e-19
-1.16833e-12
-1.66509e-12
-8.54475e-13
1.79903e-12
6.2863e-12
1.09748e-11
1.22887e-11
5.57949e-12
-1.2393e-11
-3.99027e-11
-6.73417e-11
-7.73882e-11
-5.01538e-11
2.69342e-11
1.47826e-10
2.80829e-10
3.71528e-10
3.57913e-10
1.94334e-10
-1.24502e-10
-5.50177e-10
-9.85517e-10
-1.30828e-09
-1.40606e-09
-1.20975e-09
-7.13692e-10
2.406e-11
8.99894e-10
1.79323e-09
2.59521e-09
3.22889e-09
3.6571e-09
3.87897e-09
3.91934e-09
3.81626e-09
3.61034e-09
3.33788e-09
3.02796e-09
2.70215e-09
2.37578e-09
2.05951e-09
1.7607e-09
1.48434e-09
1.23363e-09
1.0103e-09
8.14856e-10
6.46796e-10
5.04796e-10
3.86941e-10
2.90935e-10
2.13894e-10
1.53507e-10
1.07313e-10
7.26941e-11
4.73677e-11
2.93291e-11
1.68769e-11
8.60098e-12
3.36229e-12
2.64287e-13
-1.37995e-12
-2.08173e-12
-2.20967e-12
-2.01985e-12
-1.68244e-12
-1.30416e-12
-9.46583e-13
-6.40572e-13
-3.97192e-13
-2.15672e-13
-8.89364e-14
-7.24143e-15
3.96037e-14
6.10174e-14
6.50901e-14
5.84288e-14
4.62049e-14
3.22801e-14
1.93402e-14
9.01583e-15
2.00673e-15
-1.76315e-15
-2.93492e-15
-2.45148e-15
-1.27701e-15
-1.59855e-16
5.00283e-16
6.50129e-16
4.66048e-16
1.88664e-16
-1.10855e-17
-8.27942e-17
-6.62155e-17
-2.54059e-17
4.07623e-19
6.13069e-18
3.04031e-18
2.93376e-19
-3.43644e-19
-2.07147e-12
1.18449e-13
4.84082e-12
1.13798e-11
1.62366e-11
1.33394e-11
-3.63956e-12
-3.6621e-11
-7.76515e-11
-1.06023e-10
-9.19198e-11
-8.56585e-12
1.49596e-10
3.50402e-10
5.19568e-10
5.5633e-10
3.68867e-10
-8.14341e-11
-7.45415e-10
-1.47929e-09
-2.07366e-09
-2.31127e-09
-2.03316e-09
-1.1885e-09
1.50063e-10
1.80934e-09
3.56556e-09
5.20162e-09
6.55255e-09
7.52759e-09
8.10847e-09
8.33103e-09
8.26069e-09
7.97073e-09
7.52802e-09
6.98665e-09
6.38749e-09
5.7606e-09
5.12834e-09
4.5078e-09
3.91232e-09
3.35217e-09
2.83495e-09
2.36569e-09
1.94713e-09
1.57994e-09
1.26305e-09
9.94047e-10
7.69496e-10
5.85317e-10
4.36336e-10
3.18425e-10
2.27201e-10
1.57924e-10
1.06438e-10
6.90598e-11
4.2634e-11
2.45196e-11
1.25589e-11
5.03219e-12
6.02201e-13
-1.74348e-12
-2.74985e-12
-2.94797e-12
-2.70267e-12
-2.25356e-12
-1.74897e-12
-1.27324e-12
-8.67684e-13
-5.46398e-13
-3.07477e-13
-1.40767e-13
-3.28473e-14
2.99915e-14
6.01724e-14
6.8178e-14
6.24334e-14
4.94532e-14
3.40685e-14
1.96363e-14
8.20429e-15
6.59071e-16
-3.09179e-15
-3.85931e-15
-2.83105e-15
-1.19778e-15
1.60055e-16
8.34533e-16
8.59875e-16
5.28784e-16
1.61619e-16
-5.55878e-17
-1.04431e-16
-6.38771e-17
-1.57627e-17
5.47606e-18
5.92126e-18
1.59162e-18
-3.81516e-19
6.64396e-13
9.35412e-12
1.77518e-11
2.11884e-11
1.04354e-11
-2.19718e-11
-7.41205e-11
-1.2722e-10
-1.4417e-10
-7.99168e-11
9.52148e-11
3.66089e-10
6.52067e-10
8.12009e-10
6.84311e-10
1.55044e-10
-7.70449e-10
-1.92615e-09
-3.00056e-09
-3.61266e-09
-3.42506e-09
-2.25221e-09
-1.21903e-10
2.73223e-09
5.94061e-09
9.09974e-09
1.18679e-08
1.40253e-08
1.54878e-08
1.62828e-08
1.65064e-08
1.62804e-08
1.57215e-08
1.49266e-08
1.39696e-08
1.2906e-08
1.17786e-08
1.06223e-08
9.46656e-09
8.33677e-09
7.25412e-09
6.23561e-09
5.29396e-09
4.43772e-09
3.67161e-09
2.9969e-09
2.41197e-09
1.91282e-09
1.49368e-09
1.14761e-09
8.65576e-10
6.40401e-10
4.64444e-10
3.29288e-10
2.27505e-10
1.5245e-10
9.83803e-11
6.04414e-11
3.46267e-11
1.77053e-11
7.133e-12
9.54638e-13
-2.29345e-12
-3.67654e-12
-3.94571e-12
-3.61125e-12
-3.00433e-12
-2.32734e-12
-1.69337e-12
-1.15644e-12
-7.3367e-13
-4.20969e-13
-2.03638e-13
-6.31038e-14
1.91511e-14
5.95848e-14
7.18424e-14
6.67177e-14
5.24477e-14
3.50851e-14
1.88135e-14
6.16958e-15
-1.77803e-15
-5.20839e-15
-5.21292e-15
-3.3354e-15
-1.06494e-15
5.77508e-16
1.22334e-15
1.0628e-15
5.53693e-16
1.04324e-16
-1.06348e-16
-1.16754e-16
-5.24144e-17
-4.20877e-18
8.30618e-18
4.15359e-18
1.09555e-20
1.22362e-11
2.54128e-11
2.50658e-11
2.2208e-12
-5.1116e-11
-1.25826e-10
-1.86605e-10
-1.74029e-10
-2.59332e-11
2.82812e-10
6.96457e-10
1.05606e-09
1.12419e-09
6.65767e-10
-4.35047e-10
-2.06866e-09
-3.86018e-09
-5.23101e-09
-5.55416e-09
-4.35043e-09
-1.44937e-09
2.94885e-09
8.33216e-09
1.40267e-08
1.93758e-08
2.38836e-08
2.72822e-08
2.95219e-08
3.07075e-08
3.10203e-08
3.06531e-08
2.97726e-08
2.85077e-08
2.6955e-08
2.51891e-08
2.32723e-08
2.12604e-08
1.9205e-08
1.71531e-08
1.51466e-08
1.32211e-08
1.14058e-08
9.72258e-09
8.18685e-09
6.80744e-09
5.5874e-09
4.52471e-09
3.61319e-09
2.84346e-09
2.20396e-09
1.67924e-09
1.25698e-09
9.24078e-10
6.65805e-10
4.69076e-10
3.22081e-10
2.14528e-10
1.37636e-10
8.40894e-11
4.7927e-11
2.44004e-11
9.81338e-12
1.35745e-12
-3.0474e-12
-4.89892e-12
-5.24192e-12
-4.7785e-12
-3.95907e-12
-3.05519e-12
-2.21602e-12
-1.51081e-12
-9.59584e-13
-5.54703e-13
-2.75109e-13
-9.52801e-14
9.65236e-15
6.14053e-14
7.76971e-14
7.23405e-14
5.57473e-14
3.54981e-14
1.67898e-14
2.72531e-15
-5.47463e-15
-8.1975e-15
-6.98711e-15
-3.90316e-15
-8.20347e-16
1.11076e-15
1.64479e-15
1.22335e-15
5.18852e-16
1.63718e-17
-1.5337e-16
-1.13427e-16
-3.29816e-17
5.78123e-18
7.81366e-18
1.42909e-18
3.14844e-11
2.79605e-11
-1.20363e-11
-9.19486e-11
-1.92105e-10
-2.53971e-10
-1.89068e-10
8.32747e-11
5.73109e-10
1.15783e-09
1.56203e-09
1.41614e-09
3.99836e-10
-1.57086e-09
-4.19428e-09
-6.75769e-09
-8.27964e-09
-7.78942e-09
-4.64307e-09
1.25081e-09
9.38688e-09
1.88133e-08
2.84075e-08
3.71642e-08
4.43957e-08
4.97955e-08
5.33814e-08
5.53714e-08
5.60577e-08
5.57165e-08
5.45676e-08
5.27727e-08
5.04517e-08
4.77031e-08
4.46169e-08
4.12816e-08
3.77841e-08
3.42085e-08
3.06334e-08
2.71292e-08
2.37573e-08
2.05682e-08
1.7601e-08
1.48839e-08
1.24337e-08
1.02575e-08
8.35346e-09
6.71239e-09
5.31933e-09
4.15534e-09
3.1943e-09
2.41541e-09
1.79643e-09
1.31195e-09
9.3921e-10
6.57511e-10
4.48663e-10
2.97016e-10
1.89417e-10
1.15047e-10
6.5197e-11
3.30111e-11
1.32119e-11
1.8321e-12
-4.03555e-12
-6.46302e-12
-6.8806e-12
-6.23916e-12
-5.14163e-12
-3.94668e-12
-2.84784e-12
-1.93219e-12
-1.22229e-12
-7.05099e-13
-3.50953e-13
-1.25214e-13
5.17048e-15
6.86006e-14
8.79201e-14
8.07132e-14
6.00981e-14
3.55493e-14
1.35006e-14
-2.30208e-15
-1.05605e-14
-1.20717e-14
-9.09099e-15
-4.4109e-15
-3.82794e-16
1.76735e-15
2.05566e-15
1.29593e-15
4.08508e-16
-9.12991e-17
-1.82037e-16
-9.12595e-17
-1.06412e-17
1.05698e-17
4.63193e-18
3.62723e-11
-3.20447e-11
-1.44589e-10
-2.73315e-10
-3.29111e-10
-1.86297e-10
2.56334e-10
9.81385e-10
1.76723e-09
2.17421e-09
1.65489e-09
-2.10844e-10
-3.42962e-09
-7.38902e-09
-1.08625e-08
-1.22783e-08
-1.01845e-08
-3.73539e-09
6.99878e-09
2.10295e-08
3.67466e-08
5.23813e-08
6.64472e-08
7.80102e-08
8.67312e-08
9.27328e-08
9.63864e-08
9.81204e-08
9.83034e-08
9.72053e-08
9.50133e-08
9.1867e-08
8.78892e-08
8.32055e-08
7.79492e-08
7.22608e-08
6.6283e-08
6.01557e-08
5.40112e-08
4.797e-08
4.2138e-08
3.66038e-08
3.14371e-08
2.66888e-08
2.23911e-08
1.8559e-08
1.5192e-08
1.22769e-08
9.79039e-09
7.70179e-09
5.96749e-09
4.55278e-09
3.42041e-09
2.52702e-09
1.83358e-09
1.30424e-09
9.07302e-10
6.15256e-10
4.04794e-10
2.56576e-10
1.54892e-10
8.72431e-11
4.3899e-11
1.74497e-11
2.38243e-12
-5.30141e-12
-8.42276e-12
-8.90897e-12
-8.02772e-12
-6.57351e-12
-5.01253e-12
-3.5917e-12
-2.4184e-12
-1.51677e-12
-8.6595e-13
-4.24847e-13
-1.47128e-13
1.05745e-14
8.49731e-14
1.05224e-13
9.35379e-14
6.63551e-14
3.5481e-14
8.84958e-15
-9.08747e-15
-1.71062e-14
-1.67373e-14
-1.13245e-14
-4.66895e-15
3.36085e-16
2.5249e-15
2.38498e-15
1.23305e-15
2.23943e-16
-1.93828e-16
-1.78087e-16
-5.42482e-17
6.67941e-18
9.98306e-18
-2.62735e-11
-2.10129e-10
-3.70204e-10
-4.14737e-10
-1.68492e-10
4.94835e-10
1.51853e-09
2.54512e-09
2.91143e-09
1.83118e-09
-1.24095e-09
-6.18309e-09
-1.19214e-08
-1.64804e-08
-1.74364e-08
-1.26504e-08
-1.00142e-09
1.71893e-08
4.02222e-08
6.55348e-08
9.04371e-08
1.1277e-07
1.31265e-07
1.45547e-07
1.55884e-07
1.62846e-07
1.67022e-07
1.68874e-07
1.68707e-07
1.66713e-07
1.63031e-07
1.578e-07
1.51179e-07
1.43358e-07
1.34549e-07
1.24983e-07
1.14894e-07
1.04519e-07
9.40794e-08
8.37828e-08
7.3811e-08
6.4318e-08
5.54266e-08
4.72276e-08
3.97804e-08
3.31154e-08
2.72362e-08
2.21248e-08
1.7745e-08
1.40481e-08
1.09622e-08
8.43001e-09
6.3898e-09
4.76859e-09
3.50017e-09
2.52332e-09
1.78344e-09
1.23284e-09
8.30781e-10
5.43193e-10
3.42157e-10
2.0526e-10
1.14867e-10
5.7399e-11
2.26189e-11
2.9892e-12
-6.9033e-12
-1.08393e-11
-1.13758e-11
-1.01766e-11
-8.27209e-12
-6.25857e-12
-4.44562e-12
-2.96289e-12
-1.83433e-12
-1.02808e-12
-4.88189e-13
-1.53561e-13
3.19198e-14
1.15096e-13
1.32751e-13
1.12675e-13
7.53455e-14
3.54218e-14
2.64136e-15
-1.78169e-14
-2.50894e-14
-2.1949e-14
-1.33559e-14
-4.43498e-15
1.39805e-15
3.30706e-15
2.53613e-15
1.00321e-15
-5.24961e-18
-2.56696e-16
-1.36647e-16
-1.51193e-17
1.60688e-17
-2.21079e-10
-4.9014e-10
-5.16799e-10
-1.46148e-10
7.90563e-10
2.18921e-09
3.5177e-09
3.81733e-09
1.97892e-09
-2.71725e-09
-9.97673e-09
-1.80858e-08
-2.40138e-08
-2.41182e-08
-1.52584e-08
4.11404e-09
3.33548e-08
6.97766e-08
1.09474e-07
1.4845e-07
1.83589e-07
2.13143e-07
2.36679e-07
2.54653e-07
2.67882e-07
2.77146e-07
2.82986e-07
2.85705e-07
2.85448e-07
2.82311e-07
2.7641e-07
2.67921e-07
2.57085e-07
2.44202e-07
2.29618e-07
2.13711e-07
1.96872e-07
1.79492e-07
1.61949e-07
1.44593e-07
1.27732e-07
1.11632e-07
9.65061e-08
8.25129e-08
6.97604e-08
5.83068e-08
4.81662e-08
3.93147e-08
3.16981e-08
2.52397e-08
1.98222e-08
1.53524e-08
1.17292e-08
8.83132e-09
6.54765e-09
4.7749e-09
3.42023e-09
2.40199e-09
1.64993e-09
1.10483e-09
7.17814e-10
4.49267e-10
2.67753e-10
1.48808e-10
7.37825e-11
2.8761e-11
3.59857e-12
-8.91982e-12
-1.37833e-11
-1.43319e-11
-1.27156e-11
-1.025e-11
-7.68509e-12
-5.40227e-12
-3.55439e-12
-2.16243e-12
-1.17934e-12
-5.3015e-13
-1.35473e-13
7.62977e-14
1.64128e-13
1.73857e-13
1.39917e-13
8.76608e-14
3.52311e-14
-5.49157e-15
-2.86765e-14
-3.43337e-14
-2.72551e-14
-1.4717e-14
-3.45848e-15
2.78533e-15
3.96506e-15
2.40747e-15
6.17627e-16
-2.17832e-16
-2.50627e-16
-7.09312e-17
1.7276e-17
-5.54031e-10
-6.56398e-10
-1.37596e-10
1.1221e-09
2.98774e-09
4.71568e-09
4.96752e-09
2.1955e-09
-4.58594e-09
-1.48953e-08
-2.6187e-08
-3.39903e-08
-3.29375e-08
-1.84032e-08
1.18822e-08
5.69445e-08
1.12799e-07
1.73689e-07
2.33773e-07
2.88553e-07
3.35568e-07
3.74265e-07
4.05331e-07
4.29898e-07
4.48959e-07
4.6311e-07
4.72577e-07
4.77362e-07
4.77417e-07
4.72758e-07
4.63512e-07
4.4994e-07
4.3242e-07
4.11434e-07
3.87545e-07
3.6137e-07
3.33556e-07
3.04754e-07
2.75591e-07
2.46651e-07
2.18457e-07
1.91455e-07
1.6601e-07
1.42398e-07
1.20811e-07
1.01357e-07
8.40722e-08
6.89279e-08
5.5844e-08
4.47022e-08
3.53135e-08
2.75275e-08
2.11811e-08
1.60745e-08
1.20238e-08
8.85666e-09
6.41713e-09
4.56712e-09
3.18699e-09
2.1752e-09
1.44727e-09
9.3423e-10
5.80862e-10
3.43801e-10
1.89649e-10
9.31992e-11
3.58318e-11
4.10121e-12
-1.14619e-11
-1.73413e-11
-1.78336e-11
-1.56741e-11
-1.25161e-11
-9.28763e-12
-6.44953e-12
-4.17743e-12
-2.48509e-12
-1.30494e-12
-5.38016e-13
-8.25754e-14
1.51512e-13
2.37483e-13
2.31774e-13
1.76658e-13
1.0337e-13
3.4313e-14
-1.61439e-14
-4.17955e-14
-4.44109e-14
-3.19464e-14
-1.48387e-14
-1.56857e-15
4.33845e-15
4.28496e-15
1.93899e-15
1.54821e-16
-3.37466e-16
-1.74118e-16
8.13398e-19
-8.47839e-10
-1.82241e-10
1.45331e-09
3.89073e-09
6.16702e-09
6.46989e-09
2.65911e-09
-6.67344e-09
-2.0909e-08
-3.64958e-08
-4.70668e-08
-4.48488e-08
-2.30063e-08
2.19821e-08
8.89547e-08
1.72329e-07
2.63866e-07
3.55133e-07
4.39623e-07
5.13779e-07
5.76804e-07
6.29659e-07
6.73877e-07
7.10702e-07
7.40739e-07
7.64011e-07
7.80211e-07
7.88969e-07
7.90028e-07
7.83335e-07
7.69065e-07
7.47616e-07
7.19588e-07
6.85754e-07
6.47023e-07
6.04399e-07
5.58941e-07
5.11713e-07
4.63749e-07
4.16013e-07
3.69373e-07
3.24579e-07
2.82244e-07
2.42841e-07
2.06706e-07
1.74036e-07
1.44911e-07
1.193e-07
9.70903e-08
7.81003e-08
6.20295e-08
4.86387e-08
3.76672e-08
2.87897e-08
2.17054e-08
1.61299e-08
1.18043e-08
8.4978e-09
6.00913e-09
4.16634e-09
2.82532e-09
1.86759e-09
1.19754e-09
7.39455e-10
4.34461e-10
2.37686e-10
1.15594e-10
4.3648e-11
4.29902e-12
-1.46935e-11
-2.1629e-11
-2.19508e-11
-1.9086e-11
-1.50793e-11
-1.10592e-11
-7.57204e-12
-4.81346e-12
-2.78378e-12
-1.3882e-12
-4.97814e-13
1.61232e-14
2.65571e-13
3.40332e-13
3.0911e-13
2.23428e-13
1.21664e-13
3.14323e-14
-3.01287e-14
-5.71091e-14
-5.45073e-14
-3.5039e-14
-1.31602e-14
1.19423e-15
5.71545e-15
4.04669e-15
1.17769e-15
-2.4187e-16
-3.14764e-16
-5.4748e-17
-6.12229e-10
1.73518e-09
4.84892e-09
7.88122e-09
8.45289e-09
3.6359e-09
-8.64579e-09
-2.77979e-08
-4.91617e-08
-6.39802e-08
-6.12015e-08
-3.073e-08
3.31062e-08
1.29385e-07
2.50729e-07
3.85677e-07
5.2221e-07
6.50888e-07
7.66451e-07
8.67622e-07
9.55665e-07
1.03264e-06
1.10012e-06
1.15865e-06
1.20788e-06
1.24692e-06
1.27477e-06
1.2906e-06
1.29391e-06
1.28457e-06
1.26282e-06
1.22929e-06
1.18492e-06
1.13093e-06
1.06879e-06
1.0001e-06
9.26582e-07
8.49952e-07
7.71893e-07
6.93983e-07
6.17646e-07
5.44123e-07
4.74438e-07
4.09393e-07
3.49561e-07
2.95299e-07
2.46765e-07
2.03943e-07
1.66672e-07
1.34682e-07
1.07501e-07
8.47506e-08
6.60205e-08
5.07868e-08
3.85623e-08
2.88832e-08
2.13246e-08
1.5505e-08
1.10899e-08
7.79149e-09
5.36707e-09
3.61571e-09
2.37409e-09
1.51182e-09
9.26716e-10
5.40151e-10
2.92757e-10
1.40593e-10
5.18138e-11
3.85803e-12
-1.88615e-11
-2.68098e-11
-2.67794e-11
-2.29976e-11
-1.79527e-11
-1.29934e-11
-8.75349e-12
-5.4425e-12
-3.03873e-12
-1.41159e-12
-3.95145e-13
1.71589e-13
4.26007e-13
4.76925e-13
4.07193e-13
2.79318e-13
1.40461e-13
2.45962e-14
-4.83367e-14
-7.41121e-14
-6.32831e-14
-3.53536e-14
-9.34274e-15
4.43407e-15
6.42844e-15
3.14777e-15
3.23777e-16
-4.21714e-16
-1.74815e-16
9.87873e-10
5.83819e-09
9.82362e-09
1.10367e-08
5.46705e-09
-9.97867e-09
-3.50611e-08
-6.40727e-08
-8.54119e-08
-8.37032e-08
-4.41409e-08
4.25266e-08
1.76534e-07
3.4878e-07
5.4382e-07
7.44765e-07
9.37922e-07
1.11537e-06
1.27492e-06
1.41814e-06
1.54781e-06
1.66597e-06
1.7731e-06
1.8682e-06
1.94941e-06
2.01462e-06
2.06194e-06
2.08993e-06
2.09774e-06
2.08512e-06
2.05241e-06
2.00057e-06
1.93106e-06
1.84582e-06
1.74716e-06
1.63763e-06
1.51995e-06
1.3969e-06
1.27118e-06
1.14533e-06
1.02168e-06
9.02252e-07
7.88746e-07
6.82496e-07
5.84476e-07
4.95314e-07
4.15314e-07
3.44496e-07
2.82645e-07
2.29364e-07
1.83919e-07
1.45722e-07
1.14132e-07
8.83147e-08
6.749e-08
5.09095e-08
3.7883e-08
2.77877e-08
2.00734e-08
1.42643e-08
9.95636e-09
6.8131e-09
4.55904e-09
2.97276e-09
1.87931e-09
1.14297e-09
6.60318e-10
3.54016e-10
1.67358e-10
5.96279e-11
2.24948e-12
-2.43326e-11
-3.31178e-11
-3.24542e-11
-2.74755e-11
-2.11595e-11
-1.50881e-11
-9.9789e-12
-6.04491e-12
-3.23026e-12
-1.3578e-12
-2.16135e-13
3.93895e-13
6.39026e-13
6.49734e-13
5.25236e-13
3.41301e-13
1.56059e-13
1.11154e-14
-7.13795e-14
-9.15054e-14
-6.88104e-14
-3.17742e-14
-3.57867e-15
7.33333e-15
6.01901e-15
1.75371e-15
-3.11519e-16
-3.70711e-16
4.92802e-09
1.20647e-08
1.42723e-08
8.5244e-09
-9.95795e-09
-4.18289e-08
-8.06647e-08
-1.11741e-07
-1.14229e-07
-6.6732e-08
4.5716e-08
2.26189e-07
4.64495e-07
7.40588e-07
1.03117e-06
1.31647e-06
1.58443e-06
1.83119e-06
2.05851e-06
2.27019e-06
2.46904e-06
2.65551e-06
2.82771e-06
2.98226e-06
3.11525e-06
3.22293e-06
3.30217e-06
3.35066e-06
3.36696e-06
3.35062e-06
3.30213e-06
3.22292e-06
3.11523e-06
2.98208e-06
2.82705e-06
2.65419e-06
2.46776e-06
2.27217e-06
2.07173e-06
1.8705e-06
1.67224e-06
1.48023e-06
1.29724e-06
1.12546e-06
9.66541e-07