# vtk DataFile Version 3.0
Malha 2D com triângulos e temperatura
ASCII
DATASET UNSTRUCTURED_GRID

POINTS 2500 double
0 0 0
1 0 0
1 2 0
0 2 0
0.0204082 0 0
0.0408163 0 0
0.0612245 0 0
0.0816327 0 0
0.102041 0 0
0.122449 0 0
0.142857 0 0
0.163265 0 0
0.183673 0 0
0.204082 0 0
0.22449 0 0
0.244898 0 0
0.265306 0 0
0.285714 0 0
0.306122 0 0
0.326531 0 0
0.346939 0 0
0.367347 0 0
0.387755 0 0
0.408163 0 0
0.428571 0 0
0.44898 0 0
0.469388 0 0
0.489796 0 0
0.510204 0 0
0.530612 0 0
0.55102 0 0
0.571429 0 0
0.591837 0 0
0.612245 0 0
0.632653 0 0
0.653061 0 0
0.673469 0 0
0.693878 0 0
0.714286 0 0
0.734694 0 0
0.755102 0 0
0.77551 0 0
0.795918 0 0
0.816327 0 0
0.836735 0 0
0.857143 0 0
0.877551 0 0
0.897959 0 0
0.918367 0 0
0.938776 0 0
0.959184 0 0
0.979592 0 0
1 0.0408163 0
1 0.0816327 0
1 0.122449 0
1 0.163265 0
1 0.204082 0
1 0.244898 0
1 0.285714 0
1 0.326531 0
1 0.367347 0
1 0.408163 0
1 0.44898 0
1 0.489796 0
1 0.530612 0
1 0.571429 0
1 0.612245 0
1 0.653061 0
1 0.693878 0
1 0.734694 0
1 0.77551 0
1 0.816327 0
1 0.857143 0
1 0.897959 0
1 0.938776 0
1 0.979592 0
1 1.02041 0
1 1.06122 0
1 1.10204 0
1 1.14286 0
1 1.18367 0
1 1.22449 0
1 1.26531 0
1 1.30612 0
1 1.34694 0
1 1.38776 0
1 1.42857 0
1 1.46939 0
1 1.5102 0
1 1.55102 0
1 1.59184 0
1 1.63265 0
1 1.67347 0
1 1.71429 0
1 1.7551 0
1 1.79592 0
1 1.83673 0
1 1.87755 0
1 1.91837 0
1 1.95918 0
0.979592 2 0
0.959184 2 0
0.938776 2 0
0.918367 2 0
0.897959 2 0
0.877551 2 0
0.857143 2 0
0.836735 2 0
0.816327 2 0
0.795918 2 0
0.77551 2 0
0.755102 2 0
0.734694 2 0
0.714286 2 0
0.693878 2 0
0.673469 2 0
0.653061 2 0
0.632653 2 0
0.612245 2 0
0.591837 2 0
0.571429 2 0
0.55102 2 0
0.530612 2 0
0.510204 2 0
0.489796 2 0
0.469388 2 0
0.44898 2 0
0.428571 2 0
0.408163 2 0
0.387755 2 0
0.367347 2 0
0.346939 2 0
0.326531 2 0
0.306122 2 0
0.285714 2 0
0.265306 2 0
0.244898 2 0
0.22449 2 0
0.204082 2 0
0.183673 2 0
0.163265 2 0
0.142857 2 0
0.122449 2 0
0.102041 2 0
0.0816327 2 0
0.0612245 2 0
0.0408163 2 0
0.0204082 2 0
0 1.95918 0
0 1.91837 0
0 1.87755 0
0 1.83673 0
0 1.79592 0
0 1.7551 0
0 1.71429 0
0 1.67347 0
0 1.63265 0
0 1.59184 0
0 1.55102 0
0 1.5102 0
0 1.46939 0
0 1.42857 0
0 1.38776 0
0 1.34694 0
0 1.30612 0
0 1.26531 0
0 1.22449 0
0 1.18367 0
0 1.14286 0
0 1.10204 0
0 1.06122 0
0 1.02041 0
0 0.979592 0
0 0.938776 0
0 0.897959 0
0 0.857143 0
0 0.816327 0
0 0.77551 0
0 0.734694 0
0 0.693878 0
0 0.653061 0
0 0.612245 0
0 0.571429 0
0 0.530612 0
0 0.489796 0
0 0.44898 0
0 0.408163 0
0 0.367347 0
0 0.326531 0
0 0.285714 0
0 0.244898 0
0 0.204082 0
0 0.163265 0
0 0.122449 0
0 0.0816327 0
0 0.0408163 0
0.0204082 0.0408163 0
0.0204082 0.0816327 0
0.0204082 0.122449 0
0.0204082 0.163265 0
0.0204082 0.204082 0
0.0204082 0.244898 0
0.0204082 0.285714 0
0.0204082 0.326531 0
0.0204082 0.367347 0
0.0204082 0.408163 0
0.0204082 0.44898 0
0.0204082 0.489796 0
0.0204082 0.530612 0
0.0204082 0.571429 0
0.0204082 0.612245 0
0.0204082 0.653061 0
0.0204082 0.693878 0
0.0204082 0.734694 0
0.0204082 0.77551 0
0.0204082 0.816327 0
0.0204082 0.857143 0
0.0204082 0.897959 0
0.0204082 0.938776 0
0.0204082 0.979592 0
0.0204082 1.02041 0
0.0204082 1.06122 0
0.0204082 1.10204 0
0.0204082 1.14286 0
0.0204082 1.18367 0
0.0204082 1.22449 0
0.0204082 1.26531 0
0.0204082 1.30612 0
0.0204082 1.34694 0
0.0204082 1.38776 0
0.0204082 1.42857 0
0.0204082 1.46939 0
0.0204082 1.5102 0
0.0204082 1.55102 0
0.0204082 1.59184 0
0.0204082 1.63265 0
0.0204082 1.67347 0
0.0204082 1.71429 0
0.0204082 1.7551 0
0.0204082 1.79592 0
0.0204082 1.83673 0
0.0204082 1.87755 0
0.0204082 1.91837 0
0.0204082 1.95918 0
0.0408163 0.0408163 0
0.0408163 0.0816327 0
0.0408163 0.122449 0
0.0408163 0.163265 0
0.0408163 0.204082 0
0.0408163 0.244898 0
0.0408163 0.285714 0
0.0408163 0.326531 0
0.0408163 0.367347 0
0.0408163 0.408163 0
0.0408163 0.44898 0
0.0408163 0.489796 0
0.0408163 0.530612 0
0.0408163 0.571429 0
0.0408163 0.612245 0
0.0408163 0.653061 0
0.0408163 0.693878 0
0.0408163 0.734694 0
0.0408163 0.77551 0
0.0408163 0.816327 0
0.0408163 0.857143 0
0.0408163 0.897959 0
0.0408163 0.938776 0
0.0408163 0.979592 0
0.0408163 1.02041 0
0.0408163 1.06122 0
0.0408163 1.10204 0
0.0408163 1.14286 0
0.0408163 1.18367 0
0.0408163 1.22449 0
0.0408163 1.26531 0
0.0408163 1.30612 0
0.0408163 1.34694 0
0.0408163 1.38776 0
0.0408163 1.42857 0
0.0408163 1.46939 0
0.0408163 1.5102 0
0.0408163 1.55102 0
0.0408163 1.59184 0
0.0408163 1.63265 0
0.0408163 1.67347 0
0.0408163 1.71429 0
0.0408163 1.7551 0
0.0408163 1.79592 0
0.0408163 1.83673 0
0.0408163 1.87755 0
0.0408163 1.91837 0
0.0408163 1.95918 0
0.0612245 0.0408163 0
0.0612245 0.0816327 0
0.0612245 0.122449 0
0.0612245 0.163265 0
0.0612245 0.204082 0
0.0612245 0.244898 0
0.0612245 0.285714 0
0.0612245 0.326531 0
0.0612245 0.367347 0
0.0612245 0.408163 0
0.0612245 0.44898 0
0.0612245 0.489796 0
0.0612245 0.530612 0
0.0612245 0.571429 0
0.0612245 0.612245 0
0.0612245 0.653061 0
0.0612245 0.693878 0
0.0612245 0.734694 0
0.0612245 0.77551 0
0.0612245 0.816327 0
0.0612245 0.857143 0
0.0612245 0.897959 0
0.0612245 0.938776 0
0.0612245 0.979592 0
0.0612245 1.02041 0
0.0612245 1.06122 0
0.0612245 1.10204 0
0.0612245 1.14286 0
0.0612245 1.18367 0
0.0612245 1.22449 0
0.0612245 1.26531 0
0.0612245 1.30612 0
0.0612245 1.34694 0
0.0612245 1.38776 0
0.0612245 1.42857 0
0.0612245 1.46939 0
0.0612245 1.5102 0
0.0612245 1.55102 0
0.0612245 1.59184 0
0.0612245 1.63265 0
0.0612245 1.67347 0
0.0612245 1.71429 0
0.0612245 1.7551 0
0.0612245 1.79592 0
0.0612245 1.83673 0
0.0612245 1.87755 0
0.0612245 1.91837 0
0.0612245 1.95918 0
0.0816327 0.0408163 0
0.0816327 0.0816327 0
0.0816327 0.122449 0
0.0816327 0.163265 0
0.0816327 0.204082 0
0.0816327 0.244898 0
0.0816327 0.285714 0
0.0816327 0.326531 0
0.0816327 0.367347 0
0.0816327 0.408163 0
0.0816327 0.44898 0
0.0816327 0.489796 0
0.0816327 0.530612 0
0.0816327 0.571429 0
0.0816327 0.612245 0
0.0816327 0.653061 0
0.0816327 0.693878 0
0.0816327 0.734694 0
0.0816327 0.77551 0
0.0816327 0.816327 0
0.0816327 0.857143 0
0.0816327 0.897959 0
0.0816327 0.938776 0
0.0816327 0.979592 0
0.0816327 1.02041 0
0.0816327 1.06122 0
0.0816327 1.10204 0
0.0816327 1.14286 0
0.0816327 1.18367 0
0.0816327 1.22449 0
0.0816327 1.26531 0
0.0816327 1.30612 0
0.0816327 1.34694 0
0.0816327 1.38776 0
0.0816327 1.42857 0
0.0816327 1.46939 0
0.0816327 1.5102 0
0.0816327 1.55102 0
0.0816327 1.59184 0
0.0816327 1.63265 0
0.0816327 1.67347 0
0.0816327 1.71429 0
0.0816327 1.7551 0
0.0816327 1.79592 0
0.0816327 1.83673 0
0.0816327 1.87755 0
0.0816327 1.91837 0
0.0816327 1.95918 0
0.102041 0.0408163 0
0.102041 0.0816327 0
0.102041 0.122449 0
0.102041 0.163265 0
0.102041 0.204082 0
0.102041 0.244898 0
0.102041 0.285714 0
0.102041 0.326531 0
0.102041 0.367347 0
0.102041 0.408163 0
0.102041 0.44898 0
0.102041 0.489796 0
0.102041 0.530612 0
0.102041 0.571429 0
0.102041 0.612245 0
0.102041 0.653061 0
0.102041 0.693878 0
0.102041 0.734694 0
0.102041 0.77551 0
0.102041 0.816327 0
0.102041 0.857143 0
0.102041 0.897959 0
0.102041 0.938776 0
0.102041 0.979592 0
0.102041 1.02041 0
0.102041 1.06122 0
0.102041 1.10204 0
0.102041 1.14286 0
0.102041 1.18367 0
0.102041 1.22449 0
0.102041 1.26531 0
0.102041 1.30612 0
0.102041 1.34694 0
0.102041 1.38776 0
0.102041 1.42857 0
0.102041 1.46939 0
0.102041 1.5102 0
0.102041 1.55102 0
0.102041 1.59184 0
0.102041 1.63265 0
0.102041 1.67347 0
0.102041 1.71429 0
0.102041 1.7551 0
0.102041 1.79592 0
0.102041 1.83673 0
0.102041 1.87755 0
0.102041 1.91837 0
0.102041 1.95918 0
0.122449 0.0408163 0
0.122449 0.0816327 0
0.122449 0.122449 0
0.122449 0.163265 0
0.122449 0.204082 0
0.122449 0.244898 0
0.122449 0.285714 0
0.122449 0.326531 0
0.122449 0.367347 0
0.122449 0.408163 0
0.122449 0.44898 0
0.122449 0.489796 0
0.122449 0.530612 0
0.122449 0.571429 0
0.122449 0.612245 0
0.122449 0.653061 0
0.122449 0.693878 0
0.122449 0.734694 0
0.122449 0.77551 0
0.122449 0.816327 0
0.122449 0.857143 0
0.122449 0.897959 0
0.122449 0.938776 0
0.122449 0.979592 0
0.122449 1.02041 0
0.122449 1.06122 0
0.122449 1.10204 0
0.122449 1.14286 0
0.122449 1.18367 0
0.122449 1.22449 0
0.122449 1.26531 0
0.122449 1.30612 0
0.122449 1.34694 0
0.122449 1.38776 0
0.122449 1.42857 0
0.122449 1.46939 0
0.122449 1.5102 0
0.122449 1.55102 0
0.122449 1.59184 0
0.122449 1.63265 0
0.122449 1.67347 0
0.122449 1.71429 0
0.122449 1.7551 0
0.122449 1.79592 0
0.122449 1.83673 0
0.122449 1.87755 0
0.122449 1.91837 0
0.122449 1.95918 0
0.142857 0.0408163 0
0.142857 0.0816327 0
0.142857 0.122449 0
0.142857 0.163265 0
0.142857 0.204082 0
0.142857 0.244898 0
0.142857 0.285714 0
0.142857 0.326531 0
0.142857 0.367347 0
0.142857 0.408163 0
0.142857 0.44898 0
0.142857 0.489796 0
0.142857 0.530612 0
0.142857 0.571429 0
0.142857 0.612245 0
0.142857 0.653061 0
0.142857 0.693878 0
0.142857 0.734694 0
0.142857 0.77551 0
0.142857 0.816327 0
0.142857 0.857143 0
0.142857 0.897959 0
0.142857 0.938776 0
0.142857 0.979592 0
0.142857 1.02041 0
0.142857 1.06122 0
0.142857 1.10204 0
0.142857 1.14286 0
0.142857 1.18367 0
0.142857 1.22449 0
0.142857 1.26531 0
0.142857 1.30612 0
0.142857 1.34694 0
0.142857 1.38776 0
0.142857 1.42857 0
0.142857 1.46939 0
0.142857 1.5102 0
0.142857 1.55102 0
0.142857 1.59184 0
0.142857 1.63265 0
0.142857 1.67347 0
0.142857 1.71429 0
0.142857 1.7551 0
0.142857 1.79592 0
0.142857 1.83673 0
0.142857 1.87755 0
0.142857 1.91837 0
0.142857 1.95918 0
0.163265 0.0408163 0
0.163265 0.0816327 0
0.163265 0.122449 0
0.163265 0.163265 0
0.163265 0.204082 0
0.163265 0.244898 0
0.163265 0.285714 0
0.163265 0.326531 0
0.163265 0.367347 0
0.163265 0.408163 0
0.163265 0.44898 0
0.163265 0.489796 0
0.163265 0.530612 0
0.163265 0.571429 0
0.163265 0.612245 0
0.163265 0.653061 0
0.163265 0.693878 0
0.163265 0.734694 0
0.163265 0.77551 0
0.163265 0.816327 0
0.163265 0.857143 0
0.163265 0.897959 0
0.163265 0.938776 0
0.163265 0.979592 0
0.163265 1.02041 0
0.163265 1.06122 0
0.163265 1.10204 0
0.163265 1.14286 0
0.163265 1.18367 0
0.163265 1.22449 0
0.163265 1.26531 0
0.163265 1.30612 0
0.163265 1.34694 0
0.163265 1.38776 0
[...]
CELL_DATA 2401
SCALARS Temperatura double 1
LOOKUP_TABLE default
0.150794
0.147411
0.142848
0.137554
0.13176
0.125608
0.119195
0.11258
0.105803
0.0988857
0.0918394
0.0846796
0.0777372
0.0717564
0.0662897
0.0610622
0.0558978
0.0506775
0.045315
0.039741
0.0338909
0.0276923
0.0210753
0.0142636
0.00989711
0.0142636
0.0210753
0.0276923
0.0338909
0.039741
0.045315
0.0506775
0.0558978
0.0610622
0.0662897
0.0717564
0.0777372
0.0846796
0.0918394
0.0988857
0.105803
0.11258
0.119195
0.125608
0.13176
0.137554
0.142848
0.147411
0.150794
0.335124
0.327137
0.316939
0.305711
0.294021
0.282187
0.270373
0.258642
0.246979
0.235311
0.223519
0.211444
0.198938
0.186049
0.172819
0.159266
0.145392
0.131187
0.116619
0.101636
0.0861506
0.0700165
0.0530628
0.0358231
0.0248483
0.0358231
0.0530628
0.0700165
0.0861506
0.101636
0.116619
0.131187
0.145392
0.159266
0.172819
0.186049
0.198938
0.211444
0.223519
0.235311
0.246979
0.258642
0.270373
0.282187
0.294021
0.305711
0.316939
0.327137
0.335124
0.417969
0.405838
0.39093
0.375239
0.359716
0.344867
0.330937
0.317997
0.305996
0.294782
0.284124
0.273695
0.262823
0.250535
0.23687
0.221857
0.205521
0.18788
0.168943
0.148698
0.127091
0.103994
0.0792468
0.0537472
0.0374122
0.0537472
0.0792468
0.103994
0.127091
0.148698
0.168943
0.18788
0.205521
0.221857
0.23687
0.250535
0.262823
0.273695
0.284124
0.294782
0.305996
0.317997
0.330937
0.344867
0.359716
0.375239
0.39093
0.405838
0.417969
0.448877
0.43219
0.412113
0.391597
0.372032
0.354126
0.338202
0.324346
0.312494
0.302473
0.294022
0.286772
0.279889
0.271895
0.262419
0.251106
0.237643
0.221774
0.203307
0.182106
0.158062
0.131043
0.100937
0.0690607
0.0483639
0.0690607
0.100937
0.131043
0.158062
0.182106
0.203307
0.221774
0.237643
0.251106
0.262419
0.271895
0.279889
0.286772
0.294022
0.302473
0.312494
0.324346
0.338202
0.354126
0.372032
0.391597
0.412113
0.43219
0.448877
0.460155
0.438393
0.412515
0.386585
0.36246
0.341014
0.322591
0.307243
0.294859
0.285236
0.278113
0.273157
0.269642
0.266148
0.261954
0.256268
0.248296
0.237294
0.222621
0.203767
0.18035
0.152079
0.118807
0.0822382
0.0580533
0.0822382
0.118807
0.152079
0.18035
0.203767
0.222621
0.237294
0.248296
0.256268
0.261954
0.266148
0.269642
0.273157
0.278113
0.285236
0.294859
0.307243
0.322591
0.341014
0.36246
0.386585
0.412515
0.438393
0.460155
0.465375
0.438136
0.40602
0.374366
0.345503
0.320405
0.299353
0.282276
0.268948
0.259092
0.25242
0.248628
0.247183
0.246994
0.247242
0.246906
0.24482
0.239755
0.230512
0.216018
0.195392
0.167958
0.133365
0.0935761
0.0666796
0.0935761
0.133365
0.167958
0.195392
0.216018
0.230512
0.239755
0.24482
0.246906
0.247242
0.246994
0.247183
0.248628
0.25242
0.259092
0.268948
0.282276
0.299353
0.320405
0.345503
0.374366
0.40602
0.438136
0.465375
0.468932
0.435925
0.397314
0.359883
0.326423
0.297923
0.274497
0.255865
0.24162
0.231355
0.224717
0.221406
0.221044
0.222912
0.226284
0.230145
0.23318
0.233828
0.230388
0.221169
0.204635
0.179521
0.14506
0.103301
0.0743778
0.103301
0.14506
0.179521
0.204635
0.221169
0.230388
0.233828
0.23318
0.230145
0.226284
0.222912
0.221044
0.221406
0.224717
0.231355
0.24162
0.255865
0.274497
0.297923
0.326423
0.359883
0.397314
0.435925
0.468932
0.472033
0.43304
0.387793
0.344697
0.306973
0.275523
0.250183
0.230386
0.215486
0.204914
0.198224
0.195095
0.195256
0.198291
0.203653
0.210478
0.217503
0.223037
0.225031
0.221233
0.209407
0.187556
0.15431
0.111604
0.081251
0.111604
0.15431
0.187556
0.209407
0.221233
0.225031
0.223037
0.217503
0.210478
0.203653
0.198291
0.195256
0.195095
0.198224
0.204914
0.215486
0.230386
0.250183
0.275523
0.306973
0.344697
0.387793
0.43304
0.472033
0.474989
0.429844
0.377901
0.329359
0.287818
0.253964
0.227249
0.20674
0.191519
0.180837
0.17415
0.171105
0.171501
0.175151
0.181688
0.190463
0.200388
0.209816
0.216525
0.217835
0.210845
0.19277
0.161494
0.118658
0.0873848
0.118658
0.161494
0.19277
0.210845
0.217835
0.216525
0.209816
0.200388
0.190463
0.181688
0.175151
0.171501
0.171105
0.17415
0.180837
0.191519
0.20674
0.227249
0.253964
0.287818
0.329359
0.377901
0.429844
0.474989
0.477889
0.42647
0.367836
0.314149
0.269304
0.23363
0.206082
0.185302
0.170077
0.159481
0.152881
0.149896
0.150377
0.154304
0.161469
0.171441
0.183361
0.195744
0.20635
0.212218
0.209884
0.195777
0.166955
0.124617
0.0928534
0.124617
0.166955
0.195777
0.209884
0.212218
0.20635
0.195744
0.183361
0.171441
0.161469
0.154304
0.150377
0.149896
0.152881
0.159481
0.170077
0.185302
0.206082
0.23363
0.269304
0.314149
0.367836
0.42647
0.477889
0.480769
0.422995
0.357732
0.299264
0.251668
0.214759
0.186885
0.16622
0.151251
0.140894
0.134447
0.131516
0.131992
0.135984
0.143412
0.154043
0.16726
0.181797
0.195514
0.205307
0.207266
0.197093
0.170993
0.129619
0.0977227
0.129619
0.170993
0.197093
0.207266
0.205307
0.195514
0.181797
0.16726
0.154043
0.143412
0.135984
0.131992
0.131516
0.134447
0.140894
0.151251
0.16622
0.186885
0.214759
0.251668
0.299264
0.357732
0.422995
0.480769
0.48365
0.419477
0.347702
0.284867
0.235088
0.197499
0.169747
0.149506
0.134979
0.124952
0.118689
0.115801
0.116218
0.120138
0.127588
0.138505
0.152499
0.168549
0.184681
0.197765
0.203568
0.197146
0.173872
0.133789
0.102052
0.133789
0.173872
0.197146
0.203568
0.197765
0.184681
0.168549
0.152499
0.138505
0.127588
0.120138
0.116218
0.115801
0.118689
0.124952
0.134979
0.149506
0.169747
0.197499
0.235088
0.284867
0.347702
0.419477
0.48365
0.486544
0.415966
0.337847
0.271095
0.219695
0.181932
0.154672
0.135078
0.121097
0.111433
0.105347
0.102481
0.102799
0.106564
0.113886
0.124842
0.139243
0.156308
0.174272
0.190062
0.199228
0.196282
0.175814
0.137239
0.105895
0.137239
0.175814
0.196282
0.199228
0.190062
0.174272
0.156308
0.139243
0.124842
0.113886
0.106564
0.102799
0.102481
0.105347
0.111433
0.121097
0.135078
0.154672
0.181932
0.219695
0.271095
0.337847
0.415966
0.486544
0.489464
0.412508
0.328261
0.258066
0.205581
0.168084
0.141597
0.122785
0.109383
0.100054
0.0941029
0.0912249
0.0914224
0.0949917
0.102106
0.112949
0.127504
0.145216
0.16454
0.182519
0.194578
0.194782
0.17701
0.140068
0.109301
0.140068
0.17701
0.194782
0.194578
0.182519
0.16454
0.145216
0.127504
0.112949
0.102106
0.0949917
0.0914224
0.0912249
0.0941029
0.100054
0.109383
0.122785
0.141597
0.168084
0.205581
0.258066
0.328261
0.412508
0.489464
0.492417
0.409147
0.319032
0.245877
0.192801
0.155932
0.130413
0.112437
0.0995773
0.0905096
0.0846227
0.0816912
0.0817563
0.0851258
0.0920082
0.102664
0.117216
0.135311
0.155626
0.175351
0.18986
0.192865
0.177619
0.14236
0.112312
0.14236
0.177619
0.192865
0.18986
0.175351
0.155626
0.135311
0.117216
0.102664
0.0920082
0.0851258
0.0817563
0.0816912
0.0846227
0.0905096
0.0995773
0.112437
0.130413
0.155932
0.192801
0.245877
0.319032
0.409147
0.492417
0.495411
0.405924
0.310243
0.234607
0.181378
0.145417
0.120976
0.103821
0.091417
0.082503
0.0765883
0.0735544
0.0734855
0.0766797
0.083352
0.0938062
0.108273
0.126574
0.147596
0.168698
0.185255
0.190707
0.177773
0.144192
0.11497
0.144192
0.177773
0.190707
0.185255
0.168698
0.147596
0.126574
0.108273
0.0938062
0.083352
0.0766797
0.0734855
0.0735544
0.0765883
0.082503
0.091417
0.103821
0.120976
0.145417
0.181378
0.234607
0.310243
0.405924
0.495411
0.498451
0.402877
0.301973
0.224318
0.171308
0.136449
0.113122
0.0967195
0.0846533
0.0757658
0.0697201
0.06653
0.0663324
0.0693987
0.075917
0.0862003
0.100556
0.118952
0.140472
0.162646
0.18089
0.188441
0.177581
0.145629
0.117309
0.145629
0.177581
0.188441
0.18089
0.162646
0.140472
0.118952
0.100556
0.0862003
0.075917
0.0693987
0.0663324
0.06653
0.0697201
0.0757658
0.0846533
0.0967195
0.113122
0.136449
0.171308
0.224318
0.301973
0.402877
0.498451
0.501542
0.400045
0.294293
0.215058
0.162565
0.128924
0.106685
0.0909304
0.0790686
0.0700763
0.0637931
0.0603903
0.0600734
0.0630749
0.0695186
0.0796918
0.0939484
0.11238
0.134247
0.157245
0.176854
0.186173
0.177132
0.146726
0.119362
0.146726
0.177132
0.186173
0.176854
0.157245
0.134247
0.11238
0.0939484
0.0796918
0.0695186
0.0630749
0.0600734
0.0603903
0.0637931
0.0700763
0.0790686
0.0909304
0.106685
0.128924
0.162565
0.215058
0.294293
0.400045
0.501542
0.50469
0.397464
0.287275
0.206859
0.155105
0.122722
0.1015
0.0862731
0.0744861
0.0652689
0.0586469
0.0549721
0.0545458
0.0575549
0.0640163
0.0741564
0.0883516
0.106795
0.1289
0.152521
0.173212
0.183981
0.176495
0.147531
0.121157
0.147531
0.176495
0.183981
0.173212
0.152521
0.1289
0.106795
0.0883516
0.0741564
0.0640163
0.0575549
0.0545458
0.0549721
0.0586469
0.0652689
0.0744861
0.0862731
0.1015
0.122722
0.155105
0.206859
0.287275
0.397464
0.50469
0.507898
0.395169
0.280982
0.199743
0.148871
0.117725
0.0974177
0.0825967
0.0707743
0.0612365
0.0541887
0.0501797
0.0496504
0.0527431
0.0593163
0.069504
0.0836855
0.102137
0.124404
0.148481
0.170002
0.181921
0.175727
0.148085
0.12272
0.148085
0.175727
0.181921
0.170002
0.148481
0.124404
0.102137
0.0836855
0.069504
0.0593163
0.0527431
0.0496504
0.0501797
0.0541887
0.0612365
0.0707743
0.0825967
0.0974177
0.117725
0.148871
0.199743
0.280982
0.395169
0.507898
0.511171
0.393195
0.275475
0.193719
0.143799
0.113816
0.0943043
0.0797822
0.0678462
0.0579291
0.0503931
0.0459848
0.0453498
0.0485994
0.0553706
0.0656773
0.0798912
0.0983568
0.120732
0.145127
0.167251
0.180036
0.174872
0.148421
0.124074
0.148421
0.174872
0.180036
0.167251
0.145127
0.120732
0.0983568
0.0798912
0.0656773
0.0553706
0.0485994
0.0453498
0.0459848
0.0503931
0.0579291
0.0678462
0.0797822
0.0943043
0.113816
0.143799
0.193719
0.275475
0.393195
0.511171
0.514514
0.391575
0.27081
0.188791
0.139823
0.110888
0.0920482
0.0777409
0.0656535
0.0553458
0.0472973
0.0424274
0.0416649
0.0451361
0.0521716
0.0626482
0.0769298
0.0954177
0.117857
0.142451
0.164971
0.178352
0.17396
0.148566
0.125238
0.148566
0.17396
0.178352
0.164971
0.142451
0.117857
0.0954177
0.0769298
0.0626482
0.0521716
0.0451361
0.0416649
0.0424274
0.0472973
0.0553458
0.0656535
0.0777409
0.0920482
0.110888
0.139823
0.188791
0.27081
0.391575
0.514514
0.517931
0.390343
0.26704
0.184956
0.13688
0.108846
0.0905584
0.076411
0.0641791
0.0535235
0.0449943
0.0396212
0.0386764
0.0424135
0.0497448
0.0604113
0.0747779
0.0932913
0.115758
0.140443
0.163166
0.176884
0.173014
0.148544
0.126231
0.148544
0.173014
0.176884
0.163166
0.140443
0.115758
0.0932913
0.0747779
0.0604113
0.0497448
0.0424135
0.0386764
0.0396212
0.0449943
0.0535235
0.0641791
0.076411
0.0905584
0.108846
0.13688
0.184956
0.26704
0.390343
0.517931
0.521427
0.389531
0.264211
0.182211
0.134913
0.107612
0.0897646
0.0757521
0.0634255
0.0525214
0.0436185
0.0377661
0.0365434
0.0405408
0.048141
0.058978
0.0734256
0.091959
0.114415
0.139088
0.161829
0.175636
0.172045
0.148371
0.127069
0.148371
0.172045
0.175636
0.161829
0.139088
0.114415
0.091959
0.0734256
0.058978
0.048141
0.0405408
0.0365434
0.0377661
0.0436185
0.0525214
0.0634255
0.0757521
0.0897646
0.107612
0.134913
0.182211
0.264211
0.389531
0.521427
0.525006
0.389169
0.262368
0.18055
0.133873
0.107123
0.0896147
0.0757386
0.0634045
0.0524024
0.0433212
0.0371569
0.0355784
0.0396973
0.0474449
0.0583854
0.072884
0.0914141
0.113807
0.138358
0.16093
0.174583
0.171051
0.14807
0.127772
0.14807
0.171051
0.174583
0.16093
0.138358
0.113807
0.0914141
0.072884
0.0583854
0.0474449
0.0396973
0.0355784
0.0371569
0.0433212
0.0524024
0.0634045
0.0757386
0.0896147
0.107123
0.133873
0.18055
0.262368
0.389169
0.525006
0.528674
0.389289
0.261549
0.17997
0.133727
0.107335
0.0900733
0.0763543
0.0641262
0.0532144
0.0442303
0.0381506
0.0364444
0.0402449
0.0478756
0.0587901
0.0732608
0.0916985
0.113888
0.138103
0.160242
0.173503
0.169939
0.147734
0.128425
0.147734
0.169939
0.173503
0.160242
0.138103
0.113888
0.0916985
0.0732608
0.0587901
0.0478756
0.0402449
0.0364444
0.0381506
0.0442303
0.0532144
0.0641262
0.0763543
0.0900733
0.107335
0.133727
0.17997
0.261549
0.389289
0.528674
0.532961
0.390356
0.261734
0.180219
0.134218
0.108083
0.0910656
0.0775744
0.065563
0.0548733
0.0461368
0.0403087
0.0386327
0.0420321
0.0493899
0.0601701
0.0745319
0.0927809
0.11462
0.138289
0.159743
0.172392
0.168721
0.147365
0.12903
0.147365
0.168721
0.172392
0.159743
0.138289
0.11462
0.0927809
0.0745319
0.0601701
0.0493899
0.0420321
0.0386327
0.0403087
0.0461368
0.0548733
0.065563
0.0775744
0.0910656
0.108083
0.134218
0.180219
0.261734
0.390356
0.532961
0.537952
0.392442
0.262932
0.181273
0.135314
0.109338
0.0925725
0.0793854
0.0676975
0.0573403
0.0489459
0.0434312
0.0418457
0.0449021
0.0519274
0.062493
0.0766639
0.0946193
0.115956
0.138871
0.159405
0.171247
0.167407
0.146961
0.12959
0.146961
0.167407
0.171247
0.159405
0.138871
0.115956
0.0946193
0.0766639
0.062493
0.0519274
0.0449021
0.0418457
0.0434312
0.0489459
0.0573403
0.0676975
0.0793854
0.0925725
0.109338
0.135314
0.181273
0.262932
0.392442
0.537952
0.543696
0.395594
0.265171
0.183141
0.137014
0.111091
0.0945781
0.0817662
0.0705018
0.0605724
0.0525858
0.0474064
0.0459318
0.0487293
0.0554209
0.065715
0.079612
0.0971589
0.117835
0.139796
0.159192
0.170061
0.166008
0.146526
0.130107
0.146526
0.166008
0.170061
0.159192
0.139796
0.117835
0.0971589
0.079612
0.065715
0.0554209
0.0487293
0.0459318
0.0474064
0.0525858
0.0605724
0.0705018
0.0817662
0.0945781
0.111091
0.137014
0.183141
0.265171
0.395594
0.543696
0.550243
0.399868
0.268497
0.185858
0.139333
0.113338
0.0970627
0.0846858
0.0739352
0.0645183
0.0569925
0.0521616
0.0508104
0.0534196
0.0597999
0.0697799
0.0833166
0.100331
0.120183
0.140996
0.159065
0.168827
0.164533
0.146058
0.130583
0.146058
0.164533
0.168827
0.159065
0.140996
0.120183
0.100331
0.0833166
0.0697799
0.0597999
0.0534196
0.0508104
0.0521616
0.0569925
0.0645183
0.0739352
0.0846858
0.0970627
0.113338
0.139333
0.185858
0.268497
0.399868
0.550243
0.557646
0.40533
0.272976
0.189478
0.142302
0.116081
0.100004
0.0881039
0.0779454
0.0691175
0.0621023
0.057638
0.0564255
0.0588971
0.0649895
0.0746164
0.0877013
0.104051
0.122915
0.142402
0.158981
0.167536
0.162992
0.145558
0.131018
0.145558
0.162992
0.167536
0.158981
0.142402
0.122915
0.104051
0.0877013
0.0746164
0.0649895
0.0588971
0.0564255
0.057638
0.0621023
0.0691175
0.0779454
0.0881039
0.100004
0.116081
0.142302
0.189478
0.272976
0.40533
0.557646
0.565966
0.412063
0.278699
0.19408
0.145971
0.119332
0.103379
0.0919714
0.0824678
0.0742982
0.0678443
0.0637728
0.0627184
0.0650862
0.0709037
0.0801346
0.0926707
0.108218
0.125934
0.143934
0.158894
0.16618
0.161394
0.145027
0.131414
0.145027
0.161394
0.16618
0.158894
0.143934
0.125934
0.108218
0.0926707
0.0801346
0.0709037
0.0650862
0.0627184
0.0637728
0.0678443
0.0742982
0.0824678
0.0919714
0.103379
0.119332
0.145971
0.19408
0.278699
0.412063
0.565966
0.575269
0.420167
0.285786
0.199777
0.150416
0.123119
0.107167
0.0962331
0.0874254
0.0799741
0.0741322
0.0704862
0.069612
0.0718971
0.0774387
0.0862231
0.0981084
0.112716
0.129133
0.145509
0.158759
0.16475
0.159746
0.144465
0.131769
0.144465
0.159746
0.16475
0.158759
0.145509
0.129133
0.112716
0.0981084
0.0862231
0.0774387
0.0718971
0.069612
0.0704862
0.0741322
0.0799741
0.0874254
0.0962331
0.107167
0.123119
0.150416
0.199777
0.285786
0.420167
0.575269
0.585629
0.429763
0.294389
0.206721
0.155753
0.127495
0.111359
0.100831
0.0927297
0.0860411
0.0808584
0.0776728
0.0770011
0.079215
0.0844669
0.0927465
0.103877
0.117414
0.132398
0.147046
0.158534
0.163239
0.158057
0.14387
0.132084
0.14387
0.158057
0.163239
0.158534
0.147046
0.132398
0.117414
0.103877
0.0927465
0.0844669
0.079215
0.0770011
0.0776728
0.0808584
0.0860411
0.0927297
0.100831
0.111359
0.127495
0.155753
0.206721
0.294389
0.429763
0.585629
0.597128
0.440993
0.304703
0.215117
0.162145
0.132552
0.115969
0.105712
0.098283
0.0923773
0.0878902
0.0851969
0.0847476
0.0868945
0.0918329
0.0995449
0.109822
0.122168
0.135611
0.148459
0.158176
0.16164
0.156333
0.143244
0.132356
0.143244
0.156333
0.16164
0.158176
0.148459
0.135611
0.122168
0.109822
0.0995449
0.0918329
0.0868945
0.0847476
0.0851969
0.0878902
0.0923773
0.098283
0.105712
0.115969
0.132552
0.162145
0.215117
0.304703
0.440993
0.597128
0.60986
0.454028
0.31697
0.225233
0.169828
0.138442
0.121049
0.110841
0.103986
0.0988451
0.0950704
0.0928918
0.0926793
0.0947578
0.0993537
0.106436
0.115768
0.126826
0.13865
0.149671
0.157648
0.159949
0.15458
0.142584
0.132585
0.142584
0.15458
0.159949
0.157648
0.149671
0.13865
0.126826
0.115768
0.106436
0.0993537
0.0947578
0.0926793
0.0928918
0.0950704
0.0988451
0.103986
0.110841
0.121049
0.138442
0.169828
0.225233
0.31697
0.454028
0.60986
0.623927
0.46907
0.331493
0.237423
0.179132
0.145408
0.12672
0.11622
0.109752
0.1053
0.102222
0.100564
0.100594
0.102599
0.106822
0.113219
0.121533
0.131234
0.1414
0.150608
0.15692
0.158161
0.152801
0.14189
0.132768
0.14189
0.152801
0.158161
0.15692
0.150608
0.1414
0.131234
0.121533
0.113219
0.106822
0.102599
0.100594
0.100564
0.102222
0.1053
0.109752
0.11622
0.12672
0.145408
0.179132
0.237423
0.331493
0.46907
0.623927
0.639446
0.486355
0.348642
0.252148
0.190519
0.153826
0.133217
0.121932
0.115535
0.111608
0.10916
0.108
0.108267
0.110189
0.114013
0.119681
0.126929
0.135237
0.143748
0.151203
0.155963
0.156274
0.151
0.141158
0.132899
0.141158
0.151
0.156274
0.155963
0.151203
0.143748
0.135237
0.126929
0.119681
0.114013
0.110189
0.108267
0.108
0.10916
0.111608
0.115535
0.121932
0.133217
0.153826
0.190519
0.252148
0.348642
0.486355
0.639446
0.656548
0.50616
0.368876
0.270005
0.204631
0.164271
0.140957
0.128201
0.12138
0.117681
0.115712
0.114987
0.115465
0.117291
0.120697
0.125611
0.131773
0.138692
0.145597
0.151403
0.154759
0.154287
0.149179
0.140384
0.132975
0.140384
0.149179
0.154287
0.154759
0.151403
0.145597
0.138692
0.131773
0.125611
0.120697
0.117291
0.115465
0.114987
0.115712
0.117681
0.12138
0.128201
0.140957
0.164271
0.204631
0.270005
0.368876
0.50616
0.656548
0.675379
0.528806
0.392749
0.291761
0.222353
0.177604
0.150652
0.135506
0.12752
0.123547
0.121768
0.121336
0.121966
0.123676
0.126649
0.130805
0.135894
0.141471
0.146864
0.151166
0.153293
0.152199
0.147337
0.139565
0.132988
0.139565
0.147337
0.152199
0.153293
0.151166
0.146864
0.141471
0.135894
0.130805
0.126649
0.123676
0.121966
0.121336
0.121768
0.123547
0.12752
0.135506
0.150652
0.177604
0.222353
0.291761
0.392749
0.528806
0.675379
0.696105
0.554664
0.420929
0.318393
0.244886
0.195102
0.16347
0.144764
0.134554
0.129501
0.12739
0.12696
0.127611
0.129158
0.131685
0.135093
0.139153
0.143473
0.147489
0.150464
0.151562
0.150012
0.145473
0.138694
0.13293
0.138694
0.145473
0.150012
0.151562
0.150464
0.147489
0.143473
0.139153
0.135093
0.131685
0.129158
0.127611
0.12696
0.12739
0.129501
0.134554
0.144764
0.16347
0.195102
0.244886
0.318393
0.420929
0.554664
0.696105
0.718914
0.584161
0.454213
0.351126
0.273846
0.218616
0.181282
0.157638
0.143775
0.136408
0.133058
0.132061
0.132435
0.133697
0.135726
0.138395
0.141483
0.144657
0.147456
0.149307
0.149583
0.147744
0.143596
0.137775
0.132802
0.137775
0.143596
0.147744
0.149583
0.149307
0.147456
0.144657
0.141483
0.138395
0.135726
0.133697
0.132435
0.132061
0.133058
0.136408
0.143775
0.157638
0.181282
0.218616
0.273846
0.351126
0.454213
0.584161
0.718914
0.744022
0.617782
0.493535
0.391473
0.311354
0.250776
0.206993
0.177008
0.157747
0.146321
0.140253
0.137617
0.137061
0.137701
0.139052
0.140908
0.143043
0.145165
0.146903
0.147823
0.147474
0.145492
0.141789
0.136882
0.132673
0.136882
0.141789
0.145492
0.147474
0.147823
0.146903
0.145165
0.143043
0.140908
0.139052
0.137701
0.137061
0.137617
0.140253
0.146321
0.157747
0.177008
0.206993
0.250776
0.311354
0.391473
0.493535
0.617782
0.744022
0.771685
0.65608
0.539972
0.441252
0.360116
0.295191
0.244955
0.207641
0.181238
0.163613
0.152685
0.146584
0.143775
0.142966
0.143089
0.143796
0.144806
0.145833
0.146563
0.146664
0.145816
0.143781
0.140532
0.136471
0.132987
0.136471
0.140532
0.143781
0.145816
0.146664
0.146563
0.145833
0.144806
0.143796
0.143089
0.142966
0.143775
0.146584
0.152685
0.163613
0.181238
0.207641
0.244955
0.295191
0.360116
0.441252
0.539972
0.65608
0.771685
0.80222
0.699694
0.594746
0.502571
0.423438
0.35658
0.301331
0.256947
0.222483
0.196786
0.178554
0.16643
0.159113
0.155132
0.152713
0.151303
0.150505
0.149982
0.149427
0.148554
0.147118
0.144951
0.142047
0.138692