# vtk DataFile Version 3.0
Malha 2D com triângulos e temperatura
ASCII
DATASET UNSTRUCTURED_GRID

POINTS 10000 double
0 0 0
10 0 0
10 10 0
0 10 0
0.10101 0 0
0.20202 0 0
0.30303 0 0
0.40404 0 0
0.505051 0 0
0.606061 0 0
0.707071 0 0
0.808081 0 0
0.909091 0 0
1.0101 0 0
1.11111 0 0
1.21212 0 0
1.31313 0 0
1.41414 0 0
1.51515 0 0
1.61616 0 0
1.71717 0 0
1.81818 0 0
1.91919 0 0
2.0202 0 0
2.12121 0 0
2.22222 0 0
2.32323 0 0
2.42424 0 0
2.52525 0 0
2.62626 0 0
2.72727 0 0
2.82828 0 0
2.92929 0 0
3.0303 0 0
3.13131 0 0
3.23232 0 0
3.33333 0 0
3.43434 0 0
3.53535 0 0
3.63636 0 0
3.73737 0 0
3.83838 0 0
3.93939 0 0
4.0404 0 0
4.14141 0 0
4.24242 0 0
4.34343 0 0
4.44444 0 0
4.54545 0 0
4.64646 0 0
4.74747 0 0
4.84848 0 0
4.94949 0 0
5.05051 0 0
5.15152 0 0
5.25253 0 0
5.35354 0 0
5.45455 0 0
5.55556 0 0
5.65657 0 0
5.75758 0 0
5.85859 0 0
5.9596 0 0
6.06061 0 0
6.16162 0 0
6.26263 0 0
6.36364 0 0
6.46465 0 0
6.56566 0 0
6.66667 0 0
6.76768 0 0
6.86869 0 0
6.9697 0 0
7.07071 0 0
7.17172 0 0
7.27273 0 0
7.37374 0 0
7.47475 0 0
7.57576 0 0
7.67677 0 0
7.77778 0 0
7.87879 0 0
7.9798 0 0
8.08081 0 0
8.18182 0 0
8.28283 0 0
8.38384 0 0
8.48485 0 0
8.58586 0 0
8.68687 0 0
8.78788 0 0
8.88889 0 0
8.9899 0 0
9.09091 0 0
9.19192 0 0
9.29293 0 0
9.39394 0 0
9.49495 0 0
9.59596 0 0
9.69697 0 0
9.79798 0 0
9.89899 0 0
10 0.10101 0
10 0.20202 0
10 0.30303 0
10 0.40404 0
10 0.505051 0
10 0.606061 0
10 0.707071 0
10 0.808081 0
10 0.909091 0
10 1.0101 0
10 1.11111 0
10 1.21212 0
10 1.31313 0
10 1.41414 0
10 1.51515 0
10 1.61616 0
10 1.71717 0
10 1.81818 0
10 1.91919 0
10 2.0202 0
10 2.12121 0
10 2.22222 0
10 2.32323 0
10 2.42424 0
10 2.52525 0
10 2.62626 0
10 2.72727 0
10 2.82828 0
10 2.92929 0
10 3.0303 0
10 3.13131 0
10 3.23232 0
10 3.33333 0
10 3.43434 0
10 3.53535 0
10 3.63636 0
10 3.73737 0
10 3.83838 0
10 3.93939 0
10 4.0404 0
10 4.14141 0
10 4.24242 0
10 4.34343 0
10 4.44444 0
10 4.54545 0
10 4.64646 0
10 4.74747 0
10 4.84848 0
10 4.94949 0
10 5.05051 0
10 5.15152 0
10 5.25253 0
10 5.35354 0
10 5.45455 0
10 5.55556 0
10 5.65657 0
10 5.75758 0
10 5.85859 0
10 5.9596 0
10 6.06061 0
10 6.16162 0
10 6.26263 0
10 6.36364 0
10 6.46465 0
10 6.56566 0
10 6.66667 0
10 6.76768 0
10 6.86869 0
10 6.9697 0
10 7.07071 0
10 7.17172 0
10 7.27273 0
10 7.37374 0
10 7.47475 0
10 7.57576 0
10 7.67677 0
10 7.77778 0
10 7.87879 0
10 7.9798 0
10 8.08081 0
10 8.18182 0
10 8.28283 0
10 8.38384 0
10 8.48485 0
10 8.58586 0
10 8.68687 0
10 8.78788 0
10 8.88889 0
10 8.9899 0
10 9.09091 0
10 9.19192 0
10 9.29293 0
10 9.39394 0
10 9.49495 0
10 9.59596 0
10 9.69697 0
10 9.79798 0
10 9.89899 0
9.89899 10 0
9.79798 10 0
9.69697 10 0
9.59596 10 0
9.49495 10 0
9.39394 10 0
9.29293 10 0
9.19192 10 0
9.09091 10 0
8.9899 10 0
8.88889 10 0
8.78788 10 0
8.68687 10 0
8.58586 10 0
8.48485 10 0
8.38384 10 0
8.28283 10 0
8.18182 10 0
8.08081 10 0
7.9798 10 0
7.87879 10 0
7.77778 10 0
7.67677 10 0
7.57576 10 0
7.47475 10 0
7.37374 10 0
7.27273 10 0
7.17172 10 0
7.07071 10 0
6.9697 10 0
6.86869 10 0
6.76768 10 0
6.66667 10 0
6.56566 10 0
6.46465 10 0
6.36364 10 0
6.26263 10 0
6.16162 10 0
6.06061 10 0
5.9596 10 0
5.85859 10 0
5.75758 10 0
5.65657 10 0
5.55556 10 0
5.45455 10 0
5.35354 10 0
5.25253 10 0
5.15152 10 0
5.05051 10 0
4.94949 10 0
4.84848 10 0
4.74747 10 0
4.64646 10 0
4.54545 10 0
4.44444 10 0
4.34343 10 0
4.24242 10 0
4.14141 10 0
4.0404 10 0
3.93939 10 0
3.83838 10 0
3.73737 10 0
3.63636 10 0
3.53535 10 0
3.43434 10 0
3.33333 10 0
3.23232 10 0
3.13131 10 0
3.0303 10 0
2.92929 10 0
2.82828 10 0
2.72727 10 0
2.62626 10 0
2.52525 10 0
2.42424 10 0
2.32323 10 0
2.22222 10 0
2.12121 10 0
2.0202 10 0
1.91919 10 0
1.81818 10 0
1.71717 10 0
1.61616 10 0
1.51515 10 0
1.41414 10 0
1.31313 10 0
1.21212 10 0
1.11111 10 0
1.0101 10 0
0.909091 10 0
0.808081 10 0
0.707071 10 0
0.606061 10 0
0.505051 10 0
0.40404 10 0
0.30303 10 0
0.20202 10 0
0.10101 10 0
0 9.89899 0
0 9.79798 0
0 9.69697 0
0 9.59596 0
0 9.49495 0
0 9.39394 0
0 9.29293 0
0 9.19192 0
0 9.09091 0
0 8.9899 0
0 8.88889 0
0 8.78788 0
0 8.68687 0
0 8.58586 0
0 8.48485 0
0 8.38384 0
0 8.28283 0
0 8.18182 0
0 8.08081 0
0 7.9798 0
0 7.87879 0
0 7.77778 0
0 7.67677 0
0 7.57576 0
0 7.47475 0
0 7.37374 0
0 7.27273 0
0 7.17172 0
0 7.07071 0
0 6.9697 0
0 6.86869 0
0 6.76768 0
0 6.66667 0
0 6.56566 0
0 6.46465 0
0 6.36364 0
0 6.26263 0
0 6.16162 0
0 6.06061 0
0 5.9596 0
0 5.85859 0
0 5.75758 0
0 5.65657 0
0 5.55556 0
0 5.45455 0
0 5.35354 0
0 5.25253 0
0 5.15152 0
0 5.05051 0
0 4.94949 0
0 4.84848 0
0 4.74747 0
0 4.64646 0
0 4.54545 0
0 4.44444 0
0 4.34343 0
0 4.24242 0
0 4.14141 0
0 4.0404 0
0 3.93939 0
0 3.83838 0
0 3.73737 0
0 3.63636 0
0 3.53535 0
0 3.43434 0
0 3.33333 0
0 3.23232 0
0 3.13131 0
0 3.0303 0
0 2.92929 0
0 2.82828 0
0 2.72727 0
0 2.62626 0
0 2.52525 0
0 2.42424 0
0 2.32323 0
0 2.22222 0
0 2.12121 0
0 2.0202 0
0 1.91919 0
0 1.81818 0
0 1.71717 0
0 1.61616 0
0 1.51515 0
0 1.41414 0
0 1.31313 0
0 1.21212 0
0 1.11111 0
0 1.0101 0
0 0.909091 0
0 0.808081 0
0 0.707071 0
0 0.606061 0
0 0.505051 0
0 0.40404 0
0 0.30303 0
0 0.20202 0
0 0.10101 0
0.10101 0.10101 0
0.10101 0.20202 0
0.10101 0.30303 0
0.10101 0.40404 0
0.10101 0.505051 0
0.10101 0.606061 0
0.10101 0.707071 0
0.10101 0.808081 0
0.10101 0.909091 0
0.10101 1.0101 0
0.10101 1.11111 0
0.10101 1.21212 0
0.10101 1.31313 0
0.10101 1.41414 0
0.10101 1.51515 0
0.10101 1.61616 0
0.10101 1.71717 0
0.10101 1.81818 0
0.10101 1.91919 0
0.10101 2.0202 0
0.10101 2.12121 0
0.10101 2.22222 0
0.10101 2.32323 0
0.10101 2.42424 0
0.10101 2.52525 0
0.10101 2.62626 0
0.10101 2.72727 0
0.10101 2.82828 0
0.10101 2.92929 0
0.10101 3.0303 0
0.10101 3.13131 0
0.10101 3.23232 0
0.10101 3.33333 0
0.10101 3.43434 0
0.10101 3.53535 0
0.10101 3.63636 0
0.10101 3.73737 0
0.10101 3.83838 0
0.10101 3.93939 0
0.10101 4.0404 0
0.10101 4.14141 0
0.10101 4.24242 0
0.10101 4.34343 0
0.10101 4.44444 0
0.10101 4.54545 0
0.10101 4.64646 0
0.10101 4.74747 0
0.10101 4.84848 0
0.10101 4.94949 0
0.10101 5.05051 0
0.10101 5.15152 0
0.10101 5.25253 0
0.10101 5.35354 0
0.10101 5.45455 0
0.10101 5.55556 0
0.10101 5.65657 0
0.10101 5.75758 0
0.10101 5.85859 0
0.10101 5.9596 0
0.10101 6.06061 0
0.10101 6.16162 0
0.10101 6.26263 0
0.10101 6.36364 0
0.10101 6.46465 0
0.10101 6.56566 0
0.10101 6.66667 0
0.10101 6.76768 0
0.10101 6.86869 0
0.10101 6.9697 0
0.10101 7.07071 0
0.10101 7.17172 0
0.10101 7.27273 0
0.10101 7.37374 0
0.10101 7.47475 0
0.10101 7.57576 0
0.10101 7.67677 0
0.10101 7.77778 0
0.10101 7.87879 0
0.10101 7.9798 0
0.10101 8.08081 0
0.10101 8.18182 0
0.10101 8.28283 0
0.10101 8.38384 0
0.10101 8.48485 0
0.10101 8.58586 0
0.10101 8.68687 0
0.10101 8.78788 0
0.10101 8.88889 0
0.10101 8.9899 0
0.10101 9.09091 0
0.10101 9.19192 0
0.10101 9.29293 0
0.10101 9.39394 0
0.10101 9.49495 0
0.10101 9.59596 0
0.10101 9.69697 0
0.10101 9.79798 0
0.10101 9.89899 0
0.20202 0.10101 0
0.20202 0.20202 0
0.20202 0.30303 0
0.20202 0.40404 0
0.20202 0.505051 0
0.20202 0.606061 0
0.20202 0.707071 0
0.20202 0.808081 0
0.20202 0.909091 0
0.20202 1.0101 0
0.20202 1.11111 0
0.20202 1.21212 0
0.20202 1.31313 0
0.20202 1.41414 0
0.20202 1.51515 0
0.20202 1.61616 0
0.20202 1.71717 0
0.20202 1.81818 0
0.20202 1.91919 0
0.20202 2.0202 0
0.20202 2.12121 0
0.20202 2.22222 0
0.20202 2.32323 0
0.20202 2.42424 0
0.20202 2.52525 0
0.20202 2.62626 0
0.20202 2.72727 0
0.20202 2.82828 0
0.20202 2.92929 0
0.20202 3.0303 0
0.20202 3.13131 0
0.20202 3.23232 0
0.20202 3.33333 0
0.20202 3.43434 0
0.20202 3.53535 0
0.20202 3.63636 0
0.20202 3.73737 0
0.20202 3.83838 0
0.20202 3.93939 0
0.20202 4.0404 0
0.20202 4.14141 0
0.20202 4.24242 0
0.20202 4.34343 0
0.20202 4.44444 0
0.20202 4.54545 0
0.20202 4.64646 0
0.20202 4.74747 0
0.20202 4.84848 0
0.20202 4.94949 0
0.20202 5.05051 0
0.20202 5.15152 0
0.20202 5.25253 0
0.20202 5.35354 0
0.20202 5.45455 0
0.20202 5.55556 0
0.20202 5.65657 0
0.20202 5.75758 0
0.20202 5.85859 0
0.20202 5.9596 0
0.20202 6.06061 0
0.20202 6.16162 0
0.20202 6.26263 0
0.20202 6.36364 0
0.20202 6.46465 0
0.20202 6.56566 0
0.20202 6.66667 0
0.20202 6.76768 0
0.20202 6.86869 0
0.20202 6.9697 0
0.20202 7.07071 0
0.20202 7.17172 0
0.20202 7.27273 0
0.20202 7.37374 0
0.20202 7.47475 0
0.20202 7.57576 0
0.20202 7.67677 0
0.20202 7.77778 0
0.20202 7.87879 0
0.20202 7.9798 0
0.20202 8.08081 0
0.20202 8.18182 0
0.20202 8.28283 0
0.20202 8.38384 0
0.20202 8.48485 0
0.20202 8.58586 0
0.20202 8.68687 0
0.20202 8.78788 0
0.20202 8.88889 0
0.20202 8.9899 0
0.20202 9.09091 0
0.20202 9.19192 0
0.20202 9.29293 0
0.20202 9.39394 0
0.20202 9.49495 0
0.20202 9.59596 0
0.20202 9.69697 0
0.20202 9.79798 0
0.20202 9.89899 0
0.30303 0.10101 0
0.30303 0.20202 0
0.30303 0.30303 0
0.30303 0.40404 0
0.30303 0.505051 0
0.30303 0.606061 0
0.30303 0.707071 0
0.30303 0.808081 0
0.30303 0.909091 0
0.30303 1.0101 0
0.30303 1.11111 0
0.30303 1.21212 0
0.30303 1.31313 0
0.30303 1.41414 0
0.30303 1.51515 0
0.30303 1.61616 0
0.30303 1.71717 0
0.30303 1.81818 0
0.30303 1.91919 0
0.30303 2.0202 0
0.30303 2.12121 0
0.30303 2.22222 0
0.30303 2.32323 0
0.30303 2.42424 0
0.30303 2.52525 0
0.30303 2.62626 0
0.30303 2.72727 0
0.30303 2.82828 0
0.30303 2.92929 0
0.30303 3.0303 0
0.30303 3.13131 0
0.30303 3.23232 0
0.30303 3.33333 0
0.30303 3.43434 0
0.30303 3.53535 0
0.30303 3.63636 0
0.30303 3.73737 0
0.30303 3.83838 0
0.30303 3.93939 0
0.30303 4.0404 0
0.30303 4.14141 0
0.30303 4.24242 0
0.30303 4.34343 0
0.30303 4.44444 0
0.30303 4.54545 0
0.30303 4.64646 0
0.30303 4.74747 0
0.30303 4.84848 0
0.30303 4.94949 0
0.30303 5.05051 0
0.30303 5.15152 0
0.30303 5.25253 0
0.30303 5.35354 0
0.30303 5.45455 0
0.30303 5.55556 0
0.30303 5.65657 0
0.30303 5.75758 0
0.30303 5.85859 0
0.30303 5.9596 0
0.30303 6.06061 0
0.30303 6.16162 0
0.30303 6.26263 0
0.30303 6.36364 0
0.30303 6.46465 0
0.30303 6.56566 0
0.30303 6.66667 0
0.30303 6.76768 0
0.30303 6.86869 0
0.30303 6.9697 0
0.30303 7.07071 0
0.30303 7.17172 0
0.30303 7.27273 0
0.30303 7.37374 0
0.30303 7.47475 0
0.30303 7.57576 0
0.30303 7.67677 0
0.30303 7.77778 0
0.30303 7.87879 0
0.30303 7.9798 0
0.30303 8.08081 0
[...]
CELL_DATA 9801
SCALARS Temperatura double 1
LOOKUP_TABLE default
-2.32208e-16
9.95891e-16
2.64311e-15
4.10174e-15
3.82363e-15
-5.02906e-17
-8.50948e-15
-2.00123e-14
-2.92166e-14
-2.738e-14
-5.45685e-15
4.02455e-14
1.01814e-13
1.5642e-13
1.69635e-13
1.06956e-13
-4.88568e-14
-2.81218e-13
-5.32535e-13
-7.13e-13
-7.25987e-13
-5.03018e-13
-3.55262e-14
6.09979e-13
1.3014e-12
1.87393e-12
2.17583e-12
2.11158e-12
1.66806e-12
9.1587e-13
-1.27168e-14
-9.60413e-13
-1.7837e-12
-2.38253e-12
-2.71436e-12
-2.79192e-12
-2.66873e-12
-2.41884e-12
-2.1171e-12
-1.82445e-12
-1.58023e-12
-1.40107e-12
-1.28465e-12
-1.21602e-12
-1.17442e-12
-1.1391e-12
-1.09338e-12
-1.0268e-12
-9.3569e-13
-8.22457e-13
-6.94243e-13
-5.70534e-13
-4.50515e-13
-3.38147e-13
-2.36059e-13
-1.46388e-13
-7.04777e-14
-8.90982e-15
3.84403e-14
7.22916e-14
9.38253e-14
1.04547e-13
1.0616e-13
1.00452e-13
8.92091e-14
7.41504e-14
5.68837e-14
3.88765e-14
2.14349e-14
5.68284e-15
-7.46371e-15
-1.73324e-14
-2.35362e-14
-2.60136e-14
-2.50536e-14
-2.12862e-14
-1.56249e-14
-9.15268e-15
-2.96019e-15
2.03681e-15
5.25867e-15
6.55465e-15
6.19324e-15
4.74498e-15
2.89077e-15
1.21875e-15
7.94728e-17
-4.54397e-16
-5.23586e-16
-3.57699e-16
-1.55994e-16
-2.3711e-17
2.50329e-17
2.39441e-17
9.79396e-18
8.64265e-19
-1.20381e-18
-5.86085e-19
-9.30802e-21
2.89717e-15
4.9854e-15
4.02569e-15
-1.83554e-15
-1.36358e-14
-2.84387e-14
-3.766e-14
-2.81511e-14
1.22376e-14
8.50561e-14
1.71353e-13
2.28039e-13
1.97084e-13
2.96774e-14
-2.80698e-13
-6.70707e-13
-1.00282e-12
-1.09613e-12
-7.89922e-13
-1.98795e-14
1.12449e-12
2.3912e-12
3.419e-12
3.84056e-12
3.40109e-12
2.04923e-12
-3.39883e-14
-2.47866e-12
-4.82596e-12
-6.6492e-12
-7.65654e-12
-7.74659e-12
-7.00726e-12
-5.66768e-12
-4.02503e-12
-2.37093e-12
-9.36088e-13
1.37905e-13
8.00554e-13
1.07556e-12
1.0348e-12
7.71935e-13
3.81124e-13
-5.65954e-14
-4.79676e-13
-8.4688e-13
-1.13475e-12
-1.3337e-12
-1.44398e-12
-1.47246e-12
-1.43025e-12
-1.32835e-12
-1.1841e-12
-1.01381e-12
-8.31848e-13
-6.50237e-13
-4.78393e-13
-3.23156e-13
-1.88961e-13
-7.81338e-14
8.75854e-15
7.25252e-14
1.14984e-13
1.38624e-13
1.46324e-13
1.41126e-13
1.2607e-13
1.04086e-13
7.7926e-14
5.01279e-14
2.29829e-14
-1.50215e-15
-2.16669e-14
-3.62861e-14
-4.46743e-14
-4.67816e-14
-4.32427e-14
-3.53376e-14
-2.4836e-14
-1.3723e-14
-3.84734e-15
3.42849e-15
7.47707e-15
8.46778e-15
7.21099e-15
4.83181e-15
2.38964e-15
5.83381e-16
-3.57832e-16
-5.86787e-16
-4.32021e-16
-1.93569e-16
-3.28222e-17
2.49869e-17
2.33733e-17
8.32241e-18
1.30287e-19
-1.07799e-18
-3.01465e-19
7.1258e-15
8.84811e-16
-1.37944e-14
-3.52251e-14
-5.29045e-14
-4.75072e-14
2.38163e-15
1.05575e-13
2.39995e-13
3.415e-13
3.13192e-13
6.329e-14
-4.34609e-13
-1.08318e-12
-1.64091e-12
-1.7701e-12
-1.15761e-12
3.25815e-13
2.49394e-12
4.81269e-12
6.5078e-12
6.79545e-12
5.16022e-12
1.57444e-12
-3.43192e-12
-8.88528e-12
-1.36293e-11
-1.66406e-11
-1.72921e-11
-1.54839e-11
-1.1617e-11
-6.43904e-12
-8.30033e-13
4.40222e-12
8.6638e-12
1.16333e-11
1.32464e-11
1.36326e-11
1.30351e-11
1.17374e-11
1.00112e-11
8.08619e-12
6.13947e-12
4.29748e-12
2.64331e-12
1.22566e-12
6.68995e-14
-8.30453e-13
-1.47866e-12
-1.90054e-12
-2.12639e-12
-2.18182e-12
-2.10506e-12
-1.93328e-12
-1.69937e-12
-1.43174e-12
-1.15362e-12
-8.83137e-13
-6.33471e-13
-4.13391e-13
-2.2785e-13
-7.86749e-14
3.47322e-14
1.14734e-13
1.64871e-13
1.89361e-13
1.92723e-13
1.79492e-13
1.54043e-13
1.20499e-13
8.26793e-14
4.40888e-14
7.87786e-15
-2.32292e-14
-4.70653e-14
-6.21983e-14
-6.81189e-14
-6.53739e-14
-5.55696e-14
-4.11835e-14
-2.51656e-14
-1.0387e-14
9.3896e-16
7.68925e-15
9.96789e-15
8.88604e-15
6.06038e-15
3.02329e-15
7.74495e-16
-3.70148e-16
-6.28432e-16
-4.3897e-16
-1.75755e-16
-1.68055e-17
2.84955e-17
1.9491e-17
4.68333e-18
-8.27815e-19
-8.03721e-19
-4.07824e-15
-3.61454e-14
-6.53726e-14
-7.38847e-14
-2.83628e-14
9.5435e-14
2.84387e-13
4.62094e-13
4.88108e-13
2.02851e-13
-4.79857e-13
-1.46287e-12
-2.3988e-12
-2.73256e-12
-1.88563e-12
4.55247e-13
4.05704e-12
8.01569e-12
1.09002e-11
1.11726e-11
7.75796e-12
5.46127e-13
-9.39336e-12
-1.99977e-11
-2.8753e-11
-3.34026e-11
-3.25693e-11
-2.60869e-11
-1.49585e-11
-9.99627e-13
1.36759e-11
2.71489e-11
3.80329e-11
4.56047e-11
4.97521e-11
5.08093e-11
4.93592e-11
4.60623e-11
4.15411e-11
3.63215e-11
3.08173e-11
2.53397e-11
2.01145e-11
1.53006e-11
1.1003e-11
7.28352e-12
4.16766e-12
1.6511e-12
-2.945e-13
-1.71581e-12
-2.67723e-12
-3.23148e-12
-3.45415e-12
-3.42263e-12
-3.20638e-12
-2.86687e-12
-2.4561e-12
-2.01633e-12
-1.58027e-12
-1.17182e-12
-8.07001e-13
-4.95169e-13
-2.40257e-13
-4.20199e-14
1.02812e-13
1.99517e-13
2.54535e-13
2.74809e-13
2.67314e-13
2.38763e-13
1.95459e-13
1.43247e-13
8.75217e-14
3.32185e-14
-1.52635e-14
-5.42424e-14
-8.1039e-14
-9.43115e-14
-9.43363e-14
-8.3098e-14
-6.40677e-14
-4.1622e-14
-2.0177e-14
-3.24769e-15
7.27839e-15
1.13922e-14
1.06345e-14
7.31677e-15
3.61435e-15
9.06032e-16
-4.12059e-16
-6.63884e-16
-4.25914e-16
-1.44757e-16
1.11681e-18
2.91795e-17
1.40787e-17
1.55382e-18
-1.34519e-18
-5.83025e-14
-1.00103e-13
-7.7547e-14
4.21252e-14
2.73496e-13
5.5093e-13
7.03835e-13
4.88678e-13
-2.96615e-13
-1.63632e-12
-3.13811e-12
-4.01004e-12
-3.27066e-12
-1.92537e-13
5.16374e-12
1.15826e-11
1.67555e-11
1.78878e-11
1.27185e-11
5.80955e-13
-1.69559e-11
-3.62004e-11
-5.22413e-11
-6.03427e-11
-5.73218e-11
-4.242e-11
-1.73986e-11
1.40955e-11
4.75935e-11
7.88984e-11
1.04879e-10
1.2381e-10
1.35295e-10
1.39916e-10
1.38806e-10
1.33275e-10
1.24566e-10
1.13738e-10
1.01644e-10
8.89546e-11
7.61956e-11
6.37824e-11
5.20396e-11
4.12127e-11
3.14753e-11
2.29342e-11
1.56366e-11
9.57703e-12
4.70694e-12
9.43963e-13
-1.83559e-12
-3.72423e-12
-4.86132e-12
-5.39836e-12
-5.47331e-12
-5.21143e-12
-4.72156e-12
-4.09514e-12
-3.40604e-12
-2.71133e-12
-2.05266e-12
-1.45822e-12
-9.44774e-13
-5.19942e-13
-1.84273e-13
6.67604e-14
2.41058e-13
3.48465e-13
3.99663e-13
4.05386e-13
3.75924e-13
3.20887e-13
2.49162e-13
1.68969e-13
8.79129e-14
1.2934e-14
-4.99295e-14
-9.59798e-14
-1.22429e-13
-1.28927e-13
-1.17824e-13
-9.39231e-14
-6.364e-14
-3.36559e-14
-9.41243e-15
6.06777e-15
1.25974e-14
1.23142e-14
8.47168e-15
4.07443e-15
9.41653e-16
-4.82804e-16
-6.81452e-16
-3.87507e-16
-1.03099e-16
1.7017e-17
2.59156e-17
8.01699e-18
-1.09033e-18
-1.31873e-13
-5.03529e-14
1.83618e-13
5.48589e-13
8.8655e-13
8.87849e-13
1.92876e-13
-1.38025e-12
-3.54875e-12
-5.38318e-12
-5.4294e-12
-2.24746e-12
4.73061e-12
1.43725e-11
2.35359e-11
2.7662e-11
2.22919e-11
5.04064e-12
-2.27827e-11
-5.57123e-11
-8.51998e-11
-1.01954e-10
-9.87062e-11
-7.23733e-11
-2.48457e-11
3.7768e-11
1.0702e-10
1.74352e-10
2.32906e-10
2.7848e-10
3.09569e-10
3.26767e-10
3.31915e-10
3.2732e-10
3.15235e-10
2.97599e-10
2.75998e-10
2.51715e-10
2.25813e-10
1.99199e-10
1.72657e-10
1.46857e-10
1.22359e-10
9.96047e-11
7.89236e-11
6.05312e-11
4.4539e-11
3.09646e-11
1.97454e-11
1.07545e-11
3.76923e-12
-1.36157e-12
-4.88254e-12
-7.07901e-12
-8.21477e-12
-8.53516e-12
-8.25862e-12
-7.57382e-12
-6.63815e-12
-5.57818e-12
-4.49143e-12
-3.44918e-12
-2.49986e-12
-1.67282e-12
-9.82045e-13
-4.29835e-13
-1.00306e-14
2.89108e-13
4.82552e-13
5.86662e-13
6.1788e-13
5.91905e-13
5.23314e-13
4.25507e-13
3.10866e-13
1.90927e-13
7.64095e-14
-2.30726e-14
-9.96648e-14
-1.48201e-13
-1.67145e-13
-1.59142e-13
-1.30783e-13
-9.13786e-14
-5.08767e-14
-1.74956e-14
4.13108e-15
1.35872e-14
1.38488e-14
9.42057e-15
4.32786e-15
8.55265e-16
-5.76743e-16
-6.71923e-16
-3.24227e-16
-5.69541e-17
2.70074e-17
1.89929e-17
1.78951e-18
-4.11344e-14
4.12384e-13
9.22331e-13
1.25872e-12
9.24039e-13
-5.50848e-13
-3.21515e-12
-6.28004e-12
-7.97172e-12
-5.95771e-12
1.56163e-12
1.43992e-11
2.92633e-11
3.97972e-11
3.82603e-11
1.85824e-11
-2.03019e-11
-7.23605e-11
-1.24831e-10
-1.61286e-10
-1.6642e-10
-1.3076e-10
-5.35188e-11
5.74041e-11
1.88028e-10
3.22306e-10
4.45994e-10
5.49181e-10
6.2704e-10
6.79092e-10
7.07696e-10
7.16484e-10
7.09216e-10
6.89193e-10
6.59105e-10
6.21143e-10
5.77167e-10
5.28846e-10
4.77733e-10
4.25278e-10
3.72815e-10
3.2154e-10
2.72481e-10
2.26485e-10
1.84208e-10
1.46114e-10
1.12479e-10
8.34084e-11
5.88555e-11
3.86489e-11
2.24035e-11
9.88808e-12
6.89676e-13
-5.71403e-12
-9.81314e-12
-1.20742e-11
-1.29219e-11
-1.27317e-11
-1.18255e-11
-1.047e-11
-8.8788e-12
-7.21627e-12
-5.60242e-12
-4.11921e-12
-2.81697e-12
-1.72075e-12
-8.36372e-13
-1.558e-13
3.38149e-13
6.67974e-13
8.58478e-13
9.34618e-13
9.20141e-13
8.36954e-13
7.05063e-13
5.4288e-13
3.67635e-13
1.95561e-13
4.15767e-14
-8.16586e-14
-1.65233e-13
-2.05571e-13
-2.05484e-13
-1.73974e-13
-1.24432e-13
-7.14439e-14
-2.71219e-14
1.71805e-15
1.44305e-14
1.51721e-14
1.00616e-14
4.31402e-15
6.40581e-16
-6.77008e-16
-6.26271e-16
-2.41034e-16
-1.44173e-17
2.84551e-17
9.79997e-18
5.56223e-13
1.40544e-12
1.63276e-12
7.30398e-13
-1.87275e-12
-5.92998e-12
-9.83298e-12
-1.05919e-11
-4.79113e-12
9.46998e-12
3.03146e-11
5.07505e-11
5.95368e-11
4.47701e-11
-6.65986e-13
-7.39459e-11
-1.60023e-10
-2.33911e-10
-2.67272e-10
-2.37028e-10
-1.32645e-10
4.06988e-11
2.64082e-10
5.10761e-10
7.53478e-10
9.70464e-10
1.14849e-09
1.28279e-09
1.37488e-09
1.42966e-09
1.45296e-09
1.45006e-09
1.42523e-09
1.38183e-09
1.32265e-09
1.25025e-09
1.16716e-09
1.07594e-09
9.79127e-10
8.79242e-10
7.78664e-10
6.79586e-10
5.83954e-10
4.9342e-10
4.09314e-10
3.32627e-10
2.64014e-10
2.03814e-10
1.52076e-10
1.08613e-10
7.27796e-11
4.42472e-11
2.23444e-11
6.13744e-12
-5.26235e-12
-1.27205e-11
-1.70408e-11
-1.89493e-11
-1.90822e-11
-1.79805e-11
-1.60906e-11
-1.3768e-11
-1.12858e-11
-8.84324e-12
-6.57713e-12
-4.5724e-12
-2.87292e-12
-1.49131e-12
-4.17829e-13
3.72156e-13
9.11912e-13
1.23853e-12
1.38941e-12
1.40008e-12
1.30309e-12
1.12795e-12
9.0169e-13
6.49648e-13
3.95956e-13
1.63257e-13
-2.86632e-14
-1.65191e-13
-2.39496e-13
-2.54361e-13
-2.22077e-13
-1.61754e-13
-9.44441e-14
-3.75645e-14
-7.42374e-16
1.52533e-14
1.62262e-14
1.03051e-14
3.99815e-15
3.15176e-16
-7.57705e-16
-5.38699e-16
-1.4781e-16
1.60129e-17
2.38017e-17
1.77368e-12
2.0192e-12
2.50073e-13
-3.86628e-12
-9.62332e-12
-1.42019e-11
-1.2949e-11
-1.15431e-12
2.27708e-11
5.39547e-11
7.96326e-11
8.1528e-11
4.24912e-11
-4.44822e-11
-1.68692e-10
-2.99767e-10
-3.93476e-10
-4.0404e-10
-2.98455e-10
-6.7122e-11
2.73366e-10
6.85937e-10
1.12436e-09
1.54537e-09
1.91737e-09
2.22352e-09
2.46001e-09
2.6314e-09
2.7458e-09
2.81135e-09
2.83459e-09
2.82028e-09
2.77199e-09
2.69286e-09
2.58606e-09
2.45513e-09
2.30399e-09
2.13684e-09
1.9581e-09
1.77219e-09
1.58345e-09
1.39596e-09
1.21339e-09
1.03896e-09
8.7534e-10
7.2458e-10
5.88139e-10
4.66892e-10
3.61182e-10
2.70902e-10
1.95e-10
1.3306e-10
8.40313e-11
4.62824e-11
1.82366e-11
-1.67601e-12
-1.49418e-11
-2.29294e-11
-2.68619e-11
-2.78019e-11
-2.66475e-11
-2.41349e-11
-2.08486e-11
-1.72359e-11
-1.36236e-11
-1.02369e-11
-7.217e-12
-4.63933e-12
-2.52926e-12
-8.76331e-13
3.5374e-13
1.20922e-12
1.74465e-12
2.01533e-12
2.07366e-12
1.96742e-12
1.73963e-12
1.42944e-12
1.07355e-12
7.0727e-13
3.64271e-13
7.46945e-14
-1.38431e-13
-2.63353e-13
-3.02612e-13
-2.73035e-13
-2.01689e-13
-1.18466e-13
-4.77807e-14
-2.68444e-15
1.62099e-14
1.69556e-14
1.00807e-14
3.37792e-15
-7.90152e-17
-7.87365e-16
-4.09648e-16
-5.94062e-17
3.69845e-17
2.60737e-12
-5.0458e-13
-6.58268e-12
-1.43818e-11
-1.94432e-11
-1.48923e-11
5.55012e-12
4.26478e-11
8.68574e-11
1.16934e-10
1.04733e-10
2.64665e-11
-1.23058e-10
-3.19616e-10
-5.08554e-10
-6.16381e-10
-5.71913e-10
-3.29015e-10
1.18328e-10
7.34562e-10
1.45457e-09
2.20331e-09
2.91494e-09
3.5448e-09
4.07207e-09
4.49483e-09
4.82183e-09
5.06487e-09
5.23406e-09
5.33619e-09
5.3753e-09
5.35397e-09
5.27469e-09
5.14063e-09
4.95604e-09
4.72632e-09
4.45784e-09
4.15778e-09
3.83383e-09
3.49391e-09
3.1459e-09
2.79731e-09
2.45508e-09
2.12535e-09
1.81331e-09
1.52311e-09
1.25782e-09
1.01948e-09
8.09137e-10
6.27028e-10
4.71482e-10
3.42081e-10
2.37262e-10
1.5423e-10
9.02463e-11
4.25231e-11
8.36977e-12
-1.47356e-11
-2.90877e-11
-3.67185e-11
-3.93795e-11
-3.85405e-11
-3.54006e-11
-3.09079e-11
-2.57861e-11
-2.05645e-11
-1.56087e-11
-1.11508e-11
-7.31845e-12
-4.16006e-12
-1.66733e-12
2.05837e-13
1.52793e-12
2.3778e-12
2.83588e-12
2.97843e-12
2.87474e-12
2.58671e-12
2.17035e-12
1.67817e-12
1.161e-12
6.681e-13
2.44348e-13
-7.5141e-14
-2.71506e-13
-3.46878e-13
-3.24416e-13
-2.42126e-13
-1.41713e-13
-5.65071e-14
-3.47732e-15
1.74426e-14
1.72924e-14
9.3356e-15
2.48566e-15
-4.7558e-16
-7.33173e-16
-2.50525e-16
2.46662e-17
4.83665e-14
-1.00907e-11
-2.0296e-11
-2.57461e-11
-1.65543e-11
1.55709e-11
7.00765e-11
1.30747e-10
1.64394e-10
1.2916e-10
-7.50742e-12
-2.47038e-10
-5.44209e-10
-8.0771e-10
-9.20435e-10
-7.73848e-10
-3.03133e-10
4.91438e-10
1.54549e-09
2.75233e-09
3.9951e-09
5.17596e-09
6.2326e-09
7.13939e-09
7.89748e-09
8.52105e-09
9.02579e-09
9.42263e-09
9.71653e-09
9.90813e-09
9.99637e-09
9.98067e-09
9.86226e-09
9.64477e-09
9.33437e-09
8.9396e-09
8.47108e-09
7.94112e-09
7.36318e-09
6.75135e-09
6.11979e-09
5.48222e-09
4.85145e-09
4.23897e-09
3.65469e-09
3.10672e-09
2.60132e-09
2.14286e-09
1.73399e-09
1.37587e-09
1.06593e-09
8.04027e-10
5.87968e-10
4.13068e-10
2.74672e-10
1.67922e-10
8.80444e-11
3.04878e-11
-8.96019e-12
-3.40927e-11
-4.82385e-11
-5.42455e-11
-5.44888e-11
-5.08957e-11
-4.49851e-11
-3.79141e-11
-3.05293e-11
-2.34176e-11
-1.69563e-11
-1.13581e-11
-6.71191e-12
-3.01787e-12
-2.16636e-13
1.78675e-12
3.10421e-12
3.85097e-12
4.13658e-12
4.06022e-12
3.71001e-12
3.16523e-12
2.50007e-12
1.78687e-12
1.09653e-12
4.94572e-13
3.30427e-14
-2.59339e-13
-3.84294e-13
-3.73834e-13
-2.80765e-13
-1.62184e-13
-6.23842e-14
-2.50596e-15
1.90295e-14
1.71255e-14
8.02682e-15
1.3969e-15
-7.80075e-16
-5.7145e-16
-6.55901e-17
-1.0436e-11
-2.77936e-11
-3.34613e-11
-1.84875e-11
2.86027e-11
1.05658e-10
1.87614e-10
2.25012e-10
1.56975e-10
-6.14156e-11
-4.26287e-10
-8.62252e-10
-1.2247e-09
-1.33242e-09
-1.02116e-09
-1.97282e-10
1.13125e-09
2.85915e-09
4.81997e-09
6.83672e-09
8.76602e-09
1.05209e-08
1.20695e-08
1.34176e-08
1.45864e-08
1.55955e-08
1.64545e-08
1.71624e-08
1.77116e-08
1.80922e-08
1.82954e-08
1.8316e-08
1.81535e-08
1.78122e-08
1.73011e-08
1.66341e-08
1.5829e-08
1.49067e-08
1.38907e-08
1.28056e-08
1.16767e-08
1.05285e-08
9.38431e-09
8.2652e-09
7.18971e-09
6.17332e-09
5.22831e-09
4.3637e-09
3.58544e-09
2.89688e-09
2.29427e-09
1.77832e-09
1.34628e-09
9.90468e-10
7.03114e-10
4.75919e-10
3.00574e-10
1.69018e-10
7.36711e-11
7.60309e-12
-3.5368e-11
-6.06216e-11
-7.2728e-11
-7.54755e-11
-7.19248e-11
-6.44802e-11
-5.49705e-11
-4.47345e-11
-3.47046e-11
-2.54864e-11
-1.74298e-11
-1.0693e-11
-5.29613e-12
-1.16693e-12
1.82316e-12
3.83031e-12
5.01729e-12
5.53945e-12
5.53731e-12
5.13505e-12
4.44385e-12
3.5676e-12
2.60809e-12
1.66599e-12
8.3527e-13
1.91118e-13
-2.2455e-13
-4.13332e-13
-4.19489e-13
-3.15448e-13
-1.77857e-13
-6.40533e-14
7.47221e-16
2.08971e-14
1.62467e-14
6.13139e-15
2.62372e-16
-8.74713e-16
-3.08278e-16
-3.12637e-11
-4.38547e-11
-2.17048e-11
4.35347e-11
1.49324e-10
2.5961e-10
3.03495e-10
1.93771e-10
-1.33004e-10
-6.67784e-10
-1.29483e-09
-1.79476e-09
-1.89329e-09
-1.34228e-09
-8.43805e-13
2.11789e-09
4.85428e-09
7.95826e-09
1.11671e-08
1.4272e-08
1.71506e-08
1.97627e-08
2.21208e-08
2.42558e-08
2.61913e-08
2.79322e-08
2.94652e-08
3.07658e-08
3.18056e-08
3.25586e-08
3.3004e-08
3.31289e-08
3.29293e-08
3.24099e-08
3.15846e-08
3.04755e-08
2.9112e-08
2.75298e-08
2.57688e-08
2.38719e-08
2.1883e-08
1.98456e-08
1.78012e-08
1.57879e-08
1.38397e-08
1.19856e-08
1.0249e-08
8.64776e-09
7.19452e-09
5.8973e-09
4.7509e-09
3.75832e-09
2.91666e-09
2.21358e-09
1.63642e-09
1.17124e-09
8.03851e-10
5.20218e-10
3.06963e-10
1.5166e-10
4.30656e-11
-2.87544e-11
-7.23795e-11
-9.50499e-11
-1.02736e-10
-1.0024e-10
-9.13256e-11
-7.88505e-11
-6.49096e-11
-5.09678e-11
-3.79853e-11
-2.65296e-11
-1.68733e-11
-9.07709e-12
-3.05848e-12
1.35267e-12
4.37097e-12
6.22353e-12
7.12837e-12
7.28271e-12
6.86029e-12
6.01586e-12
4.89381e-12
3.63602e-12
2.38368e-12
1.2692e-12
3.98789e-13
-1.68495e-13
-4.34728e-13
-4.60743e-13
-3.44412e-13
-1.86727e-13
-6.01834e-14
6.56873e-15
2.26565e-14
1.43131e-14
3.73068e-15
-6.47025e-16
-7.47599e-16
-5.50662e-11
-2.87233e-11
5.83194e-11
1.99838e-10
3.48604e-10
4.06357e-10
2.49786e-10
-2.13208e-10
-9.72238e-10
-1.86172e-09
-2.5612e-09
-2.66373e-09
-1.7945e-09
2.66872e-10
3.51336e-09
7.71846e-09
1.25186e-08
1.75298e-08
2.24485e-08
2.71008e-08
3.14339e-08
3.54712e-08
3.92583e-08
4.28241e-08
4.61644e-08
4.92442e-08
5.20085e-08
5.43952e-08
5.63439e-08
5.78023e-08
5.87298e-08
5.90997e-08
5.89008e-08
5.81377e-08
5.6831e-08
5.50158e-08
5.27403e-08
5.00638e-08
4.70537e-08
4.37832e-08
4.03278e-08
3.67633e-08
3.31627e-08
2.95939e-08
2.61181e-08
2.27882e-08
1.96482e-08
1.67324e-08
1.40663e-08
1.16675e-08
9.52928e-09
7.6598e-09
6.05739e-09
4.70269e-09
3.57546e-09
2.65278e-09
1.91075e-09
1.32542e-09
8.73551e-10
5.33275e-10
2.84524e-10
1.09317e-10
-8.10142e-12
-8.12378e-11
-1.21423e-10
-1.37956e-10
-1.38287e-10
-1.2824e-10
-1.12235e-10
-9.35126e-11
-7.43473e-11
-5.62426e-11
-4.01032e-11
-2.6385e-11
-1.52211e-11
-6.52584e-12
-7.81367e-14
4.4135e-12
7.26289e-12
8.77348e-12
9.22021e-12
8.84472e-12
7.86136e-12
6.46956e-12
4.86535e-12
3.24422e-12
1.78975e-12
6.48805e-13
-9.75156e-14
-4.52438e-13
-4.98529e-13
-3.66183e-13
-1.86565e-13
-4.95072e-14
1.46859e-14
2.33819e-14
1.09656e-14
1.20006e-15
-1.25517e-15
-5.48156e-11
6.94955e-11
2.54292e-10
4.55225e-10
5.41333e-10
3.40634e-10
-2.83292e-10
-1.32921e-09
-2.57607e-09
-3.57295e-09
-3.72816e-09
-2.4775e-09
5.3317e-10
5.33084e-09
1.16158e-08
1.88757e-08
2.65576e-08
3.42204e-08
4.16126e-08
4.86628e-08
5.54115e-08
6.19288e-08
6.8254e-08
7.43703e-08
8.02082e-08
8.56631e-08
9.06147e-08
9.49419e-08
9.8533e-08
1.01292e-07
1.03144e-07
1.04036e-07
1.03945e-07
1.02873e-07
1.00848e-07
9.79253e-08
9.41829e-08
8.97175e-08
8.46414e-08
7.90776e-08
7.31548e-08
6.70029e-08
6.07484e-08
5.45106e-08
4.83978e-08
4.25055e-08
3.69139e-08
3.16878e-08
2.68765e-08
2.25164e-08
1.85999e-08
1.5146e-08
1.21575e-08
9.60482e-09
7.45627e-09
5.6748e-09
4.22095e-09
3.05443e-09
2.13557e-09
1.42653e-09
8.92093e-10
5.00324e-10
2.22851e-10
3.50132e-11
-8.41955e-11
-1.52299e-10
-1.83612e-10
-1.89569e-10
-1.79081e-10
-1.58906e-10
-1.34e-10
-1.07849e-10
-8.27731e-11
-6.01877e-11
-4.08316e-11
-2.49575e-11
-1.24877e-11
-3.13863e-12
3.48259e-12
7.80684e-12
1.02541e-11
1.12059e-11
1.0997e-11
9.92333e-12
8.25864e-12
6.27125e-12
4.22819e-12
2.37976e-12
9.25649e-13
-2.43003e-14
-4.74426e-13
-5.35126e-13
-3.78719e-13
-1.74424e-13
-3.12156e-14
2.36151e-14
2.15886e-14
6.29121e-15
-1.26827e-15
2.24587e-11
3.10281e-10
5.7734e-10
7.15726e-10
4.8689e-10
-3.12401e-10
-1.71091e-09
-3.43566e-09
-4.87697e-09
-5.1942e-09
-3.54554e-09
6.43706e-10
7.49155e-09
1.66345e-08
2.73756e-08
3.893e-08
5.06574e-08
6.21885e-08
7.34215e-08
8.44244e-08
9.53101e-08
1.06142e-07
1.1689e-07
1.27439e-07
1.37607e-07
1.47181e-07
1.55941e-07
1.63671e-07
1.70174e-07
1.75281e-07
1.78855e-07
1.80801e-07
1.81068e-07
1.7965e-07
1.76586e-07
1.7196e-07
1.65893e-07
1.58544e-07
1.50097e-07
1.40754e-07
1.30733e-07
1.20254e-07
1.09532e-07
9.87752e-08
8.81718e-08
7.78909e-08
6.8077e-08
5.88487e-08
5.02995e-08
4.25009e-08
3.54471e-08
2.91783e-08
2.37085e-08
1.8994e-08
1.49865e-08
1.16271e-08
8.85167e-09
6.59359e-09
4.78619e-09
3.36499e-09
2.26925e-09
1.44318e-09
8.366e-10
4.05349e-10
1.11297e-10
-7.7832e-11
-1.88829e-10
-2.43483e-10
-2.59141e-10
-2.49285e-10
-2.24121e-10
-1.91132e-10
-1.55586e-10
-1.21004e-10
-8.9552e-11
-6.23916e-11
-3.99592e-11
-2.22e-11
-8.75179e-12
9.13743e-13
7.38622e-12
1.12451e-11
1.30185e-11
1.31694e-11
1.21045e-11
1.01973e-11
7.81049e-12
5.30321e-12
3.01149e-12
1.20414e-12
3.05892e-14
-5.1269e-13
-5.72394e-13
-3.77547e-13
-1.46543e-13
-6.29252e-15
2.99819e-14
1.59885e-14
5.42857e-16
2.48982e-10
7.18335e-10
9.32771e-10
7.11708e-10
-2.56762e-10
-2.06573e-09
-4.41042e-09
-6.50343e-09
-7.18314e-09
-5.2129e-09
3.34244e-10
9.77112e-09
2.27129e-08
3.82503e-08
5.52908e-08
7.29072e-08
9.05491e-08
1.08062e-07
1.25557e-07
1.4322e-07
1.61169e-07
1.79375e-07
1.97664e-07
2.1575e-07
2.33283e-07
2.49884e-07
2.65171e-07
2.78775e-07
2.90358e-07
2.99624e-07
3.06336e-07
3.1032e-07
3.11473e-07
3.09768e-07
3.05257e-07
2.98061e-07
2.88371e-07
2.76437e-07
2.62558e-07