# vtk DataFile Version 3.0
Malha 2D com triângulos e temperatura
ASCII
DATASET UNSTRUCTURED_GRID

POINTS 10000 double
0 0 0
10 0 0
10 10 0
0 10 0
0.10101 0 0
0.20202 0 0
0.30303 0 0
0.40404 0 0
0.505051 0 0
0.606061 0 0
0.707071 0 0
0.808081 0 0
0.909091 0 0
1.0101 0 0
1.11111 0 0
1.21212 0 0
1.31313 0 0
1.41414 0 0
1.51515 0 0
1.61616 0 0
1.71717 0 0
1.81818 0 0
1.91919 0 0
2.0202 0 0
2.12121 0 0
2.22222 0 0
2.32323 0 0
2.42424 0 0
2.52525 0 0
2.62626 0 0
2.72727 0 0
2.82828 0 0
2.92929 0 0
3.0303 0 0
3.13131 0 0
3.23232 0 0
3.33333 0 0
3.43434 0 0
3.53535 0 0
3.63636 0 0
3.73737 0 0
3.83838 0 0
3.93939 0 0
4.0404 0 0
4.14141 0 0
4.24242 0 0
4.34343 0 0
4.44444 0 0
4.54545 0 0
4.64646 0 0
4.74747 0 0
4.84848 0 0
4.94949 0 0
5.05051 0 0
5.15152 0 0
5.25253 0 0
5.35354 0 0
5.45455 0 0
5.55556 0 0
5.65657 0 0
5.75758 0 0
5.85859 0 0
5.9596 0 0
6.06061 0 0
6.16162 0 0
6.26263 0 0
6.36364 0 0
6.46465 0 0
6.56566 0 0
6.66667 0 0
6.76768 0 0
6.86869 0 0
6.9697 0 0
7.07071 0 0
7.17172 0 0
7.27273 0 0
7.37374 0 0
7.47475 0 0
7.57576 0 0
7.67677 0 0
7.77778 0 0
7.87879 0 0
7.9798 0 0
8.08081 0 0
8.18182 0 0
8.28283 0 0
8.38384 0 0
8.48485 0 0
8.58586 0 0
8.68687 0 0
8.78788 0 0
8.88889 0 0
8.9899 0 0
9.09091 0 0
9.19192 0 0
9.29293 0 0
9.39394 0 0
9.49495 0 0
9.59596 0 0
9.69697 0 0
9.79798 0 0
9.89899 0 0
10 0.10101 0
10 0.20202 0
10 0.30303 0
10 0.40404 0
10 0.505051 0
10 0.606061 0
10 0.707071 0
10 0.808081 0
10 0.909091 0
10 1.0101 0
10 1.11111 0
10 1.21212 0
10 1.31313 0
10 1.41414 0
10 1.51515 0
10 1.61616 0
10 1.71717 0
10 1.81818 0
10 1.91919 0
10 2.0202 0
10 2.12121 0
10 2.22222 0
10 2.32323 0
10 2.42424 0
10 2.52525 0
10 2.62626 0
10 2.72727 0
10 2.82828 0
10 2.92929 0
10 3.0303 0
10 3.13131 0
10 3.23232 0
10 3.33333 0
10 3.43434 0
10 3.53535 0
10 3.63636 0
10 3.73737 0
10 3.83838 0
10 3.93939 0
10 4.0404 0
10 4.14141 0
10 4.24242 0
10 4.34343 0
10 4.44444 0
10 4.54545 0
10 4.64646 0
10 4.74747 0
10 4.84848 0
10 4.94949 0
10 5.05051 0
10 5.15152 0
10 5.25253 0
10 5.35354 0
10 5.45455 0
10 5.55556 0
10 5.65657 0
10 5.75758 0
10 5.85859 0
10 5.9596 0
10 6.06061 0
10 6.16162 0
10 6.26263 0
10 6.36364 0
10 6.46465 0
10 6.56566 0
10 6.66667 0
10 6.76768 0
10 6.86869 0
10 6.9697 0
10 7.07071 0
10 7.17172 0
10 7.27273 0
10 7.37374 0
10 7.47475 0
10 7.57576 0
10 7.67677 0
10 7.77778 0
10 7.87879 0
10 7.9798 0
10 8.08081 0
10 8.18182 0
10 8.28283 0
10 8.38384 0
10 8.48485 0
10 8.58586 0
10 8.68687 0
10 8.78788 0
10 8.88889 0
10 8.9899 0
10 9.09091 0
10 9.19192 0
10 9.29293 0
10 9.39394 0
10 9.49495 0
10 9.59596 0
10 9.69697 0
10 9.79798 0
10 9.89899 0
9.89899 10 0
9.79798 10 0
9.69697 10 0
9.59596 10 0
9.49495 10 0
9.39394 10 0
9.29293 10 0
9.19192 10 0
9.09091 10 0
8.9899 10 0
8.88889 10 0
8.78788 10 0
8.68687 10 0
8.58586 10 0
8.48485 10 0
8.38384 10 0
8.28283 10 0
8.18182 10 0
8.08081 10 0
7.9798 10 0
7.87879 10 0
7.77778 10 0
7.67677 10 0
7.57576 10 0
7.47475 10 0
7.37374 10 0
7.27273 10 0
7.17172 10 0
7.07071 10 0
6.9697 10 0
6.86869 10 0
6.76768 10 0
6.66667 10 0
6.56566 10 0
6.46465 10 0
6.36364 10 0
6.26263 10 0
6.16162 10 0
6.06061 10 0
5.9596 10 0
5.85859 10 0
5.75758 10 0
5.65657 10 0
5.55556 10 0
5.45455 10 0
5.35354 10 0
5.25253 10 0
5.15152 10 0
5.05051 10 0
4.94949 10 0
4.84848 10 0
4.74747 10 0
4.64646 10 0
4.54545 10 0
4.44444 10 0
4.34343 10 0
4.24242 10 0
4.14141 10 0
4.0404 10 0
3.93939 10 0
3.83838 10 0
3.73737 10 0
3.63636 10 0
3.53535 10 0
3.43434 10 0
3.33333 10 0
3.23232 10 0
3.13131 10 0
3.0303 10 0
2.92929 10 0
2.82828 10 0
2.72727 10 0
2.62626 10 0
2.52525 10 0
2.42424 10 0
2.32323 10 0
2.22222 10 0
2.12121 10 0
2.0202 10 0
1.91919 10 0
1.81818 10 0
1.71717 10 0
1.61616 10 0
1.51515 10 0
1.41414 10 0
1.31313 10 0
1.21212 10 0
1.11111 10 0
1.0101 10 0
0.909091 10 0
0.808081 10 0
0.707071 10 0
0.606061 10 0
0.505051 10 0
0.40404 10 0
0.30303 10 0
0.20202 10 0
0.10101 10 0
0 9.89899 0
0 9.79798 0
0 9.69697 0
0 9.59596 0
0 9.49495 0
0 9.39394 0
0 9.29293 0
0 9.19192 0
0 9.09091 0
0 8.9899 0
0 8.88889 0
0 8.78788 0
0 8.68687 0
0 8.58586 0
0 8.48485 0
0 8.38384 0
0 8.28283 0
0 8.18182 0
0 8.08081 0
0 7.9798 0
0 7.87879 0
0 7.77778 0
0 7.67677 0
0 7.57576 0
0 7.47475 0
0 7.37374 0
0 7.27273 0
0 7.17172 0
0 7.07071 0
0 6.9697 0
0 6.86869 0
0 6.76768 0
0 6.66667 0
0 6.56566 0
0 6.46465 0
0 6.36364 0
0 6.26263 0
0 6.16162 0
0 6.06061 0
0 5.9596 0
0 5.85859 0
0 5.75758 0
0 5.65657 0
0 5.55556 0
0 5.45455 0
0 5.35354 0
0 5.25253 0
0 5.15152 0
0 5.05051 0
0 4.94949 0
0 4.84848 0
0 4.74747 0
0 4.64646 0
0 4.54545 0
0 4.44444 0
0 4.34343 0
0 4.24242 0
0 4.14141 0
0 4.0404 0
0 3.93939 0
0 3.83838 0
0 3.73737 0
0 3.63636 0
0 3.53535 0
0 3.43434 0
0 3.33333 0
0 3.23232 0
0 3.13131 0
0 3.0303 0
0 2.92929 0
0 2.82828 0
0 2.72727 0
0 2.62626 0
0 2.52525 0
0 2.42424 0
0 2.32323 0
0 2.22222 0
0 2.12121 0
0 2.0202 0
0 1.91919 0
0 1.81818 0
0 1.71717 0
0 1.61616 0
0 1.51515 0
0 1.41414 0
0 1.31313 0
0 1.21212 0
0 1.11111 0
0 1.0101 0
0 0.909091 0
0 0.808081 0
0 0.707071 0
0 0.606061 0
0 0.505051 0
0 0.40404 0
0 0.30303 0
0 0.20202 0
0 0.10101 0
0.10101 0.10101 0
0.10101 0.20202 0
0.10101 0.30303 0
0.10101 0.40404 0
0.10101 0.505051 0
0.10101 0.606061 0
0.10101 0.707071 0
0.10101 0.808081 0
0.10101 0.909091 0
0.10101 1.0101 0
0.10101 1.11111 0
0.10101 1.21212 0
0.10101 1.31313 0
0.10101 1.41414 0
0.10101 1.51515 0
0.10101 1.61616 0
0.10101 1.71717 0
0.10101 1.81818 0
0.10101 1.91919 0
0.10101 2.0202 0
0.10101 2.12121 0
0.10101 2.22222 0
0.10101 2.32323 0
0.10101 2.42424 0
0.10101 2.52525 0
0.10101 2.62626 0
0.10101 2.72727 0
0.10101 2.82828 0
0.10101 2.92929 0
0.10101 3.0303 0
0.10101 3.13131 0
0.10101 3.23232 0
0.10101 3.33333 0
0.10101 3.43434 0
0.10101 3.53535 0
0.10101 3.63636 0
0.10101 3.73737 0
0.10101 3.83838 0
0.10101 3.93939 0
0.10101 4.0404 0
0.10101 4.14141 0
0.10101 4.24242 0
0.10101 4.34343 0
0.10101 4.44444 0
0.10101 4.54545 0
0.10101 4.64646 0
0.10101 4.74747 0
0.10101 4.84848 0
0.10101 4.94949 0
0.10101 5.05051 0
0.10101 5.15152 0
0.10101 5.25253 0
0.10101 5.35354 0
0.10101 5.45455 0
0.10101 5.55556 0
0.10101 5.65657 0
0.10101 5.75758 0
0.10101 5.85859 0
0.10101 5.9596 0
0.10101 6.06061 0
0.10101 6.16162 0
0.10101 6.26263 0
0.10101 6.36364 0
0.10101 6.46465 0
0.10101 6.56566 0
0.10101 6.66667 0
0.10101 6.76768 0
0.10101 6.86869 0
0.10101 6.9697 0
0.10101 7.07071 0
0.10101 7.17172 0
0.10101 7.27273 0
0.10101 7.37374 0
0.10101 7.47475 0
0.10101 7.57576 0
0.10101 7.67677 0
0.10101 7.77778 0
0.10101 7.87879 0
0.10101 7.9798 0
0.10101 8.08081 0
0.10101 8.18182 0
0.10101 8.28283 0
0.10101 8.38384 0
0.10101 8.48485 0
0.10101 8.58586 0
0.10101 8.68687 0
0.10101 8.78788 0
0.10101 8.88889 0
0.10101 8.9899 0
0.10101 9.09091 0
0.10101 9.19192 0
0.10101 9.29293 0
0.10101 9.39394 0
0.10101 9.49495 0
0.10101 9.59596 0
0.10101 9.69697 0
0.10101 9.79798 0
0.10101 9.89899 0
0.20202 0.10101 0
0.20202 0.20202 0
0.20202 0.30303 0
0.20202 0.40404 0
0.20202 0.505051 0
0.20202 0.606061 0
0.20202 0.707071 0
0.20202 0.808081 0
0.20202 0.909091 0
0.20202 1.0101 0
0.20202 1.11111 0
0.20202 1.21212 0
0.20202 1.31313 0
0.20202 1.41414 0
0.20202 1.51515 0
0.20202 1.61616 0
0.20202 1.71717 0
0.20202 1.81818 0
0.20202 1.91919 0
0.20202 2.0202 0
0.20202 2.12121 0
0.20202 2.22222 0
0.20202 2.32323 0
0.20202 2.42424 0
0.20202 2.52525 0
0.20202 2.62626 0
0.20202 2.72727 0
0.20202 2.82828 0
0.20202 2.92929 0
0.20202 3.0303 0
0.20202 3.13131 0
0.20202 3.23232 0
0.20202 3.33333 0
0.20202 3.43434 0
0.20202 3.53535 0
0.20202 3.63636 0
0.20202 3.73737 0
0.20202 3.83838 0
0.20202 3.93939 0
0.20202 4.0404 0
0.20202 4.14141 0
0.20202 4.24242 0
0.20202 4.34343 0
0.20202 4.44444 0
0.20202 4.54545 0
0.20202 4.64646 0
0.20202 4.74747 0
0.20202 4.84848 0
0.20202 4.94949 0
0.20202 5.05051 0
0.20202 5.15152 0
0.20202 5.25253 0
0.20202 5.35354 0
0.20202 5.45455 0
0.20202 5.55556 0
0.20202 5.65657 0
0.20202 5.75758 0
0.20202 5.85859 0
0.20202 5.9596 0
0.20202 6.06061 0
0.20202 6.16162 0
0.20202 6.26263 0
0.20202 6.36364 0
0.20202 6.46465 0
0.20202 6.56566 0
0.20202 6.66667 0
0.20202 6.76768 0
0.20202 6.86869 0
0.20202 6.9697 0
0.20202 7.07071 0
0.20202 7.17172 0
0.20202 7.27273 0
0.20202 7.37374 0
0.20202 7.47475 0
0.20202 7.57576 0
0.20202 7.67677 0
0.20202 7.77778 0
0.20202 7.87879 0
0.20202 7.9798 0
0.20202 8.08081 0
0.20202 8.18182 0
0.20202 8.28283 0
0.20202 8.38384 0
0.20202 8.48485 0
0.20202 8.58586 0
0.20202 8.68687 0
0.20202 8.78788 0
0.20202 8.88889 0
0.20202 8.9899 0
0.20202 9.09091 0
0.20202 9.19192 0
0.20202 9.29293 0
0.20202 9.39394 0
0.20202 9.49495 0
0.20202 9.59596 0
0.20202 9.69697 0
0.20202 9.79798 0
0.20202 9.89899 0
0.30303 0.10101 0
0.30303 0.20202 0
0.30303 0.30303 0
0.30303 0.40404 0
0.30303 0.505051 0
0.30303 0.606061 0
0.30303 0.707071 0
0.30303 0.808081 0
0.30303 0.909091 0
0.30303 1.0101 0
0.30303 1.11111 0
0.30303 1.21212 0
0.30303 1.31313 0
0.30303 1.41414 0
0.30303 1.51515 0
0.30303 1.61616 0
0.30303 1.71717 0
0.30303 1.81818 0
0.30303 1.91919 0
0.30303 2.0202 0
0.30303 2.12121 0
0.30303 2.22222 0
0.30303 2.32323 0
0.30303 2.42424 0
0.30303 2.52525 0
0.30303 2.62626 0
0.30303 2.72727 0
0.30303 2.82828 0
0.30303 2.92929 0
0.30303 3.0303 0
0.30303 3.13131 0
0.30303 3.23232 0
0.30303 3.33333 0
0.30303 3.43434 0
0.30303 3.53535 0
0.30303 3.63636 0
0.30303 3.73737 0
0.30303 3.83838 0
0.30303 3.93939 0
0.30303 4.0404 0
0.30303 4.14141 0
0.30303 4.24242 0
0.30303 4.34343 0
0.30303 4.44444 0
0.30303 4.54545 0
0.30303 4.64646 0
0.30303 4.74747 0
0.30303 4.84848 0
0.30303 4.94949 0
0.30303 5.05051 0
0.30303 5.15152 0
0.30303 5.25253 0
0.30303 5.35354 0
0.30303 5.45455 0
0.30303 5.55556 0
0.30303 5.65657 0
0.30303 5.75758 0
0.30303 5.85859 0
0.30303 5.9596 0
0.30303 6.06061 0
0.30303 6.16162 0
0.30303 6.26263 0
0.30303 6.36364 0
0.30303 6.46465 0
0.30303 6.56566 0
0.30303 6.66667 0
0.30303 6.76768 0
0.30303 6.86869 0
0.30303 6.9697 0
0.30303 7.07071 0
0.30303 7.17172 0
0.30303 7.27273 0
0.30303 7.37374 0
0.30303 7.47475 0
0.30303 7.57576 0
0.30303 7.67677 0
0.30303 7.77778 0
0.30303 7.87879 0
0.30303 7.9798 0
0.30303 8.08081 0
[...]
CELL_DATA 9801
SCALARS Temperatura double 1
LOOKUP_TABLE default
-1.65036e-18
-3.31181e-18
-6.82768e-18
-1.37722e-17
-2.73166e-17
-5.3249e-17
-1.01946e-16
-1.91519e-16
-3.52616e-16
-6.35201e-16
-1.11691e-15
-1.91057e-15
-3.1635e-15
-5.03048e-15
-7.57982e-15
-1.05484e-14
-1.27779e-14
-1.10127e-14
2.53303e-15
4.49047e-14
1.51302e-13
3.91338e-13
8.98036e-13
1.91835e-12
3.89933e-12
7.63227e-12
1.4489e-11
2.68023e-11
4.84675e-11
8.5877e-11
1.49345e-10
2.55247e-10
4.29169e-10
7.10467e-10
1.15876e-09
1.86299e-09
2.95387e-09
4.62064e-09
7.13317e-09
1.08706e-08
1.63572e-08
2.43066e-08
3.56713e-08
5.16939e-08
7.39432e-08
1.04301e-07
1.44836e-07
1.97469e-07
2.6338e-07
3.42339e-07
4.33315e-07
5.43867e-07
6.76057e-07
8.32281e-07
1.01469e-06
1.22506e-06
1.46462e-06
1.7339e-06
2.03254e-06
2.35917e-06
2.71125e-06
3.08506e-06
3.4756e-06
3.87668e-06
4.28098e-06
4.68031e-06
5.06577e-06
5.42812e-06
5.75811e-06
6.04687e-06
6.28632e-06
6.46952e-06
6.59102e-06
6.6471e-06
6.63602e-06
6.55804e-06
6.41545e-06
6.21245e-06
5.95495e-06
5.65026e-06
5.30677e-06
4.93356e-06
4.54e-06
4.13536e-06
3.72848e-06
3.32745e-06
2.93939e-06
2.5703e-06
2.22491e-06
1.90665e-06
1.6175e-06
1.35772e-06
1.12533e-06
9.15311e-07
7.19094e-07
5.25919e-07
3.29226e-07
1.41074e-07
-1.05617e-08
-8.45765e-19
1.30125e-18
3.95195e-18
1.11412e-17
2.90162e-17
7.1618e-17
1.69763e-16
3.89529e-16
8.69608e-16
1.89544e-15
4.0437e-15
8.4593e-15
1.73775e-14
3.50925e-14
6.97257e-14
1.36405e-13
2.62893e-13
4.99399e-13
9.35425e-13
1.72827e-12
3.15051e-12
5.66795e-12
1.00656e-11
1.76481e-11
3.05544e-11
5.2243e-11
8.82289e-11
1.47187e-10
2.42572e-10
3.94968e-10
6.35418e-10
1.01009e-09
1.58666e-09
2.4629e-09
3.77803e-09
5.72728e-09
8.58033e-09
1.27039e-08
1.85885e-08
2.68796e-08
3.84117e-08
5.42436e-08
7.56934e-08
1.04369e-07
1.42196e-07
1.91444e-07
2.54777e-07
3.35359e-07
4.37035e-07
5.64524e-07
7.22768e-07
9.15695e-07
1.14834e-06
1.42543e-06
1.75139e-06
2.12999e-06
2.56407e-06
3.05521e-06
3.60338e-06
4.20664e-06
4.86093e-06
5.55982e-06
6.29447e-06
7.05366e-06
7.82398e-06
8.5901e-06
9.33524e-06
1.00418e-05
1.06918e-05
1.1268e-05
1.17544e-05
1.2137e-05
1.24044e-05
1.25486e-05
1.25651e-05
1.24536e-05
1.22173e-05
1.18634e-05
1.14023e-05
1.08474e-05
1.02144e-05
9.5202e-06
8.78271e-06
8.01971e-06
7.24831e-06
6.48432e-06
5.74179e-06
5.03263e-06
4.36643e-06
3.75026e-06
3.18844e-06
2.68208e-06
2.22807e-06
1.81759e-06
1.43485e-06
1.05908e-06
6.75945e-07
3.05157e-07
1.13425e-09
1.03728e-18
1.03242e-17
2.42324e-17
5.6344e-17
1.2792e-16
2.84299e-16
6.1963e-16
1.32619e-15
2.79037e-15
5.77666e-15
1.17748e-14
2.36452e-14
4.68012e-14
9.13423e-14
1.75849e-13
3.34034e-13
6.26237e-13
1.159e-12
2.11791e-12
3.822e-12
6.81241e-12
1.1995e-11
2.08662e-11
3.58658e-11
6.09195e-11
1.02262e-10
1.69665e-10
2.78245e-10
4.51079e-10
7.22938e-10
1.14552e-09
1.79469e-09
2.7803e-09
4.25926e-09
6.45281e-09
9.66863e-09
1.43288e-08
2.10048e-08
3.0459e-08
4.36954e-08
6.20169e-08
8.70902e-08
1.21017e-07
1.66405e-07
2.26446e-07
3.04975e-07
4.06539e-07
5.36441e-07
7.00792e-07
9.06544e-07
1.16054e-06
1.47023e-06
1.84361e-06
2.28827e-06
2.81126e-06
3.41862e-06
4.11489e-06
4.90255e-06
5.78156e-06
6.7488e-06
7.79771e-06
8.918e-06
1.00955e-05
1.13122e-05
1.25466e-05
1.37742e-05
1.49681e-05
1.61e-05
1.71414e-05
1.80644e-05
1.88436e-05
1.94563e-05
1.98846e-05
2.01155e-05
2.0142e-05
1.99633e-05
1.95848e-05
1.90178e-05
1.82792e-05
1.73903e-05
1.63762e-05
1.5264e-05
1.40825e-05
1.28599e-05
1.16239e-05
1.03996e-05
9.20953e-06
8.07284e-06
7.00486e-06
6.017e-06
5.11638e-06
4.30514e-06
3.57888e-06
2.92415e-06
2.3159e-06
1.71961e-06
1.10859e-06
5.09395e-07
8.56904e-09
4.07152e-18
2.42357e-17
5.50469e-17
1.24066e-16
2.7414e-16
5.94799e-16
1.26863e-15
2.66231e-15
5.50124e-15
1.11996e-14
2.24754e-14
4.44795e-14
8.684e-14
1.67311e-13
3.18197e-13
5.97502e-13
1.10802e-12
2.02957e-12
3.67269e-12
6.56681e-12
1.16032e-11
2.02632e-11
3.49784e-11
5.96895e-11
1.00704e-10
1.67993e-10
2.77119e-10
4.52072e-10
7.29376e-10
1.16394e-09
1.83727e-09
2.86886e-09
4.43167e-09
6.77288e-09
1.02412e-08
1.53223e-08
2.26836e-08
3.32305e-08
4.81742e-08
6.91128e-08
9.81253e-08
1.37876e-07
1.91725e-07
2.63847e-07
3.59332e-07
4.84284e-07
6.45907e-07
8.5258e-07
1.11396e-06
1.4411e-06
1.84495e-06
2.3374e-06
2.93118e-06
3.63835e-06
4.47016e-06
5.43625e-06
6.54383e-06
7.79693e-06
9.19546e-06
1.07345e-05
1.24037e-05
1.41867e-05
1.6061e-05
1.79979e-05
1.99634e-05
2.19183e-05
2.38199e-05
2.56233e-05
2.72829e-05
2.87545e-05
2.99974e-05
3.09756e-05
3.16605e-05
3.20312e-05
3.20767e-05
3.17954e-05
3.11958e-05
3.02961e-05
2.91229e-05
2.77101e-05
2.60974e-05
2.43283e-05
2.24481e-05
2.05022e-05
1.85343e-05
1.65847e-05
1.46891e-05
1.2878e-05
1.11761e-05
9.60148e-06
8.16586e-06
6.87321e-06
5.71749e-06
4.67845e-06
3.71685e-06
2.77609e-06
1.80789e-06
8.46053e-07
2.65072e-08
8.55966e-18
4.4505e-17
9.96892e-17
2.21684e-16
4.83982e-16
1.03872e-15
2.19355e-15
4.56155e-15
9.34691e-15
1.88817e-14
3.76208e-14
7.3959e-14
1.43508e-13
2.74917e-13
5.20095e-13
9.71879e-13
1.79422e-12
3.27302e-12
5.90067e-12
1.05146e-11
1.85217e-11
3.22563e-11
5.55446e-11
9.45807e-11
1.59271e-10
2.65264e-10
4.36979e-10
7.12055e-10
1.14779e-09
1.83036e-09
2.8877e-09
4.5075e-09
6.96149e-09
1.06383e-08
1.60863e-08
2.40698e-08
3.56393e-08
5.22204e-08
7.57203e-08
1.08656e-07
1.54299e-07
2.16845e-07
3.01582e-07
4.15076e-07
5.65335e-07
7.61965e-07
1.0163e-06
1.34153e-06
1.75286e-06
2.26767e-06
2.90326e-06
3.67839e-06
4.61305e-06
5.72629e-06
7.03582e-06
8.55684e-06
1.03008e-05
1.2274e-05
1.44764e-05
1.69003e-05
1.95294e-05
2.23381e-05
2.52908e-05
2.83427e-05
3.14399e-05
3.4521e-05
3.75186e-05
4.0362e-05
4.29793e-05
4.53011e-05
4.72628e-05
4.88081e-05
4.98913e-05
5.048e-05
5.05562e-05
5.01175e-05
4.91772e-05
4.77637e-05
4.59188e-05
4.36959e-05
4.11575e-05
3.83719e-05
3.54107e-05
3.23453e-05
2.92445e-05
2.61717e-05
2.31835e-05
2.0328e-05
1.76438e-05
1.51601e-05
1.28954e-05
1.08569e-05
9.03658e-06
7.40446e-06
5.89996e-06
4.43185e-06
2.9151e-06
1.38887e-06
6.30021e-08
1.55654e-17
7.49917e-17
1.66589e-16
3.6752e-16
7.96748e-16
1.69928e-15
3.56838e-15
7.38311e-15
1.50596e-14
3.0297e-14
6.01411e-14
1.17837e-13
2.27958e-13
4.35518e-13
8.21928e-13
1.53259e-12
2.82395e-12
5.14275e-12
9.2577e-12
1.64753e-11
2.89893e-11
5.04379e-11
8.67826e-11
1.47673e-10
2.48538e-10
4.1375e-10
6.81341e-10
1.10993e-09
1.78876e-09
2.85205e-09
4.49909e-09
7.02221e-09
1.08447e-08
1.6572e-08
2.50582e-08
3.74938e-08
5.55151e-08
8.13421e-08
1.17945e-07
1.69243e-07
2.40332e-07
3.37743e-07
4.69715e-07
6.46473e-07
8.80498e-07
1.18676e-06
1.58291e-06
2.08952e-06
2.73026e-06
3.5322e-06
4.52238e-06
5.73006e-06
7.18636e-06
8.92103e-06
1.09617e-05
1.33321e-05
1.605e-05
1.91255e-05
2.25585e-05
2.63371e-05
3.04359e-05
3.4815e-05
3.94193e-05
4.41786e-05
4.90093e-05
5.38155e-05
5.84922e-05
6.29292e-05
6.70145e-05
7.06396e-05
7.37038e-05
7.61192e-05
7.78145e-05
7.87389e-05
7.88641e-05
7.81864e-05
7.67263e-05
7.45277e-05
7.16557e-05
6.81937e-05
6.42387e-05
5.98973e-05
5.5281e-05
5.05012e-05
4.56652e-05
4.08721e-05
3.621e-05
3.17539e-05
2.75644e-05
2.36869e-05
2.01512e-05
1.69695e-05
1.41315e-05
1.15937e-05
9.26384e-06
6.99728e-06
4.64796e-06
2.25378e-06
1.32975e-07
2.69626e-17
1.22108e-16
2.69564e-16
5.91178e-16
1.27504e-15
2.70717e-15
5.66254e-15
1.16754e-14
2.37418e-14
4.76345e-14
9.43305e-14
1.84433e-13
3.56122e-13
6.79254e-13
1.28005e-12
2.38375e-12
4.38735e-12
7.982e-12
1.43564e-11
2.55299e-11
4.48918e-11
7.80619e-11
1.34246e-10
2.28339e-10
3.84159e-10
6.39317e-10
1.05249e-09
1.71413e-09
2.76189e-09
4.40277e-09
6.94417e-09
1.08368e-08
1.67335e-08
2.55674e-08
3.86557e-08
5.78331e-08
8.56224e-08
1.25445e-07
1.8188e-07
2.60967e-07
3.70563e-07
5.20736e-07
7.24187e-07
9.96686e-07
1.35748e-06
1.82966e-06
2.44048e-06
3.22162e-06
4.20961e-06
5.44616e-06
6.97311e-06
8.83562e-06
1.10817e-05
1.37572e-05
1.69049e-05
2.05613e-05
2.47543e-05
2.9499e-05
3.47957e-05
4.06261e-05
4.6951e-05
5.3709e-05
6.08151e-05
6.81614e-05
7.56186e-05
8.30389e-05
9.02605e-05
9.71131e-05
0.000103424
0.000109025
0.000113762
0.000117498
0.000120123
0.000121559
0.000121762
0.000120724
0.000118479
0.000115094
0.000110668
0.000105331
9.92308e-05
9.25334e-05
8.54104e-05
7.80336e-05
7.05685e-05
6.31684e-05
5.59694e-05
4.90872e-05
4.26155e-05
3.66246e-05
3.11613e-05
2.62462e-05
2.18665e-05
1.79598e-05
1.43885e-05
1.09265e-05
7.32847e-06
3.6156e-06
2.61402e-07
4.56002e-17
1.95337e-16
4.28897e-16
9.35802e-16
2.00947e-15
4.25033e-15
8.86099e-15
1.82175e-14
3.69514e-14
7.39728e-14
1.46201e-13
2.85355e-13
5.5015e-13
1.04791e-12
1.97241e-12
3.66917e-12
6.74679e-12
1.22642e-11
2.20418e-11
3.91706e-11
6.88366e-11
1.19635e-10
2.05642e-10
3.49628e-10
5.87988e-10
9.78189e-10
1.60987e-09
2.62115e-09
4.22224e-09
6.7292e-09
1.06113e-08
1.65565e-08
2.55611e-08
3.90492e-08
5.90309e-08
8.8306e-08
1.30724e-07
1.91505e-07
2.77635e-07
3.98332e-07
5.65584e-07
7.94753e-07
1.10523e-06
1.52107e-06
2.07168e-06
2.79232e-06
3.72457e-06
4.91683e-06
6.42483e-06
8.3122e-06
1.0643e-05
1.34863e-05
1.69152e-05
2.1e-05
2.58059e-05
3.1389e-05
3.77915e-05
4.50371e-05
5.3126e-05
6.20305e-05
7.16912e-05
8.2014e-05
9.28696e-05
0.000104093
0.000115487
0.000126826
0.000137863
0.000148338
0.000157986
0.000166552
0.000173799
0.000179517
0.00018354
0.000185746
0.000186068
0.000184496
0.000181078
0.000175916
0.000169165
0.000161019
0.000151707
0.00014148
0.000130601
0.000119332
0.000107927
9.66186e-05
8.5616e-05
7.5096e-05
6.52016e-05
5.60409e-05
4.76859e-05
4.01705e-05
3.34801e-05
2.75266e-05
2.21077e-05
1.68756e-05
1.14267e-05
5.73443e-06
4.89161e-07
7.56588e-17
3.08286e-16
6.73583e-16
1.46284e-15
3.12865e-15
6.5947e-15
1.37072e-14
2.81067e-14
5.68786e-14
1.13633e-13
2.24183e-13
4.36862e-13
8.41051e-13
1.59999e-12
3.00814e-12
5.59023e-12
1.02699e-11
1.86533e-11
3.35001e-11
5.9494e-11
1.0449e-10
1.81502e-10
3.11836e-10
5.29945e-10
8.90887e-10
1.48157e-09
2.43753e-09
3.96757e-09
6.38945e-09
1.01808e-08
1.60507e-08
2.50387e-08
3.86499e-08
5.90359e-08
8.92328e-08
1.3347e-07
1.97561e-07
2.89393e-07
4.19515e-07
6.01851e-07
8.54508e-07
1.20069e-06
1.66969e-06
2.29788e-06
3.12966e-06
4.21834e-06
5.62678e-06
7.42811e-06
9.70651e-06
1.25581e-05
1.60799e-05
2.03763e-05
2.5558e-05
3.17311e-05
3.89943e-05
4.74324e-05
5.71095e-05
6.80615e-05
8.0289e-05
9.37503e-05
0.000108355
0.000123963
0.000140377
0.000157349
0.00017458
0.000191731
0.000208426
0.000224273
0.000238872
0.000251837
0.000262809
0.000271471
0.00027757
0.000280922
0.000281426
0.000279066
0.000273914
0.000266125
0.000255929
0.000243623
0.000229551
0.000214093
0.000197646
0.000180608
0.00016336
0.000146257
0.000129613
0.000113698
9.8726e-05
8.48621e-05
7.22163e-05
6.08426e-05
5.07255e-05
4.17437e-05
3.36038e-05
2.57795e-05
1.76197e-05
8.99219e-06
8.81738e-07
1.23213e-16
4.80297e-16
1.04474e-15
2.25921e-15
4.81413e-15
1.0115e-14
2.09656e-14
4.28851e-14
8.65979e-14
1.72677e-13
3.40091e-13
6.61731e-13
1.27226e-12
2.41738e-12
4.54003e-12
8.42885e-12
1.54713e-11
2.80786e-11
5.03915e-11
8.94349e-11
1.56985e-10
2.72546e-10
4.68035e-10
7.95057e-10
1.33605e-09
2.22112e-09
3.65312e-09
5.94451e-09
9.57072e-09
1.52463e-08
2.40318e-08
3.74821e-08
5.78482e-08
8.83475e-08
1.3352e-07
1.9969e-07
2.95549e-07
4.32889e-07
6.27485e-07
9.00153e-07
1.27797e-06
1.79563e-06
2.49693e-06
3.43628e-06
4.68011e-06
6.30815e-06
8.41448e-06
1.11085e-05
1.4516e-05
1.87806e-05
2.40481e-05
3.04746e-05
3.82255e-05
4.74598e-05
5.83252e-05
7.09488e-05
8.54268e-05
0.000101813
0.000120109
0.000140251
0.000162107
0.000185464
0.00021003
0.000235432
0.000261226
0.0002869
0.000311896
0.000335625
0.00035749
0.000376911
0.00039335
0.000406336
0.000415487
0.000420527
0.000421305
0.000417796
0.000410106
0.000398468
0.000383227
0.000364823
0.000343774
0.000320647
0.000296036
0.000270536
0.000244719
0.000219116
0.000194197
0.000170365
0.000147943
0.000127177
0.000108233
9.11963e-05
7.60525e-05
6.2637e-05
5.05317e-05
3.89528e-05
2.68692e-05
1.3942e-05
1.54197e-06
1.97014e-16
7.38628e-16
1.60019e-15
3.44691e-15
7.32024e-15
1.53355e-14
3.17041e-14
6.47033e-14
1.30393e-13
2.59541e-13
5.10358e-13
9.91618e-13
1.90408e-12
3.61378e-12
6.77999e-12
1.25759e-11
2.30641e-11
4.18273e-11
7.5015e-11
1.33056e-10
2.33423e-10
4.0505e-10
6.95267e-10
1.18058e-09
1.98317e-09
3.29583e-09
5.41909e-09
8.81579e-09
1.419e-08
2.25999e-08
3.56159e-08
5.554e-08
8.57045e-08
1.30872e-07
1.97763e-07
2.95737e-07
4.37661e-07
6.40984e-07
9.29056e-07
1.33268e-06
1.89194e-06
2.65819e-06
3.69626e-06
5.08669e-06
6.92786e-06
9.33785e-06
1.2456e-05
1.64442e-05
2.14888e-05
2.78022e-05
3.56007e-05
4.51158e-05
5.65923e-05
7.02656e-05
8.63548e-05
0.000105048
0.000126489
0.000150756
0.000177853
0.000207687
0.000240059
0.000274658
0.00031105
0.000348683
0.000386899
0.000424941
0.000461983
0.000497151
0.000529561
0.000558354
0.000582733
0.000601998
0.000615584
0.000623082
0.000624265
0.000619097
0.000607735
0.000590521
0.000567966
0.000540722
0.000509555
0.000475305
0.000438852
0.000401078
0.000362829
0.000324892
0.000287966
0.000252645
0.00021941
0.000188625
0.000160537
0.000135278
0.000112839
9.30009e-05
7.51772e-05
5.82192e-05
4.05233e-05
2.13743e-05
2.62833e-06
3.09509e-16
1.12126e-15
2.42036e-15
5.19522e-15
1.09993e-14
2.29808e-14
4.73972e-14
9.65275e-14
1.94164e-13
3.85832e-13
7.5757e-13
1.46999e-12
2.81928e-12
5.34502e-12
1.00184e-11
1.85665e-11
3.40241e-11
6.16599e-11
1.10513e-10
1.95905e-10
3.43502e-10
5.95784e-10
1.02222e-09
1.73508e-09
2.91362e-09
4.84061e-09
7.95678e-09
1.29408e-08
2.08248e-08
3.31599e-08
5.22479e-08
8.14625e-08
1.25687e-07
1.919e-07
2.89948e-07
4.33545e-07
6.41543e-07
9.39507e-07
1.36164e-06
1.95309e-06
2.77255e-06
3.89529e-06
5.4163e-06
7.45361e-06
1.01514e-05
1.36828e-05
1.82521e-05
2.40965e-05
3.14891e-05
4.07407e-05
5.21695e-05
6.61148e-05
8.29352e-05
0.000102976
0.000126559
0.00015396
0.000185389
0.000220964
0.000260687
0.000304425
0.000351888
0.000402617
0.000455978
0.000511164
0.000567207
0.000623
0.00067733
0.000728918
0.000776468
0.000818718
0.000854499
0.000882786
0.000902746
0.000913782
0.000915558
0.000908021
0.0008914
0.000866194
0.000833152
0.00079323
0.000747549
0.000697342
0.000643898
0.00058851
0.00053242
0.000476782
0.000422621
0.000370809
0.00032205
0.000276879
0.000235661
0.000198594
0.000165682
0.000136638
0.000110655
8.60734e-05
6.04443e-05
3.24025e-05
4.38066e-06
4.78144e-16
1.68038e-15
3.61553e-15
7.73591e-15
1.63327e-14
3.40401e-14
7.00537e-14
1.42393e-13
2.85928e-13
5.67306e-13
1.11235e-12
2.15574e-12
4.12987e-12
7.82189e-12
1.46476e-11
2.71234e-11
4.96684e-11
8.9951e-11
1.61121e-10
2.85462e-10
5.00284e-10
8.67323e-10
1.48751e-09
2.52392e-09
4.23685e-09
7.03686e-09
1.15637e-08
1.88024e-08
3.02509e-08
4.81597e-08
7.58683e-08
1.18271e-07
1.82452e-07
2.78533e-07
4.20797e-07
6.29133e-07
9.30882e-07
1.36312e-06
1.97546e-06
2.83335e-06
4.02195e-06
5.65039e-06
7.85648e-06
1.08114e-05
1.47244e-05
1.98467e-05
2.64746e-05
3.49525e-05
4.56762e-05
5.90964e-05
7.56756e-05
9.59065e-05
0.000120309
0.000149385
0.000183601
0.000223358
0.000268961
0.000320581
0.000378224
0.000441694
0.000510574
0.000584197
0.000661643
0.000741743
0.000823093
0.000904086
0.000982961
0.00105786
0.00112691
0.00118827
0.00124025
0.00128135
0.00131037
0.00132644
0.00132908
0.00131819
0.00129412
0.00125758
0.00120966
0.00115175
0.00108548
0.00101263
0.000935071
0.000854682
0.000773268
0.000692502
0.000613872
0.000538645
0.000467844
0.000402244
0.000342378
0.000288538
0.000240753
0.000198656
0.000161149
0.000125881
8.91697e-05
4.85737e-05
7.15567e-06
7.26987e-16
2.48668e-15
5.33484e-15
1.13817e-14
2.39691e-14
4.98434e-14
1.02372e-13
2.07713e-13
4.16429e-13
8.25053e-13
1.61566e-12
3.12755e-12
5.98537e-12
1.13255e-11
2.11907e-11
3.92093e-11
7.17501e-11
1.2986e-10
2.32474e-10
4.11666e-10
7.21122e-10
1.24965e-09
2.1424e-09
3.63381e-09
6.09806e-09
1.01252e-08
1.66345e-08
2.7041e-08
4.34965e-08
6.92336e-08
1.09048e-07
1.69969e-07
2.62168e-07
4.00179e-07
6.04508e-07
9.03711e-07
1.33704e-06
1.95772e-06
2.83697e-06
4.06876e-06
5.77533e-06
8.11338e-06
1.12807e-05
1.55233e-05
2.11415e-05
2.84961e-05
3.80129e-05
5.01864e-05
6.55848e-05
8.48545e-05
0.000108661
0.000137714
0.000172758
0.000214515
0.000263654
0.000320754
0.000386251
0.000460393
0.000543188
0.000634359
0.000733302
0.000839064
0.000950325
0.0010654
0.00118228
0.00129866
0.001412
0.00151964
0.00161888
0.00170708
0.00178181
0.00184093
0.00188269
0.00190585
0.0019097
0.00189413
0.00185961
0.00180718
0.00173839
0.00165524
0.00156006
0.00145543
0.00134402
0.00122853
0.00111156
0.000995515
0.000882527
0.000774419
0.000672662
0.000578369
0.000492306
0.000414902
0.000346226
0.000285815
0.000232206
0.000182115
0.000130106
7.20067e-05
1.14749e-05
1.08871e-15
3.6344e-15
7.77683e-15
1.65484e-14
3.47694e-14
7.21538e-14
1.47923e-13
2.99645e-13
5.99853e-13
1.18689e-12
2.32147e-12
4.48899e-12
8.5825e-12
1.62256e-11
3.03348e-11
5.60882e-11
1.0257e-10
1.85531e-10
3.31956e-10
5.87541e-10
1.02875e-09
1.78202e-09
3.05398e-09
5.17826e-09
8.68725e-09
1.44203e-08
2.36849e-08
3.84936e-08
6.1906e-08
9.8518e-08
1.55148e-07
2.41787e-07
3.72893e-07
5.69125e-07
8.59625e-07
1.28498e-06
1.90096e-06
2.78322e-06
4.03297e-06
5.78373e-06
8.20923e-06
1.15321e-05
1.60337e-05
2.20632e-05
3.0048e-05
4.0501e-05
5.40275e-05
7.13308e-05
9.32177e-05
0.000120607
0.000154446
0.000195743
0.000245559
0.000304919
0.000374775
0.00045595
0.000549066
0.000654476
0.000772192
0.000901821
0.00104251
0.00119289
0.00135111
0.00151475
0.00168097
0.00184649
0.00200769
0.00216081
0.00230198
0.00242747
0.00253381
0.00261795
0.00267742
0.00271044
0.00271601
0.00269396
0.00264495
0.00257047
0.00247273
0.00235454
0.00221924
0.00207048
0.00191207
0.00174785
0.0015815
0.00141646
0.00125576
0.00110198
0.000957228
0.000823078
0.000700621
0.000590476
0.000492773
0.000406944
0.000331071
0.000260641
0.000187761
0.000105561
1.80883e-05
1.60692e-15
5.24732e-15
1.12019e-14
2.37801e-14
4.98586e-14
1.03273e-13
2.11364e-13
4.27509e-13
8.54657e-13
1.68898e-12
3.29986e-12
6.3745e-12
1.21764e-11
2.3001e-11
4.29698e-11
7.93962e-11
1.45105e-10
2.62321e-10
4.69112e-10
8.29915e-10
1.45252e-09
2.51512e-09
4.30884e-09
7.30368e-09
1.22494e-08
2.0328e-08
3.33802e-08
5.42391e-08
8.72113e-08
1.38765e-07
2.18495e-07
3.40461e-07
5.25004e-07
8.01191e-07
1.21002e-06
1.80859e-06
2.67537e-06
3.91677e-06
5.67515e-06
8.13837e-06
1.15508e-05
1.62257e-05
2.25586e-05
3.10413e-05
4.22748e-05
5.6981e-05
7.60122e-05
0.000100358
0.000131152
0.000169687
0.0002173
0.000275408
0.000345505
0.000429032
0.000527333
0.000641563
0.000772602
0.000920945
0.00108661
0.00126905
0.00146705
0.00167872
0.00190141
0.00213176
0.00236575
0.00259874
0.0028257
0.00304127
0.00324005
0.00341677
0.00356654
0.00368508
0.0037689
0.00381549
0.00382344
0.00379251
0.00372363
0.00361889
0.00348139
0.00331511
0.00312473
0.00291537
0.00269242
0.00246127
0.00222712
0.00199478
0.00176854
0.00155204
0.00134822
0.00115932
0.00098686
0.000831724
0.000694135
0.000573407
0.000467069
0.000369027
0.000268006
0.000153041
2.80568e-05
2.33893e-15
7.48539e-15
1.5946e-14
3.37784e-14
7.06854e-14
1.46159e-13
2.98674e-13
6.03262e-13
1.20449e-12
2.37763e-12
4.64051e-12
8.95593e-12
1.70928e-11
3.22632e-11
6.02311e-11
1.11219e-10
2.03147e-10
3.67056e-10
6.56096e-10
1.1602e-09
2.02978e-09
3.51341e-09
6.0171e-09
1.01962e-08
1.70959e-08
2.83637e-08
4.65651e-08
7.56476e-08
1.21612e-07
1.93468e-07
3.04583e-07
4.7454e-07
7.3167e-07
1.11645e-06
1.68599e-06
2.5198e-06
3.72713e-06
5.45619e-06
7.9052e-06
1.13358e-05
1.60881e-05
2.25985e-05
3.14179e-05
4.3231e-05
5.8875e-05
7.93559e-05
0.000105861
0.000139768
0.000182657
0.000236325
0.000302638
0.000383573
0.000481207
0.00059755
0.000734474
0.000893592
0.00107613
0.00128277
0.00151355
0.00176771
0.00204356
0.00233845
0.00264871
0.00296966
0.00329568
0.00362034
0.0039366
0.00423701
0.00451405
0.00476037
0.00496915
0.00513444
0.00525135
0.00531641
0.00532763
0.00528467
0.00518884
0.00504303
0.00485156
0.00461998
0.00435479
0.00406315
0.00375255
0.00343051
0.00310426
0.00278052
0.00246525
0.00216355
0.0018795
0.00161621
0.00137581
0.00115953
0.000967736
0.00079961
0.000652029
0.000516897
0.000378378
0.000219428
4.28566e-05
3.35875e-15
1.0552e-14