# vtk DataFile Version 3.0
Malha 2D com triângulos e temperatura
ASCII
DATASET UNSTRUCTURED_GRID

POINTS 10000 double
0 0 0
10 0 0
10 10 0
0 10 0
0.10101 0 0
0.20202 0 0
0.30303 0 0
0.40404 0 0
0.505051 0 0
0.606061 0 0
0.707071 0 0
0.808081 0 0
0.909091 0 0
1.0101 0 0
1.11111 0 0
1.21212 0 0
1.31313 0 0
1.41414 0 0
1.51515 0 0
1.61616 0 0
1.71717 0 0
1.81818 0 0
1.91919 0 0
2.0202 0 0
2.12121 0 0
2.22222 0 0
2.32323 0 0
2.42424 0 0
2.52525 0 0
2.62626 0 0
2.72727 0 0
2.82828 0 0
2.92929 0 0
3.0303 0 0
3.13131 0 0
3.23232 0 0
3.33333 0 0
3.43434 0 0
3.53535 0 0
3.63636 0 0
3.73737 0 0
3.83838 0 0
3.93939 0 0
4.0404 0 0
4.14141 0 0
4.24242 0 0
4.34343 0 0
4.44444 0 0
4.54545 0 0
4.64646 0 0
4.74747 0 0
4.84848 0 0
4.94949 0 0
5.05051 0 0
5.15152 0 0
5.25253 0 0
5.35354 0 0
5.45455 0 0
5.55556 0 0
5.65657 0 0
5.75758 0 0
5.85859 0 0
5.9596 0 0
6.06061 0 0
6.16162 0 0
6.26263 0 0
6.36364 0 0
6.46465 0 0
6.56566 0 0
6.66667 0 0
6.76768 0 0
6.86869 0 0
6.9697 0 0
7.07071 0 0
7.17172 0 0
7.27273 0 0
7.37374 0 0
7.47475 0 0
7.57576 0 0
7.67677 0 0
7.77778 0 0
7.87879 0 0
7.9798 0 0
8.08081 0 0
8.18182 0 0
8.28283 0 0
8.38384 0 0
8.48485 0 0
8.58586 0 0
8.68687 0 0
8.78788 0 0
8.88889 0 0
8.9899 0 0
9.09091 0 0
9.19192 0 0
9.29293 0 0
9.39394 0 0
9.49495 0 0
9.59596 0 0
9.69697 0 0
9.79798 0 0
9.89899 0 0
10 0.10101 0
10 0.20202 0
10 0.30303 0
10 0.40404 0
10 0.505051 0
10 0.606061 0
10 0.707071 0
10 0.808081 0
10 0.909091 0
10 1.0101 0
10 1.11111 0
10 1.21212 0
10 1.31313 0
10 1.41414 0
10 1.51515 0
10 1.61616 0
10 1.71717 0
10 1.81818 0
10 1.91919 0
10 2.0202 0
10 2.12121 0
10 2.22222 0
10 2.32323 0
10 2.42424 0
10 2.52525 0
10 2.62626 0
10 2.72727 0
10 2.82828 0
10 2.92929 0
10 3.0303 0
10 3.13131 0
10 3.23232 0
10 3.33333 0
10 3.43434 0
10 3.53535 0
10 3.63636 0
10 3.73737 0
10 3.83838 0
10 3.93939 0
10 4.0404 0
10 4.14141 0
10 4.24242 0
10 4.34343 0
10 4.44444 0
10 4.54545 0
10 4.64646 0
10 4.74747 0
10 4.84848 0
10 4.94949 0
10 5.05051 0
10 5.15152 0
10 5.25253 0
10 5.35354 0
10 5.45455 0
10 5.55556 0
10 5.65657 0
10 5.75758 0
10 5.85859 0
10 5.9596 0
10 6.06061 0
10 6.16162 0
10 6.26263 0
10 6.36364 0
10 6.46465 0
10 6.56566 0
10 6.66667 0
10 6.76768 0
10 6.86869 0
10 6.9697 0
10 7.07071 0
10 7.17172 0
10 7.27273 0
10 7.37374 0
10 7.47475 0
10 7.57576 0
10 7.67677 0
10 7.77778 0
10 7.87879 0
10 7.9798 0
10 8.08081 0
10 8.18182 0
10 8.28283 0
10 8.38384 0
10 8.48485 0
10 8.58586 0
10 8.68687 0
10 8.78788 0
10 8.88889 0
10 8.9899 0
10 9.09091 0
10 9.19192 0
10 9.29293 0
10 9.39394 0
10 9.49495 0
10 9.59596 0
10 9.69697 0
10 9.79798 0
10 9.89899 0
9.89899 10 0
9.79798 10 0
9.69697 10 0
9.59596 10 0
9.49495 10 0
9.39394 10 0
9.29293 10 0
9.19192 10 0
9.09091 10 0
8.9899 10 0
8.88889 10 0
8.78788 10 0
8.68687 10 0
8.58586 10 0
8.48485 10 0
8.38384 10 0
8.28283 10 0
8.18182 10 0
8.08081 10 0
7.9798 10 0
7.87879 10 0
7.77778 10 0
7.67677 10 0
7.57576 10 0
7.47475 10 0
7.37374 10 0
7.27273 10 0
7.17172 10 0
7.07071 10 0
6.9697 10 0
6.86869 10 0
6.76768 10 0
6.66667 10 0
6.56566 10 0
6.46465 10 0
6.36364 10 0
6.26263 10 0
6.16162 10 0
6.06061 10 0
5.9596 10 0
5.85859 10 0
5.75758 10 0
5.65657 10 0
5.55556 10 0
5.45455 10 0
5.35354 10 0
5.25253 10 0
5.15152 10 0
5.05051 10 0
4.94949 10 0
4.84848 10 0
4.74747 10 0
4.64646 10 0
4.54545 10 0
4.44444 10 0
4.34343 10 0
4.24242 10 0
4.14141 10 0
4.0404 10 0
3.93939 10 0
3.83838 10 0
3.73737 10 0
3.63636 10 0
3.53535 10 0
3.43434 10 0
3.33333 10 0
3.23232 10 0
3.13131 10 0
3.0303 10 0
2.92929 10 0
2.82828 10 0
2.72727 10 0
2.62626 10 0
2.52525 10 0
2.42424 10 0
2.32323 10 0
2.22222 10 0
2.12121 10 0
2.0202 10 0
1.91919 10 0
1.81818 10 0
1.71717 10 0
1.61616 10 0
1.51515 10 0
1.41414 10 0
1.31313 10 0
1.21212 10 0
1.11111 10 0
1.0101 10 0
0.909091 10 0
0.808081 10 0
0.707071 10 0
0.606061 10 0
0.505051 10 0
0.40404 10 0
0.30303 10 0
0.20202 10 0
0.10101 10 0
0 9.89899 0
0 9.79798 0
0 9.69697 0
0 9.59596 0
0 9.49495 0
0 9.39394 0
0 9.29293 0
0 9.19192 0
0 9.09091 0
0 8.9899 0
0 8.88889 0
0 8.78788 0
0 8.68687 0
0 8.58586 0
0 8.48485 0
0 8.38384 0
0 8.28283 0
0 8.18182 0
0 8.08081 0
0 7.9798 0
0 7.87879 0
0 7.77778 0
0 7.67677 0
0 7.57576 0
0 7.47475 0
0 7.37374 0
0 7.27273 0
0 7.17172 0
0 7.07071 0
0 6.9697 0
0 6.86869 0
0 6.76768 0
0 6.66667 0
0 6.56566 0
0 6.46465 0
0 6.36364 0
0 6.26263 0
0 6.16162 0
0 6.06061 0
0 5.9596 0
0 5.85859 0
0 5.75758 0
0 5.65657 0
0 5.55556 0
0 5.45455 0
0 5.35354 0
0 5.25253 0
0 5.15152 0
0 5.05051 0
0 4.94949 0
0 4.84848 0
0 4.74747 0
0 4.64646 0
0 4.54545 0
0 4.44444 0
0 4.34343 0
0 4.24242 0
0 4.14141 0
0 4.0404 0
0 3.93939 0
0 3.83838 0
0 3.73737 0
0 3.63636 0
0 3.53535 0
0 3.43434 0
0 3.33333 0
0 3.23232 0
0 3.13131 0
0 3.0303 0
0 2.92929 0
0 2.82828 0
0 2.72727 0
0 2.62626 0
0 2.52525 0
0 2.42424 0
0 2.32323 0
0 2.22222 0
0 2.12121 0
0 2.0202 0
0 1.91919 0
0 1.81818 0
0 1.71717 0
0 1.61616 0
0 1.51515 0
0 1.41414 0
0 1.31313 0
0 1.21212 0
0 1.11111 0
0 1.0101 0
0 0.909091 0
0 0.808081 0
0 0.707071 0
0 0.606061 0
0 0.505051 0
0 0.40404 0
0 0.30303 0
0 0.20202 0
0 0.10101 0
0.10101 0.10101 0
0.10101 0.20202 0
0.10101 0.30303 0
0.10101 0.40404 0
0.10101 0.505051 0
0.10101 0.606061 0
0.10101 0.707071 0
0.10101 0.808081 0
0.10101 0.909091 0
0.10101 1.0101 0
0.10101 1.11111 0
0.10101 1.21212 0
0.10101 1.31313 0
0.10101 1.41414 0
0.10101 1.51515 0
0.10101 1.61616 0
0.10101 1.71717 0
0.10101 1.81818 0
0.10101 1.91919 0
0.10101 2.0202 0
0.10101 2.12121 0
0.10101 2.22222 0
0.10101 2.32323 0
0.10101 2.42424 0
0.10101 2.52525 0
0.10101 2.62626 0
0.10101 2.72727 0
0.10101 2.82828 0
0.10101 2.92929 0
0.10101 3.0303 0
0.10101 3.13131 0
0.10101 3.23232 0
0.10101 3.33333 0
0.10101 3.43434 0
0.10101 3.53535 0
0.10101 3.63636 0
0.10101 3.73737 0
0.10101 3.83838 0
0.10101 3.93939 0
0.10101 4.0404 0
0.10101 4.14141 0
0.10101 4.24242 0
0.10101 4.34343 0
0.10101 4.44444 0
0.10101 4.54545 0
0.10101 4.64646 0
0.10101 4.74747 0
0.10101 4.84848 0
0.10101 4.94949 0
0.10101 5.05051 0
0.10101 5.15152 0
0.10101 5.25253 0
0.10101 5.35354 0
0.10101 5.45455 0
0.10101 5.55556 0
0.10101 5.65657 0
0.10101 5.75758 0
0.10101 5.85859 0
0.10101 5.9596 0
0.10101 6.06061 0
0.10101 6.16162 0
0.10101 6.26263 0
0.10101 6.36364 0
0.10101 6.46465 0
0.10101 6.56566 0
0.10101 6.66667 0
0.10101 6.76768 0
0.10101 6.86869 0
0.10101 6.9697 0
0.10101 7.07071 0
0.10101 7.17172 0
0.10101 7.27273 0
0.10101 7.37374 0
0.10101 7.47475 0
0.10101 7.57576 0
0.10101 7.67677 0
0.10101 7.77778 0
0.10101 7.87879 0
0.10101 7.9798 0
0.10101 8.08081 0
0.10101 8.18182 0
0.10101 8.28283 0
0.10101 8.38384 0
0.10101 8.48485 0
0.10101 8.58586 0
0.10101 8.68687 0
0.10101 8.78788 0
0.10101 8.88889 0
0.10101 8.9899 0
0.10101 9.09091 0
0.10101 9.19192 0
0.10101 9.29293 0
0.10101 9.39394 0
0.10101 9.49495 0
0.10101 9.59596 0
0.10101 9.69697 0
0.10101 9.79798 0
0.10101 9.89899 0
0.20202 0.10101 0
0.20202 0.20202 0
0.20202 0.30303 0
0.20202 0.40404 0
0.20202 0.505051 0
0.20202 0.606061 0
0.20202 0.707071 0
0.20202 0.808081 0
0.20202 0.909091 0
0.20202 1.0101 0
0.20202 1.11111 0
0.20202 1.21212 0
0.20202 1.31313 0
0.20202 1.41414 0
0.20202 1.51515 0
0.20202 1.61616 0
0.20202 1.71717 0
0.20202 1.81818 0
0.20202 1.91919 0
0.20202 2.0202 0
0.20202 2.12121 0
0.20202 2.22222 0
0.20202 2.32323 0
0.20202 2.42424 0
0.20202 2.52525 0
0.20202 2.62626 0
0.20202 2.72727 0
0.20202 2.82828 0
0.20202 2.92929 0
0.20202 3.0303 0
0.20202 3.13131 0
0.20202 3.23232 0
0.20202 3.33333 0
0.20202 3.43434 0
0.20202 3.53535 0
0.20202 3.63636 0
0.20202 3.73737 0
0.20202 3.83838 0
0.20202 3.93939 0
0.20202 4.0404 0
0.20202 4.14141 0
0.20202 4.24242 0
0.20202 4.34343 0
0.20202 4.44444 0
0.20202 4.54545 0
0.20202 4.64646 0
0.20202 4.74747 0
0.20202 4.84848 0
0.20202 4.94949 0
0.20202 5.05051 0
0.20202 5.15152 0
0.20202 5.25253 0
0.20202 5.35354 0
0.20202 5.45455 0
0.20202 5.55556 0
0.20202 5.65657 0
0.20202 5.75758 0
0.20202 5.85859 0
0.20202 5.9596 0
0.20202 6.06061 0
0.20202 6.16162 0
0.20202 6.26263 0
0.20202 6.36364 0
0.20202 6.46465 0
0.20202 6.56566 0
0.20202 6.66667 0
0.20202 6.76768 0
0.20202 6.86869 0
0.20202 6.9697 0
0.20202 7.07071 0
0.20202 7.17172 0
0.20202 7.27273 0
0.20202 7.37374 0
0.20202 7.47475 0
0.20202 7.57576 0
0.20202 7.67677 0
0.20202 7.77778 0
0.20202 7.87879 0
0.20202 7.9798 0
0.20202 8.08081 0
0.20202 8.18182 0
0.20202 8.28283 0
0.20202 8.38384 0
0.20202 8.48485 0
0.20202 8.58586 0
0.20202 8.68687 0
0.20202 8.78788 0
0.20202 8.88889 0
0.20202 8.9899 0
0.20202 9.09091 0
0.20202 9.19192 0
0.20202 9.29293 0
0.20202 9.39394 0
0.20202 9.49495 0
0.20202 9.59596 0
0.20202 9.69697 0
0.20202 9.79798 0
0.20202 9.89899 0
0.30303 0.10101 0
0.30303 0.20202 0
0.30303 0.30303 0
0.30303 0.40404 0
0.30303 0.505051 0
0.30303 0.606061 0
0.30303 0.707071 0
0.30303 0.808081 0
0.30303 0.909091 0
0.30303 1.0101 0
0.30303 1.11111 0
0.30303 1.21212 0
0.30303 1.31313 0
0.30303 1.41414 0
0.30303 1.51515 0
0.30303 1.61616 0
0.30303 1.71717 0
0.30303 1.81818 0
0.30303 1.91919 0
0.30303 2.0202 0
0.30303 2.12121 0
0.30303 2.22222 0
0.30303 2.32323 0
0.30303 2.42424 0
0.30303 2.52525 0
0.30303 2.62626 0
0.30303 2.72727 0
0.30303 2.82828 0
0.30303 2.92929 0
0.30303 3.0303 0
0.30303 3.13131 0
0.30303 3.23232 0
0.30303 3.33333 0
0.30303 3.43434 0
0.30303 3.53535 0
0.30303 3.63636 0
0.30303 3.73737 0
0.30303 3.83838 0
0.30303 3.93939 0
0.30303 4.0404 0
0.30303 4.14141 0
0.30303 4.24242 0
0.30303 4.34343 0
0.30303 4.44444 0
0.30303 4.54545 0
0.30303 4.64646 0
0.30303 4.74747 0
0.30303 4.84848 0
0.30303 4.94949 0
0.30303 5.05051 0
0.30303 5.15152 0
0.30303 5.25253 0
0.30303 5.35354 0
0.30303 5.45455 0
0.30303 5.55556 0
0.30303 5.65657 0
0.30303 5.75758 0
0.30303 5.85859 0
0.30303 5.9596 0
0.30303 6.06061 0
0.30303 6.16162 0
0.30303 6.26263 0
0.30303 6.36364 0
0.30303 6.46465 0
0.30303 6.56566 0
0.30303 6.66667 0
0.30303 6.76768 0
0.30303 6.86869 0
0.30303 6.9697 0
0.30303 7.07071 0
0.30303 7.17172 0
0.30303 7.27273 0
0.30303 7.37374 0
0.30303 7.47475 0
0.30303 7.57576 0
0.30303 7.67677 0
0.30303 7.77778 0
0.30303 7.87879 0
0.30303 7.9798 0
0.30303 8.08081 0
[...]
CELL_DATA 9801
SCALARS Temperatura double 1
LOOKUP_TABLE default
9.4373e-10
1.09892e-09
1.11394e-10
-3.24437e-09
-1.00181e-08
-1.94632e-08
-2.64295e-08
-1.86287e-08
2.37351e-08
1.21824e-07
2.81019e-07
4.61315e-07
5.42017e-07
3.00662e-07
-5.60051e-07
-2.29832e-06
-4.90897e-06
-7.81173e-06
-9.54994e-06
-7.67971e-06
9.21815e-07
1.91378e-05
4.80497e-05
8.49736e-05
0.000121659
0.000143453
0.000130258
5.9794e-05
-8.69516e-05
-0.00031898
-0.000628875
-0.000988684
-0.00134978
-0.00164756
-0.00181069
-0.00177319
-0.00148691
-0.000931731
-0.000121069
0.000898243
0.00205177
0.00324759
0.00438857
0.00538472
0.00616335
0.00667607
0.00690186
0.00684662
0.00653997
0.0060305
0.00538179
0.00474822
0.00412409
0.00352688
0.00296707
0.00245292
0.00198986
0.00158088
0.00122673
0.000926335
0.000677078
0.000475196
0.000316091
0.000194636
0.000105448
4.31299e-05
2.469e-06
-2.13963e-05
-3.28461e-05
-3.5685e-05
-3.3083e-05
-2.75534e-05
-2.09656e-05
-1.45923e-05
-9.18482e-06
-5.07215e-06
-2.2713e-06
-5.99785e-07
2.22394e-07
4.9058e-07
4.59265e-07
3.13295e-07
1.63116e-07
5.70391e-08
1.88319e-09
-1.5972e-08
-1.45899e-08
-7.67095e-09
-2.13625e-09
3.76777e-10
7.89173e-10
4.33307e-10
9.35131e-11
-3.52944e-11
-3.55492e-11
-1.02166e-11
1.33657e-12
1.79821e-12
2.61373e-13
3.8256e-11
-3.77556e-09
-9.91262e-09
-1.73863e-08
-2.00228e-08
-4.86951e-09
4.66291e-08
1.49548e-07
2.94405e-07
4.14872e-07
3.56214e-07
-1.2747e-07
-1.3052e-06
-3.29001e-06
-5.74231e-06
-7.52472e-06
-6.48346e-06
3.72352e-07
1.60061e-05
4.16542e-05
7.44704e-05
0.000105165
0.000116743
8.56479e-05
-1.36818e-05
-0.000200705
-0.000478339
-0.000822781
-0.00117705
-0.00145157
-0.00153363
-0.00130529
-0.000666568
0.000441432
0.00201913
0.0040017
0.00626493
0.00864278
0.0109524
0.0130214
0.014711
0.0159311
0.0166462
0.0168708
0.0166581
0.0160856
0.0152401
0.0142051
0.0130523
0.0118384
0.0106083
0.00939626
0.00822284
0.0071083
0.00606763
0.00511158
0.00424687
0.00347664
0.00280096
0.00221737
0.00172134
0.00130687
0.000966837
0.000693484
0.000478716
0.000314412
0.00019265
0.000105906
4.71946e-05
1.01934e-05
-1.06749e-05
-2.01818e-05
-2.22641e-05
-2.00251e-05
-1.57708e-05
-1.10801e-05
-6.90549e-06
-3.69932e-06
-1.5509e-06
-3.22696e-07
2.29755e-07
3.65548e-07
2.99592e-07
1.76892e-07
7.33422e-08
1.27871e-08
-1.05106e-08
-1.24497e-08
-7.0621e-09
-2.0982e-09
2.46113e-10
6.47432e-10
3.42278e-10
6.09009e-11
-3.30521e-11
-2.54096e-11
-5.05193e-12
1.65518e-12
1.01488e-12
-6.89006e-09
-1.57631e-08
-2.01333e-08
-9.38009e-09
3.56124e-08
1.32749e-07
2.77612e-07
4.0815e-07
3.6672e-07
-1.094e-07
-1.31842e-06
-3.39227e-06
-5.9469e-06
-7.6633e-06
-6.01984e-06
2.4649e-06
2.10846e-05
5.06808e-05
8.65192e-05
0.00011526
0.000113669
5.10132e-05
-0.000103385
-0.000367419
-0.000730458
-0.001139
-0.00148942
-0.00163292
-0.00139511
-0.000608152
0.000851035
0.00302638
0.00586186
0.00920122
0.0128093
0.0164102
0.0197324
0.0225504
0.0247128
0.0261531
0.0268827
0.0269715
0.0265236
0.0256533
0.024468
0.0230588
0.0214981
0.0198424
0.0181366
0.0164183
0.0147168
0.0130506
0.0114515
0.00994069
0.00853487
0.0072453
0.00607857
0.00503708
0.00411967
0.00332224
0.00263842
0.00206018
0.00157837
0.00118322
0.000864725
0.000612988
0.000418431
0.000271996
0.000165264
9.05456e-05
4.09361e-05
1.03595e-05
-6.40734e-06
-1.3723e-05
-1.50896e-05
-1.31842e-05
-9.91903e-06
-6.53221e-06
-3.70502e-06
-1.69763e-06
-4.89084e-07
9.36763e-08
2.71571e-07
2.42761e-07
1.47245e-07
6.11558e-08
1.03119e-08
-8.75661e-09
-9.83208e-09
-5.16788e-09
-1.25084e-09
3.73313e-10
5.02881e-10
2.07152e-10
1.09702e-11
-3.06016e-11
-1.38409e-11
-5.62807e-13
1.64418e-12
-1.8534e-08
-1.49563e-08
1.64107e-08
9.53902e-08
2.27672e-07
3.70307e-07
3.89045e-07
3.44809e-08
-1.00997e-06
-2.94336e-06
-5.48897e-06
-7.42133e-06
-6.20184e-06
1.86856e-06
2.04811e-05
5.07984e-05
8.77787e-05
0.000116425
0.000110004
3.28225e-05
-0.000150321
-0.000457716
-0.000870055
-0.00131141
-0.00163981
-0.0016548
-0.00112522
0.000165469
0.00236663
0.00551467
0.00950857
0.0141158
0.0190083
0.0238204
0.0282114
0.031918
0.0347836
0.036761
0.0378924
0.0382765
0.0380356
0.0372882
0.0361354
0.0346567
0.0329146
0.0309616
0.028846
0.0266161
0.0243202
0.0220062
0.019717
0.0174943
0.0153714
0.0133736
0.0115196
0.00982194
0.00828718
0.0069169
0.00570829
0.00465504
0.00374817
0.00297676
0.00232874
0.00179143
0.00135208
0.000998242
0.000718078
0.000500519
0.000335387
0.000213449
0.000126419
6.69549e-05
2.8634e-05
5.93813e-06
-5.76617e-06
-1.02482e-05
-1.04453e-05
-8.51518e-06
-5.91506e-06
-3.50914e-06
-1.69858e-06
-5.61827e-07
1.06309e-08
2.03315e-07
1.95854e-07
1.19936e-07
4.85573e-08
6.91474e-09
-7.73305e-09
-7.70032e-09
-3.59241e-09
-5.93221e-10
4.24653e-10
3.62245e-10
1.05034e-10
-1.47399e-11
-2.21137e-11
-5.41914e-12
1.63278e-12
-9.08797e-09
5.26867e-08
1.59945e-07
3.0317e-07
3.88647e-07
2.08608e-07
-5.46652e-07
-2.15488e-06
-4.54465e-06
-6.80859e-06
-6.72449e-06
-6.8326e-07
1.54059e-05
4.37251e-05
8.06468e-05
0.000112262
0.000111504
3.99687e-05
-0.00014259
-0.00045994
-0.000894581
-0.00136314
-0.00170182
-0.00167191
-0.00099102
0.000612281
0.00333217
0.00722624
0.0121823
0.0179242
0.0240572
0.0301411
0.0357694
0.0406332
0.0445532
0.0474779
0.0494538
0.0505827
0.0509822
0.0507581
0.0499938
0.0487525
0.0470857
0.0450437
0.042681
0.0400589
0.0372432
0.0343014
0.0312988
0.028296
0.0253443
0.0224893
0.0197714
0.0172201
0.0148573
0.0126971
0.0107464
0.00900606
0.0074713
0.00613327
0.00497981
0.00399649
0.00316754
0.00247662
0.00190745
0.00144434
0.00107251
0.000778378
0.000549609
0.000375181
0.000245334
0.000151494
8.61798e-05
4.29141e-05
1.61519e-05
1.22379e-06
-5.70378e-06
-7.66408e-06
-6.93422e-06
-5.09992e-06
-3.14752e-06
-1.58214e-06
-5.62065e-07
-3.33724e-08
1.5302e-07
1.55708e-07
9.45433e-08
3.6283e-08
3.46877e-09
-6.86885e-09
-5.8155e-09
-2.28676e-09
-1.31329e-10
3.98474e-10
2.30223e-10
3.59656e-11
-2.15612e-11
-1.20603e-11
1.01811e-13
6.97867e-08
2.16567e-07
3.41556e-07
3.24482e-07
-1.02206e-07
-1.25908e-06
-3.28891e-06
-5.71848e-06
-6.90843e-06
-3.71202e-06
8.09019e-06
3.19227e-05
6.6764e-05
0.000102238
0.000114344
6.50993e-05
-9.01021e-05
-0.000384873
-0.000814913
-0.00130782
-0.00170045
-0.00173655
-0.00109403
0.0005574
0.00347911
0.00778815
0.0134079
0.0200638
0.0273281
0.0347023
0.041712
0.0479854
0.0532962
0.0575623
0.0608119
0.063133
0.0646276
0.0653814
0.0654546
0.0648874
0.0637133
0.0619707
0.0597101
0.0569951
0.0539
0.0505052
0.046893
0.0431446
0.0393373
0.0355431
0.0318231
0.0282326
0.0248205
0.0216225
0.0186649
0.0159643
0.0135285
0.0113577
0.00944513
0.00777908
0.00634364
0.00512017
0.00408836
0.00322731
0.00251627
0.00193535
0.00146596
0.00109115
0.000795701
0.000566222
0.00039104
0.000260084
0.000164708
9.75161e-05
5.21973e-05
2.33898e-05
6.58325e-06
-1.94684e-06
-5.18232e-06
-5.40084e-06
-4.22579e-06
-2.70068e-06
-1.39159e-06
-5.10922e-07
-4.71998e-08
1.18026e-07
1.22398e-07
7.20004e-08
2.52247e-08
5.11534e-10
-5.96116e-09
-4.15558e-09
-1.26793e-09
1.40648e-10
3.17144e-10
1.21107e-10
-1.46543e-12
-1.69597e-11
-3.58539e-12
2.28443e-07
3.43004e-07
1.97112e-07
-4.77192e-07
-1.96592e-06
-4.20717e-06
-6.26719e-06
-5.80273e-06
1.02051e-06
1.8454e-05
4.82876e-05
8.51224e-05
0.000111028
9.24891e-05
-1.61418e-05
-0.000258713
-0.000651528
-0.00114965
-0.00161528
-0.00180255
-0.0013725
5.56857e-05
0.00282353
0.0071427
0.0130234
0.0202477
0.0284012
0.0369543
0.0453692
0.0531976
0.0601414
0.0660629
0.0709532
0.0748757
0.0779124
0.0801269
0.0815529
0.0822006
0.0820732
0.0811822
0.0795565
0.0772457
0.0743166
0.0708502
0.0669361
0.0626696
0.0581483
0.0534692
0.0487257
0.0440056
0.0393835
0.0349269
0.0306959
0.026734
0.0230732
0.0197337
0.0167248
0.0140458
0.0116883
0.00963707
0.00787192
0.00636925
0.00510345
0.00404811
0.00317709
0.00246535
0.00188951
0.00142829
0.00106275
0.000776311
0.000554694
0.000385784
0.000259379
0.000166934
0.000101305
5.65032e-05
2.75039e-05
1.01002e-05
8.09193e-07
-3.18287e-06
-4.0558e-06
-3.39221e-06
-2.23382e-06
-1.16643e-06
-4.30221e-07
-4.14887e-08
9.41573e-08
9.50086e-08
5.26635e-08
1.59334e-08
-1.62805e-09
-4.91974e-09
-2.73364e-09
-5.41326e-10
2.49583e-10
2.11233e-10
4.50772e-11
-1.38697e-11
-9.01648e-12
3.30844e-07
4.204e-08
-8.4518e-07
-2.56006e-06
-4.81017e-06
-6.21642e-06
-3.85283e-06
6.50528e-06
2.86367e-05
6.20726e-05
9.65944e-05
0.00010702
5.21234e-05
-0.000117447
-0.000438561
-0.000902747
-0.00141815
-0.00178006
-0.00166672
-0.000673519
0.0016134
0.0055186
0.0111827
0.0185042
0.0271422
0.0365818
0.046244
0.0556016
0.0642662
0.0720211
0.0788011
0.0846361
0.0895877
0.0937015
0.0969868
0.0994205
0.100966
0.101591
0.101285
0.100061
0.0979572
0.0950355
0.0913745
0.0870683
0.0822224
0.0769506
0.0713708
0.0656014
0.0597569
0.0539448
0.0482571
0.0427768
0.0375771
0.0327115
0.0282188
0.0241235
0.0204364
0.0171566
0.0142731
0.0117669
0.00961283
0.00778155
0.00624124
0.00495912
0.00390272
0.0030409
0.0023446
0.00178734
0.00134553
0.000998575
0.000728827
0.000521409
0.000363957
0.00024631
0.000160164
9.87423e-05
5.64835e-05
2.87967e-05
1.1871e-05
2.55276e-06
-1.72272e-06
-2.96576e-06
-2.65788e-06
-1.79135e-06
-9.36589e-07
-3.3802e-07
-2.5738e-08
7.73438e-08
7.23949e-08
3.65773e-08
8.66848e-09
-2.83598e-09
-3.76582e-09
-1.58494e-09
-9.17739e-11
2.40791e-10
1.11499e-10
4.09303e-12
-1.39028e-11
4.3044e-08
-1.15642e-06
-2.98382e-06
-5.09943e-06
-5.74354e-06
-1.57077e-06
1.17693e-05
3.72737e-05
7.20321e-05
0.000101256
9.35981e-05
2.38781e-06
-0.000221967
-0.000605321
-0.0011113
-0.00160116
-0.0018087
-0.00134862
0.000231182
0.00335737
0.00832186
0.0151903
0.0237627
0.0336052
0.0441444
0.0547939
0.0650688
0.0746529
0.0834032
0.0913038
0.0983958
0.104715
0.110258
0.114974
0.118785
0.121607
0.12337
0.124031
0.123578
0.122025
0.119416
0.115821
0.111329
0.106054
0.100122
0.0936717
0.0868481
0.0797961
0.0726561
0.0655595
0.0586193
0.0519368
0.0456003
0.0396747
0.0342069
0.0292259
0.0247444
0.0207609
0.0172613
0.0142222
0.0116125
0.00939614
0.00753423
0.00598662
0.00471357
0.00367698
0.00284123
0.00217384
0.00164583
0.00123184
0.000910107
0.000662315
0.000473296
0.000330686
0.000224536
0.000146905
9.14646e-05
5.3147e-05
2.78459e-05
1.21939e-05
3.41326e-06
-7.65385e-07
-2.1386e-06
-2.04668e-06
-1.39833e-06
-7.21977e-07
-2.47522e-07
-7.30248e-09
6.43222e-08
5.35736e-08
2.36542e-08
3.4683e-09
-3.17615e-09
-2.59852e-09
-7.42048e-10
1.22367e-10
1.69154e-10
3.9779e-11
-1.38859e-11
-1.01229e-06
-3.24804e-06
-5.13866e-06
-5.08053e-06
5.55332e-07
1.60651e-05
4.35885e-05
7.79993e-05
0.000100707
7.5678e-05
-4.70834e-05
-0.000315155
-0.000742043
-0.00126457
-0.0017021
-0.0017369
-0.000934096
0.0011903
0.00506338
0.0109405
0.0188211
0.0284293
0.0392711
0.0507502
0.0623025
0.0735014
0.0841029
0.094025
0.103282
0.111909
0.119906
0.127214
0.133727
0.139309
0.143828
0.147168
0.149244
0.150002
0.149422
0.147518
0.144337
0.139959
0.134495
0.128081
0.120873
0.113041
0.104762
0.0962118
0.0875615
0.0789702
0.0705751
0.0624984
0.0548454
0.0476936
0.0410988
0.0350951
0.0296969
0.0249015
0.0206914
0.0170375
0.013902
0.0112411
0.00900759
0.00715283
0.00562889
0.00438975
0.00339242
0.00259766
0.00197041
0.00147993
0.00109979
0.00080766
0.000585022
0.000416781
0.000290833
0.000197621
0.000129675
8.11846e-05
4.76047e-05
2.53335e-05
1.14594e-05
3.59427e-06
-2.19278e-07
-1.54408e-06
-1.5577e-06
-1.06467e-06
-5.33777e-07
-1.67179e-07
8.89445e-09
5.29258e-08
3.78976e-08
1.3751e-08
1.91033e-10
-2.84598e-09
-1.54988e-09
-2.1004e-10
1.67274e-10
8.59709e-11
-3.71157e-12
-2.84587e-06
-5.05844e-06
-4.43111e-06
2.16697e-06
1.89509e-05
4.73278e-05
8.04873e-05
9.71134e-05
5.80539e-05
-8.8367e-05
-0.000386857
-0.000839742
-0.00136149
-0.00173808
-0.00161223
-0.000513094
0.00206377
0.00654075
0.0131415
0.0218157
0.032237
0.0438812
0.056156
0.0685375
0.0806637
0.0923576
0.103587
0.114384
0.124771
0.134709
0.14409
0.152749
0.160498
0.16715
0.172535
0.176515
0.178981
0.179866
0.179139
0.176815
0.172951
0.167646
0.161037
0.153289
0.144595
0.13516
0.125198
0.114921
0.104535
0.0942293
0.0841688
0.0744989
0.0653435
0.0567943
0.0489166
0.0417498
0.0353102
0.0295931
0.0245768
0.0202256
0.0164939
0.0133287
0.0106734
0.00846972
0.00666037
0.00519037
0.00400849
0.00306794
0.00232694
0.00174883
0.001302
0.000959723
0.000699716
0.000503764
0.000357217
0.000248501
0.000168622
0.000110685
6.94417e-05
4.08869e-05
2.19166e-05
1.00634e-05
3.31752e-06
2.80306e-08
-1.13351e-06
-1.1759e-06
-7.90407e-07
-3.76706e-07
-1.01473e-07
2.01765e-08
4.20699e-08
2.5055e-08
6.67053e-09
-1.45651e-09
-2.12169e-09
-7.36365e-10
4.86645e-11
1.21235e-10
1.99011e-11
-4.61312e-06
-3.98528e-06
3.07851e-06
2.02679e-05
4.85909e-05
8.02559e-05
9.24311e-05
4.43294e-05
-0.000116294
-0.000431611
-0.000895814
-0.00140773
-0.00173039
-0.00147969
-0.00016086
0.00274334
0.00765106
0.0147646
0.0240031
0.0350145
0.0472687
0.060196
0.0733225
0.0863503
0.0991641
0.111773
0.124225
0.136526
0.148607
0.160311
0.171426
0.181708
0.190913
0.198811
0.205199
0.209906
0.2128
0.213796
0.212862
0.210016
0.205334
0.198938
0.190996
0.181711
0.171312
0.160046
0.148169
0.135933
0.123581
0.111338
0.099399
0.0879345
0.0770892
0.06697
0.0576527
0.0491823
0.0415765
0.0348284
0.028911
0.0237813
0.0193841
0.0156564
0.0125307
0.00993793
0.00781006
0.00608216
0.00469371
0.00358959
0.00272056
0.00204347
0.00152111
0.00112198
0.000819743
0.000592816
0.000423749
0.000298689
0.000206833
0.000139905
9.16671e-05
5.74671e-05
3.38363e-05
1.81478e-05
8.34993e-06
2.78417e-06
8.48156e-08
-8.55041e-07
-8.80788e-07
-5.70271e-07
-2.51252e-07
-5.19e-08
2.56988e-08
3.15501e-08
1.49562e-08
2.12323e-09
-1.88487e-09
-1.29313e-09
-2.17531e-10
1.12076e-10
5.43293e-11
-4.42115e-06
3.24429e-06
2.00795e-05
4.76571e-05
7.79955e-05
8.79551e-05
3.64577e-05
-0.000128606
-0.000447968
-0.000911818
-0.00141124
-0.00169753
-0.00137232
7.24804e-05
0.00316209
0.00831411
0.0157223
0.0252947
0.0366756
0.049347
0.062774
0.0765356
0.0903956
0.104295
0.118282
0.132417
0.146703
0.161043
0.175245
0.189052
0.202172
0.214301
0.225147
0.234436
0.241922
0.247401
0.250721
0.251785
0.250561
0.24708
0.241437
0.233784
0.224322
0.213294
0.200973
0.187651
0.173628
0.159201
0.144656
0.130254
0.116224
0.102766
0.0900451
0.078186
0.0672751
0.0573633
0.0484694
0.0405837
0.0336732
0.0276861
0.022557
0.0182112
0.014569
0.0115492
0.00907194
0.00706114
0.00544601
0.00416215
0.00315214
0.0023657
0.00175957
0.00129706
0.000947557
0.000685899
0.000491689
0.00034866
0.000244047
0.000168013
0.000113119
7.38426e-05
4.61414e-05
2.70679e-05
1.44401e-05
6.58348e-06
2.15387e-06
4.0565e-08
-6.63273e-07
-6.52333e-07
-3.97071e-07
-1.5545e-07
-1.78746e-08
2.59585e-08
2.17444e-08
7.56839e-09
-3.09054e-10
-1.56656e-09
-5.95555e-10
2.46188e-11
8.78855e-11
2.13109e-07
1.87054e-05
4.48713e-05
7.4178e-05
8.419e-05
3.47523e-05
-0.000125598
-0.000437509
-0.00089159
-0.00137929
-0.00165133
-0.00130715
0.000165156
0.00329539
0.00850556
0.0159939
0.0256755
0.0372086
0.0501017
0.0638599
0.0781148
0.0926873
0.107571
0.122851
0.138611
0.154853
0.171468
0.188242
0.204882
0.221052
0.236396
0.250557
0.263188
0.273966
0.282607
0.288875
0.2926
0.293677
0.292079
0.287852
0.281111
0.272039
0.260875
0.247906
0.23345
0.217851
0.201457
0.184615
0.167655
0.15088
0.134556
0.118912
0.104139
0.0903769
0.0777255
0.0662412
0.0559436
0.0468197
0.0388293
0.0319111
0.0259878
0.0209721
0.0167707
0.0132891
0.0104343
0.00811814
0.00625845
0.00478071
0.00361856
0.00271397
0.00201705
0.00148559
0.00108439
0.000784491
0.000562447
0.000399496
0.000280856
0.000195063
0.000133377
8.92696e-05
5.79614e-05
3.60147e-05
2.09748e-05
1.10647e-05
4.94307e-06
1.53832e-06
-3.98176e-08
-5.23728e-07
-4.74088e-07
-2.63658e-07
-8.60579e-08
2.5523e-09
2.23104e-08
1.3286e-08
2.75489e-09
-1.17314e-09
-9.55992e-10
-1.55111e-10
9.99902e-11
1.11923e-05
4.09416e-05
6.90364e-05
8.09609e-05
3.81955e-05
-0.000109529
-0.000403938
-0.000840076
-0.00131728
-0.0015962
-0.00128546
0.000121645
0.00315628
0.00824942
0.0156155
0.0251922
0.0366665
0.0495823
0.0634875
0.0780624
0.0931792
0.10888
0.12529
0.14252
0.160588
0.179386
0.198689
0.218183
0.237499
0.256235
0.273977
0.290308
0.304827
0.317163
0.326992
0.334054
0.338159
0.339198
0.337147
0.332066
0.324096
0.313451
0.300412
0.285311
0.26852
0.250435
0.231458
0.211989
0.192406
0.173058
0.15425
0.136243
0.119253
0.10344
0.0889136
0.0757377
0.0639318
0.0534788
0.0443306
0.0364151
0.0296423
0.0239106
0.0191124
0.0151383
0.0118816
0.00924052
0.00712097
0.00543744
0.00411393
0.00308405
0.00229083
0.0016861
0.00122975
0.000888852
0.00063674
0.000452092
0.000318081
0.000221609
0.000152629
0.000103569
6.88352e-05
4.43852e-05
2.73606e-05
1.57613e-05
8.16962e-06
3.53116e-06
1.00453e-06
-1.15566e-07
-4.13577e-07
-3.34141e-07
-1.63759e-07
-3.9209e-08
1.21519e-08
1.65145e-08
6.75389e-09
1.69386e-10
-1.0866e-09
-3.99327e-10
6.67284e-11
2.83268e-05
6.3344e-05
7.76151e-05
4.48993e-05
-8.3974e-05
-0.000352373
-0.000762853
-0.00122895
-0.00153054
-0.00129604
-3.28891e-05
0.0027874
0.00760765
0.0146679
0.0239412
0.0351551
0.0478952
0.0617516
0.0764475
0.0918997
0.108194
0.125499
0.143961
0.163624
0.184398
0.206063
0.2283
0.25072
0.27289
0.294347
0.314614
0.333215
0.349695
0.363636
0.374679
0.382534
0.386995
0.387946
0.385367
0.379332
0.370008
0.357645
0.342568
0.32516
0.305848
0.285084
0.263332
0.241044
0.218653
0.196555
0.175096
0.154571
0.135222
0.117229
0.100713
0.0857438
0.072341
0.0604826
0.0501115
0.0411438
0.0334756
0.0269902
0.0215642
0.0170729
0.0133944
0.0104129
0.00802132
0.00612266
0.00463067
0.00347015
0.00257659
0.00189554
0.00138171
0.000997966
0.000714278
0.000506667
0.000356225
0.000248223
0.000171334
0.000116967
7.8716e-05
5.19012e-05
3.31849e-05
2.02445e-05
1.14873e-05
5.80693e-06
2.38968e-06
5.83329e-07
-1.66036e-07
-3.20032e-07
-2.24671e-07
-9.20397e-08
-1.07223e-08
1.40886e-08
1.03213e-08
2.43088e-09
-7.56015e-10
-6.26915e-10
-2.82659e-11
4.81673e-05
7.43606e-05
5.25207e-05
-5.3177e-05
-0.000288795
-0.000666067
-0.00111735
-0.0014494
-0.00132006
-0.000259953
0.00225121
0.00666849
0.0132639
0.022056
0.0328217
0.0451932
0.0588008
0.0734034
0.0889537
0.105577
0.123483
0.142863
0.1638
0.186237
0.209976
0.234709
0.260046
0.285537
0.310687
0.334971
0.357851
0.378791
0.397283
0.412864
0.425136
0.433779
0.438569
0.439381
0.436199
0.429114
0.418319
0.404105
0.386843
0.366971
0.344975
0.321369
0.296677
0.271411
0.246058
0.221064
0.196817
0.17365
0.151829
0.131554
0.11296
0.0961193
0.0810523
0.0677309
0.0560884
0.0460282
0.0374313
0.0301651
0.0240896
0.0190637
0.0149496
0.011617
0.00894522
0.00682522
0.00516012
0.00386554
0.00286918
0.00211004
0.00153745
0.00110991
0.0007939
0.000562686
0.000395227
0.000275151
0.000189869
0.000129815
8.78158e-05
5.85794e-05
3.82822e-05
2.4233e-05
1.45896e-05
8.11405e-06
3.96252e-06
1.51795e-06
2.79561e-07
-1.85299e-07
-2.37712e-07
-1.4081e-07
-4.37862e-08
3.74397e-09
1.15306e-08
5.11462e-09
1.78343e-10
-7.14109e-10
-1.8079e-10
6.38539e-05
5.9959e-05
-2.15737e-05
-0.00021953
-0.000556473
-0.00098603
-0.00134749
-0.00133633
-0.000515524
0.00161988
0.00553454
0.0115354
0.0196934
0.0298424
0.0416646
0.054828
0.0691197
0.084518
0.10118
0.119357
0.139287
0.161105
0.184799
0.210214
0.237067
0.264986
0.293524
0.322174
0.350381
0.377557
0.403103
0.426424
0.446959
0.464197
0.477698
0.487112
0.492194
0.49281
0.48895
0.480722
0.468352
0.452171
0.4326
0.410136
0.385326
0.358749
0.330991
0.302626
0.274199
0.246203
0.219074
0.193178
0.16881
0.146186
0.125455
0.106694
0.0899216
0.075103
0.0621612
0.0509857
0.0414422
0.033381
0.026645
0.021076
0.0165201
0.0128317
0.00987631
0.00753252
0.00569262
0.00426285
0.00316297
0.00232532
0.00169375
0.00122232
0.000873934
0.000619072
0.000434508
0.000302209
0.000208329
0.000142356
9.63973e-05
6.46004e-05
4.26944e-05
2.76283e-05
1.72834e-05
1.02344e-05
5.54359e-06
2.58206e-06
8.8899e-07
8.1741e-08
-1.76782e-07
-1.65849e-07
-7.93356e-08
-1.44991e-08
8.52885e-09
7.26582e-09
1.65536e-09
-5.32324e-10
-3.56825e-10
6.62934e-05
7.7756e-06
-0.000150889
-0.000441322
-0.000839964
-0.00122169
-0.00132609
-0.000757235
0.000965801
0.00431155
0.00962109
0.0170214
0.0264092
0.0375199
0.0500576
0.0638296
0.0788294
0.0952354
0.113335
0.133416
0.155673
0.180153