# vtk DataFile Version 3.0
Malha 2D com triângulos e temperatura
ASCII
DATASET UNSTRUCTURED_GRID

POINTS 10000 double
0 0 0
10 0 0
10 10 0
0 10 0
0.10101 0 0
0.20202 0 0
0.30303 0 0
0.40404 0 0
0.505051 0 0
0.606061 0 0
0.707071 0 0
0.808081 0 0
0.909091 0 0
1.0101 0 0
1.11111 0 0
1.21212 0 0
1.31313 0 0
1.41414 0 0
1.51515 0 0
1.61616 0 0
1.71717 0 0
1.81818 0 0
1.91919 0 0
2.0202 0 0
2.12121 0 0
2.22222 0 0
2.32323 0 0
2.42424 0 0
2.52525 0 0
2.62626 0 0
2.72727 0 0
2.82828 0 0
2.92929 0 0
3.0303 0 0
3.13131 0 0
3.23232 0 0
3.33333 0 0
3.43434 0 0
3.53535 0 0
3.63636 0 0
3.73737 0 0
3.83838 0 0
3.93939 0 0
4.0404 0 0
4.14141 0 0
4.24242 0 0
4.34343 0 0
4.44444 0 0
4.54545 0 0
4.64646 0 0
4.74747 0 0
4.84848 0 0
4.94949 0 0
5.05051 0 0
5.15152 0 0
5.25253 0 0
5.35354 0 0
5.45455 0 0
5.55556 0 0
5.65657 0 0
5.75758 0 0
5.85859 0 0
5.9596 0 0
6.06061 0 0
6.16162 0 0
6.26263 0 0
6.36364 0 0
6.46465 0 0
6.56566 0 0
6.66667 0 0
6.76768 0 0
6.86869 0 0
6.9697 0 0
7.07071 0 0
7.17172 0 0
7.27273 0 0
7.37374 0 0
7.47475 0 0
7.57576 0 0
7.67677 0 0
7.77778 0 0
7.87879 0 0
7.9798 0 0
8.08081 0 0
8.18182 0 0
8.28283 0 0
8.38384 0 0
8.48485 0 0
8.58586 0 0
8.68687 0 0
8.78788 0 0
8.88889 0 0
8.9899 0 0
9.09091 0 0
9.19192 0 0
9.29293 0 0
9.39394 0 0
9.49495 0 0
9.59596 0 0
9.69697 0 0
9.79798 0 0
9.89899 0 0
10 0.10101 0
10 0.20202 0
10 0.30303 0
10 0.40404 0
10 0.505051 0
10 0.606061 0
10 0.707071 0
10 0.808081 0
10 0.909091 0
10 1.0101 0
10 1.11111 0
10 1.21212 0
10 1.31313 0
10 1.41414 0
10 1.51515 0
10 1.61616 0
10 1.71717 0
10 1.81818 0
10 1.91919 0
10 2.0202 0
10 2.12121 0
10 2.22222 0
10 2.32323 0
10 2.42424 0
10 2.52525 0
10 2.62626 0
10 2.72727 0
10 2.82828 0
10 2.92929 0
10 3.0303 0
10 3.13131 0
10 3.23232 0
10 3.33333 0
10 3.43434 0
10 3.53535 0
10 3.63636 0
10 3.73737 0
10 3.83838 0
10 3.93939 0
10 4.0404 0
10 4.14141 0
10 4.24242 0
10 4.34343 0
10 4.44444 0
10 4.54545 0
10 4.64646 0
10 4.74747 0
10 4.84848 0
10 4.94949 0
10 5.05051 0
10 5.15152 0
10 5.25253 0
10 5.35354 0
10 5.45455 0
10 5.55556 0
10 5.65657 0
10 5.75758 0
10 5.85859 0
10 5.9596 0
10 6.06061 0
10 6.16162 0
10 6.26263 0
10 6.36364 0
10 6.46465 0
10 6.56566 0
10 6.66667 0
10 6.76768 0
10 6.86869 0
10 6.9697 0
10 7.07071 0
10 7.17172 0
10 7.27273 0
10 7.37374 0
10 7.47475 0
10 7.57576 0
10 7.67677 0
10 7.77778 0
10 7.87879 0
10 7.9798 0
10 8.08081 0
10 8.18182 0
10 8.28283 0
10 8.38384 0
10 8.48485 0
10 8.58586 0
10 8.68687 0
10 8.78788 0
10 8.88889 0
10 8.9899 0
10 9.09091 0
10 9.19192 0
10 9.29293 0
10 9.39394 0
10 9.49495 0
10 9.59596 0
10 9.69697 0
10 9.79798 0
10 9.89899 0
9.89899 10 0
9.79798 10 0
9.69697 10 0
9.59596 10 0
9.49495 10 0
9.39394 10 0
9.29293 10 0
9.19192 10 0
9.09091 10 0
8.9899 10 0
8.88889 10 0
8.78788 10 0
8.68687 10 0
8.58586 10 0
8.48485 10 0
8.38384 10 0
8.28283 10 0
8.18182 10 0
8.08081 10 0
7.9798 10 0
7.87879 10 0
7.77778 10 0
7.67677 10 0
7.57576 10 0
7.47475 10 0
7.37374 10 0
7.27273 10 0
7.17172 10 0
7.07071 10 0
6.9697 10 0
6.86869 10 0
6.76768 10 0
6.66667 10 0
6.56566 10 0
6.46465 10 0
6.36364 10 0
6.26263 10 0
6.16162 10 0
6.06061 10 0
5.9596 10 0
5.85859 10 0
5.75758 10 0
5.65657 10 0
5.55556 10 0
5.45455 10 0
5.35354 10 0
5.25253 10 0
5.15152 10 0
5.05051 10 0
4.94949 10 0
4.84848 10 0
4.74747 10 0
4.64646 10 0
4.54545 10 0
4.44444 10 0
4.34343 10 0
4.24242 10 0
4.14141 10 0
4.0404 10 0
3.93939 10 0
3.83838 10 0
3.73737 10 0
3.63636 10 0
3.53535 10 0
3.43434 10 0
3.33333 10 0
3.23232 10 0
3.13131 10 0
3.0303 10 0
2.92929 10 0
2.82828 10 0
2.72727 10 0
2.62626 10 0
2.52525 10 0
2.42424 10 0
2.32323 10 0
2.22222 10 0
2.12121 10 0
2.0202 10 0
1.91919 10 0
1.81818 10 0
1.71717 10 0
1.61616 10 0
1.51515 10 0
1.41414 10 0
1.31313 10 0
1.21212 10 0
1.11111 10 0
1.0101 10 0
0.909091 10 0
0.808081 10 0
0.707071 10 0
0.606061 10 0
0.505051 10 0
0.40404 10 0
0.30303 10 0
0.20202 10 0
0.10101 10 0
0 9.89899 0
0 9.79798 0
0 9.69697 0
0 9.59596 0
0 9.49495 0
0 9.39394 0
0 9.29293 0
0 9.19192 0
0 9.09091 0
0 8.9899 0
0 8.88889 0
0 8.78788 0
0 8.68687 0
0 8.58586 0
0 8.48485 0
0 8.38384 0
0 8.28283 0
0 8.18182 0
0 8.08081 0
0 7.9798 0
0 7.87879 0
0 7.77778 0
0 7.67677 0
0 7.57576 0
0 7.47475 0
0 7.37374 0
0 7.27273 0
0 7.17172 0
0 7.07071 0
0 6.9697 0
0 6.86869 0
0 6.76768 0
0 6.66667 0
0 6.56566 0
0 6.46465 0
0 6.36364 0
0 6.26263 0
0 6.16162 0
0 6.06061 0
0 5.9596 0
0 5.85859 0
0 5.75758 0
0 5.65657 0
0 5.55556 0
0 5.45455 0
0 5.35354 0
0 5.25253 0
0 5.15152 0
0 5.05051 0
0 4.94949 0
0 4.84848 0
0 4.74747 0
0 4.64646 0
0 4.54545 0
0 4.44444 0
0 4.34343 0
0 4.24242 0
0 4.14141 0
0 4.0404 0
0 3.93939 0
0 3.83838 0
0 3.73737 0
0 3.63636 0
0 3.53535 0
0 3.43434 0
0 3.33333 0
0 3.23232 0
0 3.13131 0
0 3.0303 0
0 2.92929 0
0 2.82828 0
0 2.72727 0
0 2.62626 0
0 2.52525 0
0 2.42424 0
0 2.32323 0
0 2.22222 0
0 2.12121 0
0 2.0202 0
0 1.91919 0
0 1.81818 0
0 1.71717 0
0 1.61616 0
0 1.51515 0
0 1.41414 0
0 1.31313 0
0 1.21212 0
0 1.11111 0
0 1.0101 0
0 0.909091 0
0 0.808081 0
0 0.707071 0
0 0.606061 0
0 0.505051 0
0 0.40404 0
0 0.30303 0
0 0.20202 0
0 0.10101 0
0.10101 0.10101 0
0.10101 0.20202 0
0.10101 0.30303 0
0.10101 0.40404 0
0.10101 0.505051 0
0.10101 0.606061 0
0.10101 0.707071 0
0.10101 0.808081 0
0.10101 0.909091 0
0.10101 1.0101 0
0.10101 1.11111 0
0.10101 1.21212 0
0.10101 1.31313 0
0.10101 1.41414 0
0.10101 1.51515 0
0.10101 1.61616 0
0.10101 1.71717 0
0.10101 1.81818 0
0.10101 1.91919 0
0.10101 2.0202 0
0.10101 2.12121 0
0.10101 2.22222 0
0.10101 2.32323 0
0.10101 2.42424 0
0.10101 2.52525 0
0.10101 2.62626 0
0.10101 2.72727 0
0.10101 2.82828 0
0.10101 2.92929 0
0.10101 3.0303 0
0.10101 3.13131 0
0.10101 3.23232 0
0.10101 3.33333 0
0.10101 3.43434 0
0.10101 3.53535 0
0.10101 3.63636 0
0.10101 3.73737 0
0.10101 3.83838 0
0.10101 3.93939 0
0.10101 4.0404 0
0.10101 4.14141 0
0.10101 4.24242 0
0.10101 4.34343 0
0.10101 4.44444 0
0.10101 4.54545 0
0.10101 4.64646 0
0.10101 4.74747 0
0.10101 4.84848 0
0.10101 4.94949 0
0.10101 5.05051 0
0.10101 5.15152 0
0.10101 5.25253 0
0.10101 5.35354 0
0.10101 5.45455 0
0.10101 5.55556 0
0.10101 5.65657 0
0.10101 5.75758 0
0.10101 5.85859 0
0.10101 5.9596 0
0.10101 6.06061 0
0.10101 6.16162 0
0.10101 6.26263 0
0.10101 6.36364 0
0.10101 6.46465 0
0.10101 6.56566 0
0.10101 6.66667 0
0.10101 6.76768 0
0.10101 6.86869 0
0.10101 6.9697 0
0.10101 7.07071 0
0.10101 7.17172 0
0.10101 7.27273 0
0.10101 7.37374 0
0.10101 7.47475 0
0.10101 7.57576 0
0.10101 7.67677 0
0.10101 7.77778 0
0.10101 7.87879 0
0.10101 7.9798 0
0.10101 8.08081 0
0.10101 8.18182 0
0.10101 8.28283 0
0.10101 8.38384 0
0.10101 8.48485 0
0.10101 8.58586 0
0.10101 8.68687 0
0.10101 8.78788 0
0.10101 8.88889 0
0.10101 8.9899 0
0.10101 9.09091 0
0.10101 9.19192 0
0.10101 9.29293 0
0.10101 9.39394 0
0.10101 9.49495 0
0.10101 9.59596 0
0.10101 9.69697 0
0.10101 9.79798 0
0.10101 9.89899 0
0.20202 0.10101 0
0.20202 0.20202 0
0.20202 0.30303 0
0.20202 0.40404 0
0.20202 0.505051 0
0.20202 0.606061 0
0.20202 0.707071 0
0.20202 0.808081 0
0.20202 0.909091 0
0.20202 1.0101 0
0.20202 1.11111 0
0.20202 1.21212 0
0.20202 1.31313 0
0.20202 1.41414 0
0.20202 1.51515 0
0.20202 1.61616 0
0.20202 1.71717 0
0.20202 1.81818 0
0.20202 1.91919 0
0.20202 2.0202 0
0.20202 2.12121 0
0.20202 2.22222 0
0.20202 2.32323 0
0.20202 2.42424 0
0.20202 2.52525 0
0.20202 2.62626 0
0.20202 2.72727 0
0.20202 2.82828 0
0.20202 2.92929 0
0.20202 3.0303 0
0.20202 3.13131 0
0.20202 3.23232 0
0.20202 3.33333 0
0.20202 3.43434 0
0.20202 3.53535 0
0.20202 3.63636 0
0.20202 3.73737 0
0.20202 3.83838 0
0.20202 3.93939 0
0.20202 4.0404 0
0.20202 4.14141 0
0.20202 4.24242 0
0.20202 4.34343 0
0.20202 4.44444 0
0.20202 4.54545 0
0.20202 4.64646 0
0.20202 4.74747 0
0.20202 4.84848 0
0.20202 4.94949 0
0.20202 5.05051 0
0.20202 5.15152 0
0.20202 5.25253 0
0.20202 5.35354 0
0.20202 5.45455 0
0.20202 5.55556 0
0.20202 5.65657 0
0.20202 5.75758 0
0.20202 5.85859 0
0.20202 5.9596 0
0.20202 6.06061 0
0.20202 6.16162 0
0.20202 6.26263 0
0.20202 6.36364 0
0.20202 6.46465 0
0.20202 6.56566 0
0.20202 6.66667 0
0.20202 6.76768 0
0.20202 6.86869 0
0.20202 6.9697 0
0.20202 7.07071 0
0.20202 7.17172 0
0.20202 7.27273 0
0.20202 7.37374 0
0.20202 7.47475 0
0.20202 7.57576 0
0.20202 7.67677 0
0.20202 7.77778 0
0.20202 7.87879 0
0.20202 7.9798 0
0.20202 8.08081 0
0.20202 8.18182 0
0.20202 8.28283 0
0.20202 8.38384 0
0.20202 8.48485 0
0.20202 8.58586 0
0.20202 8.68687 0
0.20202 8.78788 0
0.20202 8.88889 0
0.20202 8.9899 0
0.20202 9.09091 0
0.20202 9.19192 0
0.20202 9.29293 0
0.20202 9.39394 0
0.20202 9.49495 0
0.20202 9.59596 0
0.20202 9.69697 0
0.20202 9.79798 0
0.20202 9.89899 0
0.30303 0.10101 0
0.30303 0.20202 0
0.30303 0.30303 0
0.30303 0.40404 0
0.30303 0.505051 0
0.30303 0.606061 0
0.30303 0.707071 0
0.30303 0.808081 0
0.30303 0.909091 0
0.30303 1.0101 0
0.30303 1.11111 0
0.30303 1.21212 0
0.30303 1.31313 0
0.30303 1.41414 0
0.30303 1.51515 0
0.30303 1.61616 0
0.30303 1.71717 0
0.30303 1.81818 0
0.30303 1.91919 0
0.30303 2.0202 0
0.30303 2.12121 0
0.30303 2.22222 0
0.30303 2.32323 0
0.30303 2.42424 0
0.30303 2.52525 0
0.30303 2.62626 0
0.30303 2.72727 0
0.30303 2.82828 0
0.30303 2.92929 0
0.30303 3.0303 0
0.30303 3.13131 0
0.30303 3.23232 0
0.30303 3.33333 0
0.30303 3.43434 0
0.30303 3.53535 0
0.30303 3.63636 0
0.30303 3.73737 0
0.30303 3.83838 0
0.30303 3.93939 0
0.30303 4.0404 0
0.30303 4.14141 0
0.30303 4.24242 0
0.30303 4.34343 0
0.30303 4.44444 0
0.30303 4.54545 0
0.30303 4.64646 0
0.30303 4.74747 0
0.30303 4.84848 0
0.30303 4.94949 0
0.30303 5.05051 0
0.30303 5.15152 0
0.30303 5.25253 0
0.30303 5.35354 0
0.30303 5.45455 0
0.30303 5.55556 0
0.30303 5.65657 0
0.30303 5.75758 0
0.30303 5.85859 0
0.30303 5.9596 0
0.30303 6.06061 0
0.30303 6.16162 0
0.30303 6.26263 0
0.30303 6.36364 0
0.30303 6.46465 0
0.30303 6.56566 0
0.30303 6.66667 0
0.30303 6.76768 0
0.30303 6.86869 0
0.30303 6.9697 0
0.30303 7.07071 0
0.30303 7.17172 0
0.30303 7.27273 0
0.30303 7.37374 0
0.30303 7.47475 0
0.30303 7.57576 0
0.30303 7.67677 0
0.30303 7.77778 0
0.30303 7.87879 0
0.30303 7.9798 0
0.30303 8.08081 0
[...]
CELL_DATA 9801
SCALARS Temperatura double 1
LOOKUP_TABLE default
-2.40168e-17
-8.29096e-18
6.85889e-17
2.77397e-16
6.76862e-16
1.18964e-15
1.32848e-15
-2.21735e-16
-5.95194e-15
-1.9156e-14
-4.1555e-14
-6.71408e-14
-7.09496e-14
5.58206e-15
2.63924e-13
8.31695e-13
1.78483e-12
2.96598e-12
3.67264e-12
2.25234e-12
-4.22367e-12
-1.98318e-11
-4.86027e-11
-9.15053e-11
-1.40976e-10
-1.72984e-10
-1.3794e-10
4.62383e-11
4.93197e-10
1.33154e-09
2.66406e-09
4.49611e-09
6.63183e-09
8.54573e-09
9.24873e-09
7.1788e-09
1.55141e-10
-1.45649e-08
-4.0095e-08
-7.95845e-08
-1.35756e-07
-2.10369e-07
-3.03686e-07
-4.14061e-07
-5.37735e-07
-6.68959e-07
-8.0045e-07
-9.24176e-07
-1.03228e-06
-1.11789e-06
-1.19189e-06
-1.29272e-06
-1.43068e-06
-1.63093e-06
-1.92394e-06
-2.34572e-06
-2.93606e-06
-3.73549e-06
-4.78098e-06
-6.10017e-06
-7.70442e-06
-9.58123e-06
-1.16868e-05
-1.394e-05
-1.62196e-05
-1.83658e-05
-2.01888e-05
-2.14843e-05
-2.20568e-05
-2.17486e-05
-2.04716e-05
-1.82348e-05
-1.51631e-05
-1.1498e-05
-7.57657e-06
-3.78826e-06
-5.1277e-07
1.94787e-06
3.42804e-06
3.93091e-06
3.62271e-06
2.7869e-06
1.74932e-06
7.96352e-07
1.11808e-07
-2.47731e-07
-3.34231e-07
-2.58513e-07
-1.33471e-07
-3.3928e-08
1.4703e-08
2.28569e-08
1.33601e-08
3.43509e-09
-9.3448e-10
-1.21939e-09
-4.18287e-10
1.19114e-11
6.0305e-11
4.53935e-17
2.12131e-16
4.72845e-16
7.44421e-16
5.92762e-16
-1.02471e-15
-5.88203e-15
-1.58604e-14
-3.05302e-14
-4.17189e-14
-2.48058e-14
7.01275e-14
3.17163e-13
7.83072e-13
1.43607e-12
1.9685e-12
1.54059e-12
-1.46251e-12
-9.42144e-12
-2.47971e-11
-4.82041e-11
-7.47443e-11
-8.85849e-11
-5.68796e-11
7.40892e-11
3.75484e-10
9.18274e-10
1.7341e-09
2.74985e-09
3.69752e-09
4.01139e-09
2.73743e-09
-1.50825e-09
-1.04882e-08
-2.61597e-08
-5.03344e-08
-8.41874e-08
-1.27659e-07
-1.78831e-07
-2.33379e-07
-2.84228e-07
-3.21495e-07
-3.32784e-07
-3.0384e-07
-2.19507e-07
-6.49047e-08
1.73302e-07
5.05642e-07
9.38727e-07
1.47446e-06
2.10496e-06
2.82332e-06
3.60696e-06
4.41764e-06
5.20058e-06
5.88313e-06
6.37484e-06
6.56966e-06
6.3505e-06
5.59693e-06
4.19622e-06
2.05773e-06
-8.70033e-07
-4.58079e-06
-8.99275e-06
-1.39346e-05
-1.91393e-05
-2.42498e-05
-2.88399e-05
-3.24527e-05
-3.46564e-05
-3.51103e-05
-3.36336e-05
-3.02624e-05
-2.52781e-05
-1.9195e-05
-1.26978e-05
-6.53457e-06
-1.38203e-06
2.28527e-06
4.28719e-06
4.76097e-06
4.10339e-06
2.84636e-06
1.50475e-06
4.47342e-07
-1.66891e-07
-3.7209e-07
-3.1734e-07
-1.70117e-07
-4.56053e-08
1.51064e-08
2.46786e-08
1.3358e-08
2.66446e-09
-1.25372e-09
-1.06293e-09
-2.3364e-10
7.7226e-11
2.79851e-16
5.39896e-16
5.51526e-16
-3.67031e-16
-3.54603e-15
-1.05948e-14
-2.17349e-14
-3.17064e-14
-2.27659e-14
4.30728e-14
2.24548e-13
5.77361e-13
1.08045e-12
1.48848e-12
1.11618e-12
-1.36221e-12
-7.87911e-12
-2.03151e-11
-3.87056e-11
-5.7899e-11
-6.2787e-11
-2.33922e-11
1.07094e-10
3.8615e-10
8.60985e-10
1.52658e-09
2.26021e-09
2.73795e-09
2.34998e-09
1.44456e-10
-5.16102e-09
-1.50603e-08
-3.10037e-08
-5.40026e-08
-8.41256e-08
-1.19948e-07
-1.58044e-07
-1.92594e-07
-2.15185e-07
-2.1479e-07
-1.77889e-07
-8.86506e-08
7.09228e-08
3.20942e-07
6.83639e-07
1.18332e-06
1.8461e-06
2.69912e-06
3.76918e-06
5.08071e-06
6.64507e-06
8.46061e-06
1.05144e-05
1.277e-05
1.51655e-05
1.76096e-05
1.99784e-05
2.2115e-05
2.38312e-05
2.49139e-05
2.51351e-05
2.42692e-05
2.21147e-05
1.85219e-05
1.3425e-05
6.87453e-06
-9.34194e-07
-9.64188e-06
-1.87239e-05
-2.75128e-05
-3.52507e-05
-4.11718e-05
-4.46095e-05
-4.5114e-05
-4.25594e-05
-3.72116e-05
-2.97321e-05
-2.11001e-05
-1.24557e-05
-4.88769e-06
7.83605e-07
4.16928e-06
5.36789e-06
4.89059e-06
3.47607e-06
1.85733e-06
5.63078e-07
-1.78516e-07
-4.11884e-07
-3.35685e-07
-1.63765e-07
-3.17035e-08
2.2903e-08
2.44691e-08
1.00834e-08
5.49886e-10
-1.52805e-09
-6.7884e-10
1.96652e-11
5.00919e-16
1.33411e-16
-1.52439e-15
-5.78978e-15
-1.34949e-14
-2.24501e-14
-2.24455e-14
1.1353e-14
1.21686e-13
3.57094e-13
7.24206e-13
1.08219e-12
9.75369e-13
-5.43101e-13
-4.93462e-12
-1.37367e-11
-2.72347e-11
-4.18665e-11
-4.64016e-11
-1.79113e-11
7.9893e-11
2.91552e-10
6.52279e-10
1.15266e-09
1.68385e-09
1.96882e-09
1.49538e-09
-5.22411e-10
-5.12091e-09
-1.34695e-08
-2.66406e-08
-4.52707e-08
-6.91459e-08
-9.67652e-08
-1.24942e-07
-1.48482e-07
-1.59942e-07
-1.49427e-07
-1.04331e-07
-8.96092e-09
1.56023e-07
4.14311e-07
7.94676e-07
1.33153e-06
2.06512e-06
3.04108e-06
4.30935e-06
5.9223e-06
7.93238e-06
1.03893e-05
1.33278e-05
1.67711e-05
2.07264e-05
2.51706e-05
3.00457e-05
3.52518e-05
4.06397e-05
4.60062e-05
5.10918e-05
5.55823e-05
5.91162e-05
6.12994e-05
6.17284e-05
6.00236e-05
5.58719e-05
4.90773e-05
3.96162e-05
2.76896e-05
1.37641e-05
-1.41242e-06
-1.68302e-05
-3.12855e-05
-4.35002e-05
-5.22881e-05
-5.67484e-05
-5.64529e-05
-5.15817e-05
-4.29605e-05
-3.19672e-05
-2.03032e-05
-9.66472e-06
-1.39201e-06
3.80469e-06
5.95276e-06
5.71598e-06
4.11587e-06
2.17716e-06
6.30251e-07
-2.23783e-07
-4.59086e-07
-3.44031e-07
-1.4538e-07
-1.26177e-08
2.96979e-08
2.18935e-08
6.03096e-09
-1.04522e-09
-1.30396e-09
-2.14258e-10
-6.17143e-17
-2.47468e-15
-7.1153e-15
-1.40924e-14
-1.89663e-14
-8.0582e-15
4.62962e-14
1.83119e-13
4.28715e-13
7.32014e-13
8.4679e-13
1.81731e-13
-2.28517e-12
-7.81448e-12
-1.71029e-11
-2.85176e-11
-3.52573e-11
-2.20099e-11
3.71188e-11
1.76102e-10
4.25341e-10
7.86285e-10
1.19017e-09
1.4443e-09
1.17749e-09
-1.94605e-10
-3.4579e-09
-9.51645e-09
-1.92222e-08
-3.31217e-08
-5.11435e-08
-7.22656e-08
-9.41977e-08
-1.13094e-07
-1.2327e-07
-1.16872e-07
-8.34005e-08
-9.03556e-09
1.24279e-07
3.39943e-07
6.67889e-07
1.1457e-06
1.81951e-06
2.74448e-06
3.98484e-06
5.61336e-06
7.71015e-06
1.03608e-05
1.36539e-05
1.76775e-05
2.25038e-05
2.81934e-05
3.47882e-05
4.22929e-05
5.06691e-05
5.98233e-05
6.95962e-05
7.97528e-05
8.9974e-05
9.98526e-05
0.000108894
0.000116524
0.000122109
0.000124988
0.000124514
0.000120123
0.000111404
9.81908e-05
8.06485e-05
5.93483e-05
3.53132e-05
1.0009e-05
-1.47356e-05
-3.68959e-05
-5.44988e-05
-6.59285e-05
-7.02379e-05
-6.73946e-05
-5.8382e-05
-4.50946e-05
-3.00105e-05
-1.56908e-05
-4.22837e-06
3.19495e-06
6.49271e-06
6.53024e-06
4.70449e-06
2.41284e-06
6.22168e-07
-3.05052e-07
-5.03958e-07
-3.33854e-07
-1.13334e-07
8.8068e-09
3.29449e-08
1.66706e-08
2.02885e-09
-1.70004e-09
-7.41633e-10
-2.38951e-15
-7.46768e-15
-1.29644e-14
-1.36555e-14
5.63726e-15
7.16708e-14
2.14965e-13
4.37637e-13
6.41598e-13
5.15912e-13
-5.74308e-13
-3.57329e-12
-9.36423e-12
-1.77422e-11
-2.55102e-11
-2.38642e-11
3.94995e-12
8.25374e-11
2.3842e-10
4.84369e-10
7.91274e-10
1.04842e-09
1.0192e-09
3.06314e-10
-1.65365e-09
-5.54597e-09
-1.207e-08
-2.17675e-08
-3.48019e-08
-5.07137e-08
-6.81749e-08
-8.47448e-08
-9.66011e-08
-9.81837e-08
-8.16761e-08
-3.62537e-08
5.29371e-08
2.0605e-07
4.49994e-07
8.19978e-07
1.36103e-06
2.1294e-06
3.19372e-06
4.63586e-06
6.55129e-06
9.04877e-06
1.22492e-05
1.62837e-05
2.12898e-05
2.74084e-05
3.47623e-05
4.34629e-05
5.36014e-05
6.52248e-05
7.8328e-05
9.28386e-05
0.000108601
0.000125364
0.000142765
0.000160317
0.000177409
0.000193296
0.000207118
0.000217914
0.000224668
0.000226368
0.000222087
0.000211101
0.00019301
0.000167882
0.000136379
9.98522e-05
6.03568e-05
2.05679e-05
-1.64418e-05
-4.75596e-05
-7.00975e-05
-8.22902e-05
-8.37128e-05
-7.54905e-05
-6.01894e-05
-4.13524e-05
-2.2748e-05
-7.5219e-06
2.49149e-06
7.05871e-06
7.32837e-06
5.19534e-06
2.51805e-06
5.17762e-07
-4.18872e-07
-5.348e-07
-2.99397e-07
-7.01519e-08
2.77929e-08
3.0793e-08
9.77012e-09
-8.11403e-10
-1.57347e-09
-6.34277e-15
-1.10814e-14
-8.63955e-15
1.50654e-14
8.37909e-14
2.18821e-13
4.03498e-13
5.12547e-13
2.14373e-13
-1.09813e-12
-4.21425e-12
-9.63047e-12
-1.64512e-11
-2.0577e-11
-1.25528e-11
2.37328e-11
1.09265e-10
2.62001e-10
4.79952e-10
7.14225e-10
8.34953e-10
5.98497e-10
-3.70526e-10
-2.56656e-09
-6.54681e-09
-1.28271e-08
-2.17365e-08
-3.32478e-08
-4.67968e-08
-6.10954e-08
-7.39121e-08
-8.17708e-08
-7.94962e-08
-5.95341e-08
-1.09974e-08
8.15805e-08
2.39764e-07
4.92962e-07
8.80349e-07
1.45289e-06
2.27545e-06
3.42876e-06
5.01127e-06
7.14059e-06
9.95414e-06
1.36091e-05
1.8281e-05
2.41609e-05
3.1452e-05
4.03639e-05
5.10855e-05
6.37938e-05
7.86439e-05
9.57378e-05
0.000115114
0.000136731
0.000160445
0.000185994
0.00021298
0.000240849
0.000268884
0.00029619
0.000321698
0.000344169
0.000362224
0.00037439
0.000379176
0.000375182
0.000361246
0.000336634
0.000301238
0.000255789
0.000202016
0.000142721
8.16945e-05
2.34369e-05
-2.73459e-05
-6.64269e-05
-9.08272e-05
-9.94928e-05
-9.36749e-05
-7.68272e-05
-5.39475e-05
-3.04621e-05
-1.09455e-05
1.91578e-06
7.74017e-06
8.09437e-06
5.52892e-06
2.44754e-06
3.09137e-07
-5.48553e-07
-5.35559e-07
-2.38356e-07
-2.2626e-08
3.89256e-08
2.31392e-08
3.19683e-09
-2.36629e-09
-9.21924e-15
-5.11251e-15
1.92697e-14
8.39945e-14
2.03054e-13
3.49386e-13
3.90476e-13
8.05587e-15
-1.33802e-12
-4.2719e-12
-8.99621e-12
-1.42366e-11
-1.56457e-11
-4.14492e-12
3.45719e-11
1.17316e-10
2.54951e-10
4.36266e-10
6.04311e-10
6.29031e-10
2.84333e-10
-7.59086e-10
-2.91387e-09
-6.62235e-09
-1.22701e-08
-2.0076e-08
-2.99692e-08
-4.14576e-08
-5.34728e-08
-6.41526e-08
-7.05031e-08
-6.78686e-08
-4.915e-08
-3.72519e-09
8.39478e-08
2.36049e-07
4.83428e-07
8.67946e-07
1.44509e-06
2.28682e-06
3.48452e-06
5.15196e-06
7.42786e-06
1.0478e-05
1.44962e-05
1.97044e-05
2.63509e-05
3.47067e-05
4.50608e-05
5.77134e-05
7.29386e-05
9.09966e-05
0.000112123
0.000136486
0.000164176
0.000195183
0.000229371
0.000266462
0.000306011
0.00034739
0.000389768
0.000432102
0.000473127
0.000511353
0.000545075
0.000572402
0.000591304
0.000599707
0.000595621
0.000577335
0.000543663
0.000494241
0.000429834
0.00035261
0.000266295
0.000176123
8.84862e-05
1.02569e-05
-5.22079e-05
-9.42164e-05
-0.000113799
-0.000112342
-9.45016e-05
-6.72638e-05
-3.82962e-05
-1.40514e-05
1.74047e-06
8.61973e-06
8.78415e-06
5.631e-06
2.16599e-06
1.0038e-08
-6.63362e-07
-4.90715e-07
-1.55737e-07
1.86802e-08
3.85513e-08
1.24398e-08
-2.06564e-09
-5.78969e-15
1.90908e-14
7.58542e-14
1.76683e-13
2.91989e-13
2.97249e-13
-9.19476e-14
-1.33603e-12
-3.92161e-12
-7.88148e-12
-1.18507e-11
-1.17217e-11
6.05098e-13
3.72385e-11
1.11308e-10
2.28985e-10
3.75272e-10
4.94303e-10
4.68024e-10
1.00262e-10
-8.85137e-10
-2.82472e-09
-6.07172e-09
-1.09316e-08
-1.75848e-08
-2.60017e-08
-3.58444e-08
-4.63317e-08
-5.60217e-08
-6.24531e-08
-6.15797e-08
-4.69387e-08
-8.50468e-09
6.88086e-08
2.07035e-07
4.37464e-07
8.034e-07
1.36338e-06
2.19482e-06
3.39798e-06
5.10011e-06
7.45952e-06
1.06692e-05
1.49596e-05
2.06005e-05
2.79005e-05
3.7205e-05
4.88916e-05
6.33632e-05
8.10394e-05
0.000102306
0.00012753
0.000157049
0.00019111
0.000229863
0.000273323
0.000321351
0.000373627
0.000429625
0.000488601
0.000549571
0.000611306
0.000672321
0.000730869
0.000784944
0.000832287
0.000870414
0.000896664
0.000908293
0.000902632
0.000877321
0.000830622
0.000761832
0.000671722
0.000562965
0.000440426
0.00031117
0.000184056
6.88242e-05
-2.53079e-05
-9.13319e-05
-0.000126045
-0.00013105
-0.000112678
-8.06312e-05
-4.55607e-05
-1.63009e-05
2.24446e-06
9.73238e-06
9.30708e-06
5.41861e-06
1.66349e-06
-3.36467e-07
-7.23116e-07
-3.93445e-07
-6.62585e-08
4.27138e-08
2.75079e-08
1.37664e-09
9.33303e-15
6.33957e-14
1.46457e-13
2.39659e-13
2.35521e-13
-1.07157e-13
-1.17163e-12
-3.34533e-12
-6.59962e-12
-9.68577e-12
-9.02634e-12
2.24325e-12
3.40979e-11
9.68427e-11
1.94187e-10
3.11363e-10
3.99238e-10
3.57789e-10
2.45636e-11
-8.25578e-10
-2.46496e-09
-5.18138e-09
-9.23432e-09
-1.48044e-08
-2.19368e-08
-3.04682e-08
-3.99078e-08
-4.92284e-08
-5.65098e-08
-5.8372e-08
-4.91379e-08
-1.96664e-08
4.42044e-08
1.63672e-07
3.69513e-07
7.05219e-07
1.23078e-06
2.02711e-06
3.20105e-06
4.89081e-06
7.27169e-06
1.05616e-05
1.5026e-05
2.0982e-05
2.88006e-05
3.89065e-05
5.17751e-05
6.79262e-05
8.79148e-05
0.000112319
0.000141673
0.000176485
0.000217224
0.000264239
0.000317744
0.000377778
0.000444174
0.000516532
0.000594187
0.000676203
0.000761358
0.000848144
0.000934768
0.00101916
0.00109896
0.00117157
0.0012341
0.00128342
0.0013162
0.00132901
0.00131845
0.00128144
0.00121562
0.0011199
0.000995025
0.000844273
0.000673898
0.000493268
0.000314402
0.000150762
1.53093e-05
-8.19345e-05
-0.00013623
-0.000149614
-0.000130815
-9.32399e-05
-5.14325e-05
-1.71177e-05
3.64478e-06
1.10174e-05
9.51724e-06
4.81989e-06
9.75396e-07
-6.57077e-07
-6.90993e-07
-2.54667e-07
7.91205e-09
4.3808e-08
1.07713e-08
3.79626e-14
1.17075e-13
1.94593e-13
1.97641e-13
-7.04732e-14
-9.24247e-13
-2.68478e-12
-5.33481e-12
-7.85859e-12
-7.33598e-12
1.828e-12
2.77272e-11
7.86461e-11
1.57412e-10
2.51843e-10
3.2215e-10
2.88019e-10
1.96275e-11
-6.62984e-10
-1.97963e-09
-4.16949e-09
-7.46419e-09
-1.20579e-08
-1.80724e-08
-2.55035e-08
-3.41205e-08
-4.32756e-08
-5.15685e-08
-5.63079e-08
-5.27031e-08
-3.27165e-08
1.65055e-08
1.14718e-07
2.91286e-07
5.88622e-07
1.06644e-06
1.8069e-06
2.92058e-06
4.5533e-06
6.89349e-06
1.01799e-05
1.47093e-05
2.08433e-05
2.90135e-05
3.97255e-05
5.3558e-05
7.11595e-05
9.32395e-05
0.000120556
0.000153897
0.000193998
0.000241558
0.000297217
0.000361458
0.000434579
0.000516641
0.000607428
0.000706405
0.000812696
0.000925064
0.00104192
0.00116132
0.001281
0.0013984
0.0015107
0.00161482
0.00170747
0.00178512
0.00184401
0.00188018
0.00188952
0.00186795
0.00181169
0.00171773
0.00158454
0.00141287
0.00120672
0.000974054
0.000727101
0.000481883
0.000256622
6.90527e-05
-6.70201e-05
-0.000145101
-0.00016814
-0.000148335
-0.00010412
-5.49923e-05
-1.59746e-05
6.00804e-06
1.22764e-05
9.2281e-06
3.81099e-06
1.99264e-07
-8.61587e-07
-5.53563e-07
-1.06795e-07
4.6395e-08
2.82394e-08
7.55559e-14
1.57017e-13
1.73149e-13
-1.26818e-14
-6.5636e-13
-2.03377e-12
-4.1752e-12
-6.34011e-12
-6.28045e-12
4.11985e-13
2.02333e-11
6.0028e-11
1.22623e-10
1.99384e-10
2.60342e-10
2.43959e-10
4.96308e-11
-4.64035e-10
-1.4738e-09
-3.18043e-09
-5.79463e-09
-9.52232e-09
-1.45461e-08
-2.09888e-08
-2.88335e-08
-3.77585e-08
-4.68399e-08
-5.40611e-08
-5.5562e-08
-4.45482e-08
-9.76033e-09
6.66148e-08
2.11729e-07
4.65697e-07
8.86208e-07
1.55423e-06
2.58087e-06
4.11544e-06
6.35458e-06
9.55219e-06
1.40299e-05
2.01874e-05
2.85119e-05
3.95855e-05
5.40901e-05
7.28074e-05
9.66142e-05
0.000126471
0.000163404
0.000208483
0.000262711
0.000327043
0.000402354
0.000489306
0.000588313
0.000699468
0.000822483
0.000956642
0.00110076
0.00125318
0.00141175
0.00157391
0.00173667
0.00189674
0.00205055
0.00219437
0.00232429
0.0024363
0.00252629
0.00258997
0.00262288
0.00262042
0.00257791
0.00249097
0.00235599
0.00217101
0.00193687
0.00165843
0.00134575
0.00101463
0.000686112
0.00038441
0.00013323
-4.90623e-05
-0.000154199
-0.000186934
-0.000164519
-0.000112113
-5.52965e-05
-1.25216e-05
9.15353e-06
1.31615e-05
8.26452e-06
2.46404e-06
-5.06126e-07
-8.75505e-07
-3.39594e-07
5.64791e-09
5.1794e-08
1.11293e-13
1.54733e-13
4.35386e-14
-4.09754e-13
-1.44749e-12
-3.15477e-12
-5.05679e-12
-5.52436e-12
-1.20156e-12
1.30575e-11
4.30055e-11
9.17962e-11
1.5435e-10
2.09705e-10
2.12829e-10
8.80917e-11
-2.73547e-10
-1.01296e-09
-2.29822e-09
-4.31968e-09
-7.28606e-09
-1.14183e-08
-1.69285e-08
-2.39604e-08
-3.2457e-08
-4.1908e-08
-5.09233e-08
-5.65614e-08
-5.33278e-08
-3.17319e-08
2.37344e-08
1.37359e-07
3.45895e-07
7.03364e-07
1.28716e-06
2.20558e-06
3.60699e-06
5.69047e-06
8.71795e-06
1.30276e-05
1.90478e-05
2.73111e-05
3.84669e-05
5.32923e-05
7.26981e-05
9.77302e-05
0.000129563
0.000169485
0.000218876
0.000279177
0.000351746
0.000437881
0.000538774
0.000655335
0.000788141
0.00093734
0.00110256
0.00128286
0.00147665
0.00168168
0.00189508
0.00211337
0.00233256
0.00254826
0.00275581
0.00295041
0.00312724
0.00328156
0.00340873
0.00350418
0.00356334
0.00358154
0.00355396
0.0034756
0.00334164
0.003148
0.00289239
0.00257579
0.00220418
0.00179019
0.00135406
0.000923103
0.000528988
0.000202725
-3.20615e-05
-0.000165698
-0.000206271
-0.000178336
-0.000115862
-5.15161e-05
-6.75342e-06
1.25781e-05
1.3224e-05
6.55587e-06
9.84054e-07
-9.57886e-07
-6.85605e-07
-1.20831e-07
6.97922e-08
1.31093e-13
8.64334e-14
-2.07978e-13
-9.54361e-13
-2.28351e-12
-3.94613e-12
-4.84276e-12
-2.51777e-12
7.02601e-12
2.86246e-11
6.5731e-11
1.16283e-10
1.66866e-10
1.86154e-10
1.19161e-10
-1.16321e-10
-6.30808e-10
-1.56305e-09
-3.08112e-09
-5.38585e-09
-8.71373e-09
-1.33289e-08
-1.94841e-08
-2.7321e-08
-3.66682e-08
-4.66858e-08
-5.52881e-08
-5.82563e-08
-4.79255e-08
-1.12967e-08
7.26079e-08
2.3636e-07
5.28951e-07
1.02207e-06
1.8181e-06
3.06003e-06
4.94338e-06
7.73037e-06
1.17659e-05
1.74951e-05
2.54824e-05
3.64295e-05
5.11934e-05
7.08003e-05
9.6455e-05
0.000129543
0.000171622
0.000224407
0.000289734
0.000369527
0.000465613
0.000579746
0.000713537
0.000868236
0.00104465
0.00124303
0.00146292
0.00170309
0.00196146
0.00223505
0.00252
0.00281164
0.00310461
0.00339299
0.00367056
0.00393095
0.00416794
0.00437557
0.00454834
0.00468118
0.00476943
0.00480866
0.00479444
0.00472215
0.00458689
0.00438369
0.00410818
0.00375786
0.00333401
0.00284401
0.00230371
0.00173885
0.00118454
0.000681648
0.000269921
-2.13086e-05
-0.000181989
-0.000225997
-0.000188256
-0.000113889
-4.3167e-05
8.06229e-07
1.54559e-05
1.20517e-05
4.24789e-06
-3.04793e-07
-1.0291e-06
-3.71839e-07
5.46935e-08
1.21808e-13
-5.926e-14
-5.65307e-13
-1.56272e-12
-2.97495e-12
-4.12826e-12
-3.31318e-12
2.48633e-12
1.72683e-11
4.45814e-11
8.46098e-11
1.2981e-10
1.59707e-10
1.35889e-10
-1.88539e-12
-3.38374e-10
-9.85521e-10
-2.08714e-09
-3.82683e-09
-6.43716e-09
-1.02019e-08
-1.54357e-08
-2.2415e-08
-3.12267e-08
-4.14854e-08
-5.18575e-08
-5.93052e-08
-5.79336e-08
-3.72903e-08
2.00794e-08
1.42055e-07
3.7162e-07
7.73105e-07
1.44032e-06
2.50693e-06
4.15929e-06
6.65206e-06
1.03266e-05
1.56318e-05
2.31476e-05
3.36092e-05
4.79322e-05
6.72355e-05
9.28606e-05
0.000126385
0.000169626
0.000224632
0.000293659
0.000379132
0.000483595
0.000609485
0.000759148
0.00093475
0.001138
0.00137002
0.00163122
0.00192109
0.00223806
0.00257945
0.00294138
0.00331876
0.0037054
0.00409413
0.00447705
0.00484576
0.00519175
0.00550672
0.00578288
0.00601325
0.00619182
0.00631357
0.00637431
0.00637037
0.00629826
0.00615418
0.00593381
0.00563242
0.00524562
0.00477084
0.00420983
0.00357179
0.00287657
0.00215679
0.00145723
0.000830005
0.000325009
-2.27698e-05
-0.000204983
-0.000245024
-0.000192133
-0.000104831
-3.04408e-05
8.97518e-06
1.67827e-05
9.49321e-06
1.77e-06
-1.06292e-06
-7.43249e-07
-3.97072e-08
7.44004e-14
-2.79392e-13
-9.89847e-13
-2.13569e-12
-3.36414e-12
-3.56241e-12
-5.45545e-13
8.89028e-12
2.81406e-11
5.88384e-11
9.76875e-11
1.32416e-10
1.37517e-10
7.04065e-11
-1.32022e-10
-5.57444e-10
-1.32456e-09
-2.59331e-09
-4.57776e-09
-7.55598e-09
-1.18645e-08
-1.78572e-08
-2.57994e-08
-3.56554e-08
-4.67136e-08
-5.69671e-08
-6.21404e-08
-5.42114e-08
-1.92308e-08
6.5808e-08
2.37351e-07
5.51275e-07
1.09089e-06
1.97736e-06
3.38303e-06
5.548e-06
8.80017e-06
1.35791e-05
2.0463e-05
3.01992e-05
4.37362e-05
6.2256e-05
8.72051e-05
0.00012032
0.000163647
0.000219545
0.000290681
0.000379996
0.000490662
0.00062601
0.00078926
0.000983523
0.00121168
0.00147604
0.00177819
0.00211873
0.00249713
0.00291148
0.00335837
0.00383282
0.00432824
0.00483654
0.0053483
0.00585303
0.00633957
0.00679652
0.0072127
0.00757772
0.00788236
0.00811895
0.00828155
0.00836589
0.00836914
0.00828932
0.00812473
0.00787319
0.00753159
0.00709587
0.00656182
0.00592701
0.00519386
0.00437388
0.00349197
0.0025894
0.00172297
0.000958336
0.000356791
-4.2029e-05
-0.000235153
-0.000260849
-0.000187314
-8.79134e-05
-1.45708e-05
1.59626e-05
1.57185e-05
5.89338e-06
-2.39381e-07
-1.12342e-06
-2.70187e-07
-1.51427e-14
-5.60126e-13
-1.43417e-12
-2.58724e-12
-3.36101e-12
-2.25825e-12
3.17901e-12
1.59794e-11
3.85243e-11
7.03419e-11
1.05049e-10
1.2685e-10
1.07001e-10
2.22713e-13
-2.5978e-10
-7.67256e-10
-1.65524e-09
-3.11011e-09
-5.38619e-09
-8.81142e-09
-1.37687e-08
-2.06292e-08
-2.9603e-08
-4.04579e-08
-5.2035e-08
-6.14576e-08
-6.28944e-08
-4.56822e-08
8.43836e-09
1.2929e-07
3.63814e-07
7.83667e-07
1.49538e-06
2.65361e-06
4.4781e-06
7.2748e-06
1.14615e-05
1.75984e-05
2.64228e-05
3.88884e-05
5.62065e-05
7.98885e-05
0.000111786
0.000154127
0.000209537
0.000281054
0.000372113
0.000486515
0.000628367
0.000801994
0.0010116
0.00126128
0.00155483
0.00189534