# vtk DataFile Version 3.0
Malha 2D com triângulos e temperatura
ASCII
DATASET UNSTRUCTURED_GRID

POINTS 2500 double
0 0 0
1 0 0
1 2 0
0 2 0
0.0204082 0 0
0.0408163 0 0
0.0612245 0 0
0.0816327 0 0
0.102041 0 0
0.122449 0 0
0.142857 0 0
0.163265 0 0
0.183673 0 0
0.204082 0 0
0.22449 0 0
0.244898 0 0
0.265306 0 0
0.285714 0 0
0.306122 0 0
0.326531 0 0
0.346939 0 0
0.367347 0 0
0.387755 0 0
0.408163 0 0
0.428571 0 0
0.44898 0 0
0.469388 0 0
0.489796 0 0
0.510204 0 0
0.530612 0 0
0.55102 0 0
0.571429 0 0
0.591837 0 0
0.612245 0 0
0.632653 0 0
0.653061 0 0
0.673469 0 0
0.693878 0 0
0.714286 0 0
0.734694 0 0
0.755102 0 0
0.77551 0 0
0.795918 0 0
0.816327 0 0
0.836735 0 0
0.857143 0 0
0.877551 0 0
0.897959 0 0
0.918367 0 0
0.938776 0 0
0.959184 0 0
0.979592 0 0
1 0.0408163 0
1 0.0816327 0
1 0.122449 0
1 0.163265 0
1 0.204082 0
1 0.244898 0
1 0.285714 0
1 0.326531 0
1 0.367347 0
1 0.408163 0
1 0.44898 0
1 0.489796 0
1 0.530612 0
1 0.571429 0
1 0.612245 0
1 0.653061 0
1 0.693878 0
1 0.734694 0
1 0.77551 0
1 0.816327 0
1 0.857143 0
1 0.897959 0
1 0.938776 0
1 0.979592 0
1 1.02041 0
1 1.06122 0
1 1.10204 0
1 1.14286 0
1 1.18367 0
1 1.22449 0
1 1.26531 0
1 1.30612 0
1 1.34694 0
1 1.38776 0
1 1.42857 0
1 1.46939 0
1 1.5102 0
1 1.55102 0
1 1.59184 0
1 1.63265 0
1 1.67347 0
1 1.71429 0
1 1.7551 0
1 1.79592 0
1 1.83673 0
1 1.87755 0
1 1.91837 0
1 1.95918 0
0.979592 2 0
0.959184 2 0
0.938776 2 0
0.918367 2 0
0.897959 2 0
0.877551 2 0
0.857143 2 0
0.836735 2 0
0.816327 2 0
0.795918 2 0
0.77551 2 0
0.755102 2 0
0.734694 2 0
0.714286 2 0
0.693878 2 0
0.673469 2 0
0.653061 2 0
0.632653 2 0
0.612245 2 0
0.591837 2 0
0.571429 2 0
0.55102 2 0
0.530612 2 0
0.510204 2 0
0.489796 2 0
0.469388 2 0
0.44898 2 0
0.428571 2 0
0.408163 2 0
0.387755 2 0
0.367347 2 0
0.346939 2 0
0.326531 2 0
0.306122 2 0
0.285714 2 0
0.265306 2 0
0.244898 2 0
0.22449 2 0
0.204082 2 0
0.183673 2 0
0.163265 2 0
0.142857 2 0
0.122449 2 0
0.102041 2 0
0.0816327 2 0
0.0612245 2 0
0.0408163 2 0
0.0204082 2 0
0 1.95918 0
0 1.91837 0
0 1.87755 0
0 1.83673 0
0 1.79592 0
0 1.7551 0
0 1.71429 0
0 1.67347 0
0 1.63265 0
0 1.59184 0
0 1.55102 0
0 1.5102 0
0 1.46939 0
0 1.42857 0
0 1.38776 0
0 1.34694 0
0 1.30612 0
0 1.26531 0
0 1.22449 0
0 1.18367 0
0 1.14286 0
0 1.10204 0
0 1.06122 0
0 1.02041 0
0 0.979592 0
0 0.938776 0
0 0.897959 0
0 0.857143 0
0 0.816327 0
0 0.77551 0
0 0.734694 0
0 0.693878 0
0 0.653061 0
0 0.612245 0
0 0.571429 0
0 0.530612 0
0 0.489796 0
0 0.44898 0
0 0.408163 0
0 0.367347 0
0 0.326531 0
0 0.285714 0
0 0.244898 0
0 0.204082 0
0 0.163265 0
0 0.122449 0
0 0.0816327 0
0 0.0408163 0
0.0204082 0.0408163 0
0.0204082 0.0816327 0
0.0204082 0.122449 0
0.0204082 0.163265 0
0.0204082 0.204082 0
0.0204082 0.244898 0
0.0204082 0.285714 0
0.0204082 0.326531 0
0.0204082 0.367347 0
0.0204082 0.408163 0
0.0204082 0.44898 0
0.0204082 0.489796 0
0.0204082 0.530612 0
0.0204082 0.571429 0
0.0204082 0.612245 0
0.0204082 0.653061 0
0.0204082 0.693878 0
0.0204082 0.734694 0
0.0204082 0.77551 0
0.0204082 0.816327 0
0.0204082 0.857143 0
0.0204082 0.897959 0
0.0204082 0.938776 0
0.0204082 0.979592 0
0.0204082 1.02041 0
0.0204082 1.06122 0
0.0204082 1.10204 0
0.0204082 1.14286 0
0.0204082 1.18367 0
0.0204082 1.22449 0
0.0204082 1.26531 0
0.0204082 1.30612 0
0.0204082 1.34694 0
0.0204082 1.38776 0
0.0204082 1.42857 0
0.0204082 1.46939 0
0.0204082 1.5102 0
0.0204082 1.55102 0
0.0204082 1.59184 0
0.0204082 1.63265 0
0.0204082 1.67347 0
0.0204082 1.71429 0
0.0204082 1.7551 0
0.0204082 1.79592 0
0.0204082 1.83673 0
0.0204082 1.87755 0
0.0204082 1.91837 0
0.0204082 1.95918 0
0.0408163 0.0408163 0
0.0408163 0.0816327 0
0.0408163 0.122449 0
0.0408163 0.163265 0
0.0408163 0.204082 0
0.0408163 0.244898 0
0.0408163 0.285714 0
0.0408163 0.326531 0
0.0408163 0.367347 0
0.0408163 0.408163 0
0.0408163 0.44898 0
0.0408163 0.489796 0
0.0408163 0.530612 0
0.0408163 0.571429 0
0.0408163 0.612245 0
0.0408163 0.653061 0
0.0408163 0.693878 0
0.0408163 0.734694 0
0.0408163 0.77551 0
0.0408163 0.816327 0
0.0408163 0.857143 0
0.0408163 0.897959 0
0.0408163 0.938776 0
0.0408163 0.979592 0
0.0408163 1.02041 0
0.0408163 1.06122 0
0.0408163 1.10204 0
0.0408163 1.14286 0
0.0408163 1.18367 0
0.0408163 1.22449 0
0.0408163 1.26531 0
0.0408163 1.30612 0
0.0408163 1.34694 0
0.0408163 1.38776 0
0.0408163 1.42857 0
0.0408163 1.46939 0
0.0408163 1.5102 0
0.0408163 1.55102 0
0.0408163 1.59184 0
0.0408163 1.63265 0
0.0408163 1.67347 0
0.0408163 1.71429 0
0.0408163 1.7551 0
0.0408163 1.79592 0
0.0408163 1.83673 0
0.0408163 1.87755 0
0.0408163 1.91837 0
0.0408163 1.95918 0
0.0612245 0.0408163 0
0.0612245 0.0816327 0
0.0612245 0.122449 0
0.0612245 0.163265 0
0.0612245 0.204082 0
0.0612245 0.244898 0
0.0612245 0.285714 0
0.0612245 0.326531 0
0.0612245 0.367347 0
0.0612245 0.408163 0
0.0612245 0.44898 0
0.0612245 0.489796 0
0.0612245 0.530612 0
0.0612245 0.571429 0
0.0612245 0.612245 0
0.0612245 0.653061 0
0.0612245 0.693878 0
0.0612245 0.734694 0
0.0612245 0.77551 0
0.0612245 0.816327 0
0.0612245 0.857143 0
0.0612245 0.897959 0
0.0612245 0.938776 0
0.0612245 0.979592 0
0.0612245 1.02041 0
0.0612245 1.06122 0
0.0612245 1.10204 0
0.0612245 1.14286 0
0.0612245 1.18367 0
0.0612245 1.22449 0
0.0612245 1.26531 0
0.0612245 1.30612 0
0.0612245 1.34694 0
0.0612245 1.38776 0
0.0612245 1.42857 0
0.0612245 1.46939 0
0.0612245 1.5102 0
0.0612245 1.55102 0
0.0612245 1.59184 0
0.0612245 1.63265 0
0.0612245 1.67347 0
0.0612245 1.71429 0
0.0612245 1.7551 0
0.0612245 1.79592 0
0.0612245 1.83673 0
0.0612245 1.87755 0
0.0612245 1.91837 0
0.0612245 1.95918 0
0.0816327 0.0408163 0
0.0816327 0.0816327 0
0.0816327 0.122449 0
0.0816327 0.163265 0
0.0816327 0.204082 0
0.0816327 0.244898 0
0.0816327 0.285714 0
0.0816327 0.326531 0
0.0816327 0.367347 0
0.0816327 0.408163 0
0.0816327 0.44898 0
0.0816327 0.489796 0
0.0816327 0.530612 0
0.0816327 0.571429 0
0.0816327 0.612245 0
0.0816327 0.653061 0
0.0816327 0.693878 0
0.0816327 0.734694 0
0.0816327 0.77551 0
0.0816327 0.816327 0
0.0816327 0.857143 0
0.0816327 0.897959 0
0.0816327 0.938776 0
0.0816327 0.979592 0
0.0816327 1.02041 0
0.0816327 1.06122 0
0.0816327 1.10204 0
0.0816327 1.14286 0
0.0816327 1.18367 0
0.0816327 1.22449 0
0.0816327 1.26531 0
0.0816327 1.30612 0
0.0816327 1.34694 0
0.0816327 1.38776 0
0.0816327 1.42857 0
0.0816327 1.46939 0
0.0816327 1.5102 0
0.0816327 1.55102 0
0.0816327 1.59184 0
0.0816327 1.63265 0
0.0816327 1.67347 0
0.0816327 1.71429 0
0.0816327 1.7551 0
0.0816327 1.79592 0
0.0816327 1.83673 0
0.0816327 1.87755 0
0.0816327 1.91837 0
0.0816327 1.95918 0
0.102041 0.0408163 0
0.102041 0.0816327 0
0.102041 0.122449 0
0.102041 0.163265 0
0.102041 0.204082 0
0.102041 0.244898 0
0.102041 0.285714 0
0.102041 0.326531 0
0.102041 0.367347 0
0.102041 0.408163 0
0.102041 0.44898 0
0.102041 0.489796 0
0.102041 0.530612 0
0.102041 0.571429 0
0.102041 0.612245 0
0.102041 0.653061 0
0.102041 0.693878 0
0.102041 0.734694 0
0.102041 0.77551 0
0.102041 0.816327 0
0.102041 0.857143 0
0.102041 0.897959 0
0.102041 0.938776 0
0.102041 0.979592 0
0.102041 1.02041 0
0.102041 1.06122 0
0.102041 1.10204 0
0.102041 1.14286 0
0.102041 1.18367 0
0.102041 1.22449 0
0.102041 1.26531 0
0.102041 1.30612 0
0.102041 1.34694 0
0.102041 1.38776 0
0.102041 1.42857 0
0.102041 1.46939 0
0.102041 1.5102 0
0.102041 1.55102 0
0.102041 1.59184 0
0.102041 1.63265 0
0.102041 1.67347 0
0.102041 1.71429 0
0.102041 1.7551 0
0.102041 1.79592 0
0.102041 1.83673 0
0.102041 1.87755 0
0.102041 1.91837 0
0.102041 1.95918 0
0.122449 0.0408163 0
0.122449 0.0816327 0
0.122449 0.122449 0
0.122449 0.163265 0
0.122449 0.204082 0
0.122449 0.244898 0
0.122449 0.285714 0
0.122449 0.326531 0
0.122449 0.367347 0
0.122449 0.408163 0
0.122449 0.44898 0
0.122449 0.489796 0
0.122449 0.530612 0
0.122449 0.571429 0
0.122449 0.612245 0
0.122449 0.653061 0
0.122449 0.693878 0
0.122449 0.734694 0
0.122449 0.77551 0
0.122449 0.816327 0
0.122449 0.857143 0
0.122449 0.897959 0
0.122449 0.938776 0
0.122449 0.979592 0
0.122449 1.02041 0
0.122449 1.06122 0
0.122449 1.10204 0
0.122449 1.14286 0
0.122449 1.18367 0
0.122449 1.22449 0
0.122449 1.26531 0
0.122449 1.30612 0
0.122449 1.34694 0
0.122449 1.38776 0
0.122449 1.42857 0
0.122449 1.46939 0
0.122449 1.5102 0
0.122449 1.55102 0
0.122449 1.59184 0
0.122449 1.63265 0
0.122449 1.67347 0
0.122449 1.71429 0
0.122449 1.7551 0
0.122449 1.79592 0
0.122449 1.83673 0
0.122449 1.87755 0
0.122449 1.91837 0
0.122449 1.95918 0
0.142857 0.0408163 0
0.142857 0.0816327 0
0.142857 0.122449 0
0.142857 0.163265 0
0.142857 0.204082 0
0.142857 0.244898 0
0.142857 0.285714 0
0.142857 0.326531 0
0.142857 0.367347 0
0.142857 0.408163 0
0.142857 0.44898 0
0.142857 0.489796 0
0.142857 0.530612 0
0.142857 0.571429 0
0.142857 0.612245 0
0.142857 0.653061 0
0.142857 0.693878 0
0.142857 0.734694 0
0.142857 0.77551 0
0.142857 0.816327 0
0.142857 0.857143 0
0.142857 0.897959 0
0.142857 0.938776 0
0.142857 0.979592 0
0.142857 1.02041 0
0.142857 1.06122 0
0.142857 1.10204 0
0.142857 1.14286 0
0.142857 1.18367 0
0.142857 1.22449 0
0.142857 1.26531 0
0.142857 1.30612 0
0.142857 1.34694 0
0.142857 1.38776 0
0.142857 1.42857 0
0.142857 1.46939 0
0.142857 1.5102 0
0.142857 1.55102 0
0.142857 1.59184 0
0.142857 1.63265 0
0.142857 1.67347 0
0.142857 1.71429 0
0.142857 1.7551 0
0.142857 1.79592 0
0.142857 1.83673 0
0.142857 1.87755 0
0.142857 1.91837 0
0.142857 1.95918 0
0.163265 0.0408163 0
0.163265 0.0816327 0
0.163265 0.122449 0
0.163265 0.163265 0
0.163265 0.204082 0
0.163265 0.244898 0
0.163265 0.285714 0
0.163265 0.326531 0
0.163265 0.367347 0
0.163265 0.408163 0
0.163265 0.44898 0
0.163265 0.489796 0
0.163265 0.530612 0
0.163265 0.571429 0
0.163265 0.612245 0
0.163265 0.653061 0
0.163265 0.693878 0
0.163265 0.734694 0
0.163265 0.77551 0
0.163265 0.816327 0
0.163265 0.857143 0
0.163265 0.897959 0
0.163265 0.938776 0
0.163265 0.979592 0
0.163265 1.02041 0
0.163265 1.06122 0
0.163265 1.10204 0
0.163265 1.14286 0
0.163265 1.18367 0
0.163265 1.22449 0
0.163265 1.26531 0
0.163265 1.30612 0
0.163265 1.34694 0
0.163265 1.38776 0
[...]
CELL_DATA 2401
SCALARS Temperatura double 1
LOOKUP_TABLE default
0.155436
0.152066
0.147506
0.142198
0.136368
0.13016
0.123666
0.116947
0.11004
0.102967
0.0957397
0.0883735
0.0812159
0.0750493
0.0694083
0.0640068
0.0586606
0.0532451
0.047669
0.0418586
0.0357439
0.0292461
0.022288
0.0151027
0.0104863
0.0151027
0.022288
0.0292461
0.0357439
0.0418586
0.047669
0.0532451
0.0586606
0.0640068
0.0694083
0.0750493
0.0812159
0.0883735
0.0957397
0.102967
0.11004
0.116947
0.123666
0.13016
0.136368
0.142198
0.147506
0.152066
0.155436
0.345169
0.337257
0.327134
0.315964
0.30431
0.29248
0.280635
0.268835
0.257059
0.245231
0.233225
0.220879
0.208039
0.19477
0.181115
0.167093
0.152706
0.13794
0.122764
0.107119
0.0909099
0.073978
0.0561354
0.0379396
0.0263319
0.0379396
0.0561354
0.073978
0.0909099
0.107119
0.122764
0.13794
0.152706
0.167093
0.181115
0.19477
0.208039
0.220879
0.233225
0.245231
0.257059
0.268835
0.280635
0.29248
0.30431
0.315964
0.327134
0.337257
0.345169
0.429998
0.418013
0.403273
0.387746
0.372369
0.357641
0.343804
0.330925
0.318948
0.307716
0.296991
0.286436
0.275358
0.262759
0.248679
0.233149
0.216193
0.197831
0.178068
0.156888
0.134233
0.109958
0.0838812
0.0569437
0.0396555
0.0569437
0.0838812
0.109958
0.134233
0.156888
0.178068
0.197831
0.216193
0.233149
0.248679
0.262759
0.275358
0.286436
0.296991
0.307716
0.318948
0.330925
0.343804
0.357641
0.372369
0.387746
0.403273
0.418013
0.429998
0.461202
0.444729
0.424903
0.404638
0.385308
0.367614
0.351877
0.338184
0.326469
0.316559
0.308188
0.300981
0.294078
0.285957
0.276233
0.264539
0.250546
0.233987
0.21466
0.192421
0.167147
0.13869
0.106915
0.0732022
0.0512797
0.0732022
0.106915
0.13869
0.167147
0.192421
0.21466
0.233987
0.250546
0.264539
0.276233
0.285957
0.294078
0.300981
0.308188
0.316559
0.326469
0.338184
0.351877
0.367614
0.385308
0.404638
0.424903
0.444729
0.461202
0.472216
0.450732
0.425176
0.399564
0.375732
0.35455
0.336364
0.321228
0.309036
0.299591
0.292634
0.287827
0.284432
0.280984
0.276735
0.270866
0.262547
0.251005
0.235569
0.215701
0.190996
0.161135
0.125948
0.0872179
0.0615752
0.0872179
0.125948
0.161135
0.190996
0.215701
0.235569
0.251005
0.262547
0.270866
0.276735
0.280984
0.284432
0.287827
0.292634
0.299591
0.309036
0.321228
0.336364
0.35455
0.375732
0.399564
0.425176
0.450732
0.472216
0.477065
0.450167
0.41844
0.38716
0.358631
0.333827
0.313029
0.296177
0.283054
0.273393
0.266914
0.263319
0.262066
0.262038
0.262384
0.262047
0.259813
0.2544
0.244556
0.229158
0.207276
0.178191
0.141512
0.0993029
0.0707528
0.0993029
0.141512
0.178191
0.207276
0.229158
0.244556
0.2544
0.259813
0.262047
0.262384
0.262038
0.262066
0.263319
0.266914
0.273393
0.283054
0.296177
0.313029
0.333827
0.358631
0.38716
0.41844
0.450167
0.477065
0.480272
0.447671
0.409516
0.37251
0.339417
0.311226
0.288057
0.269643
0.255592
0.245512
0.239062
0.235953
0.235811
0.237899
0.241469
0.245467
0.248525
0.249015
0.245161
0.23519
0.217492
0.19073
0.154079
0.109695
0.0789546
0.109695
0.154079
0.19073
0.217492
0.23519
0.245161
0.249015
0.248525
0.245467
0.241469
0.237899
0.235811
0.235953
0.239062
0.245512
0.255592
0.269643
0.288057
0.311226
0.339417
0.37251
0.409516
0.447671
0.480272
0.483066
0.444546
0.399823
0.357201
0.319873
0.28874
0.263651
0.244055
0.229327
0.218914
0.21239
0.209449
0.209828
0.213107
0.218724
0.225782
0.232965
0.238507
0.240267
0.235887
0.223021
0.199571
0.16408
0.118594
0.0862892
0.118594
0.16408
0.199571
0.223021
0.235887
0.240267
0.238507
0.232965
0.225782
0.218724
0.213107
0.209828
0.209449
0.21239
0.218914
0.229327
0.244055
0.263651
0.28874
0.319873
0.357201
0.399823
0.444546
0.483066
0.485751
0.44115
0.389801
0.341782
0.300661
0.267129
0.240654
0.220324
0.205245
0.19469
0.188137
0.185252
0.18585
0.189746
0.196568
0.205639
0.215824
0.225399
0.232038
0.232933
0.225046
0.205449
0.171913
0.12618
0.0928462
0.12618
0.171913
0.205449
0.225046
0.232933
0.232038
0.225399
0.215824
0.205639
0.196568
0.189746
0.18585
0.185252
0.188137
0.19469
0.205245
0.220324
0.240654
0.267129
0.300661
0.341782
0.389801
0.44115
0.485751
0.48841
0.437609
0.37964
0.326523
0.282121
0.24677
0.219449
0.198824
0.183708
0.173201
0.166697
0.163838
0.164496
0.16866
0.176121
0.18643
0.198686
0.211329
0.222009
0.227622
0.224536
0.209002
0.177931
0.132613
0.098703
0.132613
0.177931
0.209002
0.224536
0.227622
0.222009
0.211329
0.198686
0.18643
0.176121
0.16866
0.164496
0.163838
0.166697
0.173201
0.183708
0.198824
0.219449
0.24677
0.282121
0.326523
0.37964
0.437609
0.48841
0.491072
0.433992
0.369467
0.311615
0.264482
0.227896
0.200234
0.179697
0.164802
0.154494
0.148101
0.145258
0.145882
0.150093
0.157819
0.168814
0.182425
0.197316
0.211231
0.220914
0.222263
0.210768
0.182449
0.138037
0.103928
0.138037
0.182449
0.210768
0.222263
0.220914
0.211231
0.197316
0.182425
0.168814
0.157819
0.150093
0.145882
0.145258
0.148101
0.154494
0.164802
0.179697
0.200234
0.227896
0.264482
0.311615
0.369467
0.433992
0.491072
0.493753
0.430352
0.359389
0.297215
0.247918
0.210651
0.183095
0.162956
0.148467
0.138447
0.132194
0.129352
0.129881
0.133999
0.141743
0.153043
0.167477
0.183956
0.200395
0.2135
0.218827
0.211189
0.185738
0.142583
0.108584
0.142583
0.185738
0.211189
0.218827
0.2135
0.200395
0.183956
0.167477
0.153043
0.141743
0.133999
0.129881
0.129352
0.132194
0.138447
0.148467
0.162956
0.183095
0.210651
0.247918
0.297215
0.359389
0.430352
0.493753
0.496464
0.426736
0.349503
0.283457
0.232555
0.195113
0.168034
0.148515
0.134537
0.124836
0.118713
0.115847
0.116241
0.120179
0.127787
0.139138
0.154017
0.171578
0.189943
0.205871
0.214686
0.210628
0.188033
0.146366
0.112727
0.146366
0.188033
0.210628
0.214686
0.205871
0.189943
0.171578
0.154017
0.139138
0.127787
0.120179
0.116241
0.115847
0.118713
0.124836
0.134537
0.148515
0.168034
0.195113
0.232555
0.283457
0.349503
0.426736
0.496464
0.499212
0.423186
0.339899
0.270453
0.218482
0.181306
0.154987
0.136225
0.122788
0.113376
0.107338
0.104414
0.104647
0.108363
0.115754
0.127003
0.142069
0.160334
0.180143
0.198364
0.210185
0.209375
0.189529
0.149488
0.116406
0.149488
0.189529
0.209375
0.210185
0.198364
0.180143
0.160334
0.142069
0.127003
0.115754
0.108363
0.104647
0.104414
0.107338
0.113376
0.122788
0.136225
0.154987
0.181306
0.218482
0.270453
0.339899
0.423186
0.499212
0.502004
0.419744
0.330662
0.258297
0.205752
0.169205
0.143843
0.125893
0.11296
0.103761
0.0977339
0.094706
0.0947663
0.0982568
0.105407
0.116479
0.131572
0.150272
0.171146
0.191207
0.205581
0.207662
0.190394
0.152039
0.119668
0.152039
0.190394
0.207662
0.205581
0.191207
0.171146
0.150272
0.131572
0.116479
0.105407
0.0982568
0.0947663
0.094706
0.0977339
0.103761
0.11296
0.125893
0.143843
0.169205
0.205752
0.258297
0.330662
0.419744
0.502004
0.504845
0.416448
0.321873
0.247066
0.194385
0.158748
0.134455
0.117303
0.104789
0.0956918
0.0895791
0.0863956
0.086281
0.0895714
0.0965048
0.107387
0.122425
0.14138
0.163028
0.18455
0.201061
0.205671
0.190764
0.154097
0.122553
0.154097
0.190764
0.205671
0.201061
0.18455
0.163028
0.14138
0.122425
0.107387
0.0965048
0.0895714
0.086281
0.0863956
0.0895791
0.0956918
0.104789
0.117303
0.134455
0.158748
0.194385
0.247066
0.321873
0.416448
0.504845
0.507738
0.413334
0.313607
0.23682
0.184375
0.149846
0.12666
0.110239
0.0980226
0.0888967
0.0825903
0.0791942
0.07891
0.0820508
0.0888279
0.0995549
0.114513
0.13361
0.155818
0.178485
0.196762
0.203543
0.190754
0.15573
0.1251
0.15573
0.190754
0.203543
0.196762
0.178485
0.155818
0.13361
0.114513
0.0995549
0.0888279
0.0820508
0.07891
0.0791942
0.0825903
0.0888967
0.0980226
0.110239
0.12666
0.149846
0.184375
0.23682
0.313607
0.413334
0.507738
0.510689
0.41044
0.305935
0.227605
0.175695
0.14239
0.120289
0.104496
0.0924425
0.0831524
0.0765401
0.0728702
0.0724262
0.0754852
0.0821922
0.0928303
0.107724
0.126903
0.149513
0.17307
0.19278
0.201388
0.190455
0.156996
0.127341
0.156996
0.190455
0.201388
0.19278
0.17307
0.149513
0.126903
0.107724
0.0928303
0.0821922
0.0754852
0.0724262
0.0728702
0.0765401
0.0831524
0.0924425
0.104496
0.120289
0.14239
0.175695
0.227605
0.305935
0.41044
0.510689
0.513701
0.4078
0.298924
0.21945
0.168299
0.136263
0.115177
0.0998911
0.0878709
0.0782925
0.0712665
0.0672581
0.0666649
0.0697213
0.0764588
0.0870924
0.101963
0.121199
0.144099
0.168333
0.189182
0.199288
0.189942
0.157945
0.129307
0.157945
0.189942
0.199288
0.189182
0.168333
0.144099
0.121199
0.101963
0.0870924
0.0764588
0.0697213
0.0666649
0.0672581
0.0712665
0.0782925
0.0878709
0.0998911
0.115177
0.136263
0.168299
0.21945
0.298924
0.4078
0.513701
0.516777
0.405448
0.292638
0.212376
0.162128
0.131341
0.111171
0.0962735
0.0841759
0.0742109
0.0666783
0.0622626
0.0615269
0.0646648
0.0715377
0.0822554
0.097155
0.116444
0.139553
0.16429
0.186012
0.197304
0.189273
0.158618
0.131023
0.158618
0.189273
0.197304
0.186012
0.16429
0.139553
0.116444
0.097155
0.0822554
0.0715377
0.0646648
0.0615269
0.0622626
0.0666783
0.0742109
0.0841759
0.0962735
0.111171
0.131341
0.162128
0.212376
0.292638
0.405448
0.516777
0.519922
0.403418
0.287136
0.20639
0.157117
0.127509
0.108137
0.0935227
0.0812711
0.0708608
0.062755
0.0578598
0.0569784
0.0602814
0.0673872
0.0782684
0.0932463
0.112593
0.135851
0.160943
0.1833
0.19548
0.188492
0.159051
0.132514
0.159051
0.188492
0.19548
0.1833
0.160943
0.135851
0.112593
0.0932463
0.0782684
0.0673872
0.0602814
0.0569784
0.0578598
0.062755
0.0708608
0.0812711
0.0935227
0.108137
0.127509
0.157117
0.20639
0.287136
0.403418
0.519922
0.523139
0.401743
0.282471
0.201495
0.153199
0.124656
0.105962
0.0915496
0.0791102
0.0682469
0.059544
0.0541004
0.0530496
0.0565934
0.0640096
0.0751116
0.0902042
0.109614
0.13297
0.158288
0.181059
0.193845
0.187634
0.159272
0.1338
0.159272
0.187634
0.193845
0.181059
0.158288
0.13297
0.109614
0.0902042
0.0751116
0.0640096
0.0565934
0.0530496
0.0541004
0.059544
0.0682469
0.0791102
0.0915496
0.105962
0.124656
0.153199
0.201495
0.282471
0.401743
0.523139
0.526432
0.400453
0.278695
0.197688
0.150308
0.122686
0.104553
0.0902919
0.0776782
0.0664137
0.057153
0.0511176
0.0498379
0.0536774
0.0614439
0.0727895
0.0880124
0.107484
0.130892
0.156316
0.179296
0.192415
0.18672
0.159305
0.134901
0.159305
0.18672
0.192415
0.179296
0.156316
0.130892
0.107484
0.0880124
0.0727895
0.0614439
0.0536774
0.0498379
0.0511176
0.057153
0.0664137
0.0776782
0.0902919
0.104553
0.122686
0.150308
0.197688
0.278695
0.400453
0.526432
0.529805
0.399582
0.275853
0.194961
0.148386
0.121519
0.103838
0.089709
0.0769806
0.0654289
0.0557355
0.049142
0.0475312
0.0516667
0.0597575
0.071324
0.0866676
0.106186
0.129599
0.155015
0.178003
0.191192
0.185762
0.159168
0.135833
0.159168
0.185762
0.191192
0.178003
0.155015
0.129599
0.106186
0.0866676
0.071324
0.0597575
0.0516667
0.0475312
0.049142
0.0557355
0.0654289
0.0769806
0.089709
0.103838
0.121519
0.148386
0.194961
0.275853
0.399582
0.529805
0.533263
0.399158
0.273989
0.193309
0.147383
0.12109
0.103763
0.089775
0.0770317
0.0653638
0.0554626
0.0485103
0.0464922
0.050774
0.0590542
0.0707627
0.0861861
0.105718
0.129072
0.154353
0.177147
0.190151
0.184759
0.158885
0.136618
0.158885
0.184759
0.190151
0.177147
0.154353
0.129072
0.105718
0.0861861
0.0707627
0.0590542
0.050774
0.0464922
0.0485103
0.0554626
0.0653638
0.0770317
0.089775
0.103763
0.12109
0.147383
0.193309
0.273989
0.399158
0.533263
0.536811
0.399212
0.273138
0.192727
0.147264
0.121355
0.104292
0.0904731
0.077843
0.0662716
0.0564778
0.0496251
0.0474745
0.0514134
0.0595789
0.0712739
0.086678
0.106116
0.129251
0.154167
0.176488
0.189059
0.183619
0.158562
0.137348
0.158562
0.183619
0.189059
0.176488
0.154167
0.129251
0.106116
0.086678
0.0712739
0.0595789
0.0514134
0.0474745
0.0496251
0.0564778
0.0662716
0.077843
0.0904731
0.104292
0.121355
0.147264
0.192727
0.273138
0.399212
0.536811
0.540971
0.400202
0.27328
0.192964
0.147774
0.122149
0.105357
0.09179
0.0794017
0.0680826
0.0585756
0.0520211
0.0499226
0.0534222
0.061288
0.0728355
0.0881182
0.107347
0.130097
0.15442
0.176003
0.187914
0.182354
0.1582
0.138026
0.1582
0.182354
0.187914
0.176003
0.15442
0.130097
0.107347
0.0881182
0.0728355
0.061288
0.0534222
0.0499226
0.0520211
0.0585756
0.0680826
0.0794017
0.09179
0.105357
0.122149
0.147774
0.192964
0.27328
0.400202
0.540971
0.545827
0.4022
0.274422
0.193993
0.148877
0.123445
0.106938
0.0937119
0.0816904
0.0707559
0.0616532
0.0554766
0.053502
0.0566234
0.0641124
0.0754101
0.0904688
0.109363
0.13156
0.155066
0.175659
0.18671
0.180975
0.157798
0.138655
0.157798
0.180975
0.18671
0.175659
0.155066
0.13156
0.109363
0.0904688
0.0754101
0.0641124
0.0566234
0.053502
0.0554766
0.0616532
0.0707559
0.0816904
0.0937119
0.106938
0.123445
0.148877
0.193993
0.274422
0.4022
0.545827
0.551427
0.405251
0.27659
0.195822
0.150573
0.125229
0.109016
0.096214
0.0846753
0.0742395
0.0656239
0.059857
0.0580318
0.0608671
0.0679702
0.0789447
0.0936774
0.112105
0.13357
0.156043
0.175421
0.185442
0.179493
0.157359
0.139238
0.157359
0.179493
0.185442
0.175421
0.156043
0.13357
0.112105
0.0936774
0.0789447
0.0679702
0.0608671
0.0580318
0.059857
0.0656239
0.0742395
0.0846753
0.096214
0.109016
0.125229
0.150573
0.195822
0.27659
0.405251
0.551427
0.55782
0.409408
0.279829
0.198484
0.152872
0.127496
0.111568
0.0992592
0.0883068
0.0784687
0.0704047
0.065067
0.0634072
0.066035
0.0727731
0.0833697
0.0976742
0.115493
0.136049
0.157282
0.175244
0.1841
0.177919
0.156883
0.139775
0.156883
0.177919
0.1841
0.175244
0.157282
0.136049
0.115493
0.0976742
0.0833697
0.0727731
0.066035
0.0634072
0.065067
0.0704047
0.0784687
0.0883068
0.0992592
0.111568
0.127496
0.152872
0.198484
0.279829
0.409408
0.55782
0.565059
0.414738
0.284202
0.202029
0.155802
0.130242
0.114564
0.102799
0.0925212
0.0833672
0.0759123
0.0710252
0.0695488
0.0720269
0.0784252
0.0885978
0.10237
0.119434
0.138903
0.158705
0.175084
0.182677
0.176263
0.156369
0.140267
0.156369
0.176263
0.182677
0.175084
0.158705
0.138903
0.119434
0.10237
0.0885978
0.0784252
0.0720269
0.0695488
0.0710252
0.0759123
0.0833672
0.0925212
0.102799
0.114564
0.130242
0.155802
0.202029
0.284202
0.414738
0.565059
0.573202
0.42132
0.289799
0.206535
0.159411
0.133476
0.117977
0.106776
0.097241
0.0888464
0.0820551
0.0776466
0.0763754
0.0787437
0.0848187
0.0945205
0.107654
0.123815
0.142025
0.160228
0.174892
0.181163
0.174535
0.155818
0.140716
0.155818
0.174535
0.181163
0.174892
0.160228
0.142025
0.123815
0.107654
0.0945205
0.0848187
0.0787437
0.0763754
0.0776466
0.0820551
0.0888464
0.097241
0.106776
0.117977
0.133476
0.159411
0.206535
0.289799
0.42132
0.573202
0.582315
0.429254
0.296736
0.212112
0.163771
0.137221
0.121778
0.111123
0.102376
0.0948024
0.0887266
0.0848294
0.0837874
0.0860722
0.0918269
0.101006
0.113393
0.128505
0.145299
0.161763
0.17462
0.179551
0.172743
0.155229
0.14112
0.155229
0.172743
0.179551
0.17462
0.161763
0.145299
0.128505
0.113393
0.101006
0.0918269
0.0860722
0.0837874
0.0848294
0.0887266
0.0948024
0.102376
0.111123
0.121778
0.137221
0.163771
0.212112
0.296736
0.429254
0.582315
0.592471
0.438657
0.305164
0.218908
0.168994
0.141524
0.125952
0.115775
0.107823
0.101114
0.0957988
0.0924466
0.0916569
0.0938742
0.099299
0.107899
0.119434
0.13336
0.1486
0.163219
0.174223
0.177833
0.170897
0.154602
0.14148
0.154602
0.170897
0.177833
0.174223
0.163219
0.1486
0.13336
0.119434
0.107899
0.099299
0.0938742
0.0916569
0.0924466
0.0957988
0.101114
0.107823
0.115775
0.125952
0.141524
0.168994
0.218908
0.305164
0.438657
0.592471
0.60375
0.449671
0.315274
0.227125
0.175239
0.146473
0.130504
0.120666
0.113471
0.107642
0.10312
0.100341
0.0998236
0.101981
0.107057
0.115018
0.125601
0.138223
0.151801
0.164508
0.173658
0.176003
0.169003
0.153937
0.141792
0.153937
0.169003
0.176003
0.173658
0.164508
0.151801
0.138223
0.125601
0.115018
0.107057
0.101981
0.0998236
0.100341
0.10312
0.107642
0.113471
0.120666
0.130504
0.146473
0.175239
0.227125
0.315274
0.449671
0.60375
0.616243
0.462464
0.327305
0.237026
0.182737
0.152214
0.135481
0.125752
0.11921
0.114234
0.110514
0.108327
0.108094
0.110193
0.114896
0.122161
0.131704
0.142928
0.15477
0.165545
0.172885
0.174056
0.167066
0.153231
0.142056
0.153231
0.167066
0.174056
0.172885
0.165545
0.15477
0.142928
0.131704
0.122161
0.114896
0.110193
0.108094
0.108327
0.110514
0.114234
0.11921
0.125752
0.135481
0.152214
0.182737
0.237026
0.327305
0.462464
0.616243
0.630054
0.477234
0.341554
0.24896
0.191811
0.158983
0.140995
0.131028
0.124939
0.120731
0.117788
0.11619
0.116247
0.118284
0.122588
0.129106
0.137545
0.147306
0.157384
0.166254
0.171873
0.17199
0.165093
0.152483
0.142267
0.152483
0.165093
0.17199
0.171873
0.166254
0.157384
0.147306
0.137545
0.129106
0.122588
0.118284
0.116247
0.11619
0.117788
0.120731
0.124939
0.131028
0.140995
0.158983
0.191811
0.24896
0.341554
0.477234
0.630054
0.645296
0.494215
0.35839
0.263384
0.20292
0.167151
0.147276
0.136567
0.130605
0.126988
0.124742
0.123705
0.124039
0.126006
0.12989
0.135626
0.14292
0.151196
0.159525
0.166565
0.170593
0.169802
0.163087
0.151689
0.142421
0.151689
0.163087
0.169802
0.170593
0.166565
0.159525
0.151196
0.14292
0.135626
0.12989
0.126006
0.124039
0.123705
0.124742
0.126988
0.130605
0.136567
0.147276
0.167151
0.20292
0.263384
0.35839
0.494215
0.645296
0.662099
0.51368
0.378264
0.280887
0.216697
0.177285
0.154734
0.142587
0.136244
0.132906
0.131194
0.130641
0.131223
0.133108
0.136556
0.141493
0.147634
0.154443
0.16109
0.166422
0.169026
0.167491
0.161048
0.150845
0.142511
0.150845
0.161048
0.167491
0.169026
0.166422
0.16109
0.154443
0.147634
0.141493
0.136556
0.133108
0.131223
0.130641
0.131194
0.132906
0.136244
0.142587
0.154734
0.177285
0.216697
0.280887
0.378264
0.51368
0.662099
0.680606
0.535946
0.401723
0.302227
0.234018
0.190238
0.164072
0.149561
0.142084
0.138508
0.137028
0.136805
0.137567
0.139348
0.142353
0.146496
0.15151
0.156915
0.161992
0.165783
0.167161
0.165059
0.158976
0.149944
0.14253
0.149944
0.158976
0.165059
0.167161
0.165783
0.161992
0.156915
0.15151
0.146496
0.142353
0.139348
0.137567
0.136805
0.137028
0.138508
0.142084
0.149561
0.164072
0.190238
0.234018
0.302227
0.401723
0.535946
0.680606
0.700981
0.56138
0.42943
0.328371
0.256072
0.207274
0.176448
0.158397
0.148718
0.144086
0.142299
0.142105
0.142909
0.144538
0.147088
0.150459
0.154404
0.158509
0.162172
0.164622
0.164993
0.162508
0.156871
0.148979
0.142466
0.148979
0.156871
0.162508
0.164993
0.164622
0.162172
0.158509
0.154404
0.150459
0.147088
0.144538
0.142909
0.142105
0.142299
0.144086
0.148718
0.158397
0.176448
0.207274
0.256072
0.328371
0.42943
0.56138
0.700981
0.723409
0.590402
0.462171
0.360533
0.284458
0.230227
0.193717
0.170746
0.15743
0.1505
0.14749
0.146743
0.147284
0.148635
0.150684
0.153299
0.15625
0.159184
0.161617
0.16295
0.162542
0.159854
0.154739
0.147953
0.14232
0.147953
0.154739
0.159854
0.162542
0.16295
0.161617
0.159184
0.15625
0.153299
0.150684
0.148635
0.147284
0.146743
0.14749
0.1505
0.15743
0.170746
0.193717
0.230227
0.284458
0.360533
0.462171
0.590402
0.723409
0.748104
0.623492
0.50087
0.400208
0.321278
0.261704
0.21876
0.189468
0.17077
0.159794
0.154076
0.151699
0.151318
0.152053
0.153423
0.15522
0.15721
0.159087
0.160467
0.1609
0.159929
0.157199
0.152662
0.146935
0.142157
0.146935
0.152662
0.157199
0.159929
0.1609
0.160467
0.159087
0.15721
0.15522
0.153423
0.152053
0.151318
0.151699
0.154076
0.159794
0.17077
0.189468
0.21876
0.261704
0.321278
0.400208
0.50087
0.623492
0.748104
0.775317
0.661197
0.546592
0.449194
0.369209
0.305278
0.25589
0.219287
0.193468
0.176313
0.16575
0.15992
0.157295
0.156589
0.156738
0.15739
0.158262
0.159058
0.159459
0.159124
0.157732
0.15506
0.151115
0.146376
0.142412
0.146376
0.151115
0.15506
0.157732
0.159124
0.159459
0.159058
0.158262
0.15739
0.156738
0.156589
0.157295
0.15992
0.16575
0.176313
0.193468
0.219287
0.25589
0.305278
0.369209
0.449194
0.546592
0.661197
0.775317
0.80536
0.704145
0.600542
0.509576
0.431522
0.36562
0.311211
0.267548
0.233692
0.208493
0.190654
0.178826
0.171714
0.167854
0.165479
0.164034
0.163123
0.162405
0.161569
0.16033
0.158444
0.155759
0.152297
0.148402
0.145183
0.148402
0.152297
0.155759
0.158444
0.16033
0.161569
0.162405
0.163123
0.164034
0.165479
0.167854
0.171714
0.178826
0.190654
0.208493
0.233692
0.267548
0.311211
0.36562
0.431522