# vtk DataFile Version 3.0
Malha 2D com triângulos e temperatura
ASCII
DATASET UNSTRUCTURED_GRID

POINTS 10000 double
0 0 0
10 0 0
10 10 0
0 10 0
0.10101 0 0
0.20202 0 0
0.30303 0 0
0.40404 0 0
0.505051 0 0
0.606061 0 0
0.707071 0 0
0.808081 0 0
0.909091 0 0
1.0101 0 0
1.11111 0 0
1.21212 0 0
1.31313 0 0
1.41414 0 0
1.51515 0 0
1.61616 0 0
1.71717 0 0
1.81818 0 0
1.91919 0 0
2.0202 0 0
2.12121 0 0
2.22222 0 0
2.32323 0 0
2.42424 0 0
2.52525 0 0
2.62626 0 0
2.72727 0 0
2.82828 0 0
2.92929 0 0
3.0303 0 0
3.13131 0 0
3.23232 0 0
3.33333 0 0
3.43434 0 0
3.53535 0 0
3.63636 0 0
3.73737 0 0
3.83838 0 0
3.93939 0 0
4.0404 0 0
4.14141 0 0
4.24242 0 0
4.34343 0 0
4.44444 0 0
4.54545 0 0
4.64646 0 0
4.74747 0 0
4.84848 0 0
4.94949 0 0
5.05051 0 0
5.15152 0 0
5.25253 0 0
5.35354 0 0
5.45455 0 0
5.55556 0 0
5.65657 0 0
5.75758 0 0
5.85859 0 0
5.9596 0 0
6.06061 0 0
6.16162 0 0
6.26263 0 0
6.36364 0 0
6.46465 0 0
6.56566 0 0
6.66667 0 0
6.76768 0 0
6.86869 0 0
6.9697 0 0
7.07071 0 0
7.17172 0 0
7.27273 0 0
7.37374 0 0
7.47475 0 0
7.57576 0 0
7.67677 0 0
7.77778 0 0
7.87879 0 0
7.9798 0 0
8.08081 0 0
8.18182 0 0
8.28283 0 0
8.38384 0 0
8.48485 0 0
8.58586 0 0
8.68687 0 0
8.78788 0 0
8.88889 0 0
8.9899 0 0
9.09091 0 0
9.19192 0 0
9.29293 0 0
9.39394 0 0
9.49495 0 0
9.59596 0 0
9.69697 0 0
9.79798 0 0
9.89899 0 0
10 0.10101 0
10 0.20202 0
10 0.30303 0
10 0.40404 0
10 0.505051 0
10 0.606061 0
10 0.707071 0
10 0.808081 0
10 0.909091 0
10 1.0101 0
10 1.11111 0
10 1.21212 0
10 1.31313 0
10 1.41414 0
10 1.51515 0
10 1.61616 0
10 1.71717 0
10 1.81818 0
10 1.91919 0
10 2.0202 0
10 2.12121 0
10 2.22222 0
10 2.32323 0
10 2.42424 0
10 2.52525 0
10 2.62626 0
10 2.72727 0
10 2.82828 0
10 2.92929 0
10 3.0303 0
10 3.13131 0
10 3.23232 0
10 3.33333 0
10 3.43434 0
10 3.53535 0
10 3.63636 0
10 3.73737 0
10 3.83838 0
10 3.93939 0
10 4.0404 0
10 4.14141 0
10 4.24242 0
10 4.34343 0
10 4.44444 0
10 4.54545 0
10 4.64646 0
10 4.74747 0
10 4.84848 0
10 4.94949 0
10 5.05051 0
10 5.15152 0
10 5.25253 0
10 5.35354 0
10 5.45455 0
10 5.55556 0
10 5.65657 0
10 5.75758 0
10 5.85859 0
10 5.9596 0
10 6.06061 0
10 6.16162 0
10 6.26263 0
10 6.36364 0
10 6.46465 0
10 6.56566 0
10 6.66667 0
10 6.76768 0
10 6.86869 0
10 6.9697 0
10 7.07071 0
10 7.17172 0
10 7.27273 0
10 7.37374 0
10 7.47475 0
10 7.57576 0
10 7.67677 0
10 7.77778 0
10 7.87879 0
10 7.9798 0
10 8.08081 0
10 8.18182 0
10 8.28283 0
10 8.38384 0
10 8.48485 0
10 8.58586 0
10 8.68687 0
10 8.78788 0
10 8.88889 0
10 8.9899 0
10 9.09091 0
10 9.19192 0
10 9.29293 0
10 9.39394 0
10 9.49495 0
10 9.59596 0
10 9.69697 0
10 9.79798 0
10 9.89899 0
9.89899 10 0
9.79798 10 0
9.69697 10 0
9.59596 10 0
9.49495 10 0
9.39394 10 0
9.29293 10 0
9.19192 10 0
9.09091 10 0
8.9899 10 0
8.88889 10 0
8.78788 10 0
8.68687 10 0
8.58586 10 0
8.48485 10 0
8.38384 10 0
8.28283 10 0
8.18182 10 0
8.08081 10 0
7.9798 10 0
7.87879 10 0
7.77778 10 0
7.67677 10 0
7.57576 10 0
7.47475 10 0
7.37374 10 0
7.27273 10 0
7.17172 10 0
7.07071 10 0
6.9697 10 0
6.86869 10 0
6.76768 10 0
6.66667 10 0
6.56566 10 0
6.46465 10 0
6.36364 10 0
6.26263 10 0
6.16162 10 0
6.06061 10 0
5.9596 10 0
5.85859 10 0
5.75758 10 0
5.65657 10 0
5.55556 10 0
5.45455 10 0
5.35354 10 0
5.25253 10 0
5.15152 10 0
5.05051 10 0
4.94949 10 0
4.84848 10 0
4.74747 10 0
4.64646 10 0
4.54545 10 0
4.44444 10 0
4.34343 10 0
4.24242 10 0
4.14141 10 0
4.0404 10 0
3.93939 10 0
3.83838 10 0
3.73737 10 0
3.63636 10 0
3.53535 10 0
3.43434 10 0
3.33333 10 0
3.23232 10 0
3.13131 10 0
3.0303 10 0
2.92929 10 0
2.82828 10 0
2.72727 10 0
2.62626 10 0
2.52525 10 0
2.42424 10 0
2.32323 10 0
2.22222 10 0
2.12121 10 0
2.0202 10 0
1.91919 10 0
1.81818 10 0
1.71717 10 0
1.61616 10 0
1.51515 10 0
1.41414 10 0
1.31313 10 0
1.21212 10 0
1.11111 10 0
1.0101 10 0
0.909091 10 0
0.808081 10 0
0.707071 10 0
0.606061 10 0
0.505051 10 0
0.40404 10 0
0.30303 10 0
0.20202 10 0
0.10101 10 0
0 9.89899 0
0 9.79798 0
0 9.69697 0
0 9.59596 0
0 9.49495 0
0 9.39394 0
0 9.29293 0
0 9.19192 0
0 9.09091 0
0 8.9899 0
0 8.88889 0
0 8.78788 0
0 8.68687 0
0 8.58586 0
0 8.48485 0
0 8.38384 0
0 8.28283 0
0 8.18182 0
0 8.08081 0
0 7.9798 0
0 7.87879 0
0 7.77778 0
0 7.67677 0
0 7.57576 0
0 7.47475 0
0 7.37374 0
0 7.27273 0
0 7.17172 0
0 7.07071 0
0 6.9697 0
0 6.86869 0
0 6.76768 0
0 6.66667 0
0 6.56566 0
0 6.46465 0
0 6.36364 0
0 6.26263 0
0 6.16162 0
0 6.06061 0
0 5.9596 0
0 5.85859 0
0 5.75758 0
0 5.65657 0
0 5.55556 0
0 5.45455 0
0 5.35354 0
0 5.25253 0
0 5.15152 0
0 5.05051 0
0 4.94949 0
0 4.84848 0
0 4.74747 0
0 4.64646 0
0 4.54545 0
0 4.44444 0
0 4.34343 0
0 4.24242 0
0 4.14141 0
0 4.0404 0
0 3.93939 0
0 3.83838 0
0 3.73737 0
0 3.63636 0
0 3.53535 0
0 3.43434 0
0 3.33333 0
0 3.23232 0
0 3.13131 0
0 3.0303 0
0 2.92929 0
0 2.82828 0
0 2.72727 0
0 2.62626 0
0 2.52525 0
0 2.42424 0
0 2.32323 0
0 2.22222 0
0 2.12121 0
0 2.0202 0
0 1.91919 0
0 1.81818 0
0 1.71717 0
0 1.61616 0
0 1.51515 0
0 1.41414 0
0 1.31313 0
0 1.21212 0
0 1.11111 0
0 1.0101 0
0 0.909091 0
0 0.808081 0
0 0.707071 0
0 0.606061 0
0 0.505051 0
0 0.40404 0
0 0.30303 0
0 0.20202 0
0 0.10101 0
0.10101 0.10101 0
0.10101 0.20202 0
0.10101 0.30303 0
0.10101 0.40404 0
0.10101 0.505051 0
0.10101 0.606061 0
0.10101 0.707071 0
0.10101 0.808081 0
0.10101 0.909091 0
0.10101 1.0101 0
0.10101 1.11111 0
0.10101 1.21212 0
0.10101 1.31313 0
0.10101 1.41414 0
0.10101 1.51515 0
0.10101 1.61616 0
0.10101 1.71717 0
0.10101 1.81818 0
0.10101 1.91919 0
0.10101 2.0202 0
0.10101 2.12121 0
0.10101 2.22222 0
0.10101 2.32323 0
0.10101 2.42424 0
0.10101 2.52525 0
0.10101 2.62626 0
0.10101 2.72727 0
0.10101 2.82828 0
0.10101 2.92929 0
0.10101 3.0303 0
0.10101 3.13131 0
0.10101 3.23232 0
0.10101 3.33333 0
0.10101 3.43434 0
0.10101 3.53535 0
0.10101 3.63636 0
0.10101 3.73737 0
0.10101 3.83838 0
0.10101 3.93939 0
0.10101 4.0404 0
0.10101 4.14141 0
0.10101 4.24242 0
0.10101 4.34343 0
0.10101 4.44444 0
0.10101 4.54545 0
0.10101 4.64646 0
0.10101 4.74747 0
0.10101 4.84848 0
0.10101 4.94949 0
0.10101 5.05051 0
0.10101 5.15152 0
0.10101 5.25253 0
0.10101 5.35354 0
0.10101 5.45455 0
0.10101 5.55556 0
0.10101 5.65657 0
0.10101 5.75758 0
0.10101 5.85859 0
0.10101 5.9596 0
0.10101 6.06061 0
0.10101 6.16162 0
0.10101 6.26263 0
0.10101 6.36364 0
0.10101 6.46465 0
0.10101 6.56566 0
0.10101 6.66667 0
0.10101 6.76768 0
0.10101 6.86869 0
0.10101 6.9697 0
0.10101 7.07071 0
0.10101 7.17172 0
0.10101 7.27273 0
0.10101 7.37374 0
0.10101 7.47475 0
0.10101 7.57576 0
0.10101 7.67677 0
0.10101 7.77778 0
0.10101 7.87879 0
0.10101 7.9798 0
0.10101 8.08081 0
0.10101 8.18182 0
0.10101 8.28283 0
0.10101 8.38384 0
0.10101 8.48485 0
0.10101 8.58586 0
0.10101 8.68687 0
0.10101 8.78788 0
0.10101 8.88889 0
0.10101 8.9899 0
0.10101 9.09091 0
0.10101 9.19192 0
0.10101 9.29293 0
0.10101 9.39394 0
0.10101 9.49495 0
0.10101 9.59596 0
0.10101 9.69697 0
0.10101 9.79798 0
0.10101 9.89899 0
0.20202 0.10101 0
0.20202 0.20202 0
0.20202 0.30303 0
0.20202 0.40404 0
0.20202 0.505051 0
0.20202 0.606061 0
0.20202 0.707071 0
0.20202 0.808081 0
0.20202 0.909091 0
0.20202 1.0101 0
0.20202 1.11111 0
0.20202 1.21212 0
0.20202 1.31313 0
0.20202 1.41414 0
0.20202 1.51515 0
0.20202 1.61616 0
0.20202 1.71717 0
0.20202 1.81818 0
0.20202 1.91919 0
0.20202 2.0202 0
0.20202 2.12121 0
0.20202 2.22222 0
0.20202 2.32323 0
0.20202 2.42424 0
0.20202 2.52525 0
0.20202 2.62626 0
0.20202 2.72727 0
0.20202 2.82828 0
0.20202 2.92929 0
0.20202 3.0303 0
0.20202 3.13131 0
0.20202 3.23232 0
0.20202 3.33333 0
0.20202 3.43434 0
0.20202 3.53535 0
0.20202 3.63636 0
0.20202 3.73737 0
0.20202 3.83838 0
0.20202 3.93939 0
0.20202 4.0404 0
0.20202 4.14141 0
0.20202 4.24242 0
0.20202 4.34343 0
0.20202 4.44444 0
0.20202 4.54545 0
0.20202 4.64646 0
0.20202 4.74747 0
0.20202 4.84848 0
0.20202 4.94949 0
0.20202 5.05051 0
0.20202 5.15152 0
0.20202 5.25253 0
0.20202 5.35354 0
0.20202 5.45455 0
0.20202 5.55556 0
0.20202 5.65657 0
0.20202 5.75758 0
0.20202 5.85859 0
0.20202 5.9596 0
0.20202 6.06061 0
0.20202 6.16162 0
0.20202 6.26263 0
0.20202 6.36364 0
0.20202 6.46465 0
0.20202 6.56566 0
0.20202 6.66667 0
0.20202 6.76768 0
0.20202 6.86869 0
0.20202 6.9697 0
0.20202 7.07071 0
0.20202 7.17172 0
0.20202 7.27273 0
0.20202 7.37374 0
0.20202 7.47475 0
0.20202 7.57576 0
0.20202 7.67677 0
0.20202 7.77778 0
0.20202 7.87879 0
0.20202 7.9798 0
0.20202 8.08081 0
0.20202 8.18182 0
0.20202 8.28283 0
0.20202 8.38384 0
0.20202 8.48485 0
0.20202 8.58586 0
0.20202 8.68687 0
0.20202 8.78788 0
0.20202 8.88889 0
0.20202 8.9899 0
0.20202 9.09091 0
0.20202 9.19192 0
0.20202 9.29293 0
0.20202 9.39394 0
0.20202 9.49495 0
0.20202 9.59596 0
0.20202 9.69697 0
0.20202 9.79798 0
0.20202 9.89899 0
0.30303 0.10101 0
0.30303 0.20202 0
0.30303 0.30303 0
0.30303 0.40404 0
0.30303 0.505051 0
0.30303 0.606061 0
0.30303 0.707071 0
0.30303 0.808081 0
0.30303 0.909091 0
0.30303 1.0101 0
0.30303 1.11111 0
0.30303 1.21212 0
0.30303 1.31313 0
0.30303 1.41414 0
0.30303 1.51515 0
0.30303 1.61616 0
0.30303 1.71717 0
0.30303 1.81818 0
0.30303 1.91919 0
0.30303 2.0202 0
0.30303 2.12121 0
0.30303 2.22222 0
0.30303 2.32323 0
0.30303 2.42424 0
0.30303 2.52525 0
0.30303 2.62626 0
0.30303 2.72727 0
0.30303 2.82828 0
0.30303 2.92929 0
0.30303 3.0303 0
0.30303 3.13131 0
0.30303 3.23232 0
0.30303 3.33333 0
0.30303 3.43434 0
0.30303 3.53535 0
0.30303 3.63636 0
0.30303 3.73737 0
0.30303 3.83838 0
0.30303 3.93939 0
0.30303 4.0404 0
0.30303 4.14141 0
0.30303 4.24242 0
0.30303 4.34343 0
0.30303 4.44444 0
0.30303 4.54545 0
0.30303 4.64646 0
0.30303 4.74747 0
0.30303 4.84848 0
0.30303 4.94949 0
0.30303 5.05051 0
0.30303 5.15152 0
0.30303 5.25253 0
0.30303 5.35354 0
0.30303 5.45455 0
0.30303 5.55556 0
0.30303 5.65657 0
0.30303 5.75758 0
0.30303 5.85859 0
0.30303 5.9596 0
0.30303 6.06061 0
0.30303 6.16162 0
0.30303 6.26263 0
0.30303 6.36364 0
0.30303 6.46465 0
0.30303 6.56566 0
0.30303 6.66667 0
0.30303 6.76768 0
0.30303 6.86869 0
0.30303 6.9697 0
0.30303 7.07071 0
0.30303 7.17172 0
0.30303 7.27273 0
0.30303 7.37374 0
0.30303 7.47475 0
0.30303 7.57576 0
0.30303 7.67677 0
0.30303 7.77778 0
0.30303 7.87879 0
0.30303 7.9798 0
0.30303 8.08081 0
[...]
CELL_DATA 9801
SCALARS Temperatura double 1
LOOKUP_TABLE default
2.01443e-12
2.11207e-13
-6.56191e-12
-2.28102e-11
-5.05003e-11
-8.03336e-11
-7.56332e-11
4.72419e-11
4.25713e-10
1.20829e-09
2.40386e-09
3.56178e-09
3.27579e-09
-1.33421e-09
-1.47076e-08
-4.16305e-08
-8.35139e-08
-1.31025e-07
-1.52984e-07
-8.39923e-08
1.82408e-07
7.82805e-07
1.83829e-06
3.35666e-06
5.07287e-06
6.23823e-06
5.40173e-06
2.69116e-07
-1.22353e-05
-3.55578e-05
-7.26255e-05
-0.000124415
-0.00018804
-0.000254576
-0.000307004
-0.000318793
-0.000253653
-6.69377e-05
0.000291053
0.000869909
0.00171249
0.00284759
0.00428278
0.00599861
0.00794504
0.0100411
0.0121783
0.0142282
0.0160543
0.0175287
0.0185808
0.0194954
0.0201732
0.0205783
0.0206735
0.0204306
0.0198331
0.0188782
0.0175794
0.0159672
0.0140901
0.012013
0.00981514
0.00758567
0.00541845
0.0034052
0.00162829
0.000153568
-0.000975839
-0.00174376
-0.00216257
-0.00227148
-0.00213161
-0.00181815
-0.00141064
-0.00098298
-0.000594649
-0.000284856
-7.0554e-05
5.14305e-05
9.88805e-05
9.68346e-05
7.03184e-05
3.891e-05
1.41747e-05
-1.94006e-09
-5.05747e-06
-4.72465e-06
-2.56381e-06
-7.15892e-07
1.63794e-07
3.07104e-07
1.65807e-07
3.25486e-08
-1.59947e-08
-1.38867e-08
-3.35022e-09
7.12397e-10
6.30958e-10
-4.75573e-12
-1.87299e-11
-3.75078e-11
-5.19504e-11
-2.80514e-11
1.03159e-10
4.40303e-10
1.05498e-09
1.83682e-09
2.20653e-09
7.40322e-10
-5.06974e-09
-1.8401e-08
-4.11889e-08
-6.97644e-08
-8.76211e-08
-5.66129e-08
8.88262e-08
4.35255e-07
1.05801e-06
1.94847e-06
2.89284e-06
3.31296e-06
2.11302e-06
-2.38108e-06
-1.22609e-05
-2.95037e-05
-5.49443e-05
-8.67128e-05
-0.000118252
-0.000136222
-0.000118797
-3.49395e-05
0.000154755
0.000495324
0.00103284
0.0018085
0.00285239
0.00417818
0.00578
0.00763247
0.00969395
0.0119126
0.0142341
0.0166088
0.0189964
0.0213677
0.0237012
0.025975
0.0281574
0.0302075
0.0320535
0.0336254
0.0348578
0.0356884
0.036062
0.0359337
0.0352721
0.0340634
0.032314
0.0300531
0.0273345
0.0242367
0.0208609
0.017328
0.013772
0.0103324
0.00714438
0.00432763
0.00197628
0.000149541
-0.00113427
-0.00189949
-0.00220977
-0.00215954
-0.00186124
-0.0014301
-0.000969101
-0.000556829
-0.00024064
-3.6226e-05
6.67325e-05
9.47633e-05
7.95708e-05
4.87902e-05
2.06303e-05
2.95744e-06
-4.19763e-06
-4.6646e-06
-2.63096e-06
-7.40379e-07
1.545e-07
2.84404e-07
1.39426e-07
1.87252e-08
-1.65097e-08
-1.00539e-08
-1.29733e-09
9.88152e-10
-2.51436e-11
-4.1805e-11
-3.16628e-11
5.58179e-11
3.02712e-10
7.79435e-10
1.42229e-09
1.79309e-09
7.49162e-10
-3.78758e-09
-1.45006e-08
-3.30142e-08
-5.6003e-08
-6.87007e-08
-3.71415e-08
9.624e-08
4.04458e-07
9.41926e-07
1.67091e-06
2.34346e-06
2.35582e-06
6.29469e-07
-4.38119e-06
-1.44148e-05
-3.07145e-05
-5.28253e-05
-7.69024e-05
-9.37432e-05
-8.69705e-05
-3.1957e-05
0.000103898
0.000359108
0.000774237
0.00138672
0.00222545
0.00330635
0.00463037
0.00618449
0.00794579
0.0098875
0.0119853
0.0142222
0.0165896
0.0190855
0.0217088
0.0244528
0.0272986
0.0302125
0.0331457
0.0360384
0.0388153
0.0413759
0.0436497
0.0455588
0.047029
0.0479918
0.0483874
0.048168
0.0473013
0.0457734
0.0435921
0.0407895
0.0374241
0.0335815
0.0293734
0.0249351
0.0204202
0.0159925
0.0118157
0.00804166
0.004797
0.00217124
0.000207293
-0.0011035
-0.00182024
-0.0020446
-0.00190685
-0.00154754
-0.00109809
-0.000664106
-0.000314563
-7.92849e-05
4.55253e-05
8.57864e-05
7.58745e-05
4.68277e-05
1.93327e-05
2.31719e-06
-4.151e-06
-4.19122e-06
-2.11625e-06
-4.3451e-07
2.28552e-07
2.39296e-07
8.5498e-08
-2.42743e-09
-1.50106e-08
-4.98883e-09
7.55185e-10
-3.78437e-11
1.0152e-11
1.60754e-10
4.87877e-10
9.88194e-10
1.41083e-09
9.87158e-10
-1.81507e-09
-9.17117e-09
-2.27833e-08
-4.09667e-08
-5.34531e-08
-3.47595e-08
6.0244e-08
2.90835e-07
7.03285e-07
1.26963e-06
1.78726e-06
1.75433e-06
2.70597e-07
-3.94357e-06
-1.22803e-05
-2.55949e-05
-4.30923e-05
-6.07939e-05
-6.98157e-05
-5.48882e-05
6.32515e-06
0.000142588
0.000386857
0.000772626
0.00132956
0.00207954
0.00303434
0.00419586
0.00555906
0.00711688
0.00886558
0.0108087
0.012958
0.0153314
0.0179473
0.0208181
0.0239438
0.0273082
0.0308779
0.0346031
0.0384211
0.0422593
0.0460385
0.0496692
0.0530664
0.0561427
0.058809
0.0609795
0.0625751
0.0635255
0.0637722
0.0632714
0.0619961
0.0599394
0.0571164
0.0535671
0.049358
0.0445839
0.0393675
0.033858
0.0282266
0.0226601
0.0173499
0.0124795
0.00820957
0.0046621
0.00190762
-4.38937e-05
-0.00124489
-0.00180369
-0.00186955
-0.00161104
-0.00119173
-0.00074785
-0.000372971
-0.000112834
2.9142e-05
7.82515e-05
7.16602e-05
4.3683e-05
1.7048e-05
1.1899e-06
-4.19901e-06
-3.66759e-06
-1.57549e-06
-1.57272e-07
2.6332e-07
1.79609e-07
3.92918e-08
-1.28442e-08
-1.00579e-08
-7.37759e-10
3.23159e-11
2.54117e-10
6.04793e-10
1.01801e-09
1.06539e-09
-2.49533e-10
-4.56096e-09
-1.35888e-08
-2.72963e-08
-4.01633e-08
-3.57984e-08
1.78542e-08
1.6711e-07
4.55549e-07
8.80245e-07
1.31437e-06
1.40438e-06
4.78292e-07
-2.46033e-06
-8.54284e-06
-1.85305e-05
-3.19143e-05
-4.56462e-05
-5.26927e-05
-4.07794e-05
8.19603e-06
0.000117639
0.00031442
0.00062594
0.00107678
0.00168596
0.00246582
0.00342314
0.00456245
0.00589043
0.00741999
0.00917249
0.0111769
0.0134662
0.0160716
0.0190165
0.0223117
0.0259527
0.0299188
0.0341746
0.0386712
0.0433481
0.0481336
0.0529466
0.0576975
0.0622826
0.0665953
0.0705346
0.0739973
0.0768865
0.0791137
0.0806018
0.081288
0.0811247
0.0800822
0.0781492
0.0753344
0.0716679
0.0672022
0.0620145
0.0562079
0.0499125
0.0432851
0.0365076
0.029781
0.0233172
0.0173255
0.0119969
0.00748582
0.00389232
0.00124876
-0.000486306
-0.00142417
-0.00173079
-0.00160226
-0.00123512
-0.000797828
-0.000410068
-0.000134478
1.79097e-05
7.16322e-05
6.63813e-05
3.91526e-05
1.38966e-05
-1.81261e-07
-4.15986e-06
-3.03528e-06
-1.03e-06
5.96929e-08
2.50304e-07
1.12763e-07
6.61535e-09
-1.35675e-08
-4.15156e-09
2.61986e-10
6.4344e-10
9.03537e-10
5.5277e-10
-1.49706e-09
-6.72782e-09
-1.60856e-08
-2.76567e-08
-3.27041e-08
-1.10507e-08
7.0779e-08
2.51942e-07
5.50815e-07
9.11451e-07
1.12375e-06
7.38554e-07
-9.70198e-07
-4.9109e-06
-1.18439e-05
-2.17314e-05
-3.2761e-05
-4.01659e-05
-3.51199e-05
-4.09762e-06
7.09181e-05
0.000211184
0.000439046
0.000775441
0.00123791
0.00183996
0.00259234
0.00350596
0.00459574
0.0058839
0.00740146
0.0091872
0.0112842
0.0137346
0.0165751
0.019832
0.0235195
0.0276381
0.0321747
0.0371022
0.0423791
0.047949
0.0537402
0.0596656
0.0656253
0.0715087
0.0771888
0.0825375
0.0874339
0.0917562
0.0953924
0.0982427
0.100224
0.10127
0.101338
0.100402
0.0984607
0.0955297
0.0916453
0.0868622
0.081253
0.0749096
0.0679441
0.0604909
0.0527088
0.0447806
0.0369116
0.029323
0.0222407
0.015879
0.01042
0.00599256
0.00265282
0.000373185
-0.000957394
-0.00151916
-0.00153439
-0.00123225
-0.000813545
-0.000423971
-0.000142564
1.27718e-05
6.63444e-05
6.02836e-05
3.3527e-05
1.02082e-05
-1.54334e-06
-3.93186e-06
-2.31423e-06
-5.34003e-07
1.90849e-07
1.96971e-07
5.25073e-08
-9.3755e-09
-9.29826e-09
5.78069e-10
7.20684e-10
4.59392e-11
-2.45387e-09
-7.97046e-09
-1.66355e-08
-2.50109e-08
-2.23602e-08
1.26953e-08
1.11032e-07
3.00466e-07
5.73663e-07
8.32188e-07
8.14667e-07
3.95282e-08
-2.17839e-06
-6.5545e-06
-1.34217e-05
-2.20388e-05
-2.96747e-05
-3.06494e-05
-1.56285e-05
2.85019e-05
0.000117959
0.000270624
0.000504215
0.000834746
0.001276
0.00184049
0.00254195
0.00339854
0.00443587
0.00568852
0.00719952
0.00901777
0.011194
0.0137768
0.0168087
0.0203241
0.0243473
0.0288916
0.0339577
0.0395315
0.0455824
0.0520612
0.0588988
0.0660064
0.0732763
0.0805848
0.0877955
0.0947534
0.101302
0.107293
0.112581
0.117031
0.120528
0.122979
0.124313
0.12449
0.123497
0.121347
0.118077
0.113745
0.108426
0.102211
0.0952007
0.0875056
0.0792486
0.0705659
0.0616111
0.052559
0.0436066
0.0349718
0.0268844
0.0195716
0.0132365
0.00803255
0.00403904
0.00124379
-0.0004616
-0.00126922
-0.00142564
-0.00119128
-0.000797889
-0.000415467
-0.000137415
1.33898e-05
6.21454e-05
5.34109e-05
2.71249e-05
6.3757e-06
-2.63797e-06
-3.45491e-06
-1.56006e-06
-1.43407e-07
2.28956e-07
1.22937e-07
1.08972e-08
-1.4025e-08
6.17506e-10
-3.41115e-10
-2.99656e-09
-8.30732e-09
-1.57505e-08
-2.09497e-08
-1.24441e-08
3.03356e-08
1.33568e-07
3.13537e-07
5.42795e-07
6.97304e-07
4.9766e-07
-5.20565e-07
-2.94834e-06
-7.28424e-06
-1.34975e-05
-2.03715e-05
-2.47213e-05
-2.06839e-05
6.53224e-07
5.10554e-05
0.000144308
0.000294945
0.00051702
0.000823516
0.00122691
0.00174101
0.0023837
0.00317973
0.00416258
0.00537479
0.00686644
0.00869245
0.0109093
0.0135722
0.0167327
0.0204369
0.024724
0.0296238
0.0351543
0.0413185
0.0481008
0.0554643
0.063349
0.0716704
0.0803194
0.0891645
0.0980538
0.10682
0.115274
0.123226
0.130494
0.136899
0.14228
0.146497
0.14944
0.151031
0.15123
0.150033
0.147469
0.143605
0.13853
0.132358
0.125214
0.117234
0.108553
0.0993073
0.0896304
0.079658
0.0695326
0.0594106
0.0494688
0.0399073
0.0309461
0.0228129
0.0157219
0.00984524
0.0052827
0.00203734
4.88566e-06
-0.00101658
-0.00129584
-0.00112223
-0.000755698
-0.000387178
-0.000120836
1.84564e-05
5.83496e-05
4.57333e-05
2.03294e-05
2.81929e-06
-3.25817e-06
-2.74112e-06
-8.58982e-07
1.01368e-07
1.90877e-07
5.34636e-08
-1.32872e-08
-2.00221e-10
-3.15675e-09
-7.95148e-09
-1.40668e-08
-1.6768e-08
-4.8875e-09
4.01498e-08
1.39409e-07
2.99959e-07
4.82244e-07
5.53307e-07
2.4166e-07
-8.70683e-07
-3.26493e-06
-7.25226e-06
-1.25553e-05
-1.77291e-05
-1.95299e-05
-1.24229e-05
1.15618e-05
6.24861e-05
0.000151719
0.000290989
0.000491742
0.000765278
0.00112396
0.00158334
0.00216474
0.00289735
0.00381937
0.00497767
0.00642628
0.00822417
0.0104331
0.0131156
0.0163339
0.0201477
0.0246127
0.0297773
0.0356795
0.0423421
0.0497696
0.0579434
0.0668193
0.0763247
0.0863577
0.0967868
0.107453
0.118172
0.128742
0.138934
0.148518
0.157274
0.164983
0.17145
0.176505
0.180015
0.181887
0.182074
0.180577
0.177443
0.172763
0.166663
0.1593
0.150852
0.141504
0.131442
0.120844
0.109871
0.0986692
0.0873714
0.0761027
0.0649922
0.0541844
0.043848
0.034179
0.0253924
0.0177028
0.0112933
0.00628006
0.00267979
0.000392627
-0.000791834
-0.0011625
-0.00103472
-0.000692572
-0.000342952
-9.57592e-05
2.59794e-05
5.40631e-05
3.72905e-05
1.36152e-05
-6.21223e-08
-3.30008e-06
-1.88389e-06
-3.04911e-07
1.93248e-07
1.13921e-07
5.07236e-10
-2.28236e-09
-7.20402e-09
-1.2095e-08
-1.32031e-08
-2.68077e-10
4.28117e-08
1.32603e-07
2.70195e-07
4.11585e-07
4.27919e-07
7.19498e-08
-1.01603e-06
-3.21588e-06
-6.70312e-06
-1.10737e-05
-1.48559e-05
-1.50194e-05
-6.64399e-06
1.70926e-05
6.45454e-05
0.000144961
0.000267861
0.000442864
0.000680282
0.00099261
0.00139664
0.00191565
0.00258109
0.00343323
0.00452073
0.00589954
0.00763147
0.00978296
0.012424
0.0156271
0.0194659
0.0240126
0.0293347
0.0354916
0.042529
0.050475
0.0593349
0.0690869
0.0796786
0.0910239
0.103001
0.115455
0.128193
0.140998
0.153626
0.165807
0.177264
0.187731
0.196948
0.204677
0.210715
0.214897
0.217113
0.217304
0.215471
0.21167
0.206016
0.198669
0.18983
0.179731
0.168617
0.156739
0.144337
0.13163
0.118806
0.106022
0.0934035
0.0810533
0.0690651
0.0575406
0.0466053
0.0364179
0.0271684
0.0190611
0.0122823
0.00695924
0.00311968
0.000667366
-0.000616135
-0.00103807
-0.000936368
-0.00061399
-0.000287343
-6.58314e-05
3.36515e-05
4.847e-05
2.8326e-05
7.53545e-06
-1.96526e-06
-2.80263e-06
-1.03819e-06
3.61788e-08
1.66827e-07
3.4567e-08
-5.31126e-09
-1.02227e-08
-1.04874e-08
1.74143e-09
4.01581e-08
1.17838e-07
2.32929e-07
3.42882e-07
3.31393e-07
-1.65277e-08
-1.00189e-06
-2.92206e-06
-5.8691e-06
-9.40798e-06
-1.21772e-05
-1.15112e-05
-3.22015e-06
1.83622e-05
6.00463e-05
0.000129309
0.000233952
0.000382231
0.000583692
0.000850715
0.00120046
0.00165675
0.0022514
0.00302475
0.00402544
0.00530984
0.0069414
0.00899019
0.0115325
0.01465
0.0184286
0.0229561
0.0283188
0.0345973
0.041862
0.0501674
0.0595469
0.0700071
0.081523
0.0940332
0.107437
0.12159
0.13631
0.151372
0.166517
0.181457
0.195873
0.20944
0.221842
0.23277
0.24194
0.24911
0.254084
0.256725
0.256961
0.254789
0.250273
0.243547
0.2348
0.224275
0.212254
0.199045
0.184964
0.170325
0.155417
0.140498
0.12578
0.111425
0.0975466
0.0842202
0.0714975
0.0594293
0.048088
0.0375846
0.0280737
0.0197402
0.0127663
0.0072851
0.00333219
0.000813077
-0.000499143
-0.000928649
-0.000832089
-0.000524915
-0.00022526
-3.50101e-05
3.92653e-05
4.11166e-05
1.93613e-05
2.64541e-06
-2.76784e-06
-1.95229e-06
-3.68976e-07
1.59368e-07
8.94558e-08
-7.91232e-09
-8.62464e-09
1.89401e-09
3.4265e-08
9.9158e-08
1.94054e-07
2.81632e-07
2.62534e-07
-4.37707e-08
-8.84924e-07
-2.49597e-06
-4.92699e-06
-7.77587e-06
-9.86661e-06
-8.95922e-06
-1.59877e-06
1.68184e-05
5.17743e-05
0.000109296
0.00019581
0.000318448
0.000485966
0.000710214
0.00100789
0.00140214
0.00192375
0.00261166
0.00351311
0.00468356
0.00618673
0.00809475
0.0104883
0.0134561
0.0170942
0.0215038
0.0267881
0.0330484
0.0403792
0.0488632
0.0585643
0.069522
0.081745
0.0952043
0.109829
0.125502
0.142057
0.159279
0.176906
0.194636
0.212132
0.229023
0.24493
0.25948
0.272312
0.283094
0.291538
0.297415
0.30056
0.300886
0.298385
0.293127
0.285263
0.275011
0.262653
0.248518
0.23297
0.216392
0.199166
0.181658
0.164202
0.147083
0.130527
0.114696
0.0996864
0.0855391
0.072259
0.0598405
0.0482963
0.0376828
0.028112
0.0197423
0.0127463
0.00725856
0.00331891
0.000831918
-0.000439106
-0.000834202
-0.000724322
-0.000429851
-0.000161762
-7.13854e-06
4.11369e-05
3.21261e-05
1.11619e-05
-6.33721e-07
-2.59121e-06
-1.03273e-06
1.85686e-08
1.5054e-07
-7.89108e-09
9.55712e-10
2.69466e-08
7.95382e-08
1.57003e-07
2.29107e-07
2.14819e-07
-3.32028e-08
-7.16478e-07
-2.02448e-06
-3.99309e-06
-6.28771e-06
-7.9465e-06
-7.15493e-06
-1.13663e-06
1.37848e-05
4.19785e-05
8.8285e-05
0.000157992
0.000257221
0.000393827
0.000578749
0.000827545
0.00116182
0.0016103
0.0022095
0.00300411
0.00404748
0.00540209
0.00714027
0.00934476
0.0121088
0.0155357
0.0197368
0.0248298
0.0309341
0.0381673
0.0466391
0.0564452
0.0676605
0.0803311
0.0944678
0.110038
0.126961
0.145101
0.164266
0.18421
0.20463
0.225176
0.245457
0.265048
0.283508
0.300406
0.315322
0.327871
0.33772
0.344599
0.348318
0.348772
0.345946
0.339921
0.330863
0.319021
0.304716
0.288325
0.270266
0.250981
0.23092
0.210517
0.190181
0.170271
0.151089
0.132863
0.115743
0.0998002
0.0850375
0.071409
0.0588496
0.0473093
0.0367867
0.0273472
0.0191198
0.0122638
0.00691178
0.00310432
0.000741642
-0.000424806
-0.000749991
-0.00061396
-0.000333196
-0.000101865
1.45183e-05
3.8485e-05
2.22691e-05
4.56836e-06
-2.17375e-06
-1.79276e-06
-3.18942e-07
1.80971e-07
-3.08145e-09
1.96228e-08
6.09357e-08
1.23512e-07
1.84551e-07
1.8073e-07
-5.13959e-09
-5.35553e-07
-1.56645e-06
-3.13481e-06
-4.98602e-06
-6.36973e-06
-5.86199e-06
-1.28043e-06
1.02677e-05
3.22327e-05
6.84787e-05
0.000123326
0.000201951
0.000311212
0.00046085
0.000664838
0.000942654
0.00132031
0.00183113
0.00251642
0.00342628
0.00462049
0.00616967
0.00815624
0.010675
0.013833
0.0177488
0.0225503
0.0283722
0.0353516
0.0436233
0.0533134
0.0645319
0.0773653
0.0918673
0.108051
0.12588
0.145263
0.166045
0.188009
0.210872
0.234287
0.257855
0.281128
0.303619
0.324826
0.344251
0.361414
0.375872
0.387242
0.395213
0.399565
0.400175
0.397025
0.390201
0.379894
0.366384
0.350032
0.331268
0.310563
0.28842
0.265351
0.241856
0.218408
0.195436
0.173311
0.152328
0.132705
0.114568
0.0979549
0.0828265
0.0690838
0.0566016
0.0452682
0.0350244
0.0258898
0.0179636
0.011391
0.00630055
0.00273005
0.000571323
-0.000438754
-0.00066884
-0.000501663
-0.000239629
-5.02463e-05
2.77778e-05
3.16763e-05
1.28215e-05
2.17717e-07
-2.24209e-06
-8.53025e-07
1.22691e-07
7.54036e-09
4.47809e-08
9.43092e-08
1.46651e-07
1.54091e-07
2.58216e-08
-3.67786e-07
-1.15684e-06
-2.38554e-06
-3.87697e-06
-5.0715e-06
-4.88409e-06
-1.63373e-06
6.92444e-06
2.3489e-05
5.11194e-05
9.3305e-05
0.000154334
0.000240028
0.000358774
0.00052271
0.000748868
0.00106017
0.00148628
0.00206448
0.00284069
0.00387072
0.00522168
0.00697333
0.00921911
0.0120667
0.0156375
0.0200662
0.0254976
0.0320847
0.0399829
0.0493455
0.0603158
0.0730194
0.0875548
0.103984
0.122323
0.142532
0.164508
0.188077
0.212994
0.238938
0.265518
0.292281
0.318719
0.344281
0.368397
0.390504
0.410054
0.426544
0.439536
0.448678
0.453715
0.454508
0.451032
0.443385
0.431777
0.416526
0.398039
0.376797
0.353334
0.328214
0.302012
0.275292
0.248588
0.222389
0.197123
0.173148
0.150739
0.130083
0.111272
0.0943033
0.0790903
0.0654814
0.053294
0.042358
0.0325609
0.0238805
0.0163892
0.0102197
0.0054956
0.00224824
0.000356251
-0.000460983
-0.000583705
-0.00038915
-0.000154251
-1.07372e-05
3.20123e-05
2.22176e-05
5.18811e-06
-1.74863e-06
-1.4555e-06
-8.7599e-08
2.30269e-08
7.01665e-08
1.14259e-07
1.30871e-07
5.09844e-08
-2.27274e-07
-8.12768e-07
-1.75706e-06
-2.95045e-06
-3.99456e-06
-4.08646e-06
-1.95693e-06
4.1122e-06
1.621e-05
3.6734e-05
6.84616e-05
0.000114869
0.000180753
0.000273113
0.000402176
0.000582421
0.000833527
0.00118127
0.00165852
0.00230636
0.0031756
0.00432834
0.00583965
0.00779902
0.0103114
0.0134975
0.0174938
0.0224511
0.0285323
0.0359087
0.0447554
0.0552445
0.0675376
0.0817764
0.0980724
0.116496
0.137067
0.159742
0.184405
0.210865
0.238847
0.267992
0.297862
0.327948
0.35768
0.386441
0.413594
0.438501
0.460548
0.479167
0.493866
0.504245
0.510016
0.511019
0.507225
0.498739
0.485797
0.468752
0.44806
0.42426
0.397948
0.369758
0.34033
0.310293
0.280244
0.250726
0.22222
0.19513
0.169782
0.146408
0.125151
0.106056
0.0890751
0.0740723
0.0608452
0.0491582
0.0387895
0.0295805
0.0214745
0.0145234
0.00885054
0.00457403
0.0017148
0.000132751
-0.000472876
-0.000490042
-0.000280065
-8.22788e-05
1.43826e-05
2.84256e-05
1.23867e-05
3.68935e-07
-1.82674e-06
-4.84327e-07
4.03576e-08
8.74919e-08
1.09014e-07
6.65357e-08
-1.19379e-07
-5.38954e-07
-1.2482e-06
-2.19053e-06
-3.09702e-06
-3.39178e-06
-2.13624e-06
1.96566e-06
1.05131e-05
2.53639e-05
4.86937e-05
8.32566e-05
0.000132895
0.000203277
0.000302774
0.000443368
0.000641538
0.000919157
0.0013045
0.00183348
0.00255118
0.00351361
0.00478954
0.0064623
0.00863125
0.0114129
0.0149413
0.0193679
0.0248602
0.0315989
0.0397749
0.0495827
0.0612142
0.0748495
0.0906468
0.108731
0.129182
0.152023
0.177207
0.204608
0.234014
0.265121
0.297532
0.330762
0.364245
0.397347
0.429385
0.459652
0.487435
0.512051
0.532867
0.549332
0.560999
0.567546
0.568789
0.564694
0.555374
0.541088
0.522227
0.499296
0.472893
0.443681
0.412363
0.379652
0.346244
0.3128
0.279922
0.248138
0.217896
0.189556
0.163386
0.139564
0.118173
0.0992062
0.0825627
0.068059
0.0554458
0.0444417
0.0347816
0.026271
0.0188283
0.0124928
0.00738333
0.00361176
0.00118342
-6.65371e-05
-0.000460518
-0.00038753
-0.000180073
-2.81716e-05
2.51036e-05
1.99029e-05
4.49134e-06
-1.51691e-06
-1.02642e-06
5.51612e-08
8.90517e-08
7.2028e-08
-4.35162e-08
-3.3215e-07
-8.5026e-07
-1.57979e-06
-2.35103e-06
-2.76528e-06
-2.1442e-06
4.74472e-07
6.30027e-06
1.67555e-05
3.3518e-05
5.87207e-05
9.53585e-05
0.000147891
0.000222981
0.000330288
0.000483274
0.000700058
0.0010044
0.00142695
0.00200672
0.00279293
0.00384696
0.00524434
0.00707659
0.00945286
0.0125011
0.0163685
0.0212214
0.0272439
0.0346351
0.0436047
0.0543672
0.0671342
0.0821044
0.0994529
0.119318
0.14179
0.166895
0.194583
0.224718
0.257069
0.291302
0.326984
0.363581
0.400471
0.436956
0.472289
0.50569
0.536374
0.563585
0.586627
0.604889
0.617876
0.62523
0.626744
0.622375
0.612246
0.596638
0.575978
0.55082
0.521821
0.48971
0.455261
0.41926
0.382475
0.345633
0.309396
0.274344
0.240966
0.209653
0.180699
0.154301
0.130566
0.109514
0.0910756
0.0751007
0.0613599
0.0495628
0.0393909
0.0305463
0.0228101
0.0160875
0.0104145
0.00590991
0.00267759
0.000700665
-0.000216539
-0.000417167
-0.000280738
-9.59741e-05
5.64091e-06
2.40642e-05
1.02482e-05
-4.83344e-08
-1.55536e-06
6.29792e-08
7.02286e-08
4.35435e-09
-1.84396e-07
-5.50346e-07
-1.10066e-06
-1.7381e-06
-2.19825e-06
-2.0036e-06
-4.5236e-07
3.35831e-06
1.05044e-05
2.22602e-05
4.02436e-05
6.67281e-05
0.000105125
0.000160593
0.000240719
0.000356233
0.000521793
0.0007569
0.00108706
0.00154525
0.00217364
0.0030256
0.00416782
0.00568234
0.00766863
0.0102453
0.0135513
0.0177468
0.0230126
0.0295491
0.037573
0.0473129
0.0590028
0.0728736
0.0891425
0.108001
0.129602
0.154045
0.181359
0.211493
0.244301
0.279533
0.316828