# vtk DataFile Version 3.0
Malha 2D com triângulos e temperatura
ASCII
DATASET UNSTRUCTURED_GRID

POINTS 10000 double
0 0 0
10 0 0
10 10 0
0 10 0
0.10101 0 0
0.20202 0 0
0.30303 0 0
0.40404 0 0
0.505051 0 0
0.606061 0 0
0.707071 0 0
0.808081 0 0
0.909091 0 0
1.0101 0 0
1.11111 0 0
1.21212 0 0
1.31313 0 0
1.41414 0 0
1.51515 0 0
1.61616 0 0
1.71717 0 0
1.81818 0 0
1.91919 0 0
2.0202 0 0
2.12121 0 0
2.22222 0 0
2.32323 0 0
2.42424 0 0
2.52525 0 0
2.62626 0 0
2.72727 0 0
2.82828 0 0
2.92929 0 0
3.0303 0 0
3.13131 0 0
3.23232 0 0
3.33333 0 0
3.43434 0 0
3.53535 0 0
3.63636 0 0
3.73737 0 0
3.83838 0 0
3.93939 0 0
4.0404 0 0
4.14141 0 0
4.24242 0 0
4.34343 0 0
4.44444 0 0
4.54545 0 0
4.64646 0 0
4.74747 0 0
4.84848 0 0
4.94949 0 0
5.05051 0 0
5.15152 0 0
5.25253 0 0
5.35354 0 0
5.45455 0 0
5.55556 0 0
5.65657 0 0
5.75758 0 0
5.85859 0 0
5.9596 0 0
6.06061 0 0
6.16162 0 0
6.26263 0 0
6.36364 0 0
6.46465 0 0
6.56566 0 0
6.66667 0 0
6.76768 0 0
6.86869 0 0
6.9697 0 0
7.07071 0 0
7.17172 0 0
7.27273 0 0
7.37374 0 0
7.47475 0 0
7.57576 0 0
7.67677 0 0
7.77778 0 0
7.87879 0 0
7.9798 0 0
8.08081 0 0
8.18182 0 0
8.28283 0 0
8.38384 0 0
8.48485 0 0
8.58586 0 0
8.68687 0 0
8.78788 0 0
8.88889 0 0
8.9899 0 0
9.09091 0 0
9.19192 0 0
9.29293 0 0
9.39394 0 0
9.49495 0 0
9.59596 0 0
9.69697 0 0
9.79798 0 0
9.89899 0 0
10 0.10101 0
10 0.20202 0
10 0.30303 0
10 0.40404 0
10 0.505051 0
10 0.606061 0
10 0.707071 0
10 0.808081 0
10 0.909091 0
10 1.0101 0
10 1.11111 0
10 1.21212 0
10 1.31313 0
10 1.41414 0
10 1.51515 0
10 1.61616 0
10 1.71717 0
10 1.81818 0
10 1.91919 0
10 2.0202 0
10 2.12121 0
10 2.22222 0
10 2.32323 0
10 2.42424 0
10 2.52525 0
10 2.62626 0
10 2.72727 0
10 2.82828 0
10 2.92929 0
10 3.0303 0
10 3.13131 0
10 3.23232 0
10 3.33333 0
10 3.43434 0
10 3.53535 0
10 3.63636 0
10 3.73737 0
10 3.83838 0
10 3.93939 0
10 4.0404 0
10 4.14141 0
10 4.24242 0
10 4.34343 0
10 4.44444 0
10 4.54545 0
10 4.64646 0
10 4.74747 0
10 4.84848 0
10 4.94949 0
10 5.05051 0
10 5.15152 0
10 5.25253 0
10 5.35354 0
10 5.45455 0
10 5.55556 0
10 5.65657 0
10 5.75758 0
10 5.85859 0
10 5.9596 0
10 6.06061 0
10 6.16162 0
10 6.26263 0
10 6.36364 0
10 6.46465 0
10 6.56566 0
10 6.66667 0
10 6.76768 0
10 6.86869 0
10 6.9697 0
10 7.07071 0
10 7.17172 0
10 7.27273 0
10 7.37374 0
10 7.47475 0
10 7.57576 0
10 7.67677 0
10 7.77778 0
10 7.87879 0
10 7.9798 0
10 8.08081 0
10 8.18182 0
10 8.28283 0
10 8.38384 0
10 8.48485 0
10 8.58586 0
10 8.68687 0
10 8.78788 0
10 8.88889 0
10 8.9899 0
10 9.09091 0
10 9.19192 0
10 9.29293 0
10 9.39394 0
10 9.49495 0
10 9.59596 0
10 9.69697 0
10 9.79798 0
10 9.89899 0
9.89899 10 0
9.79798 10 0
9.69697 10 0
9.59596 10 0
9.49495 10 0
9.39394 10 0
9.29293 10 0
9.19192 10 0
9.09091 10 0
8.9899 10 0
8.88889 10 0
8.78788 10 0
8.68687 10 0
8.58586 10 0
8.48485 10 0
8.38384 10 0
8.28283 10 0
8.18182 10 0
8.08081 10 0
7.9798 10 0
7.87879 10 0
7.77778 10 0
7.67677 10 0
7.57576 10 0
7.47475 10 0
7.37374 10 0
7.27273 10 0
7.17172 10 0
7.07071 10 0
6.9697 10 0
6.86869 10 0
6.76768 10 0
6.66667 10 0
6.56566 10 0
6.46465 10 0
6.36364 10 0
6.26263 10 0
6.16162 10 0
6.06061 10 0
5.9596 10 0
5.85859 10 0
5.75758 10 0
5.65657 10 0
5.55556 10 0
5.45455 10 0
5.35354 10 0
5.25253 10 0
5.15152 10 0
5.05051 10 0
4.94949 10 0
4.84848 10 0
4.74747 10 0
4.64646 10 0
4.54545 10 0
4.44444 10 0
4.34343 10 0
4.24242 10 0
4.14141 10 0
4.0404 10 0
3.93939 10 0
3.83838 10 0
3.73737 10 0
3.63636 10 0
3.53535 10 0
3.43434 10 0
3.33333 10 0
3.23232 10 0
3.13131 10 0
3.0303 10 0
2.92929 10 0
2.82828 10 0
2.72727 10 0
2.62626 10 0
2.52525 10 0
2.42424 10 0
2.32323 10 0
2.22222 10 0
2.12121 10 0
2.0202 10 0
1.91919 10 0
1.81818 10 0
1.71717 10 0
1.61616 10 0
1.51515 10 0
1.41414 10 0
1.31313 10 0
1.21212 10 0
1.11111 10 0
1.0101 10 0
0.909091 10 0
0.808081 10 0
0.707071 10 0
0.606061 10 0
0.505051 10 0
0.40404 10 0
0.30303 10 0
0.20202 10 0
0.10101 10 0
0 9.89899 0
0 9.79798 0
0 9.69697 0
0 9.59596 0
0 9.49495 0
0 9.39394 0
0 9.29293 0
0 9.19192 0
0 9.09091 0
0 8.9899 0
0 8.88889 0
0 8.78788 0
0 8.68687 0
0 8.58586 0
0 8.48485 0
0 8.38384 0
0 8.28283 0
0 8.18182 0
0 8.08081 0
0 7.9798 0
0 7.87879 0
0 7.77778 0
0 7.67677 0
0 7.57576 0
0 7.47475 0
0 7.37374 0
0 7.27273 0
0 7.17172 0
0 7.07071 0
0 6.9697 0
0 6.86869 0
0 6.76768 0
0 6.66667 0
0 6.56566 0
0 6.46465 0
0 6.36364 0
0 6.26263 0
0 6.16162 0
0 6.06061 0
0 5.9596 0
0 5.85859 0
0 5.75758 0
0 5.65657 0
0 5.55556 0
0 5.45455 0
0 5.35354 0
0 5.25253 0
0 5.15152 0
0 5.05051 0
0 4.94949 0
0 4.84848 0
0 4.74747 0
0 4.64646 0
0 4.54545 0
0 4.44444 0
0 4.34343 0
0 4.24242 0
0 4.14141 0
0 4.0404 0
0 3.93939 0
0 3.83838 0
0 3.73737 0
0 3.63636 0
0 3.53535 0
0 3.43434 0
0 3.33333 0
0 3.23232 0
0 3.13131 0
0 3.0303 0
0 2.92929 0
0 2.82828 0
0 2.72727 0
0 2.62626 0
0 2.52525 0
0 2.42424 0
0 2.32323 0
0 2.22222 0
0 2.12121 0
0 2.0202 0
0 1.91919 0
0 1.81818 0
0 1.71717 0
0 1.61616 0
0 1.51515 0
0 1.41414 0
0 1.31313 0
0 1.21212 0
0 1.11111 0
0 1.0101 0
0 0.909091 0
0 0.808081 0
0 0.707071 0
0 0.606061 0
0 0.505051 0
0 0.40404 0
0 0.30303 0
0 0.20202 0
0 0.10101 0
0.10101 0.10101 0
0.10101 0.20202 0
0.10101 0.30303 0
0.10101 0.40404 0
0.10101 0.505051 0
0.10101 0.606061 0
0.10101 0.707071 0
0.10101 0.808081 0
0.10101 0.909091 0
0.10101 1.0101 0
0.10101 1.11111 0
0.10101 1.21212 0
0.10101 1.31313 0
0.10101 1.41414 0
0.10101 1.51515 0
0.10101 1.61616 0
0.10101 1.71717 0
0.10101 1.81818 0
0.10101 1.91919 0
0.10101 2.0202 0
0.10101 2.12121 0
0.10101 2.22222 0
0.10101 2.32323 0
0.10101 2.42424 0
0.10101 2.52525 0
0.10101 2.62626 0
0.10101 2.72727 0
0.10101 2.82828 0
0.10101 2.92929 0
0.10101 3.0303 0
0.10101 3.13131 0
0.10101 3.23232 0
0.10101 3.33333 0
0.10101 3.43434 0
0.10101 3.53535 0
0.10101 3.63636 0
0.10101 3.73737 0
0.10101 3.83838 0
0.10101 3.93939 0
0.10101 4.0404 0
0.10101 4.14141 0
0.10101 4.24242 0
0.10101 4.34343 0
0.10101 4.44444 0
0.10101 4.54545 0
0.10101 4.64646 0
0.10101 4.74747 0
0.10101 4.84848 0
0.10101 4.94949 0
0.10101 5.05051 0
0.10101 5.15152 0
0.10101 5.25253 0
0.10101 5.35354 0
0.10101 5.45455 0
0.10101 5.55556 0
0.10101 5.65657 0
0.10101 5.75758 0
0.10101 5.85859 0
0.10101 5.9596 0
0.10101 6.06061 0
0.10101 6.16162 0
0.10101 6.26263 0
0.10101 6.36364 0
0.10101 6.46465 0
0.10101 6.56566 0
0.10101 6.66667 0
0.10101 6.76768 0
0.10101 6.86869 0
0.10101 6.9697 0
0.10101 7.07071 0
0.10101 7.17172 0
0.10101 7.27273 0
0.10101 7.37374 0
0.10101 7.47475 0
0.10101 7.57576 0
0.10101 7.67677 0
0.10101 7.77778 0
0.10101 7.87879 0
0.10101 7.9798 0
0.10101 8.08081 0
0.10101 8.18182 0
0.10101 8.28283 0
0.10101 8.38384 0
0.10101 8.48485 0
0.10101 8.58586 0
0.10101 8.68687 0
0.10101 8.78788 0
0.10101 8.88889 0
0.10101 8.9899 0
0.10101 9.09091 0
0.10101 9.19192 0
0.10101 9.29293 0
0.10101 9.39394 0
0.10101 9.49495 0
0.10101 9.59596 0
0.10101 9.69697 0
0.10101 9.79798 0
0.10101 9.89899 0
0.20202 0.10101 0
0.20202 0.20202 0
0.20202 0.30303 0
0.20202 0.40404 0
0.20202 0.505051 0
0.20202 0.606061 0
0.20202 0.707071 0
0.20202 0.808081 0
0.20202 0.909091 0
0.20202 1.0101 0
0.20202 1.11111 0
0.20202 1.21212 0
0.20202 1.31313 0
0.20202 1.41414 0
0.20202 1.51515 0
0.20202 1.61616 0
0.20202 1.71717 0
0.20202 1.81818 0
0.20202 1.91919 0
0.20202 2.0202 0
0.20202 2.12121 0
0.20202 2.22222 0
0.20202 2.32323 0
0.20202 2.42424 0
0.20202 2.52525 0
0.20202 2.62626 0
0.20202 2.72727 0
0.20202 2.82828 0
0.20202 2.92929 0
0.20202 3.0303 0
0.20202 3.13131 0
0.20202 3.23232 0
0.20202 3.33333 0
0.20202 3.43434 0
0.20202 3.53535 0
0.20202 3.63636 0
0.20202 3.73737 0
0.20202 3.83838 0
0.20202 3.93939 0
0.20202 4.0404 0
0.20202 4.14141 0
0.20202 4.24242 0
0.20202 4.34343 0
0.20202 4.44444 0
0.20202 4.54545 0
0.20202 4.64646 0
0.20202 4.74747 0
0.20202 4.84848 0
0.20202 4.94949 0
0.20202 5.05051 0
0.20202 5.15152 0
0.20202 5.25253 0
0.20202 5.35354 0
0.20202 5.45455 0
0.20202 5.55556 0
0.20202 5.65657 0
0.20202 5.75758 0
0.20202 5.85859 0
0.20202 5.9596 0
0.20202 6.06061 0
0.20202 6.16162 0
0.20202 6.26263 0
0.20202 6.36364 0
0.20202 6.46465 0
0.20202 6.56566 0
0.20202 6.66667 0
0.20202 6.76768 0
0.20202 6.86869 0
0.20202 6.9697 0
0.20202 7.07071 0
0.20202 7.17172 0
0.20202 7.27273 0
0.20202 7.37374 0
0.20202 7.47475 0
0.20202 7.57576 0
0.20202 7.67677 0
0.20202 7.77778 0
0.20202 7.87879 0
0.20202 7.9798 0
0.20202 8.08081 0
0.20202 8.18182 0
0.20202 8.28283 0
0.20202 8.38384 0
0.20202 8.48485 0
0.20202 8.58586 0
0.20202 8.68687 0
0.20202 8.78788 0
0.20202 8.88889 0
0.20202 8.9899 0
0.20202 9.09091 0
0.20202 9.19192 0
0.20202 9.29293 0
0.20202 9.39394 0
0.20202 9.49495 0
0.20202 9.59596 0
0.20202 9.69697 0
0.20202 9.79798 0
0.20202 9.89899 0
0.30303 0.10101 0
0.30303 0.20202 0
0.30303 0.30303 0
0.30303 0.40404 0
0.30303 0.505051 0
0.30303 0.606061 0
0.30303 0.707071 0
0.30303 0.808081 0
0.30303 0.909091 0
0.30303 1.0101 0
0.30303 1.11111 0
0.30303 1.21212 0
0.30303 1.31313 0
0.30303 1.41414 0
0.30303 1.51515 0
0.30303 1.61616 0
0.30303 1.71717 0
0.30303 1.81818 0
0.30303 1.91919 0
0.30303 2.0202 0
0.30303 2.12121 0
0.30303 2.22222 0
0.30303 2.32323 0
0.30303 2.42424 0
0.30303 2.52525 0
0.30303 2.62626 0
0.30303 2.72727 0
0.30303 2.82828 0
0.30303 2.92929 0
0.30303 3.0303 0
0.30303 3.13131 0
0.30303 3.23232 0
0.30303 3.33333 0
0.30303 3.43434 0
0.30303 3.53535 0
0.30303 3.63636 0
0.30303 3.73737 0
0.30303 3.83838 0
0.30303 3.93939 0
0.30303 4.0404 0
0.30303 4.14141 0
0.30303 4.24242 0
0.30303 4.34343 0
0.30303 4.44444 0
0.30303 4.54545 0
0.30303 4.64646 0
0.30303 4.74747 0
0.30303 4.84848 0
0.30303 4.94949 0
0.30303 5.05051 0
0.30303 5.15152 0
0.30303 5.25253 0
0.30303 5.35354 0
0.30303 5.45455 0
0.30303 5.55556 0
0.30303 5.65657 0
0.30303 5.75758 0
0.30303 5.85859 0
0.30303 5.9596 0
0.30303 6.06061 0
0.30303 6.16162 0
0.30303 6.26263 0
0.30303 6.36364 0
0.30303 6.46465 0
0.30303 6.56566 0
0.30303 6.66667 0
0.30303 6.76768 0
0.30303 6.86869 0
0.30303 6.9697 0
0.30303 7.07071 0
0.30303 7.17172 0
0.30303 7.27273 0
0.30303 7.37374 0
0.30303 7.47475 0
0.30303 7.57576 0
0.30303 7.67677 0
0.30303 7.77778 0
0.30303 7.87879 0
0.30303 7.9798 0
0.30303 8.08081 0
[...]
CELL_DATA 9801
SCALARS Temperatura double 1
LOOKUP_TABLE default
7.28587e-11
1.6678e-10
2.11657e-10
1.11791e-10
-2.72339e-10
-1.01709e-09
-1.97637e-09
-2.60609e-09
-1.9054e-09
1.34076e-09
7.87482e-09
1.68867e-08
2.49285e-08
2.55603e-08
1.05941e-08
-2.65486e-08
-8.5764e-08
-1.5515e-07
-2.08564e-07
-2.08674e-07
-1.16937e-07
9.07689e-08
4.07337e-07
7.83081e-07
1.12623e-06
1.31851e-06
1.24394e-06
8.23211e-07
4.32568e-08
-1.02834e-06
-2.2499e-06
-3.43245e-06
-4.37951e-06
-4.92893e-06
-4.98557e-06
-4.53713e-06
-3.65083e-06
-2.45408e-06
-1.10567e-06
2.34413e-07
1.43018e-06
2.38561e-06
3.05053e-06
3.41767e-06
3.51381e-06
3.38812e-06
3.1005e-06
2.7118e-06
2.27684e-06
1.84048e-06
1.43457e-06
1.10388e-06
8.33737e-07
6.18125e-07
4.4895e-07
3.18705e-07
2.20366e-07
1.47657e-07
9.51209e-08
5.8142e-08
3.2905e-08
1.63282e-08
5.9758e-09
-3.54049e-11
-3.12821e-09
-4.35106e-09
-4.45469e-09
-3.95837e-09
-3.20556e-09
-2.40957e-09
-1.69038e-09
-1.10365e-09
-6.63138e-10
-3.57646e-10
-1.63331e-10
-5.2268e-11
2.06578e-12
2.17416e-11
2.31754e-11
1.72247e-11
1.00828e-11
4.53503e-12
1.23643e-12
-2.21705e-13
-5.67043e-13
-4.32221e-13
-2.06127e-13
-5.06569e-14
1.37101e-14
2.21714e-14
1.18867e-14
2.68908e-15
-8.77706e-16
-1.00252e-15
-3.39222e-16
1.50712e-17
5.64306e-17
1.67398e-17
-3.31378e-18
2.08643e-10
4.99486e-11
-4.16649e-10
-1.25087e-09
-2.20803e-09
-2.55065e-09
-1.03505e-09
3.67183e-09
1.1978e-08
2.1899e-08
2.77963e-08
2.048e-08
-1.0077e-08
-6.88938e-08
-1.48159e-07
-2.20734e-07
-2.39795e-07
-1.49012e-07
9.5664e-08
4.97108e-07
9.91447e-07
1.43921e-06
1.6441e-06
1.40153e-06
5.66963e-07
-8.76861e-07
-2.77883e-06
-4.82392e-06
-6.5884e-06
-7.63355e-06
-7.61146e-06
-6.35177e-06
-3.90447e-06
-5.28208e-07
3.36927e-06
7.31902e-06
1.08819e-05
1.37204e-05
1.56388e-05
1.6588e-05
1.66427e-05
1.59625e-05
1.47479e-05
1.32028e-05
1.15075e-05
9.80328e-06
8.18927e-06
6.72527e-06
5.4397e-06
4.33852e-06
3.41366e-06
2.65166e-06
2.03251e-06
1.53677e-06
1.14549e-06
8.41052e-07
6.07609e-07
4.31261e-07
3.00111e-07
2.04182e-07
1.3527e-07
8.67498e-08
5.33632e-08
3.10059e-08
1.65274e-08
7.5499e-09
2.30995e-09
-4.75083e-10
-1.71807e-09
-2.05188e-09
-1.90093e-09
-1.53739e-09
-1.12477e-09
-7.51382e-10
-4.55689e-10
-2.4524e-10
-1.10429e-10
-3.41205e-11
2.0741e-12
1.41534e-11
1.40992e-11
9.6635e-12
5.01895e-12
1.79924e-12
1.59825e-13
-3.72323e-13
-3.5647e-13
-1.87486e-13
-5.26332e-14
7.46985e-15
1.72515e-14
9.3345e-15
1.93631e-15
-7.63904e-16
-7.28329e-16
-1.96306e-16
3.21915e-17
3.59986e-17
3.92729e-18
-1.5037e-10
-1.20498e-09
-2.39299e-09
-3.11808e-09
-1.88334e-09
3.14605e-09
1.29489e-08
2.56451e-08
3.44507e-08
2.72119e-08
-1.04307e-08
-8.69525e-08
-1.9303e-07
-2.90509e-07
-3.10142e-07
-1.66226e-07
2.08426e-07
8.13447e-07
1.5355e-06
2.13148e-06
2.26242e-06
1.58482e-06
-1.18443e-07
-2.80878e-06
-6.11611e-06
-9.35831e-06
-1.16676e-05
-1.21963e-05
-1.03417e-05
-5.91951e-06
7.68839e-07
8.99588e-06
1.77712e-05
2.60562e-05
3.2967e-05
3.79155e-05
4.06636e-05
4.12949e-05
4.0129e-05
3.76132e-05
3.42216e-05
3.03808e-05
2.64289e-05
2.26049e-05
1.90574e-05
1.58644e-05
1.30542e-05
1.06244e-05
8.55443e-06
6.8149e-06
5.36905e-06
4.1793e-06
3.21587e-06
2.44518e-06
1.83662e-06
1.36215e-06
9.96935e-07
7.19449e-07
5.11399e-07
3.57543e-07
2.45395e-07
1.64902e-07
1.08093e-07
6.87475e-08
4.20796e-08
2.44633e-08
1.31903e-08
6.26763e-09
2.2522e-09
1.16805e-10
-8.54903e-10
-1.15015e-09
-1.08966e-09
-8.75088e-10
-6.24871e-10
-4.00955e-10
-2.28725e-10
-1.11598e-10
-4.14578e-11
-5.75178e-12
8.06003e-12
1.01456e-11
7.47719e-12
4.02341e-12
1.48125e-12
1.56331e-13
-2.76554e-13
-2.64843e-13
-1.32836e-13
-3.18796e-14
9.12758e-15
1.28917e-14
5.74807e-15
6.11259e-16
-7.44066e-16
-4.3264e-16
-5.64525e-17
3.80221e-17
1.55581e-17
-1.92974e-09
-3.4716e-09
-3.05325e-09
1.19378e-09
1.11736e-08
2.6054e-08
3.93582e-08
3.72303e-08
8.02007e-10
-8.47247e-08
-2.14298e-07
-3.45619e-07
-3.90886e-07
-2.31086e-07
2.38292e-07
1.03468e-06
2.01264e-06
2.82459e-06
2.95901e-06
1.87681e-06
-7.74118e-07
-4.9309e-06
-9.96688e-06
-1.47055e-05
-1.76309e-05
-1.7256e-05
-1.25394e-05
-3.21522e-06
1.00786e-05
2.59172e-05
4.24112e-05
5.76275e-05
6.99789e-05
7.8481e-05
8.28279e-05
8.33055e-05
8.06007e-05
7.5582e-05
6.9112e-05
6.19248e-05
5.4574e-05
4.74342e-05
4.07331e-05
3.45927e-05
2.9067e-05
2.41682e-05
1.98837e-05
1.61851e-05
1.30337e-05
1.03837e-05
8.18113e-06
6.37514e-06
4.91453e-06
3.74712e-06
2.82532e-06
2.10612e-06
1.55167e-06
1.12934e-06
8.11529e-07
5.75304e-07
4.01927e-07
2.76335e-07
1.86605e-07
1.2344e-07
7.96893e-08
4.9935e-08
3.01241e-08
1.72659e-08
9.18297e-09
4.31106e-09
1.54283e-09
1.07051e-10
-5.22986e-10
-6.97997e-10
-6.43542e-10
-4.97519e-10
-3.37754e-10
-2.02292e-10
-1.04261e-10
-4.26134e-11
-9.62292e-12
4.2041e-12
7.29029e-12
5.73171e-12
3.14472e-12
1.15245e-12
1.10803e-13
-2.17411e-13
-1.96553e-13
-9.0447e-14
-1.62177e-14
9.70025e-15
9.20454e-15
3.13478e-15
-1.27708e-16
-5.84596e-16
-2.0827e-16
8.64884e-18
2.85358e-17
-4.14798e-09
-1.51243e-09
7.01072e-09
2.24374e-08
4.03483e-08
4.74772e-08
2.18586e-08
-5.9388e-08
-2.02329e-07
-3.71996e-07
-4.73543e-07
-3.57619e-07
1.32257e-07
1.06675e-06
2.31547e-06
3.46222e-06
3.81801e-06
2.582e-06
-8.53798e-07
-6.53552e-06
-1.36557e-05
-2.04919e-05
-2.46673e-05
-2.37093e-05
-1.57501e-05
-1.37503e-07
2.22636e-05
4.91949e-05
7.75143e-05
0.000103917
0.000125638
0.000140926
0.000149204
0.000150916
0.0001472
0.000139489
0.000129195
0.000117501
0.000105292
9.31702e-05
8.15163e-05
7.05621e-05
6.04443e-05
5.12402e-05
4.29861e-05
3.56862e-05
2.9318e-05
2.38366e-05
1.91798e-05
1.52744e-05
1.20356e-05
9.38289e-06
7.23925e-06
5.52675e-06
4.17475e-06
3.11972e-06
2.30594e-06
1.68549e-06
1.2179e-06
8.69608e-07
6.13212e-07
4.26711e-07
2.92705e-07
1.97634e-07
1.31082e-07
8.51622e-08
5.3978e-08
3.31813e-08
1.96054e-08
1.09726e-08
5.66447e-09
2.54515e-09
8.28199e-10
-2.25349e-11
-3.65456e-10
-4.33763e-10
-3.73333e-10
-2.70012e-10
-1.69384e-10
-9.11446e-11
-3.95433e-11
-1.08011e-11
1.86822e-12
5.19089e-12
4.30851e-12
2.37455e-12
8.42805e-13
5.47463e-14
-1.74505e-13
-1.42179e-13
-5.74465e-14
-5.35217e-15
8.95845e-15
6.00528e-15
1.34769e-15
-4.16889e-16
-3.68269e-16
-6.56007e-17
3.30761e-17
-3.66522e-10
1.53211e-08
3.54952e-08
5.27151e-08
4.5269e-08
-1.6313e-08
-1.53502e-07
-3.51427e-07
-5.2753e-07
-5.18676e-07
-1.1453e-07
8.44072e-07
2.31273e-06
3.89215e-06
4.77056e-06
3.85519e-06
1.34402e-07
-6.79215e-06
-1.61934e-05
-2.59396e-05
-3.2692e-05
-3.26014e-05
-2.23582e-05
-2.55418e-07
3.31191e-05
7.48337e-05
0.000120243
0.00016408
0.000201639
0.000229676
0.000246802
0.000253347
0.000250861
0.000241478
0.000227367
0.000210382
0.000191927
0.000172982
0.0001542
0.000136022
0.000118753
0.000102614
8.77613e-05
7.42908e-05
6.22471e-05
5.16258e-05
4.23823e-05
3.44409e-05
2.77036e-05
2.20589e-05
1.7381e-05
1.35517e-05
1.04585e-05
7.98805e-06
6.03801e-06
4.51641e-06
3.34272e-06
2.44771e-06
1.77298e-06
1.2701e-06
8.9956e-07
6.29658e-07
4.35323e-07
2.97032e-07
1.99798e-07
1.32278e-07
8.60048e-08
5.47411e-08
3.39515e-08
2.03793e-08
1.17137e-08
6.33382e-09
3.11528e-09
1.28696e-09
3.26519e-10
-1.14523e-10
-2.6383e-10
-2.65589e-10
-2.06767e-10
-1.35729e-10
-7.56259e-11
-3.40834e-11
-1.01898e-11
6.66391e-13
3.72031e-12
3.19197e-12
1.73331e-12
5.75574e-13
3.72414e-15
-1.40167e-13
-9.88442e-14
-3.28806e-14
1.21567e-15
7.26411e-15
3.42506e-15
2.92948e-16
-4.12566e-16
-1.74931e-16
1.53822e-17
1.98735e-08
4.91319e-08
6.07253e-08
3.04607e-08
-7.7128e-08
-2.7499e-07
-5.14194e-07
-6.48541e-07
-4.3729e-07
3.77504e-07
1.90478e-06
3.88617e-06
5.5264e-06
5.51399e-06
2.34959e-06
-5.01043e-06
-1.63579e-05
-2.96006e-05
-4.06539e-05
-4.40827e-05
-3.44376e-05
-7.90779e-06
3.62903e-05
9.53293e-05
0.00016325
0.000232357
0.000295033
0.000345361
0.000380077
0.000398662
0.00040275
0.000395186
0.00037912
0.00035737
0.000332137
0.000304998
0.000277045
0.000249056
0.000221622
0.000195216
0.00017022
0.00014693
0.000125553
0.00010621
8.89467e-05
7.37415e-05
6.05207e-05
4.91693e-05
3.95436e-05
3.14819e-05
2.48035e-05
1.9338e-05
1.49239e-05
1.13993e-05
8.61763e-06
6.44745e-06
4.77372e-06
3.49754e-06
2.53554e-06
1.81857e-06
1.29026e-06
9.05366e-07
6.28119e-07
4.30678e-07
2.91675e-07
1.94944e-07
1.28425e-07
8.3242e-08
5.29504e-08
3.29303e-08
1.99117e-08
1.16076e-08
6.43635e-09
3.3155e-09
1.51174e-09
5.33286e-10
5.41196e-11
-1.38442e-10
-1.79816e-10
-1.52859e-10
-1.04969e-10
-6.0155e-11
-2.77283e-11
-8.61271e-12
1.96915e-13
2.71411e-12
2.33416e-12
1.21957e-12
3.61067e-13
-3.36299e-14
-1.09901e-13
-6.46629e-14
-1.57558e-14
4.26375e-15
5.11573e-15
1.56756e-15
-1.79606e-16
-2.71086e-16
-3.54553e-17
5.62848e-08
6.41706e-08
3.63875e-09
-1.56317e-07
-4.13808e-07
-6.73739e-07
-7.1354e-07
-2.11731e-07
1.11509e-06
3.26346e-06
5.65727e-06
6.98516e-06
5.35884e-06
-1.07775e-06
-1.31458e-05
-2.95433e-05
-4.61649e-05
-5.63146e-05
-5.20202e-05
-2.62041e-05
2.49787e-05
0.000100511
0.000194269
0.000296328
0.000395361
0.000481267
0.000547167
0.000590203
0.000611147
0.000613195
0.000600572
0.000577386
0.000547011
0.000511936
0.000473915
0.000434224
0.000393864
0.00035369
0.000314449
0.00027678
0.000241202
0.000208111
0.000177775
0.000150349
0.000125885
0.000104345
8.56215e-05
6.95496e-05
5.59244e-05
4.45155e-05
3.50669e-05
2.73361e-05
2.10938e-05
1.61103e-05
1.2178e-05
9.11074e-06
6.74557e-06
4.94253e-06
3.58363e-06
2.57104e-06
1.82503e-06
1.28163e-06
8.90263e-07
6.11577e-07
4.15367e-07
2.78787e-07
1.84797e-07
1.20861e-07
7.78796e-08
4.93394e-08
3.06361e-08
1.8557e-08
1.08877e-08
6.11915e-09
3.23377e-09
1.55172e-09
6.22733e-10
1.51273e-10
-5.44032e-11
-1.1639e-10
-1.09954e-10
-7.89024e-11
-4.61887e-11
-2.14822e-11
-6.67883e-12
1.34674e-13
2.02348e-12
1.68067e-12
8.20773e-13
2.00247e-13
-5.46099e-14
-8.20471e-14
-3.85485e-14
-4.9733e-15
4.7756e-15
3.02572e-15
4.42086e-16
-2.67097e-16
-1.16215e-16
7.13299e-08
-3.17402e-08
-2.47162e-07
-5.59774e-07
-8.1937e-07
-7.17779e-07
1.46753e-07
2.05894e-06
4.84224e-06
7.50546e-06
8.11383e-06
4.14513e-06
-6.53608e-06
-2.42399e-05
-4.60468e-05
-6.51508e-05
-7.15626e-05
-5.43242e-05
-4.71066e-06
8.06709e-05
0.000198106
0.000337115
0.000482875
0.000619846
0.000735296
0.000821563
0.000876537
0.000902573
0.000904594
0.000888204
0.000858398
0.00081902
0.000772813
0.000721741
0.000667344
0.000610961
0.000553831
0.000497096
0.000441778
0.000388746
0.000338703
0.00029218
0.000249544
0.000211006
0.000176635
0.00014638
0.000120087
9.75241e-05
7.84009e-05
6.2393e-05
4.91399e-05
3.82998e-05
2.95488e-05
2.25641e-05
1.7054e-05
1.27569e-05
9.44408e-06
6.91911e-06
5.01643e-06
3.5989e-06
2.55476e-06
1.79432e-06
1.24677e-06
8.56946e-07
5.82558e-07
3.91606e-07
2.60222e-07
1.70851e-07
1.10752e-07
7.08031e-08
4.45628e-08
2.75398e-08
1.66444e-08
9.77714e-09
5.52847e-09
2.96217e-09
1.46212e-09
6.26061e-10
1.93191e-10
-4.21716e-12
-7.25641e-11
-7.76052e-11
-5.79934e-11
-3.43979e-11
-1.59207e-11
-4.7841e-12
2.48268e-13
1.53296e-12
1.1834e-12
5.20751e-13
8.8672e-14
-6.04691e-14
-5.6806e-14
-1.97878e-14
7.25818e-16
3.80465e-15
1.38757e-15
-6.56794e-17
-1.9879e-16
-2.45934e-08
-3.44319e-07
-7.04735e-07
-9.48836e-07
-6.73973e-07
6.01563e-07
3.14554e-06
6.55968e-06
9.35588e-06
8.88118e-06
1.9253e-06
-1.38585e-05
-3.79966e-05
-6.54389e-05
-8.59766e-05
-8.55952e-05
-4.98153e-05
3.18619e-05
0.000161993
0.000333339
0.000530019
0.000731333
0.000916857
0.00107094
0.00118518
0.00125841
0.00129477
0.00130099
0.00128402
0.00124966
0.00120213
0.00114439
0.00107863
0.00100673
0.000930459
0.00085157
0.000771745
0.000692548
0.000615372
0.000541406
0.000471619
0.000406749
0.000347308
0.000293593
0.000245701
0.000203557
0.000166946
0.000135541
0.000108933
8.66689e-05
6.82432e-05
5.31778e-05
4.10193e-05
3.13176e-05
2.36659e-05
1.77002e-05
1.31019e-05
9.59784e-06
6.95783e-06
4.99128e-06
3.54293e-06
2.48827e-06
1.72895e-06
1.18846e-06
8.0808e-07
5.43427e-07
3.61386e-07
2.37595e-07
1.54378e-07
9.90758e-08
6.27477e-08
3.91617e-08
2.40316e-08
1.4449e-08
8.46517e-09
4.79088e-09
2.58266e-09
1.29405e-09
5.73705e-10
1.96978e-10
2.1016e-11
-4.4197e-11
-5.42259e-11
-4.18859e-11
-2.4916e-11
-1.12972e-11
-3.14762e-12
3.93379e-13
1.16368e-12
8.05285e-13
3.03454e-13
1.89807e-14
-5.48204e-14
-3.52729e-14
-7.6274e-15
2.76054e-15
2.3125e-15
3.81712e-16
-2.28119e-16
-3.35575e-07
-8.51548e-07
-1.067e-06
-6.09126e-07
1.09734e-06
4.29754e-06
8.34472e-06
1.11948e-05
9.39175e-06
-1.0344e-06
-2.26247e-05
-5.3922e-05
-8.72927e-05
-0.00010843
-9.84802e-05
-3.87298e-05
8.34565e-05
0.000269645
0.000508401
0.000777425
0.00104907
0.00129714
0.00150257
0.00165605
0.00175739
0.0018126
0.00183027
0.00181867
0.00178427
0.00173156
0.00166364
0.00158287
0.0014915
0.0013918
0.00128614
0.00117691
0.00106642
0.000956808
0.000849996
0.000747635
0.000651071
0.000561337
0.000479144
0.000404898
0.000338732
0.000280536
0.000230004
0.000186676
0.000149985
0.000119296
9.39093e-05
7.31609e-05
5.64212e-05
4.30681e-05
3.25397e-05
2.43332e-05
1.80092e-05
1.31911e-05
9.56169e-06
6.8586e-06
4.86805e-06
3.41873e-06
2.37537e-06
1.63276e-06
1.11018e-06
7.46629e-07
4.96596e-07
3.26605e-07
2.12364e-07
1.36474e-07
8.66446e-08
5.43056e-08
3.35625e-08
2.04147e-08
1.21832e-08
7.09826e-09
4.00532e-09
2.16048e-09
1.08925e-09
4.9137e-10
1.77755e-10
2.96865e-11
-2.69818e-11
-3.78397e-11
-2.98293e-11
-1.75655e-11
-7.65307e-12
-1.86022e-12
4.94712e-13
8.68527e-13
5.20228e-13
1.54224e-13
-1.76239e-14
-4.23417e-14
-1.86006e-14
-9.96117e-16
2.60171e-15
1.00367e-15
-1.36744e-16
-8.61701e-07
-1.19922e-06
-5.57445e-07
1.56708e-06
5.42997e-06
1.01378e-05
1.30621e-05
9.86869e-06
-4.27934e-06
-3.21918e-05
-7.13589e-05
-0.000111232
-0.000132751
-0.000111306
-2.29787e-05
0.000147734
0.000401626
0.000722656
0.00108116
0.0014413
0.00177002
0.00204394
0.00225242
0.00239613
0.00248298
0.00252343
0.00252699
0.00250069
0.00244909
0.00237524
0.00228157
0.0021706
0.0020451
0.00190818
0.00176306
0.00161303
0.00146124
0.00131067
0.00116397
0.00102343
0.000890901
0.000767812
0.000655128
0.000553398
0.000462789
0.000383138
0.000314014
0.000254774
0.000204632
0.000162711
0.00012805
9.97333e-05
7.68953e-05
5.86838e-05
4.43291e-05
3.31433e-05
2.45257e-05
1.79617e-05
1.30182e-05
9.3371e-06
6.62673e-06
4.65355e-06
3.23322e-06
2.22235e-06
1.51105e-06
1.01622e-06
6.75916e-07
4.44568e-07
2.89109e-07
1.8586e-07
1.18087e-07
7.41244e-08
4.59415e-08
2.80877e-08
1.69115e-08
1.00001e-08
5.78084e-09
3.2424e-09
1.74263e-09
8.78333e-10
3.9845e-10
1.4735e-10
2.86696e-11
-1.71603e-11
-2.65534e-11
-2.09736e-11
-1.20299e-11
-4.9107e-12
-9.30112e-13
5.25435e-13
6.23859e-13
3.10515e-13
5.97091e-14
-3.04355e-14
-2.77029e-14
-7.36725e-15
1.55792e-15
1.56444e-15
1.22144e-16
-1.32454e-06
-5.71978e-07
1.94152e-06
6.45183e-06
1.18809e-05
1.50249e-05
1.06119e-05
-7.21204e-06
-4.17231e-05
-8.94796e-05
-0.00013688
-0.000159555
-0.000126134
-6.20658e-06
0.000219819
0.000552717
0.000971825
0.0014393
0.0019098
0.00234185
0.00270658
0.00299118
0.00319688
0.00333342
0.00341316
0.0034468
0.00344173
0.00340231
0.00333122
0.00323067
0.00310324
0.00295212
0.00278112
0.00259445
0.00239656
0.00219195
0.001985
0.00177977
0.00157991
0.00138856
0.00120824
0.00104087
0.000887751
0.000749597
0.000626619
0.000518575
0.00042486
0.000344588
0.000276677
0.000219925
0.000173024
0.000134726
0.000103848
7.92337e-05
5.98389e-05
4.47302e-05
3.30938e-05
2.42327e-05
1.75608e-05
1.25937e-05
8.93713e-06
6.27556e-06
4.35994e-06
2.99672e-06
2.03754e-06
1.3703e-06
9.1143e-07
5.99481e-07
3.89862e-07
2.50648e-07
1.59278e-07
1.00021e-07
6.20482e-08
3.80068e-08
2.29683e-08
1.36745e-08
8.00062e-09
4.5804e-09
2.54737e-09
1.35942e-09
6.81422e-10
3.08045e-10
1.1405e-10
2.30026e-11
-1.18253e-11
-1.87962e-11
-1.4539e-11
-7.96245e-12
-2.93797e-12
-3.18721e-13
4.88894e-13
4.21e-13
1.63492e-13
7.35613e-15
-2.84747e-14
-1.46813e-14
-1.23924e-15
1.69137e-15
5.32285e-16
-1.03675e-06
2.15765e-06
7.26843e-06
1.35013e-05
1.71376e-05
1.19367e-05
-9.15676e-06
-5.02212e-05
-0.000107244
-0.000163713
-0.000189593
-0.000145724
6.40576e-06
0.000292289
0.00071413
0.00124723
0.00184506
0.00245133
0.00301429
0.00349783
0.00388579
0.00417933
0.00438992
0.00453183
0.00461695
0.00465277
0.00464308
0.00458968
0.00449409
0.00435854
0.00418635
0.0039819
0.0037504
0.00349763
0.00322971
0.00295281
0.00267288
0.00239549
0.00212556
0.00186731
0.00162412
0.00139855
0.00119232
0.00100636
0.000840925
0.000695663
0.000569732
0.000461921
0.000370756
0.000294607
0.000231707
0.000180366
0.000138989
0.000106018
8.00468e-05
5.9822e-05
4.425e-05
3.23955e-05
2.34722e-05
1.68305e-05
1.19423e-05
8.38487e-06
5.82493e-06
4.00343e-06
2.72195e-06
1.83056e-06
1.21757e-06
8.00857e-07
5.20836e-07
3.34862e-07
2.12801e-07
1.33642e-07
8.2923e-08
5.08208e-08
3.07506e-08
1.83568e-08
1.07973e-08
6.24327e-09
3.53431e-09
1.94483e-09
1.02744e-09
5.09833e-10
2.27849e-10
8.29835e-11
1.59897e-11
-8.94635e-12
-1.33914e-11
-9.88917e-12
-5.04487e-12
-1.58851e-12
3.44841e-14
4.04348e-13
2.58819e-13
6.85862e-14
-1.48982e-14
-1.96861e-14
-5.52655e-15
9.9846e-16
9.82711e-16
1.03418e-06
7.84858e-06
1.48943e-05
1.93977e-05
1.40993e-05
-9.44565e-06
-5.65806e-05
-0.000123357
-0.000190863
-0.000223374
-0.00017303
8.64388e-06
0.00035549
0.00087347
0.00153527
0.00228568
0.00305611
0.00378233
0.00441867
0.00494388
0.0053581
0.00567429
0.00590873
0.00607448
0.00617897
0.00622486
0.00621241
0.00614169
0.00601392
0.00583202
0.00560058
0.00532562
0.0050143
0.00467453
0.00431464
0.00394298
0.0035676
0.00319593
0.00283456
0.00248909
0.00216401
0.00186267
0.00158734
0.00133923
0.00111863
0.000925035
0.000757294
0.000613763
0.000492452
0.00039117
0.000307552
0.000239332
0.000184372
0.000140595
0.000106125
7.92908e-05
5.8637e-05
4.29187e-05
3.10905e-05
2.2289e-05
1.5813e-05
1.1101e-05
7.71096e-06
5.29922e-06
3.60272e-06
2.42281e-06
1.61147e-06
1.05995e-06
6.89349e-07
4.43217e-07
2.81668e-07
1.76897e-07
1.09766e-07
6.72795e-08
4.07222e-08
2.43296e-08
1.43385e-08
8.32587e-09
4.75295e-09
2.65683e-09
1.44374e-09
7.52936e-10
3.68223e-10
1.61408e-10
5.67986e-11
9.52377e-12
-7.24447e-12
-9.52868e-12
-6.54363e-12
-3.00993e-12
-7.22659e-13
1.96324e-13
2.96713e-13
1.38078e-13
1.5267e-14
-1.84038e-14
-1.01141e-14
-7.15622e-16
1.27082e-15
5.88184e-06
1.61051e-05
2.16958e-05
1.72188e-05
-7.52703e-06
-5.9679e-05
-0.000136259
-0.000216918
-0.000260714
-0.000210504
-5.91212e-06
0.000398296
0.00101517
0.00181731
0.00274174
0.00370649
0.00463242
0.00546138
0.0061646
0.00673982
0.00720101
0.00756661
0.00785104
0.00806146
0.00819888
0.00826112
0.00824577
0.00815204
0.00798155
0.00773843
0.00742906
0.00706174
0.0066462
0.00619316
0.00571381
0.00521931
0.00472033
0.00422673
0.0037472
0.0032891
0.00285833
0.00245928
0.0020949
0.00176673
0.00147512
0.00121935
0.000997848
0.000808416
0.000648391
0.000514849
0.000404654
0.000314792
0.000242427
0.000184809
0.000139458
0.000104167
7.7013e-05
5.63549e-05
4.08144e-05
2.92541e-05
2.07503e-05
1.45647e-05
1.01154e-05
6.95074e-06
4.72505e-06
3.17732e-06
2.11321e-06
1.38993e-06
9.0395e-07
5.81202e-07
3.69368e-07
2.31982e-07
1.43951e-07
8.82346e-08
5.34082e-08
3.19144e-08
1.88189e-08
1.09434e-08
6.26861e-09
3.52961e-09
1.94565e-09
1.04214e-09
5.34997e-10
2.56659e-10
1.09384e-10
3.63871e-11
4.47273e-12
-6.00777e-12
-6.68889e-12
-4.15653e-12
-1.6431e-12
-2.16235e-13
2.30666e-13
1.89561e-13
5.76561e-14
-7.7477e-15
-1.30133e-14
-3.27007e-15
1.15495e-15
1.37432e-05
2.4162e-05
2.11776e-05
-3.08642e-06
-5.85227e-05
-0.000144208
-0.000239806
-0.000300303
-0.000259288
-4.27674e-05
0.000409331
0.00112152
0.00207027
0.00318695
0.00437597
0.0055408
0.00660734
0.00753601
0.00832007
0.0089738
0.00951792
0.00996859
0.0103328
0.0106093
0.0107924
0.010876
0.0108559
0.010731
0.010504
0.0101807
0.00976996
0.009283
0.00873294
0.00813408
0.00750121
0.00684905
0.00619161
0.0055418
0.00491099
0.0043088
0.00374292
0.00321904
0.00274095
0.00231063
0.00192846
0.00159344
0.00130347
0.00105561
0.000846328
0.000671767
0.000527797
0.00041045
0.000315991
0.000240811
0.000181661
0.00013565
0.000100261
7.33469e-05
5.31072e-05
3.8056e-05
2.69878e-05
1.8939e-05
1.3151e-05
9.03523e-06
6.14122e-06
4.12914e-06
2.746e-06
1.80601e-06
1.1745e-06
7.55142e-07
4.79912e-07
3.01414e-07
1.8704e-07
1.14648e-07
6.93967e-08
4.14689e-08
2.44549e-08