# vtk DataFile Version 3.0
Malha 2D com triângulos e temperatura
ASCII
DATASET UNSTRUCTURED_GRID

POINTS 10000 double
0 0 0
10 0 0
10 10 0
0 10 0
0.10101 0 0
0.20202 0 0
0.30303 0 0
0.40404 0 0
0.505051 0 0
0.606061 0 0
0.707071 0 0
0.808081 0 0
0.909091 0 0
1.0101 0 0
1.11111 0 0
1.21212 0 0
1.31313 0 0
1.41414 0 0
1.51515 0 0
1.61616 0 0
1.71717 0 0
1.81818 0 0
1.91919 0 0
2.0202 0 0
2.12121 0 0
2.22222 0 0
2.32323 0 0
2.42424 0 0
2.52525 0 0
2.62626 0 0
2.72727 0 0
2.82828 0 0
2.92929 0 0
3.0303 0 0
3.13131 0 0
3.23232 0 0
3.33333 0 0
3.43434 0 0
3.53535 0 0
3.63636 0 0
3.73737 0 0
3.83838 0 0
3.93939 0 0
4.0404 0 0
4.14141 0 0
4.24242 0 0
4.34343 0 0
4.44444 0 0
4.54545 0 0
4.64646 0 0
4.74747 0 0
4.84848 0 0
4.94949 0 0
5.05051 0 0
5.15152 0 0
5.25253 0 0
5.35354 0 0
5.45455 0 0
5.55556 0 0
5.65657 0 0
5.75758 0 0
5.85859 0 0
5.9596 0 0
6.06061 0 0
6.16162 0 0
6.26263 0 0
6.36364 0 0
6.46465 0 0
6.56566 0 0
6.66667 0 0
6.76768 0 0
6.86869 0 0
6.9697 0 0
7.07071 0 0
7.17172 0 0
7.27273 0 0
7.37374 0 0
7.47475 0 0
7.57576 0 0
7.67677 0 0
7.77778 0 0
7.87879 0 0
7.9798 0 0
8.08081 0 0
8.18182 0 0
8.28283 0 0
8.38384 0 0
8.48485 0 0
8.58586 0 0
8.68687 0 0
8.78788 0 0
8.88889 0 0
8.9899 0 0
9.09091 0 0
9.19192 0 0
9.29293 0 0
9.39394 0 0
9.49495 0 0
9.59596 0 0
9.69697 0 0
9.79798 0 0
9.89899 0 0
10 0.10101 0
10 0.20202 0
10 0.30303 0
10 0.40404 0
10 0.505051 0
10 0.606061 0
10 0.707071 0
10 0.808081 0
10 0.909091 0
10 1.0101 0
10 1.11111 0
10 1.21212 0
10 1.31313 0
10 1.41414 0
10 1.51515 0
10 1.61616 0
10 1.71717 0
10 1.81818 0
10 1.91919 0
10 2.0202 0
10 2.12121 0
10 2.22222 0
10 2.32323 0
10 2.42424 0
10 2.52525 0
10 2.62626 0
10 2.72727 0
10 2.82828 0
10 2.92929 0
10 3.0303 0
10 3.13131 0
10 3.23232 0
10 3.33333 0
10 3.43434 0
10 3.53535 0
10 3.63636 0
10 3.73737 0
10 3.83838 0
10 3.93939 0
10 4.0404 0
10 4.14141 0
10 4.24242 0
10 4.34343 0
10 4.44444 0
10 4.54545 0
10 4.64646 0
10 4.74747 0
10 4.84848 0
10 4.94949 0
10 5.05051 0
10 5.15152 0
10 5.25253 0
10 5.35354 0
10 5.45455 0
10 5.55556 0
10 5.65657 0
10 5.75758 0
10 5.85859 0
10 5.9596 0
10 6.06061 0
10 6.16162 0
10 6.26263 0
10 6.36364 0
10 6.46465 0
10 6.56566 0
10 6.66667 0
10 6.76768 0
10 6.86869 0
10 6.9697 0
10 7.07071 0
10 7.17172 0
10 7.27273 0
10 7.37374 0
10 7.47475 0
10 7.57576 0
10 7.67677 0
10 7.77778 0
10 7.87879 0
10 7.9798 0
10 8.08081 0
10 8.18182 0
10 8.28283 0
10 8.38384 0
10 8.48485 0
10 8.58586 0
10 8.68687 0
10 8.78788 0
10 8.88889 0
10 8.9899 0
10 9.09091 0
10 9.19192 0
10 9.29293 0
10 9.39394 0
10 9.49495 0
10 9.59596 0
10 9.69697 0
10 9.79798 0
10 9.89899 0
9.89899 10 0
9.79798 10 0
9.69697 10 0
9.59596 10 0
9.49495 10 0
9.39394 10 0
9.29293 10 0
9.19192 10 0
9.09091 10 0
8.9899 10 0
8.88889 10 0
8.78788 10 0
8.68687 10 0
8.58586 10 0
8.48485 10 0
8.38384 10 0
8.28283 10 0
8.18182 10 0
8.08081 10 0
7.9798 10 0
7.87879 10 0
7.77778 10 0
7.67677 10 0
7.57576 10 0
7.47475 10 0
7.37374 10 0
7.27273 10 0
7.17172 10 0
7.07071 10 0
6.9697 10 0
6.86869 10 0
6.76768 10 0
6.66667 10 0
6.56566 10 0
6.46465 10 0
6.36364 10 0
6.26263 10 0
6.16162 10 0
6.06061 10 0
5.9596 10 0
5.85859 10 0
5.75758 10 0
5.65657 10 0
5.55556 10 0
5.45455 10 0
5.35354 10 0
5.25253 10 0
5.15152 10 0
5.05051 10 0
4.94949 10 0
4.84848 10 0
4.74747 10 0
4.64646 10 0
4.54545 10 0
4.44444 10 0
4.34343 10 0
4.24242 10 0
4.14141 10 0
4.0404 10 0
3.93939 10 0
3.83838 10 0
3.73737 10 0
3.63636 10 0
3.53535 10 0
3.43434 10 0
3.33333 10 0
3.23232 10 0
3.13131 10 0
3.0303 10 0
2.92929 10 0
2.82828 10 0
2.72727 10 0
2.62626 10 0
2.52525 10 0
2.42424 10 0
2.32323 10 0
2.22222 10 0
2.12121 10 0
2.0202 10 0
1.91919 10 0
1.81818 10 0
1.71717 10 0
1.61616 10 0
1.51515 10 0
1.41414 10 0
1.31313 10 0
1.21212 10 0
1.11111 10 0
1.0101 10 0
0.909091 10 0
0.808081 10 0
0.707071 10 0
0.606061 10 0
0.505051 10 0
0.40404 10 0
0.30303 10 0
0.20202 10 0
0.10101 10 0
0 9.89899 0
0 9.79798 0
0 9.69697 0
0 9.59596 0
0 9.49495 0
0 9.39394 0
0 9.29293 0
0 9.19192 0
0 9.09091 0
0 8.9899 0
0 8.88889 0
0 8.78788 0
0 8.68687 0
0 8.58586 0
0 8.48485 0
0 8.38384 0
0 8.28283 0
0 8.18182 0
0 8.08081 0
0 7.9798 0
0 7.87879 0
0 7.77778 0
0 7.67677 0
0 7.57576 0
0 7.47475 0
0 7.37374 0
0 7.27273 0
0 7.17172 0
0 7.07071 0
0 6.9697 0
0 6.86869 0
0 6.76768 0
0 6.66667 0
0 6.56566 0
0 6.46465 0
0 6.36364 0
0 6.26263 0
0 6.16162 0
0 6.06061 0
0 5.9596 0
0 5.85859 0
0 5.75758 0
0 5.65657 0
0 5.55556 0
0 5.45455 0
0 5.35354 0
0 5.25253 0
0 5.15152 0
0 5.05051 0
0 4.94949 0
0 4.84848 0
0 4.74747 0
0 4.64646 0
0 4.54545 0
0 4.44444 0
0 4.34343 0
0 4.24242 0
0 4.14141 0
0 4.0404 0
0 3.93939 0
0 3.83838 0
0 3.73737 0
0 3.63636 0
0 3.53535 0
0 3.43434 0
0 3.33333 0
0 3.23232 0
0 3.13131 0
0 3.0303 0
0 2.92929 0
0 2.82828 0
0 2.72727 0
0 2.62626 0
0 2.52525 0
0 2.42424 0
0 2.32323 0
0 2.22222 0
0 2.12121 0
0 2.0202 0
0 1.91919 0
0 1.81818 0
0 1.71717 0
0 1.61616 0
0 1.51515 0
0 1.41414 0
0 1.31313 0
0 1.21212 0
0 1.11111 0
0 1.0101 0
0 0.909091 0
0 0.808081 0
0 0.707071 0
0 0.606061 0
0 0.505051 0
0 0.40404 0
0 0.30303 0
0 0.20202 0
0 0.10101 0
0.10101 0.10101 0
0.10101 0.20202 0
0.10101 0.30303 0
0.10101 0.40404 0
0.10101 0.505051 0
0.10101 0.606061 0
0.10101 0.707071 0
0.10101 0.808081 0
0.10101 0.909091 0
0.10101 1.0101 0
0.10101 1.11111 0
0.10101 1.21212 0
0.10101 1.31313 0
0.10101 1.41414 0
0.10101 1.51515 0
0.10101 1.61616 0
0.10101 1.71717 0
0.10101 1.81818 0
0.10101 1.91919 0
0.10101 2.0202 0
0.10101 2.12121 0
0.10101 2.22222 0
0.10101 2.32323 0
0.10101 2.42424 0
0.10101 2.52525 0
0.10101 2.62626 0
0.10101 2.72727 0
0.10101 2.82828 0
0.10101 2.92929 0
0.10101 3.0303 0
0.10101 3.13131 0
0.10101 3.23232 0
0.10101 3.33333 0
0.10101 3.43434 0
0.10101 3.53535 0
0.10101 3.63636 0
0.10101 3.73737 0
0.10101 3.83838 0
0.10101 3.93939 0
0.10101 4.0404 0
0.10101 4.14141 0
0.10101 4.24242 0
0.10101 4.34343 0
0.10101 4.44444 0
0.10101 4.54545 0
0.10101 4.64646 0
0.10101 4.74747 0
0.10101 4.84848 0
0.10101 4.94949 0
0.10101 5.05051 0
0.10101 5.15152 0
0.10101 5.25253 0
0.10101 5.35354 0
0.10101 5.45455 0
0.10101 5.55556 0
0.10101 5.65657 0
0.10101 5.75758 0
0.10101 5.85859 0
0.10101 5.9596 0
0.10101 6.06061 0
0.10101 6.16162 0
0.10101 6.26263 0
0.10101 6.36364 0
0.10101 6.46465 0
0.10101 6.56566 0
0.10101 6.66667 0
0.10101 6.76768 0
0.10101 6.86869 0
0.10101 6.9697 0
0.10101 7.07071 0
0.10101 7.17172 0
0.10101 7.27273 0
0.10101 7.37374 0
0.10101 7.47475 0
0.10101 7.57576 0
0.10101 7.67677 0
0.10101 7.77778 0
0.10101 7.87879 0
0.10101 7.9798 0
0.10101 8.08081 0
0.10101 8.18182 0
0.10101 8.28283 0
0.10101 8.38384 0
0.10101 8.48485 0
0.10101 8.58586 0
0.10101 8.68687 0
0.10101 8.78788 0
0.10101 8.88889 0
0.10101 8.9899 0
0.10101 9.09091 0
0.10101 9.19192 0
0.10101 9.29293 0
0.10101 9.39394 0
0.10101 9.49495 0
0.10101 9.59596 0
0.10101 9.69697 0
0.10101 9.79798 0
0.10101 9.89899 0
0.20202 0.10101 0
0.20202 0.20202 0
0.20202 0.30303 0
0.20202 0.40404 0
0.20202 0.505051 0
0.20202 0.606061 0
0.20202 0.707071 0
0.20202 0.808081 0
0.20202 0.909091 0
0.20202 1.0101 0
0.20202 1.11111 0
0.20202 1.21212 0
0.20202 1.31313 0
0.20202 1.41414 0
0.20202 1.51515 0
0.20202 1.61616 0
0.20202 1.71717 0
0.20202 1.81818 0
0.20202 1.91919 0
0.20202 2.0202 0
0.20202 2.12121 0
0.20202 2.22222 0
0.20202 2.32323 0
0.20202 2.42424 0
0.20202 2.52525 0
0.20202 2.62626 0
0.20202 2.72727 0
0.20202 2.82828 0
0.20202 2.92929 0
0.20202 3.0303 0
0.20202 3.13131 0
0.20202 3.23232 0
0.20202 3.33333 0
0.20202 3.43434 0
0.20202 3.53535 0
0.20202 3.63636 0
0.20202 3.73737 0
0.20202 3.83838 0
0.20202 3.93939 0
0.20202 4.0404 0
0.20202 4.14141 0
0.20202 4.24242 0
0.20202 4.34343 0
0.20202 4.44444 0
0.20202 4.54545 0
0.20202 4.64646 0
0.20202 4.74747 0
0.20202 4.84848 0
0.20202 4.94949 0
0.20202 5.05051 0
0.20202 5.15152 0
0.20202 5.25253 0
0.20202 5.35354 0
0.20202 5.45455 0
0.20202 5.55556 0
0.20202 5.65657 0
0.20202 5.75758 0
0.20202 5.85859 0
0.20202 5.9596 0
0.20202 6.06061 0
0.20202 6.16162 0
0.20202 6.26263 0
0.20202 6.36364 0
0.20202 6.46465 0
0.20202 6.56566 0
0.20202 6.66667 0
0.20202 6.76768 0
0.20202 6.86869 0
0.20202 6.9697 0
0.20202 7.07071 0
0.20202 7.17172 0
0.20202 7.27273 0
0.20202 7.37374 0
0.20202 7.47475 0
0.20202 7.57576 0
0.20202 7.67677 0
0.20202 7.77778 0
0.20202 7.87879 0
0.20202 7.9798 0
0.20202 8.08081 0
0.20202 8.18182 0
0.20202 8.28283 0
0.20202 8.38384 0
0.20202 8.48485 0
0.20202 8.58586 0
0.20202 8.68687 0
0.20202 8.78788 0
0.20202 8.88889 0
0.20202 8.9899 0
0.20202 9.09091 0
0.20202 9.19192 0
0.20202 9.29293 0
0.20202 9.39394 0
0.20202 9.49495 0
0.20202 9.59596 0
0.20202 9.69697 0
0.20202 9.79798 0
0.20202 9.89899 0
0.30303 0.10101 0
0.30303 0.20202 0
0.30303 0.30303 0
0.30303 0.40404 0
0.30303 0.505051 0
0.30303 0.606061 0
0.30303 0.707071 0
0.30303 0.808081 0
0.30303 0.909091 0
0.30303 1.0101 0
0.30303 1.11111 0
0.30303 1.21212 0
0.30303 1.31313 0
0.30303 1.41414 0
0.30303 1.51515 0
0.30303 1.61616 0
0.30303 1.71717 0
0.30303 1.81818 0
0.30303 1.91919 0
0.30303 2.0202 0
0.30303 2.12121 0
0.30303 2.22222 0
0.30303 2.32323 0
0.30303 2.42424 0
0.30303 2.52525 0
0.30303 2.62626 0
0.30303 2.72727 0
0.30303 2.82828 0
0.30303 2.92929 0
0.30303 3.0303 0
0.30303 3.13131 0
0.30303 3.23232 0
0.30303 3.33333 0
0.30303 3.43434 0
0.30303 3.53535 0
0.30303 3.63636 0
0.30303 3.73737 0
0.30303 3.83838 0
0.30303 3.93939 0
0.30303 4.0404 0
0.30303 4.14141 0
0.30303 4.24242 0
0.30303 4.34343 0
0.30303 4.44444 0
0.30303 4.54545 0
0.30303 4.64646 0
0.30303 4.74747 0
0.30303 4.84848 0
0.30303 4.94949 0
0.30303 5.05051 0
0.30303 5.15152 0
0.30303 5.25253 0
0.30303 5.35354 0
0.30303 5.45455 0
0.30303 5.55556 0
0.30303 5.65657 0
0.30303 5.75758 0
0.30303 5.85859 0
0.30303 5.9596 0
0.30303 6.06061 0
0.30303 6.16162 0
0.30303 6.26263 0
0.30303 6.36364 0
0.30303 6.46465 0
0.30303 6.56566 0
0.30303 6.66667 0
0.30303 6.76768 0
0.30303 6.86869 0
0.30303 6.9697 0
0.30303 7.07071 0
0.30303 7.17172 0
0.30303 7.27273 0
0.30303 7.37374 0
0.30303 7.47475 0
0.30303 7.57576 0
0.30303 7.67677 0
0.30303 7.77778 0
0.30303 7.87879 0
0.30303 7.9798 0
0.30303 8.08081 0
[...]
CELL_DATA 9801
SCALARS Temperatura double 1
LOOKUP_TABLE default
9.42298e-10
1.45404e-09
1.0572e-09
-1.40946e-09
-7.22041e-09
-1.63731e-08
-2.53954e-08
-2.4987e-08
5.30732e-10
6.88585e-08
1.87438e-07
3.32903e-07
4.27981e-07
3.29996e-07
-1.4798e-07
-1.16311e-06
-2.71076e-06
-4.46031e-06
-5.62507e-06
-4.96404e-06
-1.01331e-06
7.40777e-06
2.04746e-05
3.66098e-05
5.20034e-05
6.07138e-05
5.55504e-05
2.97133e-05
-2.11206e-05
-9.68126e-05
-0.000191511
-0.000293645
-0.000387354
-0.000455147
-0.000481206
-0.000454549
-0.000371295
-0.000235541
-5.86813e-05
0.00014256
0.000348894
0.000541399
0.000704047
0.000825454
0.000899673
0.000926108
0.000908716
0.000854819
0.000773764
0.000675715
0.00057065
0.000476511
0.000391532
0.000316654
0.000251803
0.000196644
0.000150561
0.000112761
8.23437e-05
5.83635e-05
3.98779e-05
2.59842e-05
1.58452e-05
8.70623e-06
3.90382e-06
8.68829e-07
-8.75231e-07
-1.71701e-06
-1.96446e-06
-1.85333e-06
-1.55657e-06
-1.19397e-06
-8.41932e-07
-5.42861e-07
-3.14053e-07
-1.55698e-07
-5.77892e-08
-5.69516e-09
1.57299e-08
1.95176e-08
1.53068e-08
9.15517e-09
4.08919e-09
1.01869e-09
-3.15232e-10
-5.8436e-10
-4.09491e-10
-1.73838e-10
-2.73836e-11
2.3375e-11
2.26096e-11
9.30789e-12
7.75367e-13
-1.41879e-12
-8.52765e-13
-1.44204e-13
7.16344e-14
4.26724e-14
8.8043e-16
9.17643e-10
-2.19762e-09
-8.07131e-09
-1.6464e-08
-2.27418e-08
-1.61416e-08
1.97266e-08
1.00048e-07
2.2265e-07
3.43698e-07
3.54968e-07
8.32022e-08
-6.60892e-07
-1.96272e-06
-3.61972e-06
-4.95005e-06
-4.70866e-06
-1.25884e-06
6.88269e-06
2.01284e-05
3.67295e-05
5.19252e-05
5.78662e-05
4.47733e-05
3.46873e-06
-7.10976e-05
-0.00017624
-0.000299086
-0.000416451
-0.000497639
-0.000509941
-0.000425631
-0.000228711
8.04546e-05
0.000483913
0.000948667
0.00143231
0.00189031
0.00228313
0.0025818
0.00277074
0.00284797
0.00282298
0.00271317
0.00253989
0.0023249
0.00208772
0.00184412
0.00160559
0.00137968
0.00117103
0.000982273
0.00081392
0.000666088
0.000538158
0.000429022
0.000337228
0.000261105
0.000198883
0.000148776
0.000109055
7.80931e-05
5.44001e-05
3.66414e-05
2.36443e-05
1.43977e-05
8.04434e-06
3.87007e-06
1.29064e-06
-1.62525e-07
-8.56584e-07
-1.07116e-06
-1.01158e-06
-8.21428e-07
-5.94376e-07
-3.85215e-07
-2.2005e-07
-1.05392e-07
-3.59403e-08
-7.96924e-10
1.20317e-08
1.2838e-08
8.93861e-09
4.56974e-09
1.51168e-09
-1.12995e-12
-4.31686e-10
-3.52272e-10
-1.6033e-10
-2.96385e-11
1.76176e-11
1.80101e-11
7.0308e-12
2.94253e-13
-1.14303e-12
-5.59195e-13
-4.64592e-14
5.76076e-14
1.86775e-14
-5.20219e-09
-1.5376e-08
-2.33846e-08
-2.04071e-08
1.14799e-08
9.12703e-08
2.21865e-07
3.61244e-07
3.91952e-07
1.1352e-07
-7.05319e-07
-2.18139e-06
-4.07928e-06
-5.55063e-06
-5.00731e-06
-3.47129e-07
1.02789e-05
2.71387e-05
4.73212e-05
6.35157e-05
6.40401e-05
3.48943e-05
-3.5929e-05
-0.000152545
-0.000305332
-0.000467367
-0.000595233
-0.000635154
-0.000533777
-0.000251076
0.00022817
0.000887829
0.00168097
0.00253756
0.00337731
0.00412402
0.00471805
0.0051239
0.005332
0.00535528
0.00522241
0.00496985
0.00463489
0.00425071
0.0038439
0.00343399
0.00303442
0.002654
0.00229831
0.00197081
0.00167299
0.00140463
0.00116676
0.00095862
0.000778872
0.000625597
0.000496525
0.00038918
0.000301017
0.000229524
0.000172304
0.000127131
9.19849e-05
6.50682e-05
4.48123e-05
2.98695e-05
1.90992e-05
1.15502e-05
6.4396e-06
3.1324e-06
1.12121e-06
7.90133e-09
-5.13172e-07
-6.69978e-07
-6.26107e-07
-4.92754e-07
-3.39661e-07
-2.05136e-07
-1.05116e-07
-4.11062e-08
-6.74318e-09
7.22204e-09
9.6144e-09
7.09564e-09
3.70131e-09
1.226e-09
-2.01652e-12
-3.38518e-10
-2.63766e-10
-1.09611e-10
-1.30148e-11
1.63656e-11
1.25964e-11
3.67993e-12
-4.86473e-13
-8.38987e-13
-2.53928e-13
2.67012e-14
3.82604e-14
-2.02705e-08
-2.44193e-08
-3.23842e-09
6.34036e-08
1.87696e-07
3.42022e-07
4.21528e-07
2.2236e-07
-5.21524e-07
-1.99543e-06
-4.03682e-06
-5.80383e-06
-5.55571e-06
-8.25652e-07
1.07274e-05
2.96839e-05
5.27425e-05
7.09336e-05
6.94022e-05
2.99786e-05
-6.29169e-05
-0.000213804
-0.000407425
-0.000603188
-0.000736139
-0.000726252
-0.000495088
1.40705e-05
0.00081849
0.00188643
0.00313928
0.00446534
0.00574122
0.00685493
0.00772433
0.00830676
0.00859879
0.00862816
0.00844146
0.00809176
0.00762913
0.00709521
0.00652172
0.00593157
0.00534113
0.00476245
0.00420491
0.00367604
0.00318179
0.00272664
0.00231307
0.00194266
0.0016154
0.00132981
0.0010836
0.000873848
0.000697239
0.000550242
0.000429295
0.000330921
0.000251836
0.000189009
0.000139709
0.000101521
7.23493e-05
5.04017e-05
3.417e-05
2.2401e-05
1.40666e-05
8.33236e-06
4.52916e-06
2.12635e-06
7.08796e-07
-4.28287e-08
-3.68675e-07
-4.43771e-07
-3.90111e-07
-2.87323e-07
-1.82316e-07
-9.80414e-08
-4.13268e-08
-9.53945e-09
4.17238e-09
7.23424e-09
5.57752e-09
2.91177e-09
9.28365e-10
-3.45118e-11
-2.72523e-10
-1.93702e-10
-6.971e-11
-1.32784e-12
1.4147e-11
8.09806e-12
1.43346e-12
-7.35422e-13
-5.06235e-13
-6.92916e-14
4.96351e-14
-2.25727e-08
2.8194e-08
1.31312e-07
2.86331e-07
4.19239e-07
3.50879e-07
-1.96369e-07
-1.48878e-06
-3.5236e-06
-5.64873e-06
-6.21702e-06
-2.5855e-06
8.15209e-06
2.74395e-05
5.27029e-05
7.48072e-05
7.70363e-05
3.73642e-05
-6.48155e-05
-0.00023791
-0.000465912
-0.000699277
-0.000853941
-0.000821902
-0.000493052
0.000216528
0.00133809
0.00283448
0.00460113
0.00648451
0.00831266
0.00992869
0.0112176
0.01212
0.0126309
0.012787
0.012649
0.0122838
0.0117529
0.0111057
0.0103797
0.00960292
0.00879704
0.00798033
0.00716902
0.00637764
0.00561877
0.00490269
0.00423712
0.00362731
0.00307557
0.00258273
0.00214829
0.00176983
0.00144401
0.00116673
0.000933395
0.000739235
0.000579445
0.000449373
0.000344644
0.000261237
0.000195543
0.000144381
0.000105001
7.50637e-05
5.26075e-05
3.60128e-05
2.39576e-05
1.53757e-05
9.4154e-06
5.40257e-06
2.80829e-06
1.22146e-06
3.26385e-07
-1.15341e-07
-2.79276e-07
-2.89992e-07
-2.31075e-07
-1.53977e-07
-8.60795e-08
-3.80236e-08
-1.01412e-08
2.32041e-09
5.42467e-09
4.2927e-09
2.20068e-09
6.48367e-10
-7.0765e-11
-2.17485e-10
-1.35724e-10
-3.91791e-11
5.51758e-12
1.09841e-11
4.50208e-12
1.40541e-13
-6.36987e-13
-2.28631e-13
3.20366e-14
4.62824e-08
2.04214e-07
3.65954e-07
4.28826e-07
1.40527e-07
-8.17159e-07
-2.6272e-06
-4.96095e-06
-6.52519e-06
-4.81451e-06
3.48262e-06
2.09808e-05
4.68931e-05
7.37477e-05
8.50823e-05
5.63529e-05
-3.88957e-05
-0.00021705
-0.000468768
-0.000744731
-0.000949619
-0.000950232
-0.000599604
0.000227124
0.00159506
0.00348271
0.00577617
0.00828774
0.010794
0.0130814
0.014985
0.0164112
0.0173385
0.0178027
0.0178726
0.0176269
0.0171378
0.0164632
0.015647
0.0147226
0.013718
0.0126585
0.0115685
0.0104713
0.00938814
0.00833774
0.00733552
0.00639358
0.00552078
0.00472294
0.00400241
0.00335978
0.00279404
0.00230179
0.00187845
0.0015185
0.00121587
0.000964234
0.000757269
0.000588871
0.000453308
0.000345326
0.000260214
0.00019383
0.0001426
0.000103489
7.39636e-05
5.19399e-05
3.57254e-05
2.39641e-05
1.55811e-05
9.73228e-06
5.75996e-06
3.15505e-06
1.52582e-06
5.73127e-07
7.10878e-08
-1.47659e-07
-2.03368e-07
-1.78348e-07
-1.24812e-07
-7.19848e-08
-3.26857e-08
-9.27324e-09
1.36556e-09
4.09653e-09
3.2409e-09
1.593e-09
4.08482e-10
-9.82513e-11
-1.68838e-10
-8.88428e-11
-1.75809e-11
8.23554e-12
7.48663e-12
1.95365e-12
-3.92912e-13
-3.92497e-13
-3.47635e-14
2.31532e-07
4.18007e-07
3.69169e-07
-1.7818e-07
-1.54555e-06
-3.75507e-06
-6.05284e-06
-6.44013e-06
-1.63766e-06
1.19486e-05
3.58332e-05
6.5809e-05
8.82924e-05
7.90206e-05
6.96846e-06
-0.000154538
-0.000410175
-0.000722913
-0.00100011
-0.00109413
-0.000823209
-1.10923e-05
0.00146396
0.00362647
0.0063831
0.00953318
0.0128087
0.0159309
0.0186659
0.0208611
0.0224568
0.0234712
0.0239723
0.0240471
0.0237779
0.0232314
0.0224575
0.0214942
0.0203737
0.0191272
0.0177865
0.0163836
0.0149501
0.0135149
0.0121042
0.0107404
0.0094422
0.00822414
0.00709698
0.00606779
0.00513928
0.0043119
0.00358413
0.00295142
0.00240773
0.00194585
0.00155784
0.0012355
0.000970616
0.00075529
0.000582104
0.000444272
0.000335713
0.000251086
0.000185785
0.000135906
9.81932e-05
6.99739e-05
4.90852e-05
3.38012e-05
2.27623e-05
1.49095e-05
9.42566e-06
5.68514e-06
3.21122e-06
1.6419e-06
7.0328e-07
1.89274e-07
-5.31724e-08
-1.34992e-07
-1.33249e-07
-9.78952e-08
-5.78233e-08
-2.65694e-08
-7.62082e-09
9.82941e-10
3.1268e-09
2.39514e-09
1.09582e-09
2.20107e-10
-1.10649e-10
-1.24693e-10
-5.2514e-11
-4.02352e-12
7.93409e-12
4.29257e-12
4.50688e-13
-4.33801e-13
-1.53589e-13
4.31429e-07
2.61847e-07
-5.51476e-07
-2.27854e-06
-4.73294e-06
-6.69001e-06
-5.46306e-06
2.83363e-06
2.16673e-05
5.07723e-05
8.17078e-05
9.42305e-05
5.66693e-05
-6.63451e-05
-0.000297249
-0.000622357
-0.000969319
-0.00119586
-0.00109992
-0.000455339
0.000932522
0.00316704
0.0062172
0.00990841
0.0139533
0.0180133
0.021771
0.0249887
0.027538
0.0293949
0.0306107
0.0312732
0.031474
0.0312887
0.0307726
0.0299658
0.0289013
0.0276115
0.0261319
0.0245009
0.0227586
0.020945
0.0190984
0.0172544
0.0154447
0.0136973
0.0120353
0.0104771
0.00903619
0.0077214
0.00653608
0.00548063
0.00455289
0.00374691
0.00305484
0.00246736
0.00197424
0.00156491
0.00122885
0.000955912
0.000736616
0.000562276
0.000425121
0.000318331
0.000236029
0.000173236
0.0001258
9.03173e-05
6.40347e-05
4.476e-05
3.07715e-05
2.07346e-05
1.36271e-05
8.67405e-06
5.29259e-06
3.04633e-06
1.60909e-06
7.37034e-07
2.47982e-07
6.72677e-09
-8.52808e-08
-9.72641e-08
-7.48119e-08
-4.48739e-08
-2.05508e-08
-5.70647e-09
9.04492e-10
2.40299e-09
1.7218e-09
7.05569e-10
8.55142e-11
-1.07267e-10
-8.5383e-11
-2.62912e-11
2.89077e-12
5.92815e-12
1.8865e-12
-1.87804e-13
-2.89846e-13
2.68516e-07
-9.24893e-07
-2.93253e-06
-5.49019e-06
-6.90742e-06
-3.88309e-06
7.89164e-06
3.1439e-05
6.43002e-05
9.34561e-05
9.20498e-05
2.18929e-05
-0.000154557
-0.000451878
-0.000833355
-0.00118673
-0.0013173
-0.000969214
0.000123016
0.00216381
0.00522851
0.00922348
0.0138917
0.0188652
0.0237467
0.0281934
0.0319745
0.0349888
0.0372441
0.0388149
0.0397969
0.0402753
0.0403119
0.0399471
0.0392096
0.0381266
0.0367298
0.0350575
0.0331534
0.0310651
0.0288415
0.0265315
0.024182
0.0218375
0.0195382
0.0173191
0.0152097
0.0132332
0.0114067
0.00974115
0.00824074
0.00690575
0.00573314
0.00471518
0.00384174
0.00310084
0.00247942
0.00196399
0.00154116
0.00119804
0.000922595
0.000703825
0.000531897
0.000398188
0.000295274
0.000216868
0.000157731
0.000113566
8.09005e-05
5.69695e-05
3.96023e-05
2.71189e-05
1.82366e-05
1.19886e-05
7.65413e-06
4.7005e-06
2.7362e-06
1.47363e-06
7.00863e-07
2.61142e-07
3.84874e-08
-5.1894e-08
-7.00598e-08
-5.60237e-08
-3.37655e-08
-1.51557e-08
-3.87909e-09
9.38607e-10
1.83932e-09
1.19076e-09
4.13447e-10
6.92575e-13
-9.13165e-11
-5.23733e-11
-9.38027e-12
4.97475e-12
3.46382e-12
4.60374e-13
-3.6129e-13
-8.32065e-07
-3.47933e-06
-6.01799e-06
-6.83729e-06
-2.09287e-06
1.28008e-05
4.02658e-05
7.55637e-05
0.000101207
8.41988e-05
-1.91705e-05
-0.000247026
-0.000604031
-0.00102833
-0.00136628
-0.00137069
-0.000733843
0.000845409
0.00357688
0.00750475
0.0124728
0.0181464
0.0240854
0.0298444
0.0350642
0.039525
0.0431513
0.0459761
0.0480867
0.0495769
0.050518
0.0509524
0.0509019
0.0503812
0.0494084
0.048011
0.0462269
0.0441027
0.0416917
0.0390517
0.0362429
0.0333263
0.0303613
0.027404
0.0245053
0.0217096
0.0190541
0.0165679
0.0142721
0.0121803
0.0102976
0.0086239
0.00715494
0.00588072
0.00478826
0.00386228
0.00308621
0.00244299
0.0019157
0.00148814
0.00114517
0.000872972
0.000659235
0.000493161
0.000365465
0.000268291
0.000195098
0.000140523
0.000100233
7.07738e-05
4.94372e-05
3.41245e-05
2.32342e-05
1.55602e-05
1.02068e-05
6.51674e-06
4.01259e-06
2.34962e-06
1.27923e-06
6.21195e-07
2.4375e-07
4.99388e-08
-3.12173e-08
-5.02999e-08
-4.12827e-08
-2.46675e-08
-1.06349e-08
-2.3361e-09
9.68403e-10
1.38024e-09
7.7886e-10
2.07971e-10
-4.2557e-11
-6.81772e-11
-2.71649e-11
-3.42327e-13
4.21959e-12
1.44893e-12
-2.53465e-13
-3.18401e-06
-6.40684e-06
-6.64318e-06
-4.81926e-07
1.69318e-05
4.74463e-05
8.42784e-05
0.00010597
7.4117e-05
-5.96911e-05
-0.000333517
-0.00074195
-0.00119858
-0.00150975
-0.00137778
-0.0004451
0.00162388
0.00504493
0.00983413
0.0157788
0.0224746
0.0294187
0.0361252
0.0422228
0.047503
0.0519118
0.0554998
0.0583594
0.0605752
0.0621985
0.0632476
0.0637213
0.0636154
0.0629338
0.0616945
0.0599297
0.0576848
0.0550165
0.0519899
0.0486772
0.0451543
0.0414983
0.0377842
0.0340828
0.0304582
0.0269657
0.0236515
0.0205516
0.0176919
0.0150887
0.0127479
0.010669
0.00884594
0.00726589
0.00591232
0.00476593
0.00380587
0.00301074
0.00235941
0.00183163
0.00140856
0.00107302
0.000809731
0.000605295
0.000448218
0.000328785
0.000238911
0.000171974
0.000122625
8.66059e-05
6.05716e-05
4.19319e-05
2.87074e-05
1.94068e-05
1.2922e-05
8.44104e-06
5.37671e-06
3.30936e-06
1.94133e-06
1.06179e-06
5.20537e-07
2.0919e-07
4.85212e-08
-1.94673e-08
-3.6297e-08
-2.9993e-08
-1.74747e-08
-7.05051e-09
-1.1596e-09
9.38432e-10
9.96301e-10
4.69239e-10
7.5913e-11
-5.49178e-11
-4.3734e-11
-1.04031e-11
2.90969e-12
2.43275e-12
1.2976e-13
-6.07319e-06
-6.55811e-06
6.47285e-07
1.98248e-05
5.25534e-05
9.05052e-05
0.000109058
6.5285e-05
-9.33968e-05
-0.000405373
-0.000856903
-0.00134014
-0.00162539
-0.00136801
-0.000162299
0.00236323
0.00643551
0.0120511
0.0189514
0.0266731
0.0346586
0.0423869
0.0494756
0.0557247
0.0610966
0.0656536
0.069488
0.0726695
0.0752255
0.0771455
0.0784001
0.0789596
0.0788069
0.0779428
0.0763876
0.0741799
0.0713751
0.0680435
0.0642673
0.0601376
0.0557504
0.0512026
0.0465882
0.0419951
0.0375026
0.0331789
0.0290806
0.0252514
0.0217225
0.0185134
0.0156307
0.0130729
0.0108319
0.00889134
0.00723031
0.00582466
0.00464842
0.003675
0.0028782
0.00223302
0.00171619
0.00130658
0.00098536
0.000736107
0.000544715
0.000399281
0.000289914
0.000208519
0.000148565
0.000104854
7.33064e-05
5.07618e-05
3.4805e-05
2.36141e-05
1.58334e-05
1.04682e-05
6.79887e-06
4.31209e-06
2.64649e-06
1.55002e-06
8.47366e-07
4.15778e-07
1.67891e-07
4.031e-08
-1.3359e-08
-2.64409e-08
-2.14673e-08
-1.19515e-08
-4.35133e-09
-3.53227e-10
8.37413e-10
6.76487e-10
2.4866e-10
2.55015e-12
-4.7941e-11
-2.29027e-11
-1.40303e-12
2.78433e-12
7.88943e-13
-7.11091e-06
1.05578e-06
2.12155e-05
5.53608e-05
9.44051e-05
0.000111592
6.04813e-05
-0.000115403
-0.000456029
-0.000942705
-0.00145153
-0.00172301
-0.00137062
5.79064e-05
0.00297359
0.0076236
0.0139981
0.0218065
0.0305386
0.0395903
0.0484077
0.0565958
0.0639591
0.0704716
0.0762036
0.0812436
0.0856447
0.0894068
0.0924866
0.0948205
0.0963462
0.0970168
0.0968079
0.0957193
0.0937754
0.0910242
0.0875359
0.0833996
0.0787196
0.0736103
0.0681916
0.0625834
0.0569018
0.0512544
0.045738
0.0404355
0.0354153
0.03073
0.0264166
0.0224981
0.0189817
0.0158648
0.0131363
0.0107757
0.00875687
0.00704987
0.00562262
0.00444241
0.00347708
0.00269602
0.00207081
0.00157563
0.00118758
0.000886663
0.000655739
0.000480369
0.000348566
0.00025053
0.000178361
0.00012578
8.78635e-05
6.0799e-05
4.16736e-05
2.82897e-05
1.90105e-05
1.2633e-05
8.28499e-06
5.3432e-06
3.36884e-06
2.05731e-06
1.1995e-06
6.52535e-07
3.18059e-07
1.27026e-07
2.96781e-08
-1.0397e-08
-1.94171e-08
-1.50755e-08
-7.82476e-09
-2.42731e-09
1.27176e-10
6.81438e-10
4.19699e-10
1.04493e-10
-2.79244e-11
-3.23839e-11
-8.55154e-12
1.77437e-12
1.55702e-12
-2.34577e-06
2.1124e-05
5.57809e-05
9.60598e-05
0.000114173
6.131e-05
-0.000122684
-0.000481157
-0.000995039
-0.00153158
-0.0018098
-0.00140808
0.000170339
0.00338077
0.00850242
0.0155355
0.0241746
0.0338764
0.0439975
0.0539525
0.0633304
0.0719354
0.0797491
0.0868479
0.0933163
0.0991905
0.104442
0.108991
0.112735
0.11557
0.117412
0.1182
0.117905
0.116528
0.114101
0.110685
0.106372
0.101274
0.0955209
0.0892548
0.0826228
0.0757713
0.0688412
0.0619631
0.0552534
0.0488121
0.0427207
0.037042
0.0318198
0.0270802
0.0228314
0.0190691
0.0157786
0.0129343
0.010504
0.00845077
0.00673548
0.00531822
0.00415994
0.00322349
0.00247444
0.00188163
0.0014174
0.00105764
0.000781753
0.000572364
0.000415087
0.000298167
0.000212143
0.0001495
0.000104353
7.21487e-05
4.94114e-05
3.35204e-05
2.25238e-05
1.49859e-05
9.86431e-06
6.41223e-06
4.10227e-06
2.56768e-06
1.55733e-06
9.01442e-07
4.8593e-07
2.33571e-07
9.0841e-08
1.93816e-08
-8.90159e-09
-1.42698e-08
-1.0308e-08
-4.83338e-09
-1.14443e-09
3.50458e-10
4.99659e-10
2.27326e-10
2.26031e-11
-3.13605e-11
-1.66271e-11
-1.06843e-12
2.08062e-12
1.23923e-05
5.4296e-05
9.53809e-05
0.000116742
6.79981e-05
-0.000114285
-0.000478713
-0.001011
-0.00157802
-0.00188751
-0.00149155
0.000147592
0.0035341
0.00899227
0.0165512
0.0259105
0.0365091
0.0476725
0.0587839
0.0694121
0.0793555
0.0886004
0.097229
0.105324
0.112908
0.119925
0.126257
0.131757
0.136276
0.139679
0.141863
0.142757
0.142328
0.14058
0.137559
0.133346
0.128055
0.121826
0.114819
0.107207
0.0991662
0.090875
0.0825022
0.0742041
0.06612
0.0583688
0.0510474
0.0442294
0.037966
0.0322874
0.0272019
0.0227033
0.0187724
0.0153777
0.0124796
0.0100333
0.00799137
0.00630563
0.00492905
0.00381699
0.00292818
0.00222528
0.00167525
0.00124932
0.000922902
0.000675333
0.000489496
0.000351429
0.000249903
0.000176011
0.000122782
8.4831e-05
5.80509e-05
3.93471e-05
2.64173e-05
1.75682e-05
1.15702e-05
7.54106e-06
4.85607e-06
3.07928e-06
1.91114e-06
1.14921e-06
6.58645e-07
3.50283e-07
1.64734e-07
6.12877e-08
1.08653e-08
-7.88628e-09
-1.03705e-08
-6.78209e-09
-2.74738e-09
-3.64536e-10
3.9379e-10
3.23083e-10
9.78207e-11
-1.32185e-11
-2.19694e-11
-5.53033e-12
1.89721e-12
3.89989e-05
9.31905e-05
0.000118567
7.94428e-05
-9.13267e-05
-0.000448982
-0.00098909
-0.00158722
-0.00195157
-0.0016189
-1.65285e-05
0.00341145
0.00904717
0.0169687
0.0269028
0.0382881
0.0504284
0.0626763
0.0745753
0.085912
0.0966745
0.106952
0.116832
0.126327
0.135357
0.14377
0.15137
0.157955
0.163337
0.167358
0.169894
0.170866
0.17024
0.16803
0.164298
0.159146
0.152716
0.145178
0.136725
0.127564
0.117909
0.10797
0.0979492
0.0880318
0.0783829
0.0691426
0.0604248
0.0523154
0.0448737
0.0381335
0.0321036
0.0267749
0.0221232
0.0181095
0.0146861
0.011799
0.00939118
0.00740507
0.00578454
0.00447648
0.00343184
0.00260637
0.0019609
0.00146144
0.00107896
0.000789071
0.000571615
0.000410163
0.000291515
0.000205212
0.000143077
9.87972e-05
6.75655e-05
4.57627e-05
3.06988e-05
2.03974e-05
1.34243e-05
8.75007e-06
5.64537e-06
3.59971e-06
2.26093e-06
1.38994e-06
8.27236e-07
4.68106e-07
2.44411e-07
1.11416e-07
3.87295e-08
4.63784e-09
-6.8764e-09
-7.34218e-09
-4.2201e-09
-1.36966e-09
4.40892e-11
3.31145e-10
1.76525e-10
2.38805e-11
-2.01072e-11
-1.04264e-11
6.15501e-13
7.42374e-05
0.000120183
9.33253e-05
-5.68053e-05
-0.000394637
-0.000929655
-0.00155498
-0.00199189
-0.00177523
-0.000306565
0.00302126
0.00865886
0.0167532
0.0270817
0.0391034
0.0521121
0.0654313
0.078574
0.0913085
0.103621
0.115611
0.127376
0.138927
0.150171
0.16092
0.170935
0.179958
0.18774
0.194059
0.198731
0.201617
0.20263
0.20174
0.198972
0.194405
0.188167
0.180429
0.171394
0.161294
0.150375
0.138889
0.127087
0.115205
0.103463
0.0920531
0.0811402
0.0708561
0.0613006
0.0525411
0.0446155
0.0375327
0.0312797
0.0258263
0.0211254
0.0171195
0.0137441
0.0109316
0.00861362
0.00672393
0.00519987
0.00398372
0.00302349
0.00227324
0.00169314
0.00124924
0.000913043
0.000661032
0.000474054
0.000336739
0.000236922
0.0001651
0.000113947
7.78848e-05
5.27216e-05
3.53432e-05
2.34647e-05
1.54291e-05
1.00487e-05
6.48175e-06
4.13885e-06
2.61233e-06
1.62421e-06
9.88026e-07
5.80954e-07
3.23541e-07
1.64878e-07
7.19838e-08
2.25658e-08
6.22088e-10
-5.72816e-09
-4.97632e-09
-2.41824e-09
-5.30856e-10
2.00717e-10
2.25148e-10
7.37559e-11
-7.57303e-12
-1.36783e-11
-1.84835e-12
0.000107761
0.000108753
-1.54341e-05
-0.000320646
-0.000835471
-0.00147801
-0.00199535
-0.0019357
-0.000687912
0.00240134
0.00785773
0.0159152
0.0264264
0.038894
0.0526165
0.0668927
0.0812004
0.0952816
0.109117
0.122816
0.136494
0.150176
0.163762
0.177041
0.189731
0.201521
0.212097
0.22117
0.228485
0.233832
0.237059
0.238074
0.236849
0.233423
0.227894
0.220416
0.211194
0.200469
0.188514
0.175621
0.162085
0.1482
0.134242
0.120468
0.107101
0.0943324
0.0823135
0.0711584
0.0609437
0.051711
0.0434688
0.0361997
0.0298662
0.0244118
0.0197681
0.0158589
0.0126044
0.00992459
0.00774178
0.0059828
0.00458036
0.00347394
0.00261016
0.0019428
0.00143251
0.00104633
0.000757063