# vtk DataFile Version 3.0
Malha 2D com triângulos e temperatura
ASCII
DATASET UNSTRUCTURED_GRID

POINTS 10000 double
0 0 0
10 0 0
10 10 0
0 10 0
0.10101 0 0
0.20202 0 0
0.30303 0 0
0.40404 0 0
0.505051 0 0
0.606061 0 0
0.707071 0 0
0.808081 0 0
0.909091 0 0
1.0101 0 0
1.11111 0 0
1.21212 0 0
1.31313 0 0
1.41414 0 0
1.51515 0 0
1.61616 0 0
1.71717 0 0
1.81818 0 0
1.91919 0 0
2.0202 0 0
2.12121 0 0
2.22222 0 0
2.32323 0 0
2.42424 0 0
2.52525 0 0
2.62626 0 0
2.72727 0 0
2.82828 0 0
2.92929 0 0
3.0303 0 0
3.13131 0 0
3.23232 0 0
3.33333 0 0
3.43434 0 0
3.53535 0 0
3.63636 0 0
3.73737 0 0
3.83838 0 0
3.93939 0 0
4.0404 0 0
4.14141 0 0
4.24242 0 0
4.34343 0 0
4.44444 0 0
4.54545 0 0
4.64646 0 0
4.74747 0 0
4.84848 0 0
4.94949 0 0
5.05051 0 0
5.15152 0 0
5.25253 0 0
5.35354 0 0
5.45455 0 0
5.55556 0 0
5.65657 0 0
5.75758 0 0
5.85859 0 0
5.9596 0 0
6.06061 0 0
6.16162 0 0
6.26263 0 0
6.36364 0 0
6.46465 0 0
6.56566 0 0
6.66667 0 0
6.76768 0 0
6.86869 0 0
6.9697 0 0
7.07071 0 0
7.17172 0 0
7.27273 0 0
7.37374 0 0
7.47475 0 0
7.57576 0 0
7.67677 0 0
7.77778 0 0
7.87879 0 0
7.9798 0 0
8.08081 0 0
8.18182 0 0
8.28283 0 0
8.38384 0 0
8.48485 0 0
8.58586 0 0
8.68687 0 0
8.78788 0 0
8.88889 0 0
8.9899 0 0
9.09091 0 0
9.19192 0 0
9.29293 0 0
9.39394 0 0
9.49495 0 0
9.59596 0 0
9.69697 0 0
9.79798 0 0
9.89899 0 0
10 0.10101 0
10 0.20202 0
10 0.30303 0
10 0.40404 0
10 0.505051 0
10 0.606061 0
10 0.707071 0
10 0.808081 0
10 0.909091 0
10 1.0101 0
10 1.11111 0
10 1.21212 0
10 1.31313 0
10 1.41414 0
10 1.51515 0
10 1.61616 0
10 1.71717 0
10 1.81818 0
10 1.91919 0
10 2.0202 0
10 2.12121 0
10 2.22222 0
10 2.32323 0
10 2.42424 0
10 2.52525 0
10 2.62626 0
10 2.72727 0
10 2.82828 0
10 2.92929 0
10 3.0303 0
10 3.13131 0
10 3.23232 0
10 3.33333 0
10 3.43434 0
10 3.53535 0
10 3.63636 0
10 3.73737 0
10 3.83838 0
10 3.93939 0
10 4.0404 0
10 4.14141 0
10 4.24242 0
10 4.34343 0
10 4.44444 0
10 4.54545 0
10 4.64646 0
10 4.74747 0
10 4.84848 0
10 4.94949 0
10 5.05051 0
10 5.15152 0
10 5.25253 0
10 5.35354 0
10 5.45455 0
10 5.55556 0
10 5.65657 0
10 5.75758 0
10 5.85859 0
10 5.9596 0
10 6.06061 0
10 6.16162 0
10 6.26263 0
10 6.36364 0
10 6.46465 0
10 6.56566 0
10 6.66667 0
10 6.76768 0
10 6.86869 0
10 6.9697 0
10 7.07071 0
10 7.17172 0
10 7.27273 0
10 7.37374 0
10 7.47475 0
10 7.57576 0
10 7.67677 0
10 7.77778 0
10 7.87879 0
10 7.9798 0
10 8.08081 0
10 8.18182 0
10 8.28283 0
10 8.38384 0
10 8.48485 0
10 8.58586 0
10 8.68687 0
10 8.78788 0
10 8.88889 0
10 8.9899 0
10 9.09091 0
10 9.19192 0
10 9.29293 0
10 9.39394 0
10 9.49495 0
10 9.59596 0
10 9.69697 0
10 9.79798 0
10 9.89899 0
9.89899 10 0
9.79798 10 0
9.69697 10 0
9.59596 10 0
9.49495 10 0
9.39394 10 0
9.29293 10 0
9.19192 10 0
9.09091 10 0
8.9899 10 0
8.88889 10 0
8.78788 10 0
8.68687 10 0
8.58586 10 0
8.48485 10 0
8.38384 10 0
8.28283 10 0
8.18182 10 0
8.08081 10 0
7.9798 10 0
7.87879 10 0
7.77778 10 0
7.67677 10 0
7.57576 10 0
7.47475 10 0
7.37374 10 0
7.27273 10 0
7.17172 10 0
7.07071 10 0
6.9697 10 0
6.86869 10 0
6.76768 10 0
6.66667 10 0
6.56566 10 0
6.46465 10 0
6.36364 10 0
6.26263 10 0
6.16162 10 0
6.06061 10 0
5.9596 10 0
5.85859 10 0
5.75758 10 0
5.65657 10 0
5.55556 10 0
5.45455 10 0
5.35354 10 0
5.25253 10 0
5.15152 10 0
5.05051 10 0
4.94949 10 0
4.84848 10 0
4.74747 10 0
4.64646 10 0
4.54545 10 0
4.44444 10 0
4.34343 10 0
4.24242 10 0
4.14141 10 0
4.0404 10 0
3.93939 10 0
3.83838 10 0
3.73737 10 0
3.63636 10 0
3.53535 10 0
3.43434 10 0
3.33333 10 0
3.23232 10 0
3.13131 10 0
3.0303 10 0
2.92929 10 0
2.82828 10 0
2.72727 10 0
2.62626 10 0
2.52525 10 0
2.42424 10 0
2.32323 10 0
2.22222 10 0
2.12121 10 0
2.0202 10 0
1.91919 10 0
1.81818 10 0
1.71717 10 0
1.61616 10 0
1.51515 10 0
1.41414 10 0
1.31313 10 0
1.21212 10 0
1.11111 10 0
1.0101 10 0
0.909091 10 0
0.808081 10 0
0.707071 10 0
0.606061 10 0
0.505051 10 0
0.40404 10 0
0.30303 10 0
0.20202 10 0
0.10101 10 0
0 9.89899 0
0 9.79798 0
0 9.69697 0
0 9.59596 0
0 9.49495 0
0 9.39394 0
0 9.29293 0
0 9.19192 0
0 9.09091 0
0 8.9899 0
0 8.88889 0
0 8.78788 0
0 8.68687 0
0 8.58586 0
0 8.48485 0
0 8.38384 0
0 8.28283 0
0 8.18182 0
0 8.08081 0
0 7.9798 0
0 7.87879 0
0 7.77778 0
0 7.67677 0
0 7.57576 0
0 7.47475 0
0 7.37374 0
0 7.27273 0
0 7.17172 0
0 7.07071 0
0 6.9697 0
0 6.86869 0
0 6.76768 0
0 6.66667 0
0 6.56566 0
0 6.46465 0
0 6.36364 0
0 6.26263 0
0 6.16162 0
0 6.06061 0
0 5.9596 0
0 5.85859 0
0 5.75758 0
0 5.65657 0
0 5.55556 0
0 5.45455 0
0 5.35354 0
0 5.25253 0
0 5.15152 0
0 5.05051 0
0 4.94949 0
0 4.84848 0
0 4.74747 0
0 4.64646 0
0 4.54545 0
0 4.44444 0
0 4.34343 0
0 4.24242 0
0 4.14141 0
0 4.0404 0
0 3.93939 0
0 3.83838 0
0 3.73737 0
0 3.63636 0
0 3.53535 0
0 3.43434 0
0 3.33333 0
0 3.23232 0
0 3.13131 0
0 3.0303 0
0 2.92929 0
0 2.82828 0
0 2.72727 0
0 2.62626 0
0 2.52525 0
0 2.42424 0
0 2.32323 0
0 2.22222 0
0 2.12121 0
0 2.0202 0
0 1.91919 0
0 1.81818 0
0 1.71717 0
0 1.61616 0
0 1.51515 0
0 1.41414 0
0 1.31313 0
0 1.21212 0
0 1.11111 0
0 1.0101 0
0 0.909091 0
0 0.808081 0
0 0.707071 0
0 0.606061 0
0 0.505051 0
0 0.40404 0
0 0.30303 0
0 0.20202 0
0 0.10101 0
0.10101 0.10101 0
0.10101 0.20202 0
0.10101 0.30303 0
0.10101 0.40404 0
0.10101 0.505051 0
0.10101 0.606061 0
0.10101 0.707071 0
0.10101 0.808081 0
0.10101 0.909091 0
0.10101 1.0101 0
0.10101 1.11111 0
0.10101 1.21212 0
0.10101 1.31313 0
0.10101 1.41414 0
0.10101 1.51515 0
0.10101 1.61616 0
0.10101 1.71717 0
0.10101 1.81818 0
0.10101 1.91919 0
0.10101 2.0202 0
0.10101 2.12121 0
0.10101 2.22222 0
0.10101 2.32323 0
0.10101 2.42424 0
0.10101 2.52525 0
0.10101 2.62626 0
0.10101 2.72727 0
0.10101 2.82828 0
0.10101 2.92929 0
0.10101 3.0303 0
0.10101 3.13131 0
0.10101 3.23232 0
0.10101 3.33333 0
0.10101 3.43434 0
0.10101 3.53535 0
0.10101 3.63636 0
0.10101 3.73737 0
0.10101 3.83838 0
0.10101 3.93939 0
0.10101 4.0404 0
0.10101 4.14141 0
0.10101 4.24242 0
0.10101 4.34343 0
0.10101 4.44444 0
0.10101 4.54545 0
0.10101 4.64646 0
0.10101 4.74747 0
0.10101 4.84848 0
0.10101 4.94949 0
0.10101 5.05051 0
0.10101 5.15152 0
0.10101 5.25253 0
0.10101 5.35354 0
0.10101 5.45455 0
0.10101 5.55556 0
0.10101 5.65657 0
0.10101 5.75758 0
0.10101 5.85859 0
0.10101 5.9596 0
0.10101 6.06061 0
0.10101 6.16162 0
0.10101 6.26263 0
0.10101 6.36364 0
0.10101 6.46465 0
0.10101 6.56566 0
0.10101 6.66667 0
0.10101 6.76768 0
0.10101 6.86869 0
0.10101 6.9697 0
0.10101 7.07071 0
0.10101 7.17172 0
0.10101 7.27273 0
0.10101 7.37374 0
0.10101 7.47475 0
0.10101 7.57576 0
0.10101 7.67677 0
0.10101 7.77778 0
0.10101 7.87879 0
0.10101 7.9798 0
0.10101 8.08081 0
0.10101 8.18182 0
0.10101 8.28283 0
0.10101 8.38384 0
0.10101 8.48485 0
0.10101 8.58586 0
0.10101 8.68687 0
0.10101 8.78788 0
0.10101 8.88889 0
0.10101 8.9899 0
0.10101 9.09091 0
0.10101 9.19192 0
0.10101 9.29293 0
0.10101 9.39394 0
0.10101 9.49495 0
0.10101 9.59596 0
0.10101 9.69697 0
0.10101 9.79798 0
0.10101 9.89899 0
0.20202 0.10101 0
0.20202 0.20202 0
0.20202 0.30303 0
0.20202 0.40404 0
0.20202 0.505051 0
0.20202 0.606061 0
0.20202 0.707071 0
0.20202 0.808081 0
0.20202 0.909091 0
0.20202 1.0101 0
0.20202 1.11111 0
0.20202 1.21212 0
0.20202 1.31313 0
0.20202 1.41414 0
0.20202 1.51515 0
0.20202 1.61616 0
0.20202 1.71717 0
0.20202 1.81818 0
0.20202 1.91919 0
0.20202 2.0202 0
0.20202 2.12121 0
0.20202 2.22222 0
0.20202 2.32323 0
0.20202 2.42424 0
0.20202 2.52525 0
0.20202 2.62626 0
0.20202 2.72727 0
0.20202 2.82828 0
0.20202 2.92929 0
0.20202 3.0303 0
0.20202 3.13131 0
0.20202 3.23232 0
0.20202 3.33333 0
0.20202 3.43434 0
0.20202 3.53535 0
0.20202 3.63636 0
0.20202 3.73737 0
0.20202 3.83838 0
0.20202 3.93939 0
0.20202 4.0404 0
0.20202 4.14141 0
0.20202 4.24242 0
0.20202 4.34343 0
0.20202 4.44444 0
0.20202 4.54545 0
0.20202 4.64646 0
0.20202 4.74747 0
0.20202 4.84848 0
0.20202 4.94949 0
0.20202 5.05051 0
0.20202 5.15152 0
0.20202 5.25253 0
0.20202 5.35354 0
0.20202 5.45455 0
0.20202 5.55556 0
0.20202 5.65657 0
0.20202 5.75758 0
0.20202 5.85859 0
0.20202 5.9596 0
0.20202 6.06061 0
0.20202 6.16162 0
0.20202 6.26263 0
0.20202 6.36364 0
0.20202 6.46465 0
0.20202 6.56566 0
0.20202 6.66667 0
0.20202 6.76768 0
0.20202 6.86869 0
0.20202 6.9697 0
0.20202 7.07071 0
0.20202 7.17172 0
0.20202 7.27273 0
0.20202 7.37374 0
0.20202 7.47475 0
0.20202 7.57576 0
0.20202 7.67677 0
0.20202 7.77778 0
0.20202 7.87879 0
0.20202 7.9798 0
0.20202 8.08081 0
0.20202 8.18182 0
0.20202 8.28283 0
0.20202 8.38384 0
0.20202 8.48485 0
0.20202 8.58586 0
0.20202 8.68687 0
0.20202 8.78788 0
0.20202 8.88889 0
0.20202 8.9899 0
0.20202 9.09091 0
0.20202 9.19192 0
0.20202 9.29293 0
0.20202 9.39394 0
0.20202 9.49495 0
0.20202 9.59596 0
0.20202 9.69697 0
0.20202 9.79798 0
0.20202 9.89899 0
0.30303 0.10101 0
0.30303 0.20202 0
0.30303 0.30303 0
0.30303 0.40404 0
0.30303 0.505051 0
0.30303 0.606061 0
0.30303 0.707071 0
0.30303 0.808081 0
0.30303 0.909091 0
0.30303 1.0101 0
0.30303 1.11111 0
0.30303 1.21212 0
0.30303 1.31313 0
0.30303 1.41414 0
0.30303 1.51515 0
0.30303 1.61616 0
0.30303 1.71717 0
0.30303 1.81818 0
0.30303 1.91919 0
0.30303 2.0202 0
0.30303 2.12121 0
0.30303 2.22222 0
0.30303 2.32323 0
0.30303 2.42424 0
0.30303 2.52525 0
0.30303 2.62626 0
0.30303 2.72727 0
0.30303 2.82828 0
0.30303 2.92929 0
0.30303 3.0303 0
0.30303 3.13131 0
0.30303 3.23232 0
0.30303 3.33333 0
0.30303 3.43434 0
0.30303 3.53535 0
0.30303 3.63636 0
0.30303 3.73737 0
0.30303 3.83838 0
0.30303 3.93939 0
0.30303 4.0404 0
0.30303 4.14141 0
0.30303 4.24242 0
0.30303 4.34343 0
0.30303 4.44444 0
0.30303 4.54545 0
0.30303 4.64646 0
0.30303 4.74747 0
0.30303 4.84848 0
0.30303 4.94949 0
0.30303 5.05051 0
0.30303 5.15152 0
0.30303 5.25253 0
0.30303 5.35354 0
0.30303 5.45455 0
0.30303 5.55556 0
0.30303 5.65657 0
0.30303 5.75758 0
0.30303 5.85859 0
0.30303 5.9596 0
0.30303 6.06061 0
0.30303 6.16162 0
0.30303 6.26263 0
0.30303 6.36364 0
0.30303 6.46465 0
0.30303 6.56566 0
0.30303 6.66667 0
0.30303 6.76768 0
0.30303 6.86869 0
0.30303 6.9697 0
0.30303 7.07071 0
0.30303 7.17172 0
0.30303 7.27273 0
0.30303 7.37374 0
0.30303 7.47475 0
0.30303 7.57576 0
0.30303 7.67677 0
0.30303 7.77778 0
0.30303 7.87879 0
0.30303 7.9798 0
0.30303 8.08081 0
[...]
CELL_DATA 9801
SCALARS Temperatura double 1
LOOKUP_TABLE default
2.10488e-10
1.17704e-10
-3.52034e-10
-1.53181e-09
-3.57702e-09
-5.90407e-09
-6.27648e-09
1.06035e-10
2.05237e-08
6.18927e-08
1.23037e-07
1.80996e-07
1.73878e-07
-1.0449e-08
-5.21883e-07
-1.4874e-06
-2.88098e-06
-4.3244e-06
-4.86465e-06
-2.83716e-06
4.01328e-06
1.7959e-05
4.0126e-05
6.87736e-05
9.73242e-05
0.000112762
9.52641e-05
1.99315e-05
-0.000138791
-0.000400088
-0.000768069
-0.00122315
-0.00171586
-0.00216531
-0.00246388
-0.00248856
-0.00211754
-0.00124975
0.000176363
0.00216803
0.00467044
0.00756745
0.0106909
0.0138372
0.0167882
0.0193342
0.0212957
0.0225419
0.023004
0.022685
0.0216734
0.020468
0.0190372
0.0174374
0.015716
0.0139232
0.012108
0.010317
0.00859267
0.00697192
0.00548537
0.00415647
0.00300109
0.00202736
0.00123585
0.000620073
0.000167233
-0.00014066
-0.00032547
-0.000411387
-0.00042328
-0.000385048
-0.000318131
-0.000240314
-0.000164958
-0.000100751
-5.19717e-05
-1.92276e-05
-5.03742e-07
7.66456e-06
9.10505e-06
7.1801e-06
4.3148e-06
1.88531e-06
3.86087e-07
-2.55895e-07
-3.55935e-07
-2.32219e-07
-8.93072e-08
-6.33055e-09
1.83152e-08
1.40056e-08
4.69371e-09
-2.25177e-10
-1.02518e-09
-4.4092e-10
-2.06947e-11
5.18733e-11
1.55657e-11
-2.85501e-10
-1.43929e-09
-3.01706e-09
-4.41153e-09
-3.31222e-09
4.69869e-09
2.5438e-08
6.23663e-08
1.08043e-07
1.30795e-07
6.12951e-08
-2.08547e-07
-7.93457e-07
-1.72551e-06
-2.79563e-06
-3.35043e-06
-2.13221e-06
2.67369e-06
1.29682e-05
2.9656e-05
5.09272e-05
7.01957e-05
7.44129e-05
4.38563e-05
-4.53734e-05
-0.000215245
-0.000476064
-0.000814426
-0.0011816
-0.00148605
-0.00159377
-0.00133897
-0.000545127
0.00094625
0.00324466
0.00638406
0.0103071
0.0148641
0.0198287
0.0249251
0.0298644
0.0343801
0.0382579
0.0413543
0.0436011
0.0449985
0.045598
0.0454811
0.0447379
0.0434507
0.0417027
0.0395683
0.0370968
0.0343579
0.0314223
0.028362
0.0252471
0.0221445
0.0191157
0.0162157
0.0134917
0.0109823
0.00871702
0.0067161
0.00499034
0.00354139
0.00236216
0.0014375
0.00074528
0.000257612
-5.74573e-05
-0.000234082
-0.000306562
-0.000307282
-0.000264852
-0.000202656
-0.000137998
-8.1953e-05
-3.99272e-05
-1.28018e-05
1.57837e-06
6.85934e-06
6.86105e-06
4.6854e-06
2.32039e-06
6.75112e-07
-1.15233e-07
-3.03847e-07
-2.17905e-07
-8.71969e-08
-7.79229e-09
1.57507e-08
1.16917e-08
3.45041e-09
-4.51168e-10
-8.14335e-10
-2.60544e-10
1.9919e-11
3.7897e-11
-2.1418e-09
-3.8271e-09
-3.49748e-09
2.39626e-09
1.9379e-08
5.15173e-08
9.36054e-08
1.18086e-07
6.08232e-08
-1.81894e-07
-7.22897e-07
-1.59324e-06
-2.57564e-06
-2.98786e-06
-1.51646e-06
3.70561e-06
1.45185e-05
3.14292e-05
5.15715e-05
6.63519e-05
5.97683e-05
8.89514e-06
-0.000111842
-0.000321539
-0.000619145
-0.000967565
-0.00127986
-0.00141304
-0.00117438
-0.000342778
0.00129649
0.00390992
0.00757627
0.0122598
0.0178042
0.0239496
0.0303701
0.036722
0.0426919
0.0480341
0.0525897
0.056286
0.0591207
0.0611358
0.0623928
0.0629525
0.062865
0.0621697
0.0609006
0.0590948
0.0567879
0.0539947
0.0508017
0.0472867
0.043533
0.0396243
0.0356422
0.0316641
0.0277612
0.0239969
0.0204262
0.0170944
0.0140374
0.0112815
0.0088432
0.00673008
0.00494074
0.00346549
0.00228693
0.00138081
0.000717019
0.000261033
-2.44197e-05
-0.000177372
-0.00023449
-0.00022901
-0.000188978
-0.00013605
-8.50381e-05
-4.4262e-05
-1.66311e-05
-1.2115e-06
5.04823e-06
5.77653e-06
4.08421e-06
2.02713e-06
5.71956e-07
-1.12659e-07
-2.58684e-07
-1.72053e-07
-5.96635e-08
9.66816e-10
1.41949e-08
8.03334e-09
1.4567e-09
-7.3659e-10
-5.27825e-10
-8.0672e-11
4.94268e-11
-3.82629e-09
-3.94131e-10
1.11376e-08
3.58046e-08
7.23606e-08
1.02238e-07
7.51766e-08
-9.83134e-08
-5.27285e-07
-1.2655e-06
-2.16e-06
-2.63763e-06
-1.51811e-06
2.95458e-06
1.25853e-05
2.79415e-05
4.62532e-05
5.89128e-05
4.96501e-05
-4.90639e-06
-0.000130345
-0.000343933
-0.00063875
-0.00096529
-0.00121588
-0.00121874
-0.000747709
0.000449743
0.00260919
0.00589945
0.0103792
0.0159726
0.0224728
0.0295732
0.0369194
0.0441671
0.0510312
0.0573147
0.0629117
0.0677902
0.0719611
0.0754475
0.0782618
0.0803956
0.0818223
0.0825087
0.0824275
0.0815693
0.0799487
0.0776062
0.0746009
0.071021
0.0669583
0.0625094
0.0577751
0.0528558
0.0478493
0.042847
0.0379327
0.0331801
0.0286521
0.0244005
0.0204658
0.0168775
0.013655
0.0108082
0.00833836
0.00623858
0.00449479
0.00308609
0.00198543
0.00116034
0.000574011
0.000186612
-4.28909e-05
-0.000154683
-0.000185923
-0.000168734
-0.00012868
-8.39912e-05
-4.56952e-05
-1.86058e-05
-2.95008e-06
3.73844e-06
4.86782e-06
3.50316e-06
1.7045e-06
4.39895e-07
-1.26009e-07
-2.20641e-07
-1.30584e-07
-3.60093e-08
6.98982e-09
1.17457e-08
4.82136e-09
1.71526e-10
-6.91972e-10
-2.59213e-10
3.0221e-11
1.75277e-09
2.05262e-08
4.91366e-08
8.1364e-08
8.41754e-08
-1.09989e-08
-3.02629e-07
-8.70058e-07
-1.65442e-06
-2.26632e-06
-1.77944e-06
1.3296e-06
8.82923e-06
2.16693e-05
3.80557e-05
5.09365e-05
4.5861e-05
9.29624e-07
-0.00010902
-0.000302254
-0.000573875
-0.000875997
-0.00109997
-0.00106826
-0.000543178
0.000743984
0.00304631
0.00654702
0.0113126
0.0172678
0.0242028
0.031811
0.0397475
0.0476914
0.0553923
0.0626915
0.0695143
0.0758407
0.0816687
0.0869837
0.0917408
0.0958648
0.0992625
0.10184
0.103518
0.104246
0.104003
0.102801
0.100679
0.0976984
0.0939351
0.0894839
0.0844585
0.0789761
0.0731584
0.0671271
0.0609992
0.0548843
0.0488811
0.0430756
0.03754
0.0323323
0.0274963
0.0230628
0.0190507
0.0154682
0.0123148
0.00958251
0.00725673
0.00531736
0.00373928
0.00249266
0.00154341
0.000853634
0.000382567
8.79332e-05
-7.22276e-05
-0.000137421
-0.000142536
-0.000116039
-7.88766e-05
-4.43321e-05
-1.88754e-05
-3.79007e-06
2.813e-06
4.07043e-06
2.92456e-06
1.36305e-06
2.98046e-07
-1.40363e-07
-1.82793e-07
-9.23005e-08
-1.6972e-08
9.8559e-09
8.56914e-09
2.26363e-09
-4.41242e-10
-4.60426e-10
-4.7803e-11
2.32487e-08
5.7026e-08
7.77681e-08
4.64274e-08
-1.15867e-07
-4.98934e-07
-1.12609e-06
-1.80178e-06
-1.90804e-06
-2.58064e-07
4.77161e-06
1.45263e-05
2.8526e-05
4.21433e-05
4.41818e-05
1.58447e-05
-6.67513e-05
-0.000224374
-0.00045985
-0.000738221
-0.000966804
-0.000982857
-0.000557106
0.000581568
0.00270139
0.00601201
0.0106133
0.0164654
0.0233917
0.0311157
0.0393208
0.0477143
0.0560749
0.0642711
0.0722486
0.0799954
0.0875017
0.0947278
0.10159
0.107965
0.113705
0.118662
0.122699
0.12571
0.127616
0.128372
0.127965
0.12641
0.123754
0.120069
0.115443
0.109993
0.103857
0.0971781
0.0901049
0.0827855
0.0753625
0.0679681
0.0607213
0.0537245
0.0470623
0.0408011
0.0349892
0.0296581
0.0248243
0.0204916
0.0166534
0.0132954
0.010397
0.00793348
0.00587699
0.00419694
0.00286033
0.00183156
0.0010725
0.000542635
0.000199968
2.37728e-06
-9.04236e-05
-0.000114695
-0.000100655
-7.10765e-05
-4.08736e-05
-1.7764e-05
-3.86096e-06
2.23736e-06
3.39337e-06
2.37363e-06
1.02844e-06
1.64155e-07
-1.47823e-07
-1.44197e-07
-5.87028e-08
-3.44302e-09
9.85124e-09
5.2727e-09
5.74846e-10
-5.31688e-10
-1.97194e-10
5.50554e-08
6.57071e-08
1.02514e-09
-2.14098e-07
-6.48934e-07
-1.26034e-06
-1.7234e-06
-1.24371e-06
1.49617e-06
7.99391e-06
1.88864e-05
3.20619e-05
4.02332e-05
2.90301e-05
-2.24985e-05
-0.000136655
-0.000325373
-0.000572228
-0.00081157
-0.000911607
-0.000670094
0.00017004
0.00188321
0.00470806
0.00879276
0.0141566
0.0206826
0.0281461
0.0362702
0.0447915
0.0535108
0.0623163
0.0711717
0.0800808
0.0890433
0.0980195
0.106914
0.11558
0.123836
0.131485
0.138338
0.144225
0.148998
0.152539
0.15476
0.155607
0.15506
0.153134
0.149882
0.145393
0.139774
0.133164
0.125732
0.117652
0.109105
0.100272
0.0913266
0.0824294
0.0737247
0.0653363
0.0573658
0.0498915
0.0429688
0.0366318
0.0308952
0.0257575
0.0212038
0.0172097
0.0137438
0.0107711
0.00825469
0.00615718
0.00444161
0.00307118
0.00200884
0.00121662
0.000655208
0.000284055
6.22627e-05
-4.98278e-05
-8.85295e-05
-8.46621e-05
-6.19011e-05
-3.60845e-05
-1.56932e-05
-3.37532e-06
1.92296e-06
2.8173e-06
1.86312e-06
7.20732e-07
5.21943e-08
-1.43515e-07
-1.05591e-07
-3.14205e-08
4.37352e-09
7.79848e-09
2.49186e-09
-2.34137e-10
-3.84374e-10
5.89924e-08
-4.07402e-08
-2.88457e-07
-7.37062e-07
-1.28204e-06
-1.49823e-06
-4.84998e-07
3.08708e-06
1.04469e-05
2.14403e-05
3.24689e-05
3.4194e-05
1.03691e-05
-6.00801e-05
-0.000195478
-0.000397167
-0.000630018
-0.000802588
-0.000754875
-0.000262266
0.000938981
0.00310648
0.00643721
0.0110207
0.0168172
0.0236714
0.0313579
0.0396445
0.0483492
0.0573724
0.0666935
0.076339
0.0863363
0.0966729
0.107273
0.117997
0.128654
0.139023
0.148876
0.157986
0.16614
0.173144
0.178825
0.183039
0.185677
0.186669
0.185987
0.183651
0.179723
0.17431
0.16754
0.159584
0.150644
0.140931
0.130664
0.120062
0.109334
0.0986745
0.0882586
0.0782358
0.0687288
0.0598317
0.0516108
0.0441052
0.0373304
0.0312805
0.0259328
0.0212516
0.0171922
0.0137052
0.0107394
0.0082447
0.00617352
0.00448171
0.00312831
0.00207468
0.00128329
0.000716584
0.000336354
0.000103967
-1.84703e-05
-6.61972e-05
-6.96085e-05
-5.24014e-05
-3.06441e-05
-1.30757e-05
-2.56033e-06
1.76652e-06
2.31378e-06
1.40016e-06
4.54893e-07
-2.89788e-08
-1.26463e-07
-6.92924e-08
-1.17292e-08
7.14414e-09
4.86009e-09
6.60549e-10
-5.0126e-10
-3.2322e-08
-3.33574e-07
-7.66109e-07
-1.22424e-06
-1.21927e-06
1.88906e-07
4.26084e-06
1.19119e-05
2.22884e-05
3.06748e-05
2.64624e-05
-7.2598e-06
-9.02947e-05
-0.000236073
-0.000436015
-0.000639916
-0.000738286
-0.000555013
0.000141837
0.00160803
0.00407495
0.00769865
0.0125239
0.0184783
0.0254014
0.0330991
0.0414051
0.0502238
0.0595427
0.06941
0.0798907
0.0910204
0.102772
0.115046
0.127675
0.140446
0.153115
0.165426
0.177119
0.187935
0.197624
0.205951
0.212706
0.217716
0.220845
0.222009
0.221177
0.218371
0.213666
0.20719
0.1991
0.1896
0.178931
0.167346
0.155107
0.142474
0.129697
0.117009
0.10462
0.0927076
0.0814199
0.0708699
0.0611374
0.0522697
0.044285
0.0371757
0.0309127
0.0254501
0.0207301
0.0166876
0.0132549
0.0103646
0.00795359
0.00596403
0.00434463
0.00305023
0.00204065
0.00127899
0.000729788
0.000357731
0.000127168
2.80067e-06
-4.86744e-05
-5.63868e-05
-4.33006e-05
-2.50853e-05
-1.02675e-05
-1.62318e-06
1.67249e-06
1.85747e-06
9.91012e-07
2.41494e-07
-7.60051e-08
-9.93598e-08
-3.83874e-08
2.1052e-11
6.34254e-09
2.17386e-09
-3.65489e-10
-2.70671e-07
-7.53694e-07
-1.12359e-06
-9.60196e-07
6.69988e-07
4.91945e-06
1.24243e-05
2.18301e-05
2.77649e-05
1.91048e-05
-2.0811e-05
-0.00010985
-0.000256871
-0.00044565
-0.000616034
-0.000648808
-0.000362525
0.000470969
0.00209133
0.00470219
0.00842627
0.0132803
0.019182
0.0259882
0.0335527
0.041779
0.0506504
0.060225
0.0706014
0.0818709
0.0940754
0.107183
0.121085
0.135608
0.150532
0.165603
0.180546
0.195066
0.208862
0.221626
0.23306
0.242882
0.250843
0.256735
0.260401
0.261743
0.260724
0.257373
0.25178
0.244098
0.234516
0.223275
0.210662
0.196972
0.182516
0.1676
0.152521
0.137552
0.122939
0.108895
0.0955924
0.0831668
0.0717126
0.0612873
0.0519134
0.043583
0.0362625
0.0298975
0.0244185
0.019746
0.0157953
0.0124815
0.00972289
0.00744428
0.00557871
0.00406848
0.00286473
0.00192604
0.00121635
0.000702533
0.000352476
0.000133933
1.47142e-05
-3.5953e-05
-4.53161e-05
-3.50095e-05
-1.97825e-05
-7.5459e-06
-7.30155e-07
1.568e-06
1.43377e-06
6.43083e-07
8.63356e-08
-9.11108e-08
-6.76094e-08
-1.55775e-08
4.78734e-09
3.87796e-09
2.21242e-10
-6.16564e-07
-1.01726e-06
-7.61695e-07
9.22314e-07
5.08283e-06
1.21552e-05
2.05232e-05
2.46082e-05
1.33947e-05
-2.89459e-05
-0.000118261
-0.000259926
-0.000433057
-0.000572898
-0.000557983
-0.00020994
0.000688452
0.00235751
0.00497602
0.00864301
0.013362
0.0190564
0.025613
0.0329372
0.0409975
0.0498433
0.0595882
0.0703693
0.0823006
0.0954352
0.109749
0.125142
0.141452
0.158465
0.175928
0.193557
0.211032
0.228013
0.244142
0.259056
0.272403
0.283855
0.29312
0.299958
0.304187
0.305697
0.304446
0.300471
0.293879
0.28485
0.27361
0.260442
0.245677
0.229664
0.212763
0.195332
0.177715
0.160232
0.14317
0.126774
0.111248
0.0967472
0.0833837
0.0712247
0.0602978
0.0505951
0.0420791
0.0346879
0.0283415
0.0229473
0.0184056
0.0146147
0.0114748
0.00889237
0.00678245
0.0050709
0.00369503
0.00260326
0.00175355
0.001111
0.000645024
0.000326838
0.000127778
1.90168e-05
-2.73555e-05
-3.63013e-05
-2.76972e-05
-1.4972e-05
-5.10734e-06
2.60133e-09
1.41027e-06
1.04156e-06
3.64339e-07
-1.0512e-08
-8.15236e-08
-3.76562e-08
-2.02603e-09
4.746e-09
1.34392e-09
-8.80083e-07
-6.43273e-07
9.64735e-07
4.83854e-06
1.13155e-05
1.87428e-05
2.17167e-05
9.79417e-06
-3.17066e-05
-0.000116868
-0.000248958
-0.00040542
-0.000521639
-0.000479896
-0.000110853
0.000787723
0.00241655
0.00493412
0.00842463
0.0128891
0.018266
0.0244758
0.0314722
0.0392791
0.0479985
0.0577872
0.0688142
0.0812162
0.0950655
0.110358
0.127018
0.144906
0.163831
0.183554
0.203789
0.224207
0.24444
0.264089
0.282735
0.29996
0.315356
0.328545
0.339194
0.347027
0.351838
0.353501
0.351974
0.347299
0.339605
0.329098
0.316045
0.300775
0.28367
0.265131
0.245576
0.225416
0.20505
0.184846
0.165132
0.146192
0.128259
0.111512
0.09608
0.0820395
0.0694227
0.0582213
0.0483931
0.0398683
0.0325565
0.0263526
0.0211431
0.0168106
0.0132395
0.0103187
0.00794596
0.00602973
0.00449109
0.00326432
0.0022965
0.0015458
0.000978936
0.000568041
0.000287688
0.00011279
1.79141e-05
-2.18655e-05
-2.90154e-05
-2.13792e-05
-1.07871e-05
-3.07545e-06
5.10356e-07
1.18767e-06
6.91367e-07
1.60538e-07
-5.55255e-08
-5.78647e-08
-1.49074e-08
3.2875e-09
2.80234e-09
-7.36772e-07
8.45964e-07
4.30197e-06
1.01009e-05
1.67376e-05
1.92711e-05
8.15029e-06
-3.00147e-05
-0.000107914
-0.000228007
-0.000368604
-0.00046898
-0.00041956
-6.39429e-05
0.00078315
0.00230397
0.00464123
0.00787109
0.0119987
0.0169814
0.0227718
0.0293648
0.0368279
0.0453032
0.0549814
0.0660587
0.0786964
0.0929928
0.108975
0.126601
0.145768
0.16632
0.188043
0.210668
0.23387
0.257267
0.280434
0.302913
0.324226
0.343892
0.36145
0.376468
0.388568
0.397439
0.402848
0.404653
0.402808
0.397366
0.388475
0.376373
0.36137
0.343842
0.324227
0.302983
0.280588
0.257512
0.23421
0.211101
0.18856
0.16691
0.146415
0.127279
0.109646
0.0936046
0.0791894
0.0663909
0.0551609
0.0454205
0.0370675
0.0299839
0.0240417
0.0191092
0.0150554
0.0117541
0.00908726
0.00694738
0.00523964
0.00388313
0.00281131
0.00197145
0.00132294
0.000834628
0.000481517
0.0002415
9.29213e-05
1.36152e-05
-1.84083e-05
-2.3058e-05
-1.59982e-05
-7.29196e-06
-1.51185e-06
7.76257e-07
9.15492e-07
3.99849e-07
3.16264e-08
-6.14126e-08
-3.14562e-08
-1.88295e-09
3.97868e-09
1.54758e-07
3.60966e-06
8.67208e-06
1.4646e-05
1.72249e-05
7.95281e-06
-2.52071e-05
-9.3883e-05
-0.000200732
-0.000326805
-0.000417917
-0.000375568
-5.86344e-05
0.000700462
0.00206703
0.00417162
0.00708686
0.0108255
0.0153635
0.0206811
0.0268054
0.0338359
0.041944
0.0513453
0.0622602
0.0748752
0.0893199
0.105658
0.123893
0.143966
0.165766
0.189119
0.213787
0.239465
0.26578
0.292298
0.318535
0.343972
0.368068
0.390283
0.410094
0.427016
0.440624
0.450566
0.456584
0.458518
0.45632
0.450052
0.439884
0.426087
0.409016
0.389101
0.366833
0.342736
0.317346
0.2912
0.264808
0.238645
0.213134
0.188638
0.165455
0.143815
0.123878
0.105742
0.0894468
0.074979
0.0622836
0.0512709
0.0418257
0.033815
0.0270959
0.0215211
0.0169446
0.0132259
0.0102326
0.00784335
0.00594934
0.00445573
0.00328239
0.00236409
0.00164986
0.0011013
0.000689898
0.000393667
0.000193698
7.15308e-05
8.02107e-06
-1.6047e-05
-1.80693e-05
-1.14814e-05
-4.50597e-06
-4.25589e-07
8.24517e-07
6.27578e-07
1.82262e-07
-3.09992e-08
-4.48805e-08
-1.10775e-08
3.86407e-09
1.96681e-06
7.21191e-06
1.25359e-05
1.54238e-05
8.56535e-06
-1.86898e-05
-7.71139e-05
-0.000170186
-0.000282848
-0.00036906
-0.000343113
-8.03764e-05
0.000568933
0.00175454
0.00359733
0.00616892
0.00949054
0.0135548
0.0183634
0.0239663
0.0304845
0.038108
0.0470705
0.0576118
0.0699436
0.0842282
0.100571
0.119021
0.139576
0.162175
0.186696
0.212949
0.240664
0.269496
0.299024
0.328759
0.358161
0.386646
0.413611
0.43845
0.460579
0.479457
0.494608
0.505642
0.512271
0.51432
0.511737
0.504593
0.493084
0.477514
0.458286
0.435885
0.41086
0.383798
0.355304
0.325974
0.296381
0.267057
0.238474
0.211037
0.185079
0.160853
0.13854
0.118247
0.100016
0.083832
0.0696311
0.0573124
0.046746
0.037783
0.0302635
0.0240236
0.0189016
0.0147418
0.0113984
0.00873739
0.00663781
0.00499303
0.00371114
0.00271525
0.00194338
0.0013477
0.000892876
0.000553487
0.000310609
0.000148354
5.11504e-05
2.56003e-06
-1.40902e-05
-1.37921e-05
-7.77126e-06
-2.41593e-06
2.19541e-07
7.10551e-07
3.64704e-07
4.49231e-08
-4.4618e-08
-2.24859e-08
1.34626e-09
4.53177e-06
1.05497e-05
1.36965e-05
9.39423e-06
-1.17147e-05
-5.96037e-05
-0.000138816
-0.00023867
-0.000321973
-0.000316525
-0.000114619
0.000415959
0.00141035
0.00298119
0.00520014
0.0080964
0.011676
0.0159561
0.0210007
0.0269423
0.0339808
0.0423601
0.0523351
0.0641397
0.0779677
0.0939655
0.112232
0.13282
0.155727
0.180894
0.208186
0.237388
0.268201
0.300236
0.333027
0.36603
0.398645
0.430224
0.460097
0.487595
0.512069
0.532921
0.549625
0.56175
0.568979
0.571122
0.568124
0.560068
0.547173
0.529779
0.508339
0.483394
0.455553
0.425467
0.393806
0.361234
0.328385
0.295846
0.264141
0.233717
0.20494
0.178093
0.153371
0.130892
0.110702
0.0927813
0.0770596
0.0634229
0.0517265
0.0418045
0.0334792
0.0265691
0.0208952
0.0162865
0.0125828
0.00963746
0.00731862
0.00550947
0.00410845
0.00302904
0.00219961
0.00156294
0.00107542
0.000705506
0.000431105
0.000236357
0.00010815
3.34398e-05
-1.855e-06
-1.21231e-05
-1.00883e-05
-4.82967e-06
-9.78005e-07
4.97956e-07
5.07671e-07
1.61714e-07
-1.95761e-08
-3.16243e-08
-4.23354e-09
7.27733e-06
1.20675e-05
9.97724e-06
-5.25677e-06
-4.29242e-05
-0.000108544
-0.000195745
-0.000276133
-0.000290971
-0.000149302
0.0002639
0.0010698
0.00237341
0.00424646
0.0067248
0.00982457
0.0135727
0.0180399
0.0233616
0.0297391
0.0374195
0.0466667
0.0577322
0.0708377
0.0861675
0.103868
0.124046
0.146761
0.172019
0.199753
0.229813
0.261963
0.295868
0.331102
0.367149
0.403413
0.439231
0.473893
0.506662
0.536801
0.563601
0.586404
0.604636
0.617827
0.62563
0.627841
0.624403
0.615412
0.601109
0.581874
0.558208
0.530709
0.500044
0.466931
0.432105
0.396294
0.360195
0.32445
0.289633
0.256234
0.224653
0.195196
0.168078
0.143427
0.121291
0.101647
0.0844167
0.0694739
0.056659
0.045789
0.0366684
0.0290975
0.0228798
0.0178277
0.0137664
0.0105361
0.00799396
0.00601369
0.00448548
0.0033152
0.00242363
0.00174581
0.00123037
0.000838696
0.000543368
0.000325805
0.00017307
7.45248e-05
1.92679e-05
-4.78451e-06
-9.98388e-06
-6.92171e-06
-2.62599e-06
-1.15022e-07
5.1241e-07
2.90589e-07
3.6288e-08
-3.19113e-08
-1.24034e-08
9.31675e-06
1.0205e-05
1.87333e-08
-2.81975e-05
-8.0833e-05
-0.000155325
-0.000231466
-0.000263309
-0.000176029
0.000128728
0.000758481
0.00181064
0.00335641
0.00543673
0.00807485
0.0113029
0.015192
0.0198737
0.0255432
0.0324438
0.0408418
0.0510003
0.0631627
0.0775456
0.094337
0.113695
0.135738
0.160538
0.1881
0.21835
0.251124
0.28616
0.323093
0.361458
0.40069
0.44014
0.479086
0.516753
0.55234
0.585045
0.614098
0.638786
0.658487
0.67269
0.681026
0.683275
0.679379
0.669446
0.653744
0.632687
0.606826
0.576815
0.543379
0.507299
0.469375
0.430398
0.391124
0.352252
0.314401
0.278102
0.24379
0.211794
0.182346
0.155583
0.131555
0.110238
0.0915426
0.0753326
0.0614332
0.0496452
0.0397553
0.0315464
0.0248045
0.0193256
0.0149198
0.0114142
0.00865436
0.00650464
0.00484743
0.00358213
0.00262371
0.00190146
0.00135797
0.000948343
0.00063929
0.000407728
0.000238518
0.000121423
4.79216e-05
8.86269e-06
-6.1714e-06
-7.70609e-06
-4.31961e-06
-1.11574e-06
2.84764e-07
3.78718e-07
1.1781e-07
-1.66995e-08
-2.10642e-08
9.67464e-06
3.91593e-06
-1.61247e-05
-5.67146e-05
-0.000118519
-0.000188472
-0.000232284
-0.000190253
1.99687e-05
0.000492439
0.0013166
0.00256222
0.00427374
0.00647913
0.0092122
0.0125402
0.0165849
0.0215295
0.0276068
0.0350788
0.044213
0.0552671
0.0684821
0.0840801
0.102263
0.123203
0.147034
0.173833
0.203604
0.236267
0.27164
0.309439
0.34927
0.390627
0.432901
0.47539
0.517313
0.557837
0.596098
0.631232
0.662412
0.688871
0.709943
0.725083
0.733895
0.736148
0.731784
0.720924
0.70386
0.68104
0.653065
0.620642
0.58455
0.545632
0.504748
0.46275
0.420451
0.3786
0.337863
0.298809
0.261903
0.227498
0.19584
0.167075
0.141255
0.118353
0.0982712
0.0808623