# vtk DataFile Version 3.0
Malha 2D com triângulos e temperatura
ASCII
DATASET UNSTRUCTURED_GRID

POINTS 10000 double
0 0 0
10 0 0
10 10 0
0 10 0
0.10101 0 0
0.20202 0 0
0.30303 0 0
0.40404 0 0
0.505051 0 0
0.606061 0 0
0.707071 0 0
0.808081 0 0
0.909091 0 0
1.0101 0 0
1.11111 0 0
1.21212 0 0
1.31313 0 0
1.41414 0 0
1.51515 0 0
1.61616 0 0
1.71717 0 0
1.81818 0 0
1.91919 0 0
2.0202 0 0
2.12121 0 0
2.22222 0 0
2.32323 0 0
2.42424 0 0
2.52525 0 0
2.62626 0 0
2.72727 0 0
2.82828 0 0
2.92929 0 0
3.0303 0 0
3.13131 0 0
3.23232 0 0
3.33333 0 0
3.43434 0 0
3.53535 0 0
3.63636 0 0
3.73737 0 0
3.83838 0 0
3.93939 0 0
4.0404 0 0
4.14141 0 0
4.24242 0 0
4.34343 0 0
4.44444 0 0
4.54545 0 0
4.64646 0 0
4.74747 0 0
4.84848 0 0
4.94949 0 0
5.05051 0 0
5.15152 0 0
5.25253 0 0
5.35354 0 0
5.45455 0 0
5.55556 0 0
5.65657 0 0
5.75758 0 0
5.85859 0 0
5.9596 0 0
6.06061 0 0
6.16162 0 0
6.26263 0 0
6.36364 0 0
6.46465 0 0
6.56566 0 0
6.66667 0 0
6.76768 0 0
6.86869 0 0
6.9697 0 0
7.07071 0 0
7.17172 0 0
7.27273 0 0
7.37374 0 0
7.47475 0 0
7.57576 0 0
7.67677 0 0
7.77778 0 0
7.87879 0 0
7.9798 0 0
8.08081 0 0
8.18182 0 0
8.28283 0 0
8.38384 0 0
8.48485 0 0
8.58586 0 0
8.68687 0 0
8.78788 0 0
8.88889 0 0
8.9899 0 0
9.09091 0 0
9.19192 0 0
9.29293 0 0
9.39394 0 0
9.49495 0 0
9.59596 0 0
9.69697 0 0
9.79798 0 0
9.89899 0 0
10 0.10101 0
10 0.20202 0
10 0.30303 0
10 0.40404 0
10 0.505051 0
10 0.606061 0
10 0.707071 0
10 0.808081 0
10 0.909091 0
10 1.0101 0
10 1.11111 0
10 1.21212 0
10 1.31313 0
10 1.41414 0
10 1.51515 0
10 1.61616 0
10 1.71717 0
10 1.81818 0
10 1.91919 0
10 2.0202 0
10 2.12121 0
10 2.22222 0
10 2.32323 0
10 2.42424 0
10 2.52525 0
10 2.62626 0
10 2.72727 0
10 2.82828 0
10 2.92929 0
10 3.0303 0
10 3.13131 0
10 3.23232 0
10 3.33333 0
10 3.43434 0
10 3.53535 0
10 3.63636 0
10 3.73737 0
10 3.83838 0
10 3.93939 0
10 4.0404 0
10 4.14141 0
10 4.24242 0
10 4.34343 0
10 4.44444 0
10 4.54545 0
10 4.64646 0
10 4.74747 0
10 4.84848 0
10 4.94949 0
10 5.05051 0
10 5.15152 0
10 5.25253 0
10 5.35354 0
10 5.45455 0
10 5.55556 0
10 5.65657 0
10 5.75758 0
10 5.85859 0
10 5.9596 0
10 6.06061 0
10 6.16162 0
10 6.26263 0
10 6.36364 0
10 6.46465 0
10 6.56566 0
10 6.66667 0
10 6.76768 0
10 6.86869 0
10 6.9697 0
10 7.07071 0
10 7.17172 0
10 7.27273 0
10 7.37374 0
10 7.47475 0
10 7.57576 0
10 7.67677 0
10 7.77778 0
10 7.87879 0
10 7.9798 0
10 8.08081 0
10 8.18182 0
10 8.28283 0
10 8.38384 0
10 8.48485 0
10 8.58586 0
10 8.68687 0
10 8.78788 0
10 8.88889 0
10 8.9899 0
10 9.09091 0
10 9.19192 0
10 9.29293 0
10 9.39394 0
10 9.49495 0
10 9.59596 0
10 9.69697 0
10 9.79798 0
10 9.89899 0
9.89899 10 0
9.79798 10 0
9.69697 10 0
9.59596 10 0
9.49495 10 0
9.39394 10 0
9.29293 10 0
9.19192 10 0
9.09091 10 0
8.9899 10 0
8.88889 10 0
8.78788 10 0
8.68687 10 0
8.58586 10 0
8.48485 10 0
8.38384 10 0
8.28283 10 0
8.18182 10 0
8.08081 10 0
7.9798 10 0
7.87879 10 0
7.77778 10 0
7.67677 10 0
7.57576 10 0
7.47475 10 0
7.37374 10 0
7.27273 10 0
7.17172 10 0
7.07071 10 0
6.9697 10 0
6.86869 10 0
6.76768 10 0
6.66667 10 0
6.56566 10 0
6.46465 10 0
6.36364 10 0
6.26263 10 0
6.16162 10 0
6.06061 10 0
5.9596 10 0
5.85859 10 0
5.75758 10 0
5.65657 10 0
5.55556 10 0
5.45455 10 0
5.35354 10 0
5.25253 10 0
5.15152 10 0
5.05051 10 0
4.94949 10 0
4.84848 10 0
4.74747 10 0
4.64646 10 0
4.54545 10 0
4.44444 10 0
4.34343 10 0
4.24242 10 0
4.14141 10 0
4.0404 10 0
3.93939 10 0
3.83838 10 0
3.73737 10 0
3.63636 10 0
3.53535 10 0
3.43434 10 0
3.33333 10 0
3.23232 10 0
3.13131 10 0
3.0303 10 0
2.92929 10 0
2.82828 10 0
2.72727 10 0
2.62626 10 0
2.52525 10 0
2.42424 10 0
2.32323 10 0
2.22222 10 0
2.12121 10 0
2.0202 10 0
1.91919 10 0
1.81818 10 0
1.71717 10 0
1.61616 10 0
1.51515 10 0
1.41414 10 0
1.31313 10 0
1.21212 10 0
1.11111 10 0
1.0101 10 0
0.909091 10 0
0.808081 10 0
0.707071 10 0
0.606061 10 0
0.505051 10 0
0.40404 10 0
0.30303 10 0
0.20202 10 0
0.10101 10 0
0 9.89899 0
0 9.79798 0
0 9.69697 0
0 9.59596 0
0 9.49495 0
0 9.39394 0
0 9.29293 0
0 9.19192 0
0 9.09091 0
0 8.9899 0
0 8.88889 0
0 8.78788 0
0 8.68687 0
0 8.58586 0
0 8.48485 0
0 8.38384 0
0 8.28283 0
0 8.18182 0
0 8.08081 0
0 7.9798 0
0 7.87879 0
0 7.77778 0
0 7.67677 0
0 7.57576 0
0 7.47475 0
0 7.37374 0
0 7.27273 0
0 7.17172 0
0 7.07071 0
0 6.9697 0
0 6.86869 0
0 6.76768 0
0 6.66667 0
0 6.56566 0
0 6.46465 0
0 6.36364 0
0 6.26263 0
0 6.16162 0
0 6.06061 0
0 5.9596 0
0 5.85859 0
0 5.75758 0
0 5.65657 0
0 5.55556 0
0 5.45455 0
0 5.35354 0
0 5.25253 0
0 5.15152 0
0 5.05051 0
0 4.94949 0
0 4.84848 0
0 4.74747 0
0 4.64646 0
0 4.54545 0
0 4.44444 0
0 4.34343 0
0 4.24242 0
0 4.14141 0
0 4.0404 0
0 3.93939 0
0 3.83838 0
0 3.73737 0
0 3.63636 0
0 3.53535 0
0 3.43434 0
0 3.33333 0
0 3.23232 0
0 3.13131 0
0 3.0303 0
0 2.92929 0
0 2.82828 0
0 2.72727 0
0 2.62626 0
0 2.52525 0
0 2.42424 0
0 2.32323 0
0 2.22222 0
0 2.12121 0
0 2.0202 0
0 1.91919 0
0 1.81818 0
0 1.71717 0
0 1.61616 0
0 1.51515 0
0 1.41414 0
0 1.31313 0
0 1.21212 0
0 1.11111 0
0 1.0101 0
0 0.909091 0
0 0.808081 0
0 0.707071 0
0 0.606061 0
0 0.505051 0
0 0.40404 0
0 0.30303 0
0 0.20202 0
0 0.10101 0
0.10101 0.10101 0
0.10101 0.20202 0
0.10101 0.30303 0
0.10101 0.40404 0
0.10101 0.505051 0
0.10101 0.606061 0
0.10101 0.707071 0
0.10101 0.808081 0
0.10101 0.909091 0
0.10101 1.0101 0
0.10101 1.11111 0
0.10101 1.21212 0
0.10101 1.31313 0
0.10101 1.41414 0
0.10101 1.51515 0
0.10101 1.61616 0
0.10101 1.71717 0
0.10101 1.81818 0
0.10101 1.91919 0
0.10101 2.0202 0
0.10101 2.12121 0
0.10101 2.22222 0
0.10101 2.32323 0
0.10101 2.42424 0
0.10101 2.52525 0
0.10101 2.62626 0
0.10101 2.72727 0
0.10101 2.82828 0
0.10101 2.92929 0
0.10101 3.0303 0
0.10101 3.13131 0
0.10101 3.23232 0
0.10101 3.33333 0
0.10101 3.43434 0
0.10101 3.53535 0
0.10101 3.63636 0
0.10101 3.73737 0
0.10101 3.83838 0
0.10101 3.93939 0
0.10101 4.0404 0
0.10101 4.14141 0
0.10101 4.24242 0
0.10101 4.34343 0
0.10101 4.44444 0
0.10101 4.54545 0
0.10101 4.64646 0
0.10101 4.74747 0
0.10101 4.84848 0
0.10101 4.94949 0
0.10101 5.05051 0
0.10101 5.15152 0
0.10101 5.25253 0
0.10101 5.35354 0
0.10101 5.45455 0
0.10101 5.55556 0
0.10101 5.65657 0
0.10101 5.75758 0
0.10101 5.85859 0
0.10101 5.9596 0
0.10101 6.06061 0
0.10101 6.16162 0
0.10101 6.26263 0
0.10101 6.36364 0
0.10101 6.46465 0
0.10101 6.56566 0
0.10101 6.66667 0
0.10101 6.76768 0
0.10101 6.86869 0
0.10101 6.9697 0
0.10101 7.07071 0
0.10101 7.17172 0
0.10101 7.27273 0
0.10101 7.37374 0
0.10101 7.47475 0
0.10101 7.57576 0
0.10101 7.67677 0
0.10101 7.77778 0
0.10101 7.87879 0
0.10101 7.9798 0
0.10101 8.08081 0
0.10101 8.18182 0
0.10101 8.28283 0
0.10101 8.38384 0
0.10101 8.48485 0
0.10101 8.58586 0
0.10101 8.68687 0
0.10101 8.78788 0
0.10101 8.88889 0
0.10101 8.9899 0
0.10101 9.09091 0
0.10101 9.19192 0
0.10101 9.29293 0
0.10101 9.39394 0
0.10101 9.49495 0
0.10101 9.59596 0
0.10101 9.69697 0
0.10101 9.79798 0
0.10101 9.89899 0
0.20202 0.10101 0
0.20202 0.20202 0
0.20202 0.30303 0
0.20202 0.40404 0
0.20202 0.505051 0
0.20202 0.606061 0
0.20202 0.707071 0
0.20202 0.808081 0
0.20202 0.909091 0
0.20202 1.0101 0
0.20202 1.11111 0
0.20202 1.21212 0
0.20202 1.31313 0
0.20202 1.41414 0
0.20202 1.51515 0
0.20202 1.61616 0
0.20202 1.71717 0
0.20202 1.81818 0
0.20202 1.91919 0
0.20202 2.0202 0
0.20202 2.12121 0
0.20202 2.22222 0
0.20202 2.32323 0
0.20202 2.42424 0
0.20202 2.52525 0
0.20202 2.62626 0
0.20202 2.72727 0
0.20202 2.82828 0
0.20202 2.92929 0
0.20202 3.0303 0
0.20202 3.13131 0
0.20202 3.23232 0
0.20202 3.33333 0
0.20202 3.43434 0
0.20202 3.53535 0
0.20202 3.63636 0
0.20202 3.73737 0
0.20202 3.83838 0
0.20202 3.93939 0
0.20202 4.0404 0
0.20202 4.14141 0
0.20202 4.24242 0
0.20202 4.34343 0
0.20202 4.44444 0
0.20202 4.54545 0
0.20202 4.64646 0
0.20202 4.74747 0
0.20202 4.84848 0
0.20202 4.94949 0
0.20202 5.05051 0
0.20202 5.15152 0
0.20202 5.25253 0
0.20202 5.35354 0
0.20202 5.45455 0
0.20202 5.55556 0
0.20202 5.65657 0
0.20202 5.75758 0
0.20202 5.85859 0
0.20202 5.9596 0
0.20202 6.06061 0
0.20202 6.16162 0
0.20202 6.26263 0
0.20202 6.36364 0
0.20202 6.46465 0
0.20202 6.56566 0
0.20202 6.66667 0
0.20202 6.76768 0
0.20202 6.86869 0
0.20202 6.9697 0
0.20202 7.07071 0
0.20202 7.17172 0
0.20202 7.27273 0
0.20202 7.37374 0
0.20202 7.47475 0
0.20202 7.57576 0
0.20202 7.67677 0
0.20202 7.77778 0
0.20202 7.87879 0
0.20202 7.9798 0
0.20202 8.08081 0
0.20202 8.18182 0
0.20202 8.28283 0
0.20202 8.38384 0
0.20202 8.48485 0
0.20202 8.58586 0
0.20202 8.68687 0
0.20202 8.78788 0
0.20202 8.88889 0
0.20202 8.9899 0
0.20202 9.09091 0
0.20202 9.19192 0
0.20202 9.29293 0
0.20202 9.39394 0
0.20202 9.49495 0
0.20202 9.59596 0
0.20202 9.69697 0
0.20202 9.79798 0
0.20202 9.89899 0
0.30303 0.10101 0
0.30303 0.20202 0
0.30303 0.30303 0
0.30303 0.40404 0
0.30303 0.505051 0
0.30303 0.606061 0
0.30303 0.707071 0
0.30303 0.808081 0
0.30303 0.909091 0
0.30303 1.0101 0
0.30303 1.11111 0
0.30303 1.21212 0
0.30303 1.31313 0
0.30303 1.41414 0
0.30303 1.51515 0
0.30303 1.61616 0
0.30303 1.71717 0
0.30303 1.81818 0
0.30303 1.91919 0
0.30303 2.0202 0
0.30303 2.12121 0
0.30303 2.22222 0
0.30303 2.32323 0
0.30303 2.42424 0
0.30303 2.52525 0
0.30303 2.62626 0
0.30303 2.72727 0
0.30303 2.82828 0
0.30303 2.92929 0
0.30303 3.0303 0
0.30303 3.13131 0
0.30303 3.23232 0
0.30303 3.33333 0
0.30303 3.43434 0
0.30303 3.53535 0
0.30303 3.63636 0
0.30303 3.73737 0
0.30303 3.83838 0
0.30303 3.93939 0
0.30303 4.0404 0
0.30303 4.14141 0
0.30303 4.24242 0
0.30303 4.34343 0
0.30303 4.44444 0
0.30303 4.54545 0
0.30303 4.64646 0
0.30303 4.74747 0
0.30303 4.84848 0
0.30303 4.94949 0
0.30303 5.05051 0
0.30303 5.15152 0
0.30303 5.25253 0
0.30303 5.35354 0
0.30303 5.45455 0
0.30303 5.55556 0
0.30303 5.65657 0
0.30303 5.75758 0
0.30303 5.85859 0
0.30303 5.9596 0
0.30303 6.06061 0
0.30303 6.16162 0
0.30303 6.26263 0
0.30303 6.36364 0
0.30303 6.46465 0
0.30303 6.56566 0
0.30303 6.66667 0
0.30303 6.76768 0
0.30303 6.86869 0
0.30303 6.9697 0
0.30303 7.07071 0
0.30303 7.17172 0
0.30303 7.27273 0
0.30303 7.37374 0
0.30303 7.47475 0
0.30303 7.57576 0
0.30303 7.67677 0
0.30303 7.77778 0
0.30303 7.87879 0
0.30303 7.9798 0
0.30303 8.08081 0
[...]
CELL_DATA 9801
SCALARS Temperatura double 1
LOOKUP_TABLE default
9.79372e-11
1.99061e-10
4.00443e-10
7.97188e-10
1.57035e-09
3.06056e-09
5.90091e-09
1.12538e-08
2.12268e-08
3.95935e-08
7.30226e-08
1.33146e-07
2.3998e-07
4.27503e-07
7.52586e-07
1.30907e-06
2.24953e-06
3.81835e-06
6.40098e-06
1.05958e-05
1.73164e-05
2.79351e-05
4.44766e-05
6.98749e-05
0.000108302
0.000165575
0.000249637
0.000371097
0.000543801
0.000785361
0.00111758
0.00156663
0.00216284
0.00294001
0.0039339
0.00518006
0.00671061
0.00855026
0.0107117
0.0131906
0.0159609
0.0189712
0.0221423
0.0253681
0.0285184
0.0314459
0.0339958
0.0360185
0.0373826
0.0379886
0.0377802
0.0373432
0.0366833
0.0358102
0.0347367
0.0334791
0.0320565
0.0304904
0.0288039
0.0270219
0.0251696
0.0232726
0.0213563
0.0194447
0.017561
0.0157262
0.0139593
0.0122767
0.0106923
0.0092172
0.0078595
0.00662457
0.00551501
0.0045308
0.00366951
0.00292654
0.00229538
0.00176801
0.00133516
0.000986721
0.000712134
0.000500727
0.000342087
0.000226373
0.000144585
8.87662e-05
5.2135e-05
2.91299e-05
1.53813e-05
7.61441e-06
3.49983e-06
1.47562e-06
5.61993e-07
1.89456e-07
5.49831e-08
1.31923e-08
2.45424e-09
3.148e-10
2.08887e-11
1.35959e-09
2.69362e-09
5.27822e-09
1.02282e-08
1.95982e-08
3.71253e-08
6.95184e-08
1.28658e-07
2.35297e-07
4.25174e-07
7.58952e-07
1.33809e-06
2.32974e-06
4.00494e-06
6.79628e-06
1.13828e-05
1.88125e-05
3.0674e-05
4.93321e-05
7.82399e-05
0.00012234
0.000188561
0.000286399
0.000428569
0.00063167
0.000916785
0.00130989
0.00184196
0.00254846
0.00346827
0.00464156
0.00610679
0.00789671
0.0100336
0.012524
0.0153542
0.018486
0.0218553
0.0253728
0.0289289
0.0324012
0.0356655
0.0386082
0.0411389
0.0431996
0.0447702
0.0458675
0.0465374
0.0468416
0.0468411
0.04658
0.0460433
0.0452381
0.0441758
0.0428721
0.0413462
0.0396209
0.0377218
0.0356767
0.0335147
0.0312662
0.0289617
0.026631
0.0243032
0.0220057
0.0197637
0.0175998
0.015534
0.0135831
0.0117607
0.0100769
0.00853871
0.00714995
0.00591134
0.00482078
0.00387363
0.00306298
0.00238
0.00181434
0.00135449
0.0009882
0.000702913
0.000486157
0.000325934
0.000211069
0.000131486
7.84206e-05
4.45293e-05
2.39137e-05
1.20497e-05
5.64177e-06
2.42501e-06
9.42285e-07
3.24352e-07
9.61911e-08
2.36031e-08
4.49424e-09
5.90491e-10
4.0168e-11
9.7633e-09
1.88695e-08
3.60469e-08
6.80538e-08
1.26953e-07
2.33973e-07
4.25938e-07
7.65787e-07
1.35947e-06
2.3826e-06
4.12162e-06
7.03611e-06
1.1851e-05
1.96899e-05
3.22629e-05
5.2124e-05
8.30129e-05
0.000130294
0.000201496
0.00030695
0.000460487
0.000680147
0.000988808
0.00141459
0.0019909
0.00275583
0.00375089
0.00501869
0.00659975
0.00852824
0.0108272
0.0135037
0.016544
0.0199109
0.0235427
0.0273551
0.0312465
0.0351058
0.0388225
0.0422969
0.0454495
0.0482267
0.0506028
0.0525767
0.0541653
0.0553942
0.056289
0.0568689
0.0571444
0.0571194
0.0567946
0.0561409
0.0551666
0.0538855
0.052316
0.0504811
0.0484079
0.0461266
0.0436699
0.0410726
0.0383704
0.0355991
0.0327943
0.0299901
0.0272189
0.0245105
0.0218918
0.0193864
0.0170145
0.0147922
0.0127321
0.010843
0.00912979
0.00759418
0.00623448
0.00504607
0.00402169
0.00315184
0.0024251
0.00182862
0.00134852
0.000970304
0.000679386
0.000461477
0.000303022
0.000191565
0.00011604
6.69765e-05
3.65918e-05
1.87729e-05
8.95676e-06
3.92637e-06
1.55726e-06
5.4759e-07
1.66034e-07
4.16885e-08
8.12925e-09
1.09476e-09
7.63951e-11
4.83365e-08
9.12041e-08
1.69996e-07
3.12946e-07
5.6889e-07
1.02102e-06
1.80886e-06
3.16267e-06
5.45621e-06
9.28596e-06
1.55872e-05
2.57999e-05
4.20997e-05
6.77097e-05
0.000107308
0.000167539
0.000257632
0.000390097
0.000581472
0.000853022
0.00123129
0.00174832
0.00244143
0.00335221
0.00452476
0.00600287
0.00782631
0.0100264
0.0126211
0.0156108
0.0189743
0.0226679
0.0266253
0.0307619
0.0349804
0.0391796
0.0432629
0.0471467
0.0507661
0.0540782
0.05706
0.059705
0.0620162
0.0639995
0.0656589
0.0669931
0.0679961
0.0686586
0.0689716
0.0689286
0.0685278
0.0677374
0.0665676
0.0650347
0.0631606
0.0609725
0.0585021
0.0557851
0.0528599
0.0497674
0.0465495
0.0432482
0.0399052
0.0365605
0.033252
0.0300147
0.0268802
0.0238761
0.0210261
0.0183493
0.0158608
0.0135711
0.0114866
0.00960979
0.00793945
0.00647099
0.00519686
0.00410689
0.00318868
0.00242811
0.00180968
0.00131706
0.000933527
0.000642449
0.000427772
0.00027446
0.000168879
9.91002e-05
5.50937e-05
2.87872e-05
1.40007e-05
6.2618e-06
2.53606e-06
9.11438e-07
2.82697e-07
7.26728e-08
1.45218e-08
2.00578e-09
1.43684e-10
1.85535e-07
3.42043e-07
6.2255e-07
1.11847e-06
1.98311e-06
3.46938e-06
5.98755e-06
1.01917e-05
1.71061e-05
2.83052e-05
4.61627e-05
7.41868e-05
0.000117455
0.000183156
0.000281238
0.000425133
0.000632515
0.000925997
0.00133365
0.00188919
0.00263161
0.00360409
0.00485212
0.00642057
0.00834997
0.0106721
0.0134056
0.0165517
0.0200911
0.0239831
0.028167
0.0325652
0.0370898
0.0416495
0.046158
0.0505398
0.0547353
0.058702
0.0624125
0.0658511
0.0690079
0.071874
0.0744381
0.0766843
0.0785927
0.0801415
0.0813094
0.0820777
0.0824324
0.0823651
0.0818737
0.0809248
0.0795304
0.0777097
0.0754887
0.0728992
0.0699784
0.066768
0.0633131
0.0596612
0.0558613
0.0519625
0.0480132
0.0440601
0.0401472
0.0363153
0.0326009
0.0290364
0.025649
0.0224613
0.0194907
0.0167497
0.0142461
0.011983
0.00995975
0.00817169
0.00661089
0.00526648
0.00412513
0.00317143
0.00238841
0.00175793
0.00126122
0.000879346
0.000593725
0.000386637
0.000241687
0.000144216
8.16032e-05
4.34386e-05
2.15428e-05
9.83405e-06
4.0689e-06
1.4953e-06
4.74687e-07
1.2501e-07
2.56141e-08
3.63105e-09
2.67209e-10
5.88728e-07
1.06126e-06
1.88772e-06
3.31268e-06
5.73397e-06
9.78749e-06
1.64715e-05
2.73242e-05
4.46698e-05
7.19507e-05
0.000114159
0.000178377
0.000274423
0.000415582
0.000619369
0.000908244
0.00131016
0.0018588
0.00259326
0.00355712
0.00479663
0.00635801
0.00828393
0.0106094
0.0133574
0.016535
0.0201306
0.0241125
0.0284299
0.0330164
0.0377948
0.0426838
0.047605
0.052488
0.0572749
0.0619212
0.0663942
0.07067
0.0747291
0.0785518
0.0821151
0.0853918
0.0883505
0.090957
0.093177
0.0949782
0.0963321
0.0972158
0.0976127
0.0975132
0.0969149
0.0957831
0.0941322
0.0919848
0.0893711
0.0863284
0.0829001
0.0791347
0.0750845
0.070805
0.0663527
0.0617847
0.0571571
0.052524
0.0479361
0.0434406
0.0390797
0.0348906
0.0309049
0.0271482
0.0236408
0.020397
0.0174259
0.0147315
0.0123131
0.0101659
0.00828155
0.0066483
0.00525177
0.00407531
0.00310045
0.00230738
0.00167537
0.0011833
0.00081013
0.000535467
0.000340074
0.000206374
0.000118879
6.44852e-05
3.26215e-05
1.52049e-05
6.42987e-06
2.41744e-06
7.85885e-07
2.1215e-07
4.46013e-08
6.49371e-09
4.91278e-10
1.60809e-06
2.83662e-06
4.93509e-06
8.4664e-06
1.43192e-05
2.38704e-05
3.92127e-05
6.34632e-05
0.000101169
0.000158821
0.000245474
0.00037346
0.000559153
0.000823711
0.00119369
0.0017014
0.00238477
0.00328665
0.00445334
0.0059322
0.00776855
0.0100018
0.0126615
0.0157634
0.0193063
0.0232708
0.0276194
0.0322988
0.0372441
0.0423846
0.0476495
0.0529732
0.0582992
0.0635813
0.0687831
0.0738752
0.0788312
0.0836244
0.0882242
0.0925951
0.0966965
0.100484
0.10391
0.10693
0.1095
0.11158
0.113137
0.114144
0.114583
0.114441
0.113718
0.112377
0.110435
0.107918
0.104863
0.101312
0.097316
0.0929303
0.0882158
0.0832365
0.0780578
0.0727454
0.067364
0.0619757
0.0566392
0.0514084
0.0463318
0.0414519
0.0368049
0.03242
0.0283203
0.0245219
0.0210351
0.0178645
0.0150094
0.0124645
0.0102205
0.00826487
0.00658179
0.00515329
0.00395937
0.00297856
0.00218831
0.00156545
0.00108666
0.000728989
0.000470402
0.000290349
0.000170295
9.41569e-05
4.86016e-05
2.31388e-05
1.00053e-05
3.85035e-06
1.28254e-06
3.55117e-07
7.66543e-08
1.14707e-08
8.92845e-10
3.88769e-06
6.71588e-06
1.14373e-05
1.9198e-05
3.1755e-05
5.17479e-05
8.30623e-05
0.000131296
0.000204334
0.000313024
0.000471929
0.000700085
0.00102169
0.00146659
0.00207041
0.00287415
0.0039231
0.005265
0.0069473
0.00901386
0.0115011
0.0144344
0.0178246
0.021666
0.0259361
0.0305963
0.0355958
0.0408756
0.0463736
0.0520303
0.0577916
0.0636115
0.0694518
0.0752803
0.0810672
0.0867821
0.0923909
0.0978534
0.103123
0.108148
0.112872
0.117237
0.121186
0.124662
0.127615
0.129999
0.131775
0.132913
0.133391
0.133197
0.132328
0.130748
0.128479
0.125549
0.122001
0.117884
0.113257
0.108183
0.102732
0.0969778
0.0909957
0.0848608
0.0786473
0.0724263
0.0662648
0.0602247
0.0543611
0.0487225
0.04335
0.0382767
0.0335285
0.0291236
0.0250733
0.0213824
0.0180501
0.0150702
0.0124324
0.0101223
0.0081229
0.00641442
0.00497522
0.00378212
0.00281078
0.00203616
0.00143283
0.000975518
0.00063957
0.00040155
0.000239836
0.000135194
7.12257e-05
3.46497e-05
1.53265e-05
6.04022e-06
2.06272e-06
5.86179e-07
1.30004e-07
2.00098e-08
1.60374e-09
8.48912e-06
1.43723e-05
2.39785e-05
3.94145e-05
6.38172e-05
0.000101759
0.000159761
0.000246911
0.000375576
0.000562159
0.00082784
0.0011992
0.00170856
0.00239395
0.00329845
0.00446888
0.00595364
0.00779992
0.0100503
0.0127391
0.015889
0.0195087
0.023591
0.0281138
0.0330411
0.0383274
0.0439214
0.0497708
0.0558263
0.0620441
0.0683865
0.0748207
0.0813169
0.0878445
0.094369
0.10085
0.107239
0.113482
0.119515
0.125273
0.130687
0.135688
0.140206
0.14418
0.147549
0.150261
0.152271
0.153546
0.15406
0.1538
0.152763
0.150914
0.148278
0.14489
0.140795
0.136053
0.130729
0.124897
0.118637
0.112031
0.105167
0.0981302
0.0910048
0.0838719
0.0768079
0.069883
0.0631599
0.0566937
0.0505306
0.0447082
0.0392552
0.034192
0.0295308
0.0252767
0.0214282
0.0179778
0.0149136
0.0122195
0.00987629
0.00786214
0.00615343
0.00472507
0.00355091
0.00260406
0.00185724
0.0012831
0.000854654
0.00054582
0.000332021
0.000190844
0.00010265
5.10444e-05
2.31066e-05
9.33048e-06
3.26857e-06
9.53936e-07
2.17529e-07
3.44645e-08
2.84663e-09
1.70026e-05
2.82332e-05
4.61828e-05
7.4402e-05
0.000118028
0.000184327
0.000283346
0.000428635
0.000638003
0.000934232
0.00134562
0.00190625
0.00265576
0.00363856
0.00490235
0.00649584
0.00846593
0.0108544
0.0136945
0.0170082
0.0208037
0.0250752
0.029803
0.0349563
0.0404964
0.0463806
0.0525662
0.0590137
0.065688
0.0725584
0.079597
0.0867758
0.0940636
0.101423
0.108809
0.116168
0.123437
0.130547
0.137421
0.14398
0.150144
0.155833
0.160969
0.165478
0.169294
0.172356
0.174615
0.176031
0.176575
0.176234
0.175005
0.172856
0.169813
0.165918
0.161224
0.155797
0.149711
0.143052
0.135908
0.128375
0.120551
0.112533
0.104415
0.0962917
0.0882477
0.0803627
0.0727078
0.065345
0.0583264
0.0516942
0.0454805
0.0397078
0.0343894
0.0295303
0.025128
0.0211737
0.0176531
0.0145479
0.0118362
0.0094935
0.00749381
0.00580974
0.00441308
0.0032751
0.00236673
0.00165882
0.00112241
0.000729127
0.000451735
0.00026481
0.000145453
7.3957e-05
3.42763e-05
1.41886e-05
5.10169e-06
1.53015e-06
3.59024e-07
5.86001e-08
4.99234e-09
3.16152e-05
5.15292e-05
8.27077e-05
0.000130704
0.000203327
0.000311308
0.000469023
0.000695248
0.00101383
0.0014542
0.0020515
0.00284636
0.00388394
0.00521238
0.00688055
0.00893524
0.011418
0.0143621
0.01779
0.0217113
0.026123
0.03101
0.0363476
0.0421047
0.0482474
0.0547426
0.0615598
0.0686718
0.0760546
0.0836847
0.0915366
0.0995797
0.107776
0.116076
0.124424
0.132752
0.140982
0.149033
0.156815
0.164237
0.171208
0.177635
0.183431
0.188512
0.192802
0.196235
0.198752
0.200311
0.20088
0.200441
0.198994
0.196511
0.193022
0.188574
0.183227
0.177056
0.170146
0.16259
0.154492
0.145959
0.137098
0.128021
0.118836
0.109645
0.100545
0.0916269
0.0829696
0.0746429
0.0667054
0.0592042
0.0521753
0.0456432
0.0396225
0.034118
0.0291263
0.0246366
0.0206322
0.0170916
0.0139896
0.0112989
0.00899007
0.00703305
0.00539716
0.00405159
0.00296547
0.00210803
0.00144866
0.000957115
0.000603963
0.000361112
0.000202593
0.000105362
5.00154e-05
2.12346e-05
7.84144e-06
2.41862e-06
5.84355e-07
9.83409e-08
8.64933e-09
5.51095e-05
8.82315e-05
0.000139071
0.000215766
0.000329452
0.000494984
0.000731673
0.00106394
0.00152178
0.00214086
0.00296223
0.00403133
0.00539648
0.00710662
0.00920863
0.0117444
0.014748
0.0182433
0.0222428
0.0267473
0.0317472
0.0372246
0.0431565
0.0495178
0.0562842
0.0634338
0.0709474
0.0788073
0.0869948
0.095488
0.104258
0.113268
0.122468
0.131799
0.141191
0.150562
0.159824
0.168881
0.177632
0.185973
0.1938
0.20101
0.207504
0.213188
0.217978
0.221796
0.22458
0.226281
0.226864
0.22631
0.224619
0.221768
0.217793
0.212747
0.206697
0.199727
0.191932
0.183418
0.174299
0.164695
0.154728
0.144522
0.134195
0.123865
0.11364
0.10362
0.0938935
0.0845394
0.075623
0.0671967
0.0593004
0.0519616
0.0451957
0.0390079
0.0333933
0.0283391
0.0238256
0.019828
0.0163173
0.0132623
0.0106297
0.00838616
0.00649786
0.0049315
0.00365421
0.00263357
0.00183758
0.00123457
0.000793409
0.000483873
0.000277319
0.000147558
7.17716e-05
3.1268e-05
1.18655e-05
3.76626e-06
9.37729e-07
1.62852e-07
1.48011e-08
9.07747e-05
0.000142866
0.000221313
0.000337386
0.000506089
0.000746874
0.00108428
0.00154838
0.00217486
0.00300473
0.00408335
0.00545893
0.00718045
0.00929505
0.0118453
0.0148667
0.0183854
0.0224173
0.0269679
0.0320335
0.0376033
0.0436623
0.0501939
0.0571826
0.0646146
0.0724782
0.0807624
0.0894543
0.0985363
0.107983
0.117759
0.127818
0.138101
0.148535
0.159038
0.169518
0.179871
0.18999
0.199761
0.209068
0.217795
0.225826
0.23305
0.239362
0.244668
0.248884
0.251938
0.253776
0.254361
0.253672
0.251709
0.248458
0.24396
0.238273
0.231474
0.223655
0.214921
0.205392
0.195194
0.184459
0.173323
0.161923
0.150393
0.138861
0.127447
0.116263
0.105409
0.09497
0.0850202
0.0756177
0.0668067
0.0586175
0.0510673
0.0441609
0.0378927
0.0322475
0.0272026
0.0227292
0.0187943
0.0153619
0.0123946
0.00985468
0.00770463
0.00590805
0.0044296
0.00323506
0.00229105
0.0015648
0.00102403
0.000637005
0.000372997
0.000203102
0.000101258
4.52891e-05
1.76715e-05
5.7763e-06
1.48328e-06
2.66064e-07
2.50132e-08
0.000142231
0.000220216
0.000335534
0.000503032
0.000741951
0.00107655
0.00153653
0.00215718
0.00297905
0.00404706
0.00540914
0.00711415
0.0092096
0.011739
0.0147395
0.0182401
0.0222605
0.0268111
0.0318944
0.0375067
0.0436406
0.0502878
0.057441
0.0650943
0.0732437
0.0818849
0.0910113
0.100611
0.110663
0.121138
0.131991
0.143165
0.154592
0.166187
0.177856
0.189494
0.200987
0.212213
0.223046
0.233357
0.243016
0.251895
0.259871
0.266829
0.272662
0.277279
0.280601
0.282568
0.283139
0.282294
0.280032
0.276351
0.271295
0.26493
0.257341
0.24863
0.238914
0.228323
0.216996
0.20508
0.192725
0.18008
0.167293
0.154506
0.141853
0.129454
0.117422
0.105851
0.0948219
0.0843997
0.0746333
0.0655561
0.0571872
0.0495317
0.042583
0.0363237
0.0307279
0.0257629
0.0213911
0.0175715
0.0142618
0.0114192
0.00900192
0.00696965
0.00528397
0.00390839
0.00280799
0.00194905
0.00129853
0.000823819
0.000492864
0.00027469
0.000140419
6.45068e-05
2.58959e-05
8.72307e-06
2.31209e-06
4.28764e-07
4.1738e-08
0.000213178
0.000324947
0.000487363
0.00071914
0.0010439
0.00149062
0.00209378
0.00289309
0.00393275
0.00526011
0.00692384
0.00897173
0.0114483
0.0143926
0.0178365
0.0218036
0.0263095
0.0313625
0.0369658
0.0431195
0.0498229
0.0570763
0.0648818
0.0732425
0.0821615
0.0916388
0.101669
0.112238
0.123321
0.13488
0.146862
0.159201
0.171817
0.184616
0.197491
0.210325
0.222992
0.235356
0.247279
0.258618
0.269229
0.278972
0.287712
0.29532
0.301683
0.306697
0.310278
0.312361
0.312901
0.311877
0.309291
0.305151
0.299508
0.292434
0.284024
0.274388
0.263655
0.251967
0.239477
0.226344
0.212732
0.198805
0.184725
0.170646
0.156714
0.143065
0.129818
0.117078
0.104935
0.0934602
0.0827068
0.0727122
0.0634974
0.0550682
0.0474172
0.040525
0.0343626
0.0288934
0.024075
0.0198613
0.0162045
0.0130563
0.0103699
0.00810036
0.00620536
0.00464553
0.003384
0.00238593
0.00161776
0.00104657
0.000639713
0.000364974
0.000191354
9.03274e-05
3.73286e-05
1.29674e-05
3.55071e-06
6.81391e-07
6.87552e-08
0.000307106
0.000461204
0.000681432
0.000990479
0.00141625
0.00199209
0.00275654
0.00375275
0.00502723
0.00662826
0.00860378
0.0109993
0.0138556
0.0172074
0.0210823
0.0255006
0.0304765
0.0360194
0.0421364
0.048834
0.0561196
0.0640026
0.0724935
0.0816023
0.0913366
0.101698
0.11268
0.124264
0.13642
0.149102
0.162248
0.175784
0.189619
0.203647
0.217752
0.231802
0.245661
0.259178
0.272203
0.284577
0.296146
0.306754
0.316254
0.324508
0.33139
0.336789
0.340614
0.342795
0.343284
0.342058
0.339121
0.334498
0.328244
0.32044
0.311186
0.300604
0.288834
0.27603
0.262356
0.247987
0.233099
0.217871
0.202478
0.187087
0.171858
0.156937
0.142455
0.128526
0.115249
0.1027
0.0909402
0.0800092
0.0699305
0.060711
0.0523427
0.0448045
0.0380647
0.0320826
0.0268113
0.0221995
0.0181937
0.01474
0.0117857
0.00928066
0.00717801
0.00543466
0.00401115
0.0028711
0.00198036
0.00130601
0.000815515
0.000476315
0.000256188
0.000124314
5.29155e-05
1.89704e-05
5.37081e-06
1.06763e-06
1.11793e-07
0.000426986
0.000632222
0.000920928
0.00131967
0.00186033
0.00258001
0.00352046
0.00472712
0.00624758
0.00812973
0.0104198
0.0131603
0.0163885
0.0201356
0.0244265
0.0292806
0.0347133
0.0407378
0.0473672
0.0546157
0.0624992
0.0710351
0.0802407
0.0901307
0.100715
0.111994
0.123959
0.136586
0.149839
0.163664
0.177993
0.192739
0.207802
0.223068
0.238406
0.253675
0.268723
0.28339
0.297508
0.310908
0.32342
0.334878
0.345121
0.354001
0.361381
0.367143
0.371189
0.373444
0.373858
0.372408
0.369098
0.363973
0.357093
0.348544
0.338437
0.326903
0.314091
0.300168
0.28531
0.269705
0.253542
0.237014
0.220308
0.203607
0.18708
0.170886
0.155167
0.140047
0.125631
0.112005
0.0992325
0.0873589
0.0764099
0.0663934
0.0573014
0.0491113
0.0417889
0.0352902
0.0295637
0.0245531
0.0201994
0.0164427
0.0132244
0.0104886
0.00818324
0.00626073
0.00467821
0.00339712
0.00238234
0.00160097
0.00102103
0.000610484
0.0003369
0.000168109
7.37449e-05
2.73034e-05
7.99949e-06
1.64889e-06
1.7938e-07
0.000575
0.000840015
0.00120726
0.0017069
0.00237429
0.00324954
0.00437668
0.00580234
0.00757406
0.0097385
0.0123395
0.0154167
0.0190045
0.0231319
0.027823
0.0330985
0.0389772
0.045478
0.052621
0.0604283
0.0689236
0.078131
0.0880725
0.0987655
0.11022
0.122434
0.135396
0.149077
0.163432
0.178402
0.193909
0.209859
0.226142
0.242631
0.259186
0.275653
0.291868
0.307657
0.322841
0.337235
0.350659
0.362932
0.373884
0.383354
0.391199
0.397292
0.401528
0.403829
0.404142
0.402444
0.398743
0.393102
0.385588
0.376294
0.365338
0.35286
0.33902
0.323994
0.307972
0.291152
0.273738
0.255934
0.23794
0.219951
0.202149
0.184704
0.167767
0.151473
0.135934
0.121243
0.107469
0.0946614
0.0828489
0.0720407
0.0622289
0.0533899
0.0454874
0.0384742
0.0322949
0.0268886
0.022191
0.0181364
0.0146604
0.011701
0.00920051
0.00710625
0.00537114
0.00395365
0.00281702
0.00192804
0.00125545
0.000768336
0.000435087
0.000223321
0.00010101
3.865e-05
1.17291e-05
2.50958e-06
2.83992e-07
0.000752316
0.00108515
0.00153987
0.00214983
0.00295322
0.00399236
0.00531259
0.00696079
0.00898368
0.0114261
0.0143295
0.017731
0.0216633
0.0261546
0.0312301
0.0369137
0.0432291
0.0502017
0.057859
0.0662305
0.0753463
0.0852354
0.0959229
0.107427
0.119756
0.132907
0.146861
0.161585
0.177029
0.193125
0.209788
0.226914
0.244383
0.26206
0.279792
0.297413
0.314748
0.33161
0.347807
0.363143
0.377423
0.390458
0.402066
0.412078
0.420339
0.426718
0.431106
0.433419
0.433603
0.431637
0.427529
0.421367
0.413223
0.403195
0.391409
0.378013
0.363176
0.347086
0.329941
0.311953
0.293334
0.274303
0.25507
0.235842
0.216812
0.19816
0.180048
0.162619
0.145993
0.130269
0.115522
0.101806
0.0891521
0.0775709
0.0670551
0.0575804
0.0491089
0.0415906
0.0349669
0.0291726
0.0241385
0.0197939
0.0160685
0.0128946
0.0102086
0.00795238
0.00607394
0.00452795
0.0032752
0.00228153
0.00151612
0.000949496
0.000551712
0.000291358
0.000135945
5.37954e-05
1.69247e-05
3.76307e-06
4.43531e-07
0.000958948
0.00136665
0.00191624
0.00264374
0.00358947
0.00479717
0.00631266
0.00818232
0.0104515
0.0131631
0.0163564
0.0200671
0.024327
0.0291652
0.0346096
0.0406883
0.047431
0.0548697
0.0630389
0.0719743
0.081711
0.0922814
0.103712
0.11602
0.129212
0.143282
0.158206
0.173945
0.190443
0.207625
0.225397
0.243649
0.262249
0.281053
0.299896
0.318604
0.336986
0.354847
0.37198
0.388181
0.403243
0.416967
0.42916
0.439645
0.448263
0.454874
0.459365
0.461652
0.461679
0.459425
0.454902
0.448221
0.43946
0.428723
0.416142
0.401873
0.386093
0.368998
0.350796
0.331708
0.311959
0.291774
0.271377