# vtk DataFile Version 3.0
Malha 2D com triângulos e temperatura
ASCII
DATASET UNSTRUCTURED_GRID

POINTS 10000 double
0 0 0
10 0 0
10 10 0
0 10 0
0.10101 0 0
0.20202 0 0
0.30303 0 0
0.40404 0 0
0.505051 0 0
0.606061 0 0
0.707071 0 0
0.808081 0 0
0.909091 0 0
1.0101 0 0
1.11111 0 0
1.21212 0 0
1.31313 0 0
1.41414 0 0
1.51515 0 0
1.61616 0 0
1.71717 0 0
1.81818 0 0
1.91919 0 0
2.0202 0 0
2.12121 0 0
2.22222 0 0
2.32323 0 0
2.42424 0 0
2.52525 0 0
2.62626 0 0
2.72727 0 0
2.82828 0 0
2.92929 0 0
3.0303 0 0
3.13131 0 0
3.23232 0 0
3.33333 0 0
3.43434 0 0
3.53535 0 0
3.63636 0 0
3.73737 0 0
3.83838 0 0
3.93939 0 0
4.0404 0 0
4.14141 0 0
4.24242 0 0
4.34343 0 0
4.44444 0 0
4.54545 0 0
4.64646 0 0
4.74747 0 0
4.84848 0 0
4.94949 0 0
5.05051 0 0
5.15152 0 0
5.25253 0 0
5.35354 0 0
5.45455 0 0
5.55556 0 0
5.65657 0 0
5.75758 0 0
5.85859 0 0
5.9596 0 0
6.06061 0 0
6.16162 0 0
6.26263 0 0
6.36364 0 0
6.46465 0 0
6.56566 0 0
6.66667 0 0
6.76768 0 0
6.86869 0 0
6.9697 0 0
7.07071 0 0
7.17172 0 0
7.27273 0 0
7.37374 0 0
7.47475 0 0
7.57576 0 0
7.67677 0 0
7.77778 0 0
7.87879 0 0
7.9798 0 0
8.08081 0 0
8.18182 0 0
8.28283 0 0
8.38384 0 0
8.48485 0 0
8.58586 0 0
8.68687 0 0
8.78788 0 0
8.88889 0 0
8.9899 0 0
9.09091 0 0
9.19192 0 0
9.29293 0 0
9.39394 0 0
9.49495 0 0
9.59596 0 0
9.69697 0 0
9.79798 0 0
9.89899 0 0
10 0.10101 0
10 0.20202 0
10 0.30303 0
10 0.40404 0
10 0.505051 0
10 0.606061 0
10 0.707071 0
10 0.808081 0
10 0.909091 0
10 1.0101 0
10 1.11111 0
10 1.21212 0
10 1.31313 0
10 1.41414 0
10 1.51515 0
10 1.61616 0
10 1.71717 0
10 1.81818 0
10 1.91919 0
10 2.0202 0
10 2.12121 0
10 2.22222 0
10 2.32323 0
10 2.42424 0
10 2.52525 0
10 2.62626 0
10 2.72727 0
10 2.82828 0
10 2.92929 0
10 3.0303 0
10 3.13131 0
10 3.23232 0
10 3.33333 0
10 3.43434 0
10 3.53535 0
10 3.63636 0
10 3.73737 0
10 3.83838 0
10 3.93939 0
10 4.0404 0
10 4.14141 0
10 4.24242 0
10 4.34343 0
10 4.44444 0
10 4.54545 0
10 4.64646 0
10 4.74747 0
10 4.84848 0
10 4.94949 0
10 5.05051 0
10 5.15152 0
10 5.25253 0
10 5.35354 0
10 5.45455 0
10 5.55556 0
10 5.65657 0
10 5.75758 0
10 5.85859 0
10 5.9596 0
10 6.06061 0
10 6.16162 0
10 6.26263 0
10 6.36364 0
10 6.46465 0
10 6.56566 0
10 6.66667 0
10 6.76768 0
10 6.86869 0
10 6.9697 0
10 7.07071 0
10 7.17172 0
10 7.27273 0
10 7.37374 0
10 7.47475 0
10 7.57576 0
10 7.67677 0
10 7.77778 0
10 7.87879 0
10 7.9798 0
10 8.08081 0
10 8.18182 0
10 8.28283 0
10 8.38384 0
10 8.48485 0
10 8.58586 0
10 8.68687 0
10 8.78788 0
10 8.88889 0
10 8.9899 0
10 9.09091 0
10 9.19192 0
10 9.29293 0
10 9.39394 0
10 9.49495 0
10 9.59596 0
10 9.69697 0
10 9.79798 0
10 9.89899 0
9.89899 10 0
9.79798 10 0
9.69697 10 0
9.59596 10 0
9.49495 10 0
9.39394 10 0
9.29293 10 0
9.19192 10 0
9.09091 10 0
8.9899 10 0
8.88889 10 0
8.78788 10 0
8.68687 10 0
8.58586 10 0
8.48485 10 0
8.38384 10 0
8.28283 10 0
8.18182 10 0
8.08081 10 0
7.9798 10 0
7.87879 10 0
7.77778 10 0
7.67677 10 0
7.57576 10 0
7.47475 10 0
7.37374 10 0
7.27273 10 0
7.17172 10 0
7.07071 10 0
6.9697 10 0
6.86869 10 0
6.76768 10 0
6.66667 10 0
6.56566 10 0
6.46465 10 0
6.36364 10 0
6.26263 10 0
6.16162 10 0
6.06061 10 0
5.9596 10 0
5.85859 10 0
5.75758 10 0
5.65657 10 0
5.55556 10 0
5.45455 10 0
5.35354 10 0
5.25253 10 0
5.15152 10 0
5.05051 10 0
4.94949 10 0
4.84848 10 0
4.74747 10 0
4.64646 10 0
4.54545 10 0
4.44444 10 0
4.34343 10 0
4.24242 10 0
4.14141 10 0
4.0404 10 0
3.93939 10 0
3.83838 10 0
3.73737 10 0
3.63636 10 0
3.53535 10 0
3.43434 10 0
3.33333 10 0
3.23232 10 0
3.13131 10 0
3.0303 10 0
2.92929 10 0
2.82828 10 0
2.72727 10 0
2.62626 10 0
2.52525 10 0
2.42424 10 0
2.32323 10 0
2.22222 10 0
2.12121 10 0
2.0202 10 0
1.91919 10 0
1.81818 10 0
1.71717 10 0
1.61616 10 0
1.51515 10 0
1.41414 10 0
1.31313 10 0
1.21212 10 0
1.11111 10 0
1.0101 10 0
0.909091 10 0
0.808081 10 0
0.707071 10 0
0.606061 10 0
0.505051 10 0
0.40404 10 0
0.30303 10 0
0.20202 10 0
0.10101 10 0
0 9.89899 0
0 9.79798 0
0 9.69697 0
0 9.59596 0
0 9.49495 0
0 9.39394 0
0 9.29293 0
0 9.19192 0
0 9.09091 0
0 8.9899 0
0 8.88889 0
0 8.78788 0
0 8.68687 0
0 8.58586 0
0 8.48485 0
0 8.38384 0
0 8.28283 0
0 8.18182 0
0 8.08081 0
0 7.9798 0
0 7.87879 0
0 7.77778 0
0 7.67677 0
0 7.57576 0
0 7.47475 0
0 7.37374 0
0 7.27273 0
0 7.17172 0
0 7.07071 0
0 6.9697 0
0 6.86869 0
0 6.76768 0
0 6.66667 0
0 6.56566 0
0 6.46465 0
0 6.36364 0
0 6.26263 0
0 6.16162 0
0 6.06061 0
0 5.9596 0
0 5.85859 0
0 5.75758 0
0 5.65657 0
0 5.55556 0
0 5.45455 0
0 5.35354 0
0 5.25253 0
0 5.15152 0
0 5.05051 0
0 4.94949 0
0 4.84848 0
0 4.74747 0
0 4.64646 0
0 4.54545 0
0 4.44444 0
0 4.34343 0
0 4.24242 0
0 4.14141 0
0 4.0404 0
0 3.93939 0
0 3.83838 0
0 3.73737 0
0 3.63636 0
0 3.53535 0
0 3.43434 0
0 3.33333 0
0 3.23232 0
0 3.13131 0
0 3.0303 0
0 2.92929 0
0 2.82828 0
0 2.72727 0
0 2.62626 0
0 2.52525 0
0 2.42424 0
0 2.32323 0
0 2.22222 0
0 2.12121 0
0 2.0202 0
0 1.91919 0
0 1.81818 0
0 1.71717 0
0 1.61616 0
0 1.51515 0
0 1.41414 0
0 1.31313 0
0 1.21212 0
0 1.11111 0
0 1.0101 0
0 0.909091 0
0 0.808081 0
0 0.707071 0
0 0.606061 0
0 0.505051 0
0 0.40404 0
0 0.30303 0
0 0.20202 0
0 0.10101 0
0.10101 0.10101 0
0.10101 0.20202 0
0.10101 0.30303 0
0.10101 0.40404 0
0.10101 0.505051 0
0.10101 0.606061 0
0.10101 0.707071 0
0.10101 0.808081 0
0.10101 0.909091 0
0.10101 1.0101 0
0.10101 1.11111 0
0.10101 1.21212 0
0.10101 1.31313 0
0.10101 1.41414 0
0.10101 1.51515 0
0.10101 1.61616 0
0.10101 1.71717 0
0.10101 1.81818 0
0.10101 1.91919 0
0.10101 2.0202 0
0.10101 2.12121 0
0.10101 2.22222 0
0.10101 2.32323 0
0.10101 2.42424 0
0.10101 2.52525 0
0.10101 2.62626 0
0.10101 2.72727 0
0.10101 2.82828 0
0.10101 2.92929 0
0.10101 3.0303 0
0.10101 3.13131 0
0.10101 3.23232 0
0.10101 3.33333 0
0.10101 3.43434 0
0.10101 3.53535 0
0.10101 3.63636 0
0.10101 3.73737 0
0.10101 3.83838 0
0.10101 3.93939 0
0.10101 4.0404 0
0.10101 4.14141 0
0.10101 4.24242 0
0.10101 4.34343 0
0.10101 4.44444 0
0.10101 4.54545 0
0.10101 4.64646 0
0.10101 4.74747 0
0.10101 4.84848 0
0.10101 4.94949 0
0.10101 5.05051 0
0.10101 5.15152 0
0.10101 5.25253 0
0.10101 5.35354 0
0.10101 5.45455 0
0.10101 5.55556 0
0.10101 5.65657 0
0.10101 5.75758 0
0.10101 5.85859 0
0.10101 5.9596 0
0.10101 6.06061 0
0.10101 6.16162 0
0.10101 6.26263 0
0.10101 6.36364 0
0.10101 6.46465 0
0.10101 6.56566 0
0.10101 6.66667 0
0.10101 6.76768 0
0.10101 6.86869 0
0.10101 6.9697 0
0.10101 7.07071 0
0.10101 7.17172 0
0.10101 7.27273 0
0.10101 7.37374 0
0.10101 7.47475 0
0.10101 7.57576 0
0.10101 7.67677 0
0.10101 7.77778 0
0.10101 7.87879 0
0.10101 7.9798 0
0.10101 8.08081 0
0.10101 8.18182 0
0.10101 8.28283 0
0.10101 8.38384 0
0.10101 8.48485 0
0.10101 8.58586 0
0.10101 8.68687 0
0.10101 8.78788 0
0.10101 8.88889 0
0.10101 8.9899 0
0.10101 9.09091 0
0.10101 9.19192 0
0.10101 9.29293 0
0.10101 9.39394 0
0.10101 9.49495 0
0.10101 9.59596 0
0.10101 9.69697 0
0.10101 9.79798 0
0.10101 9.89899 0
0.20202 0.10101 0
0.20202 0.20202 0
0.20202 0.30303 0
0.20202 0.40404 0
0.20202 0.505051 0
0.20202 0.606061 0
0.20202 0.707071 0
0.20202 0.808081 0
0.20202 0.909091 0
0.20202 1.0101 0
0.20202 1.11111 0
0.20202 1.21212 0
0.20202 1.31313 0
0.20202 1.41414 0
0.20202 1.51515 0
0.20202 1.61616 0
0.20202 1.71717 0
0.20202 1.81818 0
0.20202 1.91919 0
0.20202 2.0202 0
0.20202 2.12121 0
0.20202 2.22222 0
0.20202 2.32323 0
0.20202 2.42424 0
0.20202 2.52525 0
0.20202 2.62626 0
0.20202 2.72727 0
0.20202 2.82828 0
0.20202 2.92929 0
0.20202 3.0303 0
0.20202 3.13131 0
0.20202 3.23232 0
0.20202 3.33333 0
0.20202 3.43434 0
0.20202 3.53535 0
0.20202 3.63636 0
0.20202 3.73737 0
0.20202 3.83838 0
0.20202 3.93939 0
0.20202 4.0404 0
0.20202 4.14141 0
0.20202 4.24242 0
0.20202 4.34343 0
0.20202 4.44444 0
0.20202 4.54545 0
0.20202 4.64646 0
0.20202 4.74747 0
0.20202 4.84848 0
0.20202 4.94949 0
0.20202 5.05051 0
0.20202 5.15152 0
0.20202 5.25253 0
0.20202 5.35354 0
0.20202 5.45455 0
0.20202 5.55556 0
0.20202 5.65657 0
0.20202 5.75758 0
0.20202 5.85859 0
0.20202 5.9596 0
0.20202 6.06061 0
0.20202 6.16162 0
0.20202 6.26263 0
0.20202 6.36364 0
0.20202 6.46465 0
0.20202 6.56566 0
0.20202 6.66667 0
0.20202 6.76768 0
0.20202 6.86869 0
0.20202 6.9697 0
0.20202 7.07071 0
0.20202 7.17172 0
0.20202 7.27273 0
0.20202 7.37374 0
0.20202 7.47475 0
0.20202 7.57576 0
0.20202 7.67677 0
0.20202 7.77778 0
0.20202 7.87879 0
0.20202 7.9798 0
0.20202 8.08081 0
0.20202 8.18182 0
0.20202 8.28283 0
0.20202 8.38384 0
0.20202 8.48485 0
0.20202 8.58586 0
0.20202 8.68687 0
0.20202 8.78788 0
0.20202 8.88889 0
0.20202 8.9899 0
0.20202 9.09091 0
0.20202 9.19192 0
0.20202 9.29293 0
0.20202 9.39394 0
0.20202 9.49495 0
0.20202 9.59596 0
0.20202 9.69697 0
0.20202 9.79798 0
0.20202 9.89899 0
0.30303 0.10101 0
0.30303 0.20202 0
0.30303 0.30303 0
0.30303 0.40404 0
0.30303 0.505051 0
0.30303 0.606061 0
0.30303 0.707071 0
0.30303 0.808081 0
0.30303 0.909091 0
0.30303 1.0101 0
0.30303 1.11111 0
0.30303 1.21212 0
0.30303 1.31313 0
0.30303 1.41414 0
0.30303 1.51515 0
0.30303 1.61616 0
0.30303 1.71717 0
0.30303 1.81818 0
0.30303 1.91919 0
0.30303 2.0202 0
0.30303 2.12121 0
0.30303 2.22222 0
0.30303 2.32323 0
0.30303 2.42424 0
0.30303 2.52525 0
0.30303 2.62626 0
0.30303 2.72727 0
0.30303 2.82828 0
0.30303 2.92929 0
0.30303 3.0303 0
0.30303 3.13131 0
0.30303 3.23232 0
0.30303 3.33333 0
0.30303 3.43434 0
0.30303 3.53535 0
0.30303 3.63636 0
0.30303 3.73737 0
0.30303 3.83838 0
0.30303 3.93939 0
0.30303 4.0404 0
0.30303 4.14141 0
0.30303 4.24242 0
0.30303 4.34343 0
0.30303 4.44444 0
0.30303 4.54545 0
0.30303 4.64646 0
0.30303 4.74747 0
0.30303 4.84848 0
0.30303 4.94949 0
0.30303 5.05051 0
0.30303 5.15152 0
0.30303 5.25253 0
0.30303 5.35354 0
0.30303 5.45455 0
0.30303 5.55556 0
0.30303 5.65657 0
0.30303 5.75758 0
0.30303 5.85859 0
0.30303 5.9596 0
0.30303 6.06061 0
0.30303 6.16162 0
0.30303 6.26263 0
0.30303 6.36364 0
0.30303 6.46465 0
0.30303 6.56566 0
0.30303 6.66667 0
0.30303 6.76768 0
0.30303 6.86869 0
0.30303 6.9697 0
0.30303 7.07071 0
0.30303 7.17172 0
0.30303 7.27273 0
0.30303 7.37374 0
0.30303 7.47475 0
0.30303 7.57576 0
0.30303 7.67677 0
0.30303 7.77778 0
0.30303 7.87879 0
0.30303 7.9798 0
0.30303 8.08081 0
[...]
CELL_DATA 9801
SCALARS Temperatura double 1
LOOKUP_TABLE default
-1.08342e-18
-1.27314e-18
-2.24792e-18
-3.70132e-18
-5.58777e-18
-7.19796e-18
-5.9872e-18
5.22178e-18
4.45029e-17
1.54323e-16
4.29719e-16
1.07556e-15
2.52013e-15
5.63579e-15
1.21588e-14
2.54736e-14
5.20521e-14
1.04049e-13
2.0391e-13
3.92411e-13
7.42481e-13
1.3826e-12
2.53576e-12
4.58353e-12
8.16947e-12
1.43641e-11
2.49237e-11
4.26902e-11
7.22007e-11
1.20601e-10
1.98996e-10
3.2441e-10
5.22599e-10
8.32002e-10
1.30922e-09
2.03649e-09
3.13165e-09
4.76126e-09
7.15754e-09
1.06397e-08
1.56402e-08
2.27368e-08
3.26884e-08
4.64752e-08
6.53346e-08
9.07796e-08
1.24564e-07
1.68518e-07
2.24139e-07
2.91825e-07
3.70727e-07
4.6667e-07
5.81658e-07
7.17829e-07
8.77123e-07
1.06115e-06
1.27106e-06
1.50735e-06
1.76977e-06
2.05717e-06
2.36736e-06
2.6971e-06
3.042e-06
3.39664e-06
3.75459e-06
4.10859e-06
4.45078e-06
4.77298e-06
5.06698e-06
5.32491e-06
5.53954e-06
5.70468e-06
5.81544e-06
5.86845e-06
5.86208e-06
5.79649e-06
5.67362e-06
5.49711e-06
5.27212e-06
5.00508e-06
4.70337e-06
4.37498e-06
4.0282e-06
3.67122e-06
3.31187e-06
2.95732e-06
2.61389e-06
2.28688e-06
1.9805e-06
1.69788e-06
1.44102e-06
1.21079e-06
1.00686e-06
8.27247e-07
6.67585e-07
5.19944e-07
3.72417e-07
2.13651e-07
3.7656e-08
1.41559e-18
6.85918e-18
1.54911e-17
3.46027e-17
7.59952e-17
1.64251e-16
3.49623e-16
7.33364e-16
1.51665e-15
3.0937e-15
6.22662e-15
1.23691e-14
2.42576e-14
4.69765e-14
8.98501e-14
1.69761e-13
3.16884e-13
5.84475e-13
1.06533e-12
1.91911e-12
3.41708e-12
6.01425e-12
1.04644e-11
1.80002e-11
3.06127e-11
5.14759e-11
8.55869e-11
1.40711e-10
2.28761e-10
3.67775e-10
5.84712e-10
9.19328e-10
1.42948e-09
2.19821e-09
3.34311e-09
5.0284e-09
7.48011e-09
1.10049e-08
1.60128e-08
2.30436e-08
3.27967e-08
4.61637e-08
6.42618e-08
8.84661e-08
1.20438e-07
1.6215e-07
2.15914e-07
2.84428e-07
3.70896e-07
4.79238e-07
6.13677e-07
7.7766e-07
9.75446e-07
1.21109e-06
1.48838e-06
1.81055e-06
2.18006e-06
2.5983e-06
3.06528e-06
3.57943e-06
4.13732e-06
4.73353e-06
5.3606e-06
6.00901e-06
6.66736e-06
7.32263e-06
7.96052e-06
8.56598e-06
9.12375e-06
9.61902e-06
1.0038e-05
1.03688e-05
1.06015e-05
1.07291e-05
1.07478e-05
1.0657e-05
1.04595e-05
1.01611e-05
9.77081e-06
9.29985e-06
8.76147e-06
8.17022e-06
7.54127e-06
6.88985e-06
6.23058e-06
5.577e-06
4.94114e-06
4.33324e-06
3.76154e-06
3.23223e-06
2.74942e-06
2.31514e-06
1.92911e-06
1.58805e-06
1.28421e-06
1.00321e-06
7.23008e-07
4.21871e-07
8.94637e-08
4.29091e-18
1.7029e-17
3.75364e-17
8.19186e-17
1.76119e-16
3.73221e-16
7.79949e-16
1.60797e-15
3.27149e-15
6.57045e-15
1.30297e-14
2.55186e-14
4.93678e-14
9.43561e-14
1.78196e-13
3.32573e-13
6.13461e-13
1.11852e-12
2.01605e-12
3.59247e-12
6.32932e-12
1.10262e-11
1.89943e-11
3.23578e-11
5.45153e-11
9.08374e-11
1.49706e-10
2.44039e-10
3.93504e-10
6.27661e-10
9.90385e-10
1.54598e-09
2.38748e-09
3.6478e-09
5.5143e-09
8.24774e-09
1.22062e-08
1.78749e-08
2.59022e-08
3.71431e-08
5.27086e-08
7.4022e-08
1.0288e-07
1.41513e-07
1.92652e-07
2.59575e-07
3.46157e-07
4.56905e-07
5.97009e-07
7.72425e-07
9.89082e-07
1.25338e-06
1.57214e-06
1.95191e-06
2.39877e-06
2.91795e-06
3.51339e-06
4.18732e-06
4.93978e-06
5.7682e-06
6.66707e-06
7.62767e-06
8.63796e-06
9.68262e-06
1.07433e-05
1.1799e-05
1.28266e-05
1.38021e-05
1.47007e-05
1.54987e-05
1.61738e-05
1.67068e-05
1.70818e-05
1.72877e-05
1.73181e-05
1.71721e-05
1.68542e-05
1.63739e-05
1.57454e-05
1.4987e-05
1.41199e-05
1.31677e-05
1.21546e-05
1.11053e-05
1.00433e-05
8.99031e-06
7.96584e-06
6.98632e-06
6.06503e-06
5.21196e-06
4.43378e-06
3.73384e-06
3.1119e-06
2.56301e-06
2.0752e-06
1.62557e-06
1.17784e-06
6.93954e-07
1.52865e-07
8.20535e-18
3.1115e-17
6.79931e-17
1.47133e-16
3.13803e-16
6.59967e-16
1.36928e-15
2.80364e-15
5.66693e-15
1.13105e-14
2.22962e-14
4.34188e-14
8.35414e-14
1.58845e-13
2.98504e-13
5.54488e-13
1.01823e-12
1.84866e-12
3.31868e-12
5.89129e-12
1.03425e-11
1.79572e-11
3.08376e-11
5.23818e-11
8.80156e-11
1.46299e-10
2.40575e-10
3.91383e-10
6.29965e-10
1.00326e-09
1.5809e-09
2.46495e-09
3.80311e-09
5.80644e-09
8.77269e-09
1.31165e-08
1.9408e-08
2.84202e-08
4.11874e-08
5.90749e-08
8.38585e-08
1.17815e-07
1.63819e-07
2.25441e-07
3.07046e-07
4.13869e-07
5.52087e-07
7.28869e-07
9.52465e-07
1.23236e-06
1.57806e-06
1.99982e-06
2.50851e-06
3.11459e-06
3.82777e-06
4.6564e-06
5.60682e-06
6.68257e-06
7.88375e-06
9.20628e-06
1.06414e-05
1.21751e-05
1.37884e-05
1.54566e-05
1.71506e-05
1.88368e-05
2.04786e-05
2.20371e-05
2.34732e-05
2.47487e-05
2.58283e-05
2.6681e-05
2.72817e-05
2.76122e-05
2.76627e-05
2.74314e-05
2.69255e-05
2.61601e-05
2.5158e-05
2.39482e-05
2.25646e-05
2.10447e-05
1.94274e-05
1.77519e-05
1.60558e-05
1.4374e-05
1.27374e-05
1.11723e-05
9.7001e-06
8.33664e-06
7.09269e-06
5.97376e-06
4.97977e-06
4.1034e-06
3.32631e-06
2.61249e-06
1.90296e-06
1.13212e-06
2.5915e-07
1.40762e-17
5.1938e-17
1.12968e-16
2.43355e-16
5.16849e-16
1.08276e-15
2.23833e-15
4.56755e-15
9.20319e-15
1.83147e-14
3.60048e-14
6.99369e-14
1.34249e-13
2.54706e-13
4.77695e-13
8.8572e-13
1.62377e-12
2.94356e-12
5.27697e-12
9.35603e-12
1.64069e-11
2.84587e-11
4.883e-11
8.28826e-11
1.39177e-10
2.31216e-10
3.80044e-10
6.18062e-10
9.94552e-10
1.58356e-09
2.49497e-09
3.88986e-09
6.00134e-09
9.16263e-09
1.38439e-08
2.07e-08
3.06313e-08
4.48587e-08
6.50165e-08
9.32607e-08
1.32397e-07
1.8602e-07
2.5867e-07
3.55987e-07
4.84862e-07
6.53566e-07
8.71854e-07
1.15105e-06
1.50419e-06
1.94623e-06
2.49225e-06
3.15844e-06
3.96198e-06
4.9194e-06
6.04606e-06
7.35517e-06
8.85675e-06
1.05564e-05
1.24544e-05
1.45443e-05
1.68121e-05
1.92361e-05
2.17858e-05
2.44227e-05
2.71006e-05
2.97664e-05
3.23622e-05
3.48268e-05
3.70982e-05
3.91162e-05
4.08247e-05
4.21748e-05
4.31267e-05
4.36519e-05
4.37343e-05
4.33714e-05
4.25743e-05
4.13669e-05
3.97851e-05
3.78747e-05
3.56893e-05
3.32879e-05
3.07323e-05
2.80843e-05
2.54033e-05
2.27445e-05
2.01567e-05
1.76818e-05
1.53533e-05
1.31965e-05
1.12285e-05
9.45813e-06
7.88581e-06
6.50085e-06
5.27551e-06
4.15393e-06
3.0415e-06
1.82703e-06
4.3387e-07
2.33902e-17
8.39953e-17
1.82074e-16
3.9095e-16
8.27896e-16
1.72982e-15
3.56745e-15
7.26411e-15
1.4608e-14
2.90193e-14
5.69585e-14
1.1048e-13
2.118e-13
4.01377e-13
7.51992e-13
1.39302e-12
2.55168e-12
4.62231e-12
8.28116e-12
1.46742e-11
2.57201e-11
4.4594e-11
7.64869e-11
1.29785e-10
2.17877e-10
3.61879e-10
5.94696e-10
9.66991e-10
1.55582e-09
2.47695e-09
3.90218e-09
6.08333e-09
9.38485e-09
1.43276e-08
2.16467e-08
3.23657e-08
4.78918e-08
7.01338e-08
1.01646e-07
1.45797e-07
2.06974e-07
2.90794e-07
4.04356e-07
5.56475e-07
7.57926e-07
1.02164e-06
1.36289e-06
1.79936e-06
2.35144e-06
3.04249e-06
3.89615e-06
4.93775e-06
6.19416e-06
7.69124e-06
9.45301e-06
1.15002e-05
1.38484e-05
1.65067e-05
1.94751e-05
2.27438e-05
2.62912e-05
3.00829e-05
3.40717e-05
3.81972e-05
4.23871e-05
4.65586e-05
5.0621e-05
5.44785e-05
5.80343e-05
6.11939e-05
6.38698e-05
6.59854e-05
6.74782e-05
6.83036e-05
6.84363e-05
6.78725e-05
6.6629e-05
6.47435e-05
6.22718e-05
5.92856e-05
5.58687e-05
5.21133e-05
4.81161e-05
4.39736e-05
3.9779e-05
3.56186e-05
3.15689e-05
2.76952e-05
2.40502e-05
2.06734e-05
1.75918e-05
1.48196e-05
1.2358e-05
1.01915e-05
8.27896e-06
6.53476e-06
4.80922e-06
2.91674e-06
7.17509e-07
3.83194e-17
1.33792e-16
2.89141e-16
6.19072e-16
1.30767e-15
2.72617e-15
5.61106e-15
1.14051e-14
2.28994e-14
4.54264e-14
8.90497e-14
1.72531e-13
3.30427e-13
6.25621e-13
1.17118e-12
2.16798e-12
3.96869e-12
7.18508e-12
1.2866e-11
2.2788e-11
3.99254e-11
6.91983e-11
1.18649e-10
2.01269e-10
3.37794e-10
5.60921e-10
9.21602e-10
1.49827e-09
2.41021e-09
3.8366e-09
6.04336e-09
9.42016e-09
1.4531e-08
2.2182e-08
3.35102e-08
5.00997e-08
7.41277e-08
1.08547e-07
1.57309e-07
2.25629e-07
3.20288e-07
4.49984e-07
6.25695e-07
8.61067e-07
1.17278e-06
1.58084e-06
2.10889e-06
2.78433e-06
3.63866e-06
4.70804e-06
6.02914e-06
7.64118e-06
9.58576e-06
1.19029e-05
1.46298e-05
1.77987e-05
2.14337e-05
2.55487e-05
3.01442e-05
3.52047e-05
4.0697e-05
4.65679e-05
5.27444e-05
5.9133e-05
6.56218e-05
7.20826e-05
7.83751e-05
8.4351e-05
8.98603e-05
9.47567e-05
9.89047e-05
0.000102185
0.000104502
0.000105785
0.000105996
0.000105129
0.000103208
0.000100293
9.64701e-05
9.18494e-05
8.65612e-05
8.07481e-05
7.45596e-05
6.81453e-05
6.16496e-05
5.52059e-05
4.89331e-05
4.29321e-05
3.72847e-05
3.20523e-05
2.72766e-05
2.29801e-05
1.91656e-05
1.58111e-05
1.28561e-05
1.01713e-05
7.5231e-06
4.60638e-06
1.17229e-06
6.20172e-17
2.10646e-16
4.53935e-16
9.69293e-16
2.04261e-15
4.24943e-15
8.73013e-15
1.77159e-14
3.55183e-14
7.03671e-14
1.37781e-13
2.66668e-13
5.10239e-13
9.65262e-13
1.80564e-12
3.34017e-12
6.11074e-12
1.10571e-11
1.97895e-11
3.50352e-11
6.13581e-11
1.06306e-10
1.82215e-10
3.09007e-10
5.18471e-10
8.60732e-10
1.41388e-09
2.29812e-09
3.69622e-09
5.88273e-09
9.26502e-09
1.44401e-08
2.22718e-08
3.39948e-08
5.13508e-08
7.67659e-08
1.13574e-07
1.66299e-07
2.40991e-07
3.45635e-07
4.90621e-07
6.89266e-07
9.58388e-07
1.31889e-06
1.79631e-06
2.42135e-06
3.23018e-06
4.26481e-06
5.57349e-06
7.21154e-06
9.23529e-06
1.17049e-05
1.4684e-05
1.8234e-05
2.2412e-05
2.72672e-05
3.28369e-05
3.91423e-05
4.61842e-05
5.39392e-05
6.23561e-05
7.13539e-05
8.08204e-05
9.06127e-05
0.000100559
0.000110464
0.000120111
0.000129274
0.000137722
0.000145233
0.000151596
0.000156631
0.000160189
0.000162164
0.000162495
0.000161172
0.000158236
0.000153774
0.00014792
0.000140843
0.000132742
0.000123835
0.000114351
0.00010452
9.45634e-05
8.46854e-05
7.50682e-05
6.5867e-05
5.72069e-05
4.91821e-05
4.18569e-05
3.52662e-05
2.94156e-05
2.42745e-05
1.97548e-05
1.56643e-05
1.16429e-05
7.19681e-06
1.89256e-06
9.90683e-17
3.27891e-16
7.04701e-16
1.50094e-15
3.15588e-15
6.55254e-15
1.34381e-14
2.72274e-14
5.4512e-14
1.07863e-13
2.10964e-13
4.07904e-13
7.79779e-13
1.47398e-12
2.75526e-12
5.09348e-12
9.31287e-12
1.68421e-11
3.01287e-11
5.33162e-11
9.3337e-11
1.61653e-10
2.76993e-10
4.69594e-10
7.87702e-10
1.30738e-09
2.14709e-09
3.48918e-09
5.61087e-09
8.92855e-09
1.406e-08
2.19104e-08
3.37898e-08
5.15699e-08
7.78917e-08
1.16433e-07
1.72249e-07
2.52195e-07
3.65446e-07
5.24107e-07
7.43927e-07
1.0451e-06
1.45311e-06
1.99967e-06
2.72351e-06
3.67117e-06
4.89754e-06
6.46633e-06
8.45067e-06
1.09344e-05
1.4003e-05
1.7748e-05
2.22657e-05
2.76494e-05
3.39856e-05
4.1349e-05
4.97964e-05
5.936e-05
7.00411e-05
8.18042e-05
9.4572e-05
0.000108222
0.000122583
0.000137439
0.000152531
0.000167559
0.000182199
0.000196105
0.000208928
0.000220329
0.000229992
0.00023764
0.000243047
0.000246053
0.000246565
0.000244569
0.000240124
0.000233365
0.000224491
0.000213761
0.000201476
0.000187967
0.000173581
0.000158668
0.000143562
0.000128573
0.000113979
0.000100015
8.6871e-05
7.46899e-05
6.35693e-05
5.3563e-05
4.46812e-05
3.68817e-05
3.00386e-05
2.38694e-05
1.78271e-05
1.11236e-05
3.01951e-06
1.561e-16
5.0449e-16
1.08155e-15
2.29814e-15
4.82202e-15
9.99342e-15
2.04612e-14
4.13963e-14
8.27713e-14
1.63588e-13
3.19617e-13
6.17403e-13
1.17927e-12
2.22741e-12
4.16071e-12
7.68683e-12
1.40465e-11
2.53898e-11
4.53983e-11
8.03036e-11
1.40528e-10
2.433e-10
4.16764e-10
7.06351e-10
1.18453e-09
1.96555e-09
3.22732e-09
5.24362e-09
8.43069e-09
1.34136e-08
2.11198e-08
3.29079e-08
5.07441e-08
7.74378e-08
1.16952e-07
1.74807e-07
2.58587e-07
3.78583e-07
5.4856e-07
7.86684e-07
1.11659e-06
1.56857e-06
2.18091e-06
3.00116e-06
4.08747e-06
5.50973e-06
7.35035e-06
9.70496e-06
1.26833e-05
1.6411e-05
2.1017e-05
2.66383e-05
3.34198e-05
4.15013e-05
5.1013e-05
6.20672e-05
7.4749e-05
8.91069e-05
0.000105143
0.000122805
0.000141975
0.000162471
0.000184036
0.000206346
0.00022901
0.000251582
0.00027357
0.000294459
0.000313724
0.000330854
0.000345375
0.000356872
0.000365006
0.000369533
0.000370317
0.000367332
0.000360671
0.000350533
0.000337219
0.000321116
0.000302674
0.000282393
0.000260795
0.0002384
0.000215715
0.000193204
0.000171284
0.000150308
0.000130562
0.000112261
9.55514e-05
8.05148e-05
6.7169e-05
5.54566e-05
4.51998e-05
3.59895e-05
2.70057e-05
1.70093e-05
4.76157e-06
2.42586e-16
7.67119e-16
1.64085e-15
3.47897e-15
7.28559e-15
1.50732e-14
3.08147e-14
6.2258e-14
1.24332e-13
2.45457e-13
4.791e-13
9.24652e-13
1.76471e-12
3.33077e-12
6.21766e-12
1.14802e-11
2.0967e-11
3.78803e-11
6.77022e-11
1.19708e-10
2.09408e-10
3.62434e-10
6.20648e-10
1.05162e-09
1.7631e-09
2.92494e-09
4.8016e-09
7.80003e-09
1.25388e-08
1.99468e-08
3.14021e-08
4.89234e-08
7.54319e-08
1.15101e-07
1.7382e-07
2.59786e-07
3.84268e-07
5.62552e-07
8.15084e-07
1.16885e-06
1.65896e-06
2.33041e-06
3.24007e-06
4.4586e-06
6.0724e-06
8.18531e-06
1.09198e-05
1.44181e-05
1.88431e-05
2.43813e-05
3.12245e-05
3.95768e-05
4.96531e-05
6.16614e-05
7.57951e-05
9.22213e-05
0.000111067
0.000132404
0.000156235
0.000182483
0.000210975
0.000241437
0.00027349
0.000306652
0.000340342
0.000373896
0.000406587
0.000437645
0.00046629
0.000491765
0.000513364
0.00053047
0.000542578
0.000549326
0.000550509
0.000546092
0.000536209
0.000521156
0.000501382
0.000477458
0.000450057
0.000419919
0.000387819
0.000354534
0.000320813
0.000287349
0.000254761
0.000223575
0.000194214
0.000166999
0.000142148
0.000119784
9.99353e-05
8.2525e-05
6.7306e-05
5.36937e-05
4.04759e-05
2.57316e-05
7.42233e-06
3.71883e-16
1.15283e-15
2.46076e-15
5.20696e-15
1.0885e-14
2.24843e-14
4.59006e-14
9.262e-14
1.84755e-13
3.64372e-13
7.1055e-13
1.3702e-12
2.61307e-12
4.92863e-12
9.19475e-12
1.69675e-11
3.09731e-11
5.59322e-11
9.99237e-11
1.76613e-10
3.08847e-10
5.3437e-10
9.14819e-10
1.54965e-09
2.59748e-09
4.30823e-09
7.07106e-09
1.14847e-08
1.84591e-08
2.93607e-08
4.62162e-08
7.1995e-08
1.10993e-07
1.69348e-07
2.55719e-07
3.82161e-07
5.65246e-07
8.27448e-07
1.19883e-06
1.71908e-06
2.43981e-06
3.42721e-06
4.76487e-06
6.55673e-06
8.92987e-06
1.2037e-05
1.60584e-05
2.12032e-05
2.77108e-05
3.58553e-05
4.59196e-05
5.82037e-05
7.30238e-05
9.06857e-05
0.000111474
0.000135635
0.000163356
0.000194742
0.000229798
0.000268411
0.000310325
0.00035514
0.000402298
0.000451088
0.000500658
0.000550032
0.000598136
0.000643842
0.000686002
0.0007235
0.000755298
0.000780487
0.000798324
0.000808278
0.000810044
0.00080357
0.000789053
0.000766929
0.000737854
0.000702673
0.000662372
0.00061804
0.000570818
0.000521849
0.000472235
0.000422996
0.000375042
0.000329147
0.000285935
0.000245879
0.000209299
0.000176376
0.000147157
0.000121539
9.91835e-05
7.92669e-05
6.00218e-05
3.85119e-05
1.1438e-05
5.62542e-16
1.71235e-15
3.64819e-15
7.70547e-15
1.60818e-14
3.31706e-14
6.76276e-14
1.36302e-13
2.71602e-13
5.3514e-13
1.04266e-12
2.00906e-12
3.82871e-12
7.21689e-12
1.34559e-11
2.48176e-11
4.52812e-11
8.17346e-11
1.45962e-10
2.57892e-10
4.50833e-10
7.79804e-10
1.33463e-09
2.26023e-09
3.78768e-09
6.28104e-09
1.03071e-08
1.67378e-08
2.68983e-08
4.27781e-08
6.73281e-08
1.04871e-07
1.61661e-07
2.46634e-07
3.72391e-07
5.56484e-07
8.23032e-07
1.20475e-06
1.74539e-06
2.50272e-06
3.55186e-06
4.98916e-06
6.93629e-06
9.54456e-06
1.2999e-05
1.7522e-05
2.3376e-05
3.08654e-05
4.0339e-05
5.21951e-05
6.68463e-05
8.47299e-05
0.000106306
0.00013202
0.000162287
0.000197464
0.000237825
0.000283524
0.000334569
0.000390793
0.000451828
0.000517088
0.000585762
0.000656816
0.000729009
0.000800919
0.000870986
0.000937562
0.000998979
0.00105361
0.00109994
0.00113665
0.00116266
0.00117719
0.0011798
0.0011704
0.00114929
0.0011171
0.00107478
0.00102357
0.000964898
0.000900351
0.000831589
0.000760278
0.000688022
0.000616308
0.000546462
0.00047961
0.000416664
0.000358308
0.000305013
0.000257041
0.000214466
0.000177154
0.000144644
0.000115795
8.80638e-05
5.7026e-05
1.7427e-05
8.39952e-16
2.51414e-15
5.34728e-15
1.12753e-14
2.3497e-14
4.84005e-14
9.85588e-14
1.98426e-13
3.95008e-13
7.77595e-13
1.51384e-12
2.91483e-12
5.55118e-12
1.04574e-11
1.9487e-11
3.59235e-11
6.5515e-11
1.18209e-10
2.11019e-10
3.7271e-10
6.51348e-10
1.12631e-09
1.92718e-09
3.26297e-09
5.4669e-09
9.06392e-09
1.48712e-08
2.41456e-08
3.87972e-08
6.16937e-08
9.70879e-08
1.51209e-07
2.3307e-07
3.55546e-07
5.36797e-07
8.02111e-07
1.18624e-06
1.73631e-06
2.51538e-06
3.60666e-06
5.1184e-06
7.18941e-06
9.995e-06
1.37532e-05
1.87307e-05
2.52479e-05
3.36833e-05
4.44755e-05
5.81271e-05
7.52112e-05
9.63238e-05
0.000122095
0.000153188
0.000190245
0.000233865
0.000284562
0.000342731
0.000408595
0.000482166
0.000563203
0.000651176
0.000745243
0.000844234
0.000946659
0.00105073
0.0011544
0.00125541
0.0013514
0.00143996
0.00151874
0.00158556
0.00163852
0.00167605
0.00169703
0.00170083
0.00168733
0.00165694
0.00161058
0.00154961
0.00147582
0.00139126
0.00129823
0.00119912
0.00109633
0.000992173
0.00088879
0.000788093
0.000691708
0.000600947
0.000516802
0.000439945
0.00037076
0.000309357
0.000255562
0.00020876
0.000167387
0.00012784
8.35425e-05
2.62536e-05
1.23832e-15
3.64927e-15
7.7495e-15
1.63156e-14
3.3954e-14
6.98539e-14
1.42086e-13
2.85771e-13
5.68365e-13
1.11793e-12
2.17478e-12
4.1846e-12
7.96447e-12
1.49951e-11
2.79286e-11
5.14611e-11
9.38115e-11
1.69198e-10
3.01935e-10
5.33118e-10
9.31404e-10
1.61016e-09
2.75439e-09
4.6625e-09
7.81014e-09
1.29465e-08
2.12378e-08
3.44776e-08
5.53911e-08
8.80696e-08
1.3858e-07
2.15809e-07
3.32613e-07
5.07356e-07
7.65941e-07
1.14443e-06
1.6924e-06
2.47706e-06
3.58834e-06
5.14491e-06
7.30116e-06
1.02551e-05
1.42567e-05
1.96169e-05
2.67163e-05
3.6012e-05
4.80439e-05
6.34379e-05
8.29107e-05
0.000107279
0.000137394
0.000174156
0.00021851
0.000271372
0.000333596
0.00040592
0.000488903
0.000582866
0.000687827
0.000803442
0.000928955
0.00106317
0.00120441
0.00135055
0.00149905
0.00164698
0.00179113
0.00192812
0.00205451
0.00216695
0.00226234
0.00233795
0.00239156
0.00242155
0.00242703
0.00240782
0.0023645
0.0022984
0.00221145
0.0021062
0.00198558
0.00185286
0.00171146
0.0015648
0.00141618
0.00126865
0.00112496
0.000987407
0.000857877
0.000737779
0.000628078
0.000529317
0.000441662
0.000364889
0.000298185
0.000239441
0.000183622
0.000121088
3.91096e-05
1.80305e-15
5.23704e-15
1.11055e-14
2.33485e-14
4.85284e-14
9.97241e-14
2.02634e-13
4.07167e-13
8.09122e-13
1.59026e-12
3.09146e-12
5.94462e-12
1.13077e-11
2.12783e-11
3.96121e-11
7.2957e-11
1.32944e-10
2.3969e-10
4.27585e-10
7.54743e-10
1.31823e-09
2.27831e-09
3.89644e-09
6.59432e-09
1.1044e-08
1.83039e-08
3.00215e-08
4.87299e-08
7.82784e-08
1.24445e-07
1.95796e-07
3.04882e-07
4.69854e-07
7.16642e-07
1.08182e-06
1.6163e-06
2.39007e-06
3.49802e-06
5.06711e-06
7.26487e-06
1.03093e-05
1.44798e-05
2.01295e-05
2.76974e-05
3.77206e-05
5.08449e-05
6.78329e-05
8.95685e-05
0.000117063
0.000151469
0.000193989
0.000245898
0.000308526
0.00038317
0.000471035
0.000573162
0.000690344
0.000823033
0.000971256
0.00113453
0.00131178
0.00150133
0.0017008
0.00190721
0.00211695
0.00232589
0.00252951
0.00272301
0.00290156
0.00306041
0.00319519
0.00330204
0.00337781
0.00342024
0.00342804
0.00340098
0.00333988
0.00324657
0.00312383
0.00297522
0.0028049
0.00261749
0.0024178
0.00221067
0.00200076
0.00179239
0.00158942
0.00139512
0.00121214
0.00104248
0.000887495
0.000747954
0.000624098
0.000515641
0.000421523
0.000338943
0.000260961
0.000173645
5.76149e-05
2.59347e-15
7.43139e-15
1.57384e-14
3.30462e-14
6.86046e-14
1.40831e-13
2.85888e-13
5.73957e-13
1.13967e-12
2.23831e-12
4.34841e-12
8.35666e-12
1.58872e-11
2.98809e-11
5.56016e-11
1.02364e-10
1.86459e-10
3.36058e-10
5.99306e-10
1.05755e-09
1.84662e-09
3.19076e-09
5.45575e-09
9.23143e-09
1.54577e-08
2.56148e-08
4.20061e-08
6.81736e-08
1.09498e-07
1.74058e-07
2.73827e-07
4.26347e-07
6.56989e-07
1.00199e-06
1.51247e-06
2.25959e-06
3.34113e-06
4.88973e-06
7.0828e-06
1.01545e-05
1.44093e-05
2.02379e-05
2.81337e-05
3.87102e-05
5.27181e-05
7.10604e-05
9.48028e-05
0.000125182
0.00016361
0.000211695
0.000271123
0.000343674
0.00043121
0.000535542
0.000658354
0.000801105
0.0009649
0.00115038
0.00135757
0.0015858
0.00183358
0.00209855
0.00237741
0.00266597
0.00295919
0.00325131
0.00353599
0.00380655
0.00405621
0.00427835
0.00446684
0.00461628
0.0047223
0.0047817
0.0047927
0.00475495
0.00466961
0.00453924
0.00436772
0.00416002
0.00392197
0.00366
0.00338085
0.00309129
0.00279783
0.00250651
0.00222273
0.00195107
0.00169522
0.00145798
0.00124125
0.0010461
0.000872877
0.000721212
0.000589743
0.000474801
0.000366963
0.000246369
8.39401e-05
3.68587e-15
1.04279e-14
2.20584e-14
4.62615e-14