# vtk DataFile Version 3.0
Malha 2D com triângulos e temperatura
ASCII
DATASET UNSTRUCTURED_GRID

POINTS 10000 double
0 0 0
10 0 0
10 10 0
0 10 0
0.10101 0 0
0.20202 0 0
0.30303 0 0
0.40404 0 0
0.505051 0 0
0.606061 0 0
0.707071 0 0
0.808081 0 0
0.909091 0 0
1.0101 0 0
1.11111 0 0
1.21212 0 0
1.31313 0 0
1.41414 0 0
1.51515 0 0
1.61616 0 0
1.71717 0 0
1.81818 0 0
1.91919 0 0
2.0202 0 0
2.12121 0 0
2.22222 0 0
2.32323 0 0
2.42424 0 0
2.52525 0 0
2.62626 0 0
2.72727 0 0
2.82828 0 0
2.92929 0 0
3.0303 0 0
3.13131 0 0
3.23232 0 0
3.33333 0 0
3.43434 0 0
3.53535 0 0
3.63636 0 0
3.73737 0 0
3.83838 0 0
3.93939 0 0
4.0404 0 0
4.14141 0 0
4.24242 0 0
4.34343 0 0
4.44444 0 0
4.54545 0 0
4.64646 0 0
4.74747 0 0
4.84848 0 0
4.94949 0 0
5.05051 0 0
5.15152 0 0
5.25253 0 0
5.35354 0 0
5.45455 0 0
5.55556 0 0
5.65657 0 0
5.75758 0 0
5.85859 0 0
5.9596 0 0
6.06061 0 0
6.16162 0 0
6.26263 0 0
6.36364 0 0
6.46465 0 0
6.56566 0 0
6.66667 0 0
6.76768 0 0
6.86869 0 0
6.9697 0 0
7.07071 0 0
7.17172 0 0
7.27273 0 0
7.37374 0 0
7.47475 0 0
7.57576 0 0
7.67677 0 0
7.77778 0 0
7.87879 0 0
7.9798 0 0
8.08081 0 0
8.18182 0 0
8.28283 0 0
8.38384 0 0
8.48485 0 0
8.58586 0 0
8.68687 0 0
8.78788 0 0
8.88889 0 0
8.9899 0 0
9.09091 0 0
9.19192 0 0
9.29293 0 0
9.39394 0 0
9.49495 0 0
9.59596 0 0
9.69697 0 0
9.79798 0 0
9.89899 0 0
10 0.10101 0
10 0.20202 0
10 0.30303 0
10 0.40404 0
10 0.505051 0
10 0.606061 0
10 0.707071 0
10 0.808081 0
10 0.909091 0
10 1.0101 0
10 1.11111 0
10 1.21212 0
10 1.31313 0
10 1.41414 0
10 1.51515 0
10 1.61616 0
10 1.71717 0
10 1.81818 0
10 1.91919 0
10 2.0202 0
10 2.12121 0
10 2.22222 0
10 2.32323 0
10 2.42424 0
10 2.52525 0
10 2.62626 0
10 2.72727 0
10 2.82828 0
10 2.92929 0
10 3.0303 0
10 3.13131 0
10 3.23232 0
10 3.33333 0
10 3.43434 0
10 3.53535 0
10 3.63636 0
10 3.73737 0
10 3.83838 0
10 3.93939 0
10 4.0404 0
10 4.14141 0
10 4.24242 0
10 4.34343 0
10 4.44444 0
10 4.54545 0
10 4.64646 0
10 4.74747 0
10 4.84848 0
10 4.94949 0
10 5.05051 0
10 5.15152 0
10 5.25253 0
10 5.35354 0
10 5.45455 0
10 5.55556 0
10 5.65657 0
10 5.75758 0
10 5.85859 0
10 5.9596 0
10 6.06061 0
10 6.16162 0
10 6.26263 0
10 6.36364 0
10 6.46465 0
10 6.56566 0
10 6.66667 0
10 6.76768 0
10 6.86869 0
10 6.9697 0
10 7.07071 0
10 7.17172 0
10 7.27273 0
10 7.37374 0
10 7.47475 0
10 7.57576 0
10 7.67677 0
10 7.77778 0
10 7.87879 0
10 7.9798 0
10 8.08081 0
10 8.18182 0
10 8.28283 0
10 8.38384 0
10 8.48485 0
10 8.58586 0
10 8.68687 0
10 8.78788 0
10 8.88889 0
10 8.9899 0
10 9.09091 0
10 9.19192 0
10 9.29293 0
10 9.39394 0
10 9.49495 0
10 9.59596 0
10 9.69697 0
10 9.79798 0
10 9.89899 0
9.89899 10 0
9.79798 10 0
9.69697 10 0
9.59596 10 0
9.49495 10 0
9.39394 10 0
9.29293 10 0
9.19192 10 0
9.09091 10 0
8.9899 10 0
8.88889 10 0
8.78788 10 0
8.68687 10 0
8.58586 10 0
8.48485 10 0
8.38384 10 0
8.28283 10 0
8.18182 10 0
8.08081 10 0
7.9798 10 0
7.87879 10 0
7.77778 10 0
7.67677 10 0
7.57576 10 0
7.47475 10 0
7.37374 10 0
7.27273 10 0
7.17172 10 0
7.07071 10 0
6.9697 10 0
6.86869 10 0
6.76768 10 0
6.66667 10 0
6.56566 10 0
6.46465 10 0
6.36364 10 0
6.26263 10 0
6.16162 10 0
6.06061 10 0
5.9596 10 0
5.85859 10 0
5.75758 10 0
5.65657 10 0
5.55556 10 0
5.45455 10 0
5.35354 10 0
5.25253 10 0
5.15152 10 0
5.05051 10 0
4.94949 10 0
4.84848 10 0
4.74747 10 0
4.64646 10 0
4.54545 10 0
4.44444 10 0
4.34343 10 0
4.24242 10 0
4.14141 10 0
4.0404 10 0
3.93939 10 0
3.83838 10 0
3.73737 10 0
3.63636 10 0
3.53535 10 0
3.43434 10 0
3.33333 10 0
3.23232 10 0
3.13131 10 0
3.0303 10 0
2.92929 10 0
2.82828 10 0
2.72727 10 0
2.62626 10 0
2.52525 10 0
2.42424 10 0
2.32323 10 0
2.22222 10 0
2.12121 10 0
2.0202 10 0
1.91919 10 0
1.81818 10 0
1.71717 10 0
1.61616 10 0
1.51515 10 0
1.41414 10 0
1.31313 10 0
1.21212 10 0
1.11111 10 0
1.0101 10 0
0.909091 10 0
0.808081 10 0
0.707071 10 0
0.606061 10 0
0.505051 10 0
0.40404 10 0
0.30303 10 0
0.20202 10 0
0.10101 10 0
0 9.89899 0
0 9.79798 0
0 9.69697 0
0 9.59596 0
0 9.49495 0
0 9.39394 0
0 9.29293 0
0 9.19192 0
0 9.09091 0
0 8.9899 0
0 8.88889 0
0 8.78788 0
0 8.68687 0
0 8.58586 0
0 8.48485 0
0 8.38384 0
0 8.28283 0
0 8.18182 0
0 8.08081 0
0 7.9798 0
0 7.87879 0
0 7.77778 0
0 7.67677 0
0 7.57576 0
0 7.47475 0
0 7.37374 0
0 7.27273 0
0 7.17172 0
0 7.07071 0
0 6.9697 0
0 6.86869 0
0 6.76768 0
0 6.66667 0
0 6.56566 0
0 6.46465 0
0 6.36364 0
0 6.26263 0
0 6.16162 0
0 6.06061 0
0 5.9596 0
0 5.85859 0
0 5.75758 0
0 5.65657 0
0 5.55556 0
0 5.45455 0
0 5.35354 0
0 5.25253 0
0 5.15152 0
0 5.05051 0
0 4.94949 0
0 4.84848 0
0 4.74747 0
0 4.64646 0
0 4.54545 0
0 4.44444 0
0 4.34343 0
0 4.24242 0
0 4.14141 0
0 4.0404 0
0 3.93939 0
0 3.83838 0
0 3.73737 0
0 3.63636 0
0 3.53535 0
0 3.43434 0
0 3.33333 0
0 3.23232 0
0 3.13131 0
0 3.0303 0
0 2.92929 0
0 2.82828 0
0 2.72727 0
0 2.62626 0
0 2.52525 0
0 2.42424 0
0 2.32323 0
0 2.22222 0
0 2.12121 0
0 2.0202 0
0 1.91919 0
0 1.81818 0
0 1.71717 0
0 1.61616 0
0 1.51515 0
0 1.41414 0
0 1.31313 0
0 1.21212 0
0 1.11111 0
0 1.0101 0
0 0.909091 0
0 0.808081 0
0 0.707071 0
0 0.606061 0
0 0.505051 0
0 0.40404 0
0 0.30303 0
0 0.20202 0
0 0.10101 0
0.10101 0.10101 0
0.10101 0.20202 0
0.10101 0.30303 0
0.10101 0.40404 0
0.10101 0.505051 0
0.10101 0.606061 0
0.10101 0.707071 0
0.10101 0.808081 0
0.10101 0.909091 0
0.10101 1.0101 0
0.10101 1.11111 0
0.10101 1.21212 0
0.10101 1.31313 0
0.10101 1.41414 0
0.10101 1.51515 0
0.10101 1.61616 0
0.10101 1.71717 0
0.10101 1.81818 0
0.10101 1.91919 0
0.10101 2.0202 0
0.10101 2.12121 0
0.10101 2.22222 0
0.10101 2.32323 0
0.10101 2.42424 0
0.10101 2.52525 0
0.10101 2.62626 0
0.10101 2.72727 0
0.10101 2.82828 0
0.10101 2.92929 0
0.10101 3.0303 0
0.10101 3.13131 0
0.10101 3.23232 0
0.10101 3.33333 0
0.10101 3.43434 0
0.10101 3.53535 0
0.10101 3.63636 0
0.10101 3.73737 0
0.10101 3.83838 0
0.10101 3.93939 0
0.10101 4.0404 0
0.10101 4.14141 0
0.10101 4.24242 0
0.10101 4.34343 0
0.10101 4.44444 0
0.10101 4.54545 0
0.10101 4.64646 0
0.10101 4.74747 0
0.10101 4.84848 0
0.10101 4.94949 0
0.10101 5.05051 0
0.10101 5.15152 0
0.10101 5.25253 0
0.10101 5.35354 0
0.10101 5.45455 0
0.10101 5.55556 0
0.10101 5.65657 0
0.10101 5.75758 0
0.10101 5.85859 0
0.10101 5.9596 0
0.10101 6.06061 0
0.10101 6.16162 0
0.10101 6.26263 0
0.10101 6.36364 0
0.10101 6.46465 0
0.10101 6.56566 0
0.10101 6.66667 0
0.10101 6.76768 0
0.10101 6.86869 0
0.10101 6.9697 0
0.10101 7.07071 0
0.10101 7.17172 0
0.10101 7.27273 0
0.10101 7.37374 0
0.10101 7.47475 0
0.10101 7.57576 0
0.10101 7.67677 0
0.10101 7.77778 0
0.10101 7.87879 0
0.10101 7.9798 0
0.10101 8.08081 0
0.10101 8.18182 0
0.10101 8.28283 0
0.10101 8.38384 0
0.10101 8.48485 0
0.10101 8.58586 0
0.10101 8.68687 0
0.10101 8.78788 0
0.10101 8.88889 0
0.10101 8.9899 0
0.10101 9.09091 0
0.10101 9.19192 0
0.10101 9.29293 0
0.10101 9.39394 0
0.10101 9.49495 0
0.10101 9.59596 0
0.10101 9.69697 0
0.10101 9.79798 0
0.10101 9.89899 0
0.20202 0.10101 0
0.20202 0.20202 0
0.20202 0.30303 0
0.20202 0.40404 0
0.20202 0.505051 0
0.20202 0.606061 0
0.20202 0.707071 0
0.20202 0.808081 0
0.20202 0.909091 0
0.20202 1.0101 0
0.20202 1.11111 0
0.20202 1.21212 0
0.20202 1.31313 0
0.20202 1.41414 0
0.20202 1.51515 0
0.20202 1.61616 0
0.20202 1.71717 0
0.20202 1.81818 0
0.20202 1.91919 0
0.20202 2.0202 0
0.20202 2.12121 0
0.20202 2.22222 0
0.20202 2.32323 0
0.20202 2.42424 0
0.20202 2.52525 0
0.20202 2.62626 0
0.20202 2.72727 0
0.20202 2.82828 0
0.20202 2.92929 0
0.20202 3.0303 0
0.20202 3.13131 0
0.20202 3.23232 0
0.20202 3.33333 0
0.20202 3.43434 0
0.20202 3.53535 0
0.20202 3.63636 0
0.20202 3.73737 0
0.20202 3.83838 0
0.20202 3.93939 0
0.20202 4.0404 0
0.20202 4.14141 0
0.20202 4.24242 0
0.20202 4.34343 0
0.20202 4.44444 0
0.20202 4.54545 0
0.20202 4.64646 0
0.20202 4.74747 0
0.20202 4.84848 0
0.20202 4.94949 0
0.20202 5.05051 0
0.20202 5.15152 0
0.20202 5.25253 0
0.20202 5.35354 0
0.20202 5.45455 0
0.20202 5.55556 0
0.20202 5.65657 0
0.20202 5.75758 0
0.20202 5.85859 0
0.20202 5.9596 0
0.20202 6.06061 0
0.20202 6.16162 0
0.20202 6.26263 0
0.20202 6.36364 0
0.20202 6.46465 0
0.20202 6.56566 0
0.20202 6.66667 0
0.20202 6.76768 0
0.20202 6.86869 0
0.20202 6.9697 0
0.20202 7.07071 0
0.20202 7.17172 0
0.20202 7.27273 0
0.20202 7.37374 0
0.20202 7.47475 0
0.20202 7.57576 0
0.20202 7.67677 0
0.20202 7.77778 0
0.20202 7.87879 0
0.20202 7.9798 0
0.20202 8.08081 0
0.20202 8.18182 0
0.20202 8.28283 0
0.20202 8.38384 0
0.20202 8.48485 0
0.20202 8.58586 0
0.20202 8.68687 0
0.20202 8.78788 0
0.20202 8.88889 0
0.20202 8.9899 0
0.20202 9.09091 0
0.20202 9.19192 0
0.20202 9.29293 0
0.20202 9.39394 0
0.20202 9.49495 0
0.20202 9.59596 0
0.20202 9.69697 0
0.20202 9.79798 0
0.20202 9.89899 0
0.30303 0.10101 0
0.30303 0.20202 0
0.30303 0.30303 0
0.30303 0.40404 0
0.30303 0.505051 0
0.30303 0.606061 0
0.30303 0.707071 0
0.30303 0.808081 0
0.30303 0.909091 0
0.30303 1.0101 0
0.30303 1.11111 0
0.30303 1.21212 0
0.30303 1.31313 0
0.30303 1.41414 0
0.30303 1.51515 0
0.30303 1.61616 0
0.30303 1.71717 0
0.30303 1.81818 0
0.30303 1.91919 0
0.30303 2.0202 0
0.30303 2.12121 0
0.30303 2.22222 0
0.30303 2.32323 0
0.30303 2.42424 0
0.30303 2.52525 0
0.30303 2.62626 0
0.30303 2.72727 0
0.30303 2.82828 0
0.30303 2.92929 0
0.30303 3.0303 0
0.30303 3.13131 0
0.30303 3.23232 0
0.30303 3.33333 0
0.30303 3.43434 0
0.30303 3.53535 0
0.30303 3.63636 0
0.30303 3.73737 0
0.30303 3.83838 0
0.30303 3.93939 0
0.30303 4.0404 0
0.30303 4.14141 0
0.30303 4.24242 0
0.30303 4.34343 0
0.30303 4.44444 0
0.30303 4.54545 0
0.30303 4.64646 0
0.30303 4.74747 0
0.30303 4.84848 0
0.30303 4.94949 0
0.30303 5.05051 0
0.30303 5.15152 0
0.30303 5.25253 0
0.30303 5.35354 0
0.30303 5.45455 0
0.30303 5.55556 0
0.30303 5.65657 0
0.30303 5.75758 0
0.30303 5.85859 0
0.30303 5.9596 0
0.30303 6.06061 0
0.30303 6.16162 0
0.30303 6.26263 0
0.30303 6.36364 0
0.30303 6.46465 0
0.30303 6.56566 0
0.30303 6.66667 0
0.30303 6.76768 0
0.30303 6.86869 0
0.30303 6.9697 0
0.30303 7.07071 0
0.30303 7.17172 0
0.30303 7.27273 0
0.30303 7.37374 0
0.30303 7.47475 0
0.30303 7.57576 0
0.30303 7.67677 0
0.30303 7.77778 0
0.30303 7.87879 0
0.30303 7.9798 0
0.30303 8.08081 0
[...]
CELL_DATA 9801
SCALARS Temperatura double 1
LOOKUP_TABLE default
-2.86945e-17
-8.60073e-18
8.53671e-17
3.36489e-16
8.10204e-16
1.40503e-15
1.52938e-15
-3.81425e-16
-7.24463e-15
-2.28326e-14
-4.89056e-14
-7.79536e-14
-8.01892e-14
1.30258e-14
3.18827e-13
9.81338e-13
2.07889e-12
3.41235e-12
4.14759e-12
2.36141e-12
-5.30505e-12
-2.34483e-11
-5.64661e-11
-1.05041e-10
-1.59877e-10
-1.92772e-10
-1.46636e-10
7.16597e-11
5.89065e-10
1.546e-09
3.04862e-09
5.08675e-09
7.4171e-09
9.4214e-09
9.96214e-09
7.2709e-09
-1.08727e-09
-1.81302e-08
-4.72235e-08
-9.16864e-08
-1.54263e-07
-2.36522e-07
-3.38281e-07
-4.57184e-07
-5.88536e-07
-7.25509e-07
-8.59744e-07
-9.82299e-07
-1.08473e-06
-1.15999e-06
-1.22129e-06
-1.31091e-06
-1.44082e-06
-1.63974e-06
-1.94233e-06
-2.38951e-06
-3.02632e-06
-3.89856e-06
-5.04793e-06
-6.50548e-06
-8.28398e-06
-1.03694e-05
-1.27126e-05
-1.52231e-05
-1.77655e-05
-2.01621e-05
-2.22018e-05
-2.36579e-05
-2.4314e-05
-2.39958e-05
-2.26063e-05
-2.01561e-05
-1.67835e-05
-1.27553e-05
-8.4431e-06
-4.27541e-06
-6.69494e-07
2.04325e-06
3.68143e-06
4.24874e-06
3.92728e-06
3.02699e-06
1.90383e-06
8.70329e-07
1.2704e-07
-2.64118e-07
-3.59273e-07
-2.78462e-07
-1.43943e-07
-3.67127e-08
1.57031e-08
2.45233e-08
1.43365e-08
3.68291e-09
-1.00374e-09
-1.30704e-09
-4.4747e-10
1.31855e-11
6.46261e-11
5.67958e-17
2.58019e-16
5.67363e-16
8.78772e-16
6.66088e-16
-1.31107e-15
-7.12596e-15
-1.89007e-14
-3.59054e-14
-4.81718e-14
-2.64573e-14
8.75684e-14
3.78892e-13
9.20828e-13
1.66737e-12
2.24778e-12
1.67552e-12
-1.91661e-12
-1.12353e-11
-2.89927e-11
-5.56459e-11
-8.51757e-11
-9.89565e-11
-5.90636e-11
9.56041e-11
4.44582e-10
1.06471e-09
1.98466e-09
3.11037e-09
4.12416e-09
4.37221e-09
2.76983e-09
-2.23353e-09
-1.25804e-08
-3.03793e-08
-5.75028e-08
-9.50212e-08
-1.42523e-07
-1.9742e-07
-2.54353e-07
-3.04835e-07
-3.37229e-07
-3.37122e-07
-2.88099e-07
-1.72846e-07
2.55153e-08
3.2199e-07
7.283e-07
1.25163e-06
1.8937e-06
2.64515e-06
3.49771e-06
4.42507e-06
5.3833e-06
6.30987e-06
7.12223e-06
7.7181e-06
7.97792e-06
7.77015e-06
6.95997e-06
5.42162e-06
3.05446e-06
-1.98006e-07
-4.32766e-06
-9.24218e-06
-1.47498e-05
-2.0553e-05
-2.62546e-05
-3.13819e-05
-3.54295e-05
-3.79201e-05
-3.84785e-05
-3.69065e-05
-3.32448e-05
-2.78044e-05
-2.11517e-05
-1.40391e-05
-7.28743e-06
-1.63845e-06
2.38852e-06
4.59655e-06
5.13552e-06
4.43825e-06
3.0844e-06
1.63462e-06
4.90274e-07
-1.75403e-07
-3.98838e-07
-3.41067e-07
-1.83044e-07
-4.91835e-08
1.6119e-08
2.64437e-08
1.43129e-08
2.85097e-09
-1.3445e-09
-1.13772e-09
-2.49401e-10
8.28883e-11
3.3985e-16
6.43636e-16
6.3494e-16
-5.05337e-16
-4.34517e-15
-1.27247e-14
-2.57353e-14
-3.68697e-14
-2.48931e-14
5.48523e-14
2.7013e-13
6.82553e-13
1.2601e-12
1.70546e-12
1.21019e-12
-1.76411e-12
-9.41957e-12
-2.38219e-11
-4.47931e-11
-6.60584e-11
-6.98512e-11
-2.15381e-11
1.32121e-10
4.55154e-10
9.97546e-10
1.7467e-09
2.55307e-09
3.03705e-09
2.49761e-09
-1.43164e-10
-6.31492e-09
-1.76492e-08
-3.56748e-08
-6.13575e-08
-9.45224e-08
-1.33234e-07
-1.73229e-07
-2.07504e-07
-2.261e-07
-2.16115e-07
-1.61859e-07
-4.50692e-08
1.54912e-07
4.61072e-07
8.98721e-07
1.49542e-06
2.28063e-06
3.28478e-06
4.53771e-06
6.06634e-06
7.88246e-06
9.98269e-06
1.23512e-05
1.49451e-05
1.76936e-05
2.04922e-05
2.32009e-05
2.56426e-05
2.76061e-05
2.88526e-05
2.91284e-05
2.81827e-05
2.57925e-05
2.1794e-05
1.61167e-05
8.81972e-06
1.2296e-07
-9.57258e-06
-1.96838e-05
-2.94713e-05
-3.80974e-05
-4.47176e-05
-4.85985e-05
-4.9247e-05
-4.65269e-05
-4.07325e-05
-3.25914e-05
-2.31786e-05
-1.37428e-05
-5.47551e-06
7.26987e-07
4.44005e-06
5.77075e-06
5.2753e-06
3.75685e-06
2.0118e-06
6.14336e-07
-1.87496e-07
-4.40971e-07
-3.60251e-07
-1.7593e-07
-3.41681e-08
2.44744e-08
2.61889e-08
1.07875e-08
5.84435e-10
-1.63541e-09
-7.253e-10
2.15512e-11
5.94531e-16
1.19263e-16
-1.91217e-15
-7.03799e-15
-1.61366e-14
-2.63896e-14
-2.54142e-14
1.62686e-14
1.48448e-13
4.25864e-13
8.50946e-13
1.24995e-12
1.08045e-12
-7.64025e-13
-5.96048e-12
-1.62156e-11
-3.16936e-11
-4.80059e-11
-5.18653e-11
-1.66505e-11
9.9092e-11
3.45145e-10
7.58713e-10
1.32344e-09
1.907e-09
2.18426e-09
1.56507e-09
-8.42597e-10
-6.19592e-09
-1.57716e-08
-3.06917e-08
-5.15289e-08
-7.78305e-08
-1.07624e-07
-1.36973e-07
-1.59621e-07
-1.66736e-07
-1.46683e-07
-8.47453e-08
3.72993e-08
2.41803e-07
5.56026e-07
1.01293e-06
1.65175e-06
2.51815e-06
3.66367e-06
5.14436e-06
7.01869e-06
9.34476e-06
1.21772e-05
1.55531e-05
1.94967e-05
2.40134e-05
2.90747e-05
3.46126e-05
4.05122e-05
4.6604e-05
5.26583e-05
5.83836e-05
6.34283e-05
6.73894e-05
6.98292e-05
7.03014e-05
6.83876e-05
6.37449e-05
5.61619e-05
4.56187e-05
3.2344e-05
1.68596e-05
-3.40436e-09
-1.71276e-05
-3.31847e-05
-4.67676e-05
-5.65738e-05
-6.16171e-05
-6.14318e-05
-5.62193e-05
-4.68877e-05
-3.49473e-05
-2.2259e-05
-1.06755e-05
-1.65893e-06
4.01641e-06
6.37944e-06
6.15054e-06
4.4379e-06
2.35241e-06
6.85598e-07
-2.35877e-07
-4.91047e-07
-3.68702e-07
-1.55951e-07
-1.36454e-08
3.17321e-08
2.34026e-08
6.44072e-09
-1.12007e-09
-1.39315e-09
-2.28073e-10
-1.21154e-16
-3.069e-15
-8.62464e-15
-1.67861e-14
-2.20317e-14
-7.89192e-15
5.82732e-14
2.21366e-13
5.09045e-13
8.54868e-13
9.61215e-13
1.2967e-13
-2.82486e-12
-9.32598e-12
-2.00725e-11
-3.29706e-11
-3.98731e-11
-2.28466e-11
4.79251e-11
2.10768e-10
4.98489e-10
9.08677e-10
1.35634e-09
1.61343e-09
1.24941e-09
-4.03148e-10
-4.22749e-09
-1.12179e-08
-2.22755e-08
-3.79109e-08
-5.78832e-08
-8.08194e-08
-1.03856e-07
-1.22316e-07
-1.29394e-07
-1.15777e-07
-6.91117e-08
2.67655e-08
1.92853e-07
4.5622e-07
8.51319e-07
1.42119e-06
2.21841e-06
3.30556e-06
4.75516e-06
6.64899e-06
9.07667e-06
1.21335e-05
1.59173e-05
2.05252e-05
2.60353e-05
3.25123e-05
3.99991e-05
4.84969e-05
5.79579e-05
6.8273e-05
7.92596e-05
9.06513e-05
0.000102089
0.000113116
0.000123182
0.000131648
0.000137815
0.000140951
0.000140348
0.000135388
0.000125629
0.000110898
9.13865e-05
6.7737e-05
4.10854e-05
1.30522e-05
-1.43482e-05
-3.88913e-05
-5.84148e-05
-7.11529e-05
-7.60754e-05
-7.31543e-05
-6.34712e-05
-4.90998e-05
-3.2746e-05
-1.72025e-05
-4.74817e-06
3.3306e-06
6.93819e-06
7.01126e-06
5.06178e-06
2.60137e-06
6.75616e-07
-3.22921e-07
-5.38578e-07
-3.57322e-07
-1.21415e-07
9.31756e-09
3.51736e-08
1.77947e-08
2.16026e-09
-1.81615e-09
-7.90673e-10
-2.97595e-15
-9.0418e-15
-1.53711e-14
-1.55099e-14
8.74782e-15
8.87793e-14
2.59017e-13
5.17946e-13
7.43257e-13
5.61878e-13
-7.72254e-13
-4.34463e-12
-1.11232e-11
-2.07375e-11
-2.9264e-11
-2.62548e-11
7.79716e-12
1.01003e-10
2.82734e-10
5.65044e-10
9.10015e-10
1.18456e-09
1.11125e-09
2.32015e-10
-2.09257e-09
-6.62538e-09
-1.41214e-08
-2.51238e-08
-3.97062e-08
-5.719e-08
-7.58632e-08
-9.2702e-08
-1.03063e-07
-1.00277e-07
-7.50534e-08
-1.46246e-08
9.84083e-08
2.87505e-07
5.83806e-07
1.02784e-06
1.67117e-06
2.5779e-06
3.82593e-06
5.50774e-06
7.73075e-06
1.06168e-05
1.43009e-05
1.89283e-05
2.46514e-05
3.16246e-05
3.99816e-05
4.9842e-05
6.13022e-05
7.44084e-05
8.91479e-05
0.000105433
0.000123083
0.000141811
0.000161206
0.000180726
0.000199686
0.00021726
0.000232496
0.000244334
0.000251659
0.00025336
0.000248431
0.000236088
0.000215907
0.000187983
0.000153063
0.000112646
6.90015e-05
2.50708e-05
-1.57769e-05
-5.01377e-05
-7.50801e-05
-8.86864e-05
-9.05054e-05
-8.17756e-05
-6.53021e-05
-4.49469e-05
-2.48116e-05
-8.31545e-06
2.54879e-06
7.52488e-06
7.8529e-06
5.57913e-06
2.70959e-06
5.62232e-07
-4.44731e-07
-5.7103e-07
-3.20027e-07
-7.50793e-08
2.96069e-08
3.28395e-08
1.04125e-08
-8.69209e-10
-1.67748e-09
-7.71349e-15
-1.30619e-14
-9.37591e-15
2.02226e-14
1.03407e-13
2.63384e-13
4.76089e-13
5.87029e-13
1.9968e-13
-1.39639e-12
-5.09886e-12
-1.14141e-11
-1.91573e-11
-2.33571e-11
-1.28409e-11
3.10671e-11
1.32134e-10
3.09629e-10
5.58391e-10
8.17715e-10
9.32873e-10
6.19412e-10
-5.53894e-10
-3.14531e-09
-7.76934e-09
-1.49708e-08
-2.50527e-08
-3.78775e-08
-5.2658e-08
-6.77403e-08
-8.03503e-08
-8.62449e-08
-7.9187e-08
-5.01659e-08
1.3691e-08
1.30529e-07
3.25475e-07
6.3258e-07
1.09695e-06
1.77699e-06
2.74665e-06
4.09759e-06
5.94113e-06
8.40969e-06
1.16574e-05
1.586e-05
2.12125e-05
2.79269e-05
3.62269e-05
4.63426e-05
5.84792e-05
7.28275e-05
8.95526e-05
0.000108759
0.00013048
0.000154659
0.000181125
0.000209578
0.000239564
0.000270465
0.000301478
0.000331608
0.000359673
0.000384307
0.000403997
0.000417128
0.000422073
0.000417311
0.000401592
0.000374132
0.000334843
0.000284556
0.000225189
0.000159832
9.26437e-05
2.8548e-05
-2.732e-05
-7.03603e-05
-9.73427e-05
-0.000107139
-0.00010113
-8.30838e-05
-5.84401e-05
-3.30928e-05
-1.20046e-05
1.91101e-06
8.23647e-06
8.65903e-06
5.92693e-06
2.62932e-06
3.37508e-07
-5.83261e-07
-5.71286e-07
-2.54458e-07
-2.42421e-08
4.14595e-08
2.46453e-08
3.39902e-09
-2.52197e-09
-1.0904e-14
-5.06961e-15
2.53723e-14
1.03748e-13
2.44471e-13
4.11029e-13
4.40466e-13
-4.7297e-14
-1.68203e-12
-5.16429e-12
-1.06526e-11
-1.6519e-11
-1.7512e-11
-2.92605e-12
4.3763e-11
1.41406e-10
3.01e-10
5.06744e-10
6.88839e-10
6.92818e-10
2.55161e-10
-1.0016e-09
-3.54152e-09
-7.84834e-09
-1.43211e-08
-2.31432e-08
-3.41375e-08
-4.66122e-08
-5.91784e-08
-6.94957e-08
-7.38778e-08
-6.66795e-08
-3.93971e-08
2.05631e-08
1.31468e-07
3.19193e-07
6.19494e-07
1.08061e-06
1.76615e-06
2.75823e-06
4.16067e-06
6.10217e-06
8.73907e-06
1.22574e-05
1.68741e-05
2.28362e-05
3.04193e-05
3.9923e-05
5.1665e-05
6.5974e-05
8.31476e-05
0.000103466
0.000127181
0.000154467
0.00018541
0.000219984
0.000258027
0.000299213
0.000343038
0.000388794
0.000435552
0.000482156
0.000527204
0.000569055
0.000605838
0.000635482
0.000655774
0.000664457
0.000659377
0.000638693
0.000601144
0.000546372
0.000475255
0.0003902
0.000295307
0.000196306
0.000100177
1.44009e-05
-5.41205e-05
-0.000100309
-0.000122055
-0.000120892
-0.000101894
-7.26472e-05
-4.14649e-05
-1.53333e-05
1.71025e-06
9.1618e-06
9.38302e-06
6.02668e-06
2.32371e-06
1.66743e-08
-7.05579e-07
-5.22895e-07
-1.66064e-07
1.98238e-08
4.10211e-08
1.32306e-08
-2.20211e-09
-6.08127e-15
2.52019e-14
9.40581e-14
2.13037e-13
3.42661e-13
3.29612e-13
-1.65825e-13
-1.67892e-12
-4.74816e-12
-9.33393e-12
-1.37066e-11
-1.29058e-11
2.61471e-12
4.68026e-11
1.3423e-10
2.70501e-10
4.35584e-10
5.61228e-10
5.07232e-10
4.49543e-11
-1.14189e-09
-3.43083e-09
-7.20603e-09
-1.278e-08
-2.03005e-08
-2.96493e-08
-4.03251e-08
-5.12822e-08
-6.06743e-08
-6.54343e-08
-6.06173e-08
-3.84433e-08
1.30126e-08
1.11522e-07
2.8283e-07
5.63247e-07
1.00273e-06
1.66843e-06
2.64875e-06
4.05766e-06
6.03923e-06
8.77194e-06
1.24726e-05
1.73991e-05
2.38523e-05
3.21749e-05
4.27494e-05
5.59918e-05
7.23444e-05
9.22654e-05
0.000116173
0.000144462
0.000177493
0.000215523
0.000258698
0.000307017
0.000360308
0.000418194
0.000480079
0.000545123
0.000612228
0.000680029
0.000746885
0.000810873
0.000869792
0.000921173
0.000962307
0.000990303
0.00100219
0.000995082
0.00096645
0.00091445
0.000838366
0.000739098
0.000619613
0.000485252
0.000343735
0.00020471
7.87542e-05
-2.41457e-05
-9.64223e-05
-0.000134647
-0.000140596
-0.000121158
-8.68481e-05
-4.91885e-05
-1.77253e-05
2.24372e-06
1.03377e-05
9.92848e-06
5.79089e-06
1.78321e-06
-3.53863e-07
-7.68876e-07
-4.18777e-07
-7.06034e-08
4.53893e-08
2.92357e-08
1.4568e-09
1.31843e-14
7.91632e-14
1.7711e-13
2.80901e-13
2.57584e-13
-1.8144e-13
-1.48101e-12
-4.06493e-12
-7.82592e-12
-1.11785e-11
-9.79222e-12
4.43054e-12
4.29615e-11
1.17139e-10
2.29835e-10
3.61515e-10
4.52041e-10
3.82385e-10
-3.70654e-11
-1.06431e-09
-3.00465e-09
-6.17069e-09
-1.08282e-08
-1.71343e-08
-2.50686e-08
-3.4344e-08
-4.42632e-08
-5.34701e-08
-5.95306e-08
-5.82724e-08
-4.28195e-08
-2.25544e-09
8.01482e-08
2.29209e-07
4.80695e-07
8.84831e-07
1.51051e-06
2.4502e-06
3.82541e-06
5.79272e-06
8.54988e-06
1.23418e-05
1.74658e-05
2.42757e-05
3.31841e-05
4.46613e-05
5.92322e-05
7.74683e-05
9.99773e-05
0.000127389
0.000160282
0.000199202
0.000244648
0.000296983
0.00035642
0.000422976
0.000496441
0.000576347
0.000661937
0.000752159
0.00084565
0.000940736
0.00103544
0.00112748
0.00121429
0.00129302
0.00136052
0.0014134
0.00144806
0.00146079
0.00144793
0.0014062
0.00133309
0.00122748
0.00109027
0.000925088
0.000738783
0.000541568
0.000346498
0.000168163
2.05668e-05
-8.54917e-05
-0.000144947
-0.000160061
-0.000140305
-0.00010018
-5.53875e-05
-1.8569e-05
3.74003e-06
1.16981e-05
1.01403e-05
5.14429e-06
1.0465e-06
-6.95784e-07
-7.34179e-07
-2.70764e-07
8.33514e-09
4.65131e-08
1.14309e-08
4.85414e-14
1.42285e-13
2.28253e-13
2.15097e-13
-1.33391e-13
-1.18235e-12
-3.28125e-12
-6.34332e-12
-9.06633e-12
-7.89873e-12
3.77521e-12
3.52643e-11
9.56425e-11
1.86929e-10
2.9286e-10
3.64458e-10
3.05764e-10
-3.51788e-11
-8.65008e-10
-2.43055e-09
-4.9923e-09
-8.79027e-09
-1.40062e-08
-2.07193e-08
-2.88393e-08
-3.79834e-08
-4.72474e-08
-5.48106e-08
-5.73059e-08
-4.8885e-08
-1.99014e-08
4.48787e-08
1.68639e-07
3.85567e-07
7.44708e-07
1.31471e-06
2.18953e-06
3.49505e-06
5.39652e-06
8.10664e-06
1.18939e-05
1.70909e-05
2.41011e-05
3.3405e-05
4.55631e-05
6.12149e-05
8.10744e-05
0.00010592
0.000136578
0.000173909
0.000218704
0.000271713
0.000333618
0.000404921
0.000485916
0.00057664
0.000676817
0.000785826
0.00090267
0.00102596
0.00115393
0.00128444
0.00141498
0.00154275
0.00166467
0.00177738
0.00187731
0.00196064
0.00202329
0.00206102
0.00206941
0.00204407
0.00198098
0.00187696
0.00173044
0.00154234
0.00131708
0.00106336
0.00079448
0.000527802
0.000283017
7.92493e-05
-6.86661e-05
-0.000153802
-0.00017942
-0.000158728
-0.000111617
-5.9089e-05
-1.73096e-05
6.26524e-06
1.30301e-05
9.82089e-06
4.06307e-06
2.18203e-07
-9.1326e-07
-5.87604e-07
-1.13452e-07
4.91925e-08
2.99511e-08
9.34209e-14
1.8482e-13
1.89381e-13
-5.86293e-14
-8.57139e-13
-2.50726e-12
-4.98695e-12
-7.32874e-12
-6.77766e-12
1.90009e-12
2.61907e-11
7.35975e-11
1.46336e-10
2.32553e-10
2.94995e-10
2.59686e-10
8.35537e-12
-6.21915e-10
-1.83031e-09
-3.8368e-09
-6.86318e-09
-1.11132e-08
-1.67469e-08
-2.38341e-08
-3.22533e-08
-4.14938e-08
-5.03012e-08
-5.61032e-08
-5.41381e-08
-3.62e-08
1.1111e-08
1.0876e-07
2.88424e-07
5.96564e-07
1.09958e-06
1.89015e-06
3.09484e-06
4.883e-06
7.4767e-06
1.11616e-05
1.62983e-05
2.33331e-05
3.28086e-05
4.53705e-05
6.17731e-05
8.28777e-05
0.000109647
0.000143133
0.000184453
0.000234769
0.000295162
0.000366653
0.000450172
0.000546408
0.000655773
0.000778324
0.000913699
0.00106107
0.00121908
0.00138589
0.00155912
0.00173593
0.00191304
0.00208685
0.00225349
0.00240887
0.00254878
0.00266889
0.00276476
0.00283179
0.0028652
0.00286006
0.0028114
0.00271454
0.00256571
0.00236289
0.00210709
0.0018037
0.00146368
0.00110417
0.000747891
0.000420963
0.000148877
-4.86764e-05
-0.000162904
-0.000199026
-0.000175676
-0.000119937
-5.93012e-05
-1.35852e-05
9.62112e-06
1.39628e-05
8.78568e-06
2.6256e-06
-5.32637e-07
-9.27709e-07
-3.60122e-07
5.91539e-09
5.48812e-08
1.33387e-13
1.71276e-13
1.53482e-14
-5.55273e-13
-1.80757e-12
-3.79376e-12
-5.87135e-12
-6.02081e-12
-2.33103e-13
1.74464e-11
5.33603e-11
1.10308e-10
1.80863e-10
2.38558e-10
2.28789e-10
6.21019e-11
-3.87764e-10
-1.28038e-09
-2.80133e-09
-5.15425e-09
-8.55365e-09
-1.32141e-08
-1.93207e-08
-2.69533e-08
-3.5924e-08
-4.54762e-08
-5.37814e-08
-5.71576e-08
-4.89134e-08
-1.76947e-08
5.48158e-08
1.97024e-07
4.51578e-07
8.8074e-07
1.57319e-06
2.65243e-06
4.2868e-06
6.70128e-06
1.01907e-05
1.51344e-05
2.2011e-05
3.14137e-05
4.40635e-05
6.08202e-05
8.26885e-05
0.000110818
0.000146496
0.000191129
0.000246217
0.00031332
0.000393901
0.000489348
0.000600922
0.000729572
0.000875875
0.00103993
0.00122128
0.00141882
0.00163075
0.00185459
0.00208714
0.00232457
0.00256253
0.00279621
0.00302056
0.00323037
0.00342045
0.00358568
0.00372108
0.00382177
0.00388287
0.0038994
0.00386623
0.00377808
0.00362984
0.00341723
0.00313793
0.00279312
0.00238939
0.00194048
0.00146827
0.00100218
0.000576281
0.000223843
-2.98698e-05
-0.00017461
-0.000219194
-0.000190068
-0.000123713
-5.51598e-05
-7.40307e-06
1.32675e-05
1.40198e-05
6.96221e-06
1.0508e-06
-1.01238e-06
-7.25929e-07
-1.28053e-07
7.38643e-08
1.50374e-13
7.37659e-14
-3.05254e-13
-1.21557e-12
-2.77301e-12
-4.61359e-12
-5.35036e-12
-2.02387e-12
1.00201e-11
3.61622e-11
7.97469e-11
1.37142e-10
1.90974e-10
2.02788e-10
1.07021e-10
-1.92137e-10
-8.20691e-10
-1.93318e-09
-3.71207e-09
-6.36937e-09
-1.01467e-08
-1.53009e-08
-2.20528e-08
-3.04624e-08
-4.01858e-08
-5.00541e-08
-5.73979e-08
-5.70207e-08
-3.96898e-08
1.00167e-08
1.1671e-07
3.18268e-07
6.71249e-07
1.25791e-06
2.1951e-06
3.64519e-06
5.8293e-06
9.04273e-06
1.36724e-05
2.02162e-05
2.93027e-05
4.17116e-05
5.83916e-05
8.04751e-05
0.000109288
0.000146349
0.000193362
0.000252194
0.000324838
0.000413374
0.000519764
0.000645881
0.000793431
0.000963715
0.00115755
0.00137511
0.00161584
0.00187832
0.00216018
0.00245813
0.0027679
0.00308437
0.00340168
0.0037134
0.00401276
0.00429292
0.00454714
0.00476905
0.00495276
0.00509287
0.00518444
0.00522276
0.00520318
0.00512082
0.00497051
0.00474704
0.00444584
0.0040644
0.00360423
0.00307345
0.00248923
0.00187933
0.00128146
0.00073948
0.000295917
-1.79364e-05
-0.00019149
-0.000239774
-0.000200296
-0.000121399
-4.61722e-05
6.67541e-07
1.63246e-05
1.27668e-05
4.50793e-06
-3.17375e-07
-1.08774e-06
-3.93387e-07
5.77776e-08
1.28491e-13
-1.17933e-13
-7.44425e-13
-1.92474e-12
-3.51119e-12
-4.62898e-12
-3.19201e-12
4.34123e-12
2.24683e-11
5.48235e-11
1.00655e-10
1.49728e-10
1.76453e-10
1.34528e-10
-4.6836e-11
-4.65016e-10
-1.24584e-09
-2.54746e-09
-4.56757e-09
-7.55107e-09
-1.17884e-08
-1.75855e-08
-2.51765e-08
-3.45379e-08
-4.50517e-08
-5.49461e-08
-6.0416e-08
-5.42956e-08
-2.41129e-08
5.06883e-08
2.02617e-07
4.81394e-07
9.60939e-07
1.74843e-06
2.9958e-06
4.91392e-06
7.78975e-06
1.20064e-05
1.80662e-05
2.66153e-05
3.84707e-05
5.46464e-05
7.63779e-05
0.000105142
0.00014267
0.00019095
0.000252216
0.000328921
0.00042369
0.000539267
0.000678267
0.000843193
0.00103633
0.00125947
0.00151374
0.00179947
0.00211601
0.00246156
0.0028331
0.00322631
0.0036356
0.00405419
0.00447426
0.00488723
0.00528404
0.0056555
0.00599268
0.00628726
0.00653182
0.00671996
0.00684639
0.00690671
0.00689713
0.00681397
0.00665332
0.00641065
0.00608106
0.00565998
0.00514483
0.00453769
0.0038486
0.00309899
0.00232393
0.00157142
0.000897222
0.000354595
-1.92363e-05
-0.000215572
-0.000259617
-0.000204101
-0.000111576
-3.25649e-05
9.36267e-06
1.77292e-05
1.0048e-05
1.8797e-06
-1.12058e-06
-7.85129e-07
-4.20851e-08
5.83751e-14
-3.94291e-13
-1.24561e-12
-2.55236e-12
-3.82942e-12
-3.69359e-12
4.49277e-13
1.22471e-11
3.53099e-11
7.08116e-11
1.13752e-10
1.48347e-10
1.43385e-10
4.83007e-11
-2.10055e-10
-7.31158e-10
-1.64708e-09
-3.13267e-09
-5.41806e-09
-8.79633e-09
-1.36117e-08
-2.02044e-08
-2.87791e-08
-3.91485e-08
-5.02897e-08
-5.96214e-08
-6.18779e-08
-4.74143e-08
2.77531e-10
1.08113e-07
3.18351e-07
6.95308e-07
1.33428e-06
2.37314e-06
4.00704e-06
6.50668e-06
1.02403e-05
1.56997e-05
2.35297e-05
3.45609e-05
4.9844e-05
7.06846e-05
9.86757e-05
0.000135724
0.00018407
0.000246288
0.000325281
0.000424238
0.000546587
0.000695916
0.000875671
0.00108917
0.00133945
0.00162893
0.00195919
0.00233079
0.002743
0.00319361
0.00367881
0.00419306
0.00472913
0.00527818
0.00582997
0.00637314
0.00689563
0.00738519
0.00782984
0.00821848
0.00854131
0.00879023
0.008959
0.0090432
0.00903995
0.00894728
0.00876353
0.0084865
0.00811303
0.00763893
0.00705989
0.00637349
0.00558255
0.00469955
0.00375131
0.00278205
0.0018525
0.00103273
0.000387988
-3.96631e-05
-0.000247334
-0.000276067
-0.000198698
-9.34551e-05
-1.56663e-05
1.67819e-05
1.65983e-05
6.23366e-06
-2.47224e-07
-1.18474e-06
-2.85334e-07
-6.16779e-14
-7.31507e-13
-1.7433e-12
-2.99126e-12
-3.63147e-12
-1.85999e-12
5.1588e-12
2.07333e-11
4.71145e-11
8.28574e-11
1.19297e-10
1.36666e-10
1.00368e-10
-4.2639e-11
-3.68316e-10
-9.82656e-10
-2.03294e-09
-3.72263e-09
-6.32517e-09
-1.01859e-08
-1.56941e-08
-2.31969e-08
-3.28171e-08
-4.41174e-08
-5.55308e-08
-6.34432e-08
-6.07694e-08
-3.48097e-08
3.58862e-08
1.85996e-07
4.69661e-07
9.68972e-07
1.80527e-06
3.15382e-06
5.26255e-06
8.47518e-06
1.32594e-05
2.02399e-05
3.02365e-05
4.43059e-05
6.37864e-05
9.0343e-05
0.00012601
0.000173226
0.00023486
0.000314219
0.000415034
0.000541419
0.000697802
0.000888831
0.00111901
0.00139267
0.00171385
0.00208574
0.00251057
0.00298918