# vtk DataFile Version 3.0
Malha 2D com triângulos e temperatura
ASCII
DATASET UNSTRUCTURED_GRID

POINTS 10000 double
0 0 0
10 0 0
10 10 0
0 10 0
0.10101 0 0
0.20202 0 0
0.30303 0 0
0.40404 0 0
0.505051 0 0
0.606061 0 0
0.707071 0 0
0.808081 0 0
0.909091 0 0
1.0101 0 0
1.11111 0 0
1.21212 0 0
1.31313 0 0
1.41414 0 0
1.51515 0 0
1.61616 0 0
1.71717 0 0
1.81818 0 0
1.91919 0 0
2.0202 0 0
2.12121 0 0
2.22222 0 0
2.32323 0 0
2.42424 0 0
2.52525 0 0
2.62626 0 0
2.72727 0 0
2.82828 0 0
2.92929 0 0
3.0303 0 0
3.13131 0 0
3.23232 0 0
3.33333 0 0
3.43434 0 0
3.53535 0 0
3.63636 0 0
3.73737 0 0
3.83838 0 0
3.93939 0 0
4.0404 0 0
4.14141 0 0
4.24242 0 0
4.34343 0 0
4.44444 0 0
4.54545 0 0
4.64646 0 0
4.74747 0 0
4.84848 0 0
4.94949 0 0
5.05051 0 0
5.15152 0 0
5.25253 0 0
5.35354 0 0
5.45455 0 0
5.55556 0 0
5.65657 0 0
5.75758 0 0
5.85859 0 0
5.9596 0 0
6.06061 0 0
6.16162 0 0
6.26263 0 0
6.36364 0 0
6.46465 0 0
6.56566 0 0
6.66667 0 0
6.76768 0 0
6.86869 0 0
6.9697 0 0
7.07071 0 0
7.17172 0 0
7.27273 0 0
7.37374 0 0
7.47475 0 0
7.57576 0 0
7.67677 0 0
7.77778 0 0
7.87879 0 0
7.9798 0 0
8.08081 0 0
8.18182 0 0
8.28283 0 0
8.38384 0 0
8.48485 0 0
8.58586 0 0
8.68687 0 0
8.78788 0 0
8.88889 0 0
8.9899 0 0
9.09091 0 0
9.19192 0 0
9.29293 0 0
9.39394 0 0
9.49495 0 0
9.59596 0 0
9.69697 0 0
9.79798 0 0
9.89899 0 0
10 0.10101 0
10 0.20202 0
10 0.30303 0
10 0.40404 0
10 0.505051 0
10 0.606061 0
10 0.707071 0
10 0.808081 0
10 0.909091 0
10 1.0101 0
10 1.11111 0
10 1.21212 0
10 1.31313 0
10 1.41414 0
10 1.51515 0
10 1.61616 0
10 1.71717 0
10 1.81818 0
10 1.91919 0
10 2.0202 0
10 2.12121 0
10 2.22222 0
10 2.32323 0
10 2.42424 0
10 2.52525 0
10 2.62626 0
10 2.72727 0
10 2.82828 0
10 2.92929 0
10 3.0303 0
10 3.13131 0
10 3.23232 0
10 3.33333 0
10 3.43434 0
10 3.53535 0
10 3.63636 0
10 3.73737 0
10 3.83838 0
10 3.93939 0
10 4.0404 0
10 4.14141 0
10 4.24242 0
10 4.34343 0
10 4.44444 0
10 4.54545 0
10 4.64646 0
10 4.74747 0
10 4.84848 0
10 4.94949 0
10 5.05051 0
10 5.15152 0
10 5.25253 0
10 5.35354 0
10 5.45455 0
10 5.55556 0
10 5.65657 0
10 5.75758 0
10 5.85859 0
10 5.9596 0
10 6.06061 0
10 6.16162 0
10 6.26263 0
10 6.36364 0
10 6.46465 0
10 6.56566 0
10 6.66667 0
10 6.76768 0
10 6.86869 0
10 6.9697 0
10 7.07071 0
10 7.17172 0
10 7.27273 0
10 7.37374 0
10 7.47475 0
10 7.57576 0
10 7.67677 0
10 7.77778 0
10 7.87879 0
10 7.9798 0
10 8.08081 0
10 8.18182 0
10 8.28283 0
10 8.38384 0
10 8.48485 0
10 8.58586 0
10 8.68687 0
10 8.78788 0
10 8.88889 0
10 8.9899 0
10 9.09091 0
10 9.19192 0
10 9.29293 0
10 9.39394 0
10 9.49495 0
10 9.59596 0
10 9.69697 0
10 9.79798 0
10 9.89899 0
9.89899 10 0
9.79798 10 0
9.69697 10 0
9.59596 10 0
9.49495 10 0
9.39394 10 0
9.29293 10 0
9.19192 10 0
9.09091 10 0
8.9899 10 0
8.88889 10 0
8.78788 10 0
8.68687 10 0
8.58586 10 0
8.48485 10 0
8.38384 10 0
8.28283 10 0
8.18182 10 0
8.08081 10 0
7.9798 10 0
7.87879 10 0
7.77778 10 0
7.67677 10 0
7.57576 10 0
7.47475 10 0
7.37374 10 0
7.27273 10 0
7.17172 10 0
7.07071 10 0
6.9697 10 0
6.86869 10 0
6.76768 10 0
6.66667 10 0
6.56566 10 0
6.46465 10 0
6.36364 10 0
6.26263 10 0
6.16162 10 0
6.06061 10 0
5.9596 10 0
5.85859 10 0
5.75758 10 0
5.65657 10 0
5.55556 10 0
5.45455 10 0
5.35354 10 0
5.25253 10 0
5.15152 10 0
5.05051 10 0
4.94949 10 0
4.84848 10 0
4.74747 10 0
4.64646 10 0
4.54545 10 0
4.44444 10 0
4.34343 10 0
4.24242 10 0
4.14141 10 0
4.0404 10 0
3.93939 10 0
3.83838 10 0
3.73737 10 0
3.63636 10 0
3.53535 10 0
3.43434 10 0
3.33333 10 0
3.23232 10 0
3.13131 10 0
3.0303 10 0
2.92929 10 0
2.82828 10 0
2.72727 10 0
2.62626 10 0
2.52525 10 0
2.42424 10 0
2.32323 10 0
2.22222 10 0
2.12121 10 0
2.0202 10 0
1.91919 10 0
1.81818 10 0
1.71717 10 0
1.61616 10 0
1.51515 10 0
1.41414 10 0
1.31313 10 0
1.21212 10 0
1.11111 10 0
1.0101 10 0
0.909091 10 0
0.808081 10 0
0.707071 10 0
0.606061 10 0
0.505051 10 0
0.40404 10 0
0.30303 10 0
0.20202 10 0
0.10101 10 0
0 9.89899 0
0 9.79798 0
0 9.69697 0
0 9.59596 0
0 9.49495 0
0 9.39394 0
0 9.29293 0
0 9.19192 0
0 9.09091 0
0 8.9899 0
0 8.88889 0
0 8.78788 0
0 8.68687 0
0 8.58586 0
0 8.48485 0
0 8.38384 0
0 8.28283 0
0 8.18182 0
0 8.08081 0
0 7.9798 0
0 7.87879 0
0 7.77778 0
0 7.67677 0
0 7.57576 0
0 7.47475 0
0 7.37374 0
0 7.27273 0
0 7.17172 0
0 7.07071 0
0 6.9697 0
0 6.86869 0
0 6.76768 0
0 6.66667 0
0 6.56566 0
0 6.46465 0
0 6.36364 0
0 6.26263 0
0 6.16162 0
0 6.06061 0
0 5.9596 0
0 5.85859 0
0 5.75758 0
0 5.65657 0
0 5.55556 0
0 5.45455 0
0 5.35354 0
0 5.25253 0
0 5.15152 0
0 5.05051 0
0 4.94949 0
0 4.84848 0
0 4.74747 0
0 4.64646 0
0 4.54545 0
0 4.44444 0
0 4.34343 0
0 4.24242 0
0 4.14141 0
0 4.0404 0
0 3.93939 0
0 3.83838 0
0 3.73737 0
0 3.63636 0
0 3.53535 0
0 3.43434 0
0 3.33333 0
0 3.23232 0
0 3.13131 0
0 3.0303 0
0 2.92929 0
0 2.82828 0
0 2.72727 0
0 2.62626 0
0 2.52525 0
0 2.42424 0
0 2.32323 0
0 2.22222 0
0 2.12121 0
0 2.0202 0
0 1.91919 0
0 1.81818 0
0 1.71717 0
0 1.61616 0
0 1.51515 0
0 1.41414 0
0 1.31313 0
0 1.21212 0
0 1.11111 0
0 1.0101 0
0 0.909091 0
0 0.808081 0
0 0.707071 0
0 0.606061 0
0 0.505051 0
0 0.40404 0
0 0.30303 0
0 0.20202 0
0 0.10101 0
0.10101 0.10101 0
0.10101 0.20202 0
0.10101 0.30303 0
0.10101 0.40404 0
0.10101 0.505051 0
0.10101 0.606061 0
0.10101 0.707071 0
0.10101 0.808081 0
0.10101 0.909091 0
0.10101 1.0101 0
0.10101 1.11111 0
0.10101 1.21212 0
0.10101 1.31313 0
0.10101 1.41414 0
0.10101 1.51515 0
0.10101 1.61616 0
0.10101 1.71717 0
0.10101 1.81818 0
0.10101 1.91919 0
0.10101 2.0202 0
0.10101 2.12121 0
0.10101 2.22222 0
0.10101 2.32323 0
0.10101 2.42424 0
0.10101 2.52525 0
0.10101 2.62626 0
0.10101 2.72727 0
0.10101 2.82828 0
0.10101 2.92929 0
0.10101 3.0303 0
0.10101 3.13131 0
0.10101 3.23232 0
0.10101 3.33333 0
0.10101 3.43434 0
0.10101 3.53535 0
0.10101 3.63636 0
0.10101 3.73737 0
0.10101 3.83838 0
0.10101 3.93939 0
0.10101 4.0404 0
0.10101 4.14141 0
0.10101 4.24242 0
0.10101 4.34343 0
0.10101 4.44444 0
0.10101 4.54545 0
0.10101 4.64646 0
0.10101 4.74747 0
0.10101 4.84848 0
0.10101 4.94949 0
0.10101 5.05051 0
0.10101 5.15152 0
0.10101 5.25253 0
0.10101 5.35354 0
0.10101 5.45455 0
0.10101 5.55556 0
0.10101 5.65657 0
0.10101 5.75758 0
0.10101 5.85859 0
0.10101 5.9596 0
0.10101 6.06061 0
0.10101 6.16162 0
0.10101 6.26263 0
0.10101 6.36364 0
0.10101 6.46465 0
0.10101 6.56566 0
0.10101 6.66667 0
0.10101 6.76768 0
0.10101 6.86869 0
0.10101 6.9697 0
0.10101 7.07071 0
0.10101 7.17172 0
0.10101 7.27273 0
0.10101 7.37374 0
0.10101 7.47475 0
0.10101 7.57576 0
0.10101 7.67677 0
0.10101 7.77778 0
0.10101 7.87879 0
0.10101 7.9798 0
0.10101 8.08081 0
0.10101 8.18182 0
0.10101 8.28283 0
0.10101 8.38384 0
0.10101 8.48485 0
0.10101 8.58586 0
0.10101 8.68687 0
0.10101 8.78788 0
0.10101 8.88889 0
0.10101 8.9899 0
0.10101 9.09091 0
0.10101 9.19192 0
0.10101 9.29293 0
0.10101 9.39394 0
0.10101 9.49495 0
0.10101 9.59596 0
0.10101 9.69697 0
0.10101 9.79798 0
0.10101 9.89899 0
0.20202 0.10101 0
0.20202 0.20202 0
0.20202 0.30303 0
0.20202 0.40404 0
0.20202 0.505051 0
0.20202 0.606061 0
0.20202 0.707071 0
0.20202 0.808081 0
0.20202 0.909091 0
0.20202 1.0101 0
0.20202 1.11111 0
0.20202 1.21212 0
0.20202 1.31313 0
0.20202 1.41414 0
0.20202 1.51515 0
0.20202 1.61616 0
0.20202 1.71717 0
0.20202 1.81818 0
0.20202 1.91919 0
0.20202 2.0202 0
0.20202 2.12121 0
0.20202 2.22222 0
0.20202 2.32323 0
0.20202 2.42424 0
0.20202 2.52525 0
0.20202 2.62626 0
0.20202 2.72727 0
0.20202 2.82828 0
0.20202 2.92929 0
0.20202 3.0303 0
0.20202 3.13131 0
0.20202 3.23232 0
0.20202 3.33333 0
0.20202 3.43434 0
0.20202 3.53535 0
0.20202 3.63636 0
0.20202 3.73737 0
0.20202 3.83838 0
0.20202 3.93939 0
0.20202 4.0404 0
0.20202 4.14141 0
0.20202 4.24242 0
0.20202 4.34343 0
0.20202 4.44444 0
0.20202 4.54545 0
0.20202 4.64646 0
0.20202 4.74747 0
0.20202 4.84848 0
0.20202 4.94949 0
0.20202 5.05051 0
0.20202 5.15152 0
0.20202 5.25253 0
0.20202 5.35354 0
0.20202 5.45455 0
0.20202 5.55556 0
0.20202 5.65657 0
0.20202 5.75758 0
0.20202 5.85859 0
0.20202 5.9596 0
0.20202 6.06061 0
0.20202 6.16162 0
0.20202 6.26263 0
0.20202 6.36364 0
0.20202 6.46465 0
0.20202 6.56566 0
0.20202 6.66667 0
0.20202 6.76768 0
0.20202 6.86869 0
0.20202 6.9697 0
0.20202 7.07071 0
0.20202 7.17172 0
0.20202 7.27273 0
0.20202 7.37374 0
0.20202 7.47475 0
0.20202 7.57576 0
0.20202 7.67677 0
0.20202 7.77778 0
0.20202 7.87879 0
0.20202 7.9798 0
0.20202 8.08081 0
0.20202 8.18182 0
0.20202 8.28283 0
0.20202 8.38384 0
0.20202 8.48485 0
0.20202 8.58586 0
0.20202 8.68687 0
0.20202 8.78788 0
0.20202 8.88889 0
0.20202 8.9899 0
0.20202 9.09091 0
0.20202 9.19192 0
0.20202 9.29293 0
0.20202 9.39394 0
0.20202 9.49495 0
0.20202 9.59596 0
0.20202 9.69697 0
0.20202 9.79798 0
0.20202 9.89899 0
0.30303 0.10101 0
0.30303 0.20202 0
0.30303 0.30303 0
0.30303 0.40404 0
0.30303 0.505051 0
0.30303 0.606061 0
0.30303 0.707071 0
0.30303 0.808081 0
0.30303 0.909091 0
0.30303 1.0101 0
0.30303 1.11111 0
0.30303 1.21212 0
0.30303 1.31313 0
0.30303 1.41414 0
0.30303 1.51515 0
0.30303 1.61616 0
0.30303 1.71717 0
0.30303 1.81818 0
0.30303 1.91919 0
0.30303 2.0202 0
0.30303 2.12121 0
0.30303 2.22222 0
0.30303 2.32323 0
0.30303 2.42424 0
0.30303 2.52525 0
0.30303 2.62626 0
0.30303 2.72727 0
0.30303 2.82828 0
0.30303 2.92929 0
0.30303 3.0303 0
0.30303 3.13131 0
0.30303 3.23232 0
0.30303 3.33333 0
0.30303 3.43434 0
0.30303 3.53535 0
0.30303 3.63636 0
0.30303 3.73737 0
0.30303 3.83838 0
0.30303 3.93939 0
0.30303 4.0404 0
0.30303 4.14141 0
0.30303 4.24242 0
0.30303 4.34343 0
0.30303 4.44444 0
0.30303 4.54545 0
0.30303 4.64646 0
0.30303 4.74747 0
0.30303 4.84848 0
0.30303 4.94949 0
0.30303 5.05051 0
0.30303 5.15152 0
0.30303 5.25253 0
0.30303 5.35354 0
0.30303 5.45455 0
0.30303 5.55556 0
0.30303 5.65657 0
0.30303 5.75758 0
0.30303 5.85859 0
0.30303 5.9596 0
0.30303 6.06061 0
0.30303 6.16162 0
0.30303 6.26263 0
0.30303 6.36364 0
0.30303 6.46465 0
0.30303 6.56566 0
0.30303 6.66667 0
0.30303 6.76768 0
0.30303 6.86869 0
0.30303 6.9697 0
0.30303 7.07071 0
0.30303 7.17172 0
0.30303 7.27273 0
0.30303 7.37374 0
0.30303 7.47475 0
0.30303 7.57576 0
0.30303 7.67677 0
0.30303 7.77778 0
0.30303 7.87879 0
0.30303 7.9798 0
0.30303 8.08081 0
[...]
CELL_DATA 9801
SCALARS Temperatura double 1
LOOKUP_TABLE default
3.89953e-10
2.89008e-10
-4.32862e-10
-2.34886e-09
-5.78737e-09
-9.93813e-09
-1.14084e-08
-2.7798e-09
2.73225e-08
9.0029e-08
1.84873e-07
2.79965e-07
2.877e-07
4.94418e-08
-6.46013e-07
-1.97824e-06
-3.92027e-06
-5.97942e-06
-6.92016e-06
-4.61397e-06
3.77173e-06
2.10235e-05
4.8444e-05
8.38257e-05
0.00011926
0.000139546
0.000122172
3.97509e-05
-0.000134641
-0.000419568
-0.000816086
-0.00129943
-0.00181406
-0.00227415
-0.00257084
-0.00258574
-0.00220904
-0.0013588
2.15349e-06
0.00185508
0.00412236
0.00667327
0.00933759
0.0119247
0.014245
0.0161308
0.0174532
0.0181346
0.0181553
0.0175556
0.0164394
0.0152154
0.0138668
0.0124445
0.0109881
0.00953607
0.00812317
0.00677942
0.00552967
0.00439315
0.00338339
0.00250822
0.00177012
0.0011666
0.000690775
0.000332112
7.71899e-05
-8.94013e-05
-0.000184134
-0.000223606
-0.00022364
-0.000198494
-0.000160217
-0.000118238
-7.91933e-05
-4.70363e-05
-2.33793e-05
-8.02594e-06
3.99928e-07
3.82927e-06
4.21916e-06
3.18795e-06
1.83957e-06
7.5862e-07
1.23601e-07
-1.29567e-07
-1.55208e-07
-9.49385e-08
-3.36031e-08
-4.56482e-10
8.16862e-09
5.6149e-09
1.68329e-09
-2.00793e-10
-4.26445e-10
-1.63291e-10
-3.40089e-13
2.16261e-11
5.36145e-12
-3.70046e-10
-2.32593e-09
-5.10306e-09
-7.81987e-09
-6.82011e-09
4.99964e-09
3.71536e-08
9.58364e-08
1.70956e-07
2.16179e-07
1.29233e-07
-2.4924e-07
-1.08885e-06
-2.44285e-06
-4.02939e-06
-4.96039e-06
-3.54242e-06
2.63318e-06
1.60433e-05
3.7824e-05
6.56271e-05
9.11794e-05
9.84761e-05
6.39221e-05
-4.02345e-05
-0.000238378
-0.000540265
-0.000927932
-0.00134412
-0.00168639
-0.00181056
-0.00154545
-0.000717999
0.000815331
0.0031373
0.00624599
0.0100444
0.0143466
0.0189
0.0234191
0.0276235
0.0312735
0.0341951
0.0362932
0.0375494
0.038009
0.0377609
0.0369144
0.0355801
0.0338549
0.0318295
0.0295816
0.0271641
0.0246411
0.0220721
0.0195127
0.0170128
0.0146158
0.0123582
0.0102687
0.00836882
0.00667261
0.00518729
0.00391363
0.0028466
0.00197609
0.00128758
0.000763082
0.000381951
0.0001219
-3.9992e-05
-0.000126226
-0.000157862
-0.000153607
-0.000129091
-9.64148e-05
-6.40277e-05
-3.69518e-05
-1.73083e-05
-5.06202e-06
1.14865e-06
3.23339e-06
3.04157e-06
1.99107e-06
9.39321e-07
2.44361e-07
-6.99927e-08
-1.32488e-07
-8.84244e-08
-3.27023e-08
-1.29019e-09
6.91663e-09
4.60494e-09
1.20077e-09
-2.57099e-10
-3.2726e-10
-9.22037e-11
1.22571e-11
1.45652e-11
-3.6284e-09
-6.87095e-09
-6.98066e-09
1.81612e-09
2.87906e-08
8.12095e-08
1.52097e-07
1.99949e-07
1.27024e-07
-2.24907e-07
-1.02872e-06
-2.3384e-06
-3.85032e-06
-4.60232e-06
-2.75757e-06
4.26046e-06
1.89478e-05
4.19605e-05
6.94776e-05
9.03145e-05
8.41006e-05
2.23602e-05
-0.000125688
-0.0003817
-0.000742031
-0.00116011
-0.0015327
-0.00169625
-0.00143829
-0.00052541
0.00125572
0.00405232
0.00790581
0.0127293
0.0183096
0.0243341
0.0304374
0.0362566
0.0414808
0.0458872
0.0493543
0.0518551
0.0534346
0.0541805
0.0541956
0.0535777
0.0524104
0.0507632
0.048697
0.0462706
0.0435372
0.040531
0.0373371
0.0340273
0.030672
0.0273357
0.0240767
0.0209451
0.0179829
0.0152233
0.0126911
0.0104026
0.00836708
0.00658646
0.00505681
0.00376883
0.00270872
0.00185889
0.0011987
0.000705248
0.000354137
0.000120361
-2.07631e-05
-9.26297e-05
-0.000116409
-0.000110236
-8.8626e-05
-6.22108e-05
-3.78377e-05
-1.90273e-05
-6.71013e-06
-1.09085e-07
2.3907e-06
2.52914e-06
1.70953e-06
8.07918e-07
2.03565e-07
-6.38038e-08
-1.10101e-07
-6.81982e-08
-2.15853e-08
1.71623e-09
5.92634e-09
3.04761e-09
4.44773e-10
-3.26895e-10
-2.01138e-10
-2.42904e-11
2.03018e-11
-7.17944e-09
-2.24886e-09
1.63793e-08
5.74473e-08
1.19967e-07
1.75351e-07
1.44661e-07
-1.13023e-07
-7.69832e-07
-1.91484e-06
-3.32811e-06
-4.17087e-06
-2.72828e-06
3.5191e-06
1.71179e-05
3.88342e-05
6.48189e-05
8.33963e-05
7.29765e-05
3.29809e-06
-0.000157721
-0.000430281
-0.000803186
-0.00121262
-0.00152613
-0.00153976
-0.000994574
0.000385989
0.00284347
0.00652807
0.011454
0.0174802
0.0243237
0.0316038
0.0389055
0.0458457
0.0521252
0.0575553
0.0620556
0.0656305
0.0683328
0.0702304
0.0713817
0.0718262
0.0715869
0.0706804
0.0691288
0.066968
0.0642515
0.0610501
0.0574437
0.0535293
0.049399
0.0451414
0.040841
0.0365753
0.0324135
0.0284151
0.0246287
0.0210928
0.017835
0.0148733
0.0122169
0.00986736
0.00781934
0.00606221
0.00458083
0.00335646
0.00236758
0.00159044
0.000999726
0.000569073
0.000271743
8.13583e-05
-2.72626e-05
-7.72088e-05
-8.86299e-05
-7.80498e-05
-5.79663e-05
-3.68268e-05
-1.94016e-05
-7.49776e-06
-8.79556e-07
1.78164e-06
2.10177e-06
1.44215e-06
6.67091e-07
1.51724e-07
-6.44341e-08
-9.13732e-08
-5.04064e-08
-1.23357e-08
3.62214e-09
4.68823e-09
1.74634e-09
-1.45157e-11
-2.79858e-10
-9.28351e-11
1.50577e-11
1.38813e-09
3.31467e-08
8.27171e-08
1.409e-07
1.54411e-07
1.20227e-08
-4.46056e-07
-1.35023e-06
-2.61624e-06
-3.65341e-06
-3.06354e-06
1.42543e-06
1.2408e-05
3.12322e-05
5.52704e-05
7.45143e-05
6.89167e-05
8.83032e-06
-0.000138756
-0.000396324
-0.000754792
-0.00114941
-0.00144019
-0.00140642
-0.000763028
0.000798604
0.00355117
0.00766718
0.0131683
0.0199048
0.0275737
0.035772
0.0440699
0.0520837
0.0595269
0.0662298
0.0721263
0.0772191
0.0815381
0.0851069
0.0879251
0.0899685
0.0912007
0.0915894
0.0911206
0.0898058
0.0876842
0.0848189
0.081292
0.0771993
0.0726393
0.0677186
0.0625508
0.0572424
0.0518954
0.0466031
0.0414484
0.0365017
0.0318204
0.0274485
0.0234171
0.0197449
0.0164404
0.0135023
0.0109221
0.0086851
0.00677237
0.00516167
0.00382864
0.00274748
0.00189151
0.00123347
0.000745848
0.00040119
0.00017255
3.41082e-05
-3.80702e-05
-6.52116e-05
-6.50856e-05
-5.14819e-05
-3.4048e-05
-1.85515e-05
-7.5376e-06
-1.25458e-06
1.34517e-06
1.72946e-06
1.18221e-06
5.22487e-07
9.74548e-08
-6.55841e-08
-7.35071e-08
-3.4556e-08
-5.18361e-09
4.31691e-09
3.27749e-09
7.61628e-10
-2.09903e-10
-1.74883e-10
-1.23725e-11
3.89443e-08
9.97422e-08
1.40435e-07
9.67597e-08
-1.62923e-07
-7.88559e-07
-1.8227e-06
-2.95882e-06
-3.22805e-06
-7.90073e-07
6.83288e-06
2.16411e-05
4.28459e-05
6.35412e-05
6.74444e-05
2.78841e-05
-8.80369e-05
-0.000307507
-0.000631685
-0.00101001
-0.00131643
-0.00133773
-0.000784052
0.000673613
0.00334279
0.00743944
0.0130287
0.0199962
0.0280624
0.0368361
0.0458923
0.0548508
0.0634298
0.0714649
0.0788904
0.0856991
0.0918962
0.0974656
0.102356
0.106485
0.109758
0.112089
0.113411
0.113691
0.112926
0.111147
0.108406
0.104782
0.100371
0.0952874
0.0896467
0.0835785
0.0772211
0.0707042
0.0641517
0.0576772
0.051381
0.0453482
0.0396473
0.0343303
0.0294327
0.0249748
0.0209636
0.0173945
0.0142536
0.0115198
0.0091675
0.00716761
0.00548974
0.00410306
0.00297708
0.00208203
0.00138896
0.000869679
0.000496758
0.00024358
8.46637e-05
-3.79428e-06
-4.31936e-05
-5.17694e-05
-4.39744e-05
-3.01833e-05
-1.68325e-05
-6.99887e-06
-1.30378e-06
1.06152e-06
1.41511e-06
9.40521e-07
3.84836e-07
4.77985e-08
-6.43319e-08
-5.62249e-08
-2.11631e-08
-3.50008e-10
3.98281e-09
1.92701e-09
1.47255e-10
-2.14735e-10
-6.79909e-11
9.85452e-08
1.23877e-07
2.05585e-08
-3.38365e-07
-1.07172e-06
-2.11125e-06
-2.92795e-06
-2.24072e-06
2.04365e-06
1.22535e-05
2.93059e-05
4.98397e-05
6.27036e-05
4.64775e-05
-2.92036e-05
-0.000195393
-0.000466679
-0.000816274
-0.00114897
-0.00128186
-0.000944211
0.000195138
0.00247279
0.00615902
0.0113893
0.018122
0.0261389
0.0350907
0.0445738
0.054214
0.0637281
0.0729485
0.0818073
0.0902926
0.0983989
0.106089
0.113278
0.119841
0.125628
0.130493
0.134309
0.136976
0.13843
0.138638
0.137602
0.135354
0.131955
0.127495
0.12209
0.115875
0.108992
0.101596
0.0938575
0.0859329
0.0779737
0.070118
0.062488
0.0551869
0.0482977
0.0418826
0.0359838
0.0306244
0.0258105
0.0215342
0.0177753
0.0145051
0.0116889
0.0092881
0.00726302
0.00557427
0.00418405
0.00305688
0.00215983
0.00146237
0.000935995
0.000553815
0.000290218
0.000120835
2.28035e-05
-2.46664e-05
-3.95673e-05
-3.64167e-05
-2.58441e-05
-1.46074e-05
-6.08241e-06
-1.12727e-06
8.90046e-07
1.15008e-06
7.22279e-07
2.61973e-07
7.88969e-09
-5.90659e-08
-3.98539e-08
-1.07183e-08
2.22825e-09
2.98271e-09
8.56325e-10
-1.2239e-10
-1.41065e-10
1.12984e-07
-5.46041e-08
-4.81883e-07
-1.25985e-06
-2.21195e-06
-2.62459e-06
-1.00722e-06
4.79927e-06
1.67258e-05
3.44072e-05
5.19969e-05
5.48265e-05
1.80833e-05
-8.93603e-05
-0.00029296
-0.000591347
-0.000928976
-0.00117047
-0.00108818
-0.000374158
0.00131805
0.00430711
0.00880971
0.0148824
0.0224014
0.0310898
0.040586
0.0505287
0.0606302
0.0707142
0.0807093
0.0906082
0.100414
0.110094
0.119558
0.128658
0.137208
0.145009
0.15187
0.157619
0.162114
0.165243
0.16693
0.167132
0.165843
0.163099
0.15897
0.153564
0.14702
0.1395
0.131179
0.122244
0.112899
0.103336
0.0937372
0.0842701
0.0750824
0.066299
0.0580202
0.050321
0.0432519
0.0368405
0.0310932
0.0259991
0.0215321
0.0176554
0.014324
0.0114883
0.00909712
0.00709952
0.00544714
0.00409523
0.00300339
0.00213562
0.00145997
0.000947866
0.000573312
0.000312162
0.000141704
4.06138e-05
-1.068e-05
-2.93509e-05
-2.94694e-05
-2.14954e-05
-1.21815e-05
-4.97339e-06
-8.25123e-07
7.86529e-07
9.22467e-07
5.29953e-07
1.5915e-07
-1.94525e-08
-4.971e-08
-2.52291e-08
-3.5127e-09
2.9341e-09
1.76926e-09
1.91801e-10
-1.93152e-10
-4.48483e-08
-5.79535e-07
-1.3484e-06
-2.16741e-06
-2.19312e-06
1.68876e-07
7.00651e-06
1.9753e-05
3.68408e-05
5.04081e-05
4.33449e-05
-1.07993e-05
-0.000141754
-0.000367636
-0.000671239
-0.00097208
-0.00110374
-0.000808721
0.000239113
0.00238257
0.00590959
0.0109831
0.0175973
0.0255783
0.034633
0.0444287
0.0546756
0.0651829
0.0758707
0.0867397
0.0978171
0.109101
0.120528
0.131959
0.1432
0.15402
0.164178
0.173439
0.181582
0.188411
0.193756
0.197478
0.199479
0.199704
0.198144
0.194839
0.189875
0.183381
0.175524
0.166502
0.156524
0.145817
0.134625
0.123178
0.111693
0.100372
0.0893905
0.0788988
0.0690166
0.0598336
0.0514103
0.0437795
0.0369491
0.0309055
0.0256174
0.0210395
0.0171169
0.0137883
0.0109898
0.00865767
0.00673072
0.00515227
0.00387126
0.00284286
0.0020284
0.00139484
0.000913765
0.000560331
0.000312146
0.00014849
4.99648e-05
-1.36579e-06
-2.14375e-05
-2.34801e-05
-1.74388e-05
-9.78243e-06
-3.82289e-06
-4.83472e-07
7.12263e-07
7.21934e-07
3.65214e-07
7.94421e-08
-3.36803e-08
-3.75054e-08
-1.33593e-08
5.40388e-10
2.40965e-09
7.45322e-10
-1.57438e-10
-4.82126e-07
-1.36179e-06
-2.03476e-06
-1.76273e-06
1.07599e-06
8.42482e-06
2.12515e-05
3.70627e-05
4.66511e-05
3.15895e-05
-3.48038e-05
-0.000179727
-0.000414106
-0.000707644
-0.000961499
-0.000989109
-0.000517408
0.000783072
0.00324037
0.00710918
0.0125081
0.0193904
0.0275626
0.0367462
0.0466615
0.0571007
0.067965
0.0792554
0.0910259
0.103324
0.11614
0.129384
0.142889
0.156427
0.169737
0.182542
0.194562
0.205524
0.215171
0.223264
0.229595
0.233996
0.236348
0.236586
0.234699
0.230739
0.22481
0.217067
0.207711
0.196977
0.185117
0.172401
0.159117
0.145538
0.131922
0.118506
0.105499
0.0930771
0.0813817
0.0705189
0.0605599
0.0515435
0.043479
0.0363506
0.0301214
0.024738
0.0201352
0.0162401
0.012976
0.0102657
0.0080347
0.00621295
0.0047369
0.00355043
0.00260528
0.00186081
0.00128336
0.000845022
0.000522309
0.00029475
0.000143795
5.21698e-05
3.81073e-06
-1.57192e-05
-1.85408e-05
-1.38316e-05
-7.55986e-06
-2.74158e-06
-1.67303e-07
6.39321e-07
5.42484e-07
2.29742e-07
2.38024e-08
-3.63406e-08
-2.45407e-08
-5.0046e-09
1.99311e-09
1.39407e-09
4.07421e-11
-1.13827e-06
-1.88014e-06
-1.41606e-06
1.61477e-06
9.01236e-06
2.1397e-05
3.57239e-05
4.21536e-05
2.19346e-05
-5.08956e-05
-0.000200776
-0.000432922
-0.000708176
-0.000916953
-0.000863199
-0.000270248
0.00118447
0.00380945
0.00782981
0.013333
0.020252
0.0283967
0.0375227
0.0474131
0.0579407
0.0690883
0.0809228
0.0935398
0.107003
0.121303
0.136337
0.151923
0.16782
0.183744
0.19939
0.214439
0.228567
0.24145
0.252779
0.26227
0.269676
0.274802
0.277508
0.277721
0.275435
0.270713
0.26368
0.254523
0.243478
0.230825
0.216859
0.201903
0.186291
0.170341
0.154358
0.138618
0.123364
0.108802
0.0950965
0.082371
0.0707079
0.0601521
0.050714
0.0423751
0.0350922
0.0288033
0.0234325
0.0188949
0.0151007
0.0119597
0.00938346
0.00728877
0.00559903
0.0042458
0.00316957
0.00231997
0.00165544
0.00114233
0.000753636
0.000467439
0.000265289
0.000130856
4.90498e-05
5.76116e-06
-1.18261e-05
-1.45726e-05
-1.07247e-05
-5.59979e-06
-1.80162e-06
8.1507e-08
5.52505e-07
3.83079e-07
1.25003e-07
-9.07584e-09
-3.06571e-08
-1.30814e-08
-3.07515e-10
1.77593e-09
4.37582e-10
-1.65614e-06
-1.20319e-06
1.78324e-06
8.85924e-06
2.04739e-05
3.34165e-05
3.78679e-05
1.55484e-05
-5.82313e-05
-0.000205517
-0.000427958
-0.000682223
-0.000855377
-0.000751181
-9.86092e-05
0.00141165
0.00406781
0.00807191
0.0134933
0.0202612
0.0282039
0.0371203
0.0468569
0.0573594
0.0686795
0.0809391
0.09427
0.108755
0.124393
0.141086
0.158654
0.176854
0.195397
0.213958
0.232186
0.249709
0.266147
0.281118
0.29426
0.305242
0.313782
0.319653
0.322702
0.322847
0.320085
0.314494
0.306223
0.295493
0.28258
0.267809
0.251529
0.234113
0.215947
0.197403
0.178831
0.160552
0.142846
0.125951
0.110055
0.0953012
0.0817826
0.0695503
0.0586157
0.0489564
0.0405222
0.0332412
0.0270256
0.0217776
0.0173941
0.0137708
0.0108061
0.00840339
0.00647328
0.00493516
0.003718
0.00276085
0.00201279
0.00143244
0.000986952
0.000650673
0.000403455
0.000228921
0.000112931
4.25255e-05
5.51708e-06
-9.27945e-06
-1.14099e-05
-8.10533e-06
-3.94226e-06
-1.04262e-06
2.42878e-07
4.48693e-07
2.46582e-07
5.13299e-08
-2.28001e-08
-2.07886e-08
-4.83288e-09
1.35668e-09
9.69008e-10
-1.39304e-06
1.64171e-06
8.12564e-06
1.87762e-05
3.05601e-05
3.42171e-05
1.25394e-05
-5.75956e-05
-0.000196455
-0.00040436
-0.000638167
-0.000788033
-0.000665078
-1.06974e-05
0.00146747
0.00403867
0.00788871
0.0130796
0.0195486
0.0271505
0.0357293
0.0451895
0.0555388
0.0668864
0.0794005
0.0932468
0.108533
0.125277
0.1434
0.16274
0.183069
0.204102
0.22551
0.246923
0.267934
0.288111
0.307011
0.324195
0.339247
0.351792
0.361508
0.368142
0.371519
0.371554
0.368246
0.361688
0.352058
0.339608
0.324661
0.307592
0.288804
0.268728
0.247805
0.226462
0.205101
0.184089
0.163746
0.144344
0.126097
0.109167
0.0936598
0.0796321
0.0670956
0.0560234
0.0463568
0.0380128
0.0308906
0.0248781
0.0198574
0.0157097
0.0123193
0.00957614
0.00737838
0.00563358
0.00425969
0.00318544
0.00235041
0.00170469
0.00120821
0.000829707
0.000545324
0.000336879
0.000190078
9.28806e-05
3.43276e-05
4.04007e-06
-7.60868e-06
-8.86839e-06
-5.93218e-06
-2.59763e-06
-4.78183e-07
3.15431e-07
3.34329e-07
1.37526e-07
6.83082e-09
-2.29045e-08
-1.07954e-08
-3.69979e-10
1.42297e-09
3.59282e-07
7.03555e-06
1.65623e-05
2.7399e-05
3.12052e-05
1.22838e-05
-5.07536e-05
-0.000176986
-0.000367306
-0.000582341
-0.000720454
-0.000605895
2.67898e-06
0.00137856
0.00377394
0.00736415
0.0122119
0.0182694
0.0254212
0.0335532
0.0426193
0.0526776
0.0638833
0.0764441
0.090559
0.106366
0.123912
0.143152
0.163953
0.186116
0.209379
0.233423
0.257873
0.282303
0.306247
0.32921
0.350687
0.370181
0.387223
0.401389
0.412318
0.419727
0.423422
0.423309
0.419393
0.411782
0.400682
0.386385
0.36926
0.349733
0.328268
0.305357
0.281501
0.257183
0.23286
0.208948
0.18581
0.163753
0.143019
0.123789
0.106182
0.0902601
0.0760351
0.0634749
0.0525115
0.0430497
0.0349741
0.028157
0.0224646
0.0177623
0.0139193
0.0108116
0.00832438
0.00635367
0.00480683
0.00360296
0.00267273
0.00195801
0.00141132
0.000994946
0.000679902
0.000444496
0.000272666
0.000152173
7.29406e-05
2.58326e-05
2.10803e-06
-6.42533e-06
-6.78866e-06
-4.15881e-06
-1.55782e-06
-1.01522e-07
3.12435e-07
2.21646e-07
5.94053e-08
-1.32774e-08
-1.58612e-08
-3.54241e-09
1.44792e-09
3.99415e-06
1.41627e-05
2.40503e-05
2.85932e-05
1.37822e-05
-3.9893e-05
-0.000150713
-0.000321473
-0.000519132
-0.000653948
-0.000567442
-3.89397e-05
0.00118446
0.00333941
0.006595
0.0110198
0.0165843
0.0232024
0.0307965
0.0393594
0.0489875
0.0598719
0.0722529
0.0863621
0.102371
0.120366
0.140341
0.162209
0.185811
0.210921
0.237248
0.264432
0.292046
0.319609
0.346592
0.372436
0.396576
0.418455
0.437547
0.453378
0.465547
0.473738
0.477737
0.47744
0.472859
0.464121
0.451459
0.435207
0.415781
0.393667
0.36939
0.343505
0.316574
0.289142
0.261722
0.234782
0.208728
0.183903
0.160578
0.138954
0.119163
0.101273
0.0852953
0.071192
0.0588852
0.0482665
0.0392053
0.0315571
0.0251711
0.0198958
0.0155843
0.0120977
0.00930769
0.00709836
0.00536656
0.00402216
0.00298765
0.00219749
0.00159736
0.00114332
0.000800846
0.000543756
0.000352818
0.000214165
0.000117541
5.46618e-05
1.80051e-05
2.69347e-07
-5.45566e-06
-5.05678e-06
-2.74513e-06
-8.02479e-07
1.1002e-07
2.57018e-07
1.24184e-07
1.22742e-08
-1.63697e-08
-7.56593e-09
6.52652e-10
9.21148e-06
2.0787e-05
2.60559e-05
1.59661e-05
-2.72062e-05
-0.000121045
-0.000270927
-0.000451625
-0.000587585
-0.00054031
-0.000112133
0.000928402
0.00280327
0.00567768
0.00962873
0.0146465
0.0206716
0.0276556
0.0356204
0.0446888
0.0550771
0.0670518
0.0808743
0.0967524
0.114814
0.135102
0.157582
0.182147
0.208622
0.236758
0.266228
0.296629
0.327482
0.358245
0.38833
0.417116
0.443972
0.46828
0.489457
0.506976
0.520392
0.529357
0.533637
0.53312
0.527824
0.517894
0.503597
0.485307
0.463494
0.438699
0.411515
0.38256
0.352461
0.321824
0.291222
0.261171
0.232125
0.204463
0.178484
0.15441
0.132386
0.112485
0.0947183
0.0790409
0.065365
0.0535685
0.0435049
0.0350127
0.027923
0.0220671
0.0172811
0.0134104
0.0103128
0.00785972
0.00593727
0.00444612
0.0033009
0.00242934
0.00177112
0.00127684
0.000906908
0.000630569
0.000424769
0.0002729
0.000163287
8.75347e-05
3.89567e-05
1.14175e-05
-1.15287e-06
-4.54219e-06
-3.60671e-06
-1.65898e-06
-3.0103e-07
1.90949e-07
1.76676e-07
5.23498e-08
-8.46071e-09
-1.09251e-08
-1.20189e-09
1.48379e-05
2.36219e-05
1.78921e-05
-1.4605e-05
-9.09617e-05
-0.000219171
-0.000382289
-0.000519959
-0.000515111
-0.000194581
0.000650678
0.00222793
0.00469939
0.00815152
0.0125933
0.0179887
0.0243118
0.0316033
0.0400016
0.0497376
0.0610969
0.0743661
0.089788
0.107534
0.1277
0.150307
0.175309
0.202593
0.231966
0.263154
0.295793
0.329434
0.363546
0.39753
0.430736
0.462478
0.492061
0.518803
0.542061
0.561257
0.575902
0.585615
0.590142
0.589365
0.58331
0.572143
0.556161
0.535784
0.511534
0.484011
0.453874
0.421808
0.388502
0.354627
0.320811
0.287625
0.255565
0.225048
0.196402
0.169868
0.145603
0.123686
0.104126
0.0868723
0.0718267
0.0588528
0.0477882
0.0384537
0.0306629
0.0242292
0.0189716
0.0147199
0.0113171
0.00862201
0.00650952
0.00487089
0.00361296
0.00265697
0.00193722
0.00139962
0.00100037
0.000704709
0.000485925
0.000324253
0.000205725
0.000120775
6.27062e-05
2.62114e-05
6.31446e-06
-2.02597e-06
-3.62552e-06
-2.41048e-06
-8.71605e-07
-1.30084e-08
1.83013e-07
9.72828e-08
1.00099e-08
-1.13865e-08
-3.97208e-09
1.89718e-05
1.92348e-05
-3.58399e-06
-6.28754e-05
-0.000169195
-0.000313452
-0.000450367
-0.000484621
-0.000268289
0.000384364
0.00166515
0.00373281
0.00668264
0.0105411
0.0152917
0.0209252
0.0274921
0.0351363
0.0440937
0.0546597
0.0671409
0.0818106
0.0988825
0.118503
0.140752
0.165649
0.193148
0.223124
0.255369
0.289581
0.325358
0.362206
0.399542
0.43671
0.472998
0.507655
0.539921
0.569051
0.594342
0.615166
0.63099
0.641404
0.646135
0.64506
0.638213
0.62578
0.608094
0.585619
0.558928
0.528681
0.495602
0.460444
0.423957
0.386874
0.34988
0.313596
0.278563
0.245232
0.213959
0.185005
0.158537
0.13464
0.113321
0.0945223
0.0781347
0.0640082
0.0519643
0.0418067
0.0333313
0.0263339
0.0206171
0.0159947
0.0122957
0.009366
0.0070693
0.00528738
0.00391917
0.00287951
0.00209754
0.00151501
0.00108459
0.000768355
0.000536568
0.000366584
0.000241896
0.000151076
8.65175e-05
4.30166e-05
1.64224e-05
2.69578e-06
-2.35913e-06
-2.71626e-06
-1.46235e-06
-3.50665e-07
1.11098e-07
1.29282e-07
3.73972e-08
-6.6939e-09
-6.96666e-09
1.94395e-05
5.17486e-06
-3.85809e-05
-0.000123456
-0.000247478
-0.000379345
-0.000444811
-0.000321179
0.000153244
0.00115358
0.0028336
0.00529588
0.00858225
0.012693
0.01763
0.0234471
0.0302843
0.0383731
0.0480102
0.0595137
0.0731816
0.0892643
0.107955
0.129392
0.153658
0.180775
0.210697
0.24329
0.278327
0.315476
0.354298
0.394256
0.434716
0.474966
0.514231
0.551698
0.586542
0.617957
0.645185
0.667546
0.684471
0.695519
0.7004
0.69899
0.69133
0.677629
0.658254
0.633712
0.604628
0.571718
0.535773
0.497609
0.458034