# vtk DataFile Version 3.0
Malha 2D com triângulos e temperatura
ASCII
DATASET UNSTRUCTURED_GRID

POINTS 944 double
0 0 0
1 0 0
1 1 0
0 1 0
0.05 0 0
0.1 0 0
0.15 0 0
0.2 0 0
0.25 0 0
0.3 0 0
0.35 0 0
0.4 0 0
0.45 0 0
0.5 0 0
0.55 0 0
0.6 0 0
0.65 0 0
0.7 0 0
0.75 0 0
0.8 0 0
0.85 0 0
0.9 0 0
0.95 0 0
1 0.05 0
1 0.1 0
1 0.15 0
1 0.2 0
1 0.25 0
1 0.3 0
1 0.35 0
1 0.4 0
1 0.45 0
1 0.5 0
1 0.55 0
1 0.6 0
1 0.65 0
1 0.7 0
1 0.75 0
1 0.8 0
1 0.85 0
1 0.9 0
1 0.95 0
0.95 1 0
0.9 1 0
0.85 1 0
0.8 1 0
0.75 1 0
0.7 1 0
0.65 1 0
0.6 1 0
0.55 1 0
0.5 1 0
0.45 1 0
0.4 1 0
0.35 1 0
0.3 1 0
0.25 1 0
0.2 1 0
0.15 1 0
0.1 1 0
0.05 1 0
0 0.95 0
0 0.9 0
0 0.85 0
0 0.8 0
0 0.75 0
0 0.7 0
0 0.65 0
0 0.6 0
0 0.55 0
0 0.5 0
0 0.45 0
0 0.4 0
0 0.35 0
0 0.3 0
0 0.25 0
0 0.2 0
0 0.15 0
0 0.1 0
0 0.05 0
0.475 0.956699 0
0.0504666 0.477188 0
0.525 0.0433013 0
0.966008 0.52345 0
0.0433013 0.675 0
0.675 0.956699 0
0.325 0.0433013 0
0.956129 0.325515 0
0.325 0.956699 0
0.0422554 0.325 0
0.962822 0.674273 0
0.675 0.0433013 0
0.825 0.956699 0
0.0444272 0.82546 0
0.0418822 0.178035 0
0.827002 0.0419101 0
0.175 0.956699 0
0.951658 0.82976 0
0.955573 0.17454 0
0.175 0.0433013 0
0.4272 0.044645 0
0.955132 0.422543 0
0.0395714 0.576095 0
0.575 0.956699 0
0.923066 0.957815 0
0.0452849 0.920409 0
0.0424082 0.0749186 0
0.923066 0.0421848 0
0.425 0.956699 0
0.45 0.913397 0
0.4 0.913397 0
0.425 0.870096 0
0.475 0.870096 0
0.45 0.826795 0
0.5 0.826795 0
0.475 0.783494 0
0.525 0.783494 0
0.5 0.740192 0
0.45 0.740192 0
0.475 0.696891 0
0.525 0.696891 0
0.5 0.65359 0
0.55 0.65359 0
0.525 0.610289 0
0.475 0.610289 0
0.5 0.566987 0
0.55 0.566987 0
0.525 0.523686 0
0.475 0.523686 0
0.5 0.480385 0
0.45 0.480385 0
0.55 0.480385 0
0.475 0.437083 0
0.425 0.437083 0
0.4 0.480385 0
0.375 0.437083 0
0.45 0.393782 0
0.35 0.480385 0
0.325 0.437083 0
0.3 0.480385 0
0.275 0.437083 0
0.3 0.393782 0
0.325 0.523686 0
0.275 0.523686 0
0.3 0.566987 0
0.25 0.566987 0
0.275 0.610289 0
0.25 0.393782 0
0.275 0.350481 0
0.575 0.696891 0
0.6 0.65359 0
0.625 0.696891 0
0.65 0.65359 0
0.675 0.696891 0
0.7 0.65359 0
0.725 0.696891 0
0.75 0.65359 0
0.725 0.610289 0
0.5 0.393782 0
0.475 0.350481 0
0.525 0.350481 0
0.5 0.30718 0
0.55 0.30718 0
0.525 0.263878 0
0.475 0.263878 0
0.575 0.263878 0
0.6 0.30718 0
0.625 0.263878 0
0.65 0.30718 0
0.675 0.263878 0
0.7 0.30718 0
0.725 0.263878 0
0.75 0.30718 0
0.725 0.350481 0
0.4 0.826795 0
0.65 0.740192 0
0.775 0.696891 0
0.75 0.740192 0
0.775 0.263878 0
0.75 0.220577 0
0.6 0.220812 0
0.775 0.610289 0
0.75 0.566987 0
0.775 0.350481 0
0.225 0.610289 0
0.25 0.65359 0
0.225 0.523686 0
0.225 0.350481 0
0.25 0.30718 0
0.3 0.30718 0
0.275 0.263878 0
0.225 0.263878 0
0.25 0.220577 0
0.3 0.220577 0
0.5 0.220577 0
0.8 0.740192 0
0.775 0.783494 0
0.2 0.393782 0
0.425 0.696891 0
0.75 0.393782 0
0.7 0.393782 0
0.2 0.220577 0
0.798092 0.221679 0
0.8 0.566987 0
0.2 0.65359 0
0.225 0.696891 0
0.8 0.393782 0
0.275 0.696891 0
0.25 0.740192 0
0.2 0.740192 0
0.225 0.783494 0
0.7 0.566987 0
0.45 0.220577 0
0.55 0.826795 0
0.225 0.177276 0
0.774682 0.177459 0
0.724947 0.177306 0
0.473033 0.178411 0
0.424672 0.177465 0
0.825 0.610289 0
0.17572 0.264294 0
0.823938 0.264491 0
0.175 0.177276 0
0.818392 0.174923 0
0.174678 0.783308 0
0.824359 0.783124 0
0.175 0.610289 0
0.199946 0.826764 0
0.249991 0.82679 0
0.35 0.566987 0
0.3 0.740192 0
0.425 0.350481 0
0.725 0.523686 0
0.675 0.523686 0
0.799893 0.826733 0
0.749982 0.826785 0
0.749938 0.13401 0
0.15 0.740192 0
0.85 0.740192 0
0.85 0.566987 0
0.825 0.523686 0
0.149616 0.826573 0
0.849234 0.828258 0
0.22499 0.87009 0
0.325 0.696891 0
0.625 0.350481 0
0.425 0.263878 0
0.4 0.740192 0
0.825 0.350481 0
0.85 0.393782 0
0.625 0.610289 0
0.55 0.393782 0
0.149955 0.653616 0
0.525 0.177276 0
0.175 0.350481 0
0.15 0.393782 0
0.175 0.437083 0
0.775 0.437083 0
0.274997 0.870094 0
0.299998 0.826794 0
0.774979 0.870084 0
0.724994 0.870092 0
0.699996 0.826793 0
0.674998 0.870095 0
0.649999 0.826794 0
0.625 0.870096 0
0.699981 0.134221 0
0.875 0.610289 0
0.441517 0.135553 0
0.4 0.133975 0
0.2 0.13421 0
0.15 0.134249 0
0.25 0.134014 0
0.126268 0.437816 0
0.150211 0.480507 0
0.0929721 0.396222 0
0.126174 0.609611 0
0.150196 0.566874 0
0.575 0.783494 0
0.85 0.65359 0
0.674988 0.177322 0
0.654359 0.13061 0
0.374945 0.177307 0
0.349991 0.134215 0
0.7 0.480385 0
0.65 0.480385 0
0.625 0.523686 0
0.249998 0.913396 0
0.324999 0.870096 0
0.749995 0.913395 0
0.873737 0.350618 0
0.121917 0.179959 0
0.873491 0.522815 0
0.849748 0.48024 0
0.10029 0.131676 0
0.898046 0.479178 0
0.225 0.0906733 0
0.725 0.0906733 0
0.367642 0.0905439 0
0.1257 0.0866651 0
0.774049 0.0926302 0
0.275 0.0906733 0
0.906805 0.395786 0
0.0928824 0.652147 0
0.896668 0.652783 0
0.921613 0.612416 0
0.106042 0.562533 0
0.103102 0.479855 0
0.199998 0.913396 0
0.375 0.956699 0
0.0448912 0.423314 0
0.0433013 0.375 0
0.674999 0.783493 0
0.525 0.956699 0
0.55 0.913397 0
0.0404718 0.528686 0
0.200035 0.480405 0
0.575 0.0433013 0
0.55 0.0863674 0
0.6 0.0866025 0
0.567617 0.130019 0
0.5022 0.0879071 0
0.6 0.826795 0
0.375 0.696891 0
0.4 0.65359 0
0.35 0.65359 0
0.623033 0.0421657 0
0.95036 0.476444 0
0.475733 0.0435075 0
0.35 0.740192 0
0.043127 0.275 0
0.0938046 0.303433 0
0.0847219 0.249653 0
0.625 0.783494 0
0.0494432 0.127829 0
0.874678 0.956885 0
0.899624 0.913615 0
0.953942 0.91856 0
0.924455 0.87421 0
0.849884 0.913465 0
0.958756 0.724879 0
0.956201 0.775773 0
0.918482 0.795007 0
0.908849 0.746328 0
0.125409 0.956935 0
0.150068 0.913437 0
0.0997022 0.914848 0
0.124898 0.870307 0
0.0747387 0.871554 0
0.098295 0.826482 0
0.07326 0.77892 0
0.12307 0.782379 0
0.0987857 0.737639 0
0.124541 0.696507 0
0.875 0.0433013 0
0.899678 0.0864165 0
0.95395 0.0814439 0
0.925 0.129904 0
0.875 0.129904 0
0.903517 0.172644 0
0.926977 0.220995 0
0.882852 0.219719 0
0.903936 0.259889 0
0.0428741 0.225457 0
0.5 0.913397 0
0.275 0.177282 0
0.375 0.610289 0
0.675 0.350481 0
0.65 0.393782 0
0.6 0.393782 0
0.851115 0.0859323 0
0.375 0.523686 0
0.425 0.523686 0
0.225006 0.437087 0
0.65 0.566987 0
0.250007 0.480389 0
0.325 0.350481 0
0.35 0.30718 0
0.325 0.263878 0
0.7 0.740192 0
0.325 0.610289 0
0.375 0.783494 0
0.125 0.350481 0
0.200033 0.566968 0
0.956699 0.375 0
0.950309 0.269983 0
0.325 0.783493 0
0.0469426 0.730731 0
0.799823 0.307282 0
0.042974 0.626573 0
0.898907 0.56746 0
0.724996 0.783491 0
0.45 0.566987 0
0.45 0.30718 0
0.6 0.740192 0
0.625 0.956699 0
0.775 0.523686 0
0.35 0.393782 0
0.575 0.610289 0
0.45 0.65359 0
0.399936 0.220614 0
0.425 0.783494 0
0.55 0.740192 0
0.3 0.65359 0
0.128101 0.521985 0
0.847355 0.308608 0
0.55 0.220852 0
0.525 0.437083 0
0.20012 0.307249 0
0.174916 0.696831 0
0.675 0.610289 0
0.274998 0.783493 0
0.175596 0.523404 0
0.575 0.350481 0
0.699989 0.22059 0
0.8 0.65359 0
0.425 0.610289 0
0.4 0.393782 0
0.794348 0.130276 0
0.575 0.437083 0
0.152614 0.222318 0
0.349999 0.826795 0
0.4 0.566987 0
0.375 0.350481 0
0.649996 0.220626 0
0.525 0.870096 0
0.174919 0.870095 0
0.6 0.566987 0
0.4 0.30718 0
0.725 0.437083 0
0.627888 0.175171 0
0.825 0.696891 0
0.15 0.30718 0
0.575 0.523686 0
0.375 0.870096 0
0.374989 0.263885 0
0.299998 0.134257 0
0.875022 0.698297 0
0.349992 0.220582 0
0.324997 0.1773 0
0.6 0.480385 0
0.6 0.913397 0
0.575 0.870096 0
0.625 0.437083 0
0.75 0.480385 0
0.65 0.913397 0
0.675 0.437083 0
0.699998 0.913396 0
0.799958 0.480361 0
0.824951 0.437055 0
0.875 0.437083 0
0.724999 0.956698 0
0.35 0.913397 0
0.774999 0.956698 0
0.299999 0.913397 0
0.799976 0.913406 0
0.274999 0.956698 0
0.225 0.956699 0
0.824828 0.87034 0
0.874671 0.873019 0
0.955621 0.572764 0
0.774556 0.0438812 0
0.724977 0.0402453 0
0.45572 0.0898033 0
0.525 0.128493 0
0.675913 0.0930305 0
0.578987 0.175708 0
0.378933 0.0448231 0
0.323526 0.0985982 0
0.275 0.0418902 0
0.225 0.0401417 0
0.175036 0.0935773 0
0.125627 0.0343677 0
0.899992 0.306698 0
0.0765337 0.958936 0
0.0794937 0.0453515 0
0.0807928 0.204009 0
0.873195 0.784972 0
0.128685 0.263286 0
0.922918 0.690367 0
0.0797125 0.350019 0
0.918672 0.350723 0
0.080797 0.698518 0
0.0794671 0.093288 0
0.0793968 0.596222 0
0.965224 0.625 0
0.0835399 0.442879 0
0.917068 0.442207 0
0.0328902 0.873484 0
0.966254 0.874748 0
0.96661 0.125567 0
0.084056 0.518458 0
0.915944 0.518458 0
0.032926 0.777022 0
0.967372 0.225 0
0.89964 0.836311 0
0.864464 0.268768 0
0.839351 0.225137 0
0.963397 0.963397 0
0.0366025 0.0366025 0
0.0366025 0.963397 0
0.963397 0.0366025 0
0.638198 0.0797889 0
0.488198 0.140788 0
0.412225 0.0920609 0
0.612327 0.125403 0
0.860114 0.171945 0
0.836069 0.125931 0
0.812013 0.0796668 0
0.0796372 0.165525 0
0.113746 0.223845 0
0.934606 0.648359 0
0.0693341 0.553448 0
0 0 0
0 0 0
0 0 0
0 0 0
0 0 0
0 0 0
0 0 0
0 0 0
0 0 0
0 0 0
0 0 0
0 0 0
0 0 0
0 0 0
0 0 0
0 0 0
0 0 0
0 0 0
0 0 0
0 0 0
0 0 0
0 0 0
0 0 0
0 0 0
0 0 0
0 0 0
0 0 0
0 0 0
0 0 0
0 0 0
0 0 0
0 0 0
0 0 0
0 0 0
0 0 0
0 0 0
0 0 0
0 0 0
0 0 0
0 0 0
0 0 0
0 0 0
0 0 0
0 0 0
0 0 0
0 0 0
0 0 0
0 0 0
0 0 0
0 0 0
0 0 0
0 0 0
0 0 0
0 0 0
0 0 0
0 0 0
0 0 0
0 0 0
0 0 0
0 0 0
0 0 0
0 0 0
0 0 0
0 0 0
0 0 0
0 0 0
0 0 0
0 0 0
0 0 0
0 0 0
0 0 0
0 0 0
0 0 0
0 0 0
0 0 0
0 0 0
0 0 0
0 0 0
0 0 0
0 0 0
0 0 0
0 0 0
0 0 0
0 0 0
0 0 0
0 0 0
0 0 0
0 0 0
0 0 0
0 0 0
0 0 0
0 0 0
0 0 0
0 0 0
0 0 0
0 0 0
0 0 0
0 0 0
0 0 0
0 0 0
0 0 0
0 0 0
0 0 0
0 0 0
0 0 0
0 0 0
0 0 0
0 0 0
0 0 0
0 0 0
0 0 0
0 0 0
0 0 0
0 0 0
0 0 0
0 0 0
0 0 0
0 0 0
0 0 0
0 0 0
0 0 0
0 0 0
0 0 0
0 0 0
0 0 0
0 0 0
0 0 0
0 0 0
0 0 0
0 0 0
0 0 0
0 0 0
0 0 0
0 0 0
0 0 0
0 0 0
0 0 0
0 0 0
0 0 0
0 0 0
0 0 0
0 0 0
0 0 0
0 0 0
0 0 0
0 0 0
0 0 0
0 0 0
0 0 0
0 0 0
0 0 0
0 0 0
0 0 0
0 0 0
0 0 0
0 0 0
0 0 0
0 0 0
0 0 0
0 0 0
0 0 0
0 0 0
0 0 0
0 0 0
0 0 0
0 0 0
0 0 0
0 0 0
0 0 0
0 0 0
0 0 0
0 0 0
0 0 0
0 0 0
0 0 0
0 0 0
0 0 0
0 0 0
0 0 0
0 0 0
0 0 0
0 0 0
0 0 0
0 0 0
0 0 0
0 0 0
0 0 0
0 0 0
0 0 0
0 0 0
0 0 0
0 0 0
0 0 0
0 0 0
0 0 0
0 0 0
0 0 0
0 0 0
0 0 0
0 0 0
0 0 0
0 0 0
0 0 0
0 0 0
0 0 0
0 0 0
0 0 0
0 0 0
0 0 0
0 0 0
0 0 0
0 0 0
0 0 0
0 0 0
0 0 0
0 0 0
0 0 0
0 0 0
0 0 0
0 0 0
0 0 0
0 0 0
0 0 0
0 0 0
0 0 0
0 0 0
0 0 0
0 0 0
0 0 0
0 0 0
0 0 0
0 0 0
0 0 0
[...]
CELL_DATA 944
SCALARS Temperatura double 1
LOOKUP_TABLE default
1.70425
1.23245
2.09682
1.29133
1.28648
1.05353
1.23932
0.954845
2.28715
1.3487
1.63454
1.48283
0.867848
1.13959
1.05466
2.91754
3.15601
1.55754
1.22459
0.916181
0.643662
1.44015
3.09448
2.25975
1.36559
2.91972
1.61634
2.48981
1.34529
1.34458
0.580822
0.512333
1.26625
1.22968
1.26562
0.594151
1.80991
1.89771
2.05579
1.6295
2.19625
1.973
0.87834
0.865514
1.64201
1.62987
0.103767
0.106422
1.45538
1.95023
1.55577
0.478775
0.892993
0.861168
1.79434
1.73503
0.138001
0.140947
1.03054
0.995554
1.46724
1.45175
1.71646
0.907087
0.445152
1.52719
1.52732
1.35796
1.26997
0.837259
1.80227
1.76126
2.02625
1.06263
0.725506
1.35296
2.00023
2.15507
1.6444
2.23054
1.42376
1.771
1.49744
2.7206
0.591121
0.603995
0.573369
1.43709
2.58115
2.35936
1.58835
1.43924
1.55374
1.28484
1.29376
0.954559
0.445111
0.859747
0.626714
1.28777
0.666714
3.16061
5.01735
0.353595
0.423608
1.22105
0.685648
3.1818
3.65978
1.44892
0.154368
3.80219
0.694305
0.723054
3.97013
0.687407
0.638106
4.28811
0.663541
0.354315
1.30124
3.03533
1.32775
0.332571
0.327591
0.353639
2.74929
4.26259
0.270303
0.347487
1.18305
1.64578
0.873275
0.475861
4.23921
4.77636
0.512686
0.0956008
0.6683
3.99279
4.26548
0.982997
0.632182
0.103936
4.58631
0.669906
5.37276
0.677961
5.678
5.23244
3.56694
1.64573
0.735079
1.96281
0.687409
4.18637
0.67942
4.83907
1.3175
1.32793
2.41271
2.82296
2.51242
4.57912
4.96655
5.61607
0.311267
1.09356
0.248076
4.55812
0.264774
4.48818
4.29061
0.405578
0.350223
0.301872
0.685029
3.5115
5.5916
0.346586
1.16521
3.60624
0.476362
0.903661
0.975816
0.577978
2.22938
2.22925
0.244743
1.32195
0.332467
0.353727
5.09494
0.44296
5.23789
0.710222
3.94495
0.961455
3.90384
5.39035
1.04285
0.721312
4.262
0.258275
0.204844
2.88278
0.589495
0.559521
1.30295
0.526903
0.668786
1.34126
5.15147
4.76046
0.318646
0.256114
5.42898
0.231279
0.722941
3.27401
3.27666
0.0974981
0.748714
0.247507
2.6216
2.55292
5.37351
1.59766
3.20245
4.13321
3.06357
0.372017
3.42501
2.72254
2.61904
3.12624
4.58207
2.28154
1.88827
1.06532
2.18471
5.05113
5.38022
0.0942933
0.153957
3.63064
3.80158
2.85471
2.29589
3.27839
0.350529
5.54208
0.431159
4.18581
5.57071
0.677277
2.16587
2.7408
2.63698
3.51105
6.05289
2.55321
0.684233
0.180815
0.198879
2.48752
0.279187
1.72938
1.61302
5.37508
5.97822
5.59501
2.51617
5.73718
0.241589
2.8329
1.33458
2.6224
4.84125
3.33192
0.154664
0.333098
0.204405
5.12176
4.23694
3.84891
5.14859
4.67633
1.79893
4.98753
0.368355
0.267854
4.28885
3.54463
0.955463
2.54346
2.4605
3.95801
3.99168
4.25675
5.31919
3.69643
5.87285
3.66692
5.56966
5.67802
0.886368
6.02248
5.76703
3.79933
2.76428
5.54209
0.345402
4.58145
4.96568
3.63268
4.04078
4.59529
2.81436
4.24501
3.33125
4.95718
2.15166
5.34901
3.18108
2.95286
4.44009
2.88335
5.31986
2.95595
4.09653
3.47446
4.67983
2.99153
4.25522
4.76709
3.72845
0.330966
5.7094
4.87176
4.58504
5.23835
4.02216
3.28357
3.49774
4.32297
5.29728
4.58027
4.12894
5.84294
2.72408
4.43659
4.2587
5.19314
5.12106
4.17885
2.47931
4.0252
4.12731
2.67252
3.16186
4.77332
5.37356
3.51341
2.42877
4.60518
4.76392
4.44293
3.32843
4.7726
4.76777
2.89389
5.18812
0.359758
1.12329
2.99772
5.38312
3.66836
3.0788
3.65953
3.52512
5.01869
3.92441
5.8833
0.662662
3.69125
4.04213
0.364601
4.53247
2.1457
0.333079
5.94396
3.7147
4.58835
3.63234
4.52635
0.317945
6.03662
0.633008
6.08243
5.74329
4.44242
4.7288
3.05006
5.94915
0.313089
2.71147
3.23292
4.47061
4.83083
3.54103
3.20871
3.15459
3.91985
2.89934
4.1248
3.90146
2.97734
3.00543
4.89235
4.84138
2.78751
5.14695
5.26019
4.9859
5.1026
3.13854
4.33037
3.17808
6.11344
4.96546
0.483583
4.44091
5.89751
4.49256
2.97601
5.30198
3.10066
3.63442
0.31947
0.324854
4.26279
0.619635
4.83725
2.74327
5.43345
3.87229
3.18998
0.624477
5.0546
5.31539
3.79104
4.17979
4.87002
4.44243
3.83557
3.28908
5.88407
3.6929
5.63721
4.83636
5.72986
6.03699
5.84269
0.311281
5.10055
2.80374
3.92534
6.09866
5.59713
5.94499
5.31276
0.305639
5.63745
3.7343
4.98665
3.92019
4.52138
2.99051
0.33246
5.03652
3.91797
4.09805
0.346576
5.42307
5.09993
5.73082
4.86791
4.31593
5.30282
5.43419
5.01627
5.10261
5.9025
4.59851
3.73431
5.83914
3.53298
0.304389
6.09883
3.47547
4.32695
5.81548
4.45672
4.31615
5.26016
0.615306
5.90116
2.4873
4.24332
4.53299
0.641055
2.56688
4.9206
4.35932
3.61336
4.58028
3.27428
5.68723
4.8707
3.60562
5.83992
3.68866
1.59682
5.42297
6.06884
5.52611
4.68845
5.51705
5.68787
2.17135
5.31538
3.09213
2.94153
2.80381
5.09815
2.79931
5.43241
4.51888
3.41609
5.65166
5.22248
3.44208
0.632272
4.77837
3.15528
2.91516
5.51756
2.17041
2.4774
4.69597
3.8986
4.8409
3.80587
4.34596
3.42035
0.666762
2.8899
5.99409
2.69128
3.8034
4.72071
3.95974
5.99277
5.52608
4.96109
3.33058
5.02121
4.25803
5.61946
5.29634
5.51723
4.83545
5.96047
4.36252
4.83662
4.34897
6.06866
3.43721
2.08299
3.4447
6.05336
3.69022
2.97418
2.28091
0.196153
4.48421
4.32401
0.597282
2.86232
1.79517
3.99646
4.82534
4.47326
4.96812
3.05054
3.96994
5.23403
2.43828
1.76057
2.48803
3.728
3.8464
5.53454
2.52529
0.198378
2.94124
4.24907
2.48083
3.29881
3.96499
2.81442
5.76988
5.39442
5.5381
4.001
2.54624
4.92675
3.90903
3.23604
5.82715
3.78767
4.48499
3.41461
3.07686
2.63733
3.53864
5.72796
3.17924
3.4979
3.5085
3.70547
5.43056
2.6618
2.61798
3.51369
3.1547
5.5919
5.66533
0.205012
2.91487
3.20335
4.0961
6.05353
2.54281
2.16225
2.29518
1.35344
5.91798
5.18552
2.76416
3.81314
0.201579
4.73524
4.15214
1.83812
1.56173
1.70715
2.16479
5.1558
2.18501
3.85216
4.71729
5.66544
1.88775
2.9973
2.19984
5.19794
5.8278
5.97826
3.28845
0.452136
4.554
3.07866
2.56719
4.993
2.83804
3.17101
5.91813
3.4245
1.90211
3.08444
1.44917
6.02352
2.32904
2.55766
3.24282
2.19814
3.19528
1.61205
3.53444
5.22704
2.59478
2.08628
2.78102
1.95235
5.73642
4.37328
2.41269
2.74136
4.46307
3.85818
3.20909
2.93077
4.1079
1.94821
5.87283
4.16027
3.73969
2.43571
3.51677
4.26021
3.44947
3.04553
5.94863
2.11328
4.88962
1.6132
4.86482
3.41901
3.55544
1.12772
3.00564
0.583908
1.28802
5.51446
2.48787
3.89118
5.70817
1.54762
2.28806
4.60245
5.7251
5.34713
1.2214
3.05193
2.09631
0.445425
5.81425
1.29419
4.28362
0.28296
1.7852
3.93575
1.78475
3.83001
1.54741
2.69922
1.54741
1.12796
0.283033
1.90418
1.15291
0.521676
3.10649
1.00769
0.247644
1.96271
0.90918
0.860304
1.318
2.1131
2.09612
0.583866
1.5626
2.28803
0.521508
1.61292
1.00736
1.1535
1.28753
1.94958
0.973936
1.40068
1.68091
1.8588
1.55292
0.353533
1.60832
0.576612
0.470665
2.38071
1.97341
0.698497
0.681241
3.64908
2.00866
3.58609
0.611009
1.47365
0.430272
1.18933
2.1753
0.331151
1.51579
1.77199
1.86084
1.53702
2.86284
2.29258
0.476625
0.0928374
0.104094
0.656944
0.258081
0.524377
1.34446
0.263983
2.15191
2.27292
3.84218
0.362106
2.3516
0.274136
0.487756
0.220392
1.50623
0.119691
0.818557
1.61587
2.40279
2.10802
1.27824
2.03265
1.84376
2.36627
2.07315
0.699248
1.5659
0.666342
0.77103
0.745841
1.33216
2.00163
2.33618
1.42876
1.37071
1.34726
0.423907
0.24744
1.10706
2.07329
1.2284
0.576975
0.869404
2.19016
2.1674
0.244403
0.333511
0.325897
0.318246
0.244417
2.32437
2.26441
0.479161
0.41412
0.478637
0.407132
1.18977
1.92679
1.44798
1.18982
2.36119
0.0334311
0.0340004
0.0330149
0.0336619
0.248031
0.0335983
0.0343252
0.0333564
0.0340051
0.252977
1.24622
2.46268
3.23968
0.466381
2.04916
2.03259
2.23513
1.55855
2.25554
2.93869
2.52479
1.11227
2.2452
1.88861
1.03625
1.16379
1.18857
1.97366
1.85718
1.8213
0.24355
0.236797
0.837971
2.248
0.260951
1.19018
2.29025
2.26039
1.49681
0.113392
0.112564
0.48779
0.118756
0.475529
2.34498
2.29923
0.178941
0.173851
2.01743
1.07971
1.24412
0.127553
0.136952
1.95444
2.58136
2.401
2.62122
0.126821
0.12701
0.129236
0.137185
1.53485
3.01126
2.21637
1.0056
2.11608
2.3811
1.3587
1.2164
1.265
1.5011
0.915036
0.915131
1.77817
1.13726
0.250559
0.247188
1.76117
1.43287
1.34117
1.48632
