# vtk DataFile Version 3.0
Malha 2D com triângulos: velocidade e pressão
ASCII
DATASET UNSTRUCTURED_GRID

POINTS 2500 double
0 0 0
1 0 0
1 1 0
0 1 0
0.0204082 0 0
0.0408163 0 0
0.0612245 0 0
0.0816327 0 0
0.102041 0 0
0.122449 0 0
0.142857 0 0
0.163265 0 0
0.183673 0 0
0.204082 0 0
0.22449 0 0
0.244898 0 0
0.265306 0 0
0.285714 0 0
0.306122 0 0
0.326531 0 0
0.346939 0 0
0.367347 0 0
0.387755 0 0
0.408163 0 0
0.428571 0 0
0.44898 0 0
0.469388 0 0
0.489796 0 0
0.510204 0 0
0.530612 0 0
0.55102 0 0
0.571429 0 0
0.591837 0 0
0.612245 0 0
0.632653 0 0
0.653061 0 0
0.673469 0 0
0.693878 0 0
0.714286 0 0
0.734694 0 0
0.755102 0 0
0.77551 0 0
0.795918 0 0
0.816327 0 0
0.836735 0 0
0.857143 0 0
0.877551 0 0
0.897959 0 0
0.918367 0 0
0.938776 0 0
0.959184 0 0
0.979592 0 0
1 0.0204082 0
1 0.0408163 0
1 0.0612245 0
1 0.0816327 0
1 0.102041 0
1 0.122449 0
1 0.142857 0
1 0.163265 0
1 0.183673 0
1 0.204082 0
1 0.22449 0
1 0.244898 0
1 0.265306 0
1 0.285714 0
1 0.306122 0
1 0.326531 0
1 0.346939 0
1 0.367347 0
1 0.387755 0
1 0.408163 0
1 0.428571 0
1 0.44898 0
1 0.469388 0
1 0.489796 0
1 0.510204 0
1 0.530612 0
1 0.55102 0
1 0.571429 0
1 0.591837 0
1 0.612245 0
1 0.632653 0
1 0.653061 0
1 0.673469 0
1 0.693878 0
1 0.714286 0
1 0.734694 0
1 0.755102 0
1 0.77551 0
1 0.795918 0
1 0.816327 0
1 0.836735 0
1 0.857143 0
1 0.877551 0
1 0.897959 0
1 0.918367 0
1 0.938776 0
1 0.959184 0
1 0.979592 0
0.979592 1 0
0.959184 1 0
0.938776 1 0
0.918367 1 0
0.897959 1 0
0.877551 1 0
0.857143 1 0
0.836735 1 0
0.816327 1 0
0.795918 1 0
0.77551 1 0
0.755102 1 0
0.734694 1 0
0.714286 1 0
0.693878 1 0
0.673469 1 0
0.653061 1 0
0.632653 1 0
0.612245 1 0
0.591837 1 0
0.571429 1 0
0.55102 1 0
0.530612 1 0
0.510204 1 0
0.489796 1 0
0.469388 1 0
0.44898 1 0
0.428571 1 0
0.408163 1 0
0.387755 1 0
0.367347 1 0
0.346939 1 0
0.326531 1 0
0.306122 1 0
0.285714 1 0
0.265306 1 0
0.244898 1 0
0.22449 1 0
0.204082 1 0
0.183673 1 0
0.163265 1 0
0.142857 1 0
0.122449 1 0
0.102041 1 0
0.0816327 1 0
0.0612245 1 0
0.0408163 1 0
0.0204082 1 0
0 0.979592 0
0 0.959184 0
0 0.938776 0
0 0.918367 0
0 0.897959 0
0 0.877551 0
0 0.857143 0
0 0.836735 0
0 0.816327 0
0 0.795918 0
0 0.77551 0
0 0.755102 0
0 0.734694 0
0 0.714286 0
0 0.693878 0
0 0.673469 0
0 0.653061 0
0 0.632653 0
0 0.612245 0
0 0.591837 0
0 0.571429 0
0 0.55102 0
0 0.530612 0
0 0.510204 0
0 0.489796 0
0 0.469388 0
0 0.44898 0
0 0.428571 0
0 0.408163 0
0 0.387755 0
0 0.367347 0
0 0.346939 0
0 0.326531 0
0 0.306122 0
0 0.285714 0
0 0.265306 0
0 0.244898 0
0 0.22449 0
0 0.204082 0
0 0.183673 0
0 0.163265 0
0 0.142857 0
0 0.122449 0
0 0.102041 0
0 0.0816327 0
0 0.0612245 0
0 0.0408163 0
0 0.0204082 0
0.0204082 0.979592 0
0.0204082 0.959184 0
0.0204082 0.938776 0
0.0204082 0.918367 0
0.0204082 0.897959 0
0.0204082 0.877551 0
0.0204082 0.857143 0
0.0204082 0.836735 0
0.0204082 0.816327 0
0.0204082 0.795918 0
0.0204082 0.77551 0
0.0204082 0.755102 0
0.0204082 0.734694 0
0.0204082 0.714286 0
0.0204082 0.693878 0
0.0204082 0.673469 0
0.0204082 0.653061 0
0.0204082 0.632653 0
0.0204082 0.612245 0
0.0204082 0.591837 0
0.0204082 0.571429 0
0.0204082 0.55102 0
0.0204082 0.530612 0
0.0204082 0.510204 0
0.0204082 0.489796 0
0.0204082 0.469388 0
0.0204082 0.44898 0
0.0204082 0.428571 0
0.0204082 0.408163 0
0.0204082 0.387755 0
0.0204082 0.367347 0
0.0204082 0.346939 0
0.0204082 0.326531 0
0.0204082 0.306122 0
0.0204082 0.285714 0
0.0204082 0.265306 0
0.0204082 0.244898 0
0.0204082 0.22449 0
0.0204082 0.204082 0
0.0204082 0.183673 0
0.0204082 0.163265 0
0.0204082 0.142857 0
0.0204082 0.122449 0
0.0204082 0.102041 0
0.0204082 0.0816327 0
0.0204082 0.0612245 0
0.0204082 0.0408163 0
0.0204082 0.0204082 0
0.0408163 0.979592 0
0.0408163 0.959184 0
0.0408163 0.938776 0
0.0408163 0.918367 0
0.0408163 0.897959 0
0.0408163 0.877551 0
0.0408163 0.857143 0
0.0408163 0.836735 0
0.0408163 0.816327 0
0.0408163 0.795918 0
0.0408163 0.77551 0
0.0408163 0.755102 0
0.0408163 0.734694 0
0.0408163 0.714286 0
0.0408163 0.693878 0
0.0408163 0.673469 0
0.0408163 0.653061 0
0.0408163 0.632653 0
0.0408163 0.612245 0
0.0408163 0.591837 0
0.0408163 0.571429 0
0.0408163 0.55102 0
0.0408163 0.530612 0
0.0408163 0.510204 0
0.0408163 0.489796 0
0.0408163 0.469388 0
0.0408163 0.44898 0
0.0408163 0.428571 0
0.0408163 0.408163 0
0.0408163 0.387755 0
0.0408163 0.367347 0
0.0408163 0.346939 0
0.0408163 0.326531 0
0.0408163 0.306122 0
0.0408163 0.285714 0
0.0408163 0.265306 0
0.0408163 0.244898 0
0.0408163 0.22449 0
0.0408163 0.204082 0
0.0408163 0.183673 0
0.0408163 0.163265 0
0.0408163 0.142857 0
0.0408163 0.122449 0
0.0408163 0.102041 0
0.0408163 0.0816327 0
0.0408163 0.0612245 0
0.0408163 0.0408163 0
0.0408163 0.0204082 0
0.0612245 0.979592 0
0.0612245 0.959184 0
0.0612245 0.938776 0
0.0612245 0.918367 0
0.0612245 0.897959 0
0.0612245 0.877551 0
0.0612245 0.857143 0
0.0612245 0.836735 0
0.0612245 0.816327 0
0.0612245 0.795918 0
0.0612245 0.77551 0
0.0612245 0.755102 0
0.0612245 0.734694 0
0.0612245 0.714286 0
0.0612245 0.693878 0
0.0612245 0.673469 0
0.0612245 0.653061 0
0.0612245 0.632653 0
0.0612245 0.612245 0
0.0612245 0.591837 0
0.0612245 0.571429 0
0.0612245 0.55102 0
0.0612245 0.530612 0
0.0612245 0.510204 0
0.0612245 0.489796 0
0.0612245 0.469388 0
0.0612245 0.44898 0
0.0612245 0.428571 0
0.0612245 0.408163 0
0.0612245 0.387755 0
0.0612245 0.367347 0
0.0612245 0.346939 0
0.0612245 0.326531 0
0.0612245 0.306122 0
0.0612245 0.285714 0
0.0612245 0.265306 0
0.0612245 0.244898 0
0.0612245 0.22449 0
0.0612245 0.204082 0
0.0612245 0.183673 0
0.0612245 0.163265 0
0.0612245 0.142857 0
0.0612245 0.122449 0
0.0612245 0.102041 0
0.0612245 0.0816327 0
0.0612245 0.0612245 0
0.0612245 0.0408163 0
0.0612245 0.0204082 0
0.0816327 0.979592 0
0.0816327 0.959184 0
0.0816327 0.938776 0
0.0816327 0.918367 0
0.0816327 0.897959 0
0.0816327 0.877551 0
0.0816327 0.857143 0
0.0816327 0.836735 0
0.0816327 0.816327 0
0.0816327 0.795918 0
0.0816327 0.77551 0
0.0816327 0.755102 0
0.0816327 0.734694 0
0.0816327 0.714286 0
0.0816327 0.693878 0
0.0816327 0.673469 0
0.0816327 0.653061 0
0.0816327 0.632653 0
0.0816327 0.612245 0
0.0816327 0.591837 0
0.0816327 0.571429 0
0.0816327 0.55102 0
0.0816327 0.530612 0
0.0816327 0.510204 0
0.0816327 0.489796 0
0.0816327 0.469388 0
0.0816327 0.44898 0
0.0816327 0.428571 0
0.0816327 0.408163 0
0.0816327 0.387755 0
0.0816327 0.367347 0
0.0816327 0.346939 0
0.0816327 0.326531 0
0.0816327 0.306122 0
0.0816327 0.285714 0
0.0816327 0.265306 0
0.0816327 0.244898 0
0.0816327 0.22449 0
0.0816327 0.204082 0
0.0816327 0.183673 0
0.0816327 0.163265 0
0.0816327 0.142857 0
0.0816327 0.122449 0
0.0816327 0.102041 0
0.0816327 0.0816327 0
0.0816327 0.0612245 0
0.0816327 0.0408163 0
0.0816327 0.0204082 0
0.102041 0.979592 0
0.102041 0.959184 0
0.102041 0.938776 0
0.102041 0.918367 0
0.102041 0.897959 0
0.102041 0.877551 0
0.102041 0.857143 0
0.102041 0.836735 0
0.102041 0.816327 0
0.102041 0.795918 0
0.102041 0.77551 0
0.102041 0.755102 0
0.102041 0.734694 0
0.102041 0.714286 0
0.102041 0.693878 0
0.102041 0.673469 0
0.102041 0.653061 0
0.102041 0.632653 0
0.102041 0.612245 0
0.102041 0.591837 0
0.102041 0.571429 0
0.102041 0.55102 0
0.102041 0.530612 0
0.102041 0.510204 0
0.102041 0.489796 0
0.102041 0.469388 0
0.102041 0.44898 0
0.102041 0.428571 0
0.102041 0.408163 0
0.102041 0.387755 0
0.102041 0.367347 0
0.102041 0.346939 0
0.102041 0.326531 0
0.102041 0.306122 0
0.102041 0.285714 0
0.102041 0.265306 0
0.102041 0.244898 0
0.102041 0.22449 0
0.102041 0.204082 0
0.102041 0.183673 0
0.102041 0.163265 0
0.102041 0.142857 0
0.102041 0.122449 0
0.102041 0.102041 0
0.102041 0.0816327 0
0.102041 0.0612245 0
0.102041 0.0408163 0
0.102041 0.0204082 0
0.122449 0.979592 0
0.122449 0.959184 0
0.122449 0.938776 0
0.122449 0.918367 0
0.122449 0.897959 0
0.122449 0.877551 0
0.122449 0.857143 0
0.122449 0.836735 0
0.122449 0.816327 0
0.122449 0.795918 0
0.122449 0.77551 0
0.122449 0.755102 0
0.122449 0.734694 0
0.122449 0.714286 0
0.122449 0.693878 0
0.122449 0.673469 0
0.122449 0.653061 0
0.122449 0.632653 0
0.122449 0.612245 0
0.122449 0.591837 0
0.122449 0.571429 0
0.122449 0.55102 0
0.122449 0.530612 0
0.122449 0.510204 0
0.122449 0.489796 0
0.122449 0.469388 0
0.122449 0.44898 0
0.122449 0.428571 0
0.122449 0.408163 0
0.122449 0.387755 0
0.122449 0.367347 0
0.122449 0.346939 0
0.122449 0.326531 0
0.122449 0.306122 0
0.122449 0.285714 0
0.122449 0.265306 0
0.122449 0.244898 0
0.122449 0.22449 0
0.122449 0.204082 0
0.122449 0.183673 0
0.122449 0.163265 0
0.122449 0.142857 0
0.122449 0.122449 0
0.122449 0.102041 0
0.122449 0.0816327 0
0.122449 0.0612245 0
0.122449 0.0408163 0
0.122449 0.0204082 0
0.142857 0.979592 0
0.142857 0.959184 0
0.142857 0.938776 0
0.142857 0.918367 0
0.142857 0.897959 0
0.142857 0.877551 0
0.142857 0.857143 0
0.142857 0.836735 0
0.142857 0.816327 0
0.142857 0.795918 0
0.142857 0.77551 0
0.142857 0.755102 0
0.142857 0.734694 0
0.142857 0.714286 0
0.142857 0.693878 0
0.142857 0.673469 0
0.142857 0.653061 0
0.142857 0.632653 0
0.142857 0.612245 0
0.142857 0.591837 0
0.142857 0.571429 0
0.142857 0.55102 0
0.142857 0.530612 0
0.142857 0.510204 0
0.142857 0.489796 0
0.142857 0.469388 0
0.142857 0.44898 0
0.142857 0.428571 0
0.142857 0.408163 0
0.142857 0.387755 0
0.142857 0.367347 0
0.142857 0.346939 0
0.142857 0.326531 0
0.142857 0.306122 0
0.142857 0.285714 0
0.142857 0.265306 0
0.142857 0.244898 0
0.142857 0.22449 0
0.142857 0.204082 0
0.142857 0.183673 0
0.142857 0.163265 0
0.142857 0.142857 0
0.142857 0.122449 0
0.142857 0.102041 0
0.142857 0.0816327 0
0.142857 0.0612245 0
0.142857 0.0408163 0
0.142857 0.0204082 0
0.163265 0.979592 0
0.163265 0.959184 0
0.163265 0.938776 0
0.163265 0.918367 0
0.163265 0.897959 0
0.163265 0.877551 0
0.163265 0.857143 0
0.163265 0.836735 0
0.163265 0.816327 0
0.163265 0.795918 0
0.163265 0.77551 0
0.163265 0.755102 0
0.163265 0.734694 0
0.163265 0.714286 0
0.163265 0.693878 0
0.163265 0.673469 0
0.163265 0.653061 0
0.163265 0.632653 0
0.163265 0.612245 0
0.163265 0.591837 0
0.163265 0.571429 0
0.163265 0.55102 0
[...]
CELL_DATA 2401
VECTORS velocity double
0.257357 0.157465 0
-0.00265286 0.264671 0
-0.0322195 0.205745 0
-0.0252908 0.15109 0
-0.0159931 0.11373 0
-0.009675 0.0884511 0
-0.0059422 0.0713375 0
-0.0037946 0.0594886 0
-0.00254025 0.0510146 0
-0.00178276 0.044753 0
-0.00130708 0.0399805 0
-0.000997232 0.0362339 0
-0.000789239 0.0332083 0
-0.000646445 0.0306964 0
-0.000546859 0.0285543 0
-0.000476668 0.0266804 0
-0.000426832 0.0250018 0
-0.000391217 0.0234661 0
-0.000365547 0.0220359 0
-0.00034677 0.0206843 0
-0.000332679 0.0193925 0
-0.000321662 0.0181478 0
-0.000312542 0.0169418 0
-0.000304464 0.0157694 0
-0.000296816 0.0146281 0
-0.000289175 0.0135168 0
-0.000281261 0.012436 0
-0.0002729 0.0113868 0
-0.000264004 0.0103706 0
-0.000254539 0.00938943 0
-0.000244514 0.00844507 0
-0.000233957 0.00753944 0
-0.000222909 0.00667434 0
-0.000211409 0.00585145 0
-0.000199482 0.00507239 0
-0.000187138 0.00433872 0
-0.000174356 0.00365203 0
-0.000161086 0.00301403 0
-0.000147235 0.00242662 0
-0.000132664 0.00189203 0
-0.000117175 0.00141289 0
-0.000100507 0.000992418 0
-8.23344e-05 0.000634408 0
-6.22909e-05 0.000343295 0
-4.00871e-05 0.000123887 0
-1.58802e-05 -1.93437e-05 0
8.72128e-06 -8.4109e-05 0
2.85446e-05 -7.69494e-05 0
2.8664e-05 -2.85445e-05 0
0.340691 0.123011 0
-0.000370933 0.249699 0
-0.0648794 0.272272 0
-0.0629318 0.253154 0
-0.0483273 0.222868 0
-0.03496 0.193035 0
-0.0251117 0.167424 0
-0.01827 0.146535 0
-0.0135737 0.129783 0
-0.0103303 0.116353 0
-0.00806226 0.105491 0
-0.00645547 0.0965796 0
-0.00530437 0.0891374 0
-0.00447261 0.0827974 0
-0.00386781 0.0772825 0
-0.00342603 0.0723846 0
-0.00310198 0.0679482 0
-0.00286303 0.0638577 0
-0.00268529 0.0600278 0
-0.00255104 0.0563965 0
-0.00244708 0.0529195 0
-0.00236351 0.0495662 0
-0.00229295 0.0463164 0
-0.00222993 0.0431576 0
-0.00217046 0.0400831 0
-0.00211171 0.0370906 0
-0.00205176 0.0341806 0
-0.00198936 0.0313558 0
-0.00192379 0.02862 0
-0.00185472 0.0259777 0
-0.00178207 0.0234336 0
-0.00170592 0.0209927 0
-0.00162642 0.0186596 0
-0.00154374 0.0164388 0
-0.00145799 0.0143347 0
-0.00136917 0.0123514 0
-0.00127716 0.0104934 0
-0.00118166 0.00876512 0
-0.0010822 0.00717167 0
-0.000978106 0.00571866 0
-0.000868526 0.00441248 0
-0.000752484 0.00326041 0
-0.000629011 0.00227047 0
-0.000497466 0.00145105 0
-0.000358249 0.00080983 0
-0.000214431 0.000351832 0
-7.5203e-05 7.52147e-05 0
3.82297e-05 -3.71036e-05 0
7.6611e-05 -2.78111e-05 0
0.501142 0.076876 0
0.0997057 0.183593 0
-0.0386356 0.249993 0
-0.0728361 0.26678 0
-0.0716214 0.258593 0
-0.0607523 0.240678 0
-0.0489639 0.220267 0
-0.0388263 0.200651 0
-0.0307872 0.183069 0
-0.0246261 0.167778 0
-0.0199744 0.154617 0
-0.0164849 0.143278 0
-0.0138745 0.133431 0
-0.0119242 0.124773 0
-0.010468 0.117048 0
-0.00938074 0.110046 0
-0.00856807 0.103601 0
-0.00795847 0.0975837 0
-0.00749753 0.091896 0
-0.0071437 0.0864652 0
-0.00686525 0.0812385 0
-0.00663796 0.0761792 0
-0.00644346 0.0712632 0
-0.00626799 0.0664761 0
-0.00610143 0.0618109 0
-0.00593651 0.0572657 0
-0.00576823 0.0528426 0
-0.00559332 0.0485464 0
-0.00540988 0.0443832 0
-0.00521694 0.0403601 0
-0.00501426 0.0364844 0
-0.00480196 0.0327637 0
-0.00458041 0.0292049 0
-0.00434997 0.0258149 0
-0.0041109 0.0226003 0
-0.00386321 0.0195676 0
-0.00360659 0.0167233 0
-0.00334036 0.0140741 0
-0.00306343 0.0116272 0
-0.00277434 0.0093907 0
-0.00247138 0.00737322 0
-0.00215279 0.00558426 0
-0.00181724 0.00403381 0
-0.00146471 0.0027316 0
-0.00109816 0.00168569 0
-0.000726785 0.000900182 0
-0.000371762 0.000370223 0
-7.45841e-05 7.64988e-05 0
8.21443e-05 -7.37603e-06 0
0.610502 0.0481186 0
0.196598 0.134315 0
0.0123936 0.210087 0
-0.0573321 0.247288 0
-0.0759157 0.257765 0
-0.0742701 0.253987 0
-0.0657362 0.243114 0
-0.0558373 0.229405 0
-0.0466897 0.215151 0
-0.038953 0.201455 0
-0.0326898 0.188763 0
-0.0277425 0.177182 0
-0.023893 0.166651 0
-0.0209277 0.157037 0
-0.0186591 0.148191 0
-0.0169315 0.139972 0
-0.0156184 0.132252 0
-0.0146186 0.12493 0
-0.0138518 0.117921 0
-0.0132547 0.111165 0
-0.0127777 0.104614 0
-0.0123821 0.0982386 0
-0.0120381 0.0920178 0
-0.0117233 0.0859413 0
-0.0114209 0.0800058 0
-0.0111189 0.0742129 0
-0.0108088 0.0685681 0
-0.0104854 0.0630791 0
-0.0101455 0.0577554 0
-0.00978757 0.0526066 0
-0.00941122 0.047643 0
-0.00901682 0.0428742 0
-0.00860504 0.0383095 0
-0.00817659 0.0339579 0
-0.00773198 0.0298278 0
-0.0072713 0.0259273 0
-0.00679412 0.0222646 0
-0.00629938 0.0188478 0
-0.00578544 0.0156858 0
-0.00525014 0.0127878 0
-0.00469104 0.0101636 0
-0.00410589 0.00782395 0
-0.00349348 0.00577934 0
-0.00285505 0.00403983 0
-0.00219679 0.00261349 0
-0.00153412 0.00150454 0
-0.000898772 0.000708431 0
-0.000347608 0.000210725 0
1.61997e-05 1.71081e-05 0
0.681069 0.0302149 0
0.279615 0.0984439 0
0.0707652 0.171422 0
-0.0268183 0.217918 0
-0.0654075 0.241106 0
-0.0758231 0.249021 0
-0.0737751 0.247576 0
-0.0669051 0.240893 0
-0.0587994 0.231585 0
-0.051047 0.221195 0
-0.0442651 0.210581 0
-0.0386092 0.200181 0
-0.0340286 0.190187 0
-0.0303904 0.180653 0
-0.0275396 0.171563 0
-0.0253263 0.162869 0
-0.0236167 0.15451 0
-0.0222961 0.146432 0
-0.0212692 0.138585 0
-0.0204578 0.130932 0
-0.0197986 0.123445 0
-0.0192418 0.116107 0
-0.0187479 0.108909 0
-0.0182872 0.10185 0
-0.017837 0.0949328 0
-0.0173813 0.0881659 0
-0.0169089 0.0815598 0
-0.0164128 0.0751268 0
-0.015889 0.0688801 0
-0.0153357 0.0628329 0
-0.0147529 0.056998 0
-0.0141413 0.0513876 0
-0.0135023 0.0460131 0
-0.012837 0.0408851 0
-0.0121466 0.0360136 0
-0.0114312 0.0314079 0
-0.0106905 0.0270774 0
-0.00992326 0.0230311 0
-0.0091273 0.0192785 0
-0.00829996 0.0158296 0
-0.0074383 0.0126947 0
-0.00653981 0.00988465 0
-0.00560361 0.00741026 0
-0.0046323 0.00528174 0
-0.0036349 0.00350778 0
-0.00263165 0.00209445 0
-0.00166113 0.0010406 0
-0.000788538 0.000341245 0
-0.000124091 3.98859e-05 0
0.730578 0.0192136 0
0.350271 0.0731646 0
0.129063 0.139422 0
0.0116643 0.188163 0
-0.0449707 0.219017 0
-0.0679832 0.235323 0
-0.0739623 0.241633 0
-0.0718666 0.24144 0
-0.0663982 0.237243 0
-0.0599542 0.230707 0
-0.0536954 0.222891 0
-0.0481264 0.214439 0
-0.0434106 0.205729 0
-0.0395418 0.196969 0
-0.0364354 0.188262 0
-0.0339773 0.179653 0
-0.0320488 0.171157 0
-0.0305383 0.16277 0
-0.0293471 0.154486 0
-0.0283908 0.146299 0
-0.027599 0.138208 0
-0.0269147 0.130213 0
-0.0262924 0.122322 0
-0.025697 0.114545 0
-0.0251022 0.106897 0
-0.0244893 0.099394 0
-0.0238454 0.0920531 0
-0.0231627 0.0848923 0
-0.0224371 0.0779295 0
-0.0216674 0.0711817 0
-0.0208543 0.0646647 0
-0.0199996 0.0583933 0
-0.0191054 0.0523808 0
-0.0181741 0.0466395 0
-0.0172073 0.0411803 0
-0.0162057 0.0360136 0
-0.0151693 0.0311492 0
-0.0140967 0.0265967 0
-0.0129855 0.0223658 0
-0.0118327 0.0184665 0
-0.0106348 0.0149092 0
-0.00938935 0.0117047 0
-0.00809549 0.00886403 0
-0.00675674 0.00639782 0
-0.00538384 0.00431632 0
-0.00399947 0.002629 0
-0.00264486 0.00134034 0
-0.00138662 0.000456848 0
-0.000331344 5.90132e-05 0
0.766612 0.0125814 0
0.409665 0.0556663 0
0.183829 0.114322 0
0.0526894 0.161974 0
-0.0185598 0.196409 0
-0.0533635 0.218239 0
-0.0677757 0.230336 0
-0.0713624 0.235491 0
-0.0695693 0.235879 0
-0.0654199 0.233086 0
-0.060544 0.228216 0
-0.0557758 0.222011 0
-0.0515012 0.214958 0
-0.0478587 0.207371 0
-0.0448551 0.199446 0
-0.0424313 0.191309 0
-0.0405002 0.183035 0
-0.0389668 0.174676 0
-0.0377397 0.166268 0
-0.0367364 0.157837 0
-0.0358856 0.149409 0
-0.0351281 0.141009 0
-0.034416 0.13266 0
-0.0337122 0.124389 0
-0.0329887 0.11622 0
-0.032226 0.108182 0
-0.0314112 0.100297 0
-0.0305369 0.0925925 0
-0.0296002 0.0850899 0
-0.028601 0.0778106 0
-0.0275417 0.0707741 0
-0.0264256 0.0639974 0
-0.0252565 0.0574958 0
-0.024038 0.0512828 0
-0.0227728 0.0453703 0
-0.0214626 0.0397692 0
-0.0201077 0.0344894 0
-0.0187068 0.0295407 0
-0.0172576 0.0249324 0
-0.0157566 0.0206743 0
-0.0142001 0.0167766 0
-0.012585 0.01325 0
-0.0109105 0.0101056 0
-0.00917985 0.00735521 0
-0.00740407 0.00501128 0
-0.00560563 0.00308772 0
-0.00382428 0.0015957 0
-0.00212231 0.000553484 0
-0.000595229 7.42108e-05 0
0.793585 0.00856635 0
0.459524 0.0434368 0
0.233898 0.0948439 0
0.0936545 0.139902 0
0.0112639 0.175229 0
-0.0341451 0.200477 0
-0.0567732 0.216656 0
-0.0663725 0.225957 0
-0.0688354 0.230167 0
-0.0676376 0.230698 0
-0.0647832 0.228605 0
-0.0613917 0.22465 0
-0.058055 0.219369 0
-0.0550559 0.213136 0
-0.0524989 0.206213 0
-0.0503894 0.198781 0
-0.0486817 0.19097 0
-0.0473062 0.182874 0
-0.0461869 0.174568 0
-0.0452497 0.16611 0
-0.044428 0.157554 0
-0.0436647 0.148944 0
-0.0429132 0.140325 0
-0.0421373 0.131737 0
-0.04131 0.12322 0
-0.040413 0.11481 0
-0.0394351 0.106541 0
-0.0383709 0.0984442 0
-0.0372196 0.090549 0
-0.0359838 0.0828809 0
-0.0346681 0.0754623 0
-0.0332783 0.068313 0
-0.0318205 0.0614499 0
-0.0303 0.0548875 0
-0.0287212 0.0486385 0
-0.0270869 0.0427138 0
-0.0253981 0.0371233 0
-0.0236539 0.0318761 0
-0.021852 0.0269813 0
-0.0199886 0.0224482 0
-0.0180593 0.0182862 0
-0.0160604 0.0145061 0
-0.0139902 0.0111195 0
-0.0118509 0.00813932 0
-0.00965179 0.00558079 0
-0.00741269 0.00346263 0
-0.00516839 0.00180287 0
-0.00297252 0.00063056 0
-0.000904827 8.5794e-05 0
0.814448 0.00609189 0
0.501661 0.0347399 0
0.279129 0.0797311 0
0.133133 0.121642 0
0.0421236 0.15654 0
-0.0121203 0.18342 0
-0.0423378 0.202336 0
-0.0578937 0.214695 0
-0.0648581 0.221937 0
-0.0670001 0.225264 0
-0.0666038 0.22563 0
-0.06502 0.223763 0
-0.0630197 0.220207 0
-0.0610175 0.215363 0
-0.0592123 0.209527 0
-0.0576761 0.20292 0
-0.0564081 0.19571 0
-0.0553695 0.188027 0
-0.0545041 0.179976 0
-0.0537511 0.171644 0
-0.0530526 0.163109 0
-0.0523574 0.154438 0
-0.0516233 0.145691 0
-0.0508177 0.136926 0
-0.049917 0.128194 0
-0.0489061 0.119544 0
-0.0477774 0.111017 0
-0.0465291 0.102653 0
-0.045164 0.0944868 0
-0.0436882 0.0865479 0
-0.04211 0.0788625 0
-0.0404384 0.0714525 0
-0.0386823 0.0643366 0
-0.0368496 0.05753 0
-0.0349467 0.0510456 0
-0.032978 0.0448942 0
-0.0309455 0.0390852 0
-0.0288489 0.033627 0
-0.0266857 0.0285279 0
-0.0244518 0.0237962 0
-0.0221421 0.019441 0
-0.0197517 0.0154727 0
-0.0172771 0.0119034 0
-0.0147183 0.00874749 0
-0.0120813 0.00602292 0
-0.00938093 0.00375309 0
-0.00664431 0.00196238 0
-0.00391344 0.00068906 0
-0.0012497 9.424e-05 0
0.831089 0.00452687 0
0.537608 0.0284247 0
0.319837 0.0679077 0
0.170539 0.106562 0
0.073014 0.140305 0
0.0116426 0.167589 0
-0.0255197 0.188269 0
-0.0467881 0.202815 0
-0.0582852 0.212392 0
-0.0639588 0.217992 0
-0.0662939 0.220449 0
-0.0668216 0.220433 0
-0.0664604 0.218465 0
-0.0657397 0.214949 0
-0.0649441 0.210197 0
-0.0642082 0.204451 0
-0.0635764 0.197905 0
-0.0630417 0.190716 0
-0.0625702 0.183012 0
-0.062117 0.174906 0
-0.0616356 0.166494 0
-0.0610835 0.157864 0
-0.0604255 0.149094 0
-0.0596347 0.140255 0
-0.0586932 0.131412 0
-0.0575912 0.122622 0
-0.0563262 0.113938 0
-0.0549016 0.105407 0
-0.0533254 0.0970676 0
-0.0516085 0.0889552 0
-0.0497639 0.0810988 0
-0.0478046 0.0735225 0
-0.0457433 0.0662461 0
-0.0435912 0.0592855 0
-0.0413572 0.0526536 0
-0.0390475 0.0463605 0
-0.0366654 0.0404147 0
-0.0342114 0.0348238 0
-0.0316829 0.0295947 0
-0.0290755 0.0247349 0
-0.0263827 0.0202526 0
-0.0235979 0.016158 0
-0.0207152 0.0124633 0
-0.0177311 0.00918432 0
-0.0146469 0.00634155 0
-0.0114705 0.00396249 0
-0.0082194 0.00207696 0
-0.00492207 0.000730606 0
-0.00162036 0.000100029 0
0.844717 0.00350519 0
0.568584 0.0237388 0
0.356475 0.0585659 0
0.205622 0.0941024 0
0.103204 0.126342 0
0.035886 0.153429 0
-0.00720009 0.174951 0
-0.0337824 0.191004 0
-0.0496973 0.202317 0
-0.0589552 0.209711 0
-0.0641713 0.213895 0
-0.0670104 0.215465 0
-0.0685082 0.214905 0
-0.0692892 0.212604 0
-0.0697127 0.208875 0
-0.0699693 0.20397 0
-0.0701452 0.198097 0
-0.0702641 0.19143 0
-0.070315 0.184119 0
-0.0702699 0.176293 0
-0.070095 0.168068 0
-0.0697583 0.159547 0
-0.0692332 0.150825 0
-0.068501 0.141985 0
-0.0675508 0.133105 0
-0.0663801 0.124253 0
-0.0649933 0.11549 0
-0.0634005 0.10687 0
-0.0616162 0.0984367 0
-0.0596576 0.0902302 0
-0.0575432 0.0822824 0
-0.0552914 0.0746191 0
-0.0529195 0.0672611 0
-0.0504424 0.0602245 0
-0.047872 0.0535216 0
-0.0452171 0.0471618 0
-0.0424823 0.0411523 0
-0.039669 0.0354992 0
-0.0367746 0.0302082 0
-0.0337939 0.0252852 0
-0.030719 0.0207377 0
-0.027541 0.016575 0
-0.0242506 0.0128096 0
-0.0208398 0.00945833 0
-0.0173039 0.00654355 0
-0.0136427 0.00409612 0
-0.00986247 0.00215019 0
-0.00597703 0.000756972 0
-0.00200835 0.000103586 0
0.856131 0.0028132 0
0.595551 0.0201823 0
0.389533 0.05109 0
0.238382 0.0837394 0
0.132376 0.114315 0
0.0601933 0.14082 0
0.0120719 0.162572 0
-0.0194332 0.179613 0
-0.0395817 0.192188 0
-0.0523877 0.200968 0
-0.0605458 0.206546 0
-0.0658165 0.209442 0
-0.0693252 0.210095 0
-0.071773 0.20887 0
-0.0735811 0.206069 0
-0.0749882 0.201946 0
-0.0761175 0.196716 0
-0.0770208 0.190565 0
-0.0777085 0.183656 0
-0.0781691 0.176132 0
-0.0783824 0.168125 0
-0.0783277 0.159752 0
-0.0779884 0.151122 0
-0.0773549 0.142331 0
-0.0764256 0.133468 0
-0.0752065 0.124611 0
-0.0737104 0.115828 0
-0.0719559 0.10718 0
-0.0699653 0.0987168 0
-0.0677633 0.0904817 0
-0.0653754 0.0825089 0
-0.0628262 0.0748262 0
-0.0601382 0.0674545 0
-0.057331 0.0604099 0
-0.0544201 0.0537037 0
-0.051417 0.0473441 0
-0.0483281 0.0413367 0
-0.0451556 0.0356858 0
-0.041897 0.0303953 0
-0.038546 0.0254696 0
-0.0350929 0.0209147 0
-0.0315259 0.0167391 0
-0.0278317 0.012955 0
-0.023997 0.00957966 0
-0.0200099 0.00663689 0
-0.0158609 0.00415984 0
-0.0115444 0.0021858 0
-0.0070587 0.000769829 0
-0.00240621 0.00010526 0
0.865872 0.00232611 0
0.619257 0.0174239 0
0.419465 0.0450306 0
0.268908 0.0750602 0
0.160328 0.103948 0
0.084148 0.129651 0
0.0316228 0.151313 0
-0.00420854 0.168835 0
-0.0283455 0.182298 0
-0.0446028 0.192115 0
-0.0557019 0.198792 0
-0.0634652 0.202771 0
-0.0690838 0.204444 0
-0.073318 0.204144 0
-0.0766383 0.20216 0
-0.0793233 0.198739 0
-0.0815272 0.194099 0
-0.0833262 0.18843 0
-0.0847497 0.181905 0
-0.0858019 0.17468 0
-0.0864757 0.166899 0
-0.086762 0.158691 0
-0.086655 0.150177 0
-0.0861555 0.141467 0
-0.0852721 0.132656 0
-0.084021 0.123834 0
-0.082425 0.115076 0
-0.0805123 0.106449 0
-0.0783148 0.0980081 0
-0.0758659 0.0897986 0
-0.0731991 0.0818576 0
-0.0703462 0.0742137 0
-0.067336 0.0668879 0
-0.0641934 0.0598957 0
-0.060938 0.053247 0
-0.0575842 0.0469482 0
-0.0541407 0.041003 0
-0.0506105 0.0354136 0
-0.0469909 0.0301816 0
-0.0432745 0.0253096 0
-0.0394495 0.0208018 0
-0.0355006 0.0166655 0
-0.0314098 0.012912 0
-0.0271577 0.00955853 0
-0.0227246 0.00662946 0
-0.0180908 0.00415928 0
-0.0132381 0.00218722 0
-0.00814928 0.000770623 0
-0.00280736 0.000105326 0
0.874317 0.00196991 0
0.640284 0.0152396 0
0.44668 0.0400533 0
0.297347 0.067726 0
0.186996 0.0949629 0
0.107556 0.119735 0
0.0512267 0.141081 0
0.0115695 0.158741 0
-0.0163095 0.172787 0
-0.0358927 0.18336 0
-0.0498923 0.190881 0
-0.0601673 0.195725 0
-0.0679547 0.198233 0
-0.0740586 0.198709 0
-0.0789874 0.197422 0
-0.0830509 0.194611 0
-0.0864284 0.190489 0
-0.0892159 0.185251 0
-0.0914592 0.179077 0
-0.0931763 0.17213 0
-0.0943724 0.164565 0
-0.0950498 0.156523 0
-0.095214 0.148135 0
-0.094877 0.139521 0
-0.0940589 0.130787 0
-0.0927871 0.122029 0
-0.0910959 0.113331 0
-0.0890249 0.104764 0
-0.0866165 0.0963881 0
-0.0839142 0.0882509 0
-0.0809607 0.0803912 0
-0.0777962 0.0728378 0
-0.0744564 0.0656115 0
-0.0709722 0.0587264 0
-0.0673678 0.0521908 0
-0.063661 0.0460088 0
-0.0598628 0.0401817 0
-0.055977 0.0347091 0
-0.0520009 0.0295903 0
-0.0479257 0.0248252 0
-0.043737 0.0204161 0
-0.0394156 0.0163685 0
-0.0349385 0.0126924 0
-0.0302794 0.00940433 0
-0.02541 0.00652839 0
-0.0203003 0.00409939 0
-0.0149187 0.00215734 0
-0.0092325 0.000760522 0
-0.00320592 0.000103986 0
0.881734 0.00169981 0
0.659085 0.0134755 0
0.471525 0.0359099 0
0.323858 0.0614692 0
0.212365 0.0871281 0
0.130272 0.110909 0
0.0706348 0.131789 0
0.0275141 0.149393 0
-0.0037524 0.163718 0
-0.0265086 0.174818 0
-0.0433395 0.18296 0
-0.0561154 0.188471 0
-0.0661008 0.191644 0
-0.0741297 0.192752 0
-0.0807378 0.192041 0
-0.0862579 0.18974 0
-0.090888 0.186057 0
-0.0947398 0.181189 0
-0.0978722 0.175318 0
-0.100315 0.168616 0
-0.102084 0.161246 0
-0.103193 0.153359 0
-0.103658 0.145096 0
-0.103505 0.136585 0
-0.102764 0.127943 0
-0.101477 0.119271 0
-0.0996906 0.110661 0
-0.0974562 0.102187 0
-0.0948288 0.0939137 0
-0.0918632 0.0858905 0
-0.0886126 0.0781569 0
-0.0851261 0.0707416 0
-0.0814476 0.0636645 0
-0.0776143 0.0569376 0
-0.0736557 0.0505672 0
-0.0695933 0.0445547 0
-0.0654404 0.0388985 0
-0.0612019 0.0335952 0
-0.0568748 0.0286412 0
-0.0524486 0.0240337 0
-0.0479062 0.0197724 0
-0.0432242 0.0158606 0
-0.0383737 0.0123066 0
-0.0333216 0.00912519 0
-0.0280304 0.00633974 0
-0.0224591 0.00398426 0
-0.0165629 0.00209851 0
-0.0102934 0.000740414 0
-0.00359656 0.000101377 0
0.888316 0.00148792 0
0.676015 0.0120233 0
0.494298 0.0324126 0
0.348598 0.0560735 0
0.236458 0.0802384 0
0.152218 0.103002 0
0.0897121 0.123309 0
0.0434799 0.140705 0
0.00912964 0.155086 0
-0.0166528 0.166519 0
-0.0362357 0.175095 0
-0.0514833 0.1811 0
-0.0636748 0.184782 0
-0.0736626 0.186382 0
-0.0820002 0.186128 0
-0.0890359 0.184236 0
-0.0949806 0.180908 0
-0.0999569 0.17634 0
-0.104033 0.170718 0
-0.107249 0.164221 0
-0.10963 0.157017 0
-0.111201 0.149268 0
-0.111989 0.141122 0
-0.112031 0.132717 0
-0.111374 0.124176 0
-0.11007 0.115608 0
-0.108181 0.107109 0
-0.105773 0.0987593 0
-0.102914 0.0906232 0
-0.0996714 0.0827532 0
-0.09611 0.0751884 0
-0.0922889 0.0679567 0
-0.0882606 0.0610761 0
-0.0840696 0.0545566 0
-0.0797508 0.0484015 0
-0.0753298 0.042609 0
-0.0708223 0.0371743 0
-0.0662343 0.0320907 0
-0.0615624 0.0273511 0
-0.0567944 0.0229497 0
-0.0519101 0.0188833 0
-0.0468814 0.0151524 0
-0.0416736 0.011763 0
-0.036246 0.00872787 0
-0.0305518 0.00606842 0
-0.0245388 0.00381713 0
-0.0181488 0.00201247 0
-0.011318 0.000710932 0
-0.00397434 9.75846e-05 0
0.894206 0.00131623 0
0.691351 0.0108047 0
0.515241 0.029417 0
0.371711 0.0513643 0
0.259313 0.0741194 0
0.173344 0.0958615 0
0.108343 0.115523 0
0.0592965 0.132595 0
0.0220751 0.146897 0
-0.00651996 0.158458 0
-0.0287566 0.167305 0
-0.0464306 0.173642 0
-0.0608198 0.177686 0
-0.0727838 0.179647 0
-0.0828846 0.179735 0
-0.0914788 0.17815 0
-0.0987845 0.175091 0
-0.104931 0.170752 0
-0.109993 0.165321 0
-0.114017 0.158983 0
-0.117038 0.151913 0
-0.119089 0.14428 0
-0.120211 0.136241 0
-0.120453 0.127941 0
-0.119874 0.11951 0
-0.118544 0.111063 0
-0.11654 0.1027 0
-0.113943 0.0945026 0
-0.110835 0.0865391 0
-0.107299 0.0788613 0
-0.103409 0.0715077 0
-0.0992386 0.0645047 0
-0.0948478 0.0578678 0
-0.0902891 0.051604 0
-0.0856034 0.0457133 0
-0.0808205 0.0401903 0
-0.0759587 0.0350265 0
-0.071025 0.0302114 0
-0.0660156 0.0257343 0
-0.0609163 0.021586 0
-0.0557034 0.0177597 0
-0.0503443 0.014253 0
-0.0447981 0.0110691 0
-0.039016 0.00821788 0
-0.032942 0.00571836 0
-0.0265124 0.00360046 0
-0.0196558 0.00190051 0
-0.0122932 0.000672496 0
-0.00433458 9.2652e-05 0
0.899511 0.00117263 0
0.70531 0.00976157 0
0.534558 0.0268099 0
0.393323 0.0471976 0
0.28097 0.068618 0
0.193622 0.0893402 0
0.126447 0.1083 0
0.0748555 0.124948 0
0.0349773 0.139049 0
0.00376132 0.150569 0
-0.021049 0.159551 0
-0.0411005 0.166076 0
-0.0576693 0.170348 0
-0.0716142 0.172547 0
-0.0834984 0.172862 0
-0.0936802 0.171485 0
-0.102379 0.168609 0
-0.109728 0.164425 0
-0.115804 0.159127 0
-0.120659 0.152901 0
-0.124334 0.145932 0
-0.126874 0.138395 0
-0.128329 0.130453 0
-0.128764 0.122258 0
-0.128253 0.113948 0
-0.126881 0.10564 0
-0.124742 0.0974373 0
-0.121934 0.0894252 0
-0.118556 0.0816709 0
-0.114703 0.0742263 0
-0.110467 0.067128 0
-0.105929 0.0604 0
-0.101161 0.0540547 0
-0.0962242 0.0480954 0
-0.0911645 0.0425183 0
-0.0860165 0.0373139 0
-0.0808011 0.0324697 0
-0.0755263 0.027971 0
-0.0701876 0.0238032 0
-0.0647689 0.0199533 0
-0.0592428 0.016411 0
-0.0535718 0.0131703 0
-0.0477086 0.010231 0
-0.0415965 0.00759985 0
-0.03517 0.0052927 0
-0.0283541 0.00333617 0
-0.0210642 0.00176356 0
-0.0132062 0.000625369 0
-0.00467276 8.65905e-05 0
0.90431 0.0010486 0