# vtk DataFile Version 3.0
Malha 2D com triângulos: velocidade e pressão
ASCII
DATASET UNSTRUCTURED_GRID

POINTS 2500 double
0 0 0
1 0 0
1 1 0
0 1 0
0.0204082 0 0
0.0408163 0 0
0.0612245 0 0
0.0816327 0 0
0.102041 0 0
0.122449 0 0
0.142857 0 0
0.163265 0 0
0.183673 0 0
0.204082 0 0
0.22449 0 0
0.244898 0 0
0.265306 0 0
0.285714 0 0
0.306122 0 0
0.326531 0 0
0.346939 0 0
0.367347 0 0
0.387755 0 0
0.408163 0 0
0.428571 0 0
0.44898 0 0
0.469388 0 0
0.489796 0 0
0.510204 0 0
0.530612 0 0
0.55102 0 0
0.571429 0 0
0.591837 0 0
0.612245 0 0
0.632653 0 0
0.653061 0 0
0.673469 0 0
0.693878 0 0
0.714286 0 0
0.734694 0 0
0.755102 0 0
0.77551 0 0
0.795918 0 0
0.816327 0 0
0.836735 0 0
0.857143 0 0
0.877551 0 0
0.897959 0 0
0.918367 0 0
0.938776 0 0
0.959184 0 0
0.979592 0 0
1 0.0204082 0
1 0.0408163 0
1 0.0612245 0
1 0.0816327 0
1 0.102041 0
1 0.122449 0
1 0.142857 0
1 0.163265 0
1 0.183673 0
1 0.204082 0
1 0.22449 0
1 0.244898 0
1 0.265306 0
1 0.285714 0
1 0.306122 0
1 0.326531 0
1 0.346939 0
1 0.367347 0
1 0.387755 0
1 0.408163 0
1 0.428571 0
1 0.44898 0
1 0.469388 0
1 0.489796 0
1 0.510204 0
1 0.530612 0
1 0.55102 0
1 0.571429 0
1 0.591837 0
1 0.612245 0
1 0.632653 0
1 0.653061 0
1 0.673469 0
1 0.693878 0
1 0.714286 0
1 0.734694 0
1 0.755102 0
1 0.77551 0
1 0.795918 0
1 0.816327 0
1 0.836735 0
1 0.857143 0
1 0.877551 0
1 0.897959 0
1 0.918367 0
1 0.938776 0
1 0.959184 0
1 0.979592 0
0.979592 1 0
0.959184 1 0
0.938776 1 0
0.918367 1 0
0.897959 1 0
0.877551 1 0
0.857143 1 0
0.836735 1 0
0.816327 1 0
0.795918 1 0
0.77551 1 0
0.755102 1 0
0.734694 1 0
0.714286 1 0
0.693878 1 0
0.673469 1 0
0.653061 1 0
0.632653 1 0
0.612245 1 0
0.591837 1 0
0.571429 1 0
0.55102 1 0
0.530612 1 0
0.510204 1 0
0.489796 1 0
0.469388 1 0
0.44898 1 0
0.428571 1 0
0.408163 1 0
0.387755 1 0
0.367347 1 0
0.346939 1 0
0.326531 1 0
0.306122 1 0
0.285714 1 0
0.265306 1 0
0.244898 1 0
0.22449 1 0
0.204082 1 0
0.183673 1 0
0.163265 1 0
0.142857 1 0
0.122449 1 0
0.102041 1 0
0.0816327 1 0
0.0612245 1 0
0.0408163 1 0
0.0204082 1 0
0 0.979592 0
0 0.959184 0
0 0.938776 0
0 0.918367 0
0 0.897959 0
0 0.877551 0
0 0.857143 0
0 0.836735 0
0 0.816327 0
0 0.795918 0
0 0.77551 0
0 0.755102 0
0 0.734694 0
0 0.714286 0
0 0.693878 0
0 0.673469 0
0 0.653061 0
0 0.632653 0
0 0.612245 0
0 0.591837 0
0 0.571429 0
0 0.55102 0
0 0.530612 0
0 0.510204 0
0 0.489796 0
0 0.469388 0
0 0.44898 0
0 0.428571 0
0 0.408163 0
0 0.387755 0
0 0.367347 0
0 0.346939 0
0 0.326531 0
0 0.306122 0
0 0.285714 0
0 0.265306 0
0 0.244898 0
0 0.22449 0
0 0.204082 0
0 0.183673 0
0 0.163265 0
0 0.142857 0
0 0.122449 0
0 0.102041 0
0 0.0816327 0
0 0.0612245 0
0 0.0408163 0
0 0.0204082 0
0.0204082 0.979592 0
0.0204082 0.959184 0
0.0204082 0.938776 0
0.0204082 0.918367 0
0.0204082 0.897959 0
0.0204082 0.877551 0
0.0204082 0.857143 0
0.0204082 0.836735 0
0.0204082 0.816327 0
0.0204082 0.795918 0
0.0204082 0.77551 0
0.0204082 0.755102 0
0.0204082 0.734694 0
0.0204082 0.714286 0
0.0204082 0.693878 0
0.0204082 0.673469 0
0.0204082 0.653061 0
0.0204082 0.632653 0
0.0204082 0.612245 0
0.0204082 0.591837 0
0.0204082 0.571429 0
0.0204082 0.55102 0
0.0204082 0.530612 0
0.0204082 0.510204 0
0.0204082 0.489796 0
0.0204082 0.469388 0
0.0204082 0.44898 0
0.0204082 0.428571 0
0.0204082 0.408163 0
0.0204082 0.387755 0
0.0204082 0.367347 0
0.0204082 0.346939 0
0.0204082 0.326531 0
0.0204082 0.306122 0
0.0204082 0.285714 0
0.0204082 0.265306 0
0.0204082 0.244898 0
0.0204082 0.22449 0
0.0204082 0.204082 0
0.0204082 0.183673 0
0.0204082 0.163265 0
0.0204082 0.142857 0
0.0204082 0.122449 0
0.0204082 0.102041 0
0.0204082 0.0816327 0
0.0204082 0.0612245 0
0.0204082 0.0408163 0
0.0204082 0.0204082 0
0.0408163 0.979592 0
0.0408163 0.959184 0
0.0408163 0.938776 0
0.0408163 0.918367 0
0.0408163 0.897959 0
0.0408163 0.877551 0
0.0408163 0.857143 0
0.0408163 0.836735 0
0.0408163 0.816327 0
0.0408163 0.795918 0
0.0408163 0.77551 0
0.0408163 0.755102 0
0.0408163 0.734694 0
0.0408163 0.714286 0
0.0408163 0.693878 0
0.0408163 0.673469 0
0.0408163 0.653061 0
0.0408163 0.632653 0
0.0408163 0.612245 0
0.0408163 0.591837 0
0.0408163 0.571429 0
0.0408163 0.55102 0
0.0408163 0.530612 0
0.0408163 0.510204 0
0.0408163 0.489796 0
0.0408163 0.469388 0
0.0408163 0.44898 0
0.0408163 0.428571 0
0.0408163 0.408163 0
0.0408163 0.387755 0
0.0408163 0.367347 0
0.0408163 0.346939 0
0.0408163 0.326531 0
0.0408163 0.306122 0
0.0408163 0.285714 0
0.0408163 0.265306 0
0.0408163 0.244898 0
0.0408163 0.22449 0
0.0408163 0.204082 0
0.0408163 0.183673 0
0.0408163 0.163265 0
0.0408163 0.142857 0
0.0408163 0.122449 0
0.0408163 0.102041 0
0.0408163 0.0816327 0
0.0408163 0.0612245 0
0.0408163 0.0408163 0
0.0408163 0.0204082 0
0.0612245 0.979592 0
0.0612245 0.959184 0
0.0612245 0.938776 0
0.0612245 0.918367 0
0.0612245 0.897959 0
0.0612245 0.877551 0
0.0612245 0.857143 0
0.0612245 0.836735 0
0.0612245 0.816327 0
0.0612245 0.795918 0
0.0612245 0.77551 0
0.0612245 0.755102 0
0.0612245 0.734694 0
0.0612245 0.714286 0
0.0612245 0.693878 0
0.0612245 0.673469 0
0.0612245 0.653061 0
0.0612245 0.632653 0
0.0612245 0.612245 0
0.0612245 0.591837 0
0.0612245 0.571429 0
0.0612245 0.55102 0
0.0612245 0.530612 0
0.0612245 0.510204 0
0.0612245 0.489796 0
0.0612245 0.469388 0
0.0612245 0.44898 0
0.0612245 0.428571 0
0.0612245 0.408163 0
0.0612245 0.387755 0
0.0612245 0.367347 0
0.0612245 0.346939 0
0.0612245 0.326531 0
0.0612245 0.306122 0
0.0612245 0.285714 0
0.0612245 0.265306 0
0.0612245 0.244898 0
0.0612245 0.22449 0
0.0612245 0.204082 0
0.0612245 0.183673 0
0.0612245 0.163265 0
0.0612245 0.142857 0
0.0612245 0.122449 0
0.0612245 0.102041 0
0.0612245 0.0816327 0
0.0612245 0.0612245 0
0.0612245 0.0408163 0
0.0612245 0.0204082 0
0.0816327 0.979592 0
0.0816327 0.959184 0
0.0816327 0.938776 0
0.0816327 0.918367 0
0.0816327 0.897959 0
0.0816327 0.877551 0
0.0816327 0.857143 0
0.0816327 0.836735 0
0.0816327 0.816327 0
0.0816327 0.795918 0
0.0816327 0.77551 0
0.0816327 0.755102 0
0.0816327 0.734694 0
0.0816327 0.714286 0
0.0816327 0.693878 0
0.0816327 0.673469 0
0.0816327 0.653061 0
0.0816327 0.632653 0
0.0816327 0.612245 0
0.0816327 0.591837 0
0.0816327 0.571429 0
0.0816327 0.55102 0
0.0816327 0.530612 0
0.0816327 0.510204 0
0.0816327 0.489796 0
0.0816327 0.469388 0
0.0816327 0.44898 0
0.0816327 0.428571 0
0.0816327 0.408163 0
0.0816327 0.387755 0
0.0816327 0.367347 0
0.0816327 0.346939 0
0.0816327 0.326531 0
0.0816327 0.306122 0
0.0816327 0.285714 0
0.0816327 0.265306 0
0.0816327 0.244898 0
0.0816327 0.22449 0
0.0816327 0.204082 0
0.0816327 0.183673 0
0.0816327 0.163265 0
0.0816327 0.142857 0
0.0816327 0.122449 0
0.0816327 0.102041 0
0.0816327 0.0816327 0
0.0816327 0.0612245 0
0.0816327 0.0408163 0
0.0816327 0.0204082 0
0.102041 0.979592 0
0.102041 0.959184 0
0.102041 0.938776 0
0.102041 0.918367 0
0.102041 0.897959 0
0.102041 0.877551 0
0.102041 0.857143 0
0.102041 0.836735 0
0.102041 0.816327 0
0.102041 0.795918 0
0.102041 0.77551 0
0.102041 0.755102 0
0.102041 0.734694 0
0.102041 0.714286 0
0.102041 0.693878 0
0.102041 0.673469 0
0.102041 0.653061 0
0.102041 0.632653 0
0.102041 0.612245 0
0.102041 0.591837 0
0.102041 0.571429 0
0.102041 0.55102 0
0.102041 0.530612 0
0.102041 0.510204 0
0.102041 0.489796 0
0.102041 0.469388 0
0.102041 0.44898 0
0.102041 0.428571 0
0.102041 0.408163 0
0.102041 0.387755 0
0.102041 0.367347 0
0.102041 0.346939 0
0.102041 0.326531 0
0.102041 0.306122 0
0.102041 0.285714 0
0.102041 0.265306 0
0.102041 0.244898 0
0.102041 0.22449 0
0.102041 0.204082 0
0.102041 0.183673 0
0.102041 0.163265 0
0.102041 0.142857 0
0.102041 0.122449 0
0.102041 0.102041 0
0.102041 0.0816327 0
0.102041 0.0612245 0
0.102041 0.0408163 0
0.102041 0.0204082 0
0.122449 0.979592 0
0.122449 0.959184 0
0.122449 0.938776 0
0.122449 0.918367 0
0.122449 0.897959 0
0.122449 0.877551 0
0.122449 0.857143 0
0.122449 0.836735 0
0.122449 0.816327 0
0.122449 0.795918 0
0.122449 0.77551 0
0.122449 0.755102 0
0.122449 0.734694 0
0.122449 0.714286 0
0.122449 0.693878 0
0.122449 0.673469 0
0.122449 0.653061 0
0.122449 0.632653 0
0.122449 0.612245 0
0.122449 0.591837 0
0.122449 0.571429 0
0.122449 0.55102 0
0.122449 0.530612 0
0.122449 0.510204 0
0.122449 0.489796 0
0.122449 0.469388 0
0.122449 0.44898 0
0.122449 0.428571 0
0.122449 0.408163 0
0.122449 0.387755 0
0.122449 0.367347 0
0.122449 0.346939 0
0.122449 0.326531 0
0.122449 0.306122 0
0.122449 0.285714 0
0.122449 0.265306 0
0.122449 0.244898 0
0.122449 0.22449 0
0.122449 0.204082 0
0.122449 0.183673 0
0.122449 0.163265 0
0.122449 0.142857 0
0.122449 0.122449 0
0.122449 0.102041 0
0.122449 0.0816327 0
0.122449 0.0612245 0
0.122449 0.0408163 0
0.122449 0.0204082 0
0.142857 0.979592 0
0.142857 0.959184 0
0.142857 0.938776 0
0.142857 0.918367 0
0.142857 0.897959 0
0.142857 0.877551 0
0.142857 0.857143 0
0.142857 0.836735 0
0.142857 0.816327 0
0.142857 0.795918 0
0.142857 0.77551 0
0.142857 0.755102 0
0.142857 0.734694 0
0.142857 0.714286 0
0.142857 0.693878 0
0.142857 0.673469 0
0.142857 0.653061 0
0.142857 0.632653 0
0.142857 0.612245 0
0.142857 0.591837 0
0.142857 0.571429 0
0.142857 0.55102 0
0.142857 0.530612 0
0.142857 0.510204 0
0.142857 0.489796 0
0.142857 0.469388 0
0.142857 0.44898 0
0.142857 0.428571 0
0.142857 0.408163 0
0.142857 0.387755 0
0.142857 0.367347 0
0.142857 0.346939 0
0.142857 0.326531 0
0.142857 0.306122 0
0.142857 0.285714 0
0.142857 0.265306 0
0.142857 0.244898 0
0.142857 0.22449 0
0.142857 0.204082 0
0.142857 0.183673 0
0.142857 0.163265 0
0.142857 0.142857 0
0.142857 0.122449 0
0.142857 0.102041 0
0.142857 0.0816327 0
0.142857 0.0612245 0
0.142857 0.0408163 0
0.142857 0.0204082 0
0.163265 0.979592 0
0.163265 0.959184 0
0.163265 0.938776 0
0.163265 0.918367 0
0.163265 0.897959 0
0.163265 0.877551 0
0.163265 0.857143 0
0.163265 0.836735 0
0.163265 0.816327 0
0.163265 0.795918 0
0.163265 0.77551 0
0.163265 0.755102 0
0.163265 0.734694 0
0.163265 0.714286 0
0.163265 0.693878 0
0.163265 0.673469 0
0.163265 0.653061 0
0.163265 0.632653 0
0.163265 0.612245 0
0.163265 0.591837 0
0.163265 0.571429 0
0.163265 0.55102 0
[...]
CELL_DATA 2401
VECTORS velocity double
0.257357 0.157466 0
-0.00269066 0.264614 0
-0.0322868 0.205546 0
-0.0253628 0.150724 0
-0.0160483 0.113223 0
-0.00970182 0.0878691 0
-0.00593832 0.0707644 0
-0.00376334 0.0590068 0
-0.00248744 0.0506947 0
-0.00171473 0.0446493 0
-0.00122966 0.0401298 0
-0.000915319 0.0366578 0
-0.000706765 0.0339145 0
-0.000566468 0.0316816 0
-0.000471718 0.0298062 0
-0.000408131 0.0281794 0
-0.000366211 0.026723 0
-0.000339459 0.0253804 0
-0.000323287 0.0241112 0
-0.000314377 0.0228866 0
-0.000310275 0.021687 0
-0.000309146 0.0204995 0
-0.000309601 0.0193164 0
-0.000310595 0.018134 0
-0.000311347 0.0169518 0
-0.000311285 0.0157715 0
-0.00031001 0.0145965 0
-0.000307262 0.0134312 0
-0.000302894 0.012281 0
-0.000296845 0.0111514 0
-0.000289127 0.0100483 0
-0.000279799 0.00897722 0
-0.000268954 0.00794379 0
-0.000256703 0.00695311 0
-0.000243158 0.00601002 0
-0.000228425 0.00511898 0
-0.000212587 0.00428414 0
-0.000195696 0.00350943 0
-0.000177761 0.0027986 0
-0.000158738 0.00215537 0
-0.00013852 0.00158354 0
-0.000116928 0.00108709 0
-9.37148e-05 0.000670311 0
-6.86056e-05 0.000337713 0
-4.14485e-05 9.37464e-05 0
-1.26718e-05 -5.81392e-05 0
1.55296e-05 -0.000117677 0
3.67343e-05 -9.58052e-05 0
3.36552e-05 -3.34938e-05 0
0.340631 0.122973 0
-0.000576232 0.249495 0
-0.0651587 0.271797 0
-0.0632029 0.252419 0
-0.0485109 0.221947 0
-0.0350082 0.192059 0
-0.0250106 0.166554 0
-0.0180301 0.145936 0
-0.0132193 0.1296 0
-0.00989091 0.116704 0
-0.00756746 0.10646 0
-0.00593219 0.0982186 0
-0.00477572 0.0914672 0
-0.00395772 0.0858123 0
-0.00338213 0.0809546 0
-0.00298174 0.0766677 0
-0.00270843 0.0727817 0
-0.00252713 0.0691698 0
-0.00241177 0.0657387 0
-0.00234275 0.0624213 0
-0.00230511 0.0591704 0
-0.00228735 0.055955 0
-0.00228066 0.0527564 0
-0.00227827 0.0495654 0
-0.00227505 0.0463807 0
-0.00226721 0.0432061 0
-0.00225204 0.0400498 0
-0.00222772 0.0369229 0
-0.00219315 0.0338384 0
-0.00214779 0.0308104 0
-0.00209158 0.0278532 0
-0.00202474 0.0249812 0
-0.00194777 0.0222084 0
-0.00186124 0.0195481 0
-0.00176581 0.0170127 0
-0.00166209 0.014614 0
-0.0015506 0.0123629 0
-0.00143172 0.0102697 0
-0.00130567 0.00834427 0
-0.00117245 0.00659618 0
-0.00103188 0.00503481 0
-0.000883666 0.00366946 0
-0.000727538 0.00250921 0
-0.000563676 0.00156239 0
-0.000393564 0.000835369 0
-0.000221926 0.000330094 0
-6.07193e-05 3.94719e-05 0
6.41235e-05 -6.26595e-05 0
9.53358e-05 -3.57477e-05 0
0.500944 0.076817 0
0.0992399 0.183316 0
-0.0391982 0.249419 0
-0.0733281 0.265965 0
-0.0718966 0.257665 0
-0.0607181 0.239808 0
-0.04859 0.219656 0
-0.0381316 0.200499 0
-0.0298218 0.183556 0
-0.0234549 0.169051 0
-0.0186658 0.156782 0
-0.015104 0.146401 0
-0.0124791 0.137538 0
-0.0105637 0.129855 0
-0.00918331 0.123063 0
-0.00820475 0.116928 0
-0.0075264 0.111264 0
-0.00707025 0.105924 0
-0.00677604 0.100799 0
-0.00659696 0.0958078 0
-0.00649649 0.0908942 0
-0.00644605 0.0860206 0
-0.00642334 0.0811648 0
-0.00641111 0.0763173 0
-0.00639616 0.0714782 0
-0.00636865 0.066655 0
-0.0063215 0.0618606 0
-0.00624989 0.0571118 0
-0.00615088 0.0524279 0
-0.006023 0.0478295 0
-0.00586593 0.043338 0
-0.00568021 0.0389742 0
-0.005467 0.0347589 0
-0.00522776 0.0307114 0
-0.00496414 0.0268502 0
-0.0046777 0.0231927 0
-0.00436987 0.0197549 0
-0.00404175 0.0165521 0
-0.0036941 0.0135987 0
-0.00332734 0.0109085 0
-0.00294164 0.00849451 0
-0.00253716 0.00636934 0
-0.00211465 0.00454447 0
-0.00167647 0.00302948 0
-0.00122854 0.00183045 0
-0.000784173 0.000947206 0
-0.000370647 0.000367849 0
-3.8584e-05 6.20476e-05 0
0.000115087 -1.37964e-05 0
0.610142 0.0480584 0
0.195869 0.134048 0
0.0115664 0.209583 0
-0.0579629 0.246623 0
-0.0761565 0.257115 0
-0.0739971 0.253552 0
-0.0649103 0.243115 0
-0.0544898 0.230055 0
-0.0448992 0.21664 0
-0.0368231 0.203936 0
-0.0303321 0.192348 0
-0.0252652 0.181937 0
-0.0213947 0.172597 0
-0.0184942 0.164158 0
-0.0163625 0.156434 0
-0.0148306 0.149254 0
-0.0137594 0.142466 0
-0.0130363 0.13595 0
-0.0125707 0.129607 0
-0.0122895 0.123367 0
-0.0121344 0.117178 0
-0.0120589 0.111008 0
-0.012026 0.104839 0
-0.012007 0.0986684 0
-0.0119795 0.0924997 0
-0.0119268 0.0863464 0
-0.011837 0.0802269 0
-0.0117017 0.0741636 0
-0.0115161 0.0681818 0
-0.0112775 0.0623077 0
-0.0109855 0.056568 0
-0.0106412 0.0509893 0
-0.0102465 0.045597 0
-0.00980417 0.0404154 0
-0.00931703 0.0354673 0
-0.00878799 0.0307743 0
-0.00821966 0.0263563 0
-0.00761421 0.022232 0
-0.00697334 0.0184189 0
-0.00629829 0.0149336 0
-0.00559011 0.0117914 0
-0.00485016 0.00900681 0
-0.00408106 0.0065923 0
-0.0032884 0.00455791 0
-0.00248364 0.00290952 0
-0.00168903 0.0016467 0
-0.000945722 0.000757303 0
-0.000323712 0.000215808 0
5.43447e-05 1.40779e-05 0
0.680569 0.030166 0
0.278683 0.0982397 0
0.0698025 0.171072 0
-0.0274536 0.21755 0
-0.0654538 0.24091 0
-0.0751345 0.249216 0
-0.0723125 0.248388 0
-0.0647179 0.242535 0
-0.0559978 0.234244 0
-0.0477753 0.225018 0
-0.0406794 0.215671 0
-0.034863 0.206596 0
-0.0302633 0.19794 0
-0.0267305 0.189717 0
-0.0240912 0.181872 0
-0.0221766 0.174325 0
-0.0208349 0.166992 0
-0.0199346 0.159795 0
-0.0193648 0.152672 0
-0.0190327 0.145573 0
-0.0188623 0.138466 0
-0.0187913 0.131333 0
-0.0187698 0.124169 0
-0.0187582 0.116977 0
-0.0187257 0.109771 0
-0.0186492 0.102573 0
-0.018512 0.0954064 0
-0.0183027 0.088301 0
-0.0180145 0.0812872 0
-0.0176443 0.0743966 0
-0.0171917 0.0676606 0
-0.0166584 0.0611102 0
-0.0160478 0.0547746 0
-0.015364 0.0486818 0
-0.0146114 0.042858 0
-0.0137946 0.0373273 0
-0.0129177 0.0321125 0
-0.0119842 0.0272344 0
-0.0109971 0.0227126 0
-0.00995896 0.0185652 0
-0.00887206 0.014809 0
-0.00773944 0.0114591 0
-0.00656609 0.00852893 0
-0.00536114 0.00602893 0
-0.00414125 0.00396584 0
-0.00293613 0.0023414 0
-0.00179674 0.0011473 0
-0.000804565 0.000368641 0
-9.27015e-05 4.06865e-05 0
0.729985 0.0191851 0
0.349226 0.0730584 0
0.128084 0.139294 0
0.0111767 0.188178 0
-0.0446524 0.219369 0
-0.0667015 0.236242 0
-0.0716872 0.243341 0
-0.0686702 0.244142 0
-0.0624254 0.241115 0
-0.0553912 0.235883 0
-0.0487438 0.229461 0
-0.0429848 0.222448 0
-0.0382636 0.215178 0
-0.0345532 0.207816 0
-0.0317458 0.20043 0
-0.0297031 0.193034 0
-0.0282828 0.185614 0
-0.0273512 0.178147 0
-0.0267885 0.170612 0
-0.0264911 0.162992 0
-0.0263706 0.155279 0
-0.0263536 0.147475 0
-0.02638 0.13959 0
-0.0264016 0.131642 0
-0.0263807 0.123656 0
-0.026289 0.11566 0
-0.0261061 0.107689 0
-0.0258184 0.0997768 0
-0.025418 0.091961 0
-0.0249016 0.0842779 0
-0.0242696 0.0767632 0
-0.0235249 0.0694515 0
-0.0226726 0.0623753 0
-0.0217186 0.0555652 0
-0.0206694 0.0490496 0
-0.0195314 0.0428546 0
-0.0183106 0.0370044 0
-0.0170123 0.0315213 0
-0.0156409 0.0264257 0
-0.0142004 0.0217365 0
-0.0126949 0.0174712 0
-0.011129 0.0136455 0
-0.00951016 0.0102733 0
-0.00785055 0.00736611 0
-0.00617084 0.00493285 0
-0.00450556 0.00297948 0
-0.00291071 0.0015044 0
-0.00147141 0.000506165 0
-0.000318861 6.34233e-05 0
0.765989 0.0125761 0
0.408621 0.05567 0
0.182979 0.114436 0
0.0525259 0.162382 0
-0.0177071 0.197327 0
-0.0513213 0.219896 0
-0.0645296 0.23294 0
-0.0670106 0.239231 0
-0.0642932 0.240916 0
-0.0594484 0.239539 0
-0.0541237 0.236159 0
-0.0491501 0.231474 0
-0.0448969 0.225928 0
-0.0414782 0.219795 0
-0.0388728 0.213236 0
-0.0369924 0.206344 0
-0.035721 0.199171 0
-0.0349361 0.191746 0
-0.0345199 0.184091 0
-0.0343656 0.176223 0
-0.0343792 0.168161 0
-0.0344807 0.15993 0
-0.0346035 0.151558 0
-0.0346936 0.143078 0
-0.0347088 0.134526 0
-0.0346172 0.125944 0
-0.0343962 0.117372 0
-0.0340313 0.108854 0
-0.0335144 0.100431 0
-0.0328429 0.0921461 0
-0.0320189 0.0840381 0
-0.0310471 0.076145 0
-0.0299348 0.0685019 0
-0.0286903 0.0611414 0
-0.0273225 0.0540933 0
-0.0258402 0.0473848 0
-0.0242513 0.0410409 0
-0.0225632 0.0350841 0
-0.0207821 0.0295353 0
-0.0189136 0.0244135 0
-0.0169632 0.0197363 0
-0.0149374 0.0155198 0
-0.0128454 0.0117787 0
-0.0107014 0.00852605 0
-0.00852822 0.00577395 0
-0.00636233 0.00353397 0
-0.00425999 0.0018127 0
-0.00230335 0.00062274 0
-0.000612918 8.17572e-05 0
0.792996 0.00858364 0
0.458599 0.0435511 0
0.233317 0.0952037 0
0.0939644 0.140698 0
0.012835 0.176676 0
-0.0311856 0.20282 0
-0.0524162 0.220093 0
-0.0607423 0.230653 0
-0.0621498 0.236261 0
-0.0601679 0.238293 0
-0.0568202 0.23776 0
-0.0532219 0.23538 0
-0.0499462 0.231648 0
-0.0472476 0.2269 0
-0.045198 0.221364 0
-0.0437691 0.215191 0
-0.0428809 0.208485 0
-0.0424312 0.201323 0
-0.0423126 0.193763 0
-0.0424215 0.185855 0
-0.042664 0.177646 0
-0.0429577 0.169182 0
-0.0432333 0.160511 0
-0.043434 0.151681 0
-0.0435154 0.142743 0
-0.0434441 0.133748 0
-0.0431972 0.124746 0
-0.0427603 0.115788 0
-0.0421266 0.106922 0
-0.0412956 0.0981945 0
-0.0402715 0.0896496 0
-0.0390619 0.0813275 0
-0.0376769 0.0732655 0
-0.0361279 0.0654975 0
-0.0344265 0.0580542 0
-0.0325844 0.0509631 0
-0.0306118 0.0442493 0
-0.0285182 0.0379352 0
-0.0263118 0.0320412 0
-0.0239996 0.0265861 0
-0.0215887 0.0215873 0
-0.0190867 0.017061 0
-0.0165038 0.0130229 0
-0.013855 0.00948816 0
-0.0111634 0.00647241 0
-0.00846415 0.00399346 0
-0.00580983 0.00206643 0
-0.00327454 0.000717112 0
-0.000962557 9.59495e-05 0
0.813955 0.00612935 0
0.50097 0.0349577 0
0.278952 0.0803239 0
0.13405 0.122804 0
0.04452 0.158484 0
-0.00807883 0.186352 0
-0.0367391 0.206498 0
-0.0508813 0.22022 0
-0.0566808 0.228942 0
-0.0579676 0.233831 0
-0.0570483 0.235802 0
-0.0552695 0.235543 0
-0.0533806 0.233558 0
-0.0517647 0.230211 0
-0.0505843 0.225768 0
-0.0498724 0.22042 0
-0.0495896 0.21431 0
-0.0496592 0.207551 0
-0.0499888 0.200233 0
-0.0504834 0.192435 0
-0.0510528 0.184228 0
-0.0516164 0.17568 0
-0.0521051 0.166856 0
-0.0524621 0.157821 0
-0.0526431 0.148639 0
-0.0526154 0.139371 0
-0.0523572 0.130077 0
-0.0518562 0.120816 0
-0.0511083 0.111641 0
-0.0501158 0.102605 0
-0.0488866 0.0937539 0
-0.0474318 0.0851313 0
-0.0457653 0.076776 0
-0.0439021 0.0687228 0
-0.0418573 0.0610027 0
-0.0396453 0.0536431 0
-0.0372796 0.0466684 0
-0.0347716 0.0401003 0
-0.0321314 0.0339584 0
-0.0293677 0.0282608 0
-0.0264884 0.0230242 0
-0.0235017 0.0182653 0
-0.020418 0.0140004 0
-0.0172516 0.0102468 0
-0.0140235 0.00702397 0
-0.0107653 0.00435575 0
-0.00752258 0.00226538 0
-0.00435779 0.000790107 0
-0.00135581 0.000106511 0
0.830746 0.00458068 0
0.537258 0.0287319 0
0.320191 0.0687065 0
0.172189 0.108047 0
0.0763513 0.142683 0
0.0168205 0.171059 0
-0.0185941 0.193034 0
-0.0383195 0.209028 0
-0.0485589 0.220139 0
-0.0533222 0.227339 0
-0.055118 0.231426 0
-0.0554731 0.23303 0
-0.0552824 0.232638 0
-0.0550407 0.230618 0
-0.0549922 0.227252 0
-0.0552286 0.222756 0
-0.0557509 0.217299 0
-0.0565094 0.21102 0
-0.0574296 0.204035 0
-0.0584275 0.196446 0
-0.0594199 0.188345 0
-0.0603304 0.17982 0
-0.0610927 0.170953 0
-0.0616522 0.161823 0
-0.061967 0.152507 0
-0.0620068 0.143077 0
-0.0617531 0.133602 0
-0.0611969 0.124148 0
-0.0603382 0.114776 0
-0.0591837 0.105541 0
-0.0577458 0.0964929 0
-0.0560404 0.0876781 0
-0.0540859 0.0791364 0
-0.0519016 0.070903 0
-0.0495066 0.0630089 0
-0.046919 0.0554806 0
-0.0441549 0.0483415 0
-0.0412284 0.041612 0
-0.0381515 0.0353105 0
-0.0349339 0.0294538 0
-0.0315842 0.0240581 0
-0.0281105 0.0191397 0
-0.0245221 0.0147158 0
-0.0208312 0.0108054 0
-0.0170552 0.00743169 0
-0.0132196 0.00462384 0
-0.00936048 0.00241217 0
-0.00552652 0.000843436 0
-0.00178168 0.000113986 0
0.844568 0.00357105 0
0.568668 0.0241181 0
0.357466 0.0595351 0
0.20811 0.0958557 0
0.107576 0.129071 0
0.0422931 0.15732 0
0.00117993 0.180152 0
-0.0237861 0.197729 0
-0.0383803 0.21062 0
-0.0466922 0.219635 0
-0.0513657 0.225454 0
-0.0540633 0.228641 0
-0.0557967 0.229647 0
-0.0571534 0.228829 0
-0.0584489 0.226471 0
-0.0598272 0.222799 0
-0.0613269 0.218 0
-0.0629248 0.212228 0
-0.0645645 0.205621 0
-0.0661742 0.198298 0
-0.0676793 0.19037 0
-0.0690094 0.181941 0
-0.0701029 0.173108 0
-0.0709093 0.163964 0
-0.0713905 0.154597 0
-0.0715209 0.145091 0
-0.0712864 0.135523 0
-0.0706833 0.125966 0
-0.0697168 0.116486 0
-0.0683996 0.107142 0
-0.0667497 0.0979898 0
-0.0647889 0.0890747 0
-0.0625408 0.0804384 0
-0.06003 0.0721161 0
-0.0572801 0.0641379 0
-0.0543131 0.0565294 0
-0.0511484 0.0493122 0
-0.0478028 0.0425052 0
-0.0442897 0.036125 0
-0.0406201 0.0301867 0
-0.0368025 0.0247056 0
-0.0328441 0.0196973 0
-0.0287521 0.0151793 0
-0.0245354 0.0111725 0
-0.020206 0.00770247 0
-0.0157816 0.00480316 0
-0.0112871 0.00251065 0
-0.00675579 0.000879059 0
-0.00223032 0.000118865 0
0.85621 0.00288702 0
0.596144 0.020616 0
0.391249 0.0521928 0
0.241789 0.0857047 0
0.137846 0.117324 0
0.0678585 0.145039 0
0.0218334 0.168145 0
-0.00789488 0.186689 0
-0.0266614 0.200867 0
-0.0384976 0.211266 0
-0.0461192 0.218465 0
-0.0512855 0.222958 0
-0.055098 0.225154 0
-0.0582194 0.225387 0
-0.0610243 0.223935 0
-0.0637015 0.221025 0
-0.0663229 0.21685 0
-0.0688892 0.211579 0
-0.0713611 0.20536 0
-0.0736793 0.198328 0
-0.0757779 0.190609 0
-0.0775936 0.18232 0
-0.0790705 0.173572 0
-0.0801638 0.164471 0
-0.080841 0.155115 0
-0.081082 0.145598 0
-0.0808791 0.136005 0
-0.0802351 0.126416 0
-0.0791623 0.116902 0
-0.0776803 0.107527 0
-0.0758141 0.0983474 0
-0.0735923 0.0894113 0
-0.071045 0.0807603 0
-0.0682026 0.0724294 0
-0.0650937 0.0644473 0
-0.061745 0.0568381 0
-0.0581793 0.0496215 0
-0.0544159 0.0428138 0
-0.0504701 0.0364297 0
-0.0463533 0.0304824 0
-0.0420736 0.0249854 0
-0.0376367 0.0199533 0
-0.0330467 0.0154038 0
-0.0283078 0.0113582 0
-0.0234254 0.00784455 0
-0.018408 0.00489991 0
-0.0132681 0.00256481 0
-0.00802263 0.000898832 0
-0.00269304 0.000121553 0
0.866202 0.00240408 0
0.620415 0.0178939 0
0.421975 0.0462275 0
0.273297 0.0771755 0
0.166947 0.107149 0
0.0931104 0.134083 0
0.0428199 0.157103 0
0.00894305 0.176067 0
-0.01381 0.191147 0
-0.0290972 0.202576 0
-0.0396771 0.210848 0
-0.0473781 0.216392 0
-0.0533699 0.219572 0
-0.0583742 0.220699 0
-0.0628134 0.220033 0
-0.0669134 0.217799 0
-0.070774 0.214193 0
-0.0744165 0.209387 0
-0.0778166 0.203541 0
-0.0809263 0.1968 0
-0.0836886 0.189301 0
-0.0860471 0.181175 0
-0.0879528 0.172543 0
-0.0893672 0.163522 0
-0.0902645 0.154221 0
-0.0906319 0.144742 0
-0.0904691 0.135179 0
-0.0897871 0.125616 0
-0.0886065 0.11613 0
-0.0869551 0.106788 0
-0.0848663 0.0976483 0
-0.0823765 0.0887606 0
-0.0795233 0.0801661 0
-0.0763434 0.0718987 0
-0.0728717 0.0639856 0
-0.0691392 0.0564486 0
-0.0651729 0.0493049 0
-0.0609947 0.0425683 0
-0.0566213 0.0362506 0
-0.0520645 0.0303626 0
-0.0473315 0.0249158 0
-0.0424256 0.0199233 0
-0.037347 0.0154019 0
-0.0320944 0.0113732 0
-0.0266653 0.0078661 0
-0.0210579 0.00492 0
-0.0152714 0.00257833 0
-0.00930593 0.000904338 0
-0.00316207 0.000122362 0
0.874912 0.0020487 0
0.642045 0.0157289 0
0.450028 0.0413067 0
0.302756 0.0699326 0
0.194784 0.0982786 0
0.117812 0.12429 0
0.0638138 0.146983 0
0.0261686 0.166069 0
-0.000174893 0.181619 0
-0.0187973 0.193786 0
-0.032305 0.20286 0
-0.0425637 0.209221 0
-0.0507931 0.213192 0
-0.0577604 0.215052 0
-0.0639252 0.215046 0
-0.0695431 0.213391 0
-0.074736 0.210279 0
-0.0795421 0.205888 0
-0.0839495 0.20038 0
-0.0879199 0.193911 0
-0.0914042 0.186628 0
-0.0943531 0.178669 0
-0.0967243 0.170168 0
-0.0984866 0.161251 0
-0.0996219 0.152035 0
-0.100126 0.142632 0
-0.100007 0.133141 0
-0.0992849 0.123652 0
-0.0979911 0.114247 0
-0.0961625 0.104995 0
-0.093842 0.0959555 0
-0.091075 0.087179 0
-0.0879074 0.0787059 0
-0.0843834 0.0705686 0
-0.0805441 0.0627921 0
-0.0764259 0.0553955 0
-0.0720598 0.0483929 0
-0.0674703 0.041795 0
-0.0626758 0.0356103 0
-0.0576881 0.029847 0
-0.0525129 0.0245136 0
-0.0471505 0.0196213 0
-0.0415967 0.0151854 0
-0.0358434 0.0112267 0
-0.0298796 0.00777434 0
-0.0236924 0.00486849 0
-0.0172669 0.00255424 0
-0.0105863 0.000896817 0
-0.00363045 0.000121513 0
0.882598 0.00177648 0
0.661469 0.0139682 0
0.475738 0.0371825 0
0.330305 0.0637075 0
0.221327 0.0904763 0
0.141812 0.11548 0
0.0845962 0.137669 0
0.043561 0.156652 0
0.0139191 0.172388 0
-0.00787142 0.185015 0
-0.0242423 0.194658 0
-0.0370483 0.201626 0
-0.0475413 0.206203 0
-0.0565212 0.208642 0
-0.0644754 0.209168 0
-0.0716814 0.207987 0
-0.0782782 0.205287 0
-0.0843164 0.201245 0
-0.089794 0.19603 0
-0.0946801 0.189801 0
-0.0989323 0.182714 0
-0.102508 0.174916 0
-0.105372 0.166549 0
-0.107501 0.157749 0
-0.108884 0.148641 0
-0.109528 0.139342 0
-0.10945 0.129959 0
-0.108682 0.120587 0
-0.107265 0.111309 0
-0.105247 0.102199 0
-0.102683 0.0933153 0
-0.0996266 0.0847086 0
-0.0961341 0.0764179 0
-0.0922576 0.0684735 0
-0.088045 0.0608978 0
-0.0835387 0.0537064 0
-0.0787736 0.0469099 0
-0.0737773 0.0405155 0
-0.0685693 0.034528 0
-0.0631612 0.028952 0
-0.0575571 0.0237929 0
-0.0517537 0.0190593 0
-0.0457415 0.0147641 0
-0.0395052 0.0109267 0
-0.0330245 0.00757519 0
-0.0262747 0.00474944 0
-0.0192263 0.00249485 0
-0.0118455 0.00087716 0
-0.00409177 0.000119147 0
0.889444 0.00155993 0
0.679025 0.0125045 0
0.499378 0.033669 0
0.35608 0.0582866 0
0.246576 0.0835409 0
0.165005 0.107491 0
0.10499 0.129054 0
0.06089 0.147761 0
0.0281873 0.163487 0
0.00347215 0.176297 0
-0.0156919 0.186317 0
-0.0310172 0.193703 0
-0.0437775 0.198719 0
-0.0547964 0.201589 0
-0.0645814 0.20252 0
-0.0734251 0.201705 0
-0.0814781 0.199328 0
-0.0887998 0.195566 0
-0.0953946 0.190587 0
-0.101237 0.184558 0
-0.106291 0.177639 0
-0.110519 0.169987 0
-0.113893 0.161751 0
-0.116396 0.153074 0
-0.11803 0.144089 0
-0.118809 0.134919 0
-0.118763 0.125677 0
-0.117935 0.116459 0
-0.11638 0.107354 0
-0.114157 0.0984342 0
-0.111333 0.0897597 0
-0.107973 0.0813791 0
-0.104143 0.0733299 0
-0.0999038 0.0656394 0
-0.0953114 0.0583265 0
-0.0904139 0.0514033 0
-0.0852507 0.0448761 0
-0.0798523 0.038748 0
-0.0742394 0.0330196 0
-0.0684232 0.0276916 0
-0.0624055 0.0227658 0
-0.0561792 0.0182473 0
-0.0497291 0.0141462 0
-0.043032 0.0104794 0
-0.0360579 0.00727323 0
-0.0287695 0.00456585 0
-0.0211228 0.00240179 0
-0.0130665 0.000845944 0
-0.00454 0.000115336 0
0.895588 0.0013814 0
0.694971 0.0112609 0
0.521172 0.0306241 0
0.380203 0.0534978 0
0.270547 0.0773004 0
0.187324 0.100171 0
0.124868 0.121017 0
0.0779951 0.139312 0
0.042452 0.154867 0
0.0149704 0.167682 0
-0.00685094 0.177867 0
-0.0246444 0.185499 0
-0.0396559 0.190795 0
-0.0527216 0.193954 0
-0.0643602 0.195165 0
-0.0748734 0.194609 0
-0.0844182 0.192464 0
-0.0930588 0.188904 0
-0.100803 0.184101 0
-0.107629 0.178225 0
-0.113505 0.171443 0
-0.118398 0.163917 0
-0.122286 0.155804 0
-0.125164 0.147254 0
-0.12704 0.138406 0
-0.127941 0.129388 0
-0.127911 0.120316 0
-0.127005 0.111292 0
-0.125291 0.102403 0
-0.122842 0.0937223 0
-0.119738 0.0853097 0
-0.116057 0.0772116 0
-0.111874 0.0694624 0
-0.107261 0.062086 0
-0.102281 0.0550974 0
-0.0969892 0.0485041 0
-0.0914289 0.042308 0
-0.0856338 0.0365075 0
-0.0796256 0.0310987 0
-0.073415 0.0260778 0
-0.0670013 0.0214424 0
-0.0603731 0.0171938 0
-0.0535091 0.0133384 0
-0.0463779 0.00989003 0
-0.0389391 0.00687198 0
-0.031143 0.00431986 0
-0.0229304 0.00227612 0
-0.0142328 0.000803492 0
-0.00496931 0.000110103 0
0.901127 0.00122915 0
0.70951 0.0101807 0
0.541302 0.0279373 0
0.402778 0.0492008 0
0.293263 0.0716068 0
0.20872 0.0933817 0
0.144132 0.113436 0
0.0947411 0.131206 0
0.0565582 0.14645 0
0.0264618 0.159118 0
0.00212475 0.169274 0
-0.0180848 0.177007 0
-0.0353207 0.182434 0
-0.050427 0.185749 0
-0.0639273 0.187118 0
-0.0761265 0.186713 0
-0.0871834 0.184708 0
-0.097163 0.181273 0
-0.106074 0.176584 0
-0.113897 0.170813 0
-0.120601 0.164132 0
-0.126159 0.156711 0
-0.130557 0.148714 0
-0.133796 0.140294 0
-0.135897 0.131596 0
-0.136899 0.122754 0
-0.13686 0.113886 0
-0.13585 0.105094 0
-0.133951 0.0964661 0
-0.131251 0.0880755 0
-0.127844 0.0799793 0
-0.123821 0.0722208 0
-0.119269 0.064831 0
-0.114269 0.0578295 0
-0.108894 0.0512264 0
-0.103203 0.0450245 0
-0.0972472 0.0392206 0
-0.0910615 0.033808 0
-0.084669 0.0287779 0
-0.0780794 0.0241216 0
-0.0712894 0.0198321 0
-0.0642831 0.0159063 0
-0.0570325 0.0123465 0
-0.0494982 0.00916267 0
-0.0416289 0.0063742 0
-0.0333623 0.00401306 0
-0.0246241 0.00211854 0
-0.0153283 0.00074995 0
-0.00537399 0.000103432 0
0.906136 0.00109496 0
0.722794 0.0092208 0
0.559911 0.0255206 0