# vtk DataFile Version 3.0
Malha 2D com triângulos: velocidade e pressão
ASCII
DATASET UNSTRUCTURED_GRID

POINTS 2500 double
0 0 0
1 0 0
1 1 0
0 1 0
0.0204082 0 0
0.0408163 0 0
0.0612245 0 0
0.0816327 0 0
0.102041 0 0
0.122449 0 0
0.142857 0 0
0.163265 0 0
0.183673 0 0
0.204082 0 0
0.22449 0 0
0.244898 0 0
0.265306 0 0
0.285714 0 0
0.306122 0 0
0.326531 0 0
0.346939 0 0
0.367347 0 0
0.387755 0 0
0.408163 0 0
0.428571 0 0
0.44898 0 0
0.469388 0 0
0.489796 0 0
0.510204 0 0
0.530612 0 0
0.55102 0 0
0.571429 0 0
0.591837 0 0
0.612245 0 0
0.632653 0 0
0.653061 0 0
0.673469 0 0
0.693878 0 0
0.714286 0 0
0.734694 0 0
0.755102 0 0
0.77551 0 0
0.795918 0 0
0.816327 0 0
0.836735 0 0
0.857143 0 0
0.877551 0 0
0.897959 0 0
0.918367 0 0
0.938776 0 0
0.959184 0 0
0.979592 0 0
1 0.0204082 0
1 0.0408163 0
1 0.0612245 0
1 0.0816327 0
1 0.102041 0
1 0.122449 0
1 0.142857 0
1 0.163265 0
1 0.183673 0
1 0.204082 0
1 0.22449 0
1 0.244898 0
1 0.265306 0
1 0.285714 0
1 0.306122 0
1 0.326531 0
1 0.346939 0
1 0.367347 0
1 0.387755 0
1 0.408163 0
1 0.428571 0
1 0.44898 0
1 0.469388 0
1 0.489796 0
1 0.510204 0
1 0.530612 0
1 0.55102 0
1 0.571429 0
1 0.591837 0
1 0.612245 0
1 0.632653 0
1 0.653061 0
1 0.673469 0
1 0.693878 0
1 0.714286 0
1 0.734694 0
1 0.755102 0
1 0.77551 0
1 0.795918 0
1 0.816327 0
1 0.836735 0
1 0.857143 0
1 0.877551 0
1 0.897959 0
1 0.918367 0
1 0.938776 0
1 0.959184 0
1 0.979592 0
0.979592 1 0
0.959184 1 0
0.938776 1 0
0.918367 1 0
0.897959 1 0
0.877551 1 0
0.857143 1 0
0.836735 1 0
0.816327 1 0
0.795918 1 0
0.77551 1 0
0.755102 1 0
0.734694 1 0
0.714286 1 0
0.693878 1 0
0.673469 1 0
0.653061 1 0
0.632653 1 0
0.612245 1 0
0.591837 1 0
0.571429 1 0
0.55102 1 0
0.530612 1 0
0.510204 1 0
0.489796 1 0
0.469388 1 0
0.44898 1 0
0.428571 1 0
0.408163 1 0
0.387755 1 0
0.367347 1 0
0.346939 1 0
0.326531 1 0
0.306122 1 0
0.285714 1 0
0.265306 1 0
0.244898 1 0
0.22449 1 0
0.204082 1 0
0.183673 1 0
0.163265 1 0
0.142857 1 0
0.122449 1 0
0.102041 1 0
0.0816327 1 0
0.0612245 1 0
0.0408163 1 0
0.0204082 1 0
0 0.979592 0
0 0.959184 0
0 0.938776 0
0 0.918367 0
0 0.897959 0
0 0.877551 0
0 0.857143 0
0 0.836735 0
0 0.816327 0
0 0.795918 0
0 0.77551 0
0 0.755102 0
0 0.734694 0
0 0.714286 0
0 0.693878 0
0 0.673469 0
0 0.653061 0
0 0.632653 0
0 0.612245 0
0 0.591837 0
0 0.571429 0
0 0.55102 0
0 0.530612 0
0 0.510204 0
0 0.489796 0
0 0.469388 0
0 0.44898 0
0 0.428571 0
0 0.408163 0
0 0.387755 0
0 0.367347 0
0 0.346939 0
0 0.326531 0
0 0.306122 0
0 0.285714 0
0 0.265306 0
0 0.244898 0
0 0.22449 0
0 0.204082 0
0 0.183673 0
0 0.163265 0
0 0.142857 0
0 0.122449 0
0 0.102041 0
0 0.0816327 0
0 0.0612245 0
0 0.0408163 0
0 0.0204082 0
0.0204082 0.979592 0
0.0204082 0.959184 0
0.0204082 0.938776 0
0.0204082 0.918367 0
0.0204082 0.897959 0
0.0204082 0.877551 0
0.0204082 0.857143 0
0.0204082 0.836735 0
0.0204082 0.816327 0
0.0204082 0.795918 0
0.0204082 0.77551 0
0.0204082 0.755102 0
0.0204082 0.734694 0
0.0204082 0.714286 0
0.0204082 0.693878 0
0.0204082 0.673469 0
0.0204082 0.653061 0
0.0204082 0.632653 0
0.0204082 0.612245 0
0.0204082 0.591837 0
0.0204082 0.571429 0
0.0204082 0.55102 0
0.0204082 0.530612 0
0.0204082 0.510204 0
0.0204082 0.489796 0
0.0204082 0.469388 0
0.0204082 0.44898 0
0.0204082 0.428571 0
0.0204082 0.408163 0
0.0204082 0.387755 0
0.0204082 0.367347 0
0.0204082 0.346939 0
0.0204082 0.326531 0
0.0204082 0.306122 0
0.0204082 0.285714 0
0.0204082 0.265306 0
0.0204082 0.244898 0
0.0204082 0.22449 0
0.0204082 0.204082 0
0.0204082 0.183673 0
0.0204082 0.163265 0
0.0204082 0.142857 0
0.0204082 0.122449 0
0.0204082 0.102041 0
0.0204082 0.0816327 0
0.0204082 0.0612245 0
0.0204082 0.0408163 0
0.0204082 0.0204082 0
0.0408163 0.979592 0
0.0408163 0.959184 0
0.0408163 0.938776 0
0.0408163 0.918367 0
0.0408163 0.897959 0
0.0408163 0.877551 0
0.0408163 0.857143 0
0.0408163 0.836735 0
0.0408163 0.816327 0
0.0408163 0.795918 0
0.0408163 0.77551 0
0.0408163 0.755102 0
0.0408163 0.734694 0
0.0408163 0.714286 0
0.0408163 0.693878 0
0.0408163 0.673469 0
0.0408163 0.653061 0
0.0408163 0.632653 0
0.0408163 0.612245 0
0.0408163 0.591837 0
0.0408163 0.571429 0
0.0408163 0.55102 0
0.0408163 0.530612 0
0.0408163 0.510204 0
0.0408163 0.489796 0
0.0408163 0.469388 0
0.0408163 0.44898 0
0.0408163 0.428571 0
0.0408163 0.408163 0
0.0408163 0.387755 0
0.0408163 0.367347 0
0.0408163 0.346939 0
0.0408163 0.326531 0
0.0408163 0.306122 0
0.0408163 0.285714 0
0.0408163 0.265306 0
0.0408163 0.244898 0
0.0408163 0.22449 0
0.0408163 0.204082 0
0.0408163 0.183673 0
0.0408163 0.163265 0
0.0408163 0.142857 0
0.0408163 0.122449 0
0.0408163 0.102041 0
0.0408163 0.0816327 0
0.0408163 0.0612245 0
0.0408163 0.0408163 0
0.0408163 0.0204082 0
0.0612245 0.979592 0
0.0612245 0.959184 0
0.0612245 0.938776 0
0.0612245 0.918367 0
0.0612245 0.897959 0
0.0612245 0.877551 0
0.0612245 0.857143 0
0.0612245 0.836735 0
0.0612245 0.816327 0
0.0612245 0.795918 0
0.0612245 0.77551 0
0.0612245 0.755102 0
0.0612245 0.734694 0
0.0612245 0.714286 0
0.0612245 0.693878 0
0.0612245 0.673469 0
0.0612245 0.653061 0
0.0612245 0.632653 0
0.0612245 0.612245 0
0.0612245 0.591837 0
0.0612245 0.571429 0
0.0612245 0.55102 0
0.0612245 0.530612 0
0.0612245 0.510204 0
0.0612245 0.489796 0
0.0612245 0.469388 0
0.0612245 0.44898 0
0.0612245 0.428571 0
0.0612245 0.408163 0
0.0612245 0.387755 0
0.0612245 0.367347 0
0.0612245 0.346939 0
0.0612245 0.326531 0
0.0612245 0.306122 0
0.0612245 0.285714 0
0.0612245 0.265306 0
0.0612245 0.244898 0
0.0612245 0.22449 0
0.0612245 0.204082 0
0.0612245 0.183673 0
0.0612245 0.163265 0
0.0612245 0.142857 0
0.0612245 0.122449 0
0.0612245 0.102041 0
0.0612245 0.0816327 0
0.0612245 0.0612245 0
0.0612245 0.0408163 0
0.0612245 0.0204082 0
0.0816327 0.979592 0
0.0816327 0.959184 0
0.0816327 0.938776 0
0.0816327 0.918367 0
0.0816327 0.897959 0
0.0816327 0.877551 0
0.0816327 0.857143 0
0.0816327 0.836735 0
0.0816327 0.816327 0
0.0816327 0.795918 0
0.0816327 0.77551 0
0.0816327 0.755102 0
0.0816327 0.734694 0
0.0816327 0.714286 0
0.0816327 0.693878 0
0.0816327 0.673469 0
0.0816327 0.653061 0
0.0816327 0.632653 0
0.0816327 0.612245 0
0.0816327 0.591837 0
0.0816327 0.571429 0
0.0816327 0.55102 0
0.0816327 0.530612 0
0.0816327 0.510204 0
0.0816327 0.489796 0
0.0816327 0.469388 0
0.0816327 0.44898 0
0.0816327 0.428571 0
0.0816327 0.408163 0
0.0816327 0.387755 0
0.0816327 0.367347 0
0.0816327 0.346939 0
0.0816327 0.326531 0
0.0816327 0.306122 0
0.0816327 0.285714 0
0.0816327 0.265306 0
0.0816327 0.244898 0
0.0816327 0.22449 0
0.0816327 0.204082 0
0.0816327 0.183673 0
0.0816327 0.163265 0
0.0816327 0.142857 0
0.0816327 0.122449 0
0.0816327 0.102041 0
0.0816327 0.0816327 0
0.0816327 0.0612245 0
0.0816327 0.0408163 0
0.0816327 0.0204082 0
0.102041 0.979592 0
0.102041 0.959184 0
0.102041 0.938776 0
0.102041 0.918367 0
0.102041 0.897959 0
0.102041 0.877551 0
0.102041 0.857143 0
0.102041 0.836735 0
0.102041 0.816327 0
0.102041 0.795918 0
0.102041 0.77551 0
0.102041 0.755102 0
0.102041 0.734694 0
0.102041 0.714286 0
0.102041 0.693878 0
0.102041 0.673469 0
0.102041 0.653061 0
0.102041 0.632653 0
0.102041 0.612245 0
0.102041 0.591837 0
0.102041 0.571429 0
0.102041 0.55102 0
0.102041 0.530612 0
0.102041 0.510204 0
0.102041 0.489796 0
0.102041 0.469388 0
0.102041 0.44898 0
0.102041 0.428571 0
0.102041 0.408163 0
0.102041 0.387755 0
0.102041 0.367347 0
0.102041 0.346939 0
0.102041 0.326531 0
0.102041 0.306122 0
0.102041 0.285714 0
0.102041 0.265306 0
0.102041 0.244898 0
0.102041 0.22449 0
0.102041 0.204082 0
0.102041 0.183673 0
0.102041 0.163265 0
0.102041 0.142857 0
0.102041 0.122449 0
0.102041 0.102041 0
0.102041 0.0816327 0
0.102041 0.0612245 0
0.102041 0.0408163 0
0.102041 0.0204082 0
0.122449 0.979592 0
0.122449 0.959184 0
0.122449 0.938776 0
0.122449 0.918367 0
0.122449 0.897959 0
0.122449 0.877551 0
0.122449 0.857143 0
0.122449 0.836735 0
0.122449 0.816327 0
0.122449 0.795918 0
0.122449 0.77551 0
0.122449 0.755102 0
0.122449 0.734694 0
0.122449 0.714286 0
0.122449 0.693878 0
0.122449 0.673469 0
0.122449 0.653061 0
0.122449 0.632653 0
0.122449 0.612245 0
0.122449 0.591837 0
0.122449 0.571429 0
0.122449 0.55102 0
0.122449 0.530612 0
0.122449 0.510204 0
0.122449 0.489796 0
0.122449 0.469388 0
0.122449 0.44898 0
0.122449 0.428571 0
0.122449 0.408163 0
0.122449 0.387755 0
0.122449 0.367347 0
0.122449 0.346939 0
0.122449 0.326531 0
0.122449 0.306122 0
0.122449 0.285714 0
0.122449 0.265306 0
0.122449 0.244898 0
0.122449 0.22449 0
0.122449 0.204082 0
0.122449 0.183673 0
0.122449 0.163265 0
0.122449 0.142857 0
0.122449 0.122449 0
0.122449 0.102041 0
0.122449 0.0816327 0
0.122449 0.0612245 0
0.122449 0.0408163 0
0.122449 0.0204082 0
0.142857 0.979592 0
0.142857 0.959184 0
0.142857 0.938776 0
0.142857 0.918367 0
0.142857 0.897959 0
0.142857 0.877551 0
0.142857 0.857143 0
0.142857 0.836735 0
0.142857 0.816327 0
0.142857 0.795918 0
0.142857 0.77551 0
0.142857 0.755102 0
0.142857 0.734694 0
0.142857 0.714286 0
0.142857 0.693878 0
0.142857 0.673469 0
0.142857 0.653061 0
0.142857 0.632653 0
0.142857 0.612245 0
0.142857 0.591837 0
0.142857 0.571429 0
0.142857 0.55102 0
0.142857 0.530612 0
0.142857 0.510204 0
0.142857 0.489796 0
0.142857 0.469388 0
0.142857 0.44898 0
0.142857 0.428571 0
0.142857 0.408163 0
0.142857 0.387755 0
0.142857 0.367347 0
0.142857 0.346939 0
0.142857 0.326531 0
0.142857 0.306122 0
0.142857 0.285714 0
0.142857 0.265306 0
0.142857 0.244898 0
0.142857 0.22449 0
0.142857 0.204082 0
0.142857 0.183673 0
0.142857 0.163265 0
0.142857 0.142857 0
0.142857 0.122449 0
0.142857 0.102041 0
0.142857 0.0816327 0
0.142857 0.0612245 0
0.142857 0.0408163 0
0.142857 0.0204082 0
0.163265 0.979592 0
0.163265 0.959184 0
0.163265 0.938776 0
0.163265 0.918367 0
0.163265 0.897959 0
0.163265 0.877551 0
0.163265 0.857143 0
0.163265 0.836735 0
0.163265 0.816327 0
0.163265 0.795918 0
0.163265 0.77551 0
0.163265 0.755102 0
0.163265 0.734694 0
0.163265 0.714286 0
0.163265 0.693878 0
0.163265 0.673469 0
0.163265 0.653061 0
0.163265 0.632653 0
0.163265 0.612245 0
0.163265 0.591837 0
0.163265 0.571429 0
0.163265 0.55102 0
[...]
CELL_DATA 2401
VECTORS velocity double
0.257377 0.15749 0
-0.00247321 0.264973 0
-0.0319408 0.20664 0
-0.0250197 0.152619 0
-0.0158064 0.115741 0
-0.00960172 0.09067 0
-0.00597655 0.0734661 0
-0.00391391 0.0612674 0
-0.00271755 0.0522503 0
-0.00199323 0.045322 0
-0.00153062 0.0398216 0
-0.00121878 0.0353368 0
-0.000998211 0.0316007 0
-0.000835834 0.0284335 0
-0.000712395 0.0257096 0
-0.000616106 0.0233383 0
-0.000539392 0.0212522 0
-0.000477176 0.0194004 0
-0.00042593 0.0177436 0
-0.000383135 0.0162509 0
-0.000346951 0.014898 0
-0.000316012 0.0136651 0
-0.000289288 0.0125362 0
-0.000265995 0.0114984 0
-0.000245531 0.0105406 0
-0.000227429 0.00965375 0
-0.000211327 0.0088301 0
-0.000196937 0.00806298 0
-0.000184033 0.00734664 0
-0.00017243 0.00667603 0
-0.000161975 0.00604671 0
-0.000152541 0.00545476 0
-0.000144013 0.00489669 0
-0.00013628 0.00436946 0
-0.000129235 0.00387042 0
-0.000122759 0.00339736 0
-0.000116716 0.00294855 0
-0.00011094 0.00252278 0
-0.000105226 0.00211954 0
-9.93073e-05 0.00173907 0
-9.28413e-05 0.00138263 0
-8.53813e-05 0.00105264 0
-7.6351e-05 0.000753016 0
-6.50287e-05 0.000489318 0
-5.05797e-05 0.000268964 0
-3.22927e-05 0.000101058 0
-1.03744e-05 -4.88331e-06 0
1.22629e-05 -4.34813e-05 0
2.29412e-05 -2.28738e-05 0
0.341001 0.1232 0
0.000518047 0.250589 0
-0.0637812 0.274214 0
-0.06196 0.25602 0
-0.0477494 0.226309 0
-0.0348923 0.196547 0
-0.0255407 0.170461 0
-0.0191066 0.148611 0
-0.0146997 0.130516 0
-0.0116278 0.115492 0
-0.00942867 0.102906 0
-0.00780869 0.0922482 0
-0.00658281 0.0831229 0
-0.00563285 0.0752274 0
-0.00488147 0.06833 0
-0.00427665 0.0622517 0
-0.00378233 0.0568531 0
-0.00337288 0.0520242 0
-0.00302963 0.0476772 0
-0.00273873 0.0437417 0
-0.00248973 0.0401604 0
-0.00227464 0.0368865 0
-0.00208729 0.0338811 0
-0.00192287 0.0311121 0
-0.00177763 0.0285523 0
-0.00164857 0.0261786 0
-0.00153334 0.0239715 0
-0.00143002 0.0219138 0
-0.00133707 0.0199907 0
-0.00125322 0.0181892 0
-0.0011774 0.0164978 0
-0.00110868 0.0149063 0
-0.00104622 0.0134059 0
-0.000989194 0.0119886 0
-0.000936798 0.0106476 0
-0.000888154 0.00937744 0
-0.000842274 0.00817373 0
-0.000797999 0.00703359 0
-0.000753945 0.00595582 0
-0.000708429 0.00494118 0
-0.000659415 0.00399278 0
-0.000604471 0.00311643 0
-0.000540786 0.00232097 0
-0.000465317 0.00161836 0
-0.000375259 0.00102343 0
-0.000269327 0.000552669 0
-0.000150779 0.000220583 0
-3.29074e-05 3.35099e-05 0
4.32819e-05 -1.1849e-05 0
0.502036 0.0771336 0
0.101614 0.1847 0
-0.0365202 0.252164 0
-0.0711693 0.269697 0
-0.0708659 0.261734 0
-0.0611121 0.243421 0
-0.0504079 0.22198 0
-0.0411717 0.200774 0
-0.0337824 0.181171 0
-0.0280098 0.163575 0
-0.0235099 0.147973 0
-0.0199759 0.13419 0
-0.0171687 0.122001 0
-0.0149109 0.111191 0
-0.0130724 0.101562 0
-0.0115579 0.0929454 0
-0.0102967 0.0851977 0
-0.00923586 0.0781984 0
-0.00833508 0.0718469 0
-0.0075635 0.0660585 0
-0.00689712 0.0607626 0
-0.00631717 0.0558995 0
-0.00580884 0.0514188 0
-0.00536041 0.0472777 0
-0.0049625 0.0434396 0
-0.00460764 0.0398729 0
-0.00428976 0.0365503 0
-0.00400396 0.0334479 0
-0.00374621 0.0305447 0
-0.00351313 0.0278222 0
-0.00330185 0.0252638 0
-0.00310986 0.0228551 0
-0.00293483 0.0205829 0
-0.00277454 0.0184361 0
-0.00262671 0.0164048 0
-0.00248892 0.014481 0
-0.00235846 0.0126584 0
-0.00223219 0.010933 0
-0.00210642 0.00930282 0
-0.00197679 0.00776899 0
-0.00183817 0.00633557 0
-0.00168472 0.0050102 0
-0.00151005 0.00380429 0
-0.00130779 0.00273289 0
-0.00107296 0.00181417 0
-0.000804677 0.0010678 0
-0.000511608 0.000510254 0
-0.0002202 0.000151254 0
3.81316e-06 1.10943e-05 0
0.612029 0.0483607 0
0.199448 0.135284 0
0.0153419 0.211779 0
-0.0553725 0.24931 0
-0.0755108 0.259447 0
-0.0756492 0.254648 0
-0.0688148 0.2421 0
-0.0603193 0.226162 0
-0.0521779 0.209268 0
-0.0450313 0.19268 0
-0.0389758 0.177 0
-0.033913 0.162471 0
-0.0296931 0.149148 0
-0.0261686 0.136992 0
-0.0232114 0.125919 0
-0.0207156 0.115832 0
-0.0185958 0.106629 0
-0.0167835 0.0982166 0
-0.0152235 0.0905085 0
-0.013872 0.0834276 0
-0.0126935 0.0769061 0
-0.0116594 0.0708844 0
-0.0107468 0.0653105 0
-0.00993688 0.0601391 0
-0.00921466 0.0553304 0
-0.00856778 0.0508494 0
-0.00798618 0.0466653 0
-0.00746157 0.0427507 0
-0.00698707 0.0390815 0
-0.00655685 0.0356358 0
-0.00616589 0.0323941 0
-0.00580973 0.0293391 0
-0.00548421 0.0264553 0
-0.00518533 0.0237291 0
-0.00490896 0.0211487 0
-0.0046507 0.0187044 0
-0.00440564 0.0163885 0
-0.00416816 0.0141961 0
-0.00393172 0.0121248 0
-0.00368871 0.0101754 0
-0.0034304 0.00835228 0
-0.00314702 0.00666389 0
-0.00282827 0.00512256 0
-0.0024643 0.0037446 0
-0.00204785 0.00254964 0
-0.00157808 0.00155938 0
-0.00106726 0.000792807 0
-0.000549812 0.000266579 0
-0.000102567 3.28807e-05 0
0.683083 0.0303919 0
0.283065 0.0990745 0
0.0739472 0.172302 0
-0.0251645 0.218479 0
-0.0660089 0.240651 0
-0.0788922 0.246853 0
-0.0791392 0.243061 0
-0.0741348 0.233521 0
-0.0673407 0.221001 0
-0.0603252 0.207209 0
-0.0537496 0.193159 0
-0.0478491 0.179427 0
-0.0426644 0.166322 0
-0.0381539 0.153989 0
-0.0342451 0.142476 0
-0.0308592 0.13178 0
-0.0279216 0.121865 0
-0.0253653 0.112683 0
-0.0231325 0.104177 0
-0.0211737 0.0962933 0
-0.0194477 0.0889775 0
-0.0179195 0.0821797 0
-0.0165604 0.0758542 0
-0.0153465 0.0699591 0
-0.0142578 0.0644567 0
-0.013278 0.0593129 0
-0.0123933 0.0544969 0
-0.0115923 0.0499809 0
-0.0108655 0.0457395 0
-0.0102046 0.04175 0
-0.00960236 0.0379917 0
-0.00905231 0.0344458 0
-0.00854835 0.0310955 0
-0.00808451 0.027926 0
-0.00765463 0.0249244 0
-0.00725212 0.0220798 0
-0.00686962 0.0193839 0
-0.00649875 0.0168308 0
-0.00612986 0.0144177 0
-0.00575183 0.0121451 0
-0.00535208 0.0100173 0
-0.00491674 0.00804247 0
-0.0044314 0.00623332 0
-0.0038825 0.00460653 0
-0.00325992 0.00318263 0
-0.00256141 0.00198544 0
-0.00179948 0.00103756 0
-0.00100988 0.000364524 0
-0.000268339 5.03023e-05 0
0.732839 0.0192939 0
0.353878 0.0733309 0
0.131918 0.139262 0
0.0123192 0.186985 0
-0.0472831 0.216111 0
-0.073427 0.229994 0
-0.082254 0.233301 0
-0.082427 0.229653 0
-0.0785082 0.221716 0
-0.0728769 0.211322 0
-0.066753 0.199686 0
-0.0607417 0.187592 0
-0.0551229 0.175528 0
-0.0500058 0.163789 0
-0.045412 0.152541 0
-0.0413195 0.141869 0
-0.0376869 0.131808 0
-0.0344659 0.122359 0
-0.0316078 0.113505 0
-0.0290672 0.105218 0
-0.0268029 0.0974661 0
-0.024779 0.0902137 0
-0.022964 0.0834261 0
-0.0213313 0.0770695 0
-0.019858 0.0711119 0
-0.018525 0.065523 0
-0.0173159 0.0602747 0
-0.0162168 0.0553408 0
-0.0152159 0.0506973 0
-0.0143028 0.0463216 0
-0.0134684 0.0421932 0
-0.0127042 0.0382933 0
-0.0120024 0.0346048 0
-0.011355 0.0311123 0
-0.0107538 0.0278025 0
-0.0101899 0.0246641 0
-0.00965344 0.021688 0
-0.00913324 0.0188681 0
-0.00861641 0.0162009 0
-0.00808825 0.0136866 0
-0.0075322 0.011329 0
-0.0069302 0.00913622 0
-0.00626351 0.00712055 0
-0.00551436 0.00529892 0
-0.00466883 0.00369284 0
-0.00372124 0.00232855 0
-0.00268074 0.00123299 0
-0.00157864 0.000440771 0
-0.000481111 6.2992e-05 0
0.768835 0.012559 0
0.412906 0.0553372 0
0.185709 0.113063 0
0.0516289 0.159031 0
-0.0232823 0.191016 0
-0.0618464 0.209716 0
-0.079603 0.218184 0
-0.0857944 0.219329 0
-0.0857163 0.215491 0
-0.0823806 0.208429 0
-0.0774944 0.199403 0
-0.0720158 0.189289 0
-0.0664725 0.178684 0
-0.0611438 0.167982 0
-0.0561656 0.157441 0
-0.0515923 0.147218 0
-0.0474321 0.137407 0
-0.0436687 0.128059 0
-0.0402734 0.119193 0
-0.0372126 0.110811 0
-0.0344522 0.102903 0
-0.0319595 0.0954524 0
-0.0297046 0.088437 0
-0.0276607 0.0818335 0
-0.0258044 0.0756175 0
-0.0241152 0.0697649 0
-0.0225754 0.0642518 0
-0.0211698 0.0590554 0
-0.0198848 0.0541538 0
-0.0187087 0.0495264 0
-0.0176306 0.0451536 0
-0.0166408 0.0410174 0
-0.0157294 0.0371011 0
-0.0148868 0.0333896 0
-0.0141029 0.0298695 0
-0.0133667 0.0265293 0
-0.0126657 0.0233599 0
-0.0119859 0.0203547 0
-0.0113114 0.0175099 0
-0.0106238 0.0148252 0
-0.00990255 0.012304 0
-0.0091253 0.00995392 0
-0.00826869 0.00778721 0
-0.00731014 0.00582096 0
-0.00623073 0.00407774 0
-0.00501939 0.00258642 0
-0.00367871 0.0013783 0
-0.0022312 0.000496043 0
-0.000728506 7.16012e-05 0
0.795487 0.00844869 0
0.461874 0.042629 0
0.23418 0.0925115 0
0.0902089 0.135252 0
0.00333029 0.167518 0
-0.0463393 0.188947 0
-0.0727157 0.200892 0
-0.0851768 0.205665 0
-0.0894455 0.205207 0
-0.0889897 0.201097 0
-0.085909 0.194546 0
-0.081471 0.186447 0
-0.0764359 0.177442 0
-0.0712527 0.167984 0
-0.0661789 0.158388 0
-0.0613544 0.148867 0
-0.0568469 0.139561 0
-0.0526811 0.130561 0
-0.048856 0.121919 0
-0.0453569 0.113665 0
-0.0421616 0.105811 0
-0.0392453 0.0983569 0
-0.0365831 0.0912949 0
-0.0341509 0.084613 0
-0.0319268 0.0782956 0
-0.0298909 0.0723252 0
-0.0280255 0.0666836 0
-0.0263149 0.0613519 0
-0.024745 0.0563115 0
-0.0233031 0.0515441 0
-0.0219774 0.0470321 0
-0.0207568 0.0427586 0
-0.0196303 0.0387079 0
-0.0185867 0.0348655 0
-0.0176141 0.0312183 0
-0.0166995 0.0277551 0
-0.0158282 0.0244666 0
-0.0149834 0.0213461 0
-0.014146 0.0183896 0
-0.0132942 0.0155963 0
-0.0124035 0.0129693 0
-0.011447 0.0105158 0
-0.0103964 0.0082479 0
-0.00922373 0.006183 0
-0.00790386 0.00434481 0
-0.0064186 0.00276463 0
-0.00476165 0.00147766 0
-0.0029438 0.000532904 0
-0.000999667 7.69609e-05 0
0.81577 0.00589244 0
0.502616 0.0334957 0
0.277218 0.0763948 0
0.12671 0.115394 0
0.0305262 0.14662 0
-0.0285857 0.169152 0
-0.0629123 0.18326 0
-0.0815224 0.190627 0
-0.0903159 0.192803 0
-0.0930619 0.191155 0
-0.0921585 0.186792 0
-0.08913 0.18057 0
-0.084942 0.173137 0
-0.0802017 0.164969 0
-0.0752855 0.156414 0
-0.0704208 0.147721 0
-0.0657392 0.139064 0
-0.0613113 0.130564 0
-0.0571691 0.1223 0
-0.0533209 0.114326 0
-0.049761 0.106671 0
-0.0464759 0.0993543 0
-0.0434485 0.09238 0
-0.0406601 0.0857469 0
-0.0380922 0.0794484 0
-0.0357272 0.0734742 0
-0.0335488 0.0678115 0
-0.0315419 0.0624462 0
-0.0296926 0.0573631 0
-0.0279881 0.0525468 0
-0.0264162 0.0479817 0
-0.0249649 0.0436526 0
-0.0236225 0.039545 0
-0.0223764 0.0356453 0
-0.0212133 0.0319409 0
-0.0201183 0.028421 0
-0.0190746 0.0250765 0
-0.0180629 0.0219004 0
-0.0170612 0.0188887 0
-0.0160441 0.0160402 0
-0.0149831 0.0133576 0
-0.0138467 0.0108479 0
-0.0126014 0.00852317 0
-0.0112131 0.00640106 0
-0.00964962 0.0045063 0
-0.00788434 0.00287219 0
-0.00590038 0.00153702 0
-0.0036952 0.000554323 0
-0.00128553 7.9811e-05 0
0.831607 0.00426266 0
0.536707 0.0268069 0
0.315178 0.0636878 0
0.160556 0.0988986 0
0.0571405 0.128446 0
-0.0098115 0.150993 0
-0.0512594 0.166296 0
-0.0756702 0.175398 0
-0.0889436 0.17954 0
-0.0950189 0.179861 0
-0.096507 0.177343 0
-0.0951352 0.172781 0
-0.0920432 0.166797 0
-0.0879791 0.159869 0
-0.0834294 0.152357 0
-0.0787066 0.14453 0
-0.074006 0.136584 0
-0.0694463 0.128662 0
-0.0650947 0.120865 0
-0.0609859 0.113264 0
-0.0571331 0.105906 0
-0.0535371 0.0988216 0
-0.0501907 0.0920292 0
-0.0470826 0.0855371 0
-0.0441996 0.0793467 0
-0.0415278 0.0734545 0
-0.0390535 0.0678535 0
-0.0367633 0.0625338 0
-0.0346444 0.0574839 0
-0.0326845 0.0526913 0
-0.0308716 0.0481426 0
-0.0291934 0.0438245 0
-0.0276376 0.0397236 0
-0.0261908 0.0358274 0
-0.0248384 0.032124 0
-0.023564 0.0286029 0
-0.0223488 0.0252552 0
-0.0211712 0.022074 0
-0.0200063 0.0190552 0
-0.0188253 0.0161972 0
-0.0175957 0.0135027 0
-0.0162814 0.0109782 0
-0.0148432 0.00863565 0
-0.0132404 0.00649311 0
-0.0114333 0.00457599 0
-0.00938566 0.00291904 0
-0.00706915 0.00156262 0
-0.00446719 0.000563101 0
-0.00157871 8.07474e-05 0
0.844246 0.0031917 0
0.565421 0.0218085 0
0.348574 0.0535764 0
0.191586 0.0851771 0
0.0826264 0.112737 0
0.00928399 0.13459 0
-0.0385121 0.150445 0
-0.0682895 0.160641 0
-0.0858704 0.166199 0
-0.095272 0.168048 0
-0.0992491 0.167038 0
-0.0996843 0.163891 0
-0.0978599 0.159189 0
-0.0946455 0.153396 0
-0.0906272 0.14687 0
-0.0861958 0.139889 0
-0.0816087 0.132661 0
-0.0770316 0.125344 0
-0.0725683 0.118054 0
-0.0682808 0.110875 0
-0.0642035 0.10387 0
-0.0603527 0.0970787 0
-0.0567332 0.0905307 0
-0.0533428 0.0842428 0
-0.0501749 0.0782238 0
-0.0472205 0.0724765 0
-0.0444696 0.0669987 0
-0.0419114 0.061785 0
-0.0395351 0.0568272 0
-0.0373294 0.0521154 0
-0.035283 0.0476385 0
-0.033384 0.0433848 0
-0.0316196 0.0393424 0
-0.0299761 0.0354995 0
-0.0284378 0.031845 0
-0.0269871 0.0283689 0
-0.0256034 0.0250625 0
-0.0242629 0.021919 0
-0.022938 0.018934 0
-0.0215965 0.0161059 0
-0.0202021 0.0134369 0
-0.0187137 0.0109335 0
-0.0170863 0.00860745 0
-0.0152726 0.00647677 0
-0.0132243 0.00456732 0
-0.0108955 0.00291462 0
-0.00824585 0.00156018 0
-0.00524452 0.000561648 0
-0.0018733 8.02264e-05 0
0.854523 0.00246501 0
0.589779 0.0180033 0
0.37795 0.0454633 0
0.219827 0.073756 0
0.106627 0.0992484 0
0.0279447 0.120129 0
-0.0252655 0.135939 0
-0.0599134 0.146739 0
-0.0815524 0.153262 0
-0.0941922 0.156254 0
-0.100673 0.156442 0
-0.102992 0.154467 0
-0.102544 0.150866 0
-0.100302 0.146077 0
-0.0969391 0.140448 0
-0.0929177 0.134257 0
-0.0885525 0.127717 0
-0.0840548 0.120996 0
-0.0795641 0.114218 0
-0.0751705 0.107481 0
-0.0709301 0.100854 0
-0.0668763 0.0943889 0
-0.0630268 0.0881227 0
-0.0593896 0.0820796 0
-0.055966 0.0762749 0
-0.052753 0.0707165 0
-0.049745 0.0654068 0
-0.0469349 0.0603441 0
-0.044314 0.0555232 0
-0.0418732 0.0509365 0
-0.0396022 0.0465751 0
-0.0374896 0.0424286 0
-0.0355229 0.0384864 0
-0.0336881 0.0347377 0
-0.0319689 0.0311718 0
-0.0303464 0.0277792 0
-0.0287986 0.0245514 0
-0.0272997 0.0214816 0
-0.0258193 0.0185653 0
-0.0243223 0.0158007 0
-0.0227681 0.0131898 0
-0.0211108 0.0107386 0
-0.0192998 0.00845875 0
-0.0172804 0.00636807 0
-0.0149961 0.00449238 0
-0.0123906 0.0028673 0
-0.00941174 0.00153458 0
-0.00601456 0.000551926 0
-0.00216456 7.85867e-05 0
0.863014 0.00195523 0
0.610588 0.0150533 0
0.403829 0.0388874 0
0.245449 0.0641967 0
0.129054 0.0876401 0
0.0459545 0.10738 0
-0.0119343 0.122821 0
-0.050963 0.133864 0
-0.0763683 0.140993 0
-0.0921021 0.144809 0
-0.101043 0.145923 0
-0.105266 0.144897 0
-0.106255 0.142217 0
-0.105067 0.138292 0
-0.10245 0.133456 0
-0.0989287 0.127978 0
-0.0948713 0.122075 0
-0.0905317 0.115916 0
-0.086084 0.109634 0
-0.0816459 0.103332 0
-0.0772956 0.0970886 0
-0.073084 0.0909624 0
-0.0690427 0.0849967 0
-0.0651908 0.0792218 0
-0.0615381 0.0736582 0
-0.0580886 0.0683184 0
-0.054842 0.0632084 0
-0.0517952 0.0583295 0
-0.0489427 0.0536791 0
-0.0462775 0.0492519 0
-0.0437909 0.0450402 0
-0.0414726 0.0410352 0
-0.0393106 0.0372272 0
-0.0372907 0.0336059 0
-0.0353962 0.0301615 0
-0.0336074 0.0268846 0
-0.031901 0.0237668 0
-0.030249 0.0208013 0
-0.0286188 0.0179836 0
-0.026972 0.0153115 0
-0.0252641 0.0127867 0
-0.0234446 0.0104148 0
-0.0214567 0.00820708 0
-0.0192388 0.00618084 0
-0.0167257 0.00436147 0
-0.0138512 0.00278406 0
-0.010551 0.00148983 0
-0.00676686 0.000535478 0
-0.00244868 7.60729e-05 0
0.870127 0.001586 0
0.628488 0.0127277 0
0.426677 0.033505 0
0.268646 0.0561497 0
0.149869 0.0776294 0
0.0631175 0.0961494 0
0.00122634 0.110999 0
-0.0417392 0.122047 0
-0.0706133 0.129512 0
-0.0892694 0.133897 0
-0.100591 0.135707 0
-0.106702 0.135431 0
-0.109153 0.133506 0
-0.109067 0.130308 0
-0.107255 0.126154 0
-0.104301 0.121305 0
-0.100616 0.115973 0
-0.0964968 0.110328 0
-0.0921487 0.104509 0
-0.0877164 0.0986225 0
-0.0833001 0.0927523 0
-0.0789685 0.0869629 0
-0.0747677 0.0813027 0
-0.0707283 0.0758066 0
-0.0668696 0.0704993 0
-0.0632029 0.0653967 0
-0.0597339 0.0605078 0
-0.0564641 0.0558364 0
-0.0533917 0.0513819 0
-0.0505121 0.0471403 0
-0.0478188 0.0431055 0
-0.0453026 0.0392695 0
-0.0429522 0.0356232 0
-0.0407537 0.0321571 0
-0.0386902 0.0288616 0
-0.0367411 0.0257275 0
-0.0348818 0.0227464 0
-0.0330829 0.0199115 0
-0.0313091 0.017218 0
-0.0295191 0.0146635 0
-0.0276647 0.0122492 0
-0.0256903 0.00998027 0
-0.0235337 0.00786717 0
-0.0211259 0.00592662 0
-0.0183935 0.00418309 0
-0.0152603 0.00267058 0
-0.0116505 0.00142909 0
-0.00749274 0.00051348 0
-0.00272257 7.28574e-05 0
0.876154 0.00131084 0
0.643984 0.0108674 0
0.446901 0.0290608 0
0.289631 0.0493423 0
0.169104 0.0689845 0
0.0793313 0.0862731 0
0.0139891 0.100419 0
-0.0324658 0.111265 0
-0.0645163 0.118863 0
-0.0859126 0.123613 0
-0.0995151 0.125926 0
-0.107472 0.126226 0
-0.111382 0.124903 0
-0.112422 0.122304 0
-0.111455 0.118724 0
-0.109112 0.114414 0
-0.105849 0.109582 0
-0.101996 0.104397 0
-0.0977908 0.0989977 0
-0.0934034 0.0934958 0
-0.0889557 0.0879784 0
-0.084534 0.082514 0
-0.0801994 0.0771547 0
-0.0759944 0.0719391 0
-0.0719482 0.0668947 0
-0.0680802 0.0620401 0
-0.0644023 0.0573866 0
-0.0609211 0.0529395 0
-0.0576388 0.0486996 0
-0.0545538 0.0446643 0
-0.0516616 0.0408279 0
-0.0489548 0.0371833 0
-0.0464228 0.0337218 0
-0.0440522 0.030434 0
-0.0418258 0.0273107 0
-0.0397226 0.0243425 0
-0.0377168 0.0215211 0
-0.0357773 0.0188396 0
-0.0338667 0.0162926 0
-0.0319407 0.0138777 0
-0.0299473 0.0115952 0
-0.0278266 0.00944976 0
-0.0255103 0.00745105 0
-0.0229228 0.00561474 0
-0.0199824 0.00396404 0
-0.0166033 0.00253132 0
-0.0126987 0.00135479 0
-0.00818489 0.000486805 0
-0.00298363 6.90585e-05 0
0.881314 0.00110058 0
0.657479 0.00935973 0
0.464854 0.0253605 0
0.308617 0.0435526 0
0.186836 0.061497 0
0.0945671 0.0775776 0
0.0262258 0.0909745 0
-0.0233128 0.101471 0
-0.05826 0.109046 0
-0.0822122 0.113993 0
-0.0979836 0.116647 0
-0.107729 0.117371 0
-0.113078 0.116515 0
-0.115248 0.114393 0
-0.115147 0.111284 0
-0.113445 0.107425 0
-0.110635 0.103019 0
-0.107082 0.098234 0
-0.10305 0.0932082 0
-0.0987363 0.0880545 0
-0.0942823 0.0828634 0
-0.0897926 0.0777058 0
-0.085343 0.0726367 0
-0.0809885 0.0676971 0
-0.0767687 0.0629166 0
-0.0727111 0.0583155 0
-0.0688346 0.0539065 0
-0.0651511 0.0496958 0
-0.0616669 0.0456852 0
-0.0583838 0.0418723 0
-0.0552997 0.0382521 0
-0.0524087 0.0348176 0
-0.0497014 0.0315602 0
-0.0471647 0.0284707 0
-0.0447817 0.0255396 0
-0.0425306 0.0227575 0
-0.0403847 0.020116 0
-0.0383113 0.0176077 0
-0.0362709 0.015227 0
-0.0342165 0.0129708 0
-0.0320925 0.010839 0
-0.0298344 0.00883534 0
-0.0273686 0.00696843 0
-0.0246129 0.00525267 0
-0.0214776 0.00370966 0
-0.0178677 0.00236973 0
-0.0136861 0.00126878 0
-0.00883707 0.000456094 0
-0.00322967 6.47544e-05 0
0.885769 0.000936262 0
0.669299 0.00812287 0
0.480837 0.0222537 0
0.325805 0.0385985 0
0.203157 0.0549831 0
0.108826 0.0698972 0
0.0378812 0.0825198 0
-0.0144015 0.0925838 0
-0.0519886 0.100018 0
-0.0783168 0.105028 0
-0.096141 0.107887 0
-0.107608 0.108906 0
-0.114363 0.108395 0
-0.117655 0.106642 0
-0.118425 0.103906 0
-0.117379 0.100414 0
-0.115042 0.0963615 0
-0.111808 0.091915 0
-0.107971 0.0872126 0
-0.103749 0.082368 0
-0.0993049 0.077473 0
-0.094761 0.0726007 0
-0.0902084 0.0678075 0
-0.0857147 0.0631359 0
-0.0813299 0.0586169 0
-0.0770904 0.0542715 0
-0.0730221 0.0501129 0
-0.0691424 0.0461478 0
-0.0654623 0.0423781 0
-0.0619868 0.0388013 0
-0.0587162 0.0354124 0
-0.0556466 0.0322042 0
-0.0527696 0.0291679 0
-0.0500728 0.0262941 0
-0.0475389 0.023573 0
-0.0451461 0.0209949 0
-0.0428666 0.0185511 0
-0.0406662 0.0162338 0
-0.0385035 0.0140369 0
-0.0363286 0.0119567 0
-0.0340827 0.00999238 0
-0.0316971 0.00814668 0
-0.0290928 0.00642702 0
-0.0261815 0.00484629 0
-0.0228659 0.00342413 0
-0.0190425 0.00218844 0
-0.014604 0.00117242 0
-0.00944382 0.000421805 0
-0.00345876 5.99958e-05 0
0.889645 0.000805251 0
0.679702 0.00709654 0
0.495107 0.0196238 0
0.341378 0.0343331 0
0.21816 0.0492888 0
0.122123 0.0630891 0
0.0489122 0.0749301 0
-0.00581829 0.084508 0
-0.0458132 0.091716 0
-0.0743471 0.0966827 0
-0.0941089 0.0996345 0
-0.107224 0.100836 0
-0.115345 0.100563 0
-0.11974 0.0990782 0
-0.121377 0.0966241 0
-0.120991 0.093418 0
-0.119135 0.0896497 0
-0.116232 0.0854824 0
-0.112598 0.0810539 0
-0.108477 0.0764782 0
-0.10405 0.0718484 0
-0.0994586 0.0672382 0
-0.0948081 0.0627051 0
-0.0901793 0.0582922 0
-0.0856332 0.0540306 0
-0.0812152 0.0499416 0
-0.0769583 0.0460379 0
-0.0728859 0.0423261 0
-0.0690134 0.0388073 0
-0.0653493 0.0354787 0
-0.0618967 0.0323347 0
-0.0586531 0.0293674 0
-0.0556114 0.0265676 0
-0.0527596 0.0239254 0
-0.0500808 0.0214303 0
-0.0475523 0.0190725 0
-0.0451457 0.0168426 0
-0.0428253 0.0147324 0
-0.0405478 0.0127351 0
-0.0382609 0.0108465 0