# vtk DataFile Version 3.0
Malha 2D com triângulos: velocidade e pressão
ASCII
DATASET UNSTRUCTURED_GRID

POINTS 2500 double
0 0 0
1 0 0
1 1 0
0 1 0
0.0204082 0 0
0.0408163 0 0
0.0612245 0 0
0.0816327 0 0
0.102041 0 0
0.122449 0 0
0.142857 0 0
0.163265 0 0
0.183673 0 0
0.204082 0 0
0.22449 0 0
0.244898 0 0
0.265306 0 0
0.285714 0 0
0.306122 0 0
0.326531 0 0
0.346939 0 0
0.367347 0 0
0.387755 0 0
0.408163 0 0
0.428571 0 0
0.44898 0 0
0.469388 0 0
0.489796 0 0
0.510204 0 0
0.530612 0 0
0.55102 0 0
0.571429 0 0
0.591837 0 0
0.612245 0 0
0.632653 0 0
0.653061 0 0
0.673469 0 0
0.693878 0 0
0.714286 0 0
0.734694 0 0
0.755102 0 0
0.77551 0 0
0.795918 0 0
0.816327 0 0
0.836735 0 0
0.857143 0 0
0.877551 0 0
0.897959 0 0
0.918367 0 0
0.938776 0 0
0.959184 0 0
0.979592 0 0
1 0.0204082 0
1 0.0408163 0
1 0.0612245 0
1 0.0816327 0
1 0.102041 0
1 0.122449 0
1 0.142857 0
1 0.163265 0
1 0.183673 0
1 0.204082 0
1 0.22449 0
1 0.244898 0
1 0.265306 0
1 0.285714 0
1 0.306122 0
1 0.326531 0
1 0.346939 0
1 0.367347 0
1 0.387755 0
1 0.408163 0
1 0.428571 0
1 0.44898 0
1 0.469388 0
1 0.489796 0
1 0.510204 0
1 0.530612 0
1 0.55102 0
1 0.571429 0
1 0.591837 0
1 0.612245 0
1 0.632653 0
1 0.653061 0
1 0.673469 0
1 0.693878 0
1 0.714286 0
1 0.734694 0
1 0.755102 0
1 0.77551 0
1 0.795918 0
1 0.816327 0
1 0.836735 0
1 0.857143 0
1 0.877551 0
1 0.897959 0
1 0.918367 0
1 0.938776 0
1 0.959184 0
1 0.979592 0
0.979592 1 0
0.959184 1 0
0.938776 1 0
0.918367 1 0
0.897959 1 0
0.877551 1 0
0.857143 1 0
0.836735 1 0
0.816327 1 0
0.795918 1 0
0.77551 1 0
0.755102 1 0
0.734694 1 0
0.714286 1 0
0.693878 1 0
0.673469 1 0
0.653061 1 0
0.632653 1 0
0.612245 1 0
0.591837 1 0
0.571429 1 0
0.55102 1 0
0.530612 1 0
0.510204 1 0
0.489796 1 0
0.469388 1 0
0.44898 1 0
0.428571 1 0
0.408163 1 0
0.387755 1 0
0.367347 1 0
0.346939 1 0
0.326531 1 0
0.306122 1 0
0.285714 1 0
0.265306 1 0
0.244898 1 0
0.22449 1 0
0.204082 1 0
0.183673 1 0
0.163265 1 0
0.142857 1 0
0.122449 1 0
0.102041 1 0
0.0816327 1 0
0.0612245 1 0
0.0408163 1 0
0.0204082 1 0
0 0.979592 0
0 0.959184 0
0 0.938776 0
0 0.918367 0
0 0.897959 0
0 0.877551 0
0 0.857143 0
0 0.836735 0
0 0.816327 0
0 0.795918 0
0 0.77551 0
0 0.755102 0
0 0.734694 0
0 0.714286 0
0 0.693878 0
0 0.673469 0
0 0.653061 0
0 0.632653 0
0 0.612245 0
0 0.591837 0
0 0.571429 0
0 0.55102 0
0 0.530612 0
0 0.510204 0
0 0.489796 0
0 0.469388 0
0 0.44898 0
0 0.428571 0
0 0.408163 0
0 0.387755 0
0 0.367347 0
0 0.346939 0
0 0.326531 0
0 0.306122 0
0 0.285714 0
0 0.265306 0
0 0.244898 0
0 0.22449 0
0 0.204082 0
0 0.183673 0
0 0.163265 0
0 0.142857 0
0 0.122449 0
0 0.102041 0
0 0.0816327 0
0 0.0612245 0
0 0.0408163 0
0 0.0204082 0
0.0204082 0.979592 0
0.0204082 0.959184 0
0.0204082 0.938776 0
0.0204082 0.918367 0
0.0204082 0.897959 0
0.0204082 0.877551 0
0.0204082 0.857143 0
0.0204082 0.836735 0
0.0204082 0.816327 0
0.0204082 0.795918 0
0.0204082 0.77551 0
0.0204082 0.755102 0
0.0204082 0.734694 0
0.0204082 0.714286 0
0.0204082 0.693878 0
0.0204082 0.673469 0
0.0204082 0.653061 0
0.0204082 0.632653 0
0.0204082 0.612245 0
0.0204082 0.591837 0
0.0204082 0.571429 0
0.0204082 0.55102 0
0.0204082 0.530612 0
0.0204082 0.510204 0
0.0204082 0.489796 0
0.0204082 0.469388 0
0.0204082 0.44898 0
0.0204082 0.428571 0
0.0204082 0.408163 0
0.0204082 0.387755 0
0.0204082 0.367347 0
0.0204082 0.346939 0
0.0204082 0.326531 0
0.0204082 0.306122 0
0.0204082 0.285714 0
0.0204082 0.265306 0
0.0204082 0.244898 0
0.0204082 0.22449 0
0.0204082 0.204082 0
0.0204082 0.183673 0
0.0204082 0.163265 0
0.0204082 0.142857 0
0.0204082 0.122449 0
0.0204082 0.102041 0
0.0204082 0.0816327 0
0.0204082 0.0612245 0
0.0204082 0.0408163 0
0.0204082 0.0204082 0
0.0408163 0.979592 0
0.0408163 0.959184 0
0.0408163 0.938776 0
0.0408163 0.918367 0
0.0408163 0.897959 0
0.0408163 0.877551 0
0.0408163 0.857143 0
0.0408163 0.836735 0
0.0408163 0.816327 0
0.0408163 0.795918 0
0.0408163 0.77551 0
0.0408163 0.755102 0
0.0408163 0.734694 0
0.0408163 0.714286 0
0.0408163 0.693878 0
0.0408163 0.673469 0
0.0408163 0.653061 0
0.0408163 0.632653 0
0.0408163 0.612245 0
0.0408163 0.591837 0
0.0408163 0.571429 0
0.0408163 0.55102 0
0.0408163 0.530612 0
0.0408163 0.510204 0
0.0408163 0.489796 0
0.0408163 0.469388 0
0.0408163 0.44898 0
0.0408163 0.428571 0
0.0408163 0.408163 0
0.0408163 0.387755 0
0.0408163 0.367347 0
0.0408163 0.346939 0
0.0408163 0.326531 0
0.0408163 0.306122 0
0.0408163 0.285714 0
0.0408163 0.265306 0
0.0408163 0.244898 0
0.0408163 0.22449 0
0.0408163 0.204082 0
0.0408163 0.183673 0
0.0408163 0.163265 0
0.0408163 0.142857 0
0.0408163 0.122449 0
0.0408163 0.102041 0
0.0408163 0.0816327 0
0.0408163 0.0612245 0
0.0408163 0.0408163 0
0.0408163 0.0204082 0
0.0612245 0.979592 0
0.0612245 0.959184 0
0.0612245 0.938776 0
0.0612245 0.918367 0
0.0612245 0.897959 0
0.0612245 0.877551 0
0.0612245 0.857143 0
0.0612245 0.836735 0
0.0612245 0.816327 0
0.0612245 0.795918 0
0.0612245 0.77551 0
0.0612245 0.755102 0
0.0612245 0.734694 0
0.0612245 0.714286 0
0.0612245 0.693878 0
0.0612245 0.673469 0
0.0612245 0.653061 0
0.0612245 0.632653 0
0.0612245 0.612245 0
0.0612245 0.591837 0
0.0612245 0.571429 0
0.0612245 0.55102 0
0.0612245 0.530612 0
0.0612245 0.510204 0
0.0612245 0.489796 0
0.0612245 0.469388 0
0.0612245 0.44898 0
0.0612245 0.428571 0
0.0612245 0.408163 0
0.0612245 0.387755 0
0.0612245 0.367347 0
0.0612245 0.346939 0
0.0612245 0.326531 0
0.0612245 0.306122 0
0.0612245 0.285714 0
0.0612245 0.265306 0
0.0612245 0.244898 0
0.0612245 0.22449 0
0.0612245 0.204082 0
0.0612245 0.183673 0
0.0612245 0.163265 0
0.0612245 0.142857 0
0.0612245 0.122449 0
0.0612245 0.102041 0
0.0612245 0.0816327 0
0.0612245 0.0612245 0
0.0612245 0.0408163 0
0.0612245 0.0204082 0
0.0816327 0.979592 0
0.0816327 0.959184 0
0.0816327 0.938776 0
0.0816327 0.918367 0
0.0816327 0.897959 0
0.0816327 0.877551 0
0.0816327 0.857143 0
0.0816327 0.836735 0
0.0816327 0.816327 0
0.0816327 0.795918 0
0.0816327 0.77551 0
0.0816327 0.755102 0
0.0816327 0.734694 0
0.0816327 0.714286 0
0.0816327 0.693878 0
0.0816327 0.673469 0
0.0816327 0.653061 0
0.0816327 0.632653 0
0.0816327 0.612245 0
0.0816327 0.591837 0
0.0816327 0.571429 0
0.0816327 0.55102 0
0.0816327 0.530612 0
0.0816327 0.510204 0
0.0816327 0.489796 0
0.0816327 0.469388 0
0.0816327 0.44898 0
0.0816327 0.428571 0
0.0816327 0.408163 0
0.0816327 0.387755 0
0.0816327 0.367347 0
0.0816327 0.346939 0
0.0816327 0.326531 0
0.0816327 0.306122 0
0.0816327 0.285714 0
0.0816327 0.265306 0
0.0816327 0.244898 0
0.0816327 0.22449 0
0.0816327 0.204082 0
0.0816327 0.183673 0
0.0816327 0.163265 0
0.0816327 0.142857 0
0.0816327 0.122449 0
0.0816327 0.102041 0
0.0816327 0.0816327 0
0.0816327 0.0612245 0
0.0816327 0.0408163 0
0.0816327 0.0204082 0
0.102041 0.979592 0
0.102041 0.959184 0
0.102041 0.938776 0
0.102041 0.918367 0
0.102041 0.897959 0
0.102041 0.877551 0
0.102041 0.857143 0
0.102041 0.836735 0
0.102041 0.816327 0
0.102041 0.795918 0
0.102041 0.77551 0
0.102041 0.755102 0
0.102041 0.734694 0
0.102041 0.714286 0
0.102041 0.693878 0
0.102041 0.673469 0
0.102041 0.653061 0
0.102041 0.632653 0
0.102041 0.612245 0
0.102041 0.591837 0
0.102041 0.571429 0
0.102041 0.55102 0
0.102041 0.530612 0
0.102041 0.510204 0
0.102041 0.489796 0
0.102041 0.469388 0
0.102041 0.44898 0
0.102041 0.428571 0
0.102041 0.408163 0
0.102041 0.387755 0
0.102041 0.367347 0
0.102041 0.346939 0
0.102041 0.326531 0
0.102041 0.306122 0
0.102041 0.285714 0
0.102041 0.265306 0
0.102041 0.244898 0
0.102041 0.22449 0
0.102041 0.204082 0
0.102041 0.183673 0
0.102041 0.163265 0
0.102041 0.142857 0
0.102041 0.122449 0
0.102041 0.102041 0
0.102041 0.0816327 0
0.102041 0.0612245 0
0.102041 0.0408163 0
0.102041 0.0204082 0
0.122449 0.979592 0
0.122449 0.959184 0
0.122449 0.938776 0
0.122449 0.918367 0
0.122449 0.897959 0
0.122449 0.877551 0
0.122449 0.857143 0
0.122449 0.836735 0
0.122449 0.816327 0
0.122449 0.795918 0
0.122449 0.77551 0
0.122449 0.755102 0
0.122449 0.734694 0
0.122449 0.714286 0
0.122449 0.693878 0
0.122449 0.673469 0
0.122449 0.653061 0
0.122449 0.632653 0
0.122449 0.612245 0
0.122449 0.591837 0
0.122449 0.571429 0
0.122449 0.55102 0
0.122449 0.530612 0
0.122449 0.510204 0
0.122449 0.489796 0
0.122449 0.469388 0
0.122449 0.44898 0
0.122449 0.428571 0
0.122449 0.408163 0
0.122449 0.387755 0
0.122449 0.367347 0
0.122449 0.346939 0
0.122449 0.326531 0
0.122449 0.306122 0
0.122449 0.285714 0
0.122449 0.265306 0
0.122449 0.244898 0
0.122449 0.22449 0
0.122449 0.204082 0
0.122449 0.183673 0
0.122449 0.163265 0
0.122449 0.142857 0
0.122449 0.122449 0
0.122449 0.102041 0
0.122449 0.0816327 0
0.122449 0.0612245 0
0.122449 0.0408163 0
0.122449 0.0204082 0
0.142857 0.979592 0
0.142857 0.959184 0
0.142857 0.938776 0
0.142857 0.918367 0
0.142857 0.897959 0
0.142857 0.877551 0
0.142857 0.857143 0
0.142857 0.836735 0
0.142857 0.816327 0
0.142857 0.795918 0
0.142857 0.77551 0
0.142857 0.755102 0
0.142857 0.734694 0
0.142857 0.714286 0
0.142857 0.693878 0
0.142857 0.673469 0
0.142857 0.653061 0
0.142857 0.632653 0
0.142857 0.612245 0
0.142857 0.591837 0
0.142857 0.571429 0
0.142857 0.55102 0
0.142857 0.530612 0
0.142857 0.510204 0
0.142857 0.489796 0
0.142857 0.469388 0
0.142857 0.44898 0
0.142857 0.428571 0
0.142857 0.408163 0
0.142857 0.387755 0
0.142857 0.367347 0
0.142857 0.346939 0
0.142857 0.326531 0
0.142857 0.306122 0
0.142857 0.285714 0
0.142857 0.265306 0
0.142857 0.244898 0
0.142857 0.22449 0
0.142857 0.204082 0
0.142857 0.183673 0
0.142857 0.163265 0
0.142857 0.142857 0
0.142857 0.122449 0
0.142857 0.102041 0
0.142857 0.0816327 0
0.142857 0.0612245 0
0.142857 0.0408163 0
0.142857 0.0204082 0
0.163265 0.979592 0
0.163265 0.959184 0
0.163265 0.938776 0
0.163265 0.918367 0
0.163265 0.897959 0
0.163265 0.877551 0
0.163265 0.857143 0
0.163265 0.836735 0
0.163265 0.816327 0
0.163265 0.795918 0
0.163265 0.77551 0
0.163265 0.755102 0
0.163265 0.734694 0
0.163265 0.714286 0
0.163265 0.693878 0
0.163265 0.673469 0
0.163265 0.653061 0
0.163265 0.632653 0
0.163265 0.612245 0
0.163265 0.591837 0
0.163265 0.571429 0
0.163265 0.55102 0
[...]
CELL_DATA 2401
VECTORS velocity double
0.257355 0.157463 0
-0.00271334 0.264577 0
-0.0323233 0.205432 0
-0.0253993 0.150526 0
-0.0160737 0.112961 0
-0.00971114 0.0875813 0
-0.00593138 0.0704966 0
-0.00374267 0.0588016 0
-0.0024565 0.0505867 0
-0.00167694 0.0446637 0
-0.00118793 0.0402832 0
-0.000871944 0.0369591 0
-0.000663479 0.0343662 0
-0.000524556 0.0322813 0
-0.000432135 0.0305478 0
-0.000371597 0.0290535 0
-0.000333285 0.0277179 0
-0.000310582 0.0264826 0
-0.000298809 0.0253055 0
-0.000294566 0.0241569 0
-0.000295322 0.0230163 0
-0.000299157 0.0218702 0
-0.000304598 0.0207107 0
-0.000310506 0.0195344 0
-0.000316007 0.0183412 0
-0.000320439 0.0171336 0
-0.000323314 0.0159159 0
-0.000324293 0.0146941 0
-0.00032316 0.0134751 0
-0.0003198 0.0122662 0
-0.000314184 0.0110753 0
-0.000306347 0.00991003 0
-0.000296372 0.00877804 0
-0.000284376 0.00768664 0
-0.000270492 0.00664276 0
-0.000254856 0.00565287 0
-0.000237593 0.00472303 0
-0.000218805 0.0038589 0
-0.000198557 0.0030658 0
-0.000176864 0.00234881 0
-0.000153679 0.00171287 0
-0.000128884 0.00116288 0
-0.000102293 0.000703781 0
-7.37039e-05 0.000340464 0
-4.30685e-05 7.74136e-05 0
-1.10087e-05 -8.2378e-05 0
1.987e-05 -0.00013983 0
4.22749e-05 -0.00010874 0
3.72124e-05 -3.70211e-05 0
0.340593 0.12295 0
-0.000689569 0.249383 0
-0.0653026 0.271548 0
-0.063332 0.252047 0
-0.0485852 0.221502 0
-0.0350066 0.191617 0
-0.02493 0.166201 0
-0.0178795 0.145756 0
-0.0130134 0.129667 0
-0.0096457 0.117073 0
-0.00729794 0.10717 0
-0.00565124 0.0992924 0
-0.0044939 0.0929125 0
-0.00368348 0.0876249 0
-0.00312218 0.0831203 0
-0.00274136 0.0791642 0
-0.00249183 0.0755802 0
-0.00233763 0.0722361 0
-0.00225196 0.0690349 0
-0.00221454 0.0659059 0
-0.00220978 0.0628002 0
-0.00222558 0.0596853 0
-0.00225249 0.0565421 0
-0.00228313 0.053362 0
-0.00231176 0.0501445 0
-0.002334 0.0468958 0
-0.00234659 0.0436268 0
-0.00234722 0.0403519 0
-0.00233437 0.0370881 0
-0.00230716 0.033854 0
-0.00226526 0.0306689 0
-0.00220877 0.0275523 0
-0.00213807 0.0245234 0
-0.00205381 0.0216009 0
-0.00195673 0.0188026 0
-0.00184763 0.016145 0
-0.0017273 0.0136441 0
-0.00159643 0.0113146 0
-0.00145559 0.00917023 0
-0.0013052 0.00722408 0
-0.0011455 0.00548846 0
-0.000976681 0.00397497 0
-0.000798989 0.00269426 0
-0.000613227 0.00165546 0
-0.000421693 0.000864703 0
-0.000230325 0.000322483 0
-5.30687e-05 1.85692e-05 0
8.07792e-05 -7.90899e-05 0
0.000108173 -4.11082e-05 0
0.500832 0.0767849 0
0.0989948 0.183174 0
-0.0394756 0.249137 0
-0.0735468 0.265585 0
-0.0719837 0.257261 0
-0.0606332 0.239479 0
-0.0483261 0.219507 0
-0.0377057 0.200633 0
-0.0292643 0.184062 0
-0.0228012 0.169999 0
-0.0179507 0.158222 0
-0.0143589 0.148362 0
-0.0117308 0.140029 0
-0.00983445 0.13287 0
-0.00849127 0.126582 0
-0.00756462 0.120919 0
-0.00694994 0.115685 0
-0.00656677 0.110725 0
-0.00635274 0.105926 0
-0.00625912 0.1012 0
-0.00624757 0.0964893 0
-0.00628778 0.0917533 0
-0.00635575 0.0869699 0
-0.00643254 0.0821301 0
-0.00650335 0.0772358 0
-0.00655678 0.0722976 0
-0.00658434 0.0673323 0
-0.00657993 0.0623615 0
-0.00653952 0.0574104 0
-0.00646074 0.052506 0
-0.00634263 0.0476765 0
-0.0061853 0.0429502 0
-0.00598972 0.0383552 0
-0.00575741 0.0339185 0
-0.00549027 0.0296662 0
-0.00519036 0.0256227 0
-0.00485974 0.0218112 0
-0.00450033 0.0182532 0
-0.00411386 0.014969 0
-0.00370182 0.0119773 0
-0.00326557 0.00929547 0
-0.00280662 0.00693947 0
-0.00232721 0.00492305 0
-0.00183147 0.00325692 0
-0.00132758 0.00194684 0
-0.000831888 0.000990615 0
-0.000376127 0.000372221 0
-1.74867e-05 5.42995e-05 0
0.000136812 -1.78828e-05 0
0.609949 0.0480281 0
0.1955 0.133923 0
0.0111787 0.209359 0
-0.058216 0.246356 0
-0.0761798 0.256902 0
-0.073738 0.253504 0
-0.0643616 0.243346 0
-0.0536784 0.230674 0
-0.0438725 0.217739 0
-0.0356372 0.205589 0
-0.0290436 0.194605 0
-0.0239266 0.184827 0
-0.0200519 0.176129 0
-0.0171862 0.168322 0
-0.0151217 0.161204 0
-0.0136836 0.154589 0
-0.0127277 0.148316 0
-0.0121371 0.142253 0
-0.0118169 0.136297 0
-0.0116908 0.130369 0
-0.0116971 0.124416 0
-0.011786 0.118403 0
-0.0119174 0.112312 0
-0.0120595 0.106139 0
-0.0121872 0.0998928 0
-0.012281 0.093589 0
-0.0123263 0.087251 0
-0.0123127 0.0809074 0
-0.0122333 0.0745901 0
-0.0120839 0.068333 0
-0.0118631 0.0621713 0
-0.011571 0.05614 0
-0.0112093 0.0502737 0
-0.0107807 0.0446058 0
-0.0102886 0.0391681 0
-0.00973669 0.0339907 0
-0.00912864 0.0291021 0
-0.0084681 0.0245286 0
-0.00775844 0.0202949 0
-0.00700284 0.0164236 0
-0.00620452 0.0129354 0
-0.00536729 0.00984892 0
-0.00449653 0.00717951 0
-0.00360108 0.0049387 0
-0.00269635 0.00313219 0
-0.0018097 0.00175754 0
-0.0009892 0.000798325 0
-0.000314362 0.000222168 0
7.82478e-05 1.24735e-05 0
0.680313 0.0301439 0
0.278234 0.0981561 0
0.0693815 0.170949 0
-0.0276613 0.217468 0
-0.065322 0.240973 0
-0.0746035 0.24954 0
-0.0713792 0.249088 0
-0.0634215 0.243718 0
-0.054404 0.235999 0
-0.0459614 0.227414 0
-0.0387243 0.218755 0
-0.0328407 0.210392 0
-0.0282396 0.202452 0
-0.0247625 0.19493 0
-0.0222267 0.187754 0
-0.0204554 0.18083 0
-0.0192893 0.174061 0
-0.0185905 0.167361 0
-0.0182419 0.160657 0
-0.0181456 0.153896 0
-0.0182202 0.14704 0
-0.0183987 0.14007 0
-0.0186263 0.132979 0
-0.0188589 0.125773 0
-0.0190614 0.118468 0
-0.0192066 0.11109 0
-0.019274 0.103668 0
-0.0192491 0.096237 0
-0.0191222 0.0888365 0
-0.0188877 0.0815059 0
-0.0185437 0.0742858 0
-0.0180908 0.0672167 0
-0.0175316 0.0603377 0
-0.0168704 0.0536868 0
-0.0161123 0.0473 0
-0.0152629 0.0412113 0
-0.014328 0.0354523 0
-0.0133132 0.0300528 0
-0.0122241 0.02504 0
-0.0110659 0.0204392 0
-0.00984429 0.016273 0
-0.008566 0.0125614 0
-0.00724019 0.00932122 0
-0.00588081 0.00656479 0
-0.00451028 0.0042991 0
-0.00316544 0.00252432 0
-0.0019064 0.00122839 0
-0.0008265 0.000390569 0
-7.51039e-05 4.17775e-05 0
0.729696 0.0191753 0
0.348751 0.0730331 0
0.127701 0.139302 0
0.0111046 0.188314 0
-0.0442711 0.219742 0
-0.0658038 0.23697 0
-0.0702781 0.244533 0
-0.0668032 0.245898 0
-0.060185 0.243516 0
-0.0528762 0.238991 0
-0.0460548 0.233315 0
-0.0402172 0.227067 0
-0.0355031 0.220559 0
-0.0318747 0.213939 0
-0.0292128 0.207258 0
-0.0273688 0.200514 0
-0.0261909 0.193683 0
-0.0255364 0.186732 0
-0.0252779 0.179631 0
-0.025304 0.172356 0
-0.0255195 0.164898 0
-0.0258442 0.157254 0
-0.0262116 0.149435 0
-0.0265673 0.14146 0
-0.0268679 0.133356 0
-0.0270794 0.125156 0
-0.0271766 0.116901 0
-0.0271413 0.108631 0
-0.026962 0.100392 0
-0.0266322 0.0922291 0
-0.0261499 0.0841871 0
-0.0255167 0.0763105 0
-0.0247368 0.0686425 0
-0.0238161 0.0612238 0
-0.022762 0.0540932 0
-0.0215822 0.0472871 0
-0.0202851 0.0408392 0
-0.0188784 0.0347809 0
-0.0173702 0.0291411 0
-0.0157682 0.0239461 0
-0.0140808 0.0192199 0
-0.0123177 0.0149834 0
-0.010492 0.0112545 0
-0.00862216 0.00804719 0
-0.00673641 0.00537114 0
-0.00487825 0.00323159 0
-0.00311466 0.00162409 0
-0.00154433 0.000542936 0
-0.000315931 6.69755e-05 0
0.765702 0.0125793 0
0.408184 0.0557066 0
0.182714 0.114579 0
0.0526788 0.162734 0
-0.016988 0.198004 0
-0.0499723 0.221014 0
-0.0625677 0.234599 0
-0.0645043 0.24152 0
-0.0613464 0.243906 0
-0.0561808 0.243281 0
-0.0506573 0.240685 0
-0.0456006 0.236795 0
-0.0413689 0.232036 0
-0.0380638 0.226663 0
-0.0356507 0.220822 0
-0.0340289 0.214593 0
-0.0330707 0.208016 0
-0.0326428 0.201111 0
-0.0326174 0.19389 0
-0.0328784 0.186366 0
-0.0333228 0.178554 0
-0.0338621 0.170476 0
-0.0344216 0.16216 0
-0.0349394 0.15364 0
-0.0353659 0.144957 0
-0.0356624 0.136154 0
-0.0358001 0.127279 0
-0.0357587 0.118381 0
-0.0355254 0.109512 0
-0.035094 0.100721 0
-0.0344633 0.0920584 0
-0.0336363 0.0835711 0
-0.0326192 0.0753051 0
-0.0314204 0.0673032 0
-0.0300497 0.0596059 0
-0.0285175 0.0522507 0
-0.0268347 0.0452722 0
-0.0250118 0.0387025 0
-0.0230592 0.032571 0
-0.0209873 0.0269044 0
-0.0188071 0.0217272 0
-0.0165314 0.0170611 0
-0.0141763 0.0129251 0
-0.0117639 0.00933555 0
-0.00932623 0.00630591 0
-0.00691007 0.00384802 0
-0.00458421 0.00196689 0
-0.00244545 0.000672582 0
-0.000632169 8.7377e-05 0
0.792747 0.00859891 0
0.458265 0.0436463 0
0.233245 0.0954755 0
0.0944206 0.14125 0
0.0139875 0.177619 0
-0.0293103 0.204279 0
-0.0498383 0.222159 0
-0.0575445 0.233398 0
-0.0584551 0.239747 0
-0.0561158 0.242559 0
-0.0525525 0.242829 0
-0.0488734 0.241255 0
-0.0456392 0.238316 0
-0.0430902 0.234331 0
-0.0412833 0.229512 0
-0.0401756 0.223998 0
-0.0396737 0.217883 0
-0.0396627 0.211234 0
-0.0400233 0.204101 0
-0.0406406 0.196529 0
-0.0414101 0.188562 0
-0.0422391 0.180243 0
-0.0430482 0.171619 0
-0.0437715 0.16274 0
-0.0443554 0.15366 0
-0.0447585 0.144434 0
-0.04495 0.135118 0
-0.044909 0.125769 0
-0.0446231 0.116444 0
-0.0440869 0.107198 0
-0.0433011 0.0980844 0
-0.042271 0.0891528 0
-0.0410056 0.0804512 0
-0.039516 0.0720239 0
-0.0378152 0.063912 0
-0.0359166 0.0561533 0
-0.0338338 0.0487825 0
-0.0315801 0.0418313 0
-0.0291686 0.0353289 0
-0.0266122 0.029302 0
-0.0239243 0.0237748 0
-0.0211199 0.0187697 0
-0.0182174 0.014307 0
-0.0152411 0.0104056 0
-0.0122244 0.00708363 0
-0.00921437 0.00436007 0
-0.00627697 0.00224981 0
-0.00350165 0.000777862 0
-0.00101034 0.000103222 0
0.813776 0.00615466 0
0.500798 0.0351046 0
0.279139 0.0807115 0
0.134872 0.123534 0
0.0461445 0.159664 0
-0.00559873 0.188076 0
-0.0334894 0.208886 0
-0.0469531 0.223326 0
-0.0522127 0.232811 0
-0.0531159 0.238492 0
-0.0519723 0.241269 0
-0.050121 0.241813 0
-0.0482982 0.240613 0
-0.046871 0.238018 0
-0.0459855 0.234279 0
-0.0456587 0.229576 0
-0.0458358 0.224044 0
-0.0464258 0.217785 0
-0.0473226 0.210883 0
-0.0484183 0.203411 0
-0.0496103 0.195437 0
-0.0508059 0.187025 0
-0.0519246 0.178242 0
-0.0528986 0.169154 0
-0.053673 0.159825 0
-0.0542056 0.150322 0
-0.0544657 0.140712 0
-0.0544333 0.131057 0
-0.0540973 0.121421 0
-0.053455 0.111863 0
-0.0525098 0.10244 0
-0.0512703 0.0932044 0
-0.0497488 0.0842051 0
-0.0479602 0.0754871 0
-0.0459209 0.0670914 0
-0.0436476 0.0590556 0
-0.0411571 0.0514135 0
-0.0384656 0.0441961 0
-0.0355887 0.0374314 0
-0.0325416 0.0311455 0
-0.0293395 0.0253621 0
-0.0259992 0.0201041 0
-0.0225401 0.015393 0
-0.018987 0.0112504 0
-0.0153724 0.00769891 0
-0.0117407 0.0047648 0
-0.00815145 0.0024723 0
-0.00468296 0.000859568 0
-0.00143726 0.000115057 0
0.830662 0.00461345 0
0.5373 0.0289203 0
0.320695 0.0691889 0
0.173431 0.108923 0
0.0784943 0.144049 0
0.0199047 0.173006 0
-0.014649 0.195656 0
-0.0336428 0.212391 0
-0.0433099 0.224273 0
-0.047672 0.232261 0
-0.0492415 0.237142 0
-0.0495371 0.239533 0
-0.04944 0.239905 0
-0.0494277 0.238616 0
-0.0497269 0.235934 0
-0.0504116 0.232063 0
-0.0514662 0.227166 0
-0.0528251 0.221371 0
-0.0543986 0.214787 0
-0.0560882 0.207513 0
-0.0577967 0.199637 0
-0.059434 0.191243 0
-0.0609208 0.182414 0
-0.0621901 0.173229 0
-0.0631878 0.163767 0
-0.0638728 0.154105 0
-0.0642162 0.144318 0
-0.0642005 0.134476 0
-0.0638177 0.124648 0
-0.0630686 0.114897 0
-0.0619607 0.105284 0
-0.0605068 0.0958623 0
-0.0587237 0.0866824 0
-0.0566303 0.0777891 0
-0.0542472 0.0692231 0
-0.051595 0.0610206 0
-0.0486937 0.0532143 0
-0.0455625 0.0458335 0
-0.0422195 0.0389048 0
-0.0386816 0.0324529 0
-0.0349657 0.0265011 0
-0.031089 0.0210718 0
-0.0270709 0.0161879 0
-0.0229349 0.0118733 0
-0.0187108 0.00815482 0
-0.0144375 0.00506526 0
-0.0101658 0.00263713 0
-0.00596004 0.00091955 0
-0.00190077 0.000123485 0
0.844599 0.00360855 0
0.568965 0.0243363 0
0.358333 0.0600875 0
0.209812 0.0968374 0
0.110269 0.130568 0
0.0460128 0.159411 0
0.00586495 0.182897 0
-0.0183515 0.201227 0
-0.0323552 0.214889 0
-0.0402573 0.224678 0
-0.0447083 0.23127 0
-0.0473632 0.235217 0
-0.0492191 0.236959 0
-0.0508461 0.236843 0
-0.0525408 0.235141 0
-0.0544286 0.232071 0
-0.0565303 0.227809 0
-0.0588055 0.222503 0
-0.0611812 0.216284 0
-0.0635699 0.209265 0
-0.0658814 0.201555 0
-0.0680301 0.193254 0
-0.0699398 0.184459 0
-0.0715462 0.175264 0
-0.0727976 0.165757 0
-0.0736561 0.156028 0
-0.0740962 0.146157 0
-0.0741041 0.136223 0
-0.0736767 0.126301 0
-0.0728196 0.116456 0
-0.0715455 0.106753 0
-0.0698725 0.0972458 0
-0.0678227 0.0879857 0
-0.0654201 0.0790173 0
-0.0626899 0.0703801 0
-0.0596568 0.0621087 0
-0.0563446 0.0542337 0
-0.0527754 0.0467825 0
-0.0489695 0.0397797 0
-0.0449454 0.0332482 0
-0.0407207 0.02721 0
-0.0363123 0.0216871 0
-0.0317385 0.0167029 0
-0.0270198 0.0122833 0
-0.0221814 0.00845879 0
-0.0172547 0.00526736 0
-0.0122798 0.00274849 0
-0.00730531 0.000959968 0
-0.00239002 0.000129054 0
0.856368 0.00292685 0
0.596723 0.0208529 0
0.392511 0.0527916 0
0.243975 0.086757 0
0.141099 0.118907 0
0.0722002 0.147219 0
0.0271868 0.170973 0
-0.00168448 0.190203 0
-0.0198657 0.205146 0
-0.0312978 0.216298 0
-0.0387091 0.22424 0
-0.0438529 0.229458 0
-0.0478176 0.232354 0
-0.0512487 0.233255 0
-0.0545016 0.232427 0
-0.057746 0.230089 0
-0.061035 0.226429 0
-0.0643513 0.221604 0
-0.0676377 0.215759 0
-0.0708178 0.209022 0
-0.0738089 0.201516 0
-0.0765311 0.193355 0
-0.0789126 0.184649 0
-0.0808929 0.175503 0
-0.0824248 0.166018 0
-0.0834744 0.156291 0
-0.0840214 0.146411 0
-0.0840575 0.136463 0
-0.0835856 0.126526 0
-0.0826174 0.116671 0
-0.0811722 0.106961 0
-0.0792746 0.0974552 0
-0.0769527 0.0882025 0
-0.0742365 0.0792471 0
-0.0711564 0.0706268 0
-0.0677417 0.0623741 0
-0.0640202 0.0545173 0
-0.0600168 0.047081 0
-0.055754 0.0400873 0
-0.0512515 0.0335567 0
-0.0465268 0.0275095 0
-0.041596 0.0219668 0
-0.0364745 0.016952 0
-0.0311788 0.0124919 0
-0.0257279 0.00861986 0
-0.0201442 0.0053779 0
-0.0144552 0.00281079 0
-0.0086933 0.000982877 0
-0.00289537 0.000132216 0
0.866495 0.00244408 0
0.621295 0.0181388 0
0.42365 0.046849 0
0.27598 0.0782607 0
0.170763 0.108766 0
0.0980701 0.136287 0
0.0488307 0.159933 0
0.0158307 0.179554 0
-0.00628236 0.195331 0
-0.0211686 0.207481 0
-0.0315533 0.216454 0
-0.0392529 0.222679 0
-0.0454253 0.226517 0
-0.0507758 0.228271 0
-0.055708 0.228194 0
-0.0604282 0.226502 0
-0.0650168 0.223384 0
-0.0694765 0.219006 0
-0.0737643 0.21352 0
-0.0778137 0.207066 0
-0.0815498 0.199777 0
-0.0848984 0.191781 0
-0.0877929 0.183197 0
-0.0901777 0.174142 0
-0.092011 0.164726 0
-0.0932647 0.155054 0
-0.0939247 0.145223 0
-0.0939898 0.135324 0
-0.0934701 0.12544 0
-0.0923851 0.115643 0
-0.0907617 0.106002 0
-0.088632 0.0965721 0
-0.0860314 0.0874045 0
-0.0829964 0.078541 0
-0.0795633 0.0700175 0
-0.0757666 0.0618639 0
-0.071638 0.0541052 0
-0.0672057 0.0467629 0
-0.062494 0.0398561 0
-0.0575233 0.0334024 0
-0.0523105 0.0274199 0
-0.0468698 0.0219279 0
-0.0412132 0.016949 0
-0.0353517 0.0125105 0
-0.0292965 0.00864697 0
-0.0230601 0.00540333 0
-0.0166564 0.00282806 0
-0.0101007 0.000990022 0
-0.00340829 0.000133318 0
0.875339 0.00208701 0
0.643231 0.0159719 0
0.452122 0.041928 0
0.305936 0.0710144 0
0.199152 0.0998797 0
0.123365 0.126451 0
0.0704502 0.149733 0
0.0337129 0.16943 0
0.00806475 0.185597 0
-0.0101796 0.198445 0
-0.0235128 0.208177 0
-0.0337916 0.215171 0
-0.0422278 0.219753 0
-0.049574 0.222196 0
-0.0562716 0.222741 0
-0.0625569 0.221595 0
-0.0685324 0.218946 0
-0.0742167 0.214962 0
-0.0795789 0.209801 0
-0.0845612 0.203612 0
-0.0890953 0.196536 0
-0.0931128 0.188711 0
-0.0965525 0.180266 0
-0.0993647 0.171328 0
-0.101514 0.162015 0
-0.102978 0.152439 0
-0.103752 0.142704 0
-0.103842 0.132905 0
-0.103267 0.12313 0
-0.102056 0.113454 0
-0.100244 0.103945 0
-0.0978725 0.0946604 0
-0.0949844 0.0856484 0
-0.0916239 0.0769494 0
-0.087834 0.0685966 0
-0.0836544 0.0606166 0
-0.0791214 0.053031 0
-0.0742661 0.0458575 0
-0.0691146 0.0391114 0
-0.0636877 0.0328071 0
-0.0580014 0.0269595 0
-0.0520668 0.0215858 0
-0.0458917 0.0167068 0
-0.0394806 0.0123492 0
-0.0328362 0.00854796 0
-0.0259594 0.00534918 0
-0.0188499 0.00280358 0
-0.0115058 0.000982754 0
-0.00392105 0.0001326 0
0.883154 0.00181161 0
0.662958 0.0142007 0
0.478244 0.0377833 0
0.333968 0.0647537 0
0.226223 0.092018 0
0.147922 0.117548 0
0.091808 0.140284 0
0.0516907 0.159826 0
0.0227435 0.176126 0
0.00139938 0.189322 0
-0.0148254 0.199581 0
-0.027677 0.20713 0
-0.0384017 0.212268 0
-0.0477889 0.215244 0
-0.0563102 0.216279 0
-0.0642245 0.215573 0
-0.0716515 0.213308 0
-0.0786225 0.209653 0
-0.0851154 0.204771 0
-0.0910793 0.198815 0
-0.0964517 0.191934 0
-0.101169 0.184274 0
-0.105177 0.175974 0
-0.10843 0.167167 0
-0.110901 0.15798 0
-0.112577 0.148531 0
-0.113459 0.138931 0
-0.113564 0.129278 0
-0.112922 0.119663 0
-0.111571 0.110163 0
-0.109556 0.100846 0
-0.10693 0.0917686 0
-0.103743 0.082978 0
-0.100049 0.0745118 0
-0.0958964 0.0663995 0
-0.0913325 0.058664 0
-0.0863974 0.0513227 0
-0.0811255 0.0443892 0
-0.0755444 0.0378745 0
-0.0696751 0.0317891 0
-0.0635318 0.0261441 0
-0.0571225 0.0209536 0
-0.0504495 0.0162361 0
-0.0435103 0.0120167 0
-0.0362977 0.00832919 0
-0.0288008 0.00521978 0
-0.0210044 0.00273984 0
-0.0128886 0.000962023 0
-0.00442659 0.000130212 0
0.890122 0.00159071 0
0.680802 0.0127191 0
0.502279 0.0342315 0
0.3602 0.0592681 0
0.251965 0.0849837 0
0.171629 0.109416 0
0.112728 0.131473 0
0.0695539 0.15068 0
0.0375498 0.166907 0
0.0132838 0.180216 0
-0.00571708 0.190766 0
-0.0211045 0.198675 0
-0.0341151 0.204195 0
-0.0455637 0.207552 0
-0.0559433 0.208948 0
-0.0655292 0.208572 0
-0.074453 0.206601 0
-0.0827547 0.203204 0
-0.0904185 0.198544 0
-0.0973986 0.19278 0
-0.103637 0.186067 0
-0.109074 0.178558 0
-0.113661 0.170399 0
-0.11736 0.16173 0
-0.120151 0.152686 0
-0.122029 0.14339 0
-0.123006 0.133958 0
-0.123111 0.124491 0
-0.122384 0.115083 0
-0.120874 0.105811 0
-0.118639 0.0967422 0
-0.115741 0.0879329 0
-0.112242 0.079427 0
-0.108203 0.0712589 0
-0.103682 0.0634542 0
-0.0987314 0.0560315 0
-0.0933963 0.0490034 0
-0.0877144 0.0423787 0
-0.0817148 0.0361636 0
-0.0754182 0.0303639 0
-0.0688368 0.0249868 0
-0.0619747 0.0200424 0
-0.0548284 0.0155459 0
-0.0473873 0.0115196 0
-0.0396341 0.00799559 0
-0.0315452 0.00501832 0
-0.0230897 0.00263854 0
-0.01423 0.000928422 0
-0.00491819 0.000126226 0
0.896374 0.00140696 0
0.697015 0.0114515 0
0.524439 0.0311329 0
0.384745 0.0543895 0
0.276387 0.0786098 0
0.194411 0.101912 0
0.133072 0.123191 0
0.087126 0.141919 0
0.0522814 0.157904 0
0.0252523 0.171147 0
0.00363502 0.181754 0
-0.0142442 0.189861 0
-0.0295234 0.195601 0
-0.0430358 0.199196 0
-0.0552898 0.200828 0
-0.0665716 0.200673 0
-0.0770203 0.198904 0
-0.0866808 0.195687 0
-0.0955406 0.191187 0
-0.103557 0.185568 0
-0.110675 0.17899 0
-0.116839 0.171611 0
-0.122006 0.163585 0
-0.126144 0.155058 0
-0.129243 0.146171 0
-0.131306 0.137051 0
-0.132359 0.127818 0
-0.132441 0.118577 0
-0.131604 0.10942 0
-0.129912 0.100427 0
-0.127435 0.0916627 0
-0.124245 0.0831805 0
-0.120417 0.0750213 0
-0.116022 0.0672156 0
-0.111124 0.0597843 0
-0.105784 0.0527409 0
-0.10005 0.0460929 0
-0.0939654 0.0398437 0
-0.0875591 0.0339943 0
-0.0808518 0.0285454 0
-0.0738533 0.0234993 0
-0.0665633 0.0188615 0
-0.058972 0.0146434 0
-0.0510603 0.0108636 0
-0.0428001 0.00755088 0
-0.0341544 0.00474703 0
-0.0250769 0.00250076 0
-0.0155115 0.000882263 0
-0.00538937 0.000120656 0
0.902006 0.00124888 0
0.711791 0.0103425 0
0.544899 0.0283798 0
0.407698 0.0499817 0
0.299501 0.072754 0
0.21621 0.0949014 0
0.152736 0.115324 0
0.104268 0.133456 0
0.0667798 0.149057 0
0.0371349 0.162082 0
0.0130053 0.17259 0
-0.0072665 0.180708 0
-0.0247765 0.186517 0
-0.0403383 0.19021 0
-0.0544671 0.191953 0
-0.0674537 0.19191 0
-0.0794398 0.190248 0
-0.0904718 0.187132 0
-0.100538 0.182729 0
-0.109597 0.177205 0
-0.117595 0.170725 0
-0.124481 0.163454 0
-0.130215 0.155551 0
-0.134776 0.147168 0
-0.138159 0.13845 0
-0.140382 0.12953 0
-0.141482 0.120529 0
-0.14151 0.111553 0
-0.140535 0.102695 0
-0.138632 0.094032 0
-0.135886 0.0856283 0
-0.132383 0.0775329 0
-0.128207 0.0697827 0
-0.12344 0.0624033 0
-0.118157 0.0554105 0
-0.112423 0.0488121 0
-0.106294 0.0426098 0
-0.099813 0.0368013 0
-0.093013 0.0313818 0
-0.0859131 0.0263465 0
-0.0785205 0.0216922 0
-0.0708304 0.0174197 0
-0.062826 0.0135353 0
-0.0544795 0.0100532 0
-0.0457517 0.00699803 0
-0.036592 0.00440756 0
-0.0269379 0.00232719 0
-0.0167152 0.000823665 0
-0.00583373 0.000113474 0
0.907091 0.00110851 0
0.725278 0.00935035 0
0.563792 0.0258868 0
0.429137 0.0459323 0
0.321318 0.0672932 0