# vtk DataFile Version 3.0
Malha 2D com triângulos e temperatura
ASCII
DATASET UNSTRUCTURED_GRID

POINTS 2500 double
0 0 0
1 0 0
1 1 0
0 1 0
0.0204082 0 0
0.0408163 0 0
0.0612245 0 0
0.0816327 0 0
0.102041 0 0
0.122449 0 0
0.142857 0 0
0.163265 0 0
0.183673 0 0
0.204082 0 0
0.22449 0 0
0.244898 0 0
0.265306 0 0
0.285714 0 0
0.306122 0 0
0.326531 0 0
0.346939 0 0
0.367347 0 0
0.387755 0 0
0.408163 0 0
0.428571 0 0
0.44898 0 0
0.469388 0 0
0.489796 0 0
0.510204 0 0
0.530612 0 0
0.55102 0 0
0.571429 0 0
0.591837 0 0
0.612245 0 0
0.632653 0 0
0.653061 0 0
0.673469 0 0
0.693878 0 0
0.714286 0 0
0.734694 0 0
0.755102 0 0
0.77551 0 0
0.795918 0 0
0.816327 0 0
0.836735 0 0
0.857143 0 0
0.877551 0 0
0.897959 0 0
0.918367 0 0
0.938776 0 0
0.959184 0 0
0.979592 0 0
1 0.0204082 0
1 0.0408163 0
1 0.0612245 0
1 0.0816327 0
1 0.102041 0
1 0.122449 0
1 0.142857 0
1 0.163265 0
1 0.183673 0
1 0.204082 0
1 0.22449 0
1 0.244898 0
1 0.265306 0
1 0.285714 0
1 0.306122 0
1 0.326531 0
1 0.346939 0
1 0.367347 0
1 0.387755 0
1 0.408163 0
1 0.428571 0
1 0.44898 0
1 0.469388 0
1 0.489796 0
1 0.510204 0
1 0.530612 0
1 0.55102 0
1 0.571429 0
1 0.591837 0
1 0.612245 0
1 0.632653 0
1 0.653061 0
1 0.673469 0
1 0.693878 0
1 0.714286 0
1 0.734694 0
1 0.755102 0
1 0.77551 0
1 0.795918 0
1 0.816327 0
1 0.836735 0
1 0.857143 0
1 0.877551 0
1 0.897959 0
1 0.918367 0
1 0.938776 0
1 0.959184 0
1 0.979592 0
0.979592 1 0
0.959184 1 0
0.938776 1 0
0.918367 1 0
0.897959 1 0
0.877551 1 0
0.857143 1 0
0.836735 1 0
0.816327 1 0
0.795918 1 0
0.77551 1 0
0.755102 1 0
0.734694 1 0
0.714286 1 0
0.693878 1 0
0.673469 1 0
0.653061 1 0
0.632653 1 0
0.612245 1 0
0.591837 1 0
0.571429 1 0
0.55102 1 0
0.530612 1 0
0.510204 1 0
0.489796 1 0
0.469388 1 0
0.44898 1 0
0.428571 1 0
0.408163 1 0
0.387755 1 0
0.367347 1 0
0.346939 1 0
0.326531 1 0
0.306122 1 0
0.285714 1 0
0.265306 1 0
0.244898 1 0
0.22449 1 0
0.204082 1 0
0.183673 1 0
0.163265 1 0
0.142857 1 0
0.122449 1 0
0.102041 1 0
0.0816327 1 0
0.0612245 1 0
0.0408163 1 0
0.0204082 1 0
0 0.979592 0
0 0.959184 0
0 0.938776 0
0 0.918367 0
0 0.897959 0
0 0.877551 0
0 0.857143 0
0 0.836735 0
0 0.816327 0
0 0.795918 0
0 0.77551 0
0 0.755102 0
0 0.734694 0
0 0.714286 0
0 0.693878 0
0 0.673469 0
0 0.653061 0
0 0.632653 0
0 0.612245 0
0 0.591837 0
0 0.571429 0
0 0.55102 0
0 0.530612 0
0 0.510204 0
0 0.489796 0
0 0.469388 0
0 0.44898 0
0 0.428571 0
0 0.408163 0
0 0.387755 0
0 0.367347 0
0 0.346939 0
0 0.326531 0
0 0.306122 0
0 0.285714 0
0 0.265306 0
0 0.244898 0
0 0.22449 0
0 0.204082 0
0 0.183673 0
0 0.163265 0
0 0.142857 0
0 0.122449 0
0 0.102041 0
0 0.0816327 0
0 0.0612245 0
0 0.0408163 0
0 0.0204082 0
0.0204082 0.979592 0
0.0204082 0.959184 0
0.0204082 0.938776 0
0.0204082 0.918367 0
0.0204082 0.897959 0
0.0204082 0.877551 0
0.0204082 0.857143 0
0.0204082 0.836735 0
0.0204082 0.816327 0
0.0204082 0.795918 0
0.0204082 0.77551 0
0.0204082 0.755102 0
0.0204082 0.734694 0
0.0204082 0.714286 0
0.0204082 0.693878 0
0.0204082 0.673469 0
0.0204082 0.653061 0
0.0204082 0.632653 0
0.0204082 0.612245 0
0.0204082 0.591837 0
0.0204082 0.571429 0
0.0204082 0.55102 0
0.0204082 0.530612 0
0.0204082 0.510204 0
0.0204082 0.489796 0
0.0204082 0.469388 0
0.0204082 0.44898 0
0.0204082 0.428571 0
0.0204082 0.408163 0
0.0204082 0.387755 0
0.0204082 0.367347 0
0.0204082 0.346939 0
0.0204082 0.326531 0
0.0204082 0.306122 0
0.0204082 0.285714 0
0.0204082 0.265306 0
0.0204082 0.244898 0
0.0204082 0.22449 0
0.0204082 0.204082 0
0.0204082 0.183673 0
0.0204082 0.163265 0
0.0204082 0.142857 0
0.0204082 0.122449 0
0.0204082 0.102041 0
0.0204082 0.0816327 0
0.0204082 0.0612245 0
0.0204082 0.0408163 0
0.0204082 0.0204082 0
0.0408163 0.979592 0
0.0408163 0.959184 0
0.0408163 0.938776 0
0.0408163 0.918367 0
0.0408163 0.897959 0
0.0408163 0.877551 0
0.0408163 0.857143 0
0.0408163 0.836735 0
0.0408163 0.816327 0
0.0408163 0.795918 0
0.0408163 0.77551 0
0.0408163 0.755102 0
0.0408163 0.734694 0
0.0408163 0.714286 0
0.0408163 0.693878 0
0.0408163 0.673469 0
0.0408163 0.653061 0
0.0408163 0.632653 0
0.0408163 0.612245 0
0.0408163 0.591837 0
0.0408163 0.571429 0
0.0408163 0.55102 0
0.0408163 0.530612 0
0.0408163 0.510204 0
0.0408163 0.489796 0
0.0408163 0.469388 0
0.0408163 0.44898 0
0.0408163 0.428571 0
0.0408163 0.408163 0
0.0408163 0.387755 0
0.0408163 0.367347 0
0.0408163 0.346939 0
0.0408163 0.326531 0
0.0408163 0.306122 0
0.0408163 0.285714 0
0.0408163 0.265306 0
0.0408163 0.244898 0
0.0408163 0.22449 0
0.0408163 0.204082 0
0.0408163 0.183673 0
0.0408163 0.163265 0
0.0408163 0.142857 0
0.0408163 0.122449 0
0.0408163 0.102041 0
0.0408163 0.0816327 0
0.0408163 0.0612245 0
0.0408163 0.0408163 0
0.0408163 0.0204082 0
0.0612245 0.979592 0
0.0612245 0.959184 0
0.0612245 0.938776 0
0.0612245 0.918367 0
0.0612245 0.897959 0
0.0612245 0.877551 0
0.0612245 0.857143 0
0.0612245 0.836735 0
0.0612245 0.816327 0
0.0612245 0.795918 0
0.0612245 0.77551 0
0.0612245 0.755102 0
0.0612245 0.734694 0
0.0612245 0.714286 0
0.0612245 0.693878 0
0.0612245 0.673469 0
0.0612245 0.653061 0
0.0612245 0.632653 0
0.0612245 0.612245 0
0.0612245 0.591837 0
0.0612245 0.571429 0
0.0612245 0.55102 0
0.0612245 0.530612 0
0.0612245 0.510204 0
0.0612245 0.489796 0
0.0612245 0.469388 0
0.0612245 0.44898 0
0.0612245 0.428571 0
0.0612245 0.408163 0
0.0612245 0.387755 0
0.0612245 0.367347 0
0.0612245 0.346939 0
0.0612245 0.326531 0
0.0612245 0.306122 0
0.0612245 0.285714 0
0.0612245 0.265306 0
0.0612245 0.244898 0
0.0612245 0.22449 0
0.0612245 0.204082 0
0.0612245 0.183673 0
0.0612245 0.163265 0
0.0612245 0.142857 0
0.0612245 0.122449 0
0.0612245 0.102041 0
0.0612245 0.0816327 0
0.0612245 0.0612245 0
0.0612245 0.0408163 0
0.0612245 0.0204082 0
0.0816327 0.979592 0
0.0816327 0.959184 0
0.0816327 0.938776 0
0.0816327 0.918367 0
0.0816327 0.897959 0
0.0816327 0.877551 0
0.0816327 0.857143 0
0.0816327 0.836735 0
0.0816327 0.816327 0
0.0816327 0.795918 0
0.0816327 0.77551 0
0.0816327 0.755102 0
0.0816327 0.734694 0
0.0816327 0.714286 0
0.0816327 0.693878 0
0.0816327 0.673469 0
0.0816327 0.653061 0
0.0816327 0.632653 0
0.0816327 0.612245 0
0.0816327 0.591837 0
0.0816327 0.571429 0
0.0816327 0.55102 0
0.0816327 0.530612 0
0.0816327 0.510204 0
0.0816327 0.489796 0
0.0816327 0.469388 0
0.0816327 0.44898 0
0.0816327 0.428571 0
0.0816327 0.408163 0
0.0816327 0.387755 0
0.0816327 0.367347 0
0.0816327 0.346939 0
0.0816327 0.326531 0
0.0816327 0.306122 0
0.0816327 0.285714 0
0.0816327 0.265306 0
0.0816327 0.244898 0
0.0816327 0.22449 0
0.0816327 0.204082 0
0.0816327 0.183673 0
0.0816327 0.163265 0
0.0816327 0.142857 0
0.0816327 0.122449 0
0.0816327 0.102041 0
0.0816327 0.0816327 0
0.0816327 0.0612245 0
0.0816327 0.0408163 0
0.0816327 0.0204082 0
0.102041 0.979592 0
0.102041 0.959184 0
0.102041 0.938776 0
0.102041 0.918367 0
0.102041 0.897959 0
0.102041 0.877551 0
0.102041 0.857143 0
0.102041 0.836735 0
0.102041 0.816327 0
0.102041 0.795918 0
0.102041 0.77551 0
0.102041 0.755102 0
0.102041 0.734694 0
0.102041 0.714286 0
0.102041 0.693878 0
0.102041 0.673469 0
0.102041 0.653061 0
0.102041 0.632653 0
0.102041 0.612245 0
0.102041 0.591837 0
0.102041 0.571429 0
0.102041 0.55102 0
0.102041 0.530612 0
0.102041 0.510204 0
0.102041 0.489796 0
0.102041 0.469388 0
0.102041 0.44898 0
0.102041 0.428571 0
0.102041 0.408163 0
0.102041 0.387755 0
0.102041 0.367347 0
0.102041 0.346939 0
0.102041 0.326531 0
0.102041 0.306122 0
0.102041 0.285714 0
0.102041 0.265306 0
0.102041 0.244898 0
0.102041 0.22449 0
0.102041 0.204082 0
0.102041 0.183673 0
0.102041 0.163265 0
0.102041 0.142857 0
0.102041 0.122449 0
0.102041 0.102041 0
0.102041 0.0816327 0
0.102041 0.0612245 0
0.102041 0.0408163 0
0.102041 0.0204082 0
0.122449 0.979592 0
0.122449 0.959184 0
0.122449 0.938776 0
0.122449 0.918367 0
0.122449 0.897959 0
0.122449 0.877551 0
0.122449 0.857143 0
0.122449 0.836735 0
0.122449 0.816327 0
0.122449 0.795918 0
0.122449 0.77551 0
0.122449 0.755102 0
0.122449 0.734694 0
0.122449 0.714286 0
0.122449 0.693878 0
0.122449 0.673469 0
0.122449 0.653061 0
0.122449 0.632653 0
0.122449 0.612245 0
0.122449 0.591837 0
0.122449 0.571429 0
0.122449 0.55102 0
0.122449 0.530612 0
0.122449 0.510204 0
0.122449 0.489796 0
0.122449 0.469388 0
0.122449 0.44898 0
0.122449 0.428571 0
0.122449 0.408163 0
0.122449 0.387755 0
0.122449 0.367347 0
0.122449 0.346939 0
0.122449 0.326531 0
0.122449 0.306122 0
0.122449 0.285714 0
0.122449 0.265306 0
0.122449 0.244898 0
0.122449 0.22449 0
0.122449 0.204082 0
0.122449 0.183673 0
0.122449 0.163265 0
0.122449 0.142857 0
0.122449 0.122449 0
0.122449 0.102041 0
0.122449 0.0816327 0
0.122449 0.0612245 0
0.122449 0.0408163 0
0.122449 0.0204082 0
0.142857 0.979592 0
0.142857 0.959184 0
0.142857 0.938776 0
0.142857 0.918367 0
0.142857 0.897959 0
0.142857 0.877551 0
0.142857 0.857143 0
0.142857 0.836735 0
0.142857 0.816327 0
0.142857 0.795918 0
0.142857 0.77551 0
0.142857 0.755102 0
0.142857 0.734694 0
0.142857 0.714286 0
0.142857 0.693878 0
0.142857 0.673469 0
0.142857 0.653061 0
0.142857 0.632653 0
0.142857 0.612245 0
0.142857 0.591837 0
0.142857 0.571429 0
0.142857 0.55102 0
0.142857 0.530612 0
0.142857 0.510204 0
0.142857 0.489796 0
0.142857 0.469388 0
0.142857 0.44898 0
0.142857 0.428571 0
0.142857 0.408163 0
0.142857 0.387755 0
0.142857 0.367347 0
0.142857 0.346939 0
0.142857 0.326531 0
0.142857 0.306122 0
0.142857 0.285714 0
0.142857 0.265306 0
0.142857 0.244898 0
0.142857 0.22449 0
0.142857 0.204082 0
0.142857 0.183673 0
0.142857 0.163265 0
0.142857 0.142857 0
0.142857 0.122449 0
0.142857 0.102041 0
0.142857 0.0816327 0
0.142857 0.0612245 0
0.142857 0.0408163 0
0.142857 0.0204082 0
0.163265 0.979592 0
0.163265 0.959184 0
0.163265 0.938776 0
0.163265 0.918367 0
0.163265 0.897959 0
0.163265 0.877551 0
0.163265 0.857143 0
0.163265 0.836735 0
0.163265 0.816327 0
0.163265 0.795918 0
0.163265 0.77551 0
0.163265 0.755102 0
0.163265 0.734694 0
0.163265 0.714286 0
0.163265 0.693878 0
0.163265 0.673469 0
0.163265 0.653061 0
0.163265 0.632653 0
0.163265 0.612245 0
0.163265 0.591837 0
0.163265 0.571429 0
0.163265 0.55102 0
[...]
CELL_DATA 2401
VECTORS velocity double
0.257355 0.157463 0.0
-0.00271143 0.26458 0.0
-0.0323204 0.205441 0.0
-0.0253964 0.150542 0.0
-0.0160717 0.112982 0.0
-0.0097105 0.0876042 0.0
-0.00593206 0.0705175 0.0
-0.00374444 0.0588171 0.0
-0.00245907 0.050594 0.0
-0.00168004 0.044661 0.0
-0.00119132 0.0402691 0.0
-0.000875452 0.0369329 0.0
-0.00066697 0.0343279 0.0
-0.000527936 0.032231 0.0
-0.000435332 0.030486 0.0
-0.00037456 0.028981 0.0
-0.000335972 0.0276355 0.0
-0.000312958 0.0263913 0.0
-0.000300847 0.0252067 0.0
-0.000296243 0.0240517 0.0
-0.000296619 0.022906 0.0
-0.000300063 0.0217562 0.0
-0.000305106 0.0205945 0.0
-0.000310617 0.0194174 0.0
-0.000315729 0.0182247 0.0
-0.000319787 0.0170189 0.0
-0.000322311 0.0158045 0.0
-0.00032297 0.0145871 0.0
-0.000321552 0.0133734 0.0
-0.00031795 0.0121709 0.0
-0.000312138 0.0109871 0.0
-0.000304154 0.00982961 0.0
-0.000294084 0.0087058 0.0
-0.000282045 0.00762283 0.0
-0.00026817 0.00658746 0.0
-0.000252592 0.00560598 0.0
-0.000235435 0.00468429 0.0
-0.000216795 0.00382788 0.0
-0.000196735 0.00304194 0.0
-0.000175265 0.0023314 0.0
-0.000152332 0.00170111 0.0
-0.000127812 0.00115587 0.0
-0.000101515 0.000700546 0.0
-7.32312e-05 0.000340001 0.0
-4.29036e-05 7.87006e-05 0.0
-1.11367e-05 -8.03312e-05 0.0
1.95002e-05 -0.000137915 0.0
4.17912e-05 -0.000107605 0.0
3.68956e-05 -3.6707e-05 0.0
0.340596 0.122952 0.0
-0.000680259 0.249392 0.0
-0.065291 0.271568 0.0
-0.0633219 0.252077 0.0
-0.0485797 0.221537 0.0
-0.0350073 0.191651 0.0
-0.0249371 0.166227 0.0
-0.0178923 0.145768 0.0
-0.0130305 0.129657 0.0
-0.00966584 0.117039 0.0
-0.00731993 0.107108 0.0
-0.00567406 0.0992007 0.0
-0.00451675 0.0927906 0.0
-0.00370571 0.0874732 0.0
-0.00314328 0.0829399 0.0
-0.00276094 0.0789569 0.0
-0.00250958 0.0753481 0.0
-0.00235328 0.071982 0.0
-0.00226531 0.0687616 0.0
-0.00222542 0.0656169 0.0
-0.00221807 0.0624987 0.0
-0.00223121 0.0593749 0.0
-0.00225542 0.0562263 0.0
-0.00228338 0.0530445 0.0
-0.0023094 0.0498288 0.0
-0.00232914 0.0465854 0.0
-0.00233939 0.0433248 0.0
-0.00233788 0.0400614 0.0
-0.00232312 0.0368118 0.0
-0.00229429 0.0335942 0.0
-0.00225107 0.0304276 0.0
-0.00219358 0.0273311 0.0
-0.00212222 0.0243235 0.0
-0.00203762 0.0214229 0.0
-0.00194055 0.0186466 0.0
-0.00183179 0.0160111 0.0
-0.0017121 0.0135315 0.0
-0.00158217 0.0112223 0.0
-0.00144252 0.00909694 0.0
-0.00129355 0.00716806 0.0
-0.00113547 0.00544773 0.0
-0.000968414 0.00394731 0.0
-0.000792588 0.0026773 0.0
-0.000608739 0.00164672 0.0
-0.000419094 0.000861727 0.0
-0.000229478 0.000322903 0.0
-5.36627e-05 2.02799e-05 0.0
7.93553e-05 -7.76859e-05 0.0
0.000107047 -4.06408e-05 0.0
0.500842 0.0767875 0.0
0.0990147 0.183186 0.0
-0.0394536 0.249159 0.0
-0.07353 0.265614 0.0
-0.071978 0.257292 0.0
-0.0606417 0.239503 0.0
-0.048349 0.219515 0.0
-0.0377416 0.200617 0.0
-0.0293105 0.184015 0.0
-0.0228549 0.169916 0.0
-0.0180091 0.158098 0.0
-0.0144195 0.148196 0.0
-0.0117916 0.13982 0.0
-0.00989368 0.132618 0.0
-0.00854757 0.12629 0.0
-0.00761687 0.120588 0.0
-0.00699725 0.115318 0.0
-0.0066084 0.110328 0.0
-0.00638812 0.105501 0.0
-0.0062878 0.100753 0.0
-0.00626923 0.0960248 0.0
-0.00630223 0.0912765 0.0
-0.00636292 0.086486 0.0
-0.0064325 0.0816444 0.0
-0.00649627 0.0767535 0.0
-0.00654298 0.0718235 0.0
-0.00656424 0.0668711 0.0
-0.00655408 0.0619176 0.0
-0.00650856 0.0569876 0.0
-0.0064254 0.0521077 0.0
-0.0063037 0.0473056 0.0
-0.00614365 0.042609 0.0
-0.00594622 0.0380453 0.0
-0.00571296 0.0336411 0.0
-0.00544577 0.0294217 0.0
-0.00514668 0.0254109 0.0
-0.00481771 0.0216312 0.0
-0.00446073 0.0181037 0.0
-0.00407738 0.014848 0.0
-0.00366907 0.0118825 0.0
-0.00323707 0.00922407 0.0
-0.00278277 0.00688835 0.0
-0.00230826 0.00488886 0.0
-0.00181753 0.00323618 0.0
-0.00131856 0.00193605 0.0
-0.000827419 0.000986426 0.0
-0.000375434 0.000371632 0.0
-1.92152e-05 5.49048e-05 0.0
0.000134936 -1.75353e-05 0.0
0.609965 0.0480305 0.0
0.19553 0.133933 0.0
0.011209 0.209376 0.0
-0.0581973 0.246376 0.0
-0.0761804 0.256916 0.0
-0.0737617 0.253504 0.0
-0.0644087 0.243322 0.0
-0.0537464 0.230617 0.0
-0.0439575 0.217643 0.0
-0.0357346 0.205447 0.0
-0.0291489 0.194414 0.0
-0.0240355 0.184584 0.0
-0.0201611 0.175834 0.0
-0.0172925 0.167975 0.0
-0.0152228 0.160808 0.0
-0.0137773 0.154147 0.0
-0.0128124 0.147832 0.0
-0.0122114 0.141732 0.0
-0.0118799 0.135743 0.0
-0.0117417 0.129789 0.0
-0.0117352 0.123816 0.0
-0.011811 0.117789 0.0
-0.0119292 0.11169 0.0
-0.0120583 0.105516 0.0
-0.0121732 0.0992748 0.0
-0.0122549 0.0929818 0.0
-0.0122888 0.0866604 0.0
-0.0122648 0.0803386 0.0
-0.0121761 0.0740477 0.0
-0.0120189 0.0678213 0.0
-0.0117915 0.0616937 0.0
-0.0114944 0.0556994 0.0
-0.0111293 0.0498722 0.0
-0.0106989 0.0442446 0.0
-0.0102066 0.0388479 0.0
-0.00965604 0.0337114 0.0
-0.00905084 0.0288627 0.0
-0.00839454 0.0243276 0.0
-0.00769038 0.02013 0.0
-0.00694139 0.0162921 0.0
-0.00615062 0.0128341 0.0
-0.00532165 0.00977397 0.0
-0.00445964 0.00712698 0.0
-0.00357312 0.00490442 0.0
-0.00267714 0.00311199 0.0
-0.00179862 0.00174736 0.0
-0.000985002 0.00079447 0.0
-0.000314942 0.000221511 0.0
7.62285e-05 1.25977e-05 0.0
0.680334 0.0301456 0.0
0.278269 0.0981623 0.0
0.0694136 0.170958 0.0
-0.0276474 0.217472 0.0
-0.0653363 0.240964 0.0
-0.0746504 0.249508 0.0
-0.0714585 0.249025 0.0
-0.0635298 0.243615 0.0
-0.0545357 0.235848 0.0
-0.0461102 0.227211 0.0
-0.0388839 0.218496 0.0
-0.0330052 0.210075 0.0
-0.0284041 0.202077 0.0
-0.0249224 0.194498 0.0
-0.0223785 0.187268 0.0
-0.020596 0.180293 0.0
-0.0194162 0.173478 0.0
-0.0187016 0.166737 0.0
-0.0183358 0.159998 0.0
-0.0182209 0.153209 0.0
-0.0182762 0.146331 0.0
-0.0184348 0.139347 0.0
-0.0186424 0.132248 0.0
-0.0188552 0.125042 0.0
-0.0190385 0.117744 0.0
-0.0191653 0.110378 0.0
-0.0192156 0.102975 0.0
-0.019175 0.09557 0.0
-0.019034 0.0881999 0.0
-0.0187876 0.0809044 0.0
-0.0184336 0.0737234 0.0
-0.017973 0.0666964 0.0
-0.0174086 0.059862 0.0
-0.0167445 0.0532573 0.0
-0.0159859 0.0469174 0.0
-0.0151384 0.0408755 0.0
-0.0142076 0.0351625 0.0
-0.013199 0.0298073 0.0
-0.012118 0.0248366 0.0
-0.0109696 0.0202747 0.0
-0.00975924 0.016144 0.0
-0.00849329 0.012464 0.0
-0.00718055 0.00925088 0.0
-0.00583453 0.006517 0.0
-0.00447717 0.00426923 0.0
-0.00314463 0.00250782 0.0
-0.00189622 0.00122101 0.0
-0.000824203 0.000388538 0.0
-7.65125e-05 4.16629e-05 0.0
0.729719 0.019176 0.0
0.348788 0.0730345 0.0
0.127729 0.139299 0.0
0.0111061 0.1883 0.0
-0.044307 0.219707 0.0
-0.0658817 0.236905 0.0
-0.0703971 0.24443 0.0
-0.0669585 0.245748 0.0
-0.0603697 0.243313 0.0
-0.0530821 0.238731 0.0
-0.046274 0.232994 0.0
-0.0404422 0.226684 0.0
-0.0357273 0.220115 0.0
-0.0320923 0.213434 0.0
-0.0294189 0.206696 0.0
-0.0275594 0.1999 0.0
-0.0263625 0.193021 0.0
-0.0256864 0.186027 0.0
-0.0254041 0.17889 0.0
-0.0254048 0.171587 0.0
-0.0255937 0.164106 0.0
-0.0258913 0.156448 0.0
-0.0262313 0.148622 0.0
-0.02656 0.140647 0.0
-0.0268343 0.132551 0.0
-0.0270208 0.124366 0.0
-0.0270945 0.116132 0.0
-0.0270378 0.107891 0.0
-0.0268393 0.0996847 0.0
-0.026493 0.0915596 0.0
-0.0259971 0.0835598 0.0
-0.0253534 0.075729 0.0
-0.0245661 0.0681092 0.0
-0.0236413 0.0607406 0.0
-0.0225862 0.0536609 0.0
-0.0214088 0.0469058 0.0
-0.020117 0.0405081 0.0
-0.0187185 0.0344985 0.0
-0.0172211 0.0289049 0.0
-0.0156323 0.0237533 0.0
-0.0139599 0.0190668 0.0
-0.0122135 0.0148659 0.0
-0.0104054 0.011168 0.0
-0.00855373 0.00798692 0.0
-0.00668593 0.00533221 0.0
-0.0048447 0.00320909 0.0
-0.00309604 0.00161336 0.0
-0.00153743 0.000539612 0.0
-0.000315995 6.66456e-05 0.0
0.765724 0.0125789 0.0
0.408217 0.0557028 0.0
0.182731 0.114566 0.0
0.0526608 0.162702 0.0
-0.0170526 0.197944 0.0
-0.0500879 0.220918 0.0
-0.0627323 0.234458 0.0
-0.0647121 0.241327 0.0
-0.0615886 0.243656 0.0
-0.0564478 0.24297 0.0
-0.0509394 0.240311 0.0
-0.0458887 0.236357 0.0
-0.041655 0.231534 0.0
-0.0383408 0.2261 0.0
-0.0359125 0.220202 0.0
-0.0342705 0.213919 0.0
-0.0332879 0.207294 0.0
-0.0328321 0.200346 0.0
-0.0327762 0.193089 0.0
-0.0330046 0.185536 0.0
-0.033415 0.177703 0.0
-0.0339196 0.169611 0.0
-0.0344441 0.161289 0.0
-0.0349273 0.152771 0.0
-0.0353203 0.144096 0.0
-0.0355849 0.135309 0.0
-0.0356926 0.126457 0.0
-0.0356237 0.117589 0.0
-0.035366 0.108754 0.0
-0.0349135 0.100003 0.0
-0.0342652 0.0913846 0.0
-0.0334246 0.0829451 0.0
-0.0323979 0.0747295 0.0
-0.0311935 0.06678 0.0
-0.0298213 0.0591362 0.0
-0.0282918 0.0518345 0.0
-0.0266154 0.044909 0.0
-0.0248026 0.0383908 0.0
-0.0228635 0.0323086 0.0
-0.020808 0.0266884 0.0
-0.0186468 0.021554 0.0
-0.0163921 0.0169265 0.0
-0.0140594 0.0128247 0.0
-0.0116701 0.00926442 0.0
-0.00925533 0.00625902 0.0
-0.00686107 0.00382025 0.0
-0.00455492 0.00195321 0.0
-0.00243239 0.000668136 0.0
-0.000630238 8.68691e-05 0.0
0.792766 0.00859753 0.0
0.458289 0.0436377 0.0
0.233245 0.0954516 0.0
0.0943767 0.141203 0.0
0.0138865 0.177538 0.0
-0.0294695 0.204155 0.0
-0.0500535 0.221986 0.0
-0.0578086 0.23317 0.0
-0.0587579 0.239458 0.0
-0.0564461 0.242208 0.0
-0.052899 0.242413 0.0
-0.0492257 0.240775 0.0
-0.0459878 0.237772 0.0
-0.0434268 0.233726 0.0
-0.0416008 0.22885 0.0
-0.0404681 0.223283 0.0
-0.0399361 0.217121 0.0
-0.039891 0.21043 0.0
-0.0402141 0.203262 0.0
-0.0407916 0.195662 0.0
-0.0415196 0.187674 0.0
-0.0423061 0.179342 0.0
-0.0430727 0.170712 0.0
-0.0437539 0.161836 0.0
-0.044297 0.152766 0.0
-0.044661 0.143556 0.0
-0.044816 0.134264 0.0
-0.0447416 0.124945 0.0
-0.0444258 0.115655 0.0
-0.0438637 0.10645 0.0
-0.0430564 0.0973805 0.0
-0.0420094 0.0884975 0.0
-0.040732 0.0798473 0.0
-0.0392354 0.0714734 0.0
-0.0375324 0.0634161 0.0
-0.0356366 0.0557123 0.0
-0.0335612 0.0483959 0.0
-0.0313194 0.0414979 0.0
-0.0289239 0.0350466 0.0
-0.0263871 0.0290679 0.0
-0.0237219 0.0235857 0.0
-0.0209428 0.0186215 0.0
-0.0180674 0.0141953 0.0
-0.0151192 0.0103256 0.0
-0.0121306 0.00703015 0.0
-0.00914764 0.0043279 0.0
-0.00623511 0.00223368 0.0
-0.00348107 0.000772498 0.0
-0.00100588 0.000102574 0.0
0.813788 0.00615248 0.0
0.500808 0.035092 0.0
0.279117 0.0806784 0.0
0.134797 0.123473 0.0
0.0460044 0.159564 0.0
-0.00580767 0.187932 0.0
-0.0337593 0.208688 0.0
-0.0472763 0.22307 0.0
-0.0525778 0.232494 0.0
-0.0535102 0.238112 0.0
-0.0523833 0.240825 0.0
-0.050537 0.241305 0.0
-0.0487085 0.240042 0.0
-0.0472663 0.237388 0.0
-0.0463578 0.233593 0.0
-0.0460009 0.228839 0.0
-0.0461423 0.223261 0.0
-0.0466918 0.216961 0.0
-0.0475445 0.210025 0.0
-0.0485931 0.202526 0.0
-0.0497362 0.194532 0.0
-0.050882 0.186108 0.0
-0.0519505 0.177321 0.0
-0.0528749 0.168234 0.0
-0.0536012 0.158915 0.0
-0.0540879 0.149429 0.0
-0.054305 0.139842 0.0
-0.0542331 0.130217 0.0
-0.0538619 0.120617 0.0
-0.053189 0.111099 0.0
-0.0522182 0.101721 0.0
-0.0509586 0.0925334 0.0
-0.0494226 0.0835853 0.0
-0.0476253 0.0749207 0.0
-0.045583 0.0665797 0.0
-0.0433125 0.058599 0.0
-0.0408302 0.0510117 0.0
-0.0381522 0.043848 0.0
-0.0352936 0.0371352 0.0
-0.0322691 0.0308986 0.0
-0.0290934 0.0251614 0.0
-0.0257824 0.0199457 0.0
-0.022355 0.0152727 0.0
-0.0188349 0.0111635 0.0
-0.0152537 0.00764029 0.0
-0.0116543 0.00472919 0.0
-0.00809547 0.00245424 0.0
-0.00465379 0.000853489 0.0
-0.00142983 0.000114305 0.0
0.830667 0.0046107 0.0
0.537292 0.0289045 0.0
0.320647 0.0691484 0.0
0.173322 0.10885 0.0
0.0783118 0.143936 0.0
0.0196467 0.172846 0.0
-0.0149751 0.195441 0.0
-0.0340261 0.212117 0.0
-0.0437373 0.223937 0.0
-0.0481296 0.231863 0.0
-0.0497158 0.236681 0.0
-0.0500153 0.23901 0.0
-0.0499103 0.239323 0.0
-0.0498798 0.237977 0.0
-0.0501518 0.23524 0.0
-0.0508018 0.231321 0.0
-0.0518151 0.226379 0.0
-0.0531275 0.220545 0.0
-0.0546503 0.213929 0.0
-0.0562859 0.206629 0.0
-0.0579383 0.198734 0.0
-0.0595184 0.190328 0.0
-0.0609478 0.181494 0.0
-0.0621603 0.172312 0.0
-0.0631028 0.16286 0.0
-0.0637351 0.153214 0.0
-0.0640292 0.143449 0.0
-0.0639681 0.133636 0.0
-0.0635448 0.123843 0.0
-0.0627604 0.114132 0.0
-0.0616229 0.104562 0.0
-0.0601456 0.0951877 0.0
-0.0583454 0.086058 0.0
-0.0562416 0.0772172 0.0
-0.0538546 0.068705 0.0
-0.051205 0.0605569 0.0
-0.0483126 0.0528049 0.0
-0.0451962 0.0454774 0.0
-0.0418736 0.0386006 0.0
-0.0383611 0.0321982 0.0
-0.0346748 0.0262929 0.0
-0.0308314 0.0209067 0.0
-0.0268494 0.0160617 0.0
-0.0227513 0.0117815 0.0
-0.0185657 0.00809249 0.0
-0.0143303 0.00502712 0.0
-0.0100946 0.00261766 0.0
-0.00592146 0.000912946 0.0
-0.00189006 0.000122657 0.0
0.844594 0.00360545 0.0
0.568935 0.0243183 0.0
0.358255 0.0600418 0.0
0.209665 0.0967567 0.0
0.110042 0.130446 0.0
0.0457037 0.159241 0.0
0.00547961 0.182675 0.0
-0.0187951 0.200946 0.0
-0.032844 0.214547 0.0
-0.0407765 0.224275 0.0
-0.0452437 0.230807 0.0
-0.0479011 0.234694 0.0
-0.0497468 0.236379 0.0
-0.0513524 0.236209 0.0
-0.0530161 0.234456 0.0
-0.0548645 0.231338 0.0
-0.0569197 0.227034 0.0
-0.0591426 0.221692 0.0
-0.0614614 0.215442 0.0
-0.0637896 0.208398 0.0
-0.0660382 0.20067 0.0
-0.0681227 0.192358 0.0
-0.0699679 0.183558 0.0
-0.0715105 0.174364 0.0
-0.0727 0.164867 0.0
-0.0734993 0.155153 0.0
-0.0738838 0.145304 0.0
-0.0738407 0.135398 0.0
-0.0733675 0.125508 0.0
-0.0724705 0.115702 0.0
-0.0711628 0.10604 0.0
-0.0694632 0.0965784 0.0
-0.0673938 0.0873669 0.0
-0.064979 0.0784493 0.0
-0.0622438 0.0698642 0.0
-0.059213 0.0616457 0.0
-0.0559101 0.0538237 0.0
-0.0523568 0.0464248 0.0
-0.0485731 0.0394729 0.0
-0.0445769 0.0329903 0.0
-0.040385 0.0269982 0.0
-0.0360136 0.0215183 0.0
-0.03148 0.0165733 0.0
-0.0268038 0.0121886 0.0
-0.0220089 0.0083941 0.0
-0.0171256 0.00522757 0.0
-0.0121924 0.00272806 0.0
-0.00725672 0.000953007 0.0
-0.0023758 0.000128175 0.0
0.856353 0.00292361 0.0
0.59667 0.0208335 0.0
0.3924 0.0527428 0.0
0.243789 0.0866715 0.0
0.140827 0.118779 0.0
0.0718419 0.147044 0.0
0.026749 0.170747 0.0
-0.00218892 0.189923 0.0
-0.0204145 0.204807 0.0
-0.0318763 0.2159 0.0
-0.0393027 0.223785 0.0
-0.0444473 0.228947 0.0
-0.0483996 0.23179 0.0
-0.0518063 0.232639 0.0
-0.0550245 0.231763 0.0
-0.0582252 0.229382 0.0
-0.0614628 0.225681 0.0
-0.0647214 0.220822 0.0
-0.0679451 0.214947 0.0
-0.0710585 0.208187 0.0
-0.0739803 0.200663 0.0
-0.0766317 0.19249 0.0
-0.0789421 0.183779 0.0
-0.080852 0.174635 0.0
-0.0823154 0.165158 0.0
-0.0832996 0.155445 0.0
-0.0837851 0.145585 0.0
-0.0837647 0.135663 0.0
-0.0832419 0.125757 0.0
-0.0822293 0.115937 0.0
-0.0807467 0.106268 0.0
-0.0788192 0.0968049 0.0
-0.0764752 0.0875984 0.0
-0.0737449 0.0786913 0.0
-0.0706587 0.0701209 0.0
-0.0672458 0.061919 0.0
-0.0635338 0.0541132 0.0
-0.0595473 0.0467273 0.0
-0.0553083 0.0397829 0.0
-0.0508359 0.0332998 0.0
-0.0461468 0.0272979 0.0
-0.0412563 0.0217974 0.0
-0.036179 0.0168213 0.0
-0.0309302 0.012396 0.0
-0.0255277 0.00855408 0.0
-0.0199927 0.00533726 0.0
-0.0143512 0.00278984 0.0
-0.00863435 0.000975707 0.0
-0.0028775 0.000131305 0.0
0.866468 0.00244087 0.0
0.621217 0.018119 0.0
0.423506 0.0467989 0.0
0.275754 0.0781735 0.0
0.170447 0.108637 0.0
0.0976635 0.136111 0.0
0.048342 0.15971 0.0
0.0152739 0.17928 0.0
-0.00689022 0.195006 0.0
-0.021804 0.207099 0.0
-0.0322019 0.216018 0.0
-0.0399003 0.222192 0.0
-0.046058 0.22598 0.0
-0.0513813 0.227686 0.0
-0.0562754 0.227564 0.0
-0.060948 0.225832 0.0
-0.0654809 0.222676 0.0
-0.0698781 0.218265 0.0
-0.0740977 0.212751 0.0
-0.0780749 0.206274 0.0
-0.0817357 0.198968 0.0
-0.0850073 0.19096 0.0
-0.0878243 0.182371 0.0
-0.0901326 0.173317 0.0
-0.0918912 0.163908 0.0
-0.0930735 0.154248 0.0
-0.0936664 0.144436 0.0
-0.0936696 0.13456 0.0
-0.0930942 0.124704 0.0
-0.0919605 0.114941 0.0
-0.090296 0.105337 0.0
-0.0881332 0.0959475 0.0
-0.0855079 0.0868232 0.0
-0.0824569 0.0780052 0.0
-0.0790165 0.0695288 0.0
-0.0752211 0.0614231 0.0
-0.0711021 0.0537128 0.0
-0.0666873 0.0464185 0.0
-0.0620007 0.0395588 0.0
-0.057062 0.0331508 0.0
-0.0518874 0.0272118 0.0
-0.0464901 0.0217607 0.0
-0.0408813 0.0168195 0.0
-0.0350708 0.0124151 0.0
-0.0290688 0.00858127 0.0
-0.0228862 0.00536257 0.0
-0.0165357 0.00280696 0.0
-0.0100312 0.000982774 0.0
-0.00338668 0.000132389 0.0
0.875302 0.00208398 0.0
0.643129 0.0159526 0.0
0.451945 0.0418785 0.0
0.305671 0.0709286 0.0
0.198793 0.0997532 0.0
0.122913 0.126281 0.0
0.0699136 0.149518 0.0
0.0331071 0.169168 0.0
0.00740796 0.185288 0.0
-0.0108666 0.198087 0.0
-0.0242118 0.207769 0.0
-0.0344877 0.214717 0.0
-0.0429071 0.219253 0.0
-0.0502236 0.221653 0.0
-0.0568803 0.222156 0.0
-0.0631146 0.220972 0.0
-0.0690305 0.218288 0.0
-0.074648 0.214273 0.0
-0.0799373 0.209085 0.0
-0.0848421 0.202874 0.0
-0.0892955 0.195782 0.0
-0.0932303 0.187945 0.0
-0.0965867 0.179494 0.0
-0.0993165 0.170555 0.0
-0.101385 0.161248 0.0
-0.102773 0.151682 0.0
-0.103474 0.141964 0.0
-0.103497 0.132187 0.0
-0.102862 0.122437 0.0
-0.101598 0.112792 0.0
-0.0997411 0.103317 0.0
-0.0973333 0.0940693 0.0
-0.0944181 0.0850973 0.0
-0.0910398 0.0764406 0.0
-0.0872412 0.0681315 0.0
-0.0830622 0.0601963 0.0
-0.0785387 0.0526558 0.0
-0.0737014 0.0455273 0.0
-0.0685761 0.0388256 0.0
-0.0631829 0.0325644 0.0
-0.0575369 0.0267582 0.0
-0.0516485 0.0214235 0.0
-0.0455245 0.0165806 0.0
-0.0391683 0.0122559 0.0
-0.0325813 0.00848343 0.0
-0.0257633 0.005309 0.0
-0.0187126 0.0027827 0.0
-0.0114258 0.000975547 0.0
-0.00389571 0.000131669 0.0
0.883107 0.00180888 0.0
0.662832 0.0141824 0.0
0.478035 0.0377362 0.0
0.333665 0.0646719 0.0
0.225823 0.091898 0.0
0.147427 0.117388 0.0
0.0912276 0.140083 0.0
0.0510404 0.159583 0.0
0.022041 0.175842 0.0
0.000663057 0.188996 0.0
-0.0155708 0.19921 0.0
-0.0284174 0.206716 0.0
-0.0391233 0.211813 0.0
-0.0484789 0.21475 0.0
-0.0569568 0.215748 0.0
-0.0648173 0.215007 0.0
-0.0721815 0.212709 0.0
-0.0790818 0.209026 0.0
-0.0854976 0.204118 0.0
-0.0913795 0.198141 0.0
-0.0966661 0.191244 0.0
-0.101296 0.183572 0.0
-0.105215 0.175265 0.0
-0.10838 0.166456 0.0
-0.110766 0.157273 0.0
-0.112358 0.147833 0.0
-0.113163 0.138246 0.0
-0.113197 0.128613 0.0
-0.11249 0.11902 0.0
-0.111082 0.109548 0.0
-0.109019 0.100261 0.0
-0.106353 0.0912181 0.0
-0.103137 0.082464 0.0
-0.0994231 0.0740362 0.0
-0.0952611 0.065964 0.0
-0.0906971 0.0582696 0.0
-0.0857712 0.0509699 0.0
-0.0805177 0.0440779 0.0
-0.0749637 0.0376043 0.0
-0.0691294 0.0315589 0.0
-0.0630283 0.0259525 0.0
-0.0566676 0.0207986 0.0
-0.0500487 0.0161152 0.0
-0.0431678 0.0119268 0.0
-0.0360167 0.00826687 0.0
-0.0285833 0.00518081 0.0
-0.0208508 0.0027195 0.0
-0.0127983 0.000954967 0.0
-0.00439755 0.00012929 0.0
0.890065 0.00158837 0.0
0.680653 0.0127025 0.0
0.502038 0.0341881 0.0
0.359862 0.0591926 0.0
0.251528 0.0848732 0.0
0.171096 0.10927 0.0
0.112109 0.131291 0.0
0.0688648 0.150461 0.0
0.0368088 0.166652 0.0
0.0125101 0.179925 0.0
-0.00650265 0.190437 0.0
-0.021884 0.198309 0.0
-0.0348745 0.203792 0.0
-0.04629 0.207115 0.0
-0.0566244 0.208477 0.0
-0.0661542 0.20807 0.0
-0.0750125 0.206069 0.0
-0.0832404 0.202645 0.0
-0.0908236 0.197961 0.0
-0.0977175 0.192176 0.0
-0.103865 0.185447 0.0
-0.10921 0.177926 0.0
-0.113704 0.169759 0.0
-0.11731 0.161088 0.0
-0.120009 0.152046 0.0
-0.1218 0.142757 0.0
-0.122695 0.133336 0.0
-0.122724 0.123886 0.0
-0.121928 0.114497 0.0
-0.120357 0.105249 0.0
-0.118071 0.0962084 0.0
-0.115131 0.0874293 0.0
-0.1116 0.078956 0.0
-0.10754 0.0708224 0.0
-0.103008 0.0630538 0.0
-0.0980565 0.0556681 0.0
-0.0927304 0.0486776 0.0
-0.0870671 0.0420905 0.0
-0.0810952 0.0359127 0.0
-0.0748347 0.0301496 0.0
-0.0682971 0.0248078 0.0
-0.0614857 0.0198971 0.0
-0.054396 0.0154321 0.0
-0.0470164 0.0114348 0.0
-0.0393284 0.00793646 0.0
-0.0313071 0.00498118 0.0
-0.0229206 0.00261906 0.0
-0.0141298 0.000921625 0.0
-0.00488556 0.000125327 0.0
0.896309 0.00140508 0.0
0.696846 0.0114371 0.0
0.524171 0.0310944 0.0
0.384375 0.0543222 0.0
0.275916 0.0785115 0.0
0.193843 0.101782 0.0
0.13242 0.12303 0.0
0.0864035 0.141727 0.0
0.0515072 0.157682 0.0
0.0244449 0.170896 0.0
0.00281249 0.181474 0.0
-0.0150585 0.189548 0.0
-0.0303161 0.195257 0.0
-0.0437943 0.198821 0.0
-0.0560019 0.200423 0.0
-0.067226 0.20024 0.0
-0.0776071 0.198444 0.0
-0.0871912 0.195202 0.0
-0.0959673 0.19068 0.0
-0.103894 0.185041 0.0
-0.110918 0.178447 0.0
-0.116985 0.171056 0.0
-0.122054 0.163021 0.0
-0.126095 0.154491 0.0
-0.129098 0.145604 0.0
-0.131069 0.136489 0.0
-0.132035 0.127265 0.0
-0.132037 0.118038 0.0
-0.131127 0.108898 0.0