# vtk DataFile Version 3.0
Malha 2D com triângulos: velocidade e pressão
ASCII
DATASET UNSTRUCTURED_GRID

POINTS 2500 double
0 0 0
1 0 0
1 1 0
0 1 0
0.0204082 0 0
0.0408163 0 0
0.0612245 0 0
0.0816327 0 0
0.102041 0 0
0.122449 0 0
0.142857 0 0
0.163265 0 0
0.183673 0 0
0.204082 0 0
0.22449 0 0
0.244898 0 0
0.265306 0 0
0.285714 0 0
0.306122 0 0
0.326531 0 0
0.346939 0 0
0.367347 0 0
0.387755 0 0
0.408163 0 0
0.428571 0 0
0.44898 0 0
0.469388 0 0
0.489796 0 0
0.510204 0 0
0.530612 0 0
0.55102 0 0
0.571429 0 0
0.591837 0 0
0.612245 0 0
0.632653 0 0
0.653061 0 0
0.673469 0 0
0.693878 0 0
0.714286 0 0
0.734694 0 0
0.755102 0 0
0.77551 0 0
0.795918 0 0
0.816327 0 0
0.836735 0 0
0.857143 0 0
0.877551 0 0
0.897959 0 0
0.918367 0 0
0.938776 0 0
0.959184 0 0
0.979592 0 0
1 0.0204082 0
1 0.0408163 0
1 0.0612245 0
1 0.0816327 0
1 0.102041 0
1 0.122449 0
1 0.142857 0
1 0.163265 0
1 0.183673 0
1 0.204082 0
1 0.22449 0
1 0.244898 0
1 0.265306 0
1 0.285714 0
1 0.306122 0
1 0.326531 0
1 0.346939 0
1 0.367347 0
1 0.387755 0
1 0.408163 0
1 0.428571 0
1 0.44898 0
1 0.469388 0
1 0.489796 0
1 0.510204 0
1 0.530612 0
1 0.55102 0
1 0.571429 0
1 0.591837 0
1 0.612245 0
1 0.632653 0
1 0.653061 0
1 0.673469 0
1 0.693878 0
1 0.714286 0
1 0.734694 0
1 0.755102 0
1 0.77551 0
1 0.795918 0
1 0.816327 0
1 0.836735 0
1 0.857143 0
1 0.877551 0
1 0.897959 0
1 0.918367 0
1 0.938776 0
1 0.959184 0
1 0.979592 0
0.979592 1 0
0.959184 1 0
0.938776 1 0
0.918367 1 0
0.897959 1 0
0.877551 1 0
0.857143 1 0
0.836735 1 0
0.816327 1 0
0.795918 1 0
0.77551 1 0
0.755102 1 0
0.734694 1 0
0.714286 1 0
0.693878 1 0
0.673469 1 0
0.653061 1 0
0.632653 1 0
0.612245 1 0
0.591837 1 0
0.571429 1 0
0.55102 1 0
0.530612 1 0
0.510204 1 0
0.489796 1 0
0.469388 1 0
0.44898 1 0
0.428571 1 0
0.408163 1 0
0.387755 1 0
0.367347 1 0
0.346939 1 0
0.326531 1 0
0.306122 1 0
0.285714 1 0
0.265306 1 0
0.244898 1 0
0.22449 1 0
0.204082 1 0
0.183673 1 0
0.163265 1 0
0.142857 1 0
0.122449 1 0
0.102041 1 0
0.0816327 1 0
0.0612245 1 0
0.0408163 1 0
0.0204082 1 0
0 0.979592 0
0 0.959184 0
0 0.938776 0
0 0.918367 0
0 0.897959 0
0 0.877551 0
0 0.857143 0
0 0.836735 0
0 0.816327 0
0 0.795918 0
0 0.77551 0
0 0.755102 0
0 0.734694 0
0 0.714286 0
0 0.693878 0
0 0.673469 0
0 0.653061 0
0 0.632653 0
0 0.612245 0
0 0.591837 0
0 0.571429 0
0 0.55102 0
0 0.530612 0
0 0.510204 0
0 0.489796 0
0 0.469388 0
0 0.44898 0
0 0.428571 0
0 0.408163 0
0 0.387755 0
0 0.367347 0
0 0.346939 0
0 0.326531 0
0 0.306122 0
0 0.285714 0
0 0.265306 0
0 0.244898 0
0 0.22449 0
0 0.204082 0
0 0.183673 0
0 0.163265 0
0 0.142857 0
0 0.122449 0
0 0.102041 0
0 0.0816327 0
0 0.0612245 0
0 0.0408163 0
0 0.0204082 0
0.0204082 0.979592 0
0.0204082 0.959184 0
0.0204082 0.938776 0
0.0204082 0.918367 0
0.0204082 0.897959 0
0.0204082 0.877551 0
0.0204082 0.857143 0
0.0204082 0.836735 0
0.0204082 0.816327 0
0.0204082 0.795918 0
0.0204082 0.77551 0
0.0204082 0.755102 0
0.0204082 0.734694 0
0.0204082 0.714286 0
0.0204082 0.693878 0
0.0204082 0.673469 0
0.0204082 0.653061 0
0.0204082 0.632653 0
0.0204082 0.612245 0
0.0204082 0.591837 0
0.0204082 0.571429 0
0.0204082 0.55102 0
0.0204082 0.530612 0
0.0204082 0.510204 0
0.0204082 0.489796 0
0.0204082 0.469388 0
0.0204082 0.44898 0
0.0204082 0.428571 0
0.0204082 0.408163 0
0.0204082 0.387755 0
0.0204082 0.367347 0
0.0204082 0.346939 0
0.0204082 0.326531 0
0.0204082 0.306122 0
0.0204082 0.285714 0
0.0204082 0.265306 0
0.0204082 0.244898 0
0.0204082 0.22449 0
0.0204082 0.204082 0
0.0204082 0.183673 0
0.0204082 0.163265 0
0.0204082 0.142857 0
0.0204082 0.122449 0
0.0204082 0.102041 0
0.0204082 0.0816327 0
0.0204082 0.0612245 0
0.0204082 0.0408163 0
0.0204082 0.0204082 0
0.0408163 0.979592 0
0.0408163 0.959184 0
0.0408163 0.938776 0
0.0408163 0.918367 0
0.0408163 0.897959 0
0.0408163 0.877551 0
0.0408163 0.857143 0
0.0408163 0.836735 0
0.0408163 0.816327 0
0.0408163 0.795918 0
0.0408163 0.77551 0
0.0408163 0.755102 0
0.0408163 0.734694 0
0.0408163 0.714286 0
0.0408163 0.693878 0
0.0408163 0.673469 0
0.0408163 0.653061 0
0.0408163 0.632653 0
0.0408163 0.612245 0
0.0408163 0.591837 0
0.0408163 0.571429 0
0.0408163 0.55102 0
0.0408163 0.530612 0
0.0408163 0.510204 0
0.0408163 0.489796 0
0.0408163 0.469388 0
0.0408163 0.44898 0
0.0408163 0.428571 0
0.0408163 0.408163 0
0.0408163 0.387755 0
0.0408163 0.367347 0
0.0408163 0.346939 0
0.0408163 0.326531 0
0.0408163 0.306122 0
0.0408163 0.285714 0
0.0408163 0.265306 0
0.0408163 0.244898 0
0.0408163 0.22449 0
0.0408163 0.204082 0
0.0408163 0.183673 0
0.0408163 0.163265 0
0.0408163 0.142857 0
0.0408163 0.122449 0
0.0408163 0.102041 0
0.0408163 0.0816327 0
0.0408163 0.0612245 0
0.0408163 0.0408163 0
0.0408163 0.0204082 0
0.0612245 0.979592 0
0.0612245 0.959184 0
0.0612245 0.938776 0
0.0612245 0.918367 0
0.0612245 0.897959 0
0.0612245 0.877551 0
0.0612245 0.857143 0
0.0612245 0.836735 0
0.0612245 0.816327 0
0.0612245 0.795918 0
0.0612245 0.77551 0
0.0612245 0.755102 0
0.0612245 0.734694 0
0.0612245 0.714286 0
0.0612245 0.693878 0
0.0612245 0.673469 0
0.0612245 0.653061 0
0.0612245 0.632653 0
0.0612245 0.612245 0
0.0612245 0.591837 0
0.0612245 0.571429 0
0.0612245 0.55102 0
0.0612245 0.530612 0
0.0612245 0.510204 0
0.0612245 0.489796 0
0.0612245 0.469388 0
0.0612245 0.44898 0
0.0612245 0.428571 0
0.0612245 0.408163 0
0.0612245 0.387755 0
0.0612245 0.367347 0
0.0612245 0.346939 0
0.0612245 0.326531 0
0.0612245 0.306122 0
0.0612245 0.285714 0
0.0612245 0.265306 0
0.0612245 0.244898 0
0.0612245 0.22449 0
0.0612245 0.204082 0
0.0612245 0.183673 0
0.0612245 0.163265 0
0.0612245 0.142857 0
0.0612245 0.122449 0
0.0612245 0.102041 0
0.0612245 0.0816327 0
0.0612245 0.0612245 0
0.0612245 0.0408163 0
0.0612245 0.0204082 0
0.0816327 0.979592 0
0.0816327 0.959184 0
0.0816327 0.938776 0
0.0816327 0.918367 0
0.0816327 0.897959 0
0.0816327 0.877551 0
0.0816327 0.857143 0
0.0816327 0.836735 0
0.0816327 0.816327 0
0.0816327 0.795918 0
0.0816327 0.77551 0
0.0816327 0.755102 0
0.0816327 0.734694 0
0.0816327 0.714286 0
0.0816327 0.693878 0
0.0816327 0.673469 0
0.0816327 0.653061 0
0.0816327 0.632653 0
0.0816327 0.612245 0
0.0816327 0.591837 0
0.0816327 0.571429 0
0.0816327 0.55102 0
0.0816327 0.530612 0
0.0816327 0.510204 0
0.0816327 0.489796 0
0.0816327 0.469388 0
0.0816327 0.44898 0
0.0816327 0.428571 0
0.0816327 0.408163 0
0.0816327 0.387755 0
0.0816327 0.367347 0
0.0816327 0.346939 0
0.0816327 0.326531 0
0.0816327 0.306122 0
0.0816327 0.285714 0
0.0816327 0.265306 0
0.0816327 0.244898 0
0.0816327 0.22449 0
0.0816327 0.204082 0
0.0816327 0.183673 0
0.0816327 0.163265 0
0.0816327 0.142857 0
0.0816327 0.122449 0
0.0816327 0.102041 0
0.0816327 0.0816327 0
0.0816327 0.0612245 0
0.0816327 0.0408163 0
0.0816327 0.0204082 0
0.102041 0.979592 0
0.102041 0.959184 0
0.102041 0.938776 0
0.102041 0.918367 0
0.102041 0.897959 0
0.102041 0.877551 0
0.102041 0.857143 0
0.102041 0.836735 0
0.102041 0.816327 0
0.102041 0.795918 0
0.102041 0.77551 0
0.102041 0.755102 0
0.102041 0.734694 0
0.102041 0.714286 0
0.102041 0.693878 0
0.102041 0.673469 0
0.102041 0.653061 0
0.102041 0.632653 0
0.102041 0.612245 0
0.102041 0.591837 0
0.102041 0.571429 0
0.102041 0.55102 0
0.102041 0.530612 0
0.102041 0.510204 0
0.102041 0.489796 0
0.102041 0.469388 0
0.102041 0.44898 0
0.102041 0.428571 0
0.102041 0.408163 0
0.102041 0.387755 0
0.102041 0.367347 0
0.102041 0.346939 0
0.102041 0.326531 0
0.102041 0.306122 0
0.102041 0.285714 0
0.102041 0.265306 0
0.102041 0.244898 0
0.102041 0.22449 0
0.102041 0.204082 0
0.102041 0.183673 0
0.102041 0.163265 0
0.102041 0.142857 0
0.102041 0.122449 0
0.102041 0.102041 0
0.102041 0.0816327 0
0.102041 0.0612245 0
0.102041 0.0408163 0
0.102041 0.0204082 0
0.122449 0.979592 0
0.122449 0.959184 0
0.122449 0.938776 0
0.122449 0.918367 0
0.122449 0.897959 0
0.122449 0.877551 0
0.122449 0.857143 0
0.122449 0.836735 0
0.122449 0.816327 0
0.122449 0.795918 0
0.122449 0.77551 0
0.122449 0.755102 0
0.122449 0.734694 0
0.122449 0.714286 0
0.122449 0.693878 0
0.122449 0.673469 0
0.122449 0.653061 0
0.122449 0.632653 0
0.122449 0.612245 0
0.122449 0.591837 0
0.122449 0.571429 0
0.122449 0.55102 0
0.122449 0.530612 0
0.122449 0.510204 0
0.122449 0.489796 0
0.122449 0.469388 0
0.122449 0.44898 0
0.122449 0.428571 0
0.122449 0.408163 0
0.122449 0.387755 0
0.122449 0.367347 0
0.122449 0.346939 0
0.122449 0.326531 0
0.122449 0.306122 0
0.122449 0.285714 0
0.122449 0.265306 0
0.122449 0.244898 0
0.122449 0.22449 0
0.122449 0.204082 0
0.122449 0.183673 0
0.122449 0.163265 0
0.122449 0.142857 0
0.122449 0.122449 0
0.122449 0.102041 0
0.122449 0.0816327 0
0.122449 0.0612245 0
0.122449 0.0408163 0
0.122449 0.0204082 0
0.142857 0.979592 0
0.142857 0.959184 0
0.142857 0.938776 0
0.142857 0.918367 0
0.142857 0.897959 0
0.142857 0.877551 0
0.142857 0.857143 0
0.142857 0.836735 0
0.142857 0.816327 0
0.142857 0.795918 0
0.142857 0.77551 0
0.142857 0.755102 0
0.142857 0.734694 0
0.142857 0.714286 0
0.142857 0.693878 0
0.142857 0.673469 0
0.142857 0.653061 0
0.142857 0.632653 0
0.142857 0.612245 0
0.142857 0.591837 0
0.142857 0.571429 0
0.142857 0.55102 0
0.142857 0.530612 0
0.142857 0.510204 0
0.142857 0.489796 0
0.142857 0.469388 0
0.142857 0.44898 0
0.142857 0.428571 0
0.142857 0.408163 0
0.142857 0.387755 0
0.142857 0.367347 0
0.142857 0.346939 0
0.142857 0.326531 0
0.142857 0.306122 0
0.142857 0.285714 0
0.142857 0.265306 0
0.142857 0.244898 0
0.142857 0.22449 0
0.142857 0.204082 0
0.142857 0.183673 0
0.142857 0.163265 0
0.142857 0.142857 0
0.142857 0.122449 0
0.142857 0.102041 0
0.142857 0.0816327 0
0.142857 0.0612245 0
0.142857 0.0408163 0
0.142857 0.0204082 0
0.163265 0.979592 0
0.163265 0.959184 0
0.163265 0.938776 0
0.163265 0.918367 0
0.163265 0.897959 0
0.163265 0.877551 0
0.163265 0.857143 0
0.163265 0.836735 0
0.163265 0.816327 0
0.163265 0.795918 0
0.163265 0.77551 0
0.163265 0.755102 0
0.163265 0.734694 0
0.163265 0.714286 0
0.163265 0.693878 0
0.163265 0.673469 0
0.163265 0.653061 0
0.163265 0.632653 0
0.163265 0.612245 0
0.163265 0.591837 0
0.163265 0.571429 0
0.163265 0.55102 0
[...]
CELL_DATA 2401
VECTORS velocity double
0.257354 0.157463 0
-0.00271666 0.264571 0
-0.0323285 0.205415 0
-0.0254044 0.150498 0
-0.0160771 0.112924 0
-0.00971221 0.0875418 0
-0.00593017 0.0704607 0
-0.00373956 0.0587752 0
-0.00245201 0.0505744 0
-0.00167156 0.044669 0
-0.00118205 0.0403083 0
-0.000865867 0.037005 0
-0.000657434 0.0344332 0
-0.000518706 0.0323692 0
-0.000426598 0.0306555 0
-0.000366463 0.0291799 0
-0.000328624 0.0278614 0
-0.000306451 0.0266414 0
-0.000295257 0.0254777 0
-0.000291633 0.0243403 0
-0.000293041 0.0232085 0
-0.000297551 0.0220688 0
-0.000303678 0.0209134 0
-0.000310274 0.0197387 0
-0.000316451 0.0185447 0
-0.000321533 0.0173338 0
-0.000325021 0.0161108 0
-0.000326562 0.0148815 0
-0.00032593 0.0136532 0
-0.000322999 0.0124333 0
-0.000317733 0.01123 0
-0.00031016 0.0100513 0
-0.00030036 0.00890507 0
-0.000288448 0.00779896 0
-0.000274557 0.0067402 0
-0.000258826 0.00573558 0
-0.000241385 0.00479145 0
-0.000222341 0.00391375 0
-0.000201768 0.00310807 0
-0.000179687 0.0023797 0
-0.000156062 0.00173379 0
-0.000130783 0.00117541 0
-0.000103676 0.000709608 0
-7.45478e-05 0.000341372 0
-4.33686e-05 7.52058e-05 0
-1.07904e-05 -8.59534e-05 0
2.05176e-05 -0.000143193 0
4.31266e-05 -0.000110742 0
3.77728e-05 -3.75767e-05 0
0.340587 0.122946 0
-0.000705759 0.249367 0
-0.0653227 0.271513 0
-0.0633495 0.251996 0
-0.0485945 0.221442 0
-0.035005 0.191558 0
-0.0249173 0.166156 0
-0.0178572 0.145738 0
-0.0129836 0.129684 0
-0.00961068 0.117134 0
-0.00725978 0.10728 0
-0.00561166 0.0994531 0
-0.0044543 0.0931256 0
-0.00364496 0.0878897 0
-0.00308559 0.0834349 0
-0.00270738 0.0795256 0
-0.00246101 0.0759844 0
-0.00231041 0.0726788 0
-0.0022287 0.0695107 0
-0.00219552 0.0664095 0
-0.00219521 0.0633257 0
-0.0022156 0.0602265 0
-0.00224717 0.0570928 0
-0.00228244 0.053916 0
-0.0023156 0.0506957 0
-0.0023422 0.0474382 0
-0.00235888 0.0441547 0
-0.00236326 0.0408601 0
-0.00235375 0.037572 0
-0.00232942 0.0343093 0
-0.00228988 0.0310921 0
-0.00223518 0.0279407 0
-0.00216571 0.0248749 0
-0.00208207 0.0219142 0
-0.00198503 0.0190771 0
-0.00187539 0.0163811 0
-0.00175397 0.0138428 0
-0.0016215 0.0114775 0
-0.0014786 0.00929979 0
-0.00132573 0.00732325 0
-0.00116322 0.00556068 0
-0.000991304 0.0040241 0
-0.000810331 0.00272448 0
-0.000621198 0.00167109 0
-0.000426333 0.000870118 0
-0.000231865 0.000321849 0
-5.2054e-05 1.56052e-05 0
8.32742e-05 -8.15495e-05 0
0.000110159 -4.19311e-05 0
0.500816 0.0767804 0
0.0989604 0.183155 0
-0.0395137 0.249098 0
-0.0735754 0.265534 0
-0.071993 0.257209 0
-0.060618 0.239439 0
-0.0482858 0.219495 0
-0.037643 0.200662 0
-0.0291837 0.184145 0
-0.0227078 0.170145 0
-0.0178493 0.158438 0
-0.0142537 0.148652 0
-0.0116254 0.140394 0
-0.00973177 0.133309 0
-0.00839364 0.127092 0
-0.00747395 0.121496 0
-0.00686777 0.116323 0
-0.00649434 0.111418 0
-0.00629105 0.106666 0
-0.00620895 0.101979 0
-0.00620948 0.0972988 0
-0.00626212 0.0925844 0
-0.00634267 0.0878136 0
-0.00643197 0.0829773 0
-0.00651499 0.0780778 0
-0.00658013 0.0731257 0
-0.00661868 0.0681383 0
-0.00662436 0.0631381 0
-0.00659293 0.0581506 0
-0.0065219 0.0532038 0
-0.00641015 0.0483267 0
-0.00625773 0.0435489 0
-0.0060655 0.0388993 0
-0.00583499 0.0344061 0
-0.00556808 0.0300964 0
-0.00526686 0.0259958 0
-0.00493347 0.0221285 0
-0.00456992 0.0185171 0
-0.00417806 0.0151826 0
-0.00375953 0.0121448 0
-0.00331586 0.00942183 0
-0.00284878 0.00703005 0
-0.00236074 0.00498373 0
-0.00185617 0.00329383 0
-0.00134361 0.00196612 0
-0.000839889 0.000998162 0
-0.000377439 0.000373346 0
-1.44911e-05 5.32641e-05 0
0.000140107 -1.84907e-05 0
0.609922 0.0480239 0
0.195449 0.133906 0
0.0111266 0.20933 0
-0.0582475 0.246322 0
-0.0761779 0.256879 0
-0.0736959 0.253506 0
-0.064279 0.24339 0
-0.0535595 0.230775 0
-0.0437245 0.217909 0
-0.0354679 0.205838 0
-0.0288609 0.19494 0
-0.0237375 0.185252 0
-0.0198627 0.176644 0
-0.0170018 0.168925 0
-0.0149465 0.161893 0
-0.013521 0.155358 0
-0.0125806 0.149159 0
-0.0120076 0.143161 0
-0.011707 0.13726 0
-0.0116019 0.131379 0
-0.0116301 0.125461 0
-0.0117416 0.119472 0
-0.0118958 0.113395 0
-0.0120606 0.107225 0
-0.0122103 0.100971 0
-0.0123252 0.0946488 0
-0.0123904 0.0882827 0
-0.012395 0.0819017 0
-0.0123318 0.0755387 0
-0.0121965 0.0692288 0
-0.0119872 0.0630079 0
-0.0117041 0.0569125 0
-0.0113486 0.0509783 0
-0.0109234 0.04524 0
-0.010432 0.0397308 0
-0.00987788 0.0344821 0
-0.00926507 0.0295236 0
-0.00859729 0.0248828 0
-0.00787813 0.0205856 0
-0.00711104 0.0166556 0
-0.00629957 0.0131145 0
-0.00544787 0.00998149 0
-0.00456176 0.00727253 0
-0.00365061 0.00499947 0
-0.00273043 0.00316808 0
-0.00182943 0.00177567 0
-0.000996762 0.000805228 0
-0.00031344 0.000223368 0
8.17749e-05 1.22618e-05 0
0.680278 0.030141 0
0.278173 0.0981456 0
0.0693266 0.170935 0
-0.027684 0.217462 0
-0.0652956 0.24099 0
-0.0745205 0.249596 0
-0.0712401 0.2492 0
-0.0632326 0.2439 0
-0.0541748 0.236263 0
-0.0457029 0.227769 0
-0.0384472 0.219207 0
-0.0325552 0.210945 0
-0.0279544 0.203106 0
-0.0244851 0.195682 0
-0.0219634 0.1886 0
-0.0202113 0.181764 0
-0.0190688 0.175076 0
-0.018397 0.168446 0
-0.0180782 0.161803 0
-0.0180138 0.155091 0
-0.0181218 0.148273 0
-0.0183345 0.141329 0
-0.0185967 0.134251 0
-0.0188635 0.127047 0
-0.0190994 0.119732 0
-0.0192766 0.112331 0
-0.019374 0.104876 0
-0.0193766 0.0974018 0
-0.0192742 0.0899488 0
-0.019061 0.0825577 0
-0.0187346 0.0752701 0
-0.0182953 0.0681278 0
-0.0177457 0.0611715 0
-0.01709 0.0544403 0
-0.0163331 0.0479718 0
-0.0154808 0.0418013 0
-0.014539 0.035962 0
-0.0135137 0.0304848 0
-0.0124105 0.0253984 0
-0.0112353 0.0207291 0
-0.00999414 0.0165005 0
-0.00869429 0.0127336 0
-0.00734556 0.00944555 0
-0.00596267 0.00664933 0
-0.00456897 0.00435201 0
-0.00320242 0.00255359 0
-0.0019246 0.00124151 0
-0.000830706 0.000394193 0
-7.26778e-05 4.19877e-05 0
0.729656 0.0191742 0
0.348688 0.0730311 0
0.127654 0.139307 0
0.0111038 0.188339 0
-0.0442068 0.219804 0
-0.0656667 0.237084 0
-0.07007 0.244715 0
-0.0665323 0.246161 0
-0.0598637 0.243871 0
-0.0525184 0.239446 0
-0.0456744 0.233876 0
-0.0398269 0.227735 0
-0.0351145 0.221333 0
-0.0314975 0.214817 0
-0.0288554 0.208234 0
-0.0270382 0.201583 0
-0.0258927 0.194835 0
-0.0252755 0.187957 0
-0.0250579 0.180918 0
-0.0251277 0.173695 0
-0.0253889 0.166274 0
-0.0257605 0.158656 0
-0.0261752 0.15085 0
-0.0265777 0.142874 0
-0.0269238 0.134757 0
-0.0271789 0.126532 0
-0.027317 0.11824 0
-0.0273193 0.109923 0
-0.0271735 0.101627 0
-0.0268728 0.0933985 0
-0.0264147 0.0852834 0
-0.0258004 0.0773277 0
-0.0250338 0.0695759 0
-0.0241208 0.0620703 0
-0.0230687 0.054851 0
-0.0218855 0.047956 0
-0.0205794 0.0414205 0
-0.0191589 0.0352772 0
-0.017632 0.0295563 0
-0.0160073 0.0242855 0
-0.0142936 0.0194896 0
-0.0125015 0.0151907 0
-0.0106448 0.0114072 0
-0.00874309 0.00815361 0
-0.00682577 0.00543995 0
-0.00493775 0.00327137 0
-0.00314778 0.0016431 0
-0.00155669 0.000548834 0
-0.000315899 6.75646e-05 0
0.765664 0.0125801 0
0.408129 0.0557134 0
0.182686 0.114603 0
0.0527124 0.16279 0
-0.0168735 0.198109 0
-0.0497694 0.221184 0
-0.0622799 0.234847 0
-0.0641423 0.241857 0
-0.0609251 0.244342 0
-0.0557171 0.243823 0
-0.0501679 0.241337 0
-0.045101 0.237557 0
-0.0408731 0.232907 0
-0.0375837 0.22764 0
-0.0351967 0.2219 0
-0.0336097 0.215763 0
-0.0326935 0.20927 0
-0.0323135 0.202438 0
-0.0323407 0.19528 0
-0.0326577 0.187806 0
-0.0331607 0.180031 0
-0.03376 0.171978 0
-0.0343798 0.163673 0
-0.0349574 0.155151 0
-0.035442 0.146453 0
-0.0357942 0.137623 0
-0.0359841 0.128709 0
-0.0359906 0.119762 0
-0.0358002 0.110833 0
-0.0354061 0.101973 0
-0.0348064 0.0932342 0
-0.0340038 0.0846644 0
-0.0330041 0.0763109 0
-0.0318156 0.0682183 0
-0.030448 0.0604282 0
-0.028912 0.0529796 0
-0.0272184 0.0459089 0
-0.0253783 0.0392493 0
-0.0234025 0.0330317 0
-0.0213022 0.027284 0
-0.0190891 0.0220319 0
-0.0167768 0.0172979 0
-0.0143825 0.013102 0
-0.0119296 0.00946089 0
-0.00945155 0.00638859 0
-0.00699681 0.00389703 0
-0.00463616 0.00199106 0
-0.00246872 0.000680444 0
-0.000635672 8.82782e-05 0
0.792715 0.00860136 0
0.458226 0.0436614 0
0.233246 0.0955178 0
0.0944994 0.141335 0
0.0141655 0.17776 0
-0.0290314 0.204495 0
-0.0494626 0.222462 0
-0.0570847 0.233797 0
-0.0579289 0.240249 0
-0.0555426 0.24317 0
-0.0519517 0.243552 0
-0.0482629 0.242089 0
-0.0450354 0.239259 0
-0.042507 0.235379 0
-0.040733 0.230659 0
-0.0396685 0.225237 0
-0.0392183 0.219205 0
-0.0392661 0.212627 0
-0.0396909 0.205555 0
-0.0403768 0.198032 0
-0.0412177 0.190101 0
-0.0421198 0.181805 0
-0.0430025 0.173191 0
-0.0437986 0.164309 0
-0.0444533 0.155213 0
-0.0449241 0.145959 0
-0.0451792 0.136603 0
-0.0451966 0.127204 0
-0.044963 0.117818 0
-0.0444724 0.108502 0
-0.0437246 0.0993106 0
-0.0427246 0.0902953 0
-0.0414809 0.0815048 0
-0.0400044 0.0729851 0
-0.0383081 0.0647785 0
-0.0364054 0.0569244 0
-0.0343103 0.049459 0
-0.0320365 0.0424153 0
-0.0295977 0.0358238 0
-0.0270073 0.0297125 0
-0.0242799 0.0241067 0
-0.0214314 0.0190299 0
-0.0184816 0.0145033 0
-0.0154562 0.0105464 0
-0.0123901 0.00717774 0
-0.00933235 0.0044167 0
-0.00635108 0.00227824 0
-0.00353817 0.000787322 0
-0.00101832 0.000104366 0
0.813755 0.00615849 0
0.500784 0.0351268 0
0.279179 0.0807697 0
0.135004 0.123643 0
0.0463905 0.159837 0
-0.00523333 0.188327 0
-0.0330188 0.20923 0
-0.046391 0.223771 0
-0.0515789 0.233362 0
-0.0524321 0.239153 0
-0.0512601 0.24204 0
-0.0494006 0.242694 0
-0.0475878 0.241601 0
-0.0461867 0.239108 0
-0.045341 0.235466 0
-0.0450658 0.230852 0
-0.0453043 0.2254 0
-0.0459637 0.219211 0
-0.0469365 0.212367 0
-0.0481129 0.204941 0
-0.049389 0.197001 0
-0.0506708 0.188612 0
-0.051876 0.179838 0
-0.0529355 0.170746 0
-0.0537932 0.161401 0
-0.0544055 0.15187 0
-0.0547405 0.142219 0
-0.0547768 0.132514 0
-0.0545027 0.122818 0
-0.0539142 0.113191 0
-0.0530141 0.103691 0
-0.0518104 0.094372 0
-0.050315 0.0852842 0
-0.0485425 0.076474 0
-0.0465092 0.0679838 0
-0.044232 0.0598525 0
-0.041728 0.0521152 0
-0.0390138 0.0448044 0
-0.0361056 0.0379495 0
-0.0330194 0.0315776 0
-0.0297717 0.0257138 0
-0.0263802 0.0203817 0
-0.0228658 0.015604 0
-0.0192549 0.011403 0
-0.0155819 0.00780185 0
-0.011893 0.00482737 0
-0.00825039 0.00250405 0
-0.0047346 0.00087026 0
-0.00145046 0.000116382 0
0.830655 0.00461826 0
0.537318 0.0289481 0
0.320782 0.0692596 0
0.173624 0.109051 0
0.0788143 0.144247 0
0.0203551 0.173285 0
-0.0140813 0.196029 0
-0.0329768 0.212867 0
-0.0425684 0.224854 0
-0.0468789 0.23295 0
-0.0484201 0.237939 0
-0.0487096 0.240436 0
-0.0486263 0.240912 0
-0.0486455 0.239721 0
-0.0489915 0.237131 0
-0.0497361 0.233346 0
-0.0508615 0.228525 0
-0.0523004 0.222796 0
-0.053961 0.216269 0
-0.0557431 0.209039 0
-0.057548 0.201196 0
-0.0592839 0.192823 0
-0.0608698 0.184002 0
-0.0622371 0.174813 0
-0.0633302 0.165336 0
-0.0641065 0.155646 0
-0.0645358 0.14582 0
-0.064599 0.135929 0
-0.0642873 0.126042 0
-0.0636002 0.116225 0
-0.0625444 0.106536 0
-0.0611321 0.0970335 0
-0.0593796 0.0877671 0
-0.0573055 0.0787835 0
-0.0549302 0.0701246 0
-0.0522745 0.0618281 0
-0.0493588 0.0539278 0
-0.0462026 0.0464544 0
-0.0428248 0.0394358 0
-0.0392433 0.0328979 0
-0.0354758 0.026865 0
-0.0315411 0.0213608 0
-0.0274602 0.0164089 0
-0.023258 0.0120341 0
-0.0189665 0.00826403 0
-0.0146267 0.00513211 0
-0.0102916 0.00267129 0
-0.00602823 0.000931138 0
-0.00191974 0.000124939 0
0.844609 0.00361394 0
0.569019 0.0243678 0
0.358472 0.060167 0
0.21007 0.0969778 0
0.110666 0.130781 0
0.0465516 0.159706 0
0.0065352 0.183282 0
-0.0175815 0.201715 0
-0.0315078 0.215482 0
-0.0393581 0.225375 0
-0.0437819 0.232071 0
-0.0464332 0.236119 0
-0.0483069 0.237959 0
-0.0499707 0.237937 0
-0.0517189 0.236322 0
-0.0536745 0.233332 0
-0.055856 0.229142 0
-0.0582209 0.2239 0
-0.0606944 0.217734 0
-0.0631869 0.210758 0
-0.0656064 0.20308 0
-0.0678656 0.194799 0
-0.0698864 0.186013 0
-0.0716027 0.176814 0
-0.0729612 0.167293 0
-0.0739222 0.157537 0
-0.0744587 0.14763 0
-0.0745555 0.13765 0
-0.0742082 0.127671 0
-0.073421 0.117762 0
-0.072206 0.107987 0
-0.0705804 0.0984015 0
-0.0685657 0.0890583 0
-0.0661856 0.0800028 0
-0.0634652 0.0712757 0
-0.0604294 0.062913 0
-0.0571021 0.0549466 0
-0.0535061 0.047405 0
-0.0496623 0.0403141 0
-0.0455904 0.0336978 0
-0.0413089 0.0275793 0
-0.0368363 0.0219817 0
-0.0321923 0.0169293 0
-0.0273994 0.012449 0
-0.0224848 0.00857188 0
-0.0174821 0.00533696 0
-0.0124338 0.00278423 0
-0.00739101 0.000972153 0
-0.00241514 0.000130594 0
0.856396 0.00293248 0
0.596818 0.0208865 0
0.392705 0.0528765 0
0.244301 0.0869052 0
0.141573 0.119129 0
0.0728241 0.147523 0
0.0279474 0.171363 0
-0.000809583 0.190685 0
-0.0189153 0.205731 0
-0.0302969 0.216983 0
-0.0376829 0.225023 0
-0.0428259 0.230337 0
-0.0468126 0.233325 0
-0.0502856 0.234313 0
-0.0535983 0.233567 0
-0.0569178 0.231305 0
-0.0602949 0.227712 0
-0.06371 0.222948 0
-0.067104 0.217153 0
-0.0703983 0.210458 0
-0.0735084 0.202982 0
-0.0763523 0.194841 0
-0.0788562 0.186143 0
-0.0809578 0.176996 0
-0.0826078 0.167498 0
-0.0837707 0.157746 0
-0.0844243 0.147833 0
-0.0845588 0.137841 0
-0.0841756 0.127852 0
-0.0832852 0.117936 0
-0.0819058 0.108159 0
-0.0800612 0.0985786 0
-0.077779 0.089247 0
-0.0750886 0.0802087 0
-0.0720205 0.0715028 0
-0.068604 0.0631629 0
-0.0648671 0.0552184 0
-0.0608354 0.047695 0
-0.0565322 0.0406161 0
-0.0519782 0.0340032 0
-0.047192 0.0278777 0
-0.0421911 0.0222618 0
-0.0369927 0.0171796 0
-0.0316152 0.0126592 0
-0.0260796 0.0087346 0
-0.0204106 0.00544881 0
-0.0146381 0.00284737 0
-0.00879711 0.000995398 0
-0.00292688 0.000133809 0
0.866542 0.00244963 0
0.621431 0.018173 0
0.423902 0.0469357 0
0.276375 0.0784114 0
0.171315 0.108989 0
0.0987772 0.136589 0
0.0496787 0.160319 0
0.0167952 0.180025 0
-0.00523051 0.195891 0
-0.0200703 0.208137 0
-0.0304331 0.217202 0
-0.0381354 0.223515 0
-0.0443338 0.227439 0
-0.0497311 0.229273 0
-0.0547287 0.229272 0
-0.0595305 0.227651 0
-0.0642147 0.224596 0
-0.0687815 0.220275 0
-0.0731858 0.214836 0
-0.0773592 0.208422 0
-0.0812244 0.201163 0
-0.0847051 0.193186 0
-0.0877326 0.184612 0
-0.0902494 0.175557 0
-0.0922113 0.16613 0
-0.0935884 0.156437 0
-0.0943648 0.146576 0
-0.0945373 0.136637 0
-0.0941147 0.126704 0
-0.0931149 0.116851 0
-0.0915639 0.107147 0
-0.0894927 0.0976482 0
-0.0869361 0.0884067 0
-0.0839304 0.0794656 0
-0.0805115 0.0708616 0
-0.0767141 0.0626257 0
-0.0725702 0.054784 0
-0.0681086 0.0473592 0
-0.0633543 0.0403712 0
-0.0583288 0.0338389 0
-0.0530503 0.0277811 0
-0.0475344 0.0222183 0
-0.0417947 0.017174 0
-0.0358442 0.0126765 0
-0.0296963 0.00876129 0
-0.0233656 0.00547428 0
-0.0168685 0.00286479 0
-0.0102228 0.00100265 0
-0.0034463 0.000134935 0
0.875404 0.00209223 0
0.643411 0.0160053 0
0.452433 0.0420134 0
0.306398 0.0711625 0
0.199778 0.100098 0
0.124151 0.126744 0
0.0713803 0.150103 0
0.0347612 0.169879 0
0.00919996 0.186127 0
-0.00899331 0.199058 0
-0.0223067 0.208874 0
-0.0325913 0.215949 0
-0.041057 0.220607 0
-0.0484541 0.223125 0
-0.0552221 0.223739 0
-0.0615947 0.222658 0
-0.0676722 0.220068 0
-0.073471 0.216137 0
-0.0789578 0.211021 0
-0.0840727 0.20487 0
-0.0887451 0.197824 0
-0.0929044 0.190019 0
-0.0964871 0.181585 0
-0.0994411 0.172648 0
-0.101729 0.163326 0
-0.103326 0.153732 0
-0.104226 0.14397 0
-0.104432 0.134136 0
-0.103962 0.124317 0
-0.102843 0.114591 0
-0.10111 0.105024 0
-0.0988018 0.0956756 0
-0.0959621 0.0865956 0
-0.0926342 0.0778249 0
-0.0888608 0.0693975 0
-0.0846819 0.0613411 0
-0.0801338 0.0536782 0
-0.0752484 0.0464275 0
-0.0700527 0.0396053 0
-0.0645683 0.0332268 0
-0.0588126 0.0273081 0
-0.0527981 0.021867 0
-0.0465343 0.0169255 0
-0.0400277 0.0125112 0
-0.0332829 0.00865996 0
-0.0263033 0.00541897 0
-0.019091 0.00283986 0
-0.0116462 0.000995279 0
-0.00396557 0.000134218 0
0.883237 0.00181629 0
0.663178 0.014232 0
0.478611 0.0378645 0
0.334495 0.0648944 0
0.226919 0.0922242 0
0.148781 0.117823 0
0.0928126 0.140628 0
0.0528149 0.160241 0
0.0239564 0.176612 0
0.00266949 0.189876 0
-0.0135406 0.200213 0
-0.0264018 0.207834 0
-0.0371591 0.213041 0
-0.0466007 0.216084 0
-0.0551964 0.217183 0
-0.0632028 0.216536 0
-0.0707374 0.214325 0
-0.0778291 0.21072 0
-0.0844536 0.205881 0
-0.0905579 0.199961 0
-0.0960769 0.193109 0
-0.100945 0.18547 0
-0.105105 0.177182 0
-0.108509 0.168378 0
-0.111128 0.159185 0
-0.112945 0.149721 0
-0.113962 0.140098 0
-0.114191 0.130414 0
-0.113661 0.12076 0
-0.112409 0.111214 0
-0.110479 0.101845 0
-0.107922 0.092711 0
-0.104787 0.0838588 0
-0.101129 0.0753273 0
-0.0969956 0.067147 0
-0.0924337 0.0593417 0
-0.0874841 0.0519296 0
-0.0821817 0.0449251 0
-0.076555 0.0383402 0
-0.070626 0.032186 0
-0.0644101 0.0264748 0
-0.0579169 0.0212214 0
-0.0511503 0.0164452 0
-0.0441095 0.0121721 0
-0.0367897 0.00843709 0
-0.029182 0.00528729 0
-0.0212736 0.00277509 0
-0.0130469 0.000974255 0
-0.00447752 0.000131809 0
0.890221 0.0015947 0
0.681061 0.0127474 0
0.502697 0.0343059 0
0.360787 0.0593975 0
0.252725 0.0851728 0
0.172554 0.109667 0
0.113798 0.131786 0
0.0707436 0.151053 0
0.0388275 0.167342 0
0.0146169 0.180711 0
-0.00436349 0.191323 0
-0.0197628 0.199296 0
-0.0328086 0.204876 0
-0.0443143 0.208292 0
-0.0547713 0.209745 0
-0.064453 0.209423 0
-0.0734888 0.207502 0
-0.0819165 0.204151 0
-0.089718 0.199531 0
-0.0968451 0.193802 0
-0.103237 0.187117 0
-0.108833 0.179629 0
-0.11358 0.171483 0
-0.117439 0.16282 0
-0.120386 0.153772 0
-0.122414 0.144465 0
-0.123534 0.135014 0
-0.123771 0.125521 0
-0.123163 0.116078 0
-0.121758 0.106766 0
-0.119614 0.097652 0
-0.116789 0.088792 0
-0.113346 0.0802312 0
-0.109346 0.0720048 0
-0.104847 0.0641393 0
-0.0998995 0.0566538 0
-0.0945505 0.049562 0
-0.088838 0.0428732 0
-0.0827918 0.0365945 0
-0.0764337 0.0307325 0
-0.0697771 0.0252949 0
-0.0628277 0.0202927 0
-0.0555834 0.0157421 0
-0.0480355 0.0116661 0
-0.0401689 0.0080977 0
-0.0319617 0.00508249 0
-0.0233858 0.00267221 0
-0.0144055 0.000940177 0
-0.00497533 0.000127781 0
0.896487 0.00141016 0
0.697309 0.0114761 0
0.524906 0.0311987 0
0.385386 0.0545044 0
0.277204 0.0787774 0
0.195393 0.102133 0
0.1342 0.123464 0
0.0883718 0.142243 0
0.053615 0.158278 0
0.0266416 0.171571 0
0.00504867 0.182226 0
-0.0128444 0.190389 0
-0.0281609 0.196182 0
-0.0417322 0.199827 0
-0.0540658 0.201509 0
-0.0654461 0.201402 0
-0.0760101 0.199678 0
-0.0858007 0.196504 0
-0.0948033 0.192043 0
-0.102973 0.186457 0
-0.110251 0.179906 0
-0.116581 0.172549 0
-0.121915 0.164536 0
-0.126221 0.156017 0
-0.129483 0.147129 0
-0.131705 0.138001 0
-0.132907 0.128753 0
-0.133128 0.11949 0
-0.132417 0.110305 0
-0.130836 0.101277 0
-0.128454 0.0924731 0
-0.125343 0.0839469 0
-0.121575 0.0757399 0
-0.117221 0.0678831 0
-0.112347 0.0603985 0
-0.107011 0.0533001 0
-0.101265 0.046596 0
-0.0951492 0.0402903 0
-0.0886957 0.0343846 0
-0.0819256 0.0288803 0
-0.0748498 0.0237801 0
-0.0674696 0.0190907 0
-0.0597766 0.0148237 0
-0.0517536 0.0109988 0
-0.0433744 0.00764558 0
-0.034604 0.00480685 0
-0.0253982 0.00253232 0
-0.0157033 0.000893359 0
-0.00545245 0.000122147 0
0.902132 0.00125121 0
0.712116 0.0103627 0
0.545407 0.0284353 0
0.408387 0.0500795 0
0.300367 0.0728966 0
0.21724 0.0950885 0
0.15391 0.115554 0
0.105559 0.133727 0
0.0681579 0.149368 0
0.038568 0.162432 0
0.0144618 0.172979 0
-0.00581939 0.181139 0
-0.023367 0.186991 0
-0.0389881 0.190727 0
-0.0531973 0.192512 0
-0.0662839 0.192512 0
-0.0783877 0.190891 0
-0.089553 0.187814 0
-0.0997661 0.183446 0
-0.108982 0.177953 0
-0.117146 0.1715 0
-0.124204 0.16425 0
-0.130113 0.156362 0
-0.134848 0.147988 0
-0.138403 0.139273 0
-0.140791 0.130348 0
-0.142047 0.121335 0
-0.14222 0.112341 0
-0.141376 0.10346 0
-0.13959 0.0947684 0
-0.136944 0.0863313 0
-0.133523 0.0781986 0
-0.129411 0.0704077 0
-0.124688 0.0629849 0
-0.11943 0.0559466 0
-0.113702 0.0493012 0
-0.10756 0.0430509 0
-0.101049 0.0371938 0
-0.0942018 0.0317259 0
-0.087038 0.0266428 0
-0.0795666 0.0219418 0
-0.0717839 0.0176241 0
-0.063675 0.0136969 0
-0.0552134 0.010175 0
-0.0463618 0.00708378 0
-0.0370716 0.00446204 0
-0.0272825 0.00235611 0
-0.0169221 0.000833919 0
-0.00590236 0.000114878 0
0.907226 0.00110995 0
0.725627 0.00936573 0
0.564335 0.025931 0
0.429866 0.046011 0
0.322224 0.0674082 0