# vtk DataFile Version 3.0
Malha 2D com triângulos: velocidade e pressão
ASCII
DATASET UNSTRUCTURED_GRID

POINTS 2500 double
0 0 0
1 0 0
1 1 0
0 1 0
0.0204082 0 0
0.0408163 0 0
0.0612245 0 0
0.0816327 0 0
0.102041 0 0
0.122449 0 0
0.142857 0 0
0.163265 0 0
0.183673 0 0
0.204082 0 0
0.22449 0 0
0.244898 0 0
0.265306 0 0
0.285714 0 0
0.306122 0 0
0.326531 0 0
0.346939 0 0
0.367347 0 0
0.387755 0 0
0.408163 0 0
0.428571 0 0
0.44898 0 0
0.469388 0 0
0.489796 0 0
0.510204 0 0
0.530612 0 0
0.55102 0 0
0.571429 0 0
0.591837 0 0
0.612245 0 0
0.632653 0 0
0.653061 0 0
0.673469 0 0
0.693878 0 0
0.714286 0 0
0.734694 0 0
0.755102 0 0
0.77551 0 0
0.795918 0 0
0.816327 0 0
0.836735 0 0
0.857143 0 0
0.877551 0 0
0.897959 0 0
0.918367 0 0
0.938776 0 0
0.959184 0 0
0.979592 0 0
1 0.0204082 0
1 0.0408163 0
1 0.0612245 0
1 0.0816327 0
1 0.102041 0
1 0.122449 0
1 0.142857 0
1 0.163265 0
1 0.183673 0
1 0.204082 0
1 0.22449 0
1 0.244898 0
1 0.265306 0
1 0.285714 0
1 0.306122 0
1 0.326531 0
1 0.346939 0
1 0.367347 0
1 0.387755 0
1 0.408163 0
1 0.428571 0
1 0.44898 0
1 0.469388 0
1 0.489796 0
1 0.510204 0
1 0.530612 0
1 0.55102 0
1 0.571429 0
1 0.591837 0
1 0.612245 0
1 0.632653 0
1 0.653061 0
1 0.673469 0
1 0.693878 0
1 0.714286 0
1 0.734694 0
1 0.755102 0
1 0.77551 0
1 0.795918 0
1 0.816327 0
1 0.836735 0
1 0.857143 0
1 0.877551 0
1 0.897959 0
1 0.918367 0
1 0.938776 0
1 0.959184 0
1 0.979592 0
0.979592 1 0
0.959184 1 0
0.938776 1 0
0.918367 1 0
0.897959 1 0
0.877551 1 0
0.857143 1 0
0.836735 1 0
0.816327 1 0
0.795918 1 0
0.77551 1 0
0.755102 1 0
0.734694 1 0
0.714286 1 0
0.693878 1 0
0.673469 1 0
0.653061 1 0
0.632653 1 0
0.612245 1 0
0.591837 1 0
0.571429 1 0
0.55102 1 0
0.530612 1 0
0.510204 1 0
0.489796 1 0
0.469388 1 0
0.44898 1 0
0.428571 1 0
0.408163 1 0
0.387755 1 0
0.367347 1 0
0.346939 1 0
0.326531 1 0
0.306122 1 0
0.285714 1 0
0.265306 1 0
0.244898 1 0
0.22449 1 0
0.204082 1 0
0.183673 1 0
0.163265 1 0
0.142857 1 0
0.122449 1 0
0.102041 1 0
0.0816327 1 0
0.0612245 1 0
0.0408163 1 0
0.0204082 1 0
0 0.979592 0
0 0.959184 0
0 0.938776 0
0 0.918367 0
0 0.897959 0
0 0.877551 0
0 0.857143 0
0 0.836735 0
0 0.816327 0
0 0.795918 0
0 0.77551 0
0 0.755102 0
0 0.734694 0
0 0.714286 0
0 0.693878 0
0 0.673469 0
0 0.653061 0
0 0.632653 0
0 0.612245 0
0 0.591837 0
0 0.571429 0
0 0.55102 0
0 0.530612 0
0 0.510204 0
0 0.489796 0
0 0.469388 0
0 0.44898 0
0 0.428571 0
0 0.408163 0
0 0.387755 0
0 0.367347 0
0 0.346939 0
0 0.326531 0
0 0.306122 0
0 0.285714 0
0 0.265306 0
0 0.244898 0
0 0.22449 0
0 0.204082 0
0 0.183673 0
0 0.163265 0
0 0.142857 0
0 0.122449 0
0 0.102041 0
0 0.0816327 0
0 0.0612245 0
0 0.0408163 0
0 0.0204082 0
0.0204082 0.979592 0
0.0204082 0.959184 0
0.0204082 0.938776 0
0.0204082 0.918367 0
0.0204082 0.897959 0
0.0204082 0.877551 0
0.0204082 0.857143 0
0.0204082 0.836735 0
0.0204082 0.816327 0
0.0204082 0.795918 0
0.0204082 0.77551 0
0.0204082 0.755102 0
0.0204082 0.734694 0
0.0204082 0.714286 0
0.0204082 0.693878 0
0.0204082 0.673469 0
0.0204082 0.653061 0
0.0204082 0.632653 0
0.0204082 0.612245 0
0.0204082 0.591837 0
0.0204082 0.571429 0
0.0204082 0.55102 0
0.0204082 0.530612 0
0.0204082 0.510204 0
0.0204082 0.489796 0
0.0204082 0.469388 0
0.0204082 0.44898 0
0.0204082 0.428571 0
0.0204082 0.408163 0
0.0204082 0.387755 0
0.0204082 0.367347 0
0.0204082 0.346939 0
0.0204082 0.326531 0
0.0204082 0.306122 0
0.0204082 0.285714 0
0.0204082 0.265306 0
0.0204082 0.244898 0
0.0204082 0.22449 0
0.0204082 0.204082 0
0.0204082 0.183673 0
0.0204082 0.163265 0
0.0204082 0.142857 0
0.0204082 0.122449 0
0.0204082 0.102041 0
0.0204082 0.0816327 0
0.0204082 0.0612245 0
0.0204082 0.0408163 0
0.0204082 0.0204082 0
0.0408163 0.979592 0
0.0408163 0.959184 0
0.0408163 0.938776 0
0.0408163 0.918367 0
0.0408163 0.897959 0
0.0408163 0.877551 0
0.0408163 0.857143 0
0.0408163 0.836735 0
0.0408163 0.816327 0
0.0408163 0.795918 0
0.0408163 0.77551 0
0.0408163 0.755102 0
0.0408163 0.734694 0
0.0408163 0.714286 0
0.0408163 0.693878 0
0.0408163 0.673469 0
0.0408163 0.653061 0
0.0408163 0.632653 0
0.0408163 0.612245 0
0.0408163 0.591837 0
0.0408163 0.571429 0
0.0408163 0.55102 0
0.0408163 0.530612 0
0.0408163 0.510204 0
0.0408163 0.489796 0
0.0408163 0.469388 0
0.0408163 0.44898 0
0.0408163 0.428571 0
0.0408163 0.408163 0
0.0408163 0.387755 0
0.0408163 0.367347 0
0.0408163 0.346939 0
0.0408163 0.326531 0
0.0408163 0.306122 0
0.0408163 0.285714 0
0.0408163 0.265306 0
0.0408163 0.244898 0
0.0408163 0.22449 0
0.0408163 0.204082 0
0.0408163 0.183673 0
0.0408163 0.163265 0
0.0408163 0.142857 0
0.0408163 0.122449 0
0.0408163 0.102041 0
0.0408163 0.0816327 0
0.0408163 0.0612245 0
0.0408163 0.0408163 0
0.0408163 0.0204082 0
0.0612245 0.979592 0
0.0612245 0.959184 0
0.0612245 0.938776 0
0.0612245 0.918367 0
0.0612245 0.897959 0
0.0612245 0.877551 0
0.0612245 0.857143 0
0.0612245 0.836735 0
0.0612245 0.816327 0
0.0612245 0.795918 0
0.0612245 0.77551 0
0.0612245 0.755102 0
0.0612245 0.734694 0
0.0612245 0.714286 0
0.0612245 0.693878 0
0.0612245 0.673469 0
0.0612245 0.653061 0
0.0612245 0.632653 0
0.0612245 0.612245 0
0.0612245 0.591837 0
0.0612245 0.571429 0
0.0612245 0.55102 0
0.0612245 0.530612 0
0.0612245 0.510204 0
0.0612245 0.489796 0
0.0612245 0.469388 0
0.0612245 0.44898 0
0.0612245 0.428571 0
0.0612245 0.408163 0
0.0612245 0.387755 0
0.0612245 0.367347 0
0.0612245 0.346939 0
0.0612245 0.326531 0
0.0612245 0.306122 0
0.0612245 0.285714 0
0.0612245 0.265306 0
0.0612245 0.244898 0
0.0612245 0.22449 0
0.0612245 0.204082 0
0.0612245 0.183673 0
0.0612245 0.163265 0
0.0612245 0.142857 0
0.0612245 0.122449 0
0.0612245 0.102041 0
0.0612245 0.0816327 0
0.0612245 0.0612245 0
0.0612245 0.0408163 0
0.0612245 0.0204082 0
0.0816327 0.979592 0
0.0816327 0.959184 0
0.0816327 0.938776 0
0.0816327 0.918367 0
0.0816327 0.897959 0
0.0816327 0.877551 0
0.0816327 0.857143 0
0.0816327 0.836735 0
0.0816327 0.816327 0
0.0816327 0.795918 0
0.0816327 0.77551 0
0.0816327 0.755102 0
0.0816327 0.734694 0
0.0816327 0.714286 0
0.0816327 0.693878 0
0.0816327 0.673469 0
0.0816327 0.653061 0
0.0816327 0.632653 0
0.0816327 0.612245 0
0.0816327 0.591837 0
0.0816327 0.571429 0
0.0816327 0.55102 0
0.0816327 0.530612 0
0.0816327 0.510204 0
0.0816327 0.489796 0
0.0816327 0.469388 0
0.0816327 0.44898 0
0.0816327 0.428571 0
0.0816327 0.408163 0
0.0816327 0.387755 0
0.0816327 0.367347 0
0.0816327 0.346939 0
0.0816327 0.326531 0
0.0816327 0.306122 0
0.0816327 0.285714 0
0.0816327 0.265306 0
0.0816327 0.244898 0
0.0816327 0.22449 0
0.0816327 0.204082 0
0.0816327 0.183673 0
0.0816327 0.163265 0
0.0816327 0.142857 0
0.0816327 0.122449 0
0.0816327 0.102041 0
0.0816327 0.0816327 0
0.0816327 0.0612245 0
0.0816327 0.0408163 0
0.0816327 0.0204082 0
0.102041 0.979592 0
0.102041 0.959184 0
0.102041 0.938776 0
0.102041 0.918367 0
0.102041 0.897959 0
0.102041 0.877551 0
0.102041 0.857143 0
0.102041 0.836735 0
0.102041 0.816327 0
0.102041 0.795918 0
0.102041 0.77551 0
0.102041 0.755102 0
0.102041 0.734694 0
0.102041 0.714286 0
0.102041 0.693878 0
0.102041 0.673469 0
0.102041 0.653061 0
0.102041 0.632653 0
0.102041 0.612245 0
0.102041 0.591837 0
0.102041 0.571429 0
0.102041 0.55102 0
0.102041 0.530612 0
0.102041 0.510204 0
0.102041 0.489796 0
0.102041 0.469388 0
0.102041 0.44898 0
0.102041 0.428571 0
0.102041 0.408163 0
0.102041 0.387755 0
0.102041 0.367347 0
0.102041 0.346939 0
0.102041 0.326531 0
0.102041 0.306122 0
0.102041 0.285714 0
0.102041 0.265306 0
0.102041 0.244898 0
0.102041 0.22449 0
0.102041 0.204082 0
0.102041 0.183673 0
0.102041 0.163265 0
0.102041 0.142857 0
0.102041 0.122449 0
0.102041 0.102041 0
0.102041 0.0816327 0
0.102041 0.0612245 0
0.102041 0.0408163 0
0.102041 0.0204082 0
0.122449 0.979592 0
0.122449 0.959184 0
0.122449 0.938776 0
0.122449 0.918367 0
0.122449 0.897959 0
0.122449 0.877551 0
0.122449 0.857143 0
0.122449 0.836735 0
0.122449 0.816327 0
0.122449 0.795918 0
0.122449 0.77551 0
0.122449 0.755102 0
0.122449 0.734694 0
0.122449 0.714286 0
0.122449 0.693878 0
0.122449 0.673469 0
0.122449 0.653061 0
0.122449 0.632653 0
0.122449 0.612245 0
0.122449 0.591837 0
0.122449 0.571429 0
0.122449 0.55102 0
0.122449 0.530612 0
0.122449 0.510204 0
0.122449 0.489796 0
0.122449 0.469388 0
0.122449 0.44898 0
0.122449 0.428571 0
0.122449 0.408163 0
0.122449 0.387755 0
0.122449 0.367347 0
0.122449 0.346939 0
0.122449 0.326531 0
0.122449 0.306122 0
0.122449 0.285714 0
0.122449 0.265306 0
0.122449 0.244898 0
0.122449 0.22449 0
0.122449 0.204082 0
0.122449 0.183673 0
0.122449 0.163265 0
0.122449 0.142857 0
0.122449 0.122449 0
0.122449 0.102041 0
0.122449 0.0816327 0
0.122449 0.0612245 0
0.122449 0.0408163 0
0.122449 0.0204082 0
0.142857 0.979592 0
0.142857 0.959184 0
0.142857 0.938776 0
0.142857 0.918367 0
0.142857 0.897959 0
0.142857 0.877551 0
0.142857 0.857143 0
0.142857 0.836735 0
0.142857 0.816327 0
0.142857 0.795918 0
0.142857 0.77551 0
0.142857 0.755102 0
0.142857 0.734694 0
0.142857 0.714286 0
0.142857 0.693878 0
0.142857 0.673469 0
0.142857 0.653061 0
0.142857 0.632653 0
0.142857 0.612245 0
0.142857 0.591837 0
0.142857 0.571429 0
0.142857 0.55102 0
0.142857 0.530612 0
0.142857 0.510204 0
0.142857 0.489796 0
0.142857 0.469388 0
0.142857 0.44898 0
0.142857 0.428571 0
0.142857 0.408163 0
0.142857 0.387755 0
0.142857 0.367347 0
0.142857 0.346939 0
0.142857 0.326531 0
0.142857 0.306122 0
0.142857 0.285714 0
0.142857 0.265306 0
0.142857 0.244898 0
0.142857 0.22449 0
0.142857 0.204082 0
0.142857 0.183673 0
0.142857 0.163265 0
0.142857 0.142857 0
0.142857 0.122449 0
0.142857 0.102041 0
0.142857 0.0816327 0
0.142857 0.0612245 0
0.142857 0.0408163 0
0.142857 0.0204082 0
0.163265 0.979592 0
0.163265 0.959184 0
0.163265 0.938776 0
0.163265 0.918367 0
0.163265 0.897959 0
0.163265 0.877551 0
0.163265 0.857143 0
0.163265 0.836735 0
0.163265 0.816327 0
0.163265 0.795918 0
0.163265 0.77551 0
0.163265 0.755102 0
0.163265 0.734694 0
0.163265 0.714286 0
0.163265 0.693878 0
0.163265 0.673469 0
0.163265 0.653061 0
0.163265 0.632653 0
0.163265 0.612245 0
0.163265 0.591837 0
0.163265 0.571429 0
0.163265 0.55102 0
[...]
CELL_DATA 2401
VECTORS velocity double
0.257355 0.157464 0
-0.00270624 0.264589 0
-0.0323121 0.205467 0
-0.0253883 0.150586 0
-0.0160662 0.113041 0
-0.00970862 0.0876677 0
-0.00593382 0.070576 0
-0.00374924 0.058861 0
-0.00246612 0.0506157 0
-0.00168857 0.0446548 0
-0.00120068 0.0402317 0
-0.000885145 0.0368624 0
-0.000676627 0.0342236 0
-0.000537284 0.0320937 0
-0.000444172 0.0303169 0
-0.00038274 0.0287822 0
-0.000343374 0.0274095 0
-0.000319488 0.0261412 0
-0.000306427 0.0249355 0
-0.00030081 0.0237631 0
-0.000300126 0.0226037 0
-0.000302478 0.0214441 0
-0.000306416 0.0202764 0
-0.000310828 0.0190973 0
-0.000314869 0.0179065 0
-0.000317903 0.0167063 0
-0.000319471 0.0155008 0
-0.000319261 0.0142957 0
-0.000317078 0.0130972 0
-0.000312829 0.0119123 0
-0.000306498 0.0107482 0
-0.000298134 0.00961197 0
-0.000287824 0.00851057 0
-0.000275687 0.00745066 0
-0.000261853 0.00643848 0
-0.000246451 0.00547987 0
-0.000229595 0.00458027 0
-0.000211372 0.00374475 0
-0.000191831 0.00297811 0
-0.00017097 0.00228496 0
-0.000148722 0.00166984 0
-0.000124949 0.00113733 0
-9.94446e-05 0.000692123 0
-7.19828e-05 0.000338964 0
-4.24812e-05 8.23014e-05 0
-1.1498e-05 -7.47477e-05 0
1.84946e-05 -0.000132736 0
4.04874e-05 -0.00010455 0
3.60477e-05 -3.58662e-05 0
0.340605 0.122957 0
-0.000654668 0.249417 0
-0.0652589 0.271624 0
-0.0632936 0.25216 0
-0.0485641 0.221635 0
-0.0350089 0.191747 0
-0.0249563 0.166301 0
-0.017927 0.145802 0
-0.0130773 0.129636 0
-0.00972121 0.116948 0
-0.00738051 0.106941 0
-0.00573703 0.0989518 0
-0.00457983 0.0924584 0
-0.00376709 0.0870587 0
-0.00320153 0.0824462 0
-0.00281493 0.0783889 0
-0.00255841 0.0747121 0
-0.00239623 0.0712854 0
-0.0023018 0.0680127 0
-0.00225501 0.0648246 0
-0.00224045 0.0616727 0
-0.00224618 0.0585249 0
-0.00226293 0.0553624 0
-0.00228349 0.0521766 0
-0.00230232 0.0489668 0
-0.00231521 0.0457385 0
-0.00231907 0.0425019 0
-0.00231175 0.0392707 0
-0.00229188 0.0360606 0
-0.0022587 0.0328889 0
-0.00221197 0.0297734 0
-0.00215186 0.0267321 0
-0.0020788 0.0237826 0
-0.00199344 0.0209419 0
-0.00189651 0.0182261 0
-0.00178877 0.0156504 0
-0.00167094 0.0132288 0
-0.00154362 0.0109747 0
-0.00140729 0.00890052 0
-0.00126222 0.0070182 0
-0.00110854 0.00533899 0
-0.000946266 0.00387368 0
-0.000775487 0.00263234 0
-0.000596795 0.00162376 0
-0.000412221 0.0008541 0
-0.000227303 0.000324266 0
-5.53341e-05 2.50005e-05 0
7.54878e-05 -7.38718e-05 0
0.000104016 -3.938e-05 0
0.500867 0.0767947 0
0.0990695 0.183217 0
-0.0393923 0.249221 0
-0.0734829 0.265697 0
-0.071961 0.257378 0
-0.0606635 0.239571 0
-0.0484109 0.219541 0
-0.0378394 0.200578 0
-0.0294372 0.183891 0
-0.0230025 0.169692 0
-0.01817 0.157764 0
-0.0145867 0.147744 0
-0.0119593 0.139249 0
-0.0100571 0.13193 0
-0.00870284 0.125488 0
-0.00776082 0.119681 0
-0.00712735 0.114314 0
-0.00672262 0.109237 0
-0.00648485 0.104336 0
-0.00636583 0.0995275 0
-0.00632772 0.0947519 0
-0.00634068 0.0899708 0
-0.0063812 0.0851619 0
-0.00643083 0.0803164 0
-0.00647524 0.0754357 0
-0.00650352 0.0705294 0
-0.00650761 0.0656136 0
-0.00648184 0.0607084 0
-0.00642253 0.0558372 0
-0.00632763 0.0510254 0
-0.00619643 0.0462989 0
-0.00602923 0.0416841 0
-0.00582709 0.0372066 0
-0.00559158 0.0328912 0
-0.00532456 0.0287615 0
-0.005028 0.0248396 0
-0.00470377 0.0211465 0
-0.00435359 0.0177016 0
-0.0039789 0.0145232 0
-0.00358086 0.0116283 0
-0.00316046 0.00903299 0
-0.00271877 0.00675183 0
-0.00225756 0.00479778 0
-0.00178035 0.00318109 0
-0.00129461 0.00190755 0
-0.000815657 0.000975512 0
-0.000373769 0.000370242 0
-2.39828e-05 5.66046e-05 0
0.000129858 -1.65896e-05 0
0.610008 0.0480373 0
0.195612 0.13396 0
0.0112936 0.209424 0
-0.0581442 0.246432 0
-0.0761797 0.256958 0
-0.0738246 0.253507 0
-0.0645363 0.24326 0
-0.0539321 0.230467 0
-0.0441905 0.217384 0
-0.0360023 0.205062 0
-0.0294387 0.193894 0
-0.024336 0.183922 0
-0.0204622 0.175028 0
-0.0175858 0.167027 0
-0.0155013 0.159724 0
-0.0140354 0.152936 0
-0.0130454 0.146505 0
-0.0124155 0.140302 0
-0.0120522 0.134225 0
-0.01188 0.1282 0
-0.011838 0.122171 0
-0.0118774 0.116106 0
-0.0119591 0.109988 0
-0.0120521 0.103812 0
-0.012132 0.0975851 0
-0.0121803 0.0913233 0
-0.0121833 0.0850487 0
-0.012131 0.0787879 0
-0.0120174 0.0725708 0
-0.0118389 0.0664294 0
-0.0115942 0.0603962 0
-0.011284 0.0545038 0
-0.0109101 0.0487838 0
-0.0104754 0.043267 0
-0.00998309 0.0379823 0
-0.00943672 0.0329572 0
-0.00883974 0.0282172 0
-0.00819537 0.0237863 0
-0.00750649 0.0196867 0
-0.00677572 0.015939 0
-0.00600558 0.0125622 0
-0.0051991 0.00957326 0
-0.00436077 0.00698656 0
-0.00349836 0.004813 0
-0.00262597 0.00305825 0
-0.00176928 0.0017204 0
-0.000974066 0.000784336 0
-0.00031673 0.000219837 0
7.07199e-05 1.29478e-05 0
0.680391 0.0301504 0
0.278368 0.09818 0
0.069504 0.170982 0
-0.0276065 0.217486 0
-0.0653726 0.240943 0
-0.0747765 0.249426 0
-0.0716742 0.248857 0
-0.0638258 0.243337 0
-0.0548969 0.235441 0
-0.0465194 0.226659 0
-0.0393235 0.217789 0
-0.0334591 0.209209 0
-0.0288578 0.201051 0
-0.0253638 0.193314 0
-0.0227971 0.185934 0
-0.0209833 0.178819 0
-0.0197652 0.171878 0
-0.0190067 0.165024 0
-0.0185925 0.15819 0
-0.018426 0.151323 0
-0.0184273 0.144387 0
-0.0185307 0.137363 0
-0.0186829 0.130245 0
-0.0188411 0.123039 0
-0.0189714 0.11576 0
-0.0190478 0.108432 0
-0.0190511 0.101084 0
-0.0189678 0.0937494 0
-0.0187891 0.0864642 0
-0.0185102 0.0792661 0
-0.01813 0.0721931 0
-0.0176493 0.0652825 0
-0.0170713 0.0585708 0
-0.0164002 0.0520928 0
-0.0156411 0.0458813 0
-0.0147995 0.0399673 0
-0.0138806 0.0343796 0
-0.0128896 0.029145 0
-0.0118311 0.0242883 0
-0.0107098 0.0198322 0
-0.00953016 0.0157974 0
-0.0082978 0.0122023 0
-0.00702051 0.00906233 0
-0.00571064 0.0063891 0
-0.00438874 0.00418942 0
-0.00308927 0.00246383 0
-0.00186934 0.00120139 0
-0.000818372 0.000383173 0
-8.04318e-05 4.13724e-05 0
0.729782 0.019178 0
0.348891 0.0730388 0
0.127809 0.139294 0
0.0111142 0.188264 0
-0.0444016 0.219615 0
-0.0660921 0.236732 0
-0.0707212 0.24415 0
-0.0673837 0.245341 0
-0.0608767 0.242761 0
-0.0536488 0.238019 0
-0.0468782 0.232116 0
-0.0410629 0.225635 0
-0.0363459 0.218895 0
-0.0326926 0.212049 0
-0.0299874 0.205153 0
-0.0280844 0.19821 0
-0.0268347 0.191199 0
-0.0260982 0.184089 0
-0.0257494 0.176853 0
-0.0256791 0.16947 0
-0.0257942 0.161931 0
-0.0260162 0.154234 0
-0.0262805 0.14639 0
-0.0265344 0.138418 0
-0.0267363 0.130345 0
-0.026854 0.122203 0
-0.0268635 0.11403 0
-0.0267484 0.105865 0
-0.0264982 0.0977521 0
-0.0261076 0.0897329 0
-0.0255754 0.0818504 0
-0.0249039 0.0741458 0
-0.0240976 0.0666591 0
-0.0231627 0.0594281 0
-0.0221064 0.0524883 0
-0.0209363 0.0458727 0
-0.01966 0.0396122 0
-0.0182848 0.033735 0
-0.0168175 0.0282675 0
-0.0152649 0.0232334 0
-0.013634 0.0186543 0
-0.0119329 0.0145496 0
-0.0101728 0.0109355 0
-0.00837026 0.00782515 0
-0.00655086 0.00522784 0
-0.00475519 0.00314889 0
-0.00304661 0.00158468 0
-0.00151934 0.000530756 0
-0.000316349 6.57749e-05 0
0.765787 0.0125779 0
0.40831 0.0556931 0
0.182782 0.11453 0
0.0526161 0.162617 0
-0.0172252 0.197784 0
-0.0504014 0.220657 0
-0.0631818 0.234074 0
-0.0652814 0.240802 0
-0.0622543 0.242973 0
-0.057183 0.242119 0
-0.0517173 0.239285 0
-0.046684 0.235153 0
-0.0424449 0.230156 0
-0.0391055 0.224552 0
-0.0366351 0.218494 0
-0.0349366 0.212063 0
-0.0338858 0.205304 0
-0.0333521 0.198239 0
-0.0332109 0.190884 0
-0.0333482 0.183252 0
-0.033664 0.175361 0
-0.0340718 0.167232 0
-0.0344994 0.158894 0
-0.0348871 0.150381 0
-0.0351876 0.141733 0
-0.0353642 0.132992 0
-0.0353899 0.124204 0
-0.0352464 0.115417 0
-0.0349224 0.10668 0
-0.0344129 0.0980405 0
-0.033718 0.0895446 0
-0.0328414 0.0812374 0
-0.0317898 0.0731613 0
-0.0305718 0.0653562 0
-0.0291972 0.0578592 0
-0.0276761 0.0507046 0
-0.0260187 0.043924 0
-0.0242346 0.0375465 0
-0.0223331 0.0315985 0
-0.0203232 0.0261044 0
-0.0182141 0.0210862 0
-0.0160167 0.0165636 0
-0.0137448 0.0125542 0
-0.011418 0.00907301 0
-0.00906533 0.00613297 0
-0.00673007 0.00374567 0
-0.00447689 0.0019165 0
-0.00239778 0.000656234 0
-0.000625267 8.55155e-05 0
0.792819 0.00859384 0
0.458357 0.0436149 0
0.233251 0.0953871 0
0.0942618 0.141073 0
0.0136146 0.177319 0
-0.0299025 0.203819 0
-0.0506419 0.221513 0
-0.0585332 0.232544 0
-0.0595909 0.238667 0
-0.0573562 0.241243 0
-0.0538553 0.24127 0
-0.0501986 0.239453 0
-0.0469509 0.236274 0
-0.0443568 0.232059 0
-0.0424777 0.227024 0
-0.0412749 0.22131 0
-0.0406588 0.215016 0
-0.0405181 0.20821 0
-0.0407367 0.200946 0
-0.041203 0.193269 0
-0.0418152 0.185225 0
-0.0424837 0.176857 0
-0.0431321 0.168214 0
-0.0436967 0.159345 0
-0.044127 0.150303 0
-0.0443838 0.141141 0
-0.0444387 0.131915 0
-0.0442731 0.12268 0
-0.0438762 0.11349 0
-0.0432443 0.104398 0
-0.0423796 0.0954537 0
-0.0412881 0.0867056 0
-0.0399796 0.0781978 0
-0.0384655 0.0699716 0
-0.0367586 0.0620647 0
-0.034872 0.054512 0
-0.0328186 0.047345 0
-0.0306107 0.0405925 0
-0.0282599 0.0342807 0
-0.0257775 0.0284339 0
-0.023175 0.0230738 0
-0.020465 0.0182208 0
-0.0176633 0.0138936 0
-0.0147912 0.0101096 0
-0.0118787 0.00688599 0
-0.00896884 0.00424128 0
-0.00612325 0.00219026 0
-0.00342629 0.000758084 0
-0.000994108 0.000100839 0
0.813825 0.00614657 0
0.500838 0.0350577 0
0.279063 0.0805884 0
0.134599 0.123304 0
0.0456254 0.159294 0
-0.0063773 0.187539 0
-0.0344985 0.208146 0
-0.048164 0.222368 0
-0.0535828 0.231621 0
-0.0545978 0.237064 0
-0.0535186 0.239599 0
-0.0516869 0.239902 0
-0.0498431 0.238466 0
-0.0483593 0.235646 0
-0.0473862 0.231695 0
-0.0469456 0.226799 0
-0.046987 0.221092 0
-0.0474233 0.214681 0
-0.0481524 0.207652 0
-0.0490698 0.200079 0
-0.0500765 0.19203 0
-0.0510831 0.183573 0
-0.0520123 0.174773 0
-0.0527994 0.165695 0
-0.0533928 0.156405 0
-0.053753 0.146967 0
-0.0538521 0.137446 0
-0.0536725 0.127905 0
-0.0532055 0.118404 0
-0.0524499 0.109 0
-0.0514108 0.0997461 0
-0.0500979 0.0906937 0
-0.0485244 0.0818881 0
-0.0467054 0.0733714 0
-0.0446573 0.0651816 0
-0.0423963 0.057353 0
-0.0399386 0.0499166 0
-0.0372991 0.0429004 0
-0.0344919 0.0363298 0
-0.0315302 0.030228 0
-0.0284272 0.0246168 0
-0.0251969 0.0195164 0
-0.0218558 0.0149469 0
-0.0184253 0.0109282 0
-0.0149343 0.00748183 0
-0.0114226 0.004633 0
-0.00794551 0.00240551 0
-0.00457585 0.0008371 0
-0.00141009 0.000112281 0
0.830681 0.00460317 0
0.537272 0.0288612 0
0.32052 0.0690378 0
0.173028 0.10865 0
0.0778159 0.143626 0
0.0189418 0.172405 0
-0.0158694 0.19485 0
-0.03508 0.211362 0
-0.0449151 0.223012 0
-0.0493934 0.230764 0
-0.0510273 0.235408 0
-0.0513383 0.237564 0
-0.051212 0.23771 0
-0.051131 0.236203 0
-0.0513272 0.233317 0
-0.0518797 0.22926 0
-0.0527776 0.224194 0
-0.0539597 0.218253 0
-0.0553404 0.211547 0
-0.0568254 0.204176 0
-0.0583212 0.196229 0
-0.0597417 0.187791 0
-0.0610111 0.178945 0
-0.0620661 0.169772 0
-0.062856 0.160347 0
-0.0633431 0.150749 0
-0.0635016 0.141049 0
-0.0633166 0.131318 0
-0.0627827 0.121622 0
-0.0619029 0.112021 0
-0.0606862 0.102574 0
-0.0591469 0.0933327 0
-0.0573025 0.0843432 0
-0.0551726 0.0756482 0
-0.0527775 0.0672853 0
-0.0501374 0.0592879 0
-0.0472715 0.0516858 0
-0.0441978 0.0445055 0
-0.0409325 0.0377709 0
-0.0374907 0.0315043 0
-0.0338866 0.0257264 0
-0.0301347 0.0204577 0
-0.0262513 0.0157189 0
-0.022256 0.0115323 0
-0.0181747 0.00792351 0
-0.0140418 0.00492382 0
-0.00990323 0.00256494 0
-0.00581806 0.000895083 0
-0.00186146 0.000120422 0
0.844582 0.00359695 0
0.568858 0.0242687 0
0.358046 0.0599165 0
0.209267 0.0965347 0
0.109423 0.130109 0
0.0448573 0.158772 0
0.00442107 0.182061 0
-0.0200163 0.200166 0
-0.0341923 0.213597 0
-0.0422123 0.223156 0
-0.046726 0.22952 0
-0.049391 0.233242 0
-0.051209 0.234767 0
-0.0527553 0.234444 0
-0.0543321 0.232548 0
-0.0560701 0.229299 0
-0.057995 0.224877 0
-0.0600713 0.219433 0
-0.0622305 0.213096 0
-0.0643894 0.205984 0
-0.0664622 0.198206 0
-0.0683674 0.189862 0
-0.0700329 0.181051 0
-0.0713984 0.171865 0
-0.0724163 0.162394 0
-0.0730521 0.152724 0
-0.0732839 0.142937 0
-0.073101 0.13311 0
-0.072503 0.123314 0
-0.0714979 0.113614 0
-0.0701003 0.104071 0
-0.0683299 0.0947375 0
-0.0662095 0.0856618 0
-0.0637639 0.0768858 0
-0.061018 0.0684461 0
-0.0579962 0.0603747 0
-0.0547214 0.0526995 0
-0.0512143 0.0454451 0
-0.0474933 0.0386336 0
-0.0435749 0.0322855 0
-0.0394739 0.0264203 0
-0.0352043 0.0210581 0
-0.0307809 0.0162202 0
-0.0262204 0.0119307 0
-0.0215437 0.00821822 0
-0.0167777 0.00511947 0
-0.0119573 0.0026726 0
-0.00712621 0.000934117 0
-0.00233769 0.000125791 0
0.856312 0.00291467 0
0.596529 0.0207802 0
0.392102 0.0526082 0
0.243283 0.0864356 0
0.140084 0.118425 0
0.0708583 0.146559 0
0.0255439 0.17012 0
-0.00358037 0.189147 0
-0.0219312 0.203864 0
-0.0334785 0.214793 0
-0.0409483 0.222517 0
-0.0460959 0.227523 0
-0.050014 0.230214 0
-0.0533529 0.23092 0
-0.0564739 0.229909 0
-0.0595521 0.227404 0
-0.0626457 0.223592 0
-0.0657424 0.218635 0
-0.06879 0.212677 0
-0.0717167 0.205851 0
-0.0744444 0.198278 0
-0.0768979 0.190075 0
-0.0790097 0.181351 0
-0.0807239 0.172213 0
-0.0819974 0.16276 0
-0.0828005 0.153088 0
-0.0831166 0.143286 0
-0.0829411 0.133438 0
-0.0822796 0.12362 0
-0.0811466 0.113902 0
-0.0795636 0.104345 0
-0.0775565 0.0950044 0
-0.0751548 0.0859278 0
-0.0723888 0.0771564 0
-0.069289 0.0687256 0
-0.0658843 0.0606654 0
-0.0622014 0.0530013 0
-0.0582639 0.0457554 0
-0.0540923 0.0389476 0
-0.0497041 0.0325959 0
-0.045114 0.0267185 0
-0.0403348 0.0213342 0
-0.0353786 0.0164644 0
-0.0302578 0.0121341 0
-0.0249869 0.00837469 0
-0.0195838 0.0052265 0
-0.014071 0.00273277 0
-0.00847566 0.000956187 0
-0.00282946 0.000128824 0
0.866398 0.00243199 0
0.621009 0.0180644 0
0.423116 0.0466605 0
0.275138 0.0779324 0
0.169579 0.108278 0
0.0965445 0.135625 0
0.0469938 0.159087 0
0.013736 0.178516 0
-0.00856549 0.194092 0
-0.0235635 0.20603 0
-0.0340009 0.214799 0
-0.0416976 0.220826 0
-0.0478148 0.224474 0
-0.0530627 0.226046 0
-0.0578503 0.225799 0
-0.0623893 0.22395 0
-0.0667657 0.220689 0
-0.070987 0.216185 0
-0.0750155 0.210592 0
-0.0787896 0.204051 0
-0.0822394 0.196698 0
-0.0852955 0.188658 0
-0.0878962 0.180055 0
-0.0899909 0.171004 0
-0.0915422 0.161616 0
-0.0925267 0.151993 0
-0.0929343 0.142234 0
-0.0927676 0.132427 0
-0.0920401 0.122653 0
-0.090774 0.112985 0
-0.0889987 0.103486 0
-0.0867479 0.0942115 0
-0.0840581 0.0852096 0
-0.0809665 0.07652 0
-0.0775095 0.0681758 0
-0.0737209 0.0602047 0
-0.0696316 0.0526294 0
-0.0652681 0.045469 0
-0.0606529 0.0387403 0
-0.0558041 0.0324588 0
-0.0507356 0.0266403 0
-0.0454584 0.0213021 0
-0.0399808 0.0164648 0
-0.0343099 0.0121537 0
-0.0284524 0.00840153 0
-0.022416 0.00525115 0
-0.0162097 0.00274933 0
-0.00984378 0.000962978 0
-0.00332848 0.000129856 0
0.875201 0.00207557 0
0.642853 0.015899 0
0.451463 0.0417414 0
0.304945 0.0706905 0
0.197805 0.0994019 0
0.121665 0.125809 0
0.0684307 0.148919 0
0.0314283 0.168439 0
0.00558046 0.184428 0
-0.0127732 0.197082 0
-0.0261531 0.206624 0
-0.0364224 0.213438 0
-0.0447959 0.217844 0
-0.0520301 0.220121 0
-0.0585721 0.220508 0
-0.0646632 0.219216 0
-0.0704114 0.216433 0
-0.0758406 0.21233 0
-0.0809249 0.207067 0
-0.085612 0.200794 0
-0.0898385 0.193655 0
-0.0935415 0.185786 0
-0.096665 0.17732 0
-0.0991645 0.168381 0
-0.101009 0.15909 0
-0.102183 0.149557 0
-0.102684 0.139886 0
-0.102523 0.130171 0
-0.101723 0.120497 0
-0.100315 0.110938 0
-0.0983375 0.101561 0
-0.0958332 0.0924197 0
-0.0928469 0.0835615 0
-0.0894231 0.0750244 0
-0.0856046 0.066839 0
-0.0814311 0.0590298 0
-0.0769373 0.0516162 0
-0.0721532 0.0446138 0
-0.0671026 0.0380358 0
-0.0618042 0.0318947 0
-0.0562707 0.0262032 0
-0.0505102 0.0209766 0
-0.0445267 0.0162337 0
-0.0383208 0.0119993 0
-0.0318906 0.00830632 0
-0.0252325 0.00519878 0
-0.0183412 0.00272546 0
-0.0112097 0.000955798 0
-0.00382728 0.000129118 0
0.882978 0.00180126 0
0.662489 0.0141316 0
0.477462 0.0376049 0
0.332835 0.0644438 0
0.224721 0.091563 0
0.14606 0.11694 0
0.0896223 0.139519 0
0.0492379 0.158902 0
0.0200902 0.175042 0
-0.00138368 0.18808 0
-0.0176446 0.198163 0
-0.0304785 0.205547 0
-0.0411329 0.210527 0
-0.0504003 0.213351 0
-0.0587566 0.214242 0
-0.0664658 0.213401 0
-0.0736527 0.211012 0
-0.0803538 0.207246 0
-0.0865524 0.202266 0
-0.0922031 0.196229 0
-0.0972487 0.189285 0
-0.101632 0.181581 0
-0.105302 0.173256 0
-0.108222 0.164445 0
-0.110368 0.155274 0
-0.111732 0.145861 0
-0.112321 0.136316 0
-0.112158 0.126737 0
-0.111273 0.117212 0
-0.109711 0.107818 0
-0.107518 0.0986208 0
-0.104748 0.0896747 0
-0.101454 0.0810249 0
-0.0976895 0.0727069 0
-0.0935044 0.0647485 0
-0.088944 0.0571704 0
-0.0840478 0.049988 0
-0.0788486 0.043213 0
-0.0733721 0.0368546 0
-0.0676367 0.0309213 0
-0.0616537 0.0254225 0
-0.0554278 0.0203703 0
-0.0489578 0.0157816 0
-0.042237 0.0116792 0
-0.0352541 0.00809523 0
-0.0279934 0.00507356 0
-0.0204348 0.00266356 0
-0.0125539 0.000935571 0
-0.00431899 0.000126759 0
0.88991 0.00158179 0
0.680248 0.0126562 0
0.50138 0.0340665 0
0.358933 0.0589809 0
0.25032 0.0845631 0
0.16962 0.108858 0
0.110393 0.130775 0
0.066951 0.149841 0
0.0347471 0.165929 0
0.0103553 0.179099 0
-0.00869192 0.189504 0
-0.0240575 0.197267 0
-0.0369927 0.202647 0
-0.0483156 0.205868 0
-0.0585229 0.207135 0
-0.0678948 0.206636 0
-0.0765679 0.20455 0
-0.0845874 0.201049 0
-0.0919427 0.196296 0
-0.0985936 0.190454 0
-0.104487 0.183679 0
-0.109572 0.176124 0
-0.113802 0.167938 0
-0.117148 0.159261 0
-0.119594 0.150226 0
-0.121142 0.140959 0
-0.121809 0.131573 0
-0.121628 0.122171 0
-0.120642 0.112842 0
-0.118907 0.103664 0
-0.116482 0.094702 0
-0.11343 0.0860103 0
-0.109815 0.0776309 0
-0.1057 0.0695965 0
-0.101141 0.0619308 0
-0.0961917 0.0546506 0
-0.0908948 0.0477667 0
-0.0852867 0.0412862 0
-0.0793944 0.0352137 0
-0.0732363 0.0295534 0
-0.0668215 0.0243106 0
-0.060151 0.019494 0
-0.0532176 0.0151169 0
-0.0460069 0.0111999 0
-0.0384973 0.00777302 0
-0.0306607 0.00487861 0
-0.0224617 0.00256531 0
-0.0138579 0.000902878 0
-0.00479711 0.000122849 0
0.89613 0.00139973 0
0.696383 0.0113965 0
0.523434 0.0309859 0
0.383356 0.0541323 0
0.274613 0.0782337 0
0.192271 0.101414 0
0.130607 0.122573 0
0.0843938 0.141182 0
0.0493499 0.157051 0
0.0221927 0.170178 0
0.000516701 0.180674 0
-0.0173324 0.18865 0
-0.0325307 0.194269 0
-0.0459129 0.197744 0
-0.0579896 0.19926 0
-0.0690509 0.198994 0
-0.0792406 0.19712 0
-0.0886086 0.193806 0
-0.097148 0.189219 0
-0.104821 0.183525 0
-0.111579 0.176886 0
-0.117374 0.169461 0
-0.122167 0.161404 0
-0.125935 0.152865 0
-0.12867 0.143981 0
-0.130386 0.134883 0
-0.131111 0.125688 0
-0.13089 0.116501 0
-0.129782 0.107412 0
-0.127851 0.0985007 0
-0.125172 0.0898299 0
-0.121819 0.081451 0
-0.117868 0.0734034 0
-0.11339 0.0657158 0
-0.108451 0.0584076 0
-0.103108 0.0514906 0
-0.0974123 0.0449708 0
-0.0914016 0.0388501 0
-0.0851049 0.033128 0
-0.0785397 0.027804 0
-0.071713 0.0228787 0
-0.0646214 0.0183564 0
-0.0572516 0.0142467 0
-0.0495806 0.0105667 0
-0.0415764 0.00734327 0
-0.0331977 0.00461608 0
-0.0243937 0.00243176 0
-0.0151039 0.00085803 0
-0.00525537 0.000117404 0
0.901737 0.00124348 0
0.711091 0.0102968 0
0.5438 0.0282542 0
0.406202 0.0497604 0
0.297615 0.0724303 0
0.213958 0.0944751 0
0.150162 0.114798 0
0.101429 0.132833 0
0.0637441 0.14834 0
0.0339728 0.161272 0
0.00978703 0.171687 0
-0.0104663 0.179705 0
-0.0278946 0.185412 0
-0.0433249 0.189004 0
-0.0572737 0.190645 0
-0.0700355 0.190504 0
-0.0817567 0.188747 0
-0.0924884 0.185542 0
-0.102224 0.181057 0
-0.110928 0.175461 0
-0.118553 0.168922 0
-0.125055 0.161604 0
-0.1304 0.153669 0
-0.134573 0.145269 0
-0.137577 0.13655 0
-0.139436 0.127645 0
-0.140192 0.118673 0
-0.139904 0.109741 0
-0.138643 0.10094 0
-0.13649 0.0923467 0
-0.133532 0.0840226 0
-0.129857 0.0760159 0
-0.125551 0.0683617 0
-0.120696 0.0610842 0
-0.115367 0.0541977 0
-0.109629 0.0477086 0
-0.103535 0.0416173 0
-0.0971294 0.0359203 0
-0.0904404 0.0306116 0
-0.0834855 0.0256852 0
-0.0762689 0.0211368 0
-0.0687828 0.0169658 0
-0.061007 0.0131773 0
-0.0529101 0.00978403 0
-0.0444489 0.00680886 0
-0.0355689 0.00428759 0
-0.0262036 0.00226358 0
-0.0162745 0.000801148 0
-0.00568756 0.000110399 0
0.9068 0.00110502 0
0.724521 0.00931478 0
0.562613 0.0257853 0
0.427551 0.0457514 0
0.319339 0.0670281 0