# vtk DataFile Version 3.0
Malha 2D com triângulos e temperatura
ASCII
DATASET UNSTRUCTURED_GRID

POINTS 2500 double
0 0 0
1 0 0
1 1 0
0 1 0
0.0204082 0 0
0.0408163 0 0
0.0612245 0 0
0.0816327 0 0
0.102041 0 0
0.122449 0 0
0.142857 0 0
0.163265 0 0
0.183673 0 0
0.204082 0 0
0.22449 0 0
0.244898 0 0
0.265306 0 0
0.285714 0 0
0.306122 0 0
0.326531 0 0
0.346939 0 0
0.367347 0 0
0.387755 0 0
0.408163 0 0
0.428571 0 0
0.44898 0 0
0.469388 0 0
0.489796 0 0
0.510204 0 0
0.530612 0 0
0.55102 0 0
0.571429 0 0
0.591837 0 0
0.612245 0 0
0.632653 0 0
0.653061 0 0
0.673469 0 0
0.693878 0 0
0.714286 0 0
0.734694 0 0
0.755102 0 0
0.77551 0 0
0.795918 0 0
0.816327 0 0
0.836735 0 0
0.857143 0 0
0.877551 0 0
0.897959 0 0
0.918367 0 0
0.938776 0 0
0.959184 0 0
0.979592 0 0
1 0.0204082 0
1 0.0408163 0
1 0.0612245 0
1 0.0816327 0
1 0.102041 0
1 0.122449 0
1 0.142857 0
1 0.163265 0
1 0.183673 0
1 0.204082 0
1 0.22449 0
1 0.244898 0
1 0.265306 0
1 0.285714 0
1 0.306122 0
1 0.326531 0
1 0.346939 0
1 0.367347 0
1 0.387755 0
1 0.408163 0
1 0.428571 0
1 0.44898 0
1 0.469388 0
1 0.489796 0
1 0.510204 0
1 0.530612 0
1 0.55102 0
1 0.571429 0
1 0.591837 0
1 0.612245 0
1 0.632653 0
1 0.653061 0
1 0.673469 0
1 0.693878 0
1 0.714286 0
1 0.734694 0
1 0.755102 0
1 0.77551 0
1 0.795918 0
1 0.816327 0
1 0.836735 0
1 0.857143 0
1 0.877551 0
1 0.897959 0
1 0.918367 0
1 0.938776 0
1 0.959184 0
1 0.979592 0
0.979592 1 0
0.959184 1 0
0.938776 1 0
0.918367 1 0
0.897959 1 0
0.877551 1 0
0.857143 1 0
0.836735 1 0
0.816327 1 0
0.795918 1 0
0.77551 1 0
0.755102 1 0
0.734694 1 0
0.714286 1 0
0.693878 1 0
0.673469 1 0
0.653061 1 0
0.632653 1 0
0.612245 1 0
0.591837 1 0
0.571429 1 0
0.55102 1 0
0.530612 1 0
0.510204 1 0
0.489796 1 0
0.469388 1 0
0.44898 1 0
0.428571 1 0
0.408163 1 0
0.387755 1 0
0.367347 1 0
0.346939 1 0
0.326531 1 0
0.306122 1 0
0.285714 1 0
0.265306 1 0
0.244898 1 0
0.22449 1 0
0.204082 1 0
0.183673 1 0
0.163265 1 0
0.142857 1 0
0.122449 1 0
0.102041 1 0
0.0816327 1 0
0.0612245 1 0
0.0408163 1 0
0.0204082 1 0
0 0.979592 0
0 0.959184 0
0 0.938776 0
0 0.918367 0
0 0.897959 0
0 0.877551 0
0 0.857143 0
0 0.836735 0
0 0.816327 0
0 0.795918 0
0 0.77551 0
0 0.755102 0
0 0.734694 0
0 0.714286 0
0 0.693878 0
0 0.673469 0
0 0.653061 0
0 0.632653 0
0 0.612245 0
0 0.591837 0
0 0.571429 0
0 0.55102 0
0 0.530612 0
0 0.510204 0
0 0.489796 0
0 0.469388 0
0 0.44898 0
0 0.428571 0
0 0.408163 0
0 0.387755 0
0 0.367347 0
0 0.346939 0
0 0.326531 0
0 0.306122 0
0 0.285714 0
0 0.265306 0
0 0.244898 0
0 0.22449 0
0 0.204082 0
0 0.183673 0
0 0.163265 0
0 0.142857 0
0 0.122449 0
0 0.102041 0
0 0.0816327 0
0 0.0612245 0
0 0.0408163 0
0 0.0204082 0
0.0204082 0.979592 0
0.0204082 0.959184 0
0.0204082 0.938776 0
0.0204082 0.918367 0
0.0204082 0.897959 0
0.0204082 0.877551 0
0.0204082 0.857143 0
0.0204082 0.836735 0
0.0204082 0.816327 0
0.0204082 0.795918 0
0.0204082 0.77551 0
0.0204082 0.755102 0
0.0204082 0.734694 0
0.0204082 0.714286 0
0.0204082 0.693878 0
0.0204082 0.673469 0
0.0204082 0.653061 0
0.0204082 0.632653 0
0.0204082 0.612245 0
0.0204082 0.591837 0
0.0204082 0.571429 0
0.0204082 0.55102 0
0.0204082 0.530612 0
0.0204082 0.510204 0
0.0204082 0.489796 0
0.0204082 0.469388 0
0.0204082 0.44898 0
0.0204082 0.428571 0
0.0204082 0.408163 0
0.0204082 0.387755 0
0.0204082 0.367347 0
0.0204082 0.346939 0
0.0204082 0.326531 0
0.0204082 0.306122 0
0.0204082 0.285714 0
0.0204082 0.265306 0
0.0204082 0.244898 0
0.0204082 0.22449 0
0.0204082 0.204082 0
0.0204082 0.183673 0
0.0204082 0.163265 0
0.0204082 0.142857 0
0.0204082 0.122449 0
0.0204082 0.102041 0
0.0204082 0.0816327 0
0.0204082 0.0612245 0
0.0204082 0.0408163 0
0.0204082 0.0204082 0
0.0408163 0.979592 0
0.0408163 0.959184 0
0.0408163 0.938776 0
0.0408163 0.918367 0
0.0408163 0.897959 0
0.0408163 0.877551 0
0.0408163 0.857143 0
0.0408163 0.836735 0
0.0408163 0.816327 0
0.0408163 0.795918 0
0.0408163 0.77551 0
0.0408163 0.755102 0
0.0408163 0.734694 0
0.0408163 0.714286 0
0.0408163 0.693878 0
0.0408163 0.673469 0
0.0408163 0.653061 0
0.0408163 0.632653 0
0.0408163 0.612245 0
0.0408163 0.591837 0
0.0408163 0.571429 0
0.0408163 0.55102 0
0.0408163 0.530612 0
0.0408163 0.510204 0
0.0408163 0.489796 0
0.0408163 0.469388 0
0.0408163 0.44898 0
0.0408163 0.428571 0
0.0408163 0.408163 0
0.0408163 0.387755 0
0.0408163 0.367347 0
0.0408163 0.346939 0
0.0408163 0.326531 0
0.0408163 0.306122 0
0.0408163 0.285714 0
0.0408163 0.265306 0
0.0408163 0.244898 0
0.0408163 0.22449 0
0.0408163 0.204082 0
0.0408163 0.183673 0
0.0408163 0.163265 0
0.0408163 0.142857 0
0.0408163 0.122449 0
0.0408163 0.102041 0
0.0408163 0.0816327 0
0.0408163 0.0612245 0
0.0408163 0.0408163 0
0.0408163 0.0204082 0
0.0612245 0.979592 0
0.0612245 0.959184 0
0.0612245 0.938776 0
0.0612245 0.918367 0
0.0612245 0.897959 0
0.0612245 0.877551 0
0.0612245 0.857143 0
0.0612245 0.836735 0
0.0612245 0.816327 0
0.0612245 0.795918 0
0.0612245 0.77551 0
0.0612245 0.755102 0
0.0612245 0.734694 0
0.0612245 0.714286 0
0.0612245 0.693878 0
0.0612245 0.673469 0
0.0612245 0.653061 0
0.0612245 0.632653 0
0.0612245 0.612245 0
0.0612245 0.591837 0
0.0612245 0.571429 0
0.0612245 0.55102 0
0.0612245 0.530612 0
0.0612245 0.510204 0
0.0612245 0.489796 0
0.0612245 0.469388 0
0.0612245 0.44898 0
0.0612245 0.428571 0
0.0612245 0.408163 0
0.0612245 0.387755 0
0.0612245 0.367347 0
0.0612245 0.346939 0
0.0612245 0.326531 0
0.0612245 0.306122 0
0.0612245 0.285714 0
0.0612245 0.265306 0
0.0612245 0.244898 0
0.0612245 0.22449 0
0.0612245 0.204082 0
0.0612245 0.183673 0
0.0612245 0.163265 0
0.0612245 0.142857 0
0.0612245 0.122449 0
0.0612245 0.102041 0
0.0612245 0.0816327 0
0.0612245 0.0612245 0
0.0612245 0.0408163 0
0.0612245 0.0204082 0
0.0816327 0.979592 0
0.0816327 0.959184 0
0.0816327 0.938776 0
0.0816327 0.918367 0
0.0816327 0.897959 0
0.0816327 0.877551 0
0.0816327 0.857143 0
0.0816327 0.836735 0
0.0816327 0.816327 0
0.0816327 0.795918 0
0.0816327 0.77551 0
0.0816327 0.755102 0
0.0816327 0.734694 0
0.0816327 0.714286 0
0.0816327 0.693878 0
0.0816327 0.673469 0
0.0816327 0.653061 0
0.0816327 0.632653 0
0.0816327 0.612245 0
0.0816327 0.591837 0
0.0816327 0.571429 0
0.0816327 0.55102 0
0.0816327 0.530612 0
0.0816327 0.510204 0
0.0816327 0.489796 0
0.0816327 0.469388 0
0.0816327 0.44898 0
0.0816327 0.428571 0
0.0816327 0.408163 0
0.0816327 0.387755 0
0.0816327 0.367347 0
0.0816327 0.346939 0
0.0816327 0.326531 0
0.0816327 0.306122 0
0.0816327 0.285714 0
0.0816327 0.265306 0
0.0816327 0.244898 0
0.0816327 0.22449 0
0.0816327 0.204082 0
0.0816327 0.183673 0
0.0816327 0.163265 0
0.0816327 0.142857 0
0.0816327 0.122449 0
0.0816327 0.102041 0
0.0816327 0.0816327 0
0.0816327 0.0612245 0
0.0816327 0.0408163 0
0.0816327 0.0204082 0
0.102041 0.979592 0
0.102041 0.959184 0
0.102041 0.938776 0
0.102041 0.918367 0
0.102041 0.897959 0
0.102041 0.877551 0
0.102041 0.857143 0
0.102041 0.836735 0
0.102041 0.816327 0
0.102041 0.795918 0
0.102041 0.77551 0
0.102041 0.755102 0
0.102041 0.734694 0
0.102041 0.714286 0
0.102041 0.693878 0
0.102041 0.673469 0
0.102041 0.653061 0
0.102041 0.632653 0
0.102041 0.612245 0
0.102041 0.591837 0
0.102041 0.571429 0
0.102041 0.55102 0
0.102041 0.530612 0
0.102041 0.510204 0
0.102041 0.489796 0
0.102041 0.469388 0
0.102041 0.44898 0
0.102041 0.428571 0
0.102041 0.408163 0
0.102041 0.387755 0
0.102041 0.367347 0
0.102041 0.346939 0
0.102041 0.326531 0
0.102041 0.306122 0
0.102041 0.285714 0
0.102041 0.265306 0
0.102041 0.244898 0
0.102041 0.22449 0
0.102041 0.204082 0
0.102041 0.183673 0
0.102041 0.163265 0
0.102041 0.142857 0
0.102041 0.122449 0
0.102041 0.102041 0
0.102041 0.0816327 0
0.102041 0.0612245 0
0.102041 0.0408163 0
0.102041 0.0204082 0
0.122449 0.979592 0
0.122449 0.959184 0
0.122449 0.938776 0
0.122449 0.918367 0
0.122449 0.897959 0
0.122449 0.877551 0
0.122449 0.857143 0
0.122449 0.836735 0
0.122449 0.816327 0
0.122449 0.795918 0
0.122449 0.77551 0
0.122449 0.755102 0
0.122449 0.734694 0
0.122449 0.714286 0
0.122449 0.693878 0
0.122449 0.673469 0
0.122449 0.653061 0
0.122449 0.632653 0
0.122449 0.612245 0
0.122449 0.591837 0
0.122449 0.571429 0
0.122449 0.55102 0
0.122449 0.530612 0
0.122449 0.510204 0
0.122449 0.489796 0
0.122449 0.469388 0
0.122449 0.44898 0
0.122449 0.428571 0
0.122449 0.408163 0
0.122449 0.387755 0
0.122449 0.367347 0
0.122449 0.346939 0
0.122449 0.326531 0
0.122449 0.306122 0
0.122449 0.285714 0
0.122449 0.265306 0
0.122449 0.244898 0
0.122449 0.22449 0
0.122449 0.204082 0
0.122449 0.183673 0
0.122449 0.163265 0
0.122449 0.142857 0
0.122449 0.122449 0
0.122449 0.102041 0
0.122449 0.0816327 0
0.122449 0.0612245 0
0.122449 0.0408163 0
0.122449 0.0204082 0
0.142857 0.979592 0
0.142857 0.959184 0
0.142857 0.938776 0
0.142857 0.918367 0
0.142857 0.897959 0
0.142857 0.877551 0
0.142857 0.857143 0
0.142857 0.836735 0
0.142857 0.816327 0
0.142857 0.795918 0
0.142857 0.77551 0
0.142857 0.755102 0
0.142857 0.734694 0
0.142857 0.714286 0
0.142857 0.693878 0
0.142857 0.673469 0
0.142857 0.653061 0
0.142857 0.632653 0
0.142857 0.612245 0
0.142857 0.591837 0
0.142857 0.571429 0
0.142857 0.55102 0
0.142857 0.530612 0
0.142857 0.510204 0
0.142857 0.489796 0
0.142857 0.469388 0
0.142857 0.44898 0
0.142857 0.428571 0
0.142857 0.408163 0
0.142857 0.387755 0
0.142857 0.367347 0
0.142857 0.346939 0
0.142857 0.326531 0
0.142857 0.306122 0
0.142857 0.285714 0
0.142857 0.265306 0
0.142857 0.244898 0
0.142857 0.22449 0
0.142857 0.204082 0
0.142857 0.183673 0
0.142857 0.163265 0
0.142857 0.142857 0
0.142857 0.122449 0
0.142857 0.102041 0
0.142857 0.0816327 0
0.142857 0.0612245 0
0.142857 0.0408163 0
0.142857 0.0204082 0
0.163265 0.979592 0
0.163265 0.959184 0
0.163265 0.938776 0
0.163265 0.918367 0
0.163265 0.897959 0
0.163265 0.877551 0
0.163265 0.857143 0
0.163265 0.836735 0
0.163265 0.816327 0
0.163265 0.795918 0
0.163265 0.77551 0
0.163265 0.755102 0
0.163265 0.734694 0
0.163265 0.714286 0
0.163265 0.693878 0
0.163265 0.673469 0
0.163265 0.653061 0
0.163265 0.632653 0
0.163265 0.612245 0
0.163265 0.591837 0
0.163265 0.571429 0
0.163265 0.55102 0
[...]
CELL_DATA 2401
VECTORS velocity double
0.257357 0.157466 0.0
-0.00268055 0.26463 0.0
-0.0322697 0.205597 0.0
-0.0253451 0.150816 0.0
-0.0160353 0.113349 0.0
-0.00969626 0.0880101 0.0
-0.00594047 0.0708995 0.0
-0.00377219 0.0591156 0.0
-0.00250144 0.0507601 0.0
-0.00173228 0.0446583 0.0
-0.00124932 0.040074 0.0
-0.000935939 0.0365323 0.0
-0.000727435 0.0337177 0.0
-0.000586497 0.0314145 0.0
-0.000490583 0.0294719 0.0
-0.000425436 0.0277825 0.0
-0.000381655 0.0262694 0.0
-0.000352815 0.0248771 0.0
-0.000334389 0.0235658 0.0
-0.000323112 0.0223074 0.0
-0.000316582 0.0210824 0.0
-0.00031301 0.0198781 0.0
-0.000311058 0.0186868 0.0
-0.000309728 0.0175046 0.0
-0.000308283 0.0163305 0.0
-0.000306193 0.0151659 0.0
-0.000303097 0.0140133 0.0
-0.000298764 0.0128765 0.0
-0.000293069 0.0117598 0.0
-0.000285971 0.0106681 0.0
-0.000277488 0.0096061 0.0
-0.00026768 0.00857846 0.0
-0.000256634 0.00758972 0.0
-0.000244448 0.00664407 0.0
-0.000231219 0.00574544 0.0
-0.000217029 0.00489747 0.0
-0.000201937 0.00410355 0.0
-0.000185969 0.00336691 0.0
-0.000169107 0.00269073 0.0
-0.000151281 0.00207824 0.0
-0.000132359 0.00153285 0.0
-0.000112136 0.00105825 0.0
-9.0342e-05 0.000658534 0.0
-6.66738e-05 0.000338131 0.0
-4.09393e-05 0.000101544 0.0
-1.34881e-05 -4.75312e-05 0.0
1.36527e-05 -0.000108288 0.0
3.44196e-05 -9.04441e-05 0.0
3.22124e-05 -3.2063e-05 0.0
0.340647 0.122983 0.0
-0.00052367 0.249547 0.0
-0.0650896 0.271916 0.0
-0.0631383 0.252599 0.0
-0.0484704 0.222167 0.0
-0.0350027 0.192286 0.0
-0.0250425 0.166746 0.0
-0.0180961 0.146053 0.0
-0.0133128 0.129606 0.0
-0.0100044 0.116571 0.0
-0.00769375 0.106168 0.0
-0.00606479 0.0977563 0.0
-0.00490921 0.0908297 0.0
-0.00408767 0.0850014 0.0
-0.00350501 0.0799771 0.0
-0.00309472 0.0755348 0.0
-0.00280933 0.0715079 0.0
-0.00261427 0.0677722 0.0
-0.00248393 0.0642366 0.0
-0.0023991 0.0608352 0.0
-0.00234519 0.0575219 0.0
-0.00231107 0.0542659 0.0
-0.00228826 0.0510484 0.0
-0.0022703 0.0478598 0.0
-0.00225237 0.0446976 0.0
-0.00223094 0.0415646 0.0
-0.00220354 0.0384672 0.0
-0.00216854 0.0354146 0.0
-0.00212498 0.0324175 0.0
-0.00207245 0.0294878 0.0
-0.00201092 0.0266374 0.0
-0.00194063 0.0238783 0.0
-0.00186204 0.0212219 0.0
-0.00177566 0.0186792 0.0
-0.00168203 0.0162603 0.0
-0.00158164 0.0139748 0.0
-0.00147485 0.0118318 0.0
-0.00136188 0.00983981 0.0
-0.00124276 0.00800716 0.0
-0.00111731 0.00634215 0.0
-0.00098517 0.00485316 0.0
-0.000845838 0.00354876 0.0
-0.000698844 0.00243756 0.0
-0.00054412 0.00152778 0.0
-0.000382831 0.000826012 0.0
-0.000219216 0.000334979 0.0
-6.44311e-05 4.89926e-05 0.0
5.69583e-05 -5.55887e-05 0.0
9.00132e-05 -3.35059e-05 0.0
0.500995 0.076832 0.0
0.0993563 0.183384 0.0
-0.039062 0.249557 0.0
-0.0732148 0.266157 0.0
-0.0718416 0.257876 0.0
-0.0607427 0.239995 0.0
-0.0486998 0.219768 0.0
-0.0383201 0.200485 0.0
-0.0300756 0.183374 0.0
-0.0237575 0.168664 0.0
-0.0190003 0.156167 0.0
-0.0154548 0.145542 0.0
-0.0128325 0.136429 0.0
-0.0109082 0.128498 0.0
-0.00950935 0.12147 0.0
-0.00850472 0.115114 0.0
-0.00779422 0.109249 0.0
-0.00730125 0.103733 0.0
-0.0069668 0.0984604 0.0
-0.00674519 0.0933515 0.0
-0.00660092 0.0883511 0.0
-0.00650641 0.0834221 0.0
-0.00644028 0.0785425 0.0
-0.00638613 0.073702 0.0
-0.00633155 0.0688992 0.0
-0.00626742 0.0641398 0.0
-0.00618727 0.0594342 0.0
-0.00608679 0.0547965 0.0
-0.00596343 0.050243 0.0
-0.00581599 0.0457909 0.0
-0.00564431 0.0414582 0.0
-0.00544896 0.0372622 0.0
-0.005231 0.0332201 0.0
-0.00499174 0.0293479 0.0
-0.00473254 0.0256607 0.0
-0.00445465 0.0221728 0.0
-0.00415908 0.0188976 0.0
-0.00384649 0.0158477 0.0
-0.00351718 0.0130352 0.0
-0.00317105 0.0104722 0.0
-0.00280774 0.00817014 0.0
-0.00242688 0.00614057 0.0
-0.0020286 0.00439428 0.0
-0.00161454 0.00294069 0.0
-0.00118977 0.00178626 0.0
-0.000766375 0.00093186 0.0
-0.000369855 0.000367462 0.0
-4.81811e-05 6.57737e-05 0.0
0.000105876 -1.20269e-05 0.0
0.610233 0.0480731 0.0
0.196047 0.134112 0.0
0.0117618 0.209699 0.0
-0.0578241 0.24677 0.0
-0.0761211 0.257246 0.0
-0.0740931 0.253618 0.0
-0.0651445 0.243059 0.0
-0.0548519 0.229826 0.0
-0.0453682 0.216191 0.0
-0.0373726 0.203231 0.0
-0.0309347 0.191361 0.0
-0.0258948 0.180652 0.0
-0.0220281 0.17101 0.0
-0.0191112 0.162272 0.0
-0.0169463 0.154264 0.0
-0.0153673 0.146818 0.0
-0.0142381 0.139792 0.0
-0.0134485 0.133066 0.0
-0.01291 0.126548 0.0
-0.0125518 0.120169 0.0
-0.0123174 0.113879 0.0
-0.012162 0.107646 0.0
-0.0120505 0.101454 0.0
-0.0119556 0.0952964 0.0
-0.0118563 0.089177 0.0
-0.0117373 0.0831064 0.0
-0.0115876 0.0771002 0.0
-0.0113999 0.0711776 0.0
-0.0111699 0.0653599 0.0
-0.0108956 0.0596695 0.0
-0.0105767 0.0541291 0.0
-0.0102145 0.0487608 0.0
-0.00981068 0.0435858 0.0
-0.00936769 0.0386244 0.0
-0.00888798 0.0338955 0.0
-0.00837381 0.0294167 0.0
-0.00782711 0.0252046 0.0
-0.00724927 0.0212747 0.0
-0.00664112 0.0176419 0.0
-0.00600301 0.0143205 0.0
-0.005335 0.0113239 0.0
-0.00463744 0.0086651 0.0
-0.00391183 0.00635594 0.0
-0.00316247 0.00440611 0.0
-0.00239926 0.00282188 0.0
-0.00164244 0.00160392 0.0
-0.000930374 0.000742082 0.0
-0.000329258 0.000213856 0.0
4.38992e-05 1.48563e-05 0.0
0.680692 0.0301774 0.0
0.278906 0.098285 0.0
0.0700227 0.171145 0.0
-0.0273251 0.217616 0.0
-0.0654796 0.240919 0.0
-0.0753472 0.249114 0.0
-0.0727179 0.248119 0.0
-0.0653006 0.242048 0.0
-0.0567285 0.233493 0.0
-0.0486175 0.223969 0.0
-0.0415948 0.214299 0.0
-0.0358148 0.204888 0.0
-0.0312179 0.195894 0.0
-0.0276587 0.187339 0.0
-0.0249682 0.179178 0.0
-0.0229818 0.171338 0.0
-0.0215518 0.163742 0.0
-0.0205505 0.156317 0.0
-0.01987 0.149002 0.0
-0.019421 0.141754 0.0
-0.0191301 0.13454 0.0
-0.018938 0.127343 0.0
-0.0187972 0.120158 0.0
-0.0186704 0.112987 0.0
-0.0185291 0.105843 0.0
-0.0183518 0.0987428 0.0
-0.0181237 0.0917096 0.0
-0.0178346 0.0847679 0.0
-0.0174789 0.0779443 0.0
-0.017054 0.0712661 0.0
-0.0165601 0.0647601 0.0
-0.015999 0.0584524 0.0
-0.0153739 0.0523678 0.0
-0.0146883 0.0465295 0.0
-0.0139462 0.0409593 0.0
-0.0131511 0.0356773 0.0
-0.0123062 0.0307022 0.0
-0.0114139 0.0260515 0.0
-0.0104758 0.0217416 0.0
-0.00949308 0.0177881 0.0
-0.00846659 0.0142055 0.0
-0.00739782 0.0110075 0.0
-0.00629003 0.00820645 0.0
-0.00515044 0.00581235 0.0
-0.00399344 0.00383222 0.0
-0.00284593 0.00226879 0.0
-0.00175523 0.00111557 0.0
-0.000798071 0.0003603 0.0
-0.000100932 4.03643e-05 0.0
0.730128 0.019191 0.0
0.34947 0.0730776 0.0
0.128297 0.139308 0.0
0.0112545 0.188144 0.0
-0.0447833 0.219236 0.0
-0.0670757 0.235954 0.0
-0.0723076 0.242843 0.0
-0.0695152 0.243386 0.0
-0.0634568 0.240058 0.0
-0.0565623 0.234495 0.0
-0.0500054 0.22772 0.0
-0.0442892 0.220344 0.0
-0.0395672 0.212712 0.0
-0.0358176 0.204997 0.0
-0.032938 0.197277 0.0
-0.0307957 0.189573 0.0
-0.0292536 0.181877 0.0
-0.0281829 0.174172 0.0
-0.0274683 0.166439 0.0
-0.0270102 0.158665 0.0
-0.0267245 0.150845 0.0
-0.0265414 0.142979 0.0
-0.0264041 0.135078 0.0
-0.0262677 0.127159 0.0
-0.0260975 0.119244 0.0
-0.0258677 0.111361 0.0
-0.02556 0.103538 0.0
-0.0251626 0.0958074 0.0
-0.0246692 0.0882014 0.0
-0.0240774 0.0807519 0.0
-0.0233881 0.0734899 0.0
-0.0226045 0.0664449 0.0
-0.0217313 0.0596444 0.0
-0.020774 0.0531143 0.0
-0.0197381 0.0468781 0.0
-0.0186289 0.0409577 0.0
-0.017451 0.0353731 0.0
-0.0162081 0.0301428 0.0
-0.014903 0.025284 0.0
-0.0135377 0.0208128 0.0
-0.0121142 0.0167443 0.0
-0.0106353 0.0130925 0.0
-0.00910598 0.00986995 0.0
-0.0075358 0.00708776 0.0
-0.00594251 0.00475479 0.0
-0.00435713 0.00287774 0.0
-0.00283129 0.00145648 0.0
-0.00144469 0.000491625 0.0
-0.000321418 6.20779e-05 0.0
0.766134 0.0125759 0.0
0.408855 0.0556608 0.0
0.183148 0.114388 0.0
0.0525095 0.162247 0.0
-0.0179852 0.197051 0.0
-0.0518981 0.219422 0.0
-0.0654032 0.232219 0.0
-0.0681525 0.238218 0.0
-0.0656562 0.239573 0.0
-0.0609754 0.237839 0.0
-0.0557548 0.234086 0.0
-0.0508272 0.229021 0.0
-0.0465665 0.223098 0.0
-0.043093 0.216601 0.0
-0.0403919 0.209699 0.0
-0.0383817 0.202492 0.0
-0.0369527 0.195038 0.0
-0.0359882 0.187371 0.0
-0.0353764 0.179517 0.0
-0.0350156 0.171496 0.0
-0.0348169 0.163328 0.0
-0.034705 0.15504 0.0
-0.0346176 0.146657 0.0
-0.0345049 0.138213 0.0
-0.0343283 0.129742 0.0
-0.0340593 0.121282 0.0
-0.0336779 0.11287 0.0
-0.0331719 0.104546 0.0
-0.0325351 0.0963478 0.0
-0.0317663 0.0883114 0.0
-0.0308679 0.0804722 0.0
-0.0298452 0.0728626 0.0
-0.028705 0.0655129 0.0
-0.0274551 0.0584505 0.0
-0.0261032 0.0517004 0.0
-0.0246565 0.0452854 0.0
-0.0231215 0.0392261 0.0
-0.0215033 0.0335413 0.0
-0.019806 0.0282484 0.0
-0.0180329 0.0233634 0.0
-0.0161871 0.0189016 0.0
-0.0142722 0.014877 0.0
-0.0122946 0.011303 0.0
-0.0102654 0.00819188 0.0
-0.0082038 0.00555545 0.0
-0.00614207 0.00340564 0.0
-0.0041316 0.00175004 0.0
-0.0022487 0.000602635 0.0
-0.000606636 7.95351e-05 0.0
0.793128 0.00857783 0.0
0.458793 0.0435141 0.0
0.233407 0.0950939 0.0
0.0938166 0.140467 0.0
0.0123639 0.17627 0.0
-0.0320024 0.202179 0.0
-0.0535754 0.219171 0.0
-0.0622089 0.229411 0.0
-0.0638676 0.234668 0.0
-0.0620697 0.236326 0.0
-0.0588359 0.235405 0.0
-0.0552834 0.232635 0.0
-0.0519907 0.22852 0.0
-0.0492192 0.223404 0.0
-0.0470485 0.217522 0.0
-0.0454578 0.211032 0.0
-0.0443745 0.204046 0.0
-0.0437036 0.196643 0.0
-0.0433443 0.188886 0.0
-0.0431996 0.180828 0.0
-0.0431816 0.172517 0.0
-0.0432135 0.163999 0.0
-0.0432314 0.155323 0.0
-0.0431834 0.146535 0.0
-0.0430295 0.137685 0.0
-0.0427404 0.128819 0.0
-0.0422965 0.119985 0.0
-0.0416862 0.11123 0.0
-0.040905 0.102597 0.0
-0.0399538 0.0941285 0.0
-0.0388376 0.0858629 0.0
-0.0375645 0.0778355 0.0
-0.0361441 0.0700784 0.0
-0.0345871 0.0626206 0.0
-0.0329037 0.0554879 0.0
-0.0311037 0.0487033 0.0
-0.0291955 0.0422875 0.0
-0.0271861 0.0362591 0.0
-0.025081 0.030635 0.0
-0.0228846 0.025431 0.0
-0.0206008 0.0206619 0.0
-0.018234 0.0163419 0.0
-0.015791 0.0124852 0.0
-0.0132831 0.00910574 0.0
-0.0107292 0.00621878 0.0
-0.00815997 0.00384198 0.0
-0.00562259 0.00199099 0.0
-0.00318512 0.000692251 0.0
-0.000944701 9.30093e-05 0.0
0.814059 0.00611861 0.0
0.501096 0.0348953 0.0
0.278929 0.0801572 0.0
0.13374 0.122484 0.0
0.0438332 0.15796 0.0
-0.00917538 0.185574 0.0
-0.0382137 0.205408 0.0
-0.0526948 0.218789 0.0
-0.0587698 0.227143 0.0
-0.060256 0.231647 0.0
-0.0594566 0.233225 0.0
-0.0577204 0.232572 0.0
-0.0558026 0.230203 0.0
-0.054094 0.226489 0.0
-0.0527656 0.221701 0.0
-0.0518588 0.21604 0.0
-0.0513427 0.209653 0.0
-0.0511488 0.202656 0.0
-0.0511924 0.195145 0.0
-0.0513858 0.187201 0.0
-0.0516461 0.178896 0.0
-0.0518992 0.170298 0.0
-0.0520822 0.161473 0.0
-0.0521442 0.152485 0.0
-0.052046 0.143393 0.0
-0.0517597 0.134259 0.0
-0.0512676 0.125138 0.0
-0.0505605 0.116085 0.0
-0.0496369 0.107149 0.0
-0.048501 0.0983772 0.0
-0.0471616 0.0898114 0.0
-0.0456302 0.0814897 0.0
-0.0439204 0.0734459 0.0
-0.0420461 0.06571 0.0
-0.0400208 0.0583079 0.0
-0.0378572 0.0512628 0.0
-0.0355659 0.0445946 0.0
-0.033156 0.0383212 0.0
-0.0306343 0.0324587 0.0
-0.0280062 0.0270222 0.0
-0.0252762 0.0220259 0.0
-0.0224489 0.0174842 0.0
-0.0195306 0.0134116 0.0
-0.0165315 0.00982442 0.0
-0.0134681 0.00674109 0.0
-0.010367 0.00418498 0.0
-0.00726807 0.0021793 0.0
-0.00422779 0.000761329 0.0
-0.00132411 0.000102999 0.0
0.830808 0.00456611 0.0
0.537291 0.0286485 0.0
0.320025 0.0684914 0.0
0.171687 0.107652 0.0
0.0754232 0.142059 0.0
0.0154383 0.170159 0.0
-0.0204002 0.191812 0.0
-0.0404935 0.207448 0.0
-0.0510282 0.218185 0.0
-0.0560022 0.224996 0.0
-0.0579206 0.228689 0.0
-0.0583126 0.229902 0.0
-0.0580794 0.229129 0.0
-0.057724 0.226746 0.0
-0.0575 0.223042 0.0
-0.0575082 0.218238 0.0
-0.057759 0.212509 0.0
-0.0582119 0.205998 0.0
-0.0588009 0.198824 0.0
-0.0594504 0.191092 0.0
-0.0600853 0.182897 0.0
-0.0606368 0.174325 0.0
-0.0610455 0.165459 0.0
-0.0612639 0.156378 0.0
-0.0612556 0.147155 0.0
-0.0609962 0.13786 0.0
-0.0604714 0.12856 0.0
-0.0596762 0.119316 0.0
-0.0586136 0.110184 0.0
-0.0572923 0.101214 0.0
-0.0557258 0.0924538 0.0
-0.0539305 0.0839419 0.0
-0.0519243 0.0757141 0.0
-0.0497255 0.0678007 0.0
-0.0473513 0.0602277 0.0
-0.0448174 0.0530174 0.0
-0.0421374 0.046189 0.0
-0.0393222 0.039759 0.0
-0.0363801 0.0337425 0.0
-0.0333175 0.0281532 0.0
-0.0301388 0.0230046 0.0
-0.0268482 0.0183109 0.0
-0.0234505 0.0140873 0.0
-0.0199534 0.0103516 0.0
-0.0163694 0.0071256 0.0
-0.0127187 0.00443766 0.0
-0.00903181 0.0023176 0.0
-0.0053512 0.000811542 0.0
-0.0017343 0.000110028 0.0
0.844578 0.00355385 0.0
0.568586 0.0240186 0.0
0.357135 0.0592821 0.0
0.207393 0.0954022 0.0
0.106387 0.128372 0.0
0.0406048 0.156334 0.0
-0.000985153 0.178845 0.0
-0.0263326 0.196052 0.0
-0.0412345 0.208563 0.0
-0.0497633 0.21719 0.0
-0.054559 0.22262 0.0
-0.057286 0.225423 0.0
-0.0589622 0.226056 0.0
-0.060184 0.224884 0.0
-0.0612764 0.222195 0.0
-0.0623936 0.218223 0.0
-0.0635843 0.213158 0.0
-0.0648352 0.207161 0.0
-0.0660993 0.200369 0.0
-0.0673143 0.192907 0.0
-0.0684143 0.184887 0.0
-0.0693375 0.176412 0.0
-0.0700302 0.167581 0.0
-0.0704496 0.158486 0.0
-0.0705644 0.149212 0.0
-0.070355 0.13984 0.0
-0.0698126 0.130446 0.0
-0.0689377 0.121097 0.0
-0.0677391 0.111855 0.0
-0.0662316 0.102776 0.0
-0.0644347 0.0939089 0.0
-0.0623704 0.0852952 0.0
-0.0600621 0.0769714 0.0
-0.0575329 0.0689679 0.0
-0.0548045 0.0613101 0.0
-0.0518962 0.0540193 0.0
-0.0488246 0.0471131 0.0
-0.0456027 0.0406066 0.0
-0.0422403 0.034513 0.0
-0.0387441 0.0288448 0.0
-0.0351185 0.0236142 0.0
-0.0313662 0.0188348 0.0
-0.0274897 0.0145223 0.0
-0.0234929 0.0106955 0.0
-0.0193829 0.00737906 0.0
-0.0151718 0.00460537 0.0
-0.0108789 0.0024096 0.0
-0.00653146 0.000844781 0.0
-0.00216586 0.000114566 0.0
0.856161 0.0028683 0.0
0.595931 0.0205053 0.0
0.390733 0.0519123 0.0
0.240841 0.0852084 0.0
0.136386 0.116571 0.0
0.0658642 0.143992 0.0
0.0193364 0.166774 0.0
-0.0108129 0.184962 0.0
-0.0298981 0.198759 0.0
-0.0419537 0.208777 0.0
-0.0496947 0.215597 0.0
-0.0548817 0.219717 0.0
-0.0586222 0.221551 0.0
-0.0615876 0.221442 0.0
-0.0641627 0.21967 0.0
-0.066547 0.216468 0.0
-0.0688231 0.212036 0.0
-0.0710024 0.206544 0.0
-0.0730558 0.200145 0.0
-0.074934 0.192976 0.0
-0.0765811 0.185166 0.0
-0.077943 0.176832 0.0
-0.0789728 0.168085 0.0
-0.0796341 0.159031 0.0
-0.079902 0.149765 0.0
-0.0797632 0.140379 0.0
-0.0792159 0.130956 0.0
-0.0782677 0.121571 0.0
-0.0769347 0.112291 0.0
-0.0752391 0.103176 0.0
-0.0732074 0.0942765 0.0
-0.0708685 0.0856369 0.0
-0.0682522 0.0772936 0.0
-0.0653872 0.0692767 0.0
-0.0623002 0.0616108 0.0
-0.0590147 0.0543155 0.0
-0.0555502 0.0474065 0.0
-0.0519224 0.0408968 0.0
-0.0481421 0.0347976 0.0
-0.0442164 0.0291195 0.0
-0.0401488 0.0238731 0.0
-0.0359401 0.0190712 0.0
-0.0315896 0.014729 0.0
-0.0270963 0.0108664 0.0
-0.0224605 0.00750957 0.0
-0.0176849 0.00469412 0.0
-0.0127766 0.00245921 0.0
-0.00774655 0.000862839 0.0
-0.00261042 0.000117002 0.0
0.866091 0.00238483 0.0
0.62006 0.0177769 0.0
0.421261 0.0459303 0.0
0.272108 0.0766534 0.0
0.165209 0.106365 0.0
0.0908068 0.133007 0.0
0.0399847 0.155709 0.0
0.00564913 0.174339 0.0
-0.0174228 0.189045 0.0
-0.032928 0.200099 0.0
-0.0436226 0.208006 0.0
-0.0513347 0.213191 0.0
-0.0572398 0.216025 0.0
-0.062068 0.216822 0.0
-0.0662522 0.215848 0.0
-0.0700293 0.213333 0.0
-0.0735101 0.209477 0.0
-0.0767274 0.204457 0.0
-0.0796677 0.198435 0.0
-0.082294 0.19156 0.0
-0.0845598 0.183971 0.0
-0.086419 0.175798 0.0
-0.0878324 0.167165 0.0
-0.0887708 0.158187 0.0
-0.0892167 0.148971 0.0
-0.0891649 0.139618 0.0
-0.0886218 0.130218 0.0
-0.0876036 0.120853 0.0
-0.086135 0.111593 0.0
-0.0842469 0.102504 0.0
-0.0819742 0.0936369 0.0
-0.0793538 0.0850377 0.0
-0.0764227 0.0767429 0.0
-0.073216 0.0687817 0.0
-0.069766 0.0611772 0.0
-0.0661008 0.0539468 0.0
-0.0622434 0.0471041 0.0
-0.0582116 0.0406595 0.0
-0.0540177 0.0346217 0.0
-0.0496686 0.0289987 0.0
-0.0451667 0.0237995 0.0
-0.0405102 0.0190351 0.0
-0.0356943 0.0147201 0.0
-0.0307121 0.0108744 0.0
-0.0255561 0.00752511 0.0
-0.0202189 0.00470969 0.0
-0.0146941 0.00246999 0.0
-0.00897632 0.000867249 0.0
-0.00306057 0.000117633 0.0
0.874736 0.00202977 0.0
0.641541 0.0156101 0.0
0.44911 0.0410026 0.0
0.301322 0.0694003 0.0
0.19277 0.0974846 0.0
0.115207 0.123208 0.0
0.0606585 0.145593 0.0
0.0225428 0.164357 0.0
-0.00416529 0.179577 0.0
-0.0229942 0.191378 0.0
-0.0366067 0.200101 0.0
-0.0468654 0.206121 0.0
-0.0549936 0.209762 0.0
-0.061766 0.211308 0.0
-0.0676525 0.211008 0.0
-0.0729195 0.209084 0.0
-0.0777006 0.205731 0.0
-0.0820455 0.201132 0.0
-0.0859542 0.195452 0.0
-0.0893997 0.188851 0.0
-0.0923443 0.181476 0.0
-0.0947499 0.173469 0.0
-0.096585 0.164963 0.0
-0.0978284 0.156083 0.0
-0.0984712 0.146947 0.0
-0.0985173 0.137663 0.0
-0.0979826 0.128327 0.0
-0.0968934 0.119026 0.0
-0.0952844 0.109839 0.0
-0.0931964 0.100828 0.0
-0.0906739 0.0920515 0.0
-0.0877629 0.0835528 0.0
-0.0845085 0.0753685 0.0
-0.0809532 0.0675265 0.0
-0.0771353 0.0600478 0.0
-0.0730879 0.0529473 0.0
-0.0688377 0.0462358 0.0
-0.0644049 0.0399206 0.0
-0.0598029 0.0340074 0.0
-0.0550386 0.0285016 0.0
-0.0501123 0.0234096 0.0
-0.0450194 0.0187404 0.0
-0.0397501 0.0145071 0.0
-0.0342911 0.0107288 0.0
-0.0286262 0.00743279 0.0
-0.0227368 0.00465708 0.0
-0.0166028 0.00244491 0.0
-0.0102022 0.000859219 0.0
-0.00350964 0.000116674 0.0
0.882357 0.00175859 0.0
0.660816 0.0138516 0.0
0.474614 0.0368812 0.0
0.328627 0.0631801 0.0
0.219041 0.089693 0.0
0.138914 0.114419 0.0
0.0811325 0.136315 0.0
0.0396168 0.154994 0.0
0.00960944 0.170419 0.0
-0.0124083 0.182718 0.0
-0.028879 0.19203 0.0
-0.0416754 0.198678 0.0
-0.0520543 0.202947 0.0
-0.0608226 0.20509 0.0
-0.0684776 0.205338 0.0
-0.0753076 0.2039 0.0
-0.0814631 0.200969 0.0
-0.0870071 0.196727 0.0
-0.0919494 0.191344 0.0
-0.0962714 0.184984 0.0
-0.099943 0.177805 0.0
-0.102934 0.169955 0.0
-0.105219 0.161579 0.0
-0.106787 0.15281 0.0
-0.107638 0.143774 0.0
-0.107787 0.134585 0.0
-0.107259 0.125347 0.0
-0.106092 0.116152 0.0
-0.104334 0.107081 0.0
-0.102035 0.0981996 0.0
-0.0992505 0.0895654 0.0
-0.0960373 0.0812231 0.0
-0.0924493 0.0732075 0.0
-0.088537 0.0655447 0.0
-0.0843454 0.0582529 0.0
-0.0799129 0.0513441 0.0
-0.0752702 0.0448257 0.0
-0.07044 0.0387015 0.0
-0.0654366 0.0329739 0.0
-0.0602664 0.0276448 0.0
-0.054928 0.0227177 0.0
-0.0494127 0.018199 0.0
-0.0437056 0.0140998 0.0
-0.0377862 0.0104375 0.0
-0.0316289 0.00723848 0.0
-0.0252036 0.00454027 0.0
-0.0184759 0.00238625 0.0
-0.011407 0.000839632 0.0
-0.00395151 0.000114265 0.0
0.889142 0.00154368 0.0
0.678225 0.0123937 0.0
0.498052 0.0333793 0.0
0.354165 0.0577786 0.0
0.244029 0.0827884 0.0
0.16183 0.106477 0.0
0.101237 0.127768 0.0
0.0566484 0.146196 0.0
0.02357 0.161637 0.0
-0.00139783 0.174165 0.0
-0.0206451 0.183871 0.0
-0.0359487 0.19096 0.0
-0.048583 0.19569 0.0
-0.059376 0.198284 0.0
-0.0688435 0.198953 0.0
-0.0772891 0.197896 0.0
-0.0848747 0.1953 0.0
-0.091672 0.191343 0.0
-0.0976979 0.186202 0.0
-0.10294 0.180043 0.0
-0.107374 0.173032 0.0
-0.110977 0.165325 0.0
-0.113732 0.157074 0.0
-0.115635 0.148421 0.0
-0.116698 0.139499 0.0
-0.116945 0.130429 0.0
-0.116416 0.12132 0.0
-0.115161 0.112268 0.0
-0.113238 0.103355 0.0
-0.110712 0.09465 0.0
-0.107651 0.0862096 0.0
-0.104121 0.0780776 0.0
-0.100187 0.0702872 0.0
-0.0959081 0.0628616 0.0
-0.0913361 0.055816 0.0
-0.0865152 0.0491588 0.0
-0.0814804 0.0428934 0.0
-0.0762567 0.03702 0.0
-0.0708597 0.0315367 0.0
-0.0652947 0.0264419 0.0
-0.0595581 0.0217356 0.0
-0.0536372 0.0174209 0.0
-0.0475113 0.0135063 0.0
-0.0411522 0.0100068 0.0
-0.0345244 0.00694678 0.0
-0.0275859 0.00436228 0.0
-0.0202878 0.00229566 0.0
-0.0125743 0.000809072 0.0
-0.00438045 0.000110481 0.0
0.895228 0.0013673 0.0
0.694033 0.0111592 0.0
0.519654 0.0303541 0.0
0.378062 0.0530224 0.0
0.267756 0.0765966 0.0
0.183893 0.0992261 0.0
0.120852 0.119823 0.0
0.0734859 0.137866 0.0
0.0375659 0.153165 0.0
0.00983645 0.165723 0.0
-0.0120872 0.175639 0.0
-0.0298534 0.183001 0.0
-0.0447308 0.188037 0.0
-0.0575594 0.190943 0.0
-0.0688659 0.191912 0.0
-0.0789621 0.191128 0.0
-0.0880167 0.188776 0.0
-0.096106 0.185031 0.0
-0.103251 0.180071 0.0
-0.109443 0.174068 0.0
-0.114662 0.167192 0.0
-0.118892 0.159608 0.0
-0.122124 0.151475 0.0
-0.124363 0.142942 0.0
-0.125632 0.134147 0.0
-0.125967 0.125218 0.0