# vtk DataFile Version 3.0
Malha 2D com triângulos: velocidade e pressão
ASCII
DATASET UNSTRUCTURED_GRID

POINTS 2500 double
0 0 0
1 0 0
1 1 0
0 1 0
0.0204082 0 0
0.0408163 0 0
0.0612245 0 0
0.0816327 0 0
0.102041 0 0
0.122449 0 0
0.142857 0 0
0.163265 0 0
0.183673 0 0
0.204082 0 0
0.22449 0 0
0.244898 0 0
0.265306 0 0
0.285714 0 0
0.306122 0 0
0.326531 0 0
0.346939 0 0
0.367347 0 0
0.387755 0 0
0.408163 0 0
0.428571 0 0
0.44898 0 0
0.469388 0 0
0.489796 0 0
0.510204 0 0
0.530612 0 0
0.55102 0 0
0.571429 0 0
0.591837 0 0
0.612245 0 0
0.632653 0 0
0.653061 0 0
0.673469 0 0
0.693878 0 0
0.714286 0 0
0.734694 0 0
0.755102 0 0
0.77551 0 0
0.795918 0 0
0.816327 0 0
0.836735 0 0
0.857143 0 0
0.877551 0 0
0.897959 0 0
0.918367 0 0
0.938776 0 0
0.959184 0 0
0.979592 0 0
1 0.0204082 0
1 0.0408163 0
1 0.0612245 0
1 0.0816327 0
1 0.102041 0
1 0.122449 0
1 0.142857 0
1 0.163265 0
1 0.183673 0
1 0.204082 0
1 0.22449 0
1 0.244898 0
1 0.265306 0
1 0.285714 0
1 0.306122 0
1 0.326531 0
1 0.346939 0
1 0.367347 0
1 0.387755 0
1 0.408163 0
1 0.428571 0
1 0.44898 0
1 0.469388 0
1 0.489796 0
1 0.510204 0
1 0.530612 0
1 0.55102 0
1 0.571429 0
1 0.591837 0
1 0.612245 0
1 0.632653 0
1 0.653061 0
1 0.673469 0
1 0.693878 0
1 0.714286 0
1 0.734694 0
1 0.755102 0
1 0.77551 0
1 0.795918 0
1 0.816327 0
1 0.836735 0
1 0.857143 0
1 0.877551 0
1 0.897959 0
1 0.918367 0
1 0.938776 0
1 0.959184 0
1 0.979592 0
0.979592 1 0
0.959184 1 0
0.938776 1 0
0.918367 1 0
0.897959 1 0
0.877551 1 0
0.857143 1 0
0.836735 1 0
0.816327 1 0
0.795918 1 0
0.77551 1 0
0.755102 1 0
0.734694 1 0
0.714286 1 0
0.693878 1 0
0.673469 1 0
0.653061 1 0
0.632653 1 0
0.612245 1 0
0.591837 1 0
0.571429 1 0
0.55102 1 0
0.530612 1 0
0.510204 1 0
0.489796 1 0
0.469388 1 0
0.44898 1 0
0.428571 1 0
0.408163 1 0
0.387755 1 0
0.367347 1 0
0.346939 1 0
0.326531 1 0
0.306122 1 0
0.285714 1 0
0.265306 1 0
0.244898 1 0
0.22449 1 0
0.204082 1 0
0.183673 1 0
0.163265 1 0
0.142857 1 0
0.122449 1 0
0.102041 1 0
0.0816327 1 0
0.0612245 1 0
0.0408163 1 0
0.0204082 1 0
0 0.979592 0
0 0.959184 0
0 0.938776 0
0 0.918367 0
0 0.897959 0
0 0.877551 0
0 0.857143 0
0 0.836735 0
0 0.816327 0
0 0.795918 0
0 0.77551 0
0 0.755102 0
0 0.734694 0
0 0.714286 0
0 0.693878 0
0 0.673469 0
0 0.653061 0
0 0.632653 0
0 0.612245 0
0 0.591837 0
0 0.571429 0
0 0.55102 0
0 0.530612 0
0 0.510204 0
0 0.489796 0
0 0.469388 0
0 0.44898 0
0 0.428571 0
0 0.408163 0
0 0.387755 0
0 0.367347 0
0 0.346939 0
0 0.326531 0
0 0.306122 0
0 0.285714 0
0 0.265306 0
0 0.244898 0
0 0.22449 0
0 0.204082 0
0 0.183673 0
0 0.163265 0
0 0.142857 0
0 0.122449 0
0 0.102041 0
0 0.0816327 0
0 0.0612245 0
0 0.0408163 0
0 0.0204082 0
0.0204082 0.979592 0
0.0204082 0.959184 0
0.0204082 0.938776 0
0.0204082 0.918367 0
0.0204082 0.897959 0
0.0204082 0.877551 0
0.0204082 0.857143 0
0.0204082 0.836735 0
0.0204082 0.816327 0
0.0204082 0.795918 0
0.0204082 0.77551 0
0.0204082 0.755102 0
0.0204082 0.734694 0
0.0204082 0.714286 0
0.0204082 0.693878 0
0.0204082 0.673469 0
0.0204082 0.653061 0
0.0204082 0.632653 0
0.0204082 0.612245 0
0.0204082 0.591837 0
0.0204082 0.571429 0
0.0204082 0.55102 0
0.0204082 0.530612 0
0.0204082 0.510204 0
0.0204082 0.489796 0
0.0204082 0.469388 0
0.0204082 0.44898 0
0.0204082 0.428571 0
0.0204082 0.408163 0
0.0204082 0.387755 0
0.0204082 0.367347 0
0.0204082 0.346939 0
0.0204082 0.326531 0
0.0204082 0.306122 0
0.0204082 0.285714 0
0.0204082 0.265306 0
0.0204082 0.244898 0
0.0204082 0.22449 0
0.0204082 0.204082 0
0.0204082 0.183673 0
0.0204082 0.163265 0
0.0204082 0.142857 0
0.0204082 0.122449 0
0.0204082 0.102041 0
0.0204082 0.0816327 0
0.0204082 0.0612245 0
0.0204082 0.0408163 0
0.0204082 0.0204082 0
0.0408163 0.979592 0
0.0408163 0.959184 0
0.0408163 0.938776 0
0.0408163 0.918367 0
0.0408163 0.897959 0
0.0408163 0.877551 0
0.0408163 0.857143 0
0.0408163 0.836735 0
0.0408163 0.816327 0
0.0408163 0.795918 0
0.0408163 0.77551 0
0.0408163 0.755102 0
0.0408163 0.734694 0
0.0408163 0.714286 0
0.0408163 0.693878 0
0.0408163 0.673469 0
0.0408163 0.653061 0
0.0408163 0.632653 0
0.0408163 0.612245 0
0.0408163 0.591837 0
0.0408163 0.571429 0
0.0408163 0.55102 0
0.0408163 0.530612 0
0.0408163 0.510204 0
0.0408163 0.489796 0
0.0408163 0.469388 0
0.0408163 0.44898 0
0.0408163 0.428571 0
0.0408163 0.408163 0
0.0408163 0.387755 0
0.0408163 0.367347 0
0.0408163 0.346939 0
0.0408163 0.326531 0
0.0408163 0.306122 0
0.0408163 0.285714 0
0.0408163 0.265306 0
0.0408163 0.244898 0
0.0408163 0.22449 0
0.0408163 0.204082 0
0.0408163 0.183673 0
0.0408163 0.163265 0
0.0408163 0.142857 0
0.0408163 0.122449 0
0.0408163 0.102041 0
0.0408163 0.0816327 0
0.0408163 0.0612245 0
0.0408163 0.0408163 0
0.0408163 0.0204082 0
0.0612245 0.979592 0
0.0612245 0.959184 0
0.0612245 0.938776 0
0.0612245 0.918367 0
0.0612245 0.897959 0
0.0612245 0.877551 0
0.0612245 0.857143 0
0.0612245 0.836735 0
0.0612245 0.816327 0
0.0612245 0.795918 0
0.0612245 0.77551 0
0.0612245 0.755102 0
0.0612245 0.734694 0
0.0612245 0.714286 0
0.0612245 0.693878 0
0.0612245 0.673469 0
0.0612245 0.653061 0
0.0612245 0.632653 0
0.0612245 0.612245 0
0.0612245 0.591837 0
0.0612245 0.571429 0
0.0612245 0.55102 0
0.0612245 0.530612 0
0.0612245 0.510204 0
0.0612245 0.489796 0
0.0612245 0.469388 0
0.0612245 0.44898 0
0.0612245 0.428571 0
0.0612245 0.408163 0
0.0612245 0.387755 0
0.0612245 0.367347 0
0.0612245 0.346939 0
0.0612245 0.326531 0
0.0612245 0.306122 0
0.0612245 0.285714 0
0.0612245 0.265306 0
0.0612245 0.244898 0
0.0612245 0.22449 0
0.0612245 0.204082 0
0.0612245 0.183673 0
0.0612245 0.163265 0
0.0612245 0.142857 0
0.0612245 0.122449 0
0.0612245 0.102041 0
0.0612245 0.0816327 0
0.0612245 0.0612245 0
0.0612245 0.0408163 0
0.0612245 0.0204082 0
0.0816327 0.979592 0
0.0816327 0.959184 0
0.0816327 0.938776 0
0.0816327 0.918367 0
0.0816327 0.897959 0
0.0816327 0.877551 0
0.0816327 0.857143 0
0.0816327 0.836735 0
0.0816327 0.816327 0
0.0816327 0.795918 0
0.0816327 0.77551 0
0.0816327 0.755102 0
0.0816327 0.734694 0
0.0816327 0.714286 0
0.0816327 0.693878 0
0.0816327 0.673469 0
0.0816327 0.653061 0
0.0816327 0.632653 0
0.0816327 0.612245 0
0.0816327 0.591837 0
0.0816327 0.571429 0
0.0816327 0.55102 0
0.0816327 0.530612 0
0.0816327 0.510204 0
0.0816327 0.489796 0
0.0816327 0.469388 0
0.0816327 0.44898 0
0.0816327 0.428571 0
0.0816327 0.408163 0
0.0816327 0.387755 0
0.0816327 0.367347 0
0.0816327 0.346939 0
0.0816327 0.326531 0
0.0816327 0.306122 0
0.0816327 0.285714 0
0.0816327 0.265306 0
0.0816327 0.244898 0
0.0816327 0.22449 0
0.0816327 0.204082 0
0.0816327 0.183673 0
0.0816327 0.163265 0
0.0816327 0.142857 0
0.0816327 0.122449 0
0.0816327 0.102041 0
0.0816327 0.0816327 0
0.0816327 0.0612245 0
0.0816327 0.0408163 0
0.0816327 0.0204082 0
0.102041 0.979592 0
0.102041 0.959184 0
0.102041 0.938776 0
0.102041 0.918367 0
0.102041 0.897959 0
0.102041 0.877551 0
0.102041 0.857143 0
0.102041 0.836735 0
0.102041 0.816327 0
0.102041 0.795918 0
0.102041 0.77551 0
0.102041 0.755102 0
0.102041 0.734694 0
0.102041 0.714286 0
0.102041 0.693878 0
0.102041 0.673469 0
0.102041 0.653061 0
0.102041 0.632653 0
0.102041 0.612245 0
0.102041 0.591837 0
0.102041 0.571429 0
0.102041 0.55102 0
0.102041 0.530612 0
0.102041 0.510204 0
0.102041 0.489796 0
0.102041 0.469388 0
0.102041 0.44898 0
0.102041 0.428571 0
0.102041 0.408163 0
0.102041 0.387755 0
0.102041 0.367347 0
0.102041 0.346939 0
0.102041 0.326531 0
0.102041 0.306122 0
0.102041 0.285714 0
0.102041 0.265306 0
0.102041 0.244898 0
0.102041 0.22449 0
0.102041 0.204082 0
0.102041 0.183673 0
0.102041 0.163265 0
0.102041 0.142857 0
0.102041 0.122449 0
0.102041 0.102041 0
0.102041 0.0816327 0
0.102041 0.0612245 0
0.102041 0.0408163 0
0.102041 0.0204082 0
0.122449 0.979592 0
0.122449 0.959184 0
0.122449 0.938776 0
0.122449 0.918367 0
0.122449 0.897959 0
0.122449 0.877551 0
0.122449 0.857143 0
0.122449 0.836735 0
0.122449 0.816327 0
0.122449 0.795918 0
0.122449 0.77551 0
0.122449 0.755102 0
0.122449 0.734694 0
0.122449 0.714286 0
0.122449 0.693878 0
0.122449 0.673469 0
0.122449 0.653061 0
0.122449 0.632653 0
0.122449 0.612245 0
0.122449 0.591837 0
0.122449 0.571429 0
0.122449 0.55102 0
0.122449 0.530612 0
0.122449 0.510204 0
0.122449 0.489796 0
0.122449 0.469388 0
0.122449 0.44898 0
0.122449 0.428571 0
0.122449 0.408163 0
0.122449 0.387755 0
0.122449 0.367347 0
0.122449 0.346939 0
0.122449 0.326531 0
0.122449 0.306122 0
0.122449 0.285714 0
0.122449 0.265306 0
0.122449 0.244898 0
0.122449 0.22449 0
0.122449 0.204082 0
0.122449 0.183673 0
0.122449 0.163265 0
0.122449 0.142857 0
0.122449 0.122449 0
0.122449 0.102041 0
0.122449 0.0816327 0
0.122449 0.0612245 0
0.122449 0.0408163 0
0.122449 0.0204082 0
0.142857 0.979592 0
0.142857 0.959184 0
0.142857 0.938776 0
0.142857 0.918367 0
0.142857 0.897959 0
0.142857 0.877551 0
0.142857 0.857143 0
0.142857 0.836735 0
0.142857 0.816327 0
0.142857 0.795918 0
0.142857 0.77551 0
0.142857 0.755102 0
0.142857 0.734694 0
0.142857 0.714286 0
0.142857 0.693878 0
0.142857 0.673469 0
0.142857 0.653061 0
0.142857 0.632653 0
0.142857 0.612245 0
0.142857 0.591837 0
0.142857 0.571429 0
0.142857 0.55102 0
0.142857 0.530612 0
0.142857 0.510204 0
0.142857 0.489796 0
0.142857 0.469388 0
0.142857 0.44898 0
0.142857 0.428571 0
0.142857 0.408163 0
0.142857 0.387755 0
0.142857 0.367347 0
0.142857 0.346939 0
0.142857 0.326531 0
0.142857 0.306122 0
0.142857 0.285714 0
0.142857 0.265306 0
0.142857 0.244898 0
0.142857 0.22449 0
0.142857 0.204082 0
0.142857 0.183673 0
0.142857 0.163265 0
0.142857 0.142857 0
0.142857 0.122449 0
0.142857 0.102041 0
0.142857 0.0816327 0
0.142857 0.0612245 0
0.142857 0.0408163 0
0.142857 0.0204082 0
0.163265 0.979592 0
0.163265 0.959184 0
0.163265 0.938776 0
0.163265 0.918367 0
0.163265 0.897959 0
0.163265 0.877551 0
0.163265 0.857143 0
0.163265 0.836735 0
0.163265 0.816327 0
0.163265 0.795918 0
0.163265 0.77551 0
0.163265 0.755102 0
0.163265 0.734694 0
0.163265 0.714286 0
0.163265 0.693878 0
0.163265 0.673469 0
0.163265 0.653061 0
0.163265 0.632653 0
0.163265 0.612245 0
0.163265 0.591837 0
0.163265 0.571429 0
0.163265 0.55102 0
[...]
CELL_DATA 2401
VECTORS velocity double
0.257354 0.157463 0
-0.00271714 0.26457 0
-0.0323293 0.205413 0
-0.0254051 0.150494 0
-0.0160776 0.112919 0
-0.00971236 0.0875362 0
-0.00592999 0.0704556 0
-0.00373911 0.0587715 0
-0.00245137 0.0505727 0
-0.00167079 0.0446699 0
-0.00118121 0.040312 0
-0.000865 0.0370116 0
-0.000656572 0.0344429 0
-0.000517872 0.0323818 0
-0.000425809 0.030671 0
-0.000365731 0.029198 0
-0.000327959 0.027882 0
-0.00030586 0.0266641 0
-0.000294748 0.0255023 0
-0.000291213 0.0243665 0
-0.000292713 0.023236 0
-0.000297318 0.0220973 0
-0.000303544 0.0209424 0
-0.000310237 0.019768 0
-0.00031651 0.0185738 0
-0.000321685 0.0173626 0
-0.000325261 0.0161388 0
-0.000326884 0.0149084 0
-0.000326323 0.0136787 0
-0.000323455 0.0124573 0
-0.00031824 0.0112523 0
-0.000310706 0.0100716 0
-0.000300931 0.00892337 0
-0.000289032 0.00781516 0
-0.000275141 0.00675426 0
-0.000259397 0.00574752 0
-0.000241931 0.00480133 0
-0.000222851 0.00392168 0
-0.000202231 0.00311418 0
-0.000180095 0.00238418 0
-0.000156407 0.00173683 0
-0.000131059 0.00117723 0
-0.000103876 0.000710461 0
-7.46706e-05 0.000341512 0
-4.34128e-05 7.48927e-05 0
-1.07596e-05 -8.64664e-05 0
2.06107e-05 -0.000143677 0
4.32495e-05 -0.00011103 0
3.78539e-05 -3.76571e-05 0
0.340587 0.122946 0
-0.000708076 0.249364 0
-0.0653255 0.271508 0
-0.0633519 0.251989 0
-0.0485959 0.221433 0
-0.0350047 0.19155 0
-0.0249155 0.16615 0
-0.017854 0.145735 0
-0.0129793 0.129687 0
-0.00960567 0.117142 0
-0.00725433 0.107296 0
-0.00560601 0.0994763 0
-0.00444865 0.0931562 0
-0.00363946 0.0879277 0
-0.00308037 0.08348 0
-0.00270253 0.0795774 0
-0.00245661 0.0760423 0
-0.00230652 0.0727422 0
-0.00222537 0.0695789 0
-0.00219279 0.0664816 0
-0.00219311 0.0634009 0
-0.00221416 0.0603041 0
-0.00224638 0.0571718 0
-0.00228232 0.0539954 0
-0.00231613 0.0507747 0
-0.00234335 0.047516 0
-0.00236062 0.0442305 0
-0.00236554 0.0409331 0
-0.00235651 0.0376415 0
-0.00233259 0.0343748 0
-0.0022934 0.031153 0
-0.00223896 0.0279966 0
-0.00216967 0.0249255 0
-0.00208613 0.0219593 0
-0.00198909 0.0191167 0
-0.00187938 0.0164152 0
-0.00175781 0.0138715 0
-0.00162511 0.011501 0
-0.00148191 0.00931853 0
-0.00132869 0.0073376 0
-0.00116578 0.00557114 0
-0.000993419 0.00403122 0
-0.000811974 0.00272886 0
-0.000622354 0.00167337 0
-0.000427007 0.000870916 0
-0.000232091 0.000321767 0
-5.19105e-05 1.51822e-05 0
8.36329e-05 -8.1903e-05 0
0.000110446 -4.20498e-05 0
0.500814 0.0767797 0
0.0989555 0.183152 0
-0.0395191 0.249093 0
-0.0735795 0.265527 0
-0.0719943 0.257202 0
-0.0606157 0.239434 0
-0.0482799 0.219494 0
-0.037634 0.200667 0
-0.0291722 0.184157 0
-0.0226945 0.170167 0
-0.0178348 0.15847 0
-0.0142387 0.148694 0
-0.0116103 0.140447 0
-0.00971711 0.133372 0
-0.0083797 0.127166 0
-0.007461 0.121579 0
-0.00685603 0.116414 0
-0.00648398 0.111517 0
-0.00628222 0.106772 0
-0.00620174 0.102091 0
-0.00620399 0.0974147 0
-0.0062584 0.0927035 0
-0.00634075 0.0879344 0
-0.00643183 0.0830988 0
-0.00651659 0.0781985 0
-0.00658341 0.0732444 0
-0.00662354 0.068254 0
-0.00663066 0.0632495 0
-0.00660053 0.0582569 0
-0.00653061 0.053304 0
-0.00641979 0.0484203 0
-0.00626808 0.043635 0
-0.00607636 0.0389776 0
-0.00584611 0.0344763 0
-0.00557925 0.0301584 0
-0.00527786 0.0260496 0
-0.00494407 0.0221743 0
-0.00457994 0.0185552 0
-0.00418731 0.0152135 0
-0.00376785 0.0121691 0
-0.00332313 0.00944011 0
-0.00285487 0.00704317 0
-0.0023656 0.00499253 0
-0.00185975 0.00329918 0
-0.00134594 0.00196893 0
-0.000841054 0.000999266 0
-0.000377636 0.000373517 0
-1.40635e-05 5.31175e-05 0
0.000140582 -1.85779e-05 0
0.609918 0.0480233 0
0.195442 0.133903 0
0.0111193 0.209326 0
-0.058252 0.246318 0
-0.0761775 0.256875 0
-0.0736898 0.253507 0
-0.0642671 0.243397 0
-0.0535425 0.230789 0
-0.0437033 0.217934 0
-0.0354437 0.205874 0
-0.0288348 0.194988 0
-0.0237105 0.185312 0
-0.0198356 0.176718 0
-0.0169755 0.169012 0
-0.0149215 0.161992 0
-0.0134978 0.155468 0
-0.0125595 0.149279 0
-0.0119891 0.143291 0
-0.0116913 0.137398 0
-0.0115891 0.131523 0
-0.0116205 0.12561 0
-0.0117351 0.119626 0
-0.0118926 0.11355 0
-0.0120606 0.107381 0
-0.0122135 0.101126 0
-0.0123315 0.0948008 0
-0.0123995 0.0884306 0
-0.0124067 0.0820444 0
-0.0123458 0.0756749 0
-0.0122126 0.0693574 0
-0.012005 0.0631281 0
-0.0117231 0.0570236 0
-0.0113685 0.0510797 0
-0.0109439 0.0453313 0
-0.0104525 0.0398118 0
-0.00989816 0.0345529 0
-0.00928469 0.0295843 0
-0.00861588 0.0249339 0
-0.00789537 0.0206276 0
-0.00712665 0.0166892 0
-0.00631329 0.0131404 0
-0.00545951 0.0100007 0
-0.0045712 0.007286 0
-0.00365778 0.00500827 0
-0.00273537 0.00317329 0
-0.0018323 0.0017783 0
-0.000997868 0.000806234 0
-0.000313317 0.000223545 0
8.22809e-05 1.22319e-05 0
0.680273 0.0301406 0
0.278164 0.0981441 0
0.0693189 0.170933 0
-0.0276872 0.217461 0
-0.0652917 0.240993 0
-0.0745085 0.249604 0
-0.0712201 0.249217 0
-0.0632055 0.243927 0
-0.054142 0.236301 0
-0.0456659 0.22782 0
-0.0384077 0.219272 0
-0.0325144 0.211024 0
-0.0279137 0.203199 0
-0.0244455 0.195789 0
-0.0219258 0.188721 0
-0.0201765 0.181898 0
-0.0190373 0.175221 0
-0.0183693 0.168601 0
-0.0180548 0.161967 0
-0.0179949 0.155262 0
-0.0181076 0.14845 0
-0.0183252 0.141509 0
-0.0185923 0.134434 0
-0.018864 0.127229 0
-0.0191047 0.119913 0
-0.0192864 0.112509 0
-0.0193882 0.105049 0
-0.0193947 0.0975688 0
-0.0192959 0.0901084 0
-0.0190857 0.0827086 0
-0.0187618 0.0754115 0
-0.0183246 0.0682588 0
-0.0177764 0.0612913 0
-0.0171214 0.0545487 0
-0.0163647 0.0480685 0
-0.0155121 0.0418862 0
-0.0145693 0.0360354 0
-0.0135425 0.0305471 0
-0.0124374 0.0254501 0
-0.0112597 0.0207709 0
-0.0100158 0.0165334 0
-0.00871281 0.0127584 0
-0.00736079 0.00946352 0
-0.00597451 0.00666156 0
-0.00457747 0.00435967 0
-0.00320778 0.00255783 0
-0.00192724 0.00124341 0
-0.000831328 0.00039472 0
-7.2333e-05 4.20188e-05 0
0.729651 0.019174 0
0.348679 0.0730309 0
0.127647 0.139307 0
0.0111039 0.188343 0
-0.0441974 0.219813 0
-0.0656469 0.237101 0
-0.07004 0.244742 0
-0.0664935 0.246199 0
-0.0598177 0.243922 0
-0.0524672 0.239512 0
-0.04562 0.233956 0
-0.0397712 0.22783 0
-0.035059 0.221444 0
-0.0314437 0.214942 0
-0.0288044 0.208374 0
-0.026991 0.201736 0
-0.0258501 0.195 0
-0.0252382 0.188132 0
-0.0250264 0.181102 0
-0.0251024 0.173886 0
-0.0253701 0.166471 0
-0.0257484 0.158857 0
-0.0261698 0.151052 0
-0.0265789 0.143076 0
-0.0269316 0.134957 0
-0.0271929 0.126729 0
-0.0273369 0.118432 0
-0.0273445 0.110109 0
-0.0272036 0.101804 0
-0.026907 0.0935662 0
-0.0264524 0.0854407 0
-0.0258409 0.0774737 0
-0.0250763 0.0697099 0
-0.0241645 0.0621919 0
-0.0231127 0.05496 0
-0.021929 0.0480522 0
-0.0206217 0.0415041 0
-0.0191992 0.0353486 0
-0.0176697 0.0296161 0
-0.0160417 0.0243344 0
-0.0143243 0.0195285 0
-0.012528 0.0152206 0
-0.0106668 0.0114292 0
-0.00876057 0.00816898 0
-0.00683869 0.00544989 0
-0.00494637 0.00327712 0
-0.00315259 0.00164585 0
-0.00155849 0.000549688 0
-0.000315902 6.76503e-05 0
0.765659 0.0125802 0
0.408121 0.0557145 0
0.182682 0.114607 0
0.0527174 0.162798 0
-0.0168569 0.198124 0
-0.0497401 0.221208 0
-0.0622386 0.234882 0
-0.0640904 0.241905 0
-0.0608649 0.244404 0
-0.0556509 0.243901 0
-0.050098 0.24143 0
-0.0450297 0.237666 0
-0.0408023 0.233032 0
-0.0375152 0.22778 0
-0.0351319 0.222054 0
-0.0335499 0.215931 0
-0.0326397 0.209449 0
-0.0322664 0.202628 0
-0.0323011 0.195478 0
-0.0326261 0.188011 0
-0.0331374 0.180242 0
-0.0337452 0.172192 0
-0.0343736 0.163889 0
-0.0349597 0.155367 0
-0.0354527 0.146667 0
-0.0358128 0.137833 0
-0.0360101 0.128914 0
-0.0360235 0.119959 0
-0.0358393 0.111022 0
-0.0354505 0.102153 0
-0.0348553 0.0934027 0
-0.0340562 0.0848212 0
-0.0330591 0.0764552 0
-0.0318722 0.0683496 0
-0.0305051 0.0605462 0
-0.0289685 0.0530844 0
-0.0272735 0.0460004 0
-0.025431 0.039328 0
-0.0234519 0.033098 0
-0.0213476 0.0273387 0
-0.0191297 0.0220757 0
-0.0168122 0.017332 0
-0.0144123 0.0131275 0
-0.0119536 0.00947896 0
-0.00946966 0.00640052 0
-0.00700936 0.00390411 0
-0.00464368 0.00199456 0
-0.0024721 0.00068158 0
-0.000636187 8.84088e-05 0
0.792711 0.00860172 0
0.458221 0.0436636 0
0.233247 0.095524 0
0.0945109 0.141347 0
0.0141913 0.17778 0
-0.0289913 0.204526 0
-0.0494088 0.222505 0
-0.0570189 0.233854 0
-0.0578536 0.240321 0
-0.0554607 0.243258 0
-0.0518659 0.243655 0
-0.0481758 0.242209 0
-0.0449492 0.239394 0
-0.0424238 0.235529 0
-0.0406545 0.230823 0
-0.0395961 0.225414 0
-0.0391533 0.219393 0
-0.0392094 0.212826 0
-0.0396433 0.205763 0
-0.040339 0.198247 0
-0.04119 0.19032 0
-0.0421025 0.182028 0
-0.0429957 0.173415 0
-0.0438021 0.164533 0
-0.0444669 0.155435 0
-0.0449474 0.146177 0
-0.0452116 0.136815 0
-0.0452374 0.127409 0
-0.0450113 0.118014 0
-0.0445272 0.108689 0
-0.043785 0.0994862 0
-0.0427894 0.0904589 0
-0.0415488 0.0816558 0
-0.0400743 0.0731229 0
-0.0383787 0.0649028 0
-0.0364755 0.0570351 0
-0.0343787 0.0495561 0
-0.0321021 0.0424991 0
-0.0296593 0.0358949 0
-0.0270642 0.0297715 0
-0.0243311 0.0241545 0
-0.0214763 0.0190674 0
-0.0185198 0.0145316 0
-0.0154872 0.0105667 0
-0.0124141 0.0071913 0
-0.0093494 0.00442487 0
-0.0063618 0.00228234 0
-0.00354346 0.000788687 0
-0.00101949 0.000104531 0
0.813752 0.00615904 0
0.500782 0.0351301 0
0.279185 0.0807781 0
0.135023 0.123659 0
0.046426 0.159862 0
-0.00518083 0.188363 0
-0.0329513 0.20928 0
-0.0463105 0.223835 0
-0.0514883 0.233441 0
-0.0523344 0.239247 0
-0.0511585 0.242151 0
-0.0492979 0.24282 0
-0.0474865 0.241742 0
-0.0460891 0.239264 0
-0.0452491 0.235635 0
-0.0449812 0.231034 0
-0.0452285 0.225593 0
-0.0458978 0.219414 0
-0.0468813 0.212578 0
-0.0480691 0.20516 0
-0.0493572 0.197224 0
-0.0506512 0.188838 0
-0.0518687 0.180066 0
-0.0529404 0.170973 0
-0.05381 0.161625 0
-0.0544337 0.152091 0
-0.0547793 0.142434 0
-0.0548255 0.132722 0
-0.0545602 0.123017 0
-0.0539795 0.113381 0
-0.0530859 0.10387 0
-0.0518874 0.0945389 0
-0.0503959 0.0854386 0
-0.0486258 0.0766153 0
-0.0465935 0.0681116 0
-0.0443158 0.0599666 0
-0.0418099 0.0522158 0
-0.0390925 0.0448917 0
-0.0361799 0.0380239 0
-0.0330882 0.0316396 0
-0.0298339 0.0257643 0
-0.026435 0.0204216 0
-0.0229127 0.0156343 0
-0.0192935 0.0114249 0
-0.0156121 0.00781666 0
-0.011915 0.00483637 0
-0.00826469 0.00250862 0
-0.00474207 0.0008718 0
-0.00145237 0.000116573 0
0.830655 0.00461895 0
0.53732 0.0289521 0
0.320794 0.0692697 0
0.173652 0.109069 0
0.0788603 0.144275 0
0.0204197 0.173325 0
-0.014 0.196082 0
-0.0328815 0.212935 0
-0.0424624 0.224937 0
-0.0467657 0.233048 0
-0.048303 0.238052 0
-0.0485917 0.240565 0
-0.0485104 0.241056 0
-0.0485341 0.239879 0
-0.0488867 0.237302 0
-0.0496398 0.233529 0
-0.0507753 0.228718 0
-0.0522255 0.222999 0
-0.0538984 0.216479 0
-0.0556937 0.209256 0
-0.0575123 0.201418 0
-0.0592622 0.193048 0
-0.0608621 0.184228 0
-0.0622434 0.175039 0
-0.0633501 0.165559 0
-0.0641394 0.155866 0
-0.0645809 0.146034 0
-0.0646555 0.136136 0
-0.0643539 0.126241 0
-0.0636758 0.116414 0
-0.0626275 0.106715 0
-0.0612213 0.0972007 0
-0.0594732 0.087922 0
-0.057402 0.0789256 0
-0.0550279 0.0702535 0
-0.0523718 0.0619436 0
-0.0494541 0.0540299 0
-0.0462944 0.0465433 0
-0.0429117 0.0395119 0
-0.039324 0.0329617 0
-0.0355492 0.0269172 0
-0.0316062 0.0214022 0
-0.0275162 0.0164406 0
-0.0233046 0.0120571 0
-0.0190034 0.00827972 0
-0.0146539 0.00514172 0
-0.0103098 0.0026762 0
-0.00603808 0.000932804 0
-0.00192249 0.000125148 0
0.844611 0.00361471 0
0.569027 0.0243723 0
0.358492 0.0601783 0
0.210108 0.0969979 0
0.110723 0.130812 0
0.0466288 0.159748 0
0.00663111 0.183337 0
-0.0174714 0.201785 0
-0.0313869 0.215566 0
-0.0392298 0.225475 0
-0.0436499 0.232185 0
-0.0463007 0.236247 0
-0.048177 0.238102 0
-0.0498461 0.238092 0
-0.0516019 0.23649 0
-0.0535671 0.233511 0
-0.0557599 0.229332 0
-0.0581375 0.224099 0
-0.0606248 0.21794 0
-0.0631321 0.210971 0
-0.0655669 0.203297 0
-0.0678418 0.195019 0
-0.0698784 0.186233 0
-0.0716103 0.177034 0
-0.0729841 0.167511 0
-0.0739597 0.157752 0
-0.0745099 0.147839 0
-0.0746195 0.137852 0
-0.0742835 0.127866 0
-0.0735065 0.117948 0
-0.0723 0.108162 0
-0.0706812 0.0985662 0
-0.0686716 0.0892112 0
-0.0662949 0.0801433 0
-0.063576 0.0714035 0
-0.0605399 0.0630279 0
-0.0572106 0.0550485 0
-0.0536108 0.047494 0
-0.0497617 0.0403905 0
-0.045683 0.0337621 0
-0.0413934 0.0276322 0
-0.0369116 0.0220239 0
-0.0322576 0.0169618 0
-0.0274541 0.0124727 0
-0.0225285 0.0085881 0
-0.0175149 0.00534694 0
-0.012456 0.00278936 0
-0.00740338 0.000973902 0
-0.00241877 0.000130815 0
0.8564 0.00293328 0
0.596832 0.0208913 0
0.392733 0.0528886 0
0.244348 0.0869264 0
0.141641 0.11916 0
0.0729134 0.147566 0
0.0280561 0.171419 0
-0.000684641 0.190753 0
-0.0187797 0.205814 0
-0.0301542 0.217081 0
-0.0375367 0.225134 0
-0.0426797 0.230462 0
-0.0466695 0.233463 0
-0.0501486 0.234463 0
-0.0534697 0.233729 0
-0.0567999 0.231478 0
-0.0601894 0.227894 0
-0.0636185 0.223138 0
-0.0670278 0.217351 0
-0.0703383 0.210661 0
-0.0734653 0.20319 0
-0.0763264 0.195051 0
-0.0788478 0.186355 0
-0.0809666 0.177207 0
-0.0826334 0.167708 0
-0.0838124 0.157953 0
-0.0844812 0.148034 0
-0.0846298 0.138037 0
-0.0842592 0.12804 0
-0.08338 0.118116 0
-0.0820101 0.108329 0
-0.0801732 0.0987384 0
-0.0778967 0.0893957 0
-0.0752102 0.0803457 0
-0.0721439 0.0716276 0
-0.0687272 0.0632754 0
-0.0649883 0.0553184 0
-0.0609527 0.0477827 0
-0.0566438 0.0406916 0
-0.0520824 0.034067 0
-0.0472875 0.0279304 0
-0.0422766 0.0223039 0
-0.0370672 0.0172122 0
-0.031678 0.0126832 0
-0.0261302 0.00875102 0
-0.0204489 0.00545897 0
-0.0146645 0.00285261 0
-0.00881208 0.000997191 0
-0.00293143 0.000134037 0
0.866548 0.00245042 0
0.621451 0.0181779 0
0.423939 0.0469481 0
0.276432 0.0784329 0
0.171394 0.109021 0
0.0988783 0.136632 0
0.0497998 0.160374 0
0.0169328 0.180092 0
-0.00508055 0.195971 0
-0.0199138 0.20823 0
-0.0302736 0.217308 0
-0.0379764 0.223634 0
-0.0441785 0.227569 0
-0.0495825 0.229415 0
-0.0545894 0.229425 0
-0.0594028 0.227813 0
-0.0641005 0.224768 0
-0.0686825 0.220454 0
-0.0731033 0.215023 0
-0.0772942 0.208614 0
-0.0811777 0.201359 0
-0.0846771 0.193385 0
-0.0877235 0.184812 0
-0.0902591 0.175757 0
-0.0922393 0.166329 0
-0.0936339 0.156633 0
-0.0944268 0.146767 0
-0.0946148 0.136823 0
-0.094206 0.126883 0
-0.0932185 0.117023 0
-0.0916778 0.107309 0
-0.0896151 0.0978009 0
-0.087065 0.0885491 0
-0.0840635 0.079597 0
-0.0806468 0.0709816 0
-0.0768495 0.0627341 0
-0.0727035 0.0548807 0
-0.0682378 0.0474441 0
-0.0634775 0.0404446 0
-0.0584443 0.0339011 0
-0.0531565 0.0278326 0
-0.0476298 0.0222597 0
-0.0418782 0.0172061 0
-0.035915 0.0127002 0
-0.0297538 0.00877763 0
-0.0234096 0.00548442 0
-0.016899 0.00287005 0
-0.0102404 0.00100445 0
-0.00345177 0.000135166 0
0.875414 0.00209297 0
0.643436 0.0160101 0
0.452477 0.0420255 0
0.306465 0.0711836 0
0.199868 0.100129 0
0.124264 0.126785 0
0.071513 0.150155 0
0.0349107 0.169942 0
0.00936168 0.186202 0
-0.0088244 0.199145 0
-0.0221351 0.208973 0
-0.0324207 0.216059 0
-0.0408906 0.220728 0
-0.0482949 0.223256 0
-0.0550729 0.22388 0
-0.0614579 0.222808 0
-0.0675498 0.220226 0
-0.0733648 0.216303 0
-0.0788693 0.211194 0
-0.0840029 0.205048 0
-0.0886949 0.198006 0
-0.0928742 0.190203 0
-0.0964772 0.181771 0
-0.0994514 0.172834 0
-0.101759 0.163511 0
-0.103375 0.153915 0
-0.104292 0.144149 0
-0.104515 0.13431 0
-0.10406 0.124485 0
-0.102955 0.114751 0
-0.101233 0.105177 0
-0.0989339 0.0958195 0
-0.0961012 0.0867298 0
-0.0927781 0.0779491 0
-0.0890072 0.0695112 0
-0.0848285 0.061444 0
-0.0802785 0.0537702 0
-0.0753889 0.0465085 0
-0.0701869 0.0396755 0
-0.0646945 0.0332866 0
-0.0589288 0.0273577 0
-0.052903 0.0219071 0
-0.0466266 0.0169567 0
-0.0401063 0.0125343 0
-0.0333471 0.00867594 0
-0.0263528 0.00542893 0
-0.0191256 0.00284504 0
-0.0116664 0.000997067 0
-0.00397198 0.000134449 0
0.883249 0.00181696 0
0.66321 0.0142365 0
0.478663 0.037876 0
0.33457 0.0649144 0
0.227018 0.0922534 0
0.148903 0.117861 0
0.0929558 0.140677 0
0.052975 0.160299 0
0.024129 0.17668 0
0.00285016 0.189955 0
-0.013358 0.200302 0
-0.0262206 0.207933 0
-0.0369826 0.21315 0
-0.046432 0.216202 0
-0.0550382 0.21731 0
-0.0630576 0.216671 0
-0.0706074 0.214468 0
-0.0777162 0.21087 0
-0.0843593 0.206037 0
-0.0904835 0.200122 0
-0.0960232 0.193275 0
-0.100913 0.185638 0
-0.105094 0.177352 0
-0.10852 0.168548 0
-0.11116 0.159354 0
-0.112997 0.149889 0
-0.114032 0.140262 0
-0.11428 0.130574 0
-0.113766 0.120915 0
-0.112528 0.111363 0
-0.11061 0.101987 0
-0.108062 0.0928443 0
-0.104936 0.0839834 0
-0.101283 0.0754427 0
-0.0971523 0.0672529 0
-0.0925908 0.0594377 0
-0.0876392 0.0520156 0
-0.0823326 0.0450011 0
-0.0766995 0.0384063 0
-0.0707621 0.0322424 0
-0.064536 0.0265218 0
-0.0580308 0.0212595 0
-0.0512508 0.0164749 0
-0.0441955 0.0121942 0
-0.0368603 0.00845246 0
-0.0292368 0.00529691 0
-0.0213122 0.00278011 0
-0.0130697 0.000975998 0
-0.00448483 0.000132037 0
0.890235 0.00159526 0
0.681098 0.0127514 0
0.502757 0.0343165 0
0.360871 0.0594159 0
0.252834 0.0851996 0
0.172686 0.109702 0
0.113951 0.13183 0
0.0709129 0.151106 0
0.0390091 0.167403 0
0.0148063 0.18078 0
-0.00417074 0.1914 0
-0.0195721 0.199383 0
-0.032623 0.204971 0
-0.0441369 0.208395 0
-0.054605 0.209856 0
-0.0643001 0.209542 0
-0.0733518 0.207628 0
-0.0817973 0.204283 0
-0.0896183 0.19967 0
-0.0967662 0.193945 0
-0.10318 0.187265 0
-0.108798 0.179779 0
-0.113568 0.171635 0
-0.11745 0.162973 0
-0.120419 0.153925 0
-0.122468 0.144617 0
-0.123608 0.135162 0
-0.123864 0.125666 0
-0.123273 0.116218 0
-0.121883 0.106901 0
-0.119752 0.0977802 0
-0.116938 0.0889131 0
-0.113503 0.0803446 0
-0.109509 0.0721101 0
-0.105013 0.064236 0
-0.100066 0.0567418 0
-0.0947152 0.049641 0
-0.0889984 0.0429432 0
-0.0829457 0.0366555 0
-0.0765789 0.0307847 0
-0.0699117 0.0253386 0
-0.0629498 0.0203282 0
-0.0556916 0.0157699 0
-0.0481285 0.0116869 0
-0.0402456 0.00811222 0
-0.0320215 0.00509162 0
-0.0234283 0.002677 0
-0.0144307 0.000941849 0
-0.00498354 0.000128003 0
0.896503 0.00141061 0
0.697351 0.0114795 0
0.524973 0.031208 0
0.385478 0.0545206 0
0.27732 0.0788011 0
0.195533 0.102164 0
0.13436 0.123503 0
0.088549 0.142289 0
0.0538044 0.158331 0
0.0268387 0.171631 0
0.00524887 0.182293 0
-0.0126457 0.190463 0
-0.0279675 0.196263 0
-0.0415472 0.199916 0
-0.0538921 0.201604 0
-0.0652863 0.201504 0
-0.0758667 0.199787 0
-0.0856757 0.196618 0
-0.0946984 0.192162 0
-0.102889 0.186581 0
-0.11019 0.180034 0
-0.116544 0.17268 0
-0.121902 0.16467 0
-0.126231 0.156151 0
-0.129517 0.147263 0
-0.131761 0.138134 0
-0.132984 0.128884 0
-0.133225 0.119618 0
-0.132532 0.110429 0
-0.130967 0.101396 0
-0.128599 0.092587 0
-0.125499 0.0840546 0
-0.121739 0.075841 0
-0.117392 0.0679771 0
-0.112521 0.0604851 0
-0.107186 0.0533789 0
-0.101438 0.046667 0
-0.0953181 0.0403533 0
-0.088858 0.0344397 0
-0.082079 0.0289276 0
-0.0749923 0.0238199 0
-0.0675993 0.0191231 0
-0.0598918 0.0148492 0
-0.0518529 0.011018 0
-0.0434567 0.00765901 0
-0.0346685 0.00481534 0
-0.0254443 0.0025368 0
-0.0157308 0.000894935 0
-0.0054615 0.000122359 0
0.90215 0.00125154 0
0.712162 0.0103655 0
0.54548 0.0284431 0
0.408486 0.0500932 0
0.30049 0.0729166 0
0.217386 0.0951148 0
0.154077 0.115586 0
0.105743 0.133765 0
0.0683536 0.149411 0
0.0387714 0.162481 0
0.0146684 0.173033 0
-0.00561423 0.181199 0
-0.0231672 0.187057 0
-0.0387967 0.190799 0
-0.0530173 0.19259 0
-0.066118 0.192596 0
-0.0782384 0.19098 0
-0.0894226 0.187908 0
-0.0996563 0.183546 0
-0.108895 0.178057 0
-0.117082 0.171608 0
-0.124164 0.164361 0
-0.130098 0.156475 0
-0.134858 0.148103 0
-0.138437 0.139387 0
-0.140848 0.130462 0
-0.142126 0.121447 0
-0.14232 0.112451 0
-0.141495 0.103567 0
-0.139726 0.0948714 0
-0.137094 0.0864297 0
-0.133684 0.0782919 0
-0.129581 0.0704954 0
-0.124865 0.0630666 0
-0.119611 0.0560219 0
-0.113884 0.0493699 0
-0.107741 0.0431129 0
-0.101226 0.0372491 0
-0.0943714 0.0317744 0
-0.0871987 0.0266845 0
-0.0797161 0.021977 0
-0.0719203 0.017653 0
-0.0637964 0.0137197 0
-0.0553184 0.0101922 0
-0.0464492 0.00709592 0
-0.0371404 0.00446976 0
-0.0273319 0.00236021 0
-0.0169517 0.000835373 0
-0.0059122 0.000115077 0
0.907245 0.00111015 0
0.725677 0.00936789 0
0.564413 0.0259371 0
0.42997 0.0460221 0
0.322353 0.0674243 0
0.238201 0.0884358 0