# vtk DataFile Version 3.0
Malha 2D com triângulos e temperatura
ASCII
DATASET UNSTRUCTURED_GRID

POINTS 2500 double
0 0 0
1 0 0
1 1 0
0 1 0
0.0204082 0 0
0.0408163 0 0
0.0612245 0 0
0.0816327 0 0
0.102041 0 0
0.122449 0 0
0.142857 0 0
0.163265 0 0
0.183673 0 0
0.204082 0 0
0.22449 0 0
0.244898 0 0
0.265306 0 0
0.285714 0 0
0.306122 0 0
0.326531 0 0
0.346939 0 0
0.367347 0 0
0.387755 0 0
0.408163 0 0
0.428571 0 0
0.44898 0 0
0.469388 0 0
0.489796 0 0
0.510204 0 0
0.530612 0 0
0.55102 0 0
0.571429 0 0
0.591837 0 0
0.612245 0 0
0.632653 0 0
0.653061 0 0
0.673469 0 0
0.693878 0 0
0.714286 0 0
0.734694 0 0
0.755102 0 0
0.77551 0 0
0.795918 0 0
0.816327 0 0
0.836735 0 0
0.857143 0 0
0.877551 0 0
0.897959 0 0
0.918367 0 0
0.938776 0 0
0.959184 0 0
0.979592 0 0
1 0.0204082 0
1 0.0408163 0
1 0.0612245 0
1 0.0816327 0
1 0.102041 0
1 0.122449 0
1 0.142857 0
1 0.163265 0
1 0.183673 0
1 0.204082 0
1 0.22449 0
1 0.244898 0
1 0.265306 0
1 0.285714 0
1 0.306122 0
1 0.326531 0
1 0.346939 0
1 0.367347 0
1 0.387755 0
1 0.408163 0
1 0.428571 0
1 0.44898 0
1 0.469388 0
1 0.489796 0
1 0.510204 0
1 0.530612 0
1 0.55102 0
1 0.571429 0
1 0.591837 0
1 0.612245 0
1 0.632653 0
1 0.653061 0
1 0.673469 0
1 0.693878 0
1 0.714286 0
1 0.734694 0
1 0.755102 0
1 0.77551 0
1 0.795918 0
1 0.816327 0
1 0.836735 0
1 0.857143 0
1 0.877551 0
1 0.897959 0
1 0.918367 0
1 0.938776 0
1 0.959184 0
1 0.979592 0
0.979592 1 0
0.959184 1 0
0.938776 1 0
0.918367 1 0
0.897959 1 0
0.877551 1 0
0.857143 1 0
0.836735 1 0
0.816327 1 0
0.795918 1 0
0.77551 1 0
0.755102 1 0
0.734694 1 0
0.714286 1 0
0.693878 1 0
0.673469 1 0
0.653061 1 0
0.632653 1 0
0.612245 1 0
0.591837 1 0
0.571429 1 0
0.55102 1 0
0.530612 1 0
0.510204 1 0
0.489796 1 0
0.469388 1 0
0.44898 1 0
0.428571 1 0
0.408163 1 0
0.387755 1 0
0.367347 1 0
0.346939 1 0
0.326531 1 0
0.306122 1 0
0.285714 1 0
0.265306 1 0
0.244898 1 0
0.22449 1 0
0.204082 1 0
0.183673 1 0
0.163265 1 0
0.142857 1 0
0.122449 1 0
0.102041 1 0
0.0816327 1 0
0.0612245 1 0
0.0408163 1 0
0.0204082 1 0
0 0.979592 0
0 0.959184 0
0 0.938776 0
0 0.918367 0
0 0.897959 0
0 0.877551 0
0 0.857143 0
0 0.836735 0
0 0.816327 0
0 0.795918 0
0 0.77551 0
0 0.755102 0
0 0.734694 0
0 0.714286 0
0 0.693878 0
0 0.673469 0
0 0.653061 0
0 0.632653 0
0 0.612245 0
0 0.591837 0
0 0.571429 0
0 0.55102 0
0 0.530612 0
0 0.510204 0
0 0.489796 0
0 0.469388 0
0 0.44898 0
0 0.428571 0
0 0.408163 0
0 0.387755 0
0 0.367347 0
0 0.346939 0
0 0.326531 0
0 0.306122 0
0 0.285714 0
0 0.265306 0
0 0.244898 0
0 0.22449 0
0 0.204082 0
0 0.183673 0
0 0.163265 0
0 0.142857 0
0 0.122449 0
0 0.102041 0
0 0.0816327 0
0 0.0612245 0
0 0.0408163 0
0 0.0204082 0
0.0204082 0.979592 0
0.0204082 0.959184 0
0.0204082 0.938776 0
0.0204082 0.918367 0
0.0204082 0.897959 0
0.0204082 0.877551 0
0.0204082 0.857143 0
0.0204082 0.836735 0
0.0204082 0.816327 0
0.0204082 0.795918 0
0.0204082 0.77551 0
0.0204082 0.755102 0
0.0204082 0.734694 0
0.0204082 0.714286 0
0.0204082 0.693878 0
0.0204082 0.673469 0
0.0204082 0.653061 0
0.0204082 0.632653 0
0.0204082 0.612245 0
0.0204082 0.591837 0
0.0204082 0.571429 0
0.0204082 0.55102 0
0.0204082 0.530612 0
0.0204082 0.510204 0
0.0204082 0.489796 0
0.0204082 0.469388 0
0.0204082 0.44898 0
0.0204082 0.428571 0
0.0204082 0.408163 0
0.0204082 0.387755 0
0.0204082 0.367347 0
0.0204082 0.346939 0
0.0204082 0.326531 0
0.0204082 0.306122 0
0.0204082 0.285714 0
0.0204082 0.265306 0
0.0204082 0.244898 0
0.0204082 0.22449 0
0.0204082 0.204082 0
0.0204082 0.183673 0
0.0204082 0.163265 0
0.0204082 0.142857 0
0.0204082 0.122449 0
0.0204082 0.102041 0
0.0204082 0.0816327 0
0.0204082 0.0612245 0
0.0204082 0.0408163 0
0.0204082 0.0204082 0
0.0408163 0.979592 0
0.0408163 0.959184 0
0.0408163 0.938776 0
0.0408163 0.918367 0
0.0408163 0.897959 0
0.0408163 0.877551 0
0.0408163 0.857143 0
0.0408163 0.836735 0
0.0408163 0.816327 0
0.0408163 0.795918 0
0.0408163 0.77551 0
0.0408163 0.755102 0
0.0408163 0.734694 0
0.0408163 0.714286 0
0.0408163 0.693878 0
0.0408163 0.673469 0
0.0408163 0.653061 0
0.0408163 0.632653 0
0.0408163 0.612245 0
0.0408163 0.591837 0
0.0408163 0.571429 0
0.0408163 0.55102 0
0.0408163 0.530612 0
0.0408163 0.510204 0
0.0408163 0.489796 0
0.0408163 0.469388 0
0.0408163 0.44898 0
0.0408163 0.428571 0
0.0408163 0.408163 0
0.0408163 0.387755 0
0.0408163 0.367347 0
0.0408163 0.346939 0
0.0408163 0.326531 0
0.0408163 0.306122 0
0.0408163 0.285714 0
0.0408163 0.265306 0
0.0408163 0.244898 0
0.0408163 0.22449 0
0.0408163 0.204082 0
0.0408163 0.183673 0
0.0408163 0.163265 0
0.0408163 0.142857 0
0.0408163 0.122449 0
0.0408163 0.102041 0
0.0408163 0.0816327 0
0.0408163 0.0612245 0
0.0408163 0.0408163 0
0.0408163 0.0204082 0
0.0612245 0.979592 0
0.0612245 0.959184 0
0.0612245 0.938776 0
0.0612245 0.918367 0
0.0612245 0.897959 0
0.0612245 0.877551 0
0.0612245 0.857143 0
0.0612245 0.836735 0
0.0612245 0.816327 0
0.0612245 0.795918 0
0.0612245 0.77551 0
0.0612245 0.755102 0
0.0612245 0.734694 0
0.0612245 0.714286 0
0.0612245 0.693878 0
0.0612245 0.673469 0
0.0612245 0.653061 0
0.0612245 0.632653 0
0.0612245 0.612245 0
0.0612245 0.591837 0
0.0612245 0.571429 0
0.0612245 0.55102 0
0.0612245 0.530612 0
0.0612245 0.510204 0
0.0612245 0.489796 0
0.0612245 0.469388 0
0.0612245 0.44898 0
0.0612245 0.428571 0
0.0612245 0.408163 0
0.0612245 0.387755 0
0.0612245 0.367347 0
0.0612245 0.346939 0
0.0612245 0.326531 0
0.0612245 0.306122 0
0.0612245 0.285714 0
0.0612245 0.265306 0
0.0612245 0.244898 0
0.0612245 0.22449 0
0.0612245 0.204082 0
0.0612245 0.183673 0
0.0612245 0.163265 0
0.0612245 0.142857 0
0.0612245 0.122449 0
0.0612245 0.102041 0
0.0612245 0.0816327 0
0.0612245 0.0612245 0
0.0612245 0.0408163 0
0.0612245 0.0204082 0
0.0816327 0.979592 0
0.0816327 0.959184 0
0.0816327 0.938776 0
0.0816327 0.918367 0
0.0816327 0.897959 0
0.0816327 0.877551 0
0.0816327 0.857143 0
0.0816327 0.836735 0
0.0816327 0.816327 0
0.0816327 0.795918 0
0.0816327 0.77551 0
0.0816327 0.755102 0
0.0816327 0.734694 0
0.0816327 0.714286 0
0.0816327 0.693878 0
0.0816327 0.673469 0
0.0816327 0.653061 0
0.0816327 0.632653 0
0.0816327 0.612245 0
0.0816327 0.591837 0
0.0816327 0.571429 0
0.0816327 0.55102 0
0.0816327 0.530612 0
0.0816327 0.510204 0
0.0816327 0.489796 0
0.0816327 0.469388 0
0.0816327 0.44898 0
0.0816327 0.428571 0
0.0816327 0.408163 0
0.0816327 0.387755 0
0.0816327 0.367347 0
0.0816327 0.346939 0
0.0816327 0.326531 0
0.0816327 0.306122 0
0.0816327 0.285714 0
0.0816327 0.265306 0
0.0816327 0.244898 0
0.0816327 0.22449 0
0.0816327 0.204082 0
0.0816327 0.183673 0
0.0816327 0.163265 0
0.0816327 0.142857 0
0.0816327 0.122449 0
0.0816327 0.102041 0
0.0816327 0.0816327 0
0.0816327 0.0612245 0
0.0816327 0.0408163 0
0.0816327 0.0204082 0
0.102041 0.979592 0
0.102041 0.959184 0
0.102041 0.938776 0
0.102041 0.918367 0
0.102041 0.897959 0
0.102041 0.877551 0
0.102041 0.857143 0
0.102041 0.836735 0
0.102041 0.816327 0
0.102041 0.795918 0
0.102041 0.77551 0
0.102041 0.755102 0
0.102041 0.734694 0
0.102041 0.714286 0
0.102041 0.693878 0
0.102041 0.673469 0
0.102041 0.653061 0
0.102041 0.632653 0
0.102041 0.612245 0
0.102041 0.591837 0
0.102041 0.571429 0
0.102041 0.55102 0
0.102041 0.530612 0
0.102041 0.510204 0
0.102041 0.489796 0
0.102041 0.469388 0
0.102041 0.44898 0
0.102041 0.428571 0
0.102041 0.408163 0
0.102041 0.387755 0
0.102041 0.367347 0
0.102041 0.346939 0
0.102041 0.326531 0
0.102041 0.306122 0
0.102041 0.285714 0
0.102041 0.265306 0
0.102041 0.244898 0
0.102041 0.22449 0
0.102041 0.204082 0
0.102041 0.183673 0
0.102041 0.163265 0
0.102041 0.142857 0
0.102041 0.122449 0
0.102041 0.102041 0
0.102041 0.0816327 0
0.102041 0.0612245 0
0.102041 0.0408163 0
0.102041 0.0204082 0
0.122449 0.979592 0
0.122449 0.959184 0
0.122449 0.938776 0
0.122449 0.918367 0
0.122449 0.897959 0
0.122449 0.877551 0
0.122449 0.857143 0
0.122449 0.836735 0
0.122449 0.816327 0
0.122449 0.795918 0
0.122449 0.77551 0
0.122449 0.755102 0
0.122449 0.734694 0
0.122449 0.714286 0
0.122449 0.693878 0
0.122449 0.673469 0
0.122449 0.653061 0
0.122449 0.632653 0
0.122449 0.612245 0
0.122449 0.591837 0
0.122449 0.571429 0
0.122449 0.55102 0
0.122449 0.530612 0
0.122449 0.510204 0
0.122449 0.489796 0
0.122449 0.469388 0
0.122449 0.44898 0
0.122449 0.428571 0
0.122449 0.408163 0
0.122449 0.387755 0
0.122449 0.367347 0
0.122449 0.346939 0
0.122449 0.326531 0
0.122449 0.306122 0
0.122449 0.285714 0
0.122449 0.265306 0
0.122449 0.244898 0
0.122449 0.22449 0
0.122449 0.204082 0
0.122449 0.183673 0
0.122449 0.163265 0
0.122449 0.142857 0
0.122449 0.122449 0
0.122449 0.102041 0
0.122449 0.0816327 0
0.122449 0.0612245 0
0.122449 0.0408163 0
0.122449 0.0204082 0
0.142857 0.979592 0
0.142857 0.959184 0
0.142857 0.938776 0
0.142857 0.918367 0
0.142857 0.897959 0
0.142857 0.877551 0
0.142857 0.857143 0
0.142857 0.836735 0
0.142857 0.816327 0
0.142857 0.795918 0
0.142857 0.77551 0
0.142857 0.755102 0
0.142857 0.734694 0
0.142857 0.714286 0
0.142857 0.693878 0
0.142857 0.673469 0
0.142857 0.653061 0
0.142857 0.632653 0
0.142857 0.612245 0
0.142857 0.591837 0
0.142857 0.571429 0
0.142857 0.55102 0
0.142857 0.530612 0
0.142857 0.510204 0
0.142857 0.489796 0
0.142857 0.469388 0
0.142857 0.44898 0
0.142857 0.428571 0
0.142857 0.408163 0
0.142857 0.387755 0
0.142857 0.367347 0
0.142857 0.346939 0
0.142857 0.326531 0
0.142857 0.306122 0
0.142857 0.285714 0
0.142857 0.265306 0
0.142857 0.244898 0
0.142857 0.22449 0
0.142857 0.204082 0
0.142857 0.183673 0
0.142857 0.163265 0
0.142857 0.142857 0
0.142857 0.122449 0
0.142857 0.102041 0
0.142857 0.0816327 0
0.142857 0.0612245 0
0.142857 0.0408163 0
0.142857 0.0204082 0
0.163265 0.979592 0
0.163265 0.959184 0
0.163265 0.938776 0
0.163265 0.918367 0
0.163265 0.897959 0
0.163265 0.877551 0
0.163265 0.857143 0
0.163265 0.836735 0
0.163265 0.816327 0
0.163265 0.795918 0
0.163265 0.77551 0
0.163265 0.755102 0
0.163265 0.734694 0
0.163265 0.714286 0
0.163265 0.693878 0
0.163265 0.673469 0
0.163265 0.653061 0
0.163265 0.632653 0
0.163265 0.612245 0
0.163265 0.591837 0
0.163265 0.571429 0
0.163265 0.55102 0
[...]
CELL_DATA 2401
VECTORS velocity double
0.257358 0.157467 0.0
-0.00252719 0.264866 0.0
-0.0320031 0.206401 0.0
-0.0250652 0.152275 0.0
-0.0158245 0.115353 0.0
-0.00959447 0.0903052 0.0
-0.00595154 0.073177 0.0
-0.00387938 0.0610862 0.0
-0.00268 0.0521897 0.0
-0.00195704 0.0453806 0.0
-0.00149827 0.0399888 0.0
-0.00119139 0.0355971 0.0
-0.000976045 0.0319367 0.0
-0.000818654 0.028828 0.0
-0.000699713 0.0261465 0.0
-0.00060734 0.0238031 0.0
-0.000533954 0.0217326 0.0
-0.000474517 0.0198859 0.0
-0.000425562 0.0182255 0.0
-0.000384632 0.0167221 0.0
-0.000349948 0.0153527 0.0
-0.000320198 0.0140988 0.0
-0.000294399 0.0129455 0.0
-0.000271809 0.0118806 0.0
-0.000251861 0.0108938 0.0
-0.000234117 0.00997675 0.0
-0.000218239 0.00912212 0.0
-0.000203961 0.00832373 0.0
-0.000191071 0.00757618 0.0
-0.0001794 0.00687474 0.0
-0.000168804 0.00621526 0.0
-0.00015916 0.00559406 0.0
-0.000150355 0.00500789 0.0
-0.000142277 0.00445395 0.0
-0.000134813 0.00392984 0.0
-0.000127836 0.00343361 0.0
-0.000121198 0.00296382 0.0
-0.000114725 0.00251961 0.0
-0.000108198 0.00210079 0.0
-0.00010135 0.001708 0.0
-9.38399e-05 0.00134282 0.0
-8.52438e-05 0.00100799 0.0
-7.50313e-05 0.000707559 0.0
-6.25643e-05 0.00044707 0.0
-4.71466e-05 0.000233558 0.0
-2.82801e-05 7.52588e-05 0.0
-6.47175e-06 -1.97808e-05 0.0
1.49809e-05 -4.85413e-05 0.0
2.33317e-05 -2.32608e-05 0.0
0.340894 0.123143 0.0
0.000304175 0.250376 0.0
-0.0639839 0.273821 0.0
-0.0620806 0.255527 0.0
-0.0477566 0.225824 0.0
-0.034795 0.196181 0.0
-0.0253693 0.170303 0.0
-0.0188955 0.148711 0.0
-0.0144783 0.130896 0.0
-0.0114172 0.116144 0.0
-0.0092418 0.103805 0.0
-0.00765202 0.0933576 0.0
-0.00645828 0.0844019 0.0
-0.00553951 0.0766345 0.0
-0.00481676 0.0698261 0.0
-0.0042372 0.0638015 0.0
-0.00376458 0.0584256 0.0
-0.00337338 0.053593 0.0
-0.0030452 0.0492205 0.0
-0.00276653 0.0452414 0.0
-0.00252729 0.0416021 0.0
-0.00231982 0.0382588 0.0
-0.00213828 0.0351754 0.0
-0.00197814 0.032322 0.0
-0.00183586 0.0296733 0.0
-0.00170868 0.0272079 0.0
-0.00159439 0.0249076 0.0
-0.00149125 0.0227564 0.0
-0.00139781 0.0207405 0.0
-0.00131291 0.0188478 0.0
-0.00123552 0.0170673 0.0
-0.00116476 0.0153897 0.0
-0.0010998 0.0138066 0.0
-0.00103982 0.0123107 0.0
-0.000983971 0.010896 0.0
-0.000931338 0.00955749 0.0
-0.000880879 0.00829162 0.0
-0.000831389 0.00709628 0.0
-0.000781449 0.00597109 0.0
-0.000729388 0.00491767 0.0
-0.000673246 0.00393988 0.0
-0.00061077 0.00304411 0.0
-0.00053947 0.00223944 0.0
-0.000456812 0.00153756 0.0
-0.000360736 0.000952269 0.0
-0.000250959 0.000498052 0.0
-0.000131972 0.000186334 0.0
-1.83821e-05 1.90354e-05 0.0
4.83367e-05 -1.45455e-05 0.0
0.501801 0.0770734 0.0
0.101227 0.1845 0.0
-0.0368368 0.251851 0.0
-0.0712884 0.269392 0.0
-0.0707474 0.261567 0.0
-0.0607824 0.243511 0.0
-0.0499307 0.222412 0.0
-0.040619 0.201595 0.0
-0.0332173 0.18239 0.0
-0.0274788 0.165172 0.0
-0.0230425 0.149906 0.0
-0.0195876 0.136404 0.0
-0.0168645 0.124438 0.0
-0.0146885 0.11379 0.0
-0.0129256 0.104268 0.0
-0.0114782 0.0957066 0.0
-0.0102749 0.0879695 0.0
-0.00926292 0.0809427 0.0
-0.00840255 0.0745316 0.0
-0.00766373 0.0686577 0.0
-0.0070234 0.0632553 0.0
-0.00646367 0.0582694 0.0
-0.00597058 0.0536536 0.0
-0.00553314 0.0493684 0.0
-0.00514265 0.0453802 0.0
-0.00479217 0.0416598 0.0
-0.00447615 0.0381819 0.0
-0.00419006 0.0349244 0.0
-0.0039302 0.0318677 0.0
-0.00369343 0.0289946 0.0
-0.00347708 0.0262896 0.0
-0.00327871 0.0237392 0.0
-0.00309607 0.0213312 0.0
-0.0029269 0.0190553 0.0
-0.00276887 0.0169026 0.0
-0.00261945 0.014866 0.0
-0.00247582 0.0129403 0.0
-0.00233472 0.0111226 0.0
-0.00219242 0.00941206 0.0
-0.00204463 0.0078109 0.0
-0.00188648 0.00632419 0.0
-0.00171261 0.00496032 0.0
-0.0015175 0.00373093 0.0
-0.00129607 0.00265066 0.0
-0.00104509 0.00173624 0.0
-0.000765958 0.00100474 0.0
-0.00046991 0.000468768 0.0
-0.000185946 0.000132626 0.0
1.86333e-05 7.25446e-06 0.0
0.611692 0.0483183 0.0
0.198967 0.135177 0.0
0.0150281 0.2117 0.0
-0.0553476 0.249391 0.0
-0.0751181 0.25983 0.0
-0.0749457 0.255441 0.0
-0.0679037 0.243373 0.0
-0.059313 0.227944 0.0
-0.0511736 0.211549 0.0
-0.0441016 0.19542 0.0
-0.0381669 0.180137 0.0
-0.033249 0.165935 0.0
-0.0291813 0.152863 0.0
-0.0258046 0.140882 0.0
-0.0229839 0.129915 0.0
-0.0206096 0.11987 0.0
-0.0185949 0.110654 0.0
-0.0168712 0.102181 0.0
-0.0153846 0.0943728 0.0
-0.0140925 0.0871594 0.0
-0.0129611 0.0804796 0.0
-0.0119635 0.0742796 0.0
-0.011078 0.0685126 0.0
-0.0102874 0.0631373 0.0
-0.00957786 0.0581176 0.0
-0.00893804 0.0534219 0.0
-0.00835877 0.0490218 0.0
-0.00783253 0.0448923 0.0
-0.00735301 0.0410109 0.0
-0.00691487 0.0373573 0.0
-0.00651341 0.0339136 0.0
-0.00614438 0.0306635 0.0
-0.00580372 0.0275928 0.0
-0.0054874 0.0246887 0.0
-0.0051912 0.0219408 0.0
-0.00491056 0.0193405 0.0
-0.00464038 0.0168814 0.0
-0.00437487 0.0145597 0.0
-0.00410746 0.0123744 0.0
-0.00383069 0.0103276 0.0
-0.0035363 0.00842492 0.0
-0.00321543 0.00667547 0.0
-0.00285929 0.00509191 0.0
-0.00246021 0.00369005 0.0
-0.00201386 0.00248794 0.0
-0.00152301 0.00150444 0.0
-0.00100402 0.000754341 0.0
-0.000495322 0.000248475 0.0
-7.70056e-05 2.89732e-05 0.0
0.682713 0.0303761 0.0
0.282621 0.099095 0.0
0.0738101 0.172509 0.0
-0.0248261 0.219029 0.0
-0.0651792 0.241679 0.0
-0.0776682 0.248447 0.0
-0.0776688 0.245271 0.0
-0.0725716 0.236351 0.0
-0.0658159 0.224419 0.0
-0.0589354 0.211154 0.0
-0.0525561 0.19755 0.0
-0.0468828 0.184177 0.0
-0.0419332 0.171339 0.0
-0.0376497 0.159183 0.0
-0.03395 0.147767 0.0
-0.0307502 0.137093 0.0
-0.0279734 0.127137 0.0
-0.0255531 0.117857 0.0
-0.0234326 0.109209 0.0
-0.0215648 0.101145 0.0
-0.0199106 0.0936194 0.0
-0.0184377 0.086589 0.0
-0.0171195 0.0800138 0.0
-0.0159342 0.0738572 0.0
-0.0148637 0.0680858 0.0
-0.0138934 0.0626691 0.0
-0.0130109 0.0575795 0.0
-0.0122059 0.0527918 0.0
-0.0114697 0.0482828 0.0
-0.010795 0.0440316 0.0
-0.0101749 0.0400191 0.0
-0.00960344 0.0362279 0.0
-0.00907455 0.0326425 0.0
-0.00858231 0.0292493 0.0
-0.00812043 0.0260366 0.0
-0.00768209 0.0229949 0.0
-0.00725969 0.0201172 0.0
-0.00684465 0.0173988 0.0
-0.00642727 0.0148386 0.0
-0.00599671 0.0124382 0.0
-0.00554109 0.0102032 0.0
-0.00504792 0.00814276 0.0
-0.00450496 0.00626974 0.0
-0.00390177 0.00460037 0.0
-0.00323235 0.00315365 0.0
-0.00249946 0.00195054 0.0
-0.00172118 0.00100948 0.0
-0.000938893 0.000350169 0.0
-0.000233362 4.699e-05 0.0
0.732515 0.0193069 0.0
0.353613 0.0734872 0.0
0.132124 0.139765 0.0
0.0131695 0.188001 0.0
-0.0458467 0.217782 0.0
-0.0715384 0.232385 0.0
-0.0801043 0.236434 0.0
-0.0802106 0.23351 0.0
-0.0763887 0.226242 0.0
-0.0709731 0.216435 0.0
-0.0651389 0.205288 0.0
-0.059453 0.193578 0.0
-0.0541661 0.181792 0.0
-0.0493674 0.17023 0.0
-0.0450659 0.159067 0.0
-0.041233 0.148397 0.0
-0.0378248 0.138265 0.0
-0.0347932 0.128684 0.0
-0.0320917 0.119646 0.0
-0.0296776 0.111134 0.0
-0.0275131 0.103124 0.0
-0.0255654 0.0955877 0.0
-0.0238064 0.0884978 0.0
-0.0222124 0.0818262 0.0
-0.0207631 0.0755457 0.0
-0.0194417 0.0696302 0.0
-0.0182337 0.0640553 0.0
-0.017127 0.0587977 0.0
-0.0161111 0.0538357 0.0
-0.0151767 0.049149 0.0
-0.0143153 0.0447187 0.0
-0.0135192 0.0405276 0.0
-0.0127807 0.0365599 0.0
-0.0120918 0.0328016 0.0
-0.0114441 0.0292407 0.0
-0.0108287 0.0258671 0.0
-0.0102352 0.0226733 0.0
-0.00965232 0.0196543 0.0
-0.00906705 0.0168082 0.0
-0.00846509 0.0141366 0.0
-0.00783088 0.0116445 0.0
-0.00714814 0.00934088 0.0
-0.00640097 0.00723842 0.0
-0.00557567 0.00535365 0.0
-0.00466357 0.00370664 0.0
-0.00366535 0.00232103 0.0
-0.00259723 0.00121978 0.0
-0.00149763 0.000432043 0.0
-0.000439385 6.06161e-05 0.0
0.768633 0.0125981 0.0
0.412958 0.0556201 0.0
0.186417 0.113844 0.0
0.0531305 0.160484 0.0
-0.0210904 0.193271 0.0
-0.0591619 0.212838 0.0
-0.0766651 0.222163 0.0
-0.0828374 0.224125 0.0
-0.0829348 0.22103 0.0
-0.0799141 0.21461 0.0
-0.0754276 0.206111 0.0
-0.0703872 0.196405 0.0
-0.0652855 0.186088 0.0
-0.0603776 0.175564 0.0
-0.0557845 0.165096 0.0
-0.0515525 0.154856 0.0
-0.0476871 0.144949 0.0
-0.0441724 0.135436 0.0
-0.0409824 0.126349 0.0
-0.0380873 0.117701 0.0
-0.0354572 0.109492 0.0
-0.0330636 0.101711 0.0
-0.030881 0.094346 0.0
-0.0288864 0.0873792 0.0
-0.0270598 0.080792 0.0
-0.0253838 0.0745646 0.0
-0.0238434 0.0686774 0.0
-0.0224256 0.0631107 0.0
-0.0211186 0.0578454 0.0
-0.0199121 0.052863 0.0
-0.0187964 0.0481459 0.0
-0.0177623 0.0436777 0.0
-0.0168005 0.0394432 0.0
-0.0159015 0.0354285 0.0
-0.015055 0.0316216 0.0
-0.0142496 0.0280123 0.0
-0.0134726 0.0245927 0.0
-0.0127098 0.0213577 0.0
-0.011945 0.0183049 0.0
-0.0111605 0.0154353 0.0
-0.0103369 0.0127537 0.0
-0.00945412 0.0102684 0.0
-0.00849219 0.00799215 0.0
-0.00743348 0.00594184 0.0
-0.00626539 0.00413881 0.0
-0.00498447 0.00260962 0.0
-0.00360177 0.00138202 0.0
-0.00214823 0.000493741 0.0
-0.00068338 7.02788e-05 0.0
0.795475 0.00850817 0.0
0.462369 0.0430174 0.0
0.235536 0.0935301 0.0
0.0925162 0.137077 0.0
0.006456 0.170255 0.0
-0.0427267 0.192691 0.0
-0.0688871 0.205601 0.0
-0.081399 0.211277 0.0
-0.0859406 0.211628 0.0
-0.0859155 0.208211 0.0
-0.0833593 0.202224 0.0
-0.0794854 0.194555 0.0
-0.0750132 0.18585 0.0
-0.0703633 0.176571 0.0
-0.065776 0.167041 0.0
-0.0613821 0.157487 0.0
-0.0572461 0.148062 0.0
-0.0533935 0.13887 0.0
-0.0498268 0.129975 0.0
-0.0465358 0.12142 0.0
-0.0435037 0.113224 0.0
-0.0407113 0.1054 0.0
-0.0381386 0.0979462 0.0
-0.0357666 0.0908585 0.0
-0.0335779 0.0841271 0.0
-0.0315564 0.0777398 0.0
-0.0296878 0.0716825 0.0
-0.0279592 0.06594 0.0
-0.026359 0.0604964 0.0
-0.0248763 0.0553361 0.0
-0.0235007 0.0504431 0.0
-0.0222221 0.0458026 0.0
-0.02103 0.0414 0.0
-0.0199135 0.0372223 0.0
-0.0188605 0.0332576 0.0
-0.0178576 0.0294959 0.0
-0.0168899 0.0259293 0.0
-0.0159402 0.0225522 0.0
-0.0149895 0.019362 0.0
-0.0140164 0.0163593 0.0
-0.0129979 0.0135483 0.0
-0.0119097 0.0109371 0.0
-0.0107275 0.00853841 0.0
-0.0094289 0.00636951 0.0
-0.00799626 0.00445317 0.0
-0.00642007 0.00281877 0.0
-0.00470366 0.00149846 0.0
-0.0028674 0.000537058 0.0
-0.000954657 7.66687e-05 0.0
0.815999 0.00596668 0.0
0.503661 0.0339685 0.0
0.279343 0.0776125 0.0
0.129934 0.117536 0.0
0.0346405 0.149794 0.0
-0.023949 0.173412 0.0
-0.0581078 0.188583 0.0
-0.0768536 0.196923 0.0
-0.0860324 0.199967 0.0
-0.0893387 0.199058 0.0
-0.0890972 0.195292 0.0
-0.08677 0.189523 0.0
-0.0832763 0.182403 0.0
-0.0791911 0.174416 0.0
-0.0748709 0.165923 0.0
-0.0705329 0.157185 0.0
-0.0663055 0.148391 0.0
-0.0622602 0.139674 0.0
-0.0584333 0.13113 0.0
-0.0548388 0.122822 0.0
-0.0514773 0.114793 0.0
-0.0483421 0.10707 0.0
-0.0454224 0.0996675 0.0
-0.0427056 0.0925916 0.0
-0.0401785 0.0858422 0.0
-0.0378285 0.0794145 0.0
-0.0356434 0.0733005 0.0
-0.0336117 0.0674897 0.0
-0.0317225 0.0619701 0.0
-0.0299654 0.0567286 0.0
-0.0283299 0.051752 0.0
-0.0268055 0.0470265 0.0
-0.0253809 0.0425392 0.0
-0.024044 0.0382775 0.0
-0.0227814 0.0342303 0.0
-0.0215779 0.0303877 0.0
-0.0204163 0.0267416 0.0
-0.0192771 0.0232866 0.0
-0.0181379 0.0200196 0.0
-0.0169742 0.0169407 0.0
-0.0157591 0.0140539 0.0
-0.0144639 0.0113669 0.0
-0.0130597 0.0088925 0.0
-0.0115185 0.00664841 0.0
-0.00981664 0.00465872 0.0
-0.00793697 0.00295525 0.0
-0.00587332 0.00157379 0.0
-0.00363365 0.000564463 0.0
-0.00124398 8.04483e-05 0.0
0.832117 0.00434602 0.0
0.538388 0.0273405 0.0
0.318178 0.0650564 0.0
0.164807 0.101283 0.0
0.0623602 0.131953 0.0
-0.00402487 0.155636 0.0
-0.0453922 0.172103 0.0
-0.0700445 0.182247 0.0
-0.0838307 0.187311 0.0
-0.0906084 0.188413 0.0
-0.0929066 0.186524 0.0
-0.0923835 0.182436 0.0
-0.0901262 0.176778 0.0
-0.086847 0.170036 0.0
-0.0830102 0.162583 0.0
-0.0789168 0.154702 0.0
-0.0747585 0.146603 0.0
-0.0706555 0.138445 0.0
-0.0666799 0.130343 0.0
-0.062873 0.122381 0.0
-0.059256 0.114618 0.0
-0.0558372 0.107097 0.0
-0.0526173 0.0998445 0.0
-0.0495921 0.0928772 0.0
-0.0467551 0.0862039 0.0
-0.0440982 0.079827 0.0
-0.0416127 0.0737442 0.0
-0.0392897 0.0679498 0.0
-0.0371201 0.0624355 0.0
-0.0350944 0.0571914 0.0
-0.0332028 0.0522062 0.0
-0.0314349 0.047468 0.0
-0.029779 0.0429651 0.0
-0.0282224 0.0386859 0.0
-0.0267504 0.0346196 0.0
-0.0253463 0.0307566 0.0
-0.023991 0.0270892 0.0
-0.0226623 0.0236114 0.0
-0.0213354 0.02032 0.0
-0.0199821 0.0172149 0.0
-0.0185717 0.0142995 0.0
-0.017071 0.0115815 0.0
-0.0154458 0.0090735 0.0
-0.0136625 0.00679365 0.0
-0.01169 0.0047671 0.0
-0.00950273 0.00302755 0.0
-0.00708387 0.00161344 0.0
-0.00442797 0.000578472 0.0
-0.00154361 8.21774e-05 0.0
0.845061 0.00327987 0.0
0.567804 0.0223836 0.0
0.35253 0.055057 0.0
0.196944 0.0877515 0.0
0.0890173 0.116512 0.0
0.0162322 0.139586 0.0
-0.0315213 0.156637 0.0
-0.0616519 0.167931 0.0
-0.0798835 0.174456 0.0
-0.0901395 0.177122 0.0
-0.0950841 0.17677 0.0
-0.0965235 0.174118 0.0
-0.0956823 0.169755 0.0
-0.0933901 0.164154 0.0
-0.0902083 0.157686 0.0
-0.0865151 0.150643 0.0
-0.0825637 0.143249 0.0
-0.0785217 0.135678 0.0
-0.0744985 0.128061 0.0
-0.0705639 0.120498 0.0
-0.0667614 0.113061 0.0
-0.0631163 0.105805 0.0
-0.0596426 0.0987684 0.0
-0.0563464 0.0919769 0.0
-0.053229 0.0854471 0.0
-0.0502884 0.0791879 0.0
-0.0475207 0.0732027 0.0
-0.0449204 0.0674899 0.0
-0.042481 0.0620448 0.0
-0.0401948 0.0568603 0.0
-0.0380533 0.051927 0.0
-0.0360465 0.047235 0.0
-0.034163 0.0427736 0.0
-0.0323895 0.0385319 0.0
-0.0307106 0.0344997 0.0
-0.0291083 0.0306679 0.0
-0.0275616 0.0270283 0.0
-0.0260462 0.0235753 0.0
-0.0245344 0.0203051 0.0
-0.0229947 0.0172173 0.0
-0.0213925 0.014315 0.0
-0.0196899 0.0116056 0.0
-0.0178474 0.0091015 0.0
-0.0158248 0.00682124 0.0
-0.0135834 0.00479057 0.0
-0.0110884 0.00304436 0.0
-0.00831162 0.00162272 0.0
-0.00523405 0.000581363 0.0
-0.00184717 8.2303e-05 0.0
0.855659 0.00255457 0.0
0.59291 0.0186027 0.0
0.382926 0.0470182 0.0
0.226362 0.0764623 0.0
0.114262 0.103211 0.0
0.0361292 0.125371 0.0
-0.0171023 0.142424 0.0
-0.0522223 0.154373 0.0
-0.074655 0.161899 0.0
-0.0883071 0.165741 0.0
-0.0959197 0.166613 0.0
-0.099405 0.165153 0.0
-0.100096 0.161904 0.0
-0.0989203 0.157313 0.0
-0.0965241 0.151741 0.0
-0.0933555 0.145482 0.0
-0.0897244 0.138765 0.0
-0.0858444 0.131773 0.0
-0.0818613 0.124649 0.0
-0.0778741 0.117504 0.0
-0.0739491 0.110421 0.0
-0.0701303 0.103465 0.0
-0.0664459 0.0966844 0.0
-0.0629138 0.090112 0.0
-0.0595443 0.0837716 0.0
-0.0563428 0.0776778 0.0
-0.0533109 0.0718387 0.0
-0.0504476 0.0662566 0.0
-0.0477498 0.0609299 0.0
-0.0452123 0.0558537 0.0
-0.0428281 0.0510209 0.0
-0.0405884 0.0464228 0.0
-0.0384822 0.0420495 0.0
-0.0364962 0.0378911 0.0
-0.0346144 0.0339377 0.0
-0.0328177 0.0301802 0.0
-0.0310836 0.0266107 0.0
-0.0293856 0.0232231 0.0
-0.0276933 0.0200135 0.0
-0.0259722 0.016981 0.0
-0.0241834 0.0141283 0.0
-0.0222844 0.0114625 0.0
-0.02023 0.00899576 0.0
-0.0179733 0.0067465 0.0
-0.0154675 0.00474069 0.0
-0.0126684 0.00301371 0.0
-0.00953608 0.00160638 0.0
-0.00603802 0.000575073 0.0
-0.00214944 8.11697e-05 0.0
0.864479 0.00204375 0.0
0.614498 0.0156634 0.0
0.409871 0.0404854 0.0
0.25321 0.0669863 0.0
0.137979 0.0917273 0.0
0.0554197 0.112788 0.0
-0.00253688 0.129497 0.0
-0.0421752 0.141747 0.0
-0.0685247 0.149915 0.0
-0.0854353 0.154613 0.0
-0.0956787 0.156436 0.0
-0.101238 0.155945 0.0
-0.103528 0.15363 0.0
-0.103556 0.14991 0.0
-0.102042 0.145131 0.0
-0.0994936 0.139579 0.0
-0.0962737 0.133487 0.0
-0.0926386 0.127042 0.0
-0.0887692 0.120394 0.0
-0.0847931 0.113662 0.0
-0.0808002 0.106939 0.0
-0.0768533 0.100297 0.0
-0.0729963 0.0937922 0.0
-0.0692595 0.0874642 0.0
-0.0656633 0.0813424 0.0
-0.0622215 0.0754463 0.0
-0.0589421 0.0697878 0.0
-0.0558293 0.0643726 0.0
-0.0528839 0.0592017 0.0
-0.0501038 0.0542722 0.0
-0.0474843 0.0495783 0.0
-0.045018 0.0451125 0.0
-0.0426947 0.0408658 0.0
-0.0405013 0.0368287 0.0
-0.0384215 0.0329916 0.0
-0.0364353 0.0293452 0.0
-0.0345187 0.0258818 0.0
-0.0326434 0.0225947 0.0
-0.0307764 0.0194799 0.0
-0.0288798 0.0165359 0.0
-0.0269109 0.013765 0.0
-0.0248224 0.0111737 0.0
-0.0225633 0.00877372 0.0
-0.0200797 0.00658318 0.0
-0.0173168 0.00462776 0.0
-0.0142205 0.00294262 0.0
-0.0107396 0.00156845 0.0
-0.00682823 0.000561178 0.0
-0.00244612 7.90358e-05 0.0
0.87192 0.00167205 0.0
0.633194 0.0133389 0.0
0.433813 0.0351232 0.0
0.277668 0.0589883 0.0
0.160119 0.0817997 0.0
0.0738959 0.101677 0.0
0.0118861 0.117818 0.0
-0.031813 0.130103 0.0
-0.061788 0.138643 0.0
-0.0817921 0.14394 0.0
-0.094593 0.146484 0.0
-0.102216 0.146761 0.0
-0.106135 0.145214 0.0
-0.107423 0.142227 0.0
-0.106857 0.13813 0.0
-0.105001 0.1332 0.0
-0.102263 0.127668 0.0
-0.0989388 0.121721 0.0
-0.0952426 0.115516 0.0
-0.0913301 0.109176 0.0
-0.0873142 0.102803 0.0
-0.0832773 0.0964738 0.0
-0.0792793 0.0902502 0.0
-0.0753638 0.0841783 0.0
-0.0715624 0.0782917 0.0
-0.0678975 0.0726139 0.0
-0.0643847 0.06716 0.0
-0.0610338 0.0619381 0.0
-0.0578503 0.0569513 0.0
-0.0548357 0.0521982 0.0
-0.0519877 0.0476741 0.0
-0.0493008 0.0433721 0.0
-0.046766 0.0392838 0.0
-0.0443705 0.0353998 0.0
-0.0420978 0.0317106 0.0
-0.0399274 0.0282069 0.0
-0.037834 0.0248805 0.0
-0.0357874 0.0217245 0.0
-0.0337521 0.0187343 0.0
-0.031687 0.015908 0.0
-0.0295456 0.0132471 0.0
-0.0272756 0.0107576 0.0
-0.0248204 0.00845048 0.0
-0.0221191 0.00634313 0.0
-0.0191088 0.00446052 0.0
-0.0157256 0.00283695 0.0
-0.0119072 0.00151223 0.0
-0.00759481 0.000540917 0.0
-0.00273368 7.60891e-05 0.0
0.878273 0.00139361 0.0
0.649491 0.0114729 0.0
0.45515 0.0306814 0.0
0.29994 0.0522021 0.0
0.180712 0.0732028 0.0
0.0914543 0.0918786 0.0
0.025908 0.107358 0.0
-0.0213754 0.119447 0.0
-0.0546813 0.128149 0.0
-0.0775998 0.133835 0.0
-0.0928626 0.136903 0.0
-0.102513 0.137773 0.0
-0.108066 0.136839 0.0
-0.110643 0.134455 0.0
-0.111071 0.130932 0.0
-0.109958 0.126534 0.0
-0.107754 0.121488 0.0
-0.104792 0.115984 0.0
-0.101315 0.110178 0.0
-0.097507 0.1042 0.0
-0.0935035 0.0981547 0.0
-0.0894064 0.092126 0.0
-0.0852921 0.0861796 0.0
-0.0812183 0.0803658 0.0
-0.077228 0.0747221 0.0
-0.0733534 0.0692749 0.0
-0.0696179 0.0640415 0.0
-0.0660379 0.0590323 0.0
-0.0626239 0.0542512 0.0
-0.0593811 0.049698 0.0
-0.0563104 0.0453686 0.0
-0.0534083 0.0412565 0.0
-0.0506669 0.0373533 0.0
-0.0480745 0.0336495 0.0
-0.0456143 0.0301355 0.0
-0.0432653 0.0268017 0.0
-0.041001 0.0236394 0.0
-0.0387895 0.0206413 0.0
-0.0365928 0.0178021 0.0
-0.0343669 0.0151192 0.0
-0.0320613 0.0125934 0.0
-0.029619 0.0102299 0.0
-0.0269776 0.00803871 0.0
-0.0240696 0.00603621 0.0
-0.0208237 0.00424616 0.0
-0.0171668 0.00270143 0.0
-0.0130257 0.00144032 0.0
-0.00832935 0.000515237 0.0
-0.00300912 7.24622e-05 0.0
0.883752 0.00117955 0.0
0.663788 0.00995416 0.0
0.474225 0.0269685 0.0
0.320232 0.0464078 0.0
0.199826 0.0657256 0.0
0.108066 0.0832107 0.0
0.0394478 0.0979672 0.0
-0.0110348 0.10973 0.0
-0.0473946 0.118436 0.0
-0.0730434 0.124339 0.0
-0.0906591 0.127767 0.0
-0.102283 0.129078 0.0
-0.109456 0.128621 0.0
-0.113333 0.126719 0.0
-0.114781 0.123664 0.0
-0.114446 0.119709 0.0
-0.112815 0.115076 0.0
-0.11025 0.109952 0.0
-0.107028 0.104496 0.0
-0.103354 0.0988417 0.0
-0.0993889 0.0930969 0.0
-0.095253 0.0873496 0.0
-0.0910399 0.0816692 0.0
-0.0868216 0.0761094 0.0
-0.0826536 0.0707101 0.0
-0.0785782 0.0655001 0.0
-0.0746274 0.0604982 0.0
-0.0708242 0.0557157 0.0
-0.0671846 0.0511575 0.0
-0.0637183 0.0468235 0.0
-0.0604292 0.0427097 0.0
-0.0573161 0.0388096 0.0
-0.0543729 0.0351144 0.0
-0.0515881 0.0316145 0.0
-0.0489456 0.0282996 0.0
-0.0464235 0.0251597 0.0
-0.0439944 0.0221854 0.0
-0.0416247 0.0193689 0.0
-0.0392741 0.0167041 0.0
-0.0368956 0.0141876 0.0
-0.0344348 0.0118194 0.0
-0.0318303 0.00960347 0.0
-0.029014 0.00754882 0.0
-0.0259116 0.00567041 0.0
-0.0224442 0.00399042 0.0
-0.0185295 0.00253979 0.0
-0.0140839 0.00135471 0.0
-0.00902458 0.000484841 0.0
-0.00326989 6.8245e-05 0.0
0.888518 0.0010112 0.0
0.676399 0.00870244 0.0
0.491329 0.0238378 0.0
0.338733 0.041429 0.0
0.217541 0.0591928 0.0
0.123715 0.0755216 0.0
0.052424 0.089521 0.0
-0.000903885 0.100862 0.0
-0.0400694 0.109462 0.0
-0.068271 0.115449 0.0
-0.0881268 0.119102 0.0
-0.101662 0.120723 0.0
-0.110427 0.120621 0.0
-0.115602 0.11909 0.0
-0.118083 0.116404 0.0
-0.118548 0.112805 0.0
-0.117513 0.108509 0.0
-0.115372 0.103703 0.0
-0.112426 0.0985462 0.0
-0.108907 0.0931742 0.0