# vtk DataFile Version 3.0
Malha 2D com triângulos e temperatura
ASCII
DATASET UNSTRUCTURED_GRID

POINTS 2500 double
0 0 0
1 0 0
1 1 0
0 1 0
0.0204082 0 0
0.0408163 0 0
0.0612245 0 0
0.0816327 0 0
0.102041 0 0
0.122449 0 0
0.142857 0 0
0.163265 0 0
0.183673 0 0
0.204082 0 0
0.22449 0 0
0.244898 0 0
0.265306 0 0
0.285714 0 0
0.306122 0 0
0.326531 0 0
0.346939 0 0
0.367347 0 0
0.387755 0 0
0.408163 0 0
0.428571 0 0
0.44898 0 0
0.469388 0 0
0.489796 0 0
0.510204 0 0
0.530612 0 0
0.55102 0 0
0.571429 0 0
0.591837 0 0
0.612245 0 0
0.632653 0 0
0.653061 0 0
0.673469 0 0
0.693878 0 0
0.714286 0 0
0.734694 0 0
0.755102 0 0
0.77551 0 0
0.795918 0 0
0.816327 0 0
0.836735 0 0
0.857143 0 0
0.877551 0 0
0.897959 0 0
0.918367 0 0
0.938776 0 0
0.959184 0 0
0.979592 0 0
1 0.0204082 0
1 0.0408163 0
1 0.0612245 0
1 0.0816327 0
1 0.102041 0
1 0.122449 0
1 0.142857 0
1 0.163265 0
1 0.183673 0
1 0.204082 0
1 0.22449 0
1 0.244898 0
1 0.265306 0
1 0.285714 0
1 0.306122 0
1 0.326531 0
1 0.346939 0
1 0.367347 0
1 0.387755 0
1 0.408163 0
1 0.428571 0
1 0.44898 0
1 0.469388 0
1 0.489796 0
1 0.510204 0
1 0.530612 0
1 0.55102 0
1 0.571429 0
1 0.591837 0
1 0.612245 0
1 0.632653 0
1 0.653061 0
1 0.673469 0
1 0.693878 0
1 0.714286 0
1 0.734694 0
1 0.755102 0
1 0.77551 0
1 0.795918 0
1 0.816327 0
1 0.836735 0
1 0.857143 0
1 0.877551 0
1 0.897959 0
1 0.918367 0
1 0.938776 0
1 0.959184 0
1 0.979592 0
0.979592 1 0
0.959184 1 0
0.938776 1 0
0.918367 1 0
0.897959 1 0
0.877551 1 0
0.857143 1 0
0.836735 1 0
0.816327 1 0
0.795918 1 0
0.77551 1 0
0.755102 1 0
0.734694 1 0
0.714286 1 0
0.693878 1 0
0.673469 1 0
0.653061 1 0
0.632653 1 0
0.612245 1 0
0.591837 1 0
0.571429 1 0
0.55102 1 0
0.530612 1 0
0.510204 1 0
0.489796 1 0
0.469388 1 0
0.44898 1 0
0.428571 1 0
0.408163 1 0
0.387755 1 0
0.367347 1 0
0.346939 1 0
0.326531 1 0
0.306122 1 0
0.285714 1 0
0.265306 1 0
0.244898 1 0
0.22449 1 0
0.204082 1 0
0.183673 1 0
0.163265 1 0
0.142857 1 0
0.122449 1 0
0.102041 1 0
0.0816327 1 0
0.0612245 1 0
0.0408163 1 0
0.0204082 1 0
0 0.979592 0
0 0.959184 0
0 0.938776 0
0 0.918367 0
0 0.897959 0
0 0.877551 0
0 0.857143 0
0 0.836735 0
0 0.816327 0
0 0.795918 0
0 0.77551 0
0 0.755102 0
0 0.734694 0
0 0.714286 0
0 0.693878 0
0 0.673469 0
0 0.653061 0
0 0.632653 0
0 0.612245 0
0 0.591837 0
0 0.571429 0
0 0.55102 0
0 0.530612 0
0 0.510204 0
0 0.489796 0
0 0.469388 0
0 0.44898 0
0 0.428571 0
0 0.408163 0
0 0.387755 0
0 0.367347 0
0 0.346939 0
0 0.326531 0
0 0.306122 0
0 0.285714 0
0 0.265306 0
0 0.244898 0
0 0.22449 0
0 0.204082 0
0 0.183673 0
0 0.163265 0
0 0.142857 0
0 0.122449 0
0 0.102041 0
0 0.0816327 0
0 0.0612245 0
0 0.0408163 0
0 0.0204082 0
0.0204082 0.979592 0
0.0204082 0.959184 0
0.0204082 0.938776 0
0.0204082 0.918367 0
0.0204082 0.897959 0
0.0204082 0.877551 0
0.0204082 0.857143 0
0.0204082 0.836735 0
0.0204082 0.816327 0
0.0204082 0.795918 0
0.0204082 0.77551 0
0.0204082 0.755102 0
0.0204082 0.734694 0
0.0204082 0.714286 0
0.0204082 0.693878 0
0.0204082 0.673469 0
0.0204082 0.653061 0
0.0204082 0.632653 0
0.0204082 0.612245 0
0.0204082 0.591837 0
0.0204082 0.571429 0
0.0204082 0.55102 0
0.0204082 0.530612 0
0.0204082 0.510204 0
0.0204082 0.489796 0
0.0204082 0.469388 0
0.0204082 0.44898 0
0.0204082 0.428571 0
0.0204082 0.408163 0
0.0204082 0.387755 0
0.0204082 0.367347 0
0.0204082 0.346939 0
0.0204082 0.326531 0
0.0204082 0.306122 0
0.0204082 0.285714 0
0.0204082 0.265306 0
0.0204082 0.244898 0
0.0204082 0.22449 0
0.0204082 0.204082 0
0.0204082 0.183673 0
0.0204082 0.163265 0
0.0204082 0.142857 0
0.0204082 0.122449 0
0.0204082 0.102041 0
0.0204082 0.0816327 0
0.0204082 0.0612245 0
0.0204082 0.0408163 0
0.0204082 0.0204082 0
0.0408163 0.979592 0
0.0408163 0.959184 0
0.0408163 0.938776 0
0.0408163 0.918367 0
0.0408163 0.897959 0
0.0408163 0.877551 0
0.0408163 0.857143 0
0.0408163 0.836735 0
0.0408163 0.816327 0
0.0408163 0.795918 0
0.0408163 0.77551 0
0.0408163 0.755102 0
0.0408163 0.734694 0
0.0408163 0.714286 0
0.0408163 0.693878 0
0.0408163 0.673469 0
0.0408163 0.653061 0
0.0408163 0.632653 0
0.0408163 0.612245 0
0.0408163 0.591837 0
0.0408163 0.571429 0
0.0408163 0.55102 0
0.0408163 0.530612 0
0.0408163 0.510204 0
0.0408163 0.489796 0
0.0408163 0.469388 0
0.0408163 0.44898 0
0.0408163 0.428571 0
0.0408163 0.408163 0
0.0408163 0.387755 0
0.0408163 0.367347 0
0.0408163 0.346939 0
0.0408163 0.326531 0
0.0408163 0.306122 0
0.0408163 0.285714 0
0.0408163 0.265306 0
0.0408163 0.244898 0
0.0408163 0.22449 0
0.0408163 0.204082 0
0.0408163 0.183673 0
0.0408163 0.163265 0
0.0408163 0.142857 0
0.0408163 0.122449 0
0.0408163 0.102041 0
0.0408163 0.0816327 0
0.0408163 0.0612245 0
0.0408163 0.0408163 0
0.0408163 0.0204082 0
0.0612245 0.979592 0
0.0612245 0.959184 0
0.0612245 0.938776 0
0.0612245 0.918367 0
0.0612245 0.897959 0
0.0612245 0.877551 0
0.0612245 0.857143 0
0.0612245 0.836735 0
0.0612245 0.816327 0
0.0612245 0.795918 0
0.0612245 0.77551 0
0.0612245 0.755102 0
0.0612245 0.734694 0
0.0612245 0.714286 0
0.0612245 0.693878 0
0.0612245 0.673469 0
0.0612245 0.653061 0
0.0612245 0.632653 0
0.0612245 0.612245 0
0.0612245 0.591837 0
0.0612245 0.571429 0
0.0612245 0.55102 0
0.0612245 0.530612 0
0.0612245 0.510204 0
0.0612245 0.489796 0
0.0612245 0.469388 0
0.0612245 0.44898 0
0.0612245 0.428571 0
0.0612245 0.408163 0
0.0612245 0.387755 0
0.0612245 0.367347 0
0.0612245 0.346939 0
0.0612245 0.326531 0
0.0612245 0.306122 0
0.0612245 0.285714 0
0.0612245 0.265306 0
0.0612245 0.244898 0
0.0612245 0.22449 0
0.0612245 0.204082 0
0.0612245 0.183673 0
0.0612245 0.163265 0
0.0612245 0.142857 0
0.0612245 0.122449 0
0.0612245 0.102041 0
0.0612245 0.0816327 0
0.0612245 0.0612245 0
0.0612245 0.0408163 0
0.0612245 0.0204082 0
0.0816327 0.979592 0
0.0816327 0.959184 0
0.0816327 0.938776 0
0.0816327 0.918367 0
0.0816327 0.897959 0
0.0816327 0.877551 0
0.0816327 0.857143 0
0.0816327 0.836735 0
0.0816327 0.816327 0
0.0816327 0.795918 0
0.0816327 0.77551 0
0.0816327 0.755102 0
0.0816327 0.734694 0
0.0816327 0.714286 0
0.0816327 0.693878 0
0.0816327 0.673469 0
0.0816327 0.653061 0
0.0816327 0.632653 0
0.0816327 0.612245 0
0.0816327 0.591837 0
0.0816327 0.571429 0
0.0816327 0.55102 0
0.0816327 0.530612 0
0.0816327 0.510204 0
0.0816327 0.489796 0
0.0816327 0.469388 0
0.0816327 0.44898 0
0.0816327 0.428571 0
0.0816327 0.408163 0
0.0816327 0.387755 0
0.0816327 0.367347 0
0.0816327 0.346939 0
0.0816327 0.326531 0
0.0816327 0.306122 0
0.0816327 0.285714 0
0.0816327 0.265306 0
0.0816327 0.244898 0
0.0816327 0.22449 0
0.0816327 0.204082 0
0.0816327 0.183673 0
0.0816327 0.163265 0
0.0816327 0.142857 0
0.0816327 0.122449 0
0.0816327 0.102041 0
0.0816327 0.0816327 0
0.0816327 0.0612245 0
0.0816327 0.0408163 0
0.0816327 0.0204082 0
0.102041 0.979592 0
0.102041 0.959184 0
0.102041 0.938776 0
0.102041 0.918367 0
0.102041 0.897959 0
0.102041 0.877551 0
0.102041 0.857143 0
0.102041 0.836735 0
0.102041 0.816327 0
0.102041 0.795918 0
0.102041 0.77551 0
0.102041 0.755102 0
0.102041 0.734694 0
0.102041 0.714286 0
0.102041 0.693878 0
0.102041 0.673469 0
0.102041 0.653061 0
0.102041 0.632653 0
0.102041 0.612245 0
0.102041 0.591837 0
0.102041 0.571429 0
0.102041 0.55102 0
0.102041 0.530612 0
0.102041 0.510204 0
0.102041 0.489796 0
0.102041 0.469388 0
0.102041 0.44898 0
0.102041 0.428571 0
0.102041 0.408163 0
0.102041 0.387755 0
0.102041 0.367347 0
0.102041 0.346939 0
0.102041 0.326531 0
0.102041 0.306122 0
0.102041 0.285714 0
0.102041 0.265306 0
0.102041 0.244898 0
0.102041 0.22449 0
0.102041 0.204082 0
0.102041 0.183673 0
0.102041 0.163265 0
0.102041 0.142857 0
0.102041 0.122449 0
0.102041 0.102041 0
0.102041 0.0816327 0
0.102041 0.0612245 0
0.102041 0.0408163 0
0.102041 0.0204082 0
0.122449 0.979592 0
0.122449 0.959184 0
0.122449 0.938776 0
0.122449 0.918367 0
0.122449 0.897959 0
0.122449 0.877551 0
0.122449 0.857143 0
0.122449 0.836735 0
0.122449 0.816327 0
0.122449 0.795918 0
0.122449 0.77551 0
0.122449 0.755102 0
0.122449 0.734694 0
0.122449 0.714286 0
0.122449 0.693878 0
0.122449 0.673469 0
0.122449 0.653061 0
0.122449 0.632653 0
0.122449 0.612245 0
0.122449 0.591837 0
0.122449 0.571429 0
0.122449 0.55102 0
0.122449 0.530612 0
0.122449 0.510204 0
0.122449 0.489796 0
0.122449 0.469388 0
0.122449 0.44898 0
0.122449 0.428571 0
0.122449 0.408163 0
0.122449 0.387755 0
0.122449 0.367347 0
0.122449 0.346939 0
0.122449 0.326531 0
0.122449 0.306122 0
0.122449 0.285714 0
0.122449 0.265306 0
0.122449 0.244898 0
0.122449 0.22449 0
0.122449 0.204082 0
0.122449 0.183673 0
0.122449 0.163265 0
0.122449 0.142857 0
0.122449 0.122449 0
0.122449 0.102041 0
0.122449 0.0816327 0
0.122449 0.0612245 0
0.122449 0.0408163 0
0.122449 0.0204082 0
0.142857 0.979592 0
0.142857 0.959184 0
0.142857 0.938776 0
0.142857 0.918367 0
0.142857 0.897959 0
0.142857 0.877551 0
0.142857 0.857143 0
0.142857 0.836735 0
0.142857 0.816327 0
0.142857 0.795918 0
0.142857 0.77551 0
0.142857 0.755102 0
0.142857 0.734694 0
0.142857 0.714286 0
0.142857 0.693878 0
0.142857 0.673469 0
0.142857 0.653061 0
0.142857 0.632653 0
0.142857 0.612245 0
0.142857 0.591837 0
0.142857 0.571429 0
0.142857 0.55102 0
0.142857 0.530612 0
0.142857 0.510204 0
0.142857 0.489796 0
0.142857 0.469388 0
0.142857 0.44898 0
0.142857 0.428571 0
0.142857 0.408163 0
0.142857 0.387755 0
0.142857 0.367347 0
0.142857 0.346939 0
0.142857 0.326531 0
0.142857 0.306122 0
0.142857 0.285714 0
0.142857 0.265306 0
0.142857 0.244898 0
0.142857 0.22449 0
0.142857 0.204082 0
0.142857 0.183673 0
0.142857 0.163265 0
0.142857 0.142857 0
0.142857 0.122449 0
0.142857 0.102041 0
0.142857 0.0816327 0
0.142857 0.0612245 0
0.142857 0.0408163 0
0.142857 0.0204082 0
0.163265 0.979592 0
0.163265 0.959184 0
0.163265 0.938776 0
0.163265 0.918367 0
0.163265 0.897959 0
0.163265 0.877551 0
0.163265 0.857143 0
0.163265 0.836735 0
0.163265 0.816327 0
0.163265 0.795918 0
0.163265 0.77551 0
0.163265 0.755102 0
0.163265 0.734694 0
0.163265 0.714286 0
0.163265 0.693878 0
0.163265 0.673469 0
0.163265 0.653061 0
0.163265 0.632653 0
0.163265 0.612245 0
0.163265 0.591837 0
0.163265 0.571429 0
0.163265 0.55102 0
[...]
CELL_DATA 2401
VECTORS velocity double
0.257357 0.157466 0.0
-0.00265821 0.264663 0.0
-0.0322296 0.205716 0.0
-0.025302 0.151035 0.0
-0.0160021 0.113652 0.0
-0.00967988 0.088359 0.0
-0.00594241 0.0712442 0.0
-0.00379053 0.0594069 0.0
-0.00253273 0.0509556 0.0
-0.00177275 0.0447255 0.0
-0.0012955 0.0399904 0.0
-0.000984861 0.0362849 0.0
-0.000776731 0.0333018 0.0
-0.000634313 0.0308319 0.0
-0.000535499 0.02873 0.0
-0.000466377 0.0268931 0.0
-0.000417825 0.0252474 0.0
-0.000383642 0.0237401 0.0
-0.000359492 0.0223331 0.0
-0.000342275 0.0209993 0.0
-0.000329739 0.01972 0.0
-0.000320235 0.0184823 0.0
-0.000312552 0.0172782 0.0
-0.000305805 0.0161029 0.0
-0.000299361 0.0149541 0.0
-0.000292777 0.0138314 0.0
-0.00028576 0.0127357 0.0
-0.000278131 0.0116686 0.0
-0.000269797 0.0106323 0.0
-0.000260727 0.0096292 0.0
-0.000250934 0.00866179 0.0
-0.000240459 0.00773248 0.0
-0.000229353 0.0068436 0.0
-0.000217669 0.00599729 0.0
-0.000205448 0.0051956 0.0
-0.000192713 0.00444046 0.0
-0.000179463 0.00373377 0.0
-0.00016566 0.00307749 0.0
-0.000151226 0.00247375 0.0
-0.000136035 0.00192491 0.0
-0.0001199 0.00143375 0.0
-0.000102572 0.00100353 0.0
-8.37328e-05 0.000638081 0.0
-6.30285e-05 0.000341811 0.0
-4.01867e-05 0.000119454 0.0
-1.53998e-05 -2.46802e-05 0.0
9.64771e-06 -8.85897e-05 0.0
2.96219e-05 -7.94087e-05 0.0
2.92993e-05 -2.91744e-05 0.0
0.340682 0.123006 0.0
-0.000401548 0.249669 0.0
-0.0649227 0.272199 0.0
-0.0629755 0.253038 0.0
-0.048359 0.22272 0.0
-0.0349718 0.192874 0.0
-0.0251008 0.167274 0.0
-0.0182374 0.146421 0.0
-0.013523 0.129728 0.0
-0.0102658 0.116375 0.0
-0.00798865 0.105605 0.0
-0.00637703 0.0967932 0.0
-0.00522487 0.0894545 0.0
-0.00439518 0.0832171 0.0
-0.00379502 0.0778005 0.0
-0.00335986 0.0729936 0.0
-0.00304394 0.0686386 0.0
-0.00281419 0.0646179 0.0
-0.00264631 0.0608453 0.0
-0.00252227 0.0572579 0.0
-0.00242855 0.0538113 0.0
-0.00235498 0.0504749 0.0
-0.00229397 0.047229 0.0
-0.00223983 0.0440617 0.0
-0.00218842 0.0409674 0.0
-0.0021368 0.0379449 0.0
-0.00208294 0.034996 0.0
-0.00202555 0.0321249 0.0
-0.00196388 0.0293366 0.0
-0.00189762 0.0266373 0.0
-0.0018267 0.0240331 0.0
-0.00175128 0.0215303 0.0
-0.00167157 0.0191349 0.0
-0.00158783 0.0168525 0.0
-0.00150027 0.0146886 0.0
-0.00140898 0.0126484 0.0
-0.00131394 0.010737 0.0
-0.00121497 0.00895967 0.0
-0.00111168 0.00732202 0.0
-0.00100349 0.00583008 0.0
-0.000889646 0.00449056 0.0
-0.000769251 0.0033109 0.0
-0.000641426 0.00229916 0.0
-0.000505634 0.00146364 0.0
-0.000362409 0.000811792 0.0
-0.000215033 0.000348146 0.0
-7.30478e-05 7.013e-05 0.0
4.17369e-05 -4.05658e-05 0.0
7.90541e-05 -2.8856e-05 0.0
0.501113 0.0768671 0.0
0.0996343 0.18355 0.0
-0.0387248 0.249902 0.0
-0.072918 0.266647 0.0
-0.0716729 0.258437 0.0
-0.0607579 0.240524 0.0
-0.0489178 0.220145 0.0
-0.0387303 0.200593 0.0
-0.0306484 0.183102 0.0
-0.0244542 0.167926 0.0
-0.01978 0.154896 0.0
-0.0162785 0.1437 0.0
-0.0136653 0.134 0.0
-0.0117204 0.125488 0.0
-0.0102761 0.117903 0.0
-0.00920622 0.111029 0.0
-0.00841497 0.104699 0.0
-0.00782971 0.0987803 0.0
-0.00739502 0.0931732 0.0
-0.00706843 0.0878038 0.0
-0.00681737 0.0826188 0.0
-0.0066169 0.0775818 0.0
-0.00644803 0.0726693 0.0
-0.00629648 0.0678678 0.0
-0.00615168 0.0631717 0.0
-0.00600603 0.0585808 0.0
-0.00585428 0.0540991 0.0
-0.00569302 0.0497333 0.0
-0.00552028 0.0454916 0.0
-0.00533511 0.0413832 0.0
-0.00513733 0.0374176 0.0
-0.00492723 0.0336041 0.0
-0.00470534 0.0299519 0.0
-0.00447226 0.0264694 0.0
-0.00422849 0.0231648 0.0
-0.00397431 0.020046 0.0
-0.00370968 0.0171207 0.0
-0.00343418 0.0143967 0.0
-0.00314699 0.0118821 0.0
-0.00284693 0.00958535 0.0
-0.00253252 0.00751574 0.0
-0.00220225 0.00568299 0.0
-0.00185506 0.00409714 0.0
-0.00149122 0.00276778 0.0
-0.00111407 0.00170259 0.0
-0.000733306 0.000905019 0.0
-0.00037089 0.000369214 0.0
-6.94677e-05 7.43617e-05 0.0
8.65431e-05 -8.2503e-06 0.0
0.610447 0.0481092 0.0
0.196484 0.134271 0.0
0.0122592 0.210003 0.0
-0.0574415 0.247173 0.0
-0.0759693 0.257645 0.0
-0.0742472 0.253891 0.0
-0.0656288 0.243076 0.0
-0.0556487 0.229459 0.0
-0.0464311 0.215327 0.0
-0.0386399 0.201776 0.0
-0.0323397 0.189248 0.0
-0.0273725 0.177842 0.0
-0.0235191 0.167488 0.0
-0.0205637 0.15805 0.0
-0.0183168 0.149372 0.0
-0.0166204 0.141306 0.0
-0.0153457 0.133724 0.0
-0.0143897 0.126518 0.0
-0.0136702 0.119605 0.0
-0.0131223 0.11292 0.0
-0.0126948 0.106417 0.0
-0.0123477 0.100065 0.0
-0.0120501 0.0938454 0.0
-0.0117787 0.087748 0.0
-0.0115158 0.0817714 0.0
-0.0112488 0.0759192 0.0
-0.0109689 0.0701992 0.0
-0.0106704 0.0646216 0.0
-0.0103501 0.0591982 0.0
-0.0100065 0.0539415 0.0
-0.00963933 0.0488639 0.0
-0.00924917 0.0439777 0.0
-0.00883705 0.0392946 0.0
-0.00840406 0.0348255 0.0
-0.00795115 0.0305809 0.0
-0.00747889 0.0265706 0.0
-0.00698733 0.0228042 0.0
-0.00647591 0.0192914 0.0
-0.00594346 0.0160417 0.0
-0.0053883 0.0130653 0.0
-0.00480846 0.0103726 0.0
-0.00420216 0.0079746 0.0
-0.00356868 0.00588192 0.0
-0.0029098 0.00410445 0.0
-0.00223237 0.00264982 0.0
-0.00155267 0.00152154 0.0
-0.000903586 0.000713935 0.0
-0.00034367 0.000211055 0.0
2.14385e-05 1.66583e-05 0.0
0.680991 0.0302069 0.0
0.279466 0.0984087 0.0
0.0706039 0.171358 0.0
-0.0269361 0.217844 0.0
-0.0654399 0.241049 0.0
-0.0757454 0.249015 0.0
-0.0735786 0.247656 0.0
-0.0665956 0.241092 0.0
-0.0583926 0.231933 0.0
-0.0505649 0.221715 0.0
-0.0437319 0.21129 0.0
-0.0380495 0.201089 0.0
-0.033465 0.191295 0.0
-0.0298432 0.181958 0.0
-0.027026 0.173054 0.0
-0.0248603 0.164529 0.0
-0.0232092 0.156322 0.0
-0.0219552 0.148372 0.0
-0.021 0.140628 0.0
-0.0202631 0.133051 0.0
-0.0196791 0.125613 0.0
-0.0191959 0.118298 0.0
-0.0187726 0.111097 0.0
-0.0183778 0.104009 0.0
-0.0179877 0.0970412 0.0
-0.0175854 0.090203 0.0
-0.0171589 0.0835077 0.0
-0.016701 0.0769702 0.0
-0.0162072 0.0706066 0.0
-0.015676 0.0644329 0.0
-0.0151074 0.0584648 0.0
-0.0145026 0.0527172 0.0
-0.0138633 0.0472042 0.0
-0.0131915 0.0419388 0.0
-0.0124886 0.0369331 0.0
-0.0117559 0.0321984 0.0
-0.0109935 0.0277458 0.0
-0.010201 0.0235857 0.0
-0.009377 0.0197289 0.0
-0.00851953 0.0161862 0.0
-0.00762636 0.0129686 0.0
-0.00669573 0.0100872 0.0
-0.0057275 0.00755318 0.0
-0.00472507 0.00537645 0.0
-0.00369843 0.0035653 0.0
-0.00266899 0.00212508 0.0
-0.00167689 0.00105361 0.0
-0.000789356 0.000344457 0.0
-0.000119541 3.99286e-05 0.0
0.730483 0.0192084 0.0
0.350099 0.0731434 0.0
0.128892 0.139391 0.0
0.0115598 0.188145 0.0
-0.0449568 0.21904 0.0
-0.0678238 0.235424 0.0
-0.0736497 0.241846 0.0
-0.0714098 0.241798 0.0
-0.0658182 0.237774 0.0
-0.0592794 0.231434 0.0
-0.0529575 0.223827 0.0
-0.047357 0.215592 0.0
-0.0426395 0.207099 0.0
-0.0387956 0.198549 0.0
-0.0357368 0.19004 0.0
-0.0333451 0.181612 0.0
-0.0314975 0.173274 0.0
-0.0300787 0.16502 0.0
-0.0289863 0.156843 0.0
-0.0281326 0.148734 0.0
-0.0274442 0.14069 0.0
-0.0268611 0.132714 0.0
-0.0263358 0.124815 0.0
-0.0258311 0.117003 0.0
-0.0253191 0.109295 0.0
-0.0247797 0.10171 0.0
-0.0241991 0.0942676 0.0
-0.0235691 0.086989 0.0
-0.0228851 0.079895 0.0
-0.022146 0.0730057 0.0
-0.0213527 0.06634 0.0
-0.0205075 0.0599155 0.0
-0.0196134 0.0537485 0.0
-0.0186732 0.0478537 0.0
-0.0176896 0.0422444 0.0
-0.0166644 0.0369332 0.0
-0.0155983 0.0319317 0.0
-0.0144912 0.027251 0.0
-0.0133415 0.0229021 0.0
-0.0121473 0.018896 0.0
-0.0109062 0.0152438 0.0
-0.00961651 0.0119567 0.0
-0.00827855 0.00904593 0.0
-0.00689688 0.00652204 0.0
-0.00548348 0.00439489 0.0
-0.00406251 0.00267334 0.0
-0.00267702 0.00136091 0.0
-0.00139596 0.000462943 0.0
-0.000329065 5.95291e-05 0.0
0.76651 0.0125796 0.0
0.409487 0.0556613 0.0
0.183669 0.114326 0.0
0.0526257 0.162014 0.0
-0.0184734 0.196518 0.0
-0.0530964 0.218452 0.0
-0.0673219 0.230686 0.0
-0.0707347 0.23601 0.0
-0.0687945 0.236592 0.0
-0.0645331 0.234013 0.0
-0.0595841 0.229369 0.0
-0.0547819 0.223395 0.0
-0.0505099 0.216571 0.0
-0.0469029 0.209204 0.0
-0.043963 0.201486 0.0
-0.0416264 0.193534 0.0
-0.0398006 0.185423 0.0
-0.0383861 0.1772 0.0
-0.0372868 0.168898 0.0
-0.036416 0.160544 0.0
-0.0356986 0.152161 0.0
-0.0350718 0.143776 0.0
-0.0344849 0.135412 0.0
-0.033898 0.127098 0.0
-0.0332813 0.118862 0.0
-0.0326134 0.110731 0.0
-0.0318804 0.102735 0.0
-0.0310741 0.0949013 0.0
-0.0301911 0.0872556 0.0
-0.0292316 0.0798225 0.0
-0.028198 0.0726246 0.0
-0.0270945 0.065682 0.0
-0.0259256 0.059013 0.0
-0.0246959 0.0526336 0.0
-0.0234094 0.0465584 0.0
-0.0220689 0.0408003 0.0
-0.020676 0.0353713 0.0
-0.0192308 0.0302826 0.0
-0.0177322 0.0255449 0.0
-0.016178 0.0211692 0.0
-0.0145657 0.0171662 0.0
-0.0128936 0.0135472 0.0
-0.0111621 0.0103235 0.0
-0.00937594 0.00750695 0.0
-0.00754749 0.00510961 0.0
-0.00570095 0.00314495 0.0
-0.00387815 0.00162337 0.0
-0.00214384 0.000562248 0.0
-0.000596717 7.51459e-05 0.0
0.793484 0.00856799 0.0
0.459358 0.0434486 0.0
0.233771 0.0948857 0.0
0.0936545 0.140003 0.0
0.0114512 0.175421 0.0
-0.0337449 0.200799 0.0
-0.056155 0.217139 0.0
-0.0655532 0.226629 0.0
-0.0678473 0.231051 0.0
-0.0665228 0.231811 0.0
-0.0635879 0.229958 0.0
-0.0601619 0.226244 0.0
-0.0568344 0.221201 0.0
-0.0538835 0.215196 0.0
-0.0514083 0.208483 0.0
-0.0494084 0.201241 0.0
-0.0478322 0.193594 0.0
-0.0466044 0.185634 0.0
-0.0456433 0.177433 0.0
-0.0448699 0.169049 0.0
-0.0442129 0.160534 0.0
-0.043611 0.151935 0.0
-0.043014 0.143295 0.0
-0.0423824 0.134658 0.0
-0.0416868 0.126064 0.0
-0.0409068 0.117554 0.0
-0.0400298 0.109164 0.0
-0.0390494 0.100929 0.0
-0.0379645 0.0928807 0.0
-0.0367776 0.0850485 0.0
-0.0354938 0.0774582 0.0
-0.0341197 0.0701326 0.0
-0.0326622 0.0630916 0.0
-0.0311282 0.0563527 0.0
-0.0295233 0.0499308 0.0
-0.0278518 0.0438392 0.0
-0.0261164 0.0380897 0.0
-0.0243178 0.0326931 0.0
-0.0224551 0.0276598 0.0
-0.0205262 0.023 0.0
-0.0185283 0.0187242 0.0
-0.0164592 0.0148434 0.0
-0.0143187 0.0113696 0.0
-0.0121106 0.00831572 0.0
-0.00984594 0.00569689 0.0
-0.00754635 0.00353146 0.0
-0.00524885 0.00183691 0.0
-0.00300958 0.000641684 0.0
-0.000911414 8.7085e-05 0.0
0.814359 0.00609668 0.0
0.501524 0.0347679 0.0
0.279056 0.0798093 0.0
0.133219 0.1218 0.0
0.0424307 0.156812 0.0
-0.0115623 0.183839 0.0
-0.0415338 0.20294 0.0
-0.0568646 0.215506 0.0
-0.0636416 0.222975 0.0
-0.0656447 0.226544 0.0
-0.0651626 0.227159 0.0
-0.0635462 0.225543 0.0
-0.0615634 0.222231 0.0
-0.0596237 0.217618 0.0
-0.0579201 0.211996 0.0
-0.0565175 0.20558 0.0
-0.0554085 0.198534 0.0
-0.0545476 0.190986 0.0
-0.0538722 0.183038 0.0
-0.0533154 0.174778 0.0
-0.052814 0.16628 0.0
-0.0523118 0.157614 0.0
-0.0517623 0.148841 0.0
-0.0511291 0.14002 0.0
-0.0503856 0.131206 0.0
-0.0495145 0.122447 0.0
-0.0485062 0.113792 0.0
-0.0473579 0.105281 0.0
-0.046072 0.0969537 0.0
-0.0446546 0.0888423 0.0
-0.0431144 0.0809767 0.0
-0.0414614 0.0733821 0.0
-0.0397058 0.0660801 0.0
-0.037857 0.0590887 0.0
-0.0359231 0.0524235 0.0
-0.0339102 0.0460974 0.0
-0.0318223 0.0401218 0.0
-0.0296609 0.0345067 0.0
-0.0274254 0.0292617 0.0
-0.0251136 0.0243962 0.0
-0.0227223 0.0199201 0.0
-0.0202482 0.0158443 0.0
-0.0176896 0.0121811 0.0
-0.0150484 0.00894522 0.0
-0.0123323 0.00615443 0.0
-0.00955827 0.00383198 0.0
-0.00675567 0.00200192 0.0
-0.00396898 0.000702203 0.0
-0.00126254 9.58261e-05 0.0
0.831021 0.00453432 0.0
0.537517 0.0284671 0.0
0.319839 0.0680193 0.0
0.17073 0.106772 0.0
0.0734613 0.140648 0.0
0.0123757 0.168097 0.0
-0.0245128 0.188977 0.0
-0.0455344 0.203746 0.0
-0.056828 0.213563 0.0
-0.0623527 0.219415 0.0
-0.0645989 0.222129 0.0
-0.0650977 0.222369 0.0
-0.0647641 0.220649 0.0
-0.0641218 0.217368 0.0
-0.0634487 0.21283 0.0
-0.0628717 0.207277 0.0
-0.0624274 0.200895 0.0
-0.0621013 0.193839 0.0
-0.0618524 0.186237 0.0
-0.0616288 0.178198 0.0
-0.0613777 0.169821 0.0
-0.061051 0.161191 0.0
-0.0606083 0.15239 0.0
-0.0600187 0.14349 0.0
-0.0592605 0.134557 0.0
-0.0583213 0.125653 0.0
-0.0571965 0.116834 0.0
-0.0558883 0.108149 0.0
-0.0544041 0.0996415 0.0
-0.0527551 0.0913497 0.0
-0.0509545 0.0833062 0.0
-0.0490168 0.0755386 0.0
-0.046956 0.0680696 0.0
-0.044785 0.060918 0.0
-0.0425148 0.0540991 0.0
-0.0401538 0.0476254 0.0
-0.0377073 0.0415072 0.0
-0.035178 0.0357537 0.0
-0.0325657 0.0303731 0.0
-0.0298678 0.025374 0.0
-0.0270802 0.0207653 0.0
-0.0241981 0.0165577 0.0
-0.0212175 0.0127639 0.0
-0.0181371 0.00939982 0.0
-0.0149598 0.00648595 0.0
-0.011696 0.00404982 0.0
-0.00836535 0.0021211 0.0
-0.00499861 0.00074543 0.0
-0.00164041 0.000101856 0.0
0.844676 0.00351474 0.0
0.568556 0.0237935 0.0
0.35657 0.0587067 0.0
0.205938 0.09436 0.0
0.103807 0.126748 0.0
0.0368065 0.154014 0.0
-0.00596789 0.175741 0.0
-0.0322892 0.192034 0.0
-0.0479888 0.203598 0.0
-0.057091 0.211251 0.0
-0.0622171 0.215698 0.0
-0.0650325 0.217527 0.0
-0.0665693 0.217217 0.0
-0.0674457 0.215152 0.0
-0.0680135 0.211638 0.0
-0.068455 0.206925 0.0
-0.0688478 0.201215 0.0
-0.0692072 0.194681 0.0
-0.069514 0.187469 0.0
-0.0697324 0.179708 0.0
-0.0698216 0.171514 0.0
-0.0697432 0.16299 0.0
-0.0694649 0.154232 0.0
-0.0689629 0.145326 0.0
-0.0682225 0.136352 0.0
-0.0672379 0.127381 0.0
-0.0660113 0.118477 0.0
-0.0645513 0.109697 0.0
-0.0628719 0.101091 0.0
-0.0609904 0.0926992 0.0
-0.058926 0.084559 0.0
-0.0566985 0.0766992 0.0
-0.0543267 0.0691437 0.0
-0.0518278 0.0619114 0.0
-0.049216 0.0550172 0.0
-0.0465023 0.0484725 0.0
-0.0436941 0.0422865 0.0
-0.040795 0.0364669 0.0
-0.0378052 0.0310204 0.0
-0.0347215 0.0259543 0.0
-0.0315386 0.0212764 0.0
-0.0282495 0.0169968 0.0
-0.0248473 0.0131283 0.0
-0.0213261 0.00968793 0.0
-0.0176831 0.00669825 0.0
-0.0139202 0.00419022 0.0
-0.010046 0.00219805 0.0
-0.00607662 0.000773153 0.0
-0.0020364 0.000105607 0.0
0.856123 0.00282429 0.0
0.595598 0.0202471 0.0
0.389736 0.0512553 0.0
0.238838 0.0840365 0.0
0.133149 0.114774 0.0
0.0613119 0.14147 0.0
0.0135244 0.163438 0.0
-0.0176939 0.180722 0.0
-0.0376157 0.193555 0.0
-0.0502607 0.202598 0.0
-0.0583294 0.208441 0.0
-0.0635827 0.211598 0.0
-0.0671426 0.212502 0.0
-0.0697036 0.211512 0.0
-0.0716784 0.208927 0.0
-0.0732969 0.204995 0.0
-0.0746729 0.199927 0.0
-0.0758489 0.193907 0.0
-0.0768262 0.187095 0.0
-0.0775848 0.179634 0.0
-0.0780967 0.171656 0.0
-0.0783337 0.163277 0.0
-0.0782729 0.154608 0.0
-0.0778992 0.145748 0.0
-0.0772064 0.136786 0.0
-0.0761969 0.127805 0.0
-0.0748811 0.118877 0.0
-0.0732758 0.110065 0.0
-0.0714029 0.101424 0.0
-0.0692871 0.0929999 0.0
-0.0669549 0.0848309 0.0
-0.0644324 0.076948 0.0
-0.061744 0.0693755 0.0
-0.0589118 0.0621321 0.0
-0.055954 0.0552318 0.0
-0.0528846 0.0486847 0.0
-0.049713 0.0424984 0.0
-0.0464442 0.0366786 0.0
-0.0430784 0.0312305 0.0
-0.0396119 0.0261592 0.0
-0.0360377 0.0214715 0.0
-0.0323461 0.0171765 0.0
-0.0285262 0.0132868 0.0
-0.0245669 0.00981962 0.0
-0.0204584 0.00679926 0.0
-0.0161933 0.00425906 0.0
-0.011768 0.0022365 0.0
-0.00718297 0.000787061 0.0
-0.00244289 0.000107435 0.0
0.865903 0.00233819 0.0
0.619389 0.0174962 0.0
0.419791 0.045215 0.0
0.269517 0.0753884 0.0
0.161284 0.104449 0.0
0.0854748 0.130351 0.0
0.0333081 0.152235 0.0
-0.00220663 0.169995 0.0
-0.0261147 0.183724 0.0
-0.0422098 0.193808 0.0
-0.0532221 0.20075 0.0
-0.0609756 0.20499 0.0
-0.0666582 0.206912 0.0
-0.0710234 0.206847 0.0
-0.074533 0.205076 0.0
-0.0774561 0.201845 0.0
-0.0799366 0.197365 0.0
-0.0820407 0.191826 0.0
-0.0837879 0.185397 0.0
-0.085173 0.178234 0.0
-0.08618 0.170479 0.0
-0.0867918 0.162263 0.0
-0.0869954 0.153708 0.0
-0.0867855 0.144925 0.0
-0.0861655 0.136013 0.0
-0.0851477 0.127065 0.0
-0.083752 0.118158 0.0
-0.082005 0.109364 0.0
-0.0799378 0.100742 0.0
-0.0775841 0.0923407 0.0
-0.0749783 0.0842009 0.0
-0.0721542 0.0763547 0.0
-0.0691429 0.0688263 0.0
-0.0659718 0.0616338 0.0
-0.0626636 0.0547897 0.0
-0.0592358 0.0483026 0.0
-0.0557003 0.0421778 0.0
-0.0520631 0.0364188 0.0
-0.0483246 0.0310286 0.0
-0.0444804 0.0260103 0.0
-0.0405212 0.0213689 0.0
-0.0364343 0.0171121 0.0
-0.032204 0.0132517 0.0
-0.0278134 0.00980506 0.0
-0.0232445 0.00679686 0.0
-0.01848 0.00426196 0.0
-0.0135034 0.00223989 0.0
-0.00829942 0.000788608 0.0
-0.00285314 0.000107617 0.0
0.874389 0.00198249 0.0
0.64051 0.0153169 0.0
0.447137 0.0402516 0.0
0.298119 0.0680771 0.0
0.188141 0.0954945 0.0
0.109095 0.120471 0.0
0.0531432 0.142042 0.0
0.0138142 0.159944 0.0
-0.0138163 0.174248 0.0
-0.0332349 0.185088 0.0
-0.0471505 0.192872 0.0
-0.0574237 0.197973 0.0
-0.0652881 0.200728 0.0
-0.0715409 0.201436 0.0
-0.0766815 0.200361 0.0
-0.0810095 0.197736 0.0
-0.0846933 0.193774 0.0
-0.0878183 0.188664 0.0
-0.0904193 0.182584 0.0
-0.0925042 0.175698 0.0
-0.0940684 0.168158 0.0
-0.0951052 0.160106 0.0
-0.0956124 0.151676 0.0
-0.0955951 0.142987 0.0
-0.0950674 0.13415 0.0
-0.0940527 0.125264 0.0
-0.092582 0.116415 0.0
-0.0906929 0.10768 0.0
-0.0884271 0.0991207 0.0
-0.0858286 0.0907905 0.0
-0.0829413 0.082731 0.0
-0.0798073 0.0749747 0.0
-0.0764652 0.0675456 0.0
-0.0729486 0.0604604 0.0
-0.0692853 0.05373 0.0
-0.0654966 0.0473605 0.0
-0.0615969 0.0413547 0.0
-0.0575934 0.0357137 0.0
-0.0534869 0.0304375 0.0
-0.0492715 0.0255272 0.0
-0.0449358 0.0209852 0.0
-0.0404632 0.0168177 0.0
-0.0358331 0.0130349 0.0
-0.0310216 0.00965356 0.0
-0.0260024 0.00669814 0.0
-0.0207473 0.00420385 0.0
-0.0152266 0.00221113 0.0
-0.00940927 0.000778966 0.0
-0.00326113 0.000106357 0.0
0.881849 0.00171243 0.0
0.659411 0.0135555 0.0
0.472122 0.0361166 0.0
0.3248 0.0618344 0.0
0.213705 0.0876783 0.0
0.132027 0.111666 0.0
0.0727854 0.13277 0.0
0.0300084 0.150614 0.0
-0.000986963 0.165183 0.0
-0.0235854 0.176551 0.0
-0.0403385 0.184953 0.0
-0.0531214 0.190717 0.0
-0.0631968 0.194132 0.0
-0.0713921 0.195467 0.0
-0.0782339 0.194964 0.0
-0.0840444 0.192847 0.0
-0.0890103 0.189321 0.0
-0.0932315 0.184579 0.0
-0.0967554 0.178801 0.0
-0.0996004 0.172159 0.0
-0.101772 0.164813 0.0
-0.103275 0.156916 0.0
-0.104116 0.14861 0.0
-0.104312 0.140024 0.0
-0.103889 0.131277 0.0
-0.102883 0.122477 0.0
-0.101337 0.113715 0.0
-0.0993003 0.105073 0.0
-0.0968277 0.0966163 0.0
-0.0939743 0.0884002 0.0
-0.0907945 0.0804675 0.0
-0.0873399 0.0728504 0.0
-0.0836574 0.0655719 0.0
-0.0797876 0.0586469 0.0
-0.0757637 0.052084 0.0
-0.0716112 0.0458865 0.0
-0.0673472 0.0400543 0.0
-0.0629802 0.0345854 0.0
-0.0585111 0.0294769 0.0
-0.0539326 0.0247268 0.0
-0.0492306 0.0203351 0.0
-0.0443845 0.0163055 0.0
-0.039368 0.0126465 0.0
-0.03415 0.00937314 0.0
-0.0286951 0.00650908 0.0
-0.0229641 0.00408879 0.0
-0.0169138 0.00215252 0.0
-0.0104971 0.000759019 0.0
-0.00366136 0.000103793 0.0
0.888474 0.00150018 0.0
0.676444 0.0121037 0.0
0.495038 0.0326222 0.0
0.349713 0.0564444 0.0
0.237995 0.0807958 0.0
0.154188 0.103766 0.0
0.0920925 0.124294 0.0
0.046214 0.141925 0.0
0.0121373 0.156548 0.0
-0.0134732 0.168232 0.0
-0.0329821 0.177061 0.0
-0.048245 0.18331 0.0
-0.0605389 0.187228 0.0
-0.07071 0.189049 0.0
-0.0793024 0.188998 0.0
-0.0866535 0.187286 0.0
-0.0929624 0.184112 0.0
-0.0983393 0.179668 0.0
-0.102841 0.174139 0.0
-0.106493 0.167699 0.0
-0.109312 0.16052 0.0
-0.11131 0.15276 0.0
-0.112506 0.144571 0.0
-0.112928 0.136091 0.0
-0.112615 0.127446 0.0
-0.111616 0.11875 0.0
-0.109987 0.110101 0.0
-0.107793 0.101583 0.0
-0.1051 0.0932655 0.0
-0.101978 0.0852044 0.0
-0.0984915 0.0774429 0.0
-0.0947032 0.0700122 0.0
-0.0906689 0.0629336 0.0
-0.0864367 0.0562198 0.0
-0.0820459 0.0498762 0.0
-0.0775263 0.0439032 0.0
-0.0728979 0.0382972 0.0
-0.0681708 0.0330526 0.0
-0.0633455 0.0281632 0.0
-0.0584132 0.0236236 0.0
-0.053357 0.019431 0.0
-0.0481517 0.015586 0.0
-0.0427652 0.0120948 0.0
-0.0371588 0.00897044 0.0
-0.0312876 0.00623452 0.0
-0.025101 0.00391996 0.0
-0.0185423 0.00206579 0.0
-0.0115486 0.000729387 0.0
-0.00404875 0.000100008 0.0
0.894408 0.00132776 0.0
0.691883 0.0108834 0.0
0.516126 0.0296245 0.0
0.373 0.0517324 0.0
0.261045 0.0746717 0.0
0.175527 0.0966157 0.0
0.110948 0.116492 0.0
0.0622655 0.133789 0.0
0.0253254 0.148324 0.0
-0.00308687 0.160119 0.0
-0.025258 0.169213 0.0
-0.042956 0.175784 0.0
-0.0574594 0.180055 0.0
-0.0696223 0.18223 0.0
-0.0799978 0.182513 0.0
-0.0889313 0.181104 0.0
-0.0966286 0.178195 0.0
-0.103206 0.173977 0.0
-0.108725 0.168637 0.0
-0.11322 0.162356 0.0
-0.116713 0.15531 0.0
-0.119225 0.147667 0.0
-0.120787 0.139586 0.0
-0.121438 0.131212 0.0
-0.121231 0.122679 0.0
-0.120229 0.114105 0.0