# vtk DataFile Version 3.0
Malha 2D com triângulos e temperatura
ASCII
DATASET UNSTRUCTURED_GRID

POINTS 2500 double
0 0 0
1 0 0
1 1 0
0 1 0
0.0204082 0 0
0.0408163 0 0
0.0612245 0 0
0.0816327 0 0
0.102041 0 0
0.122449 0 0
0.142857 0 0
0.163265 0 0
0.183673 0 0
0.204082 0 0
0.22449 0 0
0.244898 0 0
0.265306 0 0
0.285714 0 0
0.306122 0 0
0.326531 0 0
0.346939 0 0
0.367347 0 0
0.387755 0 0
0.408163 0 0
0.428571 0 0
0.44898 0 0
0.469388 0 0
0.489796 0 0
0.510204 0 0
0.530612 0 0
0.55102 0 0
0.571429 0 0
0.591837 0 0
0.612245 0 0
0.632653 0 0
0.653061 0 0
0.673469 0 0
0.693878 0 0
0.714286 0 0
0.734694 0 0
0.755102 0 0
0.77551 0 0
0.795918 0 0
0.816327 0 0
0.836735 0 0
0.857143 0 0
0.877551 0 0
0.897959 0 0
0.918367 0 0
0.938776 0 0
0.959184 0 0
0.979592 0 0
1 0.0204082 0
1 0.0408163 0
1 0.0612245 0
1 0.0816327 0
1 0.102041 0
1 0.122449 0
1 0.142857 0
1 0.163265 0
1 0.183673 0
1 0.204082 0
1 0.22449 0
1 0.244898 0
1 0.265306 0
1 0.285714 0
1 0.306122 0
1 0.326531 0
1 0.346939 0
1 0.367347 0
1 0.387755 0
1 0.408163 0
1 0.428571 0
1 0.44898 0
1 0.469388 0
1 0.489796 0
1 0.510204 0
1 0.530612 0
1 0.55102 0
1 0.571429 0
1 0.591837 0
1 0.612245 0
1 0.632653 0
1 0.653061 0
1 0.673469 0
1 0.693878 0
1 0.714286 0
1 0.734694 0
1 0.755102 0
1 0.77551 0
1 0.795918 0
1 0.816327 0
1 0.836735 0
1 0.857143 0
1 0.877551 0
1 0.897959 0
1 0.918367 0
1 0.938776 0
1 0.959184 0
1 0.979592 0
0.979592 1 0
0.959184 1 0
0.938776 1 0
0.918367 1 0
0.897959 1 0
0.877551 1 0
0.857143 1 0
0.836735 1 0
0.816327 1 0
0.795918 1 0
0.77551 1 0
0.755102 1 0
0.734694 1 0
0.714286 1 0
0.693878 1 0
0.673469 1 0
0.653061 1 0
0.632653 1 0
0.612245 1 0
0.591837 1 0
0.571429 1 0
0.55102 1 0
0.530612 1 0
0.510204 1 0
0.489796 1 0
0.469388 1 0
0.44898 1 0
0.428571 1 0
0.408163 1 0
0.387755 1 0
0.367347 1 0
0.346939 1 0
0.326531 1 0
0.306122 1 0
0.285714 1 0
0.265306 1 0
0.244898 1 0
0.22449 1 0
0.204082 1 0
0.183673 1 0
0.163265 1 0
0.142857 1 0
0.122449 1 0
0.102041 1 0
0.0816327 1 0
0.0612245 1 0
0.0408163 1 0
0.0204082 1 0
0 0.979592 0
0 0.959184 0
0 0.938776 0
0 0.918367 0
0 0.897959 0
0 0.877551 0
0 0.857143 0
0 0.836735 0
0 0.816327 0
0 0.795918 0
0 0.77551 0
0 0.755102 0
0 0.734694 0
0 0.714286 0
0 0.693878 0
0 0.673469 0
0 0.653061 0
0 0.632653 0
0 0.612245 0
0 0.591837 0
0 0.571429 0
0 0.55102 0
0 0.530612 0
0 0.510204 0
0 0.489796 0
0 0.469388 0
0 0.44898 0
0 0.428571 0
0 0.408163 0
0 0.387755 0
0 0.367347 0
0 0.346939 0
0 0.326531 0
0 0.306122 0
0 0.285714 0
0 0.265306 0
0 0.244898 0
0 0.22449 0
0 0.204082 0
0 0.183673 0
0 0.163265 0
0 0.142857 0
0 0.122449 0
0 0.102041 0
0 0.0816327 0
0 0.0612245 0
0 0.0408163 0
0 0.0204082 0
0.0204082 0.979592 0
0.0204082 0.959184 0
0.0204082 0.938776 0
0.0204082 0.918367 0
0.0204082 0.897959 0
0.0204082 0.877551 0
0.0204082 0.857143 0
0.0204082 0.836735 0
0.0204082 0.816327 0
0.0204082 0.795918 0
0.0204082 0.77551 0
0.0204082 0.755102 0
0.0204082 0.734694 0
0.0204082 0.714286 0
0.0204082 0.693878 0
0.0204082 0.673469 0
0.0204082 0.653061 0
0.0204082 0.632653 0
0.0204082 0.612245 0
0.0204082 0.591837 0
0.0204082 0.571429 0
0.0204082 0.55102 0
0.0204082 0.530612 0
0.0204082 0.510204 0
0.0204082 0.489796 0
0.0204082 0.469388 0
0.0204082 0.44898 0
0.0204082 0.428571 0
0.0204082 0.408163 0
0.0204082 0.387755 0
0.0204082 0.367347 0
0.0204082 0.346939 0
0.0204082 0.326531 0
0.0204082 0.306122 0
0.0204082 0.285714 0
0.0204082 0.265306 0
0.0204082 0.244898 0
0.0204082 0.22449 0
0.0204082 0.204082 0
0.0204082 0.183673 0
0.0204082 0.163265 0
0.0204082 0.142857 0
0.0204082 0.122449 0
0.0204082 0.102041 0
0.0204082 0.0816327 0
0.0204082 0.0612245 0
0.0204082 0.0408163 0
0.0204082 0.0204082 0
0.0408163 0.979592 0
0.0408163 0.959184 0
0.0408163 0.938776 0
0.0408163 0.918367 0
0.0408163 0.897959 0
0.0408163 0.877551 0
0.0408163 0.857143 0
0.0408163 0.836735 0
0.0408163 0.816327 0
0.0408163 0.795918 0
0.0408163 0.77551 0
0.0408163 0.755102 0
0.0408163 0.734694 0
0.0408163 0.714286 0
0.0408163 0.693878 0
0.0408163 0.673469 0
0.0408163 0.653061 0
0.0408163 0.632653 0
0.0408163 0.612245 0
0.0408163 0.591837 0
0.0408163 0.571429 0
0.0408163 0.55102 0
0.0408163 0.530612 0
0.0408163 0.510204 0
0.0408163 0.489796 0
0.0408163 0.469388 0
0.0408163 0.44898 0
0.0408163 0.428571 0
0.0408163 0.408163 0
0.0408163 0.387755 0
0.0408163 0.367347 0
0.0408163 0.346939 0
0.0408163 0.326531 0
0.0408163 0.306122 0
0.0408163 0.285714 0
0.0408163 0.265306 0
0.0408163 0.244898 0
0.0408163 0.22449 0
0.0408163 0.204082 0
0.0408163 0.183673 0
0.0408163 0.163265 0
0.0408163 0.142857 0
0.0408163 0.122449 0
0.0408163 0.102041 0
0.0408163 0.0816327 0
0.0408163 0.0612245 0
0.0408163 0.0408163 0
0.0408163 0.0204082 0
0.0612245 0.979592 0
0.0612245 0.959184 0
0.0612245 0.938776 0
0.0612245 0.918367 0
0.0612245 0.897959 0
0.0612245 0.877551 0
0.0612245 0.857143 0
0.0612245 0.836735 0
0.0612245 0.816327 0
0.0612245 0.795918 0
0.0612245 0.77551 0
0.0612245 0.755102 0
0.0612245 0.734694 0
0.0612245 0.714286 0
0.0612245 0.693878 0
0.0612245 0.673469 0
0.0612245 0.653061 0
0.0612245 0.632653 0
0.0612245 0.612245 0
0.0612245 0.591837 0
0.0612245 0.571429 0
0.0612245 0.55102 0
0.0612245 0.530612 0
0.0612245 0.510204 0
0.0612245 0.489796 0
0.0612245 0.469388 0
0.0612245 0.44898 0
0.0612245 0.428571 0
0.0612245 0.408163 0
0.0612245 0.387755 0
0.0612245 0.367347 0
0.0612245 0.346939 0
0.0612245 0.326531 0
0.0612245 0.306122 0
0.0612245 0.285714 0
0.0612245 0.265306 0
0.0612245 0.244898 0
0.0612245 0.22449 0
0.0612245 0.204082 0
0.0612245 0.183673 0
0.0612245 0.163265 0
0.0612245 0.142857 0
0.0612245 0.122449 0
0.0612245 0.102041 0
0.0612245 0.0816327 0
0.0612245 0.0612245 0
0.0612245 0.0408163 0
0.0612245 0.0204082 0
0.0816327 0.979592 0
0.0816327 0.959184 0
0.0816327 0.938776 0
0.0816327 0.918367 0
0.0816327 0.897959 0
0.0816327 0.877551 0
0.0816327 0.857143 0
0.0816327 0.836735 0
0.0816327 0.816327 0
0.0816327 0.795918 0
0.0816327 0.77551 0
0.0816327 0.755102 0
0.0816327 0.734694 0
0.0816327 0.714286 0
0.0816327 0.693878 0
0.0816327 0.673469 0
0.0816327 0.653061 0
0.0816327 0.632653 0
0.0816327 0.612245 0
0.0816327 0.591837 0
0.0816327 0.571429 0
0.0816327 0.55102 0
0.0816327 0.530612 0
0.0816327 0.510204 0
0.0816327 0.489796 0
0.0816327 0.469388 0
0.0816327 0.44898 0
0.0816327 0.428571 0
0.0816327 0.408163 0
0.0816327 0.387755 0
0.0816327 0.367347 0
0.0816327 0.346939 0
0.0816327 0.326531 0
0.0816327 0.306122 0
0.0816327 0.285714 0
0.0816327 0.265306 0
0.0816327 0.244898 0
0.0816327 0.22449 0
0.0816327 0.204082 0
0.0816327 0.183673 0
0.0816327 0.163265 0
0.0816327 0.142857 0
0.0816327 0.122449 0
0.0816327 0.102041 0
0.0816327 0.0816327 0
0.0816327 0.0612245 0
0.0816327 0.0408163 0
0.0816327 0.0204082 0
0.102041 0.979592 0
0.102041 0.959184 0
0.102041 0.938776 0
0.102041 0.918367 0
0.102041 0.897959 0
0.102041 0.877551 0
0.102041 0.857143 0
0.102041 0.836735 0
0.102041 0.816327 0
0.102041 0.795918 0
0.102041 0.77551 0
0.102041 0.755102 0
0.102041 0.734694 0
0.102041 0.714286 0
0.102041 0.693878 0
0.102041 0.673469 0
0.102041 0.653061 0
0.102041 0.632653 0
0.102041 0.612245 0
0.102041 0.591837 0
0.102041 0.571429 0
0.102041 0.55102 0
0.102041 0.530612 0
0.102041 0.510204 0
0.102041 0.489796 0
0.102041 0.469388 0
0.102041 0.44898 0
0.102041 0.428571 0
0.102041 0.408163 0
0.102041 0.387755 0
0.102041 0.367347 0
0.102041 0.346939 0
0.102041 0.326531 0
0.102041 0.306122 0
0.102041 0.285714 0
0.102041 0.265306 0
0.102041 0.244898 0
0.102041 0.22449 0
0.102041 0.204082 0
0.102041 0.183673 0
0.102041 0.163265 0
0.102041 0.142857 0
0.102041 0.122449 0
0.102041 0.102041 0
0.102041 0.0816327 0
0.102041 0.0612245 0
0.102041 0.0408163 0
0.102041 0.0204082 0
0.122449 0.979592 0
0.122449 0.959184 0
0.122449 0.938776 0
0.122449 0.918367 0
0.122449 0.897959 0
0.122449 0.877551 0
0.122449 0.857143 0
0.122449 0.836735 0
0.122449 0.816327 0
0.122449 0.795918 0
0.122449 0.77551 0
0.122449 0.755102 0
0.122449 0.734694 0
0.122449 0.714286 0
0.122449 0.693878 0
0.122449 0.673469 0
0.122449 0.653061 0
0.122449 0.632653 0
0.122449 0.612245 0
0.122449 0.591837 0
0.122449 0.571429 0
0.122449 0.55102 0
0.122449 0.530612 0
0.122449 0.510204 0
0.122449 0.489796 0
0.122449 0.469388 0
0.122449 0.44898 0
0.122449 0.428571 0
0.122449 0.408163 0
0.122449 0.387755 0
0.122449 0.367347 0
0.122449 0.346939 0
0.122449 0.326531 0
0.122449 0.306122 0
0.122449 0.285714 0
0.122449 0.265306 0
0.122449 0.244898 0
0.122449 0.22449 0
0.122449 0.204082 0
0.122449 0.183673 0
0.122449 0.163265 0
0.122449 0.142857 0
0.122449 0.122449 0
0.122449 0.102041 0
0.122449 0.0816327 0
0.122449 0.0612245 0
0.122449 0.0408163 0
0.122449 0.0204082 0
0.142857 0.979592 0
0.142857 0.959184 0
0.142857 0.938776 0
0.142857 0.918367 0
0.142857 0.897959 0
0.142857 0.877551 0
0.142857 0.857143 0
0.142857 0.836735 0
0.142857 0.816327 0
0.142857 0.795918 0
0.142857 0.77551 0
0.142857 0.755102 0
0.142857 0.734694 0
0.142857 0.714286 0
0.142857 0.693878 0
0.142857 0.673469 0
0.142857 0.653061 0
0.142857 0.632653 0
0.142857 0.612245 0
0.142857 0.591837 0
0.142857 0.571429 0
0.142857 0.55102 0
0.142857 0.530612 0
0.142857 0.510204 0
0.142857 0.489796 0
0.142857 0.469388 0
0.142857 0.44898 0
0.142857 0.428571 0
0.142857 0.408163 0
0.142857 0.387755 0
0.142857 0.367347 0
0.142857 0.346939 0
0.142857 0.326531 0
0.142857 0.306122 0
0.142857 0.285714 0
0.142857 0.265306 0
0.142857 0.244898 0
0.142857 0.22449 0
0.142857 0.204082 0
0.142857 0.183673 0
0.142857 0.163265 0
0.142857 0.142857 0
0.142857 0.122449 0
0.142857 0.102041 0
0.142857 0.0816327 0
0.142857 0.0612245 0
0.142857 0.0408163 0
0.142857 0.0204082 0
0.163265 0.979592 0
0.163265 0.959184 0
0.163265 0.938776 0
0.163265 0.918367 0
0.163265 0.897959 0
0.163265 0.877551 0
0.163265 0.857143 0
0.163265 0.836735 0
0.163265 0.816327 0
0.163265 0.795918 0
0.163265 0.77551 0
0.163265 0.755102 0
0.163265 0.734694 0
0.163265 0.714286 0
0.163265 0.693878 0
0.163265 0.673469 0
0.163265 0.653061 0
0.163265 0.632653 0
0.163265 0.612245 0
0.163265 0.591837 0
0.163265 0.571429 0
0.163265 0.55102 0
[...]
CELL_DATA 2401
VECTORS velocity double
0.257349 0.157456 0.0
-0.00258273 0.264769 0.0
-0.0320844 0.206131 0.0
-0.0251399 0.151829 0.0
-0.0158714 0.114786 0.0
-0.00960759 0.0896994 0.0
-0.00593502 0.072617 0.0
-0.00384153 0.0606388 0.0
-0.0026295 0.0518989 0.0
-0.00190117 0.0452691 0.0
-0.00144242 0.0400615 0.0
-0.00113916 0.035846 0.0
-0.000929579 0.0323455 0.0
-0.000779049 0.0293752 0.0
-0.000667327 0.0268083 0.0
-0.000582049 0.0245553 0.0
-0.000515342 0.0225517 0.0
-0.000462001 0.0207499 0.0
-0.00041848 0.0191146 0.0
-0.000382299 0.0176187 0.0
-0.00035169 0.0162415 0.0
-0.000325372 0.0149667 0.0
-0.000302409 0.0137816 0.0
-0.000282108 0.0126759 0.0
-0.000263954 0.0116413 0.0
-0.000247562 0.010671 0.0
-0.000232644 0.00975926 0.0
-0.00021898 0.00890109 0.0
-0.000206399 0.00809231 0.0
-0.000194766 0.00732924 0.0
-0.00018397 0.00660862 0.0
-0.000173909 0.00592761 0.0
-0.000164489 0.00528372 0.0
-0.000155612 0.00467482 0.0
-0.00014717 0.00409918 0.0
-0.000139041 0.00355546 0.0
-0.000131082 0.00304283 0.0
-0.00012312 0.00256099 0.0
-0.000114948 0.00211031 0.0
-0.000106312 0.00169189 0.0
-9.69055e-05 0.00130769 0.0
-8.63515e-05 0.000960674 0.0
-7.41975e-05 0.000654893 0.0
-5.99214e-05 0.000395556 0.0
-4.3e-05 0.000188935 0.0
-2.31905e-05 4.19032e-05 0.0
-1.3613e-06 -3.95707e-05 0.0
1.8698e-05 -5.56338e-05 0.0
2.40633e-05 -2.39846e-05 0.0
0.340795 0.123084 0.0
4.03139e-05 0.250112 0.0
-0.0642943 0.27326 0.0
-0.0623374 0.254723 0.0
-0.0478878 0.224891 0.0
-0.0347775 0.195269 0.0
-0.025218 0.169561 0.0
-0.0186447 0.148263 0.0
-0.0141667 0.130826 0.0
-0.0110799 0.116494 0.0
-0.00890658 0.104585 0.0
-0.00733871 0.094549 0.0
-0.00617969 0.0859663 0.0
-0.00530281 0.0785218 0.0
-0.00462487 0.0719796 0.0
-0.00409009 0.0661628 0.0
-0.00366022 0.0609374 0.0
-0.0033085 0.0562011 0.0
-0.00301587 0.0518753 0.0
-0.00276851 0.0478987 0.0
-0.00255628 0.0442231 0.0
-0.00237167 0.0408104 0.0
-0.00220905 0.0376299 0.0
-0.00206419 0.0346566 0.0
-0.00193387 0.03187 0.0
-0.00181564 0.0292529 0.0
-0.00170764 0.0267908 0.0
-0.00160838 0.0244713 0.0
-0.00151673 0.0222836 0.0
-0.00143173 0.0202182 0.0
-0.00135258 0.0182667 0.0
-0.00127854 0.0164219 0.0
-0.0012089 0.0146773 0.0
-0.00114296 0.0130276 0.0
-0.00107993 0.0114682 0.0
-0.00101895 0.00999603 0.0
-0.000959021 0.00860886 0.0
-0.000899008 0.00730608 0.0
-0.000837594 0.00608862 0.0
-0.000773269 0.00495918 0.0
-0.000704323 0.00392245 0.0
-0.000628872 0.0029852 0.0
-0.00054495 0.00215631 0.0
-0.000450736 0.0014465 0.0
-0.00034511 0.000867546 0.0
-0.000229 0.000430726 0.0
-0.000108365 0.000142998 0.0
5.4324e-07 2.04507e-07 0.0
5.5412e-05 -1.82139e-05 0.0
0.501531 0.076997 0.0
0.100675 0.184183 0.0
-0.0374182 0.25125 0.0
-0.071707 0.268615 0.0
-0.0708827 0.260776 0.0
-0.0605984 0.242884 0.0
-0.0494604 0.222119 0.0
-0.0399341 0.20177 0.0
-0.0324012 0.183122 0.0
-0.0266097 0.166504 0.0
-0.0221847 0.151839 0.0
-0.0187884 0.138905 0.0
-0.0161557 0.12745 0.0
-0.0140888 0.11724 0.0
-0.012443 0.108075 0.0
-0.0111133 0.0997878 0.0
-0.010023 0.0922424 0.0
-0.00911597 0.0853296 0.0
-0.0083505 0.0789611 0.0
-0.00769557 0.0730657 0.0
-0.00712784 0.0675857 0.0
-0.00662965 0.0624742 0.0
-0.00618757 0.0576923 0.0
-0.00579131 0.0532081 0.0
-0.00543301 0.0489947 0.0
-0.00510656 0.0450291 0.0
-0.00480726 0.0412917 0.0
-0.00453136 0.0377656 0.0
-0.00427588 0.0344355 0.0
-0.00403833 0.0312883 0.0
-0.00381657 0.0283122 0.0
-0.00360863 0.0254968 0.0
-0.00341258 0.022833 0.0
-0.00322646 0.020313 0.0
-0.00304814 0.0179305 0.0
-0.00287526 0.0156808 0.0
-0.00270518 0.0135608 0.0
-0.00253486 0.0115697 0.0
-0.00236089 0.0097086 0.0
-0.00217945 0.00798109 0.0
-0.0019864 0.00639338 0.0
-0.0017774 0.00495429 0.0
-0.0015483 0.00367511 0.0
-0.00129585 0.00256901 0.0
-0.00101909 0.00164998 0.0
-0.000722114 0.000930774 0.0
-0.000419244 0.000418289 0.0
-0.000142584 0.000109262 0.0
3.82707e-05 2.25942e-06 0.0
0.611244 0.0482493 0.0
0.198164 0.134914 0.0
0.0142459 0.211265 0.0
-0.0557987 0.248916 0.0
-0.0750976 0.259514 0.0
-0.0744235 0.255472 0.0
-0.066942 0.243919 0.0
-0.0580269 0.229131 0.0
-0.0496951 0.213453 0.0
-0.0425548 0.198067 0.0
-0.036655 0.183513 0.0
-0.0318497 0.169987 0.0
-0.0279473 0.157515 0.0
-0.0247672 0.146042 0.0
-0.022157 0.135482 0.0
-0.0199942 0.12574 0.0
-0.018183 0.116727 0.0
-0.0166488 0.108361 0.0
-0.0153339 0.100572 0.0
-0.0141938 0.0932987 0.0
-0.0131941 0.0864903 0.0
-0.0123081 0.0801025 0.0
-0.0115153 0.0740979 0.0
-0.0107995 0.0684447 0.0
-0.0101482 0.0631152 0.0
-0.00955169 0.0580854 0.0
-0.00900232 0.0533341 0.0
-0.00849396 0.0488425 0.0
-0.00802162 0.0445939 0.0
-0.00758112 0.0405732 0.0
-0.00716876 0.0367667 0.0
-0.00678112 0.0331623 0.0
-0.00641481 0.0297494 0.0
-0.00606632 0.0265188 0.0
-0.00573185 0.0234628 0.0
-0.00540719 0.0205759 0.0
-0.00508758 0.0178544 0.0
-0.00476771 0.0152969 0.0
-0.00444161 0.0129045 0.0
-0.00410274 0.0106813 0.0
-0.00374417 0.00863396 0.0
-0.00335888 0.00677214 0.0
-0.00294049 0.00510804 0.0
-0.00248446 0.00365576 0.0
-0.00199024 0.00243024 0.0
-0.00146497 0.00144555 0.0
-0.000929804 0.000710164 0.0
-0.000427995 0.000226684 0.0
-4.40219e-05 2.40419e-05 0.0
0.682137 0.0303288 0.0
0.281677 0.0989426 0.0
0.0730113 0.172335 0.0
-0.0251275 0.219013 0.0
-0.0648097 0.242024 0.0
-0.0766174 0.249339 0.0
-0.0760377 0.246864 0.0
-0.0705242 0.238753 0.0
-0.063535 0.227684 0.0
-0.0565916 0.215287 0.0
-0.0502914 0.202513 0.0
-0.0448044 0.189897 0.0
-0.0401144 0.17772 0.0
-0.0361336 0.166114 0.0
-0.0327558 0.155129 0.0
-0.0298785 0.144766 0.0
-0.0274117 0.135003 0.0
-0.0252799 0.125807 0.0
-0.023421 0.117143 0.0
-0.0217849 0.108972 0.0
-0.0203316 0.101261 0.0
-0.0190291 0.0939771 0.0
-0.0178521 0.0870924 0.0
-0.0167805 0.0805804 0.0
-0.0157985 0.0744176 0.0
-0.0148935 0.0685826 0.0
-0.0140556 0.0630558 0.0
-0.0132767 0.0578193 0.0
-0.0125502 0.0528568 0.0
-0.0118703 0.048153 0.0
-0.0112319 0.043694 0.0
-0.0106302 0.0394671 0.0
-0.0100602 0.035461 0.0
-0.0095169 0.0316658 0.0
-0.00899465 0.0280734 0.0
-0.00848721 0.0246775 0.0
-0.00798756 0.0214739 0.0
-0.00748787 0.0184609 0.0
-0.00697942 0.0156395 0.0
-0.0064528 0.0130135 0.0
-0.00589813 0.0105896 0.0
-0.00530566 0.00837759 0.0
-0.00466671 0.00638985 0.0
-0.00397532 0.00464084 0.0
-0.00323083 0.00314635 0.0
-0.00244207 0.00192251 0.0
-0.00163369 0.000981302 0.0
-0.000853647 0.000334153 0.0
-0.000189228 4.29687e-05 0.0
0.731887 0.0192898 0.0
0.352668 0.073479 0.0
0.131483 0.139913 0.0
0.01323 0.188513 0.0
-0.0449222 0.218865 0.0
-0.0697659 0.234218 0.0
-0.0776296 0.239149 0.0
-0.0772499 0.237193 0.0
-0.0731769 0.230923 0.0
-0.0677273 0.222095 0.0
-0.062039 0.211866 0.0
-0.0566344 0.200978 0.0
-0.0517208 0.1899 0.0
-0.0473492 0.178914 0.0
-0.0434975 0.168192 0.0
-0.0401132 0.157828 0.0
-0.0371352 0.147871 0.0
-0.0345036 0.138342 0.0
-0.0321645 0.129246 0.0
-0.0300713 0.120576 0.0
-0.0281848 0.11232 0.0
-0.0264727 0.104465 0.0
-0.0249086 0.0969951 0.0
-0.0234712 0.0898933 0.0
-0.0221432 0.0831438 0.0
-0.0209109 0.0767308 0.0
-0.0197631 0.0706386 0.0
-0.0186906 0.0648524 0.0
-0.0176858 0.0593576 0.0
-0.0167419 0.0541403 0.0
-0.0158528 0.0491876 0.0
-0.0150123 0.0444871 0.0
-0.0142144 0.0400275 0.0
-0.0134523 0.0357991 0.0
-0.0127187 0.0317935 0.0
-0.0120053 0.0280039 0.0
-0.0113028 0.024426 0.0
-0.0106009 0.0210577 0.0
-0.00988794 0.0178995 0.0
-0.00915165 0.0149549 0.0
-0.00837916 0.0122304 0.0
-0.00755784 0.00973547 0.0
-0.00667652 0.00748247 0.0
-0.00572731 0.00548622 0.0
-0.00470842 0.00376372 0.0
-0.00362826 0.00233396 0.0
-0.00251129 0.00121374 0.0
-0.00140419 0.000424327 0.0
-0.000388047 5.79518e-05 0.0
0.768041 0.0126121 0.0
0.412172 0.0557621 0.0
0.186125 0.114324 0.0
0.0537559 0.161526 0.0
-0.0194111 0.19509 0.0
-0.0564828 0.215607 0.0
-0.0731825 0.225986 0.0
-0.0788222 0.229062 0.0
-0.0786748 0.227089 0.0
-0.0756727 0.221749 0.0
-0.0714212 0.214246 0.0
-0.066778 0.205421 0.0
-0.0621825 0.195849 0.0
-0.0578434 0.185922 0.0
-0.0538436 0.175899 0.0
-0.0502004 0.165954 0.0
-0.0468977 0.156199 0.0
-0.0439052 0.146704 0.0
-0.0411877 0.137515 0.0
-0.0387105 0.128657 0.0
-0.036442 0.120143 0.0
-0.0343545 0.11198 0.0
-0.0324243 0.104166 0.0
-0.0306319 0.0966977 0.0
-0.0289612 0.0895686 0.0
-0.0273989 0.0827698 0.0
-0.0259342 0.0762915 0.0
-0.024558 0.0701229 0.0
-0.0232624 0.0642527 0.0
-0.0220404 0.0586694 0.0
-0.0208853 0.0533615 0.0
-0.0197903 0.0483179 0.0
-0.0187482 0.043528 0.0
-0.0177511 0.0389822 0.0
-0.01679 0.0346723 0.0
-0.0158548 0.0305917 0.0
-0.0149339 0.0267355 0.0
-0.0140145 0.0231013 0.0
-0.0130823 0.0196893 0.0
-0.012122 0.0165025 0.0
-0.0111176 0.0135469 0.0
-0.0100537 0.0108317 0.0
-0.00891594 0.00836926 0.0
-0.00769398 0.00617491 0.0
-0.00638348 0.00426727 0.0
-0.00499023 0.00266867 0.0
-0.00353504 0.0014012 0.0
-0.00205853 0.000495523 0.0
-0.000629739 6.91441e-05 0.0
0.795003 0.0085502 0.0
0.461899 0.0433011 0.0
0.235779 0.0943272 0.0
0.0939036 0.138621 0.0
0.00912264 0.172746 0.0
-0.038953 0.196327 0.0
-0.0642402 0.210456 0.0
-0.0761982 0.217385 0.0
-0.0805247 0.218972 0.0
-0.0805929 0.216727 0.0
-0.078382 0.211808 0.0
-0.0750407 0.205073 0.0
-0.0712257 0.197147 0.0
-0.0673029 0.188482 0.0
-0.0634675 0.179399 0.0
-0.0598155 0.170129 0.0
-0.0563864 0.160832 0.0
-0.0531882 0.151624 0.0
-0.0502126 0.142583 0.0
-0.0474435 0.133766 0.0
-0.0448623 0.125211 0.0
-0.0424504 0.116941 0.0
-0.0401908 0.108974 0.0
-0.0380687 0.101318 0.0
-0.0360714 0.0939772 0.0
-0.0341883 0.0869501 0.0
-0.0324103 0.0802339 0.0
-0.0307296 0.0738229 0.0
-0.0291395 0.0677095 0.0
-0.0276333 0.0618852 0.0
-0.0262045 0.0563407 0.0
-0.024846 0.0510662 0.0
-0.0235502 0.0460523 0.0
-0.022308 0.04129 0.0
-0.0211094 0.0367714 0.0
-0.0199423 0.0324897 0.0
-0.0187933 0.0284399 0.0
-0.0176472 0.0246195 0.0
-0.0164869 0.0210279 0.0
-0.0152941 0.0176678 0.0
-0.01405 0.0145446 0.0
-0.0127355 0.0116674 0.0
-0.0113333 0.00904849 0.0
-0.00982917 0.00670397 0.0
-0.00821513 0.00465424 0.0
-0.00649225 0.00292503 0.0
-0.00467493 0.00154355 0.0
-0.00279428 0.000548552 0.0
-0.000903925 7.70609e-05 0.0
0.815723 0.00603221 0.0
0.503655 0.0343791 0.0
0.280294 0.0787022 0.0
0.132251 0.119543 0.0
0.0384121 0.152924 0.0
-0.0189283 0.177828 0.0
-0.0521586 0.194374 0.0
-0.0703489 0.204089 0.0
-0.0793624 0.208473 0.0
-0.0828564 0.208821 0.0
-0.0830893 0.206188 0.0
-0.0814482 0.201402 0.0
-0.0787796 0.195092 0.0
-0.0755951 0.187737 0.0
-0.0721994 0.179694 0.0
-0.0687694 0.171228 0.0
-0.0654041 0.162539 0.0
-0.0621551 0.153774 0.0
-0.0590459 0.145042 0.0
-0.0560837 0.136424 0.0
-0.0532673 0.127981 0.0
-0.050591 0.119755 0.0
-0.0480475 0.111778 0.0
-0.0456294 0.104071 0.0
-0.0433298 0.0966481 0.0
-0.0411424 0.0895177 0.0
-0.0390617 0.0826829 0.0
-0.0370826 0.0761433 0.0
-0.0352002 0.0698955 0.0
-0.0334094 0.0639343 0.0
-0.0317044 0.0582525 0.0
-0.0300788 0.0528423 0.0
-0.0285245 0.0476953 0.0
-0.0270321 0.0428031 0.0
-0.0255905 0.0381582 0.0
-0.0241863 0.0337538 0.0
-0.0228041 0.029585 0.0
-0.0214266 0.0256485 0.0
-0.020034 0.0219435 0.0
-0.0186053 0.018472 0.0
-0.017118 0.0152392 0.0
-0.0155498 0.0122537 0.0
-0.0138793 0.00952807 0.0
-0.012088 0.00707915 0.0
-0.0101629 0.00492909 0.0
-0.00809865 0.00310674 0.0
-0.00590112 0.00164371 0.0
-0.0035898 0.000585203 0.0
-0.00120124 8.22597e-05 0.0
0.832101 0.00442961 0.0
0.538979 0.0278575 0.0
0.319997 0.0663988 0.0
0.16822 0.103695 0.0
0.0674106 0.135635 0.0
0.00244238 0.160707 0.0
-0.0379956 0.178706 0.0
-0.0621219 0.190343 0.0
-0.0758152 0.196844 0.0
-0.0828938 0.199281 0.0
-0.0858127 0.198587 0.0
-0.0861451 0.195527 0.0
-0.0848962 0.190711 0.0
-0.0827059 0.184617 0.0
-0.0799796 0.177616 0.0
-0.0769723 0.169998 0.0
-0.0738423 0.161984 0.0
-0.0706866 0.153746 0.0
-0.0675631 0.145416 0.0
-0.0645054 0.137098 0.0
-0.0615323 0.128869 0.0
-0.058654 0.120789 0.0
-0.0558753 0.112904 0.0
-0.0531987 0.105247 0.0
-0.0506249 0.0978409 0.0
-0.0481538 0.0907029 0.0
-0.045785 0.0838427 0.0
-0.0435172 0.077265 0.0
-0.0413486 0.0709707 0.0
-0.0392764 0.0649575 0.0
-0.0372966 0.0592208 0.0
-0.0354034 0.0537542 0.0
-0.0335895 0.0485506 0.0
-0.0318452 0.0436023 0.0
-0.0301587 0.038902 0.0
-0.0285156 0.0344429 0.0
-0.0268988 0.0302198 0.0
-0.0252887 0.0262291 0.0
-0.0236633 0.0224694 0.0
-0.0219984 0.0189422 0.0
-0.0202683 0.0156522 0.0
-0.0184466 0.0126078 0.0
-0.0165077 0.00982157 0.0
-0.014428 0.00731116 0.0
-0.0121881 0.0051002 0.0
-0.00977529 0.00322006 0.0
-0.00718546 0.00170587 0.0
-0.00442522 0.00060755 0.0
-0.00151355 8.52428e-05 0.0
0.845357 0.00337671 0.0
0.569109 0.0229874 0.0
0.355358 0.0566156 0.0
0.201592 0.0905188 0.0
0.0954654 0.120686 0.0
0.0241841 0.145292 0.0
-0.0225707 0.163952 0.0
-0.0522141 0.176844 0.0
-0.070441 0.184889 0.0
-0.0811264 0.188959 0.0
-0.0868528 0.189858 0.0
-0.0893316 0.188276 0.0
-0.0896957 0.184785 0.0
-0.0886941 0.179847 0.0
-0.0868214 0.173835 0.0
-0.0844043 0.167046 0.0
-0.0816579 0.159717 0.0
-0.0787236 0.152037 0.0
-0.0756944 0.144155 0.0
-0.0726318 0.13619 0.0
-0.0695766 0.128236 0.0
-0.0665565 0.120368 0.0
-0.0635907 0.112643 0.0
-0.0606931 0.105105 0.0
-0.0578739 0.0977874 0.0
-0.0551409 0.090713 0.0
-0.0524998 0.0838982 0.0
-0.0499547 0.0773528 0.0
-0.0475078 0.0710814 0.0
-0.0451594 0.0650848 0.0
-0.0429078 0.0593603 0.0
-0.040749 0.0539032 0.0
-0.0386764 0.0487072 0.0
-0.0366808 0.0437652 0.0
-0.0347499 0.03907 0.0
-0.0328685 0.0346148 0.0
-0.0310181 0.0303939 0.0
-0.029177 0.0264032 0.0
-0.0273209 0.0226409 0.0
-0.0254224 0.0191078 0.0
-0.0234524 0.015808 0.0
-0.0213804 0.0127496 0.0
-0.0191757 0.00994523 0.0
-0.0168092 0.00741298 0.0
-0.0142547 0.00517757 0.0
-0.0114906 0.00327223 0.0
-0.00850228 0.00173457 0.0
-0.00528283 0.00061761 0.0
-0.00183387 8.64311e-05 0.0
0.856306 0.00266019 0.0
0.595025 0.0192735 0.0
0.386886 0.0487511 0.0
0.232377 0.0795199 0.0
0.12224 0.107786 0.0
0.0457042 0.131585 0.0
-0.00649634 0.150337 0.0
-0.0411873 0.163988 0.0
-0.0637144 0.173108 0.0
-0.0779362 0.178417 0.0
-0.0865037 0.180593 0.0
-0.0912247 0.180243 0.0
-0.0933305 0.177893 0.0
-0.0936596 0.173981 0.0
-0.0927834 0.168869 0.0
-0.0910923 0.162855 0.0
-0.0888533 0.156183 0.0
-0.0862504 0.149053 0.0
-0.083411 0.141626 0.0
-0.0804244 0.134035 0.0
-0.0773543 0.126387 0.0
-0.0742475 0.118766 0.0
-0.0711388 0.111243 0.0
-0.0680551 0.10387 0.0
-0.0650177 0.0966882 0.0
-0.0620433 0.0897281 0.0
-0.0591454 0.0830111 0.0
-0.0563341 0.0765516 0.0
-0.0536168 0.0703574 0.0
-0.0509977 0.0644318 0.0
-0.0484783 0.058774 0.0
-0.0460566 0.0533805 0.0
-0.0437275 0.0482458 0.0
-0.0414824 0.0433628 0.0
-0.0393091 0.0387245 0.0
-0.0371917 0.0343238 0.0
-0.0351103 0.0301543 0.0
-0.0330417 0.0262115 0.0
-0.0309587 0.0224928 0.0
-0.0288313 0.0189982 0.0
-0.0266264 0.0157313 0.0
-0.0243093 0.0126998 0.0
-0.0218442 0.00991592 0.0
-0.0191955 0.00739803 0.0
-0.0163296 0.00517144 0.0
-0.0132159 0.00327045 0.0
-0.0098286 0.00173414 0.0
-0.00614713 0.000617196 0.0
-0.00215633 8.61633e-05 0.0
0.865507 0.00215468 0.0
0.6175 0.0163841 0.0
0.415064 0.0423564 0.0
0.260695 0.0702811 0.0
0.147582 0.0966371 0.0
0.0667081 0.119431 0.0
0.00985847 0.137886 0.0
-0.029446 0.151942 0.0
-0.0560119 0.16178 0.0
-0.0736481 0.16801 0.0
-0.0850325 0.171187 0.0
-0.0920357 0.171844 0.0
-0.0959623 0.170455 0.0
-0.0977219 0.167428 0.0
-0.0979499 0.163111 0.0
-0.0970919 0.157796 0.0
-0.0954616 0.151729 0.0
-0.0932821 0.145116 0.0
-0.0907134 0.138127 0.0
-0.0878724 0.130905 0.0
-0.0848461 0.123567 0.0
-0.0817006 0.116208 0.0
-0.0784876 0.108907 0.0
-0.0752484 0.101725 0.0
-0.0720162 0.0947106 0.0
-0.0688183 0.0878994 0.0
-0.0656766 0.0813181 0.0
-0.0626087 0.0749844 0.0
-0.0596277 0.0689094 0.0
-0.0567429 0.0630981 0.0
-0.0539591 0.0575513 0.0
-0.0512773 0.0522662 0.0
-0.0486942 0.0472376 0.0
-0.046202 0.0424586 0.0
-0.043789 0.0379216 0.0
-0.0414387 0.0336192 0.0
-0.0391303 0.0295443 0.0
-0.0368386 0.0256915 0.0
-0.0345342 0.0220574 0.0
-0.0321838 0.0186413 0.0
-0.0297508 0.0154458 0.0
-0.0271957 0.012478 0.0
-0.0244773 0.00974975 0.0
-0.0215536 0.00727909 0.0
-0.018383 0.00509141 0.0
-0.0149256 0.00322133 0.0
-0.0111441 0.00170843 0.0
-0.00700465 0.000607843 0.0
-0.00247594 8.4703e-05 0.0
0.873351 0.00178577 0.0
0.637145 0.0140959 0.0
0.440325 0.0371022 0.0
0.286718 0.0624775 0.0
0.171437 0.0869959 0.0
0.0869692 0.108695 0.0
0.0260481 0.126683 0.0
-0.017327 0.140799 0.0
-0.0476407 0.151076 0.0
-0.0685361 0.157957 0.0
-0.0826746 0.161899 0.0
-0.0919608 0.163359 0.0
-0.09775 0.162761 0.0
-0.101007 0.160481 0.0
-0.102418 0.156847 0.0
-0.102476 0.152144 0.0
-0.101535 0.146616 0.0
-0.099854 0.14047 0.0
-0.0976231 0.133885 0.0
-0.0949858 0.127009 0.0
-0.0920518 0.11997 0.0
-0.0889076 0.112871 0.0
-0.0856222 0.105798 0.0
-0.0822521 0.0988194 0.0
-0.0788439 0.0919896 0.0
-0.0754362 0.0853499 0.0
-0.0720607 0.0789306 0.0
-0.068743 0.0727527 0.0
-0.0655032 0.0668292 0.0
-0.0623559 0.0611669 0.0
-0.0593102 0.0557673 0.0
-0.0563704 0.0506279 0.0
-0.0535352 0.0457435 0.0
-0.0507984 0.0411068 0.0
-0.0481485 0.0367099 0.0
-0.045569 0.0325441 0.0
-0.0430379 0.0286019 0.0
-0.0405285 0.0248766 0.0
-0.0380089 0.021364 0.0
-0.0354428 0.0180621 0.0
-0.0327897 0.0149728 0.0
-0.0300053 0.0121022 0.0
-0.0270429 0.00946131 0.0
-0.0238537 0.00706763 0.0
-0.020388 0.004946 0.0
-0.0165966 0.0031306 0.0
-0.0124308 0.00166071 0.0
-0.00784366 0.000590806 0.0
-0.00278844 8.22489e-05 0.0
0.88012 0.00150804 0.0
0.654439 0.0122538 0.0
0.463052 0.0327392 0.0
0.310636 0.0558393 0.0
0.193831 0.0786197 0.0
0.106404 0.099184 0.0
0.0419454 0.116581 0.0
-0.00507144 0.130558 0.0
-0.0388508 0.141064 0.0
-0.0628308 0.148378 0.0
-0.079635 0.152884 0.0
-0.091177 0.154969 0.0
-0.0988435 0.155007 0.0
-0.103638 0.153341 0.0
-0.106289 0.15028 0.0
-0.107325 0.146097 0.0
-0.107137 0.141032 0.0
-0.106014 0.135295 0.0
-0.104175 0.129068 0.0
-0.101788 0.122506 0.0
-0.0989852 0.115743 0.0
-0.0958735 0.10889 0.0
-0.09254 0.102039 0.0
-0.0890573 0.0952662 0.0
-0.0854861 0.0886296 0.0
-0.0818776 0.0821752 0.0
-0.078274 0.0759364 0.0
-0.0747102 0.0699366 0.0
-0.0712136 0.0641904 0.0
-0.0678049 0.0587053 0.0
-0.0644982 0.053483 0.0
-0.0613011 0.0485211 0.0
-0.0582152 0.0438138 0.0
-0.0552356 0.0393532 0.0
-0.0523517 0.0351302 0.0
-0.0495466 0.0311354 0.0
-0.0467977 0.0273598 0.0
-0.0440764 0.0237958 0.0
-0.0413486 0.0204377 0.0
-0.0385749 0.0172826 0.0
-0.0357107 0.014331 0.0
-0.0327072 0.0115879 0.0
-0.0295117 0.00906326 0.0
-0.0260688 0.00677351 0.0
-0.0223207 0.00474243 0.0
-0.0182087 0.00300306 0.0
-0.013673 0.00159364 0.0
-0.00865391 0.00056707 0.0
-0.0030902 7.89452e-05 0.0
0.886022 0.00129314 0.0
0.669766 0.0107487 0.0
0.483569 0.0290801 0.0
0.332637 0.050153 0.0
0.21481 0.0713101 0.0
0.124947 0.0907414 0.0
0.0574136 0.107473 0.0
0.00717706 0.121147 0.0
-0.0298199 0.131733 0.0
-0.056714 0.139312 0.0
-0.0760854 0.14422 0.0
-0.0898401 0.146777 0.0
-0.0993801 0.147312 0.0
-0.105735 0.146137 0.0
-0.109664 0.143541 0.0
-0.111725 0.139786 0.0
-0.112338 0.135108 0.0
-0.11182 0.129716 0.0
-0.110413 0.123794 0.0
-0.108312 0.117506 0.0
-0.105669 0.110989 0.0
-0.102612 0.104361 0.0
-0.0992467 0.097721 0.0
-0.0956625 0.0911487 0.0
-0.0919354 0.0847076 0.0
-0.0881297 0.0784465 0.0
-0.0842994 0.0724015 0.0
-0.0804892 0.0665974 0.0
-0.0767347 0.0610494 0.0
-0.0730633 0.0557653 0.0
-0.0694944 0.0507467 0.0
-0.0660395 0.0459903 0.0
-0.0627031 0.0414894 0.0
-0.059482 0.0372349 0.0
-0.0563664 0.0332165 0.0
-0.0533394 0.0294234 0.0
-0.0503775 0.0258454 0.0
-0.0474505 0.0224732 0.0
-0.0445221 0.0193 0.0
-0.0415494 0.0163213 0.0
-0.0384843 0.0135362 0.0
-0.035273 0.0109483 0.0
-0.0318571 0.00856631 0.0
-0.0281744 0.00640499 0.0
-0.0241592 0.00448665 0.0
-0.0197433 0.0028426 0.0
-0.0148564 0.0015093 0.0
-0.00942633 0.000537381 0.0
-0.00337798 7.48915e-05 0.0
0.891215 0.00112276 0.0
0.683431 0.00950212 0.0
0.502158 0.0259817 0.0
0.352899 0.0452483 0.0
0.234445 0.0649021 0.0
0.14258 0.0832323 0.0
0.0723616 0.0992628 0.0
0.0192086 0.112566 0.0
-0.0207042 0.123065 0.0
-0.0503376 0.130772 0.0
-0.0721727 0.13594 0.0
-0.0880875 0.138834 0.0
-0.0994853 0.139739 0.0
-0.107411 0.138941 0.0
-0.112641 0.136708 0.0
-0.11576 0.133291 0.0
-0.11721 0.128921 0.0
-0.117329 0.123807 0.0
-0.116386 0.118138 0.0
-0.114595 0.112078 0.0
-0.112131 0.105774 0.0