# vtk DataFile Version 3.0
Malha 2D com triângulos: velocidade e pressão
ASCII
DATASET UNSTRUCTURED_GRID

POINTS 2500 double
0 0 0
1 0 0
1 1 0
0 1 0
0.0204082 0 0
0.0408163 0 0
0.0612245 0 0
0.0816327 0 0
0.102041 0 0
0.122449 0 0
0.142857 0 0
0.163265 0 0
0.183673 0 0
0.204082 0 0
0.22449 0 0
0.244898 0 0
0.265306 0 0
0.285714 0 0
0.306122 0 0
0.326531 0 0
0.346939 0 0
0.367347 0 0
0.387755 0 0
0.408163 0 0
0.428571 0 0
0.44898 0 0
0.469388 0 0
0.489796 0 0
0.510204 0 0
0.530612 0 0
0.55102 0 0
0.571429 0 0
0.591837 0 0
0.612245 0 0
0.632653 0 0
0.653061 0 0
0.673469 0 0
0.693878 0 0
0.714286 0 0
0.734694 0 0
0.755102 0 0
0.77551 0 0
0.795918 0 0
0.816327 0 0
0.836735 0 0
0.857143 0 0
0.877551 0 0
0.897959 0 0
0.918367 0 0
0.938776 0 0
0.959184 0 0
0.979592 0 0
1 0.0204082 0
1 0.0408163 0
1 0.0612245 0
1 0.0816327 0
1 0.102041 0
1 0.122449 0
1 0.142857 0
1 0.163265 0
1 0.183673 0
1 0.204082 0
1 0.22449 0
1 0.244898 0
1 0.265306 0
1 0.285714 0
1 0.306122 0
1 0.326531 0
1 0.346939 0
1 0.367347 0
1 0.387755 0
1 0.408163 0
1 0.428571 0
1 0.44898 0
1 0.469388 0
1 0.489796 0
1 0.510204 0
1 0.530612 0
1 0.55102 0
1 0.571429 0
1 0.591837 0
1 0.612245 0
1 0.632653 0
1 0.653061 0
1 0.673469 0
1 0.693878 0
1 0.714286 0
1 0.734694 0
1 0.755102 0
1 0.77551 0
1 0.795918 0
1 0.816327 0
1 0.836735 0
1 0.857143 0
1 0.877551 0
1 0.897959 0
1 0.918367 0
1 0.938776 0
1 0.959184 0
1 0.979592 0
0.979592 1 0
0.959184 1 0
0.938776 1 0
0.918367 1 0
0.897959 1 0
0.877551 1 0
0.857143 1 0
0.836735 1 0
0.816327 1 0
0.795918 1 0
0.77551 1 0
0.755102 1 0
0.734694 1 0
0.714286 1 0
0.693878 1 0
0.673469 1 0
0.653061 1 0
0.632653 1 0
0.612245 1 0
0.591837 1 0
0.571429 1 0
0.55102 1 0
0.530612 1 0
0.510204 1 0
0.489796 1 0
0.469388 1 0
0.44898 1 0
0.428571 1 0
0.408163 1 0
0.387755 1 0
0.367347 1 0
0.346939 1 0
0.326531 1 0
0.306122 1 0
0.285714 1 0
0.265306 1 0
0.244898 1 0
0.22449 1 0
0.204082 1 0
0.183673 1 0
0.163265 1 0
0.142857 1 0
0.122449 1 0
0.102041 1 0
0.0816327 1 0
0.0612245 1 0
0.0408163 1 0
0.0204082 1 0
0 0.979592 0
0 0.959184 0
0 0.938776 0
0 0.918367 0
0 0.897959 0
0 0.877551 0
0 0.857143 0
0 0.836735 0
0 0.816327 0
0 0.795918 0
0 0.77551 0
0 0.755102 0
0 0.734694 0
0 0.714286 0
0 0.693878 0
0 0.673469 0
0 0.653061 0
0 0.632653 0
0 0.612245 0
0 0.591837 0
0 0.571429 0
0 0.55102 0
0 0.530612 0
0 0.510204 0
0 0.489796 0
0 0.469388 0
0 0.44898 0
0 0.428571 0
0 0.408163 0
0 0.387755 0
0 0.367347 0
0 0.346939 0
0 0.326531 0
0 0.306122 0
0 0.285714 0
0 0.265306 0
0 0.244898 0
0 0.22449 0
0 0.204082 0
0 0.183673 0
0 0.163265 0
0 0.142857 0
0 0.122449 0
0 0.102041 0
0 0.0816327 0
0 0.0612245 0
0 0.0408163 0
0 0.0204082 0
0.0204082 0.979592 0
0.0204082 0.959184 0
0.0204082 0.938776 0
0.0204082 0.918367 0
0.0204082 0.897959 0
0.0204082 0.877551 0
0.0204082 0.857143 0
0.0204082 0.836735 0
0.0204082 0.816327 0
0.0204082 0.795918 0
0.0204082 0.77551 0
0.0204082 0.755102 0
0.0204082 0.734694 0
0.0204082 0.714286 0
0.0204082 0.693878 0
0.0204082 0.673469 0
0.0204082 0.653061 0
0.0204082 0.632653 0
0.0204082 0.612245 0
0.0204082 0.591837 0
0.0204082 0.571429 0
0.0204082 0.55102 0
0.0204082 0.530612 0
0.0204082 0.510204 0
0.0204082 0.489796 0
0.0204082 0.469388 0
0.0204082 0.44898 0
0.0204082 0.428571 0
0.0204082 0.408163 0
0.0204082 0.387755 0
0.0204082 0.367347 0
0.0204082 0.346939 0
0.0204082 0.326531 0
0.0204082 0.306122 0
0.0204082 0.285714 0
0.0204082 0.265306 0
0.0204082 0.244898 0
0.0204082 0.22449 0
0.0204082 0.204082 0
0.0204082 0.183673 0
0.0204082 0.163265 0
0.0204082 0.142857 0
0.0204082 0.122449 0
0.0204082 0.102041 0
0.0204082 0.0816327 0
0.0204082 0.0612245 0
0.0204082 0.0408163 0
0.0204082 0.0204082 0
0.0408163 0.979592 0
0.0408163 0.959184 0
0.0408163 0.938776 0
0.0408163 0.918367 0
0.0408163 0.897959 0
0.0408163 0.877551 0
0.0408163 0.857143 0
0.0408163 0.836735 0
0.0408163 0.816327 0
0.0408163 0.795918 0
0.0408163 0.77551 0
0.0408163 0.755102 0
0.0408163 0.734694 0
0.0408163 0.714286 0
0.0408163 0.693878 0
0.0408163 0.673469 0
0.0408163 0.653061 0
0.0408163 0.632653 0
0.0408163 0.612245 0
0.0408163 0.591837 0
0.0408163 0.571429 0
0.0408163 0.55102 0
0.0408163 0.530612 0
0.0408163 0.510204 0
0.0408163 0.489796 0
0.0408163 0.469388 0
0.0408163 0.44898 0
0.0408163 0.428571 0
0.0408163 0.408163 0
0.0408163 0.387755 0
0.0408163 0.367347 0
0.0408163 0.346939 0
0.0408163 0.326531 0
0.0408163 0.306122 0
0.0408163 0.285714 0
0.0408163 0.265306 0
0.0408163 0.244898 0
0.0408163 0.22449 0
0.0408163 0.204082 0
0.0408163 0.183673 0
0.0408163 0.163265 0
0.0408163 0.142857 0
0.0408163 0.122449 0
0.0408163 0.102041 0
0.0408163 0.0816327 0
0.0408163 0.0612245 0
0.0408163 0.0408163 0
0.0408163 0.0204082 0
0.0612245 0.979592 0
0.0612245 0.959184 0
0.0612245 0.938776 0
0.0612245 0.918367 0
0.0612245 0.897959 0
0.0612245 0.877551 0
0.0612245 0.857143 0
0.0612245 0.836735 0
0.0612245 0.816327 0
0.0612245 0.795918 0
0.0612245 0.77551 0
0.0612245 0.755102 0
0.0612245 0.734694 0
0.0612245 0.714286 0
0.0612245 0.693878 0
0.0612245 0.673469 0
0.0612245 0.653061 0
0.0612245 0.632653 0
0.0612245 0.612245 0
0.0612245 0.591837 0
0.0612245 0.571429 0
0.0612245 0.55102 0
0.0612245 0.530612 0
0.0612245 0.510204 0
0.0612245 0.489796 0
0.0612245 0.469388 0
0.0612245 0.44898 0
0.0612245 0.428571 0
0.0612245 0.408163 0
0.0612245 0.387755 0
0.0612245 0.367347 0
0.0612245 0.346939 0
0.0612245 0.326531 0
0.0612245 0.306122 0
0.0612245 0.285714 0
0.0612245 0.265306 0
0.0612245 0.244898 0
0.0612245 0.22449 0
0.0612245 0.204082 0
0.0612245 0.183673 0
0.0612245 0.163265 0
0.0612245 0.142857 0
0.0612245 0.122449 0
0.0612245 0.102041 0
0.0612245 0.0816327 0
0.0612245 0.0612245 0
0.0612245 0.0408163 0
0.0612245 0.0204082 0
0.0816327 0.979592 0
0.0816327 0.959184 0
0.0816327 0.938776 0
0.0816327 0.918367 0
0.0816327 0.897959 0
0.0816327 0.877551 0
0.0816327 0.857143 0
0.0816327 0.836735 0
0.0816327 0.816327 0
0.0816327 0.795918 0
0.0816327 0.77551 0
0.0816327 0.755102 0
0.0816327 0.734694 0
0.0816327 0.714286 0
0.0816327 0.693878 0
0.0816327 0.673469 0
0.0816327 0.653061 0
0.0816327 0.632653 0
0.0816327 0.612245 0
0.0816327 0.591837 0
0.0816327 0.571429 0
0.0816327 0.55102 0
0.0816327 0.530612 0
0.0816327 0.510204 0
0.0816327 0.489796 0
0.0816327 0.469388 0
0.0816327 0.44898 0
0.0816327 0.428571 0
0.0816327 0.408163 0
0.0816327 0.387755 0
0.0816327 0.367347 0
0.0816327 0.346939 0
0.0816327 0.326531 0
0.0816327 0.306122 0
0.0816327 0.285714 0
0.0816327 0.265306 0
0.0816327 0.244898 0
0.0816327 0.22449 0
0.0816327 0.204082 0
0.0816327 0.183673 0
0.0816327 0.163265 0
0.0816327 0.142857 0
0.0816327 0.122449 0
0.0816327 0.102041 0
0.0816327 0.0816327 0
0.0816327 0.0612245 0
0.0816327 0.0408163 0
0.0816327 0.0204082 0
0.102041 0.979592 0
0.102041 0.959184 0
0.102041 0.938776 0
0.102041 0.918367 0
0.102041 0.897959 0
0.102041 0.877551 0
0.102041 0.857143 0
0.102041 0.836735 0
0.102041 0.816327 0
0.102041 0.795918 0
0.102041 0.77551 0
0.102041 0.755102 0
0.102041 0.734694 0
0.102041 0.714286 0
0.102041 0.693878 0
0.102041 0.673469 0
0.102041 0.653061 0
0.102041 0.632653 0
0.102041 0.612245 0
0.102041 0.591837 0
0.102041 0.571429 0
0.102041 0.55102 0
0.102041 0.530612 0
0.102041 0.510204 0
0.102041 0.489796 0
0.102041 0.469388 0
0.102041 0.44898 0
0.102041 0.428571 0
0.102041 0.408163 0
0.102041 0.387755 0
0.102041 0.367347 0
0.102041 0.346939 0
0.102041 0.326531 0
0.102041 0.306122 0
0.102041 0.285714 0
0.102041 0.265306 0
0.102041 0.244898 0
0.102041 0.22449 0
0.102041 0.204082 0
0.102041 0.183673 0
0.102041 0.163265 0
0.102041 0.142857 0
0.102041 0.122449 0
0.102041 0.102041 0
0.102041 0.0816327 0
0.102041 0.0612245 0
0.102041 0.0408163 0
0.102041 0.0204082 0
0.122449 0.979592 0
0.122449 0.959184 0
0.122449 0.938776 0
0.122449 0.918367 0
0.122449 0.897959 0
0.122449 0.877551 0
0.122449 0.857143 0
0.122449 0.836735 0
0.122449 0.816327 0
0.122449 0.795918 0
0.122449 0.77551 0
0.122449 0.755102 0
0.122449 0.734694 0
0.122449 0.714286 0
0.122449 0.693878 0
0.122449 0.673469 0
0.122449 0.653061 0
0.122449 0.632653 0
0.122449 0.612245 0
0.122449 0.591837 0
0.122449 0.571429 0
0.122449 0.55102 0
0.122449 0.530612 0
0.122449 0.510204 0
0.122449 0.489796 0
0.122449 0.469388 0
0.122449 0.44898 0
0.122449 0.428571 0
0.122449 0.408163 0
0.122449 0.387755 0
0.122449 0.367347 0
0.122449 0.346939 0
0.122449 0.326531 0
0.122449 0.306122 0
0.122449 0.285714 0
0.122449 0.265306 0
0.122449 0.244898 0
0.122449 0.22449 0
0.122449 0.204082 0
0.122449 0.183673 0
0.122449 0.163265 0
0.122449 0.142857 0
0.122449 0.122449 0
0.122449 0.102041 0
0.122449 0.0816327 0
0.122449 0.0612245 0
0.122449 0.0408163 0
0.122449 0.0204082 0
0.142857 0.979592 0
0.142857 0.959184 0
0.142857 0.938776 0
0.142857 0.918367 0
0.142857 0.897959 0
0.142857 0.877551 0
0.142857 0.857143 0
0.142857 0.836735 0
0.142857 0.816327 0
0.142857 0.795918 0
0.142857 0.77551 0
0.142857 0.755102 0
0.142857 0.734694 0
0.142857 0.714286 0
0.142857 0.693878 0
0.142857 0.673469 0
0.142857 0.653061 0
0.142857 0.632653 0
0.142857 0.612245 0
0.142857 0.591837 0
0.142857 0.571429 0
0.142857 0.55102 0
0.142857 0.530612 0
0.142857 0.510204 0
0.142857 0.489796 0
0.142857 0.469388 0
0.142857 0.44898 0
0.142857 0.428571 0
0.142857 0.408163 0
0.142857 0.387755 0
0.142857 0.367347 0
0.142857 0.346939 0
0.142857 0.326531 0
0.142857 0.306122 0
0.142857 0.285714 0
0.142857 0.265306 0
0.142857 0.244898 0
0.142857 0.22449 0
0.142857 0.204082 0
0.142857 0.183673 0
0.142857 0.163265 0
0.142857 0.142857 0
0.142857 0.122449 0
0.142857 0.102041 0
0.142857 0.0816327 0
0.142857 0.0612245 0
0.142857 0.0408163 0
0.142857 0.0204082 0
0.163265 0.979592 0
0.163265 0.959184 0
0.163265 0.938776 0
0.163265 0.918367 0
0.163265 0.897959 0
0.163265 0.877551 0
0.163265 0.857143 0
0.163265 0.836735 0
0.163265 0.816327 0
0.163265 0.795918 0
0.163265 0.77551 0
0.163265 0.755102 0
0.163265 0.734694 0
0.163265 0.714286 0
0.163265 0.693878 0
0.163265 0.673469 0
0.163265 0.653061 0
0.163265 0.632653 0
0.163265 0.612245 0
0.163265 0.591837 0
0.163265 0.571429 0
0.163265 0.55102 0
[...]
CELL_DATA 2401
VECTORS velocity double
0.257357 0.157466 0
-0.00267246 0.264642 0
-0.0322556 0.20564 0
-0.0253302 0.150893 0
-0.0160241 0.113454 0
-0.00969104 0.08813 0
-0.00594166 0.0710163 0
-0.00377905 0.0592122 0
-0.00251272 0.0508219 0
-0.00174666 0.0446743 0
-0.0012656 0.0400366 0
-0.000953102 0.0364372 0
-0.000744691 0.0335634 0
-0.000603229 0.0312017 0
-0.00050632 0.0292032 0
-0.000439822 0.0274619 0
-0.000394424 0.025902 0
-0.00036377 0.0244688 0
-0.000343393 0.0231233 0
-0.00033008 0.0218376 0
-0.000321477 0.0205926 0
-0.000315841 0.0193756 0
-0.000311877 0.0181788 0
-0.000308627 0.0169981 0
-0.00030539 0.015832 0
-0.00030167 0.0146814 0
-0.000297133 0.0135483 0
-0.00029157 0.0124357 0
-0.000284871 0.0113473 0
-0.000277002 0.0102869 0
-0.000267984 0.00925861 0
-0.000257873 0.00826626 0
-0.000246746 0.00731357 0
-0.000234688 0.00640398 0
-0.000221777 0.00554072 0
-0.000208076 0.00472677 0
-0.000193624 0.00396497 0
-0.000178423 0.00325805 0
-0.000162433 0.00260877 0
-0.000145565 0.00202002 0
-0.000127665 0.00149493 0
-0.000108512 0.00103702 0
-8.78165e-05 0.000650256 0
-6.52564e-05 0.000339034 0
-4.06087e-05 0.000107925 0
-1.41639e-05 -3.91613e-05 0
1.21795e-05 -0.000100989 0
3.2632e-05 -8.63193e-05 0
3.11139e-05 -3.09737e-05 0
0.34066 0.122991 0
-0.000480489 0.24959 0
-0.0650316 0.272015 0
-0.0630829 0.252751 0
-0.0484338 0.222356 0
-0.0349947 0.192484 0
-0.0250658 0.16692 0
-0.0181481 0.146167 0
-0.0133884 0.129631 0
-0.0100974 0.116483 0
-0.00779795 0.10595 0
-0.00617471 0.0973968 0
-0.00502013 0.0903251 0
-0.00419571 0.0843528 0
-0.00360702 0.0791904 0
-0.00318824 0.0746195 0
-0.00289243 0.0704764 0
-0.00268552 0.0666393 0
-0.00254231 0.0630188 0
-0.00244397 0.0595501 0
-0.00237625 0.0561876 0
-0.00232837 0.0529009 0
-0.00229212 0.049671 0
-0.00226132 0.0464875 0
-0.00223139 0.0433471 0
-0.00219903 0.0402512 0
-0.00216193 0.0372047 0
-0.0021186 0.0342151 0
-0.0020682 0.0312913 0
-0.00201034 0.0284431 0
-0.00194503 0.0256804 0
-0.00187249 0.0230132 0
-0.00179311 0.0204508 0
-0.00170733 0.0180024 0
-0.00161559 0.0156764 0
-0.00151823 0.0134807 0
-0.0014155 0.0114228 0
-0.00130747 0.00950997 0
-0.00119401 0.00774956 0
-0.00107481 0.00614892 0
-0.000949358 0.00471573 0
-0.000816999 0.00345807 0
-0.000677109 0.00238431 0
-0.00052944 0.00150261 0
-0.000374918 0.000819848 0
-0.000217419 0.000339375 0
-6.74872e-05 5.6633e-05 0
5.1349e-05 -5.00529e-05 0
8.59175e-05 -3.17739e-05 0
0.501037 0.0768443 0
0.0994533 0.183441 0
-0.0389462 0.249675 0
-0.0731153 0.266323 0
-0.0717887 0.258063 0
-0.060755 0.240166 0
-0.048783 0.219882 0
-0.0384699 0.2005 0
-0.0302812 0.183252 0
-0.0240052 0.168377 0
-0.019276 0.155691 0
-0.0157451 0.144864 0
-0.0131256 0.135544 0
-0.011194 0.127409 0
-0.00977952 0.120184 0
-0.00875253 0.113645 0
-0.00801442 0.107615 0
-0.00748983 0.101956 0
-0.00712093 0.0965634 0
-0.00686308 0.09136 0
-0.00668174 0.0862914 0
-0.0065502 0.0813209 0
-0.0064479 0.0764262 0
-0.00635918 0.071596 0
-0.00627229 0.0668276 0
-0.00617866 0.0621248 0
-0.0060723 0.057496 0
-0.00594927 0.0529527 0
-0.00580728 0.0485084 0
-0.00564527 0.0441778 0
-0.00546313 0.0399756 0
-0.0052614 0.0359166 0
-0.005041 0.0320147 0
-0.00480302 0.0282834 0
-0.00454855 0.0247353 0
-0.00427853 0.0213822 0
-0.00399359 0.0182353 0
-0.00369404 0.0153054 0
-0.00337976 0.012603 0
-0.00305027 0.0101388 0
-0.00270479 0.00792329 0
-0.00234252 0.00596729 0
-0.00196313 0.0042812 0
-0.00156775 0.00287441 0
-0.00116079 0.00175376 0
-0.000753415 0.000921027 0
-0.000369793 0.000367686 0
-5.58786e-05 6.88286e-05 0
9.87124e-05 -1.0638e-05 0
0.610308 0.0480856 0
0.196198 0.134166 0
0.0119305 0.209801 0
-0.0576987 0.246902 0
-0.0760788 0.257372 0
-0.074159 0.253694 0
-0.0653257 0.243041 0
-0.0551413 0.229669 0
-0.0457489 0.215856 0
-0.0378229 0.202686 0
-0.0314315 0.190583 0
-0.0264158 0.179628 0
-0.0225531 0.169735 0
-0.0196227 0.160751 0
-0.0174296 0.152506 0
-0.0158103 0.144842 0
-0.0146313 0.137618 0
-0.0137847 0.130721 0
-0.0131839 0.124061 0
-0.0127601 0.117571 0
-0.0124586 0.111202 0
-0.0122363 0.104923 0
-0.0120593 0.0987167 0
-0.0119017 0.092576 0
-0.0117438 0.0865028 0
-0.0115713 0.0805056 0
-0.011374 0.0745974 0
-0.0111453 0.0687944 0
-0.0108813 0.0631146 0
-0.0105802 0.0575771 0
-0.0102421 0.052201 0
-0.00986788 0.0470048 0
-0.00945921 0.0420064 0
-0.00901809 0.0372226 0
-0.0085465 0.0326693 0
-0.00804615 0.0283611 0
-0.00751834 0.024312 0
-0.00696377 0.0205353 0
-0.00638256 0.0170438 0
-0.00577433 0.0138501 0
-0.0051384 0.0109664 0
-0.0044743 0.00840482 0
-0.0037827 0.00617665 0
-0.00306694 0.00429154 0
-0.00233574 0.00275617 0
-0.00160785 0.00157218 0
-0.000919551 0.000731025 0
-0.000334139 0.000212604 0
3.56659e-05 1.54962e-05 0
0.680796 0.0301873 0
0.279097 0.0983258 0
0.0702168 0.171213 0
-0.0272024 0.217684 0
-0.065482 0.240948 0
-0.075504 0.249056 0
-0.0730359 0.247929 0
-0.0657687 0.241681 0
-0.0573232 0.232911 0
-0.0493086 0.223141 0
-0.04235 0.213205 0
-0.0366025 0.203515 0
-0.0320092 0.19424 0
-0.0284281 0.185409 0
-0.025694 0.176987 0
-0.0236463 0.168905 0
-0.0221405 0.161092 0
-0.0210525 0.15348 0
-0.0202775 0.146011 0
-0.019729 0.138643 0
-0.0193363 0.131346 0
-0.0190425 0.124102 0
-0.0188023 0.116905 0
-0.0185804 0.109759 0
-0.0183501 0.102672 0
-0.0180915 0.0956597 0
-0.0177909 0.0887419 0
-0.0174393 0.0819399 0
-0.0170317 0.0752767 0
-0.0165659 0.0687758 0
-0.0160423 0.0624601 0
-0.0154625 0.0563518 0
-0.0148294 0.0504718 0
-0.0141461 0.0448396 0
-0.0134157 0.0394734 0
-0.0126411 0.0343902 0
-0.0118243 0.0296057 0
-0.0109668 0.0251347 0
-0.0100692 0.0209914 0
-0.00913151 0.0171895 0
-0.0081534 0.0137422 0
-0.00713517 0.0106619 0
-0.0060788 0.00796048 0
-0.00499005 0.00564775 0
-0.00388162 0.00373109 0
-0.00277833 0.00221411 0
-0.00172475 0.00109184 0
-0.000794029 0.000354156 0
-0.000107607 4.01634e-05 0
0.730249 0.0191965 0
0.349682 0.0730974 0
0.128491 0.139329 0
0.011342 0.188131 0
-0.0448661 0.219148 0
-0.0673604 0.235743 0
-0.0727989 0.242464 0
-0.0701971 0.242796 0
-0.0642986 0.239222 0
-0.0575251 0.233384 0
-0.0510475 0.226317 0
-0.0453698 0.21864 0
-0.0406485 0.210705 0
-0.0368662 0.202697 0
-0.0339251 0.1947 0
-0.0316975 0.18674 0
-0.0300508 0.178817 0
-0.0288607 0.170916 0
-0.0280162 0.163023 0
-0.0274215 0.155127 0
-0.026996 0.147223 0
-0.0266732 0.139313 0
-0.0263994 0.131406 0
-0.0261325 0.123519 0
-0.0258402 0.115671 0
-0.0254986 0.107887 0
-0.0250913 0.100193 0
-0.0246079 0.0926184 0
-0.0240429 0.0851903 0
-0.0233945 0.0779369 0
-0.0226638 0.070885 0
-0.021854 0.06406 0
-0.0209693 0.0574854 0
-0.0200143 0.051183 0
-0.0189938 0.0451727 0
-0.017912 0.0394728 0
-0.016772 0.0341002 0
-0.0155763 0.0290706 0
-0.0143262 0.0243988 0
-0.0130222 0.0200988 0
-0.0116647 0.0161841 0
-0.0102549 0.0126674 0
-0.00879591 0.00956087 0
-0.00729547 0.00687508 0
-0.0057691 0.00461916 0
-0.00424518 0.0028005 0
-0.00277208 0.00142025 0
-0.00142542 0.000480697 0
-0.000323876 6.10886e-05 0
0.766261 0.0125766 0
0.409064 0.0556573 0
0.183311 0.114357 0
0.0525253 0.162151 0
-0.0181839 0.196845 0
-0.0523454 0.219057 0
-0.0661004 0.231653 0
-0.0690782 0.237413 0
-0.066772 0.238496 0
-0.0622336 0.236465 0
-0.0571045 0.2324 0
-0.0522185 0.227017 0
-0.0479531 0.220779 0
-0.0444335 0.213978 0
-0.0416507 0.206789 0
-0.039529 0.19932 0
-0.0379644 0.191634 0
-0.0368459 0.183769 0
-0.0360666 0.175754 0
-0.0355298 0.16761 0
-0.0351512 0.159362 0
-0.0348597 0.151032 0
-0.0345968 0.142649 0
-0.0343163 0.134244 0
-0.0339825 0.125849 0
-0.0335697 0.117498 0
-0.0330601 0.109227 0
-0.0324432 0.10107 0
-0.031714 0.0930629 0
-0.0308719 0.0852366 0
-0.0299198 0.0776223 0
-0.0288627 0.0702481 0
-0.0277069 0.06314 0
-0.0264593 0.0563214 0
-0.0251263 0.0498135 0
-0.0237139 0.0436354 0
-0.0222268 0.0378045 0
-0.0206685 0.0323366 0
-0.0190413 0.0272466 0
-0.0173464 0.0225485 0
-0.0155848 0.0182556 0
-0.0137584 0.014381 0
-0.0118711 0.0109369 0
-0.00993158 0.00793535 0
-0.00795655 0.00538814 0
-0.00597512 0.00330761 0
-0.00403504 0.00170231 0
-0.00220822 0.000587374 0
-0.000602423 7.78641e-05 0
0.793246 0.00857374 0
0.458974 0.0434875 0
0.23351 0.0950125 0
0.0937295 0.140291 0
0.0120111 0.175955 0
-0.0326446 0.201673 0
-0.054507 0.218433 0
-0.0634031 0.22841 0
-0.0652786 0.233374 0
-0.0636411 0.234718 0
-0.0605077 0.233473 0
-0.056997 0.230375 0
-0.0536916 0.225937 0
-0.0508585 0.220511 0
-0.0485839 0.214339 0
-0.0468538 0.207585 0
-0.0456024 0.200366 0
-0.0447412 0.192765 0
-0.0441756 0.184848 0
-0.0438143 0.17667 0
-0.043575 0.168281 0
-0.0433862 0.159727 0
-0.0431884 0.151056 0
-0.0429341 0.142313 0
-0.042587 0.133544 0
-0.0421212 0.124796 0
-0.0415196 0.116111 0
-0.0407727 0.107532 0
-0.0398775 0.0991002 0
-0.0388358 0.090852 0
-0.037653 0.0828218 0
-0.0363369 0.0750407 0
-0.0348965 0.0675366 0
-0.0333413 0.0603342 0
-0.0316803 0.0534554 0
-0.0299215 0.0469196 0
-0.0280712 0.0407442 0
-0.0261345 0.0349449 0
-0.0241145 0.0295359 0
-0.0220133 0.0245309 0
-0.0198324 0.0199429 0
-0.0175737 0.0157847 0
-0.0152414 0.0120695 0
-0.012844 0.00881088 0
-0.0103973 0.00602366 0
-0.0079285 0.0037257 0
-0.00548093 0.0019332 0
-0.00311808 0.00067325 0
-0.000931679 9.07744e-05 0
0.814155 0.00611035 0
0.501225 0.0348474 0
0.278945 0.0800277 0
0.133522 0.122232 0
0.0433052 0.157542 0
-0.0100464 0.184948 0
-0.0394062 0.204524 0
-0.0541781 0.21762 0
-0.0604918 0.225666 0
-0.0621526 0.229846 0
-0.0614595 0.231091 0
-0.0597627 0.230105 0
-0.0578219 0.227409 0
-0.0560345 0.223384 0
-0.0545785 0.218306 0
-0.0535034 0.212381 0
-0.0527857 0.205762 0
-0.0523644 0.19857 0
-0.052162 0.190902 0
-0.0520977 0.182841 0
-0.0520948 0.174461 0
-0.0520853 0.165831 0
-0.0520118 0.157016 0
-0.0518285 0.148076 0
-0.0515006 0.139073 0
-0.0510041 0.130061 0
-0.0503242 0.121095 0
-0.0494544 0.112225 0
-0.0483949 0.103496 0
-0.0471509 0.094951 0
-0.0457316 0.0866277 0
-0.0441484 0.0785596 0
-0.0424139 0.0707763 0
-0.0405409 0.0633035 0
-0.0385412 0.0561633 0
-0.0364253 0.0493751 0
-0.0342018 0.0429557 0
-0.031877 0.0369199 0
-0.0294554 0.0312814 0
-0.0269395 0.0260529 0
-0.024331 0.021247 0
-0.0216317 0.0168763 0
-0.0188447 0.0129547 0
-0.0159772 0.00949735 0
-0.0130423 0.00652251 0
-0.0100628 0.00405327 0
-0.00707461 0.00211303 0
-0.00412958 0.000739212 0
-0.00130048 0.00010031 0
0.830872 0.00455452 0
0.537346 0.0285823 0
0.319927 0.0683198 0
0.171313 0.107335 0
0.074697 0.141553 0
0.0143301 0.169425 0
-0.0218695 0.190808 0
-0.0422796 0.206144 0
-0.0530716 0.216562 0
-0.0582308 0.223043 0
-0.0602587 0.226399 0
-0.0606856 0.227278 0
-0.0604177 0.22618 0
-0.0599649 0.223488 0
-0.0595889 0.219496 0
-0.0593991 0.214431 0
-0.0594144 0.208474 0
-0.0596026 0.20177 0
-0.0599058 0.194442 0
-0.0602561 0.186596 0
-0.0605857 0.178329 0
-0.0608326 0.169728 0
-0.0609439 0.160875 0
-0.0608777 0.151846 0
-0.060603 0.142714 0
-0.0600995 0.133545 0
-0.0593567 0.124404 0
-0.0583726 0.115346 0
-0.0571519 0.106425 0
-0.0557047 0.0976862 0
-0.0540449 0.0891721 0
-0.0521887 0.080918 0
-0.0501531 0.0729549 0
-0.0479547 0.065309 0
-0.045609 0.0580025 0
-0.0431294 0.0510541 0
-0.0405266 0.0444795 0
-0.0378089 0.0382927 0
-0.0349816 0.0325058 0
-0.0320478 0.0271307 0
-0.029009 0.0221789 0
-0.0258659 0.0176631 0
-0.0226202 0.0135974 0
-0.0192759 0.00999863 0
-0.0158421 0.00688803 0
-0.012335 0.00429343 0
-0.00878098 0.00224445 0
-0.00521802 0.000786906 0
-0.0016986 0.000106979 0
0.844601 0.00353987 0
0.568549 0.023938 0
0.356901 0.0590764 0
0.206843 0.0950315 0
0.105444 0.127798 0
0.0392402 0.155517 0
-0.00275664 0.177758 0
-0.0284348 0.19465 0
-0.0436061 0.206836 0
-0.0523269 0.21513 0
-0.0572324 0.220225 0
-0.059988 0.222696 0
-0.0616166 0.223008 0
-0.0627219 0.221531 0
-0.0636377 0.218559 0
-0.0645273 0.214331 0
-0.0654487 0.209041 0
-0.0663978 0.202854 0
-0.0673365 0.195911 0
-0.068211 0.188338 0
-0.0689638 0.180249 0
-0.0695406 0.171747 0
-0.0698949 0.16293 0
-0.0699906 0.153889 0
-0.0698022 0.144707 0
-0.069315 0.135463 0
-0.0685243 0.126228 0
-0.0674341 0.117067 0
-0.0660552 0.108037 0
-0.064404 0.0991905 0
-0.0625003 0.0905709 0
-0.060366 0.0822164 0
-0.0580233 0.0741587 0
-0.0554936 0.0664242 0
-0.0527965 0.0590345 0
-0.0499486 0.0520074 0
-0.0469634 0.0453573 0
-0.0438509 0.0390964 0
-0.0406175 0.0332355 0
-0.0372665 0.0277848 0
-0.0337986 0.0227549 0
-0.0302131 0.0181578 0
-0.026509 0.0140078 0
-0.0226863 0.010323 0
-0.0187483 0.00712699 0
-0.0147033 0.00445147 0
-0.0105663 0.0023311 0
-0.00636028 0.000818182 0
-0.00211693 0.000111237 0
0.856136 0.0028528 0
0.595786 0.0204141 0
0.390347 0.0516807 0
0.2401 0.0847969 0
0.135215 0.115943 0
0.0642398 0.143115 0
0.0172811 0.165619 0
-0.0132313 0.183499 0
-0.0325982 0.196968 0
-0.04485 0.206654 0
-0.0526993 0.213145 0
-0.0579076 0.21694 0
-0.0615871 0.218459 0
-0.064417 0.218051 0
-0.0667912 0.216002 0
-0.0689188 0.21255 0
-0.0708925 0.207897 0
-0.0727336 0.20222 0
-0.0744226 0.195672 0
-0.0759197 0.188395 0
-0.0771781 0.180517 0
-0.0781522 0.172156 0
-0.0788031 0.163424 0
-0.0791018 0.154423 0
-0.0790297 0.145249 0
-0.0785795 0.13599 0
-0.0777537 0.126726 0
-0.0765639 0.117528 0
-0.0750286 0.108459 0
-0.0731714 0.0995749 0
-0.0710195 0.0909222 0
-0.0686015 0.0825404 0
-0.0659457 0.074462 0
-0.0630792 0.0667129 0
-0.0600261 0.0593141 0
-0.0568068 0.0522815 0
-0.0534378 0.045628 0
-0.0499308 0.0393637 0
-0.0462933 0.0334975 0
-0.0425284 0.0280376 0
-0.038636 0.0229933 0
-0.034613 0.0183755 0
-0.0304547 0.0141983 0
-0.0261565 0.0104805 0
-0.0217145 0.00724735 0
-0.0171278 0.00453332 0
-0.0123989 0.00237682 0
-0.00753508 0.000834785 0
-0.00254737 0.000113458 0
0.866012 0.00236864 0
0.619797 0.0176791 0
0.42071 0.0456813 0
0.271163 0.0762144 0
0.163802 0.105703 0
0.0889166 0.132093 0
0.0376361 0.15452 0
0.00290043 0.172857 0
-0.0204514 0.187234 0
-0.0361521 0.197962 0
-0.0469514 0.205545 0
-0.0546767 0.210414 0
-0.0605075 0.212943 0
-0.0651817 0.213449 0
-0.0691414 0.212207 0
-0.0726337 0.209448 0
-0.0757802 0.205376 0
-0.0786239 0.200175 0
-0.081162 0.194007 0
-0.0833675 0.187024 0
-0.0852039 0.179368 0
-0.0866345 0.171168 0
-0.087629 0.162548 0
-0.0881661 0.153622 0
-0.0882358 0.144497 0
-0.0878392 0.135268 0
-0.0869877 0.126024 0
-0.0857017 0.116842 0
-0.0840088 0.107791 0
-0.0819415 0.0989289 0
-0.0795353 0.0903051 0
-0.0768267 0.0819601 0
-0.0738511 0.0739264 0
-0.0706418 0.0662292 0
-0.0672281 0.058888 0
-0.0636348 0.0519169 0
-0.0598813 0.0453264 0
-0.0559815 0.0391242 0
-0.0519437 0.0333168 0
-0.0477707 0.0279103 0
-0.0434607 0.0229119 0
-0.039008 0.0183312 0
-0.0344037 0.0141815 0
-0.029637 0.0104814 0
-0.0246965 0.00725704 0
-0.0195707 0.00454467 0
-0.0142493 0.0023851 0
-0.00872298 0.000838217 0
-0.00298277 0.000113934 0
0.874603 0.00201358 0
0.641154 0.0155092 0
0.448386 0.0407443 0
0.300168 0.0689465 0
0.191124 0.0968046 0
0.113054 0.122277 0
0.0580294 0.14439 0
0.019503 0.162868 0
-0.0075223 0.17779 0
-0.0265409 0.189269 0
-0.0402509 0.197679 0
-0.0505134 0.203394 0
-0.0585541 0.20674 0
-0.0651548 0.208007 0
-0.0707946 0.207448 0
-0.0757503 0.205286 0
-0.0801666 0.201725 0
-0.0841042 0.196948 0
-0.087574 0.191125 0
-0.0905603 0.184417 0
-0.0930359 0.176975 0
-0.0949731 0.168939 0
-0.0963498 0.160444 0
-0.097154 0.151614 0
-0.0973848 0.142564 0
-0.097053 0.133399 0
-0.0961803 0.124215 0
-0.0947975 0.115094 0
-0.0929425 0.106109 0
-0.0906579 0.0973206 0
-0.0879888 0.0887808 0
-0.0849806 0.0805302 0
-0.081677 0.0726007 0
-0.0781179 0.0650164 0
-0.0743387 0.0577947 0
-0.0703686 0.0509473 0
-0.0662305 0.044482 0
-0.0619404 0.0384037 0
-0.0575072 0.032716 0
-0.0529333 0.0274222 0
-0.0482151 0.0225273 0
-0.0433434 0.0180388 0
-0.0383044 0.0139687 0
-0.0330807 0.0103348 0
-0.0276522 0.00716311 0
-0.0219966 0.00449047 0
-0.0160898 0.00235888 0
-0.00990611 0.000829669 0
-0.00341669 0.000112874 0
0.882168 0.00174302 0
0.660301 0.013751 0
0.473713 0.0366214 0
0.327262 0.0627241 0
0.217157 0.0890126 0
0.136503 0.113493 0
0.0782283 0.135127 0
0.0362898 0.153532 0
0.00595636 0.168675 0
-0.0162614 0.180676 0
-0.0328243 0.189688 0
-0.0456161 0.196047 0
-0.0558955 0.200036 0
-0.0644758 0.201912 0
-0.0718636 0.20191 0
-0.0783576 0.200245 0
-0.0841199 0.197111 0
-0.0892245 0.192696 0
-0.0936932 0.187172 0
-0.0975191 0.180707 0
-0.100683 0.173459 0
-0.103167 0.165579 0
-0.104955 0.157211 0
-0.106047 0.148487 0
-0.106451 0.139531 0
-0.106189 0.130457 0
-0.105294 0.121365 0
-0.103809 0.112342 0
-0.101783 0.103466 0
-0.0992698 0.0947993 0
-0.0963262 0.0863943 0
-0.0930072 0.0782916 0
-0.0893653 0.0705222 0
-0.0854481 0.0631082 0
-0.0812975 0.0560645 0
-0.0769476 0.0494 0
-0.072425 0.0431192 0
-0.0677476 0.0372238 0
-0.0629251 0.0317139 0
-0.0579593 0.0265898 0
-0.0528441 0.0218536 0
-0.0475665 0.0175103 0
-0.0421075 0.0135699 0
-0.0364424 0.0100486 0
-0.0305417 0.00697143 0
-0.0243718 0.00437472 0
-0.0178946 0.00230045 0
-0.0110679 0.000810018 0
-0.00384325 0.000110416 0
0.8889 0.00152925 0
0.677583 0.0122966 0
0.496975 0.0331256 0
0.35259 0.0573324 0
0.241914 0.0821243 0
0.15917 0.105577 0
0.0980718 0.12662 0
0.0530512 0.144791 0
0.0196392 0.159969 0
-0.00555289 0.172234 0
-0.024879 0.181651 0
-0.0401676 0.188468 0
-0.0526907 0.192934 0
-0.063281 0.195276 0
-0.0724629 0.195708 0
-0.0805502 0.194433 0
-0.0877162 0.191642 0
-0.0940444 0.187517 0
-0.0995639 0.182238 0
-0.104275 0.175975 0
-0.108165 0.168894 0
-0.111223 0.161154 0
-0.113444 0.152907 0
-0.114834 0.144294 0
-0.115415 0.135447 0
-0.115221 0.126485 0
-0.114296 0.117513 0
-0.112697 0.108625 0
-0.110486 0.0998981 0
-0.10773 0.0913979 0
-0.104497 0.0831763 0
-0.100853 0.0752732 0
-0.0968607 0.0677179 0
-0.0925758 0.0605299 0
-0.088047 0.053721 0
-0.083314 0.0472966 0
-0.0784068 0.0412578 0
-0.0733457 0.0356022 0
-0.0681411 0.0303263 0
-0.0627935 0.025427 0
-0.0572945 0.0209028 0
-0.051627 0.0167558 0
-0.0457659 0.0129932 0
-0.0396789 0.00962915 0
-0.033327 0.00668668 0
-0.0266645 0.00420049 0
-0.0196394 0.00221147 0
-0.0121927 0.000779861 0
-0.00425695 0.00010664 0
0.894935 0.00135445 0
0.693268 0.0110683 0
0.518407 0.0301132 0
0.376286 0.0525973 0
0.265419 0.0759645 0
0.180998 0.0983724 0
0.117443 0.118739 0
0.0696383 0.136544 0
0.0333813 0.1516 0
0.0054301 0.163913 0
-0.0165863 0.173576 0
-0.0343314 0.180686 0
-0.0490882 0.185478 0
-0.0617018 0.188149 0
-0.0727067 0.188894 0
-0.0824249 0.187905 0
-0.0910363 0.185366 0
-0.0986291 0.181459 0
-0.105237 0.176364 0
-0.110865 0.170258 0
-0.115505 0.163312 0
-0.119155 0.155693 0
-0.121816 0.147559 0
-0.123508 0.13906 0
-0.124262 0.130333 0
-0.124124 0.121504 0
-0.123155 0.112681 0
-0.121425 0.103962 0
-0.11901 0.0954247 0
-0.115992 0.0871359 0
-0.112451 0.0791465 0
-0.108466 0.0714947 0
-0.104109 0.0642072 0
-0.0994452 0.0573003 0
-0.0945308 0.0507823 0
-0.0894109 0.0446545 0
-0.0841195 0.0389138 0
-0.078679 0.0335538 0
-0.0731002 0.0285668 0
-0.0673827 0.0239456 0
-0.0615152 0.019685 0
-0.055476 0.0157836 0
-0.0492339 0.0122455 0
-0.0427487 0.00908167 0
-0.0359713 0.00631247 0
-0.0288441 0.00397002 0
-0.0213007 0.00209309 0
-0.0132657 0.00073956 0
-0.0046525 0.000101575 0
0.900377 0.00120666 0
0.707563 0.0100086 0
0.538197 0.027472 0
0.398464 0.0483759 0
0.287703 0.0703824 0
0.201944 0.0917371 0
0.136245 0.111361 0
0.0859164 0.128696 0
0.0470125 0.143502 0
0.016438 0.155727 0
-0.00812048 0.165443 0
-0.0282626 0.172694 0
-0.0452292 0.177666 0
-0.0598651 0.180534 0
-0.0727072 0.181475 0
-0.0840793 0.180667 0
-0.0941627 0.17829 0
-0.103047 0.174525 0
-0.110766 0.169554 0
-0.117329 0.163557 0
-0.122732 0.156713 0
-0.126977 0.149193 0
-0.130077 0.141165 0
-0.132061 0.132782 0
-0.132973 0.12419 0
-0.132874 0.115515 0
-0.131839 0.106872 0
-0.129955 0.098358 0
-0.127313 0.0900535 0
-0.124009 0.0820231 0
-0.120139 0.0743165 0
-0.115793 0.066969 0
-0.111055 0.0600041 0
-0.106001 0.0534342 0
-0.100693 0.0472632 0
-0.0951824 0.0414882 0
-0.0895075 0.0361014 0
-0.0836927 0.0310917 0
-0.0777492 0.0264472 0
-0.0716751 0.0221562 0
-0.0654563 0.0182094 0
-0.0590663 0.0146014 0
-0.0524676 0.0113326 0
-0.0456117 0.00841042 0
-0.0384394 0.00585169 0
-0.0308811 0.00368501 0
-0.022856 0.00194608 0
-0.0142725 0.000689312 0
-0.00502477 9.52186e-05 0
0.905302 0.0010775 0
0.720629 0.00907353 0