# vtk DataFile Version 3.0
Malha 2D com triângulos e temperatura
ASCII
DATASET UNSTRUCTURED_GRID

POINTS 2500 double
0 0 0
1 0 0
1 1 0
0 1 0
0.0204082 0 0
0.0408163 0 0
0.0612245 0 0
0.0816327 0 0
0.102041 0 0
0.122449 0 0
0.142857 0 0
0.163265 0 0
0.183673 0 0
0.204082 0 0
0.22449 0 0
0.244898 0 0
0.265306 0 0
0.285714 0 0
0.306122 0 0
0.326531 0 0
0.346939 0 0
0.367347 0 0
0.387755 0 0
0.408163 0 0
0.428571 0 0
0.44898 0 0
0.469388 0 0
0.489796 0 0
0.510204 0 0
0.530612 0 0
0.55102 0 0
0.571429 0 0
0.591837 0 0
0.612245 0 0
0.632653 0 0
0.653061 0 0
0.673469 0 0
0.693878 0 0
0.714286 0 0
0.734694 0 0
0.755102 0 0
0.77551 0 0
0.795918 0 0
0.816327 0 0
0.836735 0 0
0.857143 0 0
0.877551 0 0
0.897959 0 0
0.918367 0 0
0.938776 0 0
0.959184 0 0
0.979592 0 0
1 0.0204082 0
1 0.0408163 0
1 0.0612245 0
1 0.0816327 0
1 0.102041 0
1 0.122449 0
1 0.142857 0
1 0.163265 0
1 0.183673 0
1 0.204082 0
1 0.22449 0
1 0.244898 0
1 0.265306 0
1 0.285714 0
1 0.306122 0
1 0.326531 0
1 0.346939 0
1 0.367347 0
1 0.387755 0
1 0.408163 0
1 0.428571 0
1 0.44898 0
1 0.469388 0
1 0.489796 0
1 0.510204 0
1 0.530612 0
1 0.55102 0
1 0.571429 0
1 0.591837 0
1 0.612245 0
1 0.632653 0
1 0.653061 0
1 0.673469 0
1 0.693878 0
1 0.714286 0
1 0.734694 0
1 0.755102 0
1 0.77551 0
1 0.795918 0
1 0.816327 0
1 0.836735 0
1 0.857143 0
1 0.877551 0
1 0.897959 0
1 0.918367 0
1 0.938776 0
1 0.959184 0
1 0.979592 0
0.979592 1 0
0.959184 1 0
0.938776 1 0
0.918367 1 0
0.897959 1 0
0.877551 1 0
0.857143 1 0
0.836735 1 0
0.816327 1 0
0.795918 1 0
0.77551 1 0
0.755102 1 0
0.734694 1 0
0.714286 1 0
0.693878 1 0
0.673469 1 0
0.653061 1 0
0.632653 1 0
0.612245 1 0
0.591837 1 0
0.571429 1 0
0.55102 1 0
0.530612 1 0
0.510204 1 0
0.489796 1 0
0.469388 1 0
0.44898 1 0
0.428571 1 0
0.408163 1 0
0.387755 1 0
0.367347 1 0
0.346939 1 0
0.326531 1 0
0.306122 1 0
0.285714 1 0
0.265306 1 0
0.244898 1 0
0.22449 1 0
0.204082 1 0
0.183673 1 0
0.163265 1 0
0.142857 1 0
0.122449 1 0
0.102041 1 0
0.0816327 1 0
0.0612245 1 0
0.0408163 1 0
0.0204082 1 0
0 0.979592 0
0 0.959184 0
0 0.938776 0
0 0.918367 0
0 0.897959 0
0 0.877551 0
0 0.857143 0
0 0.836735 0
0 0.816327 0
0 0.795918 0
0 0.77551 0
0 0.755102 0
0 0.734694 0
0 0.714286 0
0 0.693878 0
0 0.673469 0
0 0.653061 0
0 0.632653 0
0 0.612245 0
0 0.591837 0
0 0.571429 0
0 0.55102 0
0 0.530612 0
0 0.510204 0
0 0.489796 0
0 0.469388 0
0 0.44898 0
0 0.428571 0
0 0.408163 0
0 0.387755 0
0 0.367347 0
0 0.346939 0
0 0.326531 0
0 0.306122 0
0 0.285714 0
0 0.265306 0
0 0.244898 0
0 0.22449 0
0 0.204082 0
0 0.183673 0
0 0.163265 0
0 0.142857 0
0 0.122449 0
0 0.102041 0
0 0.0816327 0
0 0.0612245 0
0 0.0408163 0
0 0.0204082 0
0.0204082 0.979592 0
0.0204082 0.959184 0
0.0204082 0.938776 0
0.0204082 0.918367 0
0.0204082 0.897959 0
0.0204082 0.877551 0
0.0204082 0.857143 0
0.0204082 0.836735 0
0.0204082 0.816327 0
0.0204082 0.795918 0
0.0204082 0.77551 0
0.0204082 0.755102 0
0.0204082 0.734694 0
0.0204082 0.714286 0
0.0204082 0.693878 0
0.0204082 0.673469 0
0.0204082 0.653061 0
0.0204082 0.632653 0
0.0204082 0.612245 0
0.0204082 0.591837 0
0.0204082 0.571429 0
0.0204082 0.55102 0
0.0204082 0.530612 0
0.0204082 0.510204 0
0.0204082 0.489796 0
0.0204082 0.469388 0
0.0204082 0.44898 0
0.0204082 0.428571 0
0.0204082 0.408163 0
0.0204082 0.387755 0
0.0204082 0.367347 0
0.0204082 0.346939 0
0.0204082 0.326531 0
0.0204082 0.306122 0
0.0204082 0.285714 0
0.0204082 0.265306 0
0.0204082 0.244898 0
0.0204082 0.22449 0
0.0204082 0.204082 0
0.0204082 0.183673 0
0.0204082 0.163265 0
0.0204082 0.142857 0
0.0204082 0.122449 0
0.0204082 0.102041 0
0.0204082 0.0816327 0
0.0204082 0.0612245 0
0.0204082 0.0408163 0
0.0204082 0.0204082 0
0.0408163 0.979592 0
0.0408163 0.959184 0
0.0408163 0.938776 0
0.0408163 0.918367 0
0.0408163 0.897959 0
0.0408163 0.877551 0
0.0408163 0.857143 0
0.0408163 0.836735 0
0.0408163 0.816327 0
0.0408163 0.795918 0
0.0408163 0.77551 0
0.0408163 0.755102 0
0.0408163 0.734694 0
0.0408163 0.714286 0
0.0408163 0.693878 0
0.0408163 0.673469 0
0.0408163 0.653061 0
0.0408163 0.632653 0
0.0408163 0.612245 0
0.0408163 0.591837 0
0.0408163 0.571429 0
0.0408163 0.55102 0
0.0408163 0.530612 0
0.0408163 0.510204 0
0.0408163 0.489796 0
0.0408163 0.469388 0
0.0408163 0.44898 0
0.0408163 0.428571 0
0.0408163 0.408163 0
0.0408163 0.387755 0
0.0408163 0.367347 0
0.0408163 0.346939 0
0.0408163 0.326531 0
0.0408163 0.306122 0
0.0408163 0.285714 0
0.0408163 0.265306 0
0.0408163 0.244898 0
0.0408163 0.22449 0
0.0408163 0.204082 0
0.0408163 0.183673 0
0.0408163 0.163265 0
0.0408163 0.142857 0
0.0408163 0.122449 0
0.0408163 0.102041 0
0.0408163 0.0816327 0
0.0408163 0.0612245 0
0.0408163 0.0408163 0
0.0408163 0.0204082 0
0.0612245 0.979592 0
0.0612245 0.959184 0
0.0612245 0.938776 0
0.0612245 0.918367 0
0.0612245 0.897959 0
0.0612245 0.877551 0
0.0612245 0.857143 0
0.0612245 0.836735 0
0.0612245 0.816327 0
0.0612245 0.795918 0
0.0612245 0.77551 0
0.0612245 0.755102 0
0.0612245 0.734694 0
0.0612245 0.714286 0
0.0612245 0.693878 0
0.0612245 0.673469 0
0.0612245 0.653061 0
0.0612245 0.632653 0
0.0612245 0.612245 0
0.0612245 0.591837 0
0.0612245 0.571429 0
0.0612245 0.55102 0
0.0612245 0.530612 0
0.0612245 0.510204 0
0.0612245 0.489796 0
0.0612245 0.469388 0
0.0612245 0.44898 0
0.0612245 0.428571 0
0.0612245 0.408163 0
0.0612245 0.387755 0
0.0612245 0.367347 0
0.0612245 0.346939 0
0.0612245 0.326531 0
0.0612245 0.306122 0
0.0612245 0.285714 0
0.0612245 0.265306 0
0.0612245 0.244898 0
0.0612245 0.22449 0
0.0612245 0.204082 0
0.0612245 0.183673 0
0.0612245 0.163265 0
0.0612245 0.142857 0
0.0612245 0.122449 0
0.0612245 0.102041 0
0.0612245 0.0816327 0
0.0612245 0.0612245 0
0.0612245 0.0408163 0
0.0612245 0.0204082 0
0.0816327 0.979592 0
0.0816327 0.959184 0
0.0816327 0.938776 0
0.0816327 0.918367 0
0.0816327 0.897959 0
0.0816327 0.877551 0
0.0816327 0.857143 0
0.0816327 0.836735 0
0.0816327 0.816327 0
0.0816327 0.795918 0
0.0816327 0.77551 0
0.0816327 0.755102 0
0.0816327 0.734694 0
0.0816327 0.714286 0
0.0816327 0.693878 0
0.0816327 0.673469 0
0.0816327 0.653061 0
0.0816327 0.632653 0
0.0816327 0.612245 0
0.0816327 0.591837 0
0.0816327 0.571429 0
0.0816327 0.55102 0
0.0816327 0.530612 0
0.0816327 0.510204 0
0.0816327 0.489796 0
0.0816327 0.469388 0
0.0816327 0.44898 0
0.0816327 0.428571 0
0.0816327 0.408163 0
0.0816327 0.387755 0
0.0816327 0.367347 0
0.0816327 0.346939 0
0.0816327 0.326531 0
0.0816327 0.306122 0
0.0816327 0.285714 0
0.0816327 0.265306 0
0.0816327 0.244898 0
0.0816327 0.22449 0
0.0816327 0.204082 0
0.0816327 0.183673 0
0.0816327 0.163265 0
0.0816327 0.142857 0
0.0816327 0.122449 0
0.0816327 0.102041 0
0.0816327 0.0816327 0
0.0816327 0.0612245 0
0.0816327 0.0408163 0
0.0816327 0.0204082 0
0.102041 0.979592 0
0.102041 0.959184 0
0.102041 0.938776 0
0.102041 0.918367 0
0.102041 0.897959 0
0.102041 0.877551 0
0.102041 0.857143 0
0.102041 0.836735 0
0.102041 0.816327 0
0.102041 0.795918 0
0.102041 0.77551 0
0.102041 0.755102 0
0.102041 0.734694 0
0.102041 0.714286 0
0.102041 0.693878 0
0.102041 0.673469 0
0.102041 0.653061 0
0.102041 0.632653 0
0.102041 0.612245 0
0.102041 0.591837 0
0.102041 0.571429 0
0.102041 0.55102 0
0.102041 0.530612 0
0.102041 0.510204 0
0.102041 0.489796 0
0.102041 0.469388 0
0.102041 0.44898 0
0.102041 0.428571 0
0.102041 0.408163 0
0.102041 0.387755 0
0.102041 0.367347 0
0.102041 0.346939 0
0.102041 0.326531 0
0.102041 0.306122 0
0.102041 0.285714 0
0.102041 0.265306 0
0.102041 0.244898 0
0.102041 0.22449 0
0.102041 0.204082 0
0.102041 0.183673 0
0.102041 0.163265 0
0.102041 0.142857 0
0.102041 0.122449 0
0.102041 0.102041 0
0.102041 0.0816327 0
0.102041 0.0612245 0
0.102041 0.0408163 0
0.102041 0.0204082 0
0.122449 0.979592 0
0.122449 0.959184 0
0.122449 0.938776 0
0.122449 0.918367 0
0.122449 0.897959 0
0.122449 0.877551 0
0.122449 0.857143 0
0.122449 0.836735 0
0.122449 0.816327 0
0.122449 0.795918 0
0.122449 0.77551 0
0.122449 0.755102 0
0.122449 0.734694 0
0.122449 0.714286 0
0.122449 0.693878 0
0.122449 0.673469 0
0.122449 0.653061 0
0.122449 0.632653 0
0.122449 0.612245 0
0.122449 0.591837 0
0.122449 0.571429 0
0.122449 0.55102 0
0.122449 0.530612 0
0.122449 0.510204 0
0.122449 0.489796 0
0.122449 0.469388 0
0.122449 0.44898 0
0.122449 0.428571 0
0.122449 0.408163 0
0.122449 0.387755 0
0.122449 0.367347 0
0.122449 0.346939 0
0.122449 0.326531 0
0.122449 0.306122 0
0.122449 0.285714 0
0.122449 0.265306 0
0.122449 0.244898 0
0.122449 0.22449 0
0.122449 0.204082 0
0.122449 0.183673 0
0.122449 0.163265 0
0.122449 0.142857 0
0.122449 0.122449 0
0.122449 0.102041 0
0.122449 0.0816327 0
0.122449 0.0612245 0
0.122449 0.0408163 0
0.122449 0.0204082 0
0.142857 0.979592 0
0.142857 0.959184 0
0.142857 0.938776 0
0.142857 0.918367 0
0.142857 0.897959 0
0.142857 0.877551 0
0.142857 0.857143 0
0.142857 0.836735 0
0.142857 0.816327 0
0.142857 0.795918 0
0.142857 0.77551 0
0.142857 0.755102 0
0.142857 0.734694 0
0.142857 0.714286 0
0.142857 0.693878 0
0.142857 0.673469 0
0.142857 0.653061 0
0.142857 0.632653 0
0.142857 0.612245 0
0.142857 0.591837 0
0.142857 0.571429 0
0.142857 0.55102 0
0.142857 0.530612 0
0.142857 0.510204 0
0.142857 0.489796 0
0.142857 0.469388 0
0.142857 0.44898 0
0.142857 0.428571 0
0.142857 0.408163 0
0.142857 0.387755 0
0.142857 0.367347 0
0.142857 0.346939 0
0.142857 0.326531 0
0.142857 0.306122 0
0.142857 0.285714 0
0.142857 0.265306 0
0.142857 0.244898 0
0.142857 0.22449 0
0.142857 0.204082 0
0.142857 0.183673 0
0.142857 0.163265 0
0.142857 0.142857 0
0.142857 0.122449 0
0.142857 0.102041 0
0.142857 0.0816327 0
0.142857 0.0612245 0
0.142857 0.0408163 0
0.142857 0.0204082 0
0.163265 0.979592 0
0.163265 0.959184 0
0.163265 0.938776 0
0.163265 0.918367 0
0.163265 0.897959 0
0.163265 0.877551 0
0.163265 0.857143 0
0.163265 0.836735 0
0.163265 0.816327 0
0.163265 0.795918 0
0.163265 0.77551 0
0.163265 0.755102 0
0.163265 0.734694 0
0.163265 0.714286 0
0.163265 0.693878 0
0.163265 0.673469 0
0.163265 0.653061 0
0.163265 0.632653 0
0.163265 0.612245 0
0.163265 0.591837 0
0.163265 0.571429 0
0.163265 0.55102 0
[...]
CELL_DATA 2401
VECTORS velocity double
0.257356 0.157465 0.0
-0.00269856 0.264601 0.0
-0.0322998 0.205506 0.0
-0.025376 0.150653 0.0
-0.0160576 0.113129 0.0
-0.00970551 0.0877648 0.0
-0.0059362 0.0706661 0.0
-0.00375625 0.0589299 0.0
-0.00247659 0.0506517 0.0
-0.00170134 0.0446495 0.0
-0.00121478 0.0401794 0.0
-0.000899796 0.0367601 0.0
-0.000691245 0.0340705 0.0
-0.000551437 0.0318906 0.0
-0.00045754 0.0300659 0.0
-0.000395081 0.0284864 0.0
-0.000354501 0.0270729 0.0
-0.000329252 0.0257683 0.0
-0.000314709 0.0245314 0.0
-0.000307519 0.0233333 0.0
-0.000305197 0.0221539 0.0
-0.000305874 0.0209802 0.0
-0.000308128 0.0198045 0.0
-0.00031088 0.0186233 0.0
-0.000313313 0.0174361 0.0
-0.000314825 0.0162451 0.0
-0.000314988 0.015054 0.0
-0.000313513 0.0138679 0.0
-0.000310231 0.0126927 0.0
-0.000305068 0.0115346 0.0
-0.000298022 0.0104002 0.0
-0.000289148 0.0092958 0.0
-0.00027854 0.00822777 0.0
-0.000266313 0.00720197 0.0
-0.000252591 0.00622393 0.0
-0.000237492 0.00529882 0.0
-0.000221117 0.00443142 0.0
-0.000203536 0.00362621 0.0
-0.000184778 0.00288747 0.0
-0.000164821 0.00221933 0.0
-0.000143579 0.00162596 0.0
-0.000120892 0.00111161 0.0
-9.65335e-05 0.000680759 0.0
-7.02522e-05 0.000338023 0.0
-4.19306e-05 8.78369e-05 0.0
-1.20614e-05 -6.6528e-05 0.0
1.70226e-05 -0.000125222 0.0
3.86081e-05 -0.000100163 0.0
3.48409e-05 -3.46696e-05 0.0
0.340618 0.122965 0.0
-0.000616351 0.249455 0.0
-0.0652103 0.271708 0.0
-0.06325 0.252285 0.0
-0.0485392 0.221785 0.0
-0.0350096 0.191896 0.0
-0.0249838 0.16642 0.0
-0.017978 0.145862 0.0
-0.013147 0.129612 0.0
-0.00980413 0.116822 0.0
-0.0074716 0.1067 0.0
-0.00583196 0.0985876 0.0
-0.00467503 0.0919687 0.0
-0.00385973 0.0864449 0.0
-0.00328936 0.0817131 0.0
-0.00289616 0.077544 0.0
-0.00263162 0.0737651 0.0
-0.00246031 0.0702479 0.0
-0.00235588 0.0668974 0.0
-0.00229844 0.0636455 0.0
-0.00227278 0.0604444 0.0
-0.00226718 0.0572625 0.0
-0.00227258 0.0540811 0.0
-0.00228198 0.0508915 0.0
-0.00229003 0.0476925 0.0
-0.00229274 0.0444891 0.0
-0.00228719 0.0412906 0.0
-0.00227141 0.0381093 0.0
-0.00224416 0.0349597 0.0
-0.00220482 0.0318576 0.0
-0.00215322 0.0288192 0.0
-0.00208958 0.0258607 0.0
-0.00201437 0.0229979 0.0
-0.00192822 0.020246 0.0
-0.00183183 0.0176193 0.0
-0.00172589 0.0151312 0.0
-0.00161104 0.0127943 0.0
-0.00148778 0.0106203 0.0
-0.00135645 0.00862036 0.0
-0.0012172 0.0068052 0.0
-0.00107 0.00518509 0.0
-0.000914712 0.00377002 0.0
-0.000751246 0.00256954 0.0
-0.000579982 0.00159218 0.0
-0.000402675 0.000844139 0.0
-0.00022445 0.000326841 0.0
-5.79271e-05 3.20882e-05 0.0
6.98389e-05 -6.8299e-05 0.0
9.96613e-05 -3.75617e-05 0.0
0.500905 0.0768056 0.0
0.0991523 0.183265 0.0
-0.0392988 0.249316 0.0
-0.0734093 0.265826 0.0
-0.071932 0.257514 0.0
-0.0606927 0.239681 0.0
-0.0485005 0.21959 0.0
-0.0379836 0.200531 0.0
-0.0296258 0.183719 0.0
-0.0232236 0.169369 0.0
-0.0184117 0.157275 0.0
-0.0148385 0.14708 0.0
-0.0122121 0.138406 0.0
-0.0103035 0.130909 0.0
-0.00893667 0.124297 0.0
-0.00797716 0.11833 0.0
-0.00732222 0.112818 0.0
-0.0068929 0.107612 0.0
-0.0066281 0.102601 0.0
-0.00648026 0.0977029 0.0
-0.00641214 0.0928586 0.0
-0.0063945 0.0880308 0.0
-0.00640439 0.0831972 0.0
-0.00642393 0.0783488 0.0
-0.00643933 0.0734865 0.0
-0.00644021 0.0686189 0.0
-0.00641899 0.0637606 0.0
-0.00637042 0.0589303 0.0
-0.00629122 0.0541494 0.0
-0.00617964 0.049441 0.0
-0.00603518 0.0448288 0.0
-0.0058583 0.0403367 0.0
-0.00565012 0.0359877 0.0
-0.0054122 0.031804 0.0
-0.00514632 0.0278067 0.0
-0.00485428 0.0240156 0.0
-0.00453774 0.0204491 0.0
-0.00419813 0.0171247 0.0
-0.00383657 0.0140584 0.0
-0.00345386 0.0112658 0.0
-0.00305059 0.00876128 0.0
-0.00262737 0.00655841 0.0
-0.00218545 0.00466933 0.0
-0.00172777 0.00310392 0.0
-0.001261 0.00186805 0.0
-0.000799463 0.000960777 0.0
-0.000371905 0.000368754 0.0
-3.11364e-05 5.92315e-05 0.0
0.000122489 -1.52035e-05 0.0
0.610074 0.0480475 0.0
0.195736 0.134002 0.0
0.0114243 0.209499 0.0
-0.0580593 0.246522 0.0
-0.0761725 0.257029 0.0
-0.0739129 0.253522 0.0
-0.0647224 0.24318 0.0
-0.0542069 0.230256 0.0
-0.0445379 0.21701 0.0
-0.0364033 0.204502 0.0
-0.0298742 0.193129 0.0
-0.0247883 0.182943 0.0
-0.0209159 0.173832 0.0
-0.0180277 0.165618 0.0
-0.0159206 0.15811 0.0
-0.014423 0.151131 0.0
-0.0133942 0.144526 0.0
-0.0127197 0.138169 0.0
-0.0123073 0.131962 0.0
-0.0120828 0.125831 0.0
-0.0119863 0.119722 0.0
-0.0119703 0.113604 0.0
-0.0119965 0.107459 0.0
-0.012035 0.101283 0.0
-0.0120624 0.0950824 0.0
-0.0120612 0.0888713 0.0
-0.0120183 0.0826702 0.0
-0.0119248 0.076504 0.0
-0.0117751 0.0704002 0.0
-0.0115662 0.0643882 0.0
-0.0112974 0.0584977 0.0
-0.0109694 0.0527583 0.0
-0.0105842 0.0471987 0.0
-0.0101447 0.0418465 0.0
-0.00965397 0.0367277 0.0
-0.00911526 0.0318666 0.0
-0.00853166 0.0272861 0.0
-0.00790591 0.0230074 0.0
-0.0072403 0.0190504 0.0
-0.0065368 0.0154336 0.0
-0.0057972 0.0121742 0.0
-0.00502369 0.00928758 0.0
-0.00421983 0.00678733 0.0
-0.00339228 0.0046838 0.0
-0.0025538 0.00298269 0.0
-0.00172833 0.00168279 0.0
-0.000959307 0.000770414 0.0
-0.000319896 0.000217677 0.0
6.2613e-05 1.34918e-05 0.0
0.680477 0.0301579 0.0
0.278519 0.098208 0.0
0.0696456 0.171023 0.0
-0.0275373 0.217513 0.0
-0.0654182 0.24092 0.0
-0.074957 0.249315 0.0
-0.0719906 0.248618 0.0
-0.0642646 0.242935 0.0
-0.0554361 0.234845 0.0
-0.0471326 0.225847 0.0
-0.0399843 0.216745 0.0
-0.0341425 0.207924 0.0
-0.0295416 0.199524 0.0
-0.0260287 0.19155 0.0
-0.0234271 0.183944 0.0
-0.021565 0.176619 0.0
-0.0202877 0.169486 0.0
-0.0194614 0.162465 0.0
-0.0189725 0.155489 0.0
-0.0187265 0.148507 0.0
-0.0186451 0.141486 0.0
-0.0186643 0.134407 0.0
-0.0187324 0.127264 0.0
-0.018808 0.120062 0.0
-0.0188588 0.112816 0.0
-0.0188602 0.105549 0.0
-0.0187942 0.098287 0.0
-0.0186483 0.0910619 0.0
-0.0184149 0.0839073 0.0
-0.0180899 0.0768579 0.0
-0.0176727 0.0699485 0.0
-0.0171646 0.0632133 0.0
-0.016569 0.0566854 0.0
-0.0158901 0.0503963 0.0
-0.0151328 0.0443754 0.0
-0.014302 0.0386504 0.0
-0.0134026 0.0332471 0.0
-0.012439 0.0281892 0.0
-0.0114151 0.0234989 0.0
-0.0103344 0.0191965 0.0
-0.00920044 0.0153008 0.0
-0.00801744 0.0118284 0.0
-0.00679184 0.00879352 0.0
-0.00553434 0.00620728 0.0
-0.00426353 0.00407634 0.0
-0.00301146 0.00240176 0.0
-0.00183212 0.00117388 0.0
-0.000810921 0.000375731 0.0
-8.63984e-05 4.10019e-05 0.0
0.72988 0.0191812 0.0
0.349051 0.0730471 0.0
0.127937 0.139291 0.0
0.0111372 0.188217 0.0
-0.0445319 0.219488 0.0
-0.0663969 0.236484 0.0
-0.0711986 0.243746 0.0
-0.0680156 0.244745 0.0
-0.0616344 0.241947 0.0
-0.0544991 0.236967 0.0
-0.0477869 0.230811 0.0
-0.0419981 0.224072 0.0
-0.0372786 0.217074 0.0
-0.0335977 0.209977 0.0
-0.0308433 0.202844 0.0
-0.0288734 0.19568 0.0
-0.027542 0.18847 0.0
-0.026712 0.181186 0.0
-0.0262607 0.173803 0.0
-0.0260814 0.166303 0.0
-0.026083 0.158677 0.0
-0.0261897 0.150926 0.0
-0.0263388 0.143059 0.0
-0.0264798 0.135096 0.0
-0.026573 0.127062 0.0
-0.026588 0.118989 0.0
-0.0265027 0.110911 0.0
-0.026302 0.102867 0.0
-0.0259767 0.0948968 0.0
-0.0255227 0.0870398 0.0
-0.0249396 0.0793354 0.0
-0.02423 0.0718218 0.0
-0.0233989 0.0645353 0.0
-0.0224525 0.0575102 0.0
-0.0213976 0.0507785 0.0
-0.0202415 0.0443699 0.0
-0.0189909 0.0383119 0.0
-0.0176522 0.0326296 0.0
-0.0162312 0.0273465 0.0
-0.0147333 0.0224839 0.0
-0.013164 0.0180611 0.0
-0.0115297 0.0140956 0.0
-0.00983979 0.0106026 0.0
-0.00810849 0.00759405 0.0
-0.00635897 0.00507911 0.0
-0.00462873 0.00306334 0.0
-0.00297739 0.00154406 0.0
-0.00149459 0.000518276 0.0
-0.000317338 6.45693e-05 0.0
0.765883 0.0125768 0.0
0.408456 0.0556805 0.0
0.18287 0.114481 0.0
0.0525627 0.162497 0.0
-0.01747 0.197554 0.0
-0.050859 0.220277 0.0
-0.0638463 0.233512 0.0
-0.0661295 0.240027 0.0
-0.0632508 0.241961 0.0
-0.0582876 0.240852 0.0
-0.0528887 0.237753 0.0
-0.0478833 0.233354 0.0
-0.0436369 0.22809 0.0
-0.0402591 0.22223 0.0
-0.0377238 0.215929 0.0
-0.0359383 0.209274 0.0
-0.0347818 0.202313 0.0
-0.0341279 0.195073 0.0
-0.0338549 0.187571 0.0
-0.0338522 0.179823 0.0
-0.0340226 0.171847 0.0
-0.0342827 0.163666 0.0
-0.0345628 0.155308 0.0
-0.034806 0.146808 0.0
-0.0349673 0.138204 0.0
-0.0350125 0.129537 0.0
-0.0349168 0.120851 0.0
-0.0346636 0.112192 0.0
-0.0342433 0.103606 0.0
-0.0336523 0.0951365 0.0
-0.0328915 0.0868279 0.0
-0.0319655 0.0787215 0.0
-0.0308813 0.070856 0.0
-0.0296475 0.0632678 0.0
-0.0282736 0.0559906 0.0
-0.0267692 0.049055 0.0
-0.0251433 0.0424893 0.0
-0.0234047 0.0363194 0.0
-0.0215612 0.0305689 0.0
-0.01962 0.0252595 0.0
-0.0175888 0.0204108 0.0
-0.015476 0.0160407 0.0
-0.0132933 0.0121652 0.0
-0.0110576 0.00879832 0.0
-0.00879458 0.00595245 0.0
-0.00654421 0.00363909 0.0
-0.00436686 0.00186417 0.0
-0.00234955 0.000639318 0.0
-0.000618729 8.36082e-05 0.0
0.792902 0.00858864 0.0
0.458468 0.0435825 0.0
0.233274 0.0952948 0.0
0.0941057 0.140886 0.0
0.0132231 0.177 0.0
-0.0305382 0.203325 0.0
-0.0515147 0.220813 0.0
-0.0596149 0.231615 0.0
-0.06084 0.237488 0.0
-0.0587258 0.2398 0.0
-0.0552972 0.239556 0.0
-0.0516677 0.237467 0.0
-0.0484059 0.234021 0.0
-0.0457613 0.229548 0.0
-0.0438004 0.22427 0.0
-0.0424894 0.218334 0.0
-0.0417432 0.21184 0.0
-0.0414546 0.204861 0.0
-0.0415117 0.197452 0.0
-0.0418066 0.189661 0.0
-0.0422411 0.181535 0.0
-0.042729 0.173118 0.0
-0.0431971 0.164458 0.0
-0.0435852 0.155605 0.0
-0.0438455 0.14661 0.0
-0.0439417 0.137526 0.0
-0.0438482 0.128405 0.0
-0.0435483 0.119301 0.0
-0.0430334 0.110266 0.0
-0.0423014 0.101349 0.0
-0.0413555 0.092597 0.0
-0.0402028 0.0840548 0.0
-0.0388533 0.0757632 0.0
-0.0373186 0.0677599 0.0
-0.0356111 0.0600792 0.0
-0.0337433 0.0527525 0.0
-0.0317269 0.0458079 0.0
-0.029573 0.0392712 0.0
-0.0272915 0.0331656 0.0
-0.0248917 0.0275126 0.0
-0.0223829 0.0223317 0.0
-0.0197754 0.0176411 0.0
-0.017082 0.0134579 0.0
-0.014321 0.00979825 0.0
-0.0115187 0.00667856 0.0
-0.00871427 0.00411685 0.0
-0.00596472 0.00212802 0.0
-0.00334921 0.000737464 0.0
-0.000977885 9.83711e-05 0.0
0.813885 0.00613799 0.0
0.500894 0.0350078 0.0
0.278998 0.0804569 0.0
0.134319 0.123056 0.0
0.0450742 0.158895 0.0
-0.00721747 0.186955 0.0
-0.0355983 0.207338 0.0
-0.0494925 0.221317 0.0
-0.0550931 0.230313 0.0
-0.0562372 0.235488 0.0
-0.0552334 0.237751 0.0
-0.053426 0.237783 0.0
-0.0515598 0.236083 0.0
-0.0500123 0.233009 0.0
-0.0489399 0.228821 0.0
-0.0483696 0.223706 0.0
-0.0482561 0.217805 0.0
-0.0485171 0.211224 0.0
-0.0490551 0.204054 0.0
-0.0497699 0.19637 0.0
-0.0505666 0.188243 0.0
-0.0513599 0.179739 0.0
-0.0520764 0.170925 0.0
-0.0526551 0.161864 0.0
-0.0530478 0.152622 0.0
-0.0532184 0.143263 0.0
-0.053142 0.133849 0.0
-0.0528035 0.12444 0.0
-0.0521966 0.115094 0.0
-0.0513221 0.105865 0.0
-0.0501863 0.0968049 0.0
-0.0488 0.0879594 0.0
-0.0471768 0.0793714 0.0
-0.045332 0.0710793 0.0
-0.0432815 0.063118 0.0
-0.0410409 0.0555182 0.0
-0.038625 0.0483078 0.0
-0.0360473 0.0415115 0.0
-0.03332 0.0351519 0.0
-0.0304541 0.0292495 0.0
-0.0274603 0.0238236 0.0
-0.0243498 0.0188925 0.0
-0.0211359 0.0144744 0.0
-0.0178365 0.0105877 0.0
-0.0144766 0.00725276 0.0
-0.0110917 0.00449416 0.0
-0.00773209 0.00233527 0.0
-0.00446548 0.000813522 0.0
-0.00138244 0.00010938 0.0
0.830709 0.00459208 0.0
0.537256 0.0287974 0.0
0.320347 0.0688745 0.0
0.172606 0.108354 0.0
0.0770893 0.143163 0.0
0.0178976 0.171747 0.0
-0.017204 0.193964 0.0
-0.0366612 0.210225 0.0
-0.0466889 0.221615 0.0
-0.0513023 0.229101 0.0
-0.0530122 0.233477 0.0
-0.053343 0.235369 0.0
-0.0531851 0.235256 0.0
-0.0530267 0.233503 0.0
-0.0531059 0.230386 0.0
-0.0535075 0.226118 0.0
-0.0542261 0.220864 0.0
-0.055206 0.214759 0.0
-0.0563667 0.207917 0.0
-0.0576186 0.200439 0.0
-0.058873 0.192415 0.0
-0.0600483 0.183933 0.0
-0.0610731 0.175074 0.0
-0.0618883 0.165917 0.0
-0.0624474 0.156542 0.0
-0.0627162 0.147021 0.0
-0.0626724 0.137426 0.0
-0.0623042 0.127825 0.0
-0.0616088 0.118282 0.0
-0.0605912 0.108855 0.0
-0.0592622 0.0995985 0.0
-0.057637 0.0905614 0.0
-0.0557339 0.0817874 0.0
-0.0535725 0.0733153 0.0
-0.0511727 0.0651795 0.0
-0.0485539 0.0574101 0.0
-0.045734 0.0500338 0.0
-0.0427291 0.043074 0.0
-0.0395537 0.0365519 0.0
-0.0362201 0.0304869 0.0
-0.0327399 0.0248976 0.0
-0.0291245 0.019802 0.0
-0.0253867 0.0152193 0.0
-0.0215423 0.0111699 0.0
-0.0176129 0.00767806 0.0
-0.0136285 0.00477398 0.0
-0.0096299 0.00248857 0.0
-0.00567091 0.000869244 0.0
-0.00182103 0.000117197 0.0
0.844571 0.00358426 0.0
0.568756 0.0241949 0.0
0.357751 0.0597297 0.0
0.20869 0.0962028 0.0
0.108511 0.129603 0.0
0.0435985 0.158065 0.0
0.0028367 0.181134 0.0
-0.0218531 0.198984 0.0
-0.0362279 0.212156 0.0
-0.0443858 0.221454 0.0
-0.0489741 0.227557 0.0
-0.0516533 0.231023 0.0
-0.0534299 0.2323 0.0
-0.0548852 0.23174 0.0
-0.0563277 0.229623 0.0
-0.0578942 0.226172 0.0
-0.0596165 0.221569 0.0
-0.0614648 0.215966 0.0
-0.0633762 0.209498 0.0
-0.0652727 0.202283 0.0
-0.0670736 0.194431 0.0
-0.0687027 0.186043 0.0
-0.0700928 0.177218 0.0
-0.0711881 0.168048 0.0
-0.0719457 0.158624 0.0
-0.0723352 0.149029 0.0
-0.0723385 0.139343 0.0
-0.0719484 0.129642 0.0
-0.0711675 0.119994 0.0
-0.070006 0.110463 0.0
-0.0684805 0.101105 0.0
-0.0666118 0.0919714 0.0
-0.0644235 0.0831061 0.0
-0.0619404 0.0745482 0.0
-0.059187 0.0663312 0.0
-0.0561869 0.0584839 0.0
-0.0529614 0.0510312 0.0
-0.0495294 0.0439948 0.0
-0.0459072 0.0373941 0.0
-0.0421086 0.031247 0.0
-0.0381453 0.0255707 0.0
-0.034028 0.0203829 0.0
-0.0297679 0.0157032 0.0
-0.0253775 0.0115536 0.0
-0.0208734 0.00796149 0.0
-0.0162778 0.00496188 0.0
-0.0116204 0.00259186 0.0
-0.00693969 0.000906648 0.0
-0.00228348 0.000122332 0.0
0.856258 0.00290122 0.0
0.596331 0.0207002 0.0
0.391674 0.0524059 0.0
0.242542 0.0860803 0.0
0.138983 0.117891 0.0
0.0693896 0.145823 0.0
0.0237341 0.169165 0.0
-0.00567892 0.187961 0.0
-0.0242266 0.202421 0.0
-0.03591 0.213096 0.0
-0.04345 0.22057 0.0
-0.0486049 0.225332 0.0
-0.0524716 0.227787 0.0
-0.0557063 0.228269 0.0
-0.0586767 0.227047 0.0
-0.0615641 0.224349 0.0
-0.0644331 0.220363 0.0
-0.0672775 0.215255 0.0
-0.0700509 0.209171 0.0
-0.0726873 0.202245 0.0
-0.0751144 0.1946 0.0
-0.0772622 0.186352 0.0
-0.0790688 0.177614 0.0
-0.0804835 0.168489 0.0
-0.0814681 0.159079 0.0
-0.0819978 0.149477 0.0
-0.08206 0.139771 0.0
-0.0816539 0.130043 0.0
-0.0807885 0.120367 0.0
-0.0794809 0.11081 0.0
-0.0777544 0.101431 0.0
-0.0756367 0.0922822 0.0
-0.0731577 0.0834084 0.0
-0.070348 0.0748477 0.0
-0.0672375 0.0666324 0.0
-0.0638542 0.0587895 0.0
-0.0602233 0.0513418 0.0
-0.0563664 0.0443087 0.0
-0.0523016 0.0377072 0.0
-0.0480436 0.0315531 0.0
-0.043604 0.0258621 0.0
-0.038992 0.020651 0.0
-0.0342158 0.0159389 0.0
-0.0292837 0.0117493 0.0
-0.0242056 0.00811149 0.0
-0.0189946 0.00506422 0.0
-0.0136681 0.00264925 0.0
-0.008248 0.000927651 0.0
-0.00276077 0.000125204 0.0
0.866298 0.0024185 0.0
0.62071 0.0179818 0.0
0.422548 0.0464508 0.0
0.274229 0.0775663 0.0
0.168288 0.107733 0.0
0.0948676 0.134882 0.0
0.0449626 0.158134 0.0
0.0114096 0.177341 0.0
-0.0111061 0.192682 0.0
-0.02624 0.204377 0.0
-0.0367427 0.21291 0.0
-0.0444395 0.218709 0.0
-0.050496 0.222136 0.0
-0.0556275 0.223497 0.0
-0.0602493 0.223051 0.0
-0.0645799 0.221019 0.0
-0.0687115 0.217594 0.0
-0.072658 0.212946 0.0
-0.0763878 0.207231 0.0
-0.0798456 0.200593 0.0
-0.0829673 0.193167 0.0
-0.0856898 0.185083 0.0
-0.087957 0.176463 0.0
-0.0897241 0.167422 0.0
-0.0909592 0.158071 0.0
-0.091644 0.148513 0.0
-0.091773 0.138843 0.0
-0.0913531 0.129148 0.0
-0.0904013 0.119508 0.0
-0.0889427 0.109991 0.0
-0.0870089 0.100661 0.0
-0.084635 0.0915691 0.0
-0.0818586 0.0827601 0.0
-0.0787168 0.0742713 0.0
-0.0752456 0.0661331 0.0
-0.0714777 0.0583702 0.0
-0.0674424 0.0510027 0.0
-0.0631642 0.0440471 0.0
-0.0586629 0.0375177 0.0
-0.0539537 0.0314278 0.0
-0.0490474 0.0257907 0.0
-0.0439512 0.0206219 0.0
-0.0386693 0.0159397 0.0
-0.0332047 0.0117677 0.0
-0.0275595 0.00813644 0.0
-0.0217365 0.00508705 0.0
-0.0157396 0.00266453 0.0
-0.00957401 0.000933883 0.0
-0.00324489 0.000126135 0.0
0.875057 0.00206266 0.0
0.64245 0.015817 0.0
0.450753 0.041532 0.0
0.303869 0.0703259 0.0
0.196328 0.0988626 0.0
0.119789 0.125081 0.0
0.0661892 0.147993 0.0
0.0288808 0.167309 0.0
0.00279777 0.183092 0.0
-0.0156814 0.195515 0.0
-0.0291193 0.204836 0.0
-0.0393817 0.211437 0.0
-0.0476857 0.215638 0.0
-0.0547927 0.217719 0.0
-0.0611557 0.21792 0.0
-0.0670226 0.216457 0.0
-0.0725078 0.213518 0.0
-0.0776418 0.209277 0.0
-0.0824051 0.203897 0.0
-0.0867516 0.19753 0.0
-0.0906247 0.190319 0.0
-0.0939677 0.182404 0.0
-0.0967309 0.173918 0.0
-0.0988761 0.164985 0.0
-0.100378 0.155726 0.0
-0.101227 0.14625 0.0
-0.101426 0.13666 0.0
-0.10099 0.127048 0.0
-0.0999459 0.117497 0.0
-0.0983281 0.10808 0.0
-0.0961775 0.0988605 0.0
-0.0935382 0.0898902 0.0
-0.0904559 0.0812132 0.0
-0.0869754 0.0728651 0.0
-0.0831389 0.0648739 0.0
-0.0789849 0.0572615 0.0
-0.0745466 0.0500448 0.0
-0.0698515 0.0432369 0.0
-0.0649211 0.0368489 0.0
-0.0597707 0.0308908 0.0
-0.0544099 0.0253735 0.0
-0.0488429 0.02031 0.0
-0.0430698 0.0157174 0.0
-0.0370868 0.0116183 0.0
-0.0308873 0.00804369 0.0
-0.0244631 0.00503557 0.0
-0.0178038 0.00264079 0.0
-0.0108975 0.000926615 0.0
-0.00372862 0.000125353 0.0
0.882789 0.00178944 0.0
0.661985 0.0140534 0.0
0.476614 0.0374026 0.0
0.331596 0.0640916 0.0
0.223066 0.0910441 0.0
0.143996 0.116244 0.0
0.0871881 0.13864 0.0
0.0464947 0.157835 0.0
0.0171127 0.173787 0.0
-0.00451426 0.186636 0.0
-0.0208219 0.196511 0.0
-0.0336395 0.203699 0.0
-0.0442159 0.208491 0.0
-0.0533465 0.211135 0.0
-0.0615124 0.211854 0.0
-0.0689837 0.210853 0.0
-0.0758918 0.208317 0.0
-0.0822795 0.204421 0.0
-0.0881368 0.199329 0.0
-0.093425 0.193199 0.0
-0.0980936 0.186185 0.0
-0.102092 0.178433 0.0
-0.105377 0.170085 0.0
-0.107917 0.161274 0.0
-0.109696 0.152128 0.0
-0.110711 0.142765 0.0
-0.110976 0.133292 0.0
-0.110516 0.123806 0.0
-0.109369 0.114394 0.0
-0.10758 0.10513 0.0
-0.1052 0.0960774 0.0
-0.102283 0.0872891 0.0
-0.0988841 0.0788071 0.0
-0.0950565 0.0706646 0.0
-0.0908495 0.0628867 0.0
-0.0863071 0.055492 0.0
-0.0814672 0.0484934 0.0
-0.0763602 0.0419005 0.0
-0.0710091 0.0357203 0.0
-0.0654291 0.0299593 0.0
-0.0596282 0.024625 0.0
-0.0536072 0.0197277 0.0
-0.0473608 0.015282 0.0
-0.0408782 0.0113092 0.0
-0.0341433 0.00783926 0.0
-0.027136 0.00491387 0.0
-0.0198313 0.00258037 0.0
-0.0121998 0.000906752 0.0
-0.00420531 0.000123001 0.0
0.889681 0.00157145 0.0
0.679646 0.012584 0.0
0.500399 0.0338772 0.0
0.357541 0.0586507 0.0
0.2485 0.0840779 0.0
0.167384 0.10821 0.0
0.107782 0.129962 0.0
0.0640288 0.148861 0.0
0.0315903 0.16478 0.0
0.00704938 0.177783 0.0
-0.0120554 0.188013 0.0
-0.0274 0.1956 0.0
-0.0402512 0.200812 0.0
-0.0514299 0.20387 0.0
-0.0614377 0.20498 0.0
-0.0705605 0.204333 0.0
-0.0789413 0.202111 0.0
-0.0866316 0.198486 0.0
-0.0936278 0.193626 0.0
-0.0998964 0.187694 0.0
-0.105392 0.180849 0.0
-0.110069 0.173245 0.0
-0.113891 0.165032 0.0
-0.116834 0.15635 0.0
-0.118889 0.147334 0.0
-0.120065 0.138108 0.0
-0.120386 0.128785 0.0
-0.119889 0.119465 0.0
-0.118623 0.110237 0.0
-0.116645 0.101176 0.0
-0.114019 0.0923456 0.0
-0.110809 0.0837973 0.0
-0.107081 0.075571 0.0
-0.102896 0.0676969 0.0
-0.0983118 0.0601965 0.0
-0.0933784 0.0530844 0.0
-0.0881381 0.0463694 0.0
-0.0826247 0.0400564 0.0
-0.0768623 0.0341483 0.0
-0.0708659 0.0286475 0.0
-0.0646414 0.0235574 0.0
-0.0581858 0.018885 0.0
-0.051488 0.0146419 0.0
-0.0445293 0.0108469 0.0
-0.0372837 0.00752779 0.0
-0.0297186 0.00472498 0.0
-0.021794 0.00248492 0.0
-0.0134629 0.000874869 0.0
-0.0046687 0.00011915 0.0
0.895865 0.00139115 0.0
0.695692 0.0113325 0.0
0.52233 0.0308149 0.0
0.381822 0.0538327 0.0
0.272642 0.0777939 0.0
0.18988 0.10083 0.0
0.12784 0.121843 0.0
0.0813151 0.140308 0.0
0.0460364 0.156033 0.0
0.0187272 0.169018 0.0
-0.00301998 0.179375 0.0
-0.0208388 0.187191 0.0
-0.0359471 0.192661 0.0
-0.0491793 0.19599 0.0
-0.0610496 0.197365 0.0
-0.071853 0.196964 0.0
-0.0817395 0.194964 0.0
-0.0907651 0.191534 0.0
-0.0989299 0.186846 0.0
-0.106203 0.181065 0.0
-0.112544 0.174356 0.0
-0.117911 0.16688 0.0
-0.122273 0.158793 0.0
-0.125616 0.150244 0.0
-0.127939 0.141373 0.0
-0.129262 0.132308 0.0
-0.129621 0.123165 0.0
-0.129066 0.114049 0.0
-0.127659 0.105049 0.0
-0.125472 0.0962417 0.0