# vtk DataFile Version 3.0
Malha 2D com triângulos: velocidade e pressão
ASCII
DATASET UNSTRUCTURED_GRID

POINTS 2500 double
0 0 0
1 0 0
1 1 0
0 1 0
0.0204082 0 0
0.0408163 0 0
0.0612245 0 0
0.0816327 0 0
0.102041 0 0
0.122449 0 0
0.142857 0 0
0.163265 0 0
0.183673 0 0
0.204082 0 0
0.22449 0 0
0.244898 0 0
0.265306 0 0
0.285714 0 0
0.306122 0 0
0.326531 0 0
0.346939 0 0
0.367347 0 0
0.387755 0 0
0.408163 0 0
0.428571 0 0
0.44898 0 0
0.469388 0 0
0.489796 0 0
0.510204 0 0
0.530612 0 0
0.55102 0 0
0.571429 0 0
0.591837 0 0
0.612245 0 0
0.632653 0 0
0.653061 0 0
0.673469 0 0
0.693878 0 0
0.714286 0 0
0.734694 0 0
0.755102 0 0
0.77551 0 0
0.795918 0 0
0.816327 0 0
0.836735 0 0
0.857143 0 0
0.877551 0 0
0.897959 0 0
0.918367 0 0
0.938776 0 0
0.959184 0 0
0.979592 0 0
1 0.0204082 0
1 0.0408163 0
1 0.0612245 0
1 0.0816327 0
1 0.102041 0
1 0.122449 0
1 0.142857 0
1 0.163265 0
1 0.183673 0
1 0.204082 0
1 0.22449 0
1 0.244898 0
1 0.265306 0
1 0.285714 0
1 0.306122 0
1 0.326531 0
1 0.346939 0
1 0.367347 0
1 0.387755 0
1 0.408163 0
1 0.428571 0
1 0.44898 0
1 0.469388 0
1 0.489796 0
1 0.510204 0
1 0.530612 0
1 0.55102 0
1 0.571429 0
1 0.591837 0
1 0.612245 0
1 0.632653 0
1 0.653061 0
1 0.673469 0
1 0.693878 0
1 0.714286 0
1 0.734694 0
1 0.755102 0
1 0.77551 0
1 0.795918 0
1 0.816327 0
1 0.836735 0
1 0.857143 0
1 0.877551 0
1 0.897959 0
1 0.918367 0
1 0.938776 0
1 0.959184 0
1 0.979592 0
0.979592 1 0
0.959184 1 0
0.938776 1 0
0.918367 1 0
0.897959 1 0
0.877551 1 0
0.857143 1 0
0.836735 1 0
0.816327 1 0
0.795918 1 0
0.77551 1 0
0.755102 1 0
0.734694 1 0
0.714286 1 0
0.693878 1 0
0.673469 1 0
0.653061 1 0
0.632653 1 0
0.612245 1 0
0.591837 1 0
0.571429 1 0
0.55102 1 0
0.530612 1 0
0.510204 1 0
0.489796 1 0
0.469388 1 0
0.44898 1 0
0.428571 1 0
0.408163 1 0
0.387755 1 0
0.367347 1 0
0.346939 1 0
0.326531 1 0
0.306122 1 0
0.285714 1 0
0.265306 1 0
0.244898 1 0
0.22449 1 0
0.204082 1 0
0.183673 1 0
0.163265 1 0
0.142857 1 0
0.122449 1 0
0.102041 1 0
0.0816327 1 0
0.0612245 1 0
0.0408163 1 0
0.0204082 1 0
0 0.979592 0
0 0.959184 0
0 0.938776 0
0 0.918367 0
0 0.897959 0
0 0.877551 0
0 0.857143 0
0 0.836735 0
0 0.816327 0
0 0.795918 0
0 0.77551 0
0 0.755102 0
0 0.734694 0
0 0.714286 0
0 0.693878 0
0 0.673469 0
0 0.653061 0
0 0.632653 0
0 0.612245 0
0 0.591837 0
0 0.571429 0
0 0.55102 0
0 0.530612 0
0 0.510204 0
0 0.489796 0
0 0.469388 0
0 0.44898 0
0 0.428571 0
0 0.408163 0
0 0.387755 0
0 0.367347 0
0 0.346939 0
0 0.326531 0
0 0.306122 0
0 0.285714 0
0 0.265306 0
0 0.244898 0
0 0.22449 0
0 0.204082 0
0 0.183673 0
0 0.163265 0
0 0.142857 0
0 0.122449 0
0 0.102041 0
0 0.0816327 0
0 0.0612245 0
0 0.0408163 0
0 0.0204082 0
0.0204082 0.979592 0
0.0204082 0.959184 0
0.0204082 0.938776 0
0.0204082 0.918367 0
0.0204082 0.897959 0
0.0204082 0.877551 0
0.0204082 0.857143 0
0.0204082 0.836735 0
0.0204082 0.816327 0
0.0204082 0.795918 0
0.0204082 0.77551 0
0.0204082 0.755102 0
0.0204082 0.734694 0
0.0204082 0.714286 0
0.0204082 0.693878 0
0.0204082 0.673469 0
0.0204082 0.653061 0
0.0204082 0.632653 0
0.0204082 0.612245 0
0.0204082 0.591837 0
0.0204082 0.571429 0
0.0204082 0.55102 0
0.0204082 0.530612 0
0.0204082 0.510204 0
0.0204082 0.489796 0
0.0204082 0.469388 0
0.0204082 0.44898 0
0.0204082 0.428571 0
0.0204082 0.408163 0
0.0204082 0.387755 0
0.0204082 0.367347 0
0.0204082 0.346939 0
0.0204082 0.326531 0
0.0204082 0.306122 0
0.0204082 0.285714 0
0.0204082 0.265306 0
0.0204082 0.244898 0
0.0204082 0.22449 0
0.0204082 0.204082 0
0.0204082 0.183673 0
0.0204082 0.163265 0
0.0204082 0.142857 0
0.0204082 0.122449 0
0.0204082 0.102041 0
0.0204082 0.0816327 0
0.0204082 0.0612245 0
0.0204082 0.0408163 0
0.0204082 0.0204082 0
0.0408163 0.979592 0
0.0408163 0.959184 0
0.0408163 0.938776 0
0.0408163 0.918367 0
0.0408163 0.897959 0
0.0408163 0.877551 0
0.0408163 0.857143 0
0.0408163 0.836735 0
0.0408163 0.816327 0
0.0408163 0.795918 0
0.0408163 0.77551 0
0.0408163 0.755102 0
0.0408163 0.734694 0
0.0408163 0.714286 0
0.0408163 0.693878 0
0.0408163 0.673469 0
0.0408163 0.653061 0
0.0408163 0.632653 0
0.0408163 0.612245 0
0.0408163 0.591837 0
0.0408163 0.571429 0
0.0408163 0.55102 0
0.0408163 0.530612 0
0.0408163 0.510204 0
0.0408163 0.489796 0
0.0408163 0.469388 0
0.0408163 0.44898 0
0.0408163 0.428571 0
0.0408163 0.408163 0
0.0408163 0.387755 0
0.0408163 0.367347 0
0.0408163 0.346939 0
0.0408163 0.326531 0
0.0408163 0.306122 0
0.0408163 0.285714 0
0.0408163 0.265306 0
0.0408163 0.244898 0
0.0408163 0.22449 0
0.0408163 0.204082 0
0.0408163 0.183673 0
0.0408163 0.163265 0
0.0408163 0.142857 0
0.0408163 0.122449 0
0.0408163 0.102041 0
0.0408163 0.0816327 0
0.0408163 0.0612245 0
0.0408163 0.0408163 0
0.0408163 0.0204082 0
0.0612245 0.979592 0
0.0612245 0.959184 0
0.0612245 0.938776 0
0.0612245 0.918367 0
0.0612245 0.897959 0
0.0612245 0.877551 0
0.0612245 0.857143 0
0.0612245 0.836735 0
0.0612245 0.816327 0
0.0612245 0.795918 0
0.0612245 0.77551 0
0.0612245 0.755102 0
0.0612245 0.734694 0
0.0612245 0.714286 0
0.0612245 0.693878 0
0.0612245 0.673469 0
0.0612245 0.653061 0
0.0612245 0.632653 0
0.0612245 0.612245 0
0.0612245 0.591837 0
0.0612245 0.571429 0
0.0612245 0.55102 0
0.0612245 0.530612 0
0.0612245 0.510204 0
0.0612245 0.489796 0
0.0612245 0.469388 0
0.0612245 0.44898 0
0.0612245 0.428571 0
0.0612245 0.408163 0
0.0612245 0.387755 0
0.0612245 0.367347 0
0.0612245 0.346939 0
0.0612245 0.326531 0
0.0612245 0.306122 0
0.0612245 0.285714 0
0.0612245 0.265306 0
0.0612245 0.244898 0
0.0612245 0.22449 0
0.0612245 0.204082 0
0.0612245 0.183673 0
0.0612245 0.163265 0
0.0612245 0.142857 0
0.0612245 0.122449 0
0.0612245 0.102041 0
0.0612245 0.0816327 0
0.0612245 0.0612245 0
0.0612245 0.0408163 0
0.0612245 0.0204082 0
0.0816327 0.979592 0
0.0816327 0.959184 0
0.0816327 0.938776 0
0.0816327 0.918367 0
0.0816327 0.897959 0
0.0816327 0.877551 0
0.0816327 0.857143 0
0.0816327 0.836735 0
0.0816327 0.816327 0
0.0816327 0.795918 0
0.0816327 0.77551 0
0.0816327 0.755102 0
0.0816327 0.734694 0
0.0816327 0.714286 0
0.0816327 0.693878 0
0.0816327 0.673469 0
0.0816327 0.653061 0
0.0816327 0.632653 0
0.0816327 0.612245 0
0.0816327 0.591837 0
0.0816327 0.571429 0
0.0816327 0.55102 0
0.0816327 0.530612 0
0.0816327 0.510204 0
0.0816327 0.489796 0
0.0816327 0.469388 0
0.0816327 0.44898 0
0.0816327 0.428571 0
0.0816327 0.408163 0
0.0816327 0.387755 0
0.0816327 0.367347 0
0.0816327 0.346939 0
0.0816327 0.326531 0
0.0816327 0.306122 0
0.0816327 0.285714 0
0.0816327 0.265306 0
0.0816327 0.244898 0
0.0816327 0.22449 0
0.0816327 0.204082 0
0.0816327 0.183673 0
0.0816327 0.163265 0
0.0816327 0.142857 0
0.0816327 0.122449 0
0.0816327 0.102041 0
0.0816327 0.0816327 0
0.0816327 0.0612245 0
0.0816327 0.0408163 0
0.0816327 0.0204082 0
0.102041 0.979592 0
0.102041 0.959184 0
0.102041 0.938776 0
0.102041 0.918367 0
0.102041 0.897959 0
0.102041 0.877551 0
0.102041 0.857143 0
0.102041 0.836735 0
0.102041 0.816327 0
0.102041 0.795918 0
0.102041 0.77551 0
0.102041 0.755102 0
0.102041 0.734694 0
0.102041 0.714286 0
0.102041 0.693878 0
0.102041 0.673469 0
0.102041 0.653061 0
0.102041 0.632653 0
0.102041 0.612245 0
0.102041 0.591837 0
0.102041 0.571429 0
0.102041 0.55102 0
0.102041 0.530612 0
0.102041 0.510204 0
0.102041 0.489796 0
0.102041 0.469388 0
0.102041 0.44898 0
0.102041 0.428571 0
0.102041 0.408163 0
0.102041 0.387755 0
0.102041 0.367347 0
0.102041 0.346939 0
0.102041 0.326531 0
0.102041 0.306122 0
0.102041 0.285714 0
0.102041 0.265306 0
0.102041 0.244898 0
0.102041 0.22449 0
0.102041 0.204082 0
0.102041 0.183673 0
0.102041 0.163265 0
0.102041 0.142857 0
0.102041 0.122449 0
0.102041 0.102041 0
0.102041 0.0816327 0
0.102041 0.0612245 0
0.102041 0.0408163 0
0.102041 0.0204082 0
0.122449 0.979592 0
0.122449 0.959184 0
0.122449 0.938776 0
0.122449 0.918367 0
0.122449 0.897959 0
0.122449 0.877551 0
0.122449 0.857143 0
0.122449 0.836735 0
0.122449 0.816327 0
0.122449 0.795918 0
0.122449 0.77551 0
0.122449 0.755102 0
0.122449 0.734694 0
0.122449 0.714286 0
0.122449 0.693878 0
0.122449 0.673469 0
0.122449 0.653061 0
0.122449 0.632653 0
0.122449 0.612245 0
0.122449 0.591837 0
0.122449 0.571429 0
0.122449 0.55102 0
0.122449 0.530612 0
0.122449 0.510204 0
0.122449 0.489796 0
0.122449 0.469388 0
0.122449 0.44898 0
0.122449 0.428571 0
0.122449 0.408163 0
0.122449 0.387755 0
0.122449 0.367347 0
0.122449 0.346939 0
0.122449 0.326531 0
0.122449 0.306122 0
0.122449 0.285714 0
0.122449 0.265306 0
0.122449 0.244898 0
0.122449 0.22449 0
0.122449 0.204082 0
0.122449 0.183673 0
0.122449 0.163265 0
0.122449 0.142857 0
0.122449 0.122449 0
0.122449 0.102041 0
0.122449 0.0816327 0
0.122449 0.0612245 0
0.122449 0.0408163 0
0.122449 0.0204082 0
0.142857 0.979592 0
0.142857 0.959184 0
0.142857 0.938776 0
0.142857 0.918367 0
0.142857 0.897959 0
0.142857 0.877551 0
0.142857 0.857143 0
0.142857 0.836735 0
0.142857 0.816327 0
0.142857 0.795918 0
0.142857 0.77551 0
0.142857 0.755102 0
0.142857 0.734694 0
0.142857 0.714286 0
0.142857 0.693878 0
0.142857 0.673469 0
0.142857 0.653061 0
0.142857 0.632653 0
0.142857 0.612245 0
0.142857 0.591837 0
0.142857 0.571429 0
0.142857 0.55102 0
0.142857 0.530612 0
0.142857 0.510204 0
0.142857 0.489796 0
0.142857 0.469388 0
0.142857 0.44898 0
0.142857 0.428571 0
0.142857 0.408163 0
0.142857 0.387755 0
0.142857 0.367347 0
0.142857 0.346939 0
0.142857 0.326531 0
0.142857 0.306122 0
0.142857 0.285714 0
0.142857 0.265306 0
0.142857 0.244898 0
0.142857 0.22449 0
0.142857 0.204082 0
0.142857 0.183673 0
0.142857 0.163265 0
0.142857 0.142857 0
0.142857 0.122449 0
0.142857 0.102041 0
0.142857 0.0816327 0
0.142857 0.0612245 0
0.142857 0.0408163 0
0.142857 0.0204082 0
0.163265 0.979592 0
0.163265 0.959184 0
0.163265 0.938776 0
0.163265 0.918367 0
0.163265 0.897959 0
0.163265 0.877551 0
0.163265 0.857143 0
0.163265 0.836735 0
0.163265 0.816327 0
0.163265 0.795918 0
0.163265 0.77551 0
0.163265 0.755102 0
0.163265 0.734694 0
0.163265 0.714286 0
0.163265 0.693878 0
0.163265 0.673469 0
0.163265 0.653061 0
0.163265 0.632653 0
0.163265 0.612245 0
0.163265 0.591837 0
0.163265 0.571429 0
0.163265 0.55102 0
[...]
CELL_DATA 2401
VECTORS velocity double
0.257354 0.157462 0
-0.00271861 0.264568 0
-0.0323315 0.205406 0
-0.0254073 0.150481 0
-0.016079 0.112903 0
-0.0097128 0.087519 0
-0.00592944 0.0704401 0
-0.00373774 0.0587601 0
-0.00244939 0.0505677 0
-0.00166843 0.0446725 0
-0.00117863 0.0403233 0
-0.000862343 0.037032 0
-0.000653932 0.0344726 0
-0.000515318 0.0324205 0
-0.000423391 0.0307184 0
-0.000363488 0.0292536 0
-0.000325919 0.0279451 0
-0.00030405 0.0267339 0
-0.000293188 0.025578 0
-0.00028992 0.0244471 0
-0.000291703 0.0233205 0
-0.000296601 0.0221846 0
-0.000303125 0.0210316 0
-0.000310119 0.0198579 0
-0.000316688 0.0186635 0
-0.000322149 0.0174508 0
-0.000325994 0.0162247 0
-0.000327866 0.0149912 0
-0.000327528 0.0137574 0
-0.000324852 0.0125312 0
-0.000319793 0.0113207 0
-0.000312379 0.0101342 0
-0.000302685 0.0089797 0
-0.000290826 0.00786501 0
-0.000276936 0.00679755 0
-0.000261153 0.0057843 0
-0.000243611 0.0048318 0
-0.000224421 0.00394613 0
-0.000203658 0.00313305 0
-0.000181352 0.00239798 0
-0.000157469 0.0017462 0
-0.000131907 0.00118286 0
-0.000104495 0.000713102 0
-7.50501e-05 0.000341953 0
-4.355e-05 7.39356e-05 0
-1.06655e-05 -8.80426e-05 0
2.08968e-05 -0.000145168 0
4.36278e-05 -0.00011192 0
3.81039e-05 -3.79049e-05 0
0.340584 0.122944 0
-0.000715184 0.249357 0
-0.0653343 0.271492 0
-0.0633595 0.251966 0
-0.0485998 0.221407 0
-0.0350039 0.191524 0
-0.0249098 0.166131 0
-0.0178441 0.145728 0
-0.0129662 0.129695 0
-0.0095903 0.11717 0
-0.00723761 0.107344 0
-0.00558869 0.0995475 0
-0.00443134 0.0932503 0
-0.00362262 0.0880445 0
-0.00306437 0.0836185 0
-0.00268767 0.0797363 0
-0.00244312 0.0762201 0
-0.00229458 0.0729367 0
-0.00221515 0.069788 0
-0.0021844 0.066703 0
-0.00218666 0.0636319 0
-0.0022097 0.0605421 0
-0.00224396 0.0574141 0
-0.00228191 0.0542393 0
-0.00231771 0.0510175 0
-0.00234684 0.047755 0
-0.00236591 0.0444633 0
-0.00237249 0.0411575 0
-0.00236495 0.0378552 0
-0.00234231 0.034576 0
-0.00230417 0.0313403 0
-0.00225055 0.0281685 0
-0.00218182 0.0250812 0
-0.00209858 0.0220983 0
-0.00200158 0.0192385 0
-0.00189165 0.0165201 0
-0.00176962 0.0139598 0
-0.00163623 0.0115736 0
-0.00149213 0.00937628 0
-0.00133782 0.00738184 0
-0.00117366 0.00560341 0
-0.000999939 0.00405321 0
-0.000817039 0.00274242 0
-0.000625921 0.00168042 0
-0.000429092 0.000873391 0
-0.000232794 0.000321527 0
-5.14723e-05 1.38853e-05 0
8.47358e-05 -8.299e-05 0
0.000111328 -4.24151e-05 0
0.500807 0.0767777 0
0.0989404 0.183143 0
-0.0395356 0.249076 0
-0.0735919 0.265504 0
-0.0719981 0.257179 0
-0.0606087 0.239417 0
-0.048262 0.219489 0
-0.0376063 0.200681 0
-0.0291368 0.184195 0
-0.0226535 0.170232 0
-0.0177904 0.158566 0
-0.0141926 0.148822 0
-0.0115642 0.140608 0
-0.0096722 0.133565 0
-0.008337 0.12739 0
-0.00742132 0.121833 0
-0.00682003 0.116695 0
-0.00645221 0.111822 0
-0.0062551 0.107097 0
-0.00617963 0.102433 0
-0.00618712 0.0977705 0
-0.00624695 0.0930689 0
-0.00633477 0.0883056 0
-0.00643132 0.0834716 0
-0.00652143 0.0785692 0
-0.00659339 0.0736093 0
-0.00663836 0.0686094 0
-0.00664993 0.0635921 0
-0.00662379 0.0585836 0
-0.00655732 0.0536123 0
-0.00644935 0.0487078 0
-0.00629986 0.0439 0
-0.00610967 0.0392186 0
-0.00588028 0.0346924 0
-0.00561357 0.0303492 0
-0.00531166 0.0262153 0
-0.0049767 0.0223153 0
-0.00461078 0.0186725 0
-0.0042158 0.0153086 0
-0.00379349 0.0122437 0
-0.0033455 0.00949647 0
-0.00287365 0.00708362 0
-0.00238056 0.00501967 0
-0.00187079 0.00331572 0
-0.00135312 0.00197759 0
-0.000844659 0.00100268 0
-0.000378255 0.000374052 0
-1.27524e-05 5.26699e-05 0
0.000142042 -1.88462e-05 0
0.609906 0.0480215 0
0.19542 0.133896 0
0.0110967 0.209313 0
-0.0582654 0.246303 0
-0.0761762 0.256866 0
-0.0736708 0.253509 0
-0.0642304 0.243417 0
-0.0534901 0.230835 0
-0.0436382 0.21801 0
-0.0353694 0.205984 0
-0.0287548 0.195136 0
-0.0236278 0.1855 0
-0.0197528 0.176945 0
-0.0168949 0.169278 0
-0.0148449 0.162295 0
-0.0134266 0.155807 0
-0.0124951 0.149649 0
-0.0119323 0.143689 0
-0.011643 0.137821 0
-0.0115499 0.131966 0
-0.0115908 0.12607 0
-0.0117153 0.120096 0
-0.0118827 0.114027 0
-0.0120606 0.107859 0
-0.0122232 0.1016 0
-0.0123504 0.0952674 0
-0.0124271 0.0888851 0
-0.0124424 0.0824827 0
-0.0123887 0.0760934 0
-0.0122617 0.0697528 0
-0.0120593 0.0634977 0
-0.0117815 0.0573651 0
-0.0114297 0.0513914 0
-0.0110067 0.0456121 0
-0.0105157 0.0400612 0
-0.00996051 0.0347708 0
-0.00934502 0.0297714 0
-0.00867309 0.0250913 0
-0.00794845 0.0207568 0
-0.00717469 0.0167924 0
-0.00635554 0.0132202 0
-0.00549538 0.0100598 0
-0.00460027 0.00732751 0
-0.00367988 0.00503542 0
-0.00275062 0.00318934 0
-0.00184115 0.00178643 0
-0.00100129 0.000809344 0
-0.000312947 0.000224095 0
8.38355e-05 1.21407e-05 0
0.680257 0.0301393 0
0.278137 0.0981396 0
0.0692953 0.170927 0
-0.0276965 0.217459 0
-0.0652795 0.241001 0
-0.0744715 0.24963 0
-0.0711585 0.249267 0
-0.0631222 0.244008 0
-0.0540412 0.236418 0
-0.0455524 0.227977 0
-0.0382863 0.219472 0
-0.0323894 0.211268 0
-0.027789 0.203487 0
-0.0243242 0.19612 0
-0.0218106 0.189093 0
-0.0200697 0.182308 0
-0.0189407 0.175666 0
-0.0182845 0.169078 0
-0.0179829 0.16247 0
-0.0179368 0.155787 0
-0.018064 0.148991 0
-0.0182965 0.142062 0
-0.0185787 0.134993 0
-0.0188654 0.127789 0
-0.0191207 0.120468 0
-0.0193164 0.113055 0
-0.0194313 0.10558 0
-0.01945 0.0980818 0
-0.0193621 0.0905986 0
-0.0191614 0.0831724 0
-0.0188453 0.0758458 0
-0.0184142 0.0686611 0
-0.0178704 0.0616598 0
-0.017218 0.0548819 0
-0.016462 0.0483658 0
-0.0156082 0.0421475 0
-0.0146626 0.0362613 0
-0.0136312 0.0307387 0
-0.01252 0.0256092 0
-0.0113349 0.0208997 0
-0.0100823 0.0166345 0
-0.00876987 0.012835 0
-0.00740771 0.00951889 0
-0.00601101 0.00669924 0
-0.00460367 0.00438327 0
-0.00322433 0.00257091 0
-0.00193542 0.00124928 0
-0.000833259 0.000396348 0
-7.12774e-05 4.21154e-05 0
0.729634 0.0191736 0
0.348652 0.0730302 0
0.127627 0.13931 0
0.0111044 0.188355 0
-0.0441683 0.219841 0
-0.0655859 0.237152 0
-0.069948 0.244823 0
-0.0663742 0.246316 0
-0.0596766 0.244079 0
-0.0523103 0.239712 0
-0.0454534 0.234203 0
-0.0396004 0.228124 0
-0.034889 0.221784 0
-0.0312787 0.215328 0
-0.0286481 0.208803 0
-0.0268463 0.202204 0
-0.0257196 0.195505 0
-0.0251238 0.18867 0
-0.0249297 0.181667 0
-0.0250247 0.174473 0
-0.0253123 0.167075 0
-0.025711 0.159472 0
-0.026153 0.151673 0
-0.0265826 0.143697 0
-0.0269551 0.135573 0
-0.0272356 0.127334 0
-0.0273975 0.119021 0
-0.0274218 0.110677 0
-0.0272957 0.102348 0
-0.027012 0.0940811 0
-0.0265682 0.0859238 0
-0.0259651 0.0779223 0
-0.0252066 0.0701219 0
-0.0242984 0.0625657 0
-0.0232478 0.0552949 0
-0.0220628 0.0483481 0
-0.0207517 0.0417614 0
-0.0193232 0.0355684 0
-0.0177856 0.0298001 0
-0.0161477 0.0244849 0
-0.0144187 0.0196482 0
-0.0126096 0.0153126 0
-0.0107348 0.011497 0
-0.00881442 0.00821632 0
-0.00687854 0.00548052 0
-0.00497295 0.00329485 0
-0.00316742 0.00165433 0
-0.00156407 0.000552324 0
-0.000315919 6.79151e-05 0
0.765642 0.0125806 0
0.408097 0.0557176 0
0.18267 0.114618 0
0.0527332 0.162823 0
-0.0168056 0.19817 0
-0.0496501 0.221283 0
-0.0621116 0.234992 0
-0.0639311 0.242054 0
-0.0606799 0.244597 0
-0.0554476 0.244139 0
-0.0498838 0.241716 0
-0.0448112 0.238001 0
-0.0405856 0.233414 0
-0.0373054 0.228208 0
-0.0349335 0.222526 0
-0.0333666 0.216443 0
-0.0324746 0.209998 0
-0.0321221 0.203209 0
-0.0321796 0.196087 0
-0.0325289 0.188642 0
-0.0330657 0.180889 0
-0.0336996 0.17285 0
-0.0343543 0.164552 0
-0.0349664 0.15603 0
-0.0354848 0.147323 0
-0.0358693 0.138477 0
-0.0360896 0.129541 0
-0.0361241 0.120566 0
-0.0359589 0.111602 0
-0.0355866 0.102703 0
-0.0350052 0.09392 0
-0.0342171 0.0853025 0
-0.0332279 0.0768984 0
-0.0320458 0.068753 0
-0.0306803 0.060909 0
-0.0291423 0.0534062 0
-0.0274428 0.0462817 0
-0.0255929 0.0395697 0
-0.0236039 0.0333018 0
-0.0214871 0.0275068 0
-0.0192548 0.0222107 0
-0.0169211 0.017437 0
-0.0145039 0.0132059 0
-0.0120273 0.0095346 0
-0.00952548 0.00643725 0
-0.00704805 0.00392589 0
-0.0046669 0.00200531 0
-0.00248254 0.000685081 0
-0.000637782 8.88113e-05 0
0.792697 0.00860282 0
0.458204 0.0436703 0
0.233248 0.0955428 0
0.0945467 0.141384 0
0.0142707 0.177843 0
-0.0288679 0.204621 0
-0.0492432 0.222639 0
-0.0568168 0.23403 0
-0.0576228 0.240542 0
-0.0552096 0.243526 0
-0.051603 0.243972 0
-0.047909 0.242574 0
-0.0446854 0.239807 0
-0.0421691 0.235988 0
-0.0404141 0.231325 0
-0.0393744 0.225956 0
-0.0389541 0.219971 0
-0.0390357 0.213435 0
-0.0394975 0.206398 0
-0.0402229 0.198904 0
-0.041105 0.190993 0
-0.0420492 0.182711 0
-0.0429745 0.174103 0
-0.0438126 0.16522 0
-0.0445084 0.156115 0
-0.0450185 0.146845 0
-0.0453106 0.137466 0
-0.0453621 0.128037 0
-0.0451591 0.118617 0
-0.0446952 0.109261 0
-0.0439699 0.100025 0
-0.0429878 0.0909609 0
-0.0417571 0.0821191 0
-0.0402887 0.0735458 0
-0.0385954 0.0652844 0
-0.0366907 0.0573749 0
-0.0345888 0.0498544 0
-0.0323036 0.0427568 0
-0.029849 0.0361134 0
-0.027239 0.0299529 0
-0.0244887 0.0243013 0
-0.0216145 0.0191826 0
-0.0186371 0.0146185 0
-0.0155828 0.010629 0
-0.0124878 0.00723301 0
-0.00940194 0.00444998 0
-0.00639485 0.00229496 0
-0.00355978 0.000792888 0
-0.00102307 0.00010504 0
0.813743 0.00616074 0
0.500777 0.0351399 0
0.279204 0.0808039 0
0.135083 0.123706 0
0.0465353 0.159938 0
-0.00501941 0.188473 0
-0.0327442 0.209431 0
-0.0460637 0.22403 0
-0.0512104 0.233683 0
-0.0520351 0.239537 0
-0.0508471 0.242488 0
-0.0489831 0.243206 0
-0.0471763 0.242174 0
-0.0457903 0.239741 0
-0.0449677 0.236154 0
-0.0447222 0.231591 0
-0.0449961 0.226185 0
-0.0456955 0.220036 0
-0.046712 0.213226 0
-0.0479349 0.205827 0
-0.0492595 0.197907 0
-0.0505908 0.189531 0
-0.051846 0.180762 0
-0.052955 0.171668 0
-0.053861 0.162314 0
-0.0545195 0.152767 0
-0.0548979 0.143094 0
-0.0549744 0.13336 0
-0.0547363 0.123629 0
-0.0541794 0.113962 0
-0.053306 0.104418 0
-0.0521235 0.0950509 0
-0.0506438 0.0859121 0
-0.0488812 0.0770486 0
-0.0468518 0.0685037 0
-0.0445728 0.060317 0
-0.0420613 0.0525246 0
-0.0393342 0.0451596 0
-0.0364081 0.0382521 0
-0.0332994 0.0318301 0
-0.0300251 0.0259194 0
-0.0266038 0.0205441 0
-0.0230572 0.0157276 0
-0.0194125 0.0114923 0
-0.0157052 0.00786218 0
-0.0119828 0.00486406 0
-0.00830874 0.00252267 0
-0.0047651 0.000876536 0
-0.00145828 0.000117161 0
0.830652 0.00462108 0
0.537329 0.0289643 0
0.320834 0.0693009 0
0.173738 0.109125 0
0.079002 0.144362 0
0.0206183 0.173448 0
-0.0137503 0.196246 0
-0.0325893 0.213143 0
-0.0421377 0.225192 0
-0.0464188 0.23335 0
-0.0479442 0.238401 0
-0.0482305 0.240959 0
-0.0481554 0.241495 0
-0.0481929 0.240361 0
-0.0485659 0.237824 0
-0.049345 0.234087 0
-0.0505112 0.22931 0
-0.051996 0.223619 0
-0.0537067 0.217124 0
-0.0555421 0.209921 0
-0.0574025 0.202096 0
-0.0591952 0.193736 0
-0.0608382 0.18492 0
-0.0622621 0.175729 0
-0.0634104 0.166243 0
-0.0642397 0.156538 0
-0.0647188 0.14669 0
-0.064828 0.136771 0
-0.0645578 0.12685 0
-0.063907 0.116994 0
-0.062882 0.107263 0
-0.0614943 0.0977131 0
-0.0597601 0.0883969 0
-0.0576977 0.0793613 0
-0.0553276 0.0706488 0
-0.0526704 0.0622978 0
-0.0497467 0.0543431 0
-0.0465764 0.0468161 0
-0.0431787 0.0397453 0
-0.039572 0.0331574 0
-0.0357747 0.0270774 0
-0.0318063 0.0215295 0
-0.0276887 0.016538 0
-0.0234479 0.0121281 0
-0.0191169 0.00832791 0
-0.0147379 0.00517123 0
-0.0103657 0.00269129 0
-0.00606841 0.000937924 0
-0.00193094 0.000125791 0
0.844615 0.00361708 0
0.569052 0.0243862 0
0.358555 0.0602133 0
0.210222 0.0970596 0
0.110899 0.130905 0
0.0468661 0.159877 0
0.00692548 0.183505 0
-0.017134 0.201998 0
-0.0310161 0.215825 0
-0.0388369 0.225779 0
-0.0432455 0.232534 0
-0.045895 0.23664 0
-0.0477793 0.238537 0
-0.0494646 0.238568 0
-0.0512437 0.237003 0
-0.0532383 0.234059 0
-0.0554656 0.229911 0
-0.0578822 0.224705 0
-0.0604118 0.21857 0
-0.0629639 0.211619 0
-0.0654456 0.203959 0
-0.0677684 0.19569 0
-0.0698532 0.186908 0
-0.071633 0.177708 0
-0.0730534 0.168179 0
-0.0740738 0.158408 0
-0.0746662 0.14848 0
-0.0748147 0.138473 0
-0.074514 0.128462 0
-0.0737679 0.118517 0
-0.0725876 0.1087 0
-0.07099 0.0990706 0
-0.0689963 0.0896796 0
-0.0666299 0.080574 0
-0.0639158 0.0717952 0
-0.0608789 0.0633799 0
-0.0575435 0.0553607 0
-0.0539323 0.0477669 0
-0.050067 0.0406249 0
-0.0459675 0.0339595 0
-0.0416531 0.0277944 0
-0.0371432 0.0221533 0
-0.0324584 0.0170613 0
-0.0276222 0.0125456 0
-0.022663 0.00863788 0
-0.0176158 0.00537759 0
-0.0125243 0.00280511 0
-0.00744144 0.000979271 0
-0.00242994 0.000131494 0
0.856413 0.00293574 0
0.596874 0.020906 0
0.39282 0.0529257 0
0.244493 0.0869913 0
0.141851 0.119257 0
0.0731877 0.147698 0
0.0283897 0.171589 0
-0.000301586 0.190964 0
-0.0183642 0.206069 0
-0.0297172 0.217379 0
-0.0370891 0.225475 0
-0.0422322 0.230843 0
-0.0462318 0.233884 0
-0.0497292 0.234922 0
-0.0530764 0.234223 0
-0.0564391 0.232004 0
-0.0598667 0.228451 0
-0.0633386 0.22372 0
-0.0667944 0.217955 0
-0.0701544 0.211282 0
-0.0733329 0.203824 0
-0.0762468 0.195695 0
-0.0788212 0.187003 0
-0.0809927 0.177854 0
-0.0827109 0.168349 0
-0.0839393 0.158584 0
-0.0846547 0.148651 0
-0.0848464 0.138635 0
-0.0845148 0.128616 0
-0.0836699 0.118665 0
-0.0823292 0.10885 0
-0.080516 0.0992273 0
-0.0782573 0.0898506 0
-0.0755827 0.0807648 0
-0.0725221 0.0720097 0
-0.0691052 0.0636196 0
-0.06536 0.0556246 0
-0.0613125 0.0480511 0
-0.0569863 0.0409229 0
-0.0524026 0.0342625 0
-0.0475809 0.0280917 0
-0.0425393 0.0224332 0
-0.0372962 0.017312 0
-0.031871 0.0127566 0
-0.0262859 0.0088014 0
-0.020567 0.00549012 0
-0.0147456 0.00286868 0
-0.00885811 0.00100269 0
-0.00294541 0.000134737 0
0.866569 0.00245285 0
0.621512 0.0181928 0
0.424051 0.046986 0
0.276606 0.0784987 0
0.171636 0.109118 0
0.0991887 0.136764 0
0.0501713 0.160541 0
0.0173546 0.180297 0
-0.00462118 0.196213 0
-0.0194347 0.208515 0
-0.0297855 0.217632 0
-0.03749 0.223996 0
-0.0437036 0.227968 0
-0.0491281 0.229848 0
-0.0541634 0.22989 0
-0.0590121 0.228309 0
-0.0637512 0.225291 0
-0.0683794 0.221002 0
-0.0728507 0.215591 0
-0.0770951 0.209199 0
-0.0810344 0.201957 0
-0.0845911 0.193992 0
-0.0876952 0.185424 0
-0.0902879 0.176368 0
-0.092324 0.166935 0
-0.0937725 0.157231 0
-0.0946162 0.147352 0
-0.0948511 0.137391 0
-0.0944849 0.12743 0
-0.093535 0.117546 0
-0.0920264 0.107806 0
-0.0899897 0.0982678 0
-0.0874594 0.0889843 0
-0.0844713 0.0799988 0
-0.0810614 0.0713487 0
-0.0772644 0.0630656 0
-0.0731123 0.0551764 0
-0.0686342 0.0477041 0
-0.0638557 0.0406694 0
-0.0587988 0.0340917 0
-0.0534824 0.0279904 0
-0.0479229 0.0223867 0
-0.0421349 0.0173046 0
-0.0361326 0.0127729 0
-0.0299305 0.0088277 0
-0.0235447 0.00551551 0
-0.0169929 0.00288615 0
-0.0102945 0.00100999 0
-0.00346861 0.000135876 0
0.875443 0.00209524 0
0.643516 0.0160246 0
0.452614 0.0420627 0
0.306668 0.071248 0
0.200143 0.100223 0
0.124608 0.126912 0
0.0719199 0.150316 0
0.0353686 0.170137 0
0.00985689 0.18643 0
-0.0083074 0.19941 0
-0.02161 0.209274 0
-0.0318987 0.216394 0
-0.0403816 0.221097 0
-0.0478083 0.223656 0
-0.0546168 0.22431 0
-0.0610396 0.223266 0
-0.0671756 0.220709 0
-0.07304 0.216808 0
-0.0785983 0.211719 0
-0.0837892 0.205589 0
-0.0885409 0.198559 0
-0.0927816 0.190766 0
-0.0964464 0.182338 0
-0.0994821 0.173402 0
-0.101849 0.164076 0
-0.103524 0.154472 0
-0.104496 0.144695 0
-0.104769 0.134841 0
-0.10436 0.124998 0
-0.103295 0.115242 0
-0.101608 0.105643 0
-0.0993379 0.0962586 0
-0.096527 0.0871399 0
-0.0932187 0.0783283 0
-0.0894557 0.0698584 0
-0.0852779 0.0617584 0
-0.0807219 0.0540512 0
-0.0758197 0.0467563 0
-0.0705988 0.0398904 0
-0.0650816 0.0334694 0
-0.0592858 0.0275096 0
-0.0532252 0.0220297 0
-0.0469099 0.0170521 0
-0.0403477 0.012605 0
-0.0335444 0.00872487 0
-0.0265047 0.00545943 0
-0.0192322 0.0028609 0
-0.0117285 0.00100254 0
-0.00399166 0.000135157 0
0.883286 0.00181899 0
0.663308 0.0142501 0
0.478825 0.0379112 0
0.334802 0.0649754 0
0.227323 0.0923428 0
0.149279 0.11798 0
0.0933947 0.140826 0
0.0534653 0.160478 0
0.0246573 0.176889 0
0.00340297 0.190193 0
-0.0127993 0.200574 0
-0.0256667 0.208236 0
-0.036443 0.213482 0
-0.0459162 0.216563 0
-0.0545546 0.217697 0
-0.0626138 0.217084 0
-0.0702101 0.214904 0
-0.0773709 0.211327 0
-0.0840709 0.206512 0
-0.0902555 0.200613 0
-0.0958585 0.193778 0
-0.100813 0.18615 0
-0.10506 0.177869 0
-0.108551 0.169067 0
-0.111255 0.159871 0
-0.113154 0.1504 0
-0.114248 0.140764 0
-0.11455 0.131062 0
-0.114085 0.121386 0
-0.112891 0.111815 0
-0.11101 0.102417 0
-0.108493 0.0932505 0
-0.10539 0.0843634 0
-0.101753 0.0757948 0
-0.0976318 0.0675759 0
-0.0930719 0.0597308 0
-0.0881146 0.0522784 0
-0.0827952 0.0452333 0
-0.0771428 0.0386082 0
-0.0711796 0.0324147 0
-0.064922 0.0266655 0
-0.0583803 0.0213759 0
-0.0515593 0.0165659 0
-0.0444596 0.0122619 0
-0.0370773 0.00849947 0
-0.029405 0.00532634 0
-0.021431 0.00279548 0
-0.0131395 0.000981334 0
-0.00450732 0.000132734 0
0.890279 0.00159698 0
0.681212 0.0127637 0
0.502942 0.0343487 0
0.361129 0.0594718 0
0.253167 0.0852812 0
0.17309 0.10981 0
0.114418 0.131964 0
0.0714311 0.151267 0
0.0395649 0.167589 0
0.0153858 0.180992 0
-0.00358135 0.191637 0
-0.0189894 0.199648 0
-0.032056 0.205262 0
-0.0435949 0.208711 0
-0.0540965 0.210196 0
-0.0638331 0.209905 0
-0.0729331 0.208012 0
-0.0814329 0.204687 0
-0.0893132 0.200091 0
-0.0965245 0.194381 0
-0.103005 0.187713 0
-0.108692 0.180236 0
-0.113531 0.172098 0
-0.117481 0.163438 0
-0.120518 0.154389 0
-0.122633 0.145076 0
-0.123834 0.135614 0
-0.124147 0.126106 0
-0.123608 0.116645 0
-0.122265 0.10731 0
-0.120174 0.0981706 0
-0.117392 0.089282 0
-0.113983 0.0806903 0
-0.110007 0.072431 0
-0.10552 0.064531 0
-0.100576 0.0570101 0
-0.0952195 0.049882 0
-0.08949 0.0431568 0
-0.0834175 0.0368418 0
-0.0770243 0.0309441 0
-0.0703246 0.025472 0
-0.0633247 0.0204368 0
-0.0560237 0.015855 0
-0.0484138 0.0117505 0
-0.0404811 0.00815658 0
-0.0322051 0.00511952 0
-0.0235588 0.00269164 0
-0.0145081 0.000946963 0
-0.00500873 0.00012868 0
0.896553 0.00141198 0
0.69748 0.0114901 0
0.525177 0.0312363 0
0.385759 0.0545701 0
0.277678 0.0788732 0
0.195961 0.102259 0
0.134851 0.12362 0
0.089091 0.142428 0
0.0543837 0.158492 0
0.0274414 0.171813 0
0.00586082 0.182495 0
-0.0120386 0.190688 0
-0.0273768 0.196509 0
-0.0409822 0.200184 0
-0.0533617 0.201893 0
-0.0647984 0.201813 0
-0.0754285 0.200115 0
-0.0852935 0.196965 0
-0.0943777 0.192525 0
-0.102634 0.186958 0
-0.110004 0.180423 0
-0.116429 0.173078 0
-0.12186 0.165074 0
-0.126262 0.156558 0
-0.129618 0.14767 0
-0.131931 0.138539 0
-0.133219 0.129282 0
-0.13352 0.120007 0
-0.132882 0.110806 0
-0.131366 0.101759 0
-0.12904 0.0929333 0
-0.125974 0.0843824 0
-0.122242 0.0761485 0
-0.117913 0.0682632 0
-0.113053 0.0607485 0
-0.107721 0.053619 0
-0.101968 0.0468832 0
-0.0958355 0.0405455 0
-0.0893554 0.0346078 0
-0.0825494 0.029072 0
-0.0754293 0.0239411 0
-0.0679971 0.0192221 0
-0.0602454 0.0149272 0
-0.0521578 0.0110765 0
-0.0437093 0.00770004 0
-0.0348664 0.00484127 0
-0.0255858 0.00255049 0
-0.0158153 0.00089975 0
-0.00548927 0.000123006 0
0.902204 0.00125253 0
0.712304 0.0103742 0
0.545703 0.0284669 0
0.408787 0.0501351 0
0.300868 0.0729777 0
0.217836 0.0951948 0
0.154588 0.115684 0
0.106304 0.13388 0
0.0689519 0.149543 0
0.039393 0.162629 0
0.0152996 0.173198 0
-0.0049875 0.18138 0
-0.022557 0.187257 0
-0.0382122 0.191016 0
-0.0524676 0.192826 0
-0.0656114 0.192849 0
-0.0777825 0.191251 0
-0.0890239 0.188195 0
-0.0993208 0.183848 0
-0.108627 0.178373 0
-0.116886 0.171935 0
-0.124042 0.164698 0
-0.130051 0.156818 0
-0.134886 0.14845 0
-0.138539 0.139735 0
-0.141022 0.130808 0
-0.142367 0.121789 0
-0.142625 0.112786 0
-0.141857 0.103891 0
-0.140139 0.0951842 0
-0.137551 0.0867286 0
-0.134178 0.0785751 0
-0.130103 0.0707616 0
-0.125407 0.0633146 0
-0.120164 0.0562508 0
-0.114441 0.0495789 0
-0.108293 0.0433016 0
-0.101765 0.0374173 0
-0.0948909 0.031922 0
-0.0876909 0.0268118 0
-0.0801743 0.0220842 0
-0.0723384 0.0177409 0
-0.064169 0.0137893 0
-0.0556407 0.0102447 0
-0.0467173 0.00713295 0
-0.0373512 0.0044933 0
-0.0274834 0.00237272 0
-0.0170427 0.000839812 0
-0.00594238 0.000115685 0
0.907304 0.00111075 0
0.72583 0.00937442 0
0.564651 0.0259559 0
0.430289 0.0460556 0
0.322748 0.0674731 0
0.238666 0.0884995 0