# vtk DataFile Version 3.0
Malha 2D com triângulos: velocidade e pressão
ASCII
DATASET UNSTRUCTURED_GRID

POINTS 2500 double
0 0 0
1 0 0
1 1 0
0 1 0
0.0204082 0 0
0.0408163 0 0
0.0612245 0 0
0.0816327 0 0
0.102041 0 0
0.122449 0 0
0.142857 0 0
0.163265 0 0
0.183673 0 0
0.204082 0 0
0.22449 0 0
0.244898 0 0
0.265306 0 0
0.285714 0 0
0.306122 0 0
0.326531 0 0
0.346939 0 0
0.367347 0 0
0.387755 0 0
0.408163 0 0
0.428571 0 0
0.44898 0 0
0.469388 0 0
0.489796 0 0
0.510204 0 0
0.530612 0 0
0.55102 0 0
0.571429 0 0
0.591837 0 0
0.612245 0 0
0.632653 0 0
0.653061 0 0
0.673469 0 0
0.693878 0 0
0.714286 0 0
0.734694 0 0
0.755102 0 0
0.77551 0 0
0.795918 0 0
0.816327 0 0
0.836735 0 0
0.857143 0 0
0.877551 0 0
0.897959 0 0
0.918367 0 0
0.938776 0 0
0.959184 0 0
0.979592 0 0
1 0.0204082 0
1 0.0408163 0
1 0.0612245 0
1 0.0816327 0
1 0.102041 0
1 0.122449 0
1 0.142857 0
1 0.163265 0
1 0.183673 0
1 0.204082 0
1 0.22449 0
1 0.244898 0
1 0.265306 0
1 0.285714 0
1 0.306122 0
1 0.326531 0
1 0.346939 0
1 0.367347 0
1 0.387755 0
1 0.408163 0
1 0.428571 0
1 0.44898 0
1 0.469388 0
1 0.489796 0
1 0.510204 0
1 0.530612 0
1 0.55102 0
1 0.571429 0
1 0.591837 0
1 0.612245 0
1 0.632653 0
1 0.653061 0
1 0.673469 0
1 0.693878 0
1 0.714286 0
1 0.734694 0
1 0.755102 0
1 0.77551 0
1 0.795918 0
1 0.816327 0
1 0.836735 0
1 0.857143 0
1 0.877551 0
1 0.897959 0
1 0.918367 0
1 0.938776 0
1 0.959184 0
1 0.979592 0
0.979592 1 0
0.959184 1 0
0.938776 1 0
0.918367 1 0
0.897959 1 0
0.877551 1 0
0.857143 1 0
0.836735 1 0
0.816327 1 0
0.795918 1 0
0.77551 1 0
0.755102 1 0
0.734694 1 0
0.714286 1 0
0.693878 1 0
0.673469 1 0
0.653061 1 0
0.632653 1 0
0.612245 1 0
0.591837 1 0
0.571429 1 0
0.55102 1 0
0.530612 1 0
0.510204 1 0
0.489796 1 0
0.469388 1 0
0.44898 1 0
0.428571 1 0
0.408163 1 0
0.387755 1 0
0.367347 1 0
0.346939 1 0
0.326531 1 0
0.306122 1 0
0.285714 1 0
0.265306 1 0
0.244898 1 0
0.22449 1 0
0.204082 1 0
0.183673 1 0
0.163265 1 0
0.142857 1 0
0.122449 1 0
0.102041 1 0
0.0816327 1 0
0.0612245 1 0
0.0408163 1 0
0.0204082 1 0
0 0.979592 0
0 0.959184 0
0 0.938776 0
0 0.918367 0
0 0.897959 0
0 0.877551 0
0 0.857143 0
0 0.836735 0
0 0.816327 0
0 0.795918 0
0 0.77551 0
0 0.755102 0
0 0.734694 0
0 0.714286 0
0 0.693878 0
0 0.673469 0
0 0.653061 0
0 0.632653 0
0 0.612245 0
0 0.591837 0
0 0.571429 0
0 0.55102 0
0 0.530612 0
0 0.510204 0
0 0.489796 0
0 0.469388 0
0 0.44898 0
0 0.428571 0
0 0.408163 0
0 0.387755 0
0 0.367347 0
0 0.346939 0
0 0.326531 0
0 0.306122 0
0 0.285714 0
0 0.265306 0
0 0.244898 0
0 0.22449 0
0 0.204082 0
0 0.183673 0
0 0.163265 0
0 0.142857 0
0 0.122449 0
0 0.102041 0
0 0.0816327 0
0 0.0612245 0
0 0.0408163 0
0 0.0204082 0
0.0204082 0.979592 0
0.0204082 0.959184 0
0.0204082 0.938776 0
0.0204082 0.918367 0
0.0204082 0.897959 0
0.0204082 0.877551 0
0.0204082 0.857143 0
0.0204082 0.836735 0
0.0204082 0.816327 0
0.0204082 0.795918 0
0.0204082 0.77551 0
0.0204082 0.755102 0
0.0204082 0.734694 0
0.0204082 0.714286 0
0.0204082 0.693878 0
0.0204082 0.673469 0
0.0204082 0.653061 0
0.0204082 0.632653 0
0.0204082 0.612245 0
0.0204082 0.591837 0
0.0204082 0.571429 0
0.0204082 0.55102 0
0.0204082 0.530612 0
0.0204082 0.510204 0
0.0204082 0.489796 0
0.0204082 0.469388 0
0.0204082 0.44898 0
0.0204082 0.428571 0
0.0204082 0.408163 0
0.0204082 0.387755 0
0.0204082 0.367347 0
0.0204082 0.346939 0
0.0204082 0.326531 0
0.0204082 0.306122 0
0.0204082 0.285714 0
0.0204082 0.265306 0
0.0204082 0.244898 0
0.0204082 0.22449 0
0.0204082 0.204082 0
0.0204082 0.183673 0
0.0204082 0.163265 0
0.0204082 0.142857 0
0.0204082 0.122449 0
0.0204082 0.102041 0
0.0204082 0.0816327 0
0.0204082 0.0612245 0
0.0204082 0.0408163 0
0.0204082 0.0204082 0
0.0408163 0.979592 0
0.0408163 0.959184 0
0.0408163 0.938776 0
0.0408163 0.918367 0
0.0408163 0.897959 0
0.0408163 0.877551 0
0.0408163 0.857143 0
0.0408163 0.836735 0
0.0408163 0.816327 0
0.0408163 0.795918 0
0.0408163 0.77551 0
0.0408163 0.755102 0
0.0408163 0.734694 0
0.0408163 0.714286 0
0.0408163 0.693878 0
0.0408163 0.673469 0
0.0408163 0.653061 0
0.0408163 0.632653 0
0.0408163 0.612245 0
0.0408163 0.591837 0
0.0408163 0.571429 0
0.0408163 0.55102 0
0.0408163 0.530612 0
0.0408163 0.510204 0
0.0408163 0.489796 0
0.0408163 0.469388 0
0.0408163 0.44898 0
0.0408163 0.428571 0
0.0408163 0.408163 0
0.0408163 0.387755 0
0.0408163 0.367347 0
0.0408163 0.346939 0
0.0408163 0.326531 0
0.0408163 0.306122 0
0.0408163 0.285714 0
0.0408163 0.265306 0
0.0408163 0.244898 0
0.0408163 0.22449 0
0.0408163 0.204082 0
0.0408163 0.183673 0
0.0408163 0.163265 0
0.0408163 0.142857 0
0.0408163 0.122449 0
0.0408163 0.102041 0
0.0408163 0.0816327 0
0.0408163 0.0612245 0
0.0408163 0.0408163 0
0.0408163 0.0204082 0
0.0612245 0.979592 0
0.0612245 0.959184 0
0.0612245 0.938776 0
0.0612245 0.918367 0
0.0612245 0.897959 0
0.0612245 0.877551 0
0.0612245 0.857143 0
0.0612245 0.836735 0
0.0612245 0.816327 0
0.0612245 0.795918 0
0.0612245 0.77551 0
0.0612245 0.755102 0
0.0612245 0.734694 0
0.0612245 0.714286 0
0.0612245 0.693878 0
0.0612245 0.673469 0
0.0612245 0.653061 0
0.0612245 0.632653 0
0.0612245 0.612245 0
0.0612245 0.591837 0
0.0612245 0.571429 0
0.0612245 0.55102 0
0.0612245 0.530612 0
0.0612245 0.510204 0
0.0612245 0.489796 0
0.0612245 0.469388 0
0.0612245 0.44898 0
0.0612245 0.428571 0
0.0612245 0.408163 0
0.0612245 0.387755 0
0.0612245 0.367347 0
0.0612245 0.346939 0
0.0612245 0.326531 0
0.0612245 0.306122 0
0.0612245 0.285714 0
0.0612245 0.265306 0
0.0612245 0.244898 0
0.0612245 0.22449 0
0.0612245 0.204082 0
0.0612245 0.183673 0
0.0612245 0.163265 0
0.0612245 0.142857 0
0.0612245 0.122449 0
0.0612245 0.102041 0
0.0612245 0.0816327 0
0.0612245 0.0612245 0
0.0612245 0.0408163 0
0.0612245 0.0204082 0
0.0816327 0.979592 0
0.0816327 0.959184 0
0.0816327 0.938776 0
0.0816327 0.918367 0
0.0816327 0.897959 0
0.0816327 0.877551 0
0.0816327 0.857143 0
0.0816327 0.836735 0
0.0816327 0.816327 0
0.0816327 0.795918 0
0.0816327 0.77551 0
0.0816327 0.755102 0
0.0816327 0.734694 0
0.0816327 0.714286 0
0.0816327 0.693878 0
0.0816327 0.673469 0
0.0816327 0.653061 0
0.0816327 0.632653 0
0.0816327 0.612245 0
0.0816327 0.591837 0
0.0816327 0.571429 0
0.0816327 0.55102 0
0.0816327 0.530612 0
0.0816327 0.510204 0
0.0816327 0.489796 0
0.0816327 0.469388 0
0.0816327 0.44898 0
0.0816327 0.428571 0
0.0816327 0.408163 0
0.0816327 0.387755 0
0.0816327 0.367347 0
0.0816327 0.346939 0
0.0816327 0.326531 0
0.0816327 0.306122 0
0.0816327 0.285714 0
0.0816327 0.265306 0
0.0816327 0.244898 0
0.0816327 0.22449 0
0.0816327 0.204082 0
0.0816327 0.183673 0
0.0816327 0.163265 0
0.0816327 0.142857 0
0.0816327 0.122449 0
0.0816327 0.102041 0
0.0816327 0.0816327 0
0.0816327 0.0612245 0
0.0816327 0.0408163 0
0.0816327 0.0204082 0
0.102041 0.979592 0
0.102041 0.959184 0
0.102041 0.938776 0
0.102041 0.918367 0
0.102041 0.897959 0
0.102041 0.877551 0
0.102041 0.857143 0
0.102041 0.836735 0
0.102041 0.816327 0
0.102041 0.795918 0
0.102041 0.77551 0
0.102041 0.755102 0
0.102041 0.734694 0
0.102041 0.714286 0
0.102041 0.693878 0
0.102041 0.673469 0
0.102041 0.653061 0
0.102041 0.632653 0
0.102041 0.612245 0
0.102041 0.591837 0
0.102041 0.571429 0
0.102041 0.55102 0
0.102041 0.530612 0
0.102041 0.510204 0
0.102041 0.489796 0
0.102041 0.469388 0
0.102041 0.44898 0
0.102041 0.428571 0
0.102041 0.408163 0
0.102041 0.387755 0
0.102041 0.367347 0
0.102041 0.346939 0
0.102041 0.326531 0
0.102041 0.306122 0
0.102041 0.285714 0
0.102041 0.265306 0
0.102041 0.244898 0
0.102041 0.22449 0
0.102041 0.204082 0
0.102041 0.183673 0
0.102041 0.163265 0
0.102041 0.142857 0
0.102041 0.122449 0
0.102041 0.102041 0
0.102041 0.0816327 0
0.102041 0.0612245 0
0.102041 0.0408163 0
0.102041 0.0204082 0
0.122449 0.979592 0
0.122449 0.959184 0
0.122449 0.938776 0
0.122449 0.918367 0
0.122449 0.897959 0
0.122449 0.877551 0
0.122449 0.857143 0
0.122449 0.836735 0
0.122449 0.816327 0
0.122449 0.795918 0
0.122449 0.77551 0
0.122449 0.755102 0
0.122449 0.734694 0
0.122449 0.714286 0
0.122449 0.693878 0
0.122449 0.673469 0
0.122449 0.653061 0
0.122449 0.632653 0
0.122449 0.612245 0
0.122449 0.591837 0
0.122449 0.571429 0
0.122449 0.55102 0
0.122449 0.530612 0
0.122449 0.510204 0
0.122449 0.489796 0
0.122449 0.469388 0
0.122449 0.44898 0
0.122449 0.428571 0
0.122449 0.408163 0
0.122449 0.387755 0
0.122449 0.367347 0
0.122449 0.346939 0
0.122449 0.326531 0
0.122449 0.306122 0
0.122449 0.285714 0
0.122449 0.265306 0
0.122449 0.244898 0
0.122449 0.22449 0
0.122449 0.204082 0
0.122449 0.183673 0
0.122449 0.163265 0
0.122449 0.142857 0
0.122449 0.122449 0
0.122449 0.102041 0
0.122449 0.0816327 0
0.122449 0.0612245 0
0.122449 0.0408163 0
0.122449 0.0204082 0
0.142857 0.979592 0
0.142857 0.959184 0
0.142857 0.938776 0
0.142857 0.918367 0
0.142857 0.897959 0
0.142857 0.877551 0
0.142857 0.857143 0
0.142857 0.836735 0
0.142857 0.816327 0
0.142857 0.795918 0
0.142857 0.77551 0
0.142857 0.755102 0
0.142857 0.734694 0
0.142857 0.714286 0
0.142857 0.693878 0
0.142857 0.673469 0
0.142857 0.653061 0
0.142857 0.632653 0
0.142857 0.612245 0
0.142857 0.591837 0
0.142857 0.571429 0
0.142857 0.55102 0
0.142857 0.530612 0
0.142857 0.510204 0
0.142857 0.489796 0
0.142857 0.469388 0
0.142857 0.44898 0
0.142857 0.428571 0
0.142857 0.408163 0
0.142857 0.387755 0
0.142857 0.367347 0
0.142857 0.346939 0
0.142857 0.326531 0
0.142857 0.306122 0
0.142857 0.285714 0
0.142857 0.265306 0
0.142857 0.244898 0
0.142857 0.22449 0
0.142857 0.204082 0
0.142857 0.183673 0
0.142857 0.163265 0
0.142857 0.142857 0
0.142857 0.122449 0
0.142857 0.102041 0
0.142857 0.0816327 0
0.142857 0.0612245 0
0.142857 0.0408163 0
0.142857 0.0204082 0
0.163265 0.979592 0
0.163265 0.959184 0
0.163265 0.938776 0
0.163265 0.918367 0
0.163265 0.897959 0
0.163265 0.877551 0
0.163265 0.857143 0
0.163265 0.836735 0
0.163265 0.816327 0
0.163265 0.795918 0
0.163265 0.77551 0
0.163265 0.755102 0
0.163265 0.734694 0
0.163265 0.714286 0
0.163265 0.693878 0
0.163265 0.673469 0
0.163265 0.653061 0
0.163265 0.632653 0
0.163265 0.612245 0
0.163265 0.591837 0
0.163265 0.571429 0
0.163265 0.55102 0
[...]
CELL_DATA 2401
VECTORS velocity double
0.257355 0.157463 0
-0.00264115 0.264687 0
-0.0321966 0.205809 0
-0.0252648 0.151215 0
-0.0159718 0.11391 0
-0.00966303 0.0886648 0
-0.00594083 0.0715566 0
-0.00380305 0.0596841 0
-0.00255667 0.0511609 0
-0.00180497 0.0448301 0
-0.00133297 0.0399741 0
-0.00102496 0.0361359 0
-0.000817284 0.0330153 0
-0.000673599 0.0304095 0
-0.000572195 0.0281782 0
-0.000499498 0.0262223 0
-0.000446668 0.024471 0
-0.000407741 0.0228735 0
-0.000378579 0.0213931 0
-0.000356255 0.0200035 0
-0.000338662 0.0186861 0
-0.000324278 0.0174276 0
-0.000311998 0.0162193 0
-0.000301027 0.0150553 0
-0.0002908 0.0139319 0
-0.000280928 0.0128472 0
-0.000271149 0.0118002 0
-0.000261302 0.0107907 0
-0.000251295 0.00981906 0
-0.000241083 0.00888573 0
-0.000230657 0.00799141 0
-0.00022002 0.00713681 0
-0.000209182 0.00632263 0
-0.000198151 0.00554961 0
-0.000186917 0.00481848 0
-0.000175456 0.00413006 0
-0.000163713 0.00348532 0
-0.000151606 0.00288543 0
-0.000139012 0.00233192 0
-0.000125764 0.00182669 0
-0.000111643 0.00137222 0
-9.63645e-05 0.000971567 0
-7.95818e-05 0.000628547 0
-6.0906e-05 0.000347661 0
-4.00102e-05 0.000133921 0
-1.6978e-05 -7.8311e-06 0
6.74002e-06 -7.46691e-05 0
2.63027e-05 -7.18691e-05 0
2.73806e-05 -2.72719e-05 0
0.340708 0.123024 0
-0.000301875 0.249768 0
-0.06478 0.272438 0
-0.0628296 0.253419 0
-0.0482509 0.223212 0
-0.0349282 0.193416 0
-0.0251315 0.167786 0
-0.0183392 0.146822 0
-0.0136848 0.129942 0
-0.0104731 0.11634 0
-0.00822617 0.105275 0
-0.00663052 0.0961415 0
-0.00548179 0.088469 0
-0.00464506 0.0819005 0
-0.00402939 0.0761675 0
-0.00357214 0.0710687 0
-0.00322925 0.0664538 0
-0.00296914 0.0622111 0
-0.00276885 0.0582579 0
-0.00261149 0.0545334 0
-0.00248456 0.0509939 0
-0.00237877 0.0476081 0
-0.00228724 0.0443546 0
-0.00220492 0.041219 0
-0.00212815 0.0381922 0
-0.00205432 0.0352692 0
-0.00198167 0.0324473 0
-0.00190903 0.0297262 0
-0.00183568 0.0271062 0
-0.00176123 0.0245888 0
-0.0016855 0.0221756 0
-0.00160841 0.0198684 0
-0.00152994 0.0176691 0
-0.00145004 0.0155798 0
-0.00136862 0.0136026 0
-0.00128545 0.0117397 0
-0.00120019 0.00999379 0
-0.00111232 0.00836818 0
-0.00102116 0.00686675 0
-0.000925842 0.00549434 0
-0.000825333 0.00425682 0
-0.000718473 0.0031612 0
-0.000604107 0.00221551 0
-0.00048138 0.0014284 0
-0.000350412 0.000808196 0
-0.000213839 0.000360961 0
-8.01261e-05 8.64804e-05 0
3.07505e-05 -2.97178e-05 0
7.15634e-05 -2.56352e-05 0
0.501207 0.0768962 0
0.0998689 0.183692 0
-0.0384285 0.250205 0
-0.072642 0.267092 0
-0.0714935 0.258965 0
-0.0607269 0.241053 0
-0.0490559 0.220578 0
-0.0390324 0.200826 0
-0.0310916 0.183044 0
-0.0250067 0.167499 0
-0.0204065 0.154045 0
-0.0169447 0.142388 0
-0.0143403 0.132214 0
-0.0123773 0.123233 0
-0.0108929 0.1152 0
-0.00976526 0.107914 0
-0.00890307 0.101217 0
-0.00823755 0.0949853 0
-0.00771677 0.0891248 0
-0.00730138 0.0835646 0
-0.00696156 0.0782525 0
-0.00667473 0.0731511 0
-0.00642392 0.0682348 0
-0.00619649 0.0634863 0
-0.00598321 0.0588952 0
-0.00577746 0.0544559 0
-0.00557466 0.050166 0
-0.00537177 0.0460256 0
-0.00516691 0.0420364 0
-0.00495901 0.0382006 0
-0.00474752 0.0345211 0
-0.0045322 0.031001 0
-0.00431295 0.0276435 0
-0.0040896 0.0244516 0
-0.00386183 0.0214287 0
-0.00362906 0.0185784 0
-0.0033904 0.0159048 0
-0.00314457 0.0134125 0
-0.00288992 0.0111073 0
-0.00262445 0.00899585 0
-0.0023459 0.00708608 0
-0.002052 0.0053871 0
-0.00174087 0.0039089 0
-0.00141187 0.00266164 0
-0.00106721 0.00165432 0
-0.000714999 0.000892512 0
-0.000374854 0.000373566 0
-8.59124e-05 8.13699e-05 0
7.28728e-05 -5.5036e-06 0
0.610626 0.0481405 0
0.196863 0.134416 0
0.0127093 0.210287 0
-0.0570682 0.247566 0
-0.0757744 0.258065 0
-0.0743007 0.254239 0
-0.0659587 0.243243 0
-0.0562452 0.229336 0
-0.0472583 0.214814 0
-0.0396466 0.200794 0
-0.0334684 0.187739 0
-0.0285661 0.17577 0
-0.024725 0.164842 0
-0.0217358 0.154838 0
-0.0194163 0.145623 0
-0.0176161 0.137064 0
-0.0162141 0.129044 0
-0.0151137 0.121468 0
-0.0142392 0.114257 0
-0.0135311 0.10735 0
-0.0129432 0.100703 0
-0.01244 0.0942838 0
-0.011994 0.0880705 0
-0.011585 0.0820492 0
-0.0111977 0.0762125 0
-0.0108213 0.0705572 0
-0.0104483 0.0650836 0
-0.0100738 0.0597939 0
-0.00969449 0.0546916 0
-0.00930883 0.049781 0
-0.00891595 0.0450665 0
-0.00851552 0.0405527 0
-0.00810739 0.036244 0
-0.00769133 0.0321447 0
-0.00726682 0.0282592 0
-0.00683291 0.0245921 0
-0.00638807 0.0211485 0
-0.0059302 0.0179342 0
-0.00545662 0.0149558 0
-0.00496414 0.0122212 0
-0.00444935 0.00973925 0
-0.00390903 0.00751993 0
-0.00334091 0.00557392 0
-0.00274512 0.00391175 0
-0.00212651 0.00254255 0
-0.00149876 0.00147222 0
-0.000891165 0.000698629 0
-0.000357224 0.000210643 0
4.90231e-06 1.81351e-05 0
0.681249 0.030234 0
0.279964 0.0985285 0
0.071149 0.171578 0
-0.0265266 0.218107 0
-0.0653048 0.241265 0
-0.0759685 0.249075 0
-0.0741903 0.247445 0
-0.0675788 0.240501 0
-0.0596959 0.230864 0
-0.0521164 0.220091 0
-0.045451 0.209055 0
-0.0398553 0.198212 0
-0.035282 0.187771 0
-0.0316043 0.177801 0
-0.0286746 0.1683 0
-0.0263505 0.159231 0
-0.0245057 0.150543 0
-0.0230326 0.142188 0
-0.0218422 0.134122 0
-0.0208623 0.12631 0
-0.0200349 0.118725 0
-0.0193145 0.111348 0
-0.0186657 0.104169 0
-0.0180616 0.0971827 0
-0.0174822 0.0903877 0
-0.0169131 0.0837868 0
-0.0163446 0.0773848 0
-0.0157702 0.0711875 0
-0.015186 0.0652018 0
-0.0145901 0.0594344 0
-0.0139815 0.0538919 0
-0.0133602 0.0485807 0
-0.0127263 0.0435065 0
-0.0120794 0.0386748 0
-0.0114191 0.0340911 0
-0.0107442 0.0297606 0
-0.0100525 0.0256893 0
-0.00934114 0.0218834 0
-0.00860651 0.01835 0
-0.00784434 0.0150974 0
-0.00705015 0.0121349 0
-0.00621993 0.00947246 0
-0.00535123 0.00712106 0
-0.00444495 0.00509135 0
-0.00350819 0.00339309 0
-0.00255874 0.00203403 0
-0.00163206 0.0010154 0
-0.000789149 0.000335261 0
-0.000134313 3.9908e-05 0
0.730798 0.0192264 0
0.350678 0.0732186 0
0.129479 0.139508 0
0.0119362 0.188228 0
-0.044963 0.218997 0
-0.0683039 0.235137 0
-0.0746319 0.241201 0
-0.0728663 0.240687 0
-0.0676801 0.236105 0
-0.0614532 0.229134 0
-0.0553385 0.220849 0
-0.0498401 0.211912 0
-0.0451259 0.202718 0
-0.0411972 0.193488 0
-0.0379787 0.184343 0
-0.035366 0.175337 0
-0.0332502 0.166495 0
-0.0315292 0.15782 0
-0.0301128 0.14931 0
-0.0289247 0.140964 0
-0.0279014 0.132778 0
-0.026992 0.124754 0
-0.0261563 0.116896 0
-0.0253635 0.109211 0
-0.0245908 0.101707 0
-0.0238217 0.0943961 0
-0.0230452 0.087288 0
-0.0222543 0.0803942 0
-0.0214453 0.0737257 0
-0.0206164 0.0672924 0
-0.0197675 0.0611036 0
-0.0188989 0.0551675 0
-0.0180113 0.0494916 0
-0.0171048 0.0440825 0
-0.0161792 0.0389463 0
-0.015233 0.0340891 0
-0.0142637 0.0295169 0
-0.013268 0.0252364 0
-0.0122412 0.0212546 0
-0.0111781 0.0175798 0
-0.0100732 0.014221 0
-0.00892187 0.0111885 0
-0.00772117 0.00849292 0
-0.00647235 0.00614557 0
-0.00518362 0.0041576 0
-0.00387466 0.00254001 0
-0.00258297 0.0012994 0
-0.00137042 0.000444876 0
-0.000337225 5.80539e-05 0
0.766853 0.0125866 0
0.410092 0.0556838 0
0.184226 0.114326 0
0.0528783 0.161906 0
-0.0187066 0.196194 0
-0.0539193 0.217797 0
-0.0687579 0.22959 0
-0.0727429 0.23437 0
-0.0712872 0.234323 0
-0.0673942 0.23105 0
-0.0626846 0.225671 0
-0.0579921 0.218947 0
-0.053708 0.211381 0
-0.04998 0.203302 0
-0.046826 0.194921 0
-0.0441988 0.186372 0
-0.0420235 0.177744 0
-0.0402168 0.169093 0
-0.0386981 0.160459 0
-0.037395 0.151873 0
-0.0362451 0.143359 0
-0.0351969 0.134941 0
-0.0342094 0.126641 0
-0.0332507 0.11848 0
-0.0322974 0.110477 0
-0.031333 0.102654 0
-0.030347 0.0950286 0
-0.029333 0.087618 0
-0.0282883 0.0804381 0
-0.0272126 0.0735028 0
-0.0261068 0.0668242 0
-0.0249726 0.0604128 0
-0.0238116 0.0542776 0
-0.022625 0.0484263 0
-0.0214128 0.0428657 0
-0.0201738 0.0376022 0
-0.0189054 0.0326419 0
-0.0176036 0.0279912 0
-0.0162632 0.0236571 0
-0.014878 0.0196474 0
-0.0134415 0.0159708 0
-0.0119481 0.0126373 0
-0.0103941 0.00965786 0
-0.00878013 0.0070446 0
-0.00711411 0.00481075 0
-0.00541501 0.0029715 0
-0.00371844 0.00153978 0
-0.00208164 0.000535891 0
-0.000593643 7.23693e-05 0
0.793825 0.00856369 0
0.459932 0.0434158 0
0.234228 0.0947628 0
0.0937073 0.139696 0
0.0108969 0.174821 0
-0.0349955 0.199783 0
-0.0581225 0.215603 0
-0.068183 0.22448 0
-0.0710331 0.22821 0
-0.0701254 0.228223 0
-0.0674541 0.225589 0
-0.064138 0.221088 0
-0.0607756 0.215271 0
-0.0576603 0.20853 0
-0.0549097 0.201137 0
-0.0525436 0.193287 0
-0.0505304 0.185117 0
-0.0488148 0.176729 0
-0.0473337 0.168201 0
-0.0460251 0.159595 0
-0.0448332 0.150962 0
-0.0437106 0.142349 0
-0.0426187 0.133794 0
-0.041528 0.125335 0
-0.040417 0.117004 0
-0.0392711 0.108831 0
-0.0380819 0.100843 0
-0.0368454 0.0930653 0
-0.035561 0.0855177 0
-0.0342308 0.0782185 0
-0.0328579 0.0711831 0
-0.0314459 0.0644242 0
-0.0299982 0.0579521 0
-0.028517 0.0517758 0
-0.0270036 0.0459023 0
-0.025457 0.0403382 0
-0.023875 0.0350895 0
-0.022253 0.030162 0
-0.0205852 0.0255621 0
-0.0188646 0.0212972 0
-0.0170834 0.0173756 0
-0.0152348 0.0138069 0
-0.0133137 0.0106026 0
-0.0113193 0.00777574 0
-0.00925718 0.0053422 0
-0.00714336 0.0033216 0
-0.00500823 0.00173336 0
-0.00290027 0.000607931 0
-0.000892944 8.31922e-05 0
0.814665 0.00608198 0
0.502008 0.0346818 0
0.279343 0.0795659 0
0.132998 0.121302 0
0.0414909 0.155948 0
-0.0133166 0.182492 0
-0.0441026 0.200996 0
-0.0601773 0.212886 0
-0.067573 0.219612 0
-0.0700337 0.222389 0
-0.0698318 0.222187 0
-0.0683181 0.219752 0
-0.066271 0.215644 0
-0.0641173 0.210278 0
-0.0620713 0.203964 0
-0.0602211 0.196934 0
-0.0585828 0.189363 0
-0.0571336 0.18139 0
-0.0558329 0.173122 0
-0.0546339 0.164651 0
-0.0534914 0.156051 0
-0.0523657 0.147388 0
-0.0512241 0.138722 0
-0.0500419 0.130102 0
-0.048802 0.121576 0
-0.0474938 0.113182 0
-0.0461129 0.104958 0
-0.0446591 0.0969344 0
-0.0431355 0.0891373 0
-0.0415475 0.0815891 0
-0.0399015 0.0743083 0
-0.0382039 0.0673098 0
-0.0364603 0.0606055 0
-0.034675 0.0542049 0
-0.0328505 0.0481154 0
-0.0309868 0.0423434 0
-0.0290818 0.0368942 0
-0.0271311 0.0317731 0
-0.025128 0.0269859 0
-0.0230646 0.0225389 0
-0.0209318 0.0184399 0
-0.018721 0.0146984 0
-0.0164251 0.0113261 0
-0.0140403 0.00833748 0
-0.0115688 0.00575087 0
-0.00902133 0.00359026 0
-0.00642053 0.00188097 0
-0.00380327 0.000662063 0
-0.00122505 9.09982e-05 0
0.831264 0.00451076 0
0.537855 0.0283329 0
0.319888 0.0676646 0
0.170168 0.106098 0
0.0720645 0.139545 0
0.0100369 0.166457 0
-0.0277469 0.186678 0
-0.0495832 0.200712 0
-0.0615495 0.20974 0
-0.0675646 0.214763 0
-0.0701007 0.216632 0
-0.0706886 0.21603 0
-0.0702553 0.213497 0
-0.069344 0.209449 0
-0.0682566 0.204213 0
-0.067146 0.198041 0
-0.0660757 0.191135 0
-0.0650571 0.183658 0
-0.0640739 0.175744 0
-0.0630975 0.167505 0
-0.0620961 0.159039 0
-0.0610401 0.150431 0
-0.0599056 0.141756 0
-0.058675 0.133078 0
-0.0573376 0.124457 0
-0.055889 0.115943 0
-0.0543303 0.107581 0
-0.0526668 0.0994081 0
-0.0509068 0.0914571 0
-0.0490601 0.0837542 0
-0.0471375 0.0763207 0
-0.045149 0.0691735 0
-0.0431034 0.0623258 0
-0.0410074 0.0557875 0
-0.0388653 0.049566 0
-0.0366785 0.0436671 0
-0.0344453 0.0380955 0
-0.0321614 0.0328555 0
-0.0298196 0.0279517 0
-0.0274106 0.0233896 0
-0.0249239 0.0191762 0
-0.0223485 0.0153207 0
-0.0196745 0.0118351 0
-0.0168943 0.00873506 0
-0.014005 0.00604114 0
-0.0110106 0.00378114 0
-0.00792393 0.00198544 0
-0.00476853 0.000699922 0
-0.00158084 9.62571e-05 0
0.844831 0.00348399 0
0.568695 0.0236173 0
0.35632 0.0582522 0
0.204972 0.0935253 0
0.101901 0.125427 0
0.0338584 0.152103 0
-0.00993852 0.173149 0
-0.0371264 0.18865 0
-0.0535393 0.199385 0
-0.0631553 0.206181 0
-0.068574 0.209759 0
-0.0714594 0.210731 0
-0.0728563 0.209596 0
-0.0734046 0.206757 0
-0.0734823 0.202539 0
-0.0733007 0.197206 0
-0.0729673 0.190974 0
-0.0725265 0.184023 0
-0.0719869 0.176506 0
-0.071339 0.168555 0
-0.0705659 0.160286 0
-0.0696502 0.151798 0
-0.0685782 0.143183 0
-0.0673414 0.13452 0
-0.0659377 0.125878 0
-0.0643705 0.117318 0
-0.0626482 0.108893 0
-0.0607831 0.100648 0
-0.0587898 0.0926203 0
-0.0566843 0.0848394 0
-0.0544825 0.0773299 0
-0.052199 0.0701104 0
-0.0498466 0.0631949 0
-0.047435 0.0565934 0
-0.044971 0.0503131 0
-0.0424574 0.0443589 0
-0.0398936 0.0387343 0
-0.037275 0.0334424 0
-0.034594 0.0284865 0
-0.0318401 0.023871 0
-0.0290007 0.0196018 0
-0.0260621 0.0156877 0
-0.0230106 0.0121408 0
-0.0198341 0.0089774 0
-0.0165234 0.00622011 0
-0.0130743 0.00389967 0
-0.00948861 0.0020504 0
-0.00577554 0.000723269 0
-0.0019522 9.93811e-05 0
0.85617 0.00278813 0
0.595493 0.0200361 0
0.389132 0.0507158 0
0.237413 0.083064 0
0.130681 0.113266 0
0.0577058 0.139328 0
0.00881308 0.160577 0
-0.0233497 0.177051 0
-0.0440219 0.189023 0
-0.0571982 0.197189 0
-0.0655567 0.20215 0
-0.0708567 0.20444 0
-0.074233 0.204512 0
-0.0764035 0.202744 0
-0.0778098 0.199453 0
-0.0787132 0.194902 0
-0.0792604 0.189315 0
-0.079526 0.182882 0
-0.0795425 0.175772 0
-0.0793189 0.16813 0
-0.0788539 0.160086 0
-0.0781433 0.151757 0
-0.0771851 0.143246 0
-0.0759814 0.134644 0
-0.0745401 0.126032 0
-0.072874 0.117481 0
-0.0710005 0.109051 0
-0.0689404 0.100793 0
-0.0667162 0.0927494 0
-0.0643509 0.0849533 0
-0.0618668 0.0774316 0
-0.0592843 0.0702042 0
-0.0566206 0.0632857 0
-0.0538893 0.0566859 0
-0.0511 0.050411 0
-0.0482574 0.0444649 0
-0.0453619 0.0388497 0
-0.0424092 0.0335668 0
-0.039391 0.0286179 0
-0.0362953 0.0240059 0
-0.0331071 0.0197357 0
-0.0298095 0.0158151 0
-0.0263846 0.0122559 0
-0.0228147 0.00907489 0
-0.0190835 0.00629591 0
-0.0151775 0.00395177 0
-0.0110868 0.00207959 0
-0.00680563 0.000733756 0
-0.00233204 0.00010071 0
0.865824 0.00229836 0
0.619003 0.0172583 0
0.418786 0.044607 0
0.267586 0.0743039 0
0.158211 0.102789 0
0.0811751 0.128026 0
0.0278227 0.149164 0
-0.0087322 0.16612 0
-0.0334039 0.178956 0
-0.0500362 0.188147 0
-0.0613292 0.194199 0
-0.069102 0.197567 0
-0.0745549 0.198656 0
-0.0784656 0.197814 0
-0.0813266 0.195339 0
-0.0834411 0.191491 0
-0.0849887 0.186494 0
-0.0860706 0.180547 0
-0.0867405 0.173825 0
-0.0870256 0.166488 0
-0.0869394 0.158677 0
-0.0864915 0.150522 0
-0.0856922 0.142137 0
-0.0845557 0.133625 0
-0.0831011 0.125078 0
-0.0813522 0.116574 0
-0.0793369 0.108182 0
-0.0770857 0.0999568 0
-0.0746304 0.091946 0
-0.0720026 0.0841863 0
-0.0692319 0.0767061 0
-0.0663451 0.0695262 0
-0.0633651 0.062661 0
-0.0603099 0.0561199 0
-0.0571921 0.0499078 0
-0.0540189 0.044027 0
-0.0507918 0.0384778 0
-0.0475068 0.0332596 0
-0.0441548 0.0283723 0
-0.0407222 0.0238169 0
-0.0371915 0.0195968 0
-0.0335419 0.0157186 0
-0.0297506 0.0121934 0
-0.0257938 0.009038 0
-0.0216474 0.00627657 0
-0.0172878 0.00394312 0
-0.012693 0.00207642 0
-0.00784189 0.000732815 0
-0.0027141 0.000100511 0
0.874174 0.00194058 0
0.639813 0.0150599 0
0.445693 0.0395919 0
0.295644 0.0669066 0
0.184433 0.0937178 0
0.10408 0.118005 0
0.0468739 0.138812 0
0.00645318 0.155896 0
-0.0219933 0.16932 0
-0.0419547 0.179259 0
-0.056139 0.186153 0
-0.0664019 0.190387 0
-0.0739891 0.192313 0
-0.0797227 0.192249 0
-0.0841343 0.190473 0
-0.0875599 0.187237 0
-0.090206 0.182761 0
-0.092196 0.177248 0
-0.0936024 0.17088 0
-0.094468 0.163826 0
-0.0948212 0.156237 0
-0.0946848 0.148254 0
-0.0940824 0.140003 0
-0.0930408 0.131597 0
-0.0915916 0.123136 0
-0.089771 0.114706 0
-0.0876187 0.106383 0
-0.0851767 0.0982276 0
-0.0824871 0.0902904 0
-0.0795912 0.0826108 0
-0.0765273 0.0752184 0
-0.0733296 0.0681344 0
-0.070027 0.0613729 0
-0.0666427 0.0549417 0
-0.063193 0.0488445 0
-0.0596876 0.0430813 0
-0.0561294 0.0376502 0
-0.0525147 0.0325485 0
-0.0488336 0.0277736 0
-0.0450707 0.0233245 0
-0.0412053 0.0192026 0
-0.0372128 0.015413 0
-0.0330651 0.0119656 0
-0.0287314 0.00887638 0
-0.0241793 0.00616939 0
-0.0193749 0.00387875 0
-0.0142835 0.00204384 0
-0.008869 0.000721618 0
-0.00309282 9.89832e-05 0
0.881489 0.0016699 0
0.65838 0.0132868 0
0.470211 0.0354224 0
0.321753 0.0606051 0
0.209338 0.0858221 0
0.126278 0.109106 0
0.0657208 0.129443 0
0.0218034 0.146468 0
-0.0100707 0.160184 0
-0.0332004 0.170644 0
-0.050204 0.178164 0
-0.0629447 0.18307 0
-0.0726951 0.185667 0
-0.0803069 0.186239 0
-0.08634 0.185044 0
-0.0911549 0.182322 0
-0.0949787 0.178289 0
-0.0979524 0.173148 0
-0.100164 0.167088 0
-0.10167 0.160282 0
-0.102512 0.152894 0
-0.102727 0.145071 0
-0.102351 0.136951 0
-0.101424 0.128655 0
-0.0999925 0.120292 0
-0.0981055 0.111956 0
-0.0958161 0.103727 0
-0.0931787 0.0956718 0
-0.0902477 0.0878428 0
-0.087075 0.0802816 0
-0.0837085 0.0730185 0
-0.0801909 0.0660745 0
-0.076558 0.0594625 0
-0.0728383 0.0531888 0
-0.0690526 0.0472547 0
-0.0652132 0.041658 0
-0.0613246 0.036394 0
-0.0573834 0.0314573 0
-0.0533788 0.0268427 0
-0.0492932 0.0225468 0
-0.0451029 0.0185687 0
-0.0407788 0.0149113 0
-0.0362871 0.011583 0
-0.0315898 0.00859845 0
-0.0266459 0.0059806 0
-0.0214107 0.00376287 0
-0.0158367 0.00198423 0
-0.00987293 0.000701068 0
-0.00346319 9.62662e-05 0
0.887967 0.00145834 0
0.675066 0.0118307 0
0.492641 0.0319106 0
0.346077 0.0551836 0
0.232957 0.0788975 0
0.147702 0.10116 0
0.0842366 0.120924 0
0.0371765 0.137745 0
0.00218299 0.151536 0
-0.0239723 0.162338 0
-0.0437121 0.170299 0
-0.0589002 0.175708 0
-0.0708218 0.178823 0
-0.0803465 0.179897 0
-0.0880524 0.179167 0
-0.0943164 0.176859 0
-0.0993804 0.173186 0
-0.103398 0.168351 0
-0.10647 0.162543 0
-0.108664 0.155945 0
-0.110034 0.148727 0
-0.110629 0.141045 0
-0.1105 0.133047 0
-0.1097 0.124861 0
-0.108291 0.116604 0
-0.106336 0.108377 0
-0.103904 0.100263 0
-0.101062 0.0923344 0
-0.0978778 0.0846452 0
-0.0944159 0.077238 0
-0.0907346 0.0701432 0
-0.0868858 0.0633807 0
-0.0829129 0.0569618 0
-0.0788505 0.0508906 0
-0.0747238 0.0451656 0
-0.0705483 0.0397817 0
-0.0663301 0.0347314 0
-0.0620659 0.030006 0
-0.057744 0.0255975 0
-0.0533447 0.0214994 0
-0.0488408 0.0177083 0
-0.0441984 0.0142247 0
-0.0393778 0.0110548 0
-0.0343336 0.00821126 0
-0.0290157 0.00571535 0
-0.0233687 0.00359886 0
-0.0173323 0.00189942 0
-0.0108407 0.000671827 0
-0.00382063 9.24496e-05 0
0.893753 0.00128782 0
0.690153 0.010613 0
0.513235 0.0289123 0
0.368767 0.0504675 0
0.255333 0.0727694 0
0.168307 0.0940118 0
0.102313 0.113138 0
0.0524153 0.129646 0
0.0145433 0.143369 0
-0.0144472 0.15433 0
-0.0368288 0.162574 0
-0.0544216 0.168333 0
-0.0685079 0.171825 0
-0.0799644 0.173273 0
-0.0893785 0.172894 0
-0.0971362 0.170903 0
-0.103488 0.167506 0
-0.108597 0.162904 0
-0.11257 0.157292 0
-0.115488 0.150857 0
-0.117413 0.143775 0
-0.118408 0.136213 0
-0.118536 0.128324 0
-0.117868 0.120246 0
-0.116478 0.112101 0
-0.114447 0.103995 0
-0.111859 0.0960183 0
-0.108797 0.088242 0
-0.105345 0.0807236 0
-0.101577 0.0735056 0
-0.0975661 0.0666173 0
-0.0933724 0.0600773 0
-0.0890482 0.0538942 0
-0.0846346 0.0480694 0
-0.0801614 0.0425984 0
-0.0756474 0.0374725 0
-0.0711003 0.0326809 0
-0.0665172 0.0282115 0
-0.0618852 0.0240529 0
-0.0571823 0.0201955 0
-0.0523775 0.0166329 0
-0.0474322 0.0133628 0
-0.0423003 0.0103886 0
-0.0369291 0.00772065 0
-0.031259 0.00537778 0
-0.0252241 0.00338933 0
-0.0187512 0.00179079 0
-0.0117602 0.000634351 0
-0.0041608 8.75832e-05 0
0.898956 0.00114616 0
0.703864 0.00957555 0
0.532201 0.0263139 0
0.389957 0.0463129 0
0.276517 0.0672859 0
0.188071 0.0875183 0
0.119874 0.105958 0
0.0674105 0.122063 0
0.0268654 0.135606 0
-0.00478188 0.146575 0
-0.0297064 0.154962 0
-0.0496505 0.16093 0
-0.0658835 0.164667 0
-0.0792784 0.166368 0
-0.0904229 0.166232 0
-0.0997056 0.16446 0
-0.10738 0.161254 0
-0.113613 0.156815 0
-0.118518 0.151341 0
-0.122182 0.145022 0
-0.124679 0.138043 0
-0.126081 0.130578 0
-0.126468 0.122787 0
-0.125925 0.114815 0
-0.124543 0.106789 0
-0.12242 0.0988208 0
-0.119658 0.0910017 0
-0.116357 0.0834061 0
-0.112615 0.0760912 0
-0.108523 0.0690988 0
-0.104163 0.0624567 0
-0.099609 0.0561808 0
-0.0949208 0.0502768 0
-0.0901464 0.0447426 0
-0.0853207 0.0395701 0
-0.0804658 0.0347468 0
-0.075591 0.030258 0
-0.0706937 0.0260881 0
-0.0657598 0.022222 0
-0.0607646 0.0186467 0
-0.0556734 0.0153523 0
-0.0504425 0.0123336 0
-0.0450197 0.00959088 0
-0.0393442 0.00713149 0
-0.0333477 0.00497124 0
-0.0269533 0.00313635 0
-0.0200755 0.00165933 0
-0.0126197 0.000588943 0