# vtk DataFile Version 3.0
Malha 2D com triângulos: velocidade e pressão
ASCII
DATASET UNSTRUCTURED_GRID

POINTS 2500 double
0 0 0
1 0 0
1 1 0
0 1 0
0.0204082 0 0
0.0408163 0 0
0.0612245 0 0
0.0816327 0 0
0.102041 0 0
0.122449 0 0
0.142857 0 0
0.163265 0 0
0.183673 0 0
0.204082 0 0
0.22449 0 0
0.244898 0 0
0.265306 0 0
0.285714 0 0
0.306122 0 0
0.326531 0 0
0.346939 0 0
0.367347 0 0
0.387755 0 0
0.408163 0 0
0.428571 0 0
0.44898 0 0
0.469388 0 0
0.489796 0 0
0.510204 0 0
0.530612 0 0
0.55102 0 0
0.571429 0 0
0.591837 0 0
0.612245 0 0
0.632653 0 0
0.653061 0 0
0.673469 0 0
0.693878 0 0
0.714286 0 0
0.734694 0 0
0.755102 0 0
0.77551 0 0
0.795918 0 0
0.816327 0 0
0.836735 0 0
0.857143 0 0
0.877551 0 0
0.897959 0 0
0.918367 0 0
0.938776 0 0
0.959184 0 0
0.979592 0 0
1 0.0204082 0
1 0.0408163 0
1 0.0612245 0
1 0.0816327 0
1 0.102041 0
1 0.122449 0
1 0.142857 0
1 0.163265 0
1 0.183673 0
1 0.204082 0
1 0.22449 0
1 0.244898 0
1 0.265306 0
1 0.285714 0
1 0.306122 0
1 0.326531 0
1 0.346939 0
1 0.367347 0
1 0.387755 0
1 0.408163 0
1 0.428571 0
1 0.44898 0
1 0.469388 0
1 0.489796 0
1 0.510204 0
1 0.530612 0
1 0.55102 0
1 0.571429 0
1 0.591837 0
1 0.612245 0
1 0.632653 0
1 0.653061 0
1 0.673469 0
1 0.693878 0
1 0.714286 0
1 0.734694 0
1 0.755102 0
1 0.77551 0
1 0.795918 0
1 0.816327 0
1 0.836735 0
1 0.857143 0
1 0.877551 0
1 0.897959 0
1 0.918367 0
1 0.938776 0
1 0.959184 0
1 0.979592 0
0.979592 1 0
0.959184 1 0
0.938776 1 0
0.918367 1 0
0.897959 1 0
0.877551 1 0
0.857143 1 0
0.836735 1 0
0.816327 1 0
0.795918 1 0
0.77551 1 0
0.755102 1 0
0.734694 1 0
0.714286 1 0
0.693878 1 0
0.673469 1 0
0.653061 1 0
0.632653 1 0
0.612245 1 0
0.591837 1 0
0.571429 1 0
0.55102 1 0
0.530612 1 0
0.510204 1 0
0.489796 1 0
0.469388 1 0
0.44898 1 0
0.428571 1 0
0.408163 1 0
0.387755 1 0
0.367347 1 0
0.346939 1 0
0.326531 1 0
0.306122 1 0
0.285714 1 0
0.265306 1 0
0.244898 1 0
0.22449 1 0
0.204082 1 0
0.183673 1 0
0.163265 1 0
0.142857 1 0
0.122449 1 0
0.102041 1 0
0.0816327 1 0
0.0612245 1 0
0.0408163 1 0
0.0204082 1 0
0 0.979592 0
0 0.959184 0
0 0.938776 0
0 0.918367 0
0 0.897959 0
0 0.877551 0
0 0.857143 0
0 0.836735 0
0 0.816327 0
0 0.795918 0
0 0.77551 0
0 0.755102 0
0 0.734694 0
0 0.714286 0
0 0.693878 0
0 0.673469 0
0 0.653061 0
0 0.632653 0
0 0.612245 0
0 0.591837 0
0 0.571429 0
0 0.55102 0
0 0.530612 0
0 0.510204 0
0 0.489796 0
0 0.469388 0
0 0.44898 0
0 0.428571 0
0 0.408163 0
0 0.387755 0
0 0.367347 0
0 0.346939 0
0 0.326531 0
0 0.306122 0
0 0.285714 0
0 0.265306 0
0 0.244898 0
0 0.22449 0
0 0.204082 0
0 0.183673 0
0 0.163265 0
0 0.142857 0
0 0.122449 0
0 0.102041 0
0 0.0816327 0
0 0.0612245 0
0 0.0408163 0
0 0.0204082 0
0.0204082 0.979592 0
0.0204082 0.959184 0
0.0204082 0.938776 0
0.0204082 0.918367 0
0.0204082 0.897959 0
0.0204082 0.877551 0
0.0204082 0.857143 0
0.0204082 0.836735 0
0.0204082 0.816327 0
0.0204082 0.795918 0
0.0204082 0.77551 0
0.0204082 0.755102 0
0.0204082 0.734694 0
0.0204082 0.714286 0
0.0204082 0.693878 0
0.0204082 0.673469 0
0.0204082 0.653061 0
0.0204082 0.632653 0
0.0204082 0.612245 0
0.0204082 0.591837 0
0.0204082 0.571429 0
0.0204082 0.55102 0
0.0204082 0.530612 0
0.0204082 0.510204 0
0.0204082 0.489796 0
0.0204082 0.469388 0
0.0204082 0.44898 0
0.0204082 0.428571 0
0.0204082 0.408163 0
0.0204082 0.387755 0
0.0204082 0.367347 0
0.0204082 0.346939 0
0.0204082 0.326531 0
0.0204082 0.306122 0
0.0204082 0.285714 0
0.0204082 0.265306 0
0.0204082 0.244898 0
0.0204082 0.22449 0
0.0204082 0.204082 0
0.0204082 0.183673 0
0.0204082 0.163265 0
0.0204082 0.142857 0
0.0204082 0.122449 0
0.0204082 0.102041 0
0.0204082 0.0816327 0
0.0204082 0.0612245 0
0.0204082 0.0408163 0
0.0204082 0.0204082 0
0.0408163 0.979592 0
0.0408163 0.959184 0
0.0408163 0.938776 0
0.0408163 0.918367 0
0.0408163 0.897959 0
0.0408163 0.877551 0
0.0408163 0.857143 0
0.0408163 0.836735 0
0.0408163 0.816327 0
0.0408163 0.795918 0
0.0408163 0.77551 0
0.0408163 0.755102 0
0.0408163 0.734694 0
0.0408163 0.714286 0
0.0408163 0.693878 0
0.0408163 0.673469 0
0.0408163 0.653061 0
0.0408163 0.632653 0
0.0408163 0.612245 0
0.0408163 0.591837 0
0.0408163 0.571429 0
0.0408163 0.55102 0
0.0408163 0.530612 0
0.0408163 0.510204 0
0.0408163 0.489796 0
0.0408163 0.469388 0
0.0408163 0.44898 0
0.0408163 0.428571 0
0.0408163 0.408163 0
0.0408163 0.387755 0
0.0408163 0.367347 0
0.0408163 0.346939 0
0.0408163 0.326531 0
0.0408163 0.306122 0
0.0408163 0.285714 0
0.0408163 0.265306 0
0.0408163 0.244898 0
0.0408163 0.22449 0
0.0408163 0.204082 0
0.0408163 0.183673 0
0.0408163 0.163265 0
0.0408163 0.142857 0
0.0408163 0.122449 0
0.0408163 0.102041 0
0.0408163 0.0816327 0
0.0408163 0.0612245 0
0.0408163 0.0408163 0
0.0408163 0.0204082 0
0.0612245 0.979592 0
0.0612245 0.959184 0
0.0612245 0.938776 0
0.0612245 0.918367 0
0.0612245 0.897959 0
0.0612245 0.877551 0
0.0612245 0.857143 0
0.0612245 0.836735 0
0.0612245 0.816327 0
0.0612245 0.795918 0
0.0612245 0.77551 0
0.0612245 0.755102 0
0.0612245 0.734694 0
0.0612245 0.714286 0
0.0612245 0.693878 0
0.0612245 0.673469 0
0.0612245 0.653061 0
0.0612245 0.632653 0
0.0612245 0.612245 0
0.0612245 0.591837 0
0.0612245 0.571429 0
0.0612245 0.55102 0
0.0612245 0.530612 0
0.0612245 0.510204 0
0.0612245 0.489796 0
0.0612245 0.469388 0
0.0612245 0.44898 0
0.0612245 0.428571 0
0.0612245 0.408163 0
0.0612245 0.387755 0
0.0612245 0.367347 0
0.0612245 0.346939 0
0.0612245 0.326531 0
0.0612245 0.306122 0
0.0612245 0.285714 0
0.0612245 0.265306 0
0.0612245 0.244898 0
0.0612245 0.22449 0
0.0612245 0.204082 0
0.0612245 0.183673 0
0.0612245 0.163265 0
0.0612245 0.142857 0
0.0612245 0.122449 0
0.0612245 0.102041 0
0.0612245 0.0816327 0
0.0612245 0.0612245 0
0.0612245 0.0408163 0
0.0612245 0.0204082 0
0.0816327 0.979592 0
0.0816327 0.959184 0
0.0816327 0.938776 0
0.0816327 0.918367 0
0.0816327 0.897959 0
0.0816327 0.877551 0
0.0816327 0.857143 0
0.0816327 0.836735 0
0.0816327 0.816327 0
0.0816327 0.795918 0
0.0816327 0.77551 0
0.0816327 0.755102 0
0.0816327 0.734694 0
0.0816327 0.714286 0
0.0816327 0.693878 0
0.0816327 0.673469 0
0.0816327 0.653061 0
0.0816327 0.632653 0
0.0816327 0.612245 0
0.0816327 0.591837 0
0.0816327 0.571429 0
0.0816327 0.55102 0
0.0816327 0.530612 0
0.0816327 0.510204 0
0.0816327 0.489796 0
0.0816327 0.469388 0
0.0816327 0.44898 0
0.0816327 0.428571 0
0.0816327 0.408163 0
0.0816327 0.387755 0
0.0816327 0.367347 0
0.0816327 0.346939 0
0.0816327 0.326531 0
0.0816327 0.306122 0
0.0816327 0.285714 0
0.0816327 0.265306 0
0.0816327 0.244898 0
0.0816327 0.22449 0
0.0816327 0.204082 0
0.0816327 0.183673 0
0.0816327 0.163265 0
0.0816327 0.142857 0
0.0816327 0.122449 0
0.0816327 0.102041 0
0.0816327 0.0816327 0
0.0816327 0.0612245 0
0.0816327 0.0408163 0
0.0816327 0.0204082 0
0.102041 0.979592 0
0.102041 0.959184 0
0.102041 0.938776 0
0.102041 0.918367 0
0.102041 0.897959 0
0.102041 0.877551 0
0.102041 0.857143 0
0.102041 0.836735 0
0.102041 0.816327 0
0.102041 0.795918 0
0.102041 0.77551 0
0.102041 0.755102 0
0.102041 0.734694 0
0.102041 0.714286 0
0.102041 0.693878 0
0.102041 0.673469 0
0.102041 0.653061 0
0.102041 0.632653 0
0.102041 0.612245 0
0.102041 0.591837 0
0.102041 0.571429 0
0.102041 0.55102 0
0.102041 0.530612 0
0.102041 0.510204 0
0.102041 0.489796 0
0.102041 0.469388 0
0.102041 0.44898 0
0.102041 0.428571 0
0.102041 0.408163 0
0.102041 0.387755 0
0.102041 0.367347 0
0.102041 0.346939 0
0.102041 0.326531 0
0.102041 0.306122 0
0.102041 0.285714 0
0.102041 0.265306 0
0.102041 0.244898 0
0.102041 0.22449 0
0.102041 0.204082 0
0.102041 0.183673 0
0.102041 0.163265 0
0.102041 0.142857 0
0.102041 0.122449 0
0.102041 0.102041 0
0.102041 0.0816327 0
0.102041 0.0612245 0
0.102041 0.0408163 0
0.102041 0.0204082 0
0.122449 0.979592 0
0.122449 0.959184 0
0.122449 0.938776 0
0.122449 0.918367 0
0.122449 0.897959 0
0.122449 0.877551 0
0.122449 0.857143 0
0.122449 0.836735 0
0.122449 0.816327 0
0.122449 0.795918 0
0.122449 0.77551 0
0.122449 0.755102 0
0.122449 0.734694 0
0.122449 0.714286 0
0.122449 0.693878 0
0.122449 0.673469 0
0.122449 0.653061 0
0.122449 0.632653 0
0.122449 0.612245 0
0.122449 0.591837 0
0.122449 0.571429 0
0.122449 0.55102 0
0.122449 0.530612 0
0.122449 0.510204 0
0.122449 0.489796 0
0.122449 0.469388 0
0.122449 0.44898 0
0.122449 0.428571 0
0.122449 0.408163 0
0.122449 0.387755 0
0.122449 0.367347 0
0.122449 0.346939 0
0.122449 0.326531 0
0.122449 0.306122 0
0.122449 0.285714 0
0.122449 0.265306 0
0.122449 0.244898 0
0.122449 0.22449 0
0.122449 0.204082 0
0.122449 0.183673 0
0.122449 0.163265 0
0.122449 0.142857 0
0.122449 0.122449 0
0.122449 0.102041 0
0.122449 0.0816327 0
0.122449 0.0612245 0
0.122449 0.0408163 0
0.122449 0.0204082 0
0.142857 0.979592 0
0.142857 0.959184 0
0.142857 0.938776 0
0.142857 0.918367 0
0.142857 0.897959 0
0.142857 0.877551 0
0.142857 0.857143 0
0.142857 0.836735 0
0.142857 0.816327 0
0.142857 0.795918 0
0.142857 0.77551 0
0.142857 0.755102 0
0.142857 0.734694 0
0.142857 0.714286 0
0.142857 0.693878 0
0.142857 0.673469 0
0.142857 0.653061 0
0.142857 0.632653 0
0.142857 0.612245 0
0.142857 0.591837 0
0.142857 0.571429 0
0.142857 0.55102 0
0.142857 0.530612 0
0.142857 0.510204 0
0.142857 0.489796 0
0.142857 0.469388 0
0.142857 0.44898 0
0.142857 0.428571 0
0.142857 0.408163 0
0.142857 0.387755 0
0.142857 0.367347 0
0.142857 0.346939 0
0.142857 0.326531 0
0.142857 0.306122 0
0.142857 0.285714 0
0.142857 0.265306 0
0.142857 0.244898 0
0.142857 0.22449 0
0.142857 0.204082 0
0.142857 0.183673 0
0.142857 0.163265 0
0.142857 0.142857 0
0.142857 0.122449 0
0.142857 0.102041 0
0.142857 0.0816327 0
0.142857 0.0612245 0
0.142857 0.0408163 0
0.142857 0.0204082 0
0.163265 0.979592 0
0.163265 0.959184 0
0.163265 0.938776 0
0.163265 0.918367 0
0.163265 0.897959 0
0.163265 0.877551 0
0.163265 0.857143 0
0.163265 0.836735 0
0.163265 0.816327 0
0.163265 0.795918 0
0.163265 0.77551 0
0.163265 0.755102 0
0.163265 0.734694 0
0.163265 0.714286 0
0.163265 0.693878 0
0.163265 0.673469 0
0.163265 0.653061 0
0.163265 0.632653 0
0.163265 0.612245 0
0.163265 0.591837 0
0.163265 0.571429 0
0.163265 0.55102 0
[...]
CELL_DATA 2401
VECTORS velocity double
0.250198 0.149739 0
-0.00357662 0.251111 0
-0.0307071 0.192067 0
-0.0236683 0.139058 0
-0.0149013 0.103555 0
-0.00909023 0.0797238 0
-0.00570984 0.0635668 0
-0.00377901 0.0522691 0
-0.00264798 0.0440497 0
-0.00195471 0.0378421 0
-0.00150687 0.0329988 0
-0.00120245 0.0291144 0
-0.00098602 0.0259264 0
-0.000826231 0.0232591 0
-0.00070453 0.0209909 0
-0.000609413 0.0190353 0
-0.000533442 0.0173292 0
-0.00047163 0.0158257 0
-0.00042053 0.0144893 0
-0.000377694 0.0132924 0
-0.000341349 0.0122134 0
-0.000310182 0.0112352 0
-0.000283208 0.010344 0
-0.000259674 0.00952838 0
-0.000238999 0.008779 0
-0.000220728 0.008088 0
-0.000204502 0.00744874 0
-0.000190033 0.00685554 0
-0.000177089 0.00630349 0
-0.000165481 0.0057883 0
-0.000155057 0.00530619 0
-0.000145687 0.00485383 0
-0.000137268 0.0044282 0
-0.00012971 0.00402659 0
-0.000122941 0.00364655 0
-0.000116898 0.00328582 0
-0.000111527 0.00294234 0
-0.000106778 0.00261421 0
-0.000102604 0.00229973 0
-9.8947e-05 0.00199736 0
-9.57253e-05 0.00170583 0
-9.28013e-05 0.00142425 0
-8.99197e-05 0.00115235 0
-8.65866e-05 0.000890895 0
-8.18448e-05 0.000642519 0
-7.39521e-05 0.000413108 0
-6.0033e-05 0.000213116 0
-3.56869e-05 6.21454e-05 0
-1.07268e-06 1.09623e-06 0
0.324776 0.113672 0
-0.0079796 0.227023 0
-0.0655592 0.239546 0
-0.0610161 0.2163 0
-0.0459753 0.185208 0
-0.0329692 0.156075 0
-0.0236845 0.131701 0
-0.0173718 0.11209 0
-0.013093 0.0964448 0
-0.0101458 0.0839014 0
-0.00806648 0.0737301 0
-0.0065609 0.0653675 0
-0.00544286 0.0583928 0
-0.00459294 0.0524949 0
-0.00393296 0.0474437 0
-0.00341052 0.0430674 0
-0.00298975 0.0392367 0
-0.00264554 0.0358528 0
-0.00235999 0.0328397 0
-0.00212009 0.0301377 0
-0.00191627 0.0276995 0
-0.00174136 0.0254875 0
-0.00158992 0.0234708 0
-0.00145778 0.0216243 0
-0.00134169 0.0199269 0
-0.0012391 0.0183613 0
-0.00114801 0.0169124 0
-0.00106679 0.0155675 0
-0.000994132 0.0143156 0
-0.000928985 0.013147 0
-0.000870474 0.0120532 0
-0.00081788 0.0110267 0
-0.000770601 0.0100607 0
-0.000728134 0.00914917 0
-0.000690048 0.00828651 0
-0.000655966 0.00746773 0
-0.000625548 0.00668823 0
-0.000598461 0.00594387 0
-0.000574343 0.00523095 0
-0.000552752 0.00454631 0
-0.000533063 0.00388748 0
-0.000514314 0.00325302 0
-0.000494932 0.00264301 0
-0.000472282 0.0020599 0
-0.000441943 0.0015099 0
-0.000396817 0.00100495 0
-0.000326397 0.00056338 0
-0.000216481 0.00021638 0
-6.22958e-05 3.58291e-05 0
0.469035 0.0686085 0
0.074285 0.158203 0
-0.0502514 0.206766 0
-0.0761198 0.212908 0
-0.070915 0.199269 0
-0.0585173 0.179026 0
-0.0464539 0.158136 0
-0.0365926 0.139011 0
-0.029001 0.122364 0
-0.02327 0.108172 0
-0.0189498 0.0961452 0
-0.0156687 0.0859365 0
-0.0131472 0.0772213 0
-0.0111824 0.0697242 0
-0.00962924 0.0632207 0
-0.00838365 0.0575319 0
-0.00737079 0.0525158 0
-0.0065363 0.0480598 0
-0.00584029 0.0440745 0
-0.0052532 0.0404882 0
-0.00475284 0.0372431 0
-0.00432241 0.0342923 0
-0.00394903 0.031597 0
-0.00362274 0.0291254 0
-0.00333573 0.0268506 0
-0.00308186 0.0247499 0
-0.00285623 0.022804 0
-0.00265492 0.0209964 0
-0.00247473 0.0193126 0
-0.00231307 0.0177399 0
-0.00216781 0.0162672 0
-0.00203716 0.0148844 0
-0.00191965 0.0135826 0
-0.00181402 0.0123538 0
-0.00171919 0.0111907 0
-0.0016342 0.0100866 0
-0.00155817 0.00903549 0
-0.00149019 0.00803188 0
-0.00142929 0.007071 0
-0.00137424 0.00614881 0
-0.00132332 0.00526227 0
-0.00127403 0.0044097 0
-0.00122242 0.00359141 0
-0.00116233 0.00281065 0
-0.00108408 0.00207514 0
-0.000973044 0.00139909 0
-0.000808472 0.000803235 0
-0.000562981 0.000324005 0
-0.000213154 5.98598e-05 0
0.562878 0.0413589 0
0.150232 0.109246 0
-0.0165808 0.163112 0
-0.0715431 0.184035 0
-0.0813448 0.184332 0
-0.0749877 0.174492 0
-0.0642126 0.160434 0
-0.0534504 0.145404 0
-0.0441305 0.130987 0
-0.0365041 0.117836 0
-0.0304075 0.106126 0
-0.0255698 0.0958095 0
-0.0217263 0.0867506 0
-0.0186546 0.0787874 0
-0.0161785 0.0717633 0
-0.0141625 0.0655384 0
-0.0125038 0.0599932 0
-0.0111244 0.0550271 0
-0.00996548 0.0505566 0
-0.00898215 0.0465127 0
-0.00814013 0.042838 0
-0.00741299 0.0394847 0
-0.00678024 0.0364131 0
-0.00622583 0.0335895 0
-0.00573712 0.0309855 0
-0.00530405 0.0285767 0
-0.00491856 0.0263423 0
-0.00457414 0.024264 0
-0.00426552 0.0223259 0
-0.00398836 0.0205142 0
-0.00373907 0.0188162 0
-0.00351468 0.0172209 0
-0.00331268 0.0157182 0
-0.00313095 0.0142991 0
-0.00296762 0.0129554 0
-0.00282106 0.0116795 0
-0.00268969 0.0104646 0
-0.00257194 0.00930463 0
-0.00246604 0.00819422 0
-0.0023698 0.00712886 0
-0.00228023 0.00610517 0
-0.00219299 0.00512131 0
-0.00210152 0.00417759 0
-0.00199583 0.0032774 0
-0.00186069 0.00242883 0
-0.00167342 0.00164683 0
-0.00140141 0.000953173 0
-0.000999252 0.000388548 0
-0.000411003 7.27926e-05 0
0.619396 0.0248867 0
0.211032 0.0750379 0
0.0214223 0.123825 0
-0.0563274 0.150664 0
-0.0810266 0.15965 0
-0.0828242 0.158026 0
-0.0757712 0.150537 0
-0.0661601 0.140329 0
-0.0566359 0.129265 0
-0.0481711 0.11835 0
-0.0410012 0.108074 0
-0.0350609 0.0986386 0
-0.0301822 0.0900845 0
-0.0261806 0.0823754 0
-0.0228878 0.0754405 0
-0.0201624 0.0691978 0
-0.0178901 0.0635665 0
-0.0159803 0.058472 0
-0.0143616 0.0538481 0
-0.0129783 0.0496372 0
-0.0117868 0.0457895 0
-0.0107529 0.0422624 0
-0.00984953 0.039019 0
-0.00905528 0.0360281 0
-0.00835313 0.0332623 0
-0.00772939 0.0306981 0
-0.00717302 0.0283148 0
-0.00667505 0.0260945 0
-0.00622812 0.024021 0
-0.00582621 0.0220803 0
-0.00546427 0.0202597 0
-0.00513813 0.0185476 0
-0.00484423 0.0169337 0
-0.00457954 0.0154087 0
-0.00434141 0.0139639 0
-0.00412744 0.0125915 0
-0.00393535 0.0112844 0
-0.00376282 0.0100361 0
-0.00360725 0.00884114 0
-0.00346541 0.00769469 0
-0.00333294 0.00659323 0
-0.00320364 0.00553475 0
-0.00306829 0.00451942 0
-0.00291302 0.00355052 0
-0.00271689 0.00263609 0
-0.0024486 0.00179141 0
-0.00206195 0.00103915 0
-0.00148926 0.000423613 0
-0.000634075 7.89254e-05 0
0.656361 0.0151016 0
0.259254 0.0520277 0
0.057178 0.0935018 0
-0.036707 0.120673 0
-0.074208 0.134073 0
-0.0843171 0.137876 0
-0.0820175 0.135497 0
-0.0747649 0.129572 0
-0.0661227 0.121871 0
-0.0576929 0.113492 0
-0.0501103 0.105081 0
-0.0435492 0.0969891 0
-0.037979 0.0893887 0
-0.0332889 0.0823468 0
-0.0293474 0.0758708 0
-0.0260289 0.0699369 0
-0.0232229 0.0645064 0
-0.020837 0.0595354 0
-0.0187952 0.0549798 0
-0.0170364 0.0507977 0
-0.0155111 0.0469508 0
-0.0141801 0.0434048 0
-0.0130115 0.040129 0
-0.0119798 0.0370962 0
-0.0110647 0.0342825 0
-0.0102493 0.0316665 0
-0.00952014 0.0292293 0
-0.00886607 0.0269542 0
-0.00827793 0.0248259 0
-0.00774814 0.0228308 0
-0.00727035 0.0209568 0
-0.00683924 0.0191927 0
-0.00645028 0.0175283 0
-0.00609958 0.0159542 0
-0.00578369 0.014462 0
-0.0054995 0.0130439 0
-0.00524403 0.0116926 0
-0.0050142 0.0104019 0
-0.00480655 0.00916591 0
-0.00461684 0.00797996 0
-0.00443935 0.00684037 0
-0.00426603 0.00574502 0
-0.00408499 0.00469393 0
-0.00387847 0.00369021 0
-0.00361962 0.00274182 0
-0.00326789 0.0018643 0
-0.00276204 0.00108119 0
-0.00200938 0.000439412 0
-0.00086955 8.10897e-05 0
0.681416 0.00939671 0
0.296998 0.03678 0
0.0887468 0.0709563 0
-0.0162565 0.096044 0
-0.0639836 0.111048 0
-0.0815914 0.117981 0
-0.0841902 0.11915 0
-0.0798499 0.116576 0
-0.0727504 0.11177 0
-0.0649787 0.105769 0
-0.057513 0.099248 0
-0.0507567 0.0926297 0
-0.0448251 0.0861633 0
-0.0396977 0.0799867 0
-0.0352962 0.0741674 0
-0.0315251 0.0687301 0
-0.0282899 0.0636741 0
-0.0255053 0.0589846 0
-0.0230979 0.05464 0
-0.0210061 0.0506153 0
-0.0191786 0.046885 0
-0.0175738 0.0434245 0
-0.0161573 0.0402105 0
-0.014901 0.0372214 0
-0.0137822 0.0344376 0
-0.012782 0.0318409 0
-0.0118849 0.029415 0
-0.0110781 0.0271449 0
-0.010351 0.0250171 0
-0.00969485 0.0230191 0
-0.00910207 0.0211395 0
-0.00856639 0.0193678 0
-0.00808243 0.0176945 0
-0.00764552 0.0161106 0
-0.0072515 0.014608 0
-0.00689659 0.013179 0
-0.00657714 0.0118167 0
-0.00628936 0.0105149 0
-0.00602899 0.0092678 0
-0.00579078 0.00807082 0
-0.00556773 0.00692027 0
-0.00534994 0.00581395 0
-0.00512293 0.00475178 0
-0.00486498 0.00373675 0
-0.00454314 0.0027768 0
-0.00410714 0.00188766 0
-0.00347982 0.00109357 0
-0.00254213 0.000442908 0
-0.00110908 8.10131e-05 0
0.698799 0.00605716 0
0.326344 0.0265984 0
0.115602 0.054376 0
0.00323926 0.0764809 0
-0.05237 0.0914997 0
-0.0763389 0.0999711 0
-0.0835081 0.103402 0
-0.0821979 0.103257 0
-0.0769633 0.100743 0
-0.0702348 0.0967637 0
-0.0632606 0.0919558 0
-0.0566403 0.0867512 0
-0.0506253 0.0814327 0
-0.0452861 0.0761787 0
-0.0406044 0.0710966 0
-0.036522 0.0662466 0
-0.0329678 0.0616581 0
-0.0298704 0.0573412 0
-0.0271639 0.0532939 0
-0.0247907 0.0495072 0
-0.0227013 0.0459682 0
-0.020854 0.042662 0
-0.019214 0.0395728 0
-0.0177523 0.0366854 0
-0.0164448 0.0339846 0
-0.0152715 0.0314561 0
-0.0142158 0.0290865 0
-0.0132636 0.0268633 0
-0.0124035 0.0247746 0
-0.0116255 0.0228095 0
-0.0109213 0.0209578 0
-0.010284 0.01921 0
-0.00970726 0.0175571 0
-0.00918591 0.0159911 0
-0.00871515 0.014504 0
-0.00829061 0.0130888 0
-0.00790803 0.0117388 0
-0.00756298 0.010448 0
-0.00725045 0.00921099 0
-0.00696424 0.00802313 0
-0.00669611 0.00688085 0
-0.0064344 0.00578197 0
-0.00616204 0.00472636 0
-0.00585332 0.00371698 0
-0.0054691 0.00276173 0
-0.00494908 0.00187647 0
-0.00419981 0.00108576 0
-0.00307559 0.000438453 0
-0.00134752 7.9646e-05 0
0.71124 0.00406955 0
0.349258 0.0197058 0
0.138073 0.042208 0
0.0208676 0.0612837 0
-0.0405946 0.0753886 0
-0.0697627 0.084368 0
-0.0809678 0.089102 0
-0.082552 0.090603 0
-0.0792715 0.0898002 0
-0.0737841 0.0874394 0
-0.067537 0.0840826 0
-0.0612868 0.0801363 0
-0.0554018 0.0758857 0
-0.050036 0.0715256 0
-0.0452295 0.0671853 0
-0.0409641 0.0629479 0
-0.0371953 0.0588644 0
-0.0338692 0.0549637 0
-0.0309314 0.0512601 0
-0.0283312 0.0477581 0
-0.0260234 0.0444556 0
-0.0239687 0.0413469 0
-0.0221334 0.0384237 0
-0.0204889 0.0356763 0
-0.0190111 0.0330946 0
-0.0176796 0.0306679 0
-0.0164773 0.0283861 0
-0.0153897 0.0262389 0
-0.0144045 0.0242167 0
-0.0135114 0.0223101 0
-0.0127013 0.0205102 0
-0.0119668 0.0188087 0
-0.0113011 0.0171975 0
-0.0106984 0.0156692 0
-0.0101536 0.0142166 0
-0.00966158 0.0128331 0
-0.00921773 0.0115124 0
-0.008817 0.0102489 0
-0.0084537 0.00903731 0
-0.00812075 0.00787334 0
-0.00780873 0.00675349 0
-0.00750427 0.00567566 0
-0.00718772 0.00463974 0
-0.00682945 0.00364867 0
-0.00638402 0.00271033 0
-0.00578109 0.00184053 0
-0.00491094 0.00106382 0
-0.00360158 0.000428632 0
-0.00158157 7.74764e-05 0
0.720432 0.00285565 0
0.367321 0.0149492 0
0.156786 0.0332128 0
0.0364191 0.049517 0
-0.0293468 0.0623052 0
-0.0626717 0.0711631 0
-0.0773207 0.0765236 0
-0.0815335 0.0790633 0
-0.0801504 0.0794738 0
-0.0759687 0.0783501 0
-0.0705748 0.0761669 0
-0.0648445 0.0732867 0
-0.0592408 0.069978 0
-0.0539896 0.066435 0
-0.0491839 0.0627951 0
-0.044844 0.0591538 0
-0.0409525 0.0555754 0
-0.0374748 0.0521022 0
-0.0343695 0.0487603 0
-0.031595 0.045565 0
-0.0291122 0.0425234 0
-0.0268856 0.0396374 0
-0.0248843 0.0369052 0
-0.0230811 0.0343225 0
-0.0214529 0.0318836 0
-0.0199797 0.0295816 0
-0.0186445 0.0274091 0
-0.0174328 0.0253586 0
-0.0163321 0.0234223 0
-0.0153317 0.0215926 0
-0.0144225 0.019862 0
-0.0135964 0.0182233 0
-0.0128465 0.0166695 0
-0.0121666 0.0151938 0
-0.0115511 0.0137897 0
-0.0109946 0.0124513 0
-0.0104921 0.0111727 0
-0.0100379 0.0099487 0
-0.0096258 0.00877435 0
-0.0092479 0.00764552 0
-0.00889364 0.00655894 0
-0.008548 0.00551263 0
-0.00818883 0.00450654 0
-0.00778257 0.00354362 0
-0.0072776 0.00263165 0
-0.00659364 0.00178625 0
-0.00560501 0.00103158 0
-0.00411421 0.000414969 0
-0.00180896 7.47518e-05 0
0.727417 0.0020879 0
0.381709 0.0115881 0
0.172358 0.0264794 0
0.0499715 0.0403471 0
-0.0189655 0.0517283 0
-0.0555758 0.0601112 0
-0.0731022 0.0656493 0
-0.0796274 0.0687803 0
-0.0800037 0.0700067 0
-0.077105 0.069791 0
-0.0726105 0.0685224 0
-0.0674828 0.0665129 0
-0.0622584 0.0640039 0
-0.0572223 0.0611785 0
-0.0525129 0.0581726 0
-0.0481852 0.0550855 0
-0.0442478 0.0519887 0
-0.0406848 0.0489322 0
-0.0374689 0.0459508 0
-0.0345683 0.0430671 0
-0.031951 0.0402956 0
-0.0295868 0.0376442 0
-0.027448 0.0351167 0
-0.0255102 0.0327132 0
-0.0237518 0.0304321 0
-0.0221538 0.0282696 0
-0.0207 0.0262213 0
-0.0193763 0.0242817 0
-0.0181703 0.0224453 0
-0.0170714 0.020706 0
-0.0160704 0.0190576 0
-0.0151591 0.017494 0
-0.0143304 0.0160094 0
-0.013578 0.0145976 0
-0.0128958 0.013253 0
-0.0122784 0.0119701 0
-0.0117202 0.0107436 0
-0.0112152 0.00956858 0
-0.0107567 0.00844065 0
-0.010336 0.00735586 0
-0.00994147 0.00631117 0
-0.00955652 0.00530474 0
-0.00915655 0.00433661 0
-0.00870419 0.00340971 0
-0.00814176 0.00253169 0
-0.00737931 0.00171776 0
-0.00627575 0.000991404 0
-0.00460907 0.000398368 0
-0.00202799 7.15999e-05 0
0.732856 0.00158223 0
0.393292 0.00915441 0
0.185336 0.0213692 0
0.0616909 0.0331446 0
-0.00958029 0.0431639 0
-0.0487749 0.0508969 0
-0.0686763 0.0563292 0
-0.0771953 0.0597356 0
-0.0791548 0.0614738 0
-0.0774645 0.0618968 0
-0.0738615 0.0613177 0
-0.0693694 0.0599976 0
-0.0645798 0.0581476 0
-0.0598243 0.0559335 0
-0.0552793 0.0534836 0
-0.0510296 0.0508954 0
-0.047107 0.0482423 0
-0.0435135 0.0455784 0
-0.0402351 0.042943 0
-0.0372505 0.0403642 0
-0.0345352 0.0378613 0
-0.0320645 0.0354471 0
-0.0298152 0.0331295 0
-0.0277656 0.0309124 0
-0.0258964 0.0287974 0
-0.0241903 0.0267837 0
-0.0226322 0.0248691 0
-0.0212085 0.0230504 0
-0.0199077 0.0213237 0
-0.0187193 0.0196845 0
-0.0176342 0.0181278 0
-0.0166444 0.0166489 0
-0.0157428 0.0152424 0
-0.0149228 0.0139034 0
-0.0141784 0.0126268 0
-0.0135039 0.0114076 0
-0.0128934 0.0102412 0
-0.0123407 0.00912299 0
-0.0118384 0.00804896 0
-0.0113772 0.0070155 0
-0.0109446 0.00601977 0
-0.0105224 0.00506013 0
-0.0100837 0.00413668 0
-0.00958737 0.00325231 0
-0.00896993 0.00241445 0
-0.00813216 0.00163777 0
-0.0069182 0.000944838 0
-0.00508268 0.000379381 0
-0.00223733 6.80892e-05 0
0.737176 0.00123483 0
0.402713 0.00734981 0
0.196184 0.0174349 0
0.0717877 0.0274355 0
-0.00119943 0.0361915 0
-0.04243 0.0432093 0
-0.0642803 0.0483668 0
-0.074497 0.0518329 0
-0.0778541 0.0538575 0
-0.0772705 0.0547068 0
-0.074517 0.0546288 0
-0.0706585 0.0538392 0
-0.0663268 0.052518 0
-0.0618896 0.0508116 0
-0.0575534 0.0488372 0
-0.0534283 0.046687 0
-0.0495662 0.0444325 0
-0.0459851 0.0421286 0
-0.0426837 0.0398169 0
-0.0396504 0.0375283 0
-0.0368683 0.0352855 0
-0.0343188 0.0331043 0
-0.0319828 0.0309958 0
-0.0298423 0.0289669 0
-0.0278805 0.0270215 0
-0.026082 0.0251614 0
-0.0244332 0.0233864 0
-0.0229215 0.0216951 0
-0.0215361 0.0200849 0
-0.0202671 0.0185529 0
-0.0191058 0.0170952 0
-0.0180444 0.0157079 0
-0.0170758 0.0143868 0
-0.0161935 0.0131276 0
-0.0153915 0.0119257 0
-0.0146638 0.0107771 0
-0.0140046 0.00967725 0
-0.0134073 0.00862228 0
-0.0128641 0.00760841 0
-0.012365 0.00663237 0
-0.0118967 0.00569158 0
-0.0114395 0.00478455 0
-0.0109642 0.00391147 0
-0.0104263 0.00307515 0
-0.00975666 0.00228271 0
-0.00884726 0.00154814 0
-0.00752825 0.000892886 0
-0.00553218 0.00035836 0
-0.00243583 6.42599e-05 0
0.740664 0.000986419 0
0.410447 0.0059821 0
0.205288 0.0143636 0
0.0804707 0.0228681 0
0.00621704 0.0304831 0
-0.0366169 0.0367748 0
-0.0600629 0.0415638 0
-0.0717151 0.0449462 0
-0.0762902 0.0470933 0
-0.0767007 0.0482047 0
-0.0747352 0.0484753 0
-0.0714852 0.0480809 0
-0.0676113 0.0471731 0
-0.0635081 0.0458787 0
-0.0594063 0.0443024 0
-0.0554362 0.0425286 0
-0.0516667 0.0406249 0
-0.04813 0.0386447 0
-0.0448362 0.0366297 0
-0.0417825 0.0346119 0
-0.0389596 0.0326156 0
-0.0363545 0.0306587 0
-0.0339528 0.0287543 0
-0.0317399 0.0269115 0
-0.0297018 0.025136 0
-0.0278254 0.0234313 0
-0.0260985 0.0217989 0
-0.0245099 0.0202387 0
-0.0230498 0.0187497 0
-0.0217089 0.0173298 0
-0.020479 0.0159763 0
-0.0193527 0.0146863 0
-0.018323 0.0134561 0
-0.0173837 0.0122822 0
-0.0165288 0.0111609 0
-0.0157523 0.0100882 0
-0.015048 0.00906053 0
-0.0144094 0.00807416 0
-0.0138281 0.00712577 0
-0.0132939 0.00621238 0
-0.0127923 0.00533166 0
-0.0123024 0.00448227 0
-0.0117929 0.00366447 0
-0.011216 0.00288095 0
-0.0104973 0.00213846 0
-0.00952042 0.00145017 0
-0.00810242 0.000836252 0
-0.0059551 0.000335545 0
-0.00262251 6.01397e-05 0
0.743519 0.000802236 0
0.416853 0.00492413 0
0.212959 0.0119323 0
0.0879331 0.0191763 0
0.0127245 0.0257859 0
-0.0313651 0.031367 0
-0.0561155 0.0357398 0
-0.0689757 0.0389444 0
-0.074603 0.0410964 0
-0.0758945 0.0423448 0
-0.0746457 0.0428423 0
-0.0719649 0.0427309 0
-0.0685324 0.0421371 0
-0.064763 0.0411694 0
-0.0609058 0.0399195 0
-0.0571076 0.0384632 0
-0.0534514 0.036863 0
-0.0499813 0.035169 0
-0.0467173 0.0334216 0
-0.0436651 0.0316526 0
-0.0408219 0.0298865 0
-0.0381803 0.0281424 0
-0.0357302 0.0264344 0
-0.0334608 0.0247728 0
-0.0313607 0.0231647 0
-0.0294192 0.0216149 0
-0.0276257 0.0201259 0
-0.0259706 0.018699 0
-0.0244449 0.0173339 0
-0.0230403 0.0160296 0
-0.0217492 0.0147844 0
-0.0205645 0.0135957 0
-0.0194797 0.0124609 0
-0.0184886 0.011377 0
-0.0175854 0.0103407 0
-0.0167641 0.00934874 0
-0.0160186 0.0083978 0
-0.0153419 0.00748468 0
-0.0147257 0.00660634 0
-0.014159 0.00576012 0
-0.0136267 0.00494393 0
-0.0131065 0.00415659 0
-0.0125654 0.00339836 0
-0.0119522 0.00267179 0
-0.0111878 0.00198319 0
-0.010148 0.00134483 0
-0.00863766 0.000775465 0
-0.00634929 0.000311121 0
-0.00279645 5.57505e-05 0
0.74588 0.000661044 0
0.422195 0.00408899 0
0.219447 0.00997759 0
0.0943471 0.0161546 0
0.0184171 0.0218785 0
-0.0266713 0.0267941 0
-0.0524901 0.0307329 0
-0.0663648 0.0337008 0
-0.0728953 0.0357751 0
-0.0749596 0.0370669 0
-0.0743532 0.0376954 0
-0.0721938 0.0377755 0
-0.0691758 0.0374117 0
-0.0657282 0.0366963 0
-0.0621145 0.0357085 0
-0.0584943 0.0345156 0
-0.0549623 0.0331737 0
-0.0515724 0.0317294 0
-0.0483534 0.0302203 0
-0.0453183 0.028677 0
-0.0424702 0.0271236 0
-0.039807 0.025579 0
-0.0373226 0.0240579 0
-0.0350097 0.022571 0
-0.0328598 0.0211262 0
-0.0308642 0.0197291 0
-0.0290143 0.018383 0
-0.0273019 0.0170899 0
-0.0257191 0.0158504 0
-0.0242584 0.0146641 0
-0.0229129 0.0135298 0
-0.021676 0.0124458 0
-0.0205416 0.0114099 0
-0.0195039 0.0104196 0
-0.0185569 0.00947222 0
-0.0176951 0.00856487 0
-0.016912 0.00769466 0
-0.0162007 0.00685875 0
-0.0155526 0.00605445 0
-0.0149562 0.00527937 0
-0.0143957 0.00453163 0
-0.0138479 0.00381018 0
-0.0132776 0.0031153 0
-0.0126311 0.00244936 0
-0.0118245 0.00181814 0
-0.0107268 0.00123294 0
-0.0091313 0.000710949 0
-0.00671283 0.000285238 0
-0.00295686 5.11123e-05 0
0.747849 0.000549617 0
0.426675 0.00341719 0
0.224947 0.00838245 0
0.0998548 0.0136515 0
0.0233742 0.0185947 0
-0.0225147 0.0228963 0
-0.0492122 0.0264023 0
-0.0639383 0.0290994 0
-0.0712413 0.0310391 0
-0.0739781 0.0323048 0
-0.0739405 0.03299 0
-0.0722514 0.0331875 0
-0.0696141 0.032984 0
-0.0664684 0.0324571 0
-0.0630883 0.031675 0
-0.0596438 0.0306966 0
-0.0562388 0.0295718 0
-0.0529357 0.0283425 0
-0.0497705 0.0270434 0
-0.0467625 0.0257031 0
-0.0439204 0.0243444 0
-0.0412464 0.0229856 0
-0.0387386 0.021641 0
-0.0363926 0.0203213 0
-0.0342027 0.0190348 0
-0.0321624 0.0177873 0
-0.0302649 0.0165825 0
-0.0285033 0.0154229 0
-0.0268708 0.0143095 0
-0.0253609 0.0132425 0
-0.0239674 0.0122212 0
-0.0226843 0.0112443 0
-0.0215057 0.0103101 0
-0.0204261 0.00941656 0
-0.01944 0.00856131 0
-0.0185415 0.00774192 0
-0.0177246 0.00695586 0
-0.016982 0.00620063 0
-0.016305 0.00547383 0
-0.0156818 0.00477335 0
-0.0150958 0.00409751 0
-0.0145228 0.00344536 0
-0.0139261 0.00281717 0
-0.0132493 0.00221509 0
-0.0124045 0.00164435 0
-0.0112539 0.00111515 0
-0.00958094 0.000643077 0
-0.00704398 0.000258032 0
-0.00310299 4.62446e-05 0
0.749498 0.000459455 0
0.430446 0.00286718 0
0.229616 0.00706183 0
0.104577 0.0115527 0
0.0276708 0.0158062 0
-0.0188659 0.0195441 0
-0.0462897 0.0226288 0
-0.0617316 0.0250372 0
-0.0696934 0.0268039 0
-0.0730119 0.0279923 0
-0.0734731 0.0286767 0
-0.0722022 0.0289326 0
-0.0699083 0.0288317 0
-0.067039 0.0284396 0
-0.0638766 0.0278145 0
-0.0605989 0.0270074 0
-0.0573175 0.0260623 0
-0.0541016 0.0250164 0
-0.0509935 0.0239011 0
-0.0480179 0.0227422 0
-0.0451882 0.0215609 0