# vtk DataFile Version 3.0
Malha 2D com triângulos: velocidade e pressão
ASCII
DATASET UNSTRUCTURED_GRID

POINTS 2500 double
0 0 0
1 0 0
1 1 0
0 1 0
0.0204082 0 0
0.0408163 0 0
0.0612245 0 0
0.0816327 0 0
0.102041 0 0
0.122449 0 0
0.142857 0 0
0.163265 0 0
0.183673 0 0
0.204082 0 0
0.22449 0 0
0.244898 0 0
0.265306 0 0
0.285714 0 0
0.306122 0 0
0.326531 0 0
0.346939 0 0
0.367347 0 0
0.387755 0 0
0.408163 0 0
0.428571 0 0
0.44898 0 0
0.469388 0 0
0.489796 0 0
0.510204 0 0
0.530612 0 0
0.55102 0 0
0.571429 0 0
0.591837 0 0
0.612245 0 0
0.632653 0 0
0.653061 0 0
0.673469 0 0
0.693878 0 0
0.714286 0 0
0.734694 0 0
0.755102 0 0
0.77551 0 0
0.795918 0 0
0.816327 0 0
0.836735 0 0
0.857143 0 0
0.877551 0 0
0.897959 0 0
0.918367 0 0
0.938776 0 0
0.959184 0 0
0.979592 0 0
1 0.0204082 0
1 0.0408163 0
1 0.0612245 0
1 0.0816327 0
1 0.102041 0
1 0.122449 0
1 0.142857 0
1 0.163265 0
1 0.183673 0
1 0.204082 0
1 0.22449 0
1 0.244898 0
1 0.265306 0
1 0.285714 0
1 0.306122 0
1 0.326531 0
1 0.346939 0
1 0.367347 0
1 0.387755 0
1 0.408163 0
1 0.428571 0
1 0.44898 0
1 0.469388 0
1 0.489796 0
1 0.510204 0
1 0.530612 0
1 0.55102 0
1 0.571429 0
1 0.591837 0
1 0.612245 0
1 0.632653 0
1 0.653061 0
1 0.673469 0
1 0.693878 0
1 0.714286 0
1 0.734694 0
1 0.755102 0
1 0.77551 0
1 0.795918 0
1 0.816327 0
1 0.836735 0
1 0.857143 0
1 0.877551 0
1 0.897959 0
1 0.918367 0
1 0.938776 0
1 0.959184 0
1 0.979592 0
0.979592 1 0
0.959184 1 0
0.938776 1 0
0.918367 1 0
0.897959 1 0
0.877551 1 0
0.857143 1 0
0.836735 1 0
0.816327 1 0
0.795918 1 0
0.77551 1 0
0.755102 1 0
0.734694 1 0
0.714286 1 0
0.693878 1 0
0.673469 1 0
0.653061 1 0
0.632653 1 0
0.612245 1 0
0.591837 1 0
0.571429 1 0
0.55102 1 0
0.530612 1 0
0.510204 1 0
0.489796 1 0
0.469388 1 0
0.44898 1 0
0.428571 1 0
0.408163 1 0
0.387755 1 0
0.367347 1 0
0.346939 1 0
0.326531 1 0
0.306122 1 0
0.285714 1 0
0.265306 1 0
0.244898 1 0
0.22449 1 0
0.204082 1 0
0.183673 1 0
0.163265 1 0
0.142857 1 0
0.122449 1 0
0.102041 1 0
0.0816327 1 0
0.0612245 1 0
0.0408163 1 0
0.0204082 1 0
0 0.979592 0
0 0.959184 0
0 0.938776 0
0 0.918367 0
0 0.897959 0
0 0.877551 0
0 0.857143 0
0 0.836735 0
0 0.816327 0
0 0.795918 0
0 0.77551 0
0 0.755102 0
0 0.734694 0
0 0.714286 0
0 0.693878 0
0 0.673469 0
0 0.653061 0
0 0.632653 0
0 0.612245 0
0 0.591837 0
0 0.571429 0
0 0.55102 0
0 0.530612 0
0 0.510204 0
0 0.489796 0
0 0.469388 0
0 0.44898 0
0 0.428571 0
0 0.408163 0
0 0.387755 0
0 0.367347 0
0 0.346939 0
0 0.326531 0
0 0.306122 0
0 0.285714 0
0 0.265306 0
0 0.244898 0
0 0.22449 0
0 0.204082 0
0 0.183673 0
0 0.163265 0
0 0.142857 0
0 0.122449 0
0 0.102041 0
0 0.0816327 0
0 0.0612245 0
0 0.0408163 0
0 0.0204082 0
0.0204082 0.979592 0
0.0204082 0.959184 0
0.0204082 0.938776 0
0.0204082 0.918367 0
0.0204082 0.897959 0
0.0204082 0.877551 0
0.0204082 0.857143 0
0.0204082 0.836735 0
0.0204082 0.816327 0
0.0204082 0.795918 0
0.0204082 0.77551 0
0.0204082 0.755102 0
0.0204082 0.734694 0
0.0204082 0.714286 0
0.0204082 0.693878 0
0.0204082 0.673469 0
0.0204082 0.653061 0
0.0204082 0.632653 0
0.0204082 0.612245 0
0.0204082 0.591837 0
0.0204082 0.571429 0
0.0204082 0.55102 0
0.0204082 0.530612 0
0.0204082 0.510204 0
0.0204082 0.489796 0
0.0204082 0.469388 0
0.0204082 0.44898 0
0.0204082 0.428571 0
0.0204082 0.408163 0
0.0204082 0.387755 0
0.0204082 0.367347 0
0.0204082 0.346939 0
0.0204082 0.326531 0
0.0204082 0.306122 0
0.0204082 0.285714 0
0.0204082 0.265306 0
0.0204082 0.244898 0
0.0204082 0.22449 0
0.0204082 0.204082 0
0.0204082 0.183673 0
0.0204082 0.163265 0
0.0204082 0.142857 0
0.0204082 0.122449 0
0.0204082 0.102041 0
0.0204082 0.0816327 0
0.0204082 0.0612245 0
0.0204082 0.0408163 0
0.0204082 0.0204082 0
0.0408163 0.979592 0
0.0408163 0.959184 0
0.0408163 0.938776 0
0.0408163 0.918367 0
0.0408163 0.897959 0
0.0408163 0.877551 0
0.0408163 0.857143 0
0.0408163 0.836735 0
0.0408163 0.816327 0
0.0408163 0.795918 0
0.0408163 0.77551 0
0.0408163 0.755102 0
0.0408163 0.734694 0
0.0408163 0.714286 0
0.0408163 0.693878 0
0.0408163 0.673469 0
0.0408163 0.653061 0
0.0408163 0.632653 0
0.0408163 0.612245 0
0.0408163 0.591837 0
0.0408163 0.571429 0
0.0408163 0.55102 0
0.0408163 0.530612 0
0.0408163 0.510204 0
0.0408163 0.489796 0
0.0408163 0.469388 0
0.0408163 0.44898 0
0.0408163 0.428571 0
0.0408163 0.408163 0
0.0408163 0.387755 0
0.0408163 0.367347 0
0.0408163 0.346939 0
0.0408163 0.326531 0
0.0408163 0.306122 0
0.0408163 0.285714 0
0.0408163 0.265306 0
0.0408163 0.244898 0
0.0408163 0.22449 0
0.0408163 0.204082 0
0.0408163 0.183673 0
0.0408163 0.163265 0
0.0408163 0.142857 0
0.0408163 0.122449 0
0.0408163 0.102041 0
0.0408163 0.0816327 0
0.0408163 0.0612245 0
0.0408163 0.0408163 0
0.0408163 0.0204082 0
0.0612245 0.979592 0
0.0612245 0.959184 0
0.0612245 0.938776 0
0.0612245 0.918367 0
0.0612245 0.897959 0
0.0612245 0.877551 0
0.0612245 0.857143 0
0.0612245 0.836735 0
0.0612245 0.816327 0
0.0612245 0.795918 0
0.0612245 0.77551 0
0.0612245 0.755102 0
0.0612245 0.734694 0
0.0612245 0.714286 0
0.0612245 0.693878 0
0.0612245 0.673469 0
0.0612245 0.653061 0
0.0612245 0.632653 0
0.0612245 0.612245 0
0.0612245 0.591837 0
0.0612245 0.571429 0
0.0612245 0.55102 0
0.0612245 0.530612 0
0.0612245 0.510204 0
0.0612245 0.489796 0
0.0612245 0.469388 0
0.0612245 0.44898 0
0.0612245 0.428571 0
0.0612245 0.408163 0
0.0612245 0.387755 0
0.0612245 0.367347 0
0.0612245 0.346939 0
0.0612245 0.326531 0
0.0612245 0.306122 0
0.0612245 0.285714 0
0.0612245 0.265306 0
0.0612245 0.244898 0
0.0612245 0.22449 0
0.0612245 0.204082 0
0.0612245 0.183673 0
0.0612245 0.163265 0
0.0612245 0.142857 0
0.0612245 0.122449 0
0.0612245 0.102041 0
0.0612245 0.0816327 0
0.0612245 0.0612245 0
0.0612245 0.0408163 0
0.0612245 0.0204082 0
0.0816327 0.979592 0
0.0816327 0.959184 0
0.0816327 0.938776 0
0.0816327 0.918367 0
0.0816327 0.897959 0
0.0816327 0.877551 0
0.0816327 0.857143 0
0.0816327 0.836735 0
0.0816327 0.816327 0
0.0816327 0.795918 0
0.0816327 0.77551 0
0.0816327 0.755102 0
0.0816327 0.734694 0
0.0816327 0.714286 0
0.0816327 0.693878 0
0.0816327 0.673469 0
0.0816327 0.653061 0
0.0816327 0.632653 0
0.0816327 0.612245 0
0.0816327 0.591837 0
0.0816327 0.571429 0
0.0816327 0.55102 0
0.0816327 0.530612 0
0.0816327 0.510204 0
0.0816327 0.489796 0
0.0816327 0.469388 0
0.0816327 0.44898 0
0.0816327 0.428571 0
0.0816327 0.408163 0
0.0816327 0.387755 0
0.0816327 0.367347 0
0.0816327 0.346939 0
0.0816327 0.326531 0
0.0816327 0.306122 0
0.0816327 0.285714 0
0.0816327 0.265306 0
0.0816327 0.244898 0
0.0816327 0.22449 0
0.0816327 0.204082 0
0.0816327 0.183673 0
0.0816327 0.163265 0
0.0816327 0.142857 0
0.0816327 0.122449 0
0.0816327 0.102041 0
0.0816327 0.0816327 0
0.0816327 0.0612245 0
0.0816327 0.0408163 0
0.0816327 0.0204082 0
0.102041 0.979592 0
0.102041 0.959184 0
0.102041 0.938776 0
0.102041 0.918367 0
0.102041 0.897959 0
0.102041 0.877551 0
0.102041 0.857143 0
0.102041 0.836735 0
0.102041 0.816327 0
0.102041 0.795918 0
0.102041 0.77551 0
0.102041 0.755102 0
0.102041 0.734694 0
0.102041 0.714286 0
0.102041 0.693878 0
0.102041 0.673469 0
0.102041 0.653061 0
0.102041 0.632653 0
0.102041 0.612245 0
0.102041 0.591837 0
0.102041 0.571429 0
0.102041 0.55102 0
0.102041 0.530612 0
0.102041 0.510204 0
0.102041 0.489796 0
0.102041 0.469388 0
0.102041 0.44898 0
0.102041 0.428571 0
0.102041 0.408163 0
0.102041 0.387755 0
0.102041 0.367347 0
0.102041 0.346939 0
0.102041 0.326531 0
0.102041 0.306122 0
0.102041 0.285714 0
0.102041 0.265306 0
0.102041 0.244898 0
0.102041 0.22449 0
0.102041 0.204082 0
0.102041 0.183673 0
0.102041 0.163265 0
0.102041 0.142857 0
0.102041 0.122449 0
0.102041 0.102041 0
0.102041 0.0816327 0
0.102041 0.0612245 0
0.102041 0.0408163 0
0.102041 0.0204082 0
0.122449 0.979592 0
0.122449 0.959184 0
0.122449 0.938776 0
0.122449 0.918367 0
0.122449 0.897959 0
0.122449 0.877551 0
0.122449 0.857143 0
0.122449 0.836735 0
0.122449 0.816327 0
0.122449 0.795918 0
0.122449 0.77551 0
0.122449 0.755102 0
0.122449 0.734694 0
0.122449 0.714286 0
0.122449 0.693878 0
0.122449 0.673469 0
0.122449 0.653061 0
0.122449 0.632653 0
0.122449 0.612245 0
0.122449 0.591837 0
0.122449 0.571429 0
0.122449 0.55102 0
0.122449 0.530612 0
0.122449 0.510204 0
0.122449 0.489796 0
0.122449 0.469388 0
0.122449 0.44898 0
0.122449 0.428571 0
0.122449 0.408163 0
0.122449 0.387755 0
0.122449 0.367347 0
0.122449 0.346939 0
0.122449 0.326531 0
0.122449 0.306122 0
0.122449 0.285714 0
0.122449 0.265306 0
0.122449 0.244898 0
0.122449 0.22449 0
0.122449 0.204082 0
0.122449 0.183673 0
0.122449 0.163265 0
0.122449 0.142857 0
0.122449 0.122449 0
0.122449 0.102041 0
0.122449 0.0816327 0
0.122449 0.0612245 0
0.122449 0.0408163 0
0.122449 0.0204082 0
0.142857 0.979592 0
0.142857 0.959184 0
0.142857 0.938776 0
0.142857 0.918367 0
0.142857 0.897959 0
0.142857 0.877551 0
0.142857 0.857143 0
0.142857 0.836735 0
0.142857 0.816327 0
0.142857 0.795918 0
0.142857 0.77551 0
0.142857 0.755102 0
0.142857 0.734694 0
0.142857 0.714286 0
0.142857 0.693878 0
0.142857 0.673469 0
0.142857 0.653061 0
0.142857 0.632653 0
0.142857 0.612245 0
0.142857 0.591837 0
0.142857 0.571429 0
0.142857 0.55102 0
0.142857 0.530612 0
0.142857 0.510204 0
0.142857 0.489796 0
0.142857 0.469388 0
0.142857 0.44898 0
0.142857 0.428571 0
0.142857 0.408163 0
0.142857 0.387755 0
0.142857 0.367347 0
0.142857 0.346939 0
0.142857 0.326531 0
0.142857 0.306122 0
0.142857 0.285714 0
0.142857 0.265306 0
0.142857 0.244898 0
0.142857 0.22449 0
0.142857 0.204082 0
0.142857 0.183673 0
0.142857 0.163265 0
0.142857 0.142857 0
0.142857 0.122449 0
0.142857 0.102041 0
0.142857 0.0816327 0
0.142857 0.0612245 0
0.142857 0.0408163 0
0.142857 0.0204082 0
0.163265 0.979592 0
0.163265 0.959184 0
0.163265 0.938776 0
0.163265 0.918367 0
0.163265 0.897959 0
0.163265 0.877551 0
0.163265 0.857143 0
0.163265 0.836735 0
0.163265 0.816327 0
0.163265 0.795918 0
0.163265 0.77551 0
0.163265 0.755102 0
0.163265 0.734694 0
0.163265 0.714286 0
0.163265 0.693878 0
0.163265 0.673469 0
0.163265 0.653061 0
0.163265 0.632653 0
0.163265 0.612245 0
0.163265 0.591837 0
0.163265 0.571429 0
0.163265 0.55102 0
[...]
CELL_DATA 2401
VECTORS velocity double
0.257356 0.157464 0
-0.00270276 0.264594 0
-0.0323066 0.205484 0
-0.0253828 0.150617 0
-0.0160624 0.11308 0
-0.00970727 0.0877112 0
-0.00593493 0.0706162 0
-0.00375242 0.0588915 0
-0.00247085 0.0506313 0
-0.00169432 0.0446518 0
-0.00120703 0.0402076 0
-0.000891729 0.0368157 0
-0.000683192 0.0341541 0
-0.00054364 0.0320017 0
-0.000450178 0.0302034 0
-0.000388289 0.0286485 0
-0.000348384 0.0272575 0
-0.000323892 0.0259728 0
-0.000310172 0.0247531 0
-0.000303854 0.023569 0
-0.000302439 0.0224005 0
-0.000304042 0.0212344 0
-0.000307225 0.020063 0
-0.000310891 0.0188828 0
-0.000314207 0.0176935 0
-0.000316553 0.0164973 0
-0.000317484 0.0152982 0
-0.000316698 0.0141015 0
-0.000314012 0.0129135 0
-0.000309343 0.0117406 0
-0.000302681 0.0105898 0
-0.000294078 0.00946799 0
-0.000283624 0.00838167 0
-0.000271439 0.00733719 0
-0.000257648 0.0063405 0
-0.000242377 0.0053971 0
-0.000225733 0.00451215 0
-0.000207797 0.00369044 0
-0.000188608 0.00293653 0
-0.000168156 0.0022548 0
-0.000146365 0.00164963 0
-0.000123086 0.00112544 0
-9.81046e-05 0.00068682 0
-7.11825e-05 0.000338453 0
-4.22212e-05 8.47787e-05 0
-1.1749e-05 -7.10195e-05 0
1.78258e-05 -0.000129312 0
3.96293e-05 -0.000102545 0
3.54944e-05 -3.53176e-05 0
0.340611 0.122961 0
-0.000637394 0.249434 0
-0.0652371 0.271662 0
-0.0632741 0.252216 0
-0.0485531 0.221702 0
-0.0350095 0.191813 0
-0.0249689 0.166354 0
-0.0179501 0.145828 0
-0.0131088 0.129624 0
-0.00975858 0.11689 0
-0.00742152 0.106831 0
-0.00577973 0.0987863 0
-0.00462263 0.0922365 0
-0.00380874 0.0867809 0
-0.00324103 0.0821148 0
-0.00285149 0.0780072 0
-0.0025914 0.0742844 0
-0.00242515 0.0708168 0
-0.00232627 0.067509 0
-0.00227472 0.064292 0
-0.0022552 0.0611176 0
-0.00225586 0.0579542 0
-0.00226752 0.0547829 0
-0.00228306 0.0515951 0
-0.00229703 0.0483898 0
-0.00230531 0.0451724 0
-0.00230491 0.0419527 0
-0.00229375 0.0387437 0
-0.0022705 0.0355607 0
-0.00223449 0.0324202 0
-0.00218551 0.0293394 0
-0.00212375 0.0263354 0
-0.00204967 0.0234251 0
-0.0019639 0.0206246 0
-0.00186716 0.0179492 0
-0.0017602 0.0154132 0
-0.00164368 0.0130301 0
-0.00151817 0.0108125 0
-0.00138408 0.00877217 0
-0.00124164 0.00692051 0
-0.0010909 0.00526831 0
-0.000931805 0.00382599 0
-0.000764358 0.00260337 0
-0.000589059 0.00160912 0
-0.00040781 0.000849401 0
-0.000225959 0.000325353 0
-5.64913e-05 2.81957e-05 0
7.29193e-05 -7.1338e-05 0
0.000102025 -3.85499e-05 0
0.500884 0.0767996 0
0.0991068 0.183239 0
-0.0393504 0.249264 0
-0.0734502 0.265755 0
-0.0719485 0.257439 0
-0.0606772 0.239619 0
-0.0484518 0.219562 0
-0.0379047 0.200555 0
-0.0295224 0.183811 0
-0.0231022 0.169544 0
-0.0182788 0.157542 0
-0.0147 0.147443 0
-0.012073 0.138867 0
-0.0101679 0.131468 0
-0.00880805 0.12495 0
-0.00785823 0.119071 0
-0.00721519 0.113638 0
-0.0067995 0.108503 0
-0.00654967 0.103553 0
-0.00641778 0.0987033 0
-0.00636625 0.0938965 0
-0.0063655 0.0890939 0
-0.00639228 0.0842735 0
-0.00642838 0.0794262 0
-0.00645971 0.0745533 0
-0.00647561 0.069664 0
-0.00646822 0.0647737 0
-0.00643209 0.0599019 0
-0.00636369 0.0550711 0
-0.00626114 0.0503057 0
-0.00612381 0.0456306 0
-0.00595209 0.0410711 0
-0.00574708 0.0366516 0
-0.00551034 0.0323958 0
-0.00524371 0.028326 0
-0.00494908 0.0244635 0
-0.00462823 0.0208279 0
-0.00428277 0.0174378 0
-0.00391397 0.0143105 0
-0.00352285 0.0114622 0
-0.00311021 0.00890838 0
-0.00267692 0.00666302 0
-0.00222449 0.00473871 0
-0.00175619 0.00314553 0
-0.00127913 0.00188928 0
-0.000808152 0.000968639 0
-0.00037284 0.000369488 0
-2.72084e-05 5.77785e-05 0
0.000126501 -1.596e-05 0
0.610038 0.0480418 0
0.195667 0.133979 0
0.0113519 0.209458 0
-0.0581067 0.246471 0
-0.0761774 0.256989 0
-0.0738653 0.253512 0
-0.064621 0.243222 0
-0.0540565 0.23037 0
-0.0443474 0.217213 0
-0.036183 0.204807 0
-0.0296348 0.193547 0
-0.0245395 0.183478 0
-0.0206663 0.174487 0
-0.0177846 0.16639 0
-0.01569 0.158995 0
-0.0142099 0.152121 0
-0.0132026 0.145611 0
-0.0125529 0.139339 0
-0.0121677 0.133204 0
-0.0119721 0.12713 0
-0.0119057 0.121065 0
-0.0119203 0.114976 0
-0.0119771 0.108845 0
-0.0120456 0.102668 0
-0.0121018 0.0964526 0
-0.0121277 0.0902132 0
-0.0121099 0.0839711 0
-0.0120389 0.0777525 0
-0.0119088 0.0715861 0
-0.0117164 0.0655027 0
-0.0114606 0.0595337 0
-0.0111421 0.0537101 0
-0.0107628 0.0480626 0
-0.0103257 0.0426201 0
-0.00983386 0.0374105 0
-0.00929075 0.0324597 0
-0.00869965 0.0277921 0
-0.00806356 0.0234304 0
-0.00738512 0.0193958 0
-0.00666665 0.0157078 0
-0.00591033 0.0123845 0
-0.00511883 0.00944229 0
-0.00429619 0.00689512 0
-0.00344968 0.00475363 0
-0.00259278 0.00302347 0
-0.00175038 0.00170304 0
-0.000967181 0.000777879 0
-0.00031809 0.000218814 0
6.70423e-05 1.31905e-05 0
0.680429 0.0301537 0
0.278436 0.0981924 0
0.0695669 0.171 0
-0.0275766 0.217497 0
-0.0653945 0.240931 0
-0.0748591 0.249374 0
-0.0718179 0.248747 0
-0.0640243 0.243153 0
-0.0551402 0.23517 0
-0.0467957 0.226291 0
-0.039621 0.217316 0
-0.0337666 0.208628 0
-0.0291654 0.200361 0
-0.0256629 0.192517 0
-0.0230806 0.185036 0
-0.0212453 0.177826 0
-0.0200008 0.170799 0
-0.019212 0.16387 0
-0.0187645 0.156971 0
-0.0185624 0.150052 0
-0.0185267 0.143078 0
-0.0185925 0.136028 0
-0.0187069 0.128898 0
-0.018828 0.121694 0
-0.0189224 0.114429 0
-0.018965 0.107128 0
-0.0189369 0.0998177 0
-0.0188251 0.0925319 0
-0.0186214 0.0853051 0
-0.0183215 0.0781736 0
-0.0179241 0.0711741 0
-0.0174307 0.0643424 0
-0.0168444 0.0577136 0
-0.0161694 0.0513208 0
-0.0154107 0.0451956 0
-0.0145737 0.0393672 0
-0.0136633 0.0338631 0
-0.0126845 0.0287088 0
-0.0116416 0.0239277 0
-0.0105385 0.0195416 0
-0.00937954 0.0155702 0
-0.00816958 0.0120311 0
-0.0069158 0.00893914 0
-0.00562981 0.00630571 0
-0.00433124 0.00413749 0
-0.00305345 0.00243529 0
-0.00185212 0.00118872 0
-0.000814831 0.000379732 0
-8.31102e-05 4.11962e-05 0
0.729826 0.0191794 0
0.348962 0.0730422 0
0.127865 0.139292 0
0.0111228 0.188242 0
-0.0444621 0.219557 0
-0.0662311 0.236618 0
-0.0709377 0.243966 0
-0.0676693 0.24507 0
-0.0612185 0.242392 0
-0.0540319 0.237543 0
-0.0472872 0.231526 0
-0.0414836 0.224929 0
-0.0367654 0.218073 0
-0.0330997 0.211114 0
-0.0303725 0.204111 0
-0.0284397 0.197069 0
-0.0271535 0.189968 0
-0.0263753 0.18278 0
-0.0259808 0.175478 0
-0.0258618 0.168042 0
-0.0259261 0.160463 0
-0.0260965 0.152741 0
-0.026309 0.144887 0
-0.0265122 0.136918 0
-0.0266652 0.128862 0
-0.0267365 0.12075 0
-0.0267031 0.112619 0
-0.0265491 0.104508 0
-0.0262647 0.0964589 0
-0.025845 0.0885123 0
-0.0252894 0.0807097 0
-0.0246002 0.073091 0
-0.0237821 0.0656945 0
-0.0228415 0.0585563 0
-0.0217853 0.0517105 0
-0.0206211 0.0451886 0
-0.0193561 0.0390197 0
-0.0179971 0.033231 0
-0.0165505 0.0278473 0
-0.0150225 0.0228911 0
-0.0134194 0.0183832 0
-0.0117486 0.014342 0
-0.0100204 0.0107831 0
-0.00825033 0.00771931 0
-0.00646283 0.00515967 0
-0.00469707 0.00310965 0
-0.0030147 0.00156603 0
-0.00150784 0.000525015 0
-0.000316731 6.52172e-05 0
0.76583 0.0125774 0
0.408375 0.0556871 0
0.18282 0.114507 0
0.05259 0.162562 0
-0.0173376 0.197679 0
-0.0506095 0.220484 0
-0.0634827 0.233819 0
-0.0656644 0.240451 0
-0.0627035 0.242515 0
-0.0576804 0.241547 0
-0.0522443 0.238593 0
-0.0472233 0.234342 0
-0.0429809 0.229225 0
-0.0396243 0.223506 0
-0.0371249 0.217338 0
-0.0353876 0.210807 0
-0.0342896 0.203957 0
-0.0337023 0.196814 0
-0.0335022 0.189392 0
-0.0335771 0.181708 0
-0.0338278 0.173778 0
-0.0341695 0.165625 0
-0.0345309 0.157277 0
-0.0348537 0.14877 0
-0.0350916 0.14014 0
-0.0352089 0.131432 0
-0.0351796 0.122689 0
-0.0349863 0.113959 0
-0.0346184 0.105289 0
-0.0340716 0.0967259 0
-0.0333464 0.0883139 0
-0.0324468 0.0800967 0
-0.0313798 0.0721154 0
-0.030154 0.064408 0
-0.0287791 0.0570101 0
-0.027265 0.0499544 0
-0.0256213 0.0432711 0
-0.0238574 0.0369877 0
-0.0219818 0.0311293 0
-0.0200027 0.0257191 0
-0.0179288 0.0207779 0
-0.0157698 0.0163248 0
-0.0135384 0.0123764 0
-0.011253 0.00894739 0
-0.00894124 0.00605036 0
-0.00664476 0.00369686 0
-0.00442628 0.00189252 0
-0.00237551 0.000648473 0
-0.00062219 8.46381e-05 0
0.792856 0.00859145 0
0.458405 0.0436 0
0.233259 0.0953449 0
0.094189 0.140988 0
0.0134357 0.177174 0
-0.030191 0.203595 0
-0.0510366 0.221196 0
-0.0590213 0.232124 0
-0.0601537 0.238135 0
-0.0579726 0.240592 0
-0.0545038 0.240498 0
-0.050859 0.238558 0
-0.0476049 0.23526 0
-0.0449881 0.23093 0
-0.0430725 0.225785 0
-0.0418215 0.219972 0
-0.0411474 0.213588 0
-0.0409407 0.206704 0
-0.0410873 0.199374 0
-0.041477 0.191646 0
-0.0420098 0.183565 0
-0.0425975 0.175174 0
-0.043165 0.166523 0
-0.0436504 0.157661 0
-0.0440042 0.148639 0
-0.0441885 0.139511 0
-0.0441763 0.130331 0
-0.0439498 0.121154 0
-0.0434992 0.112033 0
-0.0428215 0.103019 0
-0.0419194 0.0941612 0
-0.0407996 0.0855054 0
-0.0394717 0.0770946 0
-0.0379475 0.0689687 0
-0.0362395 0.0611637 0
-0.0343606 0.0537129 0
-0.0323233 0.0466464 0
-0.0301393 0.0399915 0
-0.0278194 0.0337732 0
-0.0253741 0.0280142 0
-0.0228139 0.0227355 0
-0.0201502 0.0179564 0
-0.0173977 0.0136947 0
-0.0145761 0.00996741 0
-0.0117138 0.0067912 0
-0.00885213 0.00418438 0
-0.00605046 0.00216179 0
-0.00339081 0.000748643 0
-0.000986592 9.97074e-05 0
0.813851 0.00614266 0
0.500861 0.035035 0
0.279032 0.0805286 0
0.13447 0.123191 0
0.0453744 0.159113 0
-0.00675801 0.187275 0
-0.0349954 0.207781 0
-0.048763 0.221894 0
-0.0542628 0.231032 0
-0.0553352 0.236355 0
-0.0542894 0.238768 0
-0.0524683 0.23895 0
-0.0506144 0.237395 0
-0.049102 0.234461 0
-0.0480846 0.230405 0
-0.0475862 0.22541 0
-0.0475585 0.219616 0
-0.0479167 0.213129 0
-0.0485606 0.206036 0
-0.0493876 0.198413 0
-0.0503004 0.190329 0
-0.0512116 0.18185 0
-0.0520455 0.173043 0
-0.0527391 0.163972 0
-0.0532423 0.154703 0
-0.053517 0.1453 0
-0.0535368 0.135826 0
-0.0532852 0.126343 0
-0.0527545 0.116911 0
-0.0519445 0.107585 0
-0.050861 0.0984174 0
-0.0495141 0.0894575 0
-0.0479172 0.0807494 0
-0.0460855 0.0723335 0
-0.0440353 0.0642464 0
-0.0417827 0.0565209 0
-0.0393431 0.0491864 0
-0.0367308 0.0422695 0
-0.0339592 0.0357943 0
-0.0310405 0.0297829 0
-0.0279867 0.0242557 0
-0.0248105 0.0192322 0
-0.0215271 0.0147315 0
-0.0181562 0.0107729 0
-0.0147249 0.0073773 0
-0.0112711 0.00456961 0
-0.00784765 0.00237342 0
-0.00452516 0.000826324 0
-0.00139735 0.000110953 0
0.830693 0.00459815 0
0.537263 0.0288323 0
0.320439 0.0689639 0
0.172835 0.108516 0
0.0774859 0.143417 0
0.0184694 0.172108 0
-0.0164717 0.194451 0
-0.0357924 0.21085 0
-0.0457132 0.222384 0
-0.0502514 0.230017 0
-0.0519189 0.234541 0
-0.0522385 0.236579 0
-0.0520979 0.236609 0
-0.0519823 0.234993 0
-0.0521263 0.232003 0
-0.0526116 0.227852 0
-0.0534296 0.222702 0
-0.0545217 0.216687 0
-0.0558043 0.20992 0
-0.0571853 0.202501 0
-0.0585734 0.194519 0
-0.0598842 0.186061 0
-0.0610442 0.177208 0
-0.0619916 0.168041 0
-0.0626778 0.158638 0
-0.0630666 0.149073 0
-0.0631337 0.13942 0
-0.0628657 0.129746 0
-0.0622584 0.120118 0
-0.0613156 0.110594 0
-0.0600474 0.101232 0
-0.0584683 0.0920819 0
-0.0565963 0.0831887 0
-0.054451 0.0745935 0
-0.0520527 0.0663325 0
-0.0494211 0.0584376 0
-0.046575 0.0509371 0
-0.0435316 0.0438562 0
-0.0403063 0.0372176 0
-0.0369129 0.0310422 0
-0.0333646 0.0253496 0
-0.0296743 0.0201594 0
-0.0258568 0.0154915 0
-0.0219301 0.0113673 0
-0.0179179 0.00781168 0
-0.0138527 0.00485551 0
-0.00977804 0.00253011 0
-0.00575058 0.000883293 0
-0.00184288 0.000118949 0
0.844576 0.00359122 0
0.568809 0.0242353 0
0.35791 0.0598322 0
0.209004 0.096385 0
0.109009 0.129881 0
0.0442885 0.158454 0
0.00370674 0.181644 0
-0.020843 0.199635 0
-0.0351074 0.212951 0
-0.0431885 0.222393 0
-0.0477351 0.22864 0
-0.0504061 0.232249 0
-0.0522055 0.233663 0
-0.0537111 0.233234 0
-0.0552281 0.23124 0
-0.0568897 0.227901 0
-0.0587245 0.223398 0
-0.0606993 0.217883 0
-0.0627481 0.211487 0
-0.0647901 0.204329 0
-0.0667416 0.196516 0
-0.0685234 0.188153 0
-0.0700658 0.179334 0
-0.0713102 0.170155 0
-0.0722112 0.160704 0
-0.0727362 0.151067 0
-0.0728648 0.141324 0
-0.0725882 0.131552 0
-0.0719071 0.121822 0
-0.0708306 0.112197 0
-0.0693743 0.102736 0
-0.0675584 0.0934913 0
-0.0654061 0.0845094 0
-0.0629423 0.0758309 0
-0.0601917 0.0674908 0
-0.0571785 0.0595199 0
-0.0539248 0.0519447 0
-0.0504506 0.0447884 0
-0.0467735 0.0380719 0
-0.0429086 0.0318145 0
-0.0388695 0.0260347 0
-0.0346686 0.0207515 0
-0.0303191 0.0159853 0
-0.0258358 0.0117592 0
-0.0212376 0.00810142 0
-0.0165492 0.00504774 0
-0.0118032 0.00263583 0
-0.00704079 0.000921604 0
-0.00231283 0.000124214 0
0.856287 0.00290862 0
0.596438 0.0207442 0
0.391907 0.0525171 0
0.242947 0.0862758 0
0.139585 0.118185 0
0.0701955 0.146229 0
0.0247288 0.169692 0
-0.0045241 0.188616 0
-0.0229622 0.203218 0
-0.0345697 0.214034 0
-0.0420704 0.221647 0
-0.0472209 0.226544 0
-0.0511158 0.229131 0
-0.0544083 0.229737 0
-0.0574622 0.228632 0
-0.0604555 0.226041 0
-0.0634493 0.222151 0
-0.0664338 0.217127 0
-0.0693594 0.211113 0
-0.0721568 0.204242 0
-0.0747505 0.196636 0
-0.0770675 0.188412 0
-0.079043 0.179681 0
-0.080623 0.170548 0
-0.081767 0.161113 0
-0.0824471 0.151472 0
-0.0826488 0.141712 0
-0.082369 0.131917 0
-0.0816149 0.122161 0
-0.0804023 0.112514 0
-0.0787535 0.103036 0
-0.0766953 0.0937804 0
-0.0742573 0.084794 0
-0.0714701 0.0761165 0
-0.068364 0.0677819 0
-0.0649676 0.0598189 0
-0.0613068 0.0522518 0
-0.0574046 0.0451015 0
-0.0532803 0.0383864 0
-0.0489502 0.0321238 0
-0.0444276 0.0263304 0
-0.0397237 0.0210244 0
-0.0348489 0.016226 0
-0.0298136 0.0119594 0
-0.0246304 0.00825513 0
-0.0193147 0.00515275 0
-0.0138869 0.0026948 0
-0.00837152 0.000943209 0
-0.00279801 0.000127177 0
0.866352 0.00242594 0
0.620872 0.0180273 0
0.422858 0.0465664 0
0.274726 0.0777682 0
0.168996 0.108034 0
0.0957888 0.135293 0
0.04608 0.158661 0
0.0126908 0.177991 0
-0.00970562 0.193462 0
-0.0247636 0.205293 0
-0.0352296 0.213957 0
-0.042926 0.219883 0
-0.0490159 0.223433 0
-0.054212 0.224911 0
-0.0589258 0.224576 0
-0.0633722 0.222646 0
-0.0676398 0.219312 0
-0.071739 0.214744 0
-0.0756347 0.209096 0
-0.0792682 0.202512 0
-0.0825718 0.195126 0
-0.0854792 0.187066 0
-0.087931 0.178454 0
-0.0898792 0.169407 0
-0.0912888 0.160034 0
-0.0921386 0.15044 0
-0.0924207 0.140719 0
-0.0921396 0.130961 0
-0.0913104 0.121246 0
-0.0899567 0.111644 0
-0.0881086 0.10222 0
-0.085801 0.093026 0
-0.0830706 0.0841096 0
-0.0799548 0.0755092 0
-0.0764897 0.0672568 0
-0.0727089 0.0593786 0
-0.0686425 0.0518961 0
-0.0643162 0.0448275 0
-0.0597513 0.0381882 0
-0.0549647 0.0319928 0
-0.0499688 0.026256 0
-0.044773 0.0209942 0
-0.0393839 0.0162269 0
-0.0338064 0.0119787 0
-0.0280453 0.0082813 0
-0.022106 0.00517669 0
-0.0159951 0.00271084 0
-0.00972051 0.000949768 0
-0.00329025 0.000128166 0
0.875135 0.0020698 0
0.64267 0.0158623 0
0.451141 0.0416477 0
0.304459 0.0705274 0
0.197139 0.0991608 0
0.12082 0.125484 0
0.0674234 0.148506 0
0.030285 0.167935 0
0.00433283 0.183833 0
-0.014076 0.196385 0
-0.0274812 0.205829 0
-0.0377471 0.212549 0
-0.0460893 0.216865 0
-0.053267 0.219055 0
-0.0597294 0.21936 0
-0.065721 0.217992 0
-0.0713525 0.215139 0
-0.0766506 0.210976 0
-0.0815924 0.20566 0
-0.0861281 0.199345 0
-0.0901974 0.192174 0
-0.0937401 0.184284 0
-0.0967029 0.175808 0
-0.0990441 0.166871 0
-0.100735 0.157593 0
-0.101763 0.148084 0
-0.102128 0.138448 0
-0.101843 0.128778 0
-0.100933 0.119158 0
-0.0994291 0.109662 0
-0.0973724 0.100353 0
-0.0948058 0.0912875 0
-0.0917745 0.0825094 0
-0.0883234 0.074056 0
-0.084495 0.0659568 0
-0.0803285 0.0582351 0
-0.0758581 0.0509093 0
-0.0711127 0.0439938 0
-0.0661151 0.0375009 0
-0.0608824 0.0314418 0
-0.0554262 0.0258286 0
-0.0497527 0.0206754 0
-0.0438641 0.0160002 0
-0.037759 0.0118269 0
-0.0314335 0.00818741 0
-0.0248817 0.00512485 0
-0.018096 0.00268709 0
-0.0110672 0.00094257 0
-0.00378221 0.000127411 0
0.882892 0.001796 0
0.66226 0.0140967 0
0.477078 0.0375146 0
0.332276 0.0642867 0
0.223976 0.0913318 0
0.145132 0.11663 0
0.0885297 0.139128 0
0.0480081 0.158428 0
0.0187566 0.174485 0
-0.00278486 0.18744 0
-0.019066 0.197431 0
-0.0318922 0.204729 0
-0.0425117 0.209626 0
-0.0517182 0.212371 0
-0.05999 0.213186 0
-0.0675937 0.212275 0
-0.074657 0.20982 0
-0.0812192 0.205996 0
-0.0872664 0.200967 0
-0.0927562 0.194888 0
-0.0976343 0.187913 0
-0.101846 0.180187 0
-0.105345 0.171851 0
-0.108095 0.163039 0
-0.110077 0.153878 0
-0.111284 0.144486 0
-0.111728 0.134972 0
-0.111431 0.125433 0
-0.110428 0.115958 0
-0.108762 0.10662 0
-0.106483 0.0974865 0
-0.103645 0.0886097 0
-0.100303 0.0800337 0
-0.0965078 0.0717932 0
-0.0923108 0.0639147 0
-0.0877566 0.0564179 0
-0.082884 0.0493172 0
-0.0777247 0.0426233 0
-0.0723033 0.0363444 0
-0.0666369 0.0304882 0
-0.0607352 0.0250631 0
-0.0546013 0.0200805 0
-0.0482321 0.0155561 0
-0.0416189 0.0115121 0
-0.0347484 0.00797954 0
-0.0276028 0.00500135 0
-0.0201597 0.00262593 0
-0.0123924 0.000922529 0
-0.00426712 0.000125058 0
0.889806 0.00157721 0
0.679976 0.0126241 0
0.500937 0.0339823 0
0.358306 0.0588341 0
0.249502 0.0843476 0
0.168616 0.10857 0
0.109222 0.130415 0
0.0656424 0.149408 0
0.0333347 0.165421 0
0.00887714 0.178518 0
-0.0101951 0.188846 0
-0.0255509 0.196532 0
-0.0384486 0.201838 0
-0.0497074 0.204988 0
-0.0598263 0.206186 0
-0.0690879 0.205622 0
-0.0776316 0.203476 0
-0.0855053 0.19992 0
-0.0927015 0.19512 0
-0.0991829 0.189238 0
-0.1049 0.182431 0
-0.109803 0.174854 0
-0.113852 0.166655 0
-0.117018 0.157975 0
-0.119289 0.148948 0
-0.120671 0.139698 0
-0.121182 0.130338 0
-0.120859 0.120971 0
-0.119746 0.111686 0
-0.117901 0.102559 0
-0.115384 0.0936542 0
-0.112259 0.0850251 0
-0.108591 0.0767129 0
-0.104443 0.0687489 0
-0.0998707 0.0611562 0
-0.0949262 0.0539502 0
-0.0896528 0.0471411 0
-0.0840855 0.040735 0
-0.0782502 0.0347357 0
-0.0721637 0.0291464 0
-0.0658338 0.023972 0
-0.0592596 0.0192199 0
-0.0524323 0.0149029 0
-0.0453353 0.0110408 0
-0.0379453 0.00766239 0
-0.0302318 0.00480926 0
-0.0221576 0.00252901 0
-0.013678 0.000890224 0
-0.00473858 0.000121177 0
0.89601 0.00139595 0
0.696072 0.0113682 0
0.522937 0.0309101 0
0.382666 0.0539996 0
0.273728 0.0780391 0
0.191199 0.101156 0
0.129368 0.122251 0
0.0830166 0.140797 0
0.0478689 0.156603 0
0.0206448 0.169668 0
-0.00106239 0.180104 0
-0.0188976 0.18801 0
-0.0340557 0.193563 0
-0.0473714 0.196975 0
-0.0593567 0.198429 0
-0.070304 0.198104 0
-0.0803596 0.196174 0
-0.0895762 0.19281 0
-0.0979498 0.188178 0
-0.105446 0.182445 0
-0.112019 0.175775 0
-0.117624 0.168327 0
-0.122225 0.160256 0
-0.125803 0.151711 0
-0.128355 0.142832 0
-0.129895 0.133748 0
-0.130456 0.124575 0
-0.130085 0.115418 0
-0.128841 0.106367 0
-0.126794 0.0975007 0
-0.124017 0.0888806 0
-0.120587 0.0805574 0
-0.116579 0.0725697 0
-0.112065 0.064945 0
-0.10711 0.057702 0
-0.101772 0.0508516 0
-0.0960993 0.044399 0
-0.0901302 0.0383451 0
-0.0838919 0.032689 0
-0.0774005 0.0274292 0
-0.0706617 0.0225658 0
-0.0636702 0.0181024 0
-0.056411 0.0140477 0
-0.0488592 0.0104181 0
-0.0409809 0.00723951 0
-0.0327328 0.00455074 0
-0.0240621 0.00239738 0
-0.0149063 0.000845966 0
-0.00519042 0.000115786 0
0.901603 0.00124059 0
0.710744 0.0102729 0
0.543253 0.0281887 0
0.405456 0.0496449 0
0.296671 0.0722608 0
0.212827 0.0942511 0
0.148864 0.11452 0
0.0999944 0.132503 0
0.0622064 0.147958 0
0.0323688 0.160838 0
0.00815314 0.171202 0
-0.012092 0.179166 0
-0.0294796 0.184818 0
-0.0448422 0.188355 0
-0.0586979 0.189942 0
-0.0713431 0.189747 0
-0.0829267 0.18794 0
-0.0935024 0.184688 0
-0.103067 0.180161 0
-0.111587 0.174528 0
-0.11902 0.167958 0
-0.125323 0.160617 0
-0.130468 0.152666 0
-0.134443 0.14426 0
-0.137255 0.135542 0
-0.13893 0.126647 0
-0.139513 0.117693 0
-0.139067 0.108786 0
-0.137664 0.100018 0
-0.135389 0.0914629 0
-0.132328 0.0831828 0
-0.128571 0.0752245 0
-0.124204 0.0676226 0
-0.119311 0.0604001 0
-0.113964 0.0535705 0
-0.108229 0.0471397 0
-0.102159 0.0411073 0
-0.0957954 0.0354689 0
-0.089166 0.0302181 0
-0.0822868 0.0253484 0
-0.0751605 0.0208547 0
-0.0677776 0.0167359 0
-0.0601163 0.0129965 0
-0.0521433 0.0096484 0
-0.0438136 0.00671373 0
-0.0350708 0.00422738 0
-0.0258465 0.00223171 0
-0.0160603 0.000789881 0
-0.00561654 0.000108863 0
0.906655 0.00110308 0
0.724144 0.00929583 0
0.562024 0.0257316 0
0.426757 0.0456555 0