# vtk DataFile Version 3.0
Malha 2D com triângulos e temperatura
ASCII
DATASET UNSTRUCTURED_GRID

POINTS 2500 double
0 0 0
1 0 0
1 1 0
0 1 0
0.0204082 0 0
0.0408163 0 0
0.0612245 0 0
0.0816327 0 0
0.102041 0 0
0.122449 0 0
0.142857 0 0
0.163265 0 0
0.183673 0 0
0.204082 0 0
0.22449 0 0
0.244898 0 0
0.265306 0 0
0.285714 0 0
0.306122 0 0
0.326531 0 0
0.346939 0 0
0.367347 0 0
0.387755 0 0
0.408163 0 0
0.428571 0 0
0.44898 0 0
0.469388 0 0
0.489796 0 0
0.510204 0 0
0.530612 0 0
0.55102 0 0
0.571429 0 0
0.591837 0 0
0.612245 0 0
0.632653 0 0
0.653061 0 0
0.673469 0 0
0.693878 0 0
0.714286 0 0
0.734694 0 0
0.755102 0 0
0.77551 0 0
0.795918 0 0
0.816327 0 0
0.836735 0 0
0.857143 0 0
0.877551 0 0
0.897959 0 0
0.918367 0 0
0.938776 0 0
0.959184 0 0
0.979592 0 0
1 0.0204082 0
1 0.0408163 0
1 0.0612245 0
1 0.0816327 0
1 0.102041 0
1 0.122449 0
1 0.142857 0
1 0.163265 0
1 0.183673 0
1 0.204082 0
1 0.22449 0
1 0.244898 0
1 0.265306 0
1 0.285714 0
1 0.306122 0
1 0.326531 0
1 0.346939 0
1 0.367347 0
1 0.387755 0
1 0.408163 0
1 0.428571 0
1 0.44898 0
1 0.469388 0
1 0.489796 0
1 0.510204 0
1 0.530612 0
1 0.55102 0
1 0.571429 0
1 0.591837 0
1 0.612245 0
1 0.632653 0
1 0.653061 0
1 0.673469 0
1 0.693878 0
1 0.714286 0
1 0.734694 0
1 0.755102 0
1 0.77551 0
1 0.795918 0
1 0.816327 0
1 0.836735 0
1 0.857143 0
1 0.877551 0
1 0.897959 0
1 0.918367 0
1 0.938776 0
1 0.959184 0
1 0.979592 0
0.979592 1 0
0.959184 1 0
0.938776 1 0
0.918367 1 0
0.897959 1 0
0.877551 1 0
0.857143 1 0
0.836735 1 0
0.816327 1 0
0.795918 1 0
0.77551 1 0
0.755102 1 0
0.734694 1 0
0.714286 1 0
0.693878 1 0
0.673469 1 0
0.653061 1 0
0.632653 1 0
0.612245 1 0
0.591837 1 0
0.571429 1 0
0.55102 1 0
0.530612 1 0
0.510204 1 0
0.489796 1 0
0.469388 1 0
0.44898 1 0
0.428571 1 0
0.408163 1 0
0.387755 1 0
0.367347 1 0
0.346939 1 0
0.326531 1 0
0.306122 1 0
0.285714 1 0
0.265306 1 0
0.244898 1 0
0.22449 1 0
0.204082 1 0
0.183673 1 0
0.163265 1 0
0.142857 1 0
0.122449 1 0
0.102041 1 0
0.0816327 1 0
0.0612245 1 0
0.0408163 1 0
0.0204082 1 0
0 0.979592 0
0 0.959184 0
0 0.938776 0
0 0.918367 0
0 0.897959 0
0 0.877551 0
0 0.857143 0
0 0.836735 0
0 0.816327 0
0 0.795918 0
0 0.77551 0
0 0.755102 0
0 0.734694 0
0 0.714286 0
0 0.693878 0
0 0.673469 0
0 0.653061 0
0 0.632653 0
0 0.612245 0
0 0.591837 0
0 0.571429 0
0 0.55102 0
0 0.530612 0
0 0.510204 0
0 0.489796 0
0 0.469388 0
0 0.44898 0
0 0.428571 0
0 0.408163 0
0 0.387755 0
0 0.367347 0
0 0.346939 0
0 0.326531 0
0 0.306122 0
0 0.285714 0
0 0.265306 0
0 0.244898 0
0 0.22449 0
0 0.204082 0
0 0.183673 0
0 0.163265 0
0 0.142857 0
0 0.122449 0
0 0.102041 0
0 0.0816327 0
0 0.0612245 0
0 0.0408163 0
0 0.0204082 0
0.0204082 0.979592 0
0.0204082 0.959184 0
0.0204082 0.938776 0
0.0204082 0.918367 0
0.0204082 0.897959 0
0.0204082 0.877551 0
0.0204082 0.857143 0
0.0204082 0.836735 0
0.0204082 0.816327 0
0.0204082 0.795918 0
0.0204082 0.77551 0
0.0204082 0.755102 0
0.0204082 0.734694 0
0.0204082 0.714286 0
0.0204082 0.693878 0
0.0204082 0.673469 0
0.0204082 0.653061 0
0.0204082 0.632653 0
0.0204082 0.612245 0
0.0204082 0.591837 0
0.0204082 0.571429 0
0.0204082 0.55102 0
0.0204082 0.530612 0
0.0204082 0.510204 0
0.0204082 0.489796 0
0.0204082 0.469388 0
0.0204082 0.44898 0
0.0204082 0.428571 0
0.0204082 0.408163 0
0.0204082 0.387755 0
0.0204082 0.367347 0
0.0204082 0.346939 0
0.0204082 0.326531 0
0.0204082 0.306122 0
0.0204082 0.285714 0
0.0204082 0.265306 0
0.0204082 0.244898 0
0.0204082 0.22449 0
0.0204082 0.204082 0
0.0204082 0.183673 0
0.0204082 0.163265 0
0.0204082 0.142857 0
0.0204082 0.122449 0
0.0204082 0.102041 0
0.0204082 0.0816327 0
0.0204082 0.0612245 0
0.0204082 0.0408163 0
0.0204082 0.0204082 0
0.0408163 0.979592 0
0.0408163 0.959184 0
0.0408163 0.938776 0
0.0408163 0.918367 0
0.0408163 0.897959 0
0.0408163 0.877551 0
0.0408163 0.857143 0
0.0408163 0.836735 0
0.0408163 0.816327 0
0.0408163 0.795918 0
0.0408163 0.77551 0
0.0408163 0.755102 0
0.0408163 0.734694 0
0.0408163 0.714286 0
0.0408163 0.693878 0
0.0408163 0.673469 0
0.0408163 0.653061 0
0.0408163 0.632653 0
0.0408163 0.612245 0
0.0408163 0.591837 0
0.0408163 0.571429 0
0.0408163 0.55102 0
0.0408163 0.530612 0
0.0408163 0.510204 0
0.0408163 0.489796 0
0.0408163 0.469388 0
0.0408163 0.44898 0
0.0408163 0.428571 0
0.0408163 0.408163 0
0.0408163 0.387755 0
0.0408163 0.367347 0
0.0408163 0.346939 0
0.0408163 0.326531 0
0.0408163 0.306122 0
0.0408163 0.285714 0
0.0408163 0.265306 0
0.0408163 0.244898 0
0.0408163 0.22449 0
0.0408163 0.204082 0
0.0408163 0.183673 0
0.0408163 0.163265 0
0.0408163 0.142857 0
0.0408163 0.122449 0
0.0408163 0.102041 0
0.0408163 0.0816327 0
0.0408163 0.0612245 0
0.0408163 0.0408163 0
0.0408163 0.0204082 0
0.0612245 0.979592 0
0.0612245 0.959184 0
0.0612245 0.938776 0
0.0612245 0.918367 0
0.0612245 0.897959 0
0.0612245 0.877551 0
0.0612245 0.857143 0
0.0612245 0.836735 0
0.0612245 0.816327 0
0.0612245 0.795918 0
0.0612245 0.77551 0
0.0612245 0.755102 0
0.0612245 0.734694 0
0.0612245 0.714286 0
0.0612245 0.693878 0
0.0612245 0.673469 0
0.0612245 0.653061 0
0.0612245 0.632653 0
0.0612245 0.612245 0
0.0612245 0.591837 0
0.0612245 0.571429 0
0.0612245 0.55102 0
0.0612245 0.530612 0
0.0612245 0.510204 0
0.0612245 0.489796 0
0.0612245 0.469388 0
0.0612245 0.44898 0
0.0612245 0.428571 0
0.0612245 0.408163 0
0.0612245 0.387755 0
0.0612245 0.367347 0
0.0612245 0.346939 0
0.0612245 0.326531 0
0.0612245 0.306122 0
0.0612245 0.285714 0
0.0612245 0.265306 0
0.0612245 0.244898 0
0.0612245 0.22449 0
0.0612245 0.204082 0
0.0612245 0.183673 0
0.0612245 0.163265 0
0.0612245 0.142857 0
0.0612245 0.122449 0
0.0612245 0.102041 0
0.0612245 0.0816327 0
0.0612245 0.0612245 0
0.0612245 0.0408163 0
0.0612245 0.0204082 0
0.0816327 0.979592 0
0.0816327 0.959184 0
0.0816327 0.938776 0
0.0816327 0.918367 0
0.0816327 0.897959 0
0.0816327 0.877551 0
0.0816327 0.857143 0
0.0816327 0.836735 0
0.0816327 0.816327 0
0.0816327 0.795918 0
0.0816327 0.77551 0
0.0816327 0.755102 0
0.0816327 0.734694 0
0.0816327 0.714286 0
0.0816327 0.693878 0
0.0816327 0.673469 0
0.0816327 0.653061 0
0.0816327 0.632653 0
0.0816327 0.612245 0
0.0816327 0.591837 0
0.0816327 0.571429 0
0.0816327 0.55102 0
0.0816327 0.530612 0
0.0816327 0.510204 0
0.0816327 0.489796 0
0.0816327 0.469388 0
0.0816327 0.44898 0
0.0816327 0.428571 0
0.0816327 0.408163 0
0.0816327 0.387755 0
0.0816327 0.367347 0
0.0816327 0.346939 0
0.0816327 0.326531 0
0.0816327 0.306122 0
0.0816327 0.285714 0
0.0816327 0.265306 0
0.0816327 0.244898 0
0.0816327 0.22449 0
0.0816327 0.204082 0
0.0816327 0.183673 0
0.0816327 0.163265 0
0.0816327 0.142857 0
0.0816327 0.122449 0
0.0816327 0.102041 0
0.0816327 0.0816327 0
0.0816327 0.0612245 0
0.0816327 0.0408163 0
0.0816327 0.0204082 0
0.102041 0.979592 0
0.102041 0.959184 0
0.102041 0.938776 0
0.102041 0.918367 0
0.102041 0.897959 0
0.102041 0.877551 0
0.102041 0.857143 0
0.102041 0.836735 0
0.102041 0.816327 0
0.102041 0.795918 0
0.102041 0.77551 0
0.102041 0.755102 0
0.102041 0.734694 0
0.102041 0.714286 0
0.102041 0.693878 0
0.102041 0.673469 0
0.102041 0.653061 0
0.102041 0.632653 0
0.102041 0.612245 0
0.102041 0.591837 0
0.102041 0.571429 0
0.102041 0.55102 0
0.102041 0.530612 0
0.102041 0.510204 0
0.102041 0.489796 0
0.102041 0.469388 0
0.102041 0.44898 0
0.102041 0.428571 0
0.102041 0.408163 0
0.102041 0.387755 0
0.102041 0.367347 0
0.102041 0.346939 0
0.102041 0.326531 0
0.102041 0.306122 0
0.102041 0.285714 0
0.102041 0.265306 0
0.102041 0.244898 0
0.102041 0.22449 0
0.102041 0.204082 0
0.102041 0.183673 0
0.102041 0.163265 0
0.102041 0.142857 0
0.102041 0.122449 0
0.102041 0.102041 0
0.102041 0.0816327 0
0.102041 0.0612245 0
0.102041 0.0408163 0
0.102041 0.0204082 0
0.122449 0.979592 0
0.122449 0.959184 0
0.122449 0.938776 0
0.122449 0.918367 0
0.122449 0.897959 0
0.122449 0.877551 0
0.122449 0.857143 0
0.122449 0.836735 0
0.122449 0.816327 0
0.122449 0.795918 0
0.122449 0.77551 0
0.122449 0.755102 0
0.122449 0.734694 0
0.122449 0.714286 0
0.122449 0.693878 0
0.122449 0.673469 0
0.122449 0.653061 0
0.122449 0.632653 0
0.122449 0.612245 0
0.122449 0.591837 0
0.122449 0.571429 0
0.122449 0.55102 0
0.122449 0.530612 0
0.122449 0.510204 0
0.122449 0.489796 0
0.122449 0.469388 0
0.122449 0.44898 0
0.122449 0.428571 0
0.122449 0.408163 0
0.122449 0.387755 0
0.122449 0.367347 0
0.122449 0.346939 0
0.122449 0.326531 0
0.122449 0.306122 0
0.122449 0.285714 0
0.122449 0.265306 0
0.122449 0.244898 0
0.122449 0.22449 0
0.122449 0.204082 0
0.122449 0.183673 0
0.122449 0.163265 0
0.122449 0.142857 0
0.122449 0.122449 0
0.122449 0.102041 0
0.122449 0.0816327 0
0.122449 0.0612245 0
0.122449 0.0408163 0
0.122449 0.0204082 0
0.142857 0.979592 0
0.142857 0.959184 0
0.142857 0.938776 0
0.142857 0.918367 0
0.142857 0.897959 0
0.142857 0.877551 0
0.142857 0.857143 0
0.142857 0.836735 0
0.142857 0.816327 0
0.142857 0.795918 0
0.142857 0.77551 0
0.142857 0.755102 0
0.142857 0.734694 0
0.142857 0.714286 0
0.142857 0.693878 0
0.142857 0.673469 0
0.142857 0.653061 0
0.142857 0.632653 0
0.142857 0.612245 0
0.142857 0.591837 0
0.142857 0.571429 0
0.142857 0.55102 0
0.142857 0.530612 0
0.142857 0.510204 0
0.142857 0.489796 0
0.142857 0.469388 0
0.142857 0.44898 0
0.142857 0.428571 0
0.142857 0.408163 0
0.142857 0.387755 0
0.142857 0.367347 0
0.142857 0.346939 0
0.142857 0.326531 0
0.142857 0.306122 0
0.142857 0.285714 0
0.142857 0.265306 0
0.142857 0.244898 0
0.142857 0.22449 0
0.142857 0.204082 0
0.142857 0.183673 0
0.142857 0.163265 0
0.142857 0.142857 0
0.142857 0.122449 0
0.142857 0.102041 0
0.142857 0.0816327 0
0.142857 0.0612245 0
0.142857 0.0408163 0
0.142857 0.0204082 0
0.163265 0.979592 0
0.163265 0.959184 0
0.163265 0.938776 0
0.163265 0.918367 0
0.163265 0.897959 0
0.163265 0.877551 0
0.163265 0.857143 0
0.163265 0.836735 0
0.163265 0.816327 0
0.163265 0.795918 0
0.163265 0.77551 0
0.163265 0.755102 0
0.163265 0.734694 0
0.163265 0.714286 0
0.163265 0.693878 0
0.163265 0.673469 0
0.163265 0.653061 0
0.163265 0.632653 0
0.163265 0.612245 0
0.163265 0.591837 0
0.163265 0.571429 0
0.163265 0.55102 0
[...]
CELL_DATA 2401
VECTORS velocity double
0.257357 0.157465 0.0
-0.00269352 0.264609 0.0
-0.0322915 0.205531 0.0
-0.0253677 0.150698 0.0
-0.0160517 0.113189 0.0
-0.00970322 0.0878307 0.0
-0.00593759 0.0707281 0.0
-0.00376079 0.0589782 0.0
-0.0024835 0.0506784 0.0
-0.00170985 0.0446487 0.0
-0.00122422 0.0401472 0.0
-0.000909636 0.0366945 0.0
-0.000701078 0.0339708 0.0
-0.00056096 0.0317573 0.0
-0.000466525 0.0299005 0.0
-0.000403356 0.028291 0.0
-0.000361933 0.0268503 0.0
-0.000335738 0.0255215 0.0
-0.000320169 0.0242641 0.0
-0.000311895 0.0230491 0.0
-0.00030845 0.0218568 0.0
-0.000307985 0.0206742 0.0
-0.000309101 0.0194937 0.0
-0.000310738 0.0183116 0.0
-0.000312103 0.0171275 0.0
-0.000312612 0.0159431 0.0
-0.000311857 0.0147621 0.0
-0.000309568 0.0135892 0.0
-0.000305588 0.0124297 0.0
-0.000299854 0.0112897 0.0
-0.000292372 0.0101751 0.0
-0.0002832 0.00909197 0.0
-0.000272433 0.00804596 0.0
-0.000260183 0.00704254 0.0
-0.000246567 0.0060868 0.0
-0.000231695 0.00518345 0.0
-0.000215658 0.00433688 0.0
-0.000198513 0.00355119 0.0
-0.000180277 0.00283033 0.0
-0.000160916 0.00217816 0.0
-0.000140328 0.00159861 0.0
-0.000118342 0.00109577 0.0
-9.4717e-05 0.000673963 0.0
-6.91877e-05 0.000337755 0.0
-4.16141e-05 9.15826e-05 0.0
-1.24473e-05 -6.1171e-05 0.0
1.60682e-05 -0.000120391 0.0
3.74068e-05 -9.73671e-05 0.0
3.40788e-05 -3.39139e-05 0.0
0.340626 0.12297 0.0
-0.000590865 0.24948 0.0
-0.0651776 0.271765 0.0
-0.0632203 0.25237 0.0
-0.0485215 0.221887 0.0
-0.035009 0.191999 0.0
-0.025001 0.166504 0.0
-0.0180113 0.145907 0.0
-0.013193 0.129603 0.0
-0.00985927 0.116745 0.0
-0.00753245 0.106546 0.0
-0.00589553 0.0983516 0.0
-0.00473887 0.0916487 0.0
-0.00392186 0.0860418 0.0
-0.0033482 0.0812301 0.0
-0.00295046 0.0769863 0.0
-0.0026804 0.0731394 0.0
-0.00250279 0.0695619 0.0
-0.00239147 0.0661602 0.0
-0.00232672 0.0628665 0.0
-0.00229349 0.0596336 0.0
-0.00228021 0.0564301 0.0
-0.00227795 0.0532375 0.0
-0.00227987 0.0500467 0.0
-0.00228076 0.0468564 0.0
-0.00227675 0.043671 0.0
-0.00226506 0.0404991 0.0
-0.00224382 0.0373521 0.0
-0.00221187 0.0342437 0.0
-0.00216865 0.0311885 0.0
-0.00211406 0.0282016 0.0
-0.00204834 0.0252981 0.0
-0.00197195 0.0224926 0.0
-0.00188551 0.019799 0.0
-0.00178968 0.0172306 0.0
-0.00168512 0.0147996 0.0
-0.00157238 0.0125175 0.0
-0.00145189 0.0103952 0.0
-0.0013239 0.008443 0.0
-0.00118849 0.00667083 0.0
-0.00104553 0.00508839 0.0
-0.000894762 0.00370524 0.0
-0.000735995 0.00253061 0.0
-0.000569477 0.00157289 0.0
-0.000396789 0.000838389 0.0
-0.000222797 0.000328852 0.0
-5.96945e-05 3.67874e-05 0.0
6.61837e-05 -6.46925e-05 0.0
9.68863e-05 -3.63988e-05 0.0
0.50093 0.0768128 0.0
0.0992079 0.183297 0.0
-0.0392352 0.249381 0.0
-0.0733583 0.265914 0.0
-0.0719101 0.257609 0.0
-0.0607095 0.23976 0.0
-0.0485579 0.21963 0.0
-0.038078 0.200509 0.0
-0.0297505 0.183613 0.0
-0.0233705 0.169164 0.0
-0.018573 0.15696 0.0
-0.0150069 0.146646 0.0
-0.0123815 0.137852 0.0
-0.0104685 0.130237 0.0
-0.00909313 0.123512 0.0
-0.00812161 0.117438 0.0
-0.00745191 0.111829 0.0
-0.00700567 0.106538 0.0
-0.00672232 0.101455 0.0
-0.00655476 0.0964971 0.0
-0.0064662 0.0916085 0.0
-0.00642781 0.0867511 0.0
-0.00641705 0.081903 0.0
-0.00641643 0.0770548 0.0
-0.00641255 0.0722068 0.0
-0.00639535 0.067367 0.0
-0.00635758 0.0625488 0.0
-0.00629428 0.05777 0.0
-0.00620238 0.0530504 0.0
-0.0060803 0.0484117 0.0
-0.00592768 0.043876 0.0
-0.00574504 0.0394655 0.0
-0.00553351 0.0352015 0.0
-0.00529462 0.0311046 0.0
-0.00503005 0.0271941 0.0
-0.00474147 0.0234882 0.0
-0.00443039 0.020004 0.0
-0.00409803 0.0167573 0.0
-0.0037453 0.0137633 0.0
-0.00337274 0.0110363 0.0
-0.00298067 0.00858979 0.0
-0.00256943 0.00643678 0.0
-0.00213994 0.00458892 0.0
-0.00169475 0.00305592 0.0
-0.00124008 0.00184375 0.0
-0.000789565 0.000951953 0.0
-0.000371032 0.000368111 0.0
-3.58768e-05 6.10155e-05 0.0
0.00011775 -1.43041e-05 0.0
0.610117 0.0480544 0.0
0.19582 0.134031 0.0
0.0115139 0.209552 0.0
-0.057999 0.246585 0.0
-0.0761634 0.257082 0.0
-0.0739674 0.253539 0.0
-0.0648427 0.243137 0.0
-0.0543872 0.230126 0.0
-0.0447678 0.216772 0.0
-0.03667 0.20414 0.0
-0.0301648 0.19263 0.0
-0.0250909 0.182301 0.0
-0.0212196 0.173045 0.0
-0.0183236 0.164688 0.0
-0.016201 0.157043 0.0
-0.0146817 0.149937 0.0
-0.0136262 0.143216 0.0
-0.0129211 0.136758 0.0
-0.0124751 0.130464 0.0
-0.0122147 0.124263 0.0
-0.0120812 0.118103 0.0
-0.0120276 0.111952 0.0
-0.0120164 0.105791 0.0
-0.0120183 0.0996181 0.0
-0.0120109 0.0934372 0.0
-0.0119769 0.0872622 0.0
-0.0119041 0.0811124 0.0
-0.0117839 0.0750111 0.0
-0.0116111 0.0689845 0.0
-0.0113831 0.0630598 0.0
-0.0110993 0.057265 0.0
-0.0107607 0.0516276 0.0
-0.0103692 0.0461744 0.0
-0.00992766 0.0409308 0.0
-0.00943899 0.0359208 0.0
-0.00890625 0.0311669 0.0
-0.00833221 0.0266902 0.0
-0.00771926 0.0225102 0.0
-0.00706934 0.0186453 0.0
-0.00638393 0.0151126 0.0
-0.00566436 0.0119283 0.0
-0.00491229 0.00910712 0.0
-0.00413067 0.00666189 0.0
-0.00332547 0.00460277 0.0
-0.00250862 0.00293554 0.0
-0.00170297 0.00165949 0.0
-0.000950473 0.000761923 0.0
-0.00032227 0.000216447 0.0
5.73322e-05 1.38628e-05 0.0
0.680535 0.030163 0.0
0.278623 0.0982279 0.0
0.0697442 0.171053 0.0
-0.0274855 0.217536 0.0
-0.0654423 0.240912 0.0
-0.0750712 0.24925 0.0
-0.0721963 0.24847 0.0
-0.0645534 0.242679 0.0
-0.0557933 0.234461 0.0
-0.0475409 0.225318 0.0
-0.0404255 0.216061 0.0
-0.0345996 0.207078 0.0
-0.0299994 0.198516 0.0
-0.0264739 0.190384 0.0
-0.0238485 0.182626 0.0
-0.0219532 0.17516 0.0
-0.0206353 0.1679 0.0
-0.0197623 0.160768 0.0
-0.0192224 0.153698 0.0
-0.018922 0.146642 0.0
-0.0187843 0.139566 0.0
-0.0187465 0.132452 0.0
-0.0187579 0.125294 0.0
-0.0187782 0.118098 0.0
-0.0187761 0.110877 0.0
-0.0187279 0.103653 0.0
-0.0186164 0.0964512 0.0
-0.01843 0.0893016 0.0
-0.0181615 0.082236 0.0
-0.0178074 0.0752871 0.0
-0.0173673 0.0684877 0.0
-0.0168428 0.0618697 0.0
-0.0162373 0.0554641 0.0
-0.0155549 0.0492999 0.0
-0.0148002 0.0434045 0.0
-0.013978 0.0378034 0.0
-0.0130927 0.0325204 0.0
-0.0121481 0.0275773 0.0
-0.0111475 0.0229948 0.0
-0.0100939 0.0187915 0.0
-0.00898988 0.0149851 0.0
-0.00783905 0.0115912 0.0
-0.00664686 0.00862351 0.0
-0.00542301 0.00609261 0.0
-0.00418485 0.00400524 0.0
-0.00296291 0.00236289 0.0
-0.00180925 0.00115674 0.0
-0.000806728 0.000371149 0.0
-9.04007e-05 4.07938e-05 0.0
0.729946 0.0191836 0.0
0.349161 0.0730539 0.0
0.128029 0.139292 0.0
0.0111604 0.188191 0.0
-0.0446104 0.219411 0.0
-0.0665922 0.236328 0.0
-0.0715104 0.243486 0.0
-0.0684324 0.24436 0.0
-0.0621373 0.241416 0.0
-0.0550656 0.236276 0.0
-0.0483942 0.229951 0.0
-0.042624 0.223039 0.0
-0.0379033 0.215868 0.0
-0.0342037 0.208603 0.0
-0.0314159 0.20131 0.0
-0.0294 0.193999 0.0
-0.0280126 0.186655 0.0
-0.0271185 0.179255 0.0
-0.0265969 0.171775 0.0
-0.026343 0.164199 0.0
-0.0262675 0.156517 0.0
-0.0262959 0.148732 0.0
-0.0263673 0.140853 0.0
-0.0264326 0.132899 0.0
-0.0264533 0.124894 0.0
-0.0264004 0.11687 0.0
-0.0262529 0.108859 0.0
-0.0259966 0.100898 0.0
-0.0256232 0.0930253 0.0
-0.0251291 0.0852782 0.0
-0.0245143 0.077694 0.0
-0.023782 0.0703084 0.0
-0.0229368 0.0631555 0.0
-0.021985 0.0562671 0.0
-0.0209333 0.0496729 0.0
-0.0197883 0.0434004 0.0
-0.0185563 0.0374749 0.0
-0.017243 0.0319198 0.0
-0.0158534 0.0267565 0.0
-0.014392 0.0220047 0.0
-0.0128633 0.0176827 0.0
-0.0112727 0.0138068 0.0
-0.00962819 0.0103911 0.0
-0.00794278 0.00744764 0.0
-0.006238 0.00498511 0.0
-0.00454944 0.00300941 0.0
-0.00293438 0.00151854 0.0
-0.00147956 0.000510475 0.0
-0.000318256 6.38284e-05 0.0
0.76595 0.0125763 0.0
0.408559 0.0556735 0.0
0.182937 0.114452 0.0
0.052537 0.162423 0.0
-0.017623 0.197408 0.0
-0.0511548 0.220033 0.0
-0.064282 0.233146 0.0
-0.0666901 0.239519 0.0
-0.0639132 0.241295 0.0
-0.0590245 0.240016 0.0
-0.0536722 0.236739 0.0
-0.0486867 0.232159 0.0
-0.0444359 0.226717 0.0
-0.0410322 0.220684 0.0
-0.0384526 0.214219 0.0
-0.0366073 0.207414 0.0
-0.0353784 0.200318 0.0
-0.0346418 0.192961 0.0
-0.0342785 0.185362 0.0
-0.0341801 0.177537 0.0
-0.0342514 0.169506 0.0
-0.0344112 0.161292 0.0
-0.0345917 0.152925 0.0
-0.0347378 0.144437 0.0
-0.0348063 0.135865 0.0
-0.0347645 0.127251 0.0
-0.034589 0.118637 0.0
-0.0342644 0.110067 0.0
-0.0337822 0.101583 0.0
-0.0331395 0.0932306 0.0
-0.0323379 0.085049 0.0
-0.0313821 0.0770777 0.0
-0.0302793 0.0693533 0.0
-0.0290381 0.0619098 0.0
-0.0276674 0.0547782 0.0
-0.0261765 0.0479872 0.0
-0.0245737 0.0415628 0.0
-0.0228669 0.0355288 0.0
-0.0210628 0.029907 0.0
-0.0191678 0.0247175 0.0
-0.017188 0.0199785 0.0
-0.0151307 0.0157067 0.0
-0.0130059 0.0119172 0.0
-0.0108288 0.00862358 0.0
-0.00862341 0.00583784 0.0
-0.00642722 0.00357157 0.0
-0.00429803 0.00183109 0.0
-0.00231972 0.000628657 0.0
-0.000614925 8.24159e-05 0.0
0.792961 0.00858541 0.0
0.458549 0.0435623 0.0
0.233299 0.0952362 0.0
0.0940132 0.140766 0.0
0.0129738 0.176793 0.0
-0.0309517 0.203003 0.0
-0.0520889 0.220354 0.0
-0.0603318 0.231002 0.0
-0.061672 0.236708 0.0
-0.059641 0.238842 0.0
-0.0562632 0.238415 0.0
-0.0526531 0.236142 0.0
-0.0493824 0.232515 0.0
-0.0467036 0.227868 0.0
-0.0446868 0.222427 0.0
-0.0433014 0.216341 0.0
-0.0424657 0.209713 0.0
-0.0420755 0.202617 0.0
-0.0420218 0.195112 0.0
-0.0421993 0.187247 0.0
-0.0425125 0.179067 0.0
-0.0428776 0.17062 0.0
-0.0432239 0.161952 0.0
-0.0434932 0.153113 0.0
-0.0436399 0.144153 0.0
-0.0436297 0.135124 0.0
-0.0434384 0.126078 0.0
-0.043051 0.117066 0.0
-0.0424601 0.108137 0.0
-0.0416645 0.0993402 0.0
-0.0406681 0.0907191 0.0
-0.0394784 0.0823162 0.0
-0.0381055 0.0741701 0.0
-0.0365608 0.0663161 0.0
-0.0348565 0.0587862 0.0
-0.0330042 0.0516094 0.0
-0.0310151 0.0448117 0.0
-0.0288991 0.0384168 0.0
-0.026665 0.0324462 0.0
-0.0243208 0.0269195 0.0
-0.0218743 0.0218549 0.0
-0.019334 0.0172694 0.0
-0.0167111 0.013179 0.0
-0.0140219 0.00959939 0.0
-0.0112905 0.00654631 0.0
-0.0085535 0.00403766 0.0
-0.00586506 0.00208848 0.0
-0.0033011 0.000724392 0.0
-0.000967964 9.68141e-05 0.0
0.813928 0.00613245 0.0
0.50094 0.0349757 0.0
0.278966 0.0803719 0.0
0.134145 0.122895 0.0
0.0447193 0.158633 0.0
-0.00776698 0.186571 0.0
-0.0363244 0.206803 0.0
-0.0503751 0.22062 0.0
-0.056101 0.229442 0.0
-0.0573349 0.234436 0.0
-0.0563841 0.236515 0.0
-0.0545944 0.236363 0.0
-0.0527137 0.234482 0.0
-0.051123 0.231236 0.0
-0.0499825 0.226886 0.0
-0.0493229 0.221624 0.0
-0.0491027 0.215591 0.0
-0.0492431 0.208897 0.0
-0.0496497 0.201633 0.0
-0.0502255 0.193876 0.0
-0.0508787 0.185698 0.0
-0.0515269 0.177166 0.0
-0.0520993 0.168344 0.0
-0.0525375 0.159299 0.0
-0.0527959 0.150094 0.0
-0.0528404 0.140792 0.0
-0.0526483 0.131453 0.0
-0.0522061 0.122137 0.0
-0.0515089 0.112899 0.0
-0.0505587 0.103791 0.0
-0.0493625 0.0948629 0.0
-0.0479317 0.0861582 0.0
-0.04628 0.0777175 0.0
-0.0444225 0.0695768 0.0
-0.0423746 0.0617685 0.0
-0.0401514 0.0543213 0.0
-0.0377666 0.0472608 0.0
-0.0352326 0.0406097 0.0
-0.0325603 0.0343888 0.0
-0.0297592 0.028617 0.0
-0.0268381 0.023312 0.0
-0.0238065 0.0184909 0.0
-0.0206757 0.0141708 0.0
-0.0174613 0.0103692 0.0
-0.0141857 0.0071061 0.0
-0.010882 0.00440541 0.0
-0.0075974 0.00229044 0.0
-0.00439617 0.000798498 0.0
-0.00136526 0.000107538 0.0
0.830731 0.00458481 0.0
0.537255 0.0287556 0.0
0.320245 0.0687674 0.0
0.172338 0.108159 0.0
0.0766177 0.142858 0.0
0.0172113 0.171309 0.0
-0.0180881 0.193373 0.0
-0.0377144 0.209465 0.0
-0.0478754 0.220679 0.0
-0.052583 0.227985 0.0
-0.0543467 0.232178 0.0
-0.0546925 0.233888 0.0
-0.0545137 0.233599 0.0
-0.0543026 0.231677 0.0
-0.0543014 0.228403 0.0
-0.0545989 0.223991 0.0
-0.0551938 0.218609 0.0
-0.0560343 0.212393 0.0
-0.0570434 0.205461 0.0
-0.0581352 0.197912 0.0
-0.0592242 0.189839 0.0
-0.0602322 0.181329 0.0
-0.061091 0.172464 0.0
-0.0617444 0.163323 0.0
-0.0621485 0.153984 0.0
-0.0622718 0.144519 0.0
-0.0620944 0.135 0.0
-0.0616063 0.125491 0.0
-0.0608064 0.116055 0.0
-0.0597009 0.106749 0.0
-0.0583017 0.0976238 0.0
-0.0566244 0.088727 0.0
-0.0546874 0.0800998 0.0
-0.0525103 0.0717788 0.0
-0.0501124 0.0637961 0.0
-0.0475124 0.0561796 0.0
-0.044727 0.048954 0.0
-0.0417713 0.0421406 0.0
-0.0386579 0.0357589 0.0
-0.0353977 0.0298267 0.0
-0.0320004 0.0243608 0.0
-0.0284752 0.0193783 0.0
-0.0248326 0.014897 0.0
-0.0210863 0.0109366 0.0
-0.0172551 0.00752027 0.0
-0.0133659 0.00467779 0.0
-0.00945681 0.00243961 0.0
-0.00557807 0.0008527 0.0
-0.00179569 0.000115137 0.0
0.844568 0.00357586 0.0
0.568698 0.0241461 0.0
0.357567 0.059606 0.0
0.208319 0.0959823 0.0
0.107914 0.129265 0.0
0.0427676 0.157592 0.0
0.00178384 0.180511 0.0
-0.02308 0.198189 0.0
-0.0375928 0.211184 0.0
-0.0458474 0.220303 0.0
-0.0504889 0.226227 0.0
-0.0531794 0.229517 0.0
-0.0549285 0.230623 0.0
-0.0563216 0.229901 0.0
-0.0576715 0.227631 0.0
-0.0591195 0.224041 0.0
-0.0607017 0.219314 0.0
-0.0623924 0.213605 0.0
-0.0641325 0.207048 0.0
-0.0658483 0.199765 0.0
-0.0674627 0.191864 0.0
-0.068903 0.183449 0.0
-0.0701056 0.174618 0.0
-0.0710181 0.165464 0.0
-0.0716005 0.156075 0.0
-0.0718255 0.146535 0.0
-0.0716775 0.136922 0.0
-0.0711516 0.127311 0.0
-0.070252 0.117769 0.0
-0.0689906 0.108355 0.0
-0.0673849 0.0991266 0.0
-0.0654564 0.0901306 0.0
-0.0632287 0.0814098 0.0
-0.0607267 0.0730008 0.0
-0.0579742 0.0649348 0.0
-0.0549938 0.0572387 0.0
-0.0518059 0.0499355 0.0
-0.0484279 0.0430447 0.0
-0.0448744 0.0365842 0.0
-0.0411573 0.03057 0.0
-0.0372864 0.025018 0.0
-0.0332702 0.0199447 0.0
-0.0291173 0.0153682 0.0
-0.0248378 0.0113098 0.0
-0.0204454 0.00779573 0.0
-0.0159594 0.00486028 0.0
-0.0114064 0.00253986 0.0
-0.00682155 0.000888979 0.0
-0.0022493 0.00012011 0.0
0.856226 0.00289221 0.0
0.59621 0.0206467 0.0
0.391401 0.0522707 0.0
0.242061 0.0858421 0.0
0.138259 0.117532 0.0
0.0684161 0.145327 0.0
0.0225273 0.16852 0.0
-0.00708455 0.187157 0.0
-0.0257697 0.201439 0.0
-0.0375489 0.21194 0.0
-0.0451397 0.219241 0.0
-0.0503014 0.223833 0.0
-0.0541337 0.226125 0.0
-0.057297 0.226451 0.0
-0.0601631 0.225084 0.0
-0.0629183 0.222252 0.0
-0.0656316 0.218148 0.0
-0.068301 0.212937 0.0
-0.0708847 0.206767 0.0
-0.0733207 0.199774 0.0
-0.0755407 0.192081 0.0
-0.0774789 0.183807 0.0
-0.0790773 0.175061 0.0
-0.0802887 0.16595 0.0
-0.0810786 0.156573 0.0
-0.0814251 0.147024 0.0
-0.0813187 0.137388 0.0
-0.080761 0.127747 0.0
-0.0797631 0.118172 0.0
-0.0783436 0.108729 0.0
-0.0765271 0.0994752 0.0
-0.0743418 0.0904601 0.0
-0.0718178 0.0817266 0.0
-0.0689857 0.0733108 0.0
-0.0658748 0.0652428 0.0
-0.062512 0.0575478 0.0
-0.0589213 0.0502464 0.0
-0.0551228 0.0433562 0.0
-0.0511328 0.0368927 0.0
-0.0469639 0.0308701 0.0
-0.0426257 0.0253025 0.0
-0.0381249 0.0202055 0.0
-0.0334673 0.015597 0.0
-0.0286585 0.0114993 0.0
-0.0237055 0.00794081 0.0
-0.0186184 0.00495913 0.0
-0.0134114 0.00259523 0.0
-0.00810332 0.00090921 0.0
-0.00271726 0.000122867 0.0
0.866236 0.00240938 0.0
0.62052 0.0179261 0.0
0.422181 0.0463094 0.0
0.273635 0.0773189 0.0
0.167434 0.107363 0.0
0.0937514 0.134377 0.0
0.0436033 0.157483 0.0
0.00984633 0.176537 0.0
-0.0128186 0.191714 0.0
-0.0280486 0.203241 0.0
-0.0385992 0.21161 0.0
-0.0462981 0.217249 0.0
-0.0523136 0.220521 0.0
-0.057365 0.221735 0.0
-0.061872 0.221151 0.0
-0.0660577 0.218992 0.0
-0.0700189 0.215453 0.0
-0.0737743 0.210705 0.0
-0.0772967 0.204907 0.0
-0.0805355 0.198204 0.0
-0.0834308 0.190732 0.0
-0.0859238 0.18262 0.0
-0.0879628 0.173992 0.0
-0.089507 0.164962 0.0
-0.0905282 0.155642 0.0
-0.0910117 0.146132 0.0
-0.0909553 0.136528 0.0
-0.0903685 0.126915 0.0
-0.0892705 0.117371 0.0
-0.0876883 0.107964 0.0
-0.0856546 0.0987529 0.0
-0.0832055 0.089789 0.0
-0.0803785 0.0811149 0.0
-0.0772108 0.0727654 0.0
-0.0737376 0.0647691 0.0
-0.0699906 0.0571489 0.0
-0.0659976 0.0499229 0.0
-0.0617817 0.0431059 0.0
-0.0573607 0.0367107 0.0
-0.0527476 0.030749 0.0
-0.047951 0.0252329 0.0
-0.0429756 0.0201762 0.0
-0.0378232 0.0155964 0.0
-0.0324938 0.0115158 0.0
-0.0269866 0.00796375 0.0
-0.0213015 0.0049803 0.0
-0.0154393 0.00260944 0.0
-0.00940201 0.000914995 0.0
-0.00319173 0.000123723 0.0
0.874964 0.00205385 0.0
0.642191 0.0157614 0.0
0.45029 0.0413896 0.0
0.30316 0.0700774 0.0
0.195347 0.0984939 0.0
0.118534 0.124582 0.0
0.0646836 0.147356 0.0
0.0271633 0.166528 0.0
0.000916427 0.182165 0.0
-0.0176524 0.194428 0.0
-0.0311334 0.203593 0.0
-0.041393 0.210044 0.0
-0.0496498 0.214101 0.0
-0.0566689 0.216043 0.0
-0.0629075 0.216115 0.0
-0.0686179 0.214531 0.0
-0.0739196 0.211483 0.0
-0.0788476 0.207148 0.0
-0.0833872 0.201687 0.0
-0.0874972 0.195255 0.0
-0.0911256 0.187998 0.0
-0.0942203 0.180055 0.0
-0.0967362 0.171558 0.0
-0.0986396 0.162634 0.0
-0.0999097 0.153401 0.0
-0.10054 0.143969 0.0
-0.100537 0.13444 0.0
-0.0999189 0.124905 0.0
-0.0987153 0.115445 0.0
-0.0969625 0.106131 0.0
-0.0947024 0.0970234 0.0
-0.0919803 0.0881744 0.0
-0.0888419 0.0796253 0.0
-0.0853318 0.0714095 0.0
-0.0814916 0.0635535 0.0
-0.0773585 0.056077 0.0
-0.0729644 0.0489954 0.0
-0.068335 0.0423203 0.0
-0.0634898 0.036061 0.0
-0.0584418 0.0302263 0.0
-0.0531984 0.0248258 0.0
-0.0477613 0.0198711 0.0
-0.0421276 0.0153781 0.0
-0.036291 0.0113685 0.0
-0.030242 0.00787179 0.0
-0.0239693 0.00492891 0.0
-0.0174596 0.00258552 0.0
-0.0106979 0.000907583 0.0
-0.00366565 0.0001229 0.0
0.882667 0.00178128 0.0
0.661656 0.0139996 0.0
0.476056 0.0372637 0.0
0.330776 0.0638494 0.0
0.221962 0.0906864 0.0
0.142611 0.115763 0.0
0.0855468 0.13803 0.0
0.0446385 0.157092 0.0
0.0150931 0.172909 0.0
-0.00663811 0.185621 0.0
-0.0229837 0.195349 0.0
-0.035793 0.202399 0.0
-0.0463167 0.207057 0.0
-0.0553525 0.209572 0.0
-0.0633855 0.210171 0.0
-0.0706903 0.209057 0.0
-0.077403 0.206418 0.0
-0.0835714 0.20243 0.0
-0.0891902 0.19726 0.0
-0.0942258 0.191068 0.0
-0.0986325 0.184007 0.0
-0.102365 0.176225 0.0
-0.105385 0.167864 0.0
-0.107665 0.159059 0.0
-0.109194 0.149936 0.0
-0.109974 0.140612 0.0
-0.110021 0.131194 0.0
-0.109365 0.121778 0.0
-0.108046 0.11245 0.0
-0.10611 0.103281 0.0
-0.103611 0.0943336 0.0
-0.100604 0.0856587 0.0
-0.0971438 0.0772963 0.0
-0.093283 0.069278 0.0
-0.0890704 0.061627 0.0
-0.0845488 0.0543601 0.0
-0.0797545 0.0474889 0.0
-0.0747162 0.0410212 0.0
-0.0694546 0.0349628 0.0
-0.0639828 0.0293188 0.0
-0.0583062 0.0240956 0.0
-0.0524232 0.0193021 0.0
-0.0463256 0.0149521 0.0
-0.0399999 0.0110654 0.0
-0.0334272 0.00767089 0.0
-0.0265844 0.004809 0.0
-0.0194437 0.00252581 0.0
-0.0119727 0.000887869 0.0
-0.00413253 0.000120541 0.0
0.88953 0.00156421 0.0
0.679251 0.0125339 0.0
0.499749 0.0337462 0.0
0.356613 0.0584216 0.0
0.24728 0.0837403 0.0
0.165877 0.107758 0.0
0.106015 0.129392 0.0
0.0620446 0.148171 0.0
0.0294406 0.16397 0.0
0.00479162 0.176852 0.0
-0.0143517 0.186953 0.0
-0.0296836 0.194413 0.0
-0.0424774 0.199504 0.0
-0.0535558 0.202444 0.0
-0.0634238 0.203442 0.0
-0.0723716 0.202691 0.0
-0.0805469 0.200372 0.0
-0.0880061 0.19666 0.0
-0.0947505 0.191726 0.0
-0.100752 0.185732 0.0
-0.10597 0.17884 0.0
-0.110364 0.171205 0.0
-0.113904 0.162976 0.0
-0.116569 0.154296 0.0
-0.118358 0.145299 0.0
-0.119283 0.136107 0.0
-0.119371 0.126832 0.0
-0.118664 0.117576 0.0
-0.117213 0.108423 0.0
-0.115079 0.0994496 0.0
-0.112325 0.0907161 0.0
-0.109018 0.0822722 0.0
-0.105223 0.0741564 0.0
-0.101001 0.066397 0.0
-0.0964097 0.0590141 0.0
-0.0914968 0.0520204 0.0
-0.0863034 0.0454235 0.0
-0.0808612 0.0392269 0.0
-0.0751922 0.0334322 0.0
-0.069309 0.0280405 0.0
-0.063215 0.0230544 0.0
-0.0569047 0.0184795 0.0
-0.0503641 0.0143265 0.0
-0.043572 0.010613 0.0
-0.0364995 0.00736566 0.0
-0.0291111 0.00462358 0.0
-0.0213642 0.00243193 0.0
-0.013209 0.000856428 0.0
-0.00458624 0.000116718 0.0
0.895688 0.00138505 0.0
0.695234 0.0112875 0.0
0.521595 0.0306952 0.0
0.380795 0.0536226 0.0
0.271315 0.0774845 0.0
0.188263 0.100417 0.0
0.125962 0.121326 0.0
0.0792179 0.139686 0.0
0.0437735 0.155305 0.0
0.0163563 0.168184 0.0
-0.00543894 0.178436 0.0
-0.0232403 0.186137 0.0
-0.0382872 0.191498 0.0
-0.0514149 0.194722 0.0
-0.0631399 0.195994 0.0
-0.0737616 0.195497 0.0
-0.0834341 0.193406 0.0
-0.0922184 0.189895 0.0
-0.10012 0.185134 0.0
-0.107112 0.179293 0.0
-0.113161 0.172538 0.0
-0.11823 0.16503 0.0
-0.122294 0.156926 0.0
-0.125344 0.148375 0.0
-0.127385 0.139516 0.0
-0.128441 0.13048 0.0
-0.128553 0.12138 0.0
-0.127775 0.11232 0.0