# vtk DataFile Version 3.0
Malha 2D com triângulos: velocidade e pressão
ASCII
DATASET UNSTRUCTURED_GRID

POINTS 2500 double
0 0 0
1 0 0
1 1 0
0 1 0
0.0204082 0 0
0.0408163 0 0
0.0612245 0 0
0.0816327 0 0
0.102041 0 0
0.122449 0 0
0.142857 0 0
0.163265 0 0
0.183673 0 0
0.204082 0 0
0.22449 0 0
0.244898 0 0
0.265306 0 0
0.285714 0 0
0.306122 0 0
0.326531 0 0
0.346939 0 0
0.367347 0 0
0.387755 0 0
0.408163 0 0
0.428571 0 0
0.44898 0 0
0.469388 0 0
0.489796 0 0
0.510204 0 0
0.530612 0 0
0.55102 0 0
0.571429 0 0
0.591837 0 0
0.612245 0 0
0.632653 0 0
0.653061 0 0
0.673469 0 0
0.693878 0 0
0.714286 0 0
0.734694 0 0
0.755102 0 0
0.77551 0 0
0.795918 0 0
0.816327 0 0
0.836735 0 0
0.857143 0 0
0.877551 0 0
0.897959 0 0
0.918367 0 0
0.938776 0 0
0.959184 0 0
0.979592 0 0
1 0.0204082 0
1 0.0408163 0
1 0.0612245 0
1 0.0816327 0
1 0.102041 0
1 0.122449 0
1 0.142857 0
1 0.163265 0
1 0.183673 0
1 0.204082 0
1 0.22449 0
1 0.244898 0
1 0.265306 0
1 0.285714 0
1 0.306122 0
1 0.326531 0
1 0.346939 0
1 0.367347 0
1 0.387755 0
1 0.408163 0
1 0.428571 0
1 0.44898 0
1 0.469388 0
1 0.489796 0
1 0.510204 0
1 0.530612 0
1 0.55102 0
1 0.571429 0
1 0.591837 0
1 0.612245 0
1 0.632653 0
1 0.653061 0
1 0.673469 0
1 0.693878 0
1 0.714286 0
1 0.734694 0
1 0.755102 0
1 0.77551 0
1 0.795918 0
1 0.816327 0
1 0.836735 0
1 0.857143 0
1 0.877551 0
1 0.897959 0
1 0.918367 0
1 0.938776 0
1 0.959184 0
1 0.979592 0
0.979592 1 0
0.959184 1 0
0.938776 1 0
0.918367 1 0
0.897959 1 0
0.877551 1 0
0.857143 1 0
0.836735 1 0
0.816327 1 0
0.795918 1 0
0.77551 1 0
0.755102 1 0
0.734694 1 0
0.714286 1 0
0.693878 1 0
0.673469 1 0
0.653061 1 0
0.632653 1 0
0.612245 1 0
0.591837 1 0
0.571429 1 0
0.55102 1 0
0.530612 1 0
0.510204 1 0
0.489796 1 0
0.469388 1 0
0.44898 1 0
0.428571 1 0
0.408163 1 0
0.387755 1 0
0.367347 1 0
0.346939 1 0
0.326531 1 0
0.306122 1 0
0.285714 1 0
0.265306 1 0
0.244898 1 0
0.22449 1 0
0.204082 1 0
0.183673 1 0
0.163265 1 0
0.142857 1 0
0.122449 1 0
0.102041 1 0
0.0816327 1 0
0.0612245 1 0
0.0408163 1 0
0.0204082 1 0
0 0.979592 0
0 0.959184 0
0 0.938776 0
0 0.918367 0
0 0.897959 0
0 0.877551 0
0 0.857143 0
0 0.836735 0
0 0.816327 0
0 0.795918 0
0 0.77551 0
0 0.755102 0
0 0.734694 0
0 0.714286 0
0 0.693878 0
0 0.673469 0
0 0.653061 0
0 0.632653 0
0 0.612245 0
0 0.591837 0
0 0.571429 0
0 0.55102 0
0 0.530612 0
0 0.510204 0
0 0.489796 0
0 0.469388 0
0 0.44898 0
0 0.428571 0
0 0.408163 0
0 0.387755 0
0 0.367347 0
0 0.346939 0
0 0.326531 0
0 0.306122 0
0 0.285714 0
0 0.265306 0
0 0.244898 0
0 0.22449 0
0 0.204082 0
0 0.183673 0
0 0.163265 0
0 0.142857 0
0 0.122449 0
0 0.102041 0
0 0.0816327 0
0 0.0612245 0
0 0.0408163 0
0 0.0204082 0
0.0204082 0.979592 0
0.0204082 0.959184 0
0.0204082 0.938776 0
0.0204082 0.918367 0
0.0204082 0.897959 0
0.0204082 0.877551 0
0.0204082 0.857143 0
0.0204082 0.836735 0
0.0204082 0.816327 0
0.0204082 0.795918 0
0.0204082 0.77551 0
0.0204082 0.755102 0
0.0204082 0.734694 0
0.0204082 0.714286 0
0.0204082 0.693878 0
0.0204082 0.673469 0
0.0204082 0.653061 0
0.0204082 0.632653 0
0.0204082 0.612245 0
0.0204082 0.591837 0
0.0204082 0.571429 0
0.0204082 0.55102 0
0.0204082 0.530612 0
0.0204082 0.510204 0
0.0204082 0.489796 0
0.0204082 0.469388 0
0.0204082 0.44898 0
0.0204082 0.428571 0
0.0204082 0.408163 0
0.0204082 0.387755 0
0.0204082 0.367347 0
0.0204082 0.346939 0
0.0204082 0.326531 0
0.0204082 0.306122 0
0.0204082 0.285714 0
0.0204082 0.265306 0
0.0204082 0.244898 0
0.0204082 0.22449 0
0.0204082 0.204082 0
0.0204082 0.183673 0
0.0204082 0.163265 0
0.0204082 0.142857 0
0.0204082 0.122449 0
0.0204082 0.102041 0
0.0204082 0.0816327 0
0.0204082 0.0612245 0
0.0204082 0.0408163 0
0.0204082 0.0204082 0
0.0408163 0.979592 0
0.0408163 0.959184 0
0.0408163 0.938776 0
0.0408163 0.918367 0
0.0408163 0.897959 0
0.0408163 0.877551 0
0.0408163 0.857143 0
0.0408163 0.836735 0
0.0408163 0.816327 0
0.0408163 0.795918 0
0.0408163 0.77551 0
0.0408163 0.755102 0
0.0408163 0.734694 0
0.0408163 0.714286 0
0.0408163 0.693878 0
0.0408163 0.673469 0
0.0408163 0.653061 0
0.0408163 0.632653 0
0.0408163 0.612245 0
0.0408163 0.591837 0
0.0408163 0.571429 0
0.0408163 0.55102 0
0.0408163 0.530612 0
0.0408163 0.510204 0
0.0408163 0.489796 0
0.0408163 0.469388 0
0.0408163 0.44898 0
0.0408163 0.428571 0
0.0408163 0.408163 0
0.0408163 0.387755 0
0.0408163 0.367347 0
0.0408163 0.346939 0
0.0408163 0.326531 0
0.0408163 0.306122 0
0.0408163 0.285714 0
0.0408163 0.265306 0
0.0408163 0.244898 0
0.0408163 0.22449 0
0.0408163 0.204082 0
0.0408163 0.183673 0
0.0408163 0.163265 0
0.0408163 0.142857 0
0.0408163 0.122449 0
0.0408163 0.102041 0
0.0408163 0.0816327 0
0.0408163 0.0612245 0
0.0408163 0.0408163 0
0.0408163 0.0204082 0
0.0612245 0.979592 0
0.0612245 0.959184 0
0.0612245 0.938776 0
0.0612245 0.918367 0
0.0612245 0.897959 0
0.0612245 0.877551 0
0.0612245 0.857143 0
0.0612245 0.836735 0
0.0612245 0.816327 0
0.0612245 0.795918 0
0.0612245 0.77551 0
0.0612245 0.755102 0
0.0612245 0.734694 0
0.0612245 0.714286 0
0.0612245 0.693878 0
0.0612245 0.673469 0
0.0612245 0.653061 0
0.0612245 0.632653 0
0.0612245 0.612245 0
0.0612245 0.591837 0
0.0612245 0.571429 0
0.0612245 0.55102 0
0.0612245 0.530612 0
0.0612245 0.510204 0
0.0612245 0.489796 0
0.0612245 0.469388 0
0.0612245 0.44898 0
0.0612245 0.428571 0
0.0612245 0.408163 0
0.0612245 0.387755 0
0.0612245 0.367347 0
0.0612245 0.346939 0
0.0612245 0.326531 0
0.0612245 0.306122 0
0.0612245 0.285714 0
0.0612245 0.265306 0
0.0612245 0.244898 0
0.0612245 0.22449 0
0.0612245 0.204082 0
0.0612245 0.183673 0
0.0612245 0.163265 0
0.0612245 0.142857 0
0.0612245 0.122449 0
0.0612245 0.102041 0
0.0612245 0.0816327 0
0.0612245 0.0612245 0
0.0612245 0.0408163 0
0.0612245 0.0204082 0
0.0816327 0.979592 0
0.0816327 0.959184 0
0.0816327 0.938776 0
0.0816327 0.918367 0
0.0816327 0.897959 0
0.0816327 0.877551 0
0.0816327 0.857143 0
0.0816327 0.836735 0
0.0816327 0.816327 0
0.0816327 0.795918 0
0.0816327 0.77551 0
0.0816327 0.755102 0
0.0816327 0.734694 0
0.0816327 0.714286 0
0.0816327 0.693878 0
0.0816327 0.673469 0
0.0816327 0.653061 0
0.0816327 0.632653 0
0.0816327 0.612245 0
0.0816327 0.591837 0
0.0816327 0.571429 0
0.0816327 0.55102 0
0.0816327 0.530612 0
0.0816327 0.510204 0
0.0816327 0.489796 0
0.0816327 0.469388 0
0.0816327 0.44898 0
0.0816327 0.428571 0
0.0816327 0.408163 0
0.0816327 0.387755 0
0.0816327 0.367347 0
0.0816327 0.346939 0
0.0816327 0.326531 0
0.0816327 0.306122 0
0.0816327 0.285714 0
0.0816327 0.265306 0
0.0816327 0.244898 0
0.0816327 0.22449 0
0.0816327 0.204082 0
0.0816327 0.183673 0
0.0816327 0.163265 0
0.0816327 0.142857 0
0.0816327 0.122449 0
0.0816327 0.102041 0
0.0816327 0.0816327 0
0.0816327 0.0612245 0
0.0816327 0.0408163 0
0.0816327 0.0204082 0
0.102041 0.979592 0
0.102041 0.959184 0
0.102041 0.938776 0
0.102041 0.918367 0
0.102041 0.897959 0
0.102041 0.877551 0
0.102041 0.857143 0
0.102041 0.836735 0
0.102041 0.816327 0
0.102041 0.795918 0
0.102041 0.77551 0
0.102041 0.755102 0
0.102041 0.734694 0
0.102041 0.714286 0
0.102041 0.693878 0
0.102041 0.673469 0
0.102041 0.653061 0
0.102041 0.632653 0
0.102041 0.612245 0
0.102041 0.591837 0
0.102041 0.571429 0
0.102041 0.55102 0
0.102041 0.530612 0
0.102041 0.510204 0
0.102041 0.489796 0
0.102041 0.469388 0
0.102041 0.44898 0
0.102041 0.428571 0
0.102041 0.408163 0
0.102041 0.387755 0
0.102041 0.367347 0
0.102041 0.346939 0
0.102041 0.326531 0
0.102041 0.306122 0
0.102041 0.285714 0
0.102041 0.265306 0
0.102041 0.244898 0
0.102041 0.22449 0
0.102041 0.204082 0
0.102041 0.183673 0
0.102041 0.163265 0
0.102041 0.142857 0
0.102041 0.122449 0
0.102041 0.102041 0
0.102041 0.0816327 0
0.102041 0.0612245 0
0.102041 0.0408163 0
0.102041 0.0204082 0
0.122449 0.979592 0
0.122449 0.959184 0
0.122449 0.938776 0
0.122449 0.918367 0
0.122449 0.897959 0
0.122449 0.877551 0
0.122449 0.857143 0
0.122449 0.836735 0
0.122449 0.816327 0
0.122449 0.795918 0
0.122449 0.77551 0
0.122449 0.755102 0
0.122449 0.734694 0
0.122449 0.714286 0
0.122449 0.693878 0
0.122449 0.673469 0
0.122449 0.653061 0
0.122449 0.632653 0
0.122449 0.612245 0
0.122449 0.591837 0
0.122449 0.571429 0
0.122449 0.55102 0
0.122449 0.530612 0
0.122449 0.510204 0
0.122449 0.489796 0
0.122449 0.469388 0
0.122449 0.44898 0
0.122449 0.428571 0
0.122449 0.408163 0
0.122449 0.387755 0
0.122449 0.367347 0
0.122449 0.346939 0
0.122449 0.326531 0
0.122449 0.306122 0
0.122449 0.285714 0
0.122449 0.265306 0
0.122449 0.244898 0
0.122449 0.22449 0
0.122449 0.204082 0
0.122449 0.183673 0
0.122449 0.163265 0
0.122449 0.142857 0
0.122449 0.122449 0
0.122449 0.102041 0
0.122449 0.0816327 0
0.122449 0.0612245 0
0.122449 0.0408163 0
0.122449 0.0204082 0
0.142857 0.979592 0
0.142857 0.959184 0
0.142857 0.938776 0
0.142857 0.918367 0
0.142857 0.897959 0
0.142857 0.877551 0
0.142857 0.857143 0
0.142857 0.836735 0
0.142857 0.816327 0
0.142857 0.795918 0
0.142857 0.77551 0
0.142857 0.755102 0
0.142857 0.734694 0
0.142857 0.714286 0
0.142857 0.693878 0
0.142857 0.673469 0
0.142857 0.653061 0
0.142857 0.632653 0
0.142857 0.612245 0
0.142857 0.591837 0
0.142857 0.571429 0
0.142857 0.55102 0
0.142857 0.530612 0
0.142857 0.510204 0
0.142857 0.489796 0
0.142857 0.469388 0
0.142857 0.44898 0
0.142857 0.428571 0
0.142857 0.408163 0
0.142857 0.387755 0
0.142857 0.367347 0
0.142857 0.346939 0
0.142857 0.326531 0
0.142857 0.306122 0
0.142857 0.285714 0
0.142857 0.265306 0
0.142857 0.244898 0
0.142857 0.22449 0
0.142857 0.204082 0
0.142857 0.183673 0
0.142857 0.163265 0
0.142857 0.142857 0
0.142857 0.122449 0
0.142857 0.102041 0
0.142857 0.0816327 0
0.142857 0.0612245 0
0.142857 0.0408163 0
0.142857 0.0204082 0
0.163265 0.979592 0
0.163265 0.959184 0
0.163265 0.938776 0
0.163265 0.918367 0
0.163265 0.897959 0
0.163265 0.877551 0
0.163265 0.857143 0
0.163265 0.836735 0
0.163265 0.816327 0
0.163265 0.795918 0
0.163265 0.77551 0
0.163265 0.755102 0
0.163265 0.734694 0
0.163265 0.714286 0
0.163265 0.693878 0
0.163265 0.673469 0
0.163265 0.653061 0
0.163265 0.632653 0
0.163265 0.612245 0
0.163265 0.591837 0
0.163265 0.571429 0
0.163265 0.55102 0
[...]
CELL_DATA 2401
VECTORS velocity double
0.257592 0.157654 0
-0.00220962 0.265321 0
-0.0317729 0.206833 0
-0.0250061 0.152451 0
-0.0159113 0.115032 0
-0.00975929 0.0893772 0
-0.00613743 0.0716606 0
-0.00405259 0.0590719 0
-0.00282569 0.049796 0
-0.00207192 0.0427261 0
-0.0015848 0.0371782 0
-0.00125414 0.032716 0
-0.0010198 0.0290516 0
-0.000847657 0.0259887 0
-0.000717387 0.0233892 0
-0.000616338 0.0211538 0
-0.000536289 0.019209 0
-0.000471706 0.0175 0
-0.000418752 0.0159847 0
-0.000374707 0.0146309 0
-0.0003376 0.013413 0
-0.000305981 0.0123109 0
-0.000278768 0.0113084 0
-0.00025514 0.0103921 0
-0.000234467 0.00955114 0
-0.000216263 0.00877648 0
-0.000200147 0.00806041 0
-0.000185817 0.00739639 0
-0.000173033 0.00677878 0
-0.0001616 0.00620265 0
-0.000151364 0.00566368 0
-0.000142194 0.00515804 0
-0.000133985 0.00468229 0
-0.000126647 0.00423334 0
-0.000120105 0.00380839 0
-0.000114288 0.00340492 0
-0.00010913 0.00302066 0
-0.000104558 0.00265359 0
-0.000100483 0.00230202 0
-9.67804e-05 0.00196467 0
-9.32606e-05 0.00164078 0
-8.96193e-05 0.00133042 0
-8.5357e-05 0.00103487 0
-7.96553e-05 0.000757216 0
-7.12069e-05 0.000503282 0
-5.81265e-05 0.000282818 0
-3.8296e-05 0.000109938 0
-1.06174e-05 2.79903e-06 0
1.59613e-05 -1.59086e-05 0
0.34119 0.122981 0
0.000146064 0.249159 0
-0.0645586 0.270626 0
-0.0630203 0.250305 0
-0.0488885 0.218642 0
-0.0359234 0.187245 0
-0.026355 0.159938 0
-0.0196697 0.13729 0
-0.0150261 0.118782 0
-0.0117561 0.103662 0
-0.00940396 0.0912278 0
-0.0076733 0.0809008 0
-0.00637199 0.072229 0
-0.00537389 0.0648653 0
-0.00459441 0.0585442 0
-0.00397558 0.0530628 0
-0.00347681 0.0482646 0
-0.00306916 0.0440284 0
-0.00273166 0.0402595 0
-0.00244889 0.036883 0
-0.00220938 0.0338393 0
-0.00200448 0.0310805 0
-0.00182762 0.0285674 0
-0.00167372 0.0262682 0
-0.00153886 0.0241562 0
-0.00141998 0.0222091 0
-0.00131463 0.0204081 0
-0.00122089 0.018737 0
-0.00113721 0.0171819 0
-0.00106231 0.0157307 0
-0.000995178 0.0143726 0
-0.00093496 0.013098 0
-0.000880943 0.0118986 0
-0.000832514 0.0107667 0
-0.000789131 0.00969532 0
-0.000750285 0.00867842 0
-0.000715465 0.00771048 0
-0.0006841 0.00678677 0
-0.000655495 0.00590341 0
-0.000628722 0.00505762 0
-0.000602473 0.00424807 0
-0.000574841 0.00347543 0
-0.000543025 0.00274319 0
-0.000502958 0.00205869 0
-0.000448966 0.00143444 0
-0.000373929 0.000889456 0
-0.000271089 0.000447988 0
-0.000138824 0.000139133 0
-2.99833e-06 1.0941e-05 0
0.500861 0.0765262 0
0.0983464 0.181177 0
-0.0404802 0.24411 0
-0.0752146 0.257407 0
-0.0745156 0.245872 0
-0.064055 0.22474 0
-0.0525168 0.201292 0
-0.042464 0.178845 0
-0.0343614 0.158661 0
-0.0280141 0.14102 0
-0.0230804 0.125782 0
-0.0192379 0.112659 0
-0.016225 0.101336 0
-0.0138406 0.0915216 0
-0.0119341 0.0829631 0
-0.0103929 0.0754507 0
-0.00913318 0.0688123 0
-0.00809235 0.0629079 0
-0.00722323 0.0576238 0
-0.00649012 0.0528676 0
-0.00586582 0.0485639 0
-0.00532945 0.044651 0
-0.00486486 0.0410777 0
-0.00445951 0.0378015 0
-0.00410351 0.0347868 0
-0.00378909 0.0320034 0
-0.00351006 0.0294256 0
-0.00326143 0.0270311 0
-0.00303921 0.0248008 0
-0.00284011 0.0227178 0
-0.00266146 0.0207671 0
-0.00250102 0.0189354 0
-0.00235689 0.0172109 0
-0.00222745 0.0155829 0
-0.00211121 0.0140418 0
-0.00200678 0.0125789 0
-0.00191272 0.0111868 0
-0.00182745 0.00985886 0
-0.00174901 0.00858982 0
-0.00167487 0.00737599 0
-0.00160155 0.00621569 0
-0.00152422 0.00510993 0
-0.00143609 0.00406335 0
-0.00132789 0.00308531 0
-0.00118751 0.00219129 0
-0.00100084 0.00140413 0
-0.000755237 0.000751842 0
-0.000447561 0.000270192 0
-0.000110603 3.86509e-05 0
0.608437 0.0474779 0
0.191387 0.130165 0
0.00578522 0.200207 0
-0.064318 0.231425 0
-0.0831264 0.236356 0
-0.0815455 0.227512 0
-0.0728971 0.21209 0
-0.0627129 0.194358 0
-0.0531319 0.176594 0
-0.0448386 0.159883 0
-0.0379206 0.144656 0
-0.0322441 0.131006 0
-0.0276134 0.118859 0
-0.0238354 0.108076 0
-0.0207415 0.098494 0
-0.0181929 0.0899575 0
-0.0160784 0.0823242 0
-0.0143101 0.0754701 0
-0.0128189 0.0692887 0
-0.0115511 0.0636901 0
-0.0104644 0.0585983 0
-0.00952576 0.0539491 0
-0.00870915 0.0496887 0
-0.00799402 0.0457711 0
-0.00736406 0.0421574 0
-0.00680623 0.0388141 0
-0.00631009 0.0357123 0
-0.00586719 0.0328268 0
-0.00547066 0.0301356 0
-0.00511488 0.0276194 0
-0.00479519 0.0252608 0
-0.00450769 0.0230445 0
-0.00424906 0.0209565 0
-0.00401639 0.0189843 0
-0.00380707 0.0171168 0
-0.00361855 0.0153437 0
-0.00344824 0.0136563 0
-0.00329323 0.0120469 0
-0.00315002 0.0105095 0
-0.00301406 0.00903956 0
-0.00287932 0.00763524 0
-0.00273755 0.00629751 0
-0.0025775 0.00503131 0
-0.00238426 0.00384662 0
-0.00213886 0.00275992 0
-0.00181936 0.00179572 0
-0.00140499 0.000984327 0
-0.000884964 0.000368368 0
-0.000282702 5.79565e-05 0
0.676311 0.0293513 0
0.26877 0.0929176 0
0.0573724 0.158161 0
-0.0406124 0.196556 0
-0.0789243 0.212046 0
-0.0887635 0.21309 0
-0.0859218 0.205576 0
-0.0780961 0.193637 0
-0.0689156 0.179859 0
-0.0599996 0.165741 0
-0.051988 0.152095 0
-0.045056 0.139315 0
-0.0391712 0.127556 0
-0.0342193 0.116838 0
-0.0300638 0.107114 0
-0.0265728 0.0983035 0
-0.0236298 0.0903177 0
-0.0211363 0.0830672 0
-0.019011 0.0764688 0
-0.0171878 0.0704477 0
-0.0156135 0.0649377 0
-0.0142452 0.0598809 0
-0.0130486 0.0552269 0
-0.0119961 0.0509321 0
-0.0110656 0.0469583 0
-0.010239 0.0432724 0
-0.00950178 0.0398452 0
-0.00884217 0.0366512 0
-0.00825043 0.0336676 0
-0.00771853 0.0308741 0
-0.00723979 0.0282526 0
-0.0068086 0.0257868 0
-0.0064201 0.0234619 0
-0.00607006 0.0212646 0
-0.00575456 0.0191828 0
-0.00546985 0.0172057 0
-0.00521203 0.0153237 0
-0.00497675 0.0135285 0
-0.00475875 0.0118136 0
-0.00455139 0.0101742 0
-0.00434586 0.00860804 0
-0.00413036 0.00711584 0
-0.00388909 0.00570243 0
-0.00360127 0.00437776 0
-0.00324066 0.00315859 0
-0.00277637 0.00207046 0
-0.00217658 0.00114593 0
-0.00141657 0.000434233 0
-0.000498944 6.97771e-05 0
0.722467 0.0182185 0
0.332341 0.0667033 0
0.106975 0.123731 0
-0.0113202 0.162807 0
-0.066772 0.18392 0
-0.0882487 0.191647 0
-0.0924671 0.190435 0
-0.088477 0.183784 0
-0.0810434 0.174155 0
-0.0726032 0.163151 0
-0.06434 0.151763 0
-0.0567733 0.140571 0
-0.05008 0.129894 0
-0.0442677 0.119884 0
-0.0392672 0.110594 0
-0.0349811 0.102023 0
-0.0313079 0.0941374 0
-0.028153 0.0868896 0
-0.0254332 0.0802265 0
-0.0230776 0.0740949 0
-0.0210272 0.0684441 0
-0.0192329 0.0632275 0
-0.0176547 0.0584026 0
-0.0162597 0.0539314 0
-0.0150211 0.0497798 0
-0.0139169 0.0459174 0
-0.0129291 0.0423169 0
-0.0120429 0.0389541 0
-0.0112459 0.0358069 0
-0.0105281 0.0328557 0
-0.00988085 0.0300825 0
-0.00929684 0.027471 0
-0.00876981 0.0250064 0
-0.00829416 0.0226753 0
-0.00786475 0.0204653 0
-0.00747654 0.0183654 0
-0.00712432 0.0163658 0
-0.00680225 0.014458 0
-0.00650332 0.0126351 0
-0.00621871 0.0108921 0
-0.00593685 0.00922649 0
-0.00564236 0.0076387 0
-0.00531481 0.00613325 0
-0.0049274 0.00471989 0
-0.00444606 0.00341549 0
-0.00382966 0.00224652 0
-0.00303265 0.00124776 0
-0.00201177 0.000473976 0
-0.000742618 7.61506e-05 0
0.754748 0.0115157 0
0.383637 0.0485906 0
0.151727 0.0969029 0
0.0193913 0.133412 0
-0.0502203 0.156808 0
-0.0824146 0.168543 0
-0.0939015 0.171843 0
-0.0944434 0.169444 0
-0.0895877 0.163487 0
-0.0824142 0.155496 0
-0.0745793 0.146496 0
-0.0669302 0.137153 0
-0.0598613 0.127879 0
-0.0535199 0.118917 0
-0.047924 0.110398 0
-0.0430288 0.102385 0
-0.0387624 0.0948938 0
-0.0350464 0.0879177 0
-0.031805 0.0814338 0
-0.0289696 0.0754121 0
-0.0264803 0.0698198 0
-0.0242862 0.0646236 0
-0.0223443 0.0597911 0
-0.0206186 0.055292 0
-0.0190793 0.051098 0
-0.0177016 0.047183 0
-0.0164649 0.0435232 0
-0.015352 0.0400966 0
-0.0143486 0.0368831 0
-0.0134428 0.0338643 0
-0.0126243 0.0310234 0
-0.0118845 0.0283448 0
-0.0112157 0.0258142 0
-0.0106111 0.0234185 0
-0.0100644 0.0211456 0
-0.00956929 0.0189847 0
-0.00911941 0.0169259 0
-0.00870741 0.0149609 0
-0.00832458 0.0130826 0
-0.00795996 0.011286 0
-0.00759927 0.00956826 0
-0.0072236 0.00792965 0
-0.00680783 0.0063744 0
-0.00631895 0.00491208 0
-0.00571453 0.00355967 0
-0.00494205 0.00234449 0
-0.0039403 0.00130318 0
-0.00264465 0.000494447 0
-0.00100119 7.89371e-05 0
0.77775 0.0074891 0
0.424683 0.0360703 0
0.190689 0.0764295 0
0.0486592 0.10936 0
-0.031832 0.132673 0
-0.0733041 0.146454 0
-0.0916609 0.1527 0
-0.096892 0.153451 0
-0.0950274 0.150471 0
-0.0896158 0.145107 0
-0.0826951 0.138334 0
-0.0753974 0.130825 0
-0.0683201 0.123033 0
-0.0617504 0.115253 0
-0.0558002 0.107667 0
-0.0504857 0.100383 0
-0.0457747 0.0934598 0
-0.0416128 0.0869225 0
-0.0379385 0.0807758 0
-0.0346913 0.0750117 0
-0.0318155 0.0696145 0
-0.0292614 0.0645646 0
-0.0269861 0.0598406 0
-0.0249526 0.0554205 0
-0.0231299 0.0512826 0
-0.0214916 0.0474059 0
-0.0200154 0.0437707 0
-0.0186829 0.0403581 0
-0.0174781 0.0371507 0
-0.0163877 0.0341319 0
-0.0154003 0.0312863 0
-0.014506 0.0285996 0
-0.0136961 0.0260585 0
-0.0129627 0.0236504 0
-0.0122985 0.021364 0
-0.0116962 0.0191887 0
-0.0111481 0.0171151 0
-0.0106455 0.0151349 0
-0.0101782 0.0132412 0
-0.00973303 0.0114289 0
-0.00929318 0.00969524 0
-0.00883621 0.00804016 0
-0.0083323 0.00646776 0
-0.00774204 0.0049875 0
-0.00701419 0.00361648 0
-0.00608406 0.00238262 0
-0.00487361 0.00132387 0
-0.00329555 0.000501189 0
-0.00126597 7.94365e-05 0
0.794581 0.00503747 0
0.457618 0.0272926 0
0.224156 0.0608012 0
0.0756371 0.0898953 0
-0.0132028 0.11199 0
-0.0624484 0.1265 0
-0.0869758 0.13448 0
-0.0967188 0.137423 0
-0.097961 0.136719 0
-0.0945698 0.13351 0
-0.0888734 0.128668 0
-0.0822378 0.122833 0
-0.0754374 0.11646 0
-0.0688887 0.109863 0
-0.0627949 0.103254 0
-0.057236 0.0967702 0
-0.0522229 0.0904994 0
-0.0477302 0.0844924 0
-0.0437156 0.0787762 0
-0.0401306 0.0733613 0
-0.0369271 0.0682477 0
-0.0340598 0.0634285 0
-0.0314882 0.0588924 0
-0.0291764 0.0546258 0
-0.0270937 0.0506137 0
-0.0252133 0.0468406 0
-0.0235124 0.043291 0
-0.0219718 0.0399497 0
-0.0205747 0.0368017 0
-0.0193071 0.033833 0
-0.0181564 0.0310298 0
-0.0171122 0.0283794 0
-0.0161647 0.0258696 0
-0.0153054 0.0234887 0
-0.0145259 0.0212262 0
-0.0138181 0.0190721 0
-0.0131731 0.0170174 0
-0.0125812 0.0150541 0
-0.0120304 0.0131756 0
-0.0115058 0.011377 0
-0.010988 0.00965517 0
-0.010451 0.00801031 0
-0.00986034 0.00644632 0
-0.00917009 0.00497257 0
-0.00831993 0.00360621 0
-0.00723255 0.00237546 0
-0.0058126 0.00131888 0
-0.00394981 0.000498187 0
-0.00153096 7.84629e-05 0
0.807222 0.00351446 0
0.484179 0.0210401 0
0.252662 0.0488299 0
0.0999076 0.0742344 0
0.00481549 0.0945257 0
-0.0508586 0.108971 0
-0.080779 0.117832 0
-0.0946864 0.122212 0
-0.0989645 0.123173 0
-0.0976833 0.121653 0
-0.0933822 0.118411 0
-0.0876118 0.114027 0
-0.0812944 0.108934 0
-0.0749596 0.103445 0
-0.0688948 0.0977824 0
-0.063241 0.0921011 0
-0.058053 0.0865063 0
-0.0533361 0.0810671 0
-0.0490696 0.0758273 0
-0.0452197 0.0708121 0
-0.0417482 0.0660346 0
-0.0386166 0.0614986 0
-0.0357885 0.0572021 0
-0.0332311 0.0531391 0
-0.0309148 0.049301 0
-0.028814 0.0456774 0
-0.0269062 0.0422571 0
-0.025172 0.0390283 0
-0.0235946 0.035979 0
-0.0221594 0.0330975 0
-0.0208537 0.030372 0
-0.0196661 0.0277912 0
-0.0185867 0.0253443 0
-0.0176059 0.0230208 0
-0.016715 0.0208108 0
-0.0159049 0.0187051 0
-0.015166 0.0166953 0
-0.0144872 0.0147739 0
-0.0138552 0.0129344 0
-0.0132534 0.011172 0
-0.0126597 0.00948409 0
-0.012045 0.00787051 0
-0.0113699 0.0063352 0
-0.010582 0.00488744 0
-0.00961183 0.00354429 0
-0.00836935 0.00233391 0
-0.00674188 0.00129477 0
-0.00459654 0.000488169 0
-0.00179194 7.65075e-05 0
0.816939 0.0025451 0
0.505747 0.0165162 0
0.276864 0.0396205 0
0.121436 0.0616765 0
0.0216075 0.0800328 0
-0.0392175 0.0938365 0
-0.0737553 0.102988 0
-0.0914057 0.108226 0
-0.0985408 0.110345 0
-0.0993462 0.1101 0
-0.096509 0.108135 0
-0.0917208 0.104963 0
-0.0860235 0.100979 0
-0.0800429 0.096483 0
-0.0741404 0.0916952 0
-0.0685131 0.0867762 0
-0.0632575 0.0818411 0
-0.0584096 0.0769706 0
-0.0539707 0.0722197 0
-0.0499233 0.0676251 0
-0.0462406 0.0632096 0
-0.0428922 0.058986 0
-0.0398475 0.0549601 0
-0.0370774 0.0511325 0
-0.0345552 0.0475001 0
-0.032257 0.0440572 0
-0.0301614 0.0407967 0
-0.0282497 0.0377101 0
-0.0265054 0.0347881 0
-0.0249139 0.0320212 0
-0.0234626 0.0293997 0
-0.0221397 0.0269138 0
-0.0209351 0.024554 0
-0.0198388 0.0223109 0
-0.0188415 0.0201755 0
-0.0179335 0.0181396 0
-0.0171043 0.016195 0
-0.016342 0.0143349 0
-0.0156321 0.0125532 0
-0.014956 0.0108454 0
-0.0142894 0.00920879 0
-0.0135998 0.00764342 0
-0.0128433 0.00615315 0
-0.0119609 0.00474712 0
-0.010874 0.00344213 0
-0.00948012 0.00226588 0
-0.00764957 0.00125617 0
-0.00522755 0.000472952 0
-0.00204589 7.38611e-05 0
0.824572 0.00190913 0
0.523404 0.0131832 0
0.297426 0.0324719 0
0.140414 0.0515663 0
0.0370022 0.068019 0
-0.0279553 0.0808937 0
-0.0663994 0.0899386 0
-0.0873522 0.0956067 0
-0.097108 0.0984806 0
-0.0999048 0.0991616 0
-0.098528 0.0981846 0
-0.0947735 0.0959934 0
-0.089778 0.0929425 0
-0.0842462 0.0893079 0
-0.0786033 0.0853007 0
-0.0730962 0.0810798 0
-0.0678594 0.0767634 0
-0.062958 0.0724381 0
-0.0584152 0.0681664 0
-0.0542299 0.0639923 0
-0.0503873 0.059946 0
-0.046866 0.0560472 0
-0.043642 0.0523076 0
-0.0406911 0.0487334 0
-0.03799 0.0453263 0
-0.0355172 0.0420847 0
-0.0332533 0.0390047 0
-0.0311806 0.036081 0
-0.0292834 0.0333069 0
-0.0275477 0.0306748 0
-0.025961 0.028177 0
-0.0245117 0.0258052 0
-0.0231895 0.023551 0
-0.0219842 0.0214063 0
-0.0208862 0.0193631 0
-0.0198853 0.0174135 0
-0.0189705 0.0155505 0
-0.0181288 0.0137674 0
-0.0173446 0.0120588 0
-0.0165978 0.0104201 0
-0.0158616 0.00884912 0
-0.0151005 0.00734582 0
-0.0142661 0.00591402 0
-0.0132929 0.00456263 0
-0.0120936 0.00330798 0
-0.0105534 0.00217698 0
-0.00852635 0.00120628 0
-0.00583653 0.000453733 0
-0.0022905 7.06949e-05 0
0.83068 0.00147711 0
0.537982 0.0106798 0
0.31493 0.0268612 0
0.157073 0.043374 0
0.0509605 0.0580253 0
-0.0173213 0.0698603 0
-0.0590496 0.0785491 0
-0.0828815 0.0843419 0
-0.0949998 0.0876636 0
-0.0996522 0.088986 0
-0.0996845 0.088749 0
-0.0969681 0.087331 0
-0.0927127 0.085044 0
-0.0876873 0.0821378 0
-0.0823703 0.078809 0
-0.0770516 0.0752098 0
-0.0719 0.0714571 0
-0.0670071 0.0676392 0
-0.0624168 0.0638221 0
-0.0581439 0.0600546 0
-0.0541859 0.0563715 0
-0.0505306 0.0527975 0
-0.0471612 0.0493492 0
-0.0440587 0.0460366 0
-0.0412039 0.0428654 0
-0.0385785 0.0398372 0
-0.036165 0.0369514 0
-0.0339475 0.0342048 0
-0.0319115 0.0315932 0
-0.0300437 0.0291108 0
-0.0283321 0.0267515 0
-0.0267656 0.0245084 0
-0.0253338 0.0223744 0
-0.0240266 0.0203422 0
-0.0228342 0.0184049 0
-0.0217459 0.0165553 0
-0.0207503 0.014787 0
-0.0198337 0.0130938 0
-0.0189793 0.0114705 0
-0.0181656 0.00991331 0
-0.0173636 0.00841978 0
-0.0165348 0.00699012 0
-0.0156263 0.00562799 0
-0.0145668 0.00434197 0
-0.0132602 0.00314777 0
-0.01158 0.00207119 0
-0.00936472 0.0011473 0
-0.0064185 0.000431303 0
-0.00252398 6.71101e-05 0
0.835647 0.00117293 0
0.550113 0.00876389 0
0.329865 0.0224079 0
0.171657 0.0366897 0
0.0635136 0.0496791 0
-0.00744352 0.0604488 0
-0.051927 0.0686352 0
-0.0782515 0.0743428 0
-0.0924751 0.0778827 0
-0.0988279 0.0796213 0
-0.100189 0.0799178 0
-0.0984831 0.0790921 0
-0.0949746 0.0774155 0
-0.0904836 0.0751111 0
-0.085533 0.0723587 0
-0.0804492 0.0693012 0
-0.0754308 0.0660505 0
-0.0705936 0.0626938 0
-0.0660003 0.059298 0
-0.0616808 0.0559139 0
-0.0576444 0.0525795 0
-0.0538884 0.0493223 0
-0.0504029 0.0461622 0
-0.0471749 0.0431123 0
-0.0441893 0.0401811 0
-0.0414311 0.0373729 0
-0.0388856 0.0346892 0
-0.0365387 0.0321292 0
-0.0343773 0.0296902 0
-0.0323893 0.0273684 0
-0.0305633 0.0251587 0
-0.0288888 0.0230556 0
-0.0273555 0.0210531 0
-0.0259536 0.0191449 0
-0.0246731 0.0173246 0
-0.0235032 0.0155861 0
-0.0224319 0.0139233 0
-0.0214451 0.0123306 0
-0.020525 0.0108033 0
-0.0196484 0.00933776 0
-0.0187847 0.00793176 0
-0.0178922 0.00658554 0
-0.0169141 0.00530258 0
-0.015773 0.00409104 0
-0.0143649 0.00296582 0
-0.0125522 0.00195133 0
-0.0101585 0.00108076 0
-0.00696937 0.00040619 0
-0.00274484 6.3168e-05 0
0.839739 0.000951296 0
0.560282 0.00727195 0
0.342647 0.0188345 0
0.184407 0.0311971 0
0.0747399 0.0426786 0
0.00164028 0.0523912 0
-0.0451646 0.0600021 0
-0.0736425 0.065486 0
-0.0897299 0.0690766 0
-0.0976241 0.0710564 0
-0.100219 0.0717176 0
-0.0994745 0.0713301 0
-0.0966967 0.0701285 0
-0.0927463 0.0683101 0
-0.0881819 0.0660375 0
-0.0833611 0.0634423 0
-0.0785082 0.0606303 0
-0.0737601 0.0576851 0
-0.0691971 0.0546726 0
-0.0648628 0.0516439 0
-0.0607777 0.0486379 0
-0.056948 0.045684 0
-0.0533713 0.0428039 0
-0.0500398 0.0400128 0
-0.0469434 0.0373211 0
-0.0440703 0.034735 0
-0.0414086 0.0322578 0
-0.0389464 0.0298901 0
-0.0366722 0.0276308 0
-0.0345752 0.0254772 0
-0.0326448 0.0234255 0
-0.0308711 0.0214713 0
-0.0292444 0.0196094 0
-0.027755 0.0178342 0
-0.0263928 0.0161404 0
-0.0251472 0.014522 0
-0.0240057 0.0129739 0
-0.0229535 0.0114908 0
-0.0219721 0.0100684 0
-0.021037 0.00870328 0
-0.0201158 0.00739344 0
-0.0191639 0.00613908 0
-0.0181207 0.00494347 0
-0.0169035 0.00381423 0
-0.0154004 0.00276528 0
-0.0134635 0.00181945 0
-0.0109026 0.00100774 0
-0.00748568 0.000378758 0
-0.00295181 5.89077e-05 0
0.84315 0.000784715 0
0.568865 0.00609154 0
0.353619 0.0159374 0
0.19555 0.0266534 0
0.0847351 0.0367826 0
0.00989232 0.0454951 0
-0.0388483 0.0524769 0
-0.0691815 0.0576449 0
-0.0869121 0.0611628 0
-0.0961931 0.0632473 0
-0.0999203 0.0641367 0
-0.100076 0.0640581 0
-0.0979974 0.0632139 0
-0.0945768 0.0617779 0
-0.0904024 0.0598958 0
-0.0858576 0.0576881 0
-0.0811889 0.0552528 0
-0.0765518 0.0526691 0
-0.072042 0.0500002 0
-0.0677159 0.0472959 0
-0.0636045 0.0445952 0
-0.0597225 0.0419279 0
-0.0560742 0.0393163 0
-0.0526577 0.0367769 0
-0.0494671 0.0343211 0
-0.0464944 0.0319563 0
-0.0437304 0.029687 0
-0.0411656 0.0275149 0
-0.0387901 0.0254398 0
-0.0365944 0.0234601 0
-0.0345691 0.0215729 0
-0.0327048 0.0197745 0
-0.0309924 0.0180604 0
-0.0294225 0.016426 0
-0.0279852 0.0148661 0
-0.0266695 0.0133758 0
-0.0254631 0.0119501 0
-0.0243505 0.0105844 0
-0.0233124 0.0092746 0
-0.0223233 0.00801752 0
-0.0213488 0.00681134 0
-0.0203421 0.00565618 0
-0.0192388 0.00455503 0
-0.0179511 0.00351487 0
-0.0163602 0.00254854 0
-0.0143083 0.00167706 0
-0.0115925 0.000929031 0
-0.00796443 0.000349269 0
-0.00314376 5.43563e-05 0
0.846018 0.000655903 0
0.576151 0.00514314 0
0.363065 0.0135629 0
0.20529 0.022863 0
0.093609 0.0317832 0
0.017336 0.0395656 0
-0.0330278 0.0459022 0
-0.0649591 0.0506944 0
-0.0841339 0.0540489 0
-0.0946556 0.0561324 0
-0.0994126 0.0571398 0
-0.100401 0.0572624 0
-0.0989795 0.0566749 0
-0.0960663 0.0555301 0
-0.0922732 0.0539584 0
-0.0880053 0.0520688 0
-0.0835281 0.0499518 0
-0.0790134 0.047681 0
-0.0745708 0.0453161 0
-0.0702681 0.042905 0
-0.066146 0.0404852 0
-0.0622271 0.038086 0
-0.0585223 0.0357297 0
-0.0550351 0.0334329 0
-0.0517639 0.0312075 0
-0.0487043 0.0290614 0
-0.04585 0.0269997 0
-0.0431935 0.0250246 0
-0.0407269 0.0231368 0
-0.038442 0.0213351 0
-0.0363304 0.0196172 0
-0.0343835 0.0179801 0
-0.0325928 0.01642 0
-0.0309492 0.0149325 0
-0.0294429 0.0135133 0
-0.0280631 0.0121577 0
-0.026797 0.0108612 0
-0.025629 0.00961956 0
-0.0245389 0.00842904 0
-0.0235002 0.00728668 0
-0.022477 0.00619072 0
-0.0214201 0.00514121 0
-0.0202619 0.00414075 0
-0.0189099 0.00319565 0
-0.0172387 0.00231749 0
-0.0150817 0.00152536 0
-0.0122242 0.000845252 0
-0.00840297 0.000317928 0
-0.00331969 4.95348e-05 0
0.848448 0.000553663 0
0.582369 0.00436963 0
0.371217 0.0115943 0
0.213801 0.0196714 0
0.101464 0.0275111 0
0.0240115 0.0344306 0
-0.0277261 0.0401326 0
-0.0610367 0.0445132 0
-0.0814794 0.0476395 0
-0.0931067 0.049641 0
-0.0987939 0.050678 0
-0.100544 0.0509126 0
-0.0997319 0.0504962 0
-0.0972951 0.0495634 0
-0.0938651 0.0482305 0
-0.0898653 0.0465964 0
-0.0855776 0.0447436 0
-0.0811881 0.0427401 0
-0.0768185 0.0406417 0
-0.0725473 0.0384931 0
-0.0684238 0.0363299 0
-0.0644781 0.0341802 0
-0.0607274 0.0320652 0
-0.05718 0.0300012 0
-0.0538386 0.0279997 0
-0.0507022 0.0260687 0
-0.0477672 0.024213 0
-0.0450284 0.0224355 0
-0.0424796 0.0207368 0
-0.0401139 0.0191161 0