# vtk DataFile Version 3.0
Malha 2D com triângulos: velocidade e pressão
ASCII
DATASET UNSTRUCTURED_GRID

POINTS 2500 double
0 0 0
1 0 0
1 1 0
0 1 0
0.0204082 0 0
0.0408163 0 0
0.0612245 0 0
0.0816327 0 0
0.102041 0 0
0.122449 0 0
0.142857 0 0
0.163265 0 0
0.183673 0 0
0.204082 0 0
0.22449 0 0
0.244898 0 0
0.265306 0 0
0.285714 0 0
0.306122 0 0
0.326531 0 0
0.346939 0 0
0.367347 0 0
0.387755 0 0
0.408163 0 0
0.428571 0 0
0.44898 0 0
0.469388 0 0
0.489796 0 0
0.510204 0 0
0.530612 0 0
0.55102 0 0
0.571429 0 0
0.591837 0 0
0.612245 0 0
0.632653 0 0
0.653061 0 0
0.673469 0 0
0.693878 0 0
0.714286 0 0
0.734694 0 0
0.755102 0 0
0.77551 0 0
0.795918 0 0
0.816327 0 0
0.836735 0 0
0.857143 0 0
0.877551 0 0
0.897959 0 0
0.918367 0 0
0.938776 0 0
0.959184 0 0
0.979592 0 0
1 0.0204082 0
1 0.0408163 0
1 0.0612245 0
1 0.0816327 0
1 0.102041 0
1 0.122449 0
1 0.142857 0
1 0.163265 0
1 0.183673 0
1 0.204082 0
1 0.22449 0
1 0.244898 0
1 0.265306 0
1 0.285714 0
1 0.306122 0
1 0.326531 0
1 0.346939 0
1 0.367347 0
1 0.387755 0
1 0.408163 0
1 0.428571 0
1 0.44898 0
1 0.469388 0
1 0.489796 0
1 0.510204 0
1 0.530612 0
1 0.55102 0
1 0.571429 0
1 0.591837 0
1 0.612245 0
1 0.632653 0
1 0.653061 0
1 0.673469 0
1 0.693878 0
1 0.714286 0
1 0.734694 0
1 0.755102 0
1 0.77551 0
1 0.795918 0
1 0.816327 0
1 0.836735 0
1 0.857143 0
1 0.877551 0
1 0.897959 0
1 0.918367 0
1 0.938776 0
1 0.959184 0
1 0.979592 0
0.979592 1 0
0.959184 1 0
0.938776 1 0
0.918367 1 0
0.897959 1 0
0.877551 1 0
0.857143 1 0
0.836735 1 0
0.816327 1 0
0.795918 1 0
0.77551 1 0
0.755102 1 0
0.734694 1 0
0.714286 1 0
0.693878 1 0
0.673469 1 0
0.653061 1 0
0.632653 1 0
0.612245 1 0
0.591837 1 0
0.571429 1 0
0.55102 1 0
0.530612 1 0
0.510204 1 0
0.489796 1 0
0.469388 1 0
0.44898 1 0
0.428571 1 0
0.408163 1 0
0.387755 1 0
0.367347 1 0
0.346939 1 0
0.326531 1 0
0.306122 1 0
0.285714 1 0
0.265306 1 0
0.244898 1 0
0.22449 1 0
0.204082 1 0
0.183673 1 0
0.163265 1 0
0.142857 1 0
0.122449 1 0
0.102041 1 0
0.0816327 1 0
0.0612245 1 0
0.0408163 1 0
0.0204082 1 0
0 0.979592 0
0 0.959184 0
0 0.938776 0
0 0.918367 0
0 0.897959 0
0 0.877551 0
0 0.857143 0
0 0.836735 0
0 0.816327 0
0 0.795918 0
0 0.77551 0
0 0.755102 0
0 0.734694 0
0 0.714286 0
0 0.693878 0
0 0.673469 0
0 0.653061 0
0 0.632653 0
0 0.612245 0
0 0.591837 0
0 0.571429 0
0 0.55102 0
0 0.530612 0
0 0.510204 0
0 0.489796 0
0 0.469388 0
0 0.44898 0
0 0.428571 0
0 0.408163 0
0 0.387755 0
0 0.367347 0
0 0.346939 0
0 0.326531 0
0 0.306122 0
0 0.285714 0
0 0.265306 0
0 0.244898 0
0 0.22449 0
0 0.204082 0
0 0.183673 0
0 0.163265 0
0 0.142857 0
0 0.122449 0
0 0.102041 0
0 0.0816327 0
0 0.0612245 0
0 0.0408163 0
0 0.0204082 0
0.0204082 0.979592 0
0.0204082 0.959184 0
0.0204082 0.938776 0
0.0204082 0.918367 0
0.0204082 0.897959 0
0.0204082 0.877551 0
0.0204082 0.857143 0
0.0204082 0.836735 0
0.0204082 0.816327 0
0.0204082 0.795918 0
0.0204082 0.77551 0
0.0204082 0.755102 0
0.0204082 0.734694 0
0.0204082 0.714286 0
0.0204082 0.693878 0
0.0204082 0.673469 0
0.0204082 0.653061 0
0.0204082 0.632653 0
0.0204082 0.612245 0
0.0204082 0.591837 0
0.0204082 0.571429 0
0.0204082 0.55102 0
0.0204082 0.530612 0
0.0204082 0.510204 0
0.0204082 0.489796 0
0.0204082 0.469388 0
0.0204082 0.44898 0
0.0204082 0.428571 0
0.0204082 0.408163 0
0.0204082 0.387755 0
0.0204082 0.367347 0
0.0204082 0.346939 0
0.0204082 0.326531 0
0.0204082 0.306122 0
0.0204082 0.285714 0
0.0204082 0.265306 0
0.0204082 0.244898 0
0.0204082 0.22449 0
0.0204082 0.204082 0
0.0204082 0.183673 0
0.0204082 0.163265 0
0.0204082 0.142857 0
0.0204082 0.122449 0
0.0204082 0.102041 0
0.0204082 0.0816327 0
0.0204082 0.0612245 0
0.0204082 0.0408163 0
0.0204082 0.0204082 0
0.0408163 0.979592 0
0.0408163 0.959184 0
0.0408163 0.938776 0
0.0408163 0.918367 0
0.0408163 0.897959 0
0.0408163 0.877551 0
0.0408163 0.857143 0
0.0408163 0.836735 0
0.0408163 0.816327 0
0.0408163 0.795918 0
0.0408163 0.77551 0
0.0408163 0.755102 0
0.0408163 0.734694 0
0.0408163 0.714286 0
0.0408163 0.693878 0
0.0408163 0.673469 0
0.0408163 0.653061 0
0.0408163 0.632653 0
0.0408163 0.612245 0
0.0408163 0.591837 0
0.0408163 0.571429 0
0.0408163 0.55102 0
0.0408163 0.530612 0
0.0408163 0.510204 0
0.0408163 0.489796 0
0.0408163 0.469388 0
0.0408163 0.44898 0
0.0408163 0.428571 0
0.0408163 0.408163 0
0.0408163 0.387755 0
0.0408163 0.367347 0
0.0408163 0.346939 0
0.0408163 0.326531 0
0.0408163 0.306122 0
0.0408163 0.285714 0
0.0408163 0.265306 0
0.0408163 0.244898 0
0.0408163 0.22449 0
0.0408163 0.204082 0
0.0408163 0.183673 0
0.0408163 0.163265 0
0.0408163 0.142857 0
0.0408163 0.122449 0
0.0408163 0.102041 0
0.0408163 0.0816327 0
0.0408163 0.0612245 0
0.0408163 0.0408163 0
0.0408163 0.0204082 0
0.0612245 0.979592 0
0.0612245 0.959184 0
0.0612245 0.938776 0
0.0612245 0.918367 0
0.0612245 0.897959 0
0.0612245 0.877551 0
0.0612245 0.857143 0
0.0612245 0.836735 0
0.0612245 0.816327 0
0.0612245 0.795918 0
0.0612245 0.77551 0
0.0612245 0.755102 0
0.0612245 0.734694 0
0.0612245 0.714286 0
0.0612245 0.693878 0
0.0612245 0.673469 0
0.0612245 0.653061 0
0.0612245 0.632653 0
0.0612245 0.612245 0
0.0612245 0.591837 0
0.0612245 0.571429 0
0.0612245 0.55102 0
0.0612245 0.530612 0
0.0612245 0.510204 0
0.0612245 0.489796 0
0.0612245 0.469388 0
0.0612245 0.44898 0
0.0612245 0.428571 0
0.0612245 0.408163 0
0.0612245 0.387755 0
0.0612245 0.367347 0
0.0612245 0.346939 0
0.0612245 0.326531 0
0.0612245 0.306122 0
0.0612245 0.285714 0
0.0612245 0.265306 0
0.0612245 0.244898 0
0.0612245 0.22449 0
0.0612245 0.204082 0
0.0612245 0.183673 0
0.0612245 0.163265 0
0.0612245 0.142857 0
0.0612245 0.122449 0
0.0612245 0.102041 0
0.0612245 0.0816327 0
0.0612245 0.0612245 0
0.0612245 0.0408163 0
0.0612245 0.0204082 0
0.0816327 0.979592 0
0.0816327 0.959184 0
0.0816327 0.938776 0
0.0816327 0.918367 0
0.0816327 0.897959 0
0.0816327 0.877551 0
0.0816327 0.857143 0
0.0816327 0.836735 0
0.0816327 0.816327 0
0.0816327 0.795918 0
0.0816327 0.77551 0
0.0816327 0.755102 0
0.0816327 0.734694 0
0.0816327 0.714286 0
0.0816327 0.693878 0
0.0816327 0.673469 0
0.0816327 0.653061 0
0.0816327 0.632653 0
0.0816327 0.612245 0
0.0816327 0.591837 0
0.0816327 0.571429 0
0.0816327 0.55102 0
0.0816327 0.530612 0
0.0816327 0.510204 0
0.0816327 0.489796 0
0.0816327 0.469388 0
0.0816327 0.44898 0
0.0816327 0.428571 0
0.0816327 0.408163 0
0.0816327 0.387755 0
0.0816327 0.367347 0
0.0816327 0.346939 0
0.0816327 0.326531 0
0.0816327 0.306122 0
0.0816327 0.285714 0
0.0816327 0.265306 0
0.0816327 0.244898 0
0.0816327 0.22449 0
0.0816327 0.204082 0
0.0816327 0.183673 0
0.0816327 0.163265 0
0.0816327 0.142857 0
0.0816327 0.122449 0
0.0816327 0.102041 0
0.0816327 0.0816327 0
0.0816327 0.0612245 0
0.0816327 0.0408163 0
0.0816327 0.0204082 0
0.102041 0.979592 0
0.102041 0.959184 0
0.102041 0.938776 0
0.102041 0.918367 0
0.102041 0.897959 0
0.102041 0.877551 0
0.102041 0.857143 0
0.102041 0.836735 0
0.102041 0.816327 0
0.102041 0.795918 0
0.102041 0.77551 0
0.102041 0.755102 0
0.102041 0.734694 0
0.102041 0.714286 0
0.102041 0.693878 0
0.102041 0.673469 0
0.102041 0.653061 0
0.102041 0.632653 0
0.102041 0.612245 0
0.102041 0.591837 0
0.102041 0.571429 0
0.102041 0.55102 0
0.102041 0.530612 0
0.102041 0.510204 0
0.102041 0.489796 0
0.102041 0.469388 0
0.102041 0.44898 0
0.102041 0.428571 0
0.102041 0.408163 0
0.102041 0.387755 0
0.102041 0.367347 0
0.102041 0.346939 0
0.102041 0.326531 0
0.102041 0.306122 0
0.102041 0.285714 0
0.102041 0.265306 0
0.102041 0.244898 0
0.102041 0.22449 0
0.102041 0.204082 0
0.102041 0.183673 0
0.102041 0.163265 0
0.102041 0.142857 0
0.102041 0.122449 0
0.102041 0.102041 0
0.102041 0.0816327 0
0.102041 0.0612245 0
0.102041 0.0408163 0
0.102041 0.0204082 0
0.122449 0.979592 0
0.122449 0.959184 0
0.122449 0.938776 0
0.122449 0.918367 0
0.122449 0.897959 0
0.122449 0.877551 0
0.122449 0.857143 0
0.122449 0.836735 0
0.122449 0.816327 0
0.122449 0.795918 0
0.122449 0.77551 0
0.122449 0.755102 0
0.122449 0.734694 0
0.122449 0.714286 0
0.122449 0.693878 0
0.122449 0.673469 0
0.122449 0.653061 0
0.122449 0.632653 0
0.122449 0.612245 0
0.122449 0.591837 0
0.122449 0.571429 0
0.122449 0.55102 0
0.122449 0.530612 0
0.122449 0.510204 0
0.122449 0.489796 0
0.122449 0.469388 0
0.122449 0.44898 0
0.122449 0.428571 0
0.122449 0.408163 0
0.122449 0.387755 0
0.122449 0.367347 0
0.122449 0.346939 0
0.122449 0.326531 0
0.122449 0.306122 0
0.122449 0.285714 0
0.122449 0.265306 0
0.122449 0.244898 0
0.122449 0.22449 0
0.122449 0.204082 0
0.122449 0.183673 0
0.122449 0.163265 0
0.122449 0.142857 0
0.122449 0.122449 0
0.122449 0.102041 0
0.122449 0.0816327 0
0.122449 0.0612245 0
0.122449 0.0408163 0
0.122449 0.0204082 0
0.142857 0.979592 0
0.142857 0.959184 0
0.142857 0.938776 0
0.142857 0.918367 0
0.142857 0.897959 0
0.142857 0.877551 0
0.142857 0.857143 0
0.142857 0.836735 0
0.142857 0.816327 0
0.142857 0.795918 0
0.142857 0.77551 0
0.142857 0.755102 0
0.142857 0.734694 0
0.142857 0.714286 0
0.142857 0.693878 0
0.142857 0.673469 0
0.142857 0.653061 0
0.142857 0.632653 0
0.142857 0.612245 0
0.142857 0.591837 0
0.142857 0.571429 0
0.142857 0.55102 0
0.142857 0.530612 0
0.142857 0.510204 0
0.142857 0.489796 0
0.142857 0.469388 0
0.142857 0.44898 0
0.142857 0.428571 0
0.142857 0.408163 0
0.142857 0.387755 0
0.142857 0.367347 0
0.142857 0.346939 0
0.142857 0.326531 0
0.142857 0.306122 0
0.142857 0.285714 0
0.142857 0.265306 0
0.142857 0.244898 0
0.142857 0.22449 0
0.142857 0.204082 0
0.142857 0.183673 0
0.142857 0.163265 0
0.142857 0.142857 0
0.142857 0.122449 0
0.142857 0.102041 0
0.142857 0.0816327 0
0.142857 0.0612245 0
0.142857 0.0408163 0
0.142857 0.0204082 0
0.163265 0.979592 0
0.163265 0.959184 0
0.163265 0.938776 0
0.163265 0.918367 0
0.163265 0.897959 0
0.163265 0.877551 0
0.163265 0.857143 0
0.163265 0.836735 0
0.163265 0.816327 0
0.163265 0.795918 0
0.163265 0.77551 0
0.163265 0.755102 0
0.163265 0.734694 0
0.163265 0.714286 0
0.163265 0.693878 0
0.163265 0.673469 0
0.163265 0.653061 0
0.163265 0.632653 0
0.163265 0.612245 0
0.163265 0.591837 0
0.163265 0.571429 0
0.163265 0.55102 0
[...]
CELL_DATA 2401
VECTORS velocity double
0.257547 0.157686 0
-0.00224773 0.265504 0
-0.0317826 0.20744 0
-0.0249725 0.153458 0
-0.0158533 0.116388 0
-0.00970185 0.0909821 0
-0.00609363 0.0733975 0
-0.00402501 0.0608401 0
-0.00281165 0.0515219 0
-0.00206722 0.0443628 0
-0.00158559 0.0387 0
-0.00125761 0.0341124 0
-0.00102416 0.0303222 0
-0.0008519 0.0271386 0
-0.000721052 0.0244267 0
-0.000619284 0.0220879 0
-0.000538546 0.0200491 0
-0.000473382 0.0182548 0
-0.000419978 0.0166622 0
-0.000375606 0.0152381 0
-0.000338276 0.0139561 0
-0.000306517 0.0127954 0
-0.000279223 0.0117389 0
-0.000255555 0.0107728 0
-0.000234871 0.00988573 0
-0.000216674 0.00906818 0
-0.000200576 0.00831209 0
-0.000186271 0.00761061 0
-0.000173518 0.00695784 0
-0.000162121 0.0063486 0
-0.000151923 0.00577838 0
-0.000142795 0.00524315 0
-0.000134627 0.00473933 0
-0.000127326 0.0042637 0
-0.000120804 0.00381339 0
-0.000114978 0.00338586 0
-0.000109757 0.0029789 0
-0.000105031 0.00259068 0
-0.00010066 0.00221985 0
-9.64494e-05 0.00186564 0
-9.21192e-05 0.00152809 0
-8.72572e-05 0.00120831 0
-8.12566e-05 0.000908946 0
-7.32382e-05 0.000634633 0
-6.19843e-05 0.000392669 0
-4.60458e-05 0.000193584 0
-2.44116e-05 5.06164e-05 0
1.77398e-06 -2.32332e-05 0
2.07623e-05 -2.07019e-05 0
0.341514 0.123416 0
0.00104658 0.251022 0
-0.0636048 0.274545 0
-0.0621849 0.255881 0
-0.0482752 0.225415 0
-0.0355627 0.194753 0
-0.0262202 0.167766 0
-0.0197082 0.145114 0
-0.0151821 0.126374 0
-0.011982 0.110878 0
-0.00966391 0.0979873 0
-0.00794289 0.0871704 0
-0.00663597 0.0780057 0
-0.00562371 0.0701648 0
-0.00482605 0.0633927 0
-0.00418784 0.0574913 0
-0.00367016 0.0523054 0
-0.00324493 0.0477129 0
-0.00289154 0.0436172 0
-0.00259464 0.0399408 0
-0.00234267 0.0366215 0
-0.00212682 0.033609 0
-0.00194032 0.0308618 0
-0.00177793 0.0283459 0
-0.00163556 0.0260328 0
-0.00151 0.0238987 0
-0.0013987 0.0219232 0
-0.00129963 0.020089 0
-0.00121116 0.0183811 0
-0.00113197 0.0167861 0
-0.00106096 0.0152927 0
-0.00099723 0.0138905 0
-0.000939998 0.0125703 0
-0.000888571 0.011324 0
-0.000842301 0.0101444 0
-0.000800539 0.0090251 0
-0.00076258 0.00796062 0
-0.000727602 0.0069466 0
-0.000694577 0.0059799 0
-0.000662163 0.00505894 0
-0.000628567 0.00418414 0
-0.000591374 0.00335853 0
-0.000547371 0.00258846 0
-0.000492425 0.00188434 0
-0.000421598 0.00126138 0
-0.000330053 0.000739626 0
-0.000215889 0.000341255 0
-8.5962e-05 8.64255e-05 0
2.30349e-05 -1.40353e-06 0
0.502699 0.0772331 0
0.101947 0.184527 0
-0.0369585 0.251119 0
-0.0723675 0.267396 0
-0.0725547 0.257982 0
-0.0629688 0.238183 0
-0.0521674 0.215372 0
-0.0426671 0.193013 0
-0.0349385 0.172523 0
-0.0288172 0.154314 0
-0.0239985 0.138352 0
-0.0201942 0.124425 0
-0.01717 0.112274 0
-0.0147452 0.101641 0
-0.0127829 0.0922954 0
-0.0111799 0.0840388 0
-0.00985807 0.076704 0
-0.00875786 0.0701522 0
-0.00783372 0.0642683 0
-0.00705056 0.0589571 0
-0.00638123 0.05414 0
-0.00580454 0.0497516 0
-0.00530393 0.0457375 0
-0.00486638 0.0420518 0
-0.00448157 0.0386561 0
-0.0041413 0.0355174 0
-0.00383902 0.0326076 0
-0.00356944 0.0299024 0
-0.0033283 0.0273806 0
-0.0031121 0.0250235 0
-0.00291793 0.0228146 0
-0.00274334 0.0207394 0
-0.00258622 0.0187847 0
-0.00244466 0.0169388 0
-0.00231687 0.0151915 0
-0.00220103 0.0135336 0
-0.00209515 0.0119575 0
-0.00199695 0.010457 0
-0.00190362 0.00902769 0
-0.00181157 0.00766746 0
-0.00171616 0.0063769 0
-0.00161139 0.00516005 0
-0.00148965 0.00402519 0
-0.00134177 0.00298557 0
-0.00115759 0.00205997 0
-0.000928241 0.00127257 0
-0.000651444 0.000649143 0
-0.000340852 0.000215722 0
-5.14911e-05 2.49586e-05 0
0.612453 0.0483069 0
0.198865 0.134388 0
0.0133881 0.209171 0
-0.0583299 0.244581 0
-0.0790165 0.25253 0
-0.0792097 0.245657 0
-0.0720418 0.231287 0
-0.062978 0.213871 0
-0.0541729 0.195876 0
-0.0463678 0.178554 0
-0.0397184 0.162474 0
-0.0341543 0.147831 0
-0.029532 0.134627 0
-0.0256976 0.122773 0
-0.0225107 0.11214 0
-0.0198513 0.102594 0
-0.0176204 0.0940026 0
-0.0157374 0.0862468 0
-0.0141375 0.0792214 0
-0.0127688 0.0728351 0
-0.0115898 0.0670092 0
-0.0105673 0.0616761 0
-0.00967483 0.0567783 0
-0.0088912 0.0522661 0
-0.00819937 0.0480971 0
-0.00758562 0.0442346 0
-0.00703887 0.0406464 0
-0.00655011 0.0373048 0
-0.00611197 0.0341851 0
-0.00571836 0.0312655 0
-0.00536422 0.0285268 0
-0.0050452 0.0259514 0
-0.00475754 0.023524 0
-0.0044978 0.0212307 0
-0.00426273 0.019059 0
-0.004049 0.0169981 0
-0.00385301 0.015039 0
-0.0036706 0.0131742 0
-0.00349671 0.0113984 0
-0.00332502 0.00970917 0
-0.0031475 0.00810681 0
-0.00295401 0.00659571 0
-0.00273205 0.00518479 0
-0.00246695 0.00388832 0
-0.00214298 0.0027265 0
-0.00174652 0.00172564 0
-0.00127269 0.000914292 0
-0.00073602 0.000326025 0
-0.000194325 4.62836e-05 0
0.682843 0.0301968 0
0.280846 0.0975238 0
0.0697342 0.168261 0
-0.0306277 0.211556 0
-0.0719637 0.230826 0
-0.0846559 0.234407 0
-0.0842068 0.228373 0
-0.0782163 0.217044 0
-0.070336 0.203212 0
-0.0622685 0.188562 0
-0.0547542 0.174059 0
-0.048064 0.160221 0
-0.0422453 0.147292 0
-0.0372456 0.135358 0
-0.0329735 0.124416 0
-0.0293285 0.114414 0
-0.026215 0.105281 0
-0.0235478 0.0969383 0
-0.0212534 0.0893068 0
-0.0192702 0.082313 0
-0.0175471 0.0758896 0
-0.0160418 0.0699765 0
-0.0147199 0.0645201 0
-0.013553 0.0594733 0
-0.0125183 0.0547946 0
-0.0115968 0.0504474 0
-0.0107733 0.0463993 0
-0.010035 0.0426214 0
-0.00937155 0.0390883 0
-0.00877417 0.0357769 0
-0.00823556 0.0326666 0
-0.00774941 0.0297389 0
-0.00731017 0.026977 0
-0.00691276 0.0243658 0
-0.00655228 0.0218919 0
-0.00622376 0.0195435 0
-0.00592175 0.0173105 0
-0.00564004 0.0151849 0
-0.00537109 0.0131607 0
-0.0051056 0.0112349 0
-0.00483196 0.00940772 0
-0.00453566 0.0076832 0
-0.00419915 0.00607031 0
-0.00380198 0.00458348 0
-0.00332232 0.0032435 0
-0.00274038 0.00207834 0
-0.00204537 0.00111966 0
-0.00124591 0.000409154 0
-0.000390331 6.11988e-05 0
0.731589 0.0189968 0
0.349401 0.0712841 0
0.12472 0.134114 0
0.00349852 0.178406 0
-0.0563203 0.20396 0
-0.0818726 0.214712 0
-0.08952 0.215386 0
-0.0881883 0.209658 0
-0.0826743 0.200201 0
-0.0755238 0.188814 0
-0.0680541 0.176654 0
-0.0609128 0.164433 0
-0.0543855 0.152569 0
-0.0485652 0.14129 0
-0.0434468 0.130701 0
-0.0389784 0.120839 0
-0.0350894 0.111692 0
-0.0317059 0.103229 0
-0.0287576 0.0954042 0
-0.0261814 0.0881697 0
-0.0239222 0.0814755 0
-0.0219332 0.0752744 0
-0.0201747 0.069522 0
-0.0186137 0.0641775 0
-0.0172226 0.0592041 0
-0.0159785 0.0545681 0
-0.0148626 0.0502392 0
-0.013859 0.0461899 0
-0.0129546 0.0423954 0
-0.0121382 0.038833 0
-0.0114005 0.0354823 0
-0.0107333 0.0323244 0
-0.0101292 0.0293424 0
-0.00958151 0.0265209 0
-0.00908374 0.0238461 0
-0.00862917 0.0213056 0
-0.0082105 0.0188891 0
-0.00781935 0.0165881 0
-0.00744566 0.0143963 0
-0.00707712 0.0123101 0
-0.00669841 0.0103295 0
-0.00629066 0.00845821 0
-0.00583105 0.00670486 0
-0.00529309 0.0050838 0
-0.00464801 0.00361626 0
-0.00386818 0.00233183 0
-0.00293362 0.00126545 0
-0.00184164 0.000466237 0
-0.000623592 7.06047e-05 0
0.76634 0.0121964 0
0.405711 0.0529407 0
0.175031 0.107101 0
0.0391383 0.149116 0
-0.035867 0.177147 0
-0.0733734 0.192272 0
-0.0893849 0.197781 0
-0.0934748 0.196586 0
-0.0912229 0.191034 0
-0.0858407 0.182842 0
-0.0791496 0.173203 0
-0.0721563 0.162919 0
-0.0653924 0.152507 0
-0.059115 0.142291 0
-0.0534252 0.132461 0
-0.0483382 0.123122 0
-0.0438248 0.114319 0
-0.0398351 0.106063 0
-0.036312 0.0983445 0
-0.0331986 0.0911405 0
-0.0304421 0.0844215 0
-0.0279951 0.0781556 0
-0.0258165 0.0723099 0
-0.0238707 0.0668527 0
-0.0221276 0.0617535 0
-0.0205616 0.0569836 0
-0.0191514 0.0525164 0
-0.0178787 0.0483273 0
-0.0167284 0.0443932 0
-0.0156873 0.0406931 0
-0.0147441 0.0372074 0
-0.0138892 0.0339182 0
-0.0131136 0.0308087 0
-0.0124091 0.027864 0
-0.0117676 0.0250703 0
-0.0111807 0.0224154 0
-0.0106393 0.0198887 0
-0.0101329 0.0174816 0
-0.00964908 0.0151877 0
-0.00917238 0.0130031 0
-0.00868391 0.0109274 0
-0.00816035 0.00896393 0
-0.00757354 0.00712106 0
-0.00689053 0.00541302 0
-0.00607478 0.0038615 0
-0.00508921 0.00249764 0
-0.00390205 0.00135939 0
-0.00249565 0.000501727 0
-0.000880632 7.59145e-05 0
0.791605 0.00805885 0
0.451629 0.0400461 0
0.219603 0.0860669 0
0.073571 0.12452 0
-0.0133356 0.152606 0
-0.0613279 0.170041 0
-0.0853034 0.178736 0
-0.0949972 0.180934 0
-0.0964572 0.178579 0
-0.0933789 0.173204 0
-0.0879921 0.165945 0
-0.0816179 0.157614 0
-0.0750183 0.148773 0
-0.0686135 0.139799 0
-0.0626175 0.130936 0
-0.0571221 0.12234 0
-0.0521487 0.1141 0
-0.0476801 0.106265 0
-0.0436801 0.0988545 0
-0.0401043 0.0918701 0
-0.0369071 0.0853023 0
-0.0340447 0.0791343 0
-0.0314775 0.073346 0
-0.0291701 0.0679149 0
-0.0270916 0.0628183 0
-0.0252155 0.0580334 0
-0.0235189 0.0535383 0
-0.0219822 0.0493118 0
-0.0205887 0.0453336 0
-0.019324 0.041585 0
-0.0181755 0.0380479 0
-0.017132 0.0347056 0
-0.0161833 0.0315424 0
-0.0153199 0.028544 0
-0.0145324 0.0256971 0
-0.0138108 0.0229898 0
-0.0131443 0.0204118 0
-0.0125204 0.0179545 0
-0.0119242 0.0156113 0
-0.0113375 0.0133783 0
-0.0107376 0.0112547 0
-0.010097 0.00924376 0
-0.00938191 0.00735343 0
-0.00855257 0.00559795 0
-0.00756392 0.00399946 0
-0.0063682 0.0025904 0
-0.00492008 0.00141103 0
-0.00318487 0.000520392 0
-0.00115109 7.83415e-05 0
0.810444 0.00550087 0
0.489137 0.0308406 0
0.258501 0.0696954 0
0.105694 0.104177 0
0.00970603 0.130938 0
-0.0472942 0.149336 0
-0.0785398 0.159963 0
-0.0936743 0.164567 0
-0.0989841 0.164691 0
-0.0984953 0.161651 0
-0.0947519 0.156483 0
-0.0893362 0.14996 0
-0.0832132 0.142646 0
-0.076955 0.13494 0
-0.0708856 0.127118 0
-0.0651753 0.119366 0
-0.0599002 0.111806 0
-0.0550811 0.104515 0
-0.050707 0.0975379 0
-0.0467508 0.0908962 0
-0.0431778 0.084598 0
-0.0399513 0.0786412 0
-0.0370358 0.0730171 0
-0.0343982 0.067713 0
-0.0320089 0.0627136 0
-0.0298415 0.0580026 0
-0.027873 0.0535628 0
-0.0260833 0.049377 0
-0.024455 0.0454283 0
-0.0229729 0.0417002 0
-0.0216235 0.0381767 0
-0.0203946 0.0348428 0
-0.0192751 0.031684 0
-0.0182543 0.0286868 0
-0.0173217 0.0258388 0
-0.0164659 0.0231286 0
-0.0156746 0.0205462 0
-0.0149334 0.0180832 0
-0.0142252 0.0157332 0
-0.0135289 0.0134922 0
-0.0128184 0.0113592 0
-0.0120616 0.00933724 0
-0.0112192 0.00743417 0
-0.0102443 0.00566419 0
-0.00908287 0.00404976 0
-0.0076755 0.00262418 0
-0.00596235 0.00142926 0
-0.00389076 0.000526275 0
-0.00142723 7.87677e-05 0
0.824838 0.00388774 0
0.519911 0.0241737 0
0.292168 0.0569474 0
0.134958 0.087537 0
0.0319368 0.112465 0
-0.0324163 0.130736 0
-0.0700904 0.14237 0
-0.0903058 0.148568 0
-0.0994002 0.150523 0
-0.101605 0.149336 0
-0.0996956 0.145918 0
-0.0954626 0.14098 0
-0.0900435 0.135062 0
-0.0841451 0.128561 0
-0.0781936 0.121765 0
-0.0724347 0.114878 0
-0.0669997 0.108042 0
-0.0619489 0.101354 0
-0.0572996 0.0948774 0
-0.0530443 0.0886506 0
-0.0491621 0.0826962 0
-0.0456256 0.0770244 0
-0.0424057 0.0716369 0
-0.0394735 0.0665299 0
-0.0368019 0.0616953 0
-0.0343663 0.0571226 0
-0.0321444 0.0527996 0
-0.0301166 0.0487131 0
-0.0282655 0.0448493 0
-0.0265755 0.0411945 0
-0.0250328 0.037735 0
-0.0236246 0.0344571 0
-0.0223392 0.031348 0
-0.0211651 0.0283953 0
-0.0200906 0.0255873 0
-0.0191033 0.0229134 0
-0.0181896 0.0203641 0
-0.0173333 0.0179313 0
-0.0165151 0.0156087 0
-0.0157114 0.0133923 0
-0.0148925 0.0112813 0
-0.014022 0.0092783 0
-0.0130548 0.00739118 0
-0.0119368 0.00563403 0
-0.0106045 0.00402944 0
-0.0089866 0.00261109 0
-0.00700826 0.00142144 0
-0.00459877 0.000522521 0
-0.00170328 7.77984e-05 0
0.836079 0.00284401 0
0.545321 0.0192617 0
0.321235 0.0469497 0
0.161335 0.073912 0
0.0529291 0.0967878 0
-0.0174537 0.114357 0
-0.0607148 0.126347 0
-0.0855513 0.133506 0
-0.0982383 0.136751 0
-0.103116 0.136981 0
-0.103118 0.134978 0
-0.100199 0.13138 0
-0.0956375 0.126686 0
-0.0902555 0.121277 0
-0.0845708 0.115441 0
-0.0788991 0.109388 0
-0.0734244 0.103271 0
-0.0682464 0.0971989 0
-0.0634111 0.0912486 0
-0.0589322 0.0854716 0
-0.0548041 0.0799014 0
-0.0510106 0.0745585 0
-0.0475302 0.0694534 0
-0.0443398 0.0645898 0
-0.0414161 0.059966 0
-0.0387371 0.055577 0
-0.0362824 0.0514151 0
-0.0340335 0.0474707 0
-0.0319735 0.0437335 0
-0.0300872 0.040192 0
-0.0283608 0.0368347 0
-0.0267814 0.0336499 0
-0.0253368 0.0306259 0
-0.024015 0.0277517 0
-0.0228035 0.0250164 0
-0.021689 0.0224101 0
-0.0206567 0.0199239 0
-0.0196888 0.0175501 0
-0.0187641 0.0152826 0
-0.0178562 0.0131176 0
-0.0169324 0.0110541 0
-0.0159516 0.00909488 0
-0.0148634 0.00724746 0
-0.013606 0.00552585 0
-0.0121064 0.00395246 0
-0.0102815 0.00256084 0
-0.00804132 0.00139333 0
-0.00529753 0.000511455 0
-0.00197497 7.58354e-05 0
0.845027 0.00214804 0
0.566445 0.0155769 0
0.346314 0.0390393 0
0.18492 0.0627216 0
0.0724139 0.0835077 0
-0.00287536 0.100054 0
-0.0509499 0.111975 0
-0.0799214 0.119632 0
-0.0959425 0.123739 0
-0.103391 0.125016 0
-0.105306 0.124125 0
-0.103762 0.121626 0
-0.100151 0.117973 0
-0.0953927 0.113523 0
-0.0900851 0.108553 0
-0.0846063 0.103272 0
-0.0791895 0.0978366 0
-0.0739716 0.0923635 0
-0.0690274 0.0869371 0
-0.0643918 0.081618 0
-0.0600753 0.0764481 0
-0.0560737 0.0714558 0
-0.0523744 0.0666587 0
-0.0489609 0.0620667 0
-0.0458146 0.0576836 0
-0.0429171 0.053509 0
-0.0402506 0.0495391 0
-0.0377981 0.045768 0
-0.0355441 0.0421878 0
-0.0334742 0.0387896 0
-0.0315748 0.0355639 0
-0.0298334 0.0325006 0
-0.0282374 0.0295895 0
-0.0267746 0.0268205 0
-0.0254321 0.0241839 0
-0.0241957 0.0216703 0
-0.0230496 0.0192715 0
-0.0219745 0.0169802 0
-0.0209475 0.0147905 0
-0.0199397 0.0126989 0
-0.0189152 0.0107043 0
-0.0178286 0.00880932 0
-0.0166237 0.00702143 0
-0.0152317 0.00535426 0
-0.0135701 0.0038298 0
-0.0115438 0.00248096 0
-0.0090483 0.00134925 0
-0.00597815 0.000494747 0
-0.00223902 7.31401e-05 0
0.852271 0.00166927 0
0.584131 0.0127658 0
0.367974 0.0327272 0
0.205908 0.0535023 0
0.090298 0.0722711 0
0.011039 0.0876294 0
-0.0411551 0.0991937 0
-0.0737944 0.10702 0
-0.0928671 0.111659 0
-0.10274 0.11368 0
-0.106516 0.113636 0
-0.106357 0.112017 0
-0.103744 0.109227 0
-0.0996781 0.105597 0
-0.0948242 0.101387 0
-0.089617 0.0967998 0
-0.0843338 0.0919912 0
-0.0791465 0.0870802 0
-0.074157 0.082156 0
-0.0694215 0.0772846 0
-0.0649664 0.0725139 0
-0.0608001 0.0678779 0
-0.0569194 0.0633998 0
-0.053315 0.0590941 0
-0.0499738 0.0549693 0
-0.0468815 0.0510287 0
-0.0440234 0.0472719 0
-0.0413847 0.0436957 0
-0.0389517 0.0402948 0
-0.0367109 0.0370624 0
-0.0346497 0.0339906 0
-0.0327558 0.031071 0
-0.0310169 0.0282945 0
-0.0294205 0.0256521 0
-0.0279536 0.023135 0
-0.0266013 0.0207345 0
-0.0253468 0.018443 0
-0.0241697 0.0162534 0
-0.0230453 0.0141604 0
-0.0219424 0.0121605 0
-0.0208219 0.0102525 0
-0.0196344 0.00843916 0
-0.0183183 0.00672745 0
-0.0167975 0.00513061 0
-0.0149803 0.00366989 0
-0.0127601 0.00237711 0
-0.0100185 0.00129238 0
-0.00663356 0.000473573 0
-0.00249292 6.988e-05 0
0.858221 0.00132969 0
0.599043 0.0105877 0
0.386719 0.0276482 0
0.224544 0.0458779 0
0.106593 0.0627607 0
0.0240645 0.0769164 0
-0.0315928 0.0878999 0
-0.0674565 0.0956568 0
-0.089294 0.100572 0
-0.101423 0.103089 0
-0.106976 0.103669 0
-0.108176 0.102733 0
-0.106574 0.100643 0
-0.103236 0.0976975 0
-0.0988846 0.0941389 0
-0.0940037 0.0901604 0
-0.08891 0.0859137 0
-0.0838075 0.0815171 0
-0.0788235 0.0770613 0
-0.0740342 0.0726154 0
-0.0694821 0.068231 0
-0.0651879 0.063946 0
-0.0611583 0.0597872 0
-0.0573913 0.0557731 0
-0.05388 0.0519153 0
-0.0506145 0.0482201 0
-0.0475835 0.0446898 0
-0.0447751 0.0413235 0
-0.0421773 0.0381179 0
-0.0397782 0.0350679 0
-0.0375662 0.0321672 0
-0.0355294 0.0294085 0
-0.0336562 0.0267839 0
-0.031934 0.0242853 0
-0.0303496 0.0219046 0
-0.0288876 0.019634 0
-0.0275306 0.0174662 0
-0.026257 0.0153946 0
-0.0250404 0.0134141 0
-0.0238475 0.0115213 0
-0.0226364 0.00971514 0
-0.0213536 0.00799801 0
-0.0199322 0.00637664 0
-0.0182892 0.00486357 0
-0.0163242 0.00347907 0
-0.0139195 0.00225347 0
-0.0109432 0.00122502 0
-0.00725803 0.000448755 0
-0.00273464 6.61614e-05 0
0.86317 0.00108145 0
0.611701 0.00887393 0
0.402988 0.0235223 0
0.241081 0.039531 0
0.121382 0.0546745 0
0.0361729 0.0676418 0
-0.0224308 0.0779456 0
-0.0611209 0.0854669 0
-0.0854452 0.0904626 0
-0.0996516 0.093278 0
-0.106878 0.0942949 0
-0.109387 0.0938748 0
-0.108783 0.0923362 0
-0.106185 0.0899491 0
-0.102363 0.0869372 0
-0.0978435 0.0834818 0
-0.092978 0.0797286 0
-0.0879996 0.0757928 0
-0.0830592 0.0717649 0
-0.0782521 0.0677149 0
-0.0736361 0.0636964 0
-0.069244 0.0597494 0
-0.0650923 0.0559035 0
-0.0611869 0.0521793 0
-0.0575268 0.0485909 0
-0.054107 0.0451467 0
-0.0509199 0.041851 0
-0.0479566 0.0387045 0
-0.0452072 0.0357056 0
-0.0426616 0.0328504 0
-0.0403091 0.0301339 0
-0.038139 0.0275497 0
-0.0361399 0.0250909 0
-0.0342997 0.0227502 0
-0.0326048 0.0205201 0
-0.0310397 0.0183933 0
-0.0295861 0.016363 0
-0.0282217 0.014423 0
-0.0269185 0.0125685 0
-0.0256412 0.0107961 0
-0.024345 0.00910466 0
-0.0229728 0.0074964 0
-0.0214526 0.00597752 0
-0.0196949 0.00455975 0
-0.017591 0.00326213 0
-0.0150125 0.00211316 0
-0.0118151 0.00114883 0
-0.00784681 0.000420864 0
-0.00296248 6.20519e-05 0
0.867331 0.000894747 0
0.622515 0.00750575 0
0.417146 0.0201386 0
0.255747 0.0342124 0
0.13475 0.0477694 0
0.0473387 0.0595902 0
-0.0137737 0.0691682 0
-0.0549385 0.0763433 0
-0.081491 0.0812755 0
-0.0975974 0.0842343 0
-0.106384 0.0855349 0
-0.110139 0.0854864 0
-0.110503 0.084369 0
-0.108637 0.0824259 0
-0.105354 0.0798621 0
-0.101214 0.0768469 0
-0.0966 0.0735186 0
-0.0917719 0.0699884 0
-0.0869018 0.0663447 0
-0.082103 0.062657 0
-0.0774478 0.0589794 0
-0.072981 0.0553531 0
-0.0687285 0.0518086 0
-0.0647039 0.0483683 0
-0.0609126 0.0450474 0
-0.0573544 0.0418558 0
-0.0540257 0.0387989 0
-0.0509205 0.0358787 0
-0.0480313 0.0330946 0
-0.0453498 0.0304436 0
-0.0428668 0.0279215 0
-0.0405723 0.0255228 0
-0.0384556 0.0232413 0
-0.0365048 0.0210701 0
-0.0347064 0.0190023 0
-0.0330446 0.0170313 0
-0.0315007 0.0151504 0
-0.0300513 0.0133539 0
-0.0286673 0.0116369 0
-0.0273113 0.00999636 0
-0.025936 0.00843097 0
-0.0244807 0.00694253 0
-0.0228687 0.00553669 0
-0.0210045 0.00422421 0
-0.0187713 0.00302267 0
-0.0160312 0.00195847 0
-0.0126279 0.00106501 0
-0.00839582 0.000390303 0
-0.00317499 5.75945e-05 0
0.870862 0.000750684 0
0.631805 0.00639865 0
0.4295 0.0173378 0
0.268753 0.0297254 0
0.146799 0.0418445 0
0.0575738 0.0525764 0
-0.00568102 0.0614128 0
-0.0490155 0.0681707 0
-0.0775607 0.0729338 0
-0.0953978 0.0759152 0
-0.10563 0.0773742 0
-0.110557 0.0775756 0
-0.111847 0.0767661 0
-0.110694 0.0751643 0
-0.107944 0.0729581 0
-0.104188 0.0703051 0
-0.0998375 0.0673357 0
-0.0951743 0.0641562 0
-0.0903911 0.0608522 0
-0.0856177 0.0574918 0
-0.0809403 0.0541281 0
-0.076415 0.0508024 0
-0.0720772 0.0475456 0
-0.0679482 0.0443803 0
-0.0640393 0.0413224 0
-0.0603555 0.0383823 0
-0.0568969 0.0355661 0
-0.0536608 0.0328763 0
-0.0506422 0.0303128 0
-0.0478345 0.0278733 0
-0.0452298 0.025554 0
-0.0428192 0.0233498 0
-0.0405926 0.021255 0
-0.0385385 0.0192633 0
-0.0366434 0.0173682 0
-0.0348915 0.0155631 0
-0.0332634 0.013842 0
-0.031735 0.0121991 0
-0.0302759 0.01063 0
-0.0288471 0.00913138 0
-0.0273988 0.00770187 0
-0.025867 0.00634286 0
-0.0241708 0.00505931 0
-0.0222089 0.00386086 0
-0.0198572 0.00276346 0
-0.0169687 0.00179116 0
-0.0133762 0.000974463 0
-0.00890153 0.000357365 0
-0.00337088 5.28181e-05 0
0.873882 0.000636959 0
0.639826 0.00549151 0
0.440307 0.0149987 0
0.280289 0.0259146 0
0.157634 0.0367354 0
0.0669082 0.0464435 0
0.00182836 0.0545307 0
-0.04342 0.0608327 0
-0.0737501 0.0653512 0
-0.0931613 0.0682618 0
-0.104728 0.0697775 0
-0.11075 0.0701261 0
-0.112916 0.069526 0
-0.112447 0.0681744 0
-0.110215 0.0662437 0
-0.106837 0.0638805 0
-0.10275 0.0612078 0
-0.0982561 0.0583265 0
-0.0935669 0.0553189 0
-0.0888275 0.0522506 0
-0.0841375 0.0491736 0
-0.0795637 0.0461278 0
-0.0751507 0.0431436 0
-0.0709272 0.0402433 0
-0.0669106 0.0374425 0
-0.0631107 0.0347515 0
-0.0595316 0.0321764 0
-0.0561737 0.0297197 0
-0.0530342 0.0273814 0
-0.0501086 0.0251592 0
-0.0473902 0.0230496 0
-0.0448712 0.0210478 0
-0.042542 0.0191481 0
-0.0403915 0.0173446 0
-0.0384065 0.0156309 0