# vtk DataFile Version 3.0
Malha 2D com triângulos e temperatura
ASCII
DATASET UNSTRUCTURED_GRID

POINTS 2500 double
0 0 0
1 0 0
1 1 0
0 1 0
0.0204082 0 0
0.0408163 0 0
0.0612245 0 0
0.0816327 0 0
0.102041 0 0
0.122449 0 0
0.142857 0 0
0.163265 0 0
0.183673 0 0
0.204082 0 0
0.22449 0 0
0.244898 0 0
0.265306 0 0
0.285714 0 0
0.306122 0 0
0.326531 0 0
0.346939 0 0
0.367347 0 0
0.387755 0 0
0.408163 0 0
0.428571 0 0
0.44898 0 0
0.469388 0 0
0.489796 0 0
0.510204 0 0
0.530612 0 0
0.55102 0 0
0.571429 0 0
0.591837 0 0
0.612245 0 0
0.632653 0 0
0.653061 0 0
0.673469 0 0
0.693878 0 0
0.714286 0 0
0.734694 0 0
0.755102 0 0
0.77551 0 0
0.795918 0 0
0.816327 0 0
0.836735 0 0
0.857143 0 0
0.877551 0 0
0.897959 0 0
0.918367 0 0
0.938776 0 0
0.959184 0 0
0.979592 0 0
1 0.0204082 0
1 0.0408163 0
1 0.0612245 0
1 0.0816327 0
1 0.102041 0
1 0.122449 0
1 0.142857 0
1 0.163265 0
1 0.183673 0
1 0.204082 0
1 0.22449 0
1 0.244898 0
1 0.265306 0
1 0.285714 0
1 0.306122 0
1 0.326531 0
1 0.346939 0
1 0.367347 0
1 0.387755 0
1 0.408163 0
1 0.428571 0
1 0.44898 0
1 0.469388 0
1 0.489796 0
1 0.510204 0
1 0.530612 0
1 0.55102 0
1 0.571429 0
1 0.591837 0
1 0.612245 0
1 0.632653 0
1 0.653061 0
1 0.673469 0
1 0.693878 0
1 0.714286 0
1 0.734694 0
1 0.755102 0
1 0.77551 0
1 0.795918 0
1 0.816327 0
1 0.836735 0
1 0.857143 0
1 0.877551 0
1 0.897959 0
1 0.918367 0
1 0.938776 0
1 0.959184 0
1 0.979592 0
0.979592 1 0
0.959184 1 0
0.938776 1 0
0.918367 1 0
0.897959 1 0
0.877551 1 0
0.857143 1 0
0.836735 1 0
0.816327 1 0
0.795918 1 0
0.77551 1 0
0.755102 1 0
0.734694 1 0
0.714286 1 0
0.693878 1 0
0.673469 1 0
0.653061 1 0
0.632653 1 0
0.612245 1 0
0.591837 1 0
0.571429 1 0
0.55102 1 0
0.530612 1 0
0.510204 1 0
0.489796 1 0
0.469388 1 0
0.44898 1 0
0.428571 1 0
0.408163 1 0
0.387755 1 0
0.367347 1 0
0.346939 1 0
0.326531 1 0
0.306122 1 0
0.285714 1 0
0.265306 1 0
0.244898 1 0
0.22449 1 0
0.204082 1 0
0.183673 1 0
0.163265 1 0
0.142857 1 0
0.122449 1 0
0.102041 1 0
0.0816327 1 0
0.0612245 1 0
0.0408163 1 0
0.0204082 1 0
0 0.979592 0
0 0.959184 0
0 0.938776 0
0 0.918367 0
0 0.897959 0
0 0.877551 0
0 0.857143 0
0 0.836735 0
0 0.816327 0
0 0.795918 0
0 0.77551 0
0 0.755102 0
0 0.734694 0
0 0.714286 0
0 0.693878 0
0 0.673469 0
0 0.653061 0
0 0.632653 0
0 0.612245 0
0 0.591837 0
0 0.571429 0
0 0.55102 0
0 0.530612 0
0 0.510204 0
0 0.489796 0
0 0.469388 0
0 0.44898 0
0 0.428571 0
0 0.408163 0
0 0.387755 0
0 0.367347 0
0 0.346939 0
0 0.326531 0
0 0.306122 0
0 0.285714 0
0 0.265306 0
0 0.244898 0
0 0.22449 0
0 0.204082 0
0 0.183673 0
0 0.163265 0
0 0.142857 0
0 0.122449 0
0 0.102041 0
0 0.0816327 0
0 0.0612245 0
0 0.0408163 0
0 0.0204082 0
0.0204082 0.979592 0
0.0204082 0.959184 0
0.0204082 0.938776 0
0.0204082 0.918367 0
0.0204082 0.897959 0
0.0204082 0.877551 0
0.0204082 0.857143 0
0.0204082 0.836735 0
0.0204082 0.816327 0
0.0204082 0.795918 0
0.0204082 0.77551 0
0.0204082 0.755102 0
0.0204082 0.734694 0
0.0204082 0.714286 0
0.0204082 0.693878 0
0.0204082 0.673469 0
0.0204082 0.653061 0
0.0204082 0.632653 0
0.0204082 0.612245 0
0.0204082 0.591837 0
0.0204082 0.571429 0
0.0204082 0.55102 0
0.0204082 0.530612 0
0.0204082 0.510204 0
0.0204082 0.489796 0
0.0204082 0.469388 0
0.0204082 0.44898 0
0.0204082 0.428571 0
0.0204082 0.408163 0
0.0204082 0.387755 0
0.0204082 0.367347 0
0.0204082 0.346939 0
0.0204082 0.326531 0
0.0204082 0.306122 0
0.0204082 0.285714 0
0.0204082 0.265306 0
0.0204082 0.244898 0
0.0204082 0.22449 0
0.0204082 0.204082 0
0.0204082 0.183673 0
0.0204082 0.163265 0
0.0204082 0.142857 0
0.0204082 0.122449 0
0.0204082 0.102041 0
0.0204082 0.0816327 0
0.0204082 0.0612245 0
0.0204082 0.0408163 0
0.0204082 0.0204082 0
0.0408163 0.979592 0
0.0408163 0.959184 0
0.0408163 0.938776 0
0.0408163 0.918367 0
0.0408163 0.897959 0
0.0408163 0.877551 0
0.0408163 0.857143 0
0.0408163 0.836735 0
0.0408163 0.816327 0
0.0408163 0.795918 0
0.0408163 0.77551 0
0.0408163 0.755102 0
0.0408163 0.734694 0
0.0408163 0.714286 0
0.0408163 0.693878 0
0.0408163 0.673469 0
0.0408163 0.653061 0
0.0408163 0.632653 0
0.0408163 0.612245 0
0.0408163 0.591837 0
0.0408163 0.571429 0
0.0408163 0.55102 0
0.0408163 0.530612 0
0.0408163 0.510204 0
0.0408163 0.489796 0
0.0408163 0.469388 0
0.0408163 0.44898 0
0.0408163 0.428571 0
0.0408163 0.408163 0
0.0408163 0.387755 0
0.0408163 0.367347 0
0.0408163 0.346939 0
0.0408163 0.326531 0
0.0408163 0.306122 0
0.0408163 0.285714 0
0.0408163 0.265306 0
0.0408163 0.244898 0
0.0408163 0.22449 0
0.0408163 0.204082 0
0.0408163 0.183673 0
0.0408163 0.163265 0
0.0408163 0.142857 0
0.0408163 0.122449 0
0.0408163 0.102041 0
0.0408163 0.0816327 0
0.0408163 0.0612245 0
0.0408163 0.0408163 0
0.0408163 0.0204082 0
0.0612245 0.979592 0
0.0612245 0.959184 0
0.0612245 0.938776 0
0.0612245 0.918367 0
0.0612245 0.897959 0
0.0612245 0.877551 0
0.0612245 0.857143 0
0.0612245 0.836735 0
0.0612245 0.816327 0
0.0612245 0.795918 0
0.0612245 0.77551 0
0.0612245 0.755102 0
0.0612245 0.734694 0
0.0612245 0.714286 0
0.0612245 0.693878 0
0.0612245 0.673469 0
0.0612245 0.653061 0
0.0612245 0.632653 0
0.0612245 0.612245 0
0.0612245 0.591837 0
0.0612245 0.571429 0
0.0612245 0.55102 0
0.0612245 0.530612 0
0.0612245 0.510204 0
0.0612245 0.489796 0
0.0612245 0.469388 0
0.0612245 0.44898 0
0.0612245 0.428571 0
0.0612245 0.408163 0
0.0612245 0.387755 0
0.0612245 0.367347 0
0.0612245 0.346939 0
0.0612245 0.326531 0
0.0612245 0.306122 0
0.0612245 0.285714 0
0.0612245 0.265306 0
0.0612245 0.244898 0
0.0612245 0.22449 0
0.0612245 0.204082 0
0.0612245 0.183673 0
0.0612245 0.163265 0
0.0612245 0.142857 0
0.0612245 0.122449 0
0.0612245 0.102041 0
0.0612245 0.0816327 0
0.0612245 0.0612245 0
0.0612245 0.0408163 0
0.0612245 0.0204082 0
0.0816327 0.979592 0
0.0816327 0.959184 0
0.0816327 0.938776 0
0.0816327 0.918367 0
0.0816327 0.897959 0
0.0816327 0.877551 0
0.0816327 0.857143 0
0.0816327 0.836735 0
0.0816327 0.816327 0
0.0816327 0.795918 0
0.0816327 0.77551 0
0.0816327 0.755102 0
0.0816327 0.734694 0
0.0816327 0.714286 0
0.0816327 0.693878 0
0.0816327 0.673469 0
0.0816327 0.653061 0
0.0816327 0.632653 0
0.0816327 0.612245 0
0.0816327 0.591837 0
0.0816327 0.571429 0
0.0816327 0.55102 0
0.0816327 0.530612 0
0.0816327 0.510204 0
0.0816327 0.489796 0
0.0816327 0.469388 0
0.0816327 0.44898 0
0.0816327 0.428571 0
0.0816327 0.408163 0
0.0816327 0.387755 0
0.0816327 0.367347 0
0.0816327 0.346939 0
0.0816327 0.326531 0
0.0816327 0.306122 0
0.0816327 0.285714 0
0.0816327 0.265306 0
0.0816327 0.244898 0
0.0816327 0.22449 0
0.0816327 0.204082 0
0.0816327 0.183673 0
0.0816327 0.163265 0
0.0816327 0.142857 0
0.0816327 0.122449 0
0.0816327 0.102041 0
0.0816327 0.0816327 0
0.0816327 0.0612245 0
0.0816327 0.0408163 0
0.0816327 0.0204082 0
0.102041 0.979592 0
0.102041 0.959184 0
0.102041 0.938776 0
0.102041 0.918367 0
0.102041 0.897959 0
0.102041 0.877551 0
0.102041 0.857143 0
0.102041 0.836735 0
0.102041 0.816327 0
0.102041 0.795918 0
0.102041 0.77551 0
0.102041 0.755102 0
0.102041 0.734694 0
0.102041 0.714286 0
0.102041 0.693878 0
0.102041 0.673469 0
0.102041 0.653061 0
0.102041 0.632653 0
0.102041 0.612245 0
0.102041 0.591837 0
0.102041 0.571429 0
0.102041 0.55102 0
0.102041 0.530612 0
0.102041 0.510204 0
0.102041 0.489796 0
0.102041 0.469388 0
0.102041 0.44898 0
0.102041 0.428571 0
0.102041 0.408163 0
0.102041 0.387755 0
0.102041 0.367347 0
0.102041 0.346939 0
0.102041 0.326531 0
0.102041 0.306122 0
0.102041 0.285714 0
0.102041 0.265306 0
0.102041 0.244898 0
0.102041 0.22449 0
0.102041 0.204082 0
0.102041 0.183673 0
0.102041 0.163265 0
0.102041 0.142857 0
0.102041 0.122449 0
0.102041 0.102041 0
0.102041 0.0816327 0
0.102041 0.0612245 0
0.102041 0.0408163 0
0.102041 0.0204082 0
0.122449 0.979592 0
0.122449 0.959184 0
0.122449 0.938776 0
0.122449 0.918367 0
0.122449 0.897959 0
0.122449 0.877551 0
0.122449 0.857143 0
0.122449 0.836735 0
0.122449 0.816327 0
0.122449 0.795918 0
0.122449 0.77551 0
0.122449 0.755102 0
0.122449 0.734694 0
0.122449 0.714286 0
0.122449 0.693878 0
0.122449 0.673469 0
0.122449 0.653061 0
0.122449 0.632653 0
0.122449 0.612245 0
0.122449 0.591837 0
0.122449 0.571429 0
0.122449 0.55102 0
0.122449 0.530612 0
0.122449 0.510204 0
0.122449 0.489796 0
0.122449 0.469388 0
0.122449 0.44898 0
0.122449 0.428571 0
0.122449 0.408163 0
0.122449 0.387755 0
0.122449 0.367347 0
0.122449 0.346939 0
0.122449 0.326531 0
0.122449 0.306122 0
0.122449 0.285714 0
0.122449 0.265306 0
0.122449 0.244898 0
0.122449 0.22449 0
0.122449 0.204082 0
0.122449 0.183673 0
0.122449 0.163265 0
0.122449 0.142857 0
0.122449 0.122449 0
0.122449 0.102041 0
0.122449 0.0816327 0
0.122449 0.0612245 0
0.122449 0.0408163 0
0.122449 0.0204082 0
0.142857 0.979592 0
0.142857 0.959184 0
0.142857 0.938776 0
0.142857 0.918367 0
0.142857 0.897959 0
0.142857 0.877551 0
0.142857 0.857143 0
0.142857 0.836735 0
0.142857 0.816327 0
0.142857 0.795918 0
0.142857 0.77551 0
0.142857 0.755102 0
0.142857 0.734694 0
0.142857 0.714286 0
0.142857 0.693878 0
0.142857 0.673469 0
0.142857 0.653061 0
0.142857 0.632653 0
0.142857 0.612245 0
0.142857 0.591837 0
0.142857 0.571429 0
0.142857 0.55102 0
0.142857 0.530612 0
0.142857 0.510204 0
0.142857 0.489796 0
0.142857 0.469388 0
0.142857 0.44898 0
0.142857 0.428571 0
0.142857 0.408163 0
0.142857 0.387755 0
0.142857 0.367347 0
0.142857 0.346939 0
0.142857 0.326531 0
0.142857 0.306122 0
0.142857 0.285714 0
0.142857 0.265306 0
0.142857 0.244898 0
0.142857 0.22449 0
0.142857 0.204082 0
0.142857 0.183673 0
0.142857 0.163265 0
0.142857 0.142857 0
0.142857 0.122449 0
0.142857 0.102041 0
0.142857 0.0816327 0
0.142857 0.0612245 0
0.142857 0.0408163 0
0.142857 0.0204082 0
0.163265 0.979592 0
0.163265 0.959184 0
0.163265 0.938776 0
0.163265 0.918367 0
0.163265 0.897959 0
0.163265 0.877551 0
0.163265 0.857143 0
0.163265 0.836735 0
0.163265 0.816327 0
0.163265 0.795918 0
0.163265 0.77551 0
0.163265 0.755102 0
0.163265 0.734694 0
0.163265 0.714286 0
0.163265 0.693878 0
0.163265 0.673469 0
0.163265 0.653061 0
0.163265 0.632653 0
0.163265 0.612245 0
0.163265 0.591837 0
0.163265 0.571429 0
0.163265 0.55102 0
[...]
CELL_DATA 2401
VECTORS velocity double
0.257356 0.157465 0.0
-0.00270076 0.264598 0.0
-0.0323033 0.205494 0.0
-0.0253796 0.150634 0.0
-0.0160601 0.113104 0.0
-0.00970644 0.0877366 0.0
-0.00593555 0.0706398 0.0
-0.00375425 0.0589096 0.0
-0.00247358 0.0506409 0.0
-0.00169766 0.0446505 0.0
-0.00121071 0.040194 0.0
-0.00089556 0.0367891 0.0
-0.000687015 0.0341142 0.0
-0.000547342 0.0319487 0.0
-0.000453674 0.0301379 0.0
-0.000391516 0.0285713 0.0
-0.000351292 0.0271696 0.0
-0.000326442 0.0258754 0.0
-0.000312333 0.0246475 0.0
-0.000305603 0.0234568 0.0
-0.000303759 0.0222831 0.0
-0.000304923 0.0211133 0.0
-0.000307666 0.0199398 0.0
-0.000310898 0.0187591 0.0
-0.000313794 0.0175708 0.0
-0.000315743 0.016377 0.0
-0.000316307 0.0151817 0.0
-0.000315191 0.01399 0.0
-0.00031222 0.012808 0.0
-0.000307313 0.0116422 0.0
-0.000300466 0.0104992 0.0
-0.000291731 0.00938564 0.0
-0.000281201 0.00830803 0.0
-0.000268993 0.00727246 0.0
-0.000255233 0.00628467 0.0
-0.000240042 0.00535 0.0
-0.000223525 0.00447344 0.0
-0.000205757 0.00365963 0.0
-0.000186773 0.00291297 0.0
-0.000166557 0.00223776 0.0
-0.000145028 0.00163824 0.0
-0.000122032 0.00111877 0.0
-9.7349e-05 0.000683884 0.0
-7.0734e-05 0.000338224 0.0
-4.20795e-05 8.62286e-05 0.0
-1.18968e-05 -6.88757e-05 0.0
1.74421e-05 -0.000127355 0.0
3.91402e-05 -0.000101403 0.0
3.51808e-05 -3.50066e-05 0.0
0.340614 0.122963 0.0
-0.000627384 0.249444 0.0
-0.0652244 0.271684 0.0
-0.0632627 0.252249 0.0
-0.0485465 0.221741 0.0
-0.0350096 0.191852 0.0
-0.024976 0.166385 0.0
-0.0179634 0.145843 0.0
-0.013127 0.129618 0.0
-0.00978025 0.116857 0.0
-0.00744532 0.106768 0.0
-0.00580455 0.0986914 0.0
-0.00464752 0.0921087 0.0
-0.00383296 0.0866208 0.0
-0.00326399 0.0819234 0.0
-0.00287272 0.0777866 0.0
-0.00261053 0.0740371 0.0
-0.00244189 0.0705459 0.0
-0.00234038 0.0672178 0.0
-0.00228604 0.0639841 0.0
-0.00226362 0.060797 0.0
-0.00226131 0.0576247 0.0
-0.00227 0.0544485 0.0
-0.00228262 0.0512597 0.0
-0.00229378 0.0480573 0.0
-0.0022994 0.0448465 0.0
-0.00229655 0.0416368 0.0
-0.00228318 0.0384409 0.0
-0.00225801 0.0352737 0.0
-0.0022204 0.0321515 0.0
-0.00217016 0.0290908 0.0
-0.00210748 0.0261084 0.0
-0.00203285 0.0232207 0.0
-0.00194688 0.0204434 0.0
-0.00185029 0.0177912 0.0
-0.00174381 0.0152781 0.0
-0.00162807 0.0129171 0.0
-0.00150363 0.0107203 0.0
-0.00137085 0.00869934 0.0
-0.00122993 0.00686516 0.0
-0.00108088 0.00522833 0.0
-0.000923603 0.00379908 0.0
-0.000758061 0.00258708 0.0
-0.000584695 0.00160094 0.0
-0.000405336 0.000846837 0.0
-0.000225224 0.00032604 0.0
-5.71711e-05 3.00479e-05 0.0
7.14472e-05 -6.98857e-05 0.0
0.000100893 -3.80766e-05 0.0
0.500894 0.0768025 0.0
0.0991284 0.183251 0.0
-0.0393259 0.249289 0.0
-0.0734309 0.265788 0.0
-0.0719408 0.257474 0.0
-0.0606848 0.239648 0.0
-0.0484751 0.219575 0.0
-0.0379424 0.200543 0.0
-0.0295716 0.183767 0.0
-0.0231599 0.169461 0.0
-0.018342 0.157414 0.0
-0.0147658 0.147269 0.0
-0.0121391 0.138647 0.0
-0.0102324 0.131202 0.0
-0.00886916 0.124639 0.0
-0.00791476 0.118718 0.0
-0.0072661 0.113248 0.0
-0.00684396 0.108079 0.0
-0.00658705 0.1031 0.0
-0.00644761 0.0982269 0.0
-0.00638823 0.0934022 0.0
-0.00637947 0.0885875 0.0
-0.00639823 0.0837607 0.0
-0.00642646 0.0789127 0.0
-0.00645022 0.0740447 0.0
-0.00645896 0.0691656 0.0
-0.00644497 0.0642904 0.0
-0.0064029 0.0594382 0.0
-0.00632932 0.0546311 0.0
-0.00622243 0.0498927 0.0
-0.00608167 0.0452475 0.0
-0.00590745 0.04072 0.0
-0.00570089 0.0363341 0.0
-0.00546355 0.0321127 0.0
-0.00519723 0.0280775 0.0
-0.0049038 0.024249 0.0
-0.00458498 0.0206465 0.0
-0.00424228 0.0172877 0.0
-0.00387692 0.0141896 0.0
-0.00348981 0.011368 0.0
-0.00308163 0.00883778 0.0
-0.00265315 0.00661277 0.0
-0.00220575 0.00470536 0.0
-0.00174254 0.00312551 0.0
-0.00127041 0.00187905 0.0
-0.000803958 0.000964831 0.0
-0.000372369 0.000369114 0.0
-2.90777e-05 5.84669e-05 0.0
0.000124582 -1.55987e-05 0.0
0.610055 0.0480445 0.0
0.1957 0.13399 0.0
0.0113861 0.209477 0.0
-0.0580844 0.246495 0.0
-0.0761753 0.257007 0.0
-0.0738883 0.253516 0.0
-0.0646695 0.243202 0.0
-0.0541282 0.230315 0.0
-0.0444381 0.217116 0.0
-0.0362878 0.204661 0.0
-0.0297486 0.193347 0.0
-0.0246578 0.183223 0.0
-0.0207849 0.174174 0.0
-0.0179001 0.166022 0.0
-0.0157996 0.158573 0.0
-0.0143112 0.151649 0.0
-0.0132937 0.145095 0.0
-0.0126323 0.138782 0.0
-0.0122342 0.132613 0.0
-0.0120249 0.126511 0.0
-0.0119443 0.120425 0.0
-0.0119444 0.114322 0.0
-0.0119867 0.108185 0.0
-0.0120409 0.102008 0.0
-0.0120834 0.0957996 0.0
-0.0120964 0.0895734 0.0
-0.0120666 0.0833507 0.0
-0.0119849 0.0771568 0.0
-0.0118454 0.0710201 0.0
-0.0116451 0.0649706 0.0
-0.011383 0.0590388 0.0
-0.0110599 0.0532553 0.0
-0.0106778 0.0476496 0.0
-0.0102394 0.0422502 0.0
-0.00974803 0.0370838 0.0
-0.00920695 0.0321758 0.0
-0.00861937 0.0275498 0.0
-0.00798817 0.0232278 0.0
-0.00731582 0.0192303 0.0
-0.00660447 0.0155763 0.0
-0.00585612 0.0122836 0.0
-0.00507321 0.00936804 0.0
-0.00425955 0.00684336 0.0
-0.00342212 0.00472008 0.0
-0.00257404 0.00300386 0.0
-0.00173976 0.00169329 0.0
-0.000963367 0.000774275 0.0
-0.00031893 0.000218259 0.0
6.4928e-05 1.33332e-05 0.0
0.680452 0.0301557 0.0
0.278475 0.0981997 0.0
0.069604 0.171011 0.0
-0.0275583 0.217504 0.0
-0.0654062 0.240925 0.0
-0.0749061 0.249345 0.0
-0.0719004 0.248685 0.0
-0.0641388 0.243049 0.0
-0.0552811 0.235015 0.0
-0.046956 0.226079 0.0
-0.0397937 0.217044 0.0
-0.0339452 0.208292 0.0
-0.0293441 0.199962 0.0
-0.0258367 0.192057 0.0
-0.0232453 0.184516 0.0
-0.0213973 0.177252 0.0
-0.0201373 0.170174 0.0
-0.0193307 0.163201 0.0
-0.0188636 0.156266 0.0
-0.0186408 0.149317 0.0
-0.0185834 0.14232 0.0
-0.0186271 0.135256 0.0
-0.0187196 0.12812 0.0
-0.018819 0.120916 0.0
-0.0188927 0.113661 0.0
-0.0189157 0.106375 0.0
-0.0188695 0.0990879 0.0
-0.0187414 0.0918308 0.0
-0.0185235 0.0846382 0.0
-0.0182116 0.0775457 0.0
-0.0178046 0.0705889 0.0
-0.0173041 0.0638031 0.0
-0.0167132 0.0572223 0.0
-0.0160363 0.0508789 0.0
-0.0152781 0.0448033 0.0
-0.014444 0.0390243 0.0
-0.0135388 0.0335683 0.0
-0.0125672 0.02846 0.0
-0.0115332 0.0237223 0.0
-0.0104408 0.0193763 0.0
-0.00929375 0.0154411 0.0
-0.00809666 0.0119339 0.0
-0.00685634 0.00886927 0.0
-0.00558399 0.00625846 0.0
-0.00429871 0.00410812 0.0
-0.00303326 0.00241918 0.0
-0.00184247 0.00118158 0.0
-0.000812917 0.000377803 0.0
-8.46715e-05 4.11011e-05 0.0
0.729852 0.0191802 0.0
0.349004 0.0730444 0.0
0.127899 0.139291 0.0
0.0111291 0.188229 0.0
-0.0444959 0.219524 0.0
-0.0663104 0.236554 0.0
-0.0710622 0.24386 0.0
-0.0678343 0.244915 0.0
-0.0614164 0.242179 0.0
-0.054254 0.237268 0.0
-0.0475247 0.231185 0.0
-0.0417281 0.224521 0.0
-0.0370092 0.217597 0.0
-0.0333363 0.210573 0.0
-0.0305962 0.203508 0.0
-0.0286459 0.196409 0.0
-0.0273383 0.189255 0.0
-0.0265356 0.182022 0.0
-0.0261142 0.174681 0.0
-0.0259666 0.167215 0.0
-0.0260013 0.159613 0.0
-0.0261414 0.151877 0.0
-0.0263239 0.144017 0.0
-0.0264975 0.136051 0.0
-0.0266221 0.128005 0.0
-0.0266666 0.119911 0.0
-0.0266084 0.111805 0.0
-0.0264321 0.103726 0.0
-0.0261282 0.095714 0.0
-0.025692 0.0878099 0.0
-0.0251231 0.0800539 0.0
-0.0244241 0.0724851 0.0
-0.0235997 0.0651409 0.0
-0.0226561 0.0580565 0.0
-0.0216004 0.051265 0.0
-0.0204399 0.0447971 0.0
-0.0191816 0.0386811 0.0
-0.0178322 0.0329432 0.0
-0.0163978 0.0276075 0.0
-0.0148841 0.0226961 0.0
-0.0132971 0.0182289 0.0
-0.0116437 0.0142239 0.0
-0.00993383 0.0106965 0.0
-0.00818228 0.00765923 0.0
-0.00641297 0.00512101 0.0
-0.00466423 0.00308742 0.0
-0.00299675 0.00155548 0.0
-0.00150144 0.000521775 0.0
-0.000317001 6.49048e-05 0.0
0.765855 0.0125771 0.0
0.408413 0.0556838 0.0
0.182843 0.114494 0.0
0.0525764 0.162531 0.0
-0.0174012 0.197619 0.0
-0.0507288 0.220385 0.0
-0.0636561 0.233672 0.0
-0.0658859 0.240248 0.0
-0.0629639 0.242251 0.0
-0.057969 0.241216 0.0
-0.0525505 0.238194 0.0
-0.0475369 0.233872 0.0
-0.0432925 0.228685 0.0
-0.0399258 0.222899 0.0
-0.0374095 0.216668 0.0
-0.0356493 0.210078 0.0
-0.0345237 0.203176 0.0
-0.0339049 0.195986 0.0
-0.0336703 0.188526 0.0
-0.0337085 0.180811 0.0
-0.0339212 0.172859 0.0
-0.0342242 0.164693 0.0
-0.034547 0.15634 0.0
-0.034832 0.147836 0.0
-0.0350335 0.139218 0.0
-0.0351164 0.130529 0.0
-0.0350555 0.121814 0.0
-0.0348336 0.113117 0.0
-0.0344406 0.104487 0.0
-0.0338726 0.0959681 0.0
-0.0331303 0.0876052 0.0
-0.0322179 0.0794406 0.0
-0.0311425 0.0715142 0.0
-0.0299128 0.0638636 0.0
-0.0285381 0.0565231 0.0
-0.0270284 0.0495246 0.0
-0.0253931 0.0428973 0.0
-0.0236411 0.0366681 0.0
-0.0217807 0.0308612 0.0
-0.0198196 0.0254991 0.0
-0.017766 0.0206021 0.0
-0.0156291 0.0161887 0.0
-0.0134209 0.0122752 0.0
-0.0111593 0.00887593 0.0
-0.00887087 0.00600341 0.0
-0.00659648 0.00366915 0.0
-0.00439772 0.00187892 0.0
-0.002363 0.000644078 0.0
-0.000620506 8.4143e-05 0.0
0.792878 0.0085901 0.0
0.458435 0.0435916 0.0
0.233266 0.0953208 0.0
0.0941486 0.140939 0.0
0.0133338 0.177091 0.0
-0.0303568 0.203466 0.0
-0.0512644 0.221013 0.0
-0.0593039 0.231881 0.0
-0.0604801 0.237827 0.0
-0.0583306 0.240215 0.0
-0.0548807 0.24005 0.0
-0.0512431 0.238039 0.0
-0.0479853 0.234671 0.0
-0.0453554 0.230273 0.0
-0.0434183 0.225066 0.0
-0.0421389 0.219194 0.0
-0.0414307 0.212758 0.0
-0.0411853 0.205828 0.0
-0.0412895 0.198461 0.0
-0.0416344 0.190703 0.0
-0.0421206 0.1826 0.0
-0.042661 0.174197 0.0
-0.0431814 0.165542 0.0
-0.0436206 0.156683 0.0
-0.0439299 0.147674 0.0
-0.0440724 0.138566 0.0
-0.0440214 0.129415 0.0
-0.0437598 0.120272 0.0
-0.0432785 0.111192 0.0
-0.0425748 0.102223 0.0
-0.0416516 0.0934157 0.0
-0.0405159 0.0848137 0.0
-0.0391775 0.0764595 0.0
-0.037648 0.0683918 0.0
-0.03594 0.060646 0.0
-0.0340662 0.0532542 0.0
-0.0320387 0.0462458 0.0
-0.0298688 0.0396472 0.0
-0.0275671 0.0334827 0.0
-0.0251434 0.0277743 0.0
-0.0226076 0.0225423 0.0
-0.0199707 0.0178054 0.0
-0.0172465 0.0135813 0.0
-0.0144538 0.00988638 0.0
-0.0116202 0.00673723 0.0
-0.00878596 0.00415202 0.0
-0.00600927 0.0021456 0.0
-0.0033708 0.000743282 0.0
-0.00098239 9.90659e-05 0.0
0.813867 0.00614043 0.0
0.500876 0.035022 0.0
0.279015 0.0804943 0.0
0.134397 0.123127 0.0
0.0452308 0.159009 0.0
-0.00697718 0.187123 0.0
-0.0352825 0.20757 0.0
-0.0491101 0.221619 0.0
-0.0546575 0.23069 0.0
-0.0557638 0.235943 0.0
-0.0547378 0.238285 0.0
-0.0529231 0.238396 0.0
-0.0510633 0.236772 0.0
-0.0495343 0.233772 0.0
-0.0484909 0.229653 0.0
-0.0479584 0.224601 0.0
-0.0478902 0.218756 0.0
-0.0482024 0.212225 0.0
-0.0487962 0.205095 0.0
-0.0495701 0.197443 0.0
-0.050428 0.189339 0.0
-0.0512833 0.180848 0.0
-0.0520616 0.172037 0.0
-0.0527006 0.162971 0.0
-0.0531513 0.153714 0.0
-0.0533765 0.144331 0.0
-0.0533505 0.134886 0.0
-0.0530574 0.125438 0.0
-0.0524903 0.116046 0.0
-0.0516494 0.106766 0.0
-0.0505407 0.0976495 0.0
-0.0491748 0.0887437 0.0
-0.0475651 0.0800926 0.0
-0.0457268 0.0717355 0.0
-0.0436762 0.0637081 0.0
-0.041429 0.0560424 0.0
-0.0390004 0.0487669 0.0
-0.0364045 0.0419075 0.0
-0.0336538 0.0354873 0.0
-0.0307602 0.0295279 0.0
-0.0277349 0.0240491 0.0
-0.02459 0.0190697 0.0
-0.0213398 0.0146085 0.0
-0.018003 0.0106842 0.0
-0.0146058 0.00731767 0.0
-0.011185 0.00453347 0.0
-0.00779218 0.00235514 0.0
-0.00449649 0.00082019 0.0
-0.00139017 0.000110199 0.0
0.8307 0.00459525 0.0
0.537259 0.0288156 0.0
0.320395 0.0689212 0.0
0.172725 0.108439 0.0
0.0772965 0.143296 0.0
0.0181968 0.171936 0.0
-0.0168203 0.194219 0.0
-0.0362055 0.210553 0.0
-0.0461768 0.222019 0.0
-0.0507505 0.229582 0.0
-0.052438 0.234036 0.0
-0.0527628 0.236005 0.0
-0.0526139 0.235967 0.0
-0.0524781 0.234286 0.0
-0.0525914 0.231237 0.0
-0.0530371 0.227029 0.0
-0.0538082 0.22183 0.0
-0.0548472 0.215773 0.0
-0.0560722 0.20897 0.0
-0.0573922 0.201523 0.0
-0.058717 0.193521 0.0
-0.0599636 0.185051 0.0
-0.0610595 0.176195 0.0
-0.0619442 0.167033 0.0
-0.06257 0.157643 0.0
-0.0629018 0.148098 0.0
-0.0629161 0.138472 0.0
-0.0626002 0.128833 0.0
-0.0619509 0.119245 0.0
-0.0609722 0.109767 0.0
-0.0596748 0.100455 0.0
-0.0580735 0.0913581 0.0
-0.0561863 0.0825213 0.0
-0.054033 0.0739845 0.0
-0.0516336 0.0657829 0.0
-0.0490078 0.0579477 0.0
-0.0461739 0.0505062 0.0
-0.0431486 0.0434829 0.0
-0.0399468 0.0368998 0.0
-0.0365818 0.030777 0.0
-0.0330659 0.0251336 0.0
-0.0294113 0.0199886 0.0
-0.0256317 0.0153613 0.0
-0.0217443 0.0112729 0.0
-0.0177718 0.00774775 0.0
-0.0137452 0.0048165 0.0
-0.00970697 0.00251023 0.0
-0.00571234 0.000876567 0.0
-0.00183238 0.00011811 0.0
0.844573 0.00358791 0.0
0.568783 0.0242161 0.0
0.357834 0.0597834 0.0
0.208854 0.0962983 0.0
0.108771 0.129748 0.0
0.0439599 0.158269 0.0
0.00329284 0.181402 0.0
-0.0213231 0.199326 0.0
-0.0356397 0.212574 0.0
-0.043757 0.221948 0.0
-0.0483232 0.228127 0.0
-0.0509979 0.231668 0.0
-0.0527865 0.233017 0.0
-0.0542683 0.232527 0.0
-0.05575 0.230474 0.0
-0.0573667 0.227082 0.0
-0.0591483 0.222531 0.0
-0.0610634 0.216975 0.0
-0.0630472 0.210545 0.0
-0.0650204 0.20336 0.0
-0.0669007 0.195528 0.0
-0.0686103 0.187153 0.0
-0.0700804 0.178331 0.0
-0.0712542 0.169156 0.0
-0.0720871 0.159717 0.0
-0.0725477 0.1501 0.0
-0.0726166 0.140384 0.0
-0.0722859 0.130645 0.0
-0.0715571 0.120954 0.0
-0.07044 0.111373 0.0
-0.0689504 0.101961 0.0
-0.067109 0.0927684 0.0
-0.0649392 0.0838417 0.0
-0.0624658 0.0752203 0.0
-0.0597135 0.0669386 0.0
-0.0567061 0.0590263 0.0
-0.0534655 0.0515092 0.0
-0.0500111 0.04441 0.0
-0.0463599 0.0377486 0.0
-0.0425264 0.0315436 0.0
-0.0385233 0.0258132 0.0
-0.0343622 0.0205755 0.0
-0.0300553 0.0158505 0.0
-0.0256164 0.0116609 0.0
-0.0210631 0.00803452 0.0
-0.0164191 0.00500669 0.0
-0.0117156 0.0026148 0.0
-0.00699229 0.000914449 0.0
-0.00229874 0.000123313 0.0
0.856273 0.0029051 0.0
0.596386 0.0207233 0.0
0.391795 0.0524643 0.0
0.242754 0.0861829 0.0
0.139298 0.118045 0.0
0.0698119 0.146036 0.0
0.0242559 0.169442 0.0
-0.00507272 0.188305 0.0
-0.0235625 0.20284 0.0
-0.0352057 0.21359 0.0
-0.0427249 0.221137 0.0
-0.0478774 0.22597 0.0
-0.0517589 0.228495 0.0
-0.055024 0.229042 0.0
-0.0580384 0.227882 0.0
-0.0609817 0.22524 0.0
-0.0639166 0.221305 0.0
-0.0668349 0.216242 0.0
-0.0696887 0.210194 0.0
-0.07241 0.203297 0.0
-0.0749249 0.195672 0.0
-0.0771618 0.187437 0.0
-0.0790573 0.178702 0.0
-0.080559 0.169573 0.0
-0.0816273 0.160149 0.0
-0.082236 0.150526 0.0
-0.0823713 0.140792 0.0
-0.0820313 0.131028 0.0
-0.0812241 0.12131 0.0
-0.079966 0.111705 0.0
-0.0782799 0.102274 0.0
-0.076193 0.0930686 0.0
-0.073735 0.0841354 0.0
-0.0709367 0.0755131 0.0
-0.0678281 0.067235 0.0
-0.0644375 0.0593289 0.0
-0.0607905 0.0518185 0.0
-0.0569095 0.0447238 0.0
-0.0528133 0.0380627 0.0
-0.0485173 0.0318517 0.0
-0.0440341 0.026107 0.0
-0.0393739 0.0208462 0.0
-0.0345461 0.0160889 0.0
-0.02956 0.0118591 0.0
-0.024427 0.00818651 0.0
-0.0191614 0.00511045 0.0
-0.013782 0.00267303 0.0
-0.00831231 0.000935772 0.0
-0.00278015 0.000126234 0.0
0.866326 0.00242241 0.0
0.620794 0.0180057 0.0
0.42271 0.0465115 0.0
0.274489 0.0776724 0.0
0.168659 0.107891 0.0
0.0953507 0.135098 0.0
0.045549 0.158411 0.0
0.0120825 0.177683 0.0
-0.0103702 0.193093 0.0
-0.025464 0.20486 0.0
-0.0359471 0.213462 0.0
-0.0436436 0.219328 0.0
-0.0497176 0.22282 0.0
-0.0548832 0.224243 0.0
-0.0595535 0.223855 0.0
-0.0639453 0.221877 0.0
-0.0681487 0.2185 0.0
-0.0721758 0.213894 0.0
-0.0759932 0.208215 0.0
-0.0795437 0.201605 0.0
-0.0827613 0.1942 0.0
-0.0855812 0.186129 0.0
-0.0879457 0.177513 0.0
-0.0898081 0.168468 0.0
-0.0911349 0.159106 0.0
-0.0919063 0.149528 0.0
-0.0921157 0.139831 0.0
-0.0917685 0.130102 0.0
-0.0908807 0.120422 0.0
-0.0894768 0.110861 0.0
-0.0875876 0.10148 0.0
-0.0852481 0.0923346 0.0
-0.0824953 0.0834689 0.0
-0.0793666 0.0749212 0.0
-0.0758981 0.0667227 0.0
-0.072123 0.0588991 0.0
-0.0680709 0.0514711 0.0
-0.0637671 0.044456 0.0
-0.0592322 0.0378689 0.0
-0.0544821 0.0317236 0.0
-0.0495288 0.0260342 0.0
-0.0443803 0.0208166 0.0
-0.0390422 0.0160899 0.0
-0.0335185 0.011878 0.0
-0.0278128 0.00821215 0.0
-0.0219291 0.0051339 0.0
-0.0158727 0.00268873 0.0
-0.00965032 0.000942181 0.0
-0.00326851 0.000127196 0.0
0.875098 0.00206642 0.0
0.642565 0.0158408 0.0
0.450956 0.0415929 0.0
0.304178 0.0704319 0.0
0.196753 0.0990196 0.0
0.12033 0.125293 0.0
0.0668373 0.148264 0.0
0.0296187 0.167639 0.0
0.00360473 0.183483 0.0
-0.0148372 0.195974 0.0
-0.0282577 0.20536 0.0
-0.0385217 0.212024 0.0
-0.0468458 0.216286 0.0
-0.0539901 0.218424 0.0
-0.0604056 0.218681 0.0
-0.0663384 0.217268 0.0
-0.0719009 0.214375 0.0
-0.0771216 0.210175 0.0
-0.0819791 0.204829 0.0
-0.0864255 0.198488 0.0
-0.0904021 0.191298 0.0
-0.0938504 0.183397 0.0
-0.0967188 0.174915 0.0
-0.0989672 0.16598 0.0
-0.100569 0.156711 0.0
-0.101512 0.147217 0.0
-0.101798 0.137602 0.0
-0.101441 0.127959 0.0
-0.100467 0.118372 0.0
-0.0989084 0.108913 0.0
-0.0968066 0.0996461 0.0
-0.094205 0.0906252 0.0
-0.0911489 0.0818947 0.0
-0.0876833 0.0734909 0.0
-0.0838505 0.0654427 0.0
-0.0796894 0.0577726 0.0
-0.0752338 0.0504984 0.0
-0.0705118 0.0436339 0.0
-0.0655458 0.0371907 0.0
-0.060352 0.0311795 0.0
-0.054941 0.0256119 0.0
-0.0493181 0.0205013 0.0
-0.0434845 0.0158654 0.0
-0.0374376 0.0117275 0.0
-0.0311722 0.00811887 0.0
-0.0246813 0.00508226 0.0
-0.0179561 0.002665 0.0
-0.010986 0.000934956 0.0
-0.00375654 0.000126429 0.0
0.882843 0.0017929 0.0
0.662129 0.0140762 0.0
0.476857 0.0374616 0.0
0.331952 0.0641944 0.0
0.223543 0.0911958 0.0
0.144593 0.116448 0.0
0.087893 0.138898 0.0
0.0472903 0.158148 0.0
0.0179773 0.174156 0.0
-0.0036044 0.187061 0.0
-0.0198978 0.196998 0.0
-0.0327198 0.204244 0.0
-0.043319 0.209091 0.0
-0.0524896 0.211789 0.0
-0.0607115 0.212559 0.0
-0.0682527 0.211605 0.0
-0.0752428 0.209113 0.0
-0.0817227 0.205254 0.0
-0.0876804 0.200195 0.0
-0.0930751 0.194093 0.0
-0.0978543 0.187099 0.0
-0.101965 0.17936 0.0
-0.105363 0.171018 0.0
-0.108014 0.162207 0.0
-0.109899 0.153053 0.0
-0.111016 0.143674 0.0
-0.111374 0.134179 0.0
-0.111 0.124665 0.0
-0.109928 0.115219 0.0
-0.108203 0.105916 0.0
-0.105876 0.0968199 0.0
-0.103 0.0879846 0.0
-0.09963 0.0794527 0.0
-0.095819 0.0712583 0.0
-0.0916166 0.0634272 0.0
-0.0870675 0.0559786 0.0
-0.0822098 0.0489262 0.0
-0.0770749 0.04228 0.0
-0.0716866 0.0360478 0.0
-0.0660609 0.0302367 0.0
-0.0602069 0.0248547 0.0
-0.0541267 0.0199126 0.0
-0.0478159 0.0154256 0.0
-0.0412649 0.0114155 0.0
-0.0344591 0.0079127 0.0
-0.0273795 0.00495965 0.0
-0.0200025 0.00260421 0.0
-0.0123002 0.000915006 0.0
-0.00423753 0.000124077 0.0
0.889746 0.00157449 0.0
0.679819 0.0126052 0.0
0.500681 0.0339327 0.0
0.357942 0.0587475 0.0
0.249026 0.0842204 0.0
0.168031 0.108401 0.0
0.108539 0.130201 0.0
0.0648775 0.14915 0.0
0.0325082 0.16512 0.0
0.00801147 0.178172 0.0
-0.011076 0.188454 0.0
-0.0264264 0.196094 0.0
-0.039302 0.201356 0.0
-0.0505231 0.204462 0.0
-0.0605896 0.205619 0.0
-0.0697858 0.205016 0.0
-0.0782527 0.202835 0.0
-0.08604 0.199246 0.0
-0.093142 0.194418 0.0
-0.099523 0.188512 0.0
-0.105135 0.181687 0.0
-0.109932 0.174097 0.0
-0.113874 0.165891 0.0
-0.116934 0.15721 0.0
-0.119103 0.148188 0.0
-0.120387 0.138949 0.0
-0.120808 0.129606 0.0
-0.120402 0.120261 0.0
-0.119216 0.111002 0.0
-0.117308 0.101906 0.0
-0.114738 0.093036 0.0
-0.111573 0.0844448 0.0
-0.107876 0.0761728 0.0
-0.103709 0.068251 0.0
-0.0991305 0.0607017 0.0
-0.0941907 0.05354 0.0
-0.0889325 0.0467752 0.0
-0.0833902 0.0404131 0.0
-0.0775891 0.0344569 0.0
-0.0715451 0.0289094 0.0
-0.065265 0.023775 0.0
-0.0587471 0.0190607 0.0
-0.0519813 0.0147788 0.0
-0.0449502 0.0109485 0.0
-0.0376291 0.00759831 0.0
-0.0299864 0.00476912 0.0
-0.0219837 0.00250801 0.0
-0.0135751 0.000882909 0.0
-0.00470514 0.000120212 0.0
0.895941 0.00139369 0.0
0.695891 0.0113513 0.0
0.522648 0.0308652 0.0
0.382265 0.053921 0.0
0.273212 0.0779236 0.0
0.190573 0.101003 0.0
0.128644 0.122059 0.0
0.0822106 0.140567 0.0
0.0470012 0.156336 0.0
0.0197371 0.169363 0.0
-0.00198887 0.179762 0.0
-0.0198162 0.187626 0.0
-0.0349508 0.19314 0.0
-0.0482271 0.196514 0.0
-0.0601582 0.19793 0.0
-0.0710378 0.19757 0.0
-0.0810137 0.195607 0.0
-0.0901404 0.192212 0.0
-0.0984156 0.187553 0.0
-0.105807 0.181797 0.0
-0.11227 0.175109 0.0
-0.117763 0.167647 0.0
-0.122252 0.159569 0.0
-0.125718 0.151022 0.0
-0.128161 0.142146 0.0
-0.129599 0.13307 0.0
-0.130064 0.123911 0.0
-0.129605 0.114773 0.0
-0.128284 0.105747 0.0