# vtk DataFile Version 3.0
Malha 2D com triângulos e temperatura
ASCII
DATASET UNSTRUCTURED_GRID

POINTS 2500 double
0 0 0
1 0 0
1 1 0
0 1 0
0.0204082 0 0
0.0408163 0 0
0.0612245 0 0
0.0816327 0 0
0.102041 0 0
0.122449 0 0
0.142857 0 0
0.163265 0 0
0.183673 0 0
0.204082 0 0
0.22449 0 0
0.244898 0 0
0.265306 0 0
0.285714 0 0
0.306122 0 0
0.326531 0 0
0.346939 0 0
0.367347 0 0
0.387755 0 0
0.408163 0 0
0.428571 0 0
0.44898 0 0
0.469388 0 0
0.489796 0 0
0.510204 0 0
0.530612 0 0
0.55102 0 0
0.571429 0 0
0.591837 0 0
0.612245 0 0
0.632653 0 0
0.653061 0 0
0.673469 0 0
0.693878 0 0
0.714286 0 0
0.734694 0 0
0.755102 0 0
0.77551 0 0
0.795918 0 0
0.816327 0 0
0.836735 0 0
0.857143 0 0
0.877551 0 0
0.897959 0 0
0.918367 0 0
0.938776 0 0
0.959184 0 0
0.979592 0 0
1 0.0204082 0
1 0.0408163 0
1 0.0612245 0
1 0.0816327 0
1 0.102041 0
1 0.122449 0
1 0.142857 0
1 0.163265 0
1 0.183673 0
1 0.204082 0
1 0.22449 0
1 0.244898 0
1 0.265306 0
1 0.285714 0
1 0.306122 0
1 0.326531 0
1 0.346939 0
1 0.367347 0
1 0.387755 0
1 0.408163 0
1 0.428571 0
1 0.44898 0
1 0.469388 0
1 0.489796 0
1 0.510204 0
1 0.530612 0
1 0.55102 0
1 0.571429 0
1 0.591837 0
1 0.612245 0
1 0.632653 0
1 0.653061 0
1 0.673469 0
1 0.693878 0
1 0.714286 0
1 0.734694 0
1 0.755102 0
1 0.77551 0
1 0.795918 0
1 0.816327 0
1 0.836735 0
1 0.857143 0
1 0.877551 0
1 0.897959 0
1 0.918367 0
1 0.938776 0
1 0.959184 0
1 0.979592 0
0.979592 1 0
0.959184 1 0
0.938776 1 0
0.918367 1 0
0.897959 1 0
0.877551 1 0
0.857143 1 0
0.836735 1 0
0.816327 1 0
0.795918 1 0
0.77551 1 0
0.755102 1 0
0.734694 1 0
0.714286 1 0
0.693878 1 0
0.673469 1 0
0.653061 1 0
0.632653 1 0
0.612245 1 0
0.591837 1 0
0.571429 1 0
0.55102 1 0
0.530612 1 0
0.510204 1 0
0.489796 1 0
0.469388 1 0
0.44898 1 0
0.428571 1 0
0.408163 1 0
0.387755 1 0
0.367347 1 0
0.346939 1 0
0.326531 1 0
0.306122 1 0
0.285714 1 0
0.265306 1 0
0.244898 1 0
0.22449 1 0
0.204082 1 0
0.183673 1 0
0.163265 1 0
0.142857 1 0
0.122449 1 0
0.102041 1 0
0.0816327 1 0
0.0612245 1 0
0.0408163 1 0
0.0204082 1 0
0 0.979592 0
0 0.959184 0
0 0.938776 0
0 0.918367 0
0 0.897959 0
0 0.877551 0
0 0.857143 0
0 0.836735 0
0 0.816327 0
0 0.795918 0
0 0.77551 0
0 0.755102 0
0 0.734694 0
0 0.714286 0
0 0.693878 0
0 0.673469 0
0 0.653061 0
0 0.632653 0
0 0.612245 0
0 0.591837 0
0 0.571429 0
0 0.55102 0
0 0.530612 0
0 0.510204 0
0 0.489796 0
0 0.469388 0
0 0.44898 0
0 0.428571 0
0 0.408163 0
0 0.387755 0
0 0.367347 0
0 0.346939 0
0 0.326531 0
0 0.306122 0
0 0.285714 0
0 0.265306 0
0 0.244898 0
0 0.22449 0
0 0.204082 0
0 0.183673 0
0 0.163265 0
0 0.142857 0
0 0.122449 0
0 0.102041 0
0 0.0816327 0
0 0.0612245 0
0 0.0408163 0
0 0.0204082 0
0.0204082 0.979592 0
0.0204082 0.959184 0
0.0204082 0.938776 0
0.0204082 0.918367 0
0.0204082 0.897959 0
0.0204082 0.877551 0
0.0204082 0.857143 0
0.0204082 0.836735 0
0.0204082 0.816327 0
0.0204082 0.795918 0
0.0204082 0.77551 0
0.0204082 0.755102 0
0.0204082 0.734694 0
0.0204082 0.714286 0
0.0204082 0.693878 0
0.0204082 0.673469 0
0.0204082 0.653061 0
0.0204082 0.632653 0
0.0204082 0.612245 0
0.0204082 0.591837 0
0.0204082 0.571429 0
0.0204082 0.55102 0
0.0204082 0.530612 0
0.0204082 0.510204 0
0.0204082 0.489796 0
0.0204082 0.469388 0
0.0204082 0.44898 0
0.0204082 0.428571 0
0.0204082 0.408163 0
0.0204082 0.387755 0
0.0204082 0.367347 0
0.0204082 0.346939 0
0.0204082 0.326531 0
0.0204082 0.306122 0
0.0204082 0.285714 0
0.0204082 0.265306 0
0.0204082 0.244898 0
0.0204082 0.22449 0
0.0204082 0.204082 0
0.0204082 0.183673 0
0.0204082 0.163265 0
0.0204082 0.142857 0
0.0204082 0.122449 0
0.0204082 0.102041 0
0.0204082 0.0816327 0
0.0204082 0.0612245 0
0.0204082 0.0408163 0
0.0204082 0.0204082 0
0.0408163 0.979592 0
0.0408163 0.959184 0
0.0408163 0.938776 0
0.0408163 0.918367 0
0.0408163 0.897959 0
0.0408163 0.877551 0
0.0408163 0.857143 0
0.0408163 0.836735 0
0.0408163 0.816327 0
0.0408163 0.795918 0
0.0408163 0.77551 0
0.0408163 0.755102 0
0.0408163 0.734694 0
0.0408163 0.714286 0
0.0408163 0.693878 0
0.0408163 0.673469 0
0.0408163 0.653061 0
0.0408163 0.632653 0
0.0408163 0.612245 0
0.0408163 0.591837 0
0.0408163 0.571429 0
0.0408163 0.55102 0
0.0408163 0.530612 0
0.0408163 0.510204 0
0.0408163 0.489796 0
0.0408163 0.469388 0
0.0408163 0.44898 0
0.0408163 0.428571 0
0.0408163 0.408163 0
0.0408163 0.387755 0
0.0408163 0.367347 0
0.0408163 0.346939 0
0.0408163 0.326531 0
0.0408163 0.306122 0
0.0408163 0.285714 0
0.0408163 0.265306 0
0.0408163 0.244898 0
0.0408163 0.22449 0
0.0408163 0.204082 0
0.0408163 0.183673 0
0.0408163 0.163265 0
0.0408163 0.142857 0
0.0408163 0.122449 0
0.0408163 0.102041 0
0.0408163 0.0816327 0
0.0408163 0.0612245 0
0.0408163 0.0408163 0
0.0408163 0.0204082 0
0.0612245 0.979592 0
0.0612245 0.959184 0
0.0612245 0.938776 0
0.0612245 0.918367 0
0.0612245 0.897959 0
0.0612245 0.877551 0
0.0612245 0.857143 0
0.0612245 0.836735 0
0.0612245 0.816327 0
0.0612245 0.795918 0
0.0612245 0.77551 0
0.0612245 0.755102 0
0.0612245 0.734694 0
0.0612245 0.714286 0
0.0612245 0.693878 0
0.0612245 0.673469 0
0.0612245 0.653061 0
0.0612245 0.632653 0
0.0612245 0.612245 0
0.0612245 0.591837 0
0.0612245 0.571429 0
0.0612245 0.55102 0
0.0612245 0.530612 0
0.0612245 0.510204 0
0.0612245 0.489796 0
0.0612245 0.469388 0
0.0612245 0.44898 0
0.0612245 0.428571 0
0.0612245 0.408163 0
0.0612245 0.387755 0
0.0612245 0.367347 0
0.0612245 0.346939 0
0.0612245 0.326531 0
0.0612245 0.306122 0
0.0612245 0.285714 0
0.0612245 0.265306 0
0.0612245 0.244898 0
0.0612245 0.22449 0
0.0612245 0.204082 0
0.0612245 0.183673 0
0.0612245 0.163265 0
0.0612245 0.142857 0
0.0612245 0.122449 0
0.0612245 0.102041 0
0.0612245 0.0816327 0
0.0612245 0.0612245 0
0.0612245 0.0408163 0
0.0612245 0.0204082 0
0.0816327 0.979592 0
0.0816327 0.959184 0
0.0816327 0.938776 0
0.0816327 0.918367 0
0.0816327 0.897959 0
0.0816327 0.877551 0
0.0816327 0.857143 0
0.0816327 0.836735 0
0.0816327 0.816327 0
0.0816327 0.795918 0
0.0816327 0.77551 0
0.0816327 0.755102 0
0.0816327 0.734694 0
0.0816327 0.714286 0
0.0816327 0.693878 0
0.0816327 0.673469 0
0.0816327 0.653061 0
0.0816327 0.632653 0
0.0816327 0.612245 0
0.0816327 0.591837 0
0.0816327 0.571429 0
0.0816327 0.55102 0
0.0816327 0.530612 0
0.0816327 0.510204 0
0.0816327 0.489796 0
0.0816327 0.469388 0
0.0816327 0.44898 0
0.0816327 0.428571 0
0.0816327 0.408163 0
0.0816327 0.387755 0
0.0816327 0.367347 0
0.0816327 0.346939 0
0.0816327 0.326531 0
0.0816327 0.306122 0
0.0816327 0.285714 0
0.0816327 0.265306 0
0.0816327 0.244898 0
0.0816327 0.22449 0
0.0816327 0.204082 0
0.0816327 0.183673 0
0.0816327 0.163265 0
0.0816327 0.142857 0
0.0816327 0.122449 0
0.0816327 0.102041 0
0.0816327 0.0816327 0
0.0816327 0.0612245 0
0.0816327 0.0408163 0
0.0816327 0.0204082 0
0.102041 0.979592 0
0.102041 0.959184 0
0.102041 0.938776 0
0.102041 0.918367 0
0.102041 0.897959 0
0.102041 0.877551 0
0.102041 0.857143 0
0.102041 0.836735 0
0.102041 0.816327 0
0.102041 0.795918 0
0.102041 0.77551 0
0.102041 0.755102 0
0.102041 0.734694 0
0.102041 0.714286 0
0.102041 0.693878 0
0.102041 0.673469 0
0.102041 0.653061 0
0.102041 0.632653 0
0.102041 0.612245 0
0.102041 0.591837 0
0.102041 0.571429 0
0.102041 0.55102 0
0.102041 0.530612 0
0.102041 0.510204 0
0.102041 0.489796 0
0.102041 0.469388 0
0.102041 0.44898 0
0.102041 0.428571 0
0.102041 0.408163 0
0.102041 0.387755 0
0.102041 0.367347 0
0.102041 0.346939 0
0.102041 0.326531 0
0.102041 0.306122 0
0.102041 0.285714 0
0.102041 0.265306 0
0.102041 0.244898 0
0.102041 0.22449 0
0.102041 0.204082 0
0.102041 0.183673 0
0.102041 0.163265 0
0.102041 0.142857 0
0.102041 0.122449 0
0.102041 0.102041 0
0.102041 0.0816327 0
0.102041 0.0612245 0
0.102041 0.0408163 0
0.102041 0.0204082 0
0.122449 0.979592 0
0.122449 0.959184 0
0.122449 0.938776 0
0.122449 0.918367 0
0.122449 0.897959 0
0.122449 0.877551 0
0.122449 0.857143 0
0.122449 0.836735 0
0.122449 0.816327 0
0.122449 0.795918 0
0.122449 0.77551 0
0.122449 0.755102 0
0.122449 0.734694 0
0.122449 0.714286 0
0.122449 0.693878 0
0.122449 0.673469 0
0.122449 0.653061 0
0.122449 0.632653 0
0.122449 0.612245 0
0.122449 0.591837 0
0.122449 0.571429 0
0.122449 0.55102 0
0.122449 0.530612 0
0.122449 0.510204 0
0.122449 0.489796 0
0.122449 0.469388 0
0.122449 0.44898 0
0.122449 0.428571 0
0.122449 0.408163 0
0.122449 0.387755 0
0.122449 0.367347 0
0.122449 0.346939 0
0.122449 0.326531 0
0.122449 0.306122 0
0.122449 0.285714 0
0.122449 0.265306 0
0.122449 0.244898 0
0.122449 0.22449 0
0.122449 0.204082 0
0.122449 0.183673 0
0.122449 0.163265 0
0.122449 0.142857 0
0.122449 0.122449 0
0.122449 0.102041 0
0.122449 0.0816327 0
0.122449 0.0612245 0
0.122449 0.0408163 0
0.122449 0.0204082 0
0.142857 0.979592 0
0.142857 0.959184 0
0.142857 0.938776 0
0.142857 0.918367 0
0.142857 0.897959 0
0.142857 0.877551 0
0.142857 0.857143 0
0.142857 0.836735 0
0.142857 0.816327 0
0.142857 0.795918 0
0.142857 0.77551 0
0.142857 0.755102 0
0.142857 0.734694 0
0.142857 0.714286 0
0.142857 0.693878 0
0.142857 0.673469 0
0.142857 0.653061 0
0.142857 0.632653 0
0.142857 0.612245 0
0.142857 0.591837 0
0.142857 0.571429 0
0.142857 0.55102 0
0.142857 0.530612 0
0.142857 0.510204 0
0.142857 0.489796 0
0.142857 0.469388 0
0.142857 0.44898 0
0.142857 0.428571 0
0.142857 0.408163 0
0.142857 0.387755 0
0.142857 0.367347 0
0.142857 0.346939 0
0.142857 0.326531 0
0.142857 0.306122 0
0.142857 0.285714 0
0.142857 0.265306 0
0.142857 0.244898 0
0.142857 0.22449 0
0.142857 0.204082 0
0.142857 0.183673 0
0.142857 0.163265 0
0.142857 0.142857 0
0.142857 0.122449 0
0.142857 0.102041 0
0.142857 0.0816327 0
0.142857 0.0612245 0
0.142857 0.0408163 0
0.142857 0.0204082 0
0.163265 0.979592 0
0.163265 0.959184 0
0.163265 0.938776 0
0.163265 0.918367 0
0.163265 0.897959 0
0.163265 0.877551 0
0.163265 0.857143 0
0.163265 0.836735 0
0.163265 0.816327 0
0.163265 0.795918 0
0.163265 0.77551 0
0.163265 0.755102 0
0.163265 0.734694 0
0.163265 0.714286 0
0.163265 0.693878 0
0.163265 0.673469 0
0.163265 0.653061 0
0.163265 0.632653 0
0.163265 0.612245 0
0.163265 0.591837 0
0.163265 0.571429 0
0.163265 0.55102 0
[...]
CELL_DATA 2401
VECTORS velocity double
0.257354 0.157463 0.0
-0.00271613 0.264572 0.0
-0.0323277 0.205418 0.0
-0.0254036 0.150502 0.0
-0.0160765 0.11293 0.0
-0.00971205 0.087548 0.0
-0.00593037 0.0704664 0.0
-0.00374006 0.0587794 0.0
-0.00245273 0.0505763 0.0
-0.00167242 0.0446681 0.0
-0.00118298 0.0403043 0.0
-0.000866833 0.0369976 0.0
-0.000658395 0.0344225 0.0
-0.000519637 0.0323551 0.0
-0.000427479 0.0306383 0.0
-0.00036728 0.0291597 0.0
-0.000329366 0.0278385 0.0
-0.000307109 0.0266161 0.0
-0.000295824 0.0254502 0.0
-0.000292102 0.024311 0.0
-0.000293406 0.0231778 0.0
-0.000297809 0.0220371 0.0
-0.000303828 0.020881 0.0
-0.000310314 0.0197061 0.0
-0.000316383 0.0185122 0.0
-0.000321362 0.0173018 0.0
-0.000324752 0.0160796 0.0
-0.000326203 0.0148516 0.0
-0.00032549 0.0136247 0.0
-0.000322491 0.0124066 0.0
-0.000317168 0.0112052 0.0
-0.000309552 0.0100287 0.0
-0.000299724 0.00888471 0.0
-0.000287797 0.00778095 0.0
-0.000273907 0.00672456 0.0
-0.00025819 0.0057223 0.0
-0.000240777 0.00478046 0.0
-0.000221774 0.00390493 0.0
-0.000201252 0.00310127 0.0
-0.000179234 0.00237473 0.0
-0.000155679 0.00173042 0.0
-0.000130478 0.00117339 0.0
-0.000103453 0.000708663 0.0
-7.44115e-05 0.000341219 0.0
-4.33197e-05 7.55554e-05 0.0
-1.08249e-05 -8.53821e-05 0.0
2.0414e-05 -0.000142654 0.0
4.299e-05 -0.00011042 0.0
3.76827e-05 -3.74874e-05 0.0
0.340588 0.122947 0.0
-0.000703178 0.249369 0.0
-0.0653195 0.271518 0.0
-0.0633467 0.252004 0.0
-0.0485931 0.221451 0.0
-0.0350052 0.191567 0.0
-0.0249193 0.166163 0.0
-0.0178608 0.145741 0.0
-0.0129883 0.129681 0.0
-0.00961626 0.117124 0.0
-0.00726586 0.107262 0.0
-0.00561796 0.0994274 0.0
-0.0044606 0.0930915 0.0
-0.00365109 0.0878474 0.0
-0.00309141 0.0833847 0.0
-0.00271279 0.0794679 0.0
-0.00246592 0.0759199 0.0
-0.00231475 0.0726081 0.0
-0.00223241 0.0694348 0.0
-0.00219856 0.0663292 0.0
-0.00219754 0.0632418 0.0
-0.00221721 0.0601401 0.0
-0.00224803 0.0570049 0.0
-0.00228257 0.0538275 0.0
-0.00231501 0.0506076 0.0
-0.00234091 0.0473515 0.0
-0.00235694 0.0440703 0.0
-0.00236072 0.0407789 0.0
-0.00235068 0.0374946 0.0
-0.00232588 0.0342365 0.0
-0.00228596 0.0310244 0.0
-0.00223097 0.0278785 0.0
-0.0021613 0.0248186 0.0
-0.00207756 0.021864 0.0
-0.0019805 0.019033 0.0
-0.00187095 0.0163432 0.0
-0.0017497 0.0138109 0.0
-0.00161748 0.0114513 0.0
-0.00147491 0.00927897 0.0
-0.00132243 0.0073073 0.0
-0.00116037 0.00554906 0.0
-0.000988953 0.00401618 0.0
-0.000808506 0.0027196 0.0
-0.000619914 0.00166856 0.0
-0.000425584 0.000869236 0.0
-0.000231614 0.000321943 0.0
-5.22143e-05 1.60769e-05 0.0
8.28749e-05 -8.11559e-05 0.0
0.00010984 -4.17991e-05 0.0
0.500819 0.0767811 0.0
0.0989659 0.183158 0.0
-0.0395076 0.249105 0.0
-0.0735709 0.265542 0.0
-0.0719916 0.257217 0.0
-0.0606204 0.239445 0.0
-0.0482922 0.219497 0.0
-0.037653 0.200658 0.0
-0.0291966 0.184132 0.0
-0.0227227 0.170122 0.0
-0.0178655 0.158404 0.0
-0.0142704 0.148605 0.0
-0.0116422 0.140336 0.0
-0.00974811 0.133239 0.0
-0.00840918 0.127011 0.0
-0.00748839 0.121404 0.0
-0.00688086 0.116221 0.0
-0.00650589 0.111308 0.0
-0.0063009 0.106548 0.0
-0.00621697 0.101855 0.0
-0.00621558 0.0971696 0.0
-0.00626625 0.0924518 0.0
-0.0063448 0.0876789 0.0
-0.00643211 0.082842 0.0
-0.00651319 0.0779433 0.0
-0.00657646 0.0729934 0.0
-0.00661326 0.0680095 0.0
-0.00661732 0.0630139 0.0
-0.00658445 0.0580322 0.0
-0.00651217 0.0530921 0.0
-0.0063994 0.0482227 0.0
-0.00624618 0.043453 0.0
-0.00605341 0.0388121 0.0
-0.0058226 0.034328 0.0
-0.00555564 0.0300274 0.0
-0.00525462 0.025936 0.0
-0.00492166 0.0220776 0.0
-0.00455877 0.0184747 0.0
-0.00416776 0.0151483 0.0
-0.00375027 0.0121179 0.0
-0.00330779 0.00940151 0.0
-0.002842 0.00701548 0.0
-0.00235535 0.00497396 0.0
-0.0018522 0.00328788 0.0
-0.00134103 0.00196301 0.0
-0.000838595 0.000996938 0.0
-0.000377221 0.000373159 0.0
-1.49679e-05 5.34278e-05 0.0
0.00013958 -1.83935e-05 0.0
0.609927 0.0480246 0.0
0.195458 0.133909 0.0
0.0111349 0.209334 0.0
-0.0582426 0.246328 0.0
-0.0761783 0.256882 0.0
-0.0737027 0.253506 0.0
-0.0642922 0.243383 0.0
-0.0535785 0.230759 0.0
-0.0437481 0.217882 0.0
-0.0354949 0.205798 0.0
-0.02889 0.194886 0.0
-0.0237676 0.185184 0.0
-0.0198928 0.176562 0.0
-0.0170311 0.168829 0.0
-0.0149744 0.161783 0.0
-0.0135469 0.155235 0.0
-0.012604 0.149024 0.0
-0.0120283 0.143016 0.0
-0.0117246 0.137106 0.0
-0.0116161 0.131217 0.0
-0.0116409 0.125294 0.0
-0.0117487 0.119302 0.0
-0.0118993 0.113222 0.0
-0.0120605 0.107052 0.0
-0.0122067 0.100799 0.0
-0.0123183 0.0944795 0.0
-0.0123803 0.0881178 0.0
-0.012382 0.0817428 0.0
-0.0123162 0.0753871 0.0
-0.0121786 0.0690855 0.0
-0.0119675 0.0628741 0.0
-0.0116829 0.0567889 0.0
-0.0113264 0.0508655 0.0
-0.0109006 0.0451384 0.0
-0.010409 0.0396406 0.0
-0.0098553 0.0344033 0.0
-0.00924323 0.029456 0.0
-0.00857659 0.024826 0.0
-0.00785894 0.0205389 0.0
-0.00709369 0.0166184 0.0
-0.00628431 0.0130858 0.0
-0.00543492 0.00996018 0.0
-0.00455128 0.00725757 0.0
-0.00364264 0.00498969 0.0
-0.00272494 0.0031623 0.0
-0.00182625 0.00177274 0.0
-0.000995536 0.000804112 0.0
-0.00031358 0.000223172 0.0
8.12114e-05 1.22952e-05 0.0
0.680283 0.0301414 0.0
0.278182 0.0981472 0.0
0.0693353 0.170937 0.0
-0.0276805 0.217463 0.0
-0.0653 0.240987 0.0
-0.0745339 0.249587 0.0
-0.0712624 0.249182 0.0
-0.0632628 0.243871 0.0
-0.0542113 0.23622 0.0
-0.0457441 0.227712 0.0
-0.0384914 0.219135 0.0
-0.0326006 0.210856 0.0
-0.0279998 0.203001 0.0
-0.0245292 0.195562 0.0
-0.0220053 0.188465 0.0
-0.0202502 0.181615 0.0
-0.0191039 0.174914 0.0
-0.0184278 0.168273 0.0
-0.0181043 0.16162 0.0
-0.0180349 0.1549 0.0
-0.0181375 0.148077 0.0
-0.0183448 0.141128 0.0
-0.0186015 0.134048 0.0
-0.0188629 0.126844 0.0
-0.0190935 0.11953 0.0
-0.0192656 0.112133 0.0
-0.0193582 0.104683 0.0
-0.0193564 0.0972157 0.0
-0.0192501 0.0897711 0.0
-0.0190335 0.0823895 0.0
-0.0187042 0.0751127 0.0
-0.0182627 0.0679821 0.0
-0.0177116 0.0610381 0.0
-0.0170549 0.0543197 0.0
-0.0162978 0.0478642 0.0
-0.0154459 0.0417067 0.0
-0.0145052 0.0358803 0.0
-0.0134816 0.0304155 0.0
-0.0123806 0.0253409 0.0
-0.0112081 0.0206826 0.0
-0.00997009 0.016464 0.0
-0.00867369 0.0127059 0.0
-0.00732864 0.00942557 0.0
-0.00594951 0.00663574 0.0
-0.00455952 0.0043435 0.0
-0.00319646 0.00254888 0.0
-0.00192166 0.00123939 0.0
-0.000830019 0.000393608 0.0
-7.30627e-05 4.19533e-05 0.0
0.729663 0.0191744 0.0
0.348698 0.0730314 0.0
0.127661 0.139306 0.0
0.0111038 0.188335 0.0
-0.0442172 0.219794 0.0
-0.0656887 0.237066 0.0
-0.0701033 0.244686 0.0
-0.0665756 0.246119 0.0
-0.059915 0.243815 0.0
-0.0525754 0.239374 0.0
-0.045735 0.233786 0.0
-0.0398891 0.227628 0.0
-0.0351763 0.22121 0.0
-0.0315575 0.214677 0.0
-0.0289123 0.208079 0.0
-0.0270908 0.201412 0.0
-0.0259402 0.194651 0.0
-0.0253171 0.187762 0.0
-0.025093 0.180713 0.0
-0.0251559 0.173481 0.0
-0.0254098 0.166055 0.0
-0.025774 0.158433 0.0
-0.0261811 0.150624 0.0
-0.0265762 0.142648 0.0
-0.0269151 0.134533 0.0
-0.0271633 0.126313 0.0
-0.0272948 0.118026 0.0
-0.0272911 0.109717 0.0
-0.0271399 0.10143 0.0
-0.0268345 0.0932117 0.0
-0.0263725 0.0851082 0.0
-0.0257552 0.0771651 0.0
-0.0249864 0.0694266 0.0
-0.0240722 0.0619348 0.0
-0.0230197 0.0547298 0.0
-0.021837 0.0478489 0.0
-0.0205324 0.0413274 0.0
-0.019114 0.0351976 0.0
-0.0175901 0.0294897 0.0
-0.0159689 0.0242311 0.0
-0.0142594 0.0194463 0.0
-0.012472 0.0151574 0.0
-0.0106202 0.0113827 0.0
-0.00872366 0.00813652 0.0
-0.0068114 0.0054289 0.0
-0.00492817 0.00326497 0.0
-0.00314244 0.00164005 0.0
-0.00155469 0.000547884 0.0
-0.000315898 6.74695e-05 0.0
0.76567 0.01258 0.0
0.408138 0.0557123 0.0
0.18269 0.114599 0.0
0.0527068 0.162781 0.0
-0.016892 0.198092 0.0
-0.0498019 0.221156 0.0
-0.0623259 0.234807 0.0
-0.0642001 0.241803 0.0
-0.0609923 0.244272 0.0
-0.055791 0.243737 0.0
-0.0502458 0.241233 0.0
-0.0451805 0.237436 0.0
-0.040952 0.232768 0.0
-0.0376601 0.227484 0.0
-0.035269 0.221728 0.0
-0.0336765 0.215577 0.0
-0.0327536 0.20907 0.0
-0.0323659 0.202227 0.0
-0.0323848 0.195058 0.0
-0.032693 0.187576 0.0
-0.0331867 0.179796 0.0
-0.0337764 0.171738 0.0
-0.0343866 0.163432 0.0
-0.0349547 0.15491 0.0
-0.0354301 0.146214 0.0
-0.0357734 0.137389 0.0
-0.035955 0.128481 0.0
-0.0359538 0.119542 0.0
-0.0357566 0.110622 0.0
-0.0353565 0.101773 0.0
-0.0347518 0.0930465 0.0
-0.0339453 0.0844898 0.0
-0.0329428 0.0761502 0.0
-0.0317526 0.068072 0.0
-0.0303844 0.0602967 0.0
-0.0288489 0.052863 0.0
-0.027157 0.045807 0.0
-0.0253196 0.0391618 0.0
-0.0233476 0.0329579 0.0
-0.0212518 0.0272232 0.0
-0.0190439 0.021983 0.0
-0.0167374 0.0172599 0.0
-0.0143494 0.0130736 0.0
-0.011903 0.00944078 0.0
-0.00943141 0.00637532 0.0
-0.00698286 0.00388916 0.0
-0.00462779 0.00198718 0.0
-0.00246497 0.00067918 0.0
-0.000635102 8.81332e-05 0.0
0.79272 0.00860096 0.0
0.458232 0.0436589 0.0
0.233246 0.095511 0.0
0.0944866 0.141321 0.0
0.0141369 0.177737 0.0
-0.0290761 0.20446 0.0
-0.0495226 0.222413 0.0
-0.0571581 0.233733 0.0
-0.0580127 0.240169 0.0
-0.0556339 0.243073 0.0
-0.0520473 0.243436 0.0
-0.0483601 0.241956 0.0
-0.0451314 0.239109 0.0
-0.0425998 0.235212 0.0
-0.0408205 0.230477 0.0
-0.0397492 0.22504 0.0
-0.0392908 0.218994 0.0
-0.0393293 0.212405 0.0
-0.0397439 0.205324 0.0
-0.0404189 0.197793 0.0
-0.0412485 0.189856 0.0
-0.042139 0.181556 0.0
-0.04301 0.17294 0.0
-0.0437945 0.164059 0.0
-0.044438 0.154966 0.0
-0.044898 0.145716 0.0
-0.0451429 0.136366 0.0
-0.0451511 0.126975 0.0
-0.0449091 0.117599 0.0
-0.0444111 0.108294 0.0
-0.0436572 0.099115 0.0
-0.0426524 0.090113 0.0
-0.0414051 0.0813366 0.0
-0.0399266 0.0728316 0.0
-0.0382295 0.0646401 0.0
-0.0363274 0.0568012 0.0
-0.0342342 0.0493508 0.0
-0.0319635 0.0423219 0.0
-0.029529 0.0357446 0.0
-0.0269441 0.0296468 0.0
-0.0242229 0.0240536 0.0
-0.0213815 0.0189883 0.0
-0.0184393 0.0144719 0.0
-0.0154217 0.0105239 0.0
-0.0123635 0.00716265 0.0
-0.00931339 0.00440762 0.0
-0.00633916 0.00227368 0.0
-0.00353229 0.000785804 0.0
-0.00101704 0.000104182 0.0
0.813758 0.00615788 0.0
0.500786 0.0351233 0.0
0.279173 0.0807604 0.0
0.134983 0.123626 0.0
0.0463511 0.159809 0.0
-0.00529176 0.188287 0.0
-0.0330939 0.209175 0.0
-0.0464806 0.2237 0.0
-0.0516799 0.233274 0.0
-0.0525409 0.239047 0.0
-0.0513734 0.241918 0.0
-0.0495152 0.242554 0.0
-0.0477008 0.241444 0.0
-0.0462955 0.238935 0.0
-0.0454435 0.235277 0.0
-0.0451601 0.230649 0.0
-0.0453889 0.225184 0.0
-0.0460373 0.218984 0.0
-0.046998 0.212131 0.0
-0.0481617 0.204698 0.0
-0.0494245 0.196753 0.0
-0.0506925 0.18836 0.0
-0.051884 0.179584 0.0
-0.05293 0.170492 0.0
-0.0537744 0.16115 0.0
-0.054374 0.151624 0.0
-0.054697 0.141979 0.0
-0.0547224 0.132282 0.0
-0.0544384 0.122595 0.0
-0.0538413 0.112979 0.0
-0.0529339 0.103492 0.0
-0.0517245 0.0941859 0.0
-0.0502248 0.0851121 0.0
-0.0484497 0.0763166 0.0
-0.0464154 0.0678414 0.0
-0.0441387 0.0597252 0.0
-0.0416368 0.0520032 0.0
-0.0389261 0.0447072 0.0
-0.0360229 0.0378667 0.0
-0.032943 0.0315085 0.0
-0.0297025 0.0256575 0.0
-0.0263191 0.0203373 0.0
-0.0228136 0.0155702 0.0
-0.0192119 0.0113785 0.0
-0.0155483 0.00778536 0.0
-0.0118686 0.00481735 0.0
-0.00823449 0.00249896 0.0
-0.0047263 0.000868546 0.0
-0.00144833 0.000116169 0.0
0.830656 0.00461749 0.0
0.537315 0.0289437 0.0
0.320768 0.0692483 0.0
0.173593 0.10903 0.0
0.078763 0.144215 0.0
0.0202831 0.173241 0.0
-0.0141719 0.195969 0.0
-0.0330829 0.212791 0.0
-0.0426865 0.224762 0.0
-0.0470051 0.23284 0.0
-0.0485508 0.237812 0.0
-0.0488412 0.240292 0.0
-0.0487557 0.240752 0.0
-0.0487699 0.239546 0.0
-0.0491084 0.236941 0.0
-0.0498435 0.233142 0.0
-0.0509577 0.228309 0.0
-0.0523839 0.22257 0.0
-0.0540307 0.216033 0.0
-0.0557982 0.208797 0.0
-0.0575878 0.200948 0.0
-0.0593081 0.192572 0.0
-0.0608783 0.18375 0.0
-0.06223 0.174562 0.0
-0.0633079 0.165087 0.0
-0.0640697 0.155401 0.0
-0.0644853 0.145581 0.0
-0.0645359 0.135698 0.0
-0.0642128 0.12582 0.0
-0.0635158 0.116013 0.0
-0.0624517 0.106337 0.0
-0.0610327 0.096847 0.0
-0.0592752 0.0875943 0.0
-0.0571979 0.0786251 0.0
-0.0548213 0.0699809 0.0
-0.0521661 0.0616993 0.0
-0.0492526 0.053814 0.0
-0.0461003 0.0463553 0.0
-0.042728 0.039351 0.0
-0.0391534 0.0328268 0.0
-0.0353942 0.0268069 0.0
-0.0314687 0.0213146 0.0
-0.0273978 0.0163735 0.0
-0.0232062 0.0120083 0.0
-0.0189255 0.00824657 0.0
-0.0145963 0.00512142 0.0
-0.0102714 0.00266583 0.0
-0.00601727 0.000929283 0.0
-0.00191669 0.000124706 0.0
0.844607 0.00361308 0.0
0.56901 0.0243628 0.0
0.35845 0.0601543 0.0
0.210029 0.0969554 0.0
0.110602 0.130747 0.0
0.0464655 0.159659 0.0
0.00642832 0.183221 0.0
-0.0177042 0.201637 0.0
-0.0316427 0.215388 0.0
-0.0395011 0.225265 0.0
-0.0439292 0.231944 0.0
-0.046581 0.235976 0.0
-0.0484519 0.2378 0.0
-0.0501098 0.237763 0.0
-0.0518495 0.236135 0.0
-0.0537944 0.233132 0.0
-0.0559632 0.228931 0.0
-0.058314 0.223679 0.0
-0.0607719 0.217504 0.0
-0.063248 0.210522 0.0
-0.0656504 0.202838 0.0
-0.0678921 0.194554 0.0
-0.0698953 0.185766 0.0
-0.0715941 0.176568 0.0
-0.0729356 0.167049 0.0
-0.0738803 0.157297 0.0
-0.0744014 0.147396 0.0
-0.0744841 0.137423 0.0
-0.0741239 0.127453 0.0
-0.0733256 0.117555 0.0
-0.0721011 0.10779 0.0
-0.0704679 0.0982177 0.0
-0.0684475 0.0888876 0.0
-0.0660637 0.0798459 0.0
-0.0633417 0.0711331 0.0
-0.0603062 0.0627849 0.0
-0.0569812 0.054833 0.0
-0.0533894 0.0473058 0.0
-0.0495516 0.0402289 0.0
-0.0454873 0.0336261 0.0
-0.0412148 0.0275204 0.0
-0.0367524 0.0219347 0.0
-0.0321196 0.0168932 0.0
-0.0273386 0.0124225 0.0
-0.0224362 0.00855381 0.0
-0.0174457 0.00532584 0.0
-0.0124091 0.00277852 0.0
-0.00737726 0.000970205 0.0
-0.00241111 0.000130348 0.0
0.856392 0.00293158 0.0
0.596803 0.0208811 0.0
0.392674 0.052863 0.0
0.244249 0.0868816 0.0
0.141497 0.119094 0.0
0.0727245 0.147474 0.0
0.0278261 0.171301 0.0
-0.000948893 0.190608 0.0
-0.0190665 0.205638 0.0
-0.030456 0.216874 0.0
-0.037846 0.224899 0.0
-0.0429891 0.230197 0.0
-0.0469722 0.233171 0.0
-0.0504386 0.234145 0.0
-0.0537418 0.233386 0.0
-0.0570494 0.231113 0.0
-0.0604125 0.227509 0.0
-0.063812 0.222735 0.0
-0.0671889 0.216932 0.0
-0.0704652 0.21023 0.0
-0.0735564 0.20275 0.0
-0.0763811 0.194605 0.0
-0.0788656 0.185907 0.0
-0.0809479 0.176759 0.0
-0.0825792 0.167263 0.0
-0.0837241 0.157516 0.0
-0.0843607 0.147607 0.0
-0.0844795 0.137623 0.0
-0.0840821 0.127641 0.0
-0.0831793 0.117735 0.0
-0.0817894 0.107969 0.0
-0.0799363 0.0984002 0.0
-0.0776476 0.0890811 0.0
-0.074953 0.0800559 0.0
-0.0718829 0.0713635 0.0
-0.0684666 0.0630374 0.0
-0.064732 0.0551068 0.0
-0.0607048 0.0475973 0.0
-0.0564079 0.0405319 0.0
-0.0518621 0.0339321 0.0
-0.0470856 0.027819 0.0
-0.0420959 0.0222147 0.0
-0.0369098 0.0171433 0.0
-0.0315454 0.0126325 0.0
-0.0260232 0.00871629 0.0
-0.0203679 0.0054375 0.0
-0.0146088 0.00284153 0.0
-0.00878047 0.000993399 0.0
-0.00292183 0.000133555 0.0
0.866534 0.00244875 0.0
0.62141 0.0181675 0.0
0.423862 0.0469219 0.0
0.276312 0.0783874 0.0
0.171227 0.108954 0.0
0.0986645 0.136541 0.0
0.0495436 0.160258 0.0
0.0166417 0.17995 0.0
-0.00539779 0.195802 0.0
-0.0202449 0.208033 0.0
-0.0306111 0.217083 0.0
-0.0383129 0.223383 0.0
-0.044507 0.227293 0.0
-0.049897 0.229114 0.0
-0.0548841 0.229101 0.0
-0.0596731 0.227469 0.0
-0.0643421 0.224405 0.0
-0.068892 0.220074 0.0
-0.0732779 0.214628 0.0
-0.0774316 0.208207 0.0
-0.0812764 0.200944 0.0
-0.0847362 0.192964 0.0
-0.0877426 0.184388 0.0
-0.0902385 0.175333 0.0
-0.09218 0.165908 0.0
-0.0935375 0.156218 0.0
-0.0942953 0.146361 0.0
-0.0944508 0.136429 0.0
-0.0940126 0.126503 0.0
-0.0929993 0.11666 0.0
-0.0914366 0.106965 0.0
-0.0893561 0.0974775 0.0
-0.0867924 0.0882477 0.0
-0.0837818 0.0793189 0.0
-0.0803606 0.0707276 0.0
-0.0765632 0.0625047 0.0
-0.0724217 0.0546762 0.0
-0.0679646 0.0472644 0.0
-0.063217 0.0402893 0.0
-0.0582002 0.0337694 0.0
-0.0529321 0.0277236 0.0
-0.0474281 0.0221721 0.0
-0.0417016 0.0171382 0.0
-0.0357654 0.01265 0.0
-0.0296323 0.00874307 0.0
-0.0233167 0.00546297 0.0
-0.0168345 0.00285894 0.0
-0.0102032 0.00100064 0.0
-0.00344021 0.000134677 0.0
0.875394 0.0020914 0.0
0.643382 0.016 0.0
0.452383 0.0419998 0.0
0.306324 0.071139 0.0
0.199678 0.100063 0.0
0.124026 0.126697 0.0
0.0712323 0.150044 0.0
0.0345945 0.169808 0.0
0.00901952 0.186043 0.0
-0.00918181 0.198961 0.0
-0.0224982 0.208764 0.0
-0.0327818 0.215826 0.0
-0.0412427 0.220472 0.0
-0.0486318 0.222978 0.0
-0.0553886 0.223581 0.0
-0.0617474 0.22249 0.0
-0.0678088 0.219891 0.0
-0.0735895 0.215951 0.0
-0.0790566 0.210829 0.0
-0.0841505 0.204671 0.0
-0.088801 0.19762 0.0
-0.0929379 0.189812 0.0
-0.0964979 0.181377 0.0
-0.0994295 0.172439 0.0
-0.101695 0.163119 0.0
-0.103271 0.153528 0.0
-0.104151 0.14377 0.0
-0.104339 0.133942 0.0
-0.103852 0.12413 0.0
-0.102718 0.114411 0.0
-0.100972 0.104853 0.0
-0.0986543 0.0955149 0.0
-0.0958068 0.0864455 0.0
-0.0924737 0.0776862 0.0
-0.0886975 0.0692706 0.0
-0.0845183 0.0612262 0.0
-0.0799725 0.0535755 0.0
-0.0750918 0.046337 0.0
-0.069903 0.0395268 0.0
-0.0644278 0.0331602 0.0
-0.058683 0.0272527 0.0
-0.0526813 0.0218223 0.0
-0.0464316 0.0168907 0.0
-0.0399402 0.0124854 0.0
-0.0332115 0.00864213 0.0
-0.0262483 0.00540786 0.0
-0.0190524 0.00283409 0.0
-0.0116237 0.000993285 0.0
-0.00395844 0.00013396 0.0
0.883224 0.00181555 0.0
0.663143 0.0142271 0.0
0.478552 0.0378516 0.0
0.334411 0.0648721 0.0
0.226808 0.0921915 0.0
0.148644 0.117779 0.0
0.0926528 0.140574 0.0
0.0526363 0.160175 0.0
0.0237637 0.176535 0.0
0.00246784 0.189789 0.0
-0.0137445 0.200114 0.0
-0.026604 0.207723 0.0
-0.0373561 0.21292 0.0
-0.0467892 0.215952 0.0
-0.055373 0.21704 0.0
-0.0633649 0.216384 0.0
-0.0708825 0.214165 0.0
-0.0779551 0.210552 0.0
-0.0845588 0.205706 0.0
-0.0906409 0.19978 0.0
-0.0961367 0.192924 0.0
-0.100981 0.185281 0.0
-0.105117 0.176991 0.0
-0.108497 0.168187 0.0
-0.111093 0.158995 0.0
-0.112887 0.149534 0.0
-0.113882 0.139914 0.0
-0.114092 0.130235 0.0
-0.113544 0.120587 0.0
-0.112277 0.111048 0.0
-0.110333 0.101687 0.0
-0.107764 0.0925621 0.0
-0.104622 0.0837196 0.0
-0.100957 0.0751983 0.0
-0.0968209 0.0670287 0.0
-0.0922586 0.0592344 0.0
-0.0873111 0.0518335 0.0
-0.0820134 0.0448402 0.0
-0.0763939 0.0382663 0.0
-0.0704743 0.032123 0.0
-0.06427 0.0264223 0.0
-0.05779 0.0211789 0.0
-0.0510383 0.016412 0.0
-0.0440137 0.0121474 0.0
-0.036711 0.00841995 0.0
-0.0291211 0.00527656 0.0
-0.0212305 0.00276948 0.0
-0.0130216 0.00097231 0.0
-0.00446937 0.000131555 0.0
0.890205 0.00159407 0.0
0.68102 0.0127429 0.0
0.502631 0.0342941 0.0
0.360694 0.059377 0.0
0.252604 0.0851429 0.0
0.172407 0.109627 0.0
0.113628 0.131736 0.0
0.0705547 0.150994 0.0
0.0386248 0.167273 0.0
0.0144054 0.180633 0.0
-0.00457869 0.191236 0.0
-0.0199757 0.199198 0.0
-0.0330157 0.204769 0.0
-0.0445124 0.208175 0.0
-0.0549571 0.209619 0.0
-0.0646236 0.209289 0.0
-0.0736418 0.20736 0.0
-0.0820496 0.204002 0.0
-0.0898293 0.199376 0.0
-0.0969332 0.193641 0.0
-0.103301 0.186952 0.0
-0.108872 0.179461 0.0
-0.113594 0.171312 0.0
-0.117427 0.162648 0.0
-0.120349 0.153601 0.0
-0.122354 0.144296 0.0
-0.123451 0.134847 0.0
-0.123667 0.125359 0.0
-0.123039 0.115921 0.0
-0.121618 0.106615 0.0
-0.119459 0.0975085 0.0
-0.116623 0.0886565 0.0
-0.113171 0.0801043 0.0
-0.109165 0.071887 0.0
-0.104662 0.064031 0.0
-0.0997138 0.0565555 0.0
-0.0943669 0.0494737 0.0
-0.0886591 0.042795 0.0
-0.0826202 0.0365263 0.0
-0.0762718 0.0306741 0.0
-0.0696271 0.0252461 0.0
-0.0626915 0.020253 0.0
-0.0554628 0.0157109 0.0
-0.047932 0.0116429 0.0
-0.0400834 0.0080815 0.0
-0.0318951 0.0050723 0.0
-0.0233384 0.00266686 0.0
-0.0143774 0.00093831 0.0
-0.0049662 0.000127534 0.0
0.896469 0.00140965 0.0
0.697262 0.0114722 0.0
0.524831 0.0311883 0.0
0.385284 0.0544863 0.0
0.277074 0.0787509 0.0
0.195237 0.102098 0.0
0.134021 0.123421 0.0
0.0881741 0.142192 0.0
0.0534035 0.158219 0.0
0.0264215 0.171504 0.0
0.00482508 0.182151 0.0
-0.0130663 0.190307 0.0
-0.0283768 0.196091 0.0
-0.0419388 0.199729 0.0
-0.0542598 0.201402 0.0
-0.0656245 0.201288 0.0
-0.0761703 0.199557 0.0
-0.0859404 0.196376 0.0
-0.0949204 0.191909 0.0
-0.103065 0.186317 0.0
-0.110318 0.179763 0.0
-0.116622 0.172402 0.0
-0.12193 0.164387 0.0
-0.12621 0.155866 0.0
-0.129446 0.146978 0.0
-0.131642 0.137852 0.0
-0.132821 0.128606 0.0
-0.133019 0.119346 0.0
-0.132289 0.110166 0.0
-0.13069 0.101143 0.0