# vtk DataFile Version 3.0
Malha 2D com triângulos: velocidade e pressão
ASCII
DATASET UNSTRUCTURED_GRID

POINTS 2500 double
0 0 0
1 0 0
1 1 0
0 1 0
0.0204082 0 0
0.0408163 0 0
0.0612245 0 0
0.0816327 0 0
0.102041 0 0
0.122449 0 0
0.142857 0 0
0.163265 0 0
0.183673 0 0
0.204082 0 0
0.22449 0 0
0.244898 0 0
0.265306 0 0
0.285714 0 0
0.306122 0 0
0.326531 0 0
0.346939 0 0
0.367347 0 0
0.387755 0 0
0.408163 0 0
0.428571 0 0
0.44898 0 0
0.469388 0 0
0.489796 0 0
0.510204 0 0
0.530612 0 0
0.55102 0 0
0.571429 0 0
0.591837 0 0
0.612245 0 0
0.632653 0 0
0.653061 0 0
0.673469 0 0
0.693878 0 0
0.714286 0 0
0.734694 0 0
0.755102 0 0
0.77551 0 0
0.795918 0 0
0.816327 0 0
0.836735 0 0
0.857143 0 0
0.877551 0 0
0.897959 0 0
0.918367 0 0
0.938776 0 0
0.959184 0 0
0.979592 0 0
1 0.0204082 0
1 0.0408163 0
1 0.0612245 0
1 0.0816327 0
1 0.102041 0
1 0.122449 0
1 0.142857 0
1 0.163265 0
1 0.183673 0
1 0.204082 0
1 0.22449 0
1 0.244898 0
1 0.265306 0
1 0.285714 0
1 0.306122 0
1 0.326531 0
1 0.346939 0
1 0.367347 0
1 0.387755 0
1 0.408163 0
1 0.428571 0
1 0.44898 0
1 0.469388 0
1 0.489796 0
1 0.510204 0
1 0.530612 0
1 0.55102 0
1 0.571429 0
1 0.591837 0
1 0.612245 0
1 0.632653 0
1 0.653061 0
1 0.673469 0
1 0.693878 0
1 0.714286 0
1 0.734694 0
1 0.755102 0
1 0.77551 0
1 0.795918 0
1 0.816327 0
1 0.836735 0
1 0.857143 0
1 0.877551 0
1 0.897959 0
1 0.918367 0
1 0.938776 0
1 0.959184 0
1 0.979592 0
0.979592 1 0
0.959184 1 0
0.938776 1 0
0.918367 1 0
0.897959 1 0
0.877551 1 0
0.857143 1 0
0.836735 1 0
0.816327 1 0
0.795918 1 0
0.77551 1 0
0.755102 1 0
0.734694 1 0
0.714286 1 0
0.693878 1 0
0.673469 1 0
0.653061 1 0
0.632653 1 0
0.612245 1 0
0.591837 1 0
0.571429 1 0
0.55102 1 0
0.530612 1 0
0.510204 1 0
0.489796 1 0
0.469388 1 0
0.44898 1 0
0.428571 1 0
0.408163 1 0
0.387755 1 0
0.367347 1 0
0.346939 1 0
0.326531 1 0
0.306122 1 0
0.285714 1 0
0.265306 1 0
0.244898 1 0
0.22449 1 0
0.204082 1 0
0.183673 1 0
0.163265 1 0
0.142857 1 0
0.122449 1 0
0.102041 1 0
0.0816327 1 0
0.0612245 1 0
0.0408163 1 0
0.0204082 1 0
0 0.979592 0
0 0.959184 0
0 0.938776 0
0 0.918367 0
0 0.897959 0
0 0.877551 0
0 0.857143 0
0 0.836735 0
0 0.816327 0
0 0.795918 0
0 0.77551 0
0 0.755102 0
0 0.734694 0
0 0.714286 0
0 0.693878 0
0 0.673469 0
0 0.653061 0
0 0.632653 0
0 0.612245 0
0 0.591837 0
0 0.571429 0
0 0.55102 0
0 0.530612 0
0 0.510204 0
0 0.489796 0
0 0.469388 0
0 0.44898 0
0 0.428571 0
0 0.408163 0
0 0.387755 0
0 0.367347 0
0 0.346939 0
0 0.326531 0
0 0.306122 0
0 0.285714 0
0 0.265306 0
0 0.244898 0
0 0.22449 0
0 0.204082 0
0 0.183673 0
0 0.163265 0
0 0.142857 0
0 0.122449 0
0 0.102041 0
0 0.0816327 0
0 0.0612245 0
0 0.0408163 0
0 0.0204082 0
0.0204082 0.979592 0
0.0204082 0.959184 0
0.0204082 0.938776 0
0.0204082 0.918367 0
0.0204082 0.897959 0
0.0204082 0.877551 0
0.0204082 0.857143 0
0.0204082 0.836735 0
0.0204082 0.816327 0
0.0204082 0.795918 0
0.0204082 0.77551 0
0.0204082 0.755102 0
0.0204082 0.734694 0
0.0204082 0.714286 0
0.0204082 0.693878 0
0.0204082 0.673469 0
0.0204082 0.653061 0
0.0204082 0.632653 0
0.0204082 0.612245 0
0.0204082 0.591837 0
0.0204082 0.571429 0
0.0204082 0.55102 0
0.0204082 0.530612 0
0.0204082 0.510204 0
0.0204082 0.489796 0
0.0204082 0.469388 0
0.0204082 0.44898 0
0.0204082 0.428571 0
0.0204082 0.408163 0
0.0204082 0.387755 0
0.0204082 0.367347 0
0.0204082 0.346939 0
0.0204082 0.326531 0
0.0204082 0.306122 0
0.0204082 0.285714 0
0.0204082 0.265306 0
0.0204082 0.244898 0
0.0204082 0.22449 0
0.0204082 0.204082 0
0.0204082 0.183673 0
0.0204082 0.163265 0
0.0204082 0.142857 0
0.0204082 0.122449 0
0.0204082 0.102041 0
0.0204082 0.0816327 0
0.0204082 0.0612245 0
0.0204082 0.0408163 0
0.0204082 0.0204082 0
0.0408163 0.979592 0
0.0408163 0.959184 0
0.0408163 0.938776 0
0.0408163 0.918367 0
0.0408163 0.897959 0
0.0408163 0.877551 0
0.0408163 0.857143 0
0.0408163 0.836735 0
0.0408163 0.816327 0
0.0408163 0.795918 0
0.0408163 0.77551 0
0.0408163 0.755102 0
0.0408163 0.734694 0
0.0408163 0.714286 0
0.0408163 0.693878 0
0.0408163 0.673469 0
0.0408163 0.653061 0
0.0408163 0.632653 0
0.0408163 0.612245 0
0.0408163 0.591837 0
0.0408163 0.571429 0
0.0408163 0.55102 0
0.0408163 0.530612 0
0.0408163 0.510204 0
0.0408163 0.489796 0
0.0408163 0.469388 0
0.0408163 0.44898 0
0.0408163 0.428571 0
0.0408163 0.408163 0
0.0408163 0.387755 0
0.0408163 0.367347 0
0.0408163 0.346939 0
0.0408163 0.326531 0
0.0408163 0.306122 0
0.0408163 0.285714 0
0.0408163 0.265306 0
0.0408163 0.244898 0
0.0408163 0.22449 0
0.0408163 0.204082 0
0.0408163 0.183673 0
0.0408163 0.163265 0
0.0408163 0.142857 0
0.0408163 0.122449 0
0.0408163 0.102041 0
0.0408163 0.0816327 0
0.0408163 0.0612245 0
0.0408163 0.0408163 0
0.0408163 0.0204082 0
0.0612245 0.979592 0
0.0612245 0.959184 0
0.0612245 0.938776 0
0.0612245 0.918367 0
0.0612245 0.897959 0
0.0612245 0.877551 0
0.0612245 0.857143 0
0.0612245 0.836735 0
0.0612245 0.816327 0
0.0612245 0.795918 0
0.0612245 0.77551 0
0.0612245 0.755102 0
0.0612245 0.734694 0
0.0612245 0.714286 0
0.0612245 0.693878 0
0.0612245 0.673469 0
0.0612245 0.653061 0
0.0612245 0.632653 0
0.0612245 0.612245 0
0.0612245 0.591837 0
0.0612245 0.571429 0
0.0612245 0.55102 0
0.0612245 0.530612 0
0.0612245 0.510204 0
0.0612245 0.489796 0
0.0612245 0.469388 0
0.0612245 0.44898 0
0.0612245 0.428571 0
0.0612245 0.408163 0
0.0612245 0.387755 0
0.0612245 0.367347 0
0.0612245 0.346939 0
0.0612245 0.326531 0
0.0612245 0.306122 0
0.0612245 0.285714 0
0.0612245 0.265306 0
0.0612245 0.244898 0
0.0612245 0.22449 0
0.0612245 0.204082 0
0.0612245 0.183673 0
0.0612245 0.163265 0
0.0612245 0.142857 0
0.0612245 0.122449 0
0.0612245 0.102041 0
0.0612245 0.0816327 0
0.0612245 0.0612245 0
0.0612245 0.0408163 0
0.0612245 0.0204082 0
0.0816327 0.979592 0
0.0816327 0.959184 0
0.0816327 0.938776 0
0.0816327 0.918367 0
0.0816327 0.897959 0
0.0816327 0.877551 0
0.0816327 0.857143 0
0.0816327 0.836735 0
0.0816327 0.816327 0
0.0816327 0.795918 0
0.0816327 0.77551 0
0.0816327 0.755102 0
0.0816327 0.734694 0
0.0816327 0.714286 0
0.0816327 0.693878 0
0.0816327 0.673469 0
0.0816327 0.653061 0
0.0816327 0.632653 0
0.0816327 0.612245 0
0.0816327 0.591837 0
0.0816327 0.571429 0
0.0816327 0.55102 0
0.0816327 0.530612 0
0.0816327 0.510204 0
0.0816327 0.489796 0
0.0816327 0.469388 0
0.0816327 0.44898 0
0.0816327 0.428571 0
0.0816327 0.408163 0
0.0816327 0.387755 0
0.0816327 0.367347 0
0.0816327 0.346939 0
0.0816327 0.326531 0
0.0816327 0.306122 0
0.0816327 0.285714 0
0.0816327 0.265306 0
0.0816327 0.244898 0
0.0816327 0.22449 0
0.0816327 0.204082 0
0.0816327 0.183673 0
0.0816327 0.163265 0
0.0816327 0.142857 0
0.0816327 0.122449 0
0.0816327 0.102041 0
0.0816327 0.0816327 0
0.0816327 0.0612245 0
0.0816327 0.0408163 0
0.0816327 0.0204082 0
0.102041 0.979592 0
0.102041 0.959184 0
0.102041 0.938776 0
0.102041 0.918367 0
0.102041 0.897959 0
0.102041 0.877551 0
0.102041 0.857143 0
0.102041 0.836735 0
0.102041 0.816327 0
0.102041 0.795918 0
0.102041 0.77551 0
0.102041 0.755102 0
0.102041 0.734694 0
0.102041 0.714286 0
0.102041 0.693878 0
0.102041 0.673469 0
0.102041 0.653061 0
0.102041 0.632653 0
0.102041 0.612245 0
0.102041 0.591837 0
0.102041 0.571429 0
0.102041 0.55102 0
0.102041 0.530612 0
0.102041 0.510204 0
0.102041 0.489796 0
0.102041 0.469388 0
0.102041 0.44898 0
0.102041 0.428571 0
0.102041 0.408163 0
0.102041 0.387755 0
0.102041 0.367347 0
0.102041 0.346939 0
0.102041 0.326531 0
0.102041 0.306122 0
0.102041 0.285714 0
0.102041 0.265306 0
0.102041 0.244898 0
0.102041 0.22449 0
0.102041 0.204082 0
0.102041 0.183673 0
0.102041 0.163265 0
0.102041 0.142857 0
0.102041 0.122449 0
0.102041 0.102041 0
0.102041 0.0816327 0
0.102041 0.0612245 0
0.102041 0.0408163 0
0.102041 0.0204082 0
0.122449 0.979592 0
0.122449 0.959184 0
0.122449 0.938776 0
0.122449 0.918367 0
0.122449 0.897959 0
0.122449 0.877551 0
0.122449 0.857143 0
0.122449 0.836735 0
0.122449 0.816327 0
0.122449 0.795918 0
0.122449 0.77551 0
0.122449 0.755102 0
0.122449 0.734694 0
0.122449 0.714286 0
0.122449 0.693878 0
0.122449 0.673469 0
0.122449 0.653061 0
0.122449 0.632653 0
0.122449 0.612245 0
0.122449 0.591837 0
0.122449 0.571429 0
0.122449 0.55102 0
0.122449 0.530612 0
0.122449 0.510204 0
0.122449 0.489796 0
0.122449 0.469388 0
0.122449 0.44898 0
0.122449 0.428571 0
0.122449 0.408163 0
0.122449 0.387755 0
0.122449 0.367347 0
0.122449 0.346939 0
0.122449 0.326531 0
0.122449 0.306122 0
0.122449 0.285714 0
0.122449 0.265306 0
0.122449 0.244898 0
0.122449 0.22449 0
0.122449 0.204082 0
0.122449 0.183673 0
0.122449 0.163265 0
0.122449 0.142857 0
0.122449 0.122449 0
0.122449 0.102041 0
0.122449 0.0816327 0
0.122449 0.0612245 0
0.122449 0.0408163 0
0.122449 0.0204082 0
0.142857 0.979592 0
0.142857 0.959184 0
0.142857 0.938776 0
0.142857 0.918367 0
0.142857 0.897959 0
0.142857 0.877551 0
0.142857 0.857143 0
0.142857 0.836735 0
0.142857 0.816327 0
0.142857 0.795918 0
0.142857 0.77551 0
0.142857 0.755102 0
0.142857 0.734694 0
0.142857 0.714286 0
0.142857 0.693878 0
0.142857 0.673469 0
0.142857 0.653061 0
0.142857 0.632653 0
0.142857 0.612245 0
0.142857 0.591837 0
0.142857 0.571429 0
0.142857 0.55102 0
0.142857 0.530612 0
0.142857 0.510204 0
0.142857 0.489796 0
0.142857 0.469388 0
0.142857 0.44898 0
0.142857 0.428571 0
0.142857 0.408163 0
0.142857 0.387755 0
0.142857 0.367347 0
0.142857 0.346939 0
0.142857 0.326531 0
0.142857 0.306122 0
0.142857 0.285714 0
0.142857 0.265306 0
0.142857 0.244898 0
0.142857 0.22449 0
0.142857 0.204082 0
0.142857 0.183673 0
0.142857 0.163265 0
0.142857 0.142857 0
0.142857 0.122449 0
0.142857 0.102041 0
0.142857 0.0816327 0
0.142857 0.0612245 0
0.142857 0.0408163 0
0.142857 0.0204082 0
0.163265 0.979592 0
0.163265 0.959184 0
0.163265 0.938776 0
0.163265 0.918367 0
0.163265 0.897959 0
0.163265 0.877551 0
0.163265 0.857143 0
0.163265 0.836735 0
0.163265 0.816327 0
0.163265 0.795918 0
0.163265 0.77551 0
0.163265 0.755102 0
0.163265 0.734694 0
0.163265 0.714286 0
0.163265 0.693878 0
0.163265 0.673469 0
0.163265 0.653061 0
0.163265 0.632653 0
0.163265 0.612245 0
0.163265 0.591837 0
0.163265 0.571429 0
0.163265 0.55102 0
[...]
CELL_DATA 2401
VECTORS velocity double
0.257357 0.157466 0
-0.00266799 0.264649 0
-0.0322476 0.205663 0
-0.0253217 0.150937 0
-0.0160175 0.113515 0
-0.00968782 0.0881992 0
-0.00594209 0.0710845 0
-0.00378273 0.0592697 0
-0.00251897 0.0508603 0
-0.00175473 0.044687 0
-0.0012748 0.0400193 0
-0.000962843 0.0363873 0
-0.000754504 0.0334799 0
-0.000612748 0.031085 0
-0.000515265 0.0290547 0
-0.00044798 0.027284 0
-0.000401636 0.0256977 0
-0.000369922 0.0242416 0
-0.00034841 0.0228769 0
-0.000333917 0.0215762 0
-0.00032412 0.0203203 0
-0.000317303 0.0190966 0
-0.000312196 0.0178971 0
-0.000307863 0.0167177 0
-0.000303627 0.0155566 0
-0.000299007 0.0144143 0
-0.000293683 0.0132925 0
-0.000287458 0.0121938 0
-0.000280227 0.0111214 0
-0.00027196 0.0100787 0
-0.000262676 0.00906931 0
-0.000252427 0.00809663 0
-0.000241285 0.00716391 0
-0.000229324 0.00627421 0
-0.000216613 0.00543036 0
-0.000203202 0.00463501 0
-0.000189117 0.0038907 0
-0.000174348 0.0031999 0
-0.000158844 0.00256515 0
-0.000142503 0.00198917 0
-0.000125162 0.00147498 0
-0.000106589 0.00102598 0
-8.64861e-05 0.000646102 0
-6.45208e-05 0.000339736 0
-4.0454e-05 0.000111496 0
-1.45446e-05 -3.45883e-05 0
1.13776e-05 -9.70398e-05 0
3.16694e-05 -8.41043e-05 0
3.05284e-05 -3.03931e-05 0
0.340667 0.122996 0
-0.000456174 0.249614 0
-0.0649985 0.272071 0
-0.0630506 0.252838 0
-0.0484118 0.222466 0
-0.0349888 0.1926 0
-0.0250776 0.167023 0
-0.0181764 0.146239 0
-0.0134304 0.129654 0
-0.0101495 0.116442 0
-0.00785672 0.105836 0
-0.0062369 0.0972032 0
-0.005083 0.0900493 0
-0.00425696 0.0839956 0
-0.00366481 0.078755 0
-0.00324109 0.0741114 0
-0.00293923 0.0699028 0
-0.00272543 0.0660089 0
-0.00257477 0.062341 0
-0.00246864 0.0588351 0
-0.002393 0.0554459 0
-0.00233726 0.052143 0
-0.00229339 0.0489072 0
-0.00225536 0.0457278 0
-0.00221874 0.0426008 0
-0.00218033 0.0395267 0
-0.00213793 0.0365098 0
-0.00209011 0.0335563 0
-0.00203606 0.0306742 0
-0.00197543 0.0278719 0
-0.00190821 0.0251584 0
-0.00183462 0.0225424 0
-0.001755 0.0200323 0
-0.00166973 0.017636 0
-0.00157918 0.015361 0
-0.00148363 0.0132144 0
-0.00138324 0.0112029 0
-0.001278 0.0093332 0
-0.00116771 0.0076119 0
-0.00105197 0.00604598 0
-0.000930174 0.0046428 0
-0.000801609 0.00341019 0
-0.000665563 0.00235641 0
-0.000521694 0.00148964 0
-0.000370798 0.000816927 0
-0.000216561 0.000341976 0
-6.92035e-05 6.08544e-05 0
4.83002e-05 -4.7044e-05 0
8.37178e-05 -3.0841e-05 0
0.50106 0.0768513 0
0.0995086 0.183474 0
-0.0388794 0.249744 0
-0.0730567 0.26642 0
-0.0717557 0.258174 0
-0.0607587 0.24027 0
-0.048827 0.219955 0
-0.038552 0.20052 0
-0.0303955 0.183196 0
-0.0241442 0.168227 0
-0.0194314 0.155435 0
-0.0159092 0.144495 0
-0.0132915 0.135058 0
-0.0113558 0.126807 0
-0.00993234 0.119471 0
-0.00889241 0.112829 0
-0.00813827 0.106706 0
-0.00759537 0.100967 0
-0.00720656 0.0955069 0
-0.00692784 0.0902513 0
-0.00672525 0.0851457 0
-0.0065726 0.0801534 0
-0.00644981 0.0752519 0
-0.00634164 0.0704292 0
-0.0062367 0.0656818 0
-0.00612675 0.0610124 0
-0.00600603 0.0564281 0
-0.0058708 0.051939 0
-0.00571887 0.0475569 0
-0.00554925 0.0432948 0
-0.00536182 0.039166 0
-0.00515708 0.0351834 0
-0.00493582 0.0313595 0
-0.00469903 0.0277062 0
-0.0044476 0.0242346 0
-0.00418228 0.0209554 0
-0.00390351 0.0178786 0
-0.00361136 0.015014 0
-0.0033055 0.0123714 0
-0.00298522 0.00996058 0
-0.00264953 0.00779175 0
-0.0022974 0.00587526 0
-0.00192825 0.00422139 0
-0.00154295 0.00283957 0
-0.00114554 0.00173687 0
-0.000746731 0.000915575 0
-0.000369964 0.000368003 0
-6.013e-05 7.05397e-05 0
9.48371e-05 -9.88179e-06 0
0.610351 0.0480927 0
0.196285 0.134198 0
0.012029 0.209861 0
-0.0576233 0.246982 0
-0.0760495 0.25745 0
-0.0741906 0.253747 0
-0.0654231 0.243043 0
-0.0553006 0.229593 0
-0.0459611 0.215681 0
-0.0380757 0.202393 0
-0.0317115 0.19016 0
-0.0267102 0.179066 0
-0.0228502 0.169031 0
-0.0199121 0.159907 0
-0.0177027 0.151529 0
-0.0160602 0.143741 0
-0.0148524 0.136406 0
-0.0139727 0.129413 0
-0.013336 0.122674 0
-0.0128745 0.116123 0
-0.0125345 0.109711 0
-0.012274 0.103408 0
-0.0120599 0.0971958 0
-0.011867 0.0910668 0
-0.0116765 0.0850218 0
-0.0114743 0.0790678 0
-0.0112509 0.0732165 0
-0.0109999 0.0674821 0
-0.0107177 0.0618809 0
-0.0104027 0.0564299 0
-0.0100548 0.0511462 0
-0.0096749 0.0460463 0
-0.00926445 0.0411462 0
-0.00882522 0.036461 0
-0.0083589 0.0320045 0
-0.00786687 0.0277902 0
-0.00735003 0.0238304 0
-0.00680871 0.0201372 0
-0.00624263 0.0167225 0
-0.00565098 0.013598 0
-0.0050327 0.0107753 0
-0.00438689 0.00826604 0
-0.00371375 0.00608133 0
-0.00301613 0.00423084 0
-0.00230215 0.00272152 0
-0.00158975 0.00155556 0
-0.00091411 0.000725333 0
-0.00033699 0.000212025 0
3.11709e-05 1.58552e-05 0
0.680855 0.0301931 0
0.279208 0.0983501 0
0.0703315 0.171255 0
-0.0271262 0.217728 0
-0.0654755 0.240972 0
-0.0755846 0.249035 0
-0.0732085 0.247834 0
-0.0660275 0.241488 0
-0.0576553 0.232597 0
-0.0496969 0.222689 0
-0.0427759 0.212603 0
-0.0370478 0.202756 0
-0.0324569 0.193321 0
-0.0288634 0.184335 0
-0.0261042 0.175764 0
-0.0240209 0.167546 0
-0.0224713 0.159611 0
-0.0213331 0.151893 0
-0.0205036 0.144339 0
-0.0198979 0.136905 0
-0.0194468 0.129563 0
-0.019095 0.122295 0
-0.0187984 0.115095 0
-0.018523 0.107964 0
-0.018243 0.100912 0
-0.0179394 0.0939519 0
-0.017599 0.0871011 0
-0.0172135 0.0803796 0
-0.0167781 0.073808 0
-0.0162909 0.0674077 0
-0.0157521 0.0611994 0
-0.0151634 0.0552029 0
-0.0145273 0.0494371 0
-0.0138466 0.0439194 0
-0.0131239 0.0386662 0
-0.0123616 0.0336925 0
-0.0115613 0.0290126 0
-0.0107237 0.0246399 0
-0.00984888 0.0205875 0
-0.00893619 0.0168679 0
-0.00798477 0.0134938 0
-0.0069942 0.0104771 0
-0.0059658 0.0078292 0
-0.00490455 0.00556012 0
-0.00382229 0.0036774 0
-0.0027427 0.00218519 0
-0.00170893 0.00107936 0
-0.000792216 0.000350958 0
-0.000111319 4.00729e-05 0
0.73032 0.0192 0
0.349806 0.0731102 0
0.128608 0.139345 0
0.0114011 0.18813 0
-0.0449025 0.219108 0
-0.0675111 0.235636 0
-0.0730676 0.242263 0
-0.0705755 0.242477 0
-0.0647697 0.238764 0
-0.0580667 0.232772 0
-0.0516357 0.225539 0
-0.045981 0.217691 0
-0.0412606 0.209585 0
-0.0374596 0.201411 0
-0.0344831 0.193256 0
-0.032206 0.185152 0
-0.0304987 0.1771 0
-0.0292396 0.16909 0
-0.02832 0.161108 0
-0.0276466 0.153145 0
-0.0271409 0.145195 0
-0.0267385 0.137263 0
-0.0263874 0.129356 0
-0.0260469 0.121489 0
-0.0256862 0.113682 0
-0.0252827 0.105958 0
-0.0248207 0.0983397 0
-0.0242906 0.0908545 0
-0.0236872 0.0835283 0
-0.0230091 0.0763865 0
-0.0222574 0.0694535 0
-0.021435 0.0627524 0
-0.0205458 0.0563043 0
-0.019594 0.0501289 0
-0.0185838 0.0442439 0
-0.0175186 0.0386659 0
-0.0164008 0.0334101 0
-0.0152322 0.0284905 0
-0.0140131 0.0239209 0
-0.0127433 0.0197141 0
-0.0114223 0.0158828 0
-0.0100504 0.0124394 0
-0.00862974 0.00939537 0
-0.0071671 0.00676142 0
-0.00567681 0.00454683 0
-0.00418589 0.00275941 0
-0.00274099 0.00140103 0
-0.00141556 0.000474923 0
-0.000325378 6.05742e-05 0
0.766335 0.0125773 0
0.409188 0.0556571 0
0.183413 0.114344 0
0.0525463 0.162104 0
-0.0182833 0.196737 0
-0.0525861 0.218862 0
-0.0664842 0.231346 0
-0.0695937 0.236971 0
-0.0673978 0.2379 0
-0.0629426 0.235701 0
-0.0578674 0.231458 0
-0.0530063 0.225895 0
-0.0487387 0.219478 0
-0.0451927 0.212503 0
-0.0423626 0.205152 0
-0.0401762 0.197534 0
-0.0385329 0.189717 0
-0.0373251 0.181741 0
-0.036449 0.173636 0
-0.0358108 0.165426 0
-0.035329 0.157134 0
-0.0349349 0.148784 0
-0.0345725 0.140405 0
-0.0341973 0.132024 0
-0.0337755 0.123675 0
-0.0332829 0.11539 0
-0.0327028 0.107201 0
-0.0320256 0.099142 0
-0.0312468 0.0912443 0
-0.0303663 0.0835382 0
-0.0293868 0.0760517 0
-0.0283131 0.0688106 0
-0.0271513 0.0618384 0
-0.0259074 0.0551563 0
-0.0245872 0.0487833 0
-0.0231958 0.0427365 0
-0.021737 0.0370317 0
-0.0202131 0.0316831 0
-0.0186255 0.0267044 0
-0.0169744 0.0221083 0
-0.0152596 0.0179074 0
-0.0134817 0.014114 0
-0.0116437 0.0107402 0
-0.00975292 0.00779781 0
-0.00782465 0.00529859 0
-0.00588641 0.00325524 0
-0.00398402 0.00167685 0
-0.00218707 0.000579255 0
-0.000600392 7.69808e-05 0
0.793316 0.00857173 0
0.459085 0.0434742 0
0.23358 0.0949704 0
0.0936947 0.140197 0
0.0118268 0.175784 0
-0.0329938 0.201397 0
-0.0550225 0.218027 0
-0.0640703 0.227854 0
-0.0660719 0.232653 0
-0.0645282 0.233818 0
-0.0614542 0.232388 0
-0.0579687 0.229102 0
-0.0546563 0.224479 0
-0.0517878 0.218876 0
-0.0494529 0.212538 0
-0.0476418 0.205635 0
-0.0462927 0.198284 0
-0.045321 0.190571 0
-0.0446359 0.182566 0
-0.0441497 0.174322 0
-0.0437833 0.165892 0
-0.0434682 0.157321 0
-0.0431478 0.148656 0
-0.042777 0.139942 0
-0.0423217 0.131224 0
-0.0417576 0.122546 0
-0.0410692 0.113949 0
-0.040248 0.105474 0
-0.0392917 0.0971577 0
-0.0382024 0.0890361 0
-0.0369856 0.0811404 0
-0.0356488 0.0734993 0
-0.0342006 0.066138 0
-0.0326496 0.0590791 0
-0.031004 0.0523423 0
-0.0292705 0.0459451 0
-0.0274546 0.039903 0
-0.0255598 0.0342301 0
-0.0235881 0.0289394 0
-0.0215404 0.0240434 0
-0.0194167 0.0195542 0
-0.0172176 0.0154841 0
-0.0149459 0.0118457 0
-0.0126085 0.00865231 0
-0.0102198 0.00591889 0
-0.00780516 0.00366335 0
-0.00540575 0.00190225 0
-0.00308273 0.000663093 0
-0.000924952 8.95837e-05 0
0.814214 0.00610594 0
0.501309 0.0348217 0
0.278967 0.0799578 0
0.133416 0.122095 0
0.0430232 0.157312 0
-0.0105241 0.184602 0
-0.0400691 0.204031 0
-0.0550095 0.216965 0
-0.0614624 0.224836 0
-0.0632257 0.22883 0
-0.0625956 0.229883 0
-0.0609226 0.228706 0
-0.0589691 0.225823 0
-0.057136 0.221618 0
-0.0556058 0.216375 0
-0.0544325 0.210299 0
-0.0535974 0.203549 0
-0.0530438 0.196247 0
-0.0526987 0.188491 0
-0.0524854 0.180367 0
-0.052331 0.171948 0
-0.0521711 0.163303 0
-0.0519517 0.154497 0
-0.0516296 0.14559 0
-0.0511728 0.136641 0
-0.0505592 0.127704 0
-0.0497758 0.11883 0
-0.0488174 0.110067 0
-0.0476849 0.101459 0
-0.0463841 0.0930451 0
-0.0449241 0.0848611 0
-0.043316 0.0769379 0
-0.0415718 0.0693024 0
-0.0397034 0.0619781 0
-0.0377215 0.0549851 0
-0.0356354 0.0483406 0
-0.0334522 0.0420596 0
-0.0311769 0.0361556 0
-0.0288124 0.0306406 0
-0.0263596 0.0255265 0
-0.0238189 0.0208247 0
-0.0211902 0.0165474 0
-0.0184752 0.0127078 0
-0.0156794 0.00932095 0
-0.0128142 0.00640478 0
-0.00990029 0.00398243 0
-0.0069716 0.00207743 0
-0.00407751 0.000727342 0
-0.00128807 9.88693e-05 0
0.830914 0.00454815 0
0.537389 0.0285459 0
0.319887 0.0682253 0
0.17112 0.107159 0
0.0743035 0.141272 0
0.0137179 0.169014 0
-0.02269 0.190243 0
-0.0432841 0.205406 0
-0.0542265 0.215642 0
-0.059495 0.221933 0
-0.061588 0.225095 0
-0.0620361 0.225781 0
-0.0617485 0.224495 0
-0.0612391 0.221624 0
-0.0607743 0.217466 0
-0.0604687 0.212252 0
-0.0603464 0.206165 0
-0.0603802 0.199352 0
-0.0605172 0.191938 0
-0.0606941 0.184031 0
-0.0608476 0.175726 0
-0.0609197 0.167113 0
-0.0608614 0.158271 0
-0.0606339 0.149278 0
-0.0602093 0.140202 0
-0.0595698 0.131111 0
-0.0587068 0.122064 0
-0.0576196 0.113117 0
-0.056314 0.104319 0
-0.0548006 0.0957153 0
-0.0530934 0.0873438 0
-0.051208 0.0792378 0
-0.0491607 0.0714259 0
-0.0469673 0.0639319 0
-0.0446419 0.0567759 0
-0.0421963 0.0499745 0
-0.0396398 0.0435419 0
-0.0369789 0.0374903 0
-0.0342174 0.0318307 0
-0.0313564 0.0265737 0
-0.0283957 0.02173 0
-0.0253344 0.0173116 0
-0.0221721 0.013332 0
-0.0189113 0.00980774 0
-0.0155591 0.00675973 0
-0.0121296 0.00421562 0
-0.00864706 0.00220502 0
-0.00514713 0.000773641 0
-0.00167971 0.000105339 0
0.844619 0.00353206 0
0.56854 0.023893 0
0.356786 0.0589616 0
0.20655 0.0948236 0
0.104928 0.127474 0
0.0384818 0.155055 0
-0.00374994 0.17714 0
-0.029621 0.193851 0
-0.0449503 0.205849 0
-0.0537848 0.213951 0
-0.058756 0.218851 0
-0.0615293 0.221129 0
-0.0631305 0.221253 0
-0.0641677 0.219599 0
-0.0649799 0.216463 0
-0.0657359 0.212087 0
-0.0664994 0.206669 0
-0.0672719 0.200375 0
-0.0680208 0.193348 0
-0.0686976 0.185715 0
-0.0692495 0.177589 0
-0.069627 0.169077 0
-0.069788 0.160273 0
-0.0696999 0.151268 0
-0.0693405 0.142145 0
-0.0686982 0.13298 0
-0.0677704 0.123841 0
-0.0665626 0.114792 0
-0.0650869 0.105889 0
-0.0633601 0.0971783 0
-0.0614021 0.0887032 0
-0.0592343 0.0804985 0
-0.0568781 0.0725937 0
-0.0543537 0.0650129 0
-0.0516792 0.0577755 0
-0.0488696 0.0508973 0
-0.0459366 0.044391 0
-0.0428883 0.0382674 0
-0.0397291 0.0325359 0
-0.0364604 0.0272057 0
-0.033081 0.0222864 0
-0.0295881 0.0177894 0
-0.0259789 0.0137284 0
-0.0222514 0.010121 0
-0.0184071 0.00699047 0
-0.014452 0.00436821 0
-0.010399 0.00228867 0
-0.00626888 0.000803815 0
-0.0020909 0.00010944 0
0.856127 0.00284404 0
0.595717 0.0203627 0
0.390145 0.0515498 0
0.239698 0.0845635 0
0.134568 0.115585 0
0.0633317 0.142613 0
0.0161234 0.164956 0
-0.0146006 0.182656 0
-0.0341331 0.195935 0
-0.0465019 0.205429 0
-0.0544165 0.211726 0
-0.0596382 0.21533 0
-0.0632822 0.216665 0
-0.0660324 0.216083 0
-0.0682881 0.213872 0
-0.0702645 0.210275 0
-0.0720602 0.205496 0
-0.0737027 0.199713 0
-0.0751785 0.193082 0
-0.0764536 0.185746 0
-0.0774865 0.177833 0
-0.0782369 0.169462 0
-0.0786707 0.160744 0
-0.0787629 0.151781 0
-0.0784989 0.142666 0
-0.0778745 0.133486 0
-0.0768947 0.124319 0
-0.0755728 0.115234 0
-0.0739287 0.106292 0
-0.0719866 0.0975443 0
-0.0697736 0.0890364 0
-0.0673178 0.0808049 0
-0.0646467 0.0728797 0
-0.0617859 0.0652847 0
-0.0587577 0.0580383 0
-0.0555809 0.051155 0
-0.0522698 0.0446458 0
-0.0488342 0.0385193 0
-0.0452792 0.0327832 0
-0.0416059 0.0274447 0
-0.037812 0.0225121 0
-0.0338924 0.0179958 0
-0.0298403 0.0139093 0
-0.025649 0.0102707 0
-0.0213127 0.00710496 0
-0.0168283 0.00444609 0
-0.0121964 0.00233217 0
-0.00742188 0.000819592 0
-0.00251371 0.00011154 0
0.865974 0.00235937 0
0.619661 0.0176233 0
0.420414 0.0455391 0
0.270645 0.0759631 0
0.163018 0.105322 0
0.0878539 0.131566 0
0.036307 0.15383 0
0.00133794 0.171995 0
-0.0221792 0.186179 0
-0.037997 0.196716 0
-0.0488595 0.204109 0
-0.0565933 0.208791 0
-0.0623804 0.211139 0
-0.0669634 0.211475 0
-0.0707902 0.210074 0
-0.074114 0.207173 0
-0.0770628 0.202978 0
-0.0796864 0.197672 0
-0.0819883 0.191423 0
-0.0839478 0.184382 0
-0.0855344 0.176691 0
-0.0867171 0.168481 0
-0.0874707 0.159875 0
-0.0877789 0.150987 0
-0.0876357 0.14192 0
-0.0870458 0.13277 0
-0.0860234 0.123623 0
-0.084591 0.114554 0
-0.0827774 0.105628 0
-0.0806159 0.0969022 0
-0.078142 0.0884224 0
-0.0753914 0.0802267 0
-0.0723987 0.0723452 0
-0.0691954 0.0648009 0
-0.0658091 0.0576111 0
-0.0622624 0.0507881 0
-0.0585725 0.0443408 0
-0.054751 0.0382756 0
-0.0508038 0.0325976 0
-0.0467314 0.027312 0
-0.0425298 0.0224251 0
-0.0381909 0.017946 0
-0.0337038 0.0138873 0
-0.0290556 0.0102671 0
-0.0242326 0.00711108 0
-0.0192217 0.00445492 0
-0.0140102 0.00233898 0
-0.00858706 0.000822453 0
-0.00294111 0.000111927 0
0.874533 0.00200421 0
0.640946 0.0154511 0
0.44799 0.0405953 0
0.299528 0.0686841 0
0.190201 0.0964103 0
0.111837 0.121735 0
0.0565343 0.143687 0
0.0177683 0.161995 0
-0.00943702 0.176734 0
-0.0285742 0.188024 0
-0.0423452 0.19625 0
-0.0526111 0.201784 0
-0.0606002 0.204955 0
-0.0670988 0.206057 0
-0.0725917 0.205343 0
-0.0773624 0.203043 0
-0.0815621 0.19936 0
-0.0852586 0.194481 0
-0.0884699 0.188579 0
-0.0911867 0.181813 0
-0.0933885 0.174336 0
-0.0950537 0.16629 0
-0.0961662 0.157808 0
-0.0967191 0.149014 0
-0.0967162 0.140022 0
-0.0961722 0.130935 0
-0.0951119 0.121846 0
-0.0935683 0.112836 0
-0.0915809 0.103974 0
-0.0891929 0.0953203 0
-0.0864495 0.0869224 0
-0.0833954 0.0788188 0
-0.0800728 0.0710391 0
-0.0765202 0.0636052 0
-0.0727707 0.0565323 0
-0.0688514 0.0498304 0
-0.0647825 0.0435058 0
-0.0605775 0.0375621 0
-0.0562428 0.0320016 0
-0.0517783 0.0268268 0
-0.0471779 0.0220419 0
-0.0424302 0.0176537 0
-0.037519 0.0136738 0
-0.032425 0.0101193 0
-0.0271258 0.00701589 0
-0.0215973 0.00439964 0
-0.0158136 0.00231203 0
-0.00974694 0.000813584 0
-0.0033668 0.000110806 0
0.882066 0.0017339 0
0.660019 0.0136925 0
0.473215 0.0364702 0
0.326498 0.062458 0
0.216095 0.0886145 0
0.135132 0.112949 0
0.076569 0.134428 0
0.0343805 0.152668 0
0.00385005 0.167644 0
-0.01848 0.179459 0
-0.0350992 0.188292 0
-0.0478888 0.194477 0
-0.0581088 0.198297 0
-0.0665768 0.200014 0
-0.0738047 0.199864 0
-0.0800981 0.198064 0
-0.0856258 0.194813 0
-0.0904694 0.190297 0
-0.0946578 0.184694 0
-0.0981913 0.178172 0
-0.101058 0.170889 0
-0.103246 0.162998 0
-0.104748 0.154641 0
-0.105566 0.145952 0
-0.105716 0.137052 0
-0.105223 0.128053 0
-0.104124 0.119054 0
-0.102463 0.110139 0
-0.100293 0.101384 0
-0.0976682 0.0928481 0
-0.094644 0.0845815 0
-0.091275 0.0766223 0
-0.0876126 0.0689989 0
-0.0837025 0.0617313 0
-0.079584 0.0548324 0
-0.0752889 0.0483094 0
-0.0708409 0.0421654 0
-0.0662553 0.0364006 0
-0.061539 0.0310142 0
-0.056691 0.0260058 0
-0.0517028 0.0213766 0
-0.0465589 0.0171311 0
-0.041238 0.0132788 0
-0.0357132 0.00983535 0
-0.0299533 0.0068253 0
-0.0239225 0.00428426 0
-0.0175811 0.00225361 0
-0.0108853 0.000793864 0
-0.00378501 0.000108318 0
0.888766 0.00152069 0
0.677227 0.0122394 0
0.496374 0.0329762 0
0.351704 0.0570693 0
0.240713 0.0817316 0
0.157651 0.105043 0
0.0962558 0.125936 0
0.0509801 0.14395 0
0.0173708 0.158968 0
-0.00794531 0.171064 0
-0.0273257 0.180311 0
-0.0426073 0.186963 0
-0.0550641 0.191269 0
-0.0655327 0.193459 0
-0.0745429 0.193749 0
-0.082415 0.192344 0
-0.0893297 0.189438 0
-0.095378 0.185217 0
-0.100596 0.17986 0
-0.104993 0.173539 0
-0.108563 0.166423 0
-0.111303 0.158671 0
-0.113214 0.150434 0
-0.114309 0.141854 0
-0.114616 0.13306 0
-0.114172 0.124169 0
-0.113027 0.115287 0
-0.111239 0.106503 0
-0.108873 0.0978926 0
-0.105996 0.0895188 0
-0.102676 0.0814309 0
-0.0989784 0.0736664 0
-0.0949641 0.0662518 0
-0.0906868 0.0592048 0
-0.0861927 0.0525353 0
-0.0815185 0.0462469 0
-0.0766914 0.0403393 0
-0.0717286 0.034809 0
-0.0666375 0.0296516 0
-0.0614159 0.0248631 0
-0.0560525 0.0204415 0
-0.0505279 0.0163884 0
-0.0448146 0.0127105 0
-0.0388782 0.00942157 0
-0.0326778 0.00654399 0
-0.0261661 0.00411186 0
-0.0192892 0.00216541 0
-0.0119869 0.000763893 0
-0.00419038 0.000104541 0
0.894772 0.00134669 0
0.692839 0.0110141 0
0.517704 0.0299697 0
0.37528 0.0523436 0
0.264086 0.0755862 0
0.179337 0.0978598 0
0.115478 0.118085 0
0.0674129 0.135745 0
0.0309532 0.150651 0
0.00286464 0.162817 0
-0.0191976 0.172316 0
-0.0369294 0.179271 0
-0.0516135 0.183912 0
-0.064097 0.186439 0
-0.0749196 0.18705 0
-0.0844096 0.185937 0
-0.0927541 0.183287 0
-0.100049 0.179286 0
-0.106337 0.174115 0
-0.111629 0.167952 0
-0.115928 0.160971 0
-0.119237 0.153338 0
-0.121567 0.145212 0
-0.122942 0.136742 0
-0.123401 0.128065 0
-0.122996 0.119304 0
-0.121791 0.110566 0
-0.119859 0.101946 0
-0.117278 0.0935202 0
-0.11413 0.0853522 0
-0.110497 0.0774905 0
-0.106455 0.0699709 0
-0.102074 0.0628175 0
-0.0974192 0.0560449 0
-0.092542 0.0496592 0
-0.0874849 0.0436604 0
-0.0822789 0.0380439 0
-0.076943 0.0328023 0
-0.0714848 0.0279271 0
-0.065901 0.0234105 0
-0.0601773 0.0192468 0
-0.0542897 0.015434 0
-0.0482046 0.011976 0
-0.0418796 0.00888321 0
-0.0352639 0.00617566 0
-0.0282982 0.00388476 0
-0.0209149 0.00204859 0
-0.0130373 0.000724049 0
-0.00457776 9.95092e-05 0
0.900186 0.00119993 0
0.707066 0.00995874 0
0.537398 0.027338 0
0.397342 0.0481377 0
0.286244 0.0700269 0
0.200151 0.0912563 0
0.134143 0.11075 0
0.08355 0.127951 0
0.0444424 0.14262 0
0.0137331 0.154709 0
-0.0108812 0.164282 0
-0.0310071 0.171389 0
-0.0478963 0.176223 0
-0.0623954 0.178957 0
-0.075046 0.179771 0
-0.0861784 0.178846 0
-0.0959809 0.176364 0
-0.104551 0.172508 0
-0.111932 0.167463 0
-0.118139 0.16141 0
-0.123179 0.15453 0
-0.127063 0.146995 0
-0.12981 0.138972 0
-0.131457 0.130616 0
-0.132056 0.122069 0
-0.131672 0.113458 0
-0.130386 0.104895 0
-0.128286 0.0964741 0
-0.125467 0.0882746 0
-0.122026 0.0803582 0
-0.118058 0.0727719 0
-0.113652 0.0655488 0
-0.10889 0.05871 0
-0.103845 0.052266 0
-0.0985772 0.0462189 0
-0.0931338 0.0405644 0
-0.0875494 0.0352932 0
-0.0818452 0.0303937 0
-0.0760291 0.0258529 0
-0.0700961 0.0216587 0
-0.0640289 0.0178015 0
-0.0577985 0.0142756 0
-0.0513652 0.0110809 0
-0.0446783 0.00822464 0
-0.0376771 0.00572323 0
-0.0302904 0.00360467 0
-0.0224364 0.00190397 0
-0.0140224 0.000674541 0
-0.00494215 9.32229e-05 0
0.905086 0.00107199 0
0.720068 0.00902938 0