# vtk DataFile Version 3.0
Malha 2D com triângulos: velocidade e pressão
ASCII
DATASET UNSTRUCTURED_GRID

POINTS 2500 double
0 0 0
1 0 0
1 1 0
0 1 0
0.0204082 0 0
0.0408163 0 0
0.0612245 0 0
0.0816327 0 0
0.102041 0 0
0.122449 0 0
0.142857 0 0
0.163265 0 0
0.183673 0 0
0.204082 0 0
0.22449 0 0
0.244898 0 0
0.265306 0 0
0.285714 0 0
0.306122 0 0
0.326531 0 0
0.346939 0 0
0.367347 0 0
0.387755 0 0
0.408163 0 0
0.428571 0 0
0.44898 0 0
0.469388 0 0
0.489796 0 0
0.510204 0 0
0.530612 0 0
0.55102 0 0
0.571429 0 0
0.591837 0 0
0.612245 0 0
0.632653 0 0
0.653061 0 0
0.673469 0 0
0.693878 0 0
0.714286 0 0
0.734694 0 0
0.755102 0 0
0.77551 0 0
0.795918 0 0
0.816327 0 0
0.836735 0 0
0.857143 0 0
0.877551 0 0
0.897959 0 0
0.918367 0 0
0.938776 0 0
0.959184 0 0
0.979592 0 0
1 0.0204082 0
1 0.0408163 0
1 0.0612245 0
1 0.0816327 0
1 0.102041 0
1 0.122449 0
1 0.142857 0
1 0.163265 0
1 0.183673 0
1 0.204082 0
1 0.22449 0
1 0.244898 0
1 0.265306 0
1 0.285714 0
1 0.306122 0
1 0.326531 0
1 0.346939 0
1 0.367347 0
1 0.387755 0
1 0.408163 0
1 0.428571 0
1 0.44898 0
1 0.469388 0
1 0.489796 0
1 0.510204 0
1 0.530612 0
1 0.55102 0
1 0.571429 0
1 0.591837 0
1 0.612245 0
1 0.632653 0
1 0.653061 0
1 0.673469 0
1 0.693878 0
1 0.714286 0
1 0.734694 0
1 0.755102 0
1 0.77551 0
1 0.795918 0
1 0.816327 0
1 0.836735 0
1 0.857143 0
1 0.877551 0
1 0.897959 0
1 0.918367 0
1 0.938776 0
1 0.959184 0
1 0.979592 0
0.979592 1 0
0.959184 1 0
0.938776 1 0
0.918367 1 0
0.897959 1 0
0.877551 1 0
0.857143 1 0
0.836735 1 0
0.816327 1 0
0.795918 1 0
0.77551 1 0
0.755102 1 0
0.734694 1 0
0.714286 1 0
0.693878 1 0
0.673469 1 0
0.653061 1 0
0.632653 1 0
0.612245 1 0
0.591837 1 0
0.571429 1 0
0.55102 1 0
0.530612 1 0
0.510204 1 0
0.489796 1 0
0.469388 1 0
0.44898 1 0
0.428571 1 0
0.408163 1 0
0.387755 1 0
0.367347 1 0
0.346939 1 0
0.326531 1 0
0.306122 1 0
0.285714 1 0
0.265306 1 0
0.244898 1 0
0.22449 1 0
0.204082 1 0
0.183673 1 0
0.163265 1 0
0.142857 1 0
0.122449 1 0
0.102041 1 0
0.0816327 1 0
0.0612245 1 0
0.0408163 1 0
0.0204082 1 0
0 0.979592 0
0 0.959184 0
0 0.938776 0
0 0.918367 0
0 0.897959 0
0 0.877551 0
0 0.857143 0
0 0.836735 0
0 0.816327 0
0 0.795918 0
0 0.77551 0
0 0.755102 0
0 0.734694 0
0 0.714286 0
0 0.693878 0
0 0.673469 0
0 0.653061 0
0 0.632653 0
0 0.612245 0
0 0.591837 0
0 0.571429 0
0 0.55102 0
0 0.530612 0
0 0.510204 0
0 0.489796 0
0 0.469388 0
0 0.44898 0
0 0.428571 0
0 0.408163 0
0 0.387755 0
0 0.367347 0
0 0.346939 0
0 0.326531 0
0 0.306122 0
0 0.285714 0
0 0.265306 0
0 0.244898 0
0 0.22449 0
0 0.204082 0
0 0.183673 0
0 0.163265 0
0 0.142857 0
0 0.122449 0
0 0.102041 0
0 0.0816327 0
0 0.0612245 0
0 0.0408163 0
0 0.0204082 0
0.0204082 0.979592 0
0.0204082 0.959184 0
0.0204082 0.938776 0
0.0204082 0.918367 0
0.0204082 0.897959 0
0.0204082 0.877551 0
0.0204082 0.857143 0
0.0204082 0.836735 0
0.0204082 0.816327 0
0.0204082 0.795918 0
0.0204082 0.77551 0
0.0204082 0.755102 0
0.0204082 0.734694 0
0.0204082 0.714286 0
0.0204082 0.693878 0
0.0204082 0.673469 0
0.0204082 0.653061 0
0.0204082 0.632653 0
0.0204082 0.612245 0
0.0204082 0.591837 0
0.0204082 0.571429 0
0.0204082 0.55102 0
0.0204082 0.530612 0
0.0204082 0.510204 0
0.0204082 0.489796 0
0.0204082 0.469388 0
0.0204082 0.44898 0
0.0204082 0.428571 0
0.0204082 0.408163 0
0.0204082 0.387755 0
0.0204082 0.367347 0
0.0204082 0.346939 0
0.0204082 0.326531 0
0.0204082 0.306122 0
0.0204082 0.285714 0
0.0204082 0.265306 0
0.0204082 0.244898 0
0.0204082 0.22449 0
0.0204082 0.204082 0
0.0204082 0.183673 0
0.0204082 0.163265 0
0.0204082 0.142857 0
0.0204082 0.122449 0
0.0204082 0.102041 0
0.0204082 0.0816327 0
0.0204082 0.0612245 0
0.0204082 0.0408163 0
0.0204082 0.0204082 0
0.0408163 0.979592 0
0.0408163 0.959184 0
0.0408163 0.938776 0
0.0408163 0.918367 0
0.0408163 0.897959 0
0.0408163 0.877551 0
0.0408163 0.857143 0
0.0408163 0.836735 0
0.0408163 0.816327 0
0.0408163 0.795918 0
0.0408163 0.77551 0
0.0408163 0.755102 0
0.0408163 0.734694 0
0.0408163 0.714286 0
0.0408163 0.693878 0
0.0408163 0.673469 0
0.0408163 0.653061 0
0.0408163 0.632653 0
0.0408163 0.612245 0
0.0408163 0.591837 0
0.0408163 0.571429 0
0.0408163 0.55102 0
0.0408163 0.530612 0
0.0408163 0.510204 0
0.0408163 0.489796 0
0.0408163 0.469388 0
0.0408163 0.44898 0
0.0408163 0.428571 0
0.0408163 0.408163 0
0.0408163 0.387755 0
0.0408163 0.367347 0
0.0408163 0.346939 0
0.0408163 0.326531 0
0.0408163 0.306122 0
0.0408163 0.285714 0
0.0408163 0.265306 0
0.0408163 0.244898 0
0.0408163 0.22449 0
0.0408163 0.204082 0
0.0408163 0.183673 0
0.0408163 0.163265 0
0.0408163 0.142857 0
0.0408163 0.122449 0
0.0408163 0.102041 0
0.0408163 0.0816327 0
0.0408163 0.0612245 0
0.0408163 0.0408163 0
0.0408163 0.0204082 0
0.0612245 0.979592 0
0.0612245 0.959184 0
0.0612245 0.938776 0
0.0612245 0.918367 0
0.0612245 0.897959 0
0.0612245 0.877551 0
0.0612245 0.857143 0
0.0612245 0.836735 0
0.0612245 0.816327 0
0.0612245 0.795918 0
0.0612245 0.77551 0
0.0612245 0.755102 0
0.0612245 0.734694 0
0.0612245 0.714286 0
0.0612245 0.693878 0
0.0612245 0.673469 0
0.0612245 0.653061 0
0.0612245 0.632653 0
0.0612245 0.612245 0
0.0612245 0.591837 0
0.0612245 0.571429 0
0.0612245 0.55102 0
0.0612245 0.530612 0
0.0612245 0.510204 0
0.0612245 0.489796 0
0.0612245 0.469388 0
0.0612245 0.44898 0
0.0612245 0.428571 0
0.0612245 0.408163 0
0.0612245 0.387755 0
0.0612245 0.367347 0
0.0612245 0.346939 0
0.0612245 0.326531 0
0.0612245 0.306122 0
0.0612245 0.285714 0
0.0612245 0.265306 0
0.0612245 0.244898 0
0.0612245 0.22449 0
0.0612245 0.204082 0
0.0612245 0.183673 0
0.0612245 0.163265 0
0.0612245 0.142857 0
0.0612245 0.122449 0
0.0612245 0.102041 0
0.0612245 0.0816327 0
0.0612245 0.0612245 0
0.0612245 0.0408163 0
0.0612245 0.0204082 0
0.0816327 0.979592 0
0.0816327 0.959184 0
0.0816327 0.938776 0
0.0816327 0.918367 0
0.0816327 0.897959 0
0.0816327 0.877551 0
0.0816327 0.857143 0
0.0816327 0.836735 0
0.0816327 0.816327 0
0.0816327 0.795918 0
0.0816327 0.77551 0
0.0816327 0.755102 0
0.0816327 0.734694 0
0.0816327 0.714286 0
0.0816327 0.693878 0
0.0816327 0.673469 0
0.0816327 0.653061 0
0.0816327 0.632653 0
0.0816327 0.612245 0
0.0816327 0.591837 0
0.0816327 0.571429 0
0.0816327 0.55102 0
0.0816327 0.530612 0
0.0816327 0.510204 0
0.0816327 0.489796 0
0.0816327 0.469388 0
0.0816327 0.44898 0
0.0816327 0.428571 0
0.0816327 0.408163 0
0.0816327 0.387755 0
0.0816327 0.367347 0
0.0816327 0.346939 0
0.0816327 0.326531 0
0.0816327 0.306122 0
0.0816327 0.285714 0
0.0816327 0.265306 0
0.0816327 0.244898 0
0.0816327 0.22449 0
0.0816327 0.204082 0
0.0816327 0.183673 0
0.0816327 0.163265 0
0.0816327 0.142857 0
0.0816327 0.122449 0
0.0816327 0.102041 0
0.0816327 0.0816327 0
0.0816327 0.0612245 0
0.0816327 0.0408163 0
0.0816327 0.0204082 0
0.102041 0.979592 0
0.102041 0.959184 0
0.102041 0.938776 0
0.102041 0.918367 0
0.102041 0.897959 0
0.102041 0.877551 0
0.102041 0.857143 0
0.102041 0.836735 0
0.102041 0.816327 0
0.102041 0.795918 0
0.102041 0.77551 0
0.102041 0.755102 0
0.102041 0.734694 0
0.102041 0.714286 0
0.102041 0.693878 0
0.102041 0.673469 0
0.102041 0.653061 0
0.102041 0.632653 0
0.102041 0.612245 0
0.102041 0.591837 0
0.102041 0.571429 0
0.102041 0.55102 0
0.102041 0.530612 0
0.102041 0.510204 0
0.102041 0.489796 0
0.102041 0.469388 0
0.102041 0.44898 0
0.102041 0.428571 0
0.102041 0.408163 0
0.102041 0.387755 0
0.102041 0.367347 0
0.102041 0.346939 0
0.102041 0.326531 0
0.102041 0.306122 0
0.102041 0.285714 0
0.102041 0.265306 0
0.102041 0.244898 0
0.102041 0.22449 0
0.102041 0.204082 0
0.102041 0.183673 0
0.102041 0.163265 0
0.102041 0.142857 0
0.102041 0.122449 0
0.102041 0.102041 0
0.102041 0.0816327 0
0.102041 0.0612245 0
0.102041 0.0408163 0
0.102041 0.0204082 0
0.122449 0.979592 0
0.122449 0.959184 0
0.122449 0.938776 0
0.122449 0.918367 0
0.122449 0.897959 0
0.122449 0.877551 0
0.122449 0.857143 0
0.122449 0.836735 0
0.122449 0.816327 0
0.122449 0.795918 0
0.122449 0.77551 0
0.122449 0.755102 0
0.122449 0.734694 0
0.122449 0.714286 0
0.122449 0.693878 0
0.122449 0.673469 0
0.122449 0.653061 0
0.122449 0.632653 0
0.122449 0.612245 0
0.122449 0.591837 0
0.122449 0.571429 0
0.122449 0.55102 0
0.122449 0.530612 0
0.122449 0.510204 0
0.122449 0.489796 0
0.122449 0.469388 0
0.122449 0.44898 0
0.122449 0.428571 0
0.122449 0.408163 0
0.122449 0.387755 0
0.122449 0.367347 0
0.122449 0.346939 0
0.122449 0.326531 0
0.122449 0.306122 0
0.122449 0.285714 0
0.122449 0.265306 0
0.122449 0.244898 0
0.122449 0.22449 0
0.122449 0.204082 0
0.122449 0.183673 0
0.122449 0.163265 0
0.122449 0.142857 0
0.122449 0.122449 0
0.122449 0.102041 0
0.122449 0.0816327 0
0.122449 0.0612245 0
0.122449 0.0408163 0
0.122449 0.0204082 0
0.142857 0.979592 0
0.142857 0.959184 0
0.142857 0.938776 0
0.142857 0.918367 0
0.142857 0.897959 0
0.142857 0.877551 0
0.142857 0.857143 0
0.142857 0.836735 0
0.142857 0.816327 0
0.142857 0.795918 0
0.142857 0.77551 0
0.142857 0.755102 0
0.142857 0.734694 0
0.142857 0.714286 0
0.142857 0.693878 0
0.142857 0.673469 0
0.142857 0.653061 0
0.142857 0.632653 0
0.142857 0.612245 0
0.142857 0.591837 0
0.142857 0.571429 0
0.142857 0.55102 0
0.142857 0.530612 0
0.142857 0.510204 0
0.142857 0.489796 0
0.142857 0.469388 0
0.142857 0.44898 0
0.142857 0.428571 0
0.142857 0.408163 0
0.142857 0.387755 0
0.142857 0.367347 0
0.142857 0.346939 0
0.142857 0.326531 0
0.142857 0.306122 0
0.142857 0.285714 0
0.142857 0.265306 0
0.142857 0.244898 0
0.142857 0.22449 0
0.142857 0.204082 0
0.142857 0.183673 0
0.142857 0.163265 0
0.142857 0.142857 0
0.142857 0.122449 0
0.142857 0.102041 0
0.142857 0.0816327 0
0.142857 0.0612245 0
0.142857 0.0408163 0
0.142857 0.0204082 0
0.163265 0.979592 0
0.163265 0.959184 0
0.163265 0.938776 0
0.163265 0.918367 0
0.163265 0.897959 0
0.163265 0.877551 0
0.163265 0.857143 0
0.163265 0.836735 0
0.163265 0.816327 0
0.163265 0.795918 0
0.163265 0.77551 0
0.163265 0.755102 0
0.163265 0.734694 0
0.163265 0.714286 0
0.163265 0.693878 0
0.163265 0.673469 0
0.163265 0.653061 0
0.163265 0.632653 0
0.163265 0.612245 0
0.163265 0.591837 0
0.163265 0.571429 0
0.163265 0.55102 0
[...]
CELL_DATA 2401
VECTORS velocity double
0.257427 0.15755 0
-0.00238353 0.265171 0
-0.0318606 0.207 0
-0.0249784 0.153065 0
-0.0158072 0.11617 0
-0.00963276 0.090999 0
-0.00602291 0.0736479 0
-0.003964 0.0612878 0
-0.00276423 0.0521178 0
-0.00203305 0.0450579 0
-0.00156253 0.0394522 0
-0.0012431 0.0348887 0
-0.00101588 0.0310979 0
-0.000847985 0.0278966 0
-0.000720112 0.0251555 0
-0.000620335 0.0227803 0
-0.000540914 0.0207008 0
-0.000476615 0.0188637 0
-0.000423776 0.0172274 0
-0.000379771 0.0157598 0
-0.000342676 0.0144349 0
-0.00031106 0.0132324 0
-0.000283843 0.0121353 0
-0.000260205 0.01113 0
-0.000239514 0.0102052 0
-0.000221281 0.00935129 0
-0.000205125 0.00856032 0
-0.000190746 0.00782538 0
-0.000177903 0.00714052 0
-0.000166407 0.00650055 0
-0.000156099 0.00590092 0
-0.00014685 0.00533756 0
-0.000138546 0.00480689 0
-0.000131086 0.00430571 0
-0.00012437 0.00383121 0
-0.000118296 0.00338097 0
-0.000112747 0.00295299 0
-0.00010758 0.00254573 0
-0.000102613 0.00215825 0
-9.76046e-05 0.00179035 0
-9.22254e-05 0.00144275 0
-8.60254e-05 0.00111739 0
-7.83915e-05 0.000817717 0
-6.85093e-05 0.000549113 0
-5.53618e-05 0.00031919 0
-3.79271e-05 0.000137934 0
-1.5946e-05 1.6668e-05 0
8.29183e-06 -3.60007e-05 0
2.22991e-05 -2.22349e-05 0
0.341196 0.123296 0
0.000805502 0.250866 0
-0.063586 0.274626 0
-0.0619258 0.25641 0
-0.0478735 0.22652 0
-0.0351262 0.19646 0
-0.0258261 0.170014 0
-0.0193954 0.147791 0
-0.0149608 0.129355 0
-0.0118452 0.114041 0
-0.0095974 0.101228 0
-0.00793043 0.0904072 0
-0.00666278 0.0811765 0
-0.00567758 0.073226 0
-0.00489758 0.0663155 0
-0.00427013 0.0602579 0
-0.00375832 0.0549062 0
-0.00333562 0.0501441 0
-0.00298252 0.0458789 0
-0.00268449 0.0420359 0
-0.00243047 0.0385544 0
-0.00221204 0.035385 0
-0.00202264 0.0324869 0
-0.00185721 0.0298263 0
-0.00171174 0.0273747 0
-0.00158308 0.0251083 0
-0.00146873 0.0230066 0
-0.00136669 0.021052 0
-0.00127533 0.0192292 0
-0.00119333 0.0175248 0
-0.0011196 0.0159271 0
-0.00105319 0.0144256 0
-0.000993278 0.0130111 0
-0.000939102 0.0116753 0
-0.000889915 0.0104111 0
-0.000844936 0.00921242 0
-0.00080329 0.00807425 0
-0.000763948 0.0069929 0
-0.000725646 0.0059662 0
-0.000686797 0.00499386 0
-0.000645388 0.00407785 0
-0.000598891 0.00322291 0
-0.000544195 0.00243709 0
-0.000477672 0.00173212 0
-0.000395527 0.00112351 0
-0.000295001 0.00062986 0
-0.000177404 0.000269387 0
-5.38185e-05 5.43624e-05 0
3.58036e-05 -7.89834e-06 0
0.502379 0.0772094 0
0.102019 0.184853 0
-0.0363542 0.252248 0
-0.0713448 0.269519 0
-0.0713453 0.261138 0
-0.0617887 0.242305 0
-0.0511623 0.220305 0
-0.0419058 0.198562 0
-0.0344315 0.178482 0
-0.0285403 0.160496 0
-0.0239115 0.144599 0
-0.0202536 0.130612 0
-0.017336 0.118306 0
-0.0149845 0.107452 0
-0.0130696 0.0978396 0
-0.0114945 0.0892893 0
-0.0101865 0.0816463 0
-0.00909035 0.0747811 0
-0.00816373 0.068585 0
-0.00737382 0.0629674 0
-0.00669508 0.0578524 0
-0.00610743 0.0531763 0
-0.00559505 0.0488857 0
-0.0051454 0.0449353 0
-0.00474849 0.0412866 0
-0.00439631 0.0379065 0
-0.00408244 0.0347667 0
-0.00380168 0.0318423 0
-0.00354978 0.0291119 0
-0.00332321 0.0265562 0
-0.00311905 0.0241585 0
-0.00293474 0.0219037 0
-0.00276804 0.0197785 0
-0.00261682 0.017771 0
-0.00247901 0.015871 0
-0.00235242 0.0140697 0
-0.00223464 0.01236 0
-0.00212283 0.0107366 0
-0.00201359 0.00919646 0
-0.00190275 0.00773909 0
-0.0017852 0.00636712 0
-0.00165474 0.00508685 0
-0.00150418 0.00390868 0
-0.00132566 0.00284747 0
-0.00111182 0.00192235 0
-0.00085848 0.00115566 0
-0.000570177 0.000568472 0
-0.000268999 0.000177629 0
-1.76533e-05 1.65931e-05 0
0.612421 0.0483907 0
0.199765 0.135217 0
0.0152099 0.211365 0
-0.0560232 0.248344 0
-0.0765873 0.257793 0
-0.0769758 0.252243 0
-0.0702078 0.238947 0
-0.0616313 0.222323 0
-0.0533126 0.204843 0
-0.0459402 0.187789 0
-0.0396467 0.171767 0
-0.0343577 0.157017 0
-0.0299365 0.143581 0
-0.0262412 0.131405 0
-0.0231442 0.120389 0
-0.0205376 0.110421 0
-0.0183323 0.101387 0
-0.0164557 0.0931801 0
-0.0148491 0.0857044 0
-0.013465 0.0788749 0
-0.012265 0.0726172 0
-0.0112184 0.0668664 0
-0.0103 0.0615665 0
-0.00948986 0.0566688 0
-0.00877147 0.0521311 0
-0.00813162 0.0479166 0
-0.00755949 0.0439929 0
-0.00704623 0.0403316 0
-0.00658455 0.0369076 0
-0.00616834 0.0336985 0
-0.00579243 0.0306843 0
-0.00545233 0.0278472 0
-0.00514399 0.0251713 0
-0.00486359 0.0226424 0
-0.00460735 0.020248 0
-0.0043713 0.0179777 0
-0.00415102 0.0158228 0
-0.00394142 0.013777 0
-0.00373642 0.0118365 0
-0.00352872 0.0100005 0
-0.00330953 0.00827173 0
-0.00306847 0.00665701 0
-0.00279378 0.00516767 0
-0.00247309 0.00381974 0
-0.00209523 0.00263391 0
-0.00165407 0.0016347 0
-0.00115538 0.00084592 0
-0.000626742 0.000291789 0
-0.000139134 3.8376e-05 0
0.683384 0.0303702 0
0.283046 0.0987701 0
0.073233 0.17137 0
-0.0265675 0.216702 0
-0.0679282 0.23791 0
-0.0810726 0.24314 0
-0.0813317 0.238424 0
-0.0761449 0.228061 0
-0.069045 0.214856 0
-0.0616649 0.200531 0
-0.0547149 0.186102 0
-0.0484622 0.172136 0
-0.0429656 0.158925 0
-0.0381907 0.146596 0
-0.0340655 0.13518 0
-0.0305078 0.124654 0
-0.0274376 0.114968 0
-0.0247819 0.106057 0
-0.0224771 0.0978566 0
-0.0204687 0.0902998 0
-0.0187107 0.0833258 0
-0.0171647 0.0768781 0
-0.0157987 0.0709057 0
-0.0145865 0.065363 0
-0.0135061 0.060209 0
-0.0125396 0.0554074 0
-0.0116722 0.0509254 0
-0.0108914 0.046734 0
-0.010187 0.0428068 0
-0.00955038 0.0391203 0
-0.00897398 0.0356531 0
-0.00845125 0.032386 0
-0.00797625 0.0293018 0
-0.00754329 0.0263849 0
-0.0071467 0.0236218 0
-0.00678051 0.0210009 0
-0.00643809 0.0185126 0
-0.00611181 0.0161499 0
-0.00579269 0.0139083 0
-0.00547001 0.0117866 0
-0.00513107 0.00978743 0
-0.00476108 0.00791741 0
-0.00434354 0.00618799 0
-0.00386127 0.00461554 0
-0.00329875 0.00322154 0
-0.00264638 0.00203253 0
-0.00190781 0.00107578 0
-0.00110935 0.000384246 0
-0.000317914 5.48956e-05 0
0.732911 0.0192267 0
0.353284 0.0728133 0
0.130345 0.137865 0
0.00984152 0.184505 0
-0.0502956 0.212405 0
-0.0766577 0.225105 0
-0.085398 0.227323 0
-0.0852486 0.222727 0
-0.0808616 0.214012 0
-0.0746975 0.203023 0
-0.0680376 0.190972 0
-0.0615269 0.178628 0
-0.0554675 0.166461 0
-0.0499773 0.154745 0
-0.0450781 0.143625 0
-0.0407428 0.133166 0
-0.0369226 0.123384 0
-0.0335611 0.114265 0
-0.0306015 0.105778 0
-0.0279911 0.0978851 0
-0.0256827 0.0905435 0
-0.0236348 0.0837112 0
-0.0218118 0.0773473 0
-0.0201835 0.0714135 0
-0.0187243 0.0658737 0
-0.0174127 0.0606951 0
-0.0162306 0.0558474 0
-0.0151627 0.0513027 0
-0.0141963 0.0470357 0
-0.0133202 0.0430232 0
-0.012525 0.0392437 0
-0.0118021 0.035678 0
-0.0111436 0.0323084 0
-0.0105421 0.029119 0
-0.00999003 0.0260958 0
-0.00947924 0.0232266 0
-0.00900086 0.0205014 0
-0.00854468 0.0179127 0
-0.00809867 0.0154554 0
-0.00764866 0.0131281 0
-0.00717791 0.0109329 0
-0.00666716 0.00887607 0
-0.00609495 0.00696886 0
-0.00543889 0.0052277 0
-0.00467814 0.00367481 0
-0.0037978 0.00233882 0
-0.00279585 0.001251 0
-0.00169162 0.000452759 0
-0.000539905 6.62744e-05 0
0.768567 0.0124563 0
0.411532 0.0546444 0
0.183058 0.111279 0
0.0479154 0.155939 0
-0.0275859 0.186515 0
-0.0662962 0.203841 0
-0.0838336 0.211079 0
-0.0895306 0.211164 0
-0.0887928 0.206466 0
-0.0847309 0.19875 0
-0.0791253 0.18927 0
-0.0729816 0.178888 0
-0.0668532 0.168176 0
-0.0610292 0.157509 0
-0.0556453 0.147117 0
-0.050749 0.137138 0
-0.0463389 0.127647 0
-0.042388 0.118674 0
-0.0388571 0.110227 0
-0.0357034 0.102293 0
-0.0328845 0.0948539 0
-0.0303607 0.0878824 0
-0.0280963 0.0813507 0
-0.02606 0.07523 0
-0.0242243 0.0694916 0
-0.0225659 0.0641079 0
-0.0210645 0.0590528 0
-0.019703 0.0543014 0
-0.0184666 0.0498304 0
-0.0173424 0.0456182 0
-0.0163191 0.0416445 0
-0.0153866 0.0378906 0
-0.0145352 0.0343392 0
-0.0137559 0.0309748 0
-0.0130391 0.0277832 0
-0.0123749 0.0247523 0
-0.0117521 0.0218719 0
-0.0111579 0.0191341 0
-0.0105773 0.0165337 0
-0.00999262 0.0140688 0
-0.00938321 0.0117411 0
-0.00872518 0.00955641 0
-0.00799191 0.00752581 0
-0.00715527 0.00566574 0
-0.00618808 0.00399923 0
-0.00506826 0.00255707 0
-0.00378515 0.00137434 0
-0.00234702 0.000499611 0
-0.000792016 7.34863e-05 0
0.794796 0.00832353 0
0.459552 0.041813 0
0.230253 0.0904412 0
0.0850485 0.131706 0
-0.00250449 0.162446 0
-0.052177 0.182318 0
-0.078159 0.192903 0
-0.0899218 0.196515 0
-0.0933143 0.195119 0
-0.0919175 0.1903 0
-0.0879157 0.183259 0
-0.0826308 0.174868 0
-0.0768524 0.165748 0
-0.0710402 0.156327 0
-0.0654504 0.146894 0
-0.0602142 0.137639 0
-0.0553875 0.128682 0
-0.0509815 0.120092 0
-0.0469826 0.111909 0
-0.0433642 0.104148 0
-0.0400938 0.0968079 0
-0.037138 0.089881 0
-0.0344643 0.0833519 0
-0.0320427 0.0772022 0
-0.0298464 0.0714116 0
-0.0278515 0.0659589 0
-0.0260372 0.0608228 0
-0.0243851 0.0559824 0
-0.0228795 0.0514175 0
-0.0215062 0.0471087 0
-0.0202527 0.0430373 0
-0.0191074 0.039186 0
-0.0180595 0.0355384 0
-0.0170982 0.0320796 0
-0.0162125 0.0287959 0
-0.0153906 0.0256754 0
-0.0146191 0.0227079 0
-0.0138829 0.0198856 0
-0.013164 0.017203 0
-0.0124414 0.0146578 0
-0.0116904 0.0122515 0
-0.0108824 0.00998952 0
-0.00998558 0.00788271 0
-0.00896538 0.00594766 0
-0.00778732 0.00420819 0
-0.00642062 0.00269701 0
-0.00484382 0.00145242 0
-0.00305159 0.000528384 0
-0.00106338 7.75451e-05 0
0.814602 0.00575517 0
0.499225 0.0325986 0
0.271875 0.0741183 0
0.119976 0.111509 0
0.023122 0.14106 0
-0.0359272 0.161962 0
-0.0696702 0.174604 0
-0.0873574 0.180729 0
-0.0950391 0.181903 0
-0.0966126 0.179496 0
-0.0945715 0.174605 0
-0.0905014 0.168068 0
-0.0854003 0.160506 0
-0.079887 0.152372 0
-0.0743355 0.143987 0
-0.068963 0.135574 0
-0.0638864 0.127285 0
-0.0591606 0.119221 0
-0.0548021 0.111447 0
-0.0508051 0.103998 0
-0.0471513 0.0968948 0
-0.0438168 0.0901432 0
-0.0407751 0.0837409 0
-0.0380003 0.0776798 0
-0.0354676 0.0719476 0
-0.0331546 0.0665301 0
-0.0310409 0.0614112 0
-0.0291082 0.0565744 0
-0.0273403 0.0520027 0
-0.0257226 0.0476793 0
-0.0242418 0.0435879 0
-0.0228854 0.0397127 0
-0.0216416 0.0360384 0
-0.0204983 0.0325512 0
-0.0194433 0.0292379 0
-0.0184629 0.0260872 0
-0.0175419 0.023089 0
-0.0166628 0.0202356 0
-0.015805 0.0175215 0
-0.0149441 0.0149442 0
-0.0140515 0.0125048 0
-0.0130939 0.0102086 0
-0.0120336 0.00806625 0
-0.0108296 0.00609446 0
-0.00943926 0.00431774 0
-0.00782186 0.00277027 0
-0.00594384 0.00149273 0
-0.00378489 0.000542629 0
-0.00134535 7.92765e-05 0
0.829933 0.00412235 0
0.532164 0.0258699 0
0.308309 0.0612943 0
0.152129 0.0948134 0
0.0480339 0.122596 0
-0.0187434 0.143427 0
-0.0594049 0.157172 0
-0.0826596 0.16497 0
-0.0945745 0.168053 0
-0.0992342 0.167569 0
-0.0993569 0.164488 0
-0.0967381 0.159585 0
-0.0925535 0.153457 0
-0.0875634 0.146555 0
-0.0822516 0.139213 0
-0.0769179 0.131674 0
-0.0717409 0.12411 0
-0.0668206 0.116643 0
-0.0622064 0.109358 0
-0.0579163 0.102308 0
-0.0539489 0.0955297 0
-0.050292 0.0890413 0
-0.0469278 0.0828519 0
-0.0438361 0.0769629 0
-0.0409961 0.0713701 0
-0.0383879 0.0660652 0
-0.0359929 0.0610377 0
-0.0337936 0.0562753 0
-0.0317745 0.0517644 0
-0.0299209 0.047491 0
-0.0282193 0.0434411 0
-0.0266569 0.0396005 0
-0.0252209 0.0359555 0
-0.0238987 0.0324931 0
-0.0226765 0.0292012 0
-0.0215395 0.0260687 0
-0.0204707 0.0230862 0
-0.0194504 0.020246 0
-0.0184554 0.0175426 0
-0.017458 0.0149734 0
-0.0164259 0.0125393 0
-0.0153209 0.0102456 0
-0.0140996 0.00810247 0
-0.0127137 0.0061269 0
-0.0111121 0.00434377 0
-0.00924345 0.0027882 0
-0.00706135 0.00150229 0
-0.00453006 0.000545409 0
-0.00163115 7.93021e-05 0
0.842058 0.0030544 0
0.559685 0.0208622 0
0.340118 0.0511326 0
0.181401 0.0809898 0
0.0717488 0.106727 0
-0.00138314 0.126857 0
-0.0481355 0.141051 0
-0.0764997 0.149876 0
-0.0924606 0.15432 0
-0.100192 0.155318 0
-0.102567 0.153711 0
-0.10154 0.150197 0
-0.0984352 0.145334 0
-0.0941343 0.139557 0
-0.0892197 0.133198 0
-0.0840683 0.126508 0
-0.0789178 0.119671 0
-0.0739132 0.112824 0
-0.0691375 0.106063 0
-0.0646336 0.0994569 0
-0.0604188 0.0930531 0
-0.0564947 0.0868817 0
-0.0528535 0.0809613 0
-0.0494822 0.0753013 0
-0.0463654 0.0699041 0
-0.043487 0.0647678 0
-0.0408308 0.0598863 0
-0.0383815 0.0552514 0
-0.0361245 0.0508528 0
-0.0340458 0.0466794 0
-0.0321323 0.042719 0
-0.030371 0.0389594 0
-0.0287489 0.0353882 0
-0.0272526 0.0319936 0
-0.0258676 0.0287643 0
-0.0245778 0.0256898 0
-0.0233646 0.022761 0
-0.0222064 0.0199705 0
-0.0210775 0.017313 0
-0.0199473 0.0147857 0
-0.0187793 0.0123894 0
-0.0175307 0.010129 0
-0.0161522 0.0080149 0
-0.0145882 0.00606373 0
-0.0127786 0.00430055 0
-0.0106612 0.00276078 0
-0.00817653 0.00148705 0
-0.00527342 0.000539193 0
-0.00191554 7.80707e-05 0
0.851826 0.00233389 0
0.582833 0.0170671 0
0.367873 0.0430125 0
0.207842 0.0695266 0
0.0939471 0.0931501 0
0.0156159 0.112236 0
-0.0364115 0.126395 0
-0.0693958 0.135774 0
-0.0891474 0.141141 0
-0.0998553 0.143246 0
-0.104488 0.142805 0
-0.105123 0.140438 0
-0.103199 0.136657 0
-0.0997026 0.131873 0
-0.095303 0.126406 0
-0.0904465 0.120507 0
-0.0854262 0.114365 0
-0.0804299 0.108124 0
-0.0755738 0.10189 0
-0.0709264 0.0957423 0
-0.0665243 0.0897359 0
-0.0623839 0.0839104 0
-0.0585084 0.0782918 0
-0.0548933 0.0728964 0
-0.0515296 0.0677326 0
-0.0484058 0.0628034 0
-0.0455093 0.058107 0
-0.0428271 0.0536386 0
-0.0403465 0.0493912 0
-0.0380547 0.0453557 0
-0.0359393 0.0415223 0
-0.0339876 0.0378802 0
-0.0321866 0.0344184 0
-0.0305226 0.0311261 0
-0.0289803 0.0279928 0
-0.0275427 0.0250087 0
-0.0261899 0.0221651 0
-0.0248984 0.0194547 0
-0.0236402 0.0168723 0
-0.0223816 0.0144153 0
-0.0210825 0.0120841 0
-0.0196953 0.0098836 0
-0.0181648 0.00782373 0
-0.016428 0.00592099 0
-0.0144157 0.00420014 0
-0.0120549 0.00269631 0
-0.00927301 0.00145184 0
-0.00600396 0.00052588 0
-0.00219442 7.58975e-05 0
0.859822 0.00183235 0
0.602436 0.0141425 0
0.392117 0.0364695 0
0.231632 0.059993 0
0.11452 0.0815532 0
0.03188 0.0994658 0
-0.0246367 0.113228 0
-0.0617497 0.12281 0
-0.085002 0.128753 0
-0.0985399 0.131649 0
-0.105383 0.132104 0
-0.107694 0.130662 0
-0.107005 0.127784 0
-0.104389 0.123853 0
-0.100588 0.119173 0
-0.0961109 0.113988 0
-0.0913019 0.108487 0
-0.0863888 0.102818 0
-0.0815199 0.0970929 0
-0.0767885 0.0913956 0
-0.0722511 0.0857893 0
-0.067939 0.0803195 0
-0.0638676 0.0750184 0
-0.0600414 0.0699077 0
-0.0564585 0.0650005 0
-0.0531127 0.0603037 0
-0.0499956 0.0558195 0
-0.0470973 0.0515459 0
-0.0444074 0.0474782 0
-0.0419147 0.0436097 0
-0.0396078 0.0399321 0
-0.0374748 0.0364363 0
-0.0355029 0.0331123 0
-0.0336781 0.0299502 0
-0.031985 0.0269402 0
-0.0304055 0.0240732 0
-0.0289186 0.0213407 0
-0.0274991 0.0187358 0
-0.0261169 0.0162533 0
-0.0247354 0.0138905 0
-0.0233109 0.0116478 0
-0.021791 0.00952966 0
-0.0201147 0.00754568 0
-0.0182117 0.00571188 0
-0.0160039 0.00405235 0
-0.0134075 0.00260142 0
-0.0103373 0.00140042 0
-0.00671276 0.000506895 0
-0.00246458 7.29988e-05 0
0.86646 0.00147223 0
0.619151 0.011852 0
0.413339 0.0311475 0
0.252996 0.0520189 0
0.133475 0.0716177 0
0.0472834 0.0882984 0
-0.0130853 0.101474 0
-0.0538676 0.111008 0
-0.0803199 0.117255 0
-0.0965129 0.120688 0
-0.105482 0.12181 0
-0.109448 0.121093 0
-0.110012 0.118952 0
-0.108317 0.115736 0
-0.10517 0.111733 0
-0.101134 0.107177 0
-0.0965968 0.102253 0
-0.0918252 0.0971085 0
-0.0869972 0.0918582 0
-0.0822305 0.0865908 0
-0.0776007 0.0813733 0
-0.0731549 0.0762562 0
-0.0689204 0.071276 0
-0.0649114 0.0664584 0
-0.0611336 0.0618202 0
-0.0575868 0.0573717 0
-0.0542671 0.0531177 0
-0.0511684 0.0490586 0
-0.0482826 0.0451918 0
-0.0456007 0.0415122 0
-0.0431127 0.038013 0
-0.0408074 0.0346861 0
-0.0386726 0.0315227 0
-0.0366945 0.0285135 0
-0.0348572 0.0256494 0
-0.0331422 0.0229216 0
-0.0315272 0.0203221 0
-0.0299857 0.0178441 0
-0.0284854 0.0154825 0
-0.026987 0.0132345 0
-0.0254433 0.0111002 0
-0.0237974 0.00908376 0
-0.0219824 0.00719425 0
-0.0199212 0.00544693 0
-0.0175267 0.00386494 0
-0.0147049 0.00248125 0
-0.0113583 0.00133563 0
-0.00739253 0.000483281 0
-0.00272343 6.95202e-05 0
0.872036 0.00120606 0
0.633495 0.0100314 0
0.431963 0.0267794 0
0.272161 0.0453107 0
0.150853 0.0630802 0
0.0617337 0.0785232 0
-0.00192759 0.0909918 0
-0.0459681 0.100313 0
-0.0753296 0.106663 0
-0.0939924 0.11043 0
-0.104983 0.112028 0
-0.110556 0.111865 0
-0.112366 0.11031 0
-0.11161 0.107681 0
-0.109149 0.104248 0
-0.105593 0.100232 0
-0.101372 0.0958147 0
-0.0967844 0.0911399 0
-0.0920382 0.0863234 0
-0.0872739 0.0814558 0
-0.0825859 0.0766071 0
-0.0780366 0.0718307 0
-0.0736657 0.0671661 0
-0.0694973 0.0626419 0
-0.0655452 0.0582777 0
-0.0618152 0.0540861 0
-0.0583087 0.0500737 0
-0.0550232 0.0462429 0
-0.0519537 0.0425924 0
-0.0490934 0.0391185 0
-0.0464338 0.0358154 0
-0.0439651 0.0326757 0
-0.0416754 0.0296914 0
-0.0395513 0.026854 0
-0.0375768 0.0241545 0
-0.0357327 0.0215847 0
-0.033996 0.0191368 0
-0.0323386 0.016804 0
-0.0307265 0.0145813 0
-0.0291177 0.0124657 0
-0.0274615 0.0104571 0
-0.0256969 0.00855911 0
-0.0237514 0.00678012 0
-0.0215409 0.00513445 0
-0.0189702 0.00364393 0
-0.015935 0.00233975 0
-0.0123264 0.0012596 0
-0.00803719 0.000455786 0
-0.00296883 6.55576e-05 0
0.876767 0.00100423 0
0.645877 0.00856517 0
0.448348 0.0231642 0
0.289347 0.0396378 0
0.166732 0.0557252 0
0.0751976 0.0699624 0
0.00872374 0.0816557 0
-0.0382029 0.0906414 0
-0.0702035 0.0969481 0
-0.0911534 0.10089 0
-0.104052 0.102807 0
-0.11117 0.103049 0
-0.114199 0.101945 0
-0.114382 0.0997855 0
-0.112621 0.0968202 0
-0.109569 0.093259 0
-0.105691 0.089276 0
-0.101317 0.0850131 0
-0.0966819 0.0805846 0
-0.0919472 0.0760819 0
-0.0872262 0.0715762 0
-0.0825962 0.0671228 0
-0.0781093 0.062763 0
-0.0737999 0.0585273 0
-0.0696894 0.0544369 0
-0.0657908 0.0505058 0
-0.0621103 0.046742 0
-0.0586496 0.043149 0
-0.0554068 0.0397264 0
-0.0523777 0.0364712 0
-0.0495554 0.0333782 0
-0.0469312 0.0304408 0
-0.0444943 0.0276512 0
-0.0422314 0.0250012 0
-0.0401264 0.0224825 0
-0.0381598 0.0200868 0
-0.0363078 0.0178064 0
-0.0345411 0.0156348 0
-0.0328236 0.0135667 0
-0.0311112 0.0115989 0
-0.0293498 0.00973108 0
-0.0274743 0.00796618 0
-0.025407 0.00631174 0
-0.0230573 0.00478092 0
-0.020322 0.00339394 0
-0.0170876 0.00217987 0
-0.0132339 0.00117391 0
-0.00864159 0.000424949 0
-0.00319895 6.11732e-05 0
0.880818 0.000847714 0
0.656626 0.00737014 0
0.462805 0.0201483 0
0.304763 0.0348151 0
0.181212 0.0493696 0
0.0876793 0.0624551 0
0.0187632 0.0733691 0
-0.0306922 0.0819122 0
-0.0650787 0.0880613 0
-0.0881391 0.0920492 0
-0.102829 0.0941519 0
-0.111422 0.0946719 0
-0.115632 0.0939007 0
-0.116738 0.0921028 0
-0.115678 0.0895101 0
-0.113139 0.0863212 0
-0.109619 0.082703 0
-0.105477 0.0787938 0
-0.10097 0.0747061 0
-0.0962828 0.0705308 0
-0.0915454 0.0663396 0
-0.0868501 0.0621883 0
-0.0822614 0.0581194 0
-0.0778236 0.0541639 0
-0.0735667 0.0503439 0
-0.0695101 0.0466741 0
-0.0656655 0.043163 0
-0.0620387 0.0398145 0
-0.0586314 0.0366286 0
-0.0554415 0.0336026 0
-0.0524642 0.0307316 0
-0.049692 0.028009 0
-0.0471148 0.0254274 0
-0.0447199 0.0229787 0
-0.0424911 0.0206546 0
-0.0404087 0.0184471 0
-0.0384479 0.0163483 0
-0.0365783 0.0143518 0
-0.0347622 0.0124522 0
-0.0329532 0.0106459 0
-0.0310942 0.00893218 0
-0.0291161 0.00731327 0
-0.0269365 0.00579574 0
-0.0244586 0.00439137 0
-0.0215718 0.00311854 0
-0.0181535 0.00200386 0
-0.0140736 0.00107971 0
-0.00920122 0.000391153 0
-0.0034122 5.64068e-05 0
0.884313 0.00072382 0
0.666003 0.00638491 0
0.475595 0.0176118 0
0.318602 0.0306894 0
0.194398 0.0438496 0
0.0992117 0.0558428 0
0.0281791 0.0659794 0
-0.0235186 0.074029 0
-0.0600634 0.0799347 0
-0.0850675 0.0838645 0
-0.101433 0.0860432 0
-0.111425 0.0867313 0
-0.116771 0.086188 0
-0.118775 0.0846547 0
-0.118404 0.082347 0
-0.116377 0.0794529 0
-0.113219 0.0761326 0
-0.109315 0.0725203 0
-0.104946 0.0687265 0
-0.100314 0.0648409 0
-0.0955691 0.0609348 0
-0.0908168 0.0570638 0
-0.086134 0.0532702 0
-0.0815754 0.0495853 0
-0.0771793 0.0460309 0
-0.0729717 0.0426215 0
-0.0689699 0.0393656 0
-0.0651839 0.0362668 0
-0.0616186 0.033325 0
-0.0582747 0.0305372 0
-0.0551489 0.0278983 0
-0.0522353 0.0254017 0
-0.0495244 0.02304 0
-0.047004 0.0208048 0
-0.0446579 0.0186878 0
-0.042466 0.016681 0
-0.0404029 0.0147765 0