# vtk DataFile Version 3.0
Malha 2D com triângulos: velocidade e pressão
ASCII
DATASET UNSTRUCTURED_GRID

POINTS 2500 double
0 0 0
1 0 0
1 1 0
0 1 0
0.0204082 0 0
0.0408163 0 0
0.0612245 0 0
0.0816327 0 0
0.102041 0 0
0.122449 0 0
0.142857 0 0
0.163265 0 0
0.183673 0 0
0.204082 0 0
0.22449 0 0
0.244898 0 0
0.265306 0 0
0.285714 0 0
0.306122 0 0
0.326531 0 0
0.346939 0 0
0.367347 0 0
0.387755 0 0
0.408163 0 0
0.428571 0 0
0.44898 0 0
0.469388 0 0
0.489796 0 0
0.510204 0 0
0.530612 0 0
0.55102 0 0
0.571429 0 0
0.591837 0 0
0.612245 0 0
0.632653 0 0
0.653061 0 0
0.673469 0 0
0.693878 0 0
0.714286 0 0
0.734694 0 0
0.755102 0 0
0.77551 0 0
0.795918 0 0
0.816327 0 0
0.836735 0 0
0.857143 0 0
0.877551 0 0
0.897959 0 0
0.918367 0 0
0.938776 0 0
0.959184 0 0
0.979592 0 0
1 0.0204082 0
1 0.0408163 0
1 0.0612245 0
1 0.0816327 0
1 0.102041 0
1 0.122449 0
1 0.142857 0
1 0.163265 0
1 0.183673 0
1 0.204082 0
1 0.22449 0
1 0.244898 0
1 0.265306 0
1 0.285714 0
1 0.306122 0
1 0.326531 0
1 0.346939 0
1 0.367347 0
1 0.387755 0
1 0.408163 0
1 0.428571 0
1 0.44898 0
1 0.469388 0
1 0.489796 0
1 0.510204 0
1 0.530612 0
1 0.55102 0
1 0.571429 0
1 0.591837 0
1 0.612245 0
1 0.632653 0
1 0.653061 0
1 0.673469 0
1 0.693878 0
1 0.714286 0
1 0.734694 0
1 0.755102 0
1 0.77551 0
1 0.795918 0
1 0.816327 0
1 0.836735 0
1 0.857143 0
1 0.877551 0
1 0.897959 0
1 0.918367 0
1 0.938776 0
1 0.959184 0
1 0.979592 0
0.979592 1 0
0.959184 1 0
0.938776 1 0
0.918367 1 0
0.897959 1 0
0.877551 1 0
0.857143 1 0
0.836735 1 0
0.816327 1 0
0.795918 1 0
0.77551 1 0
0.755102 1 0
0.734694 1 0
0.714286 1 0
0.693878 1 0
0.673469 1 0
0.653061 1 0
0.632653 1 0
0.612245 1 0
0.591837 1 0
0.571429 1 0
0.55102 1 0
0.530612 1 0
0.510204 1 0
0.489796 1 0
0.469388 1 0
0.44898 1 0
0.428571 1 0
0.408163 1 0
0.387755 1 0
0.367347 1 0
0.346939 1 0
0.326531 1 0
0.306122 1 0
0.285714 1 0
0.265306 1 0
0.244898 1 0
0.22449 1 0
0.204082 1 0
0.183673 1 0
0.163265 1 0
0.142857 1 0
0.122449 1 0
0.102041 1 0
0.0816327 1 0
0.0612245 1 0
0.0408163 1 0
0.0204082 1 0
0 0.979592 0
0 0.959184 0
0 0.938776 0
0 0.918367 0
0 0.897959 0
0 0.877551 0
0 0.857143 0
0 0.836735 0
0 0.816327 0
0 0.795918 0
0 0.77551 0
0 0.755102 0
0 0.734694 0
0 0.714286 0
0 0.693878 0
0 0.673469 0
0 0.653061 0
0 0.632653 0
0 0.612245 0
0 0.591837 0
0 0.571429 0
0 0.55102 0
0 0.530612 0
0 0.510204 0
0 0.489796 0
0 0.469388 0
0 0.44898 0
0 0.428571 0
0 0.408163 0
0 0.387755 0
0 0.367347 0
0 0.346939 0
0 0.326531 0
0 0.306122 0
0 0.285714 0
0 0.265306 0
0 0.244898 0
0 0.22449 0
0 0.204082 0
0 0.183673 0
0 0.163265 0
0 0.142857 0
0 0.122449 0
0 0.102041 0
0 0.0816327 0
0 0.0612245 0
0 0.0408163 0
0 0.0204082 0
0.0204082 0.979592 0
0.0204082 0.959184 0
0.0204082 0.938776 0
0.0204082 0.918367 0
0.0204082 0.897959 0
0.0204082 0.877551 0
0.0204082 0.857143 0
0.0204082 0.836735 0
0.0204082 0.816327 0
0.0204082 0.795918 0
0.0204082 0.77551 0
0.0204082 0.755102 0
0.0204082 0.734694 0
0.0204082 0.714286 0
0.0204082 0.693878 0
0.0204082 0.673469 0
0.0204082 0.653061 0
0.0204082 0.632653 0
0.0204082 0.612245 0
0.0204082 0.591837 0
0.0204082 0.571429 0
0.0204082 0.55102 0
0.0204082 0.530612 0
0.0204082 0.510204 0
0.0204082 0.489796 0
0.0204082 0.469388 0
0.0204082 0.44898 0
0.0204082 0.428571 0
0.0204082 0.408163 0
0.0204082 0.387755 0
0.0204082 0.367347 0
0.0204082 0.346939 0
0.0204082 0.326531 0
0.0204082 0.306122 0
0.0204082 0.285714 0
0.0204082 0.265306 0
0.0204082 0.244898 0
0.0204082 0.22449 0
0.0204082 0.204082 0
0.0204082 0.183673 0
0.0204082 0.163265 0
0.0204082 0.142857 0
0.0204082 0.122449 0
0.0204082 0.102041 0
0.0204082 0.0816327 0
0.0204082 0.0612245 0
0.0204082 0.0408163 0
0.0204082 0.0204082 0
0.0408163 0.979592 0
0.0408163 0.959184 0
0.0408163 0.938776 0
0.0408163 0.918367 0
0.0408163 0.897959 0
0.0408163 0.877551 0
0.0408163 0.857143 0
0.0408163 0.836735 0
0.0408163 0.816327 0
0.0408163 0.795918 0
0.0408163 0.77551 0
0.0408163 0.755102 0
0.0408163 0.734694 0
0.0408163 0.714286 0
0.0408163 0.693878 0
0.0408163 0.673469 0
0.0408163 0.653061 0
0.0408163 0.632653 0
0.0408163 0.612245 0
0.0408163 0.591837 0
0.0408163 0.571429 0
0.0408163 0.55102 0
0.0408163 0.530612 0
0.0408163 0.510204 0
0.0408163 0.489796 0
0.0408163 0.469388 0
0.0408163 0.44898 0
0.0408163 0.428571 0
0.0408163 0.408163 0
0.0408163 0.387755 0
0.0408163 0.367347 0
0.0408163 0.346939 0
0.0408163 0.326531 0
0.0408163 0.306122 0
0.0408163 0.285714 0
0.0408163 0.265306 0
0.0408163 0.244898 0
0.0408163 0.22449 0
0.0408163 0.204082 0
0.0408163 0.183673 0
0.0408163 0.163265 0
0.0408163 0.142857 0
0.0408163 0.122449 0
0.0408163 0.102041 0
0.0408163 0.0816327 0
0.0408163 0.0612245 0
0.0408163 0.0408163 0
0.0408163 0.0204082 0
0.0612245 0.979592 0
0.0612245 0.959184 0
0.0612245 0.938776 0
0.0612245 0.918367 0
0.0612245 0.897959 0
0.0612245 0.877551 0
0.0612245 0.857143 0
0.0612245 0.836735 0
0.0612245 0.816327 0
0.0612245 0.795918 0
0.0612245 0.77551 0
0.0612245 0.755102 0
0.0612245 0.734694 0
0.0612245 0.714286 0
0.0612245 0.693878 0
0.0612245 0.673469 0
0.0612245 0.653061 0
0.0612245 0.632653 0
0.0612245 0.612245 0
0.0612245 0.591837 0
0.0612245 0.571429 0
0.0612245 0.55102 0
0.0612245 0.530612 0
0.0612245 0.510204 0
0.0612245 0.489796 0
0.0612245 0.469388 0
0.0612245 0.44898 0
0.0612245 0.428571 0
0.0612245 0.408163 0
0.0612245 0.387755 0
0.0612245 0.367347 0
0.0612245 0.346939 0
0.0612245 0.326531 0
0.0612245 0.306122 0
0.0612245 0.285714 0
0.0612245 0.265306 0
0.0612245 0.244898 0
0.0612245 0.22449 0
0.0612245 0.204082 0
0.0612245 0.183673 0
0.0612245 0.163265 0
0.0612245 0.142857 0
0.0612245 0.122449 0
0.0612245 0.102041 0
0.0612245 0.0816327 0
0.0612245 0.0612245 0
0.0612245 0.0408163 0
0.0612245 0.0204082 0
0.0816327 0.979592 0
0.0816327 0.959184 0
0.0816327 0.938776 0
0.0816327 0.918367 0
0.0816327 0.897959 0
0.0816327 0.877551 0
0.0816327 0.857143 0
0.0816327 0.836735 0
0.0816327 0.816327 0
0.0816327 0.795918 0
0.0816327 0.77551 0
0.0816327 0.755102 0
0.0816327 0.734694 0
0.0816327 0.714286 0
0.0816327 0.693878 0
0.0816327 0.673469 0
0.0816327 0.653061 0
0.0816327 0.632653 0
0.0816327 0.612245 0
0.0816327 0.591837 0
0.0816327 0.571429 0
0.0816327 0.55102 0
0.0816327 0.530612 0
0.0816327 0.510204 0
0.0816327 0.489796 0
0.0816327 0.469388 0
0.0816327 0.44898 0
0.0816327 0.428571 0
0.0816327 0.408163 0
0.0816327 0.387755 0
0.0816327 0.367347 0
0.0816327 0.346939 0
0.0816327 0.326531 0
0.0816327 0.306122 0
0.0816327 0.285714 0
0.0816327 0.265306 0
0.0816327 0.244898 0
0.0816327 0.22449 0
0.0816327 0.204082 0
0.0816327 0.183673 0
0.0816327 0.163265 0
0.0816327 0.142857 0
0.0816327 0.122449 0
0.0816327 0.102041 0
0.0816327 0.0816327 0
0.0816327 0.0612245 0
0.0816327 0.0408163 0
0.0816327 0.0204082 0
0.102041 0.979592 0
0.102041 0.959184 0
0.102041 0.938776 0
0.102041 0.918367 0
0.102041 0.897959 0
0.102041 0.877551 0
0.102041 0.857143 0
0.102041 0.836735 0
0.102041 0.816327 0
0.102041 0.795918 0
0.102041 0.77551 0
0.102041 0.755102 0
0.102041 0.734694 0
0.102041 0.714286 0
0.102041 0.693878 0
0.102041 0.673469 0
0.102041 0.653061 0
0.102041 0.632653 0
0.102041 0.612245 0
0.102041 0.591837 0
0.102041 0.571429 0
0.102041 0.55102 0
0.102041 0.530612 0
0.102041 0.510204 0
0.102041 0.489796 0
0.102041 0.469388 0
0.102041 0.44898 0
0.102041 0.428571 0
0.102041 0.408163 0
0.102041 0.387755 0
0.102041 0.367347 0
0.102041 0.346939 0
0.102041 0.326531 0
0.102041 0.306122 0
0.102041 0.285714 0
0.102041 0.265306 0
0.102041 0.244898 0
0.102041 0.22449 0
0.102041 0.204082 0
0.102041 0.183673 0
0.102041 0.163265 0
0.102041 0.142857 0
0.102041 0.122449 0
0.102041 0.102041 0
0.102041 0.0816327 0
0.102041 0.0612245 0
0.102041 0.0408163 0
0.102041 0.0204082 0
0.122449 0.979592 0
0.122449 0.959184 0
0.122449 0.938776 0
0.122449 0.918367 0
0.122449 0.897959 0
0.122449 0.877551 0
0.122449 0.857143 0
0.122449 0.836735 0
0.122449 0.816327 0
0.122449 0.795918 0
0.122449 0.77551 0
0.122449 0.755102 0
0.122449 0.734694 0
0.122449 0.714286 0
0.122449 0.693878 0
0.122449 0.673469 0
0.122449 0.653061 0
0.122449 0.632653 0
0.122449 0.612245 0
0.122449 0.591837 0
0.122449 0.571429 0
0.122449 0.55102 0
0.122449 0.530612 0
0.122449 0.510204 0
0.122449 0.489796 0
0.122449 0.469388 0
0.122449 0.44898 0
0.122449 0.428571 0
0.122449 0.408163 0
0.122449 0.387755 0
0.122449 0.367347 0
0.122449 0.346939 0
0.122449 0.326531 0
0.122449 0.306122 0
0.122449 0.285714 0
0.122449 0.265306 0
0.122449 0.244898 0
0.122449 0.22449 0
0.122449 0.204082 0
0.122449 0.183673 0
0.122449 0.163265 0
0.122449 0.142857 0
0.122449 0.122449 0
0.122449 0.102041 0
0.122449 0.0816327 0
0.122449 0.0612245 0
0.122449 0.0408163 0
0.122449 0.0204082 0
0.142857 0.979592 0
0.142857 0.959184 0
0.142857 0.938776 0
0.142857 0.918367 0
0.142857 0.897959 0
0.142857 0.877551 0
0.142857 0.857143 0
0.142857 0.836735 0
0.142857 0.816327 0
0.142857 0.795918 0
0.142857 0.77551 0
0.142857 0.755102 0
0.142857 0.734694 0
0.142857 0.714286 0
0.142857 0.693878 0
0.142857 0.673469 0
0.142857 0.653061 0
0.142857 0.632653 0
0.142857 0.612245 0
0.142857 0.591837 0
0.142857 0.571429 0
0.142857 0.55102 0
0.142857 0.530612 0
0.142857 0.510204 0
0.142857 0.489796 0
0.142857 0.469388 0
0.142857 0.44898 0
0.142857 0.428571 0
0.142857 0.408163 0
0.142857 0.387755 0
0.142857 0.367347 0
0.142857 0.346939 0
0.142857 0.326531 0
0.142857 0.306122 0
0.142857 0.285714 0
0.142857 0.265306 0
0.142857 0.244898 0
0.142857 0.22449 0
0.142857 0.204082 0
0.142857 0.183673 0
0.142857 0.163265 0
0.142857 0.142857 0
0.142857 0.122449 0
0.142857 0.102041 0
0.142857 0.0816327 0
0.142857 0.0612245 0
0.142857 0.0408163 0
0.142857 0.0204082 0
0.163265 0.979592 0
0.163265 0.959184 0
0.163265 0.938776 0
0.163265 0.918367 0
0.163265 0.897959 0
0.163265 0.877551 0
0.163265 0.857143 0
0.163265 0.836735 0
0.163265 0.816327 0
0.163265 0.795918 0
0.163265 0.77551 0
0.163265 0.755102 0
0.163265 0.734694 0
0.163265 0.714286 0
0.163265 0.693878 0
0.163265 0.673469 0
0.163265 0.653061 0
0.163265 0.632653 0
0.163265 0.612245 0
0.163265 0.591837 0
0.163265 0.571429 0
0.163265 0.55102 0
[...]
CELL_DATA 2401
VECTORS velocity double
0.257355 0.157464 0
-0.00270774 0.264586 0
-0.0323145 0.20546 0
-0.0253907 0.150574 0
-0.0160678 0.113024 0
-0.00970918 0.0876492 0
-0.00593332 0.0705589 0
-0.00374785 0.0588481 0
-0.00246408 0.0506092 0
-0.00168609 0.0446564 0
-0.00119797 0.0402424 0
-0.000882328 0.0368826 0
-0.00067382 0.0342537 0
-0.000534566 0.0321334 0
-0.000441603 0.0303658 0
-0.000380364 0.0288397 0
-0.000341227 0.0274749 0
-0.000317596 0.0262136 0
-0.000304814 0.025014 0
-0.000299493 0.0238466 0
-0.000299119 0.0226912 0
-0.00030179 0.0215343 0
-0.00030605 0.0203684 0
-0.000310782 0.0191898 0
-0.000315133 0.0179984 0
-0.000318463 0.0167965 0
-0.000320307 0.0155884 0
-0.000320346 0.0143797 0
-0.000318383 0.0131768 0
-0.000314318 0.0119868 0
-0.000308135 0.0108169 0
-0.000299877 0.00967451 0
-0.000289634 0.00856663 0
-0.000277522 0.00750006 0
-0.000263673 0.00648118 0
-0.000248218 0.00551599 0
-0.000231272 0.00461003 0
-0.000212928 0.00376851 0
-0.000193237 0.00299633 0
-0.000172199 0.0022982 0
-0.000149753 0.00167874 0
-0.000125766 0.00114259 0
-0.000100034 0.000694493 0
-7.23368e-05 0.000339229 0
-4.25989e-05 8.12489e-05 0
-1.13919e-05 -7.63588e-05 0
1.87842e-05 -0.000134224 0
4.08613e-05 -0.000105425 0
3.62899e-05 -3.61064e-05 0
0.340602 0.122955 0
-0.000662083 0.24941 0
-0.0652683 0.271608 0
-0.0633018 0.252136 0
-0.0485687 0.221606 0
-0.0350085 0.191719 0
-0.0249508 0.16628 0
-0.017917 0.145792 0
-0.0130638 0.129641 0
-0.00970516 0.116974 0
-0.00736293 0.106989 0
-0.00571875 0.0990235 0
-0.00456151 0.0925543 0
-0.00374926 0.0871785 0
-0.00318462 0.082589 0
-0.00279927 0.0785532 0
-0.00254425 0.0748961 0
-0.00238379 0.071487 0
-0.00229125 0.0682294 0
-0.00224648 0.0650538 0
-0.00223403 0.0619116 0
-0.00224192 0.0587707 0
-0.00226084 0.0556121 0
-0.00228355 0.0524273 0
-0.00230446 0.0492157 0
-0.00231933 0.0459829 0
-0.00232504 0.0427393 0
-0.00231939 0.0394986 0
-0.00230099 0.036277 0
-0.00226905 0.0330919 0
-0.00222332 0.0299616 0
-0.00216394 0.0269043 0
-0.00209136 0.023938 0
-0.0020062 0.02108 0
-0.00190921 0.0183467 0
-0.00180116 0.0157537 0
-0.00168277 0.0133155 0
-0.00155469 0.0110455 0
-0.00141739 0.00895667 0
-0.0012712 0.007061 0
-0.00111625 0.00537001 0
-0.000952596 0.00389465 0
-0.000780367 0.00264511 0
-0.000600197 0.00163026 0
-0.000414171 0.000856227 0
-0.00022791 0.00032384 0
-5.48442e-05 2.36304e-05 0
7.66011e-05 -7.49698e-05 0
0.000104884 -3.97416e-05 0
0.50086 0.0767927 0
0.0990536 0.183208 0
-0.0394102 0.249203 0
-0.0734967 0.265673 0
-0.0719661 0.257353 0
-0.0606574 0.23955 0
-0.0483931 0.219533 0
-0.0378111 0.200589 0
-0.0294005 0.183926 0
-0.0229597 0.169756 0
-0.0181233 0.15786 0
-0.0145381 0.147874 0
-0.0119106 0.139414 0
-0.0100097 0.132129 0
-0.00865777 0.12572 0
-0.00771907 0.119943 0
-0.00708964 0.114605 0
-0.00668956 0.109553 0
-0.0064569 0.104673 0
-0.00634335 0.0998821 0
-0.00631093 0.0951201 0
-0.00632974 0.0903484 0
-0.00637613 0.0855447 0
-0.00643155 0.0807001 0
-0.00648158 0.0758163 0
-0.00651519 0.070903 0
-0.00652423 0.0659763 0
-0.00650296 0.061057 0
-0.0064476 0.0561687 0
-0.00635605 0.0513371 0
-0.00622755 0.0465886 0
-0.00606237 0.0419501 0
-0.00586154 0.0374477 0
-0.00562663 0.0331066 0
-0.00535951 0.0289509 0
-0.00506218 0.0250034 0
-0.00473654 0.0212854 0
-0.00438437 0.0178167 0
-0.00400716 0.0146161 0
-0.00360614 0.011701 0
-0.00318239 0.00908757 0
-0.00273707 0.00679078 0
-0.00227204 0.00482373 0
-0.00179096 0.00319676 0
-0.00130142 0.00191563 0
-0.000818985 0.000978584 0
-0.000374216 0.000370611 0
-2.25993e-05 5.61069e-05 0
0.000131317 -1.68621e-05 0
0.609996 0.0480353 0
0.195588 0.133952 0
0.0112689 0.20941 0
-0.0581599 0.246415 0
-0.0761802 0.256945 0
-0.0738067 0.253505 0
-0.0644996 0.243278 0
-0.0538785 0.23051 0
-0.0441231 0.217458 0
-0.0359247 0.205173 0
-0.0293546 0.194044 0
-0.0242488 0.184113 0
-0.0203747 0.175261 0
-0.0175006 0.167301 0
-0.0154205 0.160037 0
-0.0139605 0.153286 0
-0.0129779 0.146889 0
-0.0123565 0.140716 0
-0.0120025 0.134665 0
-0.0118401 0.12866 0
-0.0118085 0.122647 0
-0.0118585 0.116593 0
-0.0119509 0.11048 0
-0.0120543 0.104304 0
-0.0121444 0.0980733 0
-0.0122024 0.0918023 0
-0.0122142 0.0855139 0
-0.0121701 0.0792352 0
-0.0120637 0.0729966 0
-0.0118912 0.0668305 0
-0.0116515 0.0607698 0
-0.011345 0.0548478 0
-0.0109735 0.0490968 0
-0.01054 0.0435479 0
-0.0100476 0.0382309 0
-0.0094999 0.0331736 0
-0.00890048 0.0284023 0
-0.00825261 0.0239414 0
-0.00755928 0.0198137 0
-0.00682323 0.0160401 0
-0.00604713 0.01264 0
-0.00523417 0.00963061 0
-0.00438903 0.00702664 0
-0.0035197 0.00483907 0
-0.00264055 0.00307355 0
-0.00177761 0.00172806 0
-0.000977144 0.000787203 0
-0.000316183 0.000220302 0
7.23093e-05 1.28451e-05 0
0.680374 0.030149 0
0.278339 0.0981748 0
0.0694775 0.170975 0
-0.0276188 0.217481 0
-0.0653626 0.240948 0
-0.0747404 0.249449 0
-0.0716121 0.248905 0
-0.0637402 0.243417 0
-0.0547923 0.235558 0
-0.0464008 0.226818 0
-0.0391959 0.217993 0
-0.0333274 0.209459 0
-0.0287261 0.201348 0
-0.0252356 0.193657 0
-0.0226756 0.18632 0
-0.0208709 0.179246 0
-0.019664 0.172341 0
-0.0189184 0.16552 0
-0.0185183 0.158714 0
-0.0183669 0.151869 0
-0.0183839 0.14495 0
-0.0185034 0.137937 0
-0.0186718 0.130825 0
-0.0188458 0.123618 0
-0.0189915 0.116334 0
-0.0190825 0.108994 0
-0.0190994 0.10163 0
-0.0190283 0.0942749 0
-0.0188605 0.0869649 0
-0.0185909 0.0797385 0
-0.0182181 0.072634 0
-0.0177431 0.0656897 0
-0.0171689 0.0589424 0
-0.0164997 0.0524277 0
-0.0157406 0.0461791 0
-0.0148972 0.0402281 0
-0.0139747 0.0346043 0
-0.0129785 0.029335 0
-0.0119135 0.0244454 0
-0.0107843 0.019959 0
-0.00959582 0.0158967 0
-0.00835377 0.0122772 0
-0.00706628 0.00911622 0
-0.00574604 0.00642563 0
-0.00441396 0.00421219 0
-0.00310503 0.00247637 0
-0.00187696 0.00120698 0
-0.000819989 0.000384694 0
-7.92895e-05 4.14529e-05 0
0.729764 0.0191774 0
0.348861 0.0730374 0
0.127785 0.139295 0
0.0111112 0.188274 0
-0.0443748 0.219642 0
-0.0660317 0.236781 0
-0.0706277 0.244231 0
-0.0672608 0.245458 0
-0.0607298 0.24292 0
-0.0534845 0.238225 0
-0.0467029 0.23237 0
-0.0408827 0.225938 0
-0.0361663 0.219248 0
-0.0325183 0.21245 0
-0.0298224 0.2056 0
-0.0279321 0.1987 0
-0.0266979 0.191727 0
-0.025979 0.18465 0
-0.0256496 0.177443 0
-0.0256001 0.170083 0
-0.0257367 0.162561 0
-0.0259807 0.154875 0
-0.026267 0.147036 0
-0.0265427 0.139063 0
-0.0267656 0.130983 0
-0.0269032 0.122829 0
-0.0269313 0.114637 0
-0.026833 0.10645 0
-0.0265976 0.0983101 0
-0.0262197 0.0902601 0
-0.0256979 0.0823434 0
-0.0250342 0.0746021 0
-0.0242332 0.0670768 0
-0.023301 0.0598059 0
-0.0222449 0.0528256 0
-0.0210725 0.0461697 0
-0.0197916 0.0398696 0
-0.0184096 0.0339542 0
-0.0169335 0.0284504 0
-0.0153704 0.0233825 0
-0.0137275 0.0187725 0
-0.0120133 0.0146401 0
-0.0102394 0.011002 0
-0.00842271 0.00787142 0
-0.00658943 0.00525767 0
-0.00478071 0.00316609 0
-0.00306066 0.00159286 0
-0.00152445 0.000533279 0
-0.00031622 6.60217e-05 0
0.765768 0.0125782 0
0.408282 0.0556958 0
0.182767 0.11454 0
0.0526283 0.162641 0
-0.0171759 0.19783 0
-0.0503112 0.220732 0
-0.063052 0.234185 0
-0.0651167 0.240953 0
-0.0620614 0.24317 0
-0.0569698 0.242365 0
-0.0514915 0.239582 0
-0.0464531 0.235502 0
-0.0422155 0.230555 0
-0.0388834 0.225001 0
-0.0364253 0.218989 0
-0.0347434 0.212601 0
-0.0337125 0.205881 0
-0.0332016 0.19885 0
-0.0330852 0.191524 0
-0.0332492 0.183915 0
-0.0335926 0.17604 0
-0.0340286 0.167922 0
-0.0344844 0.159588 0
-0.0348999 0.151074 0
-0.0352272 0.142417 0
-0.0354293 0.133662 0
-0.0354787 0.124856 0
-0.0353567 0.116045 0
-0.0350518 0.10728 0
-0.0345586 0.0986075 0
-0.033877 0.0900758 0
-0.0330105 0.0817301 0
-0.0319659 0.0736135 0
-0.0307516 0.0657665 0
-0.0293775 0.0582269 0
-0.0278538 0.0510298 0
-0.0261907 0.0442073 0
-0.0243981 0.0377892 0
-0.0224856 0.0318025 0
-0.0204624 0.0262721 0
-0.0183383 0.0212204 0
-0.0161243 0.0166677 0
-0.0138349 0.0126317 0
-0.0114902 0.00912783 0
-0.00911964 0.00616905 0
-0.00676746 0.00376701 0
-0.00449912 0.001927 0
-0.00240761 0.000659633 0
-0.000626656 8.59012e-05 0
0.792803 0.00859489 0
0.458336 0.0436214 0
0.233249 0.0954056 0
0.0942943 0.14111 0
0.0136926 0.177382 0
-0.0297777 0.203916 0
-0.0504719 0.221649 0
-0.0583234 0.232725 0
-0.0593494 0.238896 0
-0.0570921 0.241522 0
-0.0535776 0.241601 0
-0.049916 0.239836 0
-0.0466711 0.236709 0
-0.0440866 0.232543 0
-0.042223 0.227554 0
-0.0410407 0.221883 0
-0.0404492 0.215627 0
-0.0403365 0.208855 0
-0.0405856 0.201618 0
-0.0410844 0.193964 0
-0.0417304 0.185936 0
-0.0424334 0.177578 0
-0.0431161 0.168939 0
-0.0437147 0.160068 0
-0.0441777 0.151017 0
-0.0444655 0.141841 0
-0.0445495 0.132595 0
-0.0444101 0.123336 0
-0.0440365 0.114116 0
-0.0434247 0.104991 0
-0.0425763 0.0960106 0
-0.0414975 0.0872232 0
-0.0401976 0.078674 0
-0.0386883 0.0704049 0
-0.0369823 0.0624544 0
-0.0350927 0.0548579 0
-0.0330327 0.0476476 0
-0.0308148 0.040853 0
-0.028451 0.034501 0
-0.0259527 0.0286161 0
-0.023332 0.0232208 0
-0.020602 0.0183358 0
-0.0177791 0.0139802 0
-0.0148851 0.0101715 0
-0.0119508 0.00692732 0
-0.00901993 0.0042661 0
-0.00615517 0.00220269 0
-0.00344189 0.000762209 0
-0.00099744 0.000101335 0
0.813814 0.00614827 0
0.500828 0.0350675 0
0.279078 0.0806143 0
0.134655 0.123352 0
0.0457344 0.159372 0
-0.00621293 0.187653 0
-0.0342847 0.208303 0
-0.0479068 0.222571 0
-0.0532913 0.231874 0
-0.054282 0.237368 0
-0.0531888 0.239955 0
-0.0513528 0.240309 0
-0.0495134 0.238924 0
-0.0480417 0.236152 0
-0.0470874 0.232247 0
-0.0466713 0.227392 0
-0.0467419 0.221723 0
-0.0472114 0.215344 0
-0.0479766 0.208342 0
-0.0489323 0.20079 0
-0.0499788 0.192758 0
-0.0510261 0.18431 0
-0.0519958 0.175513 0
-0.0528229 0.166433 0
-0.0534549 0.157134 0
-0.0538518 0.147682 0
-0.0539851 0.138141 0
-0.0538366 0.128576 0
-0.0533971 0.119045 0
-0.0526652 0.109608 0
-0.0516456 0.100318 0
-0.0503479 0.0912259 0
-0.0487849 0.0823788 0
-0.0469718 0.073819 0
-0.044925 0.0655852 0
-0.042661 0.0577125 0
-0.0401959 0.0502324 0
-0.037545 0.0431735 0
-0.0347227 0.0365618 0
-0.0317427 0.030421 0
-0.0286186 0.0247734 0
-0.025365 0.0196399 0
-0.021999 0.0150406 0
-0.0185427 0.0109958 0
-0.0150257 0.00752732 0
-0.0114889 0.0046606 0
-0.00798836 0.00241948 0
-0.00459809 0.000841799 0
-0.00141571 0.00011286 0
0.830677 0.00460534 0
0.537277 0.0288737 0
0.320556 0.0690697 0
0.173112 0.108708 0
0.0779587 0.143715 0
0.0191455 0.172533 0
-0.0156105 0.195021 0
-0.0347745 0.211581 0
-0.0445732 0.22328 0
-0.0490263 0.231083 0
-0.0506461 0.235778 0
-0.0509537 0.237985 0
-0.0508335 0.238179 0
-0.0507672 0.236719 0
-0.0509856 0.233877 0
-0.0515666 0.22986 0
-0.0524982 0.22483 0
-0.0537185 0.218921 0
-0.0551408 0.212241 0
-0.0566698 0.20489 0
-0.0582114 0.196958 0
-0.0596784 0.18853 0
-0.0609945 0.179687 0
-0.0620953 0.170511 0
-0.0629296 0.161078 0
-0.0634588 0.151466 0
-0.0636566 0.141747 0
-0.0635074 0.131991 0
-0.0630053 0.122266 0
-0.0621529 0.112634 0
-0.0609589 0.103151 0
-0.0594372 0.0938702 0
-0.0576052 0.0848397 0
-0.0554824 0.0761022 0
-0.0530893 0.0676958 0
-0.050446 0.0596546 0
-0.0475721 0.052009 0
-0.0444858 0.044786 0
-0.0412036 0.0380102 0
-0.0377412 0.0317043 0
-0.0341132 0.0258896 0
-0.0303349 0.0205869 0
-0.0264229 0.0158175 0
-0.022398 0.011604 0
-0.0182867 0.00797209 0
-0.0141244 0.00495351 0
-0.00995796 0.00258008 0
-0.00584761 0.000900212 0
-0.00186962 0.000121063 0
0.844585 0.00359941 0
0.568879 0.024283 0
0.358106 0.0599528 0
0.209382 0.096599 0
0.109601 0.130206 0
0.0451021 0.158908 0
0.00472775 0.182239 0
-0.019662 0.200392 0
-0.0338008 0.213874 0
-0.041795 0.223482 0
-0.0462949 0.229894 0
-0.0489575 0.233665 0
-0.0507836 0.235237 0
-0.0523472 0.234958 0
-0.0539494 0.233104 0
-0.0557197 0.229894 0
-0.0576827 0.225507 0
-0.059802 0.220092 0
-0.0620079 0.21378 0
-0.0642163 0.206689 0
-0.0663405 0.198924 0
-0.068298 0.19059 0
-0.070016 0.181781 0
-0.0714331 0.172593 0
-0.0725009 0.163114 0
-0.0731842 0.153431 0
-0.0734602 0.143626 0
-0.0733177 0.133776 0
-0.0727557 0.123952 0
-0.0717817 0.114221 0
-0.0704098 0.104643 0
-0.0686595 0.0952717 0
-0.0665535 0.0861563 0
-0.0641163 0.0773389 0
-0.0613731 0.0688568 0
-0.0583482 0.0607426 0
-0.0550649 0.0530247 0
-0.051544 0.0457283 0
-0.0478046 0.0388761 0
-0.0438635 0.0324889 0
-0.039736 0.0265871 0
-0.035437 0.0211908 0
-0.0309817 0.016322 0
-0.0263878 0.0120049 0
-0.0216771 0.00826886 0
-0.0168774 0.00515058 0
-0.0120247 0.00268856 0
-0.00716355 0.00093955 0
-0.00234858 0.000126476 0
0.856324 0.00291727 0
0.596569 0.0207957 0
0.392188 0.0526472 0
0.243429 0.0865041 0
0.140298 0.118528 0
0.0711431 0.1467 0
0.0258934 0.170302 0
-0.00317638 0.189373 0
-0.0214904 0.204139 0
-0.0330124 0.215116 0
-0.0404694 0.222887 0
-0.045616 0.227939 0
-0.0495439 0.230674 0
-0.0529027 0.231422 0
-0.0560521 0.230451 0
-0.0591661 0.227982 0
-0.062302 0.224203 0
-0.0654461 0.219274 0
-0.0685453 0.213341 0
-0.0715266 0.206534 0
-0.0743112 0.198975 0
-0.0768225 0.190781 0
-0.0789923 0.18206 0
-0.0807635 0.17292 0
-0.0820923 0.16346 0
-0.082948 0.153775 0
-0.0833133 0.143957 0
-0.0831826 0.134087 0
-0.0825611 0.124243 0
-0.0814628 0.114495 0
-0.0799085 0.104904 0
-0.0779241 0.0955279 0
-0.0755386 0.0864131 0
-0.0727825 0.0776021 0
-0.0696861 0.0691304 0
-0.0662785 0.0610288 0
-0.0625867 0.0533234 0
-0.0586346 0.0460368 0
-0.0544432 0.0391892 0
-0.0500303 0.0327994 0
-0.0454114 0.0268859 0
-0.0405999 0.021468 0
-0.0356086 0.0165674 0
-0.0304509 0.0122097 0
-0.0251421 0.00842642 0
-0.0197011 0.00525842 0
-0.0141513 0.00274922 0
-0.00852112 0.000961811 0
-0.00284321 0.000129539 0
0.866418 0.00243457 0
0.621068 0.0180803 0
0.423228 0.0467007 0
0.275316 0.0780025 0
0.16983 0.108383 0
0.0968688 0.135767 0
0.0473851 0.159269 0
0.0141829 0.178739 0
-0.00807859 0.194359 0
-0.0230515 0.206343 0
-0.033477 0.215155 0
-0.041174 0.221226 0
-0.047303 0.224915 0
-0.0525729 0.226526 0
-0.0573916 0.226316 0
-0.0619698 0.224501 0
-0.0663921 0.221271 0
-0.070665 0.216795 0
-0.0747495 0.211224 0
-0.0785831 0.204703 0
-0.0820947 0.197363 0
-0.0852138 0.189332 0
-0.0878777 0.180733 0
-0.0900348 0.171681 0
-0.0916465 0.162286 0
-0.0926885 0.152653 0
-0.0931498 0.142878 0
-0.0930324 0.13305 0
-0.0923488 0.123252 0
-0.0911208 0.113555 0
-0.0893772 0.104025 0
-0.0871515 0.0947172 0
-0.0844798 0.0856793 0
-0.0813995 0.076952 0
-0.0779467 0.0685691 0
-0.0741556 0.0605586 0
-0.0700572 0.0529438 0
-0.0656784 0.0457444 0
-0.0610421 0.0389775 0
-0.0561669 0.0326592 0
-0.0510675 0.0268057 0
-0.0457554 0.0214347 0
-0.0402398 0.0165673 0
-0.0345286 0.0122292 0
-0.0286294 0.00845344 0
-0.022551 0.00528332 0
-0.0163032 0.00276596 0
-0.00989752 0.000968691 0
-0.00334516 0.000130586 0
0.87523 0.00207802 0
0.642932 0.0159146 0
0.451602 0.0417814 0
0.305155 0.0707599 0
0.198091 0.0995044 0
0.122027 0.125947 0
0.0688615 0.149094 0
0.0319166 0.168652 0
0.00611271 0.18468 0
-0.0122179 0.197376 0
-0.0255874 0.20696 0
-0.0358585 0.213813 0
-0.0442452 0.218258 0
-0.0515035 0.220571 0
-0.058079 0.220992 0
-0.0642122 0.219732 0
-0.0700095 0.216978 0
-0.075494 0.212901 0
-0.0806385 0.20766 0
-0.0853894 0.201405 0
-0.0896824 0.194279 0
-0.0934533 0.18642 0
-0.0966449 0.177958 0
-0.0992116 0.169019 0
-0.101122 0.159722 0
-0.102358 0.15018 0
-0.102917 0.140494 0
-0.102809 0.130761 0
-0.102057 0.121064 0
-0.10069 0.11148 0
-0.0987474 0.102074 0
-0.0962706 0.0929013 0
-0.0933043 0.0840095 0
-0.0898931 0.0754372 0
-0.0860798 0.0672155 0
-0.0819041 0.0593693 0
-0.0774012 0.0519185 0
-0.0726011 0.0448792 0
-0.0675284 0.0382652 0
-0.0622022 0.032089 0
-0.0566358 0.0263641 0
-0.0508382 0.0211061 0
-0.044814 0.0163342 0
-0.0385646 0.0120736 0
-0.0320891 0.00835756 0
-0.025385 0.00523065 0
-0.0184478 0.00274201 0
-0.0112717 0.000961506 0
-0.00384691 0.000129855 0
0.883015 0.00180349 0
0.662588 0.0141465 0
0.477627 0.0376433 0
0.333075 0.0645104 0
0.22504 0.091661 0
0.146457 0.117071 0
0.0900891 0.139684 0
0.0497625 0.159102 0
0.0206585 0.175277 0
-0.000787085 0.188349 0
-0.0170399 0.198471 0
-0.0298772 0.205891 0
-0.0405466 0.210905 0
-0.0498397 0.213763 0
-0.0582317 0.214686 0
-0.0659853 0.213874 0
-0.0732242 0.211512 0
-0.0799839 0.20777 0
-0.0862463 0.202811 0
-0.0919648 0.196792 0
-0.0970811 0.189862 0
-0.101536 0.182167 0
-0.10528 0.173847 0
-0.108271 0.165036 0
-0.110487 0.155861 0
-0.111918 0.14644 0
-0.11257 0.136883 0
-0.112463 0.127287 0
-0.11163 0.117742 0
-0.110112 0.108325 0
-0.107957 0.0991012 0
-0.105216 0.0901263 0
-0.101944 0.0814457 0
-0.098194 0.0730953 0
-0.0940149 0.0651033 0
-0.0894528 0.057491 0
-0.0845474 0.0502742 0
-0.0793319 0.0434649 0
-0.0738324 0.0370727 0
-0.0680679 0.0311066 0
-0.0620504 0.0255764 0
-0.0557853 0.0204947 0
-0.0492721 0.0158784 0
-0.042505 0.011751 0
-0.0354735 0.00814498 0
-0.028163 0.00510463 0
-0.0205544 0.00267976 0
-0.0126241 0.000941186 0
-0.00434155 0.000127492 0
0.889955 0.00158373 0
0.680365 0.0126698 0
0.501571 0.0341021 0
0.359202 0.0590429 0
0.250671 0.0846541 0
0.170049 0.108979 0
0.110892 0.130927 0
0.0675085 0.150024 0
0.0353482 0.166142 0
0.0109839 0.179342 0
-0.00805296 0.189779 0
-0.0234229 0.197574 0
-0.0363742 0.202985 0
-0.0477241 0.206237 0
-0.0579688 0.207532 0
-0.0673871 0.20706 0
-0.0761146 0.204999 0
-0.0841954 0.20152 0
-0.0916177 0.196788 0
-0.09834 0.190963 0
-0.104308 0.184201 0
-0.109469 0.176656 0
-0.113777 0.168475 0
-0.117199 0.1598 0
-0.119719 0.150763 0
-0.121337 0.141489 0
-0.122071 0.132093 0
-0.12195 0.122676 0
-0.12102 0.113329 0
-0.119332 0.10413 0
-0.116947 0.0951443 0
-0.113927 0.0864266 0
-0.110336 0.0780193 0
-0.106236 0.0699555 0
-0.101684 0.0622594 0
-0.0967334 0.0549481 0
-0.0914274 0.0480328 0
-0.0858026 0.0415209 0
-0.0798867 0.0354175 0
-0.0736984 0.0297271 0
-0.0672477 0.0244554 0
-0.0605362 0.0196112 0
-0.0535574 0.0152085 0
-0.0462977 0.0112681 0
-0.0387366 0.00782047 0
-0.0308467 0.00490837 0
-0.0225937 0.0025809 0
-0.0139361 0.000908315 0
-0.00482254 0.000123567 0
0.896182 0.00140131 0
0.696517 0.0114085 0
0.523648 0.0310178 0
0.383652 0.0541882 0
0.274992 0.0783154 0
0.192728 0.101523 0
0.131135 0.122708 0
0.0849798 0.141343 0
0.0499794 0.157238 0
0.0228503 0.170391 0
0.00118724 0.180911 0
-0.0166681 0.188916 0
-0.0318835 0.194562 0
-0.0452938 0.198064 0
-0.057409 0.199605 0
-0.0685182 0.199364 0
-0.0787642 0.197512 0
-0.0881958 0.19422 0
-0.0968048 0.189652 0
-0.104553 0.183974 0
-0.111389 0.177348 0
-0.117264 0.169933 0
-0.122137 0.161883 0
-0.125985 0.153346 0
-0.128799 0.144461 0
-0.130589 0.135358 0
-0.131384 0.126154 0
-0.131228 0.116954 0
-0.130177 0.107851 0
-0.128297 0.0989207 0
-0.125661 0.0902289 0
-0.122342 0.0818271 0
-0.118416 0.0737548 0
-0.113954 0.0660411 0
-0.109023 0.0587057 0
-0.10368 0.051761 0
-0.0979746 0.0452132 0
-0.0919472 0.0390644 0
-0.0856262 0.0333146 0
-0.07903 0.0279634 0
-0.0721662 0.023012 0
-0.065032 0.0184648 0
-0.0576149 0.0143317 0
-0.0498927 0.0106303 0
-0.0418343 0.00738766 0
-0.0333992 0.00464406 0
-0.0245374 0.0024465 0
-0.0151897 0.000863201 0
-0.00528355 0.000118097 0
0.901794 0.00124467 0
0.71124 0.0103068 0
0.544034 0.0282816 0
0.406521 0.0498088 0
0.298018 0.0725011 0
0.21444 0.0945685 0
0.150714 0.114913 0
0.102039 0.13297 0
0.0643969 0.148498 0
0.0346533 0.161451 0
0.01048 0.171887 0
-0.00977709 0.179928 0
-0.0272228 0.185657 0
-0.0426815 0.189271 0
-0.0566694 0.190935 0
-0.0694801 0.190816 0
-0.081259 0.18908 0
-0.0920561 0.185894 0
-0.101864 0.181428 0
-0.110645 0.175847 0
-0.118351 0.169321 0
-0.124936 0.162013 0
-0.130365 0.154084 0
-0.134622 0.145688 0
-0.137708 0.136969 0
-0.139646 0.12806 0
-0.140475 0.119081 0
-0.140255 0.110139 0
-0.139054 0.101325 0
-0.136955 0.0927161 0
-0.134041 0.0843741 0
-0.130401 0.0763475 0
-0.126122 0.0686719 0
-0.121285 0.0613717 0
-0.115965 0.0544616 0
-0.110226 0.0479484 0
-0.104124 0.0418327 0
-0.0977011 0.0361111 0
-0.0909876 0.0307781 0
-0.0840009 0.025828 0
-0.0767463 0.0212566 0
-0.0692162 0.0170635 0
-0.0613916 0.0132543 0
-0.0532415 0.00984184 0
-0.0447237 0.00684944 0
-0.0357846 0.0043133 0
-0.0263583 0.00227721 0
-0.0163673 0.000805967 0
-0.00571834 0.000111056 0
0.906862 0.00110581 0
0.724682 0.00932263 0
0.562864 0.0258076 0
0.42789 0.0457912 0
0.319763 0.0670866 0