# vtk DataFile Version 3.0
Malha 2D com triângulos: velocidade e pressão
ASCII
DATASET UNSTRUCTURED_GRID

POINTS 2500 double
0 0 0
1 0 0
1 1 0
0 1 0
0.0204082 0 0
0.0408163 0 0
0.0612245 0 0
0.0816327 0 0
0.102041 0 0
0.122449 0 0
0.142857 0 0
0.163265 0 0
0.183673 0 0
0.204082 0 0
0.22449 0 0
0.244898 0 0
0.265306 0 0
0.285714 0 0
0.306122 0 0
0.326531 0 0
0.346939 0 0
0.367347 0 0
0.387755 0 0
0.408163 0 0
0.428571 0 0
0.44898 0 0
0.469388 0 0
0.489796 0 0
0.510204 0 0
0.530612 0 0
0.55102 0 0
0.571429 0 0
0.591837 0 0
0.612245 0 0
0.632653 0 0
0.653061 0 0
0.673469 0 0
0.693878 0 0
0.714286 0 0
0.734694 0 0
0.755102 0 0
0.77551 0 0
0.795918 0 0
0.816327 0 0
0.836735 0 0
0.857143 0 0
0.877551 0 0
0.897959 0 0
0.918367 0 0
0.938776 0 0
0.959184 0 0
0.979592 0 0
1 0.0204082 0
1 0.0408163 0
1 0.0612245 0
1 0.0816327 0
1 0.102041 0
1 0.122449 0
1 0.142857 0
1 0.163265 0
1 0.183673 0
1 0.204082 0
1 0.22449 0
1 0.244898 0
1 0.265306 0
1 0.285714 0
1 0.306122 0
1 0.326531 0
1 0.346939 0
1 0.367347 0
1 0.387755 0
1 0.408163 0
1 0.428571 0
1 0.44898 0
1 0.469388 0
1 0.489796 0
1 0.510204 0
1 0.530612 0
1 0.55102 0
1 0.571429 0
1 0.591837 0
1 0.612245 0
1 0.632653 0
1 0.653061 0
1 0.673469 0
1 0.693878 0
1 0.714286 0
1 0.734694 0
1 0.755102 0
1 0.77551 0
1 0.795918 0
1 0.816327 0
1 0.836735 0
1 0.857143 0
1 0.877551 0
1 0.897959 0
1 0.918367 0
1 0.938776 0
1 0.959184 0
1 0.979592 0
0.979592 1 0
0.959184 1 0
0.938776 1 0
0.918367 1 0
0.897959 1 0
0.877551 1 0
0.857143 1 0
0.836735 1 0
0.816327 1 0
0.795918 1 0
0.77551 1 0
0.755102 1 0
0.734694 1 0
0.714286 1 0
0.693878 1 0
0.673469 1 0
0.653061 1 0
0.632653 1 0
0.612245 1 0
0.591837 1 0
0.571429 1 0
0.55102 1 0
0.530612 1 0
0.510204 1 0
0.489796 1 0
0.469388 1 0
0.44898 1 0
0.428571 1 0
0.408163 1 0
0.387755 1 0
0.367347 1 0
0.346939 1 0
0.326531 1 0
0.306122 1 0
0.285714 1 0
0.265306 1 0
0.244898 1 0
0.22449 1 0
0.204082 1 0
0.183673 1 0
0.163265 1 0
0.142857 1 0
0.122449 1 0
0.102041 1 0
0.0816327 1 0
0.0612245 1 0
0.0408163 1 0
0.0204082 1 0
0 0.979592 0
0 0.959184 0
0 0.938776 0
0 0.918367 0
0 0.897959 0
0 0.877551 0
0 0.857143 0
0 0.836735 0
0 0.816327 0
0 0.795918 0
0 0.77551 0
0 0.755102 0
0 0.734694 0
0 0.714286 0
0 0.693878 0
0 0.673469 0
0 0.653061 0
0 0.632653 0
0 0.612245 0
0 0.591837 0
0 0.571429 0
0 0.55102 0
0 0.530612 0
0 0.510204 0
0 0.489796 0
0 0.469388 0
0 0.44898 0
0 0.428571 0
0 0.408163 0
0 0.387755 0
0 0.367347 0
0 0.346939 0
0 0.326531 0
0 0.306122 0
0 0.285714 0
0 0.265306 0
0 0.244898 0
0 0.22449 0
0 0.204082 0
0 0.183673 0
0 0.163265 0
0 0.142857 0
0 0.122449 0
0 0.102041 0
0 0.0816327 0
0 0.0612245 0
0 0.0408163 0
0 0.0204082 0
0.0204082 0.979592 0
0.0204082 0.959184 0
0.0204082 0.938776 0
0.0204082 0.918367 0
0.0204082 0.897959 0
0.0204082 0.877551 0
0.0204082 0.857143 0
0.0204082 0.836735 0
0.0204082 0.816327 0
0.0204082 0.795918 0
0.0204082 0.77551 0
0.0204082 0.755102 0
0.0204082 0.734694 0
0.0204082 0.714286 0
0.0204082 0.693878 0
0.0204082 0.673469 0
0.0204082 0.653061 0
0.0204082 0.632653 0
0.0204082 0.612245 0
0.0204082 0.591837 0
0.0204082 0.571429 0
0.0204082 0.55102 0
0.0204082 0.530612 0
0.0204082 0.510204 0
0.0204082 0.489796 0
0.0204082 0.469388 0
0.0204082 0.44898 0
0.0204082 0.428571 0
0.0204082 0.408163 0
0.0204082 0.387755 0
0.0204082 0.367347 0
0.0204082 0.346939 0
0.0204082 0.326531 0
0.0204082 0.306122 0
0.0204082 0.285714 0
0.0204082 0.265306 0
0.0204082 0.244898 0
0.0204082 0.22449 0
0.0204082 0.204082 0
0.0204082 0.183673 0
0.0204082 0.163265 0
0.0204082 0.142857 0
0.0204082 0.122449 0
0.0204082 0.102041 0
0.0204082 0.0816327 0
0.0204082 0.0612245 0
0.0204082 0.0408163 0
0.0204082 0.0204082 0
0.0408163 0.979592 0
0.0408163 0.959184 0
0.0408163 0.938776 0
0.0408163 0.918367 0
0.0408163 0.897959 0
0.0408163 0.877551 0
0.0408163 0.857143 0
0.0408163 0.836735 0
0.0408163 0.816327 0
0.0408163 0.795918 0
0.0408163 0.77551 0
0.0408163 0.755102 0
0.0408163 0.734694 0
0.0408163 0.714286 0
0.0408163 0.693878 0
0.0408163 0.673469 0
0.0408163 0.653061 0
0.0408163 0.632653 0
0.0408163 0.612245 0
0.0408163 0.591837 0
0.0408163 0.571429 0
0.0408163 0.55102 0
0.0408163 0.530612 0
0.0408163 0.510204 0
0.0408163 0.489796 0
0.0408163 0.469388 0
0.0408163 0.44898 0
0.0408163 0.428571 0
0.0408163 0.408163 0
0.0408163 0.387755 0
0.0408163 0.367347 0
0.0408163 0.346939 0
0.0408163 0.326531 0
0.0408163 0.306122 0
0.0408163 0.285714 0
0.0408163 0.265306 0
0.0408163 0.244898 0
0.0408163 0.22449 0
0.0408163 0.204082 0
0.0408163 0.183673 0
0.0408163 0.163265 0
0.0408163 0.142857 0
0.0408163 0.122449 0
0.0408163 0.102041 0
0.0408163 0.0816327 0
0.0408163 0.0612245 0
0.0408163 0.0408163 0
0.0408163 0.0204082 0
0.0612245 0.979592 0
0.0612245 0.959184 0
0.0612245 0.938776 0
0.0612245 0.918367 0
0.0612245 0.897959 0
0.0612245 0.877551 0
0.0612245 0.857143 0
0.0612245 0.836735 0
0.0612245 0.816327 0
0.0612245 0.795918 0
0.0612245 0.77551 0
0.0612245 0.755102 0
0.0612245 0.734694 0
0.0612245 0.714286 0
0.0612245 0.693878 0
0.0612245 0.673469 0
0.0612245 0.653061 0
0.0612245 0.632653 0
0.0612245 0.612245 0
0.0612245 0.591837 0
0.0612245 0.571429 0
0.0612245 0.55102 0
0.0612245 0.530612 0
0.0612245 0.510204 0
0.0612245 0.489796 0
0.0612245 0.469388 0
0.0612245 0.44898 0
0.0612245 0.428571 0
0.0612245 0.408163 0
0.0612245 0.387755 0
0.0612245 0.367347 0
0.0612245 0.346939 0
0.0612245 0.326531 0
0.0612245 0.306122 0
0.0612245 0.285714 0
0.0612245 0.265306 0
0.0612245 0.244898 0
0.0612245 0.22449 0
0.0612245 0.204082 0
0.0612245 0.183673 0
0.0612245 0.163265 0
0.0612245 0.142857 0
0.0612245 0.122449 0
0.0612245 0.102041 0
0.0612245 0.0816327 0
0.0612245 0.0612245 0
0.0612245 0.0408163 0
0.0612245 0.0204082 0
0.0816327 0.979592 0
0.0816327 0.959184 0
0.0816327 0.938776 0
0.0816327 0.918367 0
0.0816327 0.897959 0
0.0816327 0.877551 0
0.0816327 0.857143 0
0.0816327 0.836735 0
0.0816327 0.816327 0
0.0816327 0.795918 0
0.0816327 0.77551 0
0.0816327 0.755102 0
0.0816327 0.734694 0
0.0816327 0.714286 0
0.0816327 0.693878 0
0.0816327 0.673469 0
0.0816327 0.653061 0
0.0816327 0.632653 0
0.0816327 0.612245 0
0.0816327 0.591837 0
0.0816327 0.571429 0
0.0816327 0.55102 0
0.0816327 0.530612 0
0.0816327 0.510204 0
0.0816327 0.489796 0
0.0816327 0.469388 0
0.0816327 0.44898 0
0.0816327 0.428571 0
0.0816327 0.408163 0
0.0816327 0.387755 0
0.0816327 0.367347 0
0.0816327 0.346939 0
0.0816327 0.326531 0
0.0816327 0.306122 0
0.0816327 0.285714 0
0.0816327 0.265306 0
0.0816327 0.244898 0
0.0816327 0.22449 0
0.0816327 0.204082 0
0.0816327 0.183673 0
0.0816327 0.163265 0
0.0816327 0.142857 0
0.0816327 0.122449 0
0.0816327 0.102041 0
0.0816327 0.0816327 0
0.0816327 0.0612245 0
0.0816327 0.0408163 0
0.0816327 0.0204082 0
0.102041 0.979592 0
0.102041 0.959184 0
0.102041 0.938776 0
0.102041 0.918367 0
0.102041 0.897959 0
0.102041 0.877551 0
0.102041 0.857143 0
0.102041 0.836735 0
0.102041 0.816327 0
0.102041 0.795918 0
0.102041 0.77551 0
0.102041 0.755102 0
0.102041 0.734694 0
0.102041 0.714286 0
0.102041 0.693878 0
0.102041 0.673469 0
0.102041 0.653061 0
0.102041 0.632653 0
0.102041 0.612245 0
0.102041 0.591837 0
0.102041 0.571429 0
0.102041 0.55102 0
0.102041 0.530612 0
0.102041 0.510204 0
0.102041 0.489796 0
0.102041 0.469388 0
0.102041 0.44898 0
0.102041 0.428571 0
0.102041 0.408163 0
0.102041 0.387755 0
0.102041 0.367347 0
0.102041 0.346939 0
0.102041 0.326531 0
0.102041 0.306122 0
0.102041 0.285714 0
0.102041 0.265306 0
0.102041 0.244898 0
0.102041 0.22449 0
0.102041 0.204082 0
0.102041 0.183673 0
0.102041 0.163265 0
0.102041 0.142857 0
0.102041 0.122449 0
0.102041 0.102041 0
0.102041 0.0816327 0
0.102041 0.0612245 0
0.102041 0.0408163 0
0.102041 0.0204082 0
0.122449 0.979592 0
0.122449 0.959184 0
0.122449 0.938776 0
0.122449 0.918367 0
0.122449 0.897959 0
0.122449 0.877551 0
0.122449 0.857143 0
0.122449 0.836735 0
0.122449 0.816327 0
0.122449 0.795918 0
0.122449 0.77551 0
0.122449 0.755102 0
0.122449 0.734694 0
0.122449 0.714286 0
0.122449 0.693878 0
0.122449 0.673469 0
0.122449 0.653061 0
0.122449 0.632653 0
0.122449 0.612245 0
0.122449 0.591837 0
0.122449 0.571429 0
0.122449 0.55102 0
0.122449 0.530612 0
0.122449 0.510204 0
0.122449 0.489796 0
0.122449 0.469388 0
0.122449 0.44898 0
0.122449 0.428571 0
0.122449 0.408163 0
0.122449 0.387755 0
0.122449 0.367347 0
0.122449 0.346939 0
0.122449 0.326531 0
0.122449 0.306122 0
0.122449 0.285714 0
0.122449 0.265306 0
0.122449 0.244898 0
0.122449 0.22449 0
0.122449 0.204082 0
0.122449 0.183673 0
0.122449 0.163265 0
0.122449 0.142857 0
0.122449 0.122449 0
0.122449 0.102041 0
0.122449 0.0816327 0
0.122449 0.0612245 0
0.122449 0.0408163 0
0.122449 0.0204082 0
0.142857 0.979592 0
0.142857 0.959184 0
0.142857 0.938776 0
0.142857 0.918367 0
0.142857 0.897959 0
0.142857 0.877551 0
0.142857 0.857143 0
0.142857 0.836735 0
0.142857 0.816327 0
0.142857 0.795918 0
0.142857 0.77551 0
0.142857 0.755102 0
0.142857 0.734694 0
0.142857 0.714286 0
0.142857 0.693878 0
0.142857 0.673469 0
0.142857 0.653061 0
0.142857 0.632653 0
0.142857 0.612245 0
0.142857 0.591837 0
0.142857 0.571429 0
0.142857 0.55102 0
0.142857 0.530612 0
0.142857 0.510204 0
0.142857 0.489796 0
0.142857 0.469388 0
0.142857 0.44898 0
0.142857 0.428571 0
0.142857 0.408163 0
0.142857 0.387755 0
0.142857 0.367347 0
0.142857 0.346939 0
0.142857 0.326531 0
0.142857 0.306122 0
0.142857 0.285714 0
0.142857 0.265306 0
0.142857 0.244898 0
0.142857 0.22449 0
0.142857 0.204082 0
0.142857 0.183673 0
0.142857 0.163265 0
0.142857 0.142857 0
0.142857 0.122449 0
0.142857 0.102041 0
0.142857 0.0816327 0
0.142857 0.0612245 0
0.142857 0.0408163 0
0.142857 0.0204082 0
0.163265 0.979592 0
0.163265 0.959184 0
0.163265 0.938776 0
0.163265 0.918367 0
0.163265 0.897959 0
0.163265 0.877551 0
0.163265 0.857143 0
0.163265 0.836735 0
0.163265 0.816327 0
0.163265 0.795918 0
0.163265 0.77551 0
0.163265 0.755102 0
0.163265 0.734694 0
0.163265 0.714286 0
0.163265 0.693878 0
0.163265 0.673469 0
0.163265 0.653061 0
0.163265 0.632653 0
0.163265 0.612245 0
0.163265 0.591837 0
0.163265 0.571429 0
0.163265 0.55102 0
[...]
CELL_DATA 2401
VECTORS velocity double
0.257351 0.157458 0
-0.00256068 0.264806 0
-0.0320494 0.206242 0
-0.0251057 0.152021 0
-0.015848 0.115039 0
-0.00959865 0.0899783 0
-0.00593967 0.0728842 0
-0.00385662 0.0608619 0
-0.00265138 0.052055 0
-0.00192653 0.0453446 0
-0.00146865 0.0400511 0
-0.0011644 0.0357509 0
-0.000952618 0.0321713 0
-0.000799165 0.0291307 0
-0.000684178 0.0265039 0
-0.000595554 0.0242023 0
-0.000525593 0.0221612 0
-0.000469204 0.0203328 0
-0.000422904 0.0186808 0
-0.000384247 0.0171773 0
-0.000351477 0.0158006 0
-0.000323311 0.0145333 0
-0.000298798 0.0133616 0
-0.000277229 0.0122743 0
-0.000258066 0.0112621 0
-0.000240903 0.0103172 0
-0.000225425 0.00943325 0
-0.000211391 0.00860447 0
-0.00019861 0.00782605 0
-0.000186927 0.00709372 0
-0.000176214 0.00640373 0
-0.000166356 0.00575277 0
-0.000157247 0.00513793 0
-0.00014878 0.00455671 0
-0.000140841 0.00400702 0
-0.000133303 0.00348723 0
-0.000126016 0.00299618 0
-0.000118804 0.00253332 0
-0.00011145 0.00209876 0
-0.000103692 0.00169339 0
-9.52026e-05 0.00131904 0
-8.55836e-05 0.00097858 0
-7.43467e-05 0.000676113 0
-6.09201e-05 0.00041702 0
-4.4708e-05 0.000207938 0
-2.53604e-05 5.63576e-05 0
-3.59166e-06 -3.08352e-05 0
1.70274e-05 -5.23969e-05 0
2.36808e-05 -2.36062e-05 0
0.340833 0.123107 0
0.000151793 0.250224 0
-0.064155 0.273507 0
-0.0622136 0.255088 0
-0.0478144 0.225331 0
-0.0347692 0.195719 0
-0.0252721 0.169952 0
-0.0187484 0.148535 0
-0.0143039 0.130934 0
-0.0112346 0.116411 0
-0.00906543 0.1043 0
-0.00749152 0.0940653 0
-0.00631933 0.0852968 0
-0.00542475 0.0776868 0
-0.00472669 0.0710038 0
-0.00417094 0.0650729 0
-0.00372038 0.0597606 0
-0.00334902 0.054964 0
-0.00303829 0.0506028 0
-0.00277465 0.0466136 0
-0.00254811 0.0429457 0
-0.00235117 0.0395584 0
-0.00217817 0.0364184 0
-0.00202478 0.0334983 0
-0.00188765 0.030775 0
-0.00176421 0.0282293 0
-0.00165244 0.0258447 0
-0.00155072 0.0236067 0
-0.00145776 0.0215029 0
-0.00137249 0.0195224 0
-0.001294 0.0176555 0
-0.00122147 0.0158936 0
-0.0011541 0.0142293 0
-0.00109112 0.0126562 0
-0.00103169 0.0111689 0
-0.000974897 0.00976331 0
-0.000919709 0.00843659 0
-0.000864929 0.00718739 0
-0.000809172 0.00601604 0
-0.000750831 0.00492476 0
-0.000688066 0.00391792 0
-0.000618817 0.00300219 0
-0.000540879 0.00218659 0
-0.00045212 0.00148236 0
-0.000351022 0.000902248 0
-0.000238002 0.000458984 0
-0.000118391 0.000161526 0
-7.71013e-06 8.41112e-06 0
5.21846e-05 -1.65686e-05 0
0.501643 0.0770295 0
0.100917 0.184326 0
-0.037147 0.251532 0
-0.0714922 0.268996 0
-0.0707846 0.261189 0
-0.0606423 0.24325 0
-0.0496398 0.222357 0
-0.0402225 0.201813 0
-0.0327636 0.18292 0
-0.0270107 0.166028 0
-0.0225934 0.151079 0
-0.0191804 0.137868 0
-0.0165134 0.126156 0
-0.0144005 0.11572 0
-0.0127022 0.106363 0
-0.0113176 0.0979216 0
-0.0101728 0.0902616 0
-0.00921364 0.0832722 0
-0.00839993 0.0768628 0
-0.00770145 0.0709595 0
-0.00709528 0.065501 0
-0.00656389 0.0604366 0
-0.00609377 0.0557239 0
-0.00567445 0.0513273 0
-0.00529773 0.0472163 0
-0.00495717 0.0433648 0
-0.00464767 0.0397502 0
-0.00436514 0.0363528 0
-0.00410621 0.0331549 0
-0.00386808 0.0301412 0
-0.0036483 0.0272978 0
-0.00344465 0.0246126 0
-0.00325498 0.0220748 0
-0.00307716 0.0196752 0
-0.0029089 0.0174061 0
-0.0027477 0.0152617 0
-0.00259075 0.0132377 0
-0.00243488 0.0113323 0
-0.00227646 0.00954563 0
-0.0021114 0.0078808 0
-0.00193518 0.00634352 0
-0.00174297 0.0049425 0
-0.00153 0.00368928 0
-0.00129222 0.0025978 0
-0.00102769 0.00168335 0
-0.000739377 0.000960685 0
-0.000440277 0.00043926 0
-0.000161128 0.00011918 0
2.96119e-05 4.43294e-06 0
0.611437 0.0482805 0
0.19853 0.135042 0
0.014629 0.211492 0
-0.0555414 0.249192 0
-0.0750394 0.259752 0
-0.0745921 0.255587 0
-0.0673221 0.243828 0
-0.0585753 0.228767 0
-0.0503561 0.212771 0
-0.043272 0.197042 0
-0.0373785 0.182141 0
-0.0325394 0.168284 0
-0.0285736 0.155508 0
-0.0253106 0.14377 0
-0.0226062 0.132988 0
-0.0203448 0.123072 0
-0.0184355 0.113932 0
-0.0168074 0.105486 0
-0.0154054 0.0976606 0
-0.0141865 0.090392 0
-0.0131171 0.0836241 0
-0.0121708 0.0773085 0
-0.011327 0.0714032 0
-0.0105692 0.0658718 0
-0.00988447 0.0606823 0
-0.00926236 0.0558068 0
-0.00869455 0.0512204 0
-0.00817427 0.0469009 0
-0.00769588 0.0428283 0
-0.0072546 0.0389849 0
-0.00684619 0.0353545 0
-0.00646677 0.0319228 0
-0.00611255 0.028677 0
-0.00577966 0.0256063 0
-0.00546401 0.0227012 0
-0.00516111 0.0199547 0
-0.00486594 0.0173618 0
-0.00457285 0.0149198 0
-0.00427548 0.0126289 0
-0.00396677 0.0104924 0
-0.00363911 0.00851632 0
-0.00328461 0.00671033 0
-0.00289576 0.00508692 0
-0.00246667 0.00366107 0
-0.00199515 0.00244922 0
-0.0014865 0.00146765 0
-0.000959826 0.000727707 0
-0.000456287 0.000235649 0
-5.83026e-05 2.61391e-05 0
0.682396 0.0303523 0
0.282127 0.0990297 0
0.0734323 0.172464 0
-0.0249012 0.21911 0
-0.0648724 0.242 0
-0.076993 0.249106 0
-0.0766977 0.246343 0
-0.0714058 0.237883 0
-0.0645605 0.226428 0
-0.0576829 0.213628 0
-0.0513794 0.200458 0
-0.0458331 0.187468 0
-0.0410425 0.174954 0
-0.0369336 0.163059 0
-0.0334117 0.151835 0
-0.0303841 0.141289 0
-0.0277681 0.131398 0
-0.0254935 0.122128 0
-0.023502 0.113439 0
-0.0217459 0.10529 0
-0.0201863 0.0976425 0
-0.0187919 0.0904583 0
-0.0175371 0.0837036 0
-0.0164016 0.0773473 0
-0.0153686 0.0713609 0
-0.0144247 0.0657182 0
-0.013559 0.0603955 0
-0.0127623 0.0553709 0
-0.0120269 0.0506245 0
-0.0113464 0.0461378 0
-0.0107147 0.0418941 0
-0.0101262 0.0378781 0
-0.00957539 0.0340762 0
-0.00905667 0.0304765 0
-0.00856392 0.0270689 0
-0.00809047 0.0238454 0
-0.00762886 0.0208003 0
-0.00717073 0.0179308 0
-0.00670677 0.0152364 0
-0.00622674 0.0127202 0
-0.00571974 0.0103885 0
-0.00517469 0.00825075 0
-0.0045813 0.00631976 0
-0.00393161 0.0046109 0
-0.00322269 0.00314152 0
-0.00246078 0.00192999 0
-0.00166775 0.000991234 0
-0.000888729 0.00034036 0
-0.000208034 4.46292e-05 0
0.732181 0.0193014 0
0.353146 0.0735084 0
0.131872 0.139912 0
0.0133397 0.188393 0
-0.0451928 0.218536 0
-0.0704329 0.233592 0
-0.0786477 0.238154 0
-0.0785348 0.235777 0
-0.0746276 0.229056 0
-0.0692438 0.219773 0
-0.0635329 0.209104 0
-0.0580346 0.197809 0
-0.0529745 0.186369 0
-0.0484214 0.175076 0
-0.0443681 0.164107 0
-0.0407748 0.153558 0
-0.0375898 0.143478 0
-0.0347606 0.133885 0
-0.0322379 0.124781 0
-0.0299786 0.116153 0
-0.0279452 0.107986 0
-0.026106 0.100259 0
-0.0244346 0.0929494 0
-0.0229089 0.0860365 0
-0.0215108 0.0794982 0
-0.0202251 0.0733134 0
-0.0190394 0.0674618 0
-0.017943 0.0619242 0
-0.0169269 0.0566821 0
-0.015983 0.0517182 0
-0.015104 0.0470162 0
-0.0142829 0.042561 0
-0.0135125 0.0383391 0
-0.0127854 0.0343381 0
-0.0120936 0.0305477 0
-0.0114282 0.0269596 0
-0.0107793 0.0235676 0
-0.0101356 0.0203683 0
-0.00948492 0.0173611 0
-0.0088137 0.0145486 0
-0.00810771 0.0119366 0
-0.00735256 0.00953446 0
-0.0065349 0.00735489 0
-0.00564427 0.00541359 0
-0.00467592 0.00372907 0
-0.003635 0.00232248 0
-0.00254248 0.00121343 0
-0.00144152 0.000426698 0
-0.000409539 5.89881e-05 0
0.768336 0.0126107 0
0.412613 0.0557291 0
0.186403 0.114185 0
0.0536587 0.161184 0
-0.0199767 0.194449 0
-0.0575233 0.214579 0
-0.0746332 0.224512 0
-0.0805758 0.227099 0
-0.0806064 0.224618 0
-0.07766 0.218774 0
-0.0733571 0.210792 0
-0.0685764 0.20153 0
-0.0637799 0.191576 0
-0.0591978 0.181328 0
-0.0549318 0.171054 0
-0.0510141 0.160925 0
-0.0474409 0.151054 0
-0.0441905 0.141509 0
-0.041234 0.13233 0
-0.0385407 0.123537 0
-0.0360812 0.115137 0
-0.0338287 0.107129 0
-0.0317594 0.0995066 0
-0.029853 0.0922594 0
-0.0280919 0.0853746 0
-0.0264612 0.0788378 0
-0.0249482 0.0726342 0
-0.0235421 0.0667481 0
-0.0222331 0.0611641 0
-0.0210124 0.0558669 0
-0.0198719 0.0508417 0
-0.0188034 0.0460743 0
-0.0177984 0.0415517 0
-0.0168481 0.0372619 0
-0.0159425 0.0331946 0
-0.0150706 0.0293414 0
-0.0142202 0.0256958 0
-0.0133773 0.022254 0
-0.0125266 0.019015 0
-0.0116514 0.0159809 0
-0.0107339 0.0131571 0
-0.00975645 0.0105527 0
-0.00870215 0.00818028 0
-0.00755735 0.00605597 0
-0.00631421 0.00419977 0
-0.00497459 0.00263599 0
-0.00355522 0.00138931 0
-0.00209262 0.000493546 0
-0.000651671 6.94843e-05 0
0.795261 0.00853663 0
0.462238 0.0432069 0
0.235865 0.0940507 0
0.0935151 0.138061 0
0.00816151 0.17181 0
-0.0404507 0.194919 0
-0.066195 0.208526 0
-0.0784817 0.214902 0
-0.0829886 0.215927 0
-0.0830929 0.213133 0
-0.0807923 0.2077 0
-0.0772608 0.2005 0
-0.0731821 0.192174 0
-0.0689473 0.183178 0
-0.0647737 0.17384 0
-0.0607757 0.164389 0
-0.0570068 0.154986 0
-0.0534856 0.145741 0
-0.0502113 0.136729 0
-0.0471725 0.127999 0
-0.0443534 0.119582 0
-0.0417364 0.111497 0
-0.0393043 0.103751 0
-0.0370412 0.0963465 0
-0.0349326 0.089281 0
-0.0329658 0.0825477 0
-0.0311294 0.0761378 0
-0.0294133 0.0700404 0
-0.0278082 0.0642437 0
-0.0263056 0.0587351 0
-0.0248968 0.0535018 0
-0.023573 0.0485311 0
-0.022325 0.0438109 0
-0.0211426 0.0393298 0
-0.0200143 0.0350777 0
-0.0189272 0.0310463 0
-0.0178668 0.027229 0
-0.0168165 0.0236217 0
-0.0157581 0.0202229 0
-0.0146716 0.0170343 0
-0.0135359 0.0140608 0
-0.0123294 0.0113112 0
-0.0110316 0.00879814 0
-0.00962466 0.00653831 0
-0.00809637 0.00455333 0
-0.00644338 0.00287067 0
-0.00467546 0.00151979 0
-0.00281925 0.000542134 0
-0.000923918 7.67068e-05 0
0.815912 0.00600805 0
0.503825 0.0342285 0
0.280113 0.0782962 0
0.131496 0.118778 0
0.036998 0.151704 0
-0.0209533 0.176069 0
-0.0546815 0.192022 0
-0.0732179 0.201126 0
-0.0824055 0.204899 0
-0.0859074 0.204657 0
-0.0860039 0.201477 0
-0.0841118 0.196202 0
-0.0811088 0.189474 0
-0.077536 0.181779 0
-0.0737236 0.173476 0
-0.0698698 0.164834 0
-0.06609 0.156047 0
-0.0624482 0.14726 0
-0.0589765 0.138575 0
-0.0556879 0.130066 0
-0.052584 0.121786 0
-0.0496606 0.113771 0
-0.0469098 0.106043 0
-0.0443229 0.0986174 0
-0.0418908 0.0915004 0
-0.0396045 0.0846936 0
-0.0374557 0.0781944 0
-0.0354362 0.0719971 0
-0.0335384 0.0660938 0
-0.0317544 0.0604749 0
-0.030076 0.0551298 0
-0.0284944 0.0500476 0
-0.0269999 0.0452171 0
-0.0255813 0.040628 0
-0.024226 0.0362704 0
-0.0229194 0.0321362 0
-0.0216449 0.0282185 0
-0.0203835 0.0245132 0
-0.0191141 0.0210182 0
-0.0178135 0.0177348 0
-0.016457 0.0146676 0
-0.0150191 0.0118249 0
-0.013475 0.00921959 0
-0.011802 0.00686896 0
-0.00998236 0.00479618 0
-0.0080059 0.00303153 0
-0.00587348 0.00160852 0
-0.00359981 0.000574541 0
-0.00121697 8.12572e-05 0
0.832191 0.00439694 0
0.538922 0.0276579 0
0.319476 0.0658773 0
0.167024 0.102745 0
0.0654653 0.134162 0
-0.000200764 0.158645 0
-0.041154 0.175979 0
-0.0656302 0.186949 0
-0.0794815 0.192792 0
-0.0865313 0.194602 0
-0.0892594 0.19333 0
-0.0892725 0.189758 0
-0.0876115 0.184508 0
-0.0849496 0.178063 0
-0.0817217 0.170801 0
-0.0782069 0.163009 0
-0.0745824 0.154906 0
-0.0709594 0.146659 0
-0.0674058 0.138395 0
-0.0639616 0.130207 0
-0.0606491 0.122166 0
-0.0574798 0.114323 0
-0.054458 0.106715 0
-0.0515843 0.099367 0
-0.0488567 0.0922953 0
-0.046272 0.0855091 0
-0.043826 0.0790118 0
-0.041514 0.0728029 0
-0.0393306 0.0668781 0
-0.0372697 0.0612311 0
-0.0353242 0.0558535 0
-0.0334857 0.0507361 0
-0.0317446 0.0458689 0
-0.0300893 0.0412422 0
-0.0285062 0.0368467 0
-0.0269792 0.0326742 0
-0.0254898 0.028718 0
-0.0240169 0.0249735 0
-0.0225365 0.0214383 0
-0.0210223 0.0181132 0
-0.0194458 0.0150023 0
-0.0177774 0.0121139 0
-0.0159874 0.00946067 0
-0.0140479 0.00706061 0
-0.0119344 0.00493816 0
-0.00962874 0.00312583 0
-0.00712166 0.00166026 0
-0.00441482 0.000593036 0
-0.00152286 8.3663e-05 0
0.845324 0.00333746 0
0.56877 0.0227464 0
0.354433 0.0559924 0
0.199889 0.0894026 0
0.0929328 0.118983 0
0.0209012 0.142935 0
-0.0264151 0.16089 0
-0.0564081 0.173065 0
-0.0747699 0.180411 0
-0.0853829 0.18382 0
-0.0908572 0.184113 0
-0.0929419 0.181998 0
-0.0928095 0.178056 0
-0.0912468 0.17276 0
-0.0887814 0.166483 0
-0.0857674 0.159523 0
-0.0824412 0.152114 0
-0.0789605 0.144438 0
-0.0754297 0.136638 0
-0.0719175 0.128825 0
-0.0684685 0.121083 0
-0.065112 0.113478 0
-0.0618662 0.106057 0
-0.0587429 0.0988561 0
-0.055749 0.0918994 0
-0.0528882 0.0852034 0
-0.050162 0.0787772 0
-0.0475701 0.0726249 0
-0.0451103 0.066746 0
-0.0427791 0.0611367 0
-0.0405711 0.055791 0
-0.0384791 0.0507011 0
-0.0364938 0.0458582 0
-0.0346035 0.0412532 0
-0.032794 0.0368771 0
-0.0310481 0.0327217 0
-0.0293456 0.0287803 0
-0.0276633 0.0250478 0
-0.0259744 0.0215215 0
-0.0242494 0.0182016 0
-0.0224562 0.0150919 0
-0.0205607 0.0122003 0
-0.0185281 0.0095394 0
-0.0163243 0.00712764 0
-0.0139178 0.00499031 0
-0.0112815 0.00316149 0
-0.00839521 0.00167991 0
-0.00524717 0.000599758 0
-0.00183487 8.43576e-05 0
0.856131 0.00261623 0
0.594359 0.0189991 0
0.385499 0.0480427 0
0.230106 0.0782627 0
0.119058 0.105889 0
0.0417166 0.128982 0
-0.011081 0.146989 0
-0.0461094 0.15987 0
-0.0687415 0.168255 0
-0.0828413 0.172871 0
-0.0910897 0.174415 0
-0.0953357 0.173512 0
-0.0968547 0.170698 0
-0.0965272 0.166418 0
-0.0949614 0.161038 0
-0.0925782 0.154856 0
-0.0896691 0.148113 0
-0.0864362 0.141 0
-0.0830196 0.133673 0
-0.0795171 0.126255 0
-0.0759968 0.118842 0
-0.0725066 0.11151 0
-0.0690804 0.104317 0
-0.0657424 0.0973078 0
-0.0625097 0.0905138 0
-0.0593944 0.0839575 0
-0.0564047 0.0776535 0
-0.0535454 0.0716095 0
-0.0508189 0.0658285 0
-0.0482247 0.0603092 0
-0.0457598 0.0550473 0
-0.0434186 0.0500363 0
-0.0411926 0.0452683 0
-0.0390705 0.0407346 0
-0.0370376 0.0364264 0
-0.035076 0.0323355 0
-0.0331638 0.0284548 0
-0.0312758 0.0247789 0
-0.0293827 0.0213045 0
-0.0274518 0.0180314 0
-0.025447 0.0149628 0
-0.0233298 0.0121061 0
-0.0210599 0.00947386 0
-0.0185968 0.00708442 0
-0.0159012 0.00496355 0
-0.0129368 0.00314612 0
-0.00967225 0.001672 0
-0.0060821 0.000596584 0
-0.00214741 8.36835e-05 0
0.865174 0.00210752 0
0.616469 0.0160834 0
0.413165 0.0415775 0
0.257806 0.0689041 0
0.143704 0.0945711 0
0.0619724 0.116612 0
0.0044828 0.134291 0
-0.0351406 0.147535 0
-0.0617729 0.156601 0
-0.0792305 0.162106 0
-0.0902226 0.164628 0
-0.0966643 0.164712 0
-0.0999081 0.162845 0
-0.10091 0.159443 0
-0.100345 0.154856 0
-0.0986948 0.149377 0
-0.0962989 0.143247 0
-0.0934011 0.136665 0
-0.090176 0.129794 0
-0.0867498 0.122766 0
-0.0832144 0.115687 0
-0.0796372 0.108642 0
-0.0760687 0.101698 0
-0.0725467 0.0949067 0
-0.0690995 0.0883057 0
-0.0657488 0.0819231 0
-0.0625102 0.0757775 0
-0.0593952 0.0698805 0
-0.0564107 0.0642375 0
-0.0535604 0.0588493 0
-0.0508441 0.0537129 0
-0.0482582 0.0488228 0
-0.0457956 0.0441717 0
-0.0434454 0.039751 0
-0.041193 0.035552 0
-0.0390196 0.0315662 0
-0.0369022 0.0277861 0
-0.0348135 0.0242057 0
-0.0327218 0.0208212 0
-0.0305911 0.0176317 0
-0.0283814 0.0146397 0
-0.0260496 0.0118521 0
-0.0235497 0.00928091 0
-0.0208345 0.00694428 0
-0.0178568 0.00486786 0
-0.0145708 0.00308656 0
-0.0109337 0.0016405 0
-0.00690694 0.00058508 0
-0.00245581 8.1904e-05 0
0.872848 0.00173658 0
0.635715 0.0137749 0
0.437871 0.0362658 0
0.283162 0.0609996 0
0.166818 0.0847838 0
0.081447 0.105688 0
0.0198767 0.122853 0
-0.0238254 0.136138 0
-0.0541652 0.145609 0
-0.074821 0.151741 0
-0.0884894 0.155006 0
-0.0971225 0.155876 0
-0.102128 0.154788 0
-0.104519 0.152125 0
-0.10503 0.14822 0
-0.10419 0.143357 0
-0.102382 0.137774 0
-0.0998903 0.131674 0
-0.0969199 0.125225 0
-0.0936249 0.118566 0
-0.090121 0.111811 0
-0.0864956 0.105052 0
-0.0828163 0.0983624 0
-0.0791354 0.0918006 0
-0.0754936 0.08541 0
-0.0719228 0.0792228 0
-0.0684473 0.0732613 0
-0.0650856 0.0675396 0
-0.0618503 0.0620653 0
-0.0587494 0.0568406 0
-0.0557863 0.0518635 0
-0.0529598 0.047129 0
-0.0502645 0.0426299 0
-0.0476902 0.0383577 0
-0.0452224 0.0343033 0
-0.0428418 0.0304578 0
-0.0405242 0.0268131 0
-0.0382406 0.0233624 0
-0.0359566 0.0201014 0
-0.0336332 0.0170281 0
-0.0312266 0.0141445 0
-0.0286886 0.0114565 0
-0.0259676 0.00897552 0
-0.0230098 0.00671899 0
-0.0197596 0.00471193 0
-0.016162 0.00298866 0
-0.0121629 0.00158871 0
-0.00771083 0.000566503 0
-0.00275614 7.92145e-05 0
0.879439 0.00145783 0
0.652586 0.0119181 0
0.460005 0.0318585 0
0.306373 0.0542809 0
0.188428 0.0762901 0
0.100053 0.0960252 0
0.0349307 0.112566 0
-0.0124053 0.125685 0
-0.0461634 0.13535 0
-0.0698401 0.141893 0
-0.0860928 0.145701 0
-0.0968858 0.147181 0
-0.103662 0.146717 0
-0.10748 0.144663 0
-0.109116 0.14133 0
-0.109143 0.136991 0
-0.107983 0.131883 0
-0.105951 0.126207 0
-0.103285 0.120136 0
-0.100165 0.113813 0
-0.0967296 0.107359 0
-0.0930862 0.100873 0
-0.0893203 0.0944335 0
-0.0854995 0.0881037 0
-0.0816776 0.0819316 0
-0.0778978 0.075953 0
-0.0741936 0.0701929 0
-0.0705913 0.0646675 0
-0.0671098 0.0593858 0
-0.0637622 0.0543507 0
-0.0605557 0.0495607 0
-0.0574918 0.0450109 0
-0.0545669 0.0406939 0
-0.051772 0.0366007 0
-0.0490929 0.0327218 0
-0.0465098 0.0290474 0
-0.0439975 0.0255688 0
-0.0415251 0.0222783 0
-0.039056 0.0191706 0
-0.0365479 0.0162429 0
-0.033953 0.0134961 0
-0.0312185 0.0109352 0
-0.0282871 0.00857052 0
-0.025098 0.00641851 0
-0.0215878 0.00450307 0
-0.0176919 0.00285725 0
-0.0133454 0.0015193 0
-0.00848439 0.000541833 0
-0.00304507 7.57556e-05 0
0.885157 0.00124268 0
0.66747 0.0104031 0
0.479902 0.0281662 0
0.327634 0.0485318 0
0.208591 0.0688858 0
0.117739 0.0874571 0
0.0495282 0.103303 0
-0.00104177 0.116112 0
-0.0379538 0.12582 0
-0.0644724 0.132603 0
-0.0832048 0.136793 0
-0.0961094 0.138729 0
-0.104648 0.138752 0
-0.109909 0.137184 0
-0.112704 0.134317 0
-0.113638 0.130413 0
-0.113168 0.125703 0
-0.111639 0.120388 0
-0.109315 0.114644 0
-0.106402 0.108618 0
-0.103062 0.102437 0
-0.0994221 0.0962034 0
-0.0955862 0.0900021 0
-0.0916378 0.0838998 0
-0.0876446 0.0779482 0
-0.0836617 0.0721857 0
-0.079733 0.0666392 0
-0.0758928 0.0613261 0
-0.0721672 0.056256 0
-0.0685745 0.0514322 0
-0.0651261 0.0468531 0
-0.0618266 0.0425132 0
-0.0586746 0.0384046 0
-0.0556622 0.0345174 0
-0.0527756 0.0308414 0
-0.0499947 0.0273658 0
-0.0472933 0.0240808 0
-0.0446387 0.0209778 0
-0.0419919 0.0180504 0
-0.0393077 0.0152947 0
-0.0365342 0.0127104 0
-0.0336141 0.0103014 0
-0.0304842 0.00807659 0
-0.0270771 0.00605109 0
-0.0233216 0.00424722 0
-0.0191438 0.00269619 0
-0.0144684 0.00143435 0
-0.0092194 0.000511806 0
-0.00331969 7.16241e-05 0
0.890163 0.0010727 0
0.680677 0.00915079 0
0.497846 0.0250449 0
0.347127 0.0435801 0
0.22738 0.0624029 0
0.134486 0.0798432 0
0.0635848 0.0949585 0
0.0101314 0.10736 0
-0.0296772 0.116984 0
-0.0588647 0.123874 0
-0.0799697 0.128309 0
-0.0949288 0.13057 0
-0.105209 0.130957 0
-0.111917 0.129762 0
-0.115889 0.127261 0
-0.117759 0.123702 0
-0.118009 0.119313 0
-0.117011 0.114296 0
-0.115056 0.108825 0
-0.112373 0.103054 0
-0.109145 0.0971123 0
-0.105522 0.091108 0
-0.101625 0.0851294 0
-0.0975538 0.0792468 0
-0.0933921 0.0735143 0
-0.0892071 0.067972 0
-0.0850534 0.0626481 0
-0.0809745 0.0575605 0
-0.0770037 0.0527185 0
-0.0731651 0.0481252 0
-0.0694747 0.0437781 0
-0.0659403 0.0396707 0
-0.0625626 0.0357942 0
-0.0593351 0.0321377 0
-0.0562445 0.0286894 0
-0.0532703 0.0254378 0
-0.0503854 0.0223716 0
-0.0475554 0.0194811 0
-0.044739 0.0167586 0
-0.0418878 0.014199 0
-0.0389463 0.0118007 0
-0.0358523 0.00956602 0
-0.0325373 0.0075025 0
-0.0289272 0.00562341 0
-0.0249433 0.00394911 0
-0.0205029 0.00250848 0
-0.0155204 0.00133544 0
-0.00990854 0.000476963 0
-0.00357742 6.6883e-05 0
0.894577 0.000935535 0
0.692458 0.00810274 0
0.514079 0.0223822 0
0.365021 0.0392858 0
0.244877 0.0566978 0
0.150305 0.0730538 0
0.0770537 0.0874245 0
0.0209931 0.0993729 0
-0.0214525 0.108795 0
-0.0531413 0.115683 0
-0.0765121 0.120245 0
-0.093464 0.122714 0
-0.105457 0.123352 0
-0.113607 0.122428 0
-0.118765 0.120196 0
-0.121587 0.116898 0
-0.122576 0.112757 0
-0.122129 0.107971 0
-0.120558 0.10272 0
-0.118116 0.0971602 0
-0.115009 0.0914242 0
-0.111406 0.0856243 0
-0.107448 0.0798519 0
-0.103253 0.0741797 0
-0.0989197 0.0686638 0
-0.0945281 0.0633451 0
-0.0901447 0.0582519 0
-0.0858225 0.0534017 0
-0.0816025 0.0488033 0
-0.077515 0.0444584 0
-0.0735805 0.0403631 0
-0.0698104 0.0365098 0
-0.0662076 0.0328878 0
-0.0627669 0.0294849 0
-0.0594754 0.0262879 0
-0.0563125 0.0232836 0
-0.0532498 0.0204596 0
-0.0502515 0.0178047 0
-0.0472739 0.0153099 0
-0.0442655 0.0129686 0
-0.0411671 0.0107777 0
-0.0379121 0.00873812 0