# vtk DataFile Version 3.0
Malha 2D com triângulos: velocidade e pressão
ASCII
DATASET UNSTRUCTURED_GRID

POINTS 2500 double
0 0 0
1 0 0
1 1 0
0 1 0
0.0204082 0 0
0.0408163 0 0
0.0612245 0 0
0.0816327 0 0
0.102041 0 0
0.122449 0 0
0.142857 0 0
0.163265 0 0
0.183673 0 0
0.204082 0 0
0.22449 0 0
0.244898 0 0
0.265306 0 0
0.285714 0 0
0.306122 0 0
0.326531 0 0
0.346939 0 0
0.367347 0 0
0.387755 0 0
0.408163 0 0
0.428571 0 0
0.44898 0 0
0.469388 0 0
0.489796 0 0
0.510204 0 0
0.530612 0 0
0.55102 0 0
0.571429 0 0
0.591837 0 0
0.612245 0 0
0.632653 0 0
0.653061 0 0
0.673469 0 0
0.693878 0 0
0.714286 0 0
0.734694 0 0
0.755102 0 0
0.77551 0 0
0.795918 0 0
0.816327 0 0
0.836735 0 0
0.857143 0 0
0.877551 0 0
0.897959 0 0
0.918367 0 0
0.938776 0 0
0.959184 0 0
0.979592 0 0
1 0.0204082 0
1 0.0408163 0
1 0.0612245 0
1 0.0816327 0
1 0.102041 0
1 0.122449 0
1 0.142857 0
1 0.163265 0
1 0.183673 0
1 0.204082 0
1 0.22449 0
1 0.244898 0
1 0.265306 0
1 0.285714 0
1 0.306122 0
1 0.326531 0
1 0.346939 0
1 0.367347 0
1 0.387755 0
1 0.408163 0
1 0.428571 0
1 0.44898 0
1 0.469388 0
1 0.489796 0
1 0.510204 0
1 0.530612 0
1 0.55102 0
1 0.571429 0
1 0.591837 0
1 0.612245 0
1 0.632653 0
1 0.653061 0
1 0.673469 0
1 0.693878 0
1 0.714286 0
1 0.734694 0
1 0.755102 0
1 0.77551 0
1 0.795918 0
1 0.816327 0
1 0.836735 0
1 0.857143 0
1 0.877551 0
1 0.897959 0
1 0.918367 0
1 0.938776 0
1 0.959184 0
1 0.979592 0
0.979592 1 0
0.959184 1 0
0.938776 1 0
0.918367 1 0
0.897959 1 0
0.877551 1 0
0.857143 1 0
0.836735 1 0
0.816327 1 0
0.795918 1 0
0.77551 1 0
0.755102 1 0
0.734694 1 0
0.714286 1 0
0.693878 1 0
0.673469 1 0
0.653061 1 0
0.632653 1 0
0.612245 1 0
0.591837 1 0
0.571429 1 0
0.55102 1 0
0.530612 1 0
0.510204 1 0
0.489796 1 0
0.469388 1 0
0.44898 1 0
0.428571 1 0
0.408163 1 0
0.387755 1 0
0.367347 1 0
0.346939 1 0
0.326531 1 0
0.306122 1 0
0.285714 1 0
0.265306 1 0
0.244898 1 0
0.22449 1 0
0.204082 1 0
0.183673 1 0
0.163265 1 0
0.142857 1 0
0.122449 1 0
0.102041 1 0
0.0816327 1 0
0.0612245 1 0
0.0408163 1 0
0.0204082 1 0
0 0.979592 0
0 0.959184 0
0 0.938776 0
0 0.918367 0
0 0.897959 0
0 0.877551 0
0 0.857143 0
0 0.836735 0
0 0.816327 0
0 0.795918 0
0 0.77551 0
0 0.755102 0
0 0.734694 0
0 0.714286 0
0 0.693878 0
0 0.673469 0
0 0.653061 0
0 0.632653 0
0 0.612245 0
0 0.591837 0
0 0.571429 0
0 0.55102 0
0 0.530612 0
0 0.510204 0
0 0.489796 0
0 0.469388 0
0 0.44898 0
0 0.428571 0
0 0.408163 0
0 0.387755 0
0 0.367347 0
0 0.346939 0
0 0.326531 0
0 0.306122 0
0 0.285714 0
0 0.265306 0
0 0.244898 0
0 0.22449 0
0 0.204082 0
0 0.183673 0
0 0.163265 0
0 0.142857 0
0 0.122449 0
0 0.102041 0
0 0.0816327 0
0 0.0612245 0
0 0.0408163 0
0 0.0204082 0
0.0204082 0.979592 0
0.0204082 0.959184 0
0.0204082 0.938776 0
0.0204082 0.918367 0
0.0204082 0.897959 0
0.0204082 0.877551 0
0.0204082 0.857143 0
0.0204082 0.836735 0
0.0204082 0.816327 0
0.0204082 0.795918 0
0.0204082 0.77551 0
0.0204082 0.755102 0
0.0204082 0.734694 0
0.0204082 0.714286 0
0.0204082 0.693878 0
0.0204082 0.673469 0
0.0204082 0.653061 0
0.0204082 0.632653 0
0.0204082 0.612245 0
0.0204082 0.591837 0
0.0204082 0.571429 0
0.0204082 0.55102 0
0.0204082 0.530612 0
0.0204082 0.510204 0
0.0204082 0.489796 0
0.0204082 0.469388 0
0.0204082 0.44898 0
0.0204082 0.428571 0
0.0204082 0.408163 0
0.0204082 0.387755 0
0.0204082 0.367347 0
0.0204082 0.346939 0
0.0204082 0.326531 0
0.0204082 0.306122 0
0.0204082 0.285714 0
0.0204082 0.265306 0
0.0204082 0.244898 0
0.0204082 0.22449 0
0.0204082 0.204082 0
0.0204082 0.183673 0
0.0204082 0.163265 0
0.0204082 0.142857 0
0.0204082 0.122449 0
0.0204082 0.102041 0
0.0204082 0.0816327 0
0.0204082 0.0612245 0
0.0204082 0.0408163 0
0.0204082 0.0204082 0
0.0408163 0.979592 0
0.0408163 0.959184 0
0.0408163 0.938776 0
0.0408163 0.918367 0
0.0408163 0.897959 0
0.0408163 0.877551 0
0.0408163 0.857143 0
0.0408163 0.836735 0
0.0408163 0.816327 0
0.0408163 0.795918 0
0.0408163 0.77551 0
0.0408163 0.755102 0
0.0408163 0.734694 0
0.0408163 0.714286 0
0.0408163 0.693878 0
0.0408163 0.673469 0
0.0408163 0.653061 0
0.0408163 0.632653 0
0.0408163 0.612245 0
0.0408163 0.591837 0
0.0408163 0.571429 0
0.0408163 0.55102 0
0.0408163 0.530612 0
0.0408163 0.510204 0
0.0408163 0.489796 0
0.0408163 0.469388 0
0.0408163 0.44898 0
0.0408163 0.428571 0
0.0408163 0.408163 0
0.0408163 0.387755 0
0.0408163 0.367347 0
0.0408163 0.346939 0
0.0408163 0.326531 0
0.0408163 0.306122 0
0.0408163 0.285714 0
0.0408163 0.265306 0
0.0408163 0.244898 0
0.0408163 0.22449 0
0.0408163 0.204082 0
0.0408163 0.183673 0
0.0408163 0.163265 0
0.0408163 0.142857 0
0.0408163 0.122449 0
0.0408163 0.102041 0
0.0408163 0.0816327 0
0.0408163 0.0612245 0
0.0408163 0.0408163 0
0.0408163 0.0204082 0
0.0612245 0.979592 0
0.0612245 0.959184 0
0.0612245 0.938776 0
0.0612245 0.918367 0
0.0612245 0.897959 0
0.0612245 0.877551 0
0.0612245 0.857143 0
0.0612245 0.836735 0
0.0612245 0.816327 0
0.0612245 0.795918 0
0.0612245 0.77551 0
0.0612245 0.755102 0
0.0612245 0.734694 0
0.0612245 0.714286 0
0.0612245 0.693878 0
0.0612245 0.673469 0
0.0612245 0.653061 0
0.0612245 0.632653 0
0.0612245 0.612245 0
0.0612245 0.591837 0
0.0612245 0.571429 0
0.0612245 0.55102 0
0.0612245 0.530612 0
0.0612245 0.510204 0
0.0612245 0.489796 0
0.0612245 0.469388 0
0.0612245 0.44898 0
0.0612245 0.428571 0
0.0612245 0.408163 0
0.0612245 0.387755 0
0.0612245 0.367347 0
0.0612245 0.346939 0
0.0612245 0.326531 0
0.0612245 0.306122 0
0.0612245 0.285714 0
0.0612245 0.265306 0
0.0612245 0.244898 0
0.0612245 0.22449 0
0.0612245 0.204082 0
0.0612245 0.183673 0
0.0612245 0.163265 0
0.0612245 0.142857 0
0.0612245 0.122449 0
0.0612245 0.102041 0
0.0612245 0.0816327 0
0.0612245 0.0612245 0
0.0612245 0.0408163 0
0.0612245 0.0204082 0
0.0816327 0.979592 0
0.0816327 0.959184 0
0.0816327 0.938776 0
0.0816327 0.918367 0
0.0816327 0.897959 0
0.0816327 0.877551 0
0.0816327 0.857143 0
0.0816327 0.836735 0
0.0816327 0.816327 0
0.0816327 0.795918 0
0.0816327 0.77551 0
0.0816327 0.755102 0
0.0816327 0.734694 0
0.0816327 0.714286 0
0.0816327 0.693878 0
0.0816327 0.673469 0
0.0816327 0.653061 0
0.0816327 0.632653 0
0.0816327 0.612245 0
0.0816327 0.591837 0
0.0816327 0.571429 0
0.0816327 0.55102 0
0.0816327 0.530612 0
0.0816327 0.510204 0
0.0816327 0.489796 0
0.0816327 0.469388 0
0.0816327 0.44898 0
0.0816327 0.428571 0
0.0816327 0.408163 0
0.0816327 0.387755 0
0.0816327 0.367347 0
0.0816327 0.346939 0
0.0816327 0.326531 0
0.0816327 0.306122 0
0.0816327 0.285714 0
0.0816327 0.265306 0
0.0816327 0.244898 0
0.0816327 0.22449 0
0.0816327 0.204082 0
0.0816327 0.183673 0
0.0816327 0.163265 0
0.0816327 0.142857 0
0.0816327 0.122449 0
0.0816327 0.102041 0
0.0816327 0.0816327 0
0.0816327 0.0612245 0
0.0816327 0.0408163 0
0.0816327 0.0204082 0
0.102041 0.979592 0
0.102041 0.959184 0
0.102041 0.938776 0
0.102041 0.918367 0
0.102041 0.897959 0
0.102041 0.877551 0
0.102041 0.857143 0
0.102041 0.836735 0
0.102041 0.816327 0
0.102041 0.795918 0
0.102041 0.77551 0
0.102041 0.755102 0
0.102041 0.734694 0
0.102041 0.714286 0
0.102041 0.693878 0
0.102041 0.673469 0
0.102041 0.653061 0
0.102041 0.632653 0
0.102041 0.612245 0
0.102041 0.591837 0
0.102041 0.571429 0
0.102041 0.55102 0
0.102041 0.530612 0
0.102041 0.510204 0
0.102041 0.489796 0
0.102041 0.469388 0
0.102041 0.44898 0
0.102041 0.428571 0
0.102041 0.408163 0
0.102041 0.387755 0
0.102041 0.367347 0
0.102041 0.346939 0
0.102041 0.326531 0
0.102041 0.306122 0
0.102041 0.285714 0
0.102041 0.265306 0
0.102041 0.244898 0
0.102041 0.22449 0
0.102041 0.204082 0
0.102041 0.183673 0
0.102041 0.163265 0
0.102041 0.142857 0
0.102041 0.122449 0
0.102041 0.102041 0
0.102041 0.0816327 0
0.102041 0.0612245 0
0.102041 0.0408163 0
0.102041 0.0204082 0
0.122449 0.979592 0
0.122449 0.959184 0
0.122449 0.938776 0
0.122449 0.918367 0
0.122449 0.897959 0
0.122449 0.877551 0
0.122449 0.857143 0
0.122449 0.836735 0
0.122449 0.816327 0
0.122449 0.795918 0
0.122449 0.77551 0
0.122449 0.755102 0
0.122449 0.734694 0
0.122449 0.714286 0
0.122449 0.693878 0
0.122449 0.673469 0
0.122449 0.653061 0
0.122449 0.632653 0
0.122449 0.612245 0
0.122449 0.591837 0
0.122449 0.571429 0
0.122449 0.55102 0
0.122449 0.530612 0
0.122449 0.510204 0
0.122449 0.489796 0
0.122449 0.469388 0
0.122449 0.44898 0
0.122449 0.428571 0
0.122449 0.408163 0
0.122449 0.387755 0
0.122449 0.367347 0
0.122449 0.346939 0
0.122449 0.326531 0
0.122449 0.306122 0
0.122449 0.285714 0
0.122449 0.265306 0
0.122449 0.244898 0
0.122449 0.22449 0
0.122449 0.204082 0
0.122449 0.183673 0
0.122449 0.163265 0
0.122449 0.142857 0
0.122449 0.122449 0
0.122449 0.102041 0
0.122449 0.0816327 0
0.122449 0.0612245 0
0.122449 0.0408163 0
0.122449 0.0204082 0
0.142857 0.979592 0
0.142857 0.959184 0
0.142857 0.938776 0
0.142857 0.918367 0
0.142857 0.897959 0
0.142857 0.877551 0
0.142857 0.857143 0
0.142857 0.836735 0
0.142857 0.816327 0
0.142857 0.795918 0
0.142857 0.77551 0
0.142857 0.755102 0
0.142857 0.734694 0
0.142857 0.714286 0
0.142857 0.693878 0
0.142857 0.673469 0
0.142857 0.653061 0
0.142857 0.632653 0
0.142857 0.612245 0
0.142857 0.591837 0
0.142857 0.571429 0
0.142857 0.55102 0
0.142857 0.530612 0
0.142857 0.510204 0
0.142857 0.489796 0
0.142857 0.469388 0
0.142857 0.44898 0
0.142857 0.428571 0
0.142857 0.408163 0
0.142857 0.387755 0
0.142857 0.367347 0
0.142857 0.346939 0
0.142857 0.326531 0
0.142857 0.306122 0
0.142857 0.285714 0
0.142857 0.265306 0
0.142857 0.244898 0
0.142857 0.22449 0
0.142857 0.204082 0
0.142857 0.183673 0
0.142857 0.163265 0
0.142857 0.142857 0
0.142857 0.122449 0
0.142857 0.102041 0
0.142857 0.0816327 0
0.142857 0.0612245 0
0.142857 0.0408163 0
0.142857 0.0204082 0
0.163265 0.979592 0
0.163265 0.959184 0
0.163265 0.938776 0
0.163265 0.918367 0
0.163265 0.897959 0
0.163265 0.877551 0
0.163265 0.857143 0
0.163265 0.836735 0
0.163265 0.816327 0
0.163265 0.795918 0
0.163265 0.77551 0
0.163265 0.755102 0
0.163265 0.734694 0
0.163265 0.714286 0
0.163265 0.693878 0
0.163265 0.673469 0
0.163265 0.653061 0
0.163265 0.632653 0
0.163265 0.612245 0
0.163265 0.591837 0
0.163265 0.571429 0
0.163265 0.55102 0
[...]
CELL_DATA 2401
VECTORS velocity double
0.257355 0.157463 0
-0.00271032 0.264582 0
-0.0323186 0.205447 0
-0.0253947 0.150551 0
-0.0160706 0.112994 0
-0.00971011 0.0876176 0
-0.00593245 0.0705298 0
-0.00374546 0.0588263 0
-0.00246057 0.0505985 0
-0.00168185 0.0446595 0
-0.00119331 0.040261 0
-0.000877507 0.0369178 0
-0.000669017 0.0343056 0
-0.000529917 0.0322017 0
-0.000437206 0.0304499 0
-0.000376295 0.0289386 0
-0.000337544 0.0275874 0
-0.000314347 0.0263381 0
-0.000302036 0.0251489 0
-0.000297219 0.0239902 0
-0.000297373 0.0228416 0
-0.000300586 0.0216897 0
-0.000305395 0.0205267 0
-0.000310674 0.0193491 0
-0.000315558 0.0181568 0
-0.000319397 0.0169522 0
-0.000321718 0.0157396 0
-0.00032219 0.0145247 0
-0.000320607 0.0133143 0
-0.000316865 0.0121155 0
-0.000310941 0.0109359 0
-0.000302873 0.0097829 0
-0.00029275 0.00866387 0
-0.000280687 0.00758582 0
-0.000266818 0.0065554 0
-0.000251276 0.00557882 0
-0.000234181 0.00466186 0
-0.00021563 0.00380994 0
-0.00019568 0.00302814 0
-0.000174339 0.00232135 0
-0.000151552 0.00169433 0
-0.000127193 0.00115183 0
-0.000101066 0.000698697 0
-7.29594e-05 0.000339751 0
-4.281e-05 7.94587e-05 0
-1.12124e-05 -7.91384e-05 0
1.9285e-05 -0.000136804 0
4.15108e-05 -0.000106947 0
3.67125e-05 -3.65254e-05 0
0.340598 0.122953 0
-0.000674817 0.249397 0
-0.0652842 0.27158 0
-0.0633159 0.252095 0
-0.0485765 0.221558 0
-0.0350077 0.191671 0
-0.0249413 0.166243 0
-0.0178997 0.145775 0
-0.0130405 0.129652 0
-0.00967761 0.117019 0
-0.0073328 0.107072 0
-0.00568743 0.0991474 0
-0.00453013 0.0927196 0
-0.00371873 0.0873848 0
-0.00315564 0.0828347 0
-0.00277241 0.0788359 0
-0.00251996 0.0752126 0
-0.00236242 0.0718337 0
-0.00227309 0.0686021 0
-0.00223175 0.0654481 0
-0.00222288 0.0623227 0
-0.00223445 0.0591937 0
-0.00225709 0.0560421 0
-0.00228348 0.0528593 0
-0.00230797 0.0496448 0
-0.00232625 0.0464045 0
-0.00233513 0.0431489 0
-0.00233238 0.0398923 0
-0.00231652 0.036651 0
-0.00228675 0.0334432 0
-0.00224277 0.0302874 0
-0.0021847 0.0272026 0
-0.00211296 0.0242074 0
-0.00202819 0.0213195 0
-0.00193113 0.0185562 0
-0.00182258 0.0159335 0
-0.00170327 0.0134663 0
-0.00157389 0.0111689 0
-0.00143495 0.00905455 0
-0.00128681 0.00713569 0
-0.00112967 0.0054242 0
-0.000963632 0.00393135 0
-0.00078889 0.00266753 0
-0.000606151 0.00164171 0
-0.000417598 0.000860038 0
-0.000228997 0.000323167 0
-5.40135e-05 2.12817e-05 0
7.8527e-05 -7.68691e-05 0
0.000106394 -4.03696e-05 0
0.500847 0.0767891 0
0.0990263 0.183192 0
-0.0394406 0.249172 0
-0.0735201 0.265632 0
-0.0719745 0.25731 0
-0.0606465 0.239517 0
-0.0483623 0.21952 0
-0.0377625 0.200608 0
-0.0293375 0.183988 0
-0.0228863 0.169867 0
-0.0180433 0.158027 0
-0.014455 0.148099 0
-0.0118271 0.139698 0
-0.00992836 0.132471 0
-0.00858052 0.126119 0
-0.00764744 0.120395 0
-0.0070249 0.115104 0
-0.00663272 0.110095 0
-0.00640875 0.105253 0
-0.00630449 0.100492 0
-0.0062818 0.0957536 0
-0.00631057 0.0909982 0
-0.00636699 0.0862037 0
-0.00643233 0.0813611 0
-0.00649199 0.0764722 0
-0.00653478 0.0715471 0
-0.00655237 0.0666024 0
-0.00653887 0.061659 0
-0.00649038 0.0567415 0
-0.00640469 0.051876 0
-0.00628093 0.0470899 0
-0.00611931 0.0424107 0
-0.00592083 0.0378654 0
-0.00568705 0.0334801 0
-0.00541986 0.0292798 0
-0.00512127 0.025288 0
-0.00479328 0.0215269 0
-0.00443773 0.0180171 0
-0.00405621 0.014778 0
-0.00365009 0.0118276 0
-0.00322056 0.00918279 0
-0.00276896 0.00685883 0
-0.00229731 0.00486914 0
-0.00180949 0.00322422 0
-0.00131337 0.00192984 0
-0.000824853 0.000984031 0
-0.000375051 0.000371309 0
-2.02272e-05 5.5262e-05 0
0.000133846 -1.7333e-05 0
0.609974 0.0480319 0
0.195547 0.133938 0
0.0112268 0.209386 0
-0.0581863 0.246387 0
-0.0761805 0.256925 0
-0.0737753 0.253504 0
-0.0644361 0.243308 0
-0.053786 0.230585 0
-0.0440071 0.217587 0
-0.0357915 0.205364 0
-0.0292104 0.194303 0
-0.0240993 0.184443 0
-0.020225 0.175662 0
-0.0173547 0.167773 0
-0.0152819 0.160577 0
-0.0138321 0.153889 0
-0.012862 0.14755 0
-0.0122549 0.141427 0
-0.0119167 0.13542 0
-0.0117713 0.129451 0
-0.0117573 0.123466 0
-0.0118254 0.11743 0
-0.0119359 0.111327 0
-0.0120573 0.105153 0
-0.0121648 0.0989143 0
-0.0122394 0.0926278 0
-0.0122667 0.0863162 0
-0.0122366 0.0800072 0
-0.0121426 0.0737319 0
-0.0119807 0.0675235 0
-0.0117496 0.0614159 0
-0.0114497 0.0554432 0
-0.0110826 0.0496388 0
-0.0106512 0.0440348 0
-0.0101589 0.038662 0
-0.00960911 0.0335493 0
-0.0090056 0.0287239 0
-0.0083518 0.0242111 0
-0.00765087 0.0200345 0
-0.00690576 0.016216 0
-0.00611939 0.0127754 0
-0.00529523 0.00973063 0
-0.0044383 0.00709663 0
-0.00355696 0.00488464 0
-0.00266606 0.00310034 0
-0.00179225 0.0017415 0
-0.000982602 0.000792258 0
-0.000315298 0.000221139 0
7.50517e-05 1.26711e-05 0
0.680346 0.0301466 0
0.27829 0.098166 0
0.0694325 0.170963 0
-0.0276391 0.217475 0
-0.0653444 0.240959 0
-0.0746776 0.24949 0
-0.0715047 0.248989 0
-0.0635929 0.243555 0
-0.0546126 0.235761 0
-0.0461972 0.227093 0
-0.0389772 0.218345 0
-0.0331016 0.20989 0
-0.0285004 0.201859 0
-0.0250161 0.194246 0
-0.0224674 0.186984 0
-0.0206782 0.179979 0
-0.0194904 0.173138 0
-0.0187666 0.166373 0
-0.0183905 0.159613 0
-0.0182648 0.152807 0
-0.0183086 0.145918 0
-0.0184556 0.138924 0
-0.0186515 0.131821 0
-0.0188527 0.124615 0
-0.0190248 0.117321 0
-0.0191409 0.109963 0
-0.0191811 0.102572 0
-0.0191313 0.0951812 0
-0.0189823 0.087829 0
-0.0187288 0.0805541 0
-0.0183692 0.073396 0
-0.0179042 0.0663937 0
-0.0173368 0.0595854 0
-0.0166711 0.0530076 0
-0.0159123 0.0466951 0
-0.0150659 0.0406805 0
-0.0141375 0.0349943 0
-0.0131327 0.0296649 0
-0.0120564 0.0247186 0
-0.0109138 0.0201795 0
-0.00970995 0.0160694 0
-0.00845117 0.0124075 0
-0.00714603 0.00921019 0
-0.00580778 0.00648937 0
-0.00445804 0.00425197 0
-0.00313263 0.0024983 0
-0.00189036 0.00121676 0
-0.000822903 0.00038737 0
-7.73404e-05 4.15981e-05 0
0.729732 0.0191764 0
0.348809 0.0730353 0
0.127745 0.139298 0
0.0111074 0.188292 0
-0.0443276 0.219687 0
-0.0659269 0.236868 0
-0.0704664 0.24437 0
-0.0670492 0.245661 0
-0.0604776 0.243195 0
-0.0532025 0.238579 0
-0.0464023 0.232807 0
-0.0405739 0.226461 0
-0.0358586 0.219855 0
-0.0322196 0.213139 0
-0.0295396 0.206368 0
-0.0276709 0.19954 0
-0.0264629 0.192633 0
-0.0257741 0.185615 0
-0.0254778 0.178457 0
-0.0254635 0.171137 0
-0.0256368 0.163643 0
-0.0259184 0.155977 0
-0.0262424 0.148147 0
-0.0265553 0.140173 0
-0.0268142 0.132081 0
-0.026986 0.123905 0
-0.027046 0.115684 0
-0.0269768 0.107458 0
-0.0267673 0.0992721 0
-0.0264114 0.0911694 0
-0.0259077 0.0831945 0
-0.0252579 0.0753904 0
-0.0244663 0.0677988 0
-0.0235392 0.0604595 0
-0.0224838 0.0534096 0
-0.0213078 0.0466842 0
-0.0200191 0.0403158 0
-0.0186256 0.0343345 0
-0.0171345 0.0287679 0
-0.0155533 0.0236415 0
-0.0138898 0.018978 0
-0.0121531 0.0147977 0
-0.0103553 0.0111179 0
-0.00851414 0.00795203 0
-0.00665675 0.00530968 0
-0.00482533 0.00319609 0
-0.00308531 0.00160716 0
-0.00153348 0.000537694 0
-0.000316048 6.6456e-05 0
0.765738 0.0125787 0
0.408236 0.0557006 0
0.182741 0.114558 0
0.0526507 0.162684 0
-0.0170899 0.19791 0
-0.0501551 0.220862 0
-0.0628283 0.234376 0
-0.0648334 0.241215 0
-0.0617302 0.24351 0
-0.056604 0.242789 0
-0.0511045 0.240092 0
-0.0460574 0.236101 0
-0.0418226 0.231241 0
-0.038503 0.225771 0
-0.0360658 0.219839 0
-0.034412 0.213525 0
-0.033415 0.206871 0
-0.0329428 0.199898 0
-0.0328689 0.192621 0
-0.0330781 0.185051 0
-0.0334686 0.177205 0
-0.0339527 0.169106 0
-0.0344566 0.16078 0
-0.0349197 0.152263 0
-0.035293 0.143593 0
-0.0355389 0.134816 0
-0.0356291 0.125977 0
-0.0355443 0.117126 0
-0.0352724 0.108312 0
-0.0348075 0.0995846 0
-0.0341492 0.0909918 0
-0.0333007 0.0825803 0
-0.0322685 0.0743943 0
-0.0310611 0.0664755 0
-0.0296882 0.0588628 0
-0.0281603 0.0515925 0
-0.0264878 0.0446979 0
-0.0246809 0.0382097 0
-0.0227497 0.0321562 0
-0.0207039 0.0265629 0
-0.0185538 0.0214534 0
-0.0163113 0.0168485 0
-0.0139916 0.0127665 0
-0.0116157 0.0092232 0
-0.00921432 0.00623186 0
-0.00683276 0.00380417 0
-0.00453802 0.00194529 0
-0.00242486 0.000665565 0
-0.000629139 8.65759e-05 0
0.792777 0.00859673 0
0.458303 0.0436328 0
0.233246 0.0954377 0
0.0943516 0.141175 0
0.013828 0.177491 0
-0.0295622 0.204083 0
-0.050179 0.221885 0
-0.0579629 0.233036 0
-0.058935 0.23929 0
-0.0566393 0.242003 0
-0.0531019 0.24217 0
-0.049432 0.240494 0
-0.046192 0.237454 0
-0.043624 0.233373 0
-0.0417868 0.228462 0
-0.0406393 0.222865 0
-0.0400897 0.216674 0
-0.0400244 0.209959 0
-0.0403255 0.20277 0
-0.0408796 0.195154 0
-0.0415831 0.187154 0
-0.0423448 0.178814 0
-0.0430863 0.170182 0
-0.0437428 0.161307 0
-0.044262 0.152242 0
-0.0446032 0.143043 0
-0.0447369 0.133764 0
-0.044643 0.124463 0
-0.0443098 0.115194 0
-0.0437327 0.106012 0
-0.0429129 0.0969697 0
-0.0418563 0.0881152 0
-0.040572 0.0794951 0
-0.0390715 0.0711526 0
-0.0373674 0.0631272 0
-0.0354733 0.0554555 0
-0.0334024 0.0481709 0
-0.0311677 0.0413039 0
-0.0287816 0.0348824 0
-0.0262563 0.0289319 0
-0.0236045 0.0234758 0
-0.0208401 0.0185354 0
-0.0179804 0.0141305 0
-0.0150485 0.0102791 0
-0.0120763 0.00699914 0
-0.00910904 0.00430926 0
-0.00621093 0.00222433 0
-0.0034692 0.000769392 0
-0.00100331 0.0001022 0
0.813796 0.00615122 0
0.500814 0.0350846 0
0.279105 0.0806591 0
0.134754 0.123436 0
0.0459231 0.159507 0
-0.00592937 0.187848 0
-0.0339169 0.208572 0
-0.0474652 0.222921 0
-0.0527913 0.232308 0
-0.053741 0.237889 0
-0.0526241 0.240565 0
-0.0507808 0.241007 0
-0.048949 0.239708 0
-0.047498 0.237018 0
-0.0465758 0.233191 0
-0.0462013 0.228407 0
-0.0463217 0.222802 0
-0.0468474 0.216479 0
-0.047674 0.209523 0
-0.048695 0.202008 0
-0.0498094 0.194002 0
-0.0509257 0.185571 0
-0.0519648 0.176781 0
-0.0528602 0.167696 0
-0.0535583 0.158383 0
-0.0540181 0.148907 0
-0.0542101 0.139333 0
-0.0541152 0.129726 0
-0.0537235 0.120146 0
-0.0530328 0.110652 0
-0.0520472 0.1013 0
-0.050776 0.0921415 0
-0.0492318 0.0832235 0
-0.0474296 0.0745902 0
-0.0453858 0.0662813 0
-0.043117 0.0583328 0
-0.0406398 0.0507777 0
-0.0379698 0.0436453 0
-0.0351219 0.0369628 0
-0.0321107 0.030755 0
-0.0289504 0.0250447 0
-0.0256566 0.0198537 0
-0.0222477 0.0152028 0
-0.0187467 0.011113 0
-0.0151848 0.00760626 0
-0.0116044 0.00470851 0
-0.0080631 0.00244376 0
-0.00463694 0.000849964 0
-0.00142555 0.000113869 0
0.83067 0.00460909 0
0.537287 0.0288952 0
0.320619 0.0691248 0
0.173259 0.108808 0
0.0782057 0.14387 0
0.0194963 0.172752 0
-0.0151655 0.195315 0
-0.0342501 0.211957 0
-0.0439874 0.223741 0
-0.0483977 0.23163 0
-0.0499937 0.236411 0
-0.0502956 0.238704 0
-0.050186 0.238982 0
-0.0501448 0.237601 0
-0.0504009 0.234834 0
-0.0510303 0.230885 0
-0.0520194 0.225917 0
-0.0533044 0.22006 0
-0.0547973 0.213426 0
-0.0564012 0.20611 0
-0.0580206 0.198204 0
-0.059567 0.189792 0
-0.0609626 0.180955 0
-0.0621418 0.171774 0
-0.063052 0.162328 0
-0.0636535 0.152692 0
-0.0639187 0.14294 0
-0.0638312 0.133145 0
-0.0633842 0.123371 0
-0.0625793 0.113683 0
-0.0614247 0.10414 0
-0.0599339 0.0947933 0
-0.058124 0.0856931 0
-0.0560144 0.0768831 0
-0.0536253 0.0684024 0
-0.0509774 0.0602863 0
-0.0480904 0.0525661 0
-0.0449828 0.0452699 0
-0.0416722 0.0384233 0
-0.0381746 0.0320498 0
-0.0345058 0.0261717 0
-0.0306819 0.0208105 0
-0.0267209 0.0159883 0
-0.0226448 0.0117281 0
-0.0184815 0.00805625 0
-0.0142681 0.00500496 0
-0.0100533 0.00260634 0
-0.00589914 0.00090911 0
-0.00188388 0.000122177 0
0.844591 0.00360364 0
0.568918 0.0243077 0
0.35821 0.0600152 0
0.20958 0.0967094 0
0.10991 0.130374 0
0.0455234 0.159141 0
0.00525444 0.182545 0
-0.0190545 0.20078 0
-0.0331301 0.214346 0
-0.0410808 0.224038 0
-0.0455576 0.230534 0
-0.0482165 0.234387 0
-0.0500563 0.236039 0
-0.0516494 0.235836 0
-0.0532948 0.234053 0
-0.0551199 0.230908 0
-0.0571478 0.226579 0
-0.0593399 0.221215 0
-0.0616251 0.214947 0
-0.0639177 0.207889 0
-0.0661292 0.20015 0
-0.0681759 0.191831 0
-0.0699833 0.183028 0
-0.0714884 0.173836 0
-0.0726416 0.164344 0
-0.0734062 0.154639 0
-0.0737582 0.144803 0
-0.0736853 0.134913 0
-0.0731855 0.125043 0
-0.0722652 0.115259 0
-0.0709382 0.105622 0
-0.0692232 0.0961877 0
-0.0671426 0.0870047 0
-0.0647209 0.0781169 0
-0.061983 0.0695625 0
-0.0589538 0.0613751 0
-0.0556565 0.0535842 0
-0.0521128 0.0462159 0
-0.0483422 0.0392939 0
-0.0443624 0.0328398 0
-0.0401897 0.0268748 0
-0.03584 0.02142 0
-0.0313299 0.0164978 0
-0.0266785 0.0121334 0
-0.0219089 0.00835645 0
-0.0170507 0.00520442 0
-0.0121418 0.00271618 0
-0.00722859 0.000948958 0
-0.00236757 0.000127663 0
0.856344 0.00292171 0
0.59664 0.0208222 0
0.392336 0.0527142 0
0.243681 0.0866214 0
0.140668 0.118704 0
0.0716326 0.146941 0
0.026493 0.170614 0
-0.00248419 0.189759 0
-0.020736 0.204608 0
-0.0322155 0.215666 0
-0.0396509 0.223517 0
-0.0447961 0.228647 0
-0.0487411 0.231458 0
-0.0521335 0.232277 0
-0.0553312 0.231373 0
-0.0585062 0.228965 0
-0.0617136 0.225241 0
-0.0649381 0.220361 0
-0.0681248 0.214469 0
-0.071199 0.207695 0
-0.07408 0.200161 0
-0.0766897 0.191981 0
-0.0789581 0.183268 0
-0.0808268 0.174124 0
-0.08225 0.164652 0
-0.0831958 0.154947 0
-0.0836453 0.1451 0
-0.0835918 0.135193 0
-0.0830394 0.125305 0
-0.082001 0.115507 0
-0.0804968 0.105861 0
-0.0785521 0.0964235 0
-0.0761954 0.0872442 0
-0.0734571 0.0783657 0
-0.0703676 0.0698247 0
-0.0669561 0.0616527 0
-0.0632498 0.0538767 0
-0.0592734 0.0465205 0
-0.0550485 0.039605 0
-0.0505938 0.0331498 0
-0.0459257 0.0271743 0
-0.0410588 0.0216986 0
-0.0360073 0.0167451 0
-0.0307859 0.0123401 0
-0.0254115 0.00851574 0
-0.0199048 0.00531358 0
-0.0142909 0.00277763 0
-0.00860018 0.000971531 0
-0.00286715 0.000130774 0
0.866453 0.00243899 0
0.621172 0.0181075 0
0.423422 0.0467696 0
0.275623 0.0781225 0
0.170262 0.108561 0
0.0974256 0.136009 0
0.0480559 0.159578 0
0.0149478 0.179118 0
-0.00724597 0.194814 0
-0.0221766 0.206875 0
-0.0325824 0.215762 0
-0.0402803 0.221904 0
-0.0464293 0.225663 0
-0.0517368 0.227341 0
-0.0566084 0.227193 0
-0.061253 0.225436 0
-0.065753 0.222259 0
-0.0701133 0.217828 0
-0.0742928 0.212297 0
-0.0782273 0.205807 0
-0.0818438 0.198491 0
-0.08507 0.190476 0
-0.0878415 0.181884 0
-0.0901047 0.17283 0
-0.0918195 0.163425 0
-0.0929599 0.153773 0
-0.0935134 0.143972 0
-0.0934805 0.134111 0
-0.0928727 0.124272 0
-0.0917106 0.114528 0
-0.0900222 0.104946 0
-0.0878404 0.0955806 0
-0.085201 0.0864819 0
-0.0821409 0.0776908 0
-0.0786965 0.0692422 0
-0.0749021 0.0611648 0
-0.070789 0.0534829 0
-0.0663848 0.0462169 0
-0.061713 0.0393848 0
-0.0567932 0.0330036 0
-0.051641 0.0270902 0
-0.0462692 0.0216631 0
-0.0406883 0.0167439 0
-0.0349076 0.0123593 0
-0.0289364 0.00854293 0
-0.0227852 0.00533879 0
-0.0164656 0.00279466 0
-0.00999088 0.000978547 0
-0.00337416 0.000131848 0
0.87528 0.0020822 0
0.64307 0.0159412 0
0.451842 0.0418495 0
0.305516 0.0708783 0
0.198583 0.099679 0
0.122648 0.126182 0
0.0695992 0.149391 0
0.0327518 0.169014 0
0.00702216 0.185107 0
-0.0112698 0.197876 0
-0.0246222 0.207529 0
-0.0348965 0.214448 0
-0.0433061 0.218957 0
-0.0506052 0.221332 0
-0.0572378 0.221811 0
-0.063442 0.220604 0
-0.0693227 0.217899 0
-0.0749007 0.213866 0
-0.0801471 0.208662 0
-0.0850062 0.202438 0
-0.0894119 0.195336 0
-0.093298 0.187492 0
-0.0966054 0.179038 0
-0.0992866 0.170099 0
-0.101308 0.160795 0
-0.10265 0.151236 0
-0.103309 0.141527 0
-0.103293 0.131763 0
-0.102623 0.122029 0
-0.101328 0.112402 0
-0.0994452 0.102947 0
-0.0970165 0.0937215 0
-0.0940857 0.0847732 0
-0.0906973 0.0761415 0
-0.086894 0.0678583 0
-0.0827157 0.0599495 0
-0.078198 0.0524357 0
-0.0733717 0.0453337 0
-0.0682619 0.0386581 0
-0.0628885 0.0324223 0
-0.0572662 0.0266403 0
-0.051405 0.0213285 0
-0.0453108 0.0165068 0
-0.0389866 0.0122013 0
-0.0324332 0.00844572 0
-0.0256494 0.00528552 0
-0.0186329 0.0027705 0
-0.0113794 0.000971337 0
-0.003881 0.000131125 0
0.883079 0.00180728 0
0.662759 0.0141717 0
0.477913 0.0377085 0
0.333488 0.0646238 0
0.225588 0.0918274 0
0.147137 0.117294 0
0.0908875 0.139964 0
0.0506589 0.15944 0
0.0216286 0.175674 0
0.000230645 0.188804 0
-0.0160088 0.198991 0
-0.0288525 0.206472 0
-0.0395474 0.211544 0
-0.0488844 0.214458 0
-0.0573368 0.215434 0
-0.0651656 0.214672 0
-0.0724926 0.212355 0
-0.0793512 0.208654 0
-0.0857215 0.203731 0
-0.0915549 0.197741 0
-0.096791 0.190835 0
-0.101369 0.183156 0
-0.105236 0.174845 0
-0.108349 0.166036 0
-0.110684 0.156854 0
-0.112229 0.14742 0
-0.112988 0.137842 0
-0.112979 0.128219 0
-0.112235 0.118641 0
-0.110794 0.109185 0
-0.108703 0.0999167 0
-0.106015 0.0908935 0
-0.102782 0.0821611 0
-0.0990562 0.0737562 0
-0.0948888 0.0657077 0
-0.090325 0.0580376 0
-0.085405 0.0507625 0
-0.0801625 0.0438951 0
-0.0746246 0.0374457 0
-0.068811 0.0314239 0
-0.0627348 0.0258402 0
-0.0564026 0.0207078 0
-0.0498153 0.0160444 0
-0.0429685 0.0118742 0
-0.0358533 0.0082304 0
-0.0284568 0.00515801 0
-0.0207616 0.0027076 0
-0.0127459 0.00095084 0
-0.00438069 0.000128752 0
0.890032 0.00158699 0
0.680567 0.0126928 0
0.501898 0.0341625 0
0.359664 0.0591481 0
0.251271 0.0848081 0
0.170783 0.109183 0
0.111745 0.131183 0
0.0684602 0.150331 0
0.0363735 0.166501 0
0.0120554 0.179752 0
-0.00696448 0.190243 0
-0.0223423 0.198092 0
-0.0353212 0.203554 0
-0.0467171 0.206855 0
-0.0570249 0.208198 0
-0.0665216 0.207772 0
-0.0753412 0.205753 0
-0.0835254 0.202313 0
-0.0910609 0.197615 0
-0.0979039 0.191818 0
-0.103998 0.185079 0
-0.109289 0.177551 0
-0.113727 0.16938 0
-0.117278 0.160707 0
-0.119925 0.151666 0
-0.121664 0.142382 0
-0.122511 0.132968 0
-0.122495 0.123528 0
-0.121658 0.114151 0
-0.120053 0.104917 0
-0.117737 0.0958928 0
-0.114773 0.0871317 0
-0.111224 0.0786779 0
-0.107151 0.0705649 0
-0.102613 0.0628177 0
-0.0976611 0.0554539 0
-0.0923407 0.0484857 0
-0.0866886 0.0419209 0
-0.0807331 0.0357652 0
-0.074494 0.0300236 0
-0.0679823 0.0247027 0
-0.0612006 0.0198117 0
-0.0541441 0.0153653 0
-0.0468004 0.011385 0
-0.0391505 0.0079018 0
-0.0311686 0.00495941 0
-0.0228222 0.00260765 0
-0.0140715 0.000917644 0
-0.00486659 0.000124801 0
0.896271 0.00140396 0
0.696748 0.0114286 0
0.524015 0.0310717 0
0.384159 0.0542825 0
0.27564 0.0784534 0
0.19351 0.101705 0
0.132036 0.122935 0
0.0859791 0.141614 0
0.0510521 0.157551 0
0.02397 0.170747 0
0.0023286 0.181308 0
-0.0155376 0.189362 0
-0.0307827 0.195052 0
-0.0442406 0.198598 0
-0.0564208 0.200182 0
-0.0676109 0.199982 0
-0.077952 0.198169 0
-0.0874909 0.194913 0
-0.0962175 0.190377 0
-0.104091 0.184727 0
-0.111059 0.178123 0
-0.11707 0.170725 0
-0.12208 0.162685 0
-0.126064 0.154153 0
-0.12901 0.145266 0
-0.130928 0.136155 0
-0.131843 0.126937 0
-0.131797 0.117718 0
-0.130846 0.108588 0
-0.129053 0.0996283 0
-0.12649 0.0909021 0
-0.12323 0.0824621 0
-0.119349 0.0743487 0
-0.114917 0.0665914 0
-0.11 0.0592108 0
-0.104657 0.0522195 0
-0.0989381 0.0456245 0
-0.0928831 0.0394285 0
-0.0865218 0.033632 0
-0.0798734 0.028235 0
-0.0729466 0.0232392 0
-0.0657398 0.0186496 0
-0.0582418 0.0144769 0
-0.0504317 0.0107389 0
-0.0422799 0.00746358 0
-0.0337475 0.00469194 0
-0.0247862 0.00247172 0
-0.015338 0.000872058 0
-0.00533233 0.000119286 0
0.901892 0.00124666 0
0.711495 0.0103236 0
0.544435 0.0283277 0
0.407067 0.04989 0
0.298707 0.07262 0
0.215263 0.0947253 0
0.151655 0.115107 0
0.103077 0.133199 0
0.0655079 0.148763 0
0.0358109 0.16175 0
0.0116582 0.17222 0
-0.00860542 0.180297 0
-0.026081 0.186065 0
-0.0415879 0.189716 0
-0.0556419 0.191418 0
-0.068535 0.191335 0
-0.0804112 0.189634 0
-0.0913185 0.186481 0
-0.101248 0.182044 0
-0.110159 0.17649 0
-0.118002 0.169986 0
-0.124728 0.162695 0
-0.1303 0.154778 0
-0.134699 0.146388 0
-0.137924 0.137669 0
-0.139994 0.128754 0
-0.14095 0.119765 0
-0.140845 0.110806 0
-0.139749 0.101971 0
-0.13774 0.0933361 0
-0.134904 0.0849646 0
-0.131327 0.0769052 0
-0.127095 0.0691942 0
-0.122289 0.0618564 0
-0.116985 0.0549071 0
-0.111247 0.0483535 0
-0.105132 0.0421969 0
-0.0986811 0.0364343 0
-0.0919266 0.0310606 0
-0.0848867 0.0260704 0
-0.0775675 0.0214601 0
-0.0699628 0.0172298 0
-0.0620546 0.0133854 0
-0.0538134 0.00994039 0
-0.0451983 0.00691869 0
-0.0361572 0.0043572 0
-0.0266257 0.00230047 0
-0.0165278 0.000814203 0
-0.00577157 0.000112181 0
0.906969 0.0011071 0
0.724959 0.00933574 0
0.563295 0.025845 0
0.428469 0.0458578 0
0.320486 0.0671842 0