# vtk DataFile Version 3.0
Malha 2D com triângulos: velocidade e pressão
ASCII
DATASET UNSTRUCTURED_GRID

POINTS 2500 double
0 0 0
1 0 0
1 1 0
0 1 0
0.0204082 0 0
0.0408163 0 0
0.0612245 0 0
0.0816327 0 0
0.102041 0 0
0.122449 0 0
0.142857 0 0
0.163265 0 0
0.183673 0 0
0.204082 0 0
0.22449 0 0
0.244898 0 0
0.265306 0 0
0.285714 0 0
0.306122 0 0
0.326531 0 0
0.346939 0 0
0.367347 0 0
0.387755 0 0
0.408163 0 0
0.428571 0 0
0.44898 0 0
0.469388 0 0
0.489796 0 0
0.510204 0 0
0.530612 0 0
0.55102 0 0
0.571429 0 0
0.591837 0 0
0.612245 0 0
0.632653 0 0
0.653061 0 0
0.673469 0 0
0.693878 0 0
0.714286 0 0
0.734694 0 0
0.755102 0 0
0.77551 0 0
0.795918 0 0
0.816327 0 0
0.836735 0 0
0.857143 0 0
0.877551 0 0
0.897959 0 0
0.918367 0 0
0.938776 0 0
0.959184 0 0
0.979592 0 0
1 0.0204082 0
1 0.0408163 0
1 0.0612245 0
1 0.0816327 0
1 0.102041 0
1 0.122449 0
1 0.142857 0
1 0.163265 0
1 0.183673 0
1 0.204082 0
1 0.22449 0
1 0.244898 0
1 0.265306 0
1 0.285714 0
1 0.306122 0
1 0.326531 0
1 0.346939 0
1 0.367347 0
1 0.387755 0
1 0.408163 0
1 0.428571 0
1 0.44898 0
1 0.469388 0
1 0.489796 0
1 0.510204 0
1 0.530612 0
1 0.55102 0
1 0.571429 0
1 0.591837 0
1 0.612245 0
1 0.632653 0
1 0.653061 0
1 0.673469 0
1 0.693878 0
1 0.714286 0
1 0.734694 0
1 0.755102 0
1 0.77551 0
1 0.795918 0
1 0.816327 0
1 0.836735 0
1 0.857143 0
1 0.877551 0
1 0.897959 0
1 0.918367 0
1 0.938776 0
1 0.959184 0
1 0.979592 0
0.979592 1 0
0.959184 1 0
0.938776 1 0
0.918367 1 0
0.897959 1 0
0.877551 1 0
0.857143 1 0
0.836735 1 0
0.816327 1 0
0.795918 1 0
0.77551 1 0
0.755102 1 0
0.734694 1 0
0.714286 1 0
0.693878 1 0
0.673469 1 0
0.653061 1 0
0.632653 1 0
0.612245 1 0
0.591837 1 0
0.571429 1 0
0.55102 1 0
0.530612 1 0
0.510204 1 0
0.489796 1 0
0.469388 1 0
0.44898 1 0
0.428571 1 0
0.408163 1 0
0.387755 1 0
0.367347 1 0
0.346939 1 0
0.326531 1 0
0.306122 1 0
0.285714 1 0
0.265306 1 0
0.244898 1 0
0.22449 1 0
0.204082 1 0
0.183673 1 0
0.163265 1 0
0.142857 1 0
0.122449 1 0
0.102041 1 0
0.0816327 1 0
0.0612245 1 0
0.0408163 1 0
0.0204082 1 0
0 0.979592 0
0 0.959184 0
0 0.938776 0
0 0.918367 0
0 0.897959 0
0 0.877551 0
0 0.857143 0
0 0.836735 0
0 0.816327 0
0 0.795918 0
0 0.77551 0
0 0.755102 0
0 0.734694 0
0 0.714286 0
0 0.693878 0
0 0.673469 0
0 0.653061 0
0 0.632653 0
0 0.612245 0
0 0.591837 0
0 0.571429 0
0 0.55102 0
0 0.530612 0
0 0.510204 0
0 0.489796 0
0 0.469388 0
0 0.44898 0
0 0.428571 0
0 0.408163 0
0 0.387755 0
0 0.367347 0
0 0.346939 0
0 0.326531 0
0 0.306122 0
0 0.285714 0
0 0.265306 0
0 0.244898 0
0 0.22449 0
0 0.204082 0
0 0.183673 0
0 0.163265 0
0 0.142857 0
0 0.122449 0
0 0.102041 0
0 0.0816327 0
0 0.0612245 0
0 0.0408163 0
0 0.0204082 0
0.0204082 0.979592 0
0.0204082 0.959184 0
0.0204082 0.938776 0
0.0204082 0.918367 0
0.0204082 0.897959 0
0.0204082 0.877551 0
0.0204082 0.857143 0
0.0204082 0.836735 0
0.0204082 0.816327 0
0.0204082 0.795918 0
0.0204082 0.77551 0
0.0204082 0.755102 0
0.0204082 0.734694 0
0.0204082 0.714286 0
0.0204082 0.693878 0
0.0204082 0.673469 0
0.0204082 0.653061 0
0.0204082 0.632653 0
0.0204082 0.612245 0
0.0204082 0.591837 0
0.0204082 0.571429 0
0.0204082 0.55102 0
0.0204082 0.530612 0
0.0204082 0.510204 0
0.0204082 0.489796 0
0.0204082 0.469388 0
0.0204082 0.44898 0
0.0204082 0.428571 0
0.0204082 0.408163 0
0.0204082 0.387755 0
0.0204082 0.367347 0
0.0204082 0.346939 0
0.0204082 0.326531 0
0.0204082 0.306122 0
0.0204082 0.285714 0
0.0204082 0.265306 0
0.0204082 0.244898 0
0.0204082 0.22449 0
0.0204082 0.204082 0
0.0204082 0.183673 0
0.0204082 0.163265 0
0.0204082 0.142857 0
0.0204082 0.122449 0
0.0204082 0.102041 0
0.0204082 0.0816327 0
0.0204082 0.0612245 0
0.0204082 0.0408163 0
0.0204082 0.0204082 0
0.0408163 0.979592 0
0.0408163 0.959184 0
0.0408163 0.938776 0
0.0408163 0.918367 0
0.0408163 0.897959 0
0.0408163 0.877551 0
0.0408163 0.857143 0
0.0408163 0.836735 0
0.0408163 0.816327 0
0.0408163 0.795918 0
0.0408163 0.77551 0
0.0408163 0.755102 0
0.0408163 0.734694 0
0.0408163 0.714286 0
0.0408163 0.693878 0
0.0408163 0.673469 0
0.0408163 0.653061 0
0.0408163 0.632653 0
0.0408163 0.612245 0
0.0408163 0.591837 0
0.0408163 0.571429 0
0.0408163 0.55102 0
0.0408163 0.530612 0
0.0408163 0.510204 0
0.0408163 0.489796 0
0.0408163 0.469388 0
0.0408163 0.44898 0
0.0408163 0.428571 0
0.0408163 0.408163 0
0.0408163 0.387755 0
0.0408163 0.367347 0
0.0408163 0.346939 0
0.0408163 0.326531 0
0.0408163 0.306122 0
0.0408163 0.285714 0
0.0408163 0.265306 0
0.0408163 0.244898 0
0.0408163 0.22449 0
0.0408163 0.204082 0
0.0408163 0.183673 0
0.0408163 0.163265 0
0.0408163 0.142857 0
0.0408163 0.122449 0
0.0408163 0.102041 0
0.0408163 0.0816327 0
0.0408163 0.0612245 0
0.0408163 0.0408163 0
0.0408163 0.0204082 0
0.0612245 0.979592 0
0.0612245 0.959184 0
0.0612245 0.938776 0
0.0612245 0.918367 0
0.0612245 0.897959 0
0.0612245 0.877551 0
0.0612245 0.857143 0
0.0612245 0.836735 0
0.0612245 0.816327 0
0.0612245 0.795918 0
0.0612245 0.77551 0
0.0612245 0.755102 0
0.0612245 0.734694 0
0.0612245 0.714286 0
0.0612245 0.693878 0
0.0612245 0.673469 0
0.0612245 0.653061 0
0.0612245 0.632653 0
0.0612245 0.612245 0
0.0612245 0.591837 0
0.0612245 0.571429 0
0.0612245 0.55102 0
0.0612245 0.530612 0
0.0612245 0.510204 0
0.0612245 0.489796 0
0.0612245 0.469388 0
0.0612245 0.44898 0
0.0612245 0.428571 0
0.0612245 0.408163 0
0.0612245 0.387755 0
0.0612245 0.367347 0
0.0612245 0.346939 0
0.0612245 0.326531 0
0.0612245 0.306122 0
0.0612245 0.285714 0
0.0612245 0.265306 0
0.0612245 0.244898 0
0.0612245 0.22449 0
0.0612245 0.204082 0
0.0612245 0.183673 0
0.0612245 0.163265 0
0.0612245 0.142857 0
0.0612245 0.122449 0
0.0612245 0.102041 0
0.0612245 0.0816327 0
0.0612245 0.0612245 0
0.0612245 0.0408163 0
0.0612245 0.0204082 0
0.0816327 0.979592 0
0.0816327 0.959184 0
0.0816327 0.938776 0
0.0816327 0.918367 0
0.0816327 0.897959 0
0.0816327 0.877551 0
0.0816327 0.857143 0
0.0816327 0.836735 0
0.0816327 0.816327 0
0.0816327 0.795918 0
0.0816327 0.77551 0
0.0816327 0.755102 0
0.0816327 0.734694 0
0.0816327 0.714286 0
0.0816327 0.693878 0
0.0816327 0.673469 0
0.0816327 0.653061 0
0.0816327 0.632653 0
0.0816327 0.612245 0
0.0816327 0.591837 0
0.0816327 0.571429 0
0.0816327 0.55102 0
0.0816327 0.530612 0
0.0816327 0.510204 0
0.0816327 0.489796 0
0.0816327 0.469388 0
0.0816327 0.44898 0
0.0816327 0.428571 0
0.0816327 0.408163 0
0.0816327 0.387755 0
0.0816327 0.367347 0
0.0816327 0.346939 0
0.0816327 0.326531 0
0.0816327 0.306122 0
0.0816327 0.285714 0
0.0816327 0.265306 0
0.0816327 0.244898 0
0.0816327 0.22449 0
0.0816327 0.204082 0
0.0816327 0.183673 0
0.0816327 0.163265 0
0.0816327 0.142857 0
0.0816327 0.122449 0
0.0816327 0.102041 0
0.0816327 0.0816327 0
0.0816327 0.0612245 0
0.0816327 0.0408163 0
0.0816327 0.0204082 0
0.102041 0.979592 0
0.102041 0.959184 0
0.102041 0.938776 0
0.102041 0.918367 0
0.102041 0.897959 0
0.102041 0.877551 0
0.102041 0.857143 0
0.102041 0.836735 0
0.102041 0.816327 0
0.102041 0.795918 0
0.102041 0.77551 0
0.102041 0.755102 0
0.102041 0.734694 0
0.102041 0.714286 0
0.102041 0.693878 0
0.102041 0.673469 0
0.102041 0.653061 0
0.102041 0.632653 0
0.102041 0.612245 0
0.102041 0.591837 0
0.102041 0.571429 0
0.102041 0.55102 0
0.102041 0.530612 0
0.102041 0.510204 0
0.102041 0.489796 0
0.102041 0.469388 0
0.102041 0.44898 0
0.102041 0.428571 0
0.102041 0.408163 0
0.102041 0.387755 0
0.102041 0.367347 0
0.102041 0.346939 0
0.102041 0.326531 0
0.102041 0.306122 0
0.102041 0.285714 0
0.102041 0.265306 0
0.102041 0.244898 0
0.102041 0.22449 0
0.102041 0.204082 0
0.102041 0.183673 0
0.102041 0.163265 0
0.102041 0.142857 0
0.102041 0.122449 0
0.102041 0.102041 0
0.102041 0.0816327 0
0.102041 0.0612245 0
0.102041 0.0408163 0
0.102041 0.0204082 0
0.122449 0.979592 0
0.122449 0.959184 0
0.122449 0.938776 0
0.122449 0.918367 0
0.122449 0.897959 0
0.122449 0.877551 0
0.122449 0.857143 0
0.122449 0.836735 0
0.122449 0.816327 0
0.122449 0.795918 0
0.122449 0.77551 0
0.122449 0.755102 0
0.122449 0.734694 0
0.122449 0.714286 0
0.122449 0.693878 0
0.122449 0.673469 0
0.122449 0.653061 0
0.122449 0.632653 0
0.122449 0.612245 0
0.122449 0.591837 0
0.122449 0.571429 0
0.122449 0.55102 0
0.122449 0.530612 0
0.122449 0.510204 0
0.122449 0.489796 0
0.122449 0.469388 0
0.122449 0.44898 0
0.122449 0.428571 0
0.122449 0.408163 0
0.122449 0.387755 0
0.122449 0.367347 0
0.122449 0.346939 0
0.122449 0.326531 0
0.122449 0.306122 0
0.122449 0.285714 0
0.122449 0.265306 0
0.122449 0.244898 0
0.122449 0.22449 0
0.122449 0.204082 0
0.122449 0.183673 0
0.122449 0.163265 0
0.122449 0.142857 0
0.122449 0.122449 0
0.122449 0.102041 0
0.122449 0.0816327 0
0.122449 0.0612245 0
0.122449 0.0408163 0
0.122449 0.0204082 0
0.142857 0.979592 0
0.142857 0.959184 0
0.142857 0.938776 0
0.142857 0.918367 0
0.142857 0.897959 0
0.142857 0.877551 0
0.142857 0.857143 0
0.142857 0.836735 0
0.142857 0.816327 0
0.142857 0.795918 0
0.142857 0.77551 0
0.142857 0.755102 0
0.142857 0.734694 0
0.142857 0.714286 0
0.142857 0.693878 0
0.142857 0.673469 0
0.142857 0.653061 0
0.142857 0.632653 0
0.142857 0.612245 0
0.142857 0.591837 0
0.142857 0.571429 0
0.142857 0.55102 0
0.142857 0.530612 0
0.142857 0.510204 0
0.142857 0.489796 0
0.142857 0.469388 0
0.142857 0.44898 0
0.142857 0.428571 0
0.142857 0.408163 0
0.142857 0.387755 0
0.142857 0.367347 0
0.142857 0.346939 0
0.142857 0.326531 0
0.142857 0.306122 0
0.142857 0.285714 0
0.142857 0.265306 0
0.142857 0.244898 0
0.142857 0.22449 0
0.142857 0.204082 0
0.142857 0.183673 0
0.142857 0.163265 0
0.142857 0.142857 0
0.142857 0.122449 0
0.142857 0.102041 0
0.142857 0.0816327 0
0.142857 0.0612245 0
0.142857 0.0408163 0
0.142857 0.0204082 0
0.163265 0.979592 0
0.163265 0.959184 0
0.163265 0.938776 0
0.163265 0.918367 0
0.163265 0.897959 0
0.163265 0.877551 0
0.163265 0.857143 0
0.163265 0.836735 0
0.163265 0.816327 0
0.163265 0.795918 0
0.163265 0.77551 0
0.163265 0.755102 0
0.163265 0.734694 0
0.163265 0.714286 0
0.163265 0.693878 0
0.163265 0.673469 0
0.163265 0.653061 0
0.163265 0.632653 0
0.163265 0.612245 0
0.163265 0.591837 0
0.163265 0.571429 0
0.163265 0.55102 0
[...]
CELL_DATA 2401
VECTORS velocity double
0.257354 0.157462 0
-0.00271914 0.264567 0
-0.0323324 0.205403 0
-0.0254081 0.150477 0
-0.0160795 0.112897 0
-0.00971296 0.0875128 0
-0.00592924 0.0704345 0
-0.00373724 0.0587561 0
-0.00244869 0.0505659 0
-0.00166758 0.0446735 0
-0.00117771 0.0403274 0
-0.000861394 0.0370394 0
-0.000652989 0.0344832 0
-0.000514406 0.0324344 0
-0.000422528 0.0307354 0
-0.000362687 0.0292735 0
-0.000325191 0.0279676 0
-0.000303403 0.0267589 0
-0.00029263 0.025605 0
-0.000289458 0.0244759 0
-0.000291341 0.0233507 0
-0.000296344 0.0222159 0
-0.000302974 0.0210635 0
-0.000310075 0.0198901 0
-0.00031675 0.0186955 0
-0.000322313 0.0174825 0
-0.000326255 0.0162555 0
-0.000328215 0.0150208 0
-0.000327958 0.0137856 0
-0.00032535 0.0125577 0
-0.000320348 0.0113453 0
-0.000312977 0.0101567 0
-0.000303313 0.00899991 0
-0.000291469 0.00788289 0
-0.000277579 0.00681308 0
-0.000261783 0.00579751 0
-0.000244214 0.00484273 0
-0.000224984 0.00395491 0
-0.00020417 0.00313982 0
-0.000181803 0.00240295 0
-0.000157851 0.00174957 0
-0.000132212 0.00118489 0
-0.000104718 0.000714054 0
-7.51867e-05 0.000342115 0
-4.35996e-05 7.35941e-05 0
-1.0632e-05 -8.86073e-05 0
2.09993e-05 -0.000145702 0
4.37635e-05 -0.00011224 0
3.81937e-05 -3.79939e-05 0
0.340583 0.122944 0
-0.000717727 0.249355 0
-0.0653374 0.271487 0
-0.0633622 0.251958 0
-0.0486012 0.221397 0
-0.0350036 0.191515 0
-0.0249078 0.166124 0
-0.0178406 0.145725 0
-0.0129615 0.129698 0
-0.0095848 0.11718 0
-0.00723163 0.107362 0
-0.00558251 0.099573 0
-0.00442515 0.0932841 0
-0.00361661 0.0880863 0
-0.00305866 0.0836681 0
-0.00268236 0.0797933 0
-0.0024383 0.0762837 0
-0.00229032 0.0730063 0
-0.00221149 0.0698629 0
-0.0021814 0.0667822 0
-0.00218435 0.0637146 0
-0.0022081 0.0606273 0
-0.00224308 0.0575008 0
-0.00228176 0.0543266 0
-0.00231827 0.0511044 0
-0.00234808 0.0478406 0
-0.0023678 0.0445467 0
-0.00237497 0.0412378 0
-0.00236796 0.0379318 0
-0.00234579 0.0346482 0
-0.00230802 0.0314074 0
-0.0022547 0.0282302 0
-0.00218617 0.0251371 0
-0.00210303 0.0221481 0
-0.00200605 0.0192823 0
-0.00189605 0.0165577 0
-0.00177385 0.0139915 0
-0.00164021 0.0115996 0
-0.00149579 0.00939701 0
-0.0013411 0.00739774 0
-0.0011765 0.005615 0
-0.00100228 0.00406112 0
-0.000818859 0.0027473 0
-0.000627204 0.00168296 0
-0.000429842 0.000874286 0
-0.000233048 0.000321444 0
-5.13161e-05 1.34216e-05 0
8.51311e-05 -8.33796e-05 0
0.000111645 -4.25462e-05 0
0.500804 0.076777 0
0.098935 0.18314 0
-0.0395415 0.24907 0
-0.0735962 0.265497 0
-0.0719994 0.257171 0
-0.0606062 0.239411 0
-0.0482555 0.219487 0
-0.0375964 0.200686 0
-0.0291241 0.184209 0
-0.0226388 0.170256 0
-0.0177745 0.1586 0
-0.0141762 0.148868 0
-0.0115478 0.140666 0
-0.00965616 0.133635 0
-0.00832175 0.127471 0
-0.00740715 0.121924 0
-0.00680717 0.116795 0
-0.00644086 0.111931 0
-0.00624541 0.107213 0
-0.00617171 0.102556 0
-0.00618108 0.0978979 0
-0.00624283 0.0931997 0
-0.00633261 0.0884384 0
-0.00643111 0.0836051 0
-0.00652314 0.0787019 0
-0.00659693 0.0737399 0
-0.00664363 0.0687366 0
-0.0066568 0.0637148 0
-0.00663208 0.0587007 0
-0.00656686 0.0537228 0
-0.00645992 0.0488108 0
-0.00631122 0.0439949 0
-0.00612159 0.0393049 0
-0.00589251 0.0347699 0
-0.00562586 0.0304177 0
-0.00532377 0.0262747 0
-0.00498839 0.0223659 0
-0.00462183 0.0187146 0
-0.00422602 0.0153428 0
-0.00380269 0.0122706 0
-0.00335353 0.00951672 0
-0.0028804 0.00709815 0
-0.00238593 0.00502942 0
-0.00187476 0.00332167 0
-0.00135571 0.00198071 0
-0.000845957 0.00100392 0
-0.00037848 0.000374246 0
-1.22835e-05 5.25104e-05 0
0.000142565 -1.89423e-05 0
0.609902 0.0480208 0
0.195412 0.133894 0
0.0110887 0.209308 0
-0.0582702 0.246298 0
-0.0761757 0.256862 0
-0.073664 0.25351 0
-0.0642173 0.243425 0
-0.0534713 0.230851 0
-0.0436149 0.218037 0
-0.0353428 0.206024 0
-0.0287261 0.195189 0
-0.0235982 0.185567 0
-0.0197233 0.177026 0
-0.016866 0.169373 0
-0.0148175 0.162403 0
-0.0134012 0.155928 0
-0.012472 0.149782 0
-0.011912 0.143832 0
-0.0116257 0.137973 0
-0.0115359 0.132125 0
-0.0115802 0.126234 0
-0.0117082 0.120264 0
-0.0118792 0.114197 0
-0.0120606 0.10803 0
-0.0122266 0.10177 0
-0.0123571 0.0954345 0
-0.012437 0.0890478 0
-0.0124551 0.0826396 0
-0.012404 0.0762433 0
-0.0122793 0.0698945 0
-0.0120787 0.0636301 0
-0.0118023 0.0574874 0
-0.0114516 0.0515031 0
-0.0110292 0.0457128 0
-0.0105383 0.0401506 0
-0.00998285 0.034849 0
-0.00936664 0.0298385 0
-0.0086936 0.0251477 0
-0.00796748 0.0208032 0
-0.00719193 0.0168295 0
-0.00637071 0.0132488 0
-0.00550825 0.010081 0
-0.00461071 0.00734241 0
-0.00368782 0.00504518 0
-0.0027561 0.00319512 0
-0.00184434 0.00178936 0
-0.00100253 0.000810464 0
-0.000312818 0.000224293 0
8.43923e-05 1.21082e-05 0
0.680251 0.0301388 0
0.278128 0.098138 0
0.0692869 0.170925 0
-0.0276998 0.217458 0
-0.065275 0.241004 0
-0.0744581 0.24964 0
-0.0711364 0.249285 0
-0.0630923 0.244037 0
-0.0540051 0.23646 0
-0.0455119 0.228033 0
-0.0382429 0.219543 0
-0.0323448 0.211355 0
-0.0277444 0.20359 0
-0.0242808 0.196238 0
-0.0217695 0.189226 0
-0.0200316 0.182455 0
-0.0189062 0.175826 0
-0.0182542 0.169248 0
-0.0179572 0.16265 0
-0.017916 0.155975 0
-0.0180484 0.149185 0
-0.0182862 0.14226 0
-0.0185738 0.135193 0
-0.0188658 0.127989 0
-0.0191263 0.120667 0
-0.0193271 0.11325 0
-0.0194467 0.105771 0
-0.0194697 0.0982654 0
-0.0193857 0.0907741 0
-0.0191884 0.0833385 0
-0.0188752 0.0760014 0
-0.0184463 0.0688053 0
-0.0179041 0.0617918 0
-0.0172526 0.0550013 0
-0.0164968 0.0484723 0
-0.0156426 0.0422412 0
-0.014696 0.0363423 0
-0.013663 0.0308075 0
-0.0125496 0.0256663 0
-0.0113618 0.0209459 0
-0.0101062 0.0166708 0
-0.00879035 0.0128625 0
-0.00742456 0.00953876 0
-0.00602412 0.00671277 0
-0.00461309 0.00439175 0
-0.00323028 0.00257561 0
-0.00193836 0.00125139 0
-0.000833957 0.000396933 0
-7.09005e-05 4.21504e-05 0
0.729627 0.0191734 0
0.348642 0.0730299 0
0.12762 0.139311 0
0.0111047 0.188359 0
-0.0441578 0.219851 0
-0.065564 0.23717 0
-0.069915 0.244852 0
-0.0663315 0.246358 0
-0.0596261 0.244136 0
-0.0522542 0.239784 0
-0.0453938 0.234291 0
-0.0395394 0.228229 0
-0.0348283 0.221906 0
-0.0312198 0.215466 0
-0.0285923 0.208956 0
-0.0267946 0.202372 0
-0.0256729 0.195686 0
-0.0250829 0.188862 0
-0.0248951 0.181869 0
-0.024997 0.174683 0
-0.0252916 0.167291 0
-0.0256976 0.159692 0
-0.0261469 0.151895 0
-0.0265838 0.143919 0
-0.0269635 0.135793 0
-0.0272508 0.12755 0
-0.0274191 0.119231 0
-0.0274493 0.11088 0
-0.0273285 0.102542 0
-0.0270495 0.0942654 0
-0.0266096 0.0860967 0
-0.0260096 0.0780829 0
-0.0252532 0.0702694 0
-0.0243463 0.0626996 0
-0.0232961 0.0554149 0
-0.0221107 0.0484541 0
-0.0207983 0.0418536 0
-0.0193676 0.0356472 0
-0.0178272 0.0298661 0
-0.0161857 0.0245389 0
-0.0144526 0.0196912 0
-0.0126389 0.0153456 0
-0.0107592 0.0115214 0
-0.00883376 0.0082333 0
-0.00689285 0.00549152 0
-0.0049825 0.00330121 0
-0.00317276 0.00165738 0
-0.00156608 0.00055327 0
-0.000315928 6.80103e-05 0
0.765636 0.0125807 0
0.408089 0.0557188 0
0.182666 0.114622 0
0.0527389 0.162832 0
-0.0167871 0.198187 0
-0.0496178 0.22131 0
-0.0620661 0.235031 0
-0.0638741 0.242108 0
-0.0606138 0.244666 0
-0.055375 0.244225 0
-0.0498072 0.241819 0
-0.0447331 0.238121 0
-0.0405081 0.233551 0
-0.0372305 0.228362 0
-0.0348626 0.222695 0
-0.0333011 0.216627 0
-0.0324156 0.210195 0
-0.0320705 0.203417 0
-0.0321362 0.196305 0
-0.0324942 0.188867 0
-0.03304 0.181121 0
-0.0336832 0.173085 0
-0.0343473 0.164789 0
-0.0349687 0.156266 0
-0.0354962 0.147558 0
-0.0358894 0.138708 0
-0.0361179 0.129766 0
-0.0361599 0.120782 0
-0.0360015 0.11181 0
-0.0356352 0.1029 0
-0.0350588 0.0941051 0
-0.0342746 0.0854748 0
-0.0332883 0.077057 0
-0.0321079 0.0688974 0
-0.0307431 0.0610389 0
-0.0292045 0.0535215 0
-0.0275034 0.0463825 0
-0.0256509 0.0396563 0
-0.0236583 0.0333748 0
-0.0215371 0.027567 0
-0.0192996 0.0222591 0
-0.0169602 0.0174746 0
-0.0145368 0.013234 0
-0.0120537 0.00955455 0
-0.00954552 0.00645042 0
-0.00706194 0.00393371 0
-0.00467524 0.00200917 0
-0.00248629 0.000686338 0
-0.000638358 8.89559e-05 0
0.792693 0.00860321 0
0.458199 0.0436728 0
0.233249 0.0955496 0
0.0945597 0.141398 0
0.0142992 0.177866 0
-0.0288236 0.204655 0
-0.0491839 0.222686 0
-0.0567445 0.234093 0
-0.0575402 0.240621 0
-0.0551199 0.243622 0
-0.0515091 0.244085 0
-0.0478137 0.242705 0
-0.0445911 0.239955 0
-0.0420781 0.236152 0
-0.0403282 0.231505 0
-0.0392953 0.22615 0
-0.0388829 0.220178 0
-0.0389736 0.213653 0
-0.0394454 0.206626 0
-0.0401814 0.199138 0
-0.0410745 0.191234 0
-0.0420301 0.182955 0
-0.0429668 0.174348 0
-0.0438162 0.165465 0
-0.044523 0.156358 0
-0.0450438 0.147083 0
-0.0453458 0.137698 0
-0.0454065 0.128262 0
-0.0452119 0.118832 0
-0.0447552 0.109465 0
-0.044036 0.100217 0
-0.0430587 0.0911404 0
-0.0418315 0.0822848 0
-0.0403653 0.0736971 0
-0.0386729 0.0654209 0
-0.0367678 0.0574965 0
-0.034664 0.0499612 0
-0.0323757 0.0428491 0
-0.0299169 0.0361917 0
-0.0273017 0.0300178 0
-0.0245451 0.0243538 0
-0.0216641 0.0192238 0
-0.0186791 0.0146497 0
-0.0156171 0.0106514 0
-0.0125142 0.00724796 0
-0.0094208 0.00445899 0
-0.00640672 0.00229948 0
-0.00356564 0.000794394 0
-0.00102436 0.000105223 0
0.81374 0.00616136 0
0.500775 0.0351435 0
0.279211 0.0808131 0
0.135104 0.123724 0
0.0465746 0.159965 0
-0.00496153 0.188513 0
-0.03267 0.209486 0
-0.0459753 0.2241 0
-0.0511111 0.233769 0
-0.0519281 0.23964 0
-0.0507358 0.242609 0
-0.0488707 0.243343 0
-0.0470655 0.242328 0
-0.0456837 0.239911 0
-0.0448673 0.236339 0
-0.0446298 0.23179 0
-0.0449132 0.226396 0
-0.0456233 0.220258 0
-0.0466515 0.213457 0
-0.0478869 0.206066 0
-0.0492245 0.198151 0
-0.0505692 0.189778 0
-0.0518378 0.181011 0
-0.0529601 0.171916 0
-0.053879 0.16256 0
-0.05455 0.153008 0
-0.0549401 0.143329 0
-0.0550274 0.133587 0
-0.0547991 0.123847 0
-0.0542508 0.11417 0
-0.0533845 0.104614 0
-0.0522078 0.0952339 0
-0.0507324 0.0860814 0
-0.0489724 0.0772036 0
-0.0469443 0.068644 0
-0.0446648 0.0604423 0
-0.0421513 0.0526351 0
-0.0394207 0.0452554 0
-0.0364898 0.0383338 0
-0.0333751 0.0318983 0
-0.0300937 0.0259749 0
-0.0266643 0.020588 0
-0.023109 0.0157609 0
-0.0194551 0.0115165 0
-0.0157386 0.00787848 0
-0.0120071 0.00487398 0
-0.00832454 0.0025277 0
-0.00477336 0.000878233 0
-0.0014604 0.000117371 0
0.830651 0.00462184 0
0.537332 0.0289687 0
0.320848 0.0693121 0
0.173769 0.109145 0
0.0790529 0.144393 0
0.0206895 0.173492 0
-0.0136609 0.196304 0
-0.0324848 0.213218 0
-0.0420216 0.225283 0
-0.0462948 0.233457 0
-0.047816 0.238525 0
-0.0481015 0.2411 0
-0.0480287 0.241651 0
-0.0480711 0.240533 0
-0.0484514 0.23801 0
-0.0492398 0.234287 0
-0.0504169 0.229521 0
-0.0519141 0.223841 0
-0.0536382 0.217354 0
-0.0554879 0.210158 0
-0.0573632 0.202339 0
-0.0591711 0.193981 0
-0.0608296 0.185167 0
-0.0622687 0.175976 0
-0.0634318 0.166487 0
-0.0642753 0.156778 0
-0.0647678 0.146923 0
-0.0648895 0.136997 0
-0.0646304 0.127068 0
-0.0639895 0.117201 0
-0.0629728 0.107458 0
-0.0615919 0.097896 0
-0.0598625 0.0885665 0
-0.0578034 0.0795169 0
-0.0554347 0.07079 0
-0.0527771 0.0624244 0
-0.0498514 0.0544551 0
-0.0466773 0.0469136 0
-0.0432743 0.0398288 0
-0.0396608 0.0332275 0
-0.0358555 0.0271347 0
-0.031878 0.021575 0
-0.0277505 0.0165728 0
-0.0234992 0.0121534 0
-0.0191575 0.00834516 0
-0.014768 0.0051818 0
-0.0103857 0.00269669 0
-0.00607929 0.000939757 0
-0.00193398 0.000126021 0
0.844617 0.00361793 0
0.569061 0.0243911 0
0.358577 0.0602258 0
0.210264 0.0970817 0
0.110962 0.130938 0
0.046951 0.159924 0
0.00703083 0.183565 0
-0.0170133 0.202074 0
-0.0308836 0.215918 0
-0.0386965 0.225887 0
-0.0431011 0.232658 0
-0.0457502 0.23678 0
-0.0476374 0.238692 0
-0.0493285 0.238737 0
-0.0511159 0.237186 0
-0.053121 0.234255 0
-0.0553606 0.230118 0
-0.057791 0.224922 0
-0.0603357 0.218794 0
-0.0629039 0.21185 0
-0.0654022 0.204195 0
-0.0677421 0.195929 0
-0.0698441 0.187149 0
-0.0716409 0.177948 0
-0.073078 0.168417 0
-0.0741143 0.158642 0
-0.0747218 0.148708 0
-0.0748843 0.138695 0
-0.0745962 0.128675 0
-0.0738611 0.11872 0
-0.0726902 0.108892 0
-0.0711002 0.0992505 0
-0.0691122 0.0898467 0
-0.0667496 0.0807277 0
-0.0640373 0.071935 0
-0.0610002 0.0635056 0
-0.0576625 0.0554723 0
-0.0540474 0.0478643 0
-0.0501762 0.0407086 0
-0.0460693 0.03403 0
-0.0417462 0.0278523 0
-0.0372262 0.0221996 0
-0.0325304 0.0170969 0
-0.0276825 0.0125716 0
-0.0227112 0.00865568 0
-0.0176519 0.00538855 0
-0.0125488 0.00281074 0
-0.00745509 0.000981193 0
-0.00243395 0.000131737 0
0.856418 0.00293662 0
0.596889 0.0209113 0
0.392851 0.052939 0
0.244544 0.0870146 0
0.141926 0.119292 0
0.0732858 0.147746 0
0.028509 0.17165 0
-0.000164657 0.191039 0
-0.0182157 0.20616 0
-0.0295612 0.217485 0
-0.0369294 0.225596 0
-0.0420725 0.230979 0
-0.0460756 0.234034 0
-0.0495796 0.235086 0
-0.0529361 0.234399 0
-0.0563104 0.232192 0
-0.0597516 0.228649 0
-0.0632388 0.223927 0
-0.0667111 0.21817 0
-0.0700887 0.211504 0
-0.0732855 0.204051 0
-0.0762182 0.195924 0
-0.0788116 0.187233 0
-0.0810018 0.178084 0
-0.0827384 0.168577 0
-0.0839844 0.158809 0
-0.0847164 0.148871 0
-0.0849235 0.138848 0
-0.0846059 0.128821 0
-0.0837733 0.118861 0
-0.082443 0.109035 0
-0.0806383 0.0994016 0
-0.0783861 0.0900128 0
-0.0757157 0.0809143 0
-0.0726573 0.072146 0
-0.0692403 0.0637425 0
-0.065493 0.0557339 0
-0.0614412 0.0481469 0
-0.0571088 0.0410055 0
-0.0525172 0.0343323 0
-0.0476859 0.0281493 0
-0.0426334 0.0224794 0
-0.0373783 0.0173477 0
-0.0319402 0.0127828 0
-0.0263417 0.00881941 0
-0.0206092 0.00550126 0
-0.0147746 0.00287443 0
-0.0088746 0.00100466 0
-0.00295042 0.000134988 0
0.866577 0.00245371 0
0.621534 0.0181982 0
0.424091 0.0469995 0
0.276669 0.0785222 0
0.171723 0.109153 0
0.0992998 0.13681 0
0.0503041 0.160601 0
0.0175053 0.18037 0
-0.00445712 0.1963 0
-0.0192637 0.208616 0
-0.0296113 0.217747 0
-0.0373164 0.224125 0
-0.0435342 0.22811 0
-0.048966 0.230002 0
-0.0540115 0.230056 0
-0.0588729 0.228486 0
-0.0636266 0.225478 0
-0.0682714 0.221197 0
-0.0727605 0.215793 0
-0.077024 0.209407 0
-0.0809832 0.20217 0
-0.0845602 0.194208 0
-0.0876849 0.185641 0
-0.090298 0.176585 0
-0.0923541 0.167151 0
-0.0938217 0.157443 0
-0.0946835 0.14756 0
-0.0949352 0.137593 0
-0.0945843 0.127625 0
-0.0936478 0.117732 0
-0.0921506 0.107982 0
-0.0901234 0.0984341 0
-0.0876002 0.0891393 0
-0.0846169 0.0801419 0
-0.0812095 0.0714795 0
-0.0774126 0.0631838 0
-0.0732584 0.0552818 0
-0.068776 0.0477968 0
-0.063991 0.0407496 0
-0.0589257 0.0341597 0
-0.0535991 0.0280468 0
-0.0480278 0.022432 0
-0.0422268 0.0173397 0
-0.0362105 0.0127988 0
-0.0299938 0.00884558 0
-0.0235931 0.00552661 0
-0.0170266 0.0028919 0
-0.0103139 0.00101197 0
-0.00347464 0.000136129 0
0.875453 0.00209605 0
0.643545 0.0160298 0
0.452664 0.042076 0
0.306741 0.071271 0
0.200241 0.100257 0
0.124732 0.126958 0
0.0720653 0.150373 0
0.0355322 0.170206 0
0.0100337 0.186512 0
-0.0081229 0.199504 0
-0.0214226 0.209381 0
-0.0317125 0.216514 0
-0.0402002 0.221228 0
-0.0476348 0.223798 0
-0.0544542 0.224463 0
-0.0608905 0.223429 0
-0.0670422 0.220881 0
-0.0729242 0.216988 0
-0.0785016 0.211905 0
-0.0837129 0.205781 0
-0.0884859 0.198756 0
-0.0927484 0.190966 0
-0.0964352 0.18254 0
-0.0994928 0.173604 0
-0.101882 0.164277 0
-0.103577 0.15467 0
-0.104568 0.144889 0
-0.10486 0.13503 0
-0.104467 0.12518 0
-0.103417 0.115416 0
-0.101742 0.105808 0
-0.0994819 0.0964148 0
-0.0966788 0.0872858 0
-0.093376 0.0784633 0
-0.0896158 0.0699821 0
-0.0854384 0.0618703 0
-0.0808803 0.0541514 0
-0.0759737 0.0468446 0
-0.0707461 0.039967 0
-0.0652201 0.0335345 0
-0.0594135 0.0275638 0
-0.0533404 0.0220734 0
-0.0470113 0.0170862 0
-0.0404341 0.0126303 0
-0.033615 0.00874233 0
-0.0265592 0.00547031 0
-0.0192703 0.00286656 0
-0.0117507 0.0010045 0
-0.00399871 0.00013541 0
0.883299 0.00181971 0
0.663343 0.014255 0
0.478883 0.0379238 0
0.334885 0.0649972 0
0.227433 0.0923746 0
0.149414 0.118023 0
0.0935515 0.140879 0
0.0536404 0.160542 0
0.0248459 0.176963 0
0.00360018 0.190278 0
-0.0126001 0.20067 0
-0.0254692 0.208343 0
-0.0362507 0.2136 0
-0.0457323 0.216691 0
-0.0543823 0.217834 0
-0.0624557 0.21723 0
-0.0700685 0.215059 0
-0.0772479 0.211489 0
-0.083968 0.206681 0
-0.0901742 0.200787 0
-0.0957997 0.193957 0
-0.100778 0.186332 0
-0.105048 0.178053 0
-0.108563 0.169252 0
-0.111289 0.160055 0
-0.11321 0.150581 0
-0.114325 0.140942 0
-0.114646 0.131236 0
-0.114199 0.121554 0
-0.11302 0.111976 0
-0.111153 0.10257 0
-0.108647 0.0933949 0
-0.105552 0.0844985 0
-0.101921 0.0759201 0
-0.0978029 0.0676908 0
-0.0932436 0.0598351 0
-0.0882844 0.0523719 0
-0.0829605 0.045316 0
-0.0773012 0.0386801 0
-0.0713289 0.0324761 0
-0.0650601 0.0267167 0
-0.0585053 0.0214174 0
-0.0516698 0.0165983 0
-0.0445541 0.012286 0
-0.037155 0.00851623 0
-0.0294652 0.00533683 0
-0.0214735 0.00280097 0
-0.0131646 0.000983237 0
-0.00451537 0.000132983 0
0.890295 0.0015976 0
0.681253 0.0127681 0
0.503008 0.0343602 0
0.361221 0.0594918 0
0.253286 0.0853103 0
0.173234 0.109849 0
0.114584 0.132012 0
0.071616 0.151324 0
0.0397632 0.167655 0
0.0155924 0.181067 0
-0.00337124 0.191721 0
-0.0187817 0.199741 0
-0.031854 0.205365 0
-0.0434018 0.208823 0
-0.0539155 0.210317 0
-0.0636668 0.210033 0
-0.072784 0.208148 0
-0.0813031 0.20483 0
-0.0892045 0.20024 0
-0.0964383 0.194535 0
-0.102942 0.187872 0
-0.108653 0.180398 0
-0.113517 0.172262 0
-0.117492 0.163603 0
-0.120553 0.154554 0
-0.122691 0.145239 0
-0.123915 0.135774 0
-0.124248 0.126262 0
-0.123728 0.116796 0
-0.122402 0.107456 0
-0.120324 0.0983091 0
-0.117554 0.089413 0
-0.114154 0.080813 0
-0.110184 0.0725449 0
-0.105701 0.0646358 0
-0.100758 0.0571054 0
-0.0953996 0.0499677 0
-0.0896655 0.0432327 0
-0.083586 0.0369081 0
-0.0771835 0.0310009 0
-0.0704722 0.0255195 0
-0.0634587 0.0204754 0
-0.0561424 0.0158853 0
-0.0485159 0.0117731 0
-0.0405653 0.00817238 0
-0.0322708 0.00512946 0
-0.0236055 0.00269686 0
-0.0145358 0.000948786 0
-0.00501775 0.000128921 0
0.896571 0.00141246 0
0.697527 0.0114939 0
0.525251 0.0312464 0
0.38586 0.0545877 0
0.277805 0.0788988 0
0.196114 0.102292 0
0.135027 0.123662 0
0.0892844 0.142477 0
0.0545904 0.158549 0
0.0276563 0.171877 0
0.00607888 0.182567 0
-0.0118223 0.190767 0
-0.0271664 0.196596 0
-0.0407811 0.200278 0
-0.0531728 0.201995 0
-0.0646246 0.201923 0
-0.0752724 0.200231 0
-0.0851574 0.197087 0
-0.0942634 0.192653 0
-0.102543 0.187091 0
-0.109938 0.180561 0
-0.116388 0.173218 0
-0.121845 0.165217 0
-0.126272 0.156703 0
-0.129654 0.147815 0
-0.131991 0.138682 0
-0.133303 0.129423 0
-0.133625 0.120145 0
-0.133006 0.11094 0
-0.131508 0.101888 0
-0.129196 0.093056 0
-0.126143 0.0844986 0
-0.122421 0.0762576 0
-0.118099 0.0683646 0
-0.113243 0.060842 0
-0.107912 0.0537042 0
-0.102157 0.04696 0
-0.0960202 0.0406137 0
-0.089533 0.0346675 0
-0.0827175 0.0291233 0
-0.0755855 0.0239842 0
-0.0681393 0.0192573 0
-0.0603718 0.014955 0
-0.0522668 0.0110973 0
-0.0437997 0.00771464 0
-0.0349371 0.0048505 0
-0.0256364 0.00255537 0
-0.0158455 0.000901464 0
-0.0054992 0.000123237 0
0.902224 0.00125288 0
0.712355 0.0103772 0
0.545782 0.0284754 0
0.408895 0.05015 0
0.301003 0.0729993 0
0.217996 0.0952231 0
0.15477 0.115719 0
0.106504 0.133921 0
0.0691652 0.14959 0
0.0396145 0.162682 0
0.0155244 0.173256 0
-0.00476431 0.181445 0
-0.0223397 0.187328 0
-0.0380042 0.191093 0
-0.052272 0.192909 0
-0.0654311 0.192938 0
-0.0776202 0.191346 0
-0.088882 0.188297 0
-0.0992012 0.183954 0
-0.108532 0.178484 0
-0.116816 0.172051 0
-0.123998 0.164816 0
-0.130034 0.156939 0
-0.134896 0.148572 0
-0.138575 0.139858 0
-0.141083 0.13093 0
-0.142453 0.12191 0
-0.142733 0.112904 0
-0.141986 0.104006 0
-0.140286 0.0952948 0
-0.137714 0.0868344 0
-0.134353 0.0786754 0
-0.130289 0.0708559 0
-0.1256 0.0634024 0
-0.120362 0.0563319 0
-0.11464 0.049653 0
-0.10849 0.0433685 0
-0.101958 0.0374769 0
-0.0950764 0.0319744 0
-0.0878667 0.0268569 0
-0.080338 0.0221223 0
-0.0724878 0.0177722 0
-0.0643022 0.0138141 0
-0.0557559 0.0102634 0
-0.0468131 0.00714611 0
-0.0374266 0.00450167 0
-0.0275376 0.00237717 0
-0.0170752 0.000841391 0
-0.00595317 0.000115902 0
0.907325 0.00111096 0
0.725885 0.00937672 0
0.564736 0.0259626 0
0.430403 0.0460674 0
0.322889 0.0674904 0
0.238833 0.088522 0