# vtk DataFile Version 3.0
Malha 2D com triângulos: velocidade e pressão
ASCII
DATASET UNSTRUCTURED_GRID

POINTS 2500 double
0 0 0
1 0 0
1 1 0
0 1 0
0.0204082 0 0
0.0408163 0 0
0.0612245 0 0
0.0816327 0 0
0.102041 0 0
0.122449 0 0
0.142857 0 0
0.163265 0 0
0.183673 0 0
0.204082 0 0
0.22449 0 0
0.244898 0 0
0.265306 0 0
0.285714 0 0
0.306122 0 0
0.326531 0 0
0.346939 0 0
0.367347 0 0
0.387755 0 0
0.408163 0 0
0.428571 0 0
0.44898 0 0
0.469388 0 0
0.489796 0 0
0.510204 0 0
0.530612 0 0
0.55102 0 0
0.571429 0 0
0.591837 0 0
0.612245 0 0
0.632653 0 0
0.653061 0 0
0.673469 0 0
0.693878 0 0
0.714286 0 0
0.734694 0 0
0.755102 0 0
0.77551 0 0
0.795918 0 0
0.816327 0 0
0.836735 0 0
0.857143 0 0
0.877551 0 0
0.897959 0 0
0.918367 0 0
0.938776 0 0
0.959184 0 0
0.979592 0 0
1 0.0204082 0
1 0.0408163 0
1 0.0612245 0
1 0.0816327 0
1 0.102041 0
1 0.122449 0
1 0.142857 0
1 0.163265 0
1 0.183673 0
1 0.204082 0
1 0.22449 0
1 0.244898 0
1 0.265306 0
1 0.285714 0
1 0.306122 0
1 0.326531 0
1 0.346939 0
1 0.367347 0
1 0.387755 0
1 0.408163 0
1 0.428571 0
1 0.44898 0
1 0.469388 0
1 0.489796 0
1 0.510204 0
1 0.530612 0
1 0.55102 0
1 0.571429 0
1 0.591837 0
1 0.612245 0
1 0.632653 0
1 0.653061 0
1 0.673469 0
1 0.693878 0
1 0.714286 0
1 0.734694 0
1 0.755102 0
1 0.77551 0
1 0.795918 0
1 0.816327 0
1 0.836735 0
1 0.857143 0
1 0.877551 0
1 0.897959 0
1 0.918367 0
1 0.938776 0
1 0.959184 0
1 0.979592 0
0.979592 1 0
0.959184 1 0
0.938776 1 0
0.918367 1 0
0.897959 1 0
0.877551 1 0
0.857143 1 0
0.836735 1 0
0.816327 1 0
0.795918 1 0
0.77551 1 0
0.755102 1 0
0.734694 1 0
0.714286 1 0
0.693878 1 0
0.673469 1 0
0.653061 1 0
0.632653 1 0
0.612245 1 0
0.591837 1 0
0.571429 1 0
0.55102 1 0
0.530612 1 0
0.510204 1 0
0.489796 1 0
0.469388 1 0
0.44898 1 0
0.428571 1 0
0.408163 1 0
0.387755 1 0
0.367347 1 0
0.346939 1 0
0.326531 1 0
0.306122 1 0
0.285714 1 0
0.265306 1 0
0.244898 1 0
0.22449 1 0
0.204082 1 0
0.183673 1 0
0.163265 1 0
0.142857 1 0
0.122449 1 0
0.102041 1 0
0.0816327 1 0
0.0612245 1 0
0.0408163 1 0
0.0204082 1 0
0 0.979592 0
0 0.959184 0
0 0.938776 0
0 0.918367 0
0 0.897959 0
0 0.877551 0
0 0.857143 0
0 0.836735 0
0 0.816327 0
0 0.795918 0
0 0.77551 0
0 0.755102 0
0 0.734694 0
0 0.714286 0
0 0.693878 0
0 0.673469 0
0 0.653061 0
0 0.632653 0
0 0.612245 0
0 0.591837 0
0 0.571429 0
0 0.55102 0
0 0.530612 0
0 0.510204 0
0 0.489796 0
0 0.469388 0
0 0.44898 0
0 0.428571 0
0 0.408163 0
0 0.387755 0
0 0.367347 0
0 0.346939 0
0 0.326531 0
0 0.306122 0
0 0.285714 0
0 0.265306 0
0 0.244898 0
0 0.22449 0
0 0.204082 0
0 0.183673 0
0 0.163265 0
0 0.142857 0
0 0.122449 0
0 0.102041 0
0 0.0816327 0
0 0.0612245 0
0 0.0408163 0
0 0.0204082 0
0.0204082 0.979592 0
0.0204082 0.959184 0
0.0204082 0.938776 0
0.0204082 0.918367 0
0.0204082 0.897959 0
0.0204082 0.877551 0
0.0204082 0.857143 0
0.0204082 0.836735 0
0.0204082 0.816327 0
0.0204082 0.795918 0
0.0204082 0.77551 0
0.0204082 0.755102 0
0.0204082 0.734694 0
0.0204082 0.714286 0
0.0204082 0.693878 0
0.0204082 0.673469 0
0.0204082 0.653061 0
0.0204082 0.632653 0
0.0204082 0.612245 0
0.0204082 0.591837 0
0.0204082 0.571429 0
0.0204082 0.55102 0
0.0204082 0.530612 0
0.0204082 0.510204 0
0.0204082 0.489796 0
0.0204082 0.469388 0
0.0204082 0.44898 0
0.0204082 0.428571 0
0.0204082 0.408163 0
0.0204082 0.387755 0
0.0204082 0.367347 0
0.0204082 0.346939 0
0.0204082 0.326531 0
0.0204082 0.306122 0
0.0204082 0.285714 0
0.0204082 0.265306 0
0.0204082 0.244898 0
0.0204082 0.22449 0
0.0204082 0.204082 0
0.0204082 0.183673 0
0.0204082 0.163265 0
0.0204082 0.142857 0
0.0204082 0.122449 0
0.0204082 0.102041 0
0.0204082 0.0816327 0
0.0204082 0.0612245 0
0.0204082 0.0408163 0
0.0204082 0.0204082 0
0.0408163 0.979592 0
0.0408163 0.959184 0
0.0408163 0.938776 0
0.0408163 0.918367 0
0.0408163 0.897959 0
0.0408163 0.877551 0
0.0408163 0.857143 0
0.0408163 0.836735 0
0.0408163 0.816327 0
0.0408163 0.795918 0
0.0408163 0.77551 0
0.0408163 0.755102 0
0.0408163 0.734694 0
0.0408163 0.714286 0
0.0408163 0.693878 0
0.0408163 0.673469 0
0.0408163 0.653061 0
0.0408163 0.632653 0
0.0408163 0.612245 0
0.0408163 0.591837 0
0.0408163 0.571429 0
0.0408163 0.55102 0
0.0408163 0.530612 0
0.0408163 0.510204 0
0.0408163 0.489796 0
0.0408163 0.469388 0
0.0408163 0.44898 0
0.0408163 0.428571 0
0.0408163 0.408163 0
0.0408163 0.387755 0
0.0408163 0.367347 0
0.0408163 0.346939 0
0.0408163 0.326531 0
0.0408163 0.306122 0
0.0408163 0.285714 0
0.0408163 0.265306 0
0.0408163 0.244898 0
0.0408163 0.22449 0
0.0408163 0.204082 0
0.0408163 0.183673 0
0.0408163 0.163265 0
0.0408163 0.142857 0
0.0408163 0.122449 0
0.0408163 0.102041 0
0.0408163 0.0816327 0
0.0408163 0.0612245 0
0.0408163 0.0408163 0
0.0408163 0.0204082 0
0.0612245 0.979592 0
0.0612245 0.959184 0
0.0612245 0.938776 0
0.0612245 0.918367 0
0.0612245 0.897959 0
0.0612245 0.877551 0
0.0612245 0.857143 0
0.0612245 0.836735 0
0.0612245 0.816327 0
0.0612245 0.795918 0
0.0612245 0.77551 0
0.0612245 0.755102 0
0.0612245 0.734694 0
0.0612245 0.714286 0
0.0612245 0.693878 0
0.0612245 0.673469 0
0.0612245 0.653061 0
0.0612245 0.632653 0
0.0612245 0.612245 0
0.0612245 0.591837 0
0.0612245 0.571429 0
0.0612245 0.55102 0
0.0612245 0.530612 0
0.0612245 0.510204 0
0.0612245 0.489796 0
0.0612245 0.469388 0
0.0612245 0.44898 0
0.0612245 0.428571 0
0.0612245 0.408163 0
0.0612245 0.387755 0
0.0612245 0.367347 0
0.0612245 0.346939 0
0.0612245 0.326531 0
0.0612245 0.306122 0
0.0612245 0.285714 0
0.0612245 0.265306 0
0.0612245 0.244898 0
0.0612245 0.22449 0
0.0612245 0.204082 0
0.0612245 0.183673 0
0.0612245 0.163265 0
0.0612245 0.142857 0
0.0612245 0.122449 0
0.0612245 0.102041 0
0.0612245 0.0816327 0
0.0612245 0.0612245 0
0.0612245 0.0408163 0
0.0612245 0.0204082 0
0.0816327 0.979592 0
0.0816327 0.959184 0
0.0816327 0.938776 0
0.0816327 0.918367 0
0.0816327 0.897959 0
0.0816327 0.877551 0
0.0816327 0.857143 0
0.0816327 0.836735 0
0.0816327 0.816327 0
0.0816327 0.795918 0
0.0816327 0.77551 0
0.0816327 0.755102 0
0.0816327 0.734694 0
0.0816327 0.714286 0
0.0816327 0.693878 0
0.0816327 0.673469 0
0.0816327 0.653061 0
0.0816327 0.632653 0
0.0816327 0.612245 0
0.0816327 0.591837 0
0.0816327 0.571429 0
0.0816327 0.55102 0
0.0816327 0.530612 0
0.0816327 0.510204 0
0.0816327 0.489796 0
0.0816327 0.469388 0
0.0816327 0.44898 0
0.0816327 0.428571 0
0.0816327 0.408163 0
0.0816327 0.387755 0
0.0816327 0.367347 0
0.0816327 0.346939 0
0.0816327 0.326531 0
0.0816327 0.306122 0
0.0816327 0.285714 0
0.0816327 0.265306 0
0.0816327 0.244898 0
0.0816327 0.22449 0
0.0816327 0.204082 0
0.0816327 0.183673 0
0.0816327 0.163265 0
0.0816327 0.142857 0
0.0816327 0.122449 0
0.0816327 0.102041 0
0.0816327 0.0816327 0
0.0816327 0.0612245 0
0.0816327 0.0408163 0
0.0816327 0.0204082 0
0.102041 0.979592 0
0.102041 0.959184 0
0.102041 0.938776 0
0.102041 0.918367 0
0.102041 0.897959 0
0.102041 0.877551 0
0.102041 0.857143 0
0.102041 0.836735 0
0.102041 0.816327 0
0.102041 0.795918 0
0.102041 0.77551 0
0.102041 0.755102 0
0.102041 0.734694 0
0.102041 0.714286 0
0.102041 0.693878 0
0.102041 0.673469 0
0.102041 0.653061 0
0.102041 0.632653 0
0.102041 0.612245 0
0.102041 0.591837 0
0.102041 0.571429 0
0.102041 0.55102 0
0.102041 0.530612 0
0.102041 0.510204 0
0.102041 0.489796 0
0.102041 0.469388 0
0.102041 0.44898 0
0.102041 0.428571 0
0.102041 0.408163 0
0.102041 0.387755 0
0.102041 0.367347 0
0.102041 0.346939 0
0.102041 0.326531 0
0.102041 0.306122 0
0.102041 0.285714 0
0.102041 0.265306 0
0.102041 0.244898 0
0.102041 0.22449 0
0.102041 0.204082 0
0.102041 0.183673 0
0.102041 0.163265 0
0.102041 0.142857 0
0.102041 0.122449 0
0.102041 0.102041 0
0.102041 0.0816327 0
0.102041 0.0612245 0
0.102041 0.0408163 0
0.102041 0.0204082 0
0.122449 0.979592 0
0.122449 0.959184 0
0.122449 0.938776 0
0.122449 0.918367 0
0.122449 0.897959 0
0.122449 0.877551 0
0.122449 0.857143 0
0.122449 0.836735 0
0.122449 0.816327 0
0.122449 0.795918 0
0.122449 0.77551 0
0.122449 0.755102 0
0.122449 0.734694 0
0.122449 0.714286 0
0.122449 0.693878 0
0.122449 0.673469 0
0.122449 0.653061 0
0.122449 0.632653 0
0.122449 0.612245 0
0.122449 0.591837 0
0.122449 0.571429 0
0.122449 0.55102 0
0.122449 0.530612 0
0.122449 0.510204 0
0.122449 0.489796 0
0.122449 0.469388 0
0.122449 0.44898 0
0.122449 0.428571 0
0.122449 0.408163 0
0.122449 0.387755 0
0.122449 0.367347 0
0.122449 0.346939 0
0.122449 0.326531 0
0.122449 0.306122 0
0.122449 0.285714 0
0.122449 0.265306 0
0.122449 0.244898 0
0.122449 0.22449 0
0.122449 0.204082 0
0.122449 0.183673 0
0.122449 0.163265 0
0.122449 0.142857 0
0.122449 0.122449 0
0.122449 0.102041 0
0.122449 0.0816327 0
0.122449 0.0612245 0
0.122449 0.0408163 0
0.122449 0.0204082 0
0.142857 0.979592 0
0.142857 0.959184 0
0.142857 0.938776 0
0.142857 0.918367 0
0.142857 0.897959 0
0.142857 0.877551 0
0.142857 0.857143 0
0.142857 0.836735 0
0.142857 0.816327 0
0.142857 0.795918 0
0.142857 0.77551 0
0.142857 0.755102 0
0.142857 0.734694 0
0.142857 0.714286 0
0.142857 0.693878 0
0.142857 0.673469 0
0.142857 0.653061 0
0.142857 0.632653 0
0.142857 0.612245 0
0.142857 0.591837 0
0.142857 0.571429 0
0.142857 0.55102 0
0.142857 0.530612 0
0.142857 0.510204 0
0.142857 0.489796 0
0.142857 0.469388 0
0.142857 0.44898 0
0.142857 0.428571 0
0.142857 0.408163 0
0.142857 0.387755 0
0.142857 0.367347 0
0.142857 0.346939 0
0.142857 0.326531 0
0.142857 0.306122 0
0.142857 0.285714 0
0.142857 0.265306 0
0.142857 0.244898 0
0.142857 0.22449 0
0.142857 0.204082 0
0.142857 0.183673 0
0.142857 0.163265 0
0.142857 0.142857 0
0.142857 0.122449 0
0.142857 0.102041 0
0.142857 0.0816327 0
0.142857 0.0612245 0
0.142857 0.0408163 0
0.142857 0.0204082 0
0.163265 0.979592 0
0.163265 0.959184 0
0.163265 0.938776 0
0.163265 0.918367 0
0.163265 0.897959 0
0.163265 0.877551 0
0.163265 0.857143 0
0.163265 0.836735 0
0.163265 0.816327 0
0.163265 0.795918 0
0.163265 0.77551 0
0.163265 0.755102 0
0.163265 0.734694 0
0.163265 0.714286 0
0.163265 0.693878 0
0.163265 0.673469 0
0.163265 0.653061 0
0.163265 0.632653 0
0.163265 0.612245 0
0.163265 0.591837 0
0.163265 0.571429 0
0.163265 0.55102 0
[...]
CELL_DATA 2401
VECTORS velocity double
0.257355 0.157464 0
-0.0027091 0.264584 0
-0.0323167 0.205453 0
-0.0253928 0.150562 0
-0.0160693 0.113008 0
-0.00970968 0.0876326 0
-0.00593287 0.0705436 0
-0.0037466 0.0588366 0
-0.00246224 0.0506035 0
-0.00168386 0.044658 0
-0.00119552 0.0402521 0
-0.000879791 0.0369011 0
-0.000671292 0.0342809 0
-0.000532119 0.0321693 0
-0.000439289 0.03041 0
-0.000378223 0.0288917 0
-0.000339289 0.027534 0
-0.000315888 0.026279 0
-0.000303355 0.0250849 0
-0.0002983 0.0239221 0
-0.000298204 0.0227702 0
-0.00030116 0.0216159 0
-0.00030571 0.0204515 0
-0.000310729 0.0192734 0
-0.00031536 0.0180816 0
-0.000318958 0.0168782 0
-0.000321052 0.0156678 0
-0.000321319 0.0144558 0
-0.000319555 0.0132489 0
-0.000315659 0.0120543 0
-0.000309611 0.0108793 0
-0.000301452 0.00973134 0
-0.000291271 0.0086176 0
-0.000279184 0.007545 0
-0.000265324 0.00652007 0
-0.000249822 0.0055489 0
-0.000232797 0.00463717 0
-0.000214344 0.0037902 0
-0.000194516 0.00301298 0
-0.000173319 0.00231031 0
-0.000150695 0.00168688 0
-0.000126512 0.00114742 0
-0.000100574 0.000696682 0
-7.26618e-05 0.000339493 0
-4.27085e-05 8.03049e-05 0
-1.12971e-05 -7.78182e-05 0
1.9047e-05 -0.000135576 0
4.12016e-05 -0.000106222 0
3.6511e-05 -3.63257e-05 0
0.3406 0.122954 0
-0.000668778 0.249403 0
-0.0652767 0.271593 0
-0.0633092 0.252114 0
-0.0485728 0.221581 0
-0.0350081 0.191693 0
-0.0249458 0.16626 0
-0.0179079 0.145782 0
-0.0130515 0.129647 0
-0.00969068 0.116998 0
-0.00734708 0.107033 0
-0.00570227 0.0990885 0
-0.004545 0.0926411 0
-0.00373319 0.0872868 0
-0.00316937 0.082718 0
-0.00278514 0.0787017 0
-0.00253148 0.0750624 0
-0.00237256 0.0716692 0
-0.00228171 0.0684253 0
-0.00223875 0.065261 0
-0.00222818 0.0621276 0
-0.00223801 0.0589929 0
-0.00225889 0.055838 0
-0.00228354 0.0526542 0
-0.00230633 0.049441 0
-0.00232299 0.0462042 0
-0.00233037 0.0429543 0
-0.00232624 0.0397052 0
-0.00230917 0.0364733 0
-0.00227837 0.0332762 0
-0.00223355 0.0301325 0
-0.00217485 0.0270607 0
-0.00210271 0.0240792 0
-0.00201775 0.0212055 0
-0.00192072 0.0184565 0
-0.00181239 0.0158479 0
-0.00169352 0.0133945 0
-0.00156475 0.0111101 0
-0.00142659 0.00900791 0
-0.00127937 0.00710008 0
-0.00112327 0.00539835 0
-0.000958372 0.00391383 0
-0.000784826 0.00265682 0
-0.00060331 0.00163623 0
-0.000415961 0.000858205 0
-0.000228475 0.000323476 0
-5.44057e-05 2.23948e-05 0
7.76115e-05 -7.59663e-05 0
0.000105675 -4.00707e-05 0
0.500853 0.0767908 0
0.0990393 0.1832 0
-0.0394262 0.249187 0
-0.073509 0.265651 0
-0.0719706 0.25733 0
-0.0606517 0.239533 0
-0.048377 0.219526 0
-0.0377856 0.200599 0
-0.0293674 0.183959 0
-0.0229211 0.169814 0
-0.0180812 0.157947 0
-0.0144944 0.147992 0
-0.0118667 0.139563 0
-0.0099669 0.132309 0
-0.00861713 0.12593 0
-0.0076814 0.120181 0
-0.0070556 0.114867 0
-0.00665969 0.109838 0
-0.00643161 0.104978 0
-0.00632296 0.100203 0
-0.00629567 0.0954529 0
-0.00631972 0.0906898 0
-0.00637139 0.0858909 0
-0.00643203 0.0810473 0
-0.00648712 0.0761608 0
-0.00652556 0.0712412 0
-0.00653909 0.066305 0
-0.00652189 0.061373 0
-0.00647013 0.0564693 0
-0.00638165 0.0516198 0
-0.00625563 0.0468516 0
-0.0060923 0.0421917 0
-0.00589269 0.0376667 0
-0.00565836 0.0333024 0
-0.00539119 0.0291233 0
-0.00509318 0.0251525 0
-0.0047663 0.0214119 0
-0.00441235 0.0179217 0
-0.00403287 0.0147009 0
-0.00362917 0.0117673 0
-0.00320238 0.00913739 0
-0.00275377 0.00682637 0
-0.00228526 0.00484747 0
-0.00180065 0.00321111 0
-0.00130767 0.00192305 0
-0.000822046 0.00098142 0
-0.000374644 0.000370967 0
-2.13514e-05 5.56611e-05 0
0.000132643 -1.71093e-05 0
0.609985 0.0480335 0
0.195566 0.133945 0
0.0112467 0.209398 0
-0.0581738 0.2464 0
-0.0761804 0.256934 0
-0.0737903 0.253504 0
-0.0644663 0.243294 0
-0.0538299 0.230549 0
-0.0440621 0.217526 0
-0.0358547 0.205273 0
-0.0292788 0.19418 0
-0.0241702 0.184286 0
-0.0202959 0.175472 0
-0.0174239 0.167549 0
-0.0153476 0.160321 0
-0.013893 0.153603 0
-0.0129169 0.147236 0
-0.0123031 0.14109 0
-0.0119574 0.135062 0
-0.011804 0.129075 0
-0.0117817 0.123077 0
-0.0118412 0.117033 0
-0.0119431 0.110925 0
-0.012056 0.10475 0
-0.0121553 0.098515 0
-0.0122219 0.0922358 0
-0.0122419 0.0859352 0
-0.0122052 0.0796405 0
-0.0121052 0.0733826 0
-0.0119383 0.0671942 0
-0.0117031 0.0611088 0
-0.0114 0.0551602 0
-0.0110309 0.0493811 0
-0.0105984 0.0438032 0
-0.010106 0.0384569 0
-0.00955721 0.0333705 0
-0.00895562 0.0285708 0
-0.00830462 0.0240827 0
-0.00760729 0.0199293 0
-0.00686647 0.0161322 0
-0.00608498 0.0127109 0
-0.00526614 0.00968295 0
-0.00441481 0.00706326 0
-0.00353919 0.0048629 0
-0.00265389 0.00308756 0
-0.00178526 0.00173508 0
-0.000979986 0.000789839 0
-0.000315709 0.000220736 0
7.37491e-05 1.27532e-05 0
0.680359 0.0301477 0
0.278313 0.0981701 0
0.0694537 0.170969 0
-0.0276296 0.217478 0
-0.0653532 0.240954 0
-0.0747075 0.249471 0
-0.0715557 0.248949 0
-0.0636628 0.243489 0
-0.0546978 0.235665 0
-0.0462937 0.226962 0
-0.0390809 0.218178 0
-0.0332086 0.209686 0
-0.0286073 0.201616 0
-0.0251201 0.193966 0
-0.0225661 0.186669 0
-0.0207696 0.179632 0
-0.0195727 0.17276 0
-0.0188386 0.165968 0
-0.0184512 0.159187 0
-0.0183133 0.152362 0
-0.0183445 0.145458 0
-0.0184784 0.138456 0
-0.0186613 0.131348 0
-0.0188496 0.124142 0
-0.0190092 0.116852 0
-0.0191134 0.109503 0
-0.0191425 0.102125 0
-0.0190826 0.0947508 0
-0.0189246 0.0874186 0
-0.0186635 0.0801666 0
-0.0182976 0.0730339 0
-0.0178278 0.0660591 0
-0.0172571 0.0592797 0
-0.0165897 0.0527319 0
-0.0158308 0.0464497 0
-0.0149857 0.0404653 0
-0.0140601 0.0348087 0
-0.0130594 0.0295079 0
-0.0119884 0.0245885 0
-0.0108522 0.0200745 0
-0.00965561 0.0159871 0
-0.00840478 0.0123454 0
-0.00710803 0.00916541 0
-0.00577835 0.00645898 0
-0.00443702 0.004233 0
-0.00311946 0.00248784 0
-0.00188395 0.00121209 0
-0.000821499 0.000386091 0
-7.82627e-05 4.15281e-05 0
0.729747 0.0191768 0
0.348833 0.0730363 0
0.127764 0.139297 0
0.011109 0.188283 0
-0.0443502 0.219665 0
-0.0659768 0.236827 0
-0.070543 0.244304 0
-0.0671496 0.245565 0
-0.0605972 0.243064 0
-0.0533362 0.238411 0
-0.0465448 0.232599 0
-0.0407203 0.226213 0
-0.0360044 0.219567 0
-0.0323612 0.212812 0
-0.0296736 0.206003 0
-0.0277947 0.199142 0
-0.0265743 0.192203 0
-0.0258713 0.185158 0
-0.0255593 0.177976 0
-0.0255284 0.170637 0
-0.0256844 0.16313 0
-0.0259482 0.155454 0
-0.0262543 0.14762 0
-0.0265496 0.139646 0
-0.0267914 0.13156 0
-0.026947 0.123394 0
-0.0269919 0.115187 0
-0.0269088 0.10698 0
-0.026687 0.0988153 0
-0.0263206 0.0907375 0
-0.0258083 0.0827902 0
-0.0251518 0.0750159 0
-0.0243557 0.0674557 0
-0.0234262 0.0601488 0
-0.0223703 0.0531319 0
-0.021196 0.0464395 0
-0.019911 0.0401035 0
-0.0185229 0.0341536 0
-0.0170389 0.0286168 0
-0.0154663 0.0235182 0
-0.0138125 0.0188802 0
-0.0120865 0.0147227 0
-0.0103001 0.0110627 0
-0.00847057 0.00791362 0
-0.00662465 0.00528489 0
-0.00480404 0.00318179 0
-0.00307354 0.00160034 0
-0.00152916 0.000535587 0
-0.000316121 6.62484e-05 0
0.765752 0.0125785 0
0.408258 0.0556983 0
0.182753 0.114549 0
0.0526399 0.162663 0
-0.0171309 0.197872 0
-0.0502293 0.2208 0
-0.0629346 0.234285 0
-0.0649678 0.241091 0
-0.0618872 0.243349 0
-0.0567774 0.242588 0
-0.0512879 0.23985 0
-0.0462449 0.235817 0
-0.0420088 0.230916 0
-0.0386833 0.225406 0
-0.0362362 0.219436 0
-0.0345691 0.213087 0
-0.033556 0.206402 0
-0.0330655 0.199402 0
-0.0329716 0.192101 0
-0.0331594 0.184512 0
-0.0335276 0.176653 0
-0.033989 0.168544 0
-0.0344701 0.160215 0
-0.0349106 0.151699 0
-0.0352622 0.143035 0
-0.0354872 0.134269 0
-0.0355581 0.125445 0
-0.0354556 0.116613 0
-0.035168 0.107822 0
-0.0346897 0.0991207 0
-0.0340202 0.0905568 0
-0.0331632 0.0821765 0
-0.032125 0.0740233 0
-0.0309142 0.0661386 0
-0.0295407 0.0585606 0
-0.0280147 0.051325 0
-0.0263466 0.0444646 0
-0.0245465 0.0380097 0
-0.0226241 0.0319879 0
-0.020589 0.0264245 0
-0.0184512 0.0213425 0
-0.0162223 0.0167624 0
-0.013917 0.0127023 0
-0.0115559 0.00917779 0
-0.0091692 0.00620194 0
-0.00680162 0.00378646 0
-0.00451946 0.00193657 0
-0.00241662 0.000662737 0
-0.000627946 8.62539e-05 0
0.792789 0.00859585 0
0.458319 0.0436274 0
0.233247 0.0954224 0
0.0943242 0.141144 0
0.0137635 0.17744 0
-0.0296646 0.204004 0
-0.050318 0.221773 0
-0.0581339 0.232889 0
-0.0591315 0.239103 0
-0.0568539 0.241775 0
-0.0533273 0.241901 0
-0.0496613 0.240182 0
-0.046419 0.237101 0
-0.0438432 0.23298 0
-0.0419935 0.228032 0
-0.0408296 0.222399 0
-0.0402601 0.216178 0
-0.0401724 0.209436 0
-0.040449 0.202224 0
-0.0409769 0.19459 0
-0.0416532 0.186577 0
-0.0423871 0.178229 0
-0.0431008 0.169593 0
-0.0437299 0.16072 0
-0.0442224 0.151661 0
-0.0445384 0.142473 0
-0.0446484 0.13321 0
-0.0445329 0.123928 0
-0.0441805 0.114683 0
-0.0435869 0.105528 0
-0.0427535 0.0965145 0
-0.0416863 0.0876917 0
-0.0403945 0.0791052 0
-0.0388897 0.0707975 0
-0.0371846 0.0628076 0
-0.0352926 0.0551715 0
-0.0332268 0.0479222 0
-0.031 0.0410896 0
-0.0286244 0.0347011 0
-0.0261119 0.0287817 0
-0.0234748 0.0233545 0
-0.0207268 0.0184405 0
-0.0178846 0.0140589 0
-0.0149707 0.0102279 0
-0.0120165 0.00696495 0
-0.00906657 0.0042887 0
-0.00618434 0.00221402 0
-0.00345617 0.00076597 0
-0.0010005 0.000101787 0
0.813804 0.00614982 0
0.50082 0.0350765 0
0.279092 0.0806378 0
0.134707 0.123397 0
0.0458333 0.159443 0
-0.00606405 0.187755 0
-0.0340914 0.208444 0
-0.0476746 0.222755 0
-0.0530283 0.232102 0
-0.0539974 0.237642 0
-0.0528916 0.240276 0
-0.0510517 0.240677 0
-0.0492163 0.239337 0
-0.0477555 0.236608 0
-0.0468182 0.232744 0
-0.046424 0.227926 0
-0.0465209 0.222291 0
-0.04702 0.215941 0
-0.0478176 0.208964 0
-0.0488078 0.201431 0
-0.04989 0.193413 0
-0.0509737 0.184974 0
-0.05198 0.17618 0
-0.052843 0.167097 0
-0.0535098 0.157791 0
-0.0539398 0.148326 0
-0.0541039 0.138768 0
-0.0539835 0.129181 0
-0.0535691 0.119624 0
-0.0528588 0.110157 0
-0.0518571 0.100834 0
-0.0505732 0.091707 0
-0.0490199 0.0828226 0
-0.0472125 0.0742241 0
-0.0451671 0.0659508 0
-0.0429005 0.0580382 0
-0.0404289 0.0505186 0
-0.0377679 0.0434211 0
-0.0349322 0.0367722 0
-0.0319357 0.0305962 0
-0.0287926 0.0249157 0
-0.0255178 0.019752 0
-0.0221293 0.0151256 0
-0.0186496 0.0110572 0
-0.0151091 0.0075687 0
-0.0115494 0.00468571 0
-0.00802747 0.00243221 0
-0.00461841 0.000846077 0
-0.00142085 0.000113389 0
0.830673 0.00460731 0
0.537282 0.028885 0
0.320589 0.0690987 0
0.173189 0.10876 0
0.0780883 0.143797 0
0.0193298 0.172648 0
-0.0153766 0.195176 0
-0.0344988 0.211779 0
-0.044265 0.223523 0
-0.0486955 0.231371 0
-0.0503028 0.236111 0
-0.0506073 0.238364 0
-0.0504926 0.238602 0
-0.0504396 0.237184 0
-0.0506779 0.234381 0
-0.0512844 0.2304 0
-0.0522463 0.225403 0
-0.0535007 0.219521 0
-0.0549602 0.212865 0
-0.0565288 0.205533 0
-0.0581114 0.197614 0
-0.0596203 0.189194 0
-0.0609782 0.180355 0
-0.0621203 0.171176 0
-0.0629946 0.161736 0
-0.0635618 0.152111 0
-0.063795 0.142375 0
-0.0636782 0.132598 0
-0.0632051 0.122848 0
-0.0623775 0.113186 0
-0.0612042 0.103671 0
-0.0596986 0.0943555 0
-0.0578781 0.0852883 0
-0.0557621 0.0765126 0
-0.053371 0.0680671 0
-0.0507252 0.0599865 0
-0.0478443 0.0523016 0
-0.0447467 0.0450401 0
-0.0414495 0.0382271 0
-0.0379686 0.0318857 0
-0.0343191 0.0260376 0
-0.0305168 0.0207042 0
-0.0265791 0.0159071 0
-0.0225273 0.0116691 0
-0.0183888 0.00801623 0
-0.0141997 0.00498049 0
-0.0100079 0.00259385 0
-0.00587458 0.000904877 0
-0.00187708 0.000121647 0
0.844588 0.00360163 0
0.568899 0.024296 0
0.35816 0.0599856 0
0.209486 0.096657 0
0.109763 0.130295 0
0.0453235 0.159031 0
0.00500465 0.1824 0
-0.0193425 0.200596 0
-0.0334479 0.214122 0
-0.0414191 0.223775 0
-0.0459068 0.230231 0
-0.0485674 0.234046 0
-0.0504007 0.235659 0
-0.0519798 0.235421 0
-0.0536048 0.233604 0
-0.055404 0.230428 0
-0.0574012 0.226072 0
-0.0595589 0.220684 0
-0.0618067 0.214395 0
-0.0640595 0.207321 0
-0.0662297 0.19957 0
-0.0682343 0.191244 0
-0.0699994 0.182438 0
-0.0714628 0.173248 0
-0.0725756 0.163762 0
-0.0733017 0.154067 0
-0.0736177 0.144246 0
-0.0735117 0.134375 0
-0.0729823 0.124526 0
-0.0720365 0.114767 0
-0.0706881 0.105158 0
-0.0689563 0.0957536 0
-0.0668635 0.0866025 0
-0.0644343 0.077748 0
-0.0616937 0.0692278 0
-0.0586665 0.061075 0
-0.0553757 0.0533187 0
-0.0518427 0.0459845 0
-0.0480868 0.0390955 0
-0.0441253 0.0326732 0
-0.039974 0.0267381 0
-0.0356483 0.0213111 0
-0.0311643 0.0164143 0
-0.0265402 0.0120723 0
-0.0217986 0.00831482 0
-0.0169682 0.00517883 0
-0.012086 0.00270305 0
-0.00719761 0.000944485 0
-0.00235852 0.000127099 0
0.856334 0.0029196 0
0.596606 0.0208096 0
0.392265 0.0526825 0
0.243561 0.0865658 0
0.140493 0.118621 0
0.0714004 0.146827 0
0.0262087 0.170466 0
-0.00281221 0.189576 0
-0.0210934 0.204386 0
-0.0325929 0.215406 0
-0.0400384 0.223219 0
-0.0451842 0.228312 0
-0.0491212 0.231087 0
-0.0524976 0.231873 0
-0.0556725 0.230937 0
-0.0588187 0.228501 0
-0.0619923 0.22475 0
-0.0651789 0.219848 0
-0.0683242 0.213936 0
-0.0713546 0.207146 0
-0.07419 0.1996 0
-0.0767532 0.191414 0
-0.078975 0.182697 0
-0.0807975 0.173555 0
-0.082176 0.164088 0
-0.0830792 0.154393 0
-0.0834887 0.144559 0
-0.0833986 0.13467 0
-0.0828134 0.124802 0
-0.0817465 0.115028 0
-0.0802184 0.105408 0
-0.0782548 0.0959993 0
-0.0758843 0.0868505 0
-0.0731374 0.0780038 0
-0.0700444 0.0694956 0
-0.0666347 0.0613569 0
-0.0629351 0.0536143 0
-0.0589701 0.0462911 0
-0.054761 0.0394077 0
-0.0503261 0.0329835 0
-0.0456812 0.0270374 0
-0.0408406 0.0215891 0
-0.0358177 0.0166607 0
-0.0306265 0.0122781 0
-0.0252833 0.00847331 0
-0.0198078 0.00528737 0
-0.0142245 0.00276413 0
-0.00856253 0.000966912 0
-0.00285574 0.000130187 0
0.866436 0.0024369 0
0.621123 0.0180946 0
0.42333 0.046737 0
0.275477 0.0780657 0
0.170057 0.108477 0
0.0971616 0.135894 0
0.047738 0.159432 0
0.0145854 0.178939 0
-0.00764028 0.194599 0
-0.0225908 0.206623 0
-0.0330059 0.215475 0
-0.0407033 0.221584 0
-0.0468428 0.22531 0
-0.0521325 0.226956 0
-0.0569791 0.226779 0
-0.0615924 0.224995 0
-0.0660557 0.221792 0
-0.0703747 0.21734 0
-0.0745093 0.211791 0
-0.0783962 0.205285 0
-0.0819631 0.197958 0
-0.0851388 0.189936 0
-0.0878594 0.18134 0
-0.0900724 0.172287 0
-0.0917384 0.162887 0
-0.0928322 0.153244 0
-0.093342 0.143455 0
-0.093269 0.133609 0
-0.0926252 0.123789 0
-0.0914318 0.114068 0
-0.0897171 0.10451 0
-0.0875143 0.095172 0
-0.0848595 0.0861019 0
-0.0817896 0.077341 0
-0.0783411 0.0689234 0
-0.0745481 0.0608776 0
-0.0704418 0.0532274 0
-0.0660495 0.0459929 0
-0.0613944 0.0391917 0
-0.0564957 0.0328403 0
-0.0513685 0.0269552 0
-0.046025 0.0215547 0
-0.040475 0.0166601 0
-0.0347273 0.0122976 0
-0.0287904 0.00850044 0
-0.0226737 0.00531245 0
-0.0163883 0.00278103 0
-0.00994643 0.000973866 0
-0.00336035 0.000131249 0
0.875256 0.00208022 0
0.643004 0.0159286 0
0.451728 0.0418173 0
0.305345 0.0708223 0
0.198349 0.0995964 0
0.122354 0.126071 0
0.0692497 0.149251 0
0.0323562 0.168843 0
0.00659158 0.184905 0
-0.0117185 0.19764 0
-0.0250789 0.20726 0
-0.0353517 0.214148 0
-0.0437504 0.218627 0
-0.0510302 0.220973 0
-0.0576359 0.221424 0
-0.0638066 0.220193 0
-0.0696479 0.217464 0
-0.0751818 0.21341 0
-0.08038 0.208189 0
-0.0851881 0.201951 0
-0.0895405 0.194837 0
-0.0933722 0.186986 0
-0.0966249 0.178528 0
-0.099252 0.169589 0
-0.101221 0.160288 0
-0.102513 0.150737 0
-0.103124 0.141039 0
-0.103065 0.13129 0
-0.102355 0.121573 0
-0.101027 0.111966 0
-0.0991153 0.102534 0
-0.0966636 0.0933336 0
-0.0937158 0.084412 0
-0.0903164 0.0758082 0
-0.0865082 0.0675541 0
-0.0823309 0.0596748 0
-0.0778201 0.0521908 0
-0.073006 0.0451184 0
-0.0679137 0.0384719 0
-0.0625626 0.0322643 0
-0.0569668 0.0265094 0
-0.0511357 0.021223 0
-0.0450746 0.0164249 0
-0.038786 0.0121407 0
-0.0322695 0.00840389 0
-0.0255236 0.00525948 0
-0.0185448 0.00275698 0
-0.0113282 0.000966671 0
-0.00386478 0.000130522 0
0.883049 0.00180549 0
0.662678 0.0141598 0
0.477777 0.0376777 0
0.333292 0.0645702 0
0.225328 0.0917488 0
0.146814 0.117188 0
0.0905093 0.139832 0
0.0502345 0.15928 0
0.0211695 0.175487 0
-0.000250938 0.18859 0
-0.0164966 0.198746 0
-0.0293372 0.206198 0
-0.0400201 0.211243 0
-0.0493363 0.21413 0
-0.0577602 0.215081 0
-0.0655534 0.214296 0
-0.0728389 0.211957 0
-0.0796508 0.208237 0
-0.0859702 0.203298 0
-0.0917494 0.197294 0
-0.0969289 0.190376 0
-0.101449 0.18269 0
-0.105257 0.174374 0
-0.108313 0.165564 0
-0.110592 0.156386 0
-0.112082 0.146958 0
-0.112791 0.137389 0
-0.112736 0.127779 0
-0.111949 0.118217 0
-0.110472 0.108779 0
-0.10835 0.0995315 0
-0.105637 0.090531 0
-0.102385 0.081823 0
-0.098648 0.0734437 0
-0.0944749 0.0654219 0
-0.0899116 0.057779 0
-0.0849983 0.0505314 0
-0.0797685 0.0436914 0
-0.0742486 0.0372691 0
-0.0684582 0.0312736 0
-0.0624098 0.0257152 0
-0.0561094 0.0206068 0
-0.0495571 0.0159657 0
-0.0427481 0.0118158 0
-0.0356727 0.00818989 0
-0.0283171 0.0051327 0
-0.0206631 0.0026944 0
-0.012688 0.000946261 0
-0.00436207 0.000128154 0
0.889995 0.00158545 0
0.680471 0.0126819 0
0.501743 0.034134 0
0.359445 0.0590984 0
0.250987 0.0847354 0
0.170435 0.109087 0
0.111341 0.131062 0
0.0680098 0.150186 0
0.0358884 0.166332 0
0.0115485 0.179559 0
-0.0074793 0.190024 0
-0.0228534 0.197848 0
-0.0358191 0.203286 0
-0.0471934 0.206564 0
-0.0574713 0.207884 0
-0.066931 0.207436 0
-0.0757072 0.205398 0
-0.0838426 0.20194 0
-0.0913247 0.197225 0
-0.0981107 0.191415 0
-0.104146 0.184666 0
-0.109375 0.17713 0
-0.113751 0.168954 0
-0.117242 0.16028 0
-0.119828 0.151241 0
-0.12151 0.141961 0
-0.122304 0.132555 0
-0.122238 0.123126 0
-0.121357 0.113763 0
-0.119713 0.104546 0
-0.117364 0.0955396 0
-0.114373 0.0867989 0
-0.110804 0.0783669 0
-0.106718 0.0702771 0
-0.102173 0.0625539 0
-0.0972216 0.0552148 0
-0.0919078 0.0482716 0
-0.0862684 0.0417317 0
-0.0803316 0.0356007 0
-0.0741164 0.0298833 0
-0.0676335 0.0245856 0
-0.0608851 0.0197168 0
-0.0538654 0.0152911 0
-0.0465615 0.0113296 0
-0.0389538 0.00786326 0
-0.0310156 0.00493522 0
-0.0227135 0.00259497 0
-0.0140071 0.000913222 0
-0.00484564 0.000124216 0
0.896229 0.00140271 0
0.696638 0.0114191 0
0.523841 0.0310462 0
0.383918 0.054238 0
0.275333 0.0783883 0
0.19314 0.101619 0
0.13161 0.122828 0
0.0855063 0.141486 0
0.0505447 0.157404 0
0.0234405 0.170579 0
0.00178893 0.181122 0
-0.0160721 0.189152 0
-0.0313031 0.194822 0
-0.0447386 0.198347 0
-0.0568881 0.199911 0
-0.06804 0.199691 0
-0.0783362 0.197861 0
-0.0878245 0.194587 0
-0.0964957 0.190036 0
-0.10431 0.184373 0
-0.111216 0.177759 0
-0.117162 0.170352 0
-0.122108 0.162308 0
-0.126028 0.153773 0
-0.128911 0.144887 0
-0.130769 0.13578 0
-0.131627 0.126568 0
-0.131529 0.117358 0
-0.13053 0.108241 0
-0.128696 0.0992948 0
-0.126098 0.0905848 0
-0.12281 0.0821627 0
-0.118908 0.0740685 0
-0.114461 0.0663317 0
-0.109537 0.0589724 0
-0.104194 0.052003 0
-0.0984816 0.0454302 0
-0.0924394 0.0392565 0
-0.086097 0.033482 0
-0.0794732 0.0281066 0
-0.0725762 0.0231317 0
-0.0654038 0.0185622 0
-0.0579441 0.0144082 0
-0.0501757 0.0106874 0
-0.0420682 0.00742763 0
-0.0335819 0.00466926 0
-0.0246679 0.00245977 0
-0.0152675 0.000867863 0
-0.00530914 0.000118723 0
0.901846 0.00124573 0
0.711374 0.0103157 0
0.544245 0.028306 0
0.406809 0.0498518 0
0.298381 0.072564 0
0.214874 0.0946515 0
0.15121 0.115016 0
0.102586 0.133091 0
0.0649825 0.148638 0
0.0352636 0.161609 0
0.0111013 0.172064 0
-0.0091592 0.180124 0
-0.0266206 0.185874 0
-0.0421048 0.189508 0
-0.0561276 0.191191 0
-0.0689819 0.191091 0
-0.0808122 0.189374 0
-0.0916676 0.186206 0
-0.10154 0.181755 0
-0.110389 0.176188 0
-0.118168 0.169673 0
-0.124827 0.162375 0
-0.130332 0.154452 0
-0.134664 0.146059 0
-0.137823 0.13734 0
-0.139831 0.128428 0
-0.140726 0.119443 0
-0.140567 0.110492 0
-0.139421 0.101667 0
-0.137369 0.0930443 0
-0.134496 0.0846866 0
-0.13089 0.0766426 0
-0.126635 0.0689481 0
-0.121814 0.061628 0
-0.116502 0.0546971 0
-0.110764 0.0481625 0
-0.104654 0.0420251 0
-0.0982167 0.0362818 0
-0.0914814 0.0309272 0
-0.0844666 0.0259559 0
-0.0771778 0.0213639 0
-0.0696084 0.0171512 0
-0.0617398 0.0133234 0
-0.0535418 0.00989378 0
-0.0449729 0.00688593 0
-0.0359802 0.00433643 0
-0.0264987 0.00228946 0
-0.0164515 0.000810304 0
-0.00574627 0.000111648 0
0.906918 0.0011065 0
0.724828 0.00932958 0
0.563091 0.0258274 0
0.428195 0.0458265 0
0.320143 0.0671383 0