# vtk DataFile Version 3.0
Malha 2D com triângulos e temperatura
ASCII
DATASET UNSTRUCTURED_GRID

POINTS 2500 double
0 0 0
1 0 0
1 1 0
0 1 0
0.0204082 0 0
0.0408163 0 0
0.0612245 0 0
0.0816327 0 0
0.102041 0 0
0.122449 0 0
0.142857 0 0
0.163265 0 0
0.183673 0 0
0.204082 0 0
0.22449 0 0
0.244898 0 0
0.265306 0 0
0.285714 0 0
0.306122 0 0
0.326531 0 0
0.346939 0 0
0.367347 0 0
0.387755 0 0
0.408163 0 0
0.428571 0 0
0.44898 0 0
0.469388 0 0
0.489796 0 0
0.510204 0 0
0.530612 0 0
0.55102 0 0
0.571429 0 0
0.591837 0 0
0.612245 0 0
0.632653 0 0
0.653061 0 0
0.673469 0 0
0.693878 0 0
0.714286 0 0
0.734694 0 0
0.755102 0 0
0.77551 0 0
0.795918 0 0
0.816327 0 0
0.836735 0 0
0.857143 0 0
0.877551 0 0
0.897959 0 0
0.918367 0 0
0.938776 0 0
0.959184 0 0
0.979592 0 0
1 0.0204082 0
1 0.0408163 0
1 0.0612245 0
1 0.0816327 0
1 0.102041 0
1 0.122449 0
1 0.142857 0
1 0.163265 0
1 0.183673 0
1 0.204082 0
1 0.22449 0
1 0.244898 0
1 0.265306 0
1 0.285714 0
1 0.306122 0
1 0.326531 0
1 0.346939 0
1 0.367347 0
1 0.387755 0
1 0.408163 0
1 0.428571 0
1 0.44898 0
1 0.469388 0
1 0.489796 0
1 0.510204 0
1 0.530612 0
1 0.55102 0
1 0.571429 0
1 0.591837 0
1 0.612245 0
1 0.632653 0
1 0.653061 0
1 0.673469 0
1 0.693878 0
1 0.714286 0
1 0.734694 0
1 0.755102 0
1 0.77551 0
1 0.795918 0
1 0.816327 0
1 0.836735 0
1 0.857143 0
1 0.877551 0
1 0.897959 0
1 0.918367 0
1 0.938776 0
1 0.959184 0
1 0.979592 0
0.979592 1 0
0.959184 1 0
0.938776 1 0
0.918367 1 0
0.897959 1 0
0.877551 1 0
0.857143 1 0
0.836735 1 0
0.816327 1 0
0.795918 1 0
0.77551 1 0
0.755102 1 0
0.734694 1 0
0.714286 1 0
0.693878 1 0
0.673469 1 0
0.653061 1 0
0.632653 1 0
0.612245 1 0
0.591837 1 0
0.571429 1 0
0.55102 1 0
0.530612 1 0
0.510204 1 0
0.489796 1 0
0.469388 1 0
0.44898 1 0
0.428571 1 0
0.408163 1 0
0.387755 1 0
0.367347 1 0
0.346939 1 0
0.326531 1 0
0.306122 1 0
0.285714 1 0
0.265306 1 0
0.244898 1 0
0.22449 1 0
0.204082 1 0
0.183673 1 0
0.163265 1 0
0.142857 1 0
0.122449 1 0
0.102041 1 0
0.0816327 1 0
0.0612245 1 0
0.0408163 1 0
0.0204082 1 0
0 0.979592 0
0 0.959184 0
0 0.938776 0
0 0.918367 0
0 0.897959 0
0 0.877551 0
0 0.857143 0
0 0.836735 0
0 0.816327 0
0 0.795918 0
0 0.77551 0
0 0.755102 0
0 0.734694 0
0 0.714286 0
0 0.693878 0
0 0.673469 0
0 0.653061 0
0 0.632653 0
0 0.612245 0
0 0.591837 0
0 0.571429 0
0 0.55102 0
0 0.530612 0
0 0.510204 0
0 0.489796 0
0 0.469388 0
0 0.44898 0
0 0.428571 0
0 0.408163 0
0 0.387755 0
0 0.367347 0
0 0.346939 0
0 0.326531 0
0 0.306122 0
0 0.285714 0
0 0.265306 0
0 0.244898 0
0 0.22449 0
0 0.204082 0
0 0.183673 0
0 0.163265 0
0 0.142857 0
0 0.122449 0
0 0.102041 0
0 0.0816327 0
0 0.0612245 0
0 0.0408163 0
0 0.0204082 0
0.0204082 0.979592 0
0.0204082 0.959184 0
0.0204082 0.938776 0
0.0204082 0.918367 0
0.0204082 0.897959 0
0.0204082 0.877551 0
0.0204082 0.857143 0
0.0204082 0.836735 0
0.0204082 0.816327 0
0.0204082 0.795918 0
0.0204082 0.77551 0
0.0204082 0.755102 0
0.0204082 0.734694 0
0.0204082 0.714286 0
0.0204082 0.693878 0
0.0204082 0.673469 0
0.0204082 0.653061 0
0.0204082 0.632653 0
0.0204082 0.612245 0
0.0204082 0.591837 0
0.0204082 0.571429 0
0.0204082 0.55102 0
0.0204082 0.530612 0
0.0204082 0.510204 0
0.0204082 0.489796 0
0.0204082 0.469388 0
0.0204082 0.44898 0
0.0204082 0.428571 0
0.0204082 0.408163 0
0.0204082 0.387755 0
0.0204082 0.367347 0
0.0204082 0.346939 0
0.0204082 0.326531 0
0.0204082 0.306122 0
0.0204082 0.285714 0
0.0204082 0.265306 0
0.0204082 0.244898 0
0.0204082 0.22449 0
0.0204082 0.204082 0
0.0204082 0.183673 0
0.0204082 0.163265 0
0.0204082 0.142857 0
0.0204082 0.122449 0
0.0204082 0.102041 0
0.0204082 0.0816327 0
0.0204082 0.0612245 0
0.0204082 0.0408163 0
0.0204082 0.0204082 0
0.0408163 0.979592 0
0.0408163 0.959184 0
0.0408163 0.938776 0
0.0408163 0.918367 0
0.0408163 0.897959 0
0.0408163 0.877551 0
0.0408163 0.857143 0
0.0408163 0.836735 0
0.0408163 0.816327 0
0.0408163 0.795918 0
0.0408163 0.77551 0
0.0408163 0.755102 0
0.0408163 0.734694 0
0.0408163 0.714286 0
0.0408163 0.693878 0
0.0408163 0.673469 0
0.0408163 0.653061 0
0.0408163 0.632653 0
0.0408163 0.612245 0
0.0408163 0.591837 0
0.0408163 0.571429 0
0.0408163 0.55102 0
0.0408163 0.530612 0
0.0408163 0.510204 0
0.0408163 0.489796 0
0.0408163 0.469388 0
0.0408163 0.44898 0
0.0408163 0.428571 0
0.0408163 0.408163 0
0.0408163 0.387755 0
0.0408163 0.367347 0
0.0408163 0.346939 0
0.0408163 0.326531 0
0.0408163 0.306122 0
0.0408163 0.285714 0
0.0408163 0.265306 0
0.0408163 0.244898 0
0.0408163 0.22449 0
0.0408163 0.204082 0
0.0408163 0.183673 0
0.0408163 0.163265 0
0.0408163 0.142857 0
0.0408163 0.122449 0
0.0408163 0.102041 0
0.0408163 0.0816327 0
0.0408163 0.0612245 0
0.0408163 0.0408163 0
0.0408163 0.0204082 0
0.0612245 0.979592 0
0.0612245 0.959184 0
0.0612245 0.938776 0
0.0612245 0.918367 0
0.0612245 0.897959 0
0.0612245 0.877551 0
0.0612245 0.857143 0
0.0612245 0.836735 0
0.0612245 0.816327 0
0.0612245 0.795918 0
0.0612245 0.77551 0
0.0612245 0.755102 0
0.0612245 0.734694 0
0.0612245 0.714286 0
0.0612245 0.693878 0
0.0612245 0.673469 0
0.0612245 0.653061 0
0.0612245 0.632653 0
0.0612245 0.612245 0
0.0612245 0.591837 0
0.0612245 0.571429 0
0.0612245 0.55102 0
0.0612245 0.530612 0
0.0612245 0.510204 0
0.0612245 0.489796 0
0.0612245 0.469388 0
0.0612245 0.44898 0
0.0612245 0.428571 0
0.0612245 0.408163 0
0.0612245 0.387755 0
0.0612245 0.367347 0
0.0612245 0.346939 0
0.0612245 0.326531 0
0.0612245 0.306122 0
0.0612245 0.285714 0
0.0612245 0.265306 0
0.0612245 0.244898 0
0.0612245 0.22449 0
0.0612245 0.204082 0
0.0612245 0.183673 0
0.0612245 0.163265 0
0.0612245 0.142857 0
0.0612245 0.122449 0
0.0612245 0.102041 0
0.0612245 0.0816327 0
0.0612245 0.0612245 0
0.0612245 0.0408163 0
0.0612245 0.0204082 0
0.0816327 0.979592 0
0.0816327 0.959184 0
0.0816327 0.938776 0
0.0816327 0.918367 0
0.0816327 0.897959 0
0.0816327 0.877551 0
0.0816327 0.857143 0
0.0816327 0.836735 0
0.0816327 0.816327 0
0.0816327 0.795918 0
0.0816327 0.77551 0
0.0816327 0.755102 0
0.0816327 0.734694 0
0.0816327 0.714286 0
0.0816327 0.693878 0
0.0816327 0.673469 0
0.0816327 0.653061 0
0.0816327 0.632653 0
0.0816327 0.612245 0
0.0816327 0.591837 0
0.0816327 0.571429 0
0.0816327 0.55102 0
0.0816327 0.530612 0
0.0816327 0.510204 0
0.0816327 0.489796 0
0.0816327 0.469388 0
0.0816327 0.44898 0
0.0816327 0.428571 0
0.0816327 0.408163 0
0.0816327 0.387755 0
0.0816327 0.367347 0
0.0816327 0.346939 0
0.0816327 0.326531 0
0.0816327 0.306122 0
0.0816327 0.285714 0
0.0816327 0.265306 0
0.0816327 0.244898 0
0.0816327 0.22449 0
0.0816327 0.204082 0
0.0816327 0.183673 0
0.0816327 0.163265 0
0.0816327 0.142857 0
0.0816327 0.122449 0
0.0816327 0.102041 0
0.0816327 0.0816327 0
0.0816327 0.0612245 0
0.0816327 0.0408163 0
0.0816327 0.0204082 0
0.102041 0.979592 0
0.102041 0.959184 0
0.102041 0.938776 0
0.102041 0.918367 0
0.102041 0.897959 0
0.102041 0.877551 0
0.102041 0.857143 0
0.102041 0.836735 0
0.102041 0.816327 0
0.102041 0.795918 0
0.102041 0.77551 0
0.102041 0.755102 0
0.102041 0.734694 0
0.102041 0.714286 0
0.102041 0.693878 0
0.102041 0.673469 0
0.102041 0.653061 0
0.102041 0.632653 0
0.102041 0.612245 0
0.102041 0.591837 0
0.102041 0.571429 0
0.102041 0.55102 0
0.102041 0.530612 0
0.102041 0.510204 0
0.102041 0.489796 0
0.102041 0.469388 0
0.102041 0.44898 0
0.102041 0.428571 0
0.102041 0.408163 0
0.102041 0.387755 0
0.102041 0.367347 0
0.102041 0.346939 0
0.102041 0.326531 0
0.102041 0.306122 0
0.102041 0.285714 0
0.102041 0.265306 0
0.102041 0.244898 0
0.102041 0.22449 0
0.102041 0.204082 0
0.102041 0.183673 0
0.102041 0.163265 0
0.102041 0.142857 0
0.102041 0.122449 0
0.102041 0.102041 0
0.102041 0.0816327 0
0.102041 0.0612245 0
0.102041 0.0408163 0
0.102041 0.0204082 0
0.122449 0.979592 0
0.122449 0.959184 0
0.122449 0.938776 0
0.122449 0.918367 0
0.122449 0.897959 0
0.122449 0.877551 0
0.122449 0.857143 0
0.122449 0.836735 0
0.122449 0.816327 0
0.122449 0.795918 0
0.122449 0.77551 0
0.122449 0.755102 0
0.122449 0.734694 0
0.122449 0.714286 0
0.122449 0.693878 0
0.122449 0.673469 0
0.122449 0.653061 0
0.122449 0.632653 0
0.122449 0.612245 0
0.122449 0.591837 0
0.122449 0.571429 0
0.122449 0.55102 0
0.122449 0.530612 0
0.122449 0.510204 0
0.122449 0.489796 0
0.122449 0.469388 0
0.122449 0.44898 0
0.122449 0.428571 0
0.122449 0.408163 0
0.122449 0.387755 0
0.122449 0.367347 0
0.122449 0.346939 0
0.122449 0.326531 0
0.122449 0.306122 0
0.122449 0.285714 0
0.122449 0.265306 0
0.122449 0.244898 0
0.122449 0.22449 0
0.122449 0.204082 0
0.122449 0.183673 0
0.122449 0.163265 0
0.122449 0.142857 0
0.122449 0.122449 0
0.122449 0.102041 0
0.122449 0.0816327 0
0.122449 0.0612245 0
0.122449 0.0408163 0
0.122449 0.0204082 0
0.142857 0.979592 0
0.142857 0.959184 0
0.142857 0.938776 0
0.142857 0.918367 0
0.142857 0.897959 0
0.142857 0.877551 0
0.142857 0.857143 0
0.142857 0.836735 0
0.142857 0.816327 0
0.142857 0.795918 0
0.142857 0.77551 0
0.142857 0.755102 0
0.142857 0.734694 0
0.142857 0.714286 0
0.142857 0.693878 0
0.142857 0.673469 0
0.142857 0.653061 0
0.142857 0.632653 0
0.142857 0.612245 0
0.142857 0.591837 0
0.142857 0.571429 0
0.142857 0.55102 0
0.142857 0.530612 0
0.142857 0.510204 0
0.142857 0.489796 0
0.142857 0.469388 0
0.142857 0.44898 0
0.142857 0.428571 0
0.142857 0.408163 0
0.142857 0.387755 0
0.142857 0.367347 0
0.142857 0.346939 0
0.142857 0.326531 0
0.142857 0.306122 0
0.142857 0.285714 0
0.142857 0.265306 0
0.142857 0.244898 0
0.142857 0.22449 0
0.142857 0.204082 0
0.142857 0.183673 0
0.142857 0.163265 0
0.142857 0.142857 0
0.142857 0.122449 0
0.142857 0.102041 0
0.142857 0.0816327 0
0.142857 0.0612245 0
0.142857 0.0408163 0
0.142857 0.0204082 0
0.163265 0.979592 0
0.163265 0.959184 0
0.163265 0.938776 0
0.163265 0.918367 0
0.163265 0.897959 0
0.163265 0.877551 0
0.163265 0.857143 0
0.163265 0.836735 0
0.163265 0.816327 0
0.163265 0.795918 0
0.163265 0.77551 0
0.163265 0.755102 0
0.163265 0.734694 0
0.163265 0.714286 0
0.163265 0.693878 0
0.163265 0.673469 0
0.163265 0.653061 0
0.163265 0.632653 0
0.163265 0.612245 0
0.163265 0.591837 0
0.163265 0.571429 0
0.163265 0.55102 0
[...]
CELL_DATA 2401
VECTORS velocity double
0.257354 0.157463 0.0
-0.00271415 0.264575 0.0
-0.0323246 0.205428 0.0
-0.0254006 0.150519 0.0
-0.0160745 0.112952 0.0
-0.00971141 0.0875716 0.0
-0.00593109 0.0704878 0.0
-0.00374191 0.0587951 0.0
-0.0024554 0.0505836 0.0
-0.00167562 0.0446649 0.0
-0.00118649 0.0402893 0.0
-0.000870452 0.0369702 0.0
-0.000661995 0.0343825 0.0
-0.00052312 0.0323028 0.0
-0.000430776 0.0305741 0.0
-0.000370338 0.0290844 0.0
-0.000332142 0.027753 0.0
-0.000309569 0.0265215 0.0
-0.000297939 0.0253477 0.0
-0.000293849 0.0242018 0.0
-0.000294766 0.0230633 0.0
-0.000298767 0.0219188 0.0
-0.000304377 0.0207603 0.0
-0.000310454 0.0195844 0.0
-0.00031612 0.018391 0.0
-0.000320711 0.0171825 0.0
-0.000323736 0.0159635 0.0
-0.000324852 0.0147399 0.0
-0.000323841 0.0135186 0.0
-0.000320586 0.012307 0.0
-0.000315055 0.011113 0.0
-0.000307281 0.00994447 0.0
-0.000297348 0.008809 0.0
-0.000285371 0.007714 0.0
-0.000271485 0.00666648 0.0
-0.000255825 0.00567299 0.0
-0.000238518 0.00473967 0.0
-0.000219667 0.00387223 0.0
-0.000199338 0.00307607 0.0
-0.000177551 0.00235631 0.0
-0.000154258 0.00171794 0.0
-0.000129345 0.00116592 0.0
-0.000102628 0.000705185 0.0
-7.39081e-05 0.000340674 0.0
-4.31405e-05 7.68693e-05 0.0
-1.09547e-05 -8.32521e-05 0.0
2.00282e-05 -0.00014065 0.0
4.24823e-05 -0.000109227 0.0
3.73486e-05 -3.71561e-05 0.0
0.340592 0.122949 0.0
-0.000693535 0.249379 0.0
-0.0653075 0.271539 0.0
-0.0633363 0.252035 0.0
-0.0485875 0.221487 0.0
-0.0350062 0.191602 0.0
-0.0249269 0.16619 0.0
-0.0178741 0.145751 0.0
-0.0130061 0.129671 0.0
-0.00963712 0.117087 0.0
-0.00728859 0.107197 0.0
-0.00564153 0.0993316 0.0
-0.00448418 0.0929645 0.0
-0.00367403 0.0876897 0.0
-0.0031132 0.0831973 0.0
-0.00273302 0.0792527 0.0
-0.00248428 0.0756791 0.0
-0.00233096 0.0723445 0.0
-0.00224627 0.0691513 0.0
-0.00220989 0.0660292 0.0
-0.00220623 0.0629288 0.0
-0.00222316 0.0598178 0.0
-0.00225121 0.0566769 0.0
-0.00228299 0.0534975 0.0
-0.00231273 0.0502793 0.0
-0.00233603 0.0470284 0.0
-0.00234963 0.0437558 0.0
-0.00235117 0.040476 0.0
-0.00233913 0.0372063 0.0
-0.00231262 0.0339651 0.0
-0.0022713 0.0307722 0.0
-0.00221524 0.027647 0.0
-0.00214484 0.0246091 0.0
-0.00206072 0.0216773 0.0
-0.00196364 0.0188694 0.0
-0.00185441 0.0162025 0.0
-0.0017338 0.0136925 0.0
-0.00160254 0.0113542 0.0
-0.00146119 0.00920172 0.0
-0.00131019 0.00724817 0.0
-0.00114981 0.005506 0.0
-0.000980235 0.00398688 0.0
-0.000801744 0.00270158 0.0
-0.00061516 0.00165924 0.0
-0.000422816 0.000866002 0.0
-0.000230695 0.000322317 0.0
-5.28181e-05 1.78418e-05 0.0
8.13883e-05 -7.96904e-05 0.0
0.000108657 -4.13087e-05 0.0
0.500828 0.0767838 0.0
0.0989864 0.183169 0.0
-0.039485 0.249127 0.0
-0.0735538 0.265572 0.0
-0.071986 0.257248 0.0
-0.0606295 0.239469 0.0
-0.0483163 0.219504 0.0
-0.0376904 0.20064 0.0
-0.0292446 0.184082 0.0
-0.0227783 0.170034 0.0
-0.0179259 0.158275 0.0
-0.0143331 0.148432 0.0
-0.0117049 0.140118 0.0
-0.00980926 0.132977 0.0
-0.00846732 0.126707 0.0
-0.00754239 0.121061 0.0
-0.0069298 0.115841 0.0
-0.00654903 0.110895 0.0
-0.00633765 0.106107 0.0
-0.00624686 0.101391 0.0
-0.00623828 0.0966874 0.0
-0.00628155 0.0919567 0.0
-0.00635261 0.0871763 0.0
-0.00643247 0.0823373 0.0
-0.00650627 0.0774417 0.0
-0.00656258 0.0725 0.0
-0.00659282 0.0675293 0.0
-0.00659088 0.0625513 0.0
-0.00655265 0.0575912 0.0
-0.00647576 0.0526764 0.0
-0.00635919 0.0478352 0.0
-0.00620304 0.0430963 0.0
-0.00600827 0.0384879 0.0
-0.00577638 0.0340374 0.0
-0.00550928 0.029771 0.0
-0.00520904 0.0257136 0.0
-0.00487772 0.0218885 0.0
-0.0045173 0.0183175 0.0
-0.0041295 0.015021 0.0
-0.00371587 0.012018 0.0
-0.00327781 0.00932617 0.0
-0.00281687 0.00696147 0.0
-0.00233536 0.00493778 0.0
-0.00183747 0.00326587 0.0
-0.00133147 0.00195151 0.0
-0.000833822 0.000992434 0.0
-0.000376436 0.000372485 0.0
-1.67517e-05 5.40439e-05 0.0
0.000137616 -1.80313e-05 0.0
0.609943 0.0480271 0.0
0.195488 0.133919 0.0
0.0111659 0.209352 0.0
-0.0582238 0.246348 0.0
-0.0761795 0.256896 0.0
-0.0737278 0.253505 0.0
-0.0643415 0.243357 0.0
-0.0536493 0.230698 0.0
-0.0438363 0.217781 0.0
-0.0355957 0.205649 0.0
-0.0289988 0.194687 0.0
-0.0238802 0.184931 0.0
-0.0200055 0.176255 0.0
-0.0171409 0.168469 0.0
-0.0150788 0.161372 0.0
-0.0136437 0.154777 0.0
-0.0126917 0.148522 0.0
-0.0121054 0.142475 0.0
-0.01179 0.136533 0.0
-0.0116691 0.130616 0.0
-0.0116808 0.124672 0.0
-0.0117752 0.118664 0.0
-0.0119122 0.112577 0.0
-0.0120599 0.106405 0.0
-0.012193 0.100157 0.0
-0.012292 0.0938482 0.0
-0.0123421 0.0875032 0.0
-0.012333 0.0811504 0.0
-0.0122575 0.0748219 0.0
-0.0121116 0.0685518 0.0
-0.0118936 0.0623756 0.0
-0.0116036 0.0563286 0.0
-0.0112434 0.0504456 0.0
-0.0108156 0.0447604 0.0
-0.0103237 0.0393052 0.0
-0.00977117 0.0341105 0.0
-0.00916194 0.0292048 0.0
-0.0084996 0.0246149 0.0
-0.00778761 0.0203656 0.0
-0.00702919 0.01648 0.0
-0.00622766 0.012979 0.0
-0.00538689 0.00988114 0.0
-0.00451239 0.00720211 0.0
-0.00361311 0.00495345 0.0
-0.00270462 0.0031409 0.0
-0.00181448 0.00176193 0.0
-0.000991022 0.000799993 0.0
-0.000314126 0.000222455 0.0
7.91101e-05 1.24212e-05 0.0
0.680304 0.0301432 0.0
0.278219 0.0981535 0.0
0.0693679 0.170946 0.0
-0.027667 0.217466 0.0
-0.0653157 0.240977 0.0
-0.0745833 0.249553 0.0
-0.0713452 0.249116 0.0
-0.0633753 0.243763 0.0
-0.0543479 0.236063 0.0
-0.0458981 0.2275 0.0
-0.0386564 0.218865 0.0
-0.0327706 0.210527 0.0
-0.0281697 0.202612 0.0
-0.0246944 0.195114 0.0
-0.0221621 0.187961 0.0
-0.0203955 0.181059 0.0
-0.0192352 0.17431 0.0
-0.0185431 0.167627 0.0
-0.0182018 0.160938 0.0
-0.0181134 0.154188 0.0
-0.0181962 0.147342 0.0
-0.0183831 0.140378 0.0
-0.0186192 0.13329 0.0
-0.0188602 0.126085 0.0
-0.0190709 0.118778 0.0
-0.0192239 0.111393 0.0
-0.0192987 0.103963 0.0
-0.0192805 0.0965218 0.0
-0.0191596 0.0891084 0.0
-0.0189303 0.0817629 0.0
-0.0185905 0.0745263 0.0
-0.0181409 0.0674392 0.0
-0.017584 0.0605412 0.0
-0.0169241 0.0538707 0.0
-0.0161663 0.0474639 0.0
-0.0153161 0.0413551 0.0
-0.0143795 0.0355765 0.0
-0.0133621 0.030158 0.0
-0.0122695 0.0251273 0.0
-0.0111072 0.0205098 0.0
-0.00988077 0.0163284 0.0
-0.00859722 0.0126033 0.0
-0.00726582 0.00935145 0.0
-0.0059007 0.00658533 0.0
-0.00452453 0.00431195 0.0
-0.00317441 0.00253143 0.0
-0.00191081 0.00123157 0.0
-0.000827507 0.000391446 0.0
-7.45069e-05 4.18278e-05 0.0
0.729686 0.019175 0.0
0.348735 0.0730326 0.0
0.127689 0.139303 0.0
0.0111042 0.18832 0.0
-0.0442556 0.219757 0.0
-0.0657704 0.236998 0.0
-0.0702273 0.244578 0.0
-0.0667369 0.245962 0.0
-0.0601063 0.243603 0.0
-0.0527885 0.239103 0.0
-0.0459615 0.233452 0.0
-0.0401215 0.227231 0.0
-0.0354078 0.220749 0.0
-0.0317821 0.214154 0.0
-0.0291251 0.207497 0.0
-0.0272877 0.200776 0.0
-0.0261178 0.193965 0.0
-0.0254725 0.187032 0.0
-0.025224 0.179946 0.0
-0.0252609 0.172684 0.0
-0.0254876 0.165235 0.0
-0.0258239 0.157598 0.0
-0.0262029 0.149782 0.0
-0.0265701 0.141806 0.0
-0.0268818 0.133699 0.0
-0.0271041 0.125493 0.0
-0.0272112 0.117229 0.0
-0.0271851 0.108947 0.0
-0.027014 0.100694 0.0
-0.0266913 0.092515 0.0
-0.0262149 0.084455 0.0
-0.0255862 0.0765591 0.0
-0.0248095 0.0688704 0.0
-0.0238907 0.0614305 0.0
-0.022837 0.0542782 0.0
-0.0216563 0.0474503 0.0
-0.020357 0.0409809 0.0
-0.0189469 0.0349019 0.0
-0.0174341 0.0292423 0.0
-0.0158265 0.0240288 0.0
-0.0141326 0.0192856 0.0
-0.0123625 0.0150339 0.0
-0.0105292 0.0112917 0.0
-0.00865156 0.00807308 0.0
-0.00675813 0.00538788 0.0
-0.0048927 0.00324126 0.0
-0.00312269 0.00162871 0.0
-0.00154731 0.000544367 0.0
-0.000315914 6.71181e-05 0.0
0.765693 0.0125795 0.0
0.408171 0.0557082 0.0
0.182707 0.114585 0.0
0.0526868 0.162747 0.0
-0.0169602 0.198029 0.0
-0.0499228 0.221055 0.0
-0.0624973 0.23466 0.0
-0.0644157 0.241602 0.0
-0.0612432 0.244012 0.0
-0.0560671 0.243414 0.0
-0.0505373 0.240845 0.0
-0.045478 0.236982 0.0
-0.0412473 0.232249 0.0
-0.037946 0.226902 0.0
-0.0355393 0.221086 0.0
-0.0339261 0.21488 0.0
-0.0329782 0.208323 0.0
-0.0325621 0.201436 0.0
-0.0325497 0.194231 0.0
-0.0328244 0.186719 0.0
-0.0332833 0.178916 0.0
-0.0338374 0.170844 0.0
-0.0344116 0.162531 0.0
-0.0349441 0.15401 0.0
-0.0353849 0.145323 0.0
-0.0356951 0.136513 0.0
-0.0358455 0.127629 0.0
-0.0358158 0.118719 0.0
-0.035593 0.109835 0.0
-0.0351707 0.101028 0.0
-0.0345475 0.092346 0.0
-0.0337264 0.0838385 0.0
-0.0327135 0.0755509 0.0
-0.0315172 0.0675268 0.0
-0.0301471 0.0598068 0.0
-0.028614 0.0524287 0.0
-0.0269284 0.0454276 0.0
-0.0251012 0.0388359 0.0
-0.0231429 0.0326833 0.0
-0.0210641 0.026997 0.0
-0.0188758 0.0218015 0.0
-0.0165912 0.0171188 0.0
-0.0142265 0.0129682 0.0
-0.0118042 0.00936607 0.0
-0.0093567 0.00632603 0.0
-0.00693115 0.00385995 0.0
-0.00459682 0.00197277 0.0
-0.00245109 0.000674493 0.0
-0.000633011 8.75958e-05 0.0
0.792739 0.0085995 0.0
0.458256 0.0436499 0.0
0.233245 0.0954858 0.0
0.0944396 0.141271 0.0
0.0140308 0.177653 0.0
-0.0292423 0.204331 0.0
-0.0497464 0.222233 0.0
-0.057432 0.233496 0.0
-0.0583262 0.23987 0.0
-0.0559752 0.242709 0.0
-0.0524051 0.243006 0.0
-0.0487236 0.24146 0.0
-0.045491 0.238547 0.0
-0.042947 0.234588 0.0
-0.0411482 0.229793 0.0
-0.0400512 0.224302 0.0
-0.039562 0.218207 0.0
-0.0395655 0.211576 0.0
-0.0399419 0.204458 0.0
-0.0405761 0.196898 0.0
-0.0413632 0.188939 0.0
-0.0422101 0.180626 0.0
-0.0430374 0.172004 0.0
-0.0437785 0.163125 0.0
-0.0443798 0.154041 0.0
-0.0447995 0.144808 0.0
-0.0450066 0.135482 0.0
-0.0449799 0.126121 0.0
-0.0447067 0.116781 0.0
-0.0441816 0.107518 0.0
-0.0434051 0.0983846 0.0
-0.0423823 0.0894324 0.0
-0.0411221 0.080709 0.0
-0.0396357 0.072259 0.0
-0.0379358 0.0641239 0.0
-0.0360362 0.0563418 0.0
-0.0339502 0.0489477 0.0
-0.0316916 0.0419739 0.0
-0.0292734 0.0354498 0.0
-0.0267086 0.0294022 0.0
-0.024011 0.0238558 0.0
-0.0211958 0.0188331 0.0
-0.0182817 0.0143549 0.0
-0.0152935 0.0104399 0.0
-0.0122648 0.00710656 0.0
-0.00924306 0.00437386 0.0
-0.00629497 0.00225673 0.0
-0.00351051 0.000780165 0.0
-0.00101227 0.0001035 0.0
0.81377 0.0061556 0.0
0.500795 0.03511 0.0
0.279149 0.0807257 0.0
0.134904 0.123561 0.0
0.0462044 0.159706 0.0
-0.00550946 0.188137 0.0
-0.0333742 0.20897 0.0
-0.0468154 0.223435 0.0
-0.0520574 0.232946 0.0
-0.0529482 0.238654 0.0
-0.0517975 0.241458 0.0
-0.0499442 0.242029 0.0
-0.0481238 0.240855 0.0
-0.046703 0.238285 0.0
-0.0458273 0.23457 0.0
-0.0455132 0.22989 0.0
-0.0457054 0.224377 0.0
-0.0463125 0.218135 0.0
-0.047228 0.211248 0.0
-0.0483436 0.203787 0.0
-0.0495563 0.195821 0.0
-0.0507732 0.187415 0.0
-0.0519131 0.178634 0.0
-0.0529081 0.169544 0.0
-0.053703 0.160212 0.0
-0.0542551 0.150702 0.0
-0.0545336 0.141081 0.0
-0.0545179 0.131414 0.0
-0.0541971 0.121764 0.0
-0.0535679 0.112189 0.0
-0.0526337 0.102747 0.0
-0.0514028 0.0934904 0.0
-0.0498876 0.0844693 0.0
-0.0481029 0.0757286 0.0
-0.0460649 0.0673098 0.0
-0.0437906 0.0592505 0.0
-0.0412967 0.0515851 0.0
-0.0385995 0.0443448 0.0
-0.0357149 0.037558 0.0
-0.0326582 0.031251 0.0
-0.0294449 0.025448 0.0
-0.0260921 0.0201719 0.0
-0.0226195 0.0154445 0.0
-0.0190522 0.0112876 0.0
-0.0154234 0.00772402 0.0
-0.0117777 0.00478006 0.0
-0.00817551 0.00248004 0.0
-0.00469551 0.000862174 0.0
-0.00144046 0.00011538 0.0
0.830661 0.00461463 0.0
0.537304 0.0289271 0.0
0.320716 0.0692061 0.0
0.173478 0.108954 0.0
0.0785724 0.144098 0.0
0.0200148 0.173075 0.0
-0.0145101 0.195747 0.0
-0.0334796 0.212508 0.0
-0.0431281 0.224415 0.0
-0.0474774 0.23243 0.0
-0.0490399 0.237337 0.0
-0.0493339 0.239755 0.0
-0.0492402 0.240153 0.0
-0.0492356 0.238888 0.0
-0.0495463 0.236228 0.0
-0.0502458 0.232379 0.0
-0.0513178 0.2275 0.0
-0.0526964 0.221721 0.0
-0.0542914 0.215152 0.0
-0.0560038 0.207888 0.0
-0.057736 0.20002 0.0
-0.0593976 0.191631 0.0
-0.0609088 0.182804 0.0
-0.0622021 0.173618 0.0
-0.0632233 0.164152 0.0
-0.0639307 0.154484 0.0
-0.0642952 0.144687 0.0
-0.0642987 0.134833 0.0
-0.0639333 0.12499 0.0
-0.0631994 0.115223 0.0
-0.0621042 0.105591 0.0
-0.0606604 0.0961495 0.0
-0.0588846 0.0869483 0.0
-0.0567958 0.0780328 0.0
-0.0544145 0.0694439 0.0
-0.0517613 0.0612183 0.0
-0.0488564 0.0533889 0.0
-0.045719 0.0459854 0.0
-0.0423674 0.0390347 0.0
-0.0388188 0.0325617 0.0
-0.0350902 0.02659 0.0
-0.0311992 0.0211424 0.0
-0.0271658 0.0162419 0.0
-0.0230137 0.0119125 0.0
-0.0187731 0.00818149 0.0
-0.0144836 0.00508158 0.0
-0.0101964 0.00264547 0.0
-0.00597663 0.000922377 0.0
-0.00190538 0.00012384 0.0
0.844602 0.00360987 0.0
0.568978 0.024344 0.0
0.358367 0.0601069 0.0
0.209875 0.0968718 0.0
0.110366 0.13062 0.0
0.0461446 0.159483 0.0
0.00602911 0.182991 0.0
-0.0181628 0.201347 0.0
-0.0321473 0.215035 0.0
-0.0400365 0.224849 0.0
-0.0444808 0.231467 0.0
-0.0471348 0.235439 0.0
-0.048995 0.237205 0.0
-0.050631 0.237112 0.0
-0.0523389 0.235432 0.0
-0.0542434 0.232381 0.0
-0.0563647 0.228137 0.0
-0.0586621 0.222847 0.0
-0.0610619 0.216641 0.0
-0.0634762 0.209633 0.0
-0.0658143 0.20193 0.0
-0.0679902 0.193634 0.0
-0.0699273 0.184841 0.0
-0.0715606 0.175645 0.0
-0.0728384 0.166135 0.0
-0.0737221 0.156399 0.0
-0.0741858 0.146519 0.0
-0.0742155 0.136574 0.0
-0.0738076 0.126637 0.0
-0.0729676 0.116777 0.0
-0.0717079 0.107056 0.0
-0.0700464 0.0975295 0.0
-0.068005 0.0882489 0.0
-0.0656079 0.0792591 0.0
-0.0628799 0.0705997 0.0
-0.059846 0.0623058 0.0
-0.05653 0.0544084 0.0
-0.0529541 0.046935 0.0
-0.0491388 0.0399106 0.0
-0.045103 0.0333583 0.0
-0.0408643 0.0273003 0.0
-0.0364402 0.0217592 0.0
-0.0318492 0.0167583 0.0
-0.0271124 0.0123238 0.0
-0.0222553 0.00848643 0.0
-0.0173101 0.00528437 0.0
-0.0123173 0.00275722 0.0
-0.00732617 0.000962944 0.0
-0.00239613 0.00012943 0.0
0.856375 0.00292823 0.0
0.596746 0.0208611 0.0
0.392558 0.0528124 0.0
0.244055 0.0867933 0.0
0.141215 0.118961 0.0
0.072353 0.147294 0.0
0.0273732 0.171069 0.0
-0.0014699 0.190321 0.0
-0.0196325 0.20529 0.0
-0.031052 0.216466 0.0
-0.038457 0.224432 0.0
-0.0436005 0.229674 0.0
-0.0475706 0.232593 0.0
-0.051012 0.233515 0.0
-0.0542796 0.232707 0.0
-0.0575425 0.230389 0.0
-0.0608532 0.226745 0.0
-0.0641939 0.221935 0.0
-0.0675068 0.216102 0.0
-0.0707151 0.209376 0.0
-0.0737355 0.201877 0.0
-0.0764877 0.193721 0.0
-0.0788993 0.185017 0.0
-0.0809095 0.175871 0.0
-0.0824704 0.166383 0.0
-0.0835478 0.156649 0.0
-0.084121 0.146761 0.0
-0.0841812 0.136802 0.0
-0.083731 0.126852 0.0
-0.0827818 0.116982 0.0
-0.0813526 0.107256 0.0
-0.0794679 0.0977313 0.0
-0.0771556 0.0884592 0.0
-0.0744456 0.0794833 0.0
-0.0713683 0.0708419 0.0
-0.067953 0.0625677 0.0
-0.0642275 0.0546893 0.0
-0.0602171 0.0472316 0.0
-0.0559443 0.0402169 0.0
-0.0514291 0.0336661 0.0
-0.0466893 0.0275997 0.0
-0.0417412 0.0220391 0.0
-0.0366009 0.0170077 0.0
-0.0312853 0.0125329 0.0
-0.0258136 0.00864794 0.0
-0.0202091 0.00539525 0.0
-0.0144998 0.00281974 0.0
-0.00871859 0.000985939 0.0
-0.00290305 0.000132606 0.0
0.866506 0.00244544 0.0
0.621328 0.0181472 0.0
0.423711 0.0468703 0.0
0.276077 0.0782977 0.0
0.170898 0.108821 0.0
0.0982433 0.136361 0.0
0.0490386 0.160028 0.0
0.0160673 0.17967 0.0
-0.00602409 0.195469 0.0
-0.0208988 0.207643 0.0
-0.031278 0.216638 0.0
-0.0389781 0.222885 0.0
-0.0451569 0.226744 0.0
-0.0505189 0.228518 0.0
-0.0554672 0.22846 0.0
-0.0602075 0.226786 0.0
-0.0648198 0.223683 0.0
-0.0693059 0.219319 0.0
-0.0736224 0.213845 0.0
-0.0777024 0.207401 0.0
-0.0814703 0.200119 0.0
-0.0848515 0.192128 0.0
-0.0877787 0.183546 0.0
-0.0901961 0.174491 0.0
-0.092061 0.165072 0.0
-0.093345 0.155395 0.0
-0.0940335 0.145557 0.0
-0.094125 0.135648 0.0
-0.0936291 0.125751 0.0
-0.0925649 0.115941 0.0
-0.0909591 0.106284 0.0
-0.0888436 0.096837 0.0
-0.0862537 0.087651 0.0
-0.0832257 0.0787684 0.0
-0.0797959 0.070225 0.0
-0.0759989 0.0620511 0.0
-0.0718664 0.0542719 0.0
-0.0674268 0.0469093 0.0
-0.0627045 0.0399825 0.0
-0.0577202 0.0335095 0.0
-0.0524913 0.0275085 0.0
-0.0470321 0.0219991 0.0
-0.0413551 0.0170041 0.0
-0.0354719 0.0125512 0.0
-0.0293941 0.00867498 0.0
-0.0231346 0.00542071 0.0
-0.0167081 0.00283705 0.0
-0.0101304 0.000993114 0.0
-0.00341755 0.000133714 0.0
0.875355 0.00208829 0.0
0.643275 0.0159801 0.0
0.452198 0.041949 0.0
0.306049 0.0710508 0.0
0.199306 0.0999333 0.0
0.123558 0.126523 0.0
0.0706784 0.149824 0.0
0.0339703 0.16954 0.0
0.00834363 0.185728 0.0
-0.00988808 0.198596 0.0
-0.0232163 0.208349 0.0
-0.0334964 0.215363 0.0
-0.0419398 0.219964 0.0
-0.0492985 0.222426 0.0
-0.0560135 0.222987 0.0
-0.0623203 0.221858 0.0
-0.0683209 0.219223 0.0
-0.0740335 0.215252 0.0
-0.0794265 0.210102 0.0
-0.0844415 0.203923 0.0
-0.0890097 0.196854 0.0
-0.0930621 0.189034 0.0
-0.0965371 0.180592 0.0
-0.0993843 0.171654 0.0
-0.101567 0.162339 0.0
-0.103065 0.152758 0.0
-0.103869 0.143016 0.0
-0.103988 0.133209 0.0
-0.103439 0.123423 0.0
-0.10225 0.113735 0.0
-0.100457 0.104211 0.0
-0.0981011 0.0949107 0.0
-0.0952247 0.0858817 0.0
-0.0918721 0.077165 0.0
-0.088086 0.0687938 0.0
-0.0839064 0.0607949 0.0
-0.0793695 0.0531902 0.0
-0.0745067 0.0459976 0.0
-0.0693442 0.0392328 0.0
-0.0639032 0.0329102 0.0
-0.0581997 0.0270451 0.0
-0.0522455 0.0216548 0.0
-0.0460487 0.0167605 0.0
-0.0396142 0.012389 0.0
-0.0329452 0.00857543 0.0
-0.0260433 0.00536629 0.0
-0.0189088 0.00281248 0.0
-0.0115401 0.000985825 0.0
-0.00393191 0.000132996 0.0
0.883174 0.00181276 0.0
0.663012 0.0142084 0.0
0.478334 0.0378033 0.0
0.334097 0.0647883 0.0
0.226393 0.0920688 0.0
0.148133 0.117616 0.0
0.0920546 0.140369 0.0
0.0519669 0.159928 0.0
0.0230416 0.176246 0.0
0.0017117 0.189459 0.0
-0.0145094 0.199737 0.0
-0.0273632 0.207304 0.0
-0.0380959 0.212459 0.0
-0.0474965 0.215452 0.0
-0.0560361 0.216503 0.0
-0.0639731 0.215811 0.0
-0.0714267 0.21356 0.0
-0.0784275 0.209917 0.0
-0.0849529 0.205046 0.0
-0.0909515 0.199098 0.0
-0.09636 0.192225 0.0
-0.101115 0.18457 0.0
-0.10516 0.176273 0.0
-0.108451 0.167467 0.0
-0.110958 0.158278 0.0
-0.112668 0.148826 0.0
-0.113583 0.139219 0.0
-0.113719 0.129559 0.0
-0.113105 0.119934 0.0
-0.111778 0.110423 0.0
-0.109784 0.101093 0.0
-0.107174 0.0920013 0.0
-0.104 0.0831954 0.0
-0.100314 0.0747129 0.0
-0.0961664 0.0665838 0.0
-0.0916028 0.058831 0.0
-0.0866639 0.0514722 0.0
-0.0813843 0.0445212 0.0
-0.0757919 0.0379891 0.0
-0.0699079 0.0318867 0.0
-0.0637467 0.0262254 0.0
-0.0573167 0.0210194 0.0
-0.0506208 0.0162875 0.0
-0.0436567 0.0120548 0.0
-0.0364179 0.00835569 0.0
-0.0288939 0.00523636 0.0
-0.0210701 0.00274849 0.0
-0.0129273 0.000965025 0.0
-0.00443902 0.000130604 0.0
0.890146 0.00159169 0.0
0.680865 0.012726 0.0
0.502381 0.0342498 0.0
0.360344 0.0593 0.0
0.252152 0.0850303 0.0
0.171856 0.109478 0.0
0.112991 0.131551 0.0
0.0698464 0.150772 0.0
0.0378641 0.167015 0.0
0.0136118 0.180338 0.0
-0.00538419 0.190904 0.0
-0.0207742 0.198829 0.0
-0.0337934 0.204364 0.0
-0.0452561 0.207735 0.0
-0.0556548 0.209146 0.0
-0.0652643 0.208783 0.0
-0.0742158 0.206825 0.0
-0.0825486 0.203439 0.0
-0.0902465 0.198789 0.0
-0.0972628 0.193033 0.0
-0.103539 0.186328 0.0
-0.109015 0.178824 0.0
-0.113642 0.170668 0.0
-0.117381 0.162 0.0
-0.12021 0.152955 0.0
-0.122124 0.143657 0.0
-0.123137 0.134219 0.0
-0.123274 0.124746 0.0
-0.122576 0.115329 0.0
-0.121092 0.106047 0.0
-0.118879 0.0969673 0.0
-0.115999 0.0881453 0.0
-0.112514 0.0796258 0.0
-0.108484 0.0714432 0.0
-0.103968 0.0636234 0.0
-0.0990182 0.0561851 0.0
-0.0936795 0.0491412 0.0
-0.0879899 0.0425006 0.0
-0.0819787 0.0362698 0.0
-0.0756669 0.0304547 0.0
-0.0690669 0.0250627 0.0
-0.0621834 0.020104 0.0
-0.055013 0.0155941 0.0
-0.0475458 0.0115557 0.0
-0.0397648 0.0080207 0.0
-0.0316469 0.00503409 0.0
-0.023162 0.00264681 0.0
-0.0142729 0.000931311 0.0
-0.00493215 0.000126608 0.0
0.896401 0.00140775 0.0
0.697087 0.0114576 0.0
0.524554 0.0311491 0.0
0.384902 0.0544179 0.0
0.276588 0.0786512 0.0
0.194652 0.101966 0.0
0.13335 0.123259 0.0
0.0874324 0.141999 0.0
0.0526096 0.157996 0.0
0.0255944 0.171252 0.0
0.00398338 0.181871 0.0
-0.0138995 0.189993 0.0
-0.0291878 0.195746 0.0
-0.0427147 0.199353 0.0
-0.0549883 0.200997 0.0
-0.0662945 0.200855 0.0
-0.0767717 0.199097 0.0
-0.0864643 0.19589 0.0
-0.0953594 0.1914 0.0
-0.103414 0.185789 0.0
-0.110571 0.179218 0.0
-0.116776 0.171844 0.0
-0.121984 0.163822 0.0
-0.126164 0.155297 0.0
-0.129303 0.146409 0.0
-0.131405 0.137287 0.0
-0.132495 0.12805 0.0
-0.132611 0.118803 0.0
-0.131805 0.10964 0.0