# vtk DataFile Version 3.0
Malha 2D com triângulos: velocidade e pressão
ASCII
DATASET UNSTRUCTURED_GRID

POINTS 2500 double
0 0 0
1 0 0
1 1 0
0 1 0
0.0204082 0 0
0.0408163 0 0
0.0612245 0 0
0.0816327 0 0
0.102041 0 0
0.122449 0 0
0.142857 0 0
0.163265 0 0
0.183673 0 0
0.204082 0 0
0.22449 0 0
0.244898 0 0
0.265306 0 0
0.285714 0 0
0.306122 0 0
0.326531 0 0
0.346939 0 0
0.367347 0 0
0.387755 0 0
0.408163 0 0
0.428571 0 0
0.44898 0 0
0.469388 0 0
0.489796 0 0
0.510204 0 0
0.530612 0 0
0.55102 0 0
0.571429 0 0
0.591837 0 0
0.612245 0 0
0.632653 0 0
0.653061 0 0
0.673469 0 0
0.693878 0 0
0.714286 0 0
0.734694 0 0
0.755102 0 0
0.77551 0 0
0.795918 0 0
0.816327 0 0
0.836735 0 0
0.857143 0 0
0.877551 0 0
0.897959 0 0
0.918367 0 0
0.938776 0 0
0.959184 0 0
0.979592 0 0
1 0.0204082 0
1 0.0408163 0
1 0.0612245 0
1 0.0816327 0
1 0.102041 0
1 0.122449 0
1 0.142857 0
1 0.163265 0
1 0.183673 0
1 0.204082 0
1 0.22449 0
1 0.244898 0
1 0.265306 0
1 0.285714 0
1 0.306122 0
1 0.326531 0
1 0.346939 0
1 0.367347 0
1 0.387755 0
1 0.408163 0
1 0.428571 0
1 0.44898 0
1 0.469388 0
1 0.489796 0
1 0.510204 0
1 0.530612 0
1 0.55102 0
1 0.571429 0
1 0.591837 0
1 0.612245 0
1 0.632653 0
1 0.653061 0
1 0.673469 0
1 0.693878 0
1 0.714286 0
1 0.734694 0
1 0.755102 0
1 0.77551 0
1 0.795918 0
1 0.816327 0
1 0.836735 0
1 0.857143 0
1 0.877551 0
1 0.897959 0
1 0.918367 0
1 0.938776 0
1 0.959184 0
1 0.979592 0
0.979592 1 0
0.959184 1 0
0.938776 1 0
0.918367 1 0
0.897959 1 0
0.877551 1 0
0.857143 1 0
0.836735 1 0
0.816327 1 0
0.795918 1 0
0.77551 1 0
0.755102 1 0
0.734694 1 0
0.714286 1 0
0.693878 1 0
0.673469 1 0
0.653061 1 0
0.632653 1 0
0.612245 1 0
0.591837 1 0
0.571429 1 0
0.55102 1 0
0.530612 1 0
0.510204 1 0
0.489796 1 0
0.469388 1 0
0.44898 1 0
0.428571 1 0
0.408163 1 0
0.387755 1 0
0.367347 1 0
0.346939 1 0
0.326531 1 0
0.306122 1 0
0.285714 1 0
0.265306 1 0
0.244898 1 0
0.22449 1 0
0.204082 1 0
0.183673 1 0
0.163265 1 0
0.142857 1 0
0.122449 1 0
0.102041 1 0
0.0816327 1 0
0.0612245 1 0
0.0408163 1 0
0.0204082 1 0
0 0.979592 0
0 0.959184 0
0 0.938776 0
0 0.918367 0
0 0.897959 0
0 0.877551 0
0 0.857143 0
0 0.836735 0
0 0.816327 0
0 0.795918 0
0 0.77551 0
0 0.755102 0
0 0.734694 0
0 0.714286 0
0 0.693878 0
0 0.673469 0
0 0.653061 0
0 0.632653 0
0 0.612245 0
0 0.591837 0
0 0.571429 0
0 0.55102 0
0 0.530612 0
0 0.510204 0
0 0.489796 0
0 0.469388 0
0 0.44898 0
0 0.428571 0
0 0.408163 0
0 0.387755 0
0 0.367347 0
0 0.346939 0
0 0.326531 0
0 0.306122 0
0 0.285714 0
0 0.265306 0
0 0.244898 0
0 0.22449 0
0 0.204082 0
0 0.183673 0
0 0.163265 0
0 0.142857 0
0 0.122449 0
0 0.102041 0
0 0.0816327 0
0 0.0612245 0
0 0.0408163 0
0 0.0204082 0
0.0204082 0.979592 0
0.0204082 0.959184 0
0.0204082 0.938776 0
0.0204082 0.918367 0
0.0204082 0.897959 0
0.0204082 0.877551 0
0.0204082 0.857143 0
0.0204082 0.836735 0
0.0204082 0.816327 0
0.0204082 0.795918 0
0.0204082 0.77551 0
0.0204082 0.755102 0
0.0204082 0.734694 0
0.0204082 0.714286 0
0.0204082 0.693878 0
0.0204082 0.673469 0
0.0204082 0.653061 0
0.0204082 0.632653 0
0.0204082 0.612245 0
0.0204082 0.591837 0
0.0204082 0.571429 0
0.0204082 0.55102 0
0.0204082 0.530612 0
0.0204082 0.510204 0
0.0204082 0.489796 0
0.0204082 0.469388 0
0.0204082 0.44898 0
0.0204082 0.428571 0
0.0204082 0.408163 0
0.0204082 0.387755 0
0.0204082 0.367347 0
0.0204082 0.346939 0
0.0204082 0.326531 0
0.0204082 0.306122 0
0.0204082 0.285714 0
0.0204082 0.265306 0
0.0204082 0.244898 0
0.0204082 0.22449 0
0.0204082 0.204082 0
0.0204082 0.183673 0
0.0204082 0.163265 0
0.0204082 0.142857 0
0.0204082 0.122449 0
0.0204082 0.102041 0
0.0204082 0.0816327 0
0.0204082 0.0612245 0
0.0204082 0.0408163 0
0.0204082 0.0204082 0
0.0408163 0.979592 0
0.0408163 0.959184 0
0.0408163 0.938776 0
0.0408163 0.918367 0
0.0408163 0.897959 0
0.0408163 0.877551 0
0.0408163 0.857143 0
0.0408163 0.836735 0
0.0408163 0.816327 0
0.0408163 0.795918 0
0.0408163 0.77551 0
0.0408163 0.755102 0
0.0408163 0.734694 0
0.0408163 0.714286 0
0.0408163 0.693878 0
0.0408163 0.673469 0
0.0408163 0.653061 0
0.0408163 0.632653 0
0.0408163 0.612245 0
0.0408163 0.591837 0
0.0408163 0.571429 0
0.0408163 0.55102 0
0.0408163 0.530612 0
0.0408163 0.510204 0
0.0408163 0.489796 0
0.0408163 0.469388 0
0.0408163 0.44898 0
0.0408163 0.428571 0
0.0408163 0.408163 0
0.0408163 0.387755 0
0.0408163 0.367347 0
0.0408163 0.346939 0
0.0408163 0.326531 0
0.0408163 0.306122 0
0.0408163 0.285714 0
0.0408163 0.265306 0
0.0408163 0.244898 0
0.0408163 0.22449 0
0.0408163 0.204082 0
0.0408163 0.183673 0
0.0408163 0.163265 0
0.0408163 0.142857 0
0.0408163 0.122449 0
0.0408163 0.102041 0
0.0408163 0.0816327 0
0.0408163 0.0612245 0
0.0408163 0.0408163 0
0.0408163 0.0204082 0
0.0612245 0.979592 0
0.0612245 0.959184 0
0.0612245 0.938776 0
0.0612245 0.918367 0
0.0612245 0.897959 0
0.0612245 0.877551 0
0.0612245 0.857143 0
0.0612245 0.836735 0
0.0612245 0.816327 0
0.0612245 0.795918 0
0.0612245 0.77551 0
0.0612245 0.755102 0
0.0612245 0.734694 0
0.0612245 0.714286 0
0.0612245 0.693878 0
0.0612245 0.673469 0
0.0612245 0.653061 0
0.0612245 0.632653 0
0.0612245 0.612245 0
0.0612245 0.591837 0
0.0612245 0.571429 0
0.0612245 0.55102 0
0.0612245 0.530612 0
0.0612245 0.510204 0
0.0612245 0.489796 0
0.0612245 0.469388 0
0.0612245 0.44898 0
0.0612245 0.428571 0
0.0612245 0.408163 0
0.0612245 0.387755 0
0.0612245 0.367347 0
0.0612245 0.346939 0
0.0612245 0.326531 0
0.0612245 0.306122 0
0.0612245 0.285714 0
0.0612245 0.265306 0
0.0612245 0.244898 0
0.0612245 0.22449 0
0.0612245 0.204082 0
0.0612245 0.183673 0
0.0612245 0.163265 0
0.0612245 0.142857 0
0.0612245 0.122449 0
0.0612245 0.102041 0
0.0612245 0.0816327 0
0.0612245 0.0612245 0
0.0612245 0.0408163 0
0.0612245 0.0204082 0
0.0816327 0.979592 0
0.0816327 0.959184 0
0.0816327 0.938776 0
0.0816327 0.918367 0
0.0816327 0.897959 0
0.0816327 0.877551 0
0.0816327 0.857143 0
0.0816327 0.836735 0
0.0816327 0.816327 0
0.0816327 0.795918 0
0.0816327 0.77551 0
0.0816327 0.755102 0
0.0816327 0.734694 0
0.0816327 0.714286 0
0.0816327 0.693878 0
0.0816327 0.673469 0
0.0816327 0.653061 0
0.0816327 0.632653 0
0.0816327 0.612245 0
0.0816327 0.591837 0
0.0816327 0.571429 0
0.0816327 0.55102 0
0.0816327 0.530612 0
0.0816327 0.510204 0
0.0816327 0.489796 0
0.0816327 0.469388 0
0.0816327 0.44898 0
0.0816327 0.428571 0
0.0816327 0.408163 0
0.0816327 0.387755 0
0.0816327 0.367347 0
0.0816327 0.346939 0
0.0816327 0.326531 0
0.0816327 0.306122 0
0.0816327 0.285714 0
0.0816327 0.265306 0
0.0816327 0.244898 0
0.0816327 0.22449 0
0.0816327 0.204082 0
0.0816327 0.183673 0
0.0816327 0.163265 0
0.0816327 0.142857 0
0.0816327 0.122449 0
0.0816327 0.102041 0
0.0816327 0.0816327 0
0.0816327 0.0612245 0
0.0816327 0.0408163 0
0.0816327 0.0204082 0
0.102041 0.979592 0
0.102041 0.959184 0
0.102041 0.938776 0
0.102041 0.918367 0
0.102041 0.897959 0
0.102041 0.877551 0
0.102041 0.857143 0
0.102041 0.836735 0
0.102041 0.816327 0
0.102041 0.795918 0
0.102041 0.77551 0
0.102041 0.755102 0
0.102041 0.734694 0
0.102041 0.714286 0
0.102041 0.693878 0
0.102041 0.673469 0
0.102041 0.653061 0
0.102041 0.632653 0
0.102041 0.612245 0
0.102041 0.591837 0
0.102041 0.571429 0
0.102041 0.55102 0
0.102041 0.530612 0
0.102041 0.510204 0
0.102041 0.489796 0
0.102041 0.469388 0
0.102041 0.44898 0
0.102041 0.428571 0
0.102041 0.408163 0
0.102041 0.387755 0
0.102041 0.367347 0
0.102041 0.346939 0
0.102041 0.326531 0
0.102041 0.306122 0
0.102041 0.285714 0
0.102041 0.265306 0
0.102041 0.244898 0
0.102041 0.22449 0
0.102041 0.204082 0
0.102041 0.183673 0
0.102041 0.163265 0
0.102041 0.142857 0
0.102041 0.122449 0
0.102041 0.102041 0
0.102041 0.0816327 0
0.102041 0.0612245 0
0.102041 0.0408163 0
0.102041 0.0204082 0
0.122449 0.979592 0
0.122449 0.959184 0
0.122449 0.938776 0
0.122449 0.918367 0
0.122449 0.897959 0
0.122449 0.877551 0
0.122449 0.857143 0
0.122449 0.836735 0
0.122449 0.816327 0
0.122449 0.795918 0
0.122449 0.77551 0
0.122449 0.755102 0
0.122449 0.734694 0
0.122449 0.714286 0
0.122449 0.693878 0
0.122449 0.673469 0
0.122449 0.653061 0
0.122449 0.632653 0
0.122449 0.612245 0
0.122449 0.591837 0
0.122449 0.571429 0
0.122449 0.55102 0
0.122449 0.530612 0
0.122449 0.510204 0
0.122449 0.489796 0
0.122449 0.469388 0
0.122449 0.44898 0
0.122449 0.428571 0
0.122449 0.408163 0
0.122449 0.387755 0
0.122449 0.367347 0
0.122449 0.346939 0
0.122449 0.326531 0
0.122449 0.306122 0
0.122449 0.285714 0
0.122449 0.265306 0
0.122449 0.244898 0
0.122449 0.22449 0
0.122449 0.204082 0
0.122449 0.183673 0
0.122449 0.163265 0
0.122449 0.142857 0
0.122449 0.122449 0
0.122449 0.102041 0
0.122449 0.0816327 0
0.122449 0.0612245 0
0.122449 0.0408163 0
0.122449 0.0204082 0
0.142857 0.979592 0
0.142857 0.959184 0
0.142857 0.938776 0
0.142857 0.918367 0
0.142857 0.897959 0
0.142857 0.877551 0
0.142857 0.857143 0
0.142857 0.836735 0
0.142857 0.816327 0
0.142857 0.795918 0
0.142857 0.77551 0
0.142857 0.755102 0
0.142857 0.734694 0
0.142857 0.714286 0
0.142857 0.693878 0
0.142857 0.673469 0
0.142857 0.653061 0
0.142857 0.632653 0
0.142857 0.612245 0
0.142857 0.591837 0
0.142857 0.571429 0
0.142857 0.55102 0
0.142857 0.530612 0
0.142857 0.510204 0
0.142857 0.489796 0
0.142857 0.469388 0
0.142857 0.44898 0
0.142857 0.428571 0
0.142857 0.408163 0
0.142857 0.387755 0
0.142857 0.367347 0
0.142857 0.346939 0
0.142857 0.326531 0
0.142857 0.306122 0
0.142857 0.285714 0
0.142857 0.265306 0
0.142857 0.244898 0
0.142857 0.22449 0
0.142857 0.204082 0
0.142857 0.183673 0
0.142857 0.163265 0
0.142857 0.142857 0
0.142857 0.122449 0
0.142857 0.102041 0
0.142857 0.0816327 0
0.142857 0.0612245 0
0.142857 0.0408163 0
0.142857 0.0204082 0
0.163265 0.979592 0
0.163265 0.959184 0
0.163265 0.938776 0
0.163265 0.918367 0
0.163265 0.897959 0
0.163265 0.877551 0
0.163265 0.857143 0
0.163265 0.836735 0
0.163265 0.816327 0
0.163265 0.795918 0
0.163265 0.77551 0
0.163265 0.755102 0
0.163265 0.734694 0
0.163265 0.714286 0
0.163265 0.693878 0
0.163265 0.673469 0
0.163265 0.653061 0
0.163265 0.632653 0
0.163265 0.612245 0
0.163265 0.591837 0
0.163265 0.571429 0
0.163265 0.55102 0
[...]
CELL_DATA 2401
VECTORS velocity double
0.257356 0.157464 0
-0.00270458 0.264591 0
-0.0323095 0.205475 0
-0.0253857 0.150601 0
-0.0160644 0.113059 0
-0.00970799 0.0876883 0
-0.00593436 0.070595 0
-0.00375076 0.0588754 0
-0.00246837 0.050623 0
-0.0016913 0.0446533 0
-0.00120369 0.0402201 0
-0.000888268 0.0368401 0
-0.00067974 0.0341905 0
-0.000540298 0.0320499 0
-0.000447021 0.0302629 0
-0.000385373 0.0287186 0
-0.000345753 0.0273373 0
-0.000321581 0.0260611 0
-0.000308208 0.0248488 0
-0.00030226 0.0236708 0
-0.00030123 0.0225071 0
-0.000303228 0.0213444 0
-0.000306808 0.0201749 0
-0.000310866 0.0189953 0
-0.000314563 0.0178051 0
-0.00031727 0.0166068 0
-0.000318534 0.0154043 0
-0.000318049 0.0142032 0
-0.000315626 0.0130096 0
-0.000311176 0.0118305 0
-0.000304686 0.0106727 0
-0.000296206 0.00954328 0
-0.000285826 0.00844905 0
-0.000273664 0.00739648 0
-0.00025985 0.00639168 0
-0.000244508 0.00544032 0
-0.000227752 0.0045477 0
-0.000209665 0.00371877 0
-0.000190292 0.00295821 0
-0.000169625 0.00227052 0
-0.000147594 0.00166015 0
-0.000124057 0.00113162 0
-9.88024e-05 0.000689566 0
-7.15984e-05 0.000338703 0
-4.23552e-05 8.34739e-05 0
-1.16166e-05 -7.29724e-05 0
1.81758e-05 -0.000131102 0
4.00776e-05 -0.000103592 0
3.57829e-05 -3.56037e-05 0
0.340608 0.122959 0
-0.000646463 0.249425 0
-0.0652486 0.271642 0
-0.0632844 0.252186 0
-0.0485589 0.221667 0
-0.0350092 0.191778 0
-0.0249624 0.166326 0
-0.017938 0.145814 0
-0.0130923 0.12963 0
-0.00973896 0.11692 0
-0.00739997 0.106889 0
-0.0057573 0.098873 0
-0.00460014 0.0923527 0
-0.00378685 0.0869266 0
-0.00322028 0.0822886 0
-0.00283229 0.0782074 0
-0.00257408 0.0745088 0
-0.00240998 0.0710626 0
-0.00231344 0.0677733 0
-0.0022644 0.0645714 0
-0.00224749 0.0614088 0
-0.00225082 0.0582535 0
-0.00226516 0.0550868 0
-0.00228334 0.0518999 0
-0.00229986 0.0486922 0
-0.00231056 0.045469 0
-0.00231239 0.0422404 0
-0.00230324 0.0390197 0
-0.00228175 0.0358224 0
-0.00224722 0.0326655 0
-0.00219941 0.0295664 0
-0.0021385 0.0265429 0
-0.00206495 0.023612 0
-0.00197938 0.0207905 0
-0.00188253 0.0180939 0
-0.00177515 0.0155371 0
-0.00165794 0.0131338 0
-0.00153148 0.0108971 0
-0.00139621 0.00883913 0
-0.00125239 0.00697145 0
-0.00110011 0.00530514 0
-0.000939348 0.00385082 0
-0.000770159 0.00261844 0
-0.000593088 0.00161672 0
-0.000410103 0.000851824 0
-0.000226652 0.000324766 0
-5.58811e-05 2.65178e-05 0
7.42634e-05 -7.26639e-05 0
0.000103065 -3.89835e-05 0
0.500875 0.0767971 0
0.0990872 0.183227 0
-0.0393725 0.249242 0
-0.0734674 0.265724 0
-0.0719552 0.257407 0
-0.0606701 0.239593 0
-0.0484304 0.219551 0
-0.0378705 0.200567 0
-0.0294777 0.183853 0
-0.0230499 0.169621 0
-0.0182216 0.157658 0
-0.0146404 0.147601 0
-0.0120132 0.139067 0
-0.0101097 0.13171 0
-0.00875277 0.125232 0
-0.00780707 0.119391 0
-0.00716907 0.113993 0
-0.00675916 0.108888 0
-0.00651569 0.103964 0
-0.00639058 0.0991357 0
-0.00634612 0.0943452 0
-0.00635259 0.0895538 0
-0.00638659 0.0847394 0
-0.0064298 0.0798929 0
-0.006468 0.0750158 0
-0.00649039 0.0701175 0
-0.00648902 0.0652137 0
-0.00645831 0.0603243 0
-0.00639466 0.0554722 0
-0.00629609 0.0506824 0
-0.00616195 0.0459803 0
-0.00599257 0.0413918 0
-0.00578904 0.0369418 0
-0.00555292 0.0326548 0
-0.00528606 0.0285536 0
-0.00499039 0.02466 0
-0.00466775 0.0209943 0
-0.0043198 0.0175755 0
-0.0039479 0.0144215 0
-0.00355315 0.0115489 0
-0.00313644 0.00897336 0
-0.00269876 0.00670931 0
-0.00224173 0.00476948 0
-0.00176878 0.00316404 0
-0.00128719 0.00189878 0
-0.000812049 0.000972198 0
-0.000373309 0.000369866 0
-2.55146e-05 5.71598e-05 0
0.000128256 -1.62896e-05 0
0.610022 0.0480394 0
0.195638 0.133969 0
0.0113212 0.20944 0
-0.0581266 0.24645 0
-0.0761788 0.256972 0
-0.0738442 0.253509 0
-0.0645767 0.243242 0
-0.0539913 0.23042 0
-0.0442651 0.217302 0
-0.0360881 0.204941 0
-0.0295318 0.193728 0
-0.0244326 0.183711 0
-0.020559 0.17477 0
-0.0176801 0.166724 0
-0.0155909 0.159377 0
-0.0141182 0.152548 0
-0.0131201 0.14608 0
-0.0124808 0.139844 0
-0.0121072 0.13374 0
-0.0119239 0.127691 0
-0.0118704 0.121645 0
-0.011898 0.115569 0
-0.0119679 0.109444 0
-0.0120492 0.103268 0
-0.0121179 0.0970463 0
-0.0121556 0.090795 0
-0.0121486 0.0845358 0
-0.0120875 0.0782949 0
-0.011966 0.0721018 0
-0.0117808 0.0659879 0
-0.0115308 0.0599851 0
-0.0112166 0.0541254 0
-0.0108401 0.0484398 0
-0.0104042 0.0429584 0
-0.00991203 0.0377094 0
-0.00936717 0.0327197 0
-0.00877295 0.0280142 0
-0.00813249 0.0236163 0
-0.00744856 0.0195477 0
-0.00672363 0.0158285 0
-0.00596007 0.0124772 0
-0.00516072 0.0095106 0
-0.00432988 0.00694279 0
-0.00347506 0.00478456 0
-0.00261007 0.00304158 0
-0.00176021 0.00171207 0
-0.000970747 0.000781231 0
-0.000317361 0.00021934 0
6.89686e-05 1.30625e-05 0
0.680409 0.030152 0
0.2784 0.0981858 0
0.0695337 0.170991 0
-0.0275925 0.217491 0
-0.0653833 0.240937 0
-0.074816 0.249401 0
-0.0717427 0.248804 0
-0.0639202 0.243249 0
-0.0550125 0.235312 0
-0.0466506 0.226483 0
-0.0394647 0.217564 0
-0.033605 0.208933 0
-0.0290038 0.200723 0
-0.0255057 0.192935 0
-0.0229317 0.185507 0
-0.0211077 0.178348 0
-0.0198771 0.171365 0
-0.0191043 0.164475 0
-0.0186743 0.157611 0
-0.018491 0.150719 0
-0.0184748 0.143765 0
-0.0185603 0.136729 0
-0.0186947 0.129605 0
-0.0188352 0.122399 0
-0.0189485 0.115127 0
-0.0190088 0.107811 0
-0.0189972 0.100481 0
-0.0189003 0.0931699 0
-0.0187097 0.0859123 0
-0.0184207 0.0787458 0
-0.0180323 0.0717076 0
-0.0175455 0.0648345 0
-0.0169634 0.0581622 0
-0.0162904 0.0517246 0
-0.0155314 0.0455542 0
-0.0146919 0.0396809 0
-0.013777 0.034133 0
-0.0127918 0.0289367 0
-0.0117407 0.024116 0
-0.010628 0.0196933 0
-0.00945821 0.0156888 0
-0.00823652 0.0121205 0
-0.00697043 0.0090034 0
-0.00567196 0.00634919 0
-0.00436121 0.00416456 0
-0.0030721 0.00245016 0
-0.00186107 0.00119532 0
-0.000816651 0.00038152 0
-8.17012e-05 4.12867e-05 0
0.729803 0.0191786 0
0.348924 0.0730403 0
0.127835 0.139293 0
0.0111179 0.188253 0
-0.0444307 0.219587 0
-0.0661584 0.236678 0
-0.0708243 0.244062 0
-0.0675195 0.245212 0
-0.0610391 0.242585 0
-0.0538307 0.237793 0
-0.0470723 0.231835 0
-0.0412626 0.225299 0
-0.036545 0.218504 0
-0.0328858 0.211605 0
-0.0301702 0.204658 0
-0.0282531 0.197668 0
-0.0269862 0.190614 0
-0.0262299 0.183467 0
-0.0258595 0.1762 0
-0.0257662 0.168792 0
-0.0258572 0.161233 0
-0.0260547 0.153525 0
-0.0262945 0.145676 0
-0.0265244 0.137705 0
-0.026703 0.12964 0
-0.0267986 0.121512 0
-0.0267878 0.113359 0
-0.0266541 0.10522 0
-0.0263876 0.0971366 0
-0.0259831 0.0891518 0
-0.0254397 0.0813072 0
-0.0247596 0.0736433 0
-0.0239476 0.0661995 0
-0.0230099 0.0590126 0
-0.0219536 0.0521174 0
-0.0207862 0.0455464 0
-0.0195151 0.0393295 0
-0.0181476 0.0334945 0
-0.0166901 0.0280668 0
-0.0151492 0.0230699 0
-0.0135315 0.0185248 0
-0.0118449 0.0144504 0
-0.0101 0.0108626 0
-0.0083129 0.00777453 0
-0.00650873 0.00519523 0
-0.00472736 0.00313011 0
-0.00303131 0.00157575 0
-0.00151381 0.000528005 0
-0.000316517 6.5507e-05 0
0.765807 0.0125777 0
0.40834 0.0556902 0
0.1828 0.114519 0
0.0526033 0.162591 0
-0.017279 0.197734 0
-0.0505006 0.220574 0
-0.063325 0.233953 0
-0.0654635 0.240635 0
-0.0624677 0.242755 0
-0.0574192 0.241847 0
-0.0519674 0.238956 0
-0.0469399 0.234768 0
-0.0426992 0.229713 0
-0.0393517 0.224055 0
-0.0368675 0.217945 0
-0.0351507 0.211467 0
-0.0340776 0.204664 0
-0.0335185 0.197562 0
-0.0333495 0.190176 0
-0.0334573 0.182519 0
-0.0337422 0.174609 0
-0.0341188 0.166469 0
-0.034515 0.158126 0
-0.0348719 0.149615 0
-0.0351427 0.140976 0
-0.0352911 0.13225 0
-0.0352906 0.123484 0
-0.0351234 0.114724 0
-0.0347785 0.106019 0
-0.0342512 0.097415 0
-0.0335417 0.0889588 0
-0.032654 0.0806943 0
-0.031595 0.0726631 0
-0.0303731 0.0649044 0
-0.0289983 0.0574545 0
-0.0274804 0.050347 0
-0.0258294 0.0436127 0
-0.0240548 0.0372799 0
-0.0221655 0.0313746 0
-0.0201703 0.0259205 0
-0.0180779 0.020939 0
-0.0158987 0.0164495 0
-0.0136462 0.0124692 0
-0.0113391 0.00901297 0
-0.00900597 0.00609347 0
-0.00668923 0.00372233 0
-0.00445264 0.00190503 0
-0.00238709 0.00065252 0
-0.000623778 8.50951e-05 0
0.792836 0.00859269 0
0.458379 0.0436078 0
0.233255 0.0953669 0
0.0942268 0.141032 0
0.0135292 0.17725 0
-0.0300399 0.203712 0
-0.0508297 0.221362 0
-0.0587652 0.232344 0
-0.0598581 0.238414 0
-0.0576488 0.240934 0
-0.054163 0.240903 0
-0.0505119 0.239028 0
-0.0472612 0.235793 0
-0.0446563 0.231523 0
-0.04276 0.226436 0
-0.0415343 0.220675 0
-0.0408908 0.214338 0
-0.040719 0.207495 0
-0.0409034 0.2002 0
-0.0413335 0.192499 0
-0.0419082 0.184437 0
-0.0425384 0.176059 0
-0.0431484 0.167411 0
-0.0436755 0.158545 0
-0.0440695 0.149512 0
-0.0442919 0.140367 0
-0.0443149 0.131162 0
-0.0441202 0.121955 0
-0.0436977 0.112797 0
-0.043044 0.103742 0
-0.0421613 0.0948388 0
-0.0410562 0.0861344 0
-0.0397383 0.0776727 0
-0.0382192 0.069494 0
-0.0365117 0.0616356 0
-0.0346286 0.0541312 0
-0.0325827 0.047012 0
-0.030386 0.0403059 0
-0.0280499 0.0340387 0
-0.0255851 0.0282336 0
-0.0230026 0.0229124 0
-0.0203147 0.0180946 0
-0.0175364 0.0137986 0
-0.0146884 0.0100417 0
-0.0117999 0.00684071 0
-0.008913 0.00421409 0
-0.0060884 0.00217665 0
-0.00340928 0.00075357 0
-0.000990495 0.000100298 0
0.813837 0.00614471 0
0.500848 0.0350468 0
0.279048 0.0805599 0
0.134537 0.12325 0
0.0455057 0.159208 0
-0.00655852 0.187413 0
-0.0347348 0.207972 0
-0.0484486 0.222143 0
-0.0539056 0.231341 0
-0.0549477 0.236727 0
-0.0538843 0.239204 0
-0.0520576 0.23945 0
-0.0502089 0.237958 0
-0.0487116 0.235084 0
-0.0477176 0.231083 0
-0.0472496 0.22614 0
-0.0472583 0.220392 0
-0.0476578 0.213945 0
-0.0483465 0.206886 0
-0.0492212 0.199289 0
-0.0501834 0.191223 0
-0.0511449 0.182756 0
-0.0520289 0.173952 0
-0.0527717 0.164878 0
-0.0533223 0.155597 0
-0.0536419 0.146175 0
-0.0537033 0.136677 0
-0.0534894 0.127163 0
-0.052992 0.117694 0
-0.0522105 0.108327 0
-0.0511501 0.0991145 0
-0.0498209 0.0901058 0
-0.048236 0.0813464 0
-0.0464108 0.0728775 0
-0.0443615 0.0647364 0
-0.0421044 0.0569568 0
-0.0396551 0.0495688 0
-0.0370284 0.0425998 0
-0.034238 0.0360746 0
-0.0312967 0.0300158 0
-0.028217 0.0244445 0
-0.0250124 0.0193808 0
-0.0216988 0.0148442 0
-0.0182967 0.0108541 0
-0.0148342 0.00743193 0
-0.0113502 0.00460273 0
-0.00789868 0.00239018 0
-0.00455158 0.000831952 0
-0.00140398 0.000111646 0
0.830686 0.00460078 0
0.537268 0.0288474 0
0.320481 0.0690026 0
0.172936 0.108586 0
0.0776586 0.143526 0
0.0187171 0.172264 0
-0.0161557 0.194661 0
-0.0354183 0.211119 0
-0.0452938 0.222714 0
-0.0498005 0.230409 0
-0.0514502 0.234997 0
-0.0517652 0.237097 0
-0.0516321 0.237188 0
-0.0515347 0.235629 0
-0.0517062 0.232694 0
-0.052227 0.228592 0
-0.0530871 0.223487 0
-0.0542266 0.217511 0
-0.055561 0.210777 0
-0.0569968 0.203382 0
-0.0584417 0.195418 0
-0.0598103 0.186971 0
-0.0610279 0.178122 0
-0.0620319 0.168951 0
-0.0627726 0.159537 0
-0.063213 0.149954 0
-0.063328 0.140276 0
-0.0631035 0.130572 0
-0.0625347 0.120908 0
-0.0616248 0.111344 0
-0.0603834 0.101937 0
-0.058825 0.0927383 0
-0.0569673 0.0837944 0
-0.0548298 0.0751467 0
-0.0524329 0.0668321 0
-0.0497967 0.0588833 0
-0.04694 0.0513294 0
-0.0438805 0.0441963 0
-0.0406341 0.0375074 0
-0.0372152 0.0312841 0
-0.0336376 0.0255468 0
-0.029915 0.0203155 0
-0.0260629 0.0156104 0
-0.0221003 0.0114536 0
-0.018052 0.00787015 0
-0.0139514 0.00489122 0
-0.00984336 0.00254831 0
-0.00578577 0.000889455 0
-0.00185256 0.000119719 0
0.844579 0.00359422 0
0.568834 0.0242528 0
0.357981 0.0598764 0
0.209142 0.0964635 0
0.109226 0.13 0
0.0445869 0.158621 0
0.00408175 0.181863 0
-0.0204087 0.199914 0
-0.0346265 0.213291 0
-0.0426753 0.222795 0
-0.0472044 0.229103 0
-0.0498722 0.232771 0
-0.0516814 0.234244 0
-0.0532084 0.233871 0
-0.054757 0.231929 0
-0.0564589 0.228637 0
-0.0583412 0.224177 0
-0.0603696 0.218699 0
-0.0624766 0.212334 0
-0.0645802 0.2052 0
-0.0665956 0.197406 0
-0.0684425 0.189053 0
-0.0700497 0.180238 0
-0.0713578 0.171055 0
-0.0723203 0.161593 0
-0.0729035 0.151939 0
-0.0730863 0.142173 0
-0.0728588 0.132371 0
-0.0722212 0.122606 0
-0.071182 0.112942 0
-0.0697563 0.103437 0
-0.0679641 0.0941457 0
-0.0658283 0.0851145 0
-0.0633737 0.0763845 0
-0.0606254 0.067992 0
-0.0576074 0.0599683 0
-0.0543424 0.0523405 0
-0.0508507 0.0451326 0
-0.0471504 0.0383663 0
-0.0432573 0.0320612 0
-0.0391857 0.0262367 0
-0.0349488 0.020912 0
-0.0305605 0.0161083 0
-0.0260368 0.0118489 0
-0.0213975 0.00816253 0
-0.0166685 0.00508526 0
-0.0118837 0.00265506 0
-0.00708536 0.000928148 0
-0.00232579 0.000125039 0
0.8563 0.0029118 0
0.596485 0.0207631 0
0.392009 0.052565 0
0.243123 0.0863598 0
0.139847 0.118312 0
0.0705433 0.146402 0
0.0251569 0.169917 0
-0.00402817 0.188895 0
-0.0224201 0.203558 0
-0.0339958 0.214434 0
-0.0414801 0.222105 0
-0.0466291 0.22706 0
-0.0505361 0.229702 0
-0.0538531 0.23036 0
-0.0569424 0.229305 0
-0.0599805 0.226759 0
-0.0630269 0.222911 0
-0.0660707 0.217922 0
-0.0690606 0.211937 0
-0.0719262 0.20509 0
-0.0745906 0.197501 0
-0.0769795 0.189288 0
-0.0790268 0.180561 0
-0.0806775 0.171425 0
-0.0818896 0.16198 0
-0.0826343 0.152322 0
-0.0828961 0.142541 0
-0.082671 0.132717 0
-0.0819654 0.122929 0
-0.0807944 0.113244 0
-0.0791799 0.103724 0
-0.0771483 0.0944237 0
-0.074729 0.0853897 0
-0.0719527 0.0766627 0
-0.0688497 0.0682774 0
-0.0654486 0.0602632 0
-0.0617759 0.0526451 0
-0.0578549 0.0454445 0
-0.0537057 0.0386807 0
-0.0493449 0.0323713 0
-0.0447868 0.0265338 0
-0.0400434 0.0211867 0
-0.0351259 0.0163508 0
-0.0300458 0.0120509 0
-0.0248167 0.00831772 0
-0.0194553 0.00519135 0
-0.013983 0.00271467 0
-0.00842589 0.000950001 0
-0.00281442 0.000128039 0
0.866376 0.00242912 0
0.620943 0.0180468 0
0.422993 0.0466159 0
0.274942 0.0778546 0
0.169302 0.108163 0
0.0961856 0.135468 0
0.0465601 0.158885 0
0.0132403 0.178267 0
-0.00910601 0.193794 0
-0.0241323 0.205681 0
-0.0345831 0.214401 0
-0.0422795 0.22038 0
-0.0483838 0.223982 0
-0.0536072 0.22551 0
-0.0583599 0.225221 0
-0.0628553 0.223334 0
-0.0671803 0.220038 0
-0.0713439 0.215504 0
-0.0753097 0.209885 0
-0.0790174 0.203324 0
-0.0823981 0.195955 0
-0.0853839 0.187906 0
-0.0879142 0.179298 0
-0.0899396 0.170249 0
-0.0914237 0.160868 0
-0.0923443 0.151258 0
-0.0926923 0.141517 0
-0.0924713 0.131733 0
-0.0916953 0.121987 0
-0.0903874 0.11235 0
-0.0885773 0.102886 0
-0.0862992 0.0936496 0
-0.0835899 0.0846881 0
-0.0804865 0.0760406 0
-0.0770253 0.0677397 0
-0.0732401 0.0598125 0
-0.0691613 0.0522812 0
-0.0648153 0.0451642 0
-0.0602238 0.0384779 0
-0.0554043 0.0322372 0
-0.0503703 0.0264575 0
-0.0451317 0.0211556 0
-0.0396961 0.0163516 0
-0.0340696 0.0120704 0
-0.0282581 0.00834428 0
-0.022268 0.0052157 0
-0.0161072 0.00273099 0
-0.00978489 0.000956686 0
-0.00331021 0.00012905 0
0.87517 0.00207284 0
0.642765 0.0158816 0
0.451309 0.041697 0
0.304714 0.0706132 0
0.197488 0.0992878 0
0.121264 0.125655 0
0.0679529 0.148724 0
0.0308863 0.168201 0
0.00498921 0.184147 0
-0.0133904 0.196753 0
-0.0267821 0.206249 0
-0.0370497 0.213018 0
-0.0454084 0.217382 0
-0.0526159 0.219618 0
-0.0591203 0.219966 0
-0.0651645 0.218638 0
-0.0708576 0.215823 0
-0.0762249 0.211691 0
-0.081242 0.206403 0
-0.0858576 0.20011 0
-0.0900099 0.192956 0
-0.0936371 0.185077 0
-0.0966846 0.176606 0
-0.0991092 0.167668 0
-0.100881 0.158383 0
-0.101986 0.148861 0
-0.102422 0.139206 0
-0.102202 0.129512 0
-0.10135 0.119863 0
-0.0998961 0.110334 0
-0.0978808 0.100989 0
-0.0953467 0.0918837 0
-0.0923386 0.0830632 0
-0.0889015 0.0745655 0
-0.085078 0.0664208 0
-0.0809074 0.0586529 0
-0.0764245 0.0512808 0
-0.0716584 0.0443195 0
-0.0666328 0.0377818 0
-0.0613654 0.0316796 0
-0.0558684 0.0260252 0
-0.0501492 0.0208334 0
-0.0442108 0.0161227 0
-0.0380529 0.0119173 0
-0.0316725 0.00824975 0
-0.025065 0.0051636 0
-0.0182241 0.0027072 0
-0.0111417 0.000949501 0
-0.00380575 0.000128306 0
0.882937 0.00179878 0
0.66238 0.0141151 0
0.477279 0.0375622 0
0.332569 0.0643695 0
0.224367 0.0914537 0
0.14562 0.116794 0
0.0891043 0.139334 0
0.0486551 0.158678 0
0.0194585 0.17478 0
-0.00204721 0.187778 0
-0.0183176 0.197818 0
-0.0311477 0.205162 0
-0.0417856 0.210102 0
-0.0510242 0.212889 0
-0.0593406 0.213745 0
-0.067 0.212871 0
-0.0741286 0.210451 0
-0.0807642 0.206657 0
-0.0868914 0.201654 0
-0.0924662 0.195597 0
-0.0974327 0.188639 0
-0.101735 0.180924 0
-0.105324 0.172594 0
-0.108164 0.163782 0
-0.110232 0.154615 0
-0.111522 0.145212 0
-0.112042 0.135682 0
-0.111815 0.126122 0
-0.110874 0.11662 0
-0.109262 0.107252 0
-0.107029 0.0980846 0
-0.104226 0.0891711 0
-0.100909 0.080556 0
-0.0971293 0.0722744 0
-0.0929382 0.0643536 0
-0.0883803 0.0568139 0
-0.0834949 0.0496701 0
-0.0783144 0.0429334 0
-0.0728638 0.0366126 0
-0.0671609 0.0307157 0
-0.0612164 0.0252519 0
-0.0550341 0.0202327 0
-0.048612 0.0156744 0
-0.0419423 0.0115998 0
-0.0350129 0.00804023 0
-0.027807 0.00503923 0
-0.0203035 0.00264567 0
-0.0124768 0.000929368 0
-0.00429423 0.00012595 0
0.889861 0.00157963 0
0.680118 0.012641 0
0.50117 0.0340267 0
0.358635 0.0589116 0
0.249932 0.0844614 0
0.169144 0.108722 0
0.109838 0.130605 0
0.0663311 0.149637 0
0.0340783 0.16569 0
0.00965561 0.178825 0
-0.00940331 0.189194 0
-0.0247642 0.196921 0
-0.0376816 0.202266 0
-0.0489742 0.205454 0
-0.0591399 0.206688 0
-0.0684597 0.206159 0
-0.0770719 0.204045 0
-0.0850226 0.200518 0
-0.0923029 0.195743 0
-0.0988738 0.189882 0
-0.104684 0.183092 0
-0.109683 0.175527 0
-0.113828 0.167334 0
-0.117089 0.158655 0
-0.119452 0.149624 0
-0.120921 0.140365 0
-0.121514 0.130991 0
-0.121265 0.121605 0
-0.12022 0.112296 0
-0.118432 0.103142 0
-0.115963 0.0942073 0
-0.112876 0.085545 0
-0.109236 0.0771971 0
-0.105104 0.0691958 0
-0.100539 0.0615644 0
-0.0955912 0.0543192 0
-0.0903051 0.0474705 0
-0.0847159 0.0410251 0
-0.0788504 0.0349872 0
-0.0727261 0.0293605 0
-0.0663514 0.02415 0
-0.0597265 0.0193639 0
-0.0528435 0.0150153 0
-0.0456868 0.0111243 0
-0.0382341 0.00772047 0
-0.0304562 0.00484566 0
-0.0223166 0.00254806 0
-0.0137721 0.000896864 0
-0.00476918 0.000122054 0
0.896073 0.00139795 0
0.696235 0.0113832 0
0.523198 0.0309501 0
0.383029 0.0540698 0
0.274193 0.078142 0
0.191763 0.101293 0
0.13002 0.122422 0
0.0837418 0.141001 0
0.048649 0.15684 0
0.0214603 0.169938 0
-0.000230306 0.180406 0
-0.0180728 0.188349 0
-0.033252 0.193937 0
-0.0466029 0.197383 0
-0.0586365 0.19887 0
-0.069644 0.198576 0
-0.0797706 0.196676 0
-0.0890672 0.193338 0
-0.0975285 0.18873 0
-0.105118 0.183018 0
-0.111789 0.176364 0
-0.117494 0.168928 0
-0.122197 0.160865 0
-0.125875 0.152322 0
-0.128523 0.143441 0
-0.130156 0.134349 0
-0.130803 0.125164 0
-0.130511 0.115991 0
-0.129338 0.10692 0
-0.127352 0.0980295 0
-0.124627 0.0893823 0
-0.121237 0.0810295 0
-0.117258 0.07301 0
-0.112762 0.0653519 0
-0.107815 0.0580743 0
-0.102474 0.0511886 0
-0.0967891 0.0447004 0
-0.0907978 0.0386112 0
-0.0845284 0.0329202 0
-0.077998 0.0276265 0
-0.0712128 0.0227305 0
-0.0641686 0.018236 0
-0.0568513 0.0141523 0
-0.0492369 0.0104962 0
-0.0412926 0.00729403 0
-0.0329761 0.00458507 0
-0.0242356 0.00241544 0
-0.0150097 0.000852301 0
-0.00522439 0.000116635 0
0.901673 0.00124212 0
0.710927 0.0102855 0
0.54354 0.0282234 0
0.405848 0.0497061 0
0.297168 0.0723506 0
0.213422 0.0943698 0
0.149547 0.114667 0
0.10075 0.132678 0
0.0630167 0.148161 0
0.0332142 0.161069 0
0.00901443 0.17146 0
-0.011235 0.179453 0
-0.028644 0.185134 0
-0.0440424 0.1887 0
-0.0579473 0.190316 0
-0.0706542 0.190149 0
-0.0823106 0.188369 0
-0.0929688 0.185142 0
-0.102624 0.180637 0
-0.111242 0.175024 0
-0.118776 0.16847 0
-0.125184 0.161141 0
-0.130434 0.153199 0
-0.134514 0.144796 0
-0.137427 0.136077 0
-0.139199 0.127176 0
-0.139873 0.118213 0
-0.13951 0.109292 0
-0.138182 0.100506 0
-0.135971 0.0919309 0
-0.132963 0.0836274 0
-0.129249 0.0756432 0
-0.124914 0.0680135 0
-0.12004 0.0607617 0
-0.114702 0.0539019 0
-0.108965 0.0474401 0
-0.102883 0.0413765 0
-0.0964961 0.035707 0
-0.089835 0.0304256 0
-0.0829157 0.0255259 0
-0.0757418 0.0210033 0
-0.0683045 0.016857 0
-0.060583 0.0130916 0
-0.0525449 0.00971976 0
-0.0441462 0.00676376 0
-0.0353315 0.00425903 0
-0.0260334 0.00224847 0
-0.0161724 0.000795802 0
-0.0056537 0.00010967 0
0.906732 0.00110411 0
0.724342 0.00930589 0
0.562334 0.0257601 0
0.427174 0.0457064 0
0.318868 0.066962 0