# vtk DataFile Version 3.0
Malha 2D com triângulos e temperatura
ASCII
DATASET UNSTRUCTURED_GRID

POINTS 2500 double
0 0 0
1 0 0
1 1 0
0 1 0
0.0204082 0 0
0.0408163 0 0
0.0612245 0 0
0.0816327 0 0
0.102041 0 0
0.122449 0 0
0.142857 0 0
0.163265 0 0
0.183673 0 0
0.204082 0 0
0.22449 0 0
0.244898 0 0
0.265306 0 0
0.285714 0 0
0.306122 0 0
0.326531 0 0
0.346939 0 0
0.367347 0 0
0.387755 0 0
0.408163 0 0
0.428571 0 0
0.44898 0 0
0.469388 0 0
0.489796 0 0
0.510204 0 0
0.530612 0 0
0.55102 0 0
0.571429 0 0
0.591837 0 0
0.612245 0 0
0.632653 0 0
0.653061 0 0
0.673469 0 0
0.693878 0 0
0.714286 0 0
0.734694 0 0
0.755102 0 0
0.77551 0 0
0.795918 0 0
0.816327 0 0
0.836735 0 0
0.857143 0 0
0.877551 0 0
0.897959 0 0
0.918367 0 0
0.938776 0 0
0.959184 0 0
0.979592 0 0
1 0.0204082 0
1 0.0408163 0
1 0.0612245 0
1 0.0816327 0
1 0.102041 0
1 0.122449 0
1 0.142857 0
1 0.163265 0
1 0.183673 0
1 0.204082 0
1 0.22449 0
1 0.244898 0
1 0.265306 0
1 0.285714 0
1 0.306122 0
1 0.326531 0
1 0.346939 0
1 0.367347 0
1 0.387755 0
1 0.408163 0
1 0.428571 0
1 0.44898 0
1 0.469388 0
1 0.489796 0
1 0.510204 0
1 0.530612 0
1 0.55102 0
1 0.571429 0
1 0.591837 0
1 0.612245 0
1 0.632653 0
1 0.653061 0
1 0.673469 0
1 0.693878 0
1 0.714286 0
1 0.734694 0
1 0.755102 0
1 0.77551 0
1 0.795918 0
1 0.816327 0
1 0.836735 0
1 0.857143 0
1 0.877551 0
1 0.897959 0
1 0.918367 0
1 0.938776 0
1 0.959184 0
1 0.979592 0
0.979592 1 0
0.959184 1 0
0.938776 1 0
0.918367 1 0
0.897959 1 0
0.877551 1 0
0.857143 1 0
0.836735 1 0
0.816327 1 0
0.795918 1 0
0.77551 1 0
0.755102 1 0
0.734694 1 0
0.714286 1 0
0.693878 1 0
0.673469 1 0
0.653061 1 0
0.632653 1 0
0.612245 1 0
0.591837 1 0
0.571429 1 0
0.55102 1 0
0.530612 1 0
0.510204 1 0
0.489796 1 0
0.469388 1 0
0.44898 1 0
0.428571 1 0
0.408163 1 0
0.387755 1 0
0.367347 1 0
0.346939 1 0
0.326531 1 0
0.306122 1 0
0.285714 1 0
0.265306 1 0
0.244898 1 0
0.22449 1 0
0.204082 1 0
0.183673 1 0
0.163265 1 0
0.142857 1 0
0.122449 1 0
0.102041 1 0
0.0816327 1 0
0.0612245 1 0
0.0408163 1 0
0.0204082 1 0
0 0.979592 0
0 0.959184 0
0 0.938776 0
0 0.918367 0
0 0.897959 0
0 0.877551 0
0 0.857143 0
0 0.836735 0
0 0.816327 0
0 0.795918 0
0 0.77551 0
0 0.755102 0
0 0.734694 0
0 0.714286 0
0 0.693878 0
0 0.673469 0
0 0.653061 0
0 0.632653 0
0 0.612245 0
0 0.591837 0
0 0.571429 0
0 0.55102 0
0 0.530612 0
0 0.510204 0
0 0.489796 0
0 0.469388 0
0 0.44898 0
0 0.428571 0
0 0.408163 0
0 0.387755 0
0 0.367347 0
0 0.346939 0
0 0.326531 0
0 0.306122 0
0 0.285714 0
0 0.265306 0
0 0.244898 0
0 0.22449 0
0 0.204082 0
0 0.183673 0
0 0.163265 0
0 0.142857 0
0 0.122449 0
0 0.102041 0
0 0.0816327 0
0 0.0612245 0
0 0.0408163 0
0 0.0204082 0
0.0204082 0.979592 0
0.0204082 0.959184 0
0.0204082 0.938776 0
0.0204082 0.918367 0
0.0204082 0.897959 0
0.0204082 0.877551 0
0.0204082 0.857143 0
0.0204082 0.836735 0
0.0204082 0.816327 0
0.0204082 0.795918 0
0.0204082 0.77551 0
0.0204082 0.755102 0
0.0204082 0.734694 0
0.0204082 0.714286 0
0.0204082 0.693878 0
0.0204082 0.673469 0
0.0204082 0.653061 0
0.0204082 0.632653 0
0.0204082 0.612245 0
0.0204082 0.591837 0
0.0204082 0.571429 0
0.0204082 0.55102 0
0.0204082 0.530612 0
0.0204082 0.510204 0
0.0204082 0.489796 0
0.0204082 0.469388 0
0.0204082 0.44898 0
0.0204082 0.428571 0
0.0204082 0.408163 0
0.0204082 0.387755 0
0.0204082 0.367347 0
0.0204082 0.346939 0
0.0204082 0.326531 0
0.0204082 0.306122 0
0.0204082 0.285714 0
0.0204082 0.265306 0
0.0204082 0.244898 0
0.0204082 0.22449 0
0.0204082 0.204082 0
0.0204082 0.183673 0
0.0204082 0.163265 0
0.0204082 0.142857 0
0.0204082 0.122449 0
0.0204082 0.102041 0
0.0204082 0.0816327 0
0.0204082 0.0612245 0
0.0204082 0.0408163 0
0.0204082 0.0204082 0
0.0408163 0.979592 0
0.0408163 0.959184 0
0.0408163 0.938776 0
0.0408163 0.918367 0
0.0408163 0.897959 0
0.0408163 0.877551 0
0.0408163 0.857143 0
0.0408163 0.836735 0
0.0408163 0.816327 0
0.0408163 0.795918 0
0.0408163 0.77551 0
0.0408163 0.755102 0
0.0408163 0.734694 0
0.0408163 0.714286 0
0.0408163 0.693878 0
0.0408163 0.673469 0
0.0408163 0.653061 0
0.0408163 0.632653 0
0.0408163 0.612245 0
0.0408163 0.591837 0
0.0408163 0.571429 0
0.0408163 0.55102 0
0.0408163 0.530612 0
0.0408163 0.510204 0
0.0408163 0.489796 0
0.0408163 0.469388 0
0.0408163 0.44898 0
0.0408163 0.428571 0
0.0408163 0.408163 0
0.0408163 0.387755 0
0.0408163 0.367347 0
0.0408163 0.346939 0
0.0408163 0.326531 0
0.0408163 0.306122 0
0.0408163 0.285714 0
0.0408163 0.265306 0
0.0408163 0.244898 0
0.0408163 0.22449 0
0.0408163 0.204082 0
0.0408163 0.183673 0
0.0408163 0.163265 0
0.0408163 0.142857 0
0.0408163 0.122449 0
0.0408163 0.102041 0
0.0408163 0.0816327 0
0.0408163 0.0612245 0
0.0408163 0.0408163 0
0.0408163 0.0204082 0
0.0612245 0.979592 0
0.0612245 0.959184 0
0.0612245 0.938776 0
0.0612245 0.918367 0
0.0612245 0.897959 0
0.0612245 0.877551 0
0.0612245 0.857143 0
0.0612245 0.836735 0
0.0612245 0.816327 0
0.0612245 0.795918 0
0.0612245 0.77551 0
0.0612245 0.755102 0
0.0612245 0.734694 0
0.0612245 0.714286 0
0.0612245 0.693878 0
0.0612245 0.673469 0
0.0612245 0.653061 0
0.0612245 0.632653 0
0.0612245 0.612245 0
0.0612245 0.591837 0
0.0612245 0.571429 0
0.0612245 0.55102 0
0.0612245 0.530612 0
0.0612245 0.510204 0
0.0612245 0.489796 0
0.0612245 0.469388 0
0.0612245 0.44898 0
0.0612245 0.428571 0
0.0612245 0.408163 0
0.0612245 0.387755 0
0.0612245 0.367347 0
0.0612245 0.346939 0
0.0612245 0.326531 0
0.0612245 0.306122 0
0.0612245 0.285714 0
0.0612245 0.265306 0
0.0612245 0.244898 0
0.0612245 0.22449 0
0.0612245 0.204082 0
0.0612245 0.183673 0
0.0612245 0.163265 0
0.0612245 0.142857 0
0.0612245 0.122449 0
0.0612245 0.102041 0
0.0612245 0.0816327 0
0.0612245 0.0612245 0
0.0612245 0.0408163 0
0.0612245 0.0204082 0
0.0816327 0.979592 0
0.0816327 0.959184 0
0.0816327 0.938776 0
0.0816327 0.918367 0
0.0816327 0.897959 0
0.0816327 0.877551 0
0.0816327 0.857143 0
0.0816327 0.836735 0
0.0816327 0.816327 0
0.0816327 0.795918 0
0.0816327 0.77551 0
0.0816327 0.755102 0
0.0816327 0.734694 0
0.0816327 0.714286 0
0.0816327 0.693878 0
0.0816327 0.673469 0
0.0816327 0.653061 0
0.0816327 0.632653 0
0.0816327 0.612245 0
0.0816327 0.591837 0
0.0816327 0.571429 0
0.0816327 0.55102 0
0.0816327 0.530612 0
0.0816327 0.510204 0
0.0816327 0.489796 0
0.0816327 0.469388 0
0.0816327 0.44898 0
0.0816327 0.428571 0
0.0816327 0.408163 0
0.0816327 0.387755 0
0.0816327 0.367347 0
0.0816327 0.346939 0
0.0816327 0.326531 0
0.0816327 0.306122 0
0.0816327 0.285714 0
0.0816327 0.265306 0
0.0816327 0.244898 0
0.0816327 0.22449 0
0.0816327 0.204082 0
0.0816327 0.183673 0
0.0816327 0.163265 0
0.0816327 0.142857 0
0.0816327 0.122449 0
0.0816327 0.102041 0
0.0816327 0.0816327 0
0.0816327 0.0612245 0
0.0816327 0.0408163 0
0.0816327 0.0204082 0
0.102041 0.979592 0
0.102041 0.959184 0
0.102041 0.938776 0
0.102041 0.918367 0
0.102041 0.897959 0
0.102041 0.877551 0
0.102041 0.857143 0
0.102041 0.836735 0
0.102041 0.816327 0
0.102041 0.795918 0
0.102041 0.77551 0
0.102041 0.755102 0
0.102041 0.734694 0
0.102041 0.714286 0
0.102041 0.693878 0
0.102041 0.673469 0
0.102041 0.653061 0
0.102041 0.632653 0
0.102041 0.612245 0
0.102041 0.591837 0
0.102041 0.571429 0
0.102041 0.55102 0
0.102041 0.530612 0
0.102041 0.510204 0
0.102041 0.489796 0
0.102041 0.469388 0
0.102041 0.44898 0
0.102041 0.428571 0
0.102041 0.408163 0
0.102041 0.387755 0
0.102041 0.367347 0
0.102041 0.346939 0
0.102041 0.326531 0
0.102041 0.306122 0
0.102041 0.285714 0
0.102041 0.265306 0
0.102041 0.244898 0
0.102041 0.22449 0
0.102041 0.204082 0
0.102041 0.183673 0
0.102041 0.163265 0
0.102041 0.142857 0
0.102041 0.122449 0
0.102041 0.102041 0
0.102041 0.0816327 0
0.102041 0.0612245 0
0.102041 0.0408163 0
0.102041 0.0204082 0
0.122449 0.979592 0
0.122449 0.959184 0
0.122449 0.938776 0
0.122449 0.918367 0
0.122449 0.897959 0
0.122449 0.877551 0
0.122449 0.857143 0
0.122449 0.836735 0
0.122449 0.816327 0
0.122449 0.795918 0
0.122449 0.77551 0
0.122449 0.755102 0
0.122449 0.734694 0
0.122449 0.714286 0
0.122449 0.693878 0
0.122449 0.673469 0
0.122449 0.653061 0
0.122449 0.632653 0
0.122449 0.612245 0
0.122449 0.591837 0
0.122449 0.571429 0
0.122449 0.55102 0
0.122449 0.530612 0
0.122449 0.510204 0
0.122449 0.489796 0
0.122449 0.469388 0
0.122449 0.44898 0
0.122449 0.428571 0
0.122449 0.408163 0
0.122449 0.387755 0
0.122449 0.367347 0
0.122449 0.346939 0
0.122449 0.326531 0
0.122449 0.306122 0
0.122449 0.285714 0
0.122449 0.265306 0
0.122449 0.244898 0
0.122449 0.22449 0
0.122449 0.204082 0
0.122449 0.183673 0
0.122449 0.163265 0
0.122449 0.142857 0
0.122449 0.122449 0
0.122449 0.102041 0
0.122449 0.0816327 0
0.122449 0.0612245 0
0.122449 0.0408163 0
0.122449 0.0204082 0
0.142857 0.979592 0
0.142857 0.959184 0
0.142857 0.938776 0
0.142857 0.918367 0
0.142857 0.897959 0
0.142857 0.877551 0
0.142857 0.857143 0
0.142857 0.836735 0
0.142857 0.816327 0
0.142857 0.795918 0
0.142857 0.77551 0
0.142857 0.755102 0
0.142857 0.734694 0
0.142857 0.714286 0
0.142857 0.693878 0
0.142857 0.673469 0
0.142857 0.653061 0
0.142857 0.632653 0
0.142857 0.612245 0
0.142857 0.591837 0
0.142857 0.571429 0
0.142857 0.55102 0
0.142857 0.530612 0
0.142857 0.510204 0
0.142857 0.489796 0
0.142857 0.469388 0
0.142857 0.44898 0
0.142857 0.428571 0
0.142857 0.408163 0
0.142857 0.387755 0
0.142857 0.367347 0
0.142857 0.346939 0
0.142857 0.326531 0
0.142857 0.306122 0
0.142857 0.285714 0
0.142857 0.265306 0
0.142857 0.244898 0
0.142857 0.22449 0
0.142857 0.204082 0
0.142857 0.183673 0
0.142857 0.163265 0
0.142857 0.142857 0
0.142857 0.122449 0
0.142857 0.102041 0
0.142857 0.0816327 0
0.142857 0.0612245 0
0.142857 0.0408163 0
0.142857 0.0204082 0
0.163265 0.979592 0
0.163265 0.959184 0
0.163265 0.938776 0
0.163265 0.918367 0
0.163265 0.897959 0
0.163265 0.877551 0
0.163265 0.857143 0
0.163265 0.836735 0
0.163265 0.816327 0
0.163265 0.795918 0
0.163265 0.77551 0
0.163265 0.755102 0
0.163265 0.734694 0
0.163265 0.714286 0
0.163265 0.693878 0
0.163265 0.673469 0
0.163265 0.653061 0
0.163265 0.632653 0
0.163265 0.612245 0
0.163265 0.591837 0
0.163265 0.571429 0
0.163265 0.55102 0
[...]
CELL_DATA 2401
VECTORS velocity double
0.257354 0.157463 0.0
-0.00271554 0.264573 0.0
-0.0323268 0.205421 0.0
-0.0254027 0.150507 0.0
-0.0160759 0.112937 0.0
-0.00971186 0.087555 0.0
-0.00593058 0.0704728 0.0
-0.00374061 0.058784 0.0
-0.00245353 0.0505785 0.0
-0.00167337 0.0446671 0.0
-0.00118403 0.0402998 0.0
-0.000867912 0.0369894 0.0
-0.000659467 0.0344106 0.0
-0.000520674 0.0323395 0.0
-0.000428461 0.0306191 0.0
-0.000368191 0.0291373 0.0
-0.000330193 0.027813 0.0
-0.000307843 0.0265878 0.0
-0.000296455 0.0254196 0.0
-0.000292624 0.0242784 0.0
-0.000293813 0.0231437 0.0
-0.000298096 0.0220018 0.0
-0.000303993 0.020845 0.0
-0.000310358 0.0196698 0.0
-0.000316307 0.018476 0.0
-0.000321169 0.0172662 0.0
-0.00032445 0.016045 0.0
-0.000325802 0.0148182 0.0
-0.000325 0.013593 0.0
-0.000321924 0.0123768 0.0
-0.000316538 0.0111777 0.0
-0.000308875 0.0100035 0.0
-0.000299015 0.00886207 0.0
-0.000287073 0.00776093 0.0
-0.000273183 0.00670719 0.0
-0.000257483 0.00570754 0.0
-0.000240102 0.00476825 0.0
-0.000221144 0.00389514 0.0
-0.00020068 0.00309372 0.0
-0.00017873 0.00236921 0.0
-0.000155254 0.00172668 0.0
-0.000130138 0.00117114 0.0
-0.000103206 0.000707617 0.0
-7.42604e-05 0.000341052 0.0
-4.32657e-05 7.59459e-05 0.0
-1.08634e-05 -8.47462e-05 0.0
2.02988e-05 -0.000142055 0.0
4.28381e-05 -0.000110063 0.0
3.75826e-05 -3.73882e-05 0.0
0.340589 0.122948 0.0
-0.000700302 0.249372 0.0
-0.0653159 0.271525 0.0
-0.0633436 0.252013 0.0
-0.0485914 0.221462 0.0
-0.0350055 0.191578 0.0
-0.0249216 0.166171 0.0
-0.0178647 0.145744 0.0
-0.0129936 0.129678 0.0
-0.00962248 0.117113 0.0
-0.00727263 0.107243 0.0
-0.00562499 0.0993988 0.0
-0.00446763 0.0930536 0.0
-0.00365792 0.0878003 0.0
-0.0030979 0.0833287 0.0
-0.00271882 0.0794037 0.0
-0.00247139 0.0758481 0.0
-0.00231959 0.0725295 0.0
-0.00223655 0.0693502 0.0
-0.00220194 0.0662397 0.0
-0.00220014 0.0631484 0.0
-0.00221899 0.060044 0.0
-0.00224899 0.056907 0.0
-0.00228271 0.053729 0.0
-0.00231434 0.0505096 0.0
-0.00233947 0.047255 0.0
-0.00235477 0.0439764 0.0
-0.00235788 0.0406884 0.0
-0.00234724 0.0374084 0.0
-0.00232193 0.0341554 0.0
-0.00228159 0.030949 0.0
-0.00222628 0.0278093 0.0
-0.00215639 0.0247559 0.0
-0.00207253 0.0218081 0.0
-0.00197547 0.0189841 0.0
-0.001866 0.0163011 0.0
-0.00174495 0.0137754 0.0
-0.00161301 0.0114223 0.0
-0.0014708 0.00925584 0.0
-0.00131877 0.00728959 0.0
-0.00115721 0.00553615 0.0
-0.000986342 0.0040074 0.0
-0.00080648 0.0027142 0.0
-0.000618489 0.00166576 0.0
-0.000424753 0.000868261 0.0
-0.000231337 0.00032205 0.0
-5.23936e-05 1.66027e-05 0.0
8.24308e-05 -8.07181e-05 0.0
0.000109486 -4.16524e-05 0.0
0.500822 0.0767819 0.0
0.098972 0.183161 0.0
-0.0395009 0.249111 0.0
-0.0735658 0.265551 0.0
-0.0719899 0.257226 0.0
-0.0606232 0.239452 0.0
-0.0482994 0.219499 0.0
-0.0376642 0.200652 0.0
-0.0292109 0.184117 0.0
-0.0227393 0.170096 0.0
-0.0178835 0.158365 0.0
-0.0142891 0.148554 0.0
-0.0116609 0.140271 0.0
-0.00976633 0.133161 0.0
-0.00842651 0.12692 0.0
-0.00750448 0.121302 0.0
-0.00689545 0.116108 0.0
-0.00651876 0.111185 0.0
-0.00631186 0.106416 0.0
-0.00622589 0.101717 0.0
-0.00622237 0.0970258 0.0
-0.00627083 0.0923041 0.0
-0.00634716 0.0875289 0.0
-0.00643225 0.0826914 0.0
-0.00651115 0.0777936 0.0
-0.00657235 0.0728461 0.0
-0.00660719 0.0678661 0.0
-0.00660946 0.0628758 0.0
-0.00657499 0.0579005 0.0
-0.00650133 0.0529679 0.0
-0.00638742 0.0481069 0.0
-0.00623332 0.0433464 0.0
-0.00603994 0.0387152 0.0
-0.0058088 0.0342411 0.0
-0.00554179 0.0299507 0.0
-0.005241 0.0258695 0.0
-0.00490853 0.022021 0.0
-0.00454637 0.0184277 0.0
-0.00415632 0.0151102 0.0
-0.00373998 0.012088 0.0
-0.00329882 0.00937895 0.0
-0.00283448 0.00699929 0.0
-0.00234936 0.00496312 0.0
-0.00184778 0.00328128 0.0
-0.00133816 0.00195956 0.0
-0.000837162 0.000995583 0.0
-0.000376982 0.000372954 0.0
-1.54994e-05 5.36108e-05 0.0
0.000138992 -1.82853e-05 0.0
0.609931 0.0480253 0.0
0.195467 0.133912 0.0
0.0111441 0.20934 0.0
-0.058237 0.246334 0.0
-0.0761787 0.256886 0.0
-0.0737102 0.253505 0.0
-0.064307 0.243375 0.0
-0.0535997 0.230741 0.0
-0.0437744 0.217852 0.0
-0.035525 0.205753 0.0
-0.0289225 0.194827 0.0
-0.0238012 0.185108 0.0
-0.0199264 0.17647 0.0
-0.0170639 0.168722 0.0
-0.0150055 0.16166 0.0
-0.0135758 0.155099 0.0
-0.0126301 0.148874 0.0
-0.0120512 0.142855 0.0
-0.0117441 0.136935 0.0
-0.0116319 0.131038 0.0
-0.0116528 0.125108 0.0
-0.0117567 0.119112 0.0
-0.0119032 0.11303 0.0
-0.0120604 0.106859 0.0
-0.0122027 0.100607 0.0
-0.0123105 0.0942911 0.0
-0.0123689 0.0879344 0.0
-0.0123674 0.0815659 0.0
-0.0122987 0.0752183 0.0
-0.0121586 0.0689261 0.0
-0.0119454 0.0627251 0.0
-0.0116592 0.0566513 0.0
-0.0113016 0.05074 0.0
-0.0108753 0.0450254 0.0
-0.0103836 0.0395403 0.0
-0.00983017 0.0343158 0.0
-0.00921894 0.0293808 0.0
-0.00855358 0.0247628 0.0
-0.00783761 0.0204871 0.0
-0.00707439 0.016577 0.0
-0.00626736 0.0130538 0.0
-0.00542055 0.00993651 0.0
-0.00453963 0.00724096 0.0
-0.00363379 0.00497883 0.0
-0.00271885 0.00315588 0.0
-0.00182272 0.0017695 0.0
-0.000994178 0.000802875 0.0
-0.000313739 0.000222956 0.0
8.05841e-05 1.23326e-05 0.0
0.68029 0.030142 0.0
0.278193 0.0981491 0.0
0.069345 0.17094 0.0
-0.0276765 0.217464 0.0
-0.0653047 0.240984 0.0
-0.0745487 0.249577 0.0
-0.0712871 0.249162 0.0
-0.0632963 0.243839 0.0
-0.0542521 0.236173 0.0
-0.04579 0.227649 0.0
-0.0385406 0.219054 0.0
-0.0326513 0.210758 0.0
-0.0280504 0.202885 0.0
-0.0245785 0.195428 0.0
-0.022052 0.188315 0.0
-0.0202935 0.181449 0.0
-0.0191431 0.174734 0.0
-0.0184622 0.16808 0.0
-0.0181334 0.161417 0.0
-0.0180583 0.154688 0.0
-0.0181551 0.147858 0.0
-0.0183563 0.140904 0.0
-0.0186068 0.133822 0.0
-0.0188622 0.126617 0.0
-0.0190868 0.119306 0.0
-0.0192532 0.111912 0.0
-0.0193405 0.104468 0.0
-0.0193338 0.0970086 0.0
-0.0192232 0.0895732 0.0
-0.0190028 0.0822024 0.0
-0.0186703 0.0749376 0.0
-0.0182264 0.0678199 0.0
-0.0176735 0.0608896 0.0
-0.0170159 0.0541855 0.0
-0.0162585 0.0477446 0.0
-0.0154072 0.0416016 0.0
-0.0144677 0.0357895 0.0
-0.0134459 0.0303385 0.0
-0.0123474 0.025277 0.0
-0.0111779 0.0206309 0.0
-0.00994337 0.0164234 0.0
-0.00865081 0.0126752 0.0
-0.00730983 0.00940338 0.0
-0.00593489 0.00662064 0.0
-0.00454904 0.00433405 0.0
-0.00318985 0.00254365 0.0
-0.0019184 0.00123705 0.0
-0.000829261 0.000392959 0.0
-7.34924e-05 4.19154e-05 0.0
0.72967 0.0191746 0.0
0.348709 0.0730318 0.0
0.127669 0.139305 0.0
0.0111038 0.188331 0.0
-0.0442287 0.219783 0.0
-0.0657131 0.237045 0.0
-0.0701403 0.244654 0.0
-0.0666237 0.246072 0.0
-0.0599721 0.243751 0.0
-0.0526389 0.239293 0.0
-0.0458025 0.233686 0.0
-0.0399583 0.227509 0.0
-0.0352453 0.221072 0.0
-0.0316244 0.214521 0.0
-0.0289757 0.207905 0.0
-0.0271495 0.201223 0.0
-0.0259931 0.194447 0.0
-0.0253634 0.187544 0.0
-0.0251321 0.180484 0.0
-0.0251872 0.173244 0.0
-0.0254331 0.165811 0.0
-0.025789 0.158184 0.0
-0.0261877 0.150373 0.0
-0.0265745 0.142397 0.0
-0.0269053 0.134284 0.0
-0.0271457 0.126068 0.0
-0.02727 0.117788 0.0
-0.0272596 0.109487 0.0
-0.0271024 0.101211 0.0
-0.0267919 0.0930037 0.0
-0.0263256 0.0849132 0.0
-0.0257048 0.0769842 0.0
-0.0249337 0.0692605 0.0
-0.024018 0.0617842 0.0
-0.0229652 0.0545948 0.0
-0.0217831 0.0477298 0.0
-0.02048 0.0412238 0.0
-0.019064 0.0351092 0.0
-0.0175434 0.0294157 0.0
-0.0159263 0.0241706 0.0
-0.0142215 0.0193983 0.0
-0.0124392 0.0151204 0.0
-0.010593 0.0113554 0.0
-0.00870207 0.00811753 0.0
-0.00679544 0.00541662 0.0
-0.00491754 0.00325787 0.0
-0.00313652 0.00163665 0.0
-0.00155247 0.000546831 0.0
-0.000315899 6.7364e-05 0.0
0.765677 0.0125798 0.0
0.408147 0.0557111 0.0
0.182695 0.114595 0.0
0.0527008 0.162771 0.0
-0.0169124 0.198073 0.0
-0.049838 0.221126 0.0
-0.0623771 0.234763 0.0
-0.0642644 0.241743 0.0
-0.0610671 0.244195 0.0
-0.0558733 0.24364 0.0
-0.0503327 0.241117 0.0
-0.0452692 0.2373 0.0
-0.04104 0.232613 0.0
-0.0377453 0.227311 0.0
-0.0353495 0.221537 0.0
-0.0337508 0.215369 0.0
-0.0328206 0.208848 0.0
-0.0324244 0.201991 0.0
-0.032434 0.194812 0.0
-0.0327322 0.187321 0.0
-0.0332155 0.179534 0.0
-0.0337947 0.171472 0.0
-0.0343942 0.163163 0.0
-0.0349517 0.154642 0.0
-0.0354168 0.145949 0.0
-0.0357502 0.137128 0.0
-0.0359225 0.128227 0.0
-0.0359128 0.119296 0.0
-0.035708 0.110387 0.0
-0.0353012 0.101551 0.0
-0.0346909 0.0928374 0.0
-0.03388 0.0842954 0.0
-0.0328744 0.0759713 0.0
-0.0316823 0.0679092 0.0
-0.0303136 0.0601504 0.0
-0.0287788 0.0527333 0.0
-0.0270888 0.0456936 0.0
-0.0252544 0.0390644 0.0
-0.0232864 0.0328758 0.0
-0.0211956 0.0271556 0.0
-0.0189936 0.0219288 0.0
-0.0166937 0.0172177 0.0
-0.0143126 0.0130421 0.0
-0.0118735 0.00941843 0.0
-0.00940904 0.00636057 0.0
-0.00696737 0.00388042 0.0
-0.00461851 0.00198287 0.0
-0.00246081 0.000677777 0.0
-0.000634472 8.79721e-05 0.0
0.792726 0.00860053 0.0
0.458239 0.0436562 0.0
0.233245 0.0955035 0.0
0.0944725 0.141306 0.0
0.0141052 0.177712 0.0
-0.0291257 0.204422 0.0
-0.0495894 0.222359 0.0
-0.0572398 0.233662 0.0
-0.0581062 0.24008 0.0
-0.0557356 0.242964 0.0
-0.0521539 0.243308 0.0
-0.0484684 0.241808 0.0
-0.0452386 0.238942 0.0
-0.0427032 0.235026 0.0
-0.0409181 0.230273 0.0
-0.0398391 0.22482 0.0
-0.0393716 0.21876 0.0
-0.0393997 0.212158 0.0
-0.039803 0.205066 0.0
-0.0404659 0.197526 0.0
-0.0412828 0.189583 0.0
-0.0421603 0.181279 0.0
-0.0430183 0.172661 0.0
-0.0437899 0.163781 0.0
-0.0444208 0.15469 0.0
-0.0448688 0.145445 0.0
-0.0451025 0.136103 0.0
-0.0451002 0.12672 0.0
-0.0448489 0.117355 0.0
-0.0443428 0.108063 0.0
-0.0435821 0.0988971 0.0
-0.0425719 0.0899099 0.0
-0.0413207 0.0811493 0.0
-0.0398398 0.0726607 0.0
-0.0381418 0.064486 0.0
-0.0362405 0.056664 0.0
-0.0341494 0.0492304 0.0
-0.0318823 0.0422179 0.0
-0.0294526 0.0356565 0.0
-0.0268737 0.0295737 0.0
-0.0241595 0.0239945 0.0
-0.0213259 0.0189419 0.0
-0.0183921 0.0144369 0.0
-0.0153833 0.0104988 0.0
-0.012334 0.00714588 0.0
-0.00929233 0.00439752 0.0
-0.00632593 0.00226861 0.0
-0.00352576 0.000784117 0.0
-0.00101561 0.000103978 0.0
0.813762 0.0061572 0.0
0.500789 0.0351193 0.0
0.279165 0.08075 0.0
0.134959 0.123606 0.0
0.0463072 0.159778 0.0
-0.00535678 0.188242 0.0
-0.0331776 0.209114 0.0
-0.0465805 0.223621 0.0
-0.0517924 0.233176 0.0
-0.0526623 0.23893 0.0
-0.0514998 0.241781 0.0
-0.049643 0.242398 0.0
-0.0478268 0.241268 0.0
-0.0464169 0.238741 0.0
-0.0455578 0.235066 0.0
-0.0452653 0.230423 0.0
-0.0454832 0.224944 0.0
-0.0461194 0.218731 0.0
-0.0470666 0.211868 0.0
-0.048216 0.204427 0.0
-0.0494639 0.196475 0.0
-0.0507167 0.188078 0.0
-0.0518929 0.179301 0.0
-0.0529236 0.17021 0.0
-0.0537533 0.16087 0.0
-0.0543388 0.151349 0.0
-0.0546485 0.141712 0.0
-0.0546616 0.132024 0.0
-0.0543666 0.122347 0.0
-0.0537599 0.112744 0.0
-0.0528445 0.10327 0.0
-0.0516286 0.0939785 0.0
-0.0501243 0.0849204 0.0
-0.0483463 0.0761412 0.0
-0.0463108 0.0676828 0.0
-0.0440348 0.0595836 0.0
-0.0415353 0.0518784 0.0
-0.0388286 0.044599 0.0
-0.0359309 0.0377745 0.0
-0.0328579 0.0314316 0.0
-0.0296255 0.0255949 0.0
-0.0262512 0.0202879 0.0
-0.0227555 0.0155327 0.0
-0.0191642 0.0113514 0.0
-0.0155109 0.00776703 0.0
-0.0118414 0.0048062 0.0
-0.00821683 0.0024933 0.0
-0.00471708 0.000866641 0.0
-0.00144597 0.000115933 0.0
0.830658 0.00461664 0.0
0.537312 0.0289387 0.0
0.320752 0.0692357 0.0
0.173559 0.109008 0.0
0.0787061 0.14418 0.0
0.020203 0.173191 0.0
-0.0142728 0.195903 0.0
-0.0332012 0.212707 0.0
-0.0428181 0.224658 0.0
-0.0471458 0.232718 0.0
-0.0486965 0.237671 0.0
-0.048988 0.240132 0.0
-0.0489 0.240574 0.0
-0.0489086 0.23935 0.0
-0.0492388 0.236729 0.0
-0.0499633 0.232915 0.0
-0.051065 0.228068 0.0
-0.052477 0.222317 0.0
-0.0541084 0.215771 0.0
-0.0558595 0.208526 0.0
-0.0576321 0.200672 0.0
-0.0593349 0.192292 0.0
-0.0608875 0.183468 0.0
-0.0622219 0.174281 0.0
-0.0632829 0.164808 0.0
-0.0640285 0.155128 0.0
-0.0644288 0.145315 0.0
-0.0644654 0.13544 0.0
-0.0641297 0.125573 0.0
-0.0634217 0.115778 0.0
-0.0623482 0.106115 0.0
-0.0609218 0.0966391 0.0
-0.0591588 0.0874017 0.0
-0.0570781 0.0784485 0.0
-0.0547 0.0698208 0.0
-0.0520453 0.0615559 0.0
-0.0491343 0.0536872 0.0
-0.0459865 0.0462449 0.0
-0.0426203 0.0392566 0.0
-0.0390534 0.0327477 0.0
-0.0353033 0.0267421 0.0
-0.0313882 0.0212632 0.0
-0.0273284 0.0163342 0.0
-0.0231486 0.0119797 0.0
-0.0188799 0.00822713 0.0
-0.0145626 0.00510952 0.0
-0.010249 0.00265975 0.0
-0.00600511 0.00092722 0.0
-0.00191331 0.000124447 0.0
0.844606 0.00361212 0.0
0.569 0.0243572 0.0
0.358425 0.0601402 0.0
0.209983 0.0969305 0.0
0.110532 0.130709 0.0
0.0463698 0.159607 0.0
0.00630925 0.183152 0.0
-0.0178409 0.201551 0.0
-0.0317931 0.215283 0.0
-0.0396606 0.225141 0.0
-0.0440935 0.231802 0.0
-0.0467459 0.235816 0.0
-0.0486136 0.237623 0.0
-0.050265 0.237569 0.0
-0.0519952 0.235926 0.0
-0.0539281 0.232909 0.0
-0.0560828 0.228695 0.0
-0.0584177 0.223431 0.0
-0.0608584 0.217247 0.0
-0.0633161 0.210257 0.0
-0.0656993 0.202568 0.0
-0.0679215 0.19428 0.0
-0.069905 0.185491 0.0
-0.0715843 0.176293 0.0
-0.0729069 0.166777 0.0
-0.0738334 0.15703 0.0
-0.0743374 0.147135 0.0
-0.0744043 0.13717 0.0
-0.0740299 0.12721 0.0
-0.0732191 0.117323 0.0
-0.0719841 0.107572 0.0
-0.0703424 0.0980127 0.0
-0.0683157 0.0886974 0.0
-0.0659279 0.0796711 0.0
-0.063204 0.0709741 0.0
-0.0601689 0.0626421 0.0
-0.0568466 0.0547064 0.0
-0.0532595 0.0471952 0.0
-0.0494283 0.0401339 0.0
-0.0453725 0.0335462 0.0
-0.0411101 0.0274547 0.0
-0.0366591 0.0218823 0.0
-0.0320388 0.0168529 0.0
-0.027271 0.0123931 0.0
-0.0223821 0.0085337 0.0
-0.0174051 0.00531346 0.0
-0.0123816 0.00277216 0.0
-0.00736197 0.000968037 0.0
-0.00240662 0.000130074 0.0
0.856387 0.00293058 0.0
0.596786 0.0208752 0.0
0.392639 0.0528479 0.0
0.244191 0.0868553 0.0
0.141413 0.119054 0.0
0.0726137 0.147421 0.0
0.0276911 0.171232 0.0
-0.00110417 0.190523 0.0
-0.0192351 0.205535 0.0
-0.0306335 0.216753 0.0
-0.0380279 0.22476 0.0
-0.0431711 0.230042 0.0
-0.0471503 0.232999 0.0
-0.0506092 0.233958 0.0
-0.0539019 0.233184 0.0
-0.0571962 0.230897 0.0
-0.0605437 0.227282 0.0
-0.0639257 0.222497 0.0
-0.0672837 0.216686 0.0
-0.0705397 0.209976 0.0
-0.0736099 0.20249 0.0
-0.076413 0.194342 0.0
-0.0788759 0.185642 0.0
-0.0809367 0.176495 0.0
-0.0825471 0.167001 0.0
-0.0836719 0.157258 0.0
-0.0842896 0.147355 0.0
-0.0843909 0.137379 0.0
-0.0839777 0.127407 0.0
-0.0830611 0.117511 0.0
-0.0816594 0.107756 0.0
-0.0797968 0.0982011 0.0
-0.0775011 0.0888959 0.0
-0.0748019 0.0798854 0.0
-0.0717295 0.0712082 0.0
-0.0683134 0.0628975 0.0
-0.0645815 0.0549825 0.0
-0.0605593 0.0474883 0.0
-0.0562696 0.040438 0.0
-0.0517328 0.0338528 0.0
-0.0469673 0.0277536 0.0
-0.0419899 0.0221623 0.0
-0.0368175 0.0171028 0.0
-0.0314676 0.0126028 0.0
-0.0259606 0.0086959 0.0
-0.0203204 0.00542489 0.0
-0.0145762 0.00283503 0.0
-0.00876196 0.000991172 0.0
-0.00291621 0.000133271 0.0
0.866526 0.00244777 0.0
0.621385 0.0181615 0.0
0.423817 0.0469065 0.0
0.276242 0.0783607 0.0
0.171129 0.108914 0.0
0.0985389 0.136487 0.0
0.0493931 0.160189 0.0
0.0164706 0.179867 0.0
-0.00558434 0.195703 0.0
-0.0204396 0.207917 0.0
-0.0308096 0.216951 0.0
-0.0385109 0.223235 0.0
-0.0447004 0.22713 0.0
-0.050082 0.228937 0.0
-0.0550576 0.228911 0.0
-0.0598321 0.227266 0.0
-0.0644843 0.22419 0.0
-0.0690152 0.21985 0.0
-0.0733805 0.214396 0.0
-0.0775124 0.207968 0.0
-0.0813343 0.200699 0.0
-0.0847707 0.192716 0.0
-0.0877536 0.184138 0.0
-0.0902261 0.175083 0.0
-0.0921448 0.16566 0.0
-0.0934805 0.155974 0.0
-0.0942177 0.146122 0.0
-0.0943541 0.136197 0.0
-0.0938987 0.12628 0.0
-0.0928701 0.116446 0.0
-0.0912946 0.106762 0.0
-0.0892036 0.097287 0.0
-0.086632 0.0880702 0.0
-0.0836162 0.0791551 0.0
-0.0801923 0.070578 0.0
-0.076395 0.0623696 0.0
-0.0722561 0.0545558 0.0
-0.0678042 0.0471587 0.0
-0.063064 0.0401979 0.0
-0.0580569 0.033692 0.0
-0.0528005 0.0276595 0.0
-0.0473099 0.0221205 0.0
-0.0415981 0.0170982 0.0
-0.0356777 0.0126206 0.0
-0.0295611 0.00872277 0.0
-0.0232623 0.00545037 0.0
-0.0167967 0.00285241 0.0
-0.0101815 0.000998392 0.0
-0.00343343 0.00013439 0.0
0.875382 0.00209048 0.0
0.64335 0.0159941 0.0
0.452328 0.0419847 0.0
0.306242 0.0711128 0.0
0.199567 0.100024 0.0
0.123887 0.126646 0.0
0.0710672 0.149979 0.0
0.0344086 0.169728 0.0
0.00881827 0.185949 0.0
-0.00939207 0.198853 0.0
-0.022712 0.208641 0.0
-0.0329944 0.215689 0.0
-0.0414501 0.220321 0.0
-0.0488301 0.222814 0.0
-0.0555745 0.223405 0.0
-0.0619179 0.222303 0.0
-0.0679612 0.219693 0.0
-0.0737217 0.215744 0.0
-0.0791668 0.210613 0.0
-0.0842373 0.204449 0.0
-0.0888633 0.197393 0.0
-0.0929751 0.189581 0.0
-0.0965098 0.181144 0.0
-0.0994163 0.172206 0.0
-0.101657 0.162887 0.0
-0.10321 0.153299 0.0
-0.104067 0.143546 0.0
-0.104234 0.133724 0.0
-0.103729 0.12392 0.0
-0.102579 0.11421 0.0
-0.100819 0.104662 0.0
-0.0984897 0.0953353 0.0
-0.0956336 0.0862779 0.0
-0.0922945 0.0775312 0.0
-0.0885153 0.0691288 0.0
-0.084336 0.0610979 0.0
-0.0797928 0.0534609 0.0
-0.0749173 0.046236 0.0
-0.0697363 0.0394393 0.0
-0.0642712 0.0330858 0.0
-0.0585388 0.0271909 0.0
-0.0525512 0.0217724 0.0
-0.0463172 0.0168519 0.0
-0.0398428 0.0124567 0.0
-0.0331319 0.00862226 0.0
-0.026187 0.00539547 0.0
-0.0190095 0.00282765 0.0
-0.0115987 0.000991061 0.0
-0.00395051 0.000133673 0.0
0.883209 0.00181472 0.0
0.663104 0.0142215 0.0
0.478487 0.0378373 0.0
0.334317 0.0648472 0.0
0.226684 0.0921551 0.0
0.148492 0.117731 0.0
0.0924747 0.140513 0.0
0.052437 0.160102 0.0
0.0235488 0.176449 0.0
0.00224281 0.189691 0.0
-0.0139721 0.200002 0.0
-0.0268298 0.207599 0.0
-0.0375761 0.212783 0.0
-0.0469995 0.215803 0.0
-0.0555703 0.216881 0.0
-0.0635458 0.216214 0.0
-0.0710444 0.213985 0.0
-0.0780957 0.210364 0.0
-0.0846762 0.20551 0.0
-0.0907335 0.199578 0.0
-0.0962034 0.192717 0.0
-0.101021 0.185071 0.0
-0.10513 0.176778 0.0
-0.108484 0.167973 0.0
-0.111053 0.158782 0.0
-0.112823 0.149324 0.0
-0.113794 0.139708 0.0
-0.113982 0.130034 0.0
-0.113414 0.120393 0.0
-0.112128 0.110862 0.0
-0.11017 0.101511 0.0
-0.107589 0.0923956 0.0
-0.104437 0.0835639 0.0
-0.100766 0.0750541 0.0
-0.096626 0.0668965 0.0
-0.0920632 0.0591145 0.0
-0.0871182 0.0517261 0.0
-0.0818259 0.0447453 0.0
-0.0762144 0.0381839 0.0
-0.0703053 0.0320527 0.0
-0.0641138 0.0263637 0.0
-0.0576488 0.0211314 0.0
-0.0509136 0.0163749 0.0
-0.0439071 0.0121198 0.0
-0.0366235 0.00840081 0.0
-0.0290532 0.00526459 0.0
-0.0211826 0.00276323 0.0
-0.0129934 0.00097014 0.0
-0.0044603 0.000131272 0.0
0.890187 0.00159336 0.0
0.680973 0.0127379 0.0
0.502556 0.034281 0.0
0.360589 0.0593542 0.0
0.252469 0.0851095 0.0
0.172243 0.109583 0.0
0.113438 0.131681 0.0
0.0703439 0.150929 0.0
0.0383984 0.167196 0.0
0.0141693 0.180545 0.0
-0.00481856 0.191138 0.0
-0.0202132 0.199089 0.0
-0.033247 0.204649 0.0
-0.0447335 0.208045 0.0
-0.0551646 0.209479 0.0
-0.0648142 0.209139 0.0
-0.0738125 0.207202 0.0
-0.0821981 0.203835 0.0
-0.0899535 0.199202 0.0
-0.0970314 0.193461 0.0
-0.103372 0.186767 0.0
-0.108915 0.179272 0.0
-0.113608 0.171122 0.0
-0.117414 0.162456 0.0
-0.120308 0.15341 0.0
-0.122286 0.144107 0.0
-0.123358 0.134661 0.0
-0.12355 0.125177 0.0
-0.122902 0.115746 0.0
-0.121462 0.106447 0.0
-0.119287 0.097348 0.0
-0.116437 0.0885048 0.0
-0.112976 0.0799623 0.0
-0.108962 0.0717553 0.0
-0.104455 0.06391 0.0
-0.0995066 0.0564455 0.0
-0.0941621 0.0493749 0.0
-0.0884596 0.0427075 0.0
-0.0824289 0.0364501 0.0
-0.0760914 0.0306089 0.0
-0.06946 0.0251915 0.0
-0.0625399 0.0202087 0.0
-0.0553286 0.0156762 0.0
-0.0478167 0.0116169 0.0
-0.0399883 0.00806341 0.0
-0.031821 0.00506093 0.0
-0.0232857 0.00266089 0.0
-0.0143462 0.000936226 0.0
-0.00495603 0.000127259 0.0
0.896449 0.00140909 0.0
0.69721 0.0114678 0.0
0.524749 0.0311767 0.0
0.38517 0.054466 0.0
0.276929 0.0787213 0.0
0.195062 0.102059 0.0
0.133821 0.123373 0.0
0.0879534 0.142135 0.0
0.0531674 0.158153 0.0
0.0261756 0.17143 0.0
0.00457505 0.182068 0.0
-0.013314 0.190214 0.0
-0.028618 0.195989 0.0
-0.0421695 0.199618 0.0
-0.0544764 0.201282 0.0
-0.0658237 0.20116 0.0
-0.0763492 0.199421 0.0
-0.0860962 0.196232 0.0
-0.0950511 0.191758 0.0
-0.103169 0.186161 0.0
-0.110394 0.179602 0.0
-0.116668 0.172237 0.0
-0.121947 0.16422 0.0
-0.126197 0.155698 0.0
-0.129404 0.14681 0.0
-0.131572 0.137685 0.0
-0.132724 0.128442 0.0
-0.132898 0.119186 0.0
-0.132145 0.11001 0.0