# vtk DataFile Version 3.0
Malha 2D com triângulos e temperatura
ASCII
DATASET UNSTRUCTURED_GRID

POINTS 2500 double
0 0 0
1 0 0
1 1 0
0 1 0
0.0204082 0 0
0.0408163 0 0
0.0612245 0 0
0.0816327 0 0
0.102041 0 0
0.122449 0 0
0.142857 0 0
0.163265 0 0
0.183673 0 0
0.204082 0 0
0.22449 0 0
0.244898 0 0
0.265306 0 0
0.285714 0 0
0.306122 0 0
0.326531 0 0
0.346939 0 0
0.367347 0 0
0.387755 0 0
0.408163 0 0
0.428571 0 0
0.44898 0 0
0.469388 0 0
0.489796 0 0
0.510204 0 0
0.530612 0 0
0.55102 0 0
0.571429 0 0
0.591837 0 0
0.612245 0 0
0.632653 0 0
0.653061 0 0
0.673469 0 0
0.693878 0 0
0.714286 0 0
0.734694 0 0
0.755102 0 0
0.77551 0 0
0.795918 0 0
0.816327 0 0
0.836735 0 0
0.857143 0 0
0.877551 0 0
0.897959 0 0
0.918367 0 0
0.938776 0 0
0.959184 0 0
0.979592 0 0
1 0.0204082 0
1 0.0408163 0
1 0.0612245 0
1 0.0816327 0
1 0.102041 0
1 0.122449 0
1 0.142857 0
1 0.163265 0
1 0.183673 0
1 0.204082 0
1 0.22449 0
1 0.244898 0
1 0.265306 0
1 0.285714 0
1 0.306122 0
1 0.326531 0
1 0.346939 0
1 0.367347 0
1 0.387755 0
1 0.408163 0
1 0.428571 0
1 0.44898 0
1 0.469388 0
1 0.489796 0
1 0.510204 0
1 0.530612 0
1 0.55102 0
1 0.571429 0
1 0.591837 0
1 0.612245 0
1 0.632653 0
1 0.653061 0
1 0.673469 0
1 0.693878 0
1 0.714286 0
1 0.734694 0
1 0.755102 0
1 0.77551 0
1 0.795918 0
1 0.816327 0
1 0.836735 0
1 0.857143 0
1 0.877551 0
1 0.897959 0
1 0.918367 0
1 0.938776 0
1 0.959184 0
1 0.979592 0
0.979592 1 0
0.959184 1 0
0.938776 1 0
0.918367 1 0
0.897959 1 0
0.877551 1 0
0.857143 1 0
0.836735 1 0
0.816327 1 0
0.795918 1 0
0.77551 1 0
0.755102 1 0
0.734694 1 0
0.714286 1 0
0.693878 1 0
0.673469 1 0
0.653061 1 0
0.632653 1 0
0.612245 1 0
0.591837 1 0
0.571429 1 0
0.55102 1 0
0.530612 1 0
0.510204 1 0
0.489796 1 0
0.469388 1 0
0.44898 1 0
0.428571 1 0
0.408163 1 0
0.387755 1 0
0.367347 1 0
0.346939 1 0
0.326531 1 0
0.306122 1 0
0.285714 1 0
0.265306 1 0
0.244898 1 0
0.22449 1 0
0.204082 1 0
0.183673 1 0
0.163265 1 0
0.142857 1 0
0.122449 1 0
0.102041 1 0
0.0816327 1 0
0.0612245 1 0
0.0408163 1 0
0.0204082 1 0
0 0.979592 0
0 0.959184 0
0 0.938776 0
0 0.918367 0
0 0.897959 0
0 0.877551 0
0 0.857143 0
0 0.836735 0
0 0.816327 0
0 0.795918 0
0 0.77551 0
0 0.755102 0
0 0.734694 0
0 0.714286 0
0 0.693878 0
0 0.673469 0
0 0.653061 0
0 0.632653 0
0 0.612245 0
0 0.591837 0
0 0.571429 0
0 0.55102 0
0 0.530612 0
0 0.510204 0
0 0.489796 0
0 0.469388 0
0 0.44898 0
0 0.428571 0
0 0.408163 0
0 0.387755 0
0 0.367347 0
0 0.346939 0
0 0.326531 0
0 0.306122 0
0 0.285714 0
0 0.265306 0
0 0.244898 0
0 0.22449 0
0 0.204082 0
0 0.183673 0
0 0.163265 0
0 0.142857 0
0 0.122449 0
0 0.102041 0
0 0.0816327 0
0 0.0612245 0
0 0.0408163 0
0 0.0204082 0
0.0204082 0.979592 0
0.0204082 0.959184 0
0.0204082 0.938776 0
0.0204082 0.918367 0
0.0204082 0.897959 0
0.0204082 0.877551 0
0.0204082 0.857143 0
0.0204082 0.836735 0
0.0204082 0.816327 0
0.0204082 0.795918 0
0.0204082 0.77551 0
0.0204082 0.755102 0
0.0204082 0.734694 0
0.0204082 0.714286 0
0.0204082 0.693878 0
0.0204082 0.673469 0
0.0204082 0.653061 0
0.0204082 0.632653 0
0.0204082 0.612245 0
0.0204082 0.591837 0
0.0204082 0.571429 0
0.0204082 0.55102 0
0.0204082 0.530612 0
0.0204082 0.510204 0
0.0204082 0.489796 0
0.0204082 0.469388 0
0.0204082 0.44898 0
0.0204082 0.428571 0
0.0204082 0.408163 0
0.0204082 0.387755 0
0.0204082 0.367347 0
0.0204082 0.346939 0
0.0204082 0.326531 0
0.0204082 0.306122 0
0.0204082 0.285714 0
0.0204082 0.265306 0
0.0204082 0.244898 0
0.0204082 0.22449 0
0.0204082 0.204082 0
0.0204082 0.183673 0
0.0204082 0.163265 0
0.0204082 0.142857 0
0.0204082 0.122449 0
0.0204082 0.102041 0
0.0204082 0.0816327 0
0.0204082 0.0612245 0
0.0204082 0.0408163 0
0.0204082 0.0204082 0
0.0408163 0.979592 0
0.0408163 0.959184 0
0.0408163 0.938776 0
0.0408163 0.918367 0
0.0408163 0.897959 0
0.0408163 0.877551 0
0.0408163 0.857143 0
0.0408163 0.836735 0
0.0408163 0.816327 0
0.0408163 0.795918 0
0.0408163 0.77551 0
0.0408163 0.755102 0
0.0408163 0.734694 0
0.0408163 0.714286 0
0.0408163 0.693878 0
0.0408163 0.673469 0
0.0408163 0.653061 0
0.0408163 0.632653 0
0.0408163 0.612245 0
0.0408163 0.591837 0
0.0408163 0.571429 0
0.0408163 0.55102 0
0.0408163 0.530612 0
0.0408163 0.510204 0
0.0408163 0.489796 0
0.0408163 0.469388 0
0.0408163 0.44898 0
0.0408163 0.428571 0
0.0408163 0.408163 0
0.0408163 0.387755 0
0.0408163 0.367347 0
0.0408163 0.346939 0
0.0408163 0.326531 0
0.0408163 0.306122 0
0.0408163 0.285714 0
0.0408163 0.265306 0
0.0408163 0.244898 0
0.0408163 0.22449 0
0.0408163 0.204082 0
0.0408163 0.183673 0
0.0408163 0.163265 0
0.0408163 0.142857 0
0.0408163 0.122449 0
0.0408163 0.102041 0
0.0408163 0.0816327 0
0.0408163 0.0612245 0
0.0408163 0.0408163 0
0.0408163 0.0204082 0
0.0612245 0.979592 0
0.0612245 0.959184 0
0.0612245 0.938776 0
0.0612245 0.918367 0
0.0612245 0.897959 0
0.0612245 0.877551 0
0.0612245 0.857143 0
0.0612245 0.836735 0
0.0612245 0.816327 0
0.0612245 0.795918 0
0.0612245 0.77551 0
0.0612245 0.755102 0
0.0612245 0.734694 0
0.0612245 0.714286 0
0.0612245 0.693878 0
0.0612245 0.673469 0
0.0612245 0.653061 0
0.0612245 0.632653 0
0.0612245 0.612245 0
0.0612245 0.591837 0
0.0612245 0.571429 0
0.0612245 0.55102 0
0.0612245 0.530612 0
0.0612245 0.510204 0
0.0612245 0.489796 0
0.0612245 0.469388 0
0.0612245 0.44898 0
0.0612245 0.428571 0
0.0612245 0.408163 0
0.0612245 0.387755 0
0.0612245 0.367347 0
0.0612245 0.346939 0
0.0612245 0.326531 0
0.0612245 0.306122 0
0.0612245 0.285714 0
0.0612245 0.265306 0
0.0612245 0.244898 0
0.0612245 0.22449 0
0.0612245 0.204082 0
0.0612245 0.183673 0
0.0612245 0.163265 0
0.0612245 0.142857 0
0.0612245 0.122449 0
0.0612245 0.102041 0
0.0612245 0.0816327 0
0.0612245 0.0612245 0
0.0612245 0.0408163 0
0.0612245 0.0204082 0
0.0816327 0.979592 0
0.0816327 0.959184 0
0.0816327 0.938776 0
0.0816327 0.918367 0
0.0816327 0.897959 0
0.0816327 0.877551 0
0.0816327 0.857143 0
0.0816327 0.836735 0
0.0816327 0.816327 0
0.0816327 0.795918 0
0.0816327 0.77551 0
0.0816327 0.755102 0
0.0816327 0.734694 0
0.0816327 0.714286 0
0.0816327 0.693878 0
0.0816327 0.673469 0
0.0816327 0.653061 0
0.0816327 0.632653 0
0.0816327 0.612245 0
0.0816327 0.591837 0
0.0816327 0.571429 0
0.0816327 0.55102 0
0.0816327 0.530612 0
0.0816327 0.510204 0
0.0816327 0.489796 0
0.0816327 0.469388 0
0.0816327 0.44898 0
0.0816327 0.428571 0
0.0816327 0.408163 0
0.0816327 0.387755 0
0.0816327 0.367347 0
0.0816327 0.346939 0
0.0816327 0.326531 0
0.0816327 0.306122 0
0.0816327 0.285714 0
0.0816327 0.265306 0
0.0816327 0.244898 0
0.0816327 0.22449 0
0.0816327 0.204082 0
0.0816327 0.183673 0
0.0816327 0.163265 0
0.0816327 0.142857 0
0.0816327 0.122449 0
0.0816327 0.102041 0
0.0816327 0.0816327 0
0.0816327 0.0612245 0
0.0816327 0.0408163 0
0.0816327 0.0204082 0
0.102041 0.979592 0
0.102041 0.959184 0
0.102041 0.938776 0
0.102041 0.918367 0
0.102041 0.897959 0
0.102041 0.877551 0
0.102041 0.857143 0
0.102041 0.836735 0
0.102041 0.816327 0
0.102041 0.795918 0
0.102041 0.77551 0
0.102041 0.755102 0
0.102041 0.734694 0
0.102041 0.714286 0
0.102041 0.693878 0
0.102041 0.673469 0
0.102041 0.653061 0
0.102041 0.632653 0
0.102041 0.612245 0
0.102041 0.591837 0
0.102041 0.571429 0
0.102041 0.55102 0
0.102041 0.530612 0
0.102041 0.510204 0
0.102041 0.489796 0
0.102041 0.469388 0
0.102041 0.44898 0
0.102041 0.428571 0
0.102041 0.408163 0
0.102041 0.387755 0
0.102041 0.367347 0
0.102041 0.346939 0
0.102041 0.326531 0
0.102041 0.306122 0
0.102041 0.285714 0
0.102041 0.265306 0
0.102041 0.244898 0
0.102041 0.22449 0
0.102041 0.204082 0
0.102041 0.183673 0
0.102041 0.163265 0
0.102041 0.142857 0
0.102041 0.122449 0
0.102041 0.102041 0
0.102041 0.0816327 0
0.102041 0.0612245 0
0.102041 0.0408163 0
0.102041 0.0204082 0
0.122449 0.979592 0
0.122449 0.959184 0
0.122449 0.938776 0
0.122449 0.918367 0
0.122449 0.897959 0
0.122449 0.877551 0
0.122449 0.857143 0
0.122449 0.836735 0
0.122449 0.816327 0
0.122449 0.795918 0
0.122449 0.77551 0
0.122449 0.755102 0
0.122449 0.734694 0
0.122449 0.714286 0
0.122449 0.693878 0
0.122449 0.673469 0
0.122449 0.653061 0
0.122449 0.632653 0
0.122449 0.612245 0
0.122449 0.591837 0
0.122449 0.571429 0
0.122449 0.55102 0
0.122449 0.530612 0
0.122449 0.510204 0
0.122449 0.489796 0
0.122449 0.469388 0
0.122449 0.44898 0
0.122449 0.428571 0
0.122449 0.408163 0
0.122449 0.387755 0
0.122449 0.367347 0
0.122449 0.346939 0
0.122449 0.326531 0
0.122449 0.306122 0
0.122449 0.285714 0
0.122449 0.265306 0
0.122449 0.244898 0
0.122449 0.22449 0
0.122449 0.204082 0
0.122449 0.183673 0
0.122449 0.163265 0
0.122449 0.142857 0
0.122449 0.122449 0
0.122449 0.102041 0
0.122449 0.0816327 0
0.122449 0.0612245 0
0.122449 0.0408163 0
0.122449 0.0204082 0
0.142857 0.979592 0
0.142857 0.959184 0
0.142857 0.938776 0
0.142857 0.918367 0
0.142857 0.897959 0
0.142857 0.877551 0
0.142857 0.857143 0
0.142857 0.836735 0
0.142857 0.816327 0
0.142857 0.795918 0
0.142857 0.77551 0
0.142857 0.755102 0
0.142857 0.734694 0
0.142857 0.714286 0
0.142857 0.693878 0
0.142857 0.673469 0
0.142857 0.653061 0
0.142857 0.632653 0
0.142857 0.612245 0
0.142857 0.591837 0
0.142857 0.571429 0
0.142857 0.55102 0
0.142857 0.530612 0
0.142857 0.510204 0
0.142857 0.489796 0
0.142857 0.469388 0
0.142857 0.44898 0
0.142857 0.428571 0
0.142857 0.408163 0
0.142857 0.387755 0
0.142857 0.367347 0
0.142857 0.346939 0
0.142857 0.326531 0
0.142857 0.306122 0
0.142857 0.285714 0
0.142857 0.265306 0
0.142857 0.244898 0
0.142857 0.22449 0
0.142857 0.204082 0
0.142857 0.183673 0
0.142857 0.163265 0
0.142857 0.142857 0
0.142857 0.122449 0
0.142857 0.102041 0
0.142857 0.0816327 0
0.142857 0.0612245 0
0.142857 0.0408163 0
0.142857 0.0204082 0
0.163265 0.979592 0
0.163265 0.959184 0
0.163265 0.938776 0
0.163265 0.918367 0
0.163265 0.897959 0
0.163265 0.877551 0
0.163265 0.857143 0
0.163265 0.836735 0
0.163265 0.816327 0
0.163265 0.795918 0
0.163265 0.77551 0
0.163265 0.755102 0
0.163265 0.734694 0
0.163265 0.714286 0
0.163265 0.693878 0
0.163265 0.673469 0
0.163265 0.653061 0
0.163265 0.632653 0
0.163265 0.612245 0
0.163265 0.591837 0
0.163265 0.571429 0
0.163265 0.55102 0
[...]
CELL_DATA 2401
VECTORS velocity double
0.257357 0.157466 0.0
-0.00267664 0.264636 0.0
-0.032263 0.205618 0.0
-0.025338 0.150853 0.0
-0.01603 0.113399 0.0
-0.00969383 0.0880672 0.0
-0.00594111 0.0709548 0.0
-0.00377553 0.0591611 0.0
-0.00250688 0.0507888 0.0
-0.00173918 0.044665 0.0
-0.00125712 0.040055 0.0
-0.000944149 0.0364857 0.0
-0.000735683 0.0336428 0.0
-0.000594494 0.0313116 0.0
-0.000498107 0.0293422 0.0
-0.000432319 0.027628 0.0
-0.000387772 0.0260925 0.0
-0.000358073 0.0246806 0.0
-0.000338722 0.0233528 0.0
-0.000326478 0.0220812 0.0
-0.000318962 0.0208466 0.0
-0.000314406 0.019636 0.0
-0.000311492 0.018442 0.0
-0.000309242 0.0172603 0.0
-0.000306934 0.01609 0.0
-0.000304059 0.0149319 0.0
-0.000300264 0.0137886 0.0
-0.000295333 0.0126633 0.0
-0.000289147 0.0115601 0.0
-0.000281669 0.0104835 0.0
-0.000272919 0.00943762 0.0
-0.000262956 0.00842697 0.0
-0.000251862 0.00745559 0.0
-0.00023973 0.00652736 0.0
-0.000226647 0.00564584 0.0
-0.000212688 0.00481434 0.0
-0.0001979 0.00403599 0.0
-0.000182299 0.00331379 0.0
-0.000165858 0.00265069 0.0
-0.000148494 0.00204975 0.0
-0.000130067 0.00151426 0.0
-0.000110364 0.00104781 0.0
-8.9104e-05 0.000654416 0.0
-6.59758e-05 0.000338507 0.0
-4.07715e-05 0.000104611 0.0
-1.38121e-05 -4.34765e-05 0.0
1.29382e-05 -0.000104741 0.0
3.35495e-05 -8.84346e-05 0.0
3.16759e-05 -3.15311e-05 0.0
0.340654 0.122987 0.0
-0.000502956 0.249568 0.0
-0.0650619 0.271963 0.0
-0.063112 0.252671 0.0
-0.0484532 0.222257 0.0
-0.0349992 0.19238 0.0
-0.025054 0.166828 0.0
-0.0181213 0.146106 0.0
-0.0133492 0.129616 0.0
-0.0100491 0.116526 0.0
-0.0077437 0.106061 0.0
-0.00611742 0.0975814 0.0
-0.00496229 0.0905853 0.0
-0.00413937 0.0846881 0.0
-0.00355384 0.0795977 0.0
-0.00313952 0.0750938 0.0
-0.00284918 0.0710111 0.0
-0.0026485 0.0672268 0.0
-0.00251204 0.0636503 0.0
-0.00242079 0.0602164 0.0
-0.0023603 0.0568793 0.0
-0.00231961 0.0536083 0.0
-0.00229037 0.0503845 0.0
-0.00226625 0.047198 0.0
-0.00224255 0.044046 0.0
-0.00221585 0.0409304 0.0
-0.00218376 0.0378571 0.0
-0.00214471 0.0348346 0.0
-0.00209781 0.0318725 0.0
-0.00204266 0.0289819 0.0
-0.00197925 0.0261736 0.0
-0.00190782 0.0234587 0.0
-0.00182879 0.0208476 0.0
-0.00174265 0.0183504 0.0
-0.00164988 0.0159764 0.0
-0.00155091 0.0137344 0.0
-0.00144605 0.0116326 0.0
-0.00133544 0.00967902 0.0
-0.00121905 0.00788147 0.0
-0.00109661 0.00624777 0.0
-0.000967709 0.00478595 0.0
-0.000831759 0.00350434 0.0
-0.000688217 0.00241142 0.0
-0.000536928 0.00151536 0.0
-0.000378938 0.000822896 0.0
-0.000218309 0.00033705 0.0
-6.5898e-05 5.26802e-05 0.0
5.42362e-05 -5.29023e-05 0.0
8.80179e-05 -3.26629e-05 0.0
0.501015 0.0768379 0.0
0.0994027 0.183411 0.0
-0.039007 0.249613 0.0
-0.0731678 0.266236 0.0
-0.0718171 0.257964 0.0
-0.0607496 0.240075 0.0
-0.0487405 0.21982 0.0
-0.0383926 0.20049 0.0
-0.0301746 0.183312 0.0
-0.0238764 0.168523 0.0
-0.0191325 0.155935 0.0
-0.0155938 0.145213 0.0
-0.0129728 0.136001 0.0
-0.011045 0.127973 0.0
-0.00963872 0.12085 0.0
-0.00862347 0.114407 0.0
-0.00789986 0.108462 0.0
-0.00739187 0.102878 0.0
-0.00704105 0.0975473 0.0
-0.00680219 0.0923928 0.0
-0.00664025 0.0873593 0.0
-0.00652806 0.08241 0.0
-0.00644462 0.0775227 0.0
-0.00637389 0.0726866 0.0
-0.00630378 0.0678998 0.0
-0.00622542 0.0631671 0.0
-0.00613259 0.058498 0.0
-0.00602116 0.0539053 0.0
-0.0058887 0.0494039 0.0
-0.00573411 0.04501 0.0
-0.00555724 0.0407399 0.0
-0.00535866 0.0366098 0.0
-0.00513937 0.0326352 0.0
-0.00490059 0.028831 0.0
-0.00464355 0.025211 0.0
-0.00436935 0.0217883 0.0
-0.00407882 0.0185752 0.0
-0.00377247 0.0155835 0.0
-0.00345038 0.0128245 0.0
-0.00311227 0.0103095 0.0
-0.00275758 0.00804959 0.0
-0.00238573 0.00605585 0.0
-0.00199662 0.00433892 0.0
-0.00159165 0.00290818 0.0
-0.00117556 0.00177027 0.0
-0.000759981 0.000926475 0.0
-0.000369765 0.000367514 0.0
-5.18967e-05 6.72414e-05 0.0
0.000102394 -1.13533e-05 0.0
0.610269 0.0480791 0.0
0.196119 0.134137 0.0
0.0118418 0.209747 0.0
-0.0577653 0.246832 0.0
-0.0761023 0.257305 0.0
-0.0741262 0.253652 0.0
-0.0652328 0.243047 0.0
-0.0549917 0.229747 0.0
-0.0455514 0.216027 0.0
-0.0375888 0.202966 0.0
-0.0311729 0.190984 0.0
-0.0261444 0.180157 0.0
-0.0222795 0.170395 0.0
-0.0193561 0.161539 0.0
-0.0171777 0.153418 0.0
-0.0155797 0.145867 0.0
-0.0144268 0.138746 0.0
-0.0136101 0.131938 0.0
-0.013042 0.125352 0.0
-0.0126525 0.118919 0.0
-0.0123861 0.11259 0.0
-0.0121988 0.106335 0.0
-0.012056 0.100135 0.0
-0.011931 0.0939854 0.0
-0.0118035 0.0878875 0.0
-0.0116587 0.0818515 0.0
-0.011486 0.0758918 0.0
-0.0112784 0.0700262 0.0
-0.0110318 0.0642744 0.0
-0.0107444 0.0586572 0.0
-0.010416 0.0531955 0.0
-0.0100477 0.0479099 0.0
-0.00964125 0.0428199 0.0
-0.00919891 0.0379442 0.0
-0.00872288 0.0333 0.0
-0.00821518 0.0289037 0.0
-0.00767743 0.0247705 0.0
-0.0071107 0.0209148 0.0
-0.00651549 0.0173506 0.0
-0.00589177 0.0140911 0.0
-0.00523926 0.0111495 0.0
-0.00455791 0.00853801 0.0
-0.0038488 0.00626831 0.0
-0.00311578 0.00435005 0.0
-0.00236816 0.00278968 0.0
-0.00162545 0.00158833 0.0
-0.000924993 0.000736624 0.0
-0.000331569 0.000213219 0.0
3.99097e-05 1.51636e-05 0.0
0.680742 0.0301821 0.0
0.278997 0.0983042 0.0
0.0701142 0.171176 0.0
-0.0272682 0.217647 0.0
-0.0654829 0.240931 0.0
-0.0754245 0.249083 0.0
-0.0728723 0.248024 0.0
-0.0655264 0.241868 0.0
-0.0570145 0.23321 0.0
-0.0489492 0.223567 0.0
-0.0419568 0.21377 0.0
-0.0361921 0.204226 0.0
-0.0315968 0.195097 0.0
-0.0280271 0.18641 0.0
-0.0253159 0.178124 0.0
-0.0233003 0.170168 0.0
-0.0218344 0.162468 0.0
-0.0207918 0.154953 0.0
-0.0200664 0.147564 0.0
-0.01957 0.140258 0.0
-0.0192306 0.133004 0.0
-0.0189899 0.125784 0.0
-0.0188016 0.118592 0.0
-0.0186292 0.111432 0.0
-0.018445 0.104315 0.0
-0.0182286 0.0972562 0.0
-0.0179654 0.0902777 0.0
-0.017646 0.0834025 0.0
-0.017265 0.0766555 0.0
-0.0168201 0.0700621 0.0
-0.0163114 0.0636473 0.0
-0.0157409 0.0574353 0.0
-0.0151115 0.051449 0.0
-0.0144266 0.04571 0.0
-0.0136898 0.0402382 0.0
-0.0129043 0.0350522 0.0
-0.0120727 0.0301693 0.0
-0.011197 0.0256056 0.0
-0.0102784 0.0213765 0.0
-0.00931728 0.0174965 0.0
-0.00831415 0.0139797 0.0
-0.00726984 0.010839 0.0
-0.006187 0.00808638 0.0
-0.00507211 0.00573193 0.0
-0.00393876 0.00378277 0.0
-0.0028128 0.00224202 0.0
-0.00174022 0.00110394 0.0
-0.000795997 0.000357277 0.0
-0.000104146 4.02613e-05 0.0
0.730186 0.0191936 0.0
0.34957 0.0730866 0.0
0.128388 0.139317 0.0
0.0112937 0.188136 0.0
-0.0448259 0.219191 0.0
-0.067215 0.23585 0.0
-0.0725454 0.242658 0.0
-0.0698438 0.243099 0.0
-0.0638614 0.239653 0.0
-0.0570242 0.233958 0.0
-0.0505047 0.227043 0.0
-0.0448067 0.219524 0.0
-0.0400849 0.211747 0.0
-0.0363196 0.203892 0.0
-0.0334108 0.196039 0.0
-0.031228 0.188213 0.0
-0.0296362 0.180407 0.0
-0.0285088 0.172608 0.0
-0.0277324 0.164799 0.0
-0.0272093 0.156966 0.0
-0.0268569 0.149104 0.0
-0.0266071 0.141216 0.0
-0.0264046 0.133312 0.0
-0.0262056 0.125407 0.0
-0.0259767 0.117524 0.0
-0.025693 0.109687 0.0
-0.0253372 0.101926 0.0
-0.0248981 0.094269 0.0
-0.0243698 0.0867478 0.0
-0.0237502 0.079392 0.0
-0.0230404 0.0722306 0.0
-0.0222436 0.065291 0.0
-0.0213643 0.058599 0.0
-0.0204076 0.0521785 0.0
-0.0193786 0.0460511 0.0
-0.0182822 0.0402371 0.0
-0.0171222 0.034755 0.0
-0.0159018 0.0296217 0.0
-0.014623 0.0248535 0.0
-0.0132872 0.0204653 0.0
-0.0118956 0.0164715 0.0
-0.0104501 0.0128853 0.0
-0.00895483 0.00971924 0.0
-0.00741852 0.00698399 0.0
-0.00585778 0.00468856 0.0
-0.00430235 0.00284 0.0
-0.00280224 0.00143876 0.0
-0.00143516 0.000486273 0.0
-0.000322562 6.1591e-05 0.0
0.766194 0.0125762 0.0
0.408953 0.0556586 0.0
0.183223 0.114372 0.0
0.0525136 0.162199 0.0
-0.018084 0.19695 0.0
-0.0521158 0.219244 0.0
-0.0657401 0.231944 0.0
-0.0685981 0.237829 0.0
-0.066192 0.239053 0.0
-0.0615787 0.237177 0.0
-0.0564013 0.233275 0.0
-0.0514933 0.228058 0.0
-0.0472302 0.221985 0.0
-0.0437347 0.215342 0.0
-0.0409948 0.208303 0.0
-0.0389316 0.200971 0.0
-0.0374382 0.193405 0.0
-0.0364005 0.185644 0.0
-0.0357091 0.177712 0.0
-0.0352646 0.169632 0.0
-0.0349802 0.161425 0.0
-0.0347825 0.153115 0.0
-0.0346112 0.144732 0.0
-0.0344181 0.136305 0.0
-0.034166 0.12787 0.0
-0.0338277 0.119461 0.0
-0.0333844 0.111116 0.0
-0.0328246 0.102871 0.0
-0.0321428 0.0947636 0.0
-0.031338 0.0868274 0.0
-0.0304131 0.0790957 0.0
-0.029373 0.0715989 0.0
-0.0282246 0.064365 0.0
-0.0269751 0.0574198 0.0
-0.0256316 0.0507862 0.0
-0.0242009 0.0444854 0.0
-0.0226884 0.0385363 0.0
-0.0210987 0.0329563 0.0
-0.019435 0.0277616 0.0
-0.0176995 0.0229672 0.0
-0.0158942 0.0185873 0.0
-0.0140221 0.0146355 0.0
-0.0120883 0.0111246 0.0
-0.0101026 0.00806685 0.0
-0.00808309 0.00547386 0.0
-0.00606046 0.0033578 0.0
-0.00408431 0.00172673 0.0
-0.00222881 0.000595177 0.0
-0.000604516 7.87168e-05 0.0
0.793184 0.00857579 0.0
0.458878 0.0435009 0.0
0.233453 0.0950538 0.0
0.0937708 0.140381 0.0
0.0121907 0.176117 0.0
-0.0323139 0.201934 0.0
-0.0540248 0.218815 0.0
-0.0627831 0.228928 0.0
-0.0645447 0.234046 0.0
-0.0628227 0.235553 0.0
-0.0596362 0.234478 0.0
-0.0561034 0.231551 0.0
-0.0528044 0.227282 0.0
-0.0500036 0.222018 0.0
-0.0477836 0.215997 0.0
-0.0461267 0.209382 0.0
-0.0449636 0.202284 0.0
-0.0442024 0.194786 0.0
-0.0437451 0.186952 0.0
-0.0434974 0.178836 0.0
-0.043374 0.170486 0.0
-0.0433006 0.161951 0.0
-0.0432154 0.153276 0.0
-0.0430686 0.144508 0.0
-0.0428219 0.135696 0.0
-0.0424478 0.126885 0.0
-0.0419276 0.118121 0.0
-0.0412512 0.10945 0.0
-0.0404144 0.100913 0.0
-0.0394189 0.092549 0.0
-0.0382697 0.0843957 0.0
-0.0369749 0.076486 0.0
-0.035544 0.0688501 0.0
-0.0339869 0.0615148 0.0
-0.0323135 0.0545041 0.0
-0.0305325 0.0478393 0.0
-0.0286516 0.0415394 0.0
-0.0266768 0.0356216 0.0
-0.0246123 0.0301015 0.0
-0.0224616 0.0249937 0.0
-0.0202273 0.0203124 0.0
-0.0179128 0.0160709 0.0
-0.0155234 0.0122829 0.0
-0.0130691 0.00896216 0.0
-0.0105673 0.00612372 0.0
-0.00804693 0.0037853 0.0
-0.00555331 0.00196281 0.0
-0.00315227 0.000682981 0.0
-0.000938279 9.19177e-05 0.0
0.814104 0.00611458 0.0
0.501155 0.034872 0.0
0.278933 0.0800942 0.0
0.133631 0.122362 0.0
0.0435756 0.157758 0.0
-0.00959678 0.185272 0.0
-0.0387881 0.204983 0.0
-0.0534073 0.218227 0.0
-0.0595954 0.226434 0.0
-0.0611642 0.230784 0.0
-0.0604148 0.232203 0.0
-0.058697 0.231392 0.0
-0.0567682 0.228867 0.0
-0.0550221 0.225004 0.0
-0.0536331 0.220078 0.0
-0.0526465 0.214291 0.0
-0.0520349 0.207793 0.0
-0.0517331 0.200703 0.0
-0.0516599 0.193116 0.0
-0.0517308 0.185115 0.0
-0.0518659 0.176774 0.0
-0.0519938 0.168159 0.0
-0.0520543 0.159338 0.0
-0.0519988 0.150372 0.0
-0.0517904 0.141321 0.0
-0.0514029 0.132244 0.0
-0.0508201 0.123196 0.0
-0.0500342 0.114229 0.0
-0.0490444 0.105392 0.0
-0.0478555 0.0967276 0.0
-0.0464766 0.0882772 0.0
-0.0449191 0.0800766 0.0
-0.0431963 0.0721573 0.0
-0.0413214 0.0645474 0.0
-0.0393074 0.057271 0.0
-0.0371659 0.0503493 0.0
-0.0349064 0.0438009 0.0
-0.0325369 0.0376421 0.0
-0.0300629 0.0318877 0.0
-0.0274886 0.0265518 0.0
-0.0248171 0.0216476 0.0
-0.0220515 0.0171888 0.0
-0.0191968 0.0131895 0.0
-0.0162615 0.00966531 0.0
-0.0132605 0.0066347 0.0
-0.0102185 0.00412085 0.0
-0.00717356 0.00214702 0.0
-0.00417975 0.000750551 0.0
-0.00131251 0.000101688 0.0
0.830837 0.00456051 0.0
0.537314 0.0286165 0.0
0.319974 0.0684085 0.0
0.171503 0.107499 0.0
0.0750705 0.141816 0.0
0.0149034 0.169807 0.0
-0.0211069 0.191331 0.0
-0.0413505 0.206823 0.0
-0.052007 0.217408 0.0
-0.0570685 0.224062 0.0
-0.0590384 0.227595 0.0
-0.0594466 0.228649 0.0
-0.0591968 0.227722 0.0
-0.0587952 0.225192 0.0
-0.0584991 0.221351 0.0
-0.0584136 0.216422 0.0
-0.0585528 0.210584 0.0
-0.0588803 0.203981 0.0
-0.0593337 0.196733 0.0
-0.0598411 0.188946 0.0
-0.0603308 0.180715 0.0
-0.0607371 0.172128 0.0
-0.0610039 0.163267 0.0
-0.0610861 0.154209 0.0
-0.0609501 0.145028 0.0
-0.0605733 0.135793 0.0
-0.0599433 0.126567 0.0
-0.0590566 0.11741 0.0
-0.0579169 0.108378 0.0
-0.056534 0.0995181 0.0
-0.0549213 0.0908745 0.0
-0.0530954 0.0824855 0.0
-0.0510736 0.074384 0.0
-0.0488736 0.0665985 0.0
-0.0465119 0.0591531 0.0
-0.044003 0.0520685 0.0
-0.0413592 0.045362 0.0
-0.0385901 0.0390491 0.0
-0.0357027 0.0331433 0.0
-0.0327018 0.0276574 0.0
-0.0295904 0.022604 0.0
-0.0263709 0.0179964 0.0
-0.0230466 0.0138493 0.0
-0.0196236 0.01018 0.0
-0.0161125 0.00701008 0.0
-0.0125316 0.0043675 0.0
-0.00890939 0.002282 0.0
-0.00528613 0.00079955 0.0
-0.00171683 0.000108543 0.0
0.844588 0.00354712 0.0
0.568565 0.0239798 0.0
0.357018 0.0591832 0.0
0.207124 0.0952241 0.0
0.105931 0.128097 0.0
0.0399475 0.155943 0.0
-0.00183602 0.178325 0.0
-0.0273402 0.195382 0.0
-0.0423695 0.207739 0.0
-0.0509887 0.216208 0.0
-0.055836 0.221479 0.0
-0.0585763 0.224124 0.0
-0.0602298 0.224605 0.0
-0.0613963 0.223288 0.0
-0.0624052 0.220465 0.0
-0.0634148 0.216371 0.0
-0.064478 0.211199 0.0
-0.065586 0.20511 0.0
-0.0666959 0.198246 0.0
-0.0677493 0.19073 0.0
-0.0686843 0.182676 0.0
-0.0694426 0.174187 0.0
-0.069974 0.165362 0.0
-0.0702386 0.15629 0.0
-0.0702081 0.147059 0.0
-0.0698651 0.137746 0.0
-0.069203 0.128426 0.0
-0.0682238 0.119166 0.0
-0.0669375 0.110024 0.0
-0.0653595 0.101055 0.0
-0.0635098 0.092305 0.0
-0.0614102 0.0838144 0.0
-0.0590837 0.0756173 0.0
-0.0565527 0.0677421 0.0
-0.0538378 0.0602125 0.0
-0.0509572 0.053048 0.0
-0.047926 0.0462647 0.0
-0.0447558 0.0398763 0.0
-0.0414548 0.0338947 0.0
-0.038028 0.0283314 0.0
-0.0344781 0.0231977 0.0
-0.0308062 0.0185064 0.0
-0.0270129 0.0142726 0.0
-0.0231004 0.0105146 0.0
-0.0190739 0.0072566 0.0
-0.0149435 0.00453057 0.0
-0.0107265 0.00237144 0.0
-0.00644791 0.000831847 0.0
-0.00214195 0.000112947 0.0
0.856147 0.00286088 0.0
0.595858 0.0204616 0.0
0.390543 0.0518013 0.0
0.240481 0.0850115 0.0
0.135821 0.116271 0.0
0.0650832 0.143573 0.0
0.0183507 0.166223 0.0
-0.0119707 0.184265 0.0
-0.031189 0.197907 0.0
-0.0433369 0.207767 0.0
-0.0511287 0.214431 0.0
-0.0563254 0.218398 0.0
-0.0600369 0.220083 0.0
-0.0629382 0.219832 0.0
-0.0654184 0.217929 0.0
-0.0676815 0.214608 0.0
-0.0698146 0.210071 0.0
-0.071834 0.20449 0.0
-0.0737149 0.19802 0.0
-0.0754125 0.190799 0.0
-0.076875 0.182955 0.0
-0.0780525 0.174607 0.0
-0.0789017 0.165866 0.0
-0.0793898 0.156835 0.0
-0.0794949 0.147611 0.0
-0.0792065 0.138284 0.0
-0.0785249 0.128935 0.0
-0.0774598 0.119637 0.0
-0.0760283 0.110457 0.0
-0.0742535 0.10145 0.0
-0.0721623 0.0926674 0.0
-0.0697835 0.0841499 0.0
-0.0671464 0.0759324 0.0
-0.0642788 0.0680431 0.0
-0.0612063 0.0605045 0.0
-0.057951 0.0533348 0.0
-0.0545311 0.0465482 0.0
-0.0509602 0.0401563 0.0
-0.0472477 0.0341691 0.0
-0.0433989 0.028596 0.0
-0.0394153 0.0234471 0.0
-0.0352959 0.0187341 0.0
-0.0310382 0.0144717 0.0
-0.0266393 0.0106792 0.0
-0.0220974 0.0073823 0.0
-0.0174136 0.00461604 0.0
-0.0125925 0.0024192 0.0
-0.00764342 0.00084921 0.0
-0.00257965 0.00011528 0.0
0.866052 0.00237711 0.0
0.61993 0.0177302 0.0
0.420993 0.0458114 0.0
0.271651 0.076444 0.0
0.164532 0.106049 0.0
0.0898997 0.132572 0.0
0.0388601 0.155144 0.0
0.00433489 0.173635 0.0
-0.0188691 0.188186 0.0
-0.034466 0.199086 0.0
-0.0452097 0.20684 0.0
-0.0529278 0.211876 0.0
-0.0587977 0.214566 0.0
-0.0635532 0.215225 0.0
-0.0676314 0.214125 0.0
-0.0712742 0.211494 0.0
-0.0745972 0.207536 0.0
-0.0776381 0.202429 0.0
-0.0803882 0.196337 0.0
-0.0828153 0.18941 0.0
-0.0848774 0.181787 0.0
-0.0865331 0.1736 0.0
-0.087747 0.164971 0.0
-0.0884938 0.156016 0.0
-0.0887597 0.146842 0.0
-0.0885424 0.137546 0.0
-0.0878507 0.128218 0.0
-0.0867029 0.118938 0.0
-0.0851252 0.109777 0.0
-0.0831494 0.100794 0.0
-0.0808106 0.0920414 0.0
-0.0781456 0.0835623 0.0
-0.075191 0.0753912 0.0
-0.0719809 0.0675554 0.0
-0.0685463 0.0600761 0.0
-0.0649138 0.0529695 0.0
-0.0611047 0.0462473 0.0
-0.057135 0.0399188 0.0
-0.0530151 0.0339916 0.0
-0.04875 0.0284727 0.0
-0.04434 0.0233702 0.0
-0.0397815 0.0186943 0.0
-0.0350676 0.0144592 0.0
-0.0301896 0.0106839 0.0
-0.025138 0.00739512 0.0
-0.0199034 0.00462964 0.0
-0.0144774 0.0024288 0.0
-0.00885286 0.000853157 0.0
-0.00302263 0.000115837 0.0
0.87467 0.00202207 0.0
0.641352 0.0155621 0.0
0.448759 0.0408797 0.0
0.300766 0.0691845 0.0
0.191979 0.0971616 0.0
0.114176 0.122766 0.0
0.0594015 0.145023 0.0
0.0210913 0.163652 0.0
-0.00576827 0.178733 0.0
-0.024685 0.190382 0.0
-0.0383427 0.198957 0.0
-0.0486028 0.204834 0.0
-0.0566896 0.208336 0.0
-0.0633811 0.20975 0.0
-0.0691513 0.209328 0.0
-0.0742717 0.207291 0.0
-0.0788809 0.20384 0.0
-0.0830337 0.199156 0.0
-0.0867352 0.193408 0.0
-0.0899635 0.186755 0.0
-0.092686 0.179347 0.0
-0.0948693 0.171324 0.0
-0.0964864 0.162822 0.0
-0.0975203 0.153964 0.0
-0.0979661 0.144866 0.0
-0.097831 0.135637 0.0
-0.0971335 0.12637 0.0
-0.0959023 0.117153 0.0
-0.0941736 0.10806 0.0
-0.0919893 0.0991539 0.0
-0.0893943 0.0904883 0.0
-0.0864342 0.0821064 0.0
-0.0831537 0.0740425 0.0
-0.0795941 0.0663225 0.0
-0.0757924 0.0589658 0.0
-0.07178 0.0519858 0.0
-0.0675818 0.0453917 0.0
-0.063216 0.0391897 0.0
-0.0586939 0.0333846 0.0
-0.0540203 0.0279806 0.0
-0.0491936 0.0229833 0.0
-0.0442068 0.0184011 0.0
-0.0390485 0.0142465 0.0
-0.0337032 0.010538 0.0
-0.0281527 0.00730213 0.0
-0.0223767 0.00457632 0.0
-0.0163531 0.0024032 0.0
-0.010058 0.000844888 0.0
-0.00346435 0.000114831 0.0
0.882265 0.00175122 0.0
0.660566 0.0138039 0.0
0.474179 0.036758 0.0
0.327971 0.062964 0.0
0.218138 0.0893708 0.0
0.137761 0.113981 0.0
0.0797461 0.135754 0.0
0.0380309 0.154304 0.0
0.00787087 0.169596 0.0
-0.0142427 0.181757 0.0
-0.0307565 0.190928 0.0
-0.0435504 0.197441 0.0
-0.0538823 0.201578 0.0
-0.0625622 0.203596 0.0
-0.0700915 0.203726 0.0
-0.0767635 0.202181 0.0
-0.082734 0.199154 0.0
-0.0880711 0.19483 0.0
-0.09279 0.189379 0.0
-0.0968777 0.182969 0.0
-0.100309 0.175755 0.0
-0.103059 0.16789 0.0
-0.105109 0.159515 0.0
-0.10645 0.150765 0.0
-0.107088 0.141765 0.0
-0.107039 0.132628 0.0
-0.106335 0.123457 0.0
-0.105014 0.114342 0.0
-0.103125 0.105361 0.0
-0.100722 0.0965799 0.0
-0.0978586 0.0880529 0.0
-0.0945919 0.0798231 0.0
-0.0909752 0.0719234 0.0
-0.0870578 0.0643781 0.0
-0.0828832 0.0572037 0.0
-0.078488 0.0504109 0.0
-0.0739008 0.0440056 0.0
-0.0691422 0.0379905 0.0
-0.0642243 0.032367 0.0
-0.0591512 0.0271361 0.0
-0.0539194 0.0223006 0.0
-0.0485182 0.0178663 0.0
-0.0429305 0.0138436 0.0
-0.0371338 0.0102494 0.0
-0.0311007 0.00710922 0.0
-0.0247992 0.0044601 0.0
-0.0181931 0.00234468 0.0
-0.0112419 0.000825282 0.0
-0.0038988 0.0001124 0.0
0.889025 0.00153688 0.0
0.677915 0.0123478 0.0
0.497534 0.0332594 0.0
0.35341 0.0575679 0.0
0.243017 0.0824751 0.0
0.16056 0.106053 0.0
0.099728 0.127228 0.0
0.0549355 0.145536 0.0
0.0217 0.160854 0.0
-0.00337387 0.173259 0.0
-0.0226578 0.182831 0.0
-0.037954 0.189793 0.0
-0.0505358 0.194399 0.0
-0.0612337 0.196875 0.0
-0.0705672 0.197433 0.0
-0.0788446 0.196274 0.0
-0.0862331 0.193585 0.0
-0.0928098 0.189549 0.0
-0.0985973 0.184342 0.0
-0.103589 0.178132 0.0
-0.107766 0.171087 0.0
-0.111111 0.163362 0.0
-0.113612 0.155111 0.0
-0.115271 0.146475 0.0
-0.116104 0.137586 0.0
-0.11614 0.128565 0.0
-0.115421 0.119519 0.0
-0.113999 0.110542 0.0
-0.111936 0.101714 0.0
-0.109298 0.0931046 0.0
-0.106152 0.0847661 0.0
-0.102564 0.0767412 0.0
-0.098599 0.0690611 0.0
-0.094314 0.0617473 0.0
-0.0897597 0.0548134 0.0
-0.0849783 0.0482665 0.0
-0.0800023 0.0421086 0.0
-0.0748546 0.0363388 0.0
-0.0695483 0.0309545 0.0
-0.0640865 0.0259532 0.0
-0.0584633 0.0213341 0.0
-0.0526638 0.0171 0.0
-0.0466652 0.0132585 0.0
-0.0404373 0.00982429 0.0
-0.0339429 0.00682099 0.0
-0.0271382 0.00428399 0.0
-0.0199725 0.0022549 0.0
-0.0123887 0.000794927 0.0
-0.00432036 0.000108621 0.0
0.895087 0.00136128 0.0
0.693665 0.0111164 0.0
0.519056 0.0302407 0.0
0.377212 0.0528224 0.0
0.26664 0.0762996 0.0
0.182513 0.0988255 0.0
0.119229 0.119315 0.0
0.0716566 0.137248 0.0
0.0355782 0.152433 0.0
0.00774443 0.164878 0.0
-0.0142232 0.174677 0.0
-0.0319793 0.181922 0.0
-0.0468002 0.186844 0.0
-0.0595281 0.18964 0.0
-0.0706934 0.190504 0.0
-0.0806125 0.189625 0.0
-0.0894593 0.187184 0.0
-0.0973155 0.183363 0.0
-0.104208 0.178338 0.0
-0.110134 0.172285 0.0
-0.115081 0.165375 0.0
-0.119036 0.157773 0.0
-0.121997 0.149637 0.0
-0.123976 0.141118 0.0
-0.124999 0.132353 0.0
-0.125108 0.123468 0.0
-0.124359 0.114575 0.0
-0.122819 0.105772 0.0