# vtk DataFile Version 3.0
Malha 2D com triângulos e temperatura
ASCII
DATASET UNSTRUCTURED_GRID

POINTS 2500 double
0 0 0
1 0 0
1 1 0
0 1 0
0.0204082 0 0
0.0408163 0 0
0.0612245 0 0
0.0816327 0 0
0.102041 0 0
0.122449 0 0
0.142857 0 0
0.163265 0 0
0.183673 0 0
0.204082 0 0
0.22449 0 0
0.244898 0 0
0.265306 0 0
0.285714 0 0
0.306122 0 0
0.326531 0 0
0.346939 0 0
0.367347 0 0
0.387755 0 0
0.408163 0 0
0.428571 0 0
0.44898 0 0
0.469388 0 0
0.489796 0 0
0.510204 0 0
0.530612 0 0
0.55102 0 0
0.571429 0 0
0.591837 0 0
0.612245 0 0
0.632653 0 0
0.653061 0 0
0.673469 0 0
0.693878 0 0
0.714286 0 0
0.734694 0 0
0.755102 0 0
0.77551 0 0
0.795918 0 0
0.816327 0 0
0.836735 0 0
0.857143 0 0
0.877551 0 0
0.897959 0 0
0.918367 0 0
0.938776 0 0
0.959184 0 0
0.979592 0 0
1 0.0204082 0
1 0.0408163 0
1 0.0612245 0
1 0.0816327 0
1 0.102041 0
1 0.122449 0
1 0.142857 0
1 0.163265 0
1 0.183673 0
1 0.204082 0
1 0.22449 0
1 0.244898 0
1 0.265306 0
1 0.285714 0
1 0.306122 0
1 0.326531 0
1 0.346939 0
1 0.367347 0
1 0.387755 0
1 0.408163 0
1 0.428571 0
1 0.44898 0
1 0.469388 0
1 0.489796 0
1 0.510204 0
1 0.530612 0
1 0.55102 0
1 0.571429 0
1 0.591837 0
1 0.612245 0
1 0.632653 0
1 0.653061 0
1 0.673469 0
1 0.693878 0
1 0.714286 0
1 0.734694 0
1 0.755102 0
1 0.77551 0
1 0.795918 0
1 0.816327 0
1 0.836735 0
1 0.857143 0
1 0.877551 0
1 0.897959 0
1 0.918367 0
1 0.938776 0
1 0.959184 0
1 0.979592 0
0.979592 1 0
0.959184 1 0
0.938776 1 0
0.918367 1 0
0.897959 1 0
0.877551 1 0
0.857143 1 0
0.836735 1 0
0.816327 1 0
0.795918 1 0
0.77551 1 0
0.755102 1 0
0.734694 1 0
0.714286 1 0
0.693878 1 0
0.673469 1 0
0.653061 1 0
0.632653 1 0
0.612245 1 0
0.591837 1 0
0.571429 1 0
0.55102 1 0
0.530612 1 0
0.510204 1 0
0.489796 1 0
0.469388 1 0
0.44898 1 0
0.428571 1 0
0.408163 1 0
0.387755 1 0
0.367347 1 0
0.346939 1 0
0.326531 1 0
0.306122 1 0
0.285714 1 0
0.265306 1 0
0.244898 1 0
0.22449 1 0
0.204082 1 0
0.183673 1 0
0.163265 1 0
0.142857 1 0
0.122449 1 0
0.102041 1 0
0.0816327 1 0
0.0612245 1 0
0.0408163 1 0
0.0204082 1 0
0 0.979592 0
0 0.959184 0
0 0.938776 0
0 0.918367 0
0 0.897959 0
0 0.877551 0
0 0.857143 0
0 0.836735 0
0 0.816327 0
0 0.795918 0
0 0.77551 0
0 0.755102 0
0 0.734694 0
0 0.714286 0
0 0.693878 0
0 0.673469 0
0 0.653061 0
0 0.632653 0
0 0.612245 0
0 0.591837 0
0 0.571429 0
0 0.55102 0
0 0.530612 0
0 0.510204 0
0 0.489796 0
0 0.469388 0
0 0.44898 0
0 0.428571 0
0 0.408163 0
0 0.387755 0
0 0.367347 0
0 0.346939 0
0 0.326531 0
0 0.306122 0
0 0.285714 0
0 0.265306 0
0 0.244898 0
0 0.22449 0
0 0.204082 0
0 0.183673 0
0 0.163265 0
0 0.142857 0
0 0.122449 0
0 0.102041 0
0 0.0816327 0
0 0.0612245 0
0 0.0408163 0
0 0.0204082 0
0.0204082 0.979592 0
0.0204082 0.959184 0
0.0204082 0.938776 0
0.0204082 0.918367 0
0.0204082 0.897959 0
0.0204082 0.877551 0
0.0204082 0.857143 0
0.0204082 0.836735 0
0.0204082 0.816327 0
0.0204082 0.795918 0
0.0204082 0.77551 0
0.0204082 0.755102 0
0.0204082 0.734694 0
0.0204082 0.714286 0
0.0204082 0.693878 0
0.0204082 0.673469 0
0.0204082 0.653061 0
0.0204082 0.632653 0
0.0204082 0.612245 0
0.0204082 0.591837 0
0.0204082 0.571429 0
0.0204082 0.55102 0
0.0204082 0.530612 0
0.0204082 0.510204 0
0.0204082 0.489796 0
0.0204082 0.469388 0
0.0204082 0.44898 0
0.0204082 0.428571 0
0.0204082 0.408163 0
0.0204082 0.387755 0
0.0204082 0.367347 0
0.0204082 0.346939 0
0.0204082 0.326531 0
0.0204082 0.306122 0
0.0204082 0.285714 0
0.0204082 0.265306 0
0.0204082 0.244898 0
0.0204082 0.22449 0
0.0204082 0.204082 0
0.0204082 0.183673 0
0.0204082 0.163265 0
0.0204082 0.142857 0
0.0204082 0.122449 0
0.0204082 0.102041 0
0.0204082 0.0816327 0
0.0204082 0.0612245 0
0.0204082 0.0408163 0
0.0204082 0.0204082 0
0.0408163 0.979592 0
0.0408163 0.959184 0
0.0408163 0.938776 0
0.0408163 0.918367 0
0.0408163 0.897959 0
0.0408163 0.877551 0
0.0408163 0.857143 0
0.0408163 0.836735 0
0.0408163 0.816327 0
0.0408163 0.795918 0
0.0408163 0.77551 0
0.0408163 0.755102 0
0.0408163 0.734694 0
0.0408163 0.714286 0
0.0408163 0.693878 0
0.0408163 0.673469 0
0.0408163 0.653061 0
0.0408163 0.632653 0
0.0408163 0.612245 0
0.0408163 0.591837 0
0.0408163 0.571429 0
0.0408163 0.55102 0
0.0408163 0.530612 0
0.0408163 0.510204 0
0.0408163 0.489796 0
0.0408163 0.469388 0
0.0408163 0.44898 0
0.0408163 0.428571 0
0.0408163 0.408163 0
0.0408163 0.387755 0
0.0408163 0.367347 0
0.0408163 0.346939 0
0.0408163 0.326531 0
0.0408163 0.306122 0
0.0408163 0.285714 0
0.0408163 0.265306 0
0.0408163 0.244898 0
0.0408163 0.22449 0
0.0408163 0.204082 0
0.0408163 0.183673 0
0.0408163 0.163265 0
0.0408163 0.142857 0
0.0408163 0.122449 0
0.0408163 0.102041 0
0.0408163 0.0816327 0
0.0408163 0.0612245 0
0.0408163 0.0408163 0
0.0408163 0.0204082 0
0.0612245 0.979592 0
0.0612245 0.959184 0
0.0612245 0.938776 0
0.0612245 0.918367 0
0.0612245 0.897959 0
0.0612245 0.877551 0
0.0612245 0.857143 0
0.0612245 0.836735 0
0.0612245 0.816327 0
0.0612245 0.795918 0
0.0612245 0.77551 0
0.0612245 0.755102 0
0.0612245 0.734694 0
0.0612245 0.714286 0
0.0612245 0.693878 0
0.0612245 0.673469 0
0.0612245 0.653061 0
0.0612245 0.632653 0
0.0612245 0.612245 0
0.0612245 0.591837 0
0.0612245 0.571429 0
0.0612245 0.55102 0
0.0612245 0.530612 0
0.0612245 0.510204 0
0.0612245 0.489796 0
0.0612245 0.469388 0
0.0612245 0.44898 0
0.0612245 0.428571 0
0.0612245 0.408163 0
0.0612245 0.387755 0
0.0612245 0.367347 0
0.0612245 0.346939 0
0.0612245 0.326531 0
0.0612245 0.306122 0
0.0612245 0.285714 0
0.0612245 0.265306 0
0.0612245 0.244898 0
0.0612245 0.22449 0
0.0612245 0.204082 0
0.0612245 0.183673 0
0.0612245 0.163265 0
0.0612245 0.142857 0
0.0612245 0.122449 0
0.0612245 0.102041 0
0.0612245 0.0816327 0
0.0612245 0.0612245 0
0.0612245 0.0408163 0
0.0612245 0.0204082 0
0.0816327 0.979592 0
0.0816327 0.959184 0
0.0816327 0.938776 0
0.0816327 0.918367 0
0.0816327 0.897959 0
0.0816327 0.877551 0
0.0816327 0.857143 0
0.0816327 0.836735 0
0.0816327 0.816327 0
0.0816327 0.795918 0
0.0816327 0.77551 0
0.0816327 0.755102 0
0.0816327 0.734694 0
0.0816327 0.714286 0
0.0816327 0.693878 0
0.0816327 0.673469 0
0.0816327 0.653061 0
0.0816327 0.632653 0
0.0816327 0.612245 0
0.0816327 0.591837 0
0.0816327 0.571429 0
0.0816327 0.55102 0
0.0816327 0.530612 0
0.0816327 0.510204 0
0.0816327 0.489796 0
0.0816327 0.469388 0
0.0816327 0.44898 0
0.0816327 0.428571 0
0.0816327 0.408163 0
0.0816327 0.387755 0
0.0816327 0.367347 0
0.0816327 0.346939 0
0.0816327 0.326531 0
0.0816327 0.306122 0
0.0816327 0.285714 0
0.0816327 0.265306 0
0.0816327 0.244898 0
0.0816327 0.22449 0
0.0816327 0.204082 0
0.0816327 0.183673 0
0.0816327 0.163265 0
0.0816327 0.142857 0
0.0816327 0.122449 0
0.0816327 0.102041 0
0.0816327 0.0816327 0
0.0816327 0.0612245 0
0.0816327 0.0408163 0
0.0816327 0.0204082 0
0.102041 0.979592 0
0.102041 0.959184 0
0.102041 0.938776 0
0.102041 0.918367 0
0.102041 0.897959 0
0.102041 0.877551 0
0.102041 0.857143 0
0.102041 0.836735 0
0.102041 0.816327 0
0.102041 0.795918 0
0.102041 0.77551 0
0.102041 0.755102 0
0.102041 0.734694 0
0.102041 0.714286 0
0.102041 0.693878 0
0.102041 0.673469 0
0.102041 0.653061 0
0.102041 0.632653 0
0.102041 0.612245 0
0.102041 0.591837 0
0.102041 0.571429 0
0.102041 0.55102 0
0.102041 0.530612 0
0.102041 0.510204 0
0.102041 0.489796 0
0.102041 0.469388 0
0.102041 0.44898 0
0.102041 0.428571 0
0.102041 0.408163 0
0.102041 0.387755 0
0.102041 0.367347 0
0.102041 0.346939 0
0.102041 0.326531 0
0.102041 0.306122 0
0.102041 0.285714 0
0.102041 0.265306 0
0.102041 0.244898 0
0.102041 0.22449 0
0.102041 0.204082 0
0.102041 0.183673 0
0.102041 0.163265 0
0.102041 0.142857 0
0.102041 0.122449 0
0.102041 0.102041 0
0.102041 0.0816327 0
0.102041 0.0612245 0
0.102041 0.0408163 0
0.102041 0.0204082 0
0.122449 0.979592 0
0.122449 0.959184 0
0.122449 0.938776 0
0.122449 0.918367 0
0.122449 0.897959 0
0.122449 0.877551 0
0.122449 0.857143 0
0.122449 0.836735 0
0.122449 0.816327 0
0.122449 0.795918 0
0.122449 0.77551 0
0.122449 0.755102 0
0.122449 0.734694 0
0.122449 0.714286 0
0.122449 0.693878 0
0.122449 0.673469 0
0.122449 0.653061 0
0.122449 0.632653 0
0.122449 0.612245 0
0.122449 0.591837 0
0.122449 0.571429 0
0.122449 0.55102 0
0.122449 0.530612 0
0.122449 0.510204 0
0.122449 0.489796 0
0.122449 0.469388 0
0.122449 0.44898 0
0.122449 0.428571 0
0.122449 0.408163 0
0.122449 0.387755 0
0.122449 0.367347 0
0.122449 0.346939 0
0.122449 0.326531 0
0.122449 0.306122 0
0.122449 0.285714 0
0.122449 0.265306 0
0.122449 0.244898 0
0.122449 0.22449 0
0.122449 0.204082 0
0.122449 0.183673 0
0.122449 0.163265 0
0.122449 0.142857 0
0.122449 0.122449 0
0.122449 0.102041 0
0.122449 0.0816327 0
0.122449 0.0612245 0
0.122449 0.0408163 0
0.122449 0.0204082 0
0.142857 0.979592 0
0.142857 0.959184 0
0.142857 0.938776 0
0.142857 0.918367 0
0.142857 0.897959 0
0.142857 0.877551 0
0.142857 0.857143 0
0.142857 0.836735 0
0.142857 0.816327 0
0.142857 0.795918 0
0.142857 0.77551 0
0.142857 0.755102 0
0.142857 0.734694 0
0.142857 0.714286 0
0.142857 0.693878 0
0.142857 0.673469 0
0.142857 0.653061 0
0.142857 0.632653 0
0.142857 0.612245 0
0.142857 0.591837 0
0.142857 0.571429 0
0.142857 0.55102 0
0.142857 0.530612 0
0.142857 0.510204 0
0.142857 0.489796 0
0.142857 0.469388 0
0.142857 0.44898 0
0.142857 0.428571 0
0.142857 0.408163 0
0.142857 0.387755 0
0.142857 0.367347 0
0.142857 0.346939 0
0.142857 0.326531 0
0.142857 0.306122 0
0.142857 0.285714 0
0.142857 0.265306 0
0.142857 0.244898 0
0.142857 0.22449 0
0.142857 0.204082 0
0.142857 0.183673 0
0.142857 0.163265 0
0.142857 0.142857 0
0.142857 0.122449 0
0.142857 0.102041 0
0.142857 0.0816327 0
0.142857 0.0612245 0
0.142857 0.0408163 0
0.142857 0.0204082 0
0.163265 0.979592 0
0.163265 0.959184 0
0.163265 0.938776 0
0.163265 0.918367 0
0.163265 0.897959 0
0.163265 0.877551 0
0.163265 0.857143 0
0.163265 0.836735 0
0.163265 0.816327 0
0.163265 0.795918 0
0.163265 0.77551 0
0.163265 0.755102 0
0.163265 0.734694 0
0.163265 0.714286 0
0.163265 0.693878 0
0.163265 0.673469 0
0.163265 0.653061 0
0.163265 0.632653 0
0.163265 0.612245 0
0.163265 0.591837 0
0.163265 0.571429 0
0.163265 0.55102 0
[...]
CELL_DATA 2401
VECTORS velocity double
0.257356 0.157464 0.0
-0.0026472 0.264679 0.0
-0.0322085 0.205776 0.0
-0.0252784 0.15115 0.0
-0.015983 0.113816 0.0
-0.00966941 0.0885526 0.0
-0.00594168 0.0714412 0.0
-0.00379877 0.0595806 0.0
-0.00254822 0.0510826 0.0
-0.00179348 0.0447876 0.0
-0.00131956 0.0399748 0.0
-0.00101058 0.036184 0.0
-0.00080274 0.0331126 0.0
-0.000659529 0.0305554 0.0
-0.000559085 0.0283703 0.0
-0.000487708 0.0264567 0.0
-0.000436451 0.0247428 0.0
-0.000399259 0.0231771 0.0
-0.000371921 0.0217224 0.0
-0.000351443 0.0203521 0.0
-0.000335667 0.0190476 0.0
-0.000323023 0.0177959 0.0
-0.000312369 0.0165884 0.0
-0.000302881 0.0154198 0.0
-0.000293969 0.0142869 0.0
-0.000285229 0.0131883 0.0
-0.000276391 0.0121237 0.0
-0.000267289 0.0110936 0.0
-0.000257832 0.0100991 0.0
-0.000247985 0.00914112 0.0
-0.000237746 0.00822115 0.0
-0.000227134 0.00734045 0.0
-0.000216176 0.00650028 0.0
-0.000204892 0.00570185 0.0
-0.000193295 0.00494634 0.0
-0.000181374 0.00423495 0.0
-0.000169096 0.00356895 0.0
-0.000156391 0.00294978 0.0
-0.000143154 0.00237915 0.0
-0.000129231 0.00185912 0.0
-0.000114414 0.00139225 0.0
-9.843e-05 0.000981662 0.0
-8.09434e-05 0.000631157 0.0
-6.15771e-05 0.000345197 0.0
-4.00232e-05 0.000128683 0.0
-1.6403e-05 -1.37377e-05 0.0
7.75313e-06 -7.94685e-05 0.0
2.7437e-05 -7.44319e-05 0.0
2.80222e-05 -2.79081e-05 0.0
0.340699 0.123017 0.0
-0.000337823 0.249732 0.0
-0.064832 0.272351 0.0
-0.0628833 0.25328 0.0
-0.0482914 0.223031 0.0
-0.0349455 0.193215 0.0
-0.025122 0.167594 0.0
-0.0183039 0.146668 0.0
-0.0136276 0.129854 0.0
-0.0103993 0.116341 0.0
-0.00814132 0.105381 0.0
-0.00653986 0.096362 0.0
-0.00538993 0.0888087 0.0
-0.00455585 0.0823583 0.0
-0.00394592 0.076738 0.0
-0.0034968 0.0717428 0.0
-0.00316379 0.0672198 0.0
-0.00291475 0.0630552 0.0
-0.00272622 0.059165 0.0
-0.00258088 0.0554878 0.0
-0.00246585 0.0519797 0.0
-0.00237154 0.0486098 0.0
-0.0022908 0.0453574 0.0
-0.00221837 0.042209 0.0
-0.00215042 0.0391569 0.0
-0.00208425 0.0361975 0.0
-0.00201802 0.0333298 0.0
-0.00195052 0.030555 0.0
-0.00188104 0.0278753 0.0
-0.00180923 0.0252936 0.0
-0.00173496 0.0228133 0.0
-0.00165824 0.0204376 0.0
-0.00157915 0.01817 0.0
-0.00149774 0.0160136 0.0
-0.00141404 0.0139718 0.0
-0.00132792 0.0120477 0.0
-0.00123917 0.0102449 0.0
-0.00114738 0.00856733 0.0
-0.00105196 0.00701937 0.0
-0.000952161 0.00560628 0.0
-0.000847029 0.00433419 0.0
-0.000735503 0.00321022 0.0
-0.00061652 0.00224237 0.0
-0.000489337 0.00143914 0.0
-0.000354213 0.000808531 0.0
-0.000214007 0.000356048 0.0
-7.75472e-05 8.06425e-05 0.0
3.45711e-05 -3.34912e-05 0.0
7.41099e-05 -2.67364e-05 0.0
0.501173 0.0768857 0.0
0.0997836 0.18364 0.0
-0.0385372 0.250094 0.0
-0.0727445 0.266927 0.0
-0.0715619 0.258768 0.0
-0.0607421 0.240853 0.0
-0.0490099 0.22041 0.0
-0.0389268 0.200728 0.0
-0.0309347 0.183049 0.0
-0.02481 0.167635 0.0
-0.0201829 0.154332 0.0
-0.0167067 0.14284 0.0
-0.0140993 0.132836 0.0
-0.0121431 0.124022 0.0
-0.0106735 0.116147 0.0
-0.00956715 0.109008 0.0
-0.00873092 0.10244 0.0
-0.00809462 0.0963185 0.0
-0.00760503 0.0905462 0.0
-0.00722163 0.0850516 0.0
-0.0069136 0.0797823 0.0
-0.00665751 0.0747013 0.0
-0.00643567 0.0697839 0.0
-0.00623487 0.0650143 0.0
-0.00604544 0.0603839 0.0
-0.00586044 0.0558891 0.0
-0.00567508 0.0515299 0.0
-0.00548625 0.0473088 0.0
-0.00529205 0.0432297 0.0
-0.0050915 0.0392974 0.0
-0.00488421 0.0355172 0.0
-0.00467015 0.0318943 0.0
-0.00444946 0.0284338 0.0
-0.00422225 0.0251409 0.0
-0.0039885 0.0220203 0.0
-0.00374795 0.0190772 0.0
-0.00349999 0.0163169 0.0
-0.00324365 0.0137451 0.0
-0.00297756 0.0113682 0.0
-0.00270001 0.00919351 0.0
-0.00240902 0.00722942 0.0
-0.00210256 0.00548517 0.0
-0.00177904 0.00397071 0.0
-0.00143814 0.00269596 0.0
-0.00108244 0.00166943 0.0
-0.000720604 0.00089591 0.0
-0.000373033 0.000371623 0.0
-8.00434e-05 7.88198e-05 0.0
7.75874e-05 -6.46166e-06 0.0
0.610561 0.048129 0.0
0.196724 0.134362 0.0
0.012543 0.210182 0.0
-0.0572083 0.247419 0.0
-0.0758511 0.257905 0.0
-0.0742881 0.254102 0.0
-0.0658461 0.243169 0.0
-0.0560359 0.229363 0.0
-0.0469651 0.21498 0.0
-0.0392881 0.201127 0.0
-0.0330656 0.18826 0.0
-0.0281399 0.176492 0.0
-0.0242947 0.165769 0.0
-0.0213182 0.155967 0.0
-0.0190256 0.146942 0.0
-0.0172636 0.138558 0.0
-0.0159081 0.130693 0.0
-0.0148603 0.123246 0.0
-0.0140419 0.116139 0.0
-0.0133915 0.109308 0.0
-0.0128611 0.102709 0.0
-0.0124134 0.0963105 0.0
-0.0120199 0.0900916 0.0
-0.0116592 0.0840403 0.0
-0.0113152 0.0781512 0.0
-0.0109766 0.0724237 0.0
-0.0106355 0.0668609 0.0
-0.0102866 0.0614679 0.0
-0.00992695 0.0562511 0.0
-0.00955491 0.0512178 0.0
-0.00916993 0.0463752 0.0
-0.00877205 0.0417306 0.0
-0.00836156 0.0372908 0.0
-0.00793873 0.0330626 0.0
-0.00750356 0.0290523 0.0
-0.00705566 0.0252664 0.0
-0.00659404 0.0217113 0.0
-0.00611716 0.0183943 0.0
-0.00562285 0.0153228 0.0
-0.00510845 0.0125055 0.0
-0.00457104 0.00995179 0.0
-0.0040079 0.0076718 0.0
-0.0034173 0.00567621 0.0
-0.00279993 0.00397525 0.0
-0.00216131 0.00257749 0.0
-0.00151601 0.00148796 0.0
-0.000894528 0.000703254 0.0
-0.000352072 0.000210562 0.0
1.06981e-05 1.75971e-05 0.0
0.681155 0.0302239 0.0
0.279781 0.0984836 0.0
0.070946 0.171495 0.0
-0.0266825 0.218005 0.0
-0.0653629 0.241177 0.0
-0.0758977 0.24904 0.0
-0.0739788 0.247505 0.0
-0.0672324 0.240696 0.0
-0.0592331 0.231229 0.0
-0.0515635 0.220654 0.0
-0.0448374 0.209837 0.0
-0.0392105 0.199223 0.0
-0.0346338 0.189013 0.0
-0.0309772 0.179269 0.0
-0.0280891 0.16998 0.0
-0.0258233 0.161104 0.0
-0.0240493 0.152585 0.0
-0.0226559 0.144372 0.0
-0.0215507 0.136417 0.0
-0.0206583 0.128685 0.0
-0.0199181 0.121149 0.0
-0.0192821 0.11379 0.0
-0.0187131 0.106599 0.0
-0.0181824 0.0995732 0.0
-0.017669 0.0927134 0.0
-0.0171576 0.0860254 0.0
-0.0166377 0.0795168 0.0
-0.0161027 0.0731972 0.0
-0.0155486 0.0670764 0.0
-0.0149736 0.0611645 0.0
-0.0143774 0.0554715 0.0
-0.0137602 0.0500066 0.0
-0.0131229 0.0447785 0.0
-0.0124659 0.0397952 0.0
-0.0117896 0.0350645 0.0
-0.0110935 0.0305937 0.0
-0.0103764 0.0263904 0.0
-0.00963616 0.0224623 0.0
-0.00887 0.0188178 0.0
-0.00807444 0.0154657 0.0
-0.00724578 0.012416 0.0
-0.00638079 0.00967905 0.0
-0.0054778 0.00726569 0.0
-0.00453857 0.00518631 0.0
-0.00357119 0.0034501 0.0
-0.00259466 0.00206392 0.0
-0.00164602 0.00102778 0.0
-0.000788373 0.000338146 0.0
-0.000128989 3.98744e-05 0.0
0.730682 0.0192196 0.0
0.350463 0.0731895 0.0
0.129258 0.139461 0.0
0.011789 0.18819 0.0
-0.0449732 0.219002 0.0
-0.0681432 0.235227 0.0
-0.0742893 0.241418 0.0
-0.0723514 0.24107 0.0
-0.0670178 0.236687 0.0
-0.0606777 0.229942 0.0
-0.0544881 0.2219 0.0
-0.0489532 0.213214 0.0
-0.0442388 0.204271 0.0
-0.0403421 0.195284 0.0
-0.0371828 0.186365 0.0
-0.0346514 0.177564 0.0
-0.0326337 0.168899 0.0
-0.0310227 0.160371 0.0
-0.0297237 0.151976 0.0
-0.028656 0.14371 0.0
-0.0277527 0.13557 0.0
-0.0269595 0.127559 0.0
-0.0262337 0.119682 0.0
-0.0255421 0.111947 0.0
-0.0248603 0.104367 0.0
-0.0241706 0.0969545 0.0
-0.0234611 0.0897247 0.0
-0.0227247 0.0826921 0.0
-0.0219572 0.075871 0.0
-0.0211575 0.0692751 0.0
-0.0203257 0.0629171 0.0
-0.019463 0.0568085 0.0
-0.0185709 0.0509598 0.0
-0.0176508 0.0453805 0.0
-0.0167032 0.0400791 0.0
-0.015728 0.0350638 0.0
-0.0147238 0.0303427 0.0
-0.0136883 0.0259238 0.0
-0.0126181 0.0218154 0.0
-0.011509 0.0180267 0.0
-0.0103566 0.0145674 0.0
-0.00915723 0.0114479 0.0
-0.00790917 0.00867912 0.0
-0.00661475 0.00627191 0.0
-0.00528347 0.00423692 0.0
-0.00393652 0.00258436 0.0
-0.00261327 0.00131973 0.0
-0.00137796 0.000450789 0.0
-0.000334019 5.8516e-05 0.0
0.766726 0.0125837 0.0
0.409865 0.0556737 0.0
0.184013 0.114322 0.0
0.0527728 0.161937 0.0
-0.0186378 0.196301 0.0
-0.0536375 0.21802 0.0
-0.0682537 0.229971 0.0
-0.0720307 0.234945 0.0
-0.0703988 0.235124 0.0
-0.0663721 0.2321 0.0
-0.0615761 0.226986 0.0
-0.0568447 0.220531 0.0
-0.0525665 0.213231 0.0
-0.0488841 0.205406 0.0
-0.0458095 0.197261 0.0
-0.0432894 0.188924 0.0
-0.0412421 0.180478 0.0
-0.0395783 0.171976 0.0
-0.0382116 0.163457 0.0
-0.0370644 0.154948 0.0
-0.0360695 0.146476 0.0
-0.0351715 0.138065 0.0
-0.0343258 0.129736 0.0
-0.0334978 0.121515 0.0
-0.0326619 0.113425 0.0
-0.0318001 0.105488 0.0
-0.0309007 0.097727 0.0
-0.029957 0.090163 0.0
-0.0289661 0.0828155 0.0
-0.027928 0.0757021 0.0
-0.0268444 0.0688386 0.0
-0.0257179 0.062239 0.0
-0.0245513 0.0559154 0.0
-0.023347 0.0498785 0.0
-0.0221065 0.0441377 0.0
-0.0208301 0.0387015 0.0
-0.0195167 0.0335781 0.0
-0.0181636 0.0287755 0.0
-0.0167672 0.0243019 0.0
-0.0153225 0.020166 0.0
-0.0138247 0.0163773 0.0
-0.0122691 0.012946 0.0
-0.0106538 0.00988313 0.0
-0.00898063 0.00720066 0.0
-0.00725908 0.00491135 0.0
-0.00550988 0.0030297 0.0
-0.00377072 0.00156773 0.0
-0.00210138 0.00054466 0.0
-0.00059414 7.32797e-05 0.0
0.793698 0.0085649 0.0
0.459714 0.0434258 0.0
0.234049 0.094803 0.0
0.0936714 0.1398 0.0
0.011079 0.175029 0.0
-0.0345614 0.200139 0.0
-0.057428 0.216145 0.0
-0.0672476 0.225242 0.0
-0.0698954 0.229222 0.0
-0.0688364 0.229504 0.0
-0.0660701 0.227152 0.0
-0.0627155 0.222935 0.0
-0.0593678 0.217396 0.0
-0.0563145 0.210918 0.0
-0.0536663 0.203769 0.0
-0.0514353 0.196134 0.0
-0.0495824 0.188148 0.0
-0.0480447 0.179909 0.0
-0.0467523 0.171493 0.0
-0.0456369 0.162961 0.0
-0.044637 0.154365 0.0
-0.0437001 0.14575 0.0
-0.0427835 0.137159 0.0
-0.0418544 0.12863 0.0
-0.0408883 0.1202 0.0
-0.0398691 0.111901 0.0
-0.0387867 0.103766 0.0
-0.0376368 0.0958216 0.0
-0.0364187 0.0880931 0.0
-0.0351349 0.0806025 0.0
-0.0337892 0.0733688 0.0
-0.0323866 0.0664083 0.0
-0.0309319 0.0597349 0.0
-0.0294289 0.0533601 0.0
-0.0278805 0.047294 0.0
-0.0262878 0.0415452 0.0
-0.02465 0.0361217 0.0
-0.0229647 0.0310311 0.0
-0.0212278 0.026281 0.0
-0.0194337 0.0218796 0.0
-0.0175767 0.0178359 0.0
-0.0156514 0.01416 0.0
-0.0136544 0.0108633 0.0
-0.0115864 0.00795891 0.0
-0.00945489 0.00546226 0.0
-0.00727782 0.00339248 0.0
-0.00508779 0.00176825 0.0
-0.00293583 0.000619272 0.0
-0.000898585 8.4491e-05 0.0
0.81455 0.006087 0.0
0.501821 0.0347113 0.0
0.279223 0.0796502 0.0
0.133059 0.121476 0.0
0.0418106 0.156253 0.0
-0.0127031 0.182972 0.0
-0.0431923 0.20169 0.0
-0.0589956 0.213824 0.0
-0.066166 0.220819 0.0
-0.0684605 0.223883 0.0
-0.0681579 0.223977 0.0
-0.0666088 0.221838 0.0
-0.0645877 0.218017 0.0
-0.0625148 0.212921 0.0
-0.0605963 0.206855 0.0
-0.0589116 0.200043 0.0
-0.0574678 0.192658 0.0
-0.0562337 0.184832 0.0
-0.0551602 0.176674 0.0
-0.0541934 0.168272 0.0
-0.0532813 0.159702 0.0
-0.0523782 0.151031 0.0
-0.0514466 0.142319 0.0
-0.0504577 0.133621 0.0
-0.0493911 0.124985 0.0
-0.0482343 0.116455 0.0
-0.0469809 0.108072 0.0
-0.0456303 0.0998698 0.0
-0.0441856 0.09188 0.0
-0.0426527 0.0841287 0.0
-0.0410389 0.0766381 0.0
-0.0393521 0.0694268 0.0
-0.0375998 0.0625101 0.0
-0.0357881 0.0559004 0.0
-0.0339216 0.049608 0.0
-0.0320026 0.0436414 0.0
-0.030031 0.038008 0.0
-0.0280045 0.0327146 0.0
-0.0259188 0.0277682 0.0
-0.0237677 0.0231761 0.0
-0.0215443 0.0189468 0.0
-0.0192417 0.0150901 0.0
-0.0168546 0.0116179 0.0
-0.0143814 0.00854451 0.0
-0.011826 0.00588812 0.0
-0.00920131 0.00367233 0.0
-0.00653212 0.00192197 0.0
-0.0038579 0.000675645 0.0
-0.0012371 9.26258e-05 0.0
0.83117 0.00451906 0.0
0.537719 0.0283801 0.0
0.319852 0.0677901 0.0
0.170351 0.106338 0.0
0.072549 0.13994 0.0
0.0108636 0.167046 0.0
-0.0265955 0.187506 0.0
-0.0481346 0.201806 0.0
-0.0598557 0.211122 0.0
-0.0656928 0.216446 0.0
-0.0681248 0.218622 0.0
-0.0686829 0.218326 0.0
-0.0682893 0.216088 0.0
-0.0674798 0.212317 0.0
-0.0665471 0.207331 0.0
-0.0656343 0.201379 0.0
-0.0647945 0.194659 0.0
-0.0640296 0.187328 0.0
-0.0633138 0.17952 0.0
-0.06261 0.171346 0.0
-0.0618786 0.162904 0.0
-0.0610834 0.154281 0.0
-0.0601946 0.145552 0.0
-0.0591898 0.136786 0.0
-0.0580548 0.128046 0.0
-0.0567826 0.119386 0.0
-0.0553725 0.110854 0.0
-0.053829 0.102493 0.0
-0.0521603 0.0943386 0.0
-0.0503772 0.0864222 0.0
-0.0484915 0.0787689 0.0
-0.046515 0.0713994 0.0
-0.0444585 0.06433 0.0
-0.0423312 0.0575739 0.0
-0.0401397 0.0511412 0.0
-0.037888 0.0450398 0.0
-0.035577 0.0392763 0.0
-0.0332046 0.0338566 0.0
-0.0307663 0.0287866 0.0
-0.0282552 0.0240726 0.0
-0.0256628 0.0197222 0.0
-0.0229803 0.015745 0.0
-0.0201998 0.0121532 0.0
-0.0173159 0.00896237 0.0
-0.0143277 0.00619303 0.0
-0.0112413 0.00387276 0.0
-0.00807171 0.00203165 0.0
-0.00484503 0.000715405 0.0
-0.00160038 9.81584e-05 0.0
0.844769 0.00349498 0.0
0.56863 0.0236803 0.0
0.356392 0.058415 0.0
0.205301 0.0938254 0.0
0.10257 0.125903 0.0
0.0349056 0.152795 0.0
-0.00852173 0.174092 0.0
-0.0353915 0.18988 0.0
-0.0515435 0.200918 0.0
-0.0609726 0.208027 0.0
-0.0662867 0.211923 0.0
-0.0691499 0.213207 0.0
-0.070602 0.212373 0.0
-0.0712748 0.209814 0.0
-0.071536 0.20585 0.0
-0.071586 0.200738 0.0
-0.0715208 0.194691 0.0
-0.0713738 0.187885 0.0
-0.0711432 0.180471 0.0
-0.0708096 0.172581 0.0
-0.0703474 0.16433 0.0
-0.0697316 0.155821 0.0
-0.0689418 0.147145 0.0
-0.0679642 0.138385 0.0
-0.0667925 0.129615 0.0
-0.0654271 0.1209 0.0
-0.0638745 0.112296 0.0
-0.062146 0.103853 0.0
-0.0602565 0.0956127 0.0
-0.0582228 0.0876095 0.0
-0.0560621 0.0798716 0.0
-0.0537913 0.0724217 0.0
-0.0514255 0.0652769 0.0
-0.0489772 0.0584506 0.0
-0.046456 0.0519524 0.0
-0.0438676 0.0457894 0.0
-0.0412142 0.0399671 0.0
-0.0384943 0.0344901 0.0
-0.0357029 0.0293627 0.0
-0.0328321 0.02459 0.0
-0.0298718 0.0201789 0.0
-0.0268106 0.0161381 0.0
-0.0236371 0.01248 0.0
-0.0203414 0.00922116 0.0
-0.0169164 0.00638395 0.0
-0.0133599 0.00399912 0.0
-0.00967605 0.0021009 0.0
-0.00587628 0.000740316 0.0
-0.00198014 0.000101507 0.0
0.856146 0.00280119 0.0
0.595516 0.0201123 0.0
0.389332 0.0509109 0.0
0.237908 0.0834165 0.0
0.131555 0.113814 0.0
0.0589949 0.140109 0.0
0.0105067 0.161622 0.0
-0.021314 0.178396 0.0
-0.0417122 0.190683 0.0
-0.0546953 0.199172 0.0
-0.0629506 0.204457 0.0
-0.0682377 0.207065 0.0
-0.0716864 0.207441 0.0
-0.0740055 0.205957 0.0
-0.0756253 0.202921 0.0
-0.0767954 0.198591 0.0
-0.0776496 0.193188 0.0
-0.0782504 0.186899 0.0
-0.0786185 0.179889 0.0
-0.0787521 0.172304 0.0
-0.0786401 0.164274 0.0
-0.0782695 0.155917 0.0
-0.0776308 0.147339 0.0
-0.0767203 0.138633 0.0
-0.0755409 0.129886 0.0
-0.0741023 0.121171 0.0
-0.0724197 0.112554 0.0
-0.0705128 0.10409 0.0
-0.0684045 0.0958251 0.0
-0.0661187 0.087799 0.0
-0.0636797 0.0800417 0.0
-0.06111 0.0725773 0.0
-0.0584298 0.0654236 0.0
-0.0556559 0.0585934 0.0
-0.0528011 0.0520958 0.0
-0.0498733 0.0459365 0.0
-0.0468764 0.0401195 0.0
-0.0438092 0.0346476 0.0
-0.0406664 0.0295237 0.0
-0.037439 0.0247512 0.0
-0.0341147 0.0203355 0.0
-0.030679 0.0162848 0.0
-0.0271166 0.012611 0.0
-0.0234118 0.00933113 0.0
-0.0195506 0.00646891 0.0
-0.0155215 0.00405728 0.0
-0.0113167 0.00213343 0.0
-0.0069325 0.000752037 0.0
-0.00236911 0.000103016 0.0
0.865846 0.00231289 0.0
0.619129 0.017345 0.0
0.419131 0.0448288 0.0
0.268266 0.0747003 0.0
0.159307 0.103397 0.0
0.0827192 0.12888 0.0
0.0297996 0.150295 0.0
-0.00637991 0.167551 0.0
-0.0307699 0.180716 0.0
-0.0472058 0.190237 0.0
-0.0583992 0.196618 0.0
-0.06617 0.200308 0.0
-0.0717134 0.201703 0.0
-0.0757976 0.201144 0.0
-0.0789033 0.198926 0.0
-0.0813203 0.195299 0.0
-0.0832146 0.190486 0.0
-0.084674 0.18468 0.0
-0.0857393 0.178057 0.0
-0.0864254 0.170773 0.0
-0.0867352 0.162972 0.0
-0.0866682 0.154784 0.0
-0.0862266 0.146326 0.0
-0.0854179 0.137704 0.0
-0.0842556 0.129014 0.0
-0.08276 0.12034 0.0
-0.0809567 0.111752 0.0
-0.0788752 0.103314 0.0
-0.0765475 0.0950764 0.0
-0.0740065 0.0870804 0.0
-0.0712841 0.0793589 0.0
-0.0684098 0.0719368 0.0
-0.0654096 0.064832 0.0
-0.0623052 0.0580568 0.0
-0.0591131 0.0516188 0.0
-0.055844 0.0455221 0.0
-0.0525031 0.0397688 0.0
-0.0490902 0.0343597 0.0
-0.0455994 0.0292955 0.0
-0.0420203 0.0245779 0.0
-0.0383381 0.0202106 0.0
-0.034535 0.0162006 0.0
-0.0305906 0.0125589 0.0
-0.0264833 0.0093026 0.0
-0.0221911 0.00645586 0.0
-0.0176925 0.00405289 0.0
-0.0129673 0.00213267 0.0
-0.00799632 0.000752006 0.0
-0.00276085 0.000102955 0.0
0.874246 0.001956 0.0
0.640052 0.0151543 0.0
0.4462 0.0398344 0.0
0.296525 0.0673377 0.0
0.185765 0.0943735 0.0
0.10589 0.118917 0.0
0.0491443 0.140009 0.0
0.00912513 0.157398 0.0
-0.0190277 0.171153 0.0
-0.0387921 0.181426 0.0
-0.0528823 0.188652 0.0
-0.0631552 0.193208 0.0
-0.0708519 0.195441 0.0
-0.0767845 0.19566 0.0
-0.0814722 0.19414 0.0
-0.0852367 0.191124 0.0
-0.0882698 0.186831 0.0
-0.0906804 0.181458 0.0
-0.0925266 0.175187 0.0
-0.093838 0.168183 0.0
-0.0946308 0.1606 0.0
-0.0949171 0.15258 0.0
-0.0947112 0.144251 0.0
-0.0940323 0.135729 0.0
-0.0929063 0.12712 0.0
-0.091365 0.118513 0.0
-0.0894458 0.109989 0.0
-0.0871895 0.101615 0.0
-0.0846389 0.0934453 0.0
-0.0818366 0.0855246 0.0
-0.0788235 0.0778868 0.0
-0.0756371 0.0705572 0.0
-0.07231 0.0635533 0.0
-0.0688694 0.0568861 0.0
-0.0653359 0.0505615 0.0
-0.0617233 0.0445817 0.0
-0.0580388 0.0389462 0.0
-0.0542825 0.0336534 0.0
-0.0504482 0.0287017 0.0
-0.0465238 0.0240905 0.0
-0.042492 0.0198215 0.0
-0.0383306 0.0158999 0.0
-0.0340143 0.0123357 0.0
-0.0295147 0.00914506 0.0
-0.0248011 0.00635199 0.0
-0.0198418 0.00399093 0.0
-0.0146036 0.00210153 0.0
-0.00905193 0.000741389 0.0
-0.00314965 0.000101526 0.0
0.881614 0.0016857 0.0
0.658743 0.0133864 0.0
0.470891 0.0356797 0.0
0.322846 0.0610615 0.0
0.210915 0.0865127 0.0
0.128362 0.110061 0.0
0.0682883 0.130686 0.0
0.024788 0.148019 0.0
-0.00677443 0.162063 0.0
-0.0297058 0.17286 0.0
-0.0466211 0.18071 0.0
-0.0593843 0.185936 0.0
-0.0692632 0.188837 0.0
-0.0770996 0.189691 0.0
-0.0834403 0.18875 0.0
-0.0886306 0.186247 0.0
-0.092882 0.182395 0.0
-0.0963196 0.177393 0.0
-0.0990157 0.171426 0.0
-0.101013 0.164669 0.0
-0.102339 0.157283 0.0
-0.103019 0.14942 0.0
-0.103079 0.141218 0.0
-0.10255 0.132802 0.0
-0.101473 0.124286 0.0
-0.099891 0.115768 0.0
-0.0978555 0.107334 0.0
-0.0954197 0.0990556 0.0
-0.0926384 0.0909904 0.0
-0.0895655 0.0831849 0.0
-0.0862518 0.075674 0.0
-0.0827435 0.0684828 0.0
-0.0790809 0.0616276 0.0
-0.0752972 0.0551177 0.0
-0.0714176 0.0489568 0.0
-0.0674593 0.0431445 0.0
-0.0634314 0.0376777 0.0
-0.0593346 0.0325519 0.0
-0.0551623 0.0277626 0.0
-0.0509005 0.0233066 0.0
-0.0465286 0.0191832 0.0
-0.0420207 0.0153955 0.0
-0.0373453 0.0119518 0.0
-0.0324668 0.00886678 0.0
-0.0273461 0.00616345 0.0
-0.0219402 0.00387554 0.0
-0.0162031 0.00204237 0.0
-0.0100848 0.000721082 0.0
-0.00353033 9.8866e-05 0.0
0.888147 0.00147405 0.0
0.675558 0.0119328 0.0
0.493502 0.0321768 0.0
0.347391 0.0556557 0.0
0.234786 0.0796095 0.0
0.150064 0.102139 0.0
0.0871034 0.122192 0.0
0.0404789 0.139319 0.0
0.00582526 0.153424 0.0
-0.0201427 0.164566 0.0
-0.0398043 0.172855 0.0
-0.0550286 0.178581 0.0
-0.067098 0.181997 0.0
-0.0768727 0.183348 0.0
-0.0849173 0.182869 0.0
-0.091593 0.180778 0.0
-0.097125 0.177283 0.0
-0.10165 0.172584 0.0
-0.105252 0.166868 0.0
-0.107982 0.160316 0.0
-0.109881 0.153098 0.0
-0.110984 0.145374 0.0
-0.11133 0.13729 0.0
-0.110965 0.128981 0.0
-0.109941 0.120568 0.0
-0.108317 0.112155 0.0
-0.106159 0.103834 0.0
-0.103534 0.0956789 0.0
-0.10051 0.0877514 0.0
-0.0971534 0.0800986 0.0
-0.0935259 0.0727555 0.0
-0.0896838 0.0657461 0.0
-0.0856753 0.0590852 0.0
-0.0815403 0.0527798 0.0
-0.0773091 0.0468307 0.0
-0.0730024 0.0412346 0.0
-0.0686314 0.0359851 0.0
-0.0641976 0.0310746 0.0
-0.0596935 0.0264954 0.0
-0.0551032 0.0222413 0.0
-0.0504029 0.0183088 0.0
-0.0455619 0.0146984 0.0
-0.0405429 0.0114161 0.0
-0.0353029 0.00847465 0.0
-0.0297932 0.00589526 0.0
-0.0239602 0.00371003 0.0
-0.0177446 0.00195698 0.0
-0.0110815 0.000691732 0.0
-0.00389812 9.50634e-05 0.0
0.893989 0.00130301 0.0
0.690777 0.0107152 0.0
0.514282 0.0291812 0.0
0.370306 0.0509457 0.0
0.257417 0.0734898 0.0
0.170947 0.0949998 0.0
0.105475 0.114413 0.0
0.0560251 0.131224 0.0
0.0184937 0.145257 0.0
-0.0102926 0.15654 0.0
-0.0326028 0.165107 0.0
-0.0502443 0.171175 0.0
-0.064497 0.174961 0.0
-0.0762284 0.176681 0.0
-0.0860117 0.176548 0.0
-0.0942168 0.174769 0.0
-0.101077 0.171547 0.0
-0.106736 0.167079 0.0
-0.111284 0.161557 0.0
-0.114784 0.155165 0.0
-0.117283 0.148082 0.0
-0.118829 0.140474 0.0
-0.119472 0.132498 0.0
-0.119274 0.124294 0.0
-0.1183 0.115991 0.0
-0.116626 0.107699 0.0