# vtk DataFile Version 3.0
Malha 2D com triângulos e temperatura
ASCII
DATASET UNSTRUCTURED_GRID

POINTS 2500 double
0 0 0
1 0 0
1 1 0
0 1 0
0.0204082 0 0
0.0408163 0 0
0.0612245 0 0
0.0816327 0 0
0.102041 0 0
0.122449 0 0
0.142857 0 0
0.163265 0 0
0.183673 0 0
0.204082 0 0
0.22449 0 0
0.244898 0 0
0.265306 0 0
0.285714 0 0
0.306122 0 0
0.326531 0 0
0.346939 0 0
0.367347 0 0
0.387755 0 0
0.408163 0 0
0.428571 0 0
0.44898 0 0
0.469388 0 0
0.489796 0 0
0.510204 0 0
0.530612 0 0
0.55102 0 0
0.571429 0 0
0.591837 0 0
0.612245 0 0
0.632653 0 0
0.653061 0 0
0.673469 0 0
0.693878 0 0
0.714286 0 0
0.734694 0 0
0.755102 0 0
0.77551 0 0
0.795918 0 0
0.816327 0 0
0.836735 0 0
0.857143 0 0
0.877551 0 0
0.897959 0 0
0.918367 0 0
0.938776 0 0
0.959184 0 0
0.979592 0 0
1 0.0204082 0
1 0.0408163 0
1 0.0612245 0
1 0.0816327 0
1 0.102041 0
1 0.122449 0
1 0.142857 0
1 0.163265 0
1 0.183673 0
1 0.204082 0
1 0.22449 0
1 0.244898 0
1 0.265306 0
1 0.285714 0
1 0.306122 0
1 0.326531 0
1 0.346939 0
1 0.367347 0
1 0.387755 0
1 0.408163 0
1 0.428571 0
1 0.44898 0
1 0.469388 0
1 0.489796 0
1 0.510204 0
1 0.530612 0
1 0.55102 0
1 0.571429 0
1 0.591837 0
1 0.612245 0
1 0.632653 0
1 0.653061 0
1 0.673469 0
1 0.693878 0
1 0.714286 0
1 0.734694 0
1 0.755102 0
1 0.77551 0
1 0.795918 0
1 0.816327 0
1 0.836735 0
1 0.857143 0
1 0.877551 0
1 0.897959 0
1 0.918367 0
1 0.938776 0
1 0.959184 0
1 0.979592 0
0.979592 1 0
0.959184 1 0
0.938776 1 0
0.918367 1 0
0.897959 1 0
0.877551 1 0
0.857143 1 0
0.836735 1 0
0.816327 1 0
0.795918 1 0
0.77551 1 0
0.755102 1 0
0.734694 1 0
0.714286 1 0
0.693878 1 0
0.673469 1 0
0.653061 1 0
0.632653 1 0
0.612245 1 0
0.591837 1 0
0.571429 1 0
0.55102 1 0
0.530612 1 0
0.510204 1 0
0.489796 1 0
0.469388 1 0
0.44898 1 0
0.428571 1 0
0.408163 1 0
0.387755 1 0
0.367347 1 0
0.346939 1 0
0.326531 1 0
0.306122 1 0
0.285714 1 0
0.265306 1 0
0.244898 1 0
0.22449 1 0
0.204082 1 0
0.183673 1 0
0.163265 1 0
0.142857 1 0
0.122449 1 0
0.102041 1 0
0.0816327 1 0
0.0612245 1 0
0.0408163 1 0
0.0204082 1 0
0 0.979592 0
0 0.959184 0
0 0.938776 0
0 0.918367 0
0 0.897959 0
0 0.877551 0
0 0.857143 0
0 0.836735 0
0 0.816327 0
0 0.795918 0
0 0.77551 0
0 0.755102 0
0 0.734694 0
0 0.714286 0
0 0.693878 0
0 0.673469 0
0 0.653061 0
0 0.632653 0
0 0.612245 0
0 0.591837 0
0 0.571429 0
0 0.55102 0
0 0.530612 0
0 0.510204 0
0 0.489796 0
0 0.469388 0
0 0.44898 0
0 0.428571 0
0 0.408163 0
0 0.387755 0
0 0.367347 0
0 0.346939 0
0 0.326531 0
0 0.306122 0
0 0.285714 0
0 0.265306 0
0 0.244898 0
0 0.22449 0
0 0.204082 0
0 0.183673 0
0 0.163265 0
0 0.142857 0
0 0.122449 0
0 0.102041 0
0 0.0816327 0
0 0.0612245 0
0 0.0408163 0
0 0.0204082 0
0.0204082 0.979592 0
0.0204082 0.959184 0
0.0204082 0.938776 0
0.0204082 0.918367 0
0.0204082 0.897959 0
0.0204082 0.877551 0
0.0204082 0.857143 0
0.0204082 0.836735 0
0.0204082 0.816327 0
0.0204082 0.795918 0
0.0204082 0.77551 0
0.0204082 0.755102 0
0.0204082 0.734694 0
0.0204082 0.714286 0
0.0204082 0.693878 0
0.0204082 0.673469 0
0.0204082 0.653061 0
0.0204082 0.632653 0
0.0204082 0.612245 0
0.0204082 0.591837 0
0.0204082 0.571429 0
0.0204082 0.55102 0
0.0204082 0.530612 0
0.0204082 0.510204 0
0.0204082 0.489796 0
0.0204082 0.469388 0
0.0204082 0.44898 0
0.0204082 0.428571 0
0.0204082 0.408163 0
0.0204082 0.387755 0
0.0204082 0.367347 0
0.0204082 0.346939 0
0.0204082 0.326531 0
0.0204082 0.306122 0
0.0204082 0.285714 0
0.0204082 0.265306 0
0.0204082 0.244898 0
0.0204082 0.22449 0
0.0204082 0.204082 0
0.0204082 0.183673 0
0.0204082 0.163265 0
0.0204082 0.142857 0
0.0204082 0.122449 0
0.0204082 0.102041 0
0.0204082 0.0816327 0
0.0204082 0.0612245 0
0.0204082 0.0408163 0
0.0204082 0.0204082 0
0.0408163 0.979592 0
0.0408163 0.959184 0
0.0408163 0.938776 0
0.0408163 0.918367 0
0.0408163 0.897959 0
0.0408163 0.877551 0
0.0408163 0.857143 0
0.0408163 0.836735 0
0.0408163 0.816327 0
0.0408163 0.795918 0
0.0408163 0.77551 0
0.0408163 0.755102 0
0.0408163 0.734694 0
0.0408163 0.714286 0
0.0408163 0.693878 0
0.0408163 0.673469 0
0.0408163 0.653061 0
0.0408163 0.632653 0
0.0408163 0.612245 0
0.0408163 0.591837 0
0.0408163 0.571429 0
0.0408163 0.55102 0
0.0408163 0.530612 0
0.0408163 0.510204 0
0.0408163 0.489796 0
0.0408163 0.469388 0
0.0408163 0.44898 0
0.0408163 0.428571 0
0.0408163 0.408163 0
0.0408163 0.387755 0
0.0408163 0.367347 0
0.0408163 0.346939 0
0.0408163 0.326531 0
0.0408163 0.306122 0
0.0408163 0.285714 0
0.0408163 0.265306 0
0.0408163 0.244898 0
0.0408163 0.22449 0
0.0408163 0.204082 0
0.0408163 0.183673 0
0.0408163 0.163265 0
0.0408163 0.142857 0
0.0408163 0.122449 0
0.0408163 0.102041 0
0.0408163 0.0816327 0
0.0408163 0.0612245 0
0.0408163 0.0408163 0
0.0408163 0.0204082 0
0.0612245 0.979592 0
0.0612245 0.959184 0
0.0612245 0.938776 0
0.0612245 0.918367 0
0.0612245 0.897959 0
0.0612245 0.877551 0
0.0612245 0.857143 0
0.0612245 0.836735 0
0.0612245 0.816327 0
0.0612245 0.795918 0
0.0612245 0.77551 0
0.0612245 0.755102 0
0.0612245 0.734694 0
0.0612245 0.714286 0
0.0612245 0.693878 0
0.0612245 0.673469 0
0.0612245 0.653061 0
0.0612245 0.632653 0
0.0612245 0.612245 0
0.0612245 0.591837 0
0.0612245 0.571429 0
0.0612245 0.55102 0
0.0612245 0.530612 0
0.0612245 0.510204 0
0.0612245 0.489796 0
0.0612245 0.469388 0
0.0612245 0.44898 0
0.0612245 0.428571 0
0.0612245 0.408163 0
0.0612245 0.387755 0
0.0612245 0.367347 0
0.0612245 0.346939 0
0.0612245 0.326531 0
0.0612245 0.306122 0
0.0612245 0.285714 0
0.0612245 0.265306 0
0.0612245 0.244898 0
0.0612245 0.22449 0
0.0612245 0.204082 0
0.0612245 0.183673 0
0.0612245 0.163265 0
0.0612245 0.142857 0
0.0612245 0.122449 0
0.0612245 0.102041 0
0.0612245 0.0816327 0
0.0612245 0.0612245 0
0.0612245 0.0408163 0
0.0612245 0.0204082 0
0.0816327 0.979592 0
0.0816327 0.959184 0
0.0816327 0.938776 0
0.0816327 0.918367 0
0.0816327 0.897959 0
0.0816327 0.877551 0
0.0816327 0.857143 0
0.0816327 0.836735 0
0.0816327 0.816327 0
0.0816327 0.795918 0
0.0816327 0.77551 0
0.0816327 0.755102 0
0.0816327 0.734694 0
0.0816327 0.714286 0
0.0816327 0.693878 0
0.0816327 0.673469 0
0.0816327 0.653061 0
0.0816327 0.632653 0
0.0816327 0.612245 0
0.0816327 0.591837 0
0.0816327 0.571429 0
0.0816327 0.55102 0
0.0816327 0.530612 0
0.0816327 0.510204 0
0.0816327 0.489796 0
0.0816327 0.469388 0
0.0816327 0.44898 0
0.0816327 0.428571 0
0.0816327 0.408163 0
0.0816327 0.387755 0
0.0816327 0.367347 0
0.0816327 0.346939 0
0.0816327 0.326531 0
0.0816327 0.306122 0
0.0816327 0.285714 0
0.0816327 0.265306 0
0.0816327 0.244898 0
0.0816327 0.22449 0
0.0816327 0.204082 0
0.0816327 0.183673 0
0.0816327 0.163265 0
0.0816327 0.142857 0
0.0816327 0.122449 0
0.0816327 0.102041 0
0.0816327 0.0816327 0
0.0816327 0.0612245 0
0.0816327 0.0408163 0
0.0816327 0.0204082 0
0.102041 0.979592 0
0.102041 0.959184 0
0.102041 0.938776 0
0.102041 0.918367 0
0.102041 0.897959 0
0.102041 0.877551 0
0.102041 0.857143 0
0.102041 0.836735 0
0.102041 0.816327 0
0.102041 0.795918 0
0.102041 0.77551 0
0.102041 0.755102 0
0.102041 0.734694 0
0.102041 0.714286 0
0.102041 0.693878 0
0.102041 0.673469 0
0.102041 0.653061 0
0.102041 0.632653 0
0.102041 0.612245 0
0.102041 0.591837 0
0.102041 0.571429 0
0.102041 0.55102 0
0.102041 0.530612 0
0.102041 0.510204 0
0.102041 0.489796 0
0.102041 0.469388 0
0.102041 0.44898 0
0.102041 0.428571 0
0.102041 0.408163 0
0.102041 0.387755 0
0.102041 0.367347 0
0.102041 0.346939 0
0.102041 0.326531 0
0.102041 0.306122 0
0.102041 0.285714 0
0.102041 0.265306 0
0.102041 0.244898 0
0.102041 0.22449 0
0.102041 0.204082 0
0.102041 0.183673 0
0.102041 0.163265 0
0.102041 0.142857 0
0.102041 0.122449 0
0.102041 0.102041 0
0.102041 0.0816327 0
0.102041 0.0612245 0
0.102041 0.0408163 0
0.102041 0.0204082 0
0.122449 0.979592 0
0.122449 0.959184 0
0.122449 0.938776 0
0.122449 0.918367 0
0.122449 0.897959 0
0.122449 0.877551 0
0.122449 0.857143 0
0.122449 0.836735 0
0.122449 0.816327 0
0.122449 0.795918 0
0.122449 0.77551 0
0.122449 0.755102 0
0.122449 0.734694 0
0.122449 0.714286 0
0.122449 0.693878 0
0.122449 0.673469 0
0.122449 0.653061 0
0.122449 0.632653 0
0.122449 0.612245 0
0.122449 0.591837 0
0.122449 0.571429 0
0.122449 0.55102 0
0.122449 0.530612 0
0.122449 0.510204 0
0.122449 0.489796 0
0.122449 0.469388 0
0.122449 0.44898 0
0.122449 0.428571 0
0.122449 0.408163 0
0.122449 0.387755 0
0.122449 0.367347 0
0.122449 0.346939 0
0.122449 0.326531 0
0.122449 0.306122 0
0.122449 0.285714 0
0.122449 0.265306 0
0.122449 0.244898 0
0.122449 0.22449 0
0.122449 0.204082 0
0.122449 0.183673 0
0.122449 0.163265 0
0.122449 0.142857 0
0.122449 0.122449 0
0.122449 0.102041 0
0.122449 0.0816327 0
0.122449 0.0612245 0
0.122449 0.0408163 0
0.122449 0.0204082 0
0.142857 0.979592 0
0.142857 0.959184 0
0.142857 0.938776 0
0.142857 0.918367 0
0.142857 0.897959 0
0.142857 0.877551 0
0.142857 0.857143 0
0.142857 0.836735 0
0.142857 0.816327 0
0.142857 0.795918 0
0.142857 0.77551 0
0.142857 0.755102 0
0.142857 0.734694 0
0.142857 0.714286 0
0.142857 0.693878 0
0.142857 0.673469 0
0.142857 0.653061 0
0.142857 0.632653 0
0.142857 0.612245 0
0.142857 0.591837 0
0.142857 0.571429 0
0.142857 0.55102 0
0.142857 0.530612 0
0.142857 0.510204 0
0.142857 0.489796 0
0.142857 0.469388 0
0.142857 0.44898 0
0.142857 0.428571 0
0.142857 0.408163 0
0.142857 0.387755 0
0.142857 0.367347 0
0.142857 0.346939 0
0.142857 0.326531 0
0.142857 0.306122 0
0.142857 0.285714 0
0.142857 0.265306 0
0.142857 0.244898 0
0.142857 0.22449 0
0.142857 0.204082 0
0.142857 0.183673 0
0.142857 0.163265 0
0.142857 0.142857 0
0.142857 0.122449 0
0.142857 0.102041 0
0.142857 0.0816327 0
0.142857 0.0612245 0
0.142857 0.0408163 0
0.142857 0.0204082 0
0.163265 0.979592 0
0.163265 0.959184 0
0.163265 0.938776 0
0.163265 0.918367 0
0.163265 0.897959 0
0.163265 0.877551 0
0.163265 0.857143 0
0.163265 0.836735 0
0.163265 0.816327 0
0.163265 0.795918 0
0.163265 0.77551 0
0.163265 0.755102 0
0.163265 0.734694 0
0.163265 0.714286 0
0.163265 0.693878 0
0.163265 0.673469 0
0.163265 0.653061 0
0.163265 0.632653 0
0.163265 0.612245 0
0.163265 0.591837 0
0.163265 0.571429 0
0.163265 0.55102 0
[...]
CELL_DATA 2401
VECTORS velocity double
0.257354 0.157462 0.0
-0.00263465 0.264696 0.0
-0.0321835 0.205846 0.0
-0.0252498 0.151286 0.0
-0.0159594 0.114014 0.0
-0.00965579 0.088789 0.0
-0.00593964 0.0716853 0.0
-0.00380748 0.0598007 0.0
-0.00256569 0.0512507 0.0
-0.00181732 0.0448816 0.0
-0.00134743 0.0399792 0.0
-0.00104045 0.0360899 0.0
-0.000832921 0.0329165 0.0
-0.000688683 0.0302587 0.0
-0.000586191 0.0279782 0.0
-0.000512019 0.0259773 0.0
-0.000457447 0.0241865 0.0
-0.000416613 0.0225558 0.0
-0.000385465 0.0210488 0.0
-0.000361145 0.0196395 0.0
-0.000341607 0.0183091 0.0
-0.000325376 0.0170444 0.0
-0.000311386 0.015836 0.0
-0.000298872 0.0146776 0.0
-0.00028729 0.013565 0.0
-0.000276263 0.0124955 0.0
-0.000265539 0.0114674 0.0
-0.000254955 0.0104799 0.0
-0.000244414 0.00953251 0.0
-0.000233863 0.00862506 0.0
-0.000223278 0.00775756 0.0
-0.000212649 0.00693012 0.0
-0.000201968 0.00614289 0.0
-0.000191223 0.00539609 0.0
-0.000180388 0.00469003 0.0
-0.000169418 0.00402515 0.0
-0.000158243 0.00340211 0.0
-0.000146764 0.00282184 0.0
-0.000134841 0.00228566 0.0
-0.000122296 0.00179536 0.0
-0.000108893 0.00135331 0.0
-9.43402e-05 0.000962544 0.0
-7.82773e-05 0.000626885 0.0
-6.03028e-05 0.000350901 0.0
-4.00692e-05 0.00013973 0.0
-1.76206e-05 -1.56448e-06 0.0
5.67476e-06 -6.96994e-05 0.0
2.51439e-05 -6.92725e-05 0.0
2.67475e-05 -2.66442e-05 0.0
0.340717 0.12303 0.0
-0.000262557 0.249808 0.0
-0.0647226 0.272534 0.0
-0.0627698 0.253574 0.0
-0.0482052 0.223414 0.0
-0.0349076 0.193641 0.0
-0.0251403 0.168004 0.0
-0.0183763 0.147 0.0
-0.0137458 0.130049 0.0
-0.0105523 0.116353 0.0
-0.0083173 0.105175 0.0
-0.00672783 0.0959182 0.0
-0.00558021 0.088118 0.0
-0.00474035 0.0814233 0.0
-0.00411818 0.0755704 0.0
-0.00365186 0.0703619 0.0
-0.00329805 0.0656504 0.0
-0.00302582 0.0613261 0.0
-0.00281275 0.0573077 0.0
-0.00264245 0.0535351 0.0
-0.00250279 0.0499644 0.0
-0.00238483 0.046564 0.0
-0.00228197 0.0433116 0.0
-0.00218934 0.0401915 0.0
-0.00210345 0.0371932 0.0
-0.00202181 0.0343101 0.0
-0.00194269 0.0315378 0.0
-0.00186494 0.028874 0.0
-0.00178782 0.0263175 0.0
-0.00171089 0.0238677 0.0
-0.00163388 0.0215248 0.0
-0.00155663 0.019289 0.0
-0.00147901 0.0171608 0.0
-0.00140087 0.0151409 0.0
-0.00132197 0.0132302 0.0
-0.00124198 0.0114302 0.0
-0.00116043 0.00974256 0.0
-0.00107671 0.00816996 0.0
-0.000990006 0.00671579 0.0
-0.000899364 0.00538451 0.0
-0.000803645 0.00418179 0.0
-0.000701594 0.00311452 0.0
-0.000591958 0.0021908 0.0
-0.000473768 0.00141947 0.0
-0.000346992 0.000809256 0.0
-0.000214042 0.000366817 0.0
-8.30112e-05 9.28388e-05 0.0
2.67433e-05 -2.57583e-05 0.0
6.89827e-05 -2.45093e-05 0.0
0.501243 0.0769077 0.0
0.0999629 0.183749 0.0
-0.0383078 0.25033 0.0
-0.0725271 0.267275 0.0
-0.0714152 0.259186 0.0
-0.0607065 0.24128 0.0
-0.0491022 0.220771 0.0
-0.0391437 0.200947 0.0
-0.0312591 0.183054 0.0
-0.0252174 0.167369 0.0
-0.0206464 0.153753 0.0
-0.0171998 0.14192 0.0
-0.0145981 0.131565 0.0
-0.012627 0.122406 0.0
-0.0111258 0.114203 0.0
-0.00997452 0.106763 0.0
-0.00908369 0.0999298 0.0
-0.0083862 0.0935839 0.0
-0.00783157 0.0876325 0.0
-0.00738173 0.0820058 0.0
-0.00700794 0.0766516 0.0
-0.00668852 0.0715321 0.0
-0.00640725 0.0666203 0.0
-0.00615208 0.0618972 0.0
-0.00591417 0.0573505 0.0
-0.00568722 0.0529721 0.0
-0.00546679 0.0487572 0.0
-0.00524991 0.0447034 0.0
-0.00503464 0.0408096 0.0
-0.00481978 0.0370757 0.0
-0.0046046 0.033502 0.0
-0.00438862 0.0300895 0.0
-0.00417144 0.0268391 0.0
-0.00395261 0.0237521 0.0
-0.00373148 0.0208302 0.0
-0.00350717 0.0180755 0.0
-0.00327845 0.0154908 0.0
-0.00304374 0.0130799 0.0
-0.0028011 0.0108476 0.0
-0.00254823 0.00880026 0.0
-0.00228261 0.00694533 0.0
-0.00200167 0.0052918 0.0
-0.00170325 0.00384976 0.0
-0.00138638 0.00262967 0.0
-0.00105288 0.00164107 0.0
-0.000710293 0.000890424 0.0
-0.000377449 0.000376268 0.0
-9.23012e-05 8.42198e-05 0.0
6.79884e-05 -4.49428e-06 0.0
0.610698 0.0481532 0.0
0.197016 0.134475 0.0
0.0128949 0.210406 0.0
-0.0569099 0.247733 0.0
-0.0756845 0.258248 0.0
-0.0743079 0.2544 0.0
-0.0660749 0.243339 0.0
-0.0564671 0.229322 0.0
-0.0475716 0.214653 0.0
-0.0400307 0.200454 0.0
-0.0339002 0.187197 0.0
-0.0290226 0.175012 0.0
-0.0251849 0.163865 0.0
-0.0221805 0.153646 0.0
-0.0198306 0.144228 0.0
-0.017988 0.135485 0.0
-0.0165346 0.127304 0.0
-0.0153768 0.119593 0.0
-0.0144413 0.112275 0.0
-0.0136712 0.105292 0.0
-0.013022 0.0985985 0.0
-0.0124598 0.0921618 0.0
-0.0119587 0.0859587 0.0
-0.0114993 0.0799734 0.0
-0.0110672 0.0741957 0.0
-0.0106522 0.06862 0.0
-0.010247 0.0632431 0.0
-0.00984681 0.0580644 0.0
-0.00944838 0.0530842 0.0
-0.00904982 0.0483035 0.0
-0.00864997 0.0437241 0.0
-0.00824807 0.0393474 0.0
-0.00784347 0.0351755 0.0
-0.00743542 0.0312102 0.0
-0.00702281 0.027454 0.0
-0.00660413 0.0239096 0.0
-0.00617727 0.0205807 0.0
-0.00573958 0.0174717 0.0
-0.00528781 0.0145884 0.0
-0.00481825 0.0119379 0.0
-0.00432698 0.00952866 0.0
-0.00381023 0.00737051 0.0
-0.00326522 0.0054742 0.0
-0.00269147 0.00385062 0.0
-0.00209314 0.00250956 0.0
-0.001483 0.00145791 0.0
-0.000889117 0.000694863 0.0
-0.000363308 0.000211077 0.0
-1.24728e-06 1.87372e-05 0.0
0.681352 0.0302454 0.0
0.280169 0.0985792 0.0
0.071377 0.171674 0.0
-0.0263482 0.218225 0.0
-0.0652323 0.241371 0.0
-0.0760364 0.249126 0.0
-0.0744117 0.247395 0.0
-0.0679472 0.240306 0.0
-0.060191 0.230486 0.0
-0.0527093 0.2195 0.0
-0.046109 0.20823 0.0
-0.0405456 0.197142 0.0
-0.0359743 0.186453 0.0
-0.0322719 0.176243 0.0
-0.0292951 0.166517 0.0
-0.0269061 0.157244 0.0
-0.0249831 0.148379 0.0
-0.0234228 0.139878 0.0
-0.0221401 0.131698 0.0
-0.021066 0.123805 0.0
-0.0201455 0.116173 0.0
-0.0193356 0.108783 0.0
-0.0186028 0.101623 0.0
-0.017922 0.094683 0.0
-0.0172744 0.0879613 0.0
-0.0166465 0.0814567 0.0
-0.0160288 0.0751704 0.0
-0.0154151 0.0691051 0.0
-0.0148015 0.0632638 0.0
-0.0141857 0.0576499 0.0
-0.0135663 0.0522665 0.0
-0.0129425 0.0471169 0.0
-0.0123137 0.0422038 0.0
-0.0116789 0.0375303 0.0
-0.0110366 0.0330993 0.0
-0.0103847 0.0289142 0.0
-0.00972038 0.024979 0.0
-0.00903977 0.0212987 0.0
-0.0083384 0.0178793 0.0
-0.0076112 0.0147282 0.0
-0.00685289 0.0118542 0.0
-0.00605868 0.00926732 0.0
-0.00522528 0.00697832 0.0
-0.0043527 0.00499835 0.0
-0.00344703 0.00333781 0.0
-0.00252483 0.00200546 0.0
-0.00161995 0.00100385 0.0
-0.000791279 0.000332722 0.0
-0.000140187 4.00066e-05 0.0
0.730927 0.0192342 0.0
0.350919 0.0732522 0.0
0.129728 0.139564 0.0
0.0121081 0.188276 0.0
-0.0449398 0.219001 0.0
-0.0684669 0.235052 0.0
-0.0749935 0.24098 0.0
-0.0734158 0.240288 0.0
-0.0683899 0.235491 0.0
-0.0622855 0.228276 0.0
-0.0562509 0.219729 0.0
-0.0507899 0.210522 0.0
-0.0460734 0.201059 0.0
-0.0421072 0.191572 0.0
-0.0388217 0.182186 0.0
-0.0361185 0.172965 0.0
-0.0338944 0.163936 0.0
-0.032053 0.155109 0.0
-0.0305093 0.146483 0.0
-0.0291913 0.138057 0.0
-0.0280398 0.129829 0.0
-0.0270072 0.121798 0.0
-0.026056 0.113967 0.0
-0.0251576 0.10634 0.0
-0.0242908 0.0989237 0.0
-0.0234404 0.0917242 0.0
-0.0225961 0.0847491 0.0
-0.021751 0.0780056 0.0
-0.0209013 0.0715008 0.0
-0.0200449 0.0652409 0.0
-0.0191808 0.0592315 0.0
-0.0183087 0.0534774 0.0
-0.0174281 0.047983 0.0
-0.0165381 0.0427519 0.0
-0.0156372 0.0377879 0.0
-0.0147228 0.0330948 0.0
-0.0137912 0.0286769 0.0
-0.0128379 0.024539 0.0
-0.0118569 0.0206874 0.0
-0.0108421 0.0171292 0.0
-0.00978683 0.0138731 0.0
-0.00868522 0.0109288 0.0
-0.00753336 0.00830744 0.0
-0.00633126 0.00602039 0.0
-0.00508582 0.00407949 0.0
-0.00381519 0.00249665 0.0
-0.00255496 0.00127972 0.0
-0.00136461 0.000439254 0.0
-0.000341161 5.76487e-05 0.0
0.766996 0.0125901 0.0
0.410348 0.0556969 0.0
0.184469 0.114336 0.0
0.0530071 0.161878 0.0
-0.018767 0.196087 0.0
-0.0542119 0.217564 0.0
-0.0692933 0.229188 0.0
-0.0735053 0.233758 0.0
-0.0722411 0.233466 0.0
-0.0684924 0.229924 0.0
-0.0638747 0.22426 0.0
-0.0592215 0.217246 0.0
-0.0549277 0.209394 0.0
-0.0511464 0.201043 0.0
-0.0479023 0.192412 0.0
-0.0451558 0.18364 0.0
-0.0428391 0.174822 0.0
-0.0408759 0.166016 0.0
-0.0391921 0.157267 0.0
-0.0377209 0.148605 0.0
-0.0364052 0.140054 0.0
-0.0351977 0.131638 0.0
-0.0340608 0.123375 0.0
-0.0329656 0.115283 0.0
-0.0318909 0.107381 0.0
-0.0308216 0.0996844 0.0
-0.0297479 0.0922074 0.0
-0.0286639 0.0849635 0.0
-0.0275667 0.0779642 0.0
-0.0264554 0.0712195 0.0
-0.0253301 0.0647377 0.0
-0.0241914 0.0585256 0.0
-0.0230395 0.0525889 0.0
-0.0218741 0.0469324 0.0
-0.0206939 0.0415603 0.0
-0.019496 0.0364766 0.0
-0.0182764 0.0316856 0.0
-0.0170294 0.0271921 0.0
-0.0157484 0.0230019 0.0
-0.0144256 0.0191218 0.0
-0.0130533 0.0155601 0.0
-0.0116243 0.0123264 0.0
-0.0101337 0.00943177 0.0
-0.00858053 0.00688857 0.0
-0.00697112 0.0047106 0.0
-0.00532269 0.00291382 0.0
-0.00366872 0.00151225 0.0
-0.0020639 0.000527322 0.0
-0.000594016 7.15016e-05 0.0
0.793968 0.00856269 0.0
0.460179 0.0434067 0.0
0.234437 0.0947229 0.0
0.0937626 0.139589 0.0
0.0107152 0.174602 0.0
-0.0354523 0.199405 0.0
-0.0588636 0.215022 0.0
-0.0691874 0.223659 0.0
-0.0722573 0.22712 0.0
-0.0715127 0.226839 0.0
-0.0689418 0.223901 0.0
-0.0656636 0.219092 0.0
-0.0622807 0.212977 0.0
-0.0590931 0.205953 0.0
-0.0562266 0.198302 0.0
-0.0537095 0.190224 0.0
-0.0515191 0.181861 0.0
-0.0496083 0.17332 0.0
-0.0479219 0.164679 0.0
-0.0464048 0.156002 0.0
-0.0450073 0.14734 0.0
-0.0436874 0.138736 0.0
-0.0424108 0.130229 0.0
-0.0411514 0.121852 0.0
-0.0398903 0.113634 0.0
-0.0386149 0.105601 0.0
-0.0373175 0.0977766 0.0
-0.0359947 0.0901801 0.0
-0.0346458 0.0828283 0.0
-0.0332719 0.0757349 0.0
-0.0318752 0.0689113 0.0
-0.0304578 0.0623665 0.0
-0.0290216 0.0561076 0.0
-0.027567 0.0501401 0.0
-0.0260932 0.0444688 0.0
-0.0245977 0.0390978 0.0
-0.0230759 0.034031 0.0
-0.0215218 0.0292728 0.0
-0.0199274 0.0248285 0.0
-0.018284 0.0207044 0.0
-0.0165823 0.0169082 0.0
-0.0148136 0.0134494 0.0
-0.0129711 0.0103393 0.0
-0.0110523 0.00759128 0.0
-0.00906102 0.00522165 0.0
-0.00701131 0.00325067 0.0
-0.00493129 0.00169857 0.0
-0.00286684 0.000596676 0.0
-0.000888255 8.1918e-05 0.0
0.814797 0.00607675 0.0
0.502223 0.034651 0.0
0.279489 0.0794768 0.0
0.13295 0.121116 0.0
0.0411603 0.15562 0.0
-0.0139679 0.181974 0.0
-0.0450784 0.200245 0.0
-0.0614498 0.211869 0.0
-0.0690906 0.218301 0.0
-0.0717299 0.220765 0.0
-0.0716339 0.220241 0.0
-0.0701536 0.217486 0.0
-0.0680722 0.213067 0.0
-0.0658244 0.20741 0.0
-0.0636337 0.200832 0.0
-0.0615983 0.193571 0.0
-0.0597444 0.185807 0.0
-0.0580592 0.177682 0.0
-0.0565108 0.169305 0.0
-0.0550608 0.160768 0.0
-0.0536714 0.152146 0.0
-0.0523088 0.143503 0.0
-0.0509458 0.134894 0.0
-0.0495616 0.126368 0.0
-0.0481421 0.117967 0.0
-0.0466791 0.109727 0.0
-0.0451692 0.101679 0.0
-0.0436126 0.0938506 0.0
-0.0420123 0.0862629 0.0
-0.0403727 0.0789341 0.0
-0.0386988 0.0718784 0.0
-0.0369954 0.0651069 0.0
-0.0352661 0.0586281 0.0
-0.0335131 0.0524484 0.0
-0.0317364 0.0465726 0.0
-0.029934 0.0410045 0.0
-0.0281015 0.0357478 0.0
-0.026232 0.0308062 0.0
-0.0243169 0.0261842 0.0
-0.022346 0.0218873 0.0
-0.0203083 0.0179227 0.0
-0.0181932 0.0142996 0.0
-0.0159916 0.0110298 0.0
-0.0136979 0.0081277 0.0
-0.0113123 0.00561214 0.0
-0.0088433 0.00350749 0.0
-0.00631134 0.00183972 0.0
-0.00375073 0.000648437 0.0
-0.00121397 8.93755e-05 0.0
0.831372 0.00450186 0.0
0.538015 0.0282821 0.0
0.319943 0.0675294 0.0
0.169986 0.105838 0.0
0.0715537 0.139116 0.0
0.00915229 0.165815 0.0
-0.0289868 0.185773 0.0
-0.0511481 0.199515 0.0
-0.0633809 0.208229 0.0
-0.069587 0.212922 0.0
-0.0722315 0.214453 0.0
-0.0728455 0.213519 0.0
-0.0723616 0.210666 0.0
-0.0713317 0.206321 0.0
-0.0700683 0.200816 0.0
-0.068736 0.194411 0.0
-0.0674096 0.187312 0.0
-0.0661117 0.179685 0.0
-0.0648366 0.171665 0.0
-0.063565 0.163367 0.0
-0.0622735 0.154886 0.0
-0.0609399 0.146306 0.0
-0.0595461 0.137699 0.0
-0.0580792 0.129126 0.0
-0.0565321 0.120642 0.0
-0.054903 0.112294 0.0
-0.0531942 0.10412 0.0
-0.0514115 0.0961556 0.0
-0.0495627 0.0884266 0.0
-0.0476568 0.0809551 0.0
-0.0457026 0.0737584 0.0
-0.0437083 0.0668495 0.0
-0.0416803 0.0602379 0.0
-0.0396228 0.0539306 0.0
-0.0375373 0.0479323 0.0
-0.0354226 0.0422465 0.0
-0.0332743 0.036876 0.0
-0.0310855 0.0318237 0.0
-0.0288464 0.0270929 0.0
-0.0265456 0.0226885 0.0
-0.02417 0.0186169 0.0
-0.0217064 0.0148869 0.0
-0.0191429 0.0115105 0.0
-0.0164697 0.00850353 0.0
-0.0136819 0.00588672 0.0
-0.0107811 0.00368815 0.0
-0.0077781 0.00193862 0.0
-0.0046939 0.000684264 0.0
-0.00156221 9.43407e-05 0.0
0.844906 0.00347206 0.0
0.568779 0.0235488 0.0
0.356259 0.0580748 0.0
0.204631 0.0931973 0.0
0.101187 0.124904 0.0
0.0327313 0.151343 0.0
-0.0114635 0.172108 0.0
-0.0390038 0.187294 0.0
-0.0557019 0.197696 0.0
-0.0655184 0.204147 0.0
-0.0710454 0.207377 0.0
-0.0739473 0.208006 0.0
-0.0752749 0.206544 0.0
-0.075678 0.203402 0.0
-0.0755464 0.198912 0.0
-0.0751044 0.193344 0.0
-0.0744723 0.186919 0.0
-0.0737072 0.17982 0.0
-0.0728297 0.172201 0.0
-0.0718407 0.164197 0.0
-0.070733 0.155919 0.0
-0.0694974 0.147468 0.0
-0.068127 0.13893 0.0
-0.0666189 0.130382 0.0
-0.0649749 0.121888 0.0
-0.0632012 0.113506 0.0
-0.0613076 0.105282 0.0
-0.0593069 0.0972564 0.0
-0.0572132 0.0894615 0.0
-0.0550412 0.081923 0.0
-0.0528047 0.0746606 0.0
-0.0505161 0.0676891 0.0
-0.0481852 0.0610188 0.0
-0.0458189 0.0546567 0.0
-0.0434207 0.0486074 0.0
-0.0409905 0.0428734 0.0
-0.0385244 0.0374567 0.0
-0.0360151 0.0323589 0.0
-0.0334521 0.0275821 0.0
-0.0308221 0.0231301 0.0
-0.0281099 0.0190084 0.0
-0.0252995 0.0152254 0.0
-0.0223748 0.0117931 0.0
-0.0193215 0.00872799 0.0
-0.0161283 0.00605274 0.0
-0.0127887 0.00379821 0.0
-0.00930241 0.00199896 0.0
-0.00567628 0.00070592 0.0
-0.00192506 9.72214e-05 0.0
0.856202 0.00277383 0.0
0.595482 0.0199526 0.0
0.38893 0.0505016 0.0
0.236887 0.0826762 0.0
0.129739 0.112662 0.0
0.0563084 0.138466 0.0
0.00696823 0.159424 0.0
-0.0255619 0.175561 0.0
-0.0465318 0.187183 0.0
-0.0599144 0.194991 0.0
-0.0683786 0.199594 0.0
-0.0736833 0.201533 0.0
-0.0769698 0.201272 0.0
-0.0789667 0.199197 0.0
-0.0801286 0.195631 0.0
-0.0807312 0.190844 0.0
-0.0809354 0.185063 0.0
-0.0808301 0.178485 0.0
-0.0804607 0.171277 0.0
-0.0798486 0.163586 0.0
-0.0790031 0.155541 0.0
-0.0779292 0.147256 0.0
-0.0766326 0.138831 0.0
-0.0751218 0.130354 0.0
-0.073409 0.121901 0.0
-0.0715101 0.113538 0.0
-0.0694442 0.10532 0.0
-0.0672324 0.0972915 0.0
-0.0648965 0.0894909 0.0
-0.062458 0.0819468 0.0
-0.0599368 0.0746811 0.0
-0.0573504 0.06771 0.0
-0.0547129 0.0610441 0.0
-0.0520343 0.0546904 0.0
-0.0493207 0.0486526 0.0
-0.0465733 0.0429322 0.0
-0.043789 0.0375298 0.0
-0.0409601 0.0324455 0.0
-0.0380752 0.0276801 0.0
-0.0351193 0.0232357 0.0
-0.0320746 0.0191169 0.0
-0.0289217 0.0153313 0.0
-0.0256401 0.0118906 0.0
-0.0222098 0.00881172 0.0
-0.0186124 0.00611846 0.0
-0.0148322 0.00384366 0.0
-0.0108572 0.00202448 0.0
-0.00667968 0.000715056 0.0
-0.00229559 9.83536e-05 0.0
0.865807 0.00228231 0.0
0.618879 0.0171625 0.0
0.418422 0.0443615 0.0
0.266855 0.0738643 0.0
0.157024 0.102113 0.0
0.0794952 0.127074 0.0
0.0256681 0.147905 0.0
-0.0112897 0.164517 0.0
-0.0362725 0.176989 0.0
-0.0531151 0.185813 0.0
-0.0645091 0.191499 0.0
-0.0722731 0.194512 0.0
-0.0776142 0.195264 0.0
-0.0813215 0.194111 0.0
-0.0839018 0.191359 0.0
-0.0856737 0.187274 0.0
-0.0868326 0.182085 0.0
-0.0874953 0.175994 0.0
-0.0877302 0.169178 0.0
-0.0875778 0.161796 0.0
-0.0870638 0.15399 0.0
-0.086208 0.145885 0.0
-0.0850295 0.137595 0.0
-0.0835493 0.129218 0.0
-0.0817916 0.120839 0.0
-0.0797835 0.112533 0.0
-0.0775547 0.104361 0.0
-0.075136 0.0963757 0.0
-0.0725584 0.0886173 0.0
-0.0698513 0.0811179 0.0
-0.0670418 0.0739013 0.0
-0.0641533 0.0669843 0.0
-0.0612049 0.0603777 0.0
-0.0582105 0.0540877 0.0
-0.055179 0.0481169 0.0
-0.0521134 0.0424654 0.0
-0.0490112 0.037132 0.0
-0.0458649 0.0321151 0.0
-0.0426619 0.0274136 0.0
-0.0393852 0.0230281 0.0
-0.0360143 0.0189616 0.0
-0.0325257 0.0152207 0.0
-0.0288942 0.0118163 0.0
-0.0250935 0.00876536 0.0
-0.0210972 0.00609205 0.0
-0.01688 0.00383024 0.0
-0.0124177 0.00201864 0.0
-0.00768768 0.000713109 0.0
-0.00266772 9.80016e-05 0.0
0.874101 0.00192337 0.0
0.639562 0.0149545 0.0
0.44515 0.0393211 0.0
0.294689 0.0664246 0.0
0.182982 0.0929836 0.0
0.1021 0.116982 0.0
0.0443867 0.13747 0.0
0.00352228 0.154213 0.0
-0.0252347 0.167257 0.0
-0.0454046 0.176821 0.0
-0.0596826 0.183345 0.0
-0.0699216 0.187219 0.0
-0.0773738 0.188806 0.0
-0.0828732 0.188429 0.0
-0.0869667 0.186376 0.0
-0.0900068 0.182903 0.0
-0.0922174 0.178236 0.0
-0.0937389 0.17258 0.0
-0.0946597 0.166121 0.0
-0.0950378 0.159027 0.0
-0.0949146 0.151448 0.0
-0.0943248 0.143523 0.0
-0.0933014 0.135373 0.0
-0.0918789 0.127109 0.0
-0.0900946 0.118824 0.0
-0.0879884 0.110601 0.0
-0.0856017 0.102508 0.0
-0.0829768 0.0946001 0.0
-0.0801547 0.0869228 0.0
-0.0771743 0.0795103 0.0
-0.0740707 0.0723875 0.0
-0.0708743 0.0655715 0.0
-0.0676096 0.0590725 0.0
-0.0642953 0.0528957 0.0
-0.0609431 0.0470421 0.0
-0.0575582 0.0415099 0.0
-0.0541393 0.0362958 0.0
-0.0506785 0.031396 0.0
-0.0471622 0.0268074 0.0
-0.0435712 0.0225285 0.0
-0.039882 0.0185605 0.0
-0.0360669 0.0149086 0.0
-0.0320952 0.0115827 0.0
-0.0279339 0.00859878 0.0
-0.0235484 0.00598092 0.0
-0.0189029 0.00376307 0.0
-0.0139611 0.0019844 0.0
-0.00868545 0.000701253 0.0
-0.00303606 9.63641e-05 0.0
0.881356 0.00165207 0.0
0.657991 0.0131747 0.0
0.469474 0.0351324 0.0
0.320559 0.0600901 0.0
0.20761 0.0850417 0.0
0.123989 0.108026 0.0
0.0628997 0.128033 0.0
0.0185253 0.144709 0.0
-0.0136855 0.158053 0.0
-0.0370242 0.168132 0.0
-0.0541136 0.17528 0.0
-0.0668146 0.179826 0.0
-0.0764062 0.182083 0.0
-0.0837525 0.182343 0.0
-0.0894295 0.180872 0.0
-0.0938154 0.177913 0.0
-0.0971561 0.173691 0.0
-0.0996109 0.16841 0.0
-0.101285 0.162261 0.0
-0.102252 0.155419 0.0
-0.102569 0.148045 0.0
-0.102284 0.140286 0.0
-0.101444 0.132274 0.0
-0.100099 0.124127 0.0
-0.0983001 0.115948 0.0
-0.0961009 0.107826 0.0
-0.0935565 0.099834 0.0
-0.0907214 0.0920328 0.0
-0.0876485 0.0844698 0.0
-0.0843869 0.0771809 0.0
-0.0809809 0.0701916 0.0
-0.0774685 0.0635187 0.0
-0.0738807 0.0571715 0.0
-0.070241 0.0511533 0.0
-0.0665649 0.0454631 0.0
-0.0628597 0.0400969 0.0
-0.0591251 0.0350489 0.0
-0.0553533 0.0303128 0.0
-0.0515294 0.0258829 0.0
-0.047632 0.0217554 0.0
-0.0436341 0.0179296 0.0
-0.0395035 0.0144085 0.0
-0.0352039 0.0112006 0.0
-0.030695 0.00832056 0.0
-0.0259337 0.00579144 0.0
-0.0208739 0.00364642 0.0
-0.0154665 0.00192418 0.0
-0.00965949 0.000680404 0.0
-0.00339581 9.35819e-05 0.0
0.887772 0.0014404 0.0
0.674531 0.0117145 0.0
0.491698 0.0316078 0.0
0.344633 0.0546458 0.0
0.230941 0.078085 0.0
0.145095 0.100041 0.0
0.0810727 0.119472 0.0
0.0335352 0.135941 0.0
-0.00182418 0.149373 0.0
-0.0281757 0.159788 0.0
-0.0479893 0.167377 0.0
-0.0631202 0.172427 0.0
-0.0748584 0.175204 0.0
-0.084086 0.175968 0.0
-0.0913975 0.174963 0.0
-0.0971889 0.172422 0.0
-0.101722 0.168562 0.0
-0.10517 0.163588 0.0
-0.107652 0.157695 0.0
-0.109255 0.151065 0.0
-0.110049 0.143865 0.0
-0.110097 0.136252 0.0
-0.109461 0.128367 0.0
-0.108205 0.120336 0.0
-0.106396 0.11227 0.0
-0.104103 0.104262 0.0
-0.101395 0.096391 0.0
-0.0983415 0.0887214 0.0
-0.095007 0.0813025 0.0
-0.0914528 0.0741709 0.0
-0.0877331 0.0673521 0.0
-0.0838946 0.0608618 0.0
-0.0799752 0.0547077 0.0
-0.0760036 0.048891 0.0
-0.0719994 0.0434081 0.0
-0.0679724 0.0382522 0.0
-0.0639234 0.0334146 0.0
-0.0598445 0.0288861 0.0
-0.0557194 0.0246584 0.0
-0.0515244 0.020725 0.0
-0.0472289 0.0170826 0.0
-0.0427959 0.0137319 0.0
-0.038183 0.0106794 0.0
-0.0333429 0.00793798 0.0
-0.0282233 0.00552889 0.0
-0.0227677 0.00348375 0.0
-0.0169145 0.00183987 0.0
-0.0105974 0.00065124 0.0
-0.00374255 8.9747e-05 0.0
0.893494 0.00127025 0.0
0.689467 0.0104955 0.0
0.51208 0.0286031 0.0
0.367065 0.0499173 0.0
0.253024 0.0719392 0.0
0.165379 0.0928712 0.0
0.0988062 0.111663 0.0
0.0484184 0.127819 0.0
0.0101791 0.141181 0.0
-0.0190242 0.151772 0.0
-0.0414701 0.159648 0.0
-0.0589881 0.165054 0.0
-0.0728666 0.168214 0.0
-0.0839946 0.169356 0.0
-0.0929763 0.168707 0.0
-0.100218 0.166486 0.0
-0.105991 0.162904 0.0
-0.110478 0.158168 0.0
-0.11381 0.152474 0.0
-0.116084 0.146009 0.0
-0.117383 0.13895 0.0
-0.117783 0.131461 0.0