# vtk DataFile Version 3.0
Malha 2D com triângulos e temperatura
ASCII
DATASET UNSTRUCTURED_GRID

POINTS 2500 double
0 0 0
1 0 0
1 1 0
0 1 0
0.0204082 0 0
0.0408163 0 0
0.0612245 0 0
0.0816327 0 0
0.102041 0 0
0.122449 0 0
0.142857 0 0
0.163265 0 0
0.183673 0 0
0.204082 0 0
0.22449 0 0
0.244898 0 0
0.265306 0 0
0.285714 0 0
0.306122 0 0
0.326531 0 0
0.346939 0 0
0.367347 0 0
0.387755 0 0
0.408163 0 0
0.428571 0 0
0.44898 0 0
0.469388 0 0
0.489796 0 0
0.510204 0 0
0.530612 0 0
0.55102 0 0
0.571429 0 0
0.591837 0 0
0.612245 0 0
0.632653 0 0
0.653061 0 0
0.673469 0 0
0.693878 0 0
0.714286 0 0
0.734694 0 0
0.755102 0 0
0.77551 0 0
0.795918 0 0
0.816327 0 0
0.836735 0 0
0.857143 0 0
0.877551 0 0
0.897959 0 0
0.918367 0 0
0.938776 0 0
0.959184 0 0
0.979592 0 0
1 0.0204082 0
1 0.0408163 0
1 0.0612245 0
1 0.0816327 0
1 0.102041 0
1 0.122449 0
1 0.142857 0
1 0.163265 0
1 0.183673 0
1 0.204082 0
1 0.22449 0
1 0.244898 0
1 0.265306 0
1 0.285714 0
1 0.306122 0
1 0.326531 0
1 0.346939 0
1 0.367347 0
1 0.387755 0
1 0.408163 0
1 0.428571 0
1 0.44898 0
1 0.469388 0
1 0.489796 0
1 0.510204 0
1 0.530612 0
1 0.55102 0
1 0.571429 0
1 0.591837 0
1 0.612245 0
1 0.632653 0
1 0.653061 0
1 0.673469 0
1 0.693878 0
1 0.714286 0
1 0.734694 0
1 0.755102 0
1 0.77551 0
1 0.795918 0
1 0.816327 0
1 0.836735 0
1 0.857143 0
1 0.877551 0
1 0.897959 0
1 0.918367 0
1 0.938776 0
1 0.959184 0
1 0.979592 0
0.979592 1 0
0.959184 1 0
0.938776 1 0
0.918367 1 0
0.897959 1 0
0.877551 1 0
0.857143 1 0
0.836735 1 0
0.816327 1 0
0.795918 1 0
0.77551 1 0
0.755102 1 0
0.734694 1 0
0.714286 1 0
0.693878 1 0
0.673469 1 0
0.653061 1 0
0.632653 1 0
0.612245 1 0
0.591837 1 0
0.571429 1 0
0.55102 1 0
0.530612 1 0
0.510204 1 0
0.489796 1 0
0.469388 1 0
0.44898 1 0
0.428571 1 0
0.408163 1 0
0.387755 1 0
0.367347 1 0
0.346939 1 0
0.326531 1 0
0.306122 1 0
0.285714 1 0
0.265306 1 0
0.244898 1 0
0.22449 1 0
0.204082 1 0
0.183673 1 0
0.163265 1 0
0.142857 1 0
0.122449 1 0
0.102041 1 0
0.0816327 1 0
0.0612245 1 0
0.0408163 1 0
0.0204082 1 0
0 0.979592 0
0 0.959184 0
0 0.938776 0
0 0.918367 0
0 0.897959 0
0 0.877551 0
0 0.857143 0
0 0.836735 0
0 0.816327 0
0 0.795918 0
0 0.77551 0
0 0.755102 0
0 0.734694 0
0 0.714286 0
0 0.693878 0
0 0.673469 0
0 0.653061 0
0 0.632653 0
0 0.612245 0
0 0.591837 0
0 0.571429 0
0 0.55102 0
0 0.530612 0
0 0.510204 0
0 0.489796 0
0 0.469388 0
0 0.44898 0
0 0.428571 0
0 0.408163 0
0 0.387755 0
0 0.367347 0
0 0.346939 0
0 0.326531 0
0 0.306122 0
0 0.285714 0
0 0.265306 0
0 0.244898 0
0 0.22449 0
0 0.204082 0
0 0.183673 0
0 0.163265 0
0 0.142857 0
0 0.122449 0
0 0.102041 0
0 0.0816327 0
0 0.0612245 0
0 0.0408163 0
0 0.0204082 0
0.0204082 0.979592 0
0.0204082 0.959184 0
0.0204082 0.938776 0
0.0204082 0.918367 0
0.0204082 0.897959 0
0.0204082 0.877551 0
0.0204082 0.857143 0
0.0204082 0.836735 0
0.0204082 0.816327 0
0.0204082 0.795918 0
0.0204082 0.77551 0
0.0204082 0.755102 0
0.0204082 0.734694 0
0.0204082 0.714286 0
0.0204082 0.693878 0
0.0204082 0.673469 0
0.0204082 0.653061 0
0.0204082 0.632653 0
0.0204082 0.612245 0
0.0204082 0.591837 0
0.0204082 0.571429 0
0.0204082 0.55102 0
0.0204082 0.530612 0
0.0204082 0.510204 0
0.0204082 0.489796 0
0.0204082 0.469388 0
0.0204082 0.44898 0
0.0204082 0.428571 0
0.0204082 0.408163 0
0.0204082 0.387755 0
0.0204082 0.367347 0
0.0204082 0.346939 0
0.0204082 0.326531 0
0.0204082 0.306122 0
0.0204082 0.285714 0
0.0204082 0.265306 0
0.0204082 0.244898 0
0.0204082 0.22449 0
0.0204082 0.204082 0
0.0204082 0.183673 0
0.0204082 0.163265 0
0.0204082 0.142857 0
0.0204082 0.122449 0
0.0204082 0.102041 0
0.0204082 0.0816327 0
0.0204082 0.0612245 0
0.0204082 0.0408163 0
0.0204082 0.0204082 0
0.0408163 0.979592 0
0.0408163 0.959184 0
0.0408163 0.938776 0
0.0408163 0.918367 0
0.0408163 0.897959 0
0.0408163 0.877551 0
0.0408163 0.857143 0
0.0408163 0.836735 0
0.0408163 0.816327 0
0.0408163 0.795918 0
0.0408163 0.77551 0
0.0408163 0.755102 0
0.0408163 0.734694 0
0.0408163 0.714286 0
0.0408163 0.693878 0
0.0408163 0.673469 0
0.0408163 0.653061 0
0.0408163 0.632653 0
0.0408163 0.612245 0
0.0408163 0.591837 0
0.0408163 0.571429 0
0.0408163 0.55102 0
0.0408163 0.530612 0
0.0408163 0.510204 0
0.0408163 0.489796 0
0.0408163 0.469388 0
0.0408163 0.44898 0
0.0408163 0.428571 0
0.0408163 0.408163 0
0.0408163 0.387755 0
0.0408163 0.367347 0
0.0408163 0.346939 0
0.0408163 0.326531 0
0.0408163 0.306122 0
0.0408163 0.285714 0
0.0408163 0.265306 0
0.0408163 0.244898 0
0.0408163 0.22449 0
0.0408163 0.204082 0
0.0408163 0.183673 0
0.0408163 0.163265 0
0.0408163 0.142857 0
0.0408163 0.122449 0
0.0408163 0.102041 0
0.0408163 0.0816327 0
0.0408163 0.0612245 0
0.0408163 0.0408163 0
0.0408163 0.0204082 0
0.0612245 0.979592 0
0.0612245 0.959184 0
0.0612245 0.938776 0
0.0612245 0.918367 0
0.0612245 0.897959 0
0.0612245 0.877551 0
0.0612245 0.857143 0
0.0612245 0.836735 0
0.0612245 0.816327 0
0.0612245 0.795918 0
0.0612245 0.77551 0
0.0612245 0.755102 0
0.0612245 0.734694 0
0.0612245 0.714286 0
0.0612245 0.693878 0
0.0612245 0.673469 0
0.0612245 0.653061 0
0.0612245 0.632653 0
0.0612245 0.612245 0
0.0612245 0.591837 0
0.0612245 0.571429 0
0.0612245 0.55102 0
0.0612245 0.530612 0
0.0612245 0.510204 0
0.0612245 0.489796 0
0.0612245 0.469388 0
0.0612245 0.44898 0
0.0612245 0.428571 0
0.0612245 0.408163 0
0.0612245 0.387755 0
0.0612245 0.367347 0
0.0612245 0.346939 0
0.0612245 0.326531 0
0.0612245 0.306122 0
0.0612245 0.285714 0
0.0612245 0.265306 0
0.0612245 0.244898 0
0.0612245 0.22449 0
0.0612245 0.204082 0
0.0612245 0.183673 0
0.0612245 0.163265 0
0.0612245 0.142857 0
0.0612245 0.122449 0
0.0612245 0.102041 0
0.0612245 0.0816327 0
0.0612245 0.0612245 0
0.0612245 0.0408163 0
0.0612245 0.0204082 0
0.0816327 0.979592 0
0.0816327 0.959184 0
0.0816327 0.938776 0
0.0816327 0.918367 0
0.0816327 0.897959 0
0.0816327 0.877551 0
0.0816327 0.857143 0
0.0816327 0.836735 0
0.0816327 0.816327 0
0.0816327 0.795918 0
0.0816327 0.77551 0
0.0816327 0.755102 0
0.0816327 0.734694 0
0.0816327 0.714286 0
0.0816327 0.693878 0
0.0816327 0.673469 0
0.0816327 0.653061 0
0.0816327 0.632653 0
0.0816327 0.612245 0
0.0816327 0.591837 0
0.0816327 0.571429 0
0.0816327 0.55102 0
0.0816327 0.530612 0
0.0816327 0.510204 0
0.0816327 0.489796 0
0.0816327 0.469388 0
0.0816327 0.44898 0
0.0816327 0.428571 0
0.0816327 0.408163 0
0.0816327 0.387755 0
0.0816327 0.367347 0
0.0816327 0.346939 0
0.0816327 0.326531 0
0.0816327 0.306122 0
0.0816327 0.285714 0
0.0816327 0.265306 0
0.0816327 0.244898 0
0.0816327 0.22449 0
0.0816327 0.204082 0
0.0816327 0.183673 0
0.0816327 0.163265 0
0.0816327 0.142857 0
0.0816327 0.122449 0
0.0816327 0.102041 0
0.0816327 0.0816327 0
0.0816327 0.0612245 0
0.0816327 0.0408163 0
0.0816327 0.0204082 0
0.102041 0.979592 0
0.102041 0.959184 0
0.102041 0.938776 0
0.102041 0.918367 0
0.102041 0.897959 0
0.102041 0.877551 0
0.102041 0.857143 0
0.102041 0.836735 0
0.102041 0.816327 0
0.102041 0.795918 0
0.102041 0.77551 0
0.102041 0.755102 0
0.102041 0.734694 0
0.102041 0.714286 0
0.102041 0.693878 0
0.102041 0.673469 0
0.102041 0.653061 0
0.102041 0.632653 0
0.102041 0.612245 0
0.102041 0.591837 0
0.102041 0.571429 0
0.102041 0.55102 0
0.102041 0.530612 0
0.102041 0.510204 0
0.102041 0.489796 0
0.102041 0.469388 0
0.102041 0.44898 0
0.102041 0.428571 0
0.102041 0.408163 0
0.102041 0.387755 0
0.102041 0.367347 0
0.102041 0.346939 0
0.102041 0.326531 0
0.102041 0.306122 0
0.102041 0.285714 0
0.102041 0.265306 0
0.102041 0.244898 0
0.102041 0.22449 0
0.102041 0.204082 0
0.102041 0.183673 0
0.102041 0.163265 0
0.102041 0.142857 0
0.102041 0.122449 0
0.102041 0.102041 0
0.102041 0.0816327 0
0.102041 0.0612245 0
0.102041 0.0408163 0
0.102041 0.0204082 0
0.122449 0.979592 0
0.122449 0.959184 0
0.122449 0.938776 0
0.122449 0.918367 0
0.122449 0.897959 0
0.122449 0.877551 0
0.122449 0.857143 0
0.122449 0.836735 0
0.122449 0.816327 0
0.122449 0.795918 0
0.122449 0.77551 0
0.122449 0.755102 0
0.122449 0.734694 0
0.122449 0.714286 0
0.122449 0.693878 0
0.122449 0.673469 0
0.122449 0.653061 0
0.122449 0.632653 0
0.122449 0.612245 0
0.122449 0.591837 0
0.122449 0.571429 0
0.122449 0.55102 0
0.122449 0.530612 0
0.122449 0.510204 0
0.122449 0.489796 0
0.122449 0.469388 0
0.122449 0.44898 0
0.122449 0.428571 0
0.122449 0.408163 0
0.122449 0.387755 0
0.122449 0.367347 0
0.122449 0.346939 0
0.122449 0.326531 0
0.122449 0.306122 0
0.122449 0.285714 0
0.122449 0.265306 0
0.122449 0.244898 0
0.122449 0.22449 0
0.122449 0.204082 0
0.122449 0.183673 0
0.122449 0.163265 0
0.122449 0.142857 0
0.122449 0.122449 0
0.122449 0.102041 0
0.122449 0.0816327 0
0.122449 0.0612245 0
0.122449 0.0408163 0
0.122449 0.0204082 0
0.142857 0.979592 0
0.142857 0.959184 0
0.142857 0.938776 0
0.142857 0.918367 0
0.142857 0.897959 0
0.142857 0.877551 0
0.142857 0.857143 0
0.142857 0.836735 0
0.142857 0.816327 0
0.142857 0.795918 0
0.142857 0.77551 0
0.142857 0.755102 0
0.142857 0.734694 0
0.142857 0.714286 0
0.142857 0.693878 0
0.142857 0.673469 0
0.142857 0.653061 0
0.142857 0.632653 0
0.142857 0.612245 0
0.142857 0.591837 0
0.142857 0.571429 0
0.142857 0.55102 0
0.142857 0.530612 0
0.142857 0.510204 0
0.142857 0.489796 0
0.142857 0.469388 0
0.142857 0.44898 0
0.142857 0.428571 0
0.142857 0.408163 0
0.142857 0.387755 0
0.142857 0.367347 0
0.142857 0.346939 0
0.142857 0.326531 0
0.142857 0.306122 0
0.142857 0.285714 0
0.142857 0.265306 0
0.142857 0.244898 0
0.142857 0.22449 0
0.142857 0.204082 0
0.142857 0.183673 0
0.142857 0.163265 0
0.142857 0.142857 0
0.142857 0.122449 0
0.142857 0.102041 0
0.142857 0.0816327 0
0.142857 0.0612245 0
0.142857 0.0408163 0
0.142857 0.0204082 0
0.163265 0.979592 0
0.163265 0.959184 0
0.163265 0.938776 0
0.163265 0.918367 0
0.163265 0.897959 0
0.163265 0.877551 0
0.163265 0.857143 0
0.163265 0.836735 0
0.163265 0.816327 0
0.163265 0.795918 0
0.163265 0.77551 0
0.163265 0.755102 0
0.163265 0.734694 0
0.163265 0.714286 0
0.163265 0.693878 0
0.163265 0.673469 0
0.163265 0.653061 0
0.163265 0.632653 0
0.163265 0.612245 0
0.163265 0.591837 0
0.163265 0.571429 0
0.163265 0.55102 0
[...]
CELL_DATA 2401
VECTORS velocity double
0.257356 0.157465 0.0
-0.00269615 0.264605 0.0
-0.0322959 0.205518 0.0
-0.025372 0.150675 0.0
-0.0160548 0.113158 0.0
-0.00970444 0.0877961 0.0
-0.00593688 0.0706954 0.0
-0.00375842 0.0589527 0.0
-0.00247989 0.0506642 0.0
-0.0017054 0.0446488 0.0
-0.00121928 0.0401638 0.0
-0.000904475 0.0367286 0.0
-0.000695919 0.0340228 0.0
-0.000555964 0.0318269 0.0
-0.000461812 0.0299869 0.0
-0.000399017 0.0283931 0.0
-0.000358039 0.0269667 0.0
-0.000332343 0.0256506 0.0
-0.000317315 0.0244039 0.0
-0.000309612 0.0231977 0.0
-0.000306759 0.0220121 0.0
-0.000306894 0.0208342 0.0
-0.000308608 0.0196561 0.0
-0.000310829 0.0184744 0.0
-0.000312753 0.0172886 0.0
-0.000313787 0.0161007 0.0
-0.00031351 0.0149144 0.0
-0.000311645 0.0137345 0.0
-0.000308027 0.0125668 0.0
-0.000302588 0.0114173 0.0
-0.00029533 0.0102923 0.0
-0.000286311 0.00919804 0.0
-0.000275623 0.00814052 0.0
-0.000263381 0.00712542 0.0
-0.000249707 0.00615805 0.0
-0.000234714 0.00524335 0.0
-0.000218498 0.00438594 0.0
-0.000201124 0.0035901 0.0
-0.000182615 0.00285994 0.0
-0.000162942 0.00219948 0.0
-0.000142013 0.00161275 0.0
-0.000119662 0.00110394 0.0
-9.56565e-05 0.00067745 0.0
-6.97367e-05 0.000337863 0.0
-4.17752e-05 8.96172e-05 0.0
-1.22444e-05 -6.39637e-05 0.0
1.65653e-05 -0.000122903 0.0
3.80309e-05 -9.88187e-05 0.0
3.44739e-05 -3.43056e-05 0.0
0.340622 0.122967 0.0
-0.000604207 0.249467 0.0
-0.0651948 0.271735 0.0
-0.0632359 0.252325 0.0
-0.0485308 0.221833 0.0
-0.0350095 0.191944 0.0
-0.0249921 0.16646 0.0
-0.0179939 0.145883 0.0
-0.013169 0.129607 0.0
-0.0098304 0.116785 0.0
-0.00750057 0.106626 0.0
-0.00586221 0.0984745 0.0
-0.0047054 0.0918156 0.0
-0.00388928 0.0862523 0.0
-0.00331735 0.0814825 0.0
-0.002922 0.0772778 0.0
-0.00265485 0.0734665 0.0
-0.00248056 0.0699206 0.0
-0.00237287 0.0665457 0.0
-0.00231197 0.0632738 0.0
-0.00228272 0.0600574 0.0
-0.00227348 0.0568651 0.0
-0.00227524 0.0536783 0.0
-0.00228108 0.0504879 0.0
-0.00228572 0.047293 0.0
-0.00228522 0.044098 0.0
-0.00227674 0.040912 0.0
-0.00225834 0.037747 0.0
-0.00222883 0.0346169 0.0
-0.00218761 0.0315371 0.0
-0.00213456 0.0285232 0.0
-0.00206991 0.0255909 0.0
-0.00199411 0.0227555 0.0
-0.0019078 0.0200315 0.0
-0.00181166 0.0174326 0.0
-0.00170636 0.0149718 0.0
-0.0015925 0.0126612 0.0
-0.00147056 0.010512 0.0
-0.00134082 0.00853499 0.0
-0.0012034 0.00674047 0.0
-0.00105823 0.00513847 0.0
-0.000905106 0.00373876 0.0
-0.000743895 0.00255072 0.0
-0.000574912 0.00158283 0.0
-0.000399827 0.000841318 0.0
-0.00022364 0.000327773 0.0
-5.87659e-05 3.43303e-05 0.0
6.80868e-05 -6.65703e-05 0.0
9.83271e-05 -3.70029e-05 0.0
0.500917 0.076809 0.0
0.0991787 0.18328 0.0
-0.0392686 0.249347 0.0
-0.0733852 0.265867 0.0
-0.0719219 0.257559 0.0
-0.0607009 0.239718 0.0
-0.0485281 0.219609 0.0
-0.0380288 0.20052 0.0
-0.0296853 0.183667 0.0
-0.0232936 0.169271 0.0
-0.0184885 0.157124 0.0
-0.0149186 0.146872 0.0
-0.0122927 0.138141 0.0
-0.010382 0.130588 0.0
-0.00901112 0.123922 0.0
-0.00804592 0.117905 0.0
-0.00738401 0.112346 0.0
-0.00694668 0.1071 0.0
-0.0066731 0.102054 0.0
-0.00651592 0.0971275 0.0
-0.00643811 0.092262 0.0
-0.00641062 0.0874199 0.0
-0.0064107 0.0825793 0.0
-0.00642064 0.0777307 0.0
-0.00642685 0.072875 0.0
-0.0064191 0.0680205 0.0
-0.00638996 0.0631812 0.0
-0.00633434 0.0583752 0.0
-0.00624903 0.0536234 0.0
-0.00613238 0.0489481 0.0
-0.00598397 0.0443724 0.0
-0.00580428 0.0399191 0.0
-0.00559444 0.0356106 0.0
-0.005356 0.0314684 0.0
-0.00509069 0.0275126 0.0
-0.00480025 0.0237623 0.0
-0.00448628 0.0202352 0.0
-0.00415011 0.016948 0.0
-0.00379275 0.0139164 0.0
-0.00341488 0.0111553 0.0
-0.00301697 0.00867868 0.0
-0.00259949 0.00649978 0.0
-0.00216353 0.00463054 0.0
-0.00171185 0.00308073 0.0
-0.0012509 0.00185628 0.0
-0.000794664 0.000956481 0.0
-0.000371455 0.000368416 0.0
-3.33984e-05 6.00789e-05 0.0
0.000120215 -1.47726e-05 0.0
0.610094 0.0480508 0.0
0.195776 0.134016 0.0
0.0114667 0.209524 0.0
-0.0580309 0.246552 0.0
-0.0761686 0.257054 0.0
-0.0739393 0.253529 0.0
-0.0647801 0.243159 0.0
-0.0542931 0.230193 0.0
-0.0446476 0.216896 0.0
-0.0365304 0.204328 0.0
-0.0300126 0.19289 0.0
-0.0249323 0.182636 0.0
-0.0210604 0.173456 0.0
-0.0181685 0.165174 0.0
-0.016054 0.157601 0.0
-0.0145462 0.150561 0.0
-0.0135047 0.143901 0.0
-0.0128157 0.137496 0.0
-0.0123874 0.131248 0.0
-0.0121459 0.125083 0.0
-0.0120319 0.11895 0.0
-0.011998 0.112815 0.0
-0.0120064 0.106663 0.0
-0.0120276 0.100488 0.0
-0.0120384 0.0942965 0.0
-0.0120215 0.0881024 0.0
-0.0119643 0.0819255 0.0
-0.011858 0.07579 0.0
-0.0116972 0.0697228 0.0
-0.0114791 0.0637523 0.0
-0.0112031 0.0579073 0.0
-0.0108699 0.0522165 0.0
-0.0104816 0.0467077 0.0
-0.010041 0.0414073 0.0
-0.00955114 0.0363405 0.0
-0.00901519 0.0315307 0.0
-0.00843608 0.0269998 0.0
-0.00781639 0.0227684 0.0
-0.00715824 0.0188556 0.0
-0.00646337 0.0152792 0.0
-0.00573334 0.0120558 0.0
-0.0049701 0.00920067 0.0
-0.0041769 0.00672688 0.0
-0.00336008 0.00464472 0.0
-0.002532 0.00295993 0.0
-0.00171607 0.00167152 0.0
-0.000955006 0.000766296 0.0
-0.000321004 0.000217072 0.0
6.00848e-05 1.36679e-05 0.0
0.680505 0.0301603 0.0
0.278568 0.0982174 0.0
0.0696921 0.171037 0.0
-0.0275132 0.217523 0.0
-0.0654304 0.240916 0.0
-0.075012 0.249283 0.0
-0.0720891 0.248546 0.0
-0.0644026 0.242812 0.0
-0.0556064 0.234661 0.0
-0.0473271 0.225594 0.0
-0.0401944 0.216418 0.0
-0.0343601 0.20752 0.0
-0.0297594 0.199043 0.0
-0.0262406 0.190994 0.0
-0.0236277 0.183315 0.0
-0.0217499 0.175923 0.0
-0.0204533 0.16873 0.0
-0.0196049 0.161656 0.0
-0.0190918 0.154635 0.0
-0.0188201 0.147618 0.0
-0.018712 0.14057 0.0
-0.0187042 0.133474 0.0
-0.0187453 0.126324 0.0
-0.0187946 0.119125 0.0
-0.0188202 0.11189 0.0
-0.0187979 0.104643 0.0
-0.0187102 0.0974098 0.0
-0.0185449 0.0902204 0.0
-0.0182946 0.083108 0.0
-0.0179556 0.0761063 0.0
-0.0175273 0.0692492 0.0
-0.0170112 0.0625698 0.0
-0.0164107 0.0561002 0.0
-0.0157299 0.0498707 0.0
-0.0149737 0.0439097 0.0
-0.0141469 0.038244 0.0
-0.0132542 0.0328982 0.0
-0.0122995 0.0278953 0.0
-0.0112867 0.0232566 0.0
-0.0102189 0.0190018 0.0
-0.00909925 0.0151489 0.0
-0.00793165 0.0117142 0.0
-0.00672207 0.00871166 0.0
-0.00548072 0.00615204 0.0
-0.0042256 0.00404207 0.0
-0.00298802 0.00238301 0.0
-0.00182104 0.0011656 0.0
-0.000808853 0.000373513 0.0
-8.83038e-05 4.08992e-05 0.0
0.729911 0.0191824 0.0
0.349103 0.0730502 0.0
0.12798 0.139291 0.0
0.0111474 0.188204 0.0
-0.0445702 0.21945 0.0
-0.0664907 0.236409 0.0
-0.0713478 0.243621 0.0
-0.0682146 0.24456 0.0
-0.0618742 0.241693 0.0
-0.0547689 0.236637 0.0
-0.048076 0.2304 0.0
-0.0422959 0.223579 0.0
-0.0375758 0.216499 0.0
-0.033886 0.209322 0.0
-0.0311158 0.202112 0.0
-0.0291241 0.194879 0.0
-0.0277662 0.187605 0.0
-0.0269059 0.180266 0.0
-0.0264213 0.172837 0.0
-0.0262066 0.1653 0.0
-0.0261717 0.157648 0.0
-0.0262412 0.14988 0.0
-0.0263534 0.142007 0.0
-0.0264584 0.134048 0.0
-0.026517 0.126028 0.0
-0.0264997 0.117977 0.0
-0.0263846 0.109931 0.0
-0.0261573 0.101926 0.0
-0.0258089 0.0940022 0.0
-0.0253356 0.0861974 0.0
-0.0247372 0.0785501 0.0
-0.0240165 0.0710974 0.0
-0.0231785 0.0638746 0.0
-0.0222292 0.0569146 0.0
-0.0211757 0.0502486 0.0
-0.0200246 0.043905 0.0
-0.0187828 0.0379103 0.0
-0.0174561 0.0322889 0.0
-0.01605 0.0270631 0.0
-0.0145695 0.0222537 0.0
-0.0130195 0.0178792 0.0
-0.0114062 0.0139567 0.0
-0.009738 0.0105008 0.0
-0.00802871 0.00752357 0.0
-0.00630069 0.00503384 0.0
-0.00459049 0.00303736 0.0
-0.00295661 0.00153176 0.0
-0.00148729 0.000514511 0.0
-0.000317752 6.42105e-05 0.0
0.765915 0.0125765 0.0
0.408505 0.055677 0.0
0.182901 0.114467 0.0
0.0525494 0.162461 0.0
-0.0175439 0.197484 0.0
-0.0510008 0.22016 0.0
-0.0640546 0.233337 0.0
-0.066397 0.239784 0.0
-0.0635665 0.241643 0.0
-0.0586385 0.240453 0.0
-0.0532616 0.23727 0.0
-0.0482655 0.232784 0.0
-0.0440169 0.227436 0.0
-0.0406269 0.221493 0.0
-0.0380706 0.215114 0.0
-0.0362567 0.208388 0.0
-0.035066 0.201363 0.0
-0.0343729 0.194068 0.0
-0.0340572 0.186519 0.0
-0.0340092 0.178734 0.0
-0.0341326 0.170732 0.0
-0.0343451 0.162535 0.0
-0.0345779 0.154172 0.0
-0.0347749 0.145678 0.0
-0.034892 0.137088 0.0
-0.0348958 0.128446 0.0
-0.0347619 0.119794 0.0
-0.0344745 0.111177 0.0
-0.0340245 0.10264 0.0
-0.0334086 0.0942257 0.0
-0.0326281 0.0859774 0.0
-0.0316876 0.0779352 0.0
-0.0305942 0.0701369 0.0
-0.0293566 0.0626176 0.0
-0.0279839 0.0554098 0.0
-0.0264857 0.0485432 0.0
-0.0248707 0.042045 0.0
-0.023147 0.0359401 0.0
-0.0213222 0.0302513 0.0
-0.019403 0.0249992 0.0
-0.0173963 0.0202031 0.0
-0.0153101 0.0158802 0.0
-0.0131551 0.012046 0.0
-0.0109475 0.00871428 0.0
-0.00871216 0.0058973 0.0
-0.00648783 0.00360659 0.0
-0.00433365 0.00184824 0.0
-0.00233512 0.000634181 0.0
-0.000616866 8.30328e-05 0.0
0.79293 0.00858708 0.0
0.458506 0.0435727 0.0
0.233285 0.0952666 0.0
0.0940604 0.140828 0.0
0.0131031 0.176901 0.0
-0.0307362 0.203171 0.0
-0.051789 0.220594 0.0
-0.0599568 0.231322 0.0
-0.0612364 0.237116 0.0
-0.0591614 0.239343 0.0
-0.0557568 0.239012 0.0
-0.0521364 0.236836 0.0
-0.0488703 0.233304 0.0
-0.0462094 0.228749 0.0
-0.0442221 0.223393 0.0
-0.0428759 0.217386 0.0
-0.0420873 0.210828 0.0
-0.0417507 0.203793 0.0
-0.0417553 0.196339 0.0
-0.0419946 0.188512 0.0
-0.0423716 0.18036 0.0
-0.0428013 0.171929 0.0
-0.0432115 0.163265 0.0
-0.0435431 0.154418 0.0
-0.0437493 0.145439 0.0
-0.0437948 0.136381 0.0
-0.0436546 0.127296 0.0
-0.0433128 0.118235 0.0
-0.0427615 0.10925 0.0
-0.0419988 0.10039 0.0
-0.0410285 0.0916999 0.0
-0.0398578 0.0832238 0.0
-0.0384968 0.0750014 0.0
-0.036957 0.0670691 0.0
-0.0352507 0.0594603 0.0
-0.0333899 0.052205 0.0
-0.0313863 0.0453306 0.0
-0.0292502 0.0388616 0.0
-0.0269912 0.0328206 0.0
-0.0246179 0.027228 0.0
-0.0221388 0.0221028 0.0
-0.0195633 0.0174626 0.0
-0.0169037 0.0133239 0.0
-0.0141771 0.00970268 0.0
-0.0114089 0.00661498 0.0
-0.00863683 0.00407876 0.0
-0.00591667 0.002109 0.0
-0.00332598 0.000731172 0.0
-0.000973076 9.7621e-05 0.0
0.813905 0.00613533 0.0
0.500915 0.0349924 0.0
0.278982 0.0804162 0.0
0.134235 0.122979 0.0
0.0449038 0.15877 0.0
-0.00748029 0.186772 0.0
-0.0359449 0.207083 0.0
-0.0499132 0.220985 0.0
-0.055573 0.229898 0.0
-0.0567595 0.234987 0.0
-0.0557807 0.237163 0.0
-0.0539816 0.237108 0.0
-0.0521084 0.235322 0.0
-0.0505404 0.232166 0.0
-0.0494357 0.227901 0.0
-0.0488232 0.222716 0.0
-0.0486592 0.216752 0.0
-0.0488632 0.210118 0.0
-0.049339 0.202903 0.0
-0.049988 0.195185 0.0
-0.0507167 0.187033 0.0
-0.0514412 0.178515 0.0
-0.0520893 0.169697 0.0
-0.0526012 0.160644 0.0
-0.05293 0.151419 0.0
-0.0530405 0.142086 0.0
-0.0529089 0.132707 0.0
-0.0525208 0.123342 0.0
-0.0518706 0.114047 0.0
-0.0509596 0.104876 0.0
-0.0497947 0.095878 0.0
-0.0483867 0.0870993 0.0
-0.0467495 0.0785812 0.0
-0.0448982 0.0703611 0.0
-0.0428485 0.0624726 0.0
-0.0406158 0.0549455 0.0
-0.0382144 0.0478065 0.0
-0.0356573 0.0410795 0.0
-0.032956 0.0347862 0.0
-0.0301209 0.0289463 0.0
-0.0271618 0.0235782 0.0
-0.0240889 0.0186998 0.0
-0.0209148 0.0143286 0.0
-0.0176561 0.0104828 0.0
-0.0143367 0.00718231 0.0
-0.0109908 0.00445151 0.0
-0.00766721 0.00231372 0.0
-0.00443206 0.000806298 0.0
-0.00137414 0.000108493 0.0
0.830719 0.0045886 0.0
0.537255 0.0287774 0.0
0.320297 0.0688233 0.0
0.172477 0.108261 0.0
0.0768634 0.143017 0.0
0.0175697 0.171538 0.0
-0.0176257 0.193683 0.0
-0.037163 0.209864 0.0
-0.0472537 0.22117 0.0
-0.0519114 0.22857 0.0
-0.0536467 0.23286 0.0
-0.0539844 0.234665 0.0
-0.0538165 0.234469 0.0
-0.0536331 0.232636 0.0
-0.0536743 0.229445 0.0
-0.0540266 0.225108 0.0
-0.0546868 0.219793 0.0
-0.0556008 0.213636 0.0
-0.0566898 0.206751 0.0
-0.0578659 0.199239 0.0
-0.059042 0.191192 0.0
-0.060138 0.182696 0.0
-0.061084 0.173833 0.0
-0.0618223 0.164684 0.0
-0.0623077 0.155325 0.0
-0.0625072 0.145831 0.0
-0.0623996 0.136271 0.0
-0.061974 0.126714 0.0
-0.0612286 0.117221 0.0
-0.0601687 0.107851 0.0
-0.0588058 0.0986569 0.0
-0.0571553 0.0896863 0.0
-0.0552355 0.0809818 0.0
-0.0530661 0.0725815 0.0
-0.0506667 0.0645184 0.0
-0.0480564 0.0568218 0.0
-0.0452526 0.0495173 0.0
-0.0422708 0.0426273 0.0
-0.0391247 0.0361722 0.0
-0.035826 0.0301706 0.0
-0.0323852 0.0246403 0.0
-0.0288129 0.0195989 0.0
-0.0251206 0.0150647 0.0
-0.0213232 0.0110579 0.0
-0.0174409 0.00760232 0.0
-0.0135022 0.0047278 0.0
-0.00954657 0.00246506 0.0
-0.00562619 0.000861297 0.0
-0.00180881 0.000116207 0.0
0.844569 0.00358026 0.0
0.568727 0.0241716 0.0
0.357662 0.0596707 0.0
0.208512 0.0960977 0.0
0.108225 0.129442 0.0
0.0432019 0.15784 0.0
0.00233487 0.180838 0.0
-0.0224373 0.198606 0.0
-0.0368773 0.211694 0.0
-0.0450807 0.220908 0.0
-0.049694 0.226926 0.0
-0.0523783 0.230309 0.0
-0.0541417 0.231505 0.0
-0.0555676 0.230868 0.0
-0.0569663 0.228679 0.0
-0.0584768 0.225162 0.0
-0.0601329 0.2205 0.0
-0.0619068 0.214847 0.0
-0.0637372 0.208337 0.0
-0.0655482 0.201089 0.0
-0.0672608 0.193213 0.0
-0.0688005 0.184812 0.0
-0.0701017 0.175984 0.0
-0.0711102 0.166821 0.0
-0.0717845 0.157413 0.0
-0.0720956 0.147844 0.0
-0.0720268 0.138192 0.0
-0.0715718 0.128534 0.0
-0.070734 0.118935 0.0
-0.0695245 0.10946 0.0
-0.0679602 0.100163 0.0
-0.0660625 0.0910941 0.0
-0.0638548 0.0822973 0.0
-0.0613621 0.0738099 0.0
-0.0586085 0.0656646 0.0
-0.0556173 0.0578891 0.0
-0.0524092 0.0505075 0.0
-0.0490026 0.0435405 0.0
-0.0454128 0.0370066 0.0
-0.0416529 0.030923 0.0
-0.0377335 0.025306 0.0
-0.0336645 0.020173 0.0
-0.0294556 0.0155426 0.0
-0.0251182 0.0114367 0.0
-0.0206677 0.00788199 0.0
-0.0161247 0.00491314 0.0
-0.0115175 0.0025669 0.0
-0.00688282 0.000898167 0.0
-0.00226701 0.000121265 0.0
0.856242 0.00289693 0.0
0.596273 0.0206747 0.0
0.391543 0.0523416 0.0
0.242312 0.085967 0.0
0.138637 0.11772 0.0
0.0689253 0.145587 0.0
0.0231593 0.168859 0.0
-0.00634778 0.18758 0.0
-0.0249604 0.201955 0.0
-0.0366888 0.212548 0.0
-0.0442526 0.21994 0.0
-0.0494105 0.224622 0.0
-0.0532608 0.227 0.0
-0.0564617 0.227408 0.0
-0.0593828 0.226118 0.0
-0.0622077 0.223357 0.0
-0.0650032 0.219315 0.0
-0.067765 0.214158 0.0
-0.0704488 0.208033 0.0
-0.0729904 0.201075 0.0
-0.0753195 0.193407 0.0
-0.0773681 0.185146 0.0
-0.079076 0.176404 0.0
-0.0803942 0.167286 0.0
-0.0812863 0.15789 0.0
-0.0817288 0.148313 0.0
-0.0817107 0.13864 0.0
-0.0812321 0.128952 0.0
-0.0803032 0.119324 0.0
-0.0789419 0.109821 0.0
-0.077172 0.100501 0.0
-0.0750214 0.0914149 0.0
-0.0725203 0.0826074 0.0
-0.0696992 0.0741153 0.0
-0.0665879 0.0659698 0.0
-0.0632138 0.058197 0.0
-0.0596014 0.0508188 0.0
-0.0557719 0.0438537 0.0
-0.0517424 0.0373179 0.0
-0.0475267 0.0312265 0.0
-0.0431352 0.0255944 0.0
-0.0385762 0.0204377 0.0
-0.0338567 0.0157752 0.0
-0.0289835 0.0116296 0.0
-0.0239654 0.0080297 0.0
-0.0188138 0.00501385 0.0
-0.0135447 0.00262335 0.0
-0.0081784 0.000918807 0.0
-0.00273982 0.000124083 0.0
0.866268 0.00241417 0.0
0.620619 0.0179553 0.0
0.422372 0.0463836 0.0
0.273945 0.0774488 0.0
0.167881 0.107558 0.0
0.0943358 0.134643 0.0
0.0443157 0.157826 0.0
0.0106662 0.176961 0.0
-0.01192 0.192224 0.0
-0.0270991 0.20384 0.0
-0.037624 0.212295 0.0
-0.0453216 0.218019 0.0
-0.0513585 0.221372 0.0
-0.0564521 0.222664 0.0
-0.0610198 0.222153 0.0
-0.065282 0.220061 0.0
-0.0693332 0.216582 0.0
-0.0731895 0.211887 0.0
-0.0768214 0.206133 0.0
-0.0801757 0.199463 0.0
-0.0831904 0.192016 0.0
-0.0858042 0.183918 0.0
-0.0879634 0.175294 0.0
-0.0896248 0.166258 0.0
-0.0907583 0.156921 0.0
-0.0913473 0.147385 0.0
-0.091388 0.137746 0.0
-0.0908884 0.128089 0.0
-0.0898665 0.118494 0.0
-0.0883486 0.109029 0.0
-0.0863666 0.0997545 0.0
-0.0839562 0.0907229 0.0
-0.081155 0.0819775 0.0
-0.0780001 0.0735545 0.0
-0.0745271 0.0654835 0.0
-0.0707685 0.0577881 0.0
-0.0667527 0.0504877 0.0
-0.0625037 0.043598 0.0
-0.0580402 0.0371324 0.0
-0.0533765 0.0311035 0.0
-0.0485223 0.0255241 0.0
-0.0434836 0.0204088 0.0
-0.0382635 0.0157755 0.0
-0.0328635 0.0116471 0.0
-0.0272844 0.00805375 0.0
-0.0215276 0.00503593 0.0
-0.0155953 0.00263814 0.0
-0.00949131 0.000924833 0.0
-0.00321932 0.000124979 0.0
0.875012 0.00205849 0.0
0.642326 0.0157906 0.0
0.450532 0.0414645 0.0
0.303531 0.0702081 0.0
0.19586 0.0986879 0.0
0.119192 0.124845 0.0
0.0654733 0.147692 0.0
0.0280648 0.16694 0.0
0.00190435 0.182654 0.0
-0.016617 0.195002 0.0
-0.0300748 0.204249 0.0
-0.0403356 0.21078 0.0
-0.0486172 0.214913 0.0
-0.0556827 0.216928 0.0
-0.061987 0.217069 0.0
-0.0677802 0.215548 0.0
-0.0731788 0.212558 0.0
-0.0782157 0.208273 0.0
-0.0828734 0.202855 0.0
-0.0871083 0.196456 0.0
-0.0908657 0.189223 0.0
-0.0940913 0.181295 0.0
-0.0967375 0.172803 0.0
-0.0987681 0.163874 0.0
-0.10016 0.154627 0.0
-0.100905 0.145171 0.0
-0.101008 0.135609 0.0
-0.100485 0.126033 0.0
-0.0993644 0.116525 0.0
-0.0976818 0.107156 0.0
-0.0954784 0.097989 0.0
-0.0927989 0.0890756 0.0
-0.0896891 0.0804589 0.0
-0.0861937 0.0721732 0.0
-0.0823546 0.0642458 0.0
-0.0782098 0.0566977 0.0
-0.0737917 0.0495449 0.0
-0.0691273 0.0428 0.0
-0.064237 0.0364731 0.0
-0.059135 0.0305737 0.0
-0.0538299 0.025112 0.0
-0.0483248 0.0201003 0.0
-0.0426181 0.0155552 0.0
-0.036705 0.0114988 0.0
-0.0305776 0.00796146 0.0
-0.024226 0.00498453 0.0
-0.0176385 0.00261434 0.0
-0.0108016 0.000917504 0.0
-0.00369835 0.000124179 0.0
0.882731 0.00178558 0.0
0.661827 0.0140279 0.0
0.476347 0.0373368 0.0
0.331205 0.063977 0.0
0.222541 0.090875 0.0
0.143338 0.116017 0.0
0.0864084 0.138352 0.0
0.0456136 0.157485 0.0
0.0161543 0.173373 0.0
-0.00552341 0.186159 0.0
-0.0218475 0.195965 0.0
-0.0346605 0.203088 0.0
-0.0452118 0.207816 0.0
-0.0542976 0.210399 0.0
-0.0624009 0.211062 0.0
-0.0697937 0.210008 0.0
-0.0766097 0.207423 0.0
-0.0828941 0.203484 0.0
-0.088639 0.198355 0.0
-0.0938079 0.192195 0.0
-0.098353 0.185159 0.0
-0.102226 0.177393 0.0
-0.105385 0.169038 0.0
-0.107802 0.160229 0.0
-0.109462 0.151094 0.0
-0.110366 0.141748 0.0
-0.110527 0.1323 0.0
-0.109974 0.122847 0.0
-0.108744 0.113474 0.0
-0.106885 0.104255 0.0
-0.104448 0.0952515 0.0
-0.101487 0.0865162 0.0
-0.0980579 0.0780904 0.0
-0.0942135 0.0700064 0.0
-0.0900029 0.0622883 0.0
-0.0854696 0.0549539 0.0
-0.0806506 0.0480156 0.0
-0.0755756 0.0414819 0.0
-0.0702665 0.0353594 0.0
-0.0647376 0.029654 0.0
-0.0589956 0.0243725 0.0
-0.0530402 0.0195246 0.0
-0.0468648 0.0151245 0.0
-0.0404571 0.0111928 0.0
-0.0337998 0.00775879 0.0
-0.0268713 0.00486373 0.0
-0.0196452 0.00255428 0.0
-0.0120908 0.00089772 0.0
-0.00417034 0.000121824 0.0
0.889609 0.00156804 0.0
0.679457 0.0125603 0.0
0.500089 0.0338153 0.0
0.357099 0.0585425 0.0
0.24792 0.0839186 0.0
0.166668 0.107997 0.0
0.106943 0.129693 0.0
0.0630877 0.148536 0.0
0.0305715 0.164399 0.0
0.00598077 0.177344 0.0
-0.0131437 0.187515 0.0
-0.028482 0.195043 0.0
-0.041306 0.200198 0.0
-0.0524374 0.203201 0.0
-0.0623793 0.204258 0.0
-0.0714197 0.203562 0.0
-0.0797038 0.201294 0.0
-0.0872852 0.197629 0.0
-0.0941628 0.192733 0.0
-0.100305 0.186772 0.0
-0.10567 0.179905 0.0
-0.110213 0.172286 0.0
-0.113902 0.164065 0.0
-0.116714 0.155383 0.0
-0.118643 0.146376 0.0
-0.119699 0.137165 0.0
-0.119909 0.127864 0.0
-0.119312 0.118573 0.0
-0.117958 0.10938 0.0
-0.115905 0.10036 0.0
-0.113217 0.0915751 0.0
-0.10996 0.0830756 0.0
-0.106199 0.074901 0.0
-0.101996 0.0670808 0.0
-0.0974073 0.0596357 0.0
-0.0924827 0.0525794 0.0
-0.0872638 0.04592 0.0
-0.0817835 0.0396621 0.0
-0.0760649 0.0338076 0.0
-0.0701219 0.0283585 0.0
-0.0639592 0.0233178 0.0
-0.0575726 0.0186917 0.0
-0.0509497 0.0144915 0.0
-0.0440705 0.0107352 0.0
-0.0369077 0.00745038 0.0
-0.0294272 0.00467655 0.0
-0.0215877 0.0024596 0.0
-0.0133411 0.000866057 0.0
-0.00462911 0.000117988 0.0
0.895781 0.00138828 0.0
0.695474 0.0113113 0.0
0.52198 0.0307584 0.0
0.381333 0.0537337 0.0
0.272011 0.0776482 0.0
0.189112 0.100636 0.0
0.126949 0.1216 0.0
0.0803209 0.140016 0.0
0.0449642 0.155692 0.0
0.0176043 0.168627 0.0
-0.00416683 0.178936 0.0
-0.0219763 0.186698 0.0
-0.0370554 0.192117 0.0
-0.0502383 0.195397 0.0
-0.0620401 0.196723 0.0
-0.072758 0.196277 0.0
-0.0825438 0.194234 0.0
-0.0914559 0.190767 0.0
-0.0994965 0.186044 0.0
-0.106638 0.180234 0.0
-0.112841 0.173503 0.0
-0.118067 0.166012 0.0
-0.122289 0.157917 0.0
-0.125492 0.149366 0.0
-0.127682 0.140501 0.0
-0.128878 0.131448 0.0
-0.12912 0.122325 0.0
-0.128459 0.113235 0.0
-0.126959 0.104267 0.0