# vtk DataFile Version 3.0
Malha 2D com triângulos e temperatura
ASCII
DATASET UNSTRUCTURED_GRID

POINTS 2500 double
0 0 0
1 0 0
1 1 0
0 1 0
0.0204082 0 0
0.0408163 0 0
0.0612245 0 0
0.0816327 0 0
0.102041 0 0
0.122449 0 0
0.142857 0 0
0.163265 0 0
0.183673 0 0
0.204082 0 0
0.22449 0 0
0.244898 0 0
0.265306 0 0
0.285714 0 0
0.306122 0 0
0.326531 0 0
0.346939 0 0
0.367347 0 0
0.387755 0 0
0.408163 0 0
0.428571 0 0
0.44898 0 0
0.469388 0 0
0.489796 0 0
0.510204 0 0
0.530612 0 0
0.55102 0 0
0.571429 0 0
0.591837 0 0
0.612245 0 0
0.632653 0 0
0.653061 0 0
0.673469 0 0
0.693878 0 0
0.714286 0 0
0.734694 0 0
0.755102 0 0
0.77551 0 0
0.795918 0 0
0.816327 0 0
0.836735 0 0
0.857143 0 0
0.877551 0 0
0.897959 0 0
0.918367 0 0
0.938776 0 0
0.959184 0 0
0.979592 0 0
1 0.0204082 0
1 0.0408163 0
1 0.0612245 0
1 0.0816327 0
1 0.102041 0
1 0.122449 0
1 0.142857 0
1 0.163265 0
1 0.183673 0
1 0.204082 0
1 0.22449 0
1 0.244898 0
1 0.265306 0
1 0.285714 0
1 0.306122 0
1 0.326531 0
1 0.346939 0
1 0.367347 0
1 0.387755 0
1 0.408163 0
1 0.428571 0
1 0.44898 0
1 0.469388 0
1 0.489796 0
1 0.510204 0
1 0.530612 0
1 0.55102 0
1 0.571429 0
1 0.591837 0
1 0.612245 0
1 0.632653 0
1 0.653061 0
1 0.673469 0
1 0.693878 0
1 0.714286 0
1 0.734694 0
1 0.755102 0
1 0.77551 0
1 0.795918 0
1 0.816327 0
1 0.836735 0
1 0.857143 0
1 0.877551 0
1 0.897959 0
1 0.918367 0
1 0.938776 0
1 0.959184 0
1 0.979592 0
0.979592 1 0
0.959184 1 0
0.938776 1 0
0.918367 1 0
0.897959 1 0
0.877551 1 0
0.857143 1 0
0.836735 1 0
0.816327 1 0
0.795918 1 0
0.77551 1 0
0.755102 1 0
0.734694 1 0
0.714286 1 0
0.693878 1 0
0.673469 1 0
0.653061 1 0
0.632653 1 0
0.612245 1 0
0.591837 1 0
0.571429 1 0
0.55102 1 0
0.530612 1 0
0.510204 1 0
0.489796 1 0
0.469388 1 0
0.44898 1 0
0.428571 1 0
0.408163 1 0
0.387755 1 0
0.367347 1 0
0.346939 1 0
0.326531 1 0
0.306122 1 0
0.285714 1 0
0.265306 1 0
0.244898 1 0
0.22449 1 0
0.204082 1 0
0.183673 1 0
0.163265 1 0
0.142857 1 0
0.122449 1 0
0.102041 1 0
0.0816327 1 0
0.0612245 1 0
0.0408163 1 0
0.0204082 1 0
0 0.979592 0
0 0.959184 0
0 0.938776 0
0 0.918367 0
0 0.897959 0
0 0.877551 0
0 0.857143 0
0 0.836735 0
0 0.816327 0
0 0.795918 0
0 0.77551 0
0 0.755102 0
0 0.734694 0
0 0.714286 0
0 0.693878 0
0 0.673469 0
0 0.653061 0
0 0.632653 0
0 0.612245 0
0 0.591837 0
0 0.571429 0
0 0.55102 0
0 0.530612 0
0 0.510204 0
0 0.489796 0
0 0.469388 0
0 0.44898 0
0 0.428571 0
0 0.408163 0
0 0.387755 0
0 0.367347 0
0 0.346939 0
0 0.326531 0
0 0.306122 0
0 0.285714 0
0 0.265306 0
0 0.244898 0
0 0.22449 0
0 0.204082 0
0 0.183673 0
0 0.163265 0
0 0.142857 0
0 0.122449 0
0 0.102041 0
0 0.0816327 0
0 0.0612245 0
0 0.0408163 0
0 0.0204082 0
0.0204082 0.979592 0
0.0204082 0.959184 0
0.0204082 0.938776 0
0.0204082 0.918367 0
0.0204082 0.897959 0
0.0204082 0.877551 0
0.0204082 0.857143 0
0.0204082 0.836735 0
0.0204082 0.816327 0
0.0204082 0.795918 0
0.0204082 0.77551 0
0.0204082 0.755102 0
0.0204082 0.734694 0
0.0204082 0.714286 0
0.0204082 0.693878 0
0.0204082 0.673469 0
0.0204082 0.653061 0
0.0204082 0.632653 0
0.0204082 0.612245 0
0.0204082 0.591837 0
0.0204082 0.571429 0
0.0204082 0.55102 0
0.0204082 0.530612 0
0.0204082 0.510204 0
0.0204082 0.489796 0
0.0204082 0.469388 0
0.0204082 0.44898 0
0.0204082 0.428571 0
0.0204082 0.408163 0
0.0204082 0.387755 0
0.0204082 0.367347 0
0.0204082 0.346939 0
0.0204082 0.326531 0
0.0204082 0.306122 0
0.0204082 0.285714 0
0.0204082 0.265306 0
0.0204082 0.244898 0
0.0204082 0.22449 0
0.0204082 0.204082 0
0.0204082 0.183673 0
0.0204082 0.163265 0
0.0204082 0.142857 0
0.0204082 0.122449 0
0.0204082 0.102041 0
0.0204082 0.0816327 0
0.0204082 0.0612245 0
0.0204082 0.0408163 0
0.0204082 0.0204082 0
0.0408163 0.979592 0
0.0408163 0.959184 0
0.0408163 0.938776 0
0.0408163 0.918367 0
0.0408163 0.897959 0
0.0408163 0.877551 0
0.0408163 0.857143 0
0.0408163 0.836735 0
0.0408163 0.816327 0
0.0408163 0.795918 0
0.0408163 0.77551 0
0.0408163 0.755102 0
0.0408163 0.734694 0
0.0408163 0.714286 0
0.0408163 0.693878 0
0.0408163 0.673469 0
0.0408163 0.653061 0
0.0408163 0.632653 0
0.0408163 0.612245 0
0.0408163 0.591837 0
0.0408163 0.571429 0
0.0408163 0.55102 0
0.0408163 0.530612 0
0.0408163 0.510204 0
0.0408163 0.489796 0
0.0408163 0.469388 0
0.0408163 0.44898 0
0.0408163 0.428571 0
0.0408163 0.408163 0
0.0408163 0.387755 0
0.0408163 0.367347 0
0.0408163 0.346939 0
0.0408163 0.326531 0
0.0408163 0.306122 0
0.0408163 0.285714 0
0.0408163 0.265306 0
0.0408163 0.244898 0
0.0408163 0.22449 0
0.0408163 0.204082 0
0.0408163 0.183673 0
0.0408163 0.163265 0
0.0408163 0.142857 0
0.0408163 0.122449 0
0.0408163 0.102041 0
0.0408163 0.0816327 0
0.0408163 0.0612245 0
0.0408163 0.0408163 0
0.0408163 0.0204082 0
0.0612245 0.979592 0
0.0612245 0.959184 0
0.0612245 0.938776 0
0.0612245 0.918367 0
0.0612245 0.897959 0
0.0612245 0.877551 0
0.0612245 0.857143 0
0.0612245 0.836735 0
0.0612245 0.816327 0
0.0612245 0.795918 0
0.0612245 0.77551 0
0.0612245 0.755102 0
0.0612245 0.734694 0
0.0612245 0.714286 0
0.0612245 0.693878 0
0.0612245 0.673469 0
0.0612245 0.653061 0
0.0612245 0.632653 0
0.0612245 0.612245 0
0.0612245 0.591837 0
0.0612245 0.571429 0
0.0612245 0.55102 0
0.0612245 0.530612 0
0.0612245 0.510204 0
0.0612245 0.489796 0
0.0612245 0.469388 0
0.0612245 0.44898 0
0.0612245 0.428571 0
0.0612245 0.408163 0
0.0612245 0.387755 0
0.0612245 0.367347 0
0.0612245 0.346939 0
0.0612245 0.326531 0
0.0612245 0.306122 0
0.0612245 0.285714 0
0.0612245 0.265306 0
0.0612245 0.244898 0
0.0612245 0.22449 0
0.0612245 0.204082 0
0.0612245 0.183673 0
0.0612245 0.163265 0
0.0612245 0.142857 0
0.0612245 0.122449 0
0.0612245 0.102041 0
0.0612245 0.0816327 0
0.0612245 0.0612245 0
0.0612245 0.0408163 0
0.0612245 0.0204082 0
0.0816327 0.979592 0
0.0816327 0.959184 0
0.0816327 0.938776 0
0.0816327 0.918367 0
0.0816327 0.897959 0
0.0816327 0.877551 0
0.0816327 0.857143 0
0.0816327 0.836735 0
0.0816327 0.816327 0
0.0816327 0.795918 0
0.0816327 0.77551 0
0.0816327 0.755102 0
0.0816327 0.734694 0
0.0816327 0.714286 0
0.0816327 0.693878 0
0.0816327 0.673469 0
0.0816327 0.653061 0
0.0816327 0.632653 0
0.0816327 0.612245 0
0.0816327 0.591837 0
0.0816327 0.571429 0
0.0816327 0.55102 0
0.0816327 0.530612 0
0.0816327 0.510204 0
0.0816327 0.489796 0
0.0816327 0.469388 0
0.0816327 0.44898 0
0.0816327 0.428571 0
0.0816327 0.408163 0
0.0816327 0.387755 0
0.0816327 0.367347 0
0.0816327 0.346939 0
0.0816327 0.326531 0
0.0816327 0.306122 0
0.0816327 0.285714 0
0.0816327 0.265306 0
0.0816327 0.244898 0
0.0816327 0.22449 0
0.0816327 0.204082 0
0.0816327 0.183673 0
0.0816327 0.163265 0
0.0816327 0.142857 0
0.0816327 0.122449 0
0.0816327 0.102041 0
0.0816327 0.0816327 0
0.0816327 0.0612245 0
0.0816327 0.0408163 0
0.0816327 0.0204082 0
0.102041 0.979592 0
0.102041 0.959184 0
0.102041 0.938776 0
0.102041 0.918367 0
0.102041 0.897959 0
0.102041 0.877551 0
0.102041 0.857143 0
0.102041 0.836735 0
0.102041 0.816327 0
0.102041 0.795918 0
0.102041 0.77551 0
0.102041 0.755102 0
0.102041 0.734694 0
0.102041 0.714286 0
0.102041 0.693878 0
0.102041 0.673469 0
0.102041 0.653061 0
0.102041 0.632653 0
0.102041 0.612245 0
0.102041 0.591837 0
0.102041 0.571429 0
0.102041 0.55102 0
0.102041 0.530612 0
0.102041 0.510204 0
0.102041 0.489796 0
0.102041 0.469388 0
0.102041 0.44898 0
0.102041 0.428571 0
0.102041 0.408163 0
0.102041 0.387755 0
0.102041 0.367347 0
0.102041 0.346939 0
0.102041 0.326531 0
0.102041 0.306122 0
0.102041 0.285714 0
0.102041 0.265306 0
0.102041 0.244898 0
0.102041 0.22449 0
0.102041 0.204082 0
0.102041 0.183673 0
0.102041 0.163265 0
0.102041 0.142857 0
0.102041 0.122449 0
0.102041 0.102041 0
0.102041 0.0816327 0
0.102041 0.0612245 0
0.102041 0.0408163 0
0.102041 0.0204082 0
0.122449 0.979592 0
0.122449 0.959184 0
0.122449 0.938776 0
0.122449 0.918367 0
0.122449 0.897959 0
0.122449 0.877551 0
0.122449 0.857143 0
0.122449 0.836735 0
0.122449 0.816327 0
0.122449 0.795918 0
0.122449 0.77551 0
0.122449 0.755102 0
0.122449 0.734694 0
0.122449 0.714286 0
0.122449 0.693878 0
0.122449 0.673469 0
0.122449 0.653061 0
0.122449 0.632653 0
0.122449 0.612245 0
0.122449 0.591837 0
0.122449 0.571429 0
0.122449 0.55102 0
0.122449 0.530612 0
0.122449 0.510204 0
0.122449 0.489796 0
0.122449 0.469388 0
0.122449 0.44898 0
0.122449 0.428571 0
0.122449 0.408163 0
0.122449 0.387755 0
0.122449 0.367347 0
0.122449 0.346939 0
0.122449 0.326531 0
0.122449 0.306122 0
0.122449 0.285714 0
0.122449 0.265306 0
0.122449 0.244898 0
0.122449 0.22449 0
0.122449 0.204082 0
0.122449 0.183673 0
0.122449 0.163265 0
0.122449 0.142857 0
0.122449 0.122449 0
0.122449 0.102041 0
0.122449 0.0816327 0
0.122449 0.0612245 0
0.122449 0.0408163 0
0.122449 0.0204082 0
0.142857 0.979592 0
0.142857 0.959184 0
0.142857 0.938776 0
0.142857 0.918367 0
0.142857 0.897959 0
0.142857 0.877551 0
0.142857 0.857143 0
0.142857 0.836735 0
0.142857 0.816327 0
0.142857 0.795918 0
0.142857 0.77551 0
0.142857 0.755102 0
0.142857 0.734694 0
0.142857 0.714286 0
0.142857 0.693878 0
0.142857 0.673469 0
0.142857 0.653061 0
0.142857 0.632653 0
0.142857 0.612245 0
0.142857 0.591837 0
0.142857 0.571429 0
0.142857 0.55102 0
0.142857 0.530612 0
0.142857 0.510204 0
0.142857 0.489796 0
0.142857 0.469388 0
0.142857 0.44898 0
0.142857 0.428571 0
0.142857 0.408163 0
0.142857 0.387755 0
0.142857 0.367347 0
0.142857 0.346939 0
0.142857 0.326531 0
0.142857 0.306122 0
0.142857 0.285714 0
0.142857 0.265306 0
0.142857 0.244898 0
0.142857 0.22449 0
0.142857 0.204082 0
0.142857 0.183673 0
0.142857 0.163265 0
0.142857 0.142857 0
0.142857 0.122449 0
0.142857 0.102041 0
0.142857 0.0816327 0
0.142857 0.0612245 0
0.142857 0.0408163 0
0.142857 0.0204082 0
0.163265 0.979592 0
0.163265 0.959184 0
0.163265 0.938776 0
0.163265 0.918367 0
0.163265 0.897959 0
0.163265 0.877551 0
0.163265 0.857143 0
0.163265 0.836735 0
0.163265 0.816327 0
0.163265 0.795918 0
0.163265 0.77551 0
0.163265 0.755102 0
0.163265 0.734694 0
0.163265 0.714286 0
0.163265 0.693878 0
0.163265 0.673469 0
0.163265 0.653061 0
0.163265 0.632653 0
0.163265 0.612245 0
0.163265 0.591837 0
0.163265 0.571429 0
0.163265 0.55102 0
[...]
CELL_DATA 2401
VECTORS velocity double
0.257354 0.157462 0.0
-0.00271757 0.26457 0.0
-0.0323299 0.205411 0.0
-0.0254058 0.15049 0.0
-0.016078 0.112914 0.0
-0.00971249 0.0875311 0.0
-0.00592983 0.0704511 0.0
-0.00373871 0.0587681 0.0
-0.00245079 0.0505712 0.0
-0.0016701 0.0446706 0.0
-0.00118045 0.0403153 0.0
-0.000864222 0.0370176 0.0
-0.000655799 0.0344515 0.0
-0.000517125 0.0323931 0.0
-0.000425102 0.0306848 0.0
-0.000365075 0.0292143 0.0
-0.000327362 0.0279004 0.0
-0.000305331 0.0266845 0.0
-0.000294292 0.0255244 0.0
-0.000290835 0.02439 0.0
-0.000292418 0.0232607 0.0
-0.000297109 0.0221228 0.0
-0.000303422 0.0209685 0.0
-0.000310203 0.0197943 0.0
-0.000316563 0.0186 0.0
-0.000321822 0.0173884 0.0
-0.000325476 0.0161639 0.0
-0.000327171 0.0149326 0.0
-0.000326676 0.0137017 0.0
-0.000323864 0.0124789 0.0
-0.000318694 0.0112723 0.0
-0.000311195 0.0100899 0.0
-0.000301444 0.00893982 0.0
-0.000289556 0.0078297 0.0
-0.000275665 0.00676689 0.0
-0.00025991 0.00575825 0.0
-0.000242422 0.00481022 0.0
-0.000223309 0.00392881 0.0
-0.000202647 0.00311968 0.0
-0.000180462 0.0023882 0.0
-0.000156717 0.00173956 0.0
-0.000131306 0.00117887 0.0
-0.000104057 0.000711229 0.0
-7.47812e-05 0.000341639 0.0
-4.34527e-05 7.46125e-05 0.0
-1.0732e-05 -8.69268e-05 0.0
2.06942e-05 -0.000144112 0.0
4.33599e-05 -0.00011129 0.0
3.79268e-05 -3.77294e-05 0.0
0.340586 0.122945 0.0
-0.000710153 0.249362 0.0
-0.0653281 0.271503 0.0
-0.0633542 0.251982 0.0
-0.048597 0.221425 0.0
-0.0350045 0.191542 0.0
-0.0249138 0.166145 0.0
-0.0178511 0.145733 0.0
-0.0129755 0.129689 0.0
-0.00960118 0.11715 0.0
-0.00724944 0.10731 0.0
-0.00560095 0.0994971 0.0
-0.00444359 0.0931837 0.0
-0.00363454 0.0879618 0.0
-0.00307569 0.0835205 0.0
-0.00269819 0.0796238 0.0
-0.00245266 0.0760943 0.0
-0.00230303 0.072799 0.0
-0.00222238 0.06964 0.0
-0.00219034 0.0665463 0.0
-0.00219123 0.0634684 0.0
-0.00221286 0.0603736 0.0
-0.00224568 0.0572426 0.0
-0.00228221 0.0540667 0.0
-0.0023166 0.0508457 0.0
-0.00234437 0.0475858 0.0
-0.00236217 0.0442985 0.0
-0.00236758 0.0409987 0.0
-0.00235898 0.0377039 0.0
-0.00233544 0.0344335 0.0
-0.00229655 0.0312077 0.0
-0.00224235 0.0280468 0.0
-0.00217322 0.024971 0.0
-0.00208976 0.0219999 0.0
-0.00199274 0.0191522 0.0
-0.00188296 0.0164458 0.0
-0.00176125 0.0138972 0.0
-0.00162835 0.0115222 0.0
-0.00148489 0.00933537 0.0
-0.00133136 0.0073505 0.0
-0.00116808 0.00558055 0.0
-0.00099532 0.00403763 0.0
-0.000813451 0.00273281 0.0
-0.000623394 0.00167542 0.0
-0.000427615 0.000871635 0.0
-0.000232296 0.000321695 0.0
-5.17821e-05 1.48029e-05 0.0
8.39549e-05 -8.22204e-05 0.0
0.000110703 -4.21564e-05 0.0
0.500812 0.0767791 0.0
0.0989511 0.183149 0.0
-0.0395239 0.249088 0.0
-0.0735831 0.26552 0.0
-0.0719954 0.257195 0.0
-0.0606137 0.239429 0.0
-0.0482747 0.219492 0.0
-0.0376259 0.200671 0.0
-0.0291618 0.184168 0.0
-0.0226825 0.170186 0.0
-0.0178219 0.158498 0.0
-0.0142252 0.148731 0.0
-0.0115969 0.140494 0.0
-0.00970397 0.133428 0.0
-0.00836721 0.127231 0.0
-0.00744939 0.121653 0.0
-0.0068455 0.116496 0.0
-0.00647469 0.111606 0.0
-0.00627429 0.106867 0.0
-0.00619528 0.102191 0.0
-0.00619906 0.0975187 0.0
-0.00625506 0.0928103 0.0
-0.00633901 0.0880429 0.0
-0.00643169 0.0832077 0.0
-0.00651802 0.0783068 0.0
-0.00658634 0.073351 0.0
-0.00662788 0.0683578 0.0
-0.00663631 0.0633496 0.0
-0.00660734 0.0583523 0.0
-0.00653843 0.0533941 0.0
-0.00642844 0.0485042 0.0
-0.00627737 0.0437124 0.0
-0.00608609 0.0390479 0.0
-0.00585609 0.0345394 0.0
-0.00558927 0.0302141 0.0
-0.00528773 0.026098 0.0
-0.0049536 0.0222154 0.0
-0.00458894 0.0185894 0.0
-0.00419563 0.0152412 0.0
-0.00377533 0.0121908 0.0
-0.00332965 0.00945655 0.0
-0.00286035 0.00705496 0.0
-0.00236996 0.00500044 0.0
-0.00186297 0.003304 0.0
-0.00134803 0.00197145 0.0
-0.000842104 0.00100026 0.0
-0.000377815 0.000373671 0.0
-1.36801e-05 5.29864e-05 0.0
0.000141008 -1.86563e-05 0.0
0.609915 0.0480228 0.0
0.195436 0.133901 0.0
0.0111127 0.209322 0.0
-0.0582559 0.246314 0.0
-0.0761772 0.256872 0.0
-0.0736843 0.253507 0.0
-0.0642564 0.243403 0.0
-0.0535272 0.230803 0.0
-0.0436842 0.217956 0.0
-0.035422 0.205906 0.0
-0.0288114 0.195031 0.0
-0.0236863 0.185367 0.0
-0.0198114 0.176784 0.0
-0.0169519 0.16909 0.0
-0.0148991 0.16208 0.0
-0.013477 0.155567 0.0
-0.0125407 0.149387 0.0
-0.0119725 0.143407 0.0
-0.0116772 0.137522 0.0
-0.0115777 0.131653 0.0
-0.0116118 0.125745 0.0
-0.0117294 0.119763 0.0
-0.0118898 0.11369 0.0
-0.0120606 0.107521 0.0
-0.0122164 0.101264 0.0
-0.012337 0.0949371 0.0
-0.0124076 0.0885634 0.0
-0.0124171 0.0821724 0.0
-0.0123584 0.0757972 0.0
-0.0122269 0.0694729 0.0
-0.0120209 0.0632361 0.0
-0.0117402 0.0571233 0.0
-0.0113864 0.0511707 0.0
-0.0109623 0.0454133 0.0
-0.010471 0.0398846 0.0
-0.00991637 0.0346165 0.0
-0.0093023 0.0296389 0.0
-0.00863258 0.0249798 0.0
-0.00791086 0.0206653 0.0
-0.00714067 0.0167193 0.0
-0.00632562 0.0131637 0.0
-0.00546997 0.0100179 0.0
-0.00457968 0.0072981 0.0
-0.00366422 0.00501619 0.0
-0.00273982 0.00317797 0.0
-0.00183488 0.00178067 0.0
-0.000998865 0.00080714 0.0
-0.000313207 0.000223704 0.0
8.2735e-05 1.22051e-05 0.0
0.680268 0.0301402 0.0
0.278156 0.0981428 0.0
0.069312 0.170932 0.0
-0.0276899 0.217461 0.0
-0.0652882 0.240995 0.0
-0.0744977 0.249612 0.0
-0.0712021 0.249231 0.0
-0.0631811 0.24395 0.0
-0.0541125 0.236335 0.0
-0.0456327 0.227866 0.0
-0.0383722 0.21933 0.0
-0.0324778 0.211095 0.0
-0.0278772 0.203283 0.0
-0.02441 0.195886 0.0
-0.0218921 0.18883 0.0
-0.0201453 0.182018 0.0
-0.0190091 0.175351 0.0
-0.0183445 0.168741 0.0
-0.0180338 0.162114 0.0
-0.0179779 0.155416 0.0
-0.0180949 0.148608 0.0
-0.0183168 0.141671 0.0
-0.0185883 0.134597 0.0
-0.0188645 0.127393 0.0
-0.0191094 0.120075 0.0
-0.0192952 0.112668 0.0
-0.0194008 0.105204 0.0
-0.0194109 0.0977187 0.0
-0.0193152 0.0902516 0.0
-0.0191079 0.0828441 0.0
-0.0187863 0.0755384 0.0
-0.0183508 0.0683763 0.0
-0.0178039 0.0613989 0.0
-0.0171496 0.054646 0.0
-0.0163932 0.0481553 0.0
-0.0155401 0.0419625 0.0
-0.0145966 0.0361013 0.0
-0.0135684 0.030603 0.0
-0.0124615 0.0254965 0.0
-0.0112816 0.0208085 0.0
-0.0100352 0.0165629 0.0
-0.00872946 0.0127808 0.0
-0.00737448 0.00947967 0.0
-0.00598516 0.00667255 0.0
-0.00458511 0.00436655 0.0
-0.0032126 0.00256165 0.0
-0.00192962 0.00124512 0.0
-0.000831889 0.000395194 0.0
-7.2024e-05 4.20468e-05 0.0
0.729646 0.0191739 0.0
0.348671 0.0730307 0.0
0.127641 0.139308 0.0
0.011104 0.188347 0.0
-0.044189 0.219821 0.0
-0.0656291 0.237116 0.0
-0.0700132 0.244765 0.0
-0.0664586 0.246233 0.0
-0.0597765 0.243968 0.0
-0.0524213 0.23957 0.0
-0.0455713 0.234028 0.0
-0.0397213 0.227916 0.0
-0.0350093 0.221544 0.0
-0.0313954 0.215055 0.0
-0.0287587 0.208499 0.0
-0.0269486 0.201873 0.0
-0.0258119 0.195147 0.0
-0.0252047 0.18829 0.0
-0.0249981 0.181267 0.0
-0.0250797 0.174058 0.0
-0.0253532 0.166648 0.0
-0.0257375 0.159037 0.0
-0.0261649 0.151233 0.0
-0.02658 0.143258 0.0
-0.0269385 0.135137 0.0
-0.0272055 0.126906 0.0
-0.0273546 0.118604 0.0
-0.0273671 0.110275 0.0
-0.0272305 0.101963 0.0
-0.0269378 0.0937166 0.0
-0.0264863 0.0855818 0.0
-0.0258772 0.0776048 0.0
-0.0251144 0.0698303 0.0
-0.0242036 0.0623011 0.0
-0.0231522 0.0550578 0.0
-0.0219681 0.0481386 0.0
-0.0206597 0.0415793 0.0
-0.0192354 0.0354128 0.0
-0.0177035 0.0296698 0.0
-0.0160726 0.0243783 0.0
-0.0143518 0.0195634 0.0
-0.0125518 0.0152474 0.0
-0.0106867 0.011449 0.0
-0.00877628 0.00818279 0.0
-0.00685031 0.00545883 0.0
-0.00495412 0.00328229 0.0
-0.00315691 0.00164833 0.0
-0.00156012 0.000550457 0.0
-0.000315905 6.77274e-05 0.0
0.765654 0.0125803 0.0
0.408114 0.0557154 0.0
0.182678 0.11461 0.0
0.0527219 0.162805 0.0
-0.016842 0.198137 0.0
-0.0497139 0.22123 0.0
-0.0622015 0.234914 0.0
-0.0640439 0.241949 0.0
-0.0608108 0.244461 0.0
-0.0555914 0.24397 0.0
-0.0500354 0.241514 0.0
-0.0449658 0.237764 0.0
-0.0407389 0.233144 0.0
-0.0374539 0.227905 0.0
-0.0350739 0.222192 0.0
-0.0334963 0.216081 0.0
-0.0325914 0.20961 0.0
-0.0322242 0.202798 0.0
-0.0322656 0.195656 0.0
-0.0325977 0.188196 0.0
-0.0331164 0.180432 0.0
-0.0337319 0.172385 0.0
-0.034368 0.164083 0.0
-0.0349617 0.155561 0.0
-0.0354621 0.146859 0.0
-0.0358294 0.138021 0.0
-0.0360334 0.129097 0.0
-0.0360529 0.120137 0.0
-0.0358743 0.111191 0.0
-0.0354903 0.102314 0.0
-0.0348992 0.0935539 0.0
-0.0341033 0.0849619 0.0
-0.0331085 0.0765847 0.0
-0.0319229 0.0684675 0.0
-0.0305563 0.0606522 0.0
-0.0290193 0.0531784 0.0
-0.0273229 0.0460826 0.0
-0.0254783 0.0393986 0.0
-0.0234963 0.0331575 0.0
-0.0213883 0.0273878 0.0
-0.0191662 0.0221152 0.0
-0.016844 0.0173627 0.0
-0.014439 0.0131504 0.0
-0.0119751 0.0094952 0.0
-0.00948595 0.00641124 0.0
-0.00702065 0.00391047 0.0
-0.00465045 0.00199769 0.0
-0.00247515 0.000682601 0.0
-0.000636651 8.85262e-05 0.0
0.792707 0.00860204 0.0
0.458216 0.0436655 0.0
0.233247 0.0955295 0.0
0.0945213 0.141358 0.0
0.0142144 0.177799 0.0
-0.0289553 0.204553 0.0
-0.0493604 0.222544 0.0
-0.0569599 0.233905 0.0
-0.0577861 0.240386 0.0
-0.0553873 0.243336 0.0
-0.051789 0.243748 0.0
-0.0480978 0.242315 0.0
-0.044872 0.239515 0.0
-0.0423493 0.235663 0.0
-0.0405841 0.23097 0.0
-0.0395313 0.225572 0.0
-0.039095 0.219562 0.0
-0.0391586 0.213004 0.0
-0.0396007 0.205949 0.0
-0.040305 0.198439 0.0
-0.0411652 0.190517 0.0
-0.042087 0.182227 0.0
-0.0429895 0.173616 0.0
-0.0438052 0.164734 0.0
-0.0444791 0.155634 0.0
-0.0449683 0.146372 0.0
-0.0452406 0.137006 0.0
-0.0452739 0.127592 0.0
-0.0450546 0.11819 0.0
-0.0445764 0.108856 0.0
-0.0438391 0.0996436 0.0
-0.0428474 0.0906056 0.0
-0.0416097 0.0817912 0.0
-0.040137 0.0732465 0.0
-0.038442 0.0650143 0.0
-0.0365384 0.0571344 0.0
-0.0344401 0.0496432 0.0
-0.032161 0.0425744 0.0
-0.0297147 0.0359587 0.0
-0.0271152 0.0298245 0.0
-0.0243771 0.0241973 0.0
-0.0215167 0.019101 0.0
-0.018554 0.014557 0.0
-0.0155151 0.0105849 0.0
-0.0124356 0.00720347 0.0
-0.00936473 0.0044322 0.0
-0.00637144 0.00228602 0.0
-0.00354822 0.000789913 0.0
-0.00102053 0.00010468 0.0
0.813749 0.00615954 0.0
0.50078 0.0351329 0.0
0.279191 0.0807856 0.0
0.13504 0.123673 0.0
0.0464579 0.159884 0.0
-0.0051337 0.188395 0.0
-0.0328908 0.209324 0.0
-0.0462384 0.223892 0.0
-0.051407 0.233511 0.0
-0.0522469 0.239332 0.0
-0.0510674 0.242249 0.0
-0.0492058 0.242933 0.0
-0.0473957 0.241868 0.0
-0.0460017 0.239403 0.0
-0.0451668 0.235787 0.0
-0.0449054 0.231197 0.0
-0.0451605 0.225766 0.0
-0.0458386 0.219596 0.0
-0.0468317 0.212768 0.0
-0.0480299 0.205355 0.0
-0.0493287 0.197424 0.0
-0.0506336 0.189041 0.0
-0.0518621 0.18027 0.0
-0.0529448 0.171176 0.0
-0.053825 0.161827 0.0
-0.0544588 0.152288 0.0
-0.0548141 0.142627 0.0
-0.0548691 0.132909 0.0
-0.0546118 0.123196 0.0
-0.054038 0.113551 0.0
-0.0531503 0.10403 0.0
-0.0519565 0.0946886 0.0
-0.0504684 0.0855771 0.0
-0.0487005 0.076742 0.0
-0.046669 0.0682262 0.0
-0.0443909 0.060069 0.0
-0.0418833 0.0523061 0.0
-0.0391631 0.04497 0.0
-0.0362465 0.0380906 0.0
-0.0331498 0.0316953 0.0
-0.0298897 0.0258096 0.0
-0.0264843 0.0204574 0.0
-0.0229549 0.0156616 0.0
-0.0193282 0.0114446 0.0
-0.0156393 0.00782995 0.0
-0.0119348 0.00484446 0.0
-0.00827754 0.00251272 0.0
-0.00474879 0.000873183 0.0
-0.00145409 0.000116745 0.0
0.830654 0.00461957 0.0
0.537323 0.0289556 0.0
0.320806 0.0692788 0.0
0.173677 0.109085 0.0
0.0789017 0.1443 0.0
0.0204777 0.173361 0.0
-0.013927 0.19613 0.0
-0.0327961 0.212996 0.0
-0.0423675 0.225012 0.0
-0.0466642 0.233136 0.0
-0.048198 0.238154 0.0
-0.048486 0.24068 0.0
-0.0484065 0.241184 0.0
-0.0484342 0.24002 0.0
-0.0487929 0.237455 0.0
-0.0495536 0.233692 0.0
-0.050698 0.228891 0.0
-0.0521583 0.22318 0.0
-0.0538423 0.216668 0.0
-0.0556494 0.209451 0.0
-0.0574802 0.201616 0.0
-0.0592426 0.193249 0.0
-0.0608552 0.184431 0.0
-0.0622489 0.175241 0.0
-0.0633678 0.165759 0.0
-0.0641688 0.156063 0.0
-0.0646213 0.146226 0.0
-0.064706 0.136322 0.0
-0.0644136 0.126419 0.0
-0.0637435 0.116584 0.0
-0.062702 0.106875 0.0
-0.0613012 0.0973506 0.0
-0.0595571 0.0880609 0.0
-0.0574885 0.079053 0.0
-0.0551155 0.0703691 0.0
-0.0524591 0.0620472 0.0
-0.0495396 0.0541215 0.0
-0.0463768 0.046623 0.0
-0.0429897 0.0395801 0.0
-0.0393964 0.0330189 0.0
-0.035615 0.026964 0.0
-0.0316646 0.0214394 0.0
-0.0275666 0.016469 0.0
-0.0233464 0.0120779 0.0
-0.0190365 0.0082938 0.0
-0.0146784 0.00515034 0.0
-0.0103261 0.00268061 0.0
-0.00604693 0.0009343 0.0
-0.00192495 0.000125336 0.0
0.844612 0.00361541 0.0
0.569034 0.0243764 0.0
0.358511 0.0601886 0.0
0.210141 0.097016 0.0
0.110774 0.130839 0.0
0.0466981 0.159786 0.0
0.00671715 0.183386 0.0
-0.0173728 0.201847 0.0
-0.0312784 0.215642 0.0
-0.0391148 0.225564 0.0
-0.0435316 0.232287 0.0
-0.046182 0.236362 0.0
-0.0480606 0.238229 0.0
-0.0497344 0.238231 0.0
-0.0514971 0.23664 0.0
-0.0534708 0.233672 0.0
-0.0556737 0.229501 0.0
-0.0580628 0.224276 0.0
-0.0605625 0.218124 0.0
-0.0630829 0.21116 0.0
-0.0655314 0.20349 0.0
-0.0678204 0.195215 0.0
-0.0698711 0.186431 0.0
-0.071617 0.177231 0.0
-0.0730044 0.167707 0.0
-0.0739931 0.157944 0.0
-0.0745557 0.148027 0.0
-0.0746767 0.138034 0.0
-0.0743511 0.12804 0.0
-0.073583 0.118115 0.0
-0.0723842 0.10832 0.0
-0.0707716 0.0987138 0.0
-0.0687666 0.0893483 0.0
-0.0663929 0.0802694 0.0
-0.0636754 0.0715181 0.0
-0.060639 0.0631309 0.0
-0.0573079 0.0551398 0.0
-0.0537048 0.0475738 0.0
-0.0498509 0.0404591 0.0
-0.0457661 0.0338198 0.0
-0.0414693 0.0276796 0.0
-0.0369793 0.0220617 0.0
-0.0323163 0.0169909 0.0
-0.0275032 0.012494 0.0
-0.0225678 0.00860265 0.0
-0.0175443 0.0053559 0.0
-0.0124759 0.00279396 0.0
-0.00741449 0.000975471 0.0
-0.00242203 0.000131014 0.0
0.856404 0.002934 0.0
0.596844 0.0208956 0.0
0.392759 0.0528994 0.0
0.24439 0.0869454 0.0
0.141702 0.119189 0.0
0.0729935 0.147605 0.0
0.0281536 0.171469 0.0
-0.00057262 0.190815 0.0
-0.0186581 0.205889 0.0
-0.0300263 0.217168 0.0
-0.0374057 0.225234 0.0
-0.0425487 0.230573 0.0
-0.0465414 0.233586 0.0
-0.0500258 0.234598 0.0
-0.0533546 0.233873 0.0
-0.0566943 0.231632 0.0
-0.060095 0.228057 0.0
-0.0635366 0.223309 0.0
-0.0669595 0.217528 0.0
-0.0702845 0.210843 0.0
-0.0734266 0.203376 0.0
-0.0763032 0.19524 0.0
-0.0788401 0.186545 0.0
-0.0809743 0.177397 0.0
-0.0826562 0.167896 0.0
-0.0838496 0.158138 0.0
-0.0845321 0.148215 0.0
-0.0846933 0.138212 0.0
-0.0843341 0.128209 0.0
-0.0834649 0.118277 0.0
-0.0821035 0.108481 0.0
-0.0802735 0.0988816 0.0
-0.0780022 0.0895289 0.0
-0.0753192 0.0804684 0.0
-0.0722545 0.0717395 0.0
-0.0688378 0.0633761 0.0
-0.065097 0.055408 0.0
-0.0610579 0.0478612 0.0
-0.0567439 0.0407593 0.0
-0.052176 0.0341242 0.0
-0.0473732 0.0279776 0.0
-0.0423533 0.0223418 0.0
-0.0371341 0.0172414 0.0
-0.0317344 0.0127046 0.0
-0.0261757 0.00876576 0.0
-0.0204834 0.00546808 0.0
-0.0146882 0.00285731 0.0
-0.00882551 0.0009988 0.0
-0.00293551 0.000134242 0.0
0.866554 0.00245113 0.0
0.621469 0.0181822 0.0
0.423971 0.0469592 0.0
0.276483 0.0784521 0.0
0.171465 0.10905 0.0
0.098969 0.13667 0.0
0.0499085 0.160423 0.0
0.0170562 0.180152 0.0
-0.00494614 0.196042 0.0
-0.0197736 0.208314 0.0
-0.0301307 0.217403 0.0
-0.037834 0.22374 0.0
-0.0440395 0.227686 0.0
-0.0494495 0.229542 0.0
-0.0544647 0.229561 0.0
-0.0592884 0.227959 0.0
-0.0639982 0.224921 0.0
-0.0685938 0.220615 0.0
-0.0730294 0.215189 0.0
-0.077236 0.208785 0.0
-0.0811358 0.201535 0.0
-0.084652 0.193563 0.0
-0.0877153 0.184992 0.0
-0.0902676 0.175936 0.0
-0.0922642 0.166507 0.0
-0.0936746 0.156808 0.0
-0.0944824 0.146938 0.0
-0.094684 0.136989 0.0
-0.0942877 0.127043 0.0
-0.0933112 0.117176 0.0
-0.0917799 0.107455 0.0
-0.0897248 0.0979377 0.0
-0.0871804 0.0886765 0.0
-0.0841829 0.0797147 0.0
-0.0807681 0.0710891 0.0
-0.0769708 0.0628312 0.0
-0.0728231 0.0549673 0.0
-0.0683537 0.0475202 0.0
-0.0635881 0.0405104 0.0
-0.0585479 0.0339569 0.0
-0.0532517 0.0278788 0.0
-0.0477154 0.0222969 0.0
-0.0419532 0.0172349 0.0
-0.0359786 0.0127215 0.0
-0.0298054 0.00879228 0.0
-0.023449 0.00549351 0.0
-0.0169265 0.00287476 0.0
-0.0102562 0.00100607 0.0
-0.00345669 0.000135374 0.0
0.875422 0.00209364 0.0
0.64346 0.0160143 0.0
0.452517 0.0420364 0.0
0.306524 0.0712024 0.0
0.199948 0.100156 0.0
0.124364 0.126823 0.0
0.071632 0.150202 0.0
0.0350447 0.169999 0.0
0.0095066 0.186269 0.0
-0.00867307 0.199223 0.0
-0.0219813 0.209061 0.0
-0.0322678 0.216157 0.0
-0.0407415 0.220836 0.0
-0.0481524 0.223373 0.0
-0.0549393 0.224006 0.0
-0.0613354 0.222943 0.0
-0.0674402 0.220368 0.0
-0.0732697 0.216451 0.0
-0.07879 0.211348 0.0
-0.0839404 0.205206 0.0
-0.0886499 0.198168 0.0
-0.0928472 0.190368 0.0
-0.0964683 0.181937 0.0
-0.0994605 0.173001 0.0
-0.101785 0.163677 0.0
-0.103419 0.154078 0.0
-0.104352 0.144309 0.0
-0.10459 0.134466 0.0
-0.104148 0.124635 0.0
-0.103054 0.114895 0.0
-0.101343 0.105313 0.0
-0.0990522 0.0959482 0.0
-0.0962259 0.08685 0.0
-0.0929071 0.0780602 0.0
-0.0891384 0.0696129 0.0
-0.08496 0.0615361 0.0
-0.0804081 0.0538525 0.0
-0.0755149 0.0465811 0.0
-0.0703074 0.0397384 0.0
-0.0648077 0.0333401 0.0
-0.0590332 0.0274022 0.0
-0.0529972 0.021943 0.0
-0.0467093 0.0169846 0.0
-0.0401768 0.012555 0.0
-0.0334048 0.00869026 0.0
-0.0263972 0.00543785 0.0
-0.0191568 0.00284968 0.0
-0.0116845 0.00099867 0.0
-0.00397773 0.000134656 0.0
0.88326 0.00181755 0.0
0.663239 0.0142405 0.0
0.47871 0.0378863 0.0
0.334638 0.0649323 0.0
0.227107 0.0922796 0.0
0.149013 0.117896 0.0
0.0930842 0.140721 0.0
0.0531185 0.160352 0.0
0.0242836 0.176741 0.0
0.003012 0.190025 0.0
-0.0131944 0.200382 0.0
-0.0260584 0.208022 0.0
-0.0368245 0.213248 0.0
-0.0462809 0.216308 0.0
-0.0548965 0.217423 0.0
-0.0629276 0.216792 0.0
-0.070491 0.214596 0.0
-0.0776151 0.211004 0.0
-0.0842749 0.206176 0.0
-0.0904167 0.200266 0.0
-0.095975 0.193422 0.0
-0.100884 0.185789 0.0
-0.105084 0.177503 0.0
-0.108529 0.1687 0.0
-0.111188 0.159506 0.0
-0.113043 0.150039 0.0
-0.114096 0.140409 0.0
-0.114359 0.130717 0.0
-0.11386 0.121053 0.0
-0.112634 0.111495 0.0
-0.110728 0.102113 0.0
-0.108189 0.0929634 0.0
-0.105069 0.0840948 0.0
-0.10142 0.075546 0.0
-0.0972926 0.0673476 0.0
-0.0927316 0.0595236 0.0
-0.0877783 0.0520926 0.0
-0.0824679 0.0450692 0.0
-0.0768292 0.0384654 0.0
-0.0708842 0.0322929 0.0
-0.0646488 0.0265639 0.0
-0.0581329 0.0212936 0.0
-0.0513409 0.0165016 0.0
-0.0442727 0.012214 0.0
-0.0369237 0.00846623 0.0
-0.0292859 0.00530553 0.0
-0.0213469 0.00278461 0.0
-0.0130901 0.00097756 0.0
-0.0044914 0.000132241 0.0
0.890248 0.00159577 0.0
0.681131 0.012755 0.0
0.502811 0.0343259 0.0
0.360947 0.0594323 0.0
0.252931 0.0852235 0.0
0.172804 0.109734 0.0
0.114087 0.131869 0.0
0.0710646 0.151153 0.0
0.0391718 0.167457 0.0
0.014976 0.180842 0.0
-0.00399813 0.19147 0.0
-0.0194014 0.199461 0.0
-0.0324569 0.205057 0.0
-0.0439781 0.208488 0.0
-0.054456 0.209956 0.0
-0.0641633 0.209648 0.0
-0.0732292 0.207741 0.0
-0.0816906 0.204402 0.0
-0.089529 0.199793 0.0
-0.0966955 0.194073 0.0
-0.103129 0.187396 0.0
-0.108767 0.179914 0.0
-0.113557 0.171771 0.0
-0.117459 0.163109 0.0
-0.120448 0.154061 0.0
-0.122517 0.144751 0.0
-0.123675 0.135295 0.0
-0.123947 0.125795 0.0
-0.123371 0.116344 0.0
-0.121995 0.107021 0.0
-0.119875 0.0978948 0.0
-0.117071 0.0890214 0.0
-0.113644 0.0804461 0.0
-0.109655 0.0722042 0.0
-0.105161 0.0643226 0.0
-0.100215 0.0568205 0.0
-0.0948628 0.0497117 0.0
-0.0891422 0.0430058 0.0
-0.0830837 0.0367102 0.0
-0.0767092 0.0308314 0.0
-0.0700324 0.0253777 0.0
-0.0630594 0.02036 0.0
-0.0557887 0.0157949 0.0
-0.0482119 0.0117055 0.0
-0.0403144 0.00812521 0.0
-0.0320752 0.00509979 0.0
-0.0234664 0.00268129 0.0
-0.0144533 0.000943347 0.0
-0.0049909 0.000128201 0.0
0.896518 0.00141101 0.0
0.697389 0.0114826 0.0
0.525032 0.0312163 0.0
0.38556 0.0545352 0.0
0.277425 0.0788222 0.0
0.195658 0.102192 0.0
0.134504 0.123537 0.0
0.0887076 0.14233 0.0
0.053974 0.158378 0.0
0.0270152 0.171685 0.0
0.00542812 0.182352 0.0
-0.0124679 0.190529 0.0
-0.0277944 0.196335 0.0
-0.0413817 0.199994 0.0
-0.0537367 0.201689 0.0
-0.0651433 0.201595 0.0
-0.0757383 0.199883 0.0
-0.0855637 0.19672 0.0
-0.0946045 0.192269 0.0
-0.102815 0.186692 0.0
-0.110136 0.180149 0.0
-0.11651 0.172797 0.0
-0.12189 0.164788 0.0
-0.12624 0.156271 0.0
-0.129547 0.147383 0.0
-0.131811 0.138253 0.0
-0.133053 0.129001 0.0
-0.133311 0.119732 0.0
-0.132634 0.110539 0.0
-0.131084 0.101503 0.0