# vtk DataFile Version 3.0
Malha 2D com triângulos e temperatura
ASCII
DATASET UNSTRUCTURED_GRID

POINTS 2500 double
0 0 0
1 0 0
1 1 0
0 1 0
0.0204082 0 0
0.0408163 0 0
0.0612245 0 0
0.0816327 0 0
0.102041 0 0
0.122449 0 0
0.142857 0 0
0.163265 0 0
0.183673 0 0
0.204082 0 0
0.22449 0 0
0.244898 0 0
0.265306 0 0
0.285714 0 0
0.306122 0 0
0.326531 0 0
0.346939 0 0
0.367347 0 0
0.387755 0 0
0.408163 0 0
0.428571 0 0
0.44898 0 0
0.469388 0 0
0.489796 0 0
0.510204 0 0
0.530612 0 0
0.55102 0 0
0.571429 0 0
0.591837 0 0
0.612245 0 0
0.632653 0 0
0.653061 0 0
0.673469 0 0
0.693878 0 0
0.714286 0 0
0.734694 0 0
0.755102 0 0
0.77551 0 0
0.795918 0 0
0.816327 0 0
0.836735 0 0
0.857143 0 0
0.877551 0 0
0.897959 0 0
0.918367 0 0
0.938776 0 0
0.959184 0 0
0.979592 0 0
1 0.0204082 0
1 0.0408163 0
1 0.0612245 0
1 0.0816327 0
1 0.102041 0
1 0.122449 0
1 0.142857 0
1 0.163265 0
1 0.183673 0
1 0.204082 0
1 0.22449 0
1 0.244898 0
1 0.265306 0
1 0.285714 0
1 0.306122 0
1 0.326531 0
1 0.346939 0
1 0.367347 0
1 0.387755 0
1 0.408163 0
1 0.428571 0
1 0.44898 0
1 0.469388 0
1 0.489796 0
1 0.510204 0
1 0.530612 0
1 0.55102 0
1 0.571429 0
1 0.591837 0
1 0.612245 0
1 0.632653 0
1 0.653061 0
1 0.673469 0
1 0.693878 0
1 0.714286 0
1 0.734694 0
1 0.755102 0
1 0.77551 0
1 0.795918 0
1 0.816327 0
1 0.836735 0
1 0.857143 0
1 0.877551 0
1 0.897959 0
1 0.918367 0
1 0.938776 0
1 0.959184 0
1 0.979592 0
0.979592 1 0
0.959184 1 0
0.938776 1 0
0.918367 1 0
0.897959 1 0
0.877551 1 0
0.857143 1 0
0.836735 1 0
0.816327 1 0
0.795918 1 0
0.77551 1 0
0.755102 1 0
0.734694 1 0
0.714286 1 0
0.693878 1 0
0.673469 1 0
0.653061 1 0
0.632653 1 0
0.612245 1 0
0.591837 1 0
0.571429 1 0
0.55102 1 0
0.530612 1 0
0.510204 1 0
0.489796 1 0
0.469388 1 0
0.44898 1 0
0.428571 1 0
0.408163 1 0
0.387755 1 0
0.367347 1 0
0.346939 1 0
0.326531 1 0
0.306122 1 0
0.285714 1 0
0.265306 1 0
0.244898 1 0
0.22449 1 0
0.204082 1 0
0.183673 1 0
0.163265 1 0
0.142857 1 0
0.122449 1 0
0.102041 1 0
0.0816327 1 0
0.0612245 1 0
0.0408163 1 0
0.0204082 1 0
0 0.979592 0
0 0.959184 0
0 0.938776 0
0 0.918367 0
0 0.897959 0
0 0.877551 0
0 0.857143 0
0 0.836735 0
0 0.816327 0
0 0.795918 0
0 0.77551 0
0 0.755102 0
0 0.734694 0
0 0.714286 0
0 0.693878 0
0 0.673469 0
0 0.653061 0
0 0.632653 0
0 0.612245 0
0 0.591837 0
0 0.571429 0
0 0.55102 0
0 0.530612 0
0 0.510204 0
0 0.489796 0
0 0.469388 0
0 0.44898 0
0 0.428571 0
0 0.408163 0
0 0.387755 0
0 0.367347 0
0 0.346939 0
0 0.326531 0
0 0.306122 0
0 0.285714 0
0 0.265306 0
0 0.244898 0
0 0.22449 0
0 0.204082 0
0 0.183673 0
0 0.163265 0
0 0.142857 0
0 0.122449 0
0 0.102041 0
0 0.0816327 0
0 0.0612245 0
0 0.0408163 0
0 0.0204082 0
0.0204082 0.979592 0
0.0204082 0.959184 0
0.0204082 0.938776 0
0.0204082 0.918367 0
0.0204082 0.897959 0
0.0204082 0.877551 0
0.0204082 0.857143 0
0.0204082 0.836735 0
0.0204082 0.816327 0
0.0204082 0.795918 0
0.0204082 0.77551 0
0.0204082 0.755102 0
0.0204082 0.734694 0
0.0204082 0.714286 0
0.0204082 0.693878 0
0.0204082 0.673469 0
0.0204082 0.653061 0
0.0204082 0.632653 0
0.0204082 0.612245 0
0.0204082 0.591837 0
0.0204082 0.571429 0
0.0204082 0.55102 0
0.0204082 0.530612 0
0.0204082 0.510204 0
0.0204082 0.489796 0
0.0204082 0.469388 0
0.0204082 0.44898 0
0.0204082 0.428571 0
0.0204082 0.408163 0
0.0204082 0.387755 0
0.0204082 0.367347 0
0.0204082 0.346939 0
0.0204082 0.326531 0
0.0204082 0.306122 0
0.0204082 0.285714 0
0.0204082 0.265306 0
0.0204082 0.244898 0
0.0204082 0.22449 0
0.0204082 0.204082 0
0.0204082 0.183673 0
0.0204082 0.163265 0
0.0204082 0.142857 0
0.0204082 0.122449 0
0.0204082 0.102041 0
0.0204082 0.0816327 0
0.0204082 0.0612245 0
0.0204082 0.0408163 0
0.0204082 0.0204082 0
0.0408163 0.979592 0
0.0408163 0.959184 0
0.0408163 0.938776 0
0.0408163 0.918367 0
0.0408163 0.897959 0
0.0408163 0.877551 0
0.0408163 0.857143 0
0.0408163 0.836735 0
0.0408163 0.816327 0
0.0408163 0.795918 0
0.0408163 0.77551 0
0.0408163 0.755102 0
0.0408163 0.734694 0
0.0408163 0.714286 0
0.0408163 0.693878 0
0.0408163 0.673469 0
0.0408163 0.653061 0
0.0408163 0.632653 0
0.0408163 0.612245 0
0.0408163 0.591837 0
0.0408163 0.571429 0
0.0408163 0.55102 0
0.0408163 0.530612 0
0.0408163 0.510204 0
0.0408163 0.489796 0
0.0408163 0.469388 0
0.0408163 0.44898 0
0.0408163 0.428571 0
0.0408163 0.408163 0
0.0408163 0.387755 0
0.0408163 0.367347 0
0.0408163 0.346939 0
0.0408163 0.326531 0
0.0408163 0.306122 0
0.0408163 0.285714 0
0.0408163 0.265306 0
0.0408163 0.244898 0
0.0408163 0.22449 0
0.0408163 0.204082 0
0.0408163 0.183673 0
0.0408163 0.163265 0
0.0408163 0.142857 0
0.0408163 0.122449 0
0.0408163 0.102041 0
0.0408163 0.0816327 0
0.0408163 0.0612245 0
0.0408163 0.0408163 0
0.0408163 0.0204082 0
0.0612245 0.979592 0
0.0612245 0.959184 0
0.0612245 0.938776 0
0.0612245 0.918367 0
0.0612245 0.897959 0
0.0612245 0.877551 0
0.0612245 0.857143 0
0.0612245 0.836735 0
0.0612245 0.816327 0
0.0612245 0.795918 0
0.0612245 0.77551 0
0.0612245 0.755102 0
0.0612245 0.734694 0
0.0612245 0.714286 0
0.0612245 0.693878 0
0.0612245 0.673469 0
0.0612245 0.653061 0
0.0612245 0.632653 0
0.0612245 0.612245 0
0.0612245 0.591837 0
0.0612245 0.571429 0
0.0612245 0.55102 0
0.0612245 0.530612 0
0.0612245 0.510204 0
0.0612245 0.489796 0
0.0612245 0.469388 0
0.0612245 0.44898 0
0.0612245 0.428571 0
0.0612245 0.408163 0
0.0612245 0.387755 0
0.0612245 0.367347 0
0.0612245 0.346939 0
0.0612245 0.326531 0
0.0612245 0.306122 0
0.0612245 0.285714 0
0.0612245 0.265306 0
0.0612245 0.244898 0
0.0612245 0.22449 0
0.0612245 0.204082 0
0.0612245 0.183673 0
0.0612245 0.163265 0
0.0612245 0.142857 0
0.0612245 0.122449 0
0.0612245 0.102041 0
0.0612245 0.0816327 0
0.0612245 0.0612245 0
0.0612245 0.0408163 0
0.0612245 0.0204082 0
0.0816327 0.979592 0
0.0816327 0.959184 0
0.0816327 0.938776 0
0.0816327 0.918367 0
0.0816327 0.897959 0
0.0816327 0.877551 0
0.0816327 0.857143 0
0.0816327 0.836735 0
0.0816327 0.816327 0
0.0816327 0.795918 0
0.0816327 0.77551 0
0.0816327 0.755102 0
0.0816327 0.734694 0
0.0816327 0.714286 0
0.0816327 0.693878 0
0.0816327 0.673469 0
0.0816327 0.653061 0
0.0816327 0.632653 0
0.0816327 0.612245 0
0.0816327 0.591837 0
0.0816327 0.571429 0
0.0816327 0.55102 0
0.0816327 0.530612 0
0.0816327 0.510204 0
0.0816327 0.489796 0
0.0816327 0.469388 0
0.0816327 0.44898 0
0.0816327 0.428571 0
0.0816327 0.408163 0
0.0816327 0.387755 0
0.0816327 0.367347 0
0.0816327 0.346939 0
0.0816327 0.326531 0
0.0816327 0.306122 0
0.0816327 0.285714 0
0.0816327 0.265306 0
0.0816327 0.244898 0
0.0816327 0.22449 0
0.0816327 0.204082 0
0.0816327 0.183673 0
0.0816327 0.163265 0
0.0816327 0.142857 0
0.0816327 0.122449 0
0.0816327 0.102041 0
0.0816327 0.0816327 0
0.0816327 0.0612245 0
0.0816327 0.0408163 0
0.0816327 0.0204082 0
0.102041 0.979592 0
0.102041 0.959184 0
0.102041 0.938776 0
0.102041 0.918367 0
0.102041 0.897959 0
0.102041 0.877551 0
0.102041 0.857143 0
0.102041 0.836735 0
0.102041 0.816327 0
0.102041 0.795918 0
0.102041 0.77551 0
0.102041 0.755102 0
0.102041 0.734694 0
0.102041 0.714286 0
0.102041 0.693878 0
0.102041 0.673469 0
0.102041 0.653061 0
0.102041 0.632653 0
0.102041 0.612245 0
0.102041 0.591837 0
0.102041 0.571429 0
0.102041 0.55102 0
0.102041 0.530612 0
0.102041 0.510204 0
0.102041 0.489796 0
0.102041 0.469388 0
0.102041 0.44898 0
0.102041 0.428571 0
0.102041 0.408163 0
0.102041 0.387755 0
0.102041 0.367347 0
0.102041 0.346939 0
0.102041 0.326531 0
0.102041 0.306122 0
0.102041 0.285714 0
0.102041 0.265306 0
0.102041 0.244898 0
0.102041 0.22449 0
0.102041 0.204082 0
0.102041 0.183673 0
0.102041 0.163265 0
0.102041 0.142857 0
0.102041 0.122449 0
0.102041 0.102041 0
0.102041 0.0816327 0
0.102041 0.0612245 0
0.102041 0.0408163 0
0.102041 0.0204082 0
0.122449 0.979592 0
0.122449 0.959184 0
0.122449 0.938776 0
0.122449 0.918367 0
0.122449 0.897959 0
0.122449 0.877551 0
0.122449 0.857143 0
0.122449 0.836735 0
0.122449 0.816327 0
0.122449 0.795918 0
0.122449 0.77551 0
0.122449 0.755102 0
0.122449 0.734694 0
0.122449 0.714286 0
0.122449 0.693878 0
0.122449 0.673469 0
0.122449 0.653061 0
0.122449 0.632653 0
0.122449 0.612245 0
0.122449 0.591837 0
0.122449 0.571429 0
0.122449 0.55102 0
0.122449 0.530612 0
0.122449 0.510204 0
0.122449 0.489796 0
0.122449 0.469388 0
0.122449 0.44898 0
0.122449 0.428571 0
0.122449 0.408163 0
0.122449 0.387755 0
0.122449 0.367347 0
0.122449 0.346939 0
0.122449 0.326531 0
0.122449 0.306122 0
0.122449 0.285714 0
0.122449 0.265306 0
0.122449 0.244898 0
0.122449 0.22449 0
0.122449 0.204082 0
0.122449 0.183673 0
0.122449 0.163265 0
0.122449 0.142857 0
0.122449 0.122449 0
0.122449 0.102041 0
0.122449 0.0816327 0
0.122449 0.0612245 0
0.122449 0.0408163 0
0.122449 0.0204082 0
0.142857 0.979592 0
0.142857 0.959184 0
0.142857 0.938776 0
0.142857 0.918367 0
0.142857 0.897959 0
0.142857 0.877551 0
0.142857 0.857143 0
0.142857 0.836735 0
0.142857 0.816327 0
0.142857 0.795918 0
0.142857 0.77551 0
0.142857 0.755102 0
0.142857 0.734694 0
0.142857 0.714286 0
0.142857 0.693878 0
0.142857 0.673469 0
0.142857 0.653061 0
0.142857 0.632653 0
0.142857 0.612245 0
0.142857 0.591837 0
0.142857 0.571429 0
0.142857 0.55102 0
0.142857 0.530612 0
0.142857 0.510204 0
0.142857 0.489796 0
0.142857 0.469388 0
0.142857 0.44898 0
0.142857 0.428571 0
0.142857 0.408163 0
0.142857 0.387755 0
0.142857 0.367347 0
0.142857 0.346939 0
0.142857 0.326531 0
0.142857 0.306122 0
0.142857 0.285714 0
0.142857 0.265306 0
0.142857 0.244898 0
0.142857 0.22449 0
0.142857 0.204082 0
0.142857 0.183673 0
0.142857 0.163265 0
0.142857 0.142857 0
0.142857 0.122449 0
0.142857 0.102041 0
0.142857 0.0816327 0
0.142857 0.0612245 0
0.142857 0.0408163 0
0.142857 0.0204082 0
0.163265 0.979592 0
0.163265 0.959184 0
0.163265 0.938776 0
0.163265 0.918367 0
0.163265 0.897959 0
0.163265 0.877551 0
0.163265 0.857143 0
0.163265 0.836735 0
0.163265 0.816327 0
0.163265 0.795918 0
0.163265 0.77551 0
0.163265 0.755102 0
0.163265 0.734694 0
0.163265 0.714286 0
0.163265 0.693878 0
0.163265 0.673469 0
0.163265 0.653061 0
0.163265 0.632653 0
0.163265 0.612245 0
0.163265 0.591837 0
0.163265 0.571429 0
0.163265 0.55102 0
[...]
CELL_DATA 2401
VECTORS velocity double
0.257354 0.157462 0.0
-0.00271889 0.264568 0.0
-0.032332 0.205404 0.0
-0.0254077 0.150479 0.0
-0.0160793 0.1129 0.0
-0.00971289 0.0875157 0.0
-0.00592933 0.0704372 0.0
-0.00373748 0.058758 0.0
-0.00244902 0.0505667 0.0
-0.00166798 0.044673 0.0
-0.00117815 0.0403254 0.0
-0.000861842 0.0370359 0.0
-0.000653434 0.0344782 0.0
-0.000514837 0.0324278 0.0
-0.000422936 0.0307274 0.0
-0.000363065 0.0292641 0.0
-0.000325535 0.027957 0.0
-0.000303709 0.0267471 0.0
-0.000292894 0.0255923 0.0
-0.000289676 0.0244623 0.0
-0.000291512 0.0233364 0.0
-0.000296465 0.0222011 0.0
-0.000303046 0.0210484 0.0
-0.000310096 0.0198749 0.0
-0.00031672 0.0186804 0.0
-0.000322235 0.0174675 0.0
-0.000326132 0.0162409 0.0
-0.00032805 0.0150068 0.0
-0.000327755 0.0137723 0.0
-0.000325115 0.0125452 0.0
-0.000320086 0.0113337 0.0
-0.000312694 0.010146 0.0
-0.000303016 0.00899036 0.0
-0.000291165 0.00787444 0.0
-0.000277275 0.00680574 0.0
-0.000261485 0.00579126 0.0
-0.000243929 0.00483756 0.0
-0.000224718 0.00395076 0.0
-0.000203928 0.00313662 0.0
-0.00018159 0.0024006 0.0
-0.000157671 0.00174798 0.0
-0.000132068 0.00118393 0.0
-0.000104613 0.000713604 0.0
-7.51221e-05 0.000342038 0.0
-4.35762e-05 7.37555e-05 0.0
-1.06478e-05 -8.83404e-05 0.0
2.09508e-05 -0.000145449 0.0
4.36994e-05 -0.000112089 0.0
3.81512e-05 -3.79518e-05 0.0
0.340584 0.122944 0.0
-0.000716525 0.249356 0.0
-0.065336 0.27149 0.0
-0.0633609 0.251962 0.0
-0.0486006 0.221402 0.0
-0.0350037 0.19152 0.0
-0.0249087 0.166128 0.0
-0.0178423 0.145726 0.0
-0.0129637 0.129697 0.0
-0.0095874 0.117175 0.0
-0.00723445 0.107353 0.0
-0.00558543 0.099561 0.0
-0.00442807 0.0932681 0.0
-0.00361945 0.0880665 0.0
-0.00306136 0.0836447 0.0
-0.00268487 0.0797664 0.0
-0.00244057 0.0762536 0.0
-0.00229233 0.0729734 0.0
-0.00221322 0.0698275 0.0
-0.00218282 0.0667448 0.0
-0.00218544 0.0636755 0.0
-0.00220886 0.060587 0.0
-0.00224349 0.0574598 0.0
-0.00228183 0.0542853 0.0
-0.00231801 0.0510633 0.0
-0.0023475 0.0478002 0.0
-0.00236691 0.0445073 0.0
-0.0023738 0.0411998 0.0
-0.00236654 0.0378956 0.0
-0.00234415 0.0346141 0.0
-0.0023062 0.0313757 0.0
-0.00225274 0.028201 0.0
-0.00218411 0.0251107 0.0
-0.00210093 0.0221245 0.0
-0.00200394 0.0192616 0.0
-0.00189397 0.0165399 0.0
-0.00177185 0.0139765 0.0
-0.00163833 0.0115873 0.0
-0.00149406 0.00938721 0.0
-0.00133955 0.00739022 0.0
-0.00117516 0.00560952 0.0
-0.00100117 0.00405738 0.0
-0.000817999 0.00274499 0.0
-0.000626597 0.00168176 0.0
-0.000429488 0.000873862 0.0
-0.000232928 0.000321483 0.0
-5.13899e-05 1.36407e-05 0.0
8.49443e-05 -8.31955e-05 0.0
0.000111495 -4.24842e-05 0.0
0.500805 0.0767773 0.0
0.0989376 0.183142 0.0
-0.0395388 0.249073 0.0
-0.0735942 0.2655 0.0
-0.0719988 0.257175 0.0
-0.0606074 0.239414 0.0
-0.0482586 0.219488 0.0
-0.0376011 0.200683 0.0
-0.0291301 0.184202 0.0
-0.0226457 0.170245 0.0
-0.017782 0.158584 0.0
-0.0141839 0.148846 0.0
-0.0115555 0.140638 0.0
-0.00966374 0.133602 0.0
-0.00832895 0.127433 0.0
-0.00741384 0.121881 0.0
-0.00681325 0.116748 0.0
-0.00644622 0.111879 0.0
-0.00624999 0.107158 0.0
-0.00617545 0.102498 0.0
-0.00618393 0.0978377 0.0
-0.00624478 0.0931379 0.0
-0.00633363 0.0883756 0.0
-0.00643121 0.083542 0.0
-0.00652233 0.0786392 0.0
-0.00659526 0.0736782 0.0
-0.00664114 0.0686765 0.0
-0.00665356 0.0636568 0.0
-0.00662816 0.0586454 0.0
-0.00656235 0.0536706 0.0
-0.00645493 0.0487621 0.0
-0.00630585 0.04395 0.0
-0.00611596 0.0392641 0.0
-0.00588673 0.0347333 0.0
-0.00562005 0.0303853 0.0
-0.00531804 0.0262466 0.0
-0.00498287 0.022342 0.0
-0.00461661 0.0186947 0.0
-0.00422119 0.0153266 0.0
-0.00379834 0.0122579 0.0
-0.00334974 0.00950715 0.0
-0.00287721 0.00709128 0.0
-0.00238339 0.00502481 0.0
-0.00187289 0.00331885 0.0
-0.00135449 0.00197924 0.0
-0.000845343 0.00100333 0.0
-0.000378373 0.000374154 0.0
-1.25051e-05 5.25858e-05 0.0
0.000142318 -1.88969e-05 0.0
0.609904 0.0480211 0.0
0.195416 0.133895 0.0
0.0110925 0.209311 0.0
-0.0582679 0.246301 0.0
-0.0761759 0.256864 0.0
-0.0736672 0.253509 0.0
-0.0642235 0.243421 0.0
-0.0534802 0.230843 0.0
-0.0436259 0.218024 0.0
-0.0353554 0.206005 0.0
-0.0287397 0.195164 0.0
-0.0236122 0.185535 0.0
-0.0197372 0.176988 0.0
-0.0168797 0.169328 0.0
-0.0148304 0.162352 0.0
-0.0134132 0.15587 0.0
-0.0124829 0.149719 0.0
-0.0119216 0.143765 0.0
-0.0116339 0.137901 0.0
-0.0115425 0.13205 0.0
-0.0115852 0.126156 0.0
-0.0117116 0.120184 0.0
-0.0118809 0.114117 0.0
-0.0120606 0.107949 0.0
-0.012225 0.10169 0.0
-0.012354 0.0953555 0.0
-0.0124323 0.0889709 0.0
-0.0124491 0.0825655 0.0
-0.0123968 0.0761724 0.0
-0.012271 0.0698275 0.0
-0.0120695 0.0635675 0.0
-0.0117925 0.0574296 0.0
-0.0114413 0.0514503 0.0
-0.0110186 0.0456652 0.0
-0.0105276 0.0401083 0.0
-0.00997229 0.0348121 0.0
-0.00935642 0.0298068 0.0
-0.00868391 0.025121 0.0
-0.00795849 0.0207813 0.0
-0.00718378 0.016812 0.0
-0.00636354 0.0132353 0.0
-0.00550217 0.0100709 0.0
-0.00460578 0.00733537 0.0
-0.00368407 0.00504057 0.0
-0.00275351 0.00319239 0.0
-0.00184283 0.00178798 0.0
-0.00100194 0.000809935 0.0
-0.000312879 0.000224199 0.0
8.41292e-05 1.21235e-05 0.0
0.680254 0.0301391 0.0
0.278132 0.0981387 0.0
0.0692909 0.170926 0.0
-0.0276983 0.217459 0.0
-0.0652771 0.241003 0.0
-0.0744644 0.249635 0.0
-0.0711469 0.249277 0.0
-0.0631065 0.244023 0.0
-0.0540222 0.23644 0.0
-0.045531 0.228007 0.0
-0.0382634 0.219509 0.0
-0.0323659 0.211314 0.0
-0.0277655 0.203541 0.0
-0.0243013 0.196182 0.0
-0.0217889 0.189163 0.0
-0.0200496 0.182386 0.0
-0.0189225 0.17575 0.0
-0.0182685 0.169168 0.0
-0.0179693 0.162565 0.0
-0.0179259 0.155886 0.0
-0.0180558 0.149094 0.0
-0.0182911 0.142166 0.0
-0.0185761 0.135098 0.0
-0.0188656 0.127895 0.0
-0.0191237 0.120573 0.0
-0.019322 0.113158 0.0
-0.0194394 0.105681 0.0
-0.0194604 0.0981786 0.0
-0.0193745 0.0906911 0.0
-0.0191756 0.08326 0.0
-0.0188611 0.0759279 0.0
-0.0184311 0.0687371 0.0
-0.0178882 0.0617294 0.0
-0.0172362 0.0549449 0.0
-0.0164804 0.048422 0.0
-0.0156264 0.042197 0.0
-0.0146802 0.036304 0.0
-0.013648 0.030775 0.0
-0.0125356 0.0256393 0.0
-0.0113491 0.0209241 0.0
-0.0100949 0.0166537 0.0
-0.00878066 0.0128495 0.0
-0.00741659 0.00952937 0.0
-0.00601792 0.00670638 0.0
-0.00460864 0.00438774 0.0
-0.00322747 0.00257339 0.0
-0.00193697 0.0012504 0.0
-0.000833626 0.000396656 0.0
-7.10786e-05 4.21339e-05 0.0
0.72963 0.0191735 0.0
0.348646 0.07303 0.0
0.127623 0.13931 0.0
0.0111045 0.188357 0.0
-0.0441628 0.219846 0.0
-0.0655743 0.237162 0.0
-0.0699306 0.244838 0.0
-0.0663517 0.246338 0.0
-0.05965 0.244109 0.0
-0.0522807 0.23975 0.0
-0.045422 0.234249 0.0
-0.0395682 0.228179 0.0
-0.034857 0.221849 0.0
-0.0312476 0.215401 0.0
-0.0286186 0.208884 0.0
-0.026819 0.202293 0.0
-0.025695 0.1956 0.0
-0.0251022 0.188771 0.0
-0.0249115 0.181774 0.0
-0.0250101 0.174584 0.0
-0.0253014 0.167189 0.0
-0.025704 0.159588 0.0
-0.0261498 0.15179 0.0
-0.0265832 0.143814 0.0
-0.0269596 0.135689 0.0
-0.0272436 0.127448 0.0
-0.0274089 0.119132 0.0
-0.0274363 0.110784 0.0
-0.027313 0.10245 0.0
-0.0270318 0.0941783 0.0
-0.02659 0.086015 0.0
-0.0259886 0.078007 0.0
-0.0252312 0.0701997 0.0
-0.0243237 0.0626363 0.0
-0.0232733 0.0553582 0.0
-0.022088 0.048404 0.0
-0.0207763 0.04181 0.0
-0.0193466 0.03561 0.0
-0.0178075 0.0298349 0.0
-0.0161677 0.0245134 0.0
-0.0144366 0.0196709 0.0
-0.0126251 0.01533 0.0
-0.0107477 0.0115099 0.0
-0.00882462 0.00822527 0.0
-0.00688609 0.00548632 0.0
-0.00497798 0.0032982 0.0
-0.00317023 0.00165594 0.0
-0.00156513 0.000552823 0.0
-0.000315924 6.79653e-05 0.0
0.765639 0.0125807 0.0
0.408093 0.0557182 0.0
0.182668 0.11462 0.0
0.0527362 0.162828 0.0
-0.0167959 0.198179 0.0
-0.0496331 0.221297 0.0
-0.0620876 0.235012 0.0
-0.0639011 0.242082 0.0
-0.060645 0.244633 0.0
-0.0554093 0.244184 0.0
-0.0498434 0.24177 0.0
-0.04477 0.238064 0.0
-0.0405447 0.233487 0.0
-0.0372659 0.228289 0.0
-0.0348961 0.222615 0.0
-0.0333321 0.21654 0.0
-0.0324435 0.210102 0.0
-0.0320949 0.203319 0.0
-0.0321567 0.196202 0.0
-0.0325106 0.188761 0.0
-0.0330521 0.181011 0.0
-0.0336909 0.172974 0.0
-0.0343506 0.164677 0.0
-0.0349676 0.156154 0.0
-0.0354908 0.147447 0.0
-0.0358799 0.138599 0.0
-0.0361045 0.12966 0.0
-0.036143 0.12068 0.0
-0.0359814 0.111712 0.0
-0.0356122 0.102807 0.0
-0.0350335 0.0940177 0.0
-0.0342474 0.0853934 0.0
-0.0332598 0.0769821 0.0
-0.0320785 0.0688292 0.0
-0.0307134 0.0609775 0.0
-0.0291751 0.053467 0.0
-0.0274748 0.0463348 0.0
-0.0256235 0.0396154 0.0
-0.0236326 0.0333403 0.0
-0.0215134 0.0275385 0.0
-0.0192784 0.0222362 0.0
-0.0169417 0.0174568 0.0
-0.0145212 0.0132207 0.0
-0.0120412 0.00954512 0.0
-0.00953605 0.00644419 0.0
-0.00705538 0.00393002 0.0
-0.00467129 0.00200734 0.0
-0.00248452 0.000685744 0.0
-0.000638085 8.88876e-05 0.0
0.792695 0.00860302 0.0
0.458201 0.0436716 0.0
0.233249 0.0955464 0.0
0.0945536 0.141391 0.0
0.0142857 0.177855 0.0
-0.0288445 0.204639 0.0
-0.0492119 0.222664 0.0
-0.0567787 0.234063 0.0
-0.0575792 0.240584 0.0
-0.0551623 0.243577 0.0
-0.0515535 0.244032 0.0
-0.0478587 0.242643 0.0
-0.0446357 0.239885 0.0
-0.0421211 0.236075 0.0
-0.0403688 0.23142 0.0
-0.0393327 0.226058 0.0
-0.0389165 0.22008 0.0
-0.0390029 0.21355 0.0
-0.03947 0.206518 0.0
-0.040201 0.199028 0.0
-0.0410889 0.19112 0.0
-0.0420392 0.182839 0.0
-0.0429704 0.174232 0.0
-0.0438145 0.165349 0.0
-0.0445161 0.156243 0.0
-0.0450318 0.14697 0.0
-0.0453292 0.137589 0.0
-0.0453855 0.128156 0.0
-0.045187 0.11873 0.0
-0.0447269 0.109369 0.0
-0.0440048 0.100126 0.0
-0.0430252 0.0910556 0.0
-0.0417963 0.0822065 0.0
-0.0403291 0.0736256 0.0
-0.0386363 0.0653564 0.0
-0.0367314 0.0574391 0.0
-0.0346285 0.0499107 0.0
-0.0323416 0.0428055 0.0
-0.0298848 0.0361547 0.0
-0.0272721 0.0299871 0.0
-0.0245184 0.024329 0.0
-0.0216407 0.0192043 0.0
-0.0186593 0.0146349 0.0
-0.0156009 0.0106408 0.0
-0.0125017 0.00724089 0.0
-0.00941188 0.00445473 0.0
-0.00640111 0.00229734 0.0
-0.00356287 0.000793682 0.0
-0.00102375 0.000105136 0.0
0.813741 0.00616107 0.0
0.500776 0.0351418 0.0
0.279208 0.0808087 0.0
0.135094 0.123716 0.0
0.046556 0.159952 0.0
-0.00498889 0.188494 0.0
-0.0327051 0.20946 0.0
-0.0460171 0.224067 0.0
-0.051158 0.233728 0.0
-0.0519787 0.239591 0.0
-0.0507884 0.242552 0.0
-0.0489238 0.243278 0.0
-0.0471179 0.242255 0.0
-0.045734 0.23983 0.0
-0.0449147 0.236251 0.0
-0.0446734 0.231696 0.0
-0.0449523 0.226296 0.0
-0.0456574 0.220153 0.0
-0.04668 0.213348 0.0
-0.0479096 0.205953 0.0
-0.049241 0.198036 0.0
-0.0505794 0.189661 0.0
-0.0518417 0.180894 0.0
-0.0529577 0.171799 0.0
-0.0538705 0.162444 0.0
-0.0545356 0.152894 0.0
-0.0549202 0.143218 0.0
-0.0550024 0.13348 0.0
-0.0547695 0.123744 0.0
-0.0542171 0.114072 0.0
-0.0533474 0.104521 0.0
-0.052168 0.0951474 0.0
-0.0506905 0.0860014 0.0
-0.0489293 0.0771304 0.0
-0.0469006 0.0685777 0.0
-0.0446213 0.0603831 0.0
-0.0421088 0.0525829 0.0
-0.0393798 0.0452101 0.0
-0.0364512 0.0382952 0.0
-0.0333393 0.0318661 0.0
-0.0300613 0.0259487 0.0
-0.0266357 0.0205673 0.0
-0.0230845 0.0157452 0.0
-0.019435 0.0115051 0.0
-0.0157228 0.00787078 0.0
-0.0119956 0.00486929 0.0
-0.00831707 0.00252532 0.0
-0.00476945 0.000877431 0.0
-0.00145939 0.000117272 0.0
0.830652 0.00462148 0.0
0.537331 0.0289666 0.0
0.320841 0.0693068 0.0
0.173755 0.109136 0.0
0.0790289 0.144378 0.0
0.0206558 0.173471 0.0
-0.0137032 0.196276 0.0
-0.0325342 0.213183 0.0
-0.0420764 0.22524 0.0
-0.0463534 0.233406 0.0
-0.0478766 0.238466 0.0
-0.0481624 0.241034 0.0
-0.0480885 0.241577 0.0
-0.0481286 0.240451 0.0
-0.0485055 0.237922 0.0
-0.0492895 0.234192 0.0
-0.0504615 0.229421 0.0
-0.0519528 0.223736 0.0
-0.0536706 0.217246 0.0
-0.0555135 0.210046 0.0
-0.0573818 0.202224 0.0
-0.0591825 0.193865 0.0
-0.0608337 0.18505 0.0
-0.0622656 0.175859 0.0
-0.0634217 0.166372 0.0
-0.0642585 0.156664 0.0
-0.0647447 0.146813 0.0
-0.0648605 0.13689 0.0
-0.0645961 0.126965 0.0
-0.0639506 0.117103 0.0
-0.0629299 0.107366 0.0
-0.0615458 0.0978096 0.0
-0.0598141 0.0884864 0.0
-0.0577535 0.0794434 0.0
-0.0553841 0.0707233 0.0
-0.0527267 0.0623646 0.0
-0.0498019 0.0544022 0.0
-0.0466296 0.0468675 0.0
-0.0432291 0.0397894 0.0
-0.0396188 0.0331944 0.0
-0.0358173 0.0271076 0.0
-0.0318442 0.0215535 0.0
-0.0277213 0.0165563 0.0
-0.023475 0.0121414 0.0
-0.0191383 0.00833701 0.0
-0.0147538 0.0051768 0.0
-0.0103763 0.00269414 0.0
-0.00607415 0.000938891 0.0
-0.00193254 0.000125912 0.0
0.844616 0.00361753 0.0
0.569056 0.0243888 0.0
0.358567 0.0602199 0.0
0.210244 0.0970713 0.0
0.110932 0.130922 0.0
0.0469109 0.159902 0.0
0.00698105 0.183537 0.0
-0.0170703 0.202038 0.0
-0.0309462 0.215874 0.0
-0.0387628 0.225836 0.0
-0.0431693 0.232599 0.0
-0.0458186 0.236714 0.0
-0.0477045 0.238619 0.0
-0.0493928 0.238657 0.0
-0.0511763 0.2371 0.0
-0.0531764 0.234163 0.0
-0.0554102 0.23002 0.0
-0.0578341 0.22482 0.0
-0.0603716 0.218688 0.0
-0.0629323 0.211741 0.0
-0.0654227 0.204083 0.0
-0.0677545 0.195816 0.0
-0.0698484 0.187035 0.0
-0.0716371 0.177834 0.0
-0.0730664 0.168304 0.0
-0.0740952 0.158532 0.0
-0.0746955 0.1486 0.0
-0.0748514 0.13859 0.0
-0.0745574 0.128575 0.0
-0.0738171 0.118624 0.0
-0.0726417 0.108802 0.0
-0.0710482 0.0991655 0.0
-0.0690574 0.0897678 0.0
-0.066693 0.0806551 0.0
-0.0639799 0.071869 0.0
-0.0609429 0.0634462 0.0
-0.0576063 0.0554196 0.0
-0.053993 0.0478183 0.0
-0.0501246 0.0406691 0.0
-0.0460212 0.0339967 0.0
-0.0417022 0.0278249 0.0
-0.037187 0.0221778 0.0
-0.0324964 0.0170801 0.0
-0.027654 0.0125593 0.0
-0.0226884 0.00864727 0.0
-0.0176348 0.00538337 0.0
-0.0125372 0.00280808 0.0
-0.00744864 0.000980285 0.0
-0.00243205 0.000131622 0.0
0.856416 0.00293621 0.0
0.596882 0.0209088 0.0
0.392837 0.0529328 0.0
0.24452 0.0870036 0.0
0.14189 0.119276 0.0
0.0732394 0.147723 0.0
0.0284526 0.171621 0.0
-0.000229355 0.191003 0.0
-0.0182859 0.206117 0.0
-0.0296349 0.217435 0.0
-0.0370049 0.225539 0.0
-0.042148 0.230915 0.0
-0.0461493 0.233963 0.0
-0.0496503 0.235008 0.0
-0.0530024 0.234316 0.0
-0.0563712 0.232103 0.0
-0.059806 0.228555 0.0
-0.0632859 0.22383 0.0
-0.0667505 0.218068 0.0
-0.0701197 0.211399 0.0
-0.0733079 0.203944 0.0
-0.0762317 0.195816 0.0
-0.0788161 0.187125 0.0
-0.0809975 0.177975 0.0
-0.0827254 0.16847 0.0
-0.0839631 0.158703 0.0
-0.0846873 0.148767 0.0
-0.0848871 0.138748 0.0
-0.0845629 0.128724 0.0
-0.0837245 0.118769 0.0
-0.0823893 0.108948 0.0
-0.0805805 0.0993193 0.0
-0.0783252 0.0899361 0.0
-0.0756529 0.0808437 0.0
-0.0725934 0.0720816 0.0
-0.0691765 0.0636844 0.0
-0.0654302 0.0556823 0.0
-0.0613804 0.0481017 0.0
-0.0570509 0.0409665 0.0
-0.052463 0.0342993 0.0
-0.0476363 0.0281221 0.0
-0.042589 0.0224576 0.0
-0.0373395 0.0173308 0.0
-0.0319075 0.0127704 0.0
-0.0263153 0.0088109 0.0
-0.0205893 0.005496 0.0
-0.0147609 0.00287171 0.0
-0.00886681 0.00100373 0.0
-0.00294805 0.000134869 0.0
0.866573 0.0024533 0.0
0.621524 0.0181956 0.0
0.424072 0.0469931 0.0
0.276639 0.0785111 0.0
0.171682 0.109137 0.0
0.0992473 0.136788 0.0
0.0502414 0.160573 0.0
0.0174341 0.180336 0.0
-0.00453463 0.196259 0.0
-0.0193445 0.208568 0.0
-0.0296936 0.217693 0.0
-0.0373984 0.224064 0.0
-0.0436142 0.228043 0.0
-0.0490426 0.22993 0.0
-0.0540832 0.229978 0.0
-0.0589386 0.228403 0.0
-0.0636854 0.22539 0.0
-0.0683224 0.221105 0.0
-0.0728031 0.215698 0.0
-0.0770576 0.209309 0.0
-0.0810074 0.20207 0.0
-0.0845748 0.194106 0.0
-0.0876897 0.185538 0.0
-0.0902932 0.176483 0.0
-0.0923399 0.167049 0.0
-0.0937985 0.157343 0.0
-0.0946517 0.147462 0.0
-0.0948955 0.137497 0.0
-0.0945374 0.127533 0.0
-0.0935945 0.117644 0.0
-0.0920919 0.107899 0.0
-0.0900602 0.0983556 0.0
-0.0875337 0.0890661 0.0
-0.0845481 0.0800743 0.0
-0.0811396 0.0714177 0.0
-0.0773426 0.063128 0.0
-0.0731894 0.055232 0.0
-0.068709 0.047753 0.0
-0.0639271 0.0407117 0.0
-0.0588657 0.0341275 0.0
-0.053544 0.0280202 0.0
-0.0479782 0.0224106 0.0
-0.0421834 0.0173231 0.0
-0.0361737 0.0127866 0.0
-0.0299639 0.00883714 0.0
-0.0235702 0.00552137 0.0
-0.0170107 0.00288918 0.0
-0.0103047 0.00101103 0.0
-0.00347179 0.000136009 0.0
0.875448 0.00209567 0.0
0.643531 0.0160274 0.0
0.45264 0.0420697 0.0
0.306707 0.0712601 0.0
0.200195 0.100241 0.0
0.124673 0.126936 0.0
0.0719966 0.150346 0.0
0.0354549 0.170173 0.0
0.00995016 0.186473 0.0
-0.00821005 0.19946 0.0
-0.0215111 0.20933 0.0
-0.0318005 0.216457 0.0
-0.0402859 0.221166 0.0
-0.0477167 0.223731 0.0
-0.054531 0.22439 0.0
-0.0609609 0.223352 0.0
-0.0671052 0.2208 0.0
-0.0729789 0.216903 0.0
-0.0785473 0.211817 0.0
-0.0837489 0.20569 0.0
-0.0885119 0.198663 0.0
-0.092764 0.190871 0.0
-0.0964405 0.182445 0.0
-0.0994878 0.173509 0.0
-0.101866 0.164182 0.0
-0.103552 0.154577 0.0
-0.104534 0.144798 0.0
-0.104817 0.134941 0.0
-0.104417 0.125094 0.0
-0.103359 0.115334 0.0
-0.101679 0.10573 0.0
-0.0994139 0.096341 0.0
-0.0966071 0.0872169 0.0
-0.0933017 0.0783996 0.0
-0.0895402 0.0699237 0.0
-0.0853626 0.0618175 0.0
-0.0808054 0.0541041 0.0
-0.075901 0.0468029 0.0
-0.0706765 0.0399308 0.0
-0.0651546 0.0335037 0.0
-0.0593532 0.0275382 0.0
-0.053286 0.0220528 0.0
-0.0469634 0.0170701 0.0
-0.0403933 0.0126184 0.0
-0.0335817 0.00873408 0.0
-0.0265334 0.00546517 0.0
-0.0192523 0.00286389 0.0
-0.0117402 0.00100358 0.0
-0.00399538 0.00013529 0.0
0.883293 0.00181937 0.0
0.663326 0.0142527 0.0
0.478855 0.0379179 0.0
0.334846 0.0649869 0.0
0.227381 0.0923595 0.0
0.14935 0.118003 0.0
0.0934774 0.140854 0.0
0.0535577 0.160512 0.0
0.0247568 0.176928 0.0
0.00350703 0.190238 0.0
-0.0126942 0.200625 0.0
-0.0255625 0.208292 0.0
-0.0363415 0.213545 0.0
-0.0458192 0.21663 0.0
-0.0544637 0.21777 0.0
-0.0625304 0.217161 0.0
-0.0701353 0.214986 0.0
-0.077306 0.211413 0.0
-0.0840166 0.206601 0.0
-0.0902126 0.200705 0.0
-0.0958275 0.193872 0.0
-0.100794 0.186246 0.0
-0.105054 0.177966 0.0
-0.108557 0.169165 0.0
-0.111273 0.159968 0.0
-0.113184 0.150496 0.0
-0.114289 0.140858 0.0
-0.1146 0.131154 0.0
-0.114145 0.121475 0.0
-0.112959 0.1119 0.0
-0.111086 0.102498 0.0
-0.108574 0.0933267 0.0
-0.105476 0.0844347 0.0
-0.101842 0.0758609 0.0
-0.0977221 0.0676366 0.0
-0.0931625 0.0597859 0.0
-0.0882042 0.0523277 0.0
-0.0828824 0.045277 0.0
-0.0772263 0.0386462 0.0
-0.0712584 0.0324471 0.0
-0.0649949 0.0266925 0.0
-0.0584462 0.0213978 0.0
-0.0516176 0.016583 0.0
-0.0445094 0.0122746 0.0
-0.0371183 0.00850832 0.0
-0.0294367 0.00533188 0.0
-0.0214535 0.00279838 0.0
-0.0131527 0.000982338 0.0
-0.00451156 0.000132865 0.0
0.890287 0.00159731 0.0
0.681234 0.012766 0.0
0.502976 0.0343548 0.0
0.361178 0.0594823 0.0
0.253229 0.0852966 0.0
0.173166 0.109831 0.0
0.114506 0.131989 0.0
0.0715287 0.151297 0.0
0.0396695 0.167624 0.0
0.0154948 0.181031 0.0
-0.00347048 0.191681 0.0
-0.0188798 0.199697 0.0
-0.0319494 0.205316 0.0
-0.043493 0.20877 0.0
-0.054001 0.21026 0.0
-0.0637453 0.209973 0.0
-0.0728544 0.208084 0.0
-0.0813644 0.204762 0.0
-0.0892559 0.200169 0.0
-0.096479 0.194463 0.0
-0.102972 0.187797 0.0
-0.108671 0.180322 0.0
-0.113524 0.172185 0.0
-0.117487 0.163525 0.0
-0.120536 0.154476 0.0
-0.122663 0.145162 0.0
-0.123877 0.135699 0.0
-0.124201 0.126189 0.0
-0.123672 0.116725 0.0
-0.122337 0.107387 0.0
-0.120253 0.0982437 0.0
-0.117478 0.0893512 0.0
-0.114073 0.0807551 0.0
-0.1101 0.0724911 0.0
-0.105616 0.0645863 0.0
-0.100672 0.0570604 0.0
-0.0953145 0.0499272 0.0
-0.0895826 0.0431969 0.0
-0.0835064 0.0368768 0.0
-0.0771083 0.0309741 0.0
-0.0704025 0.025497 0.0
-0.0633954 0.0204571 0.0
-0.0560863 0.015871 0.0
-0.0484677 0.0117624 0.0
-0.0405255 0.00816492 0.0
-0.0322397 0.00512476 0.0
-0.0235834 0.0026944 0.0
-0.0145227 0.000947925 0.0
-0.00501349 0.000128807 0.0
0.896563 0.00141223 0.0
0.697505 0.0114921 0.0
0.525216 0.0312416 0.0
0.385812 0.0545794 0.0
0.277745 0.0788867 0.0
0.196042 0.102276 0.0
0.134944 0.123642 0.0
0.0891931 0.142454 0.0
0.0544928 0.158522 0.0
0.0275548 0.171847 0.0
0.00597589 0.182533 0.0
-0.0119245 0.19073 0.0
-0.0272657 0.196555 0.0
-0.0408761 0.200234 0.0
-0.053262 0.201947 0.0
-0.0647067 0.201871 0.0
-0.0753461 0.200177 0.0
-0.0852216 0.197029 0.0
-0.0943173 0.192593 0.0
-0.102586 0.187028 0.0
-0.109969 0.180496 0.0
-0.116408 0.173152 0.0
-0.121852 0.165149 0.0
-0.126267 0.156635 0.0
-0.129637 0.147746 0.0
-0.131962 0.138614 0.0
-0.133263 0.129357 0.0
-0.133575 0.12008 0.0
-0.132948 0.110876 0.0
-0.131441 0.101827 0.0