# vtk DataFile Version 3.0
Malha 2D com triângulos e temperatura
ASCII
DATASET UNSTRUCTURED_GRID

POINTS 2500 double
0 0 0
1 0 0
1 1 0
0 1 0
0.0204082 0 0
0.0408163 0 0
0.0612245 0 0
0.0816327 0 0
0.102041 0 0
0.122449 0 0
0.142857 0 0
0.163265 0 0
0.183673 0 0
0.204082 0 0
0.22449 0 0
0.244898 0 0
0.265306 0 0
0.285714 0 0
0.306122 0 0
0.326531 0 0
0.346939 0 0
0.367347 0 0
0.387755 0 0
0.408163 0 0
0.428571 0 0
0.44898 0 0
0.469388 0 0
0.489796 0 0
0.510204 0 0
0.530612 0 0
0.55102 0 0
0.571429 0 0
0.591837 0 0
0.612245 0 0
0.632653 0 0
0.653061 0 0
0.673469 0 0
0.693878 0 0
0.714286 0 0
0.734694 0 0
0.755102 0 0
0.77551 0 0
0.795918 0 0
0.816327 0 0
0.836735 0 0
0.857143 0 0
0.877551 0 0
0.897959 0 0
0.918367 0 0
0.938776 0 0
0.959184 0 0
0.979592 0 0
1 0.0204082 0
1 0.0408163 0
1 0.0612245 0
1 0.0816327 0
1 0.102041 0
1 0.122449 0
1 0.142857 0
1 0.163265 0
1 0.183673 0
1 0.204082 0
1 0.22449 0
1 0.244898 0
1 0.265306 0
1 0.285714 0
1 0.306122 0
1 0.326531 0
1 0.346939 0
1 0.367347 0
1 0.387755 0
1 0.408163 0
1 0.428571 0
1 0.44898 0
1 0.469388 0
1 0.489796 0
1 0.510204 0
1 0.530612 0
1 0.55102 0
1 0.571429 0
1 0.591837 0
1 0.612245 0
1 0.632653 0
1 0.653061 0
1 0.673469 0
1 0.693878 0
1 0.714286 0
1 0.734694 0
1 0.755102 0
1 0.77551 0
1 0.795918 0
1 0.816327 0
1 0.836735 0
1 0.857143 0
1 0.877551 0
1 0.897959 0
1 0.918367 0
1 0.938776 0
1 0.959184 0
1 0.979592 0
0.979592 1 0
0.959184 1 0
0.938776 1 0
0.918367 1 0
0.897959 1 0
0.877551 1 0
0.857143 1 0
0.836735 1 0
0.816327 1 0
0.795918 1 0
0.77551 1 0
0.755102 1 0
0.734694 1 0
0.714286 1 0
0.693878 1 0
0.673469 1 0
0.653061 1 0
0.632653 1 0
0.612245 1 0
0.591837 1 0
0.571429 1 0
0.55102 1 0
0.530612 1 0
0.510204 1 0
0.489796 1 0
0.469388 1 0
0.44898 1 0
0.428571 1 0
0.408163 1 0
0.387755 1 0
0.367347 1 0
0.346939 1 0
0.326531 1 0
0.306122 1 0
0.285714 1 0
0.265306 1 0
0.244898 1 0
0.22449 1 0
0.204082 1 0
0.183673 1 0
0.163265 1 0
0.142857 1 0
0.122449 1 0
0.102041 1 0
0.0816327 1 0
0.0612245 1 0
0.0408163 1 0
0.0204082 1 0
0 0.979592 0
0 0.959184 0
0 0.938776 0
0 0.918367 0
0 0.897959 0
0 0.877551 0
0 0.857143 0
0 0.836735 0
0 0.816327 0
0 0.795918 0
0 0.77551 0
0 0.755102 0
0 0.734694 0
0 0.714286 0
0 0.693878 0
0 0.673469 0
0 0.653061 0
0 0.632653 0
0 0.612245 0
0 0.591837 0
0 0.571429 0
0 0.55102 0
0 0.530612 0
0 0.510204 0
0 0.489796 0
0 0.469388 0
0 0.44898 0
0 0.428571 0
0 0.408163 0
0 0.387755 0
0 0.367347 0
0 0.346939 0
0 0.326531 0
0 0.306122 0
0 0.285714 0
0 0.265306 0
0 0.244898 0
0 0.22449 0
0 0.204082 0
0 0.183673 0
0 0.163265 0
0 0.142857 0
0 0.122449 0
0 0.102041 0
0 0.0816327 0
0 0.0612245 0
0 0.0408163 0
0 0.0204082 0
0.0204082 0.979592 0
0.0204082 0.959184 0
0.0204082 0.938776 0
0.0204082 0.918367 0
0.0204082 0.897959 0
0.0204082 0.877551 0
0.0204082 0.857143 0
0.0204082 0.836735 0
0.0204082 0.816327 0
0.0204082 0.795918 0
0.0204082 0.77551 0
0.0204082 0.755102 0
0.0204082 0.734694 0
0.0204082 0.714286 0
0.0204082 0.693878 0
0.0204082 0.673469 0
0.0204082 0.653061 0
0.0204082 0.632653 0
0.0204082 0.612245 0
0.0204082 0.591837 0
0.0204082 0.571429 0
0.0204082 0.55102 0
0.0204082 0.530612 0
0.0204082 0.510204 0
0.0204082 0.489796 0
0.0204082 0.469388 0
0.0204082 0.44898 0
0.0204082 0.428571 0
0.0204082 0.408163 0
0.0204082 0.387755 0
0.0204082 0.367347 0
0.0204082 0.346939 0
0.0204082 0.326531 0
0.0204082 0.306122 0
0.0204082 0.285714 0
0.0204082 0.265306 0
0.0204082 0.244898 0
0.0204082 0.22449 0
0.0204082 0.204082 0
0.0204082 0.183673 0
0.0204082 0.163265 0
0.0204082 0.142857 0
0.0204082 0.122449 0
0.0204082 0.102041 0
0.0204082 0.0816327 0
0.0204082 0.0612245 0
0.0204082 0.0408163 0
0.0204082 0.0204082 0
0.0408163 0.979592 0
0.0408163 0.959184 0
0.0408163 0.938776 0
0.0408163 0.918367 0
0.0408163 0.897959 0
0.0408163 0.877551 0
0.0408163 0.857143 0
0.0408163 0.836735 0
0.0408163 0.816327 0
0.0408163 0.795918 0
0.0408163 0.77551 0
0.0408163 0.755102 0
0.0408163 0.734694 0
0.0408163 0.714286 0
0.0408163 0.693878 0
0.0408163 0.673469 0
0.0408163 0.653061 0
0.0408163 0.632653 0
0.0408163 0.612245 0
0.0408163 0.591837 0
0.0408163 0.571429 0
0.0408163 0.55102 0
0.0408163 0.530612 0
0.0408163 0.510204 0
0.0408163 0.489796 0
0.0408163 0.469388 0
0.0408163 0.44898 0
0.0408163 0.428571 0
0.0408163 0.408163 0
0.0408163 0.387755 0
0.0408163 0.367347 0
0.0408163 0.346939 0
0.0408163 0.326531 0
0.0408163 0.306122 0
0.0408163 0.285714 0
0.0408163 0.265306 0
0.0408163 0.244898 0
0.0408163 0.22449 0
0.0408163 0.204082 0
0.0408163 0.183673 0
0.0408163 0.163265 0
0.0408163 0.142857 0
0.0408163 0.122449 0
0.0408163 0.102041 0
0.0408163 0.0816327 0
0.0408163 0.0612245 0
0.0408163 0.0408163 0
0.0408163 0.0204082 0
0.0612245 0.979592 0
0.0612245 0.959184 0
0.0612245 0.938776 0
0.0612245 0.918367 0
0.0612245 0.897959 0
0.0612245 0.877551 0
0.0612245 0.857143 0
0.0612245 0.836735 0
0.0612245 0.816327 0
0.0612245 0.795918 0
0.0612245 0.77551 0
0.0612245 0.755102 0
0.0612245 0.734694 0
0.0612245 0.714286 0
0.0612245 0.693878 0
0.0612245 0.673469 0
0.0612245 0.653061 0
0.0612245 0.632653 0
0.0612245 0.612245 0
0.0612245 0.591837 0
0.0612245 0.571429 0
0.0612245 0.55102 0
0.0612245 0.530612 0
0.0612245 0.510204 0
0.0612245 0.489796 0
0.0612245 0.469388 0
0.0612245 0.44898 0
0.0612245 0.428571 0
0.0612245 0.408163 0
0.0612245 0.387755 0
0.0612245 0.367347 0
0.0612245 0.346939 0
0.0612245 0.326531 0
0.0612245 0.306122 0
0.0612245 0.285714 0
0.0612245 0.265306 0
0.0612245 0.244898 0
0.0612245 0.22449 0
0.0612245 0.204082 0
0.0612245 0.183673 0
0.0612245 0.163265 0
0.0612245 0.142857 0
0.0612245 0.122449 0
0.0612245 0.102041 0
0.0612245 0.0816327 0
0.0612245 0.0612245 0
0.0612245 0.0408163 0
0.0612245 0.0204082 0
0.0816327 0.979592 0
0.0816327 0.959184 0
0.0816327 0.938776 0
0.0816327 0.918367 0
0.0816327 0.897959 0
0.0816327 0.877551 0
0.0816327 0.857143 0
0.0816327 0.836735 0
0.0816327 0.816327 0
0.0816327 0.795918 0
0.0816327 0.77551 0
0.0816327 0.755102 0
0.0816327 0.734694 0
0.0816327 0.714286 0
0.0816327 0.693878 0
0.0816327 0.673469 0
0.0816327 0.653061 0
0.0816327 0.632653 0
0.0816327 0.612245 0
0.0816327 0.591837 0
0.0816327 0.571429 0
0.0816327 0.55102 0
0.0816327 0.530612 0
0.0816327 0.510204 0
0.0816327 0.489796 0
0.0816327 0.469388 0
0.0816327 0.44898 0
0.0816327 0.428571 0
0.0816327 0.408163 0
0.0816327 0.387755 0
0.0816327 0.367347 0
0.0816327 0.346939 0
0.0816327 0.326531 0
0.0816327 0.306122 0
0.0816327 0.285714 0
0.0816327 0.265306 0
0.0816327 0.244898 0
0.0816327 0.22449 0
0.0816327 0.204082 0
0.0816327 0.183673 0
0.0816327 0.163265 0
0.0816327 0.142857 0
0.0816327 0.122449 0
0.0816327 0.102041 0
0.0816327 0.0816327 0
0.0816327 0.0612245 0
0.0816327 0.0408163 0
0.0816327 0.0204082 0
0.102041 0.979592 0
0.102041 0.959184 0
0.102041 0.938776 0
0.102041 0.918367 0
0.102041 0.897959 0
0.102041 0.877551 0
0.102041 0.857143 0
0.102041 0.836735 0
0.102041 0.816327 0
0.102041 0.795918 0
0.102041 0.77551 0
0.102041 0.755102 0
0.102041 0.734694 0
0.102041 0.714286 0
0.102041 0.693878 0
0.102041 0.673469 0
0.102041 0.653061 0
0.102041 0.632653 0
0.102041 0.612245 0
0.102041 0.591837 0
0.102041 0.571429 0
0.102041 0.55102 0
0.102041 0.530612 0
0.102041 0.510204 0
0.102041 0.489796 0
0.102041 0.469388 0
0.102041 0.44898 0
0.102041 0.428571 0
0.102041 0.408163 0
0.102041 0.387755 0
0.102041 0.367347 0
0.102041 0.346939 0
0.102041 0.326531 0
0.102041 0.306122 0
0.102041 0.285714 0
0.102041 0.265306 0
0.102041 0.244898 0
0.102041 0.22449 0
0.102041 0.204082 0
0.102041 0.183673 0
0.102041 0.163265 0
0.102041 0.142857 0
0.102041 0.122449 0
0.102041 0.102041 0
0.102041 0.0816327 0
0.102041 0.0612245 0
0.102041 0.0408163 0
0.102041 0.0204082 0
0.122449 0.979592 0
0.122449 0.959184 0
0.122449 0.938776 0
0.122449 0.918367 0
0.122449 0.897959 0
0.122449 0.877551 0
0.122449 0.857143 0
0.122449 0.836735 0
0.122449 0.816327 0
0.122449 0.795918 0
0.122449 0.77551 0
0.122449 0.755102 0
0.122449 0.734694 0
0.122449 0.714286 0
0.122449 0.693878 0
0.122449 0.673469 0
0.122449 0.653061 0
0.122449 0.632653 0
0.122449 0.612245 0
0.122449 0.591837 0
0.122449 0.571429 0
0.122449 0.55102 0
0.122449 0.530612 0
0.122449 0.510204 0
0.122449 0.489796 0
0.122449 0.469388 0
0.122449 0.44898 0
0.122449 0.428571 0
0.122449 0.408163 0
0.122449 0.387755 0
0.122449 0.367347 0
0.122449 0.346939 0
0.122449 0.326531 0
0.122449 0.306122 0
0.122449 0.285714 0
0.122449 0.265306 0
0.122449 0.244898 0
0.122449 0.22449 0
0.122449 0.204082 0
0.122449 0.183673 0
0.122449 0.163265 0
0.122449 0.142857 0
0.122449 0.122449 0
0.122449 0.102041 0
0.122449 0.0816327 0
0.122449 0.0612245 0
0.122449 0.0408163 0
0.122449 0.0204082 0
0.142857 0.979592 0
0.142857 0.959184 0
0.142857 0.938776 0
0.142857 0.918367 0
0.142857 0.897959 0
0.142857 0.877551 0
0.142857 0.857143 0
0.142857 0.836735 0
0.142857 0.816327 0
0.142857 0.795918 0
0.142857 0.77551 0
0.142857 0.755102 0
0.142857 0.734694 0
0.142857 0.714286 0
0.142857 0.693878 0
0.142857 0.673469 0
0.142857 0.653061 0
0.142857 0.632653 0
0.142857 0.612245 0
0.142857 0.591837 0
0.142857 0.571429 0
0.142857 0.55102 0
0.142857 0.530612 0
0.142857 0.510204 0
0.142857 0.489796 0
0.142857 0.469388 0
0.142857 0.44898 0
0.142857 0.428571 0
0.142857 0.408163 0
0.142857 0.387755 0
0.142857 0.367347 0
0.142857 0.346939 0
0.142857 0.326531 0
0.142857 0.306122 0
0.142857 0.285714 0
0.142857 0.265306 0
0.142857 0.244898 0
0.142857 0.22449 0
0.142857 0.204082 0
0.142857 0.183673 0
0.142857 0.163265 0
0.142857 0.142857 0
0.142857 0.122449 0
0.142857 0.102041 0
0.142857 0.0816327 0
0.142857 0.0612245 0
0.142857 0.0408163 0
0.142857 0.0204082 0
0.163265 0.979592 0
0.163265 0.959184 0
0.163265 0.938776 0
0.163265 0.918367 0
0.163265 0.897959 0
0.163265 0.877551 0
0.163265 0.857143 0
0.163265 0.836735 0
0.163265 0.816327 0
0.163265 0.795918 0
0.163265 0.77551 0
0.163265 0.755102 0
0.163265 0.734694 0
0.163265 0.714286 0
0.163265 0.693878 0
0.163265 0.673469 0
0.163265 0.653061 0
0.163265 0.632653 0
0.163265 0.612245 0
0.163265 0.591837 0
0.163265 0.571429 0
0.163265 0.55102 0
[...]
CELL_DATA 2401
VECTORS velocity double
0.257357 0.157466 0.0
-0.00266324 0.264656 0.0
-0.032239 0.205688 0.0
-0.0253123 0.150984 0.0
-0.0160102 0.11358 0.0
-0.00968412 0.0882753 0.0
-0.00594235 0.0711602 0.0
-0.00378657 0.0593343 0.0
-0.00252564 0.0509045 0.0
-0.00176342 0.0447038 0.0
-0.00128475 0.0400036 0.0
-0.000973414 0.0363363 0.0
-0.000765168 0.0333925 0.0
-0.000623095 0.0309616 0.0
-0.000524979 0.0288969 0.0
-0.000456822 0.0270943 0.0
-0.00040943 0.0254795 0.0
-0.000376544 0.0239986 0.0
-0.000353777 0.0226135 0.0
-0.000337985 0.0212967 0.0
-0.000326879 0.0200294 0.0
-0.000318774 0.0187987 0.0
-0.000312428 0.0175968 0.0
-0.00030693 0.0164192 0.0
-0.000301624 0.0152638 0.0
-0.000296049 0.0141308 0.0
-0.000289897 0.0130214 0.0
-0.000282982 0.0119379 0.0
-0.000275204 0.0108828 0.0
-0.000266535 0.00985925 0.0
-0.000256991 0.00887016 0.0
-0.00024662 0.00791849 0.0
-0.000235484 0.00700705 0.0
-0.000223647 0.00613846 0.0
-0.000211165 0.00531515 0.0
-0.000198075 0.00453942 0.0
-0.000184391 0.00381349 0.0
-0.000170088 0.00313959 0.0
-0.000155103 0.00252004 0.0
-0.000139321 0.00195739 0.0
-0.000122569 0.00145452 0.0
-0.000104605 0.00101477 0.0
-8.51213e-05 0.000642016 0.0
-6.37754e-05 0.000340646 0.0
-4.03115e-05 0.000115333 0.0
-1.49558e-05 -2.97608e-05 0.0
1.05333e-05 -9.29034e-05 0.0
3.06648e-05 -8.17975e-05 0.0
2.99223e-05 -2.97921e-05 0.0
0.340675 0.123001 0.0
-0.000429904 0.24964 0.0
-0.0649623 0.272132 0.0
-0.0630149 0.252934 0.0
-0.048387 0.222587 0.0
-0.0349813 0.19273 0.0
-0.0250893 0.167141 0.0
-0.0182062 0.146323 0.0
-0.0134752 0.129686 0.0
-0.0102056 0.116406 0.0
-0.00792021 0.10572 0.0
-0.00630426 0.0970016 0.0
-0.00515116 0.0897588 0.0
-0.00432337 0.0836168 0.0
-0.00372741 0.0782916 0.0
-0.00329825 0.0735694 0.0
-0.00298971 0.0692902 0.0
-0.00276831 0.0653351 0.0
-0.00260945 0.0616165 0.0
-0.00249476 0.058071 0.0
-0.00241047 0.0546537 0.0
-0.00234618 0.0513342 0.0
-0.00229405 0.048093 0.0
-0.00224825 0.0449189 0.0
-0.00220447 0.0418072 0.0
-0.00215963 0.0387576 0.0
-0.00211163 0.0357731 0.0
-0.00205911 0.0328591 0.0
-0.0020013 0.0300221 0.0
-0.00193786 0.0272695 0.0
-0.00186877 0.0246088 0.0
-0.00179421 0.0220476 0.0
-0.00171446 0.0195932 0.0
-0.00162987 0.0172522 0.0
-0.00154071 0.0150313 0.0
-0.00144718 0.0129366 0.0
-0.00134935 0.010974 0.0
-0.00124713 0.00914944 0.0
-0.00114023 0.00746911 0.0
-0.00102816 0.00593948 0.0
-0.000910236 0.00456756 0.0
-0.000785663 0.003361 0.0
-0.000653643 0.00232793 0.0
-0.000513737 0.00147659 0.0
-0.000366613 0.000814207 0.0
-0.000215756 0.000344884 0.0
-7.10536e-05 6.53499e-05 0.0
4.50947e-05 -4.38802e-05 0.0
8.14268e-05 -2.98673e-05 0.0
0.501086 0.0768589 0.0
0.0995687 0.18351 0.0
-0.0388058 0.249819 0.0
-0.0729912 0.266528 0.0
-0.0717173 0.258298 0.0
-0.0607598 0.240389 0.0
-0.048872 0.220042 0.0
-0.0386389 0.20055 0.0
-0.0305179 0.183145 0.0
-0.0242937 0.168076 0.0
-0.0195993 0.15517 0.0
-0.0160868 0.144106 0.0
-0.0134712 0.134543 0.0
-0.0115311 0.126166 0.0
-0.0100977 0.11871 0.0
-0.00904352 0.111957 0.0
-0.00827172 0.105734 0.0
-0.00770865 0.099908 0.0
-0.00729796 0.094377 0.0
-0.00699636 0.089066 0.0
-0.00677056 0.0839215 0.0
-0.00659496 0.078907 0.0
-0.00644999 0.0739994 0.0
-0.00632088 0.0691861 0.0
-0.00619663 0.0644628 0.0
-0.00606933 0.0598306 0.0
-0.00593346 0.0552952 0.0
-0.00578546 0.0508651 0.0
-0.00562325 0.0465505 0.0
-0.00544588 0.0423625 0.0
-0.00525322 0.0383125 0.0
-0.00504566 0.0344118 0.0
-0.00482389 0.0306711 0.0
-0.00458871 0.0271007 0.0
-0.00434083 0.0237104 0.0
-0.00408078 0.0205094 0.0
-0.00380877 0.0175065 0.0
-0.00352464 0.0147106 0.0
-0.00322781 0.0121306 0.0
-0.00291735 0.00977575 0.0
-0.00259202 0.00765562 0.0
-0.00225056 0.00578028 0.0
-0.00189215 0.00415988 0.0
-0.00151737 0.00280391 0.0
-0.00112992 0.00171974 0.0
-0.000739997 0.000910202 0.0
-0.000370314 0.000368497 0.0
-6.46563e-05 7.23807e-05 0.0
9.07774e-05 -9.08563e-06 0.0
0.610397 0.0481006 0.0
0.19638 0.134233 0.0
0.0121381 0.209928 0.0
-0.057538 0.247071 0.0
-0.0760135 0.25754 0.0
-0.0742203 0.253812 0.0
-0.0655243 0.243053 0.0
-0.0554698 0.229523 0.0
-0.0461883 0.215504 0.0
-0.0383477 0.202089 0.0
-0.0320139 0.189714 0.0
-0.0270288 0.17847 0.0
-0.0231718 0.168282 0.0
-0.0202254 0.159007 0.0
-0.0179982 0.150484 0.0
-0.01633 0.142562 0.0
-0.0150904 0.135108 0.0
-0.0141743 0.128013 0.0
-0.0134981 0.121189 0.0
-0.0129953 0.114573 0.0
-0.0126134 0.108116 0.0
-0.0123113 0.101789 0.0
-0.0120571 0.095572 0.0
-0.0118263 0.0894572 0.0
-0.0116007 0.0834442 0.0
-0.011367 0.0775385 0.0
-0.0111161 0.0717498 0.0
-0.0108418 0.0660905 0.0
-0.0105408 0.0605747 0.0
-0.0102116 0.0552172 0.0
-0.00985391 0.0500329 0.0
-0.00946863 0.0450364 0.0
-0.00905699 0.0402414 0.0
-0.00862044 0.035661 0.0
-0.00816032 0.0313076 0.0
-0.00767763 0.0271926 0.0
-0.00717286 0.0233271 0.0
-0.00664591 0.0197219 0.0
-0.00609608 0.0163879 0.0
-0.00552213 0.0133359 0.0
-0.00492255 0.010577 0.0
-0.00429602 0.00812234 0.0
-0.00364227 0.00598287 0.0
-0.00296364 0.00416832 0.0
-0.00226761 0.00268597 0.0
-0.00157129 0.00153862 0.0
-0.00090875 0.000719608 0.0
-0.000340153 0.000211501 0.0
2.64278e-05 1.62419e-05 0.0
0.68092 0.0301996 0.0
0.279331 0.0983777 0.0
0.07046 0.171303 0.0
-0.027038 0.217781 0.0
-0.065462 0.241005 0.0
-0.0756655 0.24902 0.0
-0.0733896 0.247742 0.0
-0.0663031 0.241291 0.0
-0.0580115 0.232271 0.0
-0.0501153 0.222214 0.0
-0.043236 0.211964 0.0
-0.0375295 0.201947 0.0
-0.0329417 0.19234 0.0
-0.0293346 0.183185 0.0
-0.0265478 0.174453 0.0
-0.0244253 0.166088 0.0
-0.0228274 0.158022 0.0
-0.021634 0.150191 0.0
-0.0207446 0.142545 0.0
-0.0200761 0.135041 0.0
-0.0195614 0.127652 0.0
-0.0191465 0.12036 0.0
-0.018789 0.113159 0.0
-0.0184559 0.106048 0.0
-0.0181226 0.099035 0.0
-0.017771 0.0921326 0.0
-0.0173887 0.0853558 0.0
-0.0169677 0.0787223 0.0
-0.0165035 0.0722505 0.0
-0.0159943 0.0659592 0.0
-0.0154405 0.0598666 0.0
-0.0148434 0.0539904 0.0
-0.0142052 0.0483469 0.0
-0.0135282 0.0429515 0.0
-0.0128147 0.0378185 0.0
-0.0120663 0.0329611 0.0
-0.0112841 0.0283918 0.0
-0.0104682 0.0241229 0.0
-0.00961786 0.020166 0.0
-0.00873193 0.016533 0.0
-0.00780883 0.0132355 0.0
-0.00684749 0.0102852 0.0
-0.00584849 0.00769317 0.0
-0.00481605 0.00546949 0.0
-0.00376108 0.00362201 0.0
-0.00270615 0.00215543 0.0
-0.00169291 0.00106658 0.0
-0.000790627 0.000347712 0.0
-0.000115292 3.99932e-05 0.0
0.730398 0.0192039 0.0
0.349945 0.0731254 0.0
0.128741 0.139365 0.0
0.0114729 0.188134 0.0
-0.0449334 0.219071 0.0
-0.067666 0.235529 0.0
-0.0733514 0.242057 0.0
-0.0709796 0.242144 0.0
-0.0652758 0.238282 0.0
-0.0586509 0.232122 0.0
-0.0522717 0.224709 0.0
-0.0466426 0.216675 0.0
-0.0419235 0.208384 0.0
-0.0381021 0.200029 0.0
-0.0350864 0.191704 0.0
-0.0327548 0.183444 0.0
-0.0309808 0.175254 0.0
-0.0296456 0.167126 0.0
-0.0286436 0.159049 0.0
-0.027884 0.151015 0.0
-0.0272908 0.143019 0.0
-0.0268017 0.135064 0.0
-0.0263668 0.127159 0.0
-0.0259471 0.119318 0.0
-0.0255131 0.111557 0.0
-0.0250436 0.103898 0.0
-0.0245238 0.096364 0.0
-0.0239447 0.0889775 0.0
-0.0233016 0.0817625 0.0
-0.0225931 0.0747419 0.0
-0.0218204 0.0679376 0.0
-0.0209861 0.0613699 0.0
-0.0200937 0.0550577 0.0
-0.0191468 0.0490181 0.0
-0.0181488 0.0432669 0.0
-0.0171024 0.0378185 0.0
-0.0160093 0.0326864 0.0
-0.0148701 0.0278832 0.0
-0.0136845 0.0234213 0.0
-0.0124513 0.0193126 0.0
-0.0111691 0.0155689 0.0
-0.00983726 0.0122021 0.0
-0.00845699 0.00922342 0.0
-0.00703398 0.00664352 0.0
-0.0055814 0.00447192 0.0
-0.00412485 0.00271693 0.0
-0.0027092 0.0013812 0.0
-0.00140568 0.00046899 0.0
-0.000327096 6.00523e-05 0.0
0.766418 0.0125782 0.0
0.409328 0.0556584 0.0
0.183531 0.114334 0.0
0.0525789 0.162058 0.0
-0.0183805 0.196628 0.0
-0.0528368 0.21866 0.0
-0.0668914 0.231023 0.0
-0.0701456 0.236503 0.0
-0.0680714 0.237266 0.0
-0.0637083 0.234884 0.0
-0.058693 0.230449 0.0
-0.0538597 0.224688 0.0
-0.04959 0.218076 0.0
-0.046015 0.210913 0.0
-0.0431327 0.203386 0.0
-0.0408749 0.195608 0.0
-0.0391448 0.187649 0.0
-0.0378385 0.179553 0.0
-0.036856 0.171353 0.0
-0.0361067 0.163072 0.0
-0.0355121 0.154735 0.0
-0.0350064 0.146366 0.0
-0.034536 0.137993 0.0
-0.0340587 0.129643 0.0
-0.0335426 0.121347 0.0
-0.0329649 0.113134 0.0
-0.0323103 0.105037 0.0
-0.0315698 0.0970853 0.0
-0.0307397 0.0893081 0.0
-0.0298198 0.0817329 0.0
-0.028813 0.074385 0.0
-0.0277238 0.0672877 0.0
-0.0265574 0.0604618 0.0
-0.0253194 0.0539261 0.0
-0.0240147 0.0476973 0.0
-0.0226472 0.0417906 0.0
-0.0212196 0.0362198 0.0
-0.0197335 0.0309977 0.0
-0.0181887 0.0261365 0.0
-0.0165844 0.0216479 0.0
-0.0149194 0.0175438 0.0
-0.013193 0.0138357 0.0
-0.011407 0.0105355 0.0
-0.00956737 0.00765477 0.0
-0.00768802 0.00520558 0.0
-0.00579481 0.00320092 0.0
-0.00393158 0.00165049 0.0
-0.00216553 0.000570861 0.0
-0.000598468 7.60724e-05 0.0
0.793395 0.0085698 0.0
0.459212 0.0434611 0.0
0.233667 0.094928 0.0
0.0936688 0.140101 0.0
0.0116395 0.175606 0.0
-0.0333609 0.201105 0.0
-0.0555717 0.217596 0.0
-0.0647865 0.227261 0.0
-0.0669272 0.231879 0.0
-0.0654877 0.23285 0.0
-0.0624796 0.231217 0.0
-0.0590223 0.227726 0.0
-0.0557027 0.222902 0.0
-0.052795 0.217107 0.0
-0.0503935 0.210589 0.0
-0.0484928 0.203523 0.0
-0.0470357 0.196029 0.0
-0.0459421 0.188197 0.0
-0.0451255 0.180096 0.0
-0.0445023 0.171784 0.0
-0.0439968 0.163312 0.0
-0.0435442 0.154725 0.0
-0.0430908 0.146071 0.0
-0.0425943 0.137392 0.0
-0.0420228 0.128732 0.0
-0.0413539 0.120133 0.0
-0.0405736 0.111634 0.0
-0.0396744 0.103272 0.0
-0.0386547 0.0950843 0.0
-0.0375168 0.0871012 0.0
-0.0362662 0.079352 0.0
-0.0349099 0.0718625 0.0
-0.0334558 0.0646556 0.0
-0.0319118 0.0577511 0.0
-0.0302847 0.0511666 0.0
-0.0285802 0.0449175 0.0
-0.0268025 0.0390174 0.0
-0.0249537 0.0334787 0.0
-0.0230345 0.0283133 0.0
-0.0210442 0.0235325 0.0
-0.0189814 0.0191474 0.0
-0.0168456 0.0151699 0.0
-0.0146378 0.011612 0.0
-0.0123637 0.00848701 0.0
-0.0100357 0.0058098 0.0
-0.00767751 0.0035985 0.0
-0.0053282 0.0018701 0.0
-0.00304646 0.000652552 0.0
-0.000918166 8.83515e-05 0.0
0.814282 0.00610137 0.0
0.501407 0.0347952 0.0
0.279004 0.079885 0.0
0.133314 0.121951 0.0
0.0427311 0.157069 0.0
-0.0110296 0.184232 0.0
-0.0407779 0.203504 0.0
-0.0559042 0.216261 0.0
-0.0625111 0.22394 0.0
-0.0643882 0.22773 0.0
-0.0638283 0.228575 0.0
-0.0621821 0.227187 0.0
-0.0602147 0.224099 0.0
-0.0583311 0.2197 0.0
-0.0567187 0.214275 0.0
-0.0554366 0.208036 0.0
-0.0544714 0.201144 0.0
-0.0537718 0.193723 0.0
-0.0532694 0.185874 0.0
-0.0528922 0.177682 0.0
-0.0525719 0.169224 0.0
-0.052248 0.160567 0.0
-0.05187 0.151775 0.0
-0.051398 0.142907 0.0
-0.0508026 0.13402 0.0
-0.0500641 0.125167 0.0
-0.0491711 0.116396 0.0
-0.0481197 0.107753 0.0
-0.0469116 0.0992781 0.0
-0.0455527 0.0910087 0.0
-0.0440522 0.0829771 0.0
-0.0424206 0.0752115 0.0
-0.0406692 0.0677364 0.0
-0.0388087 0.0605725 0.0
-0.0368486 0.0537378 0.0
-0.0347967 0.0472473 0.0
-0.0326586 0.0411142 0.0
-0.0304376 0.0353504 0.0
-0.0281351 0.0299667 0.0
-0.0257504 0.0249736 0.0
-0.023282 0.0203819 0.0
-0.0207284 0.016203 0.0
-0.0180897 0.0124497 0.0
-0.0153693 0.00913667 0.0
-0.0125771 0.00628192 0.0
-0.0097318 0.00390856 0.0
-0.00686506 0.00204034 0.0
-0.00402385 0.000714987 0.0
-0.00127539 9.73723e-05 0.0
0.830963 0.00454142 0.0
0.537445 0.0285075 0.0
0.319857 0.0681251 0.0
0.170925 0.106971 0.0
0.0738912 0.14097 0.0
0.0130666 0.168572 0.0
-0.0235704 0.189634 0.0
-0.0443678 0.204609 0.0
-0.0554769 0.214645 0.0
-0.060867 0.220726 0.0
-0.0630325 0.223675 0.0
-0.0635047 0.224148 0.0
-0.0631953 0.222655 0.0
-0.062623 0.219588 0.0
-0.0620596 0.215249 0.0
-0.0616255 0.209872 0.0
-0.0613505 0.203643 0.0
-0.0612134 0.196713 0.0
-0.0611668 0.189207 0.0
-0.0611528 0.181235 0.0
-0.0611131 0.172894 0.0
-0.0609942 0.164271 0.0
-0.0607514 0.155446 0.0
-0.0603495 0.146495 0.0
-0.0597638 0.137485 0.0
-0.0589789 0.128482 0.0
-0.0579884 0.119542 0.0
-0.0567929 0.110719 0.0
-0.0553993 0.102059 0.0
-0.0538183 0.0936034 0.0
-0.0520639 0.0853885 0.0
-0.0501511 0.0774444 0.0
-0.0480952 0.069797 0.0
-0.0459107 0.0624677 0.0
-0.0436102 0.0554741 0.0
-0.041204 0.048831 0.0
-0.0386995 0.0425505 0.0
-0.0361014 0.0366433 0.0
-0.0334114 0.0311192 0.0
-0.030629 0.0259876 0.0
-0.0277521 0.0212584 0.0
-0.0247778 0.0169427 0.0
-0.0217039 0.0130539 0.0
-0.0185312 0.00960791 0.0
-0.0152645 0.00662554 0.0
-0.0119162 0.00413432 0.0
-0.00850825 0.00216386 0.0
-0.00507384 0.000759797 0.0
-0.00166026 0.000103629 0.0
0.844644 0.00352369 0.0
0.568542 0.0238449 0.0
0.356674 0.0588384 0.0
0.206248 0.0946 0.0
0.104382 0.127124 0.0
0.0376711 0.154555 0.0
-0.00481923 0.176469 0.0
-0.030904 0.192981 0.0
-0.046409 0.204772 0.0
-0.0553703 0.212661 0.0
-0.0604149 0.217345 0.0
-0.0632082 0.21941 0.0
-0.064779 0.219328 0.0
-0.0657403 0.217478 0.0
-0.066437 0.214162 0.0
-0.0670442 0.209624 0.0
-0.0676322 0.204066 0.0
-0.0682088 0.197656 0.0
-0.0687476 0.190539 0.0
-0.0692062 0.182843 0.0
-0.0695373 0.174683 0.0
-0.0696968 0.166162 0.0
-0.069647 0.157378 0.0
-0.0693597 0.148418 0.0
-0.0688164 0.139363 0.0
-0.0680082 0.130288 0.0
-0.0669348 0.12126 0.0
-0.0656036 0.112337 0.0
-0.0640274 0.103574 0.0
-0.0622235 0.0950152 0.0
-0.0602116 0.0866995 0.0
-0.0580125 0.0786595 0.0
-0.0556463 0.0709219 0.0
-0.0531319 0.0635083 0.0
-0.0504856 0.0564359 0.0
-0.0477205 0.0497185 0.0
-0.0448464 0.0433669 0.0
-0.041869 0.0373904 0.0
-0.0387909 0.031797 0.0
-0.0356113 0.026595 0.0
-0.0323268 0.0217932 0.0
-0.0289328 0.017402 0.0
-0.0254243 0.0134349 0.0
-0.0217974 0.00990908 0.0
-0.0180515 0.0068474 0.0
-0.0141905 0.00428103 0.0
-0.0102253 0.00224427 0.0
-0.00617414 0.000788789 0.0
-0.002064 0.000107561 0.0
0.856122 0.00283455 0.0
0.595654 0.0203071 0.0
0.389941 0.0514083 0.0
0.239277 0.0843105 0.0
0.13388 0.115197 0.0
0.0623567 0.142066 0.0
0.0148728 0.164231 0.0
-0.0160858 0.181733 0.0
-0.0358026 0.194801 0.0
-0.0483023 0.204081 0.0
-0.0562898 0.210163 0.0
-0.0615266 0.213555 0.0
-0.0651311 0.214686 0.0
-0.0677921 0.21391 0.0
-0.0699153 0.21152 0.0
-0.0717227 0.207763 0.0
-0.07332 0.202846 0.0
-0.0747416 0.196949 0.0
-0.0759809 0.19023 0.0
-0.0770104 0.182833 0.0
-0.077795 0.174886 0.0
-0.0783001 0.166508 0.0
-0.0784969 0.157811 0.0
-0.0783651 0.148893 0.0
-0.0778942 0.139849 0.0
-0.0770832 0.130761 0.0
-0.0759398 0.121706 0.0
-0.0744792 0.112749 0.0
-0.0727222 0.103948 0.0
-0.0706935 0.0953536 0.0
-0.06842 0.0870066 0.0
-0.065929 0.0789411 0.0
-0.0632467 0.0711843 0.0
-0.060397 0.0637576 0.0
-0.0574003 0.0566773 0.0
-0.0542732 0.0499557 0.0
-0.0510278 0.0436021 0.0
-0.0476713 0.0376238 0.0
-0.0442068 0.032027 0.0
-0.0406329 0.0268181 0.0
-0.0369451 0.0220045 0.0
-0.0331359 0.0175958 0.0
-0.0291967 0.0136052 0.0
-0.0251185 0.0100502 0.0
-0.0208934 0.00695545 0.0
-0.0165163 0.00435458 0.0
-0.0119857 0.00228535 0.0
-0.0073043 0.000803667 0.0
-0.00247882 0.00010953 0.0
0.865937 0.00234925 0.0
0.619525 0.0175624 0.0
0.420107 0.045384 0.0
0.270096 0.0756884 0.0
0.16218 0.104905 0.0
0.0867081 0.130987 0.0
0.0348667 0.153071 0.0
-0.00036133 0.171044 0.0
-0.0240633 0.185013 0.0
-0.0400122 0.195336 0.0
-0.0509456 0.202516 0.0
-0.0586889 0.206989 0.0
-0.0644271 0.209136 0.0
-0.0689077 0.209282 0.0
-0.0725852 0.207706 0.0
-0.0757202 0.204647 0.0
-0.078448 0.200316 0.0
-0.080826 0.194898 0.0
-0.0828651 0.188561 0.0
-0.0845518 0.18146 0.0
-0.0858626 0.173735 0.0
-0.0867728 0.16552 0.0
-0.0872631 0.156935 0.0
-0.0873224 0.148093 0.0
-0.0869493 0.139097 0.0
-0.0861522 0.13004 0.0
-0.0849481 0.121004 0.0
-0.0833617 0.112064 0.0
-0.081423 0.10328 0.0
-0.0791656 0.0947076 0.0
-0.0766247 0.0863887 0.0
-0.0738352 0.0783589 0.0
-0.0708301 0.0706455 0.0
-0.0676391 0.0632692 0.0
-0.0642876 0.0562449 0.0
-0.0607958 0.0495831 0.0
-0.0571784 0.043291 0.0
-0.0534442 0.0373734 0.0
-0.0495967 0.0318344 0.0
-0.0456338 0.0266782 0.0
-0.0415491 0.0219105 0.0
-0.0373321 0.0175393 0.0
-0.0329697 0.0135771 0.0
-0.0284469 0.0100415 0.0
-0.023748 0.00695756 0.0
-0.0188576 0.0043606 0.0
-0.0137612 0.00229053 0.0
-0.00844564 0.000805902 0.0
-0.00289783 0.000109819 0.0
0.874461 0.00199388 0.0
0.640731 0.0153872 0.0
0.447574 0.0404316 0.0
0.298845 0.0683953 0.0
0.189208 0.0959751 0.0
0.11052 0.121135 0.0
0.0549087 0.142908 0.0
0.0158759 0.161024 0.0
-0.0115305 0.175559 0.0
-0.0308006 0.186637 0.0
-0.0446401 0.194654 0.0
-0.0549098 0.199984 0.0
-0.0628406 0.20296 0.0
-0.069224 0.203875 0.0
-0.0745515 0.20299 0.0
-0.079114 0.200536 0.0
-0.0830706 0.19672 0.0
-0.0864974 0.19173 0.0
-0.0894201 0.185741 0.0
-0.0918373 0.178916 0.0
-0.093736 0.171406 0.0
-0.0951017 0.163354 0.0
-0.0959247 0.154893 0.0
-0.096204 0.146145 0.0
-0.0959483 0.137223 0.0
-0.0951764 0.128228 0.0
-0.0939165 0.11925 0.0
-0.0922038 0.110368 0.0
-0.0900789 0.101647 0.0
-0.0875858 0.0931455 0.0
-0.0847692 0.0849072 0.0
-0.0816726 0.0769679 0.0
-0.0783367 0.0693547 0.0
-0.0747978 0.0620868 0.0
-0.0710865 0.0551774 0.0
-0.0672273 0.0486347 0.0
-0.0632376 0.0424632 0.0
-0.0591279 0.0366651 0.0
-0.054902 0.0312418 0.0
-0.0505569 0.0261948 0.0
-0.0460839 0.0215275 0.0
-0.0414692 0.0172464 0.0
-0.0366944 0.0133623 0.0
-0.0317378 0.0098921 0.0
-0.0265752 0.00686078 0.0
-0.0211803 0.00430403 0.0
-0.0155254 0.00226274 0.0
-0.00958107 0.000796669 0.0
-0.00331486 0.000108632 0.0
0.88196 0.00172375 0.0
0.659723 0.0136275 0.0
0.472685 0.0363025 0.0
0.325678 0.0621626 0.0
0.214946 0.0881716 0.0
0.133644 0.112343 0.0
0.0747587 0.133646 0.0
0.0322917 0.1517 0.0
0.00154114 0.166485 0.0
-0.0209155 0.17809 0.0
-0.037598 0.186721 0.0
-0.0503849 0.192709 0.0
-0.0605376 0.196339 0.0
-0.0688781 0.197876 0.0
-0.0759252 0.19756 0.0
-0.0819919 0.195609 0.0
-0.0872555 0.192227 0.0
-0.0918059 0.187603 0.0
-0.0956806 0.181915 0.0
-0.0988882 0.175333 0.0
-0.101425 0.168017 0.0
-0.103287 0.16012 0.0
-0.104473 0.151783 0.0
-0.104993 0.143139 0.0
-0.104867 0.134308 0.0
-0.104126 0.125399 0.0
-0.102809 0.116509 0.0
-0.100965 0.10772 0.0
-0.0986456 0.0991037 0.0
-0.0959063 0.0907175 0.0
-0.0928027 0.0826077 0.0
-0.089388 0.0748098 0.0
-0.0857115 0.0673496 0.0
-0.0818166 0.0602447 0.0
-0.0777399 0.0535058 0.0
-0.0735102 0.0471383 0.0
-0.0691481 0.0411436 0.0
-0.0646657 0.0355209 0.0
-0.060067 0.0302683 0.0
-0.055348 0.0253846 0.0
-0.0504974 0.0208702 0.0
-0.0454973 0.0167293 0.0
-0.0403239 0.0129708 0.0
-0.0349483 0.00961005 0.0
-0.029337 0.00667106 0.0
-0.0234527 0.00418888 0.0
-0.0172537 0.00220426 0.0
-0.0106948 0.00077685 0.0
-0.00372429 0.000106109 0.0
0.888625 0.00151104 0.0
0.676848 0.0121754 0.0
0.495729 0.0328092 0.0
0.350746 0.0567747 0.0
0.23941 0.0812909 0.0
0.155995 0.104442 0.0
0.0942678 0.125165 0.0
0.048707 0.143 0.0
0.0148769 0.157834 0.0
-0.0105784 0.169738 0.0
-0.0300197 0.17879 0.0
-0.0452932 0.185253 0.0
-0.0576744 0.189378 0.0
-0.0680043 0.191395 0.0
-0.0768193 0.191525 0.0
-0.0844475 0.189975 0.0
-0.091078 0.186941 0.0
-0.0968106 0.182613 0.0
-0.101691 0.177172 0.0
-0.105736 0.170793 0.0
-0.10895 0.163643 0.0
-0.111337 0.155884 0.0
-0.112907 0.147665 0.0
-0.11368 0.139128 0.0
-0.113689 0.1304 0.0
-0.112976 0.121598 0.0
-0.111596 0.112822 0.0
-0.109609 0.10416 0.0
-0.107082 0.0956854 0.0
-0.104082 0.0874573 0.0
-0.100677 0.079522 0.0
-0.096931 0.0719143 0.0
-0.092902 0.0646582 0.0
-0.0886418 0.0577689 0.0
-0.0841931 0.0512541 0.0
-0.0795895 0.045116 0.0
-0.074855 0.0393524 0.0
-0.0700032 0.033959 0.0
-0.0650383 0.0289304 0.0
-0.0599549 0.0242618 0.0
-0.0547391 0.0199507 0.0
-0.0493685 0.0159983 0.0
-0.0438134 0.0124109 0.0
-0.0380373 0.00920185 0.0
-0.0319973 0.00639316 0.0
-0.0256443 0.00401829 0.0
-0.018923 0.00211681 0.0
-0.0117719 0.000747056 0.0
-0.00412088 0.000102329 0.0
0.894596 0.00133785 0.0
0.692378 0.0109528 0.0
0.516946 0.0298076 0.0
0.374186 0.0520569 0.0
0.262631 0.0751577 0.0
0.177518 0.0972777 0.0
0.113319 0.117341 0.0
0.0649625 0.134832 0.0
0.0282758 0.149567 0.0
3.38114e-05 0.161561 0.0
-0.0220801 0.170871 0.0
-0.0397966 0.177648 0.0
-0.0543971 0.182116 0.0
-0.0667317 0.184479 0.0
-0.077346 0.184936 0.0
-0.0865761 0.183683 0.0
-0.0946176 0.180911 0.0
-0.101576 0.176806 0.0
-0.107502 0.171553 0.0
-0.112418 0.165332 0.0
-0.116336 0.158316 0.0
-0.119266 0.150674 0.0
-0.12123 0.142565 0.0
-0.122259 0.134136 0.0
-0.122399 0.125522 0.0
-0.121705 0.116845 0.0
-0.120248 0.10821 0.0