# vtk DataFile Version 3.0
Malha 2D com triângulos e temperatura
ASCII
DATASET UNSTRUCTURED_GRID

POINTS 2500 double
0 0 0
1 0 0
1 1 0
0 1 0
0.0204082 0 0
0.0408163 0 0
0.0612245 0 0
0.0816327 0 0
0.102041 0 0
0.122449 0 0
0.142857 0 0
0.163265 0 0
0.183673 0 0
0.204082 0 0
0.22449 0 0
0.244898 0 0
0.265306 0 0
0.285714 0 0
0.306122 0 0
0.326531 0 0
0.346939 0 0
0.367347 0 0
0.387755 0 0
0.408163 0 0
0.428571 0 0
0.44898 0 0
0.469388 0 0
0.489796 0 0
0.510204 0 0
0.530612 0 0
0.55102 0 0
0.571429 0 0
0.591837 0 0
0.612245 0 0
0.632653 0 0
0.653061 0 0
0.673469 0 0
0.693878 0 0
0.714286 0 0
0.734694 0 0
0.755102 0 0
0.77551 0 0
0.795918 0 0
0.816327 0 0
0.836735 0 0
0.857143 0 0
0.877551 0 0
0.897959 0 0
0.918367 0 0
0.938776 0 0
0.959184 0 0
0.979592 0 0
1 0.0204082 0
1 0.0408163 0
1 0.0612245 0
1 0.0816327 0
1 0.102041 0
1 0.122449 0
1 0.142857 0
1 0.163265 0
1 0.183673 0
1 0.204082 0
1 0.22449 0
1 0.244898 0
1 0.265306 0
1 0.285714 0
1 0.306122 0
1 0.326531 0
1 0.346939 0
1 0.367347 0
1 0.387755 0
1 0.408163 0
1 0.428571 0
1 0.44898 0
1 0.469388 0
1 0.489796 0
1 0.510204 0
1 0.530612 0
1 0.55102 0
1 0.571429 0
1 0.591837 0
1 0.612245 0
1 0.632653 0
1 0.653061 0
1 0.673469 0
1 0.693878 0
1 0.714286 0
1 0.734694 0
1 0.755102 0
1 0.77551 0
1 0.795918 0
1 0.816327 0
1 0.836735 0
1 0.857143 0
1 0.877551 0
1 0.897959 0
1 0.918367 0
1 0.938776 0
1 0.959184 0
1 0.979592 0
0.979592 1 0
0.959184 1 0
0.938776 1 0
0.918367 1 0
0.897959 1 0
0.877551 1 0
0.857143 1 0
0.836735 1 0
0.816327 1 0
0.795918 1 0
0.77551 1 0
0.755102 1 0
0.734694 1 0
0.714286 1 0
0.693878 1 0
0.673469 1 0
0.653061 1 0
0.632653 1 0
0.612245 1 0
0.591837 1 0
0.571429 1 0
0.55102 1 0
0.530612 1 0
0.510204 1 0
0.489796 1 0
0.469388 1 0
0.44898 1 0
0.428571 1 0
0.408163 1 0
0.387755 1 0
0.367347 1 0
0.346939 1 0
0.326531 1 0
0.306122 1 0
0.285714 1 0
0.265306 1 0
0.244898 1 0
0.22449 1 0
0.204082 1 0
0.183673 1 0
0.163265 1 0
0.142857 1 0
0.122449 1 0
0.102041 1 0
0.0816327 1 0
0.0612245 1 0
0.0408163 1 0
0.0204082 1 0
0 0.979592 0
0 0.959184 0
0 0.938776 0
0 0.918367 0
0 0.897959 0
0 0.877551 0
0 0.857143 0
0 0.836735 0
0 0.816327 0
0 0.795918 0
0 0.77551 0
0 0.755102 0
0 0.734694 0
0 0.714286 0
0 0.693878 0
0 0.673469 0
0 0.653061 0
0 0.632653 0
0 0.612245 0
0 0.591837 0
0 0.571429 0
0 0.55102 0
0 0.530612 0
0 0.510204 0
0 0.489796 0
0 0.469388 0
0 0.44898 0
0 0.428571 0
0 0.408163 0
0 0.387755 0
0 0.367347 0
0 0.346939 0
0 0.326531 0
0 0.306122 0
0 0.285714 0
0 0.265306 0
0 0.244898 0
0 0.22449 0
0 0.204082 0
0 0.183673 0
0 0.163265 0
0 0.142857 0
0 0.122449 0
0 0.102041 0
0 0.0816327 0
0 0.0612245 0
0 0.0408163 0
0 0.0204082 0
0.0204082 0.979592 0
0.0204082 0.959184 0
0.0204082 0.938776 0
0.0204082 0.918367 0
0.0204082 0.897959 0
0.0204082 0.877551 0
0.0204082 0.857143 0
0.0204082 0.836735 0
0.0204082 0.816327 0
0.0204082 0.795918 0
0.0204082 0.77551 0
0.0204082 0.755102 0
0.0204082 0.734694 0
0.0204082 0.714286 0
0.0204082 0.693878 0
0.0204082 0.673469 0
0.0204082 0.653061 0
0.0204082 0.632653 0
0.0204082 0.612245 0
0.0204082 0.591837 0
0.0204082 0.571429 0
0.0204082 0.55102 0
0.0204082 0.530612 0
0.0204082 0.510204 0
0.0204082 0.489796 0
0.0204082 0.469388 0
0.0204082 0.44898 0
0.0204082 0.428571 0
0.0204082 0.408163 0
0.0204082 0.387755 0
0.0204082 0.367347 0
0.0204082 0.346939 0
0.0204082 0.326531 0
0.0204082 0.306122 0
0.0204082 0.285714 0
0.0204082 0.265306 0
0.0204082 0.244898 0
0.0204082 0.22449 0
0.0204082 0.204082 0
0.0204082 0.183673 0
0.0204082 0.163265 0
0.0204082 0.142857 0
0.0204082 0.122449 0
0.0204082 0.102041 0
0.0204082 0.0816327 0
0.0204082 0.0612245 0
0.0204082 0.0408163 0
0.0204082 0.0204082 0
0.0408163 0.979592 0
0.0408163 0.959184 0
0.0408163 0.938776 0
0.0408163 0.918367 0
0.0408163 0.897959 0
0.0408163 0.877551 0
0.0408163 0.857143 0
0.0408163 0.836735 0
0.0408163 0.816327 0
0.0408163 0.795918 0
0.0408163 0.77551 0
0.0408163 0.755102 0
0.0408163 0.734694 0
0.0408163 0.714286 0
0.0408163 0.693878 0
0.0408163 0.673469 0
0.0408163 0.653061 0
0.0408163 0.632653 0
0.0408163 0.612245 0
0.0408163 0.591837 0
0.0408163 0.571429 0
0.0408163 0.55102 0
0.0408163 0.530612 0
0.0408163 0.510204 0
0.0408163 0.489796 0
0.0408163 0.469388 0
0.0408163 0.44898 0
0.0408163 0.428571 0
0.0408163 0.408163 0
0.0408163 0.387755 0
0.0408163 0.367347 0
0.0408163 0.346939 0
0.0408163 0.326531 0
0.0408163 0.306122 0
0.0408163 0.285714 0
0.0408163 0.265306 0
0.0408163 0.244898 0
0.0408163 0.22449 0
0.0408163 0.204082 0
0.0408163 0.183673 0
0.0408163 0.163265 0
0.0408163 0.142857 0
0.0408163 0.122449 0
0.0408163 0.102041 0
0.0408163 0.0816327 0
0.0408163 0.0612245 0
0.0408163 0.0408163 0
0.0408163 0.0204082 0
0.0612245 0.979592 0
0.0612245 0.959184 0
0.0612245 0.938776 0
0.0612245 0.918367 0
0.0612245 0.897959 0
0.0612245 0.877551 0
0.0612245 0.857143 0
0.0612245 0.836735 0
0.0612245 0.816327 0
0.0612245 0.795918 0
0.0612245 0.77551 0
0.0612245 0.755102 0
0.0612245 0.734694 0
0.0612245 0.714286 0
0.0612245 0.693878 0
0.0612245 0.673469 0
0.0612245 0.653061 0
0.0612245 0.632653 0
0.0612245 0.612245 0
0.0612245 0.591837 0
0.0612245 0.571429 0
0.0612245 0.55102 0
0.0612245 0.530612 0
0.0612245 0.510204 0
0.0612245 0.489796 0
0.0612245 0.469388 0
0.0612245 0.44898 0
0.0612245 0.428571 0
0.0612245 0.408163 0
0.0612245 0.387755 0
0.0612245 0.367347 0
0.0612245 0.346939 0
0.0612245 0.326531 0
0.0612245 0.306122 0
0.0612245 0.285714 0
0.0612245 0.265306 0
0.0612245 0.244898 0
0.0612245 0.22449 0
0.0612245 0.204082 0
0.0612245 0.183673 0
0.0612245 0.163265 0
0.0612245 0.142857 0
0.0612245 0.122449 0
0.0612245 0.102041 0
0.0612245 0.0816327 0
0.0612245 0.0612245 0
0.0612245 0.0408163 0
0.0612245 0.0204082 0
0.0816327 0.979592 0
0.0816327 0.959184 0
0.0816327 0.938776 0
0.0816327 0.918367 0
0.0816327 0.897959 0
0.0816327 0.877551 0
0.0816327 0.857143 0
0.0816327 0.836735 0
0.0816327 0.816327 0
0.0816327 0.795918 0
0.0816327 0.77551 0
0.0816327 0.755102 0
0.0816327 0.734694 0
0.0816327 0.714286 0
0.0816327 0.693878 0
0.0816327 0.673469 0
0.0816327 0.653061 0
0.0816327 0.632653 0
0.0816327 0.612245 0
0.0816327 0.591837 0
0.0816327 0.571429 0
0.0816327 0.55102 0
0.0816327 0.530612 0
0.0816327 0.510204 0
0.0816327 0.489796 0
0.0816327 0.469388 0
0.0816327 0.44898 0
0.0816327 0.428571 0
0.0816327 0.408163 0
0.0816327 0.387755 0
0.0816327 0.367347 0
0.0816327 0.346939 0
0.0816327 0.326531 0
0.0816327 0.306122 0
0.0816327 0.285714 0
0.0816327 0.265306 0
0.0816327 0.244898 0
0.0816327 0.22449 0
0.0816327 0.204082 0
0.0816327 0.183673 0
0.0816327 0.163265 0
0.0816327 0.142857 0
0.0816327 0.122449 0
0.0816327 0.102041 0
0.0816327 0.0816327 0
0.0816327 0.0612245 0
0.0816327 0.0408163 0
0.0816327 0.0204082 0
0.102041 0.979592 0
0.102041 0.959184 0
0.102041 0.938776 0
0.102041 0.918367 0
0.102041 0.897959 0
0.102041 0.877551 0
0.102041 0.857143 0
0.102041 0.836735 0
0.102041 0.816327 0
0.102041 0.795918 0
0.102041 0.77551 0
0.102041 0.755102 0
0.102041 0.734694 0
0.102041 0.714286 0
0.102041 0.693878 0
0.102041 0.673469 0
0.102041 0.653061 0
0.102041 0.632653 0
0.102041 0.612245 0
0.102041 0.591837 0
0.102041 0.571429 0
0.102041 0.55102 0
0.102041 0.530612 0
0.102041 0.510204 0
0.102041 0.489796 0
0.102041 0.469388 0
0.102041 0.44898 0
0.102041 0.428571 0
0.102041 0.408163 0
0.102041 0.387755 0
0.102041 0.367347 0
0.102041 0.346939 0
0.102041 0.326531 0
0.102041 0.306122 0
0.102041 0.285714 0
0.102041 0.265306 0
0.102041 0.244898 0
0.102041 0.22449 0
0.102041 0.204082 0
0.102041 0.183673 0
0.102041 0.163265 0
0.102041 0.142857 0
0.102041 0.122449 0
0.102041 0.102041 0
0.102041 0.0816327 0
0.102041 0.0612245 0
0.102041 0.0408163 0
0.102041 0.0204082 0
0.122449 0.979592 0
0.122449 0.959184 0
0.122449 0.938776 0
0.122449 0.918367 0
0.122449 0.897959 0
0.122449 0.877551 0
0.122449 0.857143 0
0.122449 0.836735 0
0.122449 0.816327 0
0.122449 0.795918 0
0.122449 0.77551 0
0.122449 0.755102 0
0.122449 0.734694 0
0.122449 0.714286 0
0.122449 0.693878 0
0.122449 0.673469 0
0.122449 0.653061 0
0.122449 0.632653 0
0.122449 0.612245 0
0.122449 0.591837 0
0.122449 0.571429 0
0.122449 0.55102 0
0.122449 0.530612 0
0.122449 0.510204 0
0.122449 0.489796 0
0.122449 0.469388 0
0.122449 0.44898 0
0.122449 0.428571 0
0.122449 0.408163 0
0.122449 0.387755 0
0.122449 0.367347 0
0.122449 0.346939 0
0.122449 0.326531 0
0.122449 0.306122 0
0.122449 0.285714 0
0.122449 0.265306 0
0.122449 0.244898 0
0.122449 0.22449 0
0.122449 0.204082 0
0.122449 0.183673 0
0.122449 0.163265 0
0.122449 0.142857 0
0.122449 0.122449 0
0.122449 0.102041 0
0.122449 0.0816327 0
0.122449 0.0612245 0
0.122449 0.0408163 0
0.122449 0.0204082 0
0.142857 0.979592 0
0.142857 0.959184 0
0.142857 0.938776 0
0.142857 0.918367 0
0.142857 0.897959 0
0.142857 0.877551 0
0.142857 0.857143 0
0.142857 0.836735 0
0.142857 0.816327 0
0.142857 0.795918 0
0.142857 0.77551 0
0.142857 0.755102 0
0.142857 0.734694 0
0.142857 0.714286 0
0.142857 0.693878 0
0.142857 0.673469 0
0.142857 0.653061 0
0.142857 0.632653 0
0.142857 0.612245 0
0.142857 0.591837 0
0.142857 0.571429 0
0.142857 0.55102 0
0.142857 0.530612 0
0.142857 0.510204 0
0.142857 0.489796 0
0.142857 0.469388 0
0.142857 0.44898 0
0.142857 0.428571 0
0.142857 0.408163 0
0.142857 0.387755 0
0.142857 0.367347 0
0.142857 0.346939 0
0.142857 0.326531 0
0.142857 0.306122 0
0.142857 0.285714 0
0.142857 0.265306 0
0.142857 0.244898 0
0.142857 0.22449 0
0.142857 0.204082 0
0.142857 0.183673 0
0.142857 0.163265 0
0.142857 0.142857 0
0.142857 0.122449 0
0.142857 0.102041 0
0.142857 0.0816327 0
0.142857 0.0612245 0
0.142857 0.0408163 0
0.142857 0.0204082 0
0.163265 0.979592 0
0.163265 0.959184 0
0.163265 0.938776 0
0.163265 0.918367 0
0.163265 0.897959 0
0.163265 0.877551 0
0.163265 0.857143 0
0.163265 0.836735 0
0.163265 0.816327 0
0.163265 0.795918 0
0.163265 0.77551 0
0.163265 0.755102 0
0.163265 0.734694 0
0.163265 0.714286 0
0.163265 0.693878 0
0.163265 0.673469 0
0.163265 0.653061 0
0.163265 0.632653 0
0.163265 0.612245 0
0.163265 0.591837 0
0.163265 0.571429 0
0.163265 0.55102 0
[...]
CELL_DATA 2401
VECTORS velocity double
0.257357 0.157466 0.0
-0.00268755 0.264619 0.0
-0.0322816 0.205561 0.0
-0.0253575 0.150752 0.0
-0.0160444 0.113261 0.0
-0.00970022 0.0879115 0.0
-0.00593906 0.0708047 0.0
-0.00376609 0.059039 0.0
-0.00249173 0.0507135 0.0
-0.00172008 0.0446509 0.0
-0.00123563 0.0401117 0.0
-0.000921568 0.0366185 0.0
-0.000713022 0.0338536 0.0
-0.00057253 0.0315994 0.0
-0.000477431 0.0297036 0.0
-0.000413379 0.0280578 0.0
-0.000370904 0.0265841 0.0
-0.00034353 0.0252264 0.0
-0.000326686 0.0239443 0.0
-0.000317068 0.0227094 0.0
-0.000312238 0.0215019 0.0
-0.000310373 0.0203091 0.0
-0.000310101 0.0191233 0.0
-0.000310389 0.0179408 0.0
-0.00031047 0.0167609 0.0
-0.000309785 0.0155852 0.0
-0.000307948 0.0144168 0.0
-0.000304707 0.0132601 0.0
-0.000299923 0.01212 0.0
-0.000293541 0.0110019 0.0
-0.000285576 0.00991129 0.0
-0.000276089 0.00885352 0.0
-0.00026517 0.00783379 0.0
-0.000252927 0.00685696 0.0
-0.00023947 0.00592757 0.0
-0.000224895 0.00504984 0.0
-0.00020928 0.00422768 0.0
-0.000192668 0.00346479 0.0
-0.000175061 0.00276475 0.0
-0.000156406 0.00213111 0.0
-0.000136588 0.00156754 0.0
-0.000115422 0.00107793 0.0
-9.26504e-05 0.000666509 0.0
-6.79914e-05 0.000337751 0.0
-4.12798e-05 9.61206e-05 0.0
-1.29191e-05 -5.48595e-05 0.0
1.4948e-05 -0.000114757 0.0
3.60125e-05 -9.4131e-05 0.0
3.32028e-05 -3.30451e-05 0.0
0.340636 0.122976 0.0
-0.000560216 0.249511 0.0
-0.0651378 0.271833 0.0
-0.0631835 0.252473 0.0
-0.048499 0.222013 0.0
-0.035007 0.192127 0.0
-0.0250207 0.166611 0.0
-0.0180505 0.145969 0.0
-0.013248 0.129599 0.0
-0.00992553 0.11666 0.0
-0.00760587 0.106368 0.0
-0.00597244 0.098075 0.0
-0.0048162 0.0912705 0.0
-0.00399712 0.085563 0.0
-0.00341941 0.0806547 0.0
-0.00301606 0.0763206 0.0
-0.00273914 0.0723917 0.0
-0.00255372 0.0687421 0.0
-0.00243389 0.065279 0.0
-0.00236012 0.0619357 0.0
-0.00231759 0.0586655 0.0
-0.0022949 0.0554374 0.0
-0.00228333 0.0522325 0.0
-0.0022762 0.0490419 0.0
-0.00226849 0.0458635 0.0
-0.00225648 0.0427011 0.0
-0.00223754 0.0395624 0.0
-0.0022099 0.0364578 0.0
-0.00217252 0.0333997 0.0
-0.0021249 0.0304015 0.0
-0.00206697 0.0274768 0.0
-0.001999 0.0246393 0.0
-0.00192145 0.0219022 0.0
-0.0018349 0.019278 0.0
-0.00173995 0.0167785 0.0
-0.0016372 0.0144147 0.0
-0.0015271 0.0121971 0.0
-0.00141001 0.0101353 0.0
-0.00128607 0.0082387 0.0
-0.00115524 0.00651649 0.0
-0.00101727 0.00497771 0.0
-0.00087181 0.00363142 0.0
-0.000718523 0.00248654 0.0
-0.000557511 0.00155135 0.0
-0.000390157 0.000832282 0.0
-0.000221034 0.000331518 0.0
-6.18466e-05 4.2395e-05 0.0
6.19012e-05 -6.04665e-05 0.0
9.36737e-05 -3.50487e-05 0.0
0.50096 0.0768215 0.0
0.0992752 0.183337 0.0
-0.0391572 0.24946 0.0
-0.0732945 0.266023 0.0
-0.0718809 0.257727 0.0
-0.0607267 0.239863 0.0
-0.0486244 0.219687 0.0
-0.0381897 0.200491 0.0
-0.0298995 0.183497 0.0
-0.0235472 0.168929 0.0
-0.0187676 0.156591 0.0
-0.0152105 0.146136 0.0
-0.0125864 0.137197 0.0
-0.0106683 0.129438 0.0
-0.0092823 0.122575 0.0
-0.00829593 0.116373 0.0
-0.00760796 0.110647 0.0
-0.00714079 0.105253 0.0
-0.00683452 0.100083 0.0
-0.00664268 0.095056 0.0
-0.00652902 0.0901155 0.0
-0.00646528 0.0852245 0.0
-0.00642943 0.0803608 0.0
-0.00640445 0.0755148 0.0
-0.00637741 0.0706861 0.0
-0.00633866 0.0658816 0.0
-0.00628134 0.0611137 0.0
-0.00620077 0.0563983 0.0
-0.00609415 0.0517537 0.0
-0.00596009 0.0471997 0.0
-0.00579834 0.0427564 0.0
-0.00560947 0.0384439 0.0
-0.00539459 0.0342816 0.0
-0.00515515 0.0302879 0.0
-0.00489271 0.0264803 0.0
-0.00460874 0.0228751 0.0
-0.00430455 0.0194876 0.0
-0.00398111 0.0163321 0.0
-0.00363905 0.0134225 0.0
-0.00327861 0.0107718 0.0
-0.00289981 0.00839278 0.0
-0.00250264 0.00629746 0.0
-0.00208766 0.00449717 0.0
-0.00165699 0.00300143 0.0
-0.0012163 0.00181641 0.0
-0.000778498 0.000942258 0.0
-0.000370312 0.000367645 0.0
-4.15312e-05 6.31812e-05 0.0
0.000112223 -1.32482e-05 0.0
0.61017 0.0480629 0.0
0.195923 0.134067 0.0
0.0116248 0.209617 0.0
-0.0579222 0.246666 0.0
-0.0761475 0.257152 0.0
-0.0740281 0.253569 0.0
-0.0649832 0.243094 0.0
-0.0546012 0.229981 0.0
-0.0450427 0.216499 0.0
-0.0369906 0.203717 0.0
-0.0305154 0.192043 0.0
-0.0254565 0.181541 0.0
-0.021587 0.172109 0.0
-0.0186815 0.16358 0.0
-0.0165398 0.15577 0.0
-0.0149938 0.148508 0.0
-0.0139052 0.141648 0.0
-0.0131622 0.135068 0.0
-0.0126747 0.128672 0.0
-0.0123704 0.122389 0.0
-0.0121914 0.116168 0.0
-0.0120918 0.109978 0.0
-0.0120351 0.103802 0.0
-0.011993 0.0976344 0.0
-0.0119436 0.0914799 0.0
-0.0118706 0.0853509 0.0
-0.0117623 0.0792652 0.0
-0.0116108 0.0732442 0.0
-0.0114113 0.0673118 0.0
-0.0111615 0.0614934 0.0
-0.0108609 0.0558143 0.0
-0.0105107 0.0502997 0.0
-0.0101129 0.0449738 0.0
-0.00966998 0.0398597 0.0
-0.00918479 0.034979 0.0
-0.00866004 0.030352 0.0
-0.00809811 0.0259976 0.0
-0.00750097 0.0219335 0.0
-0.00687005 0.0181763 0.0
-0.0062063 0.0147419 0.0
-0.00551049 0.011645 0.0
-0.00478364 0.00889967 0.0
-0.00402804 0.00651807 0.0
-0.00324886 0.00451015 0.0
-0.00245706 0.00288188 0.0
-0.00167428 0.00163316 0.0
-0.000940772 0.000752445 0.0
-0.000325346 0.000215158 0.0
5.1114e-05 1.43144e-05 0.0
0.680606 0.0301694 0.0
0.27875 0.098253 0.0
0.0698678 0.171093 0.0
-0.0274168 0.217568 0.0
-0.0654642 0.24091 0.0
-0.0752018 0.249181 0.0
-0.0724381 0.248302 0.0
-0.0648968 0.242382 0.0
-0.0562211 0.234011 0.0
-0.0480319 0.224694 0.0
-0.0409578 0.215249 0.0
-0.0351521 0.206072 0.0
-0.0305531 0.197313 0.0
-0.0270123 0.188989 0.0
-0.0243576 0.181048 0.0
-0.0224215 0.173412 0.0
-0.0210533 0.165999 0.0
-0.0201228 0.158733 0.0
-0.0195197 0.151551 0.0
-0.0191525 0.144406 0.0
-0.0189458 0.137266 0.0
-0.0188383 0.130113 0.0
-0.0187807 0.122941 0.0
-0.0187341 0.115754 0.0
-0.0186684 0.108567 0.0
-0.018561 0.101397 0.0
-0.0183958 0.0942706 0.0
-0.0181618 0.0872143 0.0
-0.0178525 0.0802578 0.0
-0.0174651 0.0734314 0.0
-0.0169993 0.0667653 0.0
-0.016457 0.0602887 0.0
-0.0158413 0.0540297 0.0
-0.0151564 0.0480149 0.0
-0.0144065 0.0422689 0.0
-0.013596 0.0368147 0.0
-0.0127285 0.0316738 0.0
-0.0118074 0.026866 0.0
-0.0108352 0.0224098 0.0
-0.00981395 0.0183226 0.0
-0.00874562 0.0146203 0.0
-0.00763272 0.0113178 0.0
-0.00647969 0.00842787 0.0
-0.00529506 0.00596097 0.0
-0.00409478 0.00392384 0.0
-0.00290767 0.00231853 0.0
-0.00178354 0.00113728 0.0
-0.000802385 0.000365992 0.0
-9.52173e-05 4.05783e-05 0.0
0.730028 0.0191868 0.0
0.349299 0.0730637 0.0
0.128146 0.139297 0.0
0.0111972 0.188165 0.0
-0.0446956 0.219325 0.0
-0.0668186 0.236151 0.0
-0.0718787 0.243185 0.0
-0.0689292 0.243907 0.0
-0.0627403 0.240788 0.0
-0.0557478 0.235456 0.0
-0.0491273 0.228927 0.0
-0.0433808 0.221804 0.0
-0.0386592 0.214424 0.0
-0.034937 0.206955 0.0
-0.0321079 0.199468 0.0
-0.0300353 0.191978 0.0
-0.0285786 0.184474 0.0
-0.0276052 0.176935 0.0
-0.0269971 0.169339 0.0
-0.0266514 0.161672 0.0
-0.0264812 0.153926 0.0
-0.0264141 0.146102 0.0
-0.0263909 0.138211 0.0
-0.0263645 0.130271 0.0
-0.0262981 0.122305 0.0
-0.0261641 0.114342 0.0
-0.0259428 0.106415 0.0
-0.0256212 0.0985576 0.0
-0.0251917 0.0908049 0.0
-0.0246516 0.0831923 0.0
-0.0240013 0.0757542 0.0
-0.0232439 0.0685235 0.0
-0.0223844 0.0615313 0.0
-0.0214287 0.0548068 0.0
-0.0203828 0.0483768 0.0
-0.0192531 0.0422661 0.0
-0.0180449 0.0364977 0.0
-0.0167632 0.0310926 0.0
-0.0154118 0.0260702 0.0
-0.0139943 0.0214486 0.0
-0.012514 0.0172444 0.0
-0.0109749 0.0134727 0.0
-0.00938379 0.0101471 0.0
-0.00775196 0.00727895 0.0
-0.00609917 0.00487702 0.0
-0.00445885 0.00294754 0.0
-0.0028856 0.00148933 0.0
-0.00146286 0.000501582 0.0
-0.000319581 6.29957e-05 0.0
0.766032 0.0125759 0.0
0.40869 0.0556666 0.0
0.183027 0.11442 0.0
0.0525169 0.162339 0.0
-0.0177958 0.19724 0.0
-0.0515006 0.219748 0.0
-0.0647985 0.232716 0.0
-0.0673601 0.238919 0.0
-0.0647089 0.240504 0.0
-0.059913 0.239018 0.0
-0.0546191 0.235525 0.0
-0.049659 0.230725 0.0
-0.0454034 0.225066 0.0
-0.0419681 0.218822 0.0
-0.039334 0.212159 0.0
-0.0374147 0.205172 0.0
-0.0360962 0.197913 0.0
-0.0352575 0.190415 0.0
-0.0347827 0.182699 0.0
-0.0345664 0.174783 0.0
-0.0345161 0.166689 0.0
-0.0345533 0.158439 0.0
-0.0346125 0.150063 0.0
-0.034641 0.141592 0.0
-0.0345977 0.133064 0.0
-0.0344518 0.124518 0.0
-0.0341816 0.115993 0.0
-0.033773 0.107533 0.0
-0.0332187 0.0991777 0.0
-0.0325166 0.0909675 0.0
-0.0316689 0.0829407 0.0
-0.0306805 0.0751336 0.0
-0.0295587 0.0675797 0.0
-0.0283115 0.0603101 0.0
-0.0269477 0.0533531 0.0
-0.0254754 0.0467346 0.0
-0.0239024 0.040478 0.0
-0.0222352 0.034605 0.0
-0.0204794 0.0291352 0.0
-0.01864 0.0240867 0.0
-0.0167216 0.0194762 0.0
-0.01473 0.0153193 0.0
-0.0126734 0.0116301 0.0
-0.010565 0.0084216 0.0
-0.00842653 0.00570559 0.0
-0.00629314 0.00349378 0.0
-0.00421954 0.00179305 0.0
-0.00228603 0.000616427 0.0
-0.000610856 8.10569e-05 0.0
0.793035 0.00858178 0.0
0.458655 0.0435393 0.0
0.233341 0.0951691 0.0
0.0939147 0.140626 0.0
0.0126869 0.17655 0.0
-0.0314384 0.202622 0.0
-0.0527721 0.219809 0.0
-0.0611905 0.230272 0.0
-0.0626731 0.235774 0.0
-0.0607459 0.237692 0.0
-0.0574319 0.237042 0.0
-0.053847 0.234544 0.0
-0.050566 0.230697 0.0
-0.0478454 0.225838 0.0
-0.0457596 0.220197 0.0
-0.0442822 0.213928 0.0
-0.0433357 0.207138 0.0
-0.0428198 0.199903 0.0
-0.0426291 0.192282 0.0
-0.042662 0.184328 0.0
-0.0428261 0.176087 0.0
-0.0430409 0.167606 0.0
-0.0432386 0.158932 0.0
-0.0433639 0.150114 0.0
-0.0433736 0.141201 0.0
-0.0432358 0.132243 0.0
-0.0429283 0.123291 0.0
-0.0424378 0.114393 0.0
-0.0417582 0.105597 0.0
-0.0408895 0.0969473 0.0
-0.039836 0.0884865 0.0
-0.0386057 0.0802535 0.0
-0.0372086 0.072284 0.0
-0.0356559 0.0646103 0.0
-0.0339589 0.0572617 0.0
-0.0321286 0.0502644 0.0
-0.0301749 0.043642 0.0
-0.0281064 0.0374156 0.0
-0.0259305 0.0316048 0.0
-0.0236535 0.0262272 0.0
-0.0212814 0.0212994 0.0
-0.018821 0.0168371 0.0
-0.0162813 0.0128553 0.0
-0.0136763 0.00936884 0.0
-0.0110275 0.0063932 0.0
-0.00836875 0.00394611 0.0
-0.00575097 0.00204283 0.0
-0.00324634 0.000709327 0.0
-0.000956866 9.50269e-05 0.0
0.813985 0.006126 0.0
0.501005 0.0349382 0.0
0.278941 0.0802721 0.0
0.133951 0.122705 0.0
0.0443059 0.158323 0.0
-0.00841695 0.186113 0.0
-0.0371909 0.206164 0.0
-0.0514347 0.219783 0.0
-0.0573162 0.228394 0.0
-0.0586623 0.233167 0.0
-0.0577785 0.235019 0.0
-0.056012 0.234642 0.0
-0.0541142 0.232541 0.0
-0.0524705 0.229084 0.0
-0.0512457 0.224537 0.0
-0.0504756 0.219094 0.0
-0.0501231 0.2129 0.0
-0.050114 0.206069 0.0
-0.050358 0.198692 0.0
-0.0507623 0.190849 0.0
-0.0512389 0.182612 0.0
-0.0517091 0.174047 0.0
-0.0521054 0.165222 0.0
-0.0523731 0.1562 0.0
-0.0524691 0.147043 0.0
-0.0523624 0.137814 0.0
-0.0520324 0.128571 0.0
-0.0514677 0.119372 0.0
-0.0506652 0.110268 0.0
-0.0496277 0.101311 0.0
-0.0483633 0.0925456 0.0
-0.0468836 0.0840136 0.0
-0.0452024 0.0757525 0.0
-0.0433342 0.0677955 0.0
-0.041294 0.0601722 0.0
-0.0390955 0.0529085 0.0
-0.0367515 0.0460275 0.0
-0.0342726 0.0395498 0.0
-0.031668 0.0334938 0.0
-0.0289455 0.0278766 0.0
-0.0261118 0.0227142 0.0
-0.023174 0.0180224 0.0
-0.0201414 0.0138172 0.0
-0.0170267 0.0101152 0.0
-0.0138499 0.00693578 0.0
-0.0106406 0.00430247 0.0
-0.00744273 0.0022385 0.0
-0.0043169 0.000781115 0.0
-0.00134579 0.000105412 0.0
0.830763 0.00457619 0.0
0.537264 0.0287062 0.0
0.320135 0.0686403 0.0
0.172031 0.107926 0.0
0.0760637 0.142492 0.0
0.0163957 0.170784 0.0
-0.0191463 0.192662 0.0
-0.0389818 0.208548 0.0
-0.049309 0.219546 0.0
-0.0541347 0.226629 0.0
-0.0559667 0.230598 0.0
-0.0563324 0.232084 0.0
-0.0561287 0.231578 0.0
-0.0558529 0.22945 0.0
-0.055752 0.225982 0.0
-0.0559203 0.221393 0.0
-0.0563616 0.215854 0.0
-0.0570289 0.209505 0.0
-0.0578501 0.202462 0.0
-0.0587438 0.194829 0.0
-0.0596289 0.186699 0.0
-0.0604315 0.178158 0.0
-0.0610871 0.16929 0.0
-0.0615434 0.160173 0.0
-0.06176 0.150883 0.0
-0.0617086 0.141493 0.0
-0.0613717 0.132069 0.0
-0.0607417 0.122677 0.0
-0.0598196 0.113376 0.0
-0.0586128 0.10422 0.0
-0.057134 0.095258 0.0
-0.0553994 0.0865341 0.0
-0.0534273 0.078087 0.0
-0.0512367 0.0699504 0.0
-0.0488464 0.0621536 0.0
-0.0462736 0.054722 0.0
-0.0435338 0.0476776 0.0
-0.0406403 0.0410397 0.0
-0.0376038 0.0348256 0.0
-0.0344331 0.0290511 0.0
-0.0311356 0.0237315 0.0
-0.027718 0.0188825 0.0
-0.0241884 0.0145205 0.0
-0.0205574 0.0106643 0.0
-0.016841 0.00733643 0.0
-0.0130629 0.00456586 0.0
-0.00925751 0.0023827 0.0
-0.00547149 0.000833491 0.0
-0.00176676 0.00011275 0.0
0.844569 0.00356579 0.0
0.568639 0.0240877 0.0
0.35736 0.0594578 0.0
0.207886 0.0957173 0.0
0.10721 0.128858 0.0
0.0417759 0.15702 0.0
0.000519485 0.179756 0.0
-0.0245604 0.197222 0.0
-0.0392458 0.209998 0.0
-0.0476219 0.218897 0.0
-0.0523314 0.2246 0.0
-0.0550374 0.227672 0.0
-0.0567534 0.228566 0.0
-0.0580697 0.227643 0.0
-0.0593047 0.225186 0.0
-0.0606052 0.221424 0.0
-0.0620129 0.216544 0.0
-0.0635074 0.210705 0.0
-0.065035 0.204041 0.0
-0.0665268 0.196676 0.0
-0.0679106 0.188719 0.0
-0.0691185 0.180275 0.0
-0.0700912 0.171441 0.0
-0.0707806 0.16231 0.0
-0.0711507 0.152969 0.0
-0.0711776 0.143502 0.0
-0.0708487 0.133984 0.0
-0.0701618 0.124488 0.0
-0.0691232 0.115078 0.0
-0.0677463 0.105813 0.0
-0.0660497 0.0967455 0.0
-0.0640552 0.0879206 0.0
-0.0617866 0.079378 0.0
-0.0592681 0.0711517 0.0
-0.0565227 0.0632703 0.0
-0.0535718 0.0557581 0.0
-0.050434 0.0486355 0.0
-0.0471248 0.0419201 0.0
-0.0436568 0.0356275 0.0
-0.0400396 0.029772 0.0
-0.0362804 0.0243679 0.0
-0.032385 0.0194301 0.0
-0.0283594 0.0149756 0.0
-0.0242105 0.0110244 0.0
-0.0199491 0.007602 0.0
-0.015591 0.00474167 0.0
-0.0111594 0.00247922 0.0
-0.00668551 0.000868391 0.0
-0.00221008 0.000117526 0.0
0.856193 0.00288133 0.0
0.596075 0.0205823 0.0
0.391087 0.0521075 0.0
0.241496 0.085554 0.0
0.137398 0.117096 0.0
0.0672493 0.144722 0.0
0.0210734 0.167731 0.0
-0.00878241 0.18617 0.0
-0.0276419 0.200234 0.0
-0.0395426 0.210518 0.0
-0.0471991 0.217605 0.0
-0.0523711 0.221986 0.0
-0.0561618 0.224075 0.0
-0.0592366 0.224206 0.0
-0.0619731 0.222658 0.0
-0.0645632 0.219661 0.0
-0.067082 0.215409 0.0
-0.0695332 0.210071 0.0
-0.0718804 0.203798 0.0
-0.0740673 0.196724 0.0
-0.076031 0.188976 0.0
-0.0777106 0.180672 0.0
-0.0790531 0.171923 0.0
-0.080016 0.162834 0.0
-0.0805691 0.153504 0.0
-0.0806945 0.144024 0.0
-0.0803862 0.13448 0.0
-0.0796486 0.12495 0.0
-0.078495 0.115505 0.0
-0.0769461 0.106207 0.0
-0.0750272 0.0971099 0.0
-0.0727674 0.088262 0.0
-0.0701966 0.0797029 0.0
-0.0673448 0.0714661 0.0
-0.0642403 0.0635792 0.0
-0.0609087 0.0560648 0.0
-0.057372 0.0489414 0.0
-0.0536485 0.0422243 0.0
-0.049752 0.0359271 0.0
-0.0456928 0.0300621 0.0
-0.0414775 0.0246419 0.0
-0.0371103 0.0196806 0.0
-0.0325939 0.0151949 0.0
-0.0279307 0.0112058 0.0
-0.0231246 0.00774067 0.0
-0.0181823 0.00483605 0.0
-0.0131145 0.00253202 0.0
-0.00793627 0.000887651 0.0
-0.00266715 0.000120139 0.0
0.866166 0.00239826 0.0
0.620303 0.0178585 0.0
0.421753 0.0461375 0.0
0.27293 0.0770176 0.0
0.166415 0.106912 0.0
0.0924085 0.133759 0.0
0.0419594 0.156684 0.0
0.00794721 0.175548 0.0
-0.0149021 0.190518 0.0
-0.0302536 0.201835 0.0
-0.040867 0.209999 0.0
-0.0485707 0.215437 0.0
-0.0545364 0.218515 0.0
-0.0594882 0.219543 0.0
-0.0638517 0.218786 0.0
-0.0678559 0.216469 0.0
-0.0716038 0.212788 0.0
-0.0751201 0.207918 0.0
-0.0783836 0.202018 0.0
-0.0813493 0.195236 0.0
-0.0839634 0.187709 0.0
-0.0861725 0.179567 0.0
-0.0879304 0.170933 0.0
-0.0892014 0.161923 0.0
-0.0899621 0.152646 0.0
-0.090202 0.143202 0.0
-0.089923 0.133686 0.0
-0.0891376 0.12418 0.0
-0.0878677 0.11476 0.0
-0.0861421 0.105492 0.0
-0.0839949 0.0964327 0.0
-0.0814627 0.0876305 0.0
-0.0785829 0.0791251 0.0
-0.0753921 0.0709491 0.0
-0.0719244 0.0631285 0.0
-0.0682099 0.0556837 0.0
-0.0642747 0.0486309 0.0
-0.0601392 0.0419828 0.0
-0.0558192 0.0357501 0.0
-0.0513248 0.0299429 0.0
-0.0466618 0.0245718 0.0
-0.0418319 0.0196492 0.0
-0.0368339 0.0151913 0.0
-0.0316646 0.0112189 0.0
-0.0263199 0.00776055 0.0
-0.0207963 0.00485485 0.0
-0.0150912 0.00254475 0.0
-0.00920296 0.000892837 0.0
-0.00313033 0.000120895 0.0
0.874857 0.00204301 0.0
0.641888 0.0156932 0.0
0.449744 0.0412151 0.0
0.302316 0.0697725 0.0
0.194169 0.0980403 0.0
0.11702 0.123966 0.0
0.0628575 0.146567 0.0
0.0250726 0.165558 0.0
-0.00137901 0.181011 0.0
-0.020062 0.19307 0.0
-0.0336001 0.20204 0.0
-0.0438582 0.208301 0.0
-0.0520573 0.212174 0.0
-0.0589667 0.213942 0.0
-0.0650491 0.213849 0.0
-0.0705631 0.212114 0.0
-0.0756342 0.208931 0.0
-0.0803036 0.204477 0.0
-0.0845631 0.198918 0.0
-0.0883775 0.192409 0.0
-0.091701 0.185096 0.0
-0.0944876 0.177121 0.0
-0.0966982 0.168617 0.0
-0.0983044 0.159709 0.0
-0.0992909 0.150515 0.0
-0.0996557 0.141145 0.0
-0.0994097 0.131698 0.0
-0.0985752 0.122263 0.0
-0.0971837 0.112921 0.0
-0.0952739 0.103739 0.0
-0.0928893 0.0947767 0.0
-0.0900756 0.086082 0.0
-0.0868784 0.0776943 0.0
-0.0833418 0.0696447 0.0
-0.0795059 0.061957 0.0
-0.0754065 0.0546491 0.0
-0.0710732 0.047734 0.0
-0.0665294 0.0412214 0.0
-0.0617919 0.035119 0.0
-0.0568711 0.0294339 0.0
-0.0517711 0.0241741 0.0
-0.0464907 0.01935 0.0
-0.041024 0.0149762 0.0
-0.0353612 0.011073 0.0
-0.0294897 0.00766882 0.0
-0.0233948 0.00480312 0.0
-0.0170598 0.00252042 0.0
-0.0104664 0.000885179 0.0
-0.00359272 0.000120015 0.0
0.882523 0.00177115 0.0
0.661267 0.0139333 0.0
0.475392 0.0370923 0.0
0.329792 0.0635499 0.0
0.220631 0.0902426 0.0
0.140933 0.115164 0.0
0.083549 0.137267 0.0
0.0423714 0.15616 0.0
0.0126214 0.171805 0.0
-0.00923594 0.184336 0.0
-0.0256358 0.193882 0.0
-0.0384384 0.200756 0.0
-0.0488974 0.205243 0.0
-0.0578146 0.207595 0.0
-0.0656805 0.208039 0.0
-0.0727755 0.206782 0.0
-0.079242 0.204014 0.0
-0.0851342 0.199913 0.0
-0.0904533 0.194647 0.0
-0.0951721 0.188378 0.0
-0.0992517 0.181262 0.0
-0.102653 0.173447 0.0
-0.105344 0.165076 0.0
-0.107304 0.156282 0.0
-0.108527 0.147193 0.0
-0.109021 0.137925 0.0
-0.108806 0.128582 0.0
-0.107915 0.119261 0.0
-0.106392 0.110043 0.0
-0.104287 0.100998 0.0
-0.101653 0.0921874 0.0
-0.0985456 0.083658 0.0
-0.0950206 0.0754482 0.0
-0.0911297 0.067587 0.0
-0.0869202 0.0600955 0.0
-0.0824331 0.0529884 0.0
-0.0777025 0.0462752 0.0
-0.0727543 0.039962 0.0
-0.0676067 0.0340529 0.0
-0.0622697 0.0285516 0.0
-0.0567456 0.0234631 0.0
-0.0510297 0.018795 0.0
-0.0451107 0.0145597 0.0
-0.0389718 0.010776 0.0
-0.0325908 0.00747136 0.0
-0.0259415 0.00468489 0.0
-0.0189926 0.00246131 0.0
-0.0117088 0.000865565 0.0
-0.00404803 0.000117638 0.0
0.889351 0.00155513 0.0
0.678779 0.0124715 0.0
0.498972 0.0335828 0.0
0.355497 0.0581357 0.0
0.245803 0.0833178 0.0
0.164045 0.107191 0.0
0.103858 0.128674 0.0
0.0596133 0.1473 0.0
0.0267997 0.162943 0.0
0.0020101 0.175671 0.0
-0.0171778 0.1856 0.0
-0.0324962 0.192899 0.0
-0.045219 0.197832 0.0
-0.0561713 0.200622 0.0
-0.0658628 0.201476 0.0
-0.0745893 0.20059 0.0
-0.0825047 0.198148 0.0
-0.0896718 0.194328 0.0
-0.0960986 0.189301 0.0
-0.101764 0.183232 0.0
-0.106633 0.176284 0.0
-0.110675 0.168614 0.0
-0.113864 0.160372 0.0
-0.116188 0.1517 0.0
-0.11765 0.142731 0.0
-0.118268 0.133589 0.0
-0.118075 0.124383 0.0
-0.117116 0.115212 0.0
-0.115447 0.106162 0.0
-0.11313 0.0973032 0.0
-0.11023 0.0886963 0.0
-0.106815 0.080388 0.0
-0.10295 0.0724144 0.0
-0.0986947 0.0648017 0.0
-0.0941048 0.0575678 0.0
-0.089227 0.0507234 0.0
-0.0840997 0.0442742 0.0
-0.0787517 0.0382223 0.0
-0.0732023 0.0325676 0.0
-0.0674609 0.0273099 0.0
-0.0615277 0.0224505 0.0
-0.055394 0.017994 0.0
-0.0490427 0.0139497 0.0
-0.0424493 0.0103342 0.0
-0.0355818 0.00717277 0.0
-0.0284016 0.00450314 0.0
-0.020863 0.00236907 0.0
-0.0129133 0.000834571 0.0
-0.0044903 0.000113838 0.0
0.895478 0.00137728 0.0
0.694685 0.0112309 0.0
0.52071 0.0305444 0.0
0.379553 0.0533576 0.0
0.269703 0.0770933 0.0
0.186289 0.0998936 0.0
0.12366 0.120667 0.0
0.0766408 0.13889 0.0
0.0409866 0.154371 0.0
0.0134322 0.167111 0.0
-0.00841889 0.177219 0.0
-0.0262039 0.184773 0.0
-0.0411757 0.189994 0.0
-0.0541717 0.19308 0.0
-0.0657128 0.19422 0.0
-0.0761036 0.193597 0.0
-0.0855045 0.191391 0.0
-0.0939829 0.187777 0.0
-0.101551 0.182927 0.0
-0.108189 0.177013 0.0
-0.113871 0.170201 0.0
-0.118567 0.162657 0.0
-0.12226 0.154536 0.0
-0.124946 0.145988 0.0
-0.12664 0.137153 0.0
-0.12737 0.128159 0.0
-0.127183 0.11912 0.0
-0.126137 0.110138 0.0