# vtk DataFile Version 3.0
Malha 2D com triângulos e temperatura
ASCII
DATASET UNSTRUCTURED_GRID

POINTS 2500 double
0 0 0
1 0 0
1 1 0
0 1 0
0.0204082 0 0
0.0408163 0 0
0.0612245 0 0
0.0816327 0 0
0.102041 0 0
0.122449 0 0
0.142857 0 0
0.163265 0 0
0.183673 0 0
0.204082 0 0
0.22449 0 0
0.244898 0 0
0.265306 0 0
0.285714 0 0
0.306122 0 0
0.326531 0 0
0.346939 0 0
0.367347 0 0
0.387755 0 0
0.408163 0 0
0.428571 0 0
0.44898 0 0
0.469388 0 0
0.489796 0 0
0.510204 0 0
0.530612 0 0
0.55102 0 0
0.571429 0 0
0.591837 0 0
0.612245 0 0
0.632653 0 0
0.653061 0 0
0.673469 0 0
0.693878 0 0
0.714286 0 0
0.734694 0 0
0.755102 0 0
0.77551 0 0
0.795918 0 0
0.816327 0 0
0.836735 0 0
0.857143 0 0
0.877551 0 0
0.897959 0 0
0.918367 0 0
0.938776 0 0
0.959184 0 0
0.979592 0 0
1 0.0204082 0
1 0.0408163 0
1 0.0612245 0
1 0.0816327 0
1 0.102041 0
1 0.122449 0
1 0.142857 0
1 0.163265 0
1 0.183673 0
1 0.204082 0
1 0.22449 0
1 0.244898 0
1 0.265306 0
1 0.285714 0
1 0.306122 0
1 0.326531 0
1 0.346939 0
1 0.367347 0
1 0.387755 0
1 0.408163 0
1 0.428571 0
1 0.44898 0
1 0.469388 0
1 0.489796 0
1 0.510204 0
1 0.530612 0
1 0.55102 0
1 0.571429 0
1 0.591837 0
1 0.612245 0
1 0.632653 0
1 0.653061 0
1 0.673469 0
1 0.693878 0
1 0.714286 0
1 0.734694 0
1 0.755102 0
1 0.77551 0
1 0.795918 0
1 0.816327 0
1 0.836735 0
1 0.857143 0
1 0.877551 0
1 0.897959 0
1 0.918367 0
1 0.938776 0
1 0.959184 0
1 0.979592 0
0.979592 1 0
0.959184 1 0
0.938776 1 0
0.918367 1 0
0.897959 1 0
0.877551 1 0
0.857143 1 0
0.836735 1 0
0.816327 1 0
0.795918 1 0
0.77551 1 0
0.755102 1 0
0.734694 1 0
0.714286 1 0
0.693878 1 0
0.673469 1 0
0.653061 1 0
0.632653 1 0
0.612245 1 0
0.591837 1 0
0.571429 1 0
0.55102 1 0
0.530612 1 0
0.510204 1 0
0.489796 1 0
0.469388 1 0
0.44898 1 0
0.428571 1 0
0.408163 1 0
0.387755 1 0
0.367347 1 0
0.346939 1 0
0.326531 1 0
0.306122 1 0
0.285714 1 0
0.265306 1 0
0.244898 1 0
0.22449 1 0
0.204082 1 0
0.183673 1 0
0.163265 1 0
0.142857 1 0
0.122449 1 0
0.102041 1 0
0.0816327 1 0
0.0612245 1 0
0.0408163 1 0
0.0204082 1 0
0 0.979592 0
0 0.959184 0
0 0.938776 0
0 0.918367 0
0 0.897959 0
0 0.877551 0
0 0.857143 0
0 0.836735 0
0 0.816327 0
0 0.795918 0
0 0.77551 0
0 0.755102 0
0 0.734694 0
0 0.714286 0
0 0.693878 0
0 0.673469 0
0 0.653061 0
0 0.632653 0
0 0.612245 0
0 0.591837 0
0 0.571429 0
0 0.55102 0
0 0.530612 0
0 0.510204 0
0 0.489796 0
0 0.469388 0
0 0.44898 0
0 0.428571 0
0 0.408163 0
0 0.387755 0
0 0.367347 0
0 0.346939 0
0 0.326531 0
0 0.306122 0
0 0.285714 0
0 0.265306 0
0 0.244898 0
0 0.22449 0
0 0.204082 0
0 0.183673 0
0 0.163265 0
0 0.142857 0
0 0.122449 0
0 0.102041 0
0 0.0816327 0
0 0.0612245 0
0 0.0408163 0
0 0.0204082 0
0.0204082 0.979592 0
0.0204082 0.959184 0
0.0204082 0.938776 0
0.0204082 0.918367 0
0.0204082 0.897959 0
0.0204082 0.877551 0
0.0204082 0.857143 0
0.0204082 0.836735 0
0.0204082 0.816327 0
0.0204082 0.795918 0
0.0204082 0.77551 0
0.0204082 0.755102 0
0.0204082 0.734694 0
0.0204082 0.714286 0
0.0204082 0.693878 0
0.0204082 0.673469 0
0.0204082 0.653061 0
0.0204082 0.632653 0
0.0204082 0.612245 0
0.0204082 0.591837 0
0.0204082 0.571429 0
0.0204082 0.55102 0
0.0204082 0.530612 0
0.0204082 0.510204 0
0.0204082 0.489796 0
0.0204082 0.469388 0
0.0204082 0.44898 0
0.0204082 0.428571 0
0.0204082 0.408163 0
0.0204082 0.387755 0
0.0204082 0.367347 0
0.0204082 0.346939 0
0.0204082 0.326531 0
0.0204082 0.306122 0
0.0204082 0.285714 0
0.0204082 0.265306 0
0.0204082 0.244898 0
0.0204082 0.22449 0
0.0204082 0.204082 0
0.0204082 0.183673 0
0.0204082 0.163265 0
0.0204082 0.142857 0
0.0204082 0.122449 0
0.0204082 0.102041 0
0.0204082 0.0816327 0
0.0204082 0.0612245 0
0.0204082 0.0408163 0
0.0204082 0.0204082 0
0.0408163 0.979592 0
0.0408163 0.959184 0
0.0408163 0.938776 0
0.0408163 0.918367 0
0.0408163 0.897959 0
0.0408163 0.877551 0
0.0408163 0.857143 0
0.0408163 0.836735 0
0.0408163 0.816327 0
0.0408163 0.795918 0
0.0408163 0.77551 0
0.0408163 0.755102 0
0.0408163 0.734694 0
0.0408163 0.714286 0
0.0408163 0.693878 0
0.0408163 0.673469 0
0.0408163 0.653061 0
0.0408163 0.632653 0
0.0408163 0.612245 0
0.0408163 0.591837 0
0.0408163 0.571429 0
0.0408163 0.55102 0
0.0408163 0.530612 0
0.0408163 0.510204 0
0.0408163 0.489796 0
0.0408163 0.469388 0
0.0408163 0.44898 0
0.0408163 0.428571 0
0.0408163 0.408163 0
0.0408163 0.387755 0
0.0408163 0.367347 0
0.0408163 0.346939 0
0.0408163 0.326531 0
0.0408163 0.306122 0
0.0408163 0.285714 0
0.0408163 0.265306 0
0.0408163 0.244898 0
0.0408163 0.22449 0
0.0408163 0.204082 0
0.0408163 0.183673 0
0.0408163 0.163265 0
0.0408163 0.142857 0
0.0408163 0.122449 0
0.0408163 0.102041 0
0.0408163 0.0816327 0
0.0408163 0.0612245 0
0.0408163 0.0408163 0
0.0408163 0.0204082 0
0.0612245 0.979592 0
0.0612245 0.959184 0
0.0612245 0.938776 0
0.0612245 0.918367 0
0.0612245 0.897959 0
0.0612245 0.877551 0
0.0612245 0.857143 0
0.0612245 0.836735 0
0.0612245 0.816327 0
0.0612245 0.795918 0
0.0612245 0.77551 0
0.0612245 0.755102 0
0.0612245 0.734694 0
0.0612245 0.714286 0
0.0612245 0.693878 0
0.0612245 0.673469 0
0.0612245 0.653061 0
0.0612245 0.632653 0
0.0612245 0.612245 0
0.0612245 0.591837 0
0.0612245 0.571429 0
0.0612245 0.55102 0
0.0612245 0.530612 0
0.0612245 0.510204 0
0.0612245 0.489796 0
0.0612245 0.469388 0
0.0612245 0.44898 0
0.0612245 0.428571 0
0.0612245 0.408163 0
0.0612245 0.387755 0
0.0612245 0.367347 0
0.0612245 0.346939 0
0.0612245 0.326531 0
0.0612245 0.306122 0
0.0612245 0.285714 0
0.0612245 0.265306 0
0.0612245 0.244898 0
0.0612245 0.22449 0
0.0612245 0.204082 0
0.0612245 0.183673 0
0.0612245 0.163265 0
0.0612245 0.142857 0
0.0612245 0.122449 0
0.0612245 0.102041 0
0.0612245 0.0816327 0
0.0612245 0.0612245 0
0.0612245 0.0408163 0
0.0612245 0.0204082 0
0.0816327 0.979592 0
0.0816327 0.959184 0
0.0816327 0.938776 0
0.0816327 0.918367 0
0.0816327 0.897959 0
0.0816327 0.877551 0
0.0816327 0.857143 0
0.0816327 0.836735 0
0.0816327 0.816327 0
0.0816327 0.795918 0
0.0816327 0.77551 0
0.0816327 0.755102 0
0.0816327 0.734694 0
0.0816327 0.714286 0
0.0816327 0.693878 0
0.0816327 0.673469 0
0.0816327 0.653061 0
0.0816327 0.632653 0
0.0816327 0.612245 0
0.0816327 0.591837 0
0.0816327 0.571429 0
0.0816327 0.55102 0
0.0816327 0.530612 0
0.0816327 0.510204 0
0.0816327 0.489796 0
0.0816327 0.469388 0
0.0816327 0.44898 0
0.0816327 0.428571 0
0.0816327 0.408163 0
0.0816327 0.387755 0
0.0816327 0.367347 0
0.0816327 0.346939 0
0.0816327 0.326531 0
0.0816327 0.306122 0
0.0816327 0.285714 0
0.0816327 0.265306 0
0.0816327 0.244898 0
0.0816327 0.22449 0
0.0816327 0.204082 0
0.0816327 0.183673 0
0.0816327 0.163265 0
0.0816327 0.142857 0
0.0816327 0.122449 0
0.0816327 0.102041 0
0.0816327 0.0816327 0
0.0816327 0.0612245 0
0.0816327 0.0408163 0
0.0816327 0.0204082 0
0.102041 0.979592 0
0.102041 0.959184 0
0.102041 0.938776 0
0.102041 0.918367 0
0.102041 0.897959 0
0.102041 0.877551 0
0.102041 0.857143 0
0.102041 0.836735 0
0.102041 0.816327 0
0.102041 0.795918 0
0.102041 0.77551 0
0.102041 0.755102 0
0.102041 0.734694 0
0.102041 0.714286 0
0.102041 0.693878 0
0.102041 0.673469 0
0.102041 0.653061 0
0.102041 0.632653 0
0.102041 0.612245 0
0.102041 0.591837 0
0.102041 0.571429 0
0.102041 0.55102 0
0.102041 0.530612 0
0.102041 0.510204 0
0.102041 0.489796 0
0.102041 0.469388 0
0.102041 0.44898 0
0.102041 0.428571 0
0.102041 0.408163 0
0.102041 0.387755 0
0.102041 0.367347 0
0.102041 0.346939 0
0.102041 0.326531 0
0.102041 0.306122 0
0.102041 0.285714 0
0.102041 0.265306 0
0.102041 0.244898 0
0.102041 0.22449 0
0.102041 0.204082 0
0.102041 0.183673 0
0.102041 0.163265 0
0.102041 0.142857 0
0.102041 0.122449 0
0.102041 0.102041 0
0.102041 0.0816327 0
0.102041 0.0612245 0
0.102041 0.0408163 0
0.102041 0.0204082 0
0.122449 0.979592 0
0.122449 0.959184 0
0.122449 0.938776 0
0.122449 0.918367 0
0.122449 0.897959 0
0.122449 0.877551 0
0.122449 0.857143 0
0.122449 0.836735 0
0.122449 0.816327 0
0.122449 0.795918 0
0.122449 0.77551 0
0.122449 0.755102 0
0.122449 0.734694 0
0.122449 0.714286 0
0.122449 0.693878 0
0.122449 0.673469 0
0.122449 0.653061 0
0.122449 0.632653 0
0.122449 0.612245 0
0.122449 0.591837 0
0.122449 0.571429 0
0.122449 0.55102 0
0.122449 0.530612 0
0.122449 0.510204 0
0.122449 0.489796 0
0.122449 0.469388 0
0.122449 0.44898 0
0.122449 0.428571 0
0.122449 0.408163 0
0.122449 0.387755 0
0.122449 0.367347 0
0.122449 0.346939 0
0.122449 0.326531 0
0.122449 0.306122 0
0.122449 0.285714 0
0.122449 0.265306 0
0.122449 0.244898 0
0.122449 0.22449 0
0.122449 0.204082 0
0.122449 0.183673 0
0.122449 0.163265 0
0.122449 0.142857 0
0.122449 0.122449 0
0.122449 0.102041 0
0.122449 0.0816327 0
0.122449 0.0612245 0
0.122449 0.0408163 0
0.122449 0.0204082 0
0.142857 0.979592 0
0.142857 0.959184 0
0.142857 0.938776 0
0.142857 0.918367 0
0.142857 0.897959 0
0.142857 0.877551 0
0.142857 0.857143 0
0.142857 0.836735 0
0.142857 0.816327 0
0.142857 0.795918 0
0.142857 0.77551 0
0.142857 0.755102 0
0.142857 0.734694 0
0.142857 0.714286 0
0.142857 0.693878 0
0.142857 0.673469 0
0.142857 0.653061 0
0.142857 0.632653 0
0.142857 0.612245 0
0.142857 0.591837 0
0.142857 0.571429 0
0.142857 0.55102 0
0.142857 0.530612 0
0.142857 0.510204 0
0.142857 0.489796 0
0.142857 0.469388 0
0.142857 0.44898 0
0.142857 0.428571 0
0.142857 0.408163 0
0.142857 0.387755 0
0.142857 0.367347 0
0.142857 0.346939 0
0.142857 0.326531 0
0.142857 0.306122 0
0.142857 0.285714 0
0.142857 0.265306 0
0.142857 0.244898 0
0.142857 0.22449 0
0.142857 0.204082 0
0.142857 0.183673 0
0.142857 0.163265 0
0.142857 0.142857 0
0.142857 0.122449 0
0.142857 0.102041 0
0.142857 0.0816327 0
0.142857 0.0612245 0
0.142857 0.0408163 0
0.142857 0.0204082 0
0.163265 0.979592 0
0.163265 0.959184 0
0.163265 0.938776 0
0.163265 0.918367 0
0.163265 0.897959 0
0.163265 0.877551 0
0.163265 0.857143 0
0.163265 0.836735 0
0.163265 0.816327 0
0.163265 0.795918 0
0.163265 0.77551 0
0.163265 0.755102 0
0.163265 0.734694 0
0.163265 0.714286 0
0.163265 0.693878 0
0.163265 0.673469 0
0.163265 0.653061 0
0.163265 0.632653 0
0.163265 0.612245 0
0.163265 0.591837 0
0.163265 0.571429 0
0.163265 0.55102 0
[...]
CELL_DATA 2401
VECTORS velocity double
0.257352 0.157459 0.0
-0.00261947 0.264716 0.0
-0.0321527 0.205932 0.0
-0.0252144 0.151455 0.0
-0.0159299 0.114259 0.0
-0.00963855 0.0890829 0.0
-0.00593648 0.0719909 0.0
-0.00381737 0.0600796 0.0
-0.0025861 0.0514693 0.0
-0.00184526 0.0450137 0.0
-0.00138002 0.0400071 0.0
-0.00107517 0.0360035 0.0
-0.000867711 0.0327128 0.0
-0.000721948 0.0299403 0.0
-0.000616745 0.0275522 0.0
-0.000539029 0.0254544 0.0
-0.000480373 0.0235795 0.0
-0.000435157 0.021879 0.0
-0.000399527 0.0203175 0.0
-0.000370782 0.0188689 0.0
-0.000347004 0.0175144 0.0
-0.000326814 0.0162397 0.0
-0.000309219 0.0150346 0.0
-0.000293507 0.0138914 0.0
-0.000279165 0.0128045 0.0
-0.000265834 0.0117697 0.0
-0.000253262 0.0107837 0.0
-0.000241276 0.00984413 0.0
-0.000229759 0.00894901 0.0
-0.000218632 0.00809672 0.0
-0.000207838 0.00728592 0.0
-0.000197331 0.00651545 0.0
-0.000187067 0.00578436 0.0
-0.000176995 0.00509188 0.0
-0.000167052 0.00443745 0.0
-0.000157157 0.00382079 0.0
-0.000147206 0.00324195 0.0
-0.000137065 0.00270138 0.0
-0.000126567 0.00220003 0.0
-0.000115501 0.00173942 0.0
-0.000103608 0.00132177 0.0
-9.05658e-05 0.000950102 0.0
-7.59898e-05 0.000628285 0.0
-5.94449e-05 0.00036108 0.0
-4.05343e-05 0.000153958 0.0
-1.92131e-05 1.25286e-05 0.0
3.32434e-06 -5.90903e-05 0.0
2.27454e-05 -6.40027e-05 0.0
2.55455e-05 -2.54527e-05 0.0
0.340739 0.123046 0.0
-0.000169926 0.249901 0.0
-0.0645868 0.272761 0.0
-0.0626281 0.253939 0.0
-0.0480964 0.223892 0.0
-0.0348573 0.194177 0.0
-0.025158 0.168526 0.0
-0.0184591 0.147433 0.0
-0.0138833 0.130324 0.0
-0.0107304 0.116415 0.0
-0.00852154 0.104986 0.0
-0.00694463 0.0954539 0.0
-0.00579785 0.0873712 0.0
-0.00494923 0.0803996 0.0
-0.00431082 0.0742862 0.0
-0.00382274 0.0688418 0.0
-0.00344341 0.0639254 0.0
-0.00314339 0.0594311 0.0
-0.00290157 0.0552798 0.0
-0.0027026 0.0514123 0.0
-0.00253522 0.047784 0.0
-0.00239118 0.0443618 0.0
-0.00226439 0.0411208 0.0
-0.00215038 0.0380425 0.0
-0.00204589 0.0351128 0.0
-0.00194857 0.0323212 0.0
-0.00185674 0.0296597 0.0
-0.00176921 0.0271218 0.0
-0.00168514 0.0247027 0.0
-0.00160392 0.0223981 0.0
-0.00152509 0.0202046 0.0
-0.00144828 0.0181194 0.0
-0.00137312 0.0161399 0.0
-0.0012992 0.0142645 0.0
-0.00122605 0.0124916 0.0
-0.0011531 0.0108209 0.0
-0.00107964 0.00925254 0.0
-0.00100483 0.00778778 0.0
-0.000927644 0.00642906 0.0
-0.000846905 0.00518017 0.0
-0.000761269 0.00404638 0.0
-0.000669267 0.00303452 0.0
-0.000569421 0.00215289 0.0
-0.000460503 0.00141091 0.0
-0.000342144 0.000818246 0.0
-0.000216266 0.000383006 0.0
-9.01943e-05 0.000107917 0.0
1.79421e-05 -1.7053e-05 0.0
6.37432e-05 -2.21747e-05 0.0
0.50133 0.0769351 0.0
0.100185 0.183886 0.0
-0.0380214 0.250625 0.0
-0.0722535 0.267713 0.0
-0.0712266 0.259715 0.0
-0.0606523 0.241827 0.0
-0.0492024 0.221246 0.0
-0.039393 0.201257 0.0
-0.0316357 0.183117 0.0
-0.0256906 0.167117 0.0
-0.0211825 0.153137 0.0
-0.0177665 0.140914 0.0
-0.0151664 0.130159 0.0
-0.0131727 0.12061 0.0
-0.0116294 0.112041 0.0
-0.0104215 0.104269 0.0
-0.00946382 0.0971493 0.0
-0.00869314 0.0905663 0.0
-0.00806239 0.084431 0.0
-0.00753633 0.0786746 0.0
-0.00708856 0.0732447 0.0
-0.00669929 0.068101 0.0
-0.00635372 0.0632131 0.0
-0.00604088 0.058558 0.0
-0.00575264 0.0541181 0.0
-0.00548311 0.0498803 0.0
-0.005228 0.045834 0.0
-0.00498428 0.0419712 0.0
-0.00474974 0.0382853 0.0
-0.00452281 0.0347708 0.0
-0.00430224 0.0314231 0.0
-0.004087 0.0282385 0.0
-0.00387606 0.0252136 0.0
-0.00366832 0.0223459 0.0
-0.00346249 0.0196339 0.0
-0.00325702 0.0170768 0.0
-0.00305006 0.014675 0.0
-0.0028394 0.0124304 0.0
-0.00262247 0.0103464 0.0
-0.00239639 0.0084282 0.0
-0.00215803 0.00668273 0.0
-0.00190423 0.00511888 0.0
-0.00163217 0.00374705 0.0
-0.00134017 0.00257855 0.0
-0.00102914 0.00162432 0.0
-0.000705484 0.000892827 0.0
-0.000386371 0.000385358 0.0
-0.000107436 9.13102e-05 0.0
5.75485e-05 -2.25694e-06 0.0
0.610866 0.0481835 0.0
0.197381 0.134617 0.0
0.0133367 0.21069 0.0
-0.0565311 0.248134 0.0
-0.0754645 0.258691 0.0
-0.0743131 0.254796 0.0
-0.0663313 0.243587 0.0
-0.0569652 0.229325 0.0
-0.0482762 0.214324 0.0
-0.0408924 0.199722 0.0
-0.0348641 0.186013 0.0
-0.0300349 0.17335 0.0
-0.0261968 0.161719 0.0
-0.0231503 0.151032 0.0
-0.0207245 0.141177 0.0
-0.0187803 0.13204 0.0
-0.0172068 0.12352 0.0
-0.0159176 0.11553 0.0
-0.0148453 0.107999 0.0
-0.0139377 0.100869 0.0
-0.013155 0.0940949 0.0
-0.0124664 0.0876402 0.0
-0.0118488 0.0814782 0.0
-0.0112847 0.0755878 0.0
-0.010761 0.069953 0.0
-0.0102684 0.0645614 0.0
-0.00979983 0.0594033 0.0
-0.00935035 0.0544709 0.0
-0.00891642 0.0497579 0.0
-0.00849542 0.0452588 0.0
-0.00808532 0.040969 0.0
-0.00768434 0.0368845 0.0
-0.00729073 0.0330018 0.0
-0.00690258 0.0293184 0.0
-0.0065176 0.0258324 0.0
-0.00613308 0.0225431 0.0
-0.00574576 0.0194512 0.0
-0.00535183 0.0165587 0.0
-0.00494693 0.0138696 0.0
-0.00452623 0.0113896 0.0
-0.00408468 0.00912662 0.0
-0.00361742 0.00709023 0.0
-0.00312045 0.0052916 0.0
-0.002592 0.00374261 0.0
-0.00203469 0.00245466 0.0
-0.00145937 0.00143696 0.0
-0.000891624 0.000691752 0.0
-0.000379896 0.000213683 0.0
-1.50874e-05 2.0238e-05 0.0
0.681599 0.0302725 0.0
0.280655 0.0987013 0.0
0.0719218 0.171904 0.0
-0.0259183 0.218513 0.0
-0.0650483 0.241635 0.0
-0.0761776 0.249265 0.0
-0.0749058 0.247306 0.0
-0.0687767 0.239889 0.0
-0.0613054 0.229656 0.0
-0.0540389 0.218189 0.0
-0.0475768 0.206394 0.0
-0.0420752 0.19476 0.0
-0.0374959 0.183526 0.0
-0.0337252 0.172793 0.0
-0.0306309 0.162581 0.0
-0.0280867 0.152875 0.0
-0.0259814 0.14364 0.0
-0.0242217 0.134838 0.0
-0.0227312 0.126432 0.0
-0.0214486 0.118389 0.0
-0.0203252 0.110681 0.0
-0.0193232 0.103286 0.0
-0.0184132 0.0961877 0.0
-0.0175729 0.0893713 0.0
-0.0167856 0.082827 0.0
-0.0160392 0.0765466 0.0
-0.0153246 0.0705236 0.0
-0.0146356 0.0647528 0.0
-0.0139675 0.0592296 0.0
-0.0133171 0.0539499 0.0
-0.0126817 0.04891 0.0
-0.0120591 0.0441064 0.0
-0.0114468 0.0395361 0.0
-0.0108422 0.0351967 0.0
-0.010242 0.0310866 0.0
-0.00964221 0.0272051 0.0
-0.00903822 0.0235529 0.0
-0.0084245 0.0201322 0.0
-0.00779481 0.016947 0.0
-0.00714235 0.0140032 0.0
-0.00646016 0.0113087 0.0
-0.0057417 0.00887337 0.0
-0.00498188 0.0067084 0.0
-0.00417877 0.00482595 0.0
-0.00333624 0.00323813 0.0
-0.00246825 0.00195603 0.0
-0.00160534 0.000985292 0.0
-0.000802221 0.000329471 0.0
-0.000154468 4.05242e-05 0.0
0.731234 0.0192533 0.0
0.351493 0.0733344 0.0
0.130329 0.139702 0.0
0.0125274 0.188399 0.0
-0.0448664 0.219027 0.0
-0.0688244 0.234872 0.0
-0.075807 0.240491 0.0
-0.0746565 0.239391 0.0
-0.0699898 0.234105 0.0
-0.0641533 0.226341 0.0
-0.0582864 0.217206 0.0
-0.0528937 0.207398 0.0
-0.0481544 0.197342 0.0
-0.0440863 0.187291 0.0
-0.0406341 0.177388 0.0
-0.0377141 0.167709 0.0
-0.0352372 0.158293 0.0
-0.0331202 0.149156 0.0
-0.03129 0.140303 0.0
-0.0296846 0.131731 0.0
-0.0282536 0.123439 0.0
-0.0269562 0.115422 0.0
-0.0257606 0.107677 0.0
-0.0246423 0.100203 0.0
-0.023583 0.0929977 0.0
-0.0225691 0.08606 0.0
-0.0215911 0.0793887 0.0
-0.020642 0.0729827 0.0
-0.0197171 0.0668406 0.0
-0.0188129 0.0609605 0.0
-0.0179268 0.0553405 0.0
-0.0170563 0.0499784 0.0
-0.0161985 0.0448721 0.0
-0.0153503 0.0400195 0.0
-0.0145075 0.0354193 0.0
-0.0136652 0.031071 0.0
-0.0128172 0.0269753 0.0
-0.0119564 0.0231342 0.0
-0.0110747 0.0195515 0.0
-0.0101634 0.016233 0.0
-0.00921351 0.0131863 0.0
-0.00821687 0.0104211 0.0
-0.00716709 0.00794853 0.0
-0.00606159 0.00578123 0.0
-0.00490442 0.0039326 0.0
-0.00371047 0.00241679 0.0
-0.00251138 0.0012445 0.0
-0.00136184 0.000429702 0.0
-0.00035254 5.71393e-05 0.0
0.767337 0.012599 0.0
0.410961 0.0557305 0.0
0.185058 0.114365 0.0
0.0533292 0.161822 0.0
-0.0188847 0.195849 0.0
-0.0548668 0.217038 0.0
-0.0705052 0.228272 0.0
-0.075232 0.232359 0.0
-0.0743952 0.23151 0.0
-0.0709602 0.227355 0.0
-0.0665319 0.221049 0.0
-0.0619457 0.213387 0.0
-0.0576062 0.204905 0.0
-0.0536815 0.195959 0.0
-0.0502137 0.186787 0.0
-0.0471814 0.177543 0.0
-0.0445342 0.168329 0.0
-0.0422123 0.159213 0.0
-0.0401565 0.150241 0.0
-0.0383129 0.141444 0.0
-0.0366351 0.132846 0.0
-0.035085 0.124465 0.0
-0.0336321 0.116315 0.0
-0.0322526 0.108406 0.0
-0.030929 0.100749 0.0
-0.0296485 0.0933495 0.0
-0.0284022 0.0862141 0.0
-0.027184 0.0793468 0.0
-0.02599 0.0727502 0.0
-0.0248174 0.0664256 0.0
-0.0236641 0.0603734 0.0
-0.0225278 0.0545929 0.0
-0.021406 0.0490832 0.0
-0.0202951 0.043843 0.0
-0.0191906 0.0388713 0.0
-0.0180864 0.0341676 0.0
-0.0169752 0.0297324 0.0
-0.0158484 0.0255676 0.0
-0.0146961 0.0216766 0.0
-0.0135077 0.0180646 0.0
-0.0122722 0.0147391 0.0
-0.0109795 0.0117092 0.0
-0.00962168 0.00898639 0.0
-0.00819458 0.00658391 0.0
-0.00670104 0.00451704 0.0
-0.00515449 0.00280371 0.0
-0.00358401 0.00146046 0.0
-0.00203912 0.000511568 0.0
-0.000599117 7.00181e-05 0.0
0.794313 0.00856095 0.0
0.460777 0.0433878 0.0
0.234949 0.0946344 0.0
0.0939153 0.139343 0.0
0.0103172 0.174097 0.0
-0.0364866 0.198529 0.0
-0.0605498 0.213679 0.0
-0.0714695 0.221764 0.0
-0.0750281 0.224602 0.0
-0.0746352 0.223654 0.0
-0.0722677 0.220026 0.0
-0.0690469 0.214529 0.0
-0.0655875 0.20775 0.0
-0.0622073 0.200107 0.0
-0.0590526 0.191899 0.0
-0.0561734 0.183338 0.0
-0.053568 0.174577 0.0
-0.0512092 0.165727 0.0
-0.0490594 0.156873 0.0
-0.0470794 0.148076 0.0
-0.0452327 0.139386 0.0
-0.0434881 0.130842 0.0
-0.0418201 0.122475 0.0
-0.040209 0.114311 0.0
-0.0386404 0.10637 0.0
-0.0371043 0.0986691 0.0
-0.0355942 0.0912219 0.0
-0.0341063 0.0840383 0.0
-0.0326386 0.0771256 0.0
-0.0311901 0.0704885 0.0
-0.0297598 0.0641302 0.0
-0.0283467 0.0580518 0.0
-0.0269487 0.0522536 0.0
-0.0255625 0.046735 0.0
-0.0241832 0.0414954 0.0
-0.0228043 0.0365343 0.0
-0.0214174 0.0318521 0.0
-0.0200124 0.02745 0.0
-0.0185778 0.023331 0.0
-0.017101 0.0194998 0.0
-0.015569 0.0159633 0.0
-0.0139696 0.0127305 0.0
-0.0122923 0.00981295 0.0
-0.0105308 0.00722497 0.0
-0.00868507 0.00498399 0.0
-0.00676488 0.00311192 0.0
-0.00479367 0.00163114 0.0
-0.00281202 0.000575123 0.0
-0.00088388 7.95541e-05 0.0
0.815116 0.00606496 0.0
0.502748 0.0345805 0.0
0.279854 0.0792709 0.0
0.13286 0.120683 0.0
0.0404145 0.154854 0.0
-0.0154552 0.180764 0.0
-0.0473085 0.198492 0.0
-0.0643506 0.209498 0.0
-0.0725344 0.215252 0.0
-0.075556 0.216998 0.0
-0.0756697 0.215741 0.0
-0.0742298 0.212262 0.0
-0.0720335 0.207152 0.0
-0.0695363 0.200855 0.0
-0.0669858 0.193706 0.0
-0.0645052 0.185955 0.0
-0.0621455 0.177792 0.0
-0.0599168 0.169364 0.0
-0.0578083 0.160785 0.0
-0.0558001 0.152145 0.0
-0.0538699 0.143515 0.0
-0.0519969 0.134956 0.0
-0.0501641 0.126515 0.0
-0.0483584 0.118232 0.0
-0.046571 0.11014 0.0
-0.0447967 0.102265 0.0
-0.0430333 0.0946288 0.0
-0.0412807 0.087247 0.0
-0.0395401 0.0801321 0.0
-0.037813 0.0732925 0.0
-0.036101 0.066734 0.0
-0.0344046 0.0604599 0.0
-0.032723 0.0544713 0.0
-0.0310534 0.0487687 0.0
-0.0293914 0.0433514 0.0
-0.0277298 0.0382189 0.0
-0.0260597 0.0333711 0.0
-0.0243696 0.0288089 0.0
-0.0226463 0.0245343 0.0
-0.0208754 0.0205515 0.0
-0.0190415 0.0168669 0.0
-0.0171298 0.0134892 0.0
-0.015127 0.0104302 0.0
-0.0130233 0.0077054 0.0
-0.0108146 0.0053343 0.0
-0.00850496 0.00334264 0.0
-0.00610987 0.00175806 0.0
-0.00365844 0.000621656 0.0
-0.00119721 8.62382e-05 0.0
0.831638 0.00448125 0.0
0.538412 0.0281636 0.0
0.320096 0.0672121 0.0
0.169583 0.105227 0.0
0.0703851 0.138104 0.0
0.00711964 0.164303 0.0
-0.031833 0.183643 0.0
-0.0547278 0.196705 0.0
-0.0675488 0.204687 0.0
-0.0741605 0.208617 0.0
-0.0770138 0.209378 0.0
-0.0776441 0.207689 0.0
-0.0770001 0.20412 0.0
-0.0756573 0.199117 0.0
-0.0739558 0.193029 0.0
-0.0720889 0.186128 0.0
-0.0701597 0.178631 0.0
-0.0682173 0.170708 0.0
-0.0662801 0.162497 0.0
-0.0643502 0.154112 0.0
-0.0624224 0.145645 0.0
-0.0604893 0.137173 0.0
-0.0585446 0.128761 0.0
-0.0565844 0.120461 0.0
-0.0546076 0.112317 0.0
-0.0526158 0.104366 0.0
-0.0506127 0.0966368 0.0
-0.0486034 0.089151 0.0
-0.0465934 0.081926 0.0
-0.0445883 0.0749742 0.0
-0.0425927 0.0683036 0.0
-0.0406096 0.0619194 0.0
-0.03864 0.055824 0.0
-0.0366826 0.0500181 0.0
-0.0347331 0.0445013 0.0
-0.0327847 0.0392726 0.0
-0.0308276 0.0343313 0.0
-0.0288493 0.0296775 0.0
-0.0268351 0.0253127 0.0
-0.0247684 0.02124 0.0
-0.0226314 0.0174653 0.0
-0.0204062 0.013997 0.0
-0.0180759 0.0108472 0.0
-0.0156265 0.00803221 0.0
-0.0130484 0.0055736 0.0
-0.0103386 0.00350036 0.0
-0.00750295 0.00184445 0.0
-0.00455747 0.000652909 0.0
-0.00153048 9.05381e-05 0.0
0.845092 0.00344402 0.0
0.568995 0.0233871 0.0
0.356135 0.0576543 0.0
0.20385 0.0924184 0.0
0.0995381 0.123662 0.0
0.0301257 0.149536 0.0
-0.0149799 0.169637 0.0
-0.0433143 0.184082 0.0
-0.0606394 0.193707 0.0
-0.0708778 0.199355 0.0
-0.0766066 0.201782 0.0
-0.0794944 0.201629 0.0
-0.0806106 0.199429 0.0
-0.0806312 0.195613 0.0
-0.0799772 0.19053 0.0
-0.0789053 0.184462 0.0
-0.0775677 0.17764 0.0
-0.0760517 0.170251 0.0
-0.0744051 0.162454 0.0
-0.0726533 0.154378 0.0
-0.0708096 0.146135 0.0
-0.0688821 0.137816 0.0
-0.0668774 0.1295 0.0
-0.0648024 0.121254 0.0
-0.0626658 0.113131 0.0
-0.0604776 0.105177 0.0
-0.0582491 0.0974274 0.0
-0.0559918 0.0899112 0.0
-0.0537172 0.0826497 0.0
-0.0514357 0.0756586 0.0
-0.049156 0.0689486 0.0
-0.0468844 0.0625261 0.0
-0.0446244 0.0563945 0.0
-0.0423763 0.0505546 0.0
-0.0401371 0.0450058 0.0
-0.0378999 0.0397466 0.0
-0.0356548 0.0347755 0.0
-0.0333882 0.0300917 0.0
-0.0310838 0.0256955 0.0
-0.0287228 0.0215892 0.0
-0.0262845 0.0177779 0.0
-0.0237478 0.0142696 0.0
-0.0210916 0.0110765 0.0
-0.0182968 0.00821557 0.0
-0.0153471 0.00570991 0.0
-0.0122316 0.00359102 0.0
-0.00894509 0.00189419 0.0
-0.00548998 0.000670692 0.0
-0.00187616 9.28581e-05 0.0
0.856287 0.00273987 0.0
0.595469 0.0197535 0.0
0.388471 0.0499894 0.0
0.235667 0.0817475 0.0
0.127548 0.111215 0.0
0.0530605 0.136402 0.0
0.00269712 0.156664 0.0
-0.0306601 0.172001 0.0
-0.0522821 0.1828 0.0
-0.0660946 0.18977 0.0
-0.074747 0.19354 0.0
-0.0800017 0.194674 0.0
-0.08302 0.193656 0.0
-0.0845597 0.190894 0.0
-0.0851095 0.186726 0.0
-0.0849816 0.181435 0.0
-0.0843724 0.175259 0.0
-0.0834045 0.168397 0.0
-0.0821543 0.161021 0.0
-0.0806705 0.153275 0.0
-0.0789856 0.145284 0.0
-0.0771243 0.137154 0.0
-0.0751073 0.128977 0.0
-0.0729543 0.12083 0.0
-0.0706851 0.112778 0.0
-0.0683199 0.104872 0.0
-0.0658788 0.0971579 0.0
-0.0633814 0.0896678 0.0
-0.0608463 0.0824278 0.0
-0.0582897 0.0754565 0.0
-0.0557255 0.0687667 0.0
-0.0531639 0.0623659 0.0
-0.0506117 0.056258 0.0
-0.0480713 0.0504437 0.0
-0.0455411 0.0449218 0.0
-0.043015 0.03969 0.0
-0.0404825 0.0347457 0.0
-0.0379294 0.0300869 0.0
-0.0353376 0.0257126 0.0
-0.032686 0.0216243 0.0
-0.029951 0.0178257 0.0
-0.0271075 0.0143244 0.0
-0.0241298 0.0111324 0.0
-0.020993 0.00826687 0.0
-0.0176737 0.00575199 0.0
-0.0141518 0.00362091 0.0
-0.0104108 0.00191116 0.0
-0.00643874 0.000676682 0.0
-0.00222768 9.35304e-05 0.0
0.865772 0.00224381 0.0
0.618596 0.0169318 0.0
0.417574 0.0437691 0.0
0.26514 0.0728021 0.0
0.15424 0.10048 0.0
0.0755693 0.124776 0.0
0.0206552 0.144862 0.0
-0.0172076 0.160655 0.0
-0.0428687 0.172261 0.0
-0.0601448 0.18022 0.0
-0.0717085 0.185049 0.0
-0.079382 0.187238 0.0
-0.0843936 0.187218 0.0
-0.0875644 0.185366 0.0
-0.0894385 0.182006 0.0
-0.0903744 0.177414 0.0
-0.0906071 0.171831 0.0
-0.0902909 0.165463 0.0
-0.0895287 0.15849 0.0
-0.0883915 0.151068 0.0
-0.0869311 0.143335 0.0
-0.0851893 0.135408 0.0
-0.083202 0.127391 0.0
-0.0810028 0.11937 0.0
-0.0786242 0.111419 0.0
-0.0760978 0.1036 0.0
-0.0734542 0.0959598 0.0
-0.0707223 0.0885388 0.0
-0.0679288 0.081366 0.0
-0.0650971 0.0744623 0.0
-0.0622468 0.067842 0.0
-0.0593932 0.0615136 0.0
-0.0565467 0.0554807 0.0
-0.0537126 0.0497436 0.0
-0.0508908 0.0443003 0.0
-0.048076 0.0391473 0.0
-0.045258 0.0342805 0.0
-0.0424213 0.0296964 0.0
-0.0395464 0.0253928 0.0
-0.0366097 0.0213695 0.0
-0.0335843 0.0176292 0.0
-0.030441 0.0141786 0.0
-0.0271491 0.0110289 0.0
-0.023677 0.00819736 0.0
-0.0199939 0.00570842 0.0
-0.0160698 0.00359601 0.0
-0.0118767 0.00189891 0.0
-0.00738839 0.000672335 0.0
-0.00257934 9.28168e-05 0.0
0.873932 0.00188165 0.0
0.638971 0.0146985 0.0
0.443866 0.0386618 0.0
0.292431 0.0652494 0.0
0.179558 0.0911923 0.0
0.0974481 0.114486 0.0
0.0385728 0.134195 0.0
-0.00328536 0.150114 0.0
-0.0327168 0.16225 0.0
-0.0533113 0.17092 0.0
-0.0677335 0.176567 0.0
-0.0778367 0.1796 0.0
-0.0848942 0.180404 0.0
-0.0897739 0.17932 0.0
-0.0930631 0.176654 0.0
-0.0951579 0.172673 0.0
-0.0963253 0.167614 0.0
-0.0967473 0.161689 0.0
-0.0965504 0.155083 0.0
-0.0958265 0.147963 0.0
-0.0946465 0.140476 0.0
-0.093069 0.132749 0.0
-0.0911462 0.124897 0.0
-0.0889265 0.117015 0.0
-0.0864563 0.109185 0.0
-0.08378 0.101475 0.0
-0.0809399 0.0939386 0.0
-0.0779756 0.0866197 0.0
-0.0749231 0.0795504 0.0
-0.0718139 0.0727536 0.0
-0.0686744 0.0662446 0.0
-0.0655254 0.0600318 0.0
-0.0623817 0.0541187 0.0
-0.0592517 0.0485045 0.0
-0.0561375 0.0431859 0.0
-0.0530348 0.0381578 0.0
-0.0499334 0.0334144 0.0
-0.0468171 0.0289506 0.0
-0.0436645 0.0247622 0.0
-0.0404495 0.0208475 0.0
-0.0371418 0.0172077 0.0
-0.0337077 0.0138481 0.0
-0.0301109 0.0107792 0.0
-0.0263133 0.00801744 0.0
-0.0222759 0.00558695 0.0
-0.0179588 0.00352165 0.0
-0.013322 0.0018605 0.0
-0.00832518 0.000658851 0.0
-0.00292616 9.0916e-05 0.0
0.881042 0.00160833 0.0
0.657063 0.0128993 0.0
0.467714 0.0344194 0.0
0.317714 0.0588221 0.0
0.203506 0.0831185 0.0
0.11858 0.105362 0.0
0.0562694 0.124559 0.0
0.0108703 0.140376 0.0
-0.0220677 0.152818 0.0
-0.0458248 0.161982 0.0
-0.0630303 0.168242 0.0
-0.075547 0.171938 0.0
-0.0846756 0.173405 0.0
-0.0913161 0.172953 0.0
-0.0960877 0.170866 0.0
-0.0994155 0.167401 0.0
-0.101592 0.162791 0.0
-0.102823 0.157247 0.0
-0.103256 0.150962 0.0
-0.103 0.144109 0.0
-0.102146 0.136844 0.0
-0.100769 0.129304 0.0
-0.0989372 0.121611 0.0
-0.0967156 0.113871 0.0
-0.0941653 0.106171 0.0
-0.0913448 0.0985858 0.0
-0.0883095 0.0911747 0.0
-0.0851108 0.083984 0.0
-0.0817952 0.0770482 0.0
-0.0784031 0.0703918 0.0
-0.0749688 0.0640301 0.0
-0.0715192 0.0579714 0.0
-0.0680741 0.0522181 0.0
-0.0646454 0.0467679 0.0
-0.0612375 0.0416159 0.0
-0.0578475 0.0367549 0.0
-0.0544651 0.0321773 0.0
-0.0510735 0.0278755 0.0
-0.0476495 0.0238437 0.0
-0.0441642 0.020078 0.0
-0.0405836 0.016578 0.0
-0.0368694 0.0133473 0.0
-0.0329796 0.0103949 0.0
-0.0288691 0.0077362 0.0
-0.0244904 0.00539431 0.0
-0.0197938 0.00340229 0.0
-0.0147273 0.00179844 0.0
-0.00923676 0.000637177 0.0
-0.00326372 8.79714e-05 0.0
0.887303 0.0013958 0.0
0.673241 0.0114259 0.0
0.489429 0.0308553 0.0
0.341166 0.0533077 0.0
0.226125 0.0760619 0.0
0.138898 0.0972519 0.0
0.0735949 0.115855 0.0
0.0249901 0.131448 0.0
-0.0111338 0.14398 0.0
-0.0378827 0.15346 0.0
-0.05778 0.160155 0.0
-0.0726756 0.164351 0.0
-0.0838807 0.166336 0.0
-0.0923143 0.166387 0.0
-0.0986171 0.164767 0.0
-0.103235 0.161722 0.0
-0.106481 0.157479 0.0
-0.108577 0.152251 0.0
-0.10969 0.146233 0.0
-0.109946 0.139605 0.0
-0.109453 0.132531 0.0
-0.108302 0.125157 0.0
-0.10658 0.117612 0.0
-0.104368 0.11001 0.0
-0.101742 0.102444 0.0
-0.0987768 0.0949953 0.0
-0.0955423 0.0877259 0.0
-0.0921025 0.0806851 0.0
-0.0885156 0.0739092 0.0
-0.0848322 0.0674229 0.0
-0.0810949 0.0612414 0.0
-0.0773376 0.055372 0.0
-0.0735852 0.0498153 0.0
-0.0698539 0.0445674 0.0
-0.0661505 0.0396209 0.0
-0.0624734 0.0349665 0.0
-0.0588127 0.030594 0.0
-0.0551506 0.0264937 0.0
-0.0514619 0.0226572 0.0
-0.0477152 0.0190784 0.0
-0.0438725 0.0157549 0.0
-0.0398907 0.0126884 0.0
-0.0357218 0.00988596 0.0
-0.0313138 0.00736133 0.0
-0.0266105 0.00513607 0.0
-0.0215523 0.00324158 0.0
-0.0160753 0.00171473 0.0
-0.0101119 0.000608025 0.0
-0.00358802 8.408e-05 0.0
0.892867 0.00122588 0.0
0.6878 0.0101999 0.0
0.509278 0.0278255 0.0
0.36295 0.0485323 0.0
0.247471 0.0698478 0.0
0.158375 0.0899966 0.0
0.090471 0.107947 0.0
0.0389807 0.12322 0.0
-5.8359e-05 0.135688 0.0
-0.0296465 0.145345 0.0
-0.0521394 0.152324 0.0
-0.069368 0.156877 0.0
-0.0826413 0.159247 0.0
-0.0928858 0.15968 0.0
-0.100754 0.158421 0.0
-0.106705 0.155701 0.0
-0.111065 0.151744 0.0
-0.114071 0.146763 0.0
-0.115902 0.140955 0.0
-0.116703 0.134507 0.0
-0.116595 0.12759 0.0
-0.115688 0.120357 0.0
-0.114085 0.112946 0.0