# vtk DataFile Version 3.0
Malha 2D com triângulos: velocidade e pressão
ASCII
DATASET UNSTRUCTURED_GRID

POINTS 2500 double
0 0 0
1 0 0
1 1 0
0 1 0
0.0204082 0 0
0.0408163 0 0
0.0612245 0 0
0.0816327 0 0
0.102041 0 0
0.122449 0 0
0.142857 0 0
0.163265 0 0
0.183673 0 0
0.204082 0 0
0.22449 0 0
0.244898 0 0
0.265306 0 0
0.285714 0 0
0.306122 0 0
0.326531 0 0
0.346939 0 0
0.367347 0 0
0.387755 0 0
0.408163 0 0
0.428571 0 0
0.44898 0 0
0.469388 0 0
0.489796 0 0
0.510204 0 0
0.530612 0 0
0.55102 0 0
0.571429 0 0
0.591837 0 0
0.612245 0 0
0.632653 0 0
0.653061 0 0
0.673469 0 0
0.693878 0 0
0.714286 0 0
0.734694 0 0
0.755102 0 0
0.77551 0 0
0.795918 0 0
0.816327 0 0
0.836735 0 0
0.857143 0 0
0.877551 0 0
0.897959 0 0
0.918367 0 0
0.938776 0 0
0.959184 0 0
0.979592 0 0
1 0.0204082 0
1 0.0408163 0
1 0.0612245 0
1 0.0816327 0
1 0.102041 0
1 0.122449 0
1 0.142857 0
1 0.163265 0
1 0.183673 0
1 0.204082 0
1 0.22449 0
1 0.244898 0
1 0.265306 0
1 0.285714 0
1 0.306122 0
1 0.326531 0
1 0.346939 0
1 0.367347 0
1 0.387755 0
1 0.408163 0
1 0.428571 0
1 0.44898 0
1 0.469388 0
1 0.489796 0
1 0.510204 0
1 0.530612 0
1 0.55102 0
1 0.571429 0
1 0.591837 0
1 0.612245 0
1 0.632653 0
1 0.653061 0
1 0.673469 0
1 0.693878 0
1 0.714286 0
1 0.734694 0
1 0.755102 0
1 0.77551 0
1 0.795918 0
1 0.816327 0
1 0.836735 0
1 0.857143 0
1 0.877551 0
1 0.897959 0
1 0.918367 0
1 0.938776 0
1 0.959184 0
1 0.979592 0
0.979592 1 0
0.959184 1 0
0.938776 1 0
0.918367 1 0
0.897959 1 0
0.877551 1 0
0.857143 1 0
0.836735 1 0
0.816327 1 0
0.795918 1 0
0.77551 1 0
0.755102 1 0
0.734694 1 0
0.714286 1 0
0.693878 1 0
0.673469 1 0
0.653061 1 0
0.632653 1 0
0.612245 1 0
0.591837 1 0
0.571429 1 0
0.55102 1 0
0.530612 1 0
0.510204 1 0
0.489796 1 0
0.469388 1 0
0.44898 1 0
0.428571 1 0
0.408163 1 0
0.387755 1 0
0.367347 1 0
0.346939 1 0
0.326531 1 0
0.306122 1 0
0.285714 1 0
0.265306 1 0
0.244898 1 0
0.22449 1 0
0.204082 1 0
0.183673 1 0
0.163265 1 0
0.142857 1 0
0.122449 1 0
0.102041 1 0
0.0816327 1 0
0.0612245 1 0
0.0408163 1 0
0.0204082 1 0
0 0.979592 0
0 0.959184 0
0 0.938776 0
0 0.918367 0
0 0.897959 0
0 0.877551 0
0 0.857143 0
0 0.836735 0
0 0.816327 0
0 0.795918 0
0 0.77551 0
0 0.755102 0
0 0.734694 0
0 0.714286 0
0 0.693878 0
0 0.673469 0
0 0.653061 0
0 0.632653 0
0 0.612245 0
0 0.591837 0
0 0.571429 0
0 0.55102 0
0 0.530612 0
0 0.510204 0
0 0.489796 0
0 0.469388 0
0 0.44898 0
0 0.428571 0
0 0.408163 0
0 0.387755 0
0 0.367347 0
0 0.346939 0
0 0.326531 0
0 0.306122 0
0 0.285714 0
0 0.265306 0
0 0.244898 0
0 0.22449 0
0 0.204082 0
0 0.183673 0
0 0.163265 0
0 0.142857 0
0 0.122449 0
0 0.102041 0
0 0.0816327 0
0 0.0612245 0
0 0.0408163 0
0 0.0204082 0
0.0204082 0.979592 0
0.0204082 0.959184 0
0.0204082 0.938776 0
0.0204082 0.918367 0
0.0204082 0.897959 0
0.0204082 0.877551 0
0.0204082 0.857143 0
0.0204082 0.836735 0
0.0204082 0.816327 0
0.0204082 0.795918 0
0.0204082 0.77551 0
0.0204082 0.755102 0
0.0204082 0.734694 0
0.0204082 0.714286 0
0.0204082 0.693878 0
0.0204082 0.673469 0
0.0204082 0.653061 0
0.0204082 0.632653 0
0.0204082 0.612245 0
0.0204082 0.591837 0
0.0204082 0.571429 0
0.0204082 0.55102 0
0.0204082 0.530612 0
0.0204082 0.510204 0
0.0204082 0.489796 0
0.0204082 0.469388 0
0.0204082 0.44898 0
0.0204082 0.428571 0
0.0204082 0.408163 0
0.0204082 0.387755 0
0.0204082 0.367347 0
0.0204082 0.346939 0
0.0204082 0.326531 0
0.0204082 0.306122 0
0.0204082 0.285714 0
0.0204082 0.265306 0
0.0204082 0.244898 0
0.0204082 0.22449 0
0.0204082 0.204082 0
0.0204082 0.183673 0
0.0204082 0.163265 0
0.0204082 0.142857 0
0.0204082 0.122449 0
0.0204082 0.102041 0
0.0204082 0.0816327 0
0.0204082 0.0612245 0
0.0204082 0.0408163 0
0.0204082 0.0204082 0
0.0408163 0.979592 0
0.0408163 0.959184 0
0.0408163 0.938776 0
0.0408163 0.918367 0
0.0408163 0.897959 0
0.0408163 0.877551 0
0.0408163 0.857143 0
0.0408163 0.836735 0
0.0408163 0.816327 0
0.0408163 0.795918 0
0.0408163 0.77551 0
0.0408163 0.755102 0
0.0408163 0.734694 0
0.0408163 0.714286 0
0.0408163 0.693878 0
0.0408163 0.673469 0
0.0408163 0.653061 0
0.0408163 0.632653 0
0.0408163 0.612245 0
0.0408163 0.591837 0
0.0408163 0.571429 0
0.0408163 0.55102 0
0.0408163 0.530612 0
0.0408163 0.510204 0
0.0408163 0.489796 0
0.0408163 0.469388 0
0.0408163 0.44898 0
0.0408163 0.428571 0
0.0408163 0.408163 0
0.0408163 0.387755 0
0.0408163 0.367347 0
0.0408163 0.346939 0
0.0408163 0.326531 0
0.0408163 0.306122 0
0.0408163 0.285714 0
0.0408163 0.265306 0
0.0408163 0.244898 0
0.0408163 0.22449 0
0.0408163 0.204082 0
0.0408163 0.183673 0
0.0408163 0.163265 0
0.0408163 0.142857 0
0.0408163 0.122449 0
0.0408163 0.102041 0
0.0408163 0.0816327 0
0.0408163 0.0612245 0
0.0408163 0.0408163 0
0.0408163 0.0204082 0
0.0612245 0.979592 0
0.0612245 0.959184 0
0.0612245 0.938776 0
0.0612245 0.918367 0
0.0612245 0.897959 0
0.0612245 0.877551 0
0.0612245 0.857143 0
0.0612245 0.836735 0
0.0612245 0.816327 0
0.0612245 0.795918 0
0.0612245 0.77551 0
0.0612245 0.755102 0
0.0612245 0.734694 0
0.0612245 0.714286 0
0.0612245 0.693878 0
0.0612245 0.673469 0
0.0612245 0.653061 0
0.0612245 0.632653 0
0.0612245 0.612245 0
0.0612245 0.591837 0
0.0612245 0.571429 0
0.0612245 0.55102 0
0.0612245 0.530612 0
0.0612245 0.510204 0
0.0612245 0.489796 0
0.0612245 0.469388 0
0.0612245 0.44898 0
0.0612245 0.428571 0
0.0612245 0.408163 0
0.0612245 0.387755 0
0.0612245 0.367347 0
0.0612245 0.346939 0
0.0612245 0.326531 0
0.0612245 0.306122 0
0.0612245 0.285714 0
0.0612245 0.265306 0
0.0612245 0.244898 0
0.0612245 0.22449 0
0.0612245 0.204082 0
0.0612245 0.183673 0
0.0612245 0.163265 0
0.0612245 0.142857 0
0.0612245 0.122449 0
0.0612245 0.102041 0
0.0612245 0.0816327 0
0.0612245 0.0612245 0
0.0612245 0.0408163 0
0.0612245 0.0204082 0
0.0816327 0.979592 0
0.0816327 0.959184 0
0.0816327 0.938776 0
0.0816327 0.918367 0
0.0816327 0.897959 0
0.0816327 0.877551 0
0.0816327 0.857143 0
0.0816327 0.836735 0
0.0816327 0.816327 0
0.0816327 0.795918 0
0.0816327 0.77551 0
0.0816327 0.755102 0
0.0816327 0.734694 0
0.0816327 0.714286 0
0.0816327 0.693878 0
0.0816327 0.673469 0
0.0816327 0.653061 0
0.0816327 0.632653 0
0.0816327 0.612245 0
0.0816327 0.591837 0
0.0816327 0.571429 0
0.0816327 0.55102 0
0.0816327 0.530612 0
0.0816327 0.510204 0
0.0816327 0.489796 0
0.0816327 0.469388 0
0.0816327 0.44898 0
0.0816327 0.428571 0
0.0816327 0.408163 0
0.0816327 0.387755 0
0.0816327 0.367347 0
0.0816327 0.346939 0
0.0816327 0.326531 0
0.0816327 0.306122 0
0.0816327 0.285714 0
0.0816327 0.265306 0
0.0816327 0.244898 0
0.0816327 0.22449 0
0.0816327 0.204082 0
0.0816327 0.183673 0
0.0816327 0.163265 0
0.0816327 0.142857 0
0.0816327 0.122449 0
0.0816327 0.102041 0
0.0816327 0.0816327 0
0.0816327 0.0612245 0
0.0816327 0.0408163 0
0.0816327 0.0204082 0
0.102041 0.979592 0
0.102041 0.959184 0
0.102041 0.938776 0
0.102041 0.918367 0
0.102041 0.897959 0
0.102041 0.877551 0
0.102041 0.857143 0
0.102041 0.836735 0
0.102041 0.816327 0
0.102041 0.795918 0
0.102041 0.77551 0
0.102041 0.755102 0
0.102041 0.734694 0
0.102041 0.714286 0
0.102041 0.693878 0
0.102041 0.673469 0
0.102041 0.653061 0
0.102041 0.632653 0
0.102041 0.612245 0
0.102041 0.591837 0
0.102041 0.571429 0
0.102041 0.55102 0
0.102041 0.530612 0
0.102041 0.510204 0
0.102041 0.489796 0
0.102041 0.469388 0
0.102041 0.44898 0
0.102041 0.428571 0
0.102041 0.408163 0
0.102041 0.387755 0
0.102041 0.367347 0
0.102041 0.346939 0
0.102041 0.326531 0
0.102041 0.306122 0
0.102041 0.285714 0
0.102041 0.265306 0
0.102041 0.244898 0
0.102041 0.22449 0
0.102041 0.204082 0
0.102041 0.183673 0
0.102041 0.163265 0
0.102041 0.142857 0
0.102041 0.122449 0
0.102041 0.102041 0
0.102041 0.0816327 0
0.102041 0.0612245 0
0.102041 0.0408163 0
0.102041 0.0204082 0
0.122449 0.979592 0
0.122449 0.959184 0
0.122449 0.938776 0
0.122449 0.918367 0
0.122449 0.897959 0
0.122449 0.877551 0
0.122449 0.857143 0
0.122449 0.836735 0
0.122449 0.816327 0
0.122449 0.795918 0
0.122449 0.77551 0
0.122449 0.755102 0
0.122449 0.734694 0
0.122449 0.714286 0
0.122449 0.693878 0
0.122449 0.673469 0
0.122449 0.653061 0
0.122449 0.632653 0
0.122449 0.612245 0
0.122449 0.591837 0
0.122449 0.571429 0
0.122449 0.55102 0
0.122449 0.530612 0
0.122449 0.510204 0
0.122449 0.489796 0
0.122449 0.469388 0
0.122449 0.44898 0
0.122449 0.428571 0
0.122449 0.408163 0
0.122449 0.387755 0
0.122449 0.367347 0
0.122449 0.346939 0
0.122449 0.326531 0
0.122449 0.306122 0
0.122449 0.285714 0
0.122449 0.265306 0
0.122449 0.244898 0
0.122449 0.22449 0
0.122449 0.204082 0
0.122449 0.183673 0
0.122449 0.163265 0
0.122449 0.142857 0
0.122449 0.122449 0
0.122449 0.102041 0
0.122449 0.0816327 0
0.122449 0.0612245 0
0.122449 0.0408163 0
0.122449 0.0204082 0
0.142857 0.979592 0
0.142857 0.959184 0
0.142857 0.938776 0
0.142857 0.918367 0
0.142857 0.897959 0
0.142857 0.877551 0
0.142857 0.857143 0
0.142857 0.836735 0
0.142857 0.816327 0
0.142857 0.795918 0
0.142857 0.77551 0
0.142857 0.755102 0
0.142857 0.734694 0
0.142857 0.714286 0
0.142857 0.693878 0
0.142857 0.673469 0
0.142857 0.653061 0
0.142857 0.632653 0
0.142857 0.612245 0
0.142857 0.591837 0
0.142857 0.571429 0
0.142857 0.55102 0
0.142857 0.530612 0
0.142857 0.510204 0
0.142857 0.489796 0
0.142857 0.469388 0
0.142857 0.44898 0
0.142857 0.428571 0
0.142857 0.408163 0
0.142857 0.387755 0
0.142857 0.367347 0
0.142857 0.346939 0
0.142857 0.326531 0
0.142857 0.306122 0
0.142857 0.285714 0
0.142857 0.265306 0
0.142857 0.244898 0
0.142857 0.22449 0
0.142857 0.204082 0
0.142857 0.183673 0
0.142857 0.163265 0
0.142857 0.142857 0
0.142857 0.122449 0
0.142857 0.102041 0
0.142857 0.0816327 0
0.142857 0.0612245 0
0.142857 0.0408163 0
0.142857 0.0204082 0
0.163265 0.979592 0
0.163265 0.959184 0
0.163265 0.938776 0
0.163265 0.918367 0
0.163265 0.897959 0
0.163265 0.877551 0
0.163265 0.857143 0
0.163265 0.836735 0
0.163265 0.816327 0
0.163265 0.795918 0
0.163265 0.77551 0
0.163265 0.755102 0
0.163265 0.734694 0
0.163265 0.714286 0
0.163265 0.693878 0
0.163265 0.673469 0
0.163265 0.653061 0
0.163265 0.632653 0
0.163265 0.612245 0
0.163265 0.591837 0
0.163265 0.571429 0
0.163265 0.55102 0
[...]
CELL_DATA 2401
VECTORS velocity double
0.257354 0.157462 0
-0.0027183 0.264569 0
-0.0323311 0.205407 0
-0.0254069 0.150484 0
-0.0160787 0.112906 0
-0.00971271 0.0875226 0
-0.00592955 0.0704434 0
-0.00373803 0.0587625 0
-0.00244981 0.0505687 0
-0.00166892 0.0446719 0
-0.00117917 0.0403209 0
-0.000862902 0.0370277 0
-0.000654487 0.0344663 0
-0.000515855 0.0324124 0
-0.0004239 0.0307084 0
-0.00036396 0.0292419 0
-0.000326348 0.0279318 0
-0.000304431 0.0267192 0
-0.000293517 0.025562 0
-0.000290193 0.0244301 0
-0.000291916 0.0233027 0
-0.000296753 0.0221662 0
-0.000303214 0.0210128 0
-0.000310144 0.019839 0
-0.000316651 0.0186446 0
-0.000322052 0.0174322 0
-0.000325841 0.0162066 0
-0.000327659 0.0149737 0
-0.000327275 0.0137408 0
-0.000324558 0.0125156 0
-0.000319466 0.0113063 0
-0.000312026 0.010121 0
-0.000302316 0.00896782 0
-0.000290448 0.00785449 0
-0.000276557 0.00678841 0
-0.000260783 0.00577654 0
-0.000243257 0.00482537 0
-0.00022409 0.00394097 0
-0.000203357 0.00312906 0
-0.000181087 0.00239507 0
-0.000157245 0.00174422 0
-0.000131728 0.00118167 0
-0.000104365 0.000712543 0
-7.49699e-05 0.000341859 0
-4.3521e-05 7.41368e-05 0
-1.06853e-05 -8.77104e-05 0
2.08364e-05 -0.000144853 0
4.3548e-05 -0.000111733 0
3.80511e-05 -3.78526e-05 0
0.340585 0.122945 0
-0.000713687 0.249359 0
-0.0653325 0.271496 0
-0.0633579 0.251971 0
-0.048599 0.221412 0
-0.0350041 0.19153 0
-0.024911 0.166135 0
-0.0178462 0.145729 0
-0.012969 0.129693 0
-0.00959354 0.117164 0
-0.00724113 0.107334 0
-0.00559234 0.0995325 0
-0.00443498 0.0932305 0
-0.00362617 0.0880199 0
-0.00306774 0.0835893 0
-0.0026908 0.0797029 0
-0.00244596 0.0761826 0
-0.00229709 0.0728957 0
-0.0022173 0.069744 0
-0.00218617 0.0666564 0
-0.00218802 0.0635833 0
-0.00221064 0.0604919 0
-0.00224447 0.057363 0
-0.002282 0.0541879 0
-0.00231738 0.0509663 0
-0.00234611 0.0477047 0
-0.0023648 0.0444142 0
-0.00237103 0.0411102 0
-0.00236318 0.0378102 0
-0.00234027 0.0345336 0
-0.0023019 0.0313008 0
-0.00224811 0.0281323 0
-0.00217926 0.0250484 0
-0.00209595 0.022069 0
-0.00199895 0.0192128 0
-0.00188906 0.016498 0
-0.00176713 0.0139412 0
-0.00163388 0.0115583 0
-0.00148997 0.00936409 0
-0.0013359 0.0073725 0
-0.001172 0.00559659 0
-0.000998562 0.00404857 0
-0.000815969 0.00273956 0
-0.000625168 0.00167893 0
-0.000428652 0.000872867 0
-0.000232645 0.000321576 0
-5.15644e-05 1.41583e-05 0
8.45032e-05 -8.27608e-05 0
0.000111142 -4.23381e-05 0
0.500808 0.0767781 0
0.0989436 0.183145 0
-0.0395322 0.24908 0
-0.0735893 0.265509 0
-0.0719973 0.257184 0
-0.0606102 0.23942 0
-0.0482658 0.21949 0
-0.0376122 0.200678 0
-0.0291442 0.184187 0
-0.0226621 0.170218 0
-0.0177998 0.158545 0
-0.0142023 0.148795 0
-0.0115739 0.140574 0
-0.00968165 0.133525 0
-0.00834599 0.127343 0
-0.00742967 0.121779 0
-0.00682761 0.116636 0
-0.0064589 0.111758 0
-0.00626081 0.107028 0
-0.00618429 0.102361 0
-0.00619068 0.0976956 0
-0.00624937 0.0929919 0
-0.00633604 0.0882274 0
-0.00643143 0.0833931 0
-0.00652042 0.0784911 0
-0.0065913 0.0735324 0
-0.00663524 0.0685345 0
-0.00664588 0.0635199 0
-0.0066189 0.0585148 0
-0.0065517 0.0535473 0
-0.00644313 0.0486471 0
-0.00629317 0.0438441 0
-0.00610265 0.0391677 0
-0.00587308 0.0346468 0
-0.00560633 0.030309 0
-0.00530453 0.0261803 0
-0.00496982 0.0222855 0
-0.00460427 0.0186478 0
-0.00420979 0.0152885 0
-0.00378808 0.012228 0
-0.00334078 0.00948458 0
-0.00286969 0.00707508 0
-0.0023774 0.00501393 0
-0.00186846 0.00331223 0
-0.00135161 0.00197576 0
-0.000843897 0.00100196 0
-0.000378123 0.000373938 0
-1.30284e-05 5.2764e-05 0
0.000141734 -1.87896e-05 0
0.609909 0.0480219 0
0.195425 0.133898 0
0.0111014 0.209316 0
-0.0582626 0.246306 0
-0.0761765 0.256868 0
-0.0736749 0.253508 0
-0.0642382 0.243413 0
-0.0535011 0.230825 0
-0.0436519 0.217994 0
-0.0353851 0.205961 0
-0.0287716 0.195105 0
-0.0236452 0.18546 0
-0.0197703 0.176897 0
-0.0169118 0.169222 0
-0.014861 0.162231 0
-0.0134416 0.155735 0
-0.0125086 0.149571 0
-0.0119443 0.143605 0
-0.0116532 0.137732 0
-0.0115582 0.131873 0
-0.0115971 0.125973 0
-0.0117195 0.119997 0
-0.0118848 0.113926 0
-0.0120606 0.107758 0
-0.0122212 0.1015 0
-0.0123464 0.0951691 0
-0.0124213 0.0887894 0
-0.0124349 0.0823903 0
-0.0123797 0.0760052 0
-0.0122514 0.0696695 0
-0.0120479 0.0634198 0
-0.0117692 0.0572931 0
-0.0114169 0.0513257 0
-0.0109935 0.0455529 0
-0.0105024 0.0400086 0
-0.00994737 0.0347249 0
-0.0093323 0.0297319 0
-0.00866103 0.0250581 0
-0.00793725 0.0207296 0
-0.00716456 0.0167706 0
-0.00634663 0.0132034 0
-0.00548781 0.0100473 0
-0.00459413 0.00731874 0
-0.00367521 0.00502969 0
-0.0027474 0.00318595 0
-0.00183928 0.00178472 0
-0.00100057 0.000808687 0
-0.000313024 0.000223978 0
8.35079e-05 1.21598e-05 0
0.68026 0.0301396 0
0.278143 0.0981405 0
0.0693003 0.170929 0
-0.0276946 0.217459 0
-0.0652821 0.240999 0
-0.0744793 0.249625 0
-0.0711715 0.249256 0
-0.0631397 0.243991 0
-0.0540624 0.236393 0
-0.0455763 0.227944 0
-0.0383118 0.219429 0
-0.0324157 0.211216 0
-0.0278152 0.203426 0
-0.0243497 0.19605 0
-0.0218349 0.189015 0
-0.0200922 0.182222 0
-0.0189611 0.175572 0
-0.0183024 0.168978 0
-0.017998 0.162364 0
-0.017949 0.155676 0
-0.0180732 0.148877 0
-0.0183026 0.141946 0
-0.0185816 0.134875 0
-0.0188651 0.127671 0
-0.0191173 0.120351 0
-0.0193101 0.11294 0
-0.0194223 0.105468 0
-0.0194384 0.0979737 0
-0.0193481 0.0904953 0
-0.0191455 0.0830747 0
-0.0188278 0.0757543 0
-0.0183954 0.0685763 0
-0.0178506 0.0615821 0
-0.0171976 0.0548117 0
-0.0164415 0.0483031 0
-0.0155879 0.0420924 0
-0.0146429 0.0362137 0
-0.0136125 0.0306983 0
-0.0125025 0.0255756 0
-0.011319 0.0208725 0
-0.0100683 0.0166132 0
-0.00875783 0.0128188 0
-0.00739781 0.0095072 0
-0.00600331 0.00669129 0
-0.00459814 0.00437829 0
-0.00322083 0.00256815 0
-0.00193369 0.00124804 0
-0.000832849 0.000396004 0
-7.14994e-05 4.20949e-05 0
0.729637 0.0191737 0
0.348657 0.0730303 0
0.127631 0.139309 0
0.0111042 0.188352 0
-0.0441745 0.219835 0
-0.0655988 0.237141 0
-0.0699674 0.244806 0
-0.0663993 0.246291 0
-0.0597063 0.244046 0
-0.0523433 0.23967 0
-0.0454885 0.234151 0
-0.0396364 0.228062 0
-0.0349248 0.221713 0
-0.0313134 0.215247 0
-0.028681 0.208712 0
-0.0268767 0.202106 0
-0.025747 0.195399 0
-0.0251478 0.188557 0
-0.02495 0.181548 0
-0.0250411 0.174349 0
-0.0253245 0.166948 0
-0.0257189 0.159342 0
-0.0261565 0.151542 0
-0.0265818 0.143566 0
-0.0269502 0.135443 0
-0.0272267 0.127207 0
-0.0273848 0.118897 0
-0.0274055 0.110557 0
-0.0272763 0.102233 0
-0.0269899 0.0939726 0
-0.0265438 0.085822 0
-0.025939 0.0778278 0
-0.0251792 0.0700351 0
-0.0242702 0.0624869 0
-0.0232193 0.0552243 0
-0.0220346 0.0482857 0
-0.0207243 0.0417072 0
-0.0192971 0.0355221 0
-0.0177612 0.0297613 0
-0.0161253 0.0244531 0
-0.0143988 0.019623 0
-0.0125924 0.0152932 0
-0.0107205 0.0114827 0
-0.00880306 0.00820633 0
-0.00687013 0.00547406 0
-0.00496734 0.00329111 0
-0.00316429 0.00165254 0
-0.00156289 0.000551767 0
-0.000315915 6.78591e-05 0
0.765646 0.0125805 0
0.408102 0.0557169 0
0.182673 0.114616 0
0.0527298 0.162818 0
-0.0168165 0.198161 0
-0.0496691 0.221267 0
-0.0621384 0.234969 0
-0.0639647 0.242023 0
-0.0607189 0.244556 0
-0.0554904 0.244089 0
-0.0499289 0.241656 0
-0.0448572 0.237931 0
-0.0406312 0.233334 0
-0.0373496 0.228118 0
-0.0349753 0.222427 0
-0.0334052 0.216336 0
-0.0325093 0.209883 0
-0.0321525 0.203087 0
-0.0322052 0.195959 0
-0.0325494 0.188509 0
-0.0330808 0.180753 0
-0.0337092 0.172712 0
-0.0343584 0.164412 0
-0.034965 0.15589 0
-0.0354781 0.147185 0
-0.0358575 0.138342 0
-0.0360729 0.129409 0
-0.0361029 0.120438 0
-0.0359337 0.11148 0
-0.035558 0.102587 0
-0.0349737 0.0938111 0
-0.0341833 0.0852011 0
-0.0331924 0.076805 0
-0.0320092 0.068668 0
-0.0306434 0.0608325 0
-0.0291057 0.0533384 0
-0.0274071 0.0462224 0
-0.0255588 0.0395188 0
-0.0235718 0.0332588 0
-0.0214577 0.0274713 0
-0.0192284 0.0221823 0
-0.0168981 0.0174148 0
-0.0144846 0.0131894 0
-0.0120117 0.00952286 0
-0.0095137 0.0064295 0
-0.00703988 0.0039213 0
-0.004662 0.00200304 0
-0.00248033 0.000684342 0
-0.000637444 8.87263e-05 0
0.7927 0.00860258 0
0.458208 0.0436689 0
0.233248 0.0955388 0
0.0945391 0.141376 0
0.0142539 0.17783 0
-0.0288939 0.204601 0
-0.0492781 0.22261 0
-0.0568594 0.233993 0
-0.0576714 0.240495 0
-0.0552625 0.24347 0
-0.0516583 0.243905 0
-0.0479651 0.242497 0
-0.0447409 0.23972 0
-0.0422227 0.235892 0
-0.0404646 0.23122 0
-0.0394211 0.225842 0
-0.038996 0.21985 0
-0.0390722 0.213307 0
-0.0395282 0.206265 0
-0.0402473 0.198765 0
-0.0411229 0.190852 0
-0.0420605 0.182567 0
-0.042979 0.173958 0
-0.0438104 0.165075 0
-0.0444997 0.155972 0
-0.0450036 0.146704 0
-0.0452898 0.137329 0
-0.0453359 0.127905 0
-0.0451281 0.11849 0
-0.0446599 0.10914 0
-0.043931 0.0999113 0
-0.042946 0.0908552 0
-0.0417132 0.0820215 0
-0.0402436 0.0734567 0
-0.0385497 0.065204 0
-0.0366454 0.0573033 0
-0.0345445 0.0497915 0
-0.0322611 0.0427025 0
-0.029809 0.0360674 0
-0.0272022 0.0299146 0
-0.0244554 0.0242703 0
-0.0215854 0.0191583 0
-0.0186123 0.0146002 0
-0.0155626 0.0106159 0
-0.0124722 0.00722421 0
-0.00939085 0.00444469 0
-0.00638787 0.00229229 0
-0.00355633 0.000792002 0
-0.00102232 0.000104933 0
0.813745 0.00616039 0
0.500778 0.0351378 0
0.2792 0.0807984 0
0.13507 0.123696 0
0.0465123 0.159922 0
-0.00505345 0.18845 0
-0.0327878 0.209399 0
-0.0461157 0.223989 0
-0.0512689 0.233632 0
-0.0520981 0.239476 0
-0.0509126 0.242417 0
-0.0490494 0.243125 0
-0.0472415 0.242083 0
-0.0458532 0.23964 0
-0.0450269 0.236045 0
-0.0447767 0.231474 0
-0.045045 0.22606 0
-0.0457381 0.219905 0
-0.0467476 0.21309 0
-0.0479631 0.205687 0
-0.0492801 0.197764 0
-0.0506036 0.189385 0
-0.0518508 0.180616 0
-0.052952 0.171522 0
-0.0538503 0.162169 0
-0.0545015 0.152625 0
-0.054873 0.142955 0
-0.0549431 0.133226 0
-0.0546993 0.1235 0
-0.0541374 0.11384 0
-0.0532597 0.104303 0
-0.0520738 0.0949431 0
-0.0505916 0.0858124 0
-0.0488274 0.0769574 0
-0.0467974 0.0684212 0
-0.0445187 0.0602432 0
-0.0420083 0.0524596 0
-0.0392833 0.0451032 0
-0.03636 0.0382041 0
-0.0332549 0.03179 0
-0.0299848 0.0258867 0
-0.0265682 0.0205183 0
-0.0230267 0.0157079 0
-0.0193874 0.0114781 0
-0.0156856 0.00785258 0
-0.0119685 0.00485822 0
-0.00829944 0.00251971 0
-0.00476024 0.000875537 0
-0.00145703 0.000117037 0
0.830653 0.00462063 0
0.537327 0.0289617 0
0.320825 0.0692943 0
0.17372 0.109113 0
0.0789721 0.144343 0
0.0205764 0.173422 0
-0.0138029 0.196211 0
-0.0326509 0.213099 0
-0.042206 0.225138 0
-0.0464918 0.233286 0
-0.0480197 0.238327 0
-0.0483065 0.240876 0
-0.0482301 0.241402 0
-0.0482646 0.240259 0
-0.0486334 0.237714 0
-0.049407 0.23397 0
-0.0505667 0.229185 0
-0.0520443 0.223489 0
-0.053747 0.216989 0
-0.055574 0.209781 0
-0.0574256 0.201954 0
-0.0592093 0.193591 0
-0.0608433 0.184774 0
-0.0622582 0.175584 0
-0.0633978 0.166099 0
-0.0642186 0.156397 0
-0.0646898 0.146552 0
-0.0647918 0.136637 0
-0.0645149 0.126722 0
-0.0638584 0.116872 0
-0.0628285 0.107147 0
-0.0614369 0.0976053 0
-0.0596997 0.088297 0
-0.0576355 0.0792696 0
-0.0552645 0.0705656 0
-0.0526075 0.0622233 0
-0.049685 0.0542772 0
-0.046517 0.0467587 0
-0.0431224 0.0396962 0
-0.0395197 0.0331162 0
-0.0357272 0.0270437 0
-0.0317641 0.0215027 0
-0.0276523 0.0165174 0
-0.0234177 0.0121131 0
-0.0190929 0.00831776 0
-0.0147202 0.00516501 0
-0.0103539 0.00268811 0
-0.00606201 0.000936845 0
-0.00192916 0.000125655 0
0.844614 0.00361658 0
0.569046 0.0243833 0
0.358542 0.0602059 0
0.210198 0.0970466 0
0.110862 0.130885 0
0.0468161 0.15985 0
0.00686348 0.18347 0
-0.017205 0.201953 0
-0.0310942 0.215771 0
-0.0389195 0.225715 0
-0.0433306 0.23246 0
-0.0459803 0.236558 0
-0.047863 0.238445 0
-0.0495448 0.238468 0
-0.051319 0.236895 0
-0.0533074 0.233944 0
-0.0555275 0.229789 0
-0.0579359 0.224578 0
-0.0604566 0.218437 0
-0.0629993 0.211483 0
-0.0654712 0.20382 0
-0.0677839 0.195549 0
-0.0698586 0.186766 0
-0.0716282 0.177566 0
-0.0730389 0.168038 0
-0.0740498 0.15827 0
-0.0746334 0.148345 0
-0.0747737 0.138343 0
-0.0744656 0.128337 0
-0.073713 0.118397 0
-0.0725271 0.108587 0
-0.0709251 0.0989645 0
-0.068928 0.0895811 0
-0.0665594 0.0804834 0
-0.0638443 0.0717128 0
-0.0608076 0.0633058 0
-0.0574734 0.055295 0
-0.0538646 0.0477095 0
-0.0500026 0.0405756 0
-0.0459075 0.0339179 0
-0.0415984 0.0277602 0
-0.0370944 0.0221261 0
-0.0324161 0.0170404 0
-0.0275868 0.0125302 0
-0.0226346 0.00862739 0
-0.0175945 0.00537113 0
-0.0125099 0.00280179 0
-0.00743341 0.00097814 0
-0.00242758 0.000131351 0
0.856411 0.00293522 0
0.596865 0.0209029 0
0.392802 0.0529179 0
0.244462 0.0869777 0
0.141806 0.119237 0
0.0731299 0.14767 0
0.0283194 0.171553 0
-0.000382217 0.190919 0
-0.0184516 0.206015 0
-0.0298091 0.217316 0
-0.0371833 0.225403 0
-0.0423263 0.230763 0
-0.0463238 0.233795 0
-0.0498174 0.234826 0
-0.0531591 0.234119 0
-0.0565149 0.231894 0
-0.0599346 0.228334 0
-0.0633975 0.223598 0
-0.0668435 0.217828 0
-0.0701931 0.211152 0
-0.0733607 0.203691 0
-0.0762636 0.19556 0
-0.0788268 0.186867 0
-0.0809873 0.177718 0
-0.0826947 0.168214 0
-0.0839127 0.158452 0
-0.0846183 0.148522 0
-0.0848009 0.13851 0
-0.0844611 0.128495 0
-0.083609 0.11855 0
-0.0822621 0.10874 0
-0.0804439 0.0991246 0
-0.0781815 0.0897549 0
-0.0755043 0.0806767 0
-0.0724425 0.0719293 0
-0.0690257 0.0635472 0
-0.0652818 0.0555602 0
-0.0612368 0.0479946 0
-0.0569142 0.0408743 0
-0.0523352 0.0342214 0
-0.047519 0.0280577 0
-0.042484 0.022406 0
-0.037248 0.017291 0
-0.0318304 0.0127411 0
-0.0262531 0.0087908 0
-0.0205421 0.00548357 0
-0.0147285 0.0028653 0
-0.0088484 0.00100154 0
-0.00294246 0.00013459 0
0.866565 0.00245234 0
0.621499 0.0181897 0
0.424027 0.046978 0
0.276569 0.0784848 0
0.171585 0.109098 0
0.0991233 0.136736 0
0.0500931 0.160506 0
0.0172659 0.180254 0
-0.00471782 0.196162 0
-0.0195355 0.208455 0
-0.0298881 0.217564 0
-0.0375922 0.22392 0
-0.0438034 0.227884 0
-0.0492236 0.229757 0
-0.0542529 0.229793 0
-0.0590943 0.228205 0
-0.0638246 0.225181 0
-0.0684432 0.220887 0
-0.0729038 0.215472 0
-0.077137 0.209076 0
-0.0810646 0.201832 0
-0.0846092 0.193865 0
-0.0877012 0.185295 0
-0.0902819 0.17624 0
-0.0923063 0.166808 0
-0.0937434 0.157105 0
-0.0945764 0.147229 0
-0.0948015 0.137271 0
-0.0944263 0.127315 0
-0.0934685 0.117436 0
-0.0919531 0.107701 0
-0.089911 0.0981697 0
-0.0873765 0.0888928 0
-0.0843855 0.0799143 0
-0.0809742 0.0712716 0
-0.0771771 0.0629959 0
-0.0730263 0.0551142 0
-0.0685508 0.0476494 0
-0.0637761 0.0406221 0
-0.0587242 0.0340516 0
-0.0534138 0.0279573 0
-0.0478611 0.02236 0
-0.0420808 0.0172839 0
-0.0360867 0.0127576 0
-0.0298933 0.00881717 0
-0.0235162 0.00550897 0
-0.0169731 0.00288276 0
-0.0102831 0.00100883 0
-0.00346506 0.000135726 0
0.875437 0.00209476 0
0.643499 0.0160216 0
0.452585 0.0420549 0
0.306625 0.0712344 0
0.200085 0.100203 0
0.124536 0.126886 0
0.0718342 0.150282 0
0.0352723 0.170096 0
0.00975273 0.186382 0
-0.00841611 0.199354 0
-0.0217204 0.209211 0
-0.0320084 0.216324 0
-0.0404886 0.221019 0
-0.0479106 0.223572 0
-0.0547127 0.22422 0
-0.0611275 0.22317 0
-0.0672542 0.220608 0
-0.0731083 0.216702 0
-0.0786553 0.211609 0
-0.0838341 0.205475 0
-0.0885733 0.198443 0
-0.0928011 0.190648 0
-0.0964529 0.182219 0
-0.0994757 0.173283 0
-0.10183 0.163958 0
-0.103493 0.154355 0
-0.104453 0.144581 0
-0.104716 0.13473 0
-0.104297 0.12489 0
-0.103224 0.115139 0
-0.101529 0.105545 0
-0.099253 0.0961664 0
-0.0964375 0.0870538 0
-0.0931261 0.0782487 0
-0.0893613 0.0697855 0
-0.0851833 0.0616923 0
-0.0806285 0.0539922 0
-0.075729 0.0467042 0
-0.0705121 0.0398452 0
-0.0650001 0.0334309 0
-0.0592106 0.0274777 0
-0.0531573 0.0220039 0
-0.0468502 0.0170321 0
-0.0402968 0.0125902 0
-0.0335028 0.00871458 0
-0.0264727 0.00545301 0
-0.0192097 0.00285757 0
-0.0117154 0.00100139 0
-0.00398751 0.000135008 0
0.883278 0.00181856 0
0.663287 0.0142473 0
0.478791 0.0379038 0
0.334753 0.0649626 0
0.227259 0.092324 0
0.1492 0.117955 0
0.0933023 0.140795 0
0.0533622 0.160441 0
0.0245462 0.176845 0
0.00328674 0.190143 0
-0.0129167 0.200517 0
-0.0257831 0.208172 0
-0.0365564 0.213413 0
-0.0460245 0.216487 0
-0.0546562 0.217616 0
-0.0627071 0.216997 0
-0.0702935 0.214813 0
-0.0774435 0.211231 0
-0.0841315 0.206413 0
-0.0903034 0.20051 0
-0.0958932 0.193672 0
-0.100834 0.186043 0
-0.105067 0.177761 0
-0.108545 0.168958 0
-0.111235 0.159763 0
-0.113121 0.150293 0
-0.114203 0.140658 0
-0.114493 0.13096 0
-0.114018 0.121287 0
-0.112815 0.11172 0
-0.110926 0.102327 0
-0.108403 0.0931653 0
-0.105295 0.0842836 0
-0.101654 0.0757209 0
-0.0975309 0.0675081 0
-0.0929707 0.0596693 0
-0.0880146 0.0522232 0
-0.0826979 0.0451846 0
-0.0770495 0.0385658 0
-0.0710917 0.0323785 0
-0.0648407 0.0266353 0
-0.0583067 0.0213514 0
-0.0514944 0.0165468 0
-0.044404 0.0122477 0
-0.0370316 0.00848959 0
-0.0293695 0.00532015 0
-0.021406 0.00279225 0
-0.0131248 0.000980212 0
-0.00450258 0.000132587 0
0.89027 0.00159662 0
0.681188 0.0127611 0
0.502903 0.0343419 0
0.361075 0.0594601 0
0.253097 0.0852641 0
0.173005 0.109788 0
0.114319 0.131936 0
0.0713221 0.151233 0
0.0394481 0.16755 0
0.015264 0.180947 0
-0.00370521 0.191587 0
-0.0191118 0.199592 0
-0.0321751 0.205201 0
-0.0437088 0.208645 0
-0.0542033 0.210125 0
-0.0639312 0.209829 0
-0.0730211 0.207932 0
-0.0815095 0.204602 0
-0.0893773 0.200002 0
-0.0965753 0.19429 0
-0.103042 0.187619 0
-0.108714 0.180141 0
-0.113539 0.172001 0
-0.117475 0.16334 0
-0.120497 0.154292 0
-0.122598 0.14498 0
-0.123787 0.135519 0
-0.124088 0.126014 0
-0.123538 0.116556 0
-0.122185 0.107224 0
-0.120085 0.0980887 0
-0.117297 0.0892047 0
-0.113882 0.0806178 0
-0.109902 0.0723637 0
-0.105413 0.0644691 0
-0.100468 0.0569538 0
-0.0951134 0.0498315 0
-0.0893865 0.043112 0
-0.0833182 0.0368027 0
-0.0769306 0.0309107 0
-0.0702377 0.025444 0
-0.0632458 0.020414 0
-0.0559537 0.0158371 0
-0.0483537 0.0117371 0
-0.0404315 0.00814726 0
-0.0321664 0.00511365 0
-0.0235313 0.00268857 0
-0.0144918 0.000945889 0
-0.00500343 0.000128537 0
0.896543 0.00141169 0
0.697453 0.0114879 0
0.525134 0.0312304 0
0.3857 0.0545597 0
0.277602 0.0788581 0
0.195871 0.102239 0
0.134748 0.123596 0
0.088977 0.142399 0
0.054262 0.158458 0
0.0273148 0.171775 0
0.00573224 0.182453 0
-0.0121661 0.190641 0
-0.0275009 0.196458 0
-0.0411009 0.200128 0
-0.0534731 0.201833 0
-0.0649009 0.201749 0
-0.0755205 0.200046 0
-0.0853738 0.196892 0
-0.0944451 0.192449 0
-0.102688 0.186879 0
-0.110043 0.180342 0
-0.116453 0.172994 0
-0.121869 0.164989 0
-0.126255 0.156473 0
-0.129597 0.147585 0
-0.131895 0.138454 0
-0.13317 0.129199 0
-0.133458 0.119925 0
-0.132808 0.110727 0
-0.131282 0.101683 0
-0.128947 0.0928608 0
-0.125874 0.0843137 0
-0.122136 0.0760841 0
-0.117803 0.0682032 0
-0.112941 0.0606933 0
-0.107609 0.0535687 0
-0.101857 0.0468379 0
-0.0957267 0.0405052 0
-0.0892507 0.0345726 0
-0.0824504 0.0290417 0
-0.0753374 0.0239157 0
-0.0679134 0.0192013 0
-0.0601709 0.0149109 0
-0.0520936 0.0110642 0
-0.0436561 0.00769142 0
-0.0348247 0.00483583 0
-0.025556 0.00254762 0
-0.0157975 0.000898738 0
-0.00548342 0.00012287 0
0.902193 0.00125232 0
0.712274 0.0103724 0
0.545656 0.0284619 0
0.408724 0.0501264 0
0.300789 0.0729649 0
0.217741 0.0951781 0
0.154481 0.115664 0
0.106186 0.133856 0
0.0688262 0.149516 0
0.0392624 0.162598 0
0.015167 0.173163 0
-0.00511914 0.181342 0
-0.0226851 0.187216 0
-0.038335 0.190971 0
-0.052583 0.192776 0
-0.0657178 0.192796 0
-0.0778782 0.191194 0
-0.0891077 0.188135 0
-0.0993913 0.183785 0
-0.108683 0.178307 0
-0.116927 0.171867 0
-0.124068 0.164627 0
-0.130061 0.156747 0
-0.13488 0.148377 0
-0.138517 0.139662 0
-0.140986 0.130735 0
-0.142317 0.121718 0
-0.142561 0.112716 0
-0.141781 0.103823 0
-0.140052 0.0951187 0
-0.137455 0.0866661 0
-0.134074 0.0785158 0
-0.129993 0.0707059 0
-0.125293 0.0632626 0
-0.120048 0.0562028 0
-0.114324 0.0495351 0
-0.108177 0.0432621 0
-0.101652 0.037382 0
-0.0947816 0.0318911 0
-0.0875873 0.0267851 0
-0.0800779 0.0220617 0
-0.0722504 0.0177225 0
-0.0640906 0.0137747 0
-0.0555729 0.0102337 0
-0.0466608 0.00712518 0
-0.0373068 0.00448836 0
-0.0274515 0.0023701 0
-0.0170235 0.00083888 0
-0.00593603 0.000115557 0
0.907291 0.00111063 0
0.725798 0.00937305 0
0.564601 0.025952 0
0.430222 0.0460486 0
0.322665 0.0674629 0
0.238569 0.0884862 0