# vtk DataFile Version 3.0
Malha 2D com triângulos e temperatura
ASCII
DATASET UNSTRUCTURED_GRID

POINTS 2500 double
0 0 0
1 0 0
1 1 0
0 1 0
0.0204082 0 0
0.0408163 0 0
0.0612245 0 0
0.0816327 0 0
0.102041 0 0
0.122449 0 0
0.142857 0 0
0.163265 0 0
0.183673 0 0
0.204082 0 0
0.22449 0 0
0.244898 0 0
0.265306 0 0
0.285714 0 0
0.306122 0 0
0.326531 0 0
0.346939 0 0
0.367347 0 0
0.387755 0 0
0.408163 0 0
0.428571 0 0
0.44898 0 0
0.469388 0 0
0.489796 0 0
0.510204 0 0
0.530612 0 0
0.55102 0 0
0.571429 0 0
0.591837 0 0
0.612245 0 0
0.632653 0 0
0.653061 0 0
0.673469 0 0
0.693878 0 0
0.714286 0 0
0.734694 0 0
0.755102 0 0
0.77551 0 0
0.795918 0 0
0.816327 0 0
0.836735 0 0
0.857143 0 0
0.877551 0 0
0.897959 0 0
0.918367 0 0
0.938776 0 0
0.959184 0 0
0.979592 0 0
1 0.0204082 0
1 0.0408163 0
1 0.0612245 0
1 0.0816327 0
1 0.102041 0
1 0.122449 0
1 0.142857 0
1 0.163265 0
1 0.183673 0
1 0.204082 0
1 0.22449 0
1 0.244898 0
1 0.265306 0
1 0.285714 0
1 0.306122 0
1 0.326531 0
1 0.346939 0
1 0.367347 0
1 0.387755 0
1 0.408163 0
1 0.428571 0
1 0.44898 0
1 0.469388 0
1 0.489796 0
1 0.510204 0
1 0.530612 0
1 0.55102 0
1 0.571429 0
1 0.591837 0
1 0.612245 0
1 0.632653 0
1 0.653061 0
1 0.673469 0
1 0.693878 0
1 0.714286 0
1 0.734694 0
1 0.755102 0
1 0.77551 0
1 0.795918 0
1 0.816327 0
1 0.836735 0
1 0.857143 0
1 0.877551 0
1 0.897959 0
1 0.918367 0
1 0.938776 0
1 0.959184 0
1 0.979592 0
0.979592 1 0
0.959184 1 0
0.938776 1 0
0.918367 1 0
0.897959 1 0
0.877551 1 0
0.857143 1 0
0.836735 1 0
0.816327 1 0
0.795918 1 0
0.77551 1 0
0.755102 1 0
0.734694 1 0
0.714286 1 0
0.693878 1 0
0.673469 1 0
0.653061 1 0
0.632653 1 0
0.612245 1 0
0.591837 1 0
0.571429 1 0
0.55102 1 0
0.530612 1 0
0.510204 1 0
0.489796 1 0
0.469388 1 0
0.44898 1 0
0.428571 1 0
0.408163 1 0
0.387755 1 0
0.367347 1 0
0.346939 1 0
0.326531 1 0
0.306122 1 0
0.285714 1 0
0.265306 1 0
0.244898 1 0
0.22449 1 0
0.204082 1 0
0.183673 1 0
0.163265 1 0
0.142857 1 0
0.122449 1 0
0.102041 1 0
0.0816327 1 0
0.0612245 1 0
0.0408163 1 0
0.0204082 1 0
0 0.979592 0
0 0.959184 0
0 0.938776 0
0 0.918367 0
0 0.897959 0
0 0.877551 0
0 0.857143 0
0 0.836735 0
0 0.816327 0
0 0.795918 0
0 0.77551 0
0 0.755102 0
0 0.734694 0
0 0.714286 0
0 0.693878 0
0 0.673469 0
0 0.653061 0
0 0.632653 0
0 0.612245 0
0 0.591837 0
0 0.571429 0
0 0.55102 0
0 0.530612 0
0 0.510204 0
0 0.489796 0
0 0.469388 0
0 0.44898 0
0 0.428571 0
0 0.408163 0
0 0.387755 0
0 0.367347 0
0 0.346939 0
0 0.326531 0
0 0.306122 0
0 0.285714 0
0 0.265306 0
0 0.244898 0
0 0.22449 0
0 0.204082 0
0 0.183673 0
0 0.163265 0
0 0.142857 0
0 0.122449 0
0 0.102041 0
0 0.0816327 0
0 0.0612245 0
0 0.0408163 0
0 0.0204082 0
0.0204082 0.979592 0
0.0204082 0.959184 0
0.0204082 0.938776 0
0.0204082 0.918367 0
0.0204082 0.897959 0
0.0204082 0.877551 0
0.0204082 0.857143 0
0.0204082 0.836735 0
0.0204082 0.816327 0
0.0204082 0.795918 0
0.0204082 0.77551 0
0.0204082 0.755102 0
0.0204082 0.734694 0
0.0204082 0.714286 0
0.0204082 0.693878 0
0.0204082 0.673469 0
0.0204082 0.653061 0
0.0204082 0.632653 0
0.0204082 0.612245 0
0.0204082 0.591837 0
0.0204082 0.571429 0
0.0204082 0.55102 0
0.0204082 0.530612 0
0.0204082 0.510204 0
0.0204082 0.489796 0
0.0204082 0.469388 0
0.0204082 0.44898 0
0.0204082 0.428571 0
0.0204082 0.408163 0
0.0204082 0.387755 0
0.0204082 0.367347 0
0.0204082 0.346939 0
0.0204082 0.326531 0
0.0204082 0.306122 0
0.0204082 0.285714 0
0.0204082 0.265306 0
0.0204082 0.244898 0
0.0204082 0.22449 0
0.0204082 0.204082 0
0.0204082 0.183673 0
0.0204082 0.163265 0
0.0204082 0.142857 0
0.0204082 0.122449 0
0.0204082 0.102041 0
0.0204082 0.0816327 0
0.0204082 0.0612245 0
0.0204082 0.0408163 0
0.0204082 0.0204082 0
0.0408163 0.979592 0
0.0408163 0.959184 0
0.0408163 0.938776 0
0.0408163 0.918367 0
0.0408163 0.897959 0
0.0408163 0.877551 0
0.0408163 0.857143 0
0.0408163 0.836735 0
0.0408163 0.816327 0
0.0408163 0.795918 0
0.0408163 0.77551 0
0.0408163 0.755102 0
0.0408163 0.734694 0
0.0408163 0.714286 0
0.0408163 0.693878 0
0.0408163 0.673469 0
0.0408163 0.653061 0
0.0408163 0.632653 0
0.0408163 0.612245 0
0.0408163 0.591837 0
0.0408163 0.571429 0
0.0408163 0.55102 0
0.0408163 0.530612 0
0.0408163 0.510204 0
0.0408163 0.489796 0
0.0408163 0.469388 0
0.0408163 0.44898 0
0.0408163 0.428571 0
0.0408163 0.408163 0
0.0408163 0.387755 0
0.0408163 0.367347 0
0.0408163 0.346939 0
0.0408163 0.326531 0
0.0408163 0.306122 0
0.0408163 0.285714 0
0.0408163 0.265306 0
0.0408163 0.244898 0
0.0408163 0.22449 0
0.0408163 0.204082 0
0.0408163 0.183673 0
0.0408163 0.163265 0
0.0408163 0.142857 0
0.0408163 0.122449 0
0.0408163 0.102041 0
0.0408163 0.0816327 0
0.0408163 0.0612245 0
0.0408163 0.0408163 0
0.0408163 0.0204082 0
0.0612245 0.979592 0
0.0612245 0.959184 0
0.0612245 0.938776 0
0.0612245 0.918367 0
0.0612245 0.897959 0
0.0612245 0.877551 0
0.0612245 0.857143 0
0.0612245 0.836735 0
0.0612245 0.816327 0
0.0612245 0.795918 0
0.0612245 0.77551 0
0.0612245 0.755102 0
0.0612245 0.734694 0
0.0612245 0.714286 0
0.0612245 0.693878 0
0.0612245 0.673469 0
0.0612245 0.653061 0
0.0612245 0.632653 0
0.0612245 0.612245 0
0.0612245 0.591837 0
0.0612245 0.571429 0
0.0612245 0.55102 0
0.0612245 0.530612 0
0.0612245 0.510204 0
0.0612245 0.489796 0
0.0612245 0.469388 0
0.0612245 0.44898 0
0.0612245 0.428571 0
0.0612245 0.408163 0
0.0612245 0.387755 0
0.0612245 0.367347 0
0.0612245 0.346939 0
0.0612245 0.326531 0
0.0612245 0.306122 0
0.0612245 0.285714 0
0.0612245 0.265306 0
0.0612245 0.244898 0
0.0612245 0.22449 0
0.0612245 0.204082 0
0.0612245 0.183673 0
0.0612245 0.163265 0
0.0612245 0.142857 0
0.0612245 0.122449 0
0.0612245 0.102041 0
0.0612245 0.0816327 0
0.0612245 0.0612245 0
0.0612245 0.0408163 0
0.0612245 0.0204082 0
0.0816327 0.979592 0
0.0816327 0.959184 0
0.0816327 0.938776 0
0.0816327 0.918367 0
0.0816327 0.897959 0
0.0816327 0.877551 0
0.0816327 0.857143 0
0.0816327 0.836735 0
0.0816327 0.816327 0
0.0816327 0.795918 0
0.0816327 0.77551 0
0.0816327 0.755102 0
0.0816327 0.734694 0
0.0816327 0.714286 0
0.0816327 0.693878 0
0.0816327 0.673469 0
0.0816327 0.653061 0
0.0816327 0.632653 0
0.0816327 0.612245 0
0.0816327 0.591837 0
0.0816327 0.571429 0
0.0816327 0.55102 0
0.0816327 0.530612 0
0.0816327 0.510204 0
0.0816327 0.489796 0
0.0816327 0.469388 0
0.0816327 0.44898 0
0.0816327 0.428571 0
0.0816327 0.408163 0
0.0816327 0.387755 0
0.0816327 0.367347 0
0.0816327 0.346939 0
0.0816327 0.326531 0
0.0816327 0.306122 0
0.0816327 0.285714 0
0.0816327 0.265306 0
0.0816327 0.244898 0
0.0816327 0.22449 0
0.0816327 0.204082 0
0.0816327 0.183673 0
0.0816327 0.163265 0
0.0816327 0.142857 0
0.0816327 0.122449 0
0.0816327 0.102041 0
0.0816327 0.0816327 0
0.0816327 0.0612245 0
0.0816327 0.0408163 0
0.0816327 0.0204082 0
0.102041 0.979592 0
0.102041 0.959184 0
0.102041 0.938776 0
0.102041 0.918367 0
0.102041 0.897959 0
0.102041 0.877551 0
0.102041 0.857143 0
0.102041 0.836735 0
0.102041 0.816327 0
0.102041 0.795918 0
0.102041 0.77551 0
0.102041 0.755102 0
0.102041 0.734694 0
0.102041 0.714286 0
0.102041 0.693878 0
0.102041 0.673469 0
0.102041 0.653061 0
0.102041 0.632653 0
0.102041 0.612245 0
0.102041 0.591837 0
0.102041 0.571429 0
0.102041 0.55102 0
0.102041 0.530612 0
0.102041 0.510204 0
0.102041 0.489796 0
0.102041 0.469388 0
0.102041 0.44898 0
0.102041 0.428571 0
0.102041 0.408163 0
0.102041 0.387755 0
0.102041 0.367347 0
0.102041 0.346939 0
0.102041 0.326531 0
0.102041 0.306122 0
0.102041 0.285714 0
0.102041 0.265306 0
0.102041 0.244898 0
0.102041 0.22449 0
0.102041 0.204082 0
0.102041 0.183673 0
0.102041 0.163265 0
0.102041 0.142857 0
0.102041 0.122449 0
0.102041 0.102041 0
0.102041 0.0816327 0
0.102041 0.0612245 0
0.102041 0.0408163 0
0.102041 0.0204082 0
0.122449 0.979592 0
0.122449 0.959184 0
0.122449 0.938776 0
0.122449 0.918367 0
0.122449 0.897959 0
0.122449 0.877551 0
0.122449 0.857143 0
0.122449 0.836735 0
0.122449 0.816327 0
0.122449 0.795918 0
0.122449 0.77551 0
0.122449 0.755102 0
0.122449 0.734694 0
0.122449 0.714286 0
0.122449 0.693878 0
0.122449 0.673469 0
0.122449 0.653061 0
0.122449 0.632653 0
0.122449 0.612245 0
0.122449 0.591837 0
0.122449 0.571429 0
0.122449 0.55102 0
0.122449 0.530612 0
0.122449 0.510204 0
0.122449 0.489796 0
0.122449 0.469388 0
0.122449 0.44898 0
0.122449 0.428571 0
0.122449 0.408163 0
0.122449 0.387755 0
0.122449 0.367347 0
0.122449 0.346939 0
0.122449 0.326531 0
0.122449 0.306122 0
0.122449 0.285714 0
0.122449 0.265306 0
0.122449 0.244898 0
0.122449 0.22449 0
0.122449 0.204082 0
0.122449 0.183673 0
0.122449 0.163265 0
0.122449 0.142857 0
0.122449 0.122449 0
0.122449 0.102041 0
0.122449 0.0816327 0
0.122449 0.0612245 0
0.122449 0.0408163 0
0.122449 0.0204082 0
0.142857 0.979592 0
0.142857 0.959184 0
0.142857 0.938776 0
0.142857 0.918367 0
0.142857 0.897959 0
0.142857 0.877551 0
0.142857 0.857143 0
0.142857 0.836735 0
0.142857 0.816327 0
0.142857 0.795918 0
0.142857 0.77551 0
0.142857 0.755102 0
0.142857 0.734694 0
0.142857 0.714286 0
0.142857 0.693878 0
0.142857 0.673469 0
0.142857 0.653061 0
0.142857 0.632653 0
0.142857 0.612245 0
0.142857 0.591837 0
0.142857 0.571429 0
0.142857 0.55102 0
0.142857 0.530612 0
0.142857 0.510204 0
0.142857 0.489796 0
0.142857 0.469388 0
0.142857 0.44898 0
0.142857 0.428571 0
0.142857 0.408163 0
0.142857 0.387755 0
0.142857 0.367347 0
0.142857 0.346939 0
0.142857 0.326531 0
0.142857 0.306122 0
0.142857 0.285714 0
0.142857 0.265306 0
0.142857 0.244898 0
0.142857 0.22449 0
0.142857 0.204082 0
0.142857 0.183673 0
0.142857 0.163265 0
0.142857 0.142857 0
0.142857 0.122449 0
0.142857 0.102041 0
0.142857 0.0816327 0
0.142857 0.0612245 0
0.142857 0.0408163 0
0.142857 0.0204082 0
0.163265 0.979592 0
0.163265 0.959184 0
0.163265 0.938776 0
0.163265 0.918367 0
0.163265 0.897959 0
0.163265 0.877551 0
0.163265 0.857143 0
0.163265 0.836735 0
0.163265 0.816327 0
0.163265 0.795918 0
0.163265 0.77551 0
0.163265 0.755102 0
0.163265 0.734694 0
0.163265 0.714286 0
0.163265 0.693878 0
0.163265 0.673469 0
0.163265 0.653061 0
0.163265 0.632653 0
0.163265 0.612245 0
0.163265 0.591837 0
0.163265 0.571429 0
0.163265 0.55102 0
[...]
CELL_DATA 2401
VECTORS velocity double
0.257357 0.157466 0.0
-0.00268418 0.264624 0.0
-0.0322759 0.205579 0.0
-0.0253516 0.150783 0.0
-0.0160401 0.113303 0.0
-0.00969838 0.0879584 0.0
-0.00593978 0.0708496 0.0
-0.00376904 0.0590751 0.0
-0.00249639 0.0507352 0.0
-0.00172592 0.0446537 0.0
-0.00124218 0.040093 0.0
-0.000928427 0.0365766 0.0
-0.000719897 0.033788 0.0
-0.000579191 0.0315104 0.0
-0.000483705 0.0295922 0.0
-0.000419134 0.0279257 0.0
-0.000376042 0.0264331 0.0
-0.000347974 0.0250589 0.0
-0.000330382 0.0237628 0.0
-0.000319977 0.0225165 0.0
-0.00031434 0.0213006 0.0
-0.000311663 0.0201022 0.0
-0.00031059 0.0189137 0.0
-0.000310105 0.0177312 0.0
-0.000309454 0.016554 0.0
-0.000308095 0.0153835 0.0
-0.000305651 0.0142226 0.0
-0.000301882 0.0130753 0.0
-0.000296655 0.0119464 0.0
-0.000289923 0.0108409 0.0
-0.000281702 0.00976397 0.0
-0.000272054 0.00872065 0.0
-0.000261067 0.00771579 0.0
-0.000248846 0.00675395 0.0
-0.000235492 0.00583938 0.0
-0.000221098 0.004976 0.0
-0.000205731 0.00416747 0.0
-0.000189426 0.00341727 0.0
-0.000172176 0.00272878 0.0
-0.00015392 0.00210538 0.0
-0.000134534 0.00155063 0.0
-0.000113824 0.00106831 0.0
-9.15253e-05 0.000662575 0.0
-6.73467e-05 0.000337885 0.0
-4.11094e-05 9.87165e-05 0.0
-1.31908e-05 -5.1325e-05 0.0
1.43226e-05 -0.000111628 0.0
3.52409e-05 -9.23437e-05 0.0
3.27216e-05 -3.25681e-05 0.0
0.340642 0.122979 0.0
-0.000542725 0.249528 0.0
-0.0651148 0.271872 0.0
-0.0631621 0.252533 0.0
-0.0484856 0.222086 0.0
-0.0350052 0.192202 0.0
-0.0250314 0.166674 0.0
-0.0180725 0.146008 0.0
-0.0132791 0.129601 0.0
-0.00996332 0.116616 0.0
-0.00764788 0.106271 0.0
-0.00601655 0.0979209 0.0
-0.00486061 0.0910581 0.0
-0.00404035 0.0852929 0.0
-0.00346029 0.0803292 0.0
-0.00305365 0.0759434 0.0
-0.00277271 0.0719676 0.0
-0.00258273 0.0682768 0.0
-0.00245791 0.0647789 0.0
-0.00237889 0.0614077 0.0
-0.00233095 0.0581167 0.0
-0.00230282 0.054875 0.0
-0.00228588 0.0516638 0.0
-0.00227358 0.0484739 0.0
-0.00226097 0.0453031 0.0
-0.00224444 0.0421545 0.0
-0.00222142 0.0390353 0.0
-0.00219022 0.0359554 0.0
-0.00214984 0.0329264 0.0
-0.00209983 0.0299609 0.0
-0.00204012 0.0270717 0.0
-0.001971 0.0242718 0.0
-0.0018929 0.0215734 0.0
-0.00180639 0.0189884 0.0
-0.00171204 0.0165277 0.0
-0.00161039 0.0142017 0.0
-0.00150186 0.01202 0.0
-0.00138674 0.00999196 0.0
-0.0012651 0.0081263 0.0
-0.00113686 0.00643178 0.0
-0.0010017 0.00491713 0.0
-0.000859197 0.00359116 0.0
-0.000708953 0.00246263 0.0
-0.000550988 0.0015398 0.0
-0.000386576 0.000829153 0.0
-0.000220128 0.00033314 0.0
-6.30821e-05 4.55661e-05 0.0
5.95134e-05 -5.81102e-05 0.0
9.18992e-05 -3.43014e-05 0.0
0.500977 0.0768265 0.0
0.0993139 0.183359 0.0
-0.039112 0.249506 0.0
-0.0732568 0.266086 0.0
-0.0718627 0.257797 0.0
-0.060735 0.239924 0.0
-0.048661 0.219724 0.0
-0.0382525 0.200486 0.0
-0.029984 0.183436 0.0
-0.0236479 0.1688 0.0
-0.0188789 0.156385 0.0
-0.0153272 0.145849 0.0
-0.0127039 0.136827 0.0
-0.0107828 0.128986 0.0
-0.00939076 0.122044 0.0
-0.00839573 0.115769 0.0
-0.00769708 0.109976 0.0
-0.00721767 0.104524 0.0
-0.00689803 0.0993048 0.0
-0.00669205 0.0942383 0.0
-0.00656384 0.0892689 0.0
-0.00648544 0.0843593 0.0
-0.00643514 0.0794877 0.0
-0.00639621 0.0746439 0.0
-0.00635598 0.0698273 0.0
-0.00630504 0.065044 0.0
-0.00623672 0.0603056 0.0
-0.00614654 0.0556271 0.0
-0.0060318 0.0510259 0.0
-0.00589121 0.0465206 0.0
-0.00572458 0.0421302 0.0
-0.00553248 0.0378735 0.0
-0.00531601 0.0337688 0.0
-0.00507655 0.0298335 0.0
-0.00481556 0.0260839 0.0
-0.00453443 0.0225352 0.0
-0.00423432 0.0192018 0.0
-0.00391604 0.0160973 0.0
-0.00358008 0.0132347 0.0
-0.00322651 0.0106264 0.0
-0.00285517 0.00828461 0.0
-0.00246587 0.00622116 0.0
-0.00205896 0.00444708 0.0
-0.00163634 0.00297181 0.0
-0.00120337 0.00180167 0.0
-0.000772557 0.000937133 0.0
-0.000370043 0.000367511 0.0
-4.47277e-05 6.44217e-05 0.0
0.000109152 -1.26585e-05 0.0
0.6102 0.0480678 0.0
0.195982 0.134088 0.0
0.0116897 0.209656 0.0
-0.0578761 0.246715 0.0
-0.0761359 0.257196 0.0
-0.0740602 0.253591 0.0
-0.0650613 0.243075 0.0
-0.0547218 0.229904 0.0
-0.0451988 0.216349 0.0
-0.0371735 0.203482 0.0
-0.0307159 0.191714 0.0
-0.0256659 0.181113 0.0
-0.0217977 0.171581 0.0
-0.0188867 0.162952 0.0
-0.016734 0.155047 0.0
-0.0151724 0.147698 0.0
-0.0140645 0.140758 0.0
-0.0132994 0.134108 0.0
-0.0127877 0.127653 0.0
-0.0124578 0.121324 0.0
-0.0122524 0.11507 0.0
-0.0121263 0.108859 0.0
-0.0120434 0.102675 0.0
-0.0119761 0.0965117 0.0
-0.0119028 0.0903735 0.0
-0.0118077 0.084272 0.0
-0.0116794 0.0782239 0.0
-0.0115105 0.0722496 0.0
-0.0112962 0.0663719 0.0
-0.0110344 0.0606146 0.0
-0.0107249 0.0550018 0.0
-0.0103687 0.0495572 0.0
-0.00996776 0.0443037 0.0
-0.00952462 0.0392629 0.0
-0.00904188 0.0344552 0.0
-0.00852206 0.0298996 0.0
-0.00796732 0.0256137 0.0
-0.00737936 0.0216144 0.0
-0.00675933 0.0179173 0.0
-0.00610788 0.0145375 0.0
-0.00542545 0.0114891 0.0
-0.00471273 0.00878573 0.0
-0.00397161 0.00643925 0.0
-0.00320686 0.00445952 0.0
-0.00242892 0.00285265 0.0
-0.00165873 0.00161888 0.0
-0.000935645 0.000747364 0.0
-0.000327189 0.000214505 0.0
4.76335e-05 1.45735e-05 0.0
0.680647 0.0301732 0.0
0.278824 0.0982681 0.0
0.0699409 0.171117 0.0
-0.0273743 0.21759 0.0
-0.0654731 0.240913 0.0
-0.0752728 0.249147 0.0
-0.0725732 0.248212 0.0
-0.0650909 0.24222 0.0
-0.0564643 0.23376 0.0
-0.0483122 0.224344 0.0
-0.0412624 0.214792 0.0
-0.0354688 0.205503 0.0
-0.0308706 0.196632 0.0
-0.0273211 0.188197 0.0
-0.0246493 0.180151 0.0
-0.0226894 0.172418 0.0
-0.0212919 0.164918 0.0
-0.0203277 0.157575 0.0
-0.0196879 0.15033 0.0
-0.0192819 0.143135 0.0
-0.0190351 0.135959 0.0
-0.0188873 0.128785 0.0
-0.01879 0.121606 0.0
-0.0187051 0.114426 0.0
-0.0186032 0.107259 0.0
-0.0184623 0.100122 0.0
-0.0182667 0.0930395 0.0
-0.0180061 0.0860376 0.0
-0.0176744 0.0791444 0.0
-0.0172687 0.0723887 0.0
-0.0167891 0.065799 0.0
-0.0162375 0.0594033 0.0
-0.0156169 0.0532278 0.0
-0.0149314 0.0472977 0.0
-0.014185 0.0416362 0.0
-0.0133816 0.0362648 0.0
-0.0125248 0.0312038 0.0
-0.0116174 0.0264717 0.0
-0.0106614 0.0220862 0.0
-0.00965867 0.0180635 0.0
-0.00861046 0.0144191 0.0
-0.00751882 0.0111672 0.0
-0.00638765 0.00832034 0.0
-0.0052248 0.00588874 0.0
-0.00404549 0.00387928 0.0
-0.00287759 0.00229431 0.0
-0.00176969 0.00112669 0.0
-0.000800211 0.000363209 0.0
-9.7958e-05 4.04705e-05 0.0
0.730075 0.0191888 0.0
0.34938 0.07307 0.0
0.128217 0.139301 0.0
0.0112228 0.188154 0.0
-0.0447395 0.219281 0.0
-0.0669434 0.236054 0.0
-0.0720853 0.243019 0.0
-0.0692106 0.243655 0.0
-0.0630836 0.240436 0.0
-0.0561375 0.234993 0.0
-0.049547 0.228347 0.0
-0.0438148 0.221104 0.0
-0.0390929 0.213603 0.0
-0.0353576 0.206017 0.0
-0.0325045 0.198419 0.0
-0.0303989 0.190827 0.0
-0.0289016 0.183231 0.0
-0.0278821 0.175612 0.0
-0.0272234 0.167951 0.0
-0.0268243 0.160232 0.0
-0.0265992 0.15245 0.0
-0.0264768 0.144605 0.0
-0.0263992 0.136709 0.0
-0.0263203 0.128779 0.0
-0.0262042 0.120837 0.0
-0.0260242 0.112911 0.0
-0.0257613 0.105033 0.0
-0.0254031 0.0972358 0.0
-0.0249427 0.0895529 0.0
-0.0243774 0.082018 0.0
-0.0237079 0.0746639 0.0
-0.0229376 0.0675219 0.0
-0.0220711 0.0606215 0.0
-0.0211141 0.0539902 0.0
-0.0200727 0.0476532 0.0
-0.0189524 0.041634 0.0
-0.0177585 0.0359541 0.0
-0.0164952 0.0306332 0.0
-0.0151659 0.0256897 0.0
-0.0137734 0.0211407 0.0
-0.0123204 0.017002 0.0
-0.0108103 0.0132883 0.0
-0.00924904 0.0100126 0.0
-0.00764702 0.00718614 0.0
-0.00602303 0.00481765 0.0
-0.00440935 0.00291361 0.0
-0.00285911 0.00147335 0.0
-0.00145394 0.000496733 0.0
-0.000320429 6.25468e-05 0.0
0.76608 0.0125759 0.0
0.408767 0.0556635 0.0
0.183083 0.114404 0.0
0.0525111 0.162293 0.0
-0.0178888 0.197148 0.0
-0.0516929 0.21959 0.0
-0.0650894 0.232476 0.0
-0.0677403 0.238582 0.0
-0.0651625 0.240056 0.0
-0.060421 0.238452 0.0
-0.0551618 0.234835 0.0
-0.0502169 0.229909 0.0
-0.0459588 0.224124 0.0
-0.0425053 0.217759 0.0
-0.0398394 0.210982 0.0
-0.037877 0.20389 0.0
-0.036506 0.196538 0.0
-0.0356077 0.188959 0.0
-0.0350678 0.181177 0.0
-0.0347829 0.173211 0.0
-0.0346621 0.165081 0.0
-0.0346283 0.156812 0.0
-0.0346176 0.148432 0.0
-0.0345786 0.139973 0.0
-0.0344716 0.131472 0.0
-0.0342666 0.122966 0.0
-0.0339429 0.114495 0.0
-0.0334873 0.106099 0.0
-0.032893 0.097818 0.0
-0.0321585 0.0896905 0.0
-0.0312859 0.0817531 0.0
-0.0302805 0.0740403 0.0
-0.0291493 0.066584 0.0
-0.0279002 0.0594136 0.0
-0.0265416 0.0525558 0.0
-0.0250812 0.046035 0.0
-0.023526 0.0398733 0.0
-0.021882 0.0340909 0.0
-0.0201542 0.0287063 0.0
-0.0183465 0.0237367 0.0
-0.0164629 0.019198 0.0
-0.0145083 0.015105 0.0
-0.0124897 0.0114715 0.0
-0.0104196 0.00831019 0.0
-0.00831835 0.00563274 0.0
-0.00621969 0.00345099 0.0
-0.00417671 0.00177216 0.0
-0.0022678 0.000609723 0.0
-0.000608756 8.03158e-05 0.0
0.793079 0.00857983 0.0
0.45872 0.0435269 0.0
0.23337 0.0951324 0.0
0.0938651 0.140549 0.0
0.0125296 0.176415 0.0
-0.0317106 0.202409 0.0
-0.0531581 0.219502 0.0
-0.0616786 0.229858 0.0
-0.0632447 0.235244 0.0
-0.0613787 0.237038 0.0
-0.0581025 0.236259 0.0
-0.0545328 0.233631 0.0
-0.051246 0.229656 0.0
-0.0485012 0.224675 0.0
-0.0463751 0.218919 0.0
-0.044844 0.212545 0.0
-0.0438326 0.205661 0.0
-0.0432433 0.198346 0.0
-0.0429726 0.19066 0.0
-0.0429212 0.182655 0.0
-0.0429987 0.17438 0.0
-0.0431265 0.165881 0.0
-0.0432385 0.157206 0.0
-0.043281 0.148401 0.0
-0.0432125 0.139517 0.0
-0.0430021 0.130602 0.0
-0.042629 0.121706 0.0
-0.0420808 0.112876 0.0
-0.041352 0.104157 0.0
-0.0404431 0.0955934 0.0
-0.0393589 0.0872255 0.0
-0.0381074 0.0790905 0.0
-0.0366984 0.0712224 0.0
-0.0351429 0.063652 0.0
-0.0334518 0.0564068 0.0
-0.0316354 0.0495115 0.0
-0.0297031 0.0429883 0.0
-0.0276626 0.0368571 0.0
-0.0255204 0.0311362 0.0
-0.0232819 0.0258422 0.0
-0.0209522 0.020991 0.0
-0.0185368 0.0165974 0.0
-0.0160437 0.012676 0.0
-0.0134856 0.00924135 0.0
-0.0108827 0.00630865 0.0
-0.00826732 0.00389561 0.0
-0.00568852 0.00201768 0.0
-0.00321651 0.000701038 0.0
-0.000950906 9.40464e-05 0.0
0.814019 0.00612242 0.0
0.501047 0.0349174 0.0
0.278933 0.0802166 0.0
0.133847 0.122598 0.0
0.0440768 0.158148 0.0
-0.00878221 0.185854 0.0
-0.0376818 0.205801 0.0
-0.0520382 0.219307 0.0
-0.0580113 0.227795 0.0
-0.0594236 0.23244 0.0
-0.0585795 0.234162 0.0
-0.0568272 0.233654 0.0
-0.0549198 0.231425 0.0
-0.0532452 0.227846 0.0
-0.0519713 0.223184 0.0
-0.0511364 0.217637 0.0
-0.0507064 0.211351 0.0
-0.0506097 0.204441 0.0
-0.0507587 0.197 0.0
-0.051063 0.189108 0.0
-0.0514368 0.180838 0.0
-0.0518037 0.172257 0.0
-0.0520985 0.163431 0.0
-0.0522679 0.154424 0.0
-0.0522711 0.145298 0.0
-0.0520783 0.136113 0.0
-0.0516704 0.126928 0.0
-0.0510371 0.117797 0.0
-0.0501759 0.108773 0.0
-0.0490906 0.0999035 0.0
-0.0477894 0.0912329 0.0
-0.0462841 0.082801 0.0
-0.0445883 0.0746435 0.0
-0.0427163 0.0667921 0.0
-0.0406825 0.0592746 0.0
-0.0385 0.0521155 0.0
-0.0361807 0.0453366 0.0
-0.0337344 0.038957 0.0
-0.0311692 0.032994 0.0
-0.0284918 0.0274638 0.0
-0.0257078 0.0223815 0.0
-0.0228231 0.0177621 0.0
-0.0198456 0.0136209 0.0
-0.0167867 0.00997444 0.0
-0.0136647 0.00684148 0.0
-0.0105077 0.00424554 0.0
-0.00735785 0.00220981 0.0
-0.00427354 0.000771521 0.0
-0.00133521 0.000104241 0.0
0.830784 0.00457134 0.0
0.537275 0.0286784 0.0
0.32008 0.0685686 0.0
0.171863 0.107794 0.0
0.0757543 0.142284 0.0
0.0159354 0.170485 0.0
-0.0197475 0.192255 0.0
-0.0397051 0.208022 0.0
-0.0501305 0.218896 0.0
-0.0550261 0.22585 0.0
-0.0568988 0.229687 0.0
-0.0572767 0.231044 0.0
-0.057059 0.230411 0.0
-0.0567453 0.228162 0.0
-0.0565861 0.224582 0.0
-0.0566786 0.219891 0.0
-0.0570297 0.214262 0.0
-0.0575955 0.207835 0.0
-0.0583067 0.200729 0.0
-0.0590846 0.193049 0.0
-0.059851 0.184887 0.0
-0.0605341 0.176331 0.0
-0.0610723 0.167463 0.0
-0.061415 0.158362 0.0
-0.0615242 0.149103 0.0
-0.0613731 0.139757 0.0
-0.0609459 0.130392 0.0
-0.0602364 0.121069 0.0
-0.0592463 0.111848 0.0
-0.0579838 0.10278 0.0
-0.056462 0.0939134 0.0
-0.0546973 0.0852902 0.0
-0.0527079 0.0769475 0.0
-0.0505123 0.0689172 0.0
-0.0481287 0.0612273 0.0
-0.0455737 0.0539015 0.0
-0.0428619 0.0469606 0.0
-0.0400053 0.0404224 0.0
-0.0370137 0.0343031 0.0
-0.0338946 0.0286177 0.0
-0.0306539 0.0233805 0.0
-0.0272973 0.0186063 0.0
-0.0238312 0.014311 0.0
-0.0202648 0.010513 0.0
-0.0166123 0.00723441 0.0
-0.0128959 0.0045038 0.0
-0.00914792 0.00235118 0.0
-0.00541303 0.000822859 0.0
-0.00175096 0.000111431 0.0
0.844573 0.00356006 0.0
0.568611 0.0240545 0.0
0.357249 0.0593735 0.0
0.207647 0.0955663 0.0
0.106813 0.128626 0.0
0.0412137 0.156692 0.0
-0.000201062 0.179321 0.0
-0.0254076 0.196664 0.0
-0.0401953 0.209314 0.0
-0.0486434 0.218085 0.0
-0.0533934 0.223658 0.0
-0.056109 0.226602 0.0
-0.0578061 0.227373 0.0
-0.0590775 0.226331 0.0
-0.0602451 0.223765 0.0
-0.0614589 0.219903 0.0
-0.062764 0.214935 0.0
-0.0641432 0.20902 0.0
-0.065546 0.202296 0.0
-0.0669067 0.194884 0.0
-0.0681559 0.186896 0.0
-0.0692285 0.178437 0.0
-0.070068 0.169603 0.0
-0.0706287 0.160488 0.0
-0.0708769 0.151178 0.0
-0.0707907 0.141755 0.0
-0.0703592 0.132295 0.0
-0.0695818 0.122868 0.0
-0.0684658 0.113537 0.0
-0.0670255 0.10436 0.0
-0.0652797 0.0953872 0.0
-0.0632506 0.0866624 0.0
-0.0609618 0.0782238 0.0
-0.0584369 0.0701034 0.0
-0.0556986 0.0623286 0.0
-0.0527671 0.0549221 0.0
-0.04966 0.047903 0.0
-0.046392 0.0412876 0.0
-0.0429741 0.0350905 0.0
-0.0394145 0.0293249 0.0
-0.0357192 0.0240042 0.0
-0.0318925 0.0191427 0.0
-0.0279386 0.0147566 0.0
-0.0238631 0.0108655 0.0
-0.0196748 0.00749421 0.0
-0.0153878 0.00467575 0.0
-0.0110233 0.00244554 0.0
-0.00661071 0.000856965 0.0
-0.00218859 0.000116093 0.0
0.856177 0.0028751 0.0
0.596003 0.0205455 0.0
0.390914 0.0520141 0.0
0.24118 0.0853889 0.0
0.136912 0.116845 0.0
0.0665854 0.144374 0.0
0.0202426 0.167275 0.0
-0.00975213 0.185596 0.0
-0.0287181 0.199533 0.0
-0.0406918 0.209691 0.0
-0.0483879 0.216651 0.0
-0.0535667 0.220909 0.0
-0.0573335 0.222878 0.0
-0.0603565 0.222895 0.0
-0.0630167 0.221241 0.0
-0.0655097 0.218147 0.0
-0.0679138 0.213809 0.0
-0.0702364 0.208398 0.0
-0.0724447 0.202065 0.0
-0.0744855 0.194946 0.0
-0.0762991 0.187167 0.0
-0.0778279 0.178848 0.0
-0.0790218 0.170099 0.0
-0.079841 0.161026 0.0
-0.080258 0.151725 0.0
-0.080257 0.142288 0.0
-0.079834 0.132801 0.0
-0.078995 0.123339 0.0
-0.0777547 0.113971 0.0
-0.0761344 0.104759 0.0
-0.0741603 0.0957552 0.0
-0.0718613 0.0870058 0.0
-0.0692673 0.078549 0.0
-0.0664078 0.0704166 0.0
-0.0633104 0.0626348 0.0
-0.0599997 0.0552248 0.0
-0.0564966 0.0482037 0.0
-0.052818 0.0415858 0.0
-0.0489765 0.0353834 0.0
-0.0449808 0.029608 0.0
-0.0408361 0.0242713 0.0
-0.0365449 0.0193867 0.0
-0.0321082 0.0149701 0.0
-0.0275269 0.0110419 0.0
-0.022803 0.00762904 0.0
-0.0179413 0.00476747 0.0
-0.0129506 0.00249683 0.0
-0.00784422 0.000875655 0.0
-0.0026396 0.000118621 0.0
0.866129 0.00239187 0.0
0.620184 0.0178196 0.0
0.421515 0.0460387 0.0
0.272534 0.0768441 0.0
0.165836 0.106652 0.0
0.0916418 0.133401 0.0
0.0410159 0.156221 0.0
0.00685075 0.174974 0.0
-0.0161034 0.189819 0.0
-0.0315272 0.201013 0.0
-0.0421786 0.209055 0.0
-0.049886 0.214374 0.0
-0.0558229 0.217336 0.0
-0.0607163 0.218256 0.0
-0.0649951 0.217396 0.0
-0.0688922 0.214986 0.0
-0.072514 0.211222 0.0
-0.0758891 0.20628 0.0
-0.079 0.200322 0.0
-0.0818052 0.193496 0.0
-0.0842543 0.185938 0.0
-0.0862975 0.177781 0.0
-0.0878918 0.169146 0.0
-0.0890044 0.16015 0.0
-0.089615 0.150901 0.0
-0.0897155 0.141499 0.0
-0.0893098 0.132037 0.0
-0.0884124 0.122596 0.0
-0.0870464 0.113251 0.0
-0.0852419 0.104067 0.0
-0.0830333 0.0950982 0.0
-0.0804574 0.0863917 0.0
-0.0775514 0.0779859 0.0
-0.0743514 0.0699116 0.0
-0.0708907 0.0621936 0.0
-0.0671984 0.0548508 0.0
-0.0632992 0.0478981 0.0
-0.0592124 0.0413471 0.0
-0.0549519 0.0352075 0.0
-0.0505266 0.0294886 0.0
-0.0459405 0.0241999 0.0
-0.0411937 0.0193533 0.0
-0.0362831 0.0149641 0.0
-0.0312039 0.0110527 0.0
-0.0259502 0.00764692 0.0
-0.0205167 0.00478477 0.0
-0.0148987 0.00250865 0.0
-0.00909307 0.000880476 0.0
-0.00309648 0.000119319 0.0
0.874798 0.00203672 0.0
0.64172 0.0156537 0.0
0.449438 0.0411141 0.0
0.301838 0.0695957 0.0
0.193499 0.0977765 0.0
0.116153 0.123606 0.0
0.0618081 0.146106 0.0
0.0238669 0.164989 0.0
-0.00270571 0.180333 0.0
-0.0214571 0.19227 0.0
-0.0350299 0.201124 0.0
-0.045288 0.207272 0.0
-0.0534535 0.211036 0.0
-0.0602983 0.212699 0.0
-0.0662883 0.212509 0.0
-0.0716859 0.210684 0.0
-0.0766203 0.207421 0.0
-0.0811367 0.202898 0.0
-0.0852307 0.197282 0.0
-0.0888708 0.190728 0.0
-0.092015 0.183386 0.0
-0.0946211 0.175394 0.0
-0.0966535 0.166888 0.0
-0.0980872 0.157992 0.0
-0.0989099 0.148825 0.0
-0.0991224 0.139493 0.0
-0.0987381 0.130097 0.0
-0.0977811 0.120725 0.0
-0.0962845 0.111455 0.0
-0.0942882 0.102354 0.0
-0.0918361 0.0934782 0.0
-0.0889741 0.0848757 0.0
-0.0857478 0.0765839 0.0
-0.0822005 0.0686324 0.0
-0.0783715 0.0610436 0.0
-0.0742954 0.0538342 0.0
-0.0700004 0.0470159 0.0
-0.0655086 0.0405973 0.0
-0.0608351 0.0345852 0.0
-0.0559885 0.0289858 0.0
-0.0509713 0.0238064 0.0
-0.0457806 0.0190566 0.0
-0.0404086 0.0147503 0.0
-0.0348439 0.0109071 0.0
-0.0290719 0.00755501 0.0
-0.0230763 0.00473267 0.0
-0.0168385 0.00248398 0.0
-0.0103384 0.00087265 0.0
-0.00355244 0.000118402 0.0
0.882443 0.00176521 0.0
0.66105 0.0138946 0.0
0.475018 0.0369922 0.0
0.329234 0.0633747 0.0
0.219871 0.0899825 0.0
0.139969 0.114812 0.0
0.0823972 0.136818 0.0
0.04106 0.15561 0.0
0.0111887 0.171152 0.0
-0.0107439 0.183574 0.0
-0.0271768 0.19301 0.0
-0.0399762 0.199778 0.0
-0.0503973 0.204163 0.0
-0.0592444 0.206417 0.0
-0.0670109 0.206769 0.0
-0.0739812 0.205427 0.0
-0.0803013 0.202582 0.0
-0.0860295 0.198414 0.0
-0.091171 0.193092 0.0
-0.0957025 0.18678 0.0
-0.0995894 0.179633 0.0
-0.102796 0.1718 0.0
-0.105295 0.163425 0.0
-0.107069 0.154642 0.0
-0.108115 0.145577 0.0
-0.108444 0.136344 0.0
-0.108079 0.12705 0.0
-0.107056 0.117787 0.0
-0.105419 0.108637 0.0
-0.103219 0.0996688 0.0
-0.100512 0.0909405 0.0
-0.0973522 0.0824988 0.0
-0.0937951 0.0743803 0.0
-0.089892 0.0666126 0.0
-0.0856891 0.0592154 0.0
-0.0812263 0.0522022 0.0
-0.0765362 0.0455814 0.0
-0.0716431 0.0393581 0.0
-0.0665634 0.0335354 0.0
-0.0613055 0.0281163 0.0
-0.0558697 0.0231049 0.0
-0.0502497 0.0185084 0.0
-0.0444323 0.0143384 0.0
-0.0383989 0.010613 0.0
-0.0321257 0.00735918 0.0
-0.0255844 0.00461519 0.0
-0.0187425 0.00242513 0.0
-0.0115626 0.000853059 0.0
-0.00400127 0.000116011 0.0
0.88925 0.00154974 0.0
0.678513 0.0124348 0.0
0.498531 0.0334867 0.0
0.354859 0.0579671 0.0
0.244956 0.0830681 0.0
0.162989 0.106854 0.0
0.10261 0.128248 0.0
0.0582033 0.146781 0.0
0.0252651 0.16233 0.0
0.00039165 0.174964 0.0
-0.0188238 0.184789 0.0
-0.034135 0.19199 0.0
-0.0468159 0.196828 0.0
-0.0576932 0.199526 0.0
-0.0672795 0.200294 0.0
-0.0758739 0.199327 0.0
-0.0836343 0.196813 0.0
-0.0906275 0.192928 0.0
-0.0968655 0.187846 0.0
-0.102331 0.181735 0.0
-0.106995 0.174756 0.0
-0.11083 0.167068 0.0
-0.113813 0.15882 0.0
-0.115937 0.150156 0.0
-0.117209 0.141208 0.0
-0.11765 0.132098 0.0
-0.117296 0.122936 0.0
-0.116195 0.11382 0.0
-0.114404 0.104833 0.0
-0.111985 0.0960457 0.0
-0.109007 0.0875163 0.0
-0.105535 0.0792904 0.0
-0.101634 0.0714026 0.0
-0.0973656 0.0638778 0.0
-0.0927821 0.0567326 0.0
-0.0879295 0.0499766 0.0
-0.0828447 0.0436144 0.0
-0.0775546 0.0376471 0.0
-0.0720768 0.0320739 0.0
-0.0664189 0.0268938 0.0
-0.0605792 0.0221075 0.0
-0.0545471 0.0177188 0.0
-0.0483038 0.0137366 0.0
-0.0418229 0.0101767 0.0
-0.0350708 0.00706401 0.0
-0.0280072 0.00443532 0.0
-0.0205847 0.00233371 0.0
-0.0127492 0.000822285 0.0
-0.00443711 0.00011222 0.0
0.895358 0.0013726 0.0
0.694372 0.0111972 0.0
0.520205 0.0304548 0.0
0.378841 0.0531999 0.0
0.268774 0.0768598 0.0
0.185148 0.0995802 0.0
0.122325 0.120271 0.0
0.0751423 0.13841 0.0
0.039363 0.153807 0.0
0.0117263 0.166462 0.0
-0.0101587 0.176481 0.0
-0.0279345 0.183946 0.0
-0.0428619 0.18908 0.0
-0.0557792 0.192082 0.0
-0.0672102 0.193142 0.0
-0.0774628 0.192445 0.0
-0.0867012 0.190169 0.0
-0.0949968 0.186494 0.0
-0.102366 0.181591 0.0
-0.108794 0.175635 0.0
-0.114258 0.168792 0.0
-0.118734 0.161228 0.0
-0.122208 0.1531 0.0
-0.124683 0.144558 0.0
-0.126174 0.13574 0.0
-0.126716 0.126775 0.0
-0.126358 0.117776 0.0