# vtk DataFile Version 3.0
Malha 2D com triângulos: velocidade e pressão
ASCII
DATASET UNSTRUCTURED_GRID

POINTS 2500 double
0 0 0
1 0 0
1 1 0
0 1 0
0.0204082 0 0
0.0408163 0 0
0.0612245 0 0
0.0816327 0 0
0.102041 0 0
0.122449 0 0
0.142857 0 0
0.163265 0 0
0.183673 0 0
0.204082 0 0
0.22449 0 0
0.244898 0 0
0.265306 0 0
0.285714 0 0
0.306122 0 0
0.326531 0 0
0.346939 0 0
0.367347 0 0
0.387755 0 0
0.408163 0 0
0.428571 0 0
0.44898 0 0
0.469388 0 0
0.489796 0 0
0.510204 0 0
0.530612 0 0
0.55102 0 0
0.571429 0 0
0.591837 0 0
0.612245 0 0
0.632653 0 0
0.653061 0 0
0.673469 0 0
0.693878 0 0
0.714286 0 0
0.734694 0 0
0.755102 0 0
0.77551 0 0
0.795918 0 0
0.816327 0 0
0.836735 0 0
0.857143 0 0
0.877551 0 0
0.897959 0 0
0.918367 0 0
0.938776 0 0
0.959184 0 0
0.979592 0 0
1 0.0204082 0
1 0.0408163 0
1 0.0612245 0
1 0.0816327 0
1 0.102041 0
1 0.122449 0
1 0.142857 0
1 0.163265 0
1 0.183673 0
1 0.204082 0
1 0.22449 0
1 0.244898 0
1 0.265306 0
1 0.285714 0
1 0.306122 0
1 0.326531 0
1 0.346939 0
1 0.367347 0
1 0.387755 0
1 0.408163 0
1 0.428571 0
1 0.44898 0
1 0.469388 0
1 0.489796 0
1 0.510204 0
1 0.530612 0
1 0.55102 0
1 0.571429 0
1 0.591837 0
1 0.612245 0
1 0.632653 0
1 0.653061 0
1 0.673469 0
1 0.693878 0
1 0.714286 0
1 0.734694 0
1 0.755102 0
1 0.77551 0
1 0.795918 0
1 0.816327 0
1 0.836735 0
1 0.857143 0
1 0.877551 0
1 0.897959 0
1 0.918367 0
1 0.938776 0
1 0.959184 0
1 0.979592 0
0.979592 1 0
0.959184 1 0
0.938776 1 0
0.918367 1 0
0.897959 1 0
0.877551 1 0
0.857143 1 0
0.836735 1 0
0.816327 1 0
0.795918 1 0
0.77551 1 0
0.755102 1 0
0.734694 1 0
0.714286 1 0
0.693878 1 0
0.673469 1 0
0.653061 1 0
0.632653 1 0
0.612245 1 0
0.591837 1 0
0.571429 1 0
0.55102 1 0
0.530612 1 0
0.510204 1 0
0.489796 1 0
0.469388 1 0
0.44898 1 0
0.428571 1 0
0.408163 1 0
0.387755 1 0
0.367347 1 0
0.346939 1 0
0.326531 1 0
0.306122 1 0
0.285714 1 0
0.265306 1 0
0.244898 1 0
0.22449 1 0
0.204082 1 0
0.183673 1 0
0.163265 1 0
0.142857 1 0
0.122449 1 0
0.102041 1 0
0.0816327 1 0
0.0612245 1 0
0.0408163 1 0
0.0204082 1 0
0 0.979592 0
0 0.959184 0
0 0.938776 0
0 0.918367 0
0 0.897959 0
0 0.877551 0
0 0.857143 0
0 0.836735 0
0 0.816327 0
0 0.795918 0
0 0.77551 0
0 0.755102 0
0 0.734694 0
0 0.714286 0
0 0.693878 0
0 0.673469 0
0 0.653061 0
0 0.632653 0
0 0.612245 0
0 0.591837 0
0 0.571429 0
0 0.55102 0
0 0.530612 0
0 0.510204 0
0 0.489796 0
0 0.469388 0
0 0.44898 0
0 0.428571 0
0 0.408163 0
0 0.387755 0
0 0.367347 0
0 0.346939 0
0 0.326531 0
0 0.306122 0
0 0.285714 0
0 0.265306 0
0 0.244898 0
0 0.22449 0
0 0.204082 0
0 0.183673 0
0 0.163265 0
0 0.142857 0
0 0.122449 0
0 0.102041 0
0 0.0816327 0
0 0.0612245 0
0 0.0408163 0
0 0.0204082 0
0.0204082 0.979592 0
0.0204082 0.959184 0
0.0204082 0.938776 0
0.0204082 0.918367 0
0.0204082 0.897959 0
0.0204082 0.877551 0
0.0204082 0.857143 0
0.0204082 0.836735 0
0.0204082 0.816327 0
0.0204082 0.795918 0
0.0204082 0.77551 0
0.0204082 0.755102 0
0.0204082 0.734694 0
0.0204082 0.714286 0
0.0204082 0.693878 0
0.0204082 0.673469 0
0.0204082 0.653061 0
0.0204082 0.632653 0
0.0204082 0.612245 0
0.0204082 0.591837 0
0.0204082 0.571429 0
0.0204082 0.55102 0
0.0204082 0.530612 0
0.0204082 0.510204 0
0.0204082 0.489796 0
0.0204082 0.469388 0
0.0204082 0.44898 0
0.0204082 0.428571 0
0.0204082 0.408163 0
0.0204082 0.387755 0
0.0204082 0.367347 0
0.0204082 0.346939 0
0.0204082 0.326531 0
0.0204082 0.306122 0
0.0204082 0.285714 0
0.0204082 0.265306 0
0.0204082 0.244898 0
0.0204082 0.22449 0
0.0204082 0.204082 0
0.0204082 0.183673 0
0.0204082 0.163265 0
0.0204082 0.142857 0
0.0204082 0.122449 0
0.0204082 0.102041 0
0.0204082 0.0816327 0
0.0204082 0.0612245 0
0.0204082 0.0408163 0
0.0204082 0.0204082 0
0.0408163 0.979592 0
0.0408163 0.959184 0
0.0408163 0.938776 0
0.0408163 0.918367 0
0.0408163 0.897959 0
0.0408163 0.877551 0
0.0408163 0.857143 0
0.0408163 0.836735 0
0.0408163 0.816327 0
0.0408163 0.795918 0
0.0408163 0.77551 0
0.0408163 0.755102 0
0.0408163 0.734694 0
0.0408163 0.714286 0
0.0408163 0.693878 0
0.0408163 0.673469 0
0.0408163 0.653061 0
0.0408163 0.632653 0
0.0408163 0.612245 0
0.0408163 0.591837 0
0.0408163 0.571429 0
0.0408163 0.55102 0
0.0408163 0.530612 0
0.0408163 0.510204 0
0.0408163 0.489796 0
0.0408163 0.469388 0
0.0408163 0.44898 0
0.0408163 0.428571 0
0.0408163 0.408163 0
0.0408163 0.387755 0
0.0408163 0.367347 0
0.0408163 0.346939 0
0.0408163 0.326531 0
0.0408163 0.306122 0
0.0408163 0.285714 0
0.0408163 0.265306 0
0.0408163 0.244898 0
0.0408163 0.22449 0
0.0408163 0.204082 0
0.0408163 0.183673 0
0.0408163 0.163265 0
0.0408163 0.142857 0
0.0408163 0.122449 0
0.0408163 0.102041 0
0.0408163 0.0816327 0
0.0408163 0.0612245 0
0.0408163 0.0408163 0
0.0408163 0.0204082 0
0.0612245 0.979592 0
0.0612245 0.959184 0
0.0612245 0.938776 0
0.0612245 0.918367 0
0.0612245 0.897959 0
0.0612245 0.877551 0
0.0612245 0.857143 0
0.0612245 0.836735 0
0.0612245 0.816327 0
0.0612245 0.795918 0
0.0612245 0.77551 0
0.0612245 0.755102 0
0.0612245 0.734694 0
0.0612245 0.714286 0
0.0612245 0.693878 0
0.0612245 0.673469 0
0.0612245 0.653061 0
0.0612245 0.632653 0
0.0612245 0.612245 0
0.0612245 0.591837 0
0.0612245 0.571429 0
0.0612245 0.55102 0
0.0612245 0.530612 0
0.0612245 0.510204 0
0.0612245 0.489796 0
0.0612245 0.469388 0
0.0612245 0.44898 0
0.0612245 0.428571 0
0.0612245 0.408163 0
0.0612245 0.387755 0
0.0612245 0.367347 0
0.0612245 0.346939 0
0.0612245 0.326531 0
0.0612245 0.306122 0
0.0612245 0.285714 0
0.0612245 0.265306 0
0.0612245 0.244898 0
0.0612245 0.22449 0
0.0612245 0.204082 0
0.0612245 0.183673 0
0.0612245 0.163265 0
0.0612245 0.142857 0
0.0612245 0.122449 0
0.0612245 0.102041 0
0.0612245 0.0816327 0
0.0612245 0.0612245 0
0.0612245 0.0408163 0
0.0612245 0.0204082 0
0.0816327 0.979592 0
0.0816327 0.959184 0
0.0816327 0.938776 0
0.0816327 0.918367 0
0.0816327 0.897959 0
0.0816327 0.877551 0
0.0816327 0.857143 0
0.0816327 0.836735 0
0.0816327 0.816327 0
0.0816327 0.795918 0
0.0816327 0.77551 0
0.0816327 0.755102 0
0.0816327 0.734694 0
0.0816327 0.714286 0
0.0816327 0.693878 0
0.0816327 0.673469 0
0.0816327 0.653061 0
0.0816327 0.632653 0
0.0816327 0.612245 0
0.0816327 0.591837 0
0.0816327 0.571429 0
0.0816327 0.55102 0
0.0816327 0.530612 0
0.0816327 0.510204 0
0.0816327 0.489796 0
0.0816327 0.469388 0
0.0816327 0.44898 0
0.0816327 0.428571 0
0.0816327 0.408163 0
0.0816327 0.387755 0
0.0816327 0.367347 0
0.0816327 0.346939 0
0.0816327 0.326531 0
0.0816327 0.306122 0
0.0816327 0.285714 0
0.0816327 0.265306 0
0.0816327 0.244898 0
0.0816327 0.22449 0
0.0816327 0.204082 0
0.0816327 0.183673 0
0.0816327 0.163265 0
0.0816327 0.142857 0
0.0816327 0.122449 0
0.0816327 0.102041 0
0.0816327 0.0816327 0
0.0816327 0.0612245 0
0.0816327 0.0408163 0
0.0816327 0.0204082 0
0.102041 0.979592 0
0.102041 0.959184 0
0.102041 0.938776 0
0.102041 0.918367 0
0.102041 0.897959 0
0.102041 0.877551 0
0.102041 0.857143 0
0.102041 0.836735 0
0.102041 0.816327 0
0.102041 0.795918 0
0.102041 0.77551 0
0.102041 0.755102 0
0.102041 0.734694 0
0.102041 0.714286 0
0.102041 0.693878 0
0.102041 0.673469 0
0.102041 0.653061 0
0.102041 0.632653 0
0.102041 0.612245 0
0.102041 0.591837 0
0.102041 0.571429 0
0.102041 0.55102 0
0.102041 0.530612 0
0.102041 0.510204 0
0.102041 0.489796 0
0.102041 0.469388 0
0.102041 0.44898 0
0.102041 0.428571 0
0.102041 0.408163 0
0.102041 0.387755 0
0.102041 0.367347 0
0.102041 0.346939 0
0.102041 0.326531 0
0.102041 0.306122 0
0.102041 0.285714 0
0.102041 0.265306 0
0.102041 0.244898 0
0.102041 0.22449 0
0.102041 0.204082 0
0.102041 0.183673 0
0.102041 0.163265 0
0.102041 0.142857 0
0.102041 0.122449 0
0.102041 0.102041 0
0.102041 0.0816327 0
0.102041 0.0612245 0
0.102041 0.0408163 0
0.102041 0.0204082 0
0.122449 0.979592 0
0.122449 0.959184 0
0.122449 0.938776 0
0.122449 0.918367 0
0.122449 0.897959 0
0.122449 0.877551 0
0.122449 0.857143 0
0.122449 0.836735 0
0.122449 0.816327 0
0.122449 0.795918 0
0.122449 0.77551 0
0.122449 0.755102 0
0.122449 0.734694 0
0.122449 0.714286 0
0.122449 0.693878 0
0.122449 0.673469 0
0.122449 0.653061 0
0.122449 0.632653 0
0.122449 0.612245 0
0.122449 0.591837 0
0.122449 0.571429 0
0.122449 0.55102 0
0.122449 0.530612 0
0.122449 0.510204 0
0.122449 0.489796 0
0.122449 0.469388 0
0.122449 0.44898 0
0.122449 0.428571 0
0.122449 0.408163 0
0.122449 0.387755 0
0.122449 0.367347 0
0.122449 0.346939 0
0.122449 0.326531 0
0.122449 0.306122 0
0.122449 0.285714 0
0.122449 0.265306 0
0.122449 0.244898 0
0.122449 0.22449 0
0.122449 0.204082 0
0.122449 0.183673 0
0.122449 0.163265 0
0.122449 0.142857 0
0.122449 0.122449 0
0.122449 0.102041 0
0.122449 0.0816327 0
0.122449 0.0612245 0
0.122449 0.0408163 0
0.122449 0.0204082 0
0.142857 0.979592 0
0.142857 0.959184 0
0.142857 0.938776 0
0.142857 0.918367 0
0.142857 0.897959 0
0.142857 0.877551 0
0.142857 0.857143 0
0.142857 0.836735 0
0.142857 0.816327 0
0.142857 0.795918 0
0.142857 0.77551 0
0.142857 0.755102 0
0.142857 0.734694 0
0.142857 0.714286 0
0.142857 0.693878 0
0.142857 0.673469 0
0.142857 0.653061 0
0.142857 0.632653 0
0.142857 0.612245 0
0.142857 0.591837 0
0.142857 0.571429 0
0.142857 0.55102 0
0.142857 0.530612 0
0.142857 0.510204 0
0.142857 0.489796 0
0.142857 0.469388 0
0.142857 0.44898 0
0.142857 0.428571 0
0.142857 0.408163 0
0.142857 0.387755 0
0.142857 0.367347 0
0.142857 0.346939 0
0.142857 0.326531 0
0.142857 0.306122 0
0.142857 0.285714 0
0.142857 0.265306 0
0.142857 0.244898 0
0.142857 0.22449 0
0.142857 0.204082 0
0.142857 0.183673 0
0.142857 0.163265 0
0.142857 0.142857 0
0.142857 0.122449 0
0.142857 0.102041 0
0.142857 0.0816327 0
0.142857 0.0612245 0
0.142857 0.0408163 0
0.142857 0.0204082 0
0.163265 0.979592 0
0.163265 0.959184 0
0.163265 0.938776 0
0.163265 0.918367 0
0.163265 0.897959 0
0.163265 0.877551 0
0.163265 0.857143 0
0.163265 0.836735 0
0.163265 0.816327 0
0.163265 0.795918 0
0.163265 0.77551 0
0.163265 0.755102 0
0.163265 0.734694 0
0.163265 0.714286 0
0.163265 0.693878 0
0.163265 0.673469 0
0.163265 0.653061 0
0.163265 0.632653 0
0.163265 0.612245 0
0.163265 0.591837 0
0.163265 0.571429 0
0.163265 0.55102 0
[...]
CELL_DATA 2401
VECTORS velocity double
0.25735 0.157458 0
-0.00261001 0.264729 0
-0.032134 0.205985 0
-0.0251932 0.151558 0
-0.0159125 0.114407 0
-0.00962861 0.0892595 0
-0.00593494 0.0721736 0
-0.00382344 0.0602458 0
-0.00259816 0.0515998 0
-0.00186146 0.0450941 0
-0.00139862 0.0400278 0
-0.0010947 0.0359599 0
-0.000887001 0.032604 0
-0.000740114 0.0297689 0
-0.000633163 0.0273229 0
-0.000553287 0.0251737 0
-0.000492232 0.0232552 0
-0.000444516 0.0215194 0
-0.000406392 0.0199312 0
-0.000375241 0.0184643 0
-0.000349207 0.0170995 0
-0.000326954 0.0158221 0
-0.000307519 0.014621 0
-0.000290206 0.013488 0
-0.000274513 0.0124164 0
-0.000260077 0.0114013 0
-0.000246641 0.0104386 0
-0.00023402 0.00952492 0
-0.000222083 0.00865764 0
-0.000210733 0.00783438 0
-0.000199895 0.00705314 0
-0.000189504 0.00631215 0
-0.000179497 0.00560992 0
-0.000169805 0.0049452 0
-0.000160348 0.00431702 0
-0.000151029 0.00372474 0
-0.000141727 0.00316812 0
-0.000132293 0.00264736 0
-0.000122545 0.00216322 0
-0.000112259 0.0017171 0
-0.000101159 0.00131117 0
-8.89095e-05 0.000948407 0
-7.5106e-05 0.000632754 0
-5.92925e-05 0.000369096 0
-4.10399e-05 0.000163125 0
-2.02498e-05 2.07925e-05 0
1.97868e-06 -5.32707e-05 0
2.14861e-05 -6.13168e-05 0
2.49986e-05 -2.49107e-05 0
0.340753 0.123056 0
-0.000113053 0.249958 0
-0.0645046 0.272899 0
-0.0625434 0.254161 0
-0.0480324 0.22418 0
-0.0348287 0.194498 0
-0.0251698 0.168837 0
-0.0185086 0.14769 0
-0.0139635 0.13049 0
-0.0108328 0.116458 0
-0.00863727 0.104885 0
-0.00706576 0.0951991 0
-0.0059177 0.0869604 0
-0.00506251 0.0798381 0
-0.00441357 0.0735851 0
-0.00391222 0.0680167 0
-0.00351789 0.0629947 0
-0.00320202 0.0584151 0
-0.0029442 0.0541994 0
-0.00272962 0.0502882 0
-0.00254748 0.0466365 0
-0.00238982 0.0432097 0
-0.00225079 0.0399814 0
-0.00212604 0.036931 0
-0.00201241 0.0340426 0
-0.00190755 0.0313036 0
-0.00180976 0.0287037 0
-0.00171778 0.0262346 0
-0.00163069 0.0238893 0
-0.00154779 0.0216617 0
-0.0014685 0.0195468 0
-0.00139232 0.0175401 0
-0.00131876 0.0156377 0
-0.0012473 0.0138365 0
-0.00117736 0.0121343 0
-0.00110824 0.0105294 0
-0.00103913 0.00902138 0
-0.00096907 0.0076108 0
-0.00089694 0.00629965 0
-0.000821445 0.00509138 0
-0.000741127 0.00399108 0
-0.000654397 0.00300556 0
-0.000559641 0.00214331 0
-0.000455472 0.00141411 0
-0.000341317 0.000828224 0
-0.000218822 0.000394651 0
-9.49002e-05 0.000117319 0
1.29288e-05 -1.20872e-05 0
6.10711e-05 -2.09458e-05 0
0.501383 0.0769519 0
0.100321 0.183969 0
-0.0378488 0.250803 0
-0.0720908 0.267975 0
-0.0711167 0.260031 0
-0.0606232 0.24215 0
-0.0492641 0.221525 0
-0.0395405 0.201439 0
-0.0318545 0.183155 0
-0.0259614 0.166974 0
-0.0214851 0.152788 0
-0.0180819 0.140347 0
-0.0154782 0.129372 0
-0.0134675 0.119611 0
-0.0118969 0.110847 0
-0.0106545 0.102903 0
-0.00965748 0.095636 0
-0.00884505 0.088935 0
-0.00817193 0.0827116 0
-0.00760438 0.0768972 0
-0.00711718 0.0714381 0
-0.0066914 0.0662925 0
-0.00631289 0.0614277 0
-0.00597106 0.056818 0
-0.00565804 0.052443 0
-0.00536798 0.0482864 0
-0.00509657 0.0443347 0
-0.00484062 0.0405769 0
-0.00459773 0.0370035 0
-0.00436604 0.0336063 0
-0.00414402 0.0303783 0
-0.00393032 0.0273133 0
-0.00372361 0.024406 0
-0.00352244 0.021652 0
-0.00332523 0.0190481 0
-0.00313011 0.0165923 0
-0.00293492 0.0142837 0
-0.00273715 0.0121232 0
-0.00253394 0.0101137 0
-0.00232209 0.00825964 0
-0.00209815 0.00656792 0
-0.00185861 0.00504735 0
-0.00160027 0.00370859 0
-0.00132103 0.00256347 0
-0.00102129 0.00162382 0
-0.000706772 0.000899308 0
-0.000393804 0.000392842 0
-0.000116863 9.5956e-05 0
5.18115e-05 -9.67828e-07 0
0.61097 0.048202 0
0.197602 0.134703 0
0.0136017 0.21086 0
-0.0563073 0.248372 0
-0.0753382 0.258951 0
-0.0743213 0.255025 0
-0.0664866 0.243728 0
-0.0572585 0.229321 0
-0.0486843 0.214125 0
-0.0413843 0.199293 0
-0.0354068 0.185329 0
-0.0305969 0.1724 0
-0.0267504 0.160504 0
-0.0236726 0.149564 0
-0.0211977 0.139476 0
-0.0191914 0.130135 0
-0.0175475 0.121443 0
-0.0161834 0.113316 0
-0.0150348 0.105685 0
-0.0140524 0.0984911 0
-0.0131984 0.0916882 0
-0.0124438 0.0852387 0
-0.0117664 0.0791124 0
-0.0111496 0.0732851 0
-0.0105808 0.0677372 0
-0.0100507 0.0624528 0
-0.00955233 0.0574183 0
-0.00908043 0.0526223 0
-0.0086311 0.0480549 0
-0.00820128 0.0437075 0
-0.00778839 0.0395721 0
-0.00739012 0.035642 0
-0.00700412 0.0319112 0
-0.0066279 0.0283748 0
-0.00625862 0.0250289 0
-0.00589298 0.0218712 0
-0.00552717 0.0189008 0
-0.00515682 0.0161187 0
-0.004777 0.0135279 0
-0.00438232 0.0111335 0
-0.00396714 0.00894314 0
-0.00352593 0.00696635 0
-0.00305404 0.00521461 0
-0.00254892 0.00370045 0
-0.00201228 0.00243629 0
-0.00145396 0.00143271 0
-0.000898169 0.00069376 0
-0.000391703 0.000216378 0
-2.32143e-05 2.12226e-05 0
0.68175 0.0302889 0
0.280949 0.0987741 0
0.0722465 0.172039 0
-0.0256667 0.21868 0
-0.0649466 0.241784 0
-0.0762691 0.249336 0
-0.0752026 0.24724 0
-0.069264 0.23963 0
-0.0619497 0.229156 0
-0.0547968 0.217414 0
-0.0484017 0.205323 0
-0.0429228 0.193384 0
-0.0383265 0.181852 0
-0.0345059 0.170837 0
-0.0313358 0.160369 0
-0.0286969 0.150439 0
-0.0264846 0.141017 0
-0.0246111 0.13207 0
-0.0230049 0.123559 0
-0.0216087 0.115453 0
-0.0203771 0.107723 0
-0.0192745 0.100344 0
-0.0182735 0.0932955 0
-0.0173529 0.0865605 0
-0.0164968 0.0801245 0
-0.0156931 0.0739753 0
-0.014933 0.0681021 0
-0.0142096 0.0624955 0
-0.013518 0.057147 0
-0.012854 0.0520485 0
-0.0122144 0.0471929 0
-0.0115959 0.0425735 0
-0.0109953 0.0381844 0
-0.010409 0.0340205 0
-0.0098328 0.030078 0
-0.00926201 0.0263542 0
-0.00869103 0.0228482 0
-0.00811349 0.0195608 0
-0.00752229 0.0164951 0
-0.00690977 0.0136562 0
-0.00626802 0.0110518 0
-0.00558955 0.00869165 0
-0.00486823 0.00658725 0
-0.00410101 0.00475145 0
-0.0032905 0.00319743 0
-0.00244916 0.00193771 0
-0.00160582 0.000979738 0
-0.000813039 0.000329328 0
-0.00016361 4.10387e-05 0
0.731421 0.0192646 0
0.351838 0.0733823 0
0.130683 0.13978 0
0.0127685 0.188464 0
-0.0448345 0.219029 0
-0.0690475 0.234748 0
-0.076294 0.24018 0
-0.0753846 0.23884 0
-0.0709141 0.233269 0
-0.0652172 0.22519 0
-0.0594293 0.215723 0
-0.054058 0.205581 0
-0.0492885 0.195201 0
-0.0451473 0.184846 0
-0.0415879 0.17467 0
-0.0385357 0.164756 0
-0.0359104 0.155146 0
-0.0336361 0.145861 0
-0.0316462 0.136905 0
-0.0298842 0.128277 0
-0.0283038 0.119971 0
-0.0268677 0.111983 0
-0.0255466 0.104305 0
-0.0243176 0.0969305 0
-0.0231633 0.0898544 0
-0.0220705 0.0830706 0
-0.0210296 0.0765733 0
-0.0200332 0.0703568 0
-0.0190759 0.0644151 0
-0.0181532 0.0587424 0
-0.0172614 0.0533329 0
-0.0163967 0.0481808 0
-0.0155553 0.0432809 0
-0.0147326 0.0386284 0
-0.0139233 0.0342195 0
-0.0131213 0.0300515 0
-0.0123192 0.0261234 0
-0.0115086 0.0224358 0
-0.0106804 0.0189915 0
-0.00982447 0.0157954 0
-0.00893077 0.0128549 0
-0.00798969 0.0101795 0
-0.00699348 0.00778074 0
-0.00593807 0.00567188 0
-0.00482586 0.00386738 0
-0.00366991 0.00238272 0
-0.00249976 0.00123037 0
-0.00136761 0.000426328 0
-0.000361025 5.7129e-05 0
0.767542 0.0126041 0
0.411326 0.0557484 0
0.185402 0.114376 0
0.0535073 0.161777 0
-0.0189716 0.19569 0
-0.0552702 0.216702 0
-0.0712295 0.227701 0
-0.076245 0.231503 0
-0.0756398 0.230328 0
-0.0723655 0.225822 0
-0.0680236 0.219153 0
-0.0634525 0.211129 0
-0.0590646 0.202301 0
-0.0550384 0.193036 0
-0.0514273 0.183579 0
-0.0482209 0.174093 0
-0.0453795 0.164683 0
-0.0428527 0.15542 0
-0.0405894 0.14635 0
-0.0385425 0.137506 0
-0.0366712 0.128907 0
-0.0349415 0.120569 0
-0.033326 0.112502 0
-0.0318033 0.104713 0
-0.0303569 0.0972051 0
-0.0289745 0.0899816 0
-0.0276472 0.0830429 0
-0.0263682 0.0763882 0
-0.0251326 0.0700155 0
-0.0239365 0.0639217 0
-0.0227762 0.0581031 0
-0.0216481 0.0525554 0
-0.0205479 0.0472743 0
-0.0194706 0.0422555 0
-0.0184098 0.0374955 0
-0.0173582 0.0329918 0
-0.0163069 0.0287429 0
-0.0152455 0.0247493 0
-0.0141628 0.0210134 0
-0.0130465 0.0175396 0
-0.0118841 0.0143349 0
-0.0106638 0.0114084 0
-0.00937579 0.00877197 0
-0.00801427 0.00643934 0
-0.00658002 0.00442679 0
-0.00508433 0.00275347 0
-0.00355388 0.00143749 0
-0.00203548 0.000504886 0
-0.000605176 6.94873e-05 0
0.79452 0.00855951 0
0.461129 0.0433735 0
0.235241 0.094573 0
0.0939861 0.139182 0
0.0100572 0.173774 0
-0.0371199 0.197979 0
-0.0615568 0.212848 0
-0.0728089 0.220605 0
-0.0766299 0.22308 0
-0.0764144 0.221747 0
-0.0741353 0.217727 0
-0.0709182 0.211845 0
-0.0673873 0.204702 0
-0.0638725 0.196726 0
-0.0605335 0.188224 0
-0.0574339 0.179416 0
-0.0545844 0.170459 0
-0.0519693 0.161466 0
-0.0495607 0.152522 0
-0.0473277 0.143688 0
-0.0452405 0.135011 0
-0.0432731 0.126525 0
-0.0414037 0.118259 0
-0.0396153 0.110233 0
-0.0378949 0.102462 0
-0.0362332 0.0949587 0
-0.0346234 0.0877298 0
-0.0330609 0.0807806 0
-0.0315427 0.0741133 0
-0.0300659 0.0677284 0
-0.028628 0.0616245 0
-0.0272258 0.055799 0
-0.0258554 0.0502488 0
-0.0245115 0.0449704 0
-0.0231873 0.0399605 0
-0.0218741 0.0352164 0
-0.0205618 0.0307367 0
-0.0192383 0.0265213 0
-0.0178902 0.0225721 0
-0.0165031 0.0188929 0
-0.015062 0.0154904 0
-0.0135526 0.0123734 0
-0.0119625 0.00955384 0
-0.0102831 0.00704642 0
-0.00851218 0.00486946 0
-0.00665707 0.00304594 0
-0.00473863 0.00159958 0
-0.00279463 0.000565255 0
-0.000885775 7.85364e-05 0
0.815305 0.00605738 0
0.503052 0.0345345 0
0.280053 0.0791373 0
0.132779 0.120406 0
0.0399404 0.15437 0
-0.0163631 0.180009 0
-0.0486407 0.197409 0
-0.0660546 0.208048 0
-0.0745273 0.213404 0
-0.0777383 0.214735 0
-0.0779378 0.213061 0
-0.0764855 0.209176 0
-0.0741897 0.203685 0
-0.07152 0.197043 0
-0.0687399 0.189593 0
-0.0659882 0.181591 0
-0.0633305 0.173234 0
-0.0607904 0.164667 0
-0.0583685 0.156007 0
-0.0560547 0.14734 0
-0.0538345 0.138737 0
-0.0516934 0.130253 0
-0.0496187 0.12193 0
-0.0476005 0.113805 0
-0.0456316 0.105904 0
-0.0437074 0.0982464 0
-0.0418256 0.090849 0
-0.0399849 0.0837223 0
-0.0381849 0.0768731 0
-0.0364255 0.0703052 0
-0.0347058 0.0640201 0
-0.0330239 0.0580169 0
-0.0313767 0.0522936 0
-0.0297591 0.0468475 0
-0.028164 0.0416754 0
-0.0265821 0.0367747 0
-0.0250021 0.0321434 0
-0.0234102 0.0277812 0
-0.0217912 0.0236891 0
-0.0201281 0.0198705 0
-0.0184036 0.0163314 0
-0.0166003 0.0130805 0
-0.0147027 0.0101299 0
-0.0126985 0.00749533 0
-0.010581 0.00519718 0
-0.00835187 0.003262 0
-0.00602382 0.00171849 0
-0.00362315 0.000608842 0
-0.00119331 8.47814e-05 0
0.831792 0.0044683 0
0.538633 0.0280881 0
0.320159 0.0670101 0
0.169306 0.10484 0
0.0696509 0.137469 0
0.00588093 0.163361 0
-0.0335344 0.182328 0
-0.0568333 0.194984 0
-0.0699643 0.202535 0
-0.0767727 0.206022 0
-0.0797048 0.206342 0
-0.0803022 0.204229 0
-0.0795261 0.200264 0
-0.0779686 0.194905 0
-0.0759879 0.188509 0
-0.073795 0.181356 0
-0.07151 0.173665 0
-0.0691975 0.165608 0
-0.0668891 0.157325 0
-0.0645982 0.148925 0
-0.0623286 0.140499 0
-0.0600801 0.132118 0
-0.0578516 0.123843 0
-0.0556427 0.115719 0
-0.0534541 0.107786 0
-0.0512881 0.100073 0
-0.0491478 0.0926023 0
-0.0470372 0.0853912 0
-0.0449599 0.078451 0
-0.0429191 0.071789 0
-0.0409165 0.0654091 0
-0.0389524 0.0593121 0
-0.037025 0.0534972 0
-0.0351299 0.0479621 0
-0.0332602 0.0427038 0
-0.0314061 0.0377194 0
-0.0295553 0.0330065 0
-0.0276927 0.028564 0
-0.0258009 0.0243923 0
-0.0238608 0.0204941 0
-0.021852 0.0168747 0
-0.019754 0.0135426 0
-0.0175475 0.0105102 0
-0.0152156 0.00779402 0
-0.0127461 0.00541627 0
-0.0101333 0.00340657 0
-0.00738032 0.00179772 0
-0.0045005 0.000637468 0
-0.00151933 8.86958e-05 0
0.845196 0.00342654 0
0.569102 0.023285 0
0.356024 0.0573885 0
0.203338 0.0919277 0
0.0985077 0.122884 0
0.028538 0.148412 0
-0.0170841 0.168109 0
-0.0458536 0.182111 0
-0.0635058 0.191277 0
-0.0739442 0.196457 0
-0.0797408 0.198421 0
-0.0825711 0.197826 0
-0.0835187 0.195217 0
-0.0832784 0.191035 0
-0.0822915 0.185638 0
-0.0808348 0.179316 0
-0.07908 0.172301 0
-0.0771316 0.164784 0
-0.0750528 0.156923 0
-0.0728817 0.148844 0
-0.0706422 0.140655 0
-0.0683503 0.132444 0
-0.0660184 0.124283 0
-0.0636576 0.116233 0
-0.0612784 0.10834 0
-0.0588916 0.100643 0
-0.0565076 0.0931717 0
-0.0541365 0.0859489 0
-0.0517874 0.0789902 0
-0.0494677 0.0723059 0
-0.0471829 0.0659021 0
-0.0449359 0.0597815 0
-0.0427268 0.0539437 0
-0.0405526 0.0483869 0
-0.0384068 0.043108 0
-0.0362795 0.0381035 0
-0.0341575 0.0333706 0
-0.0320245 0.028907 0
-0.0298611 0.0247126 0
-0.0276457 0.020789 0
-0.025355 0.017141 0
-0.0229647 0.0137767 0
-0.0204511 0.0107084 0
-0.0177922 0.00795339 0
-0.0149691 0.00553524 0
-0.0119679 0.00348591 0
-0.00878099 0.00184129 0
-0.00540801 0.000652988 0
-0.00185646 9.06861e-05 0
0.856328 0.00271874 0
0.595432 0.0196282 0
0.388149 0.0496665 0
0.23488 0.0811632 0
0.126182 0.110307 0
0.0510809 0.135114 0
0.000138888 0.154954 0
-0.0336687 0.169809 0
-0.0556272 0.180119 0
-0.0696379 0.186598 0
-0.078343 0.189885 0
-0.0835119 0.190561 0
-0.0863216 0.189122 0
-0.0875503 0.185985 0
-0.0877098 0.181498 0
-0.0871346 0.175951 0
-0.086043 0.169584 0
-0.0845771 0.1626 0
-0.0828306 0.155167 0
-0.0808665 0.14743 0
-0.0787293 0.139508 0
-0.0764527 0.131502 0
-0.0740639 0.123498 0
-0.0715872 0.115565 0
-0.0690444 0.107762 0
-0.0664562 0.100133 0
-0.0638419 0.0927158 0
-0.0612191 0.0855371 0
-0.0586033 0.0786166 0
-0.0560073 0.0719678 0
-0.0534411 0.0655985 0
-0.050911 0.0595124 0
-0.0484197 0.0537099 0
-0.0459657 0.048189 0
-0.0435436 0.0429462 0
-0.0411436 0.0379775 0
-0.0387519 0.0332788 0
-0.0363507 0.0288472 0
-0.033919 0.0246812 0
-0.0314323 0.0207817 0
-0.0288643 0.0171524 0
-0.0261866 0.013801 0
-0.0233707 0.0107394 0
-0.0203886 0.00798536 0
-0.0172143 0.00556326 0
-0.0138248 0.00350657 0
-0.0102011 0.00185318 0
-0.00632898 0.000657112 0
-0.00219836 9.10848e-05 0
0.865738 0.00221984 0
0.618388 0.0167868 0
0.417008 0.0433959 0
0.264045 0.0721335 0
0.152508 0.099454 0
0.0731731 0.123338 0
0.0176456 0.142968 0
-0.0207079 0.158266 0
-0.0467147 0.169356 0
-0.0641846 0.176803 0
-0.0757829 0.181134 0
-0.0833391 0.18285 0
-0.0880987 0.182398 0
-0.0909052 0.180164 0
-0.0923281 0.17648 0
-0.0927508 0.171631 0
-0.0924325 0.165859 0
-0.0915494 0.159374 0
-0.0902235 0.152353 0
-0.0885422 0.144952 0
-0.0865708 0.137302 0
-0.0843609 0.129515 0
-0.0819561 0.121688 0
-0.0793945 0.1139 0
-0.0767111 0.106217 0
-0.0739379 0.0986924 0
-0.071104 0.0913679 0
-0.068236 0.0842754 0
-0.0653569 0.0774378 0
-0.062486 0.0708709 0
-0.0596384 0.064584 0
-0.0568246 0.0585814 0
-0.0540503 0.0528636 0
-0.0513164 0.0474283 0
-0.0486184 0.0422712 0
-0.0459469 0.0373872 0
-0.0432878 0.0327713 0
-0.0406221 0.0284191 0
-0.0379266 0.0243279 0
-0.0351745 0.0204974 0
-0.0323356 0.0169303 0
-0.0293776 0.0136332 0
-0.0262666 0.0106179 0
-0.0229682 0.00790161 0
-0.0194487 0.00550918 0
-0.0156755 0.00347468 0
-0.0116182 0.00183704 0
-0.0072486 0.000651316 0
-0.00253952 9.01542e-05 0
0.873813 0.0018556 0
0.638569 0.0145373 0
0.443025 0.0382457 0
0.290994 0.0645081 0
0.177426 0.0900646 0
0.0946035 0.11292 0
0.0350746 0.132147 0
-0.00731689 0.147562 0
-0.0370888 0.159153 0
-0.0578664 0.167293 0
-0.072301 0.172425 0
-0.0822522 0.174975 0
-0.0890114 0.175336 0
-0.0934706 0.173864 0
-0.0962446 0.17087 0
-0.097757 0.166631 0
-0.0983016 0.161387 0
-0.0980844 0.15535 0
-0.0972536 0.148706 0
-0.0959193 0.141617 0
-0.0941671 0.134227 0
-0.0920672 0.126656 0
-0.0896798 0.119012 0
-0.0870587 0.11138 0
-0.0842524 0.103837 0
-0.0813058 0.0964395 0
-0.0782594 0.0892359 0
-0.0751495 0.0822615 0
-0.072008 0.0755421 0
-0.0688613 0.0690949 0
-0.0657307 0.0629303 0
-0.0626314 0.0570528 0
-0.0595729 0.0514625 0
-0.0565582 0.0461562 0
-0.0535847 0.0411286 0
-0.0506435 0.0363733 0
-0.04772 0.0318837 0
-0.0447941 0.027654 0
-0.0418406 0.0236798 0
-0.03883 0.0199595 0
-0.0357283 0.0164945 0
-0.0324989 0.0132902 0
-0.0291022 0.0103574 0
-0.0254972 0.00771289 0
-0.021642 0.005381 0
-0.0174945 0.0033957 0
-0.0130124 0.00179599 0
-0.00815375 0.000636818 0
-0.00287519 8.80933e-05 0
0.880831 0.0015809 0
0.656448 0.0127254 0
0.466572 0.033968 0
0.315908 0.0580195 0
0.200949 0.081903 0
0.115264 0.103683 0
0.0522668 0.122376 0
0.00631505 0.137665 0
-0.0269816 0.149556 0
-0.0509102 0.158175 0
-0.068103 0.16391 0
-0.0804305 0.167112 0
-0.0892119 0.16813 0
-0.0953731 0.167285 0
-0.0995628 0.164868 0
-0.102236 0.161145 0
-0.103715 0.156352 0
-0.104232 0.150703 0
-0.103957 0.144388 0
-0.103022 0.137579 0
-0.101533 0.130424 0
-0.0995769 0.123056 0
-0.0972328 0.115588 0
-0.0945701 0.108116 0
-0.0916527 0.10072 0
-0.0885391 0.0934657 0
-0.0852824 0.0864033 0
-0.0819302 0.0795718 0
-0.0785237 0.0729991 0
-0.0750979 0.0667035 0
-0.0716806 0.0606955 0
-0.0682924 0.0549794 0
-0.064947 0.0495544 0
-0.0616503 0.044416 0
-0.0584013 0.0395574 0
-0.0551918 0.0349705 0
-0.0520071 0.0306469 0
-0.0488259 0.026579 0
-0.045621 0.0227608 0
-0.0423598 0.0191887 0
-0.0390049 0.0158626 0
-0.0355146 0.0127866 0
-0.0318437 0.00997001 0
-0.0279445 0.00742856 0
-0.0237666 0.00518563 0
-0.0192582 0.00327423 0
-0.0143653 0.00173261 0
-0.0090327 0.000614581 0
-0.00320118 8.50465e-05 0
0.886996 0.00136763 0
0.672397 0.0112427 0
0.487965 0.0303765 0
0.338966 0.0524561 0
0.223117 0.0747755 0
0.135088 0.0954818 0
0.0690663 0.113564 0
0.0198909 0.128614 0
-0.0166001 0.140585 0
-0.0435069 0.149507 0
-0.0633662 0.15567 0
-0.0780339 0.159366 0
-0.088841 0.160896 0
-0.0967343 0.16055 0
-0.102386 0.158601 0
-0.106275 0.155299 0
-0.108745 0.150878 0
-0.110049 0.145551 0
-0.110379 0.139513 0
-0.109885 0.13294 0
-0.108691 0.125991 0
-0.106904 0.118804 0
-0.104621 0.1115 0
-0.101927 0.104184 0
-0.0989034 0.0969392 0
-0.0956234 0.0898367 0
-0.0921537 0.0829309 0
-0.0885541 0.0762627 0
-0.0848766 0.0698611 0
-0.0811651 0.063745 0
-0.0774548 0.0579244 0
-0.0737726 0.0524026 0
-0.0701363 0.0471774 0
-0.0665552 0.0422425 0
-0.0630302 0.0375893 0
-0.0595539 0.0332076 0
-0.0561114 0.0290869 0
-0.0526801 0.0252175 0
-0.0492309 0.0215912 0
-0.0457281 0.0182027 0
-0.0421304 0.0150499 0
-0.0383914 0.012135 0
-0.0344601 0.0094659 0
-0.0302814 0.00705654 0
-0.0257971 0.00492879 0
-0.0209452 0.00311401 0
-0.0156607 0.00164891 0
-0.00987487 0.000585335 0
-0.00351373 8.11129e-05 0
0.892459 0.00119758 0
0.686714 0.0100107 0
0.507473 0.0273272 0
0.360337 0.0476446 0
0.243996 0.0685081 0
0.154057 0.0881581 0
0.0854041 0.105576 0
0.0333249 0.120294 0
-0.0061047 0.132209 0
-0.0358225 0.141289 0
-0.0582467 0.14773 0
-0.0752061 0.151778 0
-0.0880287 0.153691 0
-0.0976699 0.153726 0
-0.104816 0.152137 0
-0.10996 0.149164 0
-0.113465 0.145034 0
-0.115598 0.139961 0
-0.116569 0.134144 0
-0.116545 0.127763 0
-0.11567 0.120984 0
-0.114068 0.113953 0
-0.111854 0.106799 0
-0.109132 0.0996305 0
-0.106 0.092538 0
-0.102548 0.0855952 0
-0.0988569 0.0788594 0
-0.0950003 0.0723728 0
-0.0910417 0.0661651 0
-0.0870348 0.0602546 0
-0.083023 0.0546503 0
-0.0790395 0.0493539 0
-0.0751071 0.0443611 0
-0.0712383 0.0396636 0
-0.0674361 0.0352502 0
-0.0636942 0.0311083 0
-0.0599972 0.0272252 0
-0.0563215 0.0235887 0
-0.0526357 0.0201884 0
-0.0489011 0.0170166 0
-0.0450725 0.0140691 0
-0.0410984 0.0113462 0
-0.0369221 0.00885367 0
-0.0324815 0.0066034 0
-0.0277098 0.00461515 0
-0.0225359 0.00291802 0
-0.0168832 0.00154648 0
-0.0106706 0.000549614 0
-0.00380941 7.63552e-05 0
0.897337 0.00105849 0
0.699635 0.00897129 0
0.525321 0.0247076 0
0.380172 0.0434429 0
0.263649 0.0629522 0
0.17216 0.0815728 0
0.101213 0.0982938 0
0.0465144 0.112608 0
0.00440807 0.124338 0
-0.0279826 0.133471 0
-0.0528753 0.140066 0
-0.0720738 0.144344 0
-0.0868935 0.146521 0
-0.0982883 0.146828 0
-0.106949 0.1455 0
-0.113379 0.142765 0
-0.117949 0.138847 0
-0.120941 0.13396 0
-0.122579 0.128305 0
-0.123045 0.12207 0
-0.122501 0.115427 0
-0.12109 0.108527 0
-0.118945 0.101507 0
-0.116189 0.094479 0
-0.112939 0.0875393 0
-0.109303 0.0807639 0
-0.105377 0.0742116 0
-0.101249 0.0679255 0
-0.096995 0.0619345 0
-0.09268 0.0562559 0
-0.0883556 0.0508967 0
-0.0840619 0.0458564 0
-0.0798266 0.0411281 0
-0.0756661 0.0367008 0
-0.0715853 0.0325605 0
-0.0675788 0.028692 0
-0.0636309 0.0250797 0
-0.0597168 0.0217089 0
-0.0558028 0.0185667 0
-0.0518472 0.015643 0
-0.0478006 0.0129312 0
-0.0436067 0.0104292 0
-0.0392027 0.0081405 0
-0.0345198 0.00607453 0
-0.0294831 0.00424849 0
-0.0240118 0.0026886 0