# vtk DataFile Version 3.0
Malha 2D com triângulos e temperatura
ASCII
DATASET UNSTRUCTURED_GRID

POINTS 2500 double
0 0 0
1 0 0
1 1 0
0 1 0
0.0204082 0 0
0.0408163 0 0
0.0612245 0 0
0.0816327 0 0
0.102041 0 0
0.122449 0 0
0.142857 0 0
0.163265 0 0
0.183673 0 0
0.204082 0 0
0.22449 0 0
0.244898 0 0
0.265306 0 0
0.285714 0 0
0.306122 0 0
0.326531 0 0
0.346939 0 0
0.367347 0 0
0.387755 0 0
0.408163 0 0
0.428571 0 0
0.44898 0 0
0.469388 0 0
0.489796 0 0
0.510204 0 0
0.530612 0 0
0.55102 0 0
0.571429 0 0
0.591837 0 0
0.612245 0 0
0.632653 0 0
0.653061 0 0
0.673469 0 0
0.693878 0 0
0.714286 0 0
0.734694 0 0
0.755102 0 0
0.77551 0 0
0.795918 0 0
0.816327 0 0
0.836735 0 0
0.857143 0 0
0.877551 0 0
0.897959 0 0
0.918367 0 0
0.938776 0 0
0.959184 0 0
0.979592 0 0
1 0.0204082 0
1 0.0408163 0
1 0.0612245 0
1 0.0816327 0
1 0.102041 0
1 0.122449 0
1 0.142857 0
1 0.163265 0
1 0.183673 0
1 0.204082 0
1 0.22449 0
1 0.244898 0
1 0.265306 0
1 0.285714 0
1 0.306122 0
1 0.326531 0
1 0.346939 0
1 0.367347 0
1 0.387755 0
1 0.408163 0
1 0.428571 0
1 0.44898 0
1 0.469388 0
1 0.489796 0
1 0.510204 0
1 0.530612 0
1 0.55102 0
1 0.571429 0
1 0.591837 0
1 0.612245 0
1 0.632653 0
1 0.653061 0
1 0.673469 0
1 0.693878 0
1 0.714286 0
1 0.734694 0
1 0.755102 0
1 0.77551 0
1 0.795918 0
1 0.816327 0
1 0.836735 0
1 0.857143 0
1 0.877551 0
1 0.897959 0
1 0.918367 0
1 0.938776 0
1 0.959184 0
1 0.979592 0
0.979592 1 0
0.959184 1 0
0.938776 1 0
0.918367 1 0
0.897959 1 0
0.877551 1 0
0.857143 1 0
0.836735 1 0
0.816327 1 0
0.795918 1 0
0.77551 1 0
0.755102 1 0
0.734694 1 0
0.714286 1 0
0.693878 1 0
0.673469 1 0
0.653061 1 0
0.632653 1 0
0.612245 1 0
0.591837 1 0
0.571429 1 0
0.55102 1 0
0.530612 1 0
0.510204 1 0
0.489796 1 0
0.469388 1 0
0.44898 1 0
0.428571 1 0
0.408163 1 0
0.387755 1 0
0.367347 1 0
0.346939 1 0
0.326531 1 0
0.306122 1 0
0.285714 1 0
0.265306 1 0
0.244898 1 0
0.22449 1 0
0.204082 1 0
0.183673 1 0
0.163265 1 0
0.142857 1 0
0.122449 1 0
0.102041 1 0
0.0816327 1 0
0.0612245 1 0
0.0408163 1 0
0.0204082 1 0
0 0.979592 0
0 0.959184 0
0 0.938776 0
0 0.918367 0
0 0.897959 0
0 0.877551 0
0 0.857143 0
0 0.836735 0
0 0.816327 0
0 0.795918 0
0 0.77551 0
0 0.755102 0
0 0.734694 0
0 0.714286 0
0 0.693878 0
0 0.673469 0
0 0.653061 0
0 0.632653 0
0 0.612245 0
0 0.591837 0
0 0.571429 0
0 0.55102 0
0 0.530612 0
0 0.510204 0
0 0.489796 0
0 0.469388 0
0 0.44898 0
0 0.428571 0
0 0.408163 0
0 0.387755 0
0 0.367347 0
0 0.346939 0
0 0.326531 0
0 0.306122 0
0 0.285714 0
0 0.265306 0
0 0.244898 0
0 0.22449 0
0 0.204082 0
0 0.183673 0
0 0.163265 0
0 0.142857 0
0 0.122449 0
0 0.102041 0
0 0.0816327 0
0 0.0612245 0
0 0.0408163 0
0 0.0204082 0
0.0204082 0.979592 0
0.0204082 0.959184 0
0.0204082 0.938776 0
0.0204082 0.918367 0
0.0204082 0.897959 0
0.0204082 0.877551 0
0.0204082 0.857143 0
0.0204082 0.836735 0
0.0204082 0.816327 0
0.0204082 0.795918 0
0.0204082 0.77551 0
0.0204082 0.755102 0
0.0204082 0.734694 0
0.0204082 0.714286 0
0.0204082 0.693878 0
0.0204082 0.673469 0
0.0204082 0.653061 0
0.0204082 0.632653 0
0.0204082 0.612245 0
0.0204082 0.591837 0
0.0204082 0.571429 0
0.0204082 0.55102 0
0.0204082 0.530612 0
0.0204082 0.510204 0
0.0204082 0.489796 0
0.0204082 0.469388 0
0.0204082 0.44898 0
0.0204082 0.428571 0
0.0204082 0.408163 0
0.0204082 0.387755 0
0.0204082 0.367347 0
0.0204082 0.346939 0
0.0204082 0.326531 0
0.0204082 0.306122 0
0.0204082 0.285714 0
0.0204082 0.265306 0
0.0204082 0.244898 0
0.0204082 0.22449 0
0.0204082 0.204082 0
0.0204082 0.183673 0
0.0204082 0.163265 0
0.0204082 0.142857 0
0.0204082 0.122449 0
0.0204082 0.102041 0
0.0204082 0.0816327 0
0.0204082 0.0612245 0
0.0204082 0.0408163 0
0.0204082 0.0204082 0
0.0408163 0.979592 0
0.0408163 0.959184 0
0.0408163 0.938776 0
0.0408163 0.918367 0
0.0408163 0.897959 0
0.0408163 0.877551 0
0.0408163 0.857143 0
0.0408163 0.836735 0
0.0408163 0.816327 0
0.0408163 0.795918 0
0.0408163 0.77551 0
0.0408163 0.755102 0
0.0408163 0.734694 0
0.0408163 0.714286 0
0.0408163 0.693878 0
0.0408163 0.673469 0
0.0408163 0.653061 0
0.0408163 0.632653 0
0.0408163 0.612245 0
0.0408163 0.591837 0
0.0408163 0.571429 0
0.0408163 0.55102 0
0.0408163 0.530612 0
0.0408163 0.510204 0
0.0408163 0.489796 0
0.0408163 0.469388 0
0.0408163 0.44898 0
0.0408163 0.428571 0
0.0408163 0.408163 0
0.0408163 0.387755 0
0.0408163 0.367347 0
0.0408163 0.346939 0
0.0408163 0.326531 0
0.0408163 0.306122 0
0.0408163 0.285714 0
0.0408163 0.265306 0
0.0408163 0.244898 0
0.0408163 0.22449 0
0.0408163 0.204082 0
0.0408163 0.183673 0
0.0408163 0.163265 0
0.0408163 0.142857 0
0.0408163 0.122449 0
0.0408163 0.102041 0
0.0408163 0.0816327 0
0.0408163 0.0612245 0
0.0408163 0.0408163 0
0.0408163 0.0204082 0
0.0612245 0.979592 0
0.0612245 0.959184 0
0.0612245 0.938776 0
0.0612245 0.918367 0
0.0612245 0.897959 0
0.0612245 0.877551 0
0.0612245 0.857143 0
0.0612245 0.836735 0
0.0612245 0.816327 0
0.0612245 0.795918 0
0.0612245 0.77551 0
0.0612245 0.755102 0
0.0612245 0.734694 0
0.0612245 0.714286 0
0.0612245 0.693878 0
0.0612245 0.673469 0
0.0612245 0.653061 0
0.0612245 0.632653 0
0.0612245 0.612245 0
0.0612245 0.591837 0
0.0612245 0.571429 0
0.0612245 0.55102 0
0.0612245 0.530612 0
0.0612245 0.510204 0
0.0612245 0.489796 0
0.0612245 0.469388 0
0.0612245 0.44898 0
0.0612245 0.428571 0
0.0612245 0.408163 0
0.0612245 0.387755 0
0.0612245 0.367347 0
0.0612245 0.346939 0
0.0612245 0.326531 0
0.0612245 0.306122 0
0.0612245 0.285714 0
0.0612245 0.265306 0
0.0612245 0.244898 0
0.0612245 0.22449 0
0.0612245 0.204082 0
0.0612245 0.183673 0
0.0612245 0.163265 0
0.0612245 0.142857 0
0.0612245 0.122449 0
0.0612245 0.102041 0
0.0612245 0.0816327 0
0.0612245 0.0612245 0
0.0612245 0.0408163 0
0.0612245 0.0204082 0
0.0816327 0.979592 0
0.0816327 0.959184 0
0.0816327 0.938776 0
0.0816327 0.918367 0
0.0816327 0.897959 0
0.0816327 0.877551 0
0.0816327 0.857143 0
0.0816327 0.836735 0
0.0816327 0.816327 0
0.0816327 0.795918 0
0.0816327 0.77551 0
0.0816327 0.755102 0
0.0816327 0.734694 0
0.0816327 0.714286 0
0.0816327 0.693878 0
0.0816327 0.673469 0
0.0816327 0.653061 0
0.0816327 0.632653 0
0.0816327 0.612245 0
0.0816327 0.591837 0
0.0816327 0.571429 0
0.0816327 0.55102 0
0.0816327 0.530612 0
0.0816327 0.510204 0
0.0816327 0.489796 0
0.0816327 0.469388 0
0.0816327 0.44898 0
0.0816327 0.428571 0
0.0816327 0.408163 0
0.0816327 0.387755 0
0.0816327 0.367347 0
0.0816327 0.346939 0
0.0816327 0.326531 0
0.0816327 0.306122 0
0.0816327 0.285714 0
0.0816327 0.265306 0
0.0816327 0.244898 0
0.0816327 0.22449 0
0.0816327 0.204082 0
0.0816327 0.183673 0
0.0816327 0.163265 0
0.0816327 0.142857 0
0.0816327 0.122449 0
0.0816327 0.102041 0
0.0816327 0.0816327 0
0.0816327 0.0612245 0
0.0816327 0.0408163 0
0.0816327 0.0204082 0
0.102041 0.979592 0
0.102041 0.959184 0
0.102041 0.938776 0
0.102041 0.918367 0
0.102041 0.897959 0
0.102041 0.877551 0
0.102041 0.857143 0
0.102041 0.836735 0
0.102041 0.816327 0
0.102041 0.795918 0
0.102041 0.77551 0
0.102041 0.755102 0
0.102041 0.734694 0
0.102041 0.714286 0
0.102041 0.693878 0
0.102041 0.673469 0
0.102041 0.653061 0
0.102041 0.632653 0
0.102041 0.612245 0
0.102041 0.591837 0
0.102041 0.571429 0
0.102041 0.55102 0
0.102041 0.530612 0
0.102041 0.510204 0
0.102041 0.489796 0
0.102041 0.469388 0
0.102041 0.44898 0
0.102041 0.428571 0
0.102041 0.408163 0
0.102041 0.387755 0
0.102041 0.367347 0
0.102041 0.346939 0
0.102041 0.326531 0
0.102041 0.306122 0
0.102041 0.285714 0
0.102041 0.265306 0
0.102041 0.244898 0
0.102041 0.22449 0
0.102041 0.204082 0
0.102041 0.183673 0
0.102041 0.163265 0
0.102041 0.142857 0
0.102041 0.122449 0
0.102041 0.102041 0
0.102041 0.0816327 0
0.102041 0.0612245 0
0.102041 0.0408163 0
0.102041 0.0204082 0
0.122449 0.979592 0
0.122449 0.959184 0
0.122449 0.938776 0
0.122449 0.918367 0
0.122449 0.897959 0
0.122449 0.877551 0
0.122449 0.857143 0
0.122449 0.836735 0
0.122449 0.816327 0
0.122449 0.795918 0
0.122449 0.77551 0
0.122449 0.755102 0
0.122449 0.734694 0
0.122449 0.714286 0
0.122449 0.693878 0
0.122449 0.673469 0
0.122449 0.653061 0
0.122449 0.632653 0
0.122449 0.612245 0
0.122449 0.591837 0
0.122449 0.571429 0
0.122449 0.55102 0
0.122449 0.530612 0
0.122449 0.510204 0
0.122449 0.489796 0
0.122449 0.469388 0
0.122449 0.44898 0
0.122449 0.428571 0
0.122449 0.408163 0
0.122449 0.387755 0
0.122449 0.367347 0
0.122449 0.346939 0
0.122449 0.326531 0
0.122449 0.306122 0
0.122449 0.285714 0
0.122449 0.265306 0
0.122449 0.244898 0
0.122449 0.22449 0
0.122449 0.204082 0
0.122449 0.183673 0
0.122449 0.163265 0
0.122449 0.142857 0
0.122449 0.122449 0
0.122449 0.102041 0
0.122449 0.0816327 0
0.122449 0.0612245 0
0.122449 0.0408163 0
0.122449 0.0204082 0
0.142857 0.979592 0
0.142857 0.959184 0
0.142857 0.938776 0
0.142857 0.918367 0
0.142857 0.897959 0
0.142857 0.877551 0
0.142857 0.857143 0
0.142857 0.836735 0
0.142857 0.816327 0
0.142857 0.795918 0
0.142857 0.77551 0
0.142857 0.755102 0
0.142857 0.734694 0
0.142857 0.714286 0
0.142857 0.693878 0
0.142857 0.673469 0
0.142857 0.653061 0
0.142857 0.632653 0
0.142857 0.612245 0
0.142857 0.591837 0
0.142857 0.571429 0
0.142857 0.55102 0
0.142857 0.530612 0
0.142857 0.510204 0
0.142857 0.489796 0
0.142857 0.469388 0
0.142857 0.44898 0
0.142857 0.428571 0
0.142857 0.408163 0
0.142857 0.387755 0
0.142857 0.367347 0
0.142857 0.346939 0
0.142857 0.326531 0
0.142857 0.306122 0
0.142857 0.285714 0
0.142857 0.265306 0
0.142857 0.244898 0
0.142857 0.22449 0
0.142857 0.204082 0
0.142857 0.183673 0
0.142857 0.163265 0
0.142857 0.142857 0
0.142857 0.122449 0
0.142857 0.102041 0
0.142857 0.0816327 0
0.142857 0.0612245 0
0.142857 0.0408163 0
0.142857 0.0204082 0
0.163265 0.979592 0
0.163265 0.959184 0
0.163265 0.938776 0
0.163265 0.918367 0
0.163265 0.897959 0
0.163265 0.877551 0
0.163265 0.857143 0
0.163265 0.836735 0
0.163265 0.816327 0
0.163265 0.795918 0
0.163265 0.77551 0
0.163265 0.755102 0
0.163265 0.734694 0
0.163265 0.714286 0
0.163265 0.693878 0
0.163265 0.673469 0
0.163265 0.653061 0
0.163265 0.632653 0
0.163265 0.612245 0
0.163265 0.591837 0
0.163265 0.571429 0
0.163265 0.55102 0
[...]
CELL_DATA 2401
VECTORS velocity double
0.257353 0.157461 0.0
-0.00262752 0.264706 0.0
-0.032169 0.205886 0.0
-0.0252331 0.151366 0.0
-0.0159455 0.114129 0.0
-0.00964764 0.0889274 0.0
-0.00593814 0.0718292 0.0
-0.00381218 0.0599319 0.0
-0.00257541 0.0513531 0.0
-0.00183067 0.0449427 0.0
-0.00136305 0.0399903 0.0
-0.00105714 0.0360461 0.0
-0.000849708 0.0328161 0.0
-0.000704797 0.0301027 0.0
-0.000601056 0.0277699 0.0
-0.000525224 0.0257216 0.0
-0.000468719 0.0238895 0.0
-0.000425793 0.0222242 0.0
-0.000392489 0.02069 0.0
-0.000366027 0.0192609 0.0
-0.000344423 0.0179181 0.0
-0.00032625 0.0166478 0.0
-0.000310482 0.0154404 0.0
-0.000296379 0.0142889 0.0
-0.000283418 0.0131883 0.0
-0.000271232 0.0121354 0.0
-0.00025957 0.0111277 0.0
-0.000248269 0.0101635 0.0
-0.000237221 0.00924163 0.0
-0.000226363 0.00836123 0.0
-0.000215654 0.00752162 0.0
-0.000205068 0.00672227 0.0
-0.000194578 0.00596279 0.0
-0.000184154 0.00524289 0.0
-0.00017375 0.00456245 0.0
-0.000163303 0.00392154 0.0
-0.000152727 0.00332051 0.0
-0.000141903 0.00276006 0.0
-0.00013068 0.00224132 0.0
-0.000118861 0.00176593 0.0
-0.000106201 0.0013362 0.0
-9.2393e-05 0.000955143 0.0
-7.70652e-05 0.0006266 0.0
-5.98011e-05 0.000355226 0.0
-4.023e-05 0.000146309 0.0
-1.83539e-05 5.16559e-06 0.0
4.54388e-06 -6.4528e-05 0.0
2.396e-05 -6.66502e-05 0.0
2.61322e-05 -2.60342e-05 0.0
0.340727 0.123038 0.0
-0.000219029 0.249851 0.0
-0.0646587 0.272641 0.0
-0.062703 0.253746 0.0
-0.0481539 0.223639 0.0
-0.0348839 0.193893 0.0
-0.0251488 0.168249 0.0
-0.0184158 0.147203 0.0
-0.0138115 0.130177 0.0
-0.0106376 0.116378 0.0
-0.0084154 0.10508 0.0
-0.0068323 0.0956904 0.0
-0.00568545 0.0877537 0.0
-0.00484176 0.0809247 0.0
-0.00421211 0.0749449 0.0
-0.0037356 0.0696209 0.0
-0.0033697 0.0648085 0.0
-0.0030842 0.0604 0.0
-0.0028573 0.0563151 0.0
-0.00267311 0.0524944 0.0
-0.00251995 0.0488937 0.0
-0.0023892 0.0454808 0.0
-0.00227453 0.0422322 0.0
-0.0021713 0.039131 0.0
-0.00207612 0.0361649 0.0
-0.0019866 0.0333254 0.0
-0.00190105 0.0306065 0.0
-0.0018183 0.0280038 0.0
-0.00173758 0.0255143 0.0
-0.00165837 0.0231356 0.0
-0.00158032 0.020866 0.0
-0.00150316 0.0187043 0.0
-0.00142664 0.0166494 0.0
-0.00135049 0.0147009 0.0
-0.00127435 0.0128585 0.0
-0.00119777 0.0111226 0.0
-0.00112016 0.00949429 0.0
-0.00104079 0.00797541 0.0
-0.00095875 0.00656892 0.0
-0.000872966 0.00527893 0.0
-0.000782202 0.00411089 0.0
-0.000685102 0.00307166 0.0
-0.000580303 0.0021694 0.0
-0.000466717 0.00141324 0.0
-0.00034415 0.00081232 0.0
-0.000214777 0.000373986 0.0
-8.63124e-05 9.98938e-05 0.0
2.25014e-05 -2.15644e-05 0.0
6.63759e-05 -2.33578e-05 0.0
0.501284 0.0769206 0.0
0.100067 0.183814 0.0
-0.038173 0.250468 0.0
-0.0723982 0.267481 0.0
-0.0713263 0.259435 0.0
-0.0606811 0.241537 0.0
-0.0491502 0.220994 0.0
-0.0392628 0.201091 0.0
-0.0314392 0.18308 0.0
-0.0254443 0.167244 0.0
-0.0209042 0.153453 0.0
-0.0174732 0.141432 0.0
-0.0148732 0.130884 0.0
-0.0128922 0.121535 0.0
-0.0113717 0.113153 0.0
-0.0101939 0.105551 0.0
-0.00927137 0.0985762 0.0
-0.00853891 0.0921125 0.0
-0.00794765 0.0860689 0.0
-0.00746089 0.0803761 0.0
-0.00705105 0.074982 0.0
-0.00669739 0.0698478 0.0
-0.00638442 0.0649449 0.0
-0.00610064 0.0602526 0.0
-0.00583762 0.055756 0.0
-0.00558928 0.0514445 0.0
-0.00535131 0.0473107 0.0
-0.00512072 0.0433493 0.0
-0.00489548 0.0395566 0.0
-0.00467422 0.0359298 0.0
-0.00445598 0.0324669 0.0
-0.00423999 0.0291663 0.0
-0.00402558 0.0260269 0.0
-0.00381194 0.0230482 0.0
-0.00359813 0.02023 0.0
-0.00338293 0.0175731 0.0
-0.00316478 0.0150792 0.0
-0.0029418 0.012751 0.0
-0.00271173 0.0105927 0.0
-0.00247199 0.00860983 0.0
-0.00221975 0.00680981 0.0
-0.00195218 0.00520148 0.0
-0.00166677 0.00379506 0.0
-0.00136224 0.00260138 0.0
-0.00103996 0.00163065 0.0
-0.000706923 0.000890249 0.0
-0.000381135 0.000380048 0.0
-9.93854e-05 8.74787e-05 0.0
6.2902e-05 -3.41985e-06 0.0
0.610777 0.0481674 0.0
0.197187 0.134542 0.0
0.0131028 0.21054 0.0
-0.0567315 0.247922 0.0
-0.075581 0.258456 0.0
-0.0743109 0.254586 0.0
-0.0661973 0.243454 0.0
-0.056705 0.229321 0.0
-0.0479088 0.214493 0.0
-0.0404441 0.200101 0.0
-0.034364 0.186626 0.0
-0.0295113 0.174211 0.0
-0.0256751 0.16283 0.0
-0.0226523 0.152383 0.0
-0.0202675 0.142752 0.0
-0.0183772 0.133815 0.0
-0.0168669 0.125467 0.0
-0.0156464 0.117617 0.0
-0.014645 0.110192 0.0
-0.0138083 0.103133 0.0
-0.013094 0.0963962 0.0
-0.0124699 0.089947 0.0
-0.0119114 0.0837603 0.0
-0.0114 0.077818 0.0
-0.0109223 0.0721073 0.0
-0.0104683 0.066619 0.0
-0.0100311 0.0613471 0.0
-0.00960572 0.0562874 0.0
-0.00918892 0.0514369 0.0
-0.00877847 0.0467934 0.0
-0.0083728 0.0423555 0.0
-0.00797066 0.0381221 0.0
-0.00757088 0.0340923 0.0
-0.00717211 0.0302658 0.0
-0.00677269 0.0266429 0.0
-0.00637047 0.0232246 0.0
-0.0059628 0.020013 0.0
-0.00554642 0.0170115 0.0
-0.00511753 0.0142248 0.0
-0.0046719 0.0116593 0.0
-0.00420502 0.00932321 0.0
-0.00371261 0.00722621 0.0
-0.00319131 0.0053792 0.0
-0.00264002 0.00379354 0.0
-0.00206213 0.00247975 0.0
-0.00146952 0.00144582 0.0
-0.00088899 0.000692378 0.0
-0.000370687 0.000212017 0.0
-7.8541e-06 1.94265e-05 0.0
0.681468 0.0302581 0.0
0.280397 0.0986366 0.0
0.0716333 0.171782 0.0
-0.0261458 0.21836 0.0
-0.0651459 0.241495 0.0
-0.0761041 0.249191 0.0
-0.0746473 0.247352 0.0
-0.0683433 0.240107 0.0
-0.0607243 0.230089 0.0
-0.0533473 0.218873 0.0
-0.0468155 0.20735 0.0
-0.0412844 0.195999 0.0
-0.0367119 0.185046 0.0
-0.0329793 0.174581 0.0
-0.0299484 0.164618 0.0
-0.0274867 0.155132 0.0
-0.0254773 0.146084 0.0
-0.0238218 0.137433 0.0
-0.022439 0.129138 0.0
-0.0212639 0.121167 0.0
-0.0202446 0.113494 0.0
-0.0193406 0.106097 0.0
-0.0185205 0.0989619 0.0
-0.0177606 0.0920784 0.0
-0.0170434 0.0854396 0.0
-0.0163559 0.0790414 0.0
-0.0156892 0.0728812 0.0
-0.0150371 0.0669578 0.0
-0.0143953 0.0612706 0.0
-0.0137611 0.0558192 0.0
-0.0131327 0.0506033 0.0
-0.0125084 0.0456229 0.0
-0.0118867 0.040878 0.0
-0.011266 0.0363687 0.0
-0.0106437 0.0320956 0.0
-0.0100169 0.0280603 0.0
-0.00938178 0.024265 0.0
-0.0087337 0.0207132 0.0
-0.0080673 0.01741 0.0
-0.00737665 0.014362 0.0
-0.00665566 0.0115776 0.0
-0.00589868 0.0090665 0.0
-0.00510155 0.00683984 0.0
-0.00426337 0.00490913 0.0
-0.00338913 0.0032856 0.0
-0.00249414 0.00197909 0.0
-0.00161062 0.000993603 0.0
-0.000795358 0.000330711 0.0
-0.000146807 4.01987e-05 0.0
0.731071 0.0192432 0.0
0.351189 0.0732908 0.0
0.130011 0.139629 0.0
0.0123055 0.188334 0.0
-0.0449057 0.219013 0.0
-0.0686372 0.234966 0.0
-0.075381 0.240748 0.0
-0.0740079 0.239862 0.0
-0.0691554 0.234832 0.0
-0.0631818 0.227354 0.0
-0.0572307 0.218525 0.0
-0.0518062 0.209028 0.0
-0.0470825 0.199278 0.0
-0.0430711 0.189516 0.0
-0.0397088 0.179877 0.0
-0.0369039 0.170431 0.0
-0.03456 0.16121 0.0
-0.032587 0.152228 0.0
-0.0309054 0.143486 0.0
-0.0294484 0.134984 0.0
-0.0281607 0.126718 0.0
-0.0269983 0.118689 0.0
-0.0259267 0.110895 0.0
-0.0249193 0.103338 0.0
-0.0239565 0.0960198 0.0
-0.0230241 0.0889443 0.0
-0.0221121 0.0821144 0.0
-0.0212139 0.0755332 0.0
-0.0203253 0.0692037 0.0
-0.0194435 0.063128 0.0
-0.0185669 0.0573082 0.0
-0.017694 0.0517455 0.0
-0.0168232 0.046441 0.0
-0.0159526 0.0413955 0.0
-0.0150793 0.0366103 0.0
-0.0141995 0.032087 0.0
-0.0133084 0.0278279 0.0
-0.0124 0.0238367 0.0
-0.0114674 0.0201182 0.0
-0.0105032 0.0166789 0.0
-0.00949952 0.0135269 0.0
-0.00844946 0.010672 0.0
-0.00734788 0.00812507 0.0
-0.00619355 0.00589821 0.0
-0.00499199 0.00400394 0.0
-0.00375976 0.00245521 0.0
-0.00253052 0.00126121 0.0
-0.00136136 0.000434115 0.0
-0.000346123 5.73304e-05 0.0
0.767156 0.0125943 0.0
0.410636 0.0557126 0.0
0.184746 0.11435 0.0
0.0531587 0.161852 0.0
-0.0188232 0.195975 0.0
-0.054523 0.217316 0.0
-0.0698699 0.228756 0.0
-0.0743288 0.233096 0.0
-0.0732714 0.232539 0.0
-0.0696763 0.228703 0.0
-0.0651537 0.222732 0.0
-0.0605375 0.215405 0.0
-0.0562268 0.207248 0.0
-0.0523815 0.198608 0.0
-0.0490342 0.189712 0.0
-0.0461537 0.180708 0.0
-0.0436805 0.171693 0.0
-0.041546 0.162731 0.0
-0.0396833 0.153868 0.0
-0.0380319 0.145134 0.0
-0.0365399 0.136554 0.0
-0.0351646 0.128149 0.0
-0.033872 0.119934 0.0
-0.0326359 0.111927 0.0
-0.0314371 0.104139 0.0
-0.0302618 0.0965824 0.0
-0.0291008 0.0892683 0.0
-0.0279482 0.0822051 0.0
-0.0268008 0.0754 0.0
-0.0256569 0.0688587 0.0
-0.0245155 0.0625856 0.0
-0.0233759 0.0565838 0.0
-0.022237 0.0508557 0.0
-0.0210968 0.0454029 0.0
-0.0199524 0.0402272 0.0
-0.0187995 0.0353302 0.0
-0.0176322 0.0307143 0.0
-0.0164436 0.0263829 0.0
-0.0152252 0.0223404 0.0
-0.013968 0.018593 0.0
-0.0126627 0.0151484 0.0
-0.0113006 0.0120161 0.0
-0.00987526 0.00920714 0.0
-0.00838438 0.00673434 0.0
-0.00683249 0.00461219 0.0
-0.00523499 0.00285755 0.0
-0.0036232 0.00148561 0.0
-0.00204924 0.000519139 0.0
-0.000595656 7.07054e-05 0.0
0.79413 0.00856185 0.0
0.46046 0.0433979 0.0
0.234678 0.0946815 0.0
0.0938346 0.139474 0.0
0.0105269 0.174365 0.0
-0.0359427 0.198993 0.0
-0.0596651 0.214389 0.0
-0.0702751 0.222764 0.0
-0.0735818 0.225929 0.0
-0.07301 0.225329 0.0
-0.0705421 0.22206 0.0
-0.0672977 0.216921 0.0
-0.0638845 0.210484 0.0
-0.0606105 0.20316 0.0
-0.0576109 0.195236 0.0
-0.0549242 0.18692 0.0
-0.0525373 0.178359 0.0
-0.0504127 0.169663 0.0
-0.0485036 0.160912 0.0
-0.0467626 0.152169 0.0
-0.0451465 0.143487 0.0
-0.0436187 0.134905 0.0
-0.0421493 0.126459 0.0
-0.0407157 0.118179 0.0
-0.0393013 0.11009 0.0
-0.0378949 0.102214 0.0
-0.0364899 0.0945693 0.0
-0.0350827 0.0871705 0.0
-0.0336721 0.08003 0.0
-0.0322583 0.0731571 0.0
-0.0308422 0.0665591 0.0
-0.0294243 0.0602411 0.0
-0.0280044 0.0542067 0.0
-0.0265814 0.0484586 0.0
-0.0251523 0.0429986 0.0
-0.0237126 0.0378286 0.0
-0.0222559 0.0329507 0.0
-0.020774 0.0283677 0.0
-0.0192574 0.0240837 0.0
-0.0176953 0.0201043 0.0
-0.0160766 0.0164365 0.0
-0.0143908 0.0130898 0.0
-0.0126295 0.0100754 0.0
-0.0107883 0.00740713 0.0
-0.00886923 0.00510182 0.0
-0.00688415 0.00318048 0.0
-0.00485893 0.00166433 0.0
-0.00283684 0.000585674 0.0
-0.000885011 8.06945e-05 0.0
0.814947 0.0060712 0.0
0.50247 0.034618 0.0
0.279661 0.0793804 0.0
0.132908 0.120913 0.0
0.0408082 0.155261 0.0
-0.0146722 0.181406 0.0
-0.0461374 0.19942 0.0
-0.0628312 0.210752 0.0
-0.0707356 0.216861 0.0
-0.0735636 0.218983 0.0
-0.0735749 0.218109 0.0
-0.0721217 0.215006 0.0
-0.0699931 0.210253 0.0
-0.067633 0.204285 0.0
-0.0652761 0.197428 0.0
-0.0630323 0.189926 0.0
-0.0609391 0.181963 0.0
-0.0589947 0.173685 0.0
-0.0571773 0.165203 0.0
-0.0554575 0.156608 0.0
-0.053805 0.147974 0.0
-0.0521927 0.139364 0.0
-0.0505984 0.130829 0.0
-0.0490054 0.122414 0.0
-0.0474024 0.114157 0.0
-0.0457831 0.106089 0.0
-0.0441448 0.0982365 0.0
-0.0424879 0.0906214 0.0
-0.0408145 0.0832607 0.0
-0.0391281 0.0761679 0.0
-0.0374318 0.0693528 0.0
-0.0357285 0.0628227 0.0
-0.0340197 0.0565825 0.0
-0.0323051 0.0506354 0.0
-0.0305826 0.0449836 0.0
-0.0288475 0.0396288 0.0
-0.0270932 0.0345726 0.0
-0.0253106 0.0298173 0.0
-0.0234887 0.0253662 0.0
-0.0216153 0.0212241 0.0
-0.0196772 0.0173977 0.0
-0.0176617 0.0138959 0.0
-0.0155577 0.0107306 0.0
-0.0133577 0.00791656 0.0
-0.0110597 0.00547293 0.0
-0.00867006 0.00342471 0.0
-0.00620685 0.00179861 0.0
-0.0037018 0.000634914 0.0
-0.00120443 8.77799e-05 0.0
0.831497 0.00449218 0.0
0.538202 0.0282266 0.0
0.320016 0.067381 0.0
0.169797 0.105552 0.0
0.0710029 0.138642 0.0
0.00819091 0.165106 0.0
-0.0303369 0.184772 0.0
-0.0528513 0.198193 0.0
-0.0653702 0.20656 0.0
-0.0717773 0.21089 0.0
-0.0745301 0.212054 0.0
-0.0751612 0.210757 0.0
-0.07461 0.207559 0.0
-0.073439 0.202895 0.0
-0.0719734 0.197106 0.0
-0.0703909 0.190456 0.0
-0.0687795 0.183159 0.0
-0.0671745 0.175381 0.0
-0.0655817 0.167261 0.0
-0.0639922 0.158912 0.0
-0.0623914 0.150429 0.0
-0.0607645 0.141893 0.0
-0.0590996 0.133372 0.0
-0.0573884 0.124923 0.0
-0.055627 0.116598 0.0
-0.0538157 0.108436 0.0
-0.0519577 0.100473 0.0
-0.0500588 0.0927369 0.0
-0.048126 0.0852495 0.0
-0.0461666 0.0780281 0.0
-0.0441877 0.0710856 0.0
-0.0421948 0.0644309 0.0
-0.0401919 0.0580701 0.0
-0.0381804 0.0520069 0.0
-0.0361591 0.0462435 0.0
-0.0341237 0.0407811 0.0
-0.0320675 0.0356207 0.0
-0.0299805 0.0307638 0.0
-0.0278507 0.0262127 0.0
-0.0256638 0.0219715 0.0
-0.0234047 0.0180461 0.0
-0.0210578 0.0144452 0.0
-0.0186088 0.0111809 0.0
-0.0160458 0.00826892 0.0
-0.0133617 0.00573061 0.0
-0.0105559 0.00359438 0.0
-0.00763675 0.00189152 0.0
-0.00462283 0.00066855 0.0
-0.00154514 9.24274e-05 0.0
0.844994 0.00345891 0.0
0.568882 0.0234732 0.0
0.356202 0.0578783 0.0
0.204265 0.0928333 0.0
0.100411 0.124323 0.0
0.0315005 0.150497 0.0
-0.0131297 0.170949 0.0
-0.0410528 0.185786 0.0
-0.0580564 0.19582 0.0
-0.0680828 0.20189 0.0
-0.0737163 0.204737 0.0
-0.0766225 0.204992 0.0
-0.07786 0.203175 0.0
-0.0780904 0.199707 0.0
-0.0777178 0.194928 0.0
-0.0769812 0.189113 0.0
-0.076016 0.18249 0.0
-0.0748935 0.175243 0.0
-0.0736473 0.16753 0.0
-0.0722902 0.159481 0.0
-0.070825 0.15121 0.0
-0.0692512 0.142814 0.0
-0.0675687 0.134375 0.0
-0.0657799 0.125964 0.0
-0.0638902 0.117642 0.0
-0.0619081 0.109461 0.0
-0.0598446 0.101461 0.0
-0.0577121 0.0936779 0.0
-0.0555237 0.0861382 0.0
-0.0532923 0.0788627 0.0
-0.0510293 0.0718666 0.0
-0.0487442 0.0651607 0.0
-0.0464438 0.0587517 0.0
-0.0441319 0.0526435 0.0
-0.0418085 0.046838 0.0
-0.0394704 0.0413358 0.0
-0.0371106 0.0361369 0.0
-0.0347186 0.0312417 0.0
-0.0322811 0.0266516 0.0
-0.0297819 0.0223693 0.0
-0.0272034 0.0184002 0.0
-0.0245269 0.0147525 0.0
-0.0217339 0.0114381 0.0
-0.0188077 0.00847383 0.0
-0.0157349 0.00588249 0.0
-0.0125065 0.0036952 0.0
-0.00912015 0.00194681 0.0
-0.00558033 0.000688363 0.0
-0.00189941 9.50419e-05 0.0
0.856242 0.00275793 0.0
0.595478 0.0198596 0.0
0.388717 0.0502626 0.0
0.236316 0.0822429 0.0
0.128709 0.111986 0.0
0.054776 0.137502 0.0
0.00494638 0.158133 0.0
-0.0279828 0.173893 0.0
-0.0492712 0.185126 0.0
-0.0628688 0.192538 0.0
-0.0714346 0.196744 0.0
-0.0767281 0.198299 0.0
-0.0798993 0.197675 0.0
-0.0816897 0.195268 0.0
-0.0825694 0.191409 0.0
-0.0828308 0.186373 0.0
-0.0826514 0.180395 0.0
-0.082136 0.173672 0.0
-0.0813449 0.166373 0.0
-0.0803125 0.158645 0.0
-0.0790596 0.150616 0.0
-0.077601 0.142395 0.0
-0.0759502 0.13408 0.0
-0.0741213 0.125754 0.0
-0.0721309 0.117486 0.0
-0.0699975 0.109337 0.0
-0.0677409 0.101356 0.0
-0.0653821 0.0935836 0.0
-0.0629415 0.0860507 0.0
-0.0604384 0.0787812 0.0
-0.0578899 0.0717928 0.0
-0.05531 0.0650971 0.0
-0.0527093 0.0587014 0.0
-0.0500942 0.0526096 0.0
-0.0474669 0.0468228 0.0
-0.0448249 0.0413405 0.0
-0.0421616 0.0361618 0.0
-0.0394659 0.0312855 0.0
-0.0367231 0.0267116 0.0
-0.0339152 0.0224417 0.0
-0.0310215 0.0184801 0.0
-0.0280198 0.0148343 0.0
-0.0248872 0.011516 0.0
-0.0216012 0.00854226 0.0
-0.0181411 0.00593705 0.0
-0.014489 0.00373329 0.0
-0.0106307 0.00196828 0.0
-0.00655659 0.000696011 0.0
-0.00226049 9.59567e-05 0.0
0.865791 0.00226433 0.0
0.618749 0.017055 0.0
0.418028 0.0440856 0.0
0.266053 0.0733697 0.0
0.155717 0.101352 0.0
0.0776455 0.126003 0.0
0.0232983 0.146485 0.0
-0.0140966 0.162713 0.0
-0.0394116 0.174777 0.0
-0.056472 0.183192 0.0
-0.0679604 0.188472 0.0
-0.0756959 0.191092 0.0
-0.0808945 0.191474 0.0
-0.0843595 0.189984 0.0
-0.0866145 0.186937 0.0
-0.0879965 0.182602 0.0
-0.0887192 0.177216 0.0
-0.0889172 0.170982 0.0
-0.0886753 0.16408 0.0
-0.0880485 0.156668 0.0
-0.0870756 0.148885 0.0
-0.0857873 0.140855 0.0
-0.0842112 0.132686 0.0
-0.082375 0.12447 0.0
-0.0803074 0.116289 0.0
-0.0780383 0.10821 0.0
-0.0755984 0.100288 0.0
-0.0730181 0.0925704 0.0
-0.0703265 0.0850909 0.0
-0.0675504 0.0778766 0.0
-0.0647137 0.0709466 0.0
-0.0618357 0.0643133 0.0
-0.0589314 0.0579841 0.0
-0.0560106 0.0519622 0.0
-0.0530777 0.0462477 0.0
-0.0501315 0.0408389 0.0
-0.0471657 0.035733 0.0
-0.0441688 0.0309275 0.0
-0.0411248 0.0264206 0.0
-0.0380134 0.0222124 0.0
-0.0348108 0.0183058 0.0
-0.0314909 0.0147073 0.0
-0.0280257 0.0114281 0.0
-0.0243865 0.00848512 0.0
-0.0205447 0.00590262 0.0
-0.0164727 0.00371451 0.0
-0.0121445 0.00195944 0.0
-0.0075357 0.000692936 0.0
-0.00262247 9.54345e-05 0.0
0.874023 0.00190393 0.0
0.639288 0.0148355 0.0
0.444553 0.0390147 0.0
0.293634 0.0658786 0.0
0.181377 0.0921513 0.0
0.0999114 0.115822 0.0
0.0416419 0.135946 0.0
0.000296698 0.152304 0.0
-0.0287915 0.164921 0.0
-0.0491759 0.174064 0.0
-0.0635378 0.180173 0.0
-0.0737289 0.183648 0.0
-0.0810098 0.184861 0.0
-0.0862295 0.184144 0.0
-0.089953 0.181793 0.0
-0.0925529 0.17807 0.0
-0.0942731 0.173206 0.0
-0.0952734 0.167411 0.0
-0.0956604 0.160871 0.0
-0.0955083 0.153752 0.0
-0.0948731 0.146204 0.0
-0.0938015 0.138362 0.0
-0.0923361 0.130344 0.0
-0.0905189 0.122253 0.0
-0.0883921 0.114177 0.0
-0.0859986 0.106193 0.0
-0.0833808 0.0983607 0.0
-0.0805801 0.0907312 0.0
-0.0776356 0.0833429 0.0
-0.074583 0.0762245 0.0
-0.0714534 0.0693961 0.0
-0.0682726 0.0628704 0.0
-0.0650605 0.0566543 0.0
-0.0618307 0.0507499 0.0
-0.0585903 0.0451559 0.0
-0.0553397 0.0398688 0.0
-0.052073 0.034884 0.0
-0.0487784 0.0301969 0.0
-0.0454382 0.0258038 0.0
-0.0420299 0.021703 0.0
-0.0385265 0.0178957 0.0
-0.0348974 0.0143871 0.0
-0.0311093 0.0111873 0.0
-0.0271266 0.0083125 0.0
-0.0229125 0.00578679 0.0
-0.0184295 0.00364403 0.0
-0.0136395 0.00192328 0.0
-0.00850336 0.000680325 0.0
-0.00298018 9.36737e-05 0.0
0.88121 0.00163176 0.0
0.657561 0.013047 0.0
0.468656 0.0348019 0.0
0.319232 0.0595024 0.0
0.205689 0.0841505 0.0
0.121449 0.106791 0.0
0.0597748 0.126423 0.0
0.0149046 0.142698 0.0
-0.0176642 0.15562 0.0
-0.041216 0.165268 0.0
-0.0583783 0.171998 0.0
-0.0710106 0.176142 0.0
-0.0804008 0.178022 0.0
-0.0874289 0.17794 0.0
-0.0926901 0.17617 0.0
-0.0965842 0.172963 0.0
-0.0993788 0.168546 0.0
-0.101254 0.163128 0.0
-0.102336 0.156902 0.0
-0.102716 0.150041 0.0
-0.102466 0.142706 0.0
-0.101648 0.135038 0.0
-0.100322 0.127167 0.0
-0.0985425 0.119203 0.0
-0.0963682 0.111244 0.0
-0.0938555 0.103371 0.0
-0.0910603 0.0956505 0.0
-0.0880363 0.088137 0.0
-0.0848335 0.0808714 0.0
-0.0814976 0.0738839 0.0
-0.078068 0.0671951 0.0
-0.0745776 0.0608173 0.0
-0.071052 0.0547564 0.0
-0.0675091 0.0490128 0.0
-0.0639588 0.0435835 0.0
-0.0604034 0.0384627 0.0
-0.0568376 0.0336435 0.0
-0.0532491 0.0291191 0.0
-0.0496187 0.0248835 0.0
-0.0459214 0.0209328 0.0
-0.0421266 0.0172663 0.0
-0.0381993 0.0138874 0.0
-0.0341002 0.0108047 0.0
-0.0297868 0.00803324 0.0
-0.0252139 0.00559607 0.0
-0.0203337 0.00352625 0.0
-0.0150956 0.00186226 0.0
-0.00944661 0.000659107 0.0
-0.00332899 9.08164e-05 0.0
0.887555 0.00141976 0.0
0.673934 0.0115811 0.0
0.490645 0.03126 0.0
0.343018 0.0540274 0.0
0.22869 0.0771501 0.0
0.142189 0.0987518 0.0
0.0775545 0.1178 0.0
0.0294995 0.133863 0.0
-0.00624531 0.146882 0.0
-0.0327961 0.156855 0.0
-0.0526674 0.164024 0.0
-0.067707 0.16867 0.0
-0.0792129 0.17107 0.0
-0.0880828 0.171492 0.0
-0.094932 0.17019 0.0
-0.100179 0.167401 0.0
-0.104109 0.163348 0.0
-0.106918 0.158241 0.0
-0.108748 0.152276 0.0
-0.109706 0.145632 0.0
-0.109877 0.138478 0.0
-0.109341 0.130965 0.0
-0.108172 0.123229 0.0
-0.106443 0.11539 0.0
-0.104225 0.107553 0.0
-0.101593 0.0998027 0.0
-0.098615 0.0922124 0.0
-0.0953597 0.0848382 0.0
-0.0918891 0.0777233 0.0
-0.0882596 0.0708985 0.0
-0.0845202 0.0643842 0.0
-0.0807114 0.0581916 0.0
-0.076865 0.0523251 0.0
-0.0730036 0.046783 0.0
-0.0691404 0.0415597 0.0
-0.0652796 0.0366471 0.0
-0.0614166 0.0320356 0.0
-0.0575384 0.0277156 0.0
-0.0536245 0.0236786 0.0
-0.049647 0.0199184 0.0
-0.0455718 0.0164318 0.0
-0.0413589 0.0132201 0.0
-0.0369632 0.01029 0.0
-0.032335 0.00765481 0.0
-0.0274203 0.00533589 0.0
-0.0221609 0.00336471 0.0
-0.0164944 0.00177832 0.0
-0.0103536 0.000629978 0.0
-0.00366468 8.69572e-05 0.0
0.893204 0.00124981 0.0
0.688695 0.0103593 0.0
0.51078 0.0282449 0.0
0.365151 0.0492794 0.0
0.250433 0.0709759 0.0
0.162101 0.0915467 0.0
0.0948914 0.10995 0.0
0.0439711 0.125697 0.0
0.00534178 0.138642 0.0
-0.0240715 0.148804 0.0
-0.0465612 0.15626 0.0
-0.0639648 0.161266 0.0
-0.0775794 0.164051 0.0
-0.0883102 0.164855 0.0
-0.0967826 0.163911 0.0
-0.103427 0.161445 0.0
-0.108539 0.157675 0.0
-0.112328 0.152809 0.0
-0.114947 0.147047 0.0
-0.116515 0.140575 0.0
-0.117135 0.133568 0.0
-0.116898 0.126185 0.0
-0.115897 0.118571 0.0
-0.11422 0.110853 0.0