# vtk DataFile Version 3.0
Malha 2D com triângulos: velocidade e pressão
ASCII
DATASET UNSTRUCTURED_GRID

POINTS 2500 double
0 0 0
1 0 0
1 1 0
0 1 0
0.0204082 0 0
0.0408163 0 0
0.0612245 0 0
0.0816327 0 0
0.102041 0 0
0.122449 0 0
0.142857 0 0
0.163265 0 0
0.183673 0 0
0.204082 0 0
0.22449 0 0
0.244898 0 0
0.265306 0 0
0.285714 0 0
0.306122 0 0
0.326531 0 0
0.346939 0 0
0.367347 0 0
0.387755 0 0
0.408163 0 0
0.428571 0 0
0.44898 0 0
0.469388 0 0
0.489796 0 0
0.510204 0 0
0.530612 0 0
0.55102 0 0
0.571429 0 0
0.591837 0 0
0.612245 0 0
0.632653 0 0
0.653061 0 0
0.673469 0 0
0.693878 0 0
0.714286 0 0
0.734694 0 0
0.755102 0 0
0.77551 0 0
0.795918 0 0
0.816327 0 0
0.836735 0 0
0.857143 0 0
0.877551 0 0
0.897959 0 0
0.918367 0 0
0.938776 0 0
0.959184 0 0
0.979592 0 0
1 0.0204082 0
1 0.0408163 0
1 0.0612245 0
1 0.0816327 0
1 0.102041 0
1 0.122449 0
1 0.142857 0
1 0.163265 0
1 0.183673 0
1 0.204082 0
1 0.22449 0
1 0.244898 0
1 0.265306 0
1 0.285714 0
1 0.306122 0
1 0.326531 0
1 0.346939 0
1 0.367347 0
1 0.387755 0
1 0.408163 0
1 0.428571 0
1 0.44898 0
1 0.469388 0
1 0.489796 0
1 0.510204 0
1 0.530612 0
1 0.55102 0
1 0.571429 0
1 0.591837 0
1 0.612245 0
1 0.632653 0
1 0.653061 0
1 0.673469 0
1 0.693878 0
1 0.714286 0
1 0.734694 0
1 0.755102 0
1 0.77551 0
1 0.795918 0
1 0.816327 0
1 0.836735 0
1 0.857143 0
1 0.877551 0
1 0.897959 0
1 0.918367 0
1 0.938776 0
1 0.959184 0
1 0.979592 0
0.979592 1 0
0.959184 1 0
0.938776 1 0
0.918367 1 0
0.897959 1 0
0.877551 1 0
0.857143 1 0
0.836735 1 0
0.816327 1 0
0.795918 1 0
0.77551 1 0
0.755102 1 0
0.734694 1 0
0.714286 1 0
0.693878 1 0
0.673469 1 0
0.653061 1 0
0.632653 1 0
0.612245 1 0
0.591837 1 0
0.571429 1 0
0.55102 1 0
0.530612 1 0
0.510204 1 0
0.489796 1 0
0.469388 1 0
0.44898 1 0
0.428571 1 0
0.408163 1 0
0.387755 1 0
0.367347 1 0
0.346939 1 0
0.326531 1 0
0.306122 1 0
0.285714 1 0
0.265306 1 0
0.244898 1 0
0.22449 1 0
0.204082 1 0
0.183673 1 0
0.163265 1 0
0.142857 1 0
0.122449 1 0
0.102041 1 0
0.0816327 1 0
0.0612245 1 0
0.0408163 1 0
0.0204082 1 0
0 0.979592 0
0 0.959184 0
0 0.938776 0
0 0.918367 0
0 0.897959 0
0 0.877551 0
0 0.857143 0
0 0.836735 0
0 0.816327 0
0 0.795918 0
0 0.77551 0
0 0.755102 0
0 0.734694 0
0 0.714286 0
0 0.693878 0
0 0.673469 0
0 0.653061 0
0 0.632653 0
0 0.612245 0
0 0.591837 0
0 0.571429 0
0 0.55102 0
0 0.530612 0
0 0.510204 0
0 0.489796 0
0 0.469388 0
0 0.44898 0
0 0.428571 0
0 0.408163 0
0 0.387755 0
0 0.367347 0
0 0.346939 0
0 0.326531 0
0 0.306122 0
0 0.285714 0
0 0.265306 0
0 0.244898 0
0 0.22449 0
0 0.204082 0
0 0.183673 0
0 0.163265 0
0 0.142857 0
0 0.122449 0
0 0.102041 0
0 0.0816327 0
0 0.0612245 0
0 0.0408163 0
0 0.0204082 0
0.0204082 0.979592 0
0.0204082 0.959184 0
0.0204082 0.938776 0
0.0204082 0.918367 0
0.0204082 0.897959 0
0.0204082 0.877551 0
0.0204082 0.857143 0
0.0204082 0.836735 0
0.0204082 0.816327 0
0.0204082 0.795918 0
0.0204082 0.77551 0
0.0204082 0.755102 0
0.0204082 0.734694 0
0.0204082 0.714286 0
0.0204082 0.693878 0
0.0204082 0.673469 0
0.0204082 0.653061 0
0.0204082 0.632653 0
0.0204082 0.612245 0
0.0204082 0.591837 0
0.0204082 0.571429 0
0.0204082 0.55102 0
0.0204082 0.530612 0
0.0204082 0.510204 0
0.0204082 0.489796 0
0.0204082 0.469388 0
0.0204082 0.44898 0
0.0204082 0.428571 0
0.0204082 0.408163 0
0.0204082 0.387755 0
0.0204082 0.367347 0
0.0204082 0.346939 0
0.0204082 0.326531 0
0.0204082 0.306122 0
0.0204082 0.285714 0
0.0204082 0.265306 0
0.0204082 0.244898 0
0.0204082 0.22449 0
0.0204082 0.204082 0
0.0204082 0.183673 0
0.0204082 0.163265 0
0.0204082 0.142857 0
0.0204082 0.122449 0
0.0204082 0.102041 0
0.0204082 0.0816327 0
0.0204082 0.0612245 0
0.0204082 0.0408163 0
0.0204082 0.0204082 0
0.0408163 0.979592 0
0.0408163 0.959184 0
0.0408163 0.938776 0
0.0408163 0.918367 0
0.0408163 0.897959 0
0.0408163 0.877551 0
0.0408163 0.857143 0
0.0408163 0.836735 0
0.0408163 0.816327 0
0.0408163 0.795918 0
0.0408163 0.77551 0
0.0408163 0.755102 0
0.0408163 0.734694 0
0.0408163 0.714286 0
0.0408163 0.693878 0
0.0408163 0.673469 0
0.0408163 0.653061 0
0.0408163 0.632653 0
0.0408163 0.612245 0
0.0408163 0.591837 0
0.0408163 0.571429 0
0.0408163 0.55102 0
0.0408163 0.530612 0
0.0408163 0.510204 0
0.0408163 0.489796 0
0.0408163 0.469388 0
0.0408163 0.44898 0
0.0408163 0.428571 0
0.0408163 0.408163 0
0.0408163 0.387755 0
0.0408163 0.367347 0
0.0408163 0.346939 0
0.0408163 0.326531 0
0.0408163 0.306122 0
0.0408163 0.285714 0
0.0408163 0.265306 0
0.0408163 0.244898 0
0.0408163 0.22449 0
0.0408163 0.204082 0
0.0408163 0.183673 0
0.0408163 0.163265 0
0.0408163 0.142857 0
0.0408163 0.122449 0
0.0408163 0.102041 0
0.0408163 0.0816327 0
0.0408163 0.0612245 0
0.0408163 0.0408163 0
0.0408163 0.0204082 0
0.0612245 0.979592 0
0.0612245 0.959184 0
0.0612245 0.938776 0
0.0612245 0.918367 0
0.0612245 0.897959 0
0.0612245 0.877551 0
0.0612245 0.857143 0
0.0612245 0.836735 0
0.0612245 0.816327 0
0.0612245 0.795918 0
0.0612245 0.77551 0
0.0612245 0.755102 0
0.0612245 0.734694 0
0.0612245 0.714286 0
0.0612245 0.693878 0
0.0612245 0.673469 0
0.0612245 0.653061 0
0.0612245 0.632653 0
0.0612245 0.612245 0
0.0612245 0.591837 0
0.0612245 0.571429 0
0.0612245 0.55102 0
0.0612245 0.530612 0
0.0612245 0.510204 0
0.0612245 0.489796 0
0.0612245 0.469388 0
0.0612245 0.44898 0
0.0612245 0.428571 0
0.0612245 0.408163 0
0.0612245 0.387755 0
0.0612245 0.367347 0
0.0612245 0.346939 0
0.0612245 0.326531 0
0.0612245 0.306122 0
0.0612245 0.285714 0
0.0612245 0.265306 0
0.0612245 0.244898 0
0.0612245 0.22449 0
0.0612245 0.204082 0
0.0612245 0.183673 0
0.0612245 0.163265 0
0.0612245 0.142857 0
0.0612245 0.122449 0
0.0612245 0.102041 0
0.0612245 0.0816327 0
0.0612245 0.0612245 0
0.0612245 0.0408163 0
0.0612245 0.0204082 0
0.0816327 0.979592 0
0.0816327 0.959184 0
0.0816327 0.938776 0
0.0816327 0.918367 0
0.0816327 0.897959 0
0.0816327 0.877551 0
0.0816327 0.857143 0
0.0816327 0.836735 0
0.0816327 0.816327 0
0.0816327 0.795918 0
0.0816327 0.77551 0
0.0816327 0.755102 0
0.0816327 0.734694 0
0.0816327 0.714286 0
0.0816327 0.693878 0
0.0816327 0.673469 0
0.0816327 0.653061 0
0.0816327 0.632653 0
0.0816327 0.612245 0
0.0816327 0.591837 0
0.0816327 0.571429 0
0.0816327 0.55102 0
0.0816327 0.530612 0
0.0816327 0.510204 0
0.0816327 0.489796 0
0.0816327 0.469388 0
0.0816327 0.44898 0
0.0816327 0.428571 0
0.0816327 0.408163 0
0.0816327 0.387755 0
0.0816327 0.367347 0
0.0816327 0.346939 0
0.0816327 0.326531 0
0.0816327 0.306122 0
0.0816327 0.285714 0
0.0816327 0.265306 0
0.0816327 0.244898 0
0.0816327 0.22449 0
0.0816327 0.204082 0
0.0816327 0.183673 0
0.0816327 0.163265 0
0.0816327 0.142857 0
0.0816327 0.122449 0
0.0816327 0.102041 0
0.0816327 0.0816327 0
0.0816327 0.0612245 0
0.0816327 0.0408163 0
0.0816327 0.0204082 0
0.102041 0.979592 0
0.102041 0.959184 0
0.102041 0.938776 0
0.102041 0.918367 0
0.102041 0.897959 0
0.102041 0.877551 0
0.102041 0.857143 0
0.102041 0.836735 0
0.102041 0.816327 0
0.102041 0.795918 0
0.102041 0.77551 0
0.102041 0.755102 0
0.102041 0.734694 0
0.102041 0.714286 0
0.102041 0.693878 0
0.102041 0.673469 0
0.102041 0.653061 0
0.102041 0.632653 0
0.102041 0.612245 0
0.102041 0.591837 0
0.102041 0.571429 0
0.102041 0.55102 0
0.102041 0.530612 0
0.102041 0.510204 0
0.102041 0.489796 0
0.102041 0.469388 0
0.102041 0.44898 0
0.102041 0.428571 0
0.102041 0.408163 0
0.102041 0.387755 0
0.102041 0.367347 0
0.102041 0.346939 0
0.102041 0.326531 0
0.102041 0.306122 0
0.102041 0.285714 0
0.102041 0.265306 0
0.102041 0.244898 0
0.102041 0.22449 0
0.102041 0.204082 0
0.102041 0.183673 0
0.102041 0.163265 0
0.102041 0.142857 0
0.102041 0.122449 0
0.102041 0.102041 0
0.102041 0.0816327 0
0.102041 0.0612245 0
0.102041 0.0408163 0
0.102041 0.0204082 0
0.122449 0.979592 0
0.122449 0.959184 0
0.122449 0.938776 0
0.122449 0.918367 0
0.122449 0.897959 0
0.122449 0.877551 0
0.122449 0.857143 0
0.122449 0.836735 0
0.122449 0.816327 0
0.122449 0.795918 0
0.122449 0.77551 0
0.122449 0.755102 0
0.122449 0.734694 0
0.122449 0.714286 0
0.122449 0.693878 0
0.122449 0.673469 0
0.122449 0.653061 0
0.122449 0.632653 0
0.122449 0.612245 0
0.122449 0.591837 0
0.122449 0.571429 0
0.122449 0.55102 0
0.122449 0.530612 0
0.122449 0.510204 0
0.122449 0.489796 0
0.122449 0.469388 0
0.122449 0.44898 0
0.122449 0.428571 0
0.122449 0.408163 0
0.122449 0.387755 0
0.122449 0.367347 0
0.122449 0.346939 0
0.122449 0.326531 0
0.122449 0.306122 0
0.122449 0.285714 0
0.122449 0.265306 0
0.122449 0.244898 0
0.122449 0.22449 0
0.122449 0.204082 0
0.122449 0.183673 0
0.122449 0.163265 0
0.122449 0.142857 0
0.122449 0.122449 0
0.122449 0.102041 0
0.122449 0.0816327 0
0.122449 0.0612245 0
0.122449 0.0408163 0
0.122449 0.0204082 0
0.142857 0.979592 0
0.142857 0.959184 0
0.142857 0.938776 0
0.142857 0.918367 0
0.142857 0.897959 0
0.142857 0.877551 0
0.142857 0.857143 0
0.142857 0.836735 0
0.142857 0.816327 0
0.142857 0.795918 0
0.142857 0.77551 0
0.142857 0.755102 0
0.142857 0.734694 0
0.142857 0.714286 0
0.142857 0.693878 0
0.142857 0.673469 0
0.142857 0.653061 0
0.142857 0.632653 0
0.142857 0.612245 0
0.142857 0.591837 0
0.142857 0.571429 0
0.142857 0.55102 0
0.142857 0.530612 0
0.142857 0.510204 0
0.142857 0.489796 0
0.142857 0.469388 0
0.142857 0.44898 0
0.142857 0.428571 0
0.142857 0.408163 0
0.142857 0.387755 0
0.142857 0.367347 0
0.142857 0.346939 0
0.142857 0.326531 0
0.142857 0.306122 0
0.142857 0.285714 0
0.142857 0.265306 0
0.142857 0.244898 0
0.142857 0.22449 0
0.142857 0.204082 0
0.142857 0.183673 0
0.142857 0.163265 0
0.142857 0.142857 0
0.142857 0.122449 0
0.142857 0.102041 0
0.142857 0.0816327 0
0.142857 0.0612245 0
0.142857 0.0408163 0
0.142857 0.0204082 0
0.163265 0.979592 0
0.163265 0.959184 0
0.163265 0.938776 0
0.163265 0.918367 0
0.163265 0.897959 0
0.163265 0.877551 0
0.163265 0.857143 0
0.163265 0.836735 0
0.163265 0.816327 0
0.163265 0.795918 0
0.163265 0.77551 0
0.163265 0.755102 0
0.163265 0.734694 0
0.163265 0.714286 0
0.163265 0.693878 0
0.163265 0.673469 0
0.163265 0.653061 0
0.163265 0.632653 0
0.163265 0.612245 0
0.163265 0.591837 0
0.163265 0.571429 0
0.163265 0.55102 0
[...]
CELL_DATA 2401
VECTORS velocity double
0.257349 0.157456 0
-0.00259827 0.264746 0
-0.0321117 0.206049 0
-0.0251686 0.15168 0
-0.015893 0.11458 0
-0.00961807 0.0894626 0
-0.0059341 0.072381 0
-0.0038311 0.0604321 0
-0.00261228 0.0517441 0
-0.00187984 0.0451812 0
-0.00141926 0.0400487 0
-0.00111596 0.0359104 0
-0.000907632 0.0324847 0
-0.000759217 0.0295833 0
-0.000650133 0.0270774 0
-0.000567757 0.024876 0
-0.000504024 0.0229141 0
-0.000453595 0.021144 0
-0.000412826 0.0195306 0
-0.000379178 0.0180476 0
-0.000350846 0.0166748 0
-0.000326529 0.015397 0
-0.000305284 0.0142024 0
-0.000286424 0.0130817 0
-0.000269444 0.0120275 0
-0.000253975 0.0110338 0
-0.000239748 0.0100958 0
-0.000226561 0.00920929 0
-0.000214265 0.00837084 0
-0.000202745 0.00757738 0
-0.000191906 0.00682627 0
-0.000181665 0.00611518 0
-0.000171942 0.00544208 0
-0.000162652 0.00480529 0
-0.000153699 0.00420342 0
-0.000144971 0.0036355 0
-0.000136336 0.00310099 0
-0.00012763 0.00259983 0
-0.000118659 0.00213262 0
-0.000109182 0.0017006 0
-9.89078e-05 0.00130585 0
-8.7483e-05 0.000951361 0
-7.44818e-05 0.000641121 0
-5.94193e-05 0.000380171 0
-4.18259e-05 0.000174465 0
-2.15394e-05 3.03728e-05 0
4.4752e-07 -4.68721e-05 0
2.0154e-05 -5.85543e-05 0
2.4502e-05 -2.44189e-05 0
0.340771 0.123068 0
-4.4878e-05 0.250026 0
-0.0644087 0.273062 0
-0.0624471 0.254418 0
-0.0479622 0.22451 0
-0.0348005 0.194861 0
-0.0251876 0.169184 0
-0.0185682 0.147971 0
-0.0140561 0.130663 0
-0.0109478 0.116493 0
-0.00876473 0.104761 0
-0.0071968 0.0949081 0
-0.00604514 0.0865027 0
-0.00518091 0.0792222 0
-0.00451906 0.0728254 0
-0.00400229 0.0671316 0
-0.00359117 0.0620051 0
-0.00325806 0.0573433 0
-0.00298323 0.0530681 0
-0.00275241 0.0491193 0
-0.00255519 0.0454507 0
-0.00238387 0.0420261 0
-0.00223275 0.0388171 0
-0.0020976 0.0358012 0
-0.00197524 0.0329601 0
-0.00186332 0.0302789 0
-0.00176006 0.0277454 0
-0.00166412 0.025349 0
-0.00157447 0.0230808 0
-0.00149028 0.020933 0
-0.00141087 0.0188988 0
-0.00133561 0.0169723 0
-0.00126391 0.0151483 0
-0.00119512 0.0134225 0
-0.00112856 0.0117915 0
-0.00106345 0.0102529 0
-0.00099886 0.00880526 0
-0.000933741 0.00744872 0
-0.000866867 0.00618469 0
-0.000796834 0.00501628 0
-0.000722062 0.0039484 0
-0.000640823 0.00298786 0
-0.000551345 0.00214332 0
-0.000452047 0.00142501 0
-0.000342116 0.000843905 0
-0.000222872 0.000410032 0
-0.000100785 0.000128711 0
7.24315e-06 -6.44867e-06 0
5.83212e-05 -1.96427e-05 0
0.501448 0.076972 0
0.100481 0.184067 0
-0.03765 0.25101 0
-0.0719086 0.268275 0
-0.0709995 0.260385 0
-0.0606007 0.242507 0
-0.0493446 0.221824 0
-0.0397154 0.201621 0
-0.0321049 0.183172 0
-0.0262643 0.166787 0
-0.0218171 0.152375 0
-0.0184219 0.139697 0
-0.0158086 0.128489 0
-0.0137744 0.118507 0
-0.0121704 0.109542 0
-0.0108878 0.101424 0
-0.00984678 0.0940131 0
-0.00898886 0.0871999 0
-0.00827066 0.0808967 0
-0.00765988 0.0750339 0
-0.00713235 0.0695563 0
-0.0066699 0.0644198 0
-0.00625885 0.059589 0
-0.00588888 0.0550353 0
-0.00555219 0.0507349 0
-0.0052429 0.0466685 0
-0.00495655 0.0428194 0
-0.00468971 0.0391735 0
-0.00443971 0.0357185 0
-0.0042044 0.0324437 0
-0.00398194 0.0293396 0
-0.00377066 0.0263976 0
-0.00356891 0.0236107 0
-0.00337498 0.0209726 0
-0.00318696 0.0184786 0
-0.00300274 0.0161252 0
-0.00281986 0.0139106 0
-0.00263555 0.0118346 0
-0.00244665 0.00989936 0
-0.00224965 0.00810892 0
-0.00204077 0.00646983 0
-0.00181609 0.00499093 0
-0.001572 0.00368319 0
-0.00130587 0.00255907 0
-0.00101749 0.00163139 0
-0.000711851 0.000911255 0
-0.000404341 0.0004034 0
-0.000128278 0.000101769 0
4.54936e-05 5.06951e-07 0
0.611093 0.0482236 0
0.197859 0.134801 0
0.0139032 0.211052 0
-0.056061 0.248635 0
-0.0752099 0.259231 0
-0.0743494 0.255261 0
-0.0666802 0.243854 0
-0.0576028 0.229276 0
-0.0491491 0.21386 0
-0.0419326 0.198768 0
-0.0360005 0.184524 0
-0.0312011 0.171308 0
-0.0273353 0.159132 0
-0.0242147 0.147928 0
-0.0216796 0.137603 0
-0.0196012 0.128058 0
-0.0178784 0.119198 0
-0.0164325 0.110943 0
-0.0152028 0.103223 0
-0.0141425 0.0959789 0
-0.0132156 0.0891623 0
-0.0123945 0.0827329 0
-0.011658 0.0766573 0
-0.01099 0.0709075 0
-0.0103781 0.0654602 0
-0.00981293 0.0602954 0
-0.00928719 0.0553958 0
-0.00879534 0.0507463 0
-0.00833297 0.0463334 0
-0.00789648 0.0421451 0
-0.00748274 0.0381707 0
-0.00708886 0.0344005 0
-0.00671196 0.0308262 0
-0.00634899 0.0274406 0
-0.00599658 0.0242381 0
-0.00565093 0.0212144 0
-0.00530773 0.0183674 0
-0.00496207 0.0156968 0
-0.0046085 0.0132048 0
-0.00424105 0.0108959 0
-0.00385343 0.00877741 0
-0.00343942 0.00685883 0
-0.00299358 0.00515202 0
-0.00251246 0.00367026 0
-0.00199675 0.00242713 0
-0.00145507 0.00143483 0
-0.000910194 0.000699442 0
-0.000407214 0.000220521 0
-3.26489e-05 2.24548e-05 0
0.681926 0.0303076 0
0.281287 0.0988551 0
0.0726103 0.172186 0
-0.0253973 0.218853 0
-0.0648563 0.241925 0
-0.0764016 0.249379 0
-0.0755647 0.247117 0
-0.0698322 0.23928 0
-0.0626811 0.228532 0
-0.0556394 0.216483 0
-0.0493022 0.204068 0
-0.0438318 0.191803 0
-0.0392019 0.179955 0
-0.0353139 0.168647 0
-0.0320512 0.157919 0
-0.0293024 0.147766 0
-0.0269701 0.138166 0
-0.0249725 0.129083 0
-0.0232431 0.120483 0
-0.0217284 0.112331 0
-0.0203859 0.104597 0
-0.0191822 0.0972522 0
-0.0180911 0.0902728 0
-0.0170925 0.0836373 0
-0.0161706 0.0773268 0
-0.0153133 0.0713248 0
-0.0145114 0.065616 0
-0.0137576 0.0601868 0
-0.0130461 0.0550245 0
-0.012372 0.0501176 0
-0.0117312 0.0454553 0
-0.0111196 0.0410279 0
-0.010533 0.0368266 0
-0.00996718 0.0328439 0
-0.00941705 0.0290737 0
-0.00887708 0.0255115 0
-0.00834092 0.0221548 0
-0.00780139 0.0190031 0
-0.00725057 0.0160585 0
-0.0066799 0.0133254 0
-0.00608052 0.010811 0
-0.00544385 0.00852522 0
-0.00476261 0.0064799 0
-0.00403242 0.00468867 0
-0.00325441 0.00316592 0
-0.00243941 0.00192585 0
-0.0016143 0.00097798 0
-0.000829438 0.000330706 0
-0.000174881 4.18188e-05 0
0.731636 0.019277 0
0.352229 0.0734324 0
0.131073 0.139856 0
0.0130141 0.188513 0
-0.044836 0.218993 0
-0.0693407 0.234555 0
-0.0768802 0.239765 0
-0.0762294 0.238145 0
-0.0719607 0.232251 0
-0.0663976 0.223821 0
-0.0606747 0.213991 0
-0.0553046 0.203489 0
-0.0504815 0.192767 0
-0.0462426 0.182099 0
-0.0425526 0.171646 0
-0.0393473 0.1615 0
-0.0365556 0.151706 0
-0.0341098 0.142286 0
-0.0319496 0.133245 0
-0.030024 0.12458 0
-0.0282906 0.116284 0
-0.026715 0.108346 0
-0.0252696 0.100757 0
-0.0239329 0.0935046 0
-0.0226878 0.0865786 0
-0.0215211 0.0799682 0
-0.0204227 0.0736627 0
-0.0193845 0.0676516 0
-0.0183999 0.0619249 0
-0.0174636 0.0564726 0
-0.0165705 0.0512849 0
-0.0157157 0.046353 0
-0.0148942 0.0416683 0
-0.0141002 0.0372235 0
-0.0133274 0.0330123 0
-0.0125683 0.0290302 0
-0.0118148 0.0252744 0
-0.0110572 0.021744 0
-0.0102851 0.0184409 0
-0.00948743 0.0153691 0
-0.00865265 0.0125358 0
-0.00776975 0.00995027 0
-0.00682939 0.00762461 0
-0.00582578 0.00557277 0
-0.00475942 0.00381038 0
-0.00364127 0.00235456 0
-0.00249853 0.00121976 0
-0.00138079 0.000424381 0
-0.000372453 5.73699e-05 0
0.767776 0.0126089 0
0.411732 0.055762 0
0.185767 0.114371 0
0.0536675 0.161693 0
-0.0191225 0.19546 0
-0.0557808 0.216256 0
-0.0720937 0.226978 0
-0.0774165 0.23045 0
-0.0770463 0.228905 0
-0.073923 0.224007 0
-0.069647 0.216941 0
-0.0650635 0.20853 0
-0.0605961 0.199337 0
-0.0564363 0.189742 0
-0.0526511 0.179998 0
-0.0492431 0.170274 0
-0.0461842 0.160679 0
-0.0434338 0.151285 0
-0.0409492 0.142139 0
-0.0386898 0.13327 0
-0.03662 0.124696 0
-0.0347094 0.116427 0
-0.0329331 0.108469 0
-0.031271 0.100824 0
-0.0297073 0.0934902 0
-0.0282296 0.0864651 0
-0.0268282 0.0797439 0
-0.0254955 0.073321 0
-0.0242254 0.0671895 0
-0.0230122 0.061342 0
-0.021851 0.0557708 0
-0.0207364 0.0504681 0
-0.0196627 0.0454264 0
-0.0186233 0.0406386 0
-0.0176104 0.0360988 0
-0.0166152 0.0318022 0
-0.0156273 0.0277459 0
-0.014635 0.0239287 0
-0.0136256 0.020352 0
-0.0125851 0.0170195 0
-0.0114995 0.0139377 0
-0.0103551 0.0111158 0
-0.00914009 0.00856595 0
-0.00784656 0.00630258 0
-0.00647299 0.00434308 0
-0.0050282 0.00270807 0
-0.00353618 0.00141747 0
-0.00204086 0.000499419 0
-0.000614899 6.91722e-05 0
0.794751 0.00855656 0
0.46151 0.0433486 0
0.235534 0.094481 0
0.0940082 0.138959 0
0.00969251 0.173351 0
-0.0379055 0.197282 0
-0.0627513 0.211818 0
-0.0743538 0.219197 0
-0.0784378 0.22126 0
-0.0783844 0.219498 0
-0.0761662 0.215049 0
-0.0729173 0.208755 0
-0.0692749 0.201228 0
-0.0655848 0.192908 0
-0.062023 0.184111 0
-0.0586683 0.175062 0
-0.0555454 0.165921 0
-0.0526504 0.156804 0
-0.0499656 0.147793 0
-0.047468 0.138948 0
-0.0451339 0.130311 0
-0.0429419 0.121914 0
-0.0408731 0.113778 0
-0.0389122 0.105919 0
-0.037047 0.0983457 0
-0.0352678 0.0910646 0
-0.0335672 0.0840778 0
-0.0319393 0.0773848 0
-0.0303792 0.070983 0
-0.0288825 0.0648681 0
-0.0274446 0.0590346 0
-0.0260604 0.0534765 0
-0.0247239 0.0481871 0
-0.023428 0.0431602 0
-0.0221639 0.03839 0
-0.0209214 0.0338718 0
-0.0196884 0.0296023 0
-0.0184512 0.0255802 0
-0.0171945 0.0218062 0
-0.0159018 0.0182836 0
-0.0145563 0.0150184 0
-0.0131415 0.0120195 0
-0.0116426 0.00929917 0
-0.0100485 0.00687269 0
-0.00835439 0.00475936 0
-0.00656477 0.00298344 0
-0.00469758 0.00157022 0
-0.00278752 0.000556317 0
-0.000891918 7.76881e-05 0
0.815511 0.00604722 0
0.503367 0.0344721 0
0.280223 0.0789599 0
0.132611 0.120047 0
0.0393156 0.153757 0
-0.0174754 0.17907 0
-0.0502139 0.196086 0
-0.0680165 0.206302 0
-0.0767746 0.211206 0
-0.0801534 0.212074 0
-0.0804033 0.209943 0
-0.0788938 0.205622 0
-0.076449 0.199729 0
-0.073557 0.192731 0
-0.0704999 0.184979 0
-0.0674346 0.176735 0
-0.0644431 0.168196 0
-0.0615628 0.159512 0
-0.0588062 0.150796 0
-0.0561725 0.142132 0
-0.0536545 0.133587 0
-0.051243 0.12521 0
-0.0489287 0.117039 0
-0.0467037 0.109103 0
-0.0445617 0.101422 0
-0.0424977 0.094011 0
-0.0405083 0.0868792 0
-0.0385906 0.0800318 0
-0.0367423 0.0734705 0
-0.0349607 0.0671945 0
-0.0332427 0.0612008 0
-0.0315841 0.0554849 0
-0.0299791 0.0500414 0
-0.0284205 0.0448648 0
-0.0268989 0.0399495 0
-0.0254029 0.0352909 0
-0.0239188 0.0308853 0
-0.0224311 0.026731 0
-0.0209222 0.0228281 0
-0.019373 0.0191793 0
-0.0177636 0.0157903 0
-0.0160743 0.0126696 0
-0.0142868 0.00982974 0
-0.0123862 0.00728685 0
-0.0103627 0.00506217 0
-0.00821504 0.00318332 0
-0.00595274 0.00168031 0
-0.00359902 0.000596647 0
-0.00119408 8.34438e-05 0
0.831952 0.00445191 0
0.538841 0.0279913 0
0.320159 0.0667522 0
0.168896 0.104352 0
0.0687119 0.136679 0
0.00437709 0.162205 0
-0.0355368 0.180734 0
-0.059254 0.192923 0
-0.0726867 0.199986 0
-0.0796631 0.202979 0
-0.0826297 0.202815 0
-0.0831393 0.200244 0
-0.0821716 0.195861 0
-0.0803394 0.190134 0
-0.0780225 0.18343 0
-0.0754529 0.176033 0
-0.0727692 0.168164 0
-0.0700521 0.159997 0
-0.0673468 0.151669 0
-0.0646777 0.143287 0
-0.0620569 0.134935 0
-0.0594902 0.126682 0
-0.0569805 0.118579 0
-0.0545296 0.110667 0
-0.0521392 0.102977 0
-0.0498109 0.0955327 0
-0.0475467 0.0883503 0
-0.0453482 0.0814406 0
-0.0432167 0.0748095 0
-0.0411524 0.0684595 0
-0.0391544 0.06239 0
-0.0372199 0.0565983 0
-0.0353441 0.05108 0
-0.03352 0.0458301 0
-0.031738 0.0408433 0
-0.0299857 0.0361148 0
-0.0282484 0.0316406 0
-0.0265085 0.0274184 0
-0.0247461 0.0234477 0
-0.0229396 0.0197307 0
-0.021066 0.0162723 0
-0.019102 0.013081 0
-0.0170252 0.0101693 0
-0.0148159 0.00755422 0
-0.0124585 0.00525873 0
-0.00994424 0.00331323 0
-0.00727302 0.00175153 0
-0.00445516 0.000622333 0
-0.00151309 8.6924e-05 0
0.845294 0.00340494 0
0.569166 0.0231572 0
0.355807 0.0570563 0
0.20264 0.0913185 0
0.0972128 0.121926 0
0.0266221 0.147042 0
-0.0195541 0.166268 0
-0.0487695 0.17976 0
-0.0667356 0.188404 0
-0.0773376 0.193061 0
-0.0831479 0.194517 0
-0.0858553 0.193445 0
-0.0865636 0.190403 0
-0.0859914 0.185843 0
-0.0846045 0.180132 0
-0.0827032 0.173564 0
-0.0804804 0.166375 0
-0.078059 0.158755 0
-0.0755177 0.15086 0
-0.072907 0.142814 0
-0.0702602 0.134717 0
-0.0676004 0.126653 0
-0.0649445 0.118685 0
-0.0623059 0.110868 0
-0.0596959 0.103241 0
-0.0571246 0.0958354 0
-0.0546007 0.0886745 0
-0.0521317 0.0817741 0
-0.0497235 0.0751444 0
-0.0473804 0.0687907 0
-0.0451041 0.0627148 0
-0.0428943 0.0569153 0
-0.0407475 0.0513888 0
-0.0386573 0.0461307 0
-0.0366143 0.0411356 0
-0.0346056 0.0363985 0
-0.0326153 0.0319149 0
-0.0306241 0.0276818 0
-0.0286099 0.023698 0
-0.0265484 0.0199648 0
-0.0244132 0.0164867 0
-0.0221772 0.0132717 0
-0.0198134 0.0103325 0
-0.0172965 0.00768661 0
-0.0146044 0.00535822 0
-0.0117198 0.00337985 0
-0.008632 0.00178815 0
-0.00533773 0.000635302 0
-0.00184178 8.85405e-05 0
0.856346 0.002693 0
0.595316 0.0194738 0
0.387672 0.049268 0
0.233849 0.0804451 0
0.124486 0.109199 0
0.048703 0.133554 0
-0.00285692 0.152899 0
-0.0371206 0.1672 0
-0.0593964 0.176956 0
-0.0735603 0.182884 0
-0.0822537 0.185641 0
-0.0872598 0.185821 0
-0.0897781 0.183935 0
-0.0906134 0.18041 0
-0.0903045 0.175604 0
-0.0892125 0.16981 0
-0.0875793 0.163272 0
-0.085568 0.156193 0
-0.0832897 0.148738 0
-0.0808215 0.141048 0
-0.0782187 0.133235 0
-0.0755227 0.125396 0
-0.0727658 0.117606 0
-0.0699747 0.109929 0
-0.0671721 0.102413 0
-0.0643776 0.0950979 0
-0.0616083 0.0880118 0
-0.0588786 0.0811755 0
-0.0562002 0.0746028 0
-0.0535821 0.0683019 0
-0.05103 0.062276 0
-0.048546 0.0565252 0
-0.0461288 0.0510466 0
-0.0437732 0.0458356 0
-0.0414701 0.0408868 0
-0.0392064 0.0361944 0
-0.0369651 0.0317534 0
-0.0347255 0.0275598 0
-0.0324631 0.0236117 0
-0.0301509 0.0199094 0
-0.027759 0.0164567 0
-0.0252561 0.0132613 0
-0.0226102 0.0103353 0
-0.01979 0.00769663 0
-0.016766 0.00537027 0
-0.0135119 0.00339002 0
-0.0100057 0.00179428 0
-0.00623059 0.000637306 0
-0.00217399 8.86283e-05 0
0.865665 0.0021909 0
0.618062 0.0166097 0
0.416231 0.0429391 0
0.262638 0.0713175 0
0.150371 0.098208 0
0.0703029 0.121601 0
0.0141233 0.140696 0
-0.0247243 0.155422 0
-0.0510506 0.165929 0
-0.0686593 0.172802 0
-0.0802162 0.176584 0
-0.0875659 0.177788 0
-0.0919781 0.176876 0
-0.0943254 0.174246 0
-0.0952073 0.170238 0
-0.0950367 0.165142 0
-0.0940991 0.159203 0
-0.0925943 0.15263 0
-0.0906639 0.145599 0
-0.088411 0.138259 0
-0.0859131 0.130736 0
-0.0832305 0.123135 0
-0.0804122 0.115544 0
-0.0774993 0.108033 0
-0.0745271 0.10066 0
-0.0715263 0.0934701 0
-0.0685234 0.0864973 0
-0.0655409 0.0797664 0
-0.0625974 0.0732941 0
-0.0597073 0.0670909 0
-0.0568809 0.0611614 0
-0.0541238 0.0555062 0
-0.0514371 0.0501228 0
-0.0488171 0.0450064 0
-0.0462555 0.040151 0
-0.043739 0.03555 0
-0.0412499 0.0311975 0
-0.0387658 0.0270885 0
-0.0362603 0.0232199 0
-0.0337033 0.0195911 0
-0.0310613 0.016205 0
-0.0282986 0.0130683 0
-0.0253779 0.0101929 0
-0.0222613 0.00759648 0
-0.0189117 0.0053041 0
-0.0152934 0.0033501 0
-0.0113729 0.00177369 0
-0.00711956 0.000629852 0
-0.00250448 8.74502e-05 0
0.873638 0.00182436 0
0.638007 0.0143417 0
0.441914 0.0377398 0
0.289175 0.0636084 0
0.174813 0.0887006 0
0.0912031 0.111034 0
0.0309843 0.129697 0
-0.0119224 0.144513 0
-0.0420122 0.155492 0
-0.0629123 0.163039 0
-0.0772734 0.167604 0
-0.0869712 0.169628 0
-0.0933235 0.169519 0
-0.097254 0.167643 0
-0.0994105 0.164322 0
-0.100249 0.159836 0
-0.100093 0.154429 0
-0.0991737 0.148313 0
-0.097662 0.14167 0
-0.0956856 0.134658 0
-0.0933436 0.127412 0
-0.0907159 0.120047 0
-0.0878688 0.112659 0
-0.0848589 0.105327 0
-0.0817352 0.0981148 0
-0.0785407 0.0910733 0
-0.0753123 0.0842411 0
-0.072082 0.0776465 0
-0.0688759 0.0713086 0
-0.0657151 0.0652394 0
-0.0626147 0.0594444 0
-0.0595846 0.0539245 0
-0.0566287 0.0486769 0
-0.0537451 0.0436962 0
-0.0509265 0.0389755 0
-0.0481599 0.0345073 0
-0.0454266 0.0302842 0
-0.0427031 0.0263002 0
-0.0399605 0.0225508 0
-0.0371658 0.0190342 0
-0.0342818 0.015752 0
-0.0312681 0.0127102 0
-0.0280819 0.00991954 0
-0.0246787 0.00739727 0
-0.0210131 0.00516797 0
-0.0170399 0.00326569 0
-0.0127143 0.00172955 0
-0.00799219 0.000614175 0
-0.00282874 8.52056e-05 0
0.880545 0.00154814 0
0.655626 0.0125153 0
0.465097 0.0334216 0
0.313644 0.0570491 0
0.197828 0.0804381 0
0.111307 0.101669 0
0.0475827 0.119771 0
0.00107031 0.134456 0
-0.0325221 0.145702 0
-0.0565481 0.153707 0
-0.0736303 0.158857 0
-0.0856538 0.161521 0
-0.0939652 0.162059 0
-0.0995246 0.160804 0
-0.103017 0.158057 0
-0.104932 0.154088 0
-0.105624 0.149138 0
-0.105355 0.143418 0
-0.10432 0.137117 0
-0.102669 0.130399 0
-0.100525 0.123408 0
-0.0979843 0.116265 0
-0.0951333 0.109075 0
-0.0920443 0.101923 0
-0.0887813 0.0948802 0
-0.0854004 0.0880015 0
-0.0819505 0.0813293 0
-0.0784736 0.0748945 0
-0.0750046 0.0687182 0
-0.0715717 0.062813 0
-0.0681959 0.0571849 0
-0.0648914 0.0518345 0
-0.0616654 0.0467581 0
-0.0585185 0.0419495 0
-0.0554444 0.0374004 0
-0.0524302 0.033102 0
-0.0494569 0.0290454 0
-0.0464992 0.025223 0
-0.0435263 0.0216289 0
-0.040502 0.0182598 0
-0.0373853 0.015116 0
-0.034131 0.012202 0
-0.0306906 0.00952752 0
-0.0270128 0.00710864 0
-0.023044 0.00496895 0
-0.0187295 0.0031415 0
-0.014013 0.00166449 0
-0.00883744 0.000591253 0
-0.00314281 8.20395e-05 0
0.886592 0.00133401 0
0.671299 0.0110217 0
0.486099 0.0297978 0
0.336229 0.0514275 0
0.21946 0.0732248 0
0.13055 0.0933546 0
0.0637725 0.110822 0
0.0140334 0.125239 0
-0.0227723 0.136565 0
-0.0497528 0.144856 0
-0.0694614 0.150423 0
-0.0837713 0.153571 0
-0.0940424 0.154614 0
-0.101258 0.153855 0
-0.106128 0.151574 0
-0.10917 0.148029 0
-0.110765 0.143456 0
-0.111196 0.138068 0
-0.110682 0.132056 0
-0.109396 0.125591 0
-0.107479 0.118823 0
-0.10505 0.111882 0
-0.102211 0.104877 0
-0.099054 0.0979015 0
-0.0956574 0.0910305 0
-0.092092 0.0843234 0
-0.0884196 0.0778255 0
-0.0846933 0.0715695 0
-0.0809576 0.0655775 0
-0.0772484 0.0598624 0
-0.0735933 0.0544298 0
-0.0700114 0.0492793 0
-0.0665136 0.0444061 0
-0.0631028 0.0398025 0
-0.059774 0.0354587 0
-0.0565148 0.031364 0
-0.0533055 0.0275078 0
-0.0501195 0.0238808 0
-0.0469236 0.0204753 0
-0.0436786 0.0172864 0
-0.0403395 0.0143125 0
-0.0368565 0.0115568 0
-0.0331751 0.00902736 0
-0.0292371 0.00673871 0
-0.0249809 0.00471292 0
-0.0203422 0.00298136 0
-0.0152537 0.00158059 0
-0.00964546 0.000561829 0
-0.00344321 7.80522e-05 0
0.891934 0.00116374 0
0.685324 0.0097826 0
0.505196 0.026725 0
0.357103 0.0465719 0
0.239778 0.0668916 0
0.148912 0.0859451 0
0.0794743 0.102732 0
0.0268198 0.1168 0
-0.0129202 0.128058 0
-0.0426847 0.136493 0
-0.0649179 0.142331 0
-0.0814643 0.145824 0
-0.0936825 0.147245 0
-0.102567 0.146865 0
-0.108844 0.144946 0
-0.113051 0.141733 0
-0.115587 0.137459 0
-0.116756 0.132335 0
-0.116798 0.126557 0
-0.115904 0.1203 0
-0.114235 0.113721 0
-0.111932 0.106956 0
-0.109114 0.100121 0
-0.105891 0.0933141 0
-0.10236 0.0866148 0
-0.0986059 0.0800855 0
-0.0947048 0.0737737 0
-0.0907218 0.0677131 0
-0.0867119 0.061926 0
-0.0827195 0.0564249 0
-0.078779 0.0512141 0
-0.074915 0.046292 0
-0.0711421 0.0416519 0
-0.0674659 0.0372842 0
-0.0638829 0.0331771 0
-0.060381 0.0293178 0
-0.0569399 0.0256938 0
-0.0535316 0.0222937 0
-0.0501207 0.0191078 0
-0.0466647 0.0161292 0
-0.0431147 0.0133548 0
-0.0394161 0.0107855 0
-0.0355086 0.00842782 0
-0.0313271 0.00629417 0
-0.0268021 0.00440464 0
-0.0218598 0.0027883 0
-0.0164222 0.00147945 0
-0.0104073 0.00052645 0
-0.00372676 7.3308e-05 0
0.896688 0.00102505 0
0.697944 0.00873967 0
0.522618 0.0240907 0
0.376422 0.0423405 0
0.258852 0.0612897 0
0.166394 0.0792989 0
0.0946367 0.0953762 0
0.0393516 0.10903 0
-0.00308591 0.120114 0
-0.0354769 0.128581 0
-0.0601316 0.134565 0
-0.0788583 0.138282 0
-0.0930024 0.139965 0
-0.103558 0.139856 0
-0.111261 0.1382 0
-0.116658 0.135231 0
-0.120164 0.131177 0
-0.122099 0.12625 0
-0.122718 0.12065 0
-0.122233 0.114556 0
-0.120825 0.10813 0
-0.118651 0.101516 0
-0.115854 0.0948344 0
-0.112561 0.0881882 0
-0.108887 0.08166 0
-0.104934 0.0753146 0
-0.100792 0.0692005 0
-0.0965412 0.0633518 0
-0.092246 0.05779 0
-0.0879604 0.0525263 0
-0.0837262 0.0475633 0
-0.0795736 0.0428972 0
-0.0755213 0.0385192 0
-0.0715776 0.0344172 0
-0.0677404 0.0305769 0
-0.063998 0.0269833 0
-0.0603295 0.0236217 0
-0.0567054 0.0204781 0
-0.0530879 0.017541 0
-0.0494314 0.0148014 0
-0.0456831 0.0122538 0
-0.0417834 0.00989736 0
-0.0376663 0.00773617 0
-0.0332601 0.00578052 0
-0.0284874 0.00404795 0