# vtk DataFile Version 3.0
Malha 2D com triângulos e temperatura
ASCII
DATASET UNSTRUCTURED_GRID

POINTS 2500 double
0 0 0
1 0 0
1 1 0
0 1 0
0.0204082 0 0
0.0408163 0 0
0.0612245 0 0
0.0816327 0 0
0.102041 0 0
0.122449 0 0
0.142857 0 0
0.163265 0 0
0.183673 0 0
0.204082 0 0
0.22449 0 0
0.244898 0 0
0.265306 0 0
0.285714 0 0
0.306122 0 0
0.326531 0 0
0.346939 0 0
0.367347 0 0
0.387755 0 0
0.408163 0 0
0.428571 0 0
0.44898 0 0
0.469388 0 0
0.489796 0 0
0.510204 0 0
0.530612 0 0
0.55102 0 0
0.571429 0 0
0.591837 0 0
0.612245 0 0
0.632653 0 0
0.653061 0 0
0.673469 0 0
0.693878 0 0
0.714286 0 0
0.734694 0 0
0.755102 0 0
0.77551 0 0
0.795918 0 0
0.816327 0 0
0.836735 0 0
0.857143 0 0
0.877551 0 0
0.897959 0 0
0.918367 0 0
0.938776 0 0
0.959184 0 0
0.979592 0 0
1 0.0204082 0
1 0.0408163 0
1 0.0612245 0
1 0.0816327 0
1 0.102041 0
1 0.122449 0
1 0.142857 0
1 0.163265 0
1 0.183673 0
1 0.204082 0
1 0.22449 0
1 0.244898 0
1 0.265306 0
1 0.285714 0
1 0.306122 0
1 0.326531 0
1 0.346939 0
1 0.367347 0
1 0.387755 0
1 0.408163 0
1 0.428571 0
1 0.44898 0
1 0.469388 0
1 0.489796 0
1 0.510204 0
1 0.530612 0
1 0.55102 0
1 0.571429 0
1 0.591837 0
1 0.612245 0
1 0.632653 0
1 0.653061 0
1 0.673469 0
1 0.693878 0
1 0.714286 0
1 0.734694 0
1 0.755102 0
1 0.77551 0
1 0.795918 0
1 0.816327 0
1 0.836735 0
1 0.857143 0
1 0.877551 0
1 0.897959 0
1 0.918367 0
1 0.938776 0
1 0.959184 0
1 0.979592 0
0.979592 1 0
0.959184 1 0
0.938776 1 0
0.918367 1 0
0.897959 1 0
0.877551 1 0
0.857143 1 0
0.836735 1 0
0.816327 1 0
0.795918 1 0
0.77551 1 0
0.755102 1 0
0.734694 1 0
0.714286 1 0
0.693878 1 0
0.673469 1 0
0.653061 1 0
0.632653 1 0
0.612245 1 0
0.591837 1 0
0.571429 1 0
0.55102 1 0
0.530612 1 0
0.510204 1 0
0.489796 1 0
0.469388 1 0
0.44898 1 0
0.428571 1 0
0.408163 1 0
0.387755 1 0
0.367347 1 0
0.346939 1 0
0.326531 1 0
0.306122 1 0
0.285714 1 0
0.265306 1 0
0.244898 1 0
0.22449 1 0
0.204082 1 0
0.183673 1 0
0.163265 1 0
0.142857 1 0
0.122449 1 0
0.102041 1 0
0.0816327 1 0
0.0612245 1 0
0.0408163 1 0
0.0204082 1 0
0 0.979592 0
0 0.959184 0
0 0.938776 0
0 0.918367 0
0 0.897959 0
0 0.877551 0
0 0.857143 0
0 0.836735 0
0 0.816327 0
0 0.795918 0
0 0.77551 0
0 0.755102 0
0 0.734694 0
0 0.714286 0
0 0.693878 0
0 0.673469 0
0 0.653061 0
0 0.632653 0
0 0.612245 0
0 0.591837 0
0 0.571429 0
0 0.55102 0
0 0.530612 0
0 0.510204 0
0 0.489796 0
0 0.469388 0
0 0.44898 0
0 0.428571 0
0 0.408163 0
0 0.387755 0
0 0.367347 0
0 0.346939 0
0 0.326531 0
0 0.306122 0
0 0.285714 0
0 0.265306 0
0 0.244898 0
0 0.22449 0
0 0.204082 0
0 0.183673 0
0 0.163265 0
0 0.142857 0
0 0.122449 0
0 0.102041 0
0 0.0816327 0
0 0.0612245 0
0 0.0408163 0
0 0.0204082 0
0.0204082 0.979592 0
0.0204082 0.959184 0
0.0204082 0.938776 0
0.0204082 0.918367 0
0.0204082 0.897959 0
0.0204082 0.877551 0
0.0204082 0.857143 0
0.0204082 0.836735 0
0.0204082 0.816327 0
0.0204082 0.795918 0
0.0204082 0.77551 0
0.0204082 0.755102 0
0.0204082 0.734694 0
0.0204082 0.714286 0
0.0204082 0.693878 0
0.0204082 0.673469 0
0.0204082 0.653061 0
0.0204082 0.632653 0
0.0204082 0.612245 0
0.0204082 0.591837 0
0.0204082 0.571429 0
0.0204082 0.55102 0
0.0204082 0.530612 0
0.0204082 0.510204 0
0.0204082 0.489796 0
0.0204082 0.469388 0
0.0204082 0.44898 0
0.0204082 0.428571 0
0.0204082 0.408163 0
0.0204082 0.387755 0
0.0204082 0.367347 0
0.0204082 0.346939 0
0.0204082 0.326531 0
0.0204082 0.306122 0
0.0204082 0.285714 0
0.0204082 0.265306 0
0.0204082 0.244898 0
0.0204082 0.22449 0
0.0204082 0.204082 0
0.0204082 0.183673 0
0.0204082 0.163265 0
0.0204082 0.142857 0
0.0204082 0.122449 0
0.0204082 0.102041 0
0.0204082 0.0816327 0
0.0204082 0.0612245 0
0.0204082 0.0408163 0
0.0204082 0.0204082 0
0.0408163 0.979592 0
0.0408163 0.959184 0
0.0408163 0.938776 0
0.0408163 0.918367 0
0.0408163 0.897959 0
0.0408163 0.877551 0
0.0408163 0.857143 0
0.0408163 0.836735 0
0.0408163 0.816327 0
0.0408163 0.795918 0
0.0408163 0.77551 0
0.0408163 0.755102 0
0.0408163 0.734694 0
0.0408163 0.714286 0
0.0408163 0.693878 0
0.0408163 0.673469 0
0.0408163 0.653061 0
0.0408163 0.632653 0
0.0408163 0.612245 0
0.0408163 0.591837 0
0.0408163 0.571429 0
0.0408163 0.55102 0
0.0408163 0.530612 0
0.0408163 0.510204 0
0.0408163 0.489796 0
0.0408163 0.469388 0
0.0408163 0.44898 0
0.0408163 0.428571 0
0.0408163 0.408163 0
0.0408163 0.387755 0
0.0408163 0.367347 0
0.0408163 0.346939 0
0.0408163 0.326531 0
0.0408163 0.306122 0
0.0408163 0.285714 0
0.0408163 0.265306 0
0.0408163 0.244898 0
0.0408163 0.22449 0
0.0408163 0.204082 0
0.0408163 0.183673 0
0.0408163 0.163265 0
0.0408163 0.142857 0
0.0408163 0.122449 0
0.0408163 0.102041 0
0.0408163 0.0816327 0
0.0408163 0.0612245 0
0.0408163 0.0408163 0
0.0408163 0.0204082 0
0.0612245 0.979592 0
0.0612245 0.959184 0
0.0612245 0.938776 0
0.0612245 0.918367 0
0.0612245 0.897959 0
0.0612245 0.877551 0
0.0612245 0.857143 0
0.0612245 0.836735 0
0.0612245 0.816327 0
0.0612245 0.795918 0
0.0612245 0.77551 0
0.0612245 0.755102 0
0.0612245 0.734694 0
0.0612245 0.714286 0
0.0612245 0.693878 0
0.0612245 0.673469 0
0.0612245 0.653061 0
0.0612245 0.632653 0
0.0612245 0.612245 0
0.0612245 0.591837 0
0.0612245 0.571429 0
0.0612245 0.55102 0
0.0612245 0.530612 0
0.0612245 0.510204 0
0.0612245 0.489796 0
0.0612245 0.469388 0
0.0612245 0.44898 0
0.0612245 0.428571 0
0.0612245 0.408163 0
0.0612245 0.387755 0
0.0612245 0.367347 0
0.0612245 0.346939 0
0.0612245 0.326531 0
0.0612245 0.306122 0
0.0612245 0.285714 0
0.0612245 0.265306 0
0.0612245 0.244898 0
0.0612245 0.22449 0
0.0612245 0.204082 0
0.0612245 0.183673 0
0.0612245 0.163265 0
0.0612245 0.142857 0
0.0612245 0.122449 0
0.0612245 0.102041 0
0.0612245 0.0816327 0
0.0612245 0.0612245 0
0.0612245 0.0408163 0
0.0612245 0.0204082 0
0.0816327 0.979592 0
0.0816327 0.959184 0
0.0816327 0.938776 0
0.0816327 0.918367 0
0.0816327 0.897959 0
0.0816327 0.877551 0
0.0816327 0.857143 0
0.0816327 0.836735 0
0.0816327 0.816327 0
0.0816327 0.795918 0
0.0816327 0.77551 0
0.0816327 0.755102 0
0.0816327 0.734694 0
0.0816327 0.714286 0
0.0816327 0.693878 0
0.0816327 0.673469 0
0.0816327 0.653061 0
0.0816327 0.632653 0
0.0816327 0.612245 0
0.0816327 0.591837 0
0.0816327 0.571429 0
0.0816327 0.55102 0
0.0816327 0.530612 0
0.0816327 0.510204 0
0.0816327 0.489796 0
0.0816327 0.469388 0
0.0816327 0.44898 0
0.0816327 0.428571 0
0.0816327 0.408163 0
0.0816327 0.387755 0
0.0816327 0.367347 0
0.0816327 0.346939 0
0.0816327 0.326531 0
0.0816327 0.306122 0
0.0816327 0.285714 0
0.0816327 0.265306 0
0.0816327 0.244898 0
0.0816327 0.22449 0
0.0816327 0.204082 0
0.0816327 0.183673 0
0.0816327 0.163265 0
0.0816327 0.142857 0
0.0816327 0.122449 0
0.0816327 0.102041 0
0.0816327 0.0816327 0
0.0816327 0.0612245 0
0.0816327 0.0408163 0
0.0816327 0.0204082 0
0.102041 0.979592 0
0.102041 0.959184 0
0.102041 0.938776 0
0.102041 0.918367 0
0.102041 0.897959 0
0.102041 0.877551 0
0.102041 0.857143 0
0.102041 0.836735 0
0.102041 0.816327 0
0.102041 0.795918 0
0.102041 0.77551 0
0.102041 0.755102 0
0.102041 0.734694 0
0.102041 0.714286 0
0.102041 0.693878 0
0.102041 0.673469 0
0.102041 0.653061 0
0.102041 0.632653 0
0.102041 0.612245 0
0.102041 0.591837 0
0.102041 0.571429 0
0.102041 0.55102 0
0.102041 0.530612 0
0.102041 0.510204 0
0.102041 0.489796 0
0.102041 0.469388 0
0.102041 0.44898 0
0.102041 0.428571 0
0.102041 0.408163 0
0.102041 0.387755 0
0.102041 0.367347 0
0.102041 0.346939 0
0.102041 0.326531 0
0.102041 0.306122 0
0.102041 0.285714 0
0.102041 0.265306 0
0.102041 0.244898 0
0.102041 0.22449 0
0.102041 0.204082 0
0.102041 0.183673 0
0.102041 0.163265 0
0.102041 0.142857 0
0.102041 0.122449 0
0.102041 0.102041 0
0.102041 0.0816327 0
0.102041 0.0612245 0
0.102041 0.0408163 0
0.102041 0.0204082 0
0.122449 0.979592 0
0.122449 0.959184 0
0.122449 0.938776 0
0.122449 0.918367 0
0.122449 0.897959 0
0.122449 0.877551 0
0.122449 0.857143 0
0.122449 0.836735 0
0.122449 0.816327 0
0.122449 0.795918 0
0.122449 0.77551 0
0.122449 0.755102 0
0.122449 0.734694 0
0.122449 0.714286 0
0.122449 0.693878 0
0.122449 0.673469 0
0.122449 0.653061 0
0.122449 0.632653 0
0.122449 0.612245 0
0.122449 0.591837 0
0.122449 0.571429 0
0.122449 0.55102 0
0.122449 0.530612 0
0.122449 0.510204 0
0.122449 0.489796 0
0.122449 0.469388 0
0.122449 0.44898 0
0.122449 0.428571 0
0.122449 0.408163 0
0.122449 0.387755 0
0.122449 0.367347 0
0.122449 0.346939 0
0.122449 0.326531 0
0.122449 0.306122 0
0.122449 0.285714 0
0.122449 0.265306 0
0.122449 0.244898 0
0.122449 0.22449 0
0.122449 0.204082 0
0.122449 0.183673 0
0.122449 0.163265 0
0.122449 0.142857 0
0.122449 0.122449 0
0.122449 0.102041 0
0.122449 0.0816327 0
0.122449 0.0612245 0
0.122449 0.0408163 0
0.122449 0.0204082 0
0.142857 0.979592 0
0.142857 0.959184 0
0.142857 0.938776 0
0.142857 0.918367 0
0.142857 0.897959 0
0.142857 0.877551 0
0.142857 0.857143 0
0.142857 0.836735 0
0.142857 0.816327 0
0.142857 0.795918 0
0.142857 0.77551 0
0.142857 0.755102 0
0.142857 0.734694 0
0.142857 0.714286 0
0.142857 0.693878 0
0.142857 0.673469 0
0.142857 0.653061 0
0.142857 0.632653 0
0.142857 0.612245 0
0.142857 0.591837 0
0.142857 0.571429 0
0.142857 0.55102 0
0.142857 0.530612 0
0.142857 0.510204 0
0.142857 0.489796 0
0.142857 0.469388 0
0.142857 0.44898 0
0.142857 0.428571 0
0.142857 0.408163 0
0.142857 0.387755 0
0.142857 0.367347 0
0.142857 0.346939 0
0.142857 0.326531 0
0.142857 0.306122 0
0.142857 0.285714 0
0.142857 0.265306 0
0.142857 0.244898 0
0.142857 0.22449 0
0.142857 0.204082 0
0.142857 0.183673 0
0.142857 0.163265 0
0.142857 0.142857 0
0.142857 0.122449 0
0.142857 0.102041 0
0.142857 0.0816327 0
0.142857 0.0612245 0
0.142857 0.0408163 0
0.142857 0.0204082 0
0.163265 0.979592 0
0.163265 0.959184 0
0.163265 0.938776 0
0.163265 0.918367 0
0.163265 0.897959 0
0.163265 0.877551 0
0.163265 0.857143 0
0.163265 0.836735 0
0.163265 0.816327 0
0.163265 0.795918 0
0.163265 0.77551 0
0.163265 0.755102 0
0.163265 0.734694 0
0.163265 0.714286 0
0.163265 0.693878 0
0.163265 0.673469 0
0.163265 0.653061 0
0.163265 0.632653 0
0.163265 0.612245 0
0.163265 0.591837 0
0.163265 0.571429 0
0.163265 0.55102 0
[...]
CELL_DATA 2401
VECTORS velocity double
0.257354 0.157462 0.0
-0.00271796 0.264569 0.0
-0.0323305 0.205409 0.0
-0.0254063 0.150487 0.0
-0.0160784 0.11291 0.0
-0.00971261 0.0875266 0.0
-0.00592968 0.070447 0.0
-0.00373835 0.0587652 0.0
-0.00245027 0.0505699 0.0
-0.00166948 0.0446713 0.0
-0.00117978 0.0403182 0.0
-0.000863526 0.0370229 0.0
-0.000655107 0.0344593 0.0
-0.000516455 0.0324033 0.0
-0.000424468 0.0306972 0.0
-0.000364487 0.0292288 0.0
-0.000326827 0.0279169 0.0
-0.000304857 0.0267028 0.0
-0.000293883 0.0255443 0.0
-0.000290496 0.0244112 0.0
-0.000292153 0.0232828 0.0
-0.000296921 0.0221457 0.0
-0.000303312 0.0209919 0.0
-0.000310173 0.0198178 0.0
-0.00031661 0.0186235 0.0
-0.000321943 0.0174115 0.0
-0.000325669 0.0161864 0.0
-0.000327429 0.0149543 0.0
-0.000326992 0.0137223 0.0
-0.00032423 0.0124983 0.0
-0.000319101 0.0112902 0.0
-0.000311633 0.0101063 0.0
-0.000301904 0.00895458 0.0
-0.000290026 0.00784277 0.0
-0.000276135 0.00677823 0.0
-0.00026037 0.00576789 0.0
-0.000242862 0.0048182 0.0
-0.00022372 0.00393522 0.0
-0.000203021 0.00312463 0.0
-0.000180791 0.00239182 0.0
-0.000156995 0.00174201 0.0
-0.000131528 0.00118035 0.0
-0.000104219 0.000711921 0.0
-7.48805e-05 0.000341755 0.0
-4.34886e-05 7.43615e-05 0.0
-1.07073e-05 -8.73399e-05 0.0
2.07692e-05 -0.000144503 0.0
4.3459e-05 -0.000111523 0.0
3.79923e-05 -3.77943e-05 0.0
0.340585 0.122945 0.0
-0.000712016 0.24936 0.0
-0.0653304 0.271499 0.0
-0.0633561 0.251976 0.0
-0.0485981 0.221418 0.0
-0.0350043 0.191536 0.0
-0.0249123 0.16614 0.0
-0.0178485 0.145731 0.0
-0.012972 0.129691 0.0
-0.00959715 0.117158 0.0
-0.00724505 0.107322 0.0
-0.00559641 0.0995157 0.0
-0.00443905 0.0932084 0.0
-0.00363012 0.0879924 0.0
-0.00307149 0.0835568 0.0
-0.00269429 0.0796655 0.0
-0.00244913 0.0761409 0.0
-0.0022999 0.07285 0.0
-0.0022197 0.0696948 0.0
-0.00218814 0.0666044 0.0
-0.00218954 0.063529 0.0
-0.00221169 0.060436 0.0
-0.00224504 0.0573061 0.0
-0.0022821 0.0541306 0.0
-0.00231701 0.0509093 0.0
-0.00234529 0.0476485 0.0
-0.00236356 0.0443595 0.0
-0.0023694 0.0410574 0.0
-0.00236119 0.0377599 0.0
-0.00233799 0.0344863 0.0
-0.00229937 0.0312568 0.0
-0.00224539 0.0280918 0.0
-0.00217641 0.0250118 0.0
-0.00209303 0.0220363 0.0
-0.00199601 0.0191842 0.0
-0.00188618 0.0164733 0.0
-0.00176435 0.0139204 0.0
-0.00163127 0.0115412 0.0
-0.00148757 0.0093505 0.0
-0.00133375 0.00736209 0.0
-0.00117014 0.005589 0.0
-0.000997029 0.00404339 0.0
-0.000814778 0.00273637 0.0
-0.000624328 0.00167727 0.0
-0.000428161 0.000872283 0.0
-0.00023248 0.000321632 0.0
-5.16672e-05 1.4463e-05 0.0
8.42439e-05 -8.25053e-05 0.0
0.000110934 -4.22521e-05 0.0
0.50081 0.0767786 0.0
0.0989471 0.183147 0.0
-0.0395283 0.249084 0.0
-0.0735864 0.265514 0.0
-0.0719964 0.257189 0.0
-0.0606119 0.239424 0.0
-0.04827 0.219491 0.0
-0.0376187 0.200674 0.0
-0.0291526 0.184178 0.0
-0.0226717 0.170203 0.0
-0.0178102 0.158523 0.0
-0.0142131 0.148765 0.0
-0.0115848 0.140536 0.0
-0.0096922 0.133479 0.0
-0.00835602 0.12729 0.0
-0.00743899 0.12172 0.0
-0.00683606 0.11657 0.0
-0.00646637 0.111686 0.0
-0.00626718 0.106952 0.0
-0.00618948 0.102281 0.0
-0.00619464 0.097612 0.0
-0.00625206 0.0929061 0.0
-0.00633745 0.0881402 0.0
-0.00643156 0.0833054 0.0
-0.00651929 0.078404 0.0
-0.00658896 0.0734467 0.0
-0.00663177 0.068451 0.0
-0.00664136 0.0634394 0.0
-0.00661343 0.058438 0.0
-0.00654543 0.0534749 0.0
-0.00643619 0.0485796 0.0
-0.0062857 0.0437818 0.0
-0.00609483 0.0391111 0.0
-0.00586505 0.034596 0.0
-0.00559827 0.0302641 0.0
-0.00529658 0.0261414 0.0
-0.00496215 0.0222524 0.0
-0.00459702 0.0186202 0.0
-0.00420309 0.0152662 0.0
-0.00378205 0.0122104 0.0
-0.00333552 0.00947132 0.0
-0.00286527 0.00706556 0.0
-0.00237388 0.00500755 0.0
-0.00186586 0.00330833 0.0
-0.00134992 0.00197372 0.0
-0.000843048 0.00100116 0.0
-0.000377977 0.000373811 0.0
-1.33364e-05 5.2869e-05 0.0
0.000141391 -1.87266e-05 0.0
0.609912 0.0480223 0.0
0.19543 0.133899 0.0
0.0111067 0.209319 0.0
-0.0582595 0.24631 0.0
-0.0761768 0.25687 0.0
-0.0736793 0.253508 0.0
-0.0642468 0.243408 0.0
-0.0535134 0.230814 0.0
-0.0436672 0.217976 0.0
-0.0354025 0.205935 0.0
-0.0287904 0.19507 0.0
-0.0236646 0.185416 0.0
-0.0197897 0.176844 0.0
-0.0169308 0.169159 0.0
-0.014879 0.16216 0.0
-0.0134583 0.155656 0.0
-0.0125238 0.149484 0.0
-0.0119576 0.143512 0.0
-0.0116645 0.137633 0.0
-0.0115674 0.131769 0.0
-0.0116041 0.125865 0.0
-0.0117242 0.119886 0.0
-0.0118872 0.113814 0.0
-0.0120606 0.107646 0.0
-0.0122189 0.101389 0.0
-0.012342 0.0950594 0.0
-0.0124148 0.0886825 0.0
-0.0124265 0.0822873 0.0
-0.0123696 0.0759069 0.0
-0.0122398 0.0695765 0.0
-0.0120351 0.0633329 0.0
-0.0117555 0.0572128 0.0
-0.0114025 0.0512524 0.0
-0.0109787 0.0454869 0.0
-0.0104875 0.03995 0.0
-0.00993271 0.0346736 0.0
-0.00931811 0.029688 0.0
-0.00864757 0.0250211 0.0
-0.00792477 0.0206992 0.0
-0.00715326 0.0167463 0.0
-0.00633669 0.0131846 0.0
-0.00547937 0.0100334 0.0
-0.0045873 0.00730898 0.0
-0.00367001 0.0050233 0.0
-0.00274381 0.00318217 0.0
-0.0018372 0.0017828 0.0
-0.000999762 0.000807955 0.0
-0.00031311 0.000223848 0.0
8.31425e-05 1.21812e-05 0.0
0.680264 0.0301399 0.0
0.278149 0.0981416 0.0
0.0693058 0.17093 0.0
-0.0276924 0.21746 0.0
-0.065285 0.240997 0.0
-0.074488 0.249619 0.0
-0.071186 0.249245 0.0
-0.0631593 0.243971 0.0
-0.0540861 0.236366 0.0
-0.045603 0.227907 0.0
-0.0383403 0.219382 0.0
-0.0324451 0.211159 0.0
-0.0278445 0.203359 0.0
-0.0243782 0.195973 0.0
-0.0218619 0.188927 0.0
-0.0201173 0.182125 0.0
-0.0189837 0.175468 0.0
-0.0183223 0.168866 0.0
-0.0180149 0.162246 0.0
-0.0179627 0.155553 0.0
-0.0180834 0.14875 0.0
-0.0183093 0.141816 0.0
-0.0185848 0.134744 0.0
-0.0188648 0.12754 0.0
-0.0191136 0.120221 0.0
-0.0193031 0.112811 0.0
-0.0194121 0.105343 0.0
-0.0194254 0.0978532 0.0
-0.0193326 0.0903801 0.0
-0.0191277 0.0829657 0.0
-0.0188082 0.0756522 0.0
-0.0183743 0.0684817 0.0
-0.0178285 0.0614955 0.0
-0.017175 0.0547333 0.0
-0.0164186 0.0482332 0.0
-0.0155653 0.042031 0.0
-0.014621 0.0361605 0.0
-0.0135916 0.0306532 0.0
-0.0124831 0.0255382 0.0
-0.0113013 0.0208422 0.0
-0.0100526 0.0165894 0.0
-0.00874441 0.0128008 0.0
-0.00738677 0.00949418 0.0
-0.00599472 0.00668242 0.0
-0.00459197 0.00437274 0.0
-0.00321694 0.00256507 0.0
-0.00193177 0.00124666 0.0
-0.000832394 0.000395621 0.0
-7.17473e-05 4.20721e-05 0.0
0.729641 0.0191738 0.0
0.348664 0.0730305 0.0
0.127636 0.139309 0.0
0.0111041 0.18835 0.0
-0.0441814 0.219828 0.0
-0.0656131 0.237129 0.0
-0.0699891 0.244787 0.0
-0.0664274 0.246264 0.0
-0.0597395 0.244009 0.0
-0.0523802 0.239623 0.0
-0.0455276 0.234093 0.0
-0.0396765 0.227993 0.0
-0.0349647 0.221633 0.0
-0.0313522 0.215156 0.0
-0.0287177 0.208612 0.0
-0.0269107 0.201995 0.0
-0.0257777 0.19528 0.0
-0.0251747 0.18843 0.0
-0.0249728 0.181415 0.0
-0.0250593 0.174212 0.0
-0.0253381 0.166806 0.0
-0.0257277 0.159198 0.0
-0.0261605 0.151396 0.0
-0.026581 0.14342 0.0
-0.0269447 0.135298 0.0
-0.0272167 0.127065 0.0
-0.0273705 0.118758 0.0
-0.0273874 0.110424 0.0
-0.0272547 0.102106 0.0
-0.0269653 0.0938516 0.0
-0.0265167 0.0857084 0.0
-0.0259098 0.0777224 0.0
-0.0251485 0.0699382 0.0
-0.0242387 0.062399 0.0
-0.0231876 0.0551456 0.0
-0.0220032 0.0482162 0.0
-0.0206938 0.0416467 0.0
-0.0192679 0.0354704 0.0
-0.0177339 0.0297181 0.0
-0.0161004 0.0244178 0.0
-0.0143766 0.0195948 0.0
-0.0125732 0.0152715 0.0
-0.0107045 0.0114668 0.0
-0.00879039 0.00819519 0.0
-0.00686076 0.00546685 0.0
-0.00496108 0.00328694 0.0
-0.0031608 0.00165055 0.0
-0.00156158 0.000551147 0.0
-0.00031591 6.77968e-05 0.0
0.76565 0.0125804 0.0
0.408108 0.0557162 0.0
0.182675 0.114613 0.0
0.0527261 0.162812 0.0
-0.0168285 0.19815 0.0
-0.0496903 0.22125 0.0
-0.0621682 0.234943 0.0
-0.0640021 0.241988 0.0
-0.0607623 0.244511 0.0
-0.0555382 0.244033 0.0
-0.0499792 0.241589 0.0
-0.0449085 0.237852 0.0
-0.0406821 0.233244 0.0
-0.0373988 0.228017 0.0
-0.0350219 0.222316 0.0
-0.0334482 0.216215 0.0
-0.0325481 0.209754 0.0
-0.0321864 0.20295 0.0
-0.0322337 0.195816 0.0
-0.0325722 0.188361 0.0
-0.0330976 0.180601 0.0
-0.0337199 0.172557 0.0
-0.0343629 0.164257 0.0
-0.0349635 0.155734 0.0
-0.0354706 0.147031 0.0
-0.0358442 0.13819 0.0
-0.0360542 0.129262 0.0
-0.0360793 0.120295 0.0
-0.0359057 0.111344 0.0
-0.035526 0.102458 0.0
-0.0349385 0.0936895 0.0
-0.0341455 0.085088 0.0
-0.0331527 0.0767009 0.0
-0.0319684 0.0685732 0.0
-0.0306022 0.0607473 0.0
-0.0290649 0.0532627 0.0
-0.0273673 0.0461563 0.0
-0.0255207 0.0394619 0.0
-0.0235361 0.0332109 0.0
-0.0214249 0.0274318 0.0
-0.019199 0.0221505 0.0
-0.0168725 0.0173902 0.0
-0.014463 0.0131709 0.0
-0.0119944 0.00950978 0.0
-0.00950057 0.00642086 0.0
-0.00703078 0.00391617 0.0
-0.00465653 0.00200051 0.0
-0.00247788 0.000683519 0.0
-0.000637069 8.86316e-05 0.0
0.792703 0.00860232 0.0
0.458212 0.0436673 0.0
0.233248 0.0955344 0.0
0.0945307 0.141367 0.0
0.0142352 0.177815 0.0
-0.0289229 0.204578 0.0
-0.049317 0.222579 0.0
-0.0569069 0.233951 0.0
-0.0577256 0.240444 0.0
-0.0553215 0.243407 0.0
-0.0517201 0.243831 0.0
-0.0480278 0.242411 0.0
-0.0448029 0.239623 0.0
-0.0422825 0.235784 0.0
-0.0405211 0.231102 0.0
-0.0394731 0.225715 0.0
-0.0390428 0.219714 0.0
-0.039113 0.213164 0.0
-0.0395625 0.206115 0.0
-0.0402746 0.198611 0.0
-0.0411429 0.190694 0.0
-0.042073 0.182406 0.0
-0.042984 0.173797 0.0
-0.043808 0.164914 0.0
-0.04449 0.155812 0.0
-0.0449869 0.146547 0.0
-0.0452666 0.137176 0.0
-0.0453066 0.127757 0.0
-0.0450934 0.118348 0.0
-0.0446204 0.109006 0.0
-0.0438876 0.0997848 0.0
-0.0428994 0.0907372 0.0
-0.0416643 0.0819127 0.0
-0.0401932 0.0733573 0.0
-0.0384988 0.0651143 0.0
-0.0365948 0.0572235 0.0
-0.0344952 0.0497214 0.0
-0.0322138 0.042642 0.0
-0.0297644 0.036016 0.0
-0.0271611 0.029872 0.0
-0.0244184 0.0242358 0.0
-0.0215529 0.0191312 0.0
-0.0185847 0.0145798 0.0
-0.0155402 0.0106012 0.0
-0.0124549 0.0072144 0.0
-0.00937849 0.00443878 0.0
-0.0063801 0.00228933 0.0
-0.00355249 0.000791014 0.0
-0.00102147 0.000104813 0.0
0.813747 0.00615999 0.0
0.500779 0.0351355 0.0
0.279196 0.0807923 0.0
0.135056 0.123685 0.0
0.0464866 0.159904 0.0
-0.0050914 0.188424 0.0
-0.0328365 0.209364 0.0
-0.0461737 0.223943 0.0
-0.0513342 0.233575 0.0
-0.0521684 0.239408 0.0
-0.0509857 0.242338 0.0
-0.0491233 0.243034 0.0
-0.0473144 0.241981 0.0
-0.0459233 0.239528 0.0
-0.045093 0.235923 0.0
-0.0448375 0.231343 0.0
-0.0450996 0.225921 0.0
-0.0457856 0.219759 0.0
-0.0467874 0.212938 0.0
-0.0479947 0.20553 0.0
-0.0493031 0.197603 0.0
-0.0506178 0.189222 0.0
-0.0518562 0.180452 0.0
-0.0529486 0.171358 0.0
-0.0538384 0.162007 0.0
-0.0544813 0.152466 0.0
-0.0548452 0.1428 0.0
-0.0549081 0.133076 0.0
-0.054658 0.123356 0.0
-0.0540904 0.113703 0.0
-0.053208 0.104174 0.0
-0.0520184 0.0948229 0.0
-0.0505334 0.0857012 0.0
-0.0487674 0.0768556 0.0
-0.0467367 0.068329 0.0
-0.0444583 0.0601609 0.0
-0.0419492 0.052387 0.0
-0.0392264 0.0450402 0.0
-0.0363063 0.0381504 0.0
-0.0332052 0.0317452 0.0
-0.0299398 0.0258502 0.0
-0.0265285 0.0204895 0.0
-0.0229928 0.015686 0.0
-0.0193594 0.0114623 0.0
-0.0156637 0.00784188 0.0
-0.0119526 0.00485171 0.0
-0.00828908 0.0025164 0.0
-0.00475482 0.000874424 0.0
-0.00145564 0.000116899 0.0
0.830653 0.00462013 0.0
0.537325 0.0289589 0.0
0.320816 0.069287 0.0
0.1737 0.1091 0.0
0.0789388 0.144323 0.0
0.0205297 0.173393 0.0
-0.0138616 0.196173 0.0
-0.0327195 0.21305 0.0
-0.0422823 0.225078 0.0
-0.0465733 0.233215 0.0
-0.048104 0.238246 0.0
-0.0483913 0.240784 0.0
-0.0483134 0.241299 0.0
-0.0483448 0.240146 0.0
-0.0487087 0.237591 0.0
-0.0494763 0.233839 0.0
-0.0506288 0.229046 0.0
-0.0520982 0.223343 0.0
-0.0537921 0.216837 0.0
-0.0556096 0.209625 0.0
-0.0574514 0.201794 0.0
-0.0592251 0.193429 0.0
-0.060849 0.184612 0.0
-0.0622539 0.175422 0.0
-0.0633836 0.165939 0.0
-0.0641951 0.156239 0.0
-0.0646575 0.146398 0.0
-0.0647513 0.136488 0.0
-0.0644671 0.126579 0.0
-0.0638041 0.116736 0.0
-0.0627687 0.107019 0.0
-0.0613728 0.0974849 0.0
-0.0596323 0.0881854 0.0
-0.057566 0.0791673 0.0
-0.0551941 0.0704727 0.0
-0.0525373 0.06214 0.0
-0.0496163 0.0542036 0.0
-0.0464507 0.0466946 0.0
-0.0430597 0.0396413 0.0
-0.0394614 0.0330702 0.0
-0.0356742 0.027006 0.0
-0.0317171 0.0214728 0.0
-0.0276118 0.0164946 0.0
-0.023384 0.0120965 0.0
-0.0190662 0.00830643 0.0
-0.0147005 0.00515808 0.0
-0.0103407 0.00268456 0.0
-0.00605488 0.000935641 0.0
-0.00192717 0.000125504 0.0
0.844613 0.00361603 0.0
0.569041 0.02438 0.0
0.358527 0.0601977 0.0
0.210171 0.0970321 0.0
0.11082 0.130863 0.0
0.0467603 0.15982 0.0
0.00679431 0.18343 0.0
-0.0172843 0.201903 0.0
-0.0311813 0.21571 0.0
-0.0390118 0.225643 0.0
-0.0434255 0.232378 0.0
-0.0460756 0.236465 0.0
-0.0479564 0.238343 0.0
-0.0496344 0.238356 0.0
-0.0514031 0.236775 0.0
-0.0533846 0.233816 0.0
-0.0555966 0.229653 0.0
-0.0579958 0.224436 0.0
-0.0605066 0.21829 0.0
-0.0630388 0.21133 0.0
-0.0654997 0.203664 0.0
-0.0678011 0.195391 0.0
-0.0698645 0.186608 0.0
-0.0716229 0.177408 0.0
-0.0730226 0.167882 0.0
-0.0740231 0.158116 0.0
-0.0745967 0.148195 0.0
-0.0747279 0.138197 0.0
-0.0744115 0.128197 0.0
-0.0736516 0.118264 0.0
-0.0724596 0.108461 0.0
-0.0708526 0.0988461 0.0
-0.0688517 0.0894711 0.0
-0.0664807 0.0803823 0.0
-0.0637645 0.0716208 0.0
-0.0607279 0.0632232 0.0
-0.0573951 0.0552217 0.0
-0.053789 0.0476454 0.0
-0.0499309 0.0405205 0.0
-0.0458407 0.0338716 0.0
-0.0415373 0.0277221 0.0
-0.03704 0.0220957 0.0
-0.0323689 0.017017 0.0
-0.0275472 0.0125131 0.0
-0.022603 0.00861569 0.0
-0.0175708 0.00536393 0.0
-0.0124938 0.00279809 0.0
-0.00742446 0.000976878 0.0
-0.00242496 0.000131192 0.0
0.856408 0.00293465 0.0
0.596855 0.0208995 0.0
0.392781 0.0529092 0.0
0.244428 0.0869624 0.0
0.141757 0.119214 0.0
0.0730654 0.147639 0.0
0.0282411 0.171513 0.0
-0.000472207 0.19087 0.0
-0.0185492 0.205955 0.0
-0.0299118 0.217246 0.0
-0.0372884 0.225323 0.0
-0.0424314 0.230673 0.0
-0.0464266 0.233696 0.0
-0.0499159 0.234718 0.0
-0.0532514 0.234003 0.0
-0.0565996 0.23177 0.0
-0.0600104 0.228203 0.0
-0.0634632 0.223461 0.0
-0.0668983 0.217686 0.0
-0.0702363 0.211006 0.0
-0.0733919 0.203542 0.0
-0.0762823 0.195409 0.0
-0.0788331 0.186715 0.0
-0.0809812 0.177566 0.0
-0.0826765 0.168064 0.0
-0.0838829 0.158304 0.0
-0.0845776 0.148377 0.0
-0.0847501 0.138369 0.0
-0.0844011 0.12836 0.0
-0.0835409 0.118421 0.0
-0.0821872 0.108618 0.0
-0.0803634 0.0990098 0.0
-0.0780968 0.0896481 0.0
-0.0754168 0.0805783 0.0
-0.0723537 0.0718396 0.0
-0.0689369 0.0634664 0.0
-0.0651944 0.0554883 0.0
-0.0611522 0.0479316 0.0
-0.0568337 0.0408199 0.0
-0.0522599 0.0341755 0.0
-0.0474501 0.0280199 0.0
-0.0424222 0.0223757 0.0
-0.0371941 0.0172675 0.0
-0.031785 0.0127239 0.0
-0.0262165 0.00877896 0.0
-0.0205143 0.00547625 0.0
-0.0147094 0.00286152 0.0
-0.00883758 0.00100024 0.0
-0.00293917 0.000134425 0.0
0.86656 0.00245177 0.0
0.621485 0.0181862 0.0
0.424001 0.0469691 0.0
0.276528 0.0784694 0.0
0.171528 0.109075 0.0
0.0990504 0.136705 0.0
0.0500058 0.160467 0.0
0.0171668 0.180206 0.0
-0.00482571 0.196105 0.0
-0.019648 0.208388 0.0
-0.0300028 0.217487 0.0
-0.0377065 0.223835 0.0
-0.0439149 0.22779 0.0
-0.0493303 0.229656 0.0
-0.0543529 0.229683 0.0
-0.059186 0.228089 0.0
-0.0639066 0.225059 0.0
-0.0685143 0.220758 0.0
-0.0729631 0.215338 0.0
-0.0771838 0.208939 0.0
-0.0810982 0.201691 0.0
-0.0846295 0.193722 0.0
-0.0877079 0.185152 0.0
-0.0902752 0.176096 0.0
-0.0922864 0.166666 0.0
-0.0937109 0.156965 0.0
-0.094532 0.147092 0.0
-0.094746 0.137138 0.0
-0.0943609 0.127187 0.0
-0.0933942 0.117313 0.0
-0.0918713 0.107585 0.0
-0.089823 0.0980602 0.0
-0.0872838 0.0887907 0.0
-0.0842898 0.07982 0.0
-0.0808768 0.0711854 0.0
-0.0770796 0.0629181 0.0
-0.0729302 0.0550448 0.0
-0.0684576 0.0475884 0.0
-0.0636872 0.0405694 0.0
-0.0586408 0.0340069 0.0
-0.0533372 0.0279202 0.0
-0.0477922 0.0223302 0.0
-0.0420205 0.0172607 0.0
-0.0360356 0.0127405 0.0
-0.0298517 0.00880541 0.0
-0.0234845 0.00550166 0.0
-0.0169511 0.00287898 0.0
-0.0102704 0.00100752 0.0
-0.0034611 0.00013556 0.0
0.87543 0.00209423 0.0
0.643481 0.0160182 0.0
0.452553 0.0420461 0.0
0.306577 0.0712193 0.0
0.20002 0.100181 0.0
0.124455 0.126856 0.0
0.0717387 0.150244 0.0
0.0351647 0.17005 0.0
0.00963643 0.186329 0.0
-0.00853752 0.199292 0.0
-0.0218437 0.20914 0.0
-0.032131 0.216245 0.0
-0.0406081 0.220933 0.0
-0.0480248 0.223478 0.0
-0.0548197 0.224119 0.0
-0.0612257 0.223063 0.0
-0.0673421 0.220495 0.0
-0.0731846 0.216583 0.0
-0.0787189 0.211485 0.0
-0.0838843 0.205348 0.0
-0.0886095 0.198313 0.0
-0.0928229 0.190516 0.0
-0.0964602 0.182086 0.0
-0.0994686 0.17315 0.0
-0.101809 0.163825 0.0
-0.103458 0.154224 0.0
-0.104405 0.144453 0.0
-0.104656 0.134605 0.0
-0.104227 0.12477 0.0
-0.103144 0.115024 0.0
-0.101441 0.105435 0.0
-0.0991581 0.0960633 0.0
-0.0963375 0.0869575 0.0
-0.0930226 0.0781597 0.0
-0.089256 0.069704 0.0
-0.0850778 0.0616185 0.0
-0.0805244 0.0539262 0.0
-0.0756278 0.0466461 0.0
-0.0704153 0.0397948 0.0
-0.0649091 0.033388 0.0
-0.0591268 0.027442 0.0
-0.0530816 0.0219751 0.0
-0.0467836 0.0170096 0.0
-0.0402401 0.0125736 0.0
-0.0334565 0.00870309 0.0
-0.026437 0.00544585 0.0
-0.0191847 0.00285384 0.0
-0.0117008 0.00100011 0.0
-0.00398289 0.000134842 0.0
0.88327 0.00181808 0.0
0.663264 0.0142441 0.0
0.478753 0.0378956 0.0
0.334699 0.0649483 0.0
0.227187 0.092303 0.0
0.149112 0.117927 0.0
0.0931992 0.14076 0.0
0.053247 0.160399 0.0
0.0244221 0.176796 0.0
0.00315694 0.190087 0.0
-0.0130479 0.200453 0.0
-0.0259131 0.208101 0.0
-0.0366831 0.213335 0.0
-0.0461456 0.216403 0.0
-0.0547697 0.217525 0.0
-0.0628113 0.216901 0.0
-0.0703868 0.214711 0.0
-0.0775245 0.211124 0.0
-0.0841992 0.206301 0.0
-0.090357 0.200395 0.0
-0.0959319 0.193554 0.0
-0.100858 0.185923 0.0
-0.105075 0.177639 0.0
-0.108538 0.168837 0.0
-0.111213 0.159642 0.0
-0.113085 0.150173 0.0
-0.114152 0.140541 0.0
-0.11443 0.130845 0.0
-0.113943 0.121177 0.0
-0.112729 0.111614 0.0
-0.110833 0.102226 0.0
-0.108302 0.09307 0.0
-0.105188 0.0841945 0.0
-0.101544 0.0756383 0.0
-0.0974183 0.0674323 0.0
-0.0928577 0.0596005 0.0
-0.0879029 0.0521615 0.0
-0.0825892 0.0451301 0.0
-0.0769453 0.0385184 0.0
-0.0709936 0.0323381 0.0
-0.06475 0.0266016 0.0
-0.0582245 0.0213241 0.0
-0.0514218 0.0165254 0.0
-0.0443419 0.0122318 0.0
-0.0369806 0.00847855 0.0
-0.02933 0.00531324 0.0
-0.0213781 0.00278864 0.0
-0.0131084 0.000978959 0.0
-0.0044973 0.000132424 0.0
0.890259 0.00159622 0.0
0.681161 0.0127582 0.0
0.502859 0.0343344 0.0
0.361014 0.0594469 0.0
0.253018 0.0852449 0.0
0.17291 0.109762 0.0
0.11421 0.131904 0.0
0.0712004 0.151195 0.0
0.0393176 0.167506 0.0
0.015128 0.180898 0.0
-0.00384358 0.191532 0.0
-0.0192486 0.19953 0.0
-0.0323082 0.205133 0.0
-0.043836 0.208571 0.0
-0.0543227 0.210045 0.0
-0.0640408 0.209744 0.0
-0.0731194 0.207842 0.0
-0.081595 0.204508 0.0
-0.089449 0.199904 0.0
-0.0966321 0.194188 0.0
-0.103083 0.187514 0.0
-0.108739 0.180034 0.0
-0.113548 0.171893 0.0
-0.117467 0.163231 0.0
-0.120474 0.154183 0.0
-0.12256 0.144872 0.0
-0.123734 0.135413 0.0
-0.124021 0.12591 0.0
-0.123459 0.116456 0.0
-0.122096 0.107128 0.0
-0.119986 0.0979972 0.0
-0.11719 0.0891182 0.0
-0.11377 0.0805367 0.0
-0.109785 0.0722884 0.0
-0.105294 0.0643999 0.0
-0.100349 0.0568909 0.0
-0.094995 0.0497749 0.0
-0.0892711 0.0430618 0.0
-0.0832074 0.036759 0.0
-0.0768259 0.0308733 0.0
-0.0701407 0.0254127 0.0
-0.0631577 0.0203885 0.0
-0.0558757 0.0158172 0.0
-0.0482867 0.0117222 0.0
-0.0403761 0.00813685 0.0
-0.0321233 0.0051071 0.0
-0.0235006 0.00268513 0.0
-0.0144736 0.000944688 0.0
-0.0049975 0.000128378 0.0
0.896531 0.00141137 0.0
0.697423 0.0114854 0.0
0.525086 0.0312237 0.0
0.385634 0.0545481 0.0
0.277519 0.0788411 0.0
0.19577 0.102217 0.0
0.134633 0.123568 0.0
0.0888498 0.142366 0.0
0.0541259 0.158421 0.0
0.0271733 0.171732 0.0
0.00558859 0.182405 0.0
-0.0123086 0.190588 0.0
-0.0276395 0.1964 0.0
-0.0412335 0.200065 0.0
-0.0535976 0.201765 0.0
-0.0650154 0.201676 0.0
-0.0756234 0.199969 0.0
-0.0854635 0.196811 0.0
-0.0945204 0.192364 0.0
-0.102748 0.186791 0.0
-0.110087 0.180251 0.0
-0.11648 0.172901 0.0
-0.121879 0.164895 0.0
-0.126248 0.156378 0.0
-0.129573 0.14749 0.0
-0.131855 0.138359 0.0
-0.133115 0.129106 0.0
-0.133389 0.119834 0.0
-0.132726 0.110638 0.0
-0.131189 0.101598 0.0