# vtk DataFile Version 3.0
Malha 2D com triângulos e temperatura
ASCII
DATASET UNSTRUCTURED_GRID

POINTS 2500 double
0 0 0
1 0 0
1 1 0
0 1 0
0.0204082 0 0
0.0408163 0 0
0.0612245 0 0
0.0816327 0 0
0.102041 0 0
0.122449 0 0
0.142857 0 0
0.163265 0 0
0.183673 0 0
0.204082 0 0
0.22449 0 0
0.244898 0 0
0.265306 0 0
0.285714 0 0
0.306122 0 0
0.326531 0 0
0.346939 0 0
0.367347 0 0
0.387755 0 0
0.408163 0 0
0.428571 0 0
0.44898 0 0
0.469388 0 0
0.489796 0 0
0.510204 0 0
0.530612 0 0
0.55102 0 0
0.571429 0 0
0.591837 0 0
0.612245 0 0
0.632653 0 0
0.653061 0 0
0.673469 0 0
0.693878 0 0
0.714286 0 0
0.734694 0 0
0.755102 0 0
0.77551 0 0
0.795918 0 0
0.816327 0 0
0.836735 0 0
0.857143 0 0
0.877551 0 0
0.897959 0 0
0.918367 0 0
0.938776 0 0
0.959184 0 0
0.979592 0 0
1 0.0204082 0
1 0.0408163 0
1 0.0612245 0
1 0.0816327 0
1 0.102041 0
1 0.122449 0
1 0.142857 0
1 0.163265 0
1 0.183673 0
1 0.204082 0
1 0.22449 0
1 0.244898 0
1 0.265306 0
1 0.285714 0
1 0.306122 0
1 0.326531 0
1 0.346939 0
1 0.367347 0
1 0.387755 0
1 0.408163 0
1 0.428571 0
1 0.44898 0
1 0.469388 0
1 0.489796 0
1 0.510204 0
1 0.530612 0
1 0.55102 0
1 0.571429 0
1 0.591837 0
1 0.612245 0
1 0.632653 0
1 0.653061 0
1 0.673469 0
1 0.693878 0
1 0.714286 0
1 0.734694 0
1 0.755102 0
1 0.77551 0
1 0.795918 0
1 0.816327 0
1 0.836735 0
1 0.857143 0
1 0.877551 0
1 0.897959 0
1 0.918367 0
1 0.938776 0
1 0.959184 0
1 0.979592 0
0.979592 1 0
0.959184 1 0
0.938776 1 0
0.918367 1 0
0.897959 1 0
0.877551 1 0
0.857143 1 0
0.836735 1 0
0.816327 1 0
0.795918 1 0
0.77551 1 0
0.755102 1 0
0.734694 1 0
0.714286 1 0
0.693878 1 0
0.673469 1 0
0.653061 1 0
0.632653 1 0
0.612245 1 0
0.591837 1 0
0.571429 1 0
0.55102 1 0
0.530612 1 0
0.510204 1 0
0.489796 1 0
0.469388 1 0
0.44898 1 0
0.428571 1 0
0.408163 1 0
0.387755 1 0
0.367347 1 0
0.346939 1 0
0.326531 1 0
0.306122 1 0
0.285714 1 0
0.265306 1 0
0.244898 1 0
0.22449 1 0
0.204082 1 0
0.183673 1 0
0.163265 1 0
0.142857 1 0
0.122449 1 0
0.102041 1 0
0.0816327 1 0
0.0612245 1 0
0.0408163 1 0
0.0204082 1 0
0 0.979592 0
0 0.959184 0
0 0.938776 0
0 0.918367 0
0 0.897959 0
0 0.877551 0
0 0.857143 0
0 0.836735 0
0 0.816327 0
0 0.795918 0
0 0.77551 0
0 0.755102 0
0 0.734694 0
0 0.714286 0
0 0.693878 0
0 0.673469 0
0 0.653061 0
0 0.632653 0
0 0.612245 0
0 0.591837 0
0 0.571429 0
0 0.55102 0
0 0.530612 0
0 0.510204 0
0 0.489796 0
0 0.469388 0
0 0.44898 0
0 0.428571 0
0 0.408163 0
0 0.387755 0
0 0.367347 0
0 0.346939 0
0 0.326531 0
0 0.306122 0
0 0.285714 0
0 0.265306 0
0 0.244898 0
0 0.22449 0
0 0.204082 0
0 0.183673 0
0 0.163265 0
0 0.142857 0
0 0.122449 0
0 0.102041 0
0 0.0816327 0
0 0.0612245 0
0 0.0408163 0
0 0.0204082 0
0.0204082 0.979592 0
0.0204082 0.959184 0
0.0204082 0.938776 0
0.0204082 0.918367 0
0.0204082 0.897959 0
0.0204082 0.877551 0
0.0204082 0.857143 0
0.0204082 0.836735 0
0.0204082 0.816327 0
0.0204082 0.795918 0
0.0204082 0.77551 0
0.0204082 0.755102 0
0.0204082 0.734694 0
0.0204082 0.714286 0
0.0204082 0.693878 0
0.0204082 0.673469 0
0.0204082 0.653061 0
0.0204082 0.632653 0
0.0204082 0.612245 0
0.0204082 0.591837 0
0.0204082 0.571429 0
0.0204082 0.55102 0
0.0204082 0.530612 0
0.0204082 0.510204 0
0.0204082 0.489796 0
0.0204082 0.469388 0
0.0204082 0.44898 0
0.0204082 0.428571 0
0.0204082 0.408163 0
0.0204082 0.387755 0
0.0204082 0.367347 0
0.0204082 0.346939 0
0.0204082 0.326531 0
0.0204082 0.306122 0
0.0204082 0.285714 0
0.0204082 0.265306 0
0.0204082 0.244898 0
0.0204082 0.22449 0
0.0204082 0.204082 0
0.0204082 0.183673 0
0.0204082 0.163265 0
0.0204082 0.142857 0
0.0204082 0.122449 0
0.0204082 0.102041 0
0.0204082 0.0816327 0
0.0204082 0.0612245 0
0.0204082 0.0408163 0
0.0204082 0.0204082 0
0.0408163 0.979592 0
0.0408163 0.959184 0
0.0408163 0.938776 0
0.0408163 0.918367 0
0.0408163 0.897959 0
0.0408163 0.877551 0
0.0408163 0.857143 0
0.0408163 0.836735 0
0.0408163 0.816327 0
0.0408163 0.795918 0
0.0408163 0.77551 0
0.0408163 0.755102 0
0.0408163 0.734694 0
0.0408163 0.714286 0
0.0408163 0.693878 0
0.0408163 0.673469 0
0.0408163 0.653061 0
0.0408163 0.632653 0
0.0408163 0.612245 0
0.0408163 0.591837 0
0.0408163 0.571429 0
0.0408163 0.55102 0
0.0408163 0.530612 0
0.0408163 0.510204 0
0.0408163 0.489796 0
0.0408163 0.469388 0
0.0408163 0.44898 0
0.0408163 0.428571 0
0.0408163 0.408163 0
0.0408163 0.387755 0
0.0408163 0.367347 0
0.0408163 0.346939 0
0.0408163 0.326531 0
0.0408163 0.306122 0
0.0408163 0.285714 0
0.0408163 0.265306 0
0.0408163 0.244898 0
0.0408163 0.22449 0
0.0408163 0.204082 0
0.0408163 0.183673 0
0.0408163 0.163265 0
0.0408163 0.142857 0
0.0408163 0.122449 0
0.0408163 0.102041 0
0.0408163 0.0816327 0
0.0408163 0.0612245 0
0.0408163 0.0408163 0
0.0408163 0.0204082 0
0.0612245 0.979592 0
0.0612245 0.959184 0
0.0612245 0.938776 0
0.0612245 0.918367 0
0.0612245 0.897959 0
0.0612245 0.877551 0
0.0612245 0.857143 0
0.0612245 0.836735 0
0.0612245 0.816327 0
0.0612245 0.795918 0
0.0612245 0.77551 0
0.0612245 0.755102 0
0.0612245 0.734694 0
0.0612245 0.714286 0
0.0612245 0.693878 0
0.0612245 0.673469 0
0.0612245 0.653061 0
0.0612245 0.632653 0
0.0612245 0.612245 0
0.0612245 0.591837 0
0.0612245 0.571429 0
0.0612245 0.55102 0
0.0612245 0.530612 0
0.0612245 0.510204 0
0.0612245 0.489796 0
0.0612245 0.469388 0
0.0612245 0.44898 0
0.0612245 0.428571 0
0.0612245 0.408163 0
0.0612245 0.387755 0
0.0612245 0.367347 0
0.0612245 0.346939 0
0.0612245 0.326531 0
0.0612245 0.306122 0
0.0612245 0.285714 0
0.0612245 0.265306 0
0.0612245 0.244898 0
0.0612245 0.22449 0
0.0612245 0.204082 0
0.0612245 0.183673 0
0.0612245 0.163265 0
0.0612245 0.142857 0
0.0612245 0.122449 0
0.0612245 0.102041 0
0.0612245 0.0816327 0
0.0612245 0.0612245 0
0.0612245 0.0408163 0
0.0612245 0.0204082 0
0.0816327 0.979592 0
0.0816327 0.959184 0
0.0816327 0.938776 0
0.0816327 0.918367 0
0.0816327 0.897959 0
0.0816327 0.877551 0
0.0816327 0.857143 0
0.0816327 0.836735 0
0.0816327 0.816327 0
0.0816327 0.795918 0
0.0816327 0.77551 0
0.0816327 0.755102 0
0.0816327 0.734694 0
0.0816327 0.714286 0
0.0816327 0.693878 0
0.0816327 0.673469 0
0.0816327 0.653061 0
0.0816327 0.632653 0
0.0816327 0.612245 0
0.0816327 0.591837 0
0.0816327 0.571429 0
0.0816327 0.55102 0
0.0816327 0.530612 0
0.0816327 0.510204 0
0.0816327 0.489796 0
0.0816327 0.469388 0
0.0816327 0.44898 0
0.0816327 0.428571 0
0.0816327 0.408163 0
0.0816327 0.387755 0
0.0816327 0.367347 0
0.0816327 0.346939 0
0.0816327 0.326531 0
0.0816327 0.306122 0
0.0816327 0.285714 0
0.0816327 0.265306 0
0.0816327 0.244898 0
0.0816327 0.22449 0
0.0816327 0.204082 0
0.0816327 0.183673 0
0.0816327 0.163265 0
0.0816327 0.142857 0
0.0816327 0.122449 0
0.0816327 0.102041 0
0.0816327 0.0816327 0
0.0816327 0.0612245 0
0.0816327 0.0408163 0
0.0816327 0.0204082 0
0.102041 0.979592 0
0.102041 0.959184 0
0.102041 0.938776 0
0.102041 0.918367 0
0.102041 0.897959 0
0.102041 0.877551 0
0.102041 0.857143 0
0.102041 0.836735 0
0.102041 0.816327 0
0.102041 0.795918 0
0.102041 0.77551 0
0.102041 0.755102 0
0.102041 0.734694 0
0.102041 0.714286 0
0.102041 0.693878 0
0.102041 0.673469 0
0.102041 0.653061 0
0.102041 0.632653 0
0.102041 0.612245 0
0.102041 0.591837 0
0.102041 0.571429 0
0.102041 0.55102 0
0.102041 0.530612 0
0.102041 0.510204 0
0.102041 0.489796 0
0.102041 0.469388 0
0.102041 0.44898 0
0.102041 0.428571 0
0.102041 0.408163 0
0.102041 0.387755 0
0.102041 0.367347 0
0.102041 0.346939 0
0.102041 0.326531 0
0.102041 0.306122 0
0.102041 0.285714 0
0.102041 0.265306 0
0.102041 0.244898 0
0.102041 0.22449 0
0.102041 0.204082 0
0.102041 0.183673 0
0.102041 0.163265 0
0.102041 0.142857 0
0.102041 0.122449 0
0.102041 0.102041 0
0.102041 0.0816327 0
0.102041 0.0612245 0
0.102041 0.0408163 0
0.102041 0.0204082 0
0.122449 0.979592 0
0.122449 0.959184 0
0.122449 0.938776 0
0.122449 0.918367 0
0.122449 0.897959 0
0.122449 0.877551 0
0.122449 0.857143 0
0.122449 0.836735 0
0.122449 0.816327 0
0.122449 0.795918 0
0.122449 0.77551 0
0.122449 0.755102 0
0.122449 0.734694 0
0.122449 0.714286 0
0.122449 0.693878 0
0.122449 0.673469 0
0.122449 0.653061 0
0.122449 0.632653 0
0.122449 0.612245 0
0.122449 0.591837 0
0.122449 0.571429 0
0.122449 0.55102 0
0.122449 0.530612 0
0.122449 0.510204 0
0.122449 0.489796 0
0.122449 0.469388 0
0.122449 0.44898 0
0.122449 0.428571 0
0.122449 0.408163 0
0.122449 0.387755 0
0.122449 0.367347 0
0.122449 0.346939 0
0.122449 0.326531 0
0.122449 0.306122 0
0.122449 0.285714 0
0.122449 0.265306 0
0.122449 0.244898 0
0.122449 0.22449 0
0.122449 0.204082 0
0.122449 0.183673 0
0.122449 0.163265 0
0.122449 0.142857 0
0.122449 0.122449 0
0.122449 0.102041 0
0.122449 0.0816327 0
0.122449 0.0612245 0
0.122449 0.0408163 0
0.122449 0.0204082 0
0.142857 0.979592 0
0.142857 0.959184 0
0.142857 0.938776 0
0.142857 0.918367 0
0.142857 0.897959 0
0.142857 0.877551 0
0.142857 0.857143 0
0.142857 0.836735 0
0.142857 0.816327 0
0.142857 0.795918 0
0.142857 0.77551 0
0.142857 0.755102 0
0.142857 0.734694 0
0.142857 0.714286 0
0.142857 0.693878 0
0.142857 0.673469 0
0.142857 0.653061 0
0.142857 0.632653 0
0.142857 0.612245 0
0.142857 0.591837 0
0.142857 0.571429 0
0.142857 0.55102 0
0.142857 0.530612 0
0.142857 0.510204 0
0.142857 0.489796 0
0.142857 0.469388 0
0.142857 0.44898 0
0.142857 0.428571 0
0.142857 0.408163 0
0.142857 0.387755 0
0.142857 0.367347 0
0.142857 0.346939 0
0.142857 0.326531 0
0.142857 0.306122 0
0.142857 0.285714 0
0.142857 0.265306 0
0.142857 0.244898 0
0.142857 0.22449 0
0.142857 0.204082 0
0.142857 0.183673 0
0.142857 0.163265 0
0.142857 0.142857 0
0.142857 0.122449 0
0.142857 0.102041 0
0.142857 0.0816327 0
0.142857 0.0612245 0
0.142857 0.0408163 0
0.142857 0.0204082 0
0.163265 0.979592 0
0.163265 0.959184 0
0.163265 0.938776 0
0.163265 0.918367 0
0.163265 0.897959 0
0.163265 0.877551 0
0.163265 0.857143 0
0.163265 0.836735 0
0.163265 0.816327 0
0.163265 0.795918 0
0.163265 0.77551 0
0.163265 0.755102 0
0.163265 0.734694 0
0.163265 0.714286 0
0.163265 0.693878 0
0.163265 0.673469 0
0.163265 0.653061 0
0.163265 0.632653 0
0.163265 0.612245 0
0.163265 0.591837 0
0.163265 0.571429 0
0.163265 0.55102 0
[...]
CELL_DATA 2401
VECTORS velocity double
0.257354 0.157463 0.0
-0.00271488 0.264574 0.0
-0.0323258 0.205424 0.0
-0.0254017 0.150513 0.0
-0.0160753 0.112944 0.0
-0.00971165 0.0875629 0.0
-0.00593083 0.0704799 0.0
-0.00374123 0.0587892 0.0
-0.00245441 0.0505809 0.0
-0.00167444 0.0446661 0.0
-0.00118519 0.0402948 0.0
-0.000869113 0.0369803 0.0
-0.000660663 0.0343973 0.0
-0.000521831 0.0323221 0.0
-0.000429556 0.0305978 0.0
-0.000369206 0.0291123 0.0
-0.000331115 0.0277846 0.0
-0.00030866 0.0265564 0.0
-0.000297157 0.0253856 0.0
-0.000293204 0.0242422 0.0
-0.000294264 0.0231056 0.0
-0.000298415 0.0219625 0.0
-0.000304176 0.0208049 0.0
-0.000310404 0.0196294 0.0
-0.00031622 0.0184357 0.0
-0.000320954 0.0172266 0.0
-0.000324113 0.0160064 0.0
-0.000325353 0.0147811 0.0
-0.000324452 0.0135577 0.0
-0.000321291 0.0123437 0.0
-0.000315836 0.011147 0.0
-0.000308121 0.00997552 0.0
-0.000298226 0.00883692 0.0
-0.000286267 0.00773869 0.0
-0.000272379 0.00668789 0.0
-0.000256698 0.00569116 0.0
-0.000239351 0.0047547 0.0
-0.000220444 0.00388428 0.0
-0.000200044 0.00308535 0.0
-0.000178171 0.00236309 0.0
-0.000154781 0.00172253 0.0
-0.000129762 0.00116866 0.0
-0.000102932 0.000706461 0.0
-7.40931e-05 0.000340871 0.0
-4.32061e-05 7.63821e-05 0.0
-1.09065e-05 -8.40387e-05 0.0
2.01706e-05 -0.000141389 0.0
4.26695e-05 -0.000109667 0.0
3.74716e-05 -3.72781e-05 0.0
0.34059 0.122948 0.0
-0.0006971 0.249375 0.0
-0.065312 0.271532 0.0
-0.0633402 0.252023 0.0
-0.0485896 0.221474 0.0
-0.0350059 0.191589 0.0
-0.0249241 0.16618 0.0
-0.0178692 0.145747 0.0
-0.0129995 0.129674 0.0
-0.00962941 0.117101 0.0
-0.00728018 0.107221 0.0
-0.00563281 0.0993669 0.0
-0.00447546 0.0930114 0.0
-0.00366554 0.0877479 0.0
-0.00310514 0.0832665 0.0
-0.00272554 0.0793322 0.0
-0.00247749 0.0757681 0.0
-0.00232497 0.0724419 0.0
-0.00224115 0.0692561 0.0
-0.00220571 0.06614 0.0
-0.00220303 0.0630445 0.0
-0.00222097 0.0599369 0.0
-0.00225005 0.0567981 0.0
-0.00228285 0.0536194 0.0
-0.00231359 0.0504006 0.0
-0.00233785 0.0471477 0.0
-0.00235234 0.0438719 0.0
-0.00235471 0.0405878 0.0
-0.00234341 0.0373127 0.0
-0.00231753 0.0340653 0.0
-0.00227672 0.0308652 0.0
-0.00222105 0.0277324 0.0
-0.00215092 0.0246864 0.0
-0.00206694 0.0217461 0.0
-0.00196987 0.0189297 0.0
-0.00186051 0.0162544 0.0
-0.00173967 0.0137361 0.0
-0.00160805 0.01139 0.0
-0.00146625 0.00923017 0.0
-0.0013147 0.00726994 0.0
-0.0011537 0.00552185 0.0
-0.000983446 0.00399766 0.0
-0.000804233 0.00270821 0.0
-0.000616909 0.00166266 0.0
-0.000423833 0.000867185 0.0
-0.000231031 0.000322174 0.0
-5.2594e-05 1.71888e-05 0.0
8.19369e-05 -8.02313e-05 0.0
0.000109093 -4.14895e-05 0.0
0.500825 0.0767828 0.0
0.0989788 0.183165 0.0
-0.0394934 0.249119 0.0
-0.0735602 0.265561 0.0
-0.0719881 0.257237 0.0
-0.0606262 0.23946 0.0
-0.0483074 0.219501 0.0
-0.0376766 0.200646 0.0
-0.0292268 0.1841 0.0
-0.0227578 0.170067 0.0
-0.0179035 0.158322 0.0
-0.0143099 0.148496 0.0
-0.0116817 0.140199 0.0
-0.00978664 0.133074 0.0
-0.00844581 0.126819 0.0
-0.00752241 0.121188 0.0
-0.0069117 0.115981 0.0
-0.00653309 0.111047 0.0
-0.00632407 0.10627 0.0
-0.00623582 0.101562 0.0
-0.00622991 0.0968656 0.0
-0.00627592 0.0921396 0.0
-0.00634975 0.087362 0.0
-0.00643237 0.0825238 0.0
-0.00650886 0.077627 0.0
-0.00656774 0.0726822 0.0
-0.00660041 0.0677066 0.0
-0.00660068 0.0627221 0.0
-0.00656443 0.057754 0.0
-0.00648923 0.0528298 0.0
-0.00637406 0.0479782 0.0
-0.00621899 0.0432279 0.0
-0.00602495 0.0386075 0.0
-0.00579345 0.0341445 0.0
-0.0055264 0.0298656 0.0
-0.00522586 0.0257956 0.0
-0.00489393 0.0219582 0.0
-0.00453259 0.0183754 0.0
-0.00414361 0.0150679 0.0
-0.00372855 0.0120548 0.0
-0.00328886 0.00935391 0.0
-0.00282613 0.00698135 0.0
-0.00234272 0.00495109 0.0
-0.00184289 0.00327396 0.0
-0.00133498 0.00195573 0.0
-0.000835575 0.000994086 0.0
-0.000376721 0.000372729 0.0
-1.60918e-05 5.38153e-05 0.0
0.00013834 -1.8165e-05 0.0
0.609937 0.0480261 0.0
0.195477 0.133915 0.0
0.0111544 0.209345 0.0
-0.0582308 0.24634 0.0
-0.0761791 0.256891 0.0
-0.0737186 0.253505 0.0
-0.0643233 0.243366 0.0
-0.0536232 0.230721 0.0
-0.0438037 0.217818 0.0
-0.0355585 0.205704 0.0
-0.0289586 0.194761 0.0
-0.0238386 0.185024 0.0
-0.0199638 0.176368 0.0
-0.0171003 0.168602 0.0
-0.0150402 0.161524 0.0
-0.0136079 0.154946 0.0
-0.0126592 0.148708 0.0
-0.0120769 0.142675 0.0
-0.0117658 0.136745 0.0
-0.0116495 0.130838 0.0
-0.0116661 0.124902 0.0
-0.0117655 0.1189 0.0
-0.0119075 0.112815 0.0
-0.0120602 0.106644 0.0
-0.0121981 0.100394 0.0
-0.0123017 0.0940814 0.0
-0.0123563 0.0877302 0.0
-0.0123511 0.0813692 0.0
-0.0122792 0.0750305 0.0
-0.0121364 0.0687488 0.0
-0.0119209 0.0625595 0.0
-0.0116329 0.0564984 0.0
-0.0112741 0.0506005 0.0
-0.010847 0.0448999 0.0
-0.0103552 0.0394289 0.0
-0.00980222 0.0342185 0.0
-0.00919193 0.0292974 0.0
-0.008528 0.0246927 0.0
-0.00781391 0.0204295 0.0
-0.00705297 0.016531 0.0
-0.00624854 0.0130183 0.0
-0.00540459 0.00991025 0.0
-0.00452671 0.00722253 0.0
-0.00362398 0.00496679 0.0
-0.0027121 0.00314877 0.0
-0.00181881 0.00176591 0.0
-0.000992678 0.000801506 0.0
-0.00031392 0.000222717 0.0
7.98861e-05 1.23744e-05 0.0
0.680297 0.0301425 0.0
0.278205 0.0981512 0.0
0.0693558 0.170943 0.0
-0.0276721 0.217465 0.0
-0.0653099 0.240981 0.0
-0.0745651 0.249566 0.0
-0.0713146 0.24914 0.0
-0.0633337 0.243803 0.0
-0.0542974 0.236121 0.0
-0.0458411 0.227578 0.0
-0.0385953 0.218965 0.0
-0.0327078 0.210649 0.0
-0.0281068 0.202756 0.0
-0.0246333 0.195279 0.0
-0.0221041 0.188147 0.0
-0.0203418 0.181264 0.0
-0.0191867 0.174533 0.0
-0.0185005 0.167866 0.0
-0.0181658 0.16119 0.0
-0.0180844 0.154452 0.0
-0.0181746 0.147614 0.0
-0.018369 0.140655 0.0
-0.0186127 0.133571 0.0
-0.0188613 0.126365 0.0
-0.0190793 0.119056 0.0
-0.0192394 0.111667 0.0
-0.0193208 0.104229 0.0
-0.0193086 0.0967781 0.0
-0.0191931 0.0893531 0.0
-0.0189685 0.0819943 0.0
-0.0186326 0.0747428 0.0
-0.018186 0.0676396 0.0
-0.0176312 0.0607246 0.0
-0.0169724 0.0540364 0.0
-0.0162148 0.0476116 0.0
-0.015364 0.0414848 0.0
-0.0144259 0.0356885 0.0
-0.0134062 0.030253 0.0
-0.0123105 0.0252061 0.0
-0.0111444 0.0205735 0.0
-0.0099137 0.0163783 0.0
-0.0086254 0.0126411 0.0
-0.00728896 0.00937876 0.0
-0.00591868 0.0066039 0.0
-0.00453741 0.00432357 0.0
-0.00318252 0.00253785 0.0
-0.00191479 0.00123445 0.0
-0.000828425 0.00039224 0.0
-7.39718e-05 4.18736e-05 0.0
0.729677 0.0191748 0.0
0.348721 0.0730322 0.0
0.127679 0.139304 0.0
0.011104 0.188326 0.0
-0.0442415 0.21977 0.0
-0.0657403 0.237023 0.0
-0.0701815 0.244618 0.0
-0.0666773 0.24602 0.0
-0.0600356 0.243681 0.0
-0.0527097 0.239203 0.0
-0.0458777 0.233576 0.0
-0.0400355 0.227377 0.0
-0.0353222 0.220919 0.0
-0.031699 0.214347 0.0
-0.0290464 0.207712 0.0
-0.0272149 0.201011 0.0
-0.0260521 0.194219 0.0
-0.025415 0.187302 0.0
-0.0251756 0.18023 0.0
-0.0252221 0.172979 0.0
-0.0254589 0.165538 0.0
-0.0258055 0.157906 0.0
-0.026195 0.150093 0.0
-0.0265725 0.142117 0.0
-0.0268942 0.134007 0.0
-0.0271261 0.125796 0.0
-0.0272422 0.117523 0.0
-0.0272244 0.109232 0.0
-0.0270606 0.100966 0.0
-0.0267443 0.0927723 0.0
-0.0262732 0.0846962 0.0
-0.0256487 0.0767828 0.0
-0.0248749 0.0690758 0.0
-0.0239577 0.0616166 0.0
-0.0229045 0.0544448 0.0
-0.0217231 0.0475974 0.0
-0.0204217 0.0411087 0.0
-0.0190085 0.035011 0.0
-0.0174916 0.0293335 0.0
-0.015879 0.0241034 0.0
-0.0141794 0.0193448 0.0
-0.0124028 0.0150794 0.0
-0.0105627 0.0113252 0.0
-0.00867812 0.00809645 0.0
-0.00677774 0.00540299 0.0
-0.00490575 0.00324999 0.0
-0.00312995 0.00163288 0.0
-0.00155002 0.000545662 0.0
-0.000315904 6.72472e-05 0.0
0.765684 0.0125797 0.0
0.408158 0.0557097 0.0
0.1827 0.11459 0.0
0.0526941 0.16276 0.0
-0.0169351 0.198052 0.0
-0.0498782 0.221093 0.0
-0.062434 0.234714 0.0
-0.064336 0.241677 0.0
-0.0611504 0.244108 0.0
-0.055965 0.243533 0.0
-0.0504295 0.240988 0.0
-0.0453679 0.237149 0.0
-0.041138 0.232441 0.0
-0.0378402 0.227117 0.0
-0.0354393 0.221324 0.0
-0.0338337 0.215138 0.0
-0.0328952 0.2086 0.0
-0.0324896 0.201729 0.0
-0.0324888 0.194537 0.0
-0.0327759 0.187036 0.0
-0.0332476 0.179241 0.0
-0.0338149 0.171175 0.0
-0.0344025 0.162864 0.0
-0.0349482 0.154343 0.0
-0.0354018 0.145653 0.0
-0.0357242 0.136837 0.0
-0.0358861 0.127944 0.0
-0.035867 0.119023 0.0
-0.0356536 0.110126 0.0
-0.0352395 0.101303 0.0
-0.0346231 0.0926048 0.0
-0.0338074 0.084079 0.0
-0.0327983 0.0757722 0.0
-0.0316042 0.0677281 0.0
-0.0302348 0.0599876 0.0
-0.0287007 0.052589 0.0
-0.0270128 0.0455676 0.0
-0.0251818 0.0389561 0.0
-0.0232184 0.0327846 0.0
-0.0211333 0.0270804 0.0
-0.0189378 0.0218684 0.0
-0.0166451 0.0171708 0.0
-0.0142718 0.0130071 0.0
-0.0118406 0.00939361 0.0
-0.00938422 0.0063442 0.0
-0.00695019 0.00387071 0.0
-0.00460822 0.00197808 0.0
-0.00245619 0.00067622 0.0
-0.000633777 8.77936e-05 0.0
0.792732 0.00860004 0.0
0.458247 0.0436532 0.0
0.233245 0.0954951 0.0
0.0944568 0.141289 0.0
0.0140699 0.177684 0.0
-0.0291809 0.204379 0.0
-0.0496638 0.2223 0.0
-0.0573307 0.233583 0.0
-0.0582103 0.23998 0.0
-0.055849 0.242843 0.0
-0.0522728 0.243165 0.0
-0.0485891 0.241643 0.0
-0.045358 0.238755 0.0
-0.0428185 0.234819 0.0
-0.041027 0.230046 0.0
-0.0399394 0.224575 0.0
-0.0394617 0.218499 0.0
-0.0394782 0.211883 0.0
-0.0398687 0.204778 0.0
-0.0405181 0.197229 0.0
-0.0413209 0.189278 0.0
-0.042184 0.18097 0.0
-0.0430274 0.172351 0.0
-0.0437846 0.163471 0.0
-0.0444015 0.154383 0.0
-0.0448361 0.145144 0.0
-0.0450572 0.135809 0.0
-0.0450433 0.126437 0.0
-0.0447817 0.117083 0.0
-0.0442666 0.107805 0.0
-0.0434984 0.0986545 0.0
-0.0424822 0.0896839 0.0
-0.0412267 0.0809409 0.0
-0.0397432 0.0724705 0.0
-0.0380443 0.0643145 0.0
-0.0361437 0.0565114 0.0
-0.0340551 0.0490965 0.0
-0.031792 0.0421024 0.0
-0.0293677 0.0355586 0.0
-0.0267955 0.0294924 0.0
-0.0240891 0.0239288 0.0
-0.0212643 0.0188904 0.0
-0.0183398 0.014398 0.0
-0.0153407 0.0104709 0.0
-0.0123011 0.00712724 0.0
-0.00926896 0.00438631 0.0
-0.00631124 0.00226298 0.0
-0.00351852 0.000782243 0.0
-0.00101402 0.000103751 0.0
0.813766 0.00615644 0.0
0.500791 0.0351149 0.0
0.279157 0.0807385 0.0
0.134933 0.123585 0.0
0.0462585 0.159744 0.0
-0.00542909 0.188193 0.0
-0.0332707 0.209046 0.0
-0.0466917 0.223533 0.0
-0.0519178 0.233067 0.0
-0.0527975 0.2388 0.0
-0.0516406 0.241628 0.0
-0.0497855 0.242224 0.0
-0.0479672 0.241073 0.0
-0.0465522 0.238526 0.0
-0.0456853 0.234832 0.0
-0.0453825 0.230171 0.0
-0.0455883 0.224676 0.0
-0.0462108 0.218449 0.0
-0.047143 0.211575 0.0
-0.0482764 0.204124 0.0
-0.0495077 0.196166 0.0
-0.0507435 0.187765 0.0
-0.0519025 0.178986 0.0
-0.0529164 0.169895 0.0
-0.0537296 0.160559 0.0
-0.0542993 0.151043 0.0
-0.0545942 0.141414 0.0
-0.0545937 0.131735 0.0
-0.0542865 0.122071 0.0
-0.0536691 0.112481 0.0
-0.0527448 0.103022 0.0
-0.0515218 0.0937475 0.0
-0.0500124 0.0847069 0.0
-0.0482311 0.0759459 0.0
-0.0461944 0.0675062 0.0
-0.0439192 0.0594259 0.0
-0.0414223 0.0517395 0.0
-0.0387201 0.0444786 0.0
-0.0358286 0.037672 0.0
-0.0327633 0.0313461 0.0
-0.0295399 0.0255253 0.0
-0.0261758 0.0202329 0.0
-0.022691 0.0154909 0.0
-0.0191111 0.0113212 0.0
-0.0154694 0.00774665 0.0
-0.0118112 0.00479381 0.0
-0.00819724 0.00248702 0.0
-0.00470684 0.000864524 0.0
-0.00144336 0.000115671 0.0
0.830659 0.00461568 0.0
0.537308 0.0289332 0.0
0.320735 0.0692217 0.0
0.173521 0.108983 0.0
0.0786428 0.144141 0.0
0.0201139 0.173136 0.0
-0.0143851 0.195829 0.0
-0.033333 0.212613 0.0
-0.0429647 0.224543 0.0
-0.0473027 0.232582 0.0
-0.0488589 0.237513 0.0
-0.0491516 0.239954 0.0
-0.0490608 0.240375 0.0
-0.0490632 0.239131 0.0
-0.0493842 0.236492 0.0
-0.0500969 0.232661 0.0
-0.0511846 0.227799 0.0
-0.0525808 0.222035 0.0
-0.054195 0.215478 0.0
-0.0559278 0.208225 0.0
-0.0576813 0.200364 0.0
-0.0593647 0.19198 0.0
-0.0608977 0.183154 0.0
-0.0622127 0.173967 0.0
-0.0632548 0.164498 0.0
-0.0639823 0.154823 0.0
-0.0643657 0.145018 0.0
-0.0643867 0.135153 0.0
-0.0640369 0.125297 0.0
-0.0633166 0.115515 0.0
-0.0622328 0.105867 0.0
-0.0607982 0.0964075 0.0
-0.0590291 0.0871872 0.0
-0.0569445 0.0782518 0.0
-0.0545649 0.0696424 0.0
-0.0519109 0.0613961 0.0
-0.0490027 0.053546 0.0
-0.0458598 0.0461221 0.0
-0.0425005 0.0391515 0.0
-0.0389423 0.0326597 0.0
-0.0352023 0.0266701 0.0
-0.0312987 0.021206 0.0
-0.0272513 0.0162905 0.0
-0.0230847 0.0119479 0.0
-0.0188293 0.00820551 0.0
-0.0145251 0.00509628 0.0
-0.0102241 0.00265298 0.0
-0.0059916 0.000924926 0.0
-0.00190955 0.000124159 0.0
0.844604 0.00361106 0.0
0.56899 0.024351 0.0
0.358398 0.0601244 0.0
0.209932 0.0969027 0.0
0.110453 0.130667 0.0
0.0462632 0.159548 0.0
0.00617668 0.183076 0.0
-0.0179932 0.201454 0.0
-0.0319606 0.215165 0.0
-0.0398384 0.225003 0.0
-0.0442767 0.231643 0.0
-0.0469298 0.235638 0.0
-0.0487939 0.237426 0.0
-0.0504381 0.237353 0.0
-0.0521577 0.235692 0.0
-0.0540772 0.232659 0.0
-0.0562161 0.228431 0.0
-0.0585333 0.223155 0.0
-0.0609547 0.216961 0.0
-0.0633918 0.209962 0.0
-0.0657538 0.202267 0.0
-0.0679541 0.193975 0.0
-0.0699157 0.185184 0.0
-0.0715733 0.175987 0.0
-0.0728747 0.166474 0.0
-0.0737809 0.156732 0.0
-0.0742658 0.146844 0.0
-0.0743151 0.136888 0.0
-0.0739249 0.126939 0.0
-0.0731003 0.117065 0.0
-0.0718535 0.107328 0.0
-0.0702024 0.0977842 0.0
-0.0681687 0.0884853 0.0
-0.0657765 0.0794762 0.0
-0.0630506 0.070797 0.0
-0.0600161 0.062483 0.0
-0.0566967 0.0545654 0.0
-0.0531149 0.0470721 0.0
-0.0492912 0.0400282 0.0
-0.0452448 0.0334572 0.0
-0.0409936 0.0273816 0.0
-0.0365554 0.021824 0.0
-0.0319489 0.0168081 0.0
-0.0271958 0.0123603 0.0
-0.022322 0.00851131 0.0
-0.0173601 0.00529968 0.0
-0.0123511 0.00276509 0.0
-0.007345 0.000965625 0.0
-0.00240165 0.000129769 0.0
0.856381 0.00292947 0.0
0.596767 0.0208685 0.0
0.392601 0.0528311 0.0
0.244126 0.086826 0.0
0.141319 0.11901 0.0
0.0724903 0.147361 0.0
0.0275407 0.171155 0.0
-0.00127718 0.190427 0.0
-0.0194231 0.205419 0.0
-0.0308314 0.216618 0.0
-0.0382308 0.224605 0.0
-0.0433741 0.229868 0.0
-0.047349 0.232807 0.0
-0.0507996 0.233749 0.0
-0.0540804 0.232959 0.0
-0.0573599 0.230657 0.0
-0.0606901 0.227028 0.0
-0.0640525 0.222232 0.0
-0.0673892 0.21641 0.0
-0.0706227 0.209693 0.0
-0.0736694 0.202201 0.0
-0.0764485 0.194049 0.0
-0.0788871 0.185347 0.0
-0.080924 0.1762 0.0
-0.082511 0.166709 0.0
-0.0836134 0.15697 0.0
-0.08421 0.147074 0.0
-0.0842919 0.137106 0.0
-0.0838612 0.127145 0.0
-0.0829291 0.117261 0.0
-0.0815144 0.10752 0.0
-0.0796413 0.097979 0.0
-0.0773377 0.0886894 0.0
-0.0746333 0.0796953 0.0
-0.0715586 0.0710349 0.0
-0.0681429 0.0627415 0.0
-0.064414 0.0548438 0.0
-0.0603973 0.0473669 0.0
-0.0561156 0.0403334 0.0
-0.051589 0.0337644 0.0
-0.0468356 0.0276808 0.0
-0.0418721 0.022104 0.0
-0.0367149 0.0170578 0.0
-0.0313812 0.0125697 0.0
-0.0258909 0.00867319 0.0
-0.0202677 0.00541086 0.0
-0.01454 0.00282779 0.0
-0.0087414 0.000988695 0.0
-0.00290997 0.000132956 0.0
0.866516 0.00244667 0.0
0.621358 0.0181547 0.0
0.423767 0.0468894 0.0
0.276164 0.0783309 0.0
0.171019 0.10887 0.0
0.098399 0.136428 0.0
0.0492254 0.160113 0.0
0.0162799 0.179774 0.0
-0.0057923 0.195593 0.0
-0.0206567 0.207788 0.0
-0.0310311 0.216803 0.0
-0.0387318 0.22307 0.0
-0.0449162 0.226948 0.0
-0.0502886 0.228739 0.0
-0.0552512 0.228698 0.0
-0.0600096 0.227039 0.0
-0.0646429 0.223951 0.0
-0.0691527 0.219599 0.0
-0.0734949 0.214135 0.0
-0.0776023 0.2077 0.0
-0.0813987 0.200425 0.0
-0.084809 0.192438 0.0
-0.0877656 0.183859 0.0
-0.0902121 0.174803 0.0
-0.0921054 0.165382 0.0
-0.0934166 0.1557 0.0
-0.0941308 0.145855 0.0
-0.0942459 0.135937 0.0
-0.0937713 0.12603 0.0
-0.0927259 0.116207 0.0
-0.091136 0.106536 0.0
-0.0890334 0.0970743 0.0
-0.0864531 0.0878721 0.0
-0.0834315 0.0789723 0.0
-0.0800048 0.0704112 0.0
-0.0762076 0.062219 0.0
-0.0720717 0.0544216 0.0
-0.0676255 0.0470407 0.0
-0.0628938 0.040096 0.0
-0.0578975 0.0336057 0.0
-0.0526541 0.0275881 0.0
-0.0471783 0.0220631 0.0
-0.041483 0.0170537 0.0
-0.0355802 0.0125877 0.0
-0.029482 0.00870015 0.0
-0.0232018 0.00543633 0.0
-0.0167547 0.00284514 0.0
-0.0101573 0.000995894 0.0
-0.0034259 0.00013407 0.0
0.875369 0.00208944 0.0
0.643314 0.0159875 0.0
0.452266 0.0419678 0.0
0.306151 0.0710835 0.0
0.199443 0.0999814 0.0
0.123731 0.126588 0.0
0.0708833 0.149906 0.0
0.0342013 0.169639 0.0
0.00859384 0.185845 0.0
-0.00962656 0.198732 0.0
-0.0229504 0.208503 0.0
-0.0332317 0.215535 0.0
-0.0416816 0.220153 0.0
-0.0490515 0.222631 0.0
-0.055782 0.223208 0.0
-0.0621081 0.222093 0.0
-0.0681313 0.219471 0.0
-0.0738691 0.215512 0.0
-0.0792896 0.210372 0.0
-0.0843339 0.204201 0.0
-0.0889326 0.197139 0.0
-0.0930164 0.189323 0.0
-0.0965229 0.180883 0.0
-0.0994014 0.171945 0.0
-0.101615 0.162628 0.0
-0.103142 0.153044 0.0
-0.103974 0.143296 0.0
-0.104118 0.133481 0.0
-0.103592 0.123685 0.0
-0.102424 0.113985 0.0
-0.100648 0.104449 0.0
-0.098306 0.0951347 0.0
-0.0954403 0.0860908 0.0
-0.0920948 0.0773582 0.0
-0.0883123 0.0689705 0.0
-0.0841328 0.0609547 0.0
-0.0795925 0.0533329 0.0
-0.074723 0.0461233 0.0
-0.0695507 0.0393417 0.0
-0.064097 0.0330028 0.0
-0.0583782 0.027122 0.0
-0.0524064 0.0217168 0.0
-0.04619 0.0168087 0.0
-0.0397345 0.0124247 0.0
-0.0330435 0.0086001 0.0
-0.026119 0.00538167 0.0
-0.0189617 0.00282047 0.0
-0.0115709 0.000988584 0.0
-0.0039417 0.000133353 0.0
0.883193 0.0018138 0.0
0.66306 0.0142153 0.0
0.478415 0.0378212 0.0
0.334213 0.0648194 0.0
0.226547 0.0921143 0.0
0.148322 0.117676 0.0
0.092276 0.140445 0.0
0.0522147 0.16002 0.0
0.023309 0.176353 0.0
0.00199176 0.189581 0.0
-0.014226 0.199877 0.0
-0.0270819 0.20746 0.0
-0.0378217 0.21263 0.0
-0.0472344 0.215638 0.0
-0.0557904 0.216702 0.0
-0.0637478 0.216024 0.0
-0.0712251 0.213785 0.0
-0.0782526 0.210153 0.0
-0.084807 0.205291 0.0
-0.0908366 0.199352 0.0
-0.0962775 0.192485 0.0
-0.101066 0.184835 0.0
-0.105144 0.17654 0.0
-0.108468 0.167734 0.0
-0.111008 0.158544 0.0
-0.11275 0.149089 0.0
-0.113694 0.139477 0.0
-0.113858 0.12981 0.0
-0.113268 0.120176 0.0
-0.111963 0.110655 0.0
-0.109987 0.101313 0.0
-0.107393 0.0922094 0.0
-0.10423 0.0833899 0.0
-0.100552 0.074893 0.0
-0.0964087 0.0667488 0.0
-0.0918454 0.0589806 0.0
-0.0869033 0.0516061 0.0
-0.0816169 0.0446394 0.0
-0.0760145 0.0380918 0.0
-0.0701172 0.0319743 0.0
-0.06394 0.0262983 0.0
-0.0574916 0.0210785 0.0
-0.050775 0.0163336 0.0
-0.0437885 0.0120891 0.0
-0.0365261 0.00837948 0.0
-0.0289778 0.00525124 0.0
-0.0211293 0.00275626 0.0
-0.0129621 0.000967721 0.0
-0.00445022 0.000130956 0.0
0.890168 0.00159257 0.0
0.680922 0.0127323 0.0
0.502473 0.0342663 0.0
0.360473 0.0593286 0.0
0.252319 0.0850721 0.0
0.17206 0.109534 0.0
0.113227 0.13162 0.0
0.0701087 0.150855 0.0
0.0381458 0.167111 0.0
0.0139058 0.180448 0.0
-0.00508586 0.191028 0.0
-0.0204783 0.198966 0.0
-0.0335052 0.204514 0.0
-0.0449805 0.207899 0.0
-0.0553962 0.209322 0.0
-0.0650269 0.208971 0.0
-0.0740031 0.207024 0.0
-0.0823638 0.203648 0.0
-0.090092 0.199007 0.0
-0.0971409 0.19326 0.0
-0.103451 0.18656 0.0
-0.108963 0.179061 0.0
-0.113624 0.170908 0.0
-0.117398 0.162241 0.0
-0.120262 0.153196 0.0
-0.12221 0.143895 0.0
-0.123254 0.134453 0.0
-0.12342 0.124974 0.0
-0.122748 0.115549 0.0
-0.121287 0.106258 0.0
-0.119094 0.0971683 0.0
-0.11623 0.0883352 0.0
-0.112757 0.0798035 0.0
-0.108736 0.0716079 0.0
-0.104225 0.0637747 0.0
-0.0992757 0.0563226 0.0
-0.0939338 0.0492646 0.0
-0.0882374 0.0426098 0.0
-0.0822159 0.0363649 0.0
-0.0758905 0.0305361 0.0
-0.069274 0.0251306 0.0
-0.0623711 0.0201592 0.0
-0.0551792 0.0156374 0.0
-0.0476884 0.011588 0.0
-0.0398825 0.00804322 0.0
-0.0317386 0.00504824 0.0
-0.0232271 0.00265424 0.0
-0.0143115 0.000933902 0.0
-0.00494472 0.000126951 0.0
0.896426 0.00140846 0.0
0.697152 0.011463 0.0
0.524656 0.0311637 0.0
0.385043 0.0544433 0.0
0.276767 0.0786883 0.0
0.194868 0.102015 0.0
0.133598 0.123319 0.0
0.0877071 0.142071 0.0
0.0529038 0.158079 0.0
0.025901 0.171346 0.0
0.00429548 0.181975 0.0
-0.0135906 0.19011 0.0
-0.0288872 0.195874 0.0
-0.042427 0.199493 0.0
-0.0547183 0.201148 0.0
-0.0660461 0.201016 0.0
-0.0765488 0.199268 0.0
-0.0862702 0.196071 0.0
-0.0951969 0.19159 0.0
-0.103285 0.185986 0.0
-0.110477 0.179421 0.0
-0.11672 0.172052 0.0
-0.121965 0.164032 0.0
-0.126182 0.155509 0.0
-0.129356 0.146621 0.0
-0.131494 0.137497 0.0
-0.132616 0.128257 0.0
-0.132762 0.119005 0.0
-0.131984 0.109835 0.0