# vtk DataFile Version 3.0
Malha 2D com triângulos e temperatura
ASCII
DATASET UNSTRUCTURED_GRID

POINTS 40000 double
0 0 0
1 0 0
1 1 0
0 1 0
0.00502513 0 0
0.0100503 0 0
0.0150754 0 0
0.0201005 0 0
0.0251256 0 0
0.0301508 0 0
0.0351759 0 0
0.040201 0 0
0.0452261 0 0
0.0502513 0 0
0.0552764 0 0
0.0603015 0 0
0.0653266 0 0
0.0703518 0 0
0.0753769 0 0
0.080402 0 0
0.0854271 0 0
0.0904523 0 0
0.0954774 0 0
0.100503 0 0
0.105528 0 0
0.110553 0 0
0.115578 0 0
0.120603 0 0
0.125628 0 0
0.130653 0 0
0.135678 0 0
0.140704 0 0
0.145729 0 0
0.150754 0 0
0.155779 0 0
0.160804 0 0
0.165829 0 0
0.170854 0 0
0.175879 0 0
0.180905 0 0
0.18593 0 0
0.190955 0 0
0.19598 0 0
0.201005 0 0
0.20603 0 0
0.211055 0 0
0.21608 0 0
0.221106 0 0
0.226131 0 0
0.231156 0 0
0.236181 0 0
0.241206 0 0
0.246231 0 0
0.251256 0 0
0.256281 0 0
0.261307 0 0
0.266332 0 0
0.271357 0 0
0.276382 0 0
0.281407 0 0
0.286432 0 0
0.291457 0 0
0.296482 0 0
0.301508 0 0
0.306533 0 0
0.311558 0 0
0.316583 0 0
0.321608 0 0
0.326633 0 0
0.331658 0 0
0.336683 0 0
0.341709 0 0
0.346734 0 0
0.351759 0 0
0.356784 0 0
0.361809 0 0
0.366834 0 0
0.371859 0 0
0.376884 0 0
0.38191 0 0
0.386935 0 0
0.39196 0 0
0.396985 0 0
0.40201 0 0
0.407035 0 0
0.41206 0 0
0.417085 0 0
0.422111 0 0
0.427136 0 0
0.432161 0 0
0.437186 0 0
0.442211 0 0
0.447236 0 0
0.452261 0 0
0.457286 0 0
0.462312 0 0
0.467337 0 0
0.472362 0 0
0.477387 0 0
0.482412 0 0
0.487437 0 0
0.492462 0 0
0.497487 0 0
0.502513 0 0
0.507538 0 0
0.512563 0 0
0.517588 0 0
0.522613 0 0
0.527638 0 0
0.532663 0 0
0.537688 0 0
0.542714 0 0
0.547739 0 0
0.552764 0 0
0.557789 0 0
0.562814 0 0
0.567839 0 0
0.572864 0 0
0.577889 0 0
0.582915 0 0
0.58794 0 0
0.592965 0 0
0.59799 0 0
0.603015 0 0
0.60804 0 0
0.613065 0 0
0.61809 0 0
0.623116 0 0
0.628141 0 0
0.633166 0 0
0.638191 0 0
0.643216 0 0
0.648241 0 0
0.653266 0 0
0.658291 0 0
0.663317 0 0
0.668342 0 0
0.673367 0 0
0.678392 0 0
0.683417 0 0
0.688442 0 0
0.693467 0 0
0.698492 0 0
0.703518 0 0
0.708543 0 0
0.713568 0 0
0.718593 0 0
0.723618 0 0
0.728643 0 0
0.733668 0 0
0.738693 0 0
0.743719 0 0
0.748744 0 0
0.753769 0 0
0.758794 0 0
0.763819 0 0
0.768844 0 0
0.773869 0 0
0.778894 0 0
0.78392 0 0
0.788945 0 0
0.79397 0 0
0.798995 0 0
0.80402 0 0
0.809045 0 0
0.81407 0 0
0.819095 0 0
0.824121 0 0
0.829146 0 0
0.834171 0 0
0.839196 0 0
0.844221 0 0
0.849246 0 0
0.854271 0 0
0.859296 0 0
0.864322 0 0
0.869347 0 0
0.874372 0 0
0.879397 0 0
0.884422 0 0
0.889447 0 0
0.894472 0 0
0.899497 0 0
0.904523 0 0
0.909548 0 0
0.914573 0 0
0.919598 0 0
0.924623 0 0
0.929648 0 0
0.934673 0 0
0.939698 0 0
0.944724 0 0
0.949749 0 0
0.954774 0 0
0.959799 0 0
0.964824 0 0
0.969849 0 0
0.974874 0 0
0.979899 0 0
0.984925 0 0
0.98995 0 0
0.994975 0 0
1 0.00502513 0
1 0.0100503 0
1 0.0150754 0
1 0.0201005 0
1 0.0251256 0
1 0.0301508 0
1 0.0351759 0
1 0.040201 0
1 0.0452261 0
1 0.0502513 0
1 0.0552764 0
1 0.0603015 0
1 0.0653266 0
1 0.0703518 0
1 0.0753769 0
1 0.080402 0
1 0.0854271 0
1 0.0904523 0
1 0.0954774 0
1 0.100503 0
1 0.105528 0
1 0.110553 0
1 0.115578 0
1 0.120603 0
1 0.125628 0
1 0.130653 0
1 0.135678 0
1 0.140704 0
1 0.145729 0
1 0.150754 0
1 0.155779 0
1 0.160804 0
1 0.165829 0
1 0.170854 0
1 0.175879 0
1 0.180905 0
1 0.18593 0
1 0.190955 0
1 0.19598 0
1 0.201005 0
1 0.20603 0
1 0.211055 0
1 0.21608 0
1 0.221106 0
1 0.226131 0
1 0.231156 0
1 0.236181 0
1 0.241206 0
1 0.246231 0
1 0.251256 0
1 0.256281 0
1 0.261307 0
1 0.266332 0
1 0.271357 0
1 0.276382 0
1 0.281407 0
1 0.286432 0
1 0.291457 0
1 0.296482 0
1 0.301508 0
1 0.306533 0
1 0.311558 0
1 0.316583 0
1 0.321608 0
1 0.326633 0
1 0.331658 0
1 0.336683 0
1 0.341709 0
1 0.346734 0
1 0.351759 0
1 0.356784 0
1 0.361809 0
1 0.366834 0
1 0.371859 0
1 0.376884 0
1 0.38191 0
1 0.386935 0
1 0.39196 0
1 0.396985 0
1 0.40201 0
1 0.407035 0
1 0.41206 0
1 0.417085 0
1 0.422111 0
1 0.427136 0
1 0.432161 0
1 0.437186 0
1 0.442211 0
1 0.447236 0
1 0.452261 0
1 0.457286 0
1 0.462312 0
1 0.467337 0
1 0.472362 0
1 0.477387 0
1 0.482412 0
1 0.487437 0
1 0.492462 0
1 0.497487 0
1 0.502513 0
1 0.507538 0
1 0.512563 0
1 0.517588 0
1 0.522613 0
1 0.527638 0
1 0.532663 0
1 0.537688 0
1 0.542714 0
1 0.547739 0
1 0.552764 0
1 0.557789 0
1 0.562814 0
1 0.567839 0
1 0.572864 0
1 0.577889 0
1 0.582915 0
1 0.58794 0
1 0.592965 0
1 0.59799 0
1 0.603015 0
1 0.60804 0
1 0.613065 0
1 0.61809 0
1 0.623116 0
1 0.628141 0
1 0.633166 0
1 0.638191 0
1 0.643216 0
1 0.648241 0
1 0.653266 0
1 0.658291 0
1 0.663317 0
1 0.668342 0
1 0.673367 0
1 0.678392 0
1 0.683417 0
1 0.688442 0
1 0.693467 0
1 0.698492 0
1 0.703518 0
1 0.708543 0
1 0.713568 0
1 0.718593 0
1 0.723618 0
1 0.728643 0
1 0.733668 0
1 0.738693 0
1 0.743719 0
1 0.748744 0
1 0.753769 0
1 0.758794 0
1 0.763819 0
1 0.768844 0
1 0.773869 0
1 0.778894 0
1 0.78392 0
1 0.788945 0
1 0.79397 0
1 0.798995 0
1 0.80402 0
1 0.809045 0
1 0.81407 0
1 0.819095 0
1 0.824121 0
1 0.829146 0
1 0.834171 0
1 0.839196 0
1 0.844221 0
1 0.849246 0
1 0.854271 0
1 0.859296 0
1 0.864322 0
1 0.869347 0
1 0.874372 0
1 0.879397 0
1 0.884422 0
1 0.889447 0
1 0.894472 0
1 0.899497 0
1 0.904523 0
1 0.909548 0
1 0.914573 0
1 0.919598 0
1 0.924623 0
1 0.929648 0
1 0.934673 0
1 0.939698 0
1 0.944724 0
1 0.949749 0
1 0.954774 0
1 0.959799 0
1 0.964824 0
1 0.969849 0
1 0.974874 0
1 0.979899 0
1 0.984925 0
1 0.98995 0
1 0.994975 0
0.994975 1 0
0.98995 1 0
0.984925 1 0
0.979899 1 0
0.974874 1 0
0.969849 1 0
0.964824 1 0
0.959799 1 0
0.954774 1 0
0.949749 1 0
0.944724 1 0
0.939698 1 0
0.934673 1 0
0.929648 1 0
0.924623 1 0
0.919598 1 0
0.914573 1 0
0.909548 1 0
0.904523 1 0
0.899497 1 0
0.894472 1 0
0.889447 1 0
0.884422 1 0
0.879397 1 0
0.874372 1 0
0.869347 1 0
0.864322 1 0
0.859296 1 0
0.854271 1 0
0.849246 1 0
0.844221 1 0
0.839196 1 0
0.834171 1 0
0.829146 1 0
0.824121 1 0
0.819095 1 0
0.81407 1 0
0.809045 1 0
0.80402 1 0
0.798995 1 0
0.79397 1 0
0.788945 1 0
0.78392 1 0
0.778894 1 0
0.773869 1 0
0.768844 1 0
0.763819 1 0
0.758794 1 0
0.753769 1 0
0.748744 1 0
0.743719 1 0
0.738693 1 0
0.733668 1 0
0.728643 1 0
0.723618 1 0
0.718593 1 0
0.713568 1 0
0.708543 1 0
0.703518 1 0
0.698492 1 0
0.693467 1 0
0.688442 1 0
0.683417 1 0
0.678392 1 0
0.673367 1 0
0.668342 1 0
0.663317 1 0
0.658291 1 0
0.653266 1 0
0.648241 1 0
0.643216 1 0
0.638191 1 0
0.633166 1 0
0.628141 1 0
0.623116 1 0
0.61809 1 0
0.613065 1 0
0.60804 1 0
0.603015 1 0
0.59799 1 0
0.592965 1 0
0.58794 1 0
0.582915 1 0
0.577889 1 0
0.572864 1 0
0.567839 1 0
0.562814 1 0
0.557789 1 0
0.552764 1 0
0.547739 1 0
0.542714 1 0
0.537688 1 0
0.532663 1 0
0.527638 1 0
0.522613 1 0
0.517588 1 0
0.512563 1 0
0.507538 1 0
0.502513 1 0
0.497487 1 0
0.492462 1 0
0.487437 1 0
0.482412 1 0
0.477387 1 0
0.472362 1 0
0.467337 1 0
0.462312 1 0
0.457286 1 0
0.452261 1 0
0.447236 1 0
0.442211 1 0
0.437186 1 0
0.432161 1 0
0.427136 1 0
0.422111 1 0
0.417085 1 0
0.41206 1 0
0.407035 1 0
0.40201 1 0
0.396985 1 0
0.39196 1 0
0.386935 1 0
0.38191 1 0
0.376884 1 0
0.371859 1 0
0.366834 1 0
0.361809 1 0
0.356784 1 0
0.351759 1 0
0.346734 1 0
0.341709 1 0
0.336683 1 0
0.331658 1 0
0.326633 1 0
0.321608 1 0
0.316583 1 0
0.311558 1 0
0.306533 1 0
0.301508 1 0
0.296482 1 0
0.291457 1 0
0.286432 1 0
0.281407 1 0
0.276382 1 0
0.271357 1 0
0.266332 1 0
0.261307 1 0
0.256281 1 0
0.251256 1 0
0.246231 1 0
0.241206 1 0
0.236181 1 0
0.231156 1 0
0.226131 1 0
0.221106 1 0
0.21608 1 0
0.211055 1 0
0.20603 1 0
0.201005 1 0
0.19598 1 0
0.190955 1 0
0.18593 1 0
0.180905 1 0
0.175879 1 0
0.170854 1 0
0.165829 1 0
0.160804 1 0
0.155779 1 0
0.150754 1 0
0.145729 1 0
0.140704 1 0
0.135678 1 0
0.130653 1 0
0.125628 1 0
0.120603 1 0
0.115578 1 0
0.110553 1 0
0.105528 1 0
0.100503 1 0
0.0954774 1 0
0.0904523 1 0
0.0854271 1 0
0.080402 1 0
0.0753769 1 0
0.0703518 1 0
0.0653266 1 0
0.0603015 1 0
0.0552764 1 0
0.0502513 1 0
0.0452261 1 0
0.040201 1 0
0.0351759 1 0
0.0301508 1 0
0.0251256 1 0
0.0201005 1 0
0.0150754 1 0
0.0100503 1 0
0.00502513 1 0
0 0.994975 0
0 0.98995 0
0 0.984925 0
0 0.979899 0
0 0.974874 0
0 0.969849 0
0 0.964824 0
0 0.959799 0
0 0.954774 0
0 0.949749 0
0 0.944724 0
0 0.939698 0
0 0.934673 0
0 0.929648 0
0 0.924623 0
0 0.919598 0
0 0.914573 0
0 0.909548 0
0 0.904523 0
0 0.899497 0
0 0.894472 0
0 0.889447 0
0 0.884422 0
0 0.879397 0
0 0.874372 0
0 0.869347 0
0 0.864322 0
0 0.859296 0
0 0.854271 0
0 0.849246 0
0 0.844221 0
0 0.839196 0
0 0.834171 0
0 0.829146 0
0 0.824121 0
0 0.819095 0
0 0.81407 0
0 0.809045 0
0 0.80402 0
0 0.798995 0
0 0.79397 0
0 0.788945 0
0 0.78392 0
0 0.778894 0
0 0.773869 0
0 0.768844 0
0 0.763819 0
0 0.758794 0
0 0.753769 0
0 0.748744 0
0 0.743719 0
0 0.738693 0
0 0.733668 0
0 0.728643 0
0 0.723618 0
0 0.718593 0
0 0.713568 0
0 0.708543 0
0 0.703518 0
0 0.698492 0
0 0.693467 0
0 0.688442 0
0 0.683417 0
0 0.678392 0
0 0.673367 0
0 0.668342 0
0 0.663317 0
0 0.658291 0
0 0.653266 0
0 0.648241 0
0 0.643216 0
0 0.638191 0
0 0.633166 0
0 0.628141 0
0 0.623116 0
0 0.61809 0
0 0.613065 0
0 0.60804 0
0 0.603015 0
0 0.59799 0
0 0.592965 0
0 0.58794 0
0 0.582915 0
0 0.577889 0
0 0.572864 0
0 0.567839 0
0 0.562814 0
0 0.557789 0
0 0.552764 0
0 0.547739 0
0 0.542714 0
0 0.537688 0
0 0.532663 0
0 0.527638 0
0 0.522613 0
0 0.517588 0
0 0.512563 0
0 0.507538 0
0 0.502513 0
0 0.497487 0
0 0.492462 0
0 0.487437 0
0 0.482412 0
0 0.477387 0
0 0.472362 0
0 0.467337 0
0 0.462312 0
0 0.457286 0
0 0.452261 0
0 0.447236 0
0 0.442211 0
0 0.437186 0
0 0.432161 0
0 0.427136 0
0 0.422111 0
0 0.417085 0
0 0.41206 0
0 0.407035 0
0 0.40201 0
0 0.396985 0
0 0.39196 0
0 0.386935 0
0 0.38191 0
0 0.376884 0
0 0.371859 0
0 0.366834 0
0 0.361809 0
0 0.356784 0
0 0.351759 0
0 0.346734 0
0 0.341709 0
0 0.336683 0
0 0.331658 0
0 0.326633 0
0 0.321608 0
0 0.316583 0
0 0.311558 0
0 0.306533 0
0 0.301508 0
0 0.296482 0
0 0.291457 0
0 0.286432 0
0 0.281407 0
0 0.276382 0
0 0.271357 0
0 0.266332 0
0 0.261307 0
0 0.256281 0
0 0.251256 0
0 0.246231 0
0 0.241206 0
0 0.236181 0
0 0.231156 0
0 0.226131 0
0 0.221106 0
0 0.21608 0
0 0.211055 0
0 0.20603 0
0 0.201005 0
0 0.19598 0
0 0.190955 0
0 0.18593 0
0 0.180905 0
0 0.175879 0
0 0.170854 0
[...]
CELL_DATA 39601
SCALARS Temperatura double 1
LOOKUP_TABLE default
0.000631169
0.00188088
0.00311794
0.00434232
0.00555402
0.00675304
0.00793938
0.00911304
0.010274
0.0114223
0.0125579
0.0136808
0.0147911
0.0158886
0.0169735
0.0180456
0.0191051
0.0201519
0.021186
0.0222075
0.0232162
0.0242123
0.0251956
0.0261663
0.0271243
0.0280696
0.0290022
0.0299221
0.0308294
0.0317239
0.0326058
0.0334749
0.0343314
0.0351752
0.0360063
0.0368247
0.0376305
0.0384235
0.0392039
0.0399715
0.0407265
0.0414688
0.0421984
0.0429153
0.0436196
0.0443111
0.0449899
0.0456561
0.0463096
0.0469504
0.0475784
0.0481939
0.0487966
0.0493866
0.0499639
0.0505286
0.0510806
0.0516198
0.0521464
0.0526603
0.0531615
0.05365
0.0541259
0.054589
0.0550395
0.0554772
0.0559023
0.0563147
0.0567144
0.0571014
0.0574757
0.0578373
0.0581863
0.0585225
0.0588461
0.059157
0.0594552
0.0597407
0.0600135
0.0602736
0.060521
0.0607558
0.0609778
0.0611872
0.0613839
0.0615679
0.0617392
0.0618978
0.0620437
0.0621769
0.0622975
0.0624053
0.0625005
0.062583
0.0626528
0.0627099
0.0627543
0.062786
0.062805
0.0628114
0.062805
0.062786
0.0627543
0.0627099
0.0626528
0.062583
0.0625005
0.0624053
0.0622975
0.0621769
0.0620437
0.0618978
0.0617392
0.0615679
0.0613839
0.0611872
0.0609778
0.0607558
0.060521
0.0602736
0.0600135
0.0597407
0.0594552
0.059157
0.0588461
0.0585225
0.0581863
0.0578373
0.0574757
0.0571014
0.0567144
0.0563147
0.0559023
0.0554772
0.0550395
0.054589
0.0541259
0.05365
0.0531615
0.0526603
0.0521464
0.0516198
0.0510806
0.0505286
0.0499639
0.0493866
0.0487966
0.0481939
0.0475784
0.0469504
0.0463096
0.0456561
0.0449899
0.0443111
0.0436196
0.0429153
0.0421984
0.0414688
0.0407265
0.0399715
0.0392039
0.0384235
0.0376305
0.0368247
0.0360063
0.0351752
0.0343314
0.0334749
0.0326058
0.0317239
0.0308294
0.0299221
0.0290022
0.0280696
0.0271243
0.0261663
0.0251956
0.0242123
0.0232162
0.0222075
0.021186
0.0201519
0.0191051
0.0180456
0.0169735
0.0158886
0.0147911
0.0136808
0.0125579
0.0114223
0.010274
0.00911304
0.00793938
0.00675304
0.00555402
0.00434232
0.00311794
0.00188088
0.000631169
0.00188088
0.00560493
0.00929124
0.0129398
0.0165505
0.0201235
0.0236587
0.027156
0.0306156
0.0340374
0.0374214
0.0407676
0.044076
0.0473465
0.0505793
0.0537743
0.0569314
0.0600508
0.0631324
0.0661761
0.069182
0.0721502
0.0750805
0.077973
0.0808277
0.0836446
0.0864237
0.089165
0.0918685
0.0945341
0.097162
0.099752
0.102304
0.104819
0.107295
0.109734
0.112135
0.114498
0.116824
0.119111
0.121361
0.123573
0.125747
0.127883
0.129982
0.132043
0.134066
0.136051
0.137998
0.139907
0.141779
0.143613
0.145409
0.147167
0.148888
0.15057
0.152215
0.153822
0.155391
0.156922
0.158416
0.159872
0.16129
0.16267
0.164012
0.165317
0.166583
0.167812
0.169003
0.170156
0.171272
0.17235
0.173389
0.174391
0.175356
0.176282
0.17717
0.178021
0.178834
0.179609
0.180347
0.181046
0.181708
0.182332
0.182918
0.183466
0.183977
0.184449
0.184884
0.185281
0.18564
0.185962
0.186245
0.186491
0.186699
0.186869
0.187001
0.187096
0.187153
0.187172
0.187153
0.187096
0.187001
0.186869
0.186699
0.186491
0.186245
0.185962
0.18564
0.185281
0.184884
0.184449
0.183977
0.183466
0.182918
0.182332
0.181708
0.181046
0.180347
0.179609
0.178834
0.178021
0.17717
0.176282
0.175356
0.174391
0.173389
0.17235
0.171272
0.170156
0.169003
0.167812
0.166583
0.165317
0.164012
0.16267
0.16129
0.159872
0.158416
0.156922
0.155391
0.153822
0.152215
0.15057
0.148888
0.147167
0.145409
0.143613
0.141779
0.139907
0.137998
0.136051
0.134066
0.132043
0.129982
0.127883
0.125747
0.123573
0.121361
0.119111
0.116824
0.114498
0.112135
0.109734
0.107295
0.104819
0.102304
0.099752
0.097162
0.0945341
0.0918685
0.089165
0.0864237
0.0836446
0.0808277
0.077973
0.0750805
0.0721502
0.069182
0.0661761
0.0631324
0.0600508
0.0569314
0.0537743
0.0505793
0.0473465
0.044076
0.0407676
0.0374214
0.0340374
0.0306156
0.027156
0.0236587
0.0201235
0.0165505
0.0129398
0.00929124
0.00560493
0.00188088
0.00311794
0.00929124
0.0154019
0.02145
0.0274355
0.0333583
0.0392184
0.045016
0.0507508
0.056423
0.0620326
0.0675794
0.0730636
0.0784852
0.0838441
0.0891403
0.0943738
0.0995447
0.104653
0.109698
0.114681
0.119601
0.124459
0.129254
0.133986
0.138655
0.143262
0.147806
0.152288
0.156707
0.161063
0.165356
0.169587
0.173755
0.177861
0.181903
0.185883
0.189801
0.193656
0.197448
0.201177
0.204844
0.208448
0.211989
0.215468
0.218884
0.222237
0.225528
0.228755
0.231921
0.235023
0.238063
0.241041
0.243955
0.246807
0.249596
0.252323
0.254987
0.257588
0.260126
0.262602
0.265015
0.267366
0.269653
0.271878
0.274041
0.276141
0.278178
0.280152
0.282064
0.283913
0.285699
0.287423
0.289084
0.290682
0.292218
0.293691
0.295101
0.296449
0.297734
0.298956
0.300115
0.301212
0.302246
0.303218
0.304127
0.304973
0.305756
0.306477
0.307135
0.307731
0.308264
0.308734
0.309141
0.309486
0.309768
0.309987
0.310144
0.310238
0.310269
0.310238
0.310144
0.309987
0.309768
0.309486
0.309141
0.308734
0.308264
0.307731
0.307135
0.306477
0.305756
0.304973
0.304127
0.303218
0.302246
0.301212
0.300115
0.298956
0.297734
0.296449
0.295101
0.293691
0.292218
0.290682
0.289084
0.287423
0.285699
0.283913
0.282064
0.280152
0.278178
0.276141
0.274041
0.271878
0.269653
0.267366
0.265015
0.262602
0.260126
0.257588
0.254987
0.252323
0.249596
0.246807
0.243955
0.241041
0.238063
0.235023
0.231921
0.228755
0.225528
0.222237
0.218884
0.215468
0.211989
0.208448
0.204844
0.201177
0.197448
0.193656
0.189801
0.185883
0.181903
0.177861
0.173755
0.169587
0.165356
0.161063
0.156707
0.152288
0.147806
0.143262
0.138655
0.133986
0.129254
0.124459
0.119601
0.114681
0.109698
0.104653
0.0995447
0.0943738
0.0891403
0.0838441
0.0784852
0.0730636
0.0675794
0.0620326
0.056423
0.0507508
0.045016
0.0392184
0.0333583
0.0274355
0.02145
0.0154019
0.00929124
0.00311794
0.00434232
0.0129398
0.02145
0.0298731
0.0382089
0.0464574
0.0546187
0.0626928
0.0706796
0.0785791
0.0863914
0.0941164
0.101754
0.109305
0.116768
0.124144
0.131432
0.138634
0.145748
0.152774
0.159714
0.166566
0.173331
0.180009
0.186599
0.193102
0.199518
0.205847
0.212088
0.218242
0.224308
0.230288
0.23618
0.241985
0.247702
0.253332
0.258875
0.264331
0.269699
0.274981
0.280174
0.285281
0.2903
0.295232
0.300077
0.304834
0.309504
0.314087
0.318582
0.32299
0.327311
0.331545
0.335691
0.33975
0.343722
0.347607
0.351404
0.355114
0.358736
0.362271
0.365719
0.36908
0.372354
0.37554
0.378639
0.38165
0.384574
0.387411
0.390161
0.392823
0.395399
0.397886
0.400287
0.4026
0.404826
0.406965
0.409016
0.41098
0.412857
0.414646
0.416348
0.417963
0.419491
0.420931
0.422284
0.42355
0.424728
0.42582
0.426823
0.42774
0.428569
0.429311
0.429966
0.430533
0.431013
0.431406
0.431712
0.43193
0.432061
0.432105
0.432061
0.43193
0.431712
0.431406
0.431013
0.430533
0.429966
0.429311
0.428569
0.42774
0.426823
0.42582
0.424728
0.42355
0.422284
0.420931
0.419491
0.417963
0.416348
0.414646
0.412857
0.41098
0.409016
0.406965
0.404826
0.4026
0.400287
0.397886
0.395399
0.392823
0.390161
0.387411
0.384574
0.38165
0.378639
0.37554
0.372354
0.36908
0.365719
0.362271
0.358736
0.355114
0.351404
0.347607
0.343722
0.33975
0.335691
0.331545
0.327311
0.32299
0.318582
0.314087
0.309504
0.304834
0.300077
0.295232
0.2903
0.285281
0.280174
0.274981
0.269699
0.264331
0.258875
0.253332
0.247702
0.241985
0.23618
0.230288
0.224308
0.218242
0.212088
0.205847
0.199518
0.193102
0.186599
0.180009
0.173331
0.166566
0.159714
0.152774
0.145748
0.138634
0.131432
0.124144
0.116768
0.109305
0.101754
0.0941164
0.0863914
0.0785791
0.0706796
0.0626928
0.0546187
0.0464574
0.0382089
0.0298731
0.02145
0.0129398
0.00434232
0.00555402
0.0165505
0.0274355
0.0382089
0.0488707
0.0594209
0.0698595
0.0801865
0.0904019
0.100506
0.110498
0.120378
0.130147
0.139805
0.14935
0.158784
0.168107
0.177318
0.186417
0.195404
0.20428
0.213044
0.221697
0.230238
0.238667
0.246985
0.255191
0.263285
0.271268
0.279139
0.286899
0.294546
0.302083
0.309507
0.31682
0.324021
0.331111
0.338089
0.344955
0.35171
0.358353
0.364884
0.371304
0.377612
0.383809
0.389894
0.395867
0.401728
0.407478
0.413116
0.418643
0.424058
0.429361
0.434553
0.439633
0.444601
0.449458
0.454203
0.458837
0.463358
0.467768
0.472067
0.476254
0.480329
0.484292
0.488144
0.491885
0.495513
0.49903
0.502435
0.505729
0.508911
0.511981
0.51494
0.517787
0.520522
0.523146
0.525658
0.528059
0.530348
0.532525
0.53459
0.536544
0.538386
0.540117
0.541736
0.543243
0.544639
0.545923
0.547095
0.548156
0.549105
0.549942
0.550668
0.551282
0.551784
0.552175
0.552454
0.552622
0.552677
0.552622
0.552454
0.552175
0.551784
0.551282
0.550668
0.549942
0.549105
0.548156
0.547095
0.545923
0.544639
0.543243
0.541736
0.540117
0.538386
0.536544
0.53459
0.532525
0.530348
0.528059
0.525658
0.523146
0.520522
0.517787
0.51494
0.511981
0.508911
0.505729
0.502435
0.49903
0.495513
0.491885
0.488144
0.484292
0.480329
0.476254
0.472067
0.467768
0.463358
0.458837
0.454203
0.449458
0.444601
0.439633
0.434553
0.429361
0.424058
0.418643
0.413116
0.407478
0.401728
0.395867
0.389894
0.383809
0.377612
0.371304
0.364884
0.358353
0.35171
0.344955
0.338089
0.331111
0.324021
0.31682
0.309507
0.302083
0.294546
0.286899
0.279139
0.271268
0.263285
0.255191
0.246985
0.238667
0.230238
0.221697
0.213044
0.20428
0.195404
0.186417
0.177318
0.168107
0.158784
0.14935
0.139805
0.130147
0.120378
0.110498
0.100506
0.0904019
0.0801865
0.0698595
0.0594209
0.0488707
0.0382089
0.0274355
0.0165505
0.00555402
0.00675304
0.0201235
0.0333583
0.0464574
0.0594209
0.0722486
0.0849407
0.0974971
0.109918
0.122203
0.134352
0.146365
0.158243
0.169985
0.181592
0.193062
0.204397
0.215596
0.22666
0.237588
0.24838
0.259036
0.269556
0.279941
0.29019
0.300303
0.310281
0.320123
0.329829
0.339399
0.348834
0.358132
0.367295
0.376323
0.385214
0.39397
0.40259
0.411075
0.419423
0.427636
0.435713
0.443655
0.45146
0.45913
0.466664
0.474063
0.481325
0.488452
0.495443
0.502299
0.509018
0.515602
0.522051
0.528363
0.53454
0.54058
0.546486
0.552255
0.557889
0.563387
0.568749
0.573975
0.579066
0.584021
0.58884
0.593523
0.598071
0.602483
0.606759
0.610899
0.614904
0.618773
0.622506
0.626104
0.629565
0.632891
0.636081
0.639136
0.642054
0.644837
0.647484
0.649996
0.652371
0.654611
0.656716
0.658684
0.660517
0.662213
0.663775
0.6652
0.66649
0.667644
0.668662
0.669544
0.670291
0.670902
0.671377
0.671716
0.67192
0.671988
0.67192
0.671716
0.671377
0.670902
0.670291
0.669544
0.668662
0.667644
0.66649
0.6652
0.663775
0.662213
0.660517
0.658684
0.656716
0.654611
0.652371
0.649996
0.647484
0.644837
0.642054
0.639136
0.636081
0.632891
0.629565
0.626104
0.622506
0.618773
0.614904
0.610899
0.606759
0.602483
0.598071
0.593523
0.58884
0.584021
0.579066
0.573975
0.568749
0.563387
0.557889
0.552255
0.546486
0.54058
0.53454
0.528363
0.522051
0.515602
0.509018
0.502299
0.495443
0.488452
0.481325
0.474063
0.466664
0.45913
0.45146
0.443655
0.435713
0.427636
0.419423
0.411075
0.40259
0.39397
0.385214
0.376323
0.367295
0.358132
0.348834
0.339399
0.329829
0.320123
0.310281
0.300303
0.29019
0.279941
0.269556
0.259036
0.24838
0.237588
0.22666
0.215596
0.204397
0.193062
0.181592
0.169985
0.158243
0.146365
0.134352
0.122203
0.109918
0.0974971
0.0849407
0.0722486
0.0594209
0.0464574
0.0333583
0.0201235
0.00675304
0.00793938
0.0236587
0.0392184
0.0546187
0.0698595
0.0849407
0.0998624
0.114625
0.129227
0.14367
0.157954
0.172078
0.186042
0.199847
0.213492
0.226978
0.240304
0.25347
0.266477
0.279325
0.292012
0.304541
0.316909
0.329118
0.341168
0.353058
0.364788
0.376359
0.38777
0.399021
0.410113
0.421045
0.431818
0.442431
0.452885
0.463179
0.473313
0.483288
0.493103
0.502759
0.512255
0.521591
0.530768
0.539785
0.548643
0.557341
0.56588
0.574259
0.582478
0.590537
0.598438
0.606178
0.613759
0.62118
0.628442
0.635544
0.642487
0.649269
0.655893
0.662357
0.668661
0.674805
0.68079
0.686615
0.692281
0.697787
0.703134
0.708321
0.713348
0.718216
0.722924
0.727473
0.731862
0.736091
0.740161
0.744071
0.747821
0.751412
0.754844
0.758116
0.761228
0.76418
0.766973
0.769607
0.77208
0.774395
0.776549
0.778544
0.78038
0.782055
0.783572
0.784928
0.786125
0.787163
0.78804
0.788759
0.789317
0.789716
0.789956
0.790035
0.789956
0.789716
0.789317
0.788759
0.78804
0.787163
0.786125
0.784928
0.783572
0.782055
0.78038
0.778544
0.776549
0.774395
0.77208
0.769607
0.766973
0.76418
0.761228
0.758116
0.754844
0.751412
0.747821
0.744071
0.740161
0.736091
0.731862
0.727473
0.722924
0.718216
0.713348
0.708321
0.703134
0.697787
0.692281
0.686615
0.68079
0.674805
0.668661
0.662357
0.655893
0.649269
0.642487
0.635544
0.628442
0.62118
0.613759
0.606178
0.598438
0.590537
0.582478
0.574259
0.56588
0.557341
0.548643
0.539785
0.530768
0.521591
0.512255
0.502759
0.493103
0.483288
0.473313
0.463179
0.452885
0.442431
0.431818
0.421045
0.410113
0.399021
0.38777
0.376359
0.364788
0.353058
0.341168
0.329118
0.316909
0.304541
0.292012
0.279325
0.266477
0.25347
0.240304
0.226978
0.213492
0.199847
0.186042
0.172078
0.157954
0.14367
0.129227
0.114625
0.0998624
0.0849407
0.0698595
0.0546187
0.0392184
0.0236587
0.00793938
0.00911304
0.027156
0.045016
0.0626928
0.0801865
0.0974971
0.114625
0.131569
0.14833
0.164908
0.181303
0.197515
0.213543
0.229389
0.245051
0.26053
0.275826
0.290939
0.305869
0.320615
0.335179
0.349559
0.363756
0.37777
0.3916
0.405248
0.418712
0.431993
0.445091
0.458006
0.470737
0.483286
0.495651
0.507833
0.519832
0.531647
0.54328
0.554729
0.565995
0.577078
0.587978
0.598695
0.609228
0.619578
0.629745
0.639729
0.64953
0.659147
0.668581
0.677832
0.6869
0.695785
0.704487
0.713005
0.72134
0.729492
0.737461
0.745246
0.752849
0.760268
0.767504
0.774557
0.781426
0.788113
0.794616
0.800936
0.807073
0.813027
0.818797
0.824385
0.829789
0.83501
0.840047
0.844902
0.849573
0.854062
0.858367
0.862488
0.866427
0.870182
0.873755
0.877144
0.880349
0.883372
0.886212
0.888868
0.891341
0.893631
0.895737
0.897661
0.899401
0.900958
0.902332
0.903523
0.904531
0.905355
0.905996
0.906454
0.906729
0.906821
0.906729
0.906454
0.905996
0.905355
0.904531
0.903523
0.902332
0.900958
0.899401
0.897661
0.895737
0.893631
0.891341
0.888868
0.886212
0.883372
0.880349
0.877144
0.873755
0.870182
0.866427
0.862488
0.858367
0.854062
0.849573
0.844902
0.840047
0.83501
0.829789
0.824385
0.818797
0.813027
0.807073
0.800936
0.794616
0.788113
0.781426
0.774557
0.767504
0.760268
0.752849
0.745246
0.737461
0.729492
0.72134
0.713005
0.704487
0.695785
0.6869
0.677832
0.668581
0.659147
0.64953
0.639729
0.629745
0.619578
0.609228
0.598695
0.587978
0.577078
0.565995
0.554729
0.54328
0.531647
0.519832
0.507833
0.495651
0.483286
0.470737
0.458006
0.445091
0.431993
0.418712
0.405248
0.3916
0.37777
0.363756
0.349559
0.335179
0.320615
0.305869
0.290939
0.275826
0.26053
0.245051
0.229389
0.213543
0.197515
0.181303
0.164908
0.14833
0.131569
0.114625
0.0974971
0.0801865
0.0626928
0.045016
0.027156
0.00911304
0.010274
0.0306156
0.0507508
0.0706796
0.0904019
0.109918
0.129227
0.14833
0.167227
0.185917
0.2044
0.222677
0.240748
0.258612
0.276269
0.29372
0.310965
0.328003
0.344835
0.36146
0.377878
0.39409
0.410096
0.425895
0.441488
0.456874
0.472053
0.487026
0.501793
0.516353
0.530706
0.544853
0.558794
0.572528
0.586055
0.599376
0.61249
0.625398
0.638099
0.650594
0.662883
0.674964
0.68684
0.698508
0.709971
0.721226
0.732275
0.743118
0.753754
0.764184
0.774407
0.784423
0.794233
0.803837
0.813234
0.822424
0.831408
0.840186
0.848757
0.857121
0.865279
0.87323
0.880975
0.888513
0.895845
0.90297
0.909889
0.916601
0.923107
0.929406
0.935498
0.941384
0.947064
0.952537
0.957803
0.962863
0.967717
0.972363
0.976804
0.981038
0.985065
0.988886
0.9925
0.995908
0.999109
1.0021
1.00489
1.00747
1.00985
1.01202
1.01398
1.01573
1.01728
1.01863
1.01976
1.02069
1.02141
1.02193
1.02224
1.02234
1.02224
1.02193
1.02141
1.02069
1.01976
1.01863
1.01728
1.01573
1.01398
1.01202
1.00985
1.00747
1.00489
1.0021
0.999109
0.995908
0.9925
0.988886
0.985065
0.981038
0.976804
0.972363
0.967717
0.962863
0.957803
0.952537
0.947064
0.941384
0.935498
0.929406
0.923107
0.916601
0.909889
0.90297
0.895845
0.888513
0.880975
0.87323
0.865279
0.857121
0.848757
0.840186
0.831408
0.822424
0.813234
0.803837
0.794233
0.784423
0.774407
0.764184
0.753754
0.743118
0.732275
0.721226
0.709971
0.698508
0.68684
0.674964
0.662883
0.650594
0.638099
0.625398
0.61249
0.599376
0.586055
0.572528
0.558794
0.544853
0.530706
0.516353
0.501793
0.487026
0.472053
0.456874
0.441488
0.425895
0.410096
0.39409
0.377878
0.36146
0.344835
0.328003
0.310965
0.29372
0.276269
0.258612
0.240748
0.222677
0.2044
0.185917
0.167227
0.14833
0.129227
0.109918
0.0904019
0.0706796
0.0507508
0.0306156
0.010274
0.0114223
0.0340374
0.056423
0.0785791
0.100506
0.122203
0.14367
0.164908
0.185917
0.206695
0.227245
0.247565
0.267655
0.287515
0.307146
0.326548
0.34572
0.364662
0.383375
0.401858
0.420111
0.438135
0.45593
0.473495
0.49083
0.507935
0.524812
0.541458
0.557875
0.574062
0.59002
0.605748
0.621246
0.636515
0.651554
0.666364
0.680944
0.695295
0.709416
0.723307
0.736968
0.750401
0.763603
0.776576
0.789319
0.801833
0.814117
0.826171
0.837996
0.849591
0.860957
0.872093
0.882999
0.893676
0.904124
0.914341
0.924329
0.934088
0.943616
0.952915
0.961985
0.970825
0.979435
0.987816
0.995967
1.00389
1.01158
1.01904
1.02628
1.03328
1.04005
1.0466
1.05291
1.059
1.06485
1.07048
1.07587
1.08104
1.08597
1.09068
1.09516
1.09941
1.10342
1.10721
1.11077
1.1141
1.1172
1.12007
1.12271
1.12512
1.1273
1.12926
1.13098
1.13247
1.13373
1.13477
1.13557
1.13614
1.13649
1.1366
1.13649
1.13614
1.13557
1.13477
1.13373
1.13247
1.13098
1.12926
1.1273
1.12512
1.12271
1.12007
1.1172
1.1141
1.11077
1.10721
1.10342
1.09941
1.09516
1.09068
1.08597
1.08104
1.07587
1.07048
1.06485
1.059
1.05291
1.0466
1.04005
1.03328
1.02628
1.01904
1.01158
1.00389
0.995967
0.987816
0.979435
0.970825
0.961985
0.952915
0.943616
0.934088
0.924329
0.914341
0.904124
0.893676
0.882999
0.872093
0.860957
0.849591
0.837996
0.826171
0.814117
0.801833
0.789319
0.776576
0.763603
0.750401
0.736968
0.723307
0.709416
0.695295
0.680944
0.666364
0.651554
0.636515
0.621246
0.605748
0.59002
0.574062
0.557875
0.541458
0.524812
0.507935
0.49083
0.473495
0.45593
0.438135
0.420111
0.401858
0.383375
0.364662
0.34572
0.326548
0.307146
0.287515
0.267655
0.247565
0.227245
0.206695
0.185917
0.164908
0.14367
0.122203
0.100506
0.0785791
0.056423
0.0340374
0.0114223
0.0125579
0.0374214
0.0620326
0.0863914
0.110498
0.134352
0.157954
0.181303
0.2044
0.227245
0.249837
0.272177
0.294264
0.316099
0.337682
0.359012
0.38009
0.400916
0.421489
0.44181
0.461878
0.481694
0.501257
0.520568
0.539627
0.558433
0.576987
0.595288
0.613337
0.631134
0.648678
0.66597
0.683009
0.699796
0.71633
0.732612
0.748642
0.764419
0.779944
0.795216
0.810236
0.825003
0.839518
0.853781
0.867791
0.881549
0.895054
0.908307
0.921307
0.934055
0.946551
0.958794
0.970785
0.982523
0.994009
1.00524
1.01622
1.02695
1.03743
1.04765
1.05762
1.06734
1.07681
1.08602
1.09498
1.10369
1.11215
1.12035
1.12831
1.136
1.14345
1.15065
1.15759
1.16428
1.17071
1.1769
1.18283
1.18851
1.19394
1.19911
1.20404
1.20871
1.21312
1.21729
1.2212
1.22486
1.22827
1.23143
1.23433
1.23698
1.23938
1.24152
1.24342
1.24506
1.24645
1.24758
1.24847
1.2491
1.24947
1.2496
1.24947
1.2491
1.24847
1.24758
1.24645
1.24506
1.24342
1.24152
1.23938
1.23698
1.23433
1.23143
1.22827
1.22486
1.2212
1.21729
1.21312
1.20871
1.20404
1.19911
1.19394
1.18851
1.18283
1.1769
1.17071
1.16428
1.15759
1.15065
1.14345
1.136
1.12831
1.12035
1.11215
1.10369
1.09498
1.08602
1.07681
1.06734
1.05762
1.04765
1.03743
1.02695
1.01622
1.00524
0.994009
0.982523
0.970785
0.958794
0.946551
0.934055
0.921307
0.908307
0.895054
0.881549
0.867791
0.853781
0.839518
0.825003
0.810236
0.795216
0.779944
0.764419
0.748642
0.732612
0.71633
0.699796
0.683009
0.66597
0.648678
0.631134
0.613337
0.595288
0.576987
0.558433
0.539627
0.520568
0.501257
0.481694
0.461878
0.44181
0.421489
0.400916
0.38009
0.359012
0.337682
0.316099
0.294264
0.272177
0.249837
0.227245
0.2044
0.181303
0.157954
0.134352
0.110498
0.0863914
0.0620326
0.0374214
0.0125579
0.0136808
0.0407676
0.0675794
0.0941164
0.120378
0.146365
0.172078
0.197515
0.222677
0.247565
0.272177
0.296514
0.320577
0.344364
0.367877
0.391114
0.414077
0.436765
0.459177
0.481315
0.503178
0.524766
0.546078
0.567116