# vtk DataFile Version 3.0
Malha 2D com triângulos e temperatura
ASCII
DATASET UNSTRUCTURED_GRID

POINTS 900 double
0 0 0
1 0 0
1 1 0
0 1 0
0.0344828 0 0
0.0689655 0 0
0.103448 0 0
0.137931 0 0
0.172414 0 0
0.206897 0 0
0.241379 0 0
0.275862 0 0
0.310345 0 0
0.344828 0 0
0.37931 0 0
0.413793 0 0
0.448276 0 0
0.482759 0 0
0.517241 0 0
0.551724 0 0
0.586207 0 0
0.62069 0 0
0.655172 0 0
0.689655 0 0
0.724138 0 0
0.758621 0 0
0.793103 0 0
0.827586 0 0
0.862069 0 0
0.896552 0 0
0.931034 0 0
0.965517 0 0
1 0.0344828 0
1 0.0689655 0
1 0.103448 0
1 0.137931 0
1 0.172414 0
1 0.206897 0
1 0.241379 0
1 0.275862 0
1 0.310345 0
1 0.344828 0
1 0.37931 0
1 0.413793 0
1 0.448276 0
1 0.482759 0
1 0.517241 0
1 0.551724 0
1 0.586207 0
1 0.62069 0
1 0.655172 0
1 0.689655 0
1 0.724138 0
1 0.758621 0
1 0.793103 0
1 0.827586 0
1 0.862069 0
1 0.896552 0
1 0.931034 0
1 0.965517 0
0.965517 1 0
0.931034 1 0
0.896552 1 0
0.862069 1 0
0.827586 1 0
0.793103 1 0
0.758621 1 0
0.724138 1 0
0.689655 1 0
0.655172 1 0
0.62069 1 0
0.586207 1 0
0.551724 1 0
0.517241 1 0
0.482759 1 0
0.448276 1 0
0.413793 1 0
0.37931 1 0
0.344828 1 0
0.310345 1 0
0.275862 1 0
0.241379 1 0
0.206897 1 0
0.172414 1 0
0.137931 1 0
0.103448 1 0
0.0689655 1 0
0.0344828 1 0
0 0.965517 0
0 0.931034 0
0 0.896552 0
0 0.862069 0
0 0.827586 0
0 0.793103 0
0 0.758621 0
0 0.724138 0
0 0.689655 0
0 0.655172 0
0 0.62069 0
0 0.586207 0
0 0.551724 0
0 0.517241 0
0 0.482759 0
0 0.448276 0
0 0.413793 0
0 0.37931 0
0 0.344828 0
0 0.310345 0
0 0.275862 0
0 0.241379 0
0 0.206897 0
0 0.172414 0
0 0.137931 0
0 0.103448 0
0 0.0689655 0
0 0.0344828 0
0.0344828 0.965517 0
0.0344828 0.931034 0
0.0344828 0.896552 0
0.0344828 0.862069 0
0.0344828 0.827586 0
0.0344828 0.793103 0
0.0344828 0.758621 0
0.0344828 0.724138 0
0.0344828 0.689655 0
0.0344828 0.655172 0
0.0344828 0.62069 0
0.0344828 0.586207 0
0.0344828 0.551724 0
0.0344828 0.517241 0
0.0344828 0.482759 0
0.0344828 0.448276 0
0.0344828 0.413793 0
0.0344828 0.37931 0
0.0344828 0.344828 0
0.0344828 0.310345 0
0.0344828 0.275862 0
0.0344828 0.241379 0
0.0344828 0.206897 0
0.0344828 0.172414 0
0.0344828 0.137931 0
0.0344828 0.103448 0
0.0344828 0.0689655 0
0.0344828 0.0344828 0
0.0689655 0.965517 0
0.0689655 0.931034 0
0.0689655 0.896552 0
0.0689655 0.862069 0
0.0689655 0.827586 0
0.0689655 0.793103 0
0.0689655 0.758621 0
0.0689655 0.724138 0
0.0689655 0.689655 0
0.0689655 0.655172 0
0.0689655 0.62069 0
0.0689655 0.586207 0
0.0689655 0.551724 0
0.0689655 0.517241 0
0.0689655 0.482759 0
0.0689655 0.448276 0
0.0689655 0.413793 0
0.0689655 0.37931 0
0.0689655 0.344828 0
0.0689655 0.310345 0
0.0689655 0.275862 0
0.0689655 0.241379 0
0.0689655 0.206897 0
0.0689655 0.172414 0
0.0689655 0.137931 0
0.0689655 0.103448 0
0.0689655 0.0689655 0
0.0689655 0.0344828 0
0.103448 0.965517 0
0.103448 0.931034 0
0.103448 0.896552 0
0.103448 0.862069 0
0.103448 0.827586 0
0.103448 0.793103 0
0.103448 0.758621 0
0.103448 0.724138 0
0.103448 0.689655 0
0.103448 0.655172 0
0.103448 0.62069 0
0.103448 0.586207 0
0.103448 0.551724 0
0.103448 0.517241 0
0.103448 0.482759 0
0.103448 0.448276 0
0.103448 0.413793 0
0.103448 0.37931 0
0.103448 0.344828 0
0.103448 0.310345 0
0.103448 0.275862 0
0.103448 0.241379 0
0.103448 0.206897 0
0.103448 0.172414 0
0.103448 0.137931 0
0.103448 0.103448 0
0.103448 0.0689655 0
0.103448 0.0344828 0
0.137931 0.965517 0
0.137931 0.931034 0
0.137931 0.896552 0
0.137931 0.862069 0
0.137931 0.827586 0
0.137931 0.793103 0
0.137931 0.758621 0
0.137931 0.724138 0
0.137931 0.689655 0
0.137931 0.655172 0
0.137931 0.62069 0
0.137931 0.586207 0
0.137931 0.551724 0
0.137931 0.517241 0
0.137931 0.482759 0
0.137931 0.448276 0
0.137931 0.413793 0
0.137931 0.37931 0
0.137931 0.344828 0
0.137931 0.310345 0
0.137931 0.275862 0
0.137931 0.241379 0
0.137931 0.206897 0
0.137931 0.172414 0
0.137931 0.137931 0
0.137931 0.103448 0
0.137931 0.0689655 0
0.137931 0.0344828 0
0.172414 0.965517 0
0.172414 0.931034 0
0.172414 0.896552 0
0.172414 0.862069 0
0.172414 0.827586 0
0.172414 0.793103 0
0.172414 0.758621 0
0.172414 0.724138 0
0.172414 0.689655 0
0.172414 0.655172 0
0.172414 0.62069 0
0.172414 0.586207 0
0.172414 0.551724 0
0.172414 0.517241 0
0.172414 0.482759 0
0.172414 0.448276 0
0.172414 0.413793 0
0.172414 0.37931 0
0.172414 0.344828 0
0.172414 0.310345 0
0.172414 0.275862 0
0.172414 0.241379 0
0.172414 0.206897 0
0.172414 0.172414 0
0.172414 0.137931 0
0.172414 0.103448 0
0.172414 0.0689655 0
0.172414 0.0344828 0
0.206897 0.965517 0
0.206897 0.931034 0
0.206897 0.896552 0
0.206897 0.862069 0
0.206897 0.827586 0
0.206897 0.793103 0
0.206897 0.758621 0
0.206897 0.724138 0
0.206897 0.689655 0
0.206897 0.655172 0
0.206897 0.62069 0
0.206897 0.586207 0
0.206897 0.551724 0
0.206897 0.517241 0
0.206897 0.482759 0
0.206897 0.448276 0
0.206897 0.413793 0
0.206897 0.37931 0
0.206897 0.344828 0
0.206897 0.310345 0
0.206897 0.275862 0
0.206897 0.241379 0
0.206897 0.206897 0
0.206897 0.172414 0
0.206897 0.137931 0
0.206897 0.103448 0
0.206897 0.0689655 0
0.206897 0.0344828 0
0.241379 0.965517 0
0.241379 0.931034 0
0.241379 0.896552 0
0.241379 0.862069 0
0.241379 0.827586 0
0.241379 0.793103 0
0.241379 0.758621 0
0.241379 0.724138 0
0.241379 0.689655 0
0.241379 0.655172 0
0.241379 0.62069 0
0.241379 0.586207 0
0.241379 0.551724 0
0.241379 0.517241 0
0.241379 0.482759 0
0.241379 0.448276 0
0.241379 0.413793 0
0.241379 0.37931 0
0.241379 0.344828 0
0.241379 0.310345 0
0.241379 0.275862 0
0.241379 0.241379 0
0.241379 0.206897 0
0.241379 0.172414 0
0.241379 0.137931 0
0.241379 0.103448 0
0.241379 0.0689655 0
0.241379 0.0344828 0
0.275862 0.965517 0
0.275862 0.931034 0
0.275862 0.896552 0
0.275862 0.862069 0
0.275862 0.827586 0
0.275862 0.793103 0
0.275862 0.758621 0
0.275862 0.724138 0
0.275862 0.689655 0
0.275862 0.655172 0
0.275862 0.62069 0
0.275862 0.586207 0
0.275862 0.551724 0
0.275862 0.517241 0
0.275862 0.482759 0
0.275862 0.448276 0
0.275862 0.413793 0
0.275862 0.37931 0
0.275862 0.344828 0
0.275862 0.310345 0
0.275862 0.275862 0
0.275862 0.241379 0
0.275862 0.206897 0
0.275862 0.172414 0
0.275862 0.137931 0
0.275862 0.103448 0
0.275862 0.0689655 0
0.275862 0.0344828 0
0.310345 0.965517 0
0.310345 0.931034 0
0.310345 0.896552 0
0.310345 0.862069 0
0.310345 0.827586 0
0.310345 0.793103 0
0.310345 0.758621 0
0.310345 0.724138 0
0.310345 0.689655 0
0.310345 0.655172 0
0.310345 0.62069 0
0.310345 0.586207 0
0.310345 0.551724 0
0.310345 0.517241 0
0.310345 0.482759 0
0.310345 0.448276 0
0.310345 0.413793 0
0.310345 0.37931 0
0.310345 0.344828 0
0.310345 0.310345 0
0.310345 0.275862 0
0.310345 0.241379 0
0.310345 0.206897 0
0.310345 0.172414 0
0.310345 0.137931 0
0.310345 0.103448 0
0.310345 0.0689655 0
0.310345 0.0344828 0
0.344828 0.965517 0
0.344828 0.931034 0
0.344828 0.896552 0
0.344828 0.862069 0
0.344828 0.827586 0
0.344828 0.793103 0
0.344828 0.758621 0
0.344828 0.724138 0
0.344828 0.689655 0
0.344828 0.655172 0
0.344828 0.62069 0
0.344828 0.586207 0
0.344828 0.551724 0
0.344828 0.517241 0
0.344828 0.482759 0
0.344828 0.448276 0
0.344828 0.413793 0
0.344828 0.37931 0
0.344828 0.344828 0
0.344828 0.310345 0
0.344828 0.275862 0
0.344828 0.241379 0
0.344828 0.206897 0
0.344828 0.172414 0
0.344828 0.137931 0
0.344828 0.103448 0
0.344828 0.0689655 0
0.344828 0.0344828 0
0.37931 0.965517 0
0.37931 0.931034 0
0.37931 0.896552 0
0.37931 0.862069 0
0.37931 0.827586 0
0.37931 0.793103 0
0.37931 0.758621 0
0.37931 0.724138 0
0.37931 0.689655 0
0.37931 0.655172 0
0.37931 0.62069 0
0.37931 0.586207 0
0.37931 0.551724 0
0.37931 0.517241 0
0.37931 0.482759 0
0.37931 0.448276 0
0.37931 0.413793 0
0.37931 0.37931 0
0.37931 0.344828 0
0.37931 0.310345 0
0.37931 0.275862 0
0.37931 0.241379 0
0.37931 0.206897 0
0.37931 0.172414 0
0.37931 0.137931 0
0.37931 0.103448 0
0.37931 0.0689655 0
0.37931 0.0344828 0
0.413793 0.965517 0
0.413793 0.931034 0
0.413793 0.896552 0
0.413793 0.862069 0
0.413793 0.827586 0
0.413793 0.793103 0
0.413793 0.758621 0
0.413793 0.724138 0
0.413793 0.689655 0
0.413793 0.655172 0
0.413793 0.62069 0
0.413793 0.586207 0
0.413793 0.551724 0
0.413793 0.517241 0
0.413793 0.482759 0
0.413793 0.448276 0
0.413793 0.413793 0
0.413793 0.37931 0
0.413793 0.344828 0
0.413793 0.310345 0
0.413793 0.275862 0
0.413793 0.241379 0
0.413793 0.206897 0
0.413793 0.172414 0
0.413793 0.137931 0
0.413793 0.103448 0
0.413793 0.0689655 0
0.413793 0.0344828 0
0.448276 0.965517 0
0.448276 0.931034 0
0.448276 0.896552 0
0.448276 0.862069 0
0.448276 0.827586 0
0.448276 0.793103 0
0.448276 0.758621 0
0.448276 0.724138 0
0.448276 0.689655 0
0.448276 0.655172 0
0.448276 0.62069 0
0.448276 0.586207 0
0.448276 0.551724 0
0.448276 0.517241 0
0.448276 0.482759 0
0.448276 0.448276 0
0.448276 0.413793 0
0.448276 0.37931 0
0.448276 0.344828 0
0.448276 0.310345 0
0.448276 0.275862 0
0.448276 0.241379 0
0.448276 0.206897 0
0.448276 0.172414 0
0.448276 0.137931 0
0.448276 0.103448 0
0.448276 0.0689655 0
0.448276 0.0344828 0
0.482759 0.965517 0
0.482759 0.931034 0
0.482759 0.896552 0
0.482759 0.862069 0
0.482759 0.827586 0
0.482759 0.793103 0
0.482759 0.758621 0
0.482759 0.724138 0
0.482759 0.689655 0
0.482759 0.655172 0
0.482759 0.62069 0
0.482759 0.586207 0
0.482759 0.551724 0
0.482759 0.517241 0
0.482759 0.482759 0
0.482759 0.448276 0
0.482759 0.413793 0
0.482759 0.37931 0
0.482759 0.344828 0
0.482759 0.310345 0
0.482759 0.275862 0
0.482759 0.241379 0
0.482759 0.206897 0
0.482759 0.172414 0
0.482759 0.137931 0
0.482759 0.103448 0
0.482759 0.0689655 0
0.482759 0.0344828 0
0.517241 0.965517 0
0.517241 0.931034 0
0.517241 0.896552 0
0.517241 0.862069 0
0.517241 0.827586 0
0.517241 0.793103 0
0.517241 0.758621 0
0.517241 0.724138 0
0.517241 0.689655 0
0.517241 0.655172 0
0.517241 0.62069 0
0.517241 0.586207 0
0.517241 0.551724 0
0.517241 0.517241 0
0.517241 0.482759 0
0.517241 0.448276 0
0.517241 0.413793 0
0.517241 0.37931 0
0.517241 0.344828 0
0.517241 0.310345 0
0.517241 0.275862 0
0.517241 0.241379 0
0.517241 0.206897 0
0.517241 0.172414 0
0.517241 0.137931 0
0.517241 0.103448 0
[...]
CELL_DATA 841
SCALARS Temperatura double 1
LOOKUP_TABLE default
0.02953
0.0846312
0.135696
0.182699
0.225628
0.264477
0.299243
0.329922
0.356514
0.379016
0.397428
0.411749
0.421979
0.428117
0.430163
0.428117
0.421979
0.411749
0.397428
0.379016
0.356514
0.329922
0.299243
0.264477
0.225628
0.182699
0.135696
0.0846312
0.02953
0.0846312
0.242377
0.388529
0.523045
0.6459
0.757079
0.856571
0.944369
1.02047
1.08487
1.13756
1.17854
1.20782
1.22539
1.23124
1.22539
1.20782
1.17854
1.13756
1.08487
1.02047
0.944369
0.856571
0.757079
0.6459
0.523045
0.388529
0.242377
0.0846312
0.135696
0.388529
0.622742
0.838292
1.03515
1.2133
1.37271
1.51339
1.63533
1.73852
1.82294
1.88862
1.93552
1.96367
1.97305
1.96367
1.93552
1.88862
1.82294
1.73852
1.63533
1.51339
1.37271
1.2133
1.03515
0.838292
0.622742
0.388529
0.135696
0.182699
0.523045
0.838292
1.1284
1.39334
1.6331
1.84765
2.03698
2.20108
2.33994
2.45357
2.54195
2.60508
2.64296
2.65558
2.64296
2.60508
2.54195
2.45357
2.33994
2.20108
2.03698
1.84765
1.6331
1.39334
1.1284
0.838292
0.523045
0.182699
0.225628
0.6459
1.03515
1.39334
1.72045
2.01646
2.28134
2.51509
2.71769
2.88913
3.02941
3.13853
3.21647
3.26323
3.27882
3.26323
3.21647
3.13853
3.02941
2.88913
2.71769
2.51509
2.28134
2.01646
1.72045
1.39334
1.03515
0.6459
0.225628
0.264477
0.757079
1.2133
1.6331
2.01646
2.36336
2.67379
2.94772
3.18515
3.38607
3.55046
3.67833
3.76967
3.82448
3.84274
3.82448
3.76967
3.67833
3.55046
3.38607
3.18515
2.94772
2.67379
2.36336
2.01646
1.6331
1.2133
0.757079
0.264477
0.299243
0.856571
1.37271
1.84765
2.28134
2.67379
3.02496
3.33485
3.60345
3.83073
4.01671
4.16136
4.26468
4.32668
4.34734
4.32668
4.26468
4.16136
4.01671
3.83073
3.60345
3.33485
3.02496
2.67379
2.28134
1.84765
1.37271
0.856571
0.299243
0.329922
0.944369
1.51339
2.03698
2.51509
2.94772
3.33485
3.67647
3.97256
4.22312
4.42813
4.58758
4.70149
4.76983
4.79261
4.76983
4.70149
4.58758
4.42813
4.22312
3.97256
3.67647
3.33485
2.94772
2.51509
2.03698
1.51339
0.944369
0.329922
0.356514
1.02047
1.63533
2.20108
2.71769
3.18515
3.60345
3.97256
4.29248
4.5632
4.78471
4.957
5.08007
5.15391
5.17853
5.15391
5.08007
4.957
4.78471
4.5632
4.29248
3.97256
3.60345
3.18515
2.71769
2.20108
1.63533
1.02047
0.356514
0.379016
1.08487
1.73852
2.33994
2.88913
3.38607
3.83073
4.22312
4.5632
4.85099
5.08645
5.2696
5.40043
5.47893
5.50509
5.47893
5.40043
5.2696
5.08645
4.85099
4.5632
4.22312
3.83073
3.38607
2.88913
2.33994
1.73852
1.08487
0.379016
0.397428
1.13756
1.82294
2.45357
3.02941
3.55046
4.01671
4.42813
4.78471
5.08645
5.33335
5.52538
5.66255
5.74485
5.77229
5.74485
5.66255
5.52538
5.33335
5.08645
4.78471
4.42813
4.01671
3.55046
3.02941
2.45357
1.82294
1.13756
0.397428
0.411749
1.17854
1.88862
2.54195
3.13853
3.67833
4.16136
4.58758
4.957
5.2696
5.52538
5.72432
5.86643
5.9517
5.98012
5.9517
5.86643
5.72432
5.52538
5.2696
4.957
4.58758
4.16136
3.67833
3.13853
2.54195
1.88862
1.17854
0.411749
0.421979
1.20782
1.93552
2.60508
3.21647
3.76967
4.26468
4.70149
5.08007
5.40043
5.66255
5.86643
6.01206
6.09944
6.12857
6.09944
6.01206
5.86643
5.66255
5.40043
5.08007
4.70149
4.26468
3.76967
3.21647
2.60508
1.93552
1.20782
0.421979
0.428117
1.22539
1.96367
2.64296
3.26323
3.82448
4.32668
4.76983
5.15391
5.47893
5.74485
5.9517
6.09944
6.18809
6.21764
6.18809
6.09944
5.9517
5.74485
5.47893
5.15391
4.76983
4.32668
3.82448
3.26323
2.64296
1.96367
1.22539
0.428117
0.430163
1.23124
1.97305
2.65558
3.27882
3.84274
4.34734
4.79261
5.17853
5.50509
5.77229
5.98012
6.12857
6.21764
6.24733
6.21764
6.12857
5.98012
5.77229
5.50509
5.17853
4.79261
4.34734
3.84274
3.27882
2.65558
1.97305
1.23124
0.430163
0.428117
1.22539
1.96367
2.64296
3.26323
3.82448
4.32668
4.76983
5.15391
5.47893
5.74485
5.9517
6.09944
6.18809
6.21764
6.18809
6.09944
5.9517
5.74485
5.47893
5.15391
4.76983
4.32668
3.82448
3.26323
2.64296
1.96367
1.22539
0.428117
0.421979
1.20782
1.93552
2.60508
3.21647
3.76967
4.26468
4.70149
5.08007
5.40043
5.66255
5.86643
6.01206
6.09944
6.12857
6.09944
6.01206
5.86643
5.66255
5.40043
5.08007
4.70149
4.26468
3.76967
3.21647
2.60508
1.93552
1.20782
0.421979
0.411749
1.17854
1.88862
2.54195
3.13853
3.67833
4.16136
4.58758
4.957
5.2696
5.52538
5.72432
5.86643
5.9517
5.98012
5.9517
5.86643
5.72432
5.52538
5.2696
4.957
4.58758
4.16136
3.67833
3.13853
2.54195
1.88862
1.17854
0.411749
0.397428
1.13756
1.82294
2.45357
3.02941
3.55046
4.01671
4.42813
4.78471
5.08645
5.33335
5.52538
5.66255
5.74485
5.77229
5.74485
5.66255
5.52538
5.33335
5.08645
4.78471
4.42813
4.01671
3.55046
3.02941
2.45357
1.82294
1.13756
0.397428
0.379016
1.08487
1.73852
2.33994
2.88913
3.38607
3.83073
4.22312
4.5632
4.85099
5.08645
5.2696
5.40043
5.47893
5.50509
5.47893
5.40043
5.2696
5.08645
4.85099
4.5632
4.22312
3.83073
3.38607
2.88913
2.33994
1.73852
1.08487
0.379016
0.356514
1.02047
1.63533
2.20108
2.71769
3.18515
3.60345
3.97256
4.29248
4.5632
4.78471
4.957
5.08007
5.15391
5.17853
5.15391
5.08007
4.957
4.78471
4.5632
4.29248
3.97256
3.60345
3.18515
2.71769
2.20108
1.63533
1.02047
0.356514
0.329922
0.944369
1.51339
2.03698
2.51509
2.94772
3.33485
3.67647
3.97256
4.22312
4.42813
4.58758
4.70149
4.76983
4.79261
4.76983
4.70149
4.58758
4.42813
4.22312
3.97256
3.67647
3.33485
2.94772
2.51509
2.03698
1.51339
0.944369
0.329922
0.299243
0.856571
1.37271
1.84765
2.28134
2.67379
3.02496
3.33485
3.60345
3.83073
4.01671
4.16136
4.26468
4.32668
4.34734
4.32668
4.26468
4.16136
4.01671
3.83073
3.60345
3.33485
3.02496
2.67379
2.28134
1.84765
1.37271
0.856571
0.299243
0.264477
0.757079
1.2133
1.6331
2.01646
2.36336
2.67379
2.94772
3.18515
3.38607
3.55046
3.67833
3.76967
3.82448
3.84274
3.82448
3.76967
3.67833
3.55046
3.38607
3.18515
2.94772
2.67379
2.36336
2.01646
1.6331
1.2133
0.757079
0.264477
0.225628
0.6459
1.03515
1.39334
1.72045
2.01646
2.28134
2.51509
2.71769
2.88913
3.02941
3.13853
3.21647
3.26323
3.27882
3.26323
3.21647
3.13853
3.02941
2.88913
2.71769
2.51509
2.28134
2.01646
1.72045
1.39334
1.03515
0.6459
0.225628
0.182699
0.523045
0.838292
1.1284
1.39334
1.6331
1.84765
2.03698
2.20108
2.33994
2.45357
2.54195
2.60508
2.64296
2.65558
2.64296
2.60508
2.54195
2.45357
2.33994
2.20108
2.03698
1.84765
1.6331
1.39334
1.1284
0.838292
0.523045
0.182699
0.135696
0.388529
0.622742
0.838292
1.03515
1.2133
1.37271
1.51339
1.63533
1.73852
1.82294
1.88862
1.93552
1.96367
1.97305
1.96367
1.93552
1.88862
1.82294
1.73852
1.63533
1.51339
1.37271
1.2133
1.03515
0.838292
0.622742
0.388529
0.135696
0.0846312
0.242377
0.388529
0.523045
0.6459
0.757079
0.856571
0.944369
1.02047
1.08487
1.13756
1.17854
1.20782
1.22539
1.23124
1.22539
1.20782
1.17854
1.13756
1.08487
1.02047
0.944369
0.856571
0.757079
0.6459
0.523045
0.388529
0.242377
0.0846312
0.02953
0.0846312
0.135696
0.182699
0.225628
0.264477
0.299243
0.329922
0.356514
0.379016
0.397428
0.411749
0.421979
0.428117
0.430163
0.428117
0.421979
0.411749
0.397428
0.379016
0.356514
0.329922
0.299243
0.264477
0.225628
0.182699
0.135696
0.0846312
0.02953
