# vtk DataFile Version 3.0
Malha 2D com triângulos e temperatura
ASCII
DATASET UNSTRUCTURED_GRID

POINTS 1600 double
0 0 0
1 0 0
1 1 0
0 1 0
0.025641 0 0
0.0512821 0 0
0.0769231 0 0
0.102564 0 0
0.128205 0 0
0.153846 0 0
0.179487 0 0
0.205128 0 0
0.230769 0 0
0.25641 0 0
0.282051 0 0
0.307692 0 0
0.333333 0 0
0.358974 0 0
0.384615 0 0
0.410256 0 0
0.435897 0 0
0.461538 0 0
0.487179 0 0
0.512821 0 0
0.538462 0 0
0.564103 0 0
0.589744 0 0
0.615385 0 0
0.641026 0 0
0.666667 0 0
0.692308 0 0
0.717949 0 0
0.74359 0 0
0.769231 0 0
0.794872 0 0
0.820513 0 0
0.846154 0 0
0.871795 0 0
0.897436 0 0
0.923077 0 0
0.948718 0 0
0.974359 0 0
1 0.025641 0
1 0.0512821 0
1 0.0769231 0
1 0.102564 0
1 0.128205 0
1 0.153846 0
1 0.179487 0
1 0.205128 0
1 0.230769 0
1 0.25641 0
1 0.282051 0
1 0.307692 0
1 0.333333 0
1 0.358974 0
1 0.384615 0
1 0.410256 0
1 0.435897 0
1 0.461538 0
1 0.487179 0
1 0.512821 0
1 0.538462 0
1 0.564103 0
1 0.589744 0
1 0.615385 0
1 0.641026 0
1 0.666667 0
1 0.692308 0
1 0.717949 0
1 0.74359 0
1 0.769231 0
1 0.794872 0
1 0.820513 0
1 0.846154 0
1 0.871795 0
1 0.897436 0
1 0.923077 0
1 0.948718 0
1 0.974359 0
0.974359 1 0
0.948718 1 0
0.923077 1 0
0.897436 1 0
0.871795 1 0
0.846154 1 0
0.820513 1 0
0.794872 1 0
0.769231 1 0
0.74359 1 0
0.717949 1 0
0.692308 1 0
0.666667 1 0
0.641026 1 0
0.615385 1 0
0.589744 1 0
0.564103 1 0
0.538462 1 0
0.512821 1 0
0.487179 1 0
0.461538 1 0
0.435897 1 0
0.410256 1 0
0.384615 1 0
0.358974 1 0
0.333333 1 0
0.307692 1 0
0.282051 1 0
0.25641 1 0
0.230769 1 0
0.205128 1 0
0.179487 1 0
0.153846 1 0
0.128205 1 0
0.102564 1 0
0.0769231 1 0
0.0512821 1 0
0.025641 1 0
0 0.974359 0
0 0.948718 0
0 0.923077 0
0 0.897436 0
0 0.871795 0
0 0.846154 0
0 0.820513 0
0 0.794872 0
0 0.769231 0
0 0.74359 0
0 0.717949 0
0 0.692308 0
0 0.666667 0
0 0.641026 0
0 0.615385 0
0 0.589744 0
0 0.564103 0
0 0.538462 0
0 0.512821 0
0 0.487179 0
0 0.461538 0
0 0.435897 0
0 0.410256 0
0 0.384615 0
0 0.358974 0
0 0.333333 0
0 0.307692 0
0 0.282051 0
0 0.25641 0
0 0.230769 0
0 0.205128 0
0 0.179487 0
0 0.153846 0
0 0.128205 0
0 0.102564 0
0 0.0769231 0
0 0.0512821 0
0 0.025641 0
0.025641 0.974359 0
0.025641 0.948718 0
0.025641 0.923077 0
0.025641 0.897436 0
0.025641 0.871795 0
0.025641 0.846154 0
0.025641 0.820513 0
0.025641 0.794872 0
0.025641 0.769231 0
0.025641 0.74359 0
0.025641 0.717949 0
0.025641 0.692308 0
0.025641 0.666667 0
0.025641 0.641026 0
0.025641 0.615385 0
0.025641 0.589744 0
0.025641 0.564103 0
0.025641 0.538462 0
0.025641 0.512821 0
0.025641 0.487179 0
0.025641 0.461538 0
0.025641 0.435897 0
0.025641 0.410256 0
0.025641 0.384615 0
0.025641 0.358974 0
0.025641 0.333333 0
0.025641 0.307692 0
0.025641 0.282051 0
0.025641 0.25641 0
0.025641 0.230769 0
0.025641 0.205128 0
0.025641 0.179487 0
0.025641 0.153846 0
0.025641 0.128205 0
0.025641 0.102564 0
0.025641 0.0769231 0
0.025641 0.0512821 0
0.025641 0.025641 0
0.0512821 0.974359 0
0.0512821 0.948718 0
0.0512821 0.923077 0
0.0512821 0.897436 0
0.0512821 0.871795 0
0.0512821 0.846154 0
0.0512821 0.820513 0
0.0512821 0.794872 0
0.0512821 0.769231 0
0.0512821 0.74359 0
0.0512821 0.717949 0
0.0512821 0.692308 0
0.0512821 0.666667 0
0.0512821 0.641026 0
0.0512821 0.615385 0
0.0512821 0.589744 0
0.0512821 0.564103 0
0.0512821 0.538462 0
0.0512821 0.512821 0
0.0512821 0.487179 0
0.0512821 0.461538 0
0.0512821 0.435897 0
0.0512821 0.410256 0
0.0512821 0.384615 0
0.0512821 0.358974 0
0.0512821 0.333333 0
0.0512821 0.307692 0
0.0512821 0.282051 0
0.0512821 0.25641 0
0.0512821 0.230769 0
0.0512821 0.205128 0
0.0512821 0.179487 0
0.0512821 0.153846 0
0.0512821 0.128205 0
0.0512821 0.102564 0
0.0512821 0.0769231 0
0.0512821 0.0512821 0
0.0512821 0.025641 0
0.0769231 0.974359 0
0.0769231 0.948718 0
0.0769231 0.923077 0
0.0769231 0.897436 0
0.0769231 0.871795 0
0.0769231 0.846154 0
0.0769231 0.820513 0
0.0769231 0.794872 0
0.0769231 0.769231 0
0.0769231 0.74359 0
0.0769231 0.717949 0
0.0769231 0.692308 0
0.0769231 0.666667 0
0.0769231 0.641026 0
0.0769231 0.615385 0
0.0769231 0.589744 0
0.0769231 0.564103 0
0.0769231 0.538462 0
0.0769231 0.512821 0
0.0769231 0.487179 0
0.0769231 0.461538 0
0.0769231 0.435897 0
0.0769231 0.410256 0
0.0769231 0.384615 0
0.0769231 0.358974 0
0.0769231 0.333333 0
0.0769231 0.307692 0
0.0769231 0.282051 0
0.0769231 0.25641 0
0.0769231 0.230769 0
0.0769231 0.205128 0
0.0769231 0.179487 0
0.0769231 0.153846 0
0.0769231 0.128205 0
0.0769231 0.102564 0
0.0769231 0.0769231 0
0.0769231 0.0512821 0
0.0769231 0.025641 0
0.102564 0.974359 0
0.102564 0.948718 0
0.102564 0.923077 0
0.102564 0.897436 0
0.102564 0.871795 0
0.102564 0.846154 0
0.102564 0.820513 0
0.102564 0.794872 0
0.102564 0.769231 0
0.102564 0.74359 0
0.102564 0.717949 0
0.102564 0.692308 0
0.102564 0.666667 0
0.102564 0.641026 0
0.102564 0.615385 0
0.102564 0.589744 0
0.102564 0.564103 0
0.102564 0.538462 0
0.102564 0.512821 0
0.102564 0.487179 0
0.102564 0.461538 0
0.102564 0.435897 0
0.102564 0.410256 0
0.102564 0.384615 0
0.102564 0.358974 0
0.102564 0.333333 0
0.102564 0.307692 0
0.102564 0.282051 0
0.102564 0.25641 0
0.102564 0.230769 0
0.102564 0.205128 0
0.102564 0.179487 0
0.102564 0.153846 0
0.102564 0.128205 0
0.102564 0.102564 0
0.102564 0.0769231 0
0.102564 0.0512821 0
0.102564 0.025641 0
0.128205 0.974359 0
0.128205 0.948718 0
0.128205 0.923077 0
0.128205 0.897436 0
0.128205 0.871795 0
0.128205 0.846154 0
0.128205 0.820513 0
0.128205 0.794872 0
0.128205 0.769231 0
0.128205 0.74359 0
0.128205 0.717949 0
0.128205 0.692308 0
0.128205 0.666667 0
0.128205 0.641026 0
0.128205 0.615385 0
0.128205 0.589744 0
0.128205 0.564103 0
0.128205 0.538462 0
0.128205 0.512821 0
0.128205 0.487179 0
0.128205 0.461538 0
0.128205 0.435897 0
0.128205 0.410256 0
0.128205 0.384615 0
0.128205 0.358974 0
0.128205 0.333333 0
0.128205 0.307692 0
0.128205 0.282051 0
0.128205 0.25641 0
0.128205 0.230769 0
0.128205 0.205128 0
0.128205 0.179487 0
0.128205 0.153846 0
0.128205 0.128205 0
0.128205 0.102564 0
0.128205 0.0769231 0
0.128205 0.0512821 0
0.128205 0.025641 0
0.153846 0.974359 0
0.153846 0.948718 0
0.153846 0.923077 0
0.153846 0.897436 0
0.153846 0.871795 0
0.153846 0.846154 0
0.153846 0.820513 0
0.153846 0.794872 0
0.153846 0.769231 0
0.153846 0.74359 0
0.153846 0.717949 0
0.153846 0.692308 0
0.153846 0.666667 0
0.153846 0.641026 0
0.153846 0.615385 0
0.153846 0.589744 0
0.153846 0.564103 0
0.153846 0.538462 0
0.153846 0.512821 0
0.153846 0.487179 0
0.153846 0.461538 0
0.153846 0.435897 0
0.153846 0.410256 0
0.153846 0.384615 0
0.153846 0.358974 0
0.153846 0.333333 0
0.153846 0.307692 0
0.153846 0.282051 0
0.153846 0.25641 0
0.153846 0.230769 0
0.153846 0.205128 0
0.153846 0.179487 0
0.153846 0.153846 0
0.153846 0.128205 0
0.153846 0.102564 0
0.153846 0.0769231 0
0.153846 0.0512821 0
0.153846 0.025641 0
0.179487 0.974359 0
0.179487 0.948718 0
0.179487 0.923077 0
0.179487 0.897436 0
0.179487 0.871795 0
0.179487 0.846154 0
0.179487 0.820513 0
0.179487 0.794872 0
0.179487 0.769231 0
0.179487 0.74359 0
0.179487 0.717949 0
0.179487 0.692308 0
0.179487 0.666667 0
0.179487 0.641026 0
0.179487 0.615385 0
0.179487 0.589744 0
0.179487 0.564103 0
0.179487 0.538462 0
0.179487 0.512821 0
0.179487 0.487179 0
0.179487 0.461538 0
0.179487 0.435897 0
0.179487 0.410256 0
0.179487 0.384615 0
0.179487 0.358974 0
0.179487 0.333333 0
0.179487 0.307692 0
0.179487 0.282051 0
0.179487 0.25641 0
0.179487 0.230769 0
0.179487 0.205128 0
0.179487 0.179487 0
0.179487 0.153846 0
0.179487 0.128205 0
0.179487 0.102564 0
0.179487 0.0769231 0
0.179487 0.0512821 0
0.179487 0.025641 0
0.205128 0.974359 0
0.205128 0.948718 0
0.205128 0.923077 0
0.205128 0.897436 0
0.205128 0.871795 0
0.205128 0.846154 0
0.205128 0.820513 0
0.205128 0.794872 0
0.205128 0.769231 0
0.205128 0.74359 0
0.205128 0.717949 0
0.205128 0.692308 0
0.205128 0.666667 0
0.205128 0.641026 0
0.205128 0.615385 0
0.205128 0.589744 0
0.205128 0.564103 0
0.205128 0.538462 0
0.205128 0.512821 0
0.205128 0.487179 0
0.205128 0.461538 0
0.205128 0.435897 0
0.205128 0.410256 0
0.205128 0.384615 0
0.205128 0.358974 0
0.205128 0.333333 0
0.205128 0.307692 0
0.205128 0.282051 0
0.205128 0.25641 0
0.205128 0.230769 0
0.205128 0.205128 0
0.205128 0.179487 0
0.205128 0.153846 0
0.205128 0.128205 0
0.205128 0.102564 0
0.205128 0.0769231 0
0.205128 0.0512821 0
0.205128 0.025641 0
0.230769 0.974359 0
0.230769 0.948718 0
0.230769 0.923077 0
0.230769 0.897436 0
0.230769 0.871795 0
0.230769 0.846154 0
0.230769 0.820513 0
0.230769 0.794872 0
0.230769 0.769231 0
0.230769 0.74359 0
0.230769 0.717949 0
0.230769 0.692308 0
0.230769 0.666667 0
0.230769 0.641026 0
0.230769 0.615385 0
0.230769 0.589744 0
0.230769 0.564103 0
0.230769 0.538462 0
0.230769 0.512821 0
0.230769 0.487179 0
0.230769 0.461538 0
0.230769 0.435897 0
0.230769 0.410256 0
0.230769 0.384615 0
0.230769 0.358974 0
0.230769 0.333333 0
0.230769 0.307692 0
0.230769 0.282051 0
0.230769 0.25641 0
0.230769 0.230769 0
0.230769 0.205128 0
0.230769 0.179487 0
0.230769 0.153846 0
0.230769 0.128205 0
0.230769 0.102564 0
0.230769 0.0769231 0
0.230769 0.0512821 0
0.230769 0.025641 0
0.25641 0.974359 0
0.25641 0.948718 0
0.25641 0.923077 0
0.25641 0.897436 0
0.25641 0.871795 0
0.25641 0.846154 0
0.25641 0.820513 0
0.25641 0.794872 0
0.25641 0.769231 0
0.25641 0.74359 0
0.25641 0.717949 0
0.25641 0.692308 0
0.25641 0.666667 0
0.25641 0.641026 0
0.25641 0.615385 0
0.25641 0.589744 0
0.25641 0.564103 0
0.25641 0.538462 0
0.25641 0.512821 0
0.25641 0.487179 0
0.25641 0.461538 0
0.25641 0.435897 0
0.25641 0.410256 0
0.25641 0.384615 0
0.25641 0.358974 0
0.25641 0.333333 0
0.25641 0.307692 0
0.25641 0.282051 0
0.25641 0.25641 0
0.25641 0.230769 0
0.25641 0.205128 0
0.25641 0.179487 0
0.25641 0.153846 0
0.25641 0.128205 0
0.25641 0.102564 0
0.25641 0.0769231 0
0.25641 0.0512821 0
0.25641 0.025641 0
0.282051 0.974359 0
0.282051 0.948718 0
0.282051 0.923077 0
0.282051 0.897436 0
0.282051 0.871795 0
0.282051 0.846154 0
0.282051 0.820513 0
0.282051 0.794872 0
0.282051 0.769231 0
0.282051 0.74359 0
0.282051 0.717949 0
0.282051 0.692308 0
[...]
CELL_DATA 1521
SCALARS Temperatura double 1
LOOKUP_TABLE default
0.0163724
0.0474746
0.0769106
0.104672
0.130757
0.155161
0.177885
0.198927
0.218287
0.235965
0.251959
0.266271
0.278899
0.289844
0.299106
0.306683
0.312577
0.316787
0.319313
0.320154
0.319313
0.316787
0.312577
0.306683
0.299106
0.289844
0.278899
0.266271
0.251959
0.235965
0.218287
0.198927
0.177885
0.155161
0.130757
0.104672
0.0769106
0.0474746
0.0163724
0.0474746
0.137606
0.222897
0.303332
0.378907
0.449614
0.515452
0.576418
0.63251
0.683728
0.73007
0.771536
0.808124
0.839835
0.866668
0.888622
0.905698
0.917895
0.925214
0.927653
0.925214
0.917895
0.905698
0.888622
0.866668
0.839835
0.808124
0.771536
0.73007
0.683728
0.63251
0.576418
0.515452
0.449614
0.378907
0.303332
0.222897
0.137606
0.0474746
0.0769106
0.222897
0.361028
0.491293
0.613682
0.728189
0.834809
0.933539
1.02438
1.10732
1.18237
1.24952
1.30877
1.36012
1.40358
1.43913
1.46678
1.48654
1.49839
1.50234
1.49839
1.48654
1.46678
1.43913
1.40358
1.36012
1.30877
1.24952
1.18237
1.10732
1.02438
0.933539
0.834809
0.728189
0.613682
0.491293
0.361028
0.222897
0.0769106
0.104672
0.303332
0.491293
0.668543
0.835073
0.990876
1.13595
1.27028
1.39388
1.50673
1.60884
1.70021
1.78083
1.8507
1.90983
1.9582
1.99583
2.02271
2.03883
2.04421
2.03883
2.02271
1.99583
1.9582
1.90983
1.8507
1.78083
1.70021
1.60884
1.50673
1.39388
1.27028
1.13595
0.990876
0.835073
0.668543
0.491293
0.303332
0.104672
0.130757
0.378907
0.613682
0.835073
1.04307
1.23767
1.41886
1.58664
1.74101
1.88196
2.0095
2.12361
2.22431
2.31157
2.38542
2.44584
2.49283
2.5264
2.54654
2.55325
2.54654
2.5264
2.49283
2.44584
2.38542
2.31157
2.22431
2.12361
2.0095
1.88196
1.74101
1.58664
1.41886
1.23767
1.04307
0.835073
0.613682
0.378907
0.130757
0.155161
0.449614
0.728189
0.990876
1.23767
1.46856
1.68354
1.88261
2.06577
2.23301
2.38432
2.51972
2.63919
2.74273
2.83034
2.90203
2.95779
2.99761
3.02151
3.02947
3.02151
2.99761
2.95779
2.90203
2.83034
2.74273
2.63919
2.51972
2.38432
2.23301
2.06577
1.88261
1.68354
1.46856
1.23767
0.990876
0.728189
0.449614
0.155161
0.177885
0.515452
0.834809
1.13595
1.41886
1.68354
1.92999
2.15819
2.36815
2.55986
2.73332
2.88852
3.02547
3.14417
3.2446
3.32678
3.39069
3.43635
3.46374
3.47287
3.46374
3.43635
3.39069
3.32678
3.2446
3.14417
3.02547
2.88852
2.73332
2.55986
2.36815
2.15819
1.92999
1.68354
1.41886
1.13595
0.834809
0.515452
0.177885
0.198927
0.576418
0.933539
1.27028
1.58664
1.88261
2.15819
2.41337
2.64814
2.86251
3.05647
3.23002
3.38316
3.51588
3.62819
3.72007
3.79154
3.84259
3.87322
3.88343
3.87322
3.84259
3.79154
3.72007
3.62819
3.51588
3.38316
3.23002
3.05647
2.86251
2.64814
2.41337
2.15819
1.88261
1.58664
1.27028
0.933539
0.576418
0.198927
0.218287
0.63251
1.02438
1.39388
1.74101
2.06577
2.36815
2.64814
2.90575
3.14097
3.35379
3.54421
3.71224
3.85787
3.9811
4.08192
4.16034
4.21635
4.24996
4.26116
4.24996
4.21635
4.16034
4.08192
3.9811
3.85787
3.71224
3.54421
3.35379
3.14097
2.90575
2.64814
2.36815
2.06577
1.74101
1.39388
1.02438
0.63251
0.218287
0.235965
0.683728
1.10732
1.50673
1.88196
2.23301
2.55986
2.86251
3.14097
3.39522
3.62526
3.8311
4.01272
4.17013
4.30333
4.41231
4.49707
4.55762
4.59395
4.60606
4.59395
4.55762
4.49707
4.41231
4.30333
4.17013
4.01272
3.8311
3.62526
3.39522
3.14097
2.86251
2.55986
2.23301
1.88196
1.50673
1.10732
0.683728
0.235965
0.251959
0.73007
1.18237
1.60884
2.0095
2.38432
2.73332
3.05647
3.35379
3.62526
3.87089
4.09066
4.28459
4.45266
4.59488
4.71124
4.80174
4.86639
4.90518
4.91811
4.90518
4.86639
4.80174
4.71124
4.59488
4.45266
4.28459
4.09066
3.87089
3.62526
3.35379
3.05647
2.73332
2.38432
2.0095
1.60884
1.18237
0.73007
0.251959
0.266271
0.771536
1.24952
1.70021
2.12361
2.51972
2.88852
3.23002
3.54421
3.8311
4.09066
4.32291
4.52785
4.70546
4.85575
4.97871
5.07435
5.14267
5.18366
5.19732
5.18366
5.14267
5.07435
4.97871
4.85575
4.70546
4.52785
4.32291
4.09066
3.8311
3.54421
3.23002
2.88852
2.51972
2.12361
1.70021
1.24952
0.771536
0.266271
0.278899
0.808124
1.30877
1.78083
2.22431
2.63919
3.02547
3.38316
3.71224
4.01272
4.28459
4.52785
4.74249
4.92852
5.08593
5.21472
5.31489
5.38645
5.42938
5.44369
5.42938
5.38645
5.31489
5.21472
5.08593
4.92852
4.74249
4.52785
4.28459
4.01272
3.71224
3.38316
3.02547
2.63919
2.22431
1.78083
1.30877
0.808124
0.278899
0.289844
0.839835
1.36012
1.8507
2.31157
2.74273
3.14417
3.51588
3.85787
4.17013
4.45266
4.70546
4.92852
5.12184
5.28542
5.41927
5.52337
5.59773
5.64234
5.65721
5.64234
5.59773
5.52337
5.41927
5.28542
5.12184
4.92852
4.70546
4.45266
4.17013
3.85787
3.51588
3.14417
2.74273
2.31157
1.8507
1.36012
0.839835
0.289844
0.299106
0.866668
1.40358
1.90983
2.38542
2.83034
3.2446
3.62819
3.9811
4.30333
4.59488
4.85575
5.08593
5.28542
5.45423
5.59235
5.69977
5.7765
5.82254
5.83789
5.82254
5.7765
5.69977
5.59235
5.45423
5.28542
5.08593
4.85575
4.59488
4.30333
3.9811
3.62819
3.2446
2.83034
2.38542
1.90983
1.40358
0.866668
0.299106
0.306683
0.888622
1.43913
1.9582
2.44584
2.90203
3.32678
3.72007
4.08192
4.41231
4.71124
4.97871
5.21472
5.41927
5.59235
5.73396
5.8441
5.92278
5.96998
5.98572
5.96998
5.92278
5.8441
5.73396
5.59235
5.41927
5.21472
4.97871
4.71124
4.41231
4.08192
3.72007
3.32678
2.90203
2.44584
1.9582
1.43913
0.888622
0.306683
0.312577
0.905698
1.46678
1.99583
2.49283
2.95779
3.39069
3.79154
4.16034
4.49707
4.80174
5.07435
5.31489
5.52337
5.69977
5.8441
5.95636
6.03655
6.08466
6.1007
6.08466
6.03655
5.95636
5.8441
5.69977
5.52337
5.31489
5.07435
4.80174
4.49707
4.16034
3.79154
3.39069
2.95779
2.49283
1.99583
1.46678
0.905698
0.312577
0.316787
0.917895
1.48654
2.02271
2.5264
2.99761
3.43635
3.84259
4.21635
4.55762
4.86639
5.14267
5.38645
5.59773
5.7765
5.92278
6.03655
6.11781
6.16657
6.18283
6.16657
6.11781
6.03655
5.92278
5.7765
5.59773
5.38645
5.14267
4.86639
4.55762
4.21635
3.84259
3.43635
2.99761
2.5264
2.02271
1.48654
0.917895
0.316787
0.319313
0.925214
1.49839
2.03883
2.54654
3.02151
3.46374
3.87322
4.24996
4.59395
4.90518
5.18366
5.42938
5.64234
5.82254
5.96998
6.08466
6.16657
6.21572
6.2321
6.21572
6.16657
6.08466
5.96998
5.82254
5.64234
5.42938
5.18366
4.90518
4.59395
4.24996
3.87322
3.46374
3.02151
2.54654
2.03883
1.49839
0.925214
0.319313
0.320154
0.927653
1.50234
2.04421
2.55325
3.02947
3.47287
3.88343
4.26116
4.60606
4.91811
5.19732
5.44369
5.65721
5.83789
5.98572
6.1007
6.18283
6.2321
6.24853
6.2321
6.18283
6.1007
5.98572
5.83789
5.65721
5.44369
5.19732
4.91811
4.60606
4.26116
3.88343
3.47287
3.02947
2.55325
2.04421
1.50234
0.927653
0.320154
0.319313
0.925214
1.49839
2.03883
2.54654
3.02151
3.46374
3.87322
4.24996
4.59395
4.90518
5.18366
5.42938
5.64234
5.82254
5.96998
6.08466
6.16657
6.21572
6.2321
6.21572
6.16657
6.08466
5.96998
5.82254
5.64234
5.42938
5.18366
4.90518
4.59395
4.24996
3.87322
3.46374
3.02151
2.54654
2.03883
1.49839
0.925214
0.319313
0.316787
0.917895
1.48654
2.02271
2.5264
2.99761
3.43635
3.84259
4.21635
4.55762
4.86639
5.14267
5.38645
5.59773
5.7765
5.92278
6.03655
6.11781
6.16657
6.18283
6.16657
6.11781
6.03655
5.92278
5.7765
5.59773
5.38645
5.14267
4.86639
4.55762
4.21635
3.84259
3.43635
2.99761
2.5264
2.02271
1.48654
0.917895
0.316787
0.312577
0.905698
1.46678
1.99583
2.49283
2.95779
3.39069
3.79154
4.16034
4.49707
4.80174
5.07435
5.31489
5.52337
5.69977
5.8441
5.95636
6.03655
6.08466
6.1007
6.08466
6.03655
5.95636
5.8441
5.69977
5.52337
5.31489
5.07435
4.80174
4.49707
4.16034
3.79154
3.39069
2.95779
2.49283
1.99583
1.46678
0.905698
0.312577
0.306683
0.888622
1.43913
1.9582
2.44584
2.90203
3.32678
3.72007
4.08192
4.41231
4.71124
4.97871
5.21472
5.41927
5.59235
5.73396
5.8441
5.92278
5.96998
5.98572
5.96998
5.92278
5.8441
5.73396
5.59235
5.41927
5.21472
4.97871
4.71124
4.41231
4.08192
3.72007
3.32678
2.90203
2.44584
1.9582
1.43913
0.888622
0.306683
0.299106
0.866668
1.40358
1.90983
2.38542
2.83034
3.2446
3.62819
3.9811
4.30333
4.59488
4.85575
5.08593
5.28542
5.45423
5.59235
5.69977
5.7765
5.82254
5.83789
5.82254
5.7765
5.69977
5.59235
5.45423
5.28542
5.08593
4.85575
4.59488
4.30333
3.9811
3.62819
3.2446
2.83034
2.38542
1.90983
1.40358
0.866668
0.299106
0.289844
0.839835
1.36012
1.8507
2.31157
2.74273
3.14417
3.51588
3.85787
4.17013
4.45266
4.70546
4.92852
5.12184
5.28542
5.41927
5.52337
5.59773
5.64234
5.65721
5.64234
5.59773
5.52337
5.41927
5.28542
5.12184
4.92852
4.70546
4.45266
4.17013
3.85787
3.51588
3.14417
2.74273
2.31157
1.8507
1.36012
0.839835
0.289844
0.278899
0.808124
1.30877
1.78083
2.22431
2.63919
3.02547
3.38316
3.71224
4.01272
4.28459
4.52785
4.74249
4.92852
5.08593
5.21472
5.31489
5.38645
5.42938
5.44369
5.42938
5.38645
5.31489
5.21472
5.08593
4.92852
4.74249
4.52785
4.28459
4.01272
3.71224
3.38316
3.02547
2.63919
2.22431
1.78083
1.30877
0.808124
0.278899
0.266271
0.771536
1.24952
1.70021
2.12361
2.51972
2.88852
3.23002
3.54421
3.8311
4.09066
4.32291
4.52785
4.70546
4.85575
4.97871
5.07435
5.14267
5.18366
5.19732
5.18366
5.14267
5.07435
4.97871
4.85575
4.70546
4.52785
4.32291
4.09066
3.8311
3.54421
3.23002
2.88852
2.51972
2.12361
1.70021
1.24952
0.771536
0.266271
0.251959
0.73007
1.18237
1.60884
2.0095
2.38432
2.73332
3.05647
3.35379
3.62526
3.87089
4.09066
4.28459
4.45266
4.59488
4.71124
4.80174
4.86639
4.90518
4.91811
4.90518
4.86639
4.80174
4.71124
4.59488
4.45266
4.28459
4.09066
3.87089
3.62526
3.35379
3.05647
2.73332
2.38432
2.0095
1.60884
1.18237
0.73007
0.251959
0.235965
0.683728
1.10732
1.50673
1.88196
2.23301
2.55986
2.86251
3.14097
3.39522
3.62526
3.8311
4.01272
4.17013
4.30333
4.41231
4.49707
4.55762
4.59395
4.60606
4.59395
4.55762
4.49707
4.41231
4.30333
4.17013
4.01272
3.8311
3.62526
3.39522
3.14097
2.86251
2.55986
2.23301
1.88196
1.50673
1.10732
0.683728
0.235965
0.218287
0.63251
1.02438
1.39388
1.74101
2.06577
2.36815
2.64814
2.90575
3.14097
3.35379
3.54421
3.71224
3.85787
3.9811
4.08192
4.16034
4.21635
4.24996
4.26116
4.24996
4.21635
4.16034
4.08192
3.9811
3.85787
3.71224
3.54421
3.35379
3.14097
2.90575
2.64814
2.36815
2.06577
1.74101
1.39388
1.02438
0.63251
0.218287
0.198927
0.576418
0.933539
1.27028
1.58664
1.88261
2.15819
2.41337
2.64814
2.86251
3.05647
3.23002
3.38316
3.51588
3.62819
3.72007
3.79154
3.84259
3.87322
3.88343
3.87322
3.84259
3.79154
3.72007
3.62819
3.51588
3.38316
3.23002
3.05647
2.86251
2.64814
2.41337
2.15819
1.88261
1.58664
1.27028
0.933539
0.576418
0.198927
0.177885
0.515452
0.834809
1.13595
1.41886
1.68354
1.92999
2.15819
2.36815
2.55986
2.73332
2.88852
3.02547
3.14417
3.2446
3.32678
3.39069
3.43635
3.46374
3.47287
3.46374
3.43635
3.39069
3.32678
3.2446
3.14417
3.02547
2.88852
2.73332
2.55986
2.36815
2.15819
1.92999
1.68354
1.41886
1.13595
0.834809
0.515452
0.177885
0.155161
0.449614
0.728189
0.990876
1.23767
1.46856
1.68354
1.88261
2.06577
2.23301
2.38432
2.51972
2.63919
2.74273
2.83034
2.90203
2.95779
2.99761
3.02151
3.02947
3.02151
2.99761
2.95779
2.90203
2.83034
2.74273
2.63919
2.51972
2.38432
2.23301
2.06577
1.88261
1.68354
1.46856
1.23767
0.990876
0.728189
0.449614
0.155161
0.130757
0.378907
0.613682
0.835073
1.04307
1.23767
1.41886
1.58664
1.74101
1.88196
2.0095
2.12361
2.22431
2.31157
2.38542
2.44584
2.49283
2.5264
2.54654
2.55325
2.54654
2.5264
2.49283
2.44584
2.38542
2.31157
2.22431
2.12361
2.0095
1.88196
1.74101
1.58664
1.41886
1.23767
1.04307
0.835073
0.613682
0.378907
0.130757
0.104672
0.303332
0.491293
0.668543
0.835073
0.990876
1.13595
1.27028
1.39388
1.50673
1.60884
1.70021
1.78083
1.8507
1.90983
1.9582
1.99583
2.02271
2.03883
2.04421
2.03883
2.02271
1.99583
1.9582
1.90983
1.8507
1.78083
1.70021
1.60884
1.50673
1.39388
1.27028
1.13595
0.990876
0.835073
0.668543
0.491293
0.303332
0.104672
0.0769106
0.222897
0.361028
0.491293
0.613682
0.728189
0.834809
0.933539
1.02438
1.10732
1.18237
1.24952
1.30877
1.36012
1.40358
1.43913
1.46678
1.48654
1.49839
1.50234
1.49839
1.48654
1.46678
1.43913
1.40358
1.36012
1.30877
1.24952
1.18237
1.10732
1.02438
0.933539
0.834809
0.728189
0.613682
0.491293
0.361028
0.222897
0.0769106
0.0474746
0.137606
0.222897
0.303332
0.378907
0.449614
0.515452
0.576418
0.63251
0.683728
0.73007
0.771536
0.808124
0.839835
0.866668
0.888622
0.905698
0.917895
0.925214
0.927653
0.925214
0.917895
0.905698
0.888622
0.866668
0.839835
0.808124
0.771536
0.73007
0.683728
0.63251
0.576418
0.515452
0.449614
0.378907
0.303332
0.222897
0.137606
0.0474746
0.0163724
0.0474746
0.0769106
0.104672
0.130757
0.155161
0.177885
0.198927
0.218287
0.235965
0.251959
0.266271
0.278899
0.289844
0.299106
0.306683
0.312577
0.316787
0.319313
0.320154
0.319313
0.316787
0.312577
0.306683
0.299106
0.289844
0.278899
0.266271
0.251959
0.235965
0.218287
0.198927
0.177885
0.155161
0.130757
0.104672
0.0769106
0.0474746
0.0163724
