# vtk DataFile Version 3.0
Malha 2D com triângulos: velocidade e pressão
ASCII
DATASET UNSTRUCTURED_GRID

POINTS 4446 double
2 0 0
10 0 0
10 1 0
0 1 0
0 0.5 0
2 0.5 0
2.05 0 0
2.1 0 0
2.15 0 0
2.2 0 0
2.25 0 0
2.3 0 0
2.35 0 0
2.4 0 0
2.45 0 0
2.5 0 0
2.55 0 0
2.6 0 0
2.65 0 0
2.7 0 0
2.75 0 0
2.8 0 0
2.85 0 0
2.9 0 0
2.95 0 0
3 0 0
3.05 0 0
3.1 0 0
3.15 0 0
3.2 0 0
3.25 0 0
3.3 0 0
3.35 0 0
3.4 0 0
3.45 0 0
3.5 0 0
3.55 0 0
3.6 0 0
3.65 0 0
3.7 0 0
3.75 0 0
3.8 0 0
3.85 0 0
3.9 0 0
3.95 0 0
4 0 0
4.05 0 0
4.1 0 0
4.15 0 0
4.2 0 0
4.25 0 0
4.3 0 0
4.35 0 0
4.4 0 0
4.45 0 0
4.5 0 0
4.55 0 0
4.6 0 0
4.65 0 0
4.7 0 0
4.75 0 0
4.8 0 0
4.85 0 0
4.9 0 0
4.95 0 0
5 0 0
5.05 0 0
5.1 0 0
5.15 0 0
5.2 0 0
5.25 0 0
5.3 0 0
5.35 0 0
5.4 0 0
5.45 0 0
5.5 0 0
5.55 0 0
5.6 0 0
5.65 0 0
5.7 0 0
5.75 0 0
5.8 0 0
5.85 0 0
5.9 0 0
5.95 0 0
6 0 0
6.05 0 0
6.1 0 0
6.15 0 0
6.2 0 0
6.25 0 0
6.3 0 0
6.35 0 0
6.4 0 0
6.45 0 0
6.5 0 0
6.55 0 0
6.6 0 0
6.65 0 0
6.7 0 0
6.75 0 0
6.8 0 0
6.85 0 0
6.9 0 0
6.95 0 0
7 0 0
7.05 0 0
7.1 0 0
7.15 0 0
7.2 0 0
7.25 0 0
7.3 0 0
7.35 0 0
7.4 0 0
7.45 0 0
7.5 0 0
7.55 0 0
7.6 0 0
7.65 0 0
7.7 0 0
7.75 0 0
7.8 0 0
7.85 0 0
7.9 0 0
7.95 0 0
8 0 0
8.05 0 0
8.1 0 0
8.15 0 0
8.2 0 0
8.25 0 0
8.3 0 0
8.35 0 0
8.4 0 0
8.45 0 0
8.5 0 0
8.55 0 0
8.6 0 0
8.65 0 0
8.7 0 0
8.75 0 0
8.8 0 0
8.85 0 0
8.9 0 0
8.95 0 0
9 0 0
9.05 0 0
9.1 0 0
9.15 0 0
9.2 0 0
9.25 0 0
9.3 0 0
9.35 0 0
9.4 0 0
9.45 0 0
9.5 0 0
9.55 0 0
9.6 0 0
9.65 0 0
9.7 0 0
9.75 0 0
9.8 0 0
9.85 0 0
9.9 0 0
9.95 0 0
10 0.05 0
10 0.1 0
10 0.15 0
10 0.2 0
10 0.25 0
10 0.3 0
10 0.35 0
10 0.4 0
10 0.45 0
10 0.5 0
10 0.55 0
10 0.6 0
10 0.65 0
10 0.7 0
10 0.75 0
10 0.8 0
10 0.85 0
10 0.9 0
10 0.95 0
9.95 1 0
9.9 1 0
9.85 1 0
9.8 1 0
9.75 1 0
9.7 1 0
9.65 1 0
9.6 1 0
9.55 1 0
9.5 1 0
9.45 1 0
9.4 1 0
9.35 1 0
9.3 1 0
9.25 1 0
9.2 1 0
9.15 1 0
9.1 1 0
9.05 1 0
9 1 0
8.95 1 0
8.9 1 0
8.85 1 0
8.8 1 0
8.75 1 0
8.7 1 0
8.65 1 0
8.6 1 0
8.55 1 0
8.5 1 0
8.45 1 0
8.4 1 0
8.35 1 0
8.3 1 0
8.25 1 0
8.2 1 0
8.15 1 0
8.1 1 0
8.05 1 0
8 1 0
7.95 1 0
7.9 1 0
7.85 1 0
7.8 1 0
7.75 1 0
7.7 1 0
7.65 1 0
7.6 1 0
7.55 1 0
7.5 1 0
7.45 1 0
7.4 1 0
7.35 1 0
7.3 1 0
7.25 1 0
7.2 1 0
7.15 1 0
7.1 1 0
7.05 1 0
7 1 0
6.95 1 0
6.9 1 0
6.85 1 0
6.8 1 0
6.75 1 0
6.7 1 0
6.65 1 0
6.6 1 0
6.55 1 0
6.5 1 0
6.45 1 0
6.4 1 0
6.35 1 0
6.3 1 0
6.25 1 0
6.2 1 0
6.15 1 0
6.1 1 0
6.05 1 0
6 1 0
5.95 1 0
5.9 1 0
5.85 1 0
5.8 1 0
5.75 1 0
5.7 1 0
5.65 1 0
5.6 1 0
5.55 1 0
5.5 1 0
5.45 1 0
5.4 1 0
5.35 1 0
5.3 1 0
5.25 1 0
5.2 1 0
5.15 1 0
5.1 1 0
5.05 1 0
5 1 0
4.95 1 0
4.9 1 0
4.85 1 0
4.8 1 0
4.75 1 0
4.7 1 0
4.65 1 0
4.6 1 0
4.55 1 0
4.5 1 0
4.45 1 0
4.4 1 0
4.35 1 0
4.3 1 0
4.25 1 0
4.2 1 0
4.15 1 0
4.1 1 0
4.05 1 0
4 1 0
3.95 1 0
3.9 1 0
3.85 1 0
3.8 1 0
3.75 1 0
3.7 1 0
3.65 1 0
3.6 1 0
3.55 1 0
3.5 1 0
3.45 1 0
3.4 1 0
3.35 1 0
3.3 1 0
3.25 1 0
3.2 1 0
3.15 1 0
3.1 1 0
3.05 1 0
3 1 0
2.95 1 0
2.9 1 0
2.85 1 0
2.8 1 0
2.75 1 0
2.7 1 0
2.65 1 0
2.6 1 0
2.55 1 0
2.5 1 0
2.45 1 0
2.4 1 0
2.35 1 0
2.3 1 0
2.25 1 0
2.2 1 0
2.15 1 0
2.1 1 0
2.05 1 0
2 1 0
1.95 1 0
1.9 1 0
1.85 1 0
1.8 1 0
1.75 1 0
1.7 1 0
1.65 1 0
1.6 1 0
1.55 1 0
1.5 1 0
1.45 1 0
1.4 1 0
1.35 1 0
1.3 1 0
1.25 1 0
1.2 1 0
1.15 1 0
1.1 1 0
1.05 1 0
1 1 0
0.95 1 0
0.9 1 0
0.85 1 0
0.8 1 0
0.75 1 0
0.7 1 0
0.65 1 0
0.6 1 0
0.55 1 0
0.5 1 0
0.45 1 0
0.4 1 0
0.35 1 0
0.3 1 0
0.25 1 0
0.2 1 0
0.15 1 0
0.1 1 0
0.05 1 0
0 0.95 0
0 0.9 0
0 0.85 0
0 0.8 0
0 0.75 0
0 0.7 0
0 0.65 0
0 0.6 0
0 0.55 0
0.05 0.5 0
0.1 0.5 0
0.15 0.5 0
0.2 0.5 0
0.25 0.5 0
0.3 0.5 0
0.35 0.5 0
0.4 0.5 0
0.45 0.5 0
0.5 0.5 0
0.55 0.5 0
0.6 0.5 0
0.65 0.5 0
0.7 0.5 0
0.75 0.5 0
0.8 0.5 0
0.85 0.5 0
0.9 0.5 0
0.95 0.5 0
1 0.5 0
1.05 0.5 0
1.1 0.5 0
1.15 0.5 0
1.2 0.5 0
1.25 0.5 0
1.3 0.5 0
1.35 0.5 0
1.4 0.5 0
1.45 0.5 0
1.5 0.5 0
1.55 0.5 0
1.6 0.5 0
1.65 0.5 0
1.7 0.5 0
1.75 0.5 0
1.8 0.5 0
1.85 0.5 0
1.9 0.5 0
1.95 0.5 0
2 0.45 0
2 0.4 0
2 0.35 0
2 0.3 0
2 0.25 0
2 0.2 0
2 0.15 0
2 0.1 0
2 0.05 0
8.06901 0.0475538 0
8.325 0.0433013 0
8.5778 0.0458014 0
8.82429 0.0439083 0
9.07419 0.0439501 0
9.32668 0.0423312 0
2.52305 0.0454918 0
2.77689 0.0448719 0
3.03156 0.0475213 0
3.275 0.0433013 0
3.52783 0.046061 0
3.77734 0.0419476 0
4.02193 0.0449251 0
4.27574 0.0411379 0
4.51872 0.0475373 0
4.77366 0.0452037 0
5.02823 0.0477302 0
5.28216 0.0475085 0
5.52561 0.042443 0
5.77807 0.0457743 0
6.02204 0.0398462 0
6.275 0.0433013 0
6.52722 0.0433483 0
6.7694 0.0475769 0
7.02447 0.0444581 0
7.27783 0.0459092 0
7.525 0.0422557 0
7.77439 0.0449567 0
9.47482 0.955851 0
7.92156 0.955313 0
8.92621 0.955339 0
8.6726 0.954294 0
8.4177 0.952733 0
8.17636 0.955341 0
9.18107 0.952451 0
7.62679 0.954643 0
7.37196 0.952257 0
7.12614 0.955845 0
3.87534 0.956427 0
3.62815 0.964359 0
3.3803 0.953593 0
3.1253 0.955556 0
2.87002 0.954607 0
2.62024 0.955051 0
6.875 0.956699 0
6.62158 0.953907 0
6.37338 0.966022 0
6.12637 0.95588 0
5.87571 0.962803 0
5.63078 0.952434 0
5.37535 0.952003 0
5.12127 0.952304 0
4.86862 0.952521 0
4.62578 0.955705 0
4.37079 0.954984 0
4.12695 0.957826 0
9.9567 0.475 0
2.0433 0.475 0
9.5296 0.0476387 0
2.42792 0.954045 0
9.6779 0.95509 0
2.325 0.0433013 0
2.2283 0.953914 0
9.9567 0.675 0
9.9567 0.275 0
9.32845 0.954186 0
9.67655 0.0441506 0
7.92165 0.0458031 0
7.77434 0.95569 0
2.0433 0.325 0
2.04553 0.525 0
2.08697 0.5 0
1.87257 0.958837 0
1.625 0.956699 0
1.375 0.956699 0
1.12941 0.952349 0
0.87452 0.955201 0
0.619903 0.952393 0
0.37732 0.956691 0
2.08704 0.55 0
2.12994 0.525 0
0.775 0.542289 0
0.272435 0.545784 0
1.77201 0.544618 0
0.526526 0.544252 0
1.225 0.543301 0
1.47794 0.547751 0
1.025 0.543301 0
2.04598 0.575 0
1.62477 0.54405 0
0.227667 0.957986 0
2.12998 0.575 0
2.17322 0.55 0
2.17321 0.5 0
2.21651 0.525 0
2.21651 0.475 0
2.25981 0.5 0
2.25981 0.55 0
2.30311 0.525 0
2.30311 0.475 0
2.34641 0.5 0
2.34641 0.45 0
2.38971 0.475 0
2.38971 0.525 0
2.43301 0.5 0
2.43301 0.55 0
2.47631 0.525 0
2.47631 0.475 0
2.51962 0.5 0
2.51962 0.45 0
2.56292 0.475 0
2.56292 0.525 0
2.60622 0.5 0
2.60622 0.55 0
2.64952 0.525 0
2.64952 0.475 0
2.69282 0.5 0
2.69282 0.55 0
2.73612 0.525 0
2.73612 0.475 0
2.77942 0.5 0
2.77942 0.45 0
2.82272 0.475 0
2.82272 0.525 0
2.86603 0.5 0
2.86603 0.55 0
2.90933 0.525 0
2.90933 0.475 0
2.95263 0.5 0
2.95263 0.55 0
2.99593 0.525 0
2.99593 0.475 0
3.03923 0.5 0
3.03923 0.45 0
3.08253 0.475 0
3.08253 0.525 0
3.12583 0.5 0
3.12583 0.55 0
3.16913 0.525 0
3.16913 0.475 0
3.21244 0.5 0
3.21244 0.55 0
3.25574 0.525 0
3.25574 0.475 0
3.29904 0.5 0
3.29904 0.45 0
3.34234 0.475 0
3.34234 0.525 0
3.38564 0.5 0
3.38564 0.55 0
3.42894 0.525 0
3.42894 0.475 0
3.47224 0.5 0
3.47224 0.55 0
3.51554 0.525 0
3.51554 0.475 0
3.55885 0.5 0
3.55885 0.45 0
3.60215 0.475 0
3.60215 0.525 0
3.64545 0.5 0
3.64545 0.55 0
3.68875 0.525 0
3.68875 0.475 0
3.73205 0.5 0
3.73205 0.45 0
3.77535 0.475 0
3.77535 0.525 0
3.81865 0.5 0
3.81865 0.45 0
3.86195 0.475 0
3.86195 0.525 0
3.90526 0.5 0
3.90526 0.55 0
3.94856 0.525 0
3.94856 0.475 0
3.99186 0.5 0
3.99186 0.45 0
4.03516 0.475 0
4.03516 0.525 0
4.07846 0.5 0
4.07846 0.45 0
4.12176 0.475 0
4.12176 0.525 0
4.16506 0.5 0
4.16506 0.55 0
4.20836 0.525 0
4.20836 0.475 0
4.25167 0.5 0
4.25167 0.45 0
4.29497 0.475 0
4.29497 0.525 0
4.33827 0.5 0
4.33827 0.45 0
4.38157 0.475 0
4.38157 0.525 0
4.42487 0.5 0
4.42487 0.55 0
4.46817 0.525 0
4.46817 0.475 0
4.51147 0.5 0
4.51147 0.45 0
4.55477 0.475 0
4.55477 0.525 0
4.59808 0.5 0
4.59808 0.45 0
4.64138 0.475 0
4.64138 0.525 0
4.68468 0.5 0
4.68468 0.55 0
4.72798 0.525 0
4.72798 0.475 0
4.77128 0.5 0
4.77128 0.45 0
4.81458 0.475 0
4.81458 0.525 0
4.85788 0.5 0
4.85788 0.55 0
4.90119 0.525 0
4.90119 0.475 0
4.94449 0.5 0
4.94449 0.55 0
4.98779 0.525 0
4.98779 0.475 0
5.03109 0.5 0
5.03109 0.45 0
5.07439 0.475 0
5.07439 0.525 0
5.11769 0.5 0
5.11769 0.55 0
5.16099 0.525 0
5.16099 0.475 0
5.20429 0.5 0
5.20429 0.55 0
5.2476 0.525 0
5.2476 0.475 0
5.2909 0.5 0
5.2909 0.45 0
5.3342 0.475 0
5.3342 0.525 0
5.3775 0.5 0
5.3775 0.55 0
5.4208 0.525 0
5.4208 0.475 0
5.4641 0.5 0
5.4641 0.55 0
5.5074 0.525 0
5.5074 0.475 0
5.5507 0.5 0
5.5507 0.45 0
5.59401 0.475 0
5.59401 0.525 0
5.63731 0.5 0
5.63731 0.55 0
5.68061 0.525 0
5.68061 0.475 0
5.72391 0.5 0
5.72391 0.55 0
5.76721 0.525 0
5.76721 0.475 0
5.81051 0.5 0
5.81051 0.45 0
5.85381 0.475 0
5.85381 0.525 0
5.89711 0.5 0
5.89711 0.55 0
5.94042 0.525 0
5.94042 0.475 0
5.98372 0.5 0
5.98372 0.45 0
6.02702 0.475 0
6.02702 0.525 0
6.07032 0.5 0
6.07032 0.45 0
6.11362 0.475 0
6.11362 0.525 0
6.15692 0.5 0
6.15692 0.55 0
6.20022 0.525 0
6.20022 0.475 0
6.24352 0.5 0
6.24352 0.45 0
6.28683 0.475 0
6.28683 0.525 0
6.33013 0.5 0
6.33013 0.45 0
6.37343 0.475 0
6.37343 0.525 0
6.41673 0.5 0
6.41673 0.55 0
6.46003 0.525 0
6.46003 0.475 0
6.50333 0.5 0
6.50333 0.45 0
6.54663 0.475 0
6.54663 0.525 0
6.58993 0.5 0
6.58993 0.45 0
6.63324 0.475 0
6.63324 0.525 0
6.67654 0.5 0
6.67654 0.55 0
6.71984 0.525 0
6.71984 0.475 0
6.76314 0.5 0
6.76314 0.45 0
6.80644 0.475 0
6.80644 0.525 0
6.84974 0.5 0
6.84974 0.45 0
6.89304 0.475 0
6.89304 0.525 0
6.93634 0.5 0
6.93634 0.55 0
6.97965 0.525 0
6.97965 0.475 0
7.02295 0.5 0
7.02295 0.45 0
7.06625 0.475 0
7.06625 0.525 0
7.10955 0.5 0
7.10955 0.55 0
7.15285 0.525 0
7.15285 0.475 0
7.19615 0.5 0
7.19615 0.55 0
7.23945 0.525 0
7.23945 0.475 0
7.28275 0.5 0
7.28275 0.45 0
7.32606 0.475 0
7.32606 0.525 0
7.36936 0.5 0
7.36936 0.55 0
7.41266 0.525 0
7.41266 0.475 0
7.45596 0.5 0
7.45596 0.55 0
7.49926 0.525 0
7.49926 0.475 0
7.54256 0.5 0
7.54256 0.45 0
7.58586 0.475 0
7.58586 0.525 0
7.62917 0.5 0
7.62917 0.55 0
7.67247 0.525 0
7.67247 0.475 0
7.71577 0.5 0
7.71577 0.55 0
7.75907 0.525 0
7.75907 0.475 0
7.80237 0.5 0
7.80237 0.55 0
7.84567 0.525 0
7.84567 0.475 0
7.88897 0.5 0
7.88897 0.55 0
7.93227 0.525 0
7.93227 0.475 0
7.97558 0.5 0
7.97558 0.55 0
8.01888 0.525 0
8.01888 0.475 0
8.06218 0.5 0
8.06218 0.45 0
8.10548 0.475 0
8.10548 0.525 0
8.14878 0.5 0
8.14878 0.45 0
8.19208 0.475 0
8.19208 0.525 0
8.23538 0.5 0
8.23538 0.55 0
8.27868 0.525 0
8.27868 0.475 0
8.32199 0.5 0
8.32199 0.45 0
8.36529 0.475 0
[...]
CELL_DATA 8450
VECTORS velocity double
0.116355 -0.00177126 0
0.26251 0.000448076 0
0.137004 -0.000844429 0
0.188699 0.000781535 0
0.054839 -0.000866038 0
0.0940794 -0.00249872 0
0.302129 0.00250484 0
0.136657 -0.000337516 0
0.138665 0.00141855 0
-0.0217134 0.000912133 0
0.0966004 0.00197269 0
0.113348 -0.000878802 0
0.0968035 -0.00185957 0
0.30074 -0.0110466 0
-0.0814667 0.00445968 0
0.0980158 0.0013671 0
0.48013 -0.0139987 0
0.193132 -0.000669087 0
-0.0131588 0.00441461 0
0.232086 -0.00517024 0
-0.0705159 -0.00271498 0
0.230343 0.00653686 0
0.137239 -0.000664511 0
0.0665104 -0.000508725 0
0.0612648 0.00044357 0
0.109446 0.00079211 0
0.135639 -0.000105002 0
0.214748 -0.0016886 0
0.11254 0.000282269 0
0.113106 0.000256937 0
0.13642 0.00172819 0
0.116116 0.00137086 0
0.133047 -0.0014912 0
0.0581855 -0.00118316 0
0.0686373 0.00109939 0
0.111387 0.000376238 0
0.114099 0.000107571 0
0.0410034 0.000162079 0
0.336843 -0.0104308 0
0.112542 -0.00124723 0
0.116787 0.00122859 0
0.140669 -0.00107806 0
0.0935262 0.00237852 0
0.111363 0.000570509 0
0.142688 0.0017427 0
0.551346 -0.012147 0
-0.0190916 0.00720663 0
0.209243 0.00087841 0
0.116176 -0.000156856 0
-0.0217193 -0.00612221 0
0.119666 0.000706087 0
0.0507741 -0.00472419 0
0.454218 0.00167238 0
0.116577 0.000719206 0
0.179468 -0.00835461 0
-0.0879722 -0.000886431 0
0.438105 -0.00136548 0
0.424459 -0.00306395 0
0.1129 -0.00115502 0
0.741982 -0.00164585 0
0.118402 -0.00119747 0
0.211771 0.000469094 0
-0.0791384 -0.00236529 0
0.110975 -0.000476169 0
0.0651925 -0.00106887 0
0.430155 0.00308663 0
0.0632697 -0.00130707 0
0.116636 -9.43356e-05 0
0.112889 -0.000440589 0
0.086806 7.3452e-05 0
0.201557 -0.00783803 0
-0.0593845 0.000928294 0
0.135451 -0.00169977 0
0.111737 0.000649976 0
0.112731 -0.00049737 0
0.119133 -0.00238967 0
-0.0461817 0.00390049 0
0.141511 -0.00177066 0
-0.0818949 -0.00036915 0
0.213718 0.00233561 0
0.116213 0.000442885 0
0.102146 -0.000887156 0
0.102905 -0.000303064 0
0.42203 0.00587088 0
0.108789 -0.00436652 0
-0.0596377 -0.00464657 0
0.432475 -0.00484936 0
0.0978004 -0.000808659 0
0.109884 -0.00048382 0
0.11237 0.000919923 0
0.379718 -0.00849724 0
0.425972 -0.0030257 0
0.0824502 0.00208755 0
0.104046 -0.000105321 0
0.134077 0.00162854 0
0.730007 -0.0012098 0
0.056768 -0.000728136 0
0.111914 0.000599031 0
0.139985 0.000622289 0
0.084845 -0.000348605 0
0.133381 0.000453098 0
0.0662194 -0.00085309 0
0.504342 -0.00608522 0
0.135115 -0.0023196 0
0.34447 -0.02603 0
0.249488 -0.00177083 0
0.135241 0.00165418 0
0.138475 -0.00199939 0
0.119344 6.26444e-05 0
0.137588 0.000300521 0
0.0741393 0.00226438 0
0.0922104 -0.00212718 0
0.212256 0.000358542 0
0.0935291 -0.00248263 0
0.439257 0.00122243 0
0.114669 0.00119521 0
0.212254 0.000258866 0
0.491955 -0.00485011 0
0.111193 -3.61691e-05 0
0.115063 7.76257e-05 0
0.133568 -0.000220415 0
0.135553 0.000158514 0
0.111061 0.000800227 0
0.0698163 0.000149449 0
0.136946 0.00252066 0
0.116903 -0.000666691 0
0.0604672 -0.000104828 0
0.11898 -0.0064669 0
0.11226 -0.00139179 0
0.433136 -0.0132244 0
0.137049 0.000280066 0
0.0508235 -0.00135738 0
0.164844 -0.00649921 0
0.130919 0.00391445 0
0.21364 -0.00197773 0
0.272387 0.00107679 0
0.936369 -0.00660733 0
0.399005 -0.0188372 0
0.532489 -0.00878273 0
0.211824 -0.000268373 0
0.0925983 0.00134624 0
0.0363269 0.000192939 0
-0.0483264 -0.00660219 0
0.508899 -0.00142964 0
0.320091 -0.00161626 0
0.727198 -0.00552177 0
0.864401 -0.00293541 0
0.156563 0.00183812 0
0.0595475 0.000495782 0
0.132127 1.77474e-05 0
-0.0241279 -0.00720347 0
0.0863644 -0.00505892 0
0.211131 -0.000484534 0
0.110868 0.000551197 0
0.125247 -0.000700709 0
0.209018 -0.000360488 0
0.136588 0.001274 0
0.115721 0.000703057 0
-0.0698404 0.0012075 0
0.207036 -0.000674229 0
0.0811986 0.00125246 0
0.0679121 -0.00864082 0
-0.0385809 0.00394312 0
-0.0920352 0.00162235 0
0.497732 -0.00572815 0
0.0329883 0.00141765 0
0.138873 -0.00155675 0
0.135602 0.00265093 0
0.142912 0.000957031 0
-0.0116513 0.00053728 0
0.187415 0.00204817 0
0.748534 0.00244944 0
0.24593 -0.00313755 0
0.95806 -0.00746008 0
0.124763 -0.00177515 0
0.0822534 0.000905269 0
0.0921986 0.00322747 0
0.335534 -0.0138281 0
-0.0651264 0.00477016 0
0.412951 -0.00131694 0
0.13672 -0.00475891 0
0.324239 9.29728e-05 0
0.134358 -0.0010656 0
0.131532 -0.000167779 0
0.126731 0.00224109 0
0.0568819 -0.000314983 0
0.515175 -0.00609888 0
0.410139 0.00370115 0
0.9278 -0.010829 0
0.101468 0.00171748 0
0.133718 -0.00241567 0
0.0254577 -0.00144816 0
0.0957877 0.00343046 0
0.135073 -0.00225566 0
0.505124 0.000406298 0
0.215014 0.00301692 0
0.0546584 -0.000246663 0
0.0340919 -0.000544797 0
0.136384 0.00338032 0
0.100291 0.00227278 0
0.482951 0.0063926 0
0.132195 -0.00281107 0
0.132999 -0.00141454 0
0.137579 0.000790478 0
0.292222 -0.00426552 0
0.132214 -2.3287e-05 0
0.139158 -0.000708787 0
0.501562 -0.00363732 0
0.0846643 -0.00324332 0
0.503432 0.00424607 0
0.374172 0.0104654 0
0.486083 -0.00565913 0
0.138139 0.00182985 0
0.503718 0.00669453 0
0.139075 -0.000979795 0
0.200732 -0.00106008 0
0.133422 0.00172372 0
0.0977716 0.000746704 0
0.133536 0.00112579 0
0.213436 -0.00234926 0
0.139857 0.00355003 0
0.0853422 0.0026521 0
0.0986604 -0.00267291 0
0.108066 0.000882295 0
0.033782 -0.00056399 0
0.102688 -0.000861002 0
0.177654 0.00208813 0
0.135097 9.85664e-05 0
0.382562 -0.0229239 0
0.0846022 -0.00327795 0
0.516921 0.00458133 0
0.322124 -0.0111185 0
-0.0719386 0.00472008 0
0.935736 -0.00318175 0
0.133651 0.00230375 0
0.735054 0.0049664 0
0.229193 -0.0172102 0
0.0340383 -0.00108532 0
0.131516 -0.00532772 0
0.0960307 -0.00221968 0
0.0958893 0.00259871 0
0.0570198 -0.000344578 0
0.517018 0.00221254 0
-0.0560077 0.00609031 0
0.214199 0.00313411 0
0.823788 -0.00246884 0
0.020492 -0.000381406 0
0.130347 0.000212189 0
0.750607 0.000783303 0
0.988904 0.000220187 0
0.738369 -0.00457619 0
0.31462 0.00469166 0
0.0966422 0.000720073 0
0.138943 -0.00135876 0
0.033578 0.000901256 0
0.13324 -0.000501044 0
0.102294 -4.85135e-06 0
-0.0901321 0.00150098 0
0.497624 0.000635375 0
-0.0919335 0.000196133 0
0.0300099 -0.00134662 0
0.133375 -0.000138737 0
0.910103 0.000803726 0
0.134974 -0.00207234 0
0.136069 -0.000258362 0
0.142594 -0.00350451 0
0.137874 0.00509042 0
0.136948 -0.00122145 0
0.928074 -0.00169611 0
0.0919446 0.00202741 0
0.127655 -0.00167678 0
0.132819 -0.0034986 0
0.087475 0.00313113 0
0.122141 -0.00386058 0
0.501808 -0.0374162 0
0.137651 -0.00228662 0
0.0333752 -0.000922347 0
0.0759887 -0.00402855 0
0.994108 0.000303919 0
0.91323 -7.4714e-05 0
0.174613 -0.0020758 0
0.128989 -0.000691091 0
0.193309 -0.00863498 0
0.0843525 -0.00119506 0
0.495521 0.00262808 0
0.634141 0.00165151 0
0.259808 0.000532396 0
0.135535 0.00185247 0
0.135388 0.000216713 0
0.131606 -0.00154927 0
0.132964 0.00338097 0
0.136863 -0.00277092 0
0.130076 -0.00217455 0
-0.0609834 -0.00791027 0
0.501036 -0.005519 0
0.0335102 -0.000916554 0
-0.0422776 -0.00216207 0
0.379626 -0.00833691 0
0.497118 -0.00226995 0
0.629294 -0.00418717 0
0.193381 -0.00511736 0
0.115854 -0.00202858 0
0.0958805 0.000565842 0
0.132139 0.00290567 0
0.472043 0.00371403 0
0.297467 0.00134533 0
0.13287 -0.00173771 0
0.854061 -0.00169401 0
0.509932 -0.00697884 0
0.133106 -0.000322775 0
0.56669 -0.0194717 0
0.445279 -0.011664 0
0.443143 -0.00444428 0
-0.0173213 -0.000801477 0
0.140631 -0.00179177 0
0.0946006 -0.00226789 0
0.491445 0.00928074 0
0.129462 -0.00224969 0
0.132492 0.00233671 0
0.102327 0.00248467 0
0.0341264 -0.00151356 0
0.0301388 0.00114387 0
0.034847 -0.00172589 0
0.383697 -0.0225281 0
0.0360449 0.00221331 0
0.0342448 0.00189385 0
0.132096 -0.000186372 0
0.131144 0.00120665 0
0.0889473 -0.00490388 0
0.114777 0.00205103 0
0.285256 0.00150906 0
0.106491 0.000647906 0
0.138409 0.000237852 0
0.30696 0.000844784 0
0.0569249 -0.00137769 0
0.135921 -0.010044 0
-0.0675984 -0.00526507 0
0.503425 0.00176671 0
0.0823541 0.00213781 0
0.137552 -0.00383902 0
0.047396 0.000390285 0
0.050809 -0.000121669 0
0.0261275 8.89083e-05 0
0.219573 -0.00230159 0
0.0531947 -0.000364951 0
0.0543013 2.43302e-05 0
0.0518221 -3.58961e-05 0
0.0523626 0.000111902 0
0.0297444 0.000515322 0
0.0549649 0.000624697 0
0.0520301 0.000566943 0
0.348521 -0.0128928 0
0.503076 0.00210798 0
0.0909196 -0.0032667 0
0.513493 -0.0370687 0
0.104981 8.98224e-05 0
0.135491 -0.000896331 0
0.132377 0.002523 0
0.827138 -0.00469213 0
0.647174 0.0104536 0
0.502338 0.00242508 0
0.837284 0.00199328 0
0.174184 -0.00277664 0
0.138957 -3.60743e-05 0
0.119341 3.87368e-05 0
0.132017 -0.000305758 0
0.132907 0.00171335 0
0.147889 -0.000648581 0
0.099198 0.00126114 0
0.122983 -0.00184657 0
0.950041 -0.0107239 0
0.0980751 -0.00226618 0
0.3021 -0.0130543 0
-0.0736341 0.00371757 0
-0.0252902 -0.00211004 0
0.110592 -0.0035675 0
0.122371 0.00259041 0
0.196226 -0.00109922 0
0.224251 -0.0107729 0
-0.090488 -0.00101965 0
0.124647 -0.000971118 0
0.110507 -0.00220722 0
0.239909 -0.00126437 0
0.276921 -0.0128342 0
-0.0816443 0.00301023 0
0.479253 0.00226572 0
0.11239 -0.00325252 0
0.503881 0.00189175 0
0.135667 0.000726104 0
0.128453 0.00127271 0
0.132387 -0.00249291 0
0.1578 -0.00662985 0
0.146611 -0.00112086 0
0.0805133 -0.00380344 0
0.170852 0.00370238 0
0.72978 -0.000216159 0
-0.0501455 0.00548192 0
-0.0735527 -0.00101504 0
0.377733 0.0104586 0
0.165024 -0.00467619 0
-0.0841183 -0.00123593 0
0.496388 -0.00236833 0
0.107881 -0.000591979 0
0.289581 0.000371214 0
0.35187 0.00904147 0
0.0765836 0.00030208 0
0.133428 -0.0014755 0
0.172929 -0.00867795 0
0.516186 0.00169086 0
0.180195 -0.00224315 0
0.107683 -0.00146617 0
0.189813 -0.00204506 0
0.818594 -0.00758681 0
0.11455 -0.0244423 0
0.133925 -0.00296028 0
0.18501 0.00320653 0
-0.0301583 0.00579185 0
0.132491 2.24124e-05 0
0.102103 0.00242764 0
0.134158 -0.00287371 0
0.136534 0.00266182 0
0.13226 0.00327099 0
0.129595 0.00070507 0
0.0845137 0.00370092 0
0.83809 0.00169728 0
0.0621577 -0.000723759 0
1.00296 0.000520925 0
0.84336 -0.0018521 0
0.962542 -1.60752e-05 0
0.139264 0.00339938 0
0.11598 0.00319784 0
0.141413 -0.00294937 0
0.486722 -0.000712605 0
0.134971 0.00298868 0
0.108234 0.00232092 0
0.132151 -0.00146897 0
0.497108 0.00199891 0
0.107042 -0.00362274 0
0.132198 -0.0019515 0
0.068246 0.000253469 0
-0.011237 0.00702968 0
0.84171 0.00239324 0
0.840788 0.000980138 0
0.642162 0.00316031 0
0.631527 -0.00152297 0
0.236906 -0.000618639 0
-0.0515128 0.00387903 0
0.137861 -0.00299242 0
0.130813 -0.00125279 0
0.0523397 0.000534796 0
0.0645947 -0.00119759 0
0.567314 -0.00827999 0
-0.0279625 0.00687787 0
0.634681 -0.00965547 0
0.0984561 0.00265978 0
0.0953193 -0.00362425 0
0.0899706 0.000980872 0
0.471033 -0.037134 0
0.202276 -0.00889076 0
0.124514 -0.000350572 0
0.62817 0.00651334 0
0.128891 0.000449161 0
0.105418 -1.54896e-05 0
0.131738 0.00120194 0
0.0661892 -0.00239146 0
0.106419 0.00196868 0
0.0892359 -0.0015601 0
0.0114415 -0.00779637 0
0.962712 0.000827576 0
0.999495 0.000209557 0
0.958872 0.000533102 0
0.95987 -0.000173182 0
0.840765 -0.000660212 0
0.24085 -0.0100364 0
-0.088718 0.00236028 0
0.486382 -0.00280971 0
0.405912 -0.0261623 0
0.136676 -0.00286721 0
0.226532 0.000855341 0
0.0660312 0.00105154 0
-0.0841775 -0.00245171 0
0.453466 -0.00046484 0
0.462089 0.000723148 0
0.240026 0.000252587 0
0.264963 0.00441168 0
0.391322 -0.00111345 0
0.461224 0.00193003 0
0.450677 -2.99981e-05 0
0.498935 0.000959309 0
0.495476 0.00021347 0
0.365855 -0.000201936 0
0.3839 0.00289648 0
0.500733 0.000876214 0
0.311182 0.00497331 0
0.332358 0.00155833 0
0.416081 0.00371355 0
0.429172 0.00169287 0
0.486627 0.00163882 0
0.479659 0.00265247 0
0.477873 0.00191978 0
0.359409 -0.00144243 0
0.131783 0.000962108 0
0.0719989 -0.0012405 0
0.245709 -0.000772264 0
0.16953 -0.00821772 0
0.143076 -0.0115296 0
0.497093 -0.0420616 0
0.143602 0.00067685 0
0.0635128 0.001241 0
0.182544 0.0025571 0
0.515535 -0.00488074 0
0.145413 0.00327925 0
0.835642 -0.00174917 0
0.690862 -0.00216365 0
0.103876 -0.00345446 0
0.375143 0.00630068 0
0.833002 0.00347573 0
0.0888166 -7.04412e-05 0
0.8596 -0.00292109 0
0.450454 -0.0338073 0
0.0887909 0.00229744 0
0.09774 0.00246344 0
0.0999421 -0.00220269 0
0.131017 -0.00265923 0
0.321146 -0.00103321 0
0.920967 -0.00283492 0
0.906214 0.00134208 0
0.143686 -0.00105961 0
0.262144 -0.00433251 0
0.0952125 -0.00201566 0
0.101986 0.00262275 0
0.218659 -0.0113 0
0.130922 -0.000442776 0
0.110256 0.00345641 0
0.152651 -0.00478787 0
0.140383 0.00327151 0
0.604481 -0.00776996 0
0.104858 0.00178245 0
0.100702 0.00205901 0
0.272168 -0.00196428 0
0.385212 -0.00963502 0
0.133824 -0.00172741 0
0.249474 0.00195436 0
0.743558 0.00135947 0
0.347352 0.000136976 0
0.402635 0.000407845 0
0.502015 0.000728447 0
0.13811 0.00288404 0
0.483049 0.000844551 0
0.255236 -0.00574275 0
0.420603 -0.00996801 0
0.562827 -0.00382411 0
0.229405 -0.0126283 0
0.0703443 0.00233848 0
0.0979063 -0.00277149 0
0.0923242 0.000740327 0
0.0996059 -0.000521153 0
0.0566377 7.6108e-05 0
0.100341 -0.00136699 0
0.111824 0.00185059 0
0.398914 -0.00336689 0
0.100829 -0.00117171 0
0.102509 -1.18564e-05 0
0.0997248 0.00033406 0
0.099726 0.00119826 0
0.0606803 0.00120443 0
0.104194 0.000560994 0
0.100418 0.000807252 0
0.292466 0.000159422 0
0.178979 0.00356574 0
0.132971 0.00094725 0
0.0608986 -0.00837933 0
0.32028 0.000819218 0
0.0987594 -0.00256993 0
0.139315 0.00217814 0
0.17867 -0.000920509 0
0.13426 0.00147852 0
0.0851006 -0.00239868 0
0.0777005 -0.00464236 0
0.489466 0.00126056 0
0.122576 -0.0251202 0
0.398011 -0.0116709 0
0.228797 -0.00891409 0
-0.0537737 0.00138501 0
0.956208 -0.00386294 0
0.170859 0.00205653 0
0.112751 -0.00206097 0
-0.016341 -0.00978787 0
0.144858 0.00124664 0
0.141456 -0.00186942 0
0.10436 -0.00153043 0
0.177638 -0.00316314 0
0.178786 -0.00206529 0
0.105587 -0.000227111 0
0.133525 0.00168612 0
0.129043 0.00295184 0
0.386138 -0.0278642 0
0.132601 -0.00187253 0
0.532093 0.00312202 0
0.138372 0.00313873 0
0.138987 0.00147786 0
0.496308 0.000743572 0
0.142968 0.00108213 0
0.375079 -0.0132328 0
0.137747 0.00156365 0
0.124817 0.00119932 0
0.520585 0.00568879 0
0.090813 0.00123645 0
0.522933 -0.00626568 0
0.827091 -0.00087229 0
0.142922 -0.00190541 0
0.86192 -0.00372578 0
0.138378 -0.00172211 0
0.153991 -0.00497993 0
-0.0894709 -0.000854215 0
0.519612 -0.00182289 0
-0.0720405 0.00228091 0
0.369367 -0.00368925 0
0.105182 0.0029451 0
0.138074 -0.00143398 0
0.252901 0.000683686 0
0.119188 -0.00371803 0
-0.0639409 0.00515597 0
0.0806644 -0.00134918 0
0.665027 -0.00451468 0
0.132504 0.00203789 0
0.281591 -0.0156446 0
0.137972 -0.000900412 0
0.178504 0.000648955 0
0.179331 0.00109637 0
-0.0746567 -0.00602642 0
0.513101 -0.00665364 0
0.95532 -0.00307089 0
-0.0936465 0.00105456 0
0.512898 -0.00545978 0
0.118763 -0.00085504 0
0.137319 0.00177268 0
0.0980209 0.00226827 0
0.139417 -0.0022873 0
0.140391 0.00241255 0
0.132582 0.0015087 0
0.135844 -0.00142859 0
0.128063 0.000415304 0
0.562144 -0.024701 0
0.444135 -0.014179 0
0.467951 -0.00923386 0
0.11573 0.00461409 0
0.136806 -0.00352325 0
0.126811 -0.00867282 0
-0.0530381 -0.00635582 0
0.513476 0.00231901 0
0.250677 -0.000811129 0
0.324386 0.00197575 0
0.250959 0.00100913 0
0.143436 -0.00169884 0
0.101159 0.00275566 0
0.0873953 0.00218236 0
0.105715 -0.00190447 0
0.185326 -0.00016566 0
0.472571 -0.01594 0
0.907402 0.000755354 0
0.309237 -0.0181263 0
0.0167286 -0.00905254 0
0.0643944 -0.000140517 0
0.0916953 0.000473486 0
0.173276 -0.00162419 0
0.622137 0.0028732 0
0.643237 -0.00128689 0
0.186026 0.0010147 0
0.175362 0.000698762 0
0.909066 -0.000722271 0
0.05521 -0.00115718 0
0.256043 0.000568717 0
0.287224 0.00081045 0
0.434327 -0.0325782 0
0.0569301 -0.00394621 0
0.961872 -0.000107371 0
0.0573496 -0.000702898 0
0.141937 0.000524496 0
0.91078 -0.000856556 0
0.457596 -0.0162162 0
-0.0195406 0.00369193 0
0.09458 0.0015897 0
0.848463 -0.00359158 0
0.0820517 0.000271367 0
0.291913 0.000381626 0
0.174154 -0.000187935 0
0.180104 0.00114215 0
0.098411 -0.00167677 0
0.216255 0.000410272 0
0.28849 0.000669427 0
0.102588 0.000547806 0
0.666595 -0.0127227 0
0.136943 0.00143683 0
0.176655 -0.000710072 0
0.178229 -0.000778362 0
0.421206 -0.0214858 0
-0.0928398 0.00707271 0
0.383067 0.00884481 0
0.320328 0.000314111 0
0.0472975 -0.00134985 0
0.0563418 0.00121835 0
0.175286 -1.29347e-05 0
0.103555 -0.00148535 0
0.181252 0.00198697 0
0.259739 0.000699808 0
0.75178 -0.0010721 0
0.135044 0.00152891 0
0.842207 -0.00165463 0
0.177123 -0.000563376 0
-0.0725639 -0.000275516 0
0.84431 -0.00127202 0
0.963156 -0.000714386 0
0.909052 -0.00122233 0
0.958949 0.00142047 0
0.646967 0.00242185 0
0.210052 -0.00250979 0
0.128014 0.00235236 0
0.12825 0.0019956 0
0.191724 -1.3632e-05 0
0.110311 0.00227509 0
0.305544 -0.0188714 0
0.473353 -0.0229197 0
0.0547282 0.00109167 0
0.91036 0.000404096 0
0.0594013 0.000406959 0
0.0959248 0.00146608 0
0.188522 -0.000263738 0
0.112248 0.00164594 0
0.73739 0.00457053 0
0.643881 -0.00237384 0
0.749124 -0.000644595 0
0.190352 0.00131871 0
0.174813 0.000380083 0
0.187247 0.00108462 0
0.948675 -0.0169462 0
0.988966 0.00126034 0
0.991942 0.00121745 0
0.912255 0.00189558 0
0.250646 -0.00352114 0
0.213427 0.000606914 0
0.136567 0.000935153 0
0.153197 -0.00451037 0
0.165546 -0.00864144 0
0.243594 0.000105436 0
0.0637795 -0.00066655 0
0.319946 -0.00275797 0
0.127696 -0.00824179 0
0.134056 0.000862796 0
0.123797 0.000482287 0
0.250422 5.52007e-05 0
0.178925 -0.000302506 0
0.213328 0.000229215 0
0.958325 0.000278479 0
0.0772878 0.000816704 0
0.636457 4.82289e-05 0
0.632416 -0.00204249 0
0.248278 -0.0119855 0
0.259164 0.000416481 0
0.147812 -0.000310534 0
0.841387 -0.00142946 0
0.511642 -0.00371586 0
0.0648104 0.00230263 0
0.320506 -0.00655455 0
0.0984175 -0.00148362 0
0.323848 -0.00491133 0
0.510941 0.0039094 0
0.323164 -0.00544349 0
0.355781 -0.00727763 0
0.285728 -0.00524741 0
0.270803 -0.00265532 0
0.285745 4.62088e-05 0
0.250663 9.35773e-05 0
0.286165 -0.000129178 0
0.419707 -0.00875133 0
0.420223 -0.00788549 0
0.388047 -0.00849596 0
0.286519 -0.00474952 0
0.993479 -0.000632264 0
0.960953 -0.00111309 0
0.749282 0.00140967 0
0.989941 -0.000432906 0
0.90685 -0.00207561 0
0.84037 0.00237689 0
0.25363 0.00281509 0
0.964264 -0.00141303 0
0.213194 0.002737 0
0.924815 -0.0210812 0
0.964488 -0.0147091 0
0.838194 0.00201749 0
0.962607 -0.00351053 0
0.286734 0.00276575 0
0.959796 -0.00314843 0
0.920817 -0.0136224 0
0.96216 -0.00168784 0
0.211758 0.00025423 0
0.501861 0.00100397 0
0.915873 -0.0111096 0
0.503442 0.0010632 0
0.852748 -0.00826236 0
0.441224 0.000926184 0
0.754611 -0.00544526 0
0.994667 -0.00131654 0
0.347298 0.00241239 0
0.909818 0.000182461 0
0.991111 -0.00113067 0
0.374427 0.00223342 0
0.318069 0.00233668 0
0.399256 0.00204474 0
0.988754 -0.00350046 0
0.965067 -0.00198495 0
0.375194 0.00120435 0
0.963981 -0.00574553 0
0.377013 0.00112865 0
0.457675 0.000991925 0
0.374497 0.00225175 0
0.991667 -0.00275204 0
0.287721 0.000497957 0
0.855653 -0.00605384 0
0.960769 -0.00467816 0
0.376923 0.000965348 0
0.96785 -0.0165977 0
0.211204 0.000326535 0
0.177569 0.00186512 0
0.482968 0.00093239 0
0.350369 0.00114472 0
0.989963 -0.00288369 0
0.837716 -0.00152872 0
0.258697 -0.0010282 0
0.258142 -3.78076e-05 0
0.254428 0.000184049 0
0.255711 0.000881592 0
0.290022 0.000250015 0
0.419819 -0.000439649 0
0.498188 0.0003102 0
0.256321 0.00186044 0
0.213193 -0.00090323 0
0.909587 -0.00222953 0
0.219284 0.000368742 0
0.492156 0.00101167 0
0.42101 0.00197405 0
0.483191 0.000883557 0
0.25452 0.000650883 0
0.957832 -0.0022237 0
0.21066 0.00184558 0
0.287039 0.00170359 0
0.13472 0.00121656 0
0.287475 0.00017986 0
0.992831 -0.00269597 0
0.4578 0.000772984 0
0.911644 -0.00158502 0
0.214925 -0.000694127 0
0.914819 -0.00151582 0
0.288421 0.000421915 0
0.920294 -0.0187392 0
0.411757 -0.000163955 0
0.918239 -0.00459798 0
0.318063 -6.74103e-05 0
0.320638 3.47928e-05 0
0.411565 -0.000764785 0
0.843292 -0.00258863 0
0.219631 0.000821283 0
0.91643 -0.00667379 0
0.440071 -0.000676635 0
0.47139 -0.000891144 0
0.492857 -0.000469512 0
0.960203 -0.00231968 0
-0.0614393 0.0145171 0
0.483971 -0.000920843 0
0.350097 0.000516757 0
0.502713 5.74718e-06 0
0.491741 0.000907504 0
0.503629 0.00133304 0