# vtk DataFile Version 3.0
Malha 2D com triângulos: velocidade e pressão
ASCII
DATASET UNSTRUCTURED_GRID

POINTS 4446 double
2 0 0
10 0 0
10 1 0
0 1 0
0 0.5 0
2 0.5 0
2.05 0 0
2.1 0 0
2.15 0 0
2.2 0 0
2.25 0 0
2.3 0 0
2.35 0 0
2.4 0 0
2.45 0 0
2.5 0 0
2.55 0 0
2.6 0 0
2.65 0 0
2.7 0 0
2.75 0 0
2.8 0 0
2.85 0 0
2.9 0 0
2.95 0 0
3 0 0
3.05 0 0
3.1 0 0
3.15 0 0
3.2 0 0
3.25 0 0
3.3 0 0
3.35 0 0
3.4 0 0
3.45 0 0
3.5 0 0
3.55 0 0
3.6 0 0
3.65 0 0
3.7 0 0
3.75 0 0
3.8 0 0
3.85 0 0
3.9 0 0
3.95 0 0
4 0 0
4.05 0 0
4.1 0 0
4.15 0 0
4.2 0 0
4.25 0 0
4.3 0 0
4.35 0 0
4.4 0 0
4.45 0 0
4.5 0 0
4.55 0 0
4.6 0 0
4.65 0 0
4.7 0 0
4.75 0 0
4.8 0 0
4.85 0 0
4.9 0 0
4.95 0 0
5 0 0
5.05 0 0
5.1 0 0
5.15 0 0
5.2 0 0
5.25 0 0
5.3 0 0
5.35 0 0
5.4 0 0
5.45 0 0
5.5 0 0
5.55 0 0
5.6 0 0
5.65 0 0
5.7 0 0
5.75 0 0
5.8 0 0
5.85 0 0
5.9 0 0
5.95 0 0
6 0 0
6.05 0 0
6.1 0 0
6.15 0 0
6.2 0 0
6.25 0 0
6.3 0 0
6.35 0 0
6.4 0 0
6.45 0 0
6.5 0 0
6.55 0 0
6.6 0 0
6.65 0 0
6.7 0 0
6.75 0 0
6.8 0 0
6.85 0 0
6.9 0 0
6.95 0 0
7 0 0
7.05 0 0
7.1 0 0
7.15 0 0
7.2 0 0
7.25 0 0
7.3 0 0
7.35 0 0
7.4 0 0
7.45 0 0
7.5 0 0
7.55 0 0
7.6 0 0
7.65 0 0
7.7 0 0
7.75 0 0
7.8 0 0
7.85 0 0
7.9 0 0
7.95 0 0
8 0 0
8.05 0 0
8.1 0 0
8.15 0 0
8.2 0 0
8.25 0 0
8.3 0 0
8.35 0 0
8.4 0 0
8.45 0 0
8.5 0 0
8.55 0 0
8.6 0 0
8.65 0 0
8.7 0 0
8.75 0 0
8.8 0 0
8.85 0 0
8.9 0 0
8.95 0 0
9 0 0
9.05 0 0
9.1 0 0
9.15 0 0
9.2 0 0
9.25 0 0
9.3 0 0
9.35 0 0
9.4 0 0
9.45 0 0
9.5 0 0
9.55 0 0
9.6 0 0
9.65 0 0
9.7 0 0
9.75 0 0
9.8 0 0
9.85 0 0
9.9 0 0
9.95 0 0
10 0.05 0
10 0.1 0
10 0.15 0
10 0.2 0
10 0.25 0
10 0.3 0
10 0.35 0
10 0.4 0
10 0.45 0
10 0.5 0
10 0.55 0
10 0.6 0
10 0.65 0
10 0.7 0
10 0.75 0
10 0.8 0
10 0.85 0
10 0.9 0
10 0.95 0
9.95 1 0
9.9 1 0
9.85 1 0
9.8 1 0
9.75 1 0
9.7 1 0
9.65 1 0
9.6 1 0
9.55 1 0
9.5 1 0
9.45 1 0
9.4 1 0
9.35 1 0
9.3 1 0
9.25 1 0
9.2 1 0
9.15 1 0
9.1 1 0
9.05 1 0
9 1 0
8.95 1 0
8.9 1 0
8.85 1 0
8.8 1 0
8.75 1 0
8.7 1 0
8.65 1 0
8.6 1 0
8.55 1 0
8.5 1 0
8.45 1 0
8.4 1 0
8.35 1 0
8.3 1 0
8.25 1 0
8.2 1 0
8.15 1 0
8.1 1 0
8.05 1 0
8 1 0
7.95 1 0
7.9 1 0
7.85 1 0
7.8 1 0
7.75 1 0
7.7 1 0
7.65 1 0
7.6 1 0
7.55 1 0
7.5 1 0
7.45 1 0
7.4 1 0
7.35 1 0
7.3 1 0
7.25 1 0
7.2 1 0
7.15 1 0
7.1 1 0
7.05 1 0
7 1 0
6.95 1 0
6.9 1 0
6.85 1 0
6.8 1 0
6.75 1 0
6.7 1 0
6.65 1 0
6.6 1 0
6.55 1 0
6.5 1 0
6.45 1 0
6.4 1 0
6.35 1 0
6.3 1 0
6.25 1 0
6.2 1 0
6.15 1 0
6.1 1 0
6.05 1 0
6 1 0
5.95 1 0
5.9 1 0
5.85 1 0
5.8 1 0
5.75 1 0
5.7 1 0
5.65 1 0
5.6 1 0
5.55 1 0
5.5 1 0
5.45 1 0
5.4 1 0
5.35 1 0
5.3 1 0
5.25 1 0
5.2 1 0
5.15 1 0
5.1 1 0
5.05 1 0
5 1 0
4.95 1 0
4.9 1 0
4.85 1 0
4.8 1 0
4.75 1 0
4.7 1 0
4.65 1 0
4.6 1 0
4.55 1 0
4.5 1 0
4.45 1 0
4.4 1 0
4.35 1 0
4.3 1 0
4.25 1 0
4.2 1 0
4.15 1 0
4.1 1 0
4.05 1 0
4 1 0
3.95 1 0
3.9 1 0
3.85 1 0
3.8 1 0
3.75 1 0
3.7 1 0
3.65 1 0
3.6 1 0
3.55 1 0
3.5 1 0
3.45 1 0
3.4 1 0
3.35 1 0
3.3 1 0
3.25 1 0
3.2 1 0
3.15 1 0
3.1 1 0
3.05 1 0
3 1 0
2.95 1 0
2.9 1 0
2.85 1 0
2.8 1 0
2.75 1 0
2.7 1 0
2.65 1 0
2.6 1 0
2.55 1 0
2.5 1 0
2.45 1 0
2.4 1 0
2.35 1 0
2.3 1 0
2.25 1 0
2.2 1 0
2.15 1 0
2.1 1 0
2.05 1 0
2 1 0
1.95 1 0
1.9 1 0
1.85 1 0
1.8 1 0
1.75 1 0
1.7 1 0
1.65 1 0
1.6 1 0
1.55 1 0
1.5 1 0
1.45 1 0
1.4 1 0
1.35 1 0
1.3 1 0
1.25 1 0
1.2 1 0
1.15 1 0
1.1 1 0
1.05 1 0
1 1 0
0.95 1 0
0.9 1 0
0.85 1 0
0.8 1 0
0.75 1 0
0.7 1 0
0.65 1 0
0.6 1 0
0.55 1 0
0.5 1 0
0.45 1 0
0.4 1 0
0.35 1 0
0.3 1 0
0.25 1 0
0.2 1 0
0.15 1 0
0.1 1 0
0.05 1 0
0 0.95 0
0 0.9 0
0 0.85 0
0 0.8 0
0 0.75 0
0 0.7 0
0 0.65 0
0 0.6 0
0 0.55 0
0.05 0.5 0
0.1 0.5 0
0.15 0.5 0
0.2 0.5 0
0.25 0.5 0
0.3 0.5 0
0.35 0.5 0
0.4 0.5 0
0.45 0.5 0
0.5 0.5 0
0.55 0.5 0
0.6 0.5 0
0.65 0.5 0
0.7 0.5 0
0.75 0.5 0
0.8 0.5 0
0.85 0.5 0
0.9 0.5 0
0.95 0.5 0
1 0.5 0
1.05 0.5 0
1.1 0.5 0
1.15 0.5 0
1.2 0.5 0
1.25 0.5 0
1.3 0.5 0
1.35 0.5 0
1.4 0.5 0
1.45 0.5 0
1.5 0.5 0
1.55 0.5 0
1.6 0.5 0
1.65 0.5 0
1.7 0.5 0
1.75 0.5 0
1.8 0.5 0
1.85 0.5 0
1.9 0.5 0
1.95 0.5 0
2 0.45 0
2 0.4 0
2 0.35 0
2 0.3 0
2 0.25 0
2 0.2 0
2 0.15 0
2 0.1 0
2 0.05 0
8.06901 0.0475538 0
8.325 0.0433013 0
8.5778 0.0458014 0
8.82429 0.0439083 0
9.07419 0.0439501 0
9.32668 0.0423312 0
2.52305 0.0454918 0
2.77689 0.0448719 0
3.03156 0.0475213 0
3.275 0.0433013 0
3.52783 0.046061 0
3.77734 0.0419476 0
4.02193 0.0449251 0
4.27574 0.0411379 0
4.51872 0.0475373 0
4.77366 0.0452037 0
5.02823 0.0477302 0
5.28216 0.0475085 0
5.52561 0.042443 0
5.77807 0.0457743 0
6.02204 0.0398462 0
6.275 0.0433013 0
6.52722 0.0433483 0
6.7694 0.0475769 0
7.02447 0.0444581 0
7.27783 0.0459092 0
7.525 0.0422557 0
7.77439 0.0449567 0
9.47482 0.955851 0
7.92156 0.955313 0
8.92621 0.955339 0
8.6726 0.954294 0
8.4177 0.952733 0
8.17636 0.955341 0
9.18107 0.952451 0
7.62679 0.954643 0
7.37196 0.952257 0
7.12614 0.955845 0
3.87534 0.956427 0
3.62815 0.964359 0
3.3803 0.953593 0
3.1253 0.955556 0
2.87002 0.954607 0
2.62024 0.955051 0
6.875 0.956699 0
6.62158 0.953907 0
6.37338 0.966022 0
6.12637 0.95588 0
5.87571 0.962803 0
5.63078 0.952434 0
5.37535 0.952003 0
5.12127 0.952304 0
4.86862 0.952521 0
4.62578 0.955705 0
4.37079 0.954984 0
4.12695 0.957826 0
9.9567 0.475 0
2.0433 0.475 0
9.5296 0.0476387 0
2.42792 0.954045 0
9.6779 0.95509 0
2.325 0.0433013 0
2.2283 0.953914 0
9.9567 0.675 0
9.9567 0.275 0
9.32845 0.954186 0
9.67655 0.0441506 0
7.92165 0.0458031 0
7.77434 0.95569 0
2.0433 0.325 0
2.04553 0.525 0
2.08697 0.5 0
1.87257 0.958837 0
1.625 0.956699 0
1.375 0.956699 0
1.12941 0.952349 0
0.87452 0.955201 0
0.619903 0.952393 0
0.37732 0.956691 0
2.08704 0.55 0
2.12994 0.525 0
0.775 0.542289 0
0.272435 0.545784 0
1.77201 0.544618 0
0.526526 0.544252 0
1.225 0.543301 0
1.47794 0.547751 0
1.025 0.543301 0
2.04598 0.575 0
1.62477 0.54405 0
0.227667 0.957986 0
2.12998 0.575 0
2.17322 0.55 0
2.17321 0.5 0
2.21651 0.525 0
2.21651 0.475 0
2.25981 0.5 0
2.25981 0.55 0
2.30311 0.525 0
2.30311 0.475 0
2.34641 0.5 0
2.34641 0.45 0
2.38971 0.475 0
2.38971 0.525 0
2.43301 0.5 0
2.43301 0.55 0
2.47631 0.525 0
2.47631 0.475 0
2.51962 0.5 0
2.51962 0.45 0
2.56292 0.475 0
2.56292 0.525 0
2.60622 0.5 0
2.60622 0.55 0
2.64952 0.525 0
2.64952 0.475 0
2.69282 0.5 0
2.69282 0.55 0
2.73612 0.525 0
2.73612 0.475 0
2.77942 0.5 0
2.77942 0.45 0
2.82272 0.475 0
2.82272 0.525 0
2.86603 0.5 0
2.86603 0.55 0
2.90933 0.525 0
2.90933 0.475 0
2.95263 0.5 0
2.95263 0.55 0
2.99593 0.525 0
2.99593 0.475 0
3.03923 0.5 0
3.03923 0.45 0
3.08253 0.475 0
3.08253 0.525 0
3.12583 0.5 0
3.12583 0.55 0
3.16913 0.525 0
3.16913 0.475 0
3.21244 0.5 0
3.21244 0.55 0
3.25574 0.525 0
3.25574 0.475 0
3.29904 0.5 0
3.29904 0.45 0
3.34234 0.475 0
3.34234 0.525 0
3.38564 0.5 0
3.38564 0.55 0
3.42894 0.525 0
3.42894 0.475 0
3.47224 0.5 0
3.47224 0.55 0
3.51554 0.525 0
3.51554 0.475 0
3.55885 0.5 0
3.55885 0.45 0
3.60215 0.475 0
3.60215 0.525 0
3.64545 0.5 0
3.64545 0.55 0
3.68875 0.525 0
3.68875 0.475 0
3.73205 0.5 0
3.73205 0.45 0
3.77535 0.475 0
3.77535 0.525 0
3.81865 0.5 0
3.81865 0.45 0
3.86195 0.475 0
3.86195 0.525 0
3.90526 0.5 0
3.90526 0.55 0
3.94856 0.525 0
3.94856 0.475 0
3.99186 0.5 0
3.99186 0.45 0
4.03516 0.475 0
4.03516 0.525 0
4.07846 0.5 0
4.07846 0.45 0
4.12176 0.475 0
4.12176 0.525 0
4.16506 0.5 0
4.16506 0.55 0
4.20836 0.525 0
4.20836 0.475 0
4.25167 0.5 0
4.25167 0.45 0
4.29497 0.475 0
4.29497 0.525 0
4.33827 0.5 0
4.33827 0.45 0
4.38157 0.475 0
4.38157 0.525 0
4.42487 0.5 0
4.42487 0.55 0
4.46817 0.525 0
4.46817 0.475 0
4.51147 0.5 0
4.51147 0.45 0
4.55477 0.475 0
4.55477 0.525 0
4.59808 0.5 0
4.59808 0.45 0
4.64138 0.475 0
4.64138 0.525 0
4.68468 0.5 0
4.68468 0.55 0
4.72798 0.525 0
4.72798 0.475 0
4.77128 0.5 0
4.77128 0.45 0
4.81458 0.475 0
4.81458 0.525 0
4.85788 0.5 0
4.85788 0.55 0
4.90119 0.525 0
4.90119 0.475 0
4.94449 0.5 0
4.94449 0.55 0
4.98779 0.525 0
4.98779 0.475 0
5.03109 0.5 0
5.03109 0.45 0
5.07439 0.475 0
5.07439 0.525 0
5.11769 0.5 0
5.11769 0.55 0
5.16099 0.525 0
5.16099 0.475 0
5.20429 0.5 0
5.20429 0.55 0
5.2476 0.525 0
5.2476 0.475 0
5.2909 0.5 0
5.2909 0.45 0
5.3342 0.475 0
5.3342 0.525 0
5.3775 0.5 0
5.3775 0.55 0
5.4208 0.525 0
5.4208 0.475 0
5.4641 0.5 0
5.4641 0.55 0
5.5074 0.525 0
5.5074 0.475 0
5.5507 0.5 0
5.5507 0.45 0
5.59401 0.475 0
5.59401 0.525 0
5.63731 0.5 0
5.63731 0.55 0
5.68061 0.525 0
5.68061 0.475 0
5.72391 0.5 0
5.72391 0.55 0
5.76721 0.525 0
5.76721 0.475 0
5.81051 0.5 0
5.81051 0.45 0
5.85381 0.475 0
5.85381 0.525 0
5.89711 0.5 0
5.89711 0.55 0
5.94042 0.525 0
5.94042 0.475 0
5.98372 0.5 0
5.98372 0.45 0
6.02702 0.475 0
6.02702 0.525 0
6.07032 0.5 0
6.07032 0.45 0
6.11362 0.475 0
6.11362 0.525 0
6.15692 0.5 0
6.15692 0.55 0
6.20022 0.525 0
6.20022 0.475 0
6.24352 0.5 0
6.24352 0.45 0
6.28683 0.475 0
6.28683 0.525 0
6.33013 0.5 0
6.33013 0.45 0
6.37343 0.475 0
6.37343 0.525 0
6.41673 0.5 0
6.41673 0.55 0
6.46003 0.525 0
6.46003 0.475 0
6.50333 0.5 0
6.50333 0.45 0
6.54663 0.475 0
6.54663 0.525 0
6.58993 0.5 0
6.58993 0.45 0
6.63324 0.475 0
6.63324 0.525 0
6.67654 0.5 0
6.67654 0.55 0
6.71984 0.525 0
6.71984 0.475 0
6.76314 0.5 0
6.76314 0.45 0
6.80644 0.475 0
6.80644 0.525 0
6.84974 0.5 0
6.84974 0.45 0
6.89304 0.475 0
6.89304 0.525 0
6.93634 0.5 0
6.93634 0.55 0
6.97965 0.525 0
6.97965 0.475 0
7.02295 0.5 0
7.02295 0.45 0
7.06625 0.475 0
7.06625 0.525 0
7.10955 0.5 0
7.10955 0.55 0
7.15285 0.525 0
7.15285 0.475 0
7.19615 0.5 0
7.19615 0.55 0
7.23945 0.525 0
7.23945 0.475 0
7.28275 0.5 0
7.28275 0.45 0
7.32606 0.475 0
7.32606 0.525 0
7.36936 0.5 0
7.36936 0.55 0
7.41266 0.525 0
7.41266 0.475 0
7.45596 0.5 0
7.45596 0.55 0
7.49926 0.525 0
7.49926 0.475 0
7.54256 0.5 0
7.54256 0.45 0
7.58586 0.475 0
7.58586 0.525 0
7.62917 0.5 0
7.62917 0.55 0
7.67247 0.525 0
7.67247 0.475 0
7.71577 0.5 0
7.71577 0.55 0
7.75907 0.525 0
7.75907 0.475 0
7.80237 0.5 0
7.80237 0.55 0
7.84567 0.525 0
7.84567 0.475 0
7.88897 0.5 0
7.88897 0.55 0
7.93227 0.525 0
7.93227 0.475 0
7.97558 0.5 0
7.97558 0.55 0
8.01888 0.525 0
8.01888 0.475 0
8.06218 0.5 0
8.06218 0.45 0
8.10548 0.475 0
8.10548 0.525 0
8.14878 0.5 0
8.14878 0.45 0
8.19208 0.475 0
8.19208 0.525 0
8.23538 0.5 0
8.23538 0.55 0
8.27868 0.525 0
8.27868 0.475 0
8.32199 0.5 0
8.32199 0.45 0
8.36529 0.475 0
[...]
CELL_DATA 8450
VECTORS velocity double
0.117795 -0.00218211 0
0.255639 0.00332859 0
0.149705 -0.0036417 0
0.208544 -0.00271369 0
0.0512687 0.00100361 0
0.0915081 -0.0028331 0
0.301605 0.00542307 0
0.14016 0.00148568 0
0.143475 -0.000174553 0
0.000671011 -0.00174156 0
0.117656 0.00267982 0
0.112973 -0.00162708 0
0.143015 0.00368001 0
0.176887 -0.00942136 0
0.0883232 -0.0100074 0
0.138976 -0.00268964 0
0.498185 -0.0389126 0
0.201747 0.000833992 0
-0.00783923 0.00180243 0
0.224429 -0.0105604 0
0.121978 -0.00221689 0
0.229736 0.0113369 0
0.136365 -0.00245593 0
0.117601 -0.00135249 0
0.0908239 0.00270862 0
0.137271 0.00205862 0
0.136323 -0.0029328 0
0.21955 -0.00439362 0
0.111227 8.20446e-05 0
0.138561 0.00117326 0
0.139644 0.00039574 0
0.112873 6.09452e-05 0
0.134349 -0.000260231 0
0.0568182 -0.00211604 0
0.114471 -9.24638e-05 0
0.114714 0.00153568 0
0.115031 0.000736656 0
0.0525766 -0.000409283 0
0.252665 -0.0150806 0
0.11131 -0.000199086 0
0.114871 0.000464651 0
0.144727 -0.00132068 0
0.0890068 0.00182639 0
0.111381 0.00158478 0
0.153734 0.00302164 0
0.572398 -0.0363138 0
-0.00912959 0.00154062 0
0.2132 -0.00144166 0
0.118159 -9.71443e-05 0
0.121308 0.00206474 0
0.122791 -0.000140054 0
0.111363 0.000946127 0
0.432787 -0.0042761 0
0.115486 0.00102254 0
0.124734 -0.000106784 0
0.140152 -0.0045755 0
0.424242 0.00123076 0
0.43322 -0.00652243 0
0.110778 -0.00107117 0
0.751519 -0.00410782 0
0.118272 -0.00103624 0
0.210593 -0.000810679 0
0.147807 -0.0008622 0
0.107987 -0.000923898 0
0.091286 -0.00315558 0
0.434382 0.00878346 0
0.107389 0.000102357 0
0.117688 -0.00131299 0
0.107018 2.7055e-05 0
0.106623 -0.000272944 0
0.112584 -0.00456275 0
0.0538948 -0.00388424 0
0.137531 -0.00158484 0
0.106154 0.000595705 0
0.114989 -0.000549005 0
0.131823 0.000904593 0
0.0137945 -0.00606828 0
0.143942 -0.00203198 0
0.107599 -0.000981609 0
0.213253 0.00253884 0
0.112159 0.000851675 0
0.105842 -0.000496152 0
0.105543 -0.000536592 0
0.405368 -0.00398016 0
0.0996115 0.000121554 0
0.120656 0.00241851 0
0.41695 -0.00224186 0
0.115505 -0.00276665 0
0.111016 0.000400215 0
0.107889 0.000412647 0
0.341304 -0.0106303 0
0.429717 -0.00527119 0
0.14451 -2.2743e-05 0
0.107383 0.00109897 0
0.133917 0.00446881 0
0.721385 -0.00736781 0
0.0548733 -0.00135323 0
0.105908 -0.000299034 0
0.137948 0.00227798 0
0.143129 -0.00182366 0
0.13028 0.00208696 0
0.10898 -0.000324388 0
0.501155 0.00063771 0
0.137962 -0.00133113 0
0.191665 -0.00628906 0
0.315368 0.00403897 0
0.137441 0.00157611 0
0.137575 -0.00146599 0
0.139422 -0.000624781 0
0.141519 -0.00176648 0
0.0878897 0.00201833 0
0.0871664 -0.00190954 0
0.209074 -0.00116423 0
0.0868295 -0.00227094 0
0.412039 -0.000470214 0
0.11578 0.000156185 0
0.215059 0.000388182 0
0.492633 -0.0101765 0
0.109546 3.32739e-05 0
0.113683 0.00136332 0
0.137492 -0.00198155 0
0.133272 0.000915849 0
0.11207 0.00283836 0
0.111226 -0.000376517 0
0.140451 0.00240717 0
0.115992 0.000843647 0
0.062199 7.77718e-05 0
0.121253 -0.000630817 0
0.110724 -0.000203759 0
0.377001 -0.0174231 0
0.135368 -0.000629457 0
0.0497751 -0.00106193 0
0.094699 -0.00165883 0
0.135529 0.00449932 0
0.215335 -0.00153617 0
0.337572 0.00446132 0
0.945731 -0.00987271 0
0.309406 -0.0260832 0
0.522508 -0.0150173 0
0.20805 -0.00301397 0
0.0917988 0.00119933 0
0.0620393 -0.000246242 0
0.147066 0.000291675 0
0.502826 -0.00404501 0
0.323093 -0.00727537 0
0.718692 -0.0068913 0
0.876032 0.00204414 0
0.170336 -0.00141927 0
0.0610979 7.00173e-05 0
0.126417 -0.000629828 0
0.143059 0.00452559 0
0.130254 0.0022423 0
0.206918 -0.000146464 0
0.11181 0.00318112 0
0.12944 -0.000969459 0
0.21807 0.00112375 0
0.133307 5.63578e-05 0
0.0815876 0.0015757 0
0.0915563 -0.0027351 0
0.205132 -0.00221121 0
0.137749 0.00167568 0
0.137751 0.000523614 0
0.00450586 -0.005628 0
0.121954 -0.00386526 0
0.484461 -0.000421088 0
0.0317051 0.00201112 0
0.141322 -0.00160663 0
0.134225 0.00232545 0
0.147745 0.00280162 0
-0.00231407 -0.00118173 0
0.204251 -0.00124142 0
0.760152 -0.00311268 0
0.235446 -0.00167988 0
0.964795 -0.0126394 0
0.132943 -0.00216837 0
0.0889005 0.00200613 0
0.0859563 0.00355609 0
0.210523 -0.0129308 0
0.0435138 -0.0108608 0
0.421114 0.0020353 0
0.12976 -0.00656763 0
0.31995 0.00168028 0
0.137232 -0.00136485 0
0.128815 -0.00160751 0
0.136214 0.002355 0
0.0557602 0.000186568 0
0.506666 -0.00122408 0
0.410858 -0.00603646 0
0.934902 -0.026456 0
0.127534 0.000565233 0
0.134911 -0.00252463 0
0.0324358 -0.00152067 0
0.0928698 0.0034963 0
0.132465 -0.00184882 0
0.495157 0.00484614 0
0.229259 0.00504802 0
0.0328309 0.000422309 0
0.0329057 -0.00119252 0
0.134503 0.0059797 0
0.0957467 0.00252595 0
0.480889 0.00945045 0
0.131052 -0.00236775 0
0.127004 -0.00132819 0
0.141546 0.000582724 0
0.292786 -0.00748505 0
0.125187 -0.000792138 0
0.140593 -0.000531611 0
0.501571 0.00334532 0
0.135848 -0.00130807 0
0.511873 0.00352649 0
0.351756 0.00816541 0
0.481032 -0.00659486 0
0.141802 0.00066834 0
0.499882 0.008083 0
0.140343 0.000402543 0
0.20142 -0.00113733 0
0.12883 0.00119619 0
0.126101 0.000234594 0
0.131975 0.000477713 0
0.216572 -0.00409688 0
0.133262 0.000957872 0
0.0962862 0.00173461 0
0.0988301 -0.00258265 0
0.108356 0.000147831 0
0.032462 -0.00137988 0
0.12863 -0.00154575 0
0.179517 0.000376515 0
0.135221 -0.00127938 0
0.216971 -0.00324769 0
0.112859 -0.00342412 0
0.502531 0.00363093 0
0.190854 -0.010141 0
0.0617241 -0.0110011 0
0.94749 -0.000337457 0
0.138136 0.00111261 0
0.735288 -0.00351844 0
0.141413 -0.00436743 0
0.0337232 -0.000831793 0
0.0894857 -0.00171336 0
0.0965126 -0.00276213 0
0.091307 0.00219908 0
0.0563464 -0.000166226 0
0.503896 0.00361787 0
0.0243157 -0.0108862 0
0.212894 0.00419919 0
0.836433 -0.0116039 0
0.0342063 -0.000738003 0
0.13329 0.000720291 0
0.746601 0.0065259 0
0.98438 0.00246425 0
0.736896 -0.00528752 0
0.261648 -0.0022821 0
0.131602 -0.00359253 0
0.148048 -0.000935016 0
0.0338155 0.000650995 0
0.134437 -0.000541999 0
0.0999787 0.000533723 0
0.114563 -0.00488914 0
0.486708 0.00267032 0
0.127907 -0.000637519 0
0.0300668 -0.000753201 0
0.13636 0.000460477 0
0.908645 0.00755808 0
0.138033 -0.00208759 0
0.13074 -0.000284648 0
0.134103 -0.00289933 0
0.145294 0.00584839 0
0.13416 -0.000344003 0
0.936241 0.00366053 0
0.136173 -0.000573174 0
0.129923 -0.000682104 0
0.135626 -0.00290335 0
0.13915 0.00125997 0
0.128063 -0.00247577 0
0.274439 -0.0160481 0
0.139348 -0.000220853 0
0.0325425 -0.00057866 0
0.129327 0.00373372 0
0.988128 0.00217989 0
0.907976 -0.00242514 0
0.172898 -0.00257413 0
0.124358 -0.00105977 0
0.125997 0.00024975 0
0.137634 -0.00288589 0
0.485577 -0.00942652 0
0.630412 -0.00454756 0
0.257872 0.000944689 0
0.137429 0.00191476 0
0.13461 -0.00115013 0
0.136811 0.000387707 0
0.136187 0.003041 0
0.139691 -0.00088551 0
0.12104 0.00162736 0
0.145407 -0.000355405 0
0.494761 -0.00755003 0
0.0326385 -0.000773056 0
0.104263 -0.00232943 0
0.362385 -0.00915457 0
0.495509 -0.00437006 0
0.633108 -0.00458817 0
0.122563 0.000159453 0
0.140329 -0.00443254 0
0.145484 0.00627893 0
0.136214 0.00232507 0
0.44 0.00216588 0
0.293138 0.00192721 0
0.130118 -0.00184535 0
0.855408 -0.0120613 0
0.494511 -0.00907518 0
0.130297 0.000491584 0
0.663461 -0.126668 0
0.411961 -0.0183459 0
0.398093 -0.0124003 0
0.0363496 -0.00164974 0
0.135674 -0.00128153 0
0.0890669 -0.00208299 0
0.476871 0.0015018 0
0.132247 -0.00143282 0
0.129865 0.00200342 0
0.0857068 0.00125012 0
0.0341992 -0.00128674 0
0.0339922 0.00079597 0
0.0351341 -0.00165429 0
0.212071 -0.0052537 0
0.0342221 0.00203014 0
0.0335635 0.00198029 0
0.125284 -0.000295203 0
0.12908 0.00136565 0
0.126892 0.000997006 0
0.135823 -0.0006184 0
0.297584 0.00518446 0
0.106058 -2.39928e-05 0
0.136473 0.00106976 0
0.299949 0.00290642 0
0.0885184 0.00223204 0
0.120339 -0.0021851 0
0.148178 0.00436689 0
0.49337 0.00342346 0
0.13543 0.00285795 0
0.1517 -0.00678708 0
0.0474673 0.000471986 0
0.0466957 3.13665e-05 0
0.049699 0.000471783 0
0.199277 -0.000940343 0
0.0533955 -0.000240404 0
0.0526752 0.000507883 0
0.0500817 -0.000287307 0
0.0525282 0.000160502 0
0.0514972 7.69185e-05 0
0.0526915 0.00129652 0
0.0501771 0.000381198 0
0.213389 -0.0144486 0
0.488602 0.00321131 0
0.0920928 -0.00260325 0
0.617312 -0.185388 0
0.0957619 -0.000865636 0
0.131183 -0.00234995 0
0.13024 0.00198798 0
0.840968 0.00335707 0
0.650009 0.00665037 0
0.490828 0.00334999 0
0.834594 0.0122853 0
0.168223 -0.00305263 0
0.140865 0.000634428 0
0.126461 0.0015018 0
0.124639 -0.000290229 0
0.142654 0.00167645 0
0.152677 -0.000719419 0
0.127368 0.000310992 0
0.131159 -0.000603167 0
0.955665 -0.0220281 0
0.0931375 -0.00172008 0
0.176683 -0.0101603 0
0.0656702 -0.00932978 0
0.068875 -0.00204633 0
0.127491 2.89086e-05 0
0.129996 0.00237383 0
0.191688 -0.00153339 0
0.127649 -0.00492272 0
0.129013 -0.00388657 0
0.125007 -0.000598562 0
0.125665 0.000845792 0
0.241738 -0.00180261 0
0.152644 -0.00745887 0
0.0863966 -0.00633658 0
0.453223 0.00298705 0
0.121593 0.0013225 0
0.492151 -0.00157396 0
0.131621 0.00228234 0
0.124765 0.00169337 0
0.13048 -0.00190859 0
0.120658 3.82122e-05 0
0.150332 -0.00169533 0
0.136129 -0.00172069 0
0.159973 0.00348316 0
0.715327 0.000803881 0
0.0135831 -0.00874885 0
0.0870678 -7.0768e-05 0
0.35976 0.0079787 0
0.119317 0.00108411 0
0.135465 -0.00336731 0
0.490027 -0.00041048 0
0.109492 -0.000686798 0
0.287055 8.45723e-05 0
0.3217 0.00777292 0
0.0828829 0.00198282 0
0.140841 -0.00148353 0
0.163425 0.000498489 0
0.505019 -0.00142997 0
0.177558 -0.00159417 0
0.0978482 8.98142e-05 0
0.195642 -0.00192837 0
0.834026 -0.00364518 0
0.25524 -0.00200655 0
0.137416 -0.00216385 0
0.15639 6.86802e-05 0
-0.00781871 -0.00238201 0
0.128595 0.000690813 0
0.126146 0.00174574 0
0.138083 -0.00207457 0
0.138338 0.00256971 0
0.13588 0.00365178 0
0.122777 -0.000193021 0
0.141016 0.00164189 0
0.849018 0.000679762 0
0.0673584 -0.00114333 0
0.998709 0.00335493 0
0.840385 -0.00696443 0
0.957437 -0.00143012 0
0.141678 0.00277431 0
0.14472 0.00330327 0
0.145183 -0.00361196 0
0.494378 0.00401574 0
0.138422 0.00210094 0
0.13001 0.00244812 0
0.128808 -0.00246864 0
0.474818 0.00948019 0
0.120618 0.00125744 0
0.128029 -0.00188651 0
0.110329 -0.0012959 0
-0.00650919 0.00440623 0
0.836224 0.0115124 0
0.845003 0.0083288 0
0.634266 0.0131997 0
0.632029 0.00771794 0
0.144065 -0.00415655 0
0.0333551 -0.00640116 0
0.142318 -0.00371838 0
0.12853 -0.00236172 0
0.060052 -0.000327009 0
0.0696457 -0.00108057 0
0.573229 -0.0230211 0
-0.0089589 -0.00150906 0
0.611973 -0.0155394 0
0.0989911 0.0014765 0
0.091205 -0.00335785 0
0.130803 -0.00163464 0
0.24916 -0.0111707 0
0.116866 -0.00295356 0
0.12452 -0.000707052 0
0.626546 -0.000500902 0
0.127356 0.000287248 0
0.105975 -0.000175737 0
0.130959 0.00176413 0
0.108469 0.000811983 0
0.10865 0.00102712 0
0.1214 0.00113114 0
0.13588 -0.000531322 0
0.960324 0.00733069 0
0.998357 0.00180052 0
0.956475 0.00598663 0
0.958817 -0.00234333 0
0.840006 -0.00686469 0
0.134531 -0.00475433 0
0.107542 -0.00522514 0
0.473568 0.00216572 0
0.217897 -0.00943431 0
0.138316 -0.00276964 0
0.222595 0.00119768 0
0.0684204 0.00153806 0
0.151127 -0.00499853 0
0.452934 -0.00334129 0
0.467011 -0.00271872 0
0.229768 0.000231528 0
0.266134 0.00527074 0
0.38999 -0.00323455 0
0.467904 0.0023225 0
0.452706 0.000527059 0
0.50403 -0.00149975 0
0.499554 -0.00142008 0
0.359331 0.000887081 0
0.389299 0.00583033 0
0.502603 -0.00298204 0
0.303843 0.00610867 0
0.33446 0.0013304 0
0.41582 0.00684518 0
0.43712 0.00284577 0
0.492251 0.000213705 0
0.481705 0.00251928 0
0.481347 -0.00173102 0
0.363576 -0.00348981 0
0.131868 0.00070675 0
0.092151 -0.00192095 0
0.247562 -0.0028055 0
0.167807 0.0013322 0
0.0830736 -0.00520876 0
0.283013 -0.00603275 0
0.145821 0.000522186 0
0.0670969 0.0014511 0
0.180238 0.000750753 0
0.51437 8.00353e-06 0
0.146596 0.002606 0
0.852662 -0.00138639 0
0.708826 -0.00323268 0
0.0993112 -0.00317195 0
0.361299 0.00935462 0
0.842462 0.0115755 0
0.150539 -0.00178689 0
0.862764 0.00261534 0
0.256552 -0.00565453 0
0.150187 0.000730893 0
0.0923768 0.0015193 0
0.100239 -0.00151137 0
0.127687 -0.00129425 0
0.317165 0.0015601 0
0.92545 -0.018629 0
0.91414 0.00740185 0
0.145368 -0.000681134 0
0.264392 -0.00484269 0
0.0890595 -0.00192298 0
0.103731 0.00235009 0
0.161563 0.000232077 0
0.135001 -0.000713671 0
0.180268 0.00436644 0
0.223097 -0.00209433 0
0.150574 0.00320036 0
0.591924 -0.0210623 0
0.112424 -0.00117905 0
0.1041 0.00127714 0
0.330701 0.0044442 0
0.377472 -0.00474989 0
0.130373 -0.000452907 0
0.255626 0.00387426 0
0.740251 0.0129 0
0.34978 -0.00251269 0
0.402983 -0.00232833 0
0.505354 -0.00256645 0
0.140926 0.00218017 0
0.487366 -0.00233965 0
0.315586 0.00216567 0
0.404639 -0.00545079 0
0.560893 -0.0142056 0
0.165175 -0.000302805 0
0.0900452 0.00188193 0
0.0961702 -0.00222346 0
0.0988289 0.000759906 0
0.0984029 -2.21603e-05 0
0.100748 0.000844852 0
0.106684 -0.000505235 0
0.114594 0.00127746 0
0.385814 -0.00216477 0
0.104358 -0.000805079 0
0.103335 0.000957881 0
0.101134 -3.03617e-05 0
0.103824 0.00141009 0
0.103374 -7.09542e-06 0
0.104911 0.00164395 0
0.101281 0.000107698 0
0.297463 0.00364853 0
0.174114 0.00214388 0
0.208167 0.00223714 0
0.139928 -3.77439e-06 0
0.315959 0.00161418 0
0.0999358 -0.00307678 0
0.145053 0.000887399 0
0.189175 -0.000742898 0
0.127828 -2.24741e-06 0
0.142428 -0.00189655 0
0.139269 0.00457788 0
0.490027 -0.00280478 0
0.268399 -0.00233618 0
0.381502 -0.00805002 0
0.139203 -0.00742614 0
0.0393081 -0.00516165 0
0.963392 -0.0019098 0
0.222136 -0.00508966 0
0.116603 -0.0029327 0
0.133974 0.00382861 0
0.147116 0.000393271 0
0.139814 -0.00157028 0
0.102311 -0.000388488 0
0.177218 -0.00280208 0
0.174161 -0.00380053 0
0.126611 0.000385783 0
0.128091 -0.000536105 0
0.135401 0.00219161 0
0.224187 -0.0054124 0
0.139583 -0.00351506 0
0.520692 0.00651648 0
0.148672 0.00422918 0
0.14106 -3.61039e-05 0
0.499603 -0.003537 0
0.138361 0.00116717 0
0.273881 -0.0230914 0
0.136297 0.000943156 0
0.12751 0.0030946 0
0.519506 0.0115709 0
0.13846 0.00404701 0
0.532789 -0.00450378 0
0.846918 -0.00537401 0
0.146307 -0.00154053 0
0.860616 -0.000229062 0
0.132853 -0.00176107 0
0.123832 0.00055376 0
0.132467 -0.0023386 0
0.534896 0.00142641 0
0.083615 -0.00322253 0
0.355701 -0.0031693 0
0.132862 0.00154055 0
0.140864 -0.00193172 0
0.248246 0.00152624 0
0.126912 -0.00035987 0
0.0388193 -0.0113746 0
0.144204 -0.0017097 0
0.677534 -0.00893332 0
0.126587 0.00528184 0
0.174892 -0.000650109 0
0.13245 0.000270357 0
0.175602 0.000694301 0
0.175588 0.00114184 0
0.151987 -0.00309559 0
0.494923 -0.00356182 0
0.959605 0.00198575 0
0.127168 -0.00477042 0
0.493097 -0.00302461 0
0.13575 -0.0019922 0
0.137058 0.000222736 0
0.0992571 0.00194754 0
0.147848 -0.00261289 0
0.13606 0.00167456 0
0.133742 0.000195565 0
0.131419 -0.000350233 0
0.131586 0.000412974 0
0.612575 -0.0688012 0
0.37924 -0.0196229 0
0.438242 -0.0119319 0
0.142954 0.0034427 0
0.141889 -0.00283775 0
0.12302 -0.00143528 0
0.146142 0.00175624 0
0.504076 -0.000241893 0
0.251876 0.00243561 0
0.320918 0.00427216 0
0.253483 3.65318e-06 0
0.145868 -0.001025 0
0.100101 0.00242648 0
0.108559 0.00241606 0
0.107073 -0.00168589 0
0.190901 0.000637173 0
0.4511 -0.019763 0
0.920275 -0.00525788 0
0.171955 -0.0057607 0
0.142181 -0.00271164 0
0.0996244 -0.00183688 0
0.0945156 0.000646825 0
0.176076 0.000134777 0
0.604512 0.00849265 0
0.641568 -0.00449913 0
0.182472 0.00217758 0
0.173045 0.0015172 0
0.921462 -0.00514973 0
0.0555931 -0.00039816 0
0.250414 0.000956465 0
0.282224 0.00179253 0
0.250498 -0.00468952 0
0.0977636 -0.000715199 0
0.975479 -0.00436855 0
0.056696 -0.000292112 0
0.142094 0.000439463 0
0.924208 -0.00429859 0
0.462308 -0.025267 0
-0.00895873 6.27274e-05 0
0.089603 0.000551895 0
0.84076 -0.0181493 0
0.138784 0.00106896 0
0.297667 0.00267646 0
0.167948 -0.000491171 0
0.181776 0.00187686 0
0.0985199 -0.00220496 0
0.212838 0.00121627 0
0.284827 0.00185115 0
0.10618 -1.64174e-05 0
0.664795 -0.0313654 0
0.135767 0.000748225 0
0.173715 -0.00285826 0
0.178035 -0.00277338 0
0.245247 -0.0182337 0
0.100008 -0.0181266 0
0.377769 0.00385749 0
0.316022 0.000420341 0
0.0539901 -0.00141086 0
0.0586939 0.000563647 0
0.167613 -9.07768e-05 0
0.102109 -0.00100489 0
0.179856 0.00429778 0
0.259683 0.00371855 0
0.755857 -0.00471025 0
0.172171 -0.000958952 0
0.851665 -0.0052245 0
0.168568 -0.000287447 0
0.113357 -0.00236757 0
0.850613 -0.0041336 0
0.977533 -0.00379578 0
0.905236 -0.00202828 0
0.95456 0.00624177 0
0.634665 0.00341995 0
0.211384 9.12884e-05 0
0.175852 -0.0025539 0
0.180746 -0.00283999 0
0.191514 -0.000433845 0
0.112128 0.00168601 0
0.185012 -0.00396484 0
0.30187 -0.0289357 0
0.0572422 0.000784886 0
0.92174 -0.00521312 0
0.0633771 0.000681646 0
0.0934072 0.00169421 0
0.193908 0.00127632 0
0.112022 0.00146336 0
0.724117 0.0169123 0
0.642954 -0.00589767 0
0.752349 -0.00532638 0
0.187491 0.00195269 0
0.170359 0.00134117 0
0.188982 0.00365633 0
0.950497 -0.0393843 0
0.985417 0.00683079 0
0.985311 0.00641724 0
0.905868 0.00593909 0
0.250946 -0.000435899 0
0.208557 0.00137235 0
0.178864 -0.00471703 0
0.159258 -0.00354847 0
0.139981 -0.00633128 0
0.236895 -0.00367302 0
0.115377 -0.00268752 0
0.318467 -0.00926093 0
0.17549 0.00158942 0
0.130007 0.00136788 0
0.125732 -2.31707e-05 0
0.264197 0.00277884 0
0.172997 -8.74689e-05 0
0.204815 0.000645284 0
0.972293 -0.00456357 0
0.109486 -0.00212171 0
0.635351 0.0150579 0
0.625862 0.00711058 0
0.151234 -0.0028258 0
0.264013 0.00258105 0
0.1512 0.00152013 0
0.850074 -0.00576391 0
0.514032 -0.00111352 0
0.114264 0.00182631 0
0.316771 -0.00151811 0
0.0971418 -0.000750021 0
0.317979 -0.00128749 0
0.49623 0.0139005 0
0.317738 -0.0013202 0
0.346677 -0.00179269 0
0.284917 -0.00126393 0
0.163597 0.00306255 0
0.278361 0.00136562 0
0.242807 0.000740116 0
0.278593 0.00154491 0
0.398259 -0.00246779 0
0.398641 -0.00241706 0
0.373515 -0.00215075 0
0.284918 -0.00103638 0
1.00878 -0.00312669 0
0.976883 -0.00340372 0
0.745954 0.00903828 0
1.0074 -0.00319476 0
0.903227 -0.00568947 0
0.836956 0.01127 0
0.259645 0.0059836 0
0.977667 -0.00338382 0
0.219868 0.00441146 0
0.932847 -0.0560048 0
0.968927 -0.02806 0
0.836786 0.0126885 0
0.957991 -0.000662504 0
0.29005 0.00519493 0
0.957031 -0.00412198 0
0.922169 -0.0240061 0
0.975708 -0.0047538 0
0.218834 0.00106913 0
0.50225 -0.00052398 0
0.919123 -0.0188856 0
0.503582 -0.000644077 0
0.849404 -0.0158634 0
0.43996 0.0067435 0
0.744914 -0.00514043 0
1.00729 -0.0052293 0
0.347161 0.00559331 0
0.906205 0.0111962 0
1.00746 -0.0040635 0
0.373002 0.00640289 0
0.319254 0.00591617 0
0.396849 0.00787356 0
0.987536 0.000564041 0
0.974757 -0.00500506 0
0.372939 0.00766168 0
0.961489 -0.010172 0
0.377964 0.00412065 0
0.456825 0.00682051 0
0.372842 0.00747421 0
0.988171 0.00238555 0
0.291934 -0.00190637 0
0.8523 -0.00977399 0
0.959772 -0.00644378 0
0.378218 0.00399314 0
0.971096 -0.0384074 0
0.208164 0.000925107 0
0.17793 0.00490974 0
0.482655 0.000356546 0
0.350561 0.00372724 0
0.986399 -0.00556251 0
0.82906 -0.00570606 0
0.264401 -0.00207287 0
0.26371 -0.0011447 0
0.253535 0.00106098 0
0.255795 0.00155893 0
0.289299 0.000810721 0
0.419475 -0.00472347 0
0.513287 -0.000666435 0
0.254832 0.00246829 0
0.211531 -2.3419e-05 0
0.904275 -0.0050905 0
0.222443 -0.00260189 0
0.49157 0.000321943 0
0.418478 0.0074387 0
0.482915 0.000284508 0
0.252756 0.00311776 0
0.956592 0.00342203 0
0.212319 0.00398033 0
0.291502 -0.00147287 0
0.132799 0.00181641 0
0.29233 0.000176773 0
0.987395 -0.0042807 0
0.457359 0.00074114 0
0.925404 -0.00285913 0
0.218782 -0.00160135 0
0.925244 -0.00409185 0
0.287437 0.00323722 0
0.927512 -0.0421764 0
0.424205 -0.00214163 0
0.912034 -0.00451198 0
0.311686 0.000779415 0
0.316299 -0.000107401 0
0.42491 -0.000672735 0
0.842767 -0.00295969 0
0.21657 0.00127451 0
0.914537 -0.0116914 0
0.441033 -0.00515696 0
0.471858 -0.00302443 0
0.495061 8.85332e-05 0
0.956779 0.00545529 0
0.017219 -0.0188735 0
0.484262 -0.00275328 0
0.349626 0.000183328 0
0.505122 0.00193669 0
0.491941 -5.75654e-06 0
0.502344 0.00203326 0
0.437931 0.00759439 0
0.25731 0.000243602 0
0.83384 -0.0178996 0
0.348786 -0.107412 0
0.543562 -0.108544 0
0.438239 0.00277667 0
0.44168 -0.00363296 0
0.255747 0.00496797 0
0.499809 -0.00212851 0