# vtk DataFile Version 3.0
Malha 2D com triângulos: velocidade e pressão
ASCII
DATASET UNSTRUCTURED_GRID

POINTS 4446 double
2 0 0
10 0 0
10 1 0
0 1 0
0 0.5 0
2 0.5 0
2.05 0 0
2.1 0 0
2.15 0 0
2.2 0 0
2.25 0 0
2.3 0 0
2.35 0 0
2.4 0 0
2.45 0 0
2.5 0 0
2.55 0 0
2.6 0 0
2.65 0 0
2.7 0 0
2.75 0 0
2.8 0 0
2.85 0 0
2.9 0 0
2.95 0 0
3 0 0
3.05 0 0
3.1 0 0
3.15 0 0
3.2 0 0
3.25 0 0
3.3 0 0
3.35 0 0
3.4 0 0
3.45 0 0
3.5 0 0
3.55 0 0
3.6 0 0
3.65 0 0
3.7 0 0
3.75 0 0
3.8 0 0
3.85 0 0
3.9 0 0
3.95 0 0
4 0 0
4.05 0 0
4.1 0 0
4.15 0 0
4.2 0 0
4.25 0 0
4.3 0 0
4.35 0 0
4.4 0 0
4.45 0 0
4.5 0 0
4.55 0 0
4.6 0 0
4.65 0 0
4.7 0 0
4.75 0 0
4.8 0 0
4.85 0 0
4.9 0 0
4.95 0 0
5 0 0
5.05 0 0
5.1 0 0
5.15 0 0
5.2 0 0
5.25 0 0
5.3 0 0
5.35 0 0
5.4 0 0
5.45 0 0
5.5 0 0
5.55 0 0
5.6 0 0
5.65 0 0
5.7 0 0
5.75 0 0
5.8 0 0
5.85 0 0
5.9 0 0
5.95 0 0
6 0 0
6.05 0 0
6.1 0 0
6.15 0 0
6.2 0 0
6.25 0 0
6.3 0 0
6.35 0 0
6.4 0 0
6.45 0 0
6.5 0 0
6.55 0 0
6.6 0 0
6.65 0 0
6.7 0 0
6.75 0 0
6.8 0 0
6.85 0 0
6.9 0 0
6.95 0 0
7 0 0
7.05 0 0
7.1 0 0
7.15 0 0
7.2 0 0
7.25 0 0
7.3 0 0
7.35 0 0
7.4 0 0
7.45 0 0
7.5 0 0
7.55 0 0
7.6 0 0
7.65 0 0
7.7 0 0
7.75 0 0
7.8 0 0
7.85 0 0
7.9 0 0
7.95 0 0
8 0 0
8.05 0 0
8.1 0 0
8.15 0 0
8.2 0 0
8.25 0 0
8.3 0 0
8.35 0 0
8.4 0 0
8.45 0 0
8.5 0 0
8.55 0 0
8.6 0 0
8.65 0 0
8.7 0 0
8.75 0 0
8.8 0 0
8.85 0 0
8.9 0 0
8.95 0 0
9 0 0
9.05 0 0
9.1 0 0
9.15 0 0
9.2 0 0
9.25 0 0
9.3 0 0
9.35 0 0
9.4 0 0
9.45 0 0
9.5 0 0
9.55 0 0
9.6 0 0
9.65 0 0
9.7 0 0
9.75 0 0
9.8 0 0
9.85 0 0
9.9 0 0
9.95 0 0
10 0.05 0
10 0.1 0
10 0.15 0
10 0.2 0
10 0.25 0
10 0.3 0
10 0.35 0
10 0.4 0
10 0.45 0
10 0.5 0
10 0.55 0
10 0.6 0
10 0.65 0
10 0.7 0
10 0.75 0
10 0.8 0
10 0.85 0
10 0.9 0
10 0.95 0
9.95 1 0
9.9 1 0
9.85 1 0
9.8 1 0
9.75 1 0
9.7 1 0
9.65 1 0
9.6 1 0
9.55 1 0
9.5 1 0
9.45 1 0
9.4 1 0
9.35 1 0
9.3 1 0
9.25 1 0
9.2 1 0
9.15 1 0
9.1 1 0
9.05 1 0
9 1 0
8.95 1 0
8.9 1 0
8.85 1 0
8.8 1 0
8.75 1 0
8.7 1 0
8.65 1 0
8.6 1 0
8.55 1 0
8.5 1 0
8.45 1 0
8.4 1 0
8.35 1 0
8.3 1 0
8.25 1 0
8.2 1 0
8.15 1 0
8.1 1 0
8.05 1 0
8 1 0
7.95 1 0
7.9 1 0
7.85 1 0
7.8 1 0
7.75 1 0
7.7 1 0
7.65 1 0
7.6 1 0
7.55 1 0
7.5 1 0
7.45 1 0
7.4 1 0
7.35 1 0
7.3 1 0
7.25 1 0
7.2 1 0
7.15 1 0
7.1 1 0
7.05 1 0
7 1 0
6.95 1 0
6.9 1 0
6.85 1 0
6.8 1 0
6.75 1 0
6.7 1 0
6.65 1 0
6.6 1 0
6.55 1 0
6.5 1 0
6.45 1 0
6.4 1 0
6.35 1 0
6.3 1 0
6.25 1 0
6.2 1 0
6.15 1 0
6.1 1 0
6.05 1 0
6 1 0
5.95 1 0
5.9 1 0
5.85 1 0
5.8 1 0
5.75 1 0
5.7 1 0
5.65 1 0
5.6 1 0
5.55 1 0
5.5 1 0
5.45 1 0
5.4 1 0
5.35 1 0
5.3 1 0
5.25 1 0
5.2 1 0
5.15 1 0
5.1 1 0
5.05 1 0
5 1 0
4.95 1 0
4.9 1 0
4.85 1 0
4.8 1 0
4.75 1 0
4.7 1 0
4.65 1 0
4.6 1 0
4.55 1 0
4.5 1 0
4.45 1 0
4.4 1 0
4.35 1 0
4.3 1 0
4.25 1 0
4.2 1 0
4.15 1 0
4.1 1 0
4.05 1 0
4 1 0
3.95 1 0
3.9 1 0
3.85 1 0
3.8 1 0
3.75 1 0
3.7 1 0
3.65 1 0
3.6 1 0
3.55 1 0
3.5 1 0
3.45 1 0
3.4 1 0
3.35 1 0
3.3 1 0
3.25 1 0
3.2 1 0
3.15 1 0
3.1 1 0
3.05 1 0
3 1 0
2.95 1 0
2.9 1 0
2.85 1 0
2.8 1 0
2.75 1 0
2.7 1 0
2.65 1 0
2.6 1 0
2.55 1 0
2.5 1 0
2.45 1 0
2.4 1 0
2.35 1 0
2.3 1 0
2.25 1 0
2.2 1 0
2.15 1 0
2.1 1 0
2.05 1 0
2 1 0
1.95 1 0
1.9 1 0
1.85 1 0
1.8 1 0
1.75 1 0
1.7 1 0
1.65 1 0
1.6 1 0
1.55 1 0
1.5 1 0
1.45 1 0
1.4 1 0
1.35 1 0
1.3 1 0
1.25 1 0
1.2 1 0
1.15 1 0
1.1 1 0
1.05 1 0
1 1 0
0.95 1 0
0.9 1 0
0.85 1 0
0.8 1 0
0.75 1 0
0.7 1 0
0.65 1 0
0.6 1 0
0.55 1 0
0.5 1 0
0.45 1 0
0.4 1 0
0.35 1 0
0.3 1 0
0.25 1 0
0.2 1 0
0.15 1 0
0.1 1 0
0.05 1 0
0 0.95 0
0 0.9 0
0 0.85 0
0 0.8 0
0 0.75 0
0 0.7 0
0 0.65 0
0 0.6 0
0 0.55 0
0.05 0.5 0
0.1 0.5 0
0.15 0.5 0
0.2 0.5 0
0.25 0.5 0
0.3 0.5 0
0.35 0.5 0
0.4 0.5 0
0.45 0.5 0
0.5 0.5 0
0.55 0.5 0
0.6 0.5 0
0.65 0.5 0
0.7 0.5 0
0.75 0.5 0
0.8 0.5 0
0.85 0.5 0
0.9 0.5 0
0.95 0.5 0
1 0.5 0
1.05 0.5 0
1.1 0.5 0
1.15 0.5 0
1.2 0.5 0
1.25 0.5 0
1.3 0.5 0
1.35 0.5 0
1.4 0.5 0
1.45 0.5 0
1.5 0.5 0
1.55 0.5 0
1.6 0.5 0
1.65 0.5 0
1.7 0.5 0
1.75 0.5 0
1.8 0.5 0
1.85 0.5 0
1.9 0.5 0
1.95 0.5 0
2 0.45 0
2 0.4 0
2 0.35 0
2 0.3 0
2 0.25 0
2 0.2 0
2 0.15 0
2 0.1 0
2 0.05 0
8.06901 0.0475538 0
8.325 0.0433013 0
8.5778 0.0458014 0
8.82429 0.0439083 0
9.07419 0.0439501 0
9.32668 0.0423312 0
2.52305 0.0454918 0
2.77689 0.0448719 0
3.03156 0.0475213 0
3.275 0.0433013 0
3.52783 0.046061 0
3.77734 0.0419476 0
4.02193 0.0449251 0
4.27574 0.0411379 0
4.51872 0.0475373 0
4.77366 0.0452037 0
5.02823 0.0477302 0
5.28216 0.0475085 0
5.52561 0.042443 0
5.77807 0.0457743 0
6.02204 0.0398462 0
6.275 0.0433013 0
6.52722 0.0433483 0
6.7694 0.0475769 0
7.02447 0.0444581 0
7.27783 0.0459092 0
7.525 0.0422557 0
7.77439 0.0449567 0
9.47482 0.955851 0
7.92156 0.955313 0
8.92621 0.955339 0
8.6726 0.954294 0
8.4177 0.952733 0
8.17636 0.955341 0
9.18107 0.952451 0
7.62679 0.954643 0
7.37196 0.952257 0
7.12614 0.955845 0
3.87534 0.956427 0
3.62815 0.964359 0
3.3803 0.953593 0
3.1253 0.955556 0
2.87002 0.954607 0
2.62024 0.955051 0
6.875 0.956699 0
6.62158 0.953907 0
6.37338 0.966022 0
6.12637 0.95588 0
5.87571 0.962803 0
5.63078 0.952434 0
5.37535 0.952003 0
5.12127 0.952304 0
4.86862 0.952521 0
4.62578 0.955705 0
4.37079 0.954984 0
4.12695 0.957826 0
9.9567 0.475 0
2.0433 0.475 0
9.5296 0.0476387 0
2.42792 0.954045 0
9.6779 0.95509 0
2.325 0.0433013 0
2.2283 0.953914 0
9.9567 0.675 0
9.9567 0.275 0
9.32845 0.954186 0
9.67655 0.0441506 0
7.92165 0.0458031 0
7.77434 0.95569 0
2.0433 0.325 0
2.04553 0.525 0
2.08697 0.5 0
1.87257 0.958837 0
1.625 0.956699 0
1.375 0.956699 0
1.12941 0.952349 0
0.87452 0.955201 0
0.619903 0.952393 0
0.37732 0.956691 0
2.08704 0.55 0
2.12994 0.525 0
0.775 0.542289 0
0.272435 0.545784 0
1.77201 0.544618 0
0.526526 0.544252 0
1.225 0.543301 0
1.47794 0.547751 0
1.025 0.543301 0
2.04598 0.575 0
1.62477 0.54405 0
0.227667 0.957986 0
2.12998 0.575 0
2.17322 0.55 0
2.17321 0.5 0
2.21651 0.525 0
2.21651 0.475 0
2.25981 0.5 0
2.25981 0.55 0
2.30311 0.525 0
2.30311 0.475 0
2.34641 0.5 0
2.34641 0.45 0
2.38971 0.475 0
2.38971 0.525 0
2.43301 0.5 0
2.43301 0.55 0
2.47631 0.525 0
2.47631 0.475 0
2.51962 0.5 0
2.51962 0.45 0
2.56292 0.475 0
2.56292 0.525 0
2.60622 0.5 0
2.60622 0.55 0
2.64952 0.525 0
2.64952 0.475 0
2.69282 0.5 0
2.69282 0.55 0
2.73612 0.525 0
2.73612 0.475 0
2.77942 0.5 0
2.77942 0.45 0
2.82272 0.475 0
2.82272 0.525 0
2.86603 0.5 0
2.86603 0.55 0
2.90933 0.525 0
2.90933 0.475 0
2.95263 0.5 0
2.95263 0.55 0
2.99593 0.525 0
2.99593 0.475 0
3.03923 0.5 0
3.03923 0.45 0
3.08253 0.475 0
3.08253 0.525 0
3.12583 0.5 0
3.12583 0.55 0
3.16913 0.525 0
3.16913 0.475 0
3.21244 0.5 0
3.21244 0.55 0
3.25574 0.525 0
3.25574 0.475 0
3.29904 0.5 0
3.29904 0.45 0
3.34234 0.475 0
3.34234 0.525 0
3.38564 0.5 0
3.38564 0.55 0
3.42894 0.525 0
3.42894 0.475 0
3.47224 0.5 0
3.47224 0.55 0
3.51554 0.525 0
3.51554 0.475 0
3.55885 0.5 0
3.55885 0.45 0
3.60215 0.475 0
3.60215 0.525 0
3.64545 0.5 0
3.64545 0.55 0
3.68875 0.525 0
3.68875 0.475 0
3.73205 0.5 0
3.73205 0.45 0
3.77535 0.475 0
3.77535 0.525 0
3.81865 0.5 0
3.81865 0.45 0
3.86195 0.475 0
3.86195 0.525 0
3.90526 0.5 0
3.90526 0.55 0
3.94856 0.525 0
3.94856 0.475 0
3.99186 0.5 0
3.99186 0.45 0
4.03516 0.475 0
4.03516 0.525 0
4.07846 0.5 0
4.07846 0.45 0
4.12176 0.475 0
4.12176 0.525 0
4.16506 0.5 0
4.16506 0.55 0
4.20836 0.525 0
4.20836 0.475 0
4.25167 0.5 0
4.25167 0.45 0
4.29497 0.475 0
4.29497 0.525 0
4.33827 0.5 0
4.33827 0.45 0
4.38157 0.475 0
4.38157 0.525 0
4.42487 0.5 0
4.42487 0.55 0
4.46817 0.525 0
4.46817 0.475 0
4.51147 0.5 0
4.51147 0.45 0
4.55477 0.475 0
4.55477 0.525 0
4.59808 0.5 0
4.59808 0.45 0
4.64138 0.475 0
4.64138 0.525 0
4.68468 0.5 0
4.68468 0.55 0
4.72798 0.525 0
4.72798 0.475 0
4.77128 0.5 0
4.77128 0.45 0
4.81458 0.475 0
4.81458 0.525 0
4.85788 0.5 0
4.85788 0.55 0
4.90119 0.525 0
4.90119 0.475 0
4.94449 0.5 0
4.94449 0.55 0
4.98779 0.525 0
4.98779 0.475 0
5.03109 0.5 0
5.03109 0.45 0
5.07439 0.475 0
5.07439 0.525 0
5.11769 0.5 0
5.11769 0.55 0
5.16099 0.525 0
5.16099 0.475 0
5.20429 0.5 0
5.20429 0.55 0
5.2476 0.525 0
5.2476 0.475 0
5.2909 0.5 0
5.2909 0.45 0
5.3342 0.475 0
5.3342 0.525 0
5.3775 0.5 0
5.3775 0.55 0
5.4208 0.525 0
5.4208 0.475 0
5.4641 0.5 0
5.4641 0.55 0
5.5074 0.525 0
5.5074 0.475 0
5.5507 0.5 0
5.5507 0.45 0
5.59401 0.475 0
5.59401 0.525 0
5.63731 0.5 0
5.63731 0.55 0
5.68061 0.525 0
5.68061 0.475 0
5.72391 0.5 0
5.72391 0.55 0
5.76721 0.525 0
5.76721 0.475 0
5.81051 0.5 0
5.81051 0.45 0
5.85381 0.475 0
5.85381 0.525 0
5.89711 0.5 0
5.89711 0.55 0
5.94042 0.525 0
5.94042 0.475 0
5.98372 0.5 0
5.98372 0.45 0
6.02702 0.475 0
6.02702 0.525 0
6.07032 0.5 0
6.07032 0.45 0
6.11362 0.475 0
6.11362 0.525 0
6.15692 0.5 0
6.15692 0.55 0
6.20022 0.525 0
6.20022 0.475 0
6.24352 0.5 0
6.24352 0.45 0
6.28683 0.475 0
6.28683 0.525 0
6.33013 0.5 0
6.33013 0.45 0
6.37343 0.475 0
6.37343 0.525 0
6.41673 0.5 0
6.41673 0.55 0
6.46003 0.525 0
6.46003 0.475 0
6.50333 0.5 0
6.50333 0.45 0
6.54663 0.475 0
6.54663 0.525 0
6.58993 0.5 0
6.58993 0.45 0
6.63324 0.475 0
6.63324 0.525 0
6.67654 0.5 0
6.67654 0.55 0
6.71984 0.525 0
6.71984 0.475 0
6.76314 0.5 0
6.76314 0.45 0
6.80644 0.475 0
6.80644 0.525 0
6.84974 0.5 0
6.84974 0.45 0
6.89304 0.475 0
6.89304 0.525 0
6.93634 0.5 0
6.93634 0.55 0
6.97965 0.525 0
6.97965 0.475 0
7.02295 0.5 0
7.02295 0.45 0
7.06625 0.475 0
7.06625 0.525 0
7.10955 0.5 0
7.10955 0.55 0
7.15285 0.525 0
7.15285 0.475 0
7.19615 0.5 0
7.19615 0.55 0
7.23945 0.525 0
7.23945 0.475 0
7.28275 0.5 0
7.28275 0.45 0
7.32606 0.475 0
7.32606 0.525 0
7.36936 0.5 0
7.36936 0.55 0
7.41266 0.525 0
7.41266 0.475 0
7.45596 0.5 0
7.45596 0.55 0
7.49926 0.525 0
7.49926 0.475 0
7.54256 0.5 0
7.54256 0.45 0
7.58586 0.475 0
7.58586 0.525 0
7.62917 0.5 0
7.62917 0.55 0
7.67247 0.525 0
7.67247 0.475 0
7.71577 0.5 0
7.71577 0.55 0
7.75907 0.525 0
7.75907 0.475 0
7.80237 0.5 0
7.80237 0.55 0
7.84567 0.525 0
7.84567 0.475 0
7.88897 0.5 0
7.88897 0.55 0
7.93227 0.525 0
7.93227 0.475 0
7.97558 0.5 0
7.97558 0.55 0
8.01888 0.525 0
8.01888 0.475 0
8.06218 0.5 0
8.06218 0.45 0
8.10548 0.475 0
8.10548 0.525 0
8.14878 0.5 0
8.14878 0.45 0
8.19208 0.475 0
8.19208 0.525 0
8.23538 0.5 0
8.23538 0.55 0
8.27868 0.525 0
8.27868 0.475 0
8.32199 0.5 0
8.32199 0.45 0
8.36529 0.475 0
[...]
CELL_DATA 8450
VECTORS velocity double
0.115798 -0.00155233 0
0.25803 0.00222839 0
0.149357 -0.00308656 0
0.208501 -0.0016717 0
0.0520865 0.00068516 0
0.0925792 -0.00269132 0
0.302321 0.00433483 0
0.139411 0.000966501 0
0.140866 0.000835619 0
-0.0317898 0.00013001 0
0.114105 0.00269098 0
0.111327 -0.00153721 0
0.116358 0.00237188 0
0.230051 -0.012946 0
-0.0691236 -0.00394971 0
0.135495 -0.00115611 0
0.489003 -0.0241277 0
0.197452 -0.000315348 0
-0.021884 0.00706576 0
0.227292 -0.00946548 0
0.0444316 -0.00733078 0
0.230023 0.0101688 0
0.138028 -0.00215327 0
0.102416 -0.000344062 0
0.0726513 0.00193041 0
0.133946 0.00123299 0
0.135192 -0.00183897 0
0.216678 -0.00323992 0
0.110736 -0.000108366 0
0.134529 0.000970192 0
0.137344 0.000536949 0
0.113849 0.000530538 0
0.13756 3.67439e-05 0
0.0577757 -0.00203215 0
0.103627 0.00051045 0
0.11383 0.00137535 0
0.112052 0.000125947 0
0.0563165 1.05416e-05 0
0.290806 -0.0118562 0
0.111041 -0.000382576 0
0.115981 0.000437343 0
0.142969 -0.00149822 0
0.0892437 0.00185448 0
0.109495 0.00160432 0
0.149413 0.00273954 0
0.566464 -0.022467 0
-0.0313369 0.0108979 0
0.210245 -9.21772e-06 0
0.117081 5.80136e-05 0
0.0976504 -0.00227606 0
0.12128 -1.75352e-05 0
0.115972 -0.000590816 0
0.447678 -0.00189217 0
0.115326 0.00102488 0
0.128995 -0.00296567 0
0.0198227 -0.0105615 0
0.435808 -0.00172209 0
0.423542 -0.00304465 0
0.111613 -0.00140342 0
0.747437 -0.00158577 0
0.119044 -0.000681824 0
0.211329 0.00060846 0
0.0516151 -0.0090973 0
0.110097 -0.00052334 0
0.0894312 -0.00228799 0
0.430468 0.0055653 0
0.0881901 0.00039828 0
0.116424 -0.00076989 0
0.109302 -8.77772e-05 0
0.105649 -0.000681247 0
0.143518 -0.0059768 0
-0.0524473 -0.00201586 0
0.136718 -0.00163458 0
0.107062 0.000867603 0
0.113921 -3.60603e-05 0
0.138991 0.00146023 0
-0.061224 0.0031579 0
0.144014 -0.00180103 0
-0.00824676 -0.00606492 0
0.214884 0.00278732 0
0.114213 0.000697845 0
0.110787 0.000249581 0
0.105732 -0.00109763 0
0.407178 0.00388864 0
0.0870771 -0.00128472 0
0.0607393 -0.00446694 0
0.423791 -0.0049036 0
0.113673 -0.002283 0
0.110691 -0.000223701 0
0.108812 0.000851712 0
0.352812 -0.0100613 0
0.424184 -0.00447153 0
0.126547 0.00151162 0
0.106594 0.00081077 0
0.132535 0.00355046 0
0.727699 -0.00539846 0
0.0550894 -0.0012833 0
0.107192 -0.000358144 0
0.140287 0.00218592 0
0.128869 -0.000508102 0
0.131697 0.00185412 0
0.0881979 1.29764e-05 0
0.500532 -0.00231718 0
0.134602 -0.00189762 0
0.236007 -0.0159361 0
0.284568 0.00663698 0
0.136512 0.00163333 0
0.138633 -0.00185331 0
0.138057 -0.00021516 0
0.139642 -0.00141729 0
0.0862396 0.00184851 0
0.0867549 -0.00171426 0
0.211166 0.000547371 0
0.0887763 -0.0021727 0
0.429889 0.00103724 0
0.115265 0.000207551 0
0.213171 -0.000140353 0
0.485769 -0.00593029 0
0.10923 -0.00024786 0
0.113985 0.000952343 0
0.137657 -0.00188374 0
0.134609 0.00108217 0
0.108775 0.0025984 0
0.102928 7.7477e-05 0
0.139054 0.0022882 0
0.116854 0.000504107 0
0.0617825 0.000223451 0
0.103369 -0.00185077 0
0.110269 -0.00045082 0
0.400731 -0.0137238 0
0.136725 0.000266523 0
0.042097 -0.00125533 0
0.10606 -0.00460701 0
0.134906 0.00465725 0
0.213764 -0.00206848 0
0.307411 0.00838636 0
0.936566 -0.00788785 0
0.352399 -0.0213489 0
0.53369 -0.0122716 0
0.20987 -0.00106356 0
0.0941515 0.00130873 0
0.0576593 6.8249e-05 0
0.0941722 -0.00695816 0
0.507566 -0.00401707 0
0.320659 -0.00514401 0
0.725268 -0.00722487 0
0.865611 -0.00111487 0
0.171571 -0.000682177 0
0.0607104 0.000128732 0
0.128791 -0.000686062 0
0.112325 -0.00236733 0
0.140432 0.00193253 0
0.208717 0.000840071 0
0.112781 0.00256204 0
0.133469 -0.000406927 0
0.214502 -0.000241535 0
0.134861 0.000598778 0
0.0805008 0.000689767 0
0.00962205 -0.00435501 0
0.203924 -0.000762603 0
0.114005 0.00239947 0
0.143449 -0.00152466 0
-0.0555763 0.00363974 0
-0.0263933 -0.00857223 0
0.488886 -0.00266764 0
0.0317646 0.00202308 0
0.140672 -0.00132212 0
0.134723 0.00250294 0
0.146804 0.00164645 0
-0.0180677 -0.000260338 0
0.205185 -0.000484003 0
0.754179 0.000371064 0
0.245936 -0.00230814 0
0.958021 -0.00965926 0
0.132915 -0.00266418 0
0.0944092 0.00231061 0
0.0874487 0.00333348 0
0.267653 -0.0148311 0
-0.0744546 0.00123258 0
0.4215 0.00179737 0
0.13167 -0.00627102 0
0.321191 0.000355495 0
0.137001 -0.000873408 0
0.129485 -0.00128569 0
0.134622 0.00252884 0
0.0565548 0.000156687 0
0.517452 -0.00443751 0
0.412188 -0.0025741 0
0.926314 -0.0178034 0
0.126854 0.000333227 0
0.135441 -0.00264174 0
0.0342143 -0.00151541 0
0.091929 0.00340163 0
0.133707 -0.00244867 0
0.50349 0.00383001 0
0.224375 0.00419369 0
0.0324173 0.000112181 0
0.0334063 -0.00119938 0
0.133837 0.00657577 0
0.0980988 0.00229541 0
0.480671 0.00825596 0
0.133222 -0.00202155 0
0.129989 -0.000993004 0
0.140071 0.000334247 0
0.290185 -0.00661481 0
0.128906 -0.000745853 0
0.139901 -0.000301859 0
0.501246 -0.000246934 0
0.110734 -0.000646684 0
0.505983 0.00320871 0
0.356623 0.00870983 0
0.482384 -0.00756176 0
0.14022 0.00117314 0
0.503517 0.00626623 0
0.141067 -0.000286043 0
0.201568 -0.000626093 0
0.131381 0.00139369 0
0.125225 1.81395e-05 0
0.133531 0.000620643 0
0.21393 -0.00364129 0
0.136657 0.00110503 0
0.0960558 0.00209808 0
0.0978141 -0.00264459 0
0.109858 0.000214488 0
0.0325256 -0.00137745 0
0.127266 -0.00182999 0
0.176587 0.00129338 0
0.136082 -0.00106976 0
0.268729 -0.0140423 0
0.119624 -0.0026856 0
0.51632 0.00323932 0
0.248254 -0.0123456 0
-0.0740822 -0.00109475 0
0.936121 -0.00207682 0
0.136935 0.00200992 0
0.734516 0.00648537 0
0.16451 -0.0109316 0
0.0336833 -0.000744297 0
0.0955902 -0.00384 0
0.0971095 -0.00245229 0
0.0926251 0.00227057 0
0.0561883 -7.15186e-05 0
0.518644 0.00291292 0
-0.0716784 0.00392061 0
0.214647 0.00417847 0
0.825131 -0.00776422 0
0.0320689 -0.000527488 0
0.132424 0.000109132 0
0.74795 0.00245914 0
0.987402 0.000301256 0
0.737428 -0.00633797 0
0.2793 0.000834506 0
0.12945 -0.00225839 0
0.144475 -0.00169436 0
0.0335626 0.000589869 0
0.133804 -0.000737782 0
0.0982778 6.99181e-05 0
-0.0397011 -0.00779944 0
0.490453 -0.000468101 0
-0.0107188 -0.0086344 0
0.0251723 -0.00104049 0
0.135286 0.000403265 0
0.909848 0.00363218 0
0.137131 -0.00215136 0
0.132405 0.000165658 0
0.140175 -0.00258164 0
0.140943 0.00627098 0
0.136245 -0.000378851 0
0.928025 0.000304461 0
0.130516 0.00073237 0
0.133946 -0.000426998 0
0.134496 -0.00300169 0
0.128914 0.00224317 0
0.133405 -0.00174348 0
0.366588 -0.0337863 0
0.139915 -0.000304349 0
0.0329714 -0.00055885 0
0.137799 0.00277315 0
0.99119 0.000790161 0
0.91041 -0.000684342 0
0.171226 -0.0017167 0
0.126061 -0.000815606 0
0.133973 -0.00311127 0
0.126421 -0.00166497 0
0.484011 -0.00179239 0
0.631097 -0.00355306 0
0.259046 0.00119429 0
0.136557 0.00213575 0
0.135815 -0.000533925 0
0.132666 5.98296e-05 0
0.135109 0.00291405 0
0.1394 -0.00141875 0
0.106618 6.97873e-05 0
0.0794618 -0.00923083 0
0.499794 -0.00794156 0
0.0326026 -0.00063916 0
0.0675502 -0.00488943 0
0.370296 -0.0081856 0
0.497375 -0.0028819 0
0.623088 -0.00567716 0
0.136015 -0.00319204 0
0.137143 -0.00331908 0
0.1189 0.00537088 0
0.135141 0.00216057 0
0.455439 0.005204 0
0.294639 0.00079199 0
0.130894 -0.00151629 0
0.851607 -0.00715227 0
0.508551 -0.00701735 0
0.131665 0.00017191 0
0.604942 -0.0468785 0
0.423617 -0.015678 0
0.414717 -0.0085697 0
0.0255988 -0.00214172 0
0.138106 -0.00180537 0
0.0908451 -0.00202403 0
0.480822 0.0094993 0
0.132076 -0.00221411 0
0.130943 0.00240886 0
0.0895398 0.00164861 0
0.034236 -0.0012266 0
0.0340684 0.000844868 0
0.0346365 -0.00157373 0
0.267895 -0.0161056 0
0.0350091 0.00201366 0
0.0328056 0.00176694 0
0.127351 -0.000498107 0
0.130218 0.00139892 0
0.137096 0.00109363 0
0.133813 0.000199169 0
0.294063 0.00245544 0
0.1065 -2.29803e-05 0
0.138412 0.000563429 0
0.301931 0.00189151 0
0.0961908 0.00204277 0
0.108489 -0.00466512 0
0.0719006 -0.00657446 0
0.498333 0.000773994 0
0.110639 0.00318094 0
0.149797 -0.0053285 0
0.0471558 0.000284301 0
0.0470309 2.80298e-05 0
0.0395664 0.000536696 0
0.209664 -0.000868731 0
0.0528865 -0.000299434 0
0.0530954 0.000454555 0
0.0498293 -0.000282637 0
0.0506793 7.29627e-05 0
0.0468633 0.000292681 0
0.0533293 0.00135385 0
0.0499292 0.00038271 0
0.273579 -0.0163339 0
0.494488 0.00213886 0
0.0950762 -0.00258574 0
0.551708 -0.0718231 0
0.0991574 -0.000873529 0
0.132469 -0.00191104 0
0.131097 0.00179474 0
0.834195 -0.00420337 0
0.649601 0.0083955 0
0.498739 0.00377466 0
0.834846 0.00628736 0
0.169546 -0.00202454 0
0.139937 0.000143754 0
0.132637 0.00244083 0
0.128019 -0.00043212 0
0.143248 0.00124274 0
0.152659 -0.000536417 0
0.127133 6.35337e-05 0
0.129961 -0.0011531 0
0.948652 -0.0169287 0
0.0945464 -0.00162779 0
0.228243 -0.0124034 0
-0.0714664 -0.00212495 0
0.0510918 -0.00343407 0
0.1358 0.000228723 0
0.129325 0.00165276 0
0.194788 -0.000543787 0
0.155546 -0.00873178 0
-0.00100227 -0.0106225 0
0.128363 -0.000403614 0
0.133034 0.00109485 0
0.241783 -0.00118581 0
0.197831 -0.0112647 0
-0.0636004 -0.00416641 0
0.467124 0.00221385 0
0.102285 0.000218767 0
0.500109 -0.000511169 0
0.133064 0.00212029 0
0.125865 0.00138304 0
0.130936 -0.00190377 0
0.117365 -0.00240262 0
0.148715 -0.00113841 0
0.111981 -0.000944225 0
0.163857 0.00397056 0
0.721009 0.00489543 0
-0.0674379 0.00456014 0
-0.027632 -0.004731 0
0.365554 0.00834994 0
0.119134 -0.00127343 0
0.031636 -0.00921117 0
0.490221 -0.000286811 0
0.109094 -0.000259126 0
0.288286 0.000310827 0
0.336417 0.00772425 0
0.0682317 0.00128105 0
0.138356 -0.000502122 0
0.144708 -0.0016546 0
0.517416 -5.70291e-05 0
0.179816 -0.00143757 0
0.0877215 -0.00104145 0
0.193665 -0.00235322 0
0.820666 -0.005809 0
0.24888 -0.00952169 0
0.136219 -0.00227806 0
0.168342 0.00223323 0
-0.0460902 0.00754088 0
0.130554 0.000780174 0
0.124611 0.00128156 0
0.136954 -0.00215009 0
0.138745 0.00227469 0
0.1321 0.00308931 0
0.125296 2.7947e-05 0
0.127974 0.0027144 0
0.842701 0.00551163 0
0.0667592 -0.000886121 0
1.00195 0.00114727 0
0.842397 -0.00496005 0
0.960974 -0.00101684 0
0.1419 0.00317918 0
0.140226 0.00275038 0
0.142676 -0.00318344 0
0.485296 0.00397761 0
0.137289 0.00205836 0
0.127434 0.00183679 0
0.128138 -0.00190698 0
0.488309 0.00612167 0
0.100021 0.000325047 0
0.130562 -0.0019458 0
0.102881 -0.00040179 0
-0.018727 0.0118406 0
0.840075 0.00609625 0
0.843238 0.0032205 0
0.636479 0.00769605 0
0.629953 0.00411911 0
0.182233 -0.00462244 0
-0.0594136 0.00181885 0
0.140447 -0.00337479 0
0.129679 -0.00174623 0
0.0603732 -0.000101525 0
0.0687064 -0.0011573 0
0.576871 -0.0155635 0
-0.044052 0.00982635 0
0.622822 -0.0119526 0
0.099379 0.00185688 0
0.0918126 -0.00337637 0
0.125762 -0.000287082 0
0.328416 -0.0279278 0
0.1369 -0.00705194 0
0.126384 -0.000974223 0
0.619447 0.00368085 0
0.130101 0.000826691 0
0.104085 -0.000583649 0
0.131267 0.00151781 0
0.0861558 0.000557152 0
0.107837 0.001205 0
0.0987511 0.000567878 0
0.125421 -0.00235188 0
0.961827 0.00306256 0
0.998829 0.00048144 0
0.957085 0.00224548 0
0.959284 -0.00099951 0
0.840122 -0.00310768 0
0.167513 -0.00841224 0
-0.0450954 -0.00657754 0
0.475147 -0.00196079 0
0.284515 -0.0210041 0
0.138487 -0.00214947 0
0.224357 0.00136212 0
0.0691479 0.00131177 0
0.0426644 -0.0120121 0
0.453049 -0.00150262 0
0.465031 -0.000491028 0
0.233605 0.00108204 0
0.267256 0.00538763 0
0.390334 -0.00145775 0
0.46441 0.00243706 0
0.450513 0.000802838 0
0.500688 0.000685643 0
0.496487 0.000255184 0
0.364268 0.000502388 0
0.388632 0.00369731 0
0.500924 0.000271912 0
0.307125 0.00614926 0
0.335448 0.00240889 0
0.414906 0.00446437 0
0.431861 0.00238768 0
0.488759 0.00163348 0
0.479526 0.00293008 0
0.479205 0.000957214 0
0.362073 -0.00203005 0
0.13236 0.000397289 0
0.0916011 -0.00192972 0
0.246015 -0.00296709 0
0.147148 -0.00100333 0
0.0956833 -0.00815212 0
0.348766 -0.0259101 0
0.144919 0.000452297 0
0.065438 0.00127717 0
0.182056 0.00221683 0
0.521869 -0.00466956 0
0.146735 0.00271204 0
0.843096 -0.00509244 0
0.693701 -0.00308615 0
0.101567 -0.00350499 0
0.368964 0.00717337 0
0.835148 0.0095593 0
0.133703 -0.0003257 0
0.860486 -0.00356793 0
0.3161 -0.0209041 0
0.133848 0.00189938 0
0.0950205 0.00184476 0
0.0997434 -0.00172141 0
0.131004 -0.00101257 0
0.317866 0.000547873 0
0.927107 -0.00847091 0
0.907126 0.00444758 0
0.144676 -0.000723339 0
0.263278 -0.00561264 0
0.0917505 -0.00177034 0
0.102999 0.00227562 0
0.160595 -0.00442578 0
0.132929 -0.00117172 0
0.156526 0.00568656 0
0.191732 -0.000569387 0
0.151685 0.00277321 0
0.592201 -0.0144645 0
0.112601 -0.000481328 0
0.105649 0.00107518 0
0.298384 0.00719123 0
0.383573 -0.0067495 0
0.131174 -0.000900474 0
0.253069 0.00204019 0
0.742476 0.00642924 0
0.348977 -0.00116574 0
0.402802 -0.000512019 0
0.503037 0.000278626 0
0.140415 0.00263332 0
0.484921 0.000326984 0
0.282763 0.00433454 0
0.418807 -0.00704557 0
0.567811 -0.00968517 0
0.16763 -0.00541448 0
0.0897532 0.00188884 0
0.0975103 -0.00232453 0
0.0981222 0.000450814 0
0.0989279 -0.000222897 0
0.081717 0.00121391 0
0.107086 -0.00076299 0
0.114497 0.00119573 0
0.398756 -0.00218119 0
0.103485 -0.00103305 0
0.103722 0.000600322 0
0.100468 0.000101083 0
0.100509 0.00128418 0
0.0944043 0.000765627 0
0.105499 0.00164483 0
0.100796 0.000227521 0
0.295191 0.00181305 0
0.176508 0.00335023 0
0.181756 0.0039764 0
0.143607 -0.0026424 0
0.317801 0.00149674 0
0.10034 -0.00275483 0
0.142889 0.000990484 0
0.185132 -0.00166173 0
0.130335 0.00010709 0
0.119124 -0.000991841 0
0.147184 0.00304984 0
0.488807 0.000597863 0
0.260526 -0.00970643 0
0.395478 -0.00928722 0
0.175966 -0.00873356 0
-0.0588473 -0.000989139 0
0.955501 -0.00272128 0
0.217758 -0.00310028 0
0.114959 -0.0022988 0
0.110837 -0.00214827 0
0.145924 0.000773995 0
0.140368 -0.00125634 0
0.103598 -0.000488991 0
0.176098 -0.00301087 0
0.175621 -0.00241117 0
0.124987 -0.000270932 0
0.128668 0.000512336 0
0.136279 0.00192285 0
0.270655 -0.0171031 0
0.138632 -0.00235504 0
0.533483 0.00451135 0
0.144861 0.0046261 0
0.141313 0.000138581 0
0.497482 -0.000189044 0
0.140626 0.0005003 0
0.3212 -0.0167157 0
0.138176 0.00120701 0
0.12732 0.00254642 0
0.522156 0.00797208 0
0.112842 0.00410052 0
0.526951 -0.00547571 0
0.833725 -0.00469861 0
0.144819 -0.00126333 0
0.860191 -0.00539039 0
0.135917 -0.00137358 0
0.117221 -0.00172878 0
0.0116915 -0.00930298 0
0.527092 -0.000785465 0
-0.0320808 -0.00336472 0
0.358781 -0.00337496 0
0.131468 0.00137788 0
0.140665 -0.00125906 0
0.25023 0.000993857 0
0.133972 0.000168531 0
-0.0758605 0.00196525 0
0.124781 -0.000168109 0
0.670255 -0.00527919 0
0.126987 0.00404774 0
0.197029 -0.00734748 0
0.135232 0.000574081 0
0.17733 0.000944239 0
0.177728 0.00140805 0
0.0632117 -0.0120866 0
0.50136 -0.00561585 0
0.952316 -0.00119768 0
-0.0214964 -0.00980503 0
0.501726 -0.00441922 0
0.134973 -0.00150255 0
0.136152 0.000503389 0
0.0988129 0.00206678 0
0.14393 -0.00150047 0
0.138144 0.00211201 0
0.134209 -6.46385e-05 0
0.132777 -0.000195165 0
0.136416 0.00114542 0
0.587555 -0.0391483 0
0.404796 -0.0162043 0
0.44592 -0.0113954 0
0.138958 0.00430094 0
0.139456 -0.00331271 0
0.106425 -0.00301869 0
0.0898013 -0.00643217 0
0.509198 -0.000340888 0
0.252128 0.00134739 0
0.321961 0.00292999 0
0.252663 0.000410481 0
0.14625 -0.000917015 0
0.100905 0.00255892 0
0.105389 0.00228071 0
0.105494 -0.00176519 0
0.188802 -0.000134772 0
0.456307 -0.0185619 0
0.912187 -0.00103408 0
0.214827 -0.0136295 0
0.131684 -0.00434907 0
0.0945974 -0.000993544 0
0.0970418 0.000704331 0
0.180573 0.000541149 0
0.615353 0.00705467 0
0.644545 -0.00283345 0
0.183993 0.0020711 0
0.174264 0.0012394 0
0.914796 -0.00243585 0
0.0546181 -0.000615104 0
0.252279 0.000904825 0
0.284325 0.00150149 0
0.303421 -0.0192428 0
0.10517 -0.00130862 0
0.967536 -0.00128855 0
0.057716 -0.000398652 0
0.142384 0.000558366 0
0.918062 -0.00322123 0
0.465996 -0.0199722 0
-0.0315297 0.00559776 0
0.0913488 0.000797125 0
0.844155 -0.00975669 0
0.116112 0.00135323 0
0.294191 0.00126904 0
0.170488 -0.00032672 0
0.179602 0.00118671 0
0.0988624 -0.00175461 0
0.214545 0.000732331 0
0.286629 0.00130373 0
0.104607 -0.000187329 0
0.661848 -0.0219887 0
0.137081 0.000888381 0
0.175472 -0.00210878 0
0.179156 -0.00194785 0
0.326679 -0.0231274 0
-0.0817413 -0.00462881 0
0.382576 0.00574491 0
0.317971 0.000662852 0
0.0540336 -0.00136571 0
0.0579483 0.000646056 0
0.170638 2.5276e-05 0
0.101704 -0.000863036 0
0.18086 0.00329423 0
0.259377 0.00174544 0
0.755443 -0.00323571 0
0.171198 -0.00114325 0
0.847991 -0.00380162 0
0.172798 -0.000836045 0
0.0318916 -0.00595029 0
0.849015 -0.00341586 0
0.970153 -0.00236052 0
0.907745 -0.00313238 0
0.956137 0.00342539 0
0.642705 0.00438245 0
0.217234 0.000732688 0
0.170741 -0.000296771 0
0.174088 -0.000534827 0
0.192832 5.95397e-05 0
0.111537 0.00177824 0
0.213713 -0.0117962 0
0.388344 -0.0301597 0
0.0571328 0.000935194 0
0.915035 -0.0014918 0
0.0622258 0.000476266 0
0.0940385 0.00138691 0
0.191496 8.9133e-05 0
0.112538 0.00141449 0
0.730834 0.0115441 0
0.64539 -0.00392515 0
0.752243 -0.00302373 0
0.18891 0.00207274 0
0.171999 0.00106682 0
0.187879 0.0020423 0
0.945576 -0.0256645 0
0.987601 0.00317692 0
0.988835 0.00303896 0
0.90898 0.00372717 0
0.25753 0.00064597 0
0.210403 0.00103037 0
0.176522 -0.00315073 0
0.15655 -0.00421732 0
0.147341 -0.00696789 0
0.239387 -0.0031676 0
0.101464 -0.00149235 0
0.317776 -0.00599516 0
0.188004 0.00186409 0
0.131546 0.00168147 0
0.124468 -0.000302923 0
0.259212 0.00106477 0
0.175316 -0.000690474 0
0.208437 0.000491882 0
0.963241 -0.000980287 0
0.107915 -0.00155565 0
0.632688 0.00445258 0
0.625134 -0.000764728 0
0.171744 -0.00752993 0
0.261326 0.00121802 0
0.149253 0.000308673 0
0.846357 -0.00317688 0
0.51397 -0.000430962 0
0.101945 0.00242699 0
0.326611 0.00095734 0
0.0983189 -0.000796293 0
0.325811 0.000853232 0
0.496217 0.00725984 0
0.326202 0.000912755 0
0.356948 0.00120249 0
0.293485 0.000568936 0
0.189859 -0.00134705 0
0.282667 0.000437359 0
0.246657 0.000335283 0
0.283264 0.000240768 0
0.409545 0.00174445 0
0.409298 0.00166958 0
0.384798 0.00149984 0
0.292825 0.000652189 0
1.00078 -0.0020596 0
0.969207 -0.0028973 0
0.749941 0.00549977 0
0.997493 -0.00180343 0
0.909189 -0.00399231 0
0.839663 0.00613504 0
0.255129 0.00546343 0
0.9721 -0.00309863 0
0.215103 0.00430979 0
0.933332 -0.0337845 0
0.969814 -0.0213497 0
0.837671 0.00570543 0
0.964259 -0.00476217 0
0.28653 0.00531186 0
0.962196 -0.00562677 0
0.927014 -0.0192281 0
0.970939 -0.00358581 0
0.214037 0.00195754 0
0.50213 0.00137585 0
0.922596 -0.0156189 0
0.503506 0.0014572 0
0.858845 -0.0124357 0
0.44156 0.00218917 0
0.756532 -0.00350947 0
1.00279 -0.00296742 0
0.345457 0.00514902 0
0.907576 0.00379028 0
0.999832 -0.00256599 0
0.372463 0.00509044 0
0.316684 0.00517867 0
0.397681 0.00491217 0
0.990814 -0.00468154 0
0.973182 -0.00358318 0
0.374332 0.00298683 0
0.96586 -0.0069017 0
0.378004 0.00240743 0
0.458252 0.00228606 0
0.372654 0.0052298 0
0.992773 -0.00373769 0
0.289187 -1.66177e-06 0
0.860178 -0.00727115 0
0.963211 -0.00437793 0
0.378015 0.00222079 0
0.973202 -0.0260768 0
0.20988 -0.000122909 0
0.175698 0.00344684 0
0.483468 0.0014122 0
0.351045 0.00234185 0
0.992749 -0.00568913 0
0.837024 -0.00319878 0
0.262179 -0.00209311 0
0.261294 -0.000918653 0
0.254831 0.000180803 0
0.256608 0.0010632 0
0.290267 0.000305608 0
0.419016 -0.00174454 0
0.50132 -0.00103655 0
0.256658 0.00310887 0
0.212934 -0.000713489 0
0.911084 -0.00465946 0
0.220097 -0.00104485 0
0.492504 0.00155319 0
0.419709 0.00464703 0
0.483576 0.00129754 0
0.253836 0.00187507 0
0.960026 -0.00293637 0
0.208623 0.00264383 0
0.287626 0.00132736 0
0.131151 0.00122508 0
0.29129 -0.000222451 0
0.994416 -0.00554753 0
0.458199 0.00114686 0
0.92035 -0.00302367 0
0.217531 -0.000445526 0
0.922491 -0.00355996 0
0.287945 0.00174193 0
0.928616 -0.0279964 0
0.413928 -0.00179072 0
0.920256 -0.0036932 0
0.315697 9.17819e-05 0
0.317685 0.000658429 0
0.413569 -0.00120398 0
0.84751 -0.00274138 0
0.218796 0.00200523 0
0.92022 -0.00889664 0
0.441281 -0.00251133 0
0.472458 -0.00265417 0
0.492654 -0.00109137 0
0.961665 -0.00201716 0
-0.0796724 0.0140506 0
0.48273 -0.00233978 0
0.349953 0.00144967 0
0.503298 -8.58503e-05 0
0.492167 0.00129322 0
0.50363 0.00240417 0
0.439765 0.00426468 0
0.256112 -0.00021408 0
0.836363 -0.0063645 0
0.162567 -0.0765257 0