# vtk DataFile Version 3.0
Malha 2D com triângulos e temperatura
ASCII
DATASET UNSTRUCTURED_GRID

POINTS 900 double
0 0 0
1 0 0
1 1 0
0 1 0
0.0344828 0 0
0.0689655 0 0
0.103448 0 0
0.137931 0 0
0.172414 0 0
0.206897 0 0
0.241379 0 0
0.275862 0 0
0.310345 0 0
0.344828 0 0
0.37931 0 0
0.413793 0 0
0.448276 0 0
0.482759 0 0
0.517241 0 0
0.551724 0 0
0.586207 0 0
0.62069 0 0
0.655172 0 0
0.689655 0 0
0.724138 0 0
0.758621 0 0
0.793103 0 0
0.827586 0 0
0.862069 0 0
0.896552 0 0
0.931034 0 0
0.965517 0 0
1 0.0344828 0
1 0.0689655 0
1 0.103448 0
1 0.137931 0
1 0.172414 0
1 0.206897 0
1 0.241379 0
1 0.275862 0
1 0.310345 0
1 0.344828 0
1 0.37931 0
1 0.413793 0
1 0.448276 0
1 0.482759 0
1 0.517241 0
1 0.551724 0
1 0.586207 0
1 0.62069 0
1 0.655172 0
1 0.689655 0
1 0.724138 0
1 0.758621 0
1 0.793103 0
1 0.827586 0
1 0.862069 0
1 0.896552 0
1 0.931034 0
1 0.965517 0
0.965517 1 0
0.931034 1 0
0.896552 1 0
0.862069 1 0
0.827586 1 0
0.793103 1 0
0.758621 1 0
0.724138 1 0
0.689655 1 0
0.655172 1 0
0.62069 1 0
0.586207 1 0
0.551724 1 0
0.517241 1 0
0.482759 1 0
0.448276 1 0
0.413793 1 0
0.37931 1 0
0.344828 1 0
0.310345 1 0
0.275862 1 0
0.241379 1 0
0.206897 1 0
0.172414 1 0
0.137931 1 0
0.103448 1 0
0.0689655 1 0
0.0344828 1 0
0 0.965517 0
0 0.931034 0
0 0.896552 0
0 0.862069 0
0 0.827586 0
0 0.793103 0
0 0.758621 0
0 0.724138 0
0 0.689655 0
0 0.655172 0
0 0.62069 0
0 0.586207 0
0 0.551724 0
0 0.517241 0
0 0.482759 0
0 0.448276 0
0 0.413793 0
0 0.37931 0
0 0.344828 0
0 0.310345 0
0 0.275862 0
0 0.241379 0
0 0.206897 0
0 0.172414 0
0 0.137931 0
0 0.103448 0
0 0.0689655 0
0 0.0344828 0
0.0344828 0.965517 0
0.0344828 0.931034 0
0.0344828 0.896552 0
0.0344828 0.862069 0
0.0344828 0.827586 0
0.0344828 0.793103 0
0.0344828 0.758621 0
0.0344828 0.724138 0
0.0344828 0.689655 0
0.0344828 0.655172 0
0.0344828 0.62069 0
0.0344828 0.586207 0
0.0344828 0.551724 0
0.0344828 0.517241 0
0.0344828 0.482759 0
0.0344828 0.448276 0
0.0344828 0.413793 0
0.0344828 0.37931 0
0.0344828 0.344828 0
0.0344828 0.310345 0
0.0344828 0.275862 0
0.0344828 0.241379 0
0.0344828 0.206897 0
0.0344828 0.172414 0
0.0344828 0.137931 0
0.0344828 0.103448 0
0.0344828 0.0689655 0
0.0344828 0.0344828 0
0.0689655 0.965517 0
0.0689655 0.931034 0
0.0689655 0.896552 0
0.0689655 0.862069 0
0.0689655 0.827586 0
0.0689655 0.793103 0
0.0689655 0.758621 0
0.0689655 0.724138 0
0.0689655 0.689655 0
0.0689655 0.655172 0
0.0689655 0.62069 0
0.0689655 0.586207 0
0.0689655 0.551724 0
0.0689655 0.517241 0
0.0689655 0.482759 0
0.0689655 0.448276 0
0.0689655 0.413793 0
0.0689655 0.37931 0
0.0689655 0.344828 0
0.0689655 0.310345 0
0.0689655 0.275862 0
0.0689655 0.241379 0
0.0689655 0.206897 0
0.0689655 0.172414 0
0.0689655 0.137931 0
0.0689655 0.103448 0
0.0689655 0.0689655 0
0.0689655 0.0344828 0
0.103448 0.965517 0
0.103448 0.931034 0
0.103448 0.896552 0
0.103448 0.862069 0
0.103448 0.827586 0
0.103448 0.793103 0
0.103448 0.758621 0
0.103448 0.724138 0
0.103448 0.689655 0
0.103448 0.655172 0
0.103448 0.62069 0
0.103448 0.586207 0
0.103448 0.551724 0
0.103448 0.517241 0
0.103448 0.482759 0
0.103448 0.448276 0
0.103448 0.413793 0
0.103448 0.37931 0
0.103448 0.344828 0
0.103448 0.310345 0
0.103448 0.275862 0
0.103448 0.241379 0
0.103448 0.206897 0
0.103448 0.172414 0
0.103448 0.137931 0
0.103448 0.103448 0
0.103448 0.0689655 0
0.103448 0.0344828 0
0.137931 0.965517 0
0.137931 0.931034 0
0.137931 0.896552 0
0.137931 0.862069 0
0.137931 0.827586 0
0.137931 0.793103 0
0.137931 0.758621 0
0.137931 0.724138 0
0.137931 0.689655 0
0.137931 0.655172 0
0.137931 0.62069 0
0.137931 0.586207 0
0.137931 0.551724 0
0.137931 0.517241 0
0.137931 0.482759 0
0.137931 0.448276 0
0.137931 0.413793 0
0.137931 0.37931 0
0.137931 0.344828 0
0.137931 0.310345 0
0.137931 0.275862 0
0.137931 0.241379 0
0.137931 0.206897 0
0.137931 0.172414 0
0.137931 0.137931 0
0.137931 0.103448 0
0.137931 0.0689655 0
0.137931 0.0344828 0
0.172414 0.965517 0
0.172414 0.931034 0
0.172414 0.896552 0
0.172414 0.862069 0
0.172414 0.827586 0
0.172414 0.793103 0
0.172414 0.758621 0
0.172414 0.724138 0
0.172414 0.689655 0
0.172414 0.655172 0
0.172414 0.62069 0
0.172414 0.586207 0
0.172414 0.551724 0
0.172414 0.517241 0
0.172414 0.482759 0
0.172414 0.448276 0
0.172414 0.413793 0
0.172414 0.37931 0
0.172414 0.344828 0
0.172414 0.310345 0
0.172414 0.275862 0
0.172414 0.241379 0
0.172414 0.206897 0
0.172414 0.172414 0
0.172414 0.137931 0
0.172414 0.103448 0
0.172414 0.0689655 0
0.172414 0.0344828 0
0.206897 0.965517 0
0.206897 0.931034 0
0.206897 0.896552 0
0.206897 0.862069 0
0.206897 0.827586 0
0.206897 0.793103 0
0.206897 0.758621 0
0.206897 0.724138 0
0.206897 0.689655 0
0.206897 0.655172 0
0.206897 0.62069 0
0.206897 0.586207 0
0.206897 0.551724 0
0.206897 0.517241 0
0.206897 0.482759 0
0.206897 0.448276 0
0.206897 0.413793 0
0.206897 0.37931 0
0.206897 0.344828 0
0.206897 0.310345 0
0.206897 0.275862 0
0.206897 0.241379 0
0.206897 0.206897 0
0.206897 0.172414 0
0.206897 0.137931 0
0.206897 0.103448 0
0.206897 0.0689655 0
0.206897 0.0344828 0
0.241379 0.965517 0
0.241379 0.931034 0
0.241379 0.896552 0
0.241379 0.862069 0
0.241379 0.827586 0
0.241379 0.793103 0
0.241379 0.758621 0
0.241379 0.724138 0
0.241379 0.689655 0
0.241379 0.655172 0
0.241379 0.62069 0
0.241379 0.586207 0
0.241379 0.551724 0
0.241379 0.517241 0
0.241379 0.482759 0
0.241379 0.448276 0
0.241379 0.413793 0
0.241379 0.37931 0
0.241379 0.344828 0
0.241379 0.310345 0
0.241379 0.275862 0
0.241379 0.241379 0
0.241379 0.206897 0
0.241379 0.172414 0
0.241379 0.137931 0
0.241379 0.103448 0
0.241379 0.0689655 0
0.241379 0.0344828 0
0.275862 0.965517 0
0.275862 0.931034 0
0.275862 0.896552 0
0.275862 0.862069 0
0.275862 0.827586 0
0.275862 0.793103 0
0.275862 0.758621 0
0.275862 0.724138 0
0.275862 0.689655 0
0.275862 0.655172 0
0.275862 0.62069 0
0.275862 0.586207 0
0.275862 0.551724 0
0.275862 0.517241 0
0.275862 0.482759 0
0.275862 0.448276 0
0.275862 0.413793 0
0.275862 0.37931 0
0.275862 0.344828 0
0.275862 0.310345 0
0.275862 0.275862 0
0.275862 0.241379 0
0.275862 0.206897 0
0.275862 0.172414 0
0.275862 0.137931 0
0.275862 0.103448 0
0.275862 0.0689655 0
0.275862 0.0344828 0
0.310345 0.965517 0
0.310345 0.931034 0
0.310345 0.896552 0
0.310345 0.862069 0
0.310345 0.827586 0
0.310345 0.793103 0
0.310345 0.758621 0
0.310345 0.724138 0
0.310345 0.689655 0
0.310345 0.655172 0
0.310345 0.62069 0
0.310345 0.586207 0
0.310345 0.551724 0
0.310345 0.517241 0
0.310345 0.482759 0
0.310345 0.448276 0
0.310345 0.413793 0
0.310345 0.37931 0
0.310345 0.344828 0
0.310345 0.310345 0
0.310345 0.275862 0
0.310345 0.241379 0
0.310345 0.206897 0
0.310345 0.172414 0
0.310345 0.137931 0
0.310345 0.103448 0
0.310345 0.0689655 0
0.310345 0.0344828 0
0.344828 0.965517 0
0.344828 0.931034 0
0.344828 0.896552 0
0.344828 0.862069 0
0.344828 0.827586 0
0.344828 0.793103 0
0.344828 0.758621 0
0.344828 0.724138 0
0.344828 0.689655 0
0.344828 0.655172 0
0.344828 0.62069 0
0.344828 0.586207 0
0.344828 0.551724 0
0.344828 0.517241 0
0.344828 0.482759 0
0.344828 0.448276 0
0.344828 0.413793 0
0.344828 0.37931 0
0.344828 0.344828 0
0.344828 0.310345 0
0.344828 0.275862 0
0.344828 0.241379 0
0.344828 0.206897 0
0.344828 0.172414 0
0.344828 0.137931 0
0.344828 0.103448 0
0.344828 0.0689655 0
0.344828 0.0344828 0
0.37931 0.965517 0
0.37931 0.931034 0
0.37931 0.896552 0
0.37931 0.862069 0
0.37931 0.827586 0
0.37931 0.793103 0
0.37931 0.758621 0
0.37931 0.724138 0
0.37931 0.689655 0
0.37931 0.655172 0
0.37931 0.62069 0
0.37931 0.586207 0
0.37931 0.551724 0
0.37931 0.517241 0
0.37931 0.482759 0
0.37931 0.448276 0
0.37931 0.413793 0
0.37931 0.37931 0
0.37931 0.344828 0
0.37931 0.310345 0
0.37931 0.275862 0
0.37931 0.241379 0
0.37931 0.206897 0
0.37931 0.172414 0
0.37931 0.137931 0
0.37931 0.103448 0
0.37931 0.0689655 0
0.37931 0.0344828 0
0.413793 0.965517 0
0.413793 0.931034 0
0.413793 0.896552 0
0.413793 0.862069 0
0.413793 0.827586 0
0.413793 0.793103 0
0.413793 0.758621 0
0.413793 0.724138 0
0.413793 0.689655 0
0.413793 0.655172 0
0.413793 0.62069 0
0.413793 0.586207 0
0.413793 0.551724 0
0.413793 0.517241 0
0.413793 0.482759 0
0.413793 0.448276 0
0.413793 0.413793 0
0.413793 0.37931 0
0.413793 0.344828 0
0.413793 0.310345 0
0.413793 0.275862 0
0.413793 0.241379 0
0.413793 0.206897 0
0.413793 0.172414 0
0.413793 0.137931 0
0.413793 0.103448 0
0.413793 0.0689655 0
0.413793 0.0344828 0
0.448276 0.965517 0
0.448276 0.931034 0
0.448276 0.896552 0
0.448276 0.862069 0
0.448276 0.827586 0
0.448276 0.793103 0
0.448276 0.758621 0
0.448276 0.724138 0
0.448276 0.689655 0
0.448276 0.655172 0
0.448276 0.62069 0
0.448276 0.586207 0
0.448276 0.551724 0
0.448276 0.517241 0
0.448276 0.482759 0
0.448276 0.448276 0
0.448276 0.413793 0
0.448276 0.37931 0
0.448276 0.344828 0
0.448276 0.310345 0
0.448276 0.275862 0
0.448276 0.241379 0
0.448276 0.206897 0
0.448276 0.172414 0
0.448276 0.137931 0
0.448276 0.103448 0
0.448276 0.0689655 0
0.448276 0.0344828 0
0.482759 0.965517 0
0.482759 0.931034 0
0.482759 0.896552 0
0.482759 0.862069 0
0.482759 0.827586 0
0.482759 0.793103 0
0.482759 0.758621 0
0.482759 0.724138 0
0.482759 0.689655 0
0.482759 0.655172 0
0.482759 0.62069 0
0.482759 0.586207 0
0.482759 0.551724 0
0.482759 0.517241 0
0.482759 0.482759 0
0.482759 0.448276 0
0.482759 0.413793 0
0.482759 0.37931 0
0.482759 0.344828 0
0.482759 0.310345 0
0.482759 0.275862 0
0.482759 0.241379 0
0.482759 0.206897 0
0.482759 0.172414 0
0.482759 0.137931 0
0.482759 0.103448 0
0.482759 0.0689655 0
0.482759 0.0344828 0
0.517241 0.965517 0
0.517241 0.931034 0
0.517241 0.896552 0
0.517241 0.862069 0
0.517241 0.827586 0
0.517241 0.793103 0
0.517241 0.758621 0
0.517241 0.724138 0
0.517241 0.689655 0
0.517241 0.655172 0
0.517241 0.62069 0
0.517241 0.586207 0
0.517241 0.551724 0
0.517241 0.517241 0
0.517241 0.482759 0
0.517241 0.448276 0
0.517241 0.413793 0
0.517241 0.37931 0
0.517241 0.344828 0
0.517241 0.310345 0
0.517241 0.275862 0
0.517241 0.241379 0
0.517241 0.206897 0
0.517241 0.172414 0
0.517241 0.137931 0
0.517241 0.103448 0
[...]
CELL_DATA 841
SCALARS Temperatura double 1
LOOKUP_TABLE default
0.00326097
0.00968973
0.0160132
0.022166
0.0280735
0.0336628
0.0388648
0.0436162
0.0478592
0.051543
0.0546235
0.0570638
0.0588349
0.0599157
0.0602933
0.0599631
0.0589288
0.0572025
0.0548043
0.0517624
0.0481127
0.043898
0.0391685
0.0339803
0.028396
0.0224841
0.0163197
0.00998858
0.0035985
0.00871519
0.0261033
0.0432647
0.0599878
0.0760595
0.0912763
0.105448
0.1184
0.129974
0.14003
0.148448
0.155126
0.159984
0.162966
0.164034
0.163176
0.160401
0.155742
0.149253
0.14101
0.13111
0.11967
0.106825
0.0927288
0.0775503
0.0614752
0.0447051
0.0274607
0.00998858
0.0139186
0.0418731
0.0695452
0.0965527
0.122534
0.147151
0.170091
0.191069
0.209826
0.226134
0.239797
0.250651
0.258564
0.263443
0.265228
0.263898
0.259467
0.251986
0.241542
0.228259
0.212291
0.193827
0.173086
0.150313
0.12578
0.0997856
0.0726471
0.0447051
0.0163197
0.0188272
0.0568352
0.0945648
0.131449
0.16697
0.200653
0.232062
0.260801
0.286513
0.308885
0.327645
0.342566
0.353468
0.360221
0.362743
0.361001
0.355016
0.344856
0.330639
0.31253
0.290743
0.265533
0.237198
0.20607
0.172521
0.136951
0.0997856
0.0614752
0.0224841
0.0233925
0.0708301
0.118048
0.164287
0.208869
0.25118
0.290662
0.32681
0.359173
0.387352
0.411002
0.429838
0.44363
0.452214
0.455483
0.453397
0.445978
0.43331
0.41554
0.392875
0.36558
0.333974
0.298427
0.259357
0.217223
0.172521
0.12578
0.0775503
0.028396
0.0275672
0.0837076
0.139738
0.194702
0.247762
0.298165
0.345233
0.388356
0.42699
0.460654
0.488935
0.511488
0.52804
0.538389
0.542408
0.540047
0.531328
0.516351
0.495288
0.468384
0.43595
0.398366
0.356068
0.309551
0.259357
0.20607
0.150313
0.0927288
0.0339803
0.031308
0.0953299
0.159397
0.22236
0.283218
0.341086
0.395167
0.444752
0.489206
0.527972
0.56057
0.586603
0.60575
0.61778
0.622542
0.619976
0.610105
0.593042
0.56898
0.538198
0.501051
0.457971
0.409456
0.356068
0.298427
0.237198
0.173086
0.106825
0.0391685
0.0345763
0.105574
0.176815
0.246959
0.314849
0.379468
0.439911
0.49537
0.545127
0.588553
0.625108
0.654341
0.675892
0.689496
0.694984
0.692285
0.681421
0.662514
0.635779
0.601523
0.560138
0.512103
0.457971
0.398366
0.333974
0.265533
0.193827
0.11967
0.043898
0.0373392
0.114332
0.191805
0.268233
0.342309
0.412892
0.478972
0.539651
0.594135
0.641727
0.681831
0.713947
0.73768
0.752734
0.758922
0.75616
0.744471
0.723983
0.694927
0.657635
0.612533
0.560138
0.501051
0.43595
0.36558
0.290743
0.212291
0.13111
0.0481127
0.0395697
0.121516
0.204212
0.285958
0.365305
0.440996
0.511925
0.577112
0.635691
0.686907
0.73011
0.76476
0.790426
0.806788
0.813638
0.810883
0.798543
0.776751
0.745752
0.705895
0.657635
0.601523
0.538198
0.468384
0.392875
0.31253
0.228259
0.14101
0.0517624
0.0412471
0.127055
0.213911
0.299949
0.383594
0.463482
0.538417
0.607347
0.669343
0.723597
0.769415
0.80622
0.833548
0.851057
0.858522
0.855841
0.843029
0.820223
0.787675
0.745752
0.694927
0.635779
0.56898
0.495288
0.41554
0.330639
0.241542
0.149253
0.0548043
0.0423575
0.130898
0.220807
0.310069
0.396992
0.480116
0.55817
0.630035
0.694732
0.751404
0.799321
0.837873
0.866571
0.885052
0.893077
0.890533
0.877431
0.853908
0.820223
0.776751
0.723983
0.662514
0.593042
0.516351
0.43331
0.344856
0.251986
0.155742
0.0572025
0.0428938
0.133015
0.224841
0.316225
0.40537
0.490736
0.570985
0.644946
0.711594
0.770036
0.819511
0.859382
0.88914
0.908405
0.916924
0.914576
0.901367
0.877431
0.843029
0.798543
0.744471
0.681421
0.610105
0.531328
0.445978
0.355016
0.259467
0.160401
0.0589288
0.0428561
0.133397
0.225988
0.318372
0.408661
0.495251
0.576748
0.651941
0.719768
0.77931
0.829781
0.870527
0.901021
0.92087
0.92981
0.927712
0.914576
0.890533
0.855841
0.810883
0.75616
0.692285
0.619976
0.540047
0.453397
0.361001
0.263898
0.163176
0.0599631
0.0422515
0.132056
0.22426
0.316513
0.406861
0.493642
0.575428
0.650973
0.719194
0.779153
0.830047
0.87121
0.902105
0.922329
0.93161
0.92981
0.916924
0.893077
0.858522
0.813638
0.758922
0.694984
0.622542
0.542408
0.455483
0.362743
0.265228
0.164034
0.0602933
0.0410948
0.129026
0.219703
0.310705
0.400025
0.485969
0.56708
0.642095
0.70992
0.769605
0.820343
0.861459
0.892413
0.912795
0.922329
0.92087
0.908405
0.885052
0.851057
0.806788
0.752734
0.689496
0.61778
0.538389
0.452214
0.360221
0.263443
0.162966
0.0599157
0.0394082
0.124365
0.212402
0.301051
0.388277
0.472365
0.551847
0.625457
0.692098
0.750822
0.800823
0.841427
0.872094
0.892413
0.902105
0.901021
0.88914
0.866571
0.833548
0.790426
0.73768
0.675892
0.60575
0.52804
0.44363
0.353468
0.258564
0.159984
0.0588349
0.037222
0.118154
0.202479
0.287711
0.371803
0.453041
0.529962
0.601307
0.66599
0.723075
0.771763
0.811392
0.841427
0.861459
0.87121
0.870527
0.859382
0.837873
0.80622
0.76476
0.713947
0.654341
0.586603
0.511488
0.429838
0.342566
0.250651
0.155126
0.0570638
0.0345746
0.110496
0.190096
0.270894
0.350858
0.428289
0.501747
0.569994
0.631967
0.68675
0.733565
0.771763
0.800823
0.820343
0.830047
0.829781
0.819511
0.799321
0.769415
0.73011
0.681831
0.625108
0.56057
0.488935
0.411002
0.327645
0.239797
0.148448
0.0546235
0.0315136
0.101522
0.175456
0.250869
0.325765
0.398482
0.467618
0.53197
0.59051
0.642353
0.68675
0.723075
0.750822
0.769605
0.779153
0.77931
0.770036
0.751404
0.723597
0.686907
0.641727
0.588553
0.527972
0.460654
0.387352
0.308885
0.226134
0.14003
0.051543
0.0280965
0.0913918
0.158807
0.227962
0.29692
0.364078
0.428085
0.487791
0.542213
0.59051
0.631967
0.66599
0.692098
0.70992
0.719194
0.719768
0.711594
0.694732
0.669343
0.635691
0.594135
0.545127
0.489206
0.42699
0.359173
0.286513
0.209826
0.129974
0.0478592
0.0243924
0.080295
0.140447
0.202566
0.264801
0.325626
0.383762
0.438126
0.487791
0.53197
0.569994
0.601307
0.625457
0.642095
0.650973
0.651941
0.644946
0.630035
0.607347
0.577112
0.539651
0.49537
0.444752
0.388356
0.32681
0.260801
0.191069
0.1184
0.0436162
0.0204843
0.0684598
0.120731
0.175148
0.229972
0.283778
0.335376
0.383762
0.428085
0.467618
0.501747
0.529962
0.551847
0.56708
0.575428
0.576748
0.570985
0.55817
0.538417
0.511925
0.478972
0.439911
0.395167
0.345233
0.290662
0.232062
0.170091
0.105448
0.0388648
0.016472
0.0561589
0.100083
0.146262
0.193102
0.239301
0.283778
0.325626
0.364078
0.398482
0.428289
0.453041
0.472365
0.485969
0.493642
0.495251
0.490736
0.480116
0.463482
0.440996
0.412892
0.379468
0.341086
0.298165
0.25118
0.200653
0.147151
0.0912763
0.0336628
0.0124776
0.0437221
0.0790099
0.11657
0.154985
0.193102
0.229972
0.264801
0.29692
0.325765
0.350858
0.371803
0.388277
0.400025
0.406861
0.408661
0.40537
0.396992
0.383594
0.365305
0.342309
0.314849
0.283218
0.247762
0.208869
0.16697
0.122534
0.0760595
0.0280735
0.00865155
0.0315522
0.0581278
0.0868679
0.11657
0.146262
0.175148
0.202566
0.227962
0.250869
0.270894
0.287711
0.301051
0.310705
0.316513
0.318372
0.316225
0.310069
0.299949
0.285958
0.268233
0.246959
0.22236
0.194702
0.164287
0.131449
0.0965527
0.0599878
0.022166
0.00518207
0.0201475
0.0381929
0.0581278
0.0790099
0.100083
0.120731
0.140447
0.158807
0.175456
0.190096
0.202479
0.212402
0.219703
0.22426
0.225988
0.224841
0.220807
0.213911
0.204212
0.191805
0.176815
0.159397
0.139738
0.118048
0.0945648
0.0695452
0.0432647
0.0160132
0.00230809
0.0101342
0.0201475
0.0315522
0.0437221
0.0561589
0.0684598
0.080295
0.0913918
0.101522
0.110496
0.118154
0.124365
0.129026
0.132056
0.133397
0.133015
0.130898
0.127055
0.121516
0.114332
0.105574
0.0953299
0.0837076
0.0708301
0.0568352
0.0418731
0.0261033
0.00968973
0.000336274
0.00230809
0.00518207
0.00865155
0.0124776
0.016472
0.0204843
0.0243924
0.0280965
0.0315136
0.0345746
0.037222
0.0394082
0.0410948
0.0422515
0.0428561
0.0428938
0.0423575
0.0412471
0.0395697
0.0373392
0.0345763
0.031308
0.0275672
0.0233925
0.0188272
0.0139186
0.00871519
0.00326097
