# vtk DataFile Version 3.0
Malha 2D com triângulos e temperatura
ASCII
DATASET UNSTRUCTURED_GRID

POINTS 10000 double
0 0 0
1 0 0
1 1 0
0 1 0
0.010101 0 0
0.020202 0 0
0.030303 0 0
0.040404 0 0
0.0505051 0 0
0.0606061 0 0
0.0707071 0 0
0.0808081 0 0
0.0909091 0 0
0.10101 0 0
0.111111 0 0
0.121212 0 0
0.131313 0 0
0.141414 0 0
0.151515 0 0
0.161616 0 0
0.171717 0 0
0.181818 0 0
0.191919 0 0
0.20202 0 0
0.212121 0 0
0.222222 0 0
0.232323 0 0
0.242424 0 0
0.252525 0 0
0.262626 0 0
0.272727 0 0
0.282828 0 0
0.292929 0 0
0.30303 0 0
0.313131 0 0
0.323232 0 0
0.333333 0 0
0.343434 0 0
0.353535 0 0
0.363636 0 0
0.373737 0 0
0.383838 0 0
0.393939 0 0
0.40404 0 0
0.414141 0 0
0.424242 0 0
0.434343 0 0
0.444444 0 0
0.454545 0 0
0.464646 0 0
0.474747 0 0
0.484848 0 0
0.494949 0 0
0.505051 0 0
0.515152 0 0
0.525253 0 0
0.535354 0 0
0.545455 0 0
0.555556 0 0
0.565657 0 0
0.575758 0 0
0.585859 0 0
0.59596 0 0
0.606061 0 0
0.616162 0 0
0.626263 0 0
0.636364 0 0
0.646465 0 0
0.656566 0 0
0.666667 0 0
0.676768 0 0
0.686869 0 0
0.69697 0 0
0.707071 0 0
0.717172 0 0
0.727273 0 0
0.737374 0 0
0.747475 0 0
0.757576 0 0
0.767677 0 0
0.777778 0 0
0.787879 0 0
0.79798 0 0
0.808081 0 0
0.818182 0 0
0.828283 0 0
0.838384 0 0
0.848485 0 0
0.858586 0 0
0.868687 0 0
0.878788 0 0
0.888889 0 0
0.89899 0 0
0.909091 0 0
0.919192 0 0
0.929293 0 0
0.939394 0 0
0.949495 0 0
0.959596 0 0
0.969697 0 0
0.979798 0 0
0.989899 0 0
1 0.010101 0
1 0.020202 0
1 0.030303 0
1 0.040404 0
1 0.0505051 0
1 0.0606061 0
1 0.0707071 0
1 0.0808081 0
1 0.0909091 0
1 0.10101 0
1 0.111111 0
1 0.121212 0
1 0.131313 0
1 0.141414 0
1 0.151515 0
1 0.161616 0
1 0.171717 0
1 0.181818 0
1 0.191919 0
1 0.20202 0
1 0.212121 0
1 0.222222 0
1 0.232323 0
1 0.242424 0
1 0.252525 0
1 0.262626 0
1 0.272727 0
1 0.282828 0
1 0.292929 0
1 0.30303 0
1 0.313131 0
1 0.323232 0
1 0.333333 0
1 0.343434 0
1 0.353535 0
1 0.363636 0
1 0.373737 0
1 0.383838 0
1 0.393939 0
1 0.40404 0
1 0.414141 0
1 0.424242 0
1 0.434343 0
1 0.444444 0
1 0.454545 0
1 0.464646 0
1 0.474747 0
1 0.484848 0
1 0.494949 0
1 0.505051 0
1 0.515152 0
1 0.525253 0
1 0.535354 0
1 0.545455 0
1 0.555556 0
1 0.565657 0
1 0.575758 0
1 0.585859 0
1 0.59596 0
1 0.606061 0
1 0.616162 0
1 0.626263 0
1 0.636364 0
1 0.646465 0
1 0.656566 0
1 0.666667 0
1 0.676768 0
1 0.686869 0
1 0.69697 0
1 0.707071 0
1 0.717172 0
1 0.727273 0
1 0.737374 0
1 0.747475 0
1 0.757576 0
1 0.767677 0
1 0.777778 0
1 0.787879 0
1 0.79798 0
1 0.808081 0
1 0.818182 0
1 0.828283 0
1 0.838384 0
1 0.848485 0
1 0.858586 0
1 0.868687 0
1 0.878788 0
1 0.888889 0
1 0.89899 0
1 0.909091 0
1 0.919192 0
1 0.929293 0
1 0.939394 0
1 0.949495 0
1 0.959596 0
1 0.969697 0
1 0.979798 0
1 0.989899 0
0.989899 1 0
0.979798 1 0
0.969697 1 0
0.959596 1 0
0.949495 1 0
0.939394 1 0
0.929293 1 0
0.919192 1 0
0.909091 1 0
0.89899 1 0
0.888889 1 0
0.878788 1 0
0.868687 1 0
0.858586 1 0
0.848485 1 0
0.838384 1 0
0.828283 1 0
0.818182 1 0
0.808081 1 0
0.79798 1 0
0.787879 1 0
0.777778 1 0
0.767677 1 0
0.757576 1 0
0.747475 1 0
0.737374 1 0
0.727273 1 0
0.717172 1 0
0.707071 1 0
0.69697 1 0
0.686869 1 0
0.676768 1 0
0.666667 1 0
0.656566 1 0
0.646465 1 0
0.636364 1 0
0.626263 1 0
0.616162 1 0
0.606061 1 0
0.59596 1 0
0.585859 1 0
0.575758 1 0
0.565657 1 0
0.555556 1 0
0.545455 1 0
0.535354 1 0
0.525253 1 0
0.515152 1 0
0.505051 1 0
0.494949 1 0
0.484848 1 0
0.474747 1 0
0.464646 1 0
0.454545 1 0
0.444444 1 0
0.434343 1 0
0.424242 1 0
0.414141 1 0
0.40404 1 0
0.393939 1 0
0.383838 1 0
0.373737 1 0
0.363636 1 0
0.353535 1 0
0.343434 1 0
0.333333 1 0
0.323232 1 0
0.313131 1 0
0.30303 1 0
0.292929 1 0
0.282828 1 0
0.272727 1 0
0.262626 1 0
0.252525 1 0
0.242424 1 0
0.232323 1 0
0.222222 1 0
0.212121 1 0
0.20202 1 0
0.191919 1 0
0.181818 1 0
0.171717 1 0
0.161616 1 0
0.151515 1 0
0.141414 1 0
0.131313 1 0
0.121212 1 0
0.111111 1 0
0.10101 1 0
0.0909091 1 0
0.0808081 1 0
0.0707071 1 0
0.0606061 1 0
0.0505051 1 0
0.040404 1 0
0.030303 1 0
0.020202 1 0
0.010101 1 0
0 0.989899 0
0 0.979798 0
0 0.969697 0
0 0.959596 0
0 0.949495 0
0 0.939394 0
0 0.929293 0
0 0.919192 0
0 0.909091 0
0 0.89899 0
0 0.888889 0
0 0.878788 0
0 0.868687 0
0 0.858586 0
0 0.848485 0
0 0.838384 0
0 0.828283 0
0 0.818182 0
0 0.808081 0
0 0.79798 0
0 0.787879 0
0 0.777778 0
0 0.767677 0
0 0.757576 0
0 0.747475 0
0 0.737374 0
0 0.727273 0
0 0.717172 0
0 0.707071 0
0 0.69697 0
0 0.686869 0
0 0.676768 0
0 0.666667 0
0 0.656566 0
0 0.646465 0
0 0.636364 0
0 0.626263 0
0 0.616162 0
0 0.606061 0
0 0.59596 0
0 0.585859 0
0 0.575758 0
0 0.565657 0
0 0.555556 0
0 0.545455 0
0 0.535354 0
0 0.525253 0
0 0.515152 0
0 0.505051 0
0 0.494949 0
0 0.484848 0
0 0.474747 0
0 0.464646 0
0 0.454545 0
0 0.444444 0
0 0.434343 0
0 0.424242 0
0 0.414141 0
0 0.40404 0
0 0.393939 0
0 0.383838 0
0 0.373737 0
0 0.363636 0
0 0.353535 0
0 0.343434 0
0 0.333333 0
0 0.323232 0
0 0.313131 0
0 0.30303 0
0 0.292929 0
0 0.282828 0
0 0.272727 0
0 0.262626 0
0 0.252525 0
0 0.242424 0
0 0.232323 0
0 0.222222 0
0 0.212121 0
0 0.20202 0
0 0.191919 0
0 0.181818 0
0 0.171717 0
0 0.161616 0
0 0.151515 0
0 0.141414 0
0 0.131313 0
0 0.121212 0
0 0.111111 0
0 0.10101 0
0 0.0909091 0
0 0.0808081 0
0 0.0707071 0
0 0.0606061 0
0 0.0505051 0
0 0.040404 0
0 0.030303 0
0 0.020202 0
0 0.010101 0
0.010101 0.989899 0
0.010101 0.979798 0
0.010101 0.969697 0
0.010101 0.959596 0
0.010101 0.949495 0
0.010101 0.939394 0
0.010101 0.929293 0
0.010101 0.919192 0
0.010101 0.909091 0
0.010101 0.89899 0
0.010101 0.888889 0
0.010101 0.878788 0
0.010101 0.868687 0
0.010101 0.858586 0
0.010101 0.848485 0
0.010101 0.838384 0
0.010101 0.828283 0
0.010101 0.818182 0
0.010101 0.808081 0
0.010101 0.79798 0
0.010101 0.787879 0
0.010101 0.777778 0
0.010101 0.767677 0
0.010101 0.757576 0
0.010101 0.747475 0
0.010101 0.737374 0
0.010101 0.727273 0
0.010101 0.717172 0
0.010101 0.707071 0
0.010101 0.69697 0
0.010101 0.686869 0
0.010101 0.676768 0
0.010101 0.666667 0
0.010101 0.656566 0
0.010101 0.646465 0
0.010101 0.636364 0
0.010101 0.626263 0
0.010101 0.616162 0
0.010101 0.606061 0
0.010101 0.59596 0
0.010101 0.585859 0
0.010101 0.575758 0
0.010101 0.565657 0
0.010101 0.555556 0
0.010101 0.545455 0
0.010101 0.535354 0
0.010101 0.525253 0
0.010101 0.515152 0
0.010101 0.505051 0
0.010101 0.494949 0
0.010101 0.484848 0
0.010101 0.474747 0
0.010101 0.464646 0
0.010101 0.454545 0
0.010101 0.444444 0
0.010101 0.434343 0
0.010101 0.424242 0
0.010101 0.414141 0
0.010101 0.40404 0
0.010101 0.393939 0
0.010101 0.383838 0
0.010101 0.373737 0
0.010101 0.363636 0
0.010101 0.353535 0
0.010101 0.343434 0
0.010101 0.333333 0
0.010101 0.323232 0
0.010101 0.313131 0
0.010101 0.30303 0
0.010101 0.292929 0
0.010101 0.282828 0
0.010101 0.272727 0
0.010101 0.262626 0
0.010101 0.252525 0
0.010101 0.242424 0
0.010101 0.232323 0
0.010101 0.222222 0
0.010101 0.212121 0
0.010101 0.20202 0
0.010101 0.191919 0
0.010101 0.181818 0
0.010101 0.171717 0
0.010101 0.161616 0
0.010101 0.151515 0
0.010101 0.141414 0
0.010101 0.131313 0
0.010101 0.121212 0
0.010101 0.111111 0
0.010101 0.10101 0
0.010101 0.0909091 0
0.010101 0.0808081 0
0.010101 0.0707071 0
0.010101 0.0606061 0
0.010101 0.0505051 0
0.010101 0.040404 0
0.010101 0.030303 0
0.010101 0.020202 0
0.010101 0.010101 0
0.020202 0.989899 0
0.020202 0.979798 0
0.020202 0.969697 0
0.020202 0.959596 0
0.020202 0.949495 0
0.020202 0.939394 0
0.020202 0.929293 0
0.020202 0.919192 0
0.020202 0.909091 0
0.020202 0.89899 0
0.020202 0.888889 0
0.020202 0.878788 0
0.020202 0.868687 0
0.020202 0.858586 0
0.020202 0.848485 0
0.020202 0.838384 0
0.020202 0.828283 0
0.020202 0.818182 0
0.020202 0.808081 0
0.020202 0.79798 0
0.020202 0.787879 0
0.020202 0.777778 0
0.020202 0.767677 0
0.020202 0.757576 0
0.020202 0.747475 0
0.020202 0.737374 0
0.020202 0.727273 0
0.020202 0.717172 0
0.020202 0.707071 0
0.020202 0.69697 0
0.020202 0.686869 0
0.020202 0.676768 0
0.020202 0.666667 0
0.020202 0.656566 0
0.020202 0.646465 0
0.020202 0.636364 0
0.020202 0.626263 0
0.020202 0.616162 0
0.020202 0.606061 0
0.020202 0.59596 0
0.020202 0.585859 0
0.020202 0.575758 0
0.020202 0.565657 0
0.020202 0.555556 0
0.020202 0.545455 0
0.020202 0.535354 0
0.020202 0.525253 0
0.020202 0.515152 0
0.020202 0.505051 0
0.020202 0.494949 0
0.020202 0.484848 0
0.020202 0.474747 0
0.020202 0.464646 0
0.020202 0.454545 0
0.020202 0.444444 0
0.020202 0.434343 0
0.020202 0.424242 0
0.020202 0.414141 0
0.020202 0.40404 0
0.020202 0.393939 0
0.020202 0.383838 0
0.020202 0.373737 0
0.020202 0.363636 0
0.020202 0.353535 0
0.020202 0.343434 0
0.020202 0.333333 0
0.020202 0.323232 0
0.020202 0.313131 0
0.020202 0.30303 0
0.020202 0.292929 0
0.020202 0.282828 0
0.020202 0.272727 0
0.020202 0.262626 0
0.020202 0.252525 0
0.020202 0.242424 0
0.020202 0.232323 0
0.020202 0.222222 0
0.020202 0.212121 0
0.020202 0.20202 0
0.020202 0.191919 0
0.020202 0.181818 0
0.020202 0.171717 0
0.020202 0.161616 0
0.020202 0.151515 0
0.020202 0.141414 0
0.020202 0.131313 0
0.020202 0.121212 0
0.020202 0.111111 0
0.020202 0.10101 0
0.020202 0.0909091 0
0.020202 0.0808081 0
0.020202 0.0707071 0
0.020202 0.0606061 0
0.020202 0.0505051 0
0.020202 0.040404 0
0.020202 0.030303 0
0.020202 0.020202 0
0.020202 0.010101 0
0.030303 0.989899 0
0.030303 0.979798 0
0.030303 0.969697 0
0.030303 0.959596 0
0.030303 0.949495 0
0.030303 0.939394 0
0.030303 0.929293 0
0.030303 0.919192 0
0.030303 0.909091 0
0.030303 0.89899 0
0.030303 0.888889 0
0.030303 0.878788 0
0.030303 0.868687 0
0.030303 0.858586 0
0.030303 0.848485 0
0.030303 0.838384 0
0.030303 0.828283 0
0.030303 0.818182 0
0.030303 0.808081 0
0.030303 0.79798 0
0.030303 0.787879 0
0.030303 0.777778 0
0.030303 0.767677 0
0.030303 0.757576 0
0.030303 0.747475 0
0.030303 0.737374 0
0.030303 0.727273 0
0.030303 0.717172 0
0.030303 0.707071 0
0.030303 0.69697 0
0.030303 0.686869 0
0.030303 0.676768 0
0.030303 0.666667 0
0.030303 0.656566 0
0.030303 0.646465 0
0.030303 0.636364 0
0.030303 0.626263 0
0.030303 0.616162 0
0.030303 0.606061 0
0.030303 0.59596 0
0.030303 0.585859 0
0.030303 0.575758 0
0.030303 0.565657 0
[...]
CELL_DATA 9801
SCALARS Temperatura double 1
LOOKUP_TABLE default
0.000260323
0.000780265
0.0012996
0.00181795
0.00233484
0.00284972
0.00336205
0.00387129
0.00437689
0.00487831
0.00537502
0.0058665
0.00635223
0.00683171
0.00730442
0.00776989
0.00822762
0.00867715
0.00911802
0.00954976
0.00997194
0.0103841
0.0107859
0.0111768
0.0115565
0.0119246
0.0122808
0.0126245
0.0129556
0.0132736
0.0135783
0.0138693
0.0141464
0.0144092
0.0146575
0.014891
0.0151096
0.0153129
0.0155008
0.0156731
0.0158296
0.0159702
0.0160946
0.0162029
0.0162948
0.0163703
0.0164294
0.0164718
0.0164977
0.016507
0.0164996
0.0164756
0.016435
0.0163778
0.0163041
0.016214
0.0161076
0.0159849
0.0158461
0.0156913
0.0155207
0.0153345
0.0151328
0.0149158
0.0146838
0.014437
0.0141756
0.0139
0.0136103
0.0133069
0.0129901
0.0126601
0.0123174
0.0119623
0.0115951
0.0112161
0.0108259
0.0104247
0.010013
0.00959122
0.00915972
0.00871896
0.00826939
0.00781146
0.00734564
0.00687239
0.00639219
0.00590552
0.00541288
0.00491477
0.0044117
0.00390418
0.00339273
0.00287789
0.0023602
0.00184022
0.00131856
0.000795895
0.000273132
0.000754943
0.00226457
0.00377291
0.0052786
0.00678014
0.00827594
0.00976441
0.0112439
0.012713
0.0141699
0.0156132
0.0170413
0.0184528
0.0198461
0.0212198
0.0225725
0.0239027
0.0252091
0.0264904
0.0277451
0.0289721
0.03017
0.0313377
0.032474
0.0335776
0.0346475
0.0356825
0.0366817
0.037644
0.0385684
0.039454
0.0403
0.0411053
0.0418693
0.0425911
0.04327
0.0439053
0.0444965
0.0450428
0.0455437
0.0459988
0.0464075
0.0467695
0.0470844
0.0473518
0.0475715
0.0477433
0.047867
0.0479424
0.0479696
0.0479484
0.0478788
0.0477611
0.0475952
0.0473813
0.0471196
0.0468105
0.0464542
0.0460511
0.0456015
0.045106
0.044565
0.043979
0.0433487
0.0426747
0.0419577
0.0411983
0.0403974
0.0395557
0.0386742
0.0377536
0.0367949
0.0357991
0.0347671
0.0337001
0.032599
0.0314651
0.0302993
0.029103
0.0278772
0.0266233
0.0253424
0.024036
0.0227052
0.0213515
0.0199762
0.0185807
0.0171664
0.0157347
0.0142871
0.0128251
0.0113501
0.00986375
0.00836749
0.00686293
0.0053517
0.00383552
0.00231622
0.000795895
0.00124746
0.00374316
0.00623733
0.00872743
0.0112109
0.0136849
0.016147
0.0185944
0.0210245
0.0234346
0.0258223
0.0281849
0.03052
0.0328251
0.0350979
0.0373358
0.0395367
0.0416982
0.043818
0.0458941
0.0479243
0.0499064
0.0518385
0.0537186
0.0555447
0.0573151
0.0590278
0.0606812
0.0622735
0.0638033
0.0652688
0.0666686
0.0680013
0.0692656
0.0704601
0.0715837
0.0726352
0.0736136
0.0745178
0.0753469
0.0761001
0.0767767
0.077376
0.0778973
0.0783401
0.0787039
0.0789885
0.0791935
0.0793187
0.0793639
0.0793292
0.0792145
0.07902
0.0787458
0.0783923
0.0779598
0.0774486
0.0768594
0.0761928
0.0754493
0.0746297
0.0737349
0.0727657
0.0717232
0.0706083
0.0694222
0.0681661
0.0668412
0.065449
0.0639906
0.0624677
0.0608818
0.0592344
0.0575272
0.055762
0.0539404
0.0520644
0.0501358
0.0481565
0.0461286
0.044054
0.0419349
0.0397735
0.0375718
0.0353321
0.0330566
0.0307477
0.0284077
0.0260389
0.0236438
0.0212248
0.0187844
0.016325
0.0138492
0.0113597
0.00885904
0.00635003
0.00383552
0.00131856
0.00173754
0.00521481
0.00869057
0.0121611
0.0156226
0.0190713
0.0225034
0.0259152
0.029303
0.0326631
0.035992
0.039286
0.0425417
0.0457557
0.0489246
0.052045
0.0551138
0.0581277
0.0610836
0.0639785
0.0668094
0.0695734
0.0722677
0.0748894
0.0774359
0.0799047
0.0822932
0.0845989
0.0868196
0.0889529
0.0909967
0.0929489
0.0948076
0.0965709
0.0982369
0.099804
0.101271
0.102635
0.103896
0.105053
0.106104
0.107048
0.107884
0.108611
0.109229
0.109737
0.110134
0.11042
0.110595
0.110659
0.110611
0.110451
0.110181
0.109799
0.109306
0.108704
0.107991
0.10717
0.106241
0.105205
0.104063
0.102815
0.101464
0.100011
0.0984569
0.0968035
0.0950523
0.0932053
0.0912643
0.0892312
0.087108
0.0848969
0.0826001
0.08022
0.0777588
0.0752191
0.0726034
0.0699144
0.0671548
0.0643273
0.0614347
0.05848
0.0554662
0.0523963
0.0492734
0.0461006
0.0428811
0.0396183
0.0363153
0.0329755
0.0296024
0.0261993
0.0227698
0.0193174
0.0158457
0.0123583
0.00885904
0.0053517
0.00184022
0.00222478
0.00667814
0.0111303
0.0155762
0.020011
0.0244296
0.0288272
0.033199
0.0375402
0.0418461
0.046112
0.0503334
0.0545058
0.0586248
0.062686
0.0666853
0.0706184
0.0744812
0.0782698
0.0819802
0.0856087
0.0891514
0.0926047
0.0959652
0.0992293
0.102394
0.105455
0.108411
0.111257
0.113992
0.116612
0.119115
0.121497
0.123758
0.125894
0.127903
0.129783
0.131532
0.133149
0.134632
0.13598
0.13719
0.138262
0.139195
0.139987
0.140639
0.141149
0.141516
0.141741
0.141823
0.141762
0.141559
0.141212
0.140723
0.140093
0.139321
0.138409
0.137357
0.136167
0.134839
0.133375
0.131777
0.130046
0.128184
0.126193
0.124074
0.12183
0.119464
0.116976
0.114371
0.11165
0.108817
0.105873
0.102823
0.0996688
0.0964141
0.0930619
0.0896157
0.086079
0.0824552
0.0787481
0.0749613
0.0710987
0.0671642
0.0631617
0.0590952
0.0549689
0.0507869
0.0465534
0.0422728
0.0379493
0.0335874
0.0291916
0.0247663
0.0203161
0.0158457
0.0113597
0.00686293
0.0023602
0.00270871
0.00813177
0.0135541
0.0189695
0.0243717
0.0297546
0.0351121
0.0404385
0.0457278
0.0509742
0.0561721
0.0613159
0.0664001
0.0714194
0.0763684
0.0812419
0.0860349
0.0907423
0.0953593
0.0998811
0.104303
0.108621
0.112829
0.116925
0.120903
0.12476
0.128491
0.132094
0.135563
0.138896
0.142089
0.14514
0.148044
0.150799
0.153403
0.155852
0.158144
0.160276
0.162248
0.164056
0.165698
0.167174
0.168481
0.169619
0.170585
0.17138
0.172002
0.17245
0.172725
0.172826
0.172753
0.172505
0.172084
0.171489
0.170721
0.169781
0.16867
0.167389
0.165939
0.164322
0.162539
0.160592
0.158484
0.156215
0.153789
0.151207
0.148474
0.14559
0.142559
0.139385
0.136069
0.132617
0.12903
0.125314
0.12147
0.117504
0.11342
0.10922
0.10491
0.100495
0.095977
0.0913625
0.0866554
0.0818607
0.0769831
0.0720275
0.0669989
0.0619024
0.0567431
0.0515263
0.0462572
0.0409413
0.0355838
0.0301903
0.0247663
0.0193174
0.0138492
0.00836749
0.00287789
0.00318887
0.00957428
0.0159597
0.0223375
0.0287003
0.0350408
0.0413518
0.0476264
0.0538575
0.0600384
0.0661623
0.0722226
0.0782128
0.0841267
0.0899578
0.0957002
0.101348
0.106895
0.112335
0.117663
0.122874
0.127962
0.132921
0.137747
0.142435
0.14698
0.151378
0.155623
0.159712
0.16364
0.167403
0.170998
0.174421
0.177668
0.180737
0.183623
0.186325
0.188839
0.191162
0.193293
0.19523
0.196969
0.198511
0.199852
0.200992
0.201929
0.202663
0.203192
0.203517
0.203637
0.203551
0.20326
0.202765
0.202065
0.201161
0.200054
0.198746
0.197237
0.19553
0.193625
0.191525
0.189232
0.186748
0.184075
0.181217
0.178176
0.174956
0.171558
0.167988
0.164248
0.160342
0.156274
0.152049
0.14767
0.143142
0.138469
0.133656
0.128708
0.12363
0.118427
0.113104
0.107667
0.102121
0.0964712
0.0907238
0.0848845
0.0789591
0.0729537
0.0668742
0.0607268
0.0545178
0.0482533
0.0419399
0.0355838
0.0291916
0.0227698
0.016325
0.00986375
0.00339273
0.00366479
0.0110043
0.0183446
0.0256769
0.0329925
0.040283
0.0475401
0.0547555
0.0619213
0.0690295
0.0760724
0.0830424
0.089932
0.0967339
0.103441
0.110046
0.116542
0.122922
0.12918
0.135309
0.141303
0.147155
0.15286
0.158412
0.163805
0.169033
0.174092
0.178976
0.183679
0.188198
0.192528
0.196664
0.200602
0.204338
0.207868
0.211189
0.214298
0.21719
0.219864
0.222316
0.224545
0.226547
0.228321
0.229864
0.231176
0.232256
0.233101
0.233711
0.234086
0.234224
0.234127
0.233793
0.233224
0.23242
0.231382
0.23011
0.228606
0.226872
0.224909
0.222719
0.220304
0.217667
0.214811
0.211738
0.208451
0.204954
0.20125
0.197343
0.193237
0.188936
0.184444
0.179766
0.174906
0.169869
0.164661
0.159287
0.153752
0.148061
0.14222
0.136235
0.130113
0.123859
0.11748
0.110981
0.10437
0.0976535
0.0908377
0.0839297
0.0769364
0.069865
0.0627225
0.0555162
0.0482533
0.0409413
0.0335874
0.0261993
0.0187844
0.0113501
0.00390418
0.00413599
0.0124203
0.0207064
0.0289843
0.0372441
0.045476
0.0536706
0.0618186
0.0699109
0.0779385
0.0858925
0.0937645
0.101546
0.109228
0.116804
0.124264
0.131601
0.138808
0.145877
0.1528
0.159571
0.166182
0.172626
0.178898
0.18499
0.190897
0.196611
0.202128
0.207442
0.212548
0.217439
0.222112
0.226561
0.230782
0.234771
0.238523
0.242035
0.245304
0.248325
0.251096
0.253614
0.255877
0.257882
0.259627
0.26111
0.26233
0.263286
0.263976
0.264401
0.264559
0.26445
0.264074
0.263433
0.262526
0.261354
0.259918
0.258221
0.256263
0.254046
0.251574
0.248848
0.24587
0.242645
0.239175
0.235463
0.231514
0.227331
0.222919
0.218282
0.213424
0.208351
0.203067
0.197579
0.19189
0.186008
0.179938
0.173686
0.167258
0.160661
0.153902
0.146986
0.139922
0.132717
0.125376
0.117909
0.110322
0.102623
0.0948194
0.0869198
0.0789317
0.0708632
0.0627225
0.0545178
0.0462572
0.0379493
0.0296024
0.0212248
0.0128251
0.0044117
0.00460201
0.0138209
0.0230429
0.0322566
0.0414507
0.0506145
0.0597373
0.0688087
0.0778184
0.0867564
0.0956129
0.104378
0.113043
0.121598
0.130033
0.138341
0.146512
0.154538
0.16241
0.17012
0.17766
0.185023
0.1922
0.199185
0.20597
0.212548
0.218913
0.225058
0.230977
0.236663
0.242112
0.247316
0.252272
0.256974
0.261417
0.265597
0.269509
0.27315
0.276516
0.279604
0.282409
0.28493
0.287164
0.289109
0.290762
0.292122
0.293188
0.293958
0.294432
0.294609
0.29449
0.294073
0.29336
0.292351
0.291047
0.28945
0.287561
0.285382
0.282915
0.280162
0.277127
0.273813
0.270222
0.266359
0.262227
0.25783
0.253173
0.24826
0.243097
0.237688
0.232039
0.226156
0.220045
0.213711
0.207161
0.200401
0.193439
0.186282
0.178935
0.171408
0.163707
0.155841
0.147816
0.139642
0.131326
0.122876
0.114302
0.105612
0.0968142
0.0879178
0.0789317
0.069865
0.0607268
0.0515263
0.0422728
0.0329755
0.0236438
0.0142871
0.00491477
0.00506239
0.0152048
0.0253517
0.0354903
0.0456083
0.0556935
0.0657342
0.0757187
0.0856359
0.0954745
0.105224
0.114873
0.124411
0.133829
0.143116
0.152262
0.161258
0.170094
0.178761
0.18725
0.195552
0.203659
0.211562
0.219253
0.226724
0.233967
0.240976
0.247742
0.254259
0.260521
0.266521
0.272252
0.27771
0.282887
0.287781
0.292384
0.296693
0.300703
0.30441
0.30781
0.310901
0.313678
0.316139
0.318281
0.320103
0.321602
0.322777
0.323627
0.32415
0.324347
0.324216
0.323759
0.322975
0.321866
0.320432
0.318675
0.316597
0.314199
0.311484
0.308455
0.305115
0.301467
0.297515
0.293263
0.288715
0.283875
0.278749
0.273341
0.267658
0.261704
0.255486
0.249009
0.242281
0.235308
0.228098
0.220656
0.212992
0.205112
0.197024
0.188737
0.180259
0.171598
0.162764
0.153764
0.144608
0.135305
0.125865
0.116297
0.10661
0.0968142
0.0869198
0.0769364
0.0668742
0.0567431
0.0465534
0.0363153
0.0260389
0.0157347
0.00541288
0.00551667
0.0165705
0.0276304
0.0386823
0.0497125
0.0607078
0.0716551
0.0825418
0.0933555
0.104084
0.114715
0.125238
0.13564
0.145911
0.156039
0.166014
0.175825
0.185463
0.194916
0.204175
0.21323
0.222072
0.230692
0.239081
0.24723
0.255131
0.262776
0.270157
0.277266
0.284097
0.290642
0.296894
0.302848
0.308497
0.313835
0.318857
0.323558
0.327934
0.331978
0.335689
0.339061
0.342092
0.344777
0.347116
0.349104
0.350741
0.352024
0.352953
0.353525
0.353741
0.353601
0.353104
0.352251
0.351042
0.34948
0.347565
0.3453
0.342686
0.339727
0.336425
0.332784
0.328807
0.324498
0.319861
0.314902
0.309625
0.304035
0.298138
0.29194
0.285448
0.278667
0.271604
0.264267
0.256663
0.248799
0.240684
0.232325
0.223731
0.21491
0.205872
0.196626
0.18718
0.177544
0.167728
0.157742
0.147595
0.137299
0.126862
0.116297
0.105612
0.0948194
0.0839297
0.0729537
0.0619024
0.0507869
0.0396183
0.0284077
0.0171664
0.00590552
0.0059644
0.0179168
0.0298769
0.0418294
0.0537595
0.0656525
0.0774943
0.0892711
0.10097
0.112576
0.124078
0.135463
0.146718
0.15783
0.168789
0.179583
0.190199
0.200627
0.210857
0.220876
0.230675
0.240243
0.249572
0.25865
0.267469
0.27602
0.284293
0.292281
0.299975
0.307368
0.314452
0.321219
0.327663
0.333777
0.339555
0.344991
0.350079
0.354815
0.359194
0.363211
0.366862
0.370143
0.373051
0.375583
0.377737
0.37951
0.3809
0.381906
0.382528
0.382763
0.382613
0.382077
0.381156
0.37985
0.378162
0.376091
0.373642
0.370816
0.367615
0.364044
0.360105
0.355803
0.351142
0.346126
0.340761
0.335052
0.329005
0.322626
0.31592
0.308896
0.301559
0.293918
0.285979
0.277752
0.269243
0.260463
0.251418
0.242119
0.232575
0.222796
0.21279
0.202569
0.192143
0.181521
0.170715
0.159735
0.148593
0.137299
0.125865
0.114302
0.102623
0.0908377
0.0789591
0.0669989
0.0549689
0.0428811
0.0307477
0.0185807
0.00639219
0.00640513
0.0192422
0.0320889
0.0449285
0.057745
0.0705225
0.0832458
0.0959
0.10847
0.120943
0.133303
0.145538
0.157633
0.169576
0.181354
0.192955
0.204365
0.215574
0.226568
0.237337
0.24787
0.258155
0.268182
0.27794
0.28742
0.296612
0.305505
0.314092
0.322364
0.330311
0.337926
0.345201
0.352129
0.358702
0.364914
0.370758
0.37623
0.381322
0.38603
0.390349
0.394275
0.397804
0.400931
0.403655
0.405972
0.407879
0.409376
0.410459
0.411129
0.411385
0.411225
0.410651
0.409663
0.408262
0.406448
0.404225
0.401595
0.398559
0.39512
0.391284
0.387052
0.38243
0.377422
0.372032
0.366268
0.360133
0.353635
0.346779
0.339574
0.332025
0.32414
0.315928
0.307397
0.298555
0.289411
0.279974
0.270253
0.260259
0.250002
0.239491
0.228737
0.217751
0.206545
0.195128
0.183513
0.171711
0.159735
0.147595
0.135305
0.122876
0.110322
0.0976535
0.0848845
0.0720275
0.0590952
0.0461006
0.0330566
0.0199762
0.00687239
0.00683842
0.0205455
0.0342641
0.0479765
0.0616651
0.0753131
0.088904
0.102422
0.11585
0.129175
0.142381
0.155452
0.168375
0.181136
0.193721
0.206117
0.218309
0.230286
0.242034
0.253542
0.264798
0.275789
0.286504
0.296933
0.307064
0.316887
0.326392
0.335569
0.344409
0.352903
0.361041
0.368817
0.376221
0.383247
0.389887
0.396134
0.401983
0.407426
0.412459
0.417077
0.421274
0.425047
0.428391
0.431304
0.433781
0.435822
0.437423
0.438583
0.439301
0.439577
0.439408
0.438797
0.437743
0.436248
0.434313
0.431939
0.42913
0.425888
0.422216
0.418118
0.413598
0.408661
0.403311
0.397554
0.391395
0.384842
0.377899
0.370575
0.362877
0.354812
0.346388
0.337614
0.328499
0.319051
0.309281
0.299198
0.288812
0.278133
0.267172
0.255941
0.24445
0.232711
0.220736
0.208536
0.196125
0.183513
0.170715
0.157742
0.144608
0.131326
0.117909
0.10437
0.0907238
0.0769831
0.0631617
0.0492734
0.0353321
0.0213515
0.00734564
0.00726384
0.0218253
0.0364005
0.0509703
0.065516
0.0800195
0.0944631
0.10883
0.123103
0.137265
0.151302
0.165197
0.178934
0.192499
0.205878
0.219055
0.232017
0.24475
0.25724
0.269475
0.281442
0.293127
0.30452
0.315608
0.32638
0.336824
0.346931
0.356689
0.366089
0.37512
0.383775
0.392043
0.399917
0.407389
0.41445
0.421094
0.427313
0.433103
0.438456
0.443367
0.447831
0.451845
0.455402
0.458501
0.461138
0.46331
0.465014
0.46625
0.467016
0.467311
0.467134
0.466487
0.465369
0.463781
0.461726
0.459205
0.456221
0.452776
0.448874
0.44452
0.439716
0.434469
0.428784
0.422665
0.41612
0.409154
0.401775
0.39399
0.385807
0.377234
0.36828
0.358953
0.349264
0.339221
0.328834
0.318115
0.307074
0.295722
0.28407
0.27213
0.259914
0.247433
0.234702
0.221732
0.208536
0.195128
0.181521
0.167728
0.153764
0.139642
0.125376
0.110981
0.0964712
0.0818607
0.0671642
0.0523963
0.0375718
0.0227052
0.00781146
0.00768097
0.0230803
0.0384958
0.0539069
0.0692937
0.0846369
0.0999177
0.115118
0.130219
0.145205
0.160058
0.174761
0.189298
0.203654
0.217812
0.231757
0.245475
0.258951
0.272171
0.28512
0.297785
0.310154
0.322212
0.333948
0.34535
0.356405
0.367103
0.377432
0.387382
0.396943
0.406104
0.414857
0.423192
0.431102
0.438577
0.445611
0.452196
0.458326
0.463993
0.469194
0.473921
0.478171
0.481939
0.485221
0.488014
0.490315
0.492122
0.493433
0.494245
0.49456
0.494376
0.493693
0.492512
0.490835
0.488662
0.485996
0.48284
0.479196
0.475069
0.470463
0.465381
0.45983
0.453815
0.447341
0.440416
0.433045
0.425237
0.417
0.408341
0.399269
0.389794
0.379925
0.369671
0.359043
0.348051
0.336708
0.325023
0.313009
0.300677
0.288041
0.275112
0.261904
0.248429
0.234702
0.220736
0.206545
0.192143
0.177544
0.162764
0.147816
0.132717
0.11748
0.102121
0.0866554
0.0710987
0.0554662
0.0397735
0.024036
0.00826939
0.00808939
0.0243094
0.0405481
0.0567835
0.0729946
0.0891608
0.105262
0.12128
0.137194
0.152987
0.16864
0.184136
0.199458
0.214589
0.229512
0.244211
0.258671
0.272876
0.28681
0.300461
0.313812
0.32685
0.339562
0.351935
0.363954
0.375609
0.386888
0.397777
0.408268
0.418347
0.428007
0.437235
0.446024
0.454364
0.462246
0.469663
0.476606
0.48307
0.489047
0.494531
0.499517
0.504
0.507974
0.511437
0.514384
0.516812
0.518719
0.520103
0.520963
0.521297
0.521106
0.520388
0.519146
0.517381
0.515093
0.512285
0.508961
0.505123
0.500775
0.495922
0.490568
0.484718
0.478379
0.471558
0.464259
0.456492
0.448264
0.439582
0.430457
0.420896
0.410909
0.400507
0.3897
0.378498
0.366913
0.354956
0.34264
0.329976
0.316978
0.303658
0.29003
0.276107
0.261904
0.247433
0.232711
0.217751
0.202569
0.18718
0.171598
0.155841
0.139922
0.123859
0.107667
0.0913625
0.0749613
0.05848
0.0419349
0.0253424
0.00871896
0.00848871
0.0255113
0.0425552
0.0595972
0.0766149
0.0935867
0.110492
0.127309
0.144019
0.160602
0.17704
0.193313
0.209403
0.225293
0.240965
0.256403
0.27159
0.286509
0.301145
0.315482
0.329506
0.343201
0.356553
0.369549
0.382175
0.394418
0.406265
0.417705
0.428724
0.439313
0.449461
0.459156
0.468389
0.47715
0.485432
0.493224
0.50052
0.507311
0.513592
0.519355
0.524594
0.529305
0.533482
0.537122
0.54022
0.542773
0.544779
0.546236
0.547141
0.547495
0.547297
0.546547
0.545245
0.543393
0.540993
0.538047
0.534558
0.53053
0.525966
0.520871
0.51525
0.509108
0.502453
0.49529
0.487627
0.479471
0.470831
0.461715
0.452132
0.442092
0.431604
0.42068
0.409331
0.397567
0.3854
0.372843
0.359908
0.346608
0.332956
0.318967
0.304653
0.29003
0.275112
0.259914
0.24445
0.228737
0.21279
0.196626
0.180259
0.163707
0.146986
0.130113
0.113104
0.095977
0.0787481
0.0614347
0.044054
0.0266233
0.00915972
0.00887853
0.0266849
0.0445152
0.0623452
0.0801511
0.0979103
0.1156
0.1332
0.150688
0.168044
0.185248
0.202281
0.219123
0.235756
0.252162
0.268322
0.28422
0.299838
0.31516
0.33017
0.344851
0.359189
0.373168
0.386775
0.399994
0.412812
0.425216
0.437194
0.448732
0.45982
0.470445
0.480597
0.490265
0.49944
0.508112
0.516272
0.523913
0.531025
0.537603
0.543639
0.549127
0.554062
0.558438
0.562251
0.565497
0.568173
0.570276
0.571804
0.572755
0.573129
0.572924
0.572142
0.570782
0.568846
0.566337
0.563256
0.559606
0.555391
0.550616
0.545285
0.539403
0.532977
0.526012
0.518516
0.510496
0.50196
0.492917
0.483375
0.473345
0.462836
0.451859
0.440424
0.428544
0.41623
0.403494
0.39035
0.376809
0.362887
0.348596
0.333951
0.318967
0.303658
0.288041
0.27213
0.255941
0.239491
0.222796
0.205872
0.188737
0.171408
0.153902
0.136235
0.118427
0.100495
0.0824552
0.0643273
0.0461286
0.0278772
0.00959122
0.00925846
0.0278289
0.0464262
0.0650247
0.0835997
0.102127
0.120584
0.138947
0.157195
0.175305
0.193258
0.211033
0.228609
0.245968
0.26309
0.279956
0.296549
0.31285
0.328842
0.344509
0.359833
0.374799
0.389391
0.403594
0.417393
0.430774
0.443722
0.456226
0.468271
0.479846
0.490938
0.501537
0.511631
0.52121
0.530264
0.538784
0.546762
0.554189
0.561057
0.56736
0.573091
0.578245
0.582816
0.586799
0.59019
0.592986
0.595185
0.596783
0.597779
0.598172
0.597962
0.597148
0.595732
0.593715
0.591099
0.587886
0.584079
0.579683
0.574702
0.56914
0.563004
0.556299
0.549032
0.541211
0.532842
0.523935
0.514499
0.504542
0.494075
0.483108
0.471652
0.459719
0.447321
0.434469
0.421178
0.407459
0.393327
0.378796
0.363881
0.348596
0.332956
0.316978
0.300677
0.28407
0.267172
0.250002
0.232575
0.21491
0.197024
0.178935
0.160661
0.14222
0.12363
0.10491
0.086079
0.0671548
0.0481565
0.029103
0.010013
0.00962812
0.0289422
0.0482862
0.0676331
0.0869571
0.106233
0.125436
0.144544
0.163532
0.182378
0.201061
0.219559
0.237852
0.255918
0.273738
0.291293
0.308563
0.325531
0.342177
0.358485
0.374436
0.390015
0.405205
0.41999
0.434355
0.448285
0.461765
0.474782
0.487322
0.499372
0.510921
0.521955
0.532465
0.542438
0.551866
0.560737
0.569044
0.576778
0.58393
0.590494
0.596463
0.601831
0.606592
0.610741
0.614275
0.617189
0.61948
0.621147
0.622188
0.6226
0.622385
0.621541
0.620071
0.617974
0.615254
0.611913
0.607954
0.603381
0.598199
0.592413
0.586029
0.579053
0.571491
0.563353
0.554644
0.545376
0.535555
0.525194
0.514301
0.502887
0.490965