# vtk DataFile Version 3.0
Malha 2D com triângulos e temperatura
ASCII
DATASET UNSTRUCTURED_GRID

POINTS 400 double
0 0 0
1 0 0
1 1 0
0 1 0
0.0526316 0 0
0.105263 0 0
0.157895 0 0
0.210526 0 0
0.263158 0 0
0.315789 0 0
0.368421 0 0
0.421053 0 0
0.473684 0 0
0.526316 0 0
0.578947 0 0
0.631579 0 0
0.684211 0 0
0.736842 0 0
0.789474 0 0
0.842105 0 0
0.894737 0 0
0.947368 0 0
1 0.0526316 0
1 0.105263 0
1 0.157895 0
1 0.210526 0
1 0.263158 0
1 0.315789 0
1 0.368421 0
1 0.421053 0
1 0.473684 0
1 0.526316 0
1 0.578947 0
1 0.631579 0
1 0.684211 0
1 0.736842 0
1 0.789474 0
1 0.842105 0
1 0.894737 0
1 0.947368 0
0.947368 1 0
0.894737 1 0
0.842105 1 0
0.789474 1 0
0.736842 1 0
0.684211 1 0
0.631579 1 0
0.578947 1 0
0.526316 1 0
0.473684 1 0
0.421053 1 0
0.368421 1 0
0.315789 1 0
0.263158 1 0
0.210526 1 0
0.157895 1 0
0.105263 1 0
0.0526316 1 0
0 0.947368 0
0 0.894737 0
0 0.842105 0
0 0.789474 0
0 0.736842 0
0 0.684211 0
0 0.631579 0
0 0.578947 0
0 0.526316 0
0 0.473684 0
0 0.421053 0
0 0.368421 0
0 0.315789 0
0 0.263158 0
0 0.210526 0
0 0.157895 0
0 0.105263 0
0 0.0526316 0
0.0526316 0.947368 0
0.0526316 0.894737 0
0.0526316 0.842105 0
0.0526316 0.789474 0
0.0526316 0.736842 0
0.0526316 0.684211 0
0.0526316 0.631579 0
0.0526316 0.578947 0
0.0526316 0.526316 0
0.0526316 0.473684 0
0.0526316 0.421053 0
0.0526316 0.368421 0
0.0526316 0.315789 0
0.0526316 0.263158 0
0.0526316 0.210526 0
0.0526316 0.157895 0
0.0526316 0.105263 0
0.0526316 0.0526316 0
0.105263 0.947368 0
0.105263 0.894737 0
0.105263 0.842105 0
0.105263 0.789474 0
0.105263 0.736842 0
0.105263 0.684211 0
0.105263 0.631579 0
0.105263 0.578947 0
0.105263 0.526316 0
0.105263 0.473684 0
0.105263 0.421053 0
0.105263 0.368421 0
0.105263 0.315789 0
0.105263 0.263158 0
0.105263 0.210526 0
0.105263 0.157895 0
0.105263 0.105263 0
0.105263 0.0526316 0
0.157895 0.947368 0
0.157895 0.894737 0
0.157895 0.842105 0
0.157895 0.789474 0
0.157895 0.736842 0
0.157895 0.684211 0
0.157895 0.631579 0
0.157895 0.578947 0
0.157895 0.526316 0
0.157895 0.473684 0
0.157895 0.421053 0
0.157895 0.368421 0
0.157895 0.315789 0
0.157895 0.263158 0
0.157895 0.210526 0
0.157895 0.157895 0
0.157895 0.105263 0
0.157895 0.0526316 0
0.210526 0.947368 0
0.210526 0.894737 0
0.210526 0.842105 0
0.210526 0.789474 0
0.210526 0.736842 0
0.210526 0.684211 0
0.210526 0.631579 0
0.210526 0.578947 0
0.210526 0.526316 0
0.210526 0.473684 0
0.210526 0.421053 0
0.210526 0.368421 0
0.210526 0.315789 0
0.210526 0.263158 0
0.210526 0.210526 0
0.210526 0.157895 0
0.210526 0.105263 0
0.210526 0.0526316 0
0.263158 0.947368 0
0.263158 0.894737 0
0.263158 0.842105 0
0.263158 0.789474 0
0.263158 0.736842 0
0.263158 0.684211 0
0.263158 0.631579 0
0.263158 0.578947 0
0.263158 0.526316 0
0.263158 0.473684 0
0.263158 0.421053 0
0.263158 0.368421 0
0.263158 0.315789 0
0.263158 0.263158 0
0.263158 0.210526 0
0.263158 0.157895 0
0.263158 0.105263 0
0.263158 0.0526316 0
0.315789 0.947368 0
0.315789 0.894737 0
0.315789 0.842105 0
0.315789 0.789474 0
0.315789 0.736842 0
0.315789 0.684211 0
0.315789 0.631579 0
0.315789 0.578947 0
0.315789 0.526316 0
0.315789 0.473684 0
0.315789 0.421053 0
0.315789 0.368421 0
0.315789 0.315789 0
0.315789 0.263158 0
0.315789 0.210526 0
0.315789 0.157895 0
0.315789 0.105263 0
0.315789 0.0526316 0
0.368421 0.947368 0
0.368421 0.894737 0
0.368421 0.842105 0
0.368421 0.789474 0
0.368421 0.736842 0
0.368421 0.684211 0
0.368421 0.631579 0
0.368421 0.578947 0
0.368421 0.526316 0
0.368421 0.473684 0
0.368421 0.421053 0
0.368421 0.368421 0
0.368421 0.315789 0
0.368421 0.263158 0
0.368421 0.210526 0
0.368421 0.157895 0
0.368421 0.105263 0
0.368421 0.0526316 0
0.421053 0.947368 0
0.421053 0.894737 0
0.421053 0.842105 0
0.421053 0.789474 0
0.421053 0.736842 0
0.421053 0.684211 0
0.421053 0.631579 0
0.421053 0.578947 0
0.421053 0.526316 0
0.421053 0.473684 0
0.421053 0.421053 0
0.421053 0.368421 0
0.421053 0.315789 0
0.421053 0.263158 0
0.421053 0.210526 0
0.421053 0.157895 0
0.421053 0.105263 0
0.421053 0.0526316 0
0.473684 0.947368 0
0.473684 0.894737 0
0.473684 0.842105 0
0.473684 0.789474 0
0.473684 0.736842 0
0.473684 0.684211 0
0.473684 0.631579 0
0.473684 0.578947 0
0.473684 0.526316 0
0.473684 0.473684 0
0.473684 0.421053 0
0.473684 0.368421 0
0.473684 0.315789 0
0.473684 0.263158 0
0.473684 0.210526 0
0.473684 0.157895 0
0.473684 0.105263 0
0.473684 0.0526316 0
0.526316 0.947368 0
0.526316 0.894737 0
0.526316 0.842105 0
0.526316 0.789474 0
0.526316 0.736842 0
0.526316 0.684211 0
0.526316 0.631579 0
0.526316 0.578947 0
0.526316 0.526316 0
0.526316 0.473684 0
0.526316 0.421053 0
0.526316 0.368421 0
0.526316 0.315789 0
0.526316 0.263158 0
0.526316 0.210526 0
0.526316 0.157895 0
0.526316 0.105263 0
0.526316 0.0526316 0
0.578947 0.947368 0
0.578947 0.894737 0
0.578947 0.842105 0
0.578947 0.789474 0
0.578947 0.736842 0
0.578947 0.684211 0
0.578947 0.631579 0
0.578947 0.578947 0
0.578947 0.526316 0
0.578947 0.473684 0
0.578947 0.421053 0
0.578947 0.368421 0
0.578947 0.315789 0
0.578947 0.263158 0
0.578947 0.210526 0
0.578947 0.157895 0
0.578947 0.105263 0
0.578947 0.0526316 0
0.631579 0.947368 0
0.631579 0.894737 0
0.631579 0.842105 0
0.631579 0.789474 0
0.631579 0.736842 0
0.631579 0.684211 0
0.631579 0.631579 0
0.631579 0.578947 0
0.631579 0.526316 0
0.631579 0.473684 0
0.631579 0.421053 0
0.631579 0.368421 0
0.631579 0.315789 0
0.631579 0.263158 0
0.631579 0.210526 0
0.631579 0.157895 0
0.631579 0.105263 0
0.631579 0.0526316 0
0.684211 0.947368 0
0.684211 0.894737 0
0.684211 0.842105 0
0.684211 0.789474 0
0.684211 0.736842 0
0.684211 0.684211 0
0.684211 0.631579 0
0.684211 0.578947 0
0.684211 0.526316 0
0.684211 0.473684 0
0.684211 0.421053 0
0.684211 0.368421 0
0.684211 0.315789 0
0.684211 0.263158 0
0.684211 0.210526 0
0.684211 0.157895 0
0.684211 0.105263 0
0.684211 0.0526316 0
0.736842 0.947368 0
0.736842 0.894737 0
0.736842 0.842105 0
0.736842 0.789474 0
0.736842 0.736842 0
0.736842 0.684211 0
0.736842 0.631579 0
0.736842 0.578947 0
0.736842 0.526316 0
0.736842 0.473684 0
0.736842 0.421053 0
0.736842 0.368421 0
0.736842 0.315789 0
0.736842 0.263158 0
0.736842 0.210526 0
0.736842 0.157895 0
0.736842 0.105263 0
0.736842 0.0526316 0
0.789474 0.947368 0
0.789474 0.894737 0
0.789474 0.842105 0
0.789474 0.789474 0
0.789474 0.736842 0
0.789474 0.684211 0
0.789474 0.631579 0
0.789474 0.578947 0
0.789474 0.526316 0
0.789474 0.473684 0
0.789474 0.421053 0
0.789474 0.368421 0
0.789474 0.315789 0
0.789474 0.263158 0
0.789474 0.210526 0
0.789474 0.157895 0
0.789474 0.105263 0
0.789474 0.0526316 0
0.842105 0.947368 0
0.842105 0.894737 0
0.842105 0.842105 0
0.842105 0.789474 0
0.842105 0.736842 0
0.842105 0.684211 0
0.842105 0.631579 0
0.842105 0.578947 0
0.842105 0.526316 0
0.842105 0.473684 0
0.842105 0.421053 0
0.842105 0.368421 0
0.842105 0.315789 0
0.842105 0.263158 0
0.842105 0.210526 0
0.842105 0.157895 0
0.842105 0.105263 0
0.842105 0.0526316 0
0.894737 0.947368 0
0.894737 0.894737 0
0.894737 0.842105 0
0.894737 0.789474 0
0.894737 0.736842 0
0.894737 0.684211 0
0.894737 0.631579 0
0.894737 0.578947 0
0.894737 0.526316 0
0.894737 0.473684 0
0.894737 0.421053 0
0.894737 0.368421 0
0.894737 0.315789 0
0.894737 0.263158 0
0.894737 0.210526 0
0.894737 0.157895 0
0.894737 0.105263 0
0.894737 0.0526316 0
0.947368 0.947368 0
0.947368 0.894737 0
0.947368 0.842105 0
0.947368 0.789474 0
0.947368 0.736842 0
0.947368 0.684211 0
0.947368 0.631579 0
0.947368 0.578947 0
0.947368 0.526316 0
0.947368 0.473684 0
0.947368 0.421053 0
0.947368 0.368421 0
0.947368 0.315789 0
0.947368 0.263158 0
0.947368 0.210526 0
0.947368 0.157895 0
0.947368 0.105263 0
0.947368 0.0526316 0

CELLS 361 1805
4 3 58 76 57
4 58 59 77 76
4 59 60 78 77
4 60 61 79 78
4 61 62 80 79
4 62 63 81 80
4 63 64 82 81
4 64 65 83 82
4 65 66 84 83
4 66 67 85 84
4 67 68 86 85
4 68 69 87 86
4 69 70 88 87
4 70 71 89 88
4 71 72 90 89
4 72 73 91 90
4 73 74 92 91
4 74 75 93 92
4 75 0 4 93
4 57 76 94 56
4 76 77 95 94
4 77 78 96 95
4 78 79 97 96
4 79 80 98 97
4 80 81 99 98
4 81 82 100 99
4 82 83 101 100
4 83 84 102 101
4 84 85 103 102
4 85 86 104 103
4 86 87 105 104
4 87 88 106 105
4 88 89 107 106
4 89 90 108 107
4 90 91 109 108
4 91 92 110 109
4 92 93 111 110
4 93 4 5 111
4 56 94 112 55
4 94 95 113 112
4 95 96 114 113
4 96 97 115 114
4 97 98 116 115
4 98 99 117 116
4 99 100 118 117
4 100 101 119 118
4 101 102 120 119
4 102 103 121 120
4 103 104 122 121
4 104 105 123 122
4 105 106 124 123
4 106 107 125 124
4 107 108 126 125
4 108 109 127 126
4 109 110 128 127
4 110 111 129 128
4 111 5 6 129
4 55 112 130 54
4 112 113 131 130
4 113 114 132 131
4 114 115 133 132
4 115 116 134 133
4 116 117 135 134
4 117 118 136 135
4 118 119 137 136
4 119 120 138 137
4 120 121 139 138
4 121 122 140 139
4 122 123 141 140
4 123 124 142 141
4 124 125 143 142
4 125 126 144 143
4 126 127 145 144
4 127 128 146 145
4 128 129 147 146
4 129 6 7 147
4 54 130 148 53
4 130 131 149 148
4 131 132 150 149
4 132 133 151 150
4 133 134 152 151
4 134 135 153 152
4 135 136 154 153
4 136 137 155 154
4 137 138 156 155
4 138 139 157 156
4 139 140 158 157
4 140 141 159 158
4 141 142 160 159
4 142 143 161 160
4 143 144 162 161
4 144 145 163 162
4 145 146 164 163
4 146 147 165 164
4 147 7 8 165
4 53 148 166 52
4 148 149 167 166
4 149 150 168 167
4 150 151 169 168
4 151 152 170 169
4 152 153 171 170
4 153 154 172 171
4 154 155 173 172
4 155 156 174 173
4 156 157 175 174
4 157 158 176 175
4 158 159 177 176
4 159 160 178 177
4 160 161 179 178
4 161 162 180 179
4 162 163 181 180
4 163 164 182 181
4 164 165 183 182
4 165 8 9 183
4 52 166 184 51
4 166 167 185 184
4 167 168 186 185
4 168 169 187 186
4 169 170 188 187
4 170 171 189 188
4 171 172 190 189
4 172 173 191 190
4 173 174 192 191
4 174 175 193 192
4 175 176 194 193
4 176 177 195 194
4 177 178 196 195
4 178 179 197 196
4 179 180 198 197
4 180 181 199 198
4 181 182 200 199
4 182 183 201 200
4 183 9 10 201
4 51 184 202 50
4 184 185 203 202
4 185 186 204 203
4 186 187 205 204
4 187 188 206 205
4 188 189 207 206
4 189 190 208 207
4 190 191 209 208
4 191 192 210 209
4 192 193 211 210
4 193 194 212 211
4 194 195 213 212
4 195 196 214 213
4 196 197 215 214
4 197 198 216 215
4 198 199 217 216
4 199 200 218 217
4 200 201 219 218
4 201 10 11 219
4 50 202 220 49
4 202 203 221 220
4 203 204 222 221
4 204 205 223 222
4 205 206 224 223
4 206 207 225 224
4 207 208 226 225
4 208 209 227 226
4 209 210 228 227
4 210 211 229 228
4 211 212 230 229
4 212 213 231 230
4 213 214 232 231
4 214 215 233 232
4 215 216 234 233
4 216 217 235 234
4 217 218 236 235
4 218 219 237 236
4 219 11 12 237
4 49 220 238 48
4 220 221 239 238
4 221 222 240 239
4 222 223 241 240
4 223 224 242 241
4 224 225 243 242
4 225 226 244 243
4 226 227 245 244
4 227 228 246 245
4 228 229 247 246
4 229 230 248 247
4 230 231 249 248
4 231 232 250 249
4 232 233 251 250
4 233 234 252 251
4 234 235 253 252
4 235 236 254 253
4 236 237 255 254
4 237 12 13 255
4 48 238 256 47
4 238 239 257 256
4 239 240 258 257
4 240 241 259 258
4 241 242 260 259
4 242 243 261 260
4 243 244 262 261
4 244 245 263 262
4 245 246 264 263
4 246 247 265 264
4 247 248 266 265
4 248 249 267 266
4 249 250 268 267
4 250 251 269 268
4 251 252 270 269
4 252 253 271 270
4 253 254 272 271
4 254 255 273 272
4 255 13 14 273
4 47 256 274 46
4 256 257 275 274
4 257 258 276 275
4 258 259 277 276
4 259 260 278 277
4 260 261 279 278
4 261 262 280 279
4 262 263 281 280
4 263 264 282 281
4 264 265 283 282
4 265 266 284 283
4 266 267 285 284
4 267 268 286 285
4 268 269 287 286
4 269 270 288 287
4 270 271 289 288
4 271 272 290 289
4 272 273 291 290
4 273 14 15 291
4 46 274 292 45
4 274 275 293 292
4 275 276 294 293
4 276 277 295 294
4 277 278 296 295
4 278 279 297 296
4 279 280 298 297
4 280 281 299 298
4 281 282 300 299
4 282 283 301 300
4 283 284 302 301
4 284 285 303 302
4 285 286 304 303
4 286 287 305 304
4 287 288 306 305
4 288 289 307 306
4 289 290 308 307
4 290 291 309 308
4 291 15 16 309
4 45 292 310 44
4 292 293 311 310
4 293 294 312 311
4 294 295 313 312
4 295 296 314 313
4 296 297 315 314
4 297 298 316 315
4 298 299 317 316
4 299 300 318 317
4 300 301 319 318
4 301 302 320 319
4 302 303 321 320
4 303 304 322 321
4 304 305 323 322
4 305 306 324 323
4 306 307 325 324
4 307 308 326 325
4 308 309 327 326
4 309 16 17 327
4 44 310 328 43
4 310 311 329 328
4 311 312 330 329
4 312 313 331 330
4 313 314 332 331
4 314 315 333 332
4 315 316 334 333
4 316 317 335 334
4 317 318 336 335
4 318 319 337 336
4 319 320 338 337
4 320 321 339 338
4 321 322 340 339
4 322 323 341 340
4 323 324 342 341
4 324 325 343 342
4 325 326 344 343
4 326 327 345 344
4 327 17 18 345
4 43 328 346 42
4 328 329 347 346
4 329 330 348 347
4 330 331 349 348
4 331 332 350 349
4 332 333 351 350
4 333 334 352 351
4 334 335 353 352
4 335 336 354 353
4 336 337 355 354
4 337 338 356 355
4 338 339 357 356
4 339 340 358 357
4 340 341 359 358
4 341 342 360 359
4 342 343 361 360
4 343 344 362 361
4 344 345 363 362
4 345 18 19 363
4 42 346 364 41
4 346 347 365 364
4 347 348 366 365
4 348 349 367 366
4 349 350 368 367
4 350 351 369 368
4 351 352 370 369
4 352 353 371 370
4 353 354 372 371
4 354 355 373 372
4 355 356 374 373
4 356 357 375 374
4 357 358 376 375
4 358 359 377 376
4 359 360 378 377
4 360 361 379 378
4 361 362 380 379
4 362 363 381 380
4 363 19 20 381
4 41 364 382 40
4 364 365 383 382
4 365 366 384 383
4 366 367 385 384
4 367 368 386 385
4 368 369 387 386
4 369 370 388 387
4 370 371 389 388
4 371 372 390 389
4 372 373 391 390
4 373 374 392 391
4 374 375 393 392
4 375 376 394 393
4 376 377 395 394
4 377 378 396 395
4 378 379 397 396
4 379 380 398 397
4 380 381 399 398
4 381 20 21 399
4 40 382 39 2
4 382 383 38 39
4 383 384 37 38
4 384 385 36 37
4 385 386 35 36
4 386 387 34 35
4 387 388 33 34
4 388 389 32 33
4 389 390 31 32
4 390 391 30 31
4 391 392 29 30
4 392 393 28 29
4 393 394 27 28
4 394 395 26 27
4 395 396 25 26
4 396 397 24 25
4 397 398 23 24
4 398 399 22 23
4 399 21 1 22

CELL_TYPES 361
9
9
9
9
9
9
9
9
9
9
9
9
9
9
9
9
9
9
9
9
9
9
9
9
9
9
9
9
9
9
9
9
9
9
9
9
9
9
9
9
9
9
9
9
9
9
9
9
9
9
9
9
9
9
9
9
9
9
9
9
9
9
9
9
9
9
9
9
9
9
9
9
9
9
9
9
9
9
9
9
9
9
9
9
9
9
9
9
9
9
9
9
9
9
9
9
9
9
9
9
9
9
9
9
9
9
9
9
9
9
9
9
9
9
9
9
9
9
9
9
9
9
9
9
9
9
9
9
9
9
9
9
9
9
9
9
9
9
9
9
9
9
9
9
9
9
9
9
9
9
9
9
9
9
9
9
9
9
9
9
9
9
9
9
9
9
9
9
9
9
9
9
9
9
9
9
9
9
9
9
9
9
9
9
9
9
9
9
9
9
9
9
9
9
9
9
9
9
9
9
9
9
9
9
9
9
9
9
9
9
9
9
9
9
9
9
9
9
9
9
9
9
9
9
9
9
9
9
9
9
9
9
9
9
9
9
9
9
9
9
9
9
9
9
9
9
9
9
9
9
9
9
9
9
9
9
9
9
9
9
9
9
9
9
9
9
9
9
9
9
9
9
9
9
9
9
9
9
9
9
9
9
9
9
9
9
9
9
9
9
9
9
9
9
9
9
9
9
9
9
9
9
9
9
9
9
9
9
9
9
9
9
9
9
9
9
9
9
9
9
9
9
9
9
9
9
9
9
9
9
9
9
9
9
9
9
9
9
9
9
9
9
9
9
9
9
9
9
9
9
9
9
9
9
9
9
9
9
9
9
9

CELL_DATA 361
SCALARS Temperatura double 1
LOOKUP_TABLE default
0.0078946
0.023223
0.0379463
0.0516871
0.0640561
0.0747006
0.0833196
0.0896714
0.0935789
0.0949331
0.0936962
0.0899017
0.0836543
0.0751272
0.0645585
0.052248
0.0385553
0.0239088
0.00884977
0.0198617
0.0594207
0.0976954
0.133537
0.16588
0.193778
0.216434
0.233205
0.243619
0.247386
0.244397
0.234735
0.218664
0.19663
0.169248
0.137292
0.101682
0.0634835
0.0239088
0.0305966
0.092537
0.152878
0.209589
0.260889
0.30524
0.341352
0.36819
0.384993
0.391286
0.386889
0.371917
0.346779
0.312169
0.269044
0.218609
0.162286
0.101682
0.0385553
0.0398968
0.121794
0.202126
0.277919
0.346669
0.406249
0.454893
0.491189
0.514097
0.522963
0.517528
0.497927
0.464692
0.418728
0.361294
0.293969
0.218609
0.137292
0.052248
0.0475685
0.146508
0.244235
0.336828
0.421063
0.494252
0.554177
0.599073
0.627639
0.639047
0.632955
0.609507
0.569325
0.513492
0.443517
0.361294
0.269044
0.169248
0.0645585
0.0534523
0.166111
0.2782
0.384872
0.482226
0.567047
0.636704
0.689111
0.722727
0.736563
0.730194
0.703755
0.657932
0.593942
0.513492
0.418728
0.312169
0.19663
0.0751272
0.0574347
0.180176
0.303235
0.420908
0.528671
0.622839
0.700417
0.759038
0.79695
0.813019
0.806737
0.778216
0.728179
0.657932
0.569325
0.464692
0.346779
0.218664
0.0836543
0.0594533
0.188424
0.3188
0.444117
0.559309
0.66029
0.743762
0.807123
0.848448
0.866476
0.86062
0.830956
0.778216
0.703755
0.609507
0.497927
0.371917
0.234735
0.0899017
0.0595003
0.190739
0.324617
0.454035
0.573483
0.678561
0.765734
0.832224
0.875969
0.895608
0.890481
0.86062
0.806737
0.730194
0.632955
0.517528
0.386889
0.244397
0.0936962
0.0576245
0.18717
0.32068
0.450566
0.570993
0.677339
0.765912
0.83382
0.87891
0.899747
0.895608
0.866476
0.813019
0.736563
0.639047
0.522963
0.391286
0.247386
0.0949331
0.0539342
0.177947
0.307272
0.434002
0.552111
0.656859
0.744484
0.812044
0.857345
0.87891
0.875969
0.848448
0.79695
0.722727
0.627639
0.514097
0.384993
0.243619
0.0935789
0.0485996
0.163479
0.284968
0.405034
0.5176
0.617923
0.702263
0.767697
0.812044
0.83382
0.832224
0.807123
0.759038
0.689111
0.599073
0.491189
0.36819
0.233205
0.0896714
0.041859
0.144372
0.25466
0.364769
0.468729
0.561915
0.640701
0.702263
0.744484
0.765912
0.765734
0.743762
0.700417
0.636704
0.554177
0.454893
0.341352
0.216434
0.0833196
0.0340291
0.121449
0.217576
0.31476
0.407301
0.490824
0.561915
0.617923
0.656859
0.677339
0.678561
0.66029
0.622839
0.567047
0.494252
0.406249
0.30524
0.193778
0.0747006
0.0255239
0.0957935
0.17534
0.257062
0.335714
0.407301
0.468729
0.5176
0.552111
0.570993
0.573483
0.559309
0.528671
0.482226
0.421063
0.346669
0.260889
0.16588
0.0640561
0.0168887
0.06882
0.130062
0.194341
0.257062
0.31476
0.364769
0.405034
0.434002
0.450566
0.454035
0.444117
0.420908
0.384872
0.336828
0.277919
0.209589
0.133537
0.0516871
0.00885692
0.0424041
0.0845132
0.130062
0.17534
0.217576
0.25466
0.284968
0.307272
0.32068
0.324617
0.3188
0.303235
0.2782
0.244235
0.202126
0.152878
0.0976954
0.0379463
0.00244342
0.0190924
0.0424041
0.06882
0.0957935
0.121449
0.144372
0.163479
0.177947
0.18717
0.190739
0.188424
0.180176
0.166111
0.146508
0.121794
0.092537
0.0594207
0.023223
-0.000907025
0.00244342
0.00885692
0.0168887
0.0255239
0.0340291
0.041859
0.0485996
0.0539342
0.0576245
0.0595003
0.0594533
0.0574347
0.0534523
0.0475685
0.0398968
0.0305966
0.0198617
0.0078946
