# vtk DataFile Version 3.0
Malha 2D com triângulos: velocidade e pressão
ASCII
DATASET UNSTRUCTURED_GRID

POINTS 4451 double
0 0 0
1 0 0
1 1 0
0 1 0
0.0163934 0 0
0.0327869 0 0
0.0491803 0 0
0.0655738 0 0
0.0819672 0 0
0.0983607 0 0
0.114754 0 0
0.131148 0 0
0.147541 0 0
0.163934 0 0
0.180328 0 0
0.196721 0 0
0.213115 0 0
0.229508 0 0
0.245902 0 0
0.262295 0 0
0.278689 0 0
0.295082 0 0
0.311475 0 0
0.327869 0 0
0.344262 0 0
0.360656 0 0
0.377049 0 0
0.393443 0 0
0.409836 0 0
0.42623 0 0
0.442623 0 0
0.459016 0 0
0.47541 0 0
0.491803 0 0
0.508197 0 0
0.52459 0 0
0.540984 0 0
0.557377 0 0
0.57377 0 0
0.590164 0 0
0.606557 0 0
0.622951 0 0
0.639344 0 0
0.655738 0 0
0.672131 0 0
0.688525 0 0
0.704918 0 0
0.721311 0 0
0.737705 0 0
0.754098 0 0
0.770492 0 0
0.786885 0 0
0.803279 0 0
0.819672 0 0
0.836066 0 0
0.852459 0 0
0.868852 0 0
0.885246 0 0
0.901639 0 0
0.918033 0 0
0.934426 0 0
0.95082 0 0
0.967213 0 0
0.983607 0 0
1 0.0163934 0
1 0.0327869 0
1 0.0491803 0
1 0.0655738 0
1 0.0819672 0
1 0.0983607 0
1 0.114754 0
1 0.131148 0
1 0.147541 0
1 0.163934 0
1 0.180328 0
1 0.196721 0
1 0.213115 0
1 0.229508 0
1 0.245902 0
1 0.262295 0
1 0.278689 0
1 0.295082 0
1 0.311475 0
1 0.327869 0
1 0.344262 0
1 0.360656 0
1 0.377049 0
1 0.393443 0
1 0.409836 0
1 0.42623 0
1 0.442623 0
1 0.459016 0
1 0.47541 0
1 0.491803 0
1 0.508197 0
1 0.52459 0
1 0.540984 0
1 0.557377 0
1 0.57377 0
1 0.590164 0
1 0.606557 0
1 0.622951 0
1 0.639344 0
1 0.655738 0
1 0.672131 0
1 0.688525 0
1 0.704918 0
1 0.721311 0
1 0.737705 0
1 0.754098 0
1 0.770492 0
1 0.786885 0
1 0.803279 0
1 0.819672 0
1 0.836066 0
1 0.852459 0
1 0.868852 0
1 0.885246 0
1 0.901639 0
1 0.918033 0
1 0.934426 0
1 0.95082 0
1 0.967213 0
1 0.983607 0
0.983607 1 0
0.967213 1 0
0.95082 1 0
0.934426 1 0
0.918033 1 0
0.901639 1 0
0.885246 1 0
0.868852 1 0
0.852459 1 0
0.836066 1 0
0.819672 1 0
0.803279 1 0
0.786885 1 0
0.770492 1 0
0.754098 1 0
0.737705 1 0
0.721311 1 0
0.704918 1 0
0.688525 1 0
0.672131 1 0
0.655738 1 0
0.639344 1 0
0.622951 1 0
0.606557 1 0
0.590164 1 0
0.57377 1 0
0.557377 1 0
0.540984 1 0
0.52459 1 0
0.508197 1 0
0.491803 1 0
0.47541 1 0
0.459016 1 0
0.442623 1 0
0.42623 1 0
0.409836 1 0
0.393443 1 0
0.377049 1 0
0.360656 1 0
0.344262 1 0
0.327869 1 0
0.311475 1 0
0.295082 1 0
0.278689 1 0
0.262295 1 0
0.245902 1 0
0.229508 1 0
0.213115 1 0
0.196721 1 0
0.180328 1 0
0.163934 1 0
0.147541 1 0
0.131148 1 0
0.114754 1 0
0.0983607 1 0
0.0819672 1 0
0.0655738 1 0
0.0491803 1 0
0.0327869 1 0
0.0163934 1 0
0 0.983607 0
0 0.967213 0
0 0.95082 0
0 0.934426 0
0 0.918033 0
0 0.901639 0
0 0.885246 0
0 0.868852 0
0 0.852459 0
0 0.836066 0
0 0.819672 0
0 0.803279 0
0 0.786885 0
0 0.770492 0
0 0.754098 0
0 0.737705 0
0 0.721311 0
0 0.704918 0
0 0.688525 0
0 0.672131 0
0 0.655738 0
0 0.639344 0
0 0.622951 0
0 0.606557 0
0 0.590164 0
0 0.57377 0
0 0.557377 0
0 0.540984 0
0 0.52459 0
0 0.508197 0
0 0.491803 0
0 0.47541 0
0 0.459016 0
0 0.442623 0
0 0.42623 0
0 0.409836 0
0 0.393443 0
0 0.377049 0
0 0.360656 0
0 0.344262 0
0 0.327869 0
0 0.311475 0
0 0.295082 0
0 0.278689 0
0 0.262295 0
0 0.245902 0
0 0.229508 0
0 0.213115 0
0 0.196721 0
0 0.180328 0
0 0.163934 0
0 0.147541 0
0 0.131148 0
0 0.114754 0
0 0.0983607 0
0 0.0819672 0
0 0.0655738 0
0 0.0491803 0
0 0.0327869 0
0 0.0163934 0
0.986089 0.500495 0
0.0139111 0.500495 0
0.502342 0.984573 0
0.5 0.0141971 0
0.385246 0.0141971 0
0.985236 0.3867 0
0.0142863 0.614865 0
0.985803 0.614754 0
0.614587 0.984197 0
0.614754 0.0141971 0
0.388262 0.988632 0
0.0146766 0.386548 0
0.7118 0.985629 0
0.0156149 0.711538 0
0.286885 0.0141971 0
0.985395 0.285177 0
0.984385 0.711538 0
0.28851 0.986107 0
0.0150398 0.284676 0
0.713115 0.0141971 0
0.792866 0.984538 0
0.0145132 0.795116 0
0.204918 0.0141971 0
0.986652 0.204224 0
0.20726 0.984573 0
0.985377 0.795067 0
0.0147374 0.203357 0
0.795082 0.0141971 0
0.862998 0.984573 0
0.0144277 0.860257 0
0.139344 0.0141971 0
0.984368 0.140662 0
0.986844 0.860612 0
0.139344 0.985803 0
0.0156316 0.140662 0
0.860656 0.0141971 0
0.985037 0.663348 0
0.98436 0.566762 0
0.0139612 0.548795 0
0.334506 0.985452 0
0.434426 0.985803 0
0.663934 0.0141971 0
0.565574 0.0141971 0
0.45082 0.0141971 0
0.0925059 0.984573 0
0.985578 0.909405 0
0.336066 0.0141971 0
0.546838 0.985644 0
0.0155808 0.338218 0
0.0144486 0.434511 0
0.0149631 0.663348 0
0.909836 0.0141971 0
0.0155738 0.0878836 0
0.985803 0.45082 0
0.984419 0.338218 0
0.666101 0.984567 0
0.907362 0.984642 0
0.0144224 0.909405 0
0.0901639 0.0141971 0
0.984426 0.0878836 0
0.98453 0.942079 0
0.169399 0.988316 0
0.0546448 0.988316 0
0.942623 0.0141971 0
0.0155828 0.940162 0
0.057377 0.0141971 0
0.172131 0.0141971 0
0.944839 0.984538 0
0.0149153 0.171492 0
0.0157292 0.0573602 0
0.0153494 0.825811 0
0.985138 0.0571248 0
0.0141971 0.745902 0
0.0111954 0.582336 0
0.251366 0.988468 0
0.532787 0.0141971 0
0.0147766 0.465556 0
0.984412 0.764319 0
0.986085 0.828417 0
0.984371 0.171141 0
0.985803 0.532787 0
0.464481 0.988316 0
0.827869 0.0141971 0
0.827871 0.988771 0
0.747475 0.985938 0
0.581967 0.985803 0
0.762295 0.0141971 0
0.0144327 0.254857 0
0.254098 0.0141971 0
0.418033 0.0141971 0
0.985567 0.254857 0
0.986106 0.418155 0
0.974776 0.0138311 0
0.0246596 0.0138815 0
0.973324 0.985252 0
0.0127893 0.976653 0
0.958911 0.0141361 0
0.950802 0.0283841 0
0.934423 0.0283926 0
0.94262 0.0425894 0
0.926228 0.0425908 0
0.934425 0.0567881 0
0.918032 0.0567884 0
0.926229 0.0709856 0
0.909836 0.0709856 0
0.918033 0.0851828 0
0.901639 0.0851828 0
0.909836 0.09938 0
0.893443 0.09938 0
0.901639 0.113577 0
0.885246 0.113577 0
0.893443 0.127774 0
0.877049 0.127774 0
0.885246 0.141971 0
0.868852 0.141971 0
0.877049 0.156169 0
0.860656 0.156169 0
0.868852 0.170366 0
0.852459 0.170366 0
0.860656 0.184563 0
0.844262 0.184563 0
0.852459 0.19876 0
0.836066 0.19876 0
0.844262 0.212957 0
0.827869 0.212957 0
0.836066 0.227154 0
0.819672 0.227154 0
0.827869 0.241351 0
0.811475 0.241351 0
0.819672 0.255548 0
0.803279 0.255548 0
0.811475 0.269746 0
0.795082 0.269746 0
0.803279 0.283943 0
0.786885 0.283943 0
0.795082 0.29814 0
0.778689 0.29814 0
0.786885 0.312337 0
0.770492 0.312337 0
0.778689 0.326534 0
0.762295 0.326534 0
0.770492 0.340731 0
0.754098 0.340731 0
0.762295 0.354928 0
0.745902 0.354928 0
0.754098 0.369126 0
0.737705 0.369126 0
0.745902 0.383323 0
0.729508 0.383323 0
0.737705 0.39752 0
0.721311 0.39752 0
0.729508 0.411717 0
0.713115 0.411717 0
0.721311 0.425914 0
0.704918 0.425914 0
0.713115 0.440111 0
0.696721 0.440111 0
0.688525 0.425914 0
0.680328 0.440111 0
0.672131 0.425914 0
0.663934 0.440111 0
0.655738 0.425914 0
0.647541 0.440111 0
0.639344 0.425914 0
0.631148 0.440111 0
0.622951 0.425914 0
0.614754 0.440111 0
0.606557 0.425914 0
0.598361 0.440111 0
0.590164 0.425914 0
0.581967 0.440111 0
0.57377 0.425914 0
0.565574 0.440111 0
0.557377 0.425914 0
0.54918 0.440111 0
0.540984 0.425914 0
0.532787 0.440111 0
0.52459 0.425914 0
0.516393 0.440111 0
0.688525 0.454308 0
0.52459 0.454308 0
0.508197 0.425914 0
0.508197 0.454308 0
0.516393 0.468506 0
0.5 0.468506 0
0.508197 0.482703 0
0.491803 0.482703 0
0.5 0.4969 0
0.483607 0.4969 0
0.491803 0.511097 0
0.47541 0.511097 0
0.467213 0.4969 0
0.459016 0.511097 0
0.45082 0.4969 0
0.483607 0.525294 0
0.442623 0.511097 0
0.434426 0.4969 0
0.42623 0.511097 0
0.418033 0.4969 0
0.409836 0.511097 0
0.401639 0.4969 0
0.393443 0.511097 0
0.401639 0.525294 0
0.516393 0.411717 0
0.385246 0.4969 0
0.385246 0.525294 0
0.393443 0.539491 0
0.754098 0.312337 0
0.377049 0.539491 0
0.385246 0.553688 0
0.368852 0.553688 0
0.377049 0.567886 0
0.360656 0.567886 0
0.368852 0.582083 0
0.352459 0.582083 0
0.360656 0.59628 0
0.344262 0.59628 0
0.352459 0.610477 0
0.344262 0.567886 0
0.336066 0.610477 0
0.344262 0.624674 0
0.360656 0.624674 0
0.352459 0.638871 0
0.368852 0.638871 0
0.336066 0.638871 0
0.360656 0.653068 0
0.377049 0.653068 0
0.368852 0.667265 0
0.385246 0.667265 0
0.598361 0.411717 0
0.377049 0.681463 0
0.393443 0.681463 0
0.786885 0.255548 0
0.5 0.525294 0
0.5 0.411717 0
0.508197 0.39752 0
0.491803 0.39752 0
0.5 0.383323 0
0.483607 0.383323 0
0.491803 0.369126 0
0.47541 0.369126 0
0.483607 0.354928 0
0.467213 0.354928 0
0.47541 0.340731 0
0.459016 0.340731 0
0.467213 0.326534 0
0.45082 0.326534 0
0.459016 0.312337 0
0.442623 0.312337 0
0.47541 0.312337 0
0.385246 0.69566 0
0.401639 0.69566 0
0.368852 0.69566 0
0.467213 0.29814 0
0.483607 0.29814 0
0.393443 0.709857 0
0.409836 0.709857 0
0.729508 0.440111 0
0.47541 0.283943 0
0.491803 0.283943 0
0.401639 0.724054 0
0.418033 0.724054 0
0.483607 0.269746 0
0.5 0.269746 0
0.409836 0.738251 0
0.42623 0.738251 0
0.434426 0.724054 0
0.442623 0.738251 0
0.45082 0.724054 0
0.459016 0.738251 0
0.467213 0.724054 0
0.47541 0.738251 0
0.483607 0.724054 0
0.491803 0.738251 0
0.5 0.724054 0
0.508197 0.738251 0
0.516393 0.724054 0
0.52459 0.738251 0
0.532787 0.724054 0
0.540984 0.738251 0
0.54918 0.724054 0
0.557377 0.738251 0
0.565574 0.724054 0
0.57377 0.738251 0
0.581967 0.724054 0
0.590164 0.738251 0
0.598361 0.724054 0
0.606557 0.738251 0
0.614754 0.724054 0
0.622951 0.738251 0
0.631148 0.724054 0
0.639344 0.738251 0
0.647541 0.724054 0
0.655738 0.738251 0
0.663934 0.724054 0
0.672131 0.738251 0
0.680328 0.724054 0
0.688525 0.738251 0
0.696721 0.724054 0
0.704918 0.738251 0
0.713115 0.724054 0
0.721311 0.738251 0
0.729508 0.724054 0
0.737705 0.738251 0
0.639344 0.709857 0
0.721311 0.709857 0
0.737705 0.709857 0
0.622951 0.454308 0
0.729508 0.69566 0
0.745902 0.69566 0
0.491803 0.255548 0
0.508197 0.255548 0
0.47541 0.255548 0
0.819672 0.19876 0
0.762295 0.383323 0
0.737705 0.681463 0
0.754098 0.681463 0
0.680328 0.752448 0
0.516393 0.752448 0
0.598361 0.752448 0
0.45082 0.752448 0
0.434426 0.326534 0
0.42623 0.312337 0
0.418033 0.326534 0
0.409836 0.312337 0
0.401639 0.326534 0
0.393443 0.312337 0
0.385246 0.326534 0
0.377049 0.312337 0
0.368852 0.326534 0
0.360656 0.312337 0
0.352459 0.326534 0
0.344262 0.312337 0
0.336066 0.326534 0
0.327869 0.312337 0
0.319672 0.326534 0
0.311475 0.312337 0
0.303279 0.326534 0
[...]
CELL_DATA 8656
VECTORS velocity double
0.6226 -0.00107665 0
0.00664739 0.154986 0
-0.000468356 0.138137 0
-0.0349289 0.0823578 0
-0.0255181 -0.627075 0
-0.00585444 0.0132638 0
-0.0437553 -0.319644 0
0.350437 0.0516392 0
0.486586 -0.0346209 0
0.517138 0.0193937 0
-0.103598 0.0922771 0
0.935626 -0.00313901 0
0.0903772 0.0676553 0
0.000627446 -0.00102928 0
0.000379695 0.109859 0
-0.0053911 -0.0305713 0
-0.017939 0.0812675 0
-0.00717373 -0.518607 0
-0.0014754 0.162111 0
-0.00490827 0.111292 0
0.702442 -0.000745326 0
0.679356 -0.000384041 0
0.422035 -0.103698 0
0.528654 -0.0168065 0
0.30568 -0.153096 0
0.571272 -0.000929619 0
0.000661346 0.0183691 0
0.000576155 -0.00418677 0
0.00205133 0.00874124 0
0.0455797 -0.328534 0
-0.00102901 0.017451 0
0.00102799 -0.00167109 0
0.742822 -0.00128202 0
-0.0246497 0.0970493 0
0.00678705 -0.447471 0
0.694186 -0.00196557 0
-0.0167063 0.0567344 0
-0.032439 -0.605675 0
0.481305 0.000601832 0
-0.0101336 0.100139 0
-0.00549423 -0.0136574 0
0.740853 0.00343811 0
0.672536 0.00504889 0
0.635112 -0.0227024 0
0.297386 0.0206766 0
0.0686127 0.038292 0
0.493507 0.037817 0
0.576584 -0.000227014 0
-0.00744292 0.12759 0
-0.00579681 -0.0383542 0
0.0060204 0.0867612 0
-0.0150048 -0.310682 0
0.145695 -0.32245 0
-0.0153433 -0.17825 0
0.738463 -0.00224069 0
0.714559 0.00166227 0
0.709645 0.00119146 0
0.663541 -0.0228262 0
0.704386 0.00475268 0
0.427786 -0.107293 0
0.366902 0.012668 0
0.593051 -0.0289702 0
0.144734 0.0221748 0
0.277089 -0.146532 0
0.720102 0.0104122 0
0.531378 0.0306401 0
-0.00225254 0.0068404 0
-0.000221649 -0.00391307 0
0.000937503 0.0107923 0
-0.00711855 0.0671617 0
-0.00181329 0.00361204 0
-0.000247022 0.0202894 0
0.00470785 0.0479164 0
-0.0150759 -0.40279 0
-0.0211934 -0.505171 0
0.716032 0.00889067 0
0.401439 0.0304365 0
-0.0244185 -0.518243 0
0.430957 0.0252602 0
0.00265037 0.0312155 0
0.556272 -0.0433659 0
0.0056789 0.0995014 0
-0.0158327 -0.274163 0
0.0101374 0.252854 0
-0.0048835 0.124328 0
0.000285484 -0.00314428 0
0.000874677 0.00572242 0
0.580144 -0.0128273 0
0.608048 -0.000872261 0
0.316837 -0.156798 0
0.0582187 -0.353311 0
-0.00798741 -0.00693417 0
-0.0121746 0.0766595 0
0.0310519 -0.374922 0
0.00937697 0.218416 0
0.0072505 0.0790288 0
-0.0197283 -0.433261 0
-0.00905573 0.0761205 0
0.638143 -0.015498 0
0.648294 0.0133478 0
0.235717 0.042762 0
0.392803 0.0333296 0
0.375543 0.0467585 0
0.529181 -0.0302604 0
0.537258 -0.0273198 0
0.566058 0.0164209 0
0.87074 -0.00238252 0
-0.0572268 0.0692859 0
0.861089 -0.00237663 0
-0.102516 0.106438 0
0.548505 0.0168627 0
0.112304 0.0592564 0
0.154727 0.0517184 0
0.674259 -0.0116247 0
0.665937 -0.0106453 0
-0.00607331 0.072579 0
-0.00169448 -0.00375911 0
0.00616323 0.103106 0
-0.0215826 -0.379659 0
-0.00042837 0.0185704 0
0.0457409 -0.440217 0
-0.0251185 0.0968269 0
0.657261 0.0138853 0
0.240913 0.0460511 0
0.660596 -0.00970183 0
-0.0442252 -0.297486 0
-0.00182498 -0.00119179 0
0.000760905 0.0148198 0
-0.032835 -0.262918 0
-0.0146545 -0.391159 0
-0.0554654 -0.254595 0
0.000274175 0.00885215 0
0.507719 0.00166702 0
0.514927 0.000982302 0
-0.018548 -0.266032 0
0.00875593 0.128025 0
-0.0176895 -0.320704 0
0.0293305 -0.504129 0
-0.00511098 -0.126648 0
0.000156704 0.000186108 0
-0.0237931 -0.227404 0
0.00376483 0.0409321 0
0.560825 -0.0152744 0
-0.0432874 -0.216729 0
-0.00327496 0.00314716 0
0.000448905 0.0155051 0
0.0373988 -0.348684 0
-0.000313073 0.0167281 0
-0.000762195 -0.00368101 0
0.00134907 0.0131723 0
0.00177445 0.220768 0
0.00160717 0.0189197 0
-0.00210226 0.00340054 0
0.411204 -0.0173284 0
-0.0863881 0.149917 0
0.350792 -0.115136 0
0.562327 0.00236512 0
0.0398663 -0.412786 0
-0.00593314 0.00471132 0
-0.00524928 0.142957 0
-0.0401075 -0.658251 0
-0.0284936 0.0822865 0
-0.00625196 0.0516413 0
0.00835087 0.0634738 0
-0.0185391 -0.459265 0
-0.011565 0.0533138 0
-0.00508141 -0.0693185 0
-0.00206585 0.0243384 0
-0.00415916 0.0258247 0
-0.0413194 -0.620531 0
0.00675956 0.266767 0
-0.00884624 0.152926 0
-0.0051669 0.00238598 0
0.00612707 0.150722 0
-0.0292842 -0.598113 0
0.0447939 -0.426674 0
-0.0264397 0.0757253 0
0.00220652 0.0197612 0
-0.000579866 -0.104118 0
0.0058042 -0.478732 0
-0.0102785 -0.00950178 0
0.00197157 0.00422238 0
0.602941 0.0010153 0
0.00326413 0.0412585 0
-0.00176321 -0.187277 0
-0.0382708 -0.640821 0
0.00425291 0.0553755 0
0.00011359 -0.322309 0
-0.0276441 -0.60448 0
0.00639218 0.117487 0
-0.0245551 -0.335697 0
-0.0054964 -0.129867 0
0.00112508 0.0399214 0
-0.00169931 0.0617798 0
8.79868e-05 7.39955e-05 0
0.00523948 0.0563151 0
-0.0210205 -0.470529 0
-0.00754722 -0.495921 0
0.00123258 0.0253445 0
-0.00350808 0.00507855 0
0.761123 -0.00202631 0
0.0116536 0.300907 0
-0.0218729 0.0822933 0
0.00372309 0.0380353 0
-0.0248111 -0.526026 0
-0.00680034 0.040656 0
-0.00107828 0.0114744 0
-0.00434702 -0.000906332 0
-0.0102152 0.0831065 0
-0.0110689 0.0408341 0
-0.0432063 -0.657239 0
-0.00497377 0.0159747 0
-0.0250424 -0.537447 0
0.0126789 0.292525 0
-0.000124978 0.0684612 0
0.00343674 0.033844 0
0.0105477 0.107102 0
-0.0162544 -0.357385 0
-0.000114994 -0.00433089 0
0.00148863 0.0116034 0
-0.0059145 -0.0209462 0
-0.00892553 0.111077 0
0.339522 0.0325906 0
0.407169 0.0284016 0
0.703605 -0.018267 0
0.766776 -0.0102187 0
0.836129 0.000644985 0
0.787624 -0.00107744 0
0.684175 0.00680108 0
0.601296 0.00490638 0
0.793895 -0.00152818 0
0.842298 -0.00129905 0
0.639498 0.000734787 0
0.820595 -0.00232142 0
0.768264 -0.00963007 0
0.547596 0.0227685 0
0.723596 0.00105472 0
0.764152 0.00541467 0
0.519494 0.0133251 0
0.604442 0.0101508 0
0.576796 -0.00947815 0
-0.00358214 0.0210825 0
-0.0383295 -0.54317 0
-0.00832468 -0.00271977 0
0.000857657 -0.00309477 0
0.00200466 0.00530441 0
0.00126993 0.171629 0
0.0358913 -0.390674 0
-0.0162274 -0.205512 0
-0.00888659 0.135546 0
0.450997 -0.0122708 0
-0.0106585 -0.00535292 0
0.000785636 -0.000762895 0
-0.00106396 -0.00103867 0
0.000616493 0.0115781 0
-0.00111611 0.00901022 0
0.00109078 -0.00281966 0
-0.0176613 0.0479362 0
-0.0436293 -0.635111 0
-0.0794866 0.166815 0
0.70354 -0.000945702 0
-0.026065 0.0885125 0
-0.0728791 0.142353 0
0.00563258 0.112701 0
0.0634715 -0.370642 0
-0.00736497 0.0372587 0
-0.00107453 0.0123807 0
-0.0194664 0.0654339 0
-0.0108144 0.122412 0
-0.00902152 -0.032291 0
-0.00734746 0.0511396 0
-0.000429595 0.0086637 0
-0.00284341 0.0354118 0
-0.00400202 0.00857352 0
-0.0162113 0.0710773 0
-0.0119298 -0.192887 0
-0.0253305 0.0643471 0
0.00085902 0.250265 0
0.321 0.0369873 0
0.763631 -0.000973108 0
-0.0067738 0.0547081 0
-0.00333272 -0.541578 0
0.766899 -0.0153275 0
0.115239 0.096244 0
0.754945 0.0122847 0
0.407037 0.0419262 0
0.760971 -0.00285586 0
0.000996967 0.0492403 0
-0.00627525 0.0685381 0
-0.0110733 -0.265724 0
0.00457414 0.0852881 0
-0.046349 0.0983294 0
-0.00436814 0.10965 0
0.810121 0.0112659 0
0.73679 -0.0012519 0
0.513304 0.0189134 0
0.741241 -0.000698522 0
0.725224 -0.00299053 0
0.53196 -0.0571111 0
0.00697631 0.290076 0
0.624152 0.0175692 0
0.00274441 0.207037 0
0.00547206 0.0471093 0
0.0064577 0.0513752 0
0.781279 0.000262756 0
0.916949 -0.00102926 0
0.898503 -0.000511063 0
0.657075 0.0106217 0
-0.00141861 0.000418639 0
7.69583e-05 0.0121265 0
0.701094 0.00195 0
0.668448 0.00282756 0
-0.0207171 -0.583612 0
0.848224 -0.00931765 0
0.916428 -0.00488627 0
-0.0200563 -0.458424 0
-0.00371978 0.00159481 0
0.00038011 -0.00430261 0
0.00182429 0.00943665 0
0.00486219 0.140151 0
0.51215 0.0121799 0
0.00758052 0.152172 0
-0.0171416 -0.256506 0
-0.00894406 0.0936023 0
-0.00410881 -0.0076293 0
0.00153048 0.028253 0
-0.00152986 -0.00216136 0
0.000898035 0.0147048 0
-0.0202925 -0.495702 0
-0.0095243 -0.0508258 0
0.000461843 0.0159626 0
0.00213088 0.135368 0
0.00667215 0.073737 0
-0.0215164 -0.445813 0
0.880539 0.00111935 0
0.940352 0.00154494 0
-0.00307879 0.160311 0
-0.0128179 -0.240812 0
0.285352 0.0544455 0
0.618334 -2.60409e-05 0
0.00434716 0.220879 0
0.36512 0.0124716 0
0.720145 0.00345455 0
0.127758 0.0229663 0
0.698391 -0.0151003 0
-0.0135244 0.0577527 0
-0.00230664 0.00969384 0
-0.0147337 0.0482594 0
-0.0384868 -0.648716 0
0.818031 0.0079083 0
0.000344506 0.169288 0
-0.019775 -0.153053 0
0.634526 0.00796817 0
0.654166 0.00360145 0
0.86674 6.2266e-05 0
0.854945 0.00196398 0
0.855261 0.00121458 0
0.826413 -0.00682782 0
0.446793 0.0194123 0
0.450729 0.0171087 0
0.529689 -0.00858893 0
0.753281 -0.0245389 0
0.713237 -0.0270581 0
0.85663 -0.00654471 0
0.846978 -0.00985889 0
0.000633353 -0.00194427 0
-0.0168939 -0.140952 0
0.712259 -0.00132298 0
-0.00751283 0.0110734 0
-0.0365903 -0.646688 0
0.435618 -0.0867945 0
-0.00656589 0.100271 0
-0.00395268 -0.0190382 0
0.621863 -0.0308474 0
0.510301 -0.0656064 0
0.587191 -0.00149279 0
0.576197 -0.0108433 0
0.29543 0.0486299 0
0.00546329 0.257726 0
-0.000872062 -0.439661 0
-0.00384589 0.00674304 0
-0.00826145 0.0380269 0
-0.015781 -0.583718 0
-0.0392383 -0.670156 0
0.87844 0.000171739 0
-0.0293206 -0.518417 0
0.000990562 0.00255274 0
-0.0394091 -0.628586 0
-0.0345395 -0.638892 0
-0.0376991 -0.659672 0
-0.0319169 -0.611538 0
-0.0342044 -0.633815 0
-0.026432 -0.584839 0
-0.0308112 -0.618757 0
-0.0417684 -0.661834 0
-0.0415844 -0.673983 0
-0.0716317 -0.526573 0
-0.0633388 -0.569225 0
-0.0658968 -0.561697 0
-0.0698539 -0.536869 0
-0.0658512 -0.600302 0
-0.0633866 -0.579749 0
-0.0781753 -0.572763 0
0.00326891 -0.00151245 0
0.00286549 -0.000905977 0
-0.0129788 -0.000907459 0
-0.0754473 -0.583658 0
-0.0596377 -0.57629 0
-0.0466564 -0.414224 0
-0.070224 -0.596145 0
0.172669 0.166323 0
-0.052996 -0.618415 0
0.062494 0.061168 0
-0.030506 -0.00115588 0
0.165548 0.193708 0
-0.075221 -0.578749 0
-0.0264795 0.00412355 0
-0.0506857 -0.59711 0
-0.0412898 0.0080369 0
-0.0572623 -0.00345623 0
0.140879 0.186043 0
-0.0595419 -0.602437 0
-0.0149497 -0.000774299 0
0.213487 -0.0955354 0
0.299821 -0.0487331 0
0.135539 0.195497 0
-0.0137458 0.00222073 0
0.0315681 0.060509 0
0.00140446 0.000729017 0
-0.0605039 -0.469209 0
0.00158847 0.00101835 0
0.120493 0.205399 0
0.125624 0.195854 0
0.0962456 0.196276 0
-0.0120075 0.00281702 0
-0.0692356 -0.600891 0
-0.0800575 -0.025188 0
-0.0565647 -0.599815 0
0.0198032 0.000210916 0
-0.0294661 0.0828346 0
0.00258749 0.000542454 0
-0.00693946 0.00414079 0
-0.0553688 -0.619874 0
0.0819934 0.224987 0
0.000180484 0.000231153 0
-0.0271518 -0.0014193 0
-0.0480849 -0.592771 0
-0.000931139 -0.000983202 0
0.12446 0.234233 0
0.0318048 0.0647127 0
0.00295129 0.000728839 0
-0.0385113 0.00483682 0
-0.0223376 0.00277963 0
-0.032438 0.0032141 0
0.00447057 0.000133423 0
-0.0320876 -0.00790516 0
-0.0272345 0.0030206 0
0.0034484 0.000358554 0
-0.0733192 -0.0046815 0
-0.0323044 0.00451143 0
0.00408065 -0.000236478 0
-0.0226652 -0.00772194 0
-0.051185 0.0947974 0
-0.0405701 0.230623 0
0.0045664 -0.000581872 0
0.00462132 -0.000182255 0
-0.042174 -0.553141 0
0.245503 -0.074921 0
0.00420131 -3.15501e-05 0
-0.0741868 -0.0169381 0
0.00436955 -0.000491889 0
-0.0289288 -0.00516967 0
-0.0209022 -0.00513706 0
-0.00300174 0.0733131 0
0.0778036 0.275158 0
-0.0392533 -0.546714 0
-0.0571829 -0.511929 0
-0.0447742 0.00995743 0
-0.069632 0.000639822 0
-0.068367 0.00136317 0
0.00398872 0.000168572 0
-0.0855047 0.000363025 0
0.262741 -0.0658517 0
-0.0848765 0.00152287 0
0.00391221 0.000437191 0
-0.0659844 -0.00185718 0
-0.0129728 -0.0141016 0
-0.0660076 0.00199078 0
-0.0796628 0.00343503 0
-0.082355 -0.00217909 0
-0.00199629 0.00114642 0
-0.0976676 -0.0290197 0
-0.000947253 0.00038206 0
0.00689141 -0.00327842 0
-0.0424898 0.221972 0
0.212378 0.179281 0
0.0687582 0.275043 0
0.0207626 -0.00115532 0
-0.0433223 0.00339003 0
-0.0828849 0.00255613 0
-0.051572 0.00519734 0
-0.0702165 0.00466685 0
0.20213 0.180858 0
-0.0378439 0.00334285 0
-0.0713296 -0.581945 0
-0.0758399 -0.593373 0
-0.030369 -0.498069 0
0.00292806 -0.000561766 0
0.017903 -0.00105576 0
0.198087 0.172712 0
0.187631 0.173856 0
-0.0785461 -0.00346307 0
-0.0412983 0.0992573 0
-0.00093842 -0.00157794 0
0.0262842 0.00127525 0
-0.0510558 0.230948 0
-0.0487208 0.00334044 0
0.183206 0.165515 0
0.00601606 -0.00109015 0
-0.0269126 -0.4904 0
0.105278 0.254678 0
-0.0506487 -0.00737348 0
0.166864 0.175544 0
0.0193537 -0.000378824 0
0.155489 0.194465 0
0.0644137 0.285236 0
-0.114625 -0.00959711 0
-0.03279 0.011175 0
-0.0699076 -0.0130878 0
-0.131645 -0.0587939 0
0.0133972 -0.00732625 0
0.171329 0.184189 0
-0.0643891 0.00501134 0
0.0554331 0.285003 0
0.0010455 0.015202 0
0.00282024 -0.00192649 0
-0.128692 -0.0535027 0
-0.093327 -0.468511 0
9.61657e-05 0.000308377 0
0.0822873 0.264987 0
0.209745 -0.114763 0
-0.0538697 0.00318169 0
-0.00159926 0.0135387 0
-0.0449829 0.00507397 0
-0.000364307 0.000280304 0
-0.287817 -0.0896469 0
0.0318333 0.155904 0
0.0221519 -0.000180034 0
-0.0101275 0.00193151 0
0.0776257 0.254771 0
-3.3292e-05 0.0764651 0
0.110458 0.224877 0
0.00375224 -0.000751469 0
0.105813 0.215244 0
0.0512082 0.295201 0
0.150984 0.185542 0
0.09143 0.205728 0
-0.0581053 0.00518319 0
-0.0528895 0.221559 0
0.00247379 -0.00559409 0
-0.0189762 -7.85112e-05 0
0.00207373 -0.0016386 0
-0.0130498 -0.00490843 0
-0.0143345 0.250148 0
0.0036392 -0.000425489 0
-0.0332179 0.112279 0
-0.0931607 -0.128317 0
-0.0699378 0.0252935 0
-0.0166391 -0.443153 0
0.105998 0.196213 0
0.120011 0.224618 0
-0.0626937 0.00250761 0
0.22083 -0.10635 0
-0.0696944 -0.000157666 0
0.110748 0.205617 0
0.0224184 0.000649417 0
-0.0183129 0.259923 0
-0.307002 -0.0888735 0
-0.0684861 -0.00100111 0
-0.0188261 0.17868 0
-0.106242 -0.0434701 0
-0.0671157 -0.599426 0
0.0183797 0.141938 0
-0.00516025 -0.00174252 0
0.0265903 0.160077 0
0.119436 0.244271 0
-0.0275207 0.259193 0
-0.043054 0.0145067 0
0.395404 0.0057094 0
-0.0622165 -0.00268867 0
-0.0148227 -0.365333 0
-0.0585885 0.00290528 0
0.476768 0.00304385 0
-0.0270326 0.200775 0
-0.0162898 0.00325582 0
-0.0442417 0.0816854 0
-0.13911 -0.0142201 0
0.0253263 0.00179972 0
-0.00340821 -0.0102567 0
0.198418 -0.10201 0
0.209261 0.196843 0
-0.0228394 0.129205 0
-0.0153974 0.000579173 0
-0.0667049 0.188011 0
-0.0463931 0.193854 0
-0.0982504 -0.00863351 0
0.447191 0.00364257 0
0.281486 -0.0564838 0
0.0422769 0.294862 0
-0.082882 -0.0296298 0
-0.0232385 -0.00163116 0
0.0914384 0.218611 0
0.21227 0.204707 0
0.402163 0.00948204 0
0.189835 -0.125826 0
0.0914603 0.225027 0
0.0283938 0.283784 0
-0.0301031 0.289842 0
-0.04004 0.339327 0
-0.0415217 -0.00778678 0
0.0631037 0.387428 0
-0.101143 -0.155455 0
-0.158269 -0.133385 0
-0.103504 -0.14748 0
-0.0326718 0.220477 0
-0.224733 -0.224591 0
0.398013 0.0115468 0
-0.15819 -0.0755232 0
-0.0127091 -0.434887 0
-0.00309494 0.00279412 0
-0.106992 -0.479361 0
0.0607556 0.385314 0
0.0182476 0.00106725 0
-0.0451986 0.203608 0
-0.167136 -0.00565008 0
0.0256753 -0.0954202 0
-0.0206909 0.00569055 0
-0.0913865 -0.135807 0
-0.0620435 -0.364135 0
-0.0429875 0.0685411 0
0.0122484 -0.00657283 0
0.0141949 -0.00338421 0
0.0186096 0.169876 0
-0.0392838 0.289043 0
0.0559825 0.183281 0
-0.15276 0.0167998 0
-0.00432755 -0.427173 0
0.00977343 0.000135556 0
0.112792 0.205148 0
0.0488841 -0.0990122 0
0.142322 0.0830405 0
0.0124999 -0.0893284 0
0.0356509 -0.0933931 0
-0.0131635 -0.0117754 0
-0.0787866 0.315679 0
0.417383 0.00419859 0
0.0224014 -0.0874572 0
0.269727 -0.0721236 0
0.00855297 -0.000804085 0
-0.10329 -0.0385643 0
-0.0785948 0.0509876 0
-0.0732499 0.226811 0
-0.203427 -0.0121389 0
-0.00775193 0.000651676 0
-0.0443735 -0.00464634 0
-0.0622786 0.0963399 0
-0.18033 -0.338276 0
-0.0148666 0.00102569 0
0.297603 -0.0394287 0
0.333972 0.0722428 0
0.011682 -0.00254635 0
0.403913 0.0151077 0
-0.0678323 0.081833 0
0.00920952 0.261969 0
0.280699 -0.0633537 0
-0.360275 0.0764158 0
-0.0314657 0.269053 0
-0.116313 0.22856 0
0.23002 -0.0852409 0
-0.00217926 -0.394484 0
0.0191748 0.153306 0
-0.12516 -0.528716 0
0.0374184 0.284248 0
-0.0363145 -0.00022522 0
-0.00205147 -0.0175601 0
-0.208898 -0.308868 0
-0.0753763 0.00414149 0
-0.187781 -0.0137229 0
-0.0939544 -0.0243316 0
-0.0769913 -0.429503 0
0.0601108 0.38929 0
-0.0363001 0.330082 0
0.0268737 -0.262802 0
-0.367444 0.0544686 0
0.188726 0.253284 0
0.00121359 -0.000874941 0
-0.16274 0.0409485 0
0.039152 0.172603 0
-0.0261853 0.279823 0
-0.0457429 0.0777379 0
-0.0378329 0.309834 0
0.0775648 0.373203 0
0.434575 0.00484512 0
-0.0399808 -0.627705 0
0.148363 0.0372566 0
0.0174882 -0.343645 0
-0.19279 -0.00806808 0
-0.23676 0.124247 0
-0.0367193 7.73817e-05 0
-0.0339955 0.0127096 0
0.0325615 -0.278293 0
0.0667391 0.195848 0
-0.0659222 0.0887514 0
-0.0360804 0.371953 0
-0.0345687 0.385182 0
-0.00564432 -0.00450023 0
-0.124675 0.281117 0
-0.155746 -0.0144721 0
-0.174715 -0.37957 0
-0.329361 -0.0967065 0
-0.196648 0.167617 0
-0.188693 -0.355203 0
-0.197363 -0.0183405 0
0.645762 0.00746263 0
0.411151 0.00556485 0
0.0181755 0.00214258 0
-0.125086 -0.190868 0
0.0220012 0.00347556 0
-0.0231718 0.0198391 0
-0.0250929 0.00966656 0
0.0186589 0.162661 0
-0.269175 0.218857 0
-0.0346308 0.348965 0
-0.12118 -0.543885 0
-0.342749 -0.0398734 0
-0.0566886 0.0206366 0
0.257998 -0.0801652 0
-0.00697386 0.00165118 0
0.0505121 -0.27521 0
0.268428 -0.0716966 0
0.12825 0.212453 0
-0.00131467 -0.00143492 0
0.204843 0.253884 0
-0.00516829 0.137838 0
-0.113843 -0.50623 0
-0.00512266 0.250824 0
-0.130401 0.270578 0
0.0388227 -0.101213 0
-0.0416764 0.319649 0
-0.0102896 0.175038 0
0.245114 -0.0887834 0
-0.345292 -0.279227 0
-0.00510563 -0.00652357 0
-0.000966471 0.133012 0
0.00118003 0.000834294 0
0.399361 0.00404997 0
-0.0639005 0.0179179 0
0.00479922 -0.000704338 0
0.00497407 0.04705 0
0.0262791 0.203196 0
-0.130354 0.175522 0
-0.063769 0.219529 0
0.271035 0.179749 0
0.19668 0.250478 0
0.0169745 0.143699 0
-0.0026325 0.0158964 0
0.0132705 0.252117 0
0.137303 0.124439 0
0.0973856 0.349978 0
-0.00220703 0.000465018 0
-0.110794 0.272285 0
-0.0659095 0.198757 0
-0.0582879 -0.500902 0
-0.101887 0.0390969 0
-0.055485 0.201817 0
-0.0173802 -0.379984 0
-0.0291331 -0.427596 0
0.2876 0.103777 0
5.20309e-05 0.261347 0
0.0217215 0.00131323 0
0.125542 -0.173039 0
-0.03474 0.334593 0
-0.114923 0.282039 0
0.020244 0.00180773 0
-0.0368456 -0.00500293 0
-0.345245 0.0139013 0
0.197774 0.257577 0
-0.270669 0.159487 0
-0.0126192 -0.0056576 0
-0.0846782 -0.000886282 0
0.0109485 -0.36428 0
-0.259922 0.0668708 0
-0.029257 0.00105451 0
-0.0711825 -0.104973 0
0.210411 -0.0968778 0
0.0421225 0.12031 0
0.285466 0.0918402 0
-0.0607096 0.0579397 0
0.00208939 -0.385845 0
0.0287689 -0.332605 0
0.0113309 -0.293547 0
-0.059244 0.0851761 0
-0.0373024 0.117821 0
0.0349326 -0.0425225 0
0.0155366 -0.322568 0
0.00751944 0.018269 0
-0.0317185 0.000946472 0
-0.102506 0.291336 0
-0.00341405 0.355064 0
-0.101156 0.273129 0
0.0254359 -0.283715 0
-0.156072 0.258458 0
-0.0985849 0.321447 0
-0.076738 0.120754 0
-0.140292 0.269721 0
0.203308 0.240213 0
0.00431372 -0.297999 0
0.0234007 0.273133 0
-0.0686068 0.0229246 0
-0.0697276 0.353865 0
-0.155001 -0.481213 0
0.0527006 0.186192 0
0.0300217 0.16967 0
0.214703 0.106112 0
0.00541124 -0.188057 0
0.100359 0.35757 0
0.153346 0.0832468 0
-0.0431858 0.299042 0
0.158092 0.0596645 0
0.384291 -0.0186034 0
-0.207002 0.167126 0
-0.0186706 0.0153041 0
-0.038203 0.357133 0
-0.0161494 0.304035 0
0.39954 0.0175724 0
0.0174261 0.10124 0
-0.127604 0.311397 0
-0.0912355 -0.212714 0
-0.061686 0.0787384 0
0.561217 0.0116367 0
-0.0390069 0.0737225 0
0.262446 0.189763 0
-0.00172539 -0.0173204 0
0.00376946 -0.00475868 0
0.147945 0.294616 0
0.0181318 -0.00224045 0
0.00761547 0.0155838 0
-0.0125423 -0.0161355 0
-0.119444 -0.232534 0
-0.188156 0.2364 0
0.0438663 -0.289505 0
0.0763351 0.352847 0
0.0608935 0.197592 0
-0.183444 -0.399457 0
-0.262624 -0.0805267 0
-0.146035 0.259248 0
-0.115158 0.240032 0
-0.278149 0.187247 0
-0.359447 0.0673944 0
-0.219376 0.117037 0
-0.119744 0.0486651 0
-0.00110061 0.00197772 0
-0.0492133 0.0721908 0
0.2548 0.198907 0
0.0470078 0.158403 0
-0.133636 -0.115074 0
-0.182549 -0.326033 0
-0.161832 0.248071 0
-0.112234 0.296059 0
-0.186392 -0.109767 0
0.0142334 -0.00747321 0
-0.0617985 0.345511 0
-0.177804 0.23706 0
-0.0509319 0.0141709 0
-0.181828 -0.415327 0
-0.11798 0.308547 0
0.106628 0.274353 0
-0.155464 -0.00285498 0
-0.190264 -0.321061 0
0.0748382 0.367817 0
0.00577473 0.0156078 0