# vtk DataFile Version 3.0
Malha 2D com triângulos: velocidade e pressão
ASCII
DATASET UNSTRUCTURED_GRID

POINTS 4451 double
0 0 0
1 0 0
1 1 0
0 1 0
0.0163934 0 0
0.0327869 0 0
0.0491803 0 0
0.0655738 0 0
0.0819672 0 0
0.0983607 0 0
0.114754 0 0
0.131148 0 0
0.147541 0 0
0.163934 0 0
0.180328 0 0
0.196721 0 0
0.213115 0 0
0.229508 0 0
0.245902 0 0
0.262295 0 0
0.278689 0 0
0.295082 0 0
0.311475 0 0
0.327869 0 0
0.344262 0 0
0.360656 0 0
0.377049 0 0
0.393443 0 0
0.409836 0 0
0.42623 0 0
0.442623 0 0
0.459016 0 0
0.47541 0 0
0.491803 0 0
0.508197 0 0
0.52459 0 0
0.540984 0 0
0.557377 0 0
0.57377 0 0
0.590164 0 0
0.606557 0 0
0.622951 0 0
0.639344 0 0
0.655738 0 0
0.672131 0 0
0.688525 0 0
0.704918 0 0
0.721311 0 0
0.737705 0 0
0.754098 0 0
0.770492 0 0
0.786885 0 0
0.803279 0 0
0.819672 0 0
0.836066 0 0
0.852459 0 0
0.868852 0 0
0.885246 0 0
0.901639 0 0
0.918033 0 0
0.934426 0 0
0.95082 0 0
0.967213 0 0
0.983607 0 0
1 0.0163934 0
1 0.0327869 0
1 0.0491803 0
1 0.0655738 0
1 0.0819672 0
1 0.0983607 0
1 0.114754 0
1 0.131148 0
1 0.147541 0
1 0.163934 0
1 0.180328 0
1 0.196721 0
1 0.213115 0
1 0.229508 0
1 0.245902 0
1 0.262295 0
1 0.278689 0
1 0.295082 0
1 0.311475 0
1 0.327869 0
1 0.344262 0
1 0.360656 0
1 0.377049 0
1 0.393443 0
1 0.409836 0
1 0.42623 0
1 0.442623 0
1 0.459016 0
1 0.47541 0
1 0.491803 0
1 0.508197 0
1 0.52459 0
1 0.540984 0
1 0.557377 0
1 0.57377 0
1 0.590164 0
1 0.606557 0
1 0.622951 0
1 0.639344 0
1 0.655738 0
1 0.672131 0
1 0.688525 0
1 0.704918 0
1 0.721311 0
1 0.737705 0
1 0.754098 0
1 0.770492 0
1 0.786885 0
1 0.803279 0
1 0.819672 0
1 0.836066 0
1 0.852459 0
1 0.868852 0
1 0.885246 0
1 0.901639 0
1 0.918033 0
1 0.934426 0
1 0.95082 0
1 0.967213 0
1 0.983607 0
0.983607 1 0
0.967213 1 0
0.95082 1 0
0.934426 1 0
0.918033 1 0
0.901639 1 0
0.885246 1 0
0.868852 1 0
0.852459 1 0
0.836066 1 0
0.819672 1 0
0.803279 1 0
0.786885 1 0
0.770492 1 0
0.754098 1 0
0.737705 1 0
0.721311 1 0
0.704918 1 0
0.688525 1 0
0.672131 1 0
0.655738 1 0
0.639344 1 0
0.622951 1 0
0.606557 1 0
0.590164 1 0
0.57377 1 0
0.557377 1 0
0.540984 1 0
0.52459 1 0
0.508197 1 0
0.491803 1 0
0.47541 1 0
0.459016 1 0
0.442623 1 0
0.42623 1 0
0.409836 1 0
0.393443 1 0
0.377049 1 0
0.360656 1 0
0.344262 1 0
0.327869 1 0
0.311475 1 0
0.295082 1 0
0.278689 1 0
0.262295 1 0
0.245902 1 0
0.229508 1 0
0.213115 1 0
0.196721 1 0
0.180328 1 0
0.163934 1 0
0.147541 1 0
0.131148 1 0
0.114754 1 0
0.0983607 1 0
0.0819672 1 0
0.0655738 1 0
0.0491803 1 0
0.0327869 1 0
0.0163934 1 0
0 0.983607 0
0 0.967213 0
0 0.95082 0
0 0.934426 0
0 0.918033 0
0 0.901639 0
0 0.885246 0
0 0.868852 0
0 0.852459 0
0 0.836066 0
0 0.819672 0
0 0.803279 0
0 0.786885 0
0 0.770492 0
0 0.754098 0
0 0.737705 0
0 0.721311 0
0 0.704918 0
0 0.688525 0
0 0.672131 0
0 0.655738 0
0 0.639344 0
0 0.622951 0
0 0.606557 0
0 0.590164 0
0 0.57377 0
0 0.557377 0
0 0.540984 0
0 0.52459 0
0 0.508197 0
0 0.491803 0
0 0.47541 0
0 0.459016 0
0 0.442623 0
0 0.42623 0
0 0.409836 0
0 0.393443 0
0 0.377049 0
0 0.360656 0
0 0.344262 0
0 0.327869 0
0 0.311475 0
0 0.295082 0
0 0.278689 0
0 0.262295 0
0 0.245902 0
0 0.229508 0
0 0.213115 0
0 0.196721 0
0 0.180328 0
0 0.163934 0
0 0.147541 0
0 0.131148 0
0 0.114754 0
0 0.0983607 0
0 0.0819672 0
0 0.0655738 0
0 0.0491803 0
0 0.0327869 0
0 0.0163934 0
0.986089 0.500495 0
0.0139111 0.500495 0
0.502342 0.984573 0
0.5 0.0141971 0
0.385246 0.0141971 0
0.985236 0.3867 0
0.0142863 0.614865 0
0.985803 0.614754 0
0.614587 0.984197 0
0.614754 0.0141971 0
0.388262 0.988632 0
0.0146766 0.386548 0
0.7118 0.985629 0
0.0156149 0.711538 0
0.286885 0.0141971 0
0.985395 0.285177 0
0.984385 0.711538 0
0.28851 0.986107 0
0.0150398 0.284676 0
0.713115 0.0141971 0
0.792866 0.984538 0
0.0145132 0.795116 0
0.204918 0.0141971 0
0.986652 0.204224 0
0.20726 0.984573 0
0.985377 0.795067 0
0.0147374 0.203357 0
0.795082 0.0141971 0
0.862998 0.984573 0
0.0144277 0.860257 0
0.139344 0.0141971 0
0.984368 0.140662 0
0.986844 0.860612 0
0.139344 0.985803 0
0.0156316 0.140662 0
0.860656 0.0141971 0
0.985037 0.663348 0
0.98436 0.566762 0
0.0139612 0.548795 0
0.334506 0.985452 0
0.434426 0.985803 0
0.663934 0.0141971 0
0.565574 0.0141971 0
0.45082 0.0141971 0
0.0925059 0.984573 0
0.985578 0.909405 0
0.336066 0.0141971 0
0.546838 0.985644 0
0.0155808 0.338218 0
0.0144486 0.434511 0
0.0149631 0.663348 0
0.909836 0.0141971 0
0.0155738 0.0878836 0
0.985803 0.45082 0
0.984419 0.338218 0
0.666101 0.984567 0
0.907362 0.984642 0
0.0144224 0.909405 0
0.0901639 0.0141971 0
0.984426 0.0878836 0
0.98453 0.942079 0
0.169399 0.988316 0
0.0546448 0.988316 0
0.942623 0.0141971 0
0.0155828 0.940162 0
0.057377 0.0141971 0
0.172131 0.0141971 0
0.944839 0.984538 0
0.0149153 0.171492 0
0.0157292 0.0573602 0
0.0153494 0.825811 0
0.985138 0.0571248 0
0.0141971 0.745902 0
0.0111954 0.582336 0
0.251366 0.988468 0
0.532787 0.0141971 0
0.0147766 0.465556 0
0.984412 0.764319 0
0.986085 0.828417 0
0.984371 0.171141 0
0.985803 0.532787 0
0.464481 0.988316 0
0.827869 0.0141971 0
0.827871 0.988771 0
0.747475 0.985938 0
0.581967 0.985803 0
0.762295 0.0141971 0
0.0144327 0.254857 0
0.254098 0.0141971 0
0.418033 0.0141971 0
0.985567 0.254857 0
0.986106 0.418155 0
0.974776 0.0138311 0
0.0246596 0.0138815 0
0.973324 0.985252 0
0.0127893 0.976653 0
0.958911 0.0141361 0
0.950802 0.0283841 0
0.934423 0.0283926 0
0.94262 0.0425894 0
0.926228 0.0425908 0
0.934425 0.0567881 0
0.918032 0.0567884 0
0.926229 0.0709856 0
0.909836 0.0709856 0
0.918033 0.0851828 0
0.901639 0.0851828 0
0.909836 0.09938 0
0.893443 0.09938 0
0.901639 0.113577 0
0.885246 0.113577 0
0.893443 0.127774 0
0.877049 0.127774 0
0.885246 0.141971 0
0.868852 0.141971 0
0.877049 0.156169 0
0.860656 0.156169 0
0.868852 0.170366 0
0.852459 0.170366 0
0.860656 0.184563 0
0.844262 0.184563 0
0.852459 0.19876 0
0.836066 0.19876 0
0.844262 0.212957 0
0.827869 0.212957 0
0.836066 0.227154 0
0.819672 0.227154 0
0.827869 0.241351 0
0.811475 0.241351 0
0.819672 0.255548 0
0.803279 0.255548 0
0.811475 0.269746 0
0.795082 0.269746 0
0.803279 0.283943 0
0.786885 0.283943 0
0.795082 0.29814 0
0.778689 0.29814 0
0.786885 0.312337 0
0.770492 0.312337 0
0.778689 0.326534 0
0.762295 0.326534 0
0.770492 0.340731 0
0.754098 0.340731 0
0.762295 0.354928 0
0.745902 0.354928 0
0.754098 0.369126 0
0.737705 0.369126 0
0.745902 0.383323 0
0.729508 0.383323 0
0.737705 0.39752 0
0.721311 0.39752 0
0.729508 0.411717 0
0.713115 0.411717 0
0.721311 0.425914 0
0.704918 0.425914 0
0.713115 0.440111 0
0.696721 0.440111 0
0.688525 0.425914 0
0.680328 0.440111 0
0.672131 0.425914 0
0.663934 0.440111 0
0.655738 0.425914 0
0.647541 0.440111 0
0.639344 0.425914 0
0.631148 0.440111 0
0.622951 0.425914 0
0.614754 0.440111 0
0.606557 0.425914 0
0.598361 0.440111 0
0.590164 0.425914 0
0.581967 0.440111 0
0.57377 0.425914 0
0.565574 0.440111 0
0.557377 0.425914 0
0.54918 0.440111 0
0.540984 0.425914 0
0.532787 0.440111 0
0.52459 0.425914 0
0.516393 0.440111 0
0.688525 0.454308 0
0.52459 0.454308 0
0.508197 0.425914 0
0.508197 0.454308 0
0.516393 0.468506 0
0.5 0.468506 0
0.508197 0.482703 0
0.491803 0.482703 0
0.5 0.4969 0
0.483607 0.4969 0
0.491803 0.511097 0
0.47541 0.511097 0
0.467213 0.4969 0
0.459016 0.511097 0
0.45082 0.4969 0
0.483607 0.525294 0
0.442623 0.511097 0
0.434426 0.4969 0
0.42623 0.511097 0
0.418033 0.4969 0
0.409836 0.511097 0
0.401639 0.4969 0
0.393443 0.511097 0
0.401639 0.525294 0
0.516393 0.411717 0
0.385246 0.4969 0
0.385246 0.525294 0
0.393443 0.539491 0
0.754098 0.312337 0
0.377049 0.539491 0
0.385246 0.553688 0
0.368852 0.553688 0
0.377049 0.567886 0
0.360656 0.567886 0
0.368852 0.582083 0
0.352459 0.582083 0
0.360656 0.59628 0
0.344262 0.59628 0
0.352459 0.610477 0
0.344262 0.567886 0
0.336066 0.610477 0
0.344262 0.624674 0
0.360656 0.624674 0
0.352459 0.638871 0
0.368852 0.638871 0
0.336066 0.638871 0
0.360656 0.653068 0
0.377049 0.653068 0
0.368852 0.667265 0
0.385246 0.667265 0
0.598361 0.411717 0
0.377049 0.681463 0
0.393443 0.681463 0
0.786885 0.255548 0
0.5 0.525294 0
0.5 0.411717 0
0.508197 0.39752 0
0.491803 0.39752 0
0.5 0.383323 0
0.483607 0.383323 0
0.491803 0.369126 0
0.47541 0.369126 0
0.483607 0.354928 0
0.467213 0.354928 0
0.47541 0.340731 0
0.459016 0.340731 0
0.467213 0.326534 0
0.45082 0.326534 0
0.459016 0.312337 0
0.442623 0.312337 0
0.47541 0.312337 0
0.385246 0.69566 0
0.401639 0.69566 0
0.368852 0.69566 0
0.467213 0.29814 0
0.483607 0.29814 0
0.393443 0.709857 0
0.409836 0.709857 0
0.729508 0.440111 0
0.47541 0.283943 0
0.491803 0.283943 0
0.401639 0.724054 0
0.418033 0.724054 0
0.483607 0.269746 0
0.5 0.269746 0
0.409836 0.738251 0
0.42623 0.738251 0
0.434426 0.724054 0
0.442623 0.738251 0
0.45082 0.724054 0
0.459016 0.738251 0
0.467213 0.724054 0
0.47541 0.738251 0
0.483607 0.724054 0
0.491803 0.738251 0
0.5 0.724054 0
0.508197 0.738251 0
0.516393 0.724054 0
0.52459 0.738251 0
0.532787 0.724054 0
0.540984 0.738251 0
0.54918 0.724054 0
0.557377 0.738251 0
0.565574 0.724054 0
0.57377 0.738251 0
0.581967 0.724054 0
0.590164 0.738251 0
0.598361 0.724054 0
0.606557 0.738251 0
0.614754 0.724054 0
0.622951 0.738251 0
0.631148 0.724054 0
0.639344 0.738251 0
0.647541 0.724054 0
0.655738 0.738251 0
0.663934 0.724054 0
0.672131 0.738251 0
0.680328 0.724054 0
0.688525 0.738251 0
0.696721 0.724054 0
0.704918 0.738251 0
0.713115 0.724054 0
0.721311 0.738251 0
0.729508 0.724054 0
0.737705 0.738251 0
0.639344 0.709857 0
0.721311 0.709857 0
0.737705 0.709857 0
0.622951 0.454308 0
0.729508 0.69566 0
0.745902 0.69566 0
0.491803 0.255548 0
0.508197 0.255548 0
0.47541 0.255548 0
0.819672 0.19876 0
0.762295 0.383323 0
0.737705 0.681463 0
0.754098 0.681463 0
0.680328 0.752448 0
0.516393 0.752448 0
0.598361 0.752448 0
0.45082 0.752448 0
0.434426 0.326534 0
0.42623 0.312337 0
0.418033 0.326534 0
0.409836 0.312337 0
0.401639 0.326534 0
0.393443 0.312337 0
0.385246 0.326534 0
0.377049 0.312337 0
0.368852 0.326534 0
0.360656 0.312337 0
0.352459 0.326534 0
0.344262 0.312337 0
0.336066 0.326534 0
0.327869 0.312337 0
0.319672 0.326534 0
0.311475 0.312337 0
0.303279 0.326534 0
[...]
CELL_DATA 8656
VECTORS velocity double
0.722033 0.0048018 0
-0.00165376 0.0418107 0
-0.000418208 0.0243977 0
-0.0546181 0.221669 0
-0.0621872 -0.411796 0
-0.000797805 0.00485796 0
-0.00728098 -0.0633244 0
0.444188 0.0424468 0
0.470877 -0.0461562 0
0.600928 0.0254819 0
0.0387928 0.157738 0
1.0211 -0.00296989 0
0.33172 0.0538797 0
2.01855e-05 -5.5498e-05 0
-0.00143897 0.0287791 0
-0.0010399 -0.0123427 0
-0.00215929 0.0151937 0
-0.0718475 -0.522542 0
-0.0011164 0.0305814 0
-0.00109633 0.0175296 0
0.750073 0.0106315 0
0.731041 0.01148 0
0.317431 -0.153619 0
0.527603 -0.0169897 0
0.182703 -0.214713 0
0.630137 0.00455736 0
-0.0012846 0.0227741 0
-0.000193259 0.000328481 0
-1.42262e-06 0.00025778 0
-0.0568762 -0.493128 0
-0.00109111 -0.00361333 0
5.083e-08 -3.84e-05 0
0.817799 -0.0189992 0
-0.00322705 0.0189147 0
-0.0806117 -0.562601 0
0.731823 -0.0139514 0
-0.0231873 0.155353 0
-0.0217014 -0.283588 0
0.537575 -0.00143898 0
-0.00163408 0.0160297 0
-0.00134284 -0.0100898 0
0.832311 -0.00338812 0
0.762923 0.00268189 0
0.640961 -0.0353485 0
0.567386 0.00698875 0
0.34046 0.0531926 0
0.651235 0.046317 0
0.637869 0.00206952 0
-0.00134631 0.0209293 0
-0.00127828 -0.0147298 0
-0.000782037 0.037322 0
-0.00372149 -0.0666247 0
-0.0426962 -0.382208 0
-0.00223473 -0.0353663 0
0.827906 0.00889326 0
0.843158 -0.000700215 0
0.776715 -0.0132578 0
0.724329 -0.0209584 0
0.772185 0.0235317 0
0.401405 -0.127439 0
0.681216 0.00188702 0
0.60535 -0.0227949 0
0.477555 0.0326079 0
0.108705 -0.209063 0
0.813372 0.0117886 0
0.712051 0.0379388 0
-0.00028746 0.00285588 0
-0.000226232 0.000767763 0
-5.91437e-05 0.000148864 0
-0.000790462 0.0103077 0
-0.000559581 -0.00539665 0
-0.00620374 0.0735812 0
-0.000598961 0.0430905 0
-0.00452778 -0.0984458 0
-0.0109141 -0.149452 0
0.810009 0.00492232 0
0.624488 0.0140588 0
-0.0107824 -0.161969 0
0.680017 0.0041394 0
-0.00528378 0.0734488 0
0.534768 -0.0491767 0
-0.000182326 0.0338159 0
-0.00312686 -0.0550911 0
-0.00313782 0.0661989 0
-0.00148164 0.0207697 0
-6.33755e-05 0.000110191 0
7.69212e-06 0.000236238 0
0.646464 -0.00170431 0
0.702072 0.0120108 0
0.169794 -0.215875 0
-0.0674059 -0.513615 0
-0.00223717 -0.0108558 0
-0.00142048 0.0127249 0
-0.0765657 -0.547372 0
-0.00136572 0.0539644 0
-0.000917168 0.0505309 0
-0.00586312 -0.107468 0
0.241163 0.0894432 0
0.655635 -0.0313681 0
0.746853 0.0218056 0
0.534103 0.0401515 0
0.567891 -0.0125236 0
0.541507 0.0477129 0
0.570377 -0.0339724 0
0.562614 -0.0412224 0
0.704268 0.0160314 0
0.898304 -0.00118335 0
0.177324 0.109152 0
0.85983 -0.0222193 0
0.057429 0.15202 0
0.67555 0.0222147 0
0.416526 0.0504399 0
0.462231 0.0324023 0
0.749095 -0.0189546 0
0.729397 -0.023393 0
-0.000817779 0.0105064 0
-0.000590849 -0.00625801 0
-0.00218457 0.047266 0
-0.00756802 -0.0885561 0
-0.000920114 -0.00285286 0
-0.0151413 -0.26743 0
0.200681 0.107699 0
0.755081 0.0221783 0
0.536875 0.0448198 0
0.695363 -0.0277345 0
-0.00693676 -0.0583955 0
-0.000496069 0.00204235 0
-0.000190663 -0.000320343 0
-0.00569604 -0.051426 0
-0.00651647 -0.0992583 0
-0.00929479 -0.0503418 0
-0.0012186 0.0139858 0
0.592934 -0.00661033 0
0.608851 0.00441762 0
-0.00325503 -0.0527391 0
-0.000165941 0.0428649 0
-0.00365787 -0.0679898 0
-0.0701201 -0.446341 0
-0.00102268 -0.0259966 0
1.504e-05 3.2597e-05 0
-0.00446479 -0.0460327 0
-0.00147293 0.0451537 0
0.618766 -0.0278317 0
-0.00723857 -0.0441322 0
-0.000618844 0.00304013 0
-0.000269225 -0.000713551 0
-0.0845888 -0.526313 0
-0.000641318 -0.00263732 0
-0.000428268 0.00121262 0
-0.000138644 2.64024e-05 0
-0.00293881 0.049007 0
-0.0012251 0.0484745 0
-0.000694398 -0.00640705 0
0.453426 -0.0274032 0
-0.0977396 0.322575 0
0.235245 -0.167181 0
0.622124 -0.0018602 0
-0.0849235 -0.540634 0
-0.00206862 -0.00858301 0
-0.00145885 0.0247842 0
-0.0350131 -0.306032 0
-0.00360373 0.0182757 0
-0.0285736 0.157307 0
-0.000551056 0.0516655 0
-0.00499404 -0.12006 0
-0.0358088 0.175683 0
-0.000836208 -0.0138119 0
-0.0118828 0.0899459 0
-0.0119174 0.100309 0
-0.0191895 -0.254637 0
-0.00457014 0.0680603 0
-0.00259895 0.0275165 0
-0.00170762 -0.00856005 0
-0.00223406 0.0448828 0
-0.007716 -0.22251 0
-0.0834816 -0.527429 0
-0.0700335 0.230952 0
0.000359486 0.0116608 0
0.000213243 -0.0220004 0
-0.0825457 -0.551378 0
-0.00284091 -0.0120366 0
7.13e-05 0.000223121 0
0.695617 -0.0116279 0
0.000134815 0.0221194 0
-0.000410142 -0.0417584 0
-0.0216376 -0.249951 0
0.000391512 0.035471 0
-0.000497382 -0.072962 0
-0.0172006 -0.220996 0
-0.00157979 0.0428958 0
-0.00769904 -0.0733811 0
-0.00135405 -0.0266986 0
-0.000374648 0.0158667 0
-0.000410303 0.00899821 0
1.64599e-05 2.0937e-05 0
-0.0027059 0.0537863 0
-0.0106058 -0.127102 0
-0.0739485 -0.529359 0
-0.00701772 0.0825422 0
-0.000578971 0.0033172 0
0.836019 -0.013176 0
-0.00705902 0.0865646 0
-0.00271764 0.0164464 0
-0.00319517 0.0621527 0
-0.0087537 -0.157311 0
-0.000648849 0.00785404 0
-0.000483845 -0.00349673 0
-0.00116482 -0.00733255 0
-0.0013842 0.0132753 0
-0.0223872 0.137971 0
-0.0259031 -0.299796 0
-0.000568799 0.00493711 0
-0.00539246 -0.166234 0
-0.00664115 0.0839088 0
-0.0310966 0.172818 0
-0.00306743 0.0629423 0
-0.00025134 0.0443368 0
-0.00440092 -0.0813851 0
-0.000303686 0.000791745 0
-6.77412e-05 0.000166603 0
-0.00134367 -0.0113856 0
-0.00150598 0.0173183 0
0.639839 0.0198419 0
0.688843 0.0215485 0
0.733861 -0.017677 0
0.816362 -0.00597352 0
0.916717 0.000809389 0
0.864776 -0.00187593 0
0.856691 0.000659765 0
0.740996 0.00590779 0
0.860761 0.00877434 0
0.902017 0.00663323 0
0.711456 -0.00592197 0
0.894105 -0.0038389 0
0.802561 -0.0121488 0
0.786163 0.00759253 0
0.816871 -0.00926477 0
0.848015 -0.00342213 0
0.743221 0.000165156 0
0.820664 0.00200344 0
0.612311 -0.0217716 0
-0.00924811 0.0832006 0
-0.0121869 -0.190396 0
-0.00244994 -0.0105058 0
-7.93741e-05 5.55297e-05 0
5.4814e-05 0.000245724 0
-0.000976224 0.033731 0
-0.0792905 -0.547297 0
-0.00262488 -0.0417771 0
-0.00220879 0.0227729 0
0.486293 -0.019834 0
-0.00318964 -0.0113075 0
4.36516e-05 -4.13056e-05 0
-0.000299885 0.00158173 0
-9.78233e-05 -0.000169557 0
-0.000495506 -0.00423817 0
-6.94917e-05 2.65482e-05 0
-0.0350068 0.157313 0
-0.0390244 -0.33856 0
-0.0989288 0.317774 0
0.74225 -0.00690042 0
-0.00313695 0.0184922 0
-0.0971608 0.321157 0
-0.000406571 0.0329226 0
-0.0705631 -0.51525 0
-0.000760862 0.00756197 0
-0.00045598 -0.00330336 0
-0.00233375 0.013942 0
-0.00199521 0.0200648 0
-0.00188272 -0.0137874 0
-0.000705632 0.00890954 0
-0.000132662 -0.00267516 0
-0.000157803 0.00591652 0
-0.00146557 -0.00705326 0
-0.0516113 0.210563 0
-0.00254765 -0.0386048 0
-0.0583658 0.202305 0
-0.00411177 0.0586447 0
0.526358 0.0190676 0
0.838496 0.00430471 0
-0.000754499 0.00881159 0
-0.0766248 -0.504419 0
0.851033 -0.00381428 0
0.377004 0.0805465 0
0.845137 0.0202655 0
0.686245 0.0390421 0
0.820633 -0.00158908 0
-0.0173605 0.138473 0
-0.0407541 0.189579 0
-0.00354605 -0.055434 0
-0.000596391 0.0327403 0
-0.0727782 0.256216 0
-0.00100593 0.0175214 0
0.904983 0.018432 0
0.82058 -0.000961859 0
0.742043 0.00873327 0
0.830131 0.0047857 0
0.816992 -0.00870208 0
0.548717 -0.070294 0
-0.00635766 0.0788818 0
0.731292 -0.00414804 0
-0.00224155 0.0467801 0
-0.00793002 0.0928994 0
-0.00668215 0.0892457 0
0.966131 -0.00514457 0
0.988089 -0.00311947 0
0.982804 0.00132427 0
0.91547 -0.00547024 0
-0.000264629 0.00188354 0
-0.000105082 -0.000325002 0
0.814519 -0.0309817 0
0.708292 -0.0189133 0
-0.0898887 -0.44873 0
0.985474 0.00112904 0
0.994467 -0.00230402 0
-0.00569457 -0.127628 0
-0.00130061 -0.00780053 0
-0.000223012 0.00041083 0
-2.35247e-05 0.000249765 0
-0.00184557 0.0427729 0
0.664647 -0.0401124 0
-0.000757231 0.0385622 0
-0.00311627 -0.0516754 0
-0.0012081 0.0146717 0
-0.00103584 -0.00878389 0
-0.00698244 0.075318 0
-0.000484757 0.00182051 0
-0.000179323 -0.000205144 0
-0.00771189 -0.137521 0
-0.00166236 -0.0168301 0
-0.000343254 -0.000948618 0
-7.6336e-05 0.0246724 0
-0.00128579 0.0507257 0
-0.00823339 -0.111789 0
0.882776 0.00757402 0
0.9862 0.00379804 0
-0.000979094 0.0299268 0
-0.00292181 -0.0478041 0
0.476356 0.0376146 0
0.710795 -0.00488887 0
-0.00247764 0.0517037 0
0.66285 -0.000583653 0
0.830153 -0.00117038 0
0.412081 0.0224576 0
0.751427 -0.0316887 0
-0.00152922 0.0114728 0
-0.000904019 -0.00563705 0
-0.0362921 0.165953 0
-0.0509945 -0.395883 0
0.922199 0.024668 0
-0.00142593 0.0331616 0
-0.00261269 -0.0331178 0
0.777812 0.000515044 0
0.819663 0.00581285 0
0.912777 0.0032733 0
0.889526 -0.000663654 0
0.898368 0.00665507 0
0.84169 -0.0236158 0
0.601094 0.0173865 0
0.645575 0.0071631 0
0.561242 -0.0186072 0
0.752797 -0.0371038 0
0.704847 -0.036426 0
0.891585 -0.00261806 0
0.875137 -0.0220804 0
-1.14938e-05 -4.18445e-05 0
-0.00205876 -0.0313759 0
0.752976 0.00496522 0
-0.00124039 0.00522713 0
-0.0187564 -0.229898 0
0.353141 -0.110488 0
-0.00104237 0.0153757 0
-0.00101234 -0.0101919 0
0.688462 -0.0247867 0
0.458433 -0.0865121 0
0.640221 0.00945391 0
0.61776 -0.0243011 0
0.488487 0.0247284 0
-0.00407098 0.0646004 0
-0.0943777 -0.55742 0
-0.00133217 -0.00740504 0
-0.0206082 0.133609 0
-0.0708407 -0.473556 0
-0.0377252 -0.340003 0
0.87066 0.00111012 0
-0.0202824 -0.164301 0
4.67315e-05 0.000168342 0
-0.0648074 -0.414365 0
-0.0551335 -0.426702 0
-0.0412278 -0.388078 0
-0.0571735 -0.465697 0
-0.0477497 -0.428861 0
-0.0652585 -0.491254 0
-0.0421824 -0.435246 0
-0.0291264 -0.379881 0
-0.0294358 -0.333324 0
-0.0202581 -0.123983 0
-0.0249172 -0.15493 0
-0.0237204 -0.145842 0
-0.0216079 -0.131783 0
-0.0449807 -0.230369 0
-0.0549423 -0.25732 0
-0.0286627 -0.154072 0
-0.000132388 0.000137429 0
-2.24106e-05 5.58815e-05 0
-0.00224182 -4.79744e-05 0
-0.0503325 -0.222875 0
-0.0572318 -0.272557 0
-0.0107215 -0.0864539 0
-0.0328472 -0.180326 0
-0.024585 0.175503 0
-0.040229 -0.255162 0
0.36112 0.0384302 0
-0.00472068 -6.03957e-05 0
-0.0304222 0.184959 0
-0.0305811 -0.163816 0
-0.00800812 0.000486549 0
-0.0514246 -0.289101 0
-0.0110998 0.000922462 0
-0.00923016 -0.000188396 0
-0.0457043 0.18381 0
-0.0464265 -0.250943 0
-0.00234106 -4.09385e-05 0
0.173905 -0.138325 0
0.316353 -0.0655037 0
-0.0483618 0.18656 0
-0.00562424 0.00032433 0
0.335265 0.0365356 0
-0.00238114 0.000300314 0
-0.0148357 -0.10344 0
-0.00270799 0.000454572 0
-0.0566044 0.188876 0
-0.0545645 0.186549 0
-0.0712668 0.184027 0
-0.00600483 0.000516458 0
-0.0433114 -0.217421 0
-0.0181957 -0.0018326 0
-0.0484207 -0.265775 0
-0.0016377 -0.000294318 0
0.201879 0.084289 0
-0.00189468 0.000281435 0
-0.00594793 0.00120611 0
-0.0381578 -0.241185 0
-0.0744906 0.188999 0
-0.000915325 6.4595e-05 0
-0.00454133 -7.22566e-05 0
-0.0547508 -0.306113 0
-0.00154858 -7.25174e-05 0
-0.0531684 0.196394 0
0.297865 0.0423709 0
-0.00212773 0.000421058 0
-0.00924044 0.00044328 0
-0.00667875 0.000305266 0
-0.00764939 0.000274602 0
-0.00112396 0.000328607 0
-0.00903491 -0.00051388 0
-0.00717698 0.000291361 0
-0.00144375 0.000257299 0
-0.0116634 -0.000265493 0
-0.00863872 0.000467175 0
-0.000392341 0.000150731 0
-0.0083392 -0.000545785 0
0.102833 0.110473 0
-0.00957969 0.050394 0
-0.00104702 -7.49652e-05 0
-0.000721545 0.000269174 0
-0.06753 -0.339051 0
0.227968 -0.107032 0
-0.000683632 0.000192059 0
-0.0156821 -0.00110682 0
-0.000398784 0.000201281 0
-0.00752232 -0.000316911 0
-0.00697648 -0.000339844 0
0.258759 0.0526172 0
-0.0676523 0.196445 0
-0.0720328 -0.358093 0
-0.0174736 -0.121859 0
-0.012162 0.00121623 0
-0.0099922 7.4289e-06 0
-0.00994965 4.5322e-05 0
-0.00103707 0.000227579 0
-0.0124236 -1.90023e-05 0
0.257552 -0.0904412 0
-0.0124111 4.1214e-05 0
-0.0015962 0.000379196 0
-0.00973123 -0.000110922 0
-0.0103129 -0.00143736 0
-0.00984495 8.18592e-05 0
-0.0121538 0.000155582 0
-0.0122059 -0.000142901 0
-0.00342826 0.000323869 0
-0.0206073 -0.00211488 0
-0.00198227 0.000105147 0
-0.00454021 -0.000379196 0
-0.00942968 0.0480474 0
0.000456811 0.173285 0
-0.0708424 0.194091 0
-0.00308695 -0.000522334 0
-0.00849774 0.000232631 0
-0.0123203 9.96308e-05 0
-0.0103333 0.00038211 0
-0.0116091 0.000257918 0
-0.00688342 0.176116 0
-0.00809121 0.000255016 0
-0.0528166 -0.236327 0
-0.0410755 -0.198817 0
-0.0851039 -0.387184 0
-2.62452e-05 5.55469e-05 0
-0.00271044 -0.000346015 0
-0.00786052 0.17417 0
-0.0153551 0.176354 0
-0.0119748 -0.000204844 0
0.0840121 0.108573 0
-0.0029233 -0.00011987 0
-0.00277654 -0.00100529 0
-0.0113739 0.0515239 0
-0.00886434 0.000207495 0
-0.0169204 0.173923 0
-0.00226855 -0.000122503 0
-0.0899213 -0.40628 0
-0.0599241 0.198541 0
-0.010279 -0.000429509 0
-0.0285408 0.179056 0
-0.00215299 -0.000322931 0
-0.0369291 0.186035 0
-0.0701325 0.193983 0
-0.0184988 -0.000579374 0
-0.0112934 0.00194025 0
-0.0141609 -0.000810006 0
-0.0272715 -0.00545191 0
-0.00680609 -0.00138259 0
-0.026735 0.18167 0
-0.0112398 0.00030348 0
-0.0729038 0.191176 0
-0.00317216 -0.00438307 0
-0.000108956 0.00011785 0
-0.0266347 -0.00472491 0
-0.0199102 -0.0989355 0
-0.0016995 0.000103418 0
-0.0678824 0.196125 0
0.104359 -0.120554 0
-0.00918652 0.000179687 0
-0.00356821 -0.00518597 0
-0.00980728 0.000414911 0
-0.00106046 6.5292e-05 0
-0.0472923 -0.00869468 0
-0.0485546 0.160145 0
-0.00242438 -0.000482037 0
-0.00507798 0.000329307 0
-0.071304 0.193619 0
0.286324 0.0511026 0
-0.0607552 0.193159 0
-0.000164183 0.000126495 0
-0.0637514 0.190221 0
-0.0717528 0.190661 0
-0.0390124 0.18328 0
-0.0724117 0.185835 0
-0.0108127 0.000344933 0
-0.0110681 0.0490292 0
-0.00607716 -0.000591591 0
-0.00256924 -9.98791e-06 0
-1.8143e-05 2.82662e-05 0
-0.00639669 -0.000357961 0
-0.0998527 0.161825 0
-0.000171334 0.000103984 0
0.0189129 0.132798 0
-0.0163428 -0.0286058 0
-0.0175224 0.00366805 0
-0.101939 -0.428529 0
-0.0655059 0.185027 0
-0.0556571 0.1938 0
-0.00968067 0.000116643 0
0.126668 -0.11365 0
-0.00997082 -3.15126e-05 0
-0.0623078 0.188324 0
-0.00181844 -0.000433596 0
-0.0975543 0.161111 0
-0.0503081 -0.00884398 0
-0.00988404 -7.11484e-05 0
-0.00423025 0.0331311 0
-0.0234658 -0.0037025 0
-0.0344391 -0.191357 0
-0.024147 0.143291 0
-0.00324021 -0.000115704 0
-0.0654905 0.175307 0
-0.054595 0.198077 0
-0.0988191 0.15687 0
-0.0131301 0.00233105 0
0.359906 0.00352503 0
-0.00951281 -0.000150217 0
-0.141063 -0.388879 0
-0.00945998 0.00014934 0
0.5429 -0.0117747 0
-0.0062503 0.0403358 0
-0.00668481 0.000511361 0
-0.0807512 0.240696 0
-0.0227479 -0.000880816 0
-0.00198586 -0.000723529 0
-0.00849515 -0.00111561 0
0.0477028 -0.0733826 0
-0.00457366 0.178757 0
-0.0541973 0.175302 0
-0.00246971 2.64998e-05 0
-0.0116217 0.0418885 0
-0.00862055 0.0413806 0
-0.016031 -0.0005023 0
0.514698 -0.0114842 0
0.284553 -0.0792682 0
-0.0741192 0.18745 0
-0.0193043 -0.00228564 0
-0.00433128 -8.334e-05 0
-0.0702412 0.194889 0
-0.00459745 0.18006 0
0.381764 0.00484524 0
0.0536993 -0.119604 0
-0.0698156 0.190603 0
-0.0804904 0.1818 0
-0.0888506 0.157368 0
-0.0715253 0.151039 0
-0.00968444 -0.000474833 0
-0.0376534 0.18601 0
-0.0166614 -0.0329912 0
-0.0284606 -0.0208473 0
-0.0174637 -0.0313223 0
-0.00771783 0.0464756 0
-0.1363 -0.095641 0
0.352521 0.0129465 0
-0.0307695 -0.007524 0
-0.10623 -0.445112 0
-0.0047336 0.000912919 0
-0.0795143 -0.21356 0
-0.0407428 0.187502 0
-0.000766905 -0.00022275 0
-0.00895816 0.0436825 0
-0.0260185 -0.000375118 0
-0.170488 -0.0465936 0
-0.00837768 0.000980394 0
-0.0156016 -0.030197 0
-0.0105283 -0.0725601 0
-0.00673505 0.017946 0
-0.00641653 -0.00108786 0
-0.00453793 -0.000575944 0
-0.00283433 0.0730179 0
-0.0895748 0.152884 0
-0.0697678 0.181855 0
-0.0245483 0.00115061 0
-0.10626 -0.485017 0
-0.00592942 -0.00436031 0
-0.0439527 0.165 0
-0.149546 -0.0499535 0
-0.0456256 0.135329 0
-0.180559 -0.0399628 0
-0.161827 -0.0433522 0
-0.00953664 -0.0011031 0
-0.0806119 0.133613 0
0.450685 -0.0106375 0
-0.172855 -0.0368873 0
0.211529 -0.0756832 0
-0.00194108 -0.00012081 0
-0.0226019 -0.00311086 0
-0.0182953 0.0102726 0
-0.01482 0.051626 0
-0.0323582 -0.00081435 0
-0.00201712 5.24496e-05 0
-0.00848306 -0.000258787 0
-0.104574 0.267787 0
-0.112068 -0.146201 0
-0.00388767 8.79832e-05 0
0.18233 -0.0114784 0
0.347604 0.0452195 0
-0.00391399 -0.000374293 0
0.373914 0.0144805 0
-0.0121408 0.0203055 0
-0.0914982 0.172824 0
0.245943 -0.0726964 0
-0.0647877 0.00923906 0
-0.0962136 0.155891 0
-0.0227518 0.0507093 0
0.201633 -0.119142 0
-0.115495 -0.457548 0
-0.07858 0.225533 0
-0.0566622 -0.172115 0
-0.0781925 0.185263 0
-0.00505921 -2.23407e-05 0
-0.0105405 -0.00379971 0
-0.11346 -0.122903 0
-0.0119154 0.0002085 0
-0.0299302 -0.000891589 0
-0.0193435 -0.00167787 0
-0.0149091 -0.0870098 0
-0.0324659 0.179388 0
-0.0746057 0.15332 0
-0.167987 -0.303179 0
-0.0651785 0.00638931 0
-0.0239088 0.19628 0
-0.00138374 -7.45176e-05 0
-0.0288918 0.00390438 0
-0.0758169 0.187257 0
-0.0915434 0.158677 0
-0.00704457 0.0196743 0
-0.0820839 0.153508 0
-0.0437166 0.196977 0
0.479982 -0.0126661 0
-0.0555151 -0.366396 0
0.473698 0.0119681 0
-0.122028 -0.473066 0
-0.0302865 -0.000514659 0
-0.042511 0.0168908 0
-0.00510328 -9.54922e-06 0
-0.0117329 0.00233038 0
-0.15415 -0.342606 0
-0.0746303 0.191424 0
-0.0112717 0.0218882 0
-0.0566162 0.147087 0
-0.0354055 0.128351 0
-0.0057913 -0.000370798 0
-0.0916978 0.112709 0
-0.0252331 -0.000927223 0
-0.0981791 -0.152272 0
-0.0539658 -0.010061 0
-0.123702 0.0701158 0
-0.103751 -0.141271 0
-0.0318753 -0.00124839 0
0.730584 0.00650817 0
0.417842 -0.00651614 0
-0.000430399 -0.00025022 0
-0.0196743 -0.0369865 0
-0.000809093 -0.000488296 0
-0.00647991 0.00783511 0
-0.010014 0.00192996 0
-0.0890207 0.205318 0
-0.0557669 0.0379462 0
-0.0671609 0.152257 0
-0.0489114 -0.163513 0
-0.0564777 -0.0038922 0
-0.0154713 0.00319144 0
0.188043 -0.0810679 0
-0.00452608 0.000331049 0
-0.0939268 -0.436739 0
0.221467 -0.0785166 0
-0.0383881 0.16337 0
-0.00186502 0.00234194 0
-0.0169926 0.191006 0
-0.0513587 0.167302 0
-0.0696116 -0.19898 0
-0.0981358 0.165854 0
-0.0956178 0.109914 0
-0.159145 -0.0533838 0
-0.0790731 0.151608 0
-0.00282284 0.0325654 0
0.168317 -0.0933861 0
-0.0732691 -0.0529695 0
-0.00684929 -0.000585218 0
-0.0262081 0.147791 0
-0.00256962 0.00187607 0
0.389469 -0.00345489 0
-0.0158893 0.00226219 0
-0.000704014 0.000399094 0
-0.00265275 0.0595998 0
-0.00350147 0.0888816 0
-0.0236092 0.0367962 0
-0.0127105 0.0492827 0
0.0567067 0.135184 0
-0.0197847 0.193456 0
-0.0715775 0.222008 0
-0.00282739 -0.00509267 0
-0.0932401 0.173286 0
-0.0486321 0.158631 0
-0.0277177 0.19464 0
-0.00226815 0.000105687 0
-0.0961519 0.118813 0
-0.0120335 0.0444066 0
-0.0161899 -0.114507 0
-0.0221989 0.00525386 0
-0.0104729 0.0443772 0
-0.130844 -0.390441 0
-0.109059 -0.374299 0
0.240013 0.0635574 0
-0.0934589 0.168947 0
-0.00127889 -0.000377953 0
-0.0454244 -0.178837 0
-0.0172139 0.0916758 0
-0.092459 0.117259 0
-0.000814034 -0.000316321 0
-0.00802671 -0.000289697 0
-0.0575164 0.00150721 0
-0.0208043 0.194528 0
-0.0499733 0.0232073 0
-0.00393408 -0.0113613 0
-0.0123555 -8.06472e-05 0
-0.117611 -0.4818 0
-0.0436699 0.00683772 0
-0.00483165 4.83325e-05 0
-0.0130377 -0.0265951 0
0.0665412 -0.0698592 0
0.0840167 0.0931351 0
0.274271 0.0554592 0
-0.0125394 0.0149758 0
-0.11794 -0.468667 0
-0.105981 -0.495598 0
-0.170017 -0.342579 0
-0.00980935 0.0213002 0
-0.0195768 0.157108 0
-0.154677 0.0160915 0
-0.145515 -0.414446 0
-0.000820513 -0.000984214 0
-0.00494751 3.78992e-05 0
-0.0257566 0.0695144 0
-0.016852 0.110464 0
-0.0967069 0.123386 0
-0.161041 -0.346604 0
-0.0971013 0.09816 0
-0.0295519 0.0808568 0
-0.0127274 0.0281091 0
-0.0946233 0.105462 0
-0.0155306 0.189917 0
-0.173262 -0.34253 0
-0.0848115 0.179307 0
-0.0170748 0.00315844 0
-0.0297162 0.0984857 0
-0.0345813 -0.101899 0
-0.0959106 0.172479 0
-0.0792976 0.223562 0
0.221696 0.0527246 0
-0.194876 -0.171914 0
-0.0294479 0.197957 0
-0.035511 0.135229 0
-0.0866436 0.151337 0
-0.0311308 0.119014 0
0.423744 -0.0250205 0
-0.121383 0.0666376 0
-0.00590905 0.00671556 0
-0.0640283 0.14956 0
-0.00966032 0.0779348 0
0.345461 0.0217288 0
-0.0116564 0.11892 0
-0.0345451 0.0750154 0
-0.0137774 -0.0425676 0
-0.0107414 0.0199409 0
0.664634 0.00132199 0
-0.00568878 0.0185103 0
0.0441263 0.14095 0
-0.0105395 -0.00338038 0
-0.00724425 -0.00519491 0
-0.0482951 0.20832 0
-0.00379534 -0.00055379 0
-0.000360131 -0.000331915 0
-0.00984266 -0.00728945 0
-0.19735 -0.165084 0
-0.100607 0.0835983 0