# vtk DataFile Version 3.0
Malha 2D com triângulos e temperatura
ASCII
DATASET UNSTRUCTURED_GRID

POINTS 2500 double
0 0 0
1 0 0
1 1 0
0 1 0
0.0204082 0 0
0.0408163 0 0
0.0612245 0 0
0.0816327 0 0
0.102041 0 0
0.122449 0 0
0.142857 0 0
0.163265 0 0
0.183673 0 0
0.204082 0 0
0.22449 0 0
0.244898 0 0
0.265306 0 0
0.285714 0 0
0.306122 0 0
0.326531 0 0
0.346939 0 0
0.367347 0 0
0.387755 0 0
0.408163 0 0
0.428571 0 0
0.44898 0 0
0.469388 0 0
0.489796 0 0
0.510204 0 0
0.530612 0 0
0.55102 0 0
0.571429 0 0
0.591837 0 0
0.612245 0 0
0.632653 0 0
0.653061 0 0
0.673469 0 0
0.693878 0 0
0.714286 0 0
0.734694 0 0
0.755102 0 0
0.77551 0 0
0.795918 0 0
0.816327 0 0
0.836735 0 0
0.857143 0 0
0.877551 0 0
0.897959 0 0
0.918367 0 0
0.938776 0 0
0.959184 0 0
0.979592 0 0
1 0.0204082 0
1 0.0408163 0
1 0.0612245 0
1 0.0816327 0
1 0.102041 0
1 0.122449 0
1 0.142857 0
1 0.163265 0
1 0.183673 0
1 0.204082 0
1 0.22449 0
1 0.244898 0
1 0.265306 0
1 0.285714 0
1 0.306122 0
1 0.326531 0
1 0.346939 0
1 0.367347 0
1 0.387755 0
1 0.408163 0
1 0.428571 0
1 0.44898 0
1 0.469388 0
1 0.489796 0
1 0.510204 0
1 0.530612 0
1 0.55102 0
1 0.571429 0
1 0.591837 0
1 0.612245 0
1 0.632653 0
1 0.653061 0
1 0.673469 0
1 0.693878 0
1 0.714286 0
1 0.734694 0
1 0.755102 0
1 0.77551 0
1 0.795918 0
1 0.816327 0
1 0.836735 0
1 0.857143 0
1 0.877551 0
1 0.897959 0
1 0.918367 0
1 0.938776 0
1 0.959184 0
1 0.979592 0
0.979592 1 0
0.959184 1 0
0.938776 1 0
0.918367 1 0
0.897959 1 0
0.877551 1 0
0.857143 1 0
0.836735 1 0
0.816327 1 0
0.795918 1 0
0.77551 1 0
0.755102 1 0
0.734694 1 0
0.714286 1 0
0.693878 1 0
0.673469 1 0
0.653061 1 0
0.632653 1 0
0.612245 1 0
0.591837 1 0
0.571429 1 0
0.55102 1 0
0.530612 1 0
0.510204 1 0
0.489796 1 0
0.469388 1 0
0.44898 1 0
0.428571 1 0
0.408163 1 0
0.387755 1 0
0.367347 1 0
0.346939 1 0
0.326531 1 0
0.306122 1 0
0.285714 1 0
0.265306 1 0
0.244898 1 0
0.22449 1 0
0.204082 1 0
0.183673 1 0
0.163265 1 0
0.142857 1 0
0.122449 1 0
0.102041 1 0
0.0816327 1 0
0.0612245 1 0
0.0408163 1 0
0.0204082 1 0
0 0.979592 0
0 0.959184 0
0 0.938776 0
0 0.918367 0
0 0.897959 0
0 0.877551 0
0 0.857143 0
0 0.836735 0
0 0.816327 0
0 0.795918 0
0 0.77551 0
0 0.755102 0
0 0.734694 0
0 0.714286 0
0 0.693878 0
0 0.673469 0
0 0.653061 0
0 0.632653 0
0 0.612245 0
0 0.591837 0
0 0.571429 0
0 0.55102 0
0 0.530612 0
0 0.510204 0
0 0.489796 0
0 0.469388 0
0 0.44898 0
0 0.428571 0
0 0.408163 0
0 0.387755 0
0 0.367347 0
0 0.346939 0
0 0.326531 0
0 0.306122 0
0 0.285714 0
0 0.265306 0
0 0.244898 0
0 0.22449 0
0 0.204082 0
0 0.183673 0
0 0.163265 0
0 0.142857 0
0 0.122449 0
0 0.102041 0
0 0.0816327 0
0 0.0612245 0
0 0.0408163 0
0 0.0204082 0
0.0204082 0.979592 0
0.0204082 0.959184 0
0.0204082 0.938776 0
0.0204082 0.918367 0
0.0204082 0.897959 0
0.0204082 0.877551 0
0.0204082 0.857143 0
0.0204082 0.836735 0
0.0204082 0.816327 0
0.0204082 0.795918 0
0.0204082 0.77551 0
0.0204082 0.755102 0
0.0204082 0.734694 0
0.0204082 0.714286 0
0.0204082 0.693878 0
0.0204082 0.673469 0
0.0204082 0.653061 0
0.0204082 0.632653 0
0.0204082 0.612245 0
0.0204082 0.591837 0
0.0204082 0.571429 0
0.0204082 0.55102 0
0.0204082 0.530612 0
0.0204082 0.510204 0
0.0204082 0.489796 0
0.0204082 0.469388 0
0.0204082 0.44898 0
0.0204082 0.428571 0
0.0204082 0.408163 0
0.0204082 0.387755 0
0.0204082 0.367347 0
0.0204082 0.346939 0
0.0204082 0.326531 0
0.0204082 0.306122 0
0.0204082 0.285714 0
0.0204082 0.265306 0
0.0204082 0.244898 0
0.0204082 0.22449 0
0.0204082 0.204082 0
0.0204082 0.183673 0
0.0204082 0.163265 0
0.0204082 0.142857 0
0.0204082 0.122449 0
0.0204082 0.102041 0
0.0204082 0.0816327 0
0.0204082 0.0612245 0
0.0204082 0.0408163 0
0.0204082 0.0204082 0
0.0408163 0.979592 0
0.0408163 0.959184 0
0.0408163 0.938776 0
0.0408163 0.918367 0
0.0408163 0.897959 0
0.0408163 0.877551 0
0.0408163 0.857143 0
0.0408163 0.836735 0
0.0408163 0.816327 0
0.0408163 0.795918 0
0.0408163 0.77551 0
0.0408163 0.755102 0
0.0408163 0.734694 0
0.0408163 0.714286 0
0.0408163 0.693878 0
0.0408163 0.673469 0
0.0408163 0.653061 0
0.0408163 0.632653 0
0.0408163 0.612245 0
0.0408163 0.591837 0
0.0408163 0.571429 0
0.0408163 0.55102 0
0.0408163 0.530612 0
0.0408163 0.510204 0
0.0408163 0.489796 0
0.0408163 0.469388 0
0.0408163 0.44898 0
0.0408163 0.428571 0
0.0408163 0.408163 0
0.0408163 0.387755 0
0.0408163 0.367347 0
0.0408163 0.346939 0
0.0408163 0.326531 0
0.0408163 0.306122 0
0.0408163 0.285714 0
0.0408163 0.265306 0
0.0408163 0.244898 0
0.0408163 0.22449 0
0.0408163 0.204082 0
0.0408163 0.183673 0
0.0408163 0.163265 0
0.0408163 0.142857 0
0.0408163 0.122449 0
0.0408163 0.102041 0
0.0408163 0.0816327 0
0.0408163 0.0612245 0
0.0408163 0.0408163 0
0.0408163 0.0204082 0
0.0612245 0.979592 0
0.0612245 0.959184 0
0.0612245 0.938776 0
0.0612245 0.918367 0
0.0612245 0.897959 0
0.0612245 0.877551 0
0.0612245 0.857143 0
0.0612245 0.836735 0
0.0612245 0.816327 0
0.0612245 0.795918 0
0.0612245 0.77551 0
0.0612245 0.755102 0
0.0612245 0.734694 0
0.0612245 0.714286 0
0.0612245 0.693878 0
0.0612245 0.673469 0
0.0612245 0.653061 0
0.0612245 0.632653 0
0.0612245 0.612245 0
0.0612245 0.591837 0
0.0612245 0.571429 0
0.0612245 0.55102 0
0.0612245 0.530612 0
0.0612245 0.510204 0
0.0612245 0.489796 0
0.0612245 0.469388 0
0.0612245 0.44898 0
0.0612245 0.428571 0
0.0612245 0.408163 0
0.0612245 0.387755 0
0.0612245 0.367347 0
0.0612245 0.346939 0
0.0612245 0.326531 0
0.0612245 0.306122 0
0.0612245 0.285714 0
0.0612245 0.265306 0
0.0612245 0.244898 0
0.0612245 0.22449 0
0.0612245 0.204082 0
0.0612245 0.183673 0
0.0612245 0.163265 0
0.0612245 0.142857 0
0.0612245 0.122449 0
0.0612245 0.102041 0
0.0612245 0.0816327 0
0.0612245 0.0612245 0
0.0612245 0.0408163 0
0.0612245 0.0204082 0
0.0816327 0.979592 0
0.0816327 0.959184 0
0.0816327 0.938776 0
0.0816327 0.918367 0
0.0816327 0.897959 0
0.0816327 0.877551 0
0.0816327 0.857143 0
0.0816327 0.836735 0
0.0816327 0.816327 0
0.0816327 0.795918 0
0.0816327 0.77551 0
0.0816327 0.755102 0
0.0816327 0.734694 0
0.0816327 0.714286 0
0.0816327 0.693878 0
0.0816327 0.673469 0
0.0816327 0.653061 0
0.0816327 0.632653 0
0.0816327 0.612245 0
0.0816327 0.591837 0
0.0816327 0.571429 0
0.0816327 0.55102 0
0.0816327 0.530612 0
0.0816327 0.510204 0
0.0816327 0.489796 0
0.0816327 0.469388 0
0.0816327 0.44898 0
0.0816327 0.428571 0
0.0816327 0.408163 0
0.0816327 0.387755 0
0.0816327 0.367347 0
0.0816327 0.346939 0
0.0816327 0.326531 0
0.0816327 0.306122 0
0.0816327 0.285714 0
0.0816327 0.265306 0
0.0816327 0.244898 0
0.0816327 0.22449 0
0.0816327 0.204082 0
0.0816327 0.183673 0
0.0816327 0.163265 0
0.0816327 0.142857 0
0.0816327 0.122449 0
0.0816327 0.102041 0
0.0816327 0.0816327 0
0.0816327 0.0612245 0
0.0816327 0.0408163 0
0.0816327 0.0204082 0
0.102041 0.979592 0
0.102041 0.959184 0
0.102041 0.938776 0
0.102041 0.918367 0
0.102041 0.897959 0
0.102041 0.877551 0
0.102041 0.857143 0
0.102041 0.836735 0
0.102041 0.816327 0
0.102041 0.795918 0
0.102041 0.77551 0
0.102041 0.755102 0
0.102041 0.734694 0
0.102041 0.714286 0
0.102041 0.693878 0
0.102041 0.673469 0
0.102041 0.653061 0
0.102041 0.632653 0
0.102041 0.612245 0
0.102041 0.591837 0
0.102041 0.571429 0
0.102041 0.55102 0
0.102041 0.530612 0
0.102041 0.510204 0
0.102041 0.489796 0
0.102041 0.469388 0
0.102041 0.44898 0
0.102041 0.428571 0
0.102041 0.408163 0
0.102041 0.387755 0
0.102041 0.367347 0
0.102041 0.346939 0
0.102041 0.326531 0
0.102041 0.306122 0
0.102041 0.285714 0
0.102041 0.265306 0
0.102041 0.244898 0
0.102041 0.22449 0
0.102041 0.204082 0
0.102041 0.183673 0
0.102041 0.163265 0
0.102041 0.142857 0
0.102041 0.122449 0
0.102041 0.102041 0
0.102041 0.0816327 0
0.102041 0.0612245 0
0.102041 0.0408163 0
0.102041 0.0204082 0
0.122449 0.979592 0
0.122449 0.959184 0
0.122449 0.938776 0
0.122449 0.918367 0
0.122449 0.897959 0
0.122449 0.877551 0
0.122449 0.857143 0
0.122449 0.836735 0
0.122449 0.816327 0
0.122449 0.795918 0
0.122449 0.77551 0
0.122449 0.755102 0
0.122449 0.734694 0
0.122449 0.714286 0
0.122449 0.693878 0
0.122449 0.673469 0
0.122449 0.653061 0
0.122449 0.632653 0
0.122449 0.612245 0
0.122449 0.591837 0
0.122449 0.571429 0
0.122449 0.55102 0
0.122449 0.530612 0
0.122449 0.510204 0
0.122449 0.489796 0
0.122449 0.469388 0
0.122449 0.44898 0
0.122449 0.428571 0
0.122449 0.408163 0
0.122449 0.387755 0
0.122449 0.367347 0
0.122449 0.346939 0
0.122449 0.326531 0
0.122449 0.306122 0
0.122449 0.285714 0
0.122449 0.265306 0
0.122449 0.244898 0
0.122449 0.22449 0
0.122449 0.204082 0
0.122449 0.183673 0
0.122449 0.163265 0
0.122449 0.142857 0
0.122449 0.122449 0
0.122449 0.102041 0
0.122449 0.0816327 0
0.122449 0.0612245 0
0.122449 0.0408163 0
0.122449 0.0204082 0
0.142857 0.979592 0
0.142857 0.959184 0
0.142857 0.938776 0
0.142857 0.918367 0
0.142857 0.897959 0
0.142857 0.877551 0
0.142857 0.857143 0
0.142857 0.836735 0
0.142857 0.816327 0
0.142857 0.795918 0
0.142857 0.77551 0
0.142857 0.755102 0
0.142857 0.734694 0
0.142857 0.714286 0
0.142857 0.693878 0
0.142857 0.673469 0
0.142857 0.653061 0
0.142857 0.632653 0
0.142857 0.612245 0
0.142857 0.591837 0
0.142857 0.571429 0
0.142857 0.55102 0
0.142857 0.530612 0
0.142857 0.510204 0
0.142857 0.489796 0
0.142857 0.469388 0
0.142857 0.44898 0
0.142857 0.428571 0
0.142857 0.408163 0
0.142857 0.387755 0
0.142857 0.367347 0
0.142857 0.346939 0
0.142857 0.326531 0
0.142857 0.306122 0
0.142857 0.285714 0
0.142857 0.265306 0
0.142857 0.244898 0
0.142857 0.22449 0
0.142857 0.204082 0
0.142857 0.183673 0
0.142857 0.163265 0
0.142857 0.142857 0
0.142857 0.122449 0
0.142857 0.102041 0
0.142857 0.0816327 0
0.142857 0.0612245 0
0.142857 0.0408163 0
0.142857 0.0204082 0
0.163265 0.979592 0
0.163265 0.959184 0
0.163265 0.938776 0
0.163265 0.918367 0
0.163265 0.897959 0
0.163265 0.877551 0
0.163265 0.857143 0
0.163265 0.836735 0
0.163265 0.816327 0
0.163265 0.795918 0
0.163265 0.77551 0
0.163265 0.755102 0
0.163265 0.734694 0
0.163265 0.714286 0
0.163265 0.693878 0
0.163265 0.673469 0
0.163265 0.653061 0
0.163265 0.632653 0
0.163265 0.612245 0
0.163265 0.591837 0
0.163265 0.571429 0
0.163265 0.55102 0
[...]
CELL_DATA 2401
VECTORS velocity double
0.257582 0.1573 0.0
-0.00263043 0.264433 0.0
-0.0322729 0.20544 0.0
-0.0253783 0.150533 0.0
-0.0160704 0.112983 0.0
-0.00971444 0.0876173 0.0
-0.00593672 0.0705397 0.0
-0.00374849 0.0588469 0.0
-0.00246229 0.05063 0.0
-0.00168258 0.0447018 0.0
-0.00119339 0.0403136 0.0
-0.000877192 0.0369799 0.0
-0.000668482 0.0343765 0.0
-0.000529268 0.0322807 0.0
-0.000436508 0.0305363 0.0
-0.000375588 0.0290318 0.0
-0.000336856 0.0276868 0.0
-0.000313703 0.0264434 0.0
-0.000301462 0.0252596 0.0
-0.000296744 0.0241059 0.0
-0.000297028 0.0229616 0.0
-0.000300409 0.0218135 0.0
-0.000305422 0.0206535 0.0
-0.000310942 0.0194782 0.0
-0.000316104 0.0182871 0.0
-0.000320251 0.0170827 0.0
-0.000322903 0.0158692 0.0
-0.000323721 0.0146522 0.0
-0.000322489 0.0134384 0.0
-0.000319091 0.012235 0.0
-0.000313489 0.0110494 0.0
-0.000305712 0.00988936 0.0
-0.000295834 0.00876223 0.0
-0.000283961 0.00767521 0.0
-0.000270216 0.00663513 0.0
-0.000254726 0.00564843 0.0
-0.000237605 0.00472114 0.0
-0.000218946 0.00385894 0.0
-0.000198808 0.00306717 0.0
-0.0001772 0.00235099 0.0
-0.000154073 0.00171541 0.0
-0.000129304 0.00116542 0.0
-0.000102709 0.000706051 0.0
-7.40856e-05 0.000342293 0.0
-4.33884e-05 7.87211e-05 0.0
-1.1243e-05 -8.15872e-05 0.0
1.97408e-05 -0.000139472 0.0
4.22605e-05 -0.000108704 0.0
3.72603e-05 -3.70698e-05 0.0
0.340764 0.122965 0.0
-0.000672677 0.249464 0.0
-0.0652601 0.27164 0.0
-0.063298 0.252122 0.0
-0.0485649 0.221577 0.0
-0.0349949 0.191699 0.0
-0.0249259 0.166289 0.0
-0.0178824 0.145845 0.0
-0.0130223 0.129749 0.0
-0.00965954 0.117142 0.0
-0.00731542 0.107221 0.0
-0.00567108 0.0993201 0.0
-0.00451492 0.0929152 0.0
-0.00370463 0.0876016 0.0
-0.00314258 0.0830712 0.0
-0.00276029 0.0790907 0.0
-0.00250871 0.0754845 0.0
-0.00235203 0.0721213 0.0
-0.0022636 0.0689043 0.0
-0.00222323 0.0657634 0.0
-0.00221549 0.0626497 0.0
-0.00222836 0.0595306 0.0
-0.0022525 0.0563871 0.0
-0.00228061 0.05321 0.0
-0.00230703 0.0499988 0.0
-0.00232743 0.046759 0.0
-0.00233859 0.043501 0.0
-0.00233821 0.0402387 0.0
-0.00232477 0.0369886 0.0
-0.00229737 0.0337686 0.0
-0.00225566 0.0305975 0.0
-0.00219967 0.0274945 0.0
-0.00212974 0.0244784 0.0
-0.00204645 0.0215674 0.0
-0.00195046 0.0187791 0.0
-0.00184253 0.0161301 0.0
-0.00172338 0.0136362 0.0
-0.00159363 0.011312 0.0
-0.00145382 0.00917146 0.0
-0.00130432 0.00722781 0.0
-0.00114537 0.00549353 0.0
-0.000977104 0.00398042 0.0
-0.000799795 0.00269938 0.0
-0.000614238 0.00165976 0.0
-0.000422744 0.000867935 0.0
-0.000231265 0.000324586 0.0
-5.37621e-05 1.96659e-05 0.0
8.04439e-05 -7.87558e-05 0.0
0.000108135 -4.10944e-05 0.0
0.500808 0.0768018 0.0
0.098942 0.183191 0.0
-0.0394649 0.249162 0.0
-0.0735104 0.265651 0.0
-0.071945 0.257348 0.0
-0.0606029 0.239579 0.0
-0.0483104 0.219613 0.0
-0.0377067 0.200735 0.0
-0.0292812 0.184151 0.0
-0.0228316 0.170066 0.0
-0.0179914 0.158261 0.0
-0.0144065 0.148368 0.0
-0.0117822 0.139999 0.0
-0.00988672 0.132802 0.0
-0.00854193 0.126478 0.0
-0.00761162 0.120781 0.0
-0.00699167 0.115515 0.0
-0.00660201 0.110529 0.0
-0.00638066 0.105708 0.0
-0.00627923 0.100967 0.0
-0.00625974 0.0962456 0.0
-0.00629216 0.091505 0.0
-0.00635277 0.0867225 0.0
-0.00642286 0.0818886 0.0
-0.00648781 0.0770048 0.0
-0.00653638 0.0720809 0.0
-0.00656015 0.0671329 0.0
-0.0065531 0.0621817 0.0
-0.00651116 0.0572516 0.0
-0.00643194 0.0523689 0.0
-0.00631436 0.047561 0.0
-0.00615843 0.0428556 0.0
-0.00596496 0.0382801 0.0
-0.0057353 0.0338613 0.0
-0.00547119 0.0296247 0.0
-0.0051745 0.0255947 0.0
-0.00484713 0.0217943 0.0
-0.00449087 0.018245 0.0
-0.0041073 0.0149672 0.0
-0.00369783 0.0119799 0.0
-0.00326374 0.00930081 0.0
-0.00280649 0.00694601 0.0
-0.00232832 0.00492966 0.0
-0.00183336 0.00326278 0.0
-0.00132981 0.00195147 0.0
-0.000834076 0.000993805 0.0
-0.000377921 0.000374017 0.0
-1.85863e-05 5.49941e-05 0.0
0.000136452 -1.77544e-05 0.0
0.609972 0.0480475 0.0
0.195535 0.133933 0.0
0.0112297 0.209374 0.0
-0.0581596 0.246419 0.0
-0.0761294 0.256988 0.0
-0.0737043 0.253601 0.0
-0.0643513 0.243445 0.0
-0.0536938 0.230762 0.0
-0.0439126 0.217807 0.0
-0.0356984 0.205626 0.0
-0.029121 0.194605 0.0
-0.0240147 0.184785 0.0
-0.0201457 0.176041 0.0
-0.0172806 0.168188 0.0
-0.0152127 0.161025 0.0
-0.0137675 0.154369 0.0
-0.0128018 0.14806 0.0
-0.0121992 0.141966 0.0
-0.0118656 0.135984 0.0
-0.0117253 0.130039 0.0
-0.0117172 0.124075 0.0
-0.0117919 0.118058 0.0
-0.01191 0.111971 0.0
-0.0120401 0.105808 0.0
-0.0121572 0.0995761 0.0
-0.0122422 0.0932919 0.0
-0.0122807 0.0869774 0.0
-0.0122624 0.08066 0.0
-0.0121803 0.0743706 0.0
-0.0120302 0.0681422 0.0
-0.0118103 0.0620091 0.0
-0.0115208 0.0560055 0.0
-0.0111629 0.0501652 0.0
-0.0107392 0.0445211 0.0
-0.0102526 0.0391045 0.0
-0.00970656 0.0339455 0.0
-0.00910448 0.0290721 0.0
-0.0084497 0.0245109 0.0
-0.00774539 0.0202866 0.0
-0.00699455 0.0164221 0.0
-0.00620026 0.0129384 0.0
-0.00536625 0.00985435 0.0
-0.00449787 0.00718586 0.0
-0.00360397 0.00494481 0.0
-0.00270001 0.00313731 0.0
-0.00181343 0.00176125 0.0
-0.000992384 0.000800503 0.0
-0.000316467 0.000223103 0.0
7.7454e-05 1.27026e-05 0.0
0.680352 0.0301693 0.0
0.278305 0.0981787 0.0
0.0694616 0.170972 0.0
-0.0275831 0.217527 0.0
-0.0652585 0.241048 0.0
-0.0745674 0.249619 0.0
-0.0713778 0.249161 0.0
-0.0634569 0.243772 0.0
-0.054474 0.236023 0.0
-0.0460608 0.227398 0.0
-0.0388459 0.218693 0.0
-0.0329769 0.210279 0.0
-0.0283829 0.202286 0.0
-0.0249057 0.194711 0.0
-0.0223638 0.187484 0.0
-0.0205811 0.180514 0.0
-0.0193995 0.173704 0.0
-0.018682 0.16697 0.0
-0.0183127 0.160239 0.0
-0.0181945 0.15346 0.0
-0.0182469 0.146594 0.0
-0.0184037 0.139622 0.0
-0.0186109 0.132538 0.0
-0.0188251 0.125345 0.0
-0.0190115 0.118061 0.0
-0.0191434 0.110707 0.0
-0.0192006 0.103314 0.0
-0.0191685 0.0959167 0.0
-0.0190375 0.088551 0.0
-0.0188019 0.081256 0.0
-0.0184595 0.0740715 0.0
-0.0180105 0.0670367 0.0
-0.0174573 0.0601902 0.0
-0.0168036 0.0535692 0.0
-0.016054 0.0472091 0.0
-0.0152137 0.0411437 0.0
-0.0142881 0.0354046 0.0
-0.0132823 0.0300213 0.0
-0.0122015 0.0250213 0.0
-0.0110509 0.0204301 0.0
-0.00983569 0.0162706 0.0
-0.00856261 0.0125634 0.0
-0.00724073 0.00932544 0.0
-0.00588403 0.00656975 0.0
-0.00451499 0.00430371 0.0
-0.00317057 0.00252791 0.0
-0.001911 0.00123059 0.0
-0.000829723 0.000391601 0.0
-7.64104e-05 4.20828e-05 0.0
0.729736 0.0191996 0.0
0.348839 0.0730565 0.0
0.127801 0.139323 0.0
0.0111997 0.18836 0.0
-0.0442017 0.219796 0.0
-0.0657736 0.23702 0.0
-0.0702947 0.244567 0.0
-0.066868 0.245902 0.0
-0.0602945 0.24348 0.0
-0.0530229 0.238907 0.0
-0.0462294 0.233175 0.0
-0.0404095 0.226868 0.0
-0.0357031 0.220299 0.0
-0.032073 0.213619 0.0
-0.0294012 0.206881 0.0
-0.0275404 0.200087 0.0
-0.0263401 0.193212 0.0
-0.0256591 0.186224 0.0
-0.0253713 0.179095 0.0
-0.0253665 0.171803 0.0
-0.025551 0.164336 0.0
-0.0258455 0.156694 0.0
-0.0261845 0.148884 0.0
-0.0265145 0.140927 0.0
-0.0267927 0.132848 0.0
-0.0269858 0.12468 0.0
-0.0270687 0.11646 0.0
-0.0270235 0.10823 0.0
-0.0268385 0.100033 0.0
-0.0265072 0.0919126 0.0
-0.0260273 0.0839131 0.0
-0.0253997 0.0760779 0.0
-0.0246281 0.068449 0.0
-0.0237179 0.0610665 0.0
-0.0226758 0.0539687 0.0
-0.0215089 0.0471915 0.0
-0.0202249 0.0407684 0.0
-0.018831 0.0347308 0.0
-0.0173348 0.0291077 0.0
-0.0157436 0.0239257 0.0
-0.0140655 0.0192091 0.0
-0.0123101 0.0149793 0.0
-0.0104903 0.0112546 0.0
-0.00862465 0.00804947 0.0
-0.00674145 0.00537417 0.0
-0.00488433 0.00323434 0.0
-0.00312044 0.00162593 0.0
-0.0015486 0.000543913 0.0
-0.00031775 6.73282e-05 0.0
0.76575 0.0125995 0.0
0.408287 0.0557254 0.0
0.182828 0.114594 0.0
0.0527801 0.162763 0.0
-0.0169224 0.198031 0.0
-0.0499583 0.221026 0.0
-0.062613 0.234583 0.0
-0.0646094 0.241464 0.0
-0.0615057 0.243798 0.0
-0.0563848 0.243114 0.0
-0.0508939 0.240453 0.0
-0.045857 0.236495 0.0
-0.0416326 0.231667 0.0
-0.038323 0.226228 0.0
-0.0358951 0.220326 0.0
-0.0342499 0.214042 0.0
-0.0332614 0.207417 0.0
-0.0327978 0.200474 0.0
-0.0327335 0.193226 0.0
-0.0329536 0.185684 0.0
-0.0333569 0.177865 0.0
-0.0338564 0.169791 0.0
-0.0343785 0.161489 0.0
-0.0348625 0.152992 0.0
-0.0352598 0.144339 0.0
-0.0355321 0.135573 0.0
-0.0356511 0.126741 0.0
-0.0355967 0.11789 0.0
-0.0353561 0.10907 0.0
-0.0349228 0.100329 0.0
-0.0342951 0.0917164 0.0
-0.0334755 0.0832778 0.0
-0.0324695 0.0750581 0.0
-0.0312846 0.0670993 0.0
-0.0299297 0.0594413 0.0
-0.0284146 0.0521209 0.0
-0.0267492 0.0451728 0.0
-0.0249434 0.0386289 0.0
-0.0230069 0.0325186 0.0
-0.0209497 0.026869 0.0
-0.0187823 0.0217048 0.0
-0.0165172 0.0170483 0.0
-0.0141704 0.012919 0.0
-0.0117642 0.00933358 0.0
-0.00933046 0.00630622 0.0
-0.00691631 0.00384922 0.0
-0.00459066 0.00196796 0.0
-0.0024505 0.000673348 0.0
-0.000634418 8.77465e-05 0.0
0.792801 0.00861461 0.0
0.458377 0.0436587 0.0
0.233365 0.0954801 0.0
0.0945195 0.141259 0.0
0.0140395 0.177612 0.0
-0.0293235 0.204246 0.0
-0.0499237 0.222086 0.0
-0.0577012 0.233273 0.0
-0.0586752 0.239559 0.0
-0.0563871 0.242302 0.0
-0.0528604 0.242497 0.0
-0.0492022 0.240846 0.0
-0.0459738 0.23783 0.0
-0.0434163 0.233772 0.0
-0.0415886 0.228886 0.0
-0.0404497 0.223313 0.0
-0.0399082 0.217148 0.0
-0.0398513 0.210458 0.0
-0.0401619 0.203297 0.0
-0.0407272 0.195708 0.0
-0.0414445 0.187736 0.0
-0.042223 0.179423 0.0
-0.0429849 0.170817 0.0
-0.0436655 0.161966 0.0
-0.0442124 0.152922 0.0
-0.0445849 0.143739 0.0
-0.0447529 0.134473 0.0
-0.0446955 0.125178 0.0
-0.0444003 0.11591 0.0
-0.0438617 0.106722 0.0
-0.0430797 0.097666 0.0
-0.042059 0.0887909 0.0
-0.0408075 0.0801433 0.0
-0.0393356 0.0717665 0.0
-0.0376549 0.0637008 0.0
-0.035778 0.0559836 0.0
-0.0337175 0.0486492 0.0
-0.0314857 0.0417294 0.0
-0.029095 0.0352534 0.0
-0.0265576 0.0292479 0.0
-0.0238863 0.0237378 0.0
-0.021096 0.0187457 0.0
-0.0182049 0.0142926 0.0
-0.0152371 0.0103979 0.0
-0.0122263 0.00708013 0.0
-0.0092196 0.00435899 0.0
-0.0062833 0.00224972 0.0
-0.003507 0.000778264 0.0
-0.00101286 0.000103578 0.0
0.813832 0.00616627 0.0
0.500911 0.0351098 0.0
0.279256 0.0807032 0.0
0.134957 0.123519 0.0
0.04617 0.159622 0.0
-0.00565211 0.187996 0.0
-0.0336274 0.208753 0.0
-0.0471732 0.223128 0.0
-0.0525048 0.232539 0.0
-0.053465 0.238139 0.0
-0.0523609 0.240831 0.0
-0.0505307 0.241289 0.0
-0.048711 0.240004 0.0
-0.0472705 0.237329 0.0
-0.046357 0.233517 0.0
-0.0459898 0.228751 0.0
-0.0461168 0.223165 0.0
-0.0466494 0.216864 0.0
-0.047484 0.209932 0.0
-0.0485153 0.202443 0.0
-0.0496429 0.194465 0.0
-0.0507763 0.186063 0.0
-0.0518368 0.177301 0.0
-0.0527582 0.168244 0.0
-0.0534871 0.158957 0.0
-0.0539821 0.149505 0.0
-0.0542132 0.139951 0.0
-0.0541605 0.130358 0.0
-0.0538132 0.120787 0.0
-0.0531678 0.111295 0.0
-0.0522272 0.101938 0.0
-0.0509991 0.0927671 0.0
-0.0494947 0.0838297 0.0
-0.0477277 0.0751699 0.0
-0.0457132 0.066828 0.0
-0.0434667 0.0588407 0.0
-0.0410038 0.0512417 0.0
-0.0383396 0.0440617 0.0
-0.0354887 0.037329 0.0
-0.0324654 0.0310695 0.0
-0.0292846 0.0253077 0.0
-0.0259623 0.0200667 0.0
-0.022518 0.0153685 0.0
-0.0189763 0.0112354 0.0
-0.01537 0.00769058 0.0
-0.0117434 0.00476077 0.0
-0.00815657 0.00247069 0.0
-0.00468796 0.000859465 0.0
-0.0014398 0.000115372 0.0
0.830717 0.0046215 0.0
0.537408 0.0289179 0.0
0.320799 0.0691658 0.0
0.173493 0.108881 0.0
0.0784823 0.14397 0.0
0.0197998 0.172877 0.0
-0.0148517 0.195461 0.0
-0.0339384 0.212119 0.0
-0.0436853 0.223914 0.0
-0.0481094 0.23181 0.0
-0.0497205 0.236596 0.0
-0.0500364 0.238892 0.0
-0.0499389 0.239172 0.0
-0.049907 0.237796 0.0
-0.0501698 0.235034 0.0
-0.050804 0.231094 0.0
-0.0517968 0.226138 0.0
-0.0530855 0.220298 0.0
-0.0545835 0.213684 0.0
-0.056195 0.206393 0.0
-0.0578256 0.198514 0.0
-0.0593877 0.190132 0.0
-0.0608043 0.181327 0.0
-0.0620102 0.172178 0.0
-0.0629529 0.162764 0.0
-0.0635926 0.153159 0.0
-0.0639009 0.143435 0.0
-0.0638607 0.133662 0.0
-0.063464 0.123907 0.0
-0.062711 0.114231 0.0
-0.0616085 0.104692 0.0
-0.0601681 0.095344 0.0
-0.0584053 0.0862344 0.0
-0.0563379 0.0774075 0.0
-0.0539847 0.068903 0.0
-0.0513647 0.0607565 0.0
-0.0484969 0.0530002 0.0
-0.0453988 0.0456633 0.0
-0.0420875 0.0387724 0.0
-0.038579 0.0323525 0.0
-0.0348893 0.026427 0.0
-0.0310352 0.021019 0.0
-0.0270359 0.0161518 0.0
-0.0229148 0.0118499 0.0
-0.0187018 0.00814077 0.0
-0.0144359 0.00505772 0.0
-0.0101684 0.00263369 0.0
-0.00596385 0.000918821 0.0
-0.00190304 0.000123733 0.0
0.844648 0.00361362 0.0
0.569058 0.0243263 0.0
0.358415 0.0600489 0.0
0.209839 0.0967685 0.0
0.110208 0.130451 0.0
0.0458442 0.159232 0.0
0.00558313 0.182642 0.0
-0.0187348 0.200882 0.0
-0.0328253 0.214446 0.0
-0.0407934 0.224132 0.0
-0.0452874 0.230619 0.0
-0.0479609 0.234461 0.0
-0.0498119 0.236102 0.0
-0.0514122 0.235891 0.0
-0.0530612 0.234104 0.0
-0.0548871 0.230958 0.0
-0.0569141 0.226634 0.0
-0.0591052 0.22128 0.0
-0.0613906 0.215027 0.0
-0.0636863 0.207991 0.0
-0.0659052 0.200279 0.0
-0.0679645 0.191991 0.0
-0.0697908 0.183224 0.0
-0.0713218 0.174069 0.0
-0.072508 0.164616 0.0
-0.0733125 0.154948 0.0
-0.0737107 0.145148 0.0
-0.0736894 0.135292 0.0
-0.0732451 0.12545 0.0
-0.0723831 0.115689 0.0
-0.071115 0.106068 0.0
-0.0694577 0.0966433 0.0
-0.0674318 0.0874621 0.0
-0.0650597 0.0785683 0.0
-0.0623647 0.0700005 0.0
-0.0593699 0.0617926 0.0
-0.0560974 0.0539748 0.0
-0.0525677 0.0465742 0.0
-0.0487997 0.0396154 0.0
-0.044811 0.0331214 0.0
-0.0406181 0.0271145 0.0
-0.0362375 0.0216175 0.0
-0.031687 0.016654 0.0
-0.0269871 0.0122506 0.0
-0.0221631 0.00843834 0.0
-0.0172467 0.00525584 0.0
-0.0122783 0.00274296 0.0
-0.00730695 0.000958513 0.0
-0.00239165 0.000129214 0.0
0.856408 0.00292946 0.0
0.596795 0.0208356 0.0
0.39256 0.0527373 0.0
0.243956 0.086661 0.0
0.140977 0.118752 0.0
0.0719575 0.146991 0.0
0.0268185 0.170658 0.0
-0.00216951 0.18979 0.0
-0.0204423 0.204623 0.0
-0.0319432 0.21566 0.0
-0.0393977 0.223487 0.0
-0.0445577 0.228592 0.0
-0.0485123 0.231378 0.0
-0.0519088 0.232177 0.0
-0.0551056 0.231256 0.0
-0.0582759 0.228838 0.0
-0.0614762 0.22511 0.0
-0.0646931 0.220234 0.0
-0.0678734 0.214353 0.0
-0.0709442 0.207598 0.0
-0.0738266 0.200089 0.0
-0.076444 0.191943 0.0
-0.0787276 0.183267 0.0
-0.0806196 0.174166 0.0
-0.0820747 0.164739 0.0
-0.0830608 0.155079 0.0
-0.0835584 0.145277 0.0
-0.0835599 0.135414 0.0
-0.0830678 0.125565 0.0
-0.0820935 0.115801 0.0
-0.0806549 0.106184 0.0
-0.0787752 0.0967679 0.0
-0.0764809 0.0876024 0.0
-0.0738 0.0787298 0.0
-0.0707608 0.0701868 0.0
-0.0673908 0.0620053 0.0
-0.0637156 0.0542127 0.0
-0.0597586 0.0468335 0.0
-0.0555405 0.0398899 0.0
-0.0510799 0.0334024 0.0
-0.0463932 0.0273918 0.0
-0.0414957 0.0218796 0.0
-0.0364026 0.0168895 0.0
-0.0311302 0.0124493 0.0
-0.0256975 0.00859258 0.0
-0.0201275 0.0053621 0.0
-0.0144479 0.002803 0.0
-0.00869168 0.000980625 0.0
-0.00289596 0.000132272 0.0
0.866522 0.00244468 0.0
0.621338 0.0181147 0.0
0.423656 0.0467795 0.0
0.275904 0.0781387 0.0
0.17057 0.108574 0.0
0.0977421 0.13601 0.0
0.048365 0.15956 0.0
0.0152388 0.179072 0.0
-0.00697859 0.194735 0.0
-0.0219344 0.206759 0.0
-0.032361 0.215607 0.0
-0.0400733 0.22171 0.0
-0.0462295 0.225431 0.0
-0.0515369 0.227076 0.0
-0.0564019 0.226899 0.0
-0.0610347 0.225121 0.0
-0.0655198 0.221931 0.0
-0.0698638 0.217497 0.0
-0.0740283 0.211972 0.0
-0.0779511 0.205498 0.0
-0.0815611 0.198207 0.0
-0.0847881 0.190225 0.0
-0.087569 0.181674 0.0
-0.0898512 0.172667 0.0
-0.0915953 0.163313 0.0
-0.092775 0.153715 0.0
-0.0933774 0.143968 0.0
-0.0934019 0.134161 0.0
-0.0928583 0.124372 0.0
-0.0917655 0.114675 0.0
-0.0901492 0.105133 0.0
-0.0880397 0.0958021 0.0
-0.0854704 0.0867297 0.0
-0.0824758 0.077957 0.0
-0.0790897 0.0695184 0.0
-0.0753444 0.0614431 0.0
-0.0712694 0.0537555 0.0
-0.0668907 0.0464768 0.0
-0.062231 0.039626 0.0
-0.0573091 0.033221 0.0
-0.052141 0.02728 0.0
-0.0467397 0.0218229 0.0
-0.041117 0.0168729 0.0
-0.0352838 0.0124577 0.0
-0.0292514 0.00861268 0.0
-0.0230325 0.00538312 0.0
-0.0166416 0.00281793 0.0
-0.0100946 0.000986935 0.0
-0.0034074 0.000133256 0.0
0.87535 0.00208599 0.0
0.643238 0.0159419 0.0
0.452076 0.0418445 0.0
0.305792 0.0708684 0.0
0.198878 0.0996536 0.0
0.122942 0.126131 0.0
0.0698773 0.149307 0.0
0.0330045 0.168886 0.0
0.00724646 0.18493 0.0
-0.0110733 0.197646 0.0
-0.0244475 0.207245 0.0
-0.0347352 0.21411 0.0
-0.0431487 0.218568 0.0
-0.0504425 0.220895 0.0
-0.0570615 0.221335 0.0
-0.0632455 0.220097 0.0
-0.0691016 0.21737 0.0
-0.0746531 0.213326 0.0
-0.0798738 0.208123 0.0
-0.0847107 0.201912 0.0
-0.0891001 0.194833 0.0
-0.092978 0.187023 0.0
-0.0962872 0.178613 0.0
-0.0989814 0.169725 0.0
-0.101028 0.160478 0.0
-0.102407 0.150981 0.0
-0.103114 0.141335 0.0
-0.103157 0.131635 0.0
-0.102554 0.121963 0.0
-0.101333 0.112394 0.0
-0.0995286 0.102992 0.0
-0.0971794 0.0938129 0.0
-0.0943266 0.0849036 0.0
-0.0910118 0.0763027 0.0
-0.0872752 0.0680419 0.0
-0.0831541 0.0601469 0.0
-0.0786822 0.0526387 0.0
-0.0738882 0.0455347 0.0
-0.0687964 0.0388501 0.0
-0.0634259 0.0325996 0.0
-0.0577912 0.0267982 0.0
-0.0519027 0.0214637 0.0
-0.0457676 0.0166174 0.0
-0.0393902 0.0122866 0.0
-0.0327733 0.00850678 0.0
-0.0259184 0.00532461 0.0
-0.0188258 0.00279113 0.0
-0.0114942 0.000978826 0.0
-0.00391825 0.000132415 0.0
0.883146 0.00180933 0.0
0.662921 0.0141655 0.0
0.478137 0.0376876 0.0
0.333747 0.0645863 0.0
0.225857 0.0917618 0.0
0.147394 0.117189 0.0
0.0911194 0.139811 0.0
0.0508577 0.159229 0.0
0.0217935 0.175398 0.0
0.00036607 0.18846 0.0
-0.0158956 0.198578 0.0
-0.0287509 0.20599 0.0
-0.0394457 0.210998 0.0
-0.0487711 0.213853 0.0
-0.0572017 0.214777 0.0
-0.0650004 0.213974 0.0
-0.0722916 0.211627 0.0
-0.0791117 0.207908 0.0
-0.0854438 0.20298 0.0
-0.0912426 0.196999 0.0
-0.0964506 0.190115 0.0
-0.10101 0.18247 0.0
-0.104868 0.174205 0.0
-0.107987 0.165451 0.0
-0.110341 0.156333 0.0
-0.111919 0.146967 0.0
-0.112724 0.137461 0.0
-0.112775 0.127912 0.0
-0.1121 0.118406 0.0
-0.110737 0.109019 0.0
-0.108731 0.0998164 0.0
-0.106129 0.0908519 0.0
-0.102981 0.0821707 0.0
-0.099338 0.0738089 0.0
-0.0952459 0.0657948 0.0
-0.0907479 0.0581502 0.0
-0.0858818 0.050892 0.0
-0.0806794 0.0440333 0.0
-0.0751661 0.037585 0.0
-0.069361 0.0315578 0.0
-0.0632768 0.0259632 0.0
-0.0569205 0.0208158 0.0
-0.0502939 0.0161345 0.0
-0.0433942 0.0119449 0.0
-0.0362145 0.00828158 0.0
-0.0287444 0.00519111 0.0
-0.0209693 0.00272518 0.0
-0.0128703 0.000957288 0.0
-0.00442143 0.000129902 0.0
0.890092 0.00158749 0.0
0.680716 0.0126799 0.0
0.502103 0.0341254 0.0
0.359895 0.0590827 0.0
0.2515 0.0847019 0.0
0.17099 0.109025 0.0
0.111917 0.130962 0.0
0.0685906 0.150039 0.0
0.0364644 0.166129 0.0
0.012114 0.179298 0.0
-0.0069271 0.189705 0.0
-0.0223137 0.197473 0.0
-0.0352875 0.202858 0.0
-0.0466648 0.206088 0.0
-0.0569415 0.207369 0.0
-0.066397 0.206892 0.0
-0.0751681 0.204835 0.0
-0.0833003 0.201369 0.0
-0.0907834 0.196661 0.0
-0.0975776 0.19087 0.0
-0.10363 0.184151 0.0
-0.108889 0.176657 0.0
-0.113308 0.168533 0.0
-0.116855 0.159919 0.0
-0.119512 0.150947 0.0
-0.121279 0.141738 0.0
-0.12217 0.132404 0.0
-0.122213 0.123045 0.0
-0.121448 0.113751 0.0
-0.119924 0.104598 0.0
-0.117697 0.095649 0.0
-0.114826 0.086958 0.0
-0.11137 0.0785671 0.0
-0.107388 0.0705089 0.0
-0.102934 0.0628076 0.0
-0.0980571 0.0554808 0.0
-0.0927993 0.0485404 0.0
-0.0871953 0.0419947 0.0
-0.0812719 0.0358501 0.0
-0.0750477 0.0301125 0.0
-0.0685332 0.0247892 0.0
-0.0617314 0.019891 0.0
-0.0546382 0.0154335 0.0
-0.0472428 0.0114398 0.0
-0.0395282 0.00794229 0.0
-0.0314711 0.00498598 0.0
-0.0230419 0.0026219 0.0
-0.0142039 0.00092295 0.0
-0.00491027 0.000125795 0.0
0.896321 0.0014031 0.0
0.696876 0.0114093 0.0
0.524188 0.031019 0.0
0.384347 0.05419 0.0
0.275816 0.0783078 0.0
0.193653 0.101495 0.0
0.132134 0.122649 0.0
0.0860276 0.141243 0.0
0.0510556 0.157089 0.0
0.0239389 0.17019 0.0
0.00227654 0.180655 0.0
-0.0155945 0.188615 0.0
-0.0308286 0.194217 0.0
-0.04426 0.197682 0.0
-0.0563989 0.199194 0.0
-0.0675355 0.198934 0.0
-0.0778144 0.197075 0.0
-0.0872861 0.193787 0.0
-0.0959447 0.189236 0.0
-0.103754 0.183587 0.0
-0.110664 0.177001 0.0
-0.116629 0.169637 0.0
-0.121607 0.161646 0.0
-0.125575 0.153175 0.0
-0.128524 0.144361 0.0
-0.130463 0.13533 0.0
-0.131417 0.126199 0.0
-0.131429 0.11707 0.0
-0.130549 0.108032 0.0