# vtk DataFile Version 3.0
Malha 2D com triângulos e temperatura
ASCII
DATASET UNSTRUCTURED_GRID

POINTS 2500 double
0 0 0
1 0 0
1 1 0
0 1 0
0.0204082 0 0
0.0408163 0 0
0.0612245 0 0
0.0816327 0 0
0.102041 0 0
0.122449 0 0
0.142857 0 0
0.163265 0 0
0.183673 0 0
0.204082 0 0
0.22449 0 0
0.244898 0 0
0.265306 0 0
0.285714 0 0
0.306122 0 0
0.326531 0 0
0.346939 0 0
0.367347 0 0
0.387755 0 0
0.408163 0 0
0.428571 0 0
0.44898 0 0
0.469388 0 0
0.489796 0 0
0.510204 0 0
0.530612 0 0
0.55102 0 0
0.571429 0 0
0.591837 0 0
0.612245 0 0
0.632653 0 0
0.653061 0 0
0.673469 0 0
0.693878 0 0
0.714286 0 0
0.734694 0 0
0.755102 0 0
0.77551 0 0
0.795918 0 0
0.816327 0 0
0.836735 0 0
0.857143 0 0
0.877551 0 0
0.897959 0 0
0.918367 0 0
0.938776 0 0
0.959184 0 0
0.979592 0 0
1 0.0204082 0
1 0.0408163 0
1 0.0612245 0
1 0.0816327 0
1 0.102041 0
1 0.122449 0
1 0.142857 0
1 0.163265 0
1 0.183673 0
1 0.204082 0
1 0.22449 0
1 0.244898 0
1 0.265306 0
1 0.285714 0
1 0.306122 0
1 0.326531 0
1 0.346939 0
1 0.367347 0
1 0.387755 0
1 0.408163 0
1 0.428571 0
1 0.44898 0
1 0.469388 0
1 0.489796 0
1 0.510204 0
1 0.530612 0
1 0.55102 0
1 0.571429 0
1 0.591837 0
1 0.612245 0
1 0.632653 0
1 0.653061 0
1 0.673469 0
1 0.693878 0
1 0.714286 0
1 0.734694 0
1 0.755102 0
1 0.77551 0
1 0.795918 0
1 0.816327 0
1 0.836735 0
1 0.857143 0
1 0.877551 0
1 0.897959 0
1 0.918367 0
1 0.938776 0
1 0.959184 0
1 0.979592 0
0.979592 1 0
0.959184 1 0
0.938776 1 0
0.918367 1 0
0.897959 1 0
0.877551 1 0
0.857143 1 0
0.836735 1 0
0.816327 1 0
0.795918 1 0
0.77551 1 0
0.755102 1 0
0.734694 1 0
0.714286 1 0
0.693878 1 0
0.673469 1 0
0.653061 1 0
0.632653 1 0
0.612245 1 0
0.591837 1 0
0.571429 1 0
0.55102 1 0
0.530612 1 0
0.510204 1 0
0.489796 1 0
0.469388 1 0
0.44898 1 0
0.428571 1 0
0.408163 1 0
0.387755 1 0
0.367347 1 0
0.346939 1 0
0.326531 1 0
0.306122 1 0
0.285714 1 0
0.265306 1 0
0.244898 1 0
0.22449 1 0
0.204082 1 0
0.183673 1 0
0.163265 1 0
0.142857 1 0
0.122449 1 0
0.102041 1 0
0.0816327 1 0
0.0612245 1 0
0.0408163 1 0
0.0204082 1 0
0 0.979592 0
0 0.959184 0
0 0.938776 0
0 0.918367 0
0 0.897959 0
0 0.877551 0
0 0.857143 0
0 0.836735 0
0 0.816327 0
0 0.795918 0
0 0.77551 0
0 0.755102 0
0 0.734694 0
0 0.714286 0
0 0.693878 0
0 0.673469 0
0 0.653061 0
0 0.632653 0
0 0.612245 0
0 0.591837 0
0 0.571429 0
0 0.55102 0
0 0.530612 0
0 0.510204 0
0 0.489796 0
0 0.469388 0
0 0.44898 0
0 0.428571 0
0 0.408163 0
0 0.387755 0
0 0.367347 0
0 0.346939 0
0 0.326531 0
0 0.306122 0
0 0.285714 0
0 0.265306 0
0 0.244898 0
0 0.22449 0
0 0.204082 0
0 0.183673 0
0 0.163265 0
0 0.142857 0
0 0.122449 0
0 0.102041 0
0 0.0816327 0
0 0.0612245 0
0 0.0408163 0
0 0.0204082 0
0.0204082 0.979592 0
0.0204082 0.959184 0
0.0204082 0.938776 0
0.0204082 0.918367 0
0.0204082 0.897959 0
0.0204082 0.877551 0
0.0204082 0.857143 0
0.0204082 0.836735 0
0.0204082 0.816327 0
0.0204082 0.795918 0
0.0204082 0.77551 0
0.0204082 0.755102 0
0.0204082 0.734694 0
0.0204082 0.714286 0
0.0204082 0.693878 0
0.0204082 0.673469 0
0.0204082 0.653061 0
0.0204082 0.632653 0
0.0204082 0.612245 0
0.0204082 0.591837 0
0.0204082 0.571429 0
0.0204082 0.55102 0
0.0204082 0.530612 0
0.0204082 0.510204 0
0.0204082 0.489796 0
0.0204082 0.469388 0
0.0204082 0.44898 0
0.0204082 0.428571 0
0.0204082 0.408163 0
0.0204082 0.387755 0
0.0204082 0.367347 0
0.0204082 0.346939 0
0.0204082 0.326531 0
0.0204082 0.306122 0
0.0204082 0.285714 0
0.0204082 0.265306 0
0.0204082 0.244898 0
0.0204082 0.22449 0
0.0204082 0.204082 0
0.0204082 0.183673 0
0.0204082 0.163265 0
0.0204082 0.142857 0
0.0204082 0.122449 0
0.0204082 0.102041 0
0.0204082 0.0816327 0
0.0204082 0.0612245 0
0.0204082 0.0408163 0
0.0204082 0.0204082 0
0.0408163 0.979592 0
0.0408163 0.959184 0
0.0408163 0.938776 0
0.0408163 0.918367 0
0.0408163 0.897959 0
0.0408163 0.877551 0
0.0408163 0.857143 0
0.0408163 0.836735 0
0.0408163 0.816327 0
0.0408163 0.795918 0
0.0408163 0.77551 0
0.0408163 0.755102 0
0.0408163 0.734694 0
0.0408163 0.714286 0
0.0408163 0.693878 0
0.0408163 0.673469 0
0.0408163 0.653061 0
0.0408163 0.632653 0
0.0408163 0.612245 0
0.0408163 0.591837 0
0.0408163 0.571429 0
0.0408163 0.55102 0
0.0408163 0.530612 0
0.0408163 0.510204 0
0.0408163 0.489796 0
0.0408163 0.469388 0
0.0408163 0.44898 0
0.0408163 0.428571 0
0.0408163 0.408163 0
0.0408163 0.387755 0
0.0408163 0.367347 0
0.0408163 0.346939 0
0.0408163 0.326531 0
0.0408163 0.306122 0
0.0408163 0.285714 0
0.0408163 0.265306 0
0.0408163 0.244898 0
0.0408163 0.22449 0
0.0408163 0.204082 0
0.0408163 0.183673 0
0.0408163 0.163265 0
0.0408163 0.142857 0
0.0408163 0.122449 0
0.0408163 0.102041 0
0.0408163 0.0816327 0
0.0408163 0.0612245 0
0.0408163 0.0408163 0
0.0408163 0.0204082 0
0.0612245 0.979592 0
0.0612245 0.959184 0
0.0612245 0.938776 0
0.0612245 0.918367 0
0.0612245 0.897959 0
0.0612245 0.877551 0
0.0612245 0.857143 0
0.0612245 0.836735 0
0.0612245 0.816327 0
0.0612245 0.795918 0
0.0612245 0.77551 0
0.0612245 0.755102 0
0.0612245 0.734694 0
0.0612245 0.714286 0
0.0612245 0.693878 0
0.0612245 0.673469 0
0.0612245 0.653061 0
0.0612245 0.632653 0
0.0612245 0.612245 0
0.0612245 0.591837 0
0.0612245 0.571429 0
0.0612245 0.55102 0
0.0612245 0.530612 0
0.0612245 0.510204 0
0.0612245 0.489796 0
0.0612245 0.469388 0
0.0612245 0.44898 0
0.0612245 0.428571 0
0.0612245 0.408163 0
0.0612245 0.387755 0
0.0612245 0.367347 0
0.0612245 0.346939 0
0.0612245 0.326531 0
0.0612245 0.306122 0
0.0612245 0.285714 0
0.0612245 0.265306 0
0.0612245 0.244898 0
0.0612245 0.22449 0
0.0612245 0.204082 0
0.0612245 0.183673 0
0.0612245 0.163265 0
0.0612245 0.142857 0
0.0612245 0.122449 0
0.0612245 0.102041 0
0.0612245 0.0816327 0
0.0612245 0.0612245 0
0.0612245 0.0408163 0
0.0612245 0.0204082 0
0.0816327 0.979592 0
0.0816327 0.959184 0
0.0816327 0.938776 0
0.0816327 0.918367 0
0.0816327 0.897959 0
0.0816327 0.877551 0
0.0816327 0.857143 0
0.0816327 0.836735 0
0.0816327 0.816327 0
0.0816327 0.795918 0
0.0816327 0.77551 0
0.0816327 0.755102 0
0.0816327 0.734694 0
0.0816327 0.714286 0
0.0816327 0.693878 0
0.0816327 0.673469 0
0.0816327 0.653061 0
0.0816327 0.632653 0
0.0816327 0.612245 0
0.0816327 0.591837 0
0.0816327 0.571429 0
0.0816327 0.55102 0
0.0816327 0.530612 0
0.0816327 0.510204 0
0.0816327 0.489796 0
0.0816327 0.469388 0
0.0816327 0.44898 0
0.0816327 0.428571 0
0.0816327 0.408163 0
0.0816327 0.387755 0
0.0816327 0.367347 0
0.0816327 0.346939 0
0.0816327 0.326531 0
0.0816327 0.306122 0
0.0816327 0.285714 0
0.0816327 0.265306 0
0.0816327 0.244898 0
0.0816327 0.22449 0
0.0816327 0.204082 0
0.0816327 0.183673 0
0.0816327 0.163265 0
0.0816327 0.142857 0
0.0816327 0.122449 0
0.0816327 0.102041 0
0.0816327 0.0816327 0
0.0816327 0.0612245 0
0.0816327 0.0408163 0
0.0816327 0.0204082 0
0.102041 0.979592 0
0.102041 0.959184 0
0.102041 0.938776 0
0.102041 0.918367 0
0.102041 0.897959 0
0.102041 0.877551 0
0.102041 0.857143 0
0.102041 0.836735 0
0.102041 0.816327 0
0.102041 0.795918 0
0.102041 0.77551 0
0.102041 0.755102 0
0.102041 0.734694 0
0.102041 0.714286 0
0.102041 0.693878 0
0.102041 0.673469 0
0.102041 0.653061 0
0.102041 0.632653 0
0.102041 0.612245 0
0.102041 0.591837 0
0.102041 0.571429 0
0.102041 0.55102 0
0.102041 0.530612 0
0.102041 0.510204 0
0.102041 0.489796 0
0.102041 0.469388 0
0.102041 0.44898 0
0.102041 0.428571 0
0.102041 0.408163 0
0.102041 0.387755 0
0.102041 0.367347 0
0.102041 0.346939 0
0.102041 0.326531 0
0.102041 0.306122 0
0.102041 0.285714 0
0.102041 0.265306 0
0.102041 0.244898 0
0.102041 0.22449 0
0.102041 0.204082 0
0.102041 0.183673 0
0.102041 0.163265 0
0.102041 0.142857 0
0.102041 0.122449 0
0.102041 0.102041 0
0.102041 0.0816327 0
0.102041 0.0612245 0
0.102041 0.0408163 0
0.102041 0.0204082 0
0.122449 0.979592 0
0.122449 0.959184 0
0.122449 0.938776 0
0.122449 0.918367 0
0.122449 0.897959 0
0.122449 0.877551 0
0.122449 0.857143 0
0.122449 0.836735 0
0.122449 0.816327 0
0.122449 0.795918 0
0.122449 0.77551 0
0.122449 0.755102 0
0.122449 0.734694 0
0.122449 0.714286 0
0.122449 0.693878 0
0.122449 0.673469 0
0.122449 0.653061 0
0.122449 0.632653 0
0.122449 0.612245 0
0.122449 0.591837 0
0.122449 0.571429 0
0.122449 0.55102 0
0.122449 0.530612 0
0.122449 0.510204 0
0.122449 0.489796 0
0.122449 0.469388 0
0.122449 0.44898 0
0.122449 0.428571 0
0.122449 0.408163 0
0.122449 0.387755 0
0.122449 0.367347 0
0.122449 0.346939 0
0.122449 0.326531 0
0.122449 0.306122 0
0.122449 0.285714 0
0.122449 0.265306 0
0.122449 0.244898 0
0.122449 0.22449 0
0.122449 0.204082 0
0.122449 0.183673 0
0.122449 0.163265 0
0.122449 0.142857 0
0.122449 0.122449 0
0.122449 0.102041 0
0.122449 0.0816327 0
0.122449 0.0612245 0
0.122449 0.0408163 0
0.122449 0.0204082 0
0.142857 0.979592 0
0.142857 0.959184 0
0.142857 0.938776 0
0.142857 0.918367 0
0.142857 0.897959 0
0.142857 0.877551 0
0.142857 0.857143 0
0.142857 0.836735 0
0.142857 0.816327 0
0.142857 0.795918 0
0.142857 0.77551 0
0.142857 0.755102 0
0.142857 0.734694 0
0.142857 0.714286 0
0.142857 0.693878 0
0.142857 0.673469 0
0.142857 0.653061 0
0.142857 0.632653 0
0.142857 0.612245 0
0.142857 0.591837 0
0.142857 0.571429 0
0.142857 0.55102 0
0.142857 0.530612 0
0.142857 0.510204 0
0.142857 0.489796 0
0.142857 0.469388 0
0.142857 0.44898 0
0.142857 0.428571 0
0.142857 0.408163 0
0.142857 0.387755 0
0.142857 0.367347 0
0.142857 0.346939 0
0.142857 0.326531 0
0.142857 0.306122 0
0.142857 0.285714 0
0.142857 0.265306 0
0.142857 0.244898 0
0.142857 0.22449 0
0.142857 0.204082 0
0.142857 0.183673 0
0.142857 0.163265 0
0.142857 0.142857 0
0.142857 0.122449 0
0.142857 0.102041 0
0.142857 0.0816327 0
0.142857 0.0612245 0
0.142857 0.0408163 0
0.142857 0.0204082 0
0.163265 0.979592 0
0.163265 0.959184 0
0.163265 0.938776 0
0.163265 0.918367 0
0.163265 0.897959 0
0.163265 0.877551 0
0.163265 0.857143 0
0.163265 0.836735 0
0.163265 0.816327 0
0.163265 0.795918 0
0.163265 0.77551 0
0.163265 0.755102 0
0.163265 0.734694 0
0.163265 0.714286 0
0.163265 0.693878 0
0.163265 0.673469 0
0.163265 0.653061 0
0.163265 0.632653 0
0.163265 0.612245 0
0.163265 0.591837 0
0.163265 0.571429 0
0.163265 0.55102 0
[...]
CELL_DATA 2401
VECTORS velocity double
0.257582 0.157301 0.0
-0.00262549 0.264441 0.0
-0.0322653 0.205464 0.0
-0.0253708 0.150574 0.0
-0.0160654 0.113037 0.0
-0.00971288 0.0876755 0.0
-0.00593855 0.0705926 0.0
-0.00375312 0.0588856 0.0
-0.00246898 0.0506477 0.0
-0.00169061 0.0446933 0.0
-0.00120215 0.0402758 0.0
-0.000886242 0.0369111 0.0
-0.000677478 0.0342763 0.0
-0.000537967 0.0321497 0.0
-0.000444731 0.0303758 0.0
-0.000383201 0.0288436 0.0
-0.000343754 0.0274734 0.0
-0.000319802 0.0262073 0.0
-0.000306692 0.025004 0.0
-0.000301047 0.0238338 0.0
-0.00030036 0.0226766 0.0
-0.000302737 0.021519 0.0
-0.000306733 0.0203532 0.0
-0.000311237 0.0191757 0.0
-0.000315402 0.017986 0.0
-0.000318592 0.0167864 0.0
-0.000320344 0.015581 0.0
-0.000320338 0.0143751 0.0
-0.000318374 0.0131752 0.0
-0.000314347 0.011988 0.0
-0.000308234 0.0108207 0.0
-0.000300071 0.00968048 0.0
-0.000289939 0.00857436 0.0
-0.000277944 0.00750904 0.0
-0.00026421 0.00649091 0.0
-0.000248858 0.00552595 0.0
-0.000231998 0.00461975 0.0
-0.000213714 0.00377758 0.0
-0.000194054 0.00300442 0.0
-0.000173015 0.00230506 0.0
-0.000150535 0.00168423 0.0
-0.000126479 0.00114668 0.0
-0.000100647 0.00069725 0.0
-7.28201e-05 0.000340812 0.0
-4.29291e-05 8.1895e-05 0.0
-1.15542e-05 -7.6348e-05 0.0
1.8789e-05 -0.000134514 0.0
4.09999e-05 -0.000105739 0.0
3.64261e-05 -3.62427e-05 0.0
0.340772 0.12297 0.0
-0.000648732 0.249488 0.0
-0.0652305 0.271691 0.0
-0.0632723 0.252198 0.0
-0.0485512 0.221666 0.0
-0.0349974 0.191785 0.0
-0.0249448 0.166354 0.0
-0.0179156 0.145871 0.0
-0.0130666 0.129722 0.0
-0.00971158 0.11705 0.0
-0.00737212 0.107057 0.0
-0.00572985 0.0990804 0.0
-0.00457369 0.0925978 0.0
-0.00376177 0.0872075 0.0
-0.00319679 0.0826033 0.0
-0.00281057 0.0785536 0.0
-0.00255425 0.074884 0.0
-0.00239218 0.0714642 0.0
-0.00229783 0.0681981 0.0
-0.00225115 0.0650165 0.0
-0.00223678 0.0618707 0.0
-0.00224285 0.0587287 0.0
-0.00226011 0.0555713 0.0
-0.00228138 0.0523897 0.0
-0.00230112 0.0491829 0.0
-0.00231511 0.0459563 0.0
-0.00232026 0.0427198 0.0
-0.00231438 0.0394868 0.0
-0.00229604 0.0362728 0.0
-0.00226444 0.0330951 0.0
-0.00221928 0.0299715 0.0
-0.00216066 0.02692 0.0
-0.00208895 0.0239584 0.0
-0.00200473 0.0211038 0.0
-0.0019087 0.0183726 0.0
-0.00180155 0.0157804 0.0
-0.00168399 0.0133417 0.0
-0.00155659 0.0110703 0.0
-0.00141981 0.00897911 0.0
-0.00127394 0.00708043 0.0
-0.00111912 0.00538605 0.0
-0.000955413 0.00390715 0.0
-0.000782939 0.00265419 0.0
-0.000602362 0.00163625 0.0
-0.000415798 0.000859648 0.0
-0.000228915 0.000325355 0.0
-5.52127e-05 2.39677e-05 0.0
7.67748e-05 -7.51392e-05 0.0
0.000105194 -3.98763e-05 0.0
0.500832 0.0768085 0.0
0.0989929 0.18322 0.0
-0.0394088 0.249219 0.0
-0.0734683 0.265726 0.0
-0.0719315 0.257425 0.0
-0.0606258 0.239637 0.0
-0.0483705 0.219631 0.0
-0.0377999 0.20069 0.0
-0.0294008 0.184026 0.0
-0.0229702 0.169848 0.0
-0.018142 0.157938 0.0
-0.0145626 0.147936 0.0
-0.0119385 0.139456 0.0
-0.0100389 0.13215 0.0
-0.00868652 0.12572 0.0
-0.00774576 0.119924 0.0
-0.00711308 0.114568 0.0
-0.00670886 0.109502 0.0
-0.00647148 0.104611 0.0
-0.00635292 0.0998121 0.0
-0.00631549 0.0950461 0.0
-0.00632948 0.0902739 0.0
-0.00637149 0.085473 0.0
-0.00642312 0.0806342 0.0
-0.00647007 0.0757586 0.0
-0.00650142 0.0708554 0.0
-0.00650904 0.0659401 0.0
-0.00648719 0.0610328 0.0
-0.00643207 0.0561566 0.0
-0.00634149 0.0513366 0.0
-0.00621458 0.0465989 0.0
-0.00605148 0.0419696 0.0
-0.00585307 0.0374748 0.0
-0.00562079 0.0331395 0.0
-0.00535633 0.0289876 0.0
-0.00506155 0.025042 0.0
-0.00473824 0.0213239 0.0
-0.00438804 0.0178537 0.0
-0.00401238 0.0146501 0.0
-0.00361244 0.011731 0.0
-0.00318925 0.0091129 0.0
-0.00274398 0.00681112 0.0
-0.00227852 0.00483913 0.0
-0.00179659 0.00320758 0.0
-0.00130588 0.00192251 0.0
-0.000822045 0.000982354 0.0
-0.000375832 0.000372199 0.0
-2.29344e-05 5.64728e-05 0.0
0.000131594 -1.68616e-05 0.0
0.610012 0.0480537 0.0
0.19561 0.133958 0.0
0.0113064 0.209417 0.0
-0.0581134 0.246468 0.0
-0.0761328 0.257022 0.0
-0.0737671 0.253597 0.0
-0.0644742 0.243378 0.0
-0.0538703 0.230612 0.0
-0.0441324 0.217554 0.0
-0.0359496 0.205256 0.0
-0.0293921 0.194108 0.0
-0.0242952 0.184155 0.0
-0.0204263 0.175277 0.0
-0.0175538 0.167292 0.0
-0.0154722 0.160003 0.0
-0.0140081 0.153228 0.0
-0.0130193 0.14681 0.0
-0.0123902 0.14062 0.0
-0.0120275 0.134557 0.0
-0.0118561 0.128543 0.0
-0.0118153 0.122527 0.0
-0.0118566 0.116474 0.0
-0.011941 0.110367 0.0
-0.0120376 0.1042 0.0
-0.0121222 0.0979805 0.0
-0.0121761 0.0917237 0.0
-0.0121854 0.085451 0.0
-0.0121404 0.079189 0.0
-0.0120344 0.0729671 0.0
-0.0118637 0.066817 0.0
-0.0116269 0.0607712 0.0
-0.0113242 0.0548623 0.0
-0.0109572 0.0491223 0.0
-0.0105285 0.0435821 0.0
-0.010041 0.0382712 0.0
-0.00949804 0.0332175 0.0
-0.00890293 0.0284475 0.0
-0.00825876 0.0239857 0.0
-0.00756838 0.0198552 0.0
-0.00683441 0.0160775 0.0
-0.00605948 0.0126722 0.0
-0.00524676 0.00965713 0.0
-0.00440101 0.0070473 0.0
-0.0035303 0.00485414 0.0
-0.00264918 0.00308365 0.0
-0.00178388 0.00173404 0.0
-0.000980912 0.000790078 0.0
-0.000317654 0.000221248 0.0
7.22887e-05 1.30032e-05 0.0
0.680404 0.0301736 0.0
0.278395 0.0981941 0.0
0.0695422 0.170992 0.0
-0.0275501 0.217536 0.0
-0.0652982 0.241022 0.0
-0.0746908 0.249535 0.0
-0.0715843 0.248995 0.0
-0.0637374 0.243502 0.0
-0.0548141 0.235631 0.0
-0.0464444 0.226872 0.0
-0.0392568 0.218022 0.0
-0.0334003 0.20946 0.0
-0.0288057 0.201318 0.0
-0.0253167 0.193596 0.0
-0.0227536 0.18623 0.0
-0.0209421 0.17913 0.0
-0.0197253 0.172202 0.0
-0.0189675 0.165362 0.0
-0.0185539 0.158542 0.0
-0.0183883 0.15169 0.0
-0.0183912 0.144769 0.0
-0.0184973 0.137759 0.0
-0.0186535 0.130654 0.0
-0.018817 0.12346 0.0
-0.0189542 0.116192 0.0
-0.0190391 0.108871 0.0
-0.0190521 0.101528 0.0
-0.0189796 0.0941938 0.0
-0.0188125 0.0869055 0.0
-0.0185457 0.0797001 0.0
-0.0181775 0.0726152 0.0
-0.0177084 0.0656884 0.0
-0.0171411 0.0589563 0.0
-0.0164794 0.0524538 0.0
-0.015728 0.0462145 0.0
-0.0148919 0.0402698 0.0
-0.0139763 0.0346494 0.0
-0.012986 0.0293808 0.0
-0.0119258 0.0244898 0.0
-0.0108001 0.0199999 0.0
-0.00961373 0.0159327 0.0
-0.00837241 0.0123075 0.0
-0.00708432 0.00914047 0.0
-0.00576233 0.00644382 0.0
-0.00442757 0.00422479 0.0
-0.00311531 0.00248416 0.0
-0.00188364 0.00121093 0.0
-0.000823208 0.000386141 0.0
-7.98986e-05 4.17541e-05 0.0
0.729795 0.0192012 0.0
0.348932 0.0730593 0.0
0.12787 0.139315 0.0
0.0112001 0.188322 0.0
-0.0442976 0.219704 0.0
-0.0659772 0.23685 0.0
-0.0706035 0.244297 0.0
-0.0672697 0.245513 0.0
-0.0607709 0.242955 0.0
-0.0535534 0.238233 0.0
-0.0467935 0.232346 0.0
-0.040988 0.22588 0.0
-0.036279 0.219153 0.0
-0.0326317 0.212319 0.0
-0.0299303 0.205436 0.0
-0.0280295 0.198505 0.0
-0.0267807 0.191507 0.0
-0.0260444 0.184411 0.0
-0.0256957 0.17719 0.0
-0.025626 0.169823 0.0
-0.0257426 0.1623 0.0
-0.0259677 0.15462 0.0
-0.0262369 0.146792 0.0
-0.0264978 0.138836 0.0
-0.0267088 0.130776 0.0
-0.0268376 0.122645 0.0
-0.0268603 0.11448 0.0
-0.0267599 0.10632 0.0
-0.0265256 0.0982067 0.0
-0.0261516 0.0901833 0.0
-0.0256361 0.0822917 0.0
-0.0249808 0.0745733 0.0
-0.0241895 0.067068 0.0
-0.023268 0.0598139 0.0
-0.0222227 0.052847 0.0
-0.021061 0.046201 0.0
-0.0197899 0.0399074 0.0
-0.0184165 0.0339954 0.0
-0.0169476 0.0284921 0.0
-0.0153898 0.0234224 0.0
-0.0137503 0.0188089 0.0
-0.0120377 0.0146715 0.0
-0.0102636 0.0110277 0.0
-0.00844496 0.00789118 0.0
-0.00660845 0.00527172 0.0
-0.00479555 0.00317502 0.0
-0.00307081 0.00159754 0.0
-0.00152988 0.000535079 0.0
-0.000317641 6.64357e-05 0.0
0.765806 0.0125984 0.0
0.408369 0.0557151 0.0
0.182868 0.114558 0.0
0.0527297 0.16268 0.0
-0.0170925 0.197875 0.0
-0.0502592 0.220775 0.0
-0.0630394 0.234218 0.0
-0.0651458 0.240966 0.0
-0.0621299 0.243154 0.0
-0.0570719 0.242314 0.0
-0.0516192 0.23949 0.0
-0.0465973 0.235368 0.0
-0.0423672 0.230379 0.0
-0.0390339 0.224783 0.0
-0.036567 0.218733 0.0
-0.0348699 0.212312 0.0
-0.0338188 0.205563 0.0
-0.033284 0.198512 0.0
-0.0331416 0.191171 0.0
-0.0332784 0.183556 0.0
-0.0335951 0.175682 0.0
-0.0340058 0.167572 0.0
-0.0344386 0.159253 0.0
-0.0348345 0.150758 0.0
-0.0351459 0.142127 0.0
-0.0353363 0.133402 0.0
-0.0353784 0.124627 0.0
-0.0352535 0.11585 0.0
-0.0349498 0.107118 0.0
-0.0344617 0.0984786 0.0
-0.0337884 0.0899783 0.0
-0.0329329 0.0816615 0.0
-0.0319012 0.0735707 0.0
-0.0307011 0.065746 0.0
-0.0293415 0.0582249 0.0
-0.0278321 0.0510423 0.0
-0.0261823 0.0442304 0.0
-0.0244017 0.0378192 0.0
-0.0224991 0.0318361 0.0
-0.0204836 0.0263064 0.0
-0.0183647 0.0212531 0.0
-0.0161536 0.016697 0.0
-0.0138646 0.0126565 0.0
-0.0115181 0.00914738 0.0
-0.00914406 0.00618329 0.0
-0.00678703 0.00377627 0.0
-0.004513 0.00193194 0.0
-0.00241551 0.000661609 0.0
-0.00062902 8.63909e-05 0.0
0.792847 0.00861097 0.0
0.458434 0.0436363 0.0
0.233362 0.0954175 0.0
0.0944023 0.141134 0.0
0.0137755 0.177404 0.0
-0.0297366 0.203927 0.0
-0.0504798 0.22164 0.0
-0.0583818 0.232685 0.0
-0.0594544 0.238818 0.0
-0.0572361 0.2414 0.0
-0.0537504 0.24143 0.0
-0.0501064 0.239615 0.0
-0.0468681 0.236438 0.0
-0.0442797 0.232224 0.0
-0.042403 0.227191 0.0
-0.0411997 0.221483 0.0
-0.0405812 0.215196 0.0
-0.0404371 0.2084 0.0
-0.0406521 0.201149 0.0
-0.0411159 0.193489 0.0
-0.0417273 0.185463 0.0
-0.0423976 0.177116 0.0
-0.0430508 0.168495 0.0
-0.043624 0.159649 0.0
-0.0440664 0.150629 0.0
-0.0443391 0.141488 0.0
-0.0444134 0.13228 0.0
-0.0442701 0.12306 0.0
-0.0438979 0.113882 0.0
-0.0432922 0.104797 0.0
-0.0424543 0.0958548 0.0
-0.0413893 0.0871032 0.0
-0.0401059 0.0785866 0.0
-0.0386145 0.0703461 0.0
-0.0369272 0.06242 0.0
-0.0350561 0.0548435 0.0
-0.0330135 0.0476488 0.0
-0.0308112 0.0408656 0.0
-0.0284607 0.0345211 0.0
-0.0259731 0.0286402 0.0
-0.0233599 0.0232461 0.0
-0.0206344 0.01836 0.0
-0.0178131 0.0140015 0.0
-0.0149179 0.010189 0.0
-0.0119801 0.00694043 0.0
-0.00904396 0.00427484 0.0
-0.0061727 0.00220744 0.0
-0.00345229 0.000764173 0.0
-0.00100078 0.000101863 0.0
0.813862 0.0061606 0.0
0.500932 0.035077 0.0
0.279196 0.0806173 0.0
0.134761 0.123359 0.0
0.0458057 0.159367 0.0
-0.0061926 0.187626 0.0
-0.0343234 0.208244 0.0
-0.0480047 0.222472 0.0
-0.0534427 0.231727 0.0
-0.0544773 0.237166 0.0
-0.0534155 0.239695 0.0
-0.0515975 0.23999 0.0
-0.0497628 0.238547 0.0
-0.0482834 0.23572 0.0
-0.0473105 0.231766 0.0
-0.0468666 0.226868 0.0
-0.0469023 0.221165 0.0
-0.0473316 0.214761 0.0
-0.0480537 0.207743 0.0
-0.0489651 0.200185 0.0
-0.0499681 0.192156 0.0
-0.0509743 0.183722 0.0
-0.051907 0.174947 0.0
-0.052702 0.165896 0.0
-0.0533081 0.156633 0.0
-0.0536857 0.147222 0.0
-0.0538066 0.137726 0.0
-0.0536526 0.128208 0.0
-0.0532144 0.118726 0.0
-0.0524898 0.109336 0.0
-0.0514828 0.100092 0.0
-0.0502019 0.091044 0.0
-0.048659 0.0822369 0.0
-0.0468682 0.073713 0.0
-0.0448447 0.0655104 0.0
-0.0426037 0.0576639 0.0
-0.0401606 0.0502051 0.0
-0.0375297 0.0431628 0.0
-0.0347247 0.0365632 0.0
-0.0317587 0.0304306 0.0
-0.028645 0.0247876 0.0
-0.0253982 0.0196559 0.0
-0.0220353 0.0150561 0.0
-0.0185789 0.0110094 0.0
-0.0150589 0.00753801 0.0
-0.0115167 0.00466797 0.0
-0.00800913 0.00242357 0.0
-0.00461078 0.000843572 0.0
-0.00141996 0.000113392 0.0
0.830727 0.00461439 0.0
0.537382 0.028877 0.0
0.320671 0.0690615 0.0
0.173208 0.108693 0.0
0.0780093 0.14368 0.0
0.0191341 0.172465 0.0
-0.0156908 0.194911 0.0
-0.0349227 0.211418 0.0
-0.0447816 0.223058 0.0
-0.0492828 0.230796 0.0
-0.050936 0.235423 0.0
-0.0512612 0.237562 0.0
-0.051143 0.237689 0.0
-0.0510643 0.236168 0.0
-0.0512575 0.233269 0.0
-0.0518027 0.229204 0.0
-0.0526902 0.224136 0.0
-0.0538604 0.218198 0.0
-0.0552291 0.211501 0.0
-0.0567034 0.204144 0.0
-0.0581913 0.196217 0.0
-0.0596077 0.187804 0.0
-0.060878 0.178986 0.0
-0.0619392 0.169844 0.0
-0.0627412 0.160452 0.0
-0.0632463 0.150888 0.0
-0.0634283 0.141221 0.0
-0.0632718 0.13152 0.0
-0.0627706 0.121852 0.0
-0.0619264 0.112275 0.0
-0.0607471 0.102846 0.0
-0.0592454 0.0936178 0.0
-0.0574376 0.0846354 0.0
-0.0553417 0.0759414 0.0
-0.0529768 0.0675735 0.0
-0.0503618 0.0595655 0.0
-0.047515 0.0519476 0.0
-0.0444535 0.044747 0.0
-0.0411931 0.0379886 0.0
-0.0377488 0.0316955 0.0
-0.0341347 0.0258895 0.0
-0.0303659 0.0205921 0.0
-0.0264593 0.0158252 0.0
-0.0224357 0.0116121 0.0
-0.0183223 0.00797918 0.0
-0.0141549 0.00495874 0.0
-0.00998123 0.00258309 0.0
-0.00586215 0.000901633 0.0
-0.00187463 0.000121567 0.0
0.844634 0.00360567 0.0
0.568978 0.0242799 0.0
0.35821 0.0599318 0.0
0.209457 0.0965616 0.0
0.109621 0.130138 0.0
0.0450484 0.158797 0.0
0.00459342 0.182076 0.0
-0.0198719 0.200164 0.0
-0.0340769 0.213574 0.0
-0.0421231 0.223107 0.0
-0.0466577 0.229441 0.0
-0.0493368 0.233134 0.0
-0.0511614 0.234631 0.0
-0.0527069 0.234282 0.0
-0.0542764 0.232366 0.0
-0.0560017 0.229102 0.0
-0.0579102 0.224671 0.0
-0.0599681 0.219224 0.0
-0.0621087 0.212893 0.0
-0.0642507 0.205794 0.0
-0.0663096 0.198035 0.0
-0.0682057 0.189718 0.0
-0.0698679 0.180938 0.0
-0.0712367 0.171788 0.0
-0.072265 0.162356 0.0
-0.0729185 0.152727 0.0
-0.0731747 0.142981 0.0
-0.0730226 0.133193 0.0
-0.0724607 0.123434 0.0
-0.0714956 0.113768 0.0
-0.0701406 0.104253 0.0
-0.0684137 0.0949422 0.0
-0.066336 0.0858833 0.0
-0.0639307 0.0771176 0.0
-0.061221 0.0686818 0.0
-0.0582301 0.0606081 0.0
-0.0549795 0.0529247 0.0
-0.0514889 0.045657 0.0
-0.0477764 0.0388279 0.0
-0.043858 0.0324586 0.0
-0.0397485 0.02657 0.0
-0.0354624 0.021183 0.0
-0.0310151 0.01632 0.0
-0.0264247 0.0120062 0.0
-0.0217131 0.00827134 0.0
-0.0169092 0.00515303 0.0
-0.0120494 0.00269013 0.0
-0.00717932 0.000940482 0.0
-0.00235412 0.000126925 0.0
0.856367 0.00292118 0.0
0.596656 0.0207861 0.0
0.392272 0.0526126 0.0
0.243474 0.086443 0.0
0.140277 0.118426 0.0
0.0710364 0.146545 0.0
0.0256956 0.170083 0.0
-0.00346111 0.18908 0.0
-0.021846 0.203762 0.0
-0.033423 0.214652 0.0
-0.0409151 0.222335 0.0
-0.0460763 0.2273 0.0
-0.0499985 0.229952 0.0
-0.0533326 0.230622 0.0
-0.0564408 0.22958 0.0
-0.0594996 0.227051 0.0
-0.0625693 0.223223 0.0
-0.0656396 0.218259 0.0
-0.0686604 0.212303 0.0
-0.071562 0.205488 0.0
-0.0742685 0.197935 0.0
-0.076706 0.189759 0.0
-0.0788089 0.18107 0.0
-0.080522 0.171972 0.0
-0.0818029 0.162565 0.0
-0.0826223 0.152941 0.0
-0.082963 0.143188 0.0
-0.0828198 0.133389 0.0
-0.0821973 0.123618 0.0
-0.0811085 0.113943 0.0
-0.0795731 0.104425 0.0
-0.0776155 0.0951172 0.0
-0.0752628 0.0860675 0.0
-0.0725437 0.0773165 0.0
-0.0694868 0.0688992 0.0
-0.0661192 0.0608457 0.0
-0.0624663 0.0531819 0.0
-0.0585505 0.0459305 0.0
-0.0543917 0.039112 0.0
-0.0500068 0.0327454 0.0
-0.0454104 0.0268499 0.0
-0.0406159 0.0214454 0.0
-0.0356359 0.0165543 0.0
-0.0304841 0.0122029 0.0
-0.0251764 0.00842352 0.0
-0.0197324 0.00525756 0.0
-0.0141763 0.00274906 0.0
-0.00853732 0.000962145 0.0
-0.00284899 0.000129912 0.0
0.866453 0.00243653 0.0
0.621136 0.0180646 0.0
0.423283 0.0466523 0.0
0.275322 0.0779176 0.0
0.169756 0.108246 0.0
0.0966984 0.135567 0.0
0.0471131 0.158994 0.0
0.0138158 0.17838 0.0
-0.00852396 0.193908 0.0
-0.0235546 0.205793 0.0
-0.0340152 0.214508 0.0
-0.0417243 0.220482 0.0
-0.0478426 0.224079 0.0
-0.0530807 0.225604 0.0
-0.0578487 0.225317 0.0
-0.0623605 0.223435 0.0
-0.066704 0.220151 0.0
-0.0708892 0.215635 0.0
-0.074881 0.210039 0.0
-0.0786203 0.203508 0.0
-0.0820395 0.196173 0.0
-0.0850713 0.188163 0.0
-0.0876557 0.179597 0.0
-0.0897435 0.170591 0.0
-0.091298 0.161254 0.0
-0.092296 0.151687 0.0
-0.0927274 0.141985 0.0
-0.0925939 0.132236 0.0
-0.0919077 0.122519 0.0
-0.0906896 0.112904 0.0
-0.0889669 0.103454 0.0
-0.0867713 0.0942241 0.0
-0.0841372 0.0852598 0.0
-0.0810995 0.0766009 0.0
-0.0776923 0.0682802 0.0
-0.0739478 0.0603254 0.0
-0.0698949 0.0527593 0.0
-0.0655591 0.0456016 0.0
-0.0609616 0.0388698 0.0
-0.0561201 0.0325802 0.0
-0.0510485 0.0267496 0.0
-0.0457579 0.0213964 0.0
-0.0402574 0.0165423 0.0
-0.0345552 0.0122138 0.0
-0.0286596 0.00844462 0.0
-0.0225799 0.00527879 0.0
-0.016327 0.00276389 0.0
-0.00991324 0.00096835 0.0
-0.00335085 0.000130868 0.0
0.875253 0.00207835 0.0
0.642973 0.015893 0.0
0.451619 0.0417196 0.0
0.305111 0.0706518 0.0
0.197955 0.0993349 0.0
0.121783 0.125704 0.0
0.068505 0.148767 0.0
0.031456 0.168231 0.0
0.00556466 0.184159 0.0
-0.0128238 0.196747 0.0
-0.0262273 0.206223 0.0
-0.0365074 0.21297 0.0
-0.044878 0.217315 0.0
-0.0520966 0.219534 0.0
-0.0586114 0.219871 0.0
-0.064666 0.218538 0.0
-0.0703709 0.215725 0.0
-0.0757528 0.211603 0.0
-0.0807889 0.206334 0.0
-0.0854295 0.200067 0.0
-0.0896145 0.192946 0.0
-0.093283 0.185107 0.0
-0.0963813 0.176681 0.0
-0.0988664 0.167792 0.0
-0.100709 0.158558 0.0
-0.101892 0.149087 0.0
-0.102415 0.139481 0.0
-0.102287 0.129833 0.0
-0.10153 0.120226 0.0
-0.100174 0.110731 0.0
-0.0982536 0.101414 0.0
-0.0958105 0.0923273 0.0
-0.0928865 0.0835174 0.0
-0.0895237 0.0750214 0.0
-0.0857627 0.0668696 0.0
-0.0816405 0.0590863 0.0
-0.0771903 0.0516911 0.0
-0.0724402 0.0446999 0.0
-0.0674132 0.0381268 0.0
-0.062127 0.0319847 0.0
-0.0565942 0.0262876 0.0
-0.0508231 0.0210516 0.0
-0.0448183 0.0162968 0.0
-0.0385816 0.0120491 0.0
-0.0321125 0.00834256 0.0
-0.0254094 0.00522227 0.0
-0.0184688 0.00273792 0.0
-0.011286 0.000960446 0.0
-0.00385213 0.000130033 0.0
0.883024 0.00180249 0.0
0.662597 0.0141197 0.0
0.477598 0.037569 0.0
0.332971 0.0643807 0.0
0.224832 0.0914605 0.0
0.146129 0.116788 0.0
0.0896391 0.139308 0.0
0.0492007 0.158623 0.0
0.0200045 0.174689 0.0
-0.00150739 0.187649 0.0
-0.0177913 0.197653 0.0
-0.0306333 0.204959 0.0
-0.0412804 0.209866 0.0
-0.0505254 0.212623 0.0
-0.0588459 0.213455 0.0
-0.0665081 0.212564 0.0
-0.07364 0.210137 0.0
-0.0802811 0.206347 0.0
-0.0864183 0.201356 0.0
-0.0920094 0.195322 0.0
-0.0970006 0.188396 0.0
-0.101337 0.180722 0.0
-0.104972 0.17244 0.0
-0.107868 0.163682 0.0
-0.110004 0.154573 0.0
-0.111373 0.145229 0.0
-0.111982 0.135757 0.0
-0.111851 0.126254 0.0
-0.111011 0.116804 0.0
-0.109502 0.107484 0.0
-0.107371 0.0983571 0.0
-0.104668 0.0894761 0.0
-0.101444 0.0808848 0.0
-0.0977477 0.0726182 0.0
-0.0936277 0.0647033 0.0
-0.0891265 0.0571606 0.0
-0.0842815 0.0500057 0.0
-0.0791235 0.0432505 0.0
-0.073677 0.0369048 0.0
-0.0679593 0.0309778 0.0
-0.0619816 0.0254799 0.0
-0.0557486 0.0204244 0.0
-0.0492596 0.0158289 0.0
-0.0425092 0.0117177 0.0
-0.0354876 0.00812382 0.0
-0.0281808 0.00509239 0.0
-0.020571 0.00267364 0.0
-0.0126359 0.000939395 0.0
-0.00434593 0.000127559 0.0
0.889947 0.00158167 0.0
0.680335 0.0126385 0.0
0.501487 0.0340167 0.0
0.35903 0.0588937 0.0
0.250382 0.0844257 0.0
0.169629 0.108659 0.0
0.11034 0.130506 0.0
0.0668369 0.149493 0.0
0.0345795 0.165495 0.0
0.0101476 0.178575 0.0
-0.00892232 0.18889 0.0
-0.0242929 0.196565 0.0
-0.0372156 0.201862 0.0
-0.0485088 0.205006 0.0
-0.0586709 0.206205 0.0
-0.0679844 0.205648 0.0
-0.0765895 0.203518 0.0
-0.084535 0.199986 0.0
-0.0918142 0.195219 0.0
-0.0983907 0.189377 0.0
-0.104216 0.182618 0.0
-0.10924 0.175094 0.0
-0.113423 0.166952 0.0
-0.116735 0.158331 0.0
-0.119163 0.149363 0.0
-0.120709 0.140171 0.0
-0.121391 0.130865 0.0
-0.12124 0.121546 0.0
-0.1203 0.112301 0.0
-0.118622 0.103206 0.0
-0.116263 0.0943244 0.0
-0.113283 0.0857074 0.0
-0.109745 0.0773964 0.0
-0.105706 0.0694229 0.0
-0.101221 0.0618103 0.0
-0.0963382 0.0545746 0.0
-0.0911005 0.0477269 0.0
-0.0855413 0.0412744 0.0
-0.079686 0.0352224 0.0
-0.0735518 0.0295756 0.0
-0.0671475 0.0243403 0.0
-0.060474 0.0195262 0.0
-0.0535248 0.0151476 0.0
-0.0462864 0.0112264 0.0
-0.0387389 0.00779346 0.0
-0.0308559 0.00489244 0.0
-0.0226044 0.00257283 0.0
-0.0139444 0.000905814 0.0
-0.00482569 0.000123523 0.0
0.896155 0.00139845 0.0
0.696444 0.0113735 0.0
0.523503 0.030923 0.0
0.383404 0.0540223 0.0
0.274614 0.0780631 0.0
0.192208 0.101172 0.0
0.130474 0.12225 0.0
0.0841919 0.140769 0.0
0.0490896 0.156542 0.0
0.0218901 0.16957 0.0
0.000190793 0.179967 0.0
-0.0176589 0.187844 0.0
-0.0328387 0.19337 0.0
-0.0461831 0.19676 0.0
-0.0582043 0.1982 0.0
-0.069195 0.197869 0.0
-0.0793027 0.195944 0.0
-0.0885814 0.192594 0.0
-0.0970286 0.187989 0.0
-0.104611 0.182292 0.0
-0.111285 0.175667 0.0
-0.117005 0.168272 0.0
-0.121736 0.160261 0.0
-0.125458 0.151781 0.0
-0.128166 0.142968 0.0
-0.129872 0.13395 0.0
-0.130608 0.124841 0.0
-0.130415 0.115744 0.0
-0.129351 0.106748 0.0