# vtk DataFile Version 3.0
Malha 2D com triângulos e temperatura
ASCII
DATASET UNSTRUCTURED_GRID

POINTS 2500 double
0 0 0
1 0 0
1 1 0
0 1 0
0.0204082 0 0
0.0408163 0 0
0.0612245 0 0
0.0816327 0 0
0.102041 0 0
0.122449 0 0
0.142857 0 0
0.163265 0 0
0.183673 0 0
0.204082 0 0
0.22449 0 0
0.244898 0 0
0.265306 0 0
0.285714 0 0
0.306122 0 0
0.326531 0 0
0.346939 0 0
0.367347 0 0
0.387755 0 0
0.408163 0 0
0.428571 0 0
0.44898 0 0
0.469388 0 0
0.489796 0 0
0.510204 0 0
0.530612 0 0
0.55102 0 0
0.571429 0 0
0.591837 0 0
0.612245 0 0
0.632653 0 0
0.653061 0 0
0.673469 0 0
0.693878 0 0
0.714286 0 0
0.734694 0 0
0.755102 0 0
0.77551 0 0
0.795918 0 0
0.816327 0 0
0.836735 0 0
0.857143 0 0
0.877551 0 0
0.897959 0 0
0.918367 0 0
0.938776 0 0
0.959184 0 0
0.979592 0 0
1 0.0204082 0
1 0.0408163 0
1 0.0612245 0
1 0.0816327 0
1 0.102041 0
1 0.122449 0
1 0.142857 0
1 0.163265 0
1 0.183673 0
1 0.204082 0
1 0.22449 0
1 0.244898 0
1 0.265306 0
1 0.285714 0
1 0.306122 0
1 0.326531 0
1 0.346939 0
1 0.367347 0
1 0.387755 0
1 0.408163 0
1 0.428571 0
1 0.44898 0
1 0.469388 0
1 0.489796 0
1 0.510204 0
1 0.530612 0
1 0.55102 0
1 0.571429 0
1 0.591837 0
1 0.612245 0
1 0.632653 0
1 0.653061 0
1 0.673469 0
1 0.693878 0
1 0.714286 0
1 0.734694 0
1 0.755102 0
1 0.77551 0
1 0.795918 0
1 0.816327 0
1 0.836735 0
1 0.857143 0
1 0.877551 0
1 0.897959 0
1 0.918367 0
1 0.938776 0
1 0.959184 0
1 0.979592 0
0.979592 1 0
0.959184 1 0
0.938776 1 0
0.918367 1 0
0.897959 1 0
0.877551 1 0
0.857143 1 0
0.836735 1 0
0.816327 1 0
0.795918 1 0
0.77551 1 0
0.755102 1 0
0.734694 1 0
0.714286 1 0
0.693878 1 0
0.673469 1 0
0.653061 1 0
0.632653 1 0
0.612245 1 0
0.591837 1 0
0.571429 1 0
0.55102 1 0
0.530612 1 0
0.510204 1 0
0.489796 1 0
0.469388 1 0
0.44898 1 0
0.428571 1 0
0.408163 1 0
0.387755 1 0
0.367347 1 0
0.346939 1 0
0.326531 1 0
0.306122 1 0
0.285714 1 0
0.265306 1 0
0.244898 1 0
0.22449 1 0
0.204082 1 0
0.183673 1 0
0.163265 1 0
0.142857 1 0
0.122449 1 0
0.102041 1 0
0.0816327 1 0
0.0612245 1 0
0.0408163 1 0
0.0204082 1 0
0 0.979592 0
0 0.959184 0
0 0.938776 0
0 0.918367 0
0 0.897959 0
0 0.877551 0
0 0.857143 0
0 0.836735 0
0 0.816327 0
0 0.795918 0
0 0.77551 0
0 0.755102 0
0 0.734694 0
0 0.714286 0
0 0.693878 0
0 0.673469 0
0 0.653061 0
0 0.632653 0
0 0.612245 0
0 0.591837 0
0 0.571429 0
0 0.55102 0
0 0.530612 0
0 0.510204 0
0 0.489796 0
0 0.469388 0
0 0.44898 0
0 0.428571 0
0 0.408163 0
0 0.387755 0
0 0.367347 0
0 0.346939 0
0 0.326531 0
0 0.306122 0
0 0.285714 0
0 0.265306 0
0 0.244898 0
0 0.22449 0
0 0.204082 0
0 0.183673 0
0 0.163265 0
0 0.142857 0
0 0.122449 0
0 0.102041 0
0 0.0816327 0
0 0.0612245 0
0 0.0408163 0
0 0.0204082 0
0.0204082 0.979592 0
0.0204082 0.959184 0
0.0204082 0.938776 0
0.0204082 0.918367 0
0.0204082 0.897959 0
0.0204082 0.877551 0
0.0204082 0.857143 0
0.0204082 0.836735 0
0.0204082 0.816327 0
0.0204082 0.795918 0
0.0204082 0.77551 0
0.0204082 0.755102 0
0.0204082 0.734694 0
0.0204082 0.714286 0
0.0204082 0.693878 0
0.0204082 0.673469 0
0.0204082 0.653061 0
0.0204082 0.632653 0
0.0204082 0.612245 0
0.0204082 0.591837 0
0.0204082 0.571429 0
0.0204082 0.55102 0
0.0204082 0.530612 0
0.0204082 0.510204 0
0.0204082 0.489796 0
0.0204082 0.469388 0
0.0204082 0.44898 0
0.0204082 0.428571 0
0.0204082 0.408163 0
0.0204082 0.387755 0
0.0204082 0.367347 0
0.0204082 0.346939 0
0.0204082 0.326531 0
0.0204082 0.306122 0
0.0204082 0.285714 0
0.0204082 0.265306 0
0.0204082 0.244898 0
0.0204082 0.22449 0
0.0204082 0.204082 0
0.0204082 0.183673 0
0.0204082 0.163265 0
0.0204082 0.142857 0
0.0204082 0.122449 0
0.0204082 0.102041 0
0.0204082 0.0816327 0
0.0204082 0.0612245 0
0.0204082 0.0408163 0
0.0204082 0.0204082 0
0.0408163 0.979592 0
0.0408163 0.959184 0
0.0408163 0.938776 0
0.0408163 0.918367 0
0.0408163 0.897959 0
0.0408163 0.877551 0
0.0408163 0.857143 0
0.0408163 0.836735 0
0.0408163 0.816327 0
0.0408163 0.795918 0
0.0408163 0.77551 0
0.0408163 0.755102 0
0.0408163 0.734694 0
0.0408163 0.714286 0
0.0408163 0.693878 0
0.0408163 0.673469 0
0.0408163 0.653061 0
0.0408163 0.632653 0
0.0408163 0.612245 0
0.0408163 0.591837 0
0.0408163 0.571429 0
0.0408163 0.55102 0
0.0408163 0.530612 0
0.0408163 0.510204 0
0.0408163 0.489796 0
0.0408163 0.469388 0
0.0408163 0.44898 0
0.0408163 0.428571 0
0.0408163 0.408163 0
0.0408163 0.387755 0
0.0408163 0.367347 0
0.0408163 0.346939 0
0.0408163 0.326531 0
0.0408163 0.306122 0
0.0408163 0.285714 0
0.0408163 0.265306 0
0.0408163 0.244898 0
0.0408163 0.22449 0
0.0408163 0.204082 0
0.0408163 0.183673 0
0.0408163 0.163265 0
0.0408163 0.142857 0
0.0408163 0.122449 0
0.0408163 0.102041 0
0.0408163 0.0816327 0
0.0408163 0.0612245 0
0.0408163 0.0408163 0
0.0408163 0.0204082 0
0.0612245 0.979592 0
0.0612245 0.959184 0
0.0612245 0.938776 0
0.0612245 0.918367 0
0.0612245 0.897959 0
0.0612245 0.877551 0
0.0612245 0.857143 0
0.0612245 0.836735 0
0.0612245 0.816327 0
0.0612245 0.795918 0
0.0612245 0.77551 0
0.0612245 0.755102 0
0.0612245 0.734694 0
0.0612245 0.714286 0
0.0612245 0.693878 0
0.0612245 0.673469 0
0.0612245 0.653061 0
0.0612245 0.632653 0
0.0612245 0.612245 0
0.0612245 0.591837 0
0.0612245 0.571429 0
0.0612245 0.55102 0
0.0612245 0.530612 0
0.0612245 0.510204 0
0.0612245 0.489796 0
0.0612245 0.469388 0
0.0612245 0.44898 0
0.0612245 0.428571 0
0.0612245 0.408163 0
0.0612245 0.387755 0
0.0612245 0.367347 0
0.0612245 0.346939 0
0.0612245 0.326531 0
0.0612245 0.306122 0
0.0612245 0.285714 0
0.0612245 0.265306 0
0.0612245 0.244898 0
0.0612245 0.22449 0
0.0612245 0.204082 0
0.0612245 0.183673 0
0.0612245 0.163265 0
0.0612245 0.142857 0
0.0612245 0.122449 0
0.0612245 0.102041 0
0.0612245 0.0816327 0
0.0612245 0.0612245 0
0.0612245 0.0408163 0
0.0612245 0.0204082 0
0.0816327 0.979592 0
0.0816327 0.959184 0
0.0816327 0.938776 0
0.0816327 0.918367 0
0.0816327 0.897959 0
0.0816327 0.877551 0
0.0816327 0.857143 0
0.0816327 0.836735 0
0.0816327 0.816327 0
0.0816327 0.795918 0
0.0816327 0.77551 0
0.0816327 0.755102 0
0.0816327 0.734694 0
0.0816327 0.714286 0
0.0816327 0.693878 0
0.0816327 0.673469 0
0.0816327 0.653061 0
0.0816327 0.632653 0
0.0816327 0.612245 0
0.0816327 0.591837 0
0.0816327 0.571429 0
0.0816327 0.55102 0
0.0816327 0.530612 0
0.0816327 0.510204 0
0.0816327 0.489796 0
0.0816327 0.469388 0
0.0816327 0.44898 0
0.0816327 0.428571 0
0.0816327 0.408163 0
0.0816327 0.387755 0
0.0816327 0.367347 0
0.0816327 0.346939 0
0.0816327 0.326531 0
0.0816327 0.306122 0
0.0816327 0.285714 0
0.0816327 0.265306 0
0.0816327 0.244898 0
0.0816327 0.22449 0
0.0816327 0.204082 0
0.0816327 0.183673 0
0.0816327 0.163265 0
0.0816327 0.142857 0
0.0816327 0.122449 0
0.0816327 0.102041 0
0.0816327 0.0816327 0
0.0816327 0.0612245 0
0.0816327 0.0408163 0
0.0816327 0.0204082 0
0.102041 0.979592 0
0.102041 0.959184 0
0.102041 0.938776 0
0.102041 0.918367 0
0.102041 0.897959 0
0.102041 0.877551 0
0.102041 0.857143 0
0.102041 0.836735 0
0.102041 0.816327 0
0.102041 0.795918 0
0.102041 0.77551 0
0.102041 0.755102 0
0.102041 0.734694 0
0.102041 0.714286 0
0.102041 0.693878 0
0.102041 0.673469 0
0.102041 0.653061 0
0.102041 0.632653 0
0.102041 0.612245 0
0.102041 0.591837 0
0.102041 0.571429 0
0.102041 0.55102 0
0.102041 0.530612 0
0.102041 0.510204 0
0.102041 0.489796 0
0.102041 0.469388 0
0.102041 0.44898 0
0.102041 0.428571 0
0.102041 0.408163 0
0.102041 0.387755 0
0.102041 0.367347 0
0.102041 0.346939 0
0.102041 0.326531 0
0.102041 0.306122 0
0.102041 0.285714 0
0.102041 0.265306 0
0.102041 0.244898 0
0.102041 0.22449 0
0.102041 0.204082 0
0.102041 0.183673 0
0.102041 0.163265 0
0.102041 0.142857 0
0.102041 0.122449 0
0.102041 0.102041 0
0.102041 0.0816327 0
0.102041 0.0612245 0
0.102041 0.0408163 0
0.102041 0.0204082 0
0.122449 0.979592 0
0.122449 0.959184 0
0.122449 0.938776 0
0.122449 0.918367 0
0.122449 0.897959 0
0.122449 0.877551 0
0.122449 0.857143 0
0.122449 0.836735 0
0.122449 0.816327 0
0.122449 0.795918 0
0.122449 0.77551 0
0.122449 0.755102 0
0.122449 0.734694 0
0.122449 0.714286 0
0.122449 0.693878 0
0.122449 0.673469 0
0.122449 0.653061 0
0.122449 0.632653 0
0.122449 0.612245 0
0.122449 0.591837 0
0.122449 0.571429 0
0.122449 0.55102 0
0.122449 0.530612 0
0.122449 0.510204 0
0.122449 0.489796 0
0.122449 0.469388 0
0.122449 0.44898 0
0.122449 0.428571 0
0.122449 0.408163 0
0.122449 0.387755 0
0.122449 0.367347 0
0.122449 0.346939 0
0.122449 0.326531 0
0.122449 0.306122 0
0.122449 0.285714 0
0.122449 0.265306 0
0.122449 0.244898 0
0.122449 0.22449 0
0.122449 0.204082 0
0.122449 0.183673 0
0.122449 0.163265 0
0.122449 0.142857 0
0.122449 0.122449 0
0.122449 0.102041 0
0.122449 0.0816327 0
0.122449 0.0612245 0
0.122449 0.0408163 0
0.122449 0.0204082 0
0.142857 0.979592 0
0.142857 0.959184 0
0.142857 0.938776 0
0.142857 0.918367 0
0.142857 0.897959 0
0.142857 0.877551 0
0.142857 0.857143 0
0.142857 0.836735 0
0.142857 0.816327 0
0.142857 0.795918 0
0.142857 0.77551 0
0.142857 0.755102 0
0.142857 0.734694 0
0.142857 0.714286 0
0.142857 0.693878 0
0.142857 0.673469 0
0.142857 0.653061 0
0.142857 0.632653 0
0.142857 0.612245 0
0.142857 0.591837 0
0.142857 0.571429 0
0.142857 0.55102 0
0.142857 0.530612 0
0.142857 0.510204 0
0.142857 0.489796 0
0.142857 0.469388 0
0.142857 0.44898 0
0.142857 0.428571 0
0.142857 0.408163 0
0.142857 0.387755 0
0.142857 0.367347 0
0.142857 0.346939 0
0.142857 0.326531 0
0.142857 0.306122 0
0.142857 0.285714 0
0.142857 0.265306 0
0.142857 0.244898 0
0.142857 0.22449 0
0.142857 0.204082 0
0.142857 0.183673 0
0.142857 0.163265 0
0.142857 0.142857 0
0.142857 0.122449 0
0.142857 0.102041 0
0.142857 0.0816327 0
0.142857 0.0612245 0
0.142857 0.0408163 0
0.142857 0.0204082 0
0.163265 0.979592 0
0.163265 0.959184 0
0.163265 0.938776 0
0.163265 0.918367 0
0.163265 0.897959 0
0.163265 0.877551 0
0.163265 0.857143 0
0.163265 0.836735 0
0.163265 0.816327 0
0.163265 0.795918 0
0.163265 0.77551 0
0.163265 0.755102 0
0.163265 0.734694 0
0.163265 0.714286 0
0.163265 0.693878 0
0.163265 0.673469 0
0.163265 0.653061 0
0.163265 0.632653 0
0.163265 0.612245 0
0.163265 0.591837 0
0.163265 0.571429 0
0.163265 0.55102 0
[...]
CELL_DATA 2401
VECTORS velocity double
0.257583 0.157302 0.0
-0.00261698 0.264456 0.0
-0.0322518 0.205507 0.0
-0.0253575 0.150647 0.0
-0.0160563 0.113133 0.0
-0.00970975 0.0877799 0.0
-0.00594141 0.0706886 0.0
-0.00376099 0.0589577 0.0
-0.00248057 0.0506834 0.0
-0.00170466 0.0446835 0.0
-0.0012176 0.0402144 0.0
-0.000902248 0.0367952 0.0
-0.000693424 0.034105 0.0
-0.000553395 0.0319239 0.0
-0.000459303 0.0300978 0.0
-0.000396662 0.0285168 0.0
-0.000355908 0.027102 0.0
-0.000330491 0.0257964 0.0
-0.00031579 0.0245588 0.0
-0.000308455 0.0233603 0.0
-0.000306006 0.022181 0.0
-0.000306577 0.0210076 0.0
-0.000308751 0.0198325 0.0
-0.000311452 0.0186521 0.0
-0.000313865 0.0174658 0.0
-0.000315387 0.0162757 0.0
-0.000315588 0.0150854 0.0
-0.000314177 0.0138998 0.0
-0.000310981 0.0127248 0.0
-0.000305916 0.0115666 0.0
-0.000298978 0.0104316 0.0
-0.000290212 0.00932625 0.0
-0.000279705 0.00825674 0.0
-0.000267565 0.00722901 0.0
-0.000253911 0.00624867 0.0
-0.000238854 0.00532092 0.0
-0.00022249 0.00445064 0.0
-0.000204888 0.00364242 0.0
-0.000186075 0.00290062 0.0
-0.000166027 0.0022295 0.0
-0.00014466 0.00163333 0.0
-0.000121816 0.00111646 0.0
-9.7272e-05 0.000683474 0.0
-7.07809e-05 0.000339054 0.0
-4.2233e-05 8.76939e-05 0.0
-1.21343e-05 -6.73045e-05 0.0
1.71578e-05 -0.000126107 0.0
3.88793e-05 -0.000100772 0.0
3.50438e-05 -3.48718e-05 0.0
0.340786 0.122979 0.0
-0.000606828 0.249529 0.0
-0.0651779 0.271783 0.0
-0.0632258 0.252333 0.0
-0.0485254 0.221827 0.0
-0.0349997 0.191943 0.0
-0.0249761 0.166477 0.0
-0.0179725 0.145928 0.0
-0.0131435 0.129687 0.0
-0.00980262 0.116903 0.0
-0.0074718 0.106783 0.0
-0.00583351 0.0986721 0.0
-0.00467752 0.0920525 0.0
-0.00386275 0.0865268 0.0
-0.00329253 0.0817926 0.0
-0.00289918 0.0776209 0.0
-0.00263424 0.0738398 0.0
-0.00246236 0.0703208 0.0
-0.00235726 0.0669694 0.0
-0.00229914 0.0637173 0.0
-0.00227283 0.0605169 0.0
-0.00226668 0.0573365 0.0
-0.00227166 0.0541571 0.0
-0.00228082 0.0509699 0.0
-0.00228881 0.0477735 0.0
-0.00229165 0.0445726 0.0
-0.00228644 0.0413762 0.0
-0.00227116 0.0381965 0.0
-0.00224457 0.0350476 0.0
-0.00220599 0.0319452 0.0
-0.00215522 0.0289054 0.0
-0.00209245 0.0259443 0.0
-0.00201808 0.0230778 0.0
-0.0019327 0.020321 0.0
-0.00183697 0.0176883 0.0
-0.00173155 0.0151935 0.0
-0.00161704 0.0128491 0.0
-0.00149393 0.0106673 0.0
-0.00136254 0.0086595 0.0
-0.00122302 0.00683652 0.0
-0.00107535 0.005209 0.0
-0.000919405 0.00378719 0.0
-0.00075512 0.00258085 0.0
-0.000582913 0.0015987 0.0
-0.000404587 0.000847089 0.0
-0.000225339 0.000327466 0.0
-5.78991e-05 3.15873e-05 0.0
7.05018e-05 -6.89526e-05 0.0
0.000100265 -3.78252e-05 0.0
0.500873 0.0768203 0.0
0.0990827 0.183272 0.0
-0.0393082 0.249321 0.0
-0.0733907 0.265863 0.0
-0.0719033 0.257568 0.0
-0.0606612 0.23975 0.0
-0.0484717 0.219674 0.0
-0.0379602 0.200628 0.0
-0.0296088 0.183824 0.0
-0.0232128 0.169482 0.0
-0.0184064 0.15739 0.0
-0.0148376 0.147195 0.0
-0.0122143 0.13852 0.0
-0.0103076 0.13102 0.0
-0.00894155 0.124405 0.0
-0.0079819 0.118435 0.0
-0.00732612 0.11292 0.0
-0.00689547 0.107713 0.0
-0.00662905 0.102701 0.0
-0.00647951 0.097803 0.0
-0.00640977 0.0929605 0.0
-0.00639074 0.0881355 0.0
-0.00639961 0.0833058 0.0
-0.00641856 0.0784617 0.0
-0.00643389 0.0736039 0.0
-0.00643521 0.0687407 0.0
-0.00641495 0.0638862 0.0
-0.00636782 0.0590588 0.0
-0.00629044 0.0542796 0.0
-0.00618099 0.0495714 0.0
-0.00603885 0.0449578 0.0
-0.00586437 0.0404625 0.0
-0.00565855 0.0361085 0.0
-0.00542282 0.0319181 0.0
-0.00515884 0.0279126 0.0
-0.00486832 0.024112 0.0
-0.00455285 0.0205349 0.0
-0.00421381 0.0171991 0.0
-0.00385227 0.0141213 0.0
-0.00346903 0.0113172 0.0
-0.00306469 0.0088017 0.0
-0.00263992 0.00658867 0.0
-0.00219603 0.00469062 0.0
-0.00173606 0.00311767 0.0
-0.00126683 0.0018759 0.0
-0.000802816 0.000964425 0.0
-0.000373034 0.000369836 0.0
-3.06294e-05 5.92008e-05 0.0
0.000123352 -1.53277e-05 0.0
0.610083 0.0480647 0.0
0.195744 0.134003 0.0
0.0114455 0.209497 0.0
-0.0580256 0.246561 0.0
-0.0761308 0.257092 0.0
-0.0738695 0.253603 0.0
-0.0646828 0.243279 0.0
-0.0541748 0.230368 0.0
-0.0445149 0.217131 0.0
-0.0363894 0.204628 0.0
-0.0298685 0.193256 0.0
-0.0247892 0.183069 0.0
-0.0209214 0.173955 0.0
-0.0180359 0.165737 0.0
-0.0159296 0.158225 0.0
-0.0144314 0.151242 0.0
-0.0134008 0.144634 0.0
-0.0127237 0.138276 0.0
-0.0123083 0.132068 0.0
-0.0120806 0.125938 0.0
-0.0119812 0.119833 0.0
-0.0119626 0.113719 0.0
-0.011987 0.10758 0.0
-0.0120244 0.101411 0.0
-0.0120518 0.0952172 0.0
-0.0120514 0.0890128 0.0
-0.0120103 0.0828178 0.0
-0.0119194 0.0766566 0.0
-0.0117731 0.0705563 0.0
-0.0115681 0.0645459 0.0
-0.0113036 0.058655 0.0
-0.01098 0.0529129 0.0
-0.0105992 0.0473484 0.0
-0.0101638 0.0419891 0.0
-0.00967659 0.0368611 0.0
-0.00914079 0.031989 0.0
-0.00855927 0.0273961 0.0
-0.00793468 0.0231041 0.0
-0.00726926 0.0191332 0.0
-0.00656495 0.0155024 0.0
-0.00582357 0.0122294 0.0
-0.0050474 0.00933007 0.0
-0.00424013 0.00681837 0.0
-0.00340858 0.004705 0.0
-0.00256577 0.00299589 0.0
-0.00173596 0.00168994 0.0
-0.000962953 0.000773455 0.0
-0.000320444 0.00021847 0.0
6.33707e-05 1.35632e-05 0.0
0.680497 0.0301815 0.0
0.278558 0.0982233 0.0
0.0696912 0.171033 0.0
-0.0274819 0.217559 0.0
-0.0653563 0.240989 0.0
-0.0748962 0.249402 0.0
-0.0719371 0.248721 0.0
-0.0642224 0.243049 0.0
-0.0554069 0.234966 0.0
-0.0471164 0.22597 0.0
-0.0399793 0.216867 0.0
-0.0341463 0.208042 0.0
-0.0295515 0.199636 0.0
-0.0260419 0.191656 0.0
-0.0234409 0.184044 0.0
-0.0215773 0.176714 0.0
-0.0202969 0.169577 0.0
-0.0194662 0.162554 0.0
-0.0189724 0.155578 0.0
-0.0187213 0.148599 0.0
-0.0186352 0.141583 0.0
-0.0186504 0.134511 0.0
-0.0187156 0.127376 0.0
-0.0187895 0.120183 0.0
-0.0188401 0.112947 0.0
-0.0188427 0.105689 0.0
-0.0187794 0.0984366 0.0
-0.0186376 0.0912195 0.0
-0.0184093 0.0840712 0.0
-0.0180904 0.0770259 0.0
-0.0176798 0.0701182 0.0
-0.0171786 0.0633822 0.0
-0.0165898 0.0568508 0.0
-0.0159173 0.0505554 0.0
-0.0151657 0.0445258 0.0
-0.0143396 0.03879 0.0
-0.0134437 0.0333739 0.0
-0.0124822 0.0283019 0.0
-0.011459 0.0235966 0.0
-0.0103774 0.0192789 0.0
-0.00924101 0.015368 0.0
-0.00805431 0.0118811 0.0
-0.00682383 0.00883308 0.0
-0.00556057 0.00623522 0.0
-0.00428345 0.00409454 0.0
-0.00302496 0.00241231 0.0
-0.00183963 0.00117885 0.0
-0.000813526 0.000377343 0.0
-8.61984e-05 4.12673e-05 0.0
0.729899 0.0192045 0.0
0.349102 0.0730667 0.0
0.128002 0.139308 0.0
0.0112151 0.188264 0.0
-0.0444506 0.219556 0.0
-0.0663203 0.236569 0.0
-0.0711336 0.243842 0.0
-0.0679665 0.244849 0.0
-0.0616027 0.242053 0.0
-0.054484 0.23707 0.0
-0.0477861 0.230909 0.0
-0.0420081 0.224162 0.0
-0.0372957 0.217155 0.0
-0.0336181 0.210049 0.0
-0.0308636 0.202906 0.0
-0.0288907 0.195736 0.0
-0.0275542 0.18852 0.0
-0.0267175 0.181234 0.0
-0.0262588 0.173852 0.0
-0.0260718 0.166356 0.0
-0.0260665 0.158736 0.0
-0.0261672 0.150994 0.0
-0.0263118 0.143138 0.0
-0.0264502 0.135187 0.0
-0.0265428 0.127167 0.0
-0.0265593 0.119107 0.0
-0.0264776 0.111042 0.0
-0.0262824 0.10301 0.0
-0.0259643 0.0950496 0.0
-0.0255187 0.0872004 0.0
-0.0249449 0.0795012 0.0
-0.0242451 0.0719898 0.0
-0.0234237 0.0647025 0.0
-0.0224864 0.0576735 0.0
-0.0214399 0.050935 0.0
-0.0202906 0.0445169 0.0
-0.0190454 0.0384471 0.0
-0.0177101 0.0327513 0.0
-0.0162905 0.0274534 0.0
-0.0147919 0.0225751 0.0
-0.0132199 0.0181367 0.0
-0.0115811 0.014156 0.0
-0.00988492 0.0106487 0.0
-0.00814614 0.00762736 0.0
-0.00638832 0.00510144 0.0
-0.00464952 0.00307675 0.0
-0.00299 0.00155068 0.0
-0.00150016 0.000520589 0.0
-0.000318101 6.50009e-05 0.0
0.765908 0.0125968 0.0
0.408522 0.0556996 0.0
0.182954 0.1145 0.0
0.052659 0.162543 0.0
-0.0173726 0.197616 0.0
-0.0507706 0.220351 0.0
-0.0637746 0.233593 0.0
-0.0660787 0.240109 0.0
-0.0632219 0.242039 0.0
-0.0582791 0.240922 0.0
-0.0528972 0.237812 0.0
-0.0479042 0.233399 0.0
-0.0436653 0.228121 0.0
-0.0402903 0.222247 0.0
-0.0377534 0.215934 0.0
-0.0359626 0.209269 0.0
-0.0347982 0.202302 0.0
-0.0341344 0.195058 0.0
-0.0338506 0.187557 0.0
-0.0338372 0.179813 0.0
-0.0339975 0.171844 0.0
-0.034249 0.163674 0.0
-0.0345226 0.155331 0.0
-0.0347617 0.146847 0.0
-0.0349218 0.13826 0.0
-0.0349685 0.129611 0.0
-0.0348772 0.120943 0.0
-0.0346309 0.1123 0.0
-0.0342198 0.103729 0.0
-0.0336397 0.0952723 0.0
-0.0328912 0.0869736 0.0
-0.0319781 0.0788737 0.0
-0.0309068 0.0710115 0.0
-0.0296855 0.063423 0.0
-0.0283228 0.0561421 0.0
-0.026828 0.0491998 0.0
-0.0252098 0.0426246 0.0
-0.0234764 0.0364429 0.0
-0.0216354 0.0306789 0.0
-0.0196942 0.0253547 0.0
-0.0176603 0.0204907 0.0
-0.0155424 0.0161055 0.0
-0.0133524 0.0122155 0.0
-0.0111076 0.00883527 0.0
-0.00883441 0.00597769 0.0
-0.00657333 0.00365458 0.0
-0.00438552 0.00187201 0.0
-0.00235882 0.000642153 0.0
-0.000620772 8.41671e-05 0.0
0.792935 0.00860501 0.0
0.458547 0.0435994 0.0
0.233374 0.0953132 0.0
0.0942174 0.140925 0.0
0.0133335 0.177048 0.0
-0.0304432 0.20338 0.0
-0.0514423 0.220869 0.0
-0.059569 0.231664 0.0
-0.0608208 0.237527 0.0
-0.0587305 0.239823 0.0
-0.0553214 0.23956 0.0
-0.0517053 0.237451 0.0
-0.0484509 0.233985 0.0
-0.0458077 0.229493 0.0
-0.0438429 0.224199 0.0
-0.0425235 0.218249 0.0
-0.0417655 0.211746 0.0
-0.041463 0.204761 0.0
-0.041505 0.197352 0.0
-0.0417849 0.189566 0.0
-0.0422055 0.181449 0.0
-0.0426814 0.173046 0.0
-0.0431402 0.164403 0.0
-0.0435222 0.15557 0.0
-0.04378 0.146597 0.0
-0.0438775 0.137536 0.0
-0.0437888 0.128438 0.0
-0.0434971 0.119357 0.0
-0.0429934 0.110342 0.0
-0.042275 0.101444 0.0
-0.0413444 0.0927073 0.0
-0.0402081 0.0841771 0.0
-0.0388752 0.0758939 0.0
-0.0373565 0.0678952 0.0
-0.0356637 0.0602154 0.0
-0.0338087 0.0528858 0.0
-0.0318027 0.0459351 0.0
-0.0296562 0.0393894 0.0
-0.0273791 0.0332726 0.0
-0.0249803 0.0276067 0.0
-0.0224693 0.0224118 0.0
-0.0198564 0.017707 0.0
-0.017155 0.0135097 0.0
-0.0143837 0.00983689 0.0
-0.0115695 0.00670534 0.0
-0.00875234 0.00413352 0.0
-0.00599004 0.00213659 0.0
-0.00336267 0.000740625 0.0
-0.000981424 9.90165e-05 0.0
0.813923 0.006151 0.0
0.500984 0.0350213 0.0
0.279111 0.0804712 0.0
0.13444 0.123085 0.0
0.045189 0.158926 0.0
-0.0071223 0.186985 0.0
-0.0355325 0.20736 0.0
-0.0494591 0.221326 0.0
-0.0550913 0.230302 0.0
-0.0562631 0.235453 0.0
-0.0552807 0.237689 0.0
-0.0534874 0.237693 0.0
-0.0516277 0.235965 0.0
-0.0500794 0.232866 0.0
-0.0489998 0.228656 0.0
-0.0484169 0.223523 0.0
-0.0482868 0.217609 0.0
-0.0485287 0.211022 0.0
-0.0490462 0.203851 0.0
-0.0497408 0.196172 0.0
-0.0505187 0.188055 0.0
-0.0512957 0.179567 0.0
-0.0519992 0.170773 0.0
-0.052569 0.161736 0.0
-0.0529573 0.152522 0.0
-0.0531283 0.143191 0.0
-0.0530568 0.133806 0.0
-0.0527276 0.124426 0.0
-0.0521339 0.115107 0.0
-0.0512756 0.105904 0.0
-0.0501584 0.0968659 0.0
-0.0487921 0.088039 0.0
-0.0471894 0.0794656 0.0
-0.0453646 0.0711841 0.0
-0.0433327 0.0632289 0.0
-0.0411087 0.0556313 0.0
-0.0387064 0.0484191 0.0
-0.0361391 0.0416177 0.0
-0.0334183 0.0352501 0.0
-0.0305551 0.0293376 0.0
-0.02756 0.0238999 0.0
-0.0244445 0.0189562 0.0
-0.0212222 0.0145252 0.0
-0.0179116 0.010626 0.0
-0.0145384 0.00727967 0.0
-0.0111389 0.00451111 0.0
-0.00776435 0.00234406 0.0
-0.00448337 0.000816813 0.0
-0.00138759 0.000110073 0.0
0.830752 0.00460215 0.0
0.537353 0.0288066 0.0
0.320467 0.0688818 0.0
0.172731 0.108368 0.0
0.0772018 0.143174 0.0
0.0179833 0.171747 0.0
-0.0171537 0.193947 0.0
-0.0366494 0.210185 0.0
-0.0467137 0.221545 0.0
-0.051358 0.228998 0.0
-0.053091 0.233338 0.0
-0.053436 0.235194 0.0
-0.0532829 0.235045 0.0
-0.0531207 0.23326 0.0
-0.0531884 0.230115 0.0
-0.0535722 0.225823 0.0
-0.0542683 0.220553 0.0
-0.0552226 0.214438 0.0
-0.0563564 0.207594 0.0
-0.0575815 0.20012 0.0
-0.058811 0.192108 0.0
-0.0599645 0.183644 0.0
-0.0609717 0.174808 0.0
-0.0617743 0.165681 0.0
-0.0623263 0.156337 0.0
-0.062594 0.146851 0.0
-0.0625547 0.137292 0.0
-0.0621965 0.127727 0.0
-0.061516 0.118219 0.0
-0.0605173 0.108825 0.0
-0.0592102 0.0995982 0.0
-0.057609 0.0905871 0.0
-0.0557307 0.0818349 0.0
-0.0535937 0.07338 0.0
-0.051217 0.0652567 0.0
-0.0486189 0.0574952 0.0
-0.0458166 0.0501224 0.0
-0.0428255 0.0431622 0.0
-0.0396594 0.0366362 0.0
-0.0363307 0.0305645 0.0
-0.0328507 0.0249663 0.0
-0.0292311 0.0198604 0.0
-0.025485 0.0152666 0.0
-0.0216289 0.0112062 0.0
-0.0176852 0.00770379 0.0
-0.0136846 0.00479035 0.0
-0.00966899 0.00249713 0.0
-0.00569323 0.000872485 0.0
-0.00182779 0.000117905 0.0
0.844616 0.00359181 0.0
0.568855 0.0241992 0.0
0.357872 0.0597278 0.0
0.208811 0.0962 0.0
0.108613 0.129588 0.0
0.0436662 0.158031 0.0
0.00286178 0.181073 0.0
-0.0218728 0.19889 0.0
-0.036289 0.212022 0.0
-0.0444809 0.221277 0.0
-0.0490937 0.227334 0.0
-0.0517864 0.230755 0.0
-0.0535656 0.231988 0.0
-0.0550132 0.231388 0.0
-0.0564389 0.229235 0.0
-0.0579813 0.225755 0.0
-0.0596739 0.221131 0.0
-0.0614889 0.215515 0.0
-0.0633653 0.209043 0.0
-0.0652273 0.201832 0.0
-0.066996 0.193991 0.0
-0.0685965 0.185624 0.0
-0.0699632 0.176826 0.0
-0.0710412 0.16769 0.0
-0.0717882 0.158303 0.0
-0.0721743 0.148749 0.0
-0.0721812 0.139106 0.0
-0.0718015 0.129449 0.0
-0.071037 0.119844 0.0
-0.0698969 0.110354 0.0
-0.0683968 0.101034 0.0
-0.0665561 0.091934 0.0
-0.0643971 0.0830983 0.0
-0.0619433 0.074565 0.0
-0.0592179 0.0663674 0.0
-0.0562433 0.0585345 0.0
-0.0530398 0.0510912 0.0
-0.0496255 0.0440598 0.0
-0.0460162 0.0374599 0.0
-0.0422251 0.0313101 0.0
-0.0382641 0.0256284 0.0
-0.0341441 0.0204333 0.0
-0.0298763 0.0157448 0.0
-0.0254742 0.011586 0.0
-0.0209551 0.00798484 0.0
-0.016342 0.0049769 0.0
-0.0116659 0.00259975 0.0
-0.0069662 0.000909681 0.0
-0.00229178 0.000123024 0.0
0.856302 0.0029066 0.0
0.596428 0.0206993 0.0
0.39179 0.0523933 0.0
0.242652 0.0860584 0.0
0.139065 0.117849 0.0
0.0694295 0.145752 0.0
0.0237234 0.169057 0.0
-0.00574115 0.187809 0.0
-0.0243346 0.202218 0.0
-0.0360547 0.212839 0.0
-0.0436199 0.220258 0.0
-0.0487872 0.224965 0.0
-0.0526535 0.227368 0.0
-0.0558759 0.2278 0.0
-0.0588232 0.226537 0.0
-0.0616789 0.223803 0.0
-0.0645098 0.219791 0.0
-0.0673119 0.214666 0.0
-0.0700412 0.208576 0.0
-0.0726338 0.201652 0.0
-0.0750198 0.19402 0.0
-0.077131 0.185794 0.0
-0.0789071 0.177086 0.0
-0.0802985 0.167999 0.0
-0.0812682 0.158632 0.0
-0.0817913 0.149078 0.0
-0.0818556 0.139422 0.0
-0.0814597 0.129746 0.0
-0.0806119 0.120121 0.0
-0.0793282 0.110614 0.0
-0.0776305 0.101281 0.0
-0.0755451 0.0921748 0.0
-0.0731003 0.0833387 0.0
-0.0703251 0.0748104 0.0
-0.067248 0.0666221 0.0
-0.0638955 0.0588005 0.0
-0.0602916 0.0513686 0.0
-0.056457 0.0443462 0.0
-0.0524091 0.0377507 0.0
-0.0481622 0.0315986 0.0
-0.0437275 0.0259062 0.0
-0.0391146 0.020691 0.0
-0.034332 0.0159731 0.0
-0.0293887 0.0117765 0.0
-0.0242953 0.00813144 0.0
-0.019066 0.00507722 0.0
-0.0137193 0.00265614 0.0
-0.00827829 0.000930343 0.0
-0.00277046 0.000125857 0.0
0.866339 0.00242202 0.0
0.620799 0.0179755 0.0
0.422651 0.0464265 0.0
0.274319 0.077524 0.0
0.168341 0.107661 0.0
0.0948698 0.134772 0.0
0.0449061 0.157976 0.0
0.0112949 0.177129 0.0
-0.0112713 0.192408 0.0
-0.0264445 0.204039 0.0
-0.0369727 0.212506 0.0
-0.0446803 0.218241 0.0
-0.0507327 0.221606 0.0
-0.0558463 0.22291 0.0
-0.060438 0.222415 0.0
-0.0647284 0.220342 0.0
-0.0688121 0.216884 0.0
-0.0727059 0.212215 0.0
-0.0763809 0.206491 0.0
-0.0797843 0.199854 0.0
-0.0828547 0.192442 0.0
-0.0855311 0.184382 0.0
-0.0877594 0.175795 0.0
-0.0894963 0.166796 0.0
-0.0907107 0.157494 0.0
-0.091385 0.14799 0.0
-0.0915139 0.138377 0.0
-0.0911036 0.128742 0.0
-0.0901702 0.119161 0.0
-0.0887378 0.109703 0.0
-0.0868362 0.100428 0.0
-0.0844991 0.0913868 0.0
-0.081762 0.0826241 0.0
-0.0786603 0.0741759 0.0
-0.0752282 0.0660723 0.0
-0.071497 0.0583379 0.0
-0.0674943 0.0509928 0.0
-0.0632436 0.044054 0.0
-0.0587639 0.0375362 0.0
-0.0540698 0.0314531 0.0
-0.0491717 0.0258189 0.0
-0.0440771 0.0206498 0.0
-0.0387906 0.0159649 0.0
-0.0333157 0.0117885 0.0
-0.0276554 0.00815217 0.0
-0.0218137 0.00509751 0.0
-0.0157956 0.00267012 0.0
-0.00960749 0.000936128 0.0
-0.00325576 0.00012673 0.0
0.875091 0.00206459 0.0
0.642526 0.0158055 0.0
0.450835 0.0414957 0.0
0.30393 0.0702625 0.0
0.196343 0.0987602 0.0
0.119743 0.124931 0.0
0.0660766 0.147786 0.0
0.0287032 0.167036 0.0
0.00256341 0.182749 0.0
-0.0159562 0.195097 0.0
-0.0294192 0.204342 0.0
-0.0396901 0.210869 0.0
-0.0479858 0.215 0.0
-0.0550688 0.217015 0.0
-0.0613936 0.21716 0.0
-0.0672107 0.215648 0.0
-0.0726373 0.212672 0.0
-0.0777069 0.208406 0.0
-0.0824032 0.203013 0.0
-0.0866832 0.196646 0.0
-0.0904933 0.189448 0.0
-0.0937793 0.181559 0.0
-0.0964939 0.173108 0.0
-0.0986005 0.164222 0.0
-0.100076 0.155016 0.0
-0.100909 0.145601 0.0
-0.101105 0.136075 0.0
-0.100677 0.126531 0.0
-0.0996518 0.117048 0.0
-0.0980623 0.107698 0.0
-0.0959473 0.0985417 0.0
-0.0933493 0.089631 0.0
-0.0903117 0.0810087 0.0
-0.0868773 0.0727092 0.0
-0.0830863 0.0647604 0.0
-0.0789752 0.0571837 0.0
-0.0745756 0.0499962 0.0
-0.0699138 0.0432113 0.0
-0.0650102 0.0368405 0.0
-0.0598795 0.0308943 0.0
-0.0545308 0.0253844 0.0
-0.0489686 0.0203245 0.0
-0.0431931 0.0157326 0.0
-0.0372012 0.011632 0.0
-0.0309874 0.00805462 0.0
-0.0245445 0.0050431 0.0
-0.0178634 0.00264487 0.0
-0.0109335 0.000928336 0.0
-0.00374041 0.000125875 0.0
0.882815 0.00179001 0.0
0.66204 0.0140367 0.0
0.476667 0.0373542 0.0
0.331618 0.0640073 0.0
0.223033 0.0909116 0.0
0.143893 0.116054 0.0
0.0870097 0.138383 0.0
0.0462446 0.157503 0.0
0.0168015 0.173375 0.0
-0.00487049 0.186141 0.0
-0.0212017 0.19593 0.0
-0.0340247 0.203035 0.0
-0.044588 0.207748 0.0
-0.0536876 0.210319 0.0
-0.0618065 0.210974 0.0
-0.0692174 0.209918 0.0
-0.0760549 0.20734 0.0
-0.0823654 0.203414 0.0
-0.0881423 0.198305 0.0
-0.0933505 0.192174 0.0
-0.097943 0.185173 0.0
-0.101872 0.177447 0.0
-0.105097 0.169137 0.0
-0.107589 0.160377 0.0
-0.109333 0.15129 0.0
-0.110327 0.141993 0.0
-0.110585 0.132591 0.0
-0.110132 0.12318 0.0
-0.109004 0.113843 0.0
-0.107245 0.104654 0.0
-0.104904 0.0956738 0.0
-0.102033 0.0869534 0.0
-0.0986842 0.0785341 0.0
-0.094909 0.0704482 0.0
-0.090754 0.0627202 0.0
-0.0862614 0.0553682 0.0
-0.0814669 0.0484056 0.0
-0.0763995 0.0418417 0.0
-0.071081 0.0356842 0.0
-0.0655258 0.0299402 0.0
-0.0597415 0.0246178 0.0
-0.0537288 0.0197281 0.0
-0.0474829 0.0152866 0.0
-0.0409934 0.0113153 0.0
-0.0342454 0.00784501 0.0
-0.0272199 0.00491822 0.0
-0.0198932 0.00258281 0.0
-0.0122375 0.000907897 0.0
-0.00421774 0.000123439 0.0
0.889695 0.00157086 0.0
0.679676 0.0125626 0.0
0.500416 0.0338175 0.0
0.357516 0.0585465 0.0
0.24841 0.0839166 0.0
0.167214 0.107982 0.0
0.107528 0.129657 0.0
0.0636966 0.148473 0.0
0.0311929 0.164303 0.0
0.00660534 0.177214 0.0
-0.0125235 0.187351 0.0
-0.0278702 0.194846 0.0
-0.040703 0.199971 0.0
-0.0518433 0.202949 0.0
-0.0617946 0.203988 0.0
-0.0708458 0.203281 0.0
-0.0791431 0.201011 0.0
-0.0867422 0.197352 0.0
-0.0936433 0.192473 0.0
-0.099817 0.186537 0.0
-0.105222 0.179704 0.0
-0.109816 0.172127 0.0
-0.113566 0.163954 0.0
-0.116449 0.155325 0.0
-0.118461 0.146373 0.0
-0.119609 0.137219 0.0
-0.119918 0.127973 0.0
-0.119425 0.118735 0.0
-0.118178 0.109589 0.0
-0.116232 0.100611 0.0
-0.113649 0.0918606 0.0
-0.11049 0.083388 0.0
-0.106817 0.075232 0.0
-0.102692 0.0674219 0.0
-0.0981665 0.0599785 0.0
-0.0932899 0.0529159 0.0
-0.0881023 0.0462429 0.0
-0.0826352 0.0399649 0.0
-0.0769117 0.0340849 0.0
-0.0709458 0.0286058 0.0
-0.0647428 0.0235321 0.0
-0.0582997 0.0188712 0.0
-0.0516056 0.0146357 0.0
-0.0446425 0.0108451 0.0
-0.0373855 0.00752822 0.0
-0.0298032 0.00472604 0.0
-0.0218569 0.00248566 0.0
-0.0135015 0.000875413 0.0
-0.00468146 0.000119497 0.0
0.895865 0.00138962 0.0
0.695691 0.0113068 0.0
0.522303 0.0307447 0.0
0.381741 0.0537101 0.0
0.272485 0.0776059 0.0
0.189634 0.100566 0.0
0.127502 0.121496 0.0
0.0808925 0.139869 0.0
0.0455444 0.155498 0.0
0.0181866 0.168383 0.0
-0.00358584 0.178642 0.0
-0.021402 0.186357 0.0
-0.0364859 0.191734 0.0
-0.0496718 0.194977 0.0
-0.0614756 0.196274 0.0
-0.0721954 0.195807 0.0
-0.0819847 0.193753 0.0
-0.0909041 0.190286 0.0
-0.098958 0.185575 0.0
-0.106121 0.179788 0.0
-0.112355 0.173091 0.0
-0.117623 0.165642 0.0
-0.1219 0.157598 0.0
-0.125171 0.149104 0.0
-0.127441 0.1403 0.0
-0.128728 0.131311 0.0
-0.12907 0.122252 0.0
-0.128517 0.113223 0.0