# vtk DataFile Version 3.0
Malha 2D com triângulos e temperatura
ASCII
DATASET UNSTRUCTURED_GRID

POINTS 2500 double
0 0 0
1 0 0
1 1 0
0 1 0
0.0204082 0 0
0.0408163 0 0
0.0612245 0 0
0.0816327 0 0
0.102041 0 0
0.122449 0 0
0.142857 0 0
0.163265 0 0
0.183673 0 0
0.204082 0 0
0.22449 0 0
0.244898 0 0
0.265306 0 0
0.285714 0 0
0.306122 0 0
0.326531 0 0
0.346939 0 0
0.367347 0 0
0.387755 0 0
0.408163 0 0
0.428571 0 0
0.44898 0 0
0.469388 0 0
0.489796 0 0
0.510204 0 0
0.530612 0 0
0.55102 0 0
0.571429 0 0
0.591837 0 0
0.612245 0 0
0.632653 0 0
0.653061 0 0
0.673469 0 0
0.693878 0 0
0.714286 0 0
0.734694 0 0
0.755102 0 0
0.77551 0 0
0.795918 0 0
0.816327 0 0
0.836735 0 0
0.857143 0 0
0.877551 0 0
0.897959 0 0
0.918367 0 0
0.938776 0 0
0.959184 0 0
0.979592 0 0
1 0.0204082 0
1 0.0408163 0
1 0.0612245 0
1 0.0816327 0
1 0.102041 0
1 0.122449 0
1 0.142857 0
1 0.163265 0
1 0.183673 0
1 0.204082 0
1 0.22449 0
1 0.244898 0
1 0.265306 0
1 0.285714 0
1 0.306122 0
1 0.326531 0
1 0.346939 0
1 0.367347 0
1 0.387755 0
1 0.408163 0
1 0.428571 0
1 0.44898 0
1 0.469388 0
1 0.489796 0
1 0.510204 0
1 0.530612 0
1 0.55102 0
1 0.571429 0
1 0.591837 0
1 0.612245 0
1 0.632653 0
1 0.653061 0
1 0.673469 0
1 0.693878 0
1 0.714286 0
1 0.734694 0
1 0.755102 0
1 0.77551 0
1 0.795918 0
1 0.816327 0
1 0.836735 0
1 0.857143 0
1 0.877551 0
1 0.897959 0
1 0.918367 0
1 0.938776 0
1 0.959184 0
1 0.979592 0
0.979592 1 0
0.959184 1 0
0.938776 1 0
0.918367 1 0
0.897959 1 0
0.877551 1 0
0.857143 1 0
0.836735 1 0
0.816327 1 0
0.795918 1 0
0.77551 1 0
0.755102 1 0
0.734694 1 0
0.714286 1 0
0.693878 1 0
0.673469 1 0
0.653061 1 0
0.632653 1 0
0.612245 1 0
0.591837 1 0
0.571429 1 0
0.55102 1 0
0.530612 1 0
0.510204 1 0
0.489796 1 0
0.469388 1 0
0.44898 1 0
0.428571 1 0
0.408163 1 0
0.387755 1 0
0.367347 1 0
0.346939 1 0
0.326531 1 0
0.306122 1 0
0.285714 1 0
0.265306 1 0
0.244898 1 0
0.22449 1 0
0.204082 1 0
0.183673 1 0
0.163265 1 0
0.142857 1 0
0.122449 1 0
0.102041 1 0
0.0816327 1 0
0.0612245 1 0
0.0408163 1 0
0.0204082 1 0
0 0.979592 0
0 0.959184 0
0 0.938776 0
0 0.918367 0
0 0.897959 0
0 0.877551 0
0 0.857143 0
0 0.836735 0
0 0.816327 0
0 0.795918 0
0 0.77551 0
0 0.755102 0
0 0.734694 0
0 0.714286 0
0 0.693878 0
0 0.673469 0
0 0.653061 0
0 0.632653 0
0 0.612245 0
0 0.591837 0
0 0.571429 0
0 0.55102 0
0 0.530612 0
0 0.510204 0
0 0.489796 0
0 0.469388 0
0 0.44898 0
0 0.428571 0
0 0.408163 0
0 0.387755 0
0 0.367347 0
0 0.346939 0
0 0.326531 0
0 0.306122 0
0 0.285714 0
0 0.265306 0
0 0.244898 0
0 0.22449 0
0 0.204082 0
0 0.183673 0
0 0.163265 0
0 0.142857 0
0 0.122449 0
0 0.102041 0
0 0.0816327 0
0 0.0612245 0
0 0.0408163 0
0 0.0204082 0
0.0204082 0.979592 0
0.0204082 0.959184 0
0.0204082 0.938776 0
0.0204082 0.918367 0
0.0204082 0.897959 0
0.0204082 0.877551 0
0.0204082 0.857143 0
0.0204082 0.836735 0
0.0204082 0.816327 0
0.0204082 0.795918 0
0.0204082 0.77551 0
0.0204082 0.755102 0
0.0204082 0.734694 0
0.0204082 0.714286 0
0.0204082 0.693878 0
0.0204082 0.673469 0
0.0204082 0.653061 0
0.0204082 0.632653 0
0.0204082 0.612245 0
0.0204082 0.591837 0
0.0204082 0.571429 0
0.0204082 0.55102 0
0.0204082 0.530612 0
0.0204082 0.510204 0
0.0204082 0.489796 0
0.0204082 0.469388 0
0.0204082 0.44898 0
0.0204082 0.428571 0
0.0204082 0.408163 0
0.0204082 0.387755 0
0.0204082 0.367347 0
0.0204082 0.346939 0
0.0204082 0.326531 0
0.0204082 0.306122 0
0.0204082 0.285714 0
0.0204082 0.265306 0
0.0204082 0.244898 0
0.0204082 0.22449 0
0.0204082 0.204082 0
0.0204082 0.183673 0
0.0204082 0.163265 0
0.0204082 0.142857 0
0.0204082 0.122449 0
0.0204082 0.102041 0
0.0204082 0.0816327 0
0.0204082 0.0612245 0
0.0204082 0.0408163 0
0.0204082 0.0204082 0
0.0408163 0.979592 0
0.0408163 0.959184 0
0.0408163 0.938776 0
0.0408163 0.918367 0
0.0408163 0.897959 0
0.0408163 0.877551 0
0.0408163 0.857143 0
0.0408163 0.836735 0
0.0408163 0.816327 0
0.0408163 0.795918 0
0.0408163 0.77551 0
0.0408163 0.755102 0
0.0408163 0.734694 0
0.0408163 0.714286 0
0.0408163 0.693878 0
0.0408163 0.673469 0
0.0408163 0.653061 0
0.0408163 0.632653 0
0.0408163 0.612245 0
0.0408163 0.591837 0
0.0408163 0.571429 0
0.0408163 0.55102 0
0.0408163 0.530612 0
0.0408163 0.510204 0
0.0408163 0.489796 0
0.0408163 0.469388 0
0.0408163 0.44898 0
0.0408163 0.428571 0
0.0408163 0.408163 0
0.0408163 0.387755 0
0.0408163 0.367347 0
0.0408163 0.346939 0
0.0408163 0.326531 0
0.0408163 0.306122 0
0.0408163 0.285714 0
0.0408163 0.265306 0
0.0408163 0.244898 0
0.0408163 0.22449 0
0.0408163 0.204082 0
0.0408163 0.183673 0
0.0408163 0.163265 0
0.0408163 0.142857 0
0.0408163 0.122449 0
0.0408163 0.102041 0
0.0408163 0.0816327 0
0.0408163 0.0612245 0
0.0408163 0.0408163 0
0.0408163 0.0204082 0
0.0612245 0.979592 0
0.0612245 0.959184 0
0.0612245 0.938776 0
0.0612245 0.918367 0
0.0612245 0.897959 0
0.0612245 0.877551 0
0.0612245 0.857143 0
0.0612245 0.836735 0
0.0612245 0.816327 0
0.0612245 0.795918 0
0.0612245 0.77551 0
0.0612245 0.755102 0
0.0612245 0.734694 0
0.0612245 0.714286 0
0.0612245 0.693878 0
0.0612245 0.673469 0
0.0612245 0.653061 0
0.0612245 0.632653 0
0.0612245 0.612245 0
0.0612245 0.591837 0
0.0612245 0.571429 0
0.0612245 0.55102 0
0.0612245 0.530612 0
0.0612245 0.510204 0
0.0612245 0.489796 0
0.0612245 0.469388 0
0.0612245 0.44898 0
0.0612245 0.428571 0
0.0612245 0.408163 0
0.0612245 0.387755 0
0.0612245 0.367347 0
0.0612245 0.346939 0
0.0612245 0.326531 0
0.0612245 0.306122 0
0.0612245 0.285714 0
0.0612245 0.265306 0
0.0612245 0.244898 0
0.0612245 0.22449 0
0.0612245 0.204082 0
0.0612245 0.183673 0
0.0612245 0.163265 0
0.0612245 0.142857 0
0.0612245 0.122449 0
0.0612245 0.102041 0
0.0612245 0.0816327 0
0.0612245 0.0612245 0
0.0612245 0.0408163 0
0.0612245 0.0204082 0
0.0816327 0.979592 0
0.0816327 0.959184 0
0.0816327 0.938776 0
0.0816327 0.918367 0
0.0816327 0.897959 0
0.0816327 0.877551 0
0.0816327 0.857143 0
0.0816327 0.836735 0
0.0816327 0.816327 0
0.0816327 0.795918 0
0.0816327 0.77551 0
0.0816327 0.755102 0
0.0816327 0.734694 0
0.0816327 0.714286 0
0.0816327 0.693878 0
0.0816327 0.673469 0
0.0816327 0.653061 0
0.0816327 0.632653 0
0.0816327 0.612245 0
0.0816327 0.591837 0
0.0816327 0.571429 0
0.0816327 0.55102 0
0.0816327 0.530612 0
0.0816327 0.510204 0
0.0816327 0.489796 0
0.0816327 0.469388 0
0.0816327 0.44898 0
0.0816327 0.428571 0
0.0816327 0.408163 0
0.0816327 0.387755 0
0.0816327 0.367347 0
0.0816327 0.346939 0
0.0816327 0.326531 0
0.0816327 0.306122 0
0.0816327 0.285714 0
0.0816327 0.265306 0
0.0816327 0.244898 0
0.0816327 0.22449 0
0.0816327 0.204082 0
0.0816327 0.183673 0
0.0816327 0.163265 0
0.0816327 0.142857 0
0.0816327 0.122449 0
0.0816327 0.102041 0
0.0816327 0.0816327 0
0.0816327 0.0612245 0
0.0816327 0.0408163 0
0.0816327 0.0204082 0
0.102041 0.979592 0
0.102041 0.959184 0
0.102041 0.938776 0
0.102041 0.918367 0
0.102041 0.897959 0
0.102041 0.877551 0
0.102041 0.857143 0
0.102041 0.836735 0
0.102041 0.816327 0
0.102041 0.795918 0
0.102041 0.77551 0
0.102041 0.755102 0
0.102041 0.734694 0
0.102041 0.714286 0
0.102041 0.693878 0
0.102041 0.673469 0
0.102041 0.653061 0
0.102041 0.632653 0
0.102041 0.612245 0
0.102041 0.591837 0
0.102041 0.571429 0
0.102041 0.55102 0
0.102041 0.530612 0
0.102041 0.510204 0
0.102041 0.489796 0
0.102041 0.469388 0
0.102041 0.44898 0
0.102041 0.428571 0
0.102041 0.408163 0
0.102041 0.387755 0
0.102041 0.367347 0
0.102041 0.346939 0
0.102041 0.326531 0
0.102041 0.306122 0
0.102041 0.285714 0
0.102041 0.265306 0
0.102041 0.244898 0
0.102041 0.22449 0
0.102041 0.204082 0
0.102041 0.183673 0
0.102041 0.163265 0
0.102041 0.142857 0
0.102041 0.122449 0
0.102041 0.102041 0
0.102041 0.0816327 0
0.102041 0.0612245 0
0.102041 0.0408163 0
0.102041 0.0204082 0
0.122449 0.979592 0
0.122449 0.959184 0
0.122449 0.938776 0
0.122449 0.918367 0
0.122449 0.897959 0
0.122449 0.877551 0
0.122449 0.857143 0
0.122449 0.836735 0
0.122449 0.816327 0
0.122449 0.795918 0
0.122449 0.77551 0
0.122449 0.755102 0
0.122449 0.734694 0
0.122449 0.714286 0
0.122449 0.693878 0
0.122449 0.673469 0
0.122449 0.653061 0
0.122449 0.632653 0
0.122449 0.612245 0
0.122449 0.591837 0
0.122449 0.571429 0
0.122449 0.55102 0
0.122449 0.530612 0
0.122449 0.510204 0
0.122449 0.489796 0
0.122449 0.469388 0
0.122449 0.44898 0
0.122449 0.428571 0
0.122449 0.408163 0
0.122449 0.387755 0
0.122449 0.367347 0
0.122449 0.346939 0
0.122449 0.326531 0
0.122449 0.306122 0
0.122449 0.285714 0
0.122449 0.265306 0
0.122449 0.244898 0
0.122449 0.22449 0
0.122449 0.204082 0
0.122449 0.183673 0
0.122449 0.163265 0
0.122449 0.142857 0
0.122449 0.122449 0
0.122449 0.102041 0
0.122449 0.0816327 0
0.122449 0.0612245 0
0.122449 0.0408163 0
0.122449 0.0204082 0
0.142857 0.979592 0
0.142857 0.959184 0
0.142857 0.938776 0
0.142857 0.918367 0
0.142857 0.897959 0
0.142857 0.877551 0
0.142857 0.857143 0
0.142857 0.836735 0
0.142857 0.816327 0
0.142857 0.795918 0
0.142857 0.77551 0
0.142857 0.755102 0
0.142857 0.734694 0
0.142857 0.714286 0
0.142857 0.693878 0
0.142857 0.673469 0
0.142857 0.653061 0
0.142857 0.632653 0
0.142857 0.612245 0
0.142857 0.591837 0
0.142857 0.571429 0
0.142857 0.55102 0
0.142857 0.530612 0
0.142857 0.510204 0
0.142857 0.489796 0
0.142857 0.469388 0
0.142857 0.44898 0
0.142857 0.428571 0
0.142857 0.408163 0
0.142857 0.387755 0
0.142857 0.367347 0
0.142857 0.346939 0
0.142857 0.326531 0
0.142857 0.306122 0
0.142857 0.285714 0
0.142857 0.265306 0
0.142857 0.244898 0
0.142857 0.22449 0
0.142857 0.204082 0
0.142857 0.183673 0
0.142857 0.163265 0
0.142857 0.142857 0
0.142857 0.122449 0
0.142857 0.102041 0
0.142857 0.0816327 0
0.142857 0.0612245 0
0.142857 0.0408163 0
0.142857 0.0204082 0
0.163265 0.979592 0
0.163265 0.959184 0
0.163265 0.938776 0
0.163265 0.918367 0
0.163265 0.897959 0
0.163265 0.877551 0
0.163265 0.857143 0
0.163265 0.836735 0
0.163265 0.816327 0
0.163265 0.795918 0
0.163265 0.77551 0
0.163265 0.755102 0
0.163265 0.734694 0
0.163265 0.714286 0
0.163265 0.693878 0
0.163265 0.673469 0
0.163265 0.653061 0
0.163265 0.632653 0
0.163265 0.612245 0
0.163265 0.591837 0
0.163265 0.571429 0
0.163265 0.55102 0
[...]
CELL_DATA 2401
VECTORS velocity double
0.257582 0.157301 0.0
-0.00262449 0.264443 0.0
-0.0322637 0.205469 0.0
-0.0253693 0.150583 0.0
-0.0160644 0.113048 0.0
-0.00971254 0.0876876 0.0
-0.00593891 0.0706036 0.0
-0.00375406 0.0588938 0.0
-0.00247034 0.0506515 0.0
-0.00169225 0.0446918 0.0
-0.00120396 0.0402683 0.0
-0.000888109 0.0368972 0.0
-0.000679337 0.0342559 0.0
-0.000539765 0.032123 0.0
-0.00044643 0.0303429 0.0
-0.000384772 0.0288051 0.0
-0.000345176 0.0274297 0.0
-0.000321057 0.026159 0.0
-0.000307765 0.0249516 0.0
-0.000301925 0.0237781 0.0
-0.000301035 0.0226182 0.0
-0.000303205 0.0214587 0.0
-0.000306989 0.0202918 0.0
-0.000311283 0.0191138 0.0
-0.000315243 0.0179245 0.0
-0.000318237 0.0167259 0.0
-0.000319805 0.0155222 0.0
-0.000319631 0.0143187 0.0
-0.000317519 0.0131216 0.0
-0.000313366 0.0119377 0.0
-0.000307151 0.0107742 0.0
-0.000298913 0.00963812 0.0
-0.000288731 0.00853631 0.0
-0.000276715 0.00747543 0.0
-0.000262986 0.00646179 0.0
-0.000247665 0.00550125 0.0
-0.000230861 0.00459934 0.0
-0.000212655 0.00376122 0.0
-0.000193094 0.00299182 0.0
-0.000172172 0.00229586 0.0
-0.000149824 0.001678 0.0
-0.000125912 0.00114296 0.0
-0.000100235 0.000695524 0.0
-7.25689e-05 0.00034055 0.0
-4.28401e-05 8.256e-05 0.0
-1.162e-05 -7.52773e-05 0.0
1.85951e-05 -0.000133508 0.0
4.07452e-05 -0.000105141 0.0
3.62586e-05 -3.60765e-05 0.0
0.340774 0.122971 0.0
-0.000643814 0.249493 0.0
-0.0652244 0.271702 0.0
-0.0632669 0.252214 0.0
-0.0485483 0.221685 0.0
-0.0349978 0.191803 0.0
-0.0249486 0.166368 0.0
-0.0179224 0.145877 0.0
-0.0130757 0.129717 0.0
-0.00972226 0.117032 0.0
-0.00738379 0.107024 0.0
-0.00574197 0.0990318 0.0
-0.00458581 0.0925331 0.0
-0.00377356 0.087127 0.0
-0.00320798 0.0825076 0.0
-0.00282093 0.0784437 0.0
-0.00256362 0.074761 0.0
-0.00240043 0.0713295 0.0
-0.00230484 0.0680534 0.0
-0.00225685 0.0648634 0.0
-0.0022411 0.0617111 0.0
-0.00224576 0.0585645 0.0
-0.00226159 0.0554044 0.0
-0.00228145 0.0522219 0.0
-0.00229981 0.0490162 0.0
-0.00231249 0.0457925 0.0
-0.00231641 0.0425605 0.0
-0.00230941 0.0393336 0.0
-0.00229008 0.0361271 0.0
-0.00225763 0.0329582 0.0
-0.00221179 0.0298443 0.0
-0.00215264 0.0268034 0.0
-0.00208059 0.023853 0.0
-0.00199621 0.0210099 0.0
-0.00190018 0.0182905 0.0
-0.00179322 0.0157098 0.0
-0.00167599 0.0132824 0.0
-0.00154908 0.0110217 0.0
-0.00141293 0.00894043 0.0
-0.00126781 0.00705085 0.0
-0.00111384 0.00536452 0.0
-0.000951053 0.00389251 0.0
-0.00077956 0.0026452 0.0
-0.000599988 0.0016316 0.0
-0.000414418 0.000858044 0.0
-0.00022846 0.000325552 0.0
-5.55185e-05 2.48569e-05 0.0
7.6028e-05 -7.44028e-05 0.0
0.000104601 -3.963e-05 0.0
0.500836 0.0768099 0.0
0.0990034 0.183226 0.0
-0.0393971 0.249231 0.0
-0.0734594 0.265742 0.0
-0.0719285 0.257442 0.0
-0.0606303 0.23965 0.0
-0.0483827 0.219635 0.0
-0.0378189 0.200682 0.0
-0.0294253 0.184001 0.0
-0.0229987 0.169803 0.0
-0.0181729 0.157873 0.0
-0.0145947 0.147848 0.0
-0.0119707 0.139345 0.0
-0.0100703 0.132016 0.0
-0.00871633 0.125565 0.0
-0.0077734 0.119749 0.0
-0.00713806 0.114374 0.0
-0.0067308 0.109291 0.0
-0.00649008 0.104386 0.0
-0.00636795 0.0995754 0.0
-0.00632679 0.0948003 0.0
-0.00633696 0.0900217 0.0
-0.00637512 0.0852173 0.0
-0.00642293 0.0803776 0.0
-0.00646618 0.0755038 0.0
-0.00649399 0.070605 0.0
-0.00649832 0.0656967 0.0
-0.00647345 0.0607985 0.0
-0.00641566 0.0559336 0.0
-0.0063228 0.0511265 0.0
-0.00619403 0.0464033 0.0
-0.0060295 0.0417897 0.0
-0.00583015 0.0373115 0.0
-0.00559737 0.0329932 0.0
-0.0053329 0.0288587 0.0
-0.00503856 0.0249302 0.0
-0.00471612 0.021229 0.0
-0.0043672 0.0177748 0.0
-0.00399318 0.0145863 0.0
-0.00359519 0.0116809 0.0
-0.00317423 0.00907516 0.0
-0.0027314 0.00678409 0.0
-0.00226852 0.00482103 0.0
-0.00178922 0.00319657 0.0
-0.0013011 0.00191676 0.0
-0.000819665 0.000980107 0.0
-0.000375447 0.000371867 0.0
-2.38328e-05 5.6784e-05 0.0
0.000130608 -1.66794e-05 0.0
0.61002 0.0480549 0.0
0.195626 0.133963 0.0
0.0113224 0.209426 0.0
-0.0581035 0.246479 0.0
-0.0761331 0.25703 0.0
-0.0737797 0.253597 0.0
-0.0644991 0.243366 0.0
-0.0539063 0.230582 0.0
-0.0441774 0.217503 0.0
-0.0360012 0.205181 0.0
-0.0294479 0.194007 0.0
-0.024353 0.184026 0.0
-0.0204842 0.175121 0.0
-0.0176102 0.167108 0.0
-0.0155256 0.159793 0.0
-0.0140577 0.152994 0.0
-0.013064 0.146554 0.0
-0.0124294 0.140344 0.0
-0.0120607 0.134264 0.0
-0.0118827 0.128237 0.0
-0.0118352 0.12221 0.0
-0.0118696 0.11615 0.0
-0.011947 0.110038 0.0
-0.0120367 0.103871 0.0
-0.0121146 0.097654 0.0
-0.0121621 0.0914031 0.0
-0.0121655 0.0851393 0.0
-0.0121149 0.0788888 0.0
-0.0120041 0.0726809 0.0
-0.0118293 0.066547 0.0
-0.0115891 0.0605193 0.0
-0.0112838 0.05463 0.0
-0.0109151 0.0489105 0.0
-0.0104854 0.0433916 0.0
-0.00999779 0.0381023 0.0
-0.00945557 0.0330702 0.0
-0.00886196 0.0283212 0.0
-0.00822003 0.0238796 0.0
-0.00753254 0.0197682 0.0
-0.00680204 0.0160081 0.0
-0.00603107 0.0126187 0.0
-0.0052227 0.0096175 0.0
-0.00438153 0.0070195 0.0
-0.00351553 0.00483598 0.0
-0.00263901 0.00307293 0.0
-0.00177799 0.00172863 0.0
-0.000978661 0.000788017 0.0
-0.000317935 0.000220891 0.0
7.12328e-05 1.30667e-05 0.0
0.680415 0.0301745 0.0
0.278414 0.0981974 0.0
0.0695591 0.170997 0.0
-0.0275428 0.217538 0.0
-0.0653058 0.241018 0.0
-0.0747157 0.249518 0.0
-0.0716263 0.248961 0.0
-0.0637947 0.243448 0.0
-0.0548839 0.235552 0.0
-0.0465232 0.226765 0.0
-0.0393414 0.217886 0.0
-0.0334875 0.209293 0.0
-0.0288928 0.20112 0.0
-0.0254014 0.193368 0.0
-0.022834 0.185973 0.0
-0.0210164 0.178846 0.0
-0.0197923 0.171893 0.0
-0.0190262 0.165032 0.0
-0.0186033 0.158194 0.0
-0.0184279 0.151326 0.0
-0.0184205 0.144394 0.0
-0.0185161 0.137377 0.0
-0.0186617 0.130268 0.0
-0.0188148 0.123074 0.0
-0.0189418 0.115809 0.0
-0.019017 0.108495 0.0
-0.019021 0.101162 0.0
-0.0189402 0.0938417 0.0
-0.0187658 0.0865696 0.0
-0.0184927 0.0793827 0.0
-0.0181193 0.0723185 0.0
-0.0176462 0.065414 0.0
-0.0170762 0.0587053 0.0
-0.016413 0.0522272 0.0
-0.0156614 0.0460126 0.0
-0.0148263 0.0400927 0.0
-0.0139129 0.0344965 0.0
-0.0129259 0.0292513 0.0
-0.0118699 0.0243823 0.0
-0.0107494 0.019913 0.0
-0.0095689 0.0158646 0.0
-0.00833406 0.012256 0.0
-0.00705284 0.00910326 0.0
-0.00573788 0.00641852 0.0
-0.00441005 0.00420896 0.0
-0.00310427 0.00247541 0.0
-0.00187821 0.00120701 0.0
-0.000821956 0.000385056 0.0
-8.06258e-05 4.16911e-05 0.0
0.729807 0.0192016 0.0
0.348952 0.07306 0.0
0.127885 0.139314 0.0
0.011201 0.188315 0.0
-0.0443165 0.219686 0.0
-0.0660184 0.236816 0.0
-0.0706664 0.244242 0.0
-0.0673519 0.245434 0.0
-0.0608686 0.242848 0.0
-0.0536625 0.238096 0.0
-0.0469096 0.232177 0.0
-0.0411072 0.225678 0.0
-0.0363978 0.218918 0.0
-0.0327469 0.212053 0.0
-0.0300394 0.205139 0.0
-0.0281303 0.19818 0.0
-0.0268714 0.191157 0.0
-0.0261235 0.184038 0.0
-0.0257621 0.176798 0.0
-0.0256789 0.169416 0.0
-0.0257815 0.161882 0.0
-0.0259922 0.154194 0.0
-0.0262469 0.146363 0.0
-0.0264935 0.138406 0.0
-0.0266906 0.130351 0.0
-0.0268063 0.122228 0.0
-0.0268166 0.114074 0.0
-0.026705 0.105929 0.0
-0.0264607 0.0978333 0.0
-0.026078 0.08983 0.0
-0.0255554 0.0819607 0.0
-0.0248946 0.0742665 0.0
-0.0240995 0.0667867 0.0
-0.0231758 0.059559 0.0
-0.0221301 0.0526189 0.0
-0.0209696 0.0459998 0.0
-0.0197013 0.0397327 0.0
-0.0183322 0.0338464 0.0
-0.016869 0.0283675 0.0
-0.0153181 0.0233206 0.0
-0.0136866 0.018728 0.0
-0.0119827 0.0146094 0.0
-0.0102179 0.010982 0.0
-0.00840881 0.00785929 0.0
-0.00658175 0.0052511 0.0
-0.00477777 0.0031631 0.0
-0.00306091 0.00159184 0.0
-0.00152619 0.000533312 0.0
-0.000317651 6.62587e-05 0.0
0.765817 0.0125982 0.0
0.408386 0.0557131 0.0
0.182878 0.114551 0.0
0.0527203 0.162663 0.0
-0.0171266 0.197844 0.0
-0.0503202 0.220725 0.0
-0.0631264 0.234143 0.0
-0.0652557 0.240864 0.0
-0.0622581 0.243022 0.0
-0.0572132 0.24215 0.0
-0.0517686 0.239293 0.0
-0.0467499 0.235137 0.0
-0.0425187 0.230114 0.0
-0.0391806 0.224486 0.0
-0.0367056 0.218405 0.0
-0.0349977 0.211955 0.0
-0.0339336 0.205182 0.0
-0.033384 0.198107 0.0
-0.0332252 0.190748 0.0
-0.0333448 0.183117 0.0
-0.0336434 0.175232 0.0
-0.0340357 0.167115 0.0
-0.03445 0.158793 0.0
-0.0348276 0.150299 0.0
-0.0351213 0.141673 0.0
-0.0352948 0.132956 0.0
-0.0353212 0.124193 0.0
-0.0351819 0.115431 0.0
-0.0348654 0.106718 0.0
-0.0343662 0.0980998 0.0
-0.0336838 0.0896228 0.0
-0.0328212 0.0813312 0.0
-0.0317844 0.0732671 0.0
-0.0305814 0.06547 0.0
-0.0292211 0.0579771 0.0
-0.0277131 0.0508228 0.0
-0.0260668 0.0440388 0.0
-0.0242914 0.0376548 0.0
-0.022396 0.0316977 0.0
-0.0203891 0.0261924 0.0
-0.0182802 0.0211616 0.0
-0.0160801 0.0166259 0.0
-0.0138029 0.0126034 0.0
-0.0114685 0.00910978 0.0
-0.00910657 0.00615848 0.0
-0.00676108 0.00376157 0.0
-0.00449746 0.00192469 0.0
-0.00240855 0.00065925 0.0
-0.000627971 8.61196e-05 0.0
0.792857 0.00861024 0.0
0.458447 0.0436318 0.0
0.233362 0.0954049 0.0
0.0943792 0.141109 0.0
0.0137223 0.177361 0.0
-0.0298206 0.203862 0.0
-0.0505934 0.221548 0.0
-0.0585214 0.232565 0.0
-0.0596146 0.238666 0.0
-0.0574109 0.241215 0.0
-0.0539339 0.241211 0.0
-0.050293 0.239362 0.0
-0.0470527 0.236151 0.0
-0.044458 0.231905 0.0
-0.0425711 0.226842 0.0
-0.0413545 0.221105 0.0
-0.0407199 0.214793 0.0
-0.0405576 0.207975 0.0
-0.0407527 0.200706 0.0
-0.0411953 0.193031 0.0
-0.0417847 0.184994 0.0
-0.0424325 0.176641 0.0
-0.0430632 0.168017 0.0
-0.0436141 0.159172 0.0
-0.044035 0.150156 0.0
-0.0442871 0.141024 0.0
-0.0443422 0.131829 0.0
-0.0441813 0.122625 0.0
-0.0437934 0.113465 0.0
-0.0431742 0.104402 0.0
-0.042325 0.0954834 0.0
-0.0412512 0.0867576 0.0
-0.0399615 0.078268 0.0
-0.0384665 0.0700557 0.0
-0.0367781 0.0621585 0.0
-0.0349085 0.0546109 0.0
-0.0328698 0.0474449 0.0
-0.0306739 0.0406897 0.0
-0.0283317 0.0343721 0.0
-0.0258544 0.0285167 0.0
-0.0232532 0.0231463 0.0
-0.020541 0.0182818 0.0
-0.0177339 0.0139425 0.0
-0.0148535 0.0101467 0.0
-0.0119305 0.00691216 0.0
-0.00900864 0.00425782 0.0
-0.00615051 0.0021989 0.0
-0.00344135 0.00076133 0.0
-0.000998385 0.000101518 0.0
0.813869 0.00615945 0.0
0.500937 0.0350703 0.0
0.279185 0.0805999 0.0
0.134722 0.123326 0.0
0.045732 0.159314 0.0
-0.00630278 0.18755 0.0
-0.0344659 0.20814 0.0
-0.0481755 0.222338 0.0
-0.0536357 0.23156 0.0
-0.0546859 0.236965 0.0
-0.0536331 0.23946 0.0
-0.0518178 0.239722 0.0
-0.0499801 0.238246 0.0
-0.0484927 0.235388 0.0
-0.0475075 0.231404 0.0
-0.0470476 0.226479 0.0
-0.0470643 0.220751 0.0
-0.0474721 0.214326 0.0
-0.0481706 0.20729 0.0
-0.0490571 0.199718 0.0
-0.0500342 0.191679 0.0
-0.0510139 0.183238 0.0
-0.05192 0.17446 0.0
-0.0526889 0.16541 0.0
-0.0532695 0.156153 0.0
-0.0536229 0.146751 0.0
-0.0537212 0.137268 0.0
-0.0535465 0.127765 0.0
-0.0530897 0.118301 0.0
-0.0523491 0.108933 0.0
-0.0513287 0.0997129 0.0
-0.0500373 0.0906902 0.0
-0.0484869 0.0819101 0.0
-0.0466916 0.0734143 0.0
-0.0446665 0.0652405 0.0
-0.0424271 0.0574231 0.0
-0.0399883 0.0499933 0.0
-0.0373645 0.0429793 0.0
-0.0345692 0.036407 0.0
-0.0316151 0.0303004 0.0
-0.0285153 0.0246818 0.0
-0.0252838 0.0195723 0.0
-0.0219377 0.0149927 0.0
-0.0184986 0.0109635 0.0
-0.0149961 0.00750705 0.0
-0.0114711 0.00464915 0.0
-0.00797947 0.00241402 0.0
-0.00459529 0.000840354 0.0
-0.001416 0.000112992 0.0
0.830729 0.00461294 0.0
0.537377 0.0288686 0.0
0.320645 0.0690403 0.0
0.17315 0.108655 0.0
0.0779132 0.14362 0.0
0.0189981 0.172381 0.0
-0.0158628 0.194798 0.0
-0.035125 0.211274 0.0
-0.0450074 0.222881 0.0
-0.0495249 0.230586 0.0
-0.0511871 0.23518 0.0
-0.0515144 0.237286 0.0
-0.0513921 0.237382 0.0
-0.0513037 0.23583 0.0
-0.0514824 0.232904 0.0
-0.0520091 0.228812 0.0
-0.0528746 0.223721 0.0
-0.0540201 0.217762 0.0
-0.0553618 0.211048 0.0
-0.0568075 0.203677 0.0
-0.0582656 0.19574 0.0
-0.0596517 0.187321 0.0
-0.0608915 0.178501 0.0
-0.0619227 0.16936 0.0
-0.0626957 0.159974 0.0
-0.063173 0.150417 0.0
-0.063329 0.140763 0.0
-0.0631487 0.131078 0.0
-0.0626261 0.121427 0.0
-0.0617634 0.111871 0.0
-0.0605686 0.102466 0.0
-0.0590547 0.0932622 0.0
-0.057238 0.0843063 0.0
-0.0551367 0.07564 0.0
-0.0527698 0.0673005 0.0
-0.0501562 0.0593212 0.0
-0.0473141 0.0517318 0.0
-0.0442604 0.0445594 0.0
-0.0410108 0.0378283 0.0
-0.0375798 0.0315612 0.0
-0.0339814 0.0257797 0.0
-0.0302301 0.020505 0.0
-0.0263425 0.0157587 0.0
-0.0223388 0.0115637 0.0
-0.0182456 0.00794629 0.0
-0.0140982 0.00493861 0.0
-0.0099435 0.0025728 0.0
-0.00584169 0.000898142 0.0
-0.00186893 0.000121127 0.0
0.844631 0.00360404 0.0
0.568962 0.0242704 0.0
0.358169 0.0599078 0.0
0.20938 0.0965191 0.0
0.109501 0.130073 0.0
0.0448855 0.158708 0.0
0.00439018 0.181959 0.0
-0.020106 0.200016 0.0
-0.034335 0.213394 0.0
-0.0423978 0.222894 0.0
-0.0469412 0.229197 0.0
-0.0496216 0.232859 0.0
-0.0514408 0.234325 0.0
-0.052975 0.233948 0.0
-0.0545279 0.232004 0.0
-0.0562323 0.228715 0.0
-0.0581161 0.224262 0.0
-0.0601462 0.218796 0.0
-0.0622565 0.212448 0.0
-0.0643663 0.205336 0.0
-0.0663919 0.197568 0.0
-0.0682539 0.189245 0.0
-0.069882 0.180462 0.0
-0.0712171 0.171314 0.0
-0.0722127 0.161887 0.0
-0.0728349 0.152266 0.0
-0.073062 0.142531 0.0
-0.072883 0.132758 0.0
-0.072297 0.123016 0.0
-0.071311 0.11337 0.0
-0.0699385 0.103877 0.0
-0.0681976 0.0945906 0.0
-0.0661097 0.0855573 0.0
-0.063698 0.0768184 0.0
-0.0609858 0.0684101 0.0
-0.0579961 0.0603642 0.0
-0.0547504 0.0527088 0.0
-0.0512684 0.0454686 0.0
-0.0475675 0.0386663 0.0
-0.0436637 0.0323228 0.0
-0.0395715 0.0264585 0.0
-0.0353049 0.021094 0.0
-0.0308788 0.0162517 0.0
-0.0263107 0.0119562 0.0
-0.0216221 0.00823725 0.0
-0.0168409 0.00513205 0.0
-0.0120032 0.00267935 0.0
-0.00715358 0.000936808 0.0
-0.00234657 0.000126459 0.0
0.856359 0.00291948 0.0
0.596628 0.020776 0.0
0.392214 0.052587 0.0
0.243377 0.086398 0.0
0.140133 0.118358 0.0
0.0708475 0.146452 0.0
0.0254646 0.169964 0.0
-0.00372738 0.188933 0.0
-0.022136 0.203584 0.0
-0.033729 0.214443 0.0
-0.0412293 0.222096 0.0
-0.046391 0.227031 0.0
-0.0503066 0.229654 0.0
-0.0536278 0.230297 0.0
-0.0567175 0.229231 0.0
-0.0597531 0.226678 0.0
-0.0627955 0.222829 0.0
-0.0658351 0.217846 0.0
-0.0688225 0.211875 0.0
-0.0716888 0.205047 0.0
-0.0743584 0.197485 0.0
-0.0767585 0.189303 0.0
-0.0788236 0.180612 0.0
-0.0804996 0.171515 0.0
-0.0817444 0.162111 0.0
-0.0825292 0.152495 0.0
-0.0828376 0.142753 0.0
-0.0826646 0.132967 0.0
-0.0820154 0.123213 0.0
-0.0809034 0.113556 0.0
-0.0793484 0.104059 0.0
-0.0773751 0.0947748 0.0
-0.0750109 0.0857495 0.0
-0.0722845 0.077024 0.0
-0.0692244 0.068633 0.0
-0.0658578 0.0606062 0.0
-0.06221 0.0529692 0.0
-0.0583032 0.0457444 0.0
-0.0541568 0.0389518 0.0
-0.0497877 0.0326103 0.0
-0.0452101 0.0267385 0.0
-0.0404368 0.0213562 0.0
-0.0354801 0.0164855 0.0
-0.030353 0.0121524 0.0
-0.0250708 0.00838889 0.0
-0.0196524 0.00523616 0.0
-0.0141213 0.00273803 0.0
-0.00850611 0.000958366 0.0
-0.00283951 0.00012943 0.0
0.866439 0.00243485 0.0
0.621095 0.0180542 0.0
0.423208 0.0466261 0.0
0.275203 0.0778718 0.0
0.16959 0.108178 0.0
0.096484 0.135475 0.0
0.0468552 0.158877 0.0
0.013522 0.178236 0.0
-0.00884347 0.193735 0.0
-0.0238901 0.205592 0.0
-0.0343582 0.214278 0.0
-0.0420668 0.220225 0.0
-0.0481775 0.223796 0.0
-0.0534012 0.225296 0.0
-0.058149 0.224985 0.0
-0.0626355 0.223082 0.0
-0.0669493 0.219778 0.0
-0.0711013 0.215244 0.0
-0.0750568 0.209634 0.0
-0.0787578 0.20309 0.0
-0.082137 0.195746 0.0
-0.085128 0.18773 0.0
-0.0876715 0.179162 0.0
-0.0897187 0.170157 0.0
-0.0912338 0.160823 0.0
-0.0921942 0.151262 0.0
-0.0925902 0.14157 0.0
-0.0924242 0.131834 0.0
-0.0917088 0.122132 0.0
-0.0904651 0.112534 0.0
-0.0887209 0.103104 0.0
-0.0865081 0.0938955 0.0
-0.0838611 0.0849541 0.0
-0.080815 0.0763191 0.0
-0.0774041 0.0680233 0.0
-0.0736603 0.0600937 0.0
-0.0696125 0.052553 0.0
-0.065286 0.0454206 0.0
-0.0607018 0.0387135 0.0
-0.0558771 0.0324479 0.0
-0.0508256 0.0266402 0.0
-0.0455578 0.0213085 0.0
-0.0400825 0.0164743 0.0
-0.0344071 0.0121636 0.0
-0.0285394 0.00841008 0.0
-0.022488 0.00525736 0.0
-0.0162632 0.0027528 0.0
-0.0098765 0.000964536 0.0
-0.0033394 0.000130378 0.0
0.875234 0.00207676 0.0
0.64292 0.0158829 0.0
0.451526 0.0416937 0.0
0.304971 0.0706068 0.0
0.197766 0.0992686 0.0
0.121544 0.125615 0.0
0.0682218 0.148654 0.0
0.0311358 0.168094 0.0
0.00521626 0.183998 0.0
-0.0131868 0.196559 0.0
-0.0265968 0.206008 0.0
-0.0368756 0.212731 0.0
-0.0452375 0.217051 0.0
-0.0524404 0.219248 0.0
-0.0589335 0.219563 0.0
-0.064961 0.21821 0.0
-0.0706342 0.215378 0.0
-0.0759805 0.21124 0.0
-0.0809779 0.205957 0.0
-0.0855774 0.199679 0.0
-0.0897194 0.192548 0.0
-0.0933442 0.184704 0.0
-0.0963984 0.176275 0.0
-0.0988399 0.167386 0.0
-0.10064 0.158154 0.0
-0.101783 0.148689 0.0
-0.102267 0.139092 0.0
-0.102104 0.129455 0.0
-0.101316 0.119861 0.0
-0.0999313 0.110383 0.0
-0.0979879 0.101083 0.0
-0.0955259 0.0920167 0.0
-0.0925878 0.0832279 0.0
-0.0892157 0.0747541 0.0
-0.0854502 0.0666253 0.0
-0.0813284 0.0588656 0.0
-0.0768833 0.0514941 0.0
-0.0721428 0.0445266 0.0
-0.0671296 0.0379767 0.0
-0.0618611 0.0318573 0.0
-0.0563495 0.0261819 0.0
-0.0506027 0.0209664 0.0
-0.0446248 0.0162306 0.0
-0.0384169 0.0120001 0.0
-0.0319781 0.00830869 0.0
-0.0253059 0.00520117 0.0
-0.0183963 0.00272695 0.0
-0.0112437 0.00095666 0.0
-0.00383872 0.000129543 0.0
0.882999 0.00180106 0.0
0.662531 0.0141102 0.0
0.477488 0.0375443 0.0
0.332812 0.0643378 0.0
0.224622 0.0913975 0.0
0.145868 0.116704 0.0
0.0893331 0.139202 0.0
0.0488576 0.158495 0.0
0.0196334 0.17454 0.0
-0.00189645 0.187478 0.0
-0.0181854 0.197458 0.0
-0.0310249 0.204742 0.0
-0.0416622 0.209627 0.0
-0.0508906 0.212363 0.0
-0.0591881 0.213175 0.0
-0.0668217 0.212266 0.0
-0.0739201 0.209822 0.0
-0.0805236 0.206016 0.0
-0.0866198 0.201012 0.0
-0.0921673 0.194967 0.0
-0.097113 0.188032 0.0
-0.101403 0.180352 0.0
-0.104991 0.172066 0.0
-0.107841 0.163308 0.0
-0.109932 0.154201 0.0
-0.111257 0.144861 0.0
-0.111825 0.135397 0.0
-0.111656 0.125904 0.0
-0.110782 0.116467 0.0
-0.109244 0.107161 0.0
-0.107088 0.0980503 0.0
-0.104364 0.0891871 0.0
-0.101124 0.0806151 0.0
-0.097418 0.0723687 0.0
-0.0932929 0.0644749 0.0
-0.0887917 0.0569538 0.0
-0.0839516 0.0498207 0.0
-0.0788034 0.0430873 0.0
-0.0733711 0.0367631 0.0
-0.067672 0.0308572 0.0
-0.0617164 0.0253795 0.0
-0.055509 0.0203432 0.0
-0.0490485 0.0157655 0.0
-0.0423288 0.0116706 0.0
-0.0353395 0.00809116 0.0
-0.0280661 0.00507197 0.0
-0.02049 0.00266298 0.0
-0.0125882 0.000935697 0.0
-0.00433058 0.000127075 0.0
0.889917 0.00158044 0.0
0.680257 0.0126298 0.0
0.501361 0.033994 0.0
0.358853 0.0588541 0.0
0.250152 0.0843677 0.0
0.169348 0.108582 0.0
0.110013 0.13041 0.0
0.0664732 0.149378 0.0
0.0341879 0.16536 0.0
0.00973861 0.178422 0.0
-0.00933766 0.188717 0.0
-0.0247053 0.196372 0.0
-0.0376175 0.20165 0.0
-0.0488932 0.204776 0.0
-0.0590312 0.205956 0.0
-0.068315 0.205383 0.0
-0.0768852 0.203238 0.0
-0.0847913 0.199692 0.0
-0.0920276 0.194911 0.0
-0.0985583 0.189059 0.0
-0.104336 0.182291 0.0
-0.109311 0.174761 0.0
-0.113444 0.166615 0.0
-0.116707 0.157993 0.0
-0.119087 0.149027 0.0
-0.120587 0.139838 0.0
-0.121226 0.130539 0.0
-0.121035 0.121229 0.0
-0.120059 0.111994 0.0
-0.118349 0.102912 0.0
-0.115963 0.0940445 0.0
-0.112962 0.0854434 0.0
-0.109407 0.0771496 0.0
-0.105356 0.0691943 0.0
-0.100865 0.0616005 0.0
-0.0959828 0.0543843 0.0
-0.0907499 0.0475563 0.0
-0.0852005 0.0411235 0.0
-0.0793598 0.035091 0.0
-0.0732446 0.0294634 0.0
-0.0668634 0.0242467 0.0
-0.0602166 0.0194501 0.0
-0.0532971 0.0150881 0.0
-0.0460911 0.011182 0.0
-0.0385778 0.00776253 0.0
-0.0307305 0.00487302 0.0
-0.0225153 0.00256264 0.0
-0.0138915 0.00090226 0.0
-0.00480846 0.000123052 0.0
0.896121 0.00139746 0.0
0.696355 0.011366 0.0
0.523362 0.0309028 0.0
0.383209 0.0539869 0.0
0.274366 0.0780114 0.0
0.191909 0.101104 0.0
0.13013 0.122165 0.0
0.0838105 0.140668 0.0
0.0486805 0.156425 0.0
0.0214633 0.169438 0.0
-0.000243971 0.17982 0.0
-0.0180896 0.187679 0.0
-0.0332582 0.193189 0.0
-0.0465845 0.196563 0.0
-0.058581 0.197986 0.0
-0.069541 0.197641 0.0
-0.0796127 0.195701 0.0
-0.0888508 0.192339 0.0
-0.0972534 0.187721 0.0
-0.104789 0.182014 0.0
-0.111412 0.17538 0.0
-0.117081 0.167979 0.0
-0.12176 0.159965 0.0
-0.12543 0.151482 0.0
-0.128087 0.14267 0.0
-0.129746 0.133655 0.0
-0.130436 0.124551 0.0
-0.130201 0.115461 0.0
-0.129099 0.106474 0.0