# vtk DataFile Version 3.0
Malha 2D com triângulos e temperatura
ASCII
DATASET UNSTRUCTURED_GRID

POINTS 2500 double
0 0 0
1 0 0
1 1 0
0 1 0
0.0204082 0 0
0.0408163 0 0
0.0612245 0 0
0.0816327 0 0
0.102041 0 0
0.122449 0 0
0.142857 0 0
0.163265 0 0
0.183673 0 0
0.204082 0 0
0.22449 0 0
0.244898 0 0
0.265306 0 0
0.285714 0 0
0.306122 0 0
0.326531 0 0
0.346939 0 0
0.367347 0 0
0.387755 0 0
0.408163 0 0
0.428571 0 0
0.44898 0 0
0.469388 0 0
0.489796 0 0
0.510204 0 0
0.530612 0 0
0.55102 0 0
0.571429 0 0
0.591837 0 0
0.612245 0 0
0.632653 0 0
0.653061 0 0
0.673469 0 0
0.693878 0 0
0.714286 0 0
0.734694 0 0
0.755102 0 0
0.77551 0 0
0.795918 0 0
0.816327 0 0
0.836735 0 0
0.857143 0 0
0.877551 0 0
0.897959 0 0
0.918367 0 0
0.938776 0 0
0.959184 0 0
0.979592 0 0
1 0.0204082 0
1 0.0408163 0
1 0.0612245 0
1 0.0816327 0
1 0.102041 0
1 0.122449 0
1 0.142857 0
1 0.163265 0
1 0.183673 0
1 0.204082 0
1 0.22449 0
1 0.244898 0
1 0.265306 0
1 0.285714 0
1 0.306122 0
1 0.326531 0
1 0.346939 0
1 0.367347 0
1 0.387755 0
1 0.408163 0
1 0.428571 0
1 0.44898 0
1 0.469388 0
1 0.489796 0
1 0.510204 0
1 0.530612 0
1 0.55102 0
1 0.571429 0
1 0.591837 0
1 0.612245 0
1 0.632653 0
1 0.653061 0
1 0.673469 0
1 0.693878 0
1 0.714286 0
1 0.734694 0
1 0.755102 0
1 0.77551 0
1 0.795918 0
1 0.816327 0
1 0.836735 0
1 0.857143 0
1 0.877551 0
1 0.897959 0
1 0.918367 0
1 0.938776 0
1 0.959184 0
1 0.979592 0
0.979592 1 0
0.959184 1 0
0.938776 1 0
0.918367 1 0
0.897959 1 0
0.877551 1 0
0.857143 1 0
0.836735 1 0
0.816327 1 0
0.795918 1 0
0.77551 1 0
0.755102 1 0
0.734694 1 0
0.714286 1 0
0.693878 1 0
0.673469 1 0
0.653061 1 0
0.632653 1 0
0.612245 1 0
0.591837 1 0
0.571429 1 0
0.55102 1 0
0.530612 1 0
0.510204 1 0
0.489796 1 0
0.469388 1 0
0.44898 1 0
0.428571 1 0
0.408163 1 0
0.387755 1 0
0.367347 1 0
0.346939 1 0
0.326531 1 0
0.306122 1 0
0.285714 1 0
0.265306 1 0
0.244898 1 0
0.22449 1 0
0.204082 1 0
0.183673 1 0
0.163265 1 0
0.142857 1 0
0.122449 1 0
0.102041 1 0
0.0816327 1 0
0.0612245 1 0
0.0408163 1 0
0.0204082 1 0
0 0.979592 0
0 0.959184 0
0 0.938776 0
0 0.918367 0
0 0.897959 0
0 0.877551 0
0 0.857143 0
0 0.836735 0
0 0.816327 0
0 0.795918 0
0 0.77551 0
0 0.755102 0
0 0.734694 0
0 0.714286 0
0 0.693878 0
0 0.673469 0
0 0.653061 0
0 0.632653 0
0 0.612245 0
0 0.591837 0
0 0.571429 0
0 0.55102 0
0 0.530612 0
0 0.510204 0
0 0.489796 0
0 0.469388 0
0 0.44898 0
0 0.428571 0
0 0.408163 0
0 0.387755 0
0 0.367347 0
0 0.346939 0
0 0.326531 0
0 0.306122 0
0 0.285714 0
0 0.265306 0
0 0.244898 0
0 0.22449 0
0 0.204082 0
0 0.183673 0
0 0.163265 0
0 0.142857 0
0 0.122449 0
0 0.102041 0
0 0.0816327 0
0 0.0612245 0
0 0.0408163 0
0 0.0204082 0
0.0204082 0.979592 0
0.0204082 0.959184 0
0.0204082 0.938776 0
0.0204082 0.918367 0
0.0204082 0.897959 0
0.0204082 0.877551 0
0.0204082 0.857143 0
0.0204082 0.836735 0
0.0204082 0.816327 0
0.0204082 0.795918 0
0.0204082 0.77551 0
0.0204082 0.755102 0
0.0204082 0.734694 0
0.0204082 0.714286 0
0.0204082 0.693878 0
0.0204082 0.673469 0
0.0204082 0.653061 0
0.0204082 0.632653 0
0.0204082 0.612245 0
0.0204082 0.591837 0
0.0204082 0.571429 0
0.0204082 0.55102 0
0.0204082 0.530612 0
0.0204082 0.510204 0
0.0204082 0.489796 0
0.0204082 0.469388 0
0.0204082 0.44898 0
0.0204082 0.428571 0
0.0204082 0.408163 0
0.0204082 0.387755 0
0.0204082 0.367347 0
0.0204082 0.346939 0
0.0204082 0.326531 0
0.0204082 0.306122 0
0.0204082 0.285714 0
0.0204082 0.265306 0
0.0204082 0.244898 0
0.0204082 0.22449 0
0.0204082 0.204082 0
0.0204082 0.183673 0
0.0204082 0.163265 0
0.0204082 0.142857 0
0.0204082 0.122449 0
0.0204082 0.102041 0
0.0204082 0.0816327 0
0.0204082 0.0612245 0
0.0204082 0.0408163 0
0.0204082 0.0204082 0
0.0408163 0.979592 0
0.0408163 0.959184 0
0.0408163 0.938776 0
0.0408163 0.918367 0
0.0408163 0.897959 0
0.0408163 0.877551 0
0.0408163 0.857143 0
0.0408163 0.836735 0
0.0408163 0.816327 0
0.0408163 0.795918 0
0.0408163 0.77551 0
0.0408163 0.755102 0
0.0408163 0.734694 0
0.0408163 0.714286 0
0.0408163 0.693878 0
0.0408163 0.673469 0
0.0408163 0.653061 0
0.0408163 0.632653 0
0.0408163 0.612245 0
0.0408163 0.591837 0
0.0408163 0.571429 0
0.0408163 0.55102 0
0.0408163 0.530612 0
0.0408163 0.510204 0
0.0408163 0.489796 0
0.0408163 0.469388 0
0.0408163 0.44898 0
0.0408163 0.428571 0
0.0408163 0.408163 0
0.0408163 0.387755 0
0.0408163 0.367347 0
0.0408163 0.346939 0
0.0408163 0.326531 0
0.0408163 0.306122 0
0.0408163 0.285714 0
0.0408163 0.265306 0
0.0408163 0.244898 0
0.0408163 0.22449 0
0.0408163 0.204082 0
0.0408163 0.183673 0
0.0408163 0.163265 0
0.0408163 0.142857 0
0.0408163 0.122449 0
0.0408163 0.102041 0
0.0408163 0.0816327 0
0.0408163 0.0612245 0
0.0408163 0.0408163 0
0.0408163 0.0204082 0
0.0612245 0.979592 0
0.0612245 0.959184 0
0.0612245 0.938776 0
0.0612245 0.918367 0
0.0612245 0.897959 0
0.0612245 0.877551 0
0.0612245 0.857143 0
0.0612245 0.836735 0
0.0612245 0.816327 0
0.0612245 0.795918 0
0.0612245 0.77551 0
0.0612245 0.755102 0
0.0612245 0.734694 0
0.0612245 0.714286 0
0.0612245 0.693878 0
0.0612245 0.673469 0
0.0612245 0.653061 0
0.0612245 0.632653 0
0.0612245 0.612245 0
0.0612245 0.591837 0
0.0612245 0.571429 0
0.0612245 0.55102 0
0.0612245 0.530612 0
0.0612245 0.510204 0
0.0612245 0.489796 0
0.0612245 0.469388 0
0.0612245 0.44898 0
0.0612245 0.428571 0
0.0612245 0.408163 0
0.0612245 0.387755 0
0.0612245 0.367347 0
0.0612245 0.346939 0
0.0612245 0.326531 0
0.0612245 0.306122 0
0.0612245 0.285714 0
0.0612245 0.265306 0
0.0612245 0.244898 0
0.0612245 0.22449 0
0.0612245 0.204082 0
0.0612245 0.183673 0
0.0612245 0.163265 0
0.0612245 0.142857 0
0.0612245 0.122449 0
0.0612245 0.102041 0
0.0612245 0.0816327 0
0.0612245 0.0612245 0
0.0612245 0.0408163 0
0.0612245 0.0204082 0
0.0816327 0.979592 0
0.0816327 0.959184 0
0.0816327 0.938776 0
0.0816327 0.918367 0
0.0816327 0.897959 0
0.0816327 0.877551 0
0.0816327 0.857143 0
0.0816327 0.836735 0
0.0816327 0.816327 0
0.0816327 0.795918 0
0.0816327 0.77551 0
0.0816327 0.755102 0
0.0816327 0.734694 0
0.0816327 0.714286 0
0.0816327 0.693878 0
0.0816327 0.673469 0
0.0816327 0.653061 0
0.0816327 0.632653 0
0.0816327 0.612245 0
0.0816327 0.591837 0
0.0816327 0.571429 0
0.0816327 0.55102 0
0.0816327 0.530612 0
0.0816327 0.510204 0
0.0816327 0.489796 0
0.0816327 0.469388 0
0.0816327 0.44898 0
0.0816327 0.428571 0
0.0816327 0.408163 0
0.0816327 0.387755 0
0.0816327 0.367347 0
0.0816327 0.346939 0
0.0816327 0.326531 0
0.0816327 0.306122 0
0.0816327 0.285714 0
0.0816327 0.265306 0
0.0816327 0.244898 0
0.0816327 0.22449 0
0.0816327 0.204082 0
0.0816327 0.183673 0
0.0816327 0.163265 0
0.0816327 0.142857 0
0.0816327 0.122449 0
0.0816327 0.102041 0
0.0816327 0.0816327 0
0.0816327 0.0612245 0
0.0816327 0.0408163 0
0.0816327 0.0204082 0
0.102041 0.979592 0
0.102041 0.959184 0
0.102041 0.938776 0
0.102041 0.918367 0
0.102041 0.897959 0
0.102041 0.877551 0
0.102041 0.857143 0
0.102041 0.836735 0
0.102041 0.816327 0
0.102041 0.795918 0
0.102041 0.77551 0
0.102041 0.755102 0
0.102041 0.734694 0
0.102041 0.714286 0
0.102041 0.693878 0
0.102041 0.673469 0
0.102041 0.653061 0
0.102041 0.632653 0
0.102041 0.612245 0
0.102041 0.591837 0
0.102041 0.571429 0
0.102041 0.55102 0
0.102041 0.530612 0
0.102041 0.510204 0
0.102041 0.489796 0
0.102041 0.469388 0
0.102041 0.44898 0
0.102041 0.428571 0
0.102041 0.408163 0
0.102041 0.387755 0
0.102041 0.367347 0
0.102041 0.346939 0
0.102041 0.326531 0
0.102041 0.306122 0
0.102041 0.285714 0
0.102041 0.265306 0
0.102041 0.244898 0
0.102041 0.22449 0
0.102041 0.204082 0
0.102041 0.183673 0
0.102041 0.163265 0
0.102041 0.142857 0
0.102041 0.122449 0
0.102041 0.102041 0
0.102041 0.0816327 0
0.102041 0.0612245 0
0.102041 0.0408163 0
0.102041 0.0204082 0
0.122449 0.979592 0
0.122449 0.959184 0
0.122449 0.938776 0
0.122449 0.918367 0
0.122449 0.897959 0
0.122449 0.877551 0
0.122449 0.857143 0
0.122449 0.836735 0
0.122449 0.816327 0
0.122449 0.795918 0
0.122449 0.77551 0
0.122449 0.755102 0
0.122449 0.734694 0
0.122449 0.714286 0
0.122449 0.693878 0
0.122449 0.673469 0
0.122449 0.653061 0
0.122449 0.632653 0
0.122449 0.612245 0
0.122449 0.591837 0
0.122449 0.571429 0
0.122449 0.55102 0
0.122449 0.530612 0
0.122449 0.510204 0
0.122449 0.489796 0
0.122449 0.469388 0
0.122449 0.44898 0
0.122449 0.428571 0
0.122449 0.408163 0
0.122449 0.387755 0
0.122449 0.367347 0
0.122449 0.346939 0
0.122449 0.326531 0
0.122449 0.306122 0
0.122449 0.285714 0
0.122449 0.265306 0
0.122449 0.244898 0
0.122449 0.22449 0
0.122449 0.204082 0
0.122449 0.183673 0
0.122449 0.163265 0
0.122449 0.142857 0
0.122449 0.122449 0
0.122449 0.102041 0
0.122449 0.0816327 0
0.122449 0.0612245 0
0.122449 0.0408163 0
0.122449 0.0204082 0
0.142857 0.979592 0
0.142857 0.959184 0
0.142857 0.938776 0
0.142857 0.918367 0
0.142857 0.897959 0
0.142857 0.877551 0
0.142857 0.857143 0
0.142857 0.836735 0
0.142857 0.816327 0
0.142857 0.795918 0
0.142857 0.77551 0
0.142857 0.755102 0
0.142857 0.734694 0
0.142857 0.714286 0
0.142857 0.693878 0
0.142857 0.673469 0
0.142857 0.653061 0
0.142857 0.632653 0
0.142857 0.612245 0
0.142857 0.591837 0
0.142857 0.571429 0
0.142857 0.55102 0
0.142857 0.530612 0
0.142857 0.510204 0
0.142857 0.489796 0
0.142857 0.469388 0
0.142857 0.44898 0
0.142857 0.428571 0
0.142857 0.408163 0
0.142857 0.387755 0
0.142857 0.367347 0
0.142857 0.346939 0
0.142857 0.326531 0
0.142857 0.306122 0
0.142857 0.285714 0
0.142857 0.265306 0
0.142857 0.244898 0
0.142857 0.22449 0
0.142857 0.204082 0
0.142857 0.183673 0
0.142857 0.163265 0
0.142857 0.142857 0
0.142857 0.122449 0
0.142857 0.102041 0
0.142857 0.0816327 0
0.142857 0.0612245 0
0.142857 0.0408163 0
0.142857 0.0204082 0
0.163265 0.979592 0
0.163265 0.959184 0
0.163265 0.938776 0
0.163265 0.918367 0
0.163265 0.897959 0
0.163265 0.877551 0
0.163265 0.857143 0
0.163265 0.836735 0
0.163265 0.816327 0
0.163265 0.795918 0
0.163265 0.77551 0
0.163265 0.755102 0
0.163265 0.734694 0
0.163265 0.714286 0
0.163265 0.693878 0
0.163265 0.673469 0
0.163265 0.653061 0
0.163265 0.632653 0
0.163265 0.612245 0
0.163265 0.591837 0
0.163265 0.571429 0
0.163265 0.55102 0
[...]
CELL_DATA 2401
VECTORS velocity double
0.257582 0.1573 0.0
-0.00263013 0.264434 0.0
-0.0322725 0.205441 0.0
-0.0253778 0.150535 0.0
-0.0160701 0.112986 0.0
-0.00971435 0.0876208 0.0
-0.00593684 0.0705429 0.0
-0.00374877 0.0588491 0.0
-0.0024627 0.050631 0.0
-0.00168307 0.0447013 0.0
-0.00119392 0.0403113 0.0
-0.000877738 0.0369757 0.0
-0.000669023 0.0343704 0.0
-0.000529792 0.0322727 0.0
-0.000437003 0.0305265 0.0
-0.000376046 0.0290203 0.0
-0.000337271 0.0276739 0.0
-0.000314071 0.0264291 0.0
-0.000301778 0.0252441 0.0
-0.000297004 0.0240894 0.0
-0.000297231 0.0229443 0.0
-0.000300551 0.0217956 0.0
-0.000305504 0.0206353 0.0
-0.000310963 0.0194598 0.0
-0.000316064 0.0182689 0.0
-0.000320154 0.0170648 0.0
-0.000322751 0.0158517 0.0
-0.000323519 0.0146354 0.0
-0.000322243 0.0134224 0.0
-0.000318805 0.0122199 0.0
-0.000313172 0.0110355 0.0
-0.000305371 0.00987662 0.0
-0.000295477 0.00875076 0.0
-0.000283596 0.00766506 0.0
-0.000269851 0.00662631 0.0
-0.000254368 0.00564094 0.0
-0.000237263 0.00471493 0.0
-0.000218627 0.00385395 0.0
-0.000198517 0.00306332 0.0
-0.000176944 0.00234817 0.0
-0.000153856 0.00171349 0.0
-0.00012913 0.00116426 0.0
-0.000102582 0.000705502 0.0
-7.40074e-05 0.000342195 0.0
-4.33596e-05 7.89104e-05 0.0
-1.12614e-05 -8.12693e-05 0.0
1.96829e-05 -0.00013917 0.0
4.21835e-05 -0.000108523 0.0
3.72091e-05 -3.7019e-05 0.0
0.340764 0.122966 0.0
-0.000671229 0.249466 0.0
-0.0652583 0.271643 0.0
-0.0632965 0.252127 0.0
-0.0485641 0.221583 0.0
-0.034995 0.191704 0.0
-0.024927 0.166293 0.0
-0.0178844 0.145846 0.0
-0.013025 0.129747 0.0
-0.00966268 0.117136 0.0
-0.00731884 0.107211 0.0
-0.00567462 0.0993055 0.0
-0.00451846 0.0928959 0.0
-0.00370808 0.0875776 0.0
-0.00314585 0.0830428 0.0
-0.00276332 0.0790582 0.0
-0.00251146 0.0754481 0.0
-0.00235446 0.0720815 0.0
-0.00226567 0.0688615 0.0
-0.00222493 0.0657182 0.0
-0.00221678 0.0626025 0.0
-0.00222925 0.0594821 0.0
-0.00225298 0.0563376 0.0
-0.00228068 0.0531603 0.0
-0.00230669 0.0499493 0.0
-0.0023267 0.0467103 0.0
-0.0023375 0.0434535 0.0
-0.00233679 0.040193 0.0
-0.00232304 0.036945 0.0
-0.00229539 0.0337276 0.0
-0.00225347 0.0305594 0.0
-0.00219731 0.0274595 0.0
-0.00212727 0.0244467 0.0
-0.00204392 0.0215391 0.0
-0.00194793 0.0187543 0.0
-0.00184004 0.0161087 0.0
-0.00172098 0.0136181 0.0
-0.00159137 0.0112972 0.0
-0.00145174 0.00915966 0.0
-0.00130246 0.00721876 0.0
-0.00114376 0.00548692 0.0
-0.000975774 0.00397591 0.0
-0.000798759 0.00269659 0.0
-0.000613507 0.00165831 0.0
-0.000422315 0.000867414 0.0
-0.000231118 0.000324625 0.0
-5.38483e-05 1.99249e-05 0.0
8.02207e-05 -7.85358e-05 0.0
0.000107955 -4.102e-05 0.0
0.500809 0.0768022 0.0
0.0989451 0.183193 0.0
-0.0394615 0.249166 0.0
-0.0735079 0.265656 0.0
-0.0719442 0.257353 0.0
-0.0606043 0.239583 0.0
-0.0483141 0.219614 0.0
-0.0377124 0.200732 0.0
-0.0292884 0.184143 0.0
-0.02284 0.170053 0.0
-0.0180005 0.158241 0.0
-0.0144159 0.148341 0.0
-0.0117916 0.139966 0.0
-0.00989589 0.132763 0.0
-0.00855064 0.126432 0.0
-0.00761971 0.120729 0.0
-0.00699899 0.115458 0.0
-0.00660846 0.110467 0.0
-0.00638615 0.105642 0.0
-0.0062837 0.100897 0.0
-0.00626313 0.0961729 0.0
-0.00629445 0.0914305 0.0
-0.00635394 0.0866468 0.0
-0.00642292 0.0818126 0.0
-0.00648678 0.0769293 0.0
-0.00653431 0.0720065 0.0
-0.00655711 0.0670604 0.0
-0.00654916 0.0621119 0.0
-0.00650642 0.0571851 0.0
-0.00642649 0.0523061 0.0
-0.00630834 0.0475024 0.0
-0.00615197 0.0428016 0.0
-0.00595819 0.038231 0.0
-0.00572836 0.0338172 0.0
-0.00546421 0.0295858 0.0
-0.00516763 0.0255609 0.0
-0.0048405 0.0217655 0.0
-0.0044846 0.018221 0.0
-0.00410151 0.0149478 0.0
-0.00369261 0.0119647 0.0
-0.00325918 0.00928928 0.0
-0.00280266 0.00693772 0.0
-0.00232526 0.00492409 0.0
-0.0018311 0.00325938 0.0
-0.00132834 0.00194968 0.0
-0.000833331 0.000993092 0.0
-0.000377786 0.000373899 0.0
-1.88481e-05 5.50819e-05 0.0
0.000136155 -1.77002e-05 0.0
0.609974 0.0480478 0.0
0.195539 0.133935 0.0
0.0112343 0.209377 0.0
-0.0581569 0.246422 0.0
-0.0761297 0.25699 0.0
-0.0737082 0.253601 0.0
-0.0643588 0.24344 0.0
-0.0537046 0.230753 0.0
-0.0439259 0.217791 0.0
-0.0357136 0.205603 0.0
-0.0291374 0.194575 0.0
-0.0240317 0.184746 0.0
-0.0201626 0.175995 0.0
-0.0172971 0.168134 0.0
-0.0152283 0.160964 0.0
-0.013782 0.1543 0.0
-0.0128149 0.147984 0.0
-0.0122107 0.141884 0.0
-0.0118754 0.135898 0.0
-0.0117333 0.129948 0.0
-0.0117231 0.123981 0.0
-0.0117959 0.117962 0.0
-0.011912 0.111873 0.0
-0.01204 0.10571 0.0
-0.0121552 0.0994794 0.0
-0.0122383 0.0931969 0.0
-0.0122751 0.0868848 0.0
-0.0122551 0.0805707 0.0
-0.0121715 0.0742853 0.0
-0.0120202 0.0680617 0.0
-0.0117993 0.0619338 0.0
-0.0115089 0.0559359 0.0
-0.0111505 0.0501017 0.0
-0.0107264 0.0444638 0.0
-0.0102398 0.0390537 0.0
-0.00969389 0.0339011 0.0
-0.00909221 0.029034 0.0
-0.00843806 0.0244788 0.0
-0.00773459 0.0202602 0.0
-0.00698476 0.016401 0.0
-0.00619165 0.0129221 0.0
-0.00535893 0.00984225 0.0
-0.00449193 0.00717736 0.0
-0.00359944 0.00493924 0.0
-0.00269688 0.00313401 0.0
-0.0018116 0.00175957 0.0
-0.00099167 0.000799856 0.0
-0.000316532 0.000222986 0.0
7.71408e-05 1.27204e-05 0.0
0.680355 0.0301695 0.0
0.278311 0.0981796 0.0
0.0694664 0.170973 0.0
-0.0275813 0.217528 0.0
-0.0652611 0.241047 0.0
-0.074575 0.249614 0.0
-0.0713904 0.249151 0.0
-0.063474 0.243756 0.0
-0.0544946 0.235999 0.0
-0.046084 0.227366 0.0
-0.0388707 0.218652 0.0
-0.0330024 0.21023 0.0
-0.0284084 0.202228 0.0
-0.0249305 0.194643 0.0
-0.0223873 0.187408 0.0
-0.0206028 0.18043 0.0
-0.0194191 0.173613 0.0
-0.0186993 0.166872 0.0
-0.0183273 0.160137 0.0
-0.0182062 0.153353 0.0
-0.0182557 0.146484 0.0
-0.0184094 0.13951 0.0
-0.0186136 0.132424 0.0
-0.0188247 0.125231 0.0
-0.0190082 0.117947 0.0
-0.0191372 0.110596 0.0
-0.0191917 0.103206 0.0
-0.0191572 0.0958122 0.0
-0.019024 0.0884511 0.0
-0.0187865 0.0811615 0.0
-0.0184425 0.073983 0.0
-0.0179923 0.0669547 0.0
-0.0174382 0.0601151 0.0
-0.0167839 0.0535013 0.0
-0.0160342 0.0471485 0.0
-0.0151942 0.0410905 0.0
-0.0142691 0.0353585 0.0
-0.0132643 0.0299822 0.0
-0.0121847 0.0249889 0.0
-0.0110355 0.0204038 0.0
-0.00982212 0.0162499 0.0
-0.00855097 0.0125477 0.0
-0.00723115 0.0093141 0.0
-0.00587656 0.00656202 0.0
-0.00450962 0.00429887 0.0
-0.00316716 0.00252522 0.0
-0.00190931 0.00122938 0.0
-0.000829312 0.000391263 0.0
-7.66191e-05 4.2062e-05 0.0
0.72974 0.0191997 0.0
0.348845 0.0730567 0.0
0.127805 0.139322 0.0
0.0111995 0.188358 0.0
-0.0442077 0.219791 0.0
-0.0657861 0.23701 0.0
-0.0703135 0.24455 0.0
-0.0668924 0.245879 0.0
-0.0603233 0.243448 0.0
-0.0530549 0.238866 0.0
-0.0462634 0.233125 0.0
-0.0404443 0.226808 0.0
-0.0357378 0.220229 0.0
-0.0321066 0.21354 0.0
-0.0294331 0.206794 0.0
-0.0275699 0.199991 0.0
-0.0263666 0.193109 0.0
-0.0256824 0.186115 0.0
-0.0253909 0.17898 0.0
-0.0253823 0.171684 0.0
-0.0255626 0.164213 0.0
-0.025853 0.156568 0.0
-0.0261878 0.148758 0.0
-0.0265136 0.1408 0.0
-0.0267878 0.132722 0.0
-0.026977 0.124556 0.0
-0.0270562 0.11634 0.0
-0.0270077 0.108114 0.0
-0.0268198 0.0999223 0.0
-0.0264859 0.0918077 0.0
-0.0260037 0.0838147 0.0
-0.0253744 0.0759865 0.0
-0.0246016 0.0683651 0.0
-0.0236907 0.0609904 0.0
-0.0226483 0.0539005 0.0
-0.0214817 0.0471312 0.0
-0.0201984 0.0407159 0.0
-0.0188058 0.0346859 0.0
-0.0173112 0.0290701 0.0
-0.015722 0.023895 0.0
-0.0140462 0.0191847 0.0
-0.0122934 0.0149605 0.0
-0.0104764 0.0112407 0.0
-0.00861364 0.00803978 0.0
-0.00673329 0.0053679 0.0
-0.00487887 0.0032307 0.0
-0.00311738 0.00162419 0.0
-0.00154744 0.00054337 0.0
-0.000317737 6.7273e-05 0.0
0.765753 0.0125994 0.0
0.408292 0.0557247 0.0
0.18283 0.114592 0.0
0.0527768 0.162758 0.0
-0.0169329 0.198021 0.0
-0.0499767 0.22101 0.0
-0.0626389 0.234561 0.0
-0.0646419 0.241433 0.0
-0.0615435 0.243759 0.0
-0.0564262 0.243066 0.0
-0.0509377 0.240395 0.0
-0.0459016 0.236427 0.0
-0.0416769 0.231589 0.0
-0.0383658 0.226141 0.0
-0.0359356 0.22023 0.0
-0.0342873 0.213937 0.0
-0.033295 0.207305 0.0
-0.0328272 0.200356 0.0
-0.0327581 0.193102 0.0
-0.0329732 0.185556 0.0
-0.0333714 0.177734 0.0
-0.0338656 0.169657 0.0
-0.0343823 0.161354 0.0
-0.034861 0.152857 0.0
-0.0352531 0.144205 0.0
-0.0355205 0.135442 0.0
-0.0356348 0.126613 0.0
-0.0355761 0.117766 0.0
-0.0353318 0.108952 0.0
-0.0348951 0.100217 0.0
-0.0342646 0.0916111 0.0
-0.0334428 0.0831798 0.0
-0.0324352 0.0749678 0.0
-0.0312493 0.0670172 0.0
-0.0298941 0.0593674 0.0
-0.0283793 0.0520554 0.0
-0.0267148 0.0451155 0.0
-0.0249105 0.0385796 0.0
-0.022976 0.032477 0.0
-0.0209212 0.0268347 0.0
-0.0187568 0.0216773 0.0
-0.016495 0.0170269 0.0
-0.0141517 0.0129029 0.0
-0.0117491 0.0093222 0.0
-0.00931903 0.00629871 0.0
-0.00690837 0.00384476 0.0
-0.00458589 0.00196576 0.0
-0.00244834 0.000672628 0.0
-0.00063408 8.76632e-05 0.0
0.792803 0.00861439 0.0
0.45838 0.0436573 0.0
0.233364 0.0954763 0.0
0.0945122 0.141251 0.0
0.0140233 0.1776 0.0
-0.0293487 0.204226 0.0
-0.0499575 0.222059 0.0
-0.0577424 0.233238 0.0
-0.0587223 0.239514 0.0
-0.0564383 0.242247 0.0
-0.052914 0.242432 0.0
-0.0492567 0.240772 0.0
-0.0460276 0.237746 0.0
-0.0434683 0.233679 0.0
-0.0416377 0.228784 0.0
-0.0404949 0.223202 0.0
-0.0399487 0.21703 0.0
-0.0398867 0.210334 0.0
-0.0401915 0.203168 0.0
-0.0407508 0.195575 0.0
-0.0414617 0.187599 0.0
-0.0422337 0.179284 0.0
-0.0429891 0.170677 0.0
-0.0436633 0.161826 0.0
-0.0442039 0.152784 0.0
-0.0445703 0.143604 0.0
-0.0447326 0.134341 0.0
-0.0446701 0.12505 0.0
-0.0443702 0.115788 0.0
-0.0438275 0.106606 0.0
-0.0430421 0.0975565 0.0
-0.0420186 0.0886888 0.0
-0.0407652 0.080049 0.0
-0.039292 0.0716804 0.0
-0.0376109 0.0636232 0.0
-0.0357343 0.0559144 0.0
-0.0336748 0.0485885 0.0
-0.0314448 0.041677 0.0
-0.0290564 0.0352089 0.0
-0.026522 0.029211 0.0
-0.0238542 0.0237079 0.0
-0.0210679 0.0187222 0.0
-0.0181809 0.0142749 0.0
-0.0152176 0.0103851 0.0
-0.0122112 0.00707161 0.0
-0.00920884 0.00435385 0.0
-0.00627651 0.00224714 0.0
-0.00350364 0.000777403 0.0
-0.00101211 0.000103473 0.0
0.813833 0.00616592 0.0
0.500913 0.0351078 0.0
0.279252 0.080698 0.0
0.134945 0.123509 0.0
0.0461477 0.159607 0.0
-0.005685 0.187973 0.0
-0.0336696 0.208722 0.0
-0.0472235 0.223089 0.0
-0.0525615 0.23249 0.0
-0.053526 0.23808 0.0
-0.0524245 0.240763 0.0
-0.0505949 0.241211 0.0
-0.0487743 0.239917 0.0
-0.0473314 0.237232 0.0
-0.0464143 0.233412 0.0
-0.0460426 0.228637 0.0
-0.0461641 0.223045 0.0
-0.0466905 0.216737 0.0
-0.0475184 0.2098 0.0
-0.0485425 0.202307 0.0
-0.0496626 0.194326 0.0
-0.0507884 0.185922 0.0
-0.0518413 0.17716 0.0
-0.0527551 0.168103 0.0
-0.0534766 0.158818 0.0
-0.0539645 0.149367 0.0
-0.054189 0.139817 0.0
-0.0541302 0.130228 0.0
-0.0537773 0.120662 0.0
-0.0531271 0.111177 0.0
-0.0521824 0.101827 0.0
-0.0509511 0.092663 0.0
-0.0494443 0.0837335 0.0
-0.0476758 0.0750818 0.0
-0.0456606 0.0667483 0.0
-0.0434144 0.0587695 0.0
-0.0409527 0.0511789 0.0
-0.0382904 0.0440073 0.0
-0.0354422 0.0372825 0.0
-0.0324224 0.0310307 0.0
-0.0292456 0.0252761 0.0
-0.0259279 0.0200417 0.0
-0.0224886 0.0153495 0.0
-0.0189521 0.0112217 0.0
-0.015351 0.00768129 0.0
-0.0117295 0.00475512 0.0
-0.00814754 0.00246782 0.0
-0.00468322 0.000858496 0.0
-0.00143858 0.000115251 0.0
0.830717 0.00462107 0.0
0.537406 0.0289154 0.0
0.320791 0.0691595 0.0
0.173476 0.10887 0.0
0.0784535 0.143953 0.0
0.0197594 0.172852 0.0
-0.0149025 0.195428 0.0
-0.0339979 0.212077 0.0
-0.0437515 0.223863 0.0
-0.0481801 0.231749 0.0
-0.0497937 0.236526 0.0
-0.0501101 0.238812 0.0
-0.0500112 0.239083 0.0
-0.0499766 0.237698 0.0
-0.0502352 0.234928 0.0
-0.0508641 0.230981 0.0
-0.0518505 0.226018 0.0
-0.0531322 0.220172 0.0
-0.0546224 0.213553 0.0
-0.0562257 0.206258 0.0
-0.0578478 0.198376 0.0
-0.0594012 0.189992 0.0
-0.060809 0.181186 0.0
-0.0620063 0.172038 0.0
-0.0629405 0.162625 0.0
-0.0635721 0.153022 0.0
-0.0638728 0.143302 0.0
-0.0638255 0.133533 0.0
-0.0634225 0.123783 0.0
-0.062664 0.114113 0.0
-0.0615567 0.104581 0.0
-0.0601126 0.09524 0.0
-0.058347 0.086138 0.0
-0.0562778 0.0773191 0.0
-0.0539238 0.0688227 0.0
-0.0513041 0.0606846 0.0
-0.0484374 0.0529366 0.0
-0.0453415 0.0456079 0.0
-0.0420332 0.038725 0.0
-0.0385285 0.0323127 0.0
-0.0348434 0.0263944 0.0
-0.0309944 0.0209931 0.0
-0.0270008 0.016132 0.0
-0.0228856 0.0118354 0.0
-0.0186786 0.00813096 0.0
-0.0144187 0.0050517 0.0
-0.010157 0.00263061 0.0
-0.00595762 0.000917775 0.0
-0.0019013 0.000123601 0.0
0.844647 0.00361314 0.0
0.569053 0.0243235 0.0
0.358402 0.0600418 0.0
0.209816 0.0967559 0.0
0.110172 0.130432 0.0
0.0457959 0.159205 0.0
0.00552324 0.182608 0.0
-0.0188035 0.200839 0.0
-0.0329008 0.214393 0.0
-0.0408735 0.22407 0.0
-0.0453698 0.230548 0.0
-0.0480436 0.234381 0.0
-0.049893 0.236014 0.0
-0.05149 0.235795 0.0
-0.0531341 0.233999 0.0
-0.0549541 0.230847 0.0
-0.056974 0.226516 0.0
-0.0591571 0.221157 0.0
-0.0614339 0.2149 0.0
-0.0637204 0.20786 0.0
-0.0659297 0.200145 0.0
-0.0679793 0.191855 0.0
-0.0697958 0.183087 0.0
-0.0713171 0.173933 0.0
-0.0724938 0.16448 0.0
-0.0732891 0.154815 0.0
-0.0736788 0.145019 0.0
-0.0736496 0.135166 0.0
-0.0731982 0.125329 0.0
-0.0723299 0.115574 0.0
-0.0710565 0.105959 0.0
-0.069395 0.096541 0.0
-0.0673659 0.0873671 0.0
-0.0649917 0.078481 0.0
-0.0622957 0.0699211 0.0
-0.059301 0.0617213 0.0
-0.0560297 0.0539115 0.0
-0.0525023 0.0465189 0.0
-0.0487376 0.0395678 0.0
-0.0447531 0.0330813 0.0
-0.0405652 0.0270816 0.0
-0.0361903 0.0215912 0.0
-0.0316461 0.0166338 0.0
-0.0269528 0.0122358 0.0
-0.0221356 0.00842823 0.0
-0.0172261 0.00524961 0.0
-0.0122643 0.00273976 0.0
-0.00729915 0.000957419 0.0
-0.00238936 0.000129075 0.0
0.856406 0.00292896 0.0
0.596787 0.0208326 0.0
0.392542 0.0527298 0.0
0.243927 0.0866479 0.0
0.140935 0.118732 0.0
0.0719018 0.146964 0.0
0.0267507 0.170623 0.0
-0.00224741 0.189747 0.0
-0.0205268 0.204571 0.0
-0.0320322 0.215599 0.0
-0.0394889 0.223418 0.0
-0.0446489 0.228514 0.0
-0.0486015 0.231293 0.0
-0.0519942 0.232084 0.0
-0.0551857 0.231156 0.0
-0.0583493 0.228732 0.0
-0.0615418 0.224998 0.0
-0.06475 0.220116 0.0
-0.0679207 0.214231 0.0
-0.0709815 0.207472 0.0
-0.0738534 0.199961 0.0
-0.0764601 0.191813 0.0
-0.0787329 0.183136 0.0
-0.0806141 0.174035 0.0
-0.0820588 0.164609 0.0
-0.0830349 0.154952 0.0
-0.0835231 0.145152 0.0
-0.0835158 0.135293 0.0
-0.0830159 0.125449 0.0
-0.0820345 0.11569 0.0
-0.08059 0.106078 0.0
-0.0787056 0.0966689 0.0
-0.0764077 0.0875104 0.0
-0.0737244 0.078645 0.0
-0.070684 0.0701095 0.0
-0.0673141 0.0619356 0.0
-0.0636401 0.0541507 0.0
-0.0596855 0.0467792 0.0
-0.0554709 0.039843 0.0
-0.0510148 0.0333629 0.0
-0.0463335 0.0273591 0.0
-0.0414422 0.0218534 0.0
-0.0363559 0.0168693 0.0
-0.0310909 0.0124344 0.0
-0.0256658 0.00858236 0.0
-0.0201034 0.00535578 0.0
-0.0144314 0.00279974 0.0
-0.00868226 0.000979507 0.0
-0.00289309 0.000132129 0.0
0.866518 0.00244419 0.0
0.621325 0.0181117 0.0
0.423633 0.0467719 0.0
0.275869 0.0781254 0.0
0.170521 0.108554 0.0
0.097679 0.135984 0.0
0.0482895 0.159526 0.0
0.0151531 0.179031 0.0
-0.00707195 0.194686 0.0
-0.0220318 0.206701 0.0
-0.0324603 0.215541 0.0
-0.0401723 0.221637 0.0
-0.0463262 0.225351 0.0
-0.0516294 0.226988 0.0
-0.0564886 0.226805 0.0
-0.0611142 0.225021 0.0
-0.0655908 0.221825 0.0
-0.0699254 0.217386 0.0
-0.0740796 0.211857 0.0
-0.0779914 0.205379 0.0
-0.08159 0.198086 0.0
-0.0848054 0.190103 0.0
-0.0875746 0.18155 0.0
-0.0898452 0.172543 0.0
-0.0915779 0.163191 0.0
-0.0927467 0.153594 0.0
-0.0933388 0.14385 0.0
-0.0933538 0.134046 0.0
-0.0928016 0.124262 0.0
-0.0917012 0.114569 0.0
-0.0900784 0.105033 0.0
-0.0879636 0.0957079 0.0
-0.0853904 0.0866419 0.0
-0.082393 0.0778759 0.0
-0.0790056 0.0694443 0.0
-0.0752602 0.0613761 0.0
-0.0711864 0.0536957 0.0
-0.0668102 0.0464243 0.0
-0.0621541 0.0395806 0.0
-0.0572371 0.0331825 0.0
-0.0520747 0.0272481 0.0
-0.0466801 0.0217973 0.0
-0.0410648 0.016853 0.0
-0.0352395 0.012443 0.0
-0.0292154 0.00860255 0.0
-0.0230049 0.00537683 0.0
-0.0166224 0.00281467 0.0
-0.0100836 0.000985814 0.0
-0.00340395 0.000133112 0.0
0.875344 0.00208553 0.0
0.643222 0.015939 0.0
0.452048 0.041837 0.0
0.305751 0.0708554 0.0
0.198822 0.0996345 0.0
0.122872 0.126106 0.0
0.0697946 0.149274 0.0
0.0329114 0.168847 0.0
0.00714579 0.184883 0.0
-0.0111784 0.197593 0.0
-0.0245543 0.207184 0.0
-0.0348414 0.214042 0.0
-0.0432523 0.218493 0.0
-0.0505416 0.220815 0.0
-0.0571543 0.221248 0.0
-0.0633306 0.220004 0.0
-0.0691776 0.217273 0.0
-0.0747191 0.213224 0.0
-0.0799288 0.208017 0.0
-0.084754 0.201802 0.0
-0.0891312 0.194721 0.0
-0.0929967 0.18691 0.0
-0.0962933 0.178498 0.0
-0.098975 0.169611 0.0
-0.101009 0.160364 0.0
-0.102376 0.150868 0.0
-0.103073 0.141225 0.0
-0.103105 0.131528 0.0
-0.102493 0.12186 0.0
-0.101264 0.112295 0.0
-0.0994524 0.102898 0.0
-0.0970974 0.0937245 0.0
-0.0942402 0.084821 0.0
-0.0909224 0.0762263 0.0
-0.0871842 0.0679719 0.0
-0.083063 0.0600835 0.0
-0.0785922 0.052582 0.0
-0.0738008 0.0454847 0.0
-0.0687128 0.0388068 0.0
-0.0633473 0.0325627 0.0
-0.0577187 0.0267676 0.0
-0.0518373 0.021439 0.0
-0.04571 0.0165981 0.0
-0.0393411 0.0122723 0.0
-0.0327331 0.00849691 0.0
-0.0258875 0.00531846 0.0
-0.0188041 0.00278793 0.0
-0.0114815 0.000977721 0.0
-0.00391423 0.000132272 0.0
0.883139 0.00180892 0.0
0.662901 0.0141628 0.0
0.478104 0.0376805 0.0
0.3337 0.064574 0.0
0.225795 0.0917438 0.0
0.147318 0.117165 0.0
0.0910302 0.139781 0.0
0.0507581 0.159193 0.0
0.0216861 0.175356 0.0
0.000253732 0.188412 0.0
-0.0160092 0.198523 0.0
-0.0288636 0.205929 0.0
-0.0395555 0.210931 0.0
-0.048876 0.21378 0.0
-0.0573 0.214699 0.0
-0.0650906 0.21389 0.0
-0.0723723 0.211539 0.0
-0.0791817 0.207816 0.0
-0.0855023 0.202885 0.0
-0.0912888 0.1969 0.0
-0.0964838 0.190013 0.0
-0.10103 0.182367 0.0
-0.104875 0.174101 0.0
-0.107981 0.165346 0.0
-0.110321 0.156229 0.0
-0.111886 0.146864 0.0
-0.11268 0.13736 0.0
-0.11272 0.127814 0.0
-0.112035 0.118311 0.0
-0.110664 0.108928 0.0
-0.108649 0.0997298 0.0
-0.106041 0.0907702 0.0
-0.102889 0.0820943 0.0
-0.0992426 0.0737381 0.0
-0.0951487 0.0657299 0.0
-0.0906504 0.0580913 0.0
-0.0857854 0.0508392 0.0
-0.0805855 0.0439866 0.0
-0.0750762 0.0375444 0.0
-0.0692763 0.0315232 0.0
-0.0631985 0.0259344 0.0
-0.0568496 0.0207924 0.0
-0.0502312 0.0161162 0.0
-0.0433405 0.0119313 0.0
-0.0361704 0.00827213 0.0
-0.0287101 0.00518519 0.0
-0.0209451 0.00272209 0.0
-0.0128561 0.000956214 0.0
-0.00441684 0.000129761 0.0
0.890084 0.00158714 0.0
0.680693 0.0126774 0.0
0.502065 0.034119 0.0
0.359842 0.0590715 0.0
0.251433 0.0846854 0.0
0.170908 0.109003 0.0
0.111822 0.130935 0.0
0.0684853 0.150006 0.0
0.0363514 0.166092 0.0
0.0119962 0.179255 0.0
-0.0070465 0.189657 0.0
-0.0224321 0.197419 0.0
-0.0354027 0.202799 0.0
-0.046775 0.206025 0.0
-0.0570448 0.207301 0.0
-0.0664919 0.206818 0.0
-0.0752531 0.204757 0.0
-0.0833742 0.201288 0.0
-0.0908452 0.196576 0.0
-0.0976264 0.190782 0.0
-0.103666 0.184061 0.0
-0.10891 0.176565 0.0
-0.113315 0.16844 0.0
-0.116848 0.159826 0.0
-0.119492 0.150853 0.0
-0.121246 0.141645 0.0
-0.122124 0.132313 0.0
-0.122155 0.122957 0.0
-0.121379 0.113666 0.0
-0.119846 0.104516 0.0
-0.117611 0.0955707 0.0
-0.114733 0.0868841 0.0
-0.111273 0.0784979 0.0
-0.107287 0.0704446 0.0
-0.102831 0.0627485 0.0
-0.0979538 0.055427 0.0
-0.0926971 0.0484921 0.0
-0.0870957 0.0419519 0.0
-0.0811763 0.0358128 0.0
-0.0749574 0.0300805 0.0
-0.0684495 0.0247625 0.0
-0.0616554 0.0198692 0.0
-0.0545708 0.0154165 0.0
-0.0471849 0.0114271 0.0
-0.0394803 0.0079334 0.0
-0.0314338 0.00498039 0.0
-0.0230154 0.00261897 0.0
-0.0141882 0.000921925 0.0
-0.00490514 0.000125659 0.0
0.896311 0.00140283 0.0
0.69685 0.0114072 0.0
0.524147 0.0310133 0.0
0.38429 0.0541801 0.0
0.275744 0.0782934 0.0
0.193566 0.101476 0.0
0.132034 0.122625 0.0
0.0859175 0.141215 0.0
0.0509379 0.157057 0.0
0.0238163 0.170153 0.0
0.00215185 0.180615 0.0
-0.0157178 0.18857 0.0
-0.0309486 0.194167 0.0
-0.0443747 0.197628 0.0
-0.0565066 0.199136 0.0
-0.0676346 0.198871 0.0
-0.0779033 0.197009 0.0
-0.0873635 0.193717 0.0
-0.0960096 0.189163 0.0
-0.103805 0.183511 0.0
-0.110702 0.176923 0.0
-0.116651 0.169557 0.0
-0.121615 0.161565 0.0
-0.125569 0.153093 0.0
-0.128503 0.144279 0.0
-0.130428 0.135249 0.0
-0.13137 0.126119 0.0
-0.131369 0.116992 0.0
-0.130478 0.107956 0.0