# vtk DataFile Version 3.0
Malha 2D com triângulos e temperatura
ASCII
DATASET UNSTRUCTURED_GRID

POINTS 2500 double
0 0 0
1 0 0
1 1 0
0 1 0
0.0204082 0 0
0.0408163 0 0
0.0612245 0 0
0.0816327 0 0
0.102041 0 0
0.122449 0 0
0.142857 0 0
0.163265 0 0
0.183673 0 0
0.204082 0 0
0.22449 0 0
0.244898 0 0
0.265306 0 0
0.285714 0 0
0.306122 0 0
0.326531 0 0
0.346939 0 0
0.367347 0 0
0.387755 0 0
0.408163 0 0
0.428571 0 0
0.44898 0 0
0.469388 0 0
0.489796 0 0
0.510204 0 0
0.530612 0 0
0.55102 0 0
0.571429 0 0
0.591837 0 0
0.612245 0 0
0.632653 0 0
0.653061 0 0
0.673469 0 0
0.693878 0 0
0.714286 0 0
0.734694 0 0
0.755102 0 0
0.77551 0 0
0.795918 0 0
0.816327 0 0
0.836735 0 0
0.857143 0 0
0.877551 0 0
0.897959 0 0
0.918367 0 0
0.938776 0 0
0.959184 0 0
0.979592 0 0
1 0.0204082 0
1 0.0408163 0
1 0.0612245 0
1 0.0816327 0
1 0.102041 0
1 0.122449 0
1 0.142857 0
1 0.163265 0
1 0.183673 0
1 0.204082 0
1 0.22449 0
1 0.244898 0
1 0.265306 0
1 0.285714 0
1 0.306122 0
1 0.326531 0
1 0.346939 0
1 0.367347 0
1 0.387755 0
1 0.408163 0
1 0.428571 0
1 0.44898 0
1 0.469388 0
1 0.489796 0
1 0.510204 0
1 0.530612 0
1 0.55102 0
1 0.571429 0
1 0.591837 0
1 0.612245 0
1 0.632653 0
1 0.653061 0
1 0.673469 0
1 0.693878 0
1 0.714286 0
1 0.734694 0
1 0.755102 0
1 0.77551 0
1 0.795918 0
1 0.816327 0
1 0.836735 0
1 0.857143 0
1 0.877551 0
1 0.897959 0
1 0.918367 0
1 0.938776 0
1 0.959184 0
1 0.979592 0
0.979592 1 0
0.959184 1 0
0.938776 1 0
0.918367 1 0
0.897959 1 0
0.877551 1 0
0.857143 1 0
0.836735 1 0
0.816327 1 0
0.795918 1 0
0.77551 1 0
0.755102 1 0
0.734694 1 0
0.714286 1 0
0.693878 1 0
0.673469 1 0
0.653061 1 0
0.632653 1 0
0.612245 1 0
0.591837 1 0
0.571429 1 0
0.55102 1 0
0.530612 1 0
0.510204 1 0
0.489796 1 0
0.469388 1 0
0.44898 1 0
0.428571 1 0
0.408163 1 0
0.387755 1 0
0.367347 1 0
0.346939 1 0
0.326531 1 0
0.306122 1 0
0.285714 1 0
0.265306 1 0
0.244898 1 0
0.22449 1 0
0.204082 1 0
0.183673 1 0
0.163265 1 0
0.142857 1 0
0.122449 1 0
0.102041 1 0
0.0816327 1 0
0.0612245 1 0
0.0408163 1 0
0.0204082 1 0
0 0.979592 0
0 0.959184 0
0 0.938776 0
0 0.918367 0
0 0.897959 0
0 0.877551 0
0 0.857143 0
0 0.836735 0
0 0.816327 0
0 0.795918 0
0 0.77551 0
0 0.755102 0
0 0.734694 0
0 0.714286 0
0 0.693878 0
0 0.673469 0
0 0.653061 0
0 0.632653 0
0 0.612245 0
0 0.591837 0
0 0.571429 0
0 0.55102 0
0 0.530612 0
0 0.510204 0
0 0.489796 0
0 0.469388 0
0 0.44898 0
0 0.428571 0
0 0.408163 0
0 0.387755 0
0 0.367347 0
0 0.346939 0
0 0.326531 0
0 0.306122 0
0 0.285714 0
0 0.265306 0
0 0.244898 0
0 0.22449 0
0 0.204082 0
0 0.183673 0
0 0.163265 0
0 0.142857 0
0 0.122449 0
0 0.102041 0
0 0.0816327 0
0 0.0612245 0
0 0.0408163 0
0 0.0204082 0
0.0204082 0.979592 0
0.0204082 0.959184 0
0.0204082 0.938776 0
0.0204082 0.918367 0
0.0204082 0.897959 0
0.0204082 0.877551 0
0.0204082 0.857143 0
0.0204082 0.836735 0
0.0204082 0.816327 0
0.0204082 0.795918 0
0.0204082 0.77551 0
0.0204082 0.755102 0
0.0204082 0.734694 0
0.0204082 0.714286 0
0.0204082 0.693878 0
0.0204082 0.673469 0
0.0204082 0.653061 0
0.0204082 0.632653 0
0.0204082 0.612245 0
0.0204082 0.591837 0
0.0204082 0.571429 0
0.0204082 0.55102 0
0.0204082 0.530612 0
0.0204082 0.510204 0
0.0204082 0.489796 0
0.0204082 0.469388 0
0.0204082 0.44898 0
0.0204082 0.428571 0
0.0204082 0.408163 0
0.0204082 0.387755 0
0.0204082 0.367347 0
0.0204082 0.346939 0
0.0204082 0.326531 0
0.0204082 0.306122 0
0.0204082 0.285714 0
0.0204082 0.265306 0
0.0204082 0.244898 0
0.0204082 0.22449 0
0.0204082 0.204082 0
0.0204082 0.183673 0
0.0204082 0.163265 0
0.0204082 0.142857 0
0.0204082 0.122449 0
0.0204082 0.102041 0
0.0204082 0.0816327 0
0.0204082 0.0612245 0
0.0204082 0.0408163 0
0.0204082 0.0204082 0
0.0408163 0.979592 0
0.0408163 0.959184 0
0.0408163 0.938776 0
0.0408163 0.918367 0
0.0408163 0.897959 0
0.0408163 0.877551 0
0.0408163 0.857143 0
0.0408163 0.836735 0
0.0408163 0.816327 0
0.0408163 0.795918 0
0.0408163 0.77551 0
0.0408163 0.755102 0
0.0408163 0.734694 0
0.0408163 0.714286 0
0.0408163 0.693878 0
0.0408163 0.673469 0
0.0408163 0.653061 0
0.0408163 0.632653 0
0.0408163 0.612245 0
0.0408163 0.591837 0
0.0408163 0.571429 0
0.0408163 0.55102 0
0.0408163 0.530612 0
0.0408163 0.510204 0
0.0408163 0.489796 0
0.0408163 0.469388 0
0.0408163 0.44898 0
0.0408163 0.428571 0
0.0408163 0.408163 0
0.0408163 0.387755 0
0.0408163 0.367347 0
0.0408163 0.346939 0
0.0408163 0.326531 0
0.0408163 0.306122 0
0.0408163 0.285714 0
0.0408163 0.265306 0
0.0408163 0.244898 0
0.0408163 0.22449 0
0.0408163 0.204082 0
0.0408163 0.183673 0
0.0408163 0.163265 0
0.0408163 0.142857 0
0.0408163 0.122449 0
0.0408163 0.102041 0
0.0408163 0.0816327 0
0.0408163 0.0612245 0
0.0408163 0.0408163 0
0.0408163 0.0204082 0
0.0612245 0.979592 0
0.0612245 0.959184 0
0.0612245 0.938776 0
0.0612245 0.918367 0
0.0612245 0.897959 0
0.0612245 0.877551 0
0.0612245 0.857143 0
0.0612245 0.836735 0
0.0612245 0.816327 0
0.0612245 0.795918 0
0.0612245 0.77551 0
0.0612245 0.755102 0
0.0612245 0.734694 0
0.0612245 0.714286 0
0.0612245 0.693878 0
0.0612245 0.673469 0
0.0612245 0.653061 0
0.0612245 0.632653 0
0.0612245 0.612245 0
0.0612245 0.591837 0
0.0612245 0.571429 0
0.0612245 0.55102 0
0.0612245 0.530612 0
0.0612245 0.510204 0
0.0612245 0.489796 0
0.0612245 0.469388 0
0.0612245 0.44898 0
0.0612245 0.428571 0
0.0612245 0.408163 0
0.0612245 0.387755 0
0.0612245 0.367347 0
0.0612245 0.346939 0
0.0612245 0.326531 0
0.0612245 0.306122 0
0.0612245 0.285714 0
0.0612245 0.265306 0
0.0612245 0.244898 0
0.0612245 0.22449 0
0.0612245 0.204082 0
0.0612245 0.183673 0
0.0612245 0.163265 0
0.0612245 0.142857 0
0.0612245 0.122449 0
0.0612245 0.102041 0
0.0612245 0.0816327 0
0.0612245 0.0612245 0
0.0612245 0.0408163 0
0.0612245 0.0204082 0
0.0816327 0.979592 0
0.0816327 0.959184 0
0.0816327 0.938776 0
0.0816327 0.918367 0
0.0816327 0.897959 0
0.0816327 0.877551 0
0.0816327 0.857143 0
0.0816327 0.836735 0
0.0816327 0.816327 0
0.0816327 0.795918 0
0.0816327 0.77551 0
0.0816327 0.755102 0
0.0816327 0.734694 0
0.0816327 0.714286 0
0.0816327 0.693878 0
0.0816327 0.673469 0
0.0816327 0.653061 0
0.0816327 0.632653 0
0.0816327 0.612245 0
0.0816327 0.591837 0
0.0816327 0.571429 0
0.0816327 0.55102 0
0.0816327 0.530612 0
0.0816327 0.510204 0
0.0816327 0.489796 0
0.0816327 0.469388 0
0.0816327 0.44898 0
0.0816327 0.428571 0
0.0816327 0.408163 0
0.0816327 0.387755 0
0.0816327 0.367347 0
0.0816327 0.346939 0
0.0816327 0.326531 0
0.0816327 0.306122 0
0.0816327 0.285714 0
0.0816327 0.265306 0
0.0816327 0.244898 0
0.0816327 0.22449 0
0.0816327 0.204082 0
0.0816327 0.183673 0
0.0816327 0.163265 0
0.0816327 0.142857 0
0.0816327 0.122449 0
0.0816327 0.102041 0
0.0816327 0.0816327 0
0.0816327 0.0612245 0
0.0816327 0.0408163 0
0.0816327 0.0204082 0
0.102041 0.979592 0
0.102041 0.959184 0
0.102041 0.938776 0
0.102041 0.918367 0
0.102041 0.897959 0
0.102041 0.877551 0
0.102041 0.857143 0
0.102041 0.836735 0
0.102041 0.816327 0
0.102041 0.795918 0
0.102041 0.77551 0
0.102041 0.755102 0
0.102041 0.734694 0
0.102041 0.714286 0
0.102041 0.693878 0
0.102041 0.673469 0
0.102041 0.653061 0
0.102041 0.632653 0
0.102041 0.612245 0
0.102041 0.591837 0
0.102041 0.571429 0
0.102041 0.55102 0
0.102041 0.530612 0
0.102041 0.510204 0
0.102041 0.489796 0
0.102041 0.469388 0
0.102041 0.44898 0
0.102041 0.428571 0
0.102041 0.408163 0
0.102041 0.387755 0
0.102041 0.367347 0
0.102041 0.346939 0
0.102041 0.326531 0
0.102041 0.306122 0
0.102041 0.285714 0
0.102041 0.265306 0
0.102041 0.244898 0
0.102041 0.22449 0
0.102041 0.204082 0
0.102041 0.183673 0
0.102041 0.163265 0
0.102041 0.142857 0
0.102041 0.122449 0
0.102041 0.102041 0
0.102041 0.0816327 0
0.102041 0.0612245 0
0.102041 0.0408163 0
0.102041 0.0204082 0
0.122449 0.979592 0
0.122449 0.959184 0
0.122449 0.938776 0
0.122449 0.918367 0
0.122449 0.897959 0
0.122449 0.877551 0
0.122449 0.857143 0
0.122449 0.836735 0
0.122449 0.816327 0
0.122449 0.795918 0
0.122449 0.77551 0
0.122449 0.755102 0
0.122449 0.734694 0
0.122449 0.714286 0
0.122449 0.693878 0
0.122449 0.673469 0
0.122449 0.653061 0
0.122449 0.632653 0
0.122449 0.612245 0
0.122449 0.591837 0
0.122449 0.571429 0
0.122449 0.55102 0
0.122449 0.530612 0
0.122449 0.510204 0
0.122449 0.489796 0
0.122449 0.469388 0
0.122449 0.44898 0
0.122449 0.428571 0
0.122449 0.408163 0
0.122449 0.387755 0
0.122449 0.367347 0
0.122449 0.346939 0
0.122449 0.326531 0
0.122449 0.306122 0
0.122449 0.285714 0
0.122449 0.265306 0
0.122449 0.244898 0
0.122449 0.22449 0
0.122449 0.204082 0
0.122449 0.183673 0
0.122449 0.163265 0
0.122449 0.142857 0
0.122449 0.122449 0
0.122449 0.102041 0
0.122449 0.0816327 0
0.122449 0.0612245 0
0.122449 0.0408163 0
0.122449 0.0204082 0
0.142857 0.979592 0
0.142857 0.959184 0
0.142857 0.938776 0
0.142857 0.918367 0
0.142857 0.897959 0
0.142857 0.877551 0
0.142857 0.857143 0
0.142857 0.836735 0
0.142857 0.816327 0
0.142857 0.795918 0
0.142857 0.77551 0
0.142857 0.755102 0
0.142857 0.734694 0
0.142857 0.714286 0
0.142857 0.693878 0
0.142857 0.673469 0
0.142857 0.653061 0
0.142857 0.632653 0
0.142857 0.612245 0
0.142857 0.591837 0
0.142857 0.571429 0
0.142857 0.55102 0
0.142857 0.530612 0
0.142857 0.510204 0
0.142857 0.489796 0
0.142857 0.469388 0
0.142857 0.44898 0
0.142857 0.428571 0
0.142857 0.408163 0
0.142857 0.387755 0
0.142857 0.367347 0
0.142857 0.346939 0
0.142857 0.326531 0
0.142857 0.306122 0
0.142857 0.285714 0
0.142857 0.265306 0
0.142857 0.244898 0
0.142857 0.22449 0
0.142857 0.204082 0
0.142857 0.183673 0
0.142857 0.163265 0
0.142857 0.142857 0
0.142857 0.122449 0
0.142857 0.102041 0
0.142857 0.0816327 0
0.142857 0.0612245 0
0.142857 0.0408163 0
0.142857 0.0204082 0
0.163265 0.979592 0
0.163265 0.959184 0
0.163265 0.938776 0
0.163265 0.918367 0
0.163265 0.897959 0
0.163265 0.877551 0
0.163265 0.857143 0
0.163265 0.836735 0
0.163265 0.816327 0
0.163265 0.795918 0
0.163265 0.77551 0
0.163265 0.755102 0
0.163265 0.734694 0
0.163265 0.714286 0
0.163265 0.693878 0
0.163265 0.673469 0
0.163265 0.653061 0
0.163265 0.632653 0
0.163265 0.612245 0
0.163265 0.591837 0
0.163265 0.571429 0
0.163265 0.55102 0
[...]
CELL_DATA 2401
VECTORS velocity double
0.257584 0.157303 0.0
-0.00260674 0.264472 0.0
-0.0322351 0.205558 0.0
-0.0253406 0.150738 0.0
-0.0160444 0.113253 0.0
-0.00970518 0.0879129 0.0
-0.00594431 0.0708133 0.0
-0.00377026 0.0590547 0.0
-0.00249464 0.0507363 0.0
-0.00172197 0.0446806 0.0
-0.0012368 0.040148 0.0
-0.000922258 0.0366609 0.0
-0.000713416 0.0339015 0.0
-0.000572749 0.0316523 0.0
-0.000477556 0.029761 0.0
-0.000413465 0.0281193 0.0
-0.000370991 0.0266493 0.0
-0.000343648 0.0252947 0.0
-0.00032686 0.0240155 0.0
-0.000317322 0.0227829 0.0
-0.000312593 0.0215774 0.0
-0.00031085 0.020386 0.0
-0.000310718 0.0192011 0.0
-0.000311163 0.018019 0.0
-0.000311413 0.0168388 0.0
-0.000310907 0.0156621 0.0
-0.000309251 0.0144921 0.0
-0.00030619 0.0133331 0.0
-0.000301577 0.0121901 0.0
-0.000295352 0.0110683 0.0
-0.000287523 0.0099735 0.0
-0.000278145 0.00891099 0.0
-0.000267305 0.00788607 0.0
-0.000255107 0.00690373 0.0
-0.000241655 0.00596862 0.0
-0.000227047 0.00508508 0.0
-0.000211357 0.00425715 0.0
-0.000194631 0.00348866 0.0
-0.00017687 0.00278331 0.0
-0.000158025 0.00214479 0.0
-0.000137985 0.00157688 0.0
-0.000116567 0.00108358 0.0
-9.3519e-05 0.000669157 0.0
-6.85651e-05 0.000338176 0.0
-4.155e-05 9.51251e-05 0.0
-1.2895e-05 -5.64825e-05 0.0
1.52233e-05 -0.000116281 0.0
3.64258e-05 -9.50576e-05 0.0
3.3477e-05 -3.3318e-05 0.0
0.340803 0.122989 0.0
-0.000555211 0.249581 0.0
-0.0651117 0.271897 0.0
-0.0631657 0.252505 0.0
-0.0484899 0.222033 0.0
-0.0349988 0.19215 0.0
-0.0250115 0.166645 0.0
-0.0180402 0.146018 0.0
-0.0132371 0.129665 0.0
-0.00991462 0.116744 0.0
-0.00759533 0.106468 0.0
-0.00596255 0.0981905 0.0
-0.00480707 0.0914004 0.0
-0.00398878 0.0857061 0.0
-0.00341185 0.0808099 0.0
-0.00300926 0.0764867 0.0
-0.00273309 0.0725677 0.0
-0.00254842 0.0689268 0.0
-0.00242936 0.0654714 0.0
-0.00235643 0.0621347 0.0
-0.00231479 0.0588698 0.0
-0.00229308 0.0556456 0.0
-0.00228258 0.0524434 0.0
-0.00227661 0.0492537 0.0
-0.00227013 0.0460748 0.0
-0.0022594 0.0429101 0.0
-0.00224176 0.0397672 0.0
-0.00221542 0.0366568 0.0
-0.0021793 0.0335911 0.0
-0.00213285 0.0305835 0.0
-0.00207599 0.0276479 0.0
-0.00200893 0.0247982 0.0
-0.0019321 0.0220476 0.0
-0.00184606 0.0194091 0.0
-0.00175139 0.0168947 0.0
-0.00164866 0.0145158 0.0
-0.00153835 0.012283 0.0
-0.00142079 0.0102064 0.0
-0.00129614 0.0082958 0.0
-0.00116437 0.00656055 0.0
-0.00102527 0.00501003 0.0
-0.000878502 0.00365354 0.0
-0.000723779 0.00250021 0.0
-0.000561251 0.00155844 0.0
-0.000392365 0.000834718 0.0
-0.000221794 0.000331185 0.0
-6.13918e-05 4.09955e-05 0.0
6.30887e-05 -6.16386e-05 0.0
9.45923e-05 -3.545e-05 0.0
0.500924 0.076835 0.0
0.099195 0.183337 0.0
-0.03918 0.249452 0.0
-0.073288 0.26604 0.0
-0.0718598 0.257758 0.0
-0.0606961 0.239909 0.0
-0.0485888 0.219753 0.0
-0.0381522 0.200579 0.0
-0.0298621 0.183607 0.0
-0.0235112 0.169062 0.0
-0.0187339 0.156747 0.0
-0.0151794 0.146313 0.0
-0.0125578 0.137394 0.0
-0.0106423 0.129655 0.0
-0.00925877 0.122808 0.0
-0.0082747 0.116622 0.0
-0.00758895 0.110911 0.0
-0.00712397 0.10553 0.0
-0.00681996 0.100371 0.0
-0.00663048 0.0953541 0.0
-0.00651936 0.0904218 0.0
-0.00645836 0.0855369 0.0
-0.00642548 0.0806773 0.0
-0.0064037 0.0758332 0.0
-0.00638003 0.071004 0.0
-0.00634481 0.0661966 0.0
-0.00629107 0.0614231 0.0
-0.00621409 0.0566995 0.0
-0.00611094 0.0520441 0.0
-0.00598015 0.0474768 0.0
-0.00582137 0.0430179 0.0
-0.00563506 0.0386878 0.0
-0.00542226 0.034506 0.0
-0.00518434 0.0304915 0.0
-0.00492279 0.026662 0.0
-0.00463908 0.0230345 0.0
-0.00433447 0.0196246 0.0
-0.00400994 0.0164473 0.0
-0.00366614 0.0135166 0.0
-0.00330338 0.0108463 0.0
-0.00292171 0.00844939 0.0
-0.00252124 0.00633834 0.0
-0.00210262 0.00452474 0.0
-0.00166812 0.00301831 0.0
-0.00122358 0.00182529 0.0
-0.000782156 0.000945772 0.0
-0.000370916 0.000368184 0.0
-4.01213e-05 6.27269e-05 0.0
0.000113714 -1.35053e-05 0.0
0.610171 0.0480787 0.0
0.195914 0.134062 0.0
0.0116261 0.209602 0.0
-0.0579047 0.246689 0.0
-0.0761137 0.257198 0.0
-0.0739813 0.253637 0.0
-0.0649278 0.243187 0.0
-0.0545413 0.230101 0.0
-0.0449817 0.216645 0.0
-0.0369308 0.20389 0.0
-0.0304583 0.192242 0.0
-0.025403 0.181765 0.0
-0.0215374 0.172357 0.0
-0.0186358 0.163849 0.0
-0.0164981 0.156059 0.0
-0.0149558 0.148817 0.0
-0.013871 0.141975 0.0
-0.0131319 0.13541 0.0
-0.0126483 0.129028 0.0
-0.0123482 0.122757 0.0
-0.0121738 0.116547 0.0
-0.0120791 0.110365 0.0
-0.0120278 0.104195 0.0
-0.0119915 0.0980301 0.0
-0.0119483 0.0918758 0.0
-0.0118817 0.085744 0.0
-0.01178 0.0796523 0.0
-0.011635 0.0736221 0.0
-0.0114418 0.0676774 0.0
-0.011198 0.0618434 0.0
-0.0109029 0.056146 0.0
-0.0105575 0.0506103 0.0
-0.0101636 0.0452611 0.0
-0.00972358 0.0401219 0.0
-0.00924018 0.0352147 0.0
-0.00871604 0.0305604 0.0
-0.00815352 0.0261784 0.0
-0.00755457 0.0220871 0.0
-0.00692067 0.0183037 0.0
-0.00625286 0.0148445 0.0
-0.005552 0.011725 0.0
-0.00481931 0.00895929 0.0
-0.00405724 0.00656022 0.0
-0.00327125 0.00453788 0.0
-0.00247261 0.00289838 0.0
-0.00168335 0.00164157 0.0
-0.00094428 0.000755664 0.0
-0.000324906 0.000215789 0.0
5.27045e-05 1.42937e-05 0.0
0.680615 0.0301918 0.0
0.278766 0.0982631 0.0
0.0698894 0.171093 0.0
-0.0273788 0.217604 0.0
-0.0654071 0.240971 0.0
-0.0751295 0.249268 0.0
-0.0723555 0.248417 0.0
-0.0648089 0.242526 0.0
-0.0561321 0.234183 0.0
-0.0479447 0.224894 0.0
-0.0408743 0.215476 0.0
-0.0350735 0.206325 0.0
-0.0304798 0.197591 0.0
-0.0269444 0.189289 0.0
-0.0242951 0.18137 0.0
-0.0223643 0.173755 0.0
-0.0210014 0.16636 0.0
-0.0200763 0.159112 0.0
-0.019479 0.151946 0.0
-0.019118 0.144815 0.0
-0.018918 0.137687 0.0
-0.0188178 0.130544 0.0
-0.0187683 0.123379 0.0
-0.0187304 0.116197 0.0
-0.0186739 0.109011 0.0
-0.0185763 0.10184 0.0
-0.018421 0.0947082 0.0
-0.018197 0.0876431 0.0
-0.0178975 0.0806742 0.0
-0.0175194 0.0738319 0.0
-0.0170621 0.0671464 0.0
-0.0165272 0.0606474 0.0
-0.0159178 0.0543633 0.0
-0.0152376 0.048321 0.0
-0.0144907 0.0425459 0.0
-0.0136814 0.0370615 0.0
-0.0128134 0.0318897 0.0
-0.0118899 0.0270513 0.0
-0.0109135 0.0225653 0.0
-0.00988639 0.0184496 0.0
-0.00881072 0.014721 0.0
-0.00768922 0.0113946 0.0
-0.00652666 0.00848382 0.0
-0.00533193 0.0059993 0.0
-0.00412145 0.00394802 0.0
-0.00292461 0.00233202 0.0
-0.00179195 0.00114334 0.0
-0.000804332 0.000367782 0.0
-9.41526e-05 4.08062e-05 0.0
0.730033 0.0192093 0.0
0.349324 0.0730802 0.0
0.128186 0.139309 0.0
0.0112598 0.18821 0.0
-0.0446121 0.219398 0.0
-0.0667182 0.236251 0.0
-0.0717672 0.243315 0.0
-0.0688124 0.244065 0.0
-0.0626228 0.240974 0.0
-0.0556331 0.235669 0.0
-0.0490175 0.229165 0.0
-0.0432772 0.222067 0.0
-0.0385622 0.21471 0.0
-0.0348467 0.207264 0.0
-0.0320242 0.199798 0.0
-0.0299582 0.192328 0.0
-0.028508 0.184843 0.0
-0.0275415 0.177322 0.0
-0.0269406 0.169743 0.0
-0.0266028 0.162091 0.0
-0.0264413 0.154358 0.0
-0.0263839 0.146546 0.0
-0.0263715 0.138665 0.0
-0.0263567 0.130731 0.0
-0.0263028 0.122769 0.0
-0.026182 0.114807 0.0
-0.0259744 0.106876 0.0
-0.0256665 0.0990119 0.0
-0.0252506 0.0912483 0.0
-0.0247234 0.0836209 0.0
-0.024085 0.0761643 0.0
-0.0233383 0.0689117 0.0
-0.0224877 0.0618944 0.0
-0.0215388 0.0551421 0.0
-0.0204976 0.0486822 0.0
-0.0193701 0.0425401 0.0
-0.0181617 0.0367394 0.0
-0.0168772 0.0313019 0.0
-0.0155207 0.0262476 0.0
-0.0140956 0.0215952 0.0
-0.0126057 0.0173622 0.0
-0.0110553 0.0135641 0.0
-0.00945147 0.0102151 0.0
-0.00780611 0.00732672 0.0
-0.00613956 0.00490817 0.0
-0.00448597 0.0029657 0.0
-0.00290083 0.00149803 0.0
-0.00146858 0.00050444 0.0
-0.000319642 6.34466e-05 0.0
0.766042 0.0125957 0.0
0.408729 0.0556851 0.0
0.183087 0.11444 0.0
0.0526041 0.162391 0.0
-0.0176852 0.197319 0.0
-0.0513721 0.219855 0.0
-0.064659 0.232851 0.0
-0.0672159 0.239081 0.0
-0.064565 0.24069 0.0
-0.0597731 0.239229 0.0
-0.0544855 0.235758 0.0
-0.0495327 0.23098 0.0
-0.0452848 0.22534 0.0
-0.0418572 0.219116 0.0
-0.0392304 0.212472 0.0
-0.0373185 0.205503 0.0
-0.0360073 0.198262 0.0
-0.0351763 0.190782 0.0
-0.0347098 0.183083 0.0
-0.0345027 0.175183 0.0
-0.0344628 0.167104 0.0
-0.0345116 0.158868 0.0
-0.0345838 0.150503 0.0
-0.0346268 0.142042 0.0
-0.0345992 0.13352 0.0
-0.0344699 0.124977 0.0
-0.034217 0.116453 0.0
-0.0338261 0.107989 0.0
-0.0332893 0.0996253 0.0
-0.0326041 0.0914031 0.0
-0.0317721 0.0833603 0.0
-0.0307978 0.0755334 0.0
-0.029688 0.0679562 0.0
-0.0284503 0.0606601 0.0
-0.0270932 0.0536742 0.0
-0.0256246 0.0470247 0.0
-0.024052 0.040736 0.0
-0.022382 0.0348302 0.0
-0.0206203 0.0293278 0.0
-0.0187719 0.0242475 0.0
-0.0168419 0.0196069 0.0
-0.0148364 0.015422 0.0
-0.012764 0.0117076 0.0
-0.0106386 0.00847705 0.0
-0.0084828 0.0057425 0.0
-0.00633244 0.00351585 0.0
-0.00424327 0.00180396 0.0
-0.00229675 0.000620175 0.0
-0.000612558 8.16894e-05 0.0
0.793052 0.00859841 0.0
0.45871 0.0435581 0.0
0.233423 0.0951941 0.0
0.0940272 0.140681 0.0
0.0128262 0.176628 0.0
-0.0312828 0.202727 0.0
-0.052607 0.219939 0.0
-0.0610221 0.230425 0.0
-0.0625067 0.235948 0.0
-0.060585 0.237886 0.0
-0.0572785 0.237253 0.0
-0.053702 0.234772 0.0
-0.0504294 0.23094 0.0
-0.0477169 0.226096 0.0
-0.0456387 0.220471 0.0
-0.0441688 0.214218 0.0
-0.0432297 0.207443 0.0
-0.0427216 0.200224 0.0
-0.0425395 0.19262 0.0
-0.0425822 0.184682 0.0
-0.0427577 0.176457 0.0
-0.0429856 0.167992 0.0
-0.0431982 0.159332 0.0
-0.0433402 0.150526 0.0
-0.0433684 0.141623 0.0
-0.0432505 0.132673 0.0
-0.042964 0.123725 0.0
-0.0424951 0.114827 0.0
-0.0418371 0.106028 0.0
-0.0409893 0.0973702 0.0
-0.0399556 0.0888973 0.0
-0.0387432 0.0806481 0.0
-0.0373616 0.0726586 0.0
-0.0358214 0.0649614 0.0
-0.0341336 0.0575863 0.0
-0.0323088 0.05056 0.0
-0.0303567 0.0439069 0.0
-0.0282858 0.0376488 0.0
-0.0261037 0.0318059 0.0
-0.0238167 0.0263967 0.0
-0.0214313 0.0214384 0.0
-0.0189546 0.0169475 0.0
-0.0163963 0.0129396 0.0
-0.013771 0.00942992 0.0
-0.0111012 0.00643445 0.0
-0.00842177 0.00397116 0.0
-0.00578456 0.00205543 0.0
-0.00326303 0.000713752 0.0
-0.000960614 9.57963e-05 0.0
0.81401 0.00613976 0.0
0.501074 0.0349562 0.0
0.279044 0.0802987 0.0
0.134086 0.122758 0.0
0.0444681 0.158397 0.0
-0.00823661 0.186208 0.0
-0.0370038 0.20628 0.0
-0.0512468 0.219917 0.0
-0.0571326 0.228542 0.0
-0.058486 0.233328 0.0
-0.057611 0.235192 0.0
-0.0558537 0.234824 0.0
-0.0539647 0.232733 0.0
-0.0523289 0.229286 0.0
-0.0511114 0.22475 0.0
-0.0503479 0.219318 0.0
-0.0500021 0.213138 0.0
-0.05 0.206321 0.0
-0.050252 0.19896 0.0
-0.0506658 0.191133 0.0
-0.0511538 0.182913 0.0
-0.0516376 0.174366 0.0
-0.0520501 0.165558 0.0
-0.0523362 0.156552 0.0
-0.0524531 0.14741 0.0
-0.0523692 0.138193 0.0
-0.0520636 0.128959 0.0
-0.0515243 0.119765 0.0
-0.0507474 0.110663 0.0
-0.0497352 0.101703 0.0
-0.0484948 0.092931 0.0
-0.0470372 0.0843879 0.0
-0.0453753 0.0761113 0.0
-0.0435231 0.068135 0.0
-0.041495 0.0604888 0.0
-0.0393044 0.0531994 0.0
-0.0369636 0.0462905 0.0
-0.0344832 0.0397832 0.0
-0.0318726 0.0336968 0.0
-0.0291395 0.0280492 0.0
-0.0262911 0.0228571 0.0
-0.0233352 0.018137 0.0
-0.0202813 0.0139054 0.0
-0.0171434 0.0101798 0.0
-0.0139422 0.00697982 0.0
-0.0107084 0.00432951 0.0
-0.00748714 0.00225226 0.0
-0.00434028 0.000786002 0.0
-0.00135187 0.000106276 0.0
0.830796 0.00458742 0.0
0.537348 0.0287221 0.0
0.320257 0.0686652 0.0
0.172187 0.107973 0.0
0.0762451 0.142556 0.0
0.016593 0.170864 0.0
-0.0189435 0.192755 0.0
-0.0387811 0.208652 0.0
-0.049115 0.219658 0.0
-0.0539501 0.226746 0.0
-0.0557922 0.230717 0.0
-0.0561676 0.232207 0.0
-0.0559726 0.231703 0.0
-0.0557039 0.229578 0.0
-0.0556089 0.226116 0.0
-0.0557822 0.221534 0.0
-0.0562283 0.216004 0.0
-0.0569008 0.209666 0.0
-0.0577283 0.202638 0.0
-0.05863 0.195021 0.0
-0.0595257 0.186909 0.0
-0.0603414 0.178389 0.0
-0.0610134 0.169541 0.0
-0.0614892 0.160444 0.0
-0.0617284 0.151173 0.0
-0.0617022 0.1418 0.0
-0.0613927 0.132392 0.0
-0.0607918 0.123011 0.0
-0.0598993 0.113718 0.0
-0.0587221 0.104566 0.0
-0.0572717 0.0956033 0.0
-0.0555636 0.0868743 0.0
-0.053615 0.0784174 0.0
-0.0514444 0.0702668 0.0
-0.0490696 0.062452 0.0
-0.0465075 0.0549991 0.0
-0.0437732 0.0479305 0.0
-0.0408797 0.0412663 0.0
-0.0378378 0.0350244 0.0
-0.0346566 0.0292216 0.0
-0.0313435 0.0238739 0.0
-0.0279062 0.0189975 0.0
-0.0243533 0.0146099 0.0
-0.0206963 0.0107303 0.0
-0.0169523 0.00738178 0.0
-0.0131461 0.00459392 0.0
-0.00931332 0.00239708 0.0
-0.005502 0.000838638 0.0
-0.00177536 0.000113671 0.0
0.844609 0.00357482 0.0
0.568736 0.0241006 0.0
0.357498 0.059478 0.0
0.208058 0.0957549 0.0
0.107405 0.128907 0.0
0.0419844 0.157078 0.0
0.000731961 0.179818 0.0
-0.0243543 0.197287 0.0
-0.0390497 0.210063 0.0
-0.0474373 0.218958 0.0
-0.0521581 0.224655 0.0
-0.054874 0.227721 0.0
-0.0565979 0.22861 0.0
-0.0579198 0.227683 0.0
-0.0591585 0.225224 0.0
-0.0604614 0.221464 0.0
-0.0618708 0.216589 0.0
-0.0633674 0.210759 0.0
-0.0648982 0.204108 0.0
-0.0663954 0.196758 0.0
-0.0677875 0.188821 0.0
-0.0690072 0.180398 0.0
-0.0699955 0.171588 0.0
-0.0707045 0.162481 0.0
-0.0710981 0.153165 0.0
-0.071152 0.143721 0.0
-0.0708532 0.134225 0.0
-0.0701986 0.124748 0.0
-0.0691936 0.115353 0.0
-0.0678506 0.106099 0.0
-0.066187 0.0970379 0.0
-0.0642237 0.0882147 0.0
-0.0619833 0.0796691 0.0
-0.059489 0.071435 0.0
-0.0567631 0.0635414 0.0
-0.0538262 0.0560131 0.0
-0.0506966 0.048871 0.0
-0.0473895 0.0421334 0.0
-0.0439174 0.0358165 0.0
-0.0402901 0.0299357 0.0
-0.0365152 0.0245057 0.0
-0.0325991 0.0195424 0.0
-0.0285484 0.0150635 0.0
-0.0243713 0.0110898 0.0
-0.0200793 0.00764725 0.0
-0.0156897 0.00476985 0.0
-0.0112268 0.00249372 0.0
-0.00672332 0.000873615 0.0
-0.00222128 0.000118472 0.0
0.856237 0.00288843 0.0
0.596181 0.0205916 0.0
0.391236 0.0521208 0.0
0.241677 0.0855785 0.0
0.1376 0.117125 0.0
0.0674605 0.144752 0.0
0.0212839 0.167757 0.0
-0.0085804 0.186189 0.0
-0.0274528 0.200242 0.0
-0.0393671 0.210513 0.0
-0.047036 0.217585 0.0
-0.0522177 0.221952 0.0
-0.0560149 0.224026 0.0
-0.059093 0.224145 0.0
-0.06183 0.222589 0.0
-0.0644186 0.219587 0.0
-0.0669349 0.215336 0.0
-0.0693837 0.210003 0.0
-0.07173 0.20374 0.0
-0.0739182 0.196682 0.0
-0.0758866 0.188954 0.0
-0.0775752 0.180674 0.0
-0.0789314 0.171952 0.0
-0.0799129 0.162892 0.0
-0.0804897 0.153592 0.0
-0.0806433 0.144142 0.0
-0.0803671 0.134626 0.0
-0.0796648 0.125123 0.0
-0.0785486 0.1157 0.0
-0.0770378 0.106421 0.0
-0.0751567 0.0973386 0.0
-0.0729329 0.0885001 0.0
-0.0703952 0.0799453 0.0
-0.0675724 0.0717078 0.0
-0.0644918 0.0638152 0.0
-0.0611782 0.0562907 0.0
-0.0576531 0.0491531 0.0
-0.0539343 0.0424187 0.0
-0.0500357 0.0361014 0.0
-0.0459675 0.0302146 0.0
-0.0417368 0.0247715 0.0
-0.0373484 0.0197872 0.0
-0.0328057 0.015279 0.0
-0.0281123 0.0112688 0.0
-0.0232731 0.00778456 0.0
-0.0182961 0.00486353 0.0
-0.0131934 0.00254623 0.0
-0.00798134 0.000892793 0.0
-0.00268093 0.000121082 0.0
0.866213 0.00240366 0.0
0.620414 0.0178635 0.0
0.421908 0.0461421 0.0
0.273116 0.0770264 0.0
0.166616 0.106918 0.0
0.0926141 0.133757 0.0
0.0421597 0.156669 0.0
0.00813612 0.175514 0.0
-0.0147298 0.190464 0.0
-0.0300972 0.201758 0.0
-0.0407236 0.209896 0.0
-0.0484365 0.21531 0.0
-0.0544067 0.218364 0.0
-0.0593587 0.219373 0.0
-0.0637185 0.2186 0.0
-0.0677162 0.216272 0.0
-0.0714561 0.212586 0.0
-0.0749642 0.207717 0.0
-0.0782208 0.201826 0.0
-0.0811824 0.195059 0.0
-0.0837963 0.187552 0.0
-0.0860103 0.179437 0.0
-0.0877787 0.170833 0.0
-0.0890662 0.161857 0.0
-0.0898497 0.152615 0.0
-0.0901182 0.143208 0.0
-0.0898728 0.133727 0.0
-0.0891253 0.124255 0.0
-0.0878962 0.114867 0.0
-0.0862132 0.105626 0.0
-0.0841085 0.0965892 0.0
-0.0816175 0.0878045 0.0
-0.0787761 0.0793113 0.0
-0.0756195 0.071142 0.0
-0.0721805 0.0633228 0.0
-0.0684886 0.0558745 0.0
-0.0645688 0.0488135 0.0
-0.0604414 0.0421533 0.0
-0.0561216 0.0359054 0.0
-0.05162 0.0300806 0.0
-0.0469425 0.0246902 0.0
-0.0420916 0.0197476 0.0
-0.0370666 0.0152696 0.0
-0.0318656 0.011278 0.0
-0.0264856 0.00780198 0.0
-0.0209245 0.00488094 0.0
-0.015181 0.00255829 0.0
-0.00925504 0.000897764 0.0
-0.00314661 0.000121814 0.0
0.874904 0.00204688 0.0
0.642 0.0156936 0.0
0.449899 0.0412096 0.0
0.302497 0.0697636 0.0
0.194361 0.09802 0.0
0.11721 0.123928 0.0
0.0630369 0.146507 0.0
0.0252358 0.165469 0.0
-0.00123388 0.18089 0.0
-0.0199347 0.192914 0.0
-0.0334864 0.20185 0.0
-0.0437526 0.208076 0.0
-0.0519537 0.211917 0.0
-0.0588593 0.213656 0.0
-0.0649328 0.21354 0.0
-0.0704342 0.211787 0.0
-0.0754903 0.208594 0.0
-0.0801444 0.204138 0.0
-0.0843898 0.198584 0.0
-0.088193 0.192088 0.0
-0.0915099 0.184797 0.0
-0.0942958 0.17685 0.0
-0.0965123 0.16838 0.0
-0.0981319 0.15951 0.0
-0.0991393 0.150358 0.0
-0.0995322 0.141031 0.0
-0.0993208 0.131627 0.0
-0.0985262 0.122234 0.0
-0.0971789 0.112931 0.0
-0.0953157 0.103786 0.0
-0.0929786 0.0948545 0.0
-0.0902114 0.0861858 0.0
-0.0870582 0.0778185 0.0
-0.0835613 0.0697835 0.0
-0.0797597 0.0621046 0.0
-0.0756878 0.0548 0.0
-0.0713744 0.0478832 0.0
-0.0668425 0.0413644 0.0
-0.0621085 0.0352519 0.0
-0.0571827 0.0295537 0.0
-0.0520698 0.0242786 0.0
-0.0467689 0.0194379 0.0
-0.0412751 0.0150469 0.0
-0.0355797 0.0111268 0.0
-0.0296712 0.00770685 0.0
-0.0235363 0.00482722 0.0
-0.0171599 0.00253298 0.0
-0.0105251 0.000889779 0.0
-0.00361137 0.000120891 0.0
0.882568 0.00177364 0.0
0.661376 0.013929 0.0
0.47554 0.0370759 0.0
0.329961 0.0635218 0.0
0.220805 0.0901945 0.0
0.141098 0.115089 0.0
0.0836977 0.137159 0.0
0.0424989 0.156014 0.0
0.0127273 0.171615 0.0
-0.00914858 0.184101 0.0
-0.0255619 0.193602 0.0
-0.038371 0.200431 0.0
-0.0488288 0.204877 0.0
-0.0577374 0.207192 0.0
-0.0655883 0.207605 0.0
-0.0726634 0.206324 0.0
-0.0791069 0.20354 0.0
-0.084975 0.199432 0.0
-0.0902712 0.194169 0.0
-0.0949704 0.187913 0.0
-0.0990355 0.180818 0.0
-0.102429 0.173032 0.0
-0.10512 0.164698 0.0
-0.107089 0.155947 0.0
-0.10833 0.146906 0.0
-0.10885 0.137687 0.0
-0.10867 0.128395 0.0
-0.107821 0.119124 0.0
-0.106346 0.109953 0.0
-0.104291 0.100953 0.0
-0.101709 0.0921824 0.0
-0.098654 0.0836876 0.0
-0.0951788 0.0755066 0.0
-0.0913337 0.0676679 0.0
-0.0871642 0.0601928 0.0
-0.0827102 0.0530961 0.0
-0.0780046 0.0463877 0.0
-0.0730727 0.0400743 0.0
-0.0679323 0.0341606 0.0
-0.0625933 0.0286512 0.0
-0.0570583 0.0235516 0.0
-0.0513232 0.0188706 0.0
-0.0453775 0.0146214 0.0
-0.0392054 0.0108235 0.0
-0.0327863 0.00750523 0.0
-0.026095 0.0047065 0.0
-0.019102 0.00247263 0.0
-0.0117735 0.000869745 0.0
-0.00406885 0.000118455 0.0
0.889391 0.00155639 0.0
0.678877 0.0124624 0.0
0.499105 0.0335551 0.0
0.355645 0.0580879 0.0
0.245949 0.0832409 0.0
0.164175 0.107077 0.0
0.103965 0.128518 0.0
0.0596946 0.147095 0.0
0.0268563 0.162684 0.0
0.0020469 0.175357 0.0
-0.0171537 0.18523 0.0
-0.0324764 0.192475 0.0
-0.0451942 0.197357 0.0
-0.0561324 0.200101 0.0
-0.0658019 0.200917 0.0
-0.0745001 0.2 0.0
-0.0823832 0.197538 0.0
-0.0895163 0.193706 0.0
-0.09591 0.188679 0.0
-0.101545 0.182621 0.0
-0.106391 0.175695 0.0
-0.110417 0.168056 0.0
-0.113598 0.159854 0.0
-0.115926 0.151229 0.0
-0.117401 0.142313 0.0
-0.118044 0.133226 0.0
-0.117885 0.124078 0.0
-0.116969 0.114965 0.0
-0.11535 0.105971 0.0
-0.113087 0.0971653 0.0
-0.110245 0.0886068 0.0
-0.106888 0.0803415 0.0
-0.103078 0.0724048 0.0
-0.0988753 0.0648226 0.0
-0.0943317 0.0576125 0.0
-0.089493 0.0507857 0.0
-0.0843963 0.044348 0.0
-0.0790696 0.0383019 0.0
-0.0735316 0.0326483 0.0
-0.0677916 0.0273875 0.0
-0.0618502 0.0225217 0.0
-0.0556991 0.0180562 0.0
-0.0493221 0.0140014 0.0
-0.0426956 0.0103745 0.0
-0.0357892 0.00720188 0.0
-0.0285656 0.00452189 0.0
-0.0209806 0.00237896 0.0
-0.0129833 0.000838261 0.0
-0.00451305 0.000114584 0.0
0.895511 0.00137745 0.0
0.694767 0.0112171 0.0
0.52082 0.0305055 0.0
0.379671 0.0532902 0.0
0.269811 0.0769877 0.0
0.186375 0.0997422 0.0
0.123716 0.120463 0.0
0.0766658 0.138626 0.0
0.0409836 0.154044 0.0
0.0134082 0.166719 0.0
-0.0084543 0.176762 0.0
-0.0262407 0.184253 0.0
-0.0412031 0.189414 0.0
-0.0541789 0.192447 0.0
-0.0656902 0.193541 0.0
-0.0760434 0.192882 0.0
-0.0854015 0.190649 0.0
-0.0938346 0.18702 0.0
-0.101358 0.182167 0.0
-0.107955 0.176262 0.0
-0.113602 0.169472 0.0
-0.118272 0.161959 0.0
-0.121949 0.153881 0.0
-0.124632 0.145384 0.0
-0.126334 0.136607 0.0
-0.127086 0.127675 0.0
-0.126932 0.118701 0.0
-0.12593 0.109783 0.0