# vtk DataFile Version 3.0
Malha 2D com triângulos e temperatura
ASCII
DATASET UNSTRUCTURED_GRID

POINTS 2500 double
0 0 0
1 0 0
1 1 0
0 1 0
0.0204082 0 0
0.0408163 0 0
0.0612245 0 0
0.0816327 0 0
0.102041 0 0
0.122449 0 0
0.142857 0 0
0.163265 0 0
0.183673 0 0
0.204082 0 0
0.22449 0 0
0.244898 0 0
0.265306 0 0
0.285714 0 0
0.306122 0 0
0.326531 0 0
0.346939 0 0
0.367347 0 0
0.387755 0 0
0.408163 0 0
0.428571 0 0
0.44898 0 0
0.469388 0 0
0.489796 0 0
0.510204 0 0
0.530612 0 0
0.55102 0 0
0.571429 0 0
0.591837 0 0
0.612245 0 0
0.632653 0 0
0.653061 0 0
0.673469 0 0
0.693878 0 0
0.714286 0 0
0.734694 0 0
0.755102 0 0
0.77551 0 0
0.795918 0 0
0.816327 0 0
0.836735 0 0
0.857143 0 0
0.877551 0 0
0.897959 0 0
0.918367 0 0
0.938776 0 0
0.959184 0 0
0.979592 0 0
1 0.0204082 0
1 0.0408163 0
1 0.0612245 0
1 0.0816327 0
1 0.102041 0
1 0.122449 0
1 0.142857 0
1 0.163265 0
1 0.183673 0
1 0.204082 0
1 0.22449 0
1 0.244898 0
1 0.265306 0
1 0.285714 0
1 0.306122 0
1 0.326531 0
1 0.346939 0
1 0.367347 0
1 0.387755 0
1 0.408163 0
1 0.428571 0
1 0.44898 0
1 0.469388 0
1 0.489796 0
1 0.510204 0
1 0.530612 0
1 0.55102 0
1 0.571429 0
1 0.591837 0
1 0.612245 0
1 0.632653 0
1 0.653061 0
1 0.673469 0
1 0.693878 0
1 0.714286 0
1 0.734694 0
1 0.755102 0
1 0.77551 0
1 0.795918 0
1 0.816327 0
1 0.836735 0
1 0.857143 0
1 0.877551 0
1 0.897959 0
1 0.918367 0
1 0.938776 0
1 0.959184 0
1 0.979592 0
0.979592 1 0
0.959184 1 0
0.938776 1 0
0.918367 1 0
0.897959 1 0
0.877551 1 0
0.857143 1 0
0.836735 1 0
0.816327 1 0
0.795918 1 0
0.77551 1 0
0.755102 1 0
0.734694 1 0
0.714286 1 0
0.693878 1 0
0.673469 1 0
0.653061 1 0
0.632653 1 0
0.612245 1 0
0.591837 1 0
0.571429 1 0
0.55102 1 0
0.530612 1 0
0.510204 1 0
0.489796 1 0
0.469388 1 0
0.44898 1 0
0.428571 1 0
0.408163 1 0
0.387755 1 0
0.367347 1 0
0.346939 1 0
0.326531 1 0
0.306122 1 0
0.285714 1 0
0.265306 1 0
0.244898 1 0
0.22449 1 0
0.204082 1 0
0.183673 1 0
0.163265 1 0
0.142857 1 0
0.122449 1 0
0.102041 1 0
0.0816327 1 0
0.0612245 1 0
0.0408163 1 0
0.0204082 1 0
0 0.979592 0
0 0.959184 0
0 0.938776 0
0 0.918367 0
0 0.897959 0
0 0.877551 0
0 0.857143 0
0 0.836735 0
0 0.816327 0
0 0.795918 0
0 0.77551 0
0 0.755102 0
0 0.734694 0
0 0.714286 0
0 0.693878 0
0 0.673469 0
0 0.653061 0
0 0.632653 0
0 0.612245 0
0 0.591837 0
0 0.571429 0
0 0.55102 0
0 0.530612 0
0 0.510204 0
0 0.489796 0
0 0.469388 0
0 0.44898 0
0 0.428571 0
0 0.408163 0
0 0.387755 0
0 0.367347 0
0 0.346939 0
0 0.326531 0
0 0.306122 0
0 0.285714 0
0 0.265306 0
0 0.244898 0
0 0.22449 0
0 0.204082 0
0 0.183673 0
0 0.163265 0
0 0.142857 0
0 0.122449 0
0 0.102041 0
0 0.0816327 0
0 0.0612245 0
0 0.0408163 0
0 0.0204082 0
0.0204082 0.979592 0
0.0204082 0.959184 0
0.0204082 0.938776 0
0.0204082 0.918367 0
0.0204082 0.897959 0
0.0204082 0.877551 0
0.0204082 0.857143 0
0.0204082 0.836735 0
0.0204082 0.816327 0
0.0204082 0.795918 0
0.0204082 0.77551 0
0.0204082 0.755102 0
0.0204082 0.734694 0
0.0204082 0.714286 0
0.0204082 0.693878 0
0.0204082 0.673469 0
0.0204082 0.653061 0
0.0204082 0.632653 0
0.0204082 0.612245 0
0.0204082 0.591837 0
0.0204082 0.571429 0
0.0204082 0.55102 0
0.0204082 0.530612 0
0.0204082 0.510204 0
0.0204082 0.489796 0
0.0204082 0.469388 0
0.0204082 0.44898 0
0.0204082 0.428571 0
0.0204082 0.408163 0
0.0204082 0.387755 0
0.0204082 0.367347 0
0.0204082 0.346939 0
0.0204082 0.326531 0
0.0204082 0.306122 0
0.0204082 0.285714 0
0.0204082 0.265306 0
0.0204082 0.244898 0
0.0204082 0.22449 0
0.0204082 0.204082 0
0.0204082 0.183673 0
0.0204082 0.163265 0
0.0204082 0.142857 0
0.0204082 0.122449 0
0.0204082 0.102041 0
0.0204082 0.0816327 0
0.0204082 0.0612245 0
0.0204082 0.0408163 0
0.0204082 0.0204082 0
0.0408163 0.979592 0
0.0408163 0.959184 0
0.0408163 0.938776 0
0.0408163 0.918367 0
0.0408163 0.897959 0
0.0408163 0.877551 0
0.0408163 0.857143 0
0.0408163 0.836735 0
0.0408163 0.816327 0
0.0408163 0.795918 0
0.0408163 0.77551 0
0.0408163 0.755102 0
0.0408163 0.734694 0
0.0408163 0.714286 0
0.0408163 0.693878 0
0.0408163 0.673469 0
0.0408163 0.653061 0
0.0408163 0.632653 0
0.0408163 0.612245 0
0.0408163 0.591837 0
0.0408163 0.571429 0
0.0408163 0.55102 0
0.0408163 0.530612 0
0.0408163 0.510204 0
0.0408163 0.489796 0
0.0408163 0.469388 0
0.0408163 0.44898 0
0.0408163 0.428571 0
0.0408163 0.408163 0
0.0408163 0.387755 0
0.0408163 0.367347 0
0.0408163 0.346939 0
0.0408163 0.326531 0
0.0408163 0.306122 0
0.0408163 0.285714 0
0.0408163 0.265306 0
0.0408163 0.244898 0
0.0408163 0.22449 0
0.0408163 0.204082 0
0.0408163 0.183673 0
0.0408163 0.163265 0
0.0408163 0.142857 0
0.0408163 0.122449 0
0.0408163 0.102041 0
0.0408163 0.0816327 0
0.0408163 0.0612245 0
0.0408163 0.0408163 0
0.0408163 0.0204082 0
0.0612245 0.979592 0
0.0612245 0.959184 0
0.0612245 0.938776 0
0.0612245 0.918367 0
0.0612245 0.897959 0
0.0612245 0.877551 0
0.0612245 0.857143 0
0.0612245 0.836735 0
0.0612245 0.816327 0
0.0612245 0.795918 0
0.0612245 0.77551 0
0.0612245 0.755102 0
0.0612245 0.734694 0
0.0612245 0.714286 0
0.0612245 0.693878 0
0.0612245 0.673469 0
0.0612245 0.653061 0
0.0612245 0.632653 0
0.0612245 0.612245 0
0.0612245 0.591837 0
0.0612245 0.571429 0
0.0612245 0.55102 0
0.0612245 0.530612 0
0.0612245 0.510204 0
0.0612245 0.489796 0
0.0612245 0.469388 0
0.0612245 0.44898 0
0.0612245 0.428571 0
0.0612245 0.408163 0
0.0612245 0.387755 0
0.0612245 0.367347 0
0.0612245 0.346939 0
0.0612245 0.326531 0
0.0612245 0.306122 0
0.0612245 0.285714 0
0.0612245 0.265306 0
0.0612245 0.244898 0
0.0612245 0.22449 0
0.0612245 0.204082 0
0.0612245 0.183673 0
0.0612245 0.163265 0
0.0612245 0.142857 0
0.0612245 0.122449 0
0.0612245 0.102041 0
0.0612245 0.0816327 0
0.0612245 0.0612245 0
0.0612245 0.0408163 0
0.0612245 0.0204082 0
0.0816327 0.979592 0
0.0816327 0.959184 0
0.0816327 0.938776 0
0.0816327 0.918367 0
0.0816327 0.897959 0
0.0816327 0.877551 0
0.0816327 0.857143 0
0.0816327 0.836735 0
0.0816327 0.816327 0
0.0816327 0.795918 0
0.0816327 0.77551 0
0.0816327 0.755102 0
0.0816327 0.734694 0
0.0816327 0.714286 0
0.0816327 0.693878 0
0.0816327 0.673469 0
0.0816327 0.653061 0
0.0816327 0.632653 0
0.0816327 0.612245 0
0.0816327 0.591837 0
0.0816327 0.571429 0
0.0816327 0.55102 0
0.0816327 0.530612 0
0.0816327 0.510204 0
0.0816327 0.489796 0
0.0816327 0.469388 0
0.0816327 0.44898 0
0.0816327 0.428571 0
0.0816327 0.408163 0
0.0816327 0.387755 0
0.0816327 0.367347 0
0.0816327 0.346939 0
0.0816327 0.326531 0
0.0816327 0.306122 0
0.0816327 0.285714 0
0.0816327 0.265306 0
0.0816327 0.244898 0
0.0816327 0.22449 0
0.0816327 0.204082 0
0.0816327 0.183673 0
0.0816327 0.163265 0
0.0816327 0.142857 0
0.0816327 0.122449 0
0.0816327 0.102041 0
0.0816327 0.0816327 0
0.0816327 0.0612245 0
0.0816327 0.0408163 0
0.0816327 0.0204082 0
0.102041 0.979592 0
0.102041 0.959184 0
0.102041 0.938776 0
0.102041 0.918367 0
0.102041 0.897959 0
0.102041 0.877551 0
0.102041 0.857143 0
0.102041 0.836735 0
0.102041 0.816327 0
0.102041 0.795918 0
0.102041 0.77551 0
0.102041 0.755102 0
0.102041 0.734694 0
0.102041 0.714286 0
0.102041 0.693878 0
0.102041 0.673469 0
0.102041 0.653061 0
0.102041 0.632653 0
0.102041 0.612245 0
0.102041 0.591837 0
0.102041 0.571429 0
0.102041 0.55102 0
0.102041 0.530612 0
0.102041 0.510204 0
0.102041 0.489796 0
0.102041 0.469388 0
0.102041 0.44898 0
0.102041 0.428571 0
0.102041 0.408163 0
0.102041 0.387755 0
0.102041 0.367347 0
0.102041 0.346939 0
0.102041 0.326531 0
0.102041 0.306122 0
0.102041 0.285714 0
0.102041 0.265306 0
0.102041 0.244898 0
0.102041 0.22449 0
0.102041 0.204082 0
0.102041 0.183673 0
0.102041 0.163265 0
0.102041 0.142857 0
0.102041 0.122449 0
0.102041 0.102041 0
0.102041 0.0816327 0
0.102041 0.0612245 0
0.102041 0.0408163 0
0.102041 0.0204082 0
0.122449 0.979592 0
0.122449 0.959184 0
0.122449 0.938776 0
0.122449 0.918367 0
0.122449 0.897959 0
0.122449 0.877551 0
0.122449 0.857143 0
0.122449 0.836735 0
0.122449 0.816327 0
0.122449 0.795918 0
0.122449 0.77551 0
0.122449 0.755102 0
0.122449 0.734694 0
0.122449 0.714286 0
0.122449 0.693878 0
0.122449 0.673469 0
0.122449 0.653061 0
0.122449 0.632653 0
0.122449 0.612245 0
0.122449 0.591837 0
0.122449 0.571429 0
0.122449 0.55102 0
0.122449 0.530612 0
0.122449 0.510204 0
0.122449 0.489796 0
0.122449 0.469388 0
0.122449 0.44898 0
0.122449 0.428571 0
0.122449 0.408163 0
0.122449 0.387755 0
0.122449 0.367347 0
0.122449 0.346939 0
0.122449 0.326531 0
0.122449 0.306122 0
0.122449 0.285714 0
0.122449 0.265306 0
0.122449 0.244898 0
0.122449 0.22449 0
0.122449 0.204082 0
0.122449 0.183673 0
0.122449 0.163265 0
0.122449 0.142857 0
0.122449 0.122449 0
0.122449 0.102041 0
0.122449 0.0816327 0
0.122449 0.0612245 0
0.122449 0.0408163 0
0.122449 0.0204082 0
0.142857 0.979592 0
0.142857 0.959184 0
0.142857 0.938776 0
0.142857 0.918367 0
0.142857 0.897959 0
0.142857 0.877551 0
0.142857 0.857143 0
0.142857 0.836735 0
0.142857 0.816327 0
0.142857 0.795918 0
0.142857 0.77551 0
0.142857 0.755102 0
0.142857 0.734694 0
0.142857 0.714286 0
0.142857 0.693878 0
0.142857 0.673469 0
0.142857 0.653061 0
0.142857 0.632653 0
0.142857 0.612245 0
0.142857 0.591837 0
0.142857 0.571429 0
0.142857 0.55102 0
0.142857 0.530612 0
0.142857 0.510204 0
0.142857 0.489796 0
0.142857 0.469388 0
0.142857 0.44898 0
0.142857 0.428571 0
0.142857 0.408163 0
0.142857 0.387755 0
0.142857 0.367347 0
0.142857 0.346939 0
0.142857 0.326531 0
0.142857 0.306122 0
0.142857 0.285714 0
0.142857 0.265306 0
0.142857 0.244898 0
0.142857 0.22449 0
0.142857 0.204082 0
0.142857 0.183673 0
0.142857 0.163265 0
0.142857 0.142857 0
0.142857 0.122449 0
0.142857 0.102041 0
0.142857 0.0816327 0
0.142857 0.0612245 0
0.142857 0.0408163 0
0.142857 0.0204082 0
0.163265 0.979592 0
0.163265 0.959184 0
0.163265 0.938776 0
0.163265 0.918367 0
0.163265 0.897959 0
0.163265 0.877551 0
0.163265 0.857143 0
0.163265 0.836735 0
0.163265 0.816327 0
0.163265 0.795918 0
0.163265 0.77551 0
0.163265 0.755102 0
0.163265 0.734694 0
0.163265 0.714286 0
0.163265 0.693878 0
0.163265 0.673469 0
0.163265 0.653061 0
0.163265 0.632653 0
0.163265 0.612245 0
0.163265 0.591837 0
0.163265 0.571429 0
0.163265 0.55102 0
[...]
CELL_DATA 2401
VECTORS velocity double
0.257585 0.157303 0.0
-0.0025956 0.26449 0.0
-0.0322162 0.205615 0.0
-0.0253212 0.15084 0.0
-0.0160301 0.113391 0.0
-0.00969902 0.0880683 0.0
-0.00594665 0.0709622 0.0
-0.00378001 0.0591746 0.0
-0.00251009 0.0508084 0.0
-0.00174134 0.0446907 0.0
-0.00125853 0.0400865 0.0
-0.000945062 0.0365225 0.0
-0.00073628 0.0336845 0.0
-0.000594902 0.0313578 0.0
-0.000498414 0.0293923 0.0
-0.000432587 0.0276816 0.0
-0.000388043 0.0261491 0.0
-0.000358378 0.0247398 0.0
-0.000339088 0.0234143 0.0
-0.000326925 0.0221444 0.0
-0.000319507 0.020911 0.0
-0.000315065 0.0197014 0.0
-0.000312277 0.0185076 0.0
-0.000310161 0.0173257 0.0
-0.000307994 0.0161547 0.0
-0.00030526 0.0149953 0.0
-0.000301605 0.0138501 0.0
-0.000296805 0.0127224 0.0
-0.000290739 0.0116163 0.0
-0.000283365 0.0105363 0.0
-0.000274698 0.00948665 0.0
-0.000264795 0.00847184 0.0
-0.000253735 0.00749605 0.0
-0.000241608 0.00656321 0.0
-0.000228501 0.00567699 0.0
-0.000214486 0.0048408 0.0
-0.000199614 0.00405787 0.0
-0.000183899 0.00333128 0.0
-0.000167316 0.00266409 0.0
-0.000149786 0.00205944 0.0
-0.00013117 0.00152069 0.0
-0.000111258 0.0010515 0.0
-8.97742e-05 0.000655936 0.0
-6.64104e-05 0.000338454 0.0
-4.0967e-05 0.000103596 0.0
-1.37791e-05 -4.4858e-05 0.0
1.31622e-05 -0.000105958 0.0
3.38734e-05 -8.91451e-05 0.0
3.188e-05 -3.17342e-05 0.0
0.340821 0.123001 0.0
-0.000497364 0.249638 0.0
-0.0650357 0.272027 0.0
-0.0630946 0.252703 0.0
-0.0484451 0.222276 0.0
-0.0349926 0.1924 0.0
-0.0250465 0.166857 0.0
-0.0181128 0.146148 0.0
-0.0133401 0.129673 0.0
-0.0100398 0.116598 0.0
-0.00773464 0.106147 0.0
-0.00610886 0.0976814 0.0
-0.00495438 0.090698 0.0
-0.00413218 0.0848124 0.0
-0.0035474 0.0797325 0.0
-0.00313384 0.0752379 0.0
-0.00284428 0.0711636 0.0
-0.00264437 0.0673864 0.0
-0.00250873 0.063816 0.0
-0.00241832 0.0603869 0.0
-0.00235872 0.0570535 0.0
-0.00231898 0.0537848 0.0
-0.00229072 0.050562 0.0
-0.00226763 0.0473752 0.0
-0.00224498 0.0442214 0.0
-0.00221933 0.0411026 0.0
-0.00218828 0.0380246 0.0
-0.00215024 0.0349959 0.0
-0.00210428 0.0320265 0.0
-0.00204997 0.0291271 0.0
-0.00198729 0.026309 0.0
-0.00191644 0.0235833 0.0
-0.00183784 0.0209608 0.0
-0.00175195 0.0184516 0.0
-0.00165925 0.0160653 0.0
-0.00156016 0.0138109 0.0
-0.00145499 0.0116971 0.0
-0.00134389 0.00973187 0.0
-0.00122683 0.0079234 0.0
-0.00110358 0.0062797 0.0
-0.000973729 0.00480899 0.0
-0.000836723 0.00351976 0.0
-0.000692046 0.00242061 0.0
-0.000539581 0.00151979 0.0
-0.000380424 0.000824051 0.0
-0.000218713 0.00033635 0.0
-6.54176e-05 5.13819e-05 0.0
5.52195e-05 -5.38732e-05 0.0
8.87222e-05 -3.29776e-05 0.0
0.50098 0.0768515 0.0
0.0993231 0.183412 0.0
-0.03903 0.249604 0.0
-0.073163 0.266251 0.0
-0.071799 0.257991 0.0
-0.0607229 0.240115 0.0
-0.0487094 0.219876 0.0
-0.0383597 0.200565 0.0
-0.0301417 0.183407 0.0
-0.0238447 0.168638 0.0
-0.0191027 0.15607 0.0
-0.0155662 0.145367 0.0
-0.0129476 0.136173 0.0
-0.0110222 0.12816 0.0
-0.0096183 0.121053 0.0
-0.00860535 0.114623 0.0
-0.00788401 0.108691 0.0
-0.0073783 0.103117 0.0
-0.00702979 0.0977952 0.0
-0.00679333 0.0926481 0.0
-0.0066339 0.0876202 0.0
-0.00652433 0.0826747 0.0
-0.00644363 0.0777893 0.0
-0.00637574 0.0729531 0.0
-0.00630854 0.0681641 0.0
-0.00623311 0.063427 0.0
-0.00614317 0.0587513 0.0
-0.00603454 0.05415 0.0
-0.0059047 0.0496381 0.0
-0.00575249 0.0452318 0.0
-0.00557769 0.0409475 0.0
-0.00538081 0.0368018 0.0
-0.00516279 0.0328105 0.0
-0.00492482 0.0289888 0.0
-0.0046681 0.0253507 0.0
-0.00439371 0.0219099 0.0
-0.0041025 0.0186788 0.0
-0.00379498 0.0156697 0.0
-0.00347126 0.0128944 0.0
-0.00313111 0.0103642 0.0
-0.00277403 0.00809065 0.0
-0.0023995 0.00608508 0.0
-0.00200752 0.00435826 0.0
-0.00159958 0.00291969 0.0
-0.00118056 0.00177603 0.0
-0.000762288 0.000928494 0.0
-0.000369853 0.000367563 0.0
-5.05913e-05 6.67671e-05 0.0
0.000103585 -1.15624e-05 0.0
0.610271 0.0480949 0.0
0.19611 0.134131 0.0
0.0118414 0.20973 0.0
-0.0577515 0.246851 0.0
-0.0760742 0.257343 0.0
-0.0740865 0.25371 0.0
-0.0651852 0.243127 0.0
-0.0549399 0.22985 0.0
-0.0454982 0.216153 0.0
-0.0375365 0.203115 0.0
-0.0311228 0.191156 0.0
-0.0260974 0.180351 0.0
-0.022236 0.170609 0.0
-0.0193163 0.161773 0.0
-0.0171418 0.153669 0.0
-0.0155475 0.146135 0.0
-0.0143985 0.139028 0.0
-0.0135857 0.132233 0.0
-0.0130217 0.125658 0.0
-0.0126365 0.119234 0.0
-0.0123746 0.112913 0.0
-0.0121919 0.106663 0.0
-0.0120541 0.100467 0.0
-0.0119342 0.094317 0.0
-0.0118121 0.0882171 0.0
-0.0116727 0.0821765 0.0
-0.0115052 0.0762096 0.0
-0.0113027 0.0703341 0.0
-0.011061 0.06457 0.0
-0.010778 0.0589382 0.0
-0.0104534 0.0534597 0.0
-0.0100883 0.0481555 0.0
-0.00968433 0.0430454 0.0
-0.00924359 0.0381483 0.0
-0.00876826 0.0334821 0.0
-0.00826036 0.0290634 0.0
-0.0077215 0.024908 0.0
-0.00715276 0.0210307 0.0
-0.0065547 0.0174459 0.0
-0.00592739 0.0141672 0.0
-0.00527063 0.0112081 0.0
-0.00458451 0.00858131 0.0
-0.00387027 0.00629853 0.0
-0.00313195 0.00436962 0.0
-0.00237909 0.00280107 0.0
-0.00163153 0.00159394 0.0
-0.000927001 0.000738622 0.0
-0.000330795 0.000213538 0.0
4.126e-05 1.51359e-05 0.0
0.680751 0.0302044 0.0
0.279012 0.0983131 0.0
0.0701322 0.171174 0.0
-0.0272366 0.217677 0.0
-0.0654347 0.240982 0.0
-0.0753629 0.249157 0.0
-0.0728012 0.248123 0.0
-0.0654503 0.241991 0.0
-0.0569369 0.233358 0.0
-0.0488728 0.223741 0.0
-0.0418835 0.213967 0.0
-0.036123 0.204446 0.0
-0.0315325 0.195338 0.0
-0.027968 0.186671 0.0
-0.025262 0.178404 0.0
-0.0232518 0.170466 0.0
-0.0217914 0.162782 0.0
-0.0207545 0.155281 0.0
-0.020035 0.147905 0.0
-0.0195448 0.140609 0.0
-0.0192121 0.133364 0.0
-0.0189784 0.12615 0.0
-0.0187975 0.118963 0.0
-0.0186329 0.111804 0.0
-0.0184567 0.104686 0.0
-0.0182485 0.0976235 0.0
-0.0179934 0.0906381 0.0
-0.0176819 0.0837532 0.0
-0.0173083 0.0769936 0.0
-0.0168702 0.0703848 0.0
-0.0163676 0.0639521 0.0
-0.0158022 0.0577201 0.0
-0.0151767 0.0517119 0.0
-0.0144945 0.0459495 0.0
-0.013759 0.0404533 0.0
-0.0129735 0.0352424 0.0
-0.0121405 0.0303345 0.0
-0.011262 0.0257463 0.0
-0.0103392 0.0214936 0.0
-0.00937292 0.0175915 0.0
-0.00836355 0.0140543 0.0
-0.0073122 0.0108954 0.0
-0.00622174 0.00812709 0.0
-0.00509895 0.00575952 0.0
-0.00395777 0.00379994 0.0
-0.00282449 0.00225143 0.0
-0.00174563 0.00110805 0.0
-0.000796806 0.000358466 0.0
-0.000103096 4.04286e-05 0.0
0.73019 0.0192158 0.0
0.349593 0.0731016 0.0
0.128422 0.139325 0.0
0.0113465 0.188174 0.0
-0.0447548 0.219253 0.0
-0.0671289 0.235936 0.0
-0.0724493 0.242769 0.0
-0.0697423 0.243235 0.0
-0.0637587 0.239814 0.0
-0.0569235 0.234143 0.0
-0.0504081 0.227251 0.0
-0.0447154 0.219753 0.0
-0.0399997 0.211997 0.0
-0.0362408 0.204162 0.0
-0.0333386 0.196328 0.0
-0.0311625 0.188518 0.0
-0.0295777 0.180729 0.0
-0.0284574 0.172945 0.0
-0.0276886 0.165149 0.0
-0.0271736 0.157328 0.0
-0.02683 0.149476 0.0
-0.0265895 0.141597 0.0
-0.0263968 0.133698 0.0
-0.0262084 0.125797 0.0
-0.0259903 0.117914 0.0
-0.0257177 0.110075 0.0
-0.025373 0.102308 0.0
-0.0249449 0.0946424 0.0
-0.0244269 0.0871096 0.0
-0.023817 0.0797392 0.0
-0.0231158 0.0725604 0.0
-0.0223263 0.0656008 0.0
-0.0214527 0.0588867 0.0
-0.0205 0.0524422 0.0
-0.0194733 0.0462896 0.0
-0.0183773 0.0404495 0.0
-0.0172157 0.034941 0.0
-0.0159919 0.0297816 0.0
-0.0147079 0.024988 0.0
-0.0133653 0.0205758 0.0
-0.0119654 0.0165596 0.0
-0.0105106 0.0129532 0.0
-0.00900515 0.00976924 0.0
-0.00745822 0.00701884 0.0
-0.00588688 0.00471108 0.0
-0.00432142 0.00285298 0.0
-0.0028125 0.00144488 0.0
-0.0014386 0.000488279 0.0
-0.000322264 6.19364e-05 0.0
0.766203 0.0125956 0.0
0.408987 0.0556752 0.0
0.183274 0.114388 0.0
0.0525878 0.162243 0.0
-0.0179894 0.197017 0.0
-0.0520053 0.219336 0.0
-0.0656193 0.232061 0.0
-0.0684724 0.237969 0.0
-0.0660659 0.239216 0.0
-0.0614555 0.237362 0.0
-0.0562832 0.233479 0.0
-0.0513816 0.228282 0.0
-0.0471256 0.222227 0.0
-0.0436375 0.215602 0.0
-0.0409052 0.20858 0.0
-0.0388497 0.201264 0.0
-0.0373642 0.193714 0.0
-0.0363349 0.185967 0.0
-0.0356524 0.178049 0.0
-0.0352174 0.169981 0.0
-0.0349435 0.161785 0.0
-0.0347572 0.153485 0.0
-0.0345981 0.14511 0.0
-0.034418 0.136689 0.0
-0.0341796 0.128256 0.0
-0.0338553 0.119847 0.0
-0.0334263 0.111499 0.0
-0.0328806 0.103248 0.0
-0.0322123 0.0951314 0.0
-0.0314202 0.0871827 0.0
-0.0305066 0.0794353 0.0
-0.0294764 0.07192 0.0
-0.0283359 0.0646652 0.0
-0.0270921 0.0576968 0.0
-0.0257522 0.0510385 0.0
-0.0243225 0.0447118 0.0
-0.0228087 0.0387361 0.0
-0.0212152 0.0331295 0.0
-0.0195453 0.0279087 0.0
-0.0178016 0.0230892 0.0
-0.0159863 0.0186858 0.0
-0.0141025 0.0147124 0.0
-0.012156 0.0111822 0.0
-0.0101569 0.00810775 0.0
-0.00812397 0.00550089 0.0
-0.00608846 0.00337384 0.0
-0.00410075 0.00173457 0.0
-0.00223582 0.000597878 0.0
-0.000605364 7.921e-05 0.0
0.793199 0.00859205 0.0
0.458925 0.0435177 0.0
0.233523 0.0950741 0.0
0.0938669 0.140428 0.0
0.0123102 0.176184 0.0
-0.0321796 0.202025 0.0
-0.0538812 0.218928 0.0
-0.0626357 0.229063 0.0
-0.0643981 0.234199 0.0
-0.0626802 0.235724 0.0
-0.0594999 0.234666 0.0
-0.0559744 0.231754 0.0
-0.0526834 0.2275 0.0
-0.0498906 0.22225 0.0
-0.0476786 0.216244 0.0
-0.0460298 0.209642 0.0
-0.0448751 0.202558 0.0
-0.0441227 0.195074 0.0
-0.043675 0.187253 0.0
-0.0434379 0.17915 0.0
-0.0433261 0.170813 0.0
-0.0432656 0.162289 0.0
-0.0431945 0.153624 0.0
-0.043063 0.144865 0.0
-0.0428326 0.136058 0.0
-0.0424754 0.127251 0.0
-0.0419726 0.118488 0.0
-0.0413135 0.109813 0.0
-0.0404936 0.10127 0.0
-0.0395139 0.0928969 0.0
-0.0383792 0.084731 0.0
-0.037097 0.0768056 0.0
-0.0356765 0.0691511 0.0
-0.0341273 0.0617948 0.0
-0.0324589 0.054761 0.0
-0.0306801 0.0480716 0.0
-0.0287983 0.0417461 0.0
-0.0268196 0.0358022 0.0
-0.0247484 0.0302562 0.0
-0.0225884 0.0251233 0.0
-0.0203424 0.0204179 0.0
-0.0180142 0.0161542 0.0
-0.0156096 0.0123461 0.0
-0.0131393 0.00900765 0.0
-0.0106213 0.00615424 0.0
-0.00808509 0.00380372 0.0
-0.00557697 0.00197199 0.0
-0.00316362 0.000686222 0.0
-0.000940593 9.25247e-05 0.0
0.814125 0.00612799 0.0
0.501215 0.034888 0.0
0.279021 0.0801163 0.0
0.133747 0.122408 0.0
0.0437154 0.157822 0.0
-0.0094404 0.185355 0.0
-0.0386245 0.205085 0.0
-0.0532419 0.218346 0.0
-0.0594325 0.226568 0.0
-0.0610068 0.23093 0.0
-0.0602649 0.23236 0.0
-0.0585552 0.231559 0.0
-0.0566346 0.229044 0.0
-0.0548967 0.225192 0.0
-0.0535156 0.220276 0.0
-0.0525369 0.2145 0.0
-0.0519333 0.208014 0.0
-0.0516401 0.200936 0.0
-0.0515765 0.193363 0.0
-0.0516581 0.185375 0.0
-0.0518053 0.177047 0.0
-0.051947 0.168446 0.0
-0.052023 0.159637 0.0
-0.0519846 0.150682 0.0
-0.0517947 0.141641 0.0
-0.0514269 0.132572 0.0
-0.0508644 0.123528 0.0
-0.050099 0.114563 0.0
-0.0491293 0.105724 0.0
-0.0479597 0.0970544 0.0
-0.0465985 0.0885954 0.0
-0.0450568 0.0803828 0.0
-0.0433472 0.0724484 0.0
-0.0414826 0.0648206 0.0
-0.0394757 0.0575238 0.0
-0.0373377 0.0505798 0.0
-0.0350783 0.0440077 0.0
-0.0327052 0.0378243 0.0
-0.0302243 0.0320452 0.0
-0.0276399 0.0266847 0.0
-0.0249553 0.0217569 0.0
-0.0221744 0.0172758 0.0
-0.0193023 0.0132561 0.0
-0.0163485 0.00971381 0.0
-0.0133285 0.00666761 0.0
-0.0102678 0.00414094 0.0
-0.00720525 0.00215716 0.0
-0.00419601 0.000754177 0.0
-0.00131653 0.000102376 0.0
0.830866 0.00457145 0.0
0.537386 0.0286307 0.0
0.320078 0.0684295 0.0
0.171637 0.107541 0.0
0.0752276 0.141872 0.0
0.0150755 0.169878 0.0
-0.0209285 0.191415 0.0
-0.0411724 0.206918 0.0
-0.0518334 0.217512 0.0
-0.056902 0.224172 0.0
-0.0588804 0.22771 0.0
-0.0592973 0.228769 0.0
-0.0590558 0.227845 0.0
-0.0586618 0.225321 0.0
-0.0583729 0.221485 0.0
-0.0582941 0.216564 0.0
-0.0584402 0.210735 0.0
-0.0587751 0.204142 0.0
-0.059237 0.196906 0.0
-0.0597544 0.189133 0.0
-0.060256 0.180917 0.0
-0.0606762 0.172346 0.0
-0.0609592 0.1635 0.0
-0.0610597 0.154457 0.0
-0.060944 0.14529 0.0
-0.0605891 0.136066 0.0
-0.0599821 0.12685 0.0
-0.059119 0.1177 0.0
-0.058003 0.108671 0.0
-0.0566427 0.0998112 0.0
-0.0550514 0.091164 0.0
-0.0532445 0.0827676 0.0
-0.0512392 0.0746555 0.0
-0.0490523 0.066856 0.0
-0.0467 0.059394 0.0
-0.0441966 0.0522902 0.0
-0.0415541 0.0455628 0.0
-0.0387823 0.0392276 0.0
-0.0358882 0.0332988 0.0
-0.0328767 0.0277898 0.0
-0.0297513 0.0227138 0.0
-0.0265149 0.0180845 0.0
-0.0231715 0.0139174 0.0
-0.0197276 0.01023 0.0
-0.0161949 0.00704426 0.0
-0.0125924 0.00438855 0.0
-0.0089496 0.00229271 0.0
-0.00530769 0.00080341 0.0
-0.0017227 0.000109283 0.0
0.844621 0.00355595 0.0
0.568648 0.0239916 0.0
0.357137 0.0592007 0.0
0.207273 0.0952577 0.0
0.106101 0.128141 0.0
0.0401307 0.155996 0.0
-0.0016475 0.178384 0.0
-0.0271554 0.195446 0.0
-0.0421918 0.207804 0.0
-0.05082 0.216272 0.0
-0.0556767 0.221541 0.0
-0.0584258 0.224184 0.0
-0.0600871 0.224663 0.0
-0.0612602 0.223345 0.0
-0.0622746 0.220522 0.0
-0.0632889 0.216431 0.0
-0.0643569 0.211265 0.0
-0.0654701 0.205185 0.0
-0.0665864 0.198332 0.0
-0.0676481 0.19083 0.0
-0.0685936 0.182791 0.0
-0.069365 0.17432 0.0
-0.0699124 0.165513 0.0
-0.0701959 0.156461 0.0
-0.0701868 0.147247 0.0
-0.0698677 0.137952 0.0
-0.069231 0.128647 0.0
-0.0682785 0.119399 0.0
-0.067019 0.110267 0.0
-0.0654674 0.101303 0.0
-0.0636426 0.0925555 0.0
-0.0615658 0.0840632 0.0
-0.0592592 0.0758606 0.0
-0.0567445 0.0679763 0.0
-0.0540419 0.0604343 0.0
-0.0511692 0.0532546 0.0
-0.0481411 0.0464538 0.0
-0.0449694 0.0400461 0.0
-0.0416622 0.0340441 0.0
-0.038225 0.0284597 0.0
-0.0346606 0.023305 0.0
-0.0309707 0.0185933 0.0
-0.0271567 0.0143402 0.0
-0.0232213 0.0105646 0.0
-0.0191708 0.00729102 0.0
-0.0150161 0.00455189 0.0
-0.0107754 0.00238235 0.0
-0.00647495 0.000835803 0.0
-0.00214975 0.000113713 0.0
0.856185 0.00286789 0.0
0.595949 0.0204703 0.0
0.390672 0.0518133 0.0
0.240639 0.0850344 0.0
0.135999 0.116299 0.0
0.0652705 0.143604 0.0
0.0185397 0.166253 0.0
-0.0117869 0.184291 0.0
-0.0310147 0.197926 0.0
-0.0431732 0.207778 0.0
-0.0509753 0.214432 0.0
-0.0561809 0.218389 0.0
-0.0598992 0.220065 0.0
-0.0628052 0.219807 0.0
-0.0652884 0.217898 0.0
-0.0675533 0.214576 0.0
-0.069688 0.21004 0.0
-0.0717092 0.204466 0.0
-0.0735932 0.198005 0.0
-0.0752961 0.190798 0.0
-0.0767667 0.182971 0.0
-0.0779555 0.174643 0.0
-0.0788197 0.165923 0.0
-0.0793263 0.156915 0.0
-0.0794534 0.147715 0.0
-0.0791902 0.138411 0.0
-0.0785362 0.129083 0.0
-0.0775005 0.119804 0.0
-0.0760992 0.110639 0.0
-0.0743544 0.101645 0.0
-0.072292 0.0928703 0.0
-0.06994 0.0843572 0.0
-0.0673265 0.07614 0.0
-0.0644789 0.068247 0.0
-0.0614219 0.0607011 0.0
-0.0581773 0.0535208 0.0
-0.0547629 0.0467207 0.0
-0.0511922 0.040313 0.0
-0.0474747 0.0343084 0.0
-0.0436158 0.0287169 0.0
-0.0396176 0.0235491 0.0
-0.0354797 0.0188173 0.0
-0.0312 0.014537 0.0
-0.0267765 0.0107278 0.0
-0.0222085 0.00741599 0.0
-0.0174977 0.00463703 0.0
-0.0126502 0.00242998 0.0
-0.00767596 0.000853143 0.0
-0.00258939 0.000116051 0.0
0.866092 0.00238253 0.0
0.620027 0.0177353 0.0
0.421128 0.0458162 0.0
0.271813 0.0764539 0.0
0.16471 0.106058 0.0
0.0900842 0.132576 0.0
0.0390428 0.155139 0.0
0.00451026 0.173617 0.0
-0.0187062 0.188153 0.0
-0.0343157 0.199036 0.0
-0.0450703 0.206772 0.0
-0.0527968 0.21179 0.0
-0.0586719 0.214463 0.0
-0.0634296 0.215109 0.0
-0.0675076 0.213997 0.0
-0.0711482 0.211359 0.0
-0.0744683 0.207399 0.0
-0.0775064 0.202295 0.0
-0.0802552 0.196212 0.0
-0.0826834 0.189298 0.0
-0.0847499 0.181693 0.0
-0.0864139 0.173528 0.0
-0.0876406 0.164925 0.0
-0.0884048 0.155997 0.0
-0.0886926 0.146851 0.0
-0.0885012 0.137584 0.0
-0.0878388 0.128284 0.0
-0.086723 0.119029 0.0
-0.0851786 0.10989 0.0
-0.0832365 0.100927 0.0
-0.0809306 0.0921895 0.0
-0.0782966 0.0837214 0.0
-0.0753699 0.0755569 0.0
-0.0721837 0.0677234 0.0
-0.0687684 0.0602423 0.0
-0.0651498 0.05313 0.0
-0.061349 0.046399 0.0
-0.0573818 0.0400588 0.0
-0.0532584 0.0341176 0.0
-0.0489843 0.0285833 0.0
-0.0445601 0.0234645 0.0
-0.0399827 0.0187721 0.0
-0.035246 0.0145206 0.0
-0.0303421 0.01073 0.0
-0.0252625 0.00742725 0.0
-0.0199987 0.00464976 0.0
-0.0145436 0.00243918 0.0
-0.00889077 0.000856963 0.0
-0.00303429 0.000116595 0.0
0.874712 0.00202609 0.0
0.641451 0.0155633 0.0
0.448895 0.0408762 0.0
0.300926 0.0691795 0.0
0.192151 0.0971486 0.0
0.114349 0.122741 0.0
0.059569 0.14498 0.0
0.0212476 0.163588 0.0
-0.00562542 0.178644 0.0
-0.0245564 0.190267 0.0
-0.0382255 0.198816 0.0
-0.048493 0.204666 0.0
-0.0565831 0.208144 0.0
-0.0632736 0.209537 0.0
-0.0690393 0.209097 0.0
-0.0741525 0.207048 0.0
-0.0787532 0.20359 0.0
-0.0828975 0.198906 0.0
-0.0865918 0.193165 0.0
-0.0898157 0.186525 0.0
-0.0925376 0.179136 0.0
-0.0947251 0.171138 0.0
-0.0963518 0.162663 0.0
-0.097401 0.153837 0.0
-0.0978677 0.144774 0.0
-0.0977586 0.135579 0.0
-0.0970918 0.126347 0.0
-0.0958947 0.117162 0.0
-0.0942025 0.108099 0.0
-0.0920556 0.0992191 0.0
-0.0894976 0.090576 0.0
-0.086573 0.0822121 0.0
-0.0833249 0.0741614 0.0
-0.0797938 0.06645 0.0
-0.0760156 0.0590973 0.0
-0.0720209 0.0521171 0.0
-0.0678342 0.045519 0.0
-0.0634736 0.0393097 0.0
-0.0589502 0.0334946 0.0
-0.054269 0.0280785 0.0
-0.0494288 0.0230679 0.0
-0.0444234 0.0184716 0.0
-0.0392419 0.0143028 0.0
-0.0338697 0.0105805 0.0
-0.0282897 0.00733198 0.0
-0.0224825 0.00459512 0.0
-0.0164272 0.00241293 0.0
-0.010101 0.00084848 0.0
-0.00347782 0.00011556 0.0
0.882305 0.00175398 0.0
0.660662 0.013801 0.0
0.47431 0.0367452 0.0
0.328122 0.0629428 0.0
0.218296 0.0893341 0.0
0.137915 0.113923 0.0
0.0798899 0.135671 0.0
0.0381596 0.15419 0.0
0.0079834 0.169448 0.0
-0.0141448 0.181574 0.0
-0.03067 0.190709 0.0
-0.0434701 0.197188 0.0
-0.0538026 0.201293 0.0
-0.0624775 0.203282 0.0
-0.0699972 0.203389 0.0
-0.076656 0.201825 0.0
-0.0826113 0.198788 0.0
-0.0879328 0.19446 0.0
-0.0926375 0.189015 0.0
-0.0967139 0.182616 0.0
-0.100139 0.175423 0.0
-0.102887 0.167584 0.0
-0.104942 0.159241 0.0
-0.106296 0.150527 0.0
-0.106952 0.141566 0.0
-0.106929 0.13247 0.0
-0.106256 0.12334 0.0
-0.104972 0.114264 0.0
-0.103122 0.10532 0.0
-0.10076 0.0965734 0.0
-0.0979381 0.0880762 0.0
-0.0947116 0.0798715 0.0
-0.0911322 0.071992 0.0
-0.0872481 0.0644617 0.0
-0.0831016 0.0572974 0.0
-0.0787283 0.05051 0.0
-0.0741565 0.0441058 0.0
-0.0694062 0.0380881 0.0
-0.0644896 0.0324587 0.0
-0.059411 0.0272195 0.0
-0.054167 0.0223738 0.0
-0.0487477 0.0179281 0.0
-0.0431369 0.0138935 0.0
-0.0373127 0.0102874 0.0
-0.0312489 0.00713617 0.0
-0.0249145 0.00447719 0.0
-0.0182746 0.00235357 0.0
-0.0112897 0.000828588 0.0
-0.00391395 0.000113087 0.0
0.889061 0.00153851 0.0
0.678003 0.0123408 0.0
0.497653 0.033237 0.0
0.353544 0.0575298 0.0
0.243153 0.0824136 0.0
0.160687 0.105962 0.0
0.0998392 0.127102 0.0
0.0550276 0.145371 0.0
0.0217734 0.160646 0.0
-0.00331582 0.173007 0.0
-0.0226106 0.182534 0.0
-0.0379111 0.189453 0.0
-0.0504904 0.19402 0.0
-0.0611787 0.19646 0.0
-0.0704966 0.196988 0.0
-0.0787538 0.195805 0.0
-0.0861193 0.193101 0.0
-0.0926721 0.189059 0.0
-0.0984368 0.183854 0.0
-0.103409 0.177657 0.0
-0.107572 0.170631 0.0
-0.110908 0.162935 0.0
-0.113409 0.154719 0.0
-0.115077 0.146123 0.0
-0.115926 0.137279 0.0
-0.115986 0.128304 0.0
-0.115298 0.119305 0.0
-0.113915 0.110375 0.0
-0.111894 0.101593 0.0
-0.1093 0.093024 0.0
-0.1062 0.0847227 0.0
-0.102658 0.0767301 0.0
-0.0987351 0.069077 0.0
-0.0944885 0.0617848 0.0
-0.0899674 0.0548672 0.0
-0.0852126 0.0483313 0.0
-0.0802563 0.0421798 0.0
-0.0751207 0.0364121 0.0
-0.0698187 0.0310263 0.0
-0.0643537 0.0260205 0.0
-0.0587201 0.0213946 0.0
-0.0529037 0.017152 0.0
-0.0468823 0.0133012 0.0
-0.0406268 0.00985725 0.0
-0.0341009 0.00684457 0.0
-0.0272619 0.00429907 0.0
-0.0200605 0.00226279 0.0
-0.0124407 0.000797889 0.0
-0.00433703 0.000109256 0.0
0.895117 0.00136191 0.0
0.69374 0.0111053 0.0
0.519157 0.0302085 0.0
0.377323 0.0527672 0.0
0.266746 0.0762131 0.0
0.182604 0.0987015 0.0
0.119299 0.119148 0.0
0.0717031 0.137032 0.0
0.0356035 0.152166 0.0
0.00775338 0.164557 0.0
-0.0142237 0.174304 0.0
-0.0319818 0.181498 0.0
-0.0467964 0.186372 0.0
-0.0595095 0.189126 0.0
-0.0706525 0.189954 0.0
-0.0805435 0.189045 0.0
-0.0893583 0.186585 0.0
-0.0971811 0.182754 0.0
-0.104041 0.17773 0.0
-0.109938 0.171688 0.0
-0.114861 0.164798 0.0
-0.118801 0.157226 0.0
-0.121755 0.149128 0.0
-0.123737 0.140653 0.0
-0.124772 0.131938 0.0
-0.124904 0.123105 0.0
-0.124186 0.114267 0.0
-0.122685 0.105517 0.0