# vtk DataFile Version 3.0
Malha 2D com triângulos e temperatura
ASCII
DATASET UNSTRUCTURED_GRID

POINTS 2500 double
0 0 0
1 0 0
1 1 0
0 1 0
0.0204082 0 0
0.0408163 0 0
0.0612245 0 0
0.0816327 0 0
0.102041 0 0
0.122449 0 0
0.142857 0 0
0.163265 0 0
0.183673 0 0
0.204082 0 0
0.22449 0 0
0.244898 0 0
0.265306 0 0
0.285714 0 0
0.306122 0 0
0.326531 0 0
0.346939 0 0
0.367347 0 0
0.387755 0 0
0.408163 0 0
0.428571 0 0
0.44898 0 0
0.469388 0 0
0.489796 0 0
0.510204 0 0
0.530612 0 0
0.55102 0 0
0.571429 0 0
0.591837 0 0
0.612245 0 0
0.632653 0 0
0.653061 0 0
0.673469 0 0
0.693878 0 0
0.714286 0 0
0.734694 0 0
0.755102 0 0
0.77551 0 0
0.795918 0 0
0.816327 0 0
0.836735 0 0
0.857143 0 0
0.877551 0 0
0.897959 0 0
0.918367 0 0
0.938776 0 0
0.959184 0 0
0.979592 0 0
1 0.0204082 0
1 0.0408163 0
1 0.0612245 0
1 0.0816327 0
1 0.102041 0
1 0.122449 0
1 0.142857 0
1 0.163265 0
1 0.183673 0
1 0.204082 0
1 0.22449 0
1 0.244898 0
1 0.265306 0
1 0.285714 0
1 0.306122 0
1 0.326531 0
1 0.346939 0
1 0.367347 0
1 0.387755 0
1 0.408163 0
1 0.428571 0
1 0.44898 0
1 0.469388 0
1 0.489796 0
1 0.510204 0
1 0.530612 0
1 0.55102 0
1 0.571429 0
1 0.591837 0
1 0.612245 0
1 0.632653 0
1 0.653061 0
1 0.673469 0
1 0.693878 0
1 0.714286 0
1 0.734694 0
1 0.755102 0
1 0.77551 0
1 0.795918 0
1 0.816327 0
1 0.836735 0
1 0.857143 0
1 0.877551 0
1 0.897959 0
1 0.918367 0
1 0.938776 0
1 0.959184 0
1 0.979592 0
0.979592 1 0
0.959184 1 0
0.938776 1 0
0.918367 1 0
0.897959 1 0
0.877551 1 0
0.857143 1 0
0.836735 1 0
0.816327 1 0
0.795918 1 0
0.77551 1 0
0.755102 1 0
0.734694 1 0
0.714286 1 0
0.693878 1 0
0.673469 1 0
0.653061 1 0
0.632653 1 0
0.612245 1 0
0.591837 1 0
0.571429 1 0
0.55102 1 0
0.530612 1 0
0.510204 1 0
0.489796 1 0
0.469388 1 0
0.44898 1 0
0.428571 1 0
0.408163 1 0
0.387755 1 0
0.367347 1 0
0.346939 1 0
0.326531 1 0
0.306122 1 0
0.285714 1 0
0.265306 1 0
0.244898 1 0
0.22449 1 0
0.204082 1 0
0.183673 1 0
0.163265 1 0
0.142857 1 0
0.122449 1 0
0.102041 1 0
0.0816327 1 0
0.0612245 1 0
0.0408163 1 0
0.0204082 1 0
0 0.979592 0
0 0.959184 0
0 0.938776 0
0 0.918367 0
0 0.897959 0
0 0.877551 0
0 0.857143 0
0 0.836735 0
0 0.816327 0
0 0.795918 0
0 0.77551 0
0 0.755102 0
0 0.734694 0
0 0.714286 0
0 0.693878 0
0 0.673469 0
0 0.653061 0
0 0.632653 0
0 0.612245 0
0 0.591837 0
0 0.571429 0
0 0.55102 0
0 0.530612 0
0 0.510204 0
0 0.489796 0
0 0.469388 0
0 0.44898 0
0 0.428571 0
0 0.408163 0
0 0.387755 0
0 0.367347 0
0 0.346939 0
0 0.326531 0
0 0.306122 0
0 0.285714 0
0 0.265306 0
0 0.244898 0
0 0.22449 0
0 0.204082 0
0 0.183673 0
0 0.163265 0
0 0.142857 0
0 0.122449 0
0 0.102041 0
0 0.0816327 0
0 0.0612245 0
0 0.0408163 0
0 0.0204082 0
0.0204082 0.979592 0
0.0204082 0.959184 0
0.0204082 0.938776 0
0.0204082 0.918367 0
0.0204082 0.897959 0
0.0204082 0.877551 0
0.0204082 0.857143 0
0.0204082 0.836735 0
0.0204082 0.816327 0
0.0204082 0.795918 0
0.0204082 0.77551 0
0.0204082 0.755102 0
0.0204082 0.734694 0
0.0204082 0.714286 0
0.0204082 0.693878 0
0.0204082 0.673469 0
0.0204082 0.653061 0
0.0204082 0.632653 0
0.0204082 0.612245 0
0.0204082 0.591837 0
0.0204082 0.571429 0
0.0204082 0.55102 0
0.0204082 0.530612 0
0.0204082 0.510204 0
0.0204082 0.489796 0
0.0204082 0.469388 0
0.0204082 0.44898 0
0.0204082 0.428571 0
0.0204082 0.408163 0
0.0204082 0.387755 0
0.0204082 0.367347 0
0.0204082 0.346939 0
0.0204082 0.326531 0
0.0204082 0.306122 0
0.0204082 0.285714 0
0.0204082 0.265306 0
0.0204082 0.244898 0
0.0204082 0.22449 0
0.0204082 0.204082 0
0.0204082 0.183673 0
0.0204082 0.163265 0
0.0204082 0.142857 0
0.0204082 0.122449 0
0.0204082 0.102041 0
0.0204082 0.0816327 0
0.0204082 0.0612245 0
0.0204082 0.0408163 0
0.0204082 0.0204082 0
0.0408163 0.979592 0
0.0408163 0.959184 0
0.0408163 0.938776 0
0.0408163 0.918367 0
0.0408163 0.897959 0
0.0408163 0.877551 0
0.0408163 0.857143 0
0.0408163 0.836735 0
0.0408163 0.816327 0
0.0408163 0.795918 0
0.0408163 0.77551 0
0.0408163 0.755102 0
0.0408163 0.734694 0
0.0408163 0.714286 0
0.0408163 0.693878 0
0.0408163 0.673469 0
0.0408163 0.653061 0
0.0408163 0.632653 0
0.0408163 0.612245 0
0.0408163 0.591837 0
0.0408163 0.571429 0
0.0408163 0.55102 0
0.0408163 0.530612 0
0.0408163 0.510204 0
0.0408163 0.489796 0
0.0408163 0.469388 0
0.0408163 0.44898 0
0.0408163 0.428571 0
0.0408163 0.408163 0
0.0408163 0.387755 0
0.0408163 0.367347 0
0.0408163 0.346939 0
0.0408163 0.326531 0
0.0408163 0.306122 0
0.0408163 0.285714 0
0.0408163 0.265306 0
0.0408163 0.244898 0
0.0408163 0.22449 0
0.0408163 0.204082 0
0.0408163 0.183673 0
0.0408163 0.163265 0
0.0408163 0.142857 0
0.0408163 0.122449 0
0.0408163 0.102041 0
0.0408163 0.0816327 0
0.0408163 0.0612245 0
0.0408163 0.0408163 0
0.0408163 0.0204082 0
0.0612245 0.979592 0
0.0612245 0.959184 0
0.0612245 0.938776 0
0.0612245 0.918367 0
0.0612245 0.897959 0
0.0612245 0.877551 0
0.0612245 0.857143 0
0.0612245 0.836735 0
0.0612245 0.816327 0
0.0612245 0.795918 0
0.0612245 0.77551 0
0.0612245 0.755102 0
0.0612245 0.734694 0
0.0612245 0.714286 0
0.0612245 0.693878 0
0.0612245 0.673469 0
0.0612245 0.653061 0
0.0612245 0.632653 0
0.0612245 0.612245 0
0.0612245 0.591837 0
0.0612245 0.571429 0
0.0612245 0.55102 0
0.0612245 0.530612 0
0.0612245 0.510204 0
0.0612245 0.489796 0
0.0612245 0.469388 0
0.0612245 0.44898 0
0.0612245 0.428571 0
0.0612245 0.408163 0
0.0612245 0.387755 0
0.0612245 0.367347 0
0.0612245 0.346939 0
0.0612245 0.326531 0
0.0612245 0.306122 0
0.0612245 0.285714 0
0.0612245 0.265306 0
0.0612245 0.244898 0
0.0612245 0.22449 0
0.0612245 0.204082 0
0.0612245 0.183673 0
0.0612245 0.163265 0
0.0612245 0.142857 0
0.0612245 0.122449 0
0.0612245 0.102041 0
0.0612245 0.0816327 0
0.0612245 0.0612245 0
0.0612245 0.0408163 0
0.0612245 0.0204082 0
0.0816327 0.979592 0
0.0816327 0.959184 0
0.0816327 0.938776 0
0.0816327 0.918367 0
0.0816327 0.897959 0
0.0816327 0.877551 0
0.0816327 0.857143 0
0.0816327 0.836735 0
0.0816327 0.816327 0
0.0816327 0.795918 0
0.0816327 0.77551 0
0.0816327 0.755102 0
0.0816327 0.734694 0
0.0816327 0.714286 0
0.0816327 0.693878 0
0.0816327 0.673469 0
0.0816327 0.653061 0
0.0816327 0.632653 0
0.0816327 0.612245 0
0.0816327 0.591837 0
0.0816327 0.571429 0
0.0816327 0.55102 0
0.0816327 0.530612 0
0.0816327 0.510204 0
0.0816327 0.489796 0
0.0816327 0.469388 0
0.0816327 0.44898 0
0.0816327 0.428571 0
0.0816327 0.408163 0
0.0816327 0.387755 0
0.0816327 0.367347 0
0.0816327 0.346939 0
0.0816327 0.326531 0
0.0816327 0.306122 0
0.0816327 0.285714 0
0.0816327 0.265306 0
0.0816327 0.244898 0
0.0816327 0.22449 0
0.0816327 0.204082 0
0.0816327 0.183673 0
0.0816327 0.163265 0
0.0816327 0.142857 0
0.0816327 0.122449 0
0.0816327 0.102041 0
0.0816327 0.0816327 0
0.0816327 0.0612245 0
0.0816327 0.0408163 0
0.0816327 0.0204082 0
0.102041 0.979592 0
0.102041 0.959184 0
0.102041 0.938776 0
0.102041 0.918367 0
0.102041 0.897959 0
0.102041 0.877551 0
0.102041 0.857143 0
0.102041 0.836735 0
0.102041 0.816327 0
0.102041 0.795918 0
0.102041 0.77551 0
0.102041 0.755102 0
0.102041 0.734694 0
0.102041 0.714286 0
0.102041 0.693878 0
0.102041 0.673469 0
0.102041 0.653061 0
0.102041 0.632653 0
0.102041 0.612245 0
0.102041 0.591837 0
0.102041 0.571429 0
0.102041 0.55102 0
0.102041 0.530612 0
0.102041 0.510204 0
0.102041 0.489796 0
0.102041 0.469388 0
0.102041 0.44898 0
0.102041 0.428571 0
0.102041 0.408163 0
0.102041 0.387755 0
0.102041 0.367347 0
0.102041 0.346939 0
0.102041 0.326531 0
0.102041 0.306122 0
0.102041 0.285714 0
0.102041 0.265306 0
0.102041 0.244898 0
0.102041 0.22449 0
0.102041 0.204082 0
0.102041 0.183673 0
0.102041 0.163265 0
0.102041 0.142857 0
0.102041 0.122449 0
0.102041 0.102041 0
0.102041 0.0816327 0
0.102041 0.0612245 0
0.102041 0.0408163 0
0.102041 0.0204082 0
0.122449 0.979592 0
0.122449 0.959184 0
0.122449 0.938776 0
0.122449 0.918367 0
0.122449 0.897959 0
0.122449 0.877551 0
0.122449 0.857143 0
0.122449 0.836735 0
0.122449 0.816327 0
0.122449 0.795918 0
0.122449 0.77551 0
0.122449 0.755102 0
0.122449 0.734694 0
0.122449 0.714286 0
0.122449 0.693878 0
0.122449 0.673469 0
0.122449 0.653061 0
0.122449 0.632653 0
0.122449 0.612245 0
0.122449 0.591837 0
0.122449 0.571429 0
0.122449 0.55102 0
0.122449 0.530612 0
0.122449 0.510204 0
0.122449 0.489796 0
0.122449 0.469388 0
0.122449 0.44898 0
0.122449 0.428571 0
0.122449 0.408163 0
0.122449 0.387755 0
0.122449 0.367347 0
0.122449 0.346939 0
0.122449 0.326531 0
0.122449 0.306122 0
0.122449 0.285714 0
0.122449 0.265306 0
0.122449 0.244898 0
0.122449 0.22449 0
0.122449 0.204082 0
0.122449 0.183673 0
0.122449 0.163265 0
0.122449 0.142857 0
0.122449 0.122449 0
0.122449 0.102041 0
0.122449 0.0816327 0
0.122449 0.0612245 0
0.122449 0.0408163 0
0.122449 0.0204082 0
0.142857 0.979592 0
0.142857 0.959184 0
0.142857 0.938776 0
0.142857 0.918367 0
0.142857 0.897959 0
0.142857 0.877551 0
0.142857 0.857143 0
0.142857 0.836735 0
0.142857 0.816327 0
0.142857 0.795918 0
0.142857 0.77551 0
0.142857 0.755102 0
0.142857 0.734694 0
0.142857 0.714286 0
0.142857 0.693878 0
0.142857 0.673469 0
0.142857 0.653061 0
0.142857 0.632653 0
0.142857 0.612245 0
0.142857 0.591837 0
0.142857 0.571429 0
0.142857 0.55102 0
0.142857 0.530612 0
0.142857 0.510204 0
0.142857 0.489796 0
0.142857 0.469388 0
0.142857 0.44898 0
0.142857 0.428571 0
0.142857 0.408163 0
0.142857 0.387755 0
0.142857 0.367347 0
0.142857 0.346939 0
0.142857 0.326531 0
0.142857 0.306122 0
0.142857 0.285714 0
0.142857 0.265306 0
0.142857 0.244898 0
0.142857 0.22449 0
0.142857 0.204082 0
0.142857 0.183673 0
0.142857 0.163265 0
0.142857 0.142857 0
0.142857 0.122449 0
0.142857 0.102041 0
0.142857 0.0816327 0
0.142857 0.0612245 0
0.142857 0.0408163 0
0.142857 0.0204082 0
0.163265 0.979592 0
0.163265 0.959184 0
0.163265 0.938776 0
0.163265 0.918367 0
0.163265 0.897959 0
0.163265 0.877551 0
0.163265 0.857143 0
0.163265 0.836735 0
0.163265 0.816327 0
0.163265 0.795918 0
0.163265 0.77551 0
0.163265 0.755102 0
0.163265 0.734694 0
0.163265 0.714286 0
0.163265 0.693878 0
0.163265 0.673469 0
0.163265 0.653061 0
0.163265 0.632653 0
0.163265 0.612245 0
0.163265 0.591837 0
0.163265 0.571429 0
0.163265 0.55102 0
[...]
CELL_DATA 2401
VECTORS velocity double
0.257585 0.157303 0.0
-0.00259112 0.264496 0.0
-0.0322084 0.205639 0.0
-0.0253129 0.150882 0.0
-0.0160239 0.11345 0.0
-0.00969615 0.0881344 0.0
-0.00594733 0.0710266 0.0
-0.00378381 0.0592277 0.0
-0.00251634 0.0508424 0.0
-0.00174931 0.0446992 0.0
-0.00126755 0.0400655 0.0
-0.000954568 0.0364697 0.0
-0.000745837 0.0335989 0.0
-0.000604168 0.0312398 0.0
-0.000507128 0.0292435 0.0
-0.000440552 0.027504 0.0
-0.000395111 0.0259457 0.0
-0.000364442 0.0245139 0.0
-0.000344071 0.0231694 0.0
-0.000330782 0.0218845 0.0
-0.000322218 0.0206401 0.0
-0.000316634 0.0194234 0.0
-0.000312734 0.0182265 0.0
-0.000309557 0.0170454 0.0
-0.0003064 0.0158788 0.0
-0.000302765 0.0147271 0.0
-0.000298313 0.0135926 0.0
-0.000292832 0.0124783 0.0
-0.00028621 0.0113877 0.0
-0.000278407 0.010325 0.0
-0.000269441 0.00929396 0.0
-0.000259367 0.00829863 0.0
-0.000248258 0.00734275 0.0
-0.000236197 0.00642984 0.0
-0.000223262 0.00556319 0.0
-0.000209515 0.00474585 0.0
-0.000194993 0.00398072 0.0
-0.0001797 0.00327061 0.0
-0.000163598 0.00261836 0.0
-0.000146598 0.00202691 0.0
-0.000128548 0.00149945 0.0
-0.00010923 0.00103956 0.0
-8.83571e-05 0.000651222 0.0
-6.56104e-05 0.000338874 0.0
-4.07734e-05 0.000107091 0.0
-1.4148e-05 -4.02324e-05 0.0
1.23463e-05 -0.000101908 0.0
3.28787e-05 -8.68496e-05 0.0
3.12663e-05 -3.11256e-05 0.0
0.340828 0.123005 0.0
-0.00047352 0.249662 0.0
-0.0650037 0.272082 0.0
-0.063064 0.252786 0.0
-0.048425 0.22238 0.0
-0.0349882 0.192509 0.0
-0.0250595 0.166952 0.0
-0.0181416 0.14621 0.0
-0.0133819 0.129686 0.0
-0.0100912 0.116548 0.0
-0.00779225 0.106026 0.0
-0.00616962 0.0974819 0.0
-0.00501569 0.0904183 0.0
-0.00419189 0.0844532 0.0
-0.00360379 0.0792969 0.0
-0.00318553 0.0747313 0.0
-0.0028902 0.0705927 0.0
-0.00268375 0.0667595 0.0
-0.002541 0.0631422 0.0
-0.00244313 0.0596759 0.0
-0.00237591 0.0563152 0.0
-0.00232857 0.0530296 0.0
-0.0022929 0.0497999 0.0
-0.00226272 0.0466158 0.0
-0.00223346 0.0434739 0.0
-0.00220178 0.0403754 0.0
-0.00216537 0.0373255 0.0
-0.00212273 0.0343315 0.0
-0.00207297 0.0314024 0.0
-0.00201571 0.028548 0.0
-0.00195091 0.0257783 0.0
-0.0018788 0.0231033 0.0
-0.00179974 0.0205328 0.0
-0.00171415 0.0180757 0.0
-0.00162246 0.0157408 0.0
-0.00152502 0.0135361 0.0
-0.00142207 0.0114694 0.0
-0.00131368 0.00954817 0.0
-0.00119974 0.0077798 0.0
-0.00107994 0.00617186 0.0
-0.000953787 0.00473219 0.0
-0.000820643 0.00346899 0.0
-0.000679907 0.00239071 0.0
-0.000531363 0.00150557 0.0
-0.000375973 0.000820468 0.0
-0.000217671 0.000338701 0.0
-6.70888e-05 5.55851e-05 0.0
5.21121e-05 -5.08065e-05 0.0
8.64429e-05 -3.20138e-05 0.0
0.501003 0.0768583 0.0
0.0993766 0.183443 0.0
-0.0389662 0.249669 0.0
-0.0731083 0.266343 0.0
-0.07177 0.258094 0.0
-0.06073 0.240209 0.0
-0.0487556 0.219938 0.0
-0.0384426 0.200572 0.0
-0.0302554 0.183339 0.0
-0.0239817 0.168478 0.0
-0.0192551 0.155806 0.0
-0.0157267 0.144992 0.0
-0.0131096 0.135683 0.0
-0.0111801 0.127557 0.0
-0.00976759 0.120341 0.0
-0.00874229 0.11381 0.0
-0.00800569 0.107787 0.0
-0.00748252 0.102134 0.0
-0.00711499 0.0967459 0.0
-0.00685853 0.0915464 0.0
-0.00667864 0.0864808 0.0
-0.00654865 0.0815123 0.0
-0.00644801 0.0766184 0.0
-0.00636104 0.0717877 0.0
-0.00627601 0.0670175 0.0
-0.0061843 0.0623115 0.0
-0.00607989 0.0576781 0.0
-0.00595878 0.0531288 0.0
-0.00581863 0.0486771 0.0
-0.00565832 0.0443377 0.0
-0.0054777 0.0401255 0.0
-0.00527723 0.0360553 0.0
-0.00505779 0.0321415 0.0
-0.00482045 0.0283977 0.0
-0.00456627 0.0248366 0.0
-0.00429615 0.0214703 0.0
-0.00401076 0.0183104 0.0
-0.00371038 0.0153678 0.0
-0.00339494 0.0126535 0.0
-0.00306397 0.0101783 0.0
-0.00271673 0.00795286 0.0
-0.0023525 0.00598824 0.0
-0.00197099 0.00429496 0.0
-0.00157343 0.0028825 0.0
-0.00116432 0.00175772 0.0
-0.00075497 0.000922314 0.0
-0.000369735 0.000367605 0.0
-5.48262e-05 6.84378e-05 0.0
9.96114e-05 -1.07932e-05 0.0
0.610312 0.0481018 0.0
0.196194 0.134161 0.0
0.0119343 0.209786 0.0
-0.0576826 0.246923 0.0
-0.0760512 0.257412 0.0
-0.0741232 0.253751 0.0
-0.0652856 0.243116 0.0
-0.0551 0.229762 0.0
-0.0457088 0.215967 0.0
-0.0377854 0.202813 0.0
-0.0313973 0.190726 0.0
-0.0263853 0.179785 0.0
-0.0225261 0.169904 0.0
-0.0195989 0.160932 0.0
-0.0174088 0.152697 0.0
-0.0157923 0.145042 0.0
-0.0146158 0.137826 0.0
-0.0137715 0.130937 0.0
-0.0131731 0.124283 0.0
-0.0127518 0.117798 0.0
-0.0124528 0.111433 0.0
-0.0122332 0.105157 0.0
-0.0120593 0.0989525 0.0
-0.0119049 0.092812 0.0
-0.0117504 0.0867375 0.0
-0.0115814 0.0807372 0.0
-0.0113877 0.0748241 0.0
-0.0111625 0.0690144 0.0
-0.0109019 0.0633263 0.0
-0.0106041 0.0577787 0.0
-0.0102688 0.0523908 0.0
-0.00989691 0.0471816 0.0
-0.0094901 0.0421689 0.0
-0.00905025 0.03737 0.0
-0.00857928 0.0328009 0.0
-0.00807888 0.0284767 0.0
-0.00755033 0.0244116 0.0
-0.00699436 0.0206193 0.0
-0.00641112 0.0171128 0.0
-0.00580028 0.0139051 0.0
-0.00516124 0.0110088 0.0
-0.00449364 0.00843601 0.0
-0.00379826 0.00619833 0.0
-0.00307859 0.0043055 0.0
-0.00234354 0.00276422 0.0
-0.00161209 0.00157608 0.0
-0.000920827 0.000732362 0.0
-0.000333415 0.0002128 0.0
3.67102e-05 1.54852e-05 0.0
0.680808 0.0302098 0.0
0.279117 0.0983355 0.0
0.070239 0.171211 0.0
-0.0271694 0.217714 0.0
-0.0654365 0.240997 0.0
-0.0754499 0.249125 0.0
-0.0729773 0.248017 0.0
-0.0657092 0.241788 0.0
-0.0572656 0.233036 0.0
-0.0492548 0.223283 0.0
-0.0423008 0.213362 0.0
-0.0365583 0.203687 0.0
-0.0319697 0.194424 0.0
-0.0283931 0.185605 0.0
-0.0256631 0.177193 0.0
-0.023619 0.169121 0.0
-0.0221167 0.161317 0.0
-0.021032 0.153713 0.0
-0.0202603 0.146251 0.0
-0.0197153 0.13889 0.0
-0.0193264 0.131598 0.0
-0.0190366 0.124358 0.0
-0.0188008 0.117165 0.0
-0.0185838 0.110019 0.0
-0.0183586 0.102932 0.0
-0.0181054 0.0959178 0.0
-0.0178103 0.0889959 0.0
-0.0174642 0.0821877 0.0
-0.0170619 0.0755164 0.0
-0.0166011 0.0690053 0.0
-0.0160819 0.0626776 0.0
-0.0155059 0.0565555 0.0
-0.0148759 0.0506603 0.0
-0.0141947 0.0450117 0.0
-0.0134655 0.0396283 0.0
-0.012691 0.0345274 0.0
-0.0118734 0.029725 0.0
-0.011014 0.0252364 0.0
-0.0101135 0.0210761 0.0
-0.009172 0.0172582 0.0
-0.00818935 0.0137961 0.0
-0.00716596 0.0107027 0.0
-0.006104 0.00798979 0.0
-0.00500943 0.00566755 0.0
-0.00389526 0.00374336 0.0
-0.0027866 0.00222079 0.0
-0.00172844 0.00109473 0.0
-0.000794403 0.000354998 0.0
-0.000106754 4.03076e-05 0.0
0.730257 0.0192189 0.0
0.349709 0.0731124 0.0
0.128528 0.139336 0.0
0.0113942 0.188166 0.0
-0.0448012 0.219204 0.0
-0.0672867 0.235819 0.0
-0.0727211 0.242559 0.0
-0.0701193 0.242909 0.0
-0.0642239 0.239352 0.0
-0.0574555 0.23353 0.0
-0.0509839 0.226476 0.0
-0.0453124 0.218812 0.0
-0.0405971 0.210889 0.0
-0.0368202 0.202892 0.0
-0.033884 0.194904 0.0
-0.0316608 0.186954 0.0
-0.0300183 0.179039 0.0
-0.0288322 0.171147 0.0
-0.0279917 0.163262 0.0
-0.0274013 0.155373 0.0
-0.0269806 0.147475 0.0
-0.026663 0.139571 0.0
-0.0263951 0.131669 0.0
-0.0261347 0.123784 0.0
-0.0258492 0.115938 0.0
-0.025515 0.108154 0.0
-0.0251153 0.100458 0.0
-0.0246395 0.0928781 0.0
-0.0240819 0.0854431 0.0
-0.0234405 0.0781806 0.0
-0.0227163 0.0711175 0.0
-0.021912 0.0642793 0.0
-0.0210317 0.0576898 0.0
-0.0200801 0.051371 0.0
-0.0190616 0.0453432 0.0
-0.0179803 0.0396251 0.0
-0.0168395 0.0342338 0.0
-0.0156415 0.0291857 0.0
-0.0143877 0.0244957 0.0
-0.0130789 0.0201784 0.0
-0.0117155 0.0162476 0.0
-0.0102988 0.0127163 0.0
-0.00883239 0.00959688 0.0
-0.00732416 0.00690014 0.0
-0.00579001 0.00463531 0.0
-0.00425875 0.00280979 0.0
-0.00277924 0.00142459 0.0
-0.00142766 0.000482146 0.0
-0.000323548 6.13753e-05 0.0
0.766272 0.0125959 0.0
0.409102 0.0556732 0.0
0.183364 0.114371 0.0
0.0525958 0.16219 0.0
-0.0180998 0.196903 0.0
-0.0522528 0.219134 0.0
-0.0660048 0.231748 0.0
-0.068984 0.237524 0.0
-0.0666824 0.238621 0.0
-0.0621506 0.236603 0.0
-0.0570288 0.232549 0.0
-0.0521502 0.227176 0.0
-0.0478916 0.220948 0.0
-0.0443781 0.214154 0.0
-0.0416006 0.206974 0.0
-0.0394836 0.199513 0.0
-0.0379234 0.191835 0.0
-0.036809 0.183978 0.0
-0.0360341 0.175971 0.0
-0.0355021 0.167836 0.0
-0.035129 0.159595 0.0
-0.0348436 0.151273 0.0
-0.0345878 0.142896 0.0
-0.0343151 0.134496 0.0
-0.03399 0.126105 0.0
-0.0335865 0.117756 0.0
-0.0330866 0.109485 0.0
-0.0324796 0.101327 0.0
-0.0317601 0.0933145 0.0
-0.0309273 0.0854813 0.0
-0.0299838 0.0778578 0.0
-0.0289342 0.0704722 0.0
-0.0277847 0.0633506 0.0
-0.0265418 0.0565168 0.0
-0.0252119 0.0499922 0.0
-0.0238007 0.0437963 0.0
-0.0223131 0.0379469 0.0
-0.0207524 0.0324604 0.0
-0.019121 0.0273519 0.0
-0.0174203 0.022636 0.0
-0.0156515 0.0183264 0.0
-0.0138167 0.0144362 0.0
-0.0119201 0.0109783 0.0
-0.00997082 0.00796473 0.0
-0.00798595 0.00540754 0.0
-0.00599512 0.00331911 0.0
-0.00404663 0.0017079 0.0
-0.00221302 0.000589336 0.0
-0.00060291 7.82689e-05 0.0
0.793263 0.00858978 0.0
0.459024 0.043503 0.0
0.233579 0.095029 0.0
0.0938181 0.14033 0.0
0.0121148 0.17601 0.0
-0.0325346 0.201745 0.0
-0.054396 0.218521 0.0
-0.0632953 0.22851 0.0
-0.0651773 0.233485 0.0
-0.0635479 0.234838 0.0
-0.0604232 0.2336 0.0
-0.0569208 0.230508 0.0
-0.0536227 0.226075 0.0
-0.0507959 0.220655 0.0
-0.0485267 0.214488 0.0
-0.046801 0.207741 0.0
-0.0455536 0.200528 0.0
-0.0446963 0.192935 0.0
-0.0441347 0.185026 0.0
-0.0437782 0.176857 0.0
-0.0435445 0.168476 0.0
-0.0433623 0.159932 0.0
-0.0431723 0.151269 0.0
-0.0429271 0.142534 0.0
-0.0425902 0.133773 0.0
-0.0421355 0.125029 0.0
-0.0415456 0.116348 0.0
-0.0408109 0.10777 0.0
-0.0399279 0.0993373 0.0
-0.038898 0.0910854 0.0
-0.0377261 0.083049 0.0
-0.0364198 0.0752592 0.0
-0.0349877 0.067744 0.0
-0.0334391 0.0605284 0.0
-0.0317825 0.0536347 0.0
-0.030026 0.0470827 0.0
-0.0281757 0.04089 0.0
-0.0262367 0.0350727 0.0
-0.0242123 0.0296458 0.0
-0.0221046 0.0246231 0.0
-0.0199154 0.0200182 0.0
-0.017647 0.0158442 0.0
-0.0153037 0.0121147 0.0
-0.0128947 0.00884343 0.0
-0.0104361 0.0060455 0.0
-0.0079558 0.00373888 0.0
-0.0054977 0.00193974 0.0
-0.00312598 0.000675607 0.0
-0.000933212 9.12699e-05 0.0
0.814178 0.00612343 0.0
0.501286 0.0348615 0.0
0.279028 0.0800448 0.0
0.133626 0.122269 0.0
0.0434234 0.157592 0.0
-0.00992158 0.18501 0.0
-0.0392829 0.204598 0.0
-0.0540608 0.217702 0.0
-0.0603831 0.225754 0.0
-0.0620538 0.229937 0.0
-0.0613707 0.231184 0.0
-0.0596828 0.2302 0.0
-0.0577496 0.227505 0.0
-0.0559682 0.223481 0.0
-0.0545168 0.218405 0.0
-0.0534452 0.212484 0.0
-0.0527305 0.20587 0.0
-0.052312 0.198684 0.0
-0.0521127 0.191024 0.0
-0.0520522 0.182972 0.0
-0.0520544 0.174603 0.0
-0.0520514 0.165984 0.0
-0.0519861 0.157179 0.0
-0.0518125 0.148251 0.0
-0.051496 0.139258 0.0
-0.0510121 0.130256 0.0
-0.050346 0.121297 0.0
-0.0494907 0.112432 0.0
-0.0484458 0.103706 0.0
-0.0472162 0.0951618 0.0
-0.0458105 0.0868361 0.0
-0.0442397 0.078763 0.0
-0.0425159 0.0709719 0.0
-0.0406514 0.0634889 0.0
-0.038658 0.0563365 0.0
-0.0365458 0.0495342 0.0
-0.0343232 0.0430994 0.0
-0.0319967 0.0370473 0.0
-0.0295707 0.031392 0.0
-0.027048 0.0261466 0.0
-0.0244304 0.0213242 0.0
-0.0217201 0.016938 0.0
-0.0189207 0.013002 0.0
-0.0160398 0.00953184 0.0
-0.0130911 0.00654593 0.0
-0.010098 0.00406758 0.0
-0.00709711 0.00212023 0.0
-0.004141 0.000741839 0.0
-0.00130323 0.000100869 0.0
0.830901 0.00456505 0.0
0.537416 0.0285942 0.0
0.320024 0.0683349 0.0
0.17143 0.107365 0.0
0.0748265 0.141594 0.0
0.0144637 0.169473 0.0
-0.0217393 0.190862 0.0
-0.042158 0.2062 0.0
-0.052961 0.216618 0.0
-0.058132 0.223097 0.0
-0.0601709 0.22645 0.0
-0.0606071 0.227324 0.0
-0.0603465 0.226222 0.0
-0.0598989 0.223526 0.0
-0.0595262 0.219532 0.0
-0.0593382 0.214468 0.0
-0.0593545 0.208513 0.0
-0.0595435 0.201814 0.0
-0.0598479 0.194493 0.0
-0.0602004 0.186657 0.0
-0.0605338 0.178402 0.0
-0.0607863 0.169814 0.0
-0.0609054 0.160975 0.0
-0.0608492 0.15196 0.0
-0.0605866 0.142843 0.0
-0.0600971 0.133688 0.0
-0.0593699 0.124558 0.0
-0.0584024 0.115511 0.0
-0.0571989 0.106597 0.0
-0.0557688 0.0978642 0.0
-0.0541255 0.0893524 0.0
-0.0522845 0.0810976 0.0
-0.0502622 0.073131 0.0
-0.0480749 0.0654787 0.0
-0.0457376 0.0581633 0.0
-0.0432633 0.0512038 0.0
-0.0406629 0.0446164 0.0
-0.0379443 0.0384153 0.0
-0.0351131 0.0326134 0.0
-0.0321724 0.0272228 0.0
-0.0291241 0.0222556 0.0
-0.0259691 0.0177249 0.0
-0.0227097 0.0136453 0.0
-0.0193505 0.0100339 0.0
-0.0159011 0.00691217 0.0
-0.0123784 0.00430831 0.0
-0.00880954 0.00225199 0.0
-0.0052332 0.000789686 0.0
-0.00170267 0.000107578 0.0
0.844634 0.00354824 0.0
0.568627 0.0239472 0.0
0.357007 0.0590875 0.0
0.206969 0.0950536 0.0
0.10558 0.127824 0.0
0.0393779 0.155546 0.0
-0.00262456 0.177786 0.0
-0.0283148 0.194674 0.0
-0.0434999 0.206854 0.0
-0.0522342 0.215139 0.0
-0.0571517 0.220224 0.0
-0.0599168 0.222684 0.0
-0.0615519 0.222986 0.0
-0.0626609 0.2215 0.0
-0.0635779 0.218521 0.0
-0.0644668 0.214289 0.0
-0.0653863 0.208999 0.0
-0.0663332 0.202815 0.0
-0.0672702 0.195879 0.0
-0.0681443 0.188316 0.0
-0.0688986 0.180239 0.0
-0.0694793 0.171753 0.0
-0.0698404 0.162953 0.0
-0.0699456 0.15393 0.0
-0.0697695 0.144768 0.0
-0.0692973 0.135542 0.0
-0.0685237 0.126324 0.0
-0.0674522 0.117179 0.0
-0.0660931 0.108163 0.0
-0.0644618 0.0993269 0.0
-0.0625776 0.090715 0.0
-0.0604616 0.0823648 0.0
-0.0581352 0.0743083 0.0
-0.0556194 0.0665718 0.0
-0.0529332 0.0591772 0.0
-0.050093 0.0521426 0.0
-0.0471119 0.0454828 0.0
-0.0439999 0.0392105 0.0
-0.0407633 0.0333368 0.0
-0.0374058 0.0278725 0.0
-0.0339282 0.0228287 0.0
-0.0303304 0.0182179 0.0
-0.0266116 0.0140547 0.0
-0.0227726 0.0103578 0.0
-0.0188174 0.00715102 0.0
-0.014755 0.00446638 0.0
-0.010601 0.00233871 0.0
-0.00637932 0.000821006 0.0
-0.00212235 0.000111854 0.0
0.856171 0.00285935 0.0
0.595869 0.0204201 0.0
0.390459 0.0516859 0.0
0.24023 0.084808 0.0
0.135353 0.115953 0.0
0.0643748 0.143121 0.0
0.0174066 0.165617 0.0
-0.0131201 0.183486 0.0
-0.0325033 0.196941 0.0
-0.0447704 0.206612 0.0
-0.0526326 0.213084 0.0
-0.0578501 0.216862 0.0
-0.0615349 0.218365 0.0
-0.0643663 0.217943 0.0
-0.0667387 0.215882 0.0
-0.0688621 0.212421 0.0
-0.0708301 0.207765 0.0
-0.0726649 0.202088 0.0
-0.0743483 0.195547 0.0
-0.0758413 0.18828 0.0
-0.0770979 0.180415 0.0
-0.0780732 0.172072 0.0
-0.0787289 0.16336 0.0
-0.0790359 0.154382 0.0
-0.0789759 0.145232 0.0
-0.0785411 0.135997 0.0
-0.0777338 0.126756 0.0
-0.0765647 0.117579 0.0
-0.0750515 0.10853 0.0
-0.0732173 0.0996623 0.0
-0.0710881 0.091023 0.0
-0.0686916 0.0826512 0.0
-0.0660556 0.0745792 0.0
-0.0632062 0.0668332 0.0
-0.060167 0.0594339 0.0
-0.056958 0.0523979 0.0
-0.0535953 0.0457383 0.0
-0.0500905 0.0394658 0.0
-0.0464511 0.0335895 0.0
-0.0426805 0.0281183 0.0
-0.0387787 0.023062 0.0
-0.0347431 0.018432 0.0
-0.0305696 0.0142429 0.0
-0.026254 0.0105139 0.0
-0.0217934 0.00727055 0.0
-0.0171875 0.0045478 0.0
-0.0124397 0.00238424 0.0
-0.00755795 0.00083756 0.0
-0.00255415 0.000114076 0.0
0.866049 0.00237362 0.0
0.619882 0.0176815 0.0
0.420824 0.0456794 0.0
0.271292 0.0762126 0.0
0.163934 0.105694 0.0
0.0890424 0.132074 0.0
0.0377485 0.154485 0.0
0.00299552 0.172803 0.0
-0.0203754 0.187158 0.0
-0.0360931 0.197862 0.0
-0.0469057 0.205421 0.0
-0.0546396 0.210265 0.0
-0.0604739 0.21277 0.0
-0.0651468 0.213256 0.0
-0.0691011 0.211996 0.0
-0.0725848 0.209225 0.0
-0.0757206 0.205147 0.0
-0.0785529 0.199943 0.0
-0.0810803 0.19378 0.0
-0.0832768 0.186807 0.0
-0.085107 0.179165 0.0
-0.0865352 0.170986 0.0
-0.0875314 0.162389 0.0
-0.0880749 0.15349 0.0
-0.0881557 0.144393 0.0
-0.0877745 0.135194 0.0
-0.0869423 0.125979 0.0
-0.0856788 0.116825 0.0
-0.0840106 0.1078 0.0
-0.0819692 0.0989611 0.0
-0.0795892 0.0903571 0.0
-0.0769058 0.0820281 0.0
-0.0739537 0.0740065 0.0
-0.0707651 0.0663177 0.0
-0.0673687 0.0589809 0.0
-0.0637887 0.0520109 0.0
-0.0600442 0.0454183 0.0
-0.0561489 0.0392114 0.0
-0.0521108 0.0333971 0.0
-0.0479332 0.0279819 0.0
-0.0436145 0.0229738 0.0
-0.0391494 0.0183827 0.0
-0.0345295 0.0142225 0.0
-0.0297448 0.0105124 0.0
-0.0247845 0.00727876 0.0
-0.019638 0.00455832 0.0
-0.0142958 0.00239212 0.0
-0.00874953 0.000840861 0.0
-0.00299086 0.000114537 0.0
0.874638 0.00201719 0.0
0.641237 0.0155079 0.0
0.448496 0.0407343 0.0
0.30029 0.0689303 0.0
0.191244 0.0967752 0.0
0.113163 0.12223 0.0
0.0581205 0.14432 0.0
0.019573 0.16277 0.0
-0.00747325 0.177662 0.0
-0.0265103 0.189108 0.0
-0.0402338 0.197486 0.0
-0.0505038 0.203169 0.0
-0.0585459 0.206485 0.0
-0.0651418 0.207725 0.0
-0.0707716 0.207143 0.0
-0.0757133 0.204964 0.0
-0.0801129 0.201392 0.0
-0.0840329 0.19661 0.0
-0.0874856 0.190791 0.0
-0.0904568 0.184093 0.0
-0.0929206 0.176666 0.0
-0.0948505 0.168653 0.0
-0.0962251 0.160185 0.0
-0.0970329 0.151385 0.0
-0.097273 0.142369 0.0
-0.0969561 0.13324 0.0
-0.0961033 0.124091 0.0
-0.0947445 0.115004 0.0
-0.0929166 0.106051 0.0
-0.090661 0.0972932 0.0
-0.0880216 0.0887797 0.0
-0.0850426 0.0805514 0.0
-0.0817664 0.07264 0.0
-0.0782321 0.0650696 0.0
-0.074474 0.0578576 0.0
-0.0705208 0.051016 0.0
-0.0663949 0.0445529 0.0
-0.0621118 0.0384737 0.0
-0.0576806 0.0327824 0.0
-0.0531038 0.0274829 0.0
-0.0483779 0.0225808 0.0
-0.0434942 0.018084 0.0
-0.0384397 0.0140052 0.0
-0.0331976 0.0103626 0.0
-0.0277484 0.0071828 0.0
-0.0220708 0.00450293 0.0
-0.0161417 0.00236532 0.0
-0.0099361 0.000832116 0.0
-0.003426 0.00011345 0.0
0.882201 0.00174543 0.0
0.660378 0.0137458 0.0
0.473814 0.0366027 0.0
0.32737 0.0626926 0.0
0.217259 0.0889609 0.0
0.136588 0.113416 0.0
0.0782904 0.135019 0.0
0.0363269 0.153388 0.0
0.00596994 0.168493 0.0
-0.0162671 0.180453 0.0
-0.0328434 0.189424 0.0
-0.0456414 0.195744 0.0
-0.0559192 0.199695 0.0
-0.0644907 0.201538 0.0
-0.0718631 0.201508 0.0
-0.0783369 0.19982 0.0
-0.0840754 0.196673 0.0
-0.0891549 0.19225 0.0
-0.0935989 0.186728 0.0
-0.0974024 0.180272 0.0
-0.100548 0.173041 0.0
-0.103018 0.165185 0.0
-0.1048 0.156847 0.0
-0.105891 0.148158 0.0
-0.106302 0.139242 0.0
-0.106054 0.130208 0.0
-0.105179 0.121158 0.0
-0.103719 0.112176 0.0
-0.101722 0.103339 0.0
-0.0992416 0.0947092 0.0
-0.0963315 0.0863371 0.0
-0.0930458 0.0782632 0.0
-0.0894357 0.0705181 0.0
-0.0855478 0.0631238 0.0
-0.0814225 0.0560951 0.0
-0.0770936 0.0494413 0.0
-0.0725866 0.0431672 0.0
-0.0679194 0.0372748 0.0
-0.0631016 0.0317648 0.0
-0.0581348 0.0266382 0.0
-0.0530134 0.0218975 0.0
-0.0477249 0.0175483 0.0
-0.0422507 0.013601 0.0
-0.036567 0.0100727 0.0
-0.0306451 0.00698868 0.0
-0.0244523 0.00438573 0.0
-0.0179513 0.00230616 0.0
-0.011101 0.000812214 0.0
-0.00385366 0.000110954 0.0
0.888928 0.0015306 0.0
0.677649 0.0122876 0.0
0.497061 0.0330979 0.0
0.352678 0.0572852 0.0
0.241989 0.0820496 0.0
0.159223 0.105469 0.0
0.0980967 0.126473 0.0
0.0530472 0.144601 0.0
0.0196091 0.159731 0.0
-0.00560304 0.171948 0.0
-0.024942 0.181317 0.0
-0.0402349 0.188087 0.0
-0.0527531 0.192509 0.0
-0.0633298 0.194811 0.0
-0.0724904 0.195209 0.0
-0.0805501 0.193907 0.0
-0.0876844 0.191097 0.0
-0.0939789 0.186963 0.0
-0.0994649 0.181683 0.0
-0.104145 0.175429 0.0
-0.108008 0.168366 0.0
-0.111046 0.160652 0.0
-0.113253 0.152438 0.0
-0.114639 0.143865 0.0
-0.115224 0.135062 0.0
-0.115041 0.126146 0.0
-0.114136 0.117223 0.0
-0.112564 0.108382 0.0
-0.110384 0.0997008 0.0
-0.107664 0.0912439 0.0
-0.104468 0.0830619 0.0
-0.100862 0.075194 0.0
-0.0969062 0.0676691 0.0
-0.0926553 0.0605065 0.0
-0.0881566 0.053718 0.0
-0.0834489 0.0473093 0.0
-0.0785614 0.0412816 0.0
-0.0735141 0.0356331 0.0
-0.0683171 0.0303609 0.0
-0.0629711 0.0254622 0.0
-0.0574678 0.0209362 0.0
-0.0517906 0.0167857 0.0
-0.0459151 0.0130185 0.0
-0.0398097 0.00964907 0.0
-0.0334363 0.00670114 0.0
-0.0267502 0.00420982 0.0
-0.0197002 0.00221633 0.0
-0.0122285 0.000781766 0.0
-0.00426832 0.000107131 0.0
0.894956 0.00135487 0.0
0.693319 0.0110555 0.0
0.518471 0.0300765 0.0
0.376346 0.0525343 0.0
0.26546 0.0758668 0.0
0.181011 0.0982338 0.0
0.117422 0.118553 0.0
0.0695852 0.136307 0.0
0.0332996 0.151309 0.0
0.00532694 0.163566 0.0
-0.0167008 0.173173 0.0
-0.0344476 0.180229 0.0
-0.0491959 0.18497 0.0
-0.0617905 0.187595 0.0
-0.0727673 0.188301 0.0
-0.0824499 0.18728 0.0
-0.0910205 0.184718 0.0
-0.0985699 0.180799 0.0
-0.105134 0.175702 0.0
-0.110721 0.169604 0.0
-0.115326 0.162676 0.0
-0.118946 0.155085 0.0
-0.121588 0.146987 0.0
-0.123269 0.138532 0.0
-0.124022 0.129854 0.0
-0.123894 0.121076 0.0
-0.122945 0.112308 0.0