# vtk DataFile Version 3.0
Malha 2D com triângulos e temperatura
ASCII
DATASET UNSTRUCTURED_GRID

POINTS 2500 double
0 0 0
1 0 0
1 1 0
0 1 0
0.0204082 0 0
0.0408163 0 0
0.0612245 0 0
0.0816327 0 0
0.102041 0 0
0.122449 0 0
0.142857 0 0
0.163265 0 0
0.183673 0 0
0.204082 0 0
0.22449 0 0
0.244898 0 0
0.265306 0 0
0.285714 0 0
0.306122 0 0
0.326531 0 0
0.346939 0 0
0.367347 0 0
0.387755 0 0
0.408163 0 0
0.428571 0 0
0.44898 0 0
0.469388 0 0
0.489796 0 0
0.510204 0 0
0.530612 0 0
0.55102 0 0
0.571429 0 0
0.591837 0 0
0.612245 0 0
0.632653 0 0
0.653061 0 0
0.673469 0 0
0.693878 0 0
0.714286 0 0
0.734694 0 0
0.755102 0 0
0.77551 0 0
0.795918 0 0
0.816327 0 0
0.836735 0 0
0.857143 0 0
0.877551 0 0
0.897959 0 0
0.918367 0 0
0.938776 0 0
0.959184 0 0
0.979592 0 0
1 0.0204082 0
1 0.0408163 0
1 0.0612245 0
1 0.0816327 0
1 0.102041 0
1 0.122449 0
1 0.142857 0
1 0.163265 0
1 0.183673 0
1 0.204082 0
1 0.22449 0
1 0.244898 0
1 0.265306 0
1 0.285714 0
1 0.306122 0
1 0.326531 0
1 0.346939 0
1 0.367347 0
1 0.387755 0
1 0.408163 0
1 0.428571 0
1 0.44898 0
1 0.469388 0
1 0.489796 0
1 0.510204 0
1 0.530612 0
1 0.55102 0
1 0.571429 0
1 0.591837 0
1 0.612245 0
1 0.632653 0
1 0.653061 0
1 0.673469 0
1 0.693878 0
1 0.714286 0
1 0.734694 0
1 0.755102 0
1 0.77551 0
1 0.795918 0
1 0.816327 0
1 0.836735 0
1 0.857143 0
1 0.877551 0
1 0.897959 0
1 0.918367 0
1 0.938776 0
1 0.959184 0
1 0.979592 0
0.979592 1 0
0.959184 1 0
0.938776 1 0
0.918367 1 0
0.897959 1 0
0.877551 1 0
0.857143 1 0
0.836735 1 0
0.816327 1 0
0.795918 1 0
0.77551 1 0
0.755102 1 0
0.734694 1 0
0.714286 1 0
0.693878 1 0
0.673469 1 0
0.653061 1 0
0.632653 1 0
0.612245 1 0
0.591837 1 0
0.571429 1 0
0.55102 1 0
0.530612 1 0
0.510204 1 0
0.489796 1 0
0.469388 1 0
0.44898 1 0
0.428571 1 0
0.408163 1 0
0.387755 1 0
0.367347 1 0
0.346939 1 0
0.326531 1 0
0.306122 1 0
0.285714 1 0
0.265306 1 0
0.244898 1 0
0.22449 1 0
0.204082 1 0
0.183673 1 0
0.163265 1 0
0.142857 1 0
0.122449 1 0
0.102041 1 0
0.0816327 1 0
0.0612245 1 0
0.0408163 1 0
0.0204082 1 0
0 0.979592 0
0 0.959184 0
0 0.938776 0
0 0.918367 0
0 0.897959 0
0 0.877551 0
0 0.857143 0
0 0.836735 0
0 0.816327 0
0 0.795918 0
0 0.77551 0
0 0.755102 0
0 0.734694 0
0 0.714286 0
0 0.693878 0
0 0.673469 0
0 0.653061 0
0 0.632653 0
0 0.612245 0
0 0.591837 0
0 0.571429 0
0 0.55102 0
0 0.530612 0
0 0.510204 0
0 0.489796 0
0 0.469388 0
0 0.44898 0
0 0.428571 0
0 0.408163 0
0 0.387755 0
0 0.367347 0
0 0.346939 0
0 0.326531 0
0 0.306122 0
0 0.285714 0
0 0.265306 0
0 0.244898 0
0 0.22449 0
0 0.204082 0
0 0.183673 0
0 0.163265 0
0 0.142857 0
0 0.122449 0
0 0.102041 0
0 0.0816327 0
0 0.0612245 0
0 0.0408163 0
0 0.0204082 0
0.0204082 0.979592 0
0.0204082 0.959184 0
0.0204082 0.938776 0
0.0204082 0.918367 0
0.0204082 0.897959 0
0.0204082 0.877551 0
0.0204082 0.857143 0
0.0204082 0.836735 0
0.0204082 0.816327 0
0.0204082 0.795918 0
0.0204082 0.77551 0
0.0204082 0.755102 0
0.0204082 0.734694 0
0.0204082 0.714286 0
0.0204082 0.693878 0
0.0204082 0.673469 0
0.0204082 0.653061 0
0.0204082 0.632653 0
0.0204082 0.612245 0
0.0204082 0.591837 0
0.0204082 0.571429 0
0.0204082 0.55102 0
0.0204082 0.530612 0
0.0204082 0.510204 0
0.0204082 0.489796 0
0.0204082 0.469388 0
0.0204082 0.44898 0
0.0204082 0.428571 0
0.0204082 0.408163 0
0.0204082 0.387755 0
0.0204082 0.367347 0
0.0204082 0.346939 0
0.0204082 0.326531 0
0.0204082 0.306122 0
0.0204082 0.285714 0
0.0204082 0.265306 0
0.0204082 0.244898 0
0.0204082 0.22449 0
0.0204082 0.204082 0
0.0204082 0.183673 0
0.0204082 0.163265 0
0.0204082 0.142857 0
0.0204082 0.122449 0
0.0204082 0.102041 0
0.0204082 0.0816327 0
0.0204082 0.0612245 0
0.0204082 0.0408163 0
0.0204082 0.0204082 0
0.0408163 0.979592 0
0.0408163 0.959184 0
0.0408163 0.938776 0
0.0408163 0.918367 0
0.0408163 0.897959 0
0.0408163 0.877551 0
0.0408163 0.857143 0
0.0408163 0.836735 0
0.0408163 0.816327 0
0.0408163 0.795918 0
0.0408163 0.77551 0
0.0408163 0.755102 0
0.0408163 0.734694 0
0.0408163 0.714286 0
0.0408163 0.693878 0
0.0408163 0.673469 0
0.0408163 0.653061 0
0.0408163 0.632653 0
0.0408163 0.612245 0
0.0408163 0.591837 0
0.0408163 0.571429 0
0.0408163 0.55102 0
0.0408163 0.530612 0
0.0408163 0.510204 0
0.0408163 0.489796 0
0.0408163 0.469388 0
0.0408163 0.44898 0
0.0408163 0.428571 0
0.0408163 0.408163 0
0.0408163 0.387755 0
0.0408163 0.367347 0
0.0408163 0.346939 0
0.0408163 0.326531 0
0.0408163 0.306122 0
0.0408163 0.285714 0
0.0408163 0.265306 0
0.0408163 0.244898 0
0.0408163 0.22449 0
0.0408163 0.204082 0
0.0408163 0.183673 0
0.0408163 0.163265 0
0.0408163 0.142857 0
0.0408163 0.122449 0
0.0408163 0.102041 0
0.0408163 0.0816327 0
0.0408163 0.0612245 0
0.0408163 0.0408163 0
0.0408163 0.0204082 0
0.0612245 0.979592 0
0.0612245 0.959184 0
0.0612245 0.938776 0
0.0612245 0.918367 0
0.0612245 0.897959 0
0.0612245 0.877551 0
0.0612245 0.857143 0
0.0612245 0.836735 0
0.0612245 0.816327 0
0.0612245 0.795918 0
0.0612245 0.77551 0
0.0612245 0.755102 0
0.0612245 0.734694 0
0.0612245 0.714286 0
0.0612245 0.693878 0
0.0612245 0.673469 0
0.0612245 0.653061 0
0.0612245 0.632653 0
0.0612245 0.612245 0
0.0612245 0.591837 0
0.0612245 0.571429 0
0.0612245 0.55102 0
0.0612245 0.530612 0
0.0612245 0.510204 0
0.0612245 0.489796 0
0.0612245 0.469388 0
0.0612245 0.44898 0
0.0612245 0.428571 0
0.0612245 0.408163 0
0.0612245 0.387755 0
0.0612245 0.367347 0
0.0612245 0.346939 0
0.0612245 0.326531 0
0.0612245 0.306122 0
0.0612245 0.285714 0
0.0612245 0.265306 0
0.0612245 0.244898 0
0.0612245 0.22449 0
0.0612245 0.204082 0
0.0612245 0.183673 0
0.0612245 0.163265 0
0.0612245 0.142857 0
0.0612245 0.122449 0
0.0612245 0.102041 0
0.0612245 0.0816327 0
0.0612245 0.0612245 0
0.0612245 0.0408163 0
0.0612245 0.0204082 0
0.0816327 0.979592 0
0.0816327 0.959184 0
0.0816327 0.938776 0
0.0816327 0.918367 0
0.0816327 0.897959 0
0.0816327 0.877551 0
0.0816327 0.857143 0
0.0816327 0.836735 0
0.0816327 0.816327 0
0.0816327 0.795918 0
0.0816327 0.77551 0
0.0816327 0.755102 0
0.0816327 0.734694 0
0.0816327 0.714286 0
0.0816327 0.693878 0
0.0816327 0.673469 0
0.0816327 0.653061 0
0.0816327 0.632653 0
0.0816327 0.612245 0
0.0816327 0.591837 0
0.0816327 0.571429 0
0.0816327 0.55102 0
0.0816327 0.530612 0
0.0816327 0.510204 0
0.0816327 0.489796 0
0.0816327 0.469388 0
0.0816327 0.44898 0
0.0816327 0.428571 0
0.0816327 0.408163 0
0.0816327 0.387755 0
0.0816327 0.367347 0
0.0816327 0.346939 0
0.0816327 0.326531 0
0.0816327 0.306122 0
0.0816327 0.285714 0
0.0816327 0.265306 0
0.0816327 0.244898 0
0.0816327 0.22449 0
0.0816327 0.204082 0
0.0816327 0.183673 0
0.0816327 0.163265 0
0.0816327 0.142857 0
0.0816327 0.122449 0
0.0816327 0.102041 0
0.0816327 0.0816327 0
0.0816327 0.0612245 0
0.0816327 0.0408163 0
0.0816327 0.0204082 0
0.102041 0.979592 0
0.102041 0.959184 0
0.102041 0.938776 0
0.102041 0.918367 0
0.102041 0.897959 0
0.102041 0.877551 0
0.102041 0.857143 0
0.102041 0.836735 0
0.102041 0.816327 0
0.102041 0.795918 0
0.102041 0.77551 0
0.102041 0.755102 0
0.102041 0.734694 0
0.102041 0.714286 0
0.102041 0.693878 0
0.102041 0.673469 0
0.102041 0.653061 0
0.102041 0.632653 0
0.102041 0.612245 0
0.102041 0.591837 0
0.102041 0.571429 0
0.102041 0.55102 0
0.102041 0.530612 0
0.102041 0.510204 0
0.102041 0.489796 0
0.102041 0.469388 0
0.102041 0.44898 0
0.102041 0.428571 0
0.102041 0.408163 0
0.102041 0.387755 0
0.102041 0.367347 0
0.102041 0.346939 0
0.102041 0.326531 0
0.102041 0.306122 0
0.102041 0.285714 0
0.102041 0.265306 0
0.102041 0.244898 0
0.102041 0.22449 0
0.102041 0.204082 0
0.102041 0.183673 0
0.102041 0.163265 0
0.102041 0.142857 0
0.102041 0.122449 0
0.102041 0.102041 0
0.102041 0.0816327 0
0.102041 0.0612245 0
0.102041 0.0408163 0
0.102041 0.0204082 0
0.122449 0.979592 0
0.122449 0.959184 0
0.122449 0.938776 0
0.122449 0.918367 0
0.122449 0.897959 0
0.122449 0.877551 0
0.122449 0.857143 0
0.122449 0.836735 0
0.122449 0.816327 0
0.122449 0.795918 0
0.122449 0.77551 0
0.122449 0.755102 0
0.122449 0.734694 0
0.122449 0.714286 0
0.122449 0.693878 0
0.122449 0.673469 0
0.122449 0.653061 0
0.122449 0.632653 0
0.122449 0.612245 0
0.122449 0.591837 0
0.122449 0.571429 0
0.122449 0.55102 0
0.122449 0.530612 0
0.122449 0.510204 0
0.122449 0.489796 0
0.122449 0.469388 0
0.122449 0.44898 0
0.122449 0.428571 0
0.122449 0.408163 0
0.122449 0.387755 0
0.122449 0.367347 0
0.122449 0.346939 0
0.122449 0.326531 0
0.122449 0.306122 0
0.122449 0.285714 0
0.122449 0.265306 0
0.122449 0.244898 0
0.122449 0.22449 0
0.122449 0.204082 0
0.122449 0.183673 0
0.122449 0.163265 0
0.122449 0.142857 0
0.122449 0.122449 0
0.122449 0.102041 0
0.122449 0.0816327 0
0.122449 0.0612245 0
0.122449 0.0408163 0
0.122449 0.0204082 0
0.142857 0.979592 0
0.142857 0.959184 0
0.142857 0.938776 0
0.142857 0.918367 0
0.142857 0.897959 0
0.142857 0.877551 0
0.142857 0.857143 0
0.142857 0.836735 0
0.142857 0.816327 0
0.142857 0.795918 0
0.142857 0.77551 0
0.142857 0.755102 0
0.142857 0.734694 0
0.142857 0.714286 0
0.142857 0.693878 0
0.142857 0.673469 0
0.142857 0.653061 0
0.142857 0.632653 0
0.142857 0.612245 0
0.142857 0.591837 0
0.142857 0.571429 0
0.142857 0.55102 0
0.142857 0.530612 0
0.142857 0.510204 0
0.142857 0.489796 0
0.142857 0.469388 0
0.142857 0.44898 0
0.142857 0.428571 0
0.142857 0.408163 0
0.142857 0.387755 0
0.142857 0.367347 0
0.142857 0.346939 0
0.142857 0.326531 0
0.142857 0.306122 0
0.142857 0.285714 0
0.142857 0.265306 0
0.142857 0.244898 0
0.142857 0.22449 0
0.142857 0.204082 0
0.142857 0.183673 0
0.142857 0.163265 0
0.142857 0.142857 0
0.142857 0.122449 0
0.142857 0.102041 0
0.142857 0.0816327 0
0.142857 0.0612245 0
0.142857 0.0408163 0
0.142857 0.0204082 0
0.163265 0.979592 0
0.163265 0.959184 0
0.163265 0.938776 0
0.163265 0.918367 0
0.163265 0.897959 0
0.163265 0.877551 0
0.163265 0.857143 0
0.163265 0.836735 0
0.163265 0.816327 0
0.163265 0.795918 0
0.163265 0.77551 0
0.163265 0.755102 0
0.163265 0.734694 0
0.163265 0.714286 0
0.163265 0.693878 0
0.163265 0.673469 0
0.163265 0.653061 0
0.163265 0.632653 0
0.163265 0.612245 0
0.163265 0.591837 0
0.163265 0.571429 0
0.163265 0.55102 0
[...]
CELL_DATA 2401
VECTORS velocity double
0.257582 0.1573 0.0
-0.00262939 0.264435 0.0
-0.0322713 0.205445 0.0
-0.0253767 0.150541 0.0
-0.0160694 0.112994 0.0
-0.00971413 0.0876294 0.0
-0.00593712 0.0705507 0.0
-0.00374946 0.0588548 0.0
-0.0024637 0.0506336 0.0
-0.00168426 0.0446999 0.0
-0.00119522 0.0403055 0.0
-0.000879083 0.0369653 0.0
-0.00067036 0.0343553 0.0
-0.000531083 0.0322531 0.0
-0.000438224 0.0305025 0.0
-0.000377177 0.0289923 0.0
-0.000338297 0.027642 0.0
-0.000314979 0.0263939 0.0
-0.000302558 0.025206 0.0
-0.000297647 0.0240488 0.0
-0.00029773 0.0229018 0.0
-0.000300903 0.0217517 0.0
-0.000305704 0.0205905 0.0
-0.000311013 0.0194146 0.0
-0.000315966 0.0182239 0.0
-0.000319912 0.0170205 0.0
-0.000322375 0.0158086 0.0
-0.00032302 0.0145939 0.0
-0.000321633 0.013383 0.0
-0.000318101 0.0121829 0.0
-0.000312391 0.0110012 0.0
-0.00030453 0.00984527 0.0
-0.000294597 0.00872255 0.0
-0.000282697 0.00764009 0.0
-0.000268952 0.00660462 0.0
-0.000253489 0.0056225 0.0
-0.000236421 0.00469966 0.0
-0.00021784 0.00384168 0.0
-0.000197802 0.00305385 0.0
-0.000176314 0.00234123 0.0
-0.000153322 0.00170877 0.0
-0.000128704 0.00116142 0.0
-0.00010227 0.000704158 0.0
-7.38153e-05 0.000341957 0.0
-4.3289e-05 7.93781e-05 0.0
-1.13071e-05 -8.04864e-05 0.0
1.95404e-05 -0.000138425 0.0
4.19939e-05 -0.000108076 0.0
3.70832e-05 -3.68942e-05 0.0
0.340765 0.122966 0.0
-0.000667659 0.249469 0.0
-0.0652539 0.27165 0.0
-0.0632927 0.252138 0.0
-0.0485621 0.221596 0.0
-0.0349955 0.191717 0.0
-0.0249299 0.166302 0.0
-0.0178894 0.14585 0.0
-0.0130316 0.129742 0.0
-0.00967044 0.117122 0.0
-0.00732728 0.107186 0.0
-0.00568336 0.0992695 0.0
-0.0045272 0.0928483 0.0
-0.00371657 0.0875187 0.0
-0.0031539 0.0829729 0.0
-0.00277079 0.078978 0.0
-0.00251823 0.0753585 0.0
-0.00236044 0.0719834 0.0
-0.00227077 0.0687561 0.0
-0.0022291 0.0656067 0.0
-0.00221998 0.0624862 0.0
-0.00223143 0.0593623 0.0
-0.00225414 0.0562158 0.0
-0.00228083 0.0530378 0.0
-0.00230585 0.0498274 0.0
-0.00232491 0.0465903 0.0
-0.0023348 0.0433367 0.0
-0.00233327 0.0400805 0.0
-0.00231879 0.0368379 0.0
-0.0022905 0.0336267 0.0
-0.00224806 0.0304656 0.0
-0.0021915 0.0273733 0.0
-0.00212119 0.0243686 0.0
-0.00203768 0.0214694 0.0
-0.00194168 0.0186932 0.0
-0.0018339 0.0160561 0.0
-0.00171507 0.0135738 0.0
-0.00158581 0.0112608 0.0
-0.00144663 0.00913066 0.0
-0.00129789 0.00719652 0.0
-0.00113981 0.00547068 0.0
-0.000972502 0.00396482 0.0
-0.000796214 0.00268974 0.0
-0.000611711 0.00165473 0.0
-0.000421261 0.00086614 0.0
-0.000230757 0.000324724 0.0
-5.40613e-05 2.05637e-05 0.0
7.96712e-05 -7.79942e-05 0.0
0.000107513 -4.08369e-05 0.0
0.500813 0.0768032 0.0
0.0989526 0.183197 0.0
-0.0394532 0.249174 0.0
-0.0735017 0.265667 0.0
-0.0719423 0.257364 0.0
-0.0606079 0.239591 0.0
-0.0483232 0.219616 0.0
-0.0377264 0.200725 0.0
-0.0293063 0.184124 0.0
-0.0228606 0.17002 0.0
-0.0180229 0.158193 0.0
-0.0144391 0.148276 0.0
-0.0118148 0.139884 0.0
-0.00991852 0.132665 0.0
-0.00857214 0.126319 0.0
-0.00763966 0.120601 0.0
-0.00701706 0.115316 0.0
-0.00662438 0.110314 0.0
-0.0063997 0.105478 0.0
-0.00629472 0.100725 0.0
-0.00627149 0.0959939 0.0
-0.00630008 0.0912467 0.0
-0.00635681 0.0864602 0.0
-0.00642305 0.0816253 0.0
-0.00648424 0.0767431 0.0
-0.0065292 0.0718233 0.0
-0.00654959 0.0668821 0.0
-0.00653942 0.06194 0.0
-0.0064947 0.0570212 0.0
-0.00641307 0.0521515 0.0
-0.0062935 0.0473582 0.0
-0.00613604 0.0426687 0.0
-0.00594149 0.0381102 0.0
-0.00571125 0.0337089 0.0
-0.00544703 0.0294901 0.0
-0.00515071 0.0254778 0.0
-0.00482417 0.0216947 0.0
-0.00446916 0.0181621 0.0
-0.00408724 0.0149 0.0
-0.00367976 0.0119271 0.0
-0.00324796 0.00926092 0.0
-0.00279324 0.00691735 0.0
-0.00231775 0.0049104 0.0
-0.00182554 0.00325102 0.0
-0.00132471 0.00194528 0.0
-0.000831501 0.000991342 0.0
-0.000377457 0.000373611 0.0
-1.9494e-05 5.52992e-05 0.0
0.000135427 -1.75667e-05 0.0
0.60998 0.0480488 0.0
0.19555 0.133938 0.0
0.0112456 0.209383 0.0
-0.0581502 0.246429 0.0
-0.0761304 0.256995 0.0
-0.0737177 0.2536 0.0
-0.0643773 0.24343 0.0
-0.053731 0.23073 0.0
-0.0439587 0.217753 0.0
-0.035751 0.205548 0.0
-0.0291777 0.1945 0.0
-0.0240734 0.184652 0.0
-0.0202043 0.175881 0.0
-0.0173377 0.168 0.0
-0.0152669 0.160811 0.0
-0.0138178 0.15413 0.0
-0.0128473 0.147798 0.0
-0.0122392 0.141683 0.0
-0.0118996 0.135685 0.0
-0.0117528 0.129725 0.0
-0.0117379 0.123751 0.0
-0.0118056 0.117726 0.0
-0.0119168 0.111634 0.0
-0.0120398 0.10547 0.0
-0.0121501 0.0992411 0.0
-0.0122286 0.0929626 0.0
-0.012261 0.0866567 0.0
-0.0122371 0.0803507 0.0
-0.0121499 0.0740754 0.0
-0.0119954 0.0678633 0.0
-0.011772 0.0617484 0.0
-0.0114796 0.0557646 0.0
-0.0111198 0.0499453 0.0
-0.010695 0.044323 0.0
-0.0102081 0.0389286 0.0
-0.00966267 0.0337917 0.0
-0.009062 0.0289401 0.0
-0.00840942 0.0243998 0.0
-0.00770801 0.0201953 0.0
-0.00696069 0.0163491 0.0
-0.00617047 0.012882 0.0
-0.00534093 0.00981251 0.0
-0.00447732 0.00715644 0.0
-0.00358832 0.00492554 0.0
-0.00268919 0.00312589 0.0
-0.00180712 0.00175544 0.0
-0.000989917 0.00079827 0.0
-0.000316694 0.0002227 0.0
7.6369e-05 1.27644e-05 0.0
0.680363 0.0301701 0.0
0.278324 0.0981819 0.0
0.0694782 0.170976 0.0
-0.0275766 0.217529 0.0
-0.0652672 0.241043 0.0
-0.0745936 0.249601 0.0
-0.0714214 0.249126 0.0
-0.0635159 0.243715 0.0
-0.0545454 0.23594 0.0
-0.0461411 0.227287 0.0
-0.0389319 0.218552 0.0
-0.0330654 0.210107 0.0
-0.0284712 0.202083 0.0
-0.0249916 0.194477 0.0
-0.0224452 0.187221 0.0
-0.0206565 0.180224 0.0
-0.0194676 0.173389 0.0
-0.0187418 0.166633 0.0
-0.0183633 0.159884 0.0
-0.0182352 0.153089 0.0
-0.0182773 0.146212 0.0
-0.0184236 0.139232 0.0
-0.0186202 0.132143 0.0
-0.0188238 0.12495 0.0
-0.0189999 0.117668 0.0
-0.0191219 0.110322 0.0
-0.0191698 0.102939 0.0
-0.0191293 0.0955548 0.0
-0.0189906 0.0882051 0.0
-0.0187485 0.0809288 0.0
-0.0184006 0.0737651 0.0
-0.0179473 0.0667528 0.0
-0.017391 0.0599303 0.0
-0.0167355 0.0533341 0.0
-0.0159855 0.0469994 0.0
-0.015146 0.0409593 0.0
-0.0142224 0.0352451 0.0
-0.0132198 0.029886 0.0
-0.0121433 0.0249089 0.0
-0.0109979 0.0203391 0.0
-0.00978874 0.0161991 0.0
-0.00852234 0.0125092 0.0
-0.00720758 0.00928623 0.0
-0.0058582 0.00654303 0.0
-0.00449642 0.00428695 0.0
-0.0031588 0.00251861 0.0
-0.00190515 0.0012264 0.0
-0.000828306 0.000390435 0.0
-7.71345e-05 4.20112e-05 0.0
0.729749 0.0191999 0.0
0.348859 0.073057 0.0
0.127815 0.139321 0.0
0.0111993 0.188352 0.0
-0.0442223 0.219777 0.0
-0.0658167 0.236984 0.0
-0.0703598 0.24451 0.0
-0.0669524 0.24582 0.0
-0.0603943 0.24337 0.0
-0.0531339 0.238765 0.0
-0.0463474 0.233001 0.0
-0.0405304 0.22666 0.0
-0.0358234 0.220058 0.0
-0.0321897 0.213346 0.0
-0.0295117 0.206578 0.0
-0.0276426 0.199755 0.0
-0.0264322 0.192855 0.0
-0.0257397 0.185845 0.0
-0.0254393 0.178696 0.0
-0.025421 0.171389 0.0
-0.0255914 0.16391 0.0
-0.0258714 0.156259 0.0
-0.0261959 0.148446 0.0
-0.0265115 0.140489 0.0
-0.0267756 0.132413 0.0
-0.0269553 0.124253 0.0
-0.0270255 0.116045 0.0
-0.0269688 0.107829 0.0
-0.0267734 0.0996495 0.0
-0.0264331 0.0915493 0.0
-0.0259456 0.0835723 0.0
-0.0253121 0.0757615 0.0
-0.0245362 0.0681584 0.0
-0.0236236 0.0608028 0.0
-0.0225806 0.0537324 0.0
-0.0214147 0.0469827 0.0
-0.0201333 0.0405868 0.0
-0.0187437 0.0345756 0.0
-0.0172531 0.0289777 0.0
-0.0156689 0.0238194 0.0
-0.0139989 0.0191245 0.0
-0.0122525 0.0149142 0.0
-0.0104423 0.0112066 0.0
-0.00858656 0.00801595 0.0
-0.00671322 0.00535246 0.0
-0.00486546 0.00322176 0.0
-0.00310987 0.0016199 0.0
-0.00154459 0.000542035 0.0
-0.000317707 6.71375e-05 0.0
0.765761 0.0125993 0.0
0.408304 0.0557231 0.0
0.182836 0.114586 0.0
0.0527689 0.162746 0.0
-0.0169587 0.197998 0.0
-0.0500219 0.220973 0.0
-0.0627027 0.234506 0.0
-0.064722 0.241359 0.0
-0.0616365 0.243663 0.0
-0.0565286 0.242946 0.0
-0.0510455 0.240251 0.0
-0.0460117 0.236259 0.0
-0.041786 0.231397 0.0
-0.0384715 0.225926 0.0
-0.0360355 0.219993 0.0
-0.0343795 0.21368 0.0
-0.0333779 0.20703 0.0
-0.0328995 0.200064 0.0
-0.0328189 0.192796 0.0
-0.0330218 0.185239 0.0
-0.0334071 0.177409 0.0
-0.0338881 0.169327 0.0
-0.0343916 0.161021 0.0
-0.0348573 0.152524 0.0
-0.0352366 0.143876 0.0
-0.0354918 0.135118 0.0
-0.0355947 0.126298 0.0
-0.0355254 0.117462 0.0
-0.0352716 0.10866 0.0
-0.0348267 0.099941 0.0
-0.0341894 0.0913516 0.0
-0.0333621 0.0829384 0.0
-0.0323505 0.0747455 0.0
-0.0311623 0.0668148 0.0
-0.0298063 0.0591854 0.0
-0.0282922 0.0518939 0.0
-0.02663 0.0449743 0.0
-0.0248293 0.0384583 0.0
-0.0228999 0.0323747 0.0
-0.0208513 0.0267503 0.0
-0.0186941 0.0216095 0.0
-0.0164403 0.0169741 0.0
-0.0141057 0.0128635 0.0
-0.0117121 0.00929421 0.0
-0.00929094 0.00628022 0.0
-0.00688886 0.00383378 0.0
-0.00457415 0.00196033 0.0
-0.00244304 0.000670859 0.0
-0.000633252 8.74583e-05 0.0
0.79281 0.00861383 0.0
0.458389 0.0436539 0.0
0.233364 0.0954668 0.0
0.0944942 0.141233 0.0
0.0139835 0.177568 0.0
-0.0294107 0.204179 0.0
-0.0500406 0.221992 0.0
-0.0578439 0.23315 0.0
-0.0588384 0.239404 0.0
-0.0565647 0.242113 0.0
-0.0530464 0.242273 0.0
-0.049391 0.240588 0.0
-0.0461605 0.237539 0.0
-0.0435965 0.233449 0.0
-0.0417586 0.228532 0.0
-0.0406063 0.22293 0.0
-0.0400488 0.21674 0.0
-0.0399738 0.210028 0.0
-0.0402645 0.202848 0.0
-0.0408088 0.195245 0.0
-0.0415041 0.187261 0.0
-0.0422601 0.178941 0.0
-0.0429994 0.170332 0.0
-0.0436576 0.161482 0.0
-0.0441827 0.152443 0.0
-0.0445343 0.143269 0.0
-0.0446826 0.134014 0.0
-0.0446072 0.124735 0.0
-0.0442958 0.115486 0.0
-0.0437431 0.106319 0.0
-0.0429492 0.0972865 0.0
-0.0419191 0.0884371 0.0
-0.0406607 0.0798167 0.0
-0.0391845 0.0714683 0.0
-0.0375023 0.0634318 0.0
-0.0356264 0.055744 0.0
-0.0335695 0.0484389 0.0
-0.0313438 0.0415477 0.0
-0.0289614 0.0350992 0.0
-0.0264343 0.0291199 0.0
-0.0237752 0.0236342 0.0
-0.0209985 0.0186644 0.0
-0.018122 0.0142312 0.0
-0.0151696 0.0103538 0.0
-0.0121742 0.00705063 0.0
-0.00918237 0.00434121 0.0
-0.00625982 0.00224078 0.0
-0.00349537 0.000775283 0.0
-0.00101028 0.000103214 0.0
0.813838 0.00616507 0.0
0.500915 0.0351029 0.0
0.279243 0.0806851 0.0
0.134916 0.123485 0.0
0.0460929 0.159568 0.0
-0.00576595 0.187918 0.0
-0.0337735 0.208646 0.0
-0.0473475 0.222991 0.0
-0.0527011 0.232369 0.0
-0.0536766 0.237936 0.0
-0.0525812 0.240594 0.0
-0.0507534 0.241018 0.0
-0.0489305 0.2397 0.0
-0.0474818 0.236994 0.0
-0.0465559 0.233152 0.0
-0.0461728 0.228358 0.0
-0.0462808 0.222748 0.0
-0.0467919 0.216425 0.0
-0.0476032 0.209475 0.0
-0.0486096 0.201972 0.0
-0.0497113 0.193984 0.0
-0.0508183 0.185575 0.0
-0.0518522 0.17681 0.0
-0.0527473 0.167754 0.0
-0.0534506 0.158472 0.0
-0.0539211 0.149028 0.0
-0.0541291 0.139486 0.0
-0.0540552 0.129909 0.0
-0.0536888 0.120356 0.0
-0.0530267 0.110885 0.0
-0.052072 0.101552 0.0
-0.0508326 0.0924064 0.0
-0.04932 0.0834961 0.0
-0.0475478 0.0748646 0.0
-0.0455312 0.0665517 0.0
-0.0432856 0.0585939 0.0
-0.0408267 0.0510241 0.0
-0.0381693 0.0438729 0.0
-0.0353279 0.037168 0.0
-0.0323165 0.0309352 0.0
-0.0291497 0.0251983 0.0
-0.0258432 0.0199802 0.0
-0.0224161 0.0153027 0.0
-0.0188923 0.0111878 0.0
-0.0153042 0.00765842 0.0
-0.0116954 0.0047412 0.0
-0.00812532 0.00246075 0.0
-0.00467158 0.00085611 0.0
-0.00143558 0.000114953 0.0
0.830719 0.00462001 0.0
0.537402 0.0289093 0.0
0.320772 0.0691439 0.0
0.173432 0.108842 0.0
0.0783825 0.143909 0.0
0.0196598 0.17279 0.0
-0.0150277 0.195346 0.0
-0.0341445 0.211972 0.0
-0.0439146 0.223735 0.0
-0.0483545 0.231598 0.0
-0.0499742 0.236351 0.0
-0.0502919 0.238615 0.0
-0.0501899 0.238863 0.0
-0.0501483 0.237456 0.0
-0.0503966 0.234666 0.0
-0.0510123 0.230701 0.0
-0.0519832 0.225722 0.0
-0.0532474 0.219861 0.0
-0.0547185 0.21323 0.0
-0.0563015 0.205925 0.0
-0.0579025 0.198036 0.0
-0.0594344 0.189647 0.0
-0.0608206 0.18084 0.0
-0.0619964 0.171692 0.0
-0.0629098 0.162283 0.0
-0.0635213 0.152685 0.0
-0.0638033 0.142973 0.0
-0.0637387 0.133216 0.0
-0.06332 0.123478 0.0
-0.0625478 0.113823 0.0
-0.061429 0.104307 0.0
-0.0599756 0.0949834 0.0
-0.0582032 0.0859002 0.0
-0.0561295 0.0771009 0.0
-0.0537736 0.0686248 0.0
-0.0511545 0.0605071 0.0
-0.0482908 0.0527797 0.0
-0.0452002 0.0454712 0.0
-0.0418994 0.038608 0.0
-0.0384042 0.0322146 0.0
-0.0347303 0.0263141 0.0
-0.030894 0.0209293 0.0
-0.0269142 0.0160832 0.0
-0.0228136 0.0117999 0.0
-0.0186215 0.00810678 0.0
-0.0143765 0.00503689 0.0
-0.0101288 0.00262304 0.0
-0.0059423 0.000915201 0.0
-0.00189701 0.000123276 0.0
0.844645 0.00361195 0.0
0.569041 0.0243166 0.0
0.358371 0.0600243 0.0
0.209758 0.0967251 0.0
0.110084 0.130386 0.0
0.045677 0.159141 0.0
0.00537568 0.182524 0.0
-0.0189728 0.200732 0.0
-0.0330869 0.214264 0.0
-0.041071 0.223918 0.0
-0.0455732 0.230373 0.0
-0.0482477 0.234185 0.0
-0.0500931 0.235796 0.0
-0.0516819 0.235557 0.0
-0.0533143 0.233742 0.0
-0.0551194 0.230572 0.0
-0.0571218 0.226226 0.0
-0.0592852 0.220853 0.0
-0.0615407 0.214584 0.0
-0.0638045 0.207535 0.0
-0.0659902 0.199813 0.0
-0.0680157 0.191519 0.0
-0.0698079 0.182749 0.0
-0.0713052 0.173595 0.0
-0.0724585 0.164146 0.0
-0.0732314 0.154487 0.0
-0.0736 0.144698 0.0
-0.0735513 0.134855 0.0
-0.0730824 0.12503 0.0
-0.0721986 0.115289 0.0
-0.0709122 0.10569 0.0
-0.0692401 0.0962887 0.0
-0.0672031 0.0871328 0.0
-0.0648238 0.0782656 0.0
-0.0621255 0.0697252 0.0
-0.0591312 0.0615451 0.0
-0.055863 0.0537553 0.0
-0.0523412 0.0463823 0.0
-0.0485847 0.0394505 0.0
-0.0446105 0.0329826 0.0
-0.040435 0.0270004 0.0
-0.0360742 0.0215264 0.0
-0.0315453 0.0165839 0.0
-0.0268684 0.0121993 0.0
-0.0220681 0.00840329 0.0
-0.0171754 0.00523425 0.0
-0.0122299 0.00273186 0.0
-0.00727995 0.000954724 0.0
-0.0023837 0.000128733 0.0
0.856399 0.00292773 0.0
0.596765 0.0208252 0.0
0.392498 0.0527112 0.0
0.243854 0.0866154 0.0
0.14083 0.118684 0.0
0.0717643 0.146898 0.0
0.0265834 0.170538 0.0
-0.00243953 0.189642 0.0
-0.0207354 0.204444 0.0
-0.0322518 0.21545 0.0
-0.0397139 0.223248 0.0
-0.044874 0.228323 0.0
-0.0488217 0.231082 0.0
-0.0522051 0.231854 0.0
-0.0553835 0.230909 0.0
-0.0585307 0.228468 0.0
-0.0617039 0.224719 0.0
-0.0648905 0.219825 0.0
-0.0680377 0.213928 0.0
-0.0710735 0.207161 0.0
-0.0739194 0.199643 0.0
-0.0764996 0.19149 0.0
-0.0787457 0.182812 0.0
-0.0806005 0.173711 0.0
-0.0820193 0.164288 0.0
-0.0829707 0.154636 0.0
-0.0834356 0.144844 0.0
-0.0834068 0.134993 0.0
-0.0828874 0.125161 0.0
-0.0818889 0.115415 0.0
-0.0804299 0.105818 0.0
-0.0785337 0.0964246 0.0
-0.0762269 0.087283 0.0
-0.0735377 0.0784356 0.0
-0.0704945 0.0699186 0.0
-0.0671247 0.0617635 0.0
-0.0634539 0.0539977 0.0
-0.0595052 0.0466451 0.0
-0.0552994 0.0397274 0.0
-0.0508544 0.0332651 0.0
-0.0461865 0.0272785 0.0
-0.0413105 0.0217887 0.0
-0.0362411 0.0168194 0.0
-0.030994 0.0123977 0.0
-0.0255876 0.00855717 0.0
-0.0200441 0.00534019 0.0
-0.0143906 0.0027917 0.0
-0.00865907 0.00097675 0.0
-0.00288603 0.000131777 0.0
0.866507 0.00244298 0.0
0.621295 0.0181043 0.0
0.423577 0.046753 0.0
0.275781 0.0780925 0.0
0.170399 0.108506 0.0
0.0975234 0.135918 0.0
0.0481032 0.159442 0.0
0.0149416 0.178929 0.0
-0.00730135 0.194563 0.0
-0.0222721 0.206559 0.0
-0.0327055 0.215379 0.0
-0.0404168 0.221456 0.0
-0.0465651 0.225151 0.0
-0.0518579 0.226771 0.0
-0.0567028 0.226572 0.0
-0.0613105 0.224773 0.0
-0.0657663 0.221563 0.0
-0.0700775 0.217112 0.0
-0.0742062 0.211573 0.0
-0.078091 0.205087 0.0
-0.0816615 0.197787 0.0
-0.0848481 0.189799 0.0
-0.0875882 0.181245 0.0
-0.0898301 0.172238 0.0
-0.0915348 0.162887 0.0
-0.0926766 0.153296 0.0
-0.0932434 0.143558 0.0
-0.0932349 0.133762 0.0
-0.0926614 0.123988 0.0
-0.0915423 0.114308 0.0
-0.0899035 0.104785 0.0
-0.0877758 0.0954748 0.0
-0.0851927 0.0864247 0.0
-0.0821887 0.0776754 0.0
-0.0787979 0.0692611 0.0
-0.0750525 0.0612106 0.0
-0.0709817 0.0535482 0.0
-0.0666117 0.0462945 0.0
-0.0619648 0.0394684 0.0
-0.0570595 0.0330874 0.0
-0.0519114 0.0271693 0.0
-0.0465333 0.0217339 0.0
-0.0409361 0.0168038 0.0
-0.0351304 0.0124068 0.0
-0.0291267 0.00857755 0.0
-0.0229371 0.00536131 0.0
-0.0165752 0.00280663 0.0
-0.0100564 0.000983047 0.0
-0.00339546 0.000132757 0.0
0.875329 0.0020844 0.0
0.643182 0.0159317 0.0
0.45198 0.0418185 0.0
0.305649 0.0708233 0.0
0.198684 0.0995873 0.0
0.122699 0.126043 0.0
0.0695906 0.149195 0.0
0.0326815 0.168751 0.0
0.00689633 0.18477 0.0
-0.0114378 0.19746 0.0
-0.0248178 0.207034 0.0
-0.0351037 0.213875 0.0
-0.0435081 0.218309 0.0
-0.0507862 0.220615 0.0
-0.0573836 0.221033 0.0
-0.0635408 0.219776 0.0
-0.0693656 0.217031 0.0
-0.074882 0.212971 0.0
-0.0800645 0.207755 0.0
-0.0848609 0.201532 0.0
-0.089208 0.194444 0.0
-0.0930426 0.186629 0.0
-0.0963081 0.178215 0.0
-0.0989589 0.169327 0.0
-0.100963 0.160082 0.0
-0.102301 0.15059 0.0
-0.10297 0.140953 0.0
-0.102977 0.131263 0.0
-0.102342 0.121604 0.0
-0.101093 0.11205 0.0
-0.099264 0.102666 0.0
-0.0968949 0.0935056 0.0
-0.0940269 0.0846167 0.0
-0.0907017 0.0760373 0.0
-0.0869596 0.0677989 0.0
-0.082838 0.0599269 0.0
-0.0783702 0.052442 0.0
-0.0735852 0.0453613 0.0
-0.0685067 0.0386998 0.0
-0.0631535 0.0324717 0.0
-0.05754 0.026692 0.0
-0.0516759 0.0213779 0.0
-0.045568 0.0165506 0.0
-0.0392201 0.0122371 0.0
-0.0326342 0.00847254 0.0
-0.0258112 0.00530326 0.0
-0.0187506 0.00278003 0.0
-0.0114503 0.00097499 0.0
-0.00390432 0.000131918 0.0
0.88312 0.00180791 0.0
0.662853 0.014156 0.0
0.478024 0.037663 0.0
0.333584 0.0645437 0.0
0.225642 0.0916993 0.0
0.14713 0.117106 0.0
0.0908104 0.139707 0.0
0.0505123 0.159104 0.0
0.021421 0.175252 0.0
-2.36739e-05 0.188293 0.0
-0.0162897 0.198387 0.0
-0.0291419 0.205778 0.0
-0.0398267 0.210765 0.0
-0.0491353 0.2136 0.0
-0.057543 0.214506 0.0
-0.0653135 0.213684 0.0
-0.0725718 0.211321 0.0
-0.0793549 0.207587 0.0
-0.0856468 0.202647 0.0
-0.0914027 0.196655 0.0
-0.0965658 0.189762 0.0
-0.101079 0.182111 0.0
-0.104891 0.173843 0.0
-0.107964 0.165088 0.0
-0.110273 0.155971 0.0
-0.111807 0.14661 0.0
-0.112572 0.137111 0.0
-0.112585 0.127571 0.0
-0.111875 0.118076 0.0
-0.110482 0.108703 0.0
-0.108449 0.0995156 0.0
-0.105825 0.0905681 0.0
-0.102662 0.0819053 0.0
-0.0990069 0.073563 0.0
-0.0949087 0.0655692 0.0
-0.0904096 0.0579456 0.0
-0.0855475 0.0507086 0.0
-0.0803541 0.0438712 0.0
-0.0748544 0.037444 0.0
-0.0690674 0.0314375 0.0
-0.0630052 0.0258629 0.0
-0.0566746 0.0207345 0.0
-0.0500767 0.016071 0.0
-0.0432082 0.0118976 0.0
-0.0360617 0.00824876 0.0
-0.0286258 0.00517056 0.0
-0.0208855 0.00271445 0.0
-0.012821 0.000953562 0.0
-0.00440554 0.000129414 0.0
0.890062 0.00158629 0.0
0.680636 0.0126713 0.0
0.501973 0.034103 0.0
0.359713 0.0590436 0.0
0.251266 0.0846448 0.0
0.170706 0.10895 0.0
0.111588 0.130868 0.0
0.0682254 0.149926 0.0
0.0360723 0.165999 0.0
0.0117053 0.17915 0.0
-0.00734149 0.189538 0.0
-0.0227245 0.197287 0.0
-0.0356875 0.202654 0.0
-0.0470473 0.205867 0.0
-0.0573002 0.207131 0.0
-0.0667264 0.206637 0.0
-0.0754632 0.204565 0.0
-0.0835568 0.201087 0.0
-0.0909979 0.196366 0.0
-0.0977471 0.190564 0.0
-0.103753 0.183838 0.0
-0.108963 0.176337 0.0
-0.113333 0.16821 0.0
-0.116832 0.159594 0.0
-0.119442 0.150622 0.0
-0.121163 0.141417 0.0
-0.12201 0.132088 0.0
-0.122013 0.122738 0.0
-0.121211 0.113454 0.0
-0.119654 0.104312 0.0
-0.1174 0.0953769 0.0
-0.114506 0.0867009 0.0
-0.111032 0.0783263 0.0
-0.107038 0.0702853 0.0
-0.102577 0.0626022 0.0
-0.0976988 0.0552939 0.0
-0.0924448 0.0483725 0.0
-0.0868498 0.041846 0.0
-0.0809403 0.0357204 0.0
-0.0747346 0.0300014 0.0
-0.0682429 0.0246963 0.0
-0.0614678 0.0198154 0.0
-0.0544046 0.0153743 0.0
-0.047042 0.0113955 0.0
-0.0393624 0.00791141 0.0
-0.0313419 0.00496656 0.0
-0.02295 0.00261171 0.0
-0.0141494 0.00091939 0.0
-0.00489249 0.000125323 0.0
0.896286 0.00140215 0.0
0.696785 0.011402 0.0
0.524045 0.0309992 0.0
0.38415 0.0541555 0.0
0.275565 0.0782575 0.0
0.193352 0.101429 0.0
0.131788 0.122567 0.0
0.0856457 0.141146 0.0
0.0506471 0.156977 0.0
0.0235135 0.170063 0.0
0.00184372 0.180515 0.0
-0.0160227 0.188458 0.0
-0.0312453 0.194044 0.0
-0.0446585 0.197494 0.0
-0.0567731 0.198992 0.0
-0.0678796 0.198717 0.0
-0.0781231 0.196845 0.0
-0.087555 0.193544 0.0
-0.09617 0.188982 0.0
-0.103932 0.183323 0.0
-0.110794 0.17673 0.0
-0.116708 0.169359 0.0
-0.121635 0.161364 0.0
-0.125552 0.152891 0.0
-0.128451 0.144077 0.0
-0.130342 0.135048 0.0
-0.131251 0.125922 0.0
-0.13122 0.116799 0.0
-0.130302 0.107769 0.0