# vtk DataFile Version 3.0
Malha 2D com triângulos e temperatura
ASCII
DATASET UNSTRUCTURED_GRID

POINTS 2500 double
0 0 0
1 0 0
1 1 0
0 1 0
0.0204082 0 0
0.0408163 0 0
0.0612245 0 0
0.0816327 0 0
0.102041 0 0
0.122449 0 0
0.142857 0 0
0.163265 0 0
0.183673 0 0
0.204082 0 0
0.22449 0 0
0.244898 0 0
0.265306 0 0
0.285714 0 0
0.306122 0 0
0.326531 0 0
0.346939 0 0
0.367347 0 0
0.387755 0 0
0.408163 0 0
0.428571 0 0
0.44898 0 0
0.469388 0 0
0.489796 0 0
0.510204 0 0
0.530612 0 0
0.55102 0 0
0.571429 0 0
0.591837 0 0
0.612245 0 0
0.632653 0 0
0.653061 0 0
0.673469 0 0
0.693878 0 0
0.714286 0 0
0.734694 0 0
0.755102 0 0
0.77551 0 0
0.795918 0 0
0.816327 0 0
0.836735 0 0
0.857143 0 0
0.877551 0 0
0.897959 0 0
0.918367 0 0
0.938776 0 0
0.959184 0 0
0.979592 0 0
1 0.0204082 0
1 0.0408163 0
1 0.0612245 0
1 0.0816327 0
1 0.102041 0
1 0.122449 0
1 0.142857 0
1 0.163265 0
1 0.183673 0
1 0.204082 0
1 0.22449 0
1 0.244898 0
1 0.265306 0
1 0.285714 0
1 0.306122 0
1 0.326531 0
1 0.346939 0
1 0.367347 0
1 0.387755 0
1 0.408163 0
1 0.428571 0
1 0.44898 0
1 0.469388 0
1 0.489796 0
1 0.510204 0
1 0.530612 0
1 0.55102 0
1 0.571429 0
1 0.591837 0
1 0.612245 0
1 0.632653 0
1 0.653061 0
1 0.673469 0
1 0.693878 0
1 0.714286 0
1 0.734694 0
1 0.755102 0
1 0.77551 0
1 0.795918 0
1 0.816327 0
1 0.836735 0
1 0.857143 0
1 0.877551 0
1 0.897959 0
1 0.918367 0
1 0.938776 0
1 0.959184 0
1 0.979592 0
0.979592 1 0
0.959184 1 0
0.938776 1 0
0.918367 1 0
0.897959 1 0
0.877551 1 0
0.857143 1 0
0.836735 1 0
0.816327 1 0
0.795918 1 0
0.77551 1 0
0.755102 1 0
0.734694 1 0
0.714286 1 0
0.693878 1 0
0.673469 1 0
0.653061 1 0
0.632653 1 0
0.612245 1 0
0.591837 1 0
0.571429 1 0
0.55102 1 0
0.530612 1 0
0.510204 1 0
0.489796 1 0
0.469388 1 0
0.44898 1 0
0.428571 1 0
0.408163 1 0
0.387755 1 0
0.367347 1 0
0.346939 1 0
0.326531 1 0
0.306122 1 0
0.285714 1 0
0.265306 1 0
0.244898 1 0
0.22449 1 0
0.204082 1 0
0.183673 1 0
0.163265 1 0
0.142857 1 0
0.122449 1 0
0.102041 1 0
0.0816327 1 0
0.0612245 1 0
0.0408163 1 0
0.0204082 1 0
0 0.979592 0
0 0.959184 0
0 0.938776 0
0 0.918367 0
0 0.897959 0
0 0.877551 0
0 0.857143 0
0 0.836735 0
0 0.816327 0
0 0.795918 0
0 0.77551 0
0 0.755102 0
0 0.734694 0
0 0.714286 0
0 0.693878 0
0 0.673469 0
0 0.653061 0
0 0.632653 0
0 0.612245 0
0 0.591837 0
0 0.571429 0
0 0.55102 0
0 0.530612 0
0 0.510204 0
0 0.489796 0
0 0.469388 0
0 0.44898 0
0 0.428571 0
0 0.408163 0
0 0.387755 0
0 0.367347 0
0 0.346939 0
0 0.326531 0
0 0.306122 0
0 0.285714 0
0 0.265306 0
0 0.244898 0
0 0.22449 0
0 0.204082 0
0 0.183673 0
0 0.163265 0
0 0.142857 0
0 0.122449 0
0 0.102041 0
0 0.0816327 0
0 0.0612245 0
0 0.0408163 0
0 0.0204082 0
0.0204082 0.979592 0
0.0204082 0.959184 0
0.0204082 0.938776 0
0.0204082 0.918367 0
0.0204082 0.897959 0
0.0204082 0.877551 0
0.0204082 0.857143 0
0.0204082 0.836735 0
0.0204082 0.816327 0
0.0204082 0.795918 0
0.0204082 0.77551 0
0.0204082 0.755102 0
0.0204082 0.734694 0
0.0204082 0.714286 0
0.0204082 0.693878 0
0.0204082 0.673469 0
0.0204082 0.653061 0
0.0204082 0.632653 0
0.0204082 0.612245 0
0.0204082 0.591837 0
0.0204082 0.571429 0
0.0204082 0.55102 0
0.0204082 0.530612 0
0.0204082 0.510204 0
0.0204082 0.489796 0
0.0204082 0.469388 0
0.0204082 0.44898 0
0.0204082 0.428571 0
0.0204082 0.408163 0
0.0204082 0.387755 0
0.0204082 0.367347 0
0.0204082 0.346939 0
0.0204082 0.326531 0
0.0204082 0.306122 0
0.0204082 0.285714 0
0.0204082 0.265306 0
0.0204082 0.244898 0
0.0204082 0.22449 0
0.0204082 0.204082 0
0.0204082 0.183673 0
0.0204082 0.163265 0
0.0204082 0.142857 0
0.0204082 0.122449 0
0.0204082 0.102041 0
0.0204082 0.0816327 0
0.0204082 0.0612245 0
0.0204082 0.0408163 0
0.0204082 0.0204082 0
0.0408163 0.979592 0
0.0408163 0.959184 0
0.0408163 0.938776 0
0.0408163 0.918367 0
0.0408163 0.897959 0
0.0408163 0.877551 0
0.0408163 0.857143 0
0.0408163 0.836735 0
0.0408163 0.816327 0
0.0408163 0.795918 0
0.0408163 0.77551 0
0.0408163 0.755102 0
0.0408163 0.734694 0
0.0408163 0.714286 0
0.0408163 0.693878 0
0.0408163 0.673469 0
0.0408163 0.653061 0
0.0408163 0.632653 0
0.0408163 0.612245 0
0.0408163 0.591837 0
0.0408163 0.571429 0
0.0408163 0.55102 0
0.0408163 0.530612 0
0.0408163 0.510204 0
0.0408163 0.489796 0
0.0408163 0.469388 0
0.0408163 0.44898 0
0.0408163 0.428571 0
0.0408163 0.408163 0
0.0408163 0.387755 0
0.0408163 0.367347 0
0.0408163 0.346939 0
0.0408163 0.326531 0
0.0408163 0.306122 0
0.0408163 0.285714 0
0.0408163 0.265306 0
0.0408163 0.244898 0
0.0408163 0.22449 0
0.0408163 0.204082 0
0.0408163 0.183673 0
0.0408163 0.163265 0
0.0408163 0.142857 0
0.0408163 0.122449 0
0.0408163 0.102041 0
0.0408163 0.0816327 0
0.0408163 0.0612245 0
0.0408163 0.0408163 0
0.0408163 0.0204082 0
0.0612245 0.979592 0
0.0612245 0.959184 0
0.0612245 0.938776 0
0.0612245 0.918367 0
0.0612245 0.897959 0
0.0612245 0.877551 0
0.0612245 0.857143 0
0.0612245 0.836735 0
0.0612245 0.816327 0
0.0612245 0.795918 0
0.0612245 0.77551 0
0.0612245 0.755102 0
0.0612245 0.734694 0
0.0612245 0.714286 0
0.0612245 0.693878 0
0.0612245 0.673469 0
0.0612245 0.653061 0
0.0612245 0.632653 0
0.0612245 0.612245 0
0.0612245 0.591837 0
0.0612245 0.571429 0
0.0612245 0.55102 0
0.0612245 0.530612 0
0.0612245 0.510204 0
0.0612245 0.489796 0
0.0612245 0.469388 0
0.0612245 0.44898 0
0.0612245 0.428571 0
0.0612245 0.408163 0
0.0612245 0.387755 0
0.0612245 0.367347 0
0.0612245 0.346939 0
0.0612245 0.326531 0
0.0612245 0.306122 0
0.0612245 0.285714 0
0.0612245 0.265306 0
0.0612245 0.244898 0
0.0612245 0.22449 0
0.0612245 0.204082 0
0.0612245 0.183673 0
0.0612245 0.163265 0
0.0612245 0.142857 0
0.0612245 0.122449 0
0.0612245 0.102041 0
0.0612245 0.0816327 0
0.0612245 0.0612245 0
0.0612245 0.0408163 0
0.0612245 0.0204082 0
0.0816327 0.979592 0
0.0816327 0.959184 0
0.0816327 0.938776 0
0.0816327 0.918367 0
0.0816327 0.897959 0
0.0816327 0.877551 0
0.0816327 0.857143 0
0.0816327 0.836735 0
0.0816327 0.816327 0
0.0816327 0.795918 0
0.0816327 0.77551 0
0.0816327 0.755102 0
0.0816327 0.734694 0
0.0816327 0.714286 0
0.0816327 0.693878 0
0.0816327 0.673469 0
0.0816327 0.653061 0
0.0816327 0.632653 0
0.0816327 0.612245 0
0.0816327 0.591837 0
0.0816327 0.571429 0
0.0816327 0.55102 0
0.0816327 0.530612 0
0.0816327 0.510204 0
0.0816327 0.489796 0
0.0816327 0.469388 0
0.0816327 0.44898 0
0.0816327 0.428571 0
0.0816327 0.408163 0
0.0816327 0.387755 0
0.0816327 0.367347 0
0.0816327 0.346939 0
0.0816327 0.326531 0
0.0816327 0.306122 0
0.0816327 0.285714 0
0.0816327 0.265306 0
0.0816327 0.244898 0
0.0816327 0.22449 0
0.0816327 0.204082 0
0.0816327 0.183673 0
0.0816327 0.163265 0
0.0816327 0.142857 0
0.0816327 0.122449 0
0.0816327 0.102041 0
0.0816327 0.0816327 0
0.0816327 0.0612245 0
0.0816327 0.0408163 0
0.0816327 0.0204082 0
0.102041 0.979592 0
0.102041 0.959184 0
0.102041 0.938776 0
0.102041 0.918367 0
0.102041 0.897959 0
0.102041 0.877551 0
0.102041 0.857143 0
0.102041 0.836735 0
0.102041 0.816327 0
0.102041 0.795918 0
0.102041 0.77551 0
0.102041 0.755102 0
0.102041 0.734694 0
0.102041 0.714286 0
0.102041 0.693878 0
0.102041 0.673469 0
0.102041 0.653061 0
0.102041 0.632653 0
0.102041 0.612245 0
0.102041 0.591837 0
0.102041 0.571429 0
0.102041 0.55102 0
0.102041 0.530612 0
0.102041 0.510204 0
0.102041 0.489796 0
0.102041 0.469388 0
0.102041 0.44898 0
0.102041 0.428571 0
0.102041 0.408163 0
0.102041 0.387755 0
0.102041 0.367347 0
0.102041 0.346939 0
0.102041 0.326531 0
0.102041 0.306122 0
0.102041 0.285714 0
0.102041 0.265306 0
0.102041 0.244898 0
0.102041 0.22449 0
0.102041 0.204082 0
0.102041 0.183673 0
0.102041 0.163265 0
0.102041 0.142857 0
0.102041 0.122449 0
0.102041 0.102041 0
0.102041 0.0816327 0
0.102041 0.0612245 0
0.102041 0.0408163 0
0.102041 0.0204082 0
0.122449 0.979592 0
0.122449 0.959184 0
0.122449 0.938776 0
0.122449 0.918367 0
0.122449 0.897959 0
0.122449 0.877551 0
0.122449 0.857143 0
0.122449 0.836735 0
0.122449 0.816327 0
0.122449 0.795918 0
0.122449 0.77551 0
0.122449 0.755102 0
0.122449 0.734694 0
0.122449 0.714286 0
0.122449 0.693878 0
0.122449 0.673469 0
0.122449 0.653061 0
0.122449 0.632653 0
0.122449 0.612245 0
0.122449 0.591837 0
0.122449 0.571429 0
0.122449 0.55102 0
0.122449 0.530612 0
0.122449 0.510204 0
0.122449 0.489796 0
0.122449 0.469388 0
0.122449 0.44898 0
0.122449 0.428571 0
0.122449 0.408163 0
0.122449 0.387755 0
0.122449 0.367347 0
0.122449 0.346939 0
0.122449 0.326531 0
0.122449 0.306122 0
0.122449 0.285714 0
0.122449 0.265306 0
0.122449 0.244898 0
0.122449 0.22449 0
0.122449 0.204082 0
0.122449 0.183673 0
0.122449 0.163265 0
0.122449 0.142857 0
0.122449 0.122449 0
0.122449 0.102041 0
0.122449 0.0816327 0
0.122449 0.0612245 0
0.122449 0.0408163 0
0.122449 0.0204082 0
0.142857 0.979592 0
0.142857 0.959184 0
0.142857 0.938776 0
0.142857 0.918367 0
0.142857 0.897959 0
0.142857 0.877551 0
0.142857 0.857143 0
0.142857 0.836735 0
0.142857 0.816327 0
0.142857 0.795918 0
0.142857 0.77551 0
0.142857 0.755102 0
0.142857 0.734694 0
0.142857 0.714286 0
0.142857 0.693878 0
0.142857 0.673469 0
0.142857 0.653061 0
0.142857 0.632653 0
0.142857 0.612245 0
0.142857 0.591837 0
0.142857 0.571429 0
0.142857 0.55102 0
0.142857 0.530612 0
0.142857 0.510204 0
0.142857 0.489796 0
0.142857 0.469388 0
0.142857 0.44898 0
0.142857 0.428571 0
0.142857 0.408163 0
0.142857 0.387755 0
0.142857 0.367347 0
0.142857 0.346939 0
0.142857 0.326531 0
0.142857 0.306122 0
0.142857 0.285714 0
0.142857 0.265306 0
0.142857 0.244898 0
0.142857 0.22449 0
0.142857 0.204082 0
0.142857 0.183673 0
0.142857 0.163265 0
0.142857 0.142857 0
0.142857 0.122449 0
0.142857 0.102041 0
0.142857 0.0816327 0
0.142857 0.0612245 0
0.142857 0.0408163 0
0.142857 0.0204082 0
0.163265 0.979592 0
0.163265 0.959184 0
0.163265 0.938776 0
0.163265 0.918367 0
0.163265 0.897959 0
0.163265 0.877551 0
0.163265 0.857143 0
0.163265 0.836735 0
0.163265 0.816327 0
0.163265 0.795918 0
0.163265 0.77551 0
0.163265 0.755102 0
0.163265 0.734694 0
0.163265 0.714286 0
0.163265 0.693878 0
0.163265 0.673469 0
0.163265 0.653061 0
0.163265 0.632653 0
0.163265 0.612245 0
0.163265 0.591837 0
0.163265 0.571429 0
0.163265 0.55102 0
[...]
CELL_DATA 2401
VECTORS velocity double
0.257583 0.157302 0.0
-0.00261485 0.264459 0.0
-0.0322483 0.205517 0.0
-0.0253541 0.150666 0.0
-0.0160539 0.113157 0.0
-0.00970888 0.0878069 0.0
-0.00594207 0.0707138 0.0
-0.00376295 0.058977 0.0
-0.00248349 0.0506935 0.0
-0.00170823 0.044682 0.0
-0.00122155 0.0401999 0.0
-0.000906353 0.0367667 0.0
-0.00069752 0.0340622 0.0
-0.000557359 0.0318672 0.0
-0.000463044 0.0300277 0.0
-0.000400112 0.0284343 0.0
-0.000359012 0.0270081 0.0
-0.000333209 0.0256923 0.0
-0.000318089 0.0244461 0.0
-0.000310309 0.0232406 0.0
-0.000307399 0.0220557 0.0
-0.0003075 0.0208785 0.0
-0.000309204 0.0197012 0.0
-0.000311442 0.0185203 0.0
-0.000313408 0.0173351 0.0
-0.000314509 0.0161476 0.0
-0.000314321 0.0149613 0.0
-0.000312562 0.0137811 0.0
-0.000309064 0.0126126 0.0
-0.000303749 0.0114619 0.0
-0.000296615 0.0103351 0.0
-0.000287711 0.00923863 0.0
-0.000277124 0.00817837 0.0
-0.000264962 0.00716011 0.0
-0.000251341 0.00618922 0.0
-0.000236369 0.00527075 0.0
-0.00022014 0.00440939 0.0
-0.000202715 0.00360956 0.0
-0.000184119 0.00287548 0.0
-0.000164321 0.00221129 0.0
-0.000143232 0.00162113 0.0
-0.000120689 0.0011093 0.0
-9.64621e-05 0.000680294 0.0
-7.02981e-05 0.000338767 0.0
-4.20773e-05 8.92088e-05 0.0
-1.2288e-05 -6.50383e-05 0.0
1.67513e-05 -0.00012403 0.0
3.83585e-05 -9.95567e-05 0.0
3.47084e-05 -3.45392e-05 0.0
0.34079 0.122981 0.0
-0.000596171 0.24954 0.0
-0.0651644 0.271806 0.0
-0.0632136 0.252368 0.0
-0.0485184 0.221869 0.0
-0.0349999 0.191985 0.0
-0.0249837 0.16651 0.0
-0.0179867 0.145945 0.0
-0.013163 0.12968 0.0
-0.00982576 0.116868 0.0
-0.00749724 0.106716 0.0
-0.00586004 0.0985707 0.0
-0.00470412 0.091916 0.0
-0.00388862 0.0863557 0.0
-0.00331704 0.0815882 0.0
-0.00292182 0.0773854 0.0
-0.00265462 0.0735758 0.0
-0.00248016 0.0700316 0.0
-0.00237225 0.0666586 0.0
-0.00231113 0.0633889 0.0
-0.00228171 0.0601749 0.0
-0.0022724 0.0569851 0.0
-0.00227422 0.0538007 0.0
-0.00228026 0.0506125 0.0
-0.00228526 0.0474194 0.0
-0.00228529 0.0442255 0.0
-0.00227747 0.0410398 0.0
-0.00225987 0.037874 0.0
-0.00223125 0.0347421 0.0
-0.00219098 0.0316591 0.0
-0.00213888 0.0286408 0.0
-0.00207515 0.0257027 0.0
-0.0020002 0.0228602 0.0
-0.00191461 0.020128 0.0
-0.00181904 0.0175201 0.0
-0.00171413 0.0150496 0.0
-0.00160045 0.0127287 0.0
-0.00147846 0.0105691 0.0
-0.00134846 0.00858178 0.0
-0.00121055 0.00677741 0.0
-0.00106467 0.00516626 0.0
-0.000910657 0.00375838 0.0
-0.000748394 0.00256337 0.0
-0.000578242 0.00158988 0.0
-0.000401928 0.000844276 0.0
-0.000224535 0.000328146 0.0
-5.86073e-05 3.35335e-05 0.0
6.89416e-05 -6.74134e-05 0.0
9.90582e-05 -3.73212e-05 0.0
0.500884 0.0768234 0.0
0.0991058 0.183285 0.0
-0.0392822 0.249348 0.0
-0.0733701 0.265898 0.0
-0.0718951 0.257606 0.0
-0.0606692 0.239781 0.0
-0.0484966 0.219688 0.0
-0.0380003 0.200615 0.0
-0.0296614 0.183777 0.0
-0.0232745 0.169392 0.0
-0.0184739 0.157255 0.0
-0.0149079 0.14701 0.0
-0.0122849 0.138285 0.0
-0.0103764 0.130736 0.0
-0.00900677 0.124073 0.0
-0.00804219 0.118059 0.0
-0.00738036 0.112503 0.0
-0.00694277 0.10726 0.0
-0.00666876 0.102218 0.0
-0.00651113 0.0972949 0.0
-0.00643299 0.0924335 0.0
-0.00640541 0.0875957 0.0
-0.00640573 0.0827592 0.0
-0.00641632 0.0779146 0.0
-0.00642359 0.0730621 0.0
-0.00641733 0.0682098 0.0
-0.00639007 0.0633716 0.0
-0.00633665 0.0585651 0.0
-0.0062538 0.0538111 0.0
-0.00613977 0.0491317 0.0
-0.00599401 0.0445499 0.0
-0.00581689 0.0400887 0.0
-0.00560943 0.0357704 0.0
-0.00537307 0.0316166 0.0
-0.00510944 0.0276479 0.0
-0.00482019 0.0238834 0.0
-0.00450686 0.0203415 0.0
-0.00417075 0.0170391 0.0
-0.00381285 0.0139924 0.0
-0.00343385 0.0112166 0.0
-0.00303425 0.00872625 0.0
-0.00261458 0.00653493 0.0
-0.00217603 0.00465489 0.0
-0.00172146 0.00309618 0.0
-0.00125748 0.00186487 0.0
-0.000798294 0.000960285 0.0
-0.000372488 0.000369392 0.0
-3.25936e-05 5.99175e-05 0.0
0.000121315 -1.49449e-05 0.0
0.610101 0.0480676 0.0
0.195779 0.134015 0.0
0.011482 0.209518 0.0
-0.0580018 0.246587 0.0
-0.0761286 0.257112 0.0
-0.0738939 0.253608 0.0
-0.0647345 0.243257 0.0
-0.0542512 0.230309 0.0
-0.0446116 0.217027 0.0
-0.0365013 0.204472 0.0
-0.0299901 0.193044 0.0
-0.0249155 0.182797 0.0
-0.021048 0.173622 0.0
-0.0181592 0.165345 0.0
-0.0160465 0.157776 0.0
-0.0145394 0.150739 0.0
-0.0134978 0.144083 0.0
-0.0128082 0.137682 0.0
-0.012379 0.131438 0.0
-0.0121367 0.125279 0.0
-0.012022 0.119151 0.0
-0.0119879 0.113023 0.0
-0.0119968 0.106877 0.0
-0.0120191 0.100708 0.0
-0.0120319 0.0945215 0.0
-0.0120177 0.0883314 0.0
-0.011964 0.082157 0.0
-0.0118618 0.0760223 0.0
-0.0117055 0.0699536 0.0
-0.0114922 0.0639793 0.0
-0.011221 0.0581281 0.0
-0.0108926 0.0524286 0.0
-0.0105087 0.0469087 0.0
-0.010072 0.041595 0.0
-0.00958533 0.036513 0.0
-0.00905168 0.0316865 0.0
-0.0084739 0.0271378 0.0
-0.00785448 0.022888 0.0
-0.00719551 0.0189566 0.0
-0.00649874 0.0153621 0.0
-0.00576582 0.0121216 0.0
-0.00499877 0.00925071 0.0
-0.00420102 0.00676299 0.0
-0.00337913 0.00466905 0.0
-0.00254571 0.00297484 0.0
-0.00172454 0.00167945 0.0
-0.000958808 0.000769554 0.0
-0.000321285 0.000217855 0.0
6.11364e-05 1.37112e-05 0.0
0.680522 0.0301835 0.0
0.2786 0.0982312 0.0
0.0697308 0.171045 0.0
-0.0274624 0.217567 0.0
-0.0653687 0.240983 0.0
-0.0749462 0.249372 0.0
-0.072025 0.248655 0.0
-0.0643445 0.242937 0.0
-0.0555571 0.234801 0.0
-0.0472874 0.225744 0.0
-0.0401636 0.216576 0.0
-0.034337 0.207684 0.0
-0.0297423 0.199211 0.0
-0.0262274 0.191165 0.0
-0.0236166 0.18349 0.0
-0.0217394 0.176101 0.0
-0.0204423 0.168912 0.0
-0.0195925 0.161842 0.0
-0.0190778 0.154826 0.0
-0.0188044 0.147816 0.0
-0.0186952 0.140776 0.0
-0.0186869 0.133688 0.0
-0.0187286 0.126546 0.0
-0.0187796 0.119355 0.0
-0.018808 0.112129 0.0
-0.0187899 0.104888 0.0
-0.0187074 0.0976595 0.0
-0.0185483 0.090473 0.0
-0.0183049 0.0833611 0.0
-0.0179733 0.0763572 0.0
-0.0175526 0.0694951 0.0
-0.017044 0.0628079 0.0
-0.0164504 0.0563275 0.0
-0.0157758 0.0500847 0.0
-0.0150247 0.044108 0.0
-0.0142017 0.0384246 0.0
-0.0133112 0.0330597 0.0
-0.0123574 0.0280367 0.0
-0.0113437 0.0233775 0.0
-0.0102733 0.0191024 0.0
-0.00914961 0.0152301 0.0
-0.00797657 0.0117773 0.0
-0.00676039 0.00875838 0.0
-0.00551162 0.00618466 0.0
-0.00424865 0.00406307 0.0
-0.0030033 0.00239502 0.0
-0.00182923 0.00117117 0.0
-0.000811402 0.00037526 0.0
-8.78297e-05 4.11607e-05 0.0
0.729926 0.0192054 0.0
0.349147 0.0730691 0.0
0.128038 0.139307 0.0
0.011222 0.188252 0.0
-0.0444865 0.219521 0.0
-0.0664047 0.236501 0.0
-0.0712662 0.24373 0.0
-0.0681423 0.244684 0.0
-0.0618138 0.241827 0.0
-0.054721 0.236778 0.0
-0.0480396 0.230546 0.0
-0.042269 0.223727 0.0
-0.037556 0.216649 0.0
-0.0338706 0.209473 0.0
-0.0311023 0.202264 0.0
-0.0291106 0.195032 0.0
-0.027751 0.187761 0.0
-0.0268882 0.180426 0.0
-0.0264006 0.173003 0.0
-0.0261831 0.165474 0.0
-0.0261461 0.157831 0.0
-0.0262146 0.150073 0.0
-0.0263271 0.142212 0.0
-0.026434 0.134264 0.0
-0.0264964 0.126254 0.0
-0.0264845 0.118213 0.0
-0.0263765 0.110175 0.0
-0.0261576 0.102177 0.0
-0.0258188 0.0942565 0.0
-0.0253558 0.0864525 0.0
-0.024768 0.0788029 0.0
-0.0240578 0.0713447 0.0
-0.0232297 0.064113 0.0
-0.0222893 0.0571413 0.0
-0.0212432 0.0504606 0.0
-0.0200979 0.0440999 0.0
-0.0188598 0.0380863 0.0
-0.0175348 0.0324446 0.0
-0.016128 0.0271978 0.0
-0.0146446 0.0223671 0.0
-0.0130896 0.017972 0.0
-0.0114692 0.01403 0.0
-0.00979252 0.0105562 0.0
-0.00807347 0.00756314 0.0
-0.006335 0.00506008 0.0
-0.00461433 0.00305294 0.0
-0.0029707 0.00153937 0.0
-0.00149322 0.000517107 0.0
-0.000318342 6.46619e-05 0.0
0.765935 0.0125965 0.0
0.408563 0.0556962 0.0
0.182979 0.114487 0.0
0.0526447 0.16251 0.0
-0.0174402 0.197553 0.0
-0.0508975 0.220246 0.0
-0.0639592 0.233437 0.0
-0.0663146 0.239894 0.0
-0.0634995 0.241758 0.0
-0.058587 0.240571 0.0
-0.0532239 0.237386 0.0
-0.0482388 0.232898 0.0
-0.0439979 0.227547 0.0
-0.0406121 0.221601 0.0
-0.038057 0.21522 0.0
-0.0362417 0.208493 0.0
-0.0350477 0.20147 0.0
-0.0343501 0.194177 0.0
-0.0340294 0.186635 0.0
-0.0339767 0.178858 0.0
-0.0340964 0.170866 0.0
-0.0343066 0.162682 0.0
-0.034539 0.154333 0.0
-0.034738 0.145853 0.0
-0.0348594 0.137278 0.0
-0.0348697 0.12865 0.0
-0.0347446 0.120011 0.0
-0.034468 0.111404 0.0
-0.0340303 0.102875 0.0
-0.0334279 0.0944658 0.0
-0.0326612 0.0862192 0.0
-0.0317346 0.0781752 0.0
-0.0306545 0.0703715 0.0
-0.0294289 0.0628434 0.0
-0.0280665 0.0556235 0.0
-0.0265764 0.048742 0.0
-0.024967 0.0422265 0.0
-0.0232463 0.0361024 0.0
-0.0214214 0.0303932 0.0
-0.0194993 0.0251202 0.0
-0.0174869 0.0203033 0.0
-0.0153924 0.0159603 0.0
-0.0132271 0.0121074 0.0
-0.0110075 0.00875896 0.0
-0.00875919 0.00592752 0.0
-0.00652164 0.00362494 0.0
-0.00435487 0.00185745 0.0
-0.00234534 0.000637441 0.0
-0.000618914 8.36328e-05 0.0
0.792958 0.00860358 0.0
0.458579 0.0435905 0.0
0.233381 0.0952877 0.0
0.0941747 0.140873 0.0
0.0132254 0.17696 0.0
-0.0306194 0.203243 0.0
-0.0516847 0.220675 0.0
-0.0598699 0.231407 0.0
-0.0611686 0.2372 0.0
-0.0591122 0.239422 0.0
-0.0557235 0.239084 0.0
-0.0521152 0.236899 0.0
-0.0488568 0.233358 0.0
-0.0461995 0.228795 0.0
-0.0442117 0.223433 0.0
-0.0428619 0.217421 0.0
-0.0420674 0.210862 0.0
-0.0417234 0.203829 0.0
-0.0417202 0.19638 0.0
-0.0419521 0.188562 0.0
-0.0423229 0.180423 0.0
-0.0427484 0.172006 0.0
-0.043157 0.163359 0.0
-0.0434898 0.15453 0.0
-0.0437003 0.14557 0.0
-0.0437532 0.136531 0.0
-0.0436234 0.127463 0.0
-0.0432946 0.118418 0.0
-0.0427583 0.109447 0.0
-0.0420123 0.100597 0.0
-0.0410594 0.091914 0.0
-0.0399063 0.0834412 0.0
-0.0385622 0.0752181 0.0
-0.037038 0.0672813 0.0
-0.0353453 0.0596643 0.0
-0.0334956 0.0523975 0.0
-0.0314999 0.0455086 0.0
-0.0293685 0.0390228 0.0
-0.0271105 0.0329632 0.0
-0.0247347 0.0273511 0.0
-0.0222496 0.0222059 0.0
-0.0196651 0.017546 0.0
-0.0169937 0.0133887 0.0
-0.0142531 0.00975043 0.0
-0.0114695 0.00664772 0.0
-0.00868157 0.00409894 0.0
-0.00594591 0.00211928 0.0
-0.00334116 0.000734886 0.0
-0.000976869 9.83264e-05 0.0
0.81394 0.00614863 0.0
0.501 0.0350076 0.0
0.279094 0.0804349 0.0
0.134363 0.123016 0.0
0.0450366 0.158816 0.0
-0.00735526 0.186823 0.0
-0.035838 0.207136 0.0
-0.0498287 0.221034 0.0
-0.0555119 0.229939 0.0
-0.05672 0.235015 0.0
-0.0557589 0.237176 0.0
-0.0539725 0.237105 0.0
-0.0521067 0.235303 0.0
-0.0505406 0.232133 0.0
-0.0494331 0.227856 0.0
-0.0488137 0.222663 0.0
-0.0486402 0.216694 0.0
-0.0488329 0.21006 0.0
-0.0492969 0.202849 0.0
-0.0499347 0.195139 0.0
-0.0506538 0.187001 0.0
-0.0513713 0.1785 0.0
-0.0520155 0.169702 0.0
-0.0525272 0.160671 0.0
-0.0528598 0.15147 0.0
-0.0529781 0.142161 0.0
-0.052858 0.132806 0.0
-0.0524848 0.123463 0.0
-0.0518524 0.114188 0.0
-0.0509613 0.105034 0.0
-0.0498176 0.0960492 0.0
-0.0484312 0.0872799 0.0
-0.0468149 0.078767 0.0
-0.0449832 0.070548 0.0
-0.0429508 0.0626563 0.0
-0.0407325 0.0551222 0.0
-0.038342 0.0479727 0.0
-0.0357919 0.0412324 0.0
-0.0330934 0.0349234 0.0
-0.0302567 0.0290661 0.0
-0.0272919 0.0236799 0.0
-0.0242095 0.0187831 0.0
-0.0210225 0.014394 0.0
-0.0177482 0.0105315 0.0
-0.0144113 0.00721607 0.0
-0.0110469 0.00447255 0.0
-0.00770497 0.00232455 0.0
-0.00445262 0.000810257 0.0
-0.00137985 0.000109263 0.0
0.83076 0.00459908 0.0
0.537349 0.028789 0.0
0.32042 0.0688366 0.0
0.172615 0.108286 0.0
0.0770007 0.143046 0.0
0.0176937 0.171565 0.0
-0.0175245 0.193702 0.0
-0.0370893 0.209869 0.0
-0.0472076 0.221158 0.0
-0.05189 0.228537 0.0
-0.0536446 0.232802 0.0
-0.0539953 0.234583 0.0
-0.0538334 0.234363 0.0
-0.0536497 0.232509 0.0
-0.0536845 0.2293 0.0
-0.0540259 0.224949 0.0
-0.0546717 0.219625 0.0
-0.0555693 0.213465 0.0
-0.0566414 0.206583 0.0
-0.0578012 0.19908 0.0
-0.0589632 0.191047 0.0
-0.0600482 0.18257 0.0
-0.0609872 0.173731 0.0
-0.061723 0.164609 0.0
-0.0622108 0.155279 0.0
-0.0624178 0.145814 0.0
-0.0623226 0.136285 0.0
-0.0619137 0.126756 0.0
-0.0611885 0.117291 0.0
-0.0601518 0.107945 0.0
-0.0588138 0.0987719 0.0
-0.0571891 0.0898178 0.0
-0.0552947 0.0811255 0.0
-0.0531493 0.0727326 0.0
-0.0507715 0.0646724 0.0
-0.0481795 0.0569743 0.0
-0.04539 0.0496642 0.0
-0.0424181 0.0427652 0.0
-0.039277 0.0362981 0.0
-0.0359783 0.0302824 0.0
-0.0325327 0.0247364 0.0
-0.0289509 0.0196786 0.0
-0.0252451 0.0151281 0.0
-0.0214308 0.0111056 0.0
-0.0175292 0.00763569 0.0
-0.0135697 0.00474876 0.0
-0.00959298 0.00247593 0.0
-0.00565226 0.000865306 0.0
-0.00181651 0.000117005 0.0
0.844613 0.00358829 0.0
0.568827 0.0241788 0.0
0.357791 0.0596761 0.0
0.208652 0.0961081 0.0
0.10836 0.129448 0.0
0.043317 0.157835 0.0
0.00242166 0.180816 0.0
-0.0223837 0.198562 0.0
-0.0368558 0.211622 0.0
-0.0450867 0.220804 0.0
-0.0497206 0.226788 0.0
-0.0524176 0.230138 0.0
-0.0541853 0.231301 0.0
-0.0556075 0.230635 0.0
-0.0569955 0.228421 0.0
-0.0584898 0.224885 0.0
-0.0601255 0.220209 0.0
-0.0618765 0.21455 0.0
-0.0636835 0.208041 0.0
-0.065472 0.200801 0.0
-0.0671646 0.192941 0.0
-0.0686881 0.184561 0.0
-0.0699778 0.175759 0.0
-0.0709806 0.166628 0.0
-0.0716552 0.157254 0.0
-0.0719729 0.147721 0.0
-0.0719165 0.138107 0.0
-0.0714794 0.128485 0.0
-0.0706643 0.118922 0.0
-0.0694812 0.109479 0.0
-0.0679458 0.10021 0.0
-0.0660782 0.0911662 0.0
-0.0639007 0.0823891 0.0
-0.0614367 0.0739165 0.0
-0.0587095 0.0657808 0.0
-0.0557411 0.0580101 0.0
-0.0525515 0.0506286 0.0
-0.0491582 0.0436576 0.0
-0.0455763 0.0371163 0.0
-0.0418185 0.0310223 0.0
-0.0378957 0.0253929 0.0
-0.0338179 0.0202461 0.0
-0.0295953 0.0156015 0.0
-0.0252403 0.0114815 0.0
-0.020769 0.00791365 0.0
-0.0162032 0.0049332 0.0
-0.0115723 0.00257735 0.0
-0.0069143 0.000902055 0.0
-0.00227667 0.00012206 0.0
0.856287 0.00290287 0.0
0.596374 0.0206771 0.0
0.391672 0.0523372 0.0
0.242447 0.0859598 0.0
0.13876 0.1177 0.0
0.0690219 0.145548 0.0
0.0232206 0.168792 0.0
-0.00632486 0.18748 0.0
-0.0249738 0.201817 0.0
-0.0367323 0.212368 0.0
-0.0443176 0.219716 0.0
-0.0494873 0.224355 0.0
-0.0533394 0.226692 0.0
-0.0565326 0.227062 0.0
-0.0594376 0.22574 0.0
-0.0622398 0.222952 0.0
-0.0650077 0.218892 0.0
-0.0677389 0.213725 0.0
-0.0703913 0.207599 0.0
-0.0729027 0.200648 0.0
-0.0752045 0.192995 0.0
-0.0772303 0.184758 0.0
-0.0789212 0.176046 0.0
-0.0802293 0.166963 0.0
-0.0811185 0.157608 0.0
-0.0815657 0.148074 0.0
-0.0815596 0.138445 0.0
-0.0811 0.128803 0.0
-0.0801958 0.119218 0.0
-0.0788639 0.109755 0.0
-0.0771268 0.100472 0.0
-0.075011 0.0914194 0.0
-0.0725451 0.0826397 0.0
-0.0697581 0.0741701 0.0
-0.0666783 0.0660416 0.0
-0.063332 0.0582804 0.0
-0.0597427 0.0509087 0.0
-0.0559307 0.0439453 0.0
-0.0519125 0.037407 0.0
-0.0477017 0.0313097 0.0
-0.0433088 0.0256689 0.0
-0.0387423 0.0205017 0.0
-0.0340095 0.0158276 0.0
-0.0291184 0.0116699 0.0
-0.0240785 0.00805852 0.0
-0.0189024 0.00503226 0.0
-0.0136074 0.00263299 0.0
-0.00821498 0.000922429 0.0
-0.00275133 0.00012485 0.0
0.866312 0.00241827 0.0
0.620717 0.0179526 0.0
0.422494 0.0463683 0.0
0.274068 0.0774223 0.0
0.167984 0.10751 0.0
0.0944043 0.134566 0.0
0.0443416 0.157711 0.0
0.0106477 0.176802 0.0
-0.0119788 0.192016 0.0
-0.0271904 0.203579 0.0
-0.0377374 0.211981 0.0
-0.0454454 0.217651 0.0
-0.051481 0.220954 0.0
-0.056562 0.2222 0.0
-0.0611073 0.221649 0.0
-0.0653391 0.219525 0.0
-0.0693541 0.216022 0.0
-0.0731708 0.211313 0.0
-0.0767619 0.205554 0.0
-0.0800768 0.198891 0.0
-0.0830554 0.191459 0.0
-0.0856385 0.183387 0.0
-0.0877737 0.174795 0.0
-0.0894193 0.1658 0.0
-0.0905458 0.156508 0.0
-0.0911369 0.147022 0.0
-0.0911885 0.137435 0.0
-0.0907081 0.127831 0.0
-0.0897127 0.118287 0.0
-0.0882272 0.108872 0.0
-0.0862821 0.0996438 0.0
-0.0839112 0.0906538 0.0
-0.0811504 0.0819447 0.0
-0.0780353 0.0735524 0.0
-0.0745996 0.0655061 0.0
-0.0708744 0.0578295 0.0
-0.0668869 0.0505422 0.0
-0.06266 0.0436602 0.0
-0.058212 0.0371976 0.0
-0.0535567 0.0311676 0.0
-0.0487036 0.0255837 0.0
-0.0436592 0.0204615 0.0
-0.0384269 0.0158196 0.0
-0.0330092 0.0116817 0.0
-0.0274077 0.00807879 0.0
-0.0216251 0.00505208 0.0
-0.015665 0.00264664 0.0
-0.00953251 0.000928069 0.0
-0.0032325 0.000125697 0.0
0.875052 0.002061 0.0
0.642415 0.0157827 0.0
0.450639 0.0414375 0.0
0.303632 0.0701612 0.0
0.195933 0.0986103 0.0
0.119222 0.124728 0.0
0.0654534 0.147528 0.0
0.0279942 0.166721 0.0
0.00178848 0.182376 0.0
-0.0167668 0.19466 0.0
-0.0302466 0.203843 0.0
-0.0405159 0.210311 0.0
-0.0487924 0.214384 0.0
-0.0558397 0.216345 0.0
-0.0621144 0.216438 0.0
-0.0678685 0.214878 0.0
-0.0732212 0.211859 0.0
-0.0782079 0.207555 0.0
-0.0828141 0.20213 0.0
-0.0869988 0.195736 0.0
-0.0907099 0.188519 0.0
-0.0938952 0.180617 0.0
-0.0965093 0.172161 0.0
-0.0985171 0.163277 0.0
-0.0998969 0.154081 0.0
-0.10064 0.144681 0.0
-0.100752 0.135179 0.0
-0.100248 0.125663 0.0
-0.0991556 0.116215 0.0
-0.0975083 0.106905 0.0
-0.0953457 0.0977926 0.0
-0.0927107 0.0889295 0.0
-0.0896469 0.0803576 0.0
-0.0861971 0.0721108 0.0
-0.0824015 0.0642159 0.0
-0.0782961 0.056694 0.0
-0.0739122 0.0495611 0.0
-0.0692754 0.0428302 0.0
-0.0644052 0.0365119 0.0
-0.0593156 0.0306165 0.0
-0.0540149 0.0251548 0.0
-0.0485064 0.0201401 0.0
-0.0427891 0.0155897 0.0
-0.036859 0.0115266 0.0
-0.0307092 0.00798198 0.0
-0.024331 0.00499796 0.0
-0.0177142 0.00262146 0.0
-0.0108468 0.000920263 0.0
-0.00371298 0.000124831 0.0
0.882763 0.00178672 0.0
0.661901 0.0140149 0.0
0.476432 0.037298 0.0
0.331275 0.0639094 0.0
0.222574 0.0907673 0.0
0.14332 0.11586 0.0
0.0863326 0.138138 0.0
0.0454809 0.157206 0.0
0.0159721 0.173025 0.0
-0.00574271 0.185738 0.0
-0.0220878 0.195469 0.0
-0.0349068 0.202519 0.0
-0.0454485 0.207179 0.0
-0.0545098 0.2097 0.0
-0.0625753 0.210307 0.0
-0.0699194 0.209207 0.0
-0.0766785 0.206588 0.0
-0.082901 0.202625 0.0
-0.0885821 0.197486 0.0
-0.0936887 0.19133 0.0
-0.0981756 0.184309 0.0
-0.101997 0.17657 0.0
-0.105115 0.168254 0.0
-0.107501 0.159494 0.0
-0.109143 0.150415 0.0
-0.11004 0.141132 0.0
-0.110208 0.13175 0.0
-0.109673 0.122366 0.0
-0.108472 0.113061 0.0
-0.10665 0.103908 0.0
-0.104258 0.0949684 0.0
-0.101347 0.0862921 0.0
-0.0979696 0.0779195 0.0
-0.0941773 0.0698824 0.0
-0.0900167 0.0622046 0.0
-0.0855294 0.0549036 0.0
-0.0807508 0.047992 0.0
-0.0757093 0.0414786 0.0
-0.0704257 0.0353705 0.0
-0.0649138 0.0296742 0.0
-0.05918 0.0243973 0.0
-0.0532242 0.0195504 0.0
-0.0470402 0.0151485 0.0
-0.0406167 0.0112131 0.0
-0.0339375 0.00777429 0.0
-0.0269821 0.0048741 0.0
-0.0197257 0.00255984 0.0
-0.0121392 0.000899935 0.0
-0.00418616 0.000122398 0.0
0.889632 0.00156798 0.0
0.67951 0.0125425 0.0
0.500144 0.0337649 0.0
0.35713 0.0584546 0.0
0.247904 0.0837815 0.0
0.166592 0.107801 0.0
0.106801 0.129431 0.0
0.0628828 0.148199 0.0
0.0303131 0.163983 0.0
0.00568322 0.176846 0.0
-0.0134618 0.186934 0.0
-0.0288029 0.19438 0.0
-0.0416124 0.199458 0.0
-0.0527124 0.202391 0.0
-0.0626077 0.203386 0.0
-0.0715888 0.202638 0.0
-0.079804 0.200329 0.0
-0.0873106 0.196636 0.0
-0.0941109 0.191728 0.0
-0.100177 0.185767 0.0
-0.105471 0.178915 0.0
-0.109951 0.171325 0.0
-0.113586 0.163144 0.0
-0.116358 0.154515 0.0
-0.118261 0.145569 0.0
-0.119306 0.136426 0.0
-0.119519 0.127198 0.0
-0.118939 0.117983 0.0
-0.117614 0.108866 0.0
-0.115601 0.0999208 0.0
-0.112962 0.0912073 0.0
-0.10976 0.0827748 0.0
-0.106057 0.0746615 0.0
-0.101912 0.0668959 0.0
-0.0973805 0.0594985 0.0
-0.092509 0.0524826 0.0
-0.0873374 0.0458565 0.0
-0.0818969 0.0396249 0.0
-0.0762096 0.0337904 0.0
-0.0702887 0.0283555 0.0
-0.0641386 0.0233241 0.0
-0.057755 0.0187031 0.0
-0.0511263 0.0145046 0.0
-0.044233 0.0107477 0.0
-0.0370492 0.00746055 0.0
-0.029542 0.00468366 0.0
-0.0216718 0.00246348 0.0
-0.0133919 0.000867686 0.0
-0.00464581 0.000118474 0.0
0.895792 0.00138722 0.0
0.6955 0.011289 0.0
0.521997 0.0306971 0.0
0.381316 0.0536267 0.0
0.271938 0.0774833 0.0
0.188969 0.100404 0.0
0.126732 0.121292 0.0
0.0800348 0.139625 0.0
0.0446206 0.155213 0.0
0.01722 0.168058 0.0
-0.00457217 0.178278 0.0
-0.0223804 0.185949 0.0
-0.0374394 0.191284 0.0
-0.0505834 0.194486 0.0
-0.0623292 0.195743 0.0
-0.0729764 0.195239 0.0
-0.0826805 0.193151 0.0
-0.0915036 0.189651 0.0
-0.0994522 0.184912 0.0
-0.106503 0.179101 0.0
-0.11262 0.172384 0.0
-0.117769 0.164922 0.0
-0.121925 0.15687 0.0
-0.125078 0.148375 0.0
-0.127233 0.139574 0.0
-0.128411 0.130595 0.0
-0.128652 0.121551 0.0
-0.128006 0.112543 0.0
-0.126535 0.103658 0.0