# vtk DataFile Version 3.0
Malha 2D com triângulos e temperatura
ASCII
DATASET UNSTRUCTURED_GRID

POINTS 2500 double
0 0 0
1 0 0
1 1 0
0 1 0
0.0204082 0 0
0.0408163 0 0
0.0612245 0 0
0.0816327 0 0
0.102041 0 0
0.122449 0 0
0.142857 0 0
0.163265 0 0
0.183673 0 0
0.204082 0 0
0.22449 0 0
0.244898 0 0
0.265306 0 0
0.285714 0 0
0.306122 0 0
0.326531 0 0
0.346939 0 0
0.367347 0 0
0.387755 0 0
0.408163 0 0
0.428571 0 0
0.44898 0 0
0.469388 0 0
0.489796 0 0
0.510204 0 0
0.530612 0 0
0.55102 0 0
0.571429 0 0
0.591837 0 0
0.612245 0 0
0.632653 0 0
0.653061 0 0
0.673469 0 0
0.693878 0 0
0.714286 0 0
0.734694 0 0
0.755102 0 0
0.77551 0 0
0.795918 0 0
0.816327 0 0
0.836735 0 0
0.857143 0 0
0.877551 0 0
0.897959 0 0
0.918367 0 0
0.938776 0 0
0.959184 0 0
0.979592 0 0
1 0.0204082 0
1 0.0408163 0
1 0.0612245 0
1 0.0816327 0
1 0.102041 0
1 0.122449 0
1 0.142857 0
1 0.163265 0
1 0.183673 0
1 0.204082 0
1 0.22449 0
1 0.244898 0
1 0.265306 0
1 0.285714 0
1 0.306122 0
1 0.326531 0
1 0.346939 0
1 0.367347 0
1 0.387755 0
1 0.408163 0
1 0.428571 0
1 0.44898 0
1 0.469388 0
1 0.489796 0
1 0.510204 0
1 0.530612 0
1 0.55102 0
1 0.571429 0
1 0.591837 0
1 0.612245 0
1 0.632653 0
1 0.653061 0
1 0.673469 0
1 0.693878 0
1 0.714286 0
1 0.734694 0
1 0.755102 0
1 0.77551 0
1 0.795918 0
1 0.816327 0
1 0.836735 0
1 0.857143 0
1 0.877551 0
1 0.897959 0
1 0.918367 0
1 0.938776 0
1 0.959184 0
1 0.979592 0
0.979592 1 0
0.959184 1 0
0.938776 1 0
0.918367 1 0
0.897959 1 0
0.877551 1 0
0.857143 1 0
0.836735 1 0
0.816327 1 0
0.795918 1 0
0.77551 1 0
0.755102 1 0
0.734694 1 0
0.714286 1 0
0.693878 1 0
0.673469 1 0
0.653061 1 0
0.632653 1 0
0.612245 1 0
0.591837 1 0
0.571429 1 0
0.55102 1 0
0.530612 1 0
0.510204 1 0
0.489796 1 0
0.469388 1 0
0.44898 1 0
0.428571 1 0
0.408163 1 0
0.387755 1 0
0.367347 1 0
0.346939 1 0
0.326531 1 0
0.306122 1 0
0.285714 1 0
0.265306 1 0
0.244898 1 0
0.22449 1 0
0.204082 1 0
0.183673 1 0
0.163265 1 0
0.142857 1 0
0.122449 1 0
0.102041 1 0
0.0816327 1 0
0.0612245 1 0
0.0408163 1 0
0.0204082 1 0
0 0.979592 0
0 0.959184 0
0 0.938776 0
0 0.918367 0
0 0.897959 0
0 0.877551 0
0 0.857143 0
0 0.836735 0
0 0.816327 0
0 0.795918 0
0 0.77551 0
0 0.755102 0
0 0.734694 0
0 0.714286 0
0 0.693878 0
0 0.673469 0
0 0.653061 0
0 0.632653 0
0 0.612245 0
0 0.591837 0
0 0.571429 0
0 0.55102 0
0 0.530612 0
0 0.510204 0
0 0.489796 0
0 0.469388 0
0 0.44898 0
0 0.428571 0
0 0.408163 0
0 0.387755 0
0 0.367347 0
0 0.346939 0
0 0.326531 0
0 0.306122 0
0 0.285714 0
0 0.265306 0
0 0.244898 0
0 0.22449 0
0 0.204082 0
0 0.183673 0
0 0.163265 0
0 0.142857 0
0 0.122449 0
0 0.102041 0
0 0.0816327 0
0 0.0612245 0
0 0.0408163 0
0 0.0204082 0
0.0204082 0.979592 0
0.0204082 0.959184 0
0.0204082 0.938776 0
0.0204082 0.918367 0
0.0204082 0.897959 0
0.0204082 0.877551 0
0.0204082 0.857143 0
0.0204082 0.836735 0
0.0204082 0.816327 0
0.0204082 0.795918 0
0.0204082 0.77551 0
0.0204082 0.755102 0
0.0204082 0.734694 0
0.0204082 0.714286 0
0.0204082 0.693878 0
0.0204082 0.673469 0
0.0204082 0.653061 0
0.0204082 0.632653 0
0.0204082 0.612245 0
0.0204082 0.591837 0
0.0204082 0.571429 0
0.0204082 0.55102 0
0.0204082 0.530612 0
0.0204082 0.510204 0
0.0204082 0.489796 0
0.0204082 0.469388 0
0.0204082 0.44898 0
0.0204082 0.428571 0
0.0204082 0.408163 0
0.0204082 0.387755 0
0.0204082 0.367347 0
0.0204082 0.346939 0
0.0204082 0.326531 0
0.0204082 0.306122 0
0.0204082 0.285714 0
0.0204082 0.265306 0
0.0204082 0.244898 0
0.0204082 0.22449 0
0.0204082 0.204082 0
0.0204082 0.183673 0
0.0204082 0.163265 0
0.0204082 0.142857 0
0.0204082 0.122449 0
0.0204082 0.102041 0
0.0204082 0.0816327 0
0.0204082 0.0612245 0
0.0204082 0.0408163 0
0.0204082 0.0204082 0
0.0408163 0.979592 0
0.0408163 0.959184 0
0.0408163 0.938776 0
0.0408163 0.918367 0
0.0408163 0.897959 0
0.0408163 0.877551 0
0.0408163 0.857143 0
0.0408163 0.836735 0
0.0408163 0.816327 0
0.0408163 0.795918 0
0.0408163 0.77551 0
0.0408163 0.755102 0
0.0408163 0.734694 0
0.0408163 0.714286 0
0.0408163 0.693878 0
0.0408163 0.673469 0
0.0408163 0.653061 0
0.0408163 0.632653 0
0.0408163 0.612245 0
0.0408163 0.591837 0
0.0408163 0.571429 0
0.0408163 0.55102 0
0.0408163 0.530612 0
0.0408163 0.510204 0
0.0408163 0.489796 0
0.0408163 0.469388 0
0.0408163 0.44898 0
0.0408163 0.428571 0
0.0408163 0.408163 0
0.0408163 0.387755 0
0.0408163 0.367347 0
0.0408163 0.346939 0
0.0408163 0.326531 0
0.0408163 0.306122 0
0.0408163 0.285714 0
0.0408163 0.265306 0
0.0408163 0.244898 0
0.0408163 0.22449 0
0.0408163 0.204082 0
0.0408163 0.183673 0
0.0408163 0.163265 0
0.0408163 0.142857 0
0.0408163 0.122449 0
0.0408163 0.102041 0
0.0408163 0.0816327 0
0.0408163 0.0612245 0
0.0408163 0.0408163 0
0.0408163 0.0204082 0
0.0612245 0.979592 0
0.0612245 0.959184 0
0.0612245 0.938776 0
0.0612245 0.918367 0
0.0612245 0.897959 0
0.0612245 0.877551 0
0.0612245 0.857143 0
0.0612245 0.836735 0
0.0612245 0.816327 0
0.0612245 0.795918 0
0.0612245 0.77551 0
0.0612245 0.755102 0
0.0612245 0.734694 0
0.0612245 0.714286 0
0.0612245 0.693878 0
0.0612245 0.673469 0
0.0612245 0.653061 0
0.0612245 0.632653 0
0.0612245 0.612245 0
0.0612245 0.591837 0
0.0612245 0.571429 0
0.0612245 0.55102 0
0.0612245 0.530612 0
0.0612245 0.510204 0
0.0612245 0.489796 0
0.0612245 0.469388 0
0.0612245 0.44898 0
0.0612245 0.428571 0
0.0612245 0.408163 0
0.0612245 0.387755 0
0.0612245 0.367347 0
0.0612245 0.346939 0
0.0612245 0.326531 0
0.0612245 0.306122 0
0.0612245 0.285714 0
0.0612245 0.265306 0
0.0612245 0.244898 0
0.0612245 0.22449 0
0.0612245 0.204082 0
0.0612245 0.183673 0
0.0612245 0.163265 0
0.0612245 0.142857 0
0.0612245 0.122449 0
0.0612245 0.102041 0
0.0612245 0.0816327 0
0.0612245 0.0612245 0
0.0612245 0.0408163 0
0.0612245 0.0204082 0
0.0816327 0.979592 0
0.0816327 0.959184 0
0.0816327 0.938776 0
0.0816327 0.918367 0
0.0816327 0.897959 0
0.0816327 0.877551 0
0.0816327 0.857143 0
0.0816327 0.836735 0
0.0816327 0.816327 0
0.0816327 0.795918 0
0.0816327 0.77551 0
0.0816327 0.755102 0
0.0816327 0.734694 0
0.0816327 0.714286 0
0.0816327 0.693878 0
0.0816327 0.673469 0
0.0816327 0.653061 0
0.0816327 0.632653 0
0.0816327 0.612245 0
0.0816327 0.591837 0
0.0816327 0.571429 0
0.0816327 0.55102 0
0.0816327 0.530612 0
0.0816327 0.510204 0
0.0816327 0.489796 0
0.0816327 0.469388 0
0.0816327 0.44898 0
0.0816327 0.428571 0
0.0816327 0.408163 0
0.0816327 0.387755 0
0.0816327 0.367347 0
0.0816327 0.346939 0
0.0816327 0.326531 0
0.0816327 0.306122 0
0.0816327 0.285714 0
0.0816327 0.265306 0
0.0816327 0.244898 0
0.0816327 0.22449 0
0.0816327 0.204082 0
0.0816327 0.183673 0
0.0816327 0.163265 0
0.0816327 0.142857 0
0.0816327 0.122449 0
0.0816327 0.102041 0
0.0816327 0.0816327 0
0.0816327 0.0612245 0
0.0816327 0.0408163 0
0.0816327 0.0204082 0
0.102041 0.979592 0
0.102041 0.959184 0
0.102041 0.938776 0
0.102041 0.918367 0
0.102041 0.897959 0
0.102041 0.877551 0
0.102041 0.857143 0
0.102041 0.836735 0
0.102041 0.816327 0
0.102041 0.795918 0
0.102041 0.77551 0
0.102041 0.755102 0
0.102041 0.734694 0
0.102041 0.714286 0
0.102041 0.693878 0
0.102041 0.673469 0
0.102041 0.653061 0
0.102041 0.632653 0
0.102041 0.612245 0
0.102041 0.591837 0
0.102041 0.571429 0
0.102041 0.55102 0
0.102041 0.530612 0
0.102041 0.510204 0
0.102041 0.489796 0
0.102041 0.469388 0
0.102041 0.44898 0
0.102041 0.428571 0
0.102041 0.408163 0
0.102041 0.387755 0
0.102041 0.367347 0
0.102041 0.346939 0
0.102041 0.326531 0
0.102041 0.306122 0
0.102041 0.285714 0
0.102041 0.265306 0
0.102041 0.244898 0
0.102041 0.22449 0
0.102041 0.204082 0
0.102041 0.183673 0
0.102041 0.163265 0
0.102041 0.142857 0
0.102041 0.122449 0
0.102041 0.102041 0
0.102041 0.0816327 0
0.102041 0.0612245 0
0.102041 0.0408163 0
0.102041 0.0204082 0
0.122449 0.979592 0
0.122449 0.959184 0
0.122449 0.938776 0
0.122449 0.918367 0
0.122449 0.897959 0
0.122449 0.877551 0
0.122449 0.857143 0
0.122449 0.836735 0
0.122449 0.816327 0
0.122449 0.795918 0
0.122449 0.77551 0
0.122449 0.755102 0
0.122449 0.734694 0
0.122449 0.714286 0
0.122449 0.693878 0
0.122449 0.673469 0
0.122449 0.653061 0
0.122449 0.632653 0
0.122449 0.612245 0
0.122449 0.591837 0
0.122449 0.571429 0
0.122449 0.55102 0
0.122449 0.530612 0
0.122449 0.510204 0
0.122449 0.489796 0
0.122449 0.469388 0
0.122449 0.44898 0
0.122449 0.428571 0
0.122449 0.408163 0
0.122449 0.387755 0
0.122449 0.367347 0
0.122449 0.346939 0
0.122449 0.326531 0
0.122449 0.306122 0
0.122449 0.285714 0
0.122449 0.265306 0
0.122449 0.244898 0
0.122449 0.22449 0
0.122449 0.204082 0
0.122449 0.183673 0
0.122449 0.163265 0
0.122449 0.142857 0
0.122449 0.122449 0
0.122449 0.102041 0
0.122449 0.0816327 0
0.122449 0.0612245 0
0.122449 0.0408163 0
0.122449 0.0204082 0
0.142857 0.979592 0
0.142857 0.959184 0
0.142857 0.938776 0
0.142857 0.918367 0
0.142857 0.897959 0
0.142857 0.877551 0
0.142857 0.857143 0
0.142857 0.836735 0
0.142857 0.816327 0
0.142857 0.795918 0
0.142857 0.77551 0
0.142857 0.755102 0
0.142857 0.734694 0
0.142857 0.714286 0
0.142857 0.693878 0
0.142857 0.673469 0
0.142857 0.653061 0
0.142857 0.632653 0
0.142857 0.612245 0
0.142857 0.591837 0
0.142857 0.571429 0
0.142857 0.55102 0
0.142857 0.530612 0
0.142857 0.510204 0
0.142857 0.489796 0
0.142857 0.469388 0
0.142857 0.44898 0
0.142857 0.428571 0
0.142857 0.408163 0
0.142857 0.387755 0
0.142857 0.367347 0
0.142857 0.346939 0
0.142857 0.326531 0
0.142857 0.306122 0
0.142857 0.285714 0
0.142857 0.265306 0
0.142857 0.244898 0
0.142857 0.22449 0
0.142857 0.204082 0
0.142857 0.183673 0
0.142857 0.163265 0
0.142857 0.142857 0
0.142857 0.122449 0
0.142857 0.102041 0
0.142857 0.0816327 0
0.142857 0.0612245 0
0.142857 0.0408163 0
0.142857 0.0204082 0
0.163265 0.979592 0
0.163265 0.959184 0
0.163265 0.938776 0
0.163265 0.918367 0
0.163265 0.897959 0
0.163265 0.877551 0
0.163265 0.857143 0
0.163265 0.836735 0
0.163265 0.816327 0
0.163265 0.795918 0
0.163265 0.77551 0
0.163265 0.755102 0
0.163265 0.734694 0
0.163265 0.714286 0
0.163265 0.693878 0
0.163265 0.673469 0
0.163265 0.653061 0
0.163265 0.632653 0
0.163265 0.612245 0
0.163265 0.591837 0
0.163265 0.571429 0
0.163265 0.55102 0
[...]
CELL_DATA 2401
VECTORS velocity double
0.257584 0.157303 0.0
-0.00257515 0.26452 0.0
-0.0321795 0.205723 0.0
-0.0252815 0.151039 0.0
-0.0159995 0.113669 0.0
-0.00968384 0.0883885 0.0
-0.00594829 0.0712791 0.0
-0.00379672 0.0594429 0.0
-0.00253873 0.0509893 0.0
-0.00177847 0.0447541 0.0
-0.00130092 0.0400119 0.0
-0.000989994 0.0362979 0.0
-0.000781565 0.0333054 0.0
-0.000638825 0.0308259 0.0
-0.000539658 0.0287146 0.0
-0.000470159 0.0268687 0.0
-0.000421207 0.0252149 0.0
-0.000386611 0.0237005 0.0
-0.000362044 0.0222875 0.0
-0.000344413 0.020949 0.0
-0.000331475 0.0196662 0.0
-0.000321589 0.0184263 0.0
-0.00031355 0.0172211 0.0
-0.000306479 0.0160458 0.0
-0.000299747 0.014898 0.0
-0.000292914 0.0137773 0.0
-0.000285689 0.0126842 0.0
-0.000277892 0.0116203 0.0
-0.000269428 0.0105876 0.0
-0.000260266 0.00958851 0.0
-0.000250416 0.00862524 0.0
-0.000239912 0.00770015 0.0
-0.000228804 0.00681544 0.0
-0.000217138 0.00597319 0.0
-0.000204953 0.00517536 0.0
-0.000192267 0.00442382 0.0
-0.000179075 0.00372043 0.0
-0.000165336 0.00306713 0.0
-0.000150968 0.00246601 0.0
-0.000135842 0.00191944 0.0
-0.000119772 0.00143017 0.0
-0.000102504 0.00100148 0.0
-8.37209e-05 0.000637208 0.0
-6.3067e-05 0.000341769 0.0
-4.02695e-05 0.000119916 0.0
-1.55195e-05 -2.40143e-05 0.0
9.50544e-06 -8.79816e-05 0.0
2.94888e-05 -7.90674e-05 0.0
2.92161e-05 -2.90924e-05 0.0
0.340853 0.123022 0.0
-0.000385541 0.249749 0.0
-0.0648826 0.272287 0.0
-0.0629449 0.253106 0.0
-0.0483424 0.222784 0.0
-0.0349635 0.192941 0.0
-0.0250992 0.167343 0.0
-0.0182417 0.146489 0.0
-0.0135322 0.129789 0.0
-0.0102791 0.116424 0.0
-0.00800476 0.105636 0.0
-0.00639498 0.0968043 0.0
-0.00524365 0.0894434 0.0
-0.00441395 0.0831831 0.0
-0.00381305 0.0777439 0.0
-0.00337658 0.0729156 0.0
-0.00305891 0.0685411 0.0
-0.00282709 0.0645034 0.0
-0.00265695 0.0607165 0.0
-0.00253055 0.0571179 0.0
-0.00243445 0.0536631 0.0
-0.00235859 0.0503216 0.0
-0.0022954 0.0470734 0.0
-0.00223928 0.0439067 0.0
-0.00218611 0.0408154 0.0
-0.00213296 0.0377981 0.0
-0.00207785 0.0348563 0.0
-0.00201946 0.0319936 0.0
-0.00195706 0.0292149 0.0
-0.00189031 0.026526 0.0
-0.00181914 0.0239327 0.0
-0.00174366 0.0214409 0.0
-0.00166408 0.0190565 0.0
-0.00158062 0.0167848 0.0
-0.00149346 0.014631 0.0
-0.00140267 0.0126004 0.0
-0.00130821 0.0106978 0.0
-0.00120986 0.00892844 0.0
-0.00110723 0.00729788 0.0
-0.000999706 0.0058121 0.0
-0.000886529 0.00447781 0.0
-0.000766792 0.00330244 0.0
-0.000639604 0.00229411 0.0
-0.000504416 0.00146112 0.0
-0.000361751 0.000810982 0.0
-0.000214871 0.000348319 0.0
-7.32706e-05 7.06536e-05 0.0
4.13254e-05 -4.01599e-05 0.0
7.8714e-05 -2.87275e-05 0.0
0.501087 0.0768837 0.0
0.0995778 0.183564 0.0
-0.0387205 0.24992 0.0
-0.0728899 0.266702 0.0
-0.0716428 0.258507 0.0
-0.060735 0.240603 0.0
-0.0489074 0.220227 0.0
-0.038734 0.200669 0.0
-0.0306653 0.183165 0.0
-0.0244823 0.167969 0.0
-0.0198166 0.154914 0.0
-0.0163207 0.143688 0.0
-0.0137105 0.133956 0.0
-0.0117661 0.125411 0.0
-0.0103203 0.117794 0.0
-0.00924731 0.11089 0.0
-0.00845168 0.104533 0.0
-0.00786115 0.09859 0.0
-0.00742059 0.0929632 0.0
-0.00708783 0.0875784 0.0
-0.00683055 0.0823826 0.0
-0.00662401 0.0773392 0.0
-0.00644941 0.0724244 0.0
-0.00629261 0.0676248 0.0
-0.00614313 0.062934 0.0
-0.00599345 0.0583515 0.0
-0.00583837 0.0538809 0.0
-0.0056745 0.0495283 0.0
-0.00549983 0.0453014 0.0
-0.0053134 0.041209 0.0
-0.00511497 0.03726 0.0
-0.00490477 0.0334635 0.0
-0.00468327 0.0298279 0.0
-0.004451 0.0263617 0.0
-0.00420837 0.0230727 0.0
-0.0039556 0.0199685 0.0
-0.00369259 0.0170568 0.0
-0.00341885 0.0143451 0.0
-0.00313352 0.0118414 0.0
-0.00283535 0.0095543 0.0
-0.00252283 0.00749292 0.0
-0.00219444 0.00566704 0.0
-0.00184905 0.00408672 0.0
-0.00148693 0.0027616 0.0
-0.00111138 0.00169948 0.0
-0.000732033 0.000903881 0.0
-0.000370747 0.000369105 0.0
-6.99982e-05 7.45908e-05 0.0
8.59427e-05 -8.11373e-06 0.0
0.610467 0.048128 0.0
0.196511 0.134278 0.0
0.0122986 0.21001 0.0
-0.0573987 0.247223 0.0
-0.0759323 0.257712 0.0
-0.0742245 0.253965 0.0
-0.065626 0.243149 0.0
-0.0556673 0.229521 0.0
-0.0464701 0.215369 0.0
-0.0386963 0.201791 0.0
-0.0324092 0.189231 0.0
-0.0274506 0.177787 0.0
-0.0236015 0.167394 0.0
-0.0206464 0.157916 0.0
-0.0183965 0.149199 0.0
-0.0166941 0.141097 0.0
-0.0154113 0.133482 0.0
-0.0144457 0.126249 0.0
-0.0137155 0.119313 0.0
-0.0131563 0.11261 0.0
-0.0127175 0.106096 0.0
-0.0123594 0.0997375 0.0
-0.0120515 0.0935164 0.0
-0.0117705 0.0874228 0.0
-0.0114991 0.0814542 0.0
-0.0112249 0.075614 0.0
-0.0109389 0.0699092 0.0
-0.0106357 0.0643493 0.0
-0.010312 0.0589456 0.0
-0.00996608 0.0537098 0.0
-0.00959773 0.048654 0.0
-0.00920741 0.0437899 0.0
-0.00879601 0.0391286 0.0
-0.00836449 0.0346808 0.0
-0.00791367 0.0304565 0.0
-0.00744399 0.0264653 0.0
-0.00695538 0.0227166 0.0
-0.00644716 0.0192198 0.0
-0.00591809 0.0159846 0.0
-0.00536638 0.0130209 0.0
-0.00479 0.0103392 0.0
-0.00418711 0.00795047 0.0
-0.00355691 0.00586537 0.0
-0.00290114 0.00409387 0.0
-0.00222659 0.00264373 0.0
-0.00154944 0.00151855 0.0
-0.00090244 0.000712831 0.0
-0.00034389 0.000210946 0.0
2.07748e-05 1.67756e-05 0.0
0.681025 0.0302315 0.0
0.279526 0.0984272 0.0
0.0706672 0.171371 0.0
-0.0268766 0.217889 0.0
-0.0653939 0.241106 0.0
-0.075723 0.249073 0.0
-0.0735854 0.247706 0.0
-0.066633 0.241125 0.0
-0.0584586 0.231939 0.0
-0.0506549 0.221687 0.0
-0.0438401 0.211222 0.0
-0.0381694 0.200977 0.0
-0.0335904 0.191138 0.0
-0.0299682 0.181755 0.0
-0.0271456 0.172807 0.0
-0.0249705 0.164243 0.0
-0.0233068 0.155999 0.0
-0.0220378 0.148019 0.0
-0.0210662 0.14025 0.0
-0.0203121 0.132656 0.0
-0.0197108 0.125207 0.0
-0.0192108 0.117886 0.0
-0.0187717 0.110685 0.0
-0.0183623 0.103604 0.0
-0.0179594 0.0966479 0.0
-0.017546 0.0898255 0.0
-0.0171104 0.0831495 0.0
-0.0166453 0.0766343 0.0
-0.0161463 0.0702951 0.0
-0.0156117 0.0641472 0.0
-0.0150414 0.0582058 0.0
-0.0144364 0.0524851 0.0
-0.0137984 0.0469987 0.0
-0.0131289 0.041759 0.0
-0.0124293 0.0367779 0.0
-0.0117006 0.0320664 0.0
-0.0109428 0.0276352 0.0
-0.0101553 0.0234948 0.0
-0.00933649 0.0196556 0.0
-0.00848436 0.0161285 0.0
-0.00759655 0.0129244 0.0
-0.00667118 0.0100546 0.0
-0.00570802 0.00753015 0.0
-0.0047104 0.00536112 0.0
-0.00368821 0.0035559 0.0
-0.00266273 0.00212 0.0
-0.00167392 0.00105135 0.0
-0.000788731 0.000343947 0.0
-0.000120042 4.00182e-05 0.0
0.730517 0.019232 0.0
0.350172 0.0731628 0.0
0.128971 0.139403 0.0
0.0116316 0.188179 0.0
-0.0449077 0.219079 0.0
-0.067808 0.235458 0.0
-0.0736731 0.241865 0.0
-0.0714732 0.241791 0.0
-0.0659183 0.237734 0.0
-0.0594101 0.231351 0.0
-0.0531109 0.223698 0.0
-0.0475246 0.215413 0.0
-0.0428131 0.206869 0.0
-0.0389674 0.198269 0.0
-0.0359004 0.189712 0.0
-0.0334948 0.181241 0.0
-0.0316292 0.172865 0.0
-0.0301893 0.164579 0.0
-0.0290739 0.156377 0.0
-0.0281961 0.14825 0.0
-0.0274835 0.140197 0.0
-0.0268772 0.132218 0.0
-0.0263299 0.124322 0.0
-0.0258051 0.116519 0.0
-0.0252753 0.108827 0.0
-0.0247206 0.101262 0.0
-0.0241276 0.0938431 0.0
-0.0234877 0.0865915 0.0
-0.0227966 0.0795267 0.0
-0.022053 0.0726681 0.0
-0.0212576 0.0660338 0.0
-0.0204124 0.059641 0.0
-0.01952 0.053505 0.0
-0.0185832 0.0476403 0.0
-0.0176043 0.0420597 0.0
-0.0165849 0.0367755 0.0
-0.0155253 0.031799 0.0
-0.0144252 0.0271412 0.0
-0.0132829 0.0228129 0.0
-0.0120963 0.0188251 0.0
-0.0108627 0.0151889 0.0
-0.00958035 0.0119156 0.0
-0.00824951 0.00901631 0.0
-0.00687459 0.00650183 0.0
-0.00546745 0.00438208 0.0
-0.0040521 0.00266608 0.0
-0.00267138 0.00135746 0.0
-0.00139392 0.00046202 0.0
-0.00032917 5.95896e-05 0.0
0.766548 0.0125991 0.0
0.409569 0.0556768 0.0
0.183758 0.114334 0.0
0.0527014 0.162035 0.0
-0.0184287 0.196535 0.0
-0.053095 0.218456 0.0
-0.0673698 0.230667 0.0
-0.0708321 0.235957 0.0
-0.0689364 0.236497 0.0
-0.0647117 0.233869 0.0
-0.0597893 0.229172 0.0
-0.055003 0.223142 0.0
-0.0507366 0.216262 0.0
-0.0471257 0.20884 0.0
-0.0441736 0.201071 0.0
-0.0418179 0.193073 0.0
-0.0399679 0.184923 0.0
-0.0385252 0.176668 0.0
-0.0373953 0.168341 0.0
-0.0364928 0.15997 0.0
-0.0357437 0.151579 0.0
-0.0350863 0.143193 0.0
-0.0344707 0.134836 0.0
-0.0338576 0.126535 0.0
-0.0332178 0.118318 0.0
-0.0325303 0.110212 0.0
-0.0317811 0.102245 0.0
-0.0309623 0.0944429 0.0
-0.0300703 0.0868313 0.0
-0.0291051 0.0794339 0.0
-0.028069 0.0722723 0.0
-0.0269657 0.065366 0.0
-0.0257995 0.0587325 0.0
-0.0245745 0.0523875 0.0
-0.0232944 0.046345 0.0
-0.0219616 0.0406176 0.0
-0.0205773 0.035217 0.0
-0.0191415 0.0301543 0.0
-0.0176527 0.0254402 0.0
-0.0161085 0.0210854 0.0
-0.0145062 0.0171008 0.0
-0.0128438 0.0134976 0.0
-0.0111217 0.0102874 0.0
-0.00934447 0.00748185 0.0
-0.0075243 0.00509338 0.0
-0.00568527 0.00313551 0.0
-0.00386895 0.00161873 0.0
-0.00213979 0.000560916 0.0
-0.000596193 7.51765e-05 0.0
0.793527 0.00858324 0.0
0.459446 0.0434589 0.0
0.233864 0.0948862 0.0
0.0937274 0.140007 0.0
0.0114841 0.175412 0.0
-0.0337661 0.200768 0.0
-0.0562357 0.217077 0.0
-0.0656923 0.226526 0.0
-0.0680386 0.230898 0.0
-0.0667561 0.231601 0.0
-0.063851 0.229688 0.0
-0.060442 0.225913 0.0
-0.0571188 0.220808 0.0
-0.0541609 0.214744 0.0
-0.0516687 0.207978 0.0
-0.0496436 0.200687 0.0
-0.0480358 0.192999 0.0
-0.0467719 0.185006 0.0
-0.0457719 0.176781 0.0
-0.0449584 0.168382 0.0
-0.0442614 0.159861 0.0
-0.043621 0.151264 0.0
-0.0429879 0.142634 0.0
-0.0423236 0.134015 0.0
-0.0415992 0.125445 0.0
-0.0407947 0.116964 0.0
-0.0398978 0.108608 0.0
-0.038902 0.10041 0.0
-0.0378062 0.0924007 0.0
-0.0366127 0.0846093 0.0
-0.0353261 0.0770603 0.0
-0.0339527 0.0697757 0.0
-0.032499 0.0627748 0.0
-0.0309712 0.0560745 0.0
-0.0293746 0.0496893 0.0
-0.0277131 0.0436321 0.0
-0.0259889 0.0379144 0.0
-0.0242022 0.0325469 0.0
-0.022352 0.0275399 0.0
-0.0204358 0.0229036 0.0
-0.0184506 0.0186484 0.0
-0.0163938 0.0147856 0.0
-0.0142652 0.011327 0.0
-0.0120684 0.00828585 0.0
-0.00981426 0.00567732 0.0
-0.00752428 0.00351989 0.0
-0.00523522 0.00183112 0.0
-0.00300297 0.000639959 0.0
-0.00091004 8.70845e-05 0.0
0.814403 0.0061081 0.0
0.501613 0.0347724 0.0
0.279146 0.0798006 0.0
0.133281 0.121786 0.0
0.0424425 0.156777 0.0
-0.0116153 0.183774 0.0
-0.0416559 0.202833 0.0
-0.0570538 0.215349 0.0
-0.0638898 0.222761 0.0
-0.0659397 0.226266 0.0
-0.0654899 0.226815 0.0
-0.0638906 0.225131 0.0
-0.0619102 0.221752 0.0
-0.0599594 0.217077 0.0
-0.0582331 0.211397 0.0
-0.0567982 0.204931 0.0
-0.0556495 0.197843 0.0
-0.0547435 0.190261 0.0
-0.0540199 0.18229 0.0
-0.0534137 0.174016 0.0
-0.0528631 0.165515 0.0
-0.0523138 0.156853 0.0
-0.0517203 0.148095 0.0
-0.0510473 0.139296 0.0
-0.050269 0.13051 0.0
-0.0493684 0.121786 0.0
-0.0483363 0.113169 0.0
-0.0471697 0.104701 0.0
-0.0458711 0.096418 0.0
-0.0444461 0.0883527 0.0
-0.0429031 0.0805335 0.0
-0.0412515 0.0729848 0.0
-0.039501 0.0657274 0.0
-0.0376603 0.058779 0.0
-0.035737 0.0521545 0.0
-0.0337367 0.0458664 0.0
-0.0316627 0.0399259 0.0
-0.0295161 0.034343 0.0
-0.0272961 0.029127 0.0
-0.025 0.0242875 0.0
-0.0226242 0.0198343 0.0
-0.0201652 0.0157784 0.0
-0.0176212 0.0121323 0.0
-0.0149939 0.00891073 0.0
-0.0122908 0.00613163 0.0
-0.00952872 0.00381837 0.0
-0.00673679 0.00199503 0.0
-0.00395923 0.000700101 0.0
-0.00126011 9.57925e-05 0.0
0.831064 0.0045425 0.0
0.537601 0.0284658 0.0
0.319919 0.0679999 0.0
0.170774 0.106739 0.0
0.0734439 0.140586 0.0
0.0122829 0.167996 0.0
-0.0246847 0.188826 0.0
-0.0457817 0.203537 0.0
-0.0571406 0.213288 0.0
-0.0627164 0.219069 0.0
-0.0649966 0.22171 0.0
-0.0655119 0.221876 0.0
-0.0651779 0.220085 0.0
-0.0645196 0.216736 0.0
-0.0638171 0.212138 0.0
-0.0631997 0.206531 0.0
-0.0627065 0.200106 0.0
-0.0623256 0.193016 0.0
-0.0620182 0.185391 0.0
-0.0617349 0.17734 0.0
-0.0614248 0.168961 0.0
-0.0610416 0.16034 0.0
-0.0605464 0.151556 0.0
-0.0599094 0.142682 0.0
-0.0591098 0.133783 0.0
-0.0581358 0.124919 0.0
-0.0569831 0.116145 0.0
-0.0556538 0.107508 0.0
-0.0541551 0.0990503 0.0
-0.0524977 0.09081 0.0
-0.0506945 0.0828182 0.0
-0.0487592 0.0751015 0.0
-0.0467051 0.0676819 0.0
-0.0445444 0.0605775 0.0
-0.0422875 0.0538033 0.0
-0.0399418 0.0473712 0.0
-0.0375124 0.0412916 0.0
-0.0350013 0.0355732 0.0
-0.0324076 0.0302244 0.0
-0.0297286 0.0252536 0.0
-0.0269596 0.02067 0.0
-0.0240957 0.0164843 0.0
-0.0211327 0.0127092 0.0
-0.0180689 0.00936093 0.0
-0.0149073 0.00646008 0.0
-0.011658 0.00403425 0.0
-0.0083404 0.00211317 0.0
-0.00498521 0.000742969 0.0
-0.00163672 0.000101787 0.0
0.844715 0.00352026 0.0
0.568629 0.0237865 0.0
0.356632 0.0586762 0.0
0.205954 0.094307 0.0
0.103752 0.126658 0.0
0.0366652 0.153877 0.0
-0.00619992 0.175547 0.0
-0.0326031 0.191772 0.0
-0.0483735 0.203262 0.0
-0.0575301 0.210838 0.0
-0.0626914 0.215204 0.0
-0.0655221 0.216954 0.0
-0.0670547 0.216568 0.0
-0.0679095 0.214432 0.0
-0.0684404 0.210853 0.0
-0.0688325 0.206084 0.0
-0.0691662 0.200329 0.0
-0.0694599 0.19376 0.0
-0.069697 0.186525 0.0
-0.0698445 0.178754 0.0
-0.069864 0.17056 0.0
-0.0697189 0.162048 0.0
-0.0693788 0.153311 0.0
-0.0688213 0.144437 0.0
-0.0680326 0.135501 0.0
-0.0670076 0.126575 0.0
-0.0657488 0.117722 0.0
-0.0642647 0.108995 0.0
-0.0625691 0.100445 0.0
-0.0606787 0.0921103 0.0
-0.0586121 0.0840271 0.0
-0.0563883 0.0762234 0.0
-0.0540253 0.068722 0.0
-0.0515392 0.0615414 0.0
-0.0489436 0.0546957 0.0
-0.0462486 0.0481963 0.0
-0.0434609 0.0420521 0.0
-0.0405834 0.0362705 0.0
-0.0376158 0.0308584 0.0
-0.0345544 0.0258229 0.0
-0.0313935 0.0211721 0.0
-0.028126 0.0169162 0.0
-0.0247444 0.0130681 0.0
-0.0212428 0.00964493 0.0
-0.0176183 0.0066695 0.0
-0.0138726 0.00417284 0.0
-0.0100143 0.00218915 0.0
-0.00605906 0.000770353 0.0
-0.00203127 0.0001055 0.0
0.856155 0.00282766 0.0
0.595655 0.0202346 0.0
0.389773 0.0512136 0.0
0.23882 0.083964 0.0
0.133049 0.114657 0.0
0.0611145 0.141297 0.0
0.0132273 0.1632 0.0
-0.0180819 0.180409 0.0
-0.0380795 0.193161 0.0
-0.0507818 0.202119 0.0
-0.0588862 0.207877 0.0
-0.064153 0.210949 0.0
-0.0677045 0.211771 0.0
-0.0702373 0.210705 0.0
-0.0721669 0.208052 0.0
-0.0737261 0.204061 0.0
-0.075032 0.198946 0.0
-0.0761304 0.192891 0.0
-0.0770259 0.186056 0.0
-0.0777014 0.178585 0.0
-0.0781317 0.170609 0.0
-0.078291 0.162245 0.0
-0.0781584 0.153601 0.0
-0.0777205 0.144776 0.0
-0.076972 0.135859 0.0
-0.0759162 0.126928 0.0
-0.0745637 0.118056 0.0
-0.0729314 0.109304 0.0
-0.0710406 0.100725 0.0
-0.0689156 0.0923634 0.0
-0.0665819 0.0842569 0.0
-0.0640646 0.0764351 0.0
-0.0613874 0.0689215 0.0
-0.058571 0.061734 0.0
-0.0556327 0.0548863 0.0
-0.0525856 0.048388 0.0
-0.0494384 0.0422466 0.0
-0.0461951 0.0364676 0.0
-0.0428553 0.0310562 0.0
-0.0394149 0.0260177 0.0
-0.0358663 0.0213591 0.0
-0.0321997 0.0170894 0.0
-0.0284037 0.0132215 0.0
-0.0244673 0.00977287 0.0
-0.0203802 0.00676789 0.0
-0.0161352 0.00424001 0.0
-0.0117286 0.00222671 0.0
-0.0071608 0.000783944 0.0
-0.00243614 0.000107287 0.0
0.865925 0.00233984 0.0
0.619424 0.0174787 0.0
0.419795 0.0451624 0.0
0.269456 0.075297 0.0
0.16113 0.104305 0.0
0.0852133 0.130144 0.0
0.0329371 0.151956 0.0
-0.00267883 0.169635 0.0
-0.0266656 0.183275 0.0
-0.0428196 0.193267 0.0
-0.0538674 0.200117 0.0
-0.0616318 0.204267 0.0
-0.0673012 0.206102 0.0
-0.0716312 0.205957 0.0
-0.0750865 0.204115 0.0
-0.0779395 0.200822 0.0
-0.0803379 0.196292 0.0
-0.0823516 0.190717 0.0
-0.0840037 0.184265 0.0
-0.0852925 0.177093 0.0
-0.0862052 0.169342 0.0
-0.0867274 0.161144 0.0
-0.0868484 0.152618 0.0
-0.0865648 0.143874 0.0
-0.0858813 0.135012 0.0
-0.0848109 0.126119 0.0
-0.0833739 0.117275 0.0
-0.0815969 0.108546 0.0
-0.0795103 0.0999918 0.0
-0.0771471 0.091659 0.0
-0.0745408 0.0835872 0.0
-0.071724 0.0758071 0.0
-0.0687265 0.0683423 0.0
-0.0655746 0.06121 0.0
-0.0622898 0.0544223 0.0
-0.0588885 0.0479873 0.0
-0.0553814 0.0419103 0.0
-0.0517739 0.0361947 0.0
-0.0480657 0.0308435 0.0
-0.0442515 0.02586 0.0
-0.0403218 0.0212493 0.0
-0.0362635 0.0170193 0.0
-0.0320607 0.013182 0.0
-0.0276962 0.00975502 0.0
-0.023152 0.00676319 0.0
-0.0184107 0.00424144 0.0
-0.0134559 0.00222931 0.0
-0.0082722 0.000785203 0.0
-0.00284462 0.000107428 0.0
0.874399 0.00198275 0.0
0.640517 0.015295 0.0
0.447103 0.0401888 0.0
0.298008 0.0679679 0.0
0.187926 0.0953253 0.0
0.108763 0.120232 0.0
0.0526924 0.141723 0.0
0.0132561 0.159538 0.0
-0.0144599 0.173748 0.0
-0.0339393 0.18449 0.0
-0.0478898 0.192176 0.0
-0.0581709 0.197181 0.0
-0.0660167 0.199845 0.0
-0.0722267 0.200469 0.0
-0.0773032 0.199318 0.0
-0.0815497 0.196629 0.0
-0.0851385 0.192615 0.0
-0.0881593 0.187467 0.0
-0.090651 0.181364 0.0
-0.0926254 0.174469 0.0
-0.0940815 0.166936 0.0
-0.0950159 0.158904 0.0
-0.0954289 0.150507 0.0
-0.0953277 0.141862 0.0
-0.094728 0.133079 0.0
-0.0936541 0.124254 0.0
-0.0921373 0.115473 0.0
-0.0902151 0.106809 0.0
-0.0879285 0.0983237 0.0
-0.0853206 0.0900675 0.0
-0.0824342 0.0820812 0.0
-0.0793099 0.0743961 0.0
-0.0759848 0.067035 0.0
-0.0724912 0.060014 0.0
-0.0688555 0.0533435 0.0
-0.0650978 0.0470292 0.0
-0.0612311 0.041074 0.0
-0.0572619 0.0354786 0.0
-0.0531901 0.0302434 0.0
-0.0490091 0.0253695 0.0
-0.0447069 0.0208597 0.0
-0.0402668 0.0167201 0.0
-0.0356678 0.0129616 0.0
-0.0308859 0.00960081 0.0
-0.0258947 0.00666255 0.0
-0.0206661 0.00418209 0.0
-0.0151704 0.00219987 0.0
-0.00937665 0.00077531 0.0
-0.00325068 0.000106127 0.0
0.881845 0.0017116 0.0
0.659386 0.0135297 0.0
0.472042 0.0360444 0.0
0.324631 0.0617089 0.0
0.213422 0.0874859 0.0
0.131616 0.111397 0.0
0.0722479 0.132415 0.0
0.0293564 0.150166 0.0
-0.00173286 0.164638 0.0
-0.0243909 0.1759 0.0
-0.0411771 0.184199 0.0
-0.0539643 0.189863 0.0
-0.0640154 0.193183 0.0
-0.0721598 0.194429 0.0
-0.0789272 0.193848 0.0
-0.084644 0.191663 0.0
-0.0895011 0.188084 0.0
-0.0936034 0.183302 0.0
-0.0970028 0.177501 0.0
-0.0997221 0.170851 0.0
-0.101771 0.163513 0.0
-0.103157 0.155638 0.0
-0.103892 0.147368 0.0
-0.103994 0.13883 0.0
-0.10349 0.130143 0.0
-0.102417 0.121409 0.0
-0.10082 0.112721 0.0
-0.0987472 0.104155 0.0
-0.0962525 0.0957776 0.0
-0.09339 0.087641 0.0
-0.0902127 0.0797865 0.0
-0.0867706 0.0722451 0.0
-0.0831088 0.0650389 0.0
-0.0792663 0.0581818 0.0
-0.0752747 0.051682 0.0
-0.0711581 0.0455425 0.0
-0.0669321 0.0397632 0.0
-0.0626044 0.0343419 0.0
-0.0581747 0.029276 0.0
-0.0536352 0.0245637 0.0
-0.0489711 0.0202052 0.0
-0.0441615 0.0162045 0.0
-0.0391799 0.0125705 0.0
-0.033995 0.00931839 0.0
-0.0285716 0.00647206 0.0
-0.0228704 0.0040661 0.0
-0.0168484 0.00214074 0.0
-0.0104588 0.000755158 0.0
-0.00364888 0.000103524 0.0
0.888454 0.00149848 0.0
0.676382 0.0120745 0.0
0.494906 0.0325419 0.0
0.34948 0.0563043 0.0
0.237636 0.0805824 0.0
0.153693 0.103469 0.0
0.0914628 0.123906 0.0
0.045464 0.141438 0.0
0.011291 0.155958 0.0
-0.0143837 0.167535 0.0
-0.0339242 0.176256 0.0
-0.0491878 0.182402 0.0
-0.0614513 0.18622 0.0
-0.071563 0.187949 0.0
-0.0800703 0.187816 0.0
-0.0873148 0.186034 0.0
-0.0935007 0.182805 0.0
-0.0987431 0.17832 0.0
-0.103104 0.172766 0.0
-0.106615 0.16632 0.0
-0.109295 0.15915 0.0
-0.111162 0.151415 0.0
-0.112238 0.143265 0.0
-0.112554 0.134837 0.0
-0.11215 0.126256 0.0
-0.111077 0.117632 0.0
-0.109392 0.109061 0.0
-0.107159 0.100625 0.0
-0.104443 0.092392 0.0
-0.101312 0.0844154 0.0
-0.0978304 0.0767367 0.0
-0.0940578 0.069386 0.0
-0.0900483 0.0623835 0.0
-0.0858482 0.0557408 0.0
-0.0814949 0.0494632 0.0
-0.0770166 0.0435505 0.0
-0.0724317 0.0379992 0.0
-0.0677491 0.0328038 0.0
-0.0629683 0.0279581 0.0
-0.0580798 0.0234573 0.0
-0.053066 0.0192985 0.0
-0.0479014 0.0154831 0.0
-0.0425537 0.0120173 0.0
-0.0369841 0.00891453 0.0
-0.0311479 0.00619664 0.0
-0.0249945 0.00389668 0.0
-0.0184675 0.00205367 0.0
-0.0115043 0.000725382 0.0
-0.00403414 9.97046e-05 0.0
0.89437 0.00132542 0.0
0.691781 0.0108515 0.0
0.515937 0.0295373 0.0
0.372697 0.0515799 0.0
0.260605 0.0744404 0.0
0.174942 0.096296 0.0
0.110221 0.116076 0.0
0.0614123 0.13327 0.0
0.0243716 0.147698 0.0
-0.00410994 0.159386 0.0
-0.0263085 0.168366 0.0
-0.0440025 0.17483 0.0
-0.0584691 0.178998 0.0
-0.0705638 0.181079 0.0
-0.0808431 0.181277 0.0
-0.0896568 0.179795 0.0
-0.097216 0.176829 0.0
-0.103643 0.172569 0.0
-0.109004 0.167205 0.0
-0.11334 0.160917 0.0
-0.116678 0.153882 0.0
-0.119043 0.146266 0.0
-0.120471 0.138227 0.0
-0.121004 0.129909 0.0
-0.120696 0.121443 0.0
-0.119613 0.112946 0.0