# vtk DataFile Version 3.0
Malha 2D com triângulos: velocidade e pressão
ASCII
DATASET UNSTRUCTURED_GRID

POINTS 7043 double
0 0 0
1 0 0
1 1 0
0 1 0
0.012987 0 0
0.025974 0 0
0.038961 0 0
0.0519481 0 0
0.0649351 0 0
0.0779221 0 0
0.0909091 0 0
0.103896 0 0
0.116883 0 0
0.12987 0 0
0.142857 0 0
0.155844 0 0
0.168831 0 0
0.181818 0 0
0.194805 0 0
0.207792 0 0
0.220779 0 0
0.233766 0 0
0.246753 0 0
0.25974 0 0
0.272727 0 0
0.285714 0 0
0.298701 0 0
0.311688 0 0
0.324675 0 0
0.337662 0 0
0.350649 0 0
0.363636 0 0
0.376623 0 0
0.38961 0 0
0.402597 0 0
0.415584 0 0
0.428571 0 0
0.441558 0 0
0.454545 0 0
0.467532 0 0
0.480519 0 0
0.493506 0 0
0.506494 0 0
0.519481 0 0
0.532468 0 0
0.545455 0 0
0.558442 0 0
0.571429 0 0
0.584416 0 0
0.597403 0 0
0.61039 0 0
0.623377 0 0
0.636364 0 0
0.649351 0 0
0.662338 0 0
0.675325 0 0
0.688312 0 0
0.701299 0 0
0.714286 0 0
0.727273 0 0
0.74026 0 0
0.753247 0 0
0.766234 0 0
0.779221 0 0
0.792208 0 0
0.805195 0 0
0.818182 0 0
0.831169 0 0
0.844156 0 0
0.857143 0 0
0.87013 0 0
0.883117 0 0
0.896104 0 0
0.909091 0 0
0.922078 0 0
0.935065 0 0
0.948052 0 0
0.961039 0 0
0.974026 0 0
0.987013 0 0
1 0.012987 0
1 0.025974 0
1 0.038961 0
1 0.0519481 0
1 0.0649351 0
1 0.0779221 0
1 0.0909091 0
1 0.103896 0
1 0.116883 0
1 0.12987 0
1 0.142857 0
1 0.155844 0
1 0.168831 0
1 0.181818 0
1 0.194805 0
1 0.207792 0
1 0.220779 0
1 0.233766 0
1 0.246753 0
1 0.25974 0
1 0.272727 0
1 0.285714 0
1 0.298701 0
1 0.311688 0
1 0.324675 0
1 0.337662 0
1 0.350649 0
1 0.363636 0
1 0.376623 0
1 0.38961 0
1 0.402597 0
1 0.415584 0
1 0.428571 0
1 0.441558 0
1 0.454545 0
1 0.467532 0
1 0.480519 0
1 0.493506 0
1 0.506494 0
1 0.519481 0
1 0.532468 0
1 0.545455 0
1 0.558442 0
1 0.571429 0
1 0.584416 0
1 0.597403 0
1 0.61039 0
1 0.623377 0
1 0.636364 0
1 0.649351 0
1 0.662338 0
1 0.675325 0
1 0.688312 0
1 0.701299 0
1 0.714286 0
1 0.727273 0
1 0.74026 0
1 0.753247 0
1 0.766234 0
1 0.779221 0
1 0.792208 0
1 0.805195 0
1 0.818182 0
1 0.831169 0
1 0.844156 0
1 0.857143 0
1 0.87013 0
1 0.883117 0
1 0.896104 0
1 0.909091 0
1 0.922078 0
1 0.935065 0
1 0.948052 0
1 0.961039 0
1 0.974026 0
1 0.987013 0
0.987013 1 0
0.974026 1 0
0.961039 1 0
0.948052 1 0
0.935065 1 0
0.922078 1 0
0.909091 1 0
0.896104 1 0
0.883117 1 0
0.87013 1 0
0.857143 1 0
0.844156 1 0
0.831169 1 0
0.818182 1 0
0.805195 1 0
0.792208 1 0
0.779221 1 0
0.766234 1 0
0.753247 1 0
0.74026 1 0
0.727273 1 0
0.714286 1 0
0.701299 1 0
0.688312 1 0
0.675325 1 0
0.662338 1 0
0.649351 1 0
0.636364 1 0
0.623377 1 0
0.61039 1 0
0.597403 1 0
0.584416 1 0
0.571429 1 0
0.558442 1 0
0.545455 1 0
0.532468 1 0
0.519481 1 0
0.506494 1 0
0.493506 1 0
0.480519 1 0
0.467532 1 0
0.454545 1 0
0.441558 1 0
0.428571 1 0
0.415584 1 0
0.402597 1 0
0.38961 1 0
0.376623 1 0
0.363636 1 0
0.350649 1 0
0.337662 1 0
0.324675 1 0
0.311688 1 0
0.298701 1 0
0.285714 1 0
0.272727 1 0
0.25974 1 0
0.246753 1 0
0.233766 1 0
0.220779 1 0
0.207792 1 0
0.194805 1 0
0.181818 1 0
0.168831 1 0
0.155844 1 0
0.142857 1 0
0.12987 1 0
0.116883 1 0
0.103896 1 0
0.0909091 1 0
0.0779221 1 0
0.0649351 1 0
0.0519481 1 0
0.038961 1 0
0.025974 1 0
0.012987 1 0
0 0.987013 0
0 0.974026 0
0 0.961039 0
0 0.948052 0
0 0.935065 0
0 0.922078 0
0 0.909091 0
0 0.896104 0
0 0.883117 0
0 0.87013 0
0 0.857143 0
0 0.844156 0
0 0.831169 0
0 0.818182 0
0 0.805195 0
0 0.792208 0
0 0.779221 0
0 0.766234 0
0 0.753247 0
0 0.74026 0
0 0.727273 0
0 0.714286 0
0 0.701299 0
0 0.688312 0
0 0.675325 0
0 0.662338 0
0 0.649351 0
0 0.636364 0
0 0.623377 0
0 0.61039 0
0 0.597403 0
0 0.584416 0
0 0.571429 0
0 0.558442 0
0 0.545455 0
0 0.532468 0
0 0.519481 0
0 0.506494 0
0 0.493506 0
0 0.480519 0
0 0.467532 0
0 0.454545 0
0 0.441558 0
0 0.428571 0
0 0.415584 0
0 0.402597 0
0 0.38961 0
0 0.376623 0
0 0.363636 0
0 0.350649 0
0 0.337662 0
0 0.324675 0
0 0.311688 0
0 0.298701 0
0 0.285714 0
0 0.272727 0
0 0.25974 0
0 0.246753 0
0 0.233766 0
0 0.220779 0
0 0.207792 0
0 0.194805 0
0 0.181818 0
0 0.168831 0
0 0.155844 0
0 0.142857 0
0 0.12987 0
0 0.116883 0
0 0.103896 0
0 0.0909091 0
0 0.0779221 0
0 0.0649351 0
0 0.0519481 0
0 0.038961 0
0 0.025974 0
0 0.012987 0
0.5 0.0112471 0
0.5 0.988753 0
0.011333 0.500562 0
0.988753 0.5 0
0.988979 0.603504 0
0.396104 0.988753 0
0.0121836 0.394831 0
0.603896 0.0112471 0
0.603896 0.988753 0
0.0116739 0.603042 0
0.396104 0.0112471 0
0.988421 0.396683 0
0.988373 0.693773 0
0.305195 0.988753 0
0.0123719 0.303973 0
0.694252 0.0106818 0
0.0116269 0.693773 0
0.694805 0.988753 0
0.305195 0.0112471 0
0.989005 0.305195 0
0.227273 0.988753 0
0.987623 0.773874 0
0.0113474 0.227405 0
0.771343 0.0124127 0
0.772727 0.988753 0
0.0119922 0.773961 0
0.228657 0.0124127 0
0.988653 0.227405 0
0.162338 0.988753 0
0.0109769 0.162338 0
0.837662 0.0112471 0
0.98757 0.839616 0
0.163722 0.0124127 0
0.990344 0.162521 0
0.837662 0.988753 0
0.0112471 0.837662 0
0.0104673 0.551291 0
0.551948 0.988753 0
0.98761 0.551007 0
0.448052 0.988753 0
0.445887 0.0109169 0
0.988291 0.44668 0
0.55335 0.0126338 0
0.0106911 0.447612 0
0.0116497 0.109194 0
0.11039 0.988753 0
0.889057 0.0106818 0
0.987617 0.888567 0
0.110922 0.0109397 0
0.98835 0.109194 0
0.0123835 0.888567 0
0.88961 0.988753 0
0.00970827 0.0717069 0
0.928571 0.0110011 0
0.655844 0.0112471 0
0.733766 0.0112471 0
0.0121599 0.345786 0
0.0115599 0.265644 0
0.0714286 0.988753 0
0.0123432 0.732061 0
0.987851 0.930255 0
0.988554 0.655777 0
0.987657 0.732061 0
0.344156 0.988753 0
0.733766 0.988753 0
0.0114463 0.655777 0
0.266234 0.988753 0
0.988495 0.266078 0
0.266234 0.0112471 0
0.357143 0.0112471 0
0.642857 0.988753 0
0.988423 0.343598 0
0.928571 0.988753 0
0.0714286 0.0112471 0
0.0123377 0.930378 0
0.990317 0.0716003 0
0.0112471 0.525974 0
0.524572 0.0126338 0
0.0112471 0.474026 0
0.525974 0.988753 0
0.987604 0.52684 0
0.474026 0.988753 0
0.988048 0.812214 0
0.988331 0.474822 0
0.474026 0.0112471 0
0.00886814 0.201604 0
0.798148 0.0106818 0
0.201299 0.988753 0
0.0114337 0.7981 0
0.577922 0.0112471 0
0.0104917 0.422068 0
0.628468 0.0126338 0
0.0114884 0.37014 0
0.0109165 0.579156 0
0.988324 0.137239 0
0.136364 0.0112471 0
0.991161 0.201653 0
0.863636 0.988753 0
0.0117062 0.631183 0
0.798701 0.988753 0
0.577922 0.988753 0
0.201852 0.0106818 0
0.668831 0.988753 0
0.0124027 0.864399 0
0.986881 0.370143 0
0.988294 0.631183 0
0.37013 0.988753 0
0.988753 0.577922 0
0.422078 0.988753 0
0.988753 0.0454545 0
0.98846 0.954665 0
0.0454545 0.988753 0
0.331169 0.0112471 0
0.422078 0.0112471 0
0.988966 0.421883 0
0.0454545 0.0112471 0
0.954545 0.0112471 0
0.0116978 0.0466282 0
0.862252 0.0124127 0
0.0116757 0.137239 0
0.954545 0.988753 0
0.988184 0.864143 0
0.0124608 0.954559 0
0.136364 0.988753 0
0.988238 0.979327 0
0.0195356 0.989003 0
0.0105718 0.0191396 0
0.979426 0.0124239 0
0.149351 0.988753 0
0.155844 0.977506 0
0.168831 0.977506 0
0.162338 0.966259 0
0.149351 0.966259 0
0.155844 0.955012 0
0.142857 0.955012 0
0.149351 0.943765 0
0.162338 0.943765 0
0.155844 0.932518 0
0.168831 0.932518 0
0.162338 0.92127 0
0.175325 0.92127 0
0.168831 0.910023 0
0.181818 0.910023 0
0.175325 0.898776 0
0.188312 0.898776 0
0.181818 0.887529 0
0.194805 0.887529 0
0.188312 0.876282 0
0.201299 0.876282 0
0.194805 0.865035 0
0.207792 0.865035 0
0.201299 0.853788 0
0.214286 0.853788 0
0.207792 0.842541 0
0.220779 0.842541 0
0.214286 0.831294 0
0.227273 0.831294 0
0.220779 0.820047 0
0.233766 0.820047 0
0.227273 0.8088 0
0.24026 0.8088 0
0.233766 0.797553 0
0.246753 0.797553 0
0.24026 0.786305 0
0.253247 0.786305 0
0.246753 0.775058 0
0.25974 0.775058 0
0.253247 0.763811 0
0.266234 0.763811 0
0.25974 0.752564 0
0.272727 0.752564 0
0.266234 0.741317 0
0.279221 0.741317 0
0.272727 0.73007 0
0.285714 0.73007 0
0.279221 0.718823 0
0.292208 0.718823 0
0.285714 0.707576 0
0.298701 0.707576 0
0.292208 0.696329 0
0.305195 0.696329 0
0.298701 0.685082 0
0.311688 0.685082 0
0.305195 0.673835 0
0.318182 0.673835 0
0.311688 0.662588 0
0.324675 0.662588 0
0.318182 0.65134 0
0.331169 0.65134 0
0.324675 0.640093 0
0.337662 0.640093 0
0.331169 0.628846 0
0.344156 0.628846 0
0.337662 0.617599 0
0.350649 0.617599 0
0.344156 0.606352 0
0.357143 0.606352 0
0.350649 0.595105 0
0.363636 0.595105 0
0.357143 0.583858 0
0.37013 0.583858 0
0.363636 0.572611 0
0.376623 0.572611 0
0.37013 0.561364 0
0.383117 0.561364 0
0.38961 0.572611 0
0.396104 0.561364 0
0.402597 0.572611 0
0.409091 0.561364 0
0.415584 0.572611 0
0.422078 0.561364 0
0.428571 0.572611 0
0.435065 0.561364 0
0.441558 0.572611 0
0.448052 0.561364 0
0.454545 0.572611 0
0.461039 0.561364 0
0.467532 0.572611 0
0.474026 0.561364 0
0.480519 0.572611 0
0.376623 0.550117 0
0.467532 0.550117 0
0.480519 0.550117 0
0.474026 0.53887 0
0.487013 0.53887 0
0.480519 0.527623 0
0.493506 0.527623 0
0.487013 0.516375 0
0.5 0.516375 0
0.493506 0.505128 0
0.506494 0.505128 0
0.5 0.493881 0
0.512987 0.493881 0
0.519481 0.505128 0
0.525974 0.493881 0
0.532468 0.505128 0
0.538961 0.493881 0
0.545455 0.505128 0
0.532468 0.482634 0
0.545455 0.482634 0
0.538961 0.471387 0
0.551948 0.471387 0
0.545455 0.46014 0
0.558442 0.46014 0
0.551948 0.448893 0
0.564935 0.448893 0
0.558442 0.437646 0
0.571429 0.437646 0
0.564935 0.426399 0
0.577922 0.426399 0
0.584416 0.437646 0
0.590909 0.426399 0
0.597403 0.437646 0
0.603896 0.426399 0
0.61039 0.437646 0
0.584416 0.415152 0
0.324675 0.685082 0
0.616883 0.426399 0
0.623377 0.437646 0
0.62987 0.426399 0
0.363636 0.550117 0
0.636364 0.437646 0
0.642857 0.426399 0
0.649351 0.437646 0
0.655844 0.426399 0
0.649351 0.415152 0
0.662338 0.415152 0
0.655844 0.403905 0
0.662338 0.437646 0
0.37013 0.53887 0
0.357143 0.53887 0
0.363636 0.527623 0
0.350649 0.527623 0
0.357143 0.516375 0
0.344156 0.516375 0
0.350649 0.505128 0
0.337662 0.505128 0
0.344156 0.493881 0
0.668831 0.403905 0
0.662338 0.392658 0
0.331169 0.493881 0
0.337662 0.482634 0
0.675325 0.392658 0
0.668831 0.38141 0
0.324675 0.482634 0
0.331169 0.471387 0
0.318182 0.471387 0
0.324675 0.46014 0
0.681818 0.38141 0
0.675325 0.370163 0
0.292208 0.741317 0
0.688312 0.370163 0
0.681818 0.358916 0
0.311688 0.46014 0
0.318182 0.448893 0
[...]
CELL_DATA 13776
VECTORS velocity double
-0.00110769 -0.020365 0
-0.000633608 0.00486163 0
-0.000323853 -0.00155216 0
-0.000860517 0.039837 0
-0.00399025 -0.0769261 0
-0.0119097 -0.257088 0
-0.000158776 0.000529294 0
-2.9272e-05 0.000280748 0
-0.00218134 -0.0254717 0
-0.000412039 0.00372038 0
-0.0113531 -0.110489 0
-0.0679186 0.319938 0
-2.4973e-05 -6.16446e-05 0
-0.000191073 -0.00113422 0
-0.000647646 0.0464488 0
-0.00454656 -0.0886525 0
-0.000967765 -0.0138776 0
-0.000455291 0.0431649 0
-0.00380468 -0.0994677 0
-0.000647088 -0.00964927 0
-0.000291074 0.000831813 0
-7.24504e-05 0.000239743 0
-0.0385888 0.221438 0
-0.0791046 0.322908 0
-0.000297185 0.00174161 0
-0.00011654 -0.000130582 0
-0.000441914 0.0370398 0
-0.00168487 -0.0276852 0
-0.00833156 -0.195553 0
-0.00149129 0.0562434 0
-0.00796438 -0.147559 0
-1.4765e-05 -6.39356e-05 0
-0.0041777 0.0767315 0
-0.00132664 0.0051332 0
-0.00148227 0.0517103 0
-0.00768656 -0.121895 0
-0.00167989 -0.0326035 0
-0.000578505 -0.00477249 0
-0.00276501 -0.0508373 0
-0.000500024 0.00781603 0
-0.000313646 -0.00357289 0
-0.0107779 -0.194567 0
-0.0147454 0.140719 0
-0.0170295 -0.304021 0
-0.0012544 0.050417 0
-0.00593284 -0.140561 0
-0.000647192 0.0129098 0
-0.000605063 -0.00746579 0
-0.00117145 0.0221909 0
-0.00112883 -0.0158747 0
-0.000892757 0.0178929 0
-0.00121765 -0.0121526 0
-0.000514527 0.00618641 0
-0.000293559 -0.00248788 0
-0.0065796 0.000452999 0
-0.00505067 0.000185445 0
-0.00752046 0.000478776 0
-0.00573616 0.000178674 0
0.000253557 0.000145343 0
0.00027455 0.000109355 0
-0.00328946 0.000451827 0
-0.00237958 0.000170355 0
-0.00917978 8.16694e-05 0
-0.0116613 0.00037728 0
-0.00145375 -0.000310071 0
-0.00122776 -0.000194397 0
-0.0132441 0.000188531 0
-0.0103294 0.000184581 0
-0.0128243 -0.00120508 0
-0.0115647 -0.000993071 0
-0.00430364 -0.000406051 0
-0.00361741 -0.000317034 0
-0.0143971 -0.000926831 0
-0.0130956 -0.000867069 0
-0.0108615 -0.000108145 0
-0.0134012 0.000120606 0
-0.00495813 -0.000276423 0
-0.00605919 -0.000471773 0
-0.00415399 -0.0327455 0
-0.035391 -0.394727 0
-0.000575381 0.0405156 0
-0.00394892 -0.0864414 0
-0.0235426 -0.407562 0
-0.00204032 0.064328 0
-0.0286891 0.184185 0
-0.00412943 -0.0346052 0
-0.00806388 0.0969914 0
-0.000393845 0.00189308 0
-0.000145596 -0.000135581 0
-0.00113364 0.0440781 0
-0.00136576 0.00570377 0
-0.00258055 0.0388698 0
-0.000979996 0.013072 0
0.000133533 0.0403408 0
-0.00169248 -0.105123 0
-0.00202416 -0.0318847 0
-0.00489846 0.087859 0
5.94228e-05 -2.7058e-05 0
-0.00093426 0.00982313 0
-0.00122883 0.0335198 0
7.44933e-05 -3.40876e-05 0
-0.00850621 -0.188983 0
-0.00134334 0.0400774 0
-0.0112973 -0.115159 0
-0.0102055 -0.22345 0
-0.0138278 0.127263 0
-0.0196905 -0.309749 0
-0.000710297 0.0344404 0
-0.00647276 -0.0899729 0
-0.000186095 0.0157226 0
-0.0302699 -0.323273 0
-0.00793206 0.0931805 0
-0.00373897 -0.0523783 0
-0.00273073 0.0412204 0
-0.000808873 -0.00853787 0
-0.000684423 0.00700032 0
-0.000388878 -0.00285438 0
-0.0031931 -0.0403924 0
-0.00284887 -0.0469403 0
-0.0158461 0.108064 0
-0.000857749 -0.000296003 0
-0.000513372 -0.000133703 0
-0.00423409 -0.00104433 0
-0.00391266 -0.00018818 0
-0.00527265 -0.000611325 0
0.000312055 7.90358e-05 0
0.000323727 7.73335e-05 0
-0.000160491 -0.000317942 0
-0.0119866 -0.00133208 0
-0.0136449 -0.00082301 0
-0.0158073 -0.00122742 0
-0.00858444 -1.27827e-05 0
-0.0120841 -0.000470506 0
-0.0111619 -0.000460716 0
-0.00941397 3.1909e-05 0
-0.0131382 -0.000159805 0
-0.0102673 0.000207628 0
-0.0132135 -0.000211588 0
-0.0104097 0.000247376 0
-0.010075 0.000123273 0
-0.00644676 0.000873294 0
-0.00438602 0.000313207 0
-0.00724299 0.000983104 0
-0.000150818 0.000101375 0
-0.000120106 7.065e-05 0
5.891e-05 1.36406e-05 0
6.57653e-05 1.33809e-05 0
-0.00694825 0.000265108 0
-0.005518 0.000354362 0
-0.00686482 0.000356555 0
-0.00860771 0.00022121 0
-0.0028969 0.000665666 0
-0.00961212 0.0002107 0
-0.00767263 0.000366851 0
-0.00215004 0.000255506 0
-0.0118508 3.85655e-05 0
-0.00936158 0.000335172 0
-0.00836104 0.000395186 0
-0.010563 0.00016463 0
-0.00977133 0.000345625 0
-0.0124067 -1.95876e-06 0
-0.00034077 -0.000321583 0
-0.000392868 -0.000380977 0
-0.000370939 -0.00013907 0
-0.00112978 -0.000303852 0
-0.000921183 -0.000203864 0
0.000332136 1.36725e-05 0
0.00032179 3.00788e-05 0
0.000252755 -2.6127e-05 0
8.47205e-05 -1.34175e-05 0
8.29123e-05 -4.84243e-06 0
-0.0049026 -0.00103479 0
-0.00440483 -0.000887206 0
3.15028e-05 3.42937e-05 0
-0.0045119 0.000229652 0
-4.12593e-05 8.49544e-05 0
-0.00585094 0.000477194 0
-0.0031751 -0.000343336 0
-0.00658306 0.00106271 0
-0.0035888 0.00136211 0
-0.00824132 0.000449246 0
-0.000218993 8.26615e-05 0
-0.00159028 0.000622533 0
-0.00631549 0.000158802 0
-0.000416554 0.000189369 0
-0.0122152 -0.00088423 0
-0.00710706 6.15475e-05 0
-0.0137155 -0.00112282 0
-0.00923175 0.000527965 0
-0.00571508 -0.000524872 0
-0.00459164 -0.000394236 0
-0.0122386 -9.74167e-05 0
-0.00964259 -0.000332924 0
-0.00790294 2.24615e-05 0
-0.0102266 0.000506825 0
-0.00859964 0.000127213 0
-0.0111222 0.000448122 0
-0.0126366 0.00031935 0
-0.00993526 1.50717e-06 0
-0.0095041 -7.85445e-05 0
-0.0121924 0.000412214 0
-0.00865373 -0.000402332 0
-0.0092291 -0.000344216 0
-0.0115913 -0.00010715 0
-0.010554 -0.00028484 0
-0.01043 -0.000184879 0
-0.013244 0.000240504 0
-0.00323806 -0.0582993 0
-0.00056372 0.0282799 0
-0.00953317 0.109883 0
-0.0151479 -0.281852 0
-0.00538997 0.000271736 0
-0.00268595 0.00031618 0
-0.000468429 -0.00019546 0
0.000279495 -3.63975e-05 0
-0.00288576 0.00106335 0
-0.00117165 0.00041347 0
-0.00389955 -0.0004365 0
-0.00334083 -0.000678006 0
-0.0100038 -0.000712136 0
1.31543e-05 -0.0002032 0
-0.0128167 -0.000381682 0
-0.00326643 0.00077053 0
-0.00536667 0.000667329 0
-0.0109596 -0.000188859 0
-0.0133119 0.000139082 0
-0.0189672 0.152422 0
-0.0219285 -0.337843 0
-0.00375599 0.0781847 0
-0.000727513 0.0130774 0
-0.0605704 -0.403271 0
-0.00664837 0.0888928 0
-0.00243022 0.0603229 0
-0.00996702 -0.169466 0
-0.00141056 0.0474413 0
-0.00725663 -0.104506 0
-0.000803812 0.0115341 0
-0.000859995 0.0146871 0
-0.000676354 0.0267939 0
-0.0165213 0.111933 0
-0.00441414 -0.09749 0
-0.000258997 0.0479167 0
-0.00440399 -0.0999087 0
-0.00128446 0.0238025 0
-0.0041722 0.0867209 0
-0.00281528 -0.0523742 0
-0.000807613 0.00606071 0
-0.000443851 -0.00224684 0
-0.0579815 -0.437119 0
-0.00919863 0.0679947 0
-9.13022e-05 -0.00126794 0
-0.000156801 0.00330025 0
-0.0011455 -0.0443485 0
-0.000192826 0.0200051 0
-0.000870013 0.00773928 0
-0.000506161 -0.00325925 0
-0.000267541 0.0091671 0
-0.000816844 0.00394744 0
-0.00111236 0.015794 0
-0.00108667 -0.00956104 0
-0.0153986 -0.272094 0
-0.000749283 0.0302567 0
-0.000913448 0.0199366 0
-0.007981 0.0650307 0
-0.00323681 0.0678766 0
-0.00955515 0.0923223 0
-0.0013228 0.0580684 0
-0.0073365 -0.159794 0
-0.00109575 -0.00702491 0
-0.0487938 -0.433201 0
-0.000658534 0.00870617 0
-0.000406889 -0.00394567 0
-0.00101557 0.0191386 0
-0.0082162 0.0967199 0
-0.0241767 0.17109 0
-0.00736783 -0.141607 0
-0.000882745 0.0542882 0
-0.00649944 -0.136249 0
-0.00211603 -0.02961 0
-0.0104098 0.0980768 0
-0.0575954 0.273862 0
-0.00128545 0.0477844 0
-0.00639879 -0.0859492 0
-0.0258327 -0.354466 0
-0.00516734 0.0891671 0
-0.00487111 -0.0618366 0
-0.0103021 -0.253329 0
-0.000371909 0.00132119 0
-0.00011907 9.87472e-05 0
-0.00548795 0.0846141 0
-0.000253836 0.0493757 0
-0.00457369 -0.112554 0
-0.0247676 0.283304 0
-0.00461639 0.0913767 0
-0.00533978 -0.228528 0
-0.000202783 0.000503527 0
-2.53488e-05 0.000314771 0
-0.0702546 0.293739 0
-0.00206267 -0.036988 0
-0.000295509 -0.00124059 0
-0.00340848 0.0701625 0
2.20763e-05 -7.55532e-05 0
-0.000664452 0.0550001 0
-0.00623364 -0.135246 0
-0.000270336 0.00418194 0
-0.000154157 -0.00140804 0
-0.00216579 0.0467794 0
5.76225e-05 6.15581e-05 0
0.0417798 -0.329123 0
-0.000893232 -0.036183 0
-0.00146967 -0.0149551 0
-0.00120957 -0.0142717 0
-0.0024296 -0.026043 0
-0.0124977 -0.229174 0
3.92561e-05 -7.11415e-05 0
-0.00210953 -0.0340987 0
-0.0015318 0.0311972 0
-0.0012833 0.0362034 0
-0.000254553 -0.00258517 0
-0.000441611 0.00625158 0
-0.0033032 -0.0832479 0
-0.000419001 0.03697 0
-0.000420029 0.00151334 0
-0.000142815 2.76709e-05 0
-0.00285189 -0.0338562 0
-0.000672452 0.0473588 0
-0.00174087 0.0245406 0
-0.00185598 0.0254353 0
-0.00267162 -0.0307534 0
-0.00129672 0.031357 0
-0.0121348 -0.215273 0
-0.00695777 0.0843859 0
-0.000847864 0.0112527 0
-0.000486202 0.00231918 0
-0.000196484 -0.000339469 0
-0.000582046 0.0419996 0
-0.00865386 0.0789312 0
-0.00104492 0.0242727 0
-0.000989936 0.0310462 0
-0.000854636 -0.0215839 0
-0.00864183 0.106471 0
-0.0332894 0.207757 0
-0.000871958 0.0064911 0
-0.000493004 -0.00249292 0
-0.0278597 -0.456566 0
-0.00272894 -0.0459483 0
-0.0044728 -0.0559161 0
-0.00212767 0.0582407 0
-0.00991669 -0.15545 0
-0.000599112 0.00441502 0
-0.000860408 0.0176647 0
-0.000822813 -0.0108857 0
-0.0171637 0.137525 0
-0.0233681 -0.325717 0
-0.00168798 -0.0172276 0
-0.00423049 -0.0680872 0
-0.00113449 0.0371608 0
-0.0016537 0.0645815 0
-0.00754679 -0.18658 0
-6.79656e-05 9.80054e-07 0
-0.00214848 0.0322819 0
-0.00117859 0.0140153 0
-0.00142906 -0.0230917 0
-0.00147927 0.0470689 0
-0.00660658 -0.0935276 0
-0.000172664 0.000821197 0
-4.94902e-05 0.000191084 0
-0.00645461 0.0913459 0
-0.000552174 0.00852094 0
8.96332e-05 7.56941e-05 0
-0.00458336 -0.0823967 0
-0.051437 -0.486613 0
-0.0509903 -0.488064 0
-0.0604563 0.281252 0
-0.00141107 -0.0119955 0
-0.0415254 -0.46653 0
-0.0391907 -0.480937 0
-0.0159217 0.1037 0
-0.0558114 -0.468778 0
-0.0238937 -0.343268 0
-0.00899941 0.0785794 0
8.49909e-06 -8.4953e-05 0
-0.000140774 0.0418885 0
-0.00288974 -0.101463 0
-0.00520919 0.0837025 0
-0.00222879 0.0346608 0
2.97023e-05 0.000355369 0
-0.050436 -0.503467 0
-0.0565315 -0.394277 0
-0.000932186 -0.0117387 0
-0.00859416 -0.173493 0
-0.0458016 -0.47023 0
-0.0512744 -0.500783 0
-0.00337947 0.0424884 0
-0.000508816 -0.0103071 0
-0.0485919 -0.466801 0
-0.00376948 0.0452332 0
-0.00313384 -0.0292977 0
-0.00514501 0.0535173 0
-0.00548027 0.056303 0
-0.00413247 0.0506039 0
-0.00438276 0.0537671 0
-0.00335669 0.0484097 0
-0.00363434 0.0516876 0
-0.00515327 0.0613211 0
-0.00532909 0.064346 0
-0.00374057 0.0572456 0
-0.00408187 0.0605503 0
-0.005799 0.070372 0
-0.00619523 0.0737386 0
-0.00784436 0.0828554 0
-0.00505188 0.0677142 0
-0.00964274 0.0439327 0
0.0859402 0.203514 0
-0.00801536 0.0412521 0
-0.00508492 0.070427 0
-0.00905073 0.0882599 0
-0.0169713 0.258691 0
0.590165 0.027145 0
-0.024966 0.000502506 0
-0.0272037 0.000648501 0
-0.0383906 0.00136682 0
0.252684 -0.203063 0
-0.031832 0.000844278 0
0.254784 -0.199352 0
-0.0339035 0.00107614 0
-0.0396039 0.00204161 0
-0.010054 0.0501362 0
-0.00812592 0.0431532 0
0.476852 0.0473504 0
-0.0060929 0.0314864 0
0.335635 0.0876402 0
-0.00949233 0.0419246 0
0.13758 -0.294232 0
0.335005 -0.150804 0
-0.0438746 0.00250716 0
0.294084 -0.173149 0
-0.00163773 -0.0012034 0
-0.0496421 0.00354901 0
-0.00899745 -0.031378 0
-0.0208401 -0.0467472 0
-0.00943174 -0.0335086 0
0.511187 -0.0733497 0
-0.0197298 0.037487 0
-0.00763694 0.0357113 0
0.551456 -0.0599029 0
-0.0440576 0.227866 0
0.37522 -0.128894 0
-0.0521858 0.00356068 0
0.420738 -0.108586 0
-0.0227157 -0.0181843 0
0.461193 -0.0910336 0
-0.010542 0.144931 0
-0.00245038 0.0735558 0
-0.0106275 -0.0338535 0
0.394741 0.0716312 0
0.0220194 -0.143582 0
-0.0208098 -0.179498 0
0.628306 0.0213395 0
-0.0562371 0.00414385 0
0.211181 -0.233889 0
-0.0101283 -0.031672 0
-0.0485722 0.232979 0
-0.0177514 -0.100774 0
-0.0105065 0.14295 0
-0.045523 0.00297868 0
-0.0122644 0.150984 0
0.321873 -0.144318 0
-0.0268293 -0.0188636 0
0.704196 0.00605193 0
0.0765492 -0.126997 0
-0.0603335 0.00246164 0
-0.0575506 0.235822 0
-0.067159 0.001415 0
0.0620884 -0.140926 0
-0.00582535 0.111147 0
-0.0282618 0.151786 0
-0.00472255 -0.0231472 0
-0.00353845 0.0874118 0
-0.0533062 0.230532 0
0.277345 0.111848 0
-0.0644211 0.00281172 0
-0.0791923 0.0020011 0
-0.0122824 0.148896 0
-0.0769981 0.0026053 0
0.698155 -0.0235478 0
-0.0709271 0.134747 0
-0.0208744 -0.0425127 0
0.54183 0.0357896 0
-0.0242038 0.00543129 0
-0.0141633 0.156136 0
-0.0571907 0.00343168 0
0.176109 -0.259942 0
0.615818 0.0127958 0
0.343586 -0.124463 0
-0.0274152 0.0560341 0
-0.0279026 -0.0266787 0
0.638758 0.0103676 0
-0.0676089 0.135816 0
0.680852 0.0078829 0
-0.0257907 -0.0164679 0
0.0864949 0.141602 0
-0.0037925 0.0637307 0
0.0294179 0.169961 0
-0.0315861 -0.106222 0
-0.0112279 0.0966806 0
-0.0077628 0.0375258 0
0.00866514 -0.158341 0
-0.0226596 -0.115744 0
0.0817342 -0.354287 0
-0.0086382 -0.0507991 0
-0.00598296 0.0298777 0
-0.0234893 -0.000965645 0
-0.0260398 -0.104976 0
-0.020048 -0.100076 0
0.66414 0.0296275 0
-0.0078791 -0.163976 0
-0.0271077 -0.110268 0
0.665418 -0.029716 0
0.310179 -0.138128 0
-0.0709592 0.146443 0
-0.0887213 0.00354157 0
-0.0676486 0.139694 0
-0.214986 -0.150555 0
-0.0205032 -0.185635 0
-0.0329091 -0.111613 0
0.133149 -0.188998 0
-0.0422756 0.242915 0
-0.155692 -0.0787332 0
-0.219461 -0.146543 0
-0.20792 -0.081333 0
-0.00272364 0.00574875 0
-0.0124738 0.142562 0
-0.169268 -0.0920619 0
-0.0163665 0.158083 0
-0.0675452 0.147445 0
-0.0710152 0.142543 0
-0.0290487 -0.0264005 0
-0.0387752 0.239142 0
-0.0142341 0.153931 0
-0.0288806 -0.106006 0
-0.00172668 0.00341977 0
-0.0649385 0.00183015 0
-0.0300857 -0.111364 0
-0.0113796 0.00289004 0
-0.101034 -0.000241661 0
-0.102754 -0.00415635 0
0.0954729 -0.251955 0
0.521894 0.0191533 0
0.283146 0.0449711 0
-0.0971448 -0.000280838 0
-0.0219747 -0.193204 0
-0.216407 -0.168161 0
-0.155408 -0.082894 0
-0.113906 0.186053 0
0.305632 -0.135658 0
-0.00782154 -0.0307247 0
-0.0403084 0.00170316 0
-0.0673987 0.151315 0
-0.0804657 0.244918 0
0.478846 0.0492277 0
-0.0596425 0.00328679 0
-0.0260112 -0.0193324 0
0.414942 0.0631172 0
-0.220753 -0.0447809 0
-0.0208689 -0.105111 0
0.500975 0.0225166 0
-0.0240286 -0.108231 0
-0.124236 0.000488634 0
-0.0253295 -0.00122592 0
0.26486 0.0714141 0
-0.0587545 0.00407364 0
0.257359 0.0708103 0
0.249295 0.0766783 0
-0.140804 -0.0812171 0
-0.0268577 -0.00418028 0
0.0672341 0.0919921 0
-0.102023 0.198507 0
-0.0235438 -0.0178374 0
-0.0712119 0.00159593 0
-0.089942 0.205875 0
-0.066691 0.261804 0
-0.0284553 -0.0238432 0
-0.126584 0.172014 0
-0.217718 -0.0448559 0
-0.024251 -0.0200883 0
-0.0275626 -0.00478438 0
-0.169517 -0.0874005 0
-0.00450731 0.100347 0
0.235044 0.0672934 0
-0.0671162 0.124232 0
0.272782 0.0656219 0
0.256338 0.0770179 0
-0.0837769 0.124837 0
-0.0890898 0.203806 0
-0.0805609 0.126572 0
-0.0912412 0.000710418 0
-0.122076 0.174416 0
-0.189708 -0.173271 0
-0.0440014 0.246938 0
0.287776 0.037786 0
-0.0251047 0.0453601 0
-0.0274171 -0.0241964 0
0.616721 -0.0393032 0
-0.0951357 0.000815273 0
0.59878 0.0221209 0
-0.0226343 0.0425914 0
-0.00187643 0.00399448 0
-0.191706 -0.16732 0
0.714479 0.0115218 0
0.0629698 0.155283 0
-0.00252756 0.00502249 0
-0.201018 -0.0950115 0
-0.0850071 0.19947 0
-0.11794 0.0178979 0
-0.196697 -0.0927629 0
-0.0707869 0.130855 0
-0.0947995 0.210182 0
-0.0831298 0.00222416 0
0.297738 0.0400669 0
-0.187934 -0.0933563 0
-0.0738093 0.125699 0
-0.0163331 0.0649632 0
0.348718 -0.12583 0
-0.00950317 -0.0216142 0
-0.02291 0.203077 0
-0.0750667 0.207392 0
-0.098093 0.207928 0
-0.0627404 0.167263 0
-0.148567 -0.178828 0
-0.117753 -0.0711206 0
-0.169403 -0.173645 0
-0.0198864 -0.0438558 0
-0.0473862 0.181144 0
0.0424548 0.0591587 0
-0.0138531 -0.0329814 0
0.30209 0.0329497 0
-0.00901157 -0.0199435 0
0.747969 0.00420491 0
-0.0755236 0.201182 0
0.538445 -0.059161 0
-0.0667392 0.00247806 0
0.0842908 0.143501 0
0.768846 0.00388419 0
0.0915309 -0.342061 0
-0.171954 -0.168695 0
-0.0250859 -0.016977 0
-0.0362993 0.165638 0
-0.0355626 0.221593 0
-0.11446 0.0167153 0
0.327709 0.0448809 0
-0.0117669 -0.0338528 0
-0.192419 -0.0959065 0
-0.0730221 0.00233191 0
-0.0749152 0.274777 0
-0.0135527 -0.15038 0
-0.023067 -0.103042 0
-0.00658156 0.039997 0
-0.0307899 0.157753 0
-0.00829558 -0.020336 0
-0.118544 -0.00150137 0
-0.0218824 -0.0453659 0
-0.048965 0.00993384 0
0.446263 0.0298736 0
-0.0105409 -0.0252155 0
0.466197 0.0260308 0
0.444391 0.0372755 0
0.286684 0.0533731 0
-0.0364805 -0.00229067 0
-0.0274746 0.186939 0
0.137446 0.022439 0
-0.0338994 0.191465 0
-0.0672802 0.215321 0
-0.0941653 0.204185 0
-0.0110836 -0.0271524 0
-0.106347 0.0472911 0
0.574807 -0.00751699 0
0.583942 -0.0476321 0
-0.0180778 -0.0384397 0
-0.006042 -0.0260433 0
-0.0118054 0.125816 0
-0.140866 -0.175854 0
0.0210663 0.175249 0
0.0809825 0.146962 0
-0.0766068 0.209789 0
-0.0493874 0.232275 0
-0.0296394 -0.00167458 0
0.332505 -0.120792 0
-0.0759729 0.188485 0
-0.0262359 0.139528 0
-0.0600392 0.160183 0
-0.0657689 0.170405 0
-0.150506 -0.165062 0
0.0453887 0.0114954 0
-0.0593549 -0.0872741 0
-0.0639747 0.15208 0
-0.114657 -0.0015397 0
-0.0592581 0.22001 0
0.0493842 0.05293 0
0.135647 0.0794683 0
0.659177 0.0172785 0
-0.124318 -0.0980012 0
0.459671 0.0299082 0
-0.0631331 0.163499 0
0.13681 0.00993475 0
-0.16001 -0.0859547 0
-0.0456019 0.169991 0
-0.0212645 -0.00287703 0
0.924586 0.00106019 0
-0.0288333 -0.225369 0
0.264814 0.0647316 0
-0.0444974 0.00340216 0
-0.017072 0.147723 0
0.154867 -0.268518 0
-0.0579568 0.00268111 0
-0.0550407 0.232168 0
0.598847 0.0242618 0
-0.0426912 0.240512 0
-0.0758323 0.214231 0
-0.151132 -0.0758388 0
0.111371 -0.325122 0
-0.00917544 0.0379971 0
-0.122679 -0.101127 0
-0.0652672 0.174146 0
0.146446 0.0164341 0
0.108512 -0.319467 0
-0.0891717 0.00163271 0
0.318322 -0.142518 0
-0.119395 0.0581257 0
0.10696 0.0734678 0
-0.00890579 0.136072 0
-0.183341 -0.0959182 0
0.0981481 0.140526 0
-0.106675 -0.00438284 0
-0.211855 -0.0828153 0
-0.0751016 0.224538 0
-0.0123963 0.14469 0
0.0364443 0.00310498 0
0.0419017 0.0462641 0
-0.112682 -0.0031185 0
-0.0442179 0.180181 0
-0.0978589 -0.501187 0
-0.177736 0.0737677 0
-0.0908284 -0.508699 0
-0.064908 -0.117098 0
0.370184 0.0606991 0
-0.0845251 0.205205 0
0.530625 0.030448 0
-0.20751 -0.167596 0
-0.0603316 0.156413 0
-0.046647 0.0103244 0
0.178469 0.113948 0
-0.109517 0.188231 0
0.292588 0.0468654 0
-0.0731461 -0.101404 0
0.626648 0.0203862 0
-0.0243977 0.165563 0
0.206239 -0.239701 0
-0.0469494 0.0112016 0
-0.137274 -0.178979 0
-0.0485378 0.00405827 0
-0.0637492 0.155906 0
-0.164894 -0.0845153 0
-0.211354 -0.171558 0
-0.0673958 -0.0967534 0
-0.0141448 -0.0383363 0
-0.0369468 -0.00313193 0
-0.0577368 0.0121148 0
-0.108774 -0.00301753 0
-0.0297824 0.00520309 0
-0.0377067 0.242361 0
-0.0905584 0.124864 0
0.593996 -0.00188338 0
-0.173906 -0.0951053 0
0.230152 0.128803 0
0.12392 0.134213 0
0.120758 0.13044 0
-0.178513 -0.132785 0
-0.0746812 0.178715 0
-0.179707 -0.127508 0
-0.0171102 0.182381 0
0.234804 -0.0225031 0
0.439315 0.0339013 0
-0.00851475 -0.00751271 0
0.0917465 0.0747176 0
-0.0493788 0.0108166 0
0.240656 0.0823606 0
-0.213965 -0.157536 0
-0.0694582 0.241195 0
0.28384 0.0814603 0
-0.201908 -0.170078 0
-0.0768074 0.184824 0
0.684733 0.0143372 0
-0.0083401 -0.0480441 0
-0.0722769 0.227103 0
0.406341 0.0533975 0
-0.000326686 0.20392 0
-0.120379 0.000297887 0
-0.0258664 0.175077 0
-0.0418569 0.0117705 0
-0.100956 -0.00276892 0
0.0636627 0.153828 0
-0.000738178 0.000784495 0
0.414163 0.0452369 0
-0.035614 -0.0728287 0
0.0426849 -0.00390026 0
-0.121914 -0.074519 0
0.0462718 0.161166 0
-0.00245877 0.0191031 0
-0.0131911 -0.0307471 0
-0.021554 0.154723 0
-0.0764651 0.256694 0
0.311504 0.0496803 0
0.0743311 -0.355278 0
-0.0289858 0.142518 0
-0.0264783 0.169486 0
-0.220112 -0.139428 0
-0.0144315 0.149457 0
-0.0978366 0.200453 0
0.233452 0.0953382 0
-0.0287917 0.17577 0
-0.0788602 -0.0445095 0
-0.0451673 0.173431 0
0.0960496 -0.121417 0
-0.010089 -0.0510321 0
0.0797076 0.1486 0
-0.106892 0.0228801 0
0.113417 0.0776767 0
-0.044673 -0.277371 0
-0.0909211 0.00272762 0
-0.0657024 -0.00416367 0
-0.065116 0.24636 0
-0.172593 0.115642 0
-0.102985 -0.00151996 0
0.221778 -0.0296253 0
0.0704686 0.0705939 0
-0.0539215 -0.180171 0
-0.0838121 0.194414 0
-0.0706549 0.154222 0
-0.0849061 0.190837 0
-0.00154797 -0.00124806 0
-0.0115086 0.153825 0
0.575831 0.0158627 0
-0.0380801 -0.00276063 0
-0.0456856 -0.35685 0