# vtk DataFile Version 3.0
Malha 2D com triângulos: velocidade e pressão
ASCII
DATASET UNSTRUCTURED_GRID

POINTS 7043 double
0 0 0
1 0 0
1 1 0
0 1 0
0.012987 0 0
0.025974 0 0
0.038961 0 0
0.0519481 0 0
0.0649351 0 0
0.0779221 0 0
0.0909091 0 0
0.103896 0 0
0.116883 0 0
0.12987 0 0
0.142857 0 0
0.155844 0 0
0.168831 0 0
0.181818 0 0
0.194805 0 0
0.207792 0 0
0.220779 0 0
0.233766 0 0
0.246753 0 0
0.25974 0 0
0.272727 0 0
0.285714 0 0
0.298701 0 0
0.311688 0 0
0.324675 0 0
0.337662 0 0
0.350649 0 0
0.363636 0 0
0.376623 0 0
0.38961 0 0
0.402597 0 0
0.415584 0 0
0.428571 0 0
0.441558 0 0
0.454545 0 0
0.467532 0 0
0.480519 0 0
0.493506 0 0
0.506494 0 0
0.519481 0 0
0.532468 0 0
0.545455 0 0
0.558442 0 0
0.571429 0 0
0.584416 0 0
0.597403 0 0
0.61039 0 0
0.623377 0 0
0.636364 0 0
0.649351 0 0
0.662338 0 0
0.675325 0 0
0.688312 0 0
0.701299 0 0
0.714286 0 0
0.727273 0 0
0.74026 0 0
0.753247 0 0
0.766234 0 0
0.779221 0 0
0.792208 0 0
0.805195 0 0
0.818182 0 0
0.831169 0 0
0.844156 0 0
0.857143 0 0
0.87013 0 0
0.883117 0 0
0.896104 0 0
0.909091 0 0
0.922078 0 0
0.935065 0 0
0.948052 0 0
0.961039 0 0
0.974026 0 0
0.987013 0 0
1 0.012987 0
1 0.025974 0
1 0.038961 0
1 0.0519481 0
1 0.0649351 0
1 0.0779221 0
1 0.0909091 0
1 0.103896 0
1 0.116883 0
1 0.12987 0
1 0.142857 0
1 0.155844 0
1 0.168831 0
1 0.181818 0
1 0.194805 0
1 0.207792 0
1 0.220779 0
1 0.233766 0
1 0.246753 0
1 0.25974 0
1 0.272727 0
1 0.285714 0
1 0.298701 0
1 0.311688 0
1 0.324675 0
1 0.337662 0
1 0.350649 0
1 0.363636 0
1 0.376623 0
1 0.38961 0
1 0.402597 0
1 0.415584 0
1 0.428571 0
1 0.441558 0
1 0.454545 0
1 0.467532 0
1 0.480519 0
1 0.493506 0
1 0.506494 0
1 0.519481 0
1 0.532468 0
1 0.545455 0
1 0.558442 0
1 0.571429 0
1 0.584416 0
1 0.597403 0
1 0.61039 0
1 0.623377 0
1 0.636364 0
1 0.649351 0
1 0.662338 0
1 0.675325 0
1 0.688312 0
1 0.701299 0
1 0.714286 0
1 0.727273 0
1 0.74026 0
1 0.753247 0
1 0.766234 0
1 0.779221 0
1 0.792208 0
1 0.805195 0
1 0.818182 0
1 0.831169 0
1 0.844156 0
1 0.857143 0
1 0.87013 0
1 0.883117 0
1 0.896104 0
1 0.909091 0
1 0.922078 0
1 0.935065 0
1 0.948052 0
1 0.961039 0
1 0.974026 0
1 0.987013 0
0.987013 1 0
0.974026 1 0
0.961039 1 0
0.948052 1 0
0.935065 1 0
0.922078 1 0
0.909091 1 0
0.896104 1 0
0.883117 1 0
0.87013 1 0
0.857143 1 0
0.844156 1 0
0.831169 1 0
0.818182 1 0
0.805195 1 0
0.792208 1 0
0.779221 1 0
0.766234 1 0
0.753247 1 0
0.74026 1 0
0.727273 1 0
0.714286 1 0
0.701299 1 0
0.688312 1 0
0.675325 1 0
0.662338 1 0
0.649351 1 0
0.636364 1 0
0.623377 1 0
0.61039 1 0
0.597403 1 0
0.584416 1 0
0.571429 1 0
0.558442 1 0
0.545455 1 0
0.532468 1 0
0.519481 1 0
0.506494 1 0
0.493506 1 0
0.480519 1 0
0.467532 1 0
0.454545 1 0
0.441558 1 0
0.428571 1 0
0.415584 1 0
0.402597 1 0
0.38961 1 0
0.376623 1 0
0.363636 1 0
0.350649 1 0
0.337662 1 0
0.324675 1 0
0.311688 1 0
0.298701 1 0
0.285714 1 0
0.272727 1 0
0.25974 1 0
0.246753 1 0
0.233766 1 0
0.220779 1 0
0.207792 1 0
0.194805 1 0
0.181818 1 0
0.168831 1 0
0.155844 1 0
0.142857 1 0
0.12987 1 0
0.116883 1 0
0.103896 1 0
0.0909091 1 0
0.0779221 1 0
0.0649351 1 0
0.0519481 1 0
0.038961 1 0
0.025974 1 0
0.012987 1 0
0 0.987013 0
0 0.974026 0
0 0.961039 0
0 0.948052 0
0 0.935065 0
0 0.922078 0
0 0.909091 0
0 0.896104 0
0 0.883117 0
0 0.87013 0
0 0.857143 0
0 0.844156 0
0 0.831169 0
0 0.818182 0
0 0.805195 0
0 0.792208 0
0 0.779221 0
0 0.766234 0
0 0.753247 0
0 0.74026 0
0 0.727273 0
0 0.714286 0
0 0.701299 0
0 0.688312 0
0 0.675325 0
0 0.662338 0
0 0.649351 0
0 0.636364 0
0 0.623377 0
0 0.61039 0
0 0.597403 0
0 0.584416 0
0 0.571429 0
0 0.558442 0
0 0.545455 0
0 0.532468 0
0 0.519481 0
0 0.506494 0
0 0.493506 0
0 0.480519 0
0 0.467532 0
0 0.454545 0
0 0.441558 0
0 0.428571 0
0 0.415584 0
0 0.402597 0
0 0.38961 0
0 0.376623 0
0 0.363636 0
0 0.350649 0
0 0.337662 0
0 0.324675 0
0 0.311688 0
0 0.298701 0
0 0.285714 0
0 0.272727 0
0 0.25974 0
0 0.246753 0
0 0.233766 0
0 0.220779 0
0 0.207792 0
0 0.194805 0
0 0.181818 0
0 0.168831 0
0 0.155844 0
0 0.142857 0
0 0.12987 0
0 0.116883 0
0 0.103896 0
0 0.0909091 0
0 0.0779221 0
0 0.0649351 0
0 0.0519481 0
0 0.038961 0
0 0.025974 0
0 0.012987 0
0.5 0.0112471 0
0.5 0.988753 0
0.011333 0.500562 0
0.988753 0.5 0
0.988979 0.603504 0
0.396104 0.988753 0
0.0121836 0.394831 0
0.603896 0.0112471 0
0.603896 0.988753 0
0.0116739 0.603042 0
0.396104 0.0112471 0
0.988421 0.396683 0
0.988373 0.693773 0
0.305195 0.988753 0
0.0123719 0.303973 0
0.694252 0.0106818 0
0.0116269 0.693773 0
0.694805 0.988753 0
0.305195 0.0112471 0
0.989005 0.305195 0
0.227273 0.988753 0
0.987623 0.773874 0
0.0113474 0.227405 0
0.771343 0.0124127 0
0.772727 0.988753 0
0.0119922 0.773961 0
0.228657 0.0124127 0
0.988653 0.227405 0
0.162338 0.988753 0
0.0109769 0.162338 0
0.837662 0.0112471 0
0.98757 0.839616 0
0.163722 0.0124127 0
0.990344 0.162521 0
0.837662 0.988753 0
0.0112471 0.837662 0
0.0104673 0.551291 0
0.551948 0.988753 0
0.98761 0.551007 0
0.448052 0.988753 0
0.445887 0.0109169 0
0.988291 0.44668 0
0.55335 0.0126338 0
0.0106911 0.447612 0
0.0116497 0.109194 0
0.11039 0.988753 0
0.889057 0.0106818 0
0.987617 0.888567 0
0.110922 0.0109397 0
0.98835 0.109194 0
0.0123835 0.888567 0
0.88961 0.988753 0
0.00970827 0.0717069 0
0.928571 0.0110011 0
0.655844 0.0112471 0
0.733766 0.0112471 0
0.0121599 0.345786 0
0.0115599 0.265644 0
0.0714286 0.988753 0
0.0123432 0.732061 0
0.987851 0.930255 0
0.988554 0.655777 0
0.987657 0.732061 0
0.344156 0.988753 0
0.733766 0.988753 0
0.0114463 0.655777 0
0.266234 0.988753 0
0.988495 0.266078 0
0.266234 0.0112471 0
0.357143 0.0112471 0
0.642857 0.988753 0
0.988423 0.343598 0
0.928571 0.988753 0
0.0714286 0.0112471 0
0.0123377 0.930378 0
0.990317 0.0716003 0
0.0112471 0.525974 0
0.524572 0.0126338 0
0.0112471 0.474026 0
0.525974 0.988753 0
0.987604 0.52684 0
0.474026 0.988753 0
0.988048 0.812214 0
0.988331 0.474822 0
0.474026 0.0112471 0
0.00886814 0.201604 0
0.798148 0.0106818 0
0.201299 0.988753 0
0.0114337 0.7981 0
0.577922 0.0112471 0
0.0104917 0.422068 0
0.628468 0.0126338 0
0.0114884 0.37014 0
0.0109165 0.579156 0
0.988324 0.137239 0
0.136364 0.0112471 0
0.991161 0.201653 0
0.863636 0.988753 0
0.0117062 0.631183 0
0.798701 0.988753 0
0.577922 0.988753 0
0.201852 0.0106818 0
0.668831 0.988753 0
0.0124027 0.864399 0
0.986881 0.370143 0
0.988294 0.631183 0
0.37013 0.988753 0
0.988753 0.577922 0
0.422078 0.988753 0
0.988753 0.0454545 0
0.98846 0.954665 0
0.0454545 0.988753 0
0.331169 0.0112471 0
0.422078 0.0112471 0
0.988966 0.421883 0
0.0454545 0.0112471 0
0.954545 0.0112471 0
0.0116978 0.0466282 0
0.862252 0.0124127 0
0.0116757 0.137239 0
0.954545 0.988753 0
0.988184 0.864143 0
0.0124608 0.954559 0
0.136364 0.988753 0
0.988238 0.979327 0
0.0195356 0.989003 0
0.0105718 0.0191396 0
0.979426 0.0124239 0
0.149351 0.988753 0
0.155844 0.977506 0
0.168831 0.977506 0
0.162338 0.966259 0
0.149351 0.966259 0
0.155844 0.955012 0
0.142857 0.955012 0
0.149351 0.943765 0
0.162338 0.943765 0
0.155844 0.932518 0
0.168831 0.932518 0
0.162338 0.92127 0
0.175325 0.92127 0
0.168831 0.910023 0
0.181818 0.910023 0
0.175325 0.898776 0
0.188312 0.898776 0
0.181818 0.887529 0
0.194805 0.887529 0
0.188312 0.876282 0
0.201299 0.876282 0
0.194805 0.865035 0
0.207792 0.865035 0
0.201299 0.853788 0
0.214286 0.853788 0
0.207792 0.842541 0
0.220779 0.842541 0
0.214286 0.831294 0
0.227273 0.831294 0
0.220779 0.820047 0
0.233766 0.820047 0
0.227273 0.8088 0
0.24026 0.8088 0
0.233766 0.797553 0
0.246753 0.797553 0
0.24026 0.786305 0
0.253247 0.786305 0
0.246753 0.775058 0
0.25974 0.775058 0
0.253247 0.763811 0
0.266234 0.763811 0
0.25974 0.752564 0
0.272727 0.752564 0
0.266234 0.741317 0
0.279221 0.741317 0
0.272727 0.73007 0
0.285714 0.73007 0
0.279221 0.718823 0
0.292208 0.718823 0
0.285714 0.707576 0
0.298701 0.707576 0
0.292208 0.696329 0
0.305195 0.696329 0
0.298701 0.685082 0
0.311688 0.685082 0
0.305195 0.673835 0
0.318182 0.673835 0
0.311688 0.662588 0
0.324675 0.662588 0
0.318182 0.65134 0
0.331169 0.65134 0
0.324675 0.640093 0
0.337662 0.640093 0
0.331169 0.628846 0
0.344156 0.628846 0
0.337662 0.617599 0
0.350649 0.617599 0
0.344156 0.606352 0
0.357143 0.606352 0
0.350649 0.595105 0
0.363636 0.595105 0
0.357143 0.583858 0
0.37013 0.583858 0
0.363636 0.572611 0
0.376623 0.572611 0
0.37013 0.561364 0
0.383117 0.561364 0
0.38961 0.572611 0
0.396104 0.561364 0
0.402597 0.572611 0
0.409091 0.561364 0
0.415584 0.572611 0
0.422078 0.561364 0
0.428571 0.572611 0
0.435065 0.561364 0
0.441558 0.572611 0
0.448052 0.561364 0
0.454545 0.572611 0
0.461039 0.561364 0
0.467532 0.572611 0
0.474026 0.561364 0
0.480519 0.572611 0
0.376623 0.550117 0
0.467532 0.550117 0
0.480519 0.550117 0
0.474026 0.53887 0
0.487013 0.53887 0
0.480519 0.527623 0
0.493506 0.527623 0
0.487013 0.516375 0
0.5 0.516375 0
0.493506 0.505128 0
0.506494 0.505128 0
0.5 0.493881 0
0.512987 0.493881 0
0.519481 0.505128 0
0.525974 0.493881 0
0.532468 0.505128 0
0.538961 0.493881 0
0.545455 0.505128 0
0.532468 0.482634 0
0.545455 0.482634 0
0.538961 0.471387 0
0.551948 0.471387 0
0.545455 0.46014 0
0.558442 0.46014 0
0.551948 0.448893 0
0.564935 0.448893 0
0.558442 0.437646 0
0.571429 0.437646 0
0.564935 0.426399 0
0.577922 0.426399 0
0.584416 0.437646 0
0.590909 0.426399 0
0.597403 0.437646 0
0.603896 0.426399 0
0.61039 0.437646 0
0.584416 0.415152 0
0.324675 0.685082 0
0.616883 0.426399 0
0.623377 0.437646 0
0.62987 0.426399 0
0.363636 0.550117 0
0.636364 0.437646 0
0.642857 0.426399 0
0.649351 0.437646 0
0.655844 0.426399 0
0.649351 0.415152 0
0.662338 0.415152 0
0.655844 0.403905 0
0.662338 0.437646 0
0.37013 0.53887 0
0.357143 0.53887 0
0.363636 0.527623 0
0.350649 0.527623 0
0.357143 0.516375 0
0.344156 0.516375 0
0.350649 0.505128 0
0.337662 0.505128 0
0.344156 0.493881 0
0.668831 0.403905 0
0.662338 0.392658 0
0.331169 0.493881 0
0.337662 0.482634 0
0.675325 0.392658 0
0.668831 0.38141 0
0.324675 0.482634 0
0.331169 0.471387 0
0.318182 0.471387 0
0.324675 0.46014 0
0.681818 0.38141 0
0.675325 0.370163 0
0.292208 0.741317 0
0.688312 0.370163 0
0.681818 0.358916 0
0.311688 0.46014 0
0.318182 0.448893 0
[...]
CELL_DATA 13776
VECTORS velocity double
-0.00540527 -0.0511247 0
-0.00314165 0.00835039 0
-6.08618e-05 0.0129383 0
0.00294168 0.0729936 0
-0.0114357 -0.241576 0
-0.0245388 -0.543768 0
6.94883e-05 -0.00347182 0
0.000740054 0.00798711 0
-0.0102272 -0.0691649 0
-0.00185529 0.00670208 0
-0.0302292 -0.363867 0
-0.0740581 0.180227 0
0.000466536 -0.00192599 0
0.000249807 0.0103237 0
0.00546234 0.0887943 0
-0.0113078 -0.27938 0
-0.00390314 -0.022018 0
0.00348374 0.0536749 0
-0.00966591 -0.285624 0
-0.00211666 -0.00556676 0
-4.8736e-05 -0.00378348 0
0.00110504 0.009806 0
-0.0249942 0.0717052 0
-0.0774755 0.164708 0
-0.000721847 -0.00176288 0
0.000317311 0.0107215 0
0.00366986 0.0888821 0
-0.00789401 -0.0844473 0
-0.0154764 -0.443871 0
0.00367198 0.048555 0
-0.0154034 -0.384328 0
0.000677865 -0.00186944 0
0.00030043 0.0157759 0
-0.0046254 0.00436536 0
0.0037447 0.062451 0
-0.0152514 -0.340936 0
-0.00811787 -0.10569 0
-0.00075323 0.00947486 0
-0.0105085 -0.172359 0
-0.00342413 0.0287408 0
-0.00034648 0.00932336 0
-0.0209995 -0.444416 0
-0.00700737 0.0325574 0
-0.0250963 -0.586526 0
0.00216729 0.0315591 0
-0.0116579 -0.355074 0
-0.00404697 0.0600718 0
-0.00150278 0.00107038 0
-0.00467799 0.103105 0
-0.00438617 -0.0258599 0
-0.00491057 0.0833316 0
-0.00419288 -0.0110331 0
-0.0030988 0.0188365 0
-0.000148477 0.0104065 0
-0.00935069 0.00185356 0
-0.00604182 0.000926599 0
-0.0143309 0.00230863 0
-0.00958715 0.0010878 0
0.00360309 0.00242678 0
0.00372961 0.0019701 0
0.000957961 0.000790789 0
0.00152713 0.00038943 0
-0.0342565 0.00151912 0
-0.0449867 0.0034685 0
0.017669 0.000684819 0
0.0150326 0.000382873 0
-0.0626564 0.00216408 0
-0.0484346 0.001869 0
-0.0183043 -0.010237 0
-0.0169989 -0.00824033 0
0.0139994 -0.00155789 0
0.0117516 -0.000949677 0
-0.0336601 -0.0103003 0
-0.0319144 -0.00855582 0
-0.0520284 0.000105896 0
-0.0642698 0.00160429 0
0.00357216 -0.00186274 0
0.00464601 -0.00290254 0
-0.0185488 -0.0894476 0
-0.0368671 -0.626754 0
0.00329174 0.0619326 0
-0.0104208 -0.259817 0
0.10066 -0.399305 0
0.00280367 0.0308132 0
-0.0175738 0.0629547 0
-0.0191991 -0.099536 0
0.00603736 0.271373 0
-0.000876841 -0.00221248 0
0.000493706 0.0120489 0
0.00402372 0.102695 0
-0.00523348 0.0064098 0
-0.00707821 0.159606 0
-0.0061521 0.0560524 0
0.00248372 0.0340769 0
-0.000922149 -0.286616 0
-0.00872474 -0.0984082 0
0.011898 0.228336 0
0.000462038 -0.000270483 0
-0.0057228 0.0366227 0
0.000264099 0.0914792 0
0.000804953 -0.000491934 0
-0.0165438 -0.448678 0
0.0025347 0.111226 0
-0.0294799 -0.376977 0
-0.0206929 -0.502937 0
-0.00394607 0.0248954 0
-0.0338286 -0.616192 0
0.00182414 0.131212 0
-0.016667 -0.302596 0
-0.000672409 0.0765444 0
-0.043012 -0.597562 0
-0.000383177 0.0194402 0
-0.0137387 -0.178595 0
-0.00680734 0.166194 0
-0.00190796 0.000893937 0
-0.00428341 0.020139 0
-0.000187019 0.0118381 0
-0.0139454 -0.134342 0
-0.0117351 -0.161726 0
-0.0168539 0.305357 0
0.0167006 0.001244 0
0.0133565 0.000386214 0
0.02283 -0.000665016 0
0.0105175 -0.00151185 0
0.0106097 -0.00246852 0
0.00488974 0.0020818 0
0.00622863 0.00300313 0
0.0158516 0.0033001 0
-0.0130276 -0.00988842 0
-0.0365314 -0.00867443 0
-0.0454709 -0.0117288 0
-0.0311966 -0.00181597 0
-0.0518075 -0.00425133 0
-0.0416221 -0.00468845 0
-0.0399507 -0.00124311 0
-0.065365 -0.000607436 0
-0.051487 0.00103936 0
-0.0646989 -7.17816e-05 0
-0.0514717 0.00167736 0
-0.0469396 -0.000441902 0
-0.00514768 0.00228994 0
-0.00344117 0.000821618 0
-0.00638231 0.00270515 0
0.00315854 -0.000443495 0
0.00282117 -0.000313812 0
0.0019011 -0.000584249 0
0.00179145 -0.000384442 0
-0.011097 0.00145711 0
-0.00845543 0.00123641 0
-0.0159064 0.00170525 0
-0.020295 0.00190684 0
0.00286109 0.000765345 0
-0.0275444 0.00219302 0
-0.0217814 0.00202506 0
0.00194858 0.000279265 0
-0.0477007 0.00202213 0
-0.0378334 0.00240808 0
-0.0278997 0.00242752 0
-0.0354472 0.00231298 0
-0.0433484 0.00251528 0
-0.0547408 0.00168853 0
0.0165952 0.00265023 0
0.0174802 0.00317298 0
0.012949 0.000971373 0
0.0174745 0.00102038 0
0.0147794 0.000816342 0
0.00769913 0.00256508 0
0.00782726 0.00312839 0
0.00727937 0.00108701 0
0.000995709 -0.000344172 0
0.00145157 -0.000608318 0
0.0218506 -0.00137773 0
0.0206471 -0.0010101 0
0.00214026 -0.000277738 0
-0.00411657 0.000863327 0
0.00276449 -0.000547914 0
-0.00670592 0.00160472 0
0.0138342 -0.000690944 0
-0.0044769 0.00265385 0
0.00270974 0.00138605 0
-0.017938 0.00252503 0
0.00304784 -0.000143595 0
0.00449071 5.28546e-05 0
-0.0124067 0.00119934 0
0.00367873 -0.000314042 0
-0.0240004 -0.00847525 0
-0.0175337 0.00107836 0
-0.0259655 -0.0105181 0
-0.0245492 0.00318122 0
0.00823842 -0.00271645 0
0.00687841 -0.0016103 0
-0.0540995 -0.00247997 0
-0.0438956 -0.00265369 0
-0.0235689 0.00106783 0
-0.0322666 0.00351185 0
-0.029798 0.00167069 0
-0.040406 0.00363736 0
-0.0578624 0.0030401 0
-0.0449221 0.000991761 0
-0.0394791 0.000658984 0
-0.0517323 0.00353636 0
-0.029497 -0.00335962 0
-0.0375507 -0.00294503 0
-0.0455279 -0.00319991 0
-0.0527412 -0.00148085 0
-0.0517782 -0.000649955 0
-0.0651699 0.00150141 0
-0.0106215 -0.199121 0
0.0012279 0.108104 0
-0.00145725 0.0210204 0
-0.0277793 -0.576188 0
-0.00466424 0.00100766 0
0.00210763 0.000479154 0
0.0152813 0.00111688 0
0.0083204 0.00155326 0
0.00359246 0.000907411 0
0.0044225 -3.11231e-05 0
0.0162968 -0.00117592 0
0.0218342 -0.000416289 0
-0.00739412 -0.00667445 0
0.013712 0.00235177 0
-0.0595959 -0.00316199 0
0.00274748 0.000946665 0
-0.00225084 0.00167503 0
-0.0360323 -0.00389859 0
-0.0654133 0.000412813 0
-0.00821905 0.0340342 0
-0.0349225 -0.640643 0
0.00984449 0.209569 0
-0.0039022 0.0642914 0
-0.000501282 -0.526001 0
0.00621533 0.253486 0
0.0025209 0.0365598 0
-0.0157697 -0.415401 0
0.00334456 0.0701589 0
-0.015622 -0.307599 0
-0.00550185 0.0467211 0
-0.00589059 0.0661822 0
4.01015e-05 0.106539 0
-0.0148187 0.310539 0
-0.00764783 -0.237755 0
0.00609668 0.0772801 0
-0.0100135 -0.301561 0
-0.00489899 0.109015 0
0.00488572 0.0434885 0
-0.00719111 -0.133908 0
-0.00418476 0.0139839 0
-9.71959e-05 0.0129047 0
-0.0175782 -0.553247 0
-0.024243 0.232909 0
-1.4105e-05 0.00581128 0
-0.00110804 0.0117146 0
-0.00166194 -0.130977 0
0.00080075 0.0259531 0
-0.00501229 0.0246007 0
-0.000356338 0.0111896 0
-0.00226565 0.040466 0
-0.0028366 0.00197024 0
-0.00621949 0.0725503 0
-0.00302926 -0.00235816 0
-0.028879 -0.568123 0
0.00148501 0.100781 0
-0.0042747 0.0934845 0
-0.0225569 0.226172 0
0.00197037 0.0265577 0
-0.00419829 0.27399 0
0.00390557 0.0400757 0
-0.013882 -0.403644 0
-0.00155944 0.00891738 0
-0.0256673 -0.613565 0
-0.00469986 0.0305601 0
-0.000440523 0.0103819 0
-0.00493527 0.0902543 0
0.00469148 0.273549 0
-0.0124892 0.0429688 0
-0.0129116 -0.34958 0
0.00459182 0.0548711 0
-0.0131091 -0.368806 0
-0.00987455 -0.0862388 0
-0.00484657 0.284681 0
-0.0419423 0.108809 0
0.00479293 0.0993882 0
-0.0175575 -0.276202 0
-0.0284347 -0.637438 0
0.0042528 0.0408168 0
-0.0159867 -0.208688 0
-0.0230503 -0.541698 0
-0.000428352 -0.00350261 0
0.000905533 0.0114633 0
0.000849755 0.0194937 0
0.00562007 0.0654239 0
-0.00961587 -0.32407 0
-0.0734175 0.171377 0
-0.00130696 0.0162138 0
-0.0119785 -0.499043 0
0.000213364 -0.00373834 0
0.00114965 0.0083598 0
-0.0547671 0.126948 0
-0.00877613 -0.120579 0
-2.55304e-05 0.012916 0
0.00193065 0.0248719 0
0.000692958 -0.0011983 0
0.00545487 0.0595668 0
-0.0123116 -0.366971 0
-0.00171571 0.00891633 0
-0.000175107 0.0104954 0
0.000653205 0.0197507 0
0.00039624 0.00041398 0
0.179951 -0.296107 0
-0.00325969 -0.122178 0
-0.00551914 -0.0209614 0
-0.00458082 -0.0180559 0
-0.0108141 -0.0637024 0
-0.0191764 -0.503933 0
0.000627074 -0.000887413 0
-0.00746888 -0.113546 0
-0.00210012 0.127324 0
0.00151173 0.1164 0
-0.000193915 0.00921647 0
-0.00286503 0.0213688 0
-0.0054167 -0.245949 0
0.00240277 0.0505131 0
-0.000598323 -0.00320504 0
0.000898663 0.0118464 0
-0.0127975 -0.107258 0
0.00607148 0.102042 0
-0.00896684 0.108017 0
-0.00898017 0.112473 0
-0.0121167 -0.0923066 0
-0.00345148 0.13521 0
-0.0226472 -0.480598 0
-0.00136587 0.0146472 0
-0.00585717 0.0444301 0
-0.00132886 -0.00101693 0
0.000348786 0.0123258 0
0.00516724 0.103458 0
-0.0130879 0.254813 0
-0.00203747 0.101241 0
-0.000197224 0.123547 0
-0.00412541 -0.0580396 0
-0.000743061 0.0209381 0
-0.0206169 0.06181 0
-0.00459791 0.0162112 0
-0.000101125 0.0126732 0
0.093826 -0.369052 0
-0.0109393 -0.155399 0
-0.0157528 -0.192964 0
0.00333384 0.0467487 0
-0.0176741 -0.399132 0
-0.00287301 0.00638292 0
-0.00523977 0.0818228 0
-0.0025553 -0.00653424 0
-0.00566809 0.0277945 0
-0.0352204 -0.619138 0
-0.00703742 -0.0319803 0
-0.0102907 -0.217847 0
0.00164581 0.0746376 0
0.00354751 0.0338566 0
-0.0149003 -0.444544 0
0.000629096 -0.00250658 0
-0.00788252 0.138775 0
-0.00704583 0.0609497 0
-0.00638849 -0.0583663 0
0.00352623 0.0833883 0
-0.0157157 -0.288217 0
-0.000129507 -0.00323212 0
0.000492869 0.00881507 0
0.00837754 0.253962 0
-0.00350053 0.036594 0
0.000701049 0.000637636 0
-0.0134655 -0.265131 0
0.0129665 -0.522904 0
0.000947576 -0.555643 0
-0.0455228 0.133396 0
-0.00398398 -0.0043973 0
0.0673772 -0.417616 0
0.0665667 -0.410331 0
-0.0223221 0.299379 0
0.00163766 -0.544565 0
-0.036459 -0.635016 0
-0.0151449 0.254589 0
0.000442669 -0.00119898 0
0.00311817 0.0457538 0
-0.00402344 -0.285387 0
0.00826793 0.235304 0
-0.00749244 0.146682 0
0.00173063 0.00662882 0
0.00916059 -0.52284 0
-0.0363989 -0.57804 0
-0.00309007 -0.0144783 0
-0.0175007 -0.410522 0
-0.0267307 -0.611386 0
0.0203906 -0.491003 0
-0.0109248 0.170109 0
-0.00199725 -0.00908189 0
-0.00740807 -0.590832 0
-0.0110297 0.178183 0
-0.0136358 -0.0792244 0
-0.0144039 0.199472 0
-0.014046 0.206838 0
-0.0100129 0.192163 0
-0.00942707 0.200247 0
-0.00662423 0.185343 0
-0.00618004 0.193361 0
-0.00894383 0.217231 0
-0.00781576 0.223997 0
-0.00397659 0.205292 0
-0.0028827 0.21197 0
-0.00509912 0.234406 0
-0.00399006 0.240519 0
-0.00513232 0.258372 0
-0.00225567 0.225381 0
-0.0453145 0.150334 0
-0.0410892 0.12759 0
-0.0386786 0.144598 0
-0.00072303 0.229255 0
-0.00749636 0.269822 0
-0.0871196 0.145427 0
0.277032 0.0290829 0
-0.117501 0.00555396 0
-0.127044 0.00724382 0
-0.177037 0.013216 0
0.234878 -0.0956075 0
-0.148126 0.00889726 0
0.23042 -0.0919693 0
-0.156722 0.0111495 0
-0.179941 0.0191925 0
-0.0440523 0.173312 0
-0.0383154 0.152102 0
0.148251 0.0449222 0
-0.032067 0.109397 0
0.0674396 0.0695481 0
-0.0454428 0.142557 0
0.16963 -0.139814 0
0.279852 -0.070709 0
-0.199378 0.0223059 0
0.251492 -0.0795515 0
0.022482 0.00584008 0
-0.224376 0.0294236 0
-0.035056 -0.0722486 0
-0.0952381 -0.164137 0
-0.0382908 -0.0827725 0
0.408987 -0.0371669 0
-0.084393 0.120548 0
-0.0386082 0.12204 0
0.439324 -0.030525 0
0.131949 0.242897 0
0.303252 -0.0603692 0
-0.236381 0.028994 0
0.338566 -0.0524631 0
-0.0635159 -0.0580135 0
0.364978 -0.0440603 0
0.0372029 0.270412 0
0.0111159 0.14179 0
-0.0426472 -0.0850067 0
0.143376 0.0595933 0
0.168155 -0.125438 0
0.143355 -0.145956 0
0.309433 0.0242652 0
-0.254051 0.0322636 0
0.212663 -0.110972 0
-0.0389679 -0.0741716 0
0.126233 0.246153 0
-0.0665677 -0.371593 0
0.0358629 0.274695 0
-0.205836 0.0259133 0
0.0384949 0.291943 0
0.252476 -0.0646459 0
-0.0825685 -0.0718889 0
0.490179 0.0122385 0
0.194033 -0.110669 0
-0.273972 0.0179473 0
0.0973177 0.225858 0
-0.3028 0.00832546 0
0.185229 -0.118123 0
0.0235963 0.220195 0
-0.00690384 0.359879 0
-0.0167101 -0.0371885 0
0.0153298 0.17268 0
0.102606 0.224351 0
0.0758254 0.0811197 0
-0.290945 0.0196403 0
-0.346002 0.0116942 0
0.0366705 0.295465 0
-0.33854 0.0159517 0
0.551196 -0.0117394 0
-0.109925 0.339301 0
-0.0914882 -0.144035 0
0.239733 0.0358367 0
-0.0712546 0.0267511 0
0.038404 0.310206 0
-0.259415 0.0264668 0
0.189829 -0.121693 0
0.434911 0.0182674 0
0.26234 -0.0573878 0
-0.110865 0.190493 0
-0.101843 -0.098033 0
0.446253 0.0162499 0
-0.104485 0.343685 0
0.471463 0.0142814 0
-0.072991 -0.0631668 0
0.157604 0.165758 0
0.00124625 0.211095 0
0.149445 0.189787 0
-0.128572 -0.41161 0
-0.00969372 0.284908 0
-0.0387321 0.129577 0
0.15983 -0.133218 0
-0.0791294 -0.420622 0
0.147545 -0.182745 0
-0.0409033 -0.171203 0
-0.0317328 0.102243 0
-0.0984942 -0.011262 0
-0.103833 -0.400919 0
-0.0785362 -0.37592 0
0.44674 0.0331942 0
0.151507 -0.137933 0
-0.104299 -0.415686 0
0.51844 -0.0146381 0
0.245887 -0.0647763 0
-0.0894996 0.345608 0
-0.369229 0.0208379 0
-0.097831 0.346161 0
-0.140829 -0.196758 0
-0.0380359 -0.514936 0
-0.129099 -0.425908 0
0.189432 -0.114091 0
0.155011 0.294991 0
-0.256701 -0.172124 0
-0.136948 -0.189123 0
-0.182909 -0.128377 0
-0.00659893 0.00334157 0
0.0303364 0.304376 0
-0.229039 -0.175928 0
0.0341823 0.327493 0
-0.0844229 0.350361 0
-0.096319 0.343575 0
-0.106674 -0.100396 0
0.164277 0.283959 0
0.0360958 0.312966 0
-0.116332 -0.407825 0
-0.00253969 -0.00181525 0
-0.293647 0.011766 0
-0.116822 -0.422369 0
-0.0163899 0.00827256 0
-0.386115 -0.000927731 0
-0.38797 -0.0211842 0
0.157829 -0.132025 0
0.405043 0.0188283 0
0.34176 0.0142631 0
-0.383962 -0.0016205 0
-0.0386678 -0.521752 0
-0.128842 -0.210042 0
-0.253559 -0.179301 0
0.0479666 0.1645 0
0.244988 -0.0652981 0
-0.0308203 -0.069212 0
-0.184912 0.0161005 0
-0.0777144 0.352369 0
-0.0309539 0.113425 0
0.195924 0.0454395 0
-0.270278 0.0247527 0
-0.0798953 -0.0707943 0
0.110108 0.0551239 0
-0.16185 -0.0765029 0
-0.0790368 -0.390876 0
0.400551 0.020728 0
-0.091675 -0.405363 0
-0.362176 0.00355733 0
-0.103762 -0.0140693 0
0.347035 0.0459555 0
-0.265412 0.0311165 0
0.343352 0.0425001 0
0.342237 0.0499898 0
-0.274303 -0.198593 0
-0.0756506 -0.0342647 0
0.232387 0.0272284 0
0.0597296 0.18625 0
-0.0660703 -0.0596682 0
-0.3186 0.00916386 0
0.0783499 0.193902 0
-0.0354829 0.072095 0
-0.0994457 -0.0905366 0
0.0359381 0.143042 0
-0.168875 -0.0771544 0
-0.0735956 -0.0672433 0
-0.0770366 -0.0374638 0
-0.232097 -0.168856 0
0.0198519 0.195074 0
0.330395 0.0314431 0
-0.124133 0.335401 0
0.347935 0.0387358 0
0.345515 0.0533636 0
-0.13822 0.314975 0
0.0819656 0.186728 0
-0.13294 0.320993 0
-0.376015 0.00351094 0
0.0434402 0.143385 0
-0.150772 -0.241535 0
0.146183 0.313068 0
0.33983 0.00757561 0
-0.105104 0.153421 0
-0.0953439 -0.0886402 0
0.465393 -0.0183729 0
-0.381327 0.00433534 0
0.216765 0.0335399 0
-0.0959368 0.141318 0
-0.00348391 -0.000664524 0
-0.153453 -0.234408 0
0.399597 0.0271146 0
0.184404 0.182875 0
-0.00530673 0.00153037 0
-0.187754 -0.150291 0
-0.00189056 0.313597 0
-0.355319 0.0742915 0
-0.194645 -0.150835 0
-0.116665 0.3368 0
0.0570738 0.223023 0
-0.357262 0.012857 0
0.345342 0.0115279 0
-0.205621 -0.158939 0
-0.128977 0.329529 0
-0.0624038 0.213908 0
0.265429 -0.0570375 0
-0.0271036 -0.0306629 0
0.0657239 0.26583 0
0.104455 0.186807 0
0.0498791 0.222773 0
-0.0464102 0.363333 0
-0.168612 -0.301387 0
-0.315929 -0.223607 0
-0.163285 -0.266212 0
-0.0884208 -0.14832 0
-0.00526247 0.378958 0
0.20805 -0.00564483 0
-0.053023 -0.0849089 0
0.343126 0.00508788 0
-0.024166 -0.0240193 0
0.531996 0.0097476 0
0.00280096 0.336107 0
0.395881 -0.0267901 0
-0.300581 0.0166993 0
0.169429 0.169589 0
0.55593 0.00915226 0
0.148684 -0.170847 0
-0.165788 -0.258692 0
-0.0709974 -0.0624152 0
-0.00765688 0.373426 0
0.146597 0.243362 0
-0.361505 0.0730863 0
0.36016 0.0221979 0
-0.046583 -0.0860446 0
-0.198589 -0.158351 0
-0.324855 0.0146092 0
-0.0447809 0.0801255 0
-0.0275321 -0.443909 0
-0.091173 -0.39046 0
-0.0318157 0.145481 0
-0.00568294 0.365638 0
-0.0227639 -0.0244896 0
-0.373459 -0.00464901 0
-0.098769 -0.159723 0
-0.20497 0.0664492 0
0.389576 0.0230496 0
-0.033743 -0.0460567 0
0.393156 0.0209206 0
0.390153 0.0344802 0
0.347882 0.02482 0
-0.152707 -0.0244989 0
0.0393065 0.365207 0
0.258862 -0.0249139 0
-0.00553838 0.0488943 0
0.0328301 0.344253 0
0.0709565 0.193772 0
-0.0374523 -0.0548387 0
-0.305528 0.178543 0
0.406954 -0.00210775 0
0.437953 -0.0221876 0
-0.0752927 -0.118439 0
-0.0221799 -0.0483612 0
0.00393392 0.0429755 0
-0.174254 -0.312417 0
-0.0660002 0.0972536 0
0.191246 0.175584 0
0.100671 0.194033 0
-0.0246393 0.0600509 0
-0.121154 -0.0186215 0
0.258742 -0.0584891 0
-0.0204071 0.341039 0
-0.0165534 0.349333 0
-0.0548421 0.364179 0
-0.0442184 0.359895 0
-0.180424 -0.286435 0
0.202814 -0.0411639 0
-0.255395 -0.364723 0
-0.0727344 0.356632 0
-0.379245 -0.00527738 0
0.126323 0.215498 0
0.211726 -0.0101543 0
0.27649 0.0251038 0
0.338148 0.020807 0
-0.273091 -0.257195 0
0.392867 0.0252974 0
-0.0529612 0.361789 0
0.254979 -0.0337921 0
-0.245057 -0.178022 0
-0.0189305 0.376601 0
-0.0494428 -0.0238983 0
0.81558 0.00342883 0
-0.0439808 -0.570809 0
0.343863 0.0351941 0
-0.199076 0.0292972 0
0.00519034 0.0535547 0
0.170184 -0.121382 0
-0.26361 0.020205 0
-0.0109071 0.0683254 0
0.241929 0.0284134 0
0.153702 0.280773 0
0.0290242 0.323031 0
-0.265543 -0.173498 0
0.169313 -0.168855 0
-0.0449952 0.127045 0
-0.270483 -0.265402 0
-0.0375998 0.361153 0
0.261973 -0.0281873 0
0.151425 -0.150984 0
-0.371668 0.00896334 0
0.249432 -0.0644782 0
-0.273832 0.178666 0
0.255188 0.0142412 0
0.0337286 0.250622 0
-0.209714 -0.166544 0
0.207991 0.170413 0
-0.387222 -0.0208482 0
-0.176044 -0.127815 0
0.0896099 0.246536 0
0.0325306 0.301873 0
0.196209 -0.0474703 0
0.205669 -0.0160852 0
-0.382129 -0.0128503 0
-0.00176896 0.379454 0
0.0313668 -0.29796 0
0.0118336 0.0194471 0
0.0301647 -0.303735 0
-0.227263 -0.421316 0
0.356435 0.0714158 0
0.0894378 0.186796 0
0.180742 0.051614 0
-0.139216 -0.218367 0
-0.061292 0.362289 0
-0.191626 0.0668143 0
0.316987 0.108129 0
0.0554193 0.164764 0
0.346925 0.0181016 0
-0.26613 -0.378193 0
0.268442 0.0255997 0
-0.00355268 0.039034 0
0.216044 -0.116621 0
-0.192024 0.0706942 0
-0.172491 -0.321658 0
-0.217511 0.0334478 0
-0.0661487 0.358594 0
-0.240049 -0.169841 0
-0.132692 -0.21771 0
-0.262776 -0.3784 0
-0.0594701 -0.110848 0
-0.148258 -0.0316639 0
-0.247003 0.0796845 0
-0.385677 -0.0133979 0
-0.10373 0.0322085 0
0.10701 0.323098 0
-0.141149 0.303469 0
0.419605 0.0025982 0
-0.221369 -0.175031 0
0.0172811 0.0913594 0
0.260257 0.159026 0
0.204999 0.160752 0
-0.189156 -0.21596 0
-0.0367792 0.34549 0
-0.191993 -0.208819 0
0.0540686 0.251412 0
0.288178 -0.04262 0
0.389124 0.0276999 0
0.00186633 -0.000235785 0
0.245201 0.0133747 0
-0.205766 0.0706289 0
0.340516 0.0576737 0
-0.138096 -0.203736 0
0.0551827 0.189023 0
0.293657 0.107561 0
-0.14303 -0.226024 0
-0.0272167 0.34028 0
0.364096 0.0183134 0
-0.0390724 -0.157336 0
0.0931083 0.254252 0
0.359144 0.0667158 0
0.213426 0.202904 0
-0.369611 0.00294435 0
0.0281183 0.362346 0
-0.163335 0.0682393 0
-0.387242 -0.0145623 0
0.173888 0.179913 0
0.00237614 -0.00327051 0
0.383428 0.0425592 0
-0.173125 -0.308272 0
0.199023 -0.0515608 0
-0.306589 -0.22178 0
0.156023 0.18324 0
-0.0147577 0.0710556 0
-0.0482132 -0.0737516 0
-0.00527741 0.0326999 0
-0.0132338 0.0946055 0
0.356378 0.0250813 0
0.132954 -0.172067 0
-0.0205582 0.354608 0
0.0196859 0.363366 0
-0.139693 -0.182159 0
0.0310227 0.317845 0
0.0671225 0.186444 0
0.334452 0.0927648 0
0.0221039 0.368277 0
-0.342875 -0.223639 0
-0.0131849 0.377873 0
0.202798 -0.10549 0
-0.0480116 -0.17156 0
0.201093 0.177907 0
-0.355966 0.104518 0
0.260893 0.0194353 0
-0.0542192 -0.606992 0
-0.373997 0.0157783 0
-0.295424 -0.0358534 0
-0.0139431 0.0775559 0
-0.0863117 0.12683 0
-0.387084 -0.00730125 0
0.280187 -0.0481406 0
0.229519 0.00695134 0
0.127099 -0.15123 0
-0.011741 0.320438 0
-0.0758133 0.34903 0
-0.018632 0.319822 0
0.0216829 0.00680782 0
0.0367142 0.19691 0
0.420275 0.0196287 0
-0.157824 -0.028589 0
-0.0428848 -0.633091 0
0.187127 -0.0344482 0
-0.00275614 0.0164218 0
0.34377 0.0280606 0
0.209151 -0.0204805 0
0.33501 0.035338 0
-0.0406516 -0.644458 0
0.262002 0.0289501 0
0.0265138 0.367966 0
0.0977553 0.350021 0
-0.360872 0.0193249 0
-0.33333 -0.244372 0
-0.0160793 0.0075149 0
0.328624 0.0985423 0
-0.171056 -0.105895 0
-0.217001 -0.167245 0
0.052627 0.096222 0
0.0369419 0.353578 0
-0.0111123 0.378014 0
-0.0723947 0.163218 0
0.0705146 -0.227751 0
0.17673 -0.12068 0
0.0666152 0.0705525 0
-0.00877242 0.313048 0
-0.0626953 0.0504261 0
0.178172 0.23146 0
0.034374 -0.295293 0
0.0475741 0.261255 0
-0.239296 0.155263 0
-0.00249701 0.00205189 0
-0.290354 -0.210004 0
-0.206278 -0.0495882 0
0.0931964 0.194045 0
-0.131102 -0.0817214 0
0.0153907 0.363325 0
0.124237 0.260653 0