# vtk DataFile Version 3.0
Malha 2D com triângulos e temperatura
ASCII
DATASET UNSTRUCTURED_GRID

POINTS 2500 double
0 0 0
1 0 0
1 1 0
0 1 0
0.0204082 0 0
0.0408163 0 0
0.0612245 0 0
0.0816327 0 0
0.102041 0 0
0.122449 0 0
0.142857 0 0
0.163265 0 0
0.183673 0 0
0.204082 0 0
0.22449 0 0
0.244898 0 0
0.265306 0 0
0.285714 0 0
0.306122 0 0
0.326531 0 0
0.346939 0 0
0.367347 0 0
0.387755 0 0
0.408163 0 0
0.428571 0 0
0.44898 0 0
0.469388 0 0
0.489796 0 0
0.510204 0 0
0.530612 0 0
0.55102 0 0
0.571429 0 0
0.591837 0 0
0.612245 0 0
0.632653 0 0
0.653061 0 0
0.673469 0 0
0.693878 0 0
0.714286 0 0
0.734694 0 0
0.755102 0 0
0.77551 0 0
0.795918 0 0
0.816327 0 0
0.836735 0 0
0.857143 0 0
0.877551 0 0
0.897959 0 0
0.918367 0 0
0.938776 0 0
0.959184 0 0
0.979592 0 0
1 0.0204082 0
1 0.0408163 0
1 0.0612245 0
1 0.0816327 0
1 0.102041 0
1 0.122449 0
1 0.142857 0
1 0.163265 0
1 0.183673 0
1 0.204082 0
1 0.22449 0
1 0.244898 0
1 0.265306 0
1 0.285714 0
1 0.306122 0
1 0.326531 0
1 0.346939 0
1 0.367347 0
1 0.387755 0
1 0.408163 0
1 0.428571 0
1 0.44898 0
1 0.469388 0
1 0.489796 0
1 0.510204 0
1 0.530612 0
1 0.55102 0
1 0.571429 0
1 0.591837 0
1 0.612245 0
1 0.632653 0
1 0.653061 0
1 0.673469 0
1 0.693878 0
1 0.714286 0
1 0.734694 0
1 0.755102 0
1 0.77551 0
1 0.795918 0
1 0.816327 0
1 0.836735 0
1 0.857143 0
1 0.877551 0
1 0.897959 0
1 0.918367 0
1 0.938776 0
1 0.959184 0
1 0.979592 0
0.979592 1 0
0.959184 1 0
0.938776 1 0
0.918367 1 0
0.897959 1 0
0.877551 1 0
0.857143 1 0
0.836735 1 0
0.816327 1 0
0.795918 1 0
0.77551 1 0
0.755102 1 0
0.734694 1 0
0.714286 1 0
0.693878 1 0
0.673469 1 0
0.653061 1 0
0.632653 1 0
0.612245 1 0
0.591837 1 0
0.571429 1 0
0.55102 1 0
0.530612 1 0
0.510204 1 0
0.489796 1 0
0.469388 1 0
0.44898 1 0
0.428571 1 0
0.408163 1 0
0.387755 1 0
0.367347 1 0
0.346939 1 0
0.326531 1 0
0.306122 1 0
0.285714 1 0
0.265306 1 0
0.244898 1 0
0.22449 1 0
0.204082 1 0
0.183673 1 0
0.163265 1 0
0.142857 1 0
0.122449 1 0
0.102041 1 0
0.0816327 1 0
0.0612245 1 0
0.0408163 1 0
0.0204082 1 0
0 0.979592 0
0 0.959184 0
0 0.938776 0
0 0.918367 0
0 0.897959 0
0 0.877551 0
0 0.857143 0
0 0.836735 0
0 0.816327 0
0 0.795918 0
0 0.77551 0
0 0.755102 0
0 0.734694 0
0 0.714286 0
0 0.693878 0
0 0.673469 0
0 0.653061 0
0 0.632653 0
0 0.612245 0
0 0.591837 0
0 0.571429 0
0 0.55102 0
0 0.530612 0
0 0.510204 0
0 0.489796 0
0 0.469388 0
0 0.44898 0
0 0.428571 0
0 0.408163 0
0 0.387755 0
0 0.367347 0
0 0.346939 0
0 0.326531 0
0 0.306122 0
0 0.285714 0
0 0.265306 0
0 0.244898 0
0 0.22449 0
0 0.204082 0
0 0.183673 0
0 0.163265 0
0 0.142857 0
0 0.122449 0
0 0.102041 0
0 0.0816327 0
0 0.0612245 0
0 0.0408163 0
0 0.0204082 0
0.0204082 0.979592 0
0.0204082 0.959184 0
0.0204082 0.938776 0
0.0204082 0.918367 0
0.0204082 0.897959 0
0.0204082 0.877551 0
0.0204082 0.857143 0
0.0204082 0.836735 0
0.0204082 0.816327 0
0.0204082 0.795918 0
0.0204082 0.77551 0
0.0204082 0.755102 0
0.0204082 0.734694 0
0.0204082 0.714286 0
0.0204082 0.693878 0
0.0204082 0.673469 0
0.0204082 0.653061 0
0.0204082 0.632653 0
0.0204082 0.612245 0
0.0204082 0.591837 0
0.0204082 0.571429 0
0.0204082 0.55102 0
0.0204082 0.530612 0
0.0204082 0.510204 0
0.0204082 0.489796 0
0.0204082 0.469388 0
0.0204082 0.44898 0
0.0204082 0.428571 0
0.0204082 0.408163 0
0.0204082 0.387755 0
0.0204082 0.367347 0
0.0204082 0.346939 0
0.0204082 0.326531 0
0.0204082 0.306122 0
0.0204082 0.285714 0
0.0204082 0.265306 0
0.0204082 0.244898 0
0.0204082 0.22449 0
0.0204082 0.204082 0
0.0204082 0.183673 0
0.0204082 0.163265 0
0.0204082 0.142857 0
0.0204082 0.122449 0
0.0204082 0.102041 0
0.0204082 0.0816327 0
0.0204082 0.0612245 0
0.0204082 0.0408163 0
0.0204082 0.0204082 0
0.0408163 0.979592 0
0.0408163 0.959184 0
0.0408163 0.938776 0
0.0408163 0.918367 0
0.0408163 0.897959 0
0.0408163 0.877551 0
0.0408163 0.857143 0
0.0408163 0.836735 0
0.0408163 0.816327 0
0.0408163 0.795918 0
0.0408163 0.77551 0
0.0408163 0.755102 0
0.0408163 0.734694 0
0.0408163 0.714286 0
0.0408163 0.693878 0
0.0408163 0.673469 0
0.0408163 0.653061 0
0.0408163 0.632653 0
0.0408163 0.612245 0
0.0408163 0.591837 0
0.0408163 0.571429 0
0.0408163 0.55102 0
0.0408163 0.530612 0
0.0408163 0.510204 0
0.0408163 0.489796 0
0.0408163 0.469388 0
0.0408163 0.44898 0
0.0408163 0.428571 0
0.0408163 0.408163 0
0.0408163 0.387755 0
0.0408163 0.367347 0
0.0408163 0.346939 0
0.0408163 0.326531 0
0.0408163 0.306122 0
0.0408163 0.285714 0
0.0408163 0.265306 0
0.0408163 0.244898 0
0.0408163 0.22449 0
0.0408163 0.204082 0
0.0408163 0.183673 0
0.0408163 0.163265 0
0.0408163 0.142857 0
0.0408163 0.122449 0
0.0408163 0.102041 0
0.0408163 0.0816327 0
0.0408163 0.0612245 0
0.0408163 0.0408163 0
0.0408163 0.0204082 0
0.0612245 0.979592 0
0.0612245 0.959184 0
0.0612245 0.938776 0
0.0612245 0.918367 0
0.0612245 0.897959 0
0.0612245 0.877551 0
0.0612245 0.857143 0
0.0612245 0.836735 0
0.0612245 0.816327 0
0.0612245 0.795918 0
0.0612245 0.77551 0
0.0612245 0.755102 0
0.0612245 0.734694 0
0.0612245 0.714286 0
0.0612245 0.693878 0
0.0612245 0.673469 0
0.0612245 0.653061 0
0.0612245 0.632653 0
0.0612245 0.612245 0
0.0612245 0.591837 0
0.0612245 0.571429 0
0.0612245 0.55102 0
0.0612245 0.530612 0
0.0612245 0.510204 0
0.0612245 0.489796 0
0.0612245 0.469388 0
0.0612245 0.44898 0
0.0612245 0.428571 0
0.0612245 0.408163 0
0.0612245 0.387755 0
0.0612245 0.367347 0
0.0612245 0.346939 0
0.0612245 0.326531 0
0.0612245 0.306122 0
0.0612245 0.285714 0
0.0612245 0.265306 0
0.0612245 0.244898 0
0.0612245 0.22449 0
0.0612245 0.204082 0
0.0612245 0.183673 0
0.0612245 0.163265 0
0.0612245 0.142857 0
0.0612245 0.122449 0
0.0612245 0.102041 0
0.0612245 0.0816327 0
0.0612245 0.0612245 0
0.0612245 0.0408163 0
0.0612245 0.0204082 0
0.0816327 0.979592 0
0.0816327 0.959184 0
0.0816327 0.938776 0
0.0816327 0.918367 0
0.0816327 0.897959 0
0.0816327 0.877551 0
0.0816327 0.857143 0
0.0816327 0.836735 0
0.0816327 0.816327 0
0.0816327 0.795918 0
0.0816327 0.77551 0
0.0816327 0.755102 0
0.0816327 0.734694 0
0.0816327 0.714286 0
0.0816327 0.693878 0
0.0816327 0.673469 0
0.0816327 0.653061 0
0.0816327 0.632653 0
0.0816327 0.612245 0
0.0816327 0.591837 0
0.0816327 0.571429 0
0.0816327 0.55102 0
0.0816327 0.530612 0
0.0816327 0.510204 0
0.0816327 0.489796 0
0.0816327 0.469388 0
0.0816327 0.44898 0
0.0816327 0.428571 0
0.0816327 0.408163 0
0.0816327 0.387755 0
0.0816327 0.367347 0
0.0816327 0.346939 0
0.0816327 0.326531 0
0.0816327 0.306122 0
0.0816327 0.285714 0
0.0816327 0.265306 0
0.0816327 0.244898 0
0.0816327 0.22449 0
0.0816327 0.204082 0
0.0816327 0.183673 0
0.0816327 0.163265 0
0.0816327 0.142857 0
0.0816327 0.122449 0
0.0816327 0.102041 0
0.0816327 0.0816327 0
0.0816327 0.0612245 0
0.0816327 0.0408163 0
0.0816327 0.0204082 0
0.102041 0.979592 0
0.102041 0.959184 0
0.102041 0.938776 0
0.102041 0.918367 0
0.102041 0.897959 0
0.102041 0.877551 0
0.102041 0.857143 0
0.102041 0.836735 0
0.102041 0.816327 0
0.102041 0.795918 0
0.102041 0.77551 0
0.102041 0.755102 0
0.102041 0.734694 0
0.102041 0.714286 0
0.102041 0.693878 0
0.102041 0.673469 0
0.102041 0.653061 0
0.102041 0.632653 0
0.102041 0.612245 0
0.102041 0.591837 0
0.102041 0.571429 0
0.102041 0.55102 0
0.102041 0.530612 0
0.102041 0.510204 0
0.102041 0.489796 0
0.102041 0.469388 0
0.102041 0.44898 0
0.102041 0.428571 0
0.102041 0.408163 0
0.102041 0.387755 0
0.102041 0.367347 0
0.102041 0.346939 0
0.102041 0.326531 0
0.102041 0.306122 0
0.102041 0.285714 0
0.102041 0.265306 0
0.102041 0.244898 0
0.102041 0.22449 0
0.102041 0.204082 0
0.102041 0.183673 0
0.102041 0.163265 0
0.102041 0.142857 0
0.102041 0.122449 0
0.102041 0.102041 0
0.102041 0.0816327 0
0.102041 0.0612245 0
0.102041 0.0408163 0
0.102041 0.0204082 0
0.122449 0.979592 0
0.122449 0.959184 0
0.122449 0.938776 0
0.122449 0.918367 0
0.122449 0.897959 0
0.122449 0.877551 0
0.122449 0.857143 0
0.122449 0.836735 0
0.122449 0.816327 0
0.122449 0.795918 0
0.122449 0.77551 0
0.122449 0.755102 0
0.122449 0.734694 0
0.122449 0.714286 0
0.122449 0.693878 0
0.122449 0.673469 0
0.122449 0.653061 0
0.122449 0.632653 0
0.122449 0.612245 0
0.122449 0.591837 0
0.122449 0.571429 0
0.122449 0.55102 0
0.122449 0.530612 0
0.122449 0.510204 0
0.122449 0.489796 0
0.122449 0.469388 0
0.122449 0.44898 0
0.122449 0.428571 0
0.122449 0.408163 0
0.122449 0.387755 0
0.122449 0.367347 0
0.122449 0.346939 0
0.122449 0.326531 0
0.122449 0.306122 0
0.122449 0.285714 0
0.122449 0.265306 0
0.122449 0.244898 0
0.122449 0.22449 0
0.122449 0.204082 0
0.122449 0.183673 0
0.122449 0.163265 0
0.122449 0.142857 0
0.122449 0.122449 0
0.122449 0.102041 0
0.122449 0.0816327 0
0.122449 0.0612245 0
0.122449 0.0408163 0
0.122449 0.0204082 0
0.142857 0.979592 0
0.142857 0.959184 0
0.142857 0.938776 0
0.142857 0.918367 0
0.142857 0.897959 0
0.142857 0.877551 0
0.142857 0.857143 0
0.142857 0.836735 0
0.142857 0.816327 0
0.142857 0.795918 0
0.142857 0.77551 0
0.142857 0.755102 0
0.142857 0.734694 0
0.142857 0.714286 0
0.142857 0.693878 0
0.142857 0.673469 0
0.142857 0.653061 0
0.142857 0.632653 0
0.142857 0.612245 0
0.142857 0.591837 0
0.142857 0.571429 0
0.142857 0.55102 0
0.142857 0.530612 0
0.142857 0.510204 0
0.142857 0.489796 0
0.142857 0.469388 0
0.142857 0.44898 0
0.142857 0.428571 0
0.142857 0.408163 0
0.142857 0.387755 0
0.142857 0.367347 0
0.142857 0.346939 0
0.142857 0.326531 0
0.142857 0.306122 0
0.142857 0.285714 0
0.142857 0.265306 0
0.142857 0.244898 0
0.142857 0.22449 0
0.142857 0.204082 0
0.142857 0.183673 0
0.142857 0.163265 0
0.142857 0.142857 0
0.142857 0.122449 0
0.142857 0.102041 0
0.142857 0.0816327 0
0.142857 0.0612245 0
0.142857 0.0408163 0
0.142857 0.0204082 0
0.163265 0.979592 0
0.163265 0.959184 0
0.163265 0.938776 0
0.163265 0.918367 0
0.163265 0.897959 0
0.163265 0.877551 0
0.163265 0.857143 0
0.163265 0.836735 0
0.163265 0.816327 0
0.163265 0.795918 0
0.163265 0.77551 0
0.163265 0.755102 0
0.163265 0.734694 0
0.163265 0.714286 0
0.163265 0.693878 0
0.163265 0.673469 0
0.163265 0.653061 0
0.163265 0.632653 0
0.163265 0.612245 0
0.163265 0.591837 0
0.163265 0.571429 0
0.163265 0.55102 0
[...]
CELL_DATA 2401
VECTORS velocity double
0.257583 0.157301 0.0
-0.00262334 0.264445 0.0
-0.0322619 0.205475 0.0
-0.0253675 0.150593 0.0
-0.0160632 0.113061 0.0
-0.00971214 0.0877015 0.0
-0.00593931 0.0706163 0.0
-0.00375513 0.0589032 0.0
-0.0024719 0.050656 0.0
-0.00169414 0.0446902 0.0
-0.00120602 0.0402598 0.0
-0.000890244 0.0368814 0.0
-0.000681462 0.0342328 0.0
-0.00054182 0.0320925 0.0
-0.000448372 0.0303055 0.0
-0.000386569 0.0287612 0.0
-0.0003468 0.0273798 0.0
-0.000322489 0.0261038 0.0
-0.000308987 0.0248918 0.0
-0.000302925 0.0237145 0.0
-0.000301803 0.0225516 0.0
-0.000303733 0.02139 0.0
-0.000307275 0.0202218 0.0
-0.000311329 0.0190433 0.0
-0.000315055 0.0178544 0.0
-0.000317825 0.0166571 0.0
-0.000319183 0.0154553 0.0
-0.000318819 0.0142544 0.0
-0.000316538 0.0130607 0.0
-0.000312243 0.0118807 0.0
-0.000305914 0.0107215 0.0
-0.000297591 0.00959002 0.0
-0.000287355 0.00849312 0.0
-0.000275316 0.00743731 0.0
-0.000261594 0.00642876 0.0
-0.00024631 0.00547326 0.0
-0.00022957 0.00457622 0.0
-0.000211454 0.00374271 0.0
-0.000192005 0.00297758 0.0
-0.000171217 0.00228547 0.0
-0.000149019 0.00167098 0.0
-0.000125272 0.00113877 0.0
-9.97697e-05 0.00069359 0.0
-7.22861e-05 0.000340269 0.0
-4.2741e-05 8.33245e-05 0.0
-1.16959e-05 -7.40579e-05 0.0
1.83745e-05 -0.000132366 0.0
4.04562e-05 -0.000104463 0.0
3.60691e-05 -3.58886e-05 0.0
0.340776 0.122972 0.0
-0.000638202 0.249498 0.0
-0.0652174 0.271714 0.0
-0.0632608 0.252232 0.0
-0.048545 0.221706 0.0
-0.0349982 0.191824 0.0
-0.0249529 0.166384 0.0
-0.01793 0.145884 0.0
-0.013086 0.129711 0.0
-0.00973446 0.117012 0.0
-0.00739711 0.106987 0.0
-0.00575581 0.0989764 0.0
-0.00459967 0.0924595 0.0
-0.00378703 0.0870353 0.0
-0.00322076 0.0823986 0.0
-0.00283277 0.0783183 0.0
-0.00257433 0.0746207 0.0
-0.00240984 0.071176 0.0
-0.00231284 0.0678884 0.0
-0.00226333 0.0646889 0.0
-0.00224601 0.0615292 0.0
-0.00224904 0.0583773 0.0
-0.00226324 0.0552141 0.0
-0.00228148 0.0520308 0.0
-0.00229827 0.0488263 0.0
-0.00230945 0.0456059 0.0
-0.00231198 0.0423792 0.0
-0.00230371 0.0391592 0.0
-0.00228325 0.0359614 0.0
-0.00224984 0.0328025 0.0
-0.00220322 0.0296998 0.0
-0.0021435 0.026671 0.0
-0.00207106 0.0237333 0.0
-0.0019865 0.0209034 0.0
-0.00189049 0.0181973 0.0
-0.00178374 0.0156298 0.0
-0.00166691 0.0132151 0.0
-0.00154057 0.0109666 0.0
-0.00140513 0.00889667 0.0
-0.00126086 0.0070174 0.0
-0.00110786 0.00534019 0.0
-0.00094612 0.00387599 0.0
-0.00077574 0.00263506 0.0
-0.000597309 0.00162637 0.0
-0.000412864 0.000856256 0.0
-0.000227952 0.000325794 0.0
-5.58708e-05 2.58738e-05 0.0
7.51789e-05 -7.35656e-05 0.0
0.000103928 -3.93506e-05 0.0
0.500842 0.0768115 0.0
0.0990153 0.183233 0.0
-0.0393838 0.249245 0.0
-0.0734492 0.26576 0.0
-0.071925 0.25746 0.0
-0.0606353 0.239664 0.0
-0.0483964 0.21964 0.0
-0.0378405 0.200673 0.0
-0.0294533 0.183973 0.0
-0.0230312 0.169753 0.0
-0.0182083 0.157799 0.0
-0.0146315 0.147748 0.0
-0.0120076 0.139219 0.0
-0.0101062 0.131864 0.0
-0.00875039 0.125388 0.0
-0.00780497 0.119549 0.0
-0.00716658 0.114153 0.0
-0.00675583 0.109051 0.0
-0.00651128 0.10413 0.0
-0.00638506 0.0993056 0.0
-0.00633961 0.0945201 0.0
-0.0063454 0.0897343 0.0
-0.00637915 0.0849258 0.0
-0.00642261 0.0800852 0.0
-0.00646163 0.0752136 0.0
-0.0064854 0.07032 0.0
-0.00648597 0.0654196 0.0
-0.00645768 0.060532 0.0
-0.00639686 0.0556798 0.0
-0.00630142 0.0508877 0.0
-0.00617054 0.046181 0.0
-0.00600442 0.0415853 0.0
-0.005804 0.037126 0.0
-0.00557071 0.0328272 0.0
-0.00530624 0.0287124 0.0
-0.00501241 0.0248035 0.0
-0.00469098 0.0211214 0.0
-0.00434353 0.0176854 0.0
-0.00397139 0.0145139 0.0
-0.00357564 0.0116243 0.0
-0.00315722 0.00903249 0.0
-0.00271716 0.00675353 0.0
-0.00225721 0.00480058 0.0
-0.0017809 0.00318416 0.0
-0.00129571 0.00191029 0.0
-0.000816989 0.00097759 0.0
-0.000375026 0.000371506 0.0
-2.48601e-05 5.71424e-05 0.0
0.000129489 -1.64722e-05 0.0
0.61003 0.0480564 0.0
0.195643 0.133969 0.0
0.0113407 0.209437 0.0
-0.0580922 0.246491 0.0
-0.0761332 0.257038 0.0
-0.0737938 0.253597 0.0
-0.0645274 0.243351 0.0
-0.0539474 0.230548 0.0
-0.0442288 0.217445 0.0
-0.0360601 0.205096 0.0
-0.0295116 0.193892 0.0
-0.024419 0.18388 0.0
-0.0205503 0.174943 0.0
-0.0176745 0.166899 0.0
-0.0155868 0.159555 0.0
-0.0141143 0.152728 0.0
-0.0131151 0.146262 0.0
-0.0124742 0.14003 0.0
-0.0120985 0.13393 0.0
-0.0119131 0.127887 0.0
-0.0118578 0.121848 0.0
-0.0118842 0.11578 0.0
-0.0119536 0.109664 0.0
-0.0120355 0.103496 0.0
-0.0121057 0.0972821 0.0
-0.0121459 0.0910379 0.0
-0.0121425 0.0847843 0.0
-0.0120857 0.078547 0.0
-0.0119694 0.0723553 0.0
-0.0117899 0.06624 0.0
-0.0115459 0.0602329 0.0
-0.0112377 0.0543658 0.0
-0.010867 0.04867 0.0
-0.0104363 0.0431753 0.0
-0.00994862 0.0379106 0.0
-0.00940726 0.032903 0.0
-0.0088154 0.028178 0.0
-0.00817603 0.0237594 0.0
-0.00749186 0.0196696 0.0
-0.00676533 0.0159294 0.0
-0.00599887 0.012558 0.0
-0.00519544 0.00957267 0.0
-0.0043595 0.00698808 0.0
-0.00349882 0.00481547 0.0
-0.00262753 0.00306083 0.0
-0.00177136 0.00172253 0.0
-0.00097614 0.000785701 0.0
-0.000318271 0.000220493 0.0
7.00303e-05 1.31401e-05 0.0
0.680427 0.0301755 0.0
0.278436 0.0982012 0.0
0.0695786 0.171002 0.0
-0.0275342 0.217541 0.0
-0.0653142 0.241013 0.0
-0.0747437 0.2495 0.0
-0.071674 0.248924 0.0
-0.0638599 0.243386 0.0
-0.0549634 0.235462 0.0
-0.0466132 0.226643 0.0
-0.039438 0.21773 0.0
-0.0335872 0.209102 0.0
-0.0289924 0.200894 0.0
-0.0254983 0.193107 0.0
-0.0229258 0.18568 0.0
-0.0211014 0.178522 0.0
-0.0198688 0.171541 0.0
-0.0190931 0.164656 0.0
-0.0186596 0.157797 0.0
-0.0184729 0.150912 0.0
-0.0184537 0.143967 0.0
-0.0185372 0.136941 0.0
-0.0186707 0.129828 0.0
-0.0188118 0.122634 0.0
-0.0189273 0.115373 0.0
-0.0189915 0.108067 0.0
-0.0189852 0.100746 0.0
-0.018895 0.0934408 0.0
-0.0187123 0.0861872 0.0
-0.0184321 0.0790216 0.0
-0.0180528 0.0719809 0.0
-0.0175753 0.0651019 0.0
-0.0170022 0.0584201 0.0
-0.0163374 0.0519698 0.0
-0.0155855 0.0457834 0.0
-0.0147517 0.0398916 0.0
-0.0138408 0.034323 0.0
-0.0128576 0.0291043 0.0
-0.0118065 0.0242606 0.0
-0.0106918 0.0198146 0.0
-0.00951808 0.0157874 0.0
-0.00829061 0.0121977 0.0
-0.0070172 0.00906116 0.0
-0.00571022 0.00638991 0.0
-0.00439024 0.00419107 0.0
-0.00309182 0.00246552 0.0
-0.0018721 0.00120258 0.0
-0.000820566 0.000383836 0.0
-8.14603e-05 4.16211e-05 0.0
0.729821 0.019202 0.0
0.348974 0.0730609 0.0
0.127902 0.139313 0.0
0.0112022 0.188306 0.0
-0.0443378 0.219666 0.0
-0.066065 0.236778 0.0
-0.0707379 0.244181 0.0
-0.0674456 0.245344 0.0
-0.0609801 0.242726 0.0
-0.053787 0.237939 0.0
-0.0470423 0.231983 0.0
-0.0412434 0.225447 0.0
-0.0365335 0.21865 0.0
-0.0328786 0.211748 0.0
-0.030164 0.2048 0.0
-0.0282454 0.197809 0.0
-0.0269749 0.190757 0.0
-0.0262138 0.183613 0.0
-0.0258379 0.176351 0.0
-0.0257392 0.168952 0.0
-0.0258256 0.161404 0.0
-0.0260197 0.153708 0.0
-0.0262579 0.145873 0.0
-0.0264882 0.137917 0.0
-0.0266695 0.129866 0.0
-0.0267701 0.121752 0.0
-0.0267664 0.113612 0.0
-0.0266419 0.105483 0.0
-0.0263862 0.0974079 0.0
-0.0259938 0.0894277 0.0
-0.0254632 0.081584 0.0
-0.0247961 0.0739174 0.0
-0.0239968 0.0664667 0.0
-0.0230707 0.0592692 0.0
-0.0220246 0.0523598 0.0
-0.0208656 0.0457713 0.0
-0.0196006 0.0395344 0.0
-0.0182365 0.0336772 0.0
-0.0167798 0.0282261 0.0
-0.0152368 0.0232052 0.0
-0.0136144 0.0186363 0.0
-0.0119204 0.014539 0.0
-0.0101661 0.0109302 0.0
-0.0083679 0.0078232 0.0
-0.00655155 0.00522778 0.0
-0.00475768 0.00314962 0.0
-0.00304975 0.0015854 0.0
-0.00152204 0.000531316 0.0
-0.000317678 6.60594e-05 0.0
0.765831 0.0125979 0.0
0.408406 0.0557109 0.0
0.182888 0.114543 0.0
0.0527099 0.162644 0.0
-0.017165 0.197809 0.0
-0.0503896 0.220667 0.0
-0.0632255 0.234059 0.0
-0.0653809 0.240748 0.0
-0.0624044 0.242872 0.0
-0.0573747 0.241963 0.0
-0.0519393 0.239068 0.0
-0.0469244 0.234873 0.0
-0.042692 0.229812 0.0
-0.0393483 0.224147 0.0
-0.036864 0.218031 0.0
-0.0351438 0.211549 0.0
-0.0340646 0.204746 0.0
-0.033498 0.197646 0.0
-0.0333206 0.190265 0.0
-0.0334203 0.182617 0.0
-0.0336982 0.174719 0.0
-0.0340693 0.166593 0.0
-0.0344625 0.158267 0.0
-0.0348192 0.149775 0.0
-0.0350927 0.141154 0.0
-0.035247 0.132447 0.0
-0.0352554 0.123699 0.0
-0.0350997 0.114954 0.0
-0.0347686 0.106262 0.0
-0.0342569 0.0976681 0.0
-0.0335641 0.0892179 0.0
-0.0326935 0.0809552 0.0
-0.0316512 0.0729215 0.0
-0.030445 0.0651561 0.0
-0.029084 0.0576953 0.0
-0.0275776 0.0505732 0.0
-0.0259353 0.0438211 0.0
-0.0241662 0.037468 0.0
-0.0222788 0.0315404 0.0
-0.0202819 0.026063 0.0
-0.0181844 0.0210579 0.0
-0.0159968 0.0165453 0.0
-0.0137329 0.0125433 0.0
-0.0114124 0.00906717 0.0
-0.00906416 0.00613039 0.0
-0.00673175 0.00374492 0.0
-0.00447991 0.00191648 0.0
-0.0024007 0.000656581 0.0
-0.0006268 8.58133e-05 0.0
0.792869 0.00860942 0.0
0.458461 0.0436268 0.0
0.233363 0.0953907 0.0
0.0943534 0.141081 0.0
0.013662 0.177313 0.0
-0.0299161 0.203788 0.0
-0.0507229 0.221445 0.0
-0.0586807 0.232427 0.0
-0.0597975 0.238493 0.0
-0.0576106 0.241003 0.0
-0.0541436 0.240961 0.0
-0.0505063 0.239072 0.0
-0.0472638 0.235823 0.0
-0.0446618 0.23154 0.0
-0.0427632 0.226442 0.0
-0.0415313 0.220674 0.0
-0.0408783 0.214333 0.0
-0.0406951 0.20749 0.0
-0.0408674 0.200199 0.0
-0.0412856 0.192507 0.0
-0.0418498 0.184458 0.0
-0.0424719 0.176097 0.0
-0.0430767 0.16747 0.0
-0.0436022 0.158626 0.0
-0.0439984 0.149617 0.0
-0.0442271 0.140495 0.0
-0.0442603 0.131314 0.0
-0.0440794 0.122128 0.0
-0.0436736 0.11299 0.0
-0.043039 0.103951 0.0
-0.0421771 0.0950601 0.0
-0.0410934 0.0863636 0.0
-0.0397967 0.0779052 0.0
-0.0382977 0.0697251 0.0
-0.0366082 0.0618607 0.0
-0.0347404 0.0543462 0.0
-0.0327064 0.047213 0.0
-0.0305176 0.0404897 0.0
-0.0281852 0.0342028 0.0
-0.0257196 0.0283765 0.0
-0.0231321 0.023033 0.0
-0.0204351 0.018193 0.0
-0.0176441 0.0138756 0.0
-0.0147805 0.0100988 0.0
-0.0118743 0.00688011 0.0
-0.00896868 0.00423854 0.0
-0.00612542 0.00218922 0.0
-0.003429 0.00075811 0.0
-0.000995693 0.000101128 0.0
0.813877 0.00615815 0.0
0.500943 0.0350628 0.0
0.279172 0.0805801 0.0
0.134678 0.123289 0.0
0.0456482 0.159255 0.0
-0.00642819 0.187464 0.0
-0.0346283 0.208022 0.0
-0.0483703 0.222184 0.0
-0.0538562 0.231369 0.0
-0.0549243 0.236737 0.0
-0.0538819 0.239193 0.0
-0.0520697 0.239416 0.0
-0.0502286 0.237902 0.0
-0.0487321 0.235008 0.0
-0.0477328 0.23099 0.0
-0.0472546 0.226034 0.0
-0.0472493 0.220278 0.0
-0.0476324 0.213828 0.0
-0.048304 0.206772 0.0
-0.0491619 0.199183 0.0
-0.0501091 0.191132 0.0
-0.0510585 0.182684 0.0
-0.0519342 0.173904 0.0
-0.0526731 0.164856 0.0
-0.0532247 0.155604 0.0
-0.0535505 0.146212 0.0
-0.0536229 0.136744 0.0
-0.0534246 0.127259 0.0
-0.0529468 0.117817 0.0
-0.0521879 0.108473 0.0
-0.0511524 0.09928 0.0
-0.0498492 0.0902866 0.0
-0.0482903 0.0815375 0.0
-0.04649 0.0730739 0.0
-0.0444634 0.0649331 0.0
-0.0422258 0.057149 0.0
-0.0397922 0.0497521 0.0
-0.0371766 0.0427704 0.0
-0.0343923 0.0362293 0.0
-0.0314519 0.0301524 0.0
-0.0283679 0.0245614 0.0
-0.0251541 0.0194774 0.0
-0.0218269 0.0149205 0.0
-0.0184076 0.0109114 0.0
-0.014925 0.00747191 0.0
-0.0114194 0.0046278 0.0
-0.00794592 0.00240319 0.0
-0.00457779 0.000836706 0.0
-0.00141153 0.000112538 0.0
0.830732 0.00461129 0.0
0.537372 0.0288591 0.0
0.320617 0.069016 0.0
0.173085 0.108611 0.0
0.0778039 0.143552 0.0
0.0188432 0.172285 0.0
-0.0160591 0.194669 0.0
-0.0353561 0.211109 0.0
-0.0452655 0.22268 0.0
-0.0498017 0.230347 0.0
-0.0514743 0.234903 0.0
-0.051804 0.236971 0.0
-0.051677 0.237031 0.0
-0.0515776 0.235444 0.0
-0.0517397 0.232485 0.0
-0.0522451 0.228363 0.0
-0.0530854 0.223245 0.0
-0.0542024 0.217263 0.0
-0.0555132 0.210529 0.0
-0.056926 0.203143 0.0
-0.05835 0.195194 0.0
-0.0597013 0.186768 0.0
-0.0609062 0.177945 0.0
-0.0619031 0.168806 0.0
-0.0626427 0.159426 0.0
-0.0630883 0.14988 0.0
-0.0632146 0.140239 0.0
-0.0630071 0.130571 0.0
-0.0624604 0.120942 0.0
-0.0615766 0.11141 0.0
-0.0603643 0.102031 0.0
-0.0588366 0.0928561 0.0
-0.05701 0.0839307 0.0
-0.0549026 0.0752961 0.0
-0.0525336 0.0669891 0.0
-0.0499218 0.0590426 0.0
-0.0470853 0.051486 0.0
-0.0440407 0.0443457 0.0
-0.0408034 0.0376457 0.0
-0.0373877 0.0314084 0.0
-0.0338072 0.0256549 0.0
-0.0300759 0.020406 0.0
-0.0262099 0.015683 0.0
-0.0222289 0.0115086 0.0
-0.0181587 0.00790892 0.0
-0.0140339 0.00491575 0.0
-0.00990078 0.00256112 0.0
-0.00581854 0.000894179 0.0
-0.00186249 0.000120629 0.0
0.844628 0.00360218 0.0
0.568945 0.0242596 0.0
0.358122 0.0598804 0.0
0.209292 0.0964707 0.0
0.109365 0.13 0.0
0.0446998 0.158605 0.0
0.00415822 0.181825 0.0
-0.0203734 0.199846 0.0
-0.0346302 0.213187 0.0
-0.0427119 0.222651 0.0
-0.0472654 0.228917 0.0
-0.0499475 0.232543 0.0
-0.0517607 0.233975 0.0
-0.0532819 0.233565 0.0
-0.0548158 0.23159 0.0
-0.056496 0.228272 0.0
-0.0583514 0.223793 0.0
-0.0603495 0.218305 0.0
-0.0624251 0.211939 0.0
-0.064498 0.204812 0.0
-0.0664853 0.197033 0.0
-0.0683082 0.188702 0.0
-0.0698972 0.179917 0.0
-0.0711937 0.17077 0.0
-0.0721519 0.161349 0.0
-0.0727384 0.151737 0.0
-0.0729321 0.142016 0.0
-0.0727225 0.13226 0.0
-0.0721091 0.122538 0.0
-0.0710994 0.112915 0.0
-0.069707 0.103447 0.0
-0.0679503 0.0941888 0.0
-0.065851 0.0851849 0.0
-0.0634322 0.0764766 0.0
-0.0607174 0.0680999 0.0
-0.0577293 0.060086 0.0
-0.0544894 0.0524625 0.0
-0.0510171 0.0452538 0.0
-0.0473298 0.0384821 0.0
-0.0434428 0.032168 0.0
-0.0393704 0.0263314 0.0
-0.035126 0.0209928 0.0
-0.0307241 0.0161739 0.0
-0.0261813 0.0118994 0.0
-0.0215188 0.00819847 0.0
-0.0167635 0.00510819 0.0
-0.0119508 0.0026671 0.0
-0.00712443 0.000932631 0.0
-0.00233803 0.00012593 0.0
0.85635 0.00291753 0.0
0.596596 0.0207644 0.0
0.392148 0.0525576 0.0
0.243265 0.0863467 0.0
0.13997 0.118281 0.0
0.070632 0.146347 0.0
0.0252008 0.169827 0.0
-0.0040317 0.188764 0.0
-0.0224676 0.203379 0.0
-0.0340793 0.214203 0.0
-0.0415889 0.221821 0.0
-0.0467513 0.226722 0.0
-0.0506594 0.229313 0.0
-0.0539658 0.229925 0.0
-0.0570343 0.228829 0.0
-0.0600432 0.22625 0.0
-0.0630541 0.222376 0.0
-0.0660585 0.217373 0.0
-0.0690076 0.211383 0.0
-0.0718332 0.204541 0.0
-0.0744606 0.196968 0.0
-0.0768176 0.18878 0.0
-0.0788395 0.180085 0.0
-0.0804728 0.17099 0.0
-0.0816762 0.161591 0.0
-0.0824216 0.151983 0.0
-0.082693 0.142254 0.0
-0.0824861 0.132484 0.0
-0.0818065 0.122748 0.0
-0.080668 0.113114 0.0
-0.0790908 0.103641 0.0
-0.0770999 0.0943829 0.0
-0.0747227 0.0853857 0.0
-0.0719881 0.0766895 0.0
-0.0689247 0.0683287 0.0
-0.0655596 0.0603325 0.0
-0.0619177 0.0527263 0.0
-0.0580213 0.0455319 0.0
-0.0538894 0.038769 0.0
-0.0495385 0.0324561 0.0
-0.0449824 0.0266115 0.0
-0.0402334 0.0212546 0.0
-0.0353031 0.0164072 0.0
-0.0302041 0.0120949 0.0
-0.0249509 0.00834946 0.0
-0.0195616 0.0052118 0.0
-0.014059 0.00272547 0.0
-0.00847075 0.000954065 0.0
-0.00282877 0.000128881 0.0
0.866423 0.00243292 0.0
0.621049 0.0180423 0.0
0.423122 0.046596 0.0
0.275068 0.0778195 0.0
0.1694 0.108101 0.0
0.0962392 0.13537 0.0
0.0465604 0.158742 0.0
0.013186 0.17807 0.0
-0.00920908 0.193537 0.0
-0.0242742 0.20536 0.0
-0.034751 0.214014 0.0
-0.0424592 0.21993 0.0
-0.048561 0.22347 0.0
-0.0537683 0.224942 0.0
-0.0584929 0.224603 0.0
-0.0629503 0.222675 0.0
-0.06723 0.219349 0.0
-0.0713437 0.214795 0.0
-0.0752577 0.209168 0.0
-0.0789145 0.20261 0.0
-0.0822478 0.195256 0.0
-0.0851919 0.187233 0.0
-0.0876884 0.178661 0.0
-0.0896892 0.169657 0.0
-0.0911592 0.160327 0.0
-0.0920764 0.150775 0.0
-0.092432 0.141094 0.0
-0.0922289 0.131372 0.0
-0.0914802 0.121687 0.0
-0.0902075 0.11211 0.0
-0.0884388 0.102703 0.0
-0.0862064 0.0935189 0.0
-0.083545 0.0846038 0.0
-0.0804897 0.0759965 0.0
-0.0770747 0.0677291 0.0
-0.073332 0.0598286 0.0
-0.0692903 0.0523171 0.0
-0.0649746 0.0452136 0.0
-0.0604057 0.038535 0.0
-0.0556004 0.0322968 0.0
-0.0505719 0.0265153 0.0
-0.0453303 0.0212082 0.0
-0.0398836 0.0163966 0.0
-0.0342389 0.0121064 0.0
-0.0284029 0.00837071 0.0
-0.0223838 0.00523294 0.0
-0.0161908 0.00274016 0.0
-0.00983483 0.000960191 0.0
-0.00332643 0.000129819 0.0
0.875212 0.00207494 0.0
0.642859 0.0158713 0.0
0.45142 0.041664 0.0
0.304812 0.0705552 0.0
0.19755 0.0991926 0.0
0.121272 0.125513 0.0
0.067898 0.148525 0.0
0.0307694 0.167937 0.0
0.00481738 0.183812 0.0
-0.0136026 0.196342 0.0
-0.0270202 0.205761 0.0
-0.0372975 0.212455 0.0
-0.0456494 0.216748 0.0
-0.0528345 0.218918 0.0
-0.0593027 0.219208 0.0
-0.065299 0.217832 0.0
-0.0709356 0.214979 0.0
-0.076241 0.210822 0.0
-0.0811938 0.205522 0.0
-0.085746 0.199231 0.0
-0.0898388 0.192091 0.0
-0.0934131 0.184239 0.0
-0.0964168 0.175806 0.0
-0.0988082 0.166917 0.0
-0.100559 0.157689 0.0
-0.101656 0.148231 0.0
-0.102097 0.138644 0.0
-0.101894 0.129021 0.0
-0.101069 0.119443 0.0
-0.099653 0.109983 0.0
-0.097683 0.100704 0.0
-0.0951997 0.0916601 0.0
-0.0922457 0.0828957 0.0
-0.0888633 0.0744475 0.0
-0.085093 0.0663453 0.0
-0.0809719 0.0586127 0.0
-0.0765329 0.0512685 0.0
-0.0718035 0.0443282 0.0
-0.0668063 0.0378051 0.0
-0.0615582 0.0317116 0.0
-0.0560709 0.0260611 0.0
-0.050352 0.020869 0.0
-0.0444048 0.016155 0.0
-0.0382298 0.0119442 0.0
-0.0318254 0.00827003 0.0
-0.0251884 0.0051771 0.0
-0.018314 0.00271445 0.0
-0.0111958 0.000952342 0.0
-0.00382351 0.000128983 0.0
0.882971 0.00179942 0.0
0.662456 0.0140992 0.0
0.477363 0.0375159 0.0
0.332631 0.0642885 0.0
0.224381 0.0913253 0.0
0.14557 0.116607 0.0
0.0889831 0.139081 0.0
0.0484647 0.158349 0.0
0.0192083 0.174368 0.0
-0.00234231 0.187281 0.0
-0.0186372 0.197233 0.0
-0.031474 0.204491 0.0
-0.0421001 0.20935 0.0
-0.0513093 0.212063 0.0
-0.0595803 0.212852 0.0
-0.0671811 0.211921 0.0
-0.0742409 0.209458 0.0
-0.0808012 0.205634 0.0
-0.0868501 0.200615 0.0
-0.0923475 0.194557 0.0
-0.0972408 0.187612 0.0
-0.101477 0.179925 0.0
-0.105011 0.171636 0.0
-0.107808 0.162876 0.0
-0.109847 0.153772 0.0
-0.111122 0.144438 0.0
-0.111643 0.134983 0.0
-0.111431 0.125501 0.0
-0.110519 0.116078 0.0
-0.108947 0.106789 0.0
-0.106762 0.0976973 0.0
-0.104015 0.0888548 0.0
-0.100758 0.080305 0.0
-0.0970405 0.0720821 0.0
-0.0929099 0.0642126 0.0
-0.0884091 0.0567164 0.0
-0.0835749 0.0496085 0.0
-0.0784381 0.0429002 0.0
-0.0730224 0.0366008 0.0
-0.0673444 0.030719 0.0
-0.0614144 0.0252646 0.0
-0.0552363 0.0202502 0.0
-0.0488083 0.0156931 0.0
-0.0421236 0.0116168 0.0
-0.0351711 0.00805384 0.0
-0.0279357 0.00504864 0.0
-0.020398 0.00265081 0.0
-0.0125341 0.000931473 0.0
-0.00431315 0.000126522 0.0
0.889883 0.00157903 0.0
0.680169 0.0126198 0.0
0.501217 0.0339678 0.0
0.35865 0.0588085 0.0
0.249888 0.0843009 0.0
0.169026 0.108494 0.0
0.10964 0.130299 0.0
0.0660565 0.149245 0.0
0.0337392 0.165205 0.0
0.00926967 0.178245 0.0
-0.00981405 0.188518 0.0
-0.0251783 0.196149 0.0
-0.0380786 0.201405 0.0
-0.0493342 0.20451 0.0
-0.0594446 0.205669 0.0
-0.068694 0.205077 0.0
-0.077224 0.202913 0.0
-0.0850849 0.199351 0.0
-0.0922717 0.194556 0.0
-0.0987497 0.188691 0.0
-0.104472 0.181914 0.0
-0.109391 0.174376 0.0
-0.113467 0.166226 0.0
-0.116673 0.157603 0.0
-0.118998 0.148638 0.0
-0.120446 0.139454 0.0
-0.121035 0.130162 0.0
-0.120799 0.120862 0.0
-0.119781 0.11164 0.0
-0.118035 0.102573 0.0
-0.115618 0.0937219 0.0
-0.112593 0.0851393 0.0
-0.109019 0.0768654 0.0
-0.104956 0.0689311 0.0
-0.100459 0.0613593 0.0
-0.0955762 0.0541655 0.0
-0.0903492 0.0473602 0.0
-0.0848113 0.0409503 0.0
-0.0789876 0.0349403 0.0
-0.0728944 0.0293347 0.0
-0.0665397 0.0241393 0.0
-0.0599234 0.019363 0.0
-0.053038 0.0150199 0.0
-0.0458688 0.0111311 0.0
-0.0383946 0.00772714 0.0
-0.0305878 0.0048508 0.0
-0.0224139 0.002551 0.0
-0.0138314 0.000898196 0.0
-0.00478889 0.000122513 0.0
0.896082 0.00139631 0.0
0.696254 0.0113573 0.0
0.523202 0.0308795 0.0
0.382987 0.0539462 0.0
0.274083 0.0779518 0.0
0.191567 0.101025 0.0
0.129735 0.122067 0.0
0.0833734 0.140552 0.0
0.0482114 0.15629 0.0
0.0209738 0.169284 0.0
-0.000742901 0.179649 0.0
-0.0185839 0.187488 0.0
-0.0337398 0.192978 0.0
-0.0470453 0.196333 0.0
-0.0590134 0.197739 0.0
-0.069938 0.197376 0.0
-0.0799681 0.19542 0.0
-0.0891593 0.192042 0.0
-0.0975106 0.18741 0.0
-0.104991 0.181692 0.0
-0.111557 0.175049 0.0
-0.117166 0.16764 0.0
-0.121786 0.159621 0.0
-0.125397 0.151137 0.0
-0.127996 0.142325 0.0
-0.129599 0.133313 0.0
-0.130237 0.124215 0.0
-0.129954 0.115134 0.0
-0.128809 0.106158 0.0
-0.126866 0.0973613 0.0