# vtk DataFile Version 3.0
Malha 2D com triângulos e temperatura
ASCII
DATASET UNSTRUCTURED_GRID

POINTS 2500 double
0 0 0
1 0 0
1 1 0
0 1 0
0.0204082 0 0
0.0408163 0 0
0.0612245 0 0
0.0816327 0 0
0.102041 0 0
0.122449 0 0
0.142857 0 0
0.163265 0 0
0.183673 0 0
0.204082 0 0
0.22449 0 0
0.244898 0 0
0.265306 0 0
0.285714 0 0
0.306122 0 0
0.326531 0 0
0.346939 0 0
0.367347 0 0
0.387755 0 0
0.408163 0 0
0.428571 0 0
0.44898 0 0
0.469388 0 0
0.489796 0 0
0.510204 0 0
0.530612 0 0
0.55102 0 0
0.571429 0 0
0.591837 0 0
0.612245 0 0
0.632653 0 0
0.653061 0 0
0.673469 0 0
0.693878 0 0
0.714286 0 0
0.734694 0 0
0.755102 0 0
0.77551 0 0
0.795918 0 0
0.816327 0 0
0.836735 0 0
0.857143 0 0
0.877551 0 0
0.897959 0 0
0.918367 0 0
0.938776 0 0
0.959184 0 0
0.979592 0 0
1 0.0204082 0
1 0.0408163 0
1 0.0612245 0
1 0.0816327 0
1 0.102041 0
1 0.122449 0
1 0.142857 0
1 0.163265 0
1 0.183673 0
1 0.204082 0
1 0.22449 0
1 0.244898 0
1 0.265306 0
1 0.285714 0
1 0.306122 0
1 0.326531 0
1 0.346939 0
1 0.367347 0
1 0.387755 0
1 0.408163 0
1 0.428571 0
1 0.44898 0
1 0.469388 0
1 0.489796 0
1 0.510204 0
1 0.530612 0
1 0.55102 0
1 0.571429 0
1 0.591837 0
1 0.612245 0
1 0.632653 0
1 0.653061 0
1 0.673469 0
1 0.693878 0
1 0.714286 0
1 0.734694 0
1 0.755102 0
1 0.77551 0
1 0.795918 0
1 0.816327 0
1 0.836735 0
1 0.857143 0
1 0.877551 0
1 0.897959 0
1 0.918367 0
1 0.938776 0
1 0.959184 0
1 0.979592 0
0.979592 1 0
0.959184 1 0
0.938776 1 0
0.918367 1 0
0.897959 1 0
0.877551 1 0
0.857143 1 0
0.836735 1 0
0.816327 1 0
0.795918 1 0
0.77551 1 0
0.755102 1 0
0.734694 1 0
0.714286 1 0
0.693878 1 0
0.673469 1 0
0.653061 1 0
0.632653 1 0
0.612245 1 0
0.591837 1 0
0.571429 1 0
0.55102 1 0
0.530612 1 0
0.510204 1 0
0.489796 1 0
0.469388 1 0
0.44898 1 0
0.428571 1 0
0.408163 1 0
0.387755 1 0
0.367347 1 0
0.346939 1 0
0.326531 1 0
0.306122 1 0
0.285714 1 0
0.265306 1 0
0.244898 1 0
0.22449 1 0
0.204082 1 0
0.183673 1 0
0.163265 1 0
0.142857 1 0
0.122449 1 0
0.102041 1 0
0.0816327 1 0
0.0612245 1 0
0.0408163 1 0
0.0204082 1 0
0 0.979592 0
0 0.959184 0
0 0.938776 0
0 0.918367 0
0 0.897959 0
0 0.877551 0
0 0.857143 0
0 0.836735 0
0 0.816327 0
0 0.795918 0
0 0.77551 0
0 0.755102 0
0 0.734694 0
0 0.714286 0
0 0.693878 0
0 0.673469 0
0 0.653061 0
0 0.632653 0
0 0.612245 0
0 0.591837 0
0 0.571429 0
0 0.55102 0
0 0.530612 0
0 0.510204 0
0 0.489796 0
0 0.469388 0
0 0.44898 0
0 0.428571 0
0 0.408163 0
0 0.387755 0
0 0.367347 0
0 0.346939 0
0 0.326531 0
0 0.306122 0
0 0.285714 0
0 0.265306 0
0 0.244898 0
0 0.22449 0
0 0.204082 0
0 0.183673 0
0 0.163265 0
0 0.142857 0
0 0.122449 0
0 0.102041 0
0 0.0816327 0
0 0.0612245 0
0 0.0408163 0
0 0.0204082 0
0.0204082 0.979592 0
0.0204082 0.959184 0
0.0204082 0.938776 0
0.0204082 0.918367 0
0.0204082 0.897959 0
0.0204082 0.877551 0
0.0204082 0.857143 0
0.0204082 0.836735 0
0.0204082 0.816327 0
0.0204082 0.795918 0
0.0204082 0.77551 0
0.0204082 0.755102 0
0.0204082 0.734694 0
0.0204082 0.714286 0
0.0204082 0.693878 0
0.0204082 0.673469 0
0.0204082 0.653061 0
0.0204082 0.632653 0
0.0204082 0.612245 0
0.0204082 0.591837 0
0.0204082 0.571429 0
0.0204082 0.55102 0
0.0204082 0.530612 0
0.0204082 0.510204 0
0.0204082 0.489796 0
0.0204082 0.469388 0
0.0204082 0.44898 0
0.0204082 0.428571 0
0.0204082 0.408163 0
0.0204082 0.387755 0
0.0204082 0.367347 0
0.0204082 0.346939 0
0.0204082 0.326531 0
0.0204082 0.306122 0
0.0204082 0.285714 0
0.0204082 0.265306 0
0.0204082 0.244898 0
0.0204082 0.22449 0
0.0204082 0.204082 0
0.0204082 0.183673 0
0.0204082 0.163265 0
0.0204082 0.142857 0
0.0204082 0.122449 0
0.0204082 0.102041 0
0.0204082 0.0816327 0
0.0204082 0.0612245 0
0.0204082 0.0408163 0
0.0204082 0.0204082 0
0.0408163 0.979592 0
0.0408163 0.959184 0
0.0408163 0.938776 0
0.0408163 0.918367 0
0.0408163 0.897959 0
0.0408163 0.877551 0
0.0408163 0.857143 0
0.0408163 0.836735 0
0.0408163 0.816327 0
0.0408163 0.795918 0
0.0408163 0.77551 0
0.0408163 0.755102 0
0.0408163 0.734694 0
0.0408163 0.714286 0
0.0408163 0.693878 0
0.0408163 0.673469 0
0.0408163 0.653061 0
0.0408163 0.632653 0
0.0408163 0.612245 0
0.0408163 0.591837 0
0.0408163 0.571429 0
0.0408163 0.55102 0
0.0408163 0.530612 0
0.0408163 0.510204 0
0.0408163 0.489796 0
0.0408163 0.469388 0
0.0408163 0.44898 0
0.0408163 0.428571 0
0.0408163 0.408163 0
0.0408163 0.387755 0
0.0408163 0.367347 0
0.0408163 0.346939 0
0.0408163 0.326531 0
0.0408163 0.306122 0
0.0408163 0.285714 0
0.0408163 0.265306 0
0.0408163 0.244898 0
0.0408163 0.22449 0
0.0408163 0.204082 0
0.0408163 0.183673 0
0.0408163 0.163265 0
0.0408163 0.142857 0
0.0408163 0.122449 0
0.0408163 0.102041 0
0.0408163 0.0816327 0
0.0408163 0.0612245 0
0.0408163 0.0408163 0
0.0408163 0.0204082 0
0.0612245 0.979592 0
0.0612245 0.959184 0
0.0612245 0.938776 0
0.0612245 0.918367 0
0.0612245 0.897959 0
0.0612245 0.877551 0
0.0612245 0.857143 0
0.0612245 0.836735 0
0.0612245 0.816327 0
0.0612245 0.795918 0
0.0612245 0.77551 0
0.0612245 0.755102 0
0.0612245 0.734694 0
0.0612245 0.714286 0
0.0612245 0.693878 0
0.0612245 0.673469 0
0.0612245 0.653061 0
0.0612245 0.632653 0
0.0612245 0.612245 0
0.0612245 0.591837 0
0.0612245 0.571429 0
0.0612245 0.55102 0
0.0612245 0.530612 0
0.0612245 0.510204 0
0.0612245 0.489796 0
0.0612245 0.469388 0
0.0612245 0.44898 0
0.0612245 0.428571 0
0.0612245 0.408163 0
0.0612245 0.387755 0
0.0612245 0.367347 0
0.0612245 0.346939 0
0.0612245 0.326531 0
0.0612245 0.306122 0
0.0612245 0.285714 0
0.0612245 0.265306 0
0.0612245 0.244898 0
0.0612245 0.22449 0
0.0612245 0.204082 0
0.0612245 0.183673 0
0.0612245 0.163265 0
0.0612245 0.142857 0
0.0612245 0.122449 0
0.0612245 0.102041 0
0.0612245 0.0816327 0
0.0612245 0.0612245 0
0.0612245 0.0408163 0
0.0612245 0.0204082 0
0.0816327 0.979592 0
0.0816327 0.959184 0
0.0816327 0.938776 0
0.0816327 0.918367 0
0.0816327 0.897959 0
0.0816327 0.877551 0
0.0816327 0.857143 0
0.0816327 0.836735 0
0.0816327 0.816327 0
0.0816327 0.795918 0
0.0816327 0.77551 0
0.0816327 0.755102 0
0.0816327 0.734694 0
0.0816327 0.714286 0
0.0816327 0.693878 0
0.0816327 0.673469 0
0.0816327 0.653061 0
0.0816327 0.632653 0
0.0816327 0.612245 0
0.0816327 0.591837 0
0.0816327 0.571429 0
0.0816327 0.55102 0
0.0816327 0.530612 0
0.0816327 0.510204 0
0.0816327 0.489796 0
0.0816327 0.469388 0
0.0816327 0.44898 0
0.0816327 0.428571 0
0.0816327 0.408163 0
0.0816327 0.387755 0
0.0816327 0.367347 0
0.0816327 0.346939 0
0.0816327 0.326531 0
0.0816327 0.306122 0
0.0816327 0.285714 0
0.0816327 0.265306 0
0.0816327 0.244898 0
0.0816327 0.22449 0
0.0816327 0.204082 0
0.0816327 0.183673 0
0.0816327 0.163265 0
0.0816327 0.142857 0
0.0816327 0.122449 0
0.0816327 0.102041 0
0.0816327 0.0816327 0
0.0816327 0.0612245 0
0.0816327 0.0408163 0
0.0816327 0.0204082 0
0.102041 0.979592 0
0.102041 0.959184 0
0.102041 0.938776 0
0.102041 0.918367 0
0.102041 0.897959 0
0.102041 0.877551 0
0.102041 0.857143 0
0.102041 0.836735 0
0.102041 0.816327 0
0.102041 0.795918 0
0.102041 0.77551 0
0.102041 0.755102 0
0.102041 0.734694 0
0.102041 0.714286 0
0.102041 0.693878 0
0.102041 0.673469 0
0.102041 0.653061 0
0.102041 0.632653 0
0.102041 0.612245 0
0.102041 0.591837 0
0.102041 0.571429 0
0.102041 0.55102 0
0.102041 0.530612 0
0.102041 0.510204 0
0.102041 0.489796 0
0.102041 0.469388 0
0.102041 0.44898 0
0.102041 0.428571 0
0.102041 0.408163 0
0.102041 0.387755 0
0.102041 0.367347 0
0.102041 0.346939 0
0.102041 0.326531 0
0.102041 0.306122 0
0.102041 0.285714 0
0.102041 0.265306 0
0.102041 0.244898 0
0.102041 0.22449 0
0.102041 0.204082 0
0.102041 0.183673 0
0.102041 0.163265 0
0.102041 0.142857 0
0.102041 0.122449 0
0.102041 0.102041 0
0.102041 0.0816327 0
0.102041 0.0612245 0
0.102041 0.0408163 0
0.102041 0.0204082 0
0.122449 0.979592 0
0.122449 0.959184 0
0.122449 0.938776 0
0.122449 0.918367 0
0.122449 0.897959 0
0.122449 0.877551 0
0.122449 0.857143 0
0.122449 0.836735 0
0.122449 0.816327 0
0.122449 0.795918 0
0.122449 0.77551 0
0.122449 0.755102 0
0.122449 0.734694 0
0.122449 0.714286 0
0.122449 0.693878 0
0.122449 0.673469 0
0.122449 0.653061 0
0.122449 0.632653 0
0.122449 0.612245 0
0.122449 0.591837 0
0.122449 0.571429 0
0.122449 0.55102 0
0.122449 0.530612 0
0.122449 0.510204 0
0.122449 0.489796 0
0.122449 0.469388 0
0.122449 0.44898 0
0.122449 0.428571 0
0.122449 0.408163 0
0.122449 0.387755 0
0.122449 0.367347 0
0.122449 0.346939 0
0.122449 0.326531 0
0.122449 0.306122 0
0.122449 0.285714 0
0.122449 0.265306 0
0.122449 0.244898 0
0.122449 0.22449 0
0.122449 0.204082 0
0.122449 0.183673 0
0.122449 0.163265 0
0.122449 0.142857 0
0.122449 0.122449 0
0.122449 0.102041 0
0.122449 0.0816327 0
0.122449 0.0612245 0
0.122449 0.0408163 0
0.122449 0.0204082 0
0.142857 0.979592 0
0.142857 0.959184 0
0.142857 0.938776 0
0.142857 0.918367 0
0.142857 0.897959 0
0.142857 0.877551 0
0.142857 0.857143 0
0.142857 0.836735 0
0.142857 0.816327 0
0.142857 0.795918 0
0.142857 0.77551 0
0.142857 0.755102 0
0.142857 0.734694 0
0.142857 0.714286 0
0.142857 0.693878 0
0.142857 0.673469 0
0.142857 0.653061 0
0.142857 0.632653 0
0.142857 0.612245 0
0.142857 0.591837 0
0.142857 0.571429 0
0.142857 0.55102 0
0.142857 0.530612 0
0.142857 0.510204 0
0.142857 0.489796 0
0.142857 0.469388 0
0.142857 0.44898 0
0.142857 0.428571 0
0.142857 0.408163 0
0.142857 0.387755 0
0.142857 0.367347 0
0.142857 0.346939 0
0.142857 0.326531 0
0.142857 0.306122 0
0.142857 0.285714 0
0.142857 0.265306 0
0.142857 0.244898 0
0.142857 0.22449 0
0.142857 0.204082 0
0.142857 0.183673 0
0.142857 0.163265 0
0.142857 0.142857 0
0.142857 0.122449 0
0.142857 0.102041 0
0.142857 0.0816327 0
0.142857 0.0612245 0
0.142857 0.0408163 0
0.142857 0.0204082 0
0.163265 0.979592 0
0.163265 0.959184 0
0.163265 0.938776 0
0.163265 0.918367 0
0.163265 0.897959 0
0.163265 0.877551 0
0.163265 0.857143 0
0.163265 0.836735 0
0.163265 0.816327 0
0.163265 0.795918 0
0.163265 0.77551 0
0.163265 0.755102 0
0.163265 0.734694 0
0.163265 0.714286 0
0.163265 0.693878 0
0.163265 0.673469 0
0.163265 0.653061 0
0.163265 0.632653 0
0.163265 0.612245 0
0.163265 0.591837 0
0.163265 0.571429 0
0.163265 0.55102 0
[...]
CELL_DATA 2401
VECTORS velocity double
0.257584 0.157302 0.0
-0.00261244 0.264463 0.0
-0.0322444 0.205529 0.0
-0.0253501 0.150687 0.0
-0.0160512 0.113185 0.0
-0.00970784 0.0878378 0.0
-0.00594277 0.0707426 0.0
-0.00376513 0.0589993 0.0
-0.00248679 0.0507054 0.0
-0.00171227 0.0446809 0.0
-0.00122602 0.0401839 0.0
-0.000911012 0.0367349 0.0
-0.000702172 0.0340144 0.0
-0.000561862 0.0318034 0.0
-0.000467292 0.0299488 0.0
-0.000404025 0.0283412 0.0
-0.000362529 0.0269021 0.0
-0.000336282 0.025575 0.0
-0.00032068 0.024319 0.0
-0.000312392 0.0231054 0.0
-0.000308954 0.0219144 0.0
-0.000308519 0.0207329 0.0
-0.000309687 0.0195533 0.0
-0.000311399 0.0183719 0.0
-0.00031286 0.017188 0.0
-0.000313486 0.0160036 0.0
-0.000312862 0.014822 0.0
-0.000310714 0.0136479 0.0
-0.00030688 0.0124868 0.0
-0.000301289 0.0113446 0.0
-0.000293941 0.0102272 0.0
-0.000284889 0.00914073 0.0
-0.000274218 0.00809091 0.0
-0.000262037 0.00708329 0.0
-0.000248459 0.00612303 0.0
-0.000233588 0.00521496 0.0
-0.000217514 0.00436357 0.0
-0.000200293 0.00357311 0.0
-0.000181942 0.00284764 0.0
-0.000162427 0.00219116 0.0
-0.00014165 0.00160769 0.0
-0.000119442 0.00110145 0.0
-9.55688e-05 0.000676844 0.0
-6.97684e-05 0.000338513 0.0
-4.19109e-05 9.09364e-05 0.0
-1.24642e-05 -6.24946e-05 0.0
1.62959e-05 -0.000121712 0.0
3.77786e-05 -9.82045e-05 0.0
3.43368e-05 -3.41707e-05 0.0
0.340794 0.122984 0.0
-0.000584118 0.249552 0.0
-0.065149 0.271833 0.0
-0.0631997 0.252408 0.0
-0.0485103 0.221917 0.0
-0.0349998 0.192033 0.0
-0.0249922 0.166549 0.0
-0.0180026 0.145965 0.0
-0.0131849 0.129674 0.0
-0.00985192 0.11683 0.0
-0.00752605 0.106642 0.0
-0.0058901 0.0984572 0.0
-0.0047343 0.0917628 0.0
-0.00391797 0.0861632 0.0
-0.00334484 0.0813579 0.0
-0.00294749 0.0771198 0.0
-0.00267769 0.073278 0.0
-0.00250028 0.0697054 0.0
-0.00238914 0.0663081 0.0
-0.00232459 0.0630185 0.0
-0.00229162 0.0597893 0.0
-0.0022787 0.0565891 0.0
-0.00227691 0.0533992 0.0
-0.00227943 0.0502103 0.0
-0.00228105 0.047021 0.0
-0.0022779 0.0438354 0.0
-0.00226717 0.040662 0.0
-0.00224696 0.0375123 0.0
-0.00221608 0.0343996 0.0
-0.00217394 0.0313387 0.0
-0.00212038 0.0283446 0.0
-0.00205561 0.0254326 0.0
-0.00198005 0.0226172 0.0
-0.00189428 0.0199128 0.0
-0.00179893 0.0173326 0.0
-0.00169462 0.0148893 0.0
-0.00158191 0.0125947 0.0
-0.00146121 0.0104599 0.0
-0.00133277 0.00849557 0.0
-0.00119667 0.00671193 0.0
-0.00105281 0.00511899 0.0
-0.000900958 0.00372658 0.0
-0.000740952 0.00254414 0.0
-0.000573088 0.00158024 0.0
-0.000399008 0.000841265 0.0
-0.000223673 0.000328974 0.0
-5.94175e-05 3.57338e-05 0.0
6.71955e-05 -6.56907e-05 0.0
9.7716e-05 -3.67598e-05 0.0
0.500895 0.0768268 0.0
0.0991319 0.1833 0.0
-0.0392524 0.249378 0.0
-0.0733465 0.265939 0.0
-0.0718854 0.257649 0.0
-0.0606778 0.239817 0.0
-0.0485243 0.219705 0.0
-0.0380454 0.200602 0.0
-0.0297206 0.183724 0.0
-0.0233442 0.169293 0.0
-0.0185503 0.157103 0.0
-0.0149876 0.146803 0.0
-0.012365 0.138021 0.0
-0.0104544 0.130416 0.0
-0.0090807 0.123699 0.0
-0.00811047 0.117634 0.0
-0.00744172 0.112033 0.0
-0.0069962 0.106749 0.0
-0.00671348 0.101673 0.0
-0.00654661 0.0967218 0.0
-0.00645887 0.0918392 0.0
-0.00642155 0.0869872 0.0
-0.00641217 0.0821435 0.0
-0.00641326 0.0772986 0.0
-0.00641142 0.0724525 0.0
-0.0063966 0.067613 0.0
-0.00636148 0.0627933 0.0
-0.00630103 0.0580109 0.0
-0.00621209 0.0532856 0.0
-0.00609298 0.048639 0.0
-0.00594324 0.0440933 0.0
-0.00576326 0.0396706 0.0
-0.00555408 0.0353926 0.0
-0.00531712 0.0312801 0.0
-0.00505398 0.0273526 0.0
-0.00476626 0.0236289 0.0
-0.00445542 0.0201263 0.0
-0.00412267 0.0168612 0.0
-0.0037689 0.0138492 0.0
-0.00339469 0.011105 0.0
-0.00300041 0.00864266 0.0
-0.00258646 0.00647547 0.0
-0.00215387 0.00461545 0.0
-0.00170531 0.0030725 0.0
-0.00124718 0.00185278 0.0
-0.000793346 0.000955792 0.0
-0.000371943 0.000368958 0.0
-3.48138e-05 6.07363e-05 0.0
0.000119041 -1.4516e-05 0.0
0.610121 0.0480708 0.0
0.195818 0.134028 0.0
0.0115237 0.209542 0.0
-0.0579742 0.246616 0.0
-0.0761253 0.257136 0.0
-0.0739207 0.253614 0.0
-0.0647923 0.243234 0.0
-0.0543372 0.230245 0.0
-0.0447209 0.216912 0.0
-0.0366277 0.204298 0.0
-0.0301276 0.192805 0.0
-0.0250585 0.182491 0.0
-0.0211916 0.173248 0.0
-0.018299 0.164903 0.0
-0.016179 0.157269 0.0
-0.0146617 0.150172 0.0
-0.0136076 0.143461 0.0
-0.0129037 0.137012 0.0
-0.0124587 0.130727 0.0
-0.0121996 0.124534 0.0
-0.0120675 0.118382 0.0
-0.0120158 0.112238 0.0
-0.0120071 0.106084 0.0
-0.0120122 0.0999158 0.0
-0.0120085 0.0937383 0.0
-0.0119788 0.0875648 0.0
-0.0119108 0.0814143 0.0
-0.0117959 0.0753098 0.0
-0.0116285 0.0692772 0.0
-0.011406 0.0633439 0.0
-0.0111275 0.0575378 0.0
-0.0107938 0.0518865 0.0
-0.0104067 0.0464169 0.0
-0.00996877 0.0411548 0.0
-0.00948284 0.0361246 0.0
-0.0089518 0.0313492 0.0
-0.00837836 0.0268501 0.0
-0.00776486 0.0226475 0.0
-0.00711323 0.0187604 0.0
-0.006425 0.0152063 0.0
-0.00570158 0.0120021 0.0
-0.00494475 0.00916276 0.0
-0.00415766 0.0067017 0.0
-0.00334653 0.00462933 0.0
-0.00252355 0.00295163 0.0
-0.001712 0.0016679 0.0
-0.000954309 0.000765291 0.0
-0.00032229 0.0002172 0.0
5.86289e-05 1.38807e-05 0.0
0.680549 0.0301859 0.0
0.278648 0.0982403 0.0
0.0697764 0.171058 0.0
-0.0274392 0.217577 0.0
-0.0653816 0.240978 0.0
-0.0750016 0.249339 0.0
-0.0721235 0.248583 0.0
-0.064482 0.242814 0.0
-0.0557267 0.234616 0.0
-0.0474808 0.225491 0.0
-0.0403724 0.21625 0.0
-0.0345532 0.207282 0.0
-0.0299586 0.198732 0.0
-0.0264377 0.190612 0.0
-0.0238157 0.182865 0.0
-0.021923 0.175409 0.0
-0.0206068 0.16816 0.0
-0.0197352 0.161037 0.0
-0.0191965 0.153977 0.0
-0.0188977 0.146931 0.0
-0.018762 0.139865 0.0
-0.018727 0.13276 0.0
-0.018742 0.125611 0.0
-0.0187669 0.118422 0.0
-0.0187704 0.111207 0.0
-0.0187288 0.103986 0.0
-0.0186247 0.0967851 0.0
-0.0184462 0.0896338 0.0
-0.018186 0.0825635 0.0
-0.0178404 0.0756068 0.0
-0.0174085 0.0687964 0.0
-0.0168917 0.0621645 0.0
-0.0162931 0.0557419 0.0
-0.0156164 0.0495582 0.0
-0.0148662 0.0436412 0.0
-0.014047 0.0380168 0.0
-0.0131629 0.0327092 0.0
-0.0122178 0.0277412 0.0
-0.011215 0.0231337 0.0
-0.0101574 0.0189062 0.0
-0.00904787 0.0150769 0.0
-0.00789015 0.011662 0.0
-0.00668998 0.00867557 0.0
-0.00545739 0.00612868 0.0
-0.00421017 0.00402827 0.0
-0.00297941 0.00237592 0.0
-0.00181783 0.00116271 0.0
-0.000809148 0.000372975 0.0
-8.96835e-05 4.10477e-05 0.0
0.729957 0.0192065 0.0
0.349198 0.073072 0.0
0.12808 0.139307 0.0
0.0112311 0.188238 0.0
-0.0445255 0.219483 0.0
-0.0664988 0.236425 0.0
-0.0714151 0.243606 0.0
-0.0683404 0.2445 0.0
-0.0620522 0.241574 0.0
-0.0549892 0.236449 0.0
-0.0483267 0.230138 0.0
-0.0425648 0.223237 0.0
-0.0378511 0.216077 0.0
-0.0341568 0.208822 0.0
-0.0313728 0.201538 0.0
-0.0293596 0.194236 0.0
-0.0279738 0.186902 0.0
-0.0270808 0.179512 0.0
-0.0265604 0.172043 0.0
-0.026308 0.164478 0.0
-0.0262347 0.156808 0.0
-0.0262665 0.149034 0.0
-0.0263425 0.141166 0.0
-0.0264137 0.133221 0.0
-0.0264419 0.125225 0.0
-0.0263979 0.117206 0.0
-0.0262604 0.109199 0.0
-0.026015 0.10124 0.0
-0.0256531 0.0933647 0.0
-0.0251707 0.0856122 0.0
-0.0245675 0.078019 0.0
-0.023846 0.0706211 0.0
-0.0230107 0.0634524 0.0
-0.0220673 0.0565453 0.0
-0.0210221 0.0499298 0.0
-0.0198817 0.0436339 0.0
-0.018652 0.0376834 0.0
-0.0173386 0.0321024 0.0
-0.0159465 0.0269129 0.0
-0.0144802 0.0221355 0.0
-0.0129444 0.0177888 0.0
-0.0113449 0.0138899 0.0
-0.00968988 0.0104535 0.0
-0.00799286 0.00749188 0.0
-0.00627596 0.00501424 0.0
-0.00457545 0.00302658 0.0
-0.00294945 0.00152686 0.0
-0.00148564 0.000513265 0.0
-0.000318666 6.42902e-05 0.0
0.765966 0.0125962 0.0
0.408611 0.0556926 0.0
0.183009 0.114472 0.0
0.0526304 0.162474 0.0
-0.0175147 0.197482 0.0
-0.0510393 0.220129 0.0
-0.0641667 0.233263 0.0
-0.0665807 0.239652 0.0
-0.0638132 0.241442 0.0
-0.0589355 0.240174 0.0
-0.0535941 0.236906 0.0
-0.0486182 0.232333 0.0
-0.0443751 0.226898 0.0
-0.0409771 0.220871 0.0
-0.0384012 0.214413 0.0
-0.0365579 0.207615 0.0
-0.0353299 0.200527 0.0
-0.0345937 0.19318 0.0
-0.0342307 0.185591 0.0
-0.0341332 0.177778 0.0
-0.0342065 0.16976 0.0
-0.0343696 0.16156 0.0
-0.0345553 0.153206 0.0
-0.0347085 0.14473 0.0
-0.0347861 0.13617 0.0
-0.0347553 0.127566 0.0
-0.0345924 0.11896 0.0
-0.0342817 0.110394 0.0
-0.0338144 0.101913 0.0
-0.033187 0.0935583 0.0
-0.0324004 0.0853712 0.0
-0.0314591 0.0773907 0.0
-0.0303695 0.0696535 0.0
-0.0291396 0.0621936 0.0
-0.0277782 0.0550427 0.0
-0.0262938 0.0482297 0.0
-0.0246948 0.0417814 0.0
-0.0229886 0.0357221 0.0
-0.0211822 0.0300743 0.0
-0.0192817 0.0248587 0.0
-0.0172936 0.0200944 0.0
-0.0152255 0.0157987 0.0
-0.0130879 0.0119873 0.0
-0.0108964 0.00867415 0.0
-0.0086758 0.0058718 0.0
-0.00646444 0.00359206 0.0
-0.00432103 0.00184131 0.0
-0.00233052 0.000632223 0.0
-0.000616919 8.30433e-05 0.0
0.792985 0.008602 0.0
0.458615 0.0435807 0.0
0.233391 0.0952595 0.0
0.0941285 0.140815 0.0
0.0131051 0.176861 0.0
-0.0308169 0.20309 0.0
-0.0519577 0.220457 0.0
-0.0602096 0.231117 0.0
-0.0615622 0.23683 0.0
-0.0595446 0.23897 0.0
-0.0561795 0.238546 0.0
-0.0525802 0.236274 0.0
-0.0493175 0.232648 0.0
-0.0466441 0.228003 0.0
-0.0446301 0.222564 0.0
-0.0432455 0.216482 0.0
-0.0424091 0.209859 0.0
-0.0420176 0.202772 0.0
-0.0419626 0.195277 0.0
-0.0421396 0.187424 0.0
-0.0424536 0.179259 0.0
-0.0428215 0.170827 0.0
-0.0431729 0.162176 0.0
-0.0434499 0.153353 0.0
-0.0436069 0.144409 0.0
-0.0436095 0.135394 0.0
-0.0434333 0.126361 0.0
-0.0430628 0.117358 0.0
-0.0424901 0.108437 0.0
-0.0417134 0.0996426 0.0
-0.040736 0.0910209 0.0
-0.0395645 0.0826133 0.0
-0.0382085 0.0744586 0.0
-0.0366787 0.0665921 0.0
-0.0349866 0.0590462 0.0
-0.0331435 0.0518503 0.0
-0.0311601 0.0450311 0.0
-0.029046 0.0386127 0.0
-0.0268101 0.0326174 0.0
-0.0244603 0.0270656 0.0
-0.0220046 0.0219761 0.0
-0.019452 0.0173667 0.0
-0.0168143 0.013254 0.0
-0.0141081 0.00965419 0.0
-0.0113585 0.00658362 0.0
-0.00860315 0.00406051 0.0
-0.0058971 0.00210006 0.0
-0.00331745 0.000728518 0.0
-0.000971886 9.75621e-05 0.0
0.81396 0.00614598 0.0
0.50102 0.0349922 0.0
0.279076 0.0803943 0.0
0.134279 0.122939 0.0
0.0448664 0.158692 0.0
-0.00761693 0.186641 0.0
-0.0361825 0.206884 0.0
-0.0502463 0.220705 0.0
-0.055988 0.229528 0.0
-0.057238 0.23452 0.0
-0.0563016 0.236594 0.0
-0.0545233 0.236436 0.0
-0.0526506 0.23455 0.0
-0.0510642 0.2313 0.0
-0.0499248 0.226947 0.0
-0.0492638 0.221684 0.0
-0.0490404 0.215654 0.0
-0.0491767 0.208966 0.0
-0.0495793 0.201711 0.0
-0.0501522 0.193967 0.0
-0.0508042 0.185804 0.0
-0.0514537 0.177289 0.0
-0.0520303 0.168487 0.0
-0.0524761 0.159462 0.0
-0.0527453 0.150278 0.0
-0.0528041 0.140995 0.0
-0.0526292 0.131674 0.0
-0.0522067 0.122374 0.0
-0.0515311 0.113149 0.0
-0.0506035 0.104051 0.0
-0.0494304 0.095128 0.0
-0.048022 0.0864245 0.0
-0.0463913 0.0779806 0.0
-0.0445525 0.0698326 0.0
-0.0425204 0.0620129 0.0
-0.0403094 0.0545507 0.0
-0.0379327 0.0474722 0.0
-0.0354025 0.0408007 0.0
-0.0327295 0.0345576 0.0
-0.0299231 0.0287625 0.0
-0.0269926 0.023434 0.0
-0.0239476 0.0185898 0.0
-0.0208001 0.0142477 0.0
-0.0175665 0.0104261 0.0
-0.0142701 0.00714521 0.0
-0.0109449 0.00442961 0.0
-0.00763919 0.00230283 0.0
-0.00441861 0.000802965 0.0
-0.00137134 0.000108364 0.0
0.830769 0.00459562 0.0
0.537347 0.0287691 0.0
0.320369 0.0687858 0.0
0.172486 0.108194 0.0
0.0767755 0.142901 0.0
0.0173677 0.171358 0.0
-0.0179431 0.193423 0.0
-0.0375868 0.209512 0.0
-0.0477673 0.220718 0.0
-0.0524936 0.228013 0.0
-0.0542732 0.232193 0.0
-0.0546307 0.233889 0.0
-0.0544591 0.233587 0.0
-0.0542506 0.231654 0.0
-0.0542479 0.228371 0.0
-0.0545407 0.223953 0.0
-0.0551288 0.218569 0.0
-0.0559613 0.212357 0.0
-0.0569627 0.205432 0.0
-0.0580478 0.197895 0.0
-0.0591325 0.189839 0.0
-0.0601392 0.181348 0.0
-0.0610004 0.172506 0.0
-0.0616603 0.16339 0.0
-0.0620752 0.154077 0.0
-0.0622136 0.144638 0.0
-0.0620551 0.135143 0.0
-0.0615892 0.125657 0.0
-0.0608141 0.11624 0.0
-0.0597351 0.106951 0.0
-0.058363 0.0978381 0.0
-0.0567126 0.0889492 0.0
-0.0548011 0.0803254 0.0
-0.052647 0.0720032 0.0
-0.0502689 0.0640148 0.0
-0.0476846 0.0563885 0.0
-0.0449105 0.0491494 0.0
-0.0419609 0.0423196 0.0
-0.0388485 0.035919 0.0
-0.035584 0.0299663 0.0
-0.0321774 0.0244791 0.0
-0.0286382 0.0194753 0.0
-0.0249778 0.0149732 0.0
-0.0212103 0.0109933 0.0
-0.0173558 0.00755968 0.0
-0.0134422 0.00470238 0.0
-0.00950867 0.00245229 0.0
-0.00560687 0.000857306 0.0
-0.00180404 0.000116004 0.0
0.844611 0.00358432 0.0
0.568798 0.0241557 0.0
0.357702 0.0596177 0.0
0.208474 0.0960041 0.0
0.108076 0.129289 0.0
0.0429233 0.157613 0.0
0.00192416 0.180524 0.0
-0.0229624 0.198189 0.0
-0.0374987 0.211166 0.0
-0.0457746 0.220265 0.0
-0.0504333 0.226167 0.0
-0.0531354 0.229434 0.0
-0.0548902 0.230518 0.0
-0.0562833 0.229777 0.0
-0.0576282 0.227492 0.0
-0.0590672 0.22389 0.0
-0.0606376 0.219157 0.0
-0.0623152 0.213448 0.0
-0.0640424 0.206897 0.0
-0.0657466 0.199625 0.0
-0.0673522 0.191742 0.0
-0.0687874 0.183349 0.0
-0.0699895 0.174544 0.0
-0.0709065 0.165419 0.0
-0.0714989 0.156061 0.0
-0.071739 0.146552 0.0
-0.0716111 0.136972 0.0
-0.0711096 0.127391 0.0
-0.0702379 0.117875 0.0
-0.0690067 0.108486 0.0
-0.0674324 0.0992779 0.0
-0.0655353 0.0902976 0.0
-0.0633379 0.0815875 0.0
-0.0608636 0.0731842 0.0
-0.0581354 0.0651191 0.0
-0.0551751 0.0574192 0.0
-0.052002 0.0501079 0.0
-0.0486332 0.0432055 0.0
-0.0450829 0.0367303 0.0
-0.0413631 0.0306992 0.0
-0.0374836 0.0251288 0.0
-0.0334535 0.0200364 0.0
-0.0292818 0.015441 0.0
-0.0249797 0.0113646 0.0
-0.0205619 0.00783406 0.0
-0.0160488 0.00488436 0.0
-0.0114683 0.00255233 0.0
-0.00685672 0.000893543 0.0
-0.00225993 0.000120985 0.0
0.856272 0.00289863 0.0
0.596315 0.020652 0.0
0.391541 0.0522737 0.0
0.242218 0.085848 0.0
0.138417 0.117532 0.0
0.0685617 0.145315 0.0
0.0226514 0.16849 0.0
-0.00698666 0.187104 0.0
-0.0256994 0.201359 0.0
-0.0375024 0.211829 0.0
-0.0451115 0.219097 0.0
-0.0502842 0.223658 0.0
-0.0541202 0.225919 0.0
-0.0572801 0.226217 0.0
-0.0601366 0.224827 0.0
-0.0628773 0.221978 0.0
-0.0655726 0.217862 0.0
-0.0682225 0.212647 0.0
-0.0707865 0.206481 0.0
-0.0732046 0.199498 0.0
-0.0754099 0.191823 0.0
-0.077338 0.183573 0.0
-0.0789316 0.174857 0.0
-0.0801445 0.16578 0.0
-0.0809424 0.15644 0.0
-0.0813035 0.146928 0.0
-0.0812178 0.137332 0.0
-0.0806862 0.127728 0.0
-0.0797189 0.11819 0.0
-0.0783333 0.108779 0.0
-0.0765526 0.0995538 0.0
-0.0744036 0.0905626 0.0
-0.071915 0.0818479 0.0
-0.0691158 0.0734454 0.0
-0.0660343 0.0653855 0.0
-0.0626962 0.0576932 0.0
-0.0591245 0.0503899 0.0
-0.0553387 0.0434935 0.0
-0.0513549 0.0370202 0.0
-0.0471855 0.0309848 0.0
-0.0428401 0.0254024 0.0
-0.038326 0.0202893 0.0
-0.0336494 0.0156643 0.0
-0.028817 0.0115504 0.0
-0.0238369 0.00797684 0.0
-0.0187204 0.00498192 0.0
-0.0134829 0.00260709 0.0
-0.00814466 0.000913578 0.0
-0.00273011 0.000123724 0.0
0.866282 0.002414 0.0
0.620625 0.0179265 0.0
0.422319 0.0463022 0.0
0.273785 0.0773066 0.0
0.16758 0.107337 0.0
0.0938777 0.13433 0.0
0.0437017 0.157408 0.0
0.00991291 0.176428 0.0
-0.0127828 0.191566 0.0
-0.0280389 0.203052 0.0
-0.0386083 0.211378 0.0
-0.0463173 0.216975 0.0
-0.0523338 0.220207 0.0
-0.0573775 0.221384 0.0
-0.0618693 0.220769 0.0
-0.0660338 0.218587 0.0
-0.0699697 0.215031 0.0
-0.0736975 0.210275 0.0
-0.0771923 0.204478 0.0
-0.0804053 0.197785 0.0
-0.0832785 0.190331 0.0
-0.0857548 0.182245 0.0
-0.0877836 0.173649 0.0
-0.089325 0.164658 0.0
-0.0903514 0.15538 0.0
-0.0908479 0.145915 0.0
-0.0908121 0.136358 0.0
-0.0902527 0.126791 0.0
-0.0891878 0.117291 0.0
-0.0876431 0.107925 0.0
-0.0856496 0.0987515 0.0
-0.0832418 0.0898202 0.0
-0.0804556 0.0811732 0.0
-0.0773264 0.0728451 0.0
-0.073888 0.0648645 0.0
-0.070171 0.0572541 0.0
-0.0662019 0.0500326 0.0
-0.062003 0.0432154 0.0
-0.0575917 0.0368157 0.0
-0.0529809 0.0308459 0.0
-0.0481791 0.0253189 0.0
-0.0431915 0.0202497 0.0
-0.0380205 0.0156562 0.0
-0.032667 0.0115617 0.0
-0.0271315 0.00799644 0.0
-0.021415 0.00500113 0.0
-0.0155197 0.00262032 0.0
-0.00944912 0.000919038 0.0
-0.00320666 0.000124539 0.0
0.875007 0.0020569 0.0
0.642291 0.0157568 0.0
0.450419 0.0413711 0.0
0.303296 0.0700455 0.0
0.19547 0.0984388 0.0
0.118631 0.124496 0.0
0.0647458 0.147232 0.0
0.0271881 0.166359 0.0
0.00090656 0.181947 0.0
-0.0176901 0.194157 0.0
-0.0311901 0.203269 0.0
-0.0414581 0.209668 0.0
-0.0497126 0.213675 0.0
-0.0567191 0.215573 0.0
-0.0629359 0.215606 0.0
-0.0686174 0.213991 0.0
-0.0738849 0.210921 0.0
-0.0787761 0.206574 0.0
-0.0832786 0.201111 0.0
-0.0873534 0.194688 0.0
-0.0909508 0.187449 0.0
-0.0940207 0.179533 0.0
-0.0965196 0.171072 0.0
-0.0984147 0.162191 0.0
-0.0996859 0.153006 0.0
-0.100327 0.143626 0.0
-0.100343 0.134151 0.0
-0.0997538 0.124669 0.0
-0.0985855 0.115262 0.0
-0.0968735 0.105998 0.0
-0.0946581 0.0969373 0.0
-0.0919824 0.0881296 0.0
-0.0888905 0.0796161 0.0
-0.0854249 0.0714301 0.0
-0.0816256 0.0635974 0.0
-0.0775282 0.0561382 0.0
-0.0731634 0.049068 0.0
-0.0685559 0.0423987 0.0
-0.0637245 0.0361405 0.0
-0.0586823 0.0303028 0.0
-0.0534362 0.0248958 0.0
-0.0479886 0.0199323 0.0
-0.0423373 0.0154289 0.0
-0.0364766 0.0114081 0.0
-0.0303985 0.00790031 0.0
-0.0240929 0.00494724 0.0
-0.017548 0.00259516 0.0
-0.0107503 0.000911198 0.0
-0.00368245 0.000123659 0.0
0.882705 0.00178294 0.0
0.661745 0.01399 0.0
0.476168 0.0372336 0.0
0.330888 0.0637971 0.0
0.222054 0.0906016 0.0
0.142669 0.115638 0.0
0.0855624 0.137856 0.0
0.044611 0.156863 0.0
0.0150269 0.17262 0.0
-0.00673376 0.185269 0.0
-0.023098 0.194934 0.0
-0.0359137 0.201922 0.0
-0.0464311 0.206521 0.0
-0.0554485 0.208983 0.0
-0.0634523 0.209535 0.0
-0.0707193 0.208384 0.0
-0.077388 0.205717 0.0
-0.0835089 0.201713 0.0
-0.0890795 0.196538 0.0
-0.094069 0.190352 0.0
-0.0984345 0.183309 0.0
-0.102133 0.175557 0.0
-0.105127 0.167234 0.0
-0.107392 0.158476 0.0
-0.108917 0.149406 0.0
-0.109704 0.14014 0.0
-0.10977 0.130784 0.0
-0.109142 0.12143 0.0
-0.10786 0.112163 0.0
-0.105969 0.103053 0.0
-0.103519 0.0941605 0.0
-0.100563 0.0855356 0.0
-0.0971555 0.0772174 0.0
-0.0933455 0.069237 0.0
-0.0891802 0.0616172 0.0
-0.0847006 0.054375 0.0
-0.0799416 0.0475219 0.0
-0.0749306 0.0410665 0.0
-0.0696877 0.0350149 0.0
-0.0642256 0.029373 0.0
-0.0585495 0.024148 0.0
-0.0526583 0.0193498 0.0
-0.0465445 0.0149927 0.0
-0.0401953 0.0110978 0.0
-0.0335933 0.00769461 0.0
-0.0267166 0.00482442 0.0
-0.0195389 0.00253397 0.0
-0.0120296 0.000890977 0.0
-0.00415097 0.000121227 0.0
0.889561 0.00156465 0.0
0.679323 0.0125194 0.0
0.499837 0.0337044 0.0
0.356693 0.058349 0.0
0.247331 0.083626 0.0
0.165885 0.107594 0.0
0.105974 0.129169 0.0
0.0619544 0.147883 0.0
0.0293078 0.163612 0.0
0.00462675 0.176422 0.0
-0.0145336 0.186449 0.0
-0.0298691 0.193838 0.0
-0.0426521 0.198861 0.0
-0.0537056 0.201741 0.0
-0.0635363 0.202685 0.0
-0.0724365 0.201889 0.0
-0.0805567 0.199537 0.0
-0.0879564 0.195804 0.0
-0.0946402 0.190861 0.0
-0.100583 0.184873 0.0
-0.105748 0.177998 0.0
-0.110097 0.170393 0.0
-0.113601 0.162206 0.0
-0.116244 0.153577 0.0
-0.118023 0.144637 0.0
-0.11895 0.13551 0.0
-0.119055 0.126303 0.0
-0.118376 0.117116 0.0
-0.116964 0.108033 0.0
-0.114876 0.0991266 0.0
-0.112176 0.0904564 0.0
-0.108926 0.0820709 0.0
-0.10519 0.0740075 0.0
-0.101025 0.066294 0.0
-0.0964878 0.0589499 0.0
-0.0916236 0.0519881 0.0
-0.0864719 0.0454161 0.0
-0.081063 0.039238 0.0
-0.075418 0.0334558 0.0
-0.0695491 0.0280714 0.0
-0.0634594 0.0230882 0.0
-0.0571438 0.0185126 0.0
-0.050589 0.0143563 0.0
-0.0437745 0.0106375 0.0
-0.0366729 0.00738413 0.0
-0.0292501 0.00463583 0.0
-0.021465 0.00243847 0.0
-0.0132696 0.000858975 0.0
-0.00460604 0.000117322 0.0
0.895709 0.00138445 0.0
0.695284 0.0112684 0.0
0.521651 0.0306422 0.0
0.380833 0.0535303 0.0
0.271316 0.0773417 0.0
0.188212 0.100215 0.0
0.125854 0.121056 0.0
0.0790554 0.139342 0.0
0.0435647 0.154882 0.0
0.0161144 0.167679 0.0
-0.00569749 0.177849 0.0
-0.0234991 0.18547 0.0
-0.0385302 0.190757 0.0
-0.051626 0.193911 0.0
-0.0633048 0.195123 0.0
-0.0738682 0.194575 0.0
-0.0834735 0.192445 0.0
-0.0921853 0.188909 0.0
-0.100012 0.184137 0.0
-0.106933 0.178299 0.0
-0.112915 0.17156 0.0
-0.117926 0.164083 0.0
-0.121945 0.156022 0.0
-0.124962 0.147526 0.0
-0.126985 0.13873 0.0
-0.128039 0.129763 0.0
-0.128164 0.120738 0.0