# vtk DataFile Version 3.0
Malha 2D com triângulos e temperatura
ASCII
DATASET UNSTRUCTURED_GRID

POINTS 2500 double
0 0 0
1 0 0
1 1 0
0 1 0
0.0204082 0 0
0.0408163 0 0
0.0612245 0 0
0.0816327 0 0
0.102041 0 0
0.122449 0 0
0.142857 0 0
0.163265 0 0
0.183673 0 0
0.204082 0 0
0.22449 0 0
0.244898 0 0
0.265306 0 0
0.285714 0 0
0.306122 0 0
0.326531 0 0
0.346939 0 0
0.367347 0 0
0.387755 0 0
0.408163 0 0
0.428571 0 0
0.44898 0 0
0.469388 0 0
0.489796 0 0
0.510204 0 0
0.530612 0 0
0.55102 0 0
0.571429 0 0
0.591837 0 0
0.612245 0 0
0.632653 0 0
0.653061 0 0
0.673469 0 0
0.693878 0 0
0.714286 0 0
0.734694 0 0
0.755102 0 0
0.77551 0 0
0.795918 0 0
0.816327 0 0
0.836735 0 0
0.857143 0 0
0.877551 0 0
0.897959 0 0
0.918367 0 0
0.938776 0 0
0.959184 0 0
0.979592 0 0
1 0.0204082 0
1 0.0408163 0
1 0.0612245 0
1 0.0816327 0
1 0.102041 0
1 0.122449 0
1 0.142857 0
1 0.163265 0
1 0.183673 0
1 0.204082 0
1 0.22449 0
1 0.244898 0
1 0.265306 0
1 0.285714 0
1 0.306122 0
1 0.326531 0
1 0.346939 0
1 0.367347 0
1 0.387755 0
1 0.408163 0
1 0.428571 0
1 0.44898 0
1 0.469388 0
1 0.489796 0
1 0.510204 0
1 0.530612 0
1 0.55102 0
1 0.571429 0
1 0.591837 0
1 0.612245 0
1 0.632653 0
1 0.653061 0
1 0.673469 0
1 0.693878 0
1 0.714286 0
1 0.734694 0
1 0.755102 0
1 0.77551 0
1 0.795918 0
1 0.816327 0
1 0.836735 0
1 0.857143 0
1 0.877551 0
1 0.897959 0
1 0.918367 0
1 0.938776 0
1 0.959184 0
1 0.979592 0
0.979592 1 0
0.959184 1 0
0.938776 1 0
0.918367 1 0
0.897959 1 0
0.877551 1 0
0.857143 1 0
0.836735 1 0
0.816327 1 0
0.795918 1 0
0.77551 1 0
0.755102 1 0
0.734694 1 0
0.714286 1 0
0.693878 1 0
0.673469 1 0
0.653061 1 0
0.632653 1 0
0.612245 1 0
0.591837 1 0
0.571429 1 0
0.55102 1 0
0.530612 1 0
0.510204 1 0
0.489796 1 0
0.469388 1 0
0.44898 1 0
0.428571 1 0
0.408163 1 0
0.387755 1 0
0.367347 1 0
0.346939 1 0
0.326531 1 0
0.306122 1 0
0.285714 1 0
0.265306 1 0
0.244898 1 0
0.22449 1 0
0.204082 1 0
0.183673 1 0
0.163265 1 0
0.142857 1 0
0.122449 1 0
0.102041 1 0
0.0816327 1 0
0.0612245 1 0
0.0408163 1 0
0.0204082 1 0
0 0.979592 0
0 0.959184 0
0 0.938776 0
0 0.918367 0
0 0.897959 0
0 0.877551 0
0 0.857143 0
0 0.836735 0
0 0.816327 0
0 0.795918 0
0 0.77551 0
0 0.755102 0
0 0.734694 0
0 0.714286 0
0 0.693878 0
0 0.673469 0
0 0.653061 0
0 0.632653 0
0 0.612245 0
0 0.591837 0
0 0.571429 0
0 0.55102 0
0 0.530612 0
0 0.510204 0
0 0.489796 0
0 0.469388 0
0 0.44898 0
0 0.428571 0
0 0.408163 0
0 0.387755 0
0 0.367347 0
0 0.346939 0
0 0.326531 0
0 0.306122 0
0 0.285714 0
0 0.265306 0
0 0.244898 0
0 0.22449 0
0 0.204082 0
0 0.183673 0
0 0.163265 0
0 0.142857 0
0 0.122449 0
0 0.102041 0
0 0.0816327 0
0 0.0612245 0
0 0.0408163 0
0 0.0204082 0
0.0204082 0.979592 0
0.0204082 0.959184 0
0.0204082 0.938776 0
0.0204082 0.918367 0
0.0204082 0.897959 0
0.0204082 0.877551 0
0.0204082 0.857143 0
0.0204082 0.836735 0
0.0204082 0.816327 0
0.0204082 0.795918 0
0.0204082 0.77551 0
0.0204082 0.755102 0
0.0204082 0.734694 0
0.0204082 0.714286 0
0.0204082 0.693878 0
0.0204082 0.673469 0
0.0204082 0.653061 0
0.0204082 0.632653 0
0.0204082 0.612245 0
0.0204082 0.591837 0
0.0204082 0.571429 0
0.0204082 0.55102 0
0.0204082 0.530612 0
0.0204082 0.510204 0
0.0204082 0.489796 0
0.0204082 0.469388 0
0.0204082 0.44898 0
0.0204082 0.428571 0
0.0204082 0.408163 0
0.0204082 0.387755 0
0.0204082 0.367347 0
0.0204082 0.346939 0
0.0204082 0.326531 0
0.0204082 0.306122 0
0.0204082 0.285714 0
0.0204082 0.265306 0
0.0204082 0.244898 0
0.0204082 0.22449 0
0.0204082 0.204082 0
0.0204082 0.183673 0
0.0204082 0.163265 0
0.0204082 0.142857 0
0.0204082 0.122449 0
0.0204082 0.102041 0
0.0204082 0.0816327 0
0.0204082 0.0612245 0
0.0204082 0.0408163 0
0.0204082 0.0204082 0
0.0408163 0.979592 0
0.0408163 0.959184 0
0.0408163 0.938776 0
0.0408163 0.918367 0
0.0408163 0.897959 0
0.0408163 0.877551 0
0.0408163 0.857143 0
0.0408163 0.836735 0
0.0408163 0.816327 0
0.0408163 0.795918 0
0.0408163 0.77551 0
0.0408163 0.755102 0
0.0408163 0.734694 0
0.0408163 0.714286 0
0.0408163 0.693878 0
0.0408163 0.673469 0
0.0408163 0.653061 0
0.0408163 0.632653 0
0.0408163 0.612245 0
0.0408163 0.591837 0
0.0408163 0.571429 0
0.0408163 0.55102 0
0.0408163 0.530612 0
0.0408163 0.510204 0
0.0408163 0.489796 0
0.0408163 0.469388 0
0.0408163 0.44898 0
0.0408163 0.428571 0
0.0408163 0.408163 0
0.0408163 0.387755 0
0.0408163 0.367347 0
0.0408163 0.346939 0
0.0408163 0.326531 0
0.0408163 0.306122 0
0.0408163 0.285714 0
0.0408163 0.265306 0
0.0408163 0.244898 0
0.0408163 0.22449 0
0.0408163 0.204082 0
0.0408163 0.183673 0
0.0408163 0.163265 0
0.0408163 0.142857 0
0.0408163 0.122449 0
0.0408163 0.102041 0
0.0408163 0.0816327 0
0.0408163 0.0612245 0
0.0408163 0.0408163 0
0.0408163 0.0204082 0
0.0612245 0.979592 0
0.0612245 0.959184 0
0.0612245 0.938776 0
0.0612245 0.918367 0
0.0612245 0.897959 0
0.0612245 0.877551 0
0.0612245 0.857143 0
0.0612245 0.836735 0
0.0612245 0.816327 0
0.0612245 0.795918 0
0.0612245 0.77551 0
0.0612245 0.755102 0
0.0612245 0.734694 0
0.0612245 0.714286 0
0.0612245 0.693878 0
0.0612245 0.673469 0
0.0612245 0.653061 0
0.0612245 0.632653 0
0.0612245 0.612245 0
0.0612245 0.591837 0
0.0612245 0.571429 0
0.0612245 0.55102 0
0.0612245 0.530612 0
0.0612245 0.510204 0
0.0612245 0.489796 0
0.0612245 0.469388 0
0.0612245 0.44898 0
0.0612245 0.428571 0
0.0612245 0.408163 0
0.0612245 0.387755 0
0.0612245 0.367347 0
0.0612245 0.346939 0
0.0612245 0.326531 0
0.0612245 0.306122 0
0.0612245 0.285714 0
0.0612245 0.265306 0
0.0612245 0.244898 0
0.0612245 0.22449 0
0.0612245 0.204082 0
0.0612245 0.183673 0
0.0612245 0.163265 0
0.0612245 0.142857 0
0.0612245 0.122449 0
0.0612245 0.102041 0
0.0612245 0.0816327 0
0.0612245 0.0612245 0
0.0612245 0.0408163 0
0.0612245 0.0204082 0
0.0816327 0.979592 0
0.0816327 0.959184 0
0.0816327 0.938776 0
0.0816327 0.918367 0
0.0816327 0.897959 0
0.0816327 0.877551 0
0.0816327 0.857143 0
0.0816327 0.836735 0
0.0816327 0.816327 0
0.0816327 0.795918 0
0.0816327 0.77551 0
0.0816327 0.755102 0
0.0816327 0.734694 0
0.0816327 0.714286 0
0.0816327 0.693878 0
0.0816327 0.673469 0
0.0816327 0.653061 0
0.0816327 0.632653 0
0.0816327 0.612245 0
0.0816327 0.591837 0
0.0816327 0.571429 0
0.0816327 0.55102 0
0.0816327 0.530612 0
0.0816327 0.510204 0
0.0816327 0.489796 0
0.0816327 0.469388 0
0.0816327 0.44898 0
0.0816327 0.428571 0
0.0816327 0.408163 0
0.0816327 0.387755 0
0.0816327 0.367347 0
0.0816327 0.346939 0
0.0816327 0.326531 0
0.0816327 0.306122 0
0.0816327 0.285714 0
0.0816327 0.265306 0
0.0816327 0.244898 0
0.0816327 0.22449 0
0.0816327 0.204082 0
0.0816327 0.183673 0
0.0816327 0.163265 0
0.0816327 0.142857 0
0.0816327 0.122449 0
0.0816327 0.102041 0
0.0816327 0.0816327 0
0.0816327 0.0612245 0
0.0816327 0.0408163 0
0.0816327 0.0204082 0
0.102041 0.979592 0
0.102041 0.959184 0
0.102041 0.938776 0
0.102041 0.918367 0
0.102041 0.897959 0
0.102041 0.877551 0
0.102041 0.857143 0
0.102041 0.836735 0
0.102041 0.816327 0
0.102041 0.795918 0
0.102041 0.77551 0
0.102041 0.755102 0
0.102041 0.734694 0
0.102041 0.714286 0
0.102041 0.693878 0
0.102041 0.673469 0
0.102041 0.653061 0
0.102041 0.632653 0
0.102041 0.612245 0
0.102041 0.591837 0
0.102041 0.571429 0
0.102041 0.55102 0
0.102041 0.530612 0
0.102041 0.510204 0
0.102041 0.489796 0
0.102041 0.469388 0
0.102041 0.44898 0
0.102041 0.428571 0
0.102041 0.408163 0
0.102041 0.387755 0
0.102041 0.367347 0
0.102041 0.346939 0
0.102041 0.326531 0
0.102041 0.306122 0
0.102041 0.285714 0
0.102041 0.265306 0
0.102041 0.244898 0
0.102041 0.22449 0
0.102041 0.204082 0
0.102041 0.183673 0
0.102041 0.163265 0
0.102041 0.142857 0
0.102041 0.122449 0
0.102041 0.102041 0
0.102041 0.0816327 0
0.102041 0.0612245 0
0.102041 0.0408163 0
0.102041 0.0204082 0
0.122449 0.979592 0
0.122449 0.959184 0
0.122449 0.938776 0
0.122449 0.918367 0
0.122449 0.897959 0
0.122449 0.877551 0
0.122449 0.857143 0
0.122449 0.836735 0
0.122449 0.816327 0
0.122449 0.795918 0
0.122449 0.77551 0
0.122449 0.755102 0
0.122449 0.734694 0
0.122449 0.714286 0
0.122449 0.693878 0
0.122449 0.673469 0
0.122449 0.653061 0
0.122449 0.632653 0
0.122449 0.612245 0
0.122449 0.591837 0
0.122449 0.571429 0
0.122449 0.55102 0
0.122449 0.530612 0
0.122449 0.510204 0
0.122449 0.489796 0
0.122449 0.469388 0
0.122449 0.44898 0
0.122449 0.428571 0
0.122449 0.408163 0
0.122449 0.387755 0
0.122449 0.367347 0
0.122449 0.346939 0
0.122449 0.326531 0
0.122449 0.306122 0
0.122449 0.285714 0
0.122449 0.265306 0
0.122449 0.244898 0
0.122449 0.22449 0
0.122449 0.204082 0
0.122449 0.183673 0
0.122449 0.163265 0
0.122449 0.142857 0
0.122449 0.122449 0
0.122449 0.102041 0
0.122449 0.0816327 0
0.122449 0.0612245 0
0.122449 0.0408163 0
0.122449 0.0204082 0
0.142857 0.979592 0
0.142857 0.959184 0
0.142857 0.938776 0
0.142857 0.918367 0
0.142857 0.897959 0
0.142857 0.877551 0
0.142857 0.857143 0
0.142857 0.836735 0
0.142857 0.816327 0
0.142857 0.795918 0
0.142857 0.77551 0
0.142857 0.755102 0
0.142857 0.734694 0
0.142857 0.714286 0
0.142857 0.693878 0
0.142857 0.673469 0
0.142857 0.653061 0
0.142857 0.632653 0
0.142857 0.612245 0
0.142857 0.591837 0
0.142857 0.571429 0
0.142857 0.55102 0
0.142857 0.530612 0
0.142857 0.510204 0
0.142857 0.489796 0
0.142857 0.469388 0
0.142857 0.44898 0
0.142857 0.428571 0
0.142857 0.408163 0
0.142857 0.387755 0
0.142857 0.367347 0
0.142857 0.346939 0
0.142857 0.326531 0
0.142857 0.306122 0
0.142857 0.285714 0
0.142857 0.265306 0
0.142857 0.244898 0
0.142857 0.22449 0
0.142857 0.204082 0
0.142857 0.183673 0
0.142857 0.163265 0
0.142857 0.142857 0
0.142857 0.122449 0
0.142857 0.102041 0
0.142857 0.0816327 0
0.142857 0.0612245 0
0.142857 0.0408163 0
0.142857 0.0204082 0
0.163265 0.979592 0
0.163265 0.959184 0
0.163265 0.938776 0
0.163265 0.918367 0
0.163265 0.897959 0
0.163265 0.877551 0
0.163265 0.857143 0
0.163265 0.836735 0
0.163265 0.816327 0
0.163265 0.795918 0
0.163265 0.77551 0
0.163265 0.755102 0
0.163265 0.734694 0
0.163265 0.714286 0
0.163265 0.693878 0
0.163265 0.673469 0
0.163265 0.653061 0
0.163265 0.632653 0
0.163265 0.612245 0
0.163265 0.591837 0
0.163265 0.571429 0
0.163265 0.55102 0
[...]
CELL_DATA 2401
VECTORS velocity double
0.257585 0.157303 0.0
-0.00258623 0.264504 0.0
-0.0321998 0.205664 0.0
-0.0253037 0.150929 0.0
-0.0160169 0.113515 0.0
-0.00969273 0.088209 0.0
-0.00594787 0.0711 0.0
-0.00378788 0.0592892 0.0
-0.00252318 0.0508829 0.0
-0.00175812 0.0447118 0.0
-0.00127757 0.0400454 0.0
-0.000965167 0.0364141 0.0
-0.000756509 0.0335069 0.0
-0.000614519 0.0311118 0.0
-0.000516856 0.029081 0.0
-0.000449427 0.0273096 0.0
-0.000402964 0.0257225 0.0
-0.000371149 0.0242657 0.0
-0.000349549 0.0229004 0.0
-0.000334983 0.0215991 0.0
-0.000325126 0.0203427 0.0
-0.000318262 0.0191185 0.0
-0.000313121 0.0179187 0.0
-0.000308767 0.0167389 0.0
-0.00030452 0.0155775 0.0
-0.000299901 0.0144347 0.0
-0.000294587 0.0133124 0.0
-0.000288377 0.0122131 0.0
-0.000281165 0.0111399 0.0
-0.000272917 0.0100963 0.0
-0.000263651 0.00908585 0.0
-0.000253415 0.00811194 0.0
-0.000242278 0.00717787 0.0
-0.000230313 0.0062867 0.0
-0.000217586 0.00544131 0.0
-0.000204146 0.00464438 0.0
-0.000190019 0.00389847 0.0
-0.000175195 0.00320611 0.0
-0.000159623 0.00256988 0.0
-0.0001432 0.00199255 0.0
-0.000125764 0.00147715 0.0
-0.000107085 0.00102714 0.0
-8.68669e-05 0.000646457 0.0
-6.47794e-05 0.000339523 0.0
-4.05876e-05 0.000110957 0.0
-1.45586e-05 -3.52194e-05 0.0
1.14648e-05 -9.75567e-05 0.0
3.1814e-05 -8.4398e-05 0.0
3.0615e-05 -3.04796e-05 0.0
0.340836 0.12301 0.0
-0.000447083 0.249688 0.0
-0.0649678 0.272143 0.0
-0.0630293 0.252881 0.0
-0.0484016 0.222498 0.0
-0.0349823 0.192634 0.0
-0.0250727 0.167063 0.0
-0.0181727 0.146286 0.0
-0.0134278 0.129708 0.0
-0.010148 0.116501 0.0
-0.00785618 0.105899 0.0
-0.00623723 0.0972684 0.0
-0.00508399 0.0901156 0.0
-0.00425843 0.0840619 0.0
-0.00366656 0.0788207 0.0
-0.00324297 0.0741761 0.0
-0.00294111 0.0699664 0.0
-0.00272721 0.0660712 0.0
-0.00257641 0.0624022 0.0
-0.00247012 0.0588953 0.0
-0.00239434 0.0555053 0.0
-0.00233848 0.0522017 0.0
-0.00229455 0.0489652 0.0
-0.00225653 0.0457852 0.0
-0.00221998 0.0426574 0.0
-0.0021817 0.0395825 0.0
-0.00213949 0.0365644 0.0
-0.0020919 0.0336094 0.0
-0.00203812 0.0307254 0.0
-0.00197777 0.0279208 0.0
-0.00191083 0.0252046 0.0
-0.0018375 0.0225855 0.0
-0.00175809 0.0200718 0.0
-0.00167299 0.0176717 0.0
-0.00158254 0.0153927 0.0
-0.00148702 0.0132419 0.0
-0.00138658 0.0112262 0.0
-0.00128121 0.00935233 0.0
-0.00117071 0.00762707 0.0
-0.00105468 0.00605747 0.0
-0.000932534 0.00465098 0.0
-0.000803559 0.00341553 0.0
-0.00066706 0.00235943 0.0
-0.000522712 0.0014909 0.0
-0.000371338 0.000817004 0.0
-0.000216659 0.000341435 0.0
-6.89437e-05 6.01849e-05 0.0
4.87592e-05 -4.74974e-05 0.0
8.40083e-05 -3.09819e-05 0.0
0.501029 0.0768659 0.0
0.0994364 0.183479 0.0
-0.0388941 0.249743 0.0
-0.0730454 0.266447 0.0
-0.0717351 0.258213 0.0
-0.0607349 0.240319 0.0
-0.0488043 0.220015 0.0
-0.0385326 0.20059 0.0
-0.0303802 0.183274 0.0
-0.0241331 0.168312 0.0
-0.0194241 0.155524 0.0
-0.0159051 0.144586 0.0
-0.0132899 0.13515 0.0
-0.0113559 0.126899 0.0
-0.00993362 0.119562 0.0
-0.00889433 0.112919 0.0
-0.00814042 0.106795 0.0
-0.00759747 0.101054 0.0
-0.00720843 0.0955929 0.0
-0.00692941 0.0903364 0.0
-0.00672653 0.0852302 0.0
-0.00657368 0.0802374 0.0
-0.00645082 0.0753355 0.0
-0.00634274 0.0705124 0.0
-0.00623807 0.0657645 0.0
-0.00612856 0.0610943 0.0
-0.00600844 0.0565088 0.0
-0.00587393 0.0520179 0.0
-0.0057228 0.0476335 0.0
-0.00555403 0.0433684 0.0
-0.00536745 0.0392359 0.0
-0.0051635 0.035249 0.0
-0.00494294 0.0314202 0.0
-0.00470669 0.0277616 0.0
-0.00445565 0.0242843 0.0
-0.00419051 0.020999 0.0
-0.00391172 0.0179161 0.0
-0.00361933 0.0150454 0.0
-0.00331303 0.0123969 0.0
-0.0029921 0.00998052 0.0
-0.00265558 0.00780667 0.0
-0.00230247 0.00588577 0.0
-0.00193224 0.00422821 0.0
-0.0015458 0.00284348 0.0
-0.00114726 0.00173868 0.0
-0.000747409 0.000916056 0.0
-0.000369802 0.000367834 0.0
-5.94593e-05 7.02883e-05 0.0
9.53409e-05 -9.96191e-06 0.0
0.610358 0.0481095 0.0
0.196287 0.134195 0.0
0.0120402 0.20985 0.0
-0.0576021 0.247008 0.0
-0.0760212 0.257495 0.0
-0.0741594 0.253806 0.0
-0.065393 0.243114 0.0
-0.0552744 0.229676 0.0
-0.0459402 0.215772 0.0
-0.0380606 0.20249 0.0
-0.0317019 0.19026 0.0
-0.0267053 0.179168 0.0
-0.0228489 0.169134 0.0
-0.0199134 0.16001 0.0
-0.0177057 0.15163 0.0
-0.016064 0.14384 0.0
-0.0148563 0.136504 0.0
-0.0139763 0.12951 0.0
-0.0133391 0.12277 0.0
-0.012877 0.116218 0.0
-0.0125365 0.109807 0.0
-0.0122755 0.103504 0.0
-0.0120613 0.0972919 0.0
-0.0118686 0.0911633 0.0
-0.0116786 0.0851186 0.0
-0.0114773 0.0791647 0.0
-0.011255 0.0733128 0.0
-0.0110054 0.0675772 0.0
-0.0107247 0.061974 0.0
-0.0104113 0.0565202 0.0
-0.010065 0.0512327 0.0
-0.00968658 0.0461282 0.0
-0.00927747 0.0412227 0.0
-0.00883933 0.0365313 0.0
-0.00837378 0.0320682 0.0
-0.00788217 0.0278467 0.0
-0.00736536 0.0238796 0.0
-0.00682367 0.0201791 0.0
-0.00625684 0.0167571 0.0
-0.00566407 0.0136257 0.0
-0.00504433 0.0107967 0.0
-0.00439679 0.00828178 0.0
-0.00372173 0.00609223 0.0
-0.00302207 0.0042378 0.0
-0.00230606 0.00272547 0.0
-0.00159178 0.00155742 0.0
-0.000914578 0.000725905 0.0
-0.000336429 0.0002121 0.0
3.17818e-05 1.58727e-05 0.0
0.680872 0.0302161 0.0
0.279237 0.0983615 0.0
0.070362 0.171256 0.0
-0.0270888 0.21776 0.0
-0.0654319 0.241021 0.0
-0.0755399 0.249098 0.0
-0.073167 0.247911 0.0
-0.0659921 0.241574 0.0
-0.0576277 0.232691 0.0
-0.0496774 0.222787 0.0
-0.0427639 0.212703 0.0
-0.0370421 0.202857 0.0
-0.0324561 0.193421 0.0
-0.028866 0.184433 0.0
-0.0261088 0.17586 0.0
-0.0240263 0.16764 0.0
-0.0224767 0.159703 0.0
-0.0213378 0.151984 0.0
-0.0205072 0.144429 0.0
-0.0199003 0.136995 0.0
-0.0194483 0.129654 0.0
-0.0190957 0.122388 0.0
-0.0187989 0.115189 0.0
-0.0185237 0.108061 0.0
-0.0182444 0.10101 0.0
-0.0179421 0.0940515 0.0
-0.0176035 0.0872016 0.0
-0.0172202 0.0804801 0.0
-0.0167872 0.0739078 0.0
-0.0163025 0.0675056 0.0
-0.0157663 0.0612943 0.0
-0.0151801 0.0552938 0.0
-0.0145462 0.049523 0.0
-0.0138673 0.0439993 0.0
-0.013146 0.0387393 0.0
-0.0123845 0.0337582 0.0
-0.0115844 0.0290705 0.0
-0.0107465 0.0246898 0.0
-0.00987067 0.0206294 0.0
-0.00895644 0.0169022 0.0
-0.00800294 0.0135208 0.0
-0.00700988 0.0104975 0.0
-0.00597867 0.00784393 0.0
-0.00491443 0.00557004 0.0
-0.00382916 0.00368352 0.0
-0.00274675 0.00218849 0.0
-0.00171059 0.00108074 0.0
-0.000792172 0.000351391 0.0
-0.000110781 4.01949e-05 0.0
0.730333 0.0192225 0.0
0.349843 0.0731258 0.0
0.128653 0.139352 0.0
0.0114554 0.188163 0.0
-0.0448439 0.219157 0.0
-0.0674534 0.235699 0.0
-0.0730157 0.242337 0.0
-0.0705325 0.242559 0.0
-0.0647371 0.238851 0.0
-0.0580448 0.232861 0.0
-0.0516233 0.225627 0.0
-0.0459764 0.217777 0.0
-0.0412619 0.209668 0.0
-0.0374648 0.201491 0.0
-0.0344902 0.193332 0.0
-0.0322136 0.185225 0.0
-0.0305057 0.177171 0.0
-0.029245 0.16916 0.0
-0.0283235 0.161178 0.0
-0.0276481 0.153215 0.0
-0.0271407 0.145268 0.0
-0.0267369 0.137338 0.0
-0.0263852 0.129435 0.0
-0.0260449 0.121572 0.0
-0.0256851 0.113769 0.0
-0.0252833 0.106047 0.0
-0.0248238 0.0984325 0.0
-0.0242967 0.0909496 0.0
-0.0236968 0.0836246 0.0
-0.0230224 0.0764828 0.0
-0.0222745 0.0695486 0.0
-0.0214557 0.0628449 0.0
-0.0205698 0.0563929 0.0
-0.0196209 0.0502125 0.0
-0.0186129 0.0443214 0.0
-0.0175491 0.0387365 0.0
-0.016432 0.033473 0.0
-0.0152631 0.0285455 0.0
-0.0140429 0.0239678 0.0
-0.0127713 0.019753 0.0
-0.0114477 0.0159141 0.0
-0.0100725 0.0124636 0.0
-0.00864824 0.00941329 0.0
-0.00718164 0.00677392 0.0
-0.00568734 0.00455488 0.0
-0.00419261 0.00276403 0.0
-0.00274438 0.00140315 0.0
-0.00141643 0.000475687 0.0
-0.000325092 6.07919e-05 0.0
0.766352 0.0125966 0.0
0.409235 0.0556725 0.0
0.183472 0.114355 0.0
0.052615 0.162137 0.0
-0.0182116 0.196783 0.0
-0.0525178 0.21892 0.0
-0.0664246 0.231411 0.0
-0.0695461 0.237041 0.0
-0.0673636 0.237971 0.0
-0.0629214 0.23577 0.0
-0.0578577 0.231524 0.0
-0.0530057 0.225955 0.0
-0.0487445 0.219532 0.0
-0.0452024 0.212551 0.0
-0.0423739 0.205195 0.0
-0.0401871 0.197573 0.0
-0.0385419 0.189752 0.0
-0.0373312 0.181775 0.0
-0.0364518 0.17367 0.0
-0.0358104 0.165461 0.0
-0.0353257 0.157172 0.0
-0.0349294 0.148827 0.0
-0.0345656 0.140453 0.0
-0.0341902 0.132079 0.0
-0.0337695 0.123737 0.0
-0.0332789 0.115458 0.0
-0.032702 0.107275 0.0
-0.0320288 0.0992209 0.0
-0.0312547 0.0913273 0.0
-0.0303792 0.0836238 0.0
-0.0294048 0.0761385 0.0
-0.0283363 0.0688971 0.0
-0.0271791 0.0619231 0.0
-0.0259392 0.0552376 0.0
-0.0246223 0.04886 0.0
-0.0232332 0.0428075 0.0
-0.0217757 0.037096 0.0
-0.020252 0.0317402 0.0
-0.0186634 0.0267537 0.0
-0.0170102 0.0221499 0.0
-0.0152924 0.0179414 0.0
-0.0135108 0.0141408 0.0
-0.0116683 0.0107605 0.0
-0.00977265 0.00781223 0.0
-0.00783938 0.00530815 0.0
-0.00589632 0.00326092 0.0
-0.00398961 0.00167958 0.0
-0.00218922 0.000580287 0.0
-0.000600507 7.72772e-05 0.0
0.793339 0.00858751 0.0
0.459142 0.043488 0.0
0.233652 0.0949823 0.0
0.0937761 0.140227 0.0
0.0119103 0.175823 0.0
-0.0329178 0.201443 0.0
-0.0549588 0.218078 0.0
-0.0640221 0.227905 0.0
-0.06604 0.2327 0.0
-0.0645118 0.23386 0.0
-0.0614509 0.232421 0.0
-0.0579754 0.229126 0.0
-0.0546698 0.224493 0.0
-0.0518046 0.218881 0.0
-0.0494703 0.212535 0.0
-0.0476573 0.205625 0.0
-0.0463045 0.198269 0.0
-0.045328 0.190555 0.0
-0.0446376 0.182549 0.0
-0.0441462 0.174309 0.0
-0.0437752 0.165883 0.0
-0.0434565 0.157318 0.0
-0.0431338 0.148662 0.0
-0.0427622 0.139957 0.0
-0.0423077 0.131249 0.0
-0.0417459 0.12258 0.0
-0.0410612 0.113993 0.0
-0.040245 0.105526 0.0
-0.0392946 0.0972178 0.0
-0.0382119 0.0891023 0.0
-0.0370019 0.0812111 0.0
-0.0356718 0.0735726 0.0
-0.0342299 0.0662123 0.0
-0.0326845 0.0591525 0.0
-0.0310434 0.0524133 0.0
-0.0293135 0.0460122 0.0
-0.0274997 0.0399649 0.0
-0.0256057 0.0342859 0.0
-0.0236335 0.0289885 0.0
-0.0215838 0.0240854 0.0
-0.0194568 0.0195891 0.0
-0.0172535 0.015512 0.0
-0.0149767 0.0118671 0.0
-0.0126337 0.00866789 0.0
-0.0102391 0.00592941 0.0
-0.00781862 0.00366973 0.0
-0.00541388 0.00190539 0.0
-0.00308641 0.000664316 0.0
-0.000925581 8.99392e-05 0.0
0.814241 0.00611857 0.0
0.501373 0.0348333 0.0
0.279049 0.0799681 0.0
0.133506 0.122119 0.0
0.0431127 0.157341 0.0
-0.0104442 0.184633 0.0
-0.0400057 0.204062 0.0
-0.0549653 0.216991 0.0
-0.0614377 0.224853 0.0
-0.0632188 0.228835 0.0
-0.0626033 0.229876 0.0
-0.060941 0.228684 0.0
-0.058994 0.225787 0.0
-0.0571632 0.22157 0.0
-0.0556319 0.216315 0.0
-0.0544545 0.21023 0.0
-0.0536132 0.203474 0.0
-0.0530521 0.196169 0.0
-0.052699 0.188413 0.0
-0.0524778 0.180292 0.0
-0.0523164 0.171879 0.0
-0.0521509 0.163243 0.0
-0.0519276 0.154448 0.0
-0.0516037 0.145553 0.0
-0.0511472 0.136617 0.0
-0.0505359 0.127694 0.0
-0.0497568 0.118833 0.0
-0.0488043 0.110083 0.0
-0.0476791 0.101487 0.0
-0.0463864 0.0930838 0.0
-0.044935 0.0849082 0.0
-0.0433355 0.0769914 0.0
-0.0415996 0.0693603 0.0
-0.0397386 0.0620383 0.0
-0.037763 0.0550456 0.0
-0.0356819 0.0483996 0.0
-0.0335021 0.0421156 0.0
-0.0312285 0.0362072 0.0
-0.028864 0.030687 0.0
-0.0264097 0.0255668 0.0
-0.0238658 0.0208587 0.0
-0.0212327 0.0165751 0.0
-0.0185122 0.0127294 0.0
-0.0157101 0.00933687 0.0
-0.0128381 0.0064157 0.0
-0.00991749 0.00398914 0.0
-0.00698246 0.00208078 0.0
-0.00408288 0.000728673 0.0
-0.00128929 9.92641e-05 0.0
0.830944 0.00455809 0.0
0.53746 0.0285545 0.0
0.319976 0.0682319 0.0
0.171216 0.107174 0.0
0.0743949 0.141288 0.0
0.0137956 0.169026 0.0
-0.0226324 0.190249 0.0
-0.0432496 0.205401 0.0
-0.0542146 0.215623 0.0
-0.0595032 0.221896 0.0
-0.061612 0.22504 0.0
-0.062071 0.225706 0.0
-0.0617891 0.224401 0.0
-0.0612804 0.221512 0.0
-0.0608121 0.21734 0.0
-0.0604995 0.212114 0.0
-0.0603676 0.206018 0.0
-0.0603903 0.199201 0.0
-0.0605157 0.191787 0.0
-0.0606813 0.183883 0.0
-0.0608247 0.175587 0.0
-0.0608885 0.166984 0.0
-0.0608242 0.158156 0.0
-0.0605933 0.149178 0.0
-0.0601681 0.14012 0.0
-0.0595307 0.131047 0.0
-0.0586723 0.122019 0.0
-0.0575919 0.113089 0.0
-0.0562949 0.104308 0.0
-0.0547914 0.0957194 0.0
-0.0530947 0.0873608 0.0
-0.0512202 0.0792656 0.0
-0.0491834 0.071462 0.0
-0.0469996 0.063974 0.0
-0.0446825 0.0568216 0.0
-0.0422437 0.0500217 0.0
-0.0396923 0.0435886 0.0
-0.0370345 0.0375348 0.0
-0.0342739 0.0318718 0.0
-0.031412 0.0266103 0.0
-0.0284486 0.0217616 0.0
-0.0253828 0.0173377 0.0
-0.0222148 0.0133526 0.0
-0.0189472 0.0098232 0.0
-0.0155875 0.00677047 0.0
-0.0121505 0.00422231 0.0
-0.0086607 0.00220839 0.0
-0.00515425 0.000775001 0.0
-0.00168154 0.000105755 0.0
0.844652 0.00353975 0.0
0.568614 0.0238983 0.0
0.356878 0.0589627 0.0
0.206647 0.094828 0.0
0.105016 0.127474 0.0
0.0385517 0.155046 0.0
-0.00370426 0.177118 0.0
-0.0296023 0.193811 0.0
-0.0449574 0.205788 0.0
-0.0538141 0.213866 0.0
-0.0588022 0.218741 0.0
-0.0615862 0.220994 0.0
-0.0631918 0.221094 0.0
-0.0642274 0.219417 0.0
-0.0650329 0.216262 0.0
-0.0657781 0.211871 0.0
-0.0665278 0.206442 0.0
-0.0672847 0.200142 0.0
-0.0680175 0.193115 0.0
-0.0686786 0.185486 0.0
-0.0692164 0.17737 0.0
-0.0695822 0.16887 0.0
-0.0697343 0.160083 0.0
-0.0696406 0.151098 0.0
-0.0692793 0.141997 0.0
-0.0686384 0.132854 0.0
-0.0677154 0.123739 0.0
-0.0665152 0.114714 0.0
-0.0650496 0.105832 0.0
-0.0633345 0.0971416 0.0
-0.0613894 0.0886845 0.0
-0.0592348 0.0804954 0.0
-0.0568916 0.0726034 0.0
-0.0543793 0.0650326 0.0
-0.0517156 0.0578026 0.0
-0.0489151 0.0509292 0.0
-0.0459891 0.0444255 0.0
-0.0429455 0.0383023 0.0
-0.0397887 0.0325696 0.0
-0.03652 0.0272368 0.0
-0.0331384 0.0223139 0.0
-0.0296415 0.0178126 0.0
-0.0260265 0.0137471 0.0
-0.022292 0.0101352 0.0
-0.0184398 0.0070005 0.0
-0.0144764 0.00437453 0.0
-0.0104154 0.00229187 0.0
-0.0062777 0.000805132 0.0
-0.00209333 0.000109861 0.0
0.85616 0.00284985 0.0
0.595791 0.0203644 0.0
0.390236 0.0515443 0.0
0.23979 0.0845556 0.0
0.134647 0.115567 0.0
0.0633873 0.14258 0.0
0.01615 0.164902 0.0
-0.0146046 0.182578 0.0
-0.0341659 0.195829 0.0
-0.0465589 0.205292 0.0
-0.054491 0.211558 0.0
-0.0597228 0.21513 0.0
-0.0633695 0.216436 0.0
-0.0661152 0.215826 0.0
-0.0683603 0.213591 0.0
-0.0703212 0.209975 0.0
-0.0720979 0.205182 0.0
-0.0737193 0.199392 0.0
-0.0751734 0.19276 0.0
-0.0764275 0.185429 0.0
-0.0774414 0.177526 0.0
-0.0781756 0.169171 0.0
-0.0785968 0.160473 0.0
-0.0786807 0.151533 0.0
-0.0784129 0.142445 0.0
-0.0777889 0.133293 0.0
-0.0768138 0.124155 0.0
-0.0755003 0.115098 0.0
-0.0738676 0.106183 0.0
-0.0719392 0.0974618 0.0
-0.0697415 0.0889774 0.0
-0.0673017 0.0807666 0.0
-0.0646465 0.0728591 0.0
-0.0618007 0.0652787 0.0
-0.0587862 0.0580438 0.0
-0.0556211 0.0511691 0.0
-0.0523193 0.0446656 0.0
-0.0488905 0.0385424 0.0
-0.0453396 0.0328075 0.0
-0.0416677 0.0274686 0.0
-0.0378727 0.0225342 0.0
-0.0339495 0.0180152 0.0
-0.029892 0.0139253 0.0
-0.0256936 0.0102831 0.0
-0.0213491 0.00711382 0.0
-0.0168559 0.00445173 0.0
-0.0122152 0.00233503 0.0
-0.00743229 0.000820803 0.0
-0.00251671 0.000111954 0.0
0.866006 0.00236362 0.0
0.619731 0.0176213 0.0
0.420499 0.0455259 0.0
0.270726 0.0759416 0.0
0.163082 0.105284 0.0
0.0878887 0.131506 0.0
0.0363078 0.153744 0.0
0.00130366 0.171877 0.0
-0.0222449 0.186025 0.0
-0.0380884 0.196524 0.0
-0.0489688 0.203879 0.0
-0.0567118 0.208523 0.0
-0.0624993 0.210835 0.0
-0.0670743 0.211138 0.0
-0.0708858 0.209709 0.0
-0.0741886 0.206785 0.0
-0.0771122 0.202573 0.0
-0.0797082 0.197258 0.0
-0.0819818 0.191006 0.0
-0.0839138 0.18397 0.0
-0.0854753 0.176291 0.0
-0.0866365 0.168099 0.0
-0.0873731 0.159516 0.0
-0.0876694 0.150656 0.0
-0.0875199 0.14162 0.0
-0.0869291 0.132504 0.0
-0.0859109 0.123391 0.0
-0.0844875 0.114356 0.0
-0.0826867 0.105464 0.0
-0.0805411 0.0967701 0.0
-0.078085 0.0883195 0.0
-0.0753535 0.0801501 0.0
-0.0723798 0.0722914 0.0
-0.0691949 0.0647665 0.0
-0.0658255 0.0575926 0.0
-0.0622935 0.0507821 0.0
-0.0586158 0.0443441 0.0
-0.0548036 0.0382853 0.0
-0.0508626 0.0326112 0.0
-0.0467933 0.0273274 0.0
-0.0425919 0.0224408 0.0
-0.0382504 0.0179605 0.0
-0.0337584 0.0138998 0.0
-0.0291033 0.0102771 0.0
-0.0242721 0.00711838 0.0
-0.019252 0.00445965 0.0
-0.0140311 0.00234139 0.0
-0.00859886 0.000823509 0.0
-0.0029446 0.00011232 0.0
0.874561 0.00200711 0.0
0.641009 0.0154453 0.0
0.448064 0.040574 0.0
0.299593 0.0686482 0.0
0.190242 0.0963515 0.0
0.111844 0.121648 0.0
0.0565021 0.143566 0.0
0.0176969 0.161834 0.0
-0.00954275 0.176531 0.0
-0.0287071 0.187776 0.0
-0.042496 0.195956 0.0
-0.0527698 0.201445 0.0
-0.0607565 0.204575 0.0
-0.0672429 0.205638 0.0
-0.0727152 0.204891 0.0
-0.0774584 0.202564 0.0
-0.0816258 0.198862 0.0
-0.0852872 0.193971 0.0
-0.0884623 0.188065 0.0
-0.0911441 0.181304 0.0
-0.0933137 0.17384 0.0
-0.0949511 0.165814 0.0
-0.0960412 0.157359 0.0
-0.096578 0.148597 0.0
-0.0965656 0.139641 0.0
-0.0960188 0.130592 0.0
-0.094962 0.121544 0.0
-0.0934278 0.112574 0.0
-0.0914545 0.103752 0.0
-0.0890846 0.0951361 0.0
-0.086362 0.0867734 0.0
-0.0833302 0.0787017 0.0
-0.0800303 0.0709502 0.0
-0.0764998 0.0635406 0.0
-0.0727708 0.0564881 0.0
-0.0688697 0.0498028 0.0
-0.0648162 0.0434912 0.0
-0.0606234 0.0375571 0.0
-0.0562974 0.0320034 0.0
-0.0518381 0.0268329 0.0
-0.0472396 0.0220503 0.0
-0.0424905 0.0176628 0.0
-0.0375752 0.0136823 0.0
-0.0324748 0.0101265 0.0
-0.0271675 0.00702134 0.0
-0.0216297 0.00440325 0.0
-0.0158362 0.00231388 0.0
-0.00975986 0.000814444 0.0
-0.00337069 0.000111171 0.0
0.88209 0.00173565 0.0
0.66007 0.013683 0.0
0.473271 0.0364404 0.0
0.326541 0.0624072 0.0
0.216107 0.0885342 0.0
0.135105 0.112833 0.0
0.0764966 0.134271 0.0
0.0342645 0.152465 0.0
0.00369594 0.167391 0.0
-0.0186617 0.179153 0.0
-0.0352984 0.187934 0.0
-0.048094 0.194068 0.0
-0.0583083 0.19784 0.0
-0.0667594 0.199513 0.0
-0.0739606 0.199325 0.0
-0.0802193 0.197494 0.0
-0.0857066 0.194219 0.0
-0.0905063 0.18969 0.0
-0.0946498 0.184082 0.0
-0.0981397 0.177565 0.0
-0.100966 0.170296 0.0
-0.103119 0.162427 0.0
-0.104592 0.1541 0.0
-0.105389 0.145447 0.0
-0.105525 0.136588 0.0
-0.105027 0.127633 0.0
-0.10393 0.11868 0.0
-0.10228 0.109812 0.0
-0.100125 0.101103 0.0
-0.0975204 0.0926109 0.0
-0.09452 0.0843854 0.0
-0.091177 0.0764637 0.0
-0.0875412 0.0688739 0.0
-0.0836573 0.0616357 0.0
-0.0795634 0.0547618 0.0
-0.0752905 0.0482595 0.0
-0.0708616 0.0421321 0.0
-0.0662915 0.0363803 0.0
-0.0615868 0.0310037 0.0
-0.0567464 0.0260021 0.0
-0.051762 0.0213773 0.0
-0.0466183 0.0171343 0.0
-0.0412944 0.0132829 0.0
-0.035764 0.00983944 0.0
-0.0299963 0.00682869 0.0
-0.0239563 0.00428663 0.0
-0.017605 0.00225482 0.0
-0.0108991 0.0007945 0.0
-0.00378919 0.000108647 0.0
0.888782 0.00152145 0.0
0.677262 0.0122264 0.0
0.496408 0.0329381 0.0
0.351717 0.0570038 0.0
0.24069 0.0816298 0.0
0.157582 0.104899 0.0
0.0961361 0.125743 0.0
0.0508127 0.143704 0.0
0.0171628 0.158665 0.0
-0.00818244 0.170703 0.0
-0.0275796 0.17989 0.0
-0.0428652 0.186485 0.0
-0.0553126 0.190737 0.0
-0.065759 0.192877 0.0
-0.0747358 0.193125 0.0
-0.0825652 0.191685 0.0
-0.0894305 0.188752 0.0
-0.0954251 0.184514 0.0
-0.100589 0.179151 0.0
-0.104932 0.172835 0.0
-0.108452 0.165734 0.0
-0.111148 0.158006 0.0
-0.113023 0.149802 0.0
-0.114091 0.141262 0.0
-0.11438 0.132513 0.0
-0.113928 0.123673 0.0
-0.112784 0.114842 0.0
-0.111006 0.106111 0.0
-0.108656 0.0975526 0.0
-0.105802 0.0892289 0.0
-0.10251 0.0811881 0.0
-0.098842 0.0734667 0.0
-0.0948586 0.0660911 0.0
-0.0906121 0.0590783 0.0
-0.0861471 0.0524382 0.0
-0.0814994 0.0461747 0.0
-0.0766955 0.0402874 0.0
-0.0717519 0.0347733 0.0
-0.0666756 0.0296285 0.0
-0.0614645 0.0248493 0.0
-0.0561073 0.0204342 0.0
-0.0505847 0.0163854 0.0
-0.0448698 0.0127102 0.0
-0.0389288 0.00942244 0.0
-0.0327212 0.00654524 0.0
-0.0262005 0.00411292 0.0
-0.0193137 0.00216595 0.0
-0.0120012 0.00076429 0.0
-0.00419473 0.000104828 0.0
0.894779 0.00134661 0.0
0.692855 0.0109977 0.0
0.51771 0.0299235 0.0
0.375257 0.0522637 0.0
0.26402 0.0754636 0.0
0.179219 0.0976878 0.0
0.115304 0.117858 0.0
0.067187 0.135458 0.0
0.030684 0.150301 0.0
0.002564 0.162402 0.0
-0.0195131 0.171835 0.0
-0.0372459 0.178727 0.0
-0.0519164 0.183309 0.0
-0.0643721 0.185781 0.0
-0.0751539 0.186344 0.0
-0.0845925 0.185192 0.0
-0.0928776 0.182513 0.0
-0.100109 0.178493 0.0
-0.10633 0.173315 0.0
-0.111558 0.167156 0.0
-0.115797 0.16019 0.0
-0.119052 0.152583 0.0
-0.121338 0.144493 0.0
-0.122679 0.136067 0.0
-0.123115 0.12744 0.0
-0.122699 0.118733 0.0