# vtk DataFile Version 3.0
Malha 2D com triângulos e temperatura
ASCII
DATASET UNSTRUCTURED_GRID

POINTS 2500 double
0 0 0
1 0 0
1 1 0
0 1 0
0.0204082 0 0
0.0408163 0 0
0.0612245 0 0
0.0816327 0 0
0.102041 0 0
0.122449 0 0
0.142857 0 0
0.163265 0 0
0.183673 0 0
0.204082 0 0
0.22449 0 0
0.244898 0 0
0.265306 0 0
0.285714 0 0
0.306122 0 0
0.326531 0 0
0.346939 0 0
0.367347 0 0
0.387755 0 0
0.408163 0 0
0.428571 0 0
0.44898 0 0
0.469388 0 0
0.489796 0 0
0.510204 0 0
0.530612 0 0
0.55102 0 0
0.571429 0 0
0.591837 0 0
0.612245 0 0
0.632653 0 0
0.653061 0 0
0.673469 0 0
0.693878 0 0
0.714286 0 0
0.734694 0 0
0.755102 0 0
0.77551 0 0
0.795918 0 0
0.816327 0 0
0.836735 0 0
0.857143 0 0
0.877551 0 0
0.897959 0 0
0.918367 0 0
0.938776 0 0
0.959184 0 0
0.979592 0 0
1 0.0204082 0
1 0.0408163 0
1 0.0612245 0
1 0.0816327 0
1 0.102041 0
1 0.122449 0
1 0.142857 0
1 0.163265 0
1 0.183673 0
1 0.204082 0
1 0.22449 0
1 0.244898 0
1 0.265306 0
1 0.285714 0
1 0.306122 0
1 0.326531 0
1 0.346939 0
1 0.367347 0
1 0.387755 0
1 0.408163 0
1 0.428571 0
1 0.44898 0
1 0.469388 0
1 0.489796 0
1 0.510204 0
1 0.530612 0
1 0.55102 0
1 0.571429 0
1 0.591837 0
1 0.612245 0
1 0.632653 0
1 0.653061 0
1 0.673469 0
1 0.693878 0
1 0.714286 0
1 0.734694 0
1 0.755102 0
1 0.77551 0
1 0.795918 0
1 0.816327 0
1 0.836735 0
1 0.857143 0
1 0.877551 0
1 0.897959 0
1 0.918367 0
1 0.938776 0
1 0.959184 0
1 0.979592 0
0.979592 1 0
0.959184 1 0
0.938776 1 0
0.918367 1 0
0.897959 1 0
0.877551 1 0
0.857143 1 0
0.836735 1 0
0.816327 1 0
0.795918 1 0
0.77551 1 0
0.755102 1 0
0.734694 1 0
0.714286 1 0
0.693878 1 0
0.673469 1 0
0.653061 1 0
0.632653 1 0
0.612245 1 0
0.591837 1 0
0.571429 1 0
0.55102 1 0
0.530612 1 0
0.510204 1 0
0.489796 1 0
0.469388 1 0
0.44898 1 0
0.428571 1 0
0.408163 1 0
0.387755 1 0
0.367347 1 0
0.346939 1 0
0.326531 1 0
0.306122 1 0
0.285714 1 0
0.265306 1 0
0.244898 1 0
0.22449 1 0
0.204082 1 0
0.183673 1 0
0.163265 1 0
0.142857 1 0
0.122449 1 0
0.102041 1 0
0.0816327 1 0
0.0612245 1 0
0.0408163 1 0
0.0204082 1 0
0 0.979592 0
0 0.959184 0
0 0.938776 0
0 0.918367 0
0 0.897959 0
0 0.877551 0
0 0.857143 0
0 0.836735 0
0 0.816327 0
0 0.795918 0
0 0.77551 0
0 0.755102 0
0 0.734694 0
0 0.714286 0
0 0.693878 0
0 0.673469 0
0 0.653061 0
0 0.632653 0
0 0.612245 0
0 0.591837 0
0 0.571429 0
0 0.55102 0
0 0.530612 0
0 0.510204 0
0 0.489796 0
0 0.469388 0
0 0.44898 0
0 0.428571 0
0 0.408163 0
0 0.387755 0
0 0.367347 0
0 0.346939 0
0 0.326531 0
0 0.306122 0
0 0.285714 0
0 0.265306 0
0 0.244898 0
0 0.22449 0
0 0.204082 0
0 0.183673 0
0 0.163265 0
0 0.142857 0
0 0.122449 0
0 0.102041 0
0 0.0816327 0
0 0.0612245 0
0 0.0408163 0
0 0.0204082 0
0.0204082 0.979592 0
0.0204082 0.959184 0
0.0204082 0.938776 0
0.0204082 0.918367 0
0.0204082 0.897959 0
0.0204082 0.877551 0
0.0204082 0.857143 0
0.0204082 0.836735 0
0.0204082 0.816327 0
0.0204082 0.795918 0
0.0204082 0.77551 0
0.0204082 0.755102 0
0.0204082 0.734694 0
0.0204082 0.714286 0
0.0204082 0.693878 0
0.0204082 0.673469 0
0.0204082 0.653061 0
0.0204082 0.632653 0
0.0204082 0.612245 0
0.0204082 0.591837 0
0.0204082 0.571429 0
0.0204082 0.55102 0
0.0204082 0.530612 0
0.0204082 0.510204 0
0.0204082 0.489796 0
0.0204082 0.469388 0
0.0204082 0.44898 0
0.0204082 0.428571 0
0.0204082 0.408163 0
0.0204082 0.387755 0
0.0204082 0.367347 0
0.0204082 0.346939 0
0.0204082 0.326531 0
0.0204082 0.306122 0
0.0204082 0.285714 0
0.0204082 0.265306 0
0.0204082 0.244898 0
0.0204082 0.22449 0
0.0204082 0.204082 0
0.0204082 0.183673 0
0.0204082 0.163265 0
0.0204082 0.142857 0
0.0204082 0.122449 0
0.0204082 0.102041 0
0.0204082 0.0816327 0
0.0204082 0.0612245 0
0.0204082 0.0408163 0
0.0204082 0.0204082 0
0.0408163 0.979592 0
0.0408163 0.959184 0
0.0408163 0.938776 0
0.0408163 0.918367 0
0.0408163 0.897959 0
0.0408163 0.877551 0
0.0408163 0.857143 0
0.0408163 0.836735 0
0.0408163 0.816327 0
0.0408163 0.795918 0
0.0408163 0.77551 0
0.0408163 0.755102 0
0.0408163 0.734694 0
0.0408163 0.714286 0
0.0408163 0.693878 0
0.0408163 0.673469 0
0.0408163 0.653061 0
0.0408163 0.632653 0
0.0408163 0.612245 0
0.0408163 0.591837 0
0.0408163 0.571429 0
0.0408163 0.55102 0
0.0408163 0.530612 0
0.0408163 0.510204 0
0.0408163 0.489796 0
0.0408163 0.469388 0
0.0408163 0.44898 0
0.0408163 0.428571 0
0.0408163 0.408163 0
0.0408163 0.387755 0
0.0408163 0.367347 0
0.0408163 0.346939 0
0.0408163 0.326531 0
0.0408163 0.306122 0
0.0408163 0.285714 0
0.0408163 0.265306 0
0.0408163 0.244898 0
0.0408163 0.22449 0
0.0408163 0.204082 0
0.0408163 0.183673 0
0.0408163 0.163265 0
0.0408163 0.142857 0
0.0408163 0.122449 0
0.0408163 0.102041 0
0.0408163 0.0816327 0
0.0408163 0.0612245 0
0.0408163 0.0408163 0
0.0408163 0.0204082 0
0.0612245 0.979592 0
0.0612245 0.959184 0
0.0612245 0.938776 0
0.0612245 0.918367 0
0.0612245 0.897959 0
0.0612245 0.877551 0
0.0612245 0.857143 0
0.0612245 0.836735 0
0.0612245 0.816327 0
0.0612245 0.795918 0
0.0612245 0.77551 0
0.0612245 0.755102 0
0.0612245 0.734694 0
0.0612245 0.714286 0
0.0612245 0.693878 0
0.0612245 0.673469 0
0.0612245 0.653061 0
0.0612245 0.632653 0
0.0612245 0.612245 0
0.0612245 0.591837 0
0.0612245 0.571429 0
0.0612245 0.55102 0
0.0612245 0.530612 0
0.0612245 0.510204 0
0.0612245 0.489796 0
0.0612245 0.469388 0
0.0612245 0.44898 0
0.0612245 0.428571 0
0.0612245 0.408163 0
0.0612245 0.387755 0
0.0612245 0.367347 0
0.0612245 0.346939 0
0.0612245 0.326531 0
0.0612245 0.306122 0
0.0612245 0.285714 0
0.0612245 0.265306 0
0.0612245 0.244898 0
0.0612245 0.22449 0
0.0612245 0.204082 0
0.0612245 0.183673 0
0.0612245 0.163265 0
0.0612245 0.142857 0
0.0612245 0.122449 0
0.0612245 0.102041 0
0.0612245 0.0816327 0
0.0612245 0.0612245 0
0.0612245 0.0408163 0
0.0612245 0.0204082 0
0.0816327 0.979592 0
0.0816327 0.959184 0
0.0816327 0.938776 0
0.0816327 0.918367 0
0.0816327 0.897959 0
0.0816327 0.877551 0
0.0816327 0.857143 0
0.0816327 0.836735 0
0.0816327 0.816327 0
0.0816327 0.795918 0
0.0816327 0.77551 0
0.0816327 0.755102 0
0.0816327 0.734694 0
0.0816327 0.714286 0
0.0816327 0.693878 0
0.0816327 0.673469 0
0.0816327 0.653061 0
0.0816327 0.632653 0
0.0816327 0.612245 0
0.0816327 0.591837 0
0.0816327 0.571429 0
0.0816327 0.55102 0
0.0816327 0.530612 0
0.0816327 0.510204 0
0.0816327 0.489796 0
0.0816327 0.469388 0
0.0816327 0.44898 0
0.0816327 0.428571 0
0.0816327 0.408163 0
0.0816327 0.387755 0
0.0816327 0.367347 0
0.0816327 0.346939 0
0.0816327 0.326531 0
0.0816327 0.306122 0
0.0816327 0.285714 0
0.0816327 0.265306 0
0.0816327 0.244898 0
0.0816327 0.22449 0
0.0816327 0.204082 0
0.0816327 0.183673 0
0.0816327 0.163265 0
0.0816327 0.142857 0
0.0816327 0.122449 0
0.0816327 0.102041 0
0.0816327 0.0816327 0
0.0816327 0.0612245 0
0.0816327 0.0408163 0
0.0816327 0.0204082 0
0.102041 0.979592 0
0.102041 0.959184 0
0.102041 0.938776 0
0.102041 0.918367 0
0.102041 0.897959 0
0.102041 0.877551 0
0.102041 0.857143 0
0.102041 0.836735 0
0.102041 0.816327 0
0.102041 0.795918 0
0.102041 0.77551 0
0.102041 0.755102 0
0.102041 0.734694 0
0.102041 0.714286 0
0.102041 0.693878 0
0.102041 0.673469 0
0.102041 0.653061 0
0.102041 0.632653 0
0.102041 0.612245 0
0.102041 0.591837 0
0.102041 0.571429 0
0.102041 0.55102 0
0.102041 0.530612 0
0.102041 0.510204 0
0.102041 0.489796 0
0.102041 0.469388 0
0.102041 0.44898 0
0.102041 0.428571 0
0.102041 0.408163 0
0.102041 0.387755 0
0.102041 0.367347 0
0.102041 0.346939 0
0.102041 0.326531 0
0.102041 0.306122 0
0.102041 0.285714 0
0.102041 0.265306 0
0.102041 0.244898 0
0.102041 0.22449 0
0.102041 0.204082 0
0.102041 0.183673 0
0.102041 0.163265 0
0.102041 0.142857 0
0.102041 0.122449 0
0.102041 0.102041 0
0.102041 0.0816327 0
0.102041 0.0612245 0
0.102041 0.0408163 0
0.102041 0.0204082 0
0.122449 0.979592 0
0.122449 0.959184 0
0.122449 0.938776 0
0.122449 0.918367 0
0.122449 0.897959 0
0.122449 0.877551 0
0.122449 0.857143 0
0.122449 0.836735 0
0.122449 0.816327 0
0.122449 0.795918 0
0.122449 0.77551 0
0.122449 0.755102 0
0.122449 0.734694 0
0.122449 0.714286 0
0.122449 0.693878 0
0.122449 0.673469 0
0.122449 0.653061 0
0.122449 0.632653 0
0.122449 0.612245 0
0.122449 0.591837 0
0.122449 0.571429 0
0.122449 0.55102 0
0.122449 0.530612 0
0.122449 0.510204 0
0.122449 0.489796 0
0.122449 0.469388 0
0.122449 0.44898 0
0.122449 0.428571 0
0.122449 0.408163 0
0.122449 0.387755 0
0.122449 0.367347 0
0.122449 0.346939 0
0.122449 0.326531 0
0.122449 0.306122 0
0.122449 0.285714 0
0.122449 0.265306 0
0.122449 0.244898 0
0.122449 0.22449 0
0.122449 0.204082 0
0.122449 0.183673 0
0.122449 0.163265 0
0.122449 0.142857 0
0.122449 0.122449 0
0.122449 0.102041 0
0.122449 0.0816327 0
0.122449 0.0612245 0
0.122449 0.0408163 0
0.122449 0.0204082 0
0.142857 0.979592 0
0.142857 0.959184 0
0.142857 0.938776 0
0.142857 0.918367 0
0.142857 0.897959 0
0.142857 0.877551 0
0.142857 0.857143 0
0.142857 0.836735 0
0.142857 0.816327 0
0.142857 0.795918 0
0.142857 0.77551 0
0.142857 0.755102 0
0.142857 0.734694 0
0.142857 0.714286 0
0.142857 0.693878 0
0.142857 0.673469 0
0.142857 0.653061 0
0.142857 0.632653 0
0.142857 0.612245 0
0.142857 0.591837 0
0.142857 0.571429 0
0.142857 0.55102 0
0.142857 0.530612 0
0.142857 0.510204 0
0.142857 0.489796 0
0.142857 0.469388 0
0.142857 0.44898 0
0.142857 0.428571 0
0.142857 0.408163 0
0.142857 0.387755 0
0.142857 0.367347 0
0.142857 0.346939 0
0.142857 0.326531 0
0.142857 0.306122 0
0.142857 0.285714 0
0.142857 0.265306 0
0.142857 0.244898 0
0.142857 0.22449 0
0.142857 0.204082 0
0.142857 0.183673 0
0.142857 0.163265 0
0.142857 0.142857 0
0.142857 0.122449 0
0.142857 0.102041 0
0.142857 0.0816327 0
0.142857 0.0612245 0
0.142857 0.0408163 0
0.142857 0.0204082 0
0.163265 0.979592 0
0.163265 0.959184 0
0.163265 0.938776 0
0.163265 0.918367 0
0.163265 0.897959 0
0.163265 0.877551 0
0.163265 0.857143 0
0.163265 0.836735 0
0.163265 0.816327 0
0.163265 0.795918 0
0.163265 0.77551 0
0.163265 0.755102 0
0.163265 0.734694 0
0.163265 0.714286 0
0.163265 0.693878 0
0.163265 0.673469 0
0.163265 0.653061 0
0.163265 0.632653 0
0.163265 0.612245 0
0.163265 0.591837 0
0.163265 0.571429 0
0.163265 0.55102 0
[...]
CELL_DATA 2401
VECTORS velocity double
0.257618 0.157344 0.0
-0.00237389 0.26487 0.0
-0.0318823 0.206702 0.0
-0.0250008 0.152669 0.0
-0.015812 0.115778 0.0
-0.00961587 0.0906852 0.0
-0.00599129 0.0734569 0.0
-0.00392614 0.0612388 0.0
-0.00272655 0.0522092 0.0
-0.00199939 0.0452754 0.0
-0.00153467 0.0397748 0.0
-0.00122143 0.0352933 0.0
-0.00100002 0.0315625 0.0
-0.000837198 0.0284014 0.0
-0.000713568 0.0256836 0.0
-0.000617229 0.0233178 0.0
-0.000540533 0.0212366 0.0
-0.000478356 0.0193889 0.0
-0.000427146 0.0177354 0.0
-0.000384371 0.0162453 0.0
-0.000348187 0.0148944 0.0
-0.000317228 0.013663 0.0
-0.000290467 0.0125353 0.0
-0.000267124 0.0114983 0.0
-0.0002466 0.0105412 0.0
-0.000228434 0.00965496 0.0
-0.000212263 0.00883178 0.0
-0.000197803 0.0080651 0.0
-0.000184828 0.00734919 0.0
-0.000173155 0.00667902 0.0
-0.000162631 0.00605019 0.0
-0.00015313 0.00545878 0.0
-0.000144535 0.00490132 0.0
-0.000136739 0.00437476 0.0
-0.000129635 0.00387647 0.0
-0.000123106 0.00340423 0.0
-0.000117019 0.00295627 0.0
-0.000111213 0.00253138 0.0
-0.000105489 0.00212896 0.0
-9.95869e-05 0.0017492 0.0
-9.31717e-05 0.00139325 0.0
-8.58016e-05 0.00106344 0.0
-7.69012e-05 0.000763513 0.0
-6.57391e-05 0.000498947 0.0
-5.14536e-05 0.000277095 0.0
-3.32808e-05 0.00010711 0.0
-1.13405e-05 -1.27453e-06 0.0
1.15769e-05 -4.21823e-05 0.0
2.28093e-05 -2.27424e-05 0.0
0.341211 0.123233 0.0
0.000567721 0.2507 0.0
-0.0637435 0.274313 0.0
-0.0619669 0.256045 0.0
-0.0477896 0.226256 0.0
-0.0349417 0.196421 0.0
-0.0255848 0.170275 0.0
-0.0191386 0.148381 0.0
-0.0147182 0.130262 0.0
-0.0116346 0.115229 0.0
-0.00942686 0.102648 0.0
-0.00780132 0.0920046 0.0
-0.00657249 0.0828987 0.0
-0.00562151 0.0750252 0.0
-0.00487039 0.0681501 0.0
-0.00426658 0.0620931 0.0
-0.00377362 0.0567141 0.0
-0.00336562 0.0519026 0.0
-0.00302375 0.0475709 0.0
-0.00273406 0.0436485 0.0
-0.00248608 0.0400785 0.0
-0.0022718 0.0368143 0.0
-0.00208509 0.0338172 0.0
-0.00192115 0.0310554 0.0
-0.00177624 0.028502 0.0
-0.00164741 0.026134 0.0
-0.0015323 0.0239319 0.0
-0.00142905 0.021879 0.0
-0.0013361 0.0199603 0.0
-0.00125222 0.0181631 0.0
-0.00117633 0.0164758 0.0
-0.0011075 0.0148885 0.0
-0.00104492 0.0133921 0.0
-0.000987766 0.0119788 0.0
-0.00093525 0.010642 0.0
-0.000886512 0.00937593 0.0
-0.000840588 0.00817632 0.0
-0.000796352 0.00704017 0.0
-0.000752458 0.00596615 0.0
-0.000707262 0.00495485 0.0
-0.000658769 0.00400917 0.0
-0.000604567 0.00313465 0.0
-0.000541838 0.00233985 0.0
-0.000467475 0.00163652 0.0
-0.000378525 0.00103938 0.0
-0.000273445 0.000565072 0.0
-0.000155116 0.000228512 0.0
-3.63659e-05 3.69621e-05 0.0
4.19816e-05 -1.11643e-05 0.0
0.502059 0.0771578 0.0
0.101568 0.184695 0.0
-0.0365808 0.252084 0.0
-0.0712698 0.269542 0.0
-0.0709917 0.261473 0.0
-0.0612348 0.243056 0.0
-0.050507 0.22153 0.0
-0.0412373 0.200265 0.0
-0.0338138 0.180629 0.0
-0.0280119 0.163026 0.0
-0.0234902 0.147436 0.0
-0.0199419 0.133677 0.0
-0.017127 0.121523 0.0
-0.0148665 0.110751 0.0
-0.0130288 0.101161 0.0
-0.0115172 0.092583 0.0
-0.0102601 0.0848714 0.0
-0.00920359 0.0779053 0.0
-0.00830714 0.0715836 0.0
-0.00753952 0.0658218 0.0
-0.00687661 0.0605495 0.0
-0.00629959 0.0557074 0.0
-0.00579369 0.0512453 0.0
-0.0053472 0.0471208 0.0
-0.00495084 0.0432976 0.0
-0.00459716 0.0397444 0.0
-0.00428018 0.0364342 0.0
-0.00399504 0.0333433 0.0
-0.00373774 0.0304509 0.0
-0.00350495 0.0277386 0.0
-0.00329384 0.02519 0.0
-0.0031019 0.0227907 0.0
-0.00292685 0.0205278 0.0
-0.00276649 0.01839 0.0
-0.0026186 0.0163676 0.0
-0.0024808 0.0144526 0.0
-0.00235046 0.0126386 0.0
-0.00222451 0.0109214 0.0
-0.00209937 0.00929901 0.0
-0.00197077 0.00777224 0.0
-0.00183369 0.00634488 0.0
-0.00168233 0.00502422 0.0
-0.00151024 0.00382131 0.0
-0.00131092 0.00275093 0.0
-0.00107902 0.0018311 0.0
-0.00081307 0.00108165 0.0
-0.000520936 0.000519522 0.0
-0.000228127 0.000155556 0.0
2.10963e-07 1.20527e-05 0.0
0.612075 0.0483746 0.0
0.199405 0.135215 0.0
0.0151866 0.211568 0.0
-0.0556032 0.248969 0.0
-0.0757686 0.258955 0.0
-0.0758869 0.254019 0.0
-0.0690003 0.241362 0.0
-0.0604392 0.225351 0.0
-0.0522329 0.208419 0.0
-0.0450314 0.191824 0.0
-0.0389345 0.17616 0.0
-0.0338442 0.161667 0.0
-0.0296087 0.14839 0.0
-0.0260779 0.136287 0.0
-0.0231209 0.125269 0.0
-0.0206296 0.115236 0.0
-0.0185167 0.106085 0.0
-0.0167123 0.0977218 0.0
-0.0151603 0.0900584 0.0
-0.0138164 0.0830182 0.0
-0.0126446 0.0765334 0.0
-0.0116165 0.0705449 0.0
-0.0107088 0.0650011 0.0
-0.00990315 0.0598569 0.0
-0.00918436 0.055073 0.0
-0.00854025 0.0506147 0.0
-0.00796085 0.0464516 0.0
-0.00743796 0.0425566 0.0
-0.00696477 0.0389057 0.0
-0.00653553 0.0354772 0.0
-0.00614527 0.0322521 0.0
-0.00578958 0.0292129 0.0
-0.00546437 0.0263444 0.0
-0.00516569 0.0236331 0.0
-0.00488951 0.0210671 0.0
-0.00463152 0.0186369 0.0
-0.00438693 0.0163347 0.0
-0.00415027 0.0141554 0.0
-0.00391518 0.0120965 0.0
-0.00367423 0.0101585 0.0
-0.00341882 0.00834548 0.0
-0.00313927 0.00666546 0.0
-0.00282519 0.0051304 0.0
-0.00246649 0.00375626 0.0
-0.00205529 0.0025625 0.0
-0.00158985 0.00157095 0.0
-0.00108115 0.000801035 0.0
-0.000562163 0.000270612 0.0
-0.000108581 3.3849e-05 0.0
0.683088 0.0304001 0.0
0.282923 0.0989667 0.0
0.0736361 0.171992 0.0
-0.0255713 0.217978 0.0
-0.0664325 0.239949 0.0
-0.0792678 0.245981 0.0
-0.0794255 0.24206 0.0
-0.0743158 0.232432 0.0
-0.0674204 0.219867 0.0
-0.0603193 0.206067 0.0
-0.0536791 0.192037 0.0
-0.0477347 0.178347 0.0
-0.0425244 0.165298 0.0
-0.0380024 0.153029 0.0
-0.0340925 0.141584 0.0
-0.0307125 0.130955 0.0
-0.0277847 0.121106 0.0
-0.0252402 0.111986 0.0
-0.0230196 0.103538 0.0
-0.0210727 0.0957075 0.0
-0.0193575 0.0884407 0.0
-0.017839 0.0816878 0.0
-0.0164883 0.0754032 0.0
-0.0152815 0.0695457 0.0
-0.0141989 0.0640779 0.0
-0.013224 0.0589659 0.0
-0.0123434 0.0541795 0.0
-0.0115458 0.0496911 0.0
-0.0108216 0.0454757 0.0
-0.0101628 0.0415107 0.0
-0.00956218 0.0377757 0.0
-0.00901337 0.0342521 0.0
-0.00851036 0.0309233 0.0
-0.00804728 0.0277746 0.0
-0.0076181 0.024793 0.0
-0.00721637 0.0219679 0.0
-0.00683494 0.0192908 0.0
-0.00646565 0.0167558 0.0
-0.00609909 0.0143598 0.0
-0.00572441 0.0121031 0.0
-0.00532922 0.00998953 0.0
-0.00489979 0.00802707 0.0
-0.00442159 0.00622785 0.0
-0.00388068 0.0046082 0.0
-0.00326614 0.00318846 0.0
-0.00257444 0.00199251 0.0
-0.00181636 0.00104333 0.0
-0.00102568 0.000367646 0.0
-0.000276369 5.1141e-05 0.0
0.732762 0.0192932 0.0
0.353571 0.0731879 0.0
0.131392 0.138873 0.0
0.0116762 0.186363 0.0
-0.047913 0.215245 0.0
-0.0739677 0.228928 0.0
-0.0826584 0.232083 0.0
-0.0826792 0.228335 0.0
-0.0786168 0.220346 0.0
-0.0728649 0.20994 0.0
-0.0666494 0.198327 0.0
-0.0605752 0.186278 0.0
-0.0549185 0.174276 0.0
-0.0497835 0.162608 0.0
-0.0451863 0.151437 0.0
-0.0411002 0.140843 0.0
-0.0374801 0.130857 0.0
-0.0342746 0.121481 0.0
-0.0314333 0.112695 0.0
-0.0289091 0.104472 0.0
-0.0266603 0.0967791 0.0
-0.0246502 0.0895813 0.0
-0.0228475 0.0828441 0.0
-0.0212255 0.0765341 0.0
-0.0197613 0.0706195 0.0
-0.018436 0.0650706 0.0
-0.0172333 0.0598596 0.0
-0.0161396 0.0549607 0.0
-0.0151431 0.0503499 0.0
-0.0142336 0.0460053 0.0
-0.0134021 0.0419065 0.0
-0.0126403 0.0380349 0.0
-0.0119404 0.0343735 0.0
-0.0112945 0.0309071 0.0
-0.0106948 0.0276225 0.0
-0.0101324 0.0245085 0.0
-0.00959785 0.021556 0.0
-0.00908019 0.0187586 0.0
-0.00856688 0.0161128 0.0
-0.00804357 0.0136186 0.0
-0.00749398 0.0112793 0.0
-0.0069002 0.00910258 0.0
-0.00624336 0.00710042 0.0
-0.00550524 0.00528931 0.0
-0.00467087 0.0036905 0.0
-0.00373299 0.00233023 0.0
-0.00269858 0.00123573 0.0
-0.00159647 0.000442729 0.0
-0.000490544 6.365e-05 0.0
0.768664 0.0125497 0.0
0.412401 0.0551671 0.0
0.184936 0.112618 0.0
0.0507323 0.158315 0.0
-0.0241465 0.190031 0.0
-0.0625742 0.208505 0.0
-0.0801413 0.216805 0.0
-0.086128 0.217838 0.0
-0.0858592 0.213941 0.0
-0.0823643 0.206864 0.0
-0.0773566 0.197859 0.0
-0.0717939 0.187792 0.0
-0.0661988 0.177252 0.0
-0.0608441 0.166627 0.0
-0.0558592 0.156167 0.0
-0.0512923 0.146028 0.0
-0.0471468 0.1363 0.0
-0.0434025 0.127032 0.0
-0.0400282 0.118242 0.0
-0.0369886 0.109932 0.0
-0.0342482 0.102091 0.0
-0.0317739 0.0947022 0.0
-0.0295355 0.0877446 0.0
-0.0275061 0.0811947 0.0
-0.0256623 0.0750287 0.0
-0.0239839 0.0692227 0.0
-0.0224533 0.0637532 0.0
-0.0210554 0.0585977 0.0
-0.0197769 0.0537347 0.0
-0.0186062 0.0491437 0.0
-0.0175327 0.0448057 0.0
-0.0165465 0.0407027 0.0
-0.0156382 0.0368182 0.0
-0.0147982 0.0331373 0.0
-0.0140168 0.0296467 0.0
-0.013283 0.026335 0.0
-0.0125849 0.0231931 0.0
-0.0119088 0.0202142 0.0
-0.0112391 0.0173945 0.0
-0.010558 0.0147333 0.0
-0.0098453 0.0122338 0.0
-0.00907872 0.00990317 0.0
-0.00823485 0.00775316 0.0
-0.00729054 0.00580049 0.0
-0.00622566 0.00406744 0.0
-0.00502726 0.00258279 0.0
-0.00369537 0.00137804 0.0
-0.00224955 0.000496845 0.0
-0.000738683 7.20804e-05 0.0
0.795214 0.00843377 0.0
0.461147 0.0424445 0.0
0.233129 0.0920352 0.0
0.0890264 0.134481 0.0
0.00219607 0.166467 0.0
-0.0472764 0.187644 0.0
-0.0734023 0.199406 0.0
-0.085601 0.204057 0.0
-0.0896284 0.203532 0.0
-0.0889717 0.199403 0.0
-0.0857376 0.192871 0.0
-0.0811924 0.184819 0.0
-0.0760902 0.17588 0.0
-0.070872 0.166501 0.0
-0.0657872 0.15699 0.0
-0.0609683 0.147556 0.0
-0.0564771 0.138338 0.0
-0.0523337 0.129422 0.0
-0.0485339 0.120862 0.0
-0.0450604 0.112685 0.0
-0.0418899 0.104903 0.0
-0.0389966 0.0975162 0.0
-0.0363551 0.0905173 0.0
-0.0339414 0.0838943 0.0
-0.0317335 0.0776318 0.0
-0.0297117 0.0717129 0.0
-0.0278584 0.0661196 0.0
-0.0261582 0.0608333 0.0
-0.0245971 0.0558358 0.0
-0.0231626 0.0511091 0.0
-0.0218432 0.0466357 0.0
-0.0206279 0.0423992 0.0
-0.0195058 0.0383838 0.0
-0.0184661 0.0345754 0.0
-0.0174971 0.030961 0.0
-0.0165861 0.0275295 0.0
-0.0157187 0.0242715 0.0
-0.0148789 0.0211802 0.0
-0.0140478 0.0182516 0.0
-0.0132043 0.0154846 0.0
-0.0123242 0.012882 0.0
-0.0113809 0.0104506 0.0
-0.010346 0.00820195 0.0
-0.00919086 0.00615318 0.0
-0.00788907 0.0043276 0.0
-0.00642024 0.00275637 0.0
-0.00477515 0.00147478 0.0
-0.00296125 0.000532706 0.0
-0.00100999 7.72889e-05 0.0
0.815392 0.00587457 0.0
0.501653 0.033306 0.0
0.275874 0.0759047 0.0
0.125229 0.114595 0.0
0.029127 0.145522 0.0
-0.0297445 0.167799 0.0
-0.0637583 0.181713 0.0
-0.0820453 0.188948 0.0
-0.0905444 0.191052 0.0
-0.0930457 0.189381 0.0
-0.0919551 0.185034 0.0
-0.088795 0.178857 0.0
-0.0845235 0.17149 0.0
-0.0797383 0.163401 0.0
-0.0748061 0.154933 0.0
-0.0699457 0.14633 0.0
-0.0652817 0.137762 0.0
-0.0608791 0.129349 0.0
-0.056766 0.12117 0.0
-0.0529479 0.113275 0.0
-0.0494173 0.105697 0.0
-0.0461598 0.0984504 0.0
-0.0431575 0.0915425 0.0
-0.0403916 0.0849718 0.0
-0.0378437 0.0787317 0.0
-0.0354962 0.0728122 0.0
-0.033333 0.0672011 0.0
-0.0313392 0.0618843 0.0
-0.0295012 0.0568471 0.0
-0.0278063 0.0520743 0.0
-0.0262426 0.0475506 0.0
-0.0247983 0.043261 0.0
-0.0234619 0.0391913 0.0
-0.022221 0.0353279 0.0
-0.0210627 0.0316586 0.0
-0.0199725 0.0281725 0.0
-0.0189341 0.0248604 0.0
-0.0179287 0.0217156 0.0
-0.0169347 0.0187337 0.0
-0.0159276 0.0159134 0.0
-0.0148794 0.0132571 0.0
-0.0137587 0.0107715 0.0
-0.0125321 0.00846794 0.0
-0.0111647 0.00636387 0.0
-0.00962299 0.00448361 0.0
-0.00787781 0.00286025 0.0
-0.0059091 0.00153206 0.0
-0.00371059 0.00055334 0.0
-0.00129552 8.00233e-05 0.0
0.831124 0.00424399 0.0
0.535504 0.0266197 0.0
0.313532 0.0632008 0.0
0.158765 0.0980971 0.0
0.0554599 0.12734 0.0
-0.0111998 0.149624 0.0
-0.0522713 0.164723 0.0
-0.0762979 0.173689 0.0
-0.0892224 0.177752 0.0
-0.0950081 0.178046 0.0
-0.0962741 0.175541 0.0
-0.0947452 0.171022 0.0
-0.0915525 0.165102 0.0
-0.0874327 0.158253 0.0
-0.0828616 0.150828 0.0
-0.0781412 0.143091 0.0
-0.0734591 0.135235 0.0
-0.0689272 0.127402 0.0
-0.0646084 0.11969 0.0
-0.0605339 0.112171 0.0
-0.056715 0.10489 0.0
-0.0531509 0.0978788 0.0
-0.0498339 0.091155 0.0
-0.0467524 0.0847272 0.0
-0.0438932 0.0785972 0.0
-0.0412424 0.0727618 0.0
-0.0387864 0.0672142 0.0
-0.0365122 0.0619449 0.0
-0.0344072 0.0569428 0.0
-0.0324592 0.0521954 0.0
-0.0306565 0.0476898 0.0
-0.0289871 0.0434127 0.0
-0.0274389 0.0393511 0.0
-0.0259988 0.0354927 0.0
-0.0246526 0.0318256 0.0
-0.0233842 0.0283395 0.0
-0.0221756 0.0250255 0.0
-0.0210056 0.0218768 0.0
-0.01985 0.0188889 0.0
-0.0186808 0.0160603 0.0
-0.0174661 0.0133932 0.0
-0.0161701 0.0108939 0.0
-0.0147535 0.00857383 0.0
-0.013175 0.00645063 0.0
-0.0113933 0.00454933 0.0
-0.0093695 0.0029044 0.0
-0.00707184 0.00155614 0.0
-0.00447964 0.000561547 0.0
-0.00158802 8.08769e-05 0.0
0.843661 0.00317363 0.0
0.563983 0.021629 0.0
0.346627 0.0531036 0.0
0.189483 0.0843908 0.0
0.0806611 0.111645 0.0
0.00764877 0.13324 0.0
-0.0396999 0.14888 0.0
-0.069029 0.158932 0.0
-0.0862049 0.164406 0.0
-0.0952708 0.166223 0.0
-0.0989899 0.165222 0.0
-0.0992417 0.162115 0.0
-0.0972984 0.157475 0.0
-0.0940171 0.151759 0.0
-0.0899711 0.145319 0.0
-0.0855401 0.138427 0.0
-0.0809719 0.13129 0.0
-0.076425 0.124062 0.0
-0.0719978 0.116858 0.0
-0.0677487 0.109762 0.0
-0.0637095 0.102834 0.0
-0.0598951 0.0961173 0.0
-0.0563093 0.0896388 0.0
-0.0529496 0.0834162 0.0
-0.0498091 0.0774586 0.0
-0.0468792 0.071769 0.0
-0.0441499 0.0663457 0.0
-0.0416106 0.0611834 0.0
-0.0392507 0.0562741 0.0
-0.0370593 0.0516084 0.0
-0.0350253 0.0471753 0.0
-0.0331369 0.0429633 0.0
-0.0313819 0.0389608 0.0
-0.0297466 0.0351562 0.0
-0.0282159 0.0315386 0.0
-0.0267726 0.028098 0.0
-0.0253968 0.0248258 0.0
-0.0240653 0.0217151 0.0
-0.0227512 0.0187614 0.0
-0.0214233 0.0159632 0.0
-0.0200458 0.0133221 0.0
-0.018578 0.0108445 0.0
-0.0169752 0.00854152 0.0
-0.0151891 0.00643091 0.0
-0.0131698 0.00453807 0.0
-0.0108687 0.00289819 0.0
-0.00824164 0.00155267 0.0
-0.0052534 0.000559708 0.0
-0.00188168 8.02991e-05 0.0
0.853844 0.0024482 0.0
0.588112 0.0178342 0.0
0.375706 0.0450106 0.0
0.217416 0.072994 0.0
0.104379 0.0981818 0.0
0.0260811 0.118799 0.0
-0.0266322 0.1344 0.0
-0.0607699 0.145051 0.0
-0.0819478 0.151486 0.0
-0.094205 0.154441 0.0
-0.100391 0.154634 0.0
-0.102499 0.152696 0.0
-0.101914 0.149155 0.0
-0.0995929 0.14444 0.0
-0.0961958 0.138895 0.0
-0.0921722 0.132793 0.0
-0.087826 0.126343 0.0
-0.0833605 0.11971 0.0
-0.0789092 0.113019 0.0
-0.0745579 0.106364 0.0
-0.07036 0.0998151 0.0
-0.0663468 0.0934244 0.0
-0.0625353 0.087228 0.0
-0.0589328 0.0812505 0.0
-0.0555404 0.0755075 0.0
-0.0523553 0.0700071 0.0
-0.0493722 0.0647521 0.0
-0.0465838 0.059741 0.0
-0.0439822 0.0549687 0.0
-0.041558 0.0504283 0.0
-0.0393015 0.0461107 0.0
-0.0372015 0.0420061 0.0
-0.035246 0.0381038 0.0
-0.033421 0.0343932 0.0
-0.0317108 0.0308641 0.0
-0.0300971 0.0275068 0.0
-0.0285585 0.024313 0.0
-0.0270699 0.0212758 0.0
-0.0256019 0.0183907 0.0
-0.0241201 0.0156559 0.0
-0.0225848 0.0130728 0.0
-0.0209506 0.0106474 0.0
-0.0191669 0.00839082 0.0
-0.0171784 0.00632044 0.0
-0.0149266 0.00446168 0.0
-0.0123527 0.00284983 0.0
-0.00940011 0.00152646 0.0
-0.00601948 0.000549747 0.0
-0.00217185 7.86207e-05 0.0
0.862248 0.00194005 0.0
0.608704 0.0148961 0.0
0.401298 0.0384597 0.0
0.242733 0.0634681 0.0
0.126523 0.0866129 0.0
0.0438532 0.10609 0.0
-0.0134814 0.121322 0.0
-0.0519392 0.132212 0.0
-0.0768285 0.139249 0.0
-0.092133 0.143024 0.0
-0.100743 0.144138 0.0
-0.104727 0.143145 0.0
-0.105559 0.140522 0.0
-0.10428 0.136669 0.0
-0.101621 0.131915 0.0
-0.0980944 0.126525 0.0
-0.0940558 0.120711 0.0
-0.0897502 0.11464 0.0
-0.085345 0.108443 0.0
-0.0809531 0.102224 0.0
-0.0766493 0.0960585 0.0
-0.0724826 0.0900063 0.0
-0.0684835 0.0841102 0.0
-0.0646703 0.0784009 0.0
-0.0610527 0.0728988 0.0
-0.0576346 0.0676169 0.0
-0.0544161 0.0625613 0.0
-0.051394 0.0577337 0.0
-0.0485634 0.0531318 0.0
-0.0459173 0.0487503 0.0
-0.0434475 0.0445821 0.0
-0.0411438 0.0406184 0.0
-0.0389947 0.0368497 0.0
-0.0369862 0.0332662 0.0
-0.0351023 0.0298579 0.0
-0.0333237 0.0266156 0.0
-0.0316277 0.0235311 0.0
-0.0299875 0.0205977 0.0
-0.0283711 0.0178105 0.0
-0.0267412 0.0151676 0.0
-0.0250541 0.0126701 0.0
-0.0232599 0.0103236 0.0
-0.0213021 0.00813884 0.0
-0.0191181 0.00613272 0.0
-0.0166411 0.00433024 0.0
-0.0138018 0.00276613 0.0
-0.0105317 0.0014814 0.0
-0.0067676 0.000533163 0.0
-0.0024548 7.60793e-05 0.0
0.86928 0.00157253 0.0
0.626398 0.0125829 0.0
0.42387 0.0331045 0.0
0.265634 0.0554593 0.0
0.14706 0.076648 0.0
0.060781 0.0949093 0.0
-0.000509731 0.109555 0.0
-0.0428407 0.120443 0.0
-0.0711434 0.127811 0.0
-0.0893233 0.13215 0.0
-0.100276 0.133956 0.0
-0.10612 0.133709 0.0
-0.108393 0.131836 0.0
-0.108203 0.128709 0.0
-0.106343 0.124635 0.0
-0.103379 0.119871 0.0
-0.0997128 0.114627 0.0
-0.0956288 0.10907 0.0
-0.091326 0.103336 0.0
-0.0869435 0.0975312 0.0
-0.0825779 0.0917389 0.0
-0.0782954 0.0860232 0.0
-0.074141 0.0804323 0.0
-0.0701443 0.0750015 0.0
-0.0663245 0.0697554 0.0
-0.0626929 0.0647102 0.0
-0.0592553 0.0598753 0.0
-0.0560134 0.0552546 0.0
-0.0529656 0.0508478 0.0
-0.0501077 0.0466513 0.0
-0.0474334 0.0426592 0.0
-0.0449338 0.0388636 0.0
-0.0425982 0.0352559 0.0
-0.0404128 0.0318265 0.0
-0.0383613 0.0285662 0.0
-0.0364238 0.0254657 0.0
-0.0345764 0.0225169 0.0
-0.0327904 0.019713 0.0
-0.0310319 0.0170491 0.0
-0.0292604 0.0145228 0.0
-0.0274286 0.012135 0.0
-0.0254818 0.00989069 0.0
-0.0233577 0.0077999 0.0
-0.0209869 0.00587898 0.0
-0.0182939 0.004152 0.0
-0.0151994 0.00265261 0.0
-0.0116234 0.00142057 0.0
-0.00748921 0.0005111 0.0
-0.00272745 7.28419e-05 0.0
0.875235 0.00129896 0.0
0.641702 0.0107347 0.0
0.443831 0.0286876 0.0
0.286332 0.048691 0.0
0.166024 0.0680503 0.0
0.0767636 0.0850835 0.0
0.0120773 0.0990227 0.0
-0.0336944 0.109714 0.0
-0.0651206 0.117212 0.0
-0.0859943 0.12191 0.0
-0.0991897 0.124215 0.0
-0.106851 0.124539 0.0
-0.110563 0.123265 0.0
-0.111484 0.120733 0.0
-0.11046 0.117231 0.0
-0.108104 0.113005 0.0
-0.104858 0.108259 0.0
-0.101042 0.103161 0.0
-0.0968848 0.0978471 0.0
-0.0925508 0.0924267 0.0
-0.0881578 0.086987 0.0
-0.0837895 0.0815961 0.0
-0.0795055 0.0763059 0.0
-0.0753474 0.0711551 0.0
-0.0713441 0.0661715 0.0
-0.0675148 0.0613738 0.0
-0.0638717 0.0567736 0.0
-0.0604215 0.0523765 0.0
-0.0571666 0.0481836 0.0
-0.0541059 0.0441923 0.0
-0.0512351 0.0403977 0.0
-0.0485471 0.0367924 0.0
-0.0460317 0.0333682 0.0
-0.0436759 0.030116 0.0
-0.0414631 0.0270266 0.0
-0.0393729 0.0240908 0.0
-0.0373803 0.0213004 0.0
-0.0354551 0.0186486 0.0
-0.0335612 0.01613 0.0
-0.0316552 0.013742 0.0
-0.0296862 0.0114849 0.0
-0.027595 0.00936301 0.0
-0.0253137 0.00738572 0.0
-0.0227659 0.0055683 0.0
-0.0198681 0.00393359 0.0
-0.0165313 0.00251361 0.0
-0.012664 0.00134633 0.0
-0.0081771 0.000484407 0.0
-0.00298727 6.9023e-05 0.0
0.880328 0.0010901 0.0
0.655018 0.00923826 0.0
0.461535 0.0250138 0.0
0.305043 0.0429406 0.0
0.183491 0.0606115 0.0
0.0917684 0.0764421 0.0
0.0241315 0.0896327 0.0
-0.0246709 0.0999732 0.0
-0.0589422 0.107445 0.0
-0.0823261 0.112336 0.0
-0.0976526 0.114977 0.0
-0.107074 0.115721 0.0
-0.112203 0.114911 0.0
-0.11424 0.112853 0.0
-0.114072 0.109819 0.0
-0.112352 0.106044 0.0
-0.109558 0.101723 0.0
-0.106042 0.0970242 0.0
-0.102061 0.0920829 0.0
-0.0978042 0.0870108 0.0
-0.0934089 0.0818974 0.0
-0.0889769 0.0768133 0.0
-0.0845822 0.0718131 0.0
-0.0802789 0.0669381 0.0
-0.076106 0.062218 0.0
-0.0720909 0.0576732 0.0
-0.0682527 0.0533168 0.0
-0.0646034 0.0491553 0.0
-0.0611497 0.0451906 0.0
-0.0578936 0.0414208 0.0
-0.0548332 0.0378411 0.0
-0.0519632 0.0344447 0.0
-0.0492744 0.0312234 0.0
-0.0467544 0.028168 0.0
-0.0443865 0.0252693 0.0
-0.0421498 0.0225181 0.0
-0.0400185 0.0199061 0.0
-0.0379608 0.017426 0.0
-0.0359384 0.0150722 0.0
-0.0339055 0.0128415 0.0
-0.0318075 0.0107337 0.0
-0.0295809 0.00875236 0.0
-0.0271523 0.00690575 0.0
-0.0244389 0.00520796 0.0
-0.0213492 0.00368021 0.0
-0.0177848 0.00235249 0.0
-0.0136438 0.00126048 0.0
-0.00882507 0.000453704 0.0
-0.00323207 6.46988e-05 0.0
0.884723 0.000926979 0.0
0.666671 0.00801168 0.0
0.477282 0.021932 0.0
0.321967 0.0380245 0.0
0.199554 0.0541455 0.0
0.105801 0.0688157 0.0
0.0356058 0.0812334 0.0
-0.0158908 0.0911403 0.0
-0.052752 0.0984676 0.0
-0.0784671 0.103418 0.0
-0.0958089 0.106259 0.0
-0.106921 0.107294 0.0
-0.113434 0.106825 0.0
-0.116578 0.105132 0.0
-0.117272 0.10247 0.0
-0.116202 0.0990592 0.0
-0.113879 0.0950923 0.0
-0.110684 0.090732 0.0