# vtk DataFile Version 3.0
Malha 2D com triângulos e temperatura
ASCII
DATASET UNSTRUCTURED_GRID

POINTS 2500 double
0 0 0
1 0 0
1 1 0
0 1 0
0.0204082 0 0
0.0408163 0 0
0.0612245 0 0
0.0816327 0 0
0.102041 0 0
0.122449 0 0
0.142857 0 0
0.163265 0 0
0.183673 0 0
0.204082 0 0
0.22449 0 0
0.244898 0 0
0.265306 0 0
0.285714 0 0
0.306122 0 0
0.326531 0 0
0.346939 0 0
0.367347 0 0
0.387755 0 0
0.408163 0 0
0.428571 0 0
0.44898 0 0
0.469388 0 0
0.489796 0 0
0.510204 0 0
0.530612 0 0
0.55102 0 0
0.571429 0 0
0.591837 0 0
0.612245 0 0
0.632653 0 0
0.653061 0 0
0.673469 0 0
0.693878 0 0
0.714286 0 0
0.734694 0 0
0.755102 0 0
0.77551 0 0
0.795918 0 0
0.816327 0 0
0.836735 0 0
0.857143 0 0
0.877551 0 0
0.897959 0 0
0.918367 0 0
0.938776 0 0
0.959184 0 0
0.979592 0 0
1 0.0204082 0
1 0.0408163 0
1 0.0612245 0
1 0.0816327 0
1 0.102041 0
1 0.122449 0
1 0.142857 0
1 0.163265 0
1 0.183673 0
1 0.204082 0
1 0.22449 0
1 0.244898 0
1 0.265306 0
1 0.285714 0
1 0.306122 0
1 0.326531 0
1 0.346939 0
1 0.367347 0
1 0.387755 0
1 0.408163 0
1 0.428571 0
1 0.44898 0
1 0.469388 0
1 0.489796 0
1 0.510204 0
1 0.530612 0
1 0.55102 0
1 0.571429 0
1 0.591837 0
1 0.612245 0
1 0.632653 0
1 0.653061 0
1 0.673469 0
1 0.693878 0
1 0.714286 0
1 0.734694 0
1 0.755102 0
1 0.77551 0
1 0.795918 0
1 0.816327 0
1 0.836735 0
1 0.857143 0
1 0.877551 0
1 0.897959 0
1 0.918367 0
1 0.938776 0
1 0.959184 0
1 0.979592 0
0.979592 1 0
0.959184 1 0
0.938776 1 0
0.918367 1 0
0.897959 1 0
0.877551 1 0
0.857143 1 0
0.836735 1 0
0.816327 1 0
0.795918 1 0
0.77551 1 0
0.755102 1 0
0.734694 1 0
0.714286 1 0
0.693878 1 0
0.673469 1 0
0.653061 1 0
0.632653 1 0
0.612245 1 0
0.591837 1 0
0.571429 1 0
0.55102 1 0
0.530612 1 0
0.510204 1 0
0.489796 1 0
0.469388 1 0
0.44898 1 0
0.428571 1 0
0.408163 1 0
0.387755 1 0
0.367347 1 0
0.346939 1 0
0.326531 1 0
0.306122 1 0
0.285714 1 0
0.265306 1 0
0.244898 1 0
0.22449 1 0
0.204082 1 0
0.183673 1 0
0.163265 1 0
0.142857 1 0
0.122449 1 0
0.102041 1 0
0.0816327 1 0
0.0612245 1 0
0.0408163 1 0
0.0204082 1 0
0 0.979592 0
0 0.959184 0
0 0.938776 0
0 0.918367 0
0 0.897959 0
0 0.877551 0
0 0.857143 0
0 0.836735 0
0 0.816327 0
0 0.795918 0
0 0.77551 0
0 0.755102 0
0 0.734694 0
0 0.714286 0
0 0.693878 0
0 0.673469 0
0 0.653061 0
0 0.632653 0
0 0.612245 0
0 0.591837 0
0 0.571429 0
0 0.55102 0
0 0.530612 0
0 0.510204 0
0 0.489796 0
0 0.469388 0
0 0.44898 0
0 0.428571 0
0 0.408163 0
0 0.387755 0
0 0.367347 0
0 0.346939 0
0 0.326531 0
0 0.306122 0
0 0.285714 0
0 0.265306 0
0 0.244898 0
0 0.22449 0
0 0.204082 0
0 0.183673 0
0 0.163265 0
0 0.142857 0
0 0.122449 0
0 0.102041 0
0 0.0816327 0
0 0.0612245 0
0 0.0408163 0
0 0.0204082 0
0.0204082 0.979592 0
0.0204082 0.959184 0
0.0204082 0.938776 0
0.0204082 0.918367 0
0.0204082 0.897959 0
0.0204082 0.877551 0
0.0204082 0.857143 0
0.0204082 0.836735 0
0.0204082 0.816327 0
0.0204082 0.795918 0
0.0204082 0.77551 0
0.0204082 0.755102 0
0.0204082 0.734694 0
0.0204082 0.714286 0
0.0204082 0.693878 0
0.0204082 0.673469 0
0.0204082 0.653061 0
0.0204082 0.632653 0
0.0204082 0.612245 0
0.0204082 0.591837 0
0.0204082 0.571429 0
0.0204082 0.55102 0
0.0204082 0.530612 0
0.0204082 0.510204 0
0.0204082 0.489796 0
0.0204082 0.469388 0
0.0204082 0.44898 0
0.0204082 0.428571 0
0.0204082 0.408163 0
0.0204082 0.387755 0
0.0204082 0.367347 0
0.0204082 0.346939 0
0.0204082 0.326531 0
0.0204082 0.306122 0
0.0204082 0.285714 0
0.0204082 0.265306 0
0.0204082 0.244898 0
0.0204082 0.22449 0
0.0204082 0.204082 0
0.0204082 0.183673 0
0.0204082 0.163265 0
0.0204082 0.142857 0
0.0204082 0.122449 0
0.0204082 0.102041 0
0.0204082 0.0816327 0
0.0204082 0.0612245 0
0.0204082 0.0408163 0
0.0204082 0.0204082 0
0.0408163 0.979592 0
0.0408163 0.959184 0
0.0408163 0.938776 0
0.0408163 0.918367 0
0.0408163 0.897959 0
0.0408163 0.877551 0
0.0408163 0.857143 0
0.0408163 0.836735 0
0.0408163 0.816327 0
0.0408163 0.795918 0
0.0408163 0.77551 0
0.0408163 0.755102 0
0.0408163 0.734694 0
0.0408163 0.714286 0
0.0408163 0.693878 0
0.0408163 0.673469 0
0.0408163 0.653061 0
0.0408163 0.632653 0
0.0408163 0.612245 0
0.0408163 0.591837 0
0.0408163 0.571429 0
0.0408163 0.55102 0
0.0408163 0.530612 0
0.0408163 0.510204 0
0.0408163 0.489796 0
0.0408163 0.469388 0
0.0408163 0.44898 0
0.0408163 0.428571 0
0.0408163 0.408163 0
0.0408163 0.387755 0
0.0408163 0.367347 0
0.0408163 0.346939 0
0.0408163 0.326531 0
0.0408163 0.306122 0
0.0408163 0.285714 0
0.0408163 0.265306 0
0.0408163 0.244898 0
0.0408163 0.22449 0
0.0408163 0.204082 0
0.0408163 0.183673 0
0.0408163 0.163265 0
0.0408163 0.142857 0
0.0408163 0.122449 0
0.0408163 0.102041 0
0.0408163 0.0816327 0
0.0408163 0.0612245 0
0.0408163 0.0408163 0
0.0408163 0.0204082 0
0.0612245 0.979592 0
0.0612245 0.959184 0
0.0612245 0.938776 0
0.0612245 0.918367 0
0.0612245 0.897959 0
0.0612245 0.877551 0
0.0612245 0.857143 0
0.0612245 0.836735 0
0.0612245 0.816327 0
0.0612245 0.795918 0
0.0612245 0.77551 0
0.0612245 0.755102 0
0.0612245 0.734694 0
0.0612245 0.714286 0
0.0612245 0.693878 0
0.0612245 0.673469 0
0.0612245 0.653061 0
0.0612245 0.632653 0
0.0612245 0.612245 0
0.0612245 0.591837 0
0.0612245 0.571429 0
0.0612245 0.55102 0
0.0612245 0.530612 0
0.0612245 0.510204 0
0.0612245 0.489796 0
0.0612245 0.469388 0
0.0612245 0.44898 0
0.0612245 0.428571 0
0.0612245 0.408163 0
0.0612245 0.387755 0
0.0612245 0.367347 0
0.0612245 0.346939 0
0.0612245 0.326531 0
0.0612245 0.306122 0
0.0612245 0.285714 0
0.0612245 0.265306 0
0.0612245 0.244898 0
0.0612245 0.22449 0
0.0612245 0.204082 0
0.0612245 0.183673 0
0.0612245 0.163265 0
0.0612245 0.142857 0
0.0612245 0.122449 0
0.0612245 0.102041 0
0.0612245 0.0816327 0
0.0612245 0.0612245 0
0.0612245 0.0408163 0
0.0612245 0.0204082 0
0.0816327 0.979592 0
0.0816327 0.959184 0
0.0816327 0.938776 0
0.0816327 0.918367 0
0.0816327 0.897959 0
0.0816327 0.877551 0
0.0816327 0.857143 0
0.0816327 0.836735 0
0.0816327 0.816327 0
0.0816327 0.795918 0
0.0816327 0.77551 0
0.0816327 0.755102 0
0.0816327 0.734694 0
0.0816327 0.714286 0
0.0816327 0.693878 0
0.0816327 0.673469 0
0.0816327 0.653061 0
0.0816327 0.632653 0
0.0816327 0.612245 0
0.0816327 0.591837 0
0.0816327 0.571429 0
0.0816327 0.55102 0
0.0816327 0.530612 0
0.0816327 0.510204 0
0.0816327 0.489796 0
0.0816327 0.469388 0
0.0816327 0.44898 0
0.0816327 0.428571 0
0.0816327 0.408163 0
0.0816327 0.387755 0
0.0816327 0.367347 0
0.0816327 0.346939 0
0.0816327 0.326531 0
0.0816327 0.306122 0
0.0816327 0.285714 0
0.0816327 0.265306 0
0.0816327 0.244898 0
0.0816327 0.22449 0
0.0816327 0.204082 0
0.0816327 0.183673 0
0.0816327 0.163265 0
0.0816327 0.142857 0
0.0816327 0.122449 0
0.0816327 0.102041 0
0.0816327 0.0816327 0
0.0816327 0.0612245 0
0.0816327 0.0408163 0
0.0816327 0.0204082 0
0.102041 0.979592 0
0.102041 0.959184 0
0.102041 0.938776 0
0.102041 0.918367 0
0.102041 0.897959 0
0.102041 0.877551 0
0.102041 0.857143 0
0.102041 0.836735 0
0.102041 0.816327 0
0.102041 0.795918 0
0.102041 0.77551 0
0.102041 0.755102 0
0.102041 0.734694 0
0.102041 0.714286 0
0.102041 0.693878 0
0.102041 0.673469 0
0.102041 0.653061 0
0.102041 0.632653 0
0.102041 0.612245 0
0.102041 0.591837 0
0.102041 0.571429 0
0.102041 0.55102 0
0.102041 0.530612 0
0.102041 0.510204 0
0.102041 0.489796 0
0.102041 0.469388 0
0.102041 0.44898 0
0.102041 0.428571 0
0.102041 0.408163 0
0.102041 0.387755 0
0.102041 0.367347 0
0.102041 0.346939 0
0.102041 0.326531 0
0.102041 0.306122 0
0.102041 0.285714 0
0.102041 0.265306 0
0.102041 0.244898 0
0.102041 0.22449 0
0.102041 0.204082 0
0.102041 0.183673 0
0.102041 0.163265 0
0.102041 0.142857 0
0.102041 0.122449 0
0.102041 0.102041 0
0.102041 0.0816327 0
0.102041 0.0612245 0
0.102041 0.0408163 0
0.102041 0.0204082 0
0.122449 0.979592 0
0.122449 0.959184 0
0.122449 0.938776 0
0.122449 0.918367 0
0.122449 0.897959 0
0.122449 0.877551 0
0.122449 0.857143 0
0.122449 0.836735 0
0.122449 0.816327 0
0.122449 0.795918 0
0.122449 0.77551 0
0.122449 0.755102 0
0.122449 0.734694 0
0.122449 0.714286 0
0.122449 0.693878 0
0.122449 0.673469 0
0.122449 0.653061 0
0.122449 0.632653 0
0.122449 0.612245 0
0.122449 0.591837 0
0.122449 0.571429 0
0.122449 0.55102 0
0.122449 0.530612 0
0.122449 0.510204 0
0.122449 0.489796 0
0.122449 0.469388 0
0.122449 0.44898 0
0.122449 0.428571 0
0.122449 0.408163 0
0.122449 0.387755 0
0.122449 0.367347 0
0.122449 0.346939 0
0.122449 0.326531 0
0.122449 0.306122 0
0.122449 0.285714 0
0.122449 0.265306 0
0.122449 0.244898 0
0.122449 0.22449 0
0.122449 0.204082 0
0.122449 0.183673 0
0.122449 0.163265 0
0.122449 0.142857 0
0.122449 0.122449 0
0.122449 0.102041 0
0.122449 0.0816327 0
0.122449 0.0612245 0
0.122449 0.0408163 0
0.122449 0.0204082 0
0.142857 0.979592 0
0.142857 0.959184 0
0.142857 0.938776 0
0.142857 0.918367 0
0.142857 0.897959 0
0.142857 0.877551 0
0.142857 0.857143 0
0.142857 0.836735 0
0.142857 0.816327 0
0.142857 0.795918 0
0.142857 0.77551 0
0.142857 0.755102 0
0.142857 0.734694 0
0.142857 0.714286 0
0.142857 0.693878 0
0.142857 0.673469 0
0.142857 0.653061 0
0.142857 0.632653 0
0.142857 0.612245 0
0.142857 0.591837 0
0.142857 0.571429 0
0.142857 0.55102 0
0.142857 0.530612 0
0.142857 0.510204 0
0.142857 0.489796 0
0.142857 0.469388 0
0.142857 0.44898 0
0.142857 0.428571 0
0.142857 0.408163 0
0.142857 0.387755 0
0.142857 0.367347 0
0.142857 0.346939 0
0.142857 0.326531 0
0.142857 0.306122 0
0.142857 0.285714 0
0.142857 0.265306 0
0.142857 0.244898 0
0.142857 0.22449 0
0.142857 0.204082 0
0.142857 0.183673 0
0.142857 0.163265 0
0.142857 0.142857 0
0.142857 0.122449 0
0.142857 0.102041 0
0.142857 0.0816327 0
0.142857 0.0612245 0
0.142857 0.0408163 0
0.142857 0.0204082 0
0.163265 0.979592 0
0.163265 0.959184 0
0.163265 0.938776 0
0.163265 0.918367 0
0.163265 0.897959 0
0.163265 0.877551 0
0.163265 0.857143 0
0.163265 0.836735 0
0.163265 0.816327 0
0.163265 0.795918 0
0.163265 0.77551 0
0.163265 0.755102 0
0.163265 0.734694 0
0.163265 0.714286 0
0.163265 0.693878 0
0.163265 0.673469 0
0.163265 0.653061 0
0.163265 0.632653 0
0.163265 0.612245 0
0.163265 0.591837 0
0.163265 0.571429 0
0.163265 0.55102 0
[...]
CELL_DATA 2401
VECTORS velocity double
0.257582 0.1573 0.0
-0.00262783 0.264438 0.0
-0.0322689 0.205453 0.0
-0.0253744 0.150555 0.0
-0.0160678 0.113011 0.0
-0.00971364 0.0876478 0.0
-0.0059377 0.0705673 0.0
-0.00375093 0.058867 0.0
-0.00246581 0.050639 0.0
-0.0016868 0.0446971 0.0
-0.00119799 0.0402935 0.0
-0.00088194 0.0369435 0.0
-0.0006732 0.0343236 0.0
-0.000533829 0.0322117 0.0
-0.00044082 0.0304518 0.0
-0.000379581 0.0289328 0.0
-0.000340476 0.0275745 0.0
-0.000316906 0.0263192 0.0
-0.000304212 0.0251252 0.0
-0.000299009 0.0239628 0.0
-0.000298786 0.0228117 0.0
-0.000301642 0.0216586 0.0
-0.000306123 0.0204955 0.0
-0.000311111 0.0193189 0.0
-0.000315749 0.0181286 0.0
-0.000319393 0.0169267 0.0
-0.000321571 0.0157174 0.0
-0.000321955 0.0145062 0.0
-0.000320336 0.0132996 0.0
-0.000316605 0.0121047 0.0
-0.000310731 0.0109287 0.0
-0.000302748 0.00977907 0.0
-0.000292733 0.00866298 0.0
-0.000280793 0.00758739 0.0
-0.00026705 0.00655887 0.0
-0.00025163 0.00558363 0.0
-0.000234644 0.00466747 0.0
-0.000216181 0.00381584 0.0
-0.000196294 0.00303391 0.0
-0.000174985 0.00232662 0.0
-0.000152199 0.00169885 0.0
-0.000127806 0.00115545 0.0
-0.000101614 0.000701348 0.0
-7.34123e-05 0.000341474 0.0
-4.31419e-05 8.03766e-05 0.0
-1.14048e-05 -7.88287e-05 0.0
1.92391e-05 -0.000136854 0.0
4.15941e-05 -0.000107136 0.0
3.68183e-05 -3.66315e-05 0.0
0.340768 0.122968 0.0
-0.000660091 0.249477 0.0
-0.0652446 0.271667 0.0
-0.0632846 0.252162 0.0
-0.0485578 0.221624 0.0
-0.0349963 0.191744 0.0
-0.0249359 0.166323 0.0
-0.0178999 0.145858 0.0
-0.0130456 0.129734 0.0
-0.00968689 0.117093 0.0
-0.0073452 0.107134 0.0
-0.00570193 0.0991936 0.0
-0.00454576 0.0927478 0.0
-0.00373461 0.087394 0.0
-0.00317102 0.0828249 0.0
-0.00278667 0.0788081 0.0
-0.00253262 0.0751686 0.0
-0.00237313 0.0717756 0.0
-0.0022816 0.0685328 0.0
-0.00223794 0.0653705 0.0
-0.00222673 0.0622399 0.0
-0.00223604 0.0591087 0.0
-0.00225658 0.0559578 0.0
-0.0022811 0.0527782 0.0
-0.00230401 0.0495692 0.0
-0.00232104 0.0463362 0.0
-0.00232904 0.0430894 0.0
-0.00232576 0.0398424 0.0
-0.00230973 0.0366112 0.0
-0.00228011 0.0334134 0.0
-0.00223656 0.0302672 0.0
-0.00217917 0.0271912 0.0
-0.00210828 0.0242037 0.0
-0.00202448 0.0213224 0.0
-0.00192845 0.0185642 0.0
-0.00182092 0.0159452 0.0
-0.00170259 0.0134804 0.0
-0.00157406 0.011184 0.0
-0.00143584 0.00906957 0.0
-0.00128825 0.0071497 0.0
-0.00113148 0.00543652 0.0
-0.000965613 0.00394153 0.0
-0.000790858 0.00267536 0.0
-0.000607934 0.00164723 0.0
-0.000419049 0.000863486 0.0
-0.000230005 0.000324952 0.0
-5.4517e-05 2.19212e-05 0.0
7.85092e-05 -7.68489e-05 0.0
0.000106579 -4.04506e-05 0.0
0.50082 0.0768053 0.0
0.0989687 0.183206 0.0
-0.0394355 0.249192 0.0
-0.0734885 0.26569 0.0
-0.0719382 0.257388 0.0
-0.0606152 0.239609 0.0
-0.0483422 0.219622 0.0
-0.0377559 0.200711 0.0
-0.0293442 0.184085 0.0
-0.0229045 0.16995 0.0
-0.0180705 0.158091 0.0
-0.0144884 0.14814 0.0
-0.0118642 0.139713 0.0
-0.00996659 0.132459 0.0
-0.0086178 0.126079 0.0
-0.00768203 0.12033 0.0
-0.00705542 0.115017 0.0
-0.00665815 0.109989 0.0
-0.00642842 0.105131 0.0
-0.00631804 0.100359 0.0
-0.00628916 0.0956146 0.0
-0.00631194 0.0908573 0.0
-0.00636281 0.086065 0.0
-0.00642322 0.0812284 0.0
-0.00647872 0.0763487 0.0
-0.00651823 0.0714355 0.0
-0.00653351 0.0665046 0.0
-0.00651866 0.0615763 0.0
-0.00646976 0.0566744 0.0
-0.00638452 0.0518246 0.0
-0.00626199 0.0470534 0.0
-0.00610224 0.042388 0.0
-0.00590611 0.0378549 0.0
-0.00567502 0.03348 0.0
-0.00541067 0.0292881 0.0
-0.00511494 0.0253025 0.0
-0.00478967 0.0215455 0.0
-0.00443657 0.018038 0.0
-0.00405714 0.0147994 0.0
-0.00365267 0.0118481 0.0
-0.00322432 0.00920123 0.0
-0.00277339 0.00687449 0.0
-0.00230193 0.00488162 0.0
-0.00181385 0.00323345 0.0
-0.0013171 0.00193605 0.0
-0.000827667 0.000987686 0.0
-0.000376782 0.000373022 0.0
-2.08662e-05 5.57639e-05 0.0
0.000133887 -1.72841e-05 0.0
0.609993 0.0480507 0.0
0.195574 0.133946 0.0
0.0112698 0.209397 0.0
-0.0581357 0.246445 0.0
-0.0761316 0.257005 0.0
-0.0737377 0.253598 0.0
-0.0644162 0.243409 0.0
-0.0537868 0.230682 0.0
-0.0440282 0.217673 0.0
-0.0358304 0.20543 0.0
-0.0292634 0.194343 0.0
-0.024162 0.184453 0.0
-0.020293 0.175639 0.0
-0.017424 0.167716 0.0
-0.0153489 0.160487 0.0
-0.0138938 0.153769 0.0
-0.012916 0.147403 0.0
-0.0122996 0.141258 0.0
-0.0119508 0.135234 0.0
-0.0117942 0.129253 0.0
-0.011769 0.123261 0.0
-0.0118262 0.117225 0.0
-0.0119267 0.111127 0.0
-0.0120392 0.104962 0.0
-0.0121392 0.0987363 0.0
-0.0122079 0.0924663 0.0
-0.012231 0.0861736 0.0
-0.0121986 0.0798851 0.0
-0.0121039 0.073631 0.0
-0.0119429 0.0674437 0.0
-0.0117141 0.0613564 0.0
-0.0114175 0.0554025 0.0
-0.0110548 0.0496149 0.0
-0.0106283 0.0440254 0.0
-0.0101411 0.0386644 0.0
-0.00959664 0.0335609 0.0
-0.00899815 0.028742 0.0
-0.0083489 0.0242332 0.0
-0.00765188 0.0200584 0.0
-0.00690989 0.0162397 0.0
-0.00612579 0.0127975 0.0
-0.005303 0.00974987 0.0
-0.00444656 0.00711242 0.0
-0.00356492 0.00489672 0.0
-0.00267303 0.00310882 0.0
-0.00179772 0.00174679 0.0
-0.000986254 0.000794947 0.0
-0.000317056 0.000222105 0.0
7.47348e-05 1.28588e-05 0.0
0.680379 0.0301715 0.0
0.278352 0.0981867 0.0
0.0695035 0.170982 0.0
-0.0275663 0.217531 0.0
-0.06528 0.241034 0.0
-0.0746328 0.249574 0.0
-0.0714868 0.249073 0.0
-0.0636046 0.243629 0.0
-0.0546529 0.235816 0.0
-0.0462623 0.227121 0.0
-0.0390617 0.21834 0.0
-0.0331992 0.209848 0.0
-0.0286047 0.201777 0.0
-0.0251214 0.194124 0.0
-0.0225683 0.186825 0.0
-0.0207706 0.179786 0.0
-0.0195705 0.172914 0.0
-0.018832 0.166125 0.0
-0.0184395 0.159347 0.0
-0.0182966 0.152529 0.0
-0.0183231 0.145634 0.0
-0.0184533 0.138643 0.0
-0.0186338 0.131547 0.0
-0.0188214 0.124354 0.0
-0.018982 0.117077 0.0
-0.0190892 0.109741 0.0
-0.0191232 0.102374 0.0
-0.0190697 0.0950096 0.0
-0.0189197 0.0876844 0.0
-0.0186676 0.0804363 0.0
-0.0183115 0.073304 0.0
-0.0178518 0.0663259 0.0
-0.017291 0.0595394 0.0
-0.016633 0.0529807 0.0
-0.0158823 0.0466841 0.0
-0.0150441 0.0406823 0.0
-0.0141236 0.0350057 0.0
-0.013126 0.0296828 0.0
-0.0120559 0.0247403 0.0
-0.0109184 0.0202026 0.0
-0.00971832 0.0160919 0.0
-0.00846197 0.0124279 0.0
-0.00715792 0.00922749 0.0
-0.00581955 0.00650303 0.0
-0.00446863 0.00426187 0.0
-0.00314123 0.0025047 0.0
-0.00189644 0.00122015 0.0
-0.000826217 0.000388696 0.0
-7.82331e-05 4.19058e-05 0.0
0.729767 0.0192005 0.0
0.348888 0.0730579 0.0
0.127837 0.139319 0.0
0.0111992 0.18834 0.0
-0.0442529 0.219747 0.0
-0.0658813 0.23693 0.0
-0.0704575 0.244424 0.0
-0.0670795 0.245697 0.0
-0.060545 0.243203 0.0
-0.0533016 0.238552 0.0
-0.0465256 0.232739 0.0
-0.0407131 0.226348 0.0
-0.0360053 0.219696 0.0
-0.0323661 0.212936 0.0
-0.0296788 0.206121 0.0
-0.0277971 0.199256 0.0
-0.0265714 0.192316 0.0
-0.0258615 0.185272 0.0
-0.0255418 0.178094 0.0
-0.0255032 0.170763 0.0
-0.0256521 0.163267 0.0
-0.0259103 0.155604 0.0
-0.0262127 0.147785 0.0
-0.0265065 0.139828 0.0
-0.0267494 0.131758 0.0
-0.0269088 0.12361 0.0
-0.02696 0.115418 0.0
-0.0268858 0.107225 0.0
-0.0266748 0.0990717 0.0
-0.0263209 0.0910021 0.0
-0.0258221 0.0830591 0.0
-0.0251797 0.0752852 0.0
-0.0243976 0.0677211 0.0
-0.0234813 0.0604061 0.0
-0.0224373 0.0533771 0.0
-0.021273 0.0466688 0.0
-0.0199956 0.0403139 0.0
-0.0186123 0.0343425 0.0
-0.0171304 0.0287825 0.0
-0.0155567 0.0236598 0.0
-0.0138989 0.0189975 0.0
-0.0121661 0.0148165 0.0
-0.0103703 0.0111346 0.0
-0.0085295 0.00796569 0.0
-0.00667097 0.00531993 0.0
-0.00483724 0.00320292 0.0
-0.00309408 0.00161088 0.0
-0.00153862 0.000539226 0.0
-0.000317661 6.68532e-05 0.0
0.765779 0.0125989 0.0
0.40833 0.0557198 0.0
0.182848 0.114575 0.0
0.0527527 0.162719 0.0
-0.0170127 0.197948 0.0
-0.0501172 0.220893 0.0
-0.0628377 0.23439 0.0
-0.0648916 0.241201 0.0
-0.0618338 0.243459 0.0
-0.0567456 0.242693 0.0
-0.0512746 0.239947 0.0
-0.0462454 0.235903 0.0
-0.042018 0.23099 0.0
-0.0386959 0.225469 0.0
-0.0362476 0.219489 0.0
-0.0345753 0.213133 0.0
-0.033554 0.206444 0.0
-0.0330532 0.199444 0.0
-0.032948 0.192147 0.0
-0.0331246 0.184567 0.0
-0.0334826 0.176719 0.0
-0.0339356 0.168626 0.0
-0.034411 0.160314 0.0
-0.0348488 0.151819 0.0
-0.035201 0.143177 0.0
-0.0354303 0.134432 0.0
-0.0355089 0.12563 0.0
-0.0354173 0.116817 0.0
-0.0351435 0.108043 0.0
-0.0346812 0.0993557 0.0
-0.0340294 0.0908017 0.0
-0.0331907 0.0824269 0.0
-0.0321709 0.0742748 0.0
-0.0309778 0.0663864 0.0
-0.0296202 0.0588002 0.0
-0.0281079 0.0515523 0.0
-0.0264505 0.0446758 0.0
-0.0246577 0.0382017 0.0
-0.022739 0.0321584 0.0
-0.0207036 0.026572 0.0
-0.0185617 0.0214663 0.0
-0.016325 0.0168627 0.0
-0.0140087 0.0127802 0.0
-0.0116339 0.00923513 0.0
-0.00923175 0.0062412 0.0
-0.00684779 0.00381062 0.0
-0.00454946 0.00194889 0.0
-0.0024319 0.00066713 0.0
-0.000631524 8.70273e-05 0.0
0.792825 0.00861268 0.0
0.458406 0.0436468 0.0
0.233362 0.0954469 0.0
0.0944568 0.141193 0.0
0.0138997 0.177502 0.0
-0.0295415 0.204078 0.0
-0.0502165 0.221851 0.0
-0.0580591 0.232964 0.0
-0.0590846 0.239169 0.0
-0.0568329 0.241828 0.0
-0.0533274 0.241936 0.0
-0.0496765 0.2402 0.0
-0.0464428 0.237099 0.0
-0.0438691 0.23296 0.0
-0.0420157 0.227997 0.0
-0.0408431 0.222353 0.0
-0.0402614 0.216124 0.0
-0.0401589 0.209379 0.0
-0.0404196 0.20217 0.0
-0.0409318 0.194544 0.0
-0.0415937 0.186544 0.0
-0.0423156 0.178213 0.0
-0.0430206 0.169599 0.0
-0.0436449 0.16075 0.0
-0.0441371 0.151718 0.0
-0.0444572 0.142557 0.0
-0.0445759 0.133321 0.0
-0.0444733 0.124066 0.0
-0.0441375 0.114844 0.0
-0.0435634 0.10571 0.0
-0.0427518 0.0967137 0.0
-0.0417076 0.0879033 0.0
-0.040439 0.0793243 0.0
-0.0389566 0.0710189 0.0
-0.0372721 0.0630265 0.0
-0.035398 0.0553831 0.0
-0.0333467 0.0481221 0.0
-0.0311302 0.0412741 0.0
-0.0287605 0.0348673 0.0
-0.0262491 0.0289274 0.0
-0.0236083 0.0234784 0.0
-0.0208521 0.0185421 0.0
-0.0179977 0.0141389 0.0
-0.0150683 0.0102876 0.0
-0.012096 0.00700633 0.0
-0.00912659 0.00431452 0.0
-0.00622468 0.00222737 0.0
-0.00347797 0.000770811 0.0
-0.00100643 0.00010267 0.0
0.813847 0.00616327 0.0
0.500922 0.0350925 0.0
0.279223 0.0806578 0.0
0.134853 0.123434 0.0
0.0459774 0.159487 0.0
-0.00593705 0.187801 0.0
-0.0339937 0.208485 0.0
-0.0476103 0.222783 0.0
-0.0529974 0.232112 0.0
-0.0539963 0.237628 0.0
-0.0529141 0.240235 0.0
-0.0510901 0.240608 0.0
-0.0492624 0.23924 0.0
-0.0478015 0.236486 0.0
-0.0468569 0.232599 0.0
-0.0464496 0.227764 0.0
-0.0465288 0.222117 0.0
-0.0470075 0.215762 0.0
-0.0477833 0.208785 0.0
-0.048752 0.20126 0.0
-0.0498144 0.193255 0.0
-0.0508813 0.184836 0.0
-0.0518749 0.176067 0.0
-0.0527302 0.167013 0.0
-0.0533946 0.157738 0.0
-0.053828 0.148307 0.0
-0.0540012 0.138784 0.0
-0.0538953 0.12923 0.0
-0.0535001 0.119705 0.0
-0.0528128 0.110266 0.0
-0.0518371 0.100969 0.0
-0.050581 0.0918618 0.0
-0.049056 0.0829926 0.0
-0.0472762 0.0744039 0.0
-0.0452566 0.066135 0.0
-0.0430127 0.0582216 0.0
-0.0405599 0.0506961 0.0
-0.0379129 0.0435884 0.0
-0.0350859 0.0369256 0.0
-0.0320926 0.0307329 0.0
-0.028947 0.0250336 0.0
-0.0256644 0.0198501 0.0
-0.022263 0.0152038 0.0
-0.0187662 0.0111162 0.0
-0.0152054 0.00761007 0.0
-0.0116234 0.00471179 0.0
-0.0080785 0.00244581 0.0
-0.00464706 0.00085107 0.0
-0.00142927 0.000114325 0.0
0.830722 0.00461776 0.0
0.537393 0.0288963 0.0
0.320731 0.0691109 0.0
0.173342 0.108782 0.0
0.0782326 0.143817 0.0
0.0194492 0.17266 0.0
-0.015293 0.195172 0.0
-0.0344555 0.211751 0.0
-0.0442608 0.223465 0.0
-0.048725 0.231278 0.0
-0.0503579 0.235981 0.0
-0.0506784 0.238195 0.0
-0.0505699 0.238395 0.0
-0.0505135 0.236943 0.0
-0.0507399 0.23411 0.0
-0.0513275 0.230105 0.0
-0.0522653 0.22509 0.0
-0.0534921 0.219199 0.0
-0.0549225 0.212541 0.0
-0.0564624 0.205216 0.0
-0.0580184 0.197311 0.0
-0.0595044 0.188913 0.0
-0.0608444 0.180101 0.0
-0.0619746 0.170956 0.0
-0.0628436 0.161553 0.0
-0.0634126 0.151969 0.0
-0.0636547 0.142275 0.0
-0.0635533 0.13254 0.0
-0.0631016 0.122829 0.0
-0.0623004 0.113205 0.0
-0.0611573 0.103724 0.0
-0.0596844 0.0944381 0.0
-0.0578976 0.085395 0.0
-0.0558148 0.0766376 0.0
-0.053455 0.0682046 0.0
-0.0508373 0.0601306 0.0
-0.0479802 0.0524468 0.0
-0.044901 0.0451814 0.0
-0.0416163 0.0383601 0.0
-0.0381413 0.0320067 0.0
-0.0344912 0.026144 0.0
-0.0306819 0.0207942 0.0
-0.0267314 0.0159798 0.0
-0.0226617 0.0117246 0.0
-0.0185012 0.0080556 0.0
-0.0142873 0.00500554 0.0
-0.0100694 0.002607 0.0
-0.00591001 0.000909755 0.0
-0.00188798 0.00012259 0.0
0.84464 0.00360944 0.0
0.569015 0.0243019 0.0
0.358306 0.0599873 0.0
0.209637 0.0966597 0.0
0.109898 0.130287 0.0
0.0454253 0.159003 0.0
0.00506287 0.182345 0.0
-0.0193319 0.200506 0.0
-0.033482 0.213989 0.0
-0.0414907 0.223595 0.0
-0.0460056 0.230002 0.0
-0.0486818 0.233767 0.0
-0.0505189 0.235332 0.0
-0.0520904 0.23505 0.0
-0.0536977 0.233195 0.0
-0.0554711 0.229987 0.0
-0.0574362 0.225607 0.0
-0.0595578 0.220205 0.0
-0.0617676 0.213911 0.0
-0.063983 0.206843 0.0
-0.0661183 0.199106 0.0
-0.0680924 0.190803 0.0
-0.0698329 0.182029 0.0
-0.071279 0.172876 0.0
-0.0723825 0.163434 0.0
-0.0731078 0.153786 0.0
-0.0734315 0.144014 0.0
-0.0733415 0.134193 0.0
-0.0728353 0.124395 0.0
-0.0719189 0.114683 0.0
-0.0706049 0.105117 0.0
-0.0689107 0.0957518 0.0
-0.0668572 0.0866344 0.0
-0.0644672 0.0778075 0.0
-0.0617641 0.0693086 0.0
-0.0587709 0.0611709 0.0
-0.0555094 0.0534235 0.0
-0.0519999 0.0460925 0.0
-0.0482608 0.0392016 0.0
-0.0443088 0.032773 0.0
-0.0401596 0.0268282 0.0
-0.0358286 0.0213889 0.0
-0.0313324 0.0164783 0.0
-0.0266901 0.0121219 0.0
-0.0219254 0.00835043 0.0
-0.0170683 0.0052017 0.0
-0.0121573 0.00271513 0.0
-0.00723944 0.000949015 0.0
-0.00237179 0.000128008 0.0
0.856386 0.00292512 0.0
0.596721 0.0208096 0.0
0.392407 0.0526718 0.0
0.243702 0.0865465 0.0
0.140608 0.118581 0.0
0.0714731 0.146757 0.0
0.0262286 0.170356 0.0
-0.00284741 0.189418 0.0
-0.0211785 0.204172 0.0
-0.0327188 0.215133 0.0
-0.0401926 0.222885 0.0
-0.045353 0.227916 0.0
-0.0492905 0.230633 0.0
-0.0526542 0.231365 0.0
-0.0558047 0.230381 0.0
-0.0589167 0.227905 0.0
-0.0620489 0.224125 0.0
-0.0651893 0.219203 0.0
-0.0682863 0.213283 0.0
-0.0712688 0.206496 0.0
-0.0740594 0.198965 0.0
-0.0765829 0.190803 0.0
-0.078772 0.18212 0.0
-0.0805704 0.17302 0.0
-0.0819344 0.163603 0.0
-0.0828331 0.153962 0.0
-0.0832485 0.144185 0.0
-0.083174 0.134355 0.0
-0.0826133 0.124547 0.0
-0.0815786 0.114829 0.0
-0.0800889 0.105263 0.0
-0.0781679 0.095904 0.0
-0.0758425 0.0867989 0.0
-0.0731411 0.0779896 0.0
-0.0700921 0.0695122 0.0
-0.0667229 0.0613975 0.0
-0.0630589 0.0536722 0.0
-0.0591232 0.0463599 0.0
-0.0549359 0.0394817 0.0
-0.0505147 0.0330575 0.0
-0.0458753 0.0271072 0.0
-0.0410318 0.0216515 0.0
-0.0359982 0.0167134 0.0
-0.0307893 0.0123198 0.0
-0.0254224 0.00850369 0.0
-0.0199188 0.00530712 0.0
-0.0143044 0.00277463 0.0
-0.00861011 0.000970904 0.0
-0.00287113 0.00013103 0.0
0.866485 0.00244041 0.0
0.621231 0.0180884 0.0
0.423459 0.0467128 0.0
0.275597 0.0780228 0.0
0.170142 0.108402 0.0
0.0971936 0.135778 0.0
0.0477077 0.159264 0.0
0.0144923 0.17871 0.0
-0.00778888 0.194303 0.0
-0.0227832 0.206254 0.0
-0.0332272 0.215033 0.0
-0.0409375 0.221069 0.0
-0.0470737 0.224726 0.0
-0.0523447 0.226308 0.0
-0.0571591 0.226074 0.0
-0.0617287 0.224242 0.0
-0.0661398 0.221004 0.0
-0.0704011 0.216527 0.0
-0.0744755 0.210965 0.0
-0.0783025 0.204461 0.0
-0.081813 0.197147 0.0
-0.0849381 0.18915 0.0
-0.0876164 0.180591 0.0
-0.089797 0.171585 0.0
-0.0914419 0.162239 0.0
-0.0925265 0.152657 0.0
-0.0930392 0.142934 0.0
-0.0929808 0.133156 0.0
-0.0923622 0.123405 0.0
-0.0912035 0.11375 0.0
-0.089531 0.104256 0.0
-0.0873759 0.0949775 0.0
-0.0847721 0.0859614 0.0
-0.0817543 0.0772478 0.0
-0.0783566 0.0688707 0.0
-0.0746112 0.0608581 0.0
-0.0705473 0.0532339 0.0
-0.0661907 0.0460184 0.0
-0.0615633 0.0392297 0.0
-0.0566833 0.0328851 0.0
-0.0515657 0.0270018 0.0
-0.0462224 0.0215992 0.0
-0.0406639 0.0166994 0.0
-0.0348996 0.0123297 0.0
-0.0289392 0.00852444 0.0
-0.0227936 0.00532833 0.0
-0.0164755 0.00278955 0.0
-0.00999885 0.000977171 0.0
-0.00337753 0.000132001 0.0
0.875299 0.00208199 0.0
0.643098 0.0159163 0.0
0.451835 0.0417791 0.0
0.305433 0.070755 0.0
0.198393 0.0994869 0.0
0.122333 0.125908 0.0
0.0691573 0.149025 0.0
0.0321928 0.168544 0.0
0.0063656 0.184527 0.0
-0.0119899 0.197177 0.0
-0.025379 0.206712 0.0
-0.0356624 0.213516 0.0
-0.0440533 0.217915 0.0
-0.0513076 0.220187 0.0
-0.0578722 0.220573 0.0
-0.0639886 0.219286 0.0
-0.0697659 0.216514 0.0
-0.075229 0.21243 0.0
-0.0803534 0.207193 0.0
-0.085088 0.200952 0.0
-0.0893708 0.193851 0.0
-0.0931395 0.186026 0.0
-0.0963386 0.177608 0.0
-0.0989236 0.168719 0.0
-0.100863 0.159478 0.0
-0.10214 0.149995 0.0
-0.10275 0.14037 0.0
-0.102704 0.130696 0.0
-0.10202 0.121058 0.0
-0.100728 0.111527 0.0
-0.0988623 0.102169 0.0
-0.0964634 0.0930379 0.0
-0.0935727 0.0841802 0.0
-0.0902322 0.0756337 0.0
-0.0864822 0.0674296 0.0
-0.08236 0.0595927 0.0
-0.0778989 0.0521433 0.0
-0.0731275 0.0450981 0.0
-0.0680693 0.0384716 0.0
-0.0627427 0.0322777 0.0
-0.0571612 0.0265308 0.0
-0.0513342 0.0212478 0.0
-0.0452675 0.0164494 0.0
-0.038964 0.0121621 0.0
-0.0324249 0.00842068 0.0
-0.0256499 0.00527094 0.0
-0.0186375 0.00276322 0.0
-0.0113843 0.000969184 0.0
-0.00388336 0.000131165 0.0
0.883082 0.00180576 0.0
0.66275 0.0141416 0.0
0.477853 0.0376256 0.0
0.333339 0.0644789 0.0
0.225319 0.0916045 0.0
0.14673 0.11698 0.0
0.0903432 0.139549 0.0
0.0499895 0.158913 0.0
0.0208568 0.175029 0.0
-0.000614373 0.188038 0.0
-0.0168873 0.198097 0.0
-0.0297352 0.205454 0.0
-0.0404048 0.21041 0.0
-0.0496881 0.213214 0.0
-0.0580612 0.21409 0.0
-0.0657887 0.213242 0.0
-0.0729969 0.210853 0.0
-0.0797237 0.207097 0.0
-0.0859543 0.202137 0.0
-0.0916449 0.196129 0.0
-0.0967399 0.189222 0.0
-0.101183 0.181563 0.0
-0.104925 0.173288 0.0
-0.107928 0.164532 0.0
-0.110168 0.155418 0.0
-0.111636 0.146064 0.0
-0.112339 0.136575 0.0
-0.112294 0.12705 0.0
-0.111532 0.117573 0.0
-0.110093 0.108221 0.0
-0.108021 0.0990568 0.0
-0.105365 0.0901354 0.0
-0.102177 0.0815008 0.0
-0.0985053 0.0731883 0.0
-0.094398 0.0652257 0.0
-0.0898978 0.057634 0.0
-0.0850421 0.0504295 0.0
-0.0798625 0.0436246 0.0
-0.0743837 0.0372297 0.0
-0.0686241 0.0312547 0.0
-0.0625955 0.0257106 0.0
-0.0563038 0.0206111 0.0
-0.0497494 0.0159746 0.0
-0.0429281 0.0118259 0.0
-0.0358315 0.00819898 0.0
-0.0284473 0.00513941 0.0
-0.0207593 0.00269818 0.0
-0.0127467 0.000947914 0.0
-0.00438162 0.000128675 0.0
0.890016 0.00158446 0.0
0.680515 0.0126583 0.0
0.501779 0.0340687 0.0
0.35944 0.0589842 0.0
0.250913 0.084558 0.0
0.170276 0.108835 0.0
0.111091 0.130725 0.0
0.0676724 0.149755 0.0
0.0354781 0.1658 0.0
0.0110855 0.178923 0.0
-0.00797026 0.189283 0.0
-0.0233482 0.197002 0.0
-0.0362949 0.202341 0.0
-0.0476282 0.205528 0.0
-0.057845 0.206766 0.0
-0.0672266 0.206248 0.0
-0.0759112 0.204153 0.0
-0.0839461 0.200653 0.0
-0.0913231 0.195914 0.0
-0.0980039 0.190097 0.0
-0.103938 0.183357 0.0
-0.109075 0.175847 0.0
-0.11337 0.167714 0.0
-0.116795 0.159096 0.0
-0.119332 0.150126 0.0
-0.120984 0.140925 0.0
-0.121766 0.131606 0.0
-0.121707 0.122268 0.0
-0.12085 0.112999 0.0
-0.119245 0.103875 0.0
-0.116948 0.0949609 0.0
-0.11402 0.0863081 0.0
-0.11052 0.0779584 0.0
-0.106508 0.069944 0.0
-0.102037 0.0622886 0.0
-0.0971564 0.055009 0.0
-0.0919085 0.0481166 0.0
-0.0863274 0.0416193 0.0
-0.0804392 0.0355228 0.0
-0.0742618 0.0298324 0.0
-0.0678048 0.0245549 0.0
-0.0610701 0.0197005 0.0
-0.0540524 0.0152842 0.0
-0.0467394 0.0113283 0.0
-0.0391126 0.00786449 0.0
-0.0311471 0.00493707 0.0
-0.0228115 0.00259624 0.0
-0.0140672 0.000913986 0.0
-0.0048657 0.000124606 0.0
0.896234 0.00140069 0.0
0.696649 0.0113907 0.0
0.523828 0.0309691 0.0
0.383852 0.0541028 0.0
0.275186 0.0781806 0.0
0.192896 0.101327 0.0
0.131265 0.122442 0.0
0.085067 0.140998 0.0
0.0500275 0.156806 0.0
0.0228679 0.169869 0.0
0.00118659 0.1803 0.0
-0.016673 0.188217 0.0
-0.0318783 0.193779 0.0
-0.0452641 0.197206 0.0
-0.0573417 0.198681 0.0
-0.0684023 0.198384 0.0
-0.0785921 0.196491 0.0
-0.0879634 0.193171 0.0
-0.0965119 0.188592 0.0
-0.104203 0.182918 0.0
-0.11099 0.176312 0.0
-0.116827 0.168932 0.0
-0.121677 0.16093 0.0
-0.125517 0.152454 0.0
-0.12834 0.14364 0.0
-0.130157 0.134616 0.0
-0.130997 0.125496 0.0
-0.130902 0.116383 0.0
-0.129926 0.107367 0.0