# vtk DataFile Version 3.0
Malha 2D com triângulos e temperatura
ASCII
DATASET UNSTRUCTURED_GRID

POINTS 2500 double
0 0 0
1 0 0
1 1 0
0 1 0
0.0204082 0 0
0.0408163 0 0
0.0612245 0 0
0.0816327 0 0
0.102041 0 0
0.122449 0 0
0.142857 0 0
0.163265 0 0
0.183673 0 0
0.204082 0 0
0.22449 0 0
0.244898 0 0
0.265306 0 0
0.285714 0 0
0.306122 0 0
0.326531 0 0
0.346939 0 0
0.367347 0 0
0.387755 0 0
0.408163 0 0
0.428571 0 0
0.44898 0 0
0.469388 0 0
0.489796 0 0
0.510204 0 0
0.530612 0 0
0.55102 0 0
0.571429 0 0
0.591837 0 0
0.612245 0 0
0.632653 0 0
0.653061 0 0
0.673469 0 0
0.693878 0 0
0.714286 0 0
0.734694 0 0
0.755102 0 0
0.77551 0 0
0.795918 0 0
0.816327 0 0
0.836735 0 0
0.857143 0 0
0.877551 0 0
0.897959 0 0
0.918367 0 0
0.938776 0 0
0.959184 0 0
0.979592 0 0
1 0.0204082 0
1 0.0408163 0
1 0.0612245 0
1 0.0816327 0
1 0.102041 0
1 0.122449 0
1 0.142857 0
1 0.163265 0
1 0.183673 0
1 0.204082 0
1 0.22449 0
1 0.244898 0
1 0.265306 0
1 0.285714 0
1 0.306122 0
1 0.326531 0
1 0.346939 0
1 0.367347 0
1 0.387755 0
1 0.408163 0
1 0.428571 0
1 0.44898 0
1 0.469388 0
1 0.489796 0
1 0.510204 0
1 0.530612 0
1 0.55102 0
1 0.571429 0
1 0.591837 0
1 0.612245 0
1 0.632653 0
1 0.653061 0
1 0.673469 0
1 0.693878 0
1 0.714286 0
1 0.734694 0
1 0.755102 0
1 0.77551 0
1 0.795918 0
1 0.816327 0
1 0.836735 0
1 0.857143 0
1 0.877551 0
1 0.897959 0
1 0.918367 0
1 0.938776 0
1 0.959184 0
1 0.979592 0
0.979592 1 0
0.959184 1 0
0.938776 1 0
0.918367 1 0
0.897959 1 0
0.877551 1 0
0.857143 1 0
0.836735 1 0
0.816327 1 0
0.795918 1 0
0.77551 1 0
0.755102 1 0
0.734694 1 0
0.714286 1 0
0.693878 1 0
0.673469 1 0
0.653061 1 0
0.632653 1 0
0.612245 1 0
0.591837 1 0
0.571429 1 0
0.55102 1 0
0.530612 1 0
0.510204 1 0
0.489796 1 0
0.469388 1 0
0.44898 1 0
0.428571 1 0
0.408163 1 0
0.387755 1 0
0.367347 1 0
0.346939 1 0
0.326531 1 0
0.306122 1 0
0.285714 1 0
0.265306 1 0
0.244898 1 0
0.22449 1 0
0.204082 1 0
0.183673 1 0
0.163265 1 0
0.142857 1 0
0.122449 1 0
0.102041 1 0
0.0816327 1 0
0.0612245 1 0
0.0408163 1 0
0.0204082 1 0
0 0.979592 0
0 0.959184 0
0 0.938776 0
0 0.918367 0
0 0.897959 0
0 0.877551 0
0 0.857143 0
0 0.836735 0
0 0.816327 0
0 0.795918 0
0 0.77551 0
0 0.755102 0
0 0.734694 0
0 0.714286 0
0 0.693878 0
0 0.673469 0
0 0.653061 0
0 0.632653 0
0 0.612245 0
0 0.591837 0
0 0.571429 0
0 0.55102 0
0 0.530612 0
0 0.510204 0
0 0.489796 0
0 0.469388 0
0 0.44898 0
0 0.428571 0
0 0.408163 0
0 0.387755 0
0 0.367347 0
0 0.346939 0
0 0.326531 0
0 0.306122 0
0 0.285714 0
0 0.265306 0
0 0.244898 0
0 0.22449 0
0 0.204082 0
0 0.183673 0
0 0.163265 0
0 0.142857 0
0 0.122449 0
0 0.102041 0
0 0.0816327 0
0 0.0612245 0
0 0.0408163 0
0 0.0204082 0
0.0204082 0.979592 0
0.0204082 0.959184 0
0.0204082 0.938776 0
0.0204082 0.918367 0
0.0204082 0.897959 0
0.0204082 0.877551 0
0.0204082 0.857143 0
0.0204082 0.836735 0
0.0204082 0.816327 0
0.0204082 0.795918 0
0.0204082 0.77551 0
0.0204082 0.755102 0
0.0204082 0.734694 0
0.0204082 0.714286 0
0.0204082 0.693878 0
0.0204082 0.673469 0
0.0204082 0.653061 0
0.0204082 0.632653 0
0.0204082 0.612245 0
0.0204082 0.591837 0
0.0204082 0.571429 0
0.0204082 0.55102 0
0.0204082 0.530612 0
0.0204082 0.510204 0
0.0204082 0.489796 0
0.0204082 0.469388 0
0.0204082 0.44898 0
0.0204082 0.428571 0
0.0204082 0.408163 0
0.0204082 0.387755 0
0.0204082 0.367347 0
0.0204082 0.346939 0
0.0204082 0.326531 0
0.0204082 0.306122 0
0.0204082 0.285714 0
0.0204082 0.265306 0
0.0204082 0.244898 0
0.0204082 0.22449 0
0.0204082 0.204082 0
0.0204082 0.183673 0
0.0204082 0.163265 0
0.0204082 0.142857 0
0.0204082 0.122449 0
0.0204082 0.102041 0
0.0204082 0.0816327 0
0.0204082 0.0612245 0
0.0204082 0.0408163 0
0.0204082 0.0204082 0
0.0408163 0.979592 0
0.0408163 0.959184 0
0.0408163 0.938776 0
0.0408163 0.918367 0
0.0408163 0.897959 0
0.0408163 0.877551 0
0.0408163 0.857143 0
0.0408163 0.836735 0
0.0408163 0.816327 0
0.0408163 0.795918 0
0.0408163 0.77551 0
0.0408163 0.755102 0
0.0408163 0.734694 0
0.0408163 0.714286 0
0.0408163 0.693878 0
0.0408163 0.673469 0
0.0408163 0.653061 0
0.0408163 0.632653 0
0.0408163 0.612245 0
0.0408163 0.591837 0
0.0408163 0.571429 0
0.0408163 0.55102 0
0.0408163 0.530612 0
0.0408163 0.510204 0
0.0408163 0.489796 0
0.0408163 0.469388 0
0.0408163 0.44898 0
0.0408163 0.428571 0
0.0408163 0.408163 0
0.0408163 0.387755 0
0.0408163 0.367347 0
0.0408163 0.346939 0
0.0408163 0.326531 0
0.0408163 0.306122 0
0.0408163 0.285714 0
0.0408163 0.265306 0
0.0408163 0.244898 0
0.0408163 0.22449 0
0.0408163 0.204082 0
0.0408163 0.183673 0
0.0408163 0.163265 0
0.0408163 0.142857 0
0.0408163 0.122449 0
0.0408163 0.102041 0
0.0408163 0.0816327 0
0.0408163 0.0612245 0
0.0408163 0.0408163 0
0.0408163 0.0204082 0
0.0612245 0.979592 0
0.0612245 0.959184 0
0.0612245 0.938776 0
0.0612245 0.918367 0
0.0612245 0.897959 0
0.0612245 0.877551 0
0.0612245 0.857143 0
0.0612245 0.836735 0
0.0612245 0.816327 0
0.0612245 0.795918 0
0.0612245 0.77551 0
0.0612245 0.755102 0
0.0612245 0.734694 0
0.0612245 0.714286 0
0.0612245 0.693878 0
0.0612245 0.673469 0
0.0612245 0.653061 0
0.0612245 0.632653 0
0.0612245 0.612245 0
0.0612245 0.591837 0
0.0612245 0.571429 0
0.0612245 0.55102 0
0.0612245 0.530612 0
0.0612245 0.510204 0
0.0612245 0.489796 0
0.0612245 0.469388 0
0.0612245 0.44898 0
0.0612245 0.428571 0
0.0612245 0.408163 0
0.0612245 0.387755 0
0.0612245 0.367347 0
0.0612245 0.346939 0
0.0612245 0.326531 0
0.0612245 0.306122 0
0.0612245 0.285714 0
0.0612245 0.265306 0
0.0612245 0.244898 0
0.0612245 0.22449 0
0.0612245 0.204082 0
0.0612245 0.183673 0
0.0612245 0.163265 0
0.0612245 0.142857 0
0.0612245 0.122449 0
0.0612245 0.102041 0
0.0612245 0.0816327 0
0.0612245 0.0612245 0
0.0612245 0.0408163 0
0.0612245 0.0204082 0
0.0816327 0.979592 0
0.0816327 0.959184 0
0.0816327 0.938776 0
0.0816327 0.918367 0
0.0816327 0.897959 0
0.0816327 0.877551 0
0.0816327 0.857143 0
0.0816327 0.836735 0
0.0816327 0.816327 0
0.0816327 0.795918 0
0.0816327 0.77551 0
0.0816327 0.755102 0
0.0816327 0.734694 0
0.0816327 0.714286 0
0.0816327 0.693878 0
0.0816327 0.673469 0
0.0816327 0.653061 0
0.0816327 0.632653 0
0.0816327 0.612245 0
0.0816327 0.591837 0
0.0816327 0.571429 0
0.0816327 0.55102 0
0.0816327 0.530612 0
0.0816327 0.510204 0
0.0816327 0.489796 0
0.0816327 0.469388 0
0.0816327 0.44898 0
0.0816327 0.428571 0
0.0816327 0.408163 0
0.0816327 0.387755 0
0.0816327 0.367347 0
0.0816327 0.346939 0
0.0816327 0.326531 0
0.0816327 0.306122 0
0.0816327 0.285714 0
0.0816327 0.265306 0
0.0816327 0.244898 0
0.0816327 0.22449 0
0.0816327 0.204082 0
0.0816327 0.183673 0
0.0816327 0.163265 0
0.0816327 0.142857 0
0.0816327 0.122449 0
0.0816327 0.102041 0
0.0816327 0.0816327 0
0.0816327 0.0612245 0
0.0816327 0.0408163 0
0.0816327 0.0204082 0
0.102041 0.979592 0
0.102041 0.959184 0
0.102041 0.938776 0
0.102041 0.918367 0
0.102041 0.897959 0
0.102041 0.877551 0
0.102041 0.857143 0
0.102041 0.836735 0
0.102041 0.816327 0
0.102041 0.795918 0
0.102041 0.77551 0
0.102041 0.755102 0
0.102041 0.734694 0
0.102041 0.714286 0
0.102041 0.693878 0
0.102041 0.673469 0
0.102041 0.653061 0
0.102041 0.632653 0
0.102041 0.612245 0
0.102041 0.591837 0
0.102041 0.571429 0
0.102041 0.55102 0
0.102041 0.530612 0
0.102041 0.510204 0
0.102041 0.489796 0
0.102041 0.469388 0
0.102041 0.44898 0
0.102041 0.428571 0
0.102041 0.408163 0
0.102041 0.387755 0
0.102041 0.367347 0
0.102041 0.346939 0
0.102041 0.326531 0
0.102041 0.306122 0
0.102041 0.285714 0
0.102041 0.265306 0
0.102041 0.244898 0
0.102041 0.22449 0
0.102041 0.204082 0
0.102041 0.183673 0
0.102041 0.163265 0
0.102041 0.142857 0
0.102041 0.122449 0
0.102041 0.102041 0
0.102041 0.0816327 0
0.102041 0.0612245 0
0.102041 0.0408163 0
0.102041 0.0204082 0
0.122449 0.979592 0
0.122449 0.959184 0
0.122449 0.938776 0
0.122449 0.918367 0
0.122449 0.897959 0
0.122449 0.877551 0
0.122449 0.857143 0
0.122449 0.836735 0
0.122449 0.816327 0
0.122449 0.795918 0
0.122449 0.77551 0
0.122449 0.755102 0
0.122449 0.734694 0
0.122449 0.714286 0
0.122449 0.693878 0
0.122449 0.673469 0
0.122449 0.653061 0
0.122449 0.632653 0
0.122449 0.612245 0
0.122449 0.591837 0
0.122449 0.571429 0
0.122449 0.55102 0
0.122449 0.530612 0
0.122449 0.510204 0
0.122449 0.489796 0
0.122449 0.469388 0
0.122449 0.44898 0
0.122449 0.428571 0
0.122449 0.408163 0
0.122449 0.387755 0
0.122449 0.367347 0
0.122449 0.346939 0
0.122449 0.326531 0
0.122449 0.306122 0
0.122449 0.285714 0
0.122449 0.265306 0
0.122449 0.244898 0
0.122449 0.22449 0
0.122449 0.204082 0
0.122449 0.183673 0
0.122449 0.163265 0
0.122449 0.142857 0
0.122449 0.122449 0
0.122449 0.102041 0
0.122449 0.0816327 0
0.122449 0.0612245 0
0.122449 0.0408163 0
0.122449 0.0204082 0
0.142857 0.979592 0
0.142857 0.959184 0
0.142857 0.938776 0
0.142857 0.918367 0
0.142857 0.897959 0
0.142857 0.877551 0
0.142857 0.857143 0
0.142857 0.836735 0
0.142857 0.816327 0
0.142857 0.795918 0
0.142857 0.77551 0
0.142857 0.755102 0
0.142857 0.734694 0
0.142857 0.714286 0
0.142857 0.693878 0
0.142857 0.673469 0
0.142857 0.653061 0
0.142857 0.632653 0
0.142857 0.612245 0
0.142857 0.591837 0
0.142857 0.571429 0
0.142857 0.55102 0
0.142857 0.530612 0
0.142857 0.510204 0
0.142857 0.489796 0
0.142857 0.469388 0
0.142857 0.44898 0
0.142857 0.428571 0
0.142857 0.408163 0
0.142857 0.387755 0
0.142857 0.367347 0
0.142857 0.346939 0
0.142857 0.326531 0
0.142857 0.306122 0
0.142857 0.285714 0
0.142857 0.265306 0
0.142857 0.244898 0
0.142857 0.22449 0
0.142857 0.204082 0
0.142857 0.183673 0
0.142857 0.163265 0
0.142857 0.142857 0
0.142857 0.122449 0
0.142857 0.102041 0
0.142857 0.0816327 0
0.142857 0.0612245 0
0.142857 0.0408163 0
0.142857 0.0204082 0
0.163265 0.979592 0
0.163265 0.959184 0
0.163265 0.938776 0
0.163265 0.918367 0
0.163265 0.897959 0
0.163265 0.877551 0
0.163265 0.857143 0
0.163265 0.836735 0
0.163265 0.816327 0
0.163265 0.795918 0
0.163265 0.77551 0
0.163265 0.755102 0
0.163265 0.734694 0
0.163265 0.714286 0
0.163265 0.693878 0
0.163265 0.673469 0
0.163265 0.653061 0
0.163265 0.632653 0
0.163265 0.612245 0
0.163265 0.591837 0
0.163265 0.571429 0
0.163265 0.55102 0
[...]
CELL_DATA 2401
VECTORS velocity double
0.257582 0.1573 0.0
-0.00262894 0.264436 0.0
-0.0322706 0.205447 0.0
-0.025376 0.150545 0.0
-0.016069 0.112999 0.0
-0.00971399 0.0876347 0.0
-0.00593729 0.0705555 0.0
-0.00374989 0.0588583 0.0
-0.00246431 0.0506351 0.0
-0.001685 0.044699 0.0
-0.00119602 0.040302 0.0
-0.000879908 0.036959 0.0
-0.00067118 0.0343462 0.0
-0.000531876 0.0322411 0.0
-0.000438973 0.0304878 0.0
-0.000377871 0.028975 0.0
-0.000338926 0.0276225 0.0
-0.000315535 0.0263723 0.0
-0.000303036 0.0251826 0.0
-0.000298041 0.0240239 0.0
-0.000298036 0.0228758 0.0
-0.000301117 0.0217247 0.0
-0.000305826 0.020563 0.0
-0.000311042 0.019387 0.0
-0.000315904 0.0181963 0.0
-0.000319764 0.0169933 0.0
-0.000322144 0.0157822 0.0
-0.000322713 0.0145685 0.0
-0.000321259 0.0133588 0.0
-0.000317669 0.0121603 0.0
-0.000311911 0.0109802 0.0
-0.000304015 0.0098261 0.0
-0.000294058 0.00870529 0.0
-0.000282146 0.00762482 0.0
-0.000268402 0.00659136 0.0
-0.000252951 0.00561123 0.0
-0.000235907 0.00469033 0.0
-0.00021736 0.00383419 0.0
-0.000197365 0.00304806 0.0
-0.000175929 0.00233699 0.0
-0.000152996 0.00170589 0.0
-0.000128443 0.00115968 0.0
-0.00010208 0.00070334 0.0
-7.36981e-05 0.000341815 0.0
-4.32461e-05 7.96657e-05 0.0
-1.13352e-05 -8.00069e-05 0.0
1.94532e-05 -0.00013797 0.0
4.18781e-05 -0.000107804 0.0
3.70064e-05 -3.6818e-05 0.0
0.340766 0.122967 0.0
-0.000665472 0.249471 0.0
-0.0652512 0.271655 0.0
-0.0632903 0.252145 0.0
-0.0485608 0.221604 0.0
-0.0349957 0.191725 0.0
-0.0249317 0.166308 0.0
-0.0178924 0.145852 0.0
-0.0130357 0.12974 0.0
-0.0096752 0.117114 0.0
-0.00733246 0.107171 0.0
-0.00568873 0.0992475 0.0
-0.00453256 0.0928192 0.0
-0.00372178 0.0874826 0.0
-0.00315885 0.0829301 0.0
-0.00277538 0.0789288 0.0
-0.00252239 0.0753036 0.0
-0.0023641 0.0719234 0.0
-0.0022739 0.0686916 0.0
-0.00223166 0.0655384 0.0
-0.00222193 0.062415 0.0
-0.00223277 0.059289 0.0
-0.00225485 0.0561412 0.0
-0.00228091 0.0529627 0.0
-0.00230532 0.0497527 0.0
-0.0023238 0.0465168 0.0
-0.00233314 0.0432651 0.0
-0.0023311 0.0400116 0.0
-0.00231617 0.0367723 0.0
-0.0022875 0.0335649 0.0
-0.00224474 0.0304081 0.0
-0.00218793 0.0273206 0.0
-0.00211746 0.0243208 0.0
-0.00203387 0.0214269 0.0
-0.00193785 0.0186558 0.0
-0.00183014 0.016024 0.0
-0.00171145 0.0135467 0.0
-0.00158241 0.0112385 0.0
-0.0014435 0.00911294 0.0
-0.0012951 0.00718294 0.0
-0.00113739 0.00546077 0.0
-0.000970504 0.00395806 0.0
-0.00079466 0.00268557 0.0
-0.000610614 0.00165255 0.0
-0.000420618 0.000865365 0.0
-0.000230537 0.000324787 0.0
-5.41924e-05 2.09556e-05 0.0
7.93348e-05 -7.76628e-05 0.0
0.000107242 -4.0725e-05 0.0
0.500815 0.0768038 0.0
0.0989573 0.1832 0.0
-0.0394481 0.249179 0.0
-0.0734979 0.265674 0.0
-0.0719412 0.257371 0.0
-0.06061 0.239596 0.0
-0.0483287 0.219618 0.0
-0.0377349 0.200721 0.0
-0.0293173 0.184113 0.0
-0.0228733 0.17 0.0
-0.0180367 0.158163 0.0
-0.0144534 0.148237 0.0
-0.0118291 0.139835 0.0
-0.0099324 0.132605 0.0
-0.00858532 0.126249 0.0
-0.0076519 0.120523 0.0
-0.00702814 0.11523 0.0
-0.00663414 0.11022 0.0
-0.006408 0.105378 0.0
-0.00630146 0.100619 0.0
-0.00627661 0.0958842 0.0
-0.00630352 0.0911341 0.0
-0.00635856 0.086346 0.0
-0.00642312 0.0815105 0.0
-0.00648266 0.076629 0.0
-0.00652605 0.0717112 0.0
-0.00654496 0.0667729 0.0
-0.00653343 0.0618348 0.0
-0.0064875 0.0569208 0.0
-0.00640483 0.0520569 0.0
-0.0062844 0.04727 0.0
-0.00612627 0.0425875 0.0
-0.00593127 0.0380363 0.0
-0.00570077 0.0336426 0.0
-0.00543651 0.0294316 0.0
-0.00514036 0.025427 0.0
-0.00481418 0.0216515 0.0
-0.00445972 0.0181261 0.0
-0.00407852 0.0148708 0.0
-0.00367191 0.0119042 0.0
-0.00324111 0.00924361 0.0
-0.00278748 0.00690491 0.0
-0.00231316 0.00490205 0.0
-0.00182215 0.00324592 0.0
-0.0013225 0.0019426 0.0
-0.000830386 0.000990278 0.0
-0.000377259 0.000373438 0.0
-1.98902e-05 5.54329e-05 0.0
0.000134981 -1.74849e-05 0.0
0.609984 0.0480493 0.0
0.195557 0.13394 0.0
0.0112526 0.209387 0.0
-0.058146 0.246434 0.0
-0.0761308 0.256998 0.0
-0.0737235 0.253599 0.0
-0.0643886 0.243424 0.0
-0.0537471 0.230716 0.0
-0.0439788 0.21773 0.0
-0.035774 0.205514 0.0
-0.0292025 0.194455 0.0
-0.024099 0.184594 0.0
-0.0202299 0.175811 0.0
-0.0173626 0.167918 0.0
-0.0152906 0.160717 0.0
-0.0138398 0.154026 0.0
-0.0128672 0.147683 0.0
-0.0122566 0.141561 0.0
-0.0119144 0.135555 0.0
-0.0117648 0.129589 0.0
-0.0117469 0.123609 0.0
-0.0118116 0.117581 0.0
-0.0119197 0.111487 0.0
-0.0120397 0.105323 0.0
-0.012147 0.0990952 0.0
-0.0122227 0.092819 0.0
-0.0122524 0.086517 0.0
-0.012226 0.080216 0.0
-0.0121366 0.0739468 0.0
-0.0119803 0.0677419 0.0
-0.0117553 0.061635 0.0
-0.0114617 0.0556598 0.0
-0.011101 0.0498496 0.0
-0.0106757 0.0442368 0.0
-0.0101888 0.0388521 0.0
-0.00964356 0.0337248 0.0
-0.00904352 0.0288827 0.0
-0.00839189 0.0243515 0.0
-0.00769175 0.0201556 0.0
-0.00694597 0.0163174 0.0
-0.00615752 0.0128575 0.0
-0.00532994 0.00979434 0.0
-0.0044684 0.00714367 0.0
-0.00358153 0.00491718 0.0
-0.0026845 0.00312093 0.0
-0.00180439 0.00175293 0.0
-0.000988851 0.000797304 0.0
-0.000316796 0.000222526 0.0
7.58964e-05 1.27916e-05 0.0
0.680367 0.0301705 0.0
0.278332 0.0981832 0.0
0.0694855 0.170978 0.0
-0.0275736 0.21753 0.0
-0.065271 0.24104 0.0
-0.074605 0.249593 0.0
-0.0714403 0.24911 0.0
-0.0635416 0.24369 0.0
-0.0545765 0.235904 0.0
-0.0461761 0.227239 0.0
-0.0389694 0.218491 0.0
-0.0331041 0.210032 0.0
-0.0285098 0.201995 0.0
-0.0250291 0.194375 0.0
-0.0224808 0.187107 0.0
-0.0206895 0.180097 0.0
-0.0194973 0.173252 0.0
-0.0187679 0.166486 0.0
-0.0183853 0.159729 0.0
-0.0182529 0.152927 0.0
-0.0182906 0.146045 0.0
-0.0184322 0.139062 0.0
-0.0186242 0.131971 0.0
-0.0188231 0.124778 0.0
-0.0189948 0.117498 0.0
-0.0191125 0.110154 0.0
-0.0191564 0.102776 0.0
-0.0191121 0.0953971 0.0
-0.0189702 0.0880545 0.0
-0.0187251 0.0807863 0.0
-0.0183748 0.0736317 0.0
-0.0179197 0.0666293 0.0
-0.0173621 0.0598171 0.0
-0.0167059 0.0532318 0.0
-0.0159556 0.0469081 0.0
-0.0151165 0.0408791 0.0
-0.0141938 0.0351758 0.0
-0.0131927 0.0298271 0.0
-0.012118 0.0248601 0.0
-0.0109748 0.0202995 0.0
-0.00976833 0.016168 0.0
-0.00850484 0.0124856 0.0
-0.00719318 0.00926919 0.0
-0.00584699 0.00653143 0.0
-0.00448835 0.00427968 0.0
-0.0031537 0.00251457 0.0
-0.00190262 0.00122459 0.0
-0.000827696 0.000389929 0.0
-7.74512e-05 4.19804e-05 0.0
0.729754 0.0192001 0.0
0.348867 0.0730573 0.0
0.127821 0.13932 0.0
0.0111992 0.188348 0.0
-0.0442312 0.219768 0.0
-0.0658354 0.236968 0.0
-0.0703881 0.244485 0.0
-0.0669892 0.245784 0.0
-0.0604379 0.243322 0.0
-0.0531824 0.238703 0.0
-0.0463989 0.232925 0.0
-0.0405832 0.22657 0.0
-0.0358759 0.219954 0.0
-0.0322406 0.213228 0.0
-0.02956 0.206446 0.0
-0.0276872 0.199611 0.0
-0.0264724 0.192699 0.0
-0.0257749 0.185679 0.0
-0.0254689 0.178522 0.0
-0.0254448 0.171208 0.0
-0.025609 0.163724 0.0
-0.0258827 0.15607 0.0
-0.0262008 0.148255 0.0
-0.0265101 0.140298 0.0
-0.0267681 0.132224 0.0
-0.0269419 0.124067 0.0
-0.0270067 0.115864 0.0
-0.0269448 0.107654 0.0
-0.026745 0.0994825 0.0
-0.0264007 0.0913911 0.0
-0.0259099 0.0834239 0.0
-0.0252738 0.0756237 0.0
-0.0244962 0.0680319 0.0
-0.0235824 0.060688 0.0
-0.0225392 0.0536296 0.0
-0.0213737 0.0468918 0.0
-0.0200934 0.0405078 0.0
-0.0187056 0.0345081 0.0
-0.0172176 0.0289212 0.0
-0.0156364 0.0237731 0.0
-0.0139699 0.0190877 0.0
-0.0122274 0.0148859 0.0
-0.0104214 0.0111857 0.0
-0.00857001 0.00800138 0.0
-0.00670097 0.00534303 0.0
-0.00485727 0.0032163 0.0
-0.00310528 0.00161728 0.0
-0.00154285 0.00054122 0.0
-0.000317691 6.70548e-05 0.0
0.765766 0.0125992 0.0
0.408311 0.0557222 0.0
0.182839 0.114583 0.0
0.0527642 0.162738 0.0
-0.0169744 0.197983 0.0
-0.0500495 0.22095 0.0
-0.0627418 0.234472 0.0
-0.0647711 0.241313 0.0
-0.0616935 0.243604 0.0
-0.0565913 0.242873 0.0
-0.0511117 0.240163 0.0
-0.0460792 0.236156 0.0
-0.041853 0.23128 0.0
-0.0385363 0.225794 0.0
-0.0360967 0.219847 0.0
-0.034436 0.213522 0.0
-0.0334287 0.20686 0.0
-0.0329439 0.199885 0.0
-0.0328562 0.192608 0.0
-0.0330515 0.185045 0.0
-0.033429 0.177209 0.0
-0.0339019 0.169124 0.0
-0.0343973 0.160817 0.0
-0.0348549 0.15232 0.0
-0.0352264 0.143674 0.0
-0.0354741 0.13492 0.0
-0.03557 0.126105 0.0
-0.0354943 0.117276 0.0
-0.0352346 0.108482 0.0
-0.0347847 0.0997718 0.0
-0.0341432 0.0911926 0.0
-0.0333126 0.0827905 0.0
-0.0322986 0.0746094 0.0
-0.0311089 0.0666909 0.0
-0.0297525 0.0590739 0.0
-0.0282389 0.051795 0.0
-0.026578 0.0448879 0.0
-0.0247797 0.038384 0.0
-0.0228533 0.0323121 0.0
-0.0208085 0.0266987 0.0
-0.0186557 0.021568 0.0
-0.0164069 0.0169418 0.0
-0.0140776 0.0128394 0.0
-0.0116894 0.00927709 0.0
-0.00927377 0.00626891 0.0
-0.00687695 0.00382707 0.0
-0.00456698 0.00195702 0.0
-0.00243981 0.000669777 0.0
-0.000632748 8.73332e-05 0.0
0.792815 0.0086135 0.0
0.458394 0.0436519 0.0
0.233363 0.0954611 0.0
0.0944833 0.141221 0.0
0.0139592 0.177549 0.0
-0.0294485 0.204149 0.0
-0.0500915 0.221951 0.0
-0.0579062 0.233096 0.0
-0.0589096 0.239336 0.0
-0.0566422 0.24203 0.0
-0.0531275 0.242176 0.0
-0.0494735 0.240476 0.0
-0.046242 0.237412 0.0
-0.0436752 0.233308 0.0
-0.0418328 0.228377 0.0
-0.0406747 0.222764 0.0
-0.0401102 0.216562 0.0
-0.0400273 0.209841 0.0
-0.0403093 0.202653 0.0
-0.0408443 0.195043 0.0
-0.04153 0.187054 0.0
-0.0422762 0.178731 0.0
-0.0430056 0.17012 0.0
-0.043654 0.16127 0.0
-0.0441696 0.152233 0.0
-0.0445121 0.143063 0.0
-0.0446519 0.133814 0.0
-0.0445686 0.124542 0.0
-0.0442502 0.1153 0.0
-0.0436912 0.106143 0.0
-0.0428922 0.0971209 0.0
-0.041858 0.0882828 0.0
-0.0405967 0.0796743 0.0
-0.0391187 0.0713384 0.0
-0.0374357 0.0633146 0.0
-0.0355604 0.0556396 0.0
-0.033505 0.0483472 0.0
-0.031282 0.0414685 0.0
-0.0289032 0.0350321 0.0
-0.0263807 0.0290642 0.0
-0.0237269 0.0235891 0.0
-0.0209561 0.018629 0.0
-0.018086 0.0142045 0.0
-0.0151402 0.0103346 0.0
-0.0121515 0.0070378 0.0
-0.00916619 0.00433348 0.0
-0.00624963 0.0022369 0.0
-0.00349032 0.000773987 0.0
-0.00100916 0.000103056 0.0
0.813841 0.00616455 0.0
0.500917 0.0350999 0.0
0.279237 0.0806772 0.0
0.134897 0.12347 0.0
0.0460594 0.159545 0.0
-0.00581548 0.187884 0.0
-0.0338372 0.208599 0.0
-0.0474235 0.222931 0.0
-0.0527867 0.232294 0.0
-0.0537689 0.237847 0.0
-0.0526773 0.24049 0.0
-0.0508506 0.2409 0.0
-0.0490263 0.239567 0.0
-0.047574 0.236847 0.0
-0.0466428 0.232992 0.0
-0.0462527 0.228187 0.0
-0.0463524 0.222566 0.0
-0.0468542 0.216234 0.0
-0.0476553 0.209276 0.0
-0.0486508 0.201767 0.0
-0.0497412 0.193773 0.0
-0.0508366 0.185361 0.0
-0.0518589 0.176596 0.0
-0.0527425 0.16754 0.0
-0.0534346 0.15826 0.0
-0.0538943 0.14882 0.0
-0.0540923 0.139283 0.0
-0.0540091 0.129713 0.0
-0.0536343 0.120168 0.0
-0.052965 0.110707 0.0
-0.0520042 0.101383 0.0
-0.05076 0.0922491 0.0
-0.0492437 0.0833506 0.0
-0.0474693 0.0747315 0.0
-0.0454518 0.0664313 0.0
-0.0432067 0.0584862 0.0
-0.0407495 0.0509293 0.0
-0.0380951 0.0437907 0.0
-0.0352578 0.0370979 0.0
-0.0322517 0.0308766 0.0
-0.029091 0.0251507 0.0
-0.0257914 0.0199425 0.0
-0.0223717 0.0152741 0.0
-0.0188558 0.0111671 0.0
-0.0152755 0.00764442 0.0
-0.0116745 0.00473269 0.0
-0.00811175 0.00245642 0.0
-0.00466447 0.000854651 0.0
-0.00143375 0.000114771 0.0
0.830719 0.00461935 0.0
0.537399 0.0289055 0.0
0.32076 0.0691343 0.0
0.173406 0.108825 0.0
0.0783391 0.143883 0.0
0.0195989 0.172753 0.0
-0.0151045 0.195296 0.0
-0.0342344 0.211908 0.0
-0.0440146 0.223657 0.0
-0.0484615 0.231506 0.0
-0.050085 0.236244 0.0
-0.0504035 0.238493 0.0
-0.0502996 0.238728 0.0
-0.0502537 0.237308 0.0
-0.0504957 0.234506 0.0
-0.0511033 0.230529 0.0
-0.0520646 0.22554 0.0
-0.053318 0.21967 0.0
-0.0547774 0.213031 0.0
-0.056348 0.20572 0.0
-0.057936 0.197827 0.0
-0.0594547 0.189435 0.0
-0.0608276 0.180627 0.0
-0.0619902 0.17148 0.0
-0.0628908 0.162072 0.0
-0.0634901 0.152479 0.0
-0.0637605 0.142772 0.0
-0.0636853 0.13302 0.0
-0.0632571 0.123291 0.0
-0.0624765 0.113644 0.0
-0.0613506 0.104139 0.0
-0.0598916 0.0948259 0.0
-0.0581149 0.0857543 0.0
-0.0560386 0.0769671 0.0
-0.0536815 0.0685034 0.0
-0.0510628 0.0603983 0.0
-0.048201 0.0526835 0.0
-0.0451137 0.0453874 0.0
-0.0418175 0.0385363 0.0
-0.0383281 0.0321545 0.0
-0.0346611 0.0262649 0.0
-0.0308326 0.0208902 0.0
-0.0268613 0.0160532 0.0
-0.0227696 0.0117781 0.0
-0.0185867 0.00809197 0.0
-0.0143506 0.00502782 0.0
-0.0101116 0.0026184 0.0
-0.00593294 0.000913624 0.0
-0.00189439 0.000123078 0.0
0.844644 0.00361123 0.0
0.569033 0.0243123 0.0
0.358352 0.0600136 0.0
0.209723 0.0967062 0.0
0.11003 0.130357 0.0
0.0456042 0.159101 0.0
0.00528526 0.182472 0.0
-0.0190765 0.200667 0.0
-0.033201 0.214185 0.0
-0.0411922 0.223825 0.0
-0.045698 0.230266 0.0
-0.048373 0.234064 0.0
-0.0502159 0.235662 0.0
-0.0517998 0.235411 0.0
-0.053425 0.233584 0.0
-0.0552209 0.230404 0.0
-0.0572125 0.226048 0.0
-0.0593639 0.220666 0.0
-0.0616062 0.21439 0.0
-0.0638561 0.207336 0.0
-0.0660272 0.199609 0.0
-0.0680379 0.191313 0.0
-0.0698152 0.182541 0.0
-0.0712978 0.173388 0.0
-0.0724367 0.163941 0.0
-0.0731959 0.154285 0.0
-0.0735515 0.144501 0.0
-0.0734909 0.134664 0.0
-0.0730112 0.124847 0.0
-0.072118 0.115114 0.0
-0.0708235 0.105525 0.0
-0.0691451 0.0961337 0.0
-0.0671033 0.0869889 0.0
-0.0647208 0.0781333 0.0
-0.0620211 0.0696049 0.0
-0.0590271 0.0614371 0.0
-0.0557608 0.0536595 0.0
-0.0522425 0.0462986 0.0
-0.048491 0.0393786 0.0
-0.0445232 0.032922 0.0
-0.0403553 0.0269507 0.0
-0.0360031 0.0214866 0.0
-0.0314837 0.0165534 0.0
-0.0268168 0.0121769 0.0
-0.0220268 0.008388 0.0
-0.0171444 0.00522484 0.0
-0.0122089 0.00272702 0.0
-0.00726821 0.000953072 0.0
-0.00238025 0.000128523 0.0
0.856395 0.00292697 0.0
0.596753 0.0208207 0.0
0.392472 0.0526998 0.0
0.24381 0.0865955 0.0
0.140766 0.118654 0.0
0.0716801 0.146857 0.0
0.0264809 0.170485 0.0
-0.00255734 0.189577 0.0
-0.0208633 0.204365 0.0
-0.0323866 0.215359 0.0
-0.0398521 0.223143 0.0
-0.0450122 0.228206 0.0
-0.0489569 0.230953 0.0
-0.0523347 0.231713 0.0
-0.055505 0.230757 0.0
-0.058642 0.228306 0.0
-0.0618035 0.224548 0.0
-0.0649767 0.219646 0.0
-0.0681095 0.213743 0.0
-0.0711299 0.206969 0.0
-0.0739599 0.199448 0.0
-0.0765237 0.191292 0.0
-0.0787534 0.182612 0.0
-0.0805919 0.173512 0.0
-0.081995 0.164091 0.0
-0.0829311 0.154442 0.0
-0.0833818 0.144654 0.0
-0.0833398 0.13481 0.0
-0.0828084 0.124984 0.0
-0.0817995 0.115246 0.0
-0.0803316 0.105658 0.0
-0.0784282 0.0962744 0.0
-0.076116 0.0871434 0.0
-0.0734232 0.0783069 0.0
-0.0703783 0.0698013 0.0
-0.0670086 0.0616579 0.0
-0.0633398 0.0539037 0.0
-0.0593948 0.0465627 0.0
-0.0551943 0.0396565 0.0
-0.0507562 0.0332052 0.0
-0.0460965 0.027229 0.0
-0.0412299 0.0217491 0.0
-0.0361708 0.0167887 0.0
-0.0309347 0.0123752 0.0
-0.0255398 0.00854171 0.0
-0.0200078 0.00533063 0.0
-0.0143656 0.00278676 0.0
-0.00864489 0.00097506 0.0
-0.00288172 0.000131561 0.0
0.866501 0.00244224 0.0
0.621276 0.0180997 0.0
0.423543 0.0467414 0.0
0.275728 0.0780724 0.0
0.170325 0.108476 0.0
0.0974281 0.135878 0.0
0.0479889 0.159391 0.0
0.0148119 0.178866 0.0
-0.00744208 0.194488 0.0
-0.0224196 0.206471 0.0
-0.032856 0.215279 0.0
-0.040567 0.221344 0.0
-0.0467118 0.225029 0.0
-0.0519983 0.226638 0.0
-0.0568344 0.226429 0.0
-0.0614311 0.22462 0.0
-0.065874 0.221402 0.0
-0.0701708 0.216944 0.0
-0.0742839 0.211398 0.0
-0.0781521 0.204906 0.0
-0.0817053 0.197603 0.0
-0.0848742 0.189612 0.0
-0.0875965 0.181057 0.0
-0.0898207 0.17205 0.0
-0.0915081 0.162701 0.0
-0.0926335 0.153112 0.0
-0.0931847 0.143378 0.0
-0.0931617 0.133588 0.0
-0.0925753 0.12382 0.0
-0.0914447 0.114147 0.0
-0.0897961 0.104633 0.0
-0.0876605 0.0953315 0.0
-0.0850713 0.0862911 0.0
-0.0820633 0.0775521 0.0
-0.0786705 0.0691485 0.0
-0.074925 0.061109 0.0
-0.0708562 0.0534575 0.0
-0.06649 0.0462149 0.0
-0.0618487 0.0393995 0.0
-0.0569507 0.033029 0.0
-0.0518114 0.027121 0.0
-0.0464434 0.021695 0.0
-0.0408574 0.0167737 0.0
-0.0350636 0.0123845 0.0
-0.0290724 0.00856221 0.0
-0.0228955 0.00535178 0.0
-0.0165464 0.00280169 0.0
-0.0100397 0.00098135 0.0
-0.00339027 0.000132538 0.0
0.875321 0.00208371 0.0
0.643158 0.0159273 0.0
0.451938 0.0418071 0.0
0.305587 0.0708036 0.0
0.1986 0.0995583 0.0
0.122593 0.126004 0.0
0.0694654 0.149146 0.0
0.0325404 0.168691 0.0
0.00674317 0.1847 0.0
-0.0115971 0.197379 0.0
-0.0249797 0.206941 0.0
-0.0352648 0.213772 0.0
-0.0436653 0.218196 0.0
-0.0509366 0.220492 0.0
-0.0575244 0.220901 0.0
-0.0636699 0.219635 0.0
-0.069481 0.216883 0.0
-0.0749821 0.212816 0.0
-0.0801479 0.207593 0.0
-0.0849265 0.201365 0.0
-0.089255 0.194274 0.0
-0.0930706 0.186455 0.0
-0.096317 0.17804 0.0
-0.0989489 0.169152 0.0
-0.100934 0.159908 0.0
-0.102255 0.150419 0.0
-0.102907 0.140785 0.0
-0.102899 0.1311 0.0
-0.102249 0.121447 0.0
-0.100988 0.1119 0.0
-0.0991482 0.102523 0.0
-0.0967704 0.0933709 0.0
-0.0938959 0.084491 0.0
-0.0905662 0.0759211 0.0
-0.0868218 0.0676925 0.0
-0.0827 0.0598306 0.0
-0.0782341 0.0523559 0.0
-0.0734529 0.0452854 0.0
-0.0683803 0.038634 0.0
-0.0630348 0.0324158 0.0
-0.0574304 0.0266455 0.0
-0.0515771 0.0213404 0.0
-0.0454811 0.0165214 0.0
-0.039146 0.0122155 0.0
-0.0325737 0.00845757 0.0
-0.0257646 0.00529393 0.0
-0.0187179 0.00277517 0.0
-0.0114312 0.000973314 0.0
-0.00389825 0.000131701 0.0
0.883109 0.00180729 0.0
0.662823 0.0141519 0.0
0.477974 0.0376522 0.0
0.333513 0.064525 0.0
0.225549 0.091672 0.0
0.147014 0.11707 0.0
0.0906755 0.139661 0.0
0.0503614 0.159049 0.0
0.0212582 0.175188 0.0
-0.00019405 0.18822 0.0
-0.016462 0.198304 0.0
-0.029313 0.205685 0.0
-0.0399933 0.210663 0.0
-0.0492947 0.213489 0.0
-0.0576924 0.214386 0.0
-0.0654505 0.213557 0.0
-0.0726943 0.211186 0.0
-0.0794613 0.207447 0.0
-0.0857355 0.2025 0.0
-0.0914726 0.196504 0.0
-0.0966161 0.189607 0.0
-0.101109 0.181954 0.0
-0.104901 0.173683 0.0
-0.107954 0.164928 0.0
-0.110242 0.155812 0.0
-0.111758 0.146453 0.0
-0.112505 0.136957 0.0
-0.112501 0.127421 0.0
-0.111776 0.117932 0.0
-0.11037 0.108564 0.0
-0.108325 0.0993836 0.0
-0.105693 0.0904436 0.0
-0.102522 0.0817889 0.0
-0.0988622 0.0734552 0.0
-0.0947613 0.0654703 0.0
-0.0902619 0.0578559 0.0
-0.0854016 0.0506282 0.0
-0.0802121 0.0438001 0.0
-0.0747184 0.0373823 0.0
-0.0689393 0.0313848 0.0
-0.0628868 0.025819 0.0
-0.0565674 0.0206989 0.0
-0.049982 0.0160432 0.0
-0.0431272 0.011877 0.0
-0.0359951 0.0082344 0.0
-0.0285742 0.00516158 0.0
-0.020849 0.00270976 0.0
-0.0127995 0.000951933 0.0
-0.00439862 0.000129201 0.0
0.890048 0.00158576 0.0
0.680601 0.0126676 0.0
0.501917 0.0340931 0.0
0.359635 0.0590265 0.0
0.251164 0.0846198 0.0
0.170582 0.108917 0.0
0.111444 0.130827 0.0
0.0680658 0.149877 0.0
0.0359009 0.165942 0.0
0.0115266 0.179085 0.0
-0.00752276 0.189465 0.0
-0.0229043 0.197205 0.0
-0.0358626 0.202564 0.0
-0.0472147 0.205769 0.0
-0.0574572 0.207026 0.0
-0.0668705 0.206525 0.0
-0.0755924 0.204447 0.0
-0.0836691 0.200962 0.0
-0.0910917 0.196236 0.0
-0.0978212 0.19043 0.0
-0.103806 0.1837 0.0
-0.108995 0.176197 0.0
-0.113344 0.168067 0.0
-0.116821 0.159451 0.0
-0.11941 0.15048 0.0
-0.121111 0.141275 0.0
-0.12194 0.13195 0.0
-0.121925 0.122603 0.0
-0.121107 0.113323 0.0
-0.119537 0.104187 0.0
-0.11727 0.0952573 0.0
-0.114366 0.086588 0.0
-0.110885 0.0782205 0.0
-0.106885 0.0701872 0.0
-0.102421 0.062512 0.0
-0.0975423 0.055212 0.0
-0.09229 0.0482989 0.0
-0.0866989 0.0417807 0.0
-0.0807956 0.0356635 0.0
-0.074598 0.0299528 0.0
-0.0681163 0.0246556 0.0
-0.0613529 0.0197823 0.0
-0.0543028 0.0153483 0.0
-0.0469545 0.0113762 0.0
-0.0392901 0.00789788 0.0
-0.0312855 0.00495806 0.0
-0.0229099 0.00260725 0.0
-0.0141256 0.000917832 0.0
-0.00488474 0.000125116 0.0
0.896271 0.00140173 0.0
0.696746 0.0113987 0.0
0.523982 0.0309905 0.0
0.384064 0.0541403 0.0
0.275455 0.0782354 0.0
0.19322 0.101399 0.0
0.131637 0.122531 0.0
0.0854788 0.141104 0.0
0.0504684 0.156928 0.0
0.0233274 0.170007 0.0
0.00165432 0.180453 0.0
-0.0162101 0.188389 0.0
-0.0314277 0.193969 0.0
-0.044833 0.197412 0.0
-0.0569369 0.198903 0.0
-0.0680302 0.198622 0.0
-0.0782583 0.196743 0.0
-0.0876727 0.193437 0.0
-0.0962686 0.18887 0.0
-0.104011 0.183207 0.0
-0.110851 0.17661 0.0
-0.116743 0.169236 0.0
-0.121648 0.16124 0.0
-0.125542 0.152765 0.0
-0.128419 0.143951 0.0
-0.130289 0.134924 0.0
-0.131178 0.1258 0.0
-0.131129 0.11668 0.0
-0.130194 0.107654 0.0
-0.128436 0.0987977 0.0
-0.125925 0.0901742 0.0