# vtk DataFile Version 3.0
Malha 2D com triângulos e temperatura
ASCII
DATASET UNSTRUCTURED_GRID

POINTS 2500 double
0 0 0
1 0 0
1 1 0
0 1 0
0.0204082 0 0
0.0408163 0 0
0.0612245 0 0
0.0816327 0 0
0.102041 0 0
0.122449 0 0
0.142857 0 0
0.163265 0 0
0.183673 0 0
0.204082 0 0
0.22449 0 0
0.244898 0 0
0.265306 0 0
0.285714 0 0
0.306122 0 0
0.326531 0 0
0.346939 0 0
0.367347 0 0
0.387755 0 0
0.408163 0 0
0.428571 0 0
0.44898 0 0
0.469388 0 0
0.489796 0 0
0.510204 0 0
0.530612 0 0
0.55102 0 0
0.571429 0 0
0.591837 0 0
0.612245 0 0
0.632653 0 0
0.653061 0 0
0.673469 0 0
0.693878 0 0
0.714286 0 0
0.734694 0 0
0.755102 0 0
0.77551 0 0
0.795918 0 0
0.816327 0 0
0.836735 0 0
0.857143 0 0
0.877551 0 0
0.897959 0 0
0.918367 0 0
0.938776 0 0
0.959184 0 0
0.979592 0 0
1 0.0204082 0
1 0.0408163 0
1 0.0612245 0
1 0.0816327 0
1 0.102041 0
1 0.122449 0
1 0.142857 0
1 0.163265 0
1 0.183673 0
1 0.204082 0
1 0.22449 0
1 0.244898 0
1 0.265306 0
1 0.285714 0
1 0.306122 0
1 0.326531 0
1 0.346939 0
1 0.367347 0
1 0.387755 0
1 0.408163 0
1 0.428571 0
1 0.44898 0
1 0.469388 0
1 0.489796 0
1 0.510204 0
1 0.530612 0
1 0.55102 0
1 0.571429 0
1 0.591837 0
1 0.612245 0
1 0.632653 0
1 0.653061 0
1 0.673469 0
1 0.693878 0
1 0.714286 0
1 0.734694 0
1 0.755102 0
1 0.77551 0
1 0.795918 0
1 0.816327 0
1 0.836735 0
1 0.857143 0
1 0.877551 0
1 0.897959 0
1 0.918367 0
1 0.938776 0
1 0.959184 0
1 0.979592 0
0.979592 1 0
0.959184 1 0
0.938776 1 0
0.918367 1 0
0.897959 1 0
0.877551 1 0
0.857143 1 0
0.836735 1 0
0.816327 1 0
0.795918 1 0
0.77551 1 0
0.755102 1 0
0.734694 1 0
0.714286 1 0
0.693878 1 0
0.673469 1 0
0.653061 1 0
0.632653 1 0
0.612245 1 0
0.591837 1 0
0.571429 1 0
0.55102 1 0
0.530612 1 0
0.510204 1 0
0.489796 1 0
0.469388 1 0
0.44898 1 0
0.428571 1 0
0.408163 1 0
0.387755 1 0
0.367347 1 0
0.346939 1 0
0.326531 1 0
0.306122 1 0
0.285714 1 0
0.265306 1 0
0.244898 1 0
0.22449 1 0
0.204082 1 0
0.183673 1 0
0.163265 1 0
0.142857 1 0
0.122449 1 0
0.102041 1 0
0.0816327 1 0
0.0612245 1 0
0.0408163 1 0
0.0204082 1 0
0 0.979592 0
0 0.959184 0
0 0.938776 0
0 0.918367 0
0 0.897959 0
0 0.877551 0
0 0.857143 0
0 0.836735 0
0 0.816327 0
0 0.795918 0
0 0.77551 0
0 0.755102 0
0 0.734694 0
0 0.714286 0
0 0.693878 0
0 0.673469 0
0 0.653061 0
0 0.632653 0
0 0.612245 0
0 0.591837 0
0 0.571429 0
0 0.55102 0
0 0.530612 0
0 0.510204 0
0 0.489796 0
0 0.469388 0
0 0.44898 0
0 0.428571 0
0 0.408163 0
0 0.387755 0
0 0.367347 0
0 0.346939 0
0 0.326531 0
0 0.306122 0
0 0.285714 0
0 0.265306 0
0 0.244898 0
0 0.22449 0
0 0.204082 0
0 0.183673 0
0 0.163265 0
0 0.142857 0
0 0.122449 0
0 0.102041 0
0 0.0816327 0
0 0.0612245 0
0 0.0408163 0
0 0.0204082 0
0.0204082 0.979592 0
0.0204082 0.959184 0
0.0204082 0.938776 0
0.0204082 0.918367 0
0.0204082 0.897959 0
0.0204082 0.877551 0
0.0204082 0.857143 0
0.0204082 0.836735 0
0.0204082 0.816327 0
0.0204082 0.795918 0
0.0204082 0.77551 0
0.0204082 0.755102 0
0.0204082 0.734694 0
0.0204082 0.714286 0
0.0204082 0.693878 0
0.0204082 0.673469 0
0.0204082 0.653061 0
0.0204082 0.632653 0
0.0204082 0.612245 0
0.0204082 0.591837 0
0.0204082 0.571429 0
0.0204082 0.55102 0
0.0204082 0.530612 0
0.0204082 0.510204 0
0.0204082 0.489796 0
0.0204082 0.469388 0
0.0204082 0.44898 0
0.0204082 0.428571 0
0.0204082 0.408163 0
0.0204082 0.387755 0
0.0204082 0.367347 0
0.0204082 0.346939 0
0.0204082 0.326531 0
0.0204082 0.306122 0
0.0204082 0.285714 0
0.0204082 0.265306 0
0.0204082 0.244898 0
0.0204082 0.22449 0
0.0204082 0.204082 0
0.0204082 0.183673 0
0.0204082 0.163265 0
0.0204082 0.142857 0
0.0204082 0.122449 0
0.0204082 0.102041 0
0.0204082 0.0816327 0
0.0204082 0.0612245 0
0.0204082 0.0408163 0
0.0204082 0.0204082 0
0.0408163 0.979592 0
0.0408163 0.959184 0
0.0408163 0.938776 0
0.0408163 0.918367 0
0.0408163 0.897959 0
0.0408163 0.877551 0
0.0408163 0.857143 0
0.0408163 0.836735 0
0.0408163 0.816327 0
0.0408163 0.795918 0
0.0408163 0.77551 0
0.0408163 0.755102 0
0.0408163 0.734694 0
0.0408163 0.714286 0
0.0408163 0.693878 0
0.0408163 0.673469 0
0.0408163 0.653061 0
0.0408163 0.632653 0
0.0408163 0.612245 0
0.0408163 0.591837 0
0.0408163 0.571429 0
0.0408163 0.55102 0
0.0408163 0.530612 0
0.0408163 0.510204 0
0.0408163 0.489796 0
0.0408163 0.469388 0
0.0408163 0.44898 0
0.0408163 0.428571 0
0.0408163 0.408163 0
0.0408163 0.387755 0
0.0408163 0.367347 0
0.0408163 0.346939 0
0.0408163 0.326531 0
0.0408163 0.306122 0
0.0408163 0.285714 0
0.0408163 0.265306 0
0.0408163 0.244898 0
0.0408163 0.22449 0
0.0408163 0.204082 0
0.0408163 0.183673 0
0.0408163 0.163265 0
0.0408163 0.142857 0
0.0408163 0.122449 0
0.0408163 0.102041 0
0.0408163 0.0816327 0
0.0408163 0.0612245 0
0.0408163 0.0408163 0
0.0408163 0.0204082 0
0.0612245 0.979592 0
0.0612245 0.959184 0
0.0612245 0.938776 0
0.0612245 0.918367 0
0.0612245 0.897959 0
0.0612245 0.877551 0
0.0612245 0.857143 0
0.0612245 0.836735 0
0.0612245 0.816327 0
0.0612245 0.795918 0
0.0612245 0.77551 0
0.0612245 0.755102 0
0.0612245 0.734694 0
0.0612245 0.714286 0
0.0612245 0.693878 0
0.0612245 0.673469 0
0.0612245 0.653061 0
0.0612245 0.632653 0
0.0612245 0.612245 0
0.0612245 0.591837 0
0.0612245 0.571429 0
0.0612245 0.55102 0
0.0612245 0.530612 0
0.0612245 0.510204 0
0.0612245 0.489796 0
0.0612245 0.469388 0
0.0612245 0.44898 0
0.0612245 0.428571 0
0.0612245 0.408163 0
0.0612245 0.387755 0
0.0612245 0.367347 0
0.0612245 0.346939 0
0.0612245 0.326531 0
0.0612245 0.306122 0
0.0612245 0.285714 0
0.0612245 0.265306 0
0.0612245 0.244898 0
0.0612245 0.22449 0
0.0612245 0.204082 0
0.0612245 0.183673 0
0.0612245 0.163265 0
0.0612245 0.142857 0
0.0612245 0.122449 0
0.0612245 0.102041 0
0.0612245 0.0816327 0
0.0612245 0.0612245 0
0.0612245 0.0408163 0
0.0612245 0.0204082 0
0.0816327 0.979592 0
0.0816327 0.959184 0
0.0816327 0.938776 0
0.0816327 0.918367 0
0.0816327 0.897959 0
0.0816327 0.877551 0
0.0816327 0.857143 0
0.0816327 0.836735 0
0.0816327 0.816327 0
0.0816327 0.795918 0
0.0816327 0.77551 0
0.0816327 0.755102 0
0.0816327 0.734694 0
0.0816327 0.714286 0
0.0816327 0.693878 0
0.0816327 0.673469 0
0.0816327 0.653061 0
0.0816327 0.632653 0
0.0816327 0.612245 0
0.0816327 0.591837 0
0.0816327 0.571429 0
0.0816327 0.55102 0
0.0816327 0.530612 0
0.0816327 0.510204 0
0.0816327 0.489796 0
0.0816327 0.469388 0
0.0816327 0.44898 0
0.0816327 0.428571 0
0.0816327 0.408163 0
0.0816327 0.387755 0
0.0816327 0.367347 0
0.0816327 0.346939 0
0.0816327 0.326531 0
0.0816327 0.306122 0
0.0816327 0.285714 0
0.0816327 0.265306 0
0.0816327 0.244898 0
0.0816327 0.22449 0
0.0816327 0.204082 0
0.0816327 0.183673 0
0.0816327 0.163265 0
0.0816327 0.142857 0
0.0816327 0.122449 0
0.0816327 0.102041 0
0.0816327 0.0816327 0
0.0816327 0.0612245 0
0.0816327 0.0408163 0
0.0816327 0.0204082 0
0.102041 0.979592 0
0.102041 0.959184 0
0.102041 0.938776 0
0.102041 0.918367 0
0.102041 0.897959 0
0.102041 0.877551 0
0.102041 0.857143 0
0.102041 0.836735 0
0.102041 0.816327 0
0.102041 0.795918 0
0.102041 0.77551 0
0.102041 0.755102 0
0.102041 0.734694 0
0.102041 0.714286 0
0.102041 0.693878 0
0.102041 0.673469 0
0.102041 0.653061 0
0.102041 0.632653 0
0.102041 0.612245 0
0.102041 0.591837 0
0.102041 0.571429 0
0.102041 0.55102 0
0.102041 0.530612 0
0.102041 0.510204 0
0.102041 0.489796 0
0.102041 0.469388 0
0.102041 0.44898 0
0.102041 0.428571 0
0.102041 0.408163 0
0.102041 0.387755 0
0.102041 0.367347 0
0.102041 0.346939 0
0.102041 0.326531 0
0.102041 0.306122 0
0.102041 0.285714 0
0.102041 0.265306 0
0.102041 0.244898 0
0.102041 0.22449 0
0.102041 0.204082 0
0.102041 0.183673 0
0.102041 0.163265 0
0.102041 0.142857 0
0.102041 0.122449 0
0.102041 0.102041 0
0.102041 0.0816327 0
0.102041 0.0612245 0
0.102041 0.0408163 0
0.102041 0.0204082 0
0.122449 0.979592 0
0.122449 0.959184 0
0.122449 0.938776 0
0.122449 0.918367 0
0.122449 0.897959 0
0.122449 0.877551 0
0.122449 0.857143 0
0.122449 0.836735 0
0.122449 0.816327 0
0.122449 0.795918 0
0.122449 0.77551 0
0.122449 0.755102 0
0.122449 0.734694 0
0.122449 0.714286 0
0.122449 0.693878 0
0.122449 0.673469 0
0.122449 0.653061 0
0.122449 0.632653 0
0.122449 0.612245 0
0.122449 0.591837 0
0.122449 0.571429 0
0.122449 0.55102 0
0.122449 0.530612 0
0.122449 0.510204 0
0.122449 0.489796 0
0.122449 0.469388 0
0.122449 0.44898 0
0.122449 0.428571 0
0.122449 0.408163 0
0.122449 0.387755 0
0.122449 0.367347 0
0.122449 0.346939 0
0.122449 0.326531 0
0.122449 0.306122 0
0.122449 0.285714 0
0.122449 0.265306 0
0.122449 0.244898 0
0.122449 0.22449 0
0.122449 0.204082 0
0.122449 0.183673 0
0.122449 0.163265 0
0.122449 0.142857 0
0.122449 0.122449 0
0.122449 0.102041 0
0.122449 0.0816327 0
0.122449 0.0612245 0
0.122449 0.0408163 0
0.122449 0.0204082 0
0.142857 0.979592 0
0.142857 0.959184 0
0.142857 0.938776 0
0.142857 0.918367 0
0.142857 0.897959 0
0.142857 0.877551 0
0.142857 0.857143 0
0.142857 0.836735 0
0.142857 0.816327 0
0.142857 0.795918 0
0.142857 0.77551 0
0.142857 0.755102 0
0.142857 0.734694 0
0.142857 0.714286 0
0.142857 0.693878 0
0.142857 0.673469 0
0.142857 0.653061 0
0.142857 0.632653 0
0.142857 0.612245 0
0.142857 0.591837 0
0.142857 0.571429 0
0.142857 0.55102 0
0.142857 0.530612 0
0.142857 0.510204 0
0.142857 0.489796 0
0.142857 0.469388 0
0.142857 0.44898 0
0.142857 0.428571 0
0.142857 0.408163 0
0.142857 0.387755 0
0.142857 0.367347 0
0.142857 0.346939 0
0.142857 0.326531 0
0.142857 0.306122 0
0.142857 0.285714 0
0.142857 0.265306 0
0.142857 0.244898 0
0.142857 0.22449 0
0.142857 0.204082 0
0.142857 0.183673 0
0.142857 0.163265 0
0.142857 0.142857 0
0.142857 0.122449 0
0.142857 0.102041 0
0.142857 0.0816327 0
0.142857 0.0612245 0
0.142857 0.0408163 0
0.142857 0.0204082 0
0.163265 0.979592 0
0.163265 0.959184 0
0.163265 0.938776 0
0.163265 0.918367 0
0.163265 0.897959 0
0.163265 0.877551 0
0.163265 0.857143 0
0.163265 0.836735 0
0.163265 0.816327 0
0.163265 0.795918 0
0.163265 0.77551 0
0.163265 0.755102 0
0.163265 0.734694 0
0.163265 0.714286 0
0.163265 0.693878 0
0.163265 0.673469 0
0.163265 0.653061 0
0.163265 0.632653 0
0.163265 0.612245 0
0.163265 0.591837 0
0.163265 0.571429 0
0.163265 0.55102 0
[...]
CELL_DATA 2401
VECTORS velocity double
0.257582 0.157301 0.0
-0.00262638 0.26444 0.0
-0.0322666 0.20546 0.0
-0.0253722 0.150567 0.0
-0.0160664 0.113027 0.0
-0.00971317 0.087665 0.0
-0.00593824 0.070583 0.0
-0.00375229 0.0588785 0.0
-0.00246778 0.0506443 0.0
-0.00168916 0.0446947 0.0
-0.00120057 0.0402824 0.0
-0.00088461 0.0369233 0.0
-0.000675855 0.0342942 0.0
-0.000536397 0.0321731 0.0
-0.000443247 0.0304045 0.0
-0.000381828 0.0288774 0.0
-0.000342511 0.0275117 0.0
-0.000318705 0.0262497 0.0
-0.000305753 0.0250499 0.0
-0.000300276 0.0238827 0.0
-0.000299765 0.0227278 0.0
-0.000302325 0.0215719 0.0
-0.000306505 0.0204071 0.0
-0.000311192 0.0192299 0.0
-0.000315537 0.01804 0.0
-0.000318899 0.0168395 0.0
-0.000320812 0.0156326 0.0
-0.000320954 0.0144247 0.0
-0.000319119 0.0132222 0.0
-0.000315204 0.0120321 0.0
-0.000309181 0.0108615 0.0
-0.000301086 0.00971772 0.0
-0.000290997 0.00860782 0.0
-0.000279022 0.00753862 0.0
-0.000265284 0.00651656 0.0
-0.000249906 0.00554771 0.0
-0.000232997 0.00463775 0.0
-0.000214645 0.003792 0.0
-0.000194899 0.00301553 0.0
-0.000173758 0.00231318 0.0
-0.000151162 0.00168973 0.0
-0.000126979 0.00114998 0.0
-0.000101011 0.000698785 0.0
-7.30426e-05 0.000341053 0.0
-4.30086e-05 8.13167e-05 0.0
-1.14972e-05 -7.7287e-05 0.0
1.89592e-05 -0.000135398 0.0
4.12242e-05 -0.000106266 0.0
3.65739e-05 -3.63892e-05 0.0
0.34077 0.122969 0.0
-0.000653037 0.249484 0.0
-0.0652358 0.271682 0.0
-0.063277 0.252185 0.0
-0.0485537 0.22165 0.0
-0.034997 0.19177 0.0
-0.0249414 0.166342 0.0
-0.0179097 0.145866 0.0
-0.0130587 0.129726 0.0
-0.00970222 0.117066 0.0
-0.00736191 0.107086 0.0
-0.00571926 0.0991232 0.0
-0.00456309 0.0926545 0.0
-0.00375147 0.087278 0.0
-0.00318702 0.0826872 0.0
-0.0028015 0.07865 0.0
-0.00254605 0.0749918 0.0
-0.00238496 0.0715821 0.0
-0.00229168 0.0683249 0.0
-0.00224615 0.0651506 0.0
-0.00223299 0.0620105 0.0
-0.00224029 0.0588726 0.0
-0.00225879 0.0557176 0.0
-0.00228129 0.0525368 0.0
-0.00230223 0.0493291 0.0
-0.00231738 0.0461001 0.0
-0.00232361 0.0428597 0.0
-0.00231871 0.0396213 0.0
-0.00230124 0.0364008 0.0
-0.00227039 0.0332154 0.0
-0.00222584 0.0300832 0.0
-0.00216767 0.0270225 0.0
-0.00209627 0.024051 0.0
-0.00201221 0.0211863 0.0
-0.00191617 0.018445 0.0
-0.00180888 0.0158426 0.0
-0.00169102 0.013394 0.0
-0.00156319 0.0111132 0.0
-0.00142586 0.00901321 0.0
-0.00127934 0.00710653 0.0
-0.00112378 0.00540506 0.0
-0.000959257 0.00392009 0.0
-0.000785922 0.00266215 0.0
-0.000604459 0.00164037 0.0
-0.000417019 0.000861081 0.0
-0.000229322 0.000325194 0.0
-5.49473e-05 2.31909e-05 0.0
7.74306e-05 -7.57857e-05 0.0
0.000105717 -4.00931e-05 0.0
0.500827 0.0768073 0.0
0.0989837 0.183215 0.0
-0.0394189 0.249209 0.0
-0.073476 0.265713 0.0
-0.0719341 0.257411 0.0
-0.0606218 0.239626 0.0
-0.0483598 0.219627 0.0
-0.0377833 0.200698 0.0
-0.0293794 0.184048 0.0
-0.0229453 0.169886 0.0
-0.0181149 0.157996 0.0
-0.0145345 0.148013 0.0
-0.0119103 0.139553 0.0
-0.0100115 0.132267 0.0
-0.00866046 0.125856 0.0
-0.0077216 0.120078 0.0
-0.00709122 0.114738 0.0
-0.00668964 0.109686 0.0
-0.00645518 0.104808 0.0
-0.00633973 0.100019 0.0
-0.00630554 0.0952614 0.0
-0.00632288 0.0904948 0.0
-0.00636825 0.0856972 0.0
-0.00642321 0.0808592 0.0
-0.0064734 0.075982 0.0
-0.00650784 0.0710749 0.0
-0.00651837 0.0661537 0.0
-0.00649916 0.0612384 0.0
-0.00644639 0.0563524 0.0
-0.00635783 0.0515211 0.0
-0.00623256 0.0467707 0.0
-0.00607071 0.0421277 0.0
-0.00587316 0.0376184 0.0
-0.00564131 0.0332681 0.0
-0.00537689 0.0291011 0.0
-0.00508173 0.0251403 0.0
-0.00475767 0.0214076 0.0
-0.00440637 0.0179232 0.0
-0.00402928 0.0147064 0.0
-0.00362762 0.0117751 0.0
-0.00320247 0.00914618 0.0
-0.00275507 0.00683499 0.0
-0.00228734 0.00485513 0.0
-0.00180309 0.00321731 0.0
-0.0013101 0.0019276 0.0
-0.000824156 0.000984351 0.0
-0.000376182 0.000372501 0.0
-2.21495e-05 5.62025e-05 0.0
0.00013246 -1.70214e-05 0.0
0.610005 0.0480525 0.0
0.195596 0.133953 0.0
0.0112924 0.209409 0.0
-0.0581219 0.246459 0.0
-0.0761324 0.257016 0.0
-0.0737561 0.253597 0.0
-0.0644523 0.24339 0.0
-0.0538387 0.230638 0.0
-0.0440929 0.217599 0.0
-0.0359045 0.205322 0.0
-0.0293433 0.194197 0.0
-0.0242447 0.184268 0.0
-0.0203757 0.175414 0.0
-0.0175046 0.167453 0.0
-0.0154254 0.160186 0.0
-0.0139648 0.153433 0.0
-0.0129801 0.147035 0.0
-0.0123559 0.140862 0.0
-0.0119985 0.134813 0.0
-0.0118327 0.128812 0.0
-0.0117978 0.122805 0.0
-0.0118452 0.116759 0.0
-0.0119357 0.110654 0.0
-0.0120383 0.104488 0.0
-0.0121288 0.0982666 0.0
-0.0121882 0.0920048 0.0
-0.0122028 0.0857245 0.0
-0.0121625 0.0794524 0.0
-0.0120608 0.0732182 0.0
-0.0118938 0.067054 0.0
-0.01166 0.0609925 0.0
-0.0113596 0.0550665 0.0
-0.0109942 0.0493084 0.0
-0.0105663 0.0437495 0.0
-0.0100789 0.0384197 0.0
-0.00953533 0.0333472 0.0
-0.00893892 0.0285586 0.0
-0.00829282 0.0240791 0.0
-0.00759991 0.0199319 0.0
-0.0068629 0.0161387 0.0
-0.0060845 0.0127194 0.0
-0.00526797 0.00969208 0.0
-0.00441818 0.00707183 0.0
-0.00354334 0.00487017 0.0
-0.00265816 0.00309312 0.0
-0.00178908 0.00173883 0.0
-0.000982913 0.000791906 0.0
-0.00031742 0.000221568 0.0
7.32146e-05 1.2948e-05 0.0
0.680395 0.0301728 0.0
0.278379 0.0981913 0.0
0.0695274 0.170989 0.0
-0.0275563 0.217534 0.0
-0.0652914 0.241027 0.0
-0.074669 0.249549 0.0
-0.0715474 0.249024 0.0
-0.0636871 0.24355 0.0
-0.0547531 0.235701 0.0
-0.0463754 0.226966 0.0
-0.0391829 0.218143 0.0
-0.033324 0.209607 0.0
-0.0287295 0.201492 0.0
-0.0252426 0.193796 0.0
-0.0226833 0.186455 0.0
-0.020877 0.179378 0.0
-0.0196666 0.172472 0.0
-0.0189162 0.165651 0.0
-0.0185106 0.158847 0.0
-0.0183536 0.152008 0.0
-0.0183655 0.145097 0.0
-0.0184808 0.138094 0.0
-0.0186462 0.130993 0.0
-0.0188189 0.123799 0.0
-0.0189649 0.116527 0.0
-0.0190582 0.1092 0.0
-0.0190792 0.101848 0.0
-0.0190139 0.0945025 0.0
-0.0188532 0.0872002 0.0
-0.018592 0.0799786 0.0
-0.0182283 0.0728757 0.0
-0.0177628 0.0659294 0.0
-0.0171979 0.0591767 0.0
-0.0165375 0.0526529 0.0
-0.0157864 0.0463919 0.0
-0.0149495 0.0404256 0.0
-0.014032 0.034784 0.0
-0.0130389 0.0294949 0.0
-0.011975 0.0245843 0.0
-0.0108448 0.0200763 0.0
-0.0096532 0.0159928 0.0
-0.00840619 0.0123529 0.0
-0.00711207 0.00917327 0.0
-0.00578389 0.00646613 0.0
-0.00444303 0.00423876 0.0
-0.00312506 0.0024919 0.0
-0.00188844 0.0012144 0.0
-0.000824329 0.000387101 0.0
-7.9265e-05 4.18106e-05 0.0
0.729784 0.0192009 0.0
0.348915 0.0730588 0.0
0.127857 0.139317 0.0
0.0111996 0.188329 0.0
-0.0442808 0.219721 0.0
-0.065941 0.23688 0.0
-0.0705483 0.244345 0.0
-0.0671977 0.245582 0.0
-0.0606853 0.243049 0.0
-0.0534579 0.238354 0.0
-0.0466919 0.232495 0.0
-0.0408837 0.226057 0.0
-0.0361752 0.219359 0.0
-0.0325309 0.212553 0.0
-0.0298349 0.205695 0.0
-0.0279414 0.19879 0.0
-0.0267014 0.191814 0.0
-0.0259751 0.184737 0.0
-0.0256374 0.177533 0.0
-0.0255795 0.17018 0.0
-0.0257084 0.162666 0.0
-0.0259461 0.154993 0.0
-0.0262279 0.147168 0.0
-0.0265013 0.139211 0.0
-0.0267244 0.131148 0.0
-0.0268648 0.12301 0.0
-0.0268983 0.114835 0.0
-0.0268078 0.106662 0.0
-0.0265823 0.0985341 0.0
-0.0262159 0.0904932 0.0
-0.0257067 0.0825821 0.0
-0.0250562 0.0748426 0.0
-0.0242684 0.067315 0.0
-0.0233487 0.0600378 0.0
-0.022304 0.0530474 0.0
-0.0211412 0.0463778 0.0
-0.0198677 0.040061 0.0
-0.0184905 0.0341265 0.0
-0.0170166 0.0286018 0.0
-0.0154528 0.023512 0.0
-0.0138064 0.0188801 0.0
-0.0120861 0.0147263 0.0
-0.0103038 0.011068 0.0
-0.00847683 0.00791928 0.0
-0.00663201 0.00528989 0.0
-0.00481125 0.00318553 0.0
-0.00307956 0.00160256 0.0
-0.00153316 0.000536641 0.0
-0.000317641 6.65925e-05 0.0
0.765796 0.0125986 0.0
0.408354 0.0557169 0.0
0.182861 0.114564 0.0
0.0527383 0.162695 0.0
-0.0170625 0.197903 0.0
-0.0502056 0.22082 0.0
-0.0629631 0.234283 0.0
-0.0650495 0.241055 0.0
-0.0620177 0.243269 0.0
-0.0569482 0.242457 0.0
-0.0514885 0.239663 0.0
-0.0464638 0.235571 0.0
-0.0422347 0.230611 0.0
-0.0389057 0.225043 0.0
-0.0364459 0.21902 0.0
-0.0347582 0.212623 0.0
-0.0337184 0.205897 0.0
-0.0331965 0.198865 0.0
-0.0330683 0.191541 0.0
-0.0332202 0.183939 0.0
-0.0335526 0.176075 0.0
-0.0339794 0.167971 0.0
-0.0344284 0.159655 0.0
-0.0348401 0.15116 0.0
-0.035167 0.142525 0.0
-0.0353722 0.133792 0.0
-0.0354281 0.125007 0.0
-0.0353158 0.116216 0.0
-0.0350234 0.107468 0.0
-0.0345451 0.0988107 0.0
-0.0338798 0.09029 0.0
-0.0330307 0.0819512 0.0
-0.0320034 0.0738371 0.0
-0.0308059 0.0659883 0.0
-0.029447 0.0584425 0.0
-0.0279364 0.0512351 0.0
-0.0262838 0.0443988 0.0
-0.0244985 0.0379638 0.0
-0.0225897 0.0319579 0.0
-0.0205667 0.0264067 0.0
-0.0184391 0.0213336 0.0
-0.0162183 0.0167596 0.0
-0.0139189 0.0127032 0.0
-0.0115618 0.00918049 0.0
-0.00917712 0.00620514 0.0
-0.00680992 0.00378923 0.0
-0.00452673 0.00193833 0.0
-0.00242168 0.00066369 0.0
-0.000629956 8.66305e-05 0.0
0.792839 0.00861161 0.0
0.458424 0.0436403 0.0
0.233362 0.0954286 0.0
0.0944227 0.141157 0.0
0.0138224 0.177441 0.0
-0.0296628 0.203984 0.0
-0.0503801 0.22172 0.0
-0.0582596 0.23279 0.0
-0.0593143 0.238951 0.0
-0.0570832 0.241562 0.0
-0.0535899 0.241622 0.0
-0.0499433 0.239837 0.0
-0.0467067 0.236689 0.0
-0.0441239 0.232503 0.0
-0.042256 0.227497 0.0
-0.0410645 0.221813 0.0
-0.0404599 0.215548 0.0
-0.0403316 0.208771 0.0
-0.040564 0.201537 0.0
-0.0410462 0.193889 0.0
-0.0416768 0.185873 0.0
-0.0423668 0.177532 0.0
-0.0430397 0.168914 0.0
-0.0436322 0.160067 0.0
-0.0440935 0.151042 0.0
-0.0443842 0.141893 0.0
-0.0444753 0.132675 0.0
-0.0443474 0.123442 0.0
-0.0439889 0.114247 0.0
-0.0433952 0.105143 0.0
-0.0425672 0.0961801 0.0
-0.04151 0.0874062 0.0
-0.0402322 0.0788659 0.0
-0.0387441 0.0706008 0.0
-0.0370578 0.0626495 0.0
-0.0351855 0.0550476 0.0
-0.0331395 0.0478278 0.0
-0.0309319 0.0410201 0.0
-0.028574 0.0346519 0.0
-0.0260774 0.0287488 0.0
-0.0234537 0.0233339 0.0
-0.0207166 0.0184288 0.0
-0.0178828 0.0140534 0.0
-0.0149746 0.0102262 0.0
-0.0120238 0.0069653 0.0
-0.0090751 0.00428981 0.0
-0.00619228 0.00221496 0.0
-0.00346196 0.000766677 0.0
-0.0010029 0.000102167 0.0
0.813857 0.00616161 0.0
0.500928 0.0350828 0.0
0.279206 0.0806326 0.0
0.134796 0.123387 0.0
0.0458706 0.159412 0.0
-0.00609593 0.187692 0.0
-0.0341985 0.208336 0.0
-0.0478553 0.22259 0.0
-0.0532739 0.231873 0.0
-0.0542948 0.237341 0.0
-0.0532253 0.2399 0.0
-0.0514049 0.240225 0.0
-0.0495729 0.23881 0.0
-0.0481005 0.236011 0.0
-0.0471384 0.232082 0.0
-0.0467084 0.227208 0.0
-0.0467606 0.221526 0.0
-0.0472087 0.215141 0.0
-0.0479512 0.208138 0.0
-0.0488845 0.200593 0.0
-0.0499101 0.192573 0.0
-0.0509393 0.184145 0.0
-0.0518951 0.175372 0.0
-0.0527131 0.16632 0.0
-0.0533413 0.157052 0.0
-0.05374 0.147634 0.0
-0.0538807 0.138128 0.0
-0.053745 0.128595 0.0
-0.053323 0.119097 0.0
-0.0526125 0.109689 0.0
-0.0516173 0.100424 0.0
-0.0503457 0.0913539 0.0
-0.0488096 0.0825232 0.0
-0.0470229 0.0739746 0.0
-0.0450007 0.0657469 0.0
-0.0427586 0.057875 0.0
-0.0403117 0.050391 0.0
-0.0376747 0.0433238 0.0
-0.0348613 0.0367003 0.0
-0.0318849 0.0305449 0.0
-0.0287591 0.0248806 0.0
-0.0254987 0.0197293 0.0
-0.0221213 0.0151119 0.0
-0.0186496 0.0110498 0.0
-0.0151142 0.00756523 0.0
-0.011557 0.00468452 0.0
-0.00803528 0.00243197 0.0
-0.00462445 0.000846403 0.0
-0.00142346 0.000113744 0.0
0.830725 0.00461566 0.0
0.537386 0.0288843 0.0
0.320693 0.0690802 0.0
0.173258 0.108727 0.0
0.0780937 0.143732 0.0
0.0192534 0.172539 0.0
-0.0155401 0.19501 0.0
-0.0347456 0.211544 0.0
-0.0445841 0.223212 0.0
-0.0490712 0.230979 0.0
-0.0507166 0.235635 0.0
-0.05104 0.237802 0.0
-0.0509255 0.237958 0.0
-0.0508552 0.236462 0.0
-0.051061 0.233589 0.0
-0.0516224 0.229546 0.0
-0.052529 0.224499 0.0
-0.0537207 0.218578 0.0
-0.0551129 0.211896 0.0
-0.0566122 0.204551 0.0
-0.058126 0.196632 0.0
-0.0595688 0.188225 0.0
-0.0608656 0.17941 0.0
-0.061953 0.170266 0.0
-0.0627805 0.160871 0.0
-0.0633098 0.151298 0.0
-0.0635146 0.141621 0.0
-0.063379 0.131907 0.0
-0.0628965 0.122223 0.0
-0.0620685 0.112628 0.0
-0.0609029 0.103179 0.0
-0.0594121 0.0939288 0.0
-0.0576121 0.0849233 0.0
-0.0555211 0.0762053 0.0
-0.053158 0.0678126 0.0
-0.0505419 0.0597796 0.0
-0.0476911 0.0521367 0.0
-0.0446228 0.0449115 0.0
-0.0413532 0.0381292 0.0
-0.0378972 0.0318133 0.0
-0.0342694 0.0259858 0.0
-0.0304853 0.0206685 0.0
-0.0265621 0.0158837 0.0
-0.022521 0.0116546 0.0
-0.0183898 0.00800807 0.0
-0.0142048 0.00497643 0.0
-0.0100145 0.00259213 0.0
-0.00588019 0.000904702 0.0
-0.00187966 0.000121953 0.0
0.844636 0.0036071 0.0
0.568992 0.0242882 0.0
0.358246 0.0599528 0.0
0.209525 0.0965988 0.0
0.109726 0.130194 0.0
0.0451911 0.158875 0.0
0.00477132 0.182178 0.0
-0.0196671 0.200294 0.0
-0.0338512 0.213731 0.0
-0.0418831 0.223292 0.0
-0.0464102 0.229654 0.0
-0.0490882 0.233374 0.0
-0.0509174 0.234898 0.0
-0.0524728 0.234574 0.0
-0.0540567 0.232681 0.0
-0.0558003 0.229438 0.0
-0.0577303 0.225027 0.0
-0.0598125 0.219597 0.0
-0.0619794 0.21328 0.0
-0.0641493 0.206193 0.0
-0.0662373 0.198442 0.0
-0.068163 0.19013 0.0
-0.069855 0.181353 0.0
-0.0712532 0.172201 0.0
-0.0723101 0.162766 0.0
-0.0729908 0.15313 0.0
-0.0732726 0.143374 0.0
-0.073144 0.133573 0.0
-0.0726032 0.123799 0.0
-0.0716566 0.114115 0.0
-0.070317 0.104581 0.0
-0.0686024 0.0952494 0.0
-0.0665338 0.0861683 0.0
-0.0641341 0.0773793 0.0
-0.0614269 0.0689195 0.0
-0.058435 0.0608214 0.0
-0.0551802 0.0531138 0.0
-0.0516824 0.045822 0.0
-0.0479597 0.0389695 0.0
-0.0440285 0.0325777 0.0
-0.0399039 0.0266678 0.0
-0.0356008 0.0212609 0.0
-0.031135 0.0163799 0.0
-0.0265249 0.01205 0.0
-0.0217933 0.00830127 0.0
-0.0169692 0.00517144 0.0
-0.0120901 0.00269958 0.0
-0.007202 0.000943709 0.0
-0.00236078 0.000127335 0.0
0.856374 0.00292267 0.0
0.59668 0.020795 0.0
0.392323 0.0526351 0.0
0.24356 0.0864822 0.0
0.140402 0.118485 0.0
0.0712018 0.146625 0.0
0.0258976 0.170187 0.0
-0.00322833 0.189208 0.0
-0.0215927 0.203918 0.0
-0.0331557 0.214835 0.0
-0.0406408 0.222544 0.0
-0.0458016 0.227534 0.0
-0.0497296 0.230211 0.0
-0.0530749 0.230904 0.0
-0.0561992 0.229885 0.0
-0.0592783 0.227376 0.0
-0.0623717 0.223566 0.0
-0.0654687 0.218618 0.0
-0.0685186 0.212676 0.0
-0.071451 0.205872 0.0
-0.0741894 0.198327 0.0
-0.0766597 0.190156 0.0
-0.0787953 0.18147 0.0
-0.0805409 0.172371 0.0
-0.0818534 0.16296 0.0
-0.0827028 0.153329 0.0
-0.0830719 0.143567 0.0
-0.0829547 0.133756 0.0
-0.0823556 0.123971 0.0
-0.0812873 0.11428 0.0
-0.0797691 0.104743 0.0
-0.0778253 0.095416 0.0
-0.0754828 0.0863453 0.0
-0.0727703 0.0775721 0.0
-0.0697163 0.0691319 0.0
-0.066348 0.0610551 0.0
-0.0626908 0.0533679 0.0
-0.0587674 0.0460933 0.0
-0.0545977 0.0392521 0.0
-0.0501989 0.0328637 0.0
-0.0455862 0.0269474 0.0
-0.0407731 0.0215235 0.0
-0.0357728 0.0166146 0.0
-0.0305994 0.0122472 0.0
-0.0252693 0.00845388 0.0
-0.0198028 0.00527632 0.0
-0.0142247 0.00275874 0.0
-0.00856479 0.00096546 0.0
-0.00285734 0.000130335 0.0
0.866465 0.002438 0.0
0.621171 0.0180736 0.0
0.42335 0.0466753 0.0
0.275426 0.0779575 0.0
0.169902 0.108305 0.0
0.0968861 0.135647 0.0
0.0473386 0.159097 0.0
0.0140725 0.178505 0.0
-0.00824492 0.194058 0.0
-0.0232617 0.205969 0.0
-0.0337159 0.214708 0.0
-0.0414254 0.220705 0.0
-0.0475505 0.224325 0.0
-0.0528011 0.225872 0.0
-0.0575867 0.225605 0.0
-0.0621205 0.223743 0.0
-0.0664898 0.220476 0.0
-0.0707039 0.215975 0.0
-0.0747272 0.210392 0.0
-0.0784999 0.203871 0.0
-0.0819538 0.196544 0.0
-0.0850211 0.188539 0.0
-0.0876413 0.179976 0.0
-0.0897644 0.17097 0.0
-0.0913532 0.161629 0.0
-0.0923841 0.152056 0.0
-0.0928463 0.142346 0.0
-0.0927413 0.132586 0.0
-0.0920807 0.122856 0.0
-0.0908851 0.113226 0.0
-0.0891813 0.103759 0.0
-0.087001 0.0945105 0.0
-0.0843783 0.0855265 0.0
-0.081348 0.0768467 0.0
-0.0779443 0.0685045 0.0
-0.0741993 0.0605277 0.0
-0.0701422 0.0529395 0.0
-0.0657983 0.0457598 0.0
-0.0611894 0.0390063 0.0
-0.0563333 0.0326958 0.0
-0.0512442 0.0268452 0.0
-0.0459336 0.0214733 0.0
-0.0404111 0.0166019 0.0
-0.0346854 0.0122577 0.0
-0.0287652 0.00847487 0.0
-0.0226606 0.00529756 0.0
-0.0163831 0.00277361 0.0
-0.00994556 0.000971692 0.0
-0.00336092 0.000131297 0.0
0.875271 0.00207974 0.0
0.643021 0.0159019 0.0
0.451701 0.0417422 0.0
0.305233 0.070691 0.0
0.198121 0.0993926 0.0
0.121991 0.125782 0.0
0.0687525 0.148865 0.0
0.0317357 0.16835 0.0
0.0058688 0.184299 0.0
-0.012507 0.196911 0.0
-0.025905 0.206409 0.0
-0.0361862 0.213178 0.0
-0.0445646 0.217544 0.0
-0.0517968 0.219783 0.0
-0.0583305 0.220139 0.0
-0.0644086 0.218823 0.0
-0.0701411 0.216026 0.0
-0.0755539 0.211919 0.0
-0.0806237 0.206661 0.0
-0.0853001 0.200405 0.0
-0.0895223 0.193291 0.0
-0.093229 0.185458 0.0
-0.0963656 0.177034 0.0
-0.0988887 0.168146 0.0
-0.100768 0.158909 0.0
-0.101987 0.149433 0.0
-0.102543 0.13982 0.0
-0.102446 0.130162 0.0
-0.101717 0.120542 0.0
-0.100384 0.111034 0.0
-0.0984851 0.101701 0.0
-0.0960587 0.0925978 0.0
-0.0931472 0.0837696 0.0
-0.0897927 0.0752543 0.0
-0.0860357 0.0670825 0.0
-0.0819134 0.0592788 0.0
-0.0774589 0.0518629 0.0
-0.0727007 0.0448512 0.0
-0.0676617 0.0382578 0.0
-0.0623601 0.032096 0.0
-0.0568088 0.0263799 0.0
-0.0510165 0.0211261 0.0
-0.0449882 0.0163547 0.0
-0.0387262 0.012092 0.0
-0.0322306 0.00837219 0.0
-0.0255003 0.00524073 0.0
-0.0185326 0.00274751 0.0
-0.0113231 0.000963759 0.0
-0.00386393 0.000130462 0.0
0.883046 0.00180374 0.0
0.662655 0.014128 0.0
0.477695 0.0375905 0.0
0.33311 0.064418 0.0
0.225017 0.0915153 0.0
0.146357 0.116861 0.0
0.0899063 0.139399 0.0
0.0495002 0.158733 0.0
0.0203282 0.174819 0.0
-0.00116806 0.187797 0.0
-0.0174477 0.197822 0.0
-0.0302919 0.205148 0.0
-0.0409475 0.210073 0.0
-0.0502071 0.212848 0.0
-0.0585476 0.213697 0.0
-0.0662347 0.212823 0.0
-0.0733956 0.210411 0.0
-0.0800694 0.206633 0.0
-0.0862422 0.201654 0.0
-0.0918712 0.19563 0.0
-0.0969019 0.188712 0.0
-0.101279 0.181043 0.0
-0.104954 0.172764 0.0
-0.107891 0.164006 0.0
-0.110067 0.154895 0.0
-0.111474 0.145547 0.0
-0.112118 0.136069 0.0
-0.11202 0.126557 0.0
-0.111209 0.117098 0.0
-0.109727 0.107765 0.0
-0.107618 0.0986238 0.0
-0.104933 0.0897273 0.0
-0.101722 0.0811195 0.0
-0.0980354 0.0728353 0.0
-0.0939201 0.0649022 0.0
-0.0894192 0.0573408 0.0
-0.0845699 0.0501669 0.0
-0.0794036 0.0433928 0.0
-0.0739448 0.0370283 0.0
-0.0682111 0.0310831 0.0
-0.062214 0.0255676 0.0
-0.0559587 0.0204953 0.0
-0.0494449 0.0158842 0.0
-0.0426677 0.0117588 0.0
-0.0356176 0.00815235 0.0
-0.0282816 0.00511024 0.0
-0.0206422 0.00268295 0.0
-0.0126778 0.000942627 0.0
-0.00435941 0.000127982 0.0
0.889973 0.00158273 0.0
0.680403 0.012646 0.0
0.501598 0.0340365 0.0
0.359186 0.0589281 0.0
0.250584 0.0844761 0.0
0.169874 0.108726 0.0
0.110625 0.130589 0.0
0.0671543 0.149593 0.0
0.034921 0.165611 0.0
0.0105041 0.178708 0.0
-0.00856034 0.18904 0.0
-0.0239337 0.196732 0.0
-0.0368655 0.202045 0.0
-0.0481739 0.205206 0.0
-0.0583568 0.206419 0.0
-0.0676963 0.205877 0.0
-0.0763317 0.203761 0.0
-0.0843112 0.200241 0.0
-0.0916277 0.195485 0.0
-0.098244 0.189652 0.0
-0.104111 0.1829 0.0
-0.109178 0.175382 0.0
-0.113404 0.167243 0.0
-0.116758 0.158623 0.0
-0.119228 0.149655 0.0
-0.120814 0.140459 0.0
-0.121534 0.131148 0.0
-0.121418 0.121822 0.0
-0.12051 0.112568 0.0
-0.118859 0.103462 0.0
-0.116524 0.0945673 0.0
-0.113564 0.0859365 0.0
-0.11004 0.0776107 0.0
-0.10601 0.0696216 0.0
-0.101531 0.0619926 0.0
-0.0966488 0.0547401 0.0
-0.0914071 0.0478753 0.0
-0.0858394 0.0414057 0.0
-0.0799715 0.0353367 0.0
-0.0738208 0.0296733 0.0
-0.0673965 0.024422 0.0
-0.0606997 0.0195924 0.0
-0.0537245 0.0151995 0.0
-0.0464578 0.0112651 0.0
-0.0388802 0.00782045 0.0
-0.030966 0.0049094 0.0
-0.0226827 0.00258172 0.0
-0.0139908 0.000908918 0.0
-0.00484082 0.000123934 0.0
0.896185 0.0013993 0.0
0.696521 0.0113801 0.0
0.523626 0.0309406 0.0
0.383574 0.054053 0.0
0.274831 0.0781079 0.0
0.192469 0.101231 0.0
0.130774 0.122323 0.0
0.0845244 0.140856 0.0
0.0494461 0.156643 0.0
0.0222619 0.169685 0.0
0.000569529 0.180094 0.0
-0.0172839 0.187987 0.0
-0.0324733 0.193527 0.0
-0.0458335 0.196931 0.0
-0.0578761 0.198384 0.0
-0.0688935 0.198066 0.0
-0.0790325 0.196153 0.0
-0.0883465 0.192815 0.0
-0.0968324 0.18822 0.0
-0.104457 0.182532 0.0
-0.111173 0.175914 0.0
-0.116938 0.168525 0.0
-0.121714 0.160517 0.0
-0.125481 0.152038 0.0
-0.128232 0.143225 0.0
-0.129981 0.134205 0.0
-0.130757 0.125092 0.0
-0.130601 0.115989 0.0
-0.12957 0.106984 0.0