# vtk DataFile Version 3.0
Malha 2D com triângulos e temperatura
ASCII
DATASET UNSTRUCTURED_GRID

POINTS 2500 double
0 0 0
1 0 0
1 1 0
0 1 0
0.0204082 0 0
0.0408163 0 0
0.0612245 0 0
0.0816327 0 0
0.102041 0 0
0.122449 0 0
0.142857 0 0
0.163265 0 0
0.183673 0 0
0.204082 0 0
0.22449 0 0
0.244898 0 0
0.265306 0 0
0.285714 0 0
0.306122 0 0
0.326531 0 0
0.346939 0 0
0.367347 0 0
0.387755 0 0
0.408163 0 0
0.428571 0 0
0.44898 0 0
0.469388 0 0
0.489796 0 0
0.510204 0 0
0.530612 0 0
0.55102 0 0
0.571429 0 0
0.591837 0 0
0.612245 0 0
0.632653 0 0
0.653061 0 0
0.673469 0 0
0.693878 0 0
0.714286 0 0
0.734694 0 0
0.755102 0 0
0.77551 0 0
0.795918 0 0
0.816327 0 0
0.836735 0 0
0.857143 0 0
0.877551 0 0
0.897959 0 0
0.918367 0 0
0.938776 0 0
0.959184 0 0
0.979592 0 0
1 0.0204082 0
1 0.0408163 0
1 0.0612245 0
1 0.0816327 0
1 0.102041 0
1 0.122449 0
1 0.142857 0
1 0.163265 0
1 0.183673 0
1 0.204082 0
1 0.22449 0
1 0.244898 0
1 0.265306 0
1 0.285714 0
1 0.306122 0
1 0.326531 0
1 0.346939 0
1 0.367347 0
1 0.387755 0
1 0.408163 0
1 0.428571 0
1 0.44898 0
1 0.469388 0
1 0.489796 0
1 0.510204 0
1 0.530612 0
1 0.55102 0
1 0.571429 0
1 0.591837 0
1 0.612245 0
1 0.632653 0
1 0.653061 0
1 0.673469 0
1 0.693878 0
1 0.714286 0
1 0.734694 0
1 0.755102 0
1 0.77551 0
1 0.795918 0
1 0.816327 0
1 0.836735 0
1 0.857143 0
1 0.877551 0
1 0.897959 0
1 0.918367 0
1 0.938776 0
1 0.959184 0
1 0.979592 0
0.979592 1 0
0.959184 1 0
0.938776 1 0
0.918367 1 0
0.897959 1 0
0.877551 1 0
0.857143 1 0
0.836735 1 0
0.816327 1 0
0.795918 1 0
0.77551 1 0
0.755102 1 0
0.734694 1 0
0.714286 1 0
0.693878 1 0
0.673469 1 0
0.653061 1 0
0.632653 1 0
0.612245 1 0
0.591837 1 0
0.571429 1 0
0.55102 1 0
0.530612 1 0
0.510204 1 0
0.489796 1 0
0.469388 1 0
0.44898 1 0
0.428571 1 0
0.408163 1 0
0.387755 1 0
0.367347 1 0
0.346939 1 0
0.326531 1 0
0.306122 1 0
0.285714 1 0
0.265306 1 0
0.244898 1 0
0.22449 1 0
0.204082 1 0
0.183673 1 0
0.163265 1 0
0.142857 1 0
0.122449 1 0
0.102041 1 0
0.0816327 1 0
0.0612245 1 0
0.0408163 1 0
0.0204082 1 0
0 0.979592 0
0 0.959184 0
0 0.938776 0
0 0.918367 0
0 0.897959 0
0 0.877551 0
0 0.857143 0
0 0.836735 0
0 0.816327 0
0 0.795918 0
0 0.77551 0
0 0.755102 0
0 0.734694 0
0 0.714286 0
0 0.693878 0
0 0.673469 0
0 0.653061 0
0 0.632653 0
0 0.612245 0
0 0.591837 0
0 0.571429 0
0 0.55102 0
0 0.530612 0
0 0.510204 0
0 0.489796 0
0 0.469388 0
0 0.44898 0
0 0.428571 0
0 0.408163 0
0 0.387755 0
0 0.367347 0
0 0.346939 0
0 0.326531 0
0 0.306122 0
0 0.285714 0
0 0.265306 0
0 0.244898 0
0 0.22449 0
0 0.204082 0
0 0.183673 0
0 0.163265 0
0 0.142857 0
0 0.122449 0
0 0.102041 0
0 0.0816327 0
0 0.0612245 0
0 0.0408163 0
0 0.0204082 0
0.0204082 0.979592 0
0.0204082 0.959184 0
0.0204082 0.938776 0
0.0204082 0.918367 0
0.0204082 0.897959 0
0.0204082 0.877551 0
0.0204082 0.857143 0
0.0204082 0.836735 0
0.0204082 0.816327 0
0.0204082 0.795918 0
0.0204082 0.77551 0
0.0204082 0.755102 0
0.0204082 0.734694 0
0.0204082 0.714286 0
0.0204082 0.693878 0
0.0204082 0.673469 0
0.0204082 0.653061 0
0.0204082 0.632653 0
0.0204082 0.612245 0
0.0204082 0.591837 0
0.0204082 0.571429 0
0.0204082 0.55102 0
0.0204082 0.530612 0
0.0204082 0.510204 0
0.0204082 0.489796 0
0.0204082 0.469388 0
0.0204082 0.44898 0
0.0204082 0.428571 0
0.0204082 0.408163 0
0.0204082 0.387755 0
0.0204082 0.367347 0
0.0204082 0.346939 0
0.0204082 0.326531 0
0.0204082 0.306122 0
0.0204082 0.285714 0
0.0204082 0.265306 0
0.0204082 0.244898 0
0.0204082 0.22449 0
0.0204082 0.204082 0
0.0204082 0.183673 0
0.0204082 0.163265 0
0.0204082 0.142857 0
0.0204082 0.122449 0
0.0204082 0.102041 0
0.0204082 0.0816327 0
0.0204082 0.0612245 0
0.0204082 0.0408163 0
0.0204082 0.0204082 0
0.0408163 0.979592 0
0.0408163 0.959184 0
0.0408163 0.938776 0
0.0408163 0.918367 0
0.0408163 0.897959 0
0.0408163 0.877551 0
0.0408163 0.857143 0
0.0408163 0.836735 0
0.0408163 0.816327 0
0.0408163 0.795918 0
0.0408163 0.77551 0
0.0408163 0.755102 0
0.0408163 0.734694 0
0.0408163 0.714286 0
0.0408163 0.693878 0
0.0408163 0.673469 0
0.0408163 0.653061 0
0.0408163 0.632653 0
0.0408163 0.612245 0
0.0408163 0.591837 0
0.0408163 0.571429 0
0.0408163 0.55102 0
0.0408163 0.530612 0
0.0408163 0.510204 0
0.0408163 0.489796 0
0.0408163 0.469388 0
0.0408163 0.44898 0
0.0408163 0.428571 0
0.0408163 0.408163 0
0.0408163 0.387755 0
0.0408163 0.367347 0
0.0408163 0.346939 0
0.0408163 0.326531 0
0.0408163 0.306122 0
0.0408163 0.285714 0
0.0408163 0.265306 0
0.0408163 0.244898 0
0.0408163 0.22449 0
0.0408163 0.204082 0
0.0408163 0.183673 0
0.0408163 0.163265 0
0.0408163 0.142857 0
0.0408163 0.122449 0
0.0408163 0.102041 0
0.0408163 0.0816327 0
0.0408163 0.0612245 0
0.0408163 0.0408163 0
0.0408163 0.0204082 0
0.0612245 0.979592 0
0.0612245 0.959184 0
0.0612245 0.938776 0
0.0612245 0.918367 0
0.0612245 0.897959 0
0.0612245 0.877551 0
0.0612245 0.857143 0
0.0612245 0.836735 0
0.0612245 0.816327 0
0.0612245 0.795918 0
0.0612245 0.77551 0
0.0612245 0.755102 0
0.0612245 0.734694 0
0.0612245 0.714286 0
0.0612245 0.693878 0
0.0612245 0.673469 0
0.0612245 0.653061 0
0.0612245 0.632653 0
0.0612245 0.612245 0
0.0612245 0.591837 0
0.0612245 0.571429 0
0.0612245 0.55102 0
0.0612245 0.530612 0
0.0612245 0.510204 0
0.0612245 0.489796 0
0.0612245 0.469388 0
0.0612245 0.44898 0
0.0612245 0.428571 0
0.0612245 0.408163 0
0.0612245 0.387755 0
0.0612245 0.367347 0
0.0612245 0.346939 0
0.0612245 0.326531 0
0.0612245 0.306122 0
0.0612245 0.285714 0
0.0612245 0.265306 0
0.0612245 0.244898 0
0.0612245 0.22449 0
0.0612245 0.204082 0
0.0612245 0.183673 0
0.0612245 0.163265 0
0.0612245 0.142857 0
0.0612245 0.122449 0
0.0612245 0.102041 0
0.0612245 0.0816327 0
0.0612245 0.0612245 0
0.0612245 0.0408163 0
0.0612245 0.0204082 0
0.0816327 0.979592 0
0.0816327 0.959184 0
0.0816327 0.938776 0
0.0816327 0.918367 0
0.0816327 0.897959 0
0.0816327 0.877551 0
0.0816327 0.857143 0
0.0816327 0.836735 0
0.0816327 0.816327 0
0.0816327 0.795918 0
0.0816327 0.77551 0
0.0816327 0.755102 0
0.0816327 0.734694 0
0.0816327 0.714286 0
0.0816327 0.693878 0
0.0816327 0.673469 0
0.0816327 0.653061 0
0.0816327 0.632653 0
0.0816327 0.612245 0
0.0816327 0.591837 0
0.0816327 0.571429 0
0.0816327 0.55102 0
0.0816327 0.530612 0
0.0816327 0.510204 0
0.0816327 0.489796 0
0.0816327 0.469388 0
0.0816327 0.44898 0
0.0816327 0.428571 0
0.0816327 0.408163 0
0.0816327 0.387755 0
0.0816327 0.367347 0
0.0816327 0.346939 0
0.0816327 0.326531 0
0.0816327 0.306122 0
0.0816327 0.285714 0
0.0816327 0.265306 0
0.0816327 0.244898 0
0.0816327 0.22449 0
0.0816327 0.204082 0
0.0816327 0.183673 0
0.0816327 0.163265 0
0.0816327 0.142857 0
0.0816327 0.122449 0
0.0816327 0.102041 0
0.0816327 0.0816327 0
0.0816327 0.0612245 0
0.0816327 0.0408163 0
0.0816327 0.0204082 0
0.102041 0.979592 0
0.102041 0.959184 0
0.102041 0.938776 0
0.102041 0.918367 0
0.102041 0.897959 0
0.102041 0.877551 0
0.102041 0.857143 0
0.102041 0.836735 0
0.102041 0.816327 0
0.102041 0.795918 0
0.102041 0.77551 0
0.102041 0.755102 0
0.102041 0.734694 0
0.102041 0.714286 0
0.102041 0.693878 0
0.102041 0.673469 0
0.102041 0.653061 0
0.102041 0.632653 0
0.102041 0.612245 0
0.102041 0.591837 0
0.102041 0.571429 0
0.102041 0.55102 0
0.102041 0.530612 0
0.102041 0.510204 0
0.102041 0.489796 0
0.102041 0.469388 0
0.102041 0.44898 0
0.102041 0.428571 0
0.102041 0.408163 0
0.102041 0.387755 0
0.102041 0.367347 0
0.102041 0.346939 0
0.102041 0.326531 0
0.102041 0.306122 0
0.102041 0.285714 0
0.102041 0.265306 0
0.102041 0.244898 0
0.102041 0.22449 0
0.102041 0.204082 0
0.102041 0.183673 0
0.102041 0.163265 0
0.102041 0.142857 0
0.102041 0.122449 0
0.102041 0.102041 0
0.102041 0.0816327 0
0.102041 0.0612245 0
0.102041 0.0408163 0
0.102041 0.0204082 0
0.122449 0.979592 0
0.122449 0.959184 0
0.122449 0.938776 0
0.122449 0.918367 0
0.122449 0.897959 0
0.122449 0.877551 0
0.122449 0.857143 0
0.122449 0.836735 0
0.122449 0.816327 0
0.122449 0.795918 0
0.122449 0.77551 0
0.122449 0.755102 0
0.122449 0.734694 0
0.122449 0.714286 0
0.122449 0.693878 0
0.122449 0.673469 0
0.122449 0.653061 0
0.122449 0.632653 0
0.122449 0.612245 0
0.122449 0.591837 0
0.122449 0.571429 0
0.122449 0.55102 0
0.122449 0.530612 0
0.122449 0.510204 0
0.122449 0.489796 0
0.122449 0.469388 0
0.122449 0.44898 0
0.122449 0.428571 0
0.122449 0.408163 0
0.122449 0.387755 0
0.122449 0.367347 0
0.122449 0.346939 0
0.122449 0.326531 0
0.122449 0.306122 0
0.122449 0.285714 0
0.122449 0.265306 0
0.122449 0.244898 0
0.122449 0.22449 0
0.122449 0.204082 0
0.122449 0.183673 0
0.122449 0.163265 0
0.122449 0.142857 0
0.122449 0.122449 0
0.122449 0.102041 0
0.122449 0.0816327 0
0.122449 0.0612245 0
0.122449 0.0408163 0
0.122449 0.0204082 0
0.142857 0.979592 0
0.142857 0.959184 0
0.142857 0.938776 0
0.142857 0.918367 0
0.142857 0.897959 0
0.142857 0.877551 0
0.142857 0.857143 0
0.142857 0.836735 0
0.142857 0.816327 0
0.142857 0.795918 0
0.142857 0.77551 0
0.142857 0.755102 0
0.142857 0.734694 0
0.142857 0.714286 0
0.142857 0.693878 0
0.142857 0.673469 0
0.142857 0.653061 0
0.142857 0.632653 0
0.142857 0.612245 0
0.142857 0.591837 0
0.142857 0.571429 0
0.142857 0.55102 0
0.142857 0.530612 0
0.142857 0.510204 0
0.142857 0.489796 0
0.142857 0.469388 0
0.142857 0.44898 0
0.142857 0.428571 0
0.142857 0.408163 0
0.142857 0.387755 0
0.142857 0.367347 0
0.142857 0.346939 0
0.142857 0.326531 0
0.142857 0.306122 0
0.142857 0.285714 0
0.142857 0.265306 0
0.142857 0.244898 0
0.142857 0.22449 0
0.142857 0.204082 0
0.142857 0.183673 0
0.142857 0.163265 0
0.142857 0.142857 0
0.142857 0.122449 0
0.142857 0.102041 0
0.142857 0.0816327 0
0.142857 0.0612245 0
0.142857 0.0408163 0
0.142857 0.0204082 0
0.163265 0.979592 0
0.163265 0.959184 0
0.163265 0.938776 0
0.163265 0.918367 0
0.163265 0.897959 0
0.163265 0.877551 0
0.163265 0.857143 0
0.163265 0.836735 0
0.163265 0.816327 0
0.163265 0.795918 0
0.163265 0.77551 0
0.163265 0.755102 0
0.163265 0.734694 0
0.163265 0.714286 0
0.163265 0.693878 0
0.163265 0.673469 0
0.163265 0.653061 0
0.163265 0.632653 0
0.163265 0.612245 0
0.163265 0.591837 0
0.163265 0.571429 0
0.163265 0.55102 0
[...]
CELL_DATA 2401
VECTORS velocity double
0.257582 0.157301 0.0
-0.00262715 0.264439 0.0
-0.0322679 0.205456 0.0
-0.0253733 0.15056 0.0
-0.0160671 0.113018 0.0
-0.00971342 0.0876558 0.0
-0.00593795 0.0705746 0.0
-0.00375157 0.0588723 0.0
-0.00246673 0.0506415 0.0
-0.0016879 0.044696 0.0
-0.0011992 0.0402883 0.0
-0.000883184 0.0369341 0.0
-0.000674437 0.0343099 0.0
-0.000535026 0.0321937 0.0
-0.000441951 0.0304297 0.0
-0.000380628 0.0289069 0.0
-0.000341424 0.0275452 0.0
-0.000317745 0.0262868 0.0
-0.00030493 0.0250901 0.0
-0.0002996 0.0239254 0.0
-0.000299244 0.0227725 0.0
-0.000301962 0.0216181 0.0
-0.000306302 0.0204543 0.0
-0.00031115 0.0192774 0.0
-0.000315652 0.0180872 0.0
-0.000319164 0.016886 0.0
-0.000321219 0.0156778 0.0
-0.000321489 0.0144681 0.0
-0.000319769 0.0132635 0.0
-0.000315952 0.0120708 0.0
-0.000310009 0.0108973 0.0
-0.000301973 0.00975041 0.0
-0.000291923 0.00863721 0.0
-0.000279966 0.0075646 0.0
-0.000266226 0.0065391 0.0
-0.000250825 0.00556684 0.0
-0.000233875 0.00465358 0.0
-0.000215464 0.0038047 0.0
-0.000195642 0.00302531 0.0
-0.000174412 0.00232033 0.0
-0.000151714 0.00169458 0.0
-0.000127419 0.00115289 0.0
-0.000101332 0.000700146 0.0
-7.32391e-05 0.000341274 0.0
-4.30792e-05 8.08138e-05 0.0
-1.14477e-05 -7.81093e-05 0.0
1.91084e-05 -0.000136174 0.0
4.14212e-05 -0.000106729 0.0
3.6704e-05 -3.65182e-05 0.0
0.340769 0.122969 0.0
-0.000656802 0.24948 0.0
-0.0652405 0.271674 0.0
-0.063281 0.252173 0.0
-0.0485559 0.221636 0.0
-0.0349966 0.191756 0.0
-0.0249385 0.166332 0.0
-0.0179045 0.145862 0.0
-0.0130517 0.12973 0.0
-0.00969404 0.11708 0.0
-0.00735299 0.107112 0.0
-0.00571001 0.0991607 0.0
-0.00455384 0.0927043 0.0
-0.00374246 0.0873399 0.0
-0.00317848 0.0827607 0.0
-0.00279359 0.0787343 0.0
-0.00253888 0.0750861 0.0
-0.00237864 0.0716854 0.0
-0.0022863 0.0684358 0.0
-0.00224177 0.0652679 0.0
-0.00222965 0.0621329 0.0
-0.00223803 0.0589985 0.0
-0.00225762 0.0558457 0.0
-0.0022812 0.0526656 0.0
-0.00230319 0.0494572 0.0
-0.00231934 0.046226 0.0
-0.00232652 0.0429822 0.0
-0.00232248 0.0397392 0.0
-0.00230578 0.036513 0.0
-0.00227558 0.0333209 0.0
-0.00223156 0.0301813 0.0
-0.00217381 0.0271124 0.0
-0.00210268 0.0241324 0.0
-0.00201876 0.0212588 0.0
-0.00192272 0.0185085 0.0
-0.0018153 0.0158972 0.0
-0.00169718 0.01344 0.0
-0.00156898 0.0111509 0.0
-0.00143118 0.00904322 0.0
-0.00128408 0.00712951 0.0
-0.00112788 0.0054218 0.0
-0.000962641 0.00393149 0.0
-0.000788549 0.00266918 0.0
-0.000606308 0.00164402 0.0
-0.000418098 0.000862356 0.0
-0.000229684 0.000325061 0.0
-5.4717e-05 2.25128e-05 0.0
7.80056e-05 -7.63525e-05 0.0
0.000106176 -4.02836e-05 0.0
0.500824 0.0768062 0.0
0.0989757 0.18321 0.0
-0.0394278 0.2492 0.0
-0.0734826 0.265701 0.0
-0.0719363 0.257399 0.0
-0.0606183 0.239617 0.0
-0.0483505 0.219624 0.0
-0.0377687 0.200705 0.0
-0.0293606 0.184067 0.0
-0.0229235 0.16992 0.0
-0.0180912 0.158046 0.0
-0.0145099 0.14808 0.0
-0.0118857 0.139638 0.0
-0.00998752 0.132369 0.0
-0.00863768 0.125975 0.0
-0.00770047 0.120212 0.0
-0.00707211 0.114887 0.0
-0.00667284 0.109848 0.0
-0.0064409 0.10498 0.0
-0.00632816 0.100201 0.0
-0.00629682 0.0954498 0.0
-0.00631706 0.0906882 0.0
-0.00636536 0.0858934 0.0
-0.00642323 0.0810561 0.0
-0.00647626 0.0761776 0.0
-0.00651341 0.0712672 0.0
-0.00652647 0.0663408 0.0
-0.00650958 0.0614186 0.0
-0.00645887 0.0565241 0.0
-0.00637208 0.0516829 0.0
-0.00624827 0.0469214 0.0
-0.00608754 0.0422665 0.0
-0.00589074 0.0377445 0.0
-0.00565929 0.033381 0.0
-0.0053949 0.0292007 0.0
-0.00509944 0.0252267 0.0
-0.00477473 0.021481 0.0
-0.00442246 0.0179843 0.0
-0.00404413 0.0147559 0.0
-0.00364096 0.011814 0.0
-0.00321411 0.00917548 0.0
-0.00276482 0.00685601 0.0
-0.00229511 0.00486922 0.0
-0.00180882 0.0032259 0.0
-0.00131382 0.00193209 0.0
-0.000826021 0.000986122 0.0
-0.000376498 0.000372775 0.0
-2.14642e-05 5.59677e-05 0.0
0.00013322 -1.71615e-05 0.0
0.609998 0.0480516 0.0
0.195584 0.133949 0.0
0.0112803 0.209403 0.0
-0.0581293 0.246452 0.0
-0.076132 0.25701 0.0
-0.0737463 0.253598 0.0
-0.0644331 0.2434 0.0
-0.0538111 0.230662 0.0
-0.0440584 0.217638 0.0
-0.0358649 0.20538 0.0
-0.0293006 0.194275 0.0
-0.0242005 0.184366 0.0
-0.0203315 0.175534 0.0
-0.0174616 0.167593 0.0
-0.0153845 0.160347 0.0
-0.0139269 0.153612 0.0
-0.0129459 0.147231 0.0
-0.0123258 0.141073 0.0
-0.011973 0.135037 0.0
-0.0118121 0.129047 0.0
-0.0117824 0.123049 0.0
-0.0118351 0.117008 0.0
-0.0119309 0.110906 0.0
-0.0120388 0.104741 0.0
-0.0121344 0.0985172 0.0
-0.0121988 0.092251 0.0
-0.0122179 0.085964 0.0
-0.0121818 0.0796831 0.0
-0.0120838 0.0734383 0.0
-0.01192 0.0672618 0.0
-0.0116888 0.0611865 0.0
-0.0113905 0.0552456 0.0
-0.0110265 0.0494717 0.0
-0.0105994 0.0438965 0.0
-0.0101121 0.0385501 0.0
-0.00956802 0.033461 0.0
-0.00897049 0.0286563 0.0
-0.00832271 0.0241612 0.0
-0.0076276 0.0199992 0.0
-0.00688793 0.0161925 0.0
-0.00610649 0.012761 0.0
-0.00528662 0.00972284 0.0
-0.00443329 0.00709343 0.0
-0.00355483 0.0048843 0.0
-0.00266607 0.00310147 0.0
-0.00179367 0.00174306 0.0
-0.000984687 0.000793522 0.0
-0.000317222 0.000221853 0.0
7.40255e-05 1.29002e-05 0.0
0.680386 0.0301721 0.0
0.278365 0.0981888 0.0
0.0695146 0.170985 0.0
-0.0275617 0.217533 0.0
-0.0652854 0.241031 0.0
-0.0746497 0.249562 0.0
-0.0715151 0.24905 0.0
-0.0636431 0.243592 0.0
-0.0546996 0.235762 0.0
-0.046315 0.227048 0.0
-0.0391182 0.218248 0.0
-0.0332574 0.209736 0.0
-0.0286629 0.201644 0.0
-0.0251779 0.193971 0.0
-0.022622 0.186652 0.0
-0.0208202 0.179596 0.0
-0.0196153 0.172708 0.0
-0.0188713 0.165904 0.0
-0.0184727 0.159114 0.0
-0.0183232 0.152286 0.0
-0.0183429 0.145384 0.0
-0.0184662 0.138387 0.0
-0.0186396 0.131289 0.0
-0.0188203 0.124095 0.0
-0.0189741 0.116821 0.0
-0.0190748 0.109489 0.0
-0.0191027 0.102128 0.0
-0.0190437 0.094773 0.0
-0.0188887 0.0874584 0.0
-0.0186324 0.0802226 0.0
-0.0182727 0.0731041 0.0
-0.0178103 0.0661408 0.0
-0.0172476 0.05937 0.0
-0.0165884 0.0528276 0.0
-0.0158375 0.0465477 0.0
-0.0149999 0.0405624 0.0
-0.0140809 0.0349021 0.0
-0.0130853 0.029595 0.0
-0.0120181 0.0246674 0.0
-0.010884 0.0201436 0.0
-0.00968789 0.0160455 0.0
-0.0084359 0.0123929 0.0
-0.00713649 0.00920214 0.0
-0.00580287 0.00648577 0.0
-0.00445666 0.00425106 0.0
-0.00313366 0.00249871 0.0
-0.00189269 0.00121746 0.0
-0.000825329 0.000387949 0.0
-7.87134e-05 4.1861e-05 0.0
0.729775 0.0192007 0.0
0.348901 0.0730583 0.0
0.127846 0.139318 0.0
0.0111993 0.188335 0.0
-0.044266 0.219735 0.0
-0.0659092 0.236907 0.0
-0.0704999 0.244387 0.0
-0.0671346 0.245643 0.0
-0.0606104 0.243131 0.0
-0.0533745 0.238459 0.0
-0.0466031 0.232625 0.0
-0.0407926 0.226212 0.0
-0.0360845 0.219539 0.0
-0.0324429 0.212757 0.0
-0.0297516 0.205923 0.0
-0.0278644 0.199038 0.0
-0.026632 0.192082 0.0
-0.0259145 0.185022 0.0
-0.0255864 0.177833 0.0
-0.0255388 0.170491 0.0
-0.0256784 0.162987 0.0
-0.025927 0.155319 0.0
-0.0262199 0.147497 0.0
-0.0265041 0.13954 0.0
-0.0267378 0.131474 0.0
-0.0268883 0.12333 0.0
-0.0269313 0.115146 0.0
-0.0268495 0.106962 0.0
-0.0266317 0.0988209 0.0
-0.0262719 0.0907646 0.0
-0.0257683 0.0828365 0.0
-0.0251221 0.0750786 0.0
-0.0243373 0.0675315 0.0
-0.0234194 0.0602341 0.0
-0.0223751 0.0532231 0.0
-0.0212114 0.0465329 0.0
-0.0199358 0.0401958 0.0
-0.0185555 0.0342416 0.0
-0.0170772 0.0286981 0.0
-0.0155082 0.0235907 0.0
-0.0138557 0.0189426 0.0
-0.0121287 0.0147743 0.0
-0.0103392 0.0111035 0.0
-0.00850487 0.00794399 0.0
-0.00665275 0.00530588 0.0
-0.00482508 0.00319479 0.0
-0.00308728 0.00160699 0.0
-0.00153606 0.000538016 0.0
-0.000317649 6.67311e-05 0.0
0.765787 0.0125987 0.0
0.408341 0.0557184 0.0
0.182854 0.11457 0.0
0.0527459 0.162708 0.0
-0.017036 0.197927 0.0
-0.0501585 0.220859 0.0
-0.0628962 0.23434 0.0
-0.0649653 0.241133 0.0
-0.0619196 0.24337 0.0
-0.0568401 0.242583 0.0
-0.0513743 0.239815 0.0
-0.0463472 0.235748 0.0
-0.042119 0.230813 0.0
-0.0387937 0.22527 0.0
-0.03634 0.21927 0.0
-0.0346605 0.212895 0.0
-0.0336306 0.206189 0.0
-0.03312 0.199174 0.0
-0.0330041 0.191864 0.0
-0.0331692 0.184274 0.0
-0.0335153 0.176419 0.0
-0.0339561 0.16832 0.0
-0.0344192 0.160007 0.0
-0.0348449 0.151512 0.0
-0.0351853 0.142873 0.0
-0.0354033 0.134134 0.0
-0.0354713 0.125339 0.0
-0.0353701 0.116537 0.0
-0.0350876 0.107775 0.0
-0.0346178 0.0991014 0.0
-0.0339597 0.0905629 0.0
-0.0331161 0.0822049 0.0
-0.0320928 0.0740705 0.0
-0.0308976 0.0662006 0.0
-0.0295394 0.0586332 0.0
-0.0280278 0.0514042 0.0
-0.0263727 0.0445465 0.0
-0.0245834 0.0380906 0.0
-0.0226693 0.0320647 0.0
-0.0206397 0.0264948 0.0
-0.0185044 0.0214043 0.0
-0.0162751 0.0168145 0.0
-0.0139667 0.0127442 0.0
-0.0116002 0.0092096 0.0
-0.0092062 0.00622435 0.0
-0.00683008 0.00380062 0.0
-0.00453882 0.00194396 0.0
-0.00242711 0.000665521 0.0
-0.000630788 8.68416e-05 0.0
0.792831 0.00861218 0.0
0.458414 0.0436438 0.0
0.233362 0.0954384 0.0
0.0944408 0.141176 0.0
0.0138635 0.177473 0.0
-0.0295981 0.204034 0.0
-0.0502929 0.22179 0.0
-0.0581526 0.232883 0.0
-0.0591917 0.239068 0.0
-0.0569496 0.241704 0.0
-0.0534498 0.24179 0.0
-0.0498009 0.24003 0.0
-0.0465658 0.236908 0.0
-0.0439878 0.232747 0.0
-0.0421277 0.227764 0.0
-0.0409463 0.222101 0.0
-0.0403539 0.215855 0.0
-0.0402394 0.209096 0.0
-0.0404869 0.201875 0.0
-0.0409852 0.194239 0.0
-0.0416325 0.186231 0.0
-0.0423395 0.177896 0.0
-0.0430296 0.16928 0.0
-0.0436391 0.160431 0.0
-0.0441169 0.151403 0.0
-0.0444233 0.142248 0.0
-0.0445291 0.13302 0.0
-0.0444147 0.123775 0.0
-0.0440683 0.114566 0.0
-0.0434851 0.105446 0.0
-0.0426658 0.0964648 0.0
-0.0416155 0.0876714 0.0
-0.0403426 0.0791104 0.0
-0.0388575 0.0708238 0.0
-0.0371721 0.0628505 0.0
-0.0352988 0.0552265 0.0
-0.03325 0.0479847 0.0
-0.0310376 0.0411555 0.0
-0.0286734 0.0347667 0.0
-0.0261689 0.028844 0.0
-0.0235361 0.0234109 0.0
-0.0207888 0.0184892 0.0
-0.017944 0.014099 0.0
-0.0150245 0.0102589 0.0
-0.0120622 0.00698716 0.0
-0.00910251 0.00430297 0.0
-0.00620953 0.00222157 0.0
-0.00347048 0.000768879 0.0
-0.00100477 0.000102435 0.0
0.813852 0.00616249 0.0
0.500925 0.035088 0.0
0.279215 0.0806461 0.0
0.134826 0.123412 0.0
0.0459275 0.159452 0.0
-0.00601121 0.18775 0.0
-0.0340892 0.208415 0.0
-0.0477246 0.222693 0.0
-0.0531263 0.232 0.0
-0.0541355 0.237494 0.0
-0.0530591 0.240079 0.0
-0.0512368 0.240429 0.0
-0.0494071 0.23904 0.0
-0.0479408 0.236264 0.0
-0.0469881 0.232358 0.0
-0.0465702 0.227505 0.0
-0.0466369 0.221842 0.0
-0.0471013 0.215472 0.0
-0.0478616 0.208483 0.0
-0.0488138 0.200949 0.0
-0.0498591 0.192937 0.0
-0.0509084 0.184514 0.0
-0.0518844 0.175743 0.0
-0.0527223 0.16669 0.0
-0.0533699 0.157419 0.0
-0.0537871 0.147993 0.0
-0.0539452 0.138478 0.0
-0.0538253 0.128934 0.0
-0.0534176 0.119421 0.0
-0.0527195 0.109997 0.0
-0.0517347 0.100715 0.0
-0.0504713 0.091625 0.0
-0.0489411 0.0827737 0.0
-0.0471581 0.0742037 0.0
-0.0451372 0.0659539 0.0
-0.0428941 0.0580599 0.0
-0.0404441 0.0505537 0.0
-0.0378017 0.0434649 0.0
-0.034981 0.0368205 0.0
-0.0319956 0.0306451 0.0
-0.0288593 0.0249622 0.0
-0.025587 0.0197937 0.0
-0.0221968 0.0151609 0.0
-0.0187117 0.0110852 0.0
-0.0151628 0.00758913 0.0
-0.0115924 0.00469905 0.0
-0.00805829 0.00243934 0.0
-0.00463648 0.00084889 0.0
-0.00142655 0.000114053 0.0
0.830723 0.00461678 0.0
0.53739 0.0288907 0.0
0.320713 0.0690966 0.0
0.173303 0.108757 0.0
0.0781678 0.143777 0.0
0.0193578 0.172604 0.0
-0.0154083 0.195097 0.0
-0.0345908 0.211655 0.0
-0.0444115 0.223347 0.0
-0.0488864 0.231139 0.0
-0.0505251 0.23582 0.0
-0.0508469 0.238012 0.0
-0.0507356 0.238191 0.0
-0.0506727 0.236719 0.0
-0.0508895 0.233867 0.0
-0.0514649 0.229845 0.0
-0.0523882 0.224815 0.0
-0.0535987 0.21891 0.0
-0.0550113 0.212241 0.0
-0.0565323 0.204906 0.0
-0.0580686 0.196995 0.0
-0.0595346 0.188592 0.0
-0.0608544 0.179779 0.0
-0.0619647 0.170634 0.0
-0.0628143 0.161235 0.0
-0.0633649 0.151656 0.0
-0.0635895 0.14197 0.0
-0.0634722 0.132245 0.0
-0.0630061 0.122547 0.0
-0.0621925 0.112936 0.0
-0.0610388 0.10347 0.0
-0.0595575 0.0942007 0.0
-0.0577645 0.0851751 0.0
-0.0556779 0.076436 0.0
-0.0533165 0.0680218 0.0
-0.0506995 0.0599669 0.0
-0.0478453 0.0523021 0.0
-0.0447712 0.0450555 0.0
-0.0414934 0.0382524 0.0
-0.0380273 0.0319164 0.0
-0.0343876 0.0260702 0.0
-0.0305901 0.0207355 0.0
-0.0266523 0.0159349 0.0
-0.022596 0.0116919 0.0
-0.0184491 0.00803341 0.0
-0.0142488 0.00499194 0.0
-0.0100437 0.00260006 0.0
-0.00589607 0.000907395 0.0
-0.00188409 0.000122292 0.0
0.844638 0.00360835 0.0
0.569004 0.0242955 0.0
0.358278 0.0599712 0.0
0.209585 0.0966313 0.0
0.109818 0.130244 0.0
0.0453161 0.158944 0.0
0.0049269 0.182267 0.0
-0.0194882 0.200407 0.0
-0.0336541 0.213869 0.0
-0.0416735 0.223454 0.0
-0.0461941 0.22984 0.0
-0.0488711 0.233584 0.0
-0.0507045 0.23513 0.0
-0.0522686 0.234828 0.0
-0.053865 0.232955 0.0
-0.0556245 0.229732 0.0
-0.0575733 0.225337 0.0
-0.0596765 0.219922 0.0
-0.0618664 0.213618 0.0
-0.0640606 0.20654 0.0
-0.0661739 0.198797 0.0
-0.0681254 0.19049 0.0
-0.0698434 0.181714 0.0
-0.0712672 0.172562 0.0
-0.072349 0.163123 0.0
-0.0730535 0.153481 0.0
-0.0733577 0.143716 0.0
-0.0732496 0.133905 0.0
-0.0727273 0.124117 0.0
-0.0717968 0.114418 0.0
-0.0704708 0.104867 0.0
-0.0687671 0.0955177 0.0
-0.0667065 0.0864171 0.0
-0.0643119 0.0776079 0.0
-0.0616068 0.0691272 0.0
-0.0586142 0.061008 0.0
-0.0553558 0.0532791 0.0
-0.0518518 0.0459663 0.0
-0.0481203 0.0390933 0.0
-0.0441779 0.0326819 0.0
-0.0400402 0.0267534 0.0
-0.0357222 0.0213292 0.0
-0.0312402 0.0164324 0.0
-0.0266129 0.0120884 0.0
-0.0218637 0.00832748 0.0
-0.017022 0.00518758 0.0
-0.0121259 0.00270788 0.0
-0.00722194 0.000946538 0.0
-0.00236664 0.000127694 0.0
0.85638 0.00292398 0.0
0.596702 0.0208028 0.0
0.392368 0.0526547 0.0
0.243636 0.0865166 0.0
0.140512 0.118536 0.0
0.0713466 0.146695 0.0
0.0260743 0.170277 0.0
-0.00302497 0.18932 0.0
-0.0213715 0.204054 0.0
-0.0329223 0.214994 0.0
-0.0404014 0.222726 0.0
-0.045562 0.227739 0.0
-0.049495 0.230437 0.0
-0.0528502 0.23115 0.0
-0.0559884 0.23015 0.0
-0.0590851 0.227659 0.0
-0.0621993 0.223865 0.0
-0.0653195 0.218931 0.0
-0.0683946 0.213001 0.0
-0.0713538 0.206206 0.0
-0.0741201 0.198668 0.0
-0.0766188 0.190502 0.0
-0.0787831 0.181817 0.0
-0.0805569 0.172718 0.0
-0.0818968 0.163304 0.0
-0.0827726 0.153667 0.0
-0.0831664 0.143898 0.0
-0.083072 0.134076 0.0
-0.0824934 0.124279 0.0
-0.081443 0.114573 0.0
-0.07994 0.105021 0.0
-0.0780083 0.0956767 0.0
-0.0756749 0.0865876 0.0
-0.0729683 0.0777951 0.0
-0.0699169 0.069335 0.0
-0.0665481 0.0612379 0.0
-0.0628872 0.0535304 0.0
-0.0589572 0.0462356 0.0
-0.0547781 0.0393747 0.0
-0.0503674 0.0329672 0.0
-0.0457404 0.0270327 0.0
-0.040911 0.0215918 0.0
-0.0358929 0.0166673 0.0
-0.0307006 0.0122859 0.0
-0.0253509 0.00848045 0.0
-0.0198646 0.00529275 0.0
-0.0142672 0.00276722 0.0
-0.00858893 0.000968364 0.0
-0.00286469 0.000130706 0.0
0.866476 0.00243929 0.0
0.621203 0.0180815 0.0
0.423408 0.0466953 0.0
0.275517 0.0779924 0.0
0.17003 0.108357 0.0
0.0970502 0.135717 0.0
0.0475357 0.159186 0.0
0.0142967 0.178615 0.0
-0.00800136 0.194189 0.0
-0.0230061 0.206121 0.0
-0.0334548 0.214882 0.0
-0.0411647 0.2209 0.0
-0.0472958 0.224539 0.0
-0.0525573 0.226106 0.0
-0.0573582 0.225856 0.0
-0.0619112 0.22401 0.0
-0.0663028 0.220758 0.0
-0.0705422 0.21627 0.0
-0.0745928 0.210699 0.0
-0.0783946 0.204186 0.0
-0.0818787 0.196867 0.0
-0.084977 0.188866 0.0
-0.0876282 0.180305 0.0
-0.089782 0.171299 0.0
-0.0914008 0.161955 0.0
-0.0924604 0.152378 0.0
-0.0929496 0.14266 0.0
-0.0928694 0.132891 0.0
-0.0922313 0.123149 0.0
-0.0910553 0.113506 0.0
-0.0893682 0.104025 0.0
-0.0872013 0.0947601 0.0
-0.0845886 0.0857589 0.0
-0.081565 0.0770611 0.0
-0.0781645 0.0687002 0.0
-0.0744192 0.0607042 0.0
-0.0703584 0.0530967 0.0
-0.0660077 0.0458979 0.0
-0.0613889 0.0391256 0.0
-0.05652 0.0327969 0.0
-0.0514156 0.0269289 0.0
-0.0460876 0.0215405 0.0
-0.0405459 0.0166539 0.0
-0.0347995 0.0122961 0.0
-0.0288579 0.00850133 0.0
-0.0227315 0.00531398 0.0
-0.0164323 0.00278212 0.0
-0.00997395 0.000974616 0.0
-0.00336977 0.000131673 0.0
0.875286 0.00208094 0.0
0.643062 0.0159096 0.0
0.451772 0.0417619 0.0
0.30534 0.0707252 0.0
0.198266 0.099443 0.0
0.122174 0.125849 0.0
0.0689686 0.14895 0.0
0.0319798 0.168454 0.0
0.00613417 0.184421 0.0
-0.0122307 0.197053 0.0
-0.025624 0.206571 0.0
-0.0359063 0.213359 0.0
-0.0442913 0.217742 0.0
-0.0515354 0.219999 0.0
-0.0580856 0.220371 0.0
-0.0641842 0.219071 0.0
-0.0699406 0.216287 0.0
-0.0753803 0.212192 0.0
-0.0804793 0.206946 0.0
-0.0851869 0.200698 0.0
-0.0894415 0.193591 0.0
-0.0931813 0.185762 0.0
-0.0963514 0.177341 0.0
-0.0989076 0.168453 0.0
-0.100819 0.159213 0.0
-0.102069 0.149733 0.0
-0.102654 0.140114 0.0
-0.102584 0.130448 0.0
-0.101879 0.120818 0.0
-0.100568 0.111298 0.0
-0.0986867 0.101951 0.0
-0.0962749 0.0928331 0.0
-0.0933745 0.0839891 0.0
-0.0900275 0.0754572 0.0
-0.0862741 0.067268 0.0
-0.0821518 0.0594466 0.0
-0.0776938 0.0520128 0.0
-0.0729285 0.0449831 0.0
-0.0678792 0.038372 0.0
-0.0625642 0.0321931 0.0
-0.0569967 0.0264605 0.0
-0.0511859 0.0211911 0.0
-0.0451371 0.0164053 0.0
-0.038853 0.0121294 0.0
-0.0323342 0.00839808 0.0
-0.0255801 0.00525686 0.0
-0.0185885 0.0027559 0.0
-0.0113558 0.000966655 0.0
-0.00387428 0.000130838 0.0
0.883065 0.00180482 0.0
0.662705 0.0141353 0.0
0.477779 0.0376093 0.0
0.333232 0.0644506 0.0
0.225178 0.091563 0.0
0.146556 0.116925 0.0
0.0901396 0.139479 0.0
0.0497616 0.15883 0.0
0.0206106 0.174931 0.0
-0.000872211 0.187926 0.0
-0.0171482 0.197969 0.0
-0.0299944 0.205312 0.0
-0.0406575 0.210254 0.0
-0.0499297 0.213044 0.0
-0.0582876 0.213908 0.0
-0.0659963 0.213047 0.0
-0.0731825 0.210648 0.0
-0.0798847 0.206882 0.0
-0.0860884 0.201913 0.0
-0.0917504 0.195897 0.0
-0.0968155 0.188985 0.0
-0.101228 0.181321 0.0
-0.104939 0.173045 0.0
-0.107911 0.164288 0.0
-0.110121 0.155175 0.0
-0.111561 0.145824 0.0
-0.112236 0.13634 0.0
-0.112166 0.126821 0.0
-0.111382 0.117352 0.0
-0.109923 0.108009 0.0
-0.107834 0.0988555 0.0
-0.105164 0.0899457 0.0
-0.101965 0.0813235 0.0
-0.0982865 0.0730242 0.0
-0.0941754 0.0650752 0.0
-0.0896747 0.0574976 0.0
-0.084822 0.0503073 0.0
-0.0796485 0.0435167 0.0
-0.074179 0.037136 0.0
-0.0684315 0.0311748 0.0
-0.0624175 0.025644 0.0
-0.0561428 0.0205572 0.0
-0.0496073 0.0159325 0.0
-0.0428065 0.0117947 0.0
-0.0357316 0.00817726 0.0
-0.0283699 0.00512582 0.0
-0.0207047 0.00269109 0.0
-0.0127145 0.000945451 0.0
-0.00437125 0.000128352 0.0
0.889996 0.00158366 0.0
0.680463 0.0126526 0.0
0.501694 0.0340538 0.0
0.359322 0.0589581 0.0
0.25076 0.0845199 0.0
0.170089 0.108784 0.0
0.110874 0.130662 0.0
0.0674311 0.14968 0.0
0.0352186 0.165712 0.0
0.0108148 0.178823 0.0
-0.00824496 0.18917 0.0
-0.0236207 0.196877 0.0
-0.0365605 0.202204 0.0
-0.0478822 0.205378 0.0
-0.0580832 0.206605 0.0
-0.0674452 0.206076 0.0
-0.076107 0.203971 0.0
-0.0841162 0.200462 0.0
-0.091465 0.195715 0.0
-0.0981158 0.18989 0.0
-0.104019 0.183145 0.0
-0.109123 0.175631 0.0
-0.113386 0.167495 0.0
-0.116778 0.158877 0.0
-0.119284 0.149907 0.0
-0.120905 0.140709 0.0
-0.121658 0.131393 0.0
-0.121573 0.12206 0.0
-0.120692 0.112799 0.0
-0.119065 0.103683 0.0
-0.116751 0.094778 0.0
-0.113808 0.0861354 0.0
-0.110297 0.0777968 0.0
-0.106276 0.0697942 0.0
-0.101801 0.062151 0.0
-0.0969199 0.0548839 0.0
-0.0916748 0.0480044 0.0
-0.0860999 0.04152 0.0
-0.0802211 0.0354362 0.0
-0.0740561 0.0297584 0.0
-0.0676143 0.0244931 0.0
-0.0608973 0.0196502 0.0
-0.0538994 0.0152448 0.0
-0.046608 0.0112989 0.0
-0.0390041 0.00784398 0.0
-0.0310626 0.00492418 0.0
-0.0227514 0.00258948 0.0
-0.0140315 0.000911626 0.0
-0.00485409 0.000124293 0.0
0.896211 0.00140005 0.0
0.696589 0.0113858 0.0
0.523734 0.0309558 0.0
0.383722 0.0540797 0.0
0.275021 0.0781469 0.0
0.192697 0.101283 0.0
0.131036 0.122387 0.0
0.0848144 0.140932 0.0
0.0497568 0.15673 0.0
0.0225858 0.169784 0.0
0.000899368 0.180204 0.0
-0.0169573 0.18811 0.0
-0.0321552 0.193662 0.0
-0.0455291 0.197078 0.0
-0.0575904 0.198543 0.0
-0.0686309 0.198237 0.0
-0.0787971 0.196334 0.0
-0.0881418 0.193006 0.0
-0.0966612 0.188419 0.0
-0.104321 0.182739 0.0
-0.111076 0.176127 0.0
-0.116879 0.168743 0.0
-0.121695 0.160739 0.0
-0.1255 0.152261 0.0
-0.12829 0.143448 0.0
-0.130076 0.134425 0.0
-0.130885 0.125308 0.0
-0.130762 0.1162 0.0
-0.12976 0.107189 0.0