# vtk DataFile Version 3.0
Malha 2D com triângulos e temperatura
ASCII
DATASET UNSTRUCTURED_GRID

POINTS 2500 double
0 0 0
1 0 0
1 1 0
0 1 0
0.0204082 0 0
0.0408163 0 0
0.0612245 0 0
0.0816327 0 0
0.102041 0 0
0.122449 0 0
0.142857 0 0
0.163265 0 0
0.183673 0 0
0.204082 0 0
0.22449 0 0
0.244898 0 0
0.265306 0 0
0.285714 0 0
0.306122 0 0
0.326531 0 0
0.346939 0 0
0.367347 0 0
0.387755 0 0
0.408163 0 0
0.428571 0 0
0.44898 0 0
0.469388 0 0
0.489796 0 0
0.510204 0 0
0.530612 0 0
0.55102 0 0
0.571429 0 0
0.591837 0 0
0.612245 0 0
0.632653 0 0
0.653061 0 0
0.673469 0 0
0.693878 0 0
0.714286 0 0
0.734694 0 0
0.755102 0 0
0.77551 0 0
0.795918 0 0
0.816327 0 0
0.836735 0 0
0.857143 0 0
0.877551 0 0
0.897959 0 0
0.918367 0 0
0.938776 0 0
0.959184 0 0
0.979592 0 0
1 0.0204082 0
1 0.0408163 0
1 0.0612245 0
1 0.0816327 0
1 0.102041 0
1 0.122449 0
1 0.142857 0
1 0.163265 0
1 0.183673 0
1 0.204082 0
1 0.22449 0
1 0.244898 0
1 0.265306 0
1 0.285714 0
1 0.306122 0
1 0.326531 0
1 0.346939 0
1 0.367347 0
1 0.387755 0
1 0.408163 0
1 0.428571 0
1 0.44898 0
1 0.469388 0
1 0.489796 0
1 0.510204 0
1 0.530612 0
1 0.55102 0
1 0.571429 0
1 0.591837 0
1 0.612245 0
1 0.632653 0
1 0.653061 0
1 0.673469 0
1 0.693878 0
1 0.714286 0
1 0.734694 0
1 0.755102 0
1 0.77551 0
1 0.795918 0
1 0.816327 0
1 0.836735 0
1 0.857143 0
1 0.877551 0
1 0.897959 0
1 0.918367 0
1 0.938776 0
1 0.959184 0
1 0.979592 0
0.979592 1 0
0.959184 1 0
0.938776 1 0
0.918367 1 0
0.897959 1 0
0.877551 1 0
0.857143 1 0
0.836735 1 0
0.816327 1 0
0.795918 1 0
0.77551 1 0
0.755102 1 0
0.734694 1 0
0.714286 1 0
0.693878 1 0
0.673469 1 0
0.653061 1 0
0.632653 1 0
0.612245 1 0
0.591837 1 0
0.571429 1 0
0.55102 1 0
0.530612 1 0
0.510204 1 0
0.489796 1 0
0.469388 1 0
0.44898 1 0
0.428571 1 0
0.408163 1 0
0.387755 1 0
0.367347 1 0
0.346939 1 0
0.326531 1 0
0.306122 1 0
0.285714 1 0
0.265306 1 0
0.244898 1 0
0.22449 1 0
0.204082 1 0
0.183673 1 0
0.163265 1 0
0.142857 1 0
0.122449 1 0
0.102041 1 0
0.0816327 1 0
0.0612245 1 0
0.0408163 1 0
0.0204082 1 0
0 0.979592 0
0 0.959184 0
0 0.938776 0
0 0.918367 0
0 0.897959 0
0 0.877551 0
0 0.857143 0
0 0.836735 0
0 0.816327 0
0 0.795918 0
0 0.77551 0
0 0.755102 0
0 0.734694 0
0 0.714286 0
0 0.693878 0
0 0.673469 0
0 0.653061 0
0 0.632653 0
0 0.612245 0
0 0.591837 0
0 0.571429 0
0 0.55102 0
0 0.530612 0
0 0.510204 0
0 0.489796 0
0 0.469388 0
0 0.44898 0
0 0.428571 0
0 0.408163 0
0 0.387755 0
0 0.367347 0
0 0.346939 0
0 0.326531 0
0 0.306122 0
0 0.285714 0
0 0.265306 0
0 0.244898 0
0 0.22449 0
0 0.204082 0
0 0.183673 0
0 0.163265 0
0 0.142857 0
0 0.122449 0
0 0.102041 0
0 0.0816327 0
0 0.0612245 0
0 0.0408163 0
0 0.0204082 0
0.0204082 0.979592 0
0.0204082 0.959184 0
0.0204082 0.938776 0
0.0204082 0.918367 0
0.0204082 0.897959 0
0.0204082 0.877551 0
0.0204082 0.857143 0
0.0204082 0.836735 0
0.0204082 0.816327 0
0.0204082 0.795918 0
0.0204082 0.77551 0
0.0204082 0.755102 0
0.0204082 0.734694 0
0.0204082 0.714286 0
0.0204082 0.693878 0
0.0204082 0.673469 0
0.0204082 0.653061 0
0.0204082 0.632653 0
0.0204082 0.612245 0
0.0204082 0.591837 0
0.0204082 0.571429 0
0.0204082 0.55102 0
0.0204082 0.530612 0
0.0204082 0.510204 0
0.0204082 0.489796 0
0.0204082 0.469388 0
0.0204082 0.44898 0
0.0204082 0.428571 0
0.0204082 0.408163 0
0.0204082 0.387755 0
0.0204082 0.367347 0
0.0204082 0.346939 0
0.0204082 0.326531 0
0.0204082 0.306122 0
0.0204082 0.285714 0
0.0204082 0.265306 0
0.0204082 0.244898 0
0.0204082 0.22449 0
0.0204082 0.204082 0
0.0204082 0.183673 0
0.0204082 0.163265 0
0.0204082 0.142857 0
0.0204082 0.122449 0
0.0204082 0.102041 0
0.0204082 0.0816327 0
0.0204082 0.0612245 0
0.0204082 0.0408163 0
0.0204082 0.0204082 0
0.0408163 0.979592 0
0.0408163 0.959184 0
0.0408163 0.938776 0
0.0408163 0.918367 0
0.0408163 0.897959 0
0.0408163 0.877551 0
0.0408163 0.857143 0
0.0408163 0.836735 0
0.0408163 0.816327 0
0.0408163 0.795918 0
0.0408163 0.77551 0
0.0408163 0.755102 0
0.0408163 0.734694 0
0.0408163 0.714286 0
0.0408163 0.693878 0
0.0408163 0.673469 0
0.0408163 0.653061 0
0.0408163 0.632653 0
0.0408163 0.612245 0
0.0408163 0.591837 0
0.0408163 0.571429 0
0.0408163 0.55102 0
0.0408163 0.530612 0
0.0408163 0.510204 0
0.0408163 0.489796 0
0.0408163 0.469388 0
0.0408163 0.44898 0
0.0408163 0.428571 0
0.0408163 0.408163 0
0.0408163 0.387755 0
0.0408163 0.367347 0
0.0408163 0.346939 0
0.0408163 0.326531 0
0.0408163 0.306122 0
0.0408163 0.285714 0
0.0408163 0.265306 0
0.0408163 0.244898 0
0.0408163 0.22449 0
0.0408163 0.204082 0
0.0408163 0.183673 0
0.0408163 0.163265 0
0.0408163 0.142857 0
0.0408163 0.122449 0
0.0408163 0.102041 0
0.0408163 0.0816327 0
0.0408163 0.0612245 0
0.0408163 0.0408163 0
0.0408163 0.0204082 0
0.0612245 0.979592 0
0.0612245 0.959184 0
0.0612245 0.938776 0
0.0612245 0.918367 0
0.0612245 0.897959 0
0.0612245 0.877551 0
0.0612245 0.857143 0
0.0612245 0.836735 0
0.0612245 0.816327 0
0.0612245 0.795918 0
0.0612245 0.77551 0
0.0612245 0.755102 0
0.0612245 0.734694 0
0.0612245 0.714286 0
0.0612245 0.693878 0
0.0612245 0.673469 0
0.0612245 0.653061 0
0.0612245 0.632653 0
0.0612245 0.612245 0
0.0612245 0.591837 0
0.0612245 0.571429 0
0.0612245 0.55102 0
0.0612245 0.530612 0
0.0612245 0.510204 0
0.0612245 0.489796 0
0.0612245 0.469388 0
0.0612245 0.44898 0
0.0612245 0.428571 0
0.0612245 0.408163 0
0.0612245 0.387755 0
0.0612245 0.367347 0
0.0612245 0.346939 0
0.0612245 0.326531 0
0.0612245 0.306122 0
0.0612245 0.285714 0
0.0612245 0.265306 0
0.0612245 0.244898 0
0.0612245 0.22449 0
0.0612245 0.204082 0
0.0612245 0.183673 0
0.0612245 0.163265 0
0.0612245 0.142857 0
0.0612245 0.122449 0
0.0612245 0.102041 0
0.0612245 0.0816327 0
0.0612245 0.0612245 0
0.0612245 0.0408163 0
0.0612245 0.0204082 0
0.0816327 0.979592 0
0.0816327 0.959184 0
0.0816327 0.938776 0
0.0816327 0.918367 0
0.0816327 0.897959 0
0.0816327 0.877551 0
0.0816327 0.857143 0
0.0816327 0.836735 0
0.0816327 0.816327 0
0.0816327 0.795918 0
0.0816327 0.77551 0
0.0816327 0.755102 0
0.0816327 0.734694 0
0.0816327 0.714286 0
0.0816327 0.693878 0
0.0816327 0.673469 0
0.0816327 0.653061 0
0.0816327 0.632653 0
0.0816327 0.612245 0
0.0816327 0.591837 0
0.0816327 0.571429 0
0.0816327 0.55102 0
0.0816327 0.530612 0
0.0816327 0.510204 0
0.0816327 0.489796 0
0.0816327 0.469388 0
0.0816327 0.44898 0
0.0816327 0.428571 0
0.0816327 0.408163 0
0.0816327 0.387755 0
0.0816327 0.367347 0
0.0816327 0.346939 0
0.0816327 0.326531 0
0.0816327 0.306122 0
0.0816327 0.285714 0
0.0816327 0.265306 0
0.0816327 0.244898 0
0.0816327 0.22449 0
0.0816327 0.204082 0
0.0816327 0.183673 0
0.0816327 0.163265 0
0.0816327 0.142857 0
0.0816327 0.122449 0
0.0816327 0.102041 0
0.0816327 0.0816327 0
0.0816327 0.0612245 0
0.0816327 0.0408163 0
0.0816327 0.0204082 0
0.102041 0.979592 0
0.102041 0.959184 0
0.102041 0.938776 0
0.102041 0.918367 0
0.102041 0.897959 0
0.102041 0.877551 0
0.102041 0.857143 0
0.102041 0.836735 0
0.102041 0.816327 0
0.102041 0.795918 0
0.102041 0.77551 0
0.102041 0.755102 0
0.102041 0.734694 0
0.102041 0.714286 0
0.102041 0.693878 0
0.102041 0.673469 0
0.102041 0.653061 0
0.102041 0.632653 0
0.102041 0.612245 0
0.102041 0.591837 0
0.102041 0.571429 0
0.102041 0.55102 0
0.102041 0.530612 0
0.102041 0.510204 0
0.102041 0.489796 0
0.102041 0.469388 0
0.102041 0.44898 0
0.102041 0.428571 0
0.102041 0.408163 0
0.102041 0.387755 0
0.102041 0.367347 0
0.102041 0.346939 0
0.102041 0.326531 0
0.102041 0.306122 0
0.102041 0.285714 0
0.102041 0.265306 0
0.102041 0.244898 0
0.102041 0.22449 0
0.102041 0.204082 0
0.102041 0.183673 0
0.102041 0.163265 0
0.102041 0.142857 0
0.102041 0.122449 0
0.102041 0.102041 0
0.102041 0.0816327 0
0.102041 0.0612245 0
0.102041 0.0408163 0
0.102041 0.0204082 0
0.122449 0.979592 0
0.122449 0.959184 0
0.122449 0.938776 0
0.122449 0.918367 0
0.122449 0.897959 0
0.122449 0.877551 0
0.122449 0.857143 0
0.122449 0.836735 0
0.122449 0.816327 0
0.122449 0.795918 0
0.122449 0.77551 0
0.122449 0.755102 0
0.122449 0.734694 0
0.122449 0.714286 0
0.122449 0.693878 0
0.122449 0.673469 0
0.122449 0.653061 0
0.122449 0.632653 0
0.122449 0.612245 0
0.122449 0.591837 0
0.122449 0.571429 0
0.122449 0.55102 0
0.122449 0.530612 0
0.122449 0.510204 0
0.122449 0.489796 0
0.122449 0.469388 0
0.122449 0.44898 0
0.122449 0.428571 0
0.122449 0.408163 0
0.122449 0.387755 0
0.122449 0.367347 0
0.122449 0.346939 0
0.122449 0.326531 0
0.122449 0.306122 0
0.122449 0.285714 0
0.122449 0.265306 0
0.122449 0.244898 0
0.122449 0.22449 0
0.122449 0.204082 0
0.122449 0.183673 0
0.122449 0.163265 0
0.122449 0.142857 0
0.122449 0.122449 0
0.122449 0.102041 0
0.122449 0.0816327 0
0.122449 0.0612245 0
0.122449 0.0408163 0
0.122449 0.0204082 0
0.142857 0.979592 0
0.142857 0.959184 0
0.142857 0.938776 0
0.142857 0.918367 0
0.142857 0.897959 0
0.142857 0.877551 0
0.142857 0.857143 0
0.142857 0.836735 0
0.142857 0.816327 0
0.142857 0.795918 0
0.142857 0.77551 0
0.142857 0.755102 0
0.142857 0.734694 0
0.142857 0.714286 0
0.142857 0.693878 0
0.142857 0.673469 0
0.142857 0.653061 0
0.142857 0.632653 0
0.142857 0.612245 0
0.142857 0.591837 0
0.142857 0.571429 0
0.142857 0.55102 0
0.142857 0.530612 0
0.142857 0.510204 0
0.142857 0.489796 0
0.142857 0.469388 0
0.142857 0.44898 0
0.142857 0.428571 0
0.142857 0.408163 0
0.142857 0.387755 0
0.142857 0.367347 0
0.142857 0.346939 0
0.142857 0.326531 0
0.142857 0.306122 0
0.142857 0.285714 0
0.142857 0.265306 0
0.142857 0.244898 0
0.142857 0.22449 0
0.142857 0.204082 0
0.142857 0.183673 0
0.142857 0.163265 0
0.142857 0.142857 0
0.142857 0.122449 0
0.142857 0.102041 0
0.142857 0.0816327 0
0.142857 0.0612245 0
0.142857 0.0408163 0
0.142857 0.0204082 0
0.163265 0.979592 0
0.163265 0.959184 0
0.163265 0.938776 0
0.163265 0.918367 0
0.163265 0.897959 0
0.163265 0.877551 0
0.163265 0.857143 0
0.163265 0.836735 0
0.163265 0.816327 0
0.163265 0.795918 0
0.163265 0.77551 0
0.163265 0.755102 0
0.163265 0.734694 0
0.163265 0.714286 0
0.163265 0.693878 0
0.163265 0.673469 0
0.163265 0.653061 0
0.163265 0.632653 0
0.163265 0.612245 0
0.163265 0.591837 0
0.163265 0.571429 0
0.163265 0.55102 0
[...]
CELL_DATA 2401
VECTORS velocity double
0.257585 0.157303 0.0
-0.00259969 0.264483 0.0
-0.0322232 0.205594 0.0
-0.0253285 0.150802 0.0
-0.0160356 0.11334 0.0
-0.00970143 0.0880099 0.0
-0.0059459 0.0709059 0.0
-0.00377647 0.0591287 0.0
-0.0025044 0.0507801 0.0
-0.00173417 0.0446852 0.0
-0.00125045 0.0401076 0.0
-0.000936564 0.0365722 0.0
-0.00072775 0.0337635 0.0
-0.000586634 0.0314656 0.0
-0.000490634 0.0295278 0.0
-0.000425463 0.0278428 0.0
-0.000381704 0.0263335 0.0
-0.00035292 0.0249445 0.0
-0.000334577 0.023636 0.0
-0.000323406 0.0223799 0.0
-0.000317001 0.0211567 0.0
-0.000313571 0.0199536 0.0
-0.000311776 0.0187628 0.0
-0.000310612 0.0175806 0.0
-0.000309339 0.0164059 0.0
-0.000307424 0.0152399 0.0
-0.000304499 0.0140853 0.0
-0.00030033 0.0129458 0.0
-0.000294786 0.0118259 0.0
-0.00028782 0.0107303 0.0
-0.000279444 0.00966392 0.0
-0.000269717 0.00863149 0.0
-0.000258721 0.00763761 0.0
-0.000246552 0.0066866 0.0
-0.000233305 0.00578249 0.0
-0.00021906 0.00492901 0.0
-0.000203879 0.0041297 0.0
-0.000187786 0.00338789 0.0
-0.000170768 0.00270688 0.0
-0.000152756 0.00208999 0.0
-0.00013362 0.00154072 0.0
-0.00011316 0.00106286 0.0
-9.11101e-05 0.000660528 0.0
-6.71724e-05 0.00033822 0.0
-4.11634e-05 0.000100451 0.0
-1.34491e-05 -4.91015e-05 0.0
1.39128e-05 -0.000109701 0.0
3.47962e-05 -9.1279e-05 0.0
3.24537e-05 -3.23032e-05 0.0
0.340815 0.122997 0.0
-0.000518807 0.249617 0.0
-0.0650641 0.271979 0.0
-0.0631215 0.252628 0.0
-0.0484624 0.222185 0.0
-0.0349956 0.192305 0.0
-0.0250342 0.166776 0.0
-0.0180864 0.146096 0.0
-0.0133022 0.129666 0.0
-0.00999346 0.116648 0.0
-0.00768291 0.106262 0.0
-0.00605442 0.0978661 0.0
-0.00489952 0.0909546 0.0
-0.00407876 0.0851402 0.0
-0.00349694 0.0801287 0.0
-0.00308751 0.0756978 0.0
-0.00280301 0.0716811 0.0
-0.00260887 0.0679544 0.0
-0.00247948 0.0644265 0.0
-0.00239566 0.0610313 0.0
-0.00234281 0.0577228 0.0
-0.00230982 0.0544701 0.0
-0.00228818 0.0512544 0.0
-0.00227145 0.0480659 0.0
-0.00225478 0.0449021 0.0
-0.00223463 0.0417656 0.0
-0.00220848 0.0386631 0.0
-0.00217469 0.0356036 0.0
-0.00213227 0.0325982 0.0
-0.00208076 0.0296585 0.0
-0.00202012 0.0267969 0.0
-0.00195056 0.0240253 0.0
-0.0018725 0.0213556 0.0
-0.00178645 0.0187989 0.0
-0.00169293 0.0163657 0.0
-0.00159243 0.0140658 0.0
-0.00148531 0.0119086 0.0
-0.00137179 0.00990292 0.0
-0.00125192 0.00805739 0.0
-0.00112554 0.00638054 0.0
-0.000992301 0.00488101 0.0
-0.000851741 0.00356754 0.0
-0.000703421 0.0024489 0.0
-0.000547318 0.0015334 0.0
-0.000384655 0.000827661 0.0
-0.000219759 0.000334338 0.0
-6.39183e-05 4.75603e-05 0.0
5.8082e-05 -5.6698e-05 0.0
9.08409e-05 -3.38716e-05 0.0
0.500959 0.0768454 0.0
0.0992753 0.183384 0.0
-0.0390864 0.249547 0.0
-0.0732106 0.266171 0.0
-0.0718231 0.257902 0.0
-0.0607146 0.240035 0.0
-0.0486661 0.219826 0.0
-0.0382838 0.200565 0.0
-0.0300386 0.183476 0.0
-0.0237213 0.16879 0.0
-0.0189658 0.156315 0.0
-0.0154224 0.145712 0.0
-0.0128026 0.13662 0.0
-0.0108808 0.128709 0.0
-0.00948455 0.121699 0.0
-0.00848249 0.11536 0.0
-0.00777458 0.109509 0.0
-0.00728424 0.104007 0.0
-0.00695251 0.0987455 0.0
-0.00673373 0.093646 0.0
-0.00659243 0.0886529 0.0
-0.00650104 0.0837291 0.0
-0.00643818 0.0788524 0.0
-0.00638742 0.0740123 0.0
-0.00633632 0.0692075 0.0
-0.00627569 0.0644434 0.0
-0.006199 0.0597307 0.0
-0.00610187 0.0550834 0.0
-0.00598166 0.0505178 0.0
-0.00583708 0.0460515 0.0
-0.0056679 0.0417025 0.0
-0.00547462 0.0374885 0.0
-0.00525824 0.033427 0.0
-0.00502002 0.0295344 0.0
-0.00476128 0.0258261 0.0
-0.00448325 0.022317 0.0
-0.00418694 0.0190207 0.0
-0.00387304 0.0159504 0.0
-0.00354187 0.0131186 0.0
-0.00319339 0.0105376 0.0
-0.00282731 0.00821949 0.0
-0.00244333 0.00617585 0.0
-0.00204167 0.00441777 0.0
-0.00162412 0.00295481 0.0
-0.00119589 0.00179347 0.0
-0.00076929 0.000934504 0.0
-0.00037011 0.000367666 0.0
-4.67398e-05 6.52652e-05 0.0
0.000107258 -1.227e-05 0.0
0.610233 0.0480888 0.0
0.196037 0.134105 0.0
0.01176 0.209681 0.0
-0.0578106 0.246788 0.0
-0.0760915 0.257286 0.0
-0.0740501 0.253678 0.0
-0.065092 0.243144 0.0
-0.0547937 0.229936 0.0
-0.0453076 0.216329 0.0
-0.0373122 0.203396 0.0
-0.0308761 0.191552 0.0
-0.0258392 0.180869 0.0
-0.0219761 0.171251 0.0
-0.0190631 0.162537 0.0
-0.0169024 0.15455 0.0
-0.0153277 0.147124 0.0
-0.0142029 0.140116 0.0
-0.0134179 0.133406 0.0
-0.0128842 0.126902 0.0
-0.012531 0.120534 0.0
-0.0123019 0.114254 0.0
-0.0121522 0.108028 0.0
-0.0120467 0.10184 0.0
-0.0119579 0.0956836 0.0
-0.0118649 0.0895624 0.0
-0.0117523 0.0834869 0.0
-0.0116089 0.0774727 0.0
-0.0114273 0.071539 0.0
-0.0112031 0.0657072 0.0
-0.0109341 0.06 0.0
-0.0106199 0.0544402 0.0
-0.0102615 0.0490503 0.0
-0.00986075 0.0438519 0.0
-0.00941978 0.0388657 0.0
-0.00894103 0.034111 0.0
-0.00842677 0.029606 0.0
-0.00787888 0.0253678 0.0
-0.0072988 0.0214125 0.0
-0.00668742 0.0177555 0.0
-0.00604517 0.0144113 0.0
-0.00537224 0.0113941 0.0
-0.00466913 0.00871711 0.0
-0.0039375 0.00639238 0.0
-0.00318191 0.00442983 0.0
-0.00241252 0.00283579 0.0
-0.00164994 0.00161086 0.0
-0.000933009 0.000744621 0.0
-0.000328527 0.000214292 0.0
4.54362e-05 1.48224e-05 0.0
0.6807 0.0301996 0.0
0.278919 0.0982939 0.0
0.0700396 0.171142 0.0
-0.0272928 0.217647 0.0
-0.0654282 0.240974 0.0
-0.0752799 0.249193 0.0
-0.072639 0.248226 0.0
-0.0652147 0.242183 0.0
-0.0566396 0.233657 0.0
-0.0485289 0.224162 0.0
-0.0415087 0.21452 0.0
-0.0357328 0.205137 0.0
-0.0311408 0.196168 0.0
-0.0275872 0.187637 0.0
-0.0249024 0.179499 0.0
-0.0229222 0.171681 0.0
-0.0214985 0.164104 0.0
-0.0205038 0.156697 0.0
-0.0198303 0.149398 0.0
-0.0193888 0.142163 0.0
-0.0191058 0.13496 0.0
-0.0189221 0.127772 0.0
-0.0187902 0.120592 0.0
-0.0186727 0.113423 0.0
-0.0185408 0.106278 0.0
-0.0183733 0.0991741 0.0
-0.0181548 0.0921331 0.0
-0.0178751 0.0851803 0.0
-0.0175283 0.0783422 0.0
-0.0171117 0.0716462 0.0
-0.016625 0.0651195 0.0
-0.0160701 0.0587885 0.0
-0.0154497 0.0526783 0.0
-0.0147675 0.0468127 0.0
-0.0140271 0.0412139 0.0
-0.0132322 0.0359026 0.0
-0.0123858 0.0308982 0.0
-0.0114904 0.0262186 0.0
-0.0105477 0.021881 0.0
-0.00955891 0.0179013 0.0
-0.00852519 0.0142946 0.0
-0.00744821 0.0110751 0.0
-0.00633151 0.00825533 0.0
-0.00518264 0.00584558 0.0
-0.0040164 0.00385299 0.0
-0.00286021 0.00228024 0.0
-0.00176201 0.00112063 0.0
-0.0007993 0.000361764 0.0
-9.97888e-05 4.05538e-05 0.0
0.730131 0.0192133 0.0
0.349491 0.0730928 0.0
0.128331 0.139317 0.0
0.0113097 0.188184 0.0
-0.0447068 0.219302 0.0
-0.0669812 0.236047 0.0
-0.0722 0.242965 0.0
-0.0694 0.243537 0.0
-0.0633387 0.240238 0.0
-0.056445 0.234703 0.0
-0.0498914 0.227956 0.0
-0.0441804 0.220607 0.0
-0.0394647 0.212999 0.0
-0.035722 0.205309 0.0
-0.0328498 0.197612 0.0
-0.0307152 0.189929 0.0
-0.0291812 0.182253 0.0
-0.0281189 0.174566 0.0
-0.0274134 0.16685 0.0
-0.026965 0.15909 0.0
-0.0266898 0.151282 0.0
-0.0265178 0.143426 0.0
-0.0263924 0.135533 0.0
-0.0262685 0.127618 0.0
-0.0261112 0.119704 0.0
-0.0258946 0.111818 0.0
-0.0256001 0.103988 0.0
-0.0252158 0.0962479 0.0
-0.0247348 0.0886284 0.0
-0.0241544 0.0811619 0.0
-0.0234754 0.0738795 0.0
-0.0227005 0.066811 0.0
-0.0218343 0.0599846 0.0
-0.020882 0.0534264 0.0
-0.019849 0.0471605 0.0
-0.0187405 0.0412095 0.0
-0.017561 0.0355938 0.0
-0.0163142 0.0303328 0.0
-0.0150032 0.0254441 0.0
-0.0136301 0.0209444 0.0
-0.0121971 0.0168494 0.0
-0.0107073 0.0131735 0.0
-0.009166 0.00992983 0.0
-0.00758334 0.0071296 0.0
-0.00597755 0.00478188 0.0
-0.00438029 0.00289342 0.0
-0.00284394 0.00146391 0.0
-0.00144912 0.000494051 0.0
-0.000321203 6.24706e-05 0.0
0.766142 0.0125955 0.0
0.408888 0.055678 0.0
0.1832 0.114405 0.0
0.0525881 0.162295 0.0
-0.0178825 0.197125 0.0
-0.0517758 0.219523 0.0
-0.0652673 0.232348 0.0
-0.0680091 0.238376 0.0
-0.0655103 0.239758 0.0
-0.0608311 0.23805 0.0
-0.0556148 0.234321 0.0
-0.0506935 0.22928 0.0
-0.0464402 0.22338 0.0
-0.0429747 0.216905 0.0
-0.0402821 0.210024 0.0
-0.0382808 0.202837 0.0
-0.0368611 0.195402 0.0
-0.0359066 0.187754 0.0
-0.0353055 0.179917 0.0
-0.0349563 0.17191 0.0
-0.0347703 0.163757 0.0
-0.034672 0.155479 0.0
-0.0345993 0.147106 0.0
-0.0345022 0.138668 0.0
-0.0343419 0.130201 0.0
-0.0340896 0.12174 0.0
-0.0337252 0.113325 0.0
-0.0332359 0.104993 0.0
-0.0326152 0.0967836 0.0
-0.0318614 0.0887323 0.0
-0.0309766 0.0808745 0.0
-0.0299656 0.0732431 0.0
-0.0288349 0.0658686 0.0
-0.027592 0.0587789 0.0
-0.0262445 0.0519996 0.0
-0.0247993 0.045554 0.0
-0.0232629 0.0394633 0.0
-0.0216405 0.0337471 0.0
-0.0199362 0.0284234 0.0
-0.0181537 0.0235088 0.0
-0.0162962 0.019019 0.0
-0.0143678 0.0149688 0.0
-0.0123753 0.0113718 0.0
-0.0103304 0.00824088 0.0
-0.00825292 0.00558789 0.0
-0.00617593 0.00342492 0.0
-0.00415167 0.0017595 0.0
-0.00225744 0.000605875 0.0
-0.000607815 8.00956e-05 0.0
0.793143 0.00859427 0.0
0.458841 0.0435319 0.0
0.23348 0.0951168 0.0
0.0939195 0.140519 0.0
0.0124947 0.176345 0.0
-0.0318529 0.202281 0.0
-0.0534129 0.219299 0.0
-0.0620396 0.229564 0.0
-0.0636969 0.234845 0.0
-0.0619017 0.236524 0.0
-0.0586732 0.235625 0.0
-0.055128 0.232874 0.0
-0.0518435 0.228778 0.0
-0.0490808 0.22368 0.0
-0.0469192 0.217816 0.0
-0.045338 0.211345 0.0
-0.0442648 0.204376 0.0
-0.0436047 0.19699 0.0
-0.0432572 0.18925 0.0
-0.0431255 0.181207 0.0
-0.0431217 0.172911 0.0
-0.0431693 0.164407 0.0
-0.0432042 0.155742 0.0
-0.0431745 0.146963 0.0
-0.0430401 0.138119 0.0
-0.0427712 0.129256 0.0
-0.0423479 0.120422 0.0
-0.0417581 0.111663 0.0
-0.0409968 0.103023 0.0
-0.0400644 0.0945429 0.0
-0.0389653 0.0862619 0.0
-0.0377072 0.0782155 0.0
-0.0362992 0.0704362 0.0
-0.0347516 0.0629533 0.0
-0.0330744 0.0557932 0.0
-0.0312772 0.0489794 0.0
-0.0293682 0.0425332 0.0
-0.0273545 0.036474 0.0
-0.0252418 0.0308192 0.0
-0.0230346 0.0255853 0.0
-0.0207372 0.0207878 0.0
-0.0183545 0.0164414 0.0
-0.0158938 0.0125607 0.0
-0.0133671 0.00916018 0.0
-0.010794 0.00625536 0.0
-0.008206 0.00386409 0.0
-0.00565133 0.00200205 0.0
-0.00319909 0.000696127 0.0
-0.00094765 9.36988e-05 0.0
0.81408 0.00613224 0.0
0.501158 0.0349126 0.0
0.279022 0.0801825 0.0
0.133865 0.122535 0.0
0.0439873 0.158033 0.0
-0.00899999 0.185669 0.0
-0.0380273 0.205526 0.0
-0.0525035 0.218927 0.0
-0.0585787 0.2273 0.0
-0.060069 0.231821 0.0
-0.0592761 0.233414 0.0
-0.0575479 0.232776 0.0
-0.0556388 0.23042 0.0
-0.0539393 0.226719 0.0
-0.05262 0.221946 0.0
-0.0517227 0.216299 0.0
-0.0512166 0.209927 0.0
-0.0510335 0.202946 0.0
-0.0510891 0.195451 0.0
-0.051296 0.187523 0.0
-0.0515714 0.179233 0.0
-0.0518415 0.170651 0.0
-0.0520434 0.16184 0.0
-0.052126 0.152864 0.0
-0.05205 0.143783 0.0
-0.051787 0.134656 0.0
-0.0513189 0.12554 0.0
-0.0506361 0.116487 0.0
-0.0497363 0.107548 0.0
-0.0486231 0.0987691 0.0
-0.0473046 0.0901922 0.0
-0.0457918 0.0818557 0.0
-0.0440976 0.0737934 0.0
-0.0422355 0.0660358 0.0
-0.0402188 0.0586093 0.0
-0.0380595 0.0515375 0.0
-0.0357686 0.044841 0.0
-0.0333547 0.0385384 0.0
-0.030825 0.0326464 0.0
-0.0281852 0.0271808 0.0
-0.0254401 0.0221564 0.0
-0.0225949 0.0175881 0.0
-0.0196563 0.0134913 0.0
-0.0166354 0.00988246 0.0
-0.0135496 0.0067805 0.0
-0.0104262 0.00420906 0.0
-0.00730643 0.00219149 0.0
-0.00424765 0.000765656 0.0
-0.0013291 0.00010378 0.0
0.830837 0.00457729 0.0
0.537367 0.0286642 0.0
0.320137 0.0685159 0.0
0.171833 0.1077 0.0
0.0755976 0.142124 0.0
0.0156327 0.170242 0.0
-0.0201953 0.191912 0.0
-0.0402857 0.207563 0.0
-0.0508226 0.218311 0.0
-0.0558022 0.225132 0.0
-0.0577284 0.228833 0.0
-0.0581289 0.230054 0.0
-0.0579046 0.229289 0.0
-0.0575578 0.226915 0.0
-0.0573423 0.22322 0.0
-0.057359 0.218426 0.0
-0.0576188 0.212709 0.0
-0.0580816 0.206211 0.0
-0.0586818 0.199052 0.0
-0.0593443 0.191336 0.0
-0.0599943 0.183158 0.0
-0.0605632 0.174603 0.0
-0.0609919 0.165755 0.0
-0.0612324 0.156689 0.0
-0.0612486 0.147481 0.0
-0.0610153 0.138199 0.0
-0.0605178 0.128908 0.0
-0.0597505 0.11967 0.0
-0.0587155 0.11054 0.0
-0.0574209 0.10157 0.0
-0.0558793 0.0928033 0.0
-0.0541065 0.0842817 0.0
-0.0521196 0.0760402 0.0
-0.0499361 0.0681096 0.0
-0.0475731 0.0605161 0.0
-0.0450458 0.0532827 0.0
-0.0423676 0.046429 0.0
-0.0395493 0.0399723 0.0
-0.0365995 0.0339283 0.0
-0.0335247 0.0283114 0.0
-0.0303298 0.0231358 0.0
-0.0270195 0.0184163 0.0
-0.0235993 0.0141687 0.0
-0.0200776 0.0104114 0.0
-0.0164681 0.00716654 0.0
-0.0127918 0.00446289 0.0
-0.00908038 0.00233046 0.0
-0.00537741 0.000816145 0.0
-0.00174153 0.000110868 0.0
0.844614 0.00356292 0.0
0.568674 0.0240318 0.0
0.357263 0.0593031 0.0
0.207556 0.0954417 0.0
0.106578 0.128425 0.0
0.0408136 0.156398 0.0
-0.00076667 0.178919 0.0
-0.0261148 0.196133 0.0
-0.0410215 0.208649 0.0
-0.0495578 0.217278 0.0
-0.0543622 0.222709 0.0
-0.0570981 0.225512 0.0
-0.0587827 0.226146 0.0
-0.060012 0.224976 0.0
-0.0611115 0.222291 0.0
-0.0622353 0.218324 0.0
-0.0634329 0.213267 0.0
-0.0646916 0.207281 0.0
-0.065965 0.200503 0.0
-0.0671913 0.193057 0.0
-0.0683053 0.185054 0.0
-0.0692454 0.176599 0.0
-0.0699582 0.167789 0.0
-0.0704007 0.158713 0.0
-0.0705415 0.149459 0.0
-0.0703605 0.140105 0.0
-0.0698483 0.130726 0.0
-0.0690047 0.121389 0.0
-0.0678376 0.112156 0.0
-0.0663609 0.103082 0.0
-0.0645931 0.0942155 0.0
-0.0625553 0.0855981 0.0
-0.0602702 0.0772663 0.0
-0.0577601 0.0692508 0.0
-0.055046 0.0615773 0.0
-0.052147 0.0542677 0.0
-0.0490792 0.0473401 0.0
-0.0458556 0.0408103 0.0
-0.0424861 0.034692 0.0
-0.0389777 0.0289985 0.0
-0.0353352 0.0237427 0.0
-0.0315619 0.0189389 0.0
-0.027661 0.0146032 0.0
-0.0236374 0.0107554 0.0
-0.0194989 0.00742033 0.0
-0.015259 0.00463095 0.0
-0.010938 0.00242272 0.0
-0.00656425 0.000849501 0.0
-0.0021754 0.000115436 0.0
0.856202 0.00287553 0.0
0.596029 0.0205153 0.0
0.390874 0.0519276 0.0
0.241017 0.085237 0.0
0.136587 0.116607 0.0
0.0660797 0.144033 0.0
0.019558 0.166816 0.0
-0.0105933 0.185003 0.0
-0.0296857 0.198797 0.0
-0.0417507 0.208808 0.0
-0.0495014 0.21562 0.0
-0.0546972 0.219732 0.0
-0.0584451 0.22156 0.0
-0.0614163 0.221445 0.0
-0.0639959 0.21967 0.0
-0.066384 0.216469 0.0
-0.0686638 0.212041 0.0
-0.0708476 0.206557 0.0
-0.0729071 0.20017 0.0
-0.0747938 0.193017 0.0
-0.0764526 0.185226 0.0
-0.0778297 0.176913 0.0
-0.0788788 0.16819 0.0
-0.0795632 0.15916 0.0
-0.0798578 0.149919 0.0
-0.0797492 0.140557 0.0
-0.0792345 0.131156 0.0
-0.0783208 0.12179 0.0
-0.0770231 0.112526 0.0
-0.0753623 0.103422 0.0
-0.0733641 0.0945303 0.0
-0.0710562 0.0858936 0.0
-0.0684673 0.0775487 0.0
-0.0656255 0.0695258 0.0
-0.0625565 0.0618498 0.0
-0.0592833 0.0545407 0.0
-0.0558253 0.0476148 0.0
-0.0521976 0.0410858 0.0
-0.0484114 0.0349654 0.0
-0.044474 0.0292648 0.0
-0.0403894 0.0239957 0.0
-0.0361589 0.0191712 0.0
-0.0317825 0.0148074 0.0
-0.0272603 0.0109248 0.0
-0.0225935 0.00755005 0.0
-0.0177861 0.00471935 0.0
-0.0128461 0.0024722 0.0
-0.00778595 0.000867537 0.0
-0.00262231 0.000117876 0.0
0.866134 0.00239044 0.0
0.620165 0.0177832 0.0
0.42141 0.045938 0.0
0.27229 0.0766682 0.0
0.165413 0.106381 0.0
0.0910217 0.13302 0.0
0.0402022 0.155715 0.0
0.00586268 0.174333 0.0
-0.0172198 0.189026 0.0
-0.0327363 0.200066 0.0
-0.0434413 0.207956 0.0
-0.0511618 0.213124 0.0
-0.0570727 0.215943 0.0
-0.0619043 0.216727 0.0
-0.0660896 0.215744 0.0
-0.0698664 0.213224 0.0
-0.0733466 0.209368 0.0
-0.0765637 0.204353 0.0
-0.0795057 0.198341 0.0
-0.0821364 0.191481 0.0
-0.0844101 0.183911 0.0
-0.0862818 0.175762 0.0
-0.0877124 0.167156 0.0
-0.0886728 0.158207 0.0
-0.0891455 0.149022 0.0
-0.0891249 0.139699 0.0
-0.0886165 0.130327 0.0
-0.0876357 0.120988 0.0
-0.086206 0.111752 0.0
-0.0843569 0.102682 0.0
-0.0821222 0.0938296 0.0
-0.0795374 0.0852406 0.0
-0.0766384 0.0769511 0.0
-0.0734593 0.0689905 0.0
-0.0700314 0.061382 0.0
-0.0663822 0.0541434 0.0
-0.0625343 0.0472889 0.0
-0.0585051 0.0408294 0.0
-0.0543071 0.0347743 0.0
-0.0499474 0.0291324 0.0
-0.0454288 0.0239133 0.0
-0.0407501 0.0191288 0.0
-0.0359073 0.0147941 0.0
-0.0308945 0.0109299 0.0
-0.0257053 0.00756382 0.0
-0.0203335 0.00473395 0.0
-0.0147738 0.00248253 0.0
-0.00902217 0.000871805 0.0
-0.00307475 0.000118492 0.0
0.87478 0.00203393 0.0
0.641649 0.0156123 0.0
0.449262 0.0410015 0.0
0.301504 0.0693994 0.0
0.192969 0.0974773 0.0
0.115413 0.12319 0.0
0.0608621 0.145558 0.0
0.0227385 0.164302 0.0
-0.00398076 0.179498 0.0
-0.0228229 0.191275 0.0
-0.0364463 0.199972 0.0
-0.0467126 0.205966 0.0
-0.0548446 0.209583 0.0
-0.061617 0.211109 0.0
-0.0675004 0.210793 0.0
-0.072762 0.208857 0.0
-0.0775368 0.2055 0.0
-0.0818757 0.200902 0.0
-0.0857801 0.195231 0.0
-0.0892244 0.188644 0.0
-0.092172 0.18129 0.0
-0.0945859 0.173308 0.0
-0.0964349 0.164833 0.0
-0.0976983 0.155987 0.0
-0.0983671 0.146886 0.0
-0.0984448 0.137638 0.0
-0.0979463 0.128338 0.0
-0.096897 0.119071 0.0
-0.0953302 0.109914 0.0
-0.0932854 0.100931 0.0
-0.0908056 0.0921769 0.0
-0.0879351 0.0836959 0.0
-0.0847178 0.0755242 0.0
-0.081195 0.0676897 0.0
-0.0774038 0.0602134 0.0
-0.0733765 0.0531108 0.0
-0.0691394 0.0463929 0.0
-0.0647123 0.0400678 0.0
-0.0601085 0.0341418 0.0
-0.0553351 0.0286209 0.0
-0.050393 0.0235123 0.0
-0.0452779 0.0188257 0.0
-0.0399812 0.0145751 0.0
-0.0344904 0.0107802 0.0
-0.0287904 0.00746888 0.0
-0.022864 0.00467981 0.0
-0.0166921 0.00245671 0.0
-0.0102542 0.000863532 0.0
-0.00352601 0.000117502 0.0
0.8824 0.00176145 0.0
0.660922 0.0138494 0.0
0.474762 0.0368703 0.0
0.328801 0.0631621 0.0
0.219228 0.0896605 0.0
0.139102 0.114367 0.0
0.0813133 0.136238 0.0
0.0397855 0.154886 0.0
0.00976397 0.170277 0.0
-0.0122673 0.182542 0.0
-0.0287489 0.191818 0.0
-0.0415516 0.198432 0.0
-0.0519316 0.202669 0.0
-0.0606959 0.204783 0.0
-0.0683425 0.205008 0.0
-0.0751609 0.203553 0.0
-0.0813032 0.200612 0.0
-0.0868339 0.196367 0.0
-0.0917646 0.19099 0.0
-0.0960785 0.184644 0.0
-0.0997467 0.177486 0.0
-0.10274 0.169665 0.0
-0.105035 0.161322 0.0
-0.10662 0.152591 0.0
-0.107495 0.143596 0.0
-0.107675 0.13445 0.0
-0.107184 0.125255 0.0
-0.10606 0.116101 0.0
-0.104347 0.107068 0.0
-0.102095 0.0982225 0.0
-0.099358 0.0896189 0.0
-0.0961905 0.081302 0.0
-0.092645 0.0733066 0.0
-0.0887704 0.0656583 0.0
-0.0846106 0.0583757 0.0
-0.0802029 0.051471 0.0
-0.0755774 0.0449519 0.0
-0.0707563 0.038823 0.0
-0.065754 0.0330872 0.0
-0.0605769 0.0277472 0.0
-0.0552239 0.0228072 0.0
-0.0496872 0.0182744 0.0
-0.0439526 0.0141605 0.0
-0.0380006 0.0104838 0.0
-0.0318067 0.00727123 0.0
-0.0253423 0.00456103 0.0
-0.0185741 0.00239707 0.0
-0.0114647 0.000843617 0.0
-0.00396993 0.000115047 0.0
0.889182 0.00154536 0.0
0.678324 0.0123871 0.0
0.498189 0.0333581 0.0
0.354323 0.0577425 0.0
0.244194 0.0827295 0.0
0.161991 0.106389 0.0
0.101385 0.127645 0.0
0.0567803 0.146034 0.0
0.0236853 0.161431 0.0
-0.00129675 0.173914 0.0
-0.0205545 0.183575 0.0
-0.0358626 0.190621 0.0
-0.0484946 0.19531 0.0
-0.0592788 0.197868 0.0
-0.0687319 0.198507 0.0
-0.0771587 0.197427 0.0
-0.084723 0.194815 0.0
-0.0914985 0.190853 0.0
-0.0975041 0.185715 0.0
-0.10273 0.17957 0.0
-0.107153 0.17258 0.0
-0.110751 0.164903 0.0
-0.11351 0.156689 0.0
-0.115426 0.148079 0.0
-0.11651 0.139203 0.0
-0.116787 0.130182 0.0
-0.116296 0.121123 0.0
-0.115084 0.112119 0.0
-0.11321 0.103252 0.0
-0.110736 0.0945904 0.0
-0.107727 0.0861884 0.0
-0.104248 0.0780897 0.0
-0.100362 0.0703268 0.0
-0.0961261 0.062923 0.0
-0.0915913 0.0558934 0.0
-0.0868004 0.0492466 0.0
-0.0817874 0.0429865 0.0
-0.076577 0.0371137 0.0
-0.0711843 0.0316271 0.0
-0.065615 0.0265258 0.0
-0.0598657 0.0218105 0.0
-0.0539246 0.017485 0.0
-0.0477716 0.0135587 0.0
-0.0413795 0.0100472 0.0
-0.0347142 0.00697562 0.0
-0.0277349 0.00438071 0.0
-0.020394 0.00230531 0.0
-0.0126372 0.00081266 0.0
-0.00440073 0.000111205 0.0
0.895262 0.00136792 0.0
0.69412 0.0111482 0.0
0.519774 0.0303224 0.0
0.378197 0.0529679 0.0
0.267891 0.076511 0.0
0.184017 0.0991026 0.0
0.120959 0.119656 0.0
0.0735715 0.13765 0.0
0.0376319 0.152896 0.0
0.00988733 0.165399 0.0
-0.0120453 0.175261 0.0
-0.0298135 0.182571 0.0
-0.0446848 0.187558 0.0
-0.0574992 0.190421 0.0
-0.0687842 0.191352 0.0
-0.0788535 0.19054 0.0
-0.0878776 0.188167 0.0
-0.0959352 0.184413 0.0
-0.10305 0.179454 0.0
-0.109215 0.173462 0.0
-0.114415 0.166609 0.0
-0.118632 0.159056 0.0
-0.121861 0.150963 0.0
-0.124107 0.142476 0.0
-0.125393 0.133733 0.0
-0.125757 0.124859 0.0
-0.125248 0.115964 0.0
-0.123931 0.107147 0.0