# vtk DataFile Version 3.0
Malha 2D com triângulos e temperatura
ASCII
DATASET UNSTRUCTURED_GRID

POINTS 2500 double
0 0 0
1 0 0
1 1 0
0 1 0
0.0204082 0 0
0.0408163 0 0
0.0612245 0 0
0.0816327 0 0
0.102041 0 0
0.122449 0 0
0.142857 0 0
0.163265 0 0
0.183673 0 0
0.204082 0 0
0.22449 0 0
0.244898 0 0
0.265306 0 0
0.285714 0 0
0.306122 0 0
0.326531 0 0
0.346939 0 0
0.367347 0 0
0.387755 0 0
0.408163 0 0
0.428571 0 0
0.44898 0 0
0.469388 0 0
0.489796 0 0
0.510204 0 0
0.530612 0 0
0.55102 0 0
0.571429 0 0
0.591837 0 0
0.612245 0 0
0.632653 0 0
0.653061 0 0
0.673469 0 0
0.693878 0 0
0.714286 0 0
0.734694 0 0
0.755102 0 0
0.77551 0 0
0.795918 0 0
0.816327 0 0
0.836735 0 0
0.857143 0 0
0.877551 0 0
0.897959 0 0
0.918367 0 0
0.938776 0 0
0.959184 0 0
0.979592 0 0
1 0.0204082 0
1 0.0408163 0
1 0.0612245 0
1 0.0816327 0
1 0.102041 0
1 0.122449 0
1 0.142857 0
1 0.163265 0
1 0.183673 0
1 0.204082 0
1 0.22449 0
1 0.244898 0
1 0.265306 0
1 0.285714 0
1 0.306122 0
1 0.326531 0
1 0.346939 0
1 0.367347 0
1 0.387755 0
1 0.408163 0
1 0.428571 0
1 0.44898 0
1 0.469388 0
1 0.489796 0
1 0.510204 0
1 0.530612 0
1 0.55102 0
1 0.571429 0
1 0.591837 0
1 0.612245 0
1 0.632653 0
1 0.653061 0
1 0.673469 0
1 0.693878 0
1 0.714286 0
1 0.734694 0
1 0.755102 0
1 0.77551 0
1 0.795918 0
1 0.816327 0
1 0.836735 0
1 0.857143 0
1 0.877551 0
1 0.897959 0
1 0.918367 0
1 0.938776 0
1 0.959184 0
1 0.979592 0
0.979592 1 0
0.959184 1 0
0.938776 1 0
0.918367 1 0
0.897959 1 0
0.877551 1 0
0.857143 1 0
0.836735 1 0
0.816327 1 0
0.795918 1 0
0.77551 1 0
0.755102 1 0
0.734694 1 0
0.714286 1 0
0.693878 1 0
0.673469 1 0
0.653061 1 0
0.632653 1 0
0.612245 1 0
0.591837 1 0
0.571429 1 0
0.55102 1 0
0.530612 1 0
0.510204 1 0
0.489796 1 0
0.469388 1 0
0.44898 1 0
0.428571 1 0
0.408163 1 0
0.387755 1 0
0.367347 1 0
0.346939 1 0
0.326531 1 0
0.306122 1 0
0.285714 1 0
0.265306 1 0
0.244898 1 0
0.22449 1 0
0.204082 1 0
0.183673 1 0
0.163265 1 0
0.142857 1 0
0.122449 1 0
0.102041 1 0
0.0816327 1 0
0.0612245 1 0
0.0408163 1 0
0.0204082 1 0
0 0.979592 0
0 0.959184 0
0 0.938776 0
0 0.918367 0
0 0.897959 0
0 0.877551 0
0 0.857143 0
0 0.836735 0
0 0.816327 0
0 0.795918 0
0 0.77551 0
0 0.755102 0
0 0.734694 0
0 0.714286 0
0 0.693878 0
0 0.673469 0
0 0.653061 0
0 0.632653 0
0 0.612245 0
0 0.591837 0
0 0.571429 0
0 0.55102 0
0 0.530612 0
0 0.510204 0
0 0.489796 0
0 0.469388 0
0 0.44898 0
0 0.428571 0
0 0.408163 0
0 0.387755 0
0 0.367347 0
0 0.346939 0
0 0.326531 0
0 0.306122 0
0 0.285714 0
0 0.265306 0
0 0.244898 0
0 0.22449 0
0 0.204082 0
0 0.183673 0
0 0.163265 0
0 0.142857 0
0 0.122449 0
0 0.102041 0
0 0.0816327 0
0 0.0612245 0
0 0.0408163 0
0 0.0204082 0
0.0204082 0.979592 0
0.0204082 0.959184 0
0.0204082 0.938776 0
0.0204082 0.918367 0
0.0204082 0.897959 0
0.0204082 0.877551 0
0.0204082 0.857143 0
0.0204082 0.836735 0
0.0204082 0.816327 0
0.0204082 0.795918 0
0.0204082 0.77551 0
0.0204082 0.755102 0
0.0204082 0.734694 0
0.0204082 0.714286 0
0.0204082 0.693878 0
0.0204082 0.673469 0
0.0204082 0.653061 0
0.0204082 0.632653 0
0.0204082 0.612245 0
0.0204082 0.591837 0
0.0204082 0.571429 0
0.0204082 0.55102 0
0.0204082 0.530612 0
0.0204082 0.510204 0
0.0204082 0.489796 0
0.0204082 0.469388 0
0.0204082 0.44898 0
0.0204082 0.428571 0
0.0204082 0.408163 0
0.0204082 0.387755 0
0.0204082 0.367347 0
0.0204082 0.346939 0
0.0204082 0.326531 0
0.0204082 0.306122 0
0.0204082 0.285714 0
0.0204082 0.265306 0
0.0204082 0.244898 0
0.0204082 0.22449 0
0.0204082 0.204082 0
0.0204082 0.183673 0
0.0204082 0.163265 0
0.0204082 0.142857 0
0.0204082 0.122449 0
0.0204082 0.102041 0
0.0204082 0.0816327 0
0.0204082 0.0612245 0
0.0204082 0.0408163 0
0.0204082 0.0204082 0
0.0408163 0.979592 0
0.0408163 0.959184 0
0.0408163 0.938776 0
0.0408163 0.918367 0
0.0408163 0.897959 0
0.0408163 0.877551 0
0.0408163 0.857143 0
0.0408163 0.836735 0
0.0408163 0.816327 0
0.0408163 0.795918 0
0.0408163 0.77551 0
0.0408163 0.755102 0
0.0408163 0.734694 0
0.0408163 0.714286 0
0.0408163 0.693878 0
0.0408163 0.673469 0
0.0408163 0.653061 0
0.0408163 0.632653 0
0.0408163 0.612245 0
0.0408163 0.591837 0
0.0408163 0.571429 0
0.0408163 0.55102 0
0.0408163 0.530612 0
0.0408163 0.510204 0
0.0408163 0.489796 0
0.0408163 0.469388 0
0.0408163 0.44898 0
0.0408163 0.428571 0
0.0408163 0.408163 0
0.0408163 0.387755 0
0.0408163 0.367347 0
0.0408163 0.346939 0
0.0408163 0.326531 0
0.0408163 0.306122 0
0.0408163 0.285714 0
0.0408163 0.265306 0
0.0408163 0.244898 0
0.0408163 0.22449 0
0.0408163 0.204082 0
0.0408163 0.183673 0
0.0408163 0.163265 0
0.0408163 0.142857 0
0.0408163 0.122449 0
0.0408163 0.102041 0
0.0408163 0.0816327 0
0.0408163 0.0612245 0
0.0408163 0.0408163 0
0.0408163 0.0204082 0
0.0612245 0.979592 0
0.0612245 0.959184 0
0.0612245 0.938776 0
0.0612245 0.918367 0
0.0612245 0.897959 0
0.0612245 0.877551 0
0.0612245 0.857143 0
0.0612245 0.836735 0
0.0612245 0.816327 0
0.0612245 0.795918 0
0.0612245 0.77551 0
0.0612245 0.755102 0
0.0612245 0.734694 0
0.0612245 0.714286 0
0.0612245 0.693878 0
0.0612245 0.673469 0
0.0612245 0.653061 0
0.0612245 0.632653 0
0.0612245 0.612245 0
0.0612245 0.591837 0
0.0612245 0.571429 0
0.0612245 0.55102 0
0.0612245 0.530612 0
0.0612245 0.510204 0
0.0612245 0.489796 0
0.0612245 0.469388 0
0.0612245 0.44898 0
0.0612245 0.428571 0
0.0612245 0.408163 0
0.0612245 0.387755 0
0.0612245 0.367347 0
0.0612245 0.346939 0
0.0612245 0.326531 0
0.0612245 0.306122 0
0.0612245 0.285714 0
0.0612245 0.265306 0
0.0612245 0.244898 0
0.0612245 0.22449 0
0.0612245 0.204082 0
0.0612245 0.183673 0
0.0612245 0.163265 0
0.0612245 0.142857 0
0.0612245 0.122449 0
0.0612245 0.102041 0
0.0612245 0.0816327 0
0.0612245 0.0612245 0
0.0612245 0.0408163 0
0.0612245 0.0204082 0
0.0816327 0.979592 0
0.0816327 0.959184 0
0.0816327 0.938776 0
0.0816327 0.918367 0
0.0816327 0.897959 0
0.0816327 0.877551 0
0.0816327 0.857143 0
0.0816327 0.836735 0
0.0816327 0.816327 0
0.0816327 0.795918 0
0.0816327 0.77551 0
0.0816327 0.755102 0
0.0816327 0.734694 0
0.0816327 0.714286 0
0.0816327 0.693878 0
0.0816327 0.673469 0
0.0816327 0.653061 0
0.0816327 0.632653 0
0.0816327 0.612245 0
0.0816327 0.591837 0
0.0816327 0.571429 0
0.0816327 0.55102 0
0.0816327 0.530612 0
0.0816327 0.510204 0
0.0816327 0.489796 0
0.0816327 0.469388 0
0.0816327 0.44898 0
0.0816327 0.428571 0
0.0816327 0.408163 0
0.0816327 0.387755 0
0.0816327 0.367347 0
0.0816327 0.346939 0
0.0816327 0.326531 0
0.0816327 0.306122 0
0.0816327 0.285714 0
0.0816327 0.265306 0
0.0816327 0.244898 0
0.0816327 0.22449 0
0.0816327 0.204082 0
0.0816327 0.183673 0
0.0816327 0.163265 0
0.0816327 0.142857 0
0.0816327 0.122449 0
0.0816327 0.102041 0
0.0816327 0.0816327 0
0.0816327 0.0612245 0
0.0816327 0.0408163 0
0.0816327 0.0204082 0
0.102041 0.979592 0
0.102041 0.959184 0
0.102041 0.938776 0
0.102041 0.918367 0
0.102041 0.897959 0
0.102041 0.877551 0
0.102041 0.857143 0
0.102041 0.836735 0
0.102041 0.816327 0
0.102041 0.795918 0
0.102041 0.77551 0
0.102041 0.755102 0
0.102041 0.734694 0
0.102041 0.714286 0
0.102041 0.693878 0
0.102041 0.673469 0
0.102041 0.653061 0
0.102041 0.632653 0
0.102041 0.612245 0
0.102041 0.591837 0
0.102041 0.571429 0
0.102041 0.55102 0
0.102041 0.530612 0
0.102041 0.510204 0
0.102041 0.489796 0
0.102041 0.469388 0
0.102041 0.44898 0
0.102041 0.428571 0
0.102041 0.408163 0
0.102041 0.387755 0
0.102041 0.367347 0
0.102041 0.346939 0
0.102041 0.326531 0
0.102041 0.306122 0
0.102041 0.285714 0
0.102041 0.265306 0
0.102041 0.244898 0
0.102041 0.22449 0
0.102041 0.204082 0
0.102041 0.183673 0
0.102041 0.163265 0
0.102041 0.142857 0
0.102041 0.122449 0
0.102041 0.102041 0
0.102041 0.0816327 0
0.102041 0.0612245 0
0.102041 0.0408163 0
0.102041 0.0204082 0
0.122449 0.979592 0
0.122449 0.959184 0
0.122449 0.938776 0
0.122449 0.918367 0
0.122449 0.897959 0
0.122449 0.877551 0
0.122449 0.857143 0
0.122449 0.836735 0
0.122449 0.816327 0
0.122449 0.795918 0
0.122449 0.77551 0
0.122449 0.755102 0
0.122449 0.734694 0
0.122449 0.714286 0
0.122449 0.693878 0
0.122449 0.673469 0
0.122449 0.653061 0
0.122449 0.632653 0
0.122449 0.612245 0
0.122449 0.591837 0
0.122449 0.571429 0
0.122449 0.55102 0
0.122449 0.530612 0
0.122449 0.510204 0
0.122449 0.489796 0
0.122449 0.469388 0
0.122449 0.44898 0
0.122449 0.428571 0
0.122449 0.408163 0
0.122449 0.387755 0
0.122449 0.367347 0
0.122449 0.346939 0
0.122449 0.326531 0
0.122449 0.306122 0
0.122449 0.285714 0
0.122449 0.265306 0
0.122449 0.244898 0
0.122449 0.22449 0
0.122449 0.204082 0
0.122449 0.183673 0
0.122449 0.163265 0
0.122449 0.142857 0
0.122449 0.122449 0
0.122449 0.102041 0
0.122449 0.0816327 0
0.122449 0.0612245 0
0.122449 0.0408163 0
0.122449 0.0204082 0
0.142857 0.979592 0
0.142857 0.959184 0
0.142857 0.938776 0
0.142857 0.918367 0
0.142857 0.897959 0
0.142857 0.877551 0
0.142857 0.857143 0
0.142857 0.836735 0
0.142857 0.816327 0
0.142857 0.795918 0
0.142857 0.77551 0
0.142857 0.755102 0
0.142857 0.734694 0
0.142857 0.714286 0
0.142857 0.693878 0
0.142857 0.673469 0
0.142857 0.653061 0
0.142857 0.632653 0
0.142857 0.612245 0
0.142857 0.591837 0
0.142857 0.571429 0
0.142857 0.55102 0
0.142857 0.530612 0
0.142857 0.510204 0
0.142857 0.489796 0
0.142857 0.469388 0
0.142857 0.44898 0
0.142857 0.428571 0
0.142857 0.408163 0
0.142857 0.387755 0
0.142857 0.367347 0
0.142857 0.346939 0
0.142857 0.326531 0
0.142857 0.306122 0
0.142857 0.285714 0
0.142857 0.265306 0
0.142857 0.244898 0
0.142857 0.22449 0
0.142857 0.204082 0
0.142857 0.183673 0
0.142857 0.163265 0
0.142857 0.142857 0
0.142857 0.122449 0
0.142857 0.102041 0
0.142857 0.0816327 0
0.142857 0.0612245 0
0.142857 0.0408163 0
0.142857 0.0204082 0
0.163265 0.979592 0
0.163265 0.959184 0
0.163265 0.938776 0
0.163265 0.918367 0
0.163265 0.897959 0
0.163265 0.877551 0
0.163265 0.857143 0
0.163265 0.836735 0
0.163265 0.816327 0
0.163265 0.795918 0
0.163265 0.77551 0
0.163265 0.755102 0
0.163265 0.734694 0
0.163265 0.714286 0
0.163265 0.693878 0
0.163265 0.673469 0
0.163265 0.653061 0
0.163265 0.632653 0
0.163265 0.612245 0
0.163265 0.591837 0
0.163265 0.571429 0
0.163265 0.55102 0
[...]
CELL_DATA 2401
VECTORS velocity double
0.257583 0.157301 0.0
-0.00256215 0.264539 0.0
-0.0321545 0.205794 0.0
-0.0252535 0.151175 0.0
-0.0159769 0.113864 0.0
-0.00967135 0.088618 0.0
-0.00594732 0.0715129 0.0
-0.00380637 0.0596495 0.0
-0.00255696 0.0511412 0.0
-0.00180289 0.0448297 0.0
-0.00132928 0.0399961 0.0
-0.00102031 0.0361818 0.0
-0.000812208 0.0330856 0.0
-0.000668507 0.0305036 0.0
-0.000567391 0.0282945 0.0
-0.000495205 0.0263589 0.0
-0.00044304 0.0246253 0.0
-0.00040488 0.0230427 0.0
-0.000376544 0.0215741 0.0
-0.00035507 0.0201932 0.0
-0.000338321 0.0188813 0.0
-0.000324752 0.0176253 0.0
-0.000313236 0.0164166 0.0
-0.000302964 0.0152495 0.0
-0.000293358 0.0141206 0.0
-0.000284019 0.0130282 0.0
-0.000274681 0.0119717 0.0
-0.000265179 0.0109512 0.0
-0.00025542 0.00996729 0.0
-0.000245365 0.00902091 0.0
-0.000235005 0.008113 0.0
-0.000224352 0.00724458 0.0
-0.000213423 0.00641665 0.0
-0.000202232 0.00563016 0.0
-0.000190779 0.00488611 0.0
-0.000179047 0.0041855 0.0
-0.000166992 0.00352946 0.0
-0.000154537 0.00291933 0.0
-0.000141569 0.0023567 0.0
-0.000127927 0.0018436 0.0
-0.000113397 0.00138253 0.0
-9.77012e-05 0.000976597 0.0
-8.04984e-05 0.000629616 0.0
-6.14065e-05 0.000346067 0.0
-4.01101e-05 0.000130904 0.0
-1.67161e-05 -1.11354e-05 0.0
7.27845e-06 -7.73085e-05 0.0
2.69368e-05 -7.32702e-05 0.0
2.77351e-05 -2.76238e-05 0.0
0.340873 0.123035 0.0
-0.000310187 0.249825 0.0
-0.0647752 0.272467 0.0
-0.0628356 0.253393 0.0
-0.0482619 0.223153 0.0
-0.0349318 0.193346 0.0
-0.0251236 0.167725 0.0
-0.0183196 0.146785 0.0
-0.0136551 0.129942 0.0
-0.010436 0.116388 0.0
-0.00818432 0.105378 0.0
-0.00658641 0.0963031 0.0
-0.0054376 0.0886902 0.0
-0.00460256 0.0821799 0.0
-0.00398999 0.0765018 0.0
-0.00353694 0.071453 0.0
-0.00319902 0.0668821 0.0
-0.00294441 0.0626764 0.0
-0.00274993 0.0587526 0.0
-0.00259848 0.0550497 0.0
-0.0024774 0.051524 0.0
-0.00237724 0.0481443 0.0
-0.00229102 0.0448895 0.0
-0.00221358 0.0417457 0.0
-0.00214117 0.0387046 0.0
-0.00207114 0.0357617 0.0
-0.00200168 0.0329152 0.0
-0.00193161 0.0301655 0.0
-0.0018602 0.0275138 0.0
-0.00178707 0.0249624 0.0
-0.00171207 0.0225137 0.0
-0.00163516 0.0201703 0.0
-0.00155635 0.0179348 0.0
-0.00147566 0.01581 0.0
-0.00139303 0.0137985 0.0
-0.00130831 0.0119031 0.0
-0.00122119 0.010127 0.0
-0.00113123 0.00847369 0.0
-0.0010378 0.00694746 0.0
-0.00094007 0.00555335 0.0
-0.000837067 0.00429739 0.0
-0.00072768 0.00318666 0.0
-0.000610804 0.00222918 0.0
-0.000485648 0.00143353 0.0
-0.000352411 0.000807862 0.0
-0.000213854 0.000357949 0.0
-7.8644e-05 8.31129e-05 0.0
3.29106e-05 -3.18511e-05 0.0
7.29545e-05 -2.6251e-05 0.0
0.501158 0.0769057 0.0
0.0997546 0.183671 0.0
-0.038498 0.250148 0.0
-0.0726837 0.267034 0.0
-0.0715102 0.258901 0.0
-0.0607147 0.240996 0.0
-0.0490146 0.220545 0.0
-0.0389644 0.200835 0.0
-0.0310017 0.18311 0.0
-0.0249005 0.167634 0.0
-0.0202902 0.154258 0.0
-0.0168239 0.142685 0.0
-0.01422 0.132595 0.0
-0.0122619 0.123696 0.0
-0.010786 0.11574 0.0
-0.00966966 0.108525 0.0
-0.00882078 0.10189 0.0
-0.00816999 0.0957104 0.0
-0.00766477 0.0898914 0.0
-0.00726525 0.0843615 0.0
-0.00694117 0.0790684 0.0
-0.00666955 0.0739751 0.0
-0.00643309 0.0690561 0.0
-0.0062189 0.064295 0.0
-0.0060175 0.0596822 0.0
-0.00582214 0.0552131 0.0
-0.00562813 0.0508865 0.0
-0.00543236 0.0467036 0.0
-0.00523295 0.0426671 0.0
-0.00502884 0.0387806 0.0
-0.00481954 0.0350482 0.0
-0.00460493 0.031474 0.0
-0.00438498 0.0280623 0.0
-0.00415968 0.0248171 0.0
-0.00392885 0.0217426 0.0
-0.00369205 0.0188431 0.0
-0.00344853 0.0161235 0.0
-0.00319718 0.013589 0.0
-0.00293649 0.0112456 0.0
-0.00266462 0.0091005 0.0
-0.00237944 0.00716178 0.0
-0.00207883 0.00543867 0.0
-0.00176105 0.00394117 0.0
-0.00142566 0.00267931 0.0
-0.00107508 0.00166184 0.0
-0.000717707 0.000893922 0.0
-0.000373604 0.000372263 0.0
-8.25301e-05 7.99129e-05 0.0
7.54619e-05 -6.00998e-06 0.0
0.610602 0.0481516 0.0
0.196796 0.134386 0.0
0.0126356 0.210222 0.0
-0.0571209 0.247515 0.0
-0.0757901 0.258022 0.0
-0.0742701 0.25422 0.0
-0.0658797 0.243265 0.0
-0.0561216 0.229416 0.0
-0.0470975 0.214969 0.0
-0.0394581 0.201036 0.0
-0.0332623 0.188077 0.0
-0.0283522 0.176208 0.0
-0.024512 0.165381 0.0
-0.0215314 0.155476 0.0
-0.0192268 0.146353 0.0
-0.0174466 0.137879 0.0
-0.0160682 0.129934 0.0
-0.0149941 0.122419 0.0
-0.0141475 0.115257 0.0
-0.0134679 0.108386 0.0
-0.0129084 0.101761 0.0
-0.0124326 0.09535 0.0
-0.0120126 0.0891321 0.0
-0.0116276 0.0830941 0.0
-0.0112619 0.0772295 0.0
-0.0109045 0.0715365 0.0
-0.0105476 0.0660164 0.0
-0.0101861 0.0606731 0.0
-0.00981693 0.0555114 0.0
-0.00943835 0.050537 0.0
-0.00904966 0.0457559 0.0
-0.0086507 0.0411739 0.0
-0.0082415 0.0367967 0.0
-0.00782207 0.0326298 0.0
-0.00739214 0.0286787 0.0
-0.00695102 0.024949 0.0
-0.00649745 0.0214466 0.0
-0.00602963 0.018178 0.0
-0.00554512 0.0151503 0.0
-0.00504102 0.0123718 0.0
-0.0045142 0.00985166 0.0
-0.00396168 0.00760009 0.0
-0.0033815 0.00562773 0.0
-0.00277412 0.00394497 0.0
-0.00214474 0.00256065 0.0
-0.00150757 0.00148022 0.0
-0.000892545 0.000700828 0.0
-0.000354094 0.000210539 0.0
8.13403e-06 1.7896e-05 0.0
0.681218 0.0302518 0.0
0.279899 0.0985163 0.0
0.0710742 0.171534 0.0
-0.0265737 0.218082 0.0
-0.0652991 0.241261 0.0
-0.0758988 0.249108 0.0
-0.0740538 0.247536 0.0
-0.0673806 0.240665 0.0
-0.0594464 0.231118 0.0
-0.0518287 0.220446 0.0
-0.0451392 0.20952 0.0
-0.0395331 0.198791 0.0
-0.0349621 0.188463 0.0
-0.0312978 0.178602 0.0
-0.0283908 0.169204 0.0
-0.0260967 0.160228 0.0
-0.0242876 0.151621 0.0
-0.0228541 0.143334 0.0
-0.0217059 0.135322 0.0
-0.0207691 0.127547 0.0
-0.0199846 0.119985 0.0
-0.0193059 0.112616 0.0
-0.0186965 0.10543 0.0
-0.0181289 0.0984231 0.0
-0.0175824 0.0915951 0.0
-0.0170424 0.0849498 0.0
-0.0164985 0.0784937 0.0
-0.0159442 0.0722341 0.0
-0.0153756 0.0661794 0.0
-0.0147907 0.0603381 0.0
-0.0141888 0.0547183 0.0
-0.01357 0.0493279 0.0
-0.0129346 0.0441741 0.0
-0.0122829 0.0392637 0.0
-0.0116146 0.0346034 0.0
-0.0109288 0.0301997 0.0
-0.010224 0.0260592 0.0
-0.00949766 0.022189 0.0
-0.0087465 0.0185971 0.0
-0.00796671 0.015292 0.0
-0.00715424 0.0122833 0.0
-0.00630549 0.00958146 0.0
-0.00541846 0.00719724 0.0
-0.00449452 0.00514124 0.0
-0.00354132 0.00342292 0.0
-0.00257735 0.00204957 0.0
-0.00163895 0.00102173 0.0
-0.000788232 0.000336775 0.0
-0.000131273 3.99825e-05 0.0
0.730753 0.0192453 0.0
0.350605 0.0732181 0.0
0.129407 0.139488 0.0
0.011907 0.188235 0.0
-0.0449219 0.219038 0.0
-0.0681797 0.235231 0.0
-0.0744228 0.241366 0.0
-0.0725792 0.24094 0.0
-0.0673284 0.23646 0.0
-0.0610538 0.229602 0.0
-0.0549095 0.221436 0.0
-0.0493993 0.212622 0.0
-0.0446898 0.203549 0.0
-0.0407804 0.194437 0.0
-0.0375934 0.1854 0.0
-0.0350221 0.176493 0.0
-0.0329552 0.167735 0.0
-0.0312884 0.159131 0.0
-0.0299297 0.150677 0.0
-0.0288006 0.142369 0.0
-0.0278361 0.134205 0.0
-0.0269838 0.126188 0.0
-0.0262024 0.11832 0.0
-0.0254598 0.110611 0.0
-0.0247324 0.10307 0.0
-0.0240033 0.0957091 0.0
-0.0232608 0.0885408 0.0
-0.0224979 0.081578 0.0
-0.0217106 0.0748332 0.0
-0.0208972 0.0683182 0.0
-0.0200577 0.0620439 0.0
-0.0191929 0.0560202 0.0
-0.0183037 0.0502561 0.0
-0.0173908 0.0447597 0.0
-0.0164543 0.0395385 0.0
-0.0154935 0.0345995 0.0
-0.0145065 0.02995 0.0
-0.0134902 0.0255973 0.0
-0.0124408 0.0215494 0.0
-0.0113536 0.0178148 0.0
-0.0102236 0.0144033 0.0
-0.00904678 0.011325 0.0
-0.00782086 0.00859081 0.0
-0.00654768 0.00621191 0.0
-0.00523619 0.00419918 0.0
-0.00390691 0.0025632 0.0
-0.0025984 0.00130993 0.0
-0.00137382 0.00044803 0.0
-0.000335262 5.84333e-05 0.0
0.766804 0.0126041 0.0
0.410021 0.0556923 0.0
0.184169 0.114331 0.0
0.0528811 0.161947 0.0
-0.0186164 0.196283 0.0
-0.0537272 0.217951 0.0
-0.0684633 0.229828 0.0
-0.0723551 0.234707 0.0
-0.0708227 0.234773 0.0
-0.0668737 0.231622 0.0
-0.0621302 0.226371 0.0
-0.0574257 0.219776 0.0
-0.0531499 0.212337 0.0
-0.049448 0.204378 0.0
-0.0463352 0.196109 0.0
-0.0437617 0.187662 0.0
-0.0416494 0.179121 0.0
-0.0399125 0.170541 0.0
-0.0384678 0.161963 0.0
-0.0372405 0.153415 0.0
-0.0361662 0.144922 0.0
-0.0351915 0.136509 0.0
-0.0342736 0.128197 0.0
-0.0333796 0.120008 0.0
-0.0324848 0.111965 0.0
-0.0315721 0.104087 0.0
-0.0306301 0.0963969 0.0
-0.0296523 0.0889121 0.0
-0.0286359 0.0816504 0.0
-0.0275804 0.0746275 0.0
-0.0264871 0.0678573 0.0
-0.0253581 0.061352 0.0
-0.0241955 0.0551222 0.0
-0.0230009 0.0491771 0.0
-0.0217751 0.0435249 0.0
-0.0205175 0.0381732 0.0
-0.0192264 0.0331291 0.0
-0.0178985 0.0284001 0.0
-0.0165291 0.0239938 0.0
-0.0151129 0.0199185 0.0
-0.0136442 0.0161834 0.0
-0.012118 0.0127988 0.0
-0.0105314 0.00977579 0.0
-0.008886 0.00712627 0.0
-0.00719038 0.00486337 0.0
-0.00546458 0.00300191 0.0
-0.00374538 0.0015543 0.0
-0.00209141 0.000540571 0.0
-0.000593599 7.30199e-05 0.0
0.793781 0.00857974 0.0
0.459872 0.0434327 0.0
0.234198 0.0947902 0.0
0.0937544 0.13977 0.0
0.0110522 0.174953 0.0
-0.0347225 0.199994 0.0
-0.057731 0.215909 0.0
-0.0676845 0.224895 0.0
-0.0704473 0.228746 0.0
-0.0694767 0.228887 0.0
-0.0667685 0.226387 0.0
-0.0634412 0.222018 0.0
-0.0600916 0.216332 0.0
-0.0570102 0.209714 0.0
-0.0543116 0.202435 0.0
-0.052012 0.194686 0.0
-0.0500767 0.186604 0.0
-0.0484471 0.178287 0.0
-0.0470568 0.169814 0.0
-0.0458414 0.161245 0.0
-0.0447423 0.152633 0.0
-0.04371 0.144022 0.0
-0.0427038 0.135453 0.0
-0.0416927 0.126963 0.0
-0.0406538 0.118588 0.0
-0.0395716 0.110358 0.0
-0.0384368 0.102302 0.0
-0.0372451 0.0944458 0.0
-0.0359958 0.0868122 0.0
-0.0346908 0.0794212 0.0
-0.0333337 0.0722897 0.0
-0.0319284 0.0654322 0.0
-0.030479 0.0588609 0.0
-0.0289884 0.052586 0.0
-0.0274586 0.0466162 0.0
-0.0258896 0.0409591 0.0
-0.0242798 0.0356218 0.0
-0.0226258 0.0306112 0.0
-0.0209226 0.0259344 0.0
-0.019164 0.0215993 0.0
-0.0173433 0.0176147 0.0
-0.0154545 0.0139905 0.0
-0.0134933 0.0107382 0.0
-0.0114599 0.00787108 0.0
-0.00936101 0.0054047 0.0
-0.00721361 0.00335849 0.0
-0.00504941 0.00175143 0.0
-0.0029183 0.000613958 0.0
-0.000895573 8.40721e-05 0.0
0.81463 0.00609679 0.0
0.501969 0.0347063 0.0
0.27935 0.0796141 0.0
0.1331 0.121406 0.0
0.0417187 0.15612 0.0
-0.0129527 0.182752 0.0
-0.043605 0.201362 0.0
-0.0595603 0.213368 0.0
-0.0668596 0.220221 0.0
-0.0692516 0.223131 0.0
-0.0690111 0.223065 0.0
-0.0674882 0.220767 0.0
-0.0654592 0.21679 0.0
-0.063348 0.211548 0.0
-0.0613651 0.205348 0.0
-0.059595 0.198419 0.0
-0.0580498 0.190936 0.0
-0.0567031 0.183033 0.0
-0.0555106 0.174819 0.0
-0.0544224 0.166383 0.0
-0.0533903 0.157802 0.0
-0.0523719 0.14914 0.0
-0.0513324 0.140457 0.0
-0.0502449 0.131806 0.0
-0.0490909 0.123233 0.0
-0.0478587 0.11478 0.0
-0.0465428 0.106484 0.0
-0.0451425 0.0983797 0.0
-0.0436609 0.0904937 0.0
-0.0421033 0.0828507 0.0
-0.0404764 0.0754707 0.0
-0.0387872 0.0683705 0.0
-0.037042 0.0615637 0.0
-0.0352459 0.0550613 0.0
-0.0334022 0.0488721 0.0
-0.0315121 0.0430036 0.0
-0.0295745 0.0374625 0.0
-0.0275859 0.0322549 0.0
-0.025541 0.0273872 0.0
-0.0234327 0.0228665 0.0
-0.021253 0.018701 0.0
-0.0189944 0.0149004 0.0
-0.0166507 0.0114768 0.0
-0.0142193 0.00844448 0.0
-0.0117035 0.00582185 0.0
-0.00911521 0.00363271 0.0
-0.00647833 0.00190209 0.0
-0.0038312 0.000669232 0.0
-0.001231 9.20655e-05 0.0
0.831242 0.00452456 0.0
0.537846 0.0283636 0.0
0.319942 0.0677304 0.0
0.170334 0.106228 0.0
0.0723751 0.139751 0.0
0.0105053 0.166757 0.0
-0.0271346 0.18709 0.0
-0.0488416 0.201248 0.0
-0.0607038 0.210407 0.0
-0.0666461 0.215567 0.0
-0.0691427 0.217573 0.0
-0.0697242 0.217108 0.0
-0.0693152 0.214707 0.0
-0.0684555 0.210783 0.0
-0.0674429 0.20566 0.0
-0.0664263 0.199589 0.0
-0.0654645 0.192769 0.0
-0.064565 0.185361 0.0
-0.0637075 0.177499 0.0
-0.0628597 0.169295 0.0
-0.0619863 0.160846 0.0
-0.0610549 0.152237 0.0
-0.0600388 0.143544 0.0
-0.0589182 0.134833 0.0
-0.0576806 0.126164 0.0
-0.0563203 0.117589 0.0
-0.0548373 0.109154 0.0
-0.0532363 0.100898 0.0
-0.0515252 0.0928567 0.0
-0.0497142 0.085057 0.0
-0.0478141 0.0775225 0.0
-0.0458357 0.0702717 0.0
-0.0437885 0.0633195 0.0
-0.0416803 0.0566774 0.0
-0.0395164 0.0503541 0.0
-0.0372993 0.0443567 0.0
-0.0350286 0.0386909 0.0
-0.0327012 0.0333621 0.0
-0.0303111 0.0283754 0.0
-0.0278503 0.0237372 0.0
-0.0253094 0.0194547 0.0
-0.0226786 0.0155376 0.0
-0.0199491 0.0119979 0.0
-0.0171146 0.00885155 0.0
-0.0141734 0.00611905 0.0
-0.0111306 0.00382816 0.0
-0.00800039 0.00200907 0.0
-0.00480774 0.000708024 0.0
-0.00159065 9.74731e-05 0.0
0.844827 0.00349697 0.0
0.568723 0.023653 0.0
0.356429 0.0583323 0.0
0.20521 0.0936762 0.0
0.1023 0.125661 0.0
0.0344293 0.152437 0.0
-0.00920591 0.173598 0.0
-0.0362559 0.189227 0.0
-0.0525587 0.200096 0.0
-0.0620987 0.207028 0.0
-0.0674783 0.210745 0.0
-0.0703608 0.211853 0.0
-0.0717886 0.210849 0.0
-0.0723979 0.208133 0.0
-0.0725623 0.204027 0.0
-0.0724885 0.198793 0.0
-0.0722792 0.192645 0.0
-0.0719742 0.185762 0.0
-0.0715778 0.178296 0.0
-0.0710762 0.170379 0.0
-0.0704487 0.162125 0.0
-0.0696747 0.153636 0.0
-0.0687374 0.145002 0.0
-0.067626 0.136304 0.0
-0.0663361 0.127613 0.0
-0.0648695 0.118992 0.0
-0.0632336 0.110493 0.0
-0.0614399 0.102165 0.0
-0.0595027 0.0940453 0.0
-0.057438 0.0861668 0.0
-0.0552621 0.0785555 0.0
-0.0529905 0.0712315 0.0
-0.0506366 0.0642107 0.0
-0.0482115 0.0575045 0.0
-0.045723 0.0511215 0.0
-0.0431754 0.0450677 0.0
-0.0405692 0.0393479 0.0
-0.0379015 0.033966 0.0
-0.035166 0.028926 0.0
-0.0323534 0.0242328 0.0
-0.0294526 0.019893 0.0
-0.0264511 0.0159156 0.0
-0.0233365 0.0123127 0.0
-0.020098 0.00910113 0.0
-0.0167276 0.00630337 0.0
-0.0132223 0.00395025 0.0
-0.00958534 0.002076 0.0
-0.00582714 0.000732101 0.0
-0.0019663 0.000100711 0.0
0.856185 0.00280036 0.0
0.595565 0.0200753 0.0
0.389303 0.0508066 0.0
0.23773 0.0832309 0.0
0.131174 0.113521 0.0
0.0583859 0.139686 0.0
0.00967178 0.16105 0.0
-0.022347 0.177655 0.0
-0.042905 0.189762 0.0
-0.0560037 0.198065 0.0
-0.0643242 0.203163 0.0
-0.0696253 0.205587 0.0
-0.0730395 0.205787 0.0
-0.0752805 0.20414 0.0
-0.0767853 0.200958 0.0
-0.0778104 0.196504 0.0
-0.078497 0.190999 0.0
-0.078915 0.184633 0.0
-0.0790917 0.177572 0.0
-0.079032 0.169963 0.0
-0.0787301 0.161934 0.0
-0.0781783 0.153603 0.0
-0.077371 0.145073 0.0
-0.0763079 0.136437 0.0
-0.0749942 0.127776 0.0
-0.0734411 0.119163 0.0
-0.0716647 0.110659 0.0
-0.0696848 0.102318 0.0
-0.0675237 0.0941827 0.0
-0.0652044 0.0862892 0.0
-0.0627498 0.0786658 0.0
-0.0601808 0.0713342 0.0
-0.0575158 0.0643106 0.0
-0.0547697 0.0576063 0.0
-0.0519533 0.0512288 0.0
-0.049073 0.0451833 0.0
-0.0461305 0.0394728 0.0
-0.0431232 0.0340997 0.0
-0.0400443 0.0290665 0.0
-0.0368832 0.0243764 0.0
-0.0336266 0.0200349 0.0
-0.0302588 0.01605 0.0
-0.0267634 0.0124339 0.0
-0.0231238 0.0092036 0.0
-0.0193251 0.00638293 0.0
-0.015355 0.00400489 0.0
-0.011205 0.00210661 0.0
-0.00687047 0.000743123 0.0
-0.00235076 0.000102123 0.0
0.865861 0.00230986 0.0
0.619122 0.0172997 0.0
0.419024 0.0447051 0.0
0.267986 0.0744817 0.0
0.158802 0.103058 0.0
0.0819649 0.1284 0.0
0.0288002 0.149654 0.0
-0.0075984 0.166736 0.0
-0.032152 0.179707 0.0
-0.0487057 0.189033 0.0
-0.0599623 0.195219 0.0
-0.0677406 0.198719 0.0
-0.0732383 0.199933 0.0
-0.077229 0.199207 0.0
-0.0802002 0.196839 0.0
-0.0824498 0.193085 0.0
-0.0841518 0.188168 0.0
-0.0854021 0.182286 0.0
-0.0862492 0.175613 0.0
-0.0867152 0.168307 0.0
-0.0868094 0.160511 0.0
-0.086537 0.152354 0.0
-0.0859048 0.14395 0.0
-0.0849238 0.135405 0.0
-0.0836106 0.126809 0.0
-0.0819869 0.118244 0.0
-0.0800792 0.109779 0.0
-0.0779171 0.101472 0.0
-0.0755319 0.0933707 0.0
-0.0729553 0.0855148 0.0
-0.0702174 0.0779341 0.0
-0.0673459 0.0706512 0.0
-0.0643648 0.0636822 0.0
-0.0612935 0.0570378 0.0
-0.0581461 0.0507243 0.0
-0.0549315 0.0447452 0.0
-0.0516529 0.0391017 0.0
-0.0483079 0.0337943 0.0
-0.0448893 0.0288232 0.0
-0.041385 0.0241903 0.0
-0.0377789 0.0198991 0.0
-0.034052 0.0159568 0.0
-0.0301828 0.0123745 0.0
-0.0261488 0.00916939 0.0
-0.0219272 0.00636575 0.0
-0.0174957 0.00399777 0.0
-0.0128334 0.00210434 0.0
-0.00792054 0.000742532 0.0
-0.00273766 0.000101979 0.0
0.874232 0.00195129 0.0
0.639981 0.0151021 0.0
0.446002 0.0396938 0.0
0.29613 0.06709 0.0
0.185123 0.0939937 0.0
0.10498 0.118385 0.0
0.0479722 0.139306 0.0
0.00772276 0.15651 0.0
-0.0206069 0.170067 0.0
-0.0404909 0.180138 0.0
-0.0546414 0.187163 0.0
-0.0649144 0.191523 0.0
-0.0725533 0.19357 0.0
-0.078376 0.193618 0.0
-0.082909 0.191946 0.0
-0.0864826 0.1888 0.0
-0.0892976 0.184402 0.0
-0.0914716 0.178952 0.0
-0.0930714 0.172632 0.0
-0.0941347 0.165609 0.0
-0.0946849 0.158035 0.0
-0.0947405 0.15005 0.0
-0.0943209 0.141781 0.0
-0.0934496 0.133342 0.0
-0.0921554 0.124834 0.0
-0.0904721 0.116345 0.0
-0.0884379 0.107951 0.0
-0.0860936 0.0997151 0.0
-0.083481 0.0916898 0.0
-0.0806414 0.083916 0.0
-0.0776137 0.0764253 0.0
-0.0744329 0.0692406 0.0
-0.0711294 0.0623775 0.0
-0.0677277 0.0558453 0.0
-0.064246 0.0496489 0.0
-0.0606956 0.0437896 0.0
-0.0570815 0.0382663 0.0
-0.0534017 0.0330771 0.0
-0.0496483 0.0282202 0.0
-0.0458073 0.023695 0.0
-0.0418601 0.0195033 0.0
-0.0377834 0.0156505 0.0
-0.0335506 0.0121467 0.0
-0.0291324 0.00900818 0.0
-0.0244976 0.00625913 0.0
-0.0196136 0.00393394 0.0
-0.0144466 0.00207215 0.0
-0.00896177 0.000731504 0.0
-0.00312136 0.000100481 0.0
0.88157 0.00167976 0.0
0.6586 0.0133286 0.0
0.470591 0.0355249 0.0
0.322325 0.0607893 0.0
0.210126 0.0860983 0.0
0.127286 0.109485 0.0
0.0669339 0.129932 0.0
0.023191 0.147073 0.0
-0.0085563 0.160913 0.0
-0.0316084 0.171501 0.0
-0.0485808 0.179145 0.0
-0.0613362 0.184172 0.0
-0.0711449 0.186883 0.0
-0.0788545 0.187563 0.0
-0.0850196 0.186467 0.0
-0.0899947 0.183832 0.0
-0.094001 0.179874 0.0
-0.0971734 0.174794 0.0
-0.0995938 0.16878 0.0
-0.101314 0.162005 0.0
-0.102369 0.154632 0.0
-0.102792 0.146808 0.0
-0.102614 0.138672 0.0
-0.101872 0.130345 0.0
-0.100609 0.121937 0.0
-0.0988708 0.113544 0.0
-0.0967097 0.105247 0.0
-0.0941787 0.0971141 0.0
-0.0913315 0.0891999 0.0
-0.0882201 0.0815477 0.0
-0.0848931 0.0741896 0.0
-0.0813941 0.0671481 0.0
-0.0777603 0.0604377 0.0
-0.0740221 0.0540663 0.0
-0.0702019 0.0480363 0.0
-0.0663142 0.0423465 0.0
-0.0623653 0.0369934 0.0
-0.058354 0.0319722 0.0
-0.0542714 0.0272783 0.0
-0.0501018 0.0229088 0.0
-0.0458234 0.0188629 0.0
-0.0414085 0.0151442 0.0
-0.0368249 0.011761 0.0
-0.0320362 0.00872836 0.0
-0.0270023 0.00606932 0.0
-0.0216799 0.00381761 0.0
-0.0160224 0.0020124 0.0
-0.00997988 0.000710944 0.0
-0.00349677 9.7768e-05 0.0
0.888069 0.00146727 0.0
0.675337 0.0118707 0.0
0.493092 0.0320107 0.0
0.346735 0.0553635 0.0
0.233841 0.0791668 0.0
0.148814 0.101527 0.0
0.085561 0.121396 0.0
0.0386815 0.138327 0.0
0.00382614 0.152229 0.0
-0.0222567 0.163154 0.0
-0.0419693 0.171233 0.0
-0.0571769 0.176755 0.0
-0.0691632 0.179979 0.0
-0.0787937 0.181154 0.0
-0.0866413 0.180517 0.0
-0.0930768 0.178292 0.0
-0.098336 0.174691 0.0
-0.102566 0.169915 0.0
-0.105862 0.164152 0.0
-0.108284 0.157585 0.0
-0.109883 0.150382 0.0
-0.110702 0.142701 0.0
-0.110785 0.134688 0.0
-0.110185 0.126474 0.0
-0.108957 0.118175 0.0
-0.107163 0.109894 0.0
-0.104869 0.101716 0.0
-0.102141 0.0937135 0.0
-0.0990479 0.0859431 0.0
-0.0956522 0.078449 0.0
-0.0920136 0.0712633 0.0
-0.088185 0.0644076 0.0
-0.0842114 0.0578947 0.0
-0.0801293 0.0517301 0.0
-0.0759658 0.0459135 0.0
-0.0717385 0.0404409 0.0
-0.0674558 0.0353055 0.0
-0.0631168 0.0304995 0.0
-0.0587116 0.0260153 0.0
-0.0542226 0.021847 0.0
-0.0496245 0.0179913 0.0
-0.0448851 0.0144491 0.0
-0.0399662 0.0112267 0.0
-0.0348239 0.008337 0.0
-0.0294092 0.00580146 0.0
-0.0236678 0.00365215 0.0
-0.0175402 0.00192694 0.0
-0.0109616 0.000681514 0.0
-0.00385919 9.39306e-05 0.0
0.893875 0.00129572 0.0
0.690473 0.0106503 0.0
0.513755 0.029007 0.0
0.369508 0.0506384 0.0
0.256309 0.0730254 0.0
0.169518 0.0943604 0.0
0.103741 0.113584 0.0
0.0540266 0.130195 0.0
0.0162921 0.144021 0.0
-0.0126184 0.155091 0.0
-0.034975 0.163444 0.0
-0.0525912 0.169308 0.0
-0.0667477 0.172901 0.0
-0.0783173 0.174443 0.0
-0.0878817 0.174151 0.0
-0.0958213 0.172238 0.0
-0.10238 0.168909 0.0
-0.107714 0.164364 0.0
-0.111925 0.158796 0.0
-0.115085 0.15239 0.0
-0.117254 0.145325 0.0
-0.118487 0.137765 0.0
-0.118842 0.129864 0.0
-0.118386 0.121761 0.0
-0.11719 0.113578 0.0