# vtk DataFile Version 3.0
Malha 2D com triângulos e temperatura
ASCII
DATASET UNSTRUCTURED_GRID

POINTS 2500 double
0 0 0
1 0 0
1 1 0
0 1 0
0.0204082 0 0
0.0408163 0 0
0.0612245 0 0
0.0816327 0 0
0.102041 0 0
0.122449 0 0
0.142857 0 0
0.163265 0 0
0.183673 0 0
0.204082 0 0
0.22449 0 0
0.244898 0 0
0.265306 0 0
0.285714 0 0
0.306122 0 0
0.326531 0 0
0.346939 0 0
0.367347 0 0
0.387755 0 0
0.408163 0 0
0.428571 0 0
0.44898 0 0
0.469388 0 0
0.489796 0 0
0.510204 0 0
0.530612 0 0
0.55102 0 0
0.571429 0 0
0.591837 0 0
0.612245 0 0
0.632653 0 0
0.653061 0 0
0.673469 0 0
0.693878 0 0
0.714286 0 0
0.734694 0 0
0.755102 0 0
0.77551 0 0
0.795918 0 0
0.816327 0 0
0.836735 0 0
0.857143 0 0
0.877551 0 0
0.897959 0 0
0.918367 0 0
0.938776 0 0
0.959184 0 0
0.979592 0 0
1 0.0204082 0
1 0.0408163 0
1 0.0612245 0
1 0.0816327 0
1 0.102041 0
1 0.122449 0
1 0.142857 0
1 0.163265 0
1 0.183673 0
1 0.204082 0
1 0.22449 0
1 0.244898 0
1 0.265306 0
1 0.285714 0
1 0.306122 0
1 0.326531 0
1 0.346939 0
1 0.367347 0
1 0.387755 0
1 0.408163 0
1 0.428571 0
1 0.44898 0
1 0.469388 0
1 0.489796 0
1 0.510204 0
1 0.530612 0
1 0.55102 0
1 0.571429 0
1 0.591837 0
1 0.612245 0
1 0.632653 0
1 0.653061 0
1 0.673469 0
1 0.693878 0
1 0.714286 0
1 0.734694 0
1 0.755102 0
1 0.77551 0
1 0.795918 0
1 0.816327 0
1 0.836735 0
1 0.857143 0
1 0.877551 0
1 0.897959 0
1 0.918367 0
1 0.938776 0
1 0.959184 0
1 0.979592 0
0.979592 1 0
0.959184 1 0
0.938776 1 0
0.918367 1 0
0.897959 1 0
0.877551 1 0
0.857143 1 0
0.836735 1 0
0.816327 1 0
0.795918 1 0
0.77551 1 0
0.755102 1 0
0.734694 1 0
0.714286 1 0
0.693878 1 0
0.673469 1 0
0.653061 1 0
0.632653 1 0
0.612245 1 0
0.591837 1 0
0.571429 1 0
0.55102 1 0
0.530612 1 0
0.510204 1 0
0.489796 1 0
0.469388 1 0
0.44898 1 0
0.428571 1 0
0.408163 1 0
0.387755 1 0
0.367347 1 0
0.346939 1 0
0.326531 1 0
0.306122 1 0
0.285714 1 0
0.265306 1 0
0.244898 1 0
0.22449 1 0
0.204082 1 0
0.183673 1 0
0.163265 1 0
0.142857 1 0
0.122449 1 0
0.102041 1 0
0.0816327 1 0
0.0612245 1 0
0.0408163 1 0
0.0204082 1 0
0 0.979592 0
0 0.959184 0
0 0.938776 0
0 0.918367 0
0 0.897959 0
0 0.877551 0
0 0.857143 0
0 0.836735 0
0 0.816327 0
0 0.795918 0
0 0.77551 0
0 0.755102 0
0 0.734694 0
0 0.714286 0
0 0.693878 0
0 0.673469 0
0 0.653061 0
0 0.632653 0
0 0.612245 0
0 0.591837 0
0 0.571429 0
0 0.55102 0
0 0.530612 0
0 0.510204 0
0 0.489796 0
0 0.469388 0
0 0.44898 0
0 0.428571 0
0 0.408163 0
0 0.387755 0
0 0.367347 0
0 0.346939 0
0 0.326531 0
0 0.306122 0
0 0.285714 0
0 0.265306 0
0 0.244898 0
0 0.22449 0
0 0.204082 0
0 0.183673 0
0 0.163265 0
0 0.142857 0
0 0.122449 0
0 0.102041 0
0 0.0816327 0
0 0.0612245 0
0 0.0408163 0
0 0.0204082 0
0.0204082 0.979592 0
0.0204082 0.959184 0
0.0204082 0.938776 0
0.0204082 0.918367 0
0.0204082 0.897959 0
0.0204082 0.877551 0
0.0204082 0.857143 0
0.0204082 0.836735 0
0.0204082 0.816327 0
0.0204082 0.795918 0
0.0204082 0.77551 0
0.0204082 0.755102 0
0.0204082 0.734694 0
0.0204082 0.714286 0
0.0204082 0.693878 0
0.0204082 0.673469 0
0.0204082 0.653061 0
0.0204082 0.632653 0
0.0204082 0.612245 0
0.0204082 0.591837 0
0.0204082 0.571429 0
0.0204082 0.55102 0
0.0204082 0.530612 0
0.0204082 0.510204 0
0.0204082 0.489796 0
0.0204082 0.469388 0
0.0204082 0.44898 0
0.0204082 0.428571 0
0.0204082 0.408163 0
0.0204082 0.387755 0
0.0204082 0.367347 0
0.0204082 0.346939 0
0.0204082 0.326531 0
0.0204082 0.306122 0
0.0204082 0.285714 0
0.0204082 0.265306 0
0.0204082 0.244898 0
0.0204082 0.22449 0
0.0204082 0.204082 0
0.0204082 0.183673 0
0.0204082 0.163265 0
0.0204082 0.142857 0
0.0204082 0.122449 0
0.0204082 0.102041 0
0.0204082 0.0816327 0
0.0204082 0.0612245 0
0.0204082 0.0408163 0
0.0204082 0.0204082 0
0.0408163 0.979592 0
0.0408163 0.959184 0
0.0408163 0.938776 0
0.0408163 0.918367 0
0.0408163 0.897959 0
0.0408163 0.877551 0
0.0408163 0.857143 0
0.0408163 0.836735 0
0.0408163 0.816327 0
0.0408163 0.795918 0
0.0408163 0.77551 0
0.0408163 0.755102 0
0.0408163 0.734694 0
0.0408163 0.714286 0
0.0408163 0.693878 0
0.0408163 0.673469 0
0.0408163 0.653061 0
0.0408163 0.632653 0
0.0408163 0.612245 0
0.0408163 0.591837 0
0.0408163 0.571429 0
0.0408163 0.55102 0
0.0408163 0.530612 0
0.0408163 0.510204 0
0.0408163 0.489796 0
0.0408163 0.469388 0
0.0408163 0.44898 0
0.0408163 0.428571 0
0.0408163 0.408163 0
0.0408163 0.387755 0
0.0408163 0.367347 0
0.0408163 0.346939 0
0.0408163 0.326531 0
0.0408163 0.306122 0
0.0408163 0.285714 0
0.0408163 0.265306 0
0.0408163 0.244898 0
0.0408163 0.22449 0
0.0408163 0.204082 0
0.0408163 0.183673 0
0.0408163 0.163265 0
0.0408163 0.142857 0
0.0408163 0.122449 0
0.0408163 0.102041 0
0.0408163 0.0816327 0
0.0408163 0.0612245 0
0.0408163 0.0408163 0
0.0408163 0.0204082 0
0.0612245 0.979592 0
0.0612245 0.959184 0
0.0612245 0.938776 0
0.0612245 0.918367 0
0.0612245 0.897959 0
0.0612245 0.877551 0
0.0612245 0.857143 0
0.0612245 0.836735 0
0.0612245 0.816327 0
0.0612245 0.795918 0
0.0612245 0.77551 0
0.0612245 0.755102 0
0.0612245 0.734694 0
0.0612245 0.714286 0
0.0612245 0.693878 0
0.0612245 0.673469 0
0.0612245 0.653061 0
0.0612245 0.632653 0
0.0612245 0.612245 0
0.0612245 0.591837 0
0.0612245 0.571429 0
0.0612245 0.55102 0
0.0612245 0.530612 0
0.0612245 0.510204 0
0.0612245 0.489796 0
0.0612245 0.469388 0
0.0612245 0.44898 0
0.0612245 0.428571 0
0.0612245 0.408163 0
0.0612245 0.387755 0
0.0612245 0.367347 0
0.0612245 0.346939 0
0.0612245 0.326531 0
0.0612245 0.306122 0
0.0612245 0.285714 0
0.0612245 0.265306 0
0.0612245 0.244898 0
0.0612245 0.22449 0
0.0612245 0.204082 0
0.0612245 0.183673 0
0.0612245 0.163265 0
0.0612245 0.142857 0
0.0612245 0.122449 0
0.0612245 0.102041 0
0.0612245 0.0816327 0
0.0612245 0.0612245 0
0.0612245 0.0408163 0
0.0612245 0.0204082 0
0.0816327 0.979592 0
0.0816327 0.959184 0
0.0816327 0.938776 0
0.0816327 0.918367 0
0.0816327 0.897959 0
0.0816327 0.877551 0
0.0816327 0.857143 0
0.0816327 0.836735 0
0.0816327 0.816327 0
0.0816327 0.795918 0
0.0816327 0.77551 0
0.0816327 0.755102 0
0.0816327 0.734694 0
0.0816327 0.714286 0
0.0816327 0.693878 0
0.0816327 0.673469 0
0.0816327 0.653061 0
0.0816327 0.632653 0
0.0816327 0.612245 0
0.0816327 0.591837 0
0.0816327 0.571429 0
0.0816327 0.55102 0
0.0816327 0.530612 0
0.0816327 0.510204 0
0.0816327 0.489796 0
0.0816327 0.469388 0
0.0816327 0.44898 0
0.0816327 0.428571 0
0.0816327 0.408163 0
0.0816327 0.387755 0
0.0816327 0.367347 0
0.0816327 0.346939 0
0.0816327 0.326531 0
0.0816327 0.306122 0
0.0816327 0.285714 0
0.0816327 0.265306 0
0.0816327 0.244898 0
0.0816327 0.22449 0
0.0816327 0.204082 0
0.0816327 0.183673 0
0.0816327 0.163265 0
0.0816327 0.142857 0
0.0816327 0.122449 0
0.0816327 0.102041 0
0.0816327 0.0816327 0
0.0816327 0.0612245 0
0.0816327 0.0408163 0
0.0816327 0.0204082 0
0.102041 0.979592 0
0.102041 0.959184 0
0.102041 0.938776 0
0.102041 0.918367 0
0.102041 0.897959 0
0.102041 0.877551 0
0.102041 0.857143 0
0.102041 0.836735 0
0.102041 0.816327 0
0.102041 0.795918 0
0.102041 0.77551 0
0.102041 0.755102 0
0.102041 0.734694 0
0.102041 0.714286 0
0.102041 0.693878 0
0.102041 0.673469 0
0.102041 0.653061 0
0.102041 0.632653 0
0.102041 0.612245 0
0.102041 0.591837 0
0.102041 0.571429 0
0.102041 0.55102 0
0.102041 0.530612 0
0.102041 0.510204 0
0.102041 0.489796 0
0.102041 0.469388 0
0.102041 0.44898 0
0.102041 0.428571 0
0.102041 0.408163 0
0.102041 0.387755 0
0.102041 0.367347 0
0.102041 0.346939 0
0.102041 0.326531 0
0.102041 0.306122 0
0.102041 0.285714 0
0.102041 0.265306 0
0.102041 0.244898 0
0.102041 0.22449 0
0.102041 0.204082 0
0.102041 0.183673 0
0.102041 0.163265 0
0.102041 0.142857 0
0.102041 0.122449 0
0.102041 0.102041 0
0.102041 0.0816327 0
0.102041 0.0612245 0
0.102041 0.0408163 0
0.102041 0.0204082 0
0.122449 0.979592 0
0.122449 0.959184 0
0.122449 0.938776 0
0.122449 0.918367 0
0.122449 0.897959 0
0.122449 0.877551 0
0.122449 0.857143 0
0.122449 0.836735 0
0.122449 0.816327 0
0.122449 0.795918 0
0.122449 0.77551 0
0.122449 0.755102 0
0.122449 0.734694 0
0.122449 0.714286 0
0.122449 0.693878 0
0.122449 0.673469 0
0.122449 0.653061 0
0.122449 0.632653 0
0.122449 0.612245 0
0.122449 0.591837 0
0.122449 0.571429 0
0.122449 0.55102 0
0.122449 0.530612 0
0.122449 0.510204 0
0.122449 0.489796 0
0.122449 0.469388 0
0.122449 0.44898 0
0.122449 0.428571 0
0.122449 0.408163 0
0.122449 0.387755 0
0.122449 0.367347 0
0.122449 0.346939 0
0.122449 0.326531 0
0.122449 0.306122 0
0.122449 0.285714 0
0.122449 0.265306 0
0.122449 0.244898 0
0.122449 0.22449 0
0.122449 0.204082 0
0.122449 0.183673 0
0.122449 0.163265 0
0.122449 0.142857 0
0.122449 0.122449 0
0.122449 0.102041 0
0.122449 0.0816327 0
0.122449 0.0612245 0
0.122449 0.0408163 0
0.122449 0.0204082 0
0.142857 0.979592 0
0.142857 0.959184 0
0.142857 0.938776 0
0.142857 0.918367 0
0.142857 0.897959 0
0.142857 0.877551 0
0.142857 0.857143 0
0.142857 0.836735 0
0.142857 0.816327 0
0.142857 0.795918 0
0.142857 0.77551 0
0.142857 0.755102 0
0.142857 0.734694 0
0.142857 0.714286 0
0.142857 0.693878 0
0.142857 0.673469 0
0.142857 0.653061 0
0.142857 0.632653 0
0.142857 0.612245 0
0.142857 0.591837 0
0.142857 0.571429 0
0.142857 0.55102 0
0.142857 0.530612 0
0.142857 0.510204 0
0.142857 0.489796 0
0.142857 0.469388 0
0.142857 0.44898 0
0.142857 0.428571 0
0.142857 0.408163 0
0.142857 0.387755 0
0.142857 0.367347 0
0.142857 0.346939 0
0.142857 0.326531 0
0.142857 0.306122 0
0.142857 0.285714 0
0.142857 0.265306 0
0.142857 0.244898 0
0.142857 0.22449 0
0.142857 0.204082 0
0.142857 0.183673 0
0.142857 0.163265 0
0.142857 0.142857 0
0.142857 0.122449 0
0.142857 0.102041 0
0.142857 0.0816327 0
0.142857 0.0612245 0
0.142857 0.0408163 0
0.142857 0.0204082 0
0.163265 0.979592 0
0.163265 0.959184 0
0.163265 0.938776 0
0.163265 0.918367 0
0.163265 0.897959 0
0.163265 0.877551 0
0.163265 0.857143 0
0.163265 0.836735 0
0.163265 0.816327 0
0.163265 0.795918 0
0.163265 0.77551 0
0.163265 0.755102 0
0.163265 0.734694 0
0.163265 0.714286 0
0.163265 0.693878 0
0.163265 0.673469 0
0.163265 0.653061 0
0.163265 0.632653 0
0.163265 0.612245 0
0.163265 0.591837 0
0.163265 0.571429 0
0.163265 0.55102 0
[...]
CELL_DATA 2401
VECTORS velocity double
0.257584 0.157303 0.0
-0.00260975 0.264467 0.0
-0.03224 0.205543 0.0
-0.0253457 0.150711 0.0
-0.016048 0.113217 0.0
-0.00970662 0.0878729 0.0
-0.00594352 0.0707756 0.0
-0.00376756 0.059025 0.0
-0.00249049 0.0507196 0.0
-0.00171683 0.0446803 0.0
-0.00123108 0.0401666 0.0
-0.00091629 0.0366997 0.0
-0.000707447 0.0339609 0.0
-0.000566969 0.031732 0.0
-0.000472108 0.0298602 0.0
-0.000408457 0.0282366 0.0
-0.000366505 0.0267829 0.0
-0.000339748 0.0254429 0.0
-0.000323594 0.024176 0.0
-0.000314722 0.0229534 0.0
-0.000310682 0.0217555 0.0
-0.000309635 0.0205693 0.0
-0.000310194 0.0193872 0.0
-0.000311311 0.0182053 0.0
-0.000312202 0.0170231 0.0
-0.000312294 0.0158423 0.0
-0.000311182 0.0146661 0.0
-0.000308601 0.013499 0.0
-0.000304396 0.0123464 0.0
-0.000298501 0.0112137 0.0
-0.000290922 0.010107 0.0
-0.000281711 0.00903176 0.0
-0.000270956 0.00799369 0.0
-0.000258762 0.006998 0.0
-0.000245239 0.00604963 0.0
-0.000230488 0.00515317 0.0
-0.000214593 0.0043129 0.0
-0.000197603 0.00353287 0.0
-0.00017953 0.00281696 0.0
-0.000160331 0.00216901 0.0
-0.000139903 0.00159295 0.0
-0.00011807 0.00109287 0.0
-9.45885e-05 0.000673128 0.0
-6.91909e-05 0.000338309 0.0
-4.17347e-05 9.29004e-05 0.0
-1.26656e-05 -5.965e-05 0.0
1.57878e-05 -0.000119134 0.0
3.71355e-05 -9.67073e-05 0.0
3.39268e-05 -3.37641e-05 0.0
0.340798 0.122986 0.0
-0.000570518 0.249565 0.0
-0.0651315 0.271863 0.0
-0.0631839 0.252453 0.0
-0.0485009 0.221971 0.0
-0.0349995 0.192087 0.0
-0.0250014 0.166593 0.0
-0.0180204 0.145989 0.0
-0.0132095 0.129669 0.0
-0.00988143 0.116788 0.0
-0.00755862 0.106559 0.0
-0.00592413 0.0983308 0.0
-0.00476846 0.0915914 0.0
-0.00395121 0.0859473 0.0
-0.00337631 0.0810994 0.0
-0.00297651 0.0768213 0.0
-0.00270374 0.0729432 0.0
-0.00252294 0.0693384 0.0
-0.00240811 0.0659137 0.0
-0.00233965 0.0626019 0.0
-0.00230263 0.0593557 0.0
-0.00228559 0.0561441 0.0
-0.00227972 0.0529482 0.0
-0.00227825 0.0497588 0.0
-0.00227606 0.0465742 0.0
-0.00226933 0.0433982 0.0
-0.00225533 0.040239 0.0
-0.00223222 0.0371076 0.0
-0.00219884 0.034017 0.0
-0.00215465 0.0309811 0.0
-0.0020995 0.0280145 0.0
-0.00203362 0.0251318 0.0
-0.00195743 0.022347 0.0
-0.00187149 0.0196737 0.0
-0.00177644 0.0171246 0.0
-0.00167286 0.0147117 0.0
-0.00156126 0.0124464 0.0
-0.00144202 0.0103392 0.0
-0.00131536 0.00840038 0.0
-0.00118131 0.00663973 0.0
-0.0010397 0.00506697 0.0
-0.000890254 0.00369166 0.0
-0.000732756 0.0025231 0.0
-0.000567429 0.00156976 0.0
-0.000395822 0.000838072 0.0
-0.000222758 0.000329977 0.0
-6.03416e-05 3.8213e-05 0.0
6.5249e-05 -6.37702e-05 0.0
9.62299e-05 -3.61372e-05 0.0
0.500909 0.0768306 0.0
0.0991615 0.183317 0.0
-0.0392185 0.249412 0.0
-0.0733193 0.265986 0.0
-0.0718737 0.2577 0.0
-0.0606868 0.239859 0.0
-0.048555 0.219726 0.0
-0.0380959 0.20059 0.0
-0.0297873 0.183668 0.0
-0.0234228 0.169183 0.0
-0.0186366 0.156934 0.0
-0.0150777 0.146571 0.0
-0.0124555 0.137725 0.0
-0.0105426 0.130057 0.0
-0.00916434 0.123279 0.0
-0.00818765 0.117157 0.0
-0.00751097 0.111504 0.0
-0.00705637 0.106175 0.0
-0.00676371 0.101059 0.0
-0.00658628 0.0960772 0.0
-0.00648761 0.091171 0.0
-0.0064392 0.0863033 0.0
-0.0064188 0.0814519 0.0
-0.00640914 0.076607 0.0
-0.00639703 0.0717686 0.0
-0.00637259 0.066944 0.0
-0.00632867 0.0621458 0.0
-0.00626038 0.0573908 0.0
-0.00616469 0.0526982 0.0
-0.00604 0.0480888 0.0
-0.00588592 0.0435839 0.0
-0.00570287 0.0392048 0.0
-0.0054919 0.0349721 0.0
-0.0052544 0.0309058 0.0
-0.00499194 0.0270247 0.0
-0.00470604 0.0233464 0.0
-0.00439809 0.0198877 0.0
-0.00406918 0.0166642 0.0
-0.00372009 0.0136908 0.0
-0.00335128 0.0109817 0.0
-0.00296296 0.00855049 0.0
-0.00255539 0.00641002 0.0
-0.00212943 0.0045721 0.0
-0.00168755 0.00304657 0.0
-0.00123589 0.00183959 0.0
-0.000787967 0.000950951 0.0
-0.000371413 0.00036855 0.0
-3.73149e-05 6.16689e-05 0.0
0.000116513 -1.40373e-05 0.0
0.610145 0.0480745 0.0
0.195863 0.134044 0.0
0.0115715 0.20957 0.0
-0.0579421 0.24665 0.0
-0.0761205 0.257164 0.0
-0.0739499 0.253624 0.0
-0.0648566 0.243211 0.0
-0.0544336 0.230176 0.0
-0.0448438 0.216785 0.0
-0.0367703 0.204104 0.0
-0.0302831 0.192539 0.0
-0.0252204 0.182148 0.0
-0.021354 0.172827 0.0
-0.0184572 0.164406 0.0
-0.0163289 0.156699 0.0
-0.0148 0.149533 0.0
-0.0137316 0.14276 0.0
-0.0130111 0.136257 0.0
-0.0125482 0.129926 0.0
-0.0122699 0.123697 0.0
-0.012118 0.117517 0.0
-0.0120462 0.111355 0.0
-0.0120175 0.105193 0.0
-0.0120031 0.0990262 0.0
-0.0119808 0.0928593 0.0
-0.0119338 0.0867051 0.0
-0.0118498 0.0805819 0.0
-0.0117207 0.0745121 0.0
-0.011541 0.0685206 0.0
-0.0113084 0.0626339 0.0
-0.0110219 0.0568788 0.0
-0.0106825 0.0512819 0.0
-0.0102921 0.045869 0.0
-0.00985299 0.0406649 0.0
-0.00936811 0.0356927 0.0
-0.00884021 0.0309746 0.0
-0.00827182 0.0265309 0.0
-0.00766512 0.022381 0.0
-0.0070218 0.0185431 0.0
-0.00634319 0.0150341 0.0
-0.00563043 0.01187 0.0
-0.00488502 0.00906575 0.0
-0.0041098 0.00663419 0.0
-0.00331061 0.00458565 0.0
-0.00249921 0.00292616 0.0
-0.00169827 0.00165528 0.0
-0.000949463 0.00076066 0.0
-0.000323488 0.000216509 0.0
5.58254e-05 1.4074e-05 0.0
0.68058 0.0301887 0.0
0.278703 0.0982508 0.0
0.0698289 0.171074 0.0
-0.0274117 0.217589 0.0
-0.0653945 0.240974 0.0
-0.0750627 0.249304 0.0
-0.0722334 0.248503 0.0
-0.0646363 0.242677 0.0
-0.0559176 0.234411 0.0
-0.047699 0.225209 0.0
-0.0406083 0.215885 0.0
-0.0347976 0.20683 0.0
-0.0302034 0.198194 0.0
-0.0266757 0.189988 0.0
-0.0240409 0.18216 0.0
-0.0221304 0.17463 0.0
-0.0207925 0.167312 0.0
-0.0198959 0.16013 0.0
-0.0193298 0.15302 0.0
-0.0190019 0.145934 0.0
-0.0188362 0.138839 0.0
-0.0187706 0.131716 0.0
-0.0187553 0.124559 0.0
-0.0187507 0.117373 0.0
-0.0187261 0.110171 0.0
-0.018658 0.102973 0.0
-0.0185298 0.0958044 0.0
-0.0183297 0.0886934 0.0
-0.0180509 0.0816705 0.0
-0.0176897 0.0747674 0.0
-0.0172456 0.0680156 0.0
-0.0167201 0.0614462 0.0
-0.0161161 0.0550888 0.0
-0.0154376 0.0489717 0.0
-0.0146888 0.0431216 0.0
-0.013874 0.0375633 0.0
-0.0129973 0.0323201 0.0
-0.0120623 0.0274134 0.0
-0.0110719 0.0228634 0.0
-0.0100286 0.018689 0.0
-0.00893511 0.0149075 0.0
-0.00779453 0.0115346 0.0
-0.00661218 0.00858417 0.0
-0.00539756 0.00606697 0.0
-0.00416781 0.00398996 0.0
-0.0029532 0.00235494 0.0
-0.00180541 0.00115344 0.0
-0.000806783 0.000370483 0.0
-9.17833e-05 4.09291e-05 0.0
0.729993 0.0192078 0.0
0.349257 0.0730757 0.0
0.128129 0.139307 0.0
0.0112434 0.188224 0.0
-0.0445675 0.219442 0.0
-0.0666032 0.236342 0.0
-0.0715817 0.243467 0.0
-0.068563 0.244294 0.0
-0.0623209 0.24129 0.0
-0.055292 0.236081 0.0
-0.0486513 0.229679 0.0
-0.0428994 0.222686 0.0
-0.038185 0.215433 0.0
-0.0344808 0.208088 0.0
-0.0316788 0.200719 0.0
-0.0296409 0.193338 0.0
-0.0282251 0.185933 0.0
-0.0272978 0.178481 0.0
-0.0267398 0.170961 0.0
-0.0264475 0.163354 0.0
-0.026333 0.155655 0.0
-0.026323 0.147862 0.0
-0.0263575 0.139988 0.0
-0.0263884 0.132048 0.0
-0.026378 0.124067 0.0
-0.0262978 0.116075 0.0
-0.0261271 0.108103 0.0
-0.0258521 0.100188 0.0
-0.0254646 0.092365 0.0
-0.0249608 0.0846711 0.0
-0.0243408 0.077142 0.0
-0.023607 0.0698123 0.0
-0.0227642 0.0627148 0.0
-0.0218179 0.0558806 0.0
-0.0207744 0.0493385 0.0
-0.0196397 0.0431152 0.0
-0.0184199 0.0372354 0.0
-0.0171199 0.0317223 0.0
-0.0157445 0.0265968 0.0
-0.0142976 0.0218786 0.0
-0.0127834 0.0175859 0.0
-0.0112071 0.0137348 0.0
-0.00957637 0.0103399 0.0
-0.00790387 0.00741318 0.0
-0.00621089 0.00496367 0.0
-0.00453271 0.00299753 0.0
-0.00292617 0.00151309 0.0
-0.00147743 0.000509046 0.0
-0.000319092 6.38852e-05 0.0
0.766001 0.0125959 0.0
0.408665 0.0556889 0.0
0.183045 0.114457 0.0
0.0526166 0.162434 0.0
-0.0175964 0.197404 0.0
-0.0511971 0.219999 0.0
-0.0643993 0.233068 0.0
-0.0668802 0.239382 0.0
-0.064167 0.241087 0.0
-0.0593293 0.239728 0.0
-0.0540129 0.236365 0.0
-0.0490477 0.231696 0.0
-0.0448022 0.226165 0.0
-0.0413903 0.220046 0.0
-0.0387907 0.2135 0.0
-0.0369154 0.206622 0.0
-0.0356485 0.199463 0.0
-0.0348681 0.192052 0.0
-0.0344567 0.184412 0.0
-0.034308 0.176558 0.0
-0.0343284 0.168511 0.0
-0.034438 0.160293 0.0
-0.0345705 0.151934 0.0
-0.034672 0.143465 0.0
-0.0347001 0.134922 0.0
-0.0346229 0.126346 0.0
-0.0344175 0.117778 0.0
-0.0340689 0.10926 0.0
-0.0335686 0.100833 0.0
-0.0329136 0.0925406 0.0
-0.0321053 0.0844211 0.0
-0.031148 0.0765126 0.0
-0.0300484 0.0688506 0.0
-0.0288145 0.0614678 0.0
-0.0274547 0.0543945 0.0
-0.0259775 0.0476587 0.0
-0.0243906 0.0412857 0.0
-0.0227013 0.0352989 0.0
-0.0209157 0.0297199 0.0
-0.0190397 0.0245684 0.0
-0.017079 0.0198627 0.0
-0.0150405 0.0156196 0.0
-0.0129337 0.0118542 0.0
-0.0107736 0.00858033 0.0
-0.0085838 0.00581022 0.0
-0.00640144 0.00355574 0.0
-0.00428387 0.00182351 0.0
-0.00231434 0.000626475 0.0
-0.000614796 8.23961e-05 0.0
0.793016 0.00860028 0.0
0.458659 0.0435699 0.0
0.233404 0.0952283 0.0
0.0940792 0.140751 0.0
0.0129722 0.176751 0.0
-0.0310375 0.202918 0.0
-0.0522642 0.220212 0.0
-0.0605923 0.23079 0.0
-0.0620064 0.236415 0.0
-0.0600335 0.238459 0.0
-0.0566956 0.237938 0.0
-0.0531068 0.235568 0.0
-0.0498394 0.231845 0.0
-0.0471477 0.227107 0.0
-0.0451037 0.221581 0.0
-0.0436793 0.215418 0.0
-0.042795 0.208725 0.0
-0.0423491 0.201575 0.0
-0.0422348 0.194029 0.0
-0.042349 0.186136 0.0
-0.0425983 0.177943 0.0
-0.0429007 0.169495 0.0
-0.0431871 0.160839 0.0
-0.0434007 0.152023 0.0
-0.0434972 0.143098 0.0
-0.043443 0.134113 0.0
-0.0432148 0.125119 0.0
-0.0427977 0.116166 0.0
-0.0421845 0.107301 0.0
-0.041374 0.0985706 0.0
-0.0403696 0.0900185 0.0
-0.0391784 0.0816851 0.0
-0.0378098 0.0736079 0.0
-0.0362746 0.065821 0.0
-0.0345841 0.0583554 0.0
-0.0327491 0.0512394 0.0
-0.0307801 0.0444985 0.0
-0.0286861 0.0381558 0.0
-0.0264753 0.0322325 0.0
-0.024155 0.0267481 0.0
-0.0217324 0.0217208 0.0
-0.0192156 0.0171675 0.0
-0.0166155 0.0131045 0.0
-0.0139476 0.00954754 0.0
-0.011236 0.00651265 0.0
-0.00851666 0.00401798 0.0
-0.00584337 0.00207881 0.0
-0.00329142 0.000721483 0.0
-0.000966467 9.67198e-05 0.0
0.813983 0.00614303 0.0
0.501044 0.0349751 0.0
0.279059 0.080349 0.0
0.134186 0.122854 0.0
0.0446772 0.158553 0.0
-0.00790992 0.186437 0.0
-0.0365698 0.206599 0.0
-0.0507173 0.220334 0.0
-0.0565261 0.229065 0.0
-0.0578241 0.23396 0.0
-0.0569162 0.235935 0.0
-0.0551476 0.23568 0.0
-0.0532671 0.233698 0.0
-0.0516577 0.230355 0.0
-0.0504818 0.225917 0.0
-0.049773 0.220575 0.0
-0.0494925 0.214474 0.0
-0.0495643 0.207726 0.0
-0.0498967 0.200421 0.0
-0.0503953 0.192638 0.0
-0.0509707 0.184447 0.0
-0.0515427 0.175917 0.0
-0.0520424 0.167112 0.0
-0.0524133 0.158095 0.0
-0.052611 0.14893 0.0
-0.0526026 0.139677 0.0
-0.052366 0.130397 0.0
-0.0518883 0.121146 0.0
-0.0511646 0.111978 0.0
-0.0501967 0.102945 0.0
-0.0489914 0.0940921 0.0
-0.0475592 0.0854636 0.0
-0.0459132 0.0770981 0.0
-0.0440675 0.0690306 0.0
-0.0420367 0.0612925 0.0
-0.0398348 0.0539116 0.0
-0.0374745 0.0469129 0.0
-0.0349675 0.0403188 0.0
-0.0323236 0.0341497 0.0
-0.0295515 0.0284243 0.0
-0.0266597 0.0231603 0.0
-0.0236567 0.0183749 0.0
-0.0205535 0.0140852 0.0
-0.0173652 0.0103091 0.0
-0.014114 0.0070666 0.0
-0.0108322 0.00438202 0.0
-0.00756667 0.00227877 0.0
-0.0043812 0.000794893 0.0
-0.00136202 0.000107369 0.0
0.830781 0.00459175 0.0
0.537346 0.0287469 0.0
0.320315 0.0687288 0.0
0.172343 0.10809 0.0
0.0765243 0.142739 0.0
0.017002 0.171126 0.0
-0.0184144 0.193109 0.0
-0.0381486 0.209108 0.0
-0.0484005 0.22022 0.0
-0.0531772 0.227418 0.0
-0.0549858 0.231501 0.0
-0.0553515 0.233101 0.0
-0.0551689 0.232704 0.0
-0.0549323 0.230682 0.0
-0.0548865 0.227315 0.0
-0.0551236 0.22282 0.0
-0.0556455 0.217368 0.0
-0.0564035 0.211097 0.0
-0.0573238 0.204124 0.0
-0.0583233 0.196549 0.0
-0.0593197 0.188466 0.0
-0.0602372 0.179961 0.0
-0.0610099 0.171116 0.0
-0.0615834 0.162008 0.0
-0.0619158 0.152714 0.0
-0.0619768 0.143305 0.0
-0.0617471 0.13385 0.0
-0.0612174 0.124413 0.0
-0.0603866 0.115054 0.0
-0.0592609 0.105828 0.0
-0.0578513 0.0967857 0.0
-0.056173 0.0879714 0.0
-0.0542434 0.0794257 0.0
-0.0520807 0.0711838 0.0
-0.0497035 0.0632769 0.0
-0.0471291 0.055732 0.0
-0.0443731 0.0485731 0.0
-0.0414495 0.0418213 0.0
-0.03837 0.0354955 0.0
-0.0351445 0.0296136 0.0
-0.0317818 0.0241923 0.0
-0.0282907 0.0192487 0.0
-0.0246811 0.0148008 0.0
-0.0209659 0.0108685 0.0
-0.0171638 0.00747521 0.0
-0.0133012 0.00465086 0.0
-0.00941557 0.00242605 0.0
-0.00555685 0.000848433 0.0
-0.00179034 0.000114894 0.0
0.844609 0.00357984 0.0
0.568767 0.0241298 0.0
0.357604 0.0595519 0.0
0.208276 0.0958869 0.0
0.107759 0.12911 0.0
0.0424806 0.157362 0.0
0.00136305 0.180193 0.0
-0.0236166 0.197766 0.0
-0.0382268 0.210649 0.0
-0.0465545 0.219653 0.0
-0.051242 0.225459 0.0
-0.0539503 0.228633 0.0
-0.0556906 0.229626 0.0
-0.0570505 0.228798 0.0
-0.0583459 0.226432 0.0
-0.0597215 0.222756 0.0
-0.0612169 0.217957 0.0
-0.0628102 0.212191 0.0
-0.0644459 0.205593 0.0
-0.0660536 0.198284 0.0
-0.0675596 0.190375 0.0
-0.0688941 0.181968 0.0
-0.0699962 0.17316 0.0
-0.0708158 0.164043 0.0
-0.0713149 0.154704 0.0
-0.0714675 0.145225 0.0
-0.071259 0.135683 0.0
-0.0706851 0.12615 0.0
-0.0697503 0.116691 0.0
-0.0684659 0.107365 0.0
-0.0668489 0.0982245 0.0
-0.0649198 0.0893174 0.0
-0.0627014 0.0806841 0.0
-0.0602168 0.0723599 0.0
-0.0574889 0.0643751 0.0
-0.0545389 0.0567556 0.0
-0.0513856 0.0495237 0.0
-0.0480453 0.0426988 0.0
-0.0445314 0.0362982 0.0
-0.0408549 0.0303379 0.0
-0.0370245 0.0248338 0.0
-0.0330481 0.0198024 0.0
-0.0289336 0.0152621 0.0
-0.0246906 0.0112343 0.0
-0.0203324 0.00774545 0.0
-0.0158779 0.00483002 0.0
-0.0113533 0.00252451 0.0
-0.00679315 0.000884081 0.0
-0.00224149 0.000119791 0.0
0.856255 0.00289384 0.0
0.596251 0.0206236 0.0
0.391396 0.0522018 0.0
0.241962 0.0857214 0.0
0.138031 0.117341 0.0
0.0680432 0.145051 0.0
0.0220084 0.168147 0.0
-0.00773575 0.186677 0.0
-0.0265222 0.200837 0.0
-0.0383767 0.211214 0.0
-0.0460133 0.218391 0.0
-0.05119 0.222861 0.0
-0.0550078 0.225035 0.0
-0.0581295 0.22525 0.0
-0.0609304 0.223783 0.0
-0.0636003 0.220863 0.0
-0.0662123 0.216683 0.0
-0.0687686 0.211414 0.0
-0.0712312 0.205202 0.0
-0.0735422 0.198184 0.0
-0.0756371 0.190484 0.0
-0.0774533 0.182219 0.0
-0.078936 0.1735 0.0
-0.0800406 0.16443 0.0
-0.0807348 0.155108 0.0
-0.0809984 0.145624 0.0
-0.080823 0.136065 0.0
-0.0802108 0.126507 0.0
-0.0791729 0.117022 0.0
-0.0777278 0.107673 0.0
-0.0758991 0.0985136 0.0
-0.073714 0.0895934 0.0
-0.0712014 0.0809532 0.0
-0.0683902 0.0726277 0.0
-0.0653081 0.0646459 0.0
-0.0619807 0.0570322 0.0
-0.0584302 0.0498065 0.0
-0.0546753 0.0429862 0.0
-0.050731 0.0365862 0.0
-0.0466089 0.0306207 0.0
-0.0423173 0.025104 0.0
-0.0378624 0.0200517 0.0
-0.033249 0.0154819 0.0
-0.0284823 0.011417 0.0
-0.023569 0.00788573 0.0
-0.0185186 0.0049258 0.0
-0.0133451 0.00257823 0.0
-0.00806689 0.00090372 0.0
-0.00270667 0.00012247 0.0
0.866249 0.00240915 0.0
0.620525 0.017897 0.0
0.422124 0.0462271 0.0
0.273469 0.0771752 0.0
0.167126 0.107141 0.0
0.0932834 0.134062 0.0
0.0429776 0.157062 0.0
0.00907992 0.176001 0.0
-0.0136955 0.191052 0.0
-0.0290032 0.202448 0.0
-0.0395989 0.210687 0.0
-0.0473094 0.216199 0.0
-0.0533042 0.219349 0.0
-0.0583052 0.220448 0.0
-0.0627356 0.219759 0.0
-0.0668225 0.217509 0.0
-0.0706673 0.213892 0.0
-0.0742929 0.209084 0.0
-0.0776769 0.203243 0.0
-0.0807729 0.196515 0.0
-0.0835253 0.189036 0.0
-0.0858792 0.180936 0.0
-0.0877864 0.172336 0.0
-0.089209 0.163351 0.0
-0.0901216 0.154089 0.0
-0.090511 0.144651 0.0
-0.0903766 0.135128 0.0
-0.0897285 0.125605 0.0
-0.0885858 0.116156 0.0
-0.0869753 0.106848 0.0
-0.0849287 0.0977379 0.0
-0.0824808 0.0888745 0.0
-0.0796676 0.080299 0.0
-0.0765245 0.0720448 0.0
-0.0730848 0.0641395 0.0
-0.0693785 0.0566048 0.0
-0.0654318 0.0494584 0.0
-0.0612658 0.0427148 0.0
-0.0568969 0.0363863 0.0
-0.0523371 0.0304846 0.0
-0.0475936 0.0250219 0.0
-0.0426702 0.0200124 0.0
-0.037568 0.0154734 0.0
-0.0322865 0.0114274 0.0
-0.0268247 0.00790439 0.0
-0.0211819 0.00494421 0.0
-0.0153586 0.00259094 0.0
-0.00935678 0.000908959 0.0
-0.00317807 0.000123248 0.0
0.874958 0.00205221 0.0
0.642153 0.0157272 0.0
0.450173 0.0412955 0.0
0.302919 0.0699136 0.0
0.194948 0.098243 0.0
0.117963 0.124231 0.0
0.0639439 0.146894 0.0
0.026273 0.165944 0.0
-9.59984e-05 0.181455 0.0
-0.0187408 0.193579 0.0
-0.0322645 0.202609 0.0
-0.0425315 0.208928 0.0
-0.050761 0.212859 0.0
-0.0577205 0.214682 0.0
-0.0638707 0.214646 0.0
-0.0694686 0.212968 0.0
-0.0746379 0.20984 0.0
-0.079419 0.205442 0.0
-0.083802 0.199937 0.0
-0.0877505 0.19348 0.0
-0.0912173 0.186216 0.0
-0.0941548 0.178285 0.0
-0.0965219 0.169819 0.0
-0.0982882 0.160943 0.0
-0.0994359 0.151772 0.0
-0.0999604 0.142416 0.0
-0.0998698 0.132973 0.0
-0.0991836 0.123533 0.0
-0.0979305 0.114173 0.0
-0.0961467 0.104964 0.0
-0.0938732 0.0959627 0.0
-0.0911534 0.0872193 0.0
-0.0880315 0.0787735 0.0
-0.08455 0.0706576 0.0
-0.0807485 0.0628965 0.0
-0.076662 0.0555094 0.0
-0.0723203 0.0485107 0.0
-0.0677475 0.0419118 0.0
-0.0629613 0.0357219 0.0
-0.0579733 0.0299496 0.0
-0.0527895 0.0246047 0.0
-0.0474109 0.0196989 0.0
-0.0418337 0.0152485 0.0
-0.0360511 0.0112751 0.0
-0.0300532 0.00780884 0.0
-0.0238285 0.00489047 0.0
-0.0173636 0.00256574 0.0
-0.0106432 0.000901061 0.0
-0.00364864 0.000122348 0.0
0.88264 0.00177861 0.0
0.66157 0.0139615 0.0
0.475872 0.03716 0.0
0.330451 0.0636687 0.0
0.221467 0.0904118 0.0
0.141932 0.115382 0.0
0.0846882 0.137532 0.0
0.0436219 0.156468 0.0
0.0139508 0.172153 0.0
-0.00786315 0.184727 0.0
-0.0242499 0.194316 0.0
-0.0370623 0.201231 0.0
-0.0475519 0.205759 0.0
-0.0565187 0.208153 0.0
-0.0644516 0.208641 0.0
-0.0716295 0.20743 0.0
-0.0781937 0.204709 0.0
-0.0841973 0.200656 0.0
-0.0896406 0.19544 0.0
-0.0944952 0.189221 0.0
-0.0987209 0.182154 0.0
-0.102277 0.174386 0.0
-0.10513 0.166057 0.0
-0.107257 0.157302 0.0
-0.108649 0.148244 0.0
-0.109311 0.138999 0.0
-0.109261 0.129672 0.0
-0.108529 0.120356 0.0
-0.107156 0.111133 0.0
-0.105187 0.102073 0.0
-0.102674 0.0932368 0.0
-0.0996705 0.0846718 0.0
-0.0962297 0.076417 0.0
-0.0924019 0.0685022 0.0
-0.0882333 0.0609496 0.0
-0.0837645 0.053775 0.0
-0.0790294 0.0469893 0.0
-0.0740547 0.0406002 0.0
-0.0688592 0.034613 0.0
-0.0634543 0.0290332 0.0
-0.0578442 0.0238671 0.0
-0.0520262 0.0191239 0.0
-0.0459916 0.0148175 0.0
-0.039726 0.0109683 0.0
-0.0332104 0.00760517 0.0
-0.0264215 0.00476871 0.0
-0.0193314 0.00250498 0.0
-0.0119079 0.00088094 0.0
-0.00411193 0.000119917 0.0
0.889481 0.00156082 0.0
0.679113 0.0124929 0.0
0.499492 0.0336349 0.0
0.3562 0.0582275 0.0
0.246682 0.083447 0.0
0.165084 0.107354 0.0
0.105033 0.128867 0.0
0.0608971 0.147518 0.0
0.0281616 0.163183 0.0
0.00342119 0.175929 0.0
-0.0157576 0.185885 0.0
-0.0310869 0.193208 0.0
-0.0438395 0.198167 0.0
-0.0548395 0.200984 0.0
-0.0645954 0.201869 0.0
-0.073402 0.201017 0.0
-0.0814123 0.198614 0.0
-0.0886885 0.194835 0.0
-0.0952377 0.189853 0.0
-0.101038 0.183832 0.0
-0.106054 0.176933 0.0
-0.110253 0.169312 0.0
-0.113607 0.161117 0.0
-0.116103 0.152489 0.0
-0.117739 0.14356 0.0
-0.118534 0.13445 0.0
-0.118514 0.12527 0.0
-0.117724 0.116117 0.0
-0.116214 0.107074 0.0
-0.114043 0.0982135 0.0
-0.111275 0.0895945 0.0
-0.107974 0.0812643 0.0
-0.104202 0.0732592 0.0
-0.100018 0.0656063 0.0
-0.0954759 0.0583242 0.0
-0.0906224 0.051425 0.0
-0.0854952 0.0449154 0.0
-0.0801238 0.0387988 0.0
-0.0745282 0.0330765 0.0
-0.0687192 0.0277499 0.0
-0.0626988 0.0228217 0.0
-0.0564603 0.0182977 0.0
-0.0499891 0.0141891 0.0
-0.0432632 0.0105135 0.0
-0.0362539 0.00729817 0.0
-0.0289253 0.00458206 0.0
-0.0212351 0.00241038 0.0
-0.0131336 0.000849194 0.0
-0.00456187 0.000116029 0.0
0.895615 0.00138122 0.0
0.695041 0.0112446 0.0
0.52126 0.0305788 0.0
0.380287 0.053419 0.0
0.27061 0.0771777 0.0
0.187352 0.0999962 0.0
0.124854 0.120782 0.0
0.0779385 0.139011 0.0
0.0423591 0.154496 0.0
0.0148509 0.167237 0.0
-0.0069842 0.177349 0.0
-0.0247785 0.18491 0.0
-0.0397777 0.190139 0.0
-0.0528179 0.193238 0.0
-0.0644191 0.194395 0.0
-0.0748853 0.193796 0.0
-0.0843761 0.191619 0.0
-0.0929589 0.188039 0.0
-0.100645 0.18323 0.0
-0.107416 0.17736 0.0
-0.113242 0.170598 0.0
-0.118095 0.163104 0.0
-0.121954 0.155034 0.0
-0.124816 0.146537 0.0
-0.126689 0.137749 0.0
-0.127602 0.128797 0.0
-0.127596 0.119794 0.0
-0.126727 0.110841 0.0