# vtk DataFile Version 3.0
Malha 2D com triângulos e temperatura
ASCII
DATASET UNSTRUCTURED_GRID

POINTS 2500 double
0 0 0
1 0 0
1 1 0
0 1 0
0.0204082 0 0
0.0408163 0 0
0.0612245 0 0
0.0816327 0 0
0.102041 0 0
0.122449 0 0
0.142857 0 0
0.163265 0 0
0.183673 0 0
0.204082 0 0
0.22449 0 0
0.244898 0 0
0.265306 0 0
0.285714 0 0
0.306122 0 0
0.326531 0 0
0.346939 0 0
0.367347 0 0
0.387755 0 0
0.408163 0 0
0.428571 0 0
0.44898 0 0
0.469388 0 0
0.489796 0 0
0.510204 0 0
0.530612 0 0
0.55102 0 0
0.571429 0 0
0.591837 0 0
0.612245 0 0
0.632653 0 0
0.653061 0 0
0.673469 0 0
0.693878 0 0
0.714286 0 0
0.734694 0 0
0.755102 0 0
0.77551 0 0
0.795918 0 0
0.816327 0 0
0.836735 0 0
0.857143 0 0
0.877551 0 0
0.897959 0 0
0.918367 0 0
0.938776 0 0
0.959184 0 0
0.979592 0 0
1 0.0204082 0
1 0.0408163 0
1 0.0612245 0
1 0.0816327 0
1 0.102041 0
1 0.122449 0
1 0.142857 0
1 0.163265 0
1 0.183673 0
1 0.204082 0
1 0.22449 0
1 0.244898 0
1 0.265306 0
1 0.285714 0
1 0.306122 0
1 0.326531 0
1 0.346939 0
1 0.367347 0
1 0.387755 0
1 0.408163 0
1 0.428571 0
1 0.44898 0
1 0.469388 0
1 0.489796 0
1 0.510204 0
1 0.530612 0
1 0.55102 0
1 0.571429 0
1 0.591837 0
1 0.612245 0
1 0.632653 0
1 0.653061 0
1 0.673469 0
1 0.693878 0
1 0.714286 0
1 0.734694 0
1 0.755102 0
1 0.77551 0
1 0.795918 0
1 0.816327 0
1 0.836735 0
1 0.857143 0
1 0.877551 0
1 0.897959 0
1 0.918367 0
1 0.938776 0
1 0.959184 0
1 0.979592 0
0.979592 1 0
0.959184 1 0
0.938776 1 0
0.918367 1 0
0.897959 1 0
0.877551 1 0
0.857143 1 0
0.836735 1 0
0.816327 1 0
0.795918 1 0
0.77551 1 0
0.755102 1 0
0.734694 1 0
0.714286 1 0
0.693878 1 0
0.673469 1 0
0.653061 1 0
0.632653 1 0
0.612245 1 0
0.591837 1 0
0.571429 1 0
0.55102 1 0
0.530612 1 0
0.510204 1 0
0.489796 1 0
0.469388 1 0
0.44898 1 0
0.428571 1 0
0.408163 1 0
0.387755 1 0
0.367347 1 0
0.346939 1 0
0.326531 1 0
0.306122 1 0
0.285714 1 0
0.265306 1 0
0.244898 1 0
0.22449 1 0
0.204082 1 0
0.183673 1 0
0.163265 1 0
0.142857 1 0
0.122449 1 0
0.102041 1 0
0.0816327 1 0
0.0612245 1 0
0.0408163 1 0
0.0204082 1 0
0 0.979592 0
0 0.959184 0
0 0.938776 0
0 0.918367 0
0 0.897959 0
0 0.877551 0
0 0.857143 0
0 0.836735 0
0 0.816327 0
0 0.795918 0
0 0.77551 0
0 0.755102 0
0 0.734694 0
0 0.714286 0
0 0.693878 0
0 0.673469 0
0 0.653061 0
0 0.632653 0
0 0.612245 0
0 0.591837 0
0 0.571429 0
0 0.55102 0
0 0.530612 0
0 0.510204 0
0 0.489796 0
0 0.469388 0
0 0.44898 0
0 0.428571 0
0 0.408163 0
0 0.387755 0
0 0.367347 0
0 0.346939 0
0 0.326531 0
0 0.306122 0
0 0.285714 0
0 0.265306 0
0 0.244898 0
0 0.22449 0
0 0.204082 0
0 0.183673 0
0 0.163265 0
0 0.142857 0
0 0.122449 0
0 0.102041 0
0 0.0816327 0
0 0.0612245 0
0 0.0408163 0
0 0.0204082 0
0.0204082 0.979592 0
0.0204082 0.959184 0
0.0204082 0.938776 0
0.0204082 0.918367 0
0.0204082 0.897959 0
0.0204082 0.877551 0
0.0204082 0.857143 0
0.0204082 0.836735 0
0.0204082 0.816327 0
0.0204082 0.795918 0
0.0204082 0.77551 0
0.0204082 0.755102 0
0.0204082 0.734694 0
0.0204082 0.714286 0
0.0204082 0.693878 0
0.0204082 0.673469 0
0.0204082 0.653061 0
0.0204082 0.632653 0
0.0204082 0.612245 0
0.0204082 0.591837 0
0.0204082 0.571429 0
0.0204082 0.55102 0
0.0204082 0.530612 0
0.0204082 0.510204 0
0.0204082 0.489796 0
0.0204082 0.469388 0
0.0204082 0.44898 0
0.0204082 0.428571 0
0.0204082 0.408163 0
0.0204082 0.387755 0
0.0204082 0.367347 0
0.0204082 0.346939 0
0.0204082 0.326531 0
0.0204082 0.306122 0
0.0204082 0.285714 0
0.0204082 0.265306 0
0.0204082 0.244898 0
0.0204082 0.22449 0
0.0204082 0.204082 0
0.0204082 0.183673 0
0.0204082 0.163265 0
0.0204082 0.142857 0
0.0204082 0.122449 0
0.0204082 0.102041 0
0.0204082 0.0816327 0
0.0204082 0.0612245 0
0.0204082 0.0408163 0
0.0204082 0.0204082 0
0.0408163 0.979592 0
0.0408163 0.959184 0
0.0408163 0.938776 0
0.0408163 0.918367 0
0.0408163 0.897959 0
0.0408163 0.877551 0
0.0408163 0.857143 0
0.0408163 0.836735 0
0.0408163 0.816327 0
0.0408163 0.795918 0
0.0408163 0.77551 0
0.0408163 0.755102 0
0.0408163 0.734694 0
0.0408163 0.714286 0
0.0408163 0.693878 0
0.0408163 0.673469 0
0.0408163 0.653061 0
0.0408163 0.632653 0
0.0408163 0.612245 0
0.0408163 0.591837 0
0.0408163 0.571429 0
0.0408163 0.55102 0
0.0408163 0.530612 0
0.0408163 0.510204 0
0.0408163 0.489796 0
0.0408163 0.469388 0
0.0408163 0.44898 0
0.0408163 0.428571 0
0.0408163 0.408163 0
0.0408163 0.387755 0
0.0408163 0.367347 0
0.0408163 0.346939 0
0.0408163 0.326531 0
0.0408163 0.306122 0
0.0408163 0.285714 0
0.0408163 0.265306 0
0.0408163 0.244898 0
0.0408163 0.22449 0
0.0408163 0.204082 0
0.0408163 0.183673 0
0.0408163 0.163265 0
0.0408163 0.142857 0
0.0408163 0.122449 0
0.0408163 0.102041 0
0.0408163 0.0816327 0
0.0408163 0.0612245 0
0.0408163 0.0408163 0
0.0408163 0.0204082 0
0.0612245 0.979592 0
0.0612245 0.959184 0
0.0612245 0.938776 0
0.0612245 0.918367 0
0.0612245 0.897959 0
0.0612245 0.877551 0
0.0612245 0.857143 0
0.0612245 0.836735 0
0.0612245 0.816327 0
0.0612245 0.795918 0
0.0612245 0.77551 0
0.0612245 0.755102 0
0.0612245 0.734694 0
0.0612245 0.714286 0
0.0612245 0.693878 0
0.0612245 0.673469 0
0.0612245 0.653061 0
0.0612245 0.632653 0
0.0612245 0.612245 0
0.0612245 0.591837 0
0.0612245 0.571429 0
0.0612245 0.55102 0
0.0612245 0.530612 0
0.0612245 0.510204 0
0.0612245 0.489796 0
0.0612245 0.469388 0
0.0612245 0.44898 0
0.0612245 0.428571 0
0.0612245 0.408163 0
0.0612245 0.387755 0
0.0612245 0.367347 0
0.0612245 0.346939 0
0.0612245 0.326531 0
0.0612245 0.306122 0
0.0612245 0.285714 0
0.0612245 0.265306 0
0.0612245 0.244898 0
0.0612245 0.22449 0
0.0612245 0.204082 0
0.0612245 0.183673 0
0.0612245 0.163265 0
0.0612245 0.142857 0
0.0612245 0.122449 0
0.0612245 0.102041 0
0.0612245 0.0816327 0
0.0612245 0.0612245 0
0.0612245 0.0408163 0
0.0612245 0.0204082 0
0.0816327 0.979592 0
0.0816327 0.959184 0
0.0816327 0.938776 0
0.0816327 0.918367 0
0.0816327 0.897959 0
0.0816327 0.877551 0
0.0816327 0.857143 0
0.0816327 0.836735 0
0.0816327 0.816327 0
0.0816327 0.795918 0
0.0816327 0.77551 0
0.0816327 0.755102 0
0.0816327 0.734694 0
0.0816327 0.714286 0
0.0816327 0.693878 0
0.0816327 0.673469 0
0.0816327 0.653061 0
0.0816327 0.632653 0
0.0816327 0.612245 0
0.0816327 0.591837 0
0.0816327 0.571429 0
0.0816327 0.55102 0
0.0816327 0.530612 0
0.0816327 0.510204 0
0.0816327 0.489796 0
0.0816327 0.469388 0
0.0816327 0.44898 0
0.0816327 0.428571 0
0.0816327 0.408163 0
0.0816327 0.387755 0
0.0816327 0.367347 0
0.0816327 0.346939 0
0.0816327 0.326531 0
0.0816327 0.306122 0
0.0816327 0.285714 0
0.0816327 0.265306 0
0.0816327 0.244898 0
0.0816327 0.22449 0
0.0816327 0.204082 0
0.0816327 0.183673 0
0.0816327 0.163265 0
0.0816327 0.142857 0
0.0816327 0.122449 0
0.0816327 0.102041 0
0.0816327 0.0816327 0
0.0816327 0.0612245 0
0.0816327 0.0408163 0
0.0816327 0.0204082 0
0.102041 0.979592 0
0.102041 0.959184 0
0.102041 0.938776 0
0.102041 0.918367 0
0.102041 0.897959 0
0.102041 0.877551 0
0.102041 0.857143 0
0.102041 0.836735 0
0.102041 0.816327 0
0.102041 0.795918 0
0.102041 0.77551 0
0.102041 0.755102 0
0.102041 0.734694 0
0.102041 0.714286 0
0.102041 0.693878 0
0.102041 0.673469 0
0.102041 0.653061 0
0.102041 0.632653 0
0.102041 0.612245 0
0.102041 0.591837 0
0.102041 0.571429 0
0.102041 0.55102 0
0.102041 0.530612 0
0.102041 0.510204 0
0.102041 0.489796 0
0.102041 0.469388 0
0.102041 0.44898 0
0.102041 0.428571 0
0.102041 0.408163 0
0.102041 0.387755 0
0.102041 0.367347 0
0.102041 0.346939 0
0.102041 0.326531 0
0.102041 0.306122 0
0.102041 0.285714 0
0.102041 0.265306 0
0.102041 0.244898 0
0.102041 0.22449 0
0.102041 0.204082 0
0.102041 0.183673 0
0.102041 0.163265 0
0.102041 0.142857 0
0.102041 0.122449 0
0.102041 0.102041 0
0.102041 0.0816327 0
0.102041 0.0612245 0
0.102041 0.0408163 0
0.102041 0.0204082 0
0.122449 0.979592 0
0.122449 0.959184 0
0.122449 0.938776 0
0.122449 0.918367 0
0.122449 0.897959 0
0.122449 0.877551 0
0.122449 0.857143 0
0.122449 0.836735 0
0.122449 0.816327 0
0.122449 0.795918 0
0.122449 0.77551 0
0.122449 0.755102 0
0.122449 0.734694 0
0.122449 0.714286 0
0.122449 0.693878 0
0.122449 0.673469 0
0.122449 0.653061 0
0.122449 0.632653 0
0.122449 0.612245 0
0.122449 0.591837 0
0.122449 0.571429 0
0.122449 0.55102 0
0.122449 0.530612 0
0.122449 0.510204 0
0.122449 0.489796 0
0.122449 0.469388 0
0.122449 0.44898 0
0.122449 0.428571 0
0.122449 0.408163 0
0.122449 0.387755 0
0.122449 0.367347 0
0.122449 0.346939 0
0.122449 0.326531 0
0.122449 0.306122 0
0.122449 0.285714 0
0.122449 0.265306 0
0.122449 0.244898 0
0.122449 0.22449 0
0.122449 0.204082 0
0.122449 0.183673 0
0.122449 0.163265 0
0.122449 0.142857 0
0.122449 0.122449 0
0.122449 0.102041 0
0.122449 0.0816327 0
0.122449 0.0612245 0
0.122449 0.0408163 0
0.122449 0.0204082 0
0.142857 0.979592 0
0.142857 0.959184 0
0.142857 0.938776 0
0.142857 0.918367 0
0.142857 0.897959 0
0.142857 0.877551 0
0.142857 0.857143 0
0.142857 0.836735 0
0.142857 0.816327 0
0.142857 0.795918 0
0.142857 0.77551 0
0.142857 0.755102 0
0.142857 0.734694 0
0.142857 0.714286 0
0.142857 0.693878 0
0.142857 0.673469 0
0.142857 0.653061 0
0.142857 0.632653 0
0.142857 0.612245 0
0.142857 0.591837 0
0.142857 0.571429 0
0.142857 0.55102 0
0.142857 0.530612 0
0.142857 0.510204 0
0.142857 0.489796 0
0.142857 0.469388 0
0.142857 0.44898 0
0.142857 0.428571 0
0.142857 0.408163 0
0.142857 0.387755 0
0.142857 0.367347 0
0.142857 0.346939 0
0.142857 0.326531 0
0.142857 0.306122 0
0.142857 0.285714 0
0.142857 0.265306 0
0.142857 0.244898 0
0.142857 0.22449 0
0.142857 0.204082 0
0.142857 0.183673 0
0.142857 0.163265 0
0.142857 0.142857 0
0.142857 0.122449 0
0.142857 0.102041 0
0.142857 0.0816327 0
0.142857 0.0612245 0
0.142857 0.0408163 0
0.142857 0.0204082 0
0.163265 0.979592 0
0.163265 0.959184 0
0.163265 0.938776 0
0.163265 0.918367 0
0.163265 0.897959 0
0.163265 0.877551 0
0.163265 0.857143 0
0.163265 0.836735 0
0.163265 0.816327 0
0.163265 0.795918 0
0.163265 0.77551 0
0.163265 0.755102 0
0.163265 0.734694 0
0.163265 0.714286 0
0.163265 0.693878 0
0.163265 0.673469 0
0.163265 0.653061 0
0.163265 0.632653 0
0.163265 0.612245 0
0.163265 0.591837 0
0.163265 0.571429 0
0.163265 0.55102 0
[...]
CELL_DATA 2401
VECTORS velocity double
0.257704 0.157442 0.0
-0.00225306 0.265149 0.0
-0.0317905 0.207142 0.0
-0.0249649 0.153158 0.0
-0.0158272 0.116193 0.0
-0.00966298 0.0909422 0.0
-0.00605167 0.0735196 0.0
-0.00398702 0.0611071 0.0
-0.00278101 0.0519048 0.0
-0.00204464 0.0448297 0.0
-0.00157035 0.0392212 0.0
-0.00124839 0.0346631 0.0
-0.00101957 0.0308827 0.0
-0.000850686 0.0276945 0.0
-0.000722218 0.0249673 0.0
-0.000622069 0.0226062 0.0
-0.000542396 0.0205405 0.0
-0.000477902 0.0187163 0.0
-0.000424896 0.0170924 0.0
-0.000380734 0.0156364 0.0
-0.000343489 0.0143226 0.0
-0.000311728 0.0131305 0.0
-0.000284375 0.0120433 0.0
-0.000260609 0.0110476 0.0
-0.000239801 0.0101318 0.0
-0.000221464 0.00928671 0.0
-0.000205215 0.00850417 0.0
-0.000190753 0.00777735 0.0
-0.00017784 0.00710033 0.0
-0.000166281 0.00646794 0.0
-0.00015592 0.00587561 0.0
-0.000146625 0.00531932 0.0
-0.000138284 0.00479548 0.0
-0.000130795 0.00430089 0.0
-0.000124063 0.00383273 0.0
-0.00011799 0.00338854 0.0
-0.000112465 0.00296627 0.0
-0.000107357 0.0025643 0.0
-0.000102501 0.00218156 0.0
-9.76699e-05 0.00181766 0.0
-9.25575e-05 0.00147308 0.0
-8.67328e-05 0.00114944 0.0
-7.95937e-05 0.000849881 0.0
-7.03127e-05 0.000579431 0.0
-5.78105e-05 0.00034549 0.0
-4.09168e-05 0.000158115 0.0
-1.9091e-05 2.91926e-05 0.0
5.82792e-06 -3.11397e-05 0.0
2.16463e-05 -2.15837e-05 0.0
0.341481 0.12335 0.0
0.000872636 0.250957 0.0
-0.0636045 0.274568 0.0
-0.0620345 0.256109 0.0
-0.048026 0.22597 0.0
-0.0352737 0.19569 0.0
-0.0259429 0.169074 0.0
-0.019474 0.14674 0.0
-0.015004 0.128245 0.0
-0.0118604 0.112917 0.0
-0.00959265 0.100122 0.0
-0.00791287 0.0893408 0.0
-0.00663783 0.0801634 0.0
-0.00564904 0.0722732 0.0
-0.00486788 0.0654257 0.0
-0.00424072 0.0594308 0.0
-0.00372997 0.05414 0.0
-0.00330866 0.0494362 0.0
-0.00295704 0.0452262 0.0
-0.00266042 0.0414352 0.0
-0.00240771 0.0380028 0.0
-0.00219044 0.0348796 0.0
-0.00200209 0.0320252 0.0
-0.0018376 0.0294059 0.0
-0.00169297 0.0269936 0.0
-0.00156509 0.0247643 0.0
-0.00145146 0.022698 0.0
-0.00135008 0.020777 0.0
-0.00125934 0.0189864 0.0
-0.00117793 0.0173127 0.0
-0.00110475 0.0157443 0.0
-0.00103887 0.0142709 0.0
-0.000979487 0.0128832 0.0
-0.000925847 0.0115731 0.0
-0.000877234 0.0103334 0.0
-0.000832908 0.00915798 0.0
-0.000792049 0.00804172 0.0
-0.0007537 0.00698074 0.0
-0.000716687 0.00597255 0.0
-0.000679526 0.00501644 0.0
-0.000640309 0.00411381 0.0
-0.000596588 0.00326877 0.0
-0.000545269 0.00248863 0.0
-0.000482599 0.00178451 0.0
-0.000404421 0.00117156 0.0
-0.000307242 0.000668648 0.0
-0.000191156 0.000295144 0.0
-6.55579e-05 6.60735e-05 0.0
3.09413e-05 -5.44233e-06 0.0
0.502431 0.0772192 0.0
0.101822 0.18466 0.0
-0.0367012 0.251663 0.0
-0.0717904 0.268529 0.0
-0.0717992 0.259748 0.0
-0.062176 0.240575 0.0
-0.0514456 0.218323 0.0
-0.042079 0.196419 0.0
-0.0345072 0.176263 0.0
-0.0285396 0.158269 0.0
-0.0238564 0.142414 0.0
-0.0201633 0.128505 0.0
-0.0172253 0.116299 0.0
-0.0148642 0.105557 0.0
-0.0129467 0.0960626 0.0
-0.0113736 0.0876303 0.0
-0.01007 0.0801029 0.0
-0.0089795 0.073349 0.0
-0.0080589 0.067259 0.0
-0.00727495 0.0617421 0.0
-0.00660184 0.0567222 0.0
-0.00601941 0.0521361 0.0
-0.00551182 0.0479305 0.0
-0.00506655 0.0440604 0.0
-0.00467364 0.0404876 0.0
-0.00432514 0.0371796 0.0
-0.00401466 0.034108 0.0
-0.00373703 0.0312486 0.0
-0.00348804 0.0285798 0.0
-0.00326419 0.0260829 0.0
-0.00306257 0.0237411 0.0
-0.00288068 0.0215397 0.0
-0.0027163 0.0194654 0.0
-0.00256738 0.0175064 0.0
-0.00243192 0.0156526 0.0
-0.00230786 0.0138951 0.0
-0.00219292 0.0122267 0.0
-0.00208448 0.0106418 0.0
-0.00197935 0.00913701 0.0
-0.00187362 0.00771125 0.0
-0.00176241 0.00636642 0.0
-0.00163972 0.00510794 0.0
-0.00149831 0.00394534 0.0
-0.00133001 0.00289266 0.0
-0.00112655 0.00196859 0.0
-0.00088209 0.0011958 0.0
-0.000598587 0.000596668 0.0
-0.000294751 0.000191242 0.0
-3.01409e-05 1.97028e-05 0.0
0.612356 0.0483585 0.0
0.199246 0.134811 0.0
0.0143488 0.210343 0.0
-0.0569863 0.246702 0.0
-0.0774953 0.255584 0.0
-0.0777188 0.249573 0.0
-0.0707361 0.235941 0.0
-0.0619439 0.219106 0.0
-0.0534376 0.201526 0.0
-0.0459181 0.184461 0.0
-0.0395187 0.168497 0.0
-0.0341595 0.153853 0.0
-0.0296966 0.140556 0.0
-0.0259804 0.128536 0.0
-0.0228768 0.117687 0.0
-0.0202728 0.107887 0.0
-0.0180755 0.0990197 0.0
-0.0162099 0.0909749 0.0
-0.0146155 0.0836551 0.0
-0.0132439 0.0769744 0.0
-0.0120561 0.0708581 0.0
-0.0110209 0.0652416 0.0
-0.0101133 0.0600689 0.0
-0.00931309 0.0552917 0.0
-0.0086039 0.0508682 0.0
-0.00797257 0.0467618 0.0
-0.00740832 0.0429408 0.0
-0.00690239 0.0393769 0.0
-0.00644751 0.0360456 0.0
-0.00603766 0.0329245 0.0
-0.00566771 0.0299942 0.0
-0.00533324 0.027237 0.0
-0.00503028 0.0246371 0.0
-0.00475515 0.0221806 0.0
-0.00450422 0.0198551 0.0
-0.00427373 0.0176501 0.0
-0.00405955 0.0155569 0.0
-0.00385691 0.0135688 0.0
-0.00366016 0.0116817 0.0
-0.0034624 0.00989396 0.0
-0.00325525 0.00820768 0.0
-0.00302859 0.00662866 0.0
-0.00277063 0.00516722 0.0
-0.00246839 0.00383851 0.0
-0.00210925 0.00266267 0.0
-0.00168442 0.00166447 0.0
-0.00119566 0.000869011 0.0
-0.000665351 0.00030373 0.0
-0.000159154 4.12888e-05 0.0
0.683059 0.0303101 0.0
0.281974 0.0982192 0.0
0.0716826 0.170012 0.0
-0.0282153 0.214547 0.0
-0.0694208 0.235029 0.0
-0.0822656 0.239686 0.0
-0.0821682 0.234554 0.0
-0.0766337 0.223926 0.0
-0.0692344 0.210589 0.0
-0.0616186 0.196242 0.0
-0.0544969 0.181874 0.0
-0.0481285 0.168029 0.0
-0.0425608 0.15498 0.0
-0.037748 0.142839 0.0
-0.0336084 0.131626 0.0
-0.030052 0.121308 0.0
-0.0269927 0.111829 0.0
-0.0243535 0.103123 0.0
-0.022068 0.0951205 0.0
-0.0200799 0.0877544 0.0
-0.0183421 0.0809627 0.0
-0.0168155 0.0746888 0.0
-0.0154681 0.0688818 0.0
-0.0142732 0.0634963 0.0
-0.0132091 0.0584916 0.0
-0.0122577 0.0538318 0.0
-0.0114044 0.0494845 0.0
-0.0106368 0.045421 0.0
-0.00994474 0.0416155 0.0
-0.00931957 0.0380446 0.0
-0.00875395 0.0346876 0.0
-0.00824141 0.0315253 0.0
-0.00777613 0.0285409 0.0
-0.00735262 0.0257191 0.0
-0.00696547 0.0230464 0.0
-0.00660902 0.0205113 0.0
-0.00627707 0.0181041 0.0
-0.00596249 0.0158175 0.0
-0.00565688 0.0136466 0.0
-0.00535016 0.0115895 0.0
-0.00503017 0.0096481 0.0
-0.00468253 0.00782797 0.0
-0.00429065 0.00613949 0.0
-0.00383651 0.00459809 0.0
-0.00330257 0.00322463 0.0
-0.00267567 0.00204573 0.0
-0.00195401 0.00108976 0.0
-0.00115691 0.000392694 0.0
-0.000343832 5.7223e-05 0.0
0.732238 0.0191475 0.0
0.3515 0.0721699 0.0
0.127934 0.136291 0.0
0.00731362 0.182024 0.0
-0.0525081 0.209052 0.0
-0.0783962 0.221076 0.0
-0.0866091 0.222803 0.0
-0.0859578 0.217889 0.0
-0.0811408 0.209007 0.0
-0.0746371 0.197975 0.0
-0.0677273 0.185977 0.0
-0.061045 0.173756 0.0
-0.0548771 0.161763 0.0
-0.0493261 0.150252 0.0
-0.0444002 0.139357 0.0
-0.0400616 0.129133 0.0
-0.0362533 0.119588 0.0
-0.0329127 0.110704 0.0
-0.0299792 0.102448 0.0
-0.0273971 0.0947778 0.0
-0.0251176 0.087651 0.0
-0.0230981 0.0810246 0.0
-0.0213025 0.0748576 0.0
-0.0197003 0.0691115 0.0
-0.0182657 0.0637506 0.0
-0.0169772 0.0587422 0.0
-0.0158168 0.0540564 0.0
-0.0147693 0.0496659 0.0
-0.0138219 0.0455455 0.0
-0.0129637 0.0416725 0.0
-0.0121853 0.038026 0.0
-0.0114783 0.0345869 0.0
-0.010835 0.0313379 0.0
-0.0102482 0.0282633 0.0
-0.0097107 0.0253493 0.0
-0.0092148 0.0225839 0.0
-0.00875221 0.0199568 0.0
-0.00831338 0.0174604 0.0
-0.00788708 0.0150894 0.0
-0.00745993 0.0128414 0.0
-0.00701599 0.0107178 0.0
-0.00653645 0.00872406 0.0
-0.0059998 0.00687018 0.0
-0.0053826 0.00517162 0.0
-0.00466151 0.00364989 0.0
-0.00381716 0.00233352 0.0
-0.00284081 0.00125458 0.0
-0.00174314 0.000457159 0.0
-0.000569545 6.79172e-05 0.0
0.767515 0.0123662 0.0
0.408954 0.0539506 0.0
0.179697 0.109578 0.0
0.0444681 0.153229 0.0
-0.0306079 0.18287 0.0
-0.0686574 0.199434 0.0
-0.0854797 0.20612 0.0
-0.090504 0.205838 0.0
-0.0891917 0.200937 0.0
-0.0846746 0.193154 0.0
-0.0787306 0.183712 0.0
-0.0723508 0.173446 0.0
-0.0660694 0.162908 0.0
-0.0601558 0.152452 0.0
-0.0547285 0.142296 0.0
-0.0498209 0.132568 0.0
-0.045421 0.123332 0.0
-0.0414936 0.114615 0.0
-0.0379944 0.10642 0.0
-0.0348765 0.0987326 0.0
-0.032095 0.0915316 0.0
-0.0296087 0.0847899 0.0
-0.0273811 0.0784788 0.0
-0.0253801 0.0725693 0.0
-0.0235782 0.0670326 0.0
-0.0219518 0.0618415 0.0
-0.0204806 0.05697 0.0
-0.0191476 0.0523935 0.0
-0.017938 0.0480892 0.0
-0.016839 0.0440358 0.0
-0.0158396 0.0402134 0.0
-0.0149295 0.0366037 0.0
-0.0140997 0.0331897 0.0
-0.0133411 0.0299561 0.0
-0.0126449 0.0268891 0.0
-0.0120015 0.0239766 0.0
-0.0114005 0.0212084 0.0
-0.01083 0.0185763 0.0
-0.0102759 0.0160749 0.0
-0.00972172 0.0137017 0.0
-0.00914757 0.0114574 0.0
-0.00853023 0.00934713 0.0
-0.00784306 0.0073807 0.0
-0.00705674 0.00557355 0.0
-0.00614114 0.00394787 0.0
-0.00506897 0.00253415 0.0
-0.00382167 0.00136798 0.0
-0.00239738 0.000500163 0.0
-0.000823177 7.44964e-05 0.0
0.793354 0.00823207 0.0
0.456133 0.041112 0.0
0.225873 0.0887031 0.0
0.080591 0.128908 0.0
-0.00644222 0.158687 0.0
-0.0552342 0.177715 0.0
-0.0802951 0.187693 0.0
-0.0912014 0.190894 0.0
-0.0938641 0.18926 0.0
-0.0918871 0.184347 0.0
-0.0874506 0.177324 0.0
-0.0818585 0.169038 0.0
-0.0758766 0.160084 0.0
-0.0699409 0.150873 0.0
-0.0642866 0.141679 0.0
-0.0590277 0.132679 0.0
-0.0542066 0.123986 0.0
-0.0498249 0.115665 0.0
-0.0458617 0.107747 0.0
-0.0422854 0.100247 0.0
-0.0390604 0.0931609 0.0
-0.0361509 0.08648 0.0
-0.0335232 0.0801881 0.0
-0.0311465 0.0742663 0.0
-0.0289934 0.068694 0.0
-0.0270399 0.0634501 0.0
-0.0252648 0.0585135 0.0
-0.02365 0.0538636 0.0
-0.0221796 0.0494803 0.0
-0.0208396 0.0453446 0.0
-0.0196175 0.0414384 0.0
-0.018502 0.0377445 0.0
-0.0174826 0.034247 0.0
-0.0165488 0.0309312 0.0
-0.0156902 0.0277837 0.0
-0.0148956 0.0247927 0.0
-0.0141526 0.0219481 0.0
-0.0134468 0.0192417 0.0
-0.0127618 0.016668 0.0
-0.0120775 0.0142241 0.0
-0.0113706 0.0119105 0.0
-0.0106132 0.00973202 0.0
-0.00977334 0.0076982 0.0
-0.00881534 0.0058246 0.0
-0.00770142 0.0041341 0.0
-0.0063949 0.00265889 0.0
-0.00486543 0.00143749 0.0
-0.00309617 0.00052566 0.0
-0.00109413 7.80348e-05 0.0
0.81278 0.0056681 0.0
0.494957 0.0319165 0.0
0.266453 0.0723974 0.0
0.114484 0.108704 0.0
0.0182811 0.137247 0.0
-0.0397242 0.157294 0.0
-0.0723395 0.169288 0.0
-0.0889798 0.174966 0.0
-0.0957697 0.175872 0.0
-0.0966315 0.173344 0.0
-0.0940536 0.168451 0.0
-0.0895997 0.162002 0.0
-0.0842398 0.154596 0.0
-0.078565 0.146665 0.0
-0.0729243 0.138514 0.0
-0.0675144 0.130357 0.0
-0.0624365 0.122335 0.0
-0.0577333 0.114543 0.0
-0.0534127 0.107041 0.0
-0.0494629 0.0998612 0.0
-0.0458615 0.0930214 0.0
-0.0425815 0.0865259 0.0
-0.0395948 0.0803713 0.0
-0.0368742 0.0745488 0.0
-0.0343943 0.069046 0.0
-0.0321322 0.0638483 0.0
-0.0300671 0.0589397 0.0
-0.0281808 0.0543039 0.0
-0.0264569 0.0499241 0.0
-0.0248809 0.0457839 0.0
-0.0234396 0.0418672 0.0
-0.0221208 0.0381585 0.0
-0.0209129 0.0346432 0.0
-0.0198044 0.0313073 0.0
-0.0187833 0.0281383 0.0
-0.0178371 0.0251248 0.0
-0.0169515 0.022257 0.0
-0.01611 0.0195268 0.0
-0.0152936 0.0169285 0.0
-0.0144792 0.0144593 0.0
-0.0136396 0.0121195 0.0
-0.0127425 0.00991344 0.0
-0.0117504 0.00785072 0.0
-0.0106207 0.00594693 0.0
-0.00930738 0.00422553 0.0
-0.00776333 0.00272 0.0
-0.00594516 0.00147098 0.0
-0.00381989 0.000537315 0.0
-0.00137413 7.93673e-05 0.0
0.827751 0.00404313 0.0
0.527063 0.0252251 0.0
0.301843 0.0596351 0.0
0.14558 0.0920754 0.0
0.0422503 0.118838 0.0
-0.0233063 0.138797 0.0
-0.0626359 0.151861 0.0
-0.0846543 0.159185 0.0
-0.095513 0.161972 0.0
-0.0993259 0.161343 0.0
-0.0988053 0.158239 0.0
-0.095722 0.153406 0.0
-0.0912195 0.14742 0.0
-0.0860263 0.140711 0.0
-0.0805973 0.133596 0.0
-0.0752088 0.126308 0.0
-0.0700209 0.119009 0.0
-0.0651197 0.111815 0.0
-0.0605442 0.104803 0.0
-0.056305 0.0980262 0.0
-0.0523958 0.0915152 0.0
-0.048801 0.0852881 0.0
-0.0455002 0.0793523 0.0
-0.0424718 0.0737083 0.0
-0.039694 0.0683513 0.0
-0.0371461 0.0632729 0.0
-0.0348092 0.0584623 0.0
-0.0326656 0.0539073 0.0
-0.0306996 0.0495947 0.0
-0.0288964 0.0455106 0.0
-0.0272428 0.0416412 0.0
-0.025726 0.0379728 0.0
-0.0243337 0.0344921 0.0
-0.0230536 0.0311862 0.0
-0.0218727 0.0280434 0.0
-0.020777 0.0250529 0.0
-0.0197506 0.0222052 0.0
-0.0187752 0.0194926 0.0
-0.0178292 0.0169094 0.0
-0.0168866 0.0144527 0.0
-0.0159164 0.0121225 0.0
-0.0148819 0.00992331 0.0
-0.0137397 0.00786436 0.0
-0.0124404 0.00596135 0.0
-0.0109289 0.0042381 0.0
-0.00914722 0.00272885 0.0
-0.00703826 0.00147541 0.0
-0.00455253 0.000538164 0.0
-0.00165678 7.91004e-05 0.0
0.839542 0.00298443 0.0
0.553786 0.0202644 0.0
0.332633 0.0495618 0.0
0.173806 0.078363 0.0
0.0650168 0.103086 0.0
-0.00676053 0.122363 0.0
-0.0519624 0.135837 0.0
-0.0788964 0.144162 0.0
-0.0936335 0.148283 0.0
-0.10038 0.149112 0.0
-0.102001 0.14746 0.0
-0.100426 0.143999 0.0
-0.0969409 0.139262 0.0
-0.0923921 0.133665 0.0
-0.0873296 0.127525 0.0
-0.0821036 0.121079 0.0
-0.0769306 0.114502 0.0
-0.0719396 0.107924 0.0
-0.0672017 0.101436 0.0
-0.0627513 0.0951027 0.0
-0.0585998 0.0889677 0.0
-0.0547444 0.0830596 0.0
-0.0511746 0.0773954 0.0
-0.0478753 0.0719832 0.0
-0.0448298 0.066825 0.0
-0.0420212 0.0619184 0.0
-0.0394326 0.0572571 0.0
-0.0370484 0.0528329 0.0
-0.0348536 0.0486358 0.0
-0.0328343 0.0446546 0.0
-0.0309774 0.0408776 0.0
-0.02927 0.0372929 0.0
-0.0276995 0.0338885 0.0
-0.0262529 0.0306527 0.0
-0.0249166 0.0275747 0.0
-0.0236753 0.0246442 0.0
-0.0225117 0.0218522 0.0
-0.0214058 0.0191913 0.0
-0.0203335 0.0166559 0.0
-0.0192661 0.0142431 0.0
-0.0181689 0.0119529 0.0
-0.0170006 0.00978943 0.0
-0.0157122 0.00776199 0.0
-0.0142468 0.00588613 0.0
-0.0125405 0.00418571 0.0
-0.0105238 0.00269514 0.0
-0.00812604 0.00145658 0.0
-0.00528124 0.000530582 0.0
-0.00193716 7.76603e-05 0.0
0.849007 0.00227298 0.0
0.576179 0.016519 0.0
0.359403 0.0415408 0.0
0.199223 0.0670289 0.0
0.0862802 0.0896516 0.0
0.00947195 0.107868 0.0
-0.0408466 0.121324 0.0
-0.0722167 0.130186 0.0
-0.0905776 0.135211 0.0
-0.100161 0.137125 0.0
-0.103928 0.13662 0.0
-0.103927 0.134288 0.0
-0.101558 0.130618 0.0
-0.0977667 0.126001 0.0
-0.0931861 0.120742 0.0
-0.0882329 0.115079 0.0
-0.0831765 0.109192 0.0
-0.0781867 0.103216 0.0
-0.0733663 0.0972517 0.0
-0.0687738 0.0913742 0.0
-0.0644391 0.0856357 0.0
-0.0603735 0.0800732 0.0
-0.0565768 0.074711 0.0
-0.0530421 0.069564 0.0
-0.0497588 0.06464 0.0
-0.0467141 0.0599413 0.0
-0.0438946 0.0554659 0.0
-0.0412869 0.0512091 0.0
-0.0388779 0.0471638 0.0
-0.0366546 0.0433211 0.0
-0.0346045 0.0396715 0.0
-0.0327151 0.0362045 0.0
-0.0309738 0.0329096 0.0
-0.0293673 0.0297761 0.0
-0.0278812 0.026794 0.0
-0.0264994 0.0239537 0.0
-0.0252034 0.0212467 0.0
-0.0239714 0.0186658 0.0
-0.0227773 0.0162055 0.0
-0.0215896 0.013863 0.0
-0.02037 0.0116382 0.0
-0.0190727 0.00953517 0.0
-0.0176429 0.00756283 0.0
-0.0160166 0.00573652 0.0
-0.0141205 0.00407982 0.0
-0.0118742 0.00262676 0.0
-0.00919319 0.00141907 0.0
-0.0059957 0.000516362 0.0
-0.00221147 7.53395e-05 0.0
0.856729 0.00177983 0.0
0.595077 0.0136439 0.0
0.382706 0.0351029 0.0
0.222013 0.0576418 0.0
0.10592 0.0782274 0.0
0.0249441 0.0952781 0.0
-0.0296899 0.108335 0.0
-0.0650093 0.117388 0.0
-0.086708 0.122972 0.0
-0.0989821 0.12566 0.0
-0.104847 0.126032 0.0
-0.106434 0.124608 0.0
-0.105232 0.121826 0.0
-0.102271 0.118049 0.0
-0.0982534 0.113566 0.0
-0.0936558 0.108609 0.0
-0.0887954 0.103356 0.0
-0.0838803 0.0979471 0.0
-0.0790436 0.0924878 0.0
-0.0743677 0.0870583 0.0
-0.069901 0.0817179 0.0
-0.0656694 0.0765096 0.0
-0.0616839 0.0714638 0.0
-0.0579463 0.0666005 0.0
-0.0544526 0.0619322 0.0
-0.0511952 0.0574651 0.0
-0.0481647 0.053201 0.0
-0.0453505 0.0491379 0.0
-0.0427416 0.0452711 0.0
-0.0403265 0.041594 0.0
-0.0380939 0.0380988 0.0
-0.0360318 0.0347764 0.0
-0.0341277 0.0316174 0.0
-0.0323684 0.0286123 0.0
-0.0307389 0.0257515 0.0
-0.0292225 0.0230263 0.0
-0.0277996 0.0204284 0.0
-0.0264469 0.017951 0.0
-0.0251362 0.0155889 0.0
-0.0238333 0.013339 0.0
-0.0224967 0.0112014 0.0
-0.0210759 0.00917966 0.0
-0.0195107 0.00728254 0.0
-0.0177297 0.00552489 0.0
-0.0156509 0.00392962 0.0
-0.0131826 0.00252991 0.0
-0.0102271 0.00136636 0.0
-0.00668755 0.000496824 0.0
-0.00247668 7.23359e-05 0.0
0.86312 0.00142711 0.0
0.611138 0.0114005 0.0
0.403038 0.0298861 0.0
0.242416 0.0498198 0.0
0.123967 0.0684768 0.0
0.0395678 0.0843103 0.0
-0.0187587 0.0967817 0.0
-0.057576 0.105777 0.0
-0.082317 0.111653 0.0
-0.0971093 0.114861 0.0
-0.104987 0.115883 0.0
-0.108139 0.115168 0.0
-0.108121 0.113108 0.0
-0.106029 0.110034 0.0
-0.102628 0.106219 0.0
-0.0984446 0.101882 0.0
-0.0938395 0.097199 0.0
-0.0890559 0.0923093 0.0
-0.0842557 0.0873213 0.0
-0.0795441 0.0823186 0.0
-0.074988 0.0773646 0.0
-0.0706278 0.0725069 0.0
-0.066486 0.06778 0.0
-0.0625738 0.063208 0.0
-0.0588942 0.0588069 0.0
-0.0554452 0.054586 0.0
-0.0522218 0.0505499 0.0
-0.0492168 0.0466989 0.0
-0.0464216 0.0430304 0.0
-0.0438268 0.0395394 0.0
-0.0414221 0.0362195 0.0
-0.0391964 0.0330629 0.0
-0.0371378 0.0300611 0.0
-0.0352331 0.0272055 0.0
-0.0334671 0.0244871 0.0
-0.0318224 0.0218976 0.0
-0.0302786 0.0194292 0.0
-0.0288109 0.0170753 0.0
-0.0273892 0.0148308 0.0
-0.025977 0.0126927 0.0
-0.0245293 0.0106607 0.0
-0.0229914 0.00873829 0.0
-0.0212975 0.00693368 0.0
-0.0193694 0.00526104 0.0
-0.0171161 0.00374233 0.0
-0.0144356 0.00240936 0.0
-0.0112173 0.00130111 0.0
-0.00734997 0.000472928 0.0
-0.00273037 6.87816e-05 0.0
0.868474 0.0011672 0.0
0.624877 0.00962311 0.0
0.420823 0.0256185 0.0
0.260662 0.0432617 0.0
0.140464 0.060126 0.0
0.0532495 0.0747421 0.0
-0.00823313 0.0865237 0.0
-0.0501374 0.0952912 0.0
-0.0776328 0.101259 0.0
-0.0947596 0.104786 0.0
-0.104546 0.106268 0.0
-0.109213 0.106091 0.0
-0.110369 0.104603 0.0
-0.109163 0.102105 0.0
-0.106408 0.0988495 0.0
-0.102677 0.0950456 0.0
-0.098369 0.0908631 0.0
-0.0937588 0.0864386 0.0
-0.089035 0.0818808 0.0
-0.0843249 0.0772751 0.0
-0.0797129 0.0726875 0.0
-0.0752542 0.0681683 0.0
-0.0709829 0.0637548 0.0
-0.0669195 0.0594739 0.0
-0.0630746 0.0553442 0.0
-0.0594522 0.0513775 0.0
-0.0560518 0.0475799 0.0
-0.05287 0.0439538 0.0
-0.049901 0.040498 0.0
-0.0471373 0.0372087 0.0
-0.0445704 0.0340806 0.0
-0.0421901 0.0311068 0.0
-0.0399851 0.0282796 0.0
-0.0379423 0.0255909 0.0
-0.0360467 0.0230324 0.0
-0.0342803 0.0205961 0.0
-0.0326218 0.0182745 0.0
-0.0310452 0.0160611 0.0
-0.0295187 0.013951 0.0
-0.0280033 0.011941 0.0
-0.026451 0.0100308 0.0
-0.0248028 0.0082233 0.0
-0.0229878 0.00652617 0.0
-0.020921 0.00495268 0.0
-0.0185032 0.00352352 0.0
-0.015622 0.00226876 0.0
-0.012155 0.00122528 0.0
-0.00797725 0.000445363 0.0
-0.00297051 6.47635e-05 0.0
0.873006 0.000970485 0.0
0.636703 0.00819538 0.0
0.436422 0.0220964 0.0
0.276972 0.0377307 0.0
0.155493 0.0529491 0.0
0.0659626 0.0663806 0.0
0.00179908 0.0773997 0.0
-0.0428414 0.085835 0.0
-0.0728266 0.0917496 0.0
-0.0921067 0.0954378 0.0
-0.103687 0.0972236 0.0
-0.109808 0.0974382 0.0
-0.11211 0.0963895 0.0
-0.111785 0.0943501 0.0
-0.109689 0.0915541 0.0
-0.106433 0.0881982 0.0
-0.102448 0.0844456 0.0
-0.098039 0.0804292 0.0
-0.0934198 0.0762567 0.0
-0.088738 0.0720136 0.0
-0.0840952 0.067767 0.0
-0.0795607 0.0635687 0.0
-0.0751805 0.0594579 0.0
-0.0709844 0.055463 0.0
-0.0669907 0.0516043 0.0
-0.0632095 0.0478948 0.0
-0.0596455 0.0443421 0.0
-0.0562988 0.0409497 0.0
-0.0531667 0.0377171 0.0
-0.0502441 0.0346416 0.0
-0.0475239 0.0317185 0.0
-0.0449973 0.0289414 0.0
-0.0426536 0.0263032 0.0
-0.0404802 0.0237962 0.0
-0.0384618 0.0214125 0.0
-0.0365803 0.0191443 0.0
-0.0348134 0.0169844 0.0
-0.0331342 0.0149264 0.0
-0.0315092 0.0129652 0.0
-0.0298971 0.0110978 0.0
-0.0282469 0.00932334 0.0
-0.026496 0.00764441 0.0
-0.024568 0.00606782 0.0
-0.0223719 0.00460578 0.0
-0.0198006 0.00327747 0.0
-0.0167321 0.00211085 0.0
-0.0130327 0.00114031 0.0
-0.00856452 0.000414626 0.0
-0.00319538 6.03388e-05 0.0
0.876877 0.000818075 0.0
0.646939 0.00703422 0.0
0.450142 0.0191653 0.0
0.291555 0.0330402 0.0
0.169151 0.0467622 0.0
0.0777091 0.0590652 0.0
0.0112377 0.0693089 0.0
-0.0358 0.0773145 0.0
-0.0680302 0.0830662 0.0
-0.0892906 0.0867909 0.0
-0.10255 0.0887513 0.0
-0.110051 0.0892318 0.0
-0.11346 0.0885052 0.0
-0.114001 0.0868186 0.0
-0.112562 0.0843882 0.0