# vtk DataFile Version 3.0
Malha 2D com triângulos e temperatura
ASCII
DATASET UNSTRUCTURED_GRID

POINTS 2500 double
0 0 0
1 0 0
1 1 0
0 1 0
0.0204082 0 0
0.0408163 0 0
0.0612245 0 0
0.0816327 0 0
0.102041 0 0
0.122449 0 0
0.142857 0 0
0.163265 0 0
0.183673 0 0
0.204082 0 0
0.22449 0 0
0.244898 0 0
0.265306 0 0
0.285714 0 0
0.306122 0 0
0.326531 0 0
0.346939 0 0
0.367347 0 0
0.387755 0 0
0.408163 0 0
0.428571 0 0
0.44898 0 0
0.469388 0 0
0.489796 0 0
0.510204 0 0
0.530612 0 0
0.55102 0 0
0.571429 0 0
0.591837 0 0
0.612245 0 0
0.632653 0 0
0.653061 0 0
0.673469 0 0
0.693878 0 0
0.714286 0 0
0.734694 0 0
0.755102 0 0
0.77551 0 0
0.795918 0 0
0.816327 0 0
0.836735 0 0
0.857143 0 0
0.877551 0 0
0.897959 0 0
0.918367 0 0
0.938776 0 0
0.959184 0 0
0.979592 0 0
1 0.0204082 0
1 0.0408163 0
1 0.0612245 0
1 0.0816327 0
1 0.102041 0
1 0.122449 0
1 0.142857 0
1 0.163265 0
1 0.183673 0
1 0.204082 0
1 0.22449 0
1 0.244898 0
1 0.265306 0
1 0.285714 0
1 0.306122 0
1 0.326531 0
1 0.346939 0
1 0.367347 0
1 0.387755 0
1 0.408163 0
1 0.428571 0
1 0.44898 0
1 0.469388 0
1 0.489796 0
1 0.510204 0
1 0.530612 0
1 0.55102 0
1 0.571429 0
1 0.591837 0
1 0.612245 0
1 0.632653 0
1 0.653061 0
1 0.673469 0
1 0.693878 0
1 0.714286 0
1 0.734694 0
1 0.755102 0
1 0.77551 0
1 0.795918 0
1 0.816327 0
1 0.836735 0
1 0.857143 0
1 0.877551 0
1 0.897959 0
1 0.918367 0
1 0.938776 0
1 0.959184 0
1 0.979592 0
0.979592 1 0
0.959184 1 0
0.938776 1 0
0.918367 1 0
0.897959 1 0
0.877551 1 0
0.857143 1 0
0.836735 1 0
0.816327 1 0
0.795918 1 0
0.77551 1 0
0.755102 1 0
0.734694 1 0
0.714286 1 0
0.693878 1 0
0.673469 1 0
0.653061 1 0
0.632653 1 0
0.612245 1 0
0.591837 1 0
0.571429 1 0
0.55102 1 0
0.530612 1 0
0.510204 1 0
0.489796 1 0
0.469388 1 0
0.44898 1 0
0.428571 1 0
0.408163 1 0
0.387755 1 0
0.367347 1 0
0.346939 1 0
0.326531 1 0
0.306122 1 0
0.285714 1 0
0.265306 1 0
0.244898 1 0
0.22449 1 0
0.204082 1 0
0.183673 1 0
0.163265 1 0
0.142857 1 0
0.122449 1 0
0.102041 1 0
0.0816327 1 0
0.0612245 1 0
0.0408163 1 0
0.0204082 1 0
0 0.979592 0
0 0.959184 0
0 0.938776 0
0 0.918367 0
0 0.897959 0
0 0.877551 0
0 0.857143 0
0 0.836735 0
0 0.816327 0
0 0.795918 0
0 0.77551 0
0 0.755102 0
0 0.734694 0
0 0.714286 0
0 0.693878 0
0 0.673469 0
0 0.653061 0
0 0.632653 0
0 0.612245 0
0 0.591837 0
0 0.571429 0
0 0.55102 0
0 0.530612 0
0 0.510204 0
0 0.489796 0
0 0.469388 0
0 0.44898 0
0 0.428571 0
0 0.408163 0
0 0.387755 0
0 0.367347 0
0 0.346939 0
0 0.326531 0
0 0.306122 0
0 0.285714 0
0 0.265306 0
0 0.244898 0
0 0.22449 0
0 0.204082 0
0 0.183673 0
0 0.163265 0
0 0.142857 0
0 0.122449 0
0 0.102041 0
0 0.0816327 0
0 0.0612245 0
0 0.0408163 0
0 0.0204082 0
0.0204082 0.979592 0
0.0204082 0.959184 0
0.0204082 0.938776 0
0.0204082 0.918367 0
0.0204082 0.897959 0
0.0204082 0.877551 0
0.0204082 0.857143 0
0.0204082 0.836735 0
0.0204082 0.816327 0
0.0204082 0.795918 0
0.0204082 0.77551 0
0.0204082 0.755102 0
0.0204082 0.734694 0
0.0204082 0.714286 0
0.0204082 0.693878 0
0.0204082 0.673469 0
0.0204082 0.653061 0
0.0204082 0.632653 0
0.0204082 0.612245 0
0.0204082 0.591837 0
0.0204082 0.571429 0
0.0204082 0.55102 0
0.0204082 0.530612 0
0.0204082 0.510204 0
0.0204082 0.489796 0
0.0204082 0.469388 0
0.0204082 0.44898 0
0.0204082 0.428571 0
0.0204082 0.408163 0
0.0204082 0.387755 0
0.0204082 0.367347 0
0.0204082 0.346939 0
0.0204082 0.326531 0
0.0204082 0.306122 0
0.0204082 0.285714 0
0.0204082 0.265306 0
0.0204082 0.244898 0
0.0204082 0.22449 0
0.0204082 0.204082 0
0.0204082 0.183673 0
0.0204082 0.163265 0
0.0204082 0.142857 0
0.0204082 0.122449 0
0.0204082 0.102041 0
0.0204082 0.0816327 0
0.0204082 0.0612245 0
0.0204082 0.0408163 0
0.0204082 0.0204082 0
0.0408163 0.979592 0
0.0408163 0.959184 0
0.0408163 0.938776 0
0.0408163 0.918367 0
0.0408163 0.897959 0
0.0408163 0.877551 0
0.0408163 0.857143 0
0.0408163 0.836735 0
0.0408163 0.816327 0
0.0408163 0.795918 0
0.0408163 0.77551 0
0.0408163 0.755102 0
0.0408163 0.734694 0
0.0408163 0.714286 0
0.0408163 0.693878 0
0.0408163 0.673469 0
0.0408163 0.653061 0
0.0408163 0.632653 0
0.0408163 0.612245 0
0.0408163 0.591837 0
0.0408163 0.571429 0
0.0408163 0.55102 0
0.0408163 0.530612 0
0.0408163 0.510204 0
0.0408163 0.489796 0
0.0408163 0.469388 0
0.0408163 0.44898 0
0.0408163 0.428571 0
0.0408163 0.408163 0
0.0408163 0.387755 0
0.0408163 0.367347 0
0.0408163 0.346939 0
0.0408163 0.326531 0
0.0408163 0.306122 0
0.0408163 0.285714 0
0.0408163 0.265306 0
0.0408163 0.244898 0
0.0408163 0.22449 0
0.0408163 0.204082 0
0.0408163 0.183673 0
0.0408163 0.163265 0
0.0408163 0.142857 0
0.0408163 0.122449 0
0.0408163 0.102041 0
0.0408163 0.0816327 0
0.0408163 0.0612245 0
0.0408163 0.0408163 0
0.0408163 0.0204082 0
0.0612245 0.979592 0
0.0612245 0.959184 0
0.0612245 0.938776 0
0.0612245 0.918367 0
0.0612245 0.897959 0
0.0612245 0.877551 0
0.0612245 0.857143 0
0.0612245 0.836735 0
0.0612245 0.816327 0
0.0612245 0.795918 0
0.0612245 0.77551 0
0.0612245 0.755102 0
0.0612245 0.734694 0
0.0612245 0.714286 0
0.0612245 0.693878 0
0.0612245 0.673469 0
0.0612245 0.653061 0
0.0612245 0.632653 0
0.0612245 0.612245 0
0.0612245 0.591837 0
0.0612245 0.571429 0
0.0612245 0.55102 0
0.0612245 0.530612 0
0.0612245 0.510204 0
0.0612245 0.489796 0
0.0612245 0.469388 0
0.0612245 0.44898 0
0.0612245 0.428571 0
0.0612245 0.408163 0
0.0612245 0.387755 0
0.0612245 0.367347 0
0.0612245 0.346939 0
0.0612245 0.326531 0
0.0612245 0.306122 0
0.0612245 0.285714 0
0.0612245 0.265306 0
0.0612245 0.244898 0
0.0612245 0.22449 0
0.0612245 0.204082 0
0.0612245 0.183673 0
0.0612245 0.163265 0
0.0612245 0.142857 0
0.0612245 0.122449 0
0.0612245 0.102041 0
0.0612245 0.0816327 0
0.0612245 0.0612245 0
0.0612245 0.0408163 0
0.0612245 0.0204082 0
0.0816327 0.979592 0
0.0816327 0.959184 0
0.0816327 0.938776 0
0.0816327 0.918367 0
0.0816327 0.897959 0
0.0816327 0.877551 0
0.0816327 0.857143 0
0.0816327 0.836735 0
0.0816327 0.816327 0
0.0816327 0.795918 0
0.0816327 0.77551 0
0.0816327 0.755102 0
0.0816327 0.734694 0
0.0816327 0.714286 0
0.0816327 0.693878 0
0.0816327 0.673469 0
0.0816327 0.653061 0
0.0816327 0.632653 0
0.0816327 0.612245 0
0.0816327 0.591837 0
0.0816327 0.571429 0
0.0816327 0.55102 0
0.0816327 0.530612 0
0.0816327 0.510204 0
0.0816327 0.489796 0
0.0816327 0.469388 0
0.0816327 0.44898 0
0.0816327 0.428571 0
0.0816327 0.408163 0
0.0816327 0.387755 0
0.0816327 0.367347 0
0.0816327 0.346939 0
0.0816327 0.326531 0
0.0816327 0.306122 0
0.0816327 0.285714 0
0.0816327 0.265306 0
0.0816327 0.244898 0
0.0816327 0.22449 0
0.0816327 0.204082 0
0.0816327 0.183673 0
0.0816327 0.163265 0
0.0816327 0.142857 0
0.0816327 0.122449 0
0.0816327 0.102041 0
0.0816327 0.0816327 0
0.0816327 0.0612245 0
0.0816327 0.0408163 0
0.0816327 0.0204082 0
0.102041 0.979592 0
0.102041 0.959184 0
0.102041 0.938776 0
0.102041 0.918367 0
0.102041 0.897959 0
0.102041 0.877551 0
0.102041 0.857143 0
0.102041 0.836735 0
0.102041 0.816327 0
0.102041 0.795918 0
0.102041 0.77551 0
0.102041 0.755102 0
0.102041 0.734694 0
0.102041 0.714286 0
0.102041 0.693878 0
0.102041 0.673469 0
0.102041 0.653061 0
0.102041 0.632653 0
0.102041 0.612245 0
0.102041 0.591837 0
0.102041 0.571429 0
0.102041 0.55102 0
0.102041 0.530612 0
0.102041 0.510204 0
0.102041 0.489796 0
0.102041 0.469388 0
0.102041 0.44898 0
0.102041 0.428571 0
0.102041 0.408163 0
0.102041 0.387755 0
0.102041 0.367347 0
0.102041 0.346939 0
0.102041 0.326531 0
0.102041 0.306122 0
0.102041 0.285714 0
0.102041 0.265306 0
0.102041 0.244898 0
0.102041 0.22449 0
0.102041 0.204082 0
0.102041 0.183673 0
0.102041 0.163265 0
0.102041 0.142857 0
0.102041 0.122449 0
0.102041 0.102041 0
0.102041 0.0816327 0
0.102041 0.0612245 0
0.102041 0.0408163 0
0.102041 0.0204082 0
0.122449 0.979592 0
0.122449 0.959184 0
0.122449 0.938776 0
0.122449 0.918367 0
0.122449 0.897959 0
0.122449 0.877551 0
0.122449 0.857143 0
0.122449 0.836735 0
0.122449 0.816327 0
0.122449 0.795918 0
0.122449 0.77551 0
0.122449 0.755102 0
0.122449 0.734694 0
0.122449 0.714286 0
0.122449 0.693878 0
0.122449 0.673469 0
0.122449 0.653061 0
0.122449 0.632653 0
0.122449 0.612245 0
0.122449 0.591837 0
0.122449 0.571429 0
0.122449 0.55102 0
0.122449 0.530612 0
0.122449 0.510204 0
0.122449 0.489796 0
0.122449 0.469388 0
0.122449 0.44898 0
0.122449 0.428571 0
0.122449 0.408163 0
0.122449 0.387755 0
0.122449 0.367347 0
0.122449 0.346939 0
0.122449 0.326531 0
0.122449 0.306122 0
0.122449 0.285714 0
0.122449 0.265306 0
0.122449 0.244898 0
0.122449 0.22449 0
0.122449 0.204082 0
0.122449 0.183673 0
0.122449 0.163265 0
0.122449 0.142857 0
0.122449 0.122449 0
0.122449 0.102041 0
0.122449 0.0816327 0
0.122449 0.0612245 0
0.122449 0.0408163 0
0.122449 0.0204082 0
0.142857 0.979592 0
0.142857 0.959184 0
0.142857 0.938776 0
0.142857 0.918367 0
0.142857 0.897959 0
0.142857 0.877551 0
0.142857 0.857143 0
0.142857 0.836735 0
0.142857 0.816327 0
0.142857 0.795918 0
0.142857 0.77551 0
0.142857 0.755102 0
0.142857 0.734694 0
0.142857 0.714286 0
0.142857 0.693878 0
0.142857 0.673469 0
0.142857 0.653061 0
0.142857 0.632653 0
0.142857 0.612245 0
0.142857 0.591837 0
0.142857 0.571429 0
0.142857 0.55102 0
0.142857 0.530612 0
0.142857 0.510204 0
0.142857 0.489796 0
0.142857 0.469388 0
0.142857 0.44898 0
0.142857 0.428571 0
0.142857 0.408163 0
0.142857 0.387755 0
0.142857 0.367347 0
0.142857 0.346939 0
0.142857 0.326531 0
0.142857 0.306122 0
0.142857 0.285714 0
0.142857 0.265306 0
0.142857 0.244898 0
0.142857 0.22449 0
0.142857 0.204082 0
0.142857 0.183673 0
0.142857 0.163265 0
0.142857 0.142857 0
0.142857 0.122449 0
0.142857 0.102041 0
0.142857 0.0816327 0
0.142857 0.0612245 0
0.142857 0.0408163 0
0.142857 0.0204082 0
0.163265 0.979592 0
0.163265 0.959184 0
0.163265 0.938776 0
0.163265 0.918367 0
0.163265 0.897959 0
0.163265 0.877551 0
0.163265 0.857143 0
0.163265 0.836735 0
0.163265 0.816327 0
0.163265 0.795918 0
0.163265 0.77551 0
0.163265 0.755102 0
0.163265 0.734694 0
0.163265 0.714286 0
0.163265 0.693878 0
0.163265 0.673469 0
0.163265 0.653061 0
0.163265 0.632653 0
0.163265 0.612245 0
0.163265 0.591837 0
0.163265 0.571429 0
0.163265 0.55102 0
[...]
CELL_DATA 2401
VECTORS velocity double
0.257584 0.157302 0.0
-0.00256892 0.264529 0.0
-0.0321677 0.205757 0.0
-0.0252684 0.151104 0.0
-0.015989 0.113761 0.0
-0.00967812 0.0884961 0.0
-0.00594801 0.0713882 0.0
-0.00380144 0.0595385 0.0
-0.00254749 0.0510586 0.0
-0.00179013 0.0447869 0.0
-0.00131442 0.040001 0.0
-0.00100441 0.0362393 0.0
-0.000796139 0.0331974 0.0
-0.000652953 0.030669 0.0
-0.000552879 0.0285111 0.0
-0.000482125 0.0266223 0.0
-0.000431669 0.0249303 0.0
-0.0003954 0.0233831 0.0
-0.000369057 0.0219432 0.0
-0.000349608 0.0205841 0.0
-0.000334861 0.019287 0.0
-0.000323217 0.018039 0.0
-0.000313512 0.0168318 0.0
-0.000304899 0.01566 0.0
-0.000296775 0.0145209 0.0
-0.000288721 0.0134134 0.0
-0.000280459 0.0123377 0.0
-0.000271819 0.0112944 0.0
-0.000262708 0.0102851 0.0
-0.000253092 0.00931134 0.0
-0.000242973 0.00837475 0.0
-0.000232377 0.00747704 0.0
-0.000221337 0.00661984 0.0
-0.000209884 0.00580466 0.0
-0.00019804 0.005033 0.0
-0.000185806 0.0043063 0.0
-0.000173156 0.00362605 0.0
-0.000160034 0.00299388 0.0
-0.000146342 0.00241165 0.0
-0.000131936 0.00188154 0.0
-0.000116615 0.00140618 0.0
-0.000100115 0.00098875 0.0
-8.21047e-05 0.000633066 0.0
-6.2218e-05 0.000343572 0.0
-4.01605e-05 0.000125108 0.0
-1.60825e-05 -1.78007e-05 0.0
8.42698e-06 -8.27796e-05 0.0
2.82384e-05 -7.62181e-05 0.0
2.84813e-05 -2.83638e-05 0.0
0.340863 0.123028 0.0
-0.000349822 0.249785 0.0
-0.064832 0.272372 0.0
-0.0628938 0.253241 0.0
-0.0483053 0.222957 0.0
-0.0349495 0.19313 0.0
-0.0251117 0.167519 0.0
-0.0182795 0.146623 0.0
-0.0135912 0.129855 0.0
-0.010354 0.116399 0.0
-0.00809038 0.105505 0.0
-0.00648619 0.0965574 0.0
-0.00533608 0.0890763 0.0
-0.0045039 0.0826968 0.0
-0.00389757 0.0771435 0.0
-0.00345334 0.0722097 0.0
-0.00312617 0.0677409 0.0
-0.00288362 0.0636223 0.0
-0.00270199 0.0597692 0.0
-0.00256372 0.0561198 0.0
-0.00245575 0.0526301 0.0
-0.00236829 0.0492693 0.0
-0.00229405 0.0460169 0.0
-0.00222766 0.0428602 0.0
-0.00216517 0.0397921 0.0
-0.00210381 0.0368097 0.0
-0.00204167 0.033913 0.0
-0.00197751 0.031104 0.0
-0.00191062 0.0283861 0.0
-0.00184065 0.0257632 0.0
-0.00176748 0.0232395 0.0
-0.00169118 0.0208193 0.0
-0.00161185 0.018507 0.0
-0.00152961 0.0163065 0.0
-0.00144455 0.0142219 0.0
-0.00135662 0.0122572 0.0
-0.00126566 0.0104163 0.0
-0.00117133 0.00870371 0.0
-0.00107313 0.00712428 0.0
-0.000970348 0.00568352 0.0
-0.000862113 0.00438778 0.0
-0.000747418 0.00324432 0.0
-0.000625272 0.00226117 0.0
-0.000495004 0.00144675 0.0
-0.00035698 0.000808872 0.0
-0.000214216 0.000352691 0.0
-7.57994e-05 7.65958e-05 0.0
3.72453e-05 -3.61318e-05 0.0
7.58835e-05 -2.75144e-05 0.0
0.501121 0.0768941 0.0
0.0996612 0.183614 0.0
-0.0386163 0.250027 0.0
-0.0727941 0.266857 0.0
-0.0715824 0.25869 0.0
-0.060728 0.240783 0.0
-0.0489607 0.22037 0.0
-0.0388454 0.200739 0.0
-0.0308267 0.183129 0.0
-0.0246822 0.167799 0.0
-0.0200426 0.15459 0.0
-0.0165606 0.143199 0.0
-0.0139535 0.133296 0.0
-0.0120028 0.124582 0.0
-0.010543 0.116803 0.0
-0.00944966 0.10975 0.0
-0.00862903 0.103259 0.0
-0.00801011 0.0972027 0.0
-0.007539 0.0914828 0.0
-0.0071746 0.0860273 0.0
-0.00688553 0.0807834 0.0
-0.0066479 0.0757146 0.0
-0.00644364 0.0707962 0.0
-0.00625919 0.0660135 0.0
-0.00608458 0.0613588 0.0
-0.00591268 0.0568295 0.0
-0.00573854 0.052427 0.0
-0.00555895 0.0481551 0.0
-0.00537196 0.0440192 0.0
-0.00517661 0.0400255 0.0
-0.00497254 0.0361807 0.0
-0.00475984 0.0324913 0.0
-0.00453875 0.028964 0.0
-0.00430954 0.0256048 0.0
-0.00407235 0.02242 0.0
-0.0038271 0.0194154 0.0
-0.00357335 0.0165973 0.0
-0.00331033 0.0139722 0.0
-0.00303686 0.011547 0.0
-0.0027514 0.0093295 0.0
-0.00245215 0.00732841 0.0
-0.00213728 0.00555317 0.0
-0.00180538 0.00401377 0.0
-0.00145636 0.00272001 0.0
-0.00109308 0.00168014 0.0
-0.00072459 0.000898432 0.0
-0.000371844 0.000370357 0.0
-7.59767e-05 7.70978e-05 0.0
8.08354e-05 -7.09558e-06 0.0
0.610531 0.048139 0.0
0.196645 0.134328 0.0
0.0124558 0.210108 0.0
-0.0572705 0.247357 0.0
-0.075869 0.257854 0.0
-0.0742505 0.254078 0.0
-0.0657504 0.243195 0.0
-0.0558864 0.22946 0.0
-0.0467708 0.215167 0.0
-0.0390602 0.20142 0.0
-0.0328162 0.188669 0.0
-0.0278806 0.177022 0.0
-0.0240359 0.166422 0.0
-0.0210691 0.15674 0.0
-0.0187936 0.147829 0.0
-0.0170548 0.139549 0.0
-0.0157271 0.131776 0.0
-0.0147104 0.124407 0.0
-0.0139252 0.117361 0.0
-0.0133089 0.110576 0.0
-0.0128127 0.104006 0.0
-0.0123983 0.0976211 0.0
-0.0120367 0.0913995 0.0
-0.0117056 0.0853305 0.0
-0.0113886 0.07941 0.0
-0.0110739 0.0736388 0.0
-0.0107532 0.0680212 0.0
-0.0104213 0.0625642 0.0
-0.010075 0.0572759 0.0
-0.00971258 0.0521654 0.0
-0.0093337 0.0472415 0.0
-0.00893853 0.0425132 0.0
-0.00852756 0.0379891 0.0
-0.00810131 0.0336772 0.0
-0.0076601 0.0295854 0.0
-0.00720381 0.0257213 0.0
-0.00673183 0.0220925 0.0
-0.00624293 0.018707 0.0
-0.00573528 0.0155732 0.0
-0.00520656 0.0127002 0.0
-0.0046542 0.0100978 0.0
-0.00407581 0.00777652 0.0
-0.00347003 0.00574701 0.0
-0.00283795 0.00401939 0.0
-0.00218559 0.00260191 0.0
-0.00152816 0.00149905 0.0
-0.000897019 0.000706556 0.0
-0.000348552 0.000210603 0.0
1.46753e-05 1.73029e-05 0.0
0.681116 0.0302409 0.0
0.2797 0.0984683 0.0
0.070856 0.171446 0.0
-0.0267384 0.217976 0.0
-0.065355 0.241173 0.0
-0.0758125 0.249081 0.0
-0.0738133 0.247615 0.0
-0.0669926 0.240895 0.0
-0.0589315 0.231537 0.0
-0.0512155 0.221085 0.0
-0.0444598 0.2104 0.0
-0.0388198 0.199924 0.0
-0.0342449 0.189852 0.0
-0.0306034 0.180241 0.0
-0.0277414 0.171078 0.0
-0.0255106 0.162316 0.0
-0.0237786 0.153898 0.0
-0.0224321 0.145769 0.0
-0.021377 0.137882 0.0
-0.0205363 0.130199 0.0
-0.0198479 0.122694 0.0
-0.0192625 0.115348 0.0
-0.0187417 0.108152 0.0
-0.0182561 0.101104 0.0
-0.0177838 0.0942064 0.0
-0.0173088 0.0874669 0.0
-0.0168203 0.0808946 0.0
-0.0163112 0.0745006 0.0
-0.0157776 0.0682969 0.0
-0.0152176 0.0622956 0.0
-0.014631 0.0565084 0.0
-0.0140183 0.0509465 0.0
-0.0133806 0.0456204 0.0
-0.0127187 0.0405399 0.0
-0.0120335 0.0357141 0.0
-0.0113249 0.0311519 0.0
-0.0105922 0.026862 0.0
-0.00983389 0.0228533 0.0
-0.00904758 0.0191348 0.0
-0.00823035 0.0157162 0.0
-0.00737902 0.0126079 0.0
-0.00649088 0.00982052 0.0
-0.00556484 0.00736506 0.0
-0.00460326 0.00525177 0.0
-0.00361493 0.00348954 0.0
-0.00261975 0.00208469 0.0
-0.0016559 0.00103639 0.0
-0.000787937 0.000340266 0.0
-0.000125366 3.99742e-05 0.0
0.730627 0.0192381 0.0
0.350373 0.0731877 0.0
0.129171 0.139441 0.0
0.0117547 0.188201 0.0
-0.0449224 0.219053 0.0
-0.0679922 0.235342 0.0
-0.0740358 0.241618 0.0
-0.072004 0.241376 0.0
-0.0665926 0.237117 0.0
-0.0601946 0.230509 0.0
-0.0539686 0.222611 0.0
-0.0484186 0.214074 0.0
-0.0437086 0.205278 0.0
-0.0398335 0.196434 0.0
-0.0367106 0.187648 0.0
-0.0342275 0.178967 0.0
-0.0322674 0.170408 0.0
-0.0307206 0.161968 0.0
-0.0294902 0.153643 0.0
-0.0284933 0.145428 0.0
-0.0276609 0.137319 0.0
-0.0269371 0.129318 0.0
-0.0262775 0.121433 0.0
-0.0256479 0.113672 0.0
-0.0250225 0.10605 0.0
-0.0243831 0.0985799 0.0
-0.023717 0.0912792 0.0
-0.0230165 0.0841643 0.0
-0.0222776 0.0772516 0.0
-0.0214988 0.0705569 0.0
-0.0206806 0.0640949 0.0
-0.0198244 0.0578793 0.0
-0.0189322 0.0519222 0.0
-0.0180057 0.0462351 0.0
-0.0170462 0.0408283 0.0
-0.0160541 0.0357113 0.0
-0.0150288 0.0308935 0.0
-0.0139687 0.0263841 0.0
-0.0128709 0.0221924 0.0
-0.0117322 0.0183283 0.0
-0.0105487 0.014802 0.0
-0.00931762 0.0116242 0.0
-0.00803788 0.00880602 0.0
-0.00671268 0.00635826 0.0
-0.00535243 0.0042913 0.0
-0.00397944 0.00261488 0.0
-0.00263442 0.00133373 0.0
-0.0013833 0.000454995 0.0
-0.000331883 5.89956e-05 0.0
0.766667 0.0126013 0.0
0.409778 0.0556828 0.0
0.183945 0.114329 0.0
0.0527774 0.161988 0.0
-0.0185275 0.196409 0.0
-0.0534043 0.218209 0.0
-0.0678968 0.23026 0.0
-0.0715616 0.235354 0.0
-0.0698373 0.235669 0.0
-0.0657426 0.232792 0.0
-0.0609049 0.227832 0.0
-0.0561578 0.221533 0.0
-0.0518877 0.214387 0.0
-0.0482349 0.20671 0.0
-0.045208 0.198702 0.0
-0.0427505 0.190489 0.0
-0.0407774 0.182151 0.0
-0.0391962 0.173739 0.0
-0.0379177 0.165289 0.0
-0.0368613 0.156831 0.0
-0.0359575 0.148388 0.0
-0.0351487 0.139986 0.0
-0.0343882 0.131647 0.0
-0.0336399 0.123396 0.0
-0.0328769 0.115259 0.0
-0.0320799 0.10726 0.0
-0.0312365 0.0994222 0.0
-0.0303394 0.0917699 0.0
-0.0293855 0.0843243 0.0
-0.0283748 0.0771051 0.0
-0.0273091 0.0701305 0.0
-0.0261914 0.0634162 0.0
-0.025025 0.0569766 0.0
-0.023813 0.0508241 0.0
-0.0225576 0.0449699 0.0
-0.0212599 0.0394242 0.0
-0.0199196 0.0341964 0.0
-0.0185352 0.0292957 0.0
-0.0171035 0.0247313 0.0
-0.0156209 0.0205128 0.0
-0.0140832 0.01665 0.0
-0.0124869 0.0131538 0.0
-0.0108307 0.0100353 0.0
-0.00911781 0.00730636 0.0
-0.00735865 0.00497968 0.0
-0.00557528 0.00306934 0.0
-0.00380691 0.00158676 0.0
-0.0021151 0.000550792 0.0
-0.000594561 7.40946e-05 0.0
0.793644 0.00858136 0.0
0.459642 0.0434453 0.0
0.234013 0.094838 0.0
0.0937295 0.139891 0.0
0.011268 0.175189 0.0
-0.0342302 0.200395 0.0
-0.0569539 0.216516 0.0
-0.0666448 0.225745 0.0
-0.0691874 0.22987 0.0
-0.0680521 0.230307 0.0
-0.0652403 0.228115 0.0
-0.0618707 0.224059 0.0
-0.0585362 0.218678 0.0
-0.0555214 0.212351 0.0
-0.0529332 0.20534 0.0
-0.05078 0.19783 0.0
-0.0490186 0.189952 0.0
-0.0475827 0.181803 0.0
-0.0463986 0.173456 0.0
-0.0453947 0.164973 0.0
-0.0445067 0.156404 0.0
-0.0436793 0.147797 0.0
-0.0428675 0.139192 0.0
-0.0420364 0.130631 0.0
-0.04116 0.12215 0.0
-0.0402206 0.113786 0.0
-0.0392074 0.10557 0.0
-0.0381151 0.0975329 0.0
-0.036943 0.0897016 0.0
-0.0356932 0.0821002 0.0
-0.03437 0.0747501 0.0
-0.0329787 0.0676696 0.0
-0.0315247 0.0608746 0.0
-0.0300127 0.0543787 0.0
-0.0284464 0.0481935 0.0
-0.0268279 0.0423294 0.0
-0.0251576 0.0367957 0.0
-0.023434 0.0316012 0.0
-0.0216541 0.0267546 0.0
-0.0198136 0.0222648 0.0
-0.0179078 0.0181415 0.0
-0.0159324 0.0143952 0.0
-0.0138852 0.0110376 0.0
-0.0117681 0.00808172 0.0
-0.0095899 0.00554298 0.0
-0.00736994 0.00344025 0.0
-0.00514244 0.00179175 0.0
-0.00296031 0.000627091 0.0
-0.000902514 8.55877e-05 0.0
0.814508 0.00610256 0.0
0.501774 0.0347401 0.0
0.279232 0.0797099 0.0
0.133183 0.121603 0.0
0.0420871 0.156462 0.0
-0.012262 0.183286 0.0
-0.0425899 0.202132 0.0
-0.0582501 0.214406 0.0
-0.0653043 0.221553 0.0
-0.0675156 0.224777 0.0
-0.0671651 0.225036 0.0
-0.0656029 0.223061 0.0
-0.0636012 0.219399 0.0
-0.0615766 0.214454 0.0
-0.0597312 0.208527 0.0
-0.0581399 0.20184 0.0
-0.0568056 0.194562 0.0
-0.0556926 0.186825 0.0
-0.0547479 0.178735 0.0
-0.0539137 0.17038 0.0
-0.0531345 0.161836 0.0
-0.0523616 0.15317 0.0
-0.0515546 0.144443 0.0
-0.0506824 0.13571 0.0
-0.0497225 0.127021 0.0
-0.0486608 0.118423 0.0
-0.04749 0.109956 0.0
-0.0462083 0.101658 0.0
-0.0448186 0.0935624 0.0
-0.0433267 0.085697 0.0
-0.0417401 0.0780865 0.0
-0.0400672 0.0707516 0.0
-0.0383163 0.0637097 0.0
-0.0364944 0.0569751 0.0
-0.0346071 0.0505597 0.0
-0.0326579 0.0444738 0.0
-0.030648 0.0387261 0.0
-0.0285764 0.0333248 0.0
-0.02644 0.0282776 0.0
-0.024234 0.0235929 0.0
-0.0219528 0.0192797 0.0
-0.0195908 0.0153483 0.0
-0.017144 0.0118108 0.0
-0.0146122 0.00868184 0.0
-0.0120007 0.0059794 0.0
-0.00932382 0.00372704 0.0
-0.00660823 0.00194927 0.0
-0.00389519 0.000684885 0.0
-0.00124535 9.39514e-05 0.0
0.831144 0.00453386 0.0
0.537708 0.0284166 0.0
0.319918 0.0678705 0.0
0.170553 0.106494 0.0
0.0729252 0.140188 0.0
0.0114303 0.167406 0.0
-0.0258553 0.188003 0.0
-0.0472394 0.202452 0.0
-0.0588352 0.211924 0.0
-0.0645839 0.217413 0.0
-0.0669669 0.219755 0.0
-0.0675149 0.219623 0.0
-0.0671476 0.217544 0.0
-0.0663967 0.213923 0.0
-0.0655505 0.209075 0.0
-0.0647472 0.203247 0.0
-0.064035 0.196632 0.0
-0.0634108 0.189388 0.0
-0.0628444 0.181646 0.0
-0.0622944 0.173519 0.0
-0.0617171 0.165102 0.0
-0.0610729 0.156482 0.0
-0.0603285 0.147736 0.0
-0.0594591 0.138934 0.0
-0.0584481 0.13014 0.0
-0.0572865 0.121409 0.0
-0.0559723 0.112792 0.0
-0.0545091 0.104333 0.0
-0.0529047 0.0960713 0.0
-0.0511695 0.0880389 0.0
-0.0493158 0.0802637 0.0
-0.0473559 0.0727685 0.0
-0.0453016 0.0655718 0.0
-0.0431629 0.0586885 0.0
-0.0409479 0.0521305 0.0
-0.0386617 0.0459074 0.0
-0.0363068 0.0400272 0.0
-0.0338826 0.0344969 0.0
-0.031386 0.0293234 0.0
-0.0288116 0.0245138 0.0
-0.0261524 0.0200765 0.0
-0.0234012 0.0160214 0.0
-0.0205515 0.0123611 0.0
-0.0175993 0.00911142 0.0
-0.0145454 0.00629289 0.0
-0.0113972 0.00393313 0.0
-0.00817179 0.00206206 0.0
-0.00489686 0.000725799 0.0
-0.00161361 9.96648e-05 0.0
0.844764 0.00350916 0.0
0.568664 0.0237228 0.0
0.356524 0.0585125 0.0
0.205589 0.0940074 0.0
0.103052 0.126185 0.0
0.0355953 0.153196 0.0
-0.00763276 0.174627 0.0
-0.0343399 0.190572 0.0
-0.0503607 0.20177 0.0
-0.0596981 0.209044 0.0
-0.0649633 0.213105 0.0
-0.0678203 0.214553 0.0
-0.0693062 0.213876 0.0
-0.0700484 0.211466 0.0
-0.0704098 0.207637 0.0
-0.0705854 0.202647 0.0
-0.0706657 0.196703 0.0
-0.070679 0.189982 0.0
-0.0706183 0.182634 0.0
-0.0704595 0.174788 0.0
-0.0701725 0.166561 0.0
-0.0697282 0.158054 0.0
-0.0691028 0.149361 0.0
-0.0682793 0.140564 0.0
-0.0672487 0.131739 0.0
-0.0660093 0.122953 0.0
-0.0645661 0.114263 0.0
-0.0629294 0.105722 0.0
-0.0611134 0.0973734 0.0
-0.0591346 0.0892536 0.0
-0.0570109 0.0813932 0.0
-0.0547595 0.0738169 0.0
-0.0523966 0.0665441 0.0
-0.049936 0.0595898 0.0
-0.0473884 0.0529655 0.0
-0.0447614 0.0466799 0.0
-0.0420587 0.0407397 0.0
-0.0392804 0.0351507 0.0
-0.0364232 0.0299183 0.0
-0.0334809 0.0250485 0.0
-0.0304451 0.0205485 0.0
-0.027306 0.0164279 0.0
-0.0240539 0.0126991 0.0
-0.0206802 0.00937908 0.0
-0.0171797 0.00649038 0.0
-0.0135517 0.00406386 0.0
-0.00980209 0.00213372 0.0
-0.00594401 0.000751607 0.0
-0.00199889 0.000103152 0.0
0.856165 0.00281474 0.0
0.595603 0.0201592 0.0
0.389539 0.0510211 0.0
0.238291 0.0836179 0.0
0.13215 0.114122 0.0
0.0598137 0.140539 0.0
0.0115374 0.16219 0.0
-0.0201056 0.179117 0.0
-0.0403669 0.191566 0.0
-0.053256 0.200218 0.0
-0.0614636 0.205667 0.0
-0.0667489 0.208435 0.0
-0.0702391 0.208966 0.0
-0.0726384 0.207626 0.0
-0.074372 0.204723 0.0
-0.0756835 0.200512 0.0
-0.076701 0.19521 0.0
-0.0774813 0.189004 0.0
-0.0780395 0.182058 0.0
-0.0783686 0.174517 0.0
-0.0784525 0.16651 0.0
-0.0782739 0.158155 0.0
-0.0778192 0.149559 0.0
-0.0770813 0.140817 0.0
-0.0760602 0.132015 0.0
-0.074763 0.123229 0.0
-0.0732033 0.114526 0.0
-0.0713995 0.105965 0.0
-0.0693738 0.0975924 0.0
-0.0671501 0.0894503 0.0
-0.0647528 0.0815712 0.0
-0.0622054 0.0739811 0.0
-0.059529 0.0666998 0.0
-0.0567418 0.0597423 0.0
-0.053858 0.053119 0.0
-0.0508876 0.0468374 0.0
-0.047836 0.0409027 0.0
-0.0447041 0.035319 0.0
-0.0414883 0.0300898 0.0
-0.0381814 0.0252197 0.0
-0.034773 0.0207146 0.0
-0.0312505 0.016583 0.0
-0.0276001 0.0128374 0.0
-0.0238079 0.00949506 0.0
-0.0198614 0.0065799 0.0
-0.0157509 0.00412512 0.0
-0.0114702 0.002168 0.0
-0.00701717 0.000763982 0.0
-0.00239377 0.000104761 0.0
0.86589 0.00232574 0.0
0.619272 0.0173945 0.0
0.419419 0.0449474 0.0
0.268749 0.0749142 0.0
0.160019 0.10372 0.0
0.0836696 0.129327 0.0
0.0309757 0.15088 0.0
-0.00500873 0.168282 0.0
-0.0292617 0.18161 0.0
-0.0456039 0.191291 0.0
-0.0567516 0.197832 0.0
-0.0645257 0.201678 0.0
-0.0701184 0.203223 0.0
-0.0742936 0.202805 0.0
-0.0775261 0.200715 0.0
-0.0800999 0.197203 0.0
-0.0821748 0.192489 0.0
-0.0838323 0.186764 0.0
-0.0851073 0.180203 0.0
-0.0860091 0.172962 0.0
-0.0865351 0.165184 0.0
-0.0866802 0.156998 0.0
-0.0864421 0.148523 0.0
-0.0858242 0.139865 0.0
-0.0848371 0.131122 0.0
-0.0834982 0.122378 0.0
-0.0818311 0.113707 0.0
-0.079864 0.105173 0.0
-0.0776282 0.0968293 0.0
-0.0751562 0.0887192 0.0
-0.0724804 0.0808777 0.0
-0.0696312 0.0733318 0.0
-0.0666357 0.0661014 0.0
-0.063517 0.0592006 0.0
-0.0602935 0.0526387 0.0
-0.0569778 0.0464213 0.0
-0.0535772 0.0405519 0.0
-0.0500933 0.0350322 0.0
-0.0465225 0.0298639 0.0
-0.0428562 0.0250494 0.0
-0.0390818 0.0205932 0.0
-0.0351831 0.0165024 0.0
-0.0311417 0.0127889 0.0
-0.0269376 0.00946968 0.0
-0.0225505 0.00656941 0.0
-0.0179606 0.00412257 0.0
-0.0131492 0.00216832 0.0
-0.00809862 0.000764373 0.0
-0.0027917 0.000104768 0.0
0.874317 0.00196805 0.0
0.640256 0.0152047 0.0
0.446572 0.0399573 0.0
0.29711 0.0675578 0.0
0.186594 0.0947041 0.0
0.106971 0.119371 0.0
0.0504607 0.140599 0.0
0.0106425 0.158131 0.0
-0.0173624 0.172039 0.0
-0.0370325 0.182469 0.0
-0.0510795 0.189848 0.0
-0.0613607 0.194554 0.0
-0.0691144 0.19693 0.0
-0.0751481 0.197285 0.0
-0.0799752 0.195889 0.0
-0.0839112 0.192984 0.0
-0.0871413 0.188786 0.0
-0.0897678 0.183492 0.0
-0.0918426 0.177282 0.0
-0.0933893 0.17032 0.0
-0.0944181 0.16276 0.0
-0.0949361 0.154743 0.0
-0.0949525 0.146398 0.0
-0.0944825 0.137843 0.0
-0.0935482 0.129182 0.0
-0.0921787 0.120508 0.0
-0.0904089 0.111904 0.0
-0.0882782 0.103436 0.0
-0.0858285 0.0951633 0.0
-0.0831022 0.0871314 0.0
-0.0801406 0.0793766 0.0
-0.076982 0.0719264 0.0
-0.0736604 0.0648 0.0
-0.0702047 0.0580102 0.0
-0.0666374 0.0515648 0.0
-0.0629745 0.0454672 0.0
-0.0592252 0.0397182 0.0
-0.0553921 0.0343174 0.0
-0.051471 0.0292639 0.0
-0.0474521 0.0245579 0.0
-0.04332 0.0202015 0.0
-0.0390547 0.0162006 0.0
-0.0346327 0.0125654 0.0
-0.0300272 0.00931246 0.0
-0.0252094 0.00646613 0.0
-0.020149 0.00406121 0.0
-0.0148143 0.00213762 0.0
-0.00917224 0.000753956 0.0
-0.00318686 0.000103375 0.0
0.881712 0.00169681 0.0
0.659008 0.0134361 0.0
0.471348 0.0358028 0.0
0.323535 0.0612815 0.0
0.211861 0.0868419 0.0
0.129571 0.110511 0.0
0.0697421 0.131266 0.0
0.0264506 0.148736 0.0
-0.00495301 0.162921 0.0
-0.0277938 0.17387 0.0
-0.0446694 0.181866 0.0
-0.0574461 0.187235 0.0
-0.0673894 0.190272 0.0
-0.0753365 0.191254 0.0
-0.0818283 0.190432 0.0
-0.0872038 0.188035 0.0
-0.0916676 0.184275 0.0
-0.095338 0.179349 0.0
-0.0982807 0.173442 0.0
-0.100532 0.166726 0.0
-0.102113 0.159364 0.0
-0.103043 0.151505 0.0
-0.103344 0.143289 0.0
-0.103042 0.134842 0.0
-0.102172 0.126278 0.0
-0.100777 0.117696 0.0
-0.0989041 0.109185 0.0
-0.0966049 0.100817 0.0
-0.0939334 0.0926525 0.0
-0.0909433 0.0847401 0.0
-0.0876858 0.0771166 0.0
-0.0842081 0.069809 0.0
-0.080552 0.0628356 0.0
-0.0767523 0.0562075 0.0
-0.0728366 0.0499301 0.0
-0.0688244 0.0440042 0.0
-0.0647269 0.038428 0.0
-0.0605476 0.0331979 0.0
-0.056282 0.0283103 0.0
-0.0519186 0.0237626 0.0
-0.047439 0.0195547 0.0
-0.0428191 0.0156901 0.0
-0.0380296 0.0121774 0.0
-0.0330367 0.00903165 0.0
-0.0278026 0.0062762 0.0
-0.0222862 0.00394519 0.0
-0.0164426 0.00207826 0.0
-0.0102232 0.00073363 0.0
-0.00357395 0.000100722 0.0
0.88827 0.00148409 0.0
0.675883 0.0119803 0.0
0.494044 0.0322963 0.0
0.348181 0.0558696 0.0
0.235845 0.079929 0.0
0.151395 0.102574 0.0
0.0886871 0.12275 0.0
0.0422767 0.140006 0.0
0.00778592 0.154242 0.0
-0.0180871 0.165524 0.0
-0.0377122 0.17395 0.0
-0.052955 0.179809 0.0
-0.0650955 0.183353 0.0
-0.0749896 0.184825 0.0
-0.083196 0.184457 0.0
-0.0900694 0.182466 0.0
-0.095828 0.17906 0.0
-0.100602 0.174434 0.0
-0.104466 0.168777 0.0
-0.107469 0.162266 0.0
-0.109641 0.155072 0.0
-0.111012 0.147354 0.0
-0.111617 0.139258 0.0
-0.111495 0.130921 0.0
-0.110695 0.122464 0.0
-0.109272 0.113992 0.0
-0.107289 0.105598 0.0
-0.104811 0.0973585 0.0
-0.101906 0.0893371 0.0
-0.0986386 0.0815827 0.0
-0.095072 0.0741325 0.0
-0.0912632 0.0670123 0.0
-0.087262 0.0602388 0.0
-0.0831103 0.0538208 0.0
-0.0788408 0.0477608 0.0
-0.0744767 0.0420565 0.0
-0.0700316 0.0367029 0.0
-0.0655097 0.0316931 0.0
-0.0609062 0.0270203 0.0
-0.0562076 0.0226789 0.0
-0.0513924 0.0186659 0.0
-0.0464319 0.0149821 0.0
-0.041291 0.0116339 0.0
-0.0359282 0.00863417 0.0
-0.0302967 0.00600465 0.0
-0.0243441 0.00377781 0.0
-0.0180124 0.00199204 0.0
-0.0112377 0.000704041 0.0
-0.0039481 9.68953e-05 0.0
0.894135 0.00131184 0.0
0.691161 0.0107591 0.0
0.514906 0.0292937 0.0
0.371194 0.0511477 0.0
0.258585 0.0737916 0.0
0.172395 0.0954096 0.0
0.107181 0.114937 0.0
0.0579484 0.131866 0.0
0.0205819 0.14602 0.0
-0.00810567 0.157428 0.0
-0.0303816 0.166121 0.0
-0.0480453 0.172311 0.0
-0.0623748 0.176215 0.0
-0.0742331 0.178047 0.0
-0.0841875 0.178017 0.0
-0.0926015 0.176333 0.0
-0.0997008 0.173195 0.0
-0.105623 0.168797 0.0
-0.11045 0.163331 0.0
-0.114238 0.15698 0.0
-0.117027 0.149922 0.0
-0.118858 0.142323 0.0
-0.119777 0.134338 0.0
-0.119838 0.12611 0.0
-0.119103 0.117767 0.0