# vtk DataFile Version 3.0
Malha 2D com triângulos e temperatura
ASCII
DATASET UNSTRUCTURED_GRID

POINTS 2500 double
0 0 0
1 0 0
1 1 0
0 1 0
0.0204082 0 0
0.0408163 0 0
0.0612245 0 0
0.0816327 0 0
0.102041 0 0
0.122449 0 0
0.142857 0 0
0.163265 0 0
0.183673 0 0
0.204082 0 0
0.22449 0 0
0.244898 0 0
0.265306 0 0
0.285714 0 0
0.306122 0 0
0.326531 0 0
0.346939 0 0
0.367347 0 0
0.387755 0 0
0.408163 0 0
0.428571 0 0
0.44898 0 0
0.469388 0 0
0.489796 0 0
0.510204 0 0
0.530612 0 0
0.55102 0 0
0.571429 0 0
0.591837 0 0
0.612245 0 0
0.632653 0 0
0.653061 0 0
0.673469 0 0
0.693878 0 0
0.714286 0 0
0.734694 0 0
0.755102 0 0
0.77551 0 0
0.795918 0 0
0.816327 0 0
0.836735 0 0
0.857143 0 0
0.877551 0 0
0.897959 0 0
0.918367 0 0
0.938776 0 0
0.959184 0 0
0.979592 0 0
1 0.0204082 0
1 0.0408163 0
1 0.0612245 0
1 0.0816327 0
1 0.102041 0
1 0.122449 0
1 0.142857 0
1 0.163265 0
1 0.183673 0
1 0.204082 0
1 0.22449 0
1 0.244898 0
1 0.265306 0
1 0.285714 0
1 0.306122 0
1 0.326531 0
1 0.346939 0
1 0.367347 0
1 0.387755 0
1 0.408163 0
1 0.428571 0
1 0.44898 0
1 0.469388 0
1 0.489796 0
1 0.510204 0
1 0.530612 0
1 0.55102 0
1 0.571429 0
1 0.591837 0
1 0.612245 0
1 0.632653 0
1 0.653061 0
1 0.673469 0
1 0.693878 0
1 0.714286 0
1 0.734694 0
1 0.755102 0
1 0.77551 0
1 0.795918 0
1 0.816327 0
1 0.836735 0
1 0.857143 0
1 0.877551 0
1 0.897959 0
1 0.918367 0
1 0.938776 0
1 0.959184 0
1 0.979592 0
0.979592 1 0
0.959184 1 0
0.938776 1 0
0.918367 1 0
0.897959 1 0
0.877551 1 0
0.857143 1 0
0.836735 1 0
0.816327 1 0
0.795918 1 0
0.77551 1 0
0.755102 1 0
0.734694 1 0
0.714286 1 0
0.693878 1 0
0.673469 1 0
0.653061 1 0
0.632653 1 0
0.612245 1 0
0.591837 1 0
0.571429 1 0
0.55102 1 0
0.530612 1 0
0.510204 1 0
0.489796 1 0
0.469388 1 0
0.44898 1 0
0.428571 1 0
0.408163 1 0
0.387755 1 0
0.367347 1 0
0.346939 1 0
0.326531 1 0
0.306122 1 0
0.285714 1 0
0.265306 1 0
0.244898 1 0
0.22449 1 0
0.204082 1 0
0.183673 1 0
0.163265 1 0
0.142857 1 0
0.122449 1 0
0.102041 1 0
0.0816327 1 0
0.0612245 1 0
0.0408163 1 0
0.0204082 1 0
0 0.979592 0
0 0.959184 0
0 0.938776 0
0 0.918367 0
0 0.897959 0
0 0.877551 0
0 0.857143 0
0 0.836735 0
0 0.816327 0
0 0.795918 0
0 0.77551 0
0 0.755102 0
0 0.734694 0
0 0.714286 0
0 0.693878 0
0 0.673469 0
0 0.653061 0
0 0.632653 0
0 0.612245 0
0 0.591837 0
0 0.571429 0
0 0.55102 0
0 0.530612 0
0 0.510204 0
0 0.489796 0
0 0.469388 0
0 0.44898 0
0 0.428571 0
0 0.408163 0
0 0.387755 0
0 0.367347 0
0 0.346939 0
0 0.326531 0
0 0.306122 0
0 0.285714 0
0 0.265306 0
0 0.244898 0
0 0.22449 0
0 0.204082 0
0 0.183673 0
0 0.163265 0
0 0.142857 0
0 0.122449 0
0 0.102041 0
0 0.0816327 0
0 0.0612245 0
0 0.0408163 0
0 0.0204082 0
0.0204082 0.979592 0
0.0204082 0.959184 0
0.0204082 0.938776 0
0.0204082 0.918367 0
0.0204082 0.897959 0
0.0204082 0.877551 0
0.0204082 0.857143 0
0.0204082 0.836735 0
0.0204082 0.816327 0
0.0204082 0.795918 0
0.0204082 0.77551 0
0.0204082 0.755102 0
0.0204082 0.734694 0
0.0204082 0.714286 0
0.0204082 0.693878 0
0.0204082 0.673469 0
0.0204082 0.653061 0
0.0204082 0.632653 0
0.0204082 0.612245 0
0.0204082 0.591837 0
0.0204082 0.571429 0
0.0204082 0.55102 0
0.0204082 0.530612 0
0.0204082 0.510204 0
0.0204082 0.489796 0
0.0204082 0.469388 0
0.0204082 0.44898 0
0.0204082 0.428571 0
0.0204082 0.408163 0
0.0204082 0.387755 0
0.0204082 0.367347 0
0.0204082 0.346939 0
0.0204082 0.326531 0
0.0204082 0.306122 0
0.0204082 0.285714 0
0.0204082 0.265306 0
0.0204082 0.244898 0
0.0204082 0.22449 0
0.0204082 0.204082 0
0.0204082 0.183673 0
0.0204082 0.163265 0
0.0204082 0.142857 0
0.0204082 0.122449 0
0.0204082 0.102041 0
0.0204082 0.0816327 0
0.0204082 0.0612245 0
0.0204082 0.0408163 0
0.0204082 0.0204082 0
0.0408163 0.979592 0
0.0408163 0.959184 0
0.0408163 0.938776 0
0.0408163 0.918367 0
0.0408163 0.897959 0
0.0408163 0.877551 0
0.0408163 0.857143 0
0.0408163 0.836735 0
0.0408163 0.816327 0
0.0408163 0.795918 0
0.0408163 0.77551 0
0.0408163 0.755102 0
0.0408163 0.734694 0
0.0408163 0.714286 0
0.0408163 0.693878 0
0.0408163 0.673469 0
0.0408163 0.653061 0
0.0408163 0.632653 0
0.0408163 0.612245 0
0.0408163 0.591837 0
0.0408163 0.571429 0
0.0408163 0.55102 0
0.0408163 0.530612 0
0.0408163 0.510204 0
0.0408163 0.489796 0
0.0408163 0.469388 0
0.0408163 0.44898 0
0.0408163 0.428571 0
0.0408163 0.408163 0
0.0408163 0.387755 0
0.0408163 0.367347 0
0.0408163 0.346939 0
0.0408163 0.326531 0
0.0408163 0.306122 0
0.0408163 0.285714 0
0.0408163 0.265306 0
0.0408163 0.244898 0
0.0408163 0.22449 0
0.0408163 0.204082 0
0.0408163 0.183673 0
0.0408163 0.163265 0
0.0408163 0.142857 0
0.0408163 0.122449 0
0.0408163 0.102041 0
0.0408163 0.0816327 0
0.0408163 0.0612245 0
0.0408163 0.0408163 0
0.0408163 0.0204082 0
0.0612245 0.979592 0
0.0612245 0.959184 0
0.0612245 0.938776 0
0.0612245 0.918367 0
0.0612245 0.897959 0
0.0612245 0.877551 0
0.0612245 0.857143 0
0.0612245 0.836735 0
0.0612245 0.816327 0
0.0612245 0.795918 0
0.0612245 0.77551 0
0.0612245 0.755102 0
0.0612245 0.734694 0
0.0612245 0.714286 0
0.0612245 0.693878 0
0.0612245 0.673469 0
0.0612245 0.653061 0
0.0612245 0.632653 0
0.0612245 0.612245 0
0.0612245 0.591837 0
0.0612245 0.571429 0
0.0612245 0.55102 0
0.0612245 0.530612 0
0.0612245 0.510204 0
0.0612245 0.489796 0
0.0612245 0.469388 0
0.0612245 0.44898 0
0.0612245 0.428571 0
0.0612245 0.408163 0
0.0612245 0.387755 0
0.0612245 0.367347 0
0.0612245 0.346939 0
0.0612245 0.326531 0
0.0612245 0.306122 0
0.0612245 0.285714 0
0.0612245 0.265306 0
0.0612245 0.244898 0
0.0612245 0.22449 0
0.0612245 0.204082 0
0.0612245 0.183673 0
0.0612245 0.163265 0
0.0612245 0.142857 0
0.0612245 0.122449 0
0.0612245 0.102041 0
0.0612245 0.0816327 0
0.0612245 0.0612245 0
0.0612245 0.0408163 0
0.0612245 0.0204082 0
0.0816327 0.979592 0
0.0816327 0.959184 0
0.0816327 0.938776 0
0.0816327 0.918367 0
0.0816327 0.897959 0
0.0816327 0.877551 0
0.0816327 0.857143 0
0.0816327 0.836735 0
0.0816327 0.816327 0
0.0816327 0.795918 0
0.0816327 0.77551 0
0.0816327 0.755102 0
0.0816327 0.734694 0
0.0816327 0.714286 0
0.0816327 0.693878 0
0.0816327 0.673469 0
0.0816327 0.653061 0
0.0816327 0.632653 0
0.0816327 0.612245 0
0.0816327 0.591837 0
0.0816327 0.571429 0
0.0816327 0.55102 0
0.0816327 0.530612 0
0.0816327 0.510204 0
0.0816327 0.489796 0
0.0816327 0.469388 0
0.0816327 0.44898 0
0.0816327 0.428571 0
0.0816327 0.408163 0
0.0816327 0.387755 0
0.0816327 0.367347 0
0.0816327 0.346939 0
0.0816327 0.326531 0
0.0816327 0.306122 0
0.0816327 0.285714 0
0.0816327 0.265306 0
0.0816327 0.244898 0
0.0816327 0.22449 0
0.0816327 0.204082 0
0.0816327 0.183673 0
0.0816327 0.163265 0
0.0816327 0.142857 0
0.0816327 0.122449 0
0.0816327 0.102041 0
0.0816327 0.0816327 0
0.0816327 0.0612245 0
0.0816327 0.0408163 0
0.0816327 0.0204082 0
0.102041 0.979592 0
0.102041 0.959184 0
0.102041 0.938776 0
0.102041 0.918367 0
0.102041 0.897959 0
0.102041 0.877551 0
0.102041 0.857143 0
0.102041 0.836735 0
0.102041 0.816327 0
0.102041 0.795918 0
0.102041 0.77551 0
0.102041 0.755102 0
0.102041 0.734694 0
0.102041 0.714286 0
0.102041 0.693878 0
0.102041 0.673469 0
0.102041 0.653061 0
0.102041 0.632653 0
0.102041 0.612245 0
0.102041 0.591837 0
0.102041 0.571429 0
0.102041 0.55102 0
0.102041 0.530612 0
0.102041 0.510204 0
0.102041 0.489796 0
0.102041 0.469388 0
0.102041 0.44898 0
0.102041 0.428571 0
0.102041 0.408163 0
0.102041 0.387755 0
0.102041 0.367347 0
0.102041 0.346939 0
0.102041 0.326531 0
0.102041 0.306122 0
0.102041 0.285714 0
0.102041 0.265306 0
0.102041 0.244898 0
0.102041 0.22449 0
0.102041 0.204082 0
0.102041 0.183673 0
0.102041 0.163265 0
0.102041 0.142857 0
0.102041 0.122449 0
0.102041 0.102041 0
0.102041 0.0816327 0
0.102041 0.0612245 0
0.102041 0.0408163 0
0.102041 0.0204082 0
0.122449 0.979592 0
0.122449 0.959184 0
0.122449 0.938776 0
0.122449 0.918367 0
0.122449 0.897959 0
0.122449 0.877551 0
0.122449 0.857143 0
0.122449 0.836735 0
0.122449 0.816327 0
0.122449 0.795918 0
0.122449 0.77551 0
0.122449 0.755102 0
0.122449 0.734694 0
0.122449 0.714286 0
0.122449 0.693878 0
0.122449 0.673469 0
0.122449 0.653061 0
0.122449 0.632653 0
0.122449 0.612245 0
0.122449 0.591837 0
0.122449 0.571429 0
0.122449 0.55102 0
0.122449 0.530612 0
0.122449 0.510204 0
0.122449 0.489796 0
0.122449 0.469388 0
0.122449 0.44898 0
0.122449 0.428571 0
0.122449 0.408163 0
0.122449 0.387755 0
0.122449 0.367347 0
0.122449 0.346939 0
0.122449 0.326531 0
0.122449 0.306122 0
0.122449 0.285714 0
0.122449 0.265306 0
0.122449 0.244898 0
0.122449 0.22449 0
0.122449 0.204082 0
0.122449 0.183673 0
0.122449 0.163265 0
0.122449 0.142857 0
0.122449 0.122449 0
0.122449 0.102041 0
0.122449 0.0816327 0
0.122449 0.0612245 0
0.122449 0.0408163 0
0.122449 0.0204082 0
0.142857 0.979592 0
0.142857 0.959184 0
0.142857 0.938776 0
0.142857 0.918367 0
0.142857 0.897959 0
0.142857 0.877551 0
0.142857 0.857143 0
0.142857 0.836735 0
0.142857 0.816327 0
0.142857 0.795918 0
0.142857 0.77551 0
0.142857 0.755102 0
0.142857 0.734694 0
0.142857 0.714286 0
0.142857 0.693878 0
0.142857 0.673469 0
0.142857 0.653061 0
0.142857 0.632653 0
0.142857 0.612245 0
0.142857 0.591837 0
0.142857 0.571429 0
0.142857 0.55102 0
0.142857 0.530612 0
0.142857 0.510204 0
0.142857 0.489796 0
0.142857 0.469388 0
0.142857 0.44898 0
0.142857 0.428571 0
0.142857 0.408163 0
0.142857 0.387755 0
0.142857 0.367347 0
0.142857 0.346939 0
0.142857 0.326531 0
0.142857 0.306122 0
0.142857 0.285714 0
0.142857 0.265306 0
0.142857 0.244898 0
0.142857 0.22449 0
0.142857 0.204082 0
0.142857 0.183673 0
0.142857 0.163265 0
0.142857 0.142857 0
0.142857 0.122449 0
0.142857 0.102041 0
0.142857 0.0816327 0
0.142857 0.0612245 0
0.142857 0.0408163 0
0.142857 0.0204082 0
0.163265 0.979592 0
0.163265 0.959184 0
0.163265 0.938776 0
0.163265 0.918367 0
0.163265 0.897959 0
0.163265 0.877551 0
0.163265 0.857143 0
0.163265 0.836735 0
0.163265 0.816327 0
0.163265 0.795918 0
0.163265 0.77551 0
0.163265 0.755102 0
0.163265 0.734694 0
0.163265 0.714286 0
0.163265 0.693878 0
0.163265 0.673469 0
0.163265 0.653061 0
0.163265 0.632653 0
0.163265 0.612245 0
0.163265 0.591837 0
0.163265 0.571429 0
0.163265 0.55102 0
[...]
CELL_DATA 2401
VECTORS velocity double
0.257578 0.157295 0.0
-0.00252448 0.26459 0.0
-0.0320801 0.206004 0.0
-0.0251692 0.151582 0.0
-0.0159077 0.114449 0.0
-0.00963187 0.0893162 0.0
-0.0059415 0.0722339 0.0
-0.00383129 0.0603025 0.0
-0.00260638 0.0516477 0.0
-0.00186959 0.0451296 0.0
-0.0014064 0.0400491 0.0
-0.00110196 0.0359661 0.0
-0.000893633 0.0325954 0.0
-0.000746062 0.0297462 0.0
-0.000638399 0.0272876 0.0
-0.000557811 0.0251274 0.0
-0.000496063 0.0231997 0.0
-0.000447688 0.0214566 0.0
-0.000408947 0.0198628 0.0
-0.000377229 0.0183922 0.0
-0.00035068 0.0170252 0.0
-0.000327966 0.0157471 0.0
-0.000308126 0.0145467 0.0
-0.000290461 0.0134154 0.0
-0.000274468 0.0123466 0.0
-0.000259782 0.011335 0.0
-0.000246141 0.0103765 0.0
-0.000233359 0.0094676 0.0
-0.000221301 0.00860543 0.0
-0.000209867 0.00778752 0.0
-0.000198978 0.00701175 0.0
-0.000188566 0.00627625 0.0
-0.000178566 0.00557944 0.0
-0.000168906 0.00491995 0.0
-0.000159505 0.00429676 0.0
-0.000150263 0.00370913 0.0
-0.000141056 0.00315675 0.0
-0.000131735 0.00263977 0.0
-0.000122114 0.00215889 0.0
-0.000111965 0.00171548 0.0
-0.000101008 0.00131164 0.0
-8.89031e-05 0.000950376 0.0
-7.52385e-05 0.000635611 0.0
-5.95493e-05 0.000372264 0.0
-4.13946e-05 0.000166091 0.0
-2.06605e-05 2.31482e-05 0.0
1.57822e-06 -5.17825e-05 0.0
2.1198e-05 -6.07323e-05 0.0
2.49189e-05 -2.48322e-05 0.0
0.340928 0.123074 0.0
-8.53378e-05 0.25005 0.0
-0.0644503 0.273013 0.0
-0.0625008 0.254265 0.0
-0.0480094 0.224287 0.0
-0.0348207 0.194608 0.0
-0.0251743 0.168943 0.0
-0.0185234 0.147782 0.0
-0.0139856 0.130559 0.0
-0.0108595 0.116497 0.0
-0.00866625 0.104891 0.0
-0.00709507 0.09517 0.0
-0.00594586 0.0868964 0.0
-0.00508846 0.0797413 0.0
-0.00443662 0.0734586 0.0
-0.00393195 0.0678644 0.0
-0.00353413 0.0628209 0.0
-0.00321475 0.0582243 0.0
-0.00295352 0.0539961 0.0
-0.00273573 0.0500768 0.0
-0.00255062 0.0464209 0.0
-0.00239029 0.0429936 0.0
-0.00224889 0.0397681 0.0
-0.0021221 0.0367234 0.0
-0.00200673 0.0338432 0.0
-0.00190045 0.0311144 0.0
-0.00180152 0.0285264 0.0
-0.00170868 0.0260704 0.0
-0.00162099 0.0237392 0.0
-0.00153771 0.0215263 0.0
-0.00145827 0.0194264 0.0
-0.00138213 0.0174346 0.0
-0.0013088 0.015547 0.0
-0.00123774 0.0137602 0.0
-0.00116834 0.0120716 0.0
-0.00109991 0.0104794 0.0
-0.00103161 0.00898307 0.0
-0.000962476 0.00758298 0.0
-0.000891362 0.00628097 0.0
-0.000816954 0.00508038 0.0
-0.000737764 0.00398625 0.0
-0.000652169 0.00300535 0.0
-0.000558511 0.00214619 0.0
-0.000455347 0.00141863 0.0
-0.000342039 0.000833114 0.0
-0.000220147 0.000398886 0.0
-9.64763e-05 0.00012021 0.0
1.15908e-05 -1.07575e-05 0.0
6.0488e-05 -2.06628e-05 0.0
0.50137 0.0769719 0.0
0.100289 0.183998 0.0
-0.0378176 0.25085 0.0
-0.0720427 0.268067 0.0
-0.0710792 0.260141 0.0
-0.0606071 0.242262 0.0
-0.049273 0.221626 0.0
-0.0395725 0.201515 0.0
-0.0319046 0.183195 0.0
-0.0260237 0.16697 0.0
-0.0215539 0.152736 0.0
-0.0181523 0.140244 0.0
-0.0155464 0.129221 0.0
-0.0135305 0.119414 0.0
-0.0119528 0.110609 0.0
-0.010702 0.102629 0.0
-0.00969612 0.0953333 0.0
-0.00887462 0.0886097 0.0
-0.00819263 0.0823704 0.0
-0.00761668 0.0765462 0.0
-0.0071217 0.0710831 0.0
-0.00668889 0.0659389 0.0
-0.00630415 0.0610802 0.0
-0.00595693 0.0564808 0.0
-0.00563936 0.0521196 0.0
-0.00534556 0.0479798 0.0
-0.00507119 0.0440474 0.0
-0.00481302 0.0403106 0.0
-0.00456859 0.0367595 0.0
-0.00433599 0.0333854 0.0
-0.00411366 0.030181 0.0
-0.00390019 0.0271394 0.0
-0.00369418 0.0242552 0.0
-0.00349419 0.0215237 0.0
-0.00329855 0.0189411 0.0
-0.00310539 0.0165052 0.0
-0.00291249 0.0142151 0.0
-0.00271731 0.0120712 0.0
-0.00251693 0.0100763 0.0
-0.00230809 0.00823468 0.0
-0.00208727 0.00655316 0.0
-0.00185086 0.0050405 0.0
-0.00159555 0.0037074 0.0
-0.00131909 0.00256584 0.0
-0.0010217 0.00162784 0.0
-0.000708939 0.000903428 0.0
-0.000396887 0.000395931 0.0
-0.00011976 9.75221e-05 0.0
5.03354e-05 -5.7675e-07 0.0
0.611009 0.0482241 0.0
0.197665 0.134722 0.0
0.0136783 0.210889 0.0
-0.0562417 0.248446 0.0
-0.0752994 0.259038 0.0
-0.0743192 0.255105 0.0
-0.0665234 0.243785 0.0
-0.0573302 0.22934 0.0
-0.0487831 0.214097 0.0
-0.0415011 0.199207 0.0
-0.0355326 0.185183 0.0
-0.030724 0.172193 0.0
-0.0268723 0.160239 0.0
-0.0237846 0.149244 0.0
-0.0212965 0.139108 0.0
-0.0192749 0.129726 0.0
-0.0176148 0.121001 0.0
-0.0162341 0.112849 0.0
-0.0150694 0.105201 0.0
-0.0140718 0.0979985 0.0
-0.0132036 0.0911937 0.0
-0.0124362 0.0847488 0.0
-0.0117475 0.078633 0.0
-0.0111209 0.0728213 0.0
-0.0105439 0.0672934 0.0
-0.0100071 0.0620324 0.0
-0.00950333 0.0570243 0.0
-0.00902744 0.0522569 0.0
-0.00857538 0.0477196 0.0
-0.00814398 0.0434032 0.0
-0.00773059 0.0392992 0.0
-0.00733279 0.0354004 0.0
-0.00694818 0.0317004 0.0
-0.00657417 0.0281936 0.0
-0.00620783 0.0248761 0.0
-0.00584583 0.0217451 0.0
-0.00548427 0.0187992 0.0
-0.00511869 0.0160394 0.0
-0.00474408 0.0134683 0.0
-0.00435492 0.011091 0.0
-0.00394544 0.00891481 0.0
-0.00350994 0.00694938 0.0
-0.00304356 0.00520619 0.0
-0.00254349 0.00369791 0.0
-0.0020112 0.00243723 0.0
-0.00145618 0.0014351 0.0
-0.000902299 0.00069603 0.0
-0.000395964 0.00021772 0.0
-2.55485e-05 2.16228e-05 0.0
0.68181 0.0303159 0.0
0.281053 0.0988007 0.0
0.0723495 0.172063 0.0
-0.0255894 0.218731 0.0
-0.0649128 0.241832 0.0
-0.0762891 0.249363 0.0
-0.0752769 0.24723 0.0
-0.0693856 0.239569 0.0
-0.0621074 0.229033 0.0
-0.0549778 0.217223 0.0
-0.0485935 0.205062 0.0
-0.0431143 0.193054 0.0
-0.0385088 0.181455 0.0
-0.0346722 0.17038 0.0
-0.0314815 0.159859 0.0
-0.0288191 0.149885 0.0
-0.0265816 0.140429 0.0
-0.0246828 0.131456 0.0
-0.023052 0.12293 0.0
-0.0216324 0.114817 0.0
-0.0203793 0.107089 0.0
-0.0192572 0.0997187 0.0
-0.018239 0.0926859 0.0
-0.0173035 0.0859724 0.0
-0.0164349 0.0795627 0.0
-0.015621 0.0734439 0.0
-0.0148529 0.0676043 0.0
-0.0141235 0.0620336 0.0
-0.0134279 0.0567226 0.0
-0.0127617 0.0516627 0.0
-0.0121215 0.0468459 0.0
-0.0115039 0.042265 0.0
-0.0109056 0.0379137 0.0
-0.0103228 0.0337863 0.0
-0.0097513 0.0298786 0.0
-0.00918622 0.0261875 0.0
-0.00862186 0.0227118 0.0
-0.00805174 0.019452 0.0
-0.00746861 0.0164109 0.0
-0.00686462 0.0135935 0.0
-0.00623166 0.0110074 0.0
-0.00556198 0.00866206 0.0
-0.00484916 0.00656929 0.0
-0.00408977 0.00474203 0.0
-0.00328604 0.0031937 0.0
-0.00245 0.00193721 0.0
-0.00160998 0.000980487 0.0
-0.000818053 0.000330145 0.0
-0.000166569 4.13886e-05 0.0
0.731483 0.0192892 0.0
0.351957 0.0734036 0.0
0.130796 0.13979 0.0
0.0128441 0.18848 0.0
-0.0448203 0.219027 0.0
-0.0691042 0.234709 0.0
-0.0764198 0.24009 0.0
-0.0755692 0.238685 0.0
-0.0711426 0.23304 0.0
-0.0654727 0.224881 0.0
-0.0596958 0.215335 0.0
-0.0543212 0.205115 0.0
-0.0495369 0.194662 0.0
-0.0453721 0.184243 0.0
-0.0417831 0.174011 0.0
-0.0386977 0.164051 0.0
-0.0360372 0.154408 0.0
-0.0337276 0.145098 0.0
-0.0317033 0.136129 0.0
-0.0299088 0.127497 0.0
-0.0282985 0.119198 0.0
-0.0268355 0.111223 0.0
-0.0254906 0.103567 0.0
-0.0242411 0.0962205 0.0
-0.0230696 0.0891775 0.0
-0.0219629 0.0824312 0.0
-0.0209111 0.0759746 0.0
-0.0199067 0.0698012 0.0
-0.0189441 0.0639043 0.0
-0.0180186 0.0582773 0.0
-0.0171262 0.0529136 0.0
-0.0162631 0.0478069 0.0
-0.0154251 0.0429513 0.0
-0.0146076 0.0383416 0.0
-0.013805 0.0339734 0.0
-0.0130111 0.0298438 0.0
-0.0122184 0.0259514 0.0
-0.0114183 0.0222964 0.0
-0.0106013 0.0188813 0.0
-0.00975737 0.015711 0.0
-0.00887596 0.0127927 0.0
-0.00794716 0.0101357 0.0
-0.00696283 0.0077518 0.0
-0.00591842 0.00565432 0.0
-0.00481585 0.00385797 0.0
-0.0036676 0.00237862 0.0
-0.00250262 0.00122916 0.0
-0.00137251 0.000426441 0.0
-0.000364258 5.73954e-05 0.0
0.767609 0.0126233 0.0
0.41145 0.0557591 0.0
0.185511 0.114366 0.0
0.0535635 0.161757 0.0
-0.0189934 0.195633 0.0
-0.0553792 0.216592 0.0
-0.0714215 0.227524 0.0
-0.0765062 0.231247 0.0
-0.075951 0.229986 0.0
-0.0727059 0.225389 0.0
-0.0683732 0.218631 0.0
-0.063794 0.210523 0.0
-0.059384 0.201617 0.0
-0.0553251 0.192284 0.0
-0.0516739 0.182769 0.0
-0.0484229 0.173237 0.0
-0.045535 0.163793 0.0
-0.0429617 0.154508 0.0
-0.0406532 0.145428 0.0
-0.0385638 0.136584 0.0
-0.0366534 0.127997 0.0
-0.0348885 0.119679 0.0
-0.0332422 0.111639 0.0
-0.031693 0.103884 0.0
-0.0302245 0.0964165 0.0
-0.0288243 0.0892375 0.0
-0.0274831 0.0823467 0.0
-0.0261941 0.0757424 0.0
-0.024952 0.0694215 0.0
-0.0237527 0.0633803 0.0
-0.0225921 0.0576142 0.0
-0.0214664 0.0521183 0.0
-0.0203711 0.0468876 0.0
-0.0193008 0.0419175 0.0
-0.0182492 0.0372039 0.0
-0.0172084 0.0327438 0.0
-0.0161695 0.0285355 0.0
-0.0151219 0.0245792 0.0
-0.014054 0.0208769 0.0
-0.0129534 0.017433 0.0
-0.0118071 0.0142542 0.0
-0.0106029 0.0113497 0.0
-0.0093305 0.00873133 0.0
-0.0079835 0.00641297 0.0
-0.0065621 0.00441116 0.0
-0.0050769 0.00274536 0.0
-0.0035539 0.0014341 0.0
-0.00203923 0.000504206 0.0
-0.000608263 6.96533e-05 0.0
0.794586 0.00857313 0.0
0.461246 0.0433726 0.0
0.235333 0.0945413 0.0
0.0940076 0.139122 0.0
0.00998199 0.173662 0.0
-0.0372973 0.197797 0.0
-0.0618296 0.212583 0.0
-0.0731595 0.220247 0.0
-0.0770351 0.222624 0.0
-0.0768491 0.221191 0.0
-0.0745759 0.217073 0.0
-0.0713442 0.2111 0.0
-0.0677821 0.203874 0.0
-0.0642236 0.195826 0.0
-0.0608326 0.187265 0.0
-0.0576758 0.17841 0.0
-0.0547671 0.16942 0.0
-0.0520929 0.160408 0.0
-0.0496274 0.151457 0.0
-0.0473409 0.142628 0.0
-0.0452047 0.133966 0.0
-0.0431933 0.125507 0.0
-0.0412855 0.117275 0.0
-0.0394643 0.10929 0.0
-0.0377167 0.101566 0.0
-0.0360331 0.0941143 0.0
-0.0344066 0.0869405 0.0
-0.0328322 0.0800487 0.0
-0.0313064 0.0734403 0.0
-0.0298262 0.0671146 0.0
-0.0283885 0.0610696 0.0
-0.02699 0.055302 0.0
-0.0256261 0.0498081 0.0
-0.0242915 0.0445838 0.0
-0.0229789 0.0396253 0.0
-0.0216797 0.0349298 0.0
-0.0203831 0.0304953 0.0
-0.019077 0.0263215 0.0
-0.0177477 0.0224099 0.0
-0.0163802 0.0187645 0.0
-0.0149593 0.0153915 0.0
-0.0134701 0.0122998 0.0
-0.0118995 0.00950141 0.0
-0.0102385 0.00701111 0.0
-0.00848391 0.00484747 0.0
-0.00664245 0.00303373 0.0
-0.00473419 0.00159393 0.0
-0.00279612 0.000563758 0.0
-0.000888275 7.85963e-05 0.0
0.815366 0.00606607 0.0
0.503151 0.034522 0.0
0.280112 0.0790831 0.0
0.13275 0.120308 0.0
0.0397974 0.154203 0.0
-0.0166241 0.179757 0.0
-0.0490082 0.197058 0.0
-0.0665072 0.207592 0.0
-0.0750374 0.212838 0.0
-0.0782767 0.214058 0.0
-0.078477 0.212279 0.0
-0.0770018 0.208295 0.0
-0.0746641 0.202716 0.0
-0.0719383 0.195999 0.0
-0.0690925 0.188487 0.0
-0.0662695 0.180439 0.0
-0.0635385 0.172049 0.0
-0.0609257 0.163466 0.0
-0.058434 0.154802 0.0
-0.0560548 0.146145 0.0
-0.0537749 0.137564 0.0
-0.0515806 0.129111 0.0
-0.0494595 0.12083 0.0
-0.0474018 0.112753 0.0
-0.0454004 0.104905 0.0
-0.0434504 0.0973071 0.0
-0.041549 0.089972 0.0
-0.0396946 0.0829096 0.0
-0.0378864 0.0761259 0.0
-0.0361236 0.0696238 0.0
-0.0344049 0.0634037 0.0
-0.0327281 0.0574642 0.0
-0.0310895 0.0518026 0.0
-0.0294836 0.0464157 0.0
-0.0279032 0.0412999 0.0
-0.0263385 0.0364521 0.0
-0.0247779 0.0318703 0.0
-0.0232073 0.0275535 0.0
-0.0216111 0.0235028 0.0
-0.0199719 0.0197214 0.0
-0.0182718 0.0162151 0.0
-0.0164929 0.0129926 0.0
-0.0146191 0.0100661 0.0
-0.0126372 0.0074514 0.0
-0.01054 0.00516902 0.0
-0.00832802 0.00324579 0.0
-0.00601328 0.00171067 0.0
-0.00362129 0.000606554 0.0
-0.00119479 8.47364e-05 0.0
0.83184 0.00447287 0.0
0.538702 0.0280649 0.0
0.320171 0.0669337 0.0
0.169212 0.104704 0.0
0.0694241 0.13725 0.0
0.00551798 0.163044 0.0
-0.0340114 0.181897 0.0
-0.0574002 0.194434 0.0
-0.0705899 0.201864 0.0
-0.0774237 0.205231 0.0
-0.0803501 0.205437 0.0
-0.0809147 0.203219 0.0
-0.0800844 0.19916 0.0
-0.0784568 0.193723 0.0
-0.0763952 0.187263 0.0
-0.0741155 0.180063 0.0
-0.0717417 0.172341 0.0
-0.0693415 0.16427 0.0
-0.0669493 0.155986 0.0
-0.0645802 0.147601 0.0
-0.0622395 0.139202 0.0
-0.0599277 0.130859 0.0
-0.0576444 0.122631 0.0
-0.0553891 0.114563 0.0
-0.0531627 0.106692 0.0
-0.0509668 0.0990446 0.0
-0.0488044 0.0916435 0.0
-0.0466786 0.0845037 0.0
-0.0445925 0.0776357 0.0
-0.0425487 0.0710457 0.0
-0.0405483 0.0647366 0.0
-0.0385912 0.0587088 0.0
-0.0366748 0.0529607 0.0
-0.0347944 0.0474895 0.0
-0.0329426 0.0422918 0.0
-0.0311093 0.0373644 0.0
-0.0292818 0.0327047 0.0
-0.0274446 0.0283111 0.0
-0.0255798 0.0241841 0.0
-0.0236679 0.0203261 0.0
-0.021688 0.0167425 0.0
-0.019619 0.0134417 0.0
-0.0174406 0.010436 0.0
-0.0151354 0.00774211 0.0
-0.0126901 0.0053824 0.0
-0.0100983 0.00338665 0.0
-0.00736214 0.00178788 0.0
-0.00449424 0.000634445 0.0
-0.00151938 8.8552e-05 0.0
0.845227 0.00342779 0.0
0.569129 0.0232519 0.0
0.355975 0.0572909 0.0
0.203164 0.0917554 0.0
0.0981841 0.122614 0.0
0.0280653 0.14803 0.0
-0.0176826 0.167603 0.0
-0.0465461 0.181473 0.0
-0.064257 0.190506 0.0
-0.0747167 0.195557 0.0
-0.0804994 0.197399 0.0
-0.0832857 0.196693 0.0
-0.0841653 0.193985 0.0
-0.0838393 0.189721 0.0
-0.0827548 0.184258 0.0
-0.0811943 0.177888 0.0
-0.0793337 0.170843 0.0
-0.0772814 0.163314 0.0
-0.0751035 0.155456 0.0
-0.0728404 0.147397 0.0
-0.0705175 0.139241 0.0
-0.0681517 0.131074 0.0
-0.0657562 0.122968 0.0
-0.0633419 0.11498 0.0
-0.0609194 0.107156 0.0
-0.0584989 0.0995322 0.0
-0.0560902 0.0921379 0.0
-0.0537027 0.0849933 0.0
-0.0513447 0.0781132 0.0
-0.0490229 0.071507 0.0
-0.0467419 0.0651798 0.0
-0.0445041 0.0591335 0.0
-0.0423089 0.0533672 0.0
-0.0401526 0.0478786 0.0
-0.0380284 0.0426642 0.0
-0.0359258 0.0377204 0.0
-0.0338313 0.0330438 0.0
-0.0317279 0.0286323 0.0
-0.0295961 0.0244853 0.0
-0.0274134 0.0206047 0.0
-0.0251562 0.016995 0.0
-0.0227994 0.0136643 0.0
-0.0203185 0.010625 0.0
-0.0176907 0.00789441 0.0
-0.0148961 0.00549629 0.0
-0.01192 0.0034627 0.0
-0.00875376 0.00182964 0.0
-0.00539639 0.000649312 0.0
-0.00185471 9.04521e-05 0.0
0.856336 0.00271738 0.0
0.595407 0.0195865 0.0
0.388026 0.0495493 0.0
0.234613 0.0809576 0.0
0.125748 0.109991 0.0
0.0504832 0.134673 0.0
-0.000598492 0.154379 0.0
-0.0344996 0.169089 0.0
-0.0565143 0.179256 0.0
-0.0705404 0.185596 0.0
-0.0792222 0.188754 0.0
-0.0843345 0.189311 0.0
-0.0870609 0.187768 0.0
-0.0881869 0.184545 0.0
-0.0882307 0.17999 0.0
-0.087533 0.174394 0.0
-0.0863172 0.167998 0.0
-0.0847298 0.161004 0.0
-0.0828677 0.153579 0.0
-0.0807967 0.145866 0.0
-0.0785629 0.137982 0.0
-0.0762012 0.130028 0.0
-0.0737396 0.122085 0.0
-0.0712021 0.114222 0.0
-0.0686105 0.106495 0.0
-0.0659848 0.0989477 0.0
-0.0633436 0.0916142 0.0
-0.0607035 0.0845206 0.0
-0.0580791 0.0776852 0.0
-0.0554823 0.0711204 0.0
-0.052922 0.0648331 0.0
-0.0504039 0.0588262 0.0
-0.0479297 0.0530996 0.0
-0.0454975 0.0476508 0.0
-0.0431009 0.042476 0.0
-0.0407298 0.0375709 0.0
-0.0383699 0.0329314 0.0
-0.036003 0.0285543 0.0
-0.0336074 0.0244381 0.0
-0.0311583 0.0205837 0.0
-0.0286284 0.0169948 0.0
-0.0259889 0.0136789 0.0
-0.0232103 0.0106482 0.0
-0.0202639 0.00792041 0.0
-0.0171225 0.00552001 0.0
-0.0137623 0.00348055 0.0
-0.0101636 0.00184001 0.0
-0.00631118 0.000652875 0.0
-0.00219449 9.0771e-05 0.0
0.86572 0.00221642 0.0
0.618302 0.0167375 0.0
0.416799 0.0432608 0.0
0.26367 0.0718969 0.0
0.15195 0.0990942 0.0
0.0724398 0.12284 0.0
0.0167664 0.142323 0.0
-0.0216872 0.157468 0.0
-0.0477474 0.168405 0.0
-0.0652256 0.175705 0.0
-0.0767898 0.179899 0.0
-0.0842755 0.18149 0.0
-0.0889352 0.180929 0.0
-0.0916205 0.178604 0.0
-0.092908 0.174851 0.0
-0.0931881 0.169952 0.0
-0.0927257 0.164152 0.0
-0.0917019 0.157659 0.0
-0.0902428 0.15065 0.0
-0.0884385 0.143277 0.0
-0.0863565 0.135671 0.0
-0.0840496 0.127943 0.0
-0.0815621 0.120184 0.0
-0.0789323 0.112474 0.0
-0.0761946 0.104876 0.0
-0.0733803 0.0974396 0.0
-0.0705177 0.0902063 0.0
-0.067632 0.0832058 0.0
-0.0647451 0.0764597 0.0
-0.0618752 0.0699826 0.0
-0.0590363 0.0637828 0.0
-0.0562377 0.057864 0.0
-0.0534844 0.052226 0.0
-0.0507763 0.0468663 0.0
-0.0481083 0.0417801 0.0
-0.0454704 0.0369624 0.0
-0.0428478 0.0324079 0.0
-0.0402211 0.0281123 0.0
-0.0375666 0.0240727 0.0
-0.0348568 0.0202889 0.0
-0.0320609 0.0167637 0.0
-0.0291458 0.0135037 0.0
-0.0260769 0.0105206 0.0
-0.0228187 0.00783194 0.0
-0.0193367 0.00546249 0.0
-0.0155974 0.0034464 0.0
-0.0115694 0.00182262 0.0
-0.00722392 0.00064662 0.0
-0.00253326 8.97715e-05 0.0
0.873765 0.00185059 0.0
0.638414 0.0144814 0.0
0.442719 0.0380946 0.0
0.2905 0.0642437 0.0
0.176733 0.0896653 0.0
0.093722 0.112372 0.0
0.0340399 0.131441 0.0
-0.00845387 0.146693 0.0
-0.0382752 0.15812 0.0
-0.0590535 0.166105 0.0
-0.0734425 0.171092 0.0
-0.0833081 0.173511 0.0
-0.0899497 0.173758 0.0
-0.0942677 0.172192 0.0
-0.0968851 0.169126 0.0
-0.0982332 0.164836 0.0
-0.0986122 0.159564 0.0
-0.0982339 0.153522 0.0
-0.0972507 0.146893 0.0
-0.0957762 0.139838 0.0
-0.0938983 0.132498 0.0
-0.0916889 0.124993 0.0
-0.0892087 0.117425 0.0
-0.0865115 0.10988 0.0
-0.0836455 0.102428 0.0
-0.0806545 0.0951274 0.0
-0.0775778 0.0880225 0.0
-0.0744504 0.0811471 0.0
-0.0713025 0.0745254 0.0
-0.0681594 0.0681737 0.0
-0.0650408 0.0621012 0.0
-0.0619607 0.0563117 0.0
-0.0589275 0.0508048 0.0
-0.0559434 0.0455771 0.0
-0.0530047 0.040623 0.0
-0.0501021 0.035936 0.0
-0.0472201 0.0315095 0.0
-0.0443382 0.0273377 0.0
-0.0414307 0.0234164 0.0
-0.0384673 0.0197439 0.0
-0.0354135 0.0163217 0.0
-0.0322318 0.0131554 0.0
-0.0288819 0.0102559 0.0
-0.0253219 0.00763982 0.0
-0.0215088 0.0053318 0.0
-0.0173997 0.00336575 0.0
-0.0129515 0.00178065 0.0
-0.00812165 0.00063177 0.0
-0.00286634 8.76531e-05 0.0
0.88075 0.00157466 0.0
0.656215 0.012664 0.0
0.466157 0.033803 0.0
0.315284 0.0577302 0.0
0.200108 0.0814679 0.0
0.114224 0.103089 0.0
0.0510663 0.121613 0.0
0.00500384 0.136733 0.0
-0.0283328 0.148449 0.0
-0.0522519 0.156904 0.0
-0.0693862 0.162485 0.0
-0.0816119 0.165551 0.0
-0.0902564 0.166449 0.0
-0.0962551 0.165506 0.0
-0.100265 0.163014 0.0
-0.102751 0.15924 0.0
-0.104042 0.15442 0.0
-0.104375 0.148768 0.0
-0.103927 0.142473 0.0
-0.102834 0.135703 0.0
-0.101203 0.128606 0.0
-0.099124 0.12131 0.0
-0.0966765 0.113927 0.0
-0.0939299 0.106549 0.0
-0.0909474 0.0992534 0.0
-0.0877863 0.0921032 0.0
-0.0844984 0.0851469 0.0
-0.0811293 0.0784214 0.0
-0.0777187 0.0719526 0.0
-0.0742997 0.0657579 0.0
-0.0708984 0.0598466 0.0
-0.0675341 0.0542224 0.0
-0.0642191 0.048884 0.0
-0.0609582 0.0438267 0.0
-0.0577494 0.0390436 0.0
-0.0545839 0.0345265 0.0
-0.0514461 0.0302671 0.0
-0.0483142 0.026258 0.0
-0.0451604 0.0224933 0.0
-0.0419514 0.0189695 0.0
-0.0386493 0.0156866 0.0
-0.0352116 0.012649 0.0
-0.0315923 0.00986602 0.0
-0.0277427 0.0073535 0.0
-0.0236115 0.0051349 0.0
-0.0191461 0.00324322 0.0
-0.0142919 0.00171665 0.0
-0.00899281 0.000609291 0.0
-0.00318958 8.45607e-05 0.0
0.886879 0.00136045 0.0
0.672081 0.0111768 0.0
0.487433 0.0301992 0.0
0.338201 0.0521446 0.0
0.222119 0.0743076 0.0
0.13388 0.0948438 0.0
0.0676922 0.112748 0.0
0.0184084 0.127617 0.0
-0.0181238 0.139408 0.0
-0.0450112 0.148157 0.0
-0.0647979 0.15416 0.0
-0.0793464 0.157713 0.0
-0.0899963 0.159119 0.0
-0.0977044 0.158672 0.0
-0.103153 0.156645 0.0
-0.106829 0.153291 0.0
-0.109085 0.148845 0.0
-0.110183 0.143517 0.0
-0.110317 0.137503 0.0
-0.109645 0.130975 0.0
-0.108292 0.12409 0.0
-0.106369 0.116984 0.0
-0.103971 0.109773 0.0
-0.101185 0.102559 0.0
-0.0980915 0.0954232 0.0
-0.0947614 0.0884333 0.0
-0.09126 0.0816412 0.0
-0.087645 0.0750858 0.0
-0.0839663 0.0687943 0.0
-0.0802656 0.0627842 0.0
-0.0765763 0.0570647 0.0
-0.0729234 0.0516382 0.0
-0.0693232 0.0465023 0.0
-0.0657838 0.0416505 0.0
-0.062305 0.0370742 0.0
-0.0588784 0.0327631 0.0
-0.0554885 0.0287071 0.0
-0.052112 0.0248967 0.0
-0.0487192 0.0213239 0.0
-0.0452738 0.0179835 0.0
-0.0417339 0.0148737 0.0
-0.0380523 0.0119971 0.0
-0.0341773 0.00936144 0.0
-0.0300529 0.00698095 0.0
-0.0256198 0.00487754 0.0
-0.0208156 0.00308258 0.0
-0.0155743 0.00163268 0.0
-0.00982696 0.000579916 0.0
-0.00349928 8.05936e-05 0.0
0.892305 0.00118971 0.0
0.686308 0.00994114 0.0
0.506816 0.0271397 0.0
0.359422 0.0473141 0.0
0.24283 0.0680119 0.0
0.152669 0.0874824 0.0
0.0838452 0.104713 0.0
0.0316576 0.119242 0.0
-0.00780836 0.130969 0.0
-0.0374959 0.139868 0.0
-0.0598331 0.146143 0.0
-0.076655 0.150041 0.0
-0.089299 0.151825 0.0
-0.0987308 0.151756 0.0
-0.105647 0.150087 0.0
-0.110553 0.147062 0.0
-0.113817 0.142908 0.0
-0.115718 0.137838 0.0
-0.11647 0.132048 0.0
-0.116248 0.125718 0.0
-0.115196 0.119011 0.0