# vtk DataFile Version 3.0
Malha 2D com triângulos e temperatura
ASCII
DATASET UNSTRUCTURED_GRID

POINTS 2500 double
0 0 0
1 0 0
1 1 0
0 1 0
0.0204082 0 0
0.0408163 0 0
0.0612245 0 0
0.0816327 0 0
0.102041 0 0
0.122449 0 0
0.142857 0 0
0.163265 0 0
0.183673 0 0
0.204082 0 0
0.22449 0 0
0.244898 0 0
0.265306 0 0
0.285714 0 0
0.306122 0 0
0.326531 0 0
0.346939 0 0
0.367347 0 0
0.387755 0 0
0.408163 0 0
0.428571 0 0
0.44898 0 0
0.469388 0 0
0.489796 0 0
0.510204 0 0
0.530612 0 0
0.55102 0 0
0.571429 0 0
0.591837 0 0
0.612245 0 0
0.632653 0 0
0.653061 0 0
0.673469 0 0
0.693878 0 0
0.714286 0 0
0.734694 0 0
0.755102 0 0
0.77551 0 0
0.795918 0 0
0.816327 0 0
0.836735 0 0
0.857143 0 0
0.877551 0 0
0.897959 0 0
0.918367 0 0
0.938776 0 0
0.959184 0 0
0.979592 0 0
1 0.0204082 0
1 0.0408163 0
1 0.0612245 0
1 0.0816327 0
1 0.102041 0
1 0.122449 0
1 0.142857 0
1 0.163265 0
1 0.183673 0
1 0.204082 0
1 0.22449 0
1 0.244898 0
1 0.265306 0
1 0.285714 0
1 0.306122 0
1 0.326531 0
1 0.346939 0
1 0.367347 0
1 0.387755 0
1 0.408163 0
1 0.428571 0
1 0.44898 0
1 0.469388 0
1 0.489796 0
1 0.510204 0
1 0.530612 0
1 0.55102 0
1 0.571429 0
1 0.591837 0
1 0.612245 0
1 0.632653 0
1 0.653061 0
1 0.673469 0
1 0.693878 0
1 0.714286 0
1 0.734694 0
1 0.755102 0
1 0.77551 0
1 0.795918 0
1 0.816327 0
1 0.836735 0
1 0.857143 0
1 0.877551 0
1 0.897959 0
1 0.918367 0
1 0.938776 0
1 0.959184 0
1 0.979592 0
0.979592 1 0
0.959184 1 0
0.938776 1 0
0.918367 1 0
0.897959 1 0
0.877551 1 0
0.857143 1 0
0.836735 1 0
0.816327 1 0
0.795918 1 0
0.77551 1 0
0.755102 1 0
0.734694 1 0
0.714286 1 0
0.693878 1 0
0.673469 1 0
0.653061 1 0
0.632653 1 0
0.612245 1 0
0.591837 1 0
0.571429 1 0
0.55102 1 0
0.530612 1 0
0.510204 1 0
0.489796 1 0
0.469388 1 0
0.44898 1 0
0.428571 1 0
0.408163 1 0
0.387755 1 0
0.367347 1 0
0.346939 1 0
0.326531 1 0
0.306122 1 0
0.285714 1 0
0.265306 1 0
0.244898 1 0
0.22449 1 0
0.204082 1 0
0.183673 1 0
0.163265 1 0
0.142857 1 0
0.122449 1 0
0.102041 1 0
0.0816327 1 0
0.0612245 1 0
0.0408163 1 0
0.0204082 1 0
0 0.979592 0
0 0.959184 0
0 0.938776 0
0 0.918367 0
0 0.897959 0
0 0.877551 0
0 0.857143 0
0 0.836735 0
0 0.816327 0
0 0.795918 0
0 0.77551 0
0 0.755102 0
0 0.734694 0
0 0.714286 0
0 0.693878 0
0 0.673469 0
0 0.653061 0
0 0.632653 0
0 0.612245 0
0 0.591837 0
0 0.571429 0
0 0.55102 0
0 0.530612 0
0 0.510204 0
0 0.489796 0
0 0.469388 0
0 0.44898 0
0 0.428571 0
0 0.408163 0
0 0.387755 0
0 0.367347 0
0 0.346939 0
0 0.326531 0
0 0.306122 0
0 0.285714 0
0 0.265306 0
0 0.244898 0
0 0.22449 0
0 0.204082 0
0 0.183673 0
0 0.163265 0
0 0.142857 0
0 0.122449 0
0 0.102041 0
0 0.0816327 0
0 0.0612245 0
0 0.0408163 0
0 0.0204082 0
0.0204082 0.979592 0
0.0204082 0.959184 0
0.0204082 0.938776 0
0.0204082 0.918367 0
0.0204082 0.897959 0
0.0204082 0.877551 0
0.0204082 0.857143 0
0.0204082 0.836735 0
0.0204082 0.816327 0
0.0204082 0.795918 0
0.0204082 0.77551 0
0.0204082 0.755102 0
0.0204082 0.734694 0
0.0204082 0.714286 0
0.0204082 0.693878 0
0.0204082 0.673469 0
0.0204082 0.653061 0
0.0204082 0.632653 0
0.0204082 0.612245 0
0.0204082 0.591837 0
0.0204082 0.571429 0
0.0204082 0.55102 0
0.0204082 0.530612 0
0.0204082 0.510204 0
0.0204082 0.489796 0
0.0204082 0.469388 0
0.0204082 0.44898 0
0.0204082 0.428571 0
0.0204082 0.408163 0
0.0204082 0.387755 0
0.0204082 0.367347 0
0.0204082 0.346939 0
0.0204082 0.326531 0
0.0204082 0.306122 0
0.0204082 0.285714 0
0.0204082 0.265306 0
0.0204082 0.244898 0
0.0204082 0.22449 0
0.0204082 0.204082 0
0.0204082 0.183673 0
0.0204082 0.163265 0
0.0204082 0.142857 0
0.0204082 0.122449 0
0.0204082 0.102041 0
0.0204082 0.0816327 0
0.0204082 0.0612245 0
0.0204082 0.0408163 0
0.0204082 0.0204082 0
0.0408163 0.979592 0
0.0408163 0.959184 0
0.0408163 0.938776 0
0.0408163 0.918367 0
0.0408163 0.897959 0
0.0408163 0.877551 0
0.0408163 0.857143 0
0.0408163 0.836735 0
0.0408163 0.816327 0
0.0408163 0.795918 0
0.0408163 0.77551 0
0.0408163 0.755102 0
0.0408163 0.734694 0
0.0408163 0.714286 0
0.0408163 0.693878 0
0.0408163 0.673469 0
0.0408163 0.653061 0
0.0408163 0.632653 0
0.0408163 0.612245 0
0.0408163 0.591837 0
0.0408163 0.571429 0
0.0408163 0.55102 0
0.0408163 0.530612 0
0.0408163 0.510204 0
0.0408163 0.489796 0
0.0408163 0.469388 0
0.0408163 0.44898 0
0.0408163 0.428571 0
0.0408163 0.408163 0
0.0408163 0.387755 0
0.0408163 0.367347 0
0.0408163 0.346939 0
0.0408163 0.326531 0
0.0408163 0.306122 0
0.0408163 0.285714 0
0.0408163 0.265306 0
0.0408163 0.244898 0
0.0408163 0.22449 0
0.0408163 0.204082 0
0.0408163 0.183673 0
0.0408163 0.163265 0
0.0408163 0.142857 0
0.0408163 0.122449 0
0.0408163 0.102041 0
0.0408163 0.0816327 0
0.0408163 0.0612245 0
0.0408163 0.0408163 0
0.0408163 0.0204082 0
0.0612245 0.979592 0
0.0612245 0.959184 0
0.0612245 0.938776 0
0.0612245 0.918367 0
0.0612245 0.897959 0
0.0612245 0.877551 0
0.0612245 0.857143 0
0.0612245 0.836735 0
0.0612245 0.816327 0
0.0612245 0.795918 0
0.0612245 0.77551 0
0.0612245 0.755102 0
0.0612245 0.734694 0
0.0612245 0.714286 0
0.0612245 0.693878 0
0.0612245 0.673469 0
0.0612245 0.653061 0
0.0612245 0.632653 0
0.0612245 0.612245 0
0.0612245 0.591837 0
0.0612245 0.571429 0
0.0612245 0.55102 0
0.0612245 0.530612 0
0.0612245 0.510204 0
0.0612245 0.489796 0
0.0612245 0.469388 0
0.0612245 0.44898 0
0.0612245 0.428571 0
0.0612245 0.408163 0
0.0612245 0.387755 0
0.0612245 0.367347 0
0.0612245 0.346939 0
0.0612245 0.326531 0
0.0612245 0.306122 0
0.0612245 0.285714 0
0.0612245 0.265306 0
0.0612245 0.244898 0
0.0612245 0.22449 0
0.0612245 0.204082 0
0.0612245 0.183673 0
0.0612245 0.163265 0
0.0612245 0.142857 0
0.0612245 0.122449 0
0.0612245 0.102041 0
0.0612245 0.0816327 0
0.0612245 0.0612245 0
0.0612245 0.0408163 0
0.0612245 0.0204082 0
0.0816327 0.979592 0
0.0816327 0.959184 0
0.0816327 0.938776 0
0.0816327 0.918367 0
0.0816327 0.897959 0
0.0816327 0.877551 0
0.0816327 0.857143 0
0.0816327 0.836735 0
0.0816327 0.816327 0
0.0816327 0.795918 0
0.0816327 0.77551 0
0.0816327 0.755102 0
0.0816327 0.734694 0
0.0816327 0.714286 0
0.0816327 0.693878 0
0.0816327 0.673469 0
0.0816327 0.653061 0
0.0816327 0.632653 0
0.0816327 0.612245 0
0.0816327 0.591837 0
0.0816327 0.571429 0
0.0816327 0.55102 0
0.0816327 0.530612 0
0.0816327 0.510204 0
0.0816327 0.489796 0
0.0816327 0.469388 0
0.0816327 0.44898 0
0.0816327 0.428571 0
0.0816327 0.408163 0
0.0816327 0.387755 0
0.0816327 0.367347 0
0.0816327 0.346939 0
0.0816327 0.326531 0
0.0816327 0.306122 0
0.0816327 0.285714 0
0.0816327 0.265306 0
0.0816327 0.244898 0
0.0816327 0.22449 0
0.0816327 0.204082 0
0.0816327 0.183673 0
0.0816327 0.163265 0
0.0816327 0.142857 0
0.0816327 0.122449 0
0.0816327 0.102041 0
0.0816327 0.0816327 0
0.0816327 0.0612245 0
0.0816327 0.0408163 0
0.0816327 0.0204082 0
0.102041 0.979592 0
0.102041 0.959184 0
0.102041 0.938776 0
0.102041 0.918367 0
0.102041 0.897959 0
0.102041 0.877551 0
0.102041 0.857143 0
0.102041 0.836735 0
0.102041 0.816327 0
0.102041 0.795918 0
0.102041 0.77551 0
0.102041 0.755102 0
0.102041 0.734694 0
0.102041 0.714286 0
0.102041 0.693878 0
0.102041 0.673469 0
0.102041 0.653061 0
0.102041 0.632653 0
0.102041 0.612245 0
0.102041 0.591837 0
0.102041 0.571429 0
0.102041 0.55102 0
0.102041 0.530612 0
0.102041 0.510204 0
0.102041 0.489796 0
0.102041 0.469388 0
0.102041 0.44898 0
0.102041 0.428571 0
0.102041 0.408163 0
0.102041 0.387755 0
0.102041 0.367347 0
0.102041 0.346939 0
0.102041 0.326531 0
0.102041 0.306122 0
0.102041 0.285714 0
0.102041 0.265306 0
0.102041 0.244898 0
0.102041 0.22449 0
0.102041 0.204082 0
0.102041 0.183673 0
0.102041 0.163265 0
0.102041 0.142857 0
0.102041 0.122449 0
0.102041 0.102041 0
0.102041 0.0816327 0
0.102041 0.0612245 0
0.102041 0.0408163 0
0.102041 0.0204082 0
0.122449 0.979592 0
0.122449 0.959184 0
0.122449 0.938776 0
0.122449 0.918367 0
0.122449 0.897959 0
0.122449 0.877551 0
0.122449 0.857143 0
0.122449 0.836735 0
0.122449 0.816327 0
0.122449 0.795918 0
0.122449 0.77551 0
0.122449 0.755102 0
0.122449 0.734694 0
0.122449 0.714286 0
0.122449 0.693878 0
0.122449 0.673469 0
0.122449 0.653061 0
0.122449 0.632653 0
0.122449 0.612245 0
0.122449 0.591837 0
0.122449 0.571429 0
0.122449 0.55102 0
0.122449 0.530612 0
0.122449 0.510204 0
0.122449 0.489796 0
0.122449 0.469388 0
0.122449 0.44898 0
0.122449 0.428571 0
0.122449 0.408163 0
0.122449 0.387755 0
0.122449 0.367347 0
0.122449 0.346939 0
0.122449 0.326531 0
0.122449 0.306122 0
0.122449 0.285714 0
0.122449 0.265306 0
0.122449 0.244898 0
0.122449 0.22449 0
0.122449 0.204082 0
0.122449 0.183673 0
0.122449 0.163265 0
0.122449 0.142857 0
0.122449 0.122449 0
0.122449 0.102041 0
0.122449 0.0816327 0
0.122449 0.0612245 0
0.122449 0.0408163 0
0.122449 0.0204082 0
0.142857 0.979592 0
0.142857 0.959184 0
0.142857 0.938776 0
0.142857 0.918367 0
0.142857 0.897959 0
0.142857 0.877551 0
0.142857 0.857143 0
0.142857 0.836735 0
0.142857 0.816327 0
0.142857 0.795918 0
0.142857 0.77551 0
0.142857 0.755102 0
0.142857 0.734694 0
0.142857 0.714286 0
0.142857 0.693878 0
0.142857 0.673469 0
0.142857 0.653061 0
0.142857 0.632653 0
0.142857 0.612245 0
0.142857 0.591837 0
0.142857 0.571429 0
0.142857 0.55102 0
0.142857 0.530612 0
0.142857 0.510204 0
0.142857 0.489796 0
0.142857 0.469388 0
0.142857 0.44898 0
0.142857 0.428571 0
0.142857 0.408163 0
0.142857 0.387755 0
0.142857 0.367347 0
0.142857 0.346939 0
0.142857 0.326531 0
0.142857 0.306122 0
0.142857 0.285714 0
0.142857 0.265306 0
0.142857 0.244898 0
0.142857 0.22449 0
0.142857 0.204082 0
0.142857 0.183673 0
0.142857 0.163265 0
0.142857 0.142857 0
0.142857 0.122449 0
0.142857 0.102041 0
0.142857 0.0816327 0
0.142857 0.0612245 0
0.142857 0.0408163 0
0.142857 0.0204082 0
0.163265 0.979592 0
0.163265 0.959184 0
0.163265 0.938776 0
0.163265 0.918367 0
0.163265 0.897959 0
0.163265 0.877551 0
0.163265 0.857143 0
0.163265 0.836735 0
0.163265 0.816327 0
0.163265 0.795918 0
0.163265 0.77551 0
0.163265 0.755102 0
0.163265 0.734694 0
0.163265 0.714286 0
0.163265 0.693878 0
0.163265 0.673469 0
0.163265 0.653061 0
0.163265 0.632653 0
0.163265 0.612245 0
0.163265 0.591837 0
0.163265 0.571429 0
0.163265 0.55102 0
[...]
CELL_DATA 2401
VECTORS velocity double
0.257577 0.157295 0.0
-0.0025081 0.264614 0.0
-0.0320507 0.206091 0.0
-0.0251377 0.151743 0.0
-0.0158836 0.114673 0.0
-0.00961965 0.0895753 0.0
-0.0059417 0.0724945 0.0
-0.00384205 0.0605331 0.0
-0.00262489 0.0518228 0.0
-0.00189301 0.0452316 0.0
-0.00143222 0.0400678 0.0
-0.0011282 0.0358979 0.0
-0.000918814 0.0324419 0.0
-0.000769146 0.0295129 0.0
-0.000658719 0.0269826 0.0
-0.000574986 0.0247607 0.0
-0.000509931 0.0227822 0.0
-0.00045825 0.0209995 0.0
-0.000416322 0.0193772 0.0
-0.000381618 0.0178887 0.0
-0.000352341 0.0165137 0.0
-0.000327191 0.0152365 0.0
-0.000305226 0.014045 0.0
-0.000285752 0.0129295 0.0
-0.000268262 0.0118823 0.0
-0.000252378 0.0108972 0.0
-0.000237824 0.00996878 0.0
-0.000224393 0.00909279 0.0
-0.000211927 0.00826542 0.0
-0.000200304 0.00748341 0.0
-0.000189424 0.00674386 0.0
-0.000179198 0.00604425 0.0
-0.000169539 0.00538238 0.0
-0.000160361 0.00475638 0.0
-0.000151562 0.00416472 0.0
-0.000143029 0.00360628 0.0
-0.000134625 0.00308037 0.0
-0.000126184 0.00258685 0.0
-0.000117506 0.00212617 0.0
-0.000108346 0.0016995 0.0
-9.84058e-05 0.00130886 0.0
-8.73201e-05 0.000957191 0.0
-7.46495e-05 0.000648499 0.0
-5.98896e-05 0.000387886 0.0
-4.25435e-05 0.000181444 0.0
-2.24102e-05 3.57727e-05 0.0
-4.25064e-07 -4.35495e-05 0.0
1.95133e-05 -5.7292e-05 0.0
2.43423e-05 -2.42612e-05 0.0
0.340953 0.123091 0.0
5.75432e-06 0.250142 0.0
-0.0643262 0.273226 0.0
-0.0623799 0.254596 0.0
-0.0479251 0.224705 0.0
-0.0347915 0.19506 0.0
-0.0252036 0.169366 0.0
-0.018604 0.148116 0.0
-0.0141055 0.130752 0.0
-0.0110051 0.116514 0.0
-0.00882491 0.10471 0.0
-0.00725601 0.0947822 0.0
-0.00610058 0.0863057 0.0
-0.0052307 0.07896 0.0
-0.00456206 0.0725059 0.0
-0.00403794 0.066764 0.0
-0.00361936 0.061599 0.0
-0.00327895 0.0569084 0.0
-0.00299721 0.0526134 0.0
-0.00276001 0.0486537 0.0
-0.00255702 0.0449821 0.0
-0.0023806 0.0415617 0.0
-0.00222505 0.0383632 0.0
-0.00208612 0.0353632 0.0
-0.00196064 0.0325425 0.0
-0.00184621 0.0298854 0.0
-0.00174101 0.0273789 0.0
-0.00164367 0.0250117 0.0
-0.0015531 0.0227741 0.0
-0.00146844 0.0206579 0.0
-0.00138896 0.0186555 0.0
-0.00131401 0.0167606 0.0
-0.00124294 0.0149674 0.0
-0.00117512 0.0132713 0.0
-0.00110981 0.0116685 0.0
-0.0010462 0.010156 0.0
-0.000983369 0.00873236 0.0
-0.000920222 0.00739718 0.0
-0.000855505 0.00615167 0.0
-0.000787774 0.00499872 0.0
-0.000715392 0.00394309 0.0
-0.000636562 0.00299154 0.0
-0.000549417 0.00215277 0.0
-0.000452255 0.00143721 0.0
-0.00034411 0.000856172 0.0
-0.000226111 0.000420251 0.0
-0.000104483 0.000135514 0.0
4.16596e-06 -3.38962e-06 0.0
5.70624e-05 -1.90124e-05 0.0
0.501458 0.0769988 0.0
0.100499 0.184124 0.0
-0.0375644 0.251113 0.0
-0.0718184 0.268442 0.0
-0.0709439 0.260575 0.0
-0.0605951 0.242689 0.0
-0.0493906 0.221968 0.0
-0.0398055 0.201701 0.0
-0.0322271 0.183167 0.0
-0.0264057 0.166684 0.0
-0.0219661 0.152167 0.0
-0.0185689 0.139385 0.0
-0.0159465 0.128078 0.0
-0.0138982 0.118006 0.0
-0.0122769 0.108964 0.0
-0.0109754 0.10078 0.0
-0.00991496 0.0933177 0.0
-0.00903795 0.0864668 0.0
-0.00830158 0.0801394 0.0
-0.00767395 0.0742649 0.0
-0.00713113 0.0687872 0.0
-0.00665512 0.063661 0.0
-0.00623228 0.0588496 0.0
-0.00585228 0.054323 0.0
-0.0055073 0.0500564 0.0
-0.00519135 0.046029 0.0
-0.00489988 0.0422232 0.0
-0.00462936 0.0386237 0.0
-0.004377 0.0352172 0.0
-0.00414054 0.0319921 0.0
-0.00391805 0.0289379 0.0
-0.00370774 0.0260455 0.0
-0.00350788 0.0233069 0.0
-0.00331669 0.0207154 0.0
-0.00313221 0.0182656 0.0
-0.00295223 0.0159535 0.0
-0.00277425 0.0137767 0.0
-0.00259541 0.0117347 0.0
-0.00241248 0.00982921 0.0
-0.00222181 0.00806399 0.0
-0.00201947 0.00644538 0.0
-0.00180136 0.00498216 0.0
-0.00156361 0.00368536 0.0
-0.00130329 0.00256773 0.0
-0.0010198 0.00164258 0.0
-0.00071771 0.000921748 0.0
-0.000411884 0.000410936 0.0
-0.000135089 0.000105433 0.0
4.21994e-05 1.35809e-06 0.0
0.611172 0.048252 0.0
0.197997 0.134846 0.0
0.0140556 0.211125 0.0
-0.0559461 0.248762 0.0
-0.0751625 0.259361 0.0
-0.074384 0.255358 0.0
-0.0667951 0.243885 0.0
-0.0577849 0.229215 0.0
-0.0493794 0.213687 0.0
-0.0421908 0.198471 0.0
-0.0362681 0.184099 0.0
-0.0314627 0.170757 0.0
-0.0275792 0.158463 0.0
-0.0244324 0.147154 0.0
-0.0218659 0.136738 0.0
-0.0197532 0.127117 0.0
-0.0179953 0.1182 0.0
-0.0165149 0.109905 0.0
-0.0152522 0.102161 0.0
-0.0141613 0.0949083 0.0
-0.0132067 0.0880975 0.0
-0.0123609 0.0816865 0.0
-0.0116031 0.0756405 0.0
-0.0109169 0.06993 0.0
-0.01029 0.0645299 0.0
-0.00971271 0.0594188 0.0
-0.00917774 0.054578 0.0
-0.00867929 0.0499909 0.0
-0.00821273 0.045643 0.0
-0.00777428 0.0415209 0.0
-0.0073606 0.037613 0.0
-0.00696865 0.0339086 0.0
-0.00659536 0.0303986 0.0
-0.00623756 0.0270748 0.0
-0.00589175 0.023931 0.0
-0.00555401 0.0209623 0.0
-0.00521989 0.0181659 0.0
-0.00488436 0.015541 0.0
-0.00454177 0.0130894 0.0
-0.00418594 0.0108153 0.0
-0.00381032 0.0087255 0.0
-0.00340832 0.00682967 0.0
-0.00297406 0.00513971 0.0
-0.00250356 0.0036692 0.0
-0.00199689 0.00243229 0.0
-0.00146194 0.00144199 0.0
-0.00092072 0.000705461 0.0
-0.000417464 0.000223768 0.0
-3.799e-05 2.32996e-05 0.0
0.682038 0.0303393 0.0
0.281481 0.0988983 0.0
0.0727952 0.172233 0.0
-0.0252789 0.218919 0.0
-0.06484 0.241962 0.0
-0.0765013 0.24935 0.0
-0.075774 0.246992 0.0
-0.070131 0.239034 0.0
-0.0630425 0.228148 0.0
-0.0560353 0.215952 0.0
-0.0497069 0.203388 0.0
-0.0442238 0.190981 0.0
-0.0395646 0.179002 0.0
-0.0356355 0.167578 0.0
-0.0323243 0.156751 0.0
-0.029523 0.146519 0.0
-0.0271369 0.136859 0.0
-0.0250866 0.127737 0.0
-0.0233069 0.119117 0.0
-0.0217456 0.110963 0.0
-0.0203608 0.103242 0.0
-0.0191196 0.0959256 0.0
-0.017996 0.0889871 0.0
-0.0169697 0.0824034 0.0
-0.0160249 0.0761538 0.0
-0.0151495 0.0702198 0.0
-0.0143337 0.0645847 0.0
-0.01357 0.0592332 0.0
-0.0128524 0.0541512 0.0
-0.0121756 0.0493259 0.0
-0.0115352 0.0447452 0.0
-0.0109268 0.0403984 0.0
-0.0103461 0.0362757 0.0
-0.0097884 0.0323688 0.0
-0.00924866 0.0286706 0.0
-0.00872105 0.025176 0.0
-0.00819904 0.0218816 0.0
-0.00767522 0.0187866 0.0
-0.0071414 0.0158924 0.0
-0.00658868 0.0132032 0.0
-0.00600778 0.0107258 0.0
-0.0053896 0.00847009 0.0
-0.00472621 0.00644799 0.0
-0.00401245 0.00467347 0.0
-0.00324857 0.0031615 0.0
-0.00244441 0.00192711 0.0
-0.00162577 0.000980906 0.0
-0.000841907 0.000332856 0.0
-0.00018181 4.25214e-05 0.0
0.731757 0.0193037 0.0
0.352441 0.0734582 0.0
0.131259 0.139862 0.0
0.0131048 0.188499 0.0
-0.0448834 0.218916 0.0
-0.0695372 0.234379 0.0
-0.0772136 0.239462 0.0
-0.076672 0.237693 0.0
-0.072477 0.231635 0.0
-0.0669516 0.223036 0.0
-0.0612332 0.213041 0.0
-0.0558402 0.202382 0.0
-0.050973 0.191518 0.0
-0.046675 0.180726 0.0
-0.0429163 0.170171 0.0
-0.0396374 0.159944 0.0
-0.0367709 0.150092 0.0
-0.0342517 0.140636 0.0
-0.0320219 0.131581 0.0
-0.0300317 0.122921 0.0
-0.0282398 0.114648 0.0
-0.0266123 0.106749 0.0
-0.025122 0.0992124 0.0
-0.0237472 0.0920247 0.0
-0.0224707 0.0851731 0.0
-0.0212792 0.0786448 0.0
-0.0201619 0.0724272 0.0
-0.0191104 0.0665084 0.0
-0.0181178 0.0608764 0.0
-0.0171782 0.0555199 0.0
-0.0162861 0.0504279 0.0
-0.0154363 0.0455902 0.0
-0.0146232 0.0409973 0.0
-0.0138411 0.0366408 0.0
-0.013083 0.0325138 0.0
-0.0123415 0.0286107 0.0
-0.0116079 0.024928 0.0
-0.0108723 0.0214645 0.0
-0.0101241 0.0182213 0.0
-0.00935147 0.0152022 0.0
-0.00854247 0.0124138 0.0
-0.00768537 0.00986574 0.0
-0.00676994 0.00756991 0.0
-0.0057894 0.00554064 0.0
-0.0047431 0.00379414 0.0
-0.00364074 0.0023483 0.0
-0.00250819 0.00121861 0.0
-0.00139367 0.000425032 0.0
-0.000380235 5.78577e-05 0.0
0.7679 0.0126276 0.0
0.41194 0.0557642 0.0
0.185925 0.114328 0.0
0.0536945 0.161596 0.0
-0.0192676 0.195263 0.0
-0.0561063 0.215926 0.0
-0.0725808 0.226491 0.0
-0.0780291 0.229785 0.0
-0.0777403 0.228054 0.0
-0.0746538 0.222967 0.0
-0.0703744 0.215718 0.0
-0.0657542 0.207138 0.0
-0.0612245 0.197794 0.0
-0.0569844 0.18807 0.0
-0.0531076 0.178221 0.0
-0.0496022 0.168415 0.0
-0.0464447 0.158765 0.0
-0.0435983 0.14934 0.0
-0.0410225 0.140186 0.0
-0.0386789 0.131331 0.0
-0.036533 0.12279 0.0
-0.034555 0.114571 0.0
-0.0327204 0.106678 0.0
-0.0310092 0.0991106 0.0
-0.0294051 0.0918646 0.0
-0.0278955 0.0849353 0.0
-0.0264702 0.0783159 0.0
-0.025121 0.0719989 0.0
-0.023841 0.0659756 0.0
-0.0226242 0.0602373 0.0
-0.021465 0.0547746 0.0
-0.0203575 0.0495787 0.0
-0.0192955 0.0446407 0.0
-0.018272 0.0399528 0.0
-0.0172789 0.035508 0.0
-0.0163069 0.0313008 0.0
-0.0153453 0.0273275 0.0
-0.0143821 0.0235865 0.0
-0.0134038 0.0200785 0.0
-0.0123962 0.0168068 0.0
-0.0113443 0.0137778 0.0
-0.0102336 0.0110005 0.0
-0.00905128 0.00848699 0.0
-0.00778813 0.00625217 0.0
-0.00644129 0.00431388 0.0
-0.00501804 0.00269346 0.0
-0.00354083 0.00141176 0.0
-0.00205199 0.000498379 0.0
-0.000622652 6.94141e-05 0.0
0.794867 0.00856711 0.0
0.461688 0.0433266 0.0
0.235632 0.0943885 0.0
0.0939388 0.138779 0.0
0.00941167 0.173039 0.0
-0.038393 0.196802 0.0
-0.0634209 0.21115 0.0
-0.0751614 0.218326 0.0
-0.0793306 0.22018 0.0
-0.0793096 0.21821 0.0
-0.0770765 0.213564 0.0
-0.0737735 0.207089 0.0
-0.0700473 0.199402 0.0
-0.0662525 0.190948 0.0
-0.062573 0.182043 0.0
-0.0590945 0.172914 0.0
-0.0558471 0.163721 0.0
-0.0528312 0.154578 0.0
-0.0500321 0.145566 0.0
-0.047429 0.136744 0.0
-0.0449999 0.12815 0.0
-0.042724 0.119815 0.0
-0.0405829 0.111756 0.0
-0.0385612 0.103987 0.0
-0.0366464 0.0965146 0.0
-0.0348282 0.0893426 0.0
-0.0330986 0.0824708 0.0
-0.031451 0.0758967 0.0
-0.0298797 0.0696159 0.0
-0.0283794 0.0636224 0.0
-0.0269449 0.0579095 0.0
-0.0255704 0.0524694 0.0
-0.0242493 0.0472947 0.0
-0.022974 0.042378 0.0
-0.0217352 0.0377126 0.0
-0.0205221 0.0332931 0.0
-0.0193223 0.0291156 0.0
-0.0181215 0.0251781 0.0
-0.0169039 0.0214807 0.0
-0.0156522 0.0180265 0.0
-0.0143489 0.0148212 0.0
-0.0129762 0.0118736 0.0
-0.0115182 0.00919595 0.0
-0.00996238 0.00680383 0.0
-0.00830227 0.00471698 0.0
-0.00654069 0.00296029 0.0
-0.0046938 0.00155982 0.0
-0.00279457 0.000553549 0.0
-0.00089871 7.76795e-05 0.0
0.815606 0.00605067 0.0
0.50349 0.0344271 0.0
0.280232 0.0788184 0.0
0.132414 0.119786 0.0
0.0388734 0.153333 0.0
-0.0181539 0.17845 0.0
-0.0510925 0.195247 0.0
-0.0690423 0.205236 0.0
-0.077886 0.20991 0.0
-0.0812894 0.210553 0.0
-0.0815093 0.20821 0.0
-0.0799252 0.203697 0.0
-0.0773718 0.197637 0.0
-0.0743476 0.190499 0.0
-0.0711442 0.182637 0.0
-0.0679262 0.174313 0.0
-0.0647818 0.165726 0.0
-0.0617535 0.157021 0.0
-0.0588576 0.148311 0.0
-0.0560958 0.139679 0.0
-0.0534626 0.131188 0.0
-0.0509498 0.122884 0.0
-0.0485485 0.114802 0.0
-0.0462507 0.106969 0.0
-0.0440496 0.0994017 0.0
-0.0419396 0.0921126 0.0
-0.0399163 0.0851085 0.0
-0.0379761 0.0783924 0.0
-0.0361154 0.0719642 0.0
-0.0343308 0.0658212 0.0
-0.0326182 0.0599588 0.0
-0.0309724 0.0543714 0.0
-0.0293871 0.0490524 0.0
-0.0278542 0.0439952 0.0
-0.0263638 0.0391935 0.0
-0.024904 0.0346418 0.0
-0.0234604 0.030336 0.0
-0.022017 0.0262736 0.0
-0.0205554 0.0224544 0.0
-0.0190557 0.0188808 0.0
-0.0174972 0.0155581 0.0
-0.0158588 0.0124949 0.0
-0.0141209 0.00970346 0.0
-0.0122669 0.00720036 0.0
-0.0102853 0.00500715 0.0
-0.00817283 0.00315195 0.0
-0.00593717 0.00166541 0.0
-0.00359971 0.000592222 0.0
-0.001199 8.31967e-05 0.0
0.832014 0.00444953 0.0
0.538886 0.0279256 0.0
0.320048 0.0665653 0.0
0.168542 0.104016 0.0
0.0680766 0.136152 0.0
0.00347076 0.16146 0.0
-0.0366525 0.179741 0.0
-0.0605206 0.191678 0.0
-0.0740355 0.19849 0.0
-0.0810254 0.201241 0.0
-0.0839439 0.200852 0.0
-0.0843552 0.198078 0.0
-0.0832511 0.19352 0.0
-0.0812565 0.187649 0.0
-0.0787618 0.180833 0.0
-0.0760078 0.173357 0.0
-0.0731406 0.165442 0.0
-0.0702465 0.15726 0.0
-0.0673751 0.148946 0.0
-0.0645536 0.140604 0.0
-0.0617963 0.132316 0.0
-0.05911 0.124147 0.0
-0.056498 0.116145 0.0
-0.053962 0.108348 0.0
-0.051503 0.100785 0.0
-0.0491217 0.0934754 0.0
-0.0468191 0.086433 0.0
-0.0445955 0.0796664 0.0
-0.0424512 0.0731796 0.0
-0.040385 0.0669732 0.0
-0.0383948 0.0610452 0.0
-0.0364769 0.0553912 0.0
-0.0346256 0.0500061 0.0
-0.032833 0.0448838 0.0
-0.0310886 0.0400182 0.0
-0.0293797 0.0354038 0.0
-0.0276906 0.0310361 0.0
-0.0260031 0.0269122 0.0
-0.0242966 0.0230313 0.0
-0.0225486 0.0193952 0.0
-0.0207348 0.0160087 0.0
-0.0188308 0.0128801 0.0
-0.0168126 0.0100221 0.0
-0.0146585 0.00745167 0.0
-0.0123513 0.00519215 0.0
-0.00987997 0.00327432 0.0
-0.00724251 0.00173252 0.0
-0.00444734 0.000616397 0.0
-0.0015153 8.64601e-05 0.0
0.845312 0.00339794 0.0
0.569109 0.0230734 0.0
0.355551 0.0568279 0.0
0.202101 0.090913 0.0
0.0963608 0.121303 0.0
0.0254771 0.146174 0.0
-0.0209282 0.165134 0.0
-0.050297 0.178351 0.0
-0.0683393 0.186726 0.0
-0.0789408 0.191126 0.0
-0.0846822 0.192344 0.0
-0.0872647 0.191059 0.0
-0.0878062 0.187833 0.0
-0.0870386 0.183124 0.0
-0.0854396 0.177299 0.0
-0.0833199 0.170652 0.0
-0.0808805 0.16342 0.0
-0.0782509 0.155791 0.0
-0.0755147 0.147916 0.0
-0.072726 0.139919 0.0
-0.0699202 0.131897 0.0
-0.0671216 0.123928 0.0
-0.0643476 0.116074 0.0
-0.0616112 0.108384 0.0
-0.0589231 0.100896 0.0
-0.0562921 0.0936375 0.0
-0.0537256 0.0866284 0.0
-0.0512297 0.0798825 0.0
-0.0488088 0.0734077 0.0
-0.0464655 0.0672076 0.0
-0.0442003 0.0612822 0.0
-0.0420115 0.055629 0.0
-0.0398946 0.0502434 0.0
-0.0378422 0.0451199 0.0
-0.0358439 0.0402526 0.0
-0.0338862 0.0356356 0.0
-0.0319521 0.031264 0.0
-0.0300218 0.0271344 0.0
-0.0280724 0.0232453 0.0
-0.0260783 0.0195978 0.0
-0.0240122 0.0161962 0.0
-0.0218454 0.0130485 0.0
-0.0195493 0.0101672 0.0
-0.0170967 0.0075701 0.0
-0.0144633 0.00528155 0.0
-0.01163 0.00333436 0.0
-0.00858371 0.00176553 0.0
-0.00531947 0.000628044 0.0
-0.00184052 8.78867e-05 0.0
0.856312 0.00268245 0.0
0.59514 0.0193747 0.0
0.387246 0.0490031 0.0
0.233099 0.0799783 0.0
0.123391 0.108491 0.0
0.047291 0.132578 0.0
-0.00452092 0.151643 0.0
-0.038931 0.165645 0.0
-0.0612725 0.175114 0.0
-0.0754187 0.180769 0.0
-0.0840195 0.183275 0.0
-0.0888717 0.183232 0.0
-0.0911901 0.181155 0.0
-0.0917943 0.177477 0.0
-0.0912365 0.172554 0.0
-0.0898893 0.166682 0.0
-0.0880041 0.160104 0.0
-0.0857513 0.153019 0.0
-0.0832475 0.145593 0.0
-0.0805739 0.137961 0.0
-0.0777884 0.130233 0.0
-0.0749335 0.1225 0.0
-0.0720421 0.114836 0.0
-0.0691405 0.107299 0.0
-0.0662503 0.0999345 0.0
-0.0633898 0.0927781 0.0
-0.0605743 0.0858554 0.0
-0.0578165 0.0791845 0.0
-0.0551262 0.0727769 0.0
-0.0525106 0.0666387 0.0
-0.0499735 0.0607718 0.0
-0.0475158 0.0551748 0.0
-0.0451347 0.0498439 0.0
-0.0428239 0.0447735 0.0
-0.0405731 0.0399577 0.0
-0.0383683 0.0353903 0.0
-0.0361918 0.0310657 0.0
-0.0340218 0.0269797 0.0
-0.0318332 0.0231301 0.0
-0.0295977 0.0195172 0.0
-0.0272841 0.0161446 0.0
-0.0248597 0.0130198 0.0
-0.0222908 0.0101552 0.0
-0.019544 0.00756863 0.0
-0.0165877 0.00528525 0.0
-0.0133935 0.00333905 0.0
-0.00993727 0.00176866 0.0
-0.00620025 0.000628943 0.0
-0.00216863 8.78135e-05 0.0
0.865571 0.00217768 0.0
0.617749 0.0164979 0.0
0.415613 0.0426425 0.0
0.261655 0.0707962 0.0
0.149012 0.0974227 0.0
0.0686061 0.120526 0.0
0.012167 0.139318 0.0
-0.0268344 0.153733 0.0
-0.0532146 0.163936 0.0
-0.070786 0.170523 0.0
-0.0822244 0.174042 0.0
-0.0893888 0.175014 0.0
-0.0935655 0.173905 0.0
-0.0956435 0.171115 0.0
-0.0962372 0.166989 0.0
-0.0957722 0.161815 0.0
-0.0945447 0.155838 0.0
-0.0927627 0.149266 0.0
-0.0905743 0.14227 0.0
-0.0880871 0.134998 0.0
-0.0853814 0.12757 0.0
-0.0825191 0.120088 0.0
-0.0795495 0.112634 0.0
-0.0765132 0.105276 0.0
-0.0734443 0.0980665 0.0
-0.0703715 0.0910475 0.0
-0.0673195 0.0842496 0.0
-0.0643084 0.0776946 0.0
-0.0613547 0.0713971 0.0
-0.0584706 0.0653652 0.0
-0.0556643 0.0596023 0.0
-0.0529396 0.0541076 0.0
-0.050296 0.0488776 0.0
-0.0477284 0.0439068 0.0
-0.0452272 0.0391886 0.0
-0.0427782 0.0347162 0.0
-0.0403627 0.0304833 0.0
-0.0379574 0.0264848 0.0
-0.0355349 0.0227174 0.0
-0.0330638 0.0191805 0.0
-0.0305096 0.0158769 0.0
-0.0278348 0.0128133 0.0
-0.0250003 0.0100016 0.0
-0.0219664 0.00745969 0.0
-0.0186936 0.00521262 0.0
-0.0151441 0.00329485 0.0
-0.0112823 0.00174569 0.0
-0.00707581 0.000620611 0.0
-0.0024945 8.65037e-05 0.0
0.873479 0.00180919 0.0
0.637541 0.0142196 0.0
0.441085 0.0374164 0.0
0.287937 0.0630402 0.0
0.173167 0.0878487 0.0
0.0891999 0.109874 0.0
0.0287124 0.128215 0.0
-0.0143469 0.142705 0.0
-0.044477 0.153363 0.0
-0.0653193 0.160612 0.0
-0.0795342 0.164904 0.0
-0.0890133 0.166686 0.0
-0.0950923 0.166372 0.0
-0.0987129 0.164332 0.0
-0.100539 0.16089 0.0
-0.101042 0.156327 0.0
-0.100555 0.150885 0.0
-0.0993208 0.144774 0.0
-0.0975167 0.138174 0.0
-0.0952753 0.13124 0.0
-0.0926993 0.1241 0.0
-0.0898702 0.116866 0.0
-0.0868546 0.109629 0.0
-0.0837083 0.102462 0.0
-0.0804789 0.095426 0.0
-0.0772071 0.0885675 0.0
-0.0739275 0.0819214 0.0
-0.0706692 0.075513 0.0
-0.0674558 0.069359 0.0
-0.0643055 0.0634692 0.0
-0.0612312 0.0578477 0.0
-0.0582406 0.0524941 0.0
-0.0553356 0.0474046 0.0
-0.0525129 0.0425733 0.0
-0.0497636 0.037993 0.0
-0.0470736 0.0336558 0.0
-0.0444232 0.0295543 0.0
-0.0417877 0.0256824 0.0
-0.0391375 0.0220356 0.0
-0.0364381 0.0186122 0.0
-0.0336513 0.0154138 0.0
-0.0307349 0.0124463 0.0
-0.0276443 0.00972087 0.0
-0.0243329 0.00725452 0.0
-0.0207533 0.00507201 0.0
-0.016858 0.00320741 0.0
-0.0126002 0.00169985 0.0
-0.00793401 0.000604287 0.0
-0.00281373 8.4156e-05 0.0
0.880317 0.00153159 0.0
0.654997 0.0123851 0.0
0.464038 0.033076 0.0
0.312132 0.0564411 0.0
0.195877 0.0795285 0.0
0.108981 0.100434 0.0
0.0449792 0.118199 0.0
-0.0016961 0.13255 0.0
-0.0353052 0.143455 0.0
-0.0592486 0.151148 0.0
-0.0761543 0.156013 0.0
-0.0879233 0.158426 0.0
-0.0959213 0.158752 0.0
-0.101128 0.157329 0.0
-0.104245 0.154459 0.0
-0.105779 0.150413 0.0
-0.106099 0.145431 0.0
-0.105474 0.139723 0.0
-0.10411 0.133473 0.0
-0.102162 0.126843 0.0
-0.0997558 0.119969 0.0
-0.0969917 0.112969 0.0
-0.0939545 0.105943 0.0
-0.0907163 0.0989698 0.0
-0.0873392 0.092116 0.0
-0.0838765 0.0854323 0.0
-0.0803742 0.0789574 0.0
-0.076871 0.0727188 0.0
-0.0733986 0.0667351 0.0
-0.0699821 0.0610168 0.0
-0.0666396 0.0555683 0.0
-0.0633828 0.0503889 0.0
-0.0602167 0.0454744 0.0
-0.05714 0.040818 0.0
-0.0541447 0.0364112 0.0
-0.0512168 0.032245 0.0
-0.048336 0.0283108 0.0
-0.0454761 0.0246009 0.0
-0.042605 0.0211096 0.0
-0.0396855 0.0178337 0.0
-0.0366753 0.0147738 0.0
-0.0335276 0.0119343 0.0
-0.030192 0.00932533 0.0
-0.0266152 0.00696283 0.0
-0.0227415 0.00487054 0.0
-0.0185139 0.00308147 0.0
-0.0138744 0.00163376 0.0
-0.00876416 0.00058095 0.0
-0.0031225 8.09149e-05 0.0
0.886291 0.00131652 0.0
0.670495 0.0108852 0.0
0.484797 0.029434 0.0
0.334426 0.0507858 0.0
0.217189 0.0722648 0.0
0.127885 0.0920524 0.0
0.0608253 0.109165 0.0
0.0109328 0.12323 0.0
-0.0258853 0.134212 0.0
-0.0527585 0.142177 0.0
-0.0722584 0.147449 0.0
-0.086276 0.150338 0.0
-0.0961913 0.151163 0.0
-0.103008 0.150231 0.0
-0.107456 0.147826 0.0
-0.110071 0.144205 0.0
-0.111247 0.139604 0.0
-0.11128 0.134234 0.0
-0.110398 0.128282 0.0
-0.108781 0.121915 0.0
-0.106574 0.115277 0.0
-0.103897 0.108492 0.0
-0.100855 0.101664 0.0
-0.0975357 0.0948807 0.0
-0.0940169 0.0882117 0.0
-0.0903661 0.0817117 0.0
-0.0866413 0.075422 0.0
-0.0828917 0.0693719 0.0
-0.0791579 0.0635807 0.0
-0.0754724 0.0580591 0.0
-0.0718592 0.0528113 0.0
-0.0683344 0.0478358 0.0
-0.0649065 0.0431272 0.0
-0.0615761 0.0386774 0.0
-0.0583365 0.0344766 0.0
-0.0551739 0.0305141 0.0
-0.0520673 0.0267798 0.0
-0.0489889 0.0232643 0.0
-0.0459046 0.0199605 0.0
-0.0427739 0.0168636 0.0
-0.0395506 0.0139725 0.0
-0.0361832 0.0112903 0.0
-0.0326156 0.00882558 0.0
-0.0287876 0.00659278 0.0
-0.0246354 0.0046141 0.0
-0.0200926 0.00292086 0.0
-0.0150901 0.0015495 0.0
-0.00955673 0.000551342 0.0
-0.00341744 7.68799e-05 0.0
0.891557 0.00114569 0.0
0.684337 0.00964163 0.0
0.503637 0.0263473 0.0
0.354994 0.0459032 0.0
0.237169 0.0658904 0.0
0.145892 0.0845874 0.0
0.0761656 0.101007 0.0
0.0233633 0.114709 0.0
-0.0163743 0.12561 0.0
-0.0460049 0.133709 0.0
-0.0679964 0.139243 0.0
-0.0842112 0.142469 0.0
-0.0960292 0.143666 0.0
-0.104467 0.14311 0.0
-0.110273 0.141065 0.0
-0.114002 0.137778 0.0
-0.116071 0.13348 0.0
-0.116797 0.128381 0.0
-0.11643 0.122673 0.0
-0.115169 0.116525 0.0
-0.113181 0.110088 0.0
-0.110606 0.103493 0.0