# vtk DataFile Version 3.0
Malha 2D com triângulos e temperatura
ASCII
DATASET UNSTRUCTURED_GRID

POINTS 2500 double
0 0 0
1 0 0
1 1 0
0 1 0
0.0204082 0 0
0.0408163 0 0
0.0612245 0 0
0.0816327 0 0
0.102041 0 0
0.122449 0 0
0.142857 0 0
0.163265 0 0
0.183673 0 0
0.204082 0 0
0.22449 0 0
0.244898 0 0
0.265306 0 0
0.285714 0 0
0.306122 0 0
0.326531 0 0
0.346939 0 0
0.367347 0 0
0.387755 0 0
0.408163 0 0
0.428571 0 0
0.44898 0 0
0.469388 0 0
0.489796 0 0
0.510204 0 0
0.530612 0 0
0.55102 0 0
0.571429 0 0
0.591837 0 0
0.612245 0 0
0.632653 0 0
0.653061 0 0
0.673469 0 0
0.693878 0 0
0.714286 0 0
0.734694 0 0
0.755102 0 0
0.77551 0 0
0.795918 0 0
0.816327 0 0
0.836735 0 0
0.857143 0 0
0.877551 0 0
0.897959 0 0
0.918367 0 0
0.938776 0 0
0.959184 0 0
0.979592 0 0
1 0.0204082 0
1 0.0408163 0
1 0.0612245 0
1 0.0816327 0
1 0.102041 0
1 0.122449 0
1 0.142857 0
1 0.163265 0
1 0.183673 0
1 0.204082 0
1 0.22449 0
1 0.244898 0
1 0.265306 0
1 0.285714 0
1 0.306122 0
1 0.326531 0
1 0.346939 0
1 0.367347 0
1 0.387755 0
1 0.408163 0
1 0.428571 0
1 0.44898 0
1 0.469388 0
1 0.489796 0
1 0.510204 0
1 0.530612 0
1 0.55102 0
1 0.571429 0
1 0.591837 0
1 0.612245 0
1 0.632653 0
1 0.653061 0
1 0.673469 0
1 0.693878 0
1 0.714286 0
1 0.734694 0
1 0.755102 0
1 0.77551 0
1 0.795918 0
1 0.816327 0
1 0.836735 0
1 0.857143 0
1 0.877551 0
1 0.897959 0
1 0.918367 0
1 0.938776 0
1 0.959184 0
1 0.979592 0
0.979592 1 0
0.959184 1 0
0.938776 1 0
0.918367 1 0
0.897959 1 0
0.877551 1 0
0.857143 1 0
0.836735 1 0
0.816327 1 0
0.795918 1 0
0.77551 1 0
0.755102 1 0
0.734694 1 0
0.714286 1 0
0.693878 1 0
0.673469 1 0
0.653061 1 0
0.632653 1 0
0.612245 1 0
0.591837 1 0
0.571429 1 0
0.55102 1 0
0.530612 1 0
0.510204 1 0
0.489796 1 0
0.469388 1 0
0.44898 1 0
0.428571 1 0
0.408163 1 0
0.387755 1 0
0.367347 1 0
0.346939 1 0
0.326531 1 0
0.306122 1 0
0.285714 1 0
0.265306 1 0
0.244898 1 0
0.22449 1 0
0.204082 1 0
0.183673 1 0
0.163265 1 0
0.142857 1 0
0.122449 1 0
0.102041 1 0
0.0816327 1 0
0.0612245 1 0
0.0408163 1 0
0.0204082 1 0
0 0.979592 0
0 0.959184 0
0 0.938776 0
0 0.918367 0
0 0.897959 0
0 0.877551 0
0 0.857143 0
0 0.836735 0
0 0.816327 0
0 0.795918 0
0 0.77551 0
0 0.755102 0
0 0.734694 0
0 0.714286 0
0 0.693878 0
0 0.673469 0
0 0.653061 0
0 0.632653 0
0 0.612245 0
0 0.591837 0
0 0.571429 0
0 0.55102 0
0 0.530612 0
0 0.510204 0
0 0.489796 0
0 0.469388 0
0 0.44898 0
0 0.428571 0
0 0.408163 0
0 0.387755 0
0 0.367347 0
0 0.346939 0
0 0.326531 0
0 0.306122 0
0 0.285714 0
0 0.265306 0
0 0.244898 0
0 0.22449 0
0 0.204082 0
0 0.183673 0
0 0.163265 0
0 0.142857 0
0 0.122449 0
0 0.102041 0
0 0.0816327 0
0 0.0612245 0
0 0.0408163 0
0 0.0204082 0
0.0204082 0.979592 0
0.0204082 0.959184 0
0.0204082 0.938776 0
0.0204082 0.918367 0
0.0204082 0.897959 0
0.0204082 0.877551 0
0.0204082 0.857143 0
0.0204082 0.836735 0
0.0204082 0.816327 0
0.0204082 0.795918 0
0.0204082 0.77551 0
0.0204082 0.755102 0
0.0204082 0.734694 0
0.0204082 0.714286 0
0.0204082 0.693878 0
0.0204082 0.673469 0
0.0204082 0.653061 0
0.0204082 0.632653 0
0.0204082 0.612245 0
0.0204082 0.591837 0
0.0204082 0.571429 0
0.0204082 0.55102 0
0.0204082 0.530612 0
0.0204082 0.510204 0
0.0204082 0.489796 0
0.0204082 0.469388 0
0.0204082 0.44898 0
0.0204082 0.428571 0
0.0204082 0.408163 0
0.0204082 0.387755 0
0.0204082 0.367347 0
0.0204082 0.346939 0
0.0204082 0.326531 0
0.0204082 0.306122 0
0.0204082 0.285714 0
0.0204082 0.265306 0
0.0204082 0.244898 0
0.0204082 0.22449 0
0.0204082 0.204082 0
0.0204082 0.183673 0
0.0204082 0.163265 0
0.0204082 0.142857 0
0.0204082 0.122449 0
0.0204082 0.102041 0
0.0204082 0.0816327 0
0.0204082 0.0612245 0
0.0204082 0.0408163 0
0.0204082 0.0204082 0
0.0408163 0.979592 0
0.0408163 0.959184 0
0.0408163 0.938776 0
0.0408163 0.918367 0
0.0408163 0.897959 0
0.0408163 0.877551 0
0.0408163 0.857143 0
0.0408163 0.836735 0
0.0408163 0.816327 0
0.0408163 0.795918 0
0.0408163 0.77551 0
0.0408163 0.755102 0
0.0408163 0.734694 0
0.0408163 0.714286 0
0.0408163 0.693878 0
0.0408163 0.673469 0
0.0408163 0.653061 0
0.0408163 0.632653 0
0.0408163 0.612245 0
0.0408163 0.591837 0
0.0408163 0.571429 0
0.0408163 0.55102 0
0.0408163 0.530612 0
0.0408163 0.510204 0
0.0408163 0.489796 0
0.0408163 0.469388 0
0.0408163 0.44898 0
0.0408163 0.428571 0
0.0408163 0.408163 0
0.0408163 0.387755 0
0.0408163 0.367347 0
0.0408163 0.346939 0
0.0408163 0.326531 0
0.0408163 0.306122 0
0.0408163 0.285714 0
0.0408163 0.265306 0
0.0408163 0.244898 0
0.0408163 0.22449 0
0.0408163 0.204082 0
0.0408163 0.183673 0
0.0408163 0.163265 0
0.0408163 0.142857 0
0.0408163 0.122449 0
0.0408163 0.102041 0
0.0408163 0.0816327 0
0.0408163 0.0612245 0
0.0408163 0.0408163 0
0.0408163 0.0204082 0
0.0612245 0.979592 0
0.0612245 0.959184 0
0.0612245 0.938776 0
0.0612245 0.918367 0
0.0612245 0.897959 0
0.0612245 0.877551 0
0.0612245 0.857143 0
0.0612245 0.836735 0
0.0612245 0.816327 0
0.0612245 0.795918 0
0.0612245 0.77551 0
0.0612245 0.755102 0
0.0612245 0.734694 0
0.0612245 0.714286 0
0.0612245 0.693878 0
0.0612245 0.673469 0
0.0612245 0.653061 0
0.0612245 0.632653 0
0.0612245 0.612245 0
0.0612245 0.591837 0
0.0612245 0.571429 0
0.0612245 0.55102 0
0.0612245 0.530612 0
0.0612245 0.510204 0
0.0612245 0.489796 0
0.0612245 0.469388 0
0.0612245 0.44898 0
0.0612245 0.428571 0
0.0612245 0.408163 0
0.0612245 0.387755 0
0.0612245 0.367347 0
0.0612245 0.346939 0
0.0612245 0.326531 0
0.0612245 0.306122 0
0.0612245 0.285714 0
0.0612245 0.265306 0
0.0612245 0.244898 0
0.0612245 0.22449 0
0.0612245 0.204082 0
0.0612245 0.183673 0
0.0612245 0.163265 0
0.0612245 0.142857 0
0.0612245 0.122449 0
0.0612245 0.102041 0
0.0612245 0.0816327 0
0.0612245 0.0612245 0
0.0612245 0.0408163 0
0.0612245 0.0204082 0
0.0816327 0.979592 0
0.0816327 0.959184 0
0.0816327 0.938776 0
0.0816327 0.918367 0
0.0816327 0.897959 0
0.0816327 0.877551 0
0.0816327 0.857143 0
0.0816327 0.836735 0
0.0816327 0.816327 0
0.0816327 0.795918 0
0.0816327 0.77551 0
0.0816327 0.755102 0
0.0816327 0.734694 0
0.0816327 0.714286 0
0.0816327 0.693878 0
0.0816327 0.673469 0
0.0816327 0.653061 0
0.0816327 0.632653 0
0.0816327 0.612245 0
0.0816327 0.591837 0
0.0816327 0.571429 0
0.0816327 0.55102 0
0.0816327 0.530612 0
0.0816327 0.510204 0
0.0816327 0.489796 0
0.0816327 0.469388 0
0.0816327 0.44898 0
0.0816327 0.428571 0
0.0816327 0.408163 0
0.0816327 0.387755 0
0.0816327 0.367347 0
0.0816327 0.346939 0
0.0816327 0.326531 0
0.0816327 0.306122 0
0.0816327 0.285714 0
0.0816327 0.265306 0
0.0816327 0.244898 0
0.0816327 0.22449 0
0.0816327 0.204082 0
0.0816327 0.183673 0
0.0816327 0.163265 0
0.0816327 0.142857 0
0.0816327 0.122449 0
0.0816327 0.102041 0
0.0816327 0.0816327 0
0.0816327 0.0612245 0
0.0816327 0.0408163 0
0.0816327 0.0204082 0
0.102041 0.979592 0
0.102041 0.959184 0
0.102041 0.938776 0
0.102041 0.918367 0
0.102041 0.897959 0
0.102041 0.877551 0
0.102041 0.857143 0
0.102041 0.836735 0
0.102041 0.816327 0
0.102041 0.795918 0
0.102041 0.77551 0
0.102041 0.755102 0
0.102041 0.734694 0
0.102041 0.714286 0
0.102041 0.693878 0
0.102041 0.673469 0
0.102041 0.653061 0
0.102041 0.632653 0
0.102041 0.612245 0
0.102041 0.591837 0
0.102041 0.571429 0
0.102041 0.55102 0
0.102041 0.530612 0
0.102041 0.510204 0
0.102041 0.489796 0
0.102041 0.469388 0
0.102041 0.44898 0
0.102041 0.428571 0
0.102041 0.408163 0
0.102041 0.387755 0
0.102041 0.367347 0
0.102041 0.346939 0
0.102041 0.326531 0
0.102041 0.306122 0
0.102041 0.285714 0
0.102041 0.265306 0
0.102041 0.244898 0
0.102041 0.22449 0
0.102041 0.204082 0
0.102041 0.183673 0
0.102041 0.163265 0
0.102041 0.142857 0
0.102041 0.122449 0
0.102041 0.102041 0
0.102041 0.0816327 0
0.102041 0.0612245 0
0.102041 0.0408163 0
0.102041 0.0204082 0
0.122449 0.979592 0
0.122449 0.959184 0
0.122449 0.938776 0
0.122449 0.918367 0
0.122449 0.897959 0
0.122449 0.877551 0
0.122449 0.857143 0
0.122449 0.836735 0
0.122449 0.816327 0
0.122449 0.795918 0
0.122449 0.77551 0
0.122449 0.755102 0
0.122449 0.734694 0
0.122449 0.714286 0
0.122449 0.693878 0
0.122449 0.673469 0
0.122449 0.653061 0
0.122449 0.632653 0
0.122449 0.612245 0
0.122449 0.591837 0
0.122449 0.571429 0
0.122449 0.55102 0
0.122449 0.530612 0
0.122449 0.510204 0
0.122449 0.489796 0
0.122449 0.469388 0
0.122449 0.44898 0
0.122449 0.428571 0
0.122449 0.408163 0
0.122449 0.387755 0
0.122449 0.367347 0
0.122449 0.346939 0
0.122449 0.326531 0
0.122449 0.306122 0
0.122449 0.285714 0
0.122449 0.265306 0
0.122449 0.244898 0
0.122449 0.22449 0
0.122449 0.204082 0
0.122449 0.183673 0
0.122449 0.163265 0
0.122449 0.142857 0
0.122449 0.122449 0
0.122449 0.102041 0
0.122449 0.0816327 0
0.122449 0.0612245 0
0.122449 0.0408163 0
0.122449 0.0204082 0
0.142857 0.979592 0
0.142857 0.959184 0
0.142857 0.938776 0
0.142857 0.918367 0
0.142857 0.897959 0
0.142857 0.877551 0
0.142857 0.857143 0
0.142857 0.836735 0
0.142857 0.816327 0
0.142857 0.795918 0
0.142857 0.77551 0
0.142857 0.755102 0
0.142857 0.734694 0
0.142857 0.714286 0
0.142857 0.693878 0
0.142857 0.673469 0
0.142857 0.653061 0
0.142857 0.632653 0
0.142857 0.612245 0
0.142857 0.591837 0
0.142857 0.571429 0
0.142857 0.55102 0
0.142857 0.530612 0
0.142857 0.510204 0
0.142857 0.489796 0
0.142857 0.469388 0
0.142857 0.44898 0
0.142857 0.428571 0
0.142857 0.408163 0
0.142857 0.387755 0
0.142857 0.367347 0
0.142857 0.346939 0
0.142857 0.326531 0
0.142857 0.306122 0
0.142857 0.285714 0
0.142857 0.265306 0
0.142857 0.244898 0
0.142857 0.22449 0
0.142857 0.204082 0
0.142857 0.183673 0
0.142857 0.163265 0
0.142857 0.142857 0
0.142857 0.122449 0
0.142857 0.102041 0
0.142857 0.0816327 0
0.142857 0.0612245 0
0.142857 0.0408163 0
0.142857 0.0204082 0
0.163265 0.979592 0
0.163265 0.959184 0
0.163265 0.938776 0
0.163265 0.918367 0
0.163265 0.897959 0
0.163265 0.877551 0
0.163265 0.857143 0
0.163265 0.836735 0
0.163265 0.816327 0
0.163265 0.795918 0
0.163265 0.77551 0
0.163265 0.755102 0
0.163265 0.734694 0
0.163265 0.714286 0
0.163265 0.693878 0
0.163265 0.673469 0
0.163265 0.653061 0
0.163265 0.632653 0
0.163265 0.612245 0
0.163265 0.591837 0
0.163265 0.571429 0
0.163265 0.55102 0
[...]
CELL_DATA 2401
VECTORS velocity double
0.257579 0.157297 0.0
-0.00253661 0.264573 0.0
-0.0321035 0.205937 0.0
-0.0251953 0.151454 0.0
-0.0159288 0.114267 0.0
-0.0096436 0.0890997 0.0
-0.00594289 0.0720114 0.0
-0.00382345 0.0601015 0.0
-0.00259138 0.0514912 0.0
-0.00184973 0.0450347 0.0
-0.00138379 0.0400265 0.0
-0.00107837 0.0360212 0.0
-0.000870465 0.0327287 0.0
-0.000724339 0.0299544 0.0
-0.000618843 0.0275646 0.0
-0.000540887 0.0254652 0.0
-0.000482035 0.023589 0.0
-0.000436657 0.0218873 0.0
-0.000400893 0.0203248 0.0
-0.000372036 0.0188754 0.0
-0.000348162 0.01752 0.0
-0.00032789 0.0162447 0.0
-0.000310225 0.015039 0.0
-0.000294449 0.0138953 0.0
-0.00028005 0.0128079 0.0
-0.000266667 0.0117727 0.0
-0.000254045 0.0107864 0.0
-0.000242011 0.00984649 0.0
-0.000230449 0.0089511 0.0
-0.000219278 0.00809857 0.0
-0.000208441 0.00728757 0.0
-0.000197892 0.00651694 0.0
-0.000187588 0.00578573 0.0
-0.000177478 0.00509316 0.0
-0.0001675 0.00443867 0.0
-0.000157572 0.00382198 0.0
-0.00014759 0.00324312 0.0
-0.000137422 0.00270253 0.0
-0.000126899 0.00220115 0.0
-0.00011581 0.0017405 0.0
-0.000103894 0.00132279 0.0
-9.08297e-05 0.000951026 0.0
-7.62283e-05 0.000629083 0.0
-5.96532e-05 0.000361721 0.0
-4.07052e-05 0.000154424 0.0
-1.93383e-05 1.28182e-05 0.0
3.25386e-06 -5.8955e-05 0.0
2.2737e-05 -6.39878e-05 0.0
2.55635e-05 -2.54709e-05 0.0
0.34091 0.123061 0.0
-0.000156641 0.249979 0.0
-0.0645519 0.272841 0.0
-0.062604 0.253993 0.0
-0.0480859 0.223935 0.0
-0.0348531 0.194219 0.0
-0.0251574 0.168569 0.0
-0.0184609 0.147476 0.0
-0.0138865 0.130367 0.0
-0.0107345 0.116456 0.0
-0.00852609 0.105023 0.0
-0.00694927 0.0954879 0.0
-0.00580235 0.0874014 0.0
-0.00495344 0.080426 0.0
-0.00431466 0.074309 0.0
-0.00382618 0.0688615 0.0
-0.00344646 0.0639422 0.0
-0.00314608 0.0594456 0.0
-0.00290393 0.0552924 0.0
-0.00270467 0.0514232 0.0
-0.00253706 0.0477936 0.0
-0.00239282 0.0443702 0.0
-0.00226586 0.0411283 0.0
-0.00215171 0.0380491 0.0
-0.0020471 0.0351188 0.0
-0.00194968 0.0323266 0.0
-0.00185775 0.0296645 0.0
-0.00177013 0.0271262 0.0
-0.00168597 0.0247067 0.0
-0.00160467 0.0224018 0.0
-0.00152576 0.020208 0.0
-0.00144886 0.0181225 0.0
-0.00137362 0.0161429 0.0
-0.00129963 0.0142673 0.0
-0.00122641 0.0124944 0.0
-0.00115341 0.0108237 0.0
-0.00107993 0.00925528 0.0
-0.0010051 0.0077905 0.0
-0.000927916 0.00643174 0.0
-0.000847197 0.00518277 0.0
-0.000761593 0.00404885 0.0
-0.00066963 0.00303677 0.0
-0.000569819 0.00215484 0.0
-0.000460921 0.0014125 0.0
-0.000342555 0.000819423 0.0
-0.000216632 0.000383771 0.0
-9.04653e-05 0.00010831 0.0
1.78236e-05 -1.69332e-05 0.0
6.37271e-05 -2.21656e-05 0.0
0.501302 0.0769509 0.0
0.100121 0.183895 0.0
-0.0380292 0.250631 0.0
-0.0722392 0.267747 0.0
-0.0712086 0.259759 0.0
-0.0606364 0.241875 0.0
-0.0491916 0.221297 0.0
-0.0393878 0.201309 0.0
-0.0316353 0.183167 0.0
-0.0256937 0.167163 0.0
-0.0211879 0.153178 0.0
-0.0177731 0.140949 0.0
-0.0151734 0.130189 0.0
-0.0131795 0.120634 0.0
-0.0116357 0.11206 0.0
-0.0104271 0.104285 0.0
-0.00946865 0.0971615 0.0
-0.00869721 0.0905757 0.0
-0.00806576 0.0844382 0.0
-0.00753909 0.0786802 0.0
-0.00709082 0.0732491 0.0
-0.00670114 0.0681045 0.0
-0.00635525 0.0632161 0.0
-0.00604216 0.0585606 0.0
-0.00575373 0.0541205 0.0
-0.00548404 0.0498825 0.0
-0.0052288 0.0458361 0.0
-0.00498495 0.0419733 0.0
-0.0047503 0.0382873 0.0
-0.00452325 0.0347728 0.0
-0.00430257 0.0314252 0.0
-0.00408721 0.0282406 0.0
-0.00387616 0.0252158 0.0
-0.00366832 0.0223484 0.0
-0.00346242 0.0196365 0.0
-0.0032569 0.0170796 0.0
-0.00304993 0.014678 0.0
-0.0028393 0.0124336 0.0
-0.00262245 0.0103497 0.0
-0.00239649 0.00843148 0.0
-0.00215829 0.00668592 0.0
-0.00190466 0.00512187 0.0
-0.00163277 0.00374972 0.0
-0.0013409 0.00258079 0.0
-0.00102994 0.00162605 0.0
-0.000706271 0.000894016 0.0
-0.000387029 0.000386021 0.0
-0.00010783 9.15867e-05 0.0
5.74089e-05 -2.18438e-06 0.0
0.61088 0.0482013 0.0
0.197393 0.134618 0.0
0.0133558 0.210683 0.0
-0.0565093 0.248162 0.0
-0.0754442 0.25873 0.0
-0.0742981 0.254841 0.0
-0.0663235 0.243635 0.0
-0.0569646 0.229371 0.0
-0.0482818 0.214366 0.0
-0.0409024 0.199758 0.0
-0.0348768 0.186042 0.0
-0.0300489 0.173372 0.0
-0.0262107 0.161735 0.0
-0.0231634 0.151041 0.0
-0.0207363 0.14118 0.0
-0.0187904 0.132039 0.0
-0.0172153 0.123515 0.0
-0.0159246 0.115523 0.0
-0.0148508 0.107991 0.0
-0.0139421 0.10086 0.0
-0.0131583 0.0940847 0.0
-0.0124689 0.0876302 0.0
-0.0118507 0.0814686 0.0
-0.0112862 0.0755789 0.0
-0.0107622 0.0699449 0.0
-0.0102693 0.0645542 0.0
-0.00980059 0.059397 0.0
-0.00935097 0.0544656 0.0
-0.0089169 0.0497534 0.0
-0.00849576 0.0452552 0.0
-0.00808552 0.0409662 0.0
-0.0076844 0.0368825 0.0
-0.00729066 0.0330006 0.0
-0.00690238 0.0293179 0.0
-0.00651732 0.0258327 0.0
-0.00613276 0.0225441 0.0
-0.00574546 0.0194527 0.0
-0.00535162 0.0165608 0.0
-0.00494687 0.0138721 0.0
-0.0045264 0.0113925 0.0
-0.00408513 0.0091296 0.0
-0.00361817 0.00709318 0.0
-0.00312149 0.00529434 0.0
-0.00259327 0.00374499 0.0
-0.00203609 0.00245657 0.0
-0.00146076 0.00143832 0.0
-0.000892805 0.000692529 0.0
-0.000380664 0.000214051 0.0
-1.53859e-05 2.03647e-05 0.0
0.681624 0.030296 0.0
0.280694 0.0987134 0.0
0.0719577 0.171903 0.0
-0.0258858 0.218538 0.0
-0.0650216 0.241668 0.0
-0.0761605 0.2493 0.0
-0.0748994 0.247341 0.0
-0.0687804 0.23992 0.0
-0.0613172 0.22968 0.0
-0.0540564 0.218205 0.0
-0.0475974 0.206401 0.0
-0.0420969 0.194758 0.0
-0.037517 0.183516 0.0
-0.0337445 0.172775 0.0
-0.0306478 0.162557 0.0
-0.0281009 0.152847 0.0
-0.0259928 0.143609 0.0
-0.0242305 0.134805 0.0
-0.0227376 0.126398 0.0
-0.0214531 0.118354 0.0
-0.0203281 0.110648 0.0
-0.0193249 0.103254 0.0
-0.0184139 0.0961577 0.0
-0.017573 0.0893437 0.0
-0.0167853 0.0828018 0.0
-0.0160386 0.0765238 0.0
-0.0153238 0.0705034 0.0
-0.0146347 0.064735 0.0
-0.0139665 0.0592141 0.0
-0.0133161 0.0539366 0.0
-0.0126806 0.0488987 0.0
-0.0120579 0.044097 0.0
-0.0114456 0.0395285 0.0
-0.0108409 0.0351909 0.0
-0.0102407 0.0310823 0.0
-0.00964095 0.0272022 0.0
-0.00903709 0.0235513 0.0
-0.00842359 0.0201318 0.0
-0.0077942 0.0169475 0.0
-0.00714215 0.0140045 0.0
-0.00646043 0.0113105 0.0
-0.00574246 0.00887547 0.0
-0.00498312 0.00671057 0.0
-0.0041804 0.00482798 0.0
-0.00333812 0.00323984 0.0
-0.00247017 0.00195731 0.0
-0.00160703 0.000986035 0.0
-0.000803385 0.000329867 0.0
-0.000154944 4.06921e-05 0.0
0.731255 0.0192758 0.0
0.351539 0.0733481 0.0
0.130373 0.139703 0.0
0.0125678 0.188416 0.0
-0.0448365 0.219049 0.0
-0.0688082 0.234893 0.0
-0.0758051 0.240507 0.0
-0.0746673 0.239399 0.0
-0.0700105 0.234103 0.0
-0.0641806 0.226328 0.0
-0.0583169 0.217182 0.0
-0.0529248 0.207363 0.0
-0.0481838 0.197297 0.0
-0.0441126 0.187238 0.0
-0.0406564 0.177328 0.0
-0.0377321 0.167644 0.0
-0.0352509 0.158226 0.0
-0.0331299 0.149088 0.0
-0.0312962 0.140234 0.0
-0.0296879 0.131664 0.0
-0.0282544 0.123374 0.0
-0.0269552 0.11536 0.0
-0.0257583 0.10762 0.0
-0.0246391 0.10015 0.0
-0.0235792 0.0929493 0.0
-0.0225651 0.0860162 0.0
-0.0215869 0.0793494 0.0
-0.0206378 0.0729478 0.0
-0.019713 0.0668098 0.0
-0.018809 0.0609337 0.0
-0.017923 0.0553174 0.0
-0.0170526 0.0499587 0.0
-0.0161949 0.0448555 0.0
-0.0153468 0.0400058 0.0
-0.0145042 0.0354083 0.0
-0.0136621 0.0310625 0.0
-0.0128145 0.0269689 0.0
-0.0119541 0.0231298 0.0
-0.0110729 0.0195488 0.0
-0.0101623 0.0162316 0.0
-0.00921312 0.0131861 0.0
-0.00821725 0.0104216 0.0
-0.0071682 0.00794953 0.0
-0.00606332 0.00578244 0.0
-0.00490658 0.00393378 0.0
-0.00371277 0.00241775 0.0
-0.00251349 0.00124508 0.0
-0.00136336 0.000430071 0.0
-0.000353183 5.73351e-05 0.0
0.767359 0.0126178 0.0
0.411011 0.0557415 0.0
0.185109 0.114364 0.0
0.0533723 0.161831 0.0
-0.0188562 0.195857 0.0
-0.0548559 0.21704 0.0
-0.070512 0.228265 0.0
-0.0752539 0.232341 0.0
-0.0744285 0.231477 0.0
-0.0710004 0.227308 0.0
-0.066575 0.220988 0.0
-0.0619881 0.213312 0.0
-0.0576453 0.204818 0.0
-0.0537156 0.195863 0.0
-0.0502419 0.186684 0.0
-0.0472031 0.177435 0.0
-0.0445497 0.168218 0.0
-0.0422221 0.159102 0.0
-0.0401612 0.150131 0.0
-0.0383133 0.141338 0.0
-0.0366321 0.132745 0.0
-0.0350794 0.124369 0.0
-0.0336245 0.116225 0.0
-0.0322439 0.108323 0.0
-0.0309196 0.100672 0.0
-0.0296388 0.09328 0.0
-0.0283925 0.0861515 0.0
-0.0271746 0.0792909 0.0
-0.0259809 0.0727006 0.0
-0.0248088 0.0663821 0.0
-0.0236559 0.0603355 0.0
-0.0225201 0.0545602 0.0
-0.0213987 0.0490553 0.0
-0.0202882 0.0438195 0.0
-0.0191841 0.0388518 0.0
-0.0180805 0.0341517 0.0
-0.0169699 0.0297199 0.0
-0.0158439 0.025558 0.0
-0.0146924 0.0216695 0.0
-0.013505 0.0180597 0.0
-0.0122706 0.014736 0.0
-0.010979 0.0117075 0.0
-0.00962222 0.00898571 0.0
-0.00819603 0.0065839 0.0
-0.00670317 0.0045174 0.0
-0.00515695 0.00280416 0.0
-0.00358637 0.00146077 0.0
-0.0020409 0.000511861 0.0
-0.000599887 7.0229e-05 0.0
0.794338 0.00857573 0.0
0.46083 0.0433954 0.0
0.235001 0.0946297 0.0
0.0939568 0.139343 0.0
0.0103403 0.174089 0.0
-0.0364855 0.198511 0.0
-0.0605696 0.213647 0.0
-0.0715067 0.221715 0.0
-0.0750776 0.224536 0.0
-0.0746917 0.223569 0.0
-0.072326 0.219923 0.0
-0.0691029 0.21441 0.0
-0.0656381 0.207618 0.0
-0.0622504 0.199964 0.0
-0.059087 0.191747 0.0
-0.0561988 0.183181 0.0
-0.0535847 0.174418 0.0
-0.0512179 0.165569 0.0
-0.0490611 0.156717 0.0
-0.0470751 0.147925 0.0
-0.0452237 0.139242 0.0
-0.0434755 0.130705 0.0
-0.0418049 0.122347 0.0
-0.0401922 0.114192 0.0
-0.0386227 0.106261 0.0
-0.0370863 0.0985701 0.0
-0.0355764 0.0911325 0.0
-0.0340891 0.0839582 0.0
-0.0326222 0.0770544 0.0
-0.0311745 0.0704257 0.0
-0.0297452 0.0640752 0.0
-0.028333 0.0580041 0.0
-0.0269359 0.0522125 0.0
-0.0255506 0.0467001 0.0
-0.0241722 0.0414661 0.0
-0.0227943 0.03651 0.0
-0.0214084 0.0318323 0.0
-0.0200046 0.0274343 0.0
-0.0185713 0.0233188 0.0
-0.0170959 0.0194907 0.0
-0.0155655 0.0159567 0.0
-0.0139675 0.0127261 0.0
-0.0122917 0.0098102 0.0
-0.0105315 0.00722344 0.0
-0.00868677 0.0049833 0.0
-0.00676717 0.00311172 0.0
-0.00479604 0.00163108 0.0
-0.0028139 0.000575305 0.0
-0.000884718 7.97692e-05 0.0
0.815142 0.00607627 0.0
0.5028 0.0345842 0.0
0.279904 0.0792611 0.0
0.132895 0.120671 0.0
0.0404263 0.15483 0.0
-0.015469 0.180723 0.0
-0.0473462 0.198432 0.0
-0.0644074 0.209417 0.0
-0.0726042 0.215148 0.0
-0.0756323 0.216872 0.0
-0.0757464 0.215594 0.0
-0.074302 0.212096 0.0
-0.0720975 0.20697 0.0
-0.0695897 0.20066 0.0
-0.0670272 0.193502 0.0
-0.0645345 0.185745 0.0
-0.062163 0.17758 0.0
-0.0599234 0.169154 0.0
-0.0578054 0.160579 0.0
-0.0557892 0.151945 0.0
-0.0538525 0.143324 0.0
-0.0519747 0.134775 0.0
-0.0501384 0.126345 0.0
-0.0483305 0.118075 0.0
-0.0465421 0.109995 0.0
-0.0447676 0.102134 0.0
-0.0430047 0.0945099 0.0
-0.0412531 0.0871403 0.0
-0.0395137 0.0800371 0.0
-0.0377882 0.0732086 0.0
-0.0360778 0.0666604 0.0
-0.0343829 0.0603957 0.0
-0.0327028 0.0544159 0.0
-0.0310349 0.0487212 0.0
-0.0293743 0.0433112 0.0
-0.0277144 0.0381853 0.0
-0.0260458 0.0333434 0.0
-0.0243574 0.0287864 0.0
-0.022636 0.0245165 0.0
-0.0208671 0.0205378 0.0
-0.0190352 0.0168566 0.0
-0.0171255 0.0134817 0.0
-0.0151247 0.0104252 0.0
-0.0130227 0.00770215 0.0
-0.0108154 0.00533241 0.0
-0.00850669 0.00334168 0.0
-0.00611196 0.00175759 0.0
-0.00366023 0.000621703 0.0
-0.00119804 8.64488e-05 0.0
0.831662 0.00448968 0.0
0.538459 0.0281634 0.0
0.320138 0.0671963 0.0
0.169606 0.105203 0.0
0.0703804 0.138063 0.0
0.00708512 0.164239 0.0
-0.0318938 0.183555 0.0
-0.0548091 0.19659 0.0
-0.0676433 0.204545 0.0
-0.0742605 0.208449 0.0
-0.0771123 0.209185 0.0
-0.0777353 0.207474 0.0
-0.0770797 0.203886 0.0
-0.0757225 0.198868 0.0
-0.0740053 0.192769 0.0
-0.0721222 0.185862 0.0
-0.0701775 0.178363 0.0
-0.0682209 0.170441 0.0
-0.0662712 0.162236 0.0
-0.0643307 0.153859 0.0
-0.0623943 0.145403 0.0
-0.0604547 0.136944 0.0
-0.0585054 0.128546 0.0
-0.0565424 0.120262 0.0
-0.0545643 0.112135 0.0
-0.0525724 0.1042 0.0
-0.0505701 0.0964862 0.0
-0.0485623 0.0890159 0.0
-0.0465543 0.0818057 0.0
-0.0445515 0.0748677 0.0
-0.0425583 0.0682101 0.0
-0.0405777 0.0618378 0.0
-0.0386105 0.0557534 0.0
-0.0366554 0.0499575 0.0
-0.0347083 0.0444497 0.0
-0.0327622 0.0392291 0.0
-0.0308074 0.0342952 0.0
-0.0288316 0.029648 0.0
-0.02682 0.0252889 0.0
-0.0247558 0.0212213 0.0
-0.0226215 0.017451 0.0
-0.0203989 0.0139864 0.0
-0.0180711 0.0108397 0.0
-0.0156241 0.00802711 0.0
-0.0130478 0.00557043 0.0
-0.0103394 0.00349858 0.0
-0.00750444 0.00184355 0.0
-0.00455896 0.000652806 0.0
-0.00153123 9.07376e-05 0.0
0.845113 0.00345012 0.0
0.569034 0.023383 0.0
0.356165 0.0576317 0.0
0.203856 0.0923818 0.0
0.0995117 0.123602 0.0
0.0300657 0.14945 0.0
-0.0150689 0.16952 0.0
-0.0434249 0.183933 0.0
-0.060763 0.193526 0.0
-0.0710057 0.199143 0.0
-0.0767305 0.201541 0.0
-0.0796078 0.201362 0.0
-0.0807083 0.199141 0.0
-0.0807102 0.195307 0.0
-0.0800358 0.190212 0.0
-0.0789432 0.184137 0.0
-0.0775857 0.177312 0.0
-0.0760513 0.169925 0.0
-0.0743885 0.162135 0.0
-0.072623 0.154069 0.0
-0.0707682 0.145839 0.0
-0.0688323 0.137536 0.0
-0.0668215 0.129239 0.0
-0.0647429 0.121011 0.0
-0.0626046 0.112908 0.0
-0.0604164 0.104974 0.0
-0.058189 0.0972437 0.0
-0.055934 0.0897464 0.0
-0.0536623 0.082503 0.0
-0.0513841 0.0755288 0.0
-0.0491078 0.0688345 0.0
-0.0468398 0.0624266 0.0
-0.0445833 0.0563082 0.0
-0.0423387 0.0504804 0.0
-0.0401028 0.0449426 0.0
-0.0378689 0.0396932 0.0
-0.0356271 0.034731 0.0
-0.0333638 0.0300549 0.0
-0.0310627 0.0256657 0.0
-0.028705 0.0215655 0.0
-0.0262702 0.0177595 0.0
-0.0237368 0.0142558 0.0
-0.0210838 0.0110665 0.0
-0.0182918 0.00820861 0.0
-0.0153446 0.00570543 0.0
-0.0122309 0.00358842 0.0
-0.00894566 0.00189285 0.0
-0.00549095 0.000670435 0.0
-0.00187674 9.30417e-05 0.0
0.856304 0.00274411 0.0
0.595497 0.0197457 0.0
0.388484 0.0499596 0.0
0.235651 0.081698 0.0
0.127494 0.111137 0.0
0.0529692 0.136291 0.0
0.00257341 0.156518 0.0
-0.0308056 0.171817 0.0
-0.0524399 0.182579 0.0
-0.0662548 0.189513 0.0
-0.0749003 0.193249 0.0
-0.0801406 0.194354 0.0
-0.0831388 0.193311 0.0
-0.0846546 0.190529 0.0
-0.0851787 0.186346 0.0
-0.0850247 0.181047 0.0
-0.0843903 0.174868 0.0
-0.0833992 0.168009 0.0
-0.0821285 0.160641 0.0
-0.0806271 0.152907 0.0
-0.0789282 0.144932 0.0
-0.077056 0.136822 0.0
-0.0750313 0.128666 0.0
-0.0728736 0.120542 0.0
-0.0706023 0.112513 0.0
-0.0682371 0.104631 0.0
-0.0657977 0.0969401 0.0
-0.0633034 0.0894726 0.0
-0.0607722 0.082254 0.0
-0.0582202 0.075303 0.0
-0.0556608 0.0686318 0.0
-0.0531042 0.0622483 0.0
-0.0505568 0.0561561 0.0
-0.0480212 0.050356 0.0
-0.0454956 0.044847 0.0
-0.0429739 0.0396267 0.0
-0.0404458 0.0346928 0.0
-0.0378969 0.0300431 0.0
-0.0353094 0.0256769 0.0
-0.032662 0.0215957 0.0
-0.0299312 0.0178033 0.0
-0.0270918 0.0143074 0.0
-0.0241181 0.0111199 0.0
-0.0209849 0.00825808 0.0
-0.0176688 0.00574624 0.0
-0.0141493 0.0036175 0.0
-0.0104101 0.00190938 0.0
-0.00643898 0.000676271 0.0
-0.00222801 9.36946e-05 0.0
0.865782 0.00224654 0.0
0.618608 0.0169205 0.0
0.417565 0.0437321 0.0
0.265096 0.0727396 0.0
0.154154 0.100383 0.0
0.0754414 0.124641 0.0
0.0204928 0.144686 0.0
-0.0173931 0.160436 0.0
-0.0430655 0.171999 0.0
-0.0603419 0.179917 0.0
-0.0718955 0.184708 0.0
-0.0795503 0.186863 0.0
-0.0845366 0.186814 0.0
-0.0876777 0.18494 0.0
-0.0895199 0.181563 0.0
-0.0904235 0.176962 0.0
-0.090625 0.171375 0.0
-0.0902799 0.16501 0.0
-0.089492 0.158046 0.0
-0.0883328 0.150639 0.0
-0.0868546 0.142925 0.0
-0.0850991 0.13502 0.0
-0.0831021 0.127028 0.0
-0.080897 0.119034 0.0
-0.0785157 0.111111 0.0
-0.0759894 0.103319 0.0
-0.0733482 0.0957071 0.0
-0.0706204 0.0883126 0.0
-0.0678321 0.081165 0.0
-0.0650065 0.0742849 0.0
-0.0621627 0.0676865 0.0
-0.0593157 0.0613781 0.0
-0.0564757 0.0553634 0.0
-0.0536479 0.0496429 0.0
-0.0508321 0.0442144 0.0
-0.0480232 0.0390746 0.0
-0.0452108 0.0342196 0.0
-0.0423796 0.0296459 0.0
-0.0395101 0.0253515 0.0
-0.0365786 0.0213363 0.0
-0.0335584 0.0176031 0.0
-0.0304201 0.0141585 0.0
-0.0271329 0.0110141 0.0
-0.0236653 0.00818686 0.0
-0.019986 0.00570146 0.0
-0.0160651 0.00359184 0.0
-0.0118745 0.00189673 0.0
-0.00738768 0.000671777 0.0
-0.00257934 9.29592e-05 0.0
0.873934 0.00188315 0.0
0.638964 0.0146839 0.0
0.44383 0.0386174 0.0
0.292353 0.0651738 0.0
0.179433 0.091077 0.0
0.0972775 0.114327 0.0
0.0383654 0.133988 0.0
-0.00351761 0.14986 0.0
-0.0329583 0.161946 0.0
-0.0535505 0.17057 0.0
-0.0679587 0.176174 0.0
-0.0780383 0.179169 0.0
-0.0850647 0.17994 0.0
-0.0899082 0.17883 0.0
-0.0931586 0.176145 0.0
-0.0952139 0.172153 0.0
-0.0963431 0.167091 0.0
-0.0967296 0.161169 0.0
-0.096501 0.154574 0.0
-0.09575 0.14747 0.0
-0.0945477 0.140005 0.0
-0.0929532 0.132304 0.0
-0.0910184 0.124481 0.0
-0.0887913 0.11663 0.0
-0.0863178 0.108833 0.0
-0.0836417 0.101155 0.0
-0.0808048 0.0936505 0.0
-0.0778459 0.0863624 0.0
-0.0748002 0.0793222 0.0
-0.0716989 0.0725527 0.0
-0.0685678 0.0660688 0.0
-0.0654274 0.059879 0.0
-0.0622921 0.0539867 0.0
-0.0591703 0.0483912 0.0
-0.0560639 0.0430894 0.0
-0.0529687 0.0380761 0.0
-0.0498744 0.033346 0.0
-0.0467649 0.0288938 0.0
-0.043619 0.0247157 0.0
-0.0404104 0.02081 0.0
-0.0371089 0.0171781 0.0
-0.0336808 0.0138254 0.0
-0.0300897 0.0107623 0.0
-0.0262974 0.00800536 0.0
-0.0222646 0.0055789 0.0
-0.0179514 0.00351677 0.0
-0.0133178 0.00185794 0.0
-0.00832333 0.000658157 0.0
-0.00292575 9.10351e-05 0.0
0.881034 0.00160881 0.0
0.657033 0.0128815 0.0
0.467646 0.0343678 0.0
0.317598 0.0587335 0.0
0.203337 0.0829844 0.0
0.118361 0.105178 0.0
0.0560113 0.124322 0.0
0.0105872 0.140084 0.0
-0.0223596 0.152471 0.0
-0.0461112 0.161584 0.0
-0.0632985 0.167796 0.0
-0.0757862 0.171449 0.0
-0.0848772 0.172879 0.0
-0.0914743 0.172398 0.0
-0.0961992 0.170289 0.0
-0.0994795 0.166811 0.0
-0.10161 0.162197 0.0
-0.102798 0.156657 0.0
-0.103192 0.150384 0.0
-0.102903 0.14355 0.0
-0.102022 0.13631 0.0
-0.100623 0.1288 0.0
-0.098777 0.121141 0.0
-0.0965463 0.113436 0.0
-0.0939921 0.105774 0.0
-0.0911721 0.0982259 0.0
-0.0881409 0.0908513 0.0
-0.084949 0.0836958 0.0
-0.0816421 0.0767933 0.0
-0.0782601 0.0701679 0.0
-0.0748365 0.0638348 0.0
-0.0713979 0.0578021 0.0
-0.0679636 0.0520721 0.0
-0.0645452 0.046643 0.0
-0.0611472 0.0415096 0.0
-0.0577666 0.0366651 0.0
-0.0543931 0.0321021 0.0
-0.0510098 0.0278132 0.0
-0.0475938 0.0237927 0.0
-0.0441162 0.0200369 0.0
-0.040543 0.0165454 0.0
-0.0368359 0.0133221 0.0
-0.0329528 0.0103761 0.0
-0.0288485 0.00772274 0.0
-0.0244753 0.00538529 0.0
-0.0197835 0.0033968 0.0
-0.014721 0.00179556 0.0
-0.00923359 0.000636358 0.0
-0.00326284 8.80661e-05 0.0
0.887284 0.00139542 0.0
0.673185 0.0114052 0.0
0.489325 0.0307967 0.0
0.341005 0.0532064 0.0
0.225904 0.0759091 0.0
0.138624 0.0970428 0.0
0.0732799 0.115586 0.0
0.0246498 0.131119 0.0
-0.0114815 0.14359 0.0
-0.0382216 0.153013 0.0
-0.0580963 0.159655 0.0
-0.0729569 0.163803 0.0
-0.0841173 0.165746 0.0
-0.0924994 0.165764 0.0
-0.0987467 0.16412 0.0
-0.103308 0.161061 0.0
-0.106498 0.156813 0.0
-0.108543 0.15159 0.0
-0.109609 0.145585 0.0
-0.109825 0.138979 0.0
-0.109299 0.131934 0.0
-0.108123 0.124593 0.0
-0.106383 0.117087 0.0
-0.104159 0.109525 0.0
-0.101529 0.102002 0.0
-0.0985647 0.0945955 0.0
-0.0953354 0.0873676 0.0
-0.0919042 0.0803667 0.0
-0.0883284 0.0736284 0.0
-0.0846576 0.067177 0.0
-0.0809338 0.0610276 0.0
-0.0771901 0.0551871 0.0
-0.0734513 0.0496565 0.0
-0.0697329 0.0444318 0.0
-0.0660417 0.0395059 0.0
-0.0623762 0.0348696 0.0
-0.0587263 0.030513 0.0
-0.0550743 0.0264266 0.0
-0.0513953 0.0226022 0.0
-0.0476576 0.0190341 0.0
-0.0438236 0.0157198 0.0
-0.03985 0.0126612 0.0
-0.0356889 0.0098656 0.0
-0.031288 0.00734672 0.0
-0.0265913 0.00512624 0.0
-0.0215387 0.00323558 0.0
-0.0160666 0.00171157 0.0
-0.0101072 0.000607098 0.0
-0.00358661 8.41498e-05 0.0
0.892836 0.00122477 0.0
0.687713 0.0101764 0.0
0.509131 0.02776 0.0
0.362738 0.0484186 0.0
0.247194 0.0696767 0.0
0.158041 0.089763 0.0
0.0900929 0.107648 0.0
0.0385769 0.122853 0.0
-0.000469524 0.135256 0.0
-0.030044 0.144848 0.0
-0.052509 0.151769 0.0
-0.0696961 0.156269 0.0
-0.0829169 0.158593 0.0
-0.093101 0.15899 0.0
-0.100904 0.157703 0.0
-0.106788 0.154967 0.0
-0.111083 0.151005 0.0
-0.114027 0.146029 0.0
-0.115803 0.140237 0.0
-0.116556 0.133813 0.0
-0.116409 0.126928 0.0
-0.115471 0.119734 0.0
-0.113846 0.112366 0.0