# vtk DataFile Version 3.0
Malha 2D com triângulos e temperatura
ASCII
DATASET UNSTRUCTURED_GRID

POINTS 2500 double
0 0 0
1 0 0
1 1 0
0 1 0
0.0204082 0 0
0.0408163 0 0
0.0612245 0 0
0.0816327 0 0
0.102041 0 0
0.122449 0 0
0.142857 0 0
0.163265 0 0
0.183673 0 0
0.204082 0 0
0.22449 0 0
0.244898 0 0
0.265306 0 0
0.285714 0 0
0.306122 0 0
0.326531 0 0
0.346939 0 0
0.367347 0 0
0.387755 0 0
0.408163 0 0
0.428571 0 0
0.44898 0 0
0.469388 0 0
0.489796 0 0
0.510204 0 0
0.530612 0 0
0.55102 0 0
0.571429 0 0
0.591837 0 0
0.612245 0 0
0.632653 0 0
0.653061 0 0
0.673469 0 0
0.693878 0 0
0.714286 0 0
0.734694 0 0
0.755102 0 0
0.77551 0 0
0.795918 0 0
0.816327 0 0
0.836735 0 0
0.857143 0 0
0.877551 0 0
0.897959 0 0
0.918367 0 0
0.938776 0 0
0.959184 0 0
0.979592 0 0
1 0.0204082 0
1 0.0408163 0
1 0.0612245 0
1 0.0816327 0
1 0.102041 0
1 0.122449 0
1 0.142857 0
1 0.163265 0
1 0.183673 0
1 0.204082 0
1 0.22449 0
1 0.244898 0
1 0.265306 0
1 0.285714 0
1 0.306122 0
1 0.326531 0
1 0.346939 0
1 0.367347 0
1 0.387755 0
1 0.408163 0
1 0.428571 0
1 0.44898 0
1 0.469388 0
1 0.489796 0
1 0.510204 0
1 0.530612 0
1 0.55102 0
1 0.571429 0
1 0.591837 0
1 0.612245 0
1 0.632653 0
1 0.653061 0
1 0.673469 0
1 0.693878 0
1 0.714286 0
1 0.734694 0
1 0.755102 0
1 0.77551 0
1 0.795918 0
1 0.816327 0
1 0.836735 0
1 0.857143 0
1 0.877551 0
1 0.897959 0
1 0.918367 0
1 0.938776 0
1 0.959184 0
1 0.979592 0
0.979592 1 0
0.959184 1 0
0.938776 1 0
0.918367 1 0
0.897959 1 0
0.877551 1 0
0.857143 1 0
0.836735 1 0
0.816327 1 0
0.795918 1 0
0.77551 1 0
0.755102 1 0
0.734694 1 0
0.714286 1 0
0.693878 1 0
0.673469 1 0
0.653061 1 0
0.632653 1 0
0.612245 1 0
0.591837 1 0
0.571429 1 0
0.55102 1 0
0.530612 1 0
0.510204 1 0
0.489796 1 0
0.469388 1 0
0.44898 1 0
0.428571 1 0
0.408163 1 0
0.387755 1 0
0.367347 1 0
0.346939 1 0
0.326531 1 0
0.306122 1 0
0.285714 1 0
0.265306 1 0
0.244898 1 0
0.22449 1 0
0.204082 1 0
0.183673 1 0
0.163265 1 0
0.142857 1 0
0.122449 1 0
0.102041 1 0
0.0816327 1 0
0.0612245 1 0
0.0408163 1 0
0.0204082 1 0
0 0.979592 0
0 0.959184 0
0 0.938776 0
0 0.918367 0
0 0.897959 0
0 0.877551 0
0 0.857143 0
0 0.836735 0
0 0.816327 0
0 0.795918 0
0 0.77551 0
0 0.755102 0
0 0.734694 0
0 0.714286 0
0 0.693878 0
0 0.673469 0
0 0.653061 0
0 0.632653 0
0 0.612245 0
0 0.591837 0
0 0.571429 0
0 0.55102 0
0 0.530612 0
0 0.510204 0
0 0.489796 0
0 0.469388 0
0 0.44898 0
0 0.428571 0
0 0.408163 0
0 0.387755 0
0 0.367347 0
0 0.346939 0
0 0.326531 0
0 0.306122 0
0 0.285714 0
0 0.265306 0
0 0.244898 0
0 0.22449 0
0 0.204082 0
0 0.183673 0
0 0.163265 0
0 0.142857 0
0 0.122449 0
0 0.102041 0
0 0.0816327 0
0 0.0612245 0
0 0.0408163 0
0 0.0204082 0
0.0204082 0.979592 0
0.0204082 0.959184 0
0.0204082 0.938776 0
0.0204082 0.918367 0
0.0204082 0.897959 0
0.0204082 0.877551 0
0.0204082 0.857143 0
0.0204082 0.836735 0
0.0204082 0.816327 0
0.0204082 0.795918 0
0.0204082 0.77551 0
0.0204082 0.755102 0
0.0204082 0.734694 0
0.0204082 0.714286 0
0.0204082 0.693878 0
0.0204082 0.673469 0
0.0204082 0.653061 0
0.0204082 0.632653 0
0.0204082 0.612245 0
0.0204082 0.591837 0
0.0204082 0.571429 0
0.0204082 0.55102 0
0.0204082 0.530612 0
0.0204082 0.510204 0
0.0204082 0.489796 0
0.0204082 0.469388 0
0.0204082 0.44898 0
0.0204082 0.428571 0
0.0204082 0.408163 0
0.0204082 0.387755 0
0.0204082 0.367347 0
0.0204082 0.346939 0
0.0204082 0.326531 0
0.0204082 0.306122 0
0.0204082 0.285714 0
0.0204082 0.265306 0
0.0204082 0.244898 0
0.0204082 0.22449 0
0.0204082 0.204082 0
0.0204082 0.183673 0
0.0204082 0.163265 0
0.0204082 0.142857 0
0.0204082 0.122449 0
0.0204082 0.102041 0
0.0204082 0.0816327 0
0.0204082 0.0612245 0
0.0204082 0.0408163 0
0.0204082 0.0204082 0
0.0408163 0.979592 0
0.0408163 0.959184 0
0.0408163 0.938776 0
0.0408163 0.918367 0
0.0408163 0.897959 0
0.0408163 0.877551 0
0.0408163 0.857143 0
0.0408163 0.836735 0
0.0408163 0.816327 0
0.0408163 0.795918 0
0.0408163 0.77551 0
0.0408163 0.755102 0
0.0408163 0.734694 0
0.0408163 0.714286 0
0.0408163 0.693878 0
0.0408163 0.673469 0
0.0408163 0.653061 0
0.0408163 0.632653 0
0.0408163 0.612245 0
0.0408163 0.591837 0
0.0408163 0.571429 0
0.0408163 0.55102 0
0.0408163 0.530612 0
0.0408163 0.510204 0
0.0408163 0.489796 0
0.0408163 0.469388 0
0.0408163 0.44898 0
0.0408163 0.428571 0
0.0408163 0.408163 0
0.0408163 0.387755 0
0.0408163 0.367347 0
0.0408163 0.346939 0
0.0408163 0.326531 0
0.0408163 0.306122 0
0.0408163 0.285714 0
0.0408163 0.265306 0
0.0408163 0.244898 0
0.0408163 0.22449 0
0.0408163 0.204082 0
0.0408163 0.183673 0
0.0408163 0.163265 0
0.0408163 0.142857 0
0.0408163 0.122449 0
0.0408163 0.102041 0
0.0408163 0.0816327 0
0.0408163 0.0612245 0
0.0408163 0.0408163 0
0.0408163 0.0204082 0
0.0612245 0.979592 0
0.0612245 0.959184 0
0.0612245 0.938776 0
0.0612245 0.918367 0
0.0612245 0.897959 0
0.0612245 0.877551 0
0.0612245 0.857143 0
0.0612245 0.836735 0
0.0612245 0.816327 0
0.0612245 0.795918 0
0.0612245 0.77551 0
0.0612245 0.755102 0
0.0612245 0.734694 0
0.0612245 0.714286 0
0.0612245 0.693878 0
0.0612245 0.673469 0
0.0612245 0.653061 0
0.0612245 0.632653 0
0.0612245 0.612245 0
0.0612245 0.591837 0
0.0612245 0.571429 0
0.0612245 0.55102 0
0.0612245 0.530612 0
0.0612245 0.510204 0
0.0612245 0.489796 0
0.0612245 0.469388 0
0.0612245 0.44898 0
0.0612245 0.428571 0
0.0612245 0.408163 0
0.0612245 0.387755 0
0.0612245 0.367347 0
0.0612245 0.346939 0
0.0612245 0.326531 0
0.0612245 0.306122 0
0.0612245 0.285714 0
0.0612245 0.265306 0
0.0612245 0.244898 0
0.0612245 0.22449 0
0.0612245 0.204082 0
0.0612245 0.183673 0
0.0612245 0.163265 0
0.0612245 0.142857 0
0.0612245 0.122449 0
0.0612245 0.102041 0
0.0612245 0.0816327 0
0.0612245 0.0612245 0
0.0612245 0.0408163 0
0.0612245 0.0204082 0
0.0816327 0.979592 0
0.0816327 0.959184 0
0.0816327 0.938776 0
0.0816327 0.918367 0
0.0816327 0.897959 0
0.0816327 0.877551 0
0.0816327 0.857143 0
0.0816327 0.836735 0
0.0816327 0.816327 0
0.0816327 0.795918 0
0.0816327 0.77551 0
0.0816327 0.755102 0
0.0816327 0.734694 0
0.0816327 0.714286 0
0.0816327 0.693878 0
0.0816327 0.673469 0
0.0816327 0.653061 0
0.0816327 0.632653 0
0.0816327 0.612245 0
0.0816327 0.591837 0
0.0816327 0.571429 0
0.0816327 0.55102 0
0.0816327 0.530612 0
0.0816327 0.510204 0
0.0816327 0.489796 0
0.0816327 0.469388 0
0.0816327 0.44898 0
0.0816327 0.428571 0
0.0816327 0.408163 0
0.0816327 0.387755 0
0.0816327 0.367347 0
0.0816327 0.346939 0
0.0816327 0.326531 0
0.0816327 0.306122 0
0.0816327 0.285714 0
0.0816327 0.265306 0
0.0816327 0.244898 0
0.0816327 0.22449 0
0.0816327 0.204082 0
0.0816327 0.183673 0
0.0816327 0.163265 0
0.0816327 0.142857 0
0.0816327 0.122449 0
0.0816327 0.102041 0
0.0816327 0.0816327 0
0.0816327 0.0612245 0
0.0816327 0.0408163 0
0.0816327 0.0204082 0
0.102041 0.979592 0
0.102041 0.959184 0
0.102041 0.938776 0
0.102041 0.918367 0
0.102041 0.897959 0
0.102041 0.877551 0
0.102041 0.857143 0
0.102041 0.836735 0
0.102041 0.816327 0
0.102041 0.795918 0
0.102041 0.77551 0
0.102041 0.755102 0
0.102041 0.734694 0
0.102041 0.714286 0
0.102041 0.693878 0
0.102041 0.673469 0
0.102041 0.653061 0
0.102041 0.632653 0
0.102041 0.612245 0
0.102041 0.591837 0
0.102041 0.571429 0
0.102041 0.55102 0
0.102041 0.530612 0
0.102041 0.510204 0
0.102041 0.489796 0
0.102041 0.469388 0
0.102041 0.44898 0
0.102041 0.428571 0
0.102041 0.408163 0
0.102041 0.387755 0
0.102041 0.367347 0
0.102041 0.346939 0
0.102041 0.326531 0
0.102041 0.306122 0
0.102041 0.285714 0
0.102041 0.265306 0
0.102041 0.244898 0
0.102041 0.22449 0
0.102041 0.204082 0
0.102041 0.183673 0
0.102041 0.163265 0
0.102041 0.142857 0
0.102041 0.122449 0
0.102041 0.102041 0
0.102041 0.0816327 0
0.102041 0.0612245 0
0.102041 0.0408163 0
0.102041 0.0204082 0
0.122449 0.979592 0
0.122449 0.959184 0
0.122449 0.938776 0
0.122449 0.918367 0
0.122449 0.897959 0
0.122449 0.877551 0
0.122449 0.857143 0
0.122449 0.836735 0
0.122449 0.816327 0
0.122449 0.795918 0
0.122449 0.77551 0
0.122449 0.755102 0
0.122449 0.734694 0
0.122449 0.714286 0
0.122449 0.693878 0
0.122449 0.673469 0
0.122449 0.653061 0
0.122449 0.632653 0
0.122449 0.612245 0
0.122449 0.591837 0
0.122449 0.571429 0
0.122449 0.55102 0
0.122449 0.530612 0
0.122449 0.510204 0
0.122449 0.489796 0
0.122449 0.469388 0
0.122449 0.44898 0
0.122449 0.428571 0
0.122449 0.408163 0
0.122449 0.387755 0
0.122449 0.367347 0
0.122449 0.346939 0
0.122449 0.326531 0
0.122449 0.306122 0
0.122449 0.285714 0
0.122449 0.265306 0
0.122449 0.244898 0
0.122449 0.22449 0
0.122449 0.204082 0
0.122449 0.183673 0
0.122449 0.163265 0
0.122449 0.142857 0
0.122449 0.122449 0
0.122449 0.102041 0
0.122449 0.0816327 0
0.122449 0.0612245 0
0.122449 0.0408163 0
0.122449 0.0204082 0
0.142857 0.979592 0
0.142857 0.959184 0
0.142857 0.938776 0
0.142857 0.918367 0
0.142857 0.897959 0
0.142857 0.877551 0
0.142857 0.857143 0
0.142857 0.836735 0
0.142857 0.816327 0
0.142857 0.795918 0
0.142857 0.77551 0
0.142857 0.755102 0
0.142857 0.734694 0
0.142857 0.714286 0
0.142857 0.693878 0
0.142857 0.673469 0
0.142857 0.653061 0
0.142857 0.632653 0
0.142857 0.612245 0
0.142857 0.591837 0
0.142857 0.571429 0
0.142857 0.55102 0
0.142857 0.530612 0
0.142857 0.510204 0
0.142857 0.489796 0
0.142857 0.469388 0
0.142857 0.44898 0
0.142857 0.428571 0
0.142857 0.408163 0
0.142857 0.387755 0
0.142857 0.367347 0
0.142857 0.346939 0
0.142857 0.326531 0
0.142857 0.306122 0
0.142857 0.285714 0
0.142857 0.265306 0
0.142857 0.244898 0
0.142857 0.22449 0
0.142857 0.204082 0
0.142857 0.183673 0
0.142857 0.163265 0
0.142857 0.142857 0
0.142857 0.122449 0
0.142857 0.102041 0
0.142857 0.0816327 0
0.142857 0.0612245 0
0.142857 0.0408163 0
0.142857 0.0204082 0
0.163265 0.979592 0
0.163265 0.959184 0
0.163265 0.938776 0
0.163265 0.918367 0
0.163265 0.897959 0
0.163265 0.877551 0
0.163265 0.857143 0
0.163265 0.836735 0
0.163265 0.816327 0
0.163265 0.795918 0
0.163265 0.77551 0
0.163265 0.755102 0
0.163265 0.734694 0
0.163265 0.714286 0
0.163265 0.693878 0
0.163265 0.673469 0
0.163265 0.653061 0
0.163265 0.632653 0
0.163265 0.612245 0
0.163265 0.591837 0
0.163265 0.571429 0
0.163265 0.55102 0
[...]
CELL_DATA 2401
VECTORS velocity double
0.257582 0.1573 0.0
-0.00262842 0.264437 0.0
-0.0322698 0.20545 0.0
-0.0253753 0.15055 0.0
-0.0160684 0.113004 0.0
-0.00971383 0.0876408 0.0
-0.00593748 0.070561 0.0
-0.00375038 0.0588623 0.0
-0.00246501 0.0506369 0.0
-0.00168584 0.0446981 0.0
-0.00119694 0.040298 0.0
-0.000880855 0.0369518 0.0
-0.00067212 0.0343356 0.0
-0.000532786 0.0322274 0.0
-0.000439833 0.030471 0.0
-0.000378668 0.0289553 0.0
-0.000339648 0.0276002 0.0
-0.000316174 0.0263476 0.0
-0.000303584 0.0251558 0.0
-0.000298493 0.0239954 0.0
-0.000298386 0.0228459 0.0
-0.000301362 0.0216939 0.0
-0.000305965 0.0205315 0.0
-0.000311075 0.0193553 0.0
-0.000315833 0.0181647 0.0
-0.000319592 0.0169622 0.0
-0.000321878 0.015752 0.0
-0.00032236 0.0145395 0.0
-0.000320829 0.0133312 0.0
-0.000317173 0.0121343 0.0
-0.000311361 0.0109562 0.0
-0.000303425 0.00980416 0.0
-0.00029344 0.00868555 0.0
-0.000281515 0.00760735 0.0
-0.000267772 0.0065762 0.0
-0.000252335 0.00559835 0.0
-0.000235318 0.00467966 0.0
-0.00021681 0.00382562 0.0
-0.000196865 0.00304145 0.0
-0.000175488 0.00233215 0.0
-0.000152624 0.0017026 0.0
-0.000128146 0.0011577 0.0
-0.000101862 0.000702408 0.0
-7.35645e-05 0.000341654 0.0
-4.31973e-05 7.99963e-05 0.0
-1.13675e-05 -7.94576e-05 0.0
1.93533e-05 -0.000137449 0.0
4.17455e-05 -0.000107492 0.0
3.69185e-05 -3.67309e-05 0.0
0.340767 0.122967 0.0
-0.000662964 0.249474 0.0
-0.0652481 0.27166 0.0
-0.0632877 0.252153 0.0
-0.0485594 0.221613 0.0
-0.034996 0.191734 0.0
-0.0249336 0.166315 0.0
-0.0178959 0.145855 0.0
-0.0130403 0.129737 0.0
-0.00968065 0.117104 0.0
-0.00733839 0.107154 0.0
-0.00569488 0.0992223 0.0
-0.0045387 0.0927859 0.0
-0.00372775 0.0874413 0.0
-0.00316452 0.082881 0.0
-0.00278064 0.0788726 0.0
-0.00252716 0.0752406 0.0
-0.00236831 0.0718545 0.0
-0.00227749 0.0686176 0.0
-0.00223458 0.0654601 0.0
-0.00222417 0.0623334 0.0
-0.0022343 0.0592049 0.0
-0.00225566 0.0560557 0.0
-0.002281 0.0528767 0.0
-0.00230472 0.0496672 0.0
-0.00232252 0.0464326 0.0
-0.00233124 0.0431832 0.0
-0.00232862 0.0399327 0.0
-0.00231317 0.0366971 0.0
-0.00228406 0.0334942 0.0
-0.00224093 0.0303424 0.0
-0.00218385 0.0272602 0.0
-0.00211318 0.0242662 0.0
-0.00202949 0.0213781 0.0
-0.00193347 0.0186131 0.0
-0.00182584 0.0159872 0.0
-0.00170732 0.0135158 0.0
-0.00157851 0.0112131 0.0
-0.00143993 0.00909269 0.0
-0.0012919 0.00716742 0.0
-0.00113463 0.00544945 0.0
-0.00096822 0.00395034 0.0
-0.000792884 0.0026808 0.0
-0.000609362 0.00165006 0.0
-0.000419885 0.000864485 0.0
-0.000230288 0.000324862 0.0
-5.43433e-05 2.14053e-05 0.0
7.89498e-05 -7.72832e-05 0.0
0.000106933 -4.05969e-05 0.0
0.500817 0.0768045 0.0
0.0989626 0.183203 0.0
-0.0394422 0.249185 0.0
-0.0734935 0.265681 0.0
-0.0719398 0.257379 0.0
-0.0606124 0.239602 0.0
-0.048335 0.21962 0.0
-0.0377447 0.200716 0.0
-0.0293298 0.1841 0.0
-0.0228878 0.169977 0.0
-0.0180524 0.158129 0.0
-0.0144697 0.148192 0.0
-0.0118455 0.139778 0.0
-0.00994833 0.132537 0.0
-0.00860045 0.12617 0.0
-0.00766593 0.120433 0.0
-0.00704085 0.11513 0.0
-0.00664533 0.110112 0.0
-0.00641752 0.105263 0.0
-0.00630919 0.100498 0.0
-0.00628247 0.0957585 0.0
-0.00630745 0.0910051 0.0
-0.00636055 0.086215 0.0
-0.00642317 0.081379 0.0
-0.00648083 0.0764984 0.0
-0.00652242 0.0715826 0.0
-0.00653963 0.0666478 0.0
-0.00652656 0.0617143 0.0
-0.00647924 0.0568059 0.0
-0.00639537 0.0519485 0.0
-0.00627396 0.047169 0.0
-0.00611507 0.0424944 0.0
-0.00591954 0.0379517 0.0
-0.00568877 0.0335668 0.0
-0.00542446 0.0293646 0.0
-0.0051285 0.0253689 0.0
-0.00480275 0.021602 0.0
-0.00444892 0.018085 0.0
-0.00406855 0.0148375 0.0
-0.00366293 0.011878 0.0
-0.00323327 0.00922382 0.0
-0.0027809 0.0068907 0.0
-0.00230792 0.0048925 0.0
-0.00181827 0.00324009 0.0
-0.00131998 0.00193954 0.0
-0.000829114 0.000989065 0.0
-0.000377034 0.000373242 0.0
-2.03448e-05 5.55868e-05 0.0
0.00013447 -1.73913e-05 0.0
0.609988 0.04805 0.0
0.195565 0.133943 0.0
0.0112606 0.209391 0.0
-0.0581412 0.246439 0.0
-0.0761312 0.257001 0.0
-0.0737302 0.253599 0.0
-0.0644015 0.243417 0.0
-0.0537656 0.2307 0.0
-0.0440019 0.217703 0.0
-0.0358003 0.205475 0.0
-0.0292309 0.194403 0.0
-0.0241283 0.184528 0.0
-0.0202593 0.175731 0.0
-0.0173912 0.167824 0.0
-0.0153177 0.16061 0.0
-0.0138649 0.153906 0.0
-0.0128899 0.147553 0.0
-0.0122766 0.14142 0.0
-0.0119313 0.135405 0.0
-0.0117785 0.129432 0.0
-0.0117572 0.123447 0.0
-0.0118184 0.117415 0.0
-0.0119229 0.111319 0.0
-0.0120395 0.105155 0.0
-0.0121434 0.0989279 0.0
-0.0122158 0.0926546 0.0
-0.0122425 0.0863569 0.0
-0.0122133 0.0800617 0.0
-0.0121214 0.0737996 0.0
-0.0119629 0.0676028 0.0
-0.0117361 0.061505 0.0
-0.0114411 0.0555398 0.0
-0.0110795 0.0497401 0.0
-0.0106536 0.0441381 0.0
-0.0101666 0.0387645 0.0
-0.00962168 0.0336483 0.0
-0.00902236 0.028817 0.0
-0.00837184 0.0242963 0.0
-0.00767315 0.0201102 0.0
-0.00692914 0.0162811 0.0
-0.00614271 0.0128294 0.0
-0.00531736 0.00977357 0.0
-0.00445821 0.00712907 0.0
-0.00357377 0.00490762 0.0
-0.00267915 0.00311528 0.0
-0.00180127 0.00175006 0.0
-0.000987636 0.000796202 0.0
-0.000316915 0.000222329 0.0
7.53549e-05 1.28228e-05 0.0
0.680373 0.030171 0.0
0.278342 0.0981849 0.0
0.0694939 0.17098 0.0
-0.0275702 0.21753 0.0
-0.0652752 0.241037 0.0
-0.074618 0.249584 0.0
-0.071462 0.249093 0.0
-0.063571 0.243662 0.0
-0.0546121 0.235863 0.0
-0.0462163 0.227184 0.0
-0.0390124 0.21842 0.0
-0.0331484 0.209946 0.0
-0.028554 0.201893 0.0
-0.0250721 0.194258 0.0
-0.0225216 0.186975 0.0
-0.0207272 0.179952 0.0
-0.0195314 0.173095 0.0
-0.0187978 0.166317 0.0
-0.0184106 0.159551 0.0
-0.0182733 0.152742 0.0
-0.0183057 0.145854 0.0
-0.0184421 0.138866 0.0
-0.0186287 0.131773 0.0
-0.0188224 0.12458 0.0
-0.0189889 0.117302 0.0
-0.0191017 0.109961 0.0
-0.0191409 0.102588 0.0
-0.0190924 0.0952164 0.0
-0.0189467 0.0878819 0.0
-0.0186983 0.0806231 0.0
-0.0183453 0.0734788 0.0
-0.0178881 0.0664878 0.0
-0.017329 0.0596876 0.0
-0.0166719 0.0531146 0.0
-0.0159214 0.0468036 0.0
-0.0150828 0.0407873 0.0
-0.0141611 0.0350964 0.0
-0.0131615 0.0297598 0.0
-0.0120891 0.0248042 0.0
-0.0109485 0.0202543 0.0
-0.00974499 0.0161325 0.0
-0.00848483 0.0124587 0.0
-0.00717672 0.00924972 0.0
-0.00583418 0.00651817 0.0
-0.00447914 0.00427136 0.0
-0.00314788 0.00250996 0.0
-0.00189973 0.00122251 0.0
-0.000827002 0.000389353 0.0
-7.7815e-05 4.19454e-05 0.0
0.72976 0.0192003 0.0
0.348877 0.0730575 0.0
0.127828 0.13932 0.0
0.0111992 0.188344 0.0
-0.0442413 0.219758 0.0
-0.0658568 0.23695 0.0
-0.0704205 0.244456 0.0
-0.0670313 0.245743 0.0
-0.0604878 0.243266 0.0
-0.0532379 0.238633 0.0
-0.0464579 0.232838 0.0
-0.0406437 0.226466 0.0
-0.0359362 0.219834 0.0
-0.0322991 0.213092 0.0
-0.0296153 0.206295 0.0
-0.0277384 0.199445 0.0
-0.0265185 0.19252 0.0
-0.0258153 0.185489 0.0
-0.0255029 0.178323 0.0
-0.025472 0.171001 0.0
-0.0256291 0.163511 0.0
-0.0258956 0.155853 0.0
-0.0262064 0.148036 0.0
-0.0265085 0.140079 0.0
-0.0267595 0.132007 0.0
-0.0269265 0.123854 0.0
-0.026985 0.115656 0.0
-0.0269173 0.107454 0.0
-0.0267123 0.099291 0.0
-0.0263635 0.0912097 0.0
-0.025869 0.0832538 0.0
-0.02523 0.0754658 0.0
-0.0244502 0.067887 0.0
-0.0235353 0.0605565 0.0
-0.0224917 0.0535118 0.0
-0.0213267 0.0467878 0.0
-0.0200478 0.0404173 0.0
-0.0186621 0.0344308 0.0
-0.0171769 0.0288565 0.0
-0.0155992 0.0237202 0.0
-0.0139368 0.0190456 0.0
-0.0121988 0.0148535 0.0
-0.0103975 0.0111618 0.0
-0.0085511 0.00798472 0.0
-0.00668696 0.00533224 0.0
-0.00484792 0.00321005 0.0
-0.00310005 0.00161429 0.0
-0.00154087 0.000540289 0.0
-0.000317675 6.69606e-05 0.0
0.765772 0.012599 0.0
0.40832 0.0557211 0.0
0.182843 0.114579 0.0
0.0527588 0.162729 0.0
-0.0169923 0.197967 0.0
-0.0500811 0.220923 0.0
-0.0627865 0.234434 0.0
-0.0648273 0.241261 0.0
-0.0617589 0.243536 0.0
-0.0566632 0.242789 0.0
-0.0511876 0.240062 0.0
-0.0461566 0.236038 0.0
-0.0419299 0.231145 0.0
-0.0386106 0.225642 0.0
-0.036167 0.21968 0.0
-0.0345009 0.213341 0.0
-0.0334871 0.206666 0.0
-0.0329948 0.199679 0.0
-0.032899 0.192393 0.0
-0.0330856 0.184822 0.0
-0.033454 0.176981 0.0
-0.0339177 0.168892 0.0
-0.0344037 0.160583 0.0
-0.0348521 0.152087 0.0
-0.0352146 0.143442 0.0
-0.0354537 0.134693 0.0
-0.0355415 0.125883 0.0
-0.0354585 0.117062 0.0
-0.0351922 0.108278 0.0
-0.0347365 0.0995778 0.0
-0.0340902 0.0910104 0.0
-0.0332558 0.082621 0.0
-0.0322391 0.0744534 0.0
-0.0310478 0.0665489 0.0
-0.0296908 0.0589463 0.0
-0.0281778 0.0516818 0.0
-0.0265186 0.044789 0.0
-0.0247228 0.038299 0.0
-0.0227999 0.0322404 0.0
-0.0207596 0.0266396 0.0
-0.0186118 0.0215205 0.0
-0.0163687 0.0169049 0.0
-0.0140454 0.0128118 0.0
-0.0116635 0.00925751 0.0
-0.00925415 0.00625598 0.0
-0.00686333 0.00381939 0.0
-0.0045588 0.00195322 0.0
-0.00243611 0.000668541 0.0
-0.000632175 8.71903e-05 0.0
0.792819 0.00861311 0.0
0.4584 0.0436495 0.0
0.233363 0.0954545 0.0
0.0944709 0.141208 0.0
0.0139314 0.177527 0.0
-0.0294919 0.204116 0.0
-0.0501498 0.221904 0.0
-0.0579775 0.233034 0.0
-0.0589911 0.239258 0.0
-0.056731 0.241936 0.0
-0.0532207 0.242064 0.0
-0.0495681 0.240347 0.0
-0.0463355 0.237266 0.0
-0.0437655 0.233146 0.0
-0.041918 0.2282 0.0
-0.0407532 0.222572 0.0
-0.0401806 0.216358 0.0
-0.0400886 0.209626 0.0
-0.0403607 0.202428 0.0
-0.0408851 0.19481 0.0
-0.0415597 0.186816 0.0
-0.0422946 0.17849 0.0
-0.0430127 0.169877 0.0
-0.0436498 0.161028 0.0
-0.0441545 0.151993 0.0
-0.0444866 0.142827 0.0
-0.0446166 0.133585 0.0
-0.0445243 0.12432 0.0
-0.0441977 0.115088 0.0
-0.0436317 0.105941 0.0
-0.0428268 0.0969312 0.0
-0.0417879 0.0881059 0.0
-0.0405232 0.0795112 0.0
-0.0390431 0.0711894 0.0
-0.0373595 0.0631803 0.0
-0.0354847 0.05552 0.0
-0.0334312 0.0482423 0.0
-0.0312112 0.0413779 0.0
-0.0288366 0.0349552 0.0
-0.0263193 0.0290004 0.0
-0.0236716 0.0235374 0.0
-0.0209076 0.0185885 0.0
-0.0180448 0.0141739 0.0
-0.0151066 0.0103127 0.0
-0.0121256 0.00702311 0.0
-0.0091477 0.00432463 0.0
-0.00623798 0.00223245 0.0
-0.00348455 0.000772505 0.0
-0.00100788 0.000102876 0.0
0.813844 0.00616395 0.0
0.500919 0.0350964 0.0
0.279231 0.0806682 0.0
0.134877 0.123453 0.0
0.0460212 0.159518 0.0
-0.00587218 0.187845 0.0
-0.0339101 0.208546 0.0
-0.0475106 0.222862 0.0
-0.0528849 0.232209 0.0
-0.0538749 0.237745 0.0
-0.0527876 0.240371 0.0
-0.0509622 0.240764 0.0
-0.0491363 0.239415 0.0
-0.04768 0.236679 0.0
-0.0467425 0.232809 0.0
-0.0463444 0.22799 0.0
-0.0464346 0.222357 0.0
-0.0469256 0.216014 0.0
-0.0477149 0.209047 0.0
-0.0486979 0.201531 0.0
-0.0497753 0.193532 0.0
-0.0508575 0.185117 0.0
-0.0518664 0.17635 0.0
-0.0527368 0.167295 0.0
-0.053416 0.158017 0.0
-0.0538635 0.148581 0.0
-0.0540499 0.139051 0.0
-0.0539562 0.129488 0.0
-0.0535718 0.119952 0.0
-0.0528941 0.110502 0.0
-0.0519264 0.10119 0.0
-0.0506766 0.0920686 0.0
-0.0491563 0.0831838 0.0
-0.0473793 0.0745788 0.0
-0.0453608 0.0662932 0.0
-0.0431163 0.0583628 0.0
-0.0406611 0.0508206 0.0
-0.0380102 0.0436964 0.0
-0.0351777 0.0370176 0.0
-0.0321775 0.0308096 0.0
-0.0290238 0.0250961 0.0
-0.0257322 0.0198994 0.0
-0.022321 0.0152413 0.0
-0.018814 0.0111433 0.0
-0.0152428 0.0076284 0.0
-0.0116507 0.00472294 0.0
-0.00809622 0.00245147 0.0
-0.00465634 0.00085298 0.0
-0.00143166 0.000114563 0.0
0.83072 0.00461861 0.0
0.537396 0.0289012 0.0
0.320746 0.0691234 0.0
0.173376 0.108805 0.0
0.0782894 0.143852 0.0
0.0195291 0.17271 0.0
-0.0151924 0.195238 0.0
-0.0343374 0.211835 0.0
-0.0441293 0.223568 0.0
-0.0485843 0.2314 0.0
-0.0502121 0.236122 0.0
-0.0505315 0.238354 0.0
-0.0504255 0.238573 0.0
-0.0503747 0.237138 0.0
-0.0506094 0.234321 0.0
-0.0512077 0.230331 0.0
-0.0521581 0.22533 0.0
-0.0533991 0.219451 0.0
-0.054845 0.212803 0.0
-0.0564013 0.205485 0.0
-0.0579744 0.197587 0.0
-0.0594779 0.189192 0.0
-0.0608355 0.180382 0.0
-0.061983 0.171236 0.0
-0.0628689 0.161831 0.0
-0.0634541 0.152241 0.0
-0.0637113 0.14254 0.0
-0.0636239 0.132796 0.0
-0.0631847 0.123076 0.0
-0.0623945 0.11344 0.0
-0.0612606 0.103946 0.0
-0.0597951 0.0946453 0.0
-0.0580137 0.0855869 0.0
-0.0559344 0.0768136 0.0
-0.053576 0.0683642 0.0
-0.0509577 0.0602736 0.0
-0.048098 0.0525732 0.0
-0.0450145 0.0452914 0.0
-0.0417236 0.0384542 0.0
-0.038241 0.0320856 0.0
-0.0345818 0.0262086 0.0
-0.0307623 0.0208455 0.0
-0.0268007 0.016019 0.0
-0.0227192 0.0117531 0.0
-0.0185468 0.00807501 0.0
-0.0143211 0.00501742 0.0
-0.0100919 0.00261308 0.0
-0.00592224 0.000911819 0.0
-0.0018914 0.00012285 0.0
0.844642 0.00361039 0.0
0.569025 0.0243075 0.0
0.358331 0.0600013 0.0
0.209683 0.0966845 0.0
0.109969 0.130324 0.0
0.0455208 0.159056 0.0
0.00518162 0.182413 0.0
-0.0191955 0.200592 0.0
-0.0333319 0.214093 0.0
-0.0413312 0.223718 0.0
-0.0458413 0.230143 0.0
-0.0485168 0.233926 0.0
-0.050357 0.235509 0.0
-0.0519351 0.235243 0.0
-0.053552 0.233403 0.0
-0.0553374 0.23021 0.0
-0.0573167 0.225843 0.0
-0.0594542 0.220452 0.0
-0.0616814 0.214167 0.0
-0.0639152 0.207106 0.0
-0.0660697 0.199375 0.0
-0.0680633 0.191075 0.0
-0.0698235 0.182303 0.0
-0.0712891 0.17315 0.0
-0.0724116 0.163705 0.0
-0.073155 0.154053 0.0
-0.0734957 0.144274 0.0
-0.0734214 0.134445 0.0
-0.0729293 0.124636 0.0
-0.0720253 0.114913 0.0
-0.0707217 0.105335 0.0
-0.0690359 0.0959559 0.0
-0.0669887 0.0868238 0.0
-0.0646027 0.0779816 0.0
-0.0619013 0.0694669 0.0
-0.0589077 0.0613131 0.0
-0.0556436 0.0535495 0.0
-0.0521294 0.0462026 0.0
-0.0483837 0.0392961 0.0
-0.0444233 0.0328526 0.0
-0.040264 0.0268936 0.0
-0.0359217 0.0214411 0.0
-0.0314131 0.0165184 0.0
-0.0267577 0.0121513 0.0
-0.0219795 0.00837049 0.0
-0.0171089 0.00521405 0.0
-0.0121848 0.00272148 0.0
-0.00725478 0.00095118 0.0
-0.0023763 0.000128283 0.0
0.856391 0.00292611 0.0
0.596738 0.0208155 0.0
0.392442 0.0526868 0.0
0.24376 0.0865727 0.0
0.140692 0.11862 0.0
0.0715836 0.14681 0.0
0.0263633 0.170425 0.0
-0.00269248 0.189503 0.0
-0.0210101 0.204276 0.0
-0.0325413 0.215254 0.0
-0.0400106 0.223023 0.0
-0.0451709 0.228071 0.0
-0.0491122 0.230804 0.0
-0.0524835 0.231551 0.0
-0.0556445 0.230582 0.0
-0.0587699 0.22812 0.0
-0.0619177 0.224351 0.0
-0.0650757 0.21944 0.0
-0.0681918 0.213529 0.0
-0.0711946 0.206749 0.0
-0.0740063 0.199223 0.0
-0.0765513 0.191065 0.0
-0.0787621 0.182383 0.0
-0.080582 0.173283 0.0
-0.0819669 0.163864 0.0
-0.0828856 0.154219 0.0
-0.0833198 0.144436 0.0
-0.0832627 0.134598 0.0
-0.0827176 0.124781 0.0
-0.0816967 0.115052 0.0
-0.0802186 0.105474 0.0
-0.078307 0.096102 0.0
-0.0759886 0.086983 0.0
-0.0732918 0.0781592 0.0
-0.070245 0.0696667 0.0
-0.0668755 0.0615366 0.0
-0.0632089 0.0537959 0.0
-0.0592682 0.0464682 0.0
-0.0550738 0.039575 0.0
-0.0506436 0.0331364 0.0
-0.0459934 0.0271723 0.0
-0.0411375 0.0217036 0.0
-0.0360903 0.0167536 0.0
-0.0308669 0.0123494 0.0
-0.0254851 0.008524 0.0
-0.0199663 0.00531968 0.0
-0.0143371 0.00278111 0.0
-0.00862866 0.000973123 0.0
-0.00287677 0.000131314 0.0
0.866493 0.00244139 0.0
0.621255 0.0180944 0.0
0.423504 0.0467281 0.0
0.275667 0.0780493 0.0
0.17024 0.108441 0.0
0.0973188 0.135831 0.0
0.0478579 0.159332 0.0
0.014663 0.178793 0.0
-0.00760359 0.194402 0.0
-0.0225889 0.20637 0.0
-0.0330288 0.215165 0.0
-0.0407395 0.221216 0.0
-0.0468803 0.224888 0.0
-0.0521596 0.226485 0.0
-0.0569855 0.226264 0.0
-0.0615696 0.224444 0.0
-0.0659978 0.221217 0.0
-0.070278 0.21675 0.0
-0.0743731 0.211197 0.0
-0.0782222 0.204699 0.0
-0.0817555 0.197391 0.0
-0.084904 0.189398 0.0
-0.0876059 0.18084 0.0
-0.0898098 0.171834 0.0
-0.0914774 0.162486 0.0
-0.0925838 0.1529 0.0
-0.0931171 0.143171 0.0
-0.0930776 0.133387 0.0
-0.0924762 0.123627 0.0
-0.0913324 0.113963 0.0
-0.0896727 0.104458 0.0
-0.087528 0.0951668 0.0
-0.084932 0.0861377 0.0
-0.0819194 0.0774105 0.0
-0.0785243 0.0690192 0.0
-0.0747788 0.0609922 0.0
-0.0707123 0.0533534 0.0
-0.0663505 0.0461234 0.0
-0.0617157 0.0393205 0.0
-0.0568261 0.032962 0.0
-0.0516968 0.0270655 0.0
-0.0463403 0.0216504 0.0
-0.0407671 0.0167391 0.0
-0.0349871 0.012359 0.0
-0.0290102 0.00854462 0.0
-0.022848 0.00534085 0.0
-0.0165133 0.00279603 0.0
-0.0100206 0.000979403 0.0
-0.00338432 0.000132288 0.0
0.87531 0.00208291 0.0
0.64313 0.0159222 0.0
0.45189 0.0417941 0.0
0.305515 0.070781 0.0
0.198503 0.0995251 0.0
0.122472 0.125959 0.0
0.0693219 0.149089 0.0
0.0323785 0.168623 0.0
0.00656735 0.18462 0.0
-0.0117799 0.197285 0.0
-0.0251656 0.206835 0.0
-0.0354499 0.213653 0.0
-0.0438459 0.218065 0.0
-0.0511093 0.22035 0.0
-0.0576863 0.220748 0.0
-0.0638183 0.219473 0.0
-0.0696136 0.216711 0.0
-0.075097 0.212636 0.0
-0.0802436 0.207407 0.0
-0.0850017 0.201173 0.0
-0.089309 0.194077 0.0
-0.0931028 0.186256 0.0
-0.0963272 0.177839 0.0
-0.0989372 0.168951 0.0
-0.100901 0.159708 0.0
-0.102201 0.150222 0.0
-0.102834 0.140592 0.0
-0.102808 0.130912 0.0
-0.102143 0.121266 0.0
-0.100867 0.111726 0.0
-0.0990152 0.102358 0.0
-0.0966275 0.093216 0.0
-0.0937454 0.0843464 0.0
-0.0904107 0.0757874 0.0
-0.0866637 0.0675702 0.0
-0.0825416 0.0597199 0.0
-0.0780779 0.052257 0.0
-0.0733013 0.0451982 0.0
-0.0682353 0.0385584 0.0
-0.0628986 0.0323515 0.0
-0.0573049 0.0265921 0.0
-0.0514639 0.0212973 0.0
-0.0453815 0.0164879 0.0
-0.0390611 0.0121906 0.0
-0.0325043 0.00844039 0.0
-0.0257111 0.00528322 0.0
-0.0186804 0.00276961 0.0
-0.0114094 0.00097139 0.0
-0.0038913 0.000131451 0.0
0.883096 0.00180658 0.0
0.662789 0.0141471 0.0
0.477918 0.0376398 0.0
0.333432 0.0645035 0.0
0.225442 0.0916406 0.0
0.146882 0.117028 0.0
0.0905207 0.139609 0.0
0.0501882 0.158986 0.0
0.0210713 0.175114 0.0
-0.00038972 0.188135 0.0
-0.0166599 0.198207 0.0
-0.0295095 0.205578 0.0
-0.0401848 0.210545 0.0
-0.0494778 0.213361 0.0
-0.057864 0.214249 0.0
-0.0656079 0.213411 0.0
-0.0728352 0.211032 0.0
-0.0795834 0.207284 0.0
-0.0858374 0.202332 0.0
-0.0915528 0.19633 0.0
-0.0966738 0.189428 0.0
-0.101143 0.181772 0.0
-0.104912 0.1735 0.0
-0.107942 0.164744 0.0
-0.110208 0.155629 0.0
-0.111701 0.146272 0.0
-0.112427 0.136779 0.0
-0.112405 0.127248 0.0
-0.111663 0.117765 0.0
-0.110241 0.108405 0.0
-0.108184 0.0992317 0.0
-0.10554 0.0903003 0.0
-0.102361 0.081655 0.0
-0.0986961 0.0733311 0.0
-0.0945921 0.0653565 0.0
-0.0900923 0.0577527 0.0
-0.0852341 0.0505358 0.0
-0.0800492 0.0437185 0.0
-0.0745625 0.0373113 0.0
-0.0687924 0.0313243 0.0
-0.062751 0.0257686 0.0
-0.0564445 0.020658 0.0
-0.0498736 0.0160112 0.0
-0.0430343 0.0118532 0.0
-0.0359188 0.00821791 0.0
-0.028515 0.00515126 0.0
-0.0208072 0.00270437 0.0
-0.0127749 0.000950062 0.0
-0.00439069 0.000128956 0.0
0.890033 0.00158516 0.0
0.680561 0.0126632 0.0
0.501853 0.0340818 0.0
0.359544 0.0590068 0.0
0.251047 0.0845911 0.0
0.170439 0.108879 0.0
0.11128 0.130779 0.0
0.0678826 0.14982 0.0
0.0357041 0.165876 0.0
0.0113213 0.17901 0.0
-0.00773103 0.18938 0.0
-0.0231109 0.197111 0.0
-0.0360638 0.202461 0.0
-0.0474071 0.205657 0.0
-0.0576377 0.206905 0.0
-0.0670362 0.206396 0.0
-0.0757408 0.20431 0.0
-0.083798 0.200819 0.0
-0.0911994 0.196087 0.0
-0.0979063 0.190275 0.0
-0.103868 0.18354 0.0
-0.109032 0.176034 0.0
-0.113356 0.167903 0.0
-0.116809 0.159286 0.0
-0.119374 0.150315 0.0
-0.121052 0.141113 0.0
-0.121859 0.13179 0.0
-0.121823 0.122447 0.0
-0.120987 0.113172 0.0
-0.119401 0.104042 0.0
-0.11712 0.0951196 0.0
-0.114205 0.0864579 0.0
-0.110715 0.0780987 0.0
-0.10671 0.0700742 0.0
-0.102242 0.0624081 0.0
-0.0973626 0.0551176 0.0
-0.0921123 0.0482141 0.0
-0.0865259 0.0417057 0.0
-0.0806295 0.0355981 0.0
-0.0744413 0.0298968 0.0
-0.0679711 0.0246088 0.0
-0.0612211 0.0197442 0.0
-0.0541861 0.0153185 0.0
-0.0468542 0.0113539 0.0
-0.0392073 0.00788234 0.0
-0.031221 0.00494829 0.0
-0.022864 0.00260212 0.0
-0.0140984 0.000916042 0.0
-0.00487587 0.000124879 0.0
0.896254 0.00140125 0.0
0.6967 0.011395 0.0
0.52391 0.0309806 0.0
0.383965 0.0541229 0.0
0.27533 0.07821 0.0
0.193069 0.101366 0.0
0.131464 0.12249 0.0
0.0852871 0.141054 0.0
0.0502632 0.156871 0.0
0.0231135 0.169943 0.0
0.00143666 0.180382 0.0
-0.0164254 0.188309 0.0
-0.0316373 0.193881 0.0
-0.0450336 0.197316 0.0
-0.0571252 0.1988 0.0
-0.0682033 0.198511 0.0
-0.0784136 0.196626 0.0
-0.087808 0.193314 0.0
-0.0963819 0.188741 0.0
-0.1041 0.183073 0.0
-0.110916 0.176471 0.0
-0.116782 0.169095 0.0
-0.121661 0.161096 0.0
-0.12553 0.152621 0.0
-0.128382 0.143807 0.0
-0.130228 0.134781 0.0
-0.131094 0.125659 0.0
-0.131023 0.116542 0.0
-0.130069 0.10752 0.0
-0.128295 0.0986696 0.0