# vtk DataFile Version 3.0
Malha 2D com triângulos e temperatura
ASCII
DATASET UNSTRUCTURED_GRID

POINTS 2500 double
0 0 0
1 0 0
1 1 0
0 1 0
0.0204082 0 0
0.0408163 0 0
0.0612245 0 0
0.0816327 0 0
0.102041 0 0
0.122449 0 0
0.142857 0 0
0.163265 0 0
0.183673 0 0
0.204082 0 0
0.22449 0 0
0.244898 0 0
0.265306 0 0
0.285714 0 0
0.306122 0 0
0.326531 0 0
0.346939 0 0
0.367347 0 0
0.387755 0 0
0.408163 0 0
0.428571 0 0
0.44898 0 0
0.469388 0 0
0.489796 0 0
0.510204 0 0
0.530612 0 0
0.55102 0 0
0.571429 0 0
0.591837 0 0
0.612245 0 0
0.632653 0 0
0.653061 0 0
0.673469 0 0
0.693878 0 0
0.714286 0 0
0.734694 0 0
0.755102 0 0
0.77551 0 0
0.795918 0 0
0.816327 0 0
0.836735 0 0
0.857143 0 0
0.877551 0 0
0.897959 0 0
0.918367 0 0
0.938776 0 0
0.959184 0 0
0.979592 0 0
1 0.0204082 0
1 0.0408163 0
1 0.0612245 0
1 0.0816327 0
1 0.102041 0
1 0.122449 0
1 0.142857 0
1 0.163265 0
1 0.183673 0
1 0.204082 0
1 0.22449 0
1 0.244898 0
1 0.265306 0
1 0.285714 0
1 0.306122 0
1 0.326531 0
1 0.346939 0
1 0.367347 0
1 0.387755 0
1 0.408163 0
1 0.428571 0
1 0.44898 0
1 0.469388 0
1 0.489796 0
1 0.510204 0
1 0.530612 0
1 0.55102 0
1 0.571429 0
1 0.591837 0
1 0.612245 0
1 0.632653 0
1 0.653061 0
1 0.673469 0
1 0.693878 0
1 0.714286 0
1 0.734694 0
1 0.755102 0
1 0.77551 0
1 0.795918 0
1 0.816327 0
1 0.836735 0
1 0.857143 0
1 0.877551 0
1 0.897959 0
1 0.918367 0
1 0.938776 0
1 0.959184 0
1 0.979592 0
0.979592 1 0
0.959184 1 0
0.938776 1 0
0.918367 1 0
0.897959 1 0
0.877551 1 0
0.857143 1 0
0.836735 1 0
0.816327 1 0
0.795918 1 0
0.77551 1 0
0.755102 1 0
0.734694 1 0
0.714286 1 0
0.693878 1 0
0.673469 1 0
0.653061 1 0
0.632653 1 0
0.612245 1 0
0.591837 1 0
0.571429 1 0
0.55102 1 0
0.530612 1 0
0.510204 1 0
0.489796 1 0
0.469388 1 0
0.44898 1 0
0.428571 1 0
0.408163 1 0
0.387755 1 0
0.367347 1 0
0.346939 1 0
0.326531 1 0
0.306122 1 0
0.285714 1 0
0.265306 1 0
0.244898 1 0
0.22449 1 0
0.204082 1 0
0.183673 1 0
0.163265 1 0
0.142857 1 0
0.122449 1 0
0.102041 1 0
0.0816327 1 0
0.0612245 1 0
0.0408163 1 0
0.0204082 1 0
0 0.979592 0
0 0.959184 0
0 0.938776 0
0 0.918367 0
0 0.897959 0
0 0.877551 0
0 0.857143 0
0 0.836735 0
0 0.816327 0
0 0.795918 0
0 0.77551 0
0 0.755102 0
0 0.734694 0
0 0.714286 0
0 0.693878 0
0 0.673469 0
0 0.653061 0
0 0.632653 0
0 0.612245 0
0 0.591837 0
0 0.571429 0
0 0.55102 0
0 0.530612 0
0 0.510204 0
0 0.489796 0
0 0.469388 0
0 0.44898 0
0 0.428571 0
0 0.408163 0
0 0.387755 0
0 0.367347 0
0 0.346939 0
0 0.326531 0
0 0.306122 0
0 0.285714 0
0 0.265306 0
0 0.244898 0
0 0.22449 0
0 0.204082 0
0 0.183673 0
0 0.163265 0
0 0.142857 0
0 0.122449 0
0 0.102041 0
0 0.0816327 0
0 0.0612245 0
0 0.0408163 0
0 0.0204082 0
0.0204082 0.979592 0
0.0204082 0.959184 0
0.0204082 0.938776 0
0.0204082 0.918367 0
0.0204082 0.897959 0
0.0204082 0.877551 0
0.0204082 0.857143 0
0.0204082 0.836735 0
0.0204082 0.816327 0
0.0204082 0.795918 0
0.0204082 0.77551 0
0.0204082 0.755102 0
0.0204082 0.734694 0
0.0204082 0.714286 0
0.0204082 0.693878 0
0.0204082 0.673469 0
0.0204082 0.653061 0
0.0204082 0.632653 0
0.0204082 0.612245 0
0.0204082 0.591837 0
0.0204082 0.571429 0
0.0204082 0.55102 0
0.0204082 0.530612 0
0.0204082 0.510204 0
0.0204082 0.489796 0
0.0204082 0.469388 0
0.0204082 0.44898 0
0.0204082 0.428571 0
0.0204082 0.408163 0
0.0204082 0.387755 0
0.0204082 0.367347 0
0.0204082 0.346939 0
0.0204082 0.326531 0
0.0204082 0.306122 0
0.0204082 0.285714 0
0.0204082 0.265306 0
0.0204082 0.244898 0
0.0204082 0.22449 0
0.0204082 0.204082 0
0.0204082 0.183673 0
0.0204082 0.163265 0
0.0204082 0.142857 0
0.0204082 0.122449 0
0.0204082 0.102041 0
0.0204082 0.0816327 0
0.0204082 0.0612245 0
0.0204082 0.0408163 0
0.0204082 0.0204082 0
0.0408163 0.979592 0
0.0408163 0.959184 0
0.0408163 0.938776 0
0.0408163 0.918367 0
0.0408163 0.897959 0
0.0408163 0.877551 0
0.0408163 0.857143 0
0.0408163 0.836735 0
0.0408163 0.816327 0
0.0408163 0.795918 0
0.0408163 0.77551 0
0.0408163 0.755102 0
0.0408163 0.734694 0
0.0408163 0.714286 0
0.0408163 0.693878 0
0.0408163 0.673469 0
0.0408163 0.653061 0
0.0408163 0.632653 0
0.0408163 0.612245 0
0.0408163 0.591837 0
0.0408163 0.571429 0
0.0408163 0.55102 0
0.0408163 0.530612 0
0.0408163 0.510204 0
0.0408163 0.489796 0
0.0408163 0.469388 0
0.0408163 0.44898 0
0.0408163 0.428571 0
0.0408163 0.408163 0
0.0408163 0.387755 0
0.0408163 0.367347 0
0.0408163 0.346939 0
0.0408163 0.326531 0
0.0408163 0.306122 0
0.0408163 0.285714 0
0.0408163 0.265306 0
0.0408163 0.244898 0
0.0408163 0.22449 0
0.0408163 0.204082 0
0.0408163 0.183673 0
0.0408163 0.163265 0
0.0408163 0.142857 0
0.0408163 0.122449 0
0.0408163 0.102041 0
0.0408163 0.0816327 0
0.0408163 0.0612245 0
0.0408163 0.0408163 0
0.0408163 0.0204082 0
0.0612245 0.979592 0
0.0612245 0.959184 0
0.0612245 0.938776 0
0.0612245 0.918367 0
0.0612245 0.897959 0
0.0612245 0.877551 0
0.0612245 0.857143 0
0.0612245 0.836735 0
0.0612245 0.816327 0
0.0612245 0.795918 0
0.0612245 0.77551 0
0.0612245 0.755102 0
0.0612245 0.734694 0
0.0612245 0.714286 0
0.0612245 0.693878 0
0.0612245 0.673469 0
0.0612245 0.653061 0
0.0612245 0.632653 0
0.0612245 0.612245 0
0.0612245 0.591837 0
0.0612245 0.571429 0
0.0612245 0.55102 0
0.0612245 0.530612 0
0.0612245 0.510204 0
0.0612245 0.489796 0
0.0612245 0.469388 0
0.0612245 0.44898 0
0.0612245 0.428571 0
0.0612245 0.408163 0
0.0612245 0.387755 0
0.0612245 0.367347 0
0.0612245 0.346939 0
0.0612245 0.326531 0
0.0612245 0.306122 0
0.0612245 0.285714 0
0.0612245 0.265306 0
0.0612245 0.244898 0
0.0612245 0.22449 0
0.0612245 0.204082 0
0.0612245 0.183673 0
0.0612245 0.163265 0
0.0612245 0.142857 0
0.0612245 0.122449 0
0.0612245 0.102041 0
0.0612245 0.0816327 0
0.0612245 0.0612245 0
0.0612245 0.0408163 0
0.0612245 0.0204082 0
0.0816327 0.979592 0
0.0816327 0.959184 0
0.0816327 0.938776 0
0.0816327 0.918367 0
0.0816327 0.897959 0
0.0816327 0.877551 0
0.0816327 0.857143 0
0.0816327 0.836735 0
0.0816327 0.816327 0
0.0816327 0.795918 0
0.0816327 0.77551 0
0.0816327 0.755102 0
0.0816327 0.734694 0
0.0816327 0.714286 0
0.0816327 0.693878 0
0.0816327 0.673469 0
0.0816327 0.653061 0
0.0816327 0.632653 0
0.0816327 0.612245 0
0.0816327 0.591837 0
0.0816327 0.571429 0
0.0816327 0.55102 0
0.0816327 0.530612 0
0.0816327 0.510204 0
0.0816327 0.489796 0
0.0816327 0.469388 0
0.0816327 0.44898 0
0.0816327 0.428571 0
0.0816327 0.408163 0
0.0816327 0.387755 0
0.0816327 0.367347 0
0.0816327 0.346939 0
0.0816327 0.326531 0
0.0816327 0.306122 0
0.0816327 0.285714 0
0.0816327 0.265306 0
0.0816327 0.244898 0
0.0816327 0.22449 0
0.0816327 0.204082 0
0.0816327 0.183673 0
0.0816327 0.163265 0
0.0816327 0.142857 0
0.0816327 0.122449 0
0.0816327 0.102041 0
0.0816327 0.0816327 0
0.0816327 0.0612245 0
0.0816327 0.0408163 0
0.0816327 0.0204082 0
0.102041 0.979592 0
0.102041 0.959184 0
0.102041 0.938776 0
0.102041 0.918367 0
0.102041 0.897959 0
0.102041 0.877551 0
0.102041 0.857143 0
0.102041 0.836735 0
0.102041 0.816327 0
0.102041 0.795918 0
0.102041 0.77551 0
0.102041 0.755102 0
0.102041 0.734694 0
0.102041 0.714286 0
0.102041 0.693878 0
0.102041 0.673469 0
0.102041 0.653061 0
0.102041 0.632653 0
0.102041 0.612245 0
0.102041 0.591837 0
0.102041 0.571429 0
0.102041 0.55102 0
0.102041 0.530612 0
0.102041 0.510204 0
0.102041 0.489796 0
0.102041 0.469388 0
0.102041 0.44898 0
0.102041 0.428571 0
0.102041 0.408163 0
0.102041 0.387755 0
0.102041 0.367347 0
0.102041 0.346939 0
0.102041 0.326531 0
0.102041 0.306122 0
0.102041 0.285714 0
0.102041 0.265306 0
0.102041 0.244898 0
0.102041 0.22449 0
0.102041 0.204082 0
0.102041 0.183673 0
0.102041 0.163265 0
0.102041 0.142857 0
0.102041 0.122449 0
0.102041 0.102041 0
0.102041 0.0816327 0
0.102041 0.0612245 0
0.102041 0.0408163 0
0.102041 0.0204082 0
0.122449 0.979592 0
0.122449 0.959184 0
0.122449 0.938776 0
0.122449 0.918367 0
0.122449 0.897959 0
0.122449 0.877551 0
0.122449 0.857143 0
0.122449 0.836735 0
0.122449 0.816327 0
0.122449 0.795918 0
0.122449 0.77551 0
0.122449 0.755102 0
0.122449 0.734694 0
0.122449 0.714286 0
0.122449 0.693878 0
0.122449 0.673469 0
0.122449 0.653061 0
0.122449 0.632653 0
0.122449 0.612245 0
0.122449 0.591837 0
0.122449 0.571429 0
0.122449 0.55102 0
0.122449 0.530612 0
0.122449 0.510204 0
0.122449 0.489796 0
0.122449 0.469388 0
0.122449 0.44898 0
0.122449 0.428571 0
0.122449 0.408163 0
0.122449 0.387755 0
0.122449 0.367347 0
0.122449 0.346939 0
0.122449 0.326531 0
0.122449 0.306122 0
0.122449 0.285714 0
0.122449 0.265306 0
0.122449 0.244898 0
0.122449 0.22449 0
0.122449 0.204082 0
0.122449 0.183673 0
0.122449 0.163265 0
0.122449 0.142857 0
0.122449 0.122449 0
0.122449 0.102041 0
0.122449 0.0816327 0
0.122449 0.0612245 0
0.122449 0.0408163 0
0.122449 0.0204082 0
0.142857 0.979592 0
0.142857 0.959184 0
0.142857 0.938776 0
0.142857 0.918367 0
0.142857 0.897959 0
0.142857 0.877551 0
0.142857 0.857143 0
0.142857 0.836735 0
0.142857 0.816327 0
0.142857 0.795918 0
0.142857 0.77551 0
0.142857 0.755102 0
0.142857 0.734694 0
0.142857 0.714286 0
0.142857 0.693878 0
0.142857 0.673469 0
0.142857 0.653061 0
0.142857 0.632653 0
0.142857 0.612245 0
0.142857 0.591837 0
0.142857 0.571429 0
0.142857 0.55102 0
0.142857 0.530612 0
0.142857 0.510204 0
0.142857 0.489796 0
0.142857 0.469388 0
0.142857 0.44898 0
0.142857 0.428571 0
0.142857 0.408163 0
0.142857 0.387755 0
0.142857 0.367347 0
0.142857 0.346939 0
0.142857 0.326531 0
0.142857 0.306122 0
0.142857 0.285714 0
0.142857 0.265306 0
0.142857 0.244898 0
0.142857 0.22449 0
0.142857 0.204082 0
0.142857 0.183673 0
0.142857 0.163265 0
0.142857 0.142857 0
0.142857 0.122449 0
0.142857 0.102041 0
0.142857 0.0816327 0
0.142857 0.0612245 0
0.142857 0.0408163 0
0.142857 0.0204082 0
0.163265 0.979592 0
0.163265 0.959184 0
0.163265 0.938776 0
0.163265 0.918367 0
0.163265 0.897959 0
0.163265 0.877551 0
0.163265 0.857143 0
0.163265 0.836735 0
0.163265 0.816327 0
0.163265 0.795918 0
0.163265 0.77551 0
0.163265 0.755102 0
0.163265 0.734694 0
0.163265 0.714286 0
0.163265 0.693878 0
0.163265 0.673469 0
0.163265 0.653061 0
0.163265 0.632653 0
0.163265 0.612245 0
0.163265 0.591837 0
0.163265 0.571429 0
0.163265 0.55102 0
[...]
CELL_DATA 2401
VECTORS velocity double
0.257583 0.157301 0.0
-0.00262056 0.26445 0.0
-0.0322575 0.205489 0.0
-0.0253632 0.150616 0.0
-0.0160602 0.113092 0.0
-0.00971114 0.0877355 0.0
-0.00594026 0.0706475 0.0
-0.00375771 0.0589266 0.0
-0.00247569 0.0506675 0.0
-0.00169872 0.0446868 0.0
-0.00121106 0.0402396 0.0
-0.000895465 0.0368434 0.0
-0.000686662 0.0341767 0.0
-0.000546851 0.0320186 0.0
-0.000453125 0.0302146 0.0
-0.00039096 0.0286544 0.0
-0.000350767 0.0272584 0.0
-0.00032598 0.0259695 0.0
-0.000311961 0.0247463 0.0
-0.00030535 0.0235598 0.0
-0.000303654 0.0223896 0.0
-0.000304996 0.0212228 0.0
-0.000307945 0.0200515 0.0
-0.000311411 0.0188721 0.0
-0.000314564 0.0176842 0.0
-0.000316789 0.0164899 0.0
-0.00031764 0.0152931 0.0
-0.000316816 0.0140988 0.0
-0.00031413 0.0129132 0.0
-0.000309494 0.0117426 0.0
-0.000302893 0.010594 0.0
-0.000294369 0.0094739 0.0
-0.000284009 0.00838897 0.0
-0.000271919 0.00734545 0.0
-0.000258221 0.00634927 0.0
-0.000243032 0.00540595 0.0
-0.000226453 0.00452068 0.0
-0.000208559 0.00369831 0.0
-0.000189387 0.00294346 0.0
-0.000168922 0.00226062 0.0
-0.000147089 0.00165423 0.0
-0.000123739 0.00112881 0.0
-9.8659e-05 0.000689034 0.0
-7.16138e-05 0.000339667 0.0
-4.25099e-05 8.52116e-05 0.0
-1.18843e-05 -7.10983e-05 0.0
1.78403e-05 -0.00012961 0.0
3.97604e-05 -0.000102833 0.0
3.56148e-05 -3.54381e-05 0.0
0.34078 0.122975 0.0
-0.000624517 0.249512 0.0
-0.0652002 0.271744 0.0
-0.0632456 0.252276 0.0
-0.0485366 0.221759 0.0
-0.034999 0.191876 0.0
-0.0249632 0.166424 0.0
-0.0179487 0.145902 0.0
-0.0131112 0.1297 0.0
-0.00976419 0.116963 0.0
-0.00742965 0.106897 0.0
-0.00578964 0.0988427 0.0
-0.00463355 0.092281 0.0
-0.00381997 0.0868127 0.0
-0.00325199 0.0821335 0.0
-0.00286169 0.0780134 0.0
-0.00260044 0.0742794 0.0
-0.00243277 0.0708023 0.0
-0.00233227 0.0674868 0.0
-0.00227904 0.0642643 0.0
-0.00225783 0.0610867 0.0
-0.00225688 0.0579221 0.0
-0.00226708 0.0547517 0.0
-0.00228137 0.0515665 0.0
-0.00229432 0.0483653 0.0
-0.00230186 0.0451531 0.0
-0.00230099 0.0419394 0.0
-0.00228964 0.0387368 0.0
-0.00226648 0.0355602 0.0
-0.00223078 0.0324258 0.0
-0.00218231 0.0293505 0.0
-0.00212121 0.0263512 0.0
-0.00204789 0.0234446 0.0
-0.00196293 0.0206467 0.0
-0.00186701 0.0179728 0.0
-0.00176081 0.0154371 0.0
-0.00164497 0.0130534 0.0
-0.00152002 0.0108342 0.0
-0.00138634 0.00879166 0.0
-0.00124414 0.00693723 0.0
-0.00109348 0.00528196 0.0
-0.000934288 0.00383651 0.0
-0.000766593 0.0026109 0.0
-0.000590909 0.00161398 0.0
-0.000409169 0.000852088 0.0
-0.000226765 0.000326459 0.0
-5.6744e-05 2.83612e-05 0.0
7.3124e-05 -7.1539e-05 0.0
0.00010231 -3.86776e-05 0.0
0.500856 0.0768153 0.0
0.0990447 0.18325 0.0
-0.0393511 0.249278 0.0
-0.073424 0.265804 0.0
-0.0719159 0.257506 0.0
-0.060647 0.239701 0.0
-0.0484296 0.219654 0.0
-0.037893 0.200652 0.0
-0.0295212 0.183907 0.0
-0.0231104 0.169633 0.0
-0.0182946 0.157619 0.0
-0.0147212 0.147505 0.0
-0.0120976 0.138913 0.0
-0.0101939 0.131495 0.0
-0.00883361 0.124958 0.0
-0.00788204 0.119062 0.0
-0.00723615 0.113614 0.0
-0.0068168 0.108466 0.0
-0.00656281 0.103505 0.0
-0.0064265 0.0986489 0.0
-0.00637054 0.0938384 0.0
-0.00636557 0.0890353 0.0
-0.00638852 0.0842172 0.0
-0.00642132 0.0793748 0.0
-0.00645 0.0745088 0.0
-0.00646397 0.0696281 0.0
-0.00645541 0.0647475 0.0
-0.00641884 0.0598858 0.0
-0.00635072 0.0550653 0.0
-0.00624907 0.0503096 0.0
-0.00611317 0.0456434 0.0
-0.0059433 0.0410914 0.0
-0.00574041 0.0366781 0.0
-0.00550595 0.0324268 0.0
-0.0052416 0.0283598 0.0
-0.00494913 0.0244984 0.0
-0.00463024 0.0208624 0.0
-0.00428641 0.0174705 0.0
-0.00391887 0.0143403 0.0
-0.00352858 0.0114883 0.0
-0.00311632 0.00893021 0.0
-0.00268298 0.00668038 0.0
-0.0022301 0.00475172 0.0
-0.001761 0.00315456 0.0
-0.00128286 0.00189493 0.0
-0.000810645 0.000971662 0.0
-0.000374083 0.000370707 0.0
-2.73723e-05 5.80295e-05 0.0
0.000126787 -1.59699e-05 0.0
0.610053 0.04806 0.0
0.195687 0.133984 0.0
0.011386 0.209462 0.0
-0.0580637 0.246521 0.0
-0.0761329 0.257061 0.0
-0.0738275 0.253598 0.0
-0.0645958 0.243318 0.0
-0.054047 0.230468 0.0
-0.0443537 0.217306 0.0
-0.0362038 0.20489 0.0
-0.0296671 0.193613 0.0
-0.0245802 0.183525 0.0
-0.0207118 0.174511 0.0
-0.0178318 0.166391 0.0
-0.015736 0.158974 0.0
-0.0142524 0.152078 0.0
-0.0132397 0.145551 0.0
-0.0125831 0.139264 0.0
-0.0121903 0.133117 0.0
-0.0119866 0.127036 0.0
-0.0119122 0.120968 0.0
-0.0119191 0.114879 0.0
-0.011969 0.108753 0.0
-0.0120315 0.102584 0.0
-0.012083 0.0963784 0.0
-0.0121055 0.0901512 0.0
-0.0120856 0.0839227 0.0
-0.0120139 0.0777183 0.0
-0.0118843 0.0715661 0.0
-0.0116935 0.0654964 0.0
-0.0114404 0.0595398 0.0
-0.0111253 0.0537272 0.0
-0.0107499 0.0480886 0.0
-0.010317 0.0426531 0.0
-0.00982937 0.0374482 0.0
-0.00929028 0.0325 0.0
-0.00870281 0.027833 0.0
-0.0080698 0.02347 0.0
-0.00739376 0.0194326 0.0
-0.00667691 0.0157406 0.0
-0.00592144 0.0124126 0.0
-0.00512997 0.00946518 0.0
-0.00430664 0.00691281 0.0
-0.0034588 0.00476641 0.0
-0.00260009 0.00303194 0.0
-0.00175558 0.001708 0.0
-0.000970201 0.000780215 0.0
-0.00031916 0.00021957 0.0
6.71116e-05 1.3322e-05 0.0
0.680458 0.0301781 0.0
0.278488 0.0982107 0.0
0.069627 0.171015 0.0
-0.0275123 0.217548 0.0
-0.0653336 0.241001 0.0
-0.0748112 0.249456 0.0
-0.0717895 0.248834 0.0
-0.0640186 0.243237 0.0
-0.0551571 0.235243 0.0
-0.0468326 0.226347 0.0
-0.0396738 0.217352 0.0
-0.0338307 0.208638 0.0
-0.0292358 0.200344 0.0
-0.0257349 0.192473 0.0
-0.0231501 0.184965 0.0
-0.0213087 0.177732 0.0
-0.0200555 0.170684 0.0
-0.019256 0.163738 0.0
-0.0187965 0.156828 0.0
-0.0185819 0.149902 0.0
-0.0185337 0.142926 0.0
-0.0185877 0.135879 0.0
-0.0186915 0.128756 0.0
-0.0188034 0.121562 0.0
-0.0188906 0.114312 0.0
-0.0189278 0.107027 0.0
-0.0188966 0.0997348 0.0
-0.0187837 0.0924677 0.0
-0.0185809 0.0852596 0.0
-0.0182836 0.0781462 0.0
-0.0178904 0.0711633 0.0
-0.0174023 0.0643465 0.0
-0.016822 0.0577303 0.0
-0.0161536 0.0513476 0.0
-0.0154016 0.0452298 0.0
-0.0145709 0.0394063 0.0
-0.0136663 0.0339046 0.0
-0.0126924 0.0287503 0.0
-0.0116534 0.0239674 0.0
-0.0105532 0.0195779 0.0
-0.00939576 0.015602 0.0
-0.00818617 0.0120576 0.0
-0.00693163 0.00896016 0.0
-0.00564391 0.00632134 0.0
-0.00434285 0.00414824 0.0
-0.00306208 0.00244188 0.0
-0.00185759 0.00119202 0.0
-0.000817345 0.000380936 0.0
-8.3513e-05 4.14591e-05 0.0
0.729855 0.0192031 0.0
0.349029 0.0730632 0.0
0.127945 0.13931 0.0
0.0112066 0.188287 0.0
-0.0443884 0.219617 0.0
-0.0661776 0.236685 0.0
-0.0709115 0.244031 0.0
-0.0676733 0.245126 0.0
-0.0612519 0.242431 0.0
-0.0540909 0.237559 0.0
-0.0473663 0.231513 0.0
-0.0415763 0.224885 0.0
-0.0368652 0.217997 0.0
-0.0332005 0.211007 0.0
-0.0304686 0.203974 0.0
-0.0285266 0.196905 0.0
-0.0272275 0.189781 0.0
-0.0264337 0.182575 0.0
-0.026022 0.175261 0.0
-0.0258852 0.167819 0.0
-0.0259318 0.16024 0.0
-0.0260855 0.152523 0.0
-0.026283 0.144679 0.0
-0.0264734 0.136725 0.0
-0.026616 0.128687 0.0
-0.0266799 0.120596 0.0
-0.0266421 0.112487 0.0
-0.0264866 0.104401 0.0
-0.0262034 0.0963751 0.0
-0.0257874 0.0884516 0.0
-0.0252376 0.0806707 0.0
-0.0245559 0.0730715 0.0
-0.0237465 0.065692 0.0
-0.0228152 0.058568 0.0
-0.0217685 0.0517333 0.0
-0.0206134 0.0452193 0.0
-0.0193568 0.0390556 0.0
-0.0180051 0.0332692 0.0
-0.0165644 0.0278853 0.0
-0.0150408 0.0229271 0.0
-0.0134403 0.0184157 0.0
-0.0117705 0.0143698 0.0
-0.0100418 0.0108057 0.0
-0.00826972 0.00773653 0.0
-0.00647919 0.00517182 0.0
-0.00470965 0.00311732 0.0
-0.00302314 0.00157 0.0
-0.00151223 0.000526548 0.0
-0.000317807 6.55863e-05 0.0
0.765864 0.0125974 0.0
0.408456 0.0557057 0.0
0.182916 0.114524 0.0
0.0526861 0.162599 0.0
-0.0172572 0.197724 0.0
-0.0505572 0.220528 0.0
-0.063466 0.233854 0.0
-0.0656858 0.240468 0.0
-0.062761 0.242507 0.0
-0.0577688 0.241508 0.0
-0.0523564 0.238519 0.0
-0.0473508 0.23423 0.0
-0.0431155 0.229075 0.0
-0.0397582 0.223319 0.0
-0.0372512 0.217117 0.0
-0.0355004 0.210555 0.0
-0.0343844 0.203681 0.0
-0.0337758 0.196518 0.0
-0.0335525 0.189085 0.0
-0.0336032 0.181395 0.0
-0.0338302 0.173466 0.0
-0.0341495 0.165321 0.0
-0.0344908 0.156987 0.0
-0.0347964 0.148497 0.0
-0.0350205 0.139891 0.0
-0.0351279 0.131208 0.0
-0.0350926 0.122494 0.0
-0.0348972 0.113794 0.0
-0.0345309 0.105154 0.0
-0.033989 0.0966194 0.0
-0.0332714 0.0882348 0.0
-0.0323818 0.0800428 0.0
-0.0313263 0.0720837 0.0
-0.030113 0.0643954 0.0
-0.0287508 0.0570131 0.0
-0.0272491 0.0499695 0.0
-0.0256169 0.0432948 0.0
-0.023863 0.0370168 0.0
-0.0219957 0.0311609 0.0
-0.020023 0.0257508 0.0
-0.0179533 0.0208077 0.0
-0.0157962 0.0163512 0.0
-0.0135648 0.0123985 0.0
-0.0112776 0.00896469 0.0
-0.0089624 0.00606286 0.0
-0.00666149 0.00370494 0.0
-0.00443796 0.00189679 0.0
-0.00238202 0.000650185 0.0
-0.000624065 8.50816e-05 0.0
0.792897 0.00860746 0.0
0.458497 0.0436146 0.0
0.233366 0.0953564 0.0
0.0942922 0.141012 0.0
0.0135169 0.177197 0.0
-0.0301475 0.203609 0.0
-0.0510377 0.221192 0.0
-0.0590685 0.232094 0.0
-0.0602436 0.238071 0.0
-0.0580984 0.240488 0.0
-0.0546562 0.24035 0.0
-0.0510279 0.238366 0.0
-0.0477802 0.235022 0.0
-0.0451602 0.230649 0.0
-0.043233 0.225466 0.0
-0.0419633 0.219619 0.0
-0.0412649 0.213207 0.0
-0.0410302 0.206303 0.0
-0.0411463 0.19896 0.0
-0.0415047 0.191227 0.0
-0.0420067 0.183148 0.0
-0.0425655 0.174769 0.0
-0.043107 0.166134 0.0
-0.0435701 0.157295 0.0
-0.0439061 0.1483 0.0
-0.0440775 0.139204 0.0
-0.0440574 0.130059 0.0
-0.043828 0.120918 0.0
-0.0433791 0.111833 0.0
-0.0427075 0.102855 0.0
-0.0418151 0.0940309 0.0
-0.0407079 0.0854065 0.0
-0.0393948 0.0770241 0.0
-0.0378865 0.068923 0.0
-0.036195 0.061139 0.0
-0.0343323 0.0537051 0.0
-0.03231 0.0466516 0.0
-0.0301393 0.040006 0.0
-0.0278307 0.0337936 0.0
-0.0253942 0.0280376 0.0
-0.02284 0.0227594 0.0
-0.0201798 0.0179787 0.0
-0.0174281 0.0137142 0.0
-0.0146051 0.0099832 0.0
-0.0117394 0.00680294 0.0
-0.00887284 0.00419215 0.0
-0.00606536 0.00216596 0.0
-0.0033995 0.000750375 0.0
-0.000989307 0.000100192 0.0
0.813897 0.006155 0.0
0.500959 0.0350445 0.0
0.279144 0.0805322 0.0
0.134572 0.123199 0.0
0.045446 0.159111 0.0
-0.00673243 0.187255 0.0
-0.0350236 0.207733 0.0
-0.0488454 0.221809 0.0
-0.0543943 0.230904 0.0
-0.0555071 0.236177 0.0
-0.0544904 0.238538 0.0
-0.0526861 0.238667 0.0
-0.0508368 0.23706 0.0
-0.0493179 0.234077 0.0
-0.0482838 0.229976 0.0
-0.0477604 0.224943 0.0
-0.0477013 0.219118 0.0
-0.0480234 0.212609 0.0
-0.0486285 0.205503 0.0
-0.0494158 0.197875 0.0
-0.0502898 0.189795 0.0
-0.0511645 0.181329 0.0
-0.0519656 0.172542 0.0
-0.0526311 0.163498 0.0
-0.0531117 0.154262 0.0
-0.05337 0.144897 0.0
-0.0533795 0.135464 0.0
-0.0531239 0.126024 0.0
-0.0525951 0.116635 0.0
-0.0517923 0.107352 0.0
-0.0507206 0.0982255 0.0
-0.0493892 0.0893042 0.0
-0.0478105 0.0806313 0.0
-0.0459988 0.0722467 0.0
-0.0439692 0.0641866 0.0
-0.0417368 0.0564837 0.0
-0.0393163 0.0491674 0.0
-0.0367213 0.0422644 0.0
-0.0339644 0.0357992 0.0
-0.0310574 0.0297942 0.0
-0.0280122 0.0242704 0.0
-0.0248413 0.019248 0.0
-0.0215601 0.0147464 0.0
-0.0181885 0.0107857 0.0
-0.0147541 0.00738716 0.0
-0.0112952 0.00457633 0.0
-0.00786547 0.0023771 0.0
-0.00453589 0.000827922 0.0
-0.00140087 0.000111449 0.0
0.83074 0.00460729 0.0
0.537362 0.0288361 0.0
0.32055 0.0689572 0.0
0.172928 0.108505 0.0
0.0775394 0.143387 0.0
0.0184668 0.17205 0.0
-0.0165371 0.194355 0.0
-0.0359199 0.210707 0.0
-0.045896 0.222186 0.0
-0.0504787 0.229761 0.0
-0.0521771 0.234223 0.0
-0.0525132 0.236199 0.0
-0.0523747 0.236169 0.0
-0.0522481 0.234496 0.0
-0.0523695 0.231457 0.0
-0.0528224 0.227262 0.0
-0.0536004 0.222077 0.0
-0.0546473 0.216038 0.0
-0.0558816 0.209256 0.0
-0.0572134 0.201832 0.0
-0.0585533 0.193855 0.0
-0.0598191 0.185412 0.0
-0.0609383 0.176583 0.0
-0.0618509 0.167449 0.0
-0.062509 0.158084 0.0
-0.062877 0.148563 0.0
-0.0629311 0.138957 0.0
-0.0626576 0.129334 0.0
-0.0620521 0.119756 0.0
-0.0611176 0.110283 0.0
-0.0598633 0.10097 0.0
-0.0583028 0.091866 0.0
-0.0564528 0.0830155 0.0
-0.0543317 0.0744587 0.0
-0.0519585 0.0662314 0.0
-0.049352 0.0583654 0.0
-0.0465296 0.0508888 0.0
-0.0435078 0.043827 0.0
-0.0403011 0.0372029 0.0
-0.0369231 0.031038 0.0
-0.0333863 0.0253524 0.0
-0.0297038 0.0201662 0.0
-0.0258903 0.0154999 0.0
-0.0219641 0.0113756 0.0
-0.0179495 0.00781863 0.0
-0.0138795 0.00486052 0.0
-0.0097982 0.00253293 0.0
-0.00576301 0.000884617 0.0
-0.00184708 0.000119427 0.0
0.844622 0.00359765 0.0
0.568904 0.0242332 0.0
0.358011 0.0598138 0.0
0.20908 0.0963526 0.0
0.109035 0.12982 0.0
0.044248 0.158355 0.0
0.00359266 0.181498 0.0
-0.0210265 0.19943 0.0
-0.0353518 0.212681 0.0
-0.0434809 0.222055 0.0
-0.0480596 0.228231 0.0
-0.0507461 0.231768 0.0
-0.0525444 0.233114 0.0
-0.0540337 0.232622 0.0
-0.0555209 0.230571 0.0
-0.0571417 0.227183 0.0
-0.0589269 0.222641 0.0
-0.0608461 0.217098 0.0
-0.0628358 0.210685 0.0
-0.0648177 0.203522 0.0
-0.0667105 0.195716 0.0
-0.0684373 0.187369 0.0
-0.06993 0.178578 0.0
-0.0711318 0.169435 0.0
-0.0719983 0.160028 0.0
-0.0724976 0.150441 0.0
-0.0726098 0.140753 0.0
-0.0723258 0.131039 0.0
-0.0716461 0.121367 0.0
-0.0705789 0.111801 0.0
-0.0691387 0.102397 0.0
-0.0673446 0.0932067 0.0
-0.0652184 0.0842753 0.0
-0.0627833 0.0756427 0.0
-0.060063 0.0673435 0.0
-0.0570799 0.0594081 0.0
-0.0538551 0.0518629 0.0
-0.0504074 0.0447313 0.0
-0.0467535 0.0380345 0.0
-0.042908 0.0317921 0.0
-0.038884 0.0260232 0.0
-0.0346938 0.0207473 0.0
-0.0303506 0.0159856 0.0
-0.0258695 0.0117617 0.0
-0.02127 0.00810458 0.0
-0.0165774 0.00505047 0.0
-0.0118249 0.00263748 0.0
-0.00705442 0.000922533 0.0
-0.00231753 0.00012465 0.0
0.856328 0.00291277 0.0
0.596522 0.020736 0.0
0.39199 0.0524861 0.0
0.242996 0.0862212 0.0
0.139574 0.118093 0.0
0.070107 0.146089 0.0
0.024557 0.169493 0.0
-0.00477562 0.18835 0.0
-0.0232791 0.202876 0.0
-0.0349373 0.213613 0.0
-0.0424706 0.221145 0.0
-0.0476347 0.225962 0.0
-0.0515246 0.228472 0.0
-0.0547947 0.229007 0.0
-0.0578109 0.227839 0.0
-0.0607538 0.225193 0.0
-0.0636872 0.22126 0.0
-0.0666044 0.216204 0.0
-0.0694588 0.210171 0.0
-0.072184 0.203293 0.0
-0.0747072 0.195694 0.0
-0.076958 0.18749 0.0
-0.0788736 0.178789 0.0
-0.0804021 0.169696 0.0
-0.0815041 0.160311 0.0
-0.0821528 0.150725 0.0
-0.0823339 0.141027 0.0
-0.0820444 0.131297 0.0
-0.081291 0.121609 0.0
-0.0800886 0.112029 0.0
-0.0784581 0.102616 0.0
-0.076425 0.0934231 0.0
-0.0740174 0.0844952 0.0
-0.071264 0.0758714 0.0
-0.0681936 0.0675851 0.0
-0.0648329 0.0596645 0.0
-0.0612067 0.0521338 0.0
-0.0573364 0.045014 0.0
-0.0532406 0.0383239 0.0
-0.0489345 0.032081 0.0
-0.0444311 0.0263028 0.0
-0.0397414 0.0210078 0.0
-0.0348756 0.0162169 0.0
-0.0298448 0.0119553 0.0
-0.0246618 0.0082538 0.0
-0.0193429 0.00515273 0.0
-0.013909 0.00269502 0.0
-0.00838569 0.000943645 0.0
-0.00280298 0.000127552 0.0
0.866386 0.00242819 0.0
0.620938 0.0180133 0.0
0.422915 0.0465224 0.0
0.27474 0.0776912 0.0
0.168937 0.10791 0.0
0.0956421 0.135111 0.0
0.0458403 0.158411 0.0
0.0123638 0.177663 0.0
-0.0101047 0.193049 0.0
-0.0252161 0.20479 0.0
-0.0357146 0.213364 0.0
-0.0434222 0.219202 0.0
-0.0495026 0.222667 0.0
-0.0546694 0.224067 0.0
-0.0593367 0.223661 0.0
-0.0637222 0.22167 0.0
-0.0679175 0.218288 0.0
-0.0719366 0.213684 0.0
-0.0757477 0.208015 0.0
-0.0792953 0.201423 0.0
-0.0825153 0.194044 0.0
-0.0853439 0.186004 0.0
-0.0877244 0.177425 0.0
-0.089611 0.168423 0.0
-0.0909702 0.159104 0.0
-0.0917819 0.149572 0.0
-0.0920387 0.13992 0.0
-0.0917451 0.130235 0.0
-0.0909155 0.120594 0.0
-0.0895726 0.111068 0.0
-0.0877451 0.101717 0.0
-0.0854661 0.0925942 0.0
-0.0827706 0.0837445 0.0
-0.0796939 0.0752055 0.0
-0.0762703 0.0670087 0.0
-0.0725315 0.0591798 0.0
-0.0685057 0.0517403 0.0
-0.0642174 0.0447082 0.0
-0.0596866 0.0380992 0.0
-0.0549292 0.0319284 0.0
-0.0499573 0.0262111 0.0
-0.0447796 0.0209641 0.0
-0.0394029 0.0162078 0.0
-0.0338324 0.0119673 0.0
-0.0280736 0.00827499 0.0
-0.0221324 0.0051736 0.0
-0.0160165 0.00270946 0.0
-0.00973447 0.000949641 0.0
-0.00329521 0.000128465 0.0
0.875159 0.00207047 0.0
0.642712 0.0158428 0.0
0.451164 0.0415911 0.0
0.304426 0.0704285 0.0
0.197023 0.0990056 0.0
0.120606 0.125261 0.0
0.067106 0.148206 0.0
0.029872 0.167549 0.0
0.00383932 0.183354 0.0
-0.0146231 0.195806 0.0
-0.0280598 0.205151 0.0
-0.0383341 0.211773 0.0
-0.0466616 0.215997 0.0
-0.0538026 0.218101 0.0
-0.060209 0.218328 0.0
-0.0661282 0.216894 0.0
-0.0716745 0.213988 0.0
-0.0768786 0.209785 0.0
-0.081721 0.204445 0.0
-0.0861561 0.19812 0.0
-0.0901271 0.190955 0.0
-0.0935771 0.183087 0.0
-0.096456 0.174646 0.0
-0.0987242 0.165758 0.0
-0.100356 0.156539 0.0
-0.101338 0.147098 0.0
-0.101672 0.137537 0.0
-0.101371 0.127947 0.0
-0.100459 0.118409 0.0
-0.0989665 0.108996 0.0
-0.0969325 0.0997692 0.0
-0.0943982 0.0907822 0.0
-0.0914065 0.0820785 0.0
-0.0880002 0.0736941 0.0
-0.0842196 0.0656577 0.0
-0.0801016 0.0579922 0.0
-0.0756786 0.0507156 0.0
-0.0709777 0.0438424 0.0
-0.0660204 0.0373851 0.0
-0.0608227 0.0313555 0.0
-0.0553954 0.025766 0.0
-0.0497446 0.0206314 0.0
-0.0438723 0.0159705 0.0
-0.0377774 0.0118078 0.0
-0.0314566 0.00817586 0.0
-0.0249048 0.00511849 0.0
-0.0181154 0.002684 0.0
-0.0110801 0.000941836 0.0
-0.00378684 0.000127623 0.0
0.882903 0.00179536 0.0
0.662273 0.0140722 0.0
0.477058 0.0374461 0.0
0.332189 0.0641672 0.0
0.223794 0.0911469 0.0
0.14484 0.116369 0.0
0.0881259 0.13878 0.0
0.0475014 0.157985 0.0
0.018165 0.173941 0.0
-0.00343756 0.186792 0.0
-0.0197476 0.196674 0.0
-0.0325781 0.203867 0.0
-0.043177 0.208664 0.0
-0.0523389 0.211316 0.0
-0.0605445 0.212048 0.0
-0.0680637 0.211064 0.0
-0.075028 0.208551 0.0
-0.081481 0.204684 0.0
-0.0874131 0.199626 0.0
-0.0927861 0.193537 0.0
-0.09755 0.186567 0.0
-0.101654 0.178863 0.0
-0.105055 0.170565 0.0
-0.10772 0.161804 0.0
-0.109631 0.152706 0.0
-0.110784 0.143388 0.0
-0.111191 0.133955 0.0
-0.110874 0.124503 0.0
-0.109867 0.115116 0.0
-0.108213 0.10587 0.0
-0.105959 0.0968249 0.0
-0.103157 0.0880343 0.0
-0.0998591 0.0795401 0.0
-0.0961151 0.0713757 0.0
-0.0919725 0.0635667 0.0
-0.0874739 0.0561324 0.0
-0.0826557 0.0490869 0.0
-0.077548 0.0424408 0.0
-0.0721736 0.0362026 0.0
-0.0665484 0.0303804 0.0
-0.0606813 0.0249831 0.0
-0.054575 0.0200228 0.0
-0.0482263 0.0155159 0.0
-0.0416269 0.0114853 0.0
-0.034764 0.00796272 0.0
-0.0276207 0.0049917 0.0
-0.0201757 0.00262111 0.0
-0.0124034 0.000921174 0.0
-0.0042711 0.000125175 0.0
0.889801 0.00157552 0.0
0.679953 0.0125952 0.0
0.500867 0.0339031 0.0
0.358156 0.0586957 0.0
0.249245 0.0841357 0.0
0.168238 0.108274 0.0
0.108723 0.130024 0.0
0.0650336 0.148914 0.0
0.0326365 0.164819 0.0
0.00811657 0.177804 0.0
-0.0109861 0.188019 0.0
-0.0263425 0.195593 0.0
-0.0392135 0.200793 0.0
-0.0504195 0.203844 0.0
-0.0604616 0.204952 0.0
-0.0696259 0.204311 0.0
-0.0780561 0.202102 0.0
-0.0858046 0.198498 0.0
-0.0928688 0.193668 0.0
-0.0992161 0.187772 0.0
-0.104802 0.180971 0.0
-0.109581 0.173416 0.0
-0.113516 0.165255 0.0
-0.116584 0.156629 0.0
-0.118773 0.147669 0.0
-0.120091 0.138497 0.0
-0.120558 0.129224 0.0
-0.12021 0.11995 0.0
-0.119093 0.11076 0.0
-0.117259 0.10173 0.0
-0.114768 0.0929218 0.0
-0.111683 0.0843858 0.0
-0.108066 0.0761619 0.0
-0.103974 0.0682805 0.0
-0.0994632 0.0607634 0.0
-0.0945816 0.0536256 0.0
-0.0893703 0.0468771 0.0
-0.083862 0.0405237 0.0
-0.0780808 0.0345696 0.0
-0.0720422 0.0290186 0.0
-0.0657529 0.0238757 0.0
-0.0592117 0.0191493 0.0
-0.0524096 0.0148528 0.0
-0.0453303 0.0110067 0.0
-0.0379512 0.00764052 0.0
-0.0302428 0.00479644 0.0
-0.0221689 0.00252252 0.0
-0.0136862 0.000888262 0.0
-0.00474159 0.000121198 0.0
0.895987 0.00139346 0.0
0.696008 0.0113357 0.0
0.52281 0.0308217 0.0
0.382445 0.053845 0.0
0.273389 0.0778036 0.0
0.190728 0.100829 0.0
0.128768 0.121823 0.0
0.0822992 0.140261 0.0
0.0470576 0.155953 0.0
0.0197687 0.168901 0.0
-0.00197163 0.179221 0.0
-0.0198016 0.187007 0.0
-0.0349263 0.19245 0.0
-0.0481804 0.195758 0.0
-0.060078 0.197117 0.0
-0.0709148 0.19671 0.0
-0.0808417 0.194712 0.0
-0.0899164 0.191296 0.0
-0.0981402 0.186631 0.0
-0.105484 0.180883 0.0
-0.111908 0.174216 0.0
-0.117371 0.166791 0.0
-0.121843 0.15876 0.0
-0.125307 0.150271 0.0
-0.127764 0.141462 0.0
-0.12923 0.132459 0.0
-0.12974 0.123377 0.0
-0.129339 0.114318 0.0
-0.128088 0.105369 0.0