# vtk DataFile Version 3.0
Malha 2D com triângulos e temperatura
ASCII
DATASET UNSTRUCTURED_GRID

POINTS 2500 double
0 0 0
1 0 0
1 1 0
0 1 0
0.0204082 0 0
0.0408163 0 0
0.0612245 0 0
0.0816327 0 0
0.102041 0 0
0.122449 0 0
0.142857 0 0
0.163265 0 0
0.183673 0 0
0.204082 0 0
0.22449 0 0
0.244898 0 0
0.265306 0 0
0.285714 0 0
0.306122 0 0
0.326531 0 0
0.346939 0 0
0.367347 0 0
0.387755 0 0
0.408163 0 0
0.428571 0 0
0.44898 0 0
0.469388 0 0
0.489796 0 0
0.510204 0 0
0.530612 0 0
0.55102 0 0
0.571429 0 0
0.591837 0 0
0.612245 0 0
0.632653 0 0
0.653061 0 0
0.673469 0 0
0.693878 0 0
0.714286 0 0
0.734694 0 0
0.755102 0 0
0.77551 0 0
0.795918 0 0
0.816327 0 0
0.836735 0 0
0.857143 0 0
0.877551 0 0
0.897959 0 0
0.918367 0 0
0.938776 0 0
0.959184 0 0
0.979592 0 0
1 0.0204082 0
1 0.0408163 0
1 0.0612245 0
1 0.0816327 0
1 0.102041 0
1 0.122449 0
1 0.142857 0
1 0.163265 0
1 0.183673 0
1 0.204082 0
1 0.22449 0
1 0.244898 0
1 0.265306 0
1 0.285714 0
1 0.306122 0
1 0.326531 0
1 0.346939 0
1 0.367347 0
1 0.387755 0
1 0.408163 0
1 0.428571 0
1 0.44898 0
1 0.469388 0
1 0.489796 0
1 0.510204 0
1 0.530612 0
1 0.55102 0
1 0.571429 0
1 0.591837 0
1 0.612245 0
1 0.632653 0
1 0.653061 0
1 0.673469 0
1 0.693878 0
1 0.714286 0
1 0.734694 0
1 0.755102 0
1 0.77551 0
1 0.795918 0
1 0.816327 0
1 0.836735 0
1 0.857143 0
1 0.877551 0
1 0.897959 0
1 0.918367 0
1 0.938776 0
1 0.959184 0
1 0.979592 0
0.979592 1 0
0.959184 1 0
0.938776 1 0
0.918367 1 0
0.897959 1 0
0.877551 1 0
0.857143 1 0
0.836735 1 0
0.816327 1 0
0.795918 1 0
0.77551 1 0
0.755102 1 0
0.734694 1 0
0.714286 1 0
0.693878 1 0
0.673469 1 0
0.653061 1 0
0.632653 1 0
0.612245 1 0
0.591837 1 0
0.571429 1 0
0.55102 1 0
0.530612 1 0
0.510204 1 0
0.489796 1 0
0.469388 1 0
0.44898 1 0
0.428571 1 0
0.408163 1 0
0.387755 1 0
0.367347 1 0
0.346939 1 0
0.326531 1 0
0.306122 1 0
0.285714 1 0
0.265306 1 0
0.244898 1 0
0.22449 1 0
0.204082 1 0
0.183673 1 0
0.163265 1 0
0.142857 1 0
0.122449 1 0
0.102041 1 0
0.0816327 1 0
0.0612245 1 0
0.0408163 1 0
0.0204082 1 0
0 0.979592 0
0 0.959184 0
0 0.938776 0
0 0.918367 0
0 0.897959 0
0 0.877551 0
0 0.857143 0
0 0.836735 0
0 0.816327 0
0 0.795918 0
0 0.77551 0
0 0.755102 0
0 0.734694 0
0 0.714286 0
0 0.693878 0
0 0.673469 0
0 0.653061 0
0 0.632653 0
0 0.612245 0
0 0.591837 0
0 0.571429 0
0 0.55102 0
0 0.530612 0
0 0.510204 0
0 0.489796 0
0 0.469388 0
0 0.44898 0
0 0.428571 0
0 0.408163 0
0 0.387755 0
0 0.367347 0
0 0.346939 0
0 0.326531 0
0 0.306122 0
0 0.285714 0
0 0.265306 0
0 0.244898 0
0 0.22449 0
0 0.204082 0
0 0.183673 0
0 0.163265 0
0 0.142857 0
0 0.122449 0
0 0.102041 0
0 0.0816327 0
0 0.0612245 0
0 0.0408163 0
0 0.0204082 0
0.0204082 0.979592 0
0.0204082 0.959184 0
0.0204082 0.938776 0
0.0204082 0.918367 0
0.0204082 0.897959 0
0.0204082 0.877551 0
0.0204082 0.857143 0
0.0204082 0.836735 0
0.0204082 0.816327 0
0.0204082 0.795918 0
0.0204082 0.77551 0
0.0204082 0.755102 0
0.0204082 0.734694 0
0.0204082 0.714286 0
0.0204082 0.693878 0
0.0204082 0.673469 0
0.0204082 0.653061 0
0.0204082 0.632653 0
0.0204082 0.612245 0
0.0204082 0.591837 0
0.0204082 0.571429 0
0.0204082 0.55102 0
0.0204082 0.530612 0
0.0204082 0.510204 0
0.0204082 0.489796 0
0.0204082 0.469388 0
0.0204082 0.44898 0
0.0204082 0.428571 0
0.0204082 0.408163 0
0.0204082 0.387755 0
0.0204082 0.367347 0
0.0204082 0.346939 0
0.0204082 0.326531 0
0.0204082 0.306122 0
0.0204082 0.285714 0
0.0204082 0.265306 0
0.0204082 0.244898 0
0.0204082 0.22449 0
0.0204082 0.204082 0
0.0204082 0.183673 0
0.0204082 0.163265 0
0.0204082 0.142857 0
0.0204082 0.122449 0
0.0204082 0.102041 0
0.0204082 0.0816327 0
0.0204082 0.0612245 0
0.0204082 0.0408163 0
0.0204082 0.0204082 0
0.0408163 0.979592 0
0.0408163 0.959184 0
0.0408163 0.938776 0
0.0408163 0.918367 0
0.0408163 0.897959 0
0.0408163 0.877551 0
0.0408163 0.857143 0
0.0408163 0.836735 0
0.0408163 0.816327 0
0.0408163 0.795918 0
0.0408163 0.77551 0
0.0408163 0.755102 0
0.0408163 0.734694 0
0.0408163 0.714286 0
0.0408163 0.693878 0
0.0408163 0.673469 0
0.0408163 0.653061 0
0.0408163 0.632653 0
0.0408163 0.612245 0
0.0408163 0.591837 0
0.0408163 0.571429 0
0.0408163 0.55102 0
0.0408163 0.530612 0
0.0408163 0.510204 0
0.0408163 0.489796 0
0.0408163 0.469388 0
0.0408163 0.44898 0
0.0408163 0.428571 0
0.0408163 0.408163 0
0.0408163 0.387755 0
0.0408163 0.367347 0
0.0408163 0.346939 0
0.0408163 0.326531 0
0.0408163 0.306122 0
0.0408163 0.285714 0
0.0408163 0.265306 0
0.0408163 0.244898 0
0.0408163 0.22449 0
0.0408163 0.204082 0
0.0408163 0.183673 0
0.0408163 0.163265 0
0.0408163 0.142857 0
0.0408163 0.122449 0
0.0408163 0.102041 0
0.0408163 0.0816327 0
0.0408163 0.0612245 0
0.0408163 0.0408163 0
0.0408163 0.0204082 0
0.0612245 0.979592 0
0.0612245 0.959184 0
0.0612245 0.938776 0
0.0612245 0.918367 0
0.0612245 0.897959 0
0.0612245 0.877551 0
0.0612245 0.857143 0
0.0612245 0.836735 0
0.0612245 0.816327 0
0.0612245 0.795918 0
0.0612245 0.77551 0
0.0612245 0.755102 0
0.0612245 0.734694 0
0.0612245 0.714286 0
0.0612245 0.693878 0
0.0612245 0.673469 0
0.0612245 0.653061 0
0.0612245 0.632653 0
0.0612245 0.612245 0
0.0612245 0.591837 0
0.0612245 0.571429 0
0.0612245 0.55102 0
0.0612245 0.530612 0
0.0612245 0.510204 0
0.0612245 0.489796 0
0.0612245 0.469388 0
0.0612245 0.44898 0
0.0612245 0.428571 0
0.0612245 0.408163 0
0.0612245 0.387755 0
0.0612245 0.367347 0
0.0612245 0.346939 0
0.0612245 0.326531 0
0.0612245 0.306122 0
0.0612245 0.285714 0
0.0612245 0.265306 0
0.0612245 0.244898 0
0.0612245 0.22449 0
0.0612245 0.204082 0
0.0612245 0.183673 0
0.0612245 0.163265 0
0.0612245 0.142857 0
0.0612245 0.122449 0
0.0612245 0.102041 0
0.0612245 0.0816327 0
0.0612245 0.0612245 0
0.0612245 0.0408163 0
0.0612245 0.0204082 0
0.0816327 0.979592 0
0.0816327 0.959184 0
0.0816327 0.938776 0
0.0816327 0.918367 0
0.0816327 0.897959 0
0.0816327 0.877551 0
0.0816327 0.857143 0
0.0816327 0.836735 0
0.0816327 0.816327 0
0.0816327 0.795918 0
0.0816327 0.77551 0
0.0816327 0.755102 0
0.0816327 0.734694 0
0.0816327 0.714286 0
0.0816327 0.693878 0
0.0816327 0.673469 0
0.0816327 0.653061 0
0.0816327 0.632653 0
0.0816327 0.612245 0
0.0816327 0.591837 0
0.0816327 0.571429 0
0.0816327 0.55102 0
0.0816327 0.530612 0
0.0816327 0.510204 0
0.0816327 0.489796 0
0.0816327 0.469388 0
0.0816327 0.44898 0
0.0816327 0.428571 0
0.0816327 0.408163 0
0.0816327 0.387755 0
0.0816327 0.367347 0
0.0816327 0.346939 0
0.0816327 0.326531 0
0.0816327 0.306122 0
0.0816327 0.285714 0
0.0816327 0.265306 0
0.0816327 0.244898 0
0.0816327 0.22449 0
0.0816327 0.204082 0
0.0816327 0.183673 0
0.0816327 0.163265 0
0.0816327 0.142857 0
0.0816327 0.122449 0
0.0816327 0.102041 0
0.0816327 0.0816327 0
0.0816327 0.0612245 0
0.0816327 0.0408163 0
0.0816327 0.0204082 0
0.102041 0.979592 0
0.102041 0.959184 0
0.102041 0.938776 0
0.102041 0.918367 0
0.102041 0.897959 0
0.102041 0.877551 0
0.102041 0.857143 0
0.102041 0.836735 0
0.102041 0.816327 0
0.102041 0.795918 0
0.102041 0.77551 0
0.102041 0.755102 0
0.102041 0.734694 0
0.102041 0.714286 0
0.102041 0.693878 0
0.102041 0.673469 0
0.102041 0.653061 0
0.102041 0.632653 0
0.102041 0.612245 0
0.102041 0.591837 0
0.102041 0.571429 0
0.102041 0.55102 0
0.102041 0.530612 0
0.102041 0.510204 0
0.102041 0.489796 0
0.102041 0.469388 0
0.102041 0.44898 0
0.102041 0.428571 0
0.102041 0.408163 0
0.102041 0.387755 0
0.102041 0.367347 0
0.102041 0.346939 0
0.102041 0.326531 0
0.102041 0.306122 0
0.102041 0.285714 0
0.102041 0.265306 0
0.102041 0.244898 0
0.102041 0.22449 0
0.102041 0.204082 0
0.102041 0.183673 0
0.102041 0.163265 0
0.102041 0.142857 0
0.102041 0.122449 0
0.102041 0.102041 0
0.102041 0.0816327 0
0.102041 0.0612245 0
0.102041 0.0408163 0
0.102041 0.0204082 0
0.122449 0.979592 0
0.122449 0.959184 0
0.122449 0.938776 0
0.122449 0.918367 0
0.122449 0.897959 0
0.122449 0.877551 0
0.122449 0.857143 0
0.122449 0.836735 0
0.122449 0.816327 0
0.122449 0.795918 0
0.122449 0.77551 0
0.122449 0.755102 0
0.122449 0.734694 0
0.122449 0.714286 0
0.122449 0.693878 0
0.122449 0.673469 0
0.122449 0.653061 0
0.122449 0.632653 0
0.122449 0.612245 0
0.122449 0.591837 0
0.122449 0.571429 0
0.122449 0.55102 0
0.122449 0.530612 0
0.122449 0.510204 0
0.122449 0.489796 0
0.122449 0.469388 0
0.122449 0.44898 0
0.122449 0.428571 0
0.122449 0.408163 0
0.122449 0.387755 0
0.122449 0.367347 0
0.122449 0.346939 0
0.122449 0.326531 0
0.122449 0.306122 0
0.122449 0.285714 0
0.122449 0.265306 0
0.122449 0.244898 0
0.122449 0.22449 0
0.122449 0.204082 0
0.122449 0.183673 0
0.122449 0.163265 0
0.122449 0.142857 0
0.122449 0.122449 0
0.122449 0.102041 0
0.122449 0.0816327 0
0.122449 0.0612245 0
0.122449 0.0408163 0
0.122449 0.0204082 0
0.142857 0.979592 0
0.142857 0.959184 0
0.142857 0.938776 0
0.142857 0.918367 0
0.142857 0.897959 0
0.142857 0.877551 0
0.142857 0.857143 0
0.142857 0.836735 0
0.142857 0.816327 0
0.142857 0.795918 0
0.142857 0.77551 0
0.142857 0.755102 0
0.142857 0.734694 0
0.142857 0.714286 0
0.142857 0.693878 0
0.142857 0.673469 0
0.142857 0.653061 0
0.142857 0.632653 0
0.142857 0.612245 0
0.142857 0.591837 0
0.142857 0.571429 0
0.142857 0.55102 0
0.142857 0.530612 0
0.142857 0.510204 0
0.142857 0.489796 0
0.142857 0.469388 0
0.142857 0.44898 0
0.142857 0.428571 0
0.142857 0.408163 0
0.142857 0.387755 0
0.142857 0.367347 0
0.142857 0.346939 0
0.142857 0.326531 0
0.142857 0.306122 0
0.142857 0.285714 0
0.142857 0.265306 0
0.142857 0.244898 0
0.142857 0.22449 0
0.142857 0.204082 0
0.142857 0.183673 0
0.142857 0.163265 0
0.142857 0.142857 0
0.142857 0.122449 0
0.142857 0.102041 0
0.142857 0.0816327 0
0.142857 0.0612245 0
0.142857 0.0408163 0
0.142857 0.0204082 0
0.163265 0.979592 0
0.163265 0.959184 0
0.163265 0.938776 0
0.163265 0.918367 0
0.163265 0.897959 0
0.163265 0.877551 0
0.163265 0.857143 0
0.163265 0.836735 0
0.163265 0.816327 0
0.163265 0.795918 0
0.163265 0.77551 0
0.163265 0.755102 0
0.163265 0.734694 0
0.163265 0.714286 0
0.163265 0.693878 0
0.163265 0.673469 0
0.163265 0.653061 0
0.163265 0.632653 0
0.163265 0.612245 0
0.163265 0.591837 0
0.163265 0.571429 0
0.163265 0.55102 0
[...]
CELL_DATA 2401
VECTORS velocity double
0.251903 0.151166 0.0
-0.00320929 0.253856 0.0
-0.0308596 0.195138 0.0
-0.023907 0.141902 0.0
-0.0150961 0.106059 0.0
-0.00922723 0.0818892 0.0
-0.00580326 0.0654253 0.0
-0.00384346 0.0538614 0.0
-0.00269354 0.0454152 0.0
-0.00198767 0.0390159 0.0
-0.00153109 0.0340112 0.0
-0.00122042 0.029991 0.0
-0.000999401 0.026689 0.0
-0.000836203 0.0239254 0.0
-0.000711952 0.0215757 0.0
-0.000614923 0.0195507 0.0
-0.000537517 0.0177851 0.0
-0.00047463 0.0162303 0.0
-0.000422722 0.0148492 0.0
-0.000379281 0.0136132 0.0
-0.00034248 0.0124997 0.0
-0.00031097 0.0114909 0.0
-0.000283737 0.0105722 0.0
-0.000260007 0.00973189 0.0
-0.000239184 0.00896017 0.0
-0.0002208 0.00824886 0.0
-0.000204489 0.00759105 0.0
-0.000189957 0.00698082 0.0
-0.000176967 0.00641307 0.0
-0.000165329 0.00588335 0.0
-0.000154885 0.00538774 0.0
-0.000145507 0.00492277 0.0
-0.000137088 0.00448532 0.0
-0.00012954 0.00407259 0.0
-0.000122785 0.00368203 0.0
-0.00011676 0.00331132 0.0
-0.000111405 0.00295836 0.0
-0.000106666 0.00262122 0.0
-0.000102482 0.0022982 0.0
-9.87799e-05 0.00198785 0.0
-9.54505e-05 0.00168903 0.0
-9.23176e-05 0.00140107 0.0
-8.90711e-05 0.00112408 0.0
-8.51482e-05 0.000859357 0.0
-7.95238e-05 0.000610236 0.0
-7.04455e-05 0.00038341 0.0
-5.52328e-05 0.000190023 0.0
-3.02301e-05 4.92283e-05 0.0
2.49185e-06 -2.46264e-06 0.0
0.328274 0.115571 0.0
-0.00622832 0.231669 0.0
-0.0652094 0.246176 0.0
-0.0613065 0.223638 0.0
-0.0464969 0.192523 0.0
-0.0335382 0.162989 0.0
-0.024225 0.138042 0.0
-0.0178561 0.117808 0.0
-0.0135147 0.101556 0.0
-0.0105075 0.0884518 0.0
-0.00837437 0.0777769 0.0
-0.00682218 0.0689695 0.0
-0.00566461 0.0616051 0.0
-0.00478162 0.0553671 0.0
-0.00409418 0.0500189 0.0
-0.00354905 0.0453828 0.0
-0.00310954 0.0413238 0.0
-0.00274984 0.0377387 0.0
-0.00245143 0.034547 0.0
-0.00220083 0.0316858 0.0
-0.00198804 0.0291051 0.0
-0.00180555 0.0267645 0.0
-0.00164768 0.0246314 0.0
-0.00151003 0.022679 0.0
-0.0013892 0.020885 0.0
-0.00128251 0.0192307 0.0
-0.00118783 0.0177002 0.0
-0.00110348 0.0162799 0.0
-0.00102807 0.014958 0.0
-0.000960507 0.0137244 0.0
-0.000899864 0.0125699 0.0
-0.00084539 0.0114865 0.0
-0.000796455 0.0104671 0.0
-0.000752523 0.00950525 0.0
-0.000713132 0.00859503 0.0
-0.000677872 0.00773118 0.0
-0.000646355 0.00690892 0.0
-0.000618187 0.00612398 0.0
-0.000592922 0.00537264 0.0
-0.00057 0.00465186 0.0
-0.000548636 0.00395946 0.0
-0.000527653 0.00329454 0.0
-0.000505213 0.00265796 0.0
-0.00047839 0.00205329 0.0
-0.000442541 0.00148813 0.0
-0.000390665 0.000975879 0.0
-0.000313206 0.000535925 0.0
-0.000198815 0.000198802 0.0
-4.93881e-05 3.04092e-05 0.0
0.475527 0.0702393 0.0
0.0793654 0.163019 0.0
-0.047968 0.214729 0.0
-0.0756687 0.222563 0.0
-0.0714615 0.209522 0.0
-0.0595444 0.189205 0.0
-0.0476605 0.167843 0.0
-0.0378134 0.148046 0.0
-0.0301522 0.130652 0.0
-0.0243152 0.11571 0.0
-0.0198786 0.10297 0.0
-0.0164844 0.0921043 0.0
-0.0138595 0.0827935 0.0
-0.0118035 0.0747621 0.0
-0.0101714 0.0677815 0.0
-0.00885837 0.0616674 0.0
-0.00778818 0.0562717 0.0
-0.00690511 0.0514763 0.0
-0.00616791 0.0471865 0.0
-0.0055458 0.0433261 0.0
-0.00501557 0.0398333 0.0
-0.00455952 0.0366576 0.0
-0.00416406 0.0337576 0.0
-0.00381862 0.0310987 0.0
-0.00351493 0.028652 0.0
-0.00324645 0.0263931 0.0
-0.00300797 0.024301 0.0
-0.0027953 0.022358 0.0
-0.00260506 0.0205482 0.0
-0.00243447 0.0188581 0.0
-0.00228127 0.0172756 0.0
-0.00214355 0.0157899 0.0
-0.00201974 0.0143914 0.0
-0.00190848 0.0130713 0.0
-0.00180858 0.0118219 0.0
-0.00171896 0.0106361 0.0
-0.00163861 0.0095074 0.0
-0.00156645 0.00843021 0.0
-0.00150125 0.00739964 0.0
-0.00144147 0.00641178 0.0
-0.00138501 0.00546393 0.0
-0.00132881 0.00455509 0.0
-0.00126834 0.00368659 0.0
-0.00119679 0.00286308 0.0
-0.00110411 0.00209395 0.0
-0.000975986 0.00139522 0.0
-0.000793737 0.000788933 0.0
-0.000535523 0.000311151 0.0
-0.000190194 5.51725e-05 0.0
0.572279 0.0426322 0.0
0.159066 0.113662 0.0
-0.0114741 0.171075 0.0
-0.0695829 0.194392 0.0
-0.0813621 0.195855 0.0
-0.0761309 0.186368 0.0
-0.0659192 0.172111 0.0
-0.0553715 0.156554 0.0
-0.0460632 0.141437 0.0
-0.0383393 0.127513 0.0
-0.0320942 0.115022 0.0
-0.0270909 0.103953 0.0
-0.0230836 0.0941879 0.0
-0.0198594 0.0855741 0.0
-0.0172461 0.077956 0.0
-0.0151094 0.0711918 0.0
-0.0133455 0.0651579 0.0
-0.0118752 0.0597492 0.0
-0.0106378 0.0548773 0.0
-0.00958681 0.0504687 0.0
-0.00868631 0.0464619 0.0
-0.00790846 0.0428052 0.0
-0.00723157 0.0394557 0.0
-0.00663857 0.0363768 0.0
-0.00611597 0.0335375 0.0
-0.00565302 0.0309113 0.0
-0.00524109 0.0284755 0.0
-0.00487319 0.0262101 0.0
-0.00454367 0.0240977 0.0
-0.00424786 0.0221231 0.0
-0.00398191 0.0202727 0.0
-0.00374261 0.0185343 0.0
-0.00352726 0.0168969 0.0
-0.00333352 0.0153507 0.0
-0.00315934 0.0138867 0.0
-0.00300283 0.0124968 0.0
-0.00286218 0.0111739 0.0
-0.00273546 0.0099113 0.0
-0.00262049 0.00870367 0.0
-0.00251451 0.00754655 0.0
-0.00241382 0.00643695 0.0
-0.00231321 0.00537372 0.0
-0.00220513 0.00435826 0.0
-0.00207859 0.0033955 0.0
-0.00191777 0.00249533 0.0
-0.0017005 0.00167469 0.0
-0.00139721 0.000956953 0.0
-0.000970473 0.000383026 0.0
-0.000381745 6.95015e-05 0.0
0.631203 0.0258325 0.0
0.223491 0.0788547 0.0
0.0295961 0.131264 0.0
-0.0523697 0.160768 0.0
-0.0800468 0.17133 0.0
-0.08371 0.170433 0.0
-0.0777125 0.163048 0.0
-0.0686156 0.152533 0.0
-0.0592653 0.140913 0.0
-0.0507731 0.129307 0.0
-0.0434662 0.118283 0.0
-0.0373371 0.108092 0.0
-0.0322525 0.0988032 0.0
-0.0280475 0.0903983 0.0
-0.0245643 0.0828138 0.0
-0.021666 0.0759703 0.0
-0.0192395 0.0697863 0.0
-0.0171937 0.0641847 0.0
-0.0154558 0.0590961 0.0
-0.0139682 0.054459 0.0
-0.0126855 0.0502201 0.0
-0.0115717 0.0463333 0.0
-0.0105981 0.0427587 0.0
-0.00974206 0.039462 0.0
-0.00898525 0.0364133 0.0
-0.00831303 0.0335868 0.0
-0.00771353 0.0309598 0.0
-0.00717708 0.0285124 0.0
-0.00669576 0.0262271 0.0
-0.00626304 0.0240881 0.0
-0.00587349 0.0220815 0.0
-0.00552254 0.0201946 0.0
-0.00520633 0.018416 0.0
-0.00492152 0.0167355 0.0
-0.00466511 0.0151435 0.0
-0.00443438 0.0136316 0.0
-0.00422663 0.012192 0.0
-0.00403902 0.010818 0.0
-0.00386831 0.00950384 0.0
-0.00371044 0.00824474 0.0
-0.00356004 0.00703753 0.0
-0.00340964 0.00588089 0.0
-0.00324862 0.0047761 0.0
-0.00306175 0.00372797 0.0
-0.00282721 0.00274646 0.0
-0.00251426 0.00184898 0.0
-0.00208049 0.00106012 0.0
-0.00146821 0.000425073 0.0
-0.000602723 7.69316e-05 0.0
0.670121 0.0157739 0.0
0.275071 0.0551889 0.0
0.0684713 0.100098 0.0
-0.0304983 0.130014 0.0
-0.0719102 0.145245 0.0
-0.0846341 0.150054 0.0
-0.0839296 0.148047 0.0
-0.0775507 0.142043 0.0
-0.0693034 0.133964 0.0
-0.0609677 0.125027 0.0
-0.0533015 0.115958 0.0
-0.0465608 0.107166 0.0
-0.0407664 0.0988592 0.0
-0.035839 0.091129 0.0
-0.0316654 0.0839958 0.0
-0.0281291 0.0774427 0.0
-0.0251243 0.0714338 0.0
-0.0225595 0.0659253 0.0
-0.0203584 0.0608715 0.0
-0.0184583 0.0562284 0.0
-0.0168081 0.0519551 0.0
-0.0153664 0.0480145 0.0
-0.0140998 0.0443731 0.0
-0.0129812 0.0410012 0.0
-0.0119887 0.0378725 0.0
-0.0111042 0.0349634 0.0
-0.0103134 0.0322531 0.0
-0.00960399 0.0297228 0.0
-0.00896623 0.0273559 0.0
-0.00839183 0.0251372 0.0
-0.0078739 0.0230531 0.0
-0.00740664 0.0210912 0.0
-0.00698506 0.0192403 0.0
-0.00660484 0.01749 0.0
-0.00626209 0.0158308 0.0
-0.00595322 0.0142544 0.0
-0.00567465 0.0127528 0.0
-0.00542264 0.0113192 0.0
-0.00519285 0.00994773 0.0
-0.00497994 0.00863356 0.0
-0.00477684 0.00737336 0.0
-0.00457386 0.00616565 0.0
-0.00435729 0.00501153 0.0
-0.00410755 0.00391564 0.0
-0.0037966 0.0028879 0.0
-0.00338434 0.00194616 0.0
-0.00281378 0.00111619 0.0
-0.0020038 0.000446483 0.0
-0.000839571 8.00896e-05 0.0
0.696729 0.00986133 0.0
0.315792 0.0393379 0.0
0.103014 0.0766407 0.0
-0.00769515 0.104382 0.0
-0.0601641 0.121354 0.0
-0.0811002 0.129481 0.0
-0.0858412 0.131235 0.0
-0.0827631 0.128785 0.0
-0.0763168 0.12378 0.0
-0.0687986 0.117366 0.0
-0.0613374 0.110302 0.0
-0.0544399 0.10307 0.0
-0.04829 0.0959597 0.0
-0.0429103 0.0891363 0.0
-0.0382493 0.0826851 0.0
-0.0342264 0.0766412 0.0
-0.0307554 0.0710097 0.0
-0.0277546 0.0657785 0.0
-0.0251513 0.0609262 0.0
-0.0228834 0.0564274 0.0
-0.0208985 0.0522551 0.0
-0.0191529 0.0483828 0.0
-0.0176106 0.044785 0.0
-0.016242 0.0414383 0.0
-0.0150224 0.0383208 0.0
-0.0139319 0.0354125 0.0
-0.0129536 0.0326954 0.0
-0.0120738 0.0301526 0.0
-0.011281 0.0277691 0.0
-0.0105655 0.025531 0.0
-0.00991915 0.0234256 0.0
-0.00933509 0.0214411 0.0
-0.00880736 0.0195668 0.0
-0.00833072 0.0177928 0.0
-0.00790049 0.0161099 0.0
-0.00751224 0.0145099 0.0
-0.0071616 0.0129852 0.0
-0.0068439 0.0115289 0.0
-0.00655379 0.0101352 0.0
-0.00628466 0.00879933 0.0
-0.00602781 0.00751785 0.0
-0.00577134 0.00628921 0.0
-0.00549848 0.00511436 0.0
-0.00518524 0.00399781 0.0
-0.00479705 0.0029495 0.0
-0.00428383 0.00198765 0.0
-0.00357288 0.00113898 0.0
-0.002558 0.000454086 0.0
-0.00108306 8.07088e-05 0.0
0.715328 0.00637565 0.0
0.347712 0.028655 0.0
0.132606 0.0592126 0.0
0.0141357 0.0837787 0.0
-0.0469162 0.100786 0.0
-0.0748691 0.110563 0.0
-0.0847116 0.114735 0.0
-0.0850597 0.114879 0.0
-0.0807562 0.112324 0.0
-0.0744654 0.108073 0.0
-0.0676092 0.102842 0.0
-0.0609102 0.0971217 0.0
-0.0547037 0.0912372 0.0
-0.0491151 0.0853967 0.0
-0.0441609 0.0797279 0.0
-0.0398044 0.0743038 0.0
-0.0359866 0.0691622 0.0
-0.0326424 0.0643178 0.0
-0.0297089 0.0597709 0.0
-0.0271288 0.0555133 0.0
-0.0248522 0.0515316 0.0
-0.022836 0.0478101 0.0
-0.0210438 0.0443318 0.0
-0.019445 0.0410798 0.0
-0.018014 0.0380375 0.0
-0.0167293 0.0351891 0.0
-0.015573 0.0325194 0.0
-0.0145299 0.0300145 0.0
-0.0135876 0.0276612 0.0
-0.0127352 0.025447 0.0
-0.0119637 0.0233607 0.0
-0.0112653 0.0213914 0.0
-0.0106332 0.0195293 0.0
-0.0100615 0.0177651 0.0
-0.00954476 0.0160901 0.0
-0.00907782 0.0144964 0.0
-0.00865557 0.0129767 0.0
-0.00827251 0.0115245 0.0
-0.00792233 0.0101341 0.0
-0.0075972 0.00880084 0.0
-0.00728686 0.00752125 0.0
-0.00697725 0.00629377 0.0
-0.00664855 0.00511929 0.0
-0.00627229 0.00400226 0.0
-0.00580717 0.00295264 0.0
-0.00519274 0.0019889 0.0
-0.00434003 0.00113833 0.0
-0.00311719 0.00045243 0.0
-0.00132726 7.98062e-05 0.0
0.728723 0.00429057 0.0
0.372829 0.0213671 0.0
0.157543 0.0463103 0.0
0.0338983 0.0676756 0.0
-0.0335005 0.0836573 0.0
-0.0672191 0.0939804 0.0
-0.0815902 0.0995505 0.0
-0.085218 0.101464 0.0
-0.0831518 0.100749 0.0
-0.0782994 0.0982404 0.0
-0.0723007 0.0945726 0.0
-0.0660521 0.0902082 0.0
-0.0600191 0.0854743 0.0
-0.054422 0.080596 0.0
-0.0493434 0.0757242 0.0
-0.0447925 0.0709567 0.0
-0.0407414 0.0663543 0.0
-0.0371456 0.0619524 0.0
-0.0339555 0.0577689 0.0
-0.0311223 0.0538101 0.0
-0.0286012 0.0500751 0.0
-0.0263522 0.0465579 0.0
-0.0243404 0.0432496 0.0
-0.0225358 0.0401398 0.0
-0.0209128 0.037217 0.0
-0.0194496 0.0344697 0.0
-0.0181279 0.0318862 0.0
-0.0169318 0.0294552 0.0
-0.0158482 0.0271656 0.0
-0.0148657 0.025007 0.0
-0.0139745 0.0229694 0.0
-0.0131662 0.0210431 0.0
-0.0124335 0.0192194 0.0
-0.0117698 0.0174896 0.0
-0.011169 0.0158458 0.0
-0.0106254 0.0142805 0.0
-0.0101332 0.012787 0.0
-0.0096863 0.011359 0.0
-0.00927734 0.00999093 0.0
-0.00889741 0.00867841 0.0
-0.00853473 0.00741814 0.0
-0.00817315 0.00620853 0.0
-0.00778981 0.00505048 0.0
-0.00735174 0.0039484 0.0
-0.0068108 0.00291228 0.0
-0.00609604 0.00196062 0.0
-0.00510209 0.00112086 0.0
-0.0036717 0.000444381 0.0
-0.00156826 7.79378e-05 0.0
0.738673 0.00301077 0.0
0.392771 0.0162928 0.0
0.178468 0.0366721 0.0
0.0514691 0.0550559 0.0
-0.0206559 0.0696128 0.0
-0.059019 0.0798036 0.0
-0.0772772 0.0860474 0.0
-0.0838957 0.0890836 0.0
-0.0840037 0.0896826 0.0
-0.0806583 0.088515 0.0
-0.0756526 0.0861201 0.0
-0.0700159 0.0829125 0.0
-0.0643207 0.0792006 0.0
-0.0588682 0.0752086 0.0
-0.053802 0.071096 0.0
-0.0491753 0.0669736 0.0
-0.0449914 0.0629169 0.0
-0.0412281 0.0589755 0.0
-0.0378511 0.0551805 0.0
-0.0348224 0.0515501 0.0
-0.0321042 0.0480932 0.0
-0.0296612 0.0448123 0.0
-0.0274616 0.0417059 0.0
-0.0254773 0.0387693 0.0
-0.0236838 0.035996 0.0
-0.0220598 0.0333784 0.0
-0.0205872 0.0309082 0.0
-0.0192503 0.0285768 0.0
-0.0180355 0.0263755 0.0
-0.0169312 0.0242955 0.0
-0.0159273 0.0223284 0.0
-0.015015 0.0204659 0.0
-0.0141866 0.0187001 0.0
-0.0134349 0.0170234 0.0
-0.0127536 0.0154285 0.0
-0.0121364 0.0139085 0.0
-0.011577 0.0124572 0.0
-0.0110684 0.0110686 0.0
-0.0106027 0.00973757 0.0
-0.0101698 0.00845992 0.0
-0.0097566 0.00723248 0.0
-0.00934476 0.0060538 0.0
-0.00890849 0.00492476 0.0
-0.00841034 0.0038498 0.0
-0.00779536 0.00283882 0.0
-0.00698213 0.00191015 0.0
-0.00584917 0.00109096 0.0
-0.00421445 0.000431719 0.0
-0.00180329 7.54055e-05 0.0
0.746265 0.00219858 0.0
0.40875 0.0126796 0.0
0.195988 0.0293923 0.0
0.0668641 0.0451247 0.0
-0.00875832 0.0581493 0.0
-0.0508186 0.0678258 0.0
-0.0723454 0.0742611 0.0
-0.0816089 0.0779426 0.0
-0.0837397 0.0794328 0.0
-0.081876 0.0792569 0.0
-0.0779132 0.0778613 0.0
-0.0729786 0.0756047 0.0
-0.0677278 0.0727662 0.0
-0.0625299 0.0695577 0.0
-0.0575806 0.0661366 0.0
-0.052973 0.0626184 0.0
-0.0487404 0.0590859 0.0
-0.0448825 0.0555976 0.0
-0.0413811 0.0521937 0.0
-0.0382097 0.0489008 0.0
-0.035339 0.0457357 0.0
-0.0327394 0.0427077 0.0
-0.0303833 0.0398213 0.0
-0.0282455 0.0370768 0.0
-0.0263034 0.0344722 0.0
-0.0245372 0.0320035 0.0
-0.0229292 0.0296655 0.0
-0.0214644 0.027452 0.0
-0.0201293 0.0253565 0.0
-0.0189126 0.0233721 0.0
-0.0178039 0.0214919 0.0
-0.0167943 0.0197087 0.0
-0.0158758 0.0180158 0.0
-0.0150412 0.0164065 0.0
-0.0142837 0.0148741 0.0
-0.0135966 0.0134125 0.0
-0.0129731 0.0120159 0.0
-0.0124057 0.0106788 0.0
-0.0118858 0.00939647 0.0
-0.0114023 0.00816487 0.0
-0.0109407 0.0069811 0.0
-0.0104807 0.0058438 0.0
-0.00999362 0.00475395 0.0
-0.00943754 0.00371591 0.0
-0.00875087 0.00273943 0.0
-0.00784195 0.00184246 0.0
-0.00657365 0.00105153 0.0
-0.00474012 0.000415554 0.0
-0.00203035 7.23747e-05 0.0
0.752192 0.00166322 0.0
0.421678 0.0100482 0.0
0.21067 0.0238278 0.0
0.0802516 0.0372627 0.0
0.00206926 0.0487715 0.0
-0.0429343 0.0577483 0.0
-0.0671825 0.0640709 0.0
-0.078743 0.0680599 0.0
-0.0827046 0.0701161 0.0
-0.0822414 0.0706447 0.0
-0.0793135 0.0700079 0.0
-0.0751173 0.0685097 0.0
-0.0703723 0.0663954 0.0
-0.0655012 0.0638581 0.0
-0.0607437 0.0610471 0.0
-0.0562276 0.0580758 0.0
-0.0520133 0.0550293 0.0
-0.048121 0.0519704 0.0
-0.0445484 0.0489446 0.0
-0.0412807 0.0459844 0.0
-0.0382974 0.043112 0.0
-0.0355756 0.0403421 0.0
-0.0330925 0.0376837 0.0
-0.0308262 0.0351415 0.0
-0.0287569 0.032717 0.0
-0.0268664 0.0304093 0.0
-0.0251386 0.0282159 0.0
-0.0235591 0.026133 0.0
-0.0221152 0.024156 0.0
-0.0207956 0.0222797 0.0
-0.0195905 0.0204985 0.0
-0.0184908 0.0188066 0.0
-0.0174887 0.0171981 0.0
-0.0165765 0.0156673 0.0
-0.0157474 0.0142082 0.0
-0.0149945 0.0128155 0.0
-0.0143105 0.0114836 0.0
-0.0136877 0.0102078 0.0
-0.0131165 0.00898357 0.0
-0.0125851 0.00780717 0.0
-0.0120775 0.00667595 0.0
-0.0115718 0.00558868 0.0
-0.0110362 0.00454639 0.0
-0.0104247 0.00355338 0.0
-0.00966922 0.00261911 0.0
-0.00866819 0.00176094 0.0
-0.00726949 0.00100447 0.0
-0.00524452 0.000396589 0.0
-0.00224785 6.89392e-05 0.0
0.75691 0.00129639 0.0
0.43224 0.00809121 0.0
0.223008 0.0195253 0.0
0.0918447 0.0310007 0.0
0.0117606 0.0411103 0.0
-0.0355507 0.0492825 0.0
-0.0620468 0.0553054 0.0
-0.0755785 0.0593656 0.0
-0.0811673 0.0617428 0.0
-0.0819938 0.062746 0.0
-0.0800556 0.0626656 0.0
-0.0765967 0.0617548 0.0
-0.0723837 0.0602252 0.0
-0.0678814 0.0582485 0.0
-0.0633652 0.055962 0.0
-0.0589925 0.0534731 0.0
-0.0548471 0.0508652 0.0
-0.050968 0.0482021 0.0
-0.0473677 0.0455318 0.0
-0.0440428 0.04289 0.0
-0.0409815 0.0403026 0.0
-0.0381678 0.0377879 0.0
-0.0355839 0.0353584 0.0
-0.0332122 0.033022 0.0
-0.0310356 0.030783 0.0
-0.0290382 0.0286432 0.0
-0.0272054 0.0266023 0.0
-0.0255241 0.0246585 0.0
-0.0239825 0.0228089 0.0
-0.0225699 0.0210497 0.0
-0.0212768 0.0193767 0.0
-0.0200945 0.0177852 0.0
-0.019015 0.0162701 0.0
-0.018031 0.0148267 0.0
-0.0171353 0.0134496 0.0
-0.016321 0.0121341 0.0
-0.0155806 0.0108754 0.0
-0.0149057 0.00966883 0.0
-0.0142863 0.0085105 0.0
-0.0137098 0.00739696 0.0
-0.0131591 0.00632574 0.0
-0.0126102 0.00529578 0.0
-0.0120288 0.00430814 0.0
-0.0113647 0.00336697 0.0
-0.0105437 0.00248137 0.0
-0.00945484 0.00166795 0.0
-0.00793172 0.000951077 0.0
-0.00572425 0.000375282 0.0
-0.00245446 6.51551e-05 0.0
0.76073 0.00103508 0.0
0.440949 0.00660465 0.0
0.233418 0.0161527 0.0
0.101873 0.0259649 0.0
0.0203671 0.0348158 0.0
-0.0287612 0.0421633 0.0
-0.0571075 0.0477772 0.0
-0.0723172 0.051747 0.0
-0.079334 0.0542644 0.0
-0.0813264 0.0555626 0.0
-0.0803108 0.0558726 0.0
-0.0775627 0.0554027 0.0
-0.0738824 0.054333 0.0
-0.0697673 0.0528137 0.0
-0.0655213 0.0509682 0.0
-0.061326 0.0488957 0.0
-0.0572855 0.0466754 0.0
-0.0534553 0.0443695 0.0
-0.0498612 0.0420263 0.0
-0.0465105 0.0396827 0.0
-0.0433999 0.0373667 0.0
-0.04052 0.0350989 0.0
-0.0378585 0.0328939 0.0
-0.0354017 0.0307621 0.0
-0.0331357 0.0287099 0.0
-0.0310471 0.0267411 0.0
-0.0291232 0.0248571 0.0
-0.0273524 0.0230577 0.0
-0.0257239 0.0213416 0.0
-0.0242277 0.0197061 0.0
-0.022855 0.0181481 0.0
-0.0215973 0.0166639 0.0
-0.020447 0.0152494 0.0
-0.0193969 0.0139004 0.0
-0.0184398 0.0126124 0.0
-0.0175686 0.0113811 0.0
-0.0167757 0.0102023 0.0
-0.0160524 0.0090718 0.0
-0.0153882 0.00798602 0.0
-0.0147697 0.00694183 0.0
-0.0141786 0.00593699 0.0
-0.0135893 0.00497059 0.0
-0.0129649 0.00404366 0.0
-0.0122514 0.00316018 0.0
-0.0113686 0.00232879 0.0
-0.0101968 0.00156516 0.0
-0.00855621 0.00089227 0.0
-0.00617644 0.000351949 0.0
-0.00264908 6.10593e-05 0.0
0.763864 0.000841899 0.0
0.448191 0.00545177 0.0
0.242235 0.0134705 0.0
0.110542 0.021871 0.0
0.0279721 0.0295993 0.0
-0.0225999 0.0361522 0.0
-0.0524686 0.0413019 0.0
-0.0691002 0.0450756 0.0
-0.0773594 0.0476027 0.0
-0.0803919 0.0490584 0.0
-0.0802206 0.0496252 0.0
-0.0781405 0.0494738 0.0
-0.0749761 0.0487556 0.0
-0.0712488 0.0476009 0.0
-0.0672854 0.0461185 0.0
-0.0632869 0.0443987 0.0
-0.0593745 0.0425148 0.0
-0.0556181 0.0405257 0.0
-0.0520552 0.0384783 0.0
-0.0487029 0.0364096 0.0
-0.0455657 0.0343479 0.0
-0.0426408 0.0323149 0.0
-0.0399209 0.0303268 0.0
-0.0373964 0.0283951 0.0
-0.0350567 0.0265278 0.0
-0.032891 0.0247302 0.0
-0.0308887 0.0230049 0.0
-0.0290396 0.021353 0.0
-0.0273341 0.0197742 0.0
-0.0257633 0.018267 0.0
-0.0243189 0.0168292 0.0
-0.0229931 0.0154577 0.0
-0.0217784 0.0141494 0.0
-0.0206679 0.0129006 0.0
-0.0196545 0.0117075 0.0
-0.018731 0.0105663 0.0
-0.0178898 0.00947316 0.0
-0.0171218 0.00842448 0.0
-0.0164162 0.00741693 0.0
-0.0157587 0.00644771 0.0
-0.0151302 0.00551478 0.0
-0.0145034 0.00461734 0.0
-0.013839 0.00375639 0.0
-0.0130795 0.00293568 0.0
-0.0121391 0.00216329 0.0
-0.0108898 0.00145384 0.0
-0.00913937 0.000828716 0.0
-0.0065986 0.000326822 0.0
-0.00283069 5.66794e-05 0.0
0.766464 0.000694274 0.0
0.454255 0.00454024 0.0
0.249727 0.0113071 0.0
0.118031 0.0185073 0.0
0.0346615 0.0252399 0.0
-0.0170639 0.0310469 0.0
-0.0481885 0.0357114 0.0
-0.0660231 0.0392232 0.0
-0.0753571 0.041668 0.0
-0.0793089 0.0431773 0.0
-0.0798997 0.0438953 0.0
-0.0784358 0.0439613 0.0
-0.0757583 0.0435026 0.0
-0.0724068 0.0426307 0.0
-0.0687254 0.0414413 0.0
-0.0649313 0.0400148 0.0
-0.0611598 0.038418 0.0
-0.0574927 0.0367059 0.0
-0.053978 0.0349226 0.0
-0.0506415 0.0331038 0.0
-0.047495 0.0312775 0.0
-0.0445414 0.0294654 0.0
-0.0417786 0.0276841 0.0
-0.0392007 0.025946 0.0
-0.0368007 0.0242598 0.0
-0.03457 0.0226316 0.0
-0.0325003 0.021065 0.0
-0.030583 0.019562 0.0
-0.0288098 0.018123 0.0
-0.0271727 0.0167472 0.0
-0.0256642 0.0154332 0.0
-0.024277 0.0141787 0.0
-0.0230041 0.0129811 0.0
-0.0218387 0.0118372 0.0
-0.020774 0.0107438 0.0
-0.0198029 0.00969754 0.0
-0.0189174 0.00869508 0.0
-0.0181085 0.00773315 0.0
-0.0173649 0.00680876 0.0
-0.0166718 0.00591938 0.0
-0.0160088 0.00506318 0.0
-0.0153475 0.00423943 0.0
-0.0146464 0.00344908 0.0
-0.0138444 0.00269559 0.0
-0.0128508 0.0019864 0.0
-0.01153 0.00133496 0.0
-0.00967806 0.000760943 0.0
-0.00698854 0.000300084 0.0
-0.00299842 5.20379e-05 0.0
0.768636 0.000578155 0.0
0.45936 0.00380652 0.0
0.256111 0.00953817 0.0