# vtk DataFile Version 3.0
Malha 2D com triângulos e temperatura
ASCII
DATASET UNSTRUCTURED_GRID

POINTS 2500 double
0 0 0
1 0 0
1 1 0
0 1 0
0.0204082 0 0
0.0408163 0 0
0.0612245 0 0
0.0816327 0 0
0.102041 0 0
0.122449 0 0
0.142857 0 0
0.163265 0 0
0.183673 0 0
0.204082 0 0
0.22449 0 0
0.244898 0 0
0.265306 0 0
0.285714 0 0
0.306122 0 0
0.326531 0 0
0.346939 0 0
0.367347 0 0
0.387755 0 0
0.408163 0 0
0.428571 0 0
0.44898 0 0
0.469388 0 0
0.489796 0 0
0.510204 0 0
0.530612 0 0
0.55102 0 0
0.571429 0 0
0.591837 0 0
0.612245 0 0
0.632653 0 0
0.653061 0 0
0.673469 0 0
0.693878 0 0
0.714286 0 0
0.734694 0 0
0.755102 0 0
0.77551 0 0
0.795918 0 0
0.816327 0 0
0.836735 0 0
0.857143 0 0
0.877551 0 0
0.897959 0 0
0.918367 0 0
0.938776 0 0
0.959184 0 0
0.979592 0 0
1 0.0204082 0
1 0.0408163 0
1 0.0612245 0
1 0.0816327 0
1 0.102041 0
1 0.122449 0
1 0.142857 0
1 0.163265 0
1 0.183673 0
1 0.204082 0
1 0.22449 0
1 0.244898 0
1 0.265306 0
1 0.285714 0
1 0.306122 0
1 0.326531 0
1 0.346939 0
1 0.367347 0
1 0.387755 0
1 0.408163 0
1 0.428571 0
1 0.44898 0
1 0.469388 0
1 0.489796 0
1 0.510204 0
1 0.530612 0
1 0.55102 0
1 0.571429 0
1 0.591837 0
1 0.612245 0
1 0.632653 0
1 0.653061 0
1 0.673469 0
1 0.693878 0
1 0.714286 0
1 0.734694 0
1 0.755102 0
1 0.77551 0
1 0.795918 0
1 0.816327 0
1 0.836735 0
1 0.857143 0
1 0.877551 0
1 0.897959 0
1 0.918367 0
1 0.938776 0
1 0.959184 0
1 0.979592 0
0.979592 1 0
0.959184 1 0
0.938776 1 0
0.918367 1 0
0.897959 1 0
0.877551 1 0
0.857143 1 0
0.836735 1 0
0.816327 1 0
0.795918 1 0
0.77551 1 0
0.755102 1 0
0.734694 1 0
0.714286 1 0
0.693878 1 0
0.673469 1 0
0.653061 1 0
0.632653 1 0
0.612245 1 0
0.591837 1 0
0.571429 1 0
0.55102 1 0
0.530612 1 0
0.510204 1 0
0.489796 1 0
0.469388 1 0
0.44898 1 0
0.428571 1 0
0.408163 1 0
0.387755 1 0
0.367347 1 0
0.346939 1 0
0.326531 1 0
0.306122 1 0
0.285714 1 0
0.265306 1 0
0.244898 1 0
0.22449 1 0
0.204082 1 0
0.183673 1 0
0.163265 1 0
0.142857 1 0
0.122449 1 0
0.102041 1 0
0.0816327 1 0
0.0612245 1 0
0.0408163 1 0
0.0204082 1 0
0 0.979592 0
0 0.959184 0
0 0.938776 0
0 0.918367 0
0 0.897959 0
0 0.877551 0
0 0.857143 0
0 0.836735 0
0 0.816327 0
0 0.795918 0
0 0.77551 0
0 0.755102 0
0 0.734694 0
0 0.714286 0
0 0.693878 0
0 0.673469 0
0 0.653061 0
0 0.632653 0
0 0.612245 0
0 0.591837 0
0 0.571429 0
0 0.55102 0
0 0.530612 0
0 0.510204 0
0 0.489796 0
0 0.469388 0
0 0.44898 0
0 0.428571 0
0 0.408163 0
0 0.387755 0
0 0.367347 0
0 0.346939 0
0 0.326531 0
0 0.306122 0
0 0.285714 0
0 0.265306 0
0 0.244898 0
0 0.22449 0
0 0.204082 0
0 0.183673 0
0 0.163265 0
0 0.142857 0
0 0.122449 0
0 0.102041 0
0 0.0816327 0
0 0.0612245 0
0 0.0408163 0
0 0.0204082 0
0.0204082 0.979592 0
0.0204082 0.959184 0
0.0204082 0.938776 0
0.0204082 0.918367 0
0.0204082 0.897959 0
0.0204082 0.877551 0
0.0204082 0.857143 0
0.0204082 0.836735 0
0.0204082 0.816327 0
0.0204082 0.795918 0
0.0204082 0.77551 0
0.0204082 0.755102 0
0.0204082 0.734694 0
0.0204082 0.714286 0
0.0204082 0.693878 0
0.0204082 0.673469 0
0.0204082 0.653061 0
0.0204082 0.632653 0
0.0204082 0.612245 0
0.0204082 0.591837 0
0.0204082 0.571429 0
0.0204082 0.55102 0
0.0204082 0.530612 0
0.0204082 0.510204 0
0.0204082 0.489796 0
0.0204082 0.469388 0
0.0204082 0.44898 0
0.0204082 0.428571 0
0.0204082 0.408163 0
0.0204082 0.387755 0
0.0204082 0.367347 0
0.0204082 0.346939 0
0.0204082 0.326531 0
0.0204082 0.306122 0
0.0204082 0.285714 0
0.0204082 0.265306 0
0.0204082 0.244898 0
0.0204082 0.22449 0
0.0204082 0.204082 0
0.0204082 0.183673 0
0.0204082 0.163265 0
0.0204082 0.142857 0
0.0204082 0.122449 0
0.0204082 0.102041 0
0.0204082 0.0816327 0
0.0204082 0.0612245 0
0.0204082 0.0408163 0
0.0204082 0.0204082 0
0.0408163 0.979592 0
0.0408163 0.959184 0
0.0408163 0.938776 0
0.0408163 0.918367 0
0.0408163 0.897959 0
0.0408163 0.877551 0
0.0408163 0.857143 0
0.0408163 0.836735 0
0.0408163 0.816327 0
0.0408163 0.795918 0
0.0408163 0.77551 0
0.0408163 0.755102 0
0.0408163 0.734694 0
0.0408163 0.714286 0
0.0408163 0.693878 0
0.0408163 0.673469 0
0.0408163 0.653061 0
0.0408163 0.632653 0
0.0408163 0.612245 0
0.0408163 0.591837 0
0.0408163 0.571429 0
0.0408163 0.55102 0
0.0408163 0.530612 0
0.0408163 0.510204 0
0.0408163 0.489796 0
0.0408163 0.469388 0
0.0408163 0.44898 0
0.0408163 0.428571 0
0.0408163 0.408163 0
0.0408163 0.387755 0
0.0408163 0.367347 0
0.0408163 0.346939 0
0.0408163 0.326531 0
0.0408163 0.306122 0
0.0408163 0.285714 0
0.0408163 0.265306 0
0.0408163 0.244898 0
0.0408163 0.22449 0
0.0408163 0.204082 0
0.0408163 0.183673 0
0.0408163 0.163265 0
0.0408163 0.142857 0
0.0408163 0.122449 0
0.0408163 0.102041 0
0.0408163 0.0816327 0
0.0408163 0.0612245 0
0.0408163 0.0408163 0
0.0408163 0.0204082 0
0.0612245 0.979592 0
0.0612245 0.959184 0
0.0612245 0.938776 0
0.0612245 0.918367 0
0.0612245 0.897959 0
0.0612245 0.877551 0
0.0612245 0.857143 0
0.0612245 0.836735 0
0.0612245 0.816327 0
0.0612245 0.795918 0
0.0612245 0.77551 0
0.0612245 0.755102 0
0.0612245 0.734694 0
0.0612245 0.714286 0
0.0612245 0.693878 0
0.0612245 0.673469 0
0.0612245 0.653061 0
0.0612245 0.632653 0
0.0612245 0.612245 0
0.0612245 0.591837 0
0.0612245 0.571429 0
0.0612245 0.55102 0
0.0612245 0.530612 0
0.0612245 0.510204 0
0.0612245 0.489796 0
0.0612245 0.469388 0
0.0612245 0.44898 0
0.0612245 0.428571 0
0.0612245 0.408163 0
0.0612245 0.387755 0
0.0612245 0.367347 0
0.0612245 0.346939 0
0.0612245 0.326531 0
0.0612245 0.306122 0
0.0612245 0.285714 0
0.0612245 0.265306 0
0.0612245 0.244898 0
0.0612245 0.22449 0
0.0612245 0.204082 0
0.0612245 0.183673 0
0.0612245 0.163265 0
0.0612245 0.142857 0
0.0612245 0.122449 0
0.0612245 0.102041 0
0.0612245 0.0816327 0
0.0612245 0.0612245 0
0.0612245 0.0408163 0
0.0612245 0.0204082 0
0.0816327 0.979592 0
0.0816327 0.959184 0
0.0816327 0.938776 0
0.0816327 0.918367 0
0.0816327 0.897959 0
0.0816327 0.877551 0
0.0816327 0.857143 0
0.0816327 0.836735 0
0.0816327 0.816327 0
0.0816327 0.795918 0
0.0816327 0.77551 0
0.0816327 0.755102 0
0.0816327 0.734694 0
0.0816327 0.714286 0
0.0816327 0.693878 0
0.0816327 0.673469 0
0.0816327 0.653061 0
0.0816327 0.632653 0
0.0816327 0.612245 0
0.0816327 0.591837 0
0.0816327 0.571429 0
0.0816327 0.55102 0
0.0816327 0.530612 0
0.0816327 0.510204 0
0.0816327 0.489796 0
0.0816327 0.469388 0
0.0816327 0.44898 0
0.0816327 0.428571 0
0.0816327 0.408163 0
0.0816327 0.387755 0
0.0816327 0.367347 0
0.0816327 0.346939 0
0.0816327 0.326531 0
0.0816327 0.306122 0
0.0816327 0.285714 0
0.0816327 0.265306 0
0.0816327 0.244898 0
0.0816327 0.22449 0
0.0816327 0.204082 0
0.0816327 0.183673 0
0.0816327 0.163265 0
0.0816327 0.142857 0
0.0816327 0.122449 0
0.0816327 0.102041 0
0.0816327 0.0816327 0
0.0816327 0.0612245 0
0.0816327 0.0408163 0
0.0816327 0.0204082 0
0.102041 0.979592 0
0.102041 0.959184 0
0.102041 0.938776 0
0.102041 0.918367 0
0.102041 0.897959 0
0.102041 0.877551 0
0.102041 0.857143 0
0.102041 0.836735 0
0.102041 0.816327 0
0.102041 0.795918 0
0.102041 0.77551 0
0.102041 0.755102 0
0.102041 0.734694 0
0.102041 0.714286 0
0.102041 0.693878 0
0.102041 0.673469 0
0.102041 0.653061 0
0.102041 0.632653 0
0.102041 0.612245 0
0.102041 0.591837 0
0.102041 0.571429 0
0.102041 0.55102 0
0.102041 0.530612 0
0.102041 0.510204 0
0.102041 0.489796 0
0.102041 0.469388 0
0.102041 0.44898 0
0.102041 0.428571 0
0.102041 0.408163 0
0.102041 0.387755 0
0.102041 0.367347 0
0.102041 0.346939 0
0.102041 0.326531 0
0.102041 0.306122 0
0.102041 0.285714 0
0.102041 0.265306 0
0.102041 0.244898 0
0.102041 0.22449 0
0.102041 0.204082 0
0.102041 0.183673 0
0.102041 0.163265 0
0.102041 0.142857 0
0.102041 0.122449 0
0.102041 0.102041 0
0.102041 0.0816327 0
0.102041 0.0612245 0
0.102041 0.0408163 0
0.102041 0.0204082 0
0.122449 0.979592 0
0.122449 0.959184 0
0.122449 0.938776 0
0.122449 0.918367 0
0.122449 0.897959 0
0.122449 0.877551 0
0.122449 0.857143 0
0.122449 0.836735 0
0.122449 0.816327 0
0.122449 0.795918 0
0.122449 0.77551 0
0.122449 0.755102 0
0.122449 0.734694 0
0.122449 0.714286 0
0.122449 0.693878 0
0.122449 0.673469 0
0.122449 0.653061 0
0.122449 0.632653 0
0.122449 0.612245 0
0.122449 0.591837 0
0.122449 0.571429 0
0.122449 0.55102 0
0.122449 0.530612 0
0.122449 0.510204 0
0.122449 0.489796 0
0.122449 0.469388 0
0.122449 0.44898 0
0.122449 0.428571 0
0.122449 0.408163 0
0.122449 0.387755 0
0.122449 0.367347 0
0.122449 0.346939 0
0.122449 0.326531 0
0.122449 0.306122 0
0.122449 0.285714 0
0.122449 0.265306 0
0.122449 0.244898 0
0.122449 0.22449 0
0.122449 0.204082 0
0.122449 0.183673 0
0.122449 0.163265 0
0.122449 0.142857 0
0.122449 0.122449 0
0.122449 0.102041 0
0.122449 0.0816327 0
0.122449 0.0612245 0
0.122449 0.0408163 0
0.122449 0.0204082 0
0.142857 0.979592 0
0.142857 0.959184 0
0.142857 0.938776 0
0.142857 0.918367 0
0.142857 0.897959 0
0.142857 0.877551 0
0.142857 0.857143 0
0.142857 0.836735 0
0.142857 0.816327 0
0.142857 0.795918 0
0.142857 0.77551 0
0.142857 0.755102 0
0.142857 0.734694 0
0.142857 0.714286 0
0.142857 0.693878 0
0.142857 0.673469 0
0.142857 0.653061 0
0.142857 0.632653 0
0.142857 0.612245 0
0.142857 0.591837 0
0.142857 0.571429 0
0.142857 0.55102 0
0.142857 0.530612 0
0.142857 0.510204 0
0.142857 0.489796 0
0.142857 0.469388 0
0.142857 0.44898 0
0.142857 0.428571 0
0.142857 0.408163 0
0.142857 0.387755 0
0.142857 0.367347 0
0.142857 0.346939 0
0.142857 0.326531 0
0.142857 0.306122 0
0.142857 0.285714 0
0.142857 0.265306 0
0.142857 0.244898 0
0.142857 0.22449 0
0.142857 0.204082 0
0.142857 0.183673 0
0.142857 0.163265 0
0.142857 0.142857 0
0.142857 0.122449 0
0.142857 0.102041 0
0.142857 0.0816327 0
0.142857 0.0612245 0
0.142857 0.0408163 0
0.142857 0.0204082 0
0.163265 0.979592 0
0.163265 0.959184 0
0.163265 0.938776 0
0.163265 0.918367 0
0.163265 0.897959 0
0.163265 0.877551 0
0.163265 0.857143 0
0.163265 0.836735 0
0.163265 0.816327 0
0.163265 0.795918 0
0.163265 0.77551 0
0.163265 0.755102 0
0.163265 0.734694 0
0.163265 0.714286 0
0.163265 0.693878 0
0.163265 0.673469 0
0.163265 0.653061 0
0.163265 0.632653 0
0.163265 0.612245 0
0.163265 0.591837 0
0.163265 0.571429 0
0.163265 0.55102 0
[...]
CELL_DATA 2401
VECTORS velocity double
0.257583 0.157302 0.0
-0.00261888 0.264452 0.0
-0.0322548 0.205497 0.0
-0.0253605 0.150631 0.0
-0.0160584 0.113111 0.0
-0.0097105 0.0877562 0.0
-0.00594081 0.0706666 0.0
-0.00375925 0.0589411 0.0
-0.00247798 0.0506748 0.0
-0.0017015 0.0446851 0.0
-0.00121412 0.0402277 0.0
-0.000898637 0.0368207 0.0
-0.000689823 0.034143 0.0
-0.00054991 0.0319742 0.0
-0.000456013 0.0301598 0.0
-0.000393627 0.0285899 0.0
-0.000353173 0.0271851 0.0
-0.000328093 0.0258883 0.0
-0.000313757 0.0246584 0.0
-0.000306809 0.0234663 0.0
-0.000304762 0.0222918 0.0
-0.000305744 0.0211219 0.0
-0.000308331 0.0199488 0.0
-0.000311439 0.0187689 0.0
-0.000314246 0.0175817 0.0
-0.000316141 0.0163893 0.0
-0.000316687 0.0151955 0.0
-0.000315587 0.0140053 0.0
-0.00031266 0.0128246 0.0
-0.000307822 0.0116599 0.0
-0.00030106 0.0105176 0.0
-0.000292421 0.00940441 0.0
-0.00028199 0.0083267 0.0
-0.000269875 0.0072906 0.0
-0.000256196 0.00630185 0.0
-0.000241067 0.00536585 0.0
-0.000224588 0.00448763 0.0
-0.00020683 0.00367192 0.0
-0.000187825 0.00292322 0.0
-0.000167556 0.00224591 0.0
-0.000145942 0.00164433 0.0
-0.00012283 0.00112295 0.0
-9.80027e-05 0.000686385 0.0
-7.12188e-05 0.000339357 0.0
-4.23773e-05 8.63686e-05 0.0
-1.20005e-05 -6.93167e-05 0.0
1.75195e-05 -0.000127961 0.0
3.93452e-05 -0.000101861 0.0
3.53451e-05 -3.51707e-05 0.0
0.340783 0.122977 0.0
-0.000616232 0.24952 0.0
-0.0651898 0.271762 0.0
-0.0632364 0.252303 0.0
-0.0485314 0.22179 0.0
-0.0349994 0.191907 0.0
-0.0249693 0.166448 0.0
-0.0179599 0.145914 0.0
-0.0131264 0.129693 0.0
-0.00978219 0.116934 0.0
-0.00744938 0.106843 0.0
-0.00581016 0.0987625 0.0
-0.00465412 0.0921737 0.0
-0.00383998 0.0866785 0.0
-0.00327096 0.0819736 0.0
-0.00287923 0.0778294 0.0
-0.00261627 0.0740733 0.0
-0.00244663 0.0705765 0.0
-0.00234399 0.0672442 0.0
-0.00228848 0.0640079 0.0
-0.00226489 0.0608195 0.0
-0.00226152 0.0576475 0.0
-0.00226928 0.0544728 0.0
-0.00228117 0.0512865 0.0
-0.0022918 0.0480876 0.0
-0.00229713 0.0448806 0.0
-0.00229423 0.0416749 0.0
-0.00228103 0.0384829 0.0
-0.00225625 0.0353193 0.0
-0.00221919 0.0321998 0.0
-0.00216963 0.0291411 0.0
-0.00210773 0.0261597 0.0
-0.00203391 0.0232719 0.0
-0.00194874 0.0204933 0.0
-0.0018529 0.0178387 0.0
-0.00174705 0.0153223 0.0
-0.00163183 0.0129571 0.0
-0.00150773 0.0107555 0.0
-0.00137512 0.00872927 0.0
-0.00123418 0.00688965 0.0
-0.00108492 0.00524747 0.0
-0.00092726 0.00381317 0.0
-0.000761171 0.00259666 0.0
-0.000587126 0.00160673 0.0
-0.000406996 0.000849693 0.0
-0.000226083 0.000326911 0.0
-5.72815e-05 2.9871e-05 0.0
7.1891e-05 -7.03229e-05 0.0
0.000101346 -3.82759e-05 0.0
0.500864 0.0768177 0.0
0.0990625 0.18326 0.0
-0.0393311 0.249298 0.0
-0.0734085 0.265831 0.0
-0.0719101 0.257535 0.0
-0.0606538 0.239723 0.0
-0.0484494 0.219663 0.0
-0.0379245 0.20064 0.0
-0.0295623 0.183868 0.0
-0.0231584 0.169562 0.0
-0.018347 0.157512 0.0
-0.0147757 0.14736 0.0
-0.0121522 0.138728 0.0
-0.0102471 0.131272 0.0
-0.00888411 0.124699 0.0
-0.00792878 0.118768 0.0
-0.00727828 0.113289 0.0
-0.00685366 0.108113 0.0
-0.00659388 0.103128 0.0
-0.0064514 0.0982523 0.0
-0.00638902 0.0934268 0.0
-0.00637749 0.0886133 0.0
-0.00639385 0.0837897 0.0
-0.00642018 0.0789464 0.0
-0.00644261 0.0740841 0.0
-0.00645065 0.0692115 0.0
-0.00643659 0.064343 0.0
-0.00639506 0.0594973 0.0
-0.00632257 0.0546961 0.0
-0.00621724 0.0499626 0.0
-0.00607839 0.045321 0.0
-0.00590632 0.0407955 0.0
-0.00570202 0.03641 0.0
-0.00546693 0.0321873 0.0
-0.00520272 0.0281492 0.0
-0.00491114 0.0243163 0.0
-0.00459383 0.020708 0.0
-0.00425223 0.0173425 0.0
-0.0038875 0.014237 0.0
-0.00350051 0.0114075 0.0
-0.00309197 0.00886951 0.0
-0.00266265 0.00663703 0.0
-0.00221401 0.00472282 0.0
-0.00174921 0.00313709 0.0
-0.00127527 0.0018859 0.0
-0.000806927 0.000968214 0.0
-0.000373569 0.000370277 0.0
-2.88968e-05 5.85749e-05 0.0
0.00012517 -1.56681e-05 0.0
0.610067 0.0480622 0.0
0.195714 0.133993 0.0
0.0114137 0.209478 0.0
-0.0580461 0.24654 0.0
-0.0761321 0.257075 0.0
-0.0738474 0.2536 0.0
-0.0646367 0.243299 0.0
-0.0541069 0.23042 0.0
-0.0444293 0.217223 0.0
-0.0362907 0.204766 0.0
-0.0297614 0.193445 0.0
-0.024678 0.183311 0.0
-0.0208098 0.17425 0.0
-0.0179273 0.166084 0.0
-0.0158266 0.158623 0.0
-0.0143362 0.151686 0.0
-0.0133151 0.145121 0.0
-0.012649 0.138801 0.0
-0.0122456 0.132625 0.0
-0.0120308 0.126521 0.0
-0.0119447 0.120436 0.0
-0.0119397 0.114335 0.0
-0.0119777 0.108203 0.0
-0.0120285 0.102034 0.0
-0.0120687 0.0958336 0.0
-0.0120804 0.0896169 0.0
-0.0120505 0.083404 0.0
-0.0119698 0.0772197 0.0
-0.0118324 0.0710917 0.0
-0.0116349 0.0650497 0.0
-0.0113763 0.0591238 0.0
-0.0110572 0.0533442 0.0
-0.0106793 0.0477404 0.0
-0.0102451 0.0423406 0.0
-0.00975762 0.0371718 0.0
-0.00922002 0.0322593 0.0
-0.0086353 0.0276271 0.0
-0.00800621 0.0232975 0.0
-0.00733513 0.0192914 0.0
-0.00662415 0.0156282 0.0
-0.00587529 0.0123261 0.0
-0.00509101 0.00940137 0.0
-0.00427523 0.00686819 0.0
-0.00343507 0.00473737 0.0
-0.00258386 0.00301488 0.0
-0.00174628 0.00169944 0.0
-0.000966748 0.000777004 0.0
-0.000319743 0.000219042 0.0
6.53548e-05 1.34342e-05 0.0
0.680476 0.0301796 0.0
0.278521 0.0982165 0.0
0.0696568 0.171024 0.0
-0.0274984 0.217553 0.0
-0.0653446 0.240995 0.0
-0.0748514 0.24943 0.0
-0.0718589 0.24878 0.0
-0.0641142 0.243148 0.0
-0.0552742 0.235113 0.0
-0.0469655 0.22617 0.0
-0.0398168 0.217124 0.0
-0.0339784 0.208358 0.0
-0.0293835 0.200012 0.0
-0.0258785 0.19209 0.0
-0.0232862 0.184533 0.0
-0.0214344 0.177255 0.0
-0.0201685 0.170165 0.0
-0.0193545 0.163184 0.0
-0.018879 0.156243 0.0
-0.0186474 0.149292 0.0
-0.0185815 0.142297 0.0
-0.0186174 0.135238 0.0
-0.0187031 0.128109 0.0
-0.0187973 0.120916 0.0
-0.0188673 0.113672 0.0
-0.0188884 0.106399 0.0
-0.0188421 0.0991256 0.0
-0.0187156 0.0918817 0.0
-0.0185008 0.0847015 0.0
-0.0181933 0.0776199 0.0
-0.0177919 0.0706722 0.0
-0.0172975 0.0638932 0.0
-0.0167132 0.0573167 0.0
-0.0160427 0.0509749 0.0
-0.0152908 0.0448985 0.0
-0.0144622 0.0391161 0.0
-0.0135617 0.0336546 0.0
-0.0125935 0.028539 0.0
-0.0115619 0.0237926 0.0
-0.0104703 0.0194369 0.0
-0.00932281 0.0154916 0.0
-0.00812397 0.0119743 0.0
-0.00688076 0.00890015 0.0
-0.00560455 0.00628066 0.0
-0.00431477 0.00412286 0.0
-0.00304452 0.00242789 0.0
-0.00184907 0.00118578 0.0
-0.00081551 0.000379231 0.0
-8.47667e-05 4.13669e-05 0.0
0.729875 0.0192037 0.0
0.349063 0.0730648 0.0
0.127971 0.139309 0.0
0.0112102 0.188276 0.0
-0.044418 0.219588 0.0
-0.0662448 0.23663 0.0
-0.0710158 0.243942 0.0
-0.0678108 0.244996 0.0
-0.0614162 0.242253 0.0
-0.0542749 0.237329 0.0
-0.0475628 0.23123 0.0
-0.0417784 0.224546 0.0
-0.0370666 0.217603 0.0
-0.0333958 0.210558 0.0
-0.0306534 0.203474 0.0
-0.028697 0.196357 0.0
-0.0273805 0.189191 0.0
-0.0265667 0.181947 0.0
-0.0261331 0.174601 0.0
-0.0259729 0.167134 0.0
-0.0259953 0.159536 0.0
-0.0261242 0.151807 0.0
-0.026297 0.143957 0.0
-0.0264631 0.136004 0.0
-0.0265823 0.127974 0.0
-0.026624 0.119897 0.0
-0.0265656 0.111809 0.0
-0.0263914 0.103748 0.0
-0.0260918 0.0957529 0.0
-0.0256618 0.0878641 0.0
-0.0251007 0.0801213 0.0
-0.0244104 0.0725632 0.0
-0.0235952 0.0652269 0.0
-0.022661 0.0581474 0.0
-0.0216142 0.0513578 0.0
-0.0204618 0.0448888 0.0
-0.0192104 0.0387691 0.0
-0.0178663 0.0330253 0.0
-0.0164355 0.0276818 0.0
-0.0149236 0.0227612 0.0
-0.0133364 0.0182841 0.0
-0.0116812 0.014269 0.0
-0.00996777 0.0107316 0.0
-0.00821138 0.007685 0.0
-0.00643626 0.00513859 0.0
-0.00468122 0.00309815 0.0
-0.00300745 0.00156087 0.0
-0.00150649 0.000523729 0.0
-0.000317928 6.53086e-05 0.0
0.765885 0.0125971 0.0
0.408487 0.0557028 0.0
0.182933 0.114513 0.0
0.0526729 0.162573 0.0
-0.0173118 0.197673 0.0
-0.0506576 0.220445 0.0
-0.0636109 0.233731 0.0
-0.06587 0.240299 0.0
-0.0629769 0.242287 0.0
-0.0580077 0.241233 0.0
-0.0526094 0.238188 0.0
-0.0476097 0.23384 0.0
-0.0433727 0.228628 0.0
-0.0400071 0.222817 0.0
-0.0374861 0.216563 0.0
-0.0357167 0.209953 0.0
-0.0345782 0.203035 0.0
-0.0339438 0.195835 0.0
-0.0336923 0.18837 0.0
-0.0337131 0.180654 0.0
-0.0339091 0.172707 0.0
-0.0341967 0.16455 0.0
-0.0345064 0.156211 0.0
-0.0347809 0.147724 0.0
-0.034975 0.139127 0.0
-0.035054 0.13046 0.0
-0.0349924 0.121767 0.0
-0.0347731 0.113094 0.0
-0.0343857 0.104485 0.0
-0.0338258 0.0959873 0.0
-0.0330936 0.0876428 0.0
-0.0321928 0.0794938 0.0
-0.0311298 0.07158 0.0
-0.0299125 0.0639384 0.0
-0.02855 0.0566036 0.0
-0.0270513 0.0496075 0.0
-0.0254256 0.0429795 0.0
-0.0236812 0.0367467 0.0
-0.0218262 0.030934 0.0
-0.0198682 0.0255642 0.0
-0.0178152 0.0206584 0.0
-0.0156766 0.0162354 0.0
-0.0134646 0.0123122 0.0
-0.0111973 0.00890364 0.0
-0.00890196 0.00602267 0.0
-0.00661983 0.00368117 0.0
-0.00441315 0.00188509 0.0
-0.00237102 0.000646391 0.0
-0.00062249 8.46489e-05 0.0
0.792914 0.0086063 0.0
0.45852 0.0436074 0.0
0.23337 0.095336 0.0
0.0942566 0.140971 0.0
0.0134305 0.177127 0.0
-0.0302864 0.203501 0.0
-0.0512275 0.22104 0.0
-0.059303 0.231892 0.0
-0.0605139 0.237816 0.0
-0.0583942 0.240177 0.0
-0.0549674 0.23998 0.0
-0.0513448 0.237938 0.0
-0.0480938 0.234537 0.0
-0.045463 0.230108 0.0
-0.0435183 0.224873 0.0
-0.0422254 0.218978 0.0
-0.0414993 0.212524 0.0
-0.041233 0.205582 0.0
-0.0413145 0.198208 0.0
-0.0416364 0.19045 0.0
-0.0421004 0.182354 0.0
-0.0426205 0.173963 0.0
-0.0431234 0.165324 0.0
-0.0435486 0.156487 0.0
-0.043848 0.147503 0.0
-0.0439848 0.138423 0.0
-0.0439325 0.1293 0.0
-0.0436738 0.120187 0.0
-0.0431992 0.111134 0.0
-0.0425055 0.102193 0.0
-0.0415951 0.0934099 0.0
-0.040474 0.0848296 0.0
-0.0391514 0.0764936 0.0
-0.0376381 0.0684403 0.0
-0.0359458 0.060705 0.0
-0.0340865 0.05332 0.0
-0.0320717 0.0463147 0.0
-0.0299122 0.039716 0.0
-0.0276183 0.0335485 0.0
-0.0251994 0.0278348 0.0
-0.0226654 0.0225957 0.0
-0.0200274 0.0178507 0.0
-0.0172994 0.0136179 0.0
-0.0145007 0.00991424 0.0
-0.0116592 0.00675692 0.0
-0.00881593 0.0041645 0.0
-0.00602976 0.0021521 0.0
-0.00338207 0.000745774 0.0
-0.000985564 9.96368e-05 0.0
0.813909 0.00615312 0.0
0.50097 0.0350336 0.0
0.279128 0.0805035 0.0
0.13451 0.123145 0.0
0.045325 0.159024 0.0
-0.00691551 0.187128 0.0
-0.0352622 0.207558 0.0
-0.0491329 0.221583 0.0
-0.0547206 0.230622 0.0
-0.0558607 0.235838 0.0
-0.05486 0.238141 0.0
-0.0530607 0.238211 0.0
-0.0512066 0.236548 0.0
-0.0496739 0.233511 0.0
-0.0486186 0.229359 0.0
-0.0480675 0.22428 0.0
-0.0479753 0.218413 0.0
-0.0482601 0.211867 0.0
-0.0488244 0.20473 0.0
-0.0495685 0.197079 0.0
-0.0503977 0.188981 0.0
-0.0512268 0.180505 0.0
-0.0519823 0.171715 0.0
-0.0526031 0.162674 0.0
-0.0530406 0.153448 0.0
-0.0532579 0.144098 0.0
-0.0532295 0.134688 0.0
-0.0529394 0.125276 0.0
-0.05238 0.115919 0.0
-0.0515511 0.106673 0.0
-0.0504578 0.0975882 0.0
-0.0491099 0.0887109 0.0
-0.0475197 0.0800845 0.0
-0.0457016 0.071748 0.0
-0.0436707 0.063737 0.0
-0.041442 0.0560834 0.0
-0.0390299 0.0488158 0.0
-0.0364477 0.0419605 0.0
-0.0337076 0.035541 0.0
-0.0308211 0.0295794 0.0
-0.0277993 0.0240961 0.0
-0.0246544 0.0191106 0.0
-0.0214009 0.0146423 0.0
-0.018058 0.0107105 0.0
-0.0146523 0.00733652 0.0
-0.0112214 0.0045456 0.0
-0.00781771 0.00236153 0.0
-0.00451106 0.000822685 0.0
-0.00139458 0.0001108 0.0
0.830745 0.00460487 0.0
0.537357 0.0288223 0.0
0.320511 0.0689218 0.0
0.172835 0.108441 0.0
0.0773807 0.143287 0.0
0.01824 0.171908 0.0
-0.0168261 0.194164 0.0
-0.0362615 0.210462 0.0
-0.0462786 0.221887 0.0
-0.0508899 0.229404 0.0
-0.0526044 0.23381 0.0
-0.0529445 0.235729 0.0
-0.0527992 0.235644 0.0
-0.052656 0.233919 0.0
-0.0527523 0.23083 0.0
-0.053173 0.22659 0.0
-0.0539129 0.221365 0.0
-0.0549167 0.215291 0.0
-0.0561042 0.20848 0.0
-0.0573863 0.201032 0.0
-0.0586748 0.193039 0.0
-0.0598881 0.184586 0.0
-0.0609551 0.175754 0.0
-0.0618163 0.166622 0.0
-0.0624248 0.157267 0.0
-0.0627459 0.147762 0.0
-0.0627562 0.138178 0.0
-0.062443 0.128582 0.0
-0.0618022 0.119037 0.0
-0.0608375 0.109601 0.0
-0.0595582 0.100328 0.0
-0.0579784 0.0912668 0.0
-0.0561149 0.0824621 0.0
-0.0539861 0.0739529 0.0
-0.051611 0.0657742 0.0
-0.0490081 0.0579571 0.0
-0.0461949 0.050529 0.0
-0.0431873 0.0435148 0.0
-0.0399995 0.0369367 0.0
-0.0366445 0.0308155 0.0
-0.0331343 0.0251709 0.0
-0.0294812 0.0200224 0.0
-0.0256993 0.0153902 0.0
-0.0218061 0.0112958 0.0
-0.0178249 0.00776457 0.0
-0.0137875 0.00482748 0.0
-0.00973721 0.00251607 0.0
-0.00573005 0.000878902 0.0
-0.00183796 0.000118709 0.0
0.844619 0.00359491 0.0
0.568881 0.0242173 0.0
0.357945 0.0597735 0.0
0.208954 0.0962811 0.0
0.108837 0.129712 0.0
0.0439752 0.158204 0.0
0.00325033 0.181299 0.0
-0.0214225 0.199178 0.0
-0.0357901 0.212373 0.0
-0.0439484 0.221691 0.0
-0.0485429 0.227812 0.0
-0.0512321 0.231295 0.0
-0.0530215 0.232589 0.0
-0.0544914 0.232046 0.0
-0.0559499 0.229948 0.0
-0.0575342 0.226517 0.0
-0.0592763 0.221937 0.0
-0.061147 0.21636 0.0
-0.063084 0.209919 0.0
-0.0650101 0.202733 0.0
-0.066845 0.194911 0.0
-0.068513 0.186555 0.0
-0.0699469 0.17776 0.0
-0.0710909 0.16862 0.0
-0.0719015 0.159222 0.0
-0.0723479 0.14965 0.0
-0.0724107 0.139984 0.0
-0.0720819 0.130296 0.0
-0.0713623 0.120655 0.0
-0.0702608 0.111124 0.0
-0.0687923 0.101759 0.0
-0.0669761 0.092611 0.0
-0.0648342 0.0837242 0.0
-0.0623901 0.0751379 0.0
-0.059667 0.0668861 0.0
-0.0566876 0.0589985 0.0
-0.0534725 0.051501 0.0
-0.0500403 0.0444162 0.0
-0.0464071 0.0377648 0.0
-0.042587 0.0315658 0.0
-0.0385924 0.0258378 0.0
-0.0344351 0.0205998 0.0
-0.0301272 0.0158724 0.0
-0.0256833 0.0116791 0.0
-0.0211216 0.00804826 0.0
-0.0164664 0.00501586 0.0
-0.0117499 0.00261973 0.0
-0.00701278 0.000916484 0.0
-0.00230537 0.000123885 0.0
0.856316 0.00290989 0.0
0.596477 0.0207188 0.0
0.391896 0.0524427 0.0
0.242834 0.0861451 0.0
0.139335 0.117979 0.0
0.0697895 0.145931 0.0
0.0241668 0.16929 0.0
-0.00522727 0.188098 0.0
-0.0237725 0.202569 0.0
-0.0354594 0.213252 0.0
-0.0430075 0.220731 0.0
-0.048173 0.225497 0.0
-0.0520519 0.227958 0.0
-0.0552997 0.228445 0.0
-0.0582838 0.227232 0.0
-0.0611861 0.224546 0.0
-0.0640718 0.220576 0.0
-0.0669355 0.215488 0.0
-0.0697317 0.209428 0.0
-0.0723952 0.202529 0.0
-0.0748545 0.194914 0.0
-0.0770402 0.1867 0.0
-0.0788908 0.177995 0.0
-0.0803553 0.168905 0.0
-0.0813955 0.159528 0.0
-0.0819855 0.149957 0.0
-0.0821119 0.140278 0.0
-0.0817725 0.130573 0.0
-0.0809748 0.120914 0.0
-0.0797341 0.111368 0.0
-0.0780719 0.101992 0.0
-0.076014 0.0928394 0.0
-0.0735886 0.0839542 0.0
-0.0708247 0.0753749 0.0
-0.0677507 0.0671342 0.0
-0.0643936 0.0592598 0.0
-0.0607775 0.0517752 0.0
-0.0569237 0.044701 0.0
-0.0528501 0.0380551 0.0
-0.0485716 0.0318547 0.0
-0.0441003 0.0261166 0.0
-0.0394465 0.020859 0.0
-0.0346198 0.0161024 0.0
-0.02963 0.0118713 0.0
-0.0244891 0.0081963 0.0
-0.0192124 0.00511724 0.0
-0.0138196 0.00267674 0.0
-0.00833503 0.00093739 0.0
-0.00278763 0.000126755 0.0
0.866364 0.00242531 0.0
0.620873 0.0179957 0.0
0.422791 0.0464776 0.0
0.274542 0.0776131 0.0
0.168658 0.107794 0.0
0.0952805 0.134953 0.0
0.0454032 0.158208 0.0
0.0118641 0.177414 0.0
-0.0106499 0.192751 0.0
-0.0257899 0.20444 0.0
-0.036302 0.212965 0.0
-0.0440096 0.218754 0.0
-0.0500768 0.222173 0.0
-0.0552189 0.223529 0.0
-0.059851 0.223081 0.0
-0.0641923 0.221052 0.0
-0.0683357 0.217635 0.0
-0.0722965 0.213001 0.0
-0.0760443 0.207306 0.0
-0.0795249 0.200693 0.0
-0.0826752 0.193298 0.0
-0.0854329 0.185249 0.0
-0.0877425 0.176666 0.0
-0.0895592 0.167665 0.0
-0.0908509 0.158354 0.0
-0.0915983 0.148835 0.0
-0.0917953 0.139201 0.0
-0.091447 0.129539 0.0
-0.0905686 0.119926 0.0
-0.0891836 0.110431 0.0
-0.0873211 0.101115 0.0
-0.0850146 0.0920303 0.0
-0.0822992 0.083221 0.0
-0.0792105 0.0747242 0.0
-0.0757825 0.0665707 0.0
-0.0720469 0.0587859 0.0
-0.0680316 0.0513904 0.0
-0.0637606 0.0444018 0.0
-0.0592535 0.0378354 0.0
-0.0545255 0.0317056 0.0
-0.0495881 0.0260272 0.0
-0.0444492 0.0208166 0.0
-0.0391148 0.0160938 0.0
-0.0335892 0.0118834 0.0
-0.0278767 0.00821733 0.0
-0.0219823 0.00513787 0.0
-0.0159124 0.00269098 0.0
-0.00967461 0.000943293 0.0
-0.0032766 0.00012765 0.0
0.875127 0.00206773 0.0
0.642625 0.0158254 0.0
0.451009 0.0415466 0.0
0.304193 0.0703511 0.0
0.196704 0.0988912 0.0
0.120202 0.125107 0.0
0.0666247 0.14801 0.0
0.0293258 0.16731 0.0
0.0032434 0.183073 0.0
-0.0152455 0.195476 0.0
-0.0286943 0.204775 0.0
-0.0389669 0.211353 0.0
-0.0472795 0.215533 0.0
-0.0543935 0.217596 0.0
-0.060762 0.217786 0.0
-0.0666337 0.216315 0.0
-0.0721244 0.213377 0.0
-0.0772659 0.209144 0.0
-0.0820405 0.20378 0.0
-0.0864035 0.197435 0.0
-0.0902996 0.190255 0.0
-0.0936733 0.182377 0.0
-0.0964756 0.173931 0.0
-0.0986685 0.165044 0.0
-0.100227 0.155831 0.0
-0.10114 0.146401 0.0
-0.101409 0.136857 0.0
-0.101049 0.127287 0.0
-0.100083 0.117775 0.0
-0.0985454 0.108391 0.0
-0.0964732 0.0991969 0.0
-0.0939087 0.0902452 0.0
-0.0908952 0.0815792 0.0
-0.0874753 0.0732343 0.0
-0.0836894 0.0652385 0.0
-0.0795742 0.0576143 0.0
-0.0751618 0.0503792 0.0
-0.0704788 0.0435472 0.0
-0.0655464 0.0371302 0.0
-0.0603798 0.0311395 0.0
-0.0549892 0.0255872 0.0
-0.0493798 0.0204876 0.0
-0.0435528 0.015859 0.0
-0.0375063 0.0117254 0.0
-0.0312357 0.00811899 0.0
-0.0247351 0.00508312 0.0
-0.0179967 0.00266564 0.0
-0.011011 0.0009355 0.0
-0.00376496 0.000126802 0.0
0.882862 0.00179287 0.0
0.662164 0.0140556 0.0
0.476875 0.0374033 0.0
0.331921 0.0640927 0.0
0.223438 0.0910374 0.0
0.144397 0.116222 0.0
0.0876043 0.138595 0.0
0.0469144 0.157761 0.0
0.0175285 0.173678 0.0
-0.00410624 0.18649 0.0
-0.020426 0.196329 0.0
-0.0332529 0.203481 0.0
-0.0438351 0.208239 0.0
-0.0529681 0.210853 0.0
-0.0611333 0.21155 0.0
-0.0686022 0.210533 0.0
-0.0755077 0.20799 0.0
-0.0818944 0.204095 0.0
-0.0877544 0.199014 0.0
-0.0930509 0.192905 0.0
-0.097735 0.18592 0.0
-0.101758 0.178206 0.0
-0.105077 0.169902 0.0
-0.107661 0.161141 0.0
-0.109494 0.152048 0.0
-0.110573 0.14274 0.0
-0.11091 0.133321 0.0
-0.11053 0.123888 0.0
-0.109466 0.114524 0.0
-0.107762 0.105304 0.0
-0.105467 0.096289 0.0
-0.102633 0.0875308 0.0
-0.0993107 0.0790713 0.0
-0.0955516 0.0709432 0.0
-0.0914027 0.0631718 0.0
-0.0869064 0.0557757 0.0
-0.0820989 0.0487687 0.0
-0.0770097 0.0421609 0.0
-0.0716612 0.0359603 0.0
-0.0660685 0.0301745 0.0
-0.06024 0.0248122 0.0
-0.0541774 0.0198848 0.0
-0.0478768 0.0154085 0.0
-0.0413289 0.0114057 0.0
-0.03452 0.00790756 0.0
-0.027432 0.00495726 0.0
-0.0200427 0.00260316 0.0
-0.0123253 0.000914948 0.0
-0.00424597 0.000124361 0.0
0.889751 0.00157336 0.0
0.679823 0.01258 0.0
0.500655 0.0338633 0.0
0.357856 0.0586263 0.0
0.248854 0.0840339 0.0
0.16776 0.108138 0.0
0.108165 0.129854 0.0
0.0644096 0.148709 0.0
0.031963 0.16458 0.0
0.00741173 0.177531 0.0
-0.011703 0.18771 0.0
-0.0270547 0.195247 0.0
-0.0399079 0.200413 0.0
-0.0510834 0.20343 0.0
-0.0610833 0.204506 0.0
-0.0701951 0.203834 0.0
-0.0785636 0.201597 0.0
-0.0862428 0.197968 0.0
-0.0932312 0.193115 0.0
-0.0994979 0.187201 0.0
-0.105 0.180384 0.0
-0.109693 0.172819 0.0
-0.113542 0.164652 0.0
-0.116523 0.156025 0.0
-0.11863 0.147068 0.0
-0.119869 0.137904 0.0
-0.120262 0.128644 0.0
-0.119846 0.119386 0.0
-0.118668 0.110216 0.0
-0.116781 0.10121 0.0
-0.114247 0.0924285 0.0
-0.111127 0.0839217 0.0
-0.107483 0.0757292 0.0
-0.103375 0.0678807 0.0
-0.0988571 0.0603977 0.0
-0.0939774 0.0532948 0.0
-0.0887767 0.0465813 0.0
-0.0832873 0.0402629 0.0
-0.0775328 0.0343433 0.0
-0.0715279 0.0288258 0.0
-0.0652788 0.0237151 0.0
-0.0587834 0.0190193 0.0
-0.0520318 0.0147513 0.0
-0.045007 0.0109311 0.0
-0.0376852 0.00758795 0.0
-0.030036 0.00476348 0.0
-0.0220221 0.00250525 0.0
-0.0135993 0.000882243 0.0
-0.00471328 0.000120401 0.0
0.89593 0.00139168 0.0
0.69586 0.0113223 0.0
0.522572 0.0307859 0.0
0.382116 0.0537824 0.0
0.272966 0.0777119 0.0
0.190217 0.100707 0.0
0.128177 0.121671 0.0
0.081643 0.140079 0.0
0.046352 0.155742 0.0
0.0190312 0.168661 0.0
-0.00272397 0.178953 0.0
-0.0205474 0.186707 0.0
-0.0356531 0.192119 0.0
-0.0488755 0.195397 0.0
-0.0607296 0.196728 0.0
-0.071512 0.196293 0.0
-0.0813751 0.19427 0.0
-0.0903778 0.19083 0.0
-0.0985227 0.186143 0.0
-0.105782 0.180377 0.0
-0.112118 0.173696 0.0
-0.117491 0.16626 0.0
-0.121872 0.158223 0.0
-0.125246 0.149731 0.0
-0.127616 0.140924 0.0
-0.128999 0.131928 0.0
-0.12943 0.122856 0.0
-0.128958 0.113811 0.0
-0.127642 0.10488 0.0
-0.125551 0.0961366 0.0