# vtk DataFile Version 3.0
Malha 2D com triângulos e temperatura
ASCII
DATASET UNSTRUCTURED_GRID

POINTS 2500 double
0 0 0
1 0 0
1 1 0
0 1 0
0.0204082 0 0
0.0408163 0 0
0.0612245 0 0
0.0816327 0 0
0.102041 0 0
0.122449 0 0
0.142857 0 0
0.163265 0 0
0.183673 0 0
0.204082 0 0
0.22449 0 0
0.244898 0 0
0.265306 0 0
0.285714 0 0
0.306122 0 0
0.326531 0 0
0.346939 0 0
0.367347 0 0
0.387755 0 0
0.408163 0 0
0.428571 0 0
0.44898 0 0
0.469388 0 0
0.489796 0 0
0.510204 0 0
0.530612 0 0
0.55102 0 0
0.571429 0 0
0.591837 0 0
0.612245 0 0
0.632653 0 0
0.653061 0 0
0.673469 0 0
0.693878 0 0
0.714286 0 0
0.734694 0 0
0.755102 0 0
0.77551 0 0
0.795918 0 0
0.816327 0 0
0.836735 0 0
0.857143 0 0
0.877551 0 0
0.897959 0 0
0.918367 0 0
0.938776 0 0
0.959184 0 0
0.979592 0 0
1 0.0204082 0
1 0.0408163 0
1 0.0612245 0
1 0.0816327 0
1 0.102041 0
1 0.122449 0
1 0.142857 0
1 0.163265 0
1 0.183673 0
1 0.204082 0
1 0.22449 0
1 0.244898 0
1 0.265306 0
1 0.285714 0
1 0.306122 0
1 0.326531 0
1 0.346939 0
1 0.367347 0
1 0.387755 0
1 0.408163 0
1 0.428571 0
1 0.44898 0
1 0.469388 0
1 0.489796 0
1 0.510204 0
1 0.530612 0
1 0.55102 0
1 0.571429 0
1 0.591837 0
1 0.612245 0
1 0.632653 0
1 0.653061 0
1 0.673469 0
1 0.693878 0
1 0.714286 0
1 0.734694 0
1 0.755102 0
1 0.77551 0
1 0.795918 0
1 0.816327 0
1 0.836735 0
1 0.857143 0
1 0.877551 0
1 0.897959 0
1 0.918367 0
1 0.938776 0
1 0.959184 0
1 0.979592 0
0.979592 1 0
0.959184 1 0
0.938776 1 0
0.918367 1 0
0.897959 1 0
0.877551 1 0
0.857143 1 0
0.836735 1 0
0.816327 1 0
0.795918 1 0
0.77551 1 0
0.755102 1 0
0.734694 1 0
0.714286 1 0
0.693878 1 0
0.673469 1 0
0.653061 1 0
0.632653 1 0
0.612245 1 0
0.591837 1 0
0.571429 1 0
0.55102 1 0
0.530612 1 0
0.510204 1 0
0.489796 1 0
0.469388 1 0
0.44898 1 0
0.428571 1 0
0.408163 1 0
0.387755 1 0
0.367347 1 0
0.346939 1 0
0.326531 1 0
0.306122 1 0
0.285714 1 0
0.265306 1 0
0.244898 1 0
0.22449 1 0
0.204082 1 0
0.183673 1 0
0.163265 1 0
0.142857 1 0
0.122449 1 0
0.102041 1 0
0.0816327 1 0
0.0612245 1 0
0.0408163 1 0
0.0204082 1 0
0 0.979592 0
0 0.959184 0
0 0.938776 0
0 0.918367 0
0 0.897959 0
0 0.877551 0
0 0.857143 0
0 0.836735 0
0 0.816327 0
0 0.795918 0
0 0.77551 0
0 0.755102 0
0 0.734694 0
0 0.714286 0
0 0.693878 0
0 0.673469 0
0 0.653061 0
0 0.632653 0
0 0.612245 0
0 0.591837 0
0 0.571429 0
0 0.55102 0
0 0.530612 0
0 0.510204 0
0 0.489796 0
0 0.469388 0
0 0.44898 0
0 0.428571 0
0 0.408163 0
0 0.387755 0
0 0.367347 0
0 0.346939 0
0 0.326531 0
0 0.306122 0
0 0.285714 0
0 0.265306 0
0 0.244898 0
0 0.22449 0
0 0.204082 0
0 0.183673 0
0 0.163265 0
0 0.142857 0
0 0.122449 0
0 0.102041 0
0 0.0816327 0
0 0.0612245 0
0 0.0408163 0
0 0.0204082 0
0.0204082 0.979592 0
0.0204082 0.959184 0
0.0204082 0.938776 0
0.0204082 0.918367 0
0.0204082 0.897959 0
0.0204082 0.877551 0
0.0204082 0.857143 0
0.0204082 0.836735 0
0.0204082 0.816327 0
0.0204082 0.795918 0
0.0204082 0.77551 0
0.0204082 0.755102 0
0.0204082 0.734694 0
0.0204082 0.714286 0
0.0204082 0.693878 0
0.0204082 0.673469 0
0.0204082 0.653061 0
0.0204082 0.632653 0
0.0204082 0.612245 0
0.0204082 0.591837 0
0.0204082 0.571429 0
0.0204082 0.55102 0
0.0204082 0.530612 0
0.0204082 0.510204 0
0.0204082 0.489796 0
0.0204082 0.469388 0
0.0204082 0.44898 0
0.0204082 0.428571 0
0.0204082 0.408163 0
0.0204082 0.387755 0
0.0204082 0.367347 0
0.0204082 0.346939 0
0.0204082 0.326531 0
0.0204082 0.306122 0
0.0204082 0.285714 0
0.0204082 0.265306 0
0.0204082 0.244898 0
0.0204082 0.22449 0
0.0204082 0.204082 0
0.0204082 0.183673 0
0.0204082 0.163265 0
0.0204082 0.142857 0
0.0204082 0.122449 0
0.0204082 0.102041 0
0.0204082 0.0816327 0
0.0204082 0.0612245 0
0.0204082 0.0408163 0
0.0204082 0.0204082 0
0.0408163 0.979592 0
0.0408163 0.959184 0
0.0408163 0.938776 0
0.0408163 0.918367 0
0.0408163 0.897959 0
0.0408163 0.877551 0
0.0408163 0.857143 0
0.0408163 0.836735 0
0.0408163 0.816327 0
0.0408163 0.795918 0
0.0408163 0.77551 0
0.0408163 0.755102 0
0.0408163 0.734694 0
0.0408163 0.714286 0
0.0408163 0.693878 0
0.0408163 0.673469 0
0.0408163 0.653061 0
0.0408163 0.632653 0
0.0408163 0.612245 0
0.0408163 0.591837 0
0.0408163 0.571429 0
0.0408163 0.55102 0
0.0408163 0.530612 0
0.0408163 0.510204 0
0.0408163 0.489796 0
0.0408163 0.469388 0
0.0408163 0.44898 0
0.0408163 0.428571 0
0.0408163 0.408163 0
0.0408163 0.387755 0
0.0408163 0.367347 0
0.0408163 0.346939 0
0.0408163 0.326531 0
0.0408163 0.306122 0
0.0408163 0.285714 0
0.0408163 0.265306 0
0.0408163 0.244898 0
0.0408163 0.22449 0
0.0408163 0.204082 0
0.0408163 0.183673 0
0.0408163 0.163265 0
0.0408163 0.142857 0
0.0408163 0.122449 0
0.0408163 0.102041 0
0.0408163 0.0816327 0
0.0408163 0.0612245 0
0.0408163 0.0408163 0
0.0408163 0.0204082 0
0.0612245 0.979592 0
0.0612245 0.959184 0
0.0612245 0.938776 0
0.0612245 0.918367 0
0.0612245 0.897959 0
0.0612245 0.877551 0
0.0612245 0.857143 0
0.0612245 0.836735 0
0.0612245 0.816327 0
0.0612245 0.795918 0
0.0612245 0.77551 0
0.0612245 0.755102 0
0.0612245 0.734694 0
0.0612245 0.714286 0
0.0612245 0.693878 0
0.0612245 0.673469 0
0.0612245 0.653061 0
0.0612245 0.632653 0
0.0612245 0.612245 0
0.0612245 0.591837 0
0.0612245 0.571429 0
0.0612245 0.55102 0
0.0612245 0.530612 0
0.0612245 0.510204 0
0.0612245 0.489796 0
0.0612245 0.469388 0
0.0612245 0.44898 0
0.0612245 0.428571 0
0.0612245 0.408163 0
0.0612245 0.387755 0
0.0612245 0.367347 0
0.0612245 0.346939 0
0.0612245 0.326531 0
0.0612245 0.306122 0
0.0612245 0.285714 0
0.0612245 0.265306 0
0.0612245 0.244898 0
0.0612245 0.22449 0
0.0612245 0.204082 0
0.0612245 0.183673 0
0.0612245 0.163265 0
0.0612245 0.142857 0
0.0612245 0.122449 0
0.0612245 0.102041 0
0.0612245 0.0816327 0
0.0612245 0.0612245 0
0.0612245 0.0408163 0
0.0612245 0.0204082 0
0.0816327 0.979592 0
0.0816327 0.959184 0
0.0816327 0.938776 0
0.0816327 0.918367 0
0.0816327 0.897959 0
0.0816327 0.877551 0
0.0816327 0.857143 0
0.0816327 0.836735 0
0.0816327 0.816327 0
0.0816327 0.795918 0
0.0816327 0.77551 0
0.0816327 0.755102 0
0.0816327 0.734694 0
0.0816327 0.714286 0
0.0816327 0.693878 0
0.0816327 0.673469 0
0.0816327 0.653061 0
0.0816327 0.632653 0
0.0816327 0.612245 0
0.0816327 0.591837 0
0.0816327 0.571429 0
0.0816327 0.55102 0
0.0816327 0.530612 0
0.0816327 0.510204 0
0.0816327 0.489796 0
0.0816327 0.469388 0
0.0816327 0.44898 0
0.0816327 0.428571 0
0.0816327 0.408163 0
0.0816327 0.387755 0
0.0816327 0.367347 0
0.0816327 0.346939 0
0.0816327 0.326531 0
0.0816327 0.306122 0
0.0816327 0.285714 0
0.0816327 0.265306 0
0.0816327 0.244898 0
0.0816327 0.22449 0
0.0816327 0.204082 0
0.0816327 0.183673 0
0.0816327 0.163265 0
0.0816327 0.142857 0
0.0816327 0.122449 0
0.0816327 0.102041 0
0.0816327 0.0816327 0
0.0816327 0.0612245 0
0.0816327 0.0408163 0
0.0816327 0.0204082 0
0.102041 0.979592 0
0.102041 0.959184 0
0.102041 0.938776 0
0.102041 0.918367 0
0.102041 0.897959 0
0.102041 0.877551 0
0.102041 0.857143 0
0.102041 0.836735 0
0.102041 0.816327 0
0.102041 0.795918 0
0.102041 0.77551 0
0.102041 0.755102 0
0.102041 0.734694 0
0.102041 0.714286 0
0.102041 0.693878 0
0.102041 0.673469 0
0.102041 0.653061 0
0.102041 0.632653 0
0.102041 0.612245 0
0.102041 0.591837 0
0.102041 0.571429 0
0.102041 0.55102 0
0.102041 0.530612 0
0.102041 0.510204 0
0.102041 0.489796 0
0.102041 0.469388 0
0.102041 0.44898 0
0.102041 0.428571 0
0.102041 0.408163 0
0.102041 0.387755 0
0.102041 0.367347 0
0.102041 0.346939 0
0.102041 0.326531 0
0.102041 0.306122 0
0.102041 0.285714 0
0.102041 0.265306 0
0.102041 0.244898 0
0.102041 0.22449 0
0.102041 0.204082 0
0.102041 0.183673 0
0.102041 0.163265 0
0.102041 0.142857 0
0.102041 0.122449 0
0.102041 0.102041 0
0.102041 0.0816327 0
0.102041 0.0612245 0
0.102041 0.0408163 0
0.102041 0.0204082 0
0.122449 0.979592 0
0.122449 0.959184 0
0.122449 0.938776 0
0.122449 0.918367 0
0.122449 0.897959 0
0.122449 0.877551 0
0.122449 0.857143 0
0.122449 0.836735 0
0.122449 0.816327 0
0.122449 0.795918 0
0.122449 0.77551 0
0.122449 0.755102 0
0.122449 0.734694 0
0.122449 0.714286 0
0.122449 0.693878 0
0.122449 0.673469 0
0.122449 0.653061 0
0.122449 0.632653 0
0.122449 0.612245 0
0.122449 0.591837 0
0.122449 0.571429 0
0.122449 0.55102 0
0.122449 0.530612 0
0.122449 0.510204 0
0.122449 0.489796 0
0.122449 0.469388 0
0.122449 0.44898 0
0.122449 0.428571 0
0.122449 0.408163 0
0.122449 0.387755 0
0.122449 0.367347 0
0.122449 0.346939 0
0.122449 0.326531 0
0.122449 0.306122 0
0.122449 0.285714 0
0.122449 0.265306 0
0.122449 0.244898 0
0.122449 0.22449 0
0.122449 0.204082 0
0.122449 0.183673 0
0.122449 0.163265 0
0.122449 0.142857 0
0.122449 0.122449 0
0.122449 0.102041 0
0.122449 0.0816327 0
0.122449 0.0612245 0
0.122449 0.0408163 0
0.122449 0.0204082 0
0.142857 0.979592 0
0.142857 0.959184 0
0.142857 0.938776 0
0.142857 0.918367 0
0.142857 0.897959 0
0.142857 0.877551 0
0.142857 0.857143 0
0.142857 0.836735 0
0.142857 0.816327 0
0.142857 0.795918 0
0.142857 0.77551 0
0.142857 0.755102 0
0.142857 0.734694 0
0.142857 0.714286 0
0.142857 0.693878 0
0.142857 0.673469 0
0.142857 0.653061 0
0.142857 0.632653 0
0.142857 0.612245 0
0.142857 0.591837 0
0.142857 0.571429 0
0.142857 0.55102 0
0.142857 0.530612 0
0.142857 0.510204 0
0.142857 0.489796 0
0.142857 0.469388 0
0.142857 0.44898 0
0.142857 0.428571 0
0.142857 0.408163 0
0.142857 0.387755 0
0.142857 0.367347 0
0.142857 0.346939 0
0.142857 0.326531 0
0.142857 0.306122 0
0.142857 0.285714 0
0.142857 0.265306 0
0.142857 0.244898 0
0.142857 0.22449 0
0.142857 0.204082 0
0.142857 0.183673 0
0.142857 0.163265 0
0.142857 0.142857 0
0.142857 0.122449 0
0.142857 0.102041 0
0.142857 0.0816327 0
0.142857 0.0612245 0
0.142857 0.0408163 0
0.142857 0.0204082 0
0.163265 0.979592 0
0.163265 0.959184 0
0.163265 0.938776 0
0.163265 0.918367 0
0.163265 0.897959 0
0.163265 0.877551 0
0.163265 0.857143 0
0.163265 0.836735 0
0.163265 0.816327 0
0.163265 0.795918 0
0.163265 0.77551 0
0.163265 0.755102 0
0.163265 0.734694 0
0.163265 0.714286 0
0.163265 0.693878 0
0.163265 0.673469 0
0.163265 0.653061 0
0.163265 0.632653 0
0.163265 0.612245 0
0.163265 0.591837 0
0.163265 0.571429 0
0.163265 0.55102 0
[...]
CELL_DATA 2401
VECTORS velocity double
0.257584 0.157303 0.0
-0.0026034 0.264477 0.0
-0.0322295 0.205575 0.0
-0.0253349 0.150768 0.0
-0.0160403 0.113294 0.0
-0.00970346 0.0879584 0.0
-0.00594511 0.0708565 0.0
-0.00377322 0.059089 0.0
-0.00249926 0.0507563 0.0
-0.00172773 0.0446821 0.0
-0.00124323 0.0401282 0.0
-0.00092899 0.0366184 0.0
-0.000720157 0.0338357 0.0
-0.000579278 0.0315637 0.0
-0.000483707 0.0296505 0.0
-0.000419112 0.0279884 0.0
-0.000376039 0.0264998 0.0
-0.000348024 0.0251291 0.0
-0.000330511 0.023836 0.0
-0.00032021 0.0225922 0.0
-0.000314697 0.0213783 0.0
-0.000312164 0.0201813 0.0
-0.00031125 0.0189935 0.0
-0.000310937 0.0178112 0.0
-0.000310468 0.0166335 0.0
-0.000309294 0.0154618 0.0
-0.000307036 0.0142989 0.0
-0.000303445 0.0131491 0.0
-0.000298386 0.0120169 0.0
-0.000291803 0.0109075 0.0
-0.000283708 0.00982604 0.0
-0.000274158 0.00877775 0.0
-0.000263237 0.00776753 0.0
-0.000251045 0.00680004 0.0
-0.000237684 0.00587966 0.0
-0.000223243 0.00501042 0.0
-0.00020779 0.00419612 0.0
-0.000191362 0.00344035 0.0
-0.000173951 0.00274663 0.0
-0.000155502 0.00211846 0.0
-0.000135892 0.00155947 0.0
-0.00011493 0.00107356 0.0
-9.23593e-05 0.000664948 0.0
-6.78917e-05 0.000338138 0.0
-4.13588e-05 9.76344e-05 0.0
-1.31553e-05 -5.2972e-05 0.0
1.45992e-05 -0.000113141 0.0
3.56467e-05 -9.32494e-05 0.0
3.29862e-05 -3.28312e-05 0.0
0.340809 0.122993 0.0
-0.000538031 0.249598 0.0
-0.0650893 0.271935 0.0
-0.063145 0.252563 0.0
-0.0484772 0.222104 0.0
-0.0349976 0.192223 0.0
-0.0250224 0.166705 0.0
-0.0180622 0.146054 0.0
-0.0132679 0.129664 0.0
-0.00995185 0.116697 0.0
-0.00763662 0.106369 0.0
-0.00600582 0.0980357 0.0
-0.00485059 0.0911885 0.0
-0.00403113 0.0854376 0.0
-0.00345191 0.0804871 0.0
-0.00304612 0.0761132 0.0
-0.00276606 0.0721481 0.0
-0.00257697 0.0684667 0.0
-0.00245309 0.064977 0.0
-0.00237506 0.0616126 0.0
-0.00232817 0.0583269 0.0
-0.00230117 0.0550891 0.0
-0.00228543 0.0518802 0.0
-0.00227439 0.0486908 0.0
-0.0022631 0.0455187 0.0
-0.0022479 0.0423671 0.0
-0.00222622 0.039243 0.0
-0.00219633 0.0361564 0.0
-0.00215719 0.033119 0.0
-0.00210831 0.0301434 0.0
-0.00204961 0.0272427 0.0
-0.00198132 0.0244299 0.0
-0.00190386 0.0217176 0.0
-0.00181777 0.0191179 0.0
-0.0017236 0.016642 0.0
-0.0016219 0.0143007 0.0
-0.00151307 0.0121039 0.0
-0.00139741 0.0100611 0.0
-0.00127501 0.00818152 0.0
-0.00114579 0.00647418 0.0
-0.00100948 0.00494805 0.0
-0.000865669 0.00361216 0.0
-0.000714002 0.00247546 0.0
-0.000554546 0.00154631 0.0
-0.00038864 0.000831234 0.0
-0.00022079 0.000332628 0.0
-6.25801e-05 4.41043e-05 0.0
6.07028e-05 -5.92843e-05 0.0
9.27972e-05 -3.46954e-05 0.0
0.500941 0.0768399 0.0
0.0992328 0.183359 0.0
-0.0391361 0.249496 0.0
-0.073252 0.266101 0.0
-0.0718431 0.257825 0.0
-0.0607055 0.239967 0.0
-0.0486258 0.219785 0.0
-0.0382148 0.20057 0.0
-0.0299456 0.183543 0.0
-0.0236104 0.168931 0.0
-0.0188432 0.156541 0.0
-0.0152939 0.146027 0.0
-0.0126731 0.137027 0.0
-0.0107546 0.129206 0.0
-0.00936511 0.122283 0.0
-0.00837263 0.116025 0.0
-0.00767653 0.110248 0.0
-0.0071997 0.10481 0.0
-0.00688272 0.0996023 0.0
-0.00667953 0.094546 0.0
-0.00655427 0.0895847 0.0
-0.00647901 0.0846811 0.0
-0.00643202 0.0798131 0.0
-0.00639658 0.0749704 0.0
-0.00635996 0.0701523 0.0
-0.00631271 0.065365 0.0
-0.00624807 0.0606198 0.0
-0.00616148 0.0559319 0.0
-0.00605017 0.0513187 0.0
-0.00591274 0.0467989 0.0
-0.00574892 0.0423918 0.0
-0.00555918 0.0381165 0.0
-0.00534456 0.0339916 0.0
-0.00510638 0.0300349 0.0
-0.00484605 0.026263 0.0
-0.00456494 0.0226917 0.0
-0.00426419 0.0193359 0.0
-0.00394464 0.0162095 0.0
-0.0036068 0.013326 0.0
-0.00325079 0.0106984 0.0
-0.00287653 0.00833909 0.0
-0.00248391 0.0062603 0.0
-0.00207338 0.0044733 0.0
-0.00164697 0.00298771 0.0
-0.00121024 0.00180991 0.0
-0.000775924 0.000940279 0.0
-0.000370474 0.000367882 0.0
-4.32559e-05 6.39219e-05 0.0
0.000110633 -1.29171e-05 0.0
0.6102 0.0480834 0.0
0.195971 0.134082 0.0
0.0116886 0.209638 0.0
-0.0578612 0.246735 0.0
-0.0761043 0.257238 0.0
-0.0740148 0.253654 0.0
-0.0650062 0.243164 0.0
-0.0546611 0.230021 0.0
-0.0451359 0.216493 0.0
-0.0371109 0.203654 0.0
-0.0306553 0.191914 0.0
-0.0256085 0.18134 0.0
-0.021744 0.171833 0.0
-0.0188371 0.163228 0.0
-0.0166885 0.155345 0.0
-0.0151311 0.148016 0.0
-0.0140276 0.141095 0.0
-0.013267 0.134462 0.0
-0.01276 0.128023 0.0
-0.0124351 0.121706 0.0
-0.012235 0.115462 0.0
-0.0121145 0.109259 0.0
-0.0120377 0.10308 0.0
-0.0119767 0.0969187 0.0
-0.0119099 0.0907795 0.0
-0.0118216 0.0846738 0.0
-0.0117001 0.0786182 0.0
-0.0115377 0.0726332 0.0
-0.0113296 0.0667415 0.0
-0.0110737 0.0609671 0.0
-0.0107694 0.0553345 0.0
-0.0104176 0.0498676 0.0
-0.0100202 0.0445898 0.0
-0.00957949 0.039523 0.0
-0.0090981 0.0346881 0.0
-0.00857847 0.0301047 0.0
-0.00802274 0.0257911 0.0
-0.00743263 0.0217645 0.0
-0.00680933 0.0180414 0.0
-0.00615361 0.0146371 0.0
-0.00546601 0.0115664 0.0
-0.00474738 0.00884312 0.0
-0.00399983 0.00647963 0.0
-0.00322836 0.00448595 0.0
-0.00244371 0.00286825 0.0
-0.00166723 0.00162675 0.0
-0.000938785 0.000750311 0.0
-0.000326575 0.000215047 0.0
4.92469e-05 1.45424e-05 0.0
0.680655 0.0301955 0.0
0.278838 0.0982773 0.0
0.0699592 0.171116 0.0
-0.0273396 0.217623 0.0
-0.0654186 0.240971 0.0
-0.075202 0.249231 0.0
-0.0724905 0.248324 0.0
-0.0650013 0.242362 0.0
-0.056372 0.233932 0.0
-0.0482204 0.224546 0.0
-0.0411734 0.215023 0.0
-0.0353841 0.205762 0.0
-0.0307911 0.196917 0.0
-0.0272471 0.188508 0.0
-0.0245812 0.180485 0.0
-0.0226273 0.172775 0.0
-0.021236 0.165294 0.0
-0.0202783 0.15797 0.0
-0.0196454 0.150742 0.0
-0.0192467 0.143561 0.0
-0.0190078 0.136398 0.0
-0.0188684 0.129233 0.0
-0.0187801 0.12206 0.0
-0.0187047 0.114884 0.0
-0.0186127 0.107717 0.0
-0.018482 0.100577 0.0
-0.0182967 0.0934872 0.0
-0.0180462 0.0864746 0.0
-0.0177241 0.0795671 0.0
-0.0173274 0.0727935 0.0
-0.0168559 0.0661828 0.0
-0.0163112 0.059763 0.0
-0.0156962 0.0535611 0.0
-0.0150147 0.0476024 0.0
-0.0142706 0.0419108 0.0
-0.0134679 0.0365085 0.0
-0.0126099 0.0314163 0.0
-0.0116995 0.0266535 0.0
-0.0107389 0.0222381 0.0
-0.00972997 0.0181873 0.0
-0.00867419 0.0145168 0.0
-0.00757386 0.0112415 0.0
-0.00643315 0.00837425 0.0
-0.00526031 0.00592553 0.0
-0.00407098 0.00390237 0.0
-0.00289361 0.00230712 0.0
-0.00177747 0.0011324 0.0
-0.000801825 0.000364874 0.0
-9.6814e-05 4.06805e-05 0.0
0.730079 0.0192112 0.0
0.349402 0.0730858 0.0
0.128253 0.139312 0.0
0.0112814 0.188197 0.0
-0.0446588 0.219351 0.0
-0.0668442 0.236153 0.0
-0.071973 0.243147 0.0
-0.0690907 0.243813 0.0
-0.0629611 0.240624 0.0
-0.0560162 0.235211 0.0
-0.0494294 0.228592 0.0
-0.0437027 0.221376 0.0
-0.0389872 0.213901 0.0
-0.0352589 0.20634 0.0
-0.0324131 0.198765 0.0
-0.030315 0.191195 0.0
-0.0288257 0.18362 0.0
-0.0278144 0.17602 0.0
-0.0271645 0.168377 0.0
-0.026775 0.160674 0.0
-0.0265602 0.152905 0.0
-0.026449 0.145072 0.0
-0.0263835 0.137184 0.0
-0.0263173 0.129259 0.0
-0.0262146 0.121319 0.0
-0.0260485 0.113392 0.0
-0.0257996 0.105508 0.0
-0.0254553 0.0977016 0.0
-0.0250083 0.0900055 0.0
-0.0244556 0.0824536 0.0
-0.0237975 0.075079 0.0
-0.023037 0.0679131 0.0
-0.0221785 0.0609859 0.0
-0.0212276 0.0543253 0.0
-0.0201898 0.0479573 0.0
-0.019071 0.0419058 0.0
-0.0178759 0.0361929 0.0
-0.0166091 0.0308392 0.0
-0.0152739 0.0258637 0.0
-0.0138734 0.0212841 0.0
-0.0124104 0.0171169 0.0
-0.0108888 0.0133771 0.0
-0.00931476 0.0100784 0.0
-0.00769932 0.00723223 0.0
-0.0060618 0.00484759 0.0
-0.00443517 0.002931 0.0
-0.00287341 0.00148164 0.0
-0.00145914 0.000499441 0.0
-0.000320338 6.29747e-05 0.0
0.766088 0.0125955 0.0
0.408803 0.0556814 0.0
0.183139 0.114423 0.0
0.0525941 0.162344 0.0
-0.0177808 0.197225 0.0
-0.0515648 0.219696 0.0
-0.0649477 0.232612 0.0
-0.0675912 0.238746 0.0
-0.0650114 0.240248 0.0
-0.060272 0.238671 0.0
-0.0550176 0.235079 0.0
-0.0500793 0.230177 0.0
-0.0458287 0.224415 0.0
-0.0423833 0.218073 0.0
-0.0397258 0.211317 0.0
-0.037772 0.204246 0.0
-0.0364101 0.196914 0.0
-0.0355214 0.189354 0.0
-0.034992 0.181589 0.0
-0.0347184 0.173639 0.0
-0.03461 0.165524 0.0
-0.0345898 0.157268 0.0
-0.0345939 0.148899 0.0
-0.034571 0.140448 0.0
-0.0344807 0.131951 0.0
-0.0342933 0.123446 0.0
-0.0339875 0.114973 0.0
-0.0335498 0.10657 0.0
-0.0329729 0.0982786 0.0
-0.0322547 0.0901365 0.0
-0.0313971 0.0821806 0.0
-0.0304049 0.0744457 0.0
-0.0292846 0.066964 0.0
-0.0280439 0.0597654 0.0
-0.0266907 0.0528771 0.0
-0.0252327 0.0463242 0.0
-0.0236768 0.0401294 0.0
-0.022029 0.0343136 0.0
-0.0202943 0.0288961 0.0
-0.018477 0.0238947 0.0
-0.0165812 0.0193259 0.0
-0.0146123 0.0152053 0.0
-0.012578 0.0115469 0.0
-0.0104909 0.00836397 0.0
-0.00837255 0.00566843 0.0
-0.00625728 0.00347226 0.0
-0.0041992 0.00178264 0.0
-0.00227778 0.00061331 0.0
-0.000610223 8.09226e-05 0.0
0.793094 0.0085964 0.0
0.45877 0.0435454 0.0
0.233447 0.0951569 0.0
0.0939736 0.140603 0.0
0.0126669 0.176493 0.0
-0.0315542 0.202515 0.0
-0.0529889 0.219635 0.0
-0.0615031 0.230017 0.0
-0.0630683 0.235426 0.0
-0.0612055 0.237242 0.0
-0.0579353 0.236485 0.0
-0.0543732 0.233877 0.0
-0.0510948 0.229921 0.0
-0.0483588 0.224958 0.0
-0.0462416 0.219221 0.0
-0.0447197 0.212865 0.0
-0.043718 0.205999 0.0
-0.0431389 0.198701 0.0
-0.0428795 0.191033 0.0
-0.0428406 0.183045 0.0
-0.0429321 0.174786 0.0
-0.0430754 0.166302 0.0
-0.0432046 0.157639 0.0
-0.0432658 0.148845 0.0
-0.0432173 0.139969 0.0
-0.043028 0.131059 0.0
-0.0426766 0.122164 0.0
-0.0421502 0.113331 0.0
-0.0414429 0.104605 0.0
-0.0405544 0.0960309 0.0
-0.0394891 0.087648 0.0
-0.0382544 0.0794941 0.0
-0.0368595 0.0716035 0.0
-0.0353151 0.0640073 0.0
-0.0336316 0.0567337 0.0
-0.0318192 0.0498079 0.0
-0.0298869 0.0432528 0.0
-0.0278427 0.037089 0.0
-0.0256931 0.0313354 0.0
-0.0234437 0.0260095 0.0
-0.0210999 0.0211278 0.0
-0.0186678 0.0167057 0.0
-0.0161559 0.0127584 0.0
-0.0135776 0.0093009 0.0
-0.010954 0.00634874 0.0
-0.00831825 0.00391989 0.0
-0.00572056 0.00202986 0.0
-0.00323225 0.000705304 0.0
-0.000954335 9.47896e-05 0.0
0.814043 0.00613617 0.0
0.501112 0.0349354 0.0
0.279031 0.0802433 0.0
0.133979 0.122652 0.0
0.0442382 0.158224 0.0
-0.00859926 0.185952 0.0
-0.0374883 0.205923 0.0
-0.0518403 0.219449 0.0
-0.0578144 0.227956 0.0
-0.0592315 0.232618 0.0
-0.0583946 0.234354 0.0
-0.0566507 0.23386 0.0
-0.0547521 0.231645 0.0
-0.0530865 0.228079 0.0
-0.0518214 0.223431 0.0
-0.0509955 0.217899 0.0
-0.0505748 0.211628 0.0
-0.0504882 0.204734 0.0
-0.0506485 0.19731 0.0
-0.0509656 0.189435 0.0
-0.0513541 0.181182 0.0
-0.0517377 0.172617 0.0
-0.0520513 0.163807 0.0
-0.0522417 0.154814 0.0
-0.0522676 0.1457 0.0
-0.0520992 0.136524 0.0
-0.0517165 0.127345 0.0
-0.051109 0.118216 0.0
-0.0502734 0.109191 0.0
-0.0492127 0.100315 0.0
-0.0479346 0.0916344 0.0
-0.04645 0.0831881 0.0
-0.0447719 0.0750122 0.0
-0.0429141 0.0671388 0.0
-0.0408905 0.0595962 0.0
-0.0387139 0.0524095 0.0
-0.036396 0.045601 0.0
-0.0339466 0.0391906 0.0
-0.0313739 0.0331965 0.0
-0.0286847 0.0276352 0.0
-0.0258851 0.0225229 0.0
-0.0229816 0.017875 0.0
-0.0199825 0.0137077 0.0
-0.0169004 0.0100377 0.0
-0.0137541 0.00688453 0.0
-0.0105731 0.00427191 0.0
-0.00740042 0.00222318 0.0
-0.00429576 0.000776263 0.0
-0.00134089 0.00010508 0.0
0.830814 0.00458261 0.0
0.537355 0.0286946 0.0
0.320198 0.0685943 0.0
0.172016 0.107844 0.0
0.0759366 0.142352 0.0
0.0161377 0.17057 0.0
-0.0195353 0.192357 0.0
-0.039491 0.208139 0.0
-0.0499195 0.219024 0.0
-0.0548217 0.225987 0.0
-0.0567028 0.229832 0.0
-0.0570897 0.231196 0.0
-0.0568808 0.23057 0.0
-0.0565756 0.228328 0.0
-0.0564243 0.224757 0.0
-0.0565246 0.220075 0.0
-0.0568838 0.214458 0.0
-0.0574584 0.208045 0.0
-0.0581799 0.200955 0.0
-0.0589698 0.193291 0.0
-0.0597506 0.185147 0.0
-0.0604507 0.17661 0.0
-0.0610086 0.167761 0.0
-0.0613738 0.158678 0.0
-0.0615079 0.149436 0.0
-0.0613839 0.140104 0.0
-0.0609854 0.13075 0.0
-0.0603054 0.121435 0.0
-0.0593449 0.112218 0.0
-0.0581113 0.10315 0.0
-0.0566169 0.0942796 0.0
-0.0548771 0.0856476 0.0
-0.0529093 0.0772917 0.0
-0.0507316 0.0692444 0.0
-0.0483613 0.0615338 0.0
-0.0458147 0.0541843 0.0
-0.0431061 0.0472171 0.0
-0.0402475 0.040651 0.0
-0.0372487 0.0345028 0.0
-0.0341174 0.0287882 0.0
-0.0308601 0.0235222 0.0
-0.027483 0.0187204 0.0
-0.023993 0.0143994 0.0
-0.0204005 0.0105781 0.0
-0.0167205 0.00727899 0.0
-0.0129764 0.00453132 0.0
-0.00920164 0.00236524 0.0
-0.0054422 0.000827884 0.0
-0.00175909 0.00011233 0.0
0.84461 0.00356919 0.0
0.568704 0.0240681 0.0
0.357384 0.0593953 0.0
0.207818 0.0956069 0.0
0.107012 0.12868 0.0
0.0414301 0.156757 0.0
2.42862e-05 0.179395 0.0
-0.0251841 0.196745 0.0
-0.0399778 0.209399 0.0
-0.0484344 0.21817 0.0
-0.0531939 0.223743 0.0
-0.0559189 0.226686 0.0
-0.0576242 0.227456 0.0
-0.0589029 0.226415 0.0
-0.0600766 0.22385 0.0
-0.0612961 0.219994 0.0
-0.0626068 0.215034 0.0
-0.0639925 0.20913 0.0
-0.0654033 0.202419 0.0
-0.0667741 0.195024 0.0
-0.0680362 0.187055 0.0
-0.069125 0.178617 0.0
-0.0699842 0.169805 0.0
-0.070568 0.160712 0.0
-0.0708426 0.151424 0.0
-0.0707857 0.142021 0.0
-0.0703858 0.132579 0.0
-0.0696415 0.123166 0.0
-0.0685592 0.113847 0.0
-0.0671521 0.104676 0.0
-0.0654381 0.0957057 0.0
-0.0634384 0.0869785 0.0
-0.0611756 0.0785329 0.0
-0.0586725 0.0704013 0.0
-0.055951 0.0626111 0.0
-0.0530309 0.0551856 0.0
-0.0499295 0.0481446 0.0
-0.0466611 0.041505 0.0
-0.0432369 0.0352821 0.0
-0.0396654 0.0294899 0.0
-0.0359529 0.0241425 0.0
-0.0321043 0.019255 0.0
-0.0281247 0.0148442 0.0
-0.0240205 0.0109303 0.0
-0.0198017 0.007539 0.0
-0.0154835 0.00470356 0.0
-0.0110884 0.00245982 0.0
-0.00664705 0.000862099 0.0
-0.00219925 0.000117021 0.0
0.856219 0.00288235 0.0
0.596107 0.0205556 0.0
0.391062 0.0520297 0.0
0.241363 0.0854177 0.0
0.13712 0.116881 0.0
0.0668079 0.144415 0.0
0.02047 0.167316 0.0
-0.00952815 0.185633 0.0
-0.0285028 0.199565 0.0
-0.040487 0.209715 0.0
-0.0481936 0.216666 0.0
-0.0533816 0.220914 0.0
-0.0571556 0.222873 0.0
-0.0601839 0.222884 0.0
-0.0628476 0.221225 0.0
-0.0653429 0.218131 0.0
-0.0677491 0.213797 0.0
-0.0700745 0.208393 0.0
-0.0722872 0.202072 0.0
-0.0743348 0.194969 0.0
-0.0761587 0.187211 0.0
-0.0777016 0.178915 0.0
-0.0789139 0.170191 0.0
-0.079756 0.161144 0.0
-0.0802001 0.15187 0.0
-0.08023 0.14246 0.0
-0.079841 0.132997 0.0
-0.0790384 0.123557 0.0
-0.0778356 0.114207 0.0
-0.076253 0.105009 0.0
-0.0743153 0.0960153 0.0
-0.0720504 0.0872708 0.0
-0.0694871 0.0788139 0.0
-0.0666538 0.0706767 0.0
-0.0635773 0.0628856 0.0
-0.0602815 0.0554622 0.0
-0.0567869 0.0484242 0.0
-0.0531101 0.0417865 0.0
-0.0492639 0.0355622 0.0
-0.045257 0.0297634 0.0
-0.0410951 0.0244027 0.0
-0.0367813 0.0194942 0.0
-0.0323175 0.0150545 0.0
-0.0277054 0.0111049 0.0
-0.0229482 0.00767281 0.0
-0.0180521 0.0047948 0.0
-0.0130271 0.00251093 0.0
-0.00788774 0.000880746 0.0
-0.00265282 0.000119552 0.0
0.866175 0.00239746 0.0
0.620294 0.0178258 0.0
0.42167 0.0460462 0.0
0.272723 0.0768582 0.0
0.166047 0.106666 0.0
0.0918625 0.133412 0.0
0.0412376 0.156223 0.0
0.00706683 0.174962 0.0
-0.0158996 0.189792 0.0
-0.031336 0.200968 0.0
-0.0419986 0.208991 0.0
-0.0497147 0.214291 0.0
-0.0556571 0.217236 0.0
-0.060553 0.21814 0.0
-0.0648317 0.21727 0.0
-0.0687267 0.214852 0.0
-0.0723458 0.211086 0.0
-0.0757186 0.206149 0.0
-0.0788289 0.200202 0.0
-0.0816363 0.19339 0.0
-0.0840916 0.185854 0.0
-0.0861456 0.177722 0.0
-0.0877559 0.169116 0.0
-0.0888901 0.160151 0.0
-0.0895275 0.150934 0.0
-0.0896598 0.141565 0.0
-0.0892901 0.132134 0.0
-0.0884319 0.122723 0.0
-0.0871072 0.113405 0.0
-0.0853446 0.104242 0.0
-0.0831772 0.0952914 0.0
-0.0806403 0.0865975 0.0
-0.0777701 0.078199 0.0
-0.0746012 0.0701271 0.0
-0.0711658 0.0624063 0.0
-0.0674926 0.0550562 0.0
-0.0636054 0.0480922 0.0
-0.0595232 0.0415264 0.0
-0.0552601 0.0353693 0.0
-0.0508249 0.0296307 0.0
-0.0462221 0.0243213 0.0
-0.0414524 0.0194535 0.0
-0.0365137 0.0150435 0.0
-0.0314021 0.0111124 0.0
-0.0261129 0.00768862 0.0
-0.020642 0.00481094 0.0
-0.0149862 0.0025222 0.0
-0.00914358 0.000885395 0.0
-0.00311219 0.000120231 0.0
0.874845 0.00204082 0.0
0.641833 0.0156555 0.0
0.449596 0.0411121 0.0
0.302026 0.0695931 0.0
0.193703 0.0977662 0.0
0.116363 0.123583 0.0
0.0620138 0.146064 0.0
0.0240626 0.164925 0.0
-0.00252303 0.180242 0.0
-0.0212891 0.192151 0.0
-0.0348737 0.200976 0.0
-0.0451396 0.207095 0.0
-0.0533084 0.210833 0.0
-0.060152 0.212473 0.0
-0.0661373 0.212264 0.0
-0.0715274 0.210426 0.0
-0.0764529 0.207157 0.0
-0.0809606 0.202634 0.0
-0.0850475 0.197025 0.0
-0.0886837 0.190487 0.0
-0.0918286 0.183165 0.0
-0.0944408 0.175202 0.0
-0.0964856 0.166727 0.0
-0.0979383 0.157868 0.0
-0.0987867 0.148738 0.0
-0.0990311 0.139446 0.0
-0.0986842 0.130089 0.0
-0.0977688 0.120754 0.0
-0.096317 0.111518 0.0
-0.0943669 0.102447 0.0
-0.0919609 0.0935978 0.0
-0.0891432 0.0850159 0.0
-0.0859579 0.0767394 0.0
-0.0824469 0.0687976 0.0
-0.0786484 0.0612131 0.0
-0.0745958 0.0540029 0.0
-0.0703169 0.0471792 0.0
-0.0658331 0.0407512 0.0
-0.0611596 0.0347264 0.0
-0.056305 0.0291118 0.0
-0.0512722 0.0239153 0.0
-0.046059 0.0191474 0.0
-0.0406584 0.0148229 0.0
-0.0350601 0.0109621 0.0
-0.0292507 0.00759371 0.0
-0.0232151 0.0047571 0.0
-0.0169363 0.00249668 0.0
-0.0103955 0.000877287 0.0
-0.00357052 0.000119277 0.0
0.882488 0.00176796 0.0
0.66116 0.0138918 0.0
0.475171 0.0369799 0.0
0.329413 0.063354 0.0
0.220061 0.0899456 0.0
0.140159 0.114753 0.0
0.0825774 0.136731 0.0
0.0412257 0.15549 0.0
0.0113382 0.170994 0.0
-0.0106096 0.183378 0.0
-0.0270541 0.192775 0.0
-0.03986 0.199505 0.0
-0.0502814 0.203854 0.0
-0.0591231 0.206077 0.0
-0.0668792 0.206403 0.0
-0.0738354 0.205041 0.0
-0.0801392 0.202184 0.0
-0.0858509 0.198012 0.0
-0.0909774 0.192696 0.0
-0.0954975 0.186398 0.0
-0.0993779 0.179272 0.0
-0.102585 0.171469 0.0
-0.105091 0.16313 0.0
-0.10688 0.154387 0.0
-0.10795 0.145366 0.0
-0.10831 0.136179 0.0
-0.107983 0.126931 0.0
-0.107004 0.117713 0.0
-0.105415 0.108605 0.0
-0.103266 0.0996761 0.0
-0.100609 0.090982 0.0
-0.0974992 0.0825692 0.0
-0.0939888 0.0744739 0.0
-0.0901277 0.0667235 0.0
-0.0859607 0.0593379 0.0
-0.0815267 0.0523306 0.0
-0.0768571 0.0457106 0.0
-0.071976 0.0394836 0.0
-0.0668996 0.0336534 0.0
-0.061636 0.0282236 0.0
-0.0561864 0.0231992 0.0
-0.0505447 0.0185881 0.0
-0.0446988 0.0144028 0.0
-0.038631 0.0106623 0.0
-0.0323189 0.00739411 0.0
-0.0257356 0.00463738 0.0
-0.0188498 0.00243672 0.0
-0.0116259 0.000857323 0.0
-0.00402155 0.000116834 0.0
0.889292 0.00155128 0.0
0.678615 0.0124274 0.0
0.498672 0.0334635 0.0
0.355021 0.0579273 0.0
0.245123 0.0830034 0.0
0.163149 0.106758 0.0
0.102755 0.128114 0.0
0.0583288 0.146604 0.0
0.0253714 0.162105 0.0
0.000482162 0.174691 0.0
-0.0187445 0.184466 0.0
-0.0340601 0.191619 0.0
-0.0467379 0.196413 0.0
-0.0576048 0.199072 0.0
-0.0671741 0.199806 0.0
-0.0757467 0.198814 0.0
-0.0834822 0.196282 0.0
-0.0904497 0.19239 0.0
-0.0966634 0.187311 0.0
-0.102109 0.181212 0.0
-0.106758 0.174255 0.0
-0.110585 0.166597 0.0
-0.113569 0.158388 0.0
-0.115704 0.149769 0.0
-0.116996 0.14087 0.0
-0.117467 0.131812 0.0
-0.117151 0.122704 0.0
-0.116095 0.113641 0.0
-0.114355 0.104704 0.0
-0.111991 0.095964 0.0
-0.109068 0.0874771 0.0
-0.105652 0.0792883 0.0
-0.101804 0.0714317 0.0
-0.0975832 0.0639319 0.0
-0.0930415 0.0568054 0.0
-0.0882232 0.0500622 0.0
-0.083164 0.0437072 0.0
-0.0778904 0.037742 0.0
-0.0724196 0.0321665 0.0
-0.0667591 0.0269805 0.0
-0.0609076 0.0221854 0.0
-0.0548553 0.0177859 0.0
-0.048584 0.0137917 0.0
-0.0420685 0.0102194 0.0
-0.0352766 0.00709457 0.0
-0.0281692 0.00445489 0.0
-0.0207006 0.00234399 0.0
-0.012818 0.000826103 0.0
-0.00445939 0.000112979 0.0
0.895393 0.00137306 0.0
0.694461 0.0111852 0.0
0.520326 0.0304206 0.0
0.378977 0.053141 0.0
0.268909 0.0767672 0.0
0.185269 0.0994467 0.0
0.122424 0.120091 0.0
0.0752174 0.138176 0.0
0.0394161 0.153516 0.0
0.0117624 0.166112 0.0
-0.0101323 0.176073 0.0
-0.0279099 0.18348 0.0
-0.04283 0.188562 0.0
-0.0557311 0.191517 0.0
-0.0671379 0.192536 0.0
-0.07736 0.191807 0.0
-0.0865637 0.189509 0.0
-0.0948231 0.185822 0.0
-0.102157 0.180919 0.0
-0.108554 0.174974 0.0
-0.113993 0.168153 0.0
-0.118453 0.160621 0.0
-0.121921 0.152535 0.0
-0.1244 0.144041 0.0
-0.125907 0.135278 0.0
-0.126477 0.126371 0.0
-0.126156 0.117433 0.0
-0.125005 0.10856 0.0