# vtk DataFile Version 3.0
Malha 2D com triângulos e temperatura
ASCII
DATASET UNSTRUCTURED_GRID

POINTS 2500 double
0 0 0
1 0 0
1 1 0
0 1 0
0.0204082 0 0
0.0408163 0 0
0.0612245 0 0
0.0816327 0 0
0.102041 0 0
0.122449 0 0
0.142857 0 0
0.163265 0 0
0.183673 0 0
0.204082 0 0
0.22449 0 0
0.244898 0 0
0.265306 0 0
0.285714 0 0
0.306122 0 0
0.326531 0 0
0.346939 0 0
0.367347 0 0
0.387755 0 0
0.408163 0 0
0.428571 0 0
0.44898 0 0
0.469388 0 0
0.489796 0 0
0.510204 0 0
0.530612 0 0
0.55102 0 0
0.571429 0 0
0.591837 0 0
0.612245 0 0
0.632653 0 0
0.653061 0 0
0.673469 0 0
0.693878 0 0
0.714286 0 0
0.734694 0 0
0.755102 0 0
0.77551 0 0
0.795918 0 0
0.816327 0 0
0.836735 0 0
0.857143 0 0
0.877551 0 0
0.897959 0 0
0.918367 0 0
0.938776 0 0
0.959184 0 0
0.979592 0 0
1 0.0204082 0
1 0.0408163 0
1 0.0612245 0
1 0.0816327 0
1 0.102041 0
1 0.122449 0
1 0.142857 0
1 0.163265 0
1 0.183673 0
1 0.204082 0
1 0.22449 0
1 0.244898 0
1 0.265306 0
1 0.285714 0
1 0.306122 0
1 0.326531 0
1 0.346939 0
1 0.367347 0
1 0.387755 0
1 0.408163 0
1 0.428571 0
1 0.44898 0
1 0.469388 0
1 0.489796 0
1 0.510204 0
1 0.530612 0
1 0.55102 0
1 0.571429 0
1 0.591837 0
1 0.612245 0
1 0.632653 0
1 0.653061 0
1 0.673469 0
1 0.693878 0
1 0.714286 0
1 0.734694 0
1 0.755102 0
1 0.77551 0
1 0.795918 0
1 0.816327 0
1 0.836735 0
1 0.857143 0
1 0.877551 0
1 0.897959 0
1 0.918367 0
1 0.938776 0
1 0.959184 0
1 0.979592 0
0.979592 1 0
0.959184 1 0
0.938776 1 0
0.918367 1 0
0.897959 1 0
0.877551 1 0
0.857143 1 0
0.836735 1 0
0.816327 1 0
0.795918 1 0
0.77551 1 0
0.755102 1 0
0.734694 1 0
0.714286 1 0
0.693878 1 0
0.673469 1 0
0.653061 1 0
0.632653 1 0
0.612245 1 0
0.591837 1 0
0.571429 1 0
0.55102 1 0
0.530612 1 0
0.510204 1 0
0.489796 1 0
0.469388 1 0
0.44898 1 0
0.428571 1 0
0.408163 1 0
0.387755 1 0
0.367347 1 0
0.346939 1 0
0.326531 1 0
0.306122 1 0
0.285714 1 0
0.265306 1 0
0.244898 1 0
0.22449 1 0
0.204082 1 0
0.183673 1 0
0.163265 1 0
0.142857 1 0
0.122449 1 0
0.102041 1 0
0.0816327 1 0
0.0612245 1 0
0.0408163 1 0
0.0204082 1 0
0 0.979592 0
0 0.959184 0
0 0.938776 0
0 0.918367 0
0 0.897959 0
0 0.877551 0
0 0.857143 0
0 0.836735 0
0 0.816327 0
0 0.795918 0
0 0.77551 0
0 0.755102 0
0 0.734694 0
0 0.714286 0
0 0.693878 0
0 0.673469 0
0 0.653061 0
0 0.632653 0
0 0.612245 0
0 0.591837 0
0 0.571429 0
0 0.55102 0
0 0.530612 0
0 0.510204 0
0 0.489796 0
0 0.469388 0
0 0.44898 0
0 0.428571 0
0 0.408163 0
0 0.387755 0
0 0.367347 0
0 0.346939 0
0 0.326531 0
0 0.306122 0
0 0.285714 0
0 0.265306 0
0 0.244898 0
0 0.22449 0
0 0.204082 0
0 0.183673 0
0 0.163265 0
0 0.142857 0
0 0.122449 0
0 0.102041 0
0 0.0816327 0
0 0.0612245 0
0 0.0408163 0
0 0.0204082 0
0.0204082 0.979592 0
0.0204082 0.959184 0
0.0204082 0.938776 0
0.0204082 0.918367 0
0.0204082 0.897959 0
0.0204082 0.877551 0
0.0204082 0.857143 0
0.0204082 0.836735 0
0.0204082 0.816327 0
0.0204082 0.795918 0
0.0204082 0.77551 0
0.0204082 0.755102 0
0.0204082 0.734694 0
0.0204082 0.714286 0
0.0204082 0.693878 0
0.0204082 0.673469 0
0.0204082 0.653061 0
0.0204082 0.632653 0
0.0204082 0.612245 0
0.0204082 0.591837 0
0.0204082 0.571429 0
0.0204082 0.55102 0
0.0204082 0.530612 0
0.0204082 0.510204 0
0.0204082 0.489796 0
0.0204082 0.469388 0
0.0204082 0.44898 0
0.0204082 0.428571 0
0.0204082 0.408163 0
0.0204082 0.387755 0
0.0204082 0.367347 0
0.0204082 0.346939 0
0.0204082 0.326531 0
0.0204082 0.306122 0
0.0204082 0.285714 0
0.0204082 0.265306 0
0.0204082 0.244898 0
0.0204082 0.22449 0
0.0204082 0.204082 0
0.0204082 0.183673 0
0.0204082 0.163265 0
0.0204082 0.142857 0
0.0204082 0.122449 0
0.0204082 0.102041 0
0.0204082 0.0816327 0
0.0204082 0.0612245 0
0.0204082 0.0408163 0
0.0204082 0.0204082 0
0.0408163 0.979592 0
0.0408163 0.959184 0
0.0408163 0.938776 0
0.0408163 0.918367 0
0.0408163 0.897959 0
0.0408163 0.877551 0
0.0408163 0.857143 0
0.0408163 0.836735 0
0.0408163 0.816327 0
0.0408163 0.795918 0
0.0408163 0.77551 0
0.0408163 0.755102 0
0.0408163 0.734694 0
0.0408163 0.714286 0
0.0408163 0.693878 0
0.0408163 0.673469 0
0.0408163 0.653061 0
0.0408163 0.632653 0
0.0408163 0.612245 0
0.0408163 0.591837 0
0.0408163 0.571429 0
0.0408163 0.55102 0
0.0408163 0.530612 0
0.0408163 0.510204 0
0.0408163 0.489796 0
0.0408163 0.469388 0
0.0408163 0.44898 0
0.0408163 0.428571 0
0.0408163 0.408163 0
0.0408163 0.387755 0
0.0408163 0.367347 0
0.0408163 0.346939 0
0.0408163 0.326531 0
0.0408163 0.306122 0
0.0408163 0.285714 0
0.0408163 0.265306 0
0.0408163 0.244898 0
0.0408163 0.22449 0
0.0408163 0.204082 0
0.0408163 0.183673 0
0.0408163 0.163265 0
0.0408163 0.142857 0
0.0408163 0.122449 0
0.0408163 0.102041 0
0.0408163 0.0816327 0
0.0408163 0.0612245 0
0.0408163 0.0408163 0
0.0408163 0.0204082 0
0.0612245 0.979592 0
0.0612245 0.959184 0
0.0612245 0.938776 0
0.0612245 0.918367 0
0.0612245 0.897959 0
0.0612245 0.877551 0
0.0612245 0.857143 0
0.0612245 0.836735 0
0.0612245 0.816327 0
0.0612245 0.795918 0
0.0612245 0.77551 0
0.0612245 0.755102 0
0.0612245 0.734694 0
0.0612245 0.714286 0
0.0612245 0.693878 0
0.0612245 0.673469 0
0.0612245 0.653061 0
0.0612245 0.632653 0
0.0612245 0.612245 0
0.0612245 0.591837 0
0.0612245 0.571429 0
0.0612245 0.55102 0
0.0612245 0.530612 0
0.0612245 0.510204 0
0.0612245 0.489796 0
0.0612245 0.469388 0
0.0612245 0.44898 0
0.0612245 0.428571 0
0.0612245 0.408163 0
0.0612245 0.387755 0
0.0612245 0.367347 0
0.0612245 0.346939 0
0.0612245 0.326531 0
0.0612245 0.306122 0
0.0612245 0.285714 0
0.0612245 0.265306 0
0.0612245 0.244898 0
0.0612245 0.22449 0
0.0612245 0.204082 0
0.0612245 0.183673 0
0.0612245 0.163265 0
0.0612245 0.142857 0
0.0612245 0.122449 0
0.0612245 0.102041 0
0.0612245 0.0816327 0
0.0612245 0.0612245 0
0.0612245 0.0408163 0
0.0612245 0.0204082 0
0.0816327 0.979592 0
0.0816327 0.959184 0
0.0816327 0.938776 0
0.0816327 0.918367 0
0.0816327 0.897959 0
0.0816327 0.877551 0
0.0816327 0.857143 0
0.0816327 0.836735 0
0.0816327 0.816327 0
0.0816327 0.795918 0
0.0816327 0.77551 0
0.0816327 0.755102 0
0.0816327 0.734694 0
0.0816327 0.714286 0
0.0816327 0.693878 0
0.0816327 0.673469 0
0.0816327 0.653061 0
0.0816327 0.632653 0
0.0816327 0.612245 0
0.0816327 0.591837 0
0.0816327 0.571429 0
0.0816327 0.55102 0
0.0816327 0.530612 0
0.0816327 0.510204 0
0.0816327 0.489796 0
0.0816327 0.469388 0
0.0816327 0.44898 0
0.0816327 0.428571 0
0.0816327 0.408163 0
0.0816327 0.387755 0
0.0816327 0.367347 0
0.0816327 0.346939 0
0.0816327 0.326531 0
0.0816327 0.306122 0
0.0816327 0.285714 0
0.0816327 0.265306 0
0.0816327 0.244898 0
0.0816327 0.22449 0
0.0816327 0.204082 0
0.0816327 0.183673 0
0.0816327 0.163265 0
0.0816327 0.142857 0
0.0816327 0.122449 0
0.0816327 0.102041 0
0.0816327 0.0816327 0
0.0816327 0.0612245 0
0.0816327 0.0408163 0
0.0816327 0.0204082 0
0.102041 0.979592 0
0.102041 0.959184 0
0.102041 0.938776 0
0.102041 0.918367 0
0.102041 0.897959 0
0.102041 0.877551 0
0.102041 0.857143 0
0.102041 0.836735 0
0.102041 0.816327 0
0.102041 0.795918 0
0.102041 0.77551 0
0.102041 0.755102 0
0.102041 0.734694 0
0.102041 0.714286 0
0.102041 0.693878 0
0.102041 0.673469 0
0.102041 0.653061 0
0.102041 0.632653 0
0.102041 0.612245 0
0.102041 0.591837 0
0.102041 0.571429 0
0.102041 0.55102 0
0.102041 0.530612 0
0.102041 0.510204 0
0.102041 0.489796 0
0.102041 0.469388 0
0.102041 0.44898 0
0.102041 0.428571 0
0.102041 0.408163 0
0.102041 0.387755 0
0.102041 0.367347 0
0.102041 0.346939 0
0.102041 0.326531 0
0.102041 0.306122 0
0.102041 0.285714 0
0.102041 0.265306 0
0.102041 0.244898 0
0.102041 0.22449 0
0.102041 0.204082 0
0.102041 0.183673 0
0.102041 0.163265 0
0.102041 0.142857 0
0.102041 0.122449 0
0.102041 0.102041 0
0.102041 0.0816327 0
0.102041 0.0612245 0
0.102041 0.0408163 0
0.102041 0.0204082 0
0.122449 0.979592 0
0.122449 0.959184 0
0.122449 0.938776 0
0.122449 0.918367 0
0.122449 0.897959 0
0.122449 0.877551 0
0.122449 0.857143 0
0.122449 0.836735 0
0.122449 0.816327 0
0.122449 0.795918 0
0.122449 0.77551 0
0.122449 0.755102 0
0.122449 0.734694 0
0.122449 0.714286 0
0.122449 0.693878 0
0.122449 0.673469 0
0.122449 0.653061 0
0.122449 0.632653 0
0.122449 0.612245 0
0.122449 0.591837 0
0.122449 0.571429 0
0.122449 0.55102 0
0.122449 0.530612 0
0.122449 0.510204 0
0.122449 0.489796 0
0.122449 0.469388 0
0.122449 0.44898 0
0.122449 0.428571 0
0.122449 0.408163 0
0.122449 0.387755 0
0.122449 0.367347 0
0.122449 0.346939 0
0.122449 0.326531 0
0.122449 0.306122 0
0.122449 0.285714 0
0.122449 0.265306 0
0.122449 0.244898 0
0.122449 0.22449 0
0.122449 0.204082 0
0.122449 0.183673 0
0.122449 0.163265 0
0.122449 0.142857 0
0.122449 0.122449 0
0.122449 0.102041 0
0.122449 0.0816327 0
0.122449 0.0612245 0
0.122449 0.0408163 0
0.122449 0.0204082 0
0.142857 0.979592 0
0.142857 0.959184 0
0.142857 0.938776 0
0.142857 0.918367 0
0.142857 0.897959 0
0.142857 0.877551 0
0.142857 0.857143 0
0.142857 0.836735 0
0.142857 0.816327 0
0.142857 0.795918 0
0.142857 0.77551 0
0.142857 0.755102 0
0.142857 0.734694 0
0.142857 0.714286 0
0.142857 0.693878 0
0.142857 0.673469 0
0.142857 0.653061 0
0.142857 0.632653 0
0.142857 0.612245 0
0.142857 0.591837 0
0.142857 0.571429 0
0.142857 0.55102 0
0.142857 0.530612 0
0.142857 0.510204 0
0.142857 0.489796 0
0.142857 0.469388 0
0.142857 0.44898 0
0.142857 0.428571 0
0.142857 0.408163 0
0.142857 0.387755 0
0.142857 0.367347 0
0.142857 0.346939 0
0.142857 0.326531 0
0.142857 0.306122 0
0.142857 0.285714 0
0.142857 0.265306 0
0.142857 0.244898 0
0.142857 0.22449 0
0.142857 0.204082 0
0.142857 0.183673 0
0.142857 0.163265 0
0.142857 0.142857 0
0.142857 0.122449 0
0.142857 0.102041 0
0.142857 0.0816327 0
0.142857 0.0612245 0
0.142857 0.0408163 0
0.142857 0.0204082 0
0.163265 0.979592 0
0.163265 0.959184 0
0.163265 0.938776 0
0.163265 0.918367 0
0.163265 0.897959 0
0.163265 0.877551 0
0.163265 0.857143 0
0.163265 0.836735 0
0.163265 0.816327 0
0.163265 0.795918 0
0.163265 0.77551 0
0.163265 0.755102 0
0.163265 0.734694 0
0.163265 0.714286 0
0.163265 0.693878 0
0.163265 0.673469 0
0.163265 0.653061 0
0.163265 0.632653 0
0.163265 0.612245 0
0.163265 0.591837 0
0.163265 0.571429 0
0.163265 0.55102 0
[...]
CELL_DATA 2401
VECTORS velocity double
0.257582 0.1573 0.0
-0.00255471 0.264549 0.0
-0.0321398 0.205836 0.0
-0.0252367 0.151256 0.0
-0.015963 0.11398 0.0
-0.0096634 0.0887568 0.0
-0.00594618 0.071656 0.0
-0.00381154 0.0597784 0.0
-0.00256725 0.0512395 0.0
-0.0018169 0.0448845 0.0
-0.00134564 0.0399984 0.0
-0.00103782 0.0361264 0.0
-0.000829877 0.0329706 0.0
-0.000685559 0.0303298 0.0
-0.000583233 0.0280651 0.0
-0.000509403 0.0260786 0.0
-0.000455294 0.0243002 0.0
-0.000415002 0.0226797 0.0
-0.00038444 0.0211808 0.0
-0.000360721 0.0197772 0.0
-0.000341779 0.0184503 0.0
-0.000326117 0.0171868 0.0
-0.000312657 0.0159776 0.0
-0.000300621 0.0148165 0.0
-0.000289458 0.0136994 0.0
-0.000278785 0.012624 0.0
-0.000268346 0.0115887 0.0
-0.000257978 0.010593 0.0
-0.000247585 0.00963664 0.0
-0.000237116 0.00871969 0.0
-0.000226551 0.00784238 0.0
-0.000215884 0.00700504 0.0
-0.000205113 0.00620799 0.0
-0.000194233 0.00545166 0.0
-0.000183223 0.00473648 0.0
-0.000172044 0.00406305 0.0
-0.000160633 0.00343212 0.0
-0.000148895 0.00284473 0.0
-0.000136697 0.00230225 0.0
-0.000123863 0.00180653 0.0
-0.000110164 0.00135997 0.0
-9.53089e-05 0.000965623 0.0
-7.89434e-05 0.000627304 0.0
-6.067e-05 0.00034956 0.0
-4.01492e-05 0.000137485 0.0
-1.7442e-05 -3.93661e-06 0.0
6.05011e-06 -7.15554e-05 0.0
2.55878e-05 -7.02423e-05 0.0
2.69897e-05 -2.68847e-05 0.0
0.340884 0.123043 0.0
-0.000265833 0.249869 0.0
-0.0647108 0.272575 0.0
-0.062769 0.253565 0.0
-0.0482116 0.223377 0.0
-0.0349098 0.193596 0.0
-0.0251346 0.167965 0.0
-0.0183623 0.146979 0.0
-0.0137246 0.130056 0.0
-0.0105257 0.116394 0.0
-0.00828737 0.105257 0.0
-0.00669636 0.0960422 0.0
-0.00554878 0.088285 0.0
-0.00471026 0.0816321 0.0
-0.00409047 0.0758183 0.0
-0.0036273 0.0706452 0.0
-0.00327721 0.0659645 0.0
-0.00300905 0.0616659 0.0
-0.00280025 0.0576675 0.0
-0.00263425 0.0539092 0.0
-0.00249882 0.0503471 0.0
-0.00238491 0.0469498 0.0
-0.00228581 0.0436952 0.0
-0.00219661 0.040568 0.0
-0.00211376 0.0375583 0.0
-0.00203473 0.0346599 0.0
-0.00195776 0.031869 0.0
-0.00188171 0.029184 0.0
-0.00180584 0.0266042 0.0
-0.00172972 0.0241298 0.0
-0.0016531 0.0217612 0.0
-0.00157586 0.0194994 0.0
-0.00149789 0.0173454 0.0
-0.00141908 0.0153002 0.0
-0.00133923 0.0133654 0.0
-0.00125807 0.0115425 0.0
-0.00117515 0.00983366 0.0
-0.0010899 0.00824177 0.0
-0.00100156 0.00677039 0.0
-0.000909192 0.00542414 0.0
-0.000811704 0.00420874 0.0
-0.000707874 0.00313115 0.0
-0.000596481 0.00219944 0.0
-0.000476602 0.00142239 0.0
-0.000348258 0.000808573 0.0
-0.00021395 0.000364448 0.0
-8.19062e-05 9.03603e-05 0.0
2.82881e-05 -2.72841e-05 0.0
6.99455e-05 -2.49405e-05 0.0
0.5012 0.0769187 0.0
0.0998601 0.183735 0.0
-0.0383633 0.250287 0.0
-0.0725564 0.267238 0.0
-0.0714247 0.259146 0.0
-0.0606945 0.241245 0.0
-0.0490694 0.220755 0.0
-0.0390921 0.200961 0.0
-0.0311922 0.183111 0.0
-0.0251394 0.167476 0.0
-0.0205615 0.153916 0.0
-0.0171122 0.142144 0.0
-0.0145114 0.131849 0.0
-0.0125443 0.122749 0.0
-0.0110497 0.114601 0.0
-0.00990699 0.107211 0.0
-0.00902616 0.100421 0.0
-0.0083396 0.0941117 0.0
-0.00779643 0.0881886 0.0
-0.0073582 0.082582 0.0
-0.00699582 0.0772398 0.0
-0.00668734 0.0721242 0.0
-0.00641631 0.0672087 0.0
-0.00617048 0.0624749 0.0
-0.00594089 0.0579111 0.0
-0.00572111 0.0535099 0.0
-0.00550667 0.0492674 0.0
-0.00529456 0.0451821 0.0
-0.00508284 0.0412537 0.0
-0.00487035 0.0374829 0.0
-0.00465641 0.033871 0.0
-0.00444062 0.0304196 0.0
-0.00422267 0.0271305 0.0
-0.0040022 0.0240056 0.0
-0.00377867 0.0210472 0.0
-0.00355131 0.0182578 0.0
-0.00331901 0.0156409 0.0
-0.00308028 0.0132005 0.0
-0.00283329 0.0109417 0.0
-0.00257585 0.00887107 0.0
-0.00230554 0.0069962 0.0
-0.00201988 0.00532614 0.0
-0.00171683 0.00387096 0.0
-0.00139554 0.002641 0.0
-0.00105795 0.00164563 0.0
-0.000711854 0.00089098 0.0
-0.000376347 0.000375138 0.0
-8.98133e-05 8.31367e-05 0.0
6.98085e-05 -4.84666e-06 0.0
0.610682 0.0481658 0.0
0.196967 0.134452 0.0
0.012842 0.210354 0.0
-0.0569465 0.247699 0.0
-0.0756934 0.258223 0.0
-0.0742829 0.254393 0.0
-0.066015 0.243362 0.0
-0.0563754 0.229389 0.0
-0.0474536 0.214775 0.0
-0.0398933 0.200639 0.0
-0.0337508 0.187451 0.0
-0.0288682 0.175339 0.0
-0.0250319 0.164264 0.0
-0.0220345 0.154116 0.0
-0.0196961 0.144764 0.0
-0.0178686 0.13608 0.0
-0.0164328 0.127952 0.0
-0.0152945 0.120283 0.0
-0.0143795 0.112999 0.0
-0.0136302 0.106039 0.0
-0.0130015 0.0993594 0.0
-0.0124591 0.0929267 0.0
-0.0119765 0.0867183 0.0
-0.0115341 0.080719 0.0
-0.0111172 0.0749196 0.0
-0.0107153 0.0693151 0.0
-0.0103211 0.0639035 0.0
-0.00992964 0.0586852 0.0
-0.00953781 0.0536615 0.0
-0.00914371 0.0488345 0.0
-0.00874627 0.0442069 0.0
-0.00834486 0.0397813 0.0
-0.00793899 0.0355604 0.0
-0.00752808 0.0315471 0.0
-0.00711122 0.0277445 0.0
-0.00668708 0.024156 0.0
-0.00625376 0.0207858 0.0
-0.0058088 0.0176389 0.0
-0.00534914 0.0147212 0.0
-0.00487129 0.0120403 0.0
-0.00437147 0.00960472 0.0
-0.00384614 0.00742441 0.0
-0.0032927 0.0055101 0.0
-0.0027109 0.00387254 0.0
-0.00210514 0.00252131 0.0
-0.00148855 0.00146293 0.0
-0.000889648 0.000696092 0.0
-0.000360864 0.000210912 0.0
1.06944e-06 1.85764e-05 0.0
0.681335 0.0302644 0.0
0.280127 0.0985723 0.0
0.0713266 0.171639 0.0
-0.0263787 0.21821 0.0
-0.0652241 0.241374 0.0
-0.075982 0.249156 0.0
-0.0743093 0.247468 0.0
-0.067801 0.240433 0.0
-0.0600085 0.230679 0.0
-0.0525 0.219766 0.0
-0.0458833 0.208575 0.0
-0.0403135 0.197568 0.0
-0.0357448 0.186961 0.0
-0.0320531 0.176829 0.0
-0.0290936 0.167176 0.0
-0.0267273 0.157969 0.0
-0.024831 0.149161 0.0
-0.0233 0.140707 0.0
-0.0220482 0.132563 0.0
-0.0210055 0.124696 0.0
-0.0201161 0.117078 0.0
-0.0193361 0.109691 0.0
-0.0186315 0.102523 0.0
-0.0179765 0.0955671 0.0
-0.017352 0.0888197 0.0
-0.0167442 0.0822816 0.0
-0.0161433 0.0759551 0.0
-0.0155432 0.0698439 0.0
-0.0149399 0.0639522 0.0
-0.014331 0.0582847 0.0
-0.0137155 0.0528456 0.0
-0.0130927 0.0476391 0.0
-0.0124622 0.0426692 0.0
-0.0118232 0.0379397 0.0
-0.0111746 0.0334545 0.0
-0.0105145 0.0292177 0.0
-0.00984044 0.025234 0.0
-0.00914884 0.0215087 0.0
-0.00843553 0.0180485 0.0
-0.00769573 0.014861 0.0
-0.00692445 0.0119552 0.0
-0.00611718 0.00934108 0.0
-0.00527094 0.0070296 0.0
-0.00438608 0.0050317 0.0
-0.00346905 0.00335759 0.0
-0.0025369 0.00201564 0.0
-0.00162407 0.00100789 0.0
-0.000790215 0.00033367 0.0
-0.00013794 4.00719e-05 0.0
0.730897 0.0192539 0.0
0.350871 0.0732546 0.0
0.129682 0.139548 0.0
0.0120925 0.188284 0.0
-0.0449046 0.219036 0.0
-0.068372 0.235125 0.0
-0.0748379 0.241106 0.0
-0.0732047 0.240477 0.0
-0.0681333 0.235754 0.0
-0.0619956 0.228622 0.0
-0.0559408 0.220161 0.0
-0.0504726 0.211042 0.0
-0.0457608 0.201666 0.0
-0.0418099 0.192261 0.0
-0.0385484 0.182953 0.0
-0.0358763 0.173801 0.0
-0.0336886 0.164832 0.0
-0.0318872 0.156054 0.0
-0.0303858 0.147466 0.0
-0.0291108 0.139066 0.0
-0.0280019 0.130851 0.0
-0.0270102 0.122822 0.0
-0.0260977 0.114983 0.0
-0.0252348 0.107337 0.0
-0.0243999 0.0998914 0.0
-0.0235773 0.0926546 0.0
-0.0227563 0.0856349 0.0
-0.0219301 0.0788407 0.0
-0.0210947 0.0722803 0.0
-0.0202481 0.0659612 0.0
-0.0193897 0.0598903 0.0
-0.0185191 0.0540734 0.0
-0.0176364 0.0485161 0.0
-0.0167409 0.043223 0.0
-0.0158315 0.0381988 0.0
-0.014906 0.0334481 0.0
-0.0139612 0.0289758 0.0
-0.0129928 0.0247875 0.0
-0.0119955 0.0208897 0.0
-0.0109634 0.01729 0.0
-0.00989033 0.0139974 0.0
-0.00877077 0.0110216 0.0
-0.00760123 0.00837371 0.0
-0.00638218 0.0060651 0.0
-0.005121 0.00410736 0.0
-0.00383642 0.0025121 0.0
-0.00256476 0.00128666 0.0
-0.00136636 0.000441339 0.0
-0.000339591 5.79347e-05 0.0
0.766963 0.0126078 0.0
0.410303 0.0557054 0.0
0.184435 0.114338 0.0
0.053016 0.16191 0.0
-0.0186952 0.196154 0.0
-0.0540672 0.21768 0.0
-0.0690755 0.229365 0.0
-0.0732213 0.234007 0.0
-0.0719031 0.233797 0.0
-0.0681153 0.230342 0.0
-0.0634746 0.22477 0.0
-0.0588143 0.217848 0.0
-0.0545279 0.210087 0.0
-0.0507671 0.201823 0.0
-0.0475543 0.19327 0.0
-0.044848 0.18457 0.0
-0.0425781 0.175812 0.0
-0.0406664 0.167057 0.0
-0.0390367 0.158345 0.0
-0.0376207 0.149708 0.0
-0.0363596 0.141171 0.0
-0.0352048 0.132756 0.0
-0.0341176 0.124482 0.0
-0.0330682 0.116369 0.0
-0.0320346 0.108436 0.0
-0.0310011 0.100699 0.0
-0.0299577 0.0931739 0.0
-0.0288982 0.0858756 0.0
-0.0278198 0.0788169 0.0
-0.0267215 0.0720089 0.0
-0.0256036 0.0654612 0.0
-0.0244672 0.0591819 0.0
-0.0233128 0.0531779 0.0
-0.0221407 0.0474548 0.0
-0.0209497 0.0420179 0.0
-0.0197378 0.0368721 0.0
-0.0185012 0.0320223 0.0
-0.0172351 0.027474 0.0
-0.0159331 0.0232334 0.0
-0.0145882 0.0193077 0.0
-0.013193 0.0157055 0.0
-0.0117409 0.0124366 0.0
-0.0102274 0.00951193 0.0
-0.00865229 0.0069439 0.0
-0.0070224 0.00474611 0.0
-0.00535562 0.00293427 0.0
-0.00368624 0.00152194 0.0
-0.0020699 0.000530469 0.0
-0.000593706 7.19846e-05 0.0
0.793939 0.00857836 0.0
0.460144 0.043421 0.0
0.234423 0.0947419 0.0
0.0938045 0.139644 0.0
0.0108348 0.174699 0.0
-0.0352487 0.19956 0.0
-0.0585757 0.215246 0.0
-0.0688236 0.223962 0.0
-0.0718319 0.227509 0.0
-0.0710435 0.227321 0.0
-0.0684477 0.224478 0.0
-0.0651631 0.219765 0.0
-0.0617912 0.213742 0.0
-0.0586299 0.206806 0.0
-0.0558026 0.199236 0.0
-0.0533353 0.191229 0.0
-0.0512025 0.182928 0.0
-0.049355 0.174436 0.0
-0.047735 0.165833 0.0
-0.0462856 0.15718 0.0
-0.0449552 0.14853 0.0
-0.0437 0.139927 0.0
-0.0424846 0.131408 0.0
-0.0412815 0.123007 0.0
-0.0400711 0.114756 0.0
-0.0388399 0.10668 0.0
-0.03758 0.0988056 0.0
-0.0362875 0.0911522 0.0
-0.0349619 0.0837381 0.0
-0.0336043 0.0765785 0.0
-0.0322171 0.069686 0.0
-0.0308029 0.0630708 0.0
-0.0293639 0.0567412 0.0
-0.0279011 0.0507039 0.0
-0.0264145 0.0449645 0.0
-0.0249018 0.0395279 0.0
-0.0233595 0.034399 0.0
-0.0217819 0.0295827 0.0
-0.020162 0.0250847 0.0
-0.0184914 0.0209118 0.0
-0.0167616 0.017072 0.0
-0.0149644 0.0135748 0.0
-0.0130938 0.0104317 0.0
-0.0111478 0.00765609 0.0
-0.00913108 0.00526403 0.0
-0.00705828 0.00327561 0.0
-0.00495843 0.00171073 0.0
-0.00287839 0.000600764 0.0
-0.000889728 8.25679e-05 0.0
0.814775 0.00609068 0.0
0.502203 0.0346704 0.0
0.279502 0.079511 0.0
0.133032 0.121192 0.0
0.0413325 0.155746 0.0
-0.0136987 0.182163 0.0
-0.044714 0.20051 0.0
-0.0610008 0.212217 0.0
-0.0685737 0.21874 0.0
-0.0711652 0.221299 0.0
-0.0710431 0.220874 0.0
-0.0695581 0.218215 0.0
-0.0674918 0.21389 0.0
-0.0652766 0.208321 0.0
-0.0631334 0.201824 0.0
-0.0611576 0.194634 0.0
-0.0593726 0.186932 0.0
-0.0577625 0.178855 0.0
-0.0562932 0.170515 0.0
-0.0549236 0.162002 0.0
-0.0536138 0.153391 0.0
-0.0523283 0.144747 0.0
-0.0510379 0.136125 0.0
-0.0497208 0.127574 0.0
-0.0483617 0.119138 0.0
-0.0469515 0.110854 0.0
-0.0454864 0.102754 0.0
-0.0439662 0.094867 0.0
-0.0423938 0.0872151 0.0
-0.0407739 0.0798181 0.0
-0.0391117 0.0726914 0.0
-0.0374123 0.0658475 0.0
-0.03568 0.0592959 0.0
-0.0339176 0.053044 0.0
-0.0321258 0.0470978 0.0
-0.0303034 0.041462 0.0
-0.0284466 0.0361408 0.0
-0.0265494 0.0311387 0.0
-0.024604 0.0264606 0.0
-0.022601 0.0221124 0.0
-0.0205299 0.0181018 0.0
-0.0183811 0.0144379 0.0
-0.0161459 0.0111327 0.0
-0.0138198 0.00820062 0.0
-0.0114034 0.0056604 0.0
-0.00890635 0.0035363 0.0
-0.00634976 0.001854 0.0
-0.00376898 0.000653324 0.0
-0.00121768 9.01617e-05 0.0
0.83136 0.00451437 0.0
0.538017 0.0283055 0.0
0.319991 0.067576 0.0
0.170115 0.105932 0.0
0.0717857 0.139265 0.0
0.00949671 0.166031 0.0
-0.0285401 0.186069 0.0
-0.0506098 0.1999 0.0
-0.0627693 0.208707 0.0
-0.0689248 0.213497 0.0
-0.0715428 0.215128 0.0
-0.0721542 0.214291 0.0
-0.07169 0.211532 0.0
-0.0706994 0.207275 0.0
-0.0694921 0.20185 0.0
-0.0682295 0.195515 0.0
-0.0669832 0.188476 0.0
-0.0657726 0.180897 0.0
-0.0645891 0.172914 0.0
-0.0634107 0.164638 0.0
-0.0622116 0.156168 0.0
-0.0609673 0.147586 0.0
-0.0596577 0.138964 0.0
-0.0582687 0.130366 0.0
-0.0567917 0.121846 0.0
-0.0552241 0.113453 0.0
-0.0535675 0.105227 0.0
-0.0518272 0.097202 0.0
-0.0500112 0.0894077 0.0
-0.0481284 0.0818669 0.0
-0.046188 0.0745981 0.0
-0.0441987 0.0676155 0.0
-0.0421675 0.0609299 0.0
-0.0400994 0.0545492 0.0
-0.0379967 0.0484791 0.0
-0.035859 0.0427241 0.0
-0.0336829 0.0372877 0.0
-0.0314622 0.0321732 0.0
-0.0291883 0.0273848 0.0
-0.0268502 0.0229275 0.0
-0.0244361 0.018808 0.0
-0.0219334 0.0150354 0.0
-0.0193309 0.0116219 0.0
-0.0166199 0.00858304 0.0
-0.013796 0.00593981 0.0
-0.010862 0.00372015 0.0
-0.00782921 0.00195465 0.0
-0.0047198 0.000689804 0.0
-0.00156853 9.52346e-05 0.0
0.844906 0.00348343 0.0
0.568807 0.0235753 0.0
0.356346 0.0581314 0.0
0.204811 0.0933055 0.0
0.101482 0.125071 0.0
0.0331489 0.151581 0.0
-0.010932 0.172429 0.0
-0.0383739 0.187705 0.0
-0.0549942 0.198203 0.0
-0.0647578 0.204751 0.0
-0.0702586 0.20808 0.0
-0.0731606 0.208806 0.0
-0.0745127 0.207436 0.0
-0.074962 0.204381 0.0
-0.0748953 0.19997 0.0
-0.0745331 0.194472 0.0
-0.0739923 0.188105 0.0
-0.0733266 0.181054 0.0
-0.0725532 0.17347 0.0
-0.0716701 0.165488 0.0
-0.0706673 0.15722 0.0
-0.0695332 0.148766 0.0
-0.0682588 0.140214 0.0
-0.0668394 0.13164 0.0
-0.0652752 0.12311 0.0
-0.0635716 0.114682 0.0
-0.0617376 0.106405 0.0
-0.0597855 0.0983193 0.0
-0.0577293 0.0904589 0.0
-0.0555839 0.0828507 0.0
-0.0533634 0.0755158 0.0
-0.0510808 0.0684702 0.0
-0.0487465 0.0617254 0.0
-0.0463685 0.0552895 0.0
-0.0439511 0.0491679 0.0
-0.041495 0.0433641 0.0
-0.0389976 0.0378808 0.0
-0.0364524 0.0327201 0.0
-0.0338499 0.0278848 0.0
-0.0311778 0.0233789 0.0
-0.0284219 0.0192083 0.0
-0.0255671 0.0153815 0.0
-0.0225982 0.0119107 0.0
-0.0195016 0.00881253 0.0
-0.016267 0.00610954 0.0
-0.0128887 0.00383267 0.0
-0.00936732 0.00201635 0.0
-0.00571061 0.00071197 0.0
-0.00193429 9.81972e-05 0.0
0.856216 0.00278423 0.0
0.595541 0.0199813 0.0
0.389062 0.0505654 0.0
0.237124 0.0827948 0.0
0.130102 0.112843 0.0
0.0568039 0.13872 0.0
0.0075913 0.159758 0.0
-0.0248377 0.175989 0.0
-0.0457273 0.187707 0.0
-0.0590559 0.195612 0.0
-0.0674947 0.200312 0.0
-0.0728024 0.202347 0.0
-0.0761185 0.202176 0.0
-0.0781687 0.200186 0.0
-0.0794039 0.196698 0.0
-0.0800964 0.191978 0.0
-0.080403 0.186255 0.0
-0.0804089 0.179723 0.0
-0.080156 0.172549 0.0
-0.0796624 0.16488 0.0
-0.0789342 0.156844 0.0
-0.0779739 0.148556 0.0
-0.0767847 0.140117 0.0
-0.0753732 0.131614 0.0
-0.07375 0.123125 0.0
-0.0719298 0.114717 0.0
-0.0699309 0.106446 0.0
-0.0677738 0.0983579 0.0
-0.0654802 0.0904922 0.0
-0.0630718 0.0828788 0.0
-0.0605688 0.075541 0.0
-0.0579894 0.0684961 0.0
-0.0553485 0.0617562 0.0
-0.0526571 0.0553289 0.0
-0.0499222 0.0492191 0.0
-0.0471462 0.0434291 0.0
-0.044327 0.0379601 0.0
-0.0414583 0.0328129 0.0
-0.0385295 0.0279888 0.0
-0.0355268 0.0234903 0.0
-0.0324334 0.0193222 0.0
-0.0292309 0.0154923 0.0
-0.0258998 0.0120124 0.0
-0.0224209 0.00889967 0.0
-0.0187767 0.00617786 0.0
-0.0149523 0.00387988 0.0
-0.0109368 0.00204285 0.0
-0.00672302 0.000721478 0.0
-0.00230796 9.9388e-05 0.0
0.865836 0.00229186 0.0
0.618971 0.0171923 0.0
0.418601 0.04443 0.0
0.26715 0.0739897 0.0
0.157455 0.102303 0.0
0.0800679 0.127338 0.0
0.0263743 0.14825 0.0
-0.0104728 0.164952 0.0
-0.0353722 0.177519 0.0
-0.0521602 0.186438 0.0
-0.06353 0.19222 0.0
-0.0713003 0.195325 0.0
-0.076676 0.196165 0.0
-0.0804435 0.195094 0.0
-0.0831056 0.192418 0.0
-0.084977 0.188399 0.0
-0.086249 0.183265 0.0
-0.0870345 0.177219 0.0
-0.087398 0.170436 0.0
-0.0873762 0.163076 0.0
-0.0869917 0.155279 0.0
-0.0862614 0.147172 0.0
-0.0852016 0.138867 0.0
-0.0838313 0.130465 0.0
-0.0821728 0.122051 0.0
-0.080252 0.1137 0.0
-0.0780974 0.105477 0.0
-0.0757395 0.0974328 0.0
-0.0732089 0.0896104 0.0
-0.0705354 0.0820428 0.0
-0.0677463 0.0747552 0.0
-0.0648659 0.0677656 0.0
-0.061914 0.0610859 0.0
-0.0589057 0.0547234 0.0
-0.055851 0.0486816 0.0
-0.052754 0.0429615 0.0
-0.0496138 0.0375624 0.0
-0.0464237 0.0324833 0.0
-0.0431725 0.0277237 0.0
-0.0398444 0.0232845 0.0
-0.03642 0.0191689 0.0
-0.0328768 0.0153838 0.0
-0.0291906 0.0119402 0.0
-0.025336 0.00885512 0.0
-0.0212876 0.0061529 0.0
-0.0170209 0.0038675 0.0
-0.0125124 0.00203762 0.0
-0.00774043 0.000719769 0.0
-0.00268338 9.90736e-05 0.0
0.874146 0.0019321 0.0
0.639689 0.0149846 0.0
0.445379 0.0393918 0.0
0.295045 0.066553 0.0
0.183483 0.0931768 0.0
0.10275 0.117248 0.0
0.0451781 0.137816 0.0
0.00443511 0.154643 0.0
-0.0242396 0.167781 0.0
-0.0443556 0.177438 0.0
-0.0586112 0.184053 0.0
-0.0688598 0.188016 0.0
-0.0763518 0.189688 0.0
-0.081918 0.18939 0.0
-0.0861013 0.18741 0.0
-0.0892502 0.184 0.0
-0.0915843 0.179387 0.0
-0.0932396 0.173775 0.0
-0.0943004 0.167348 0.0
-0.094821 0.160275 0.0
-0.0948391 0.152705 0.0
-0.0943863 0.144778 0.0
-0.0934927 0.136615 0.0
-0.0921904 0.128327 0.0
-0.0905149 0.120009 0.0
-0.0885042 0.111743 0.0
-0.0861991 0.1036 0.0
-0.0836409 0.095635 0.0
-0.0808707 0.0878955 0.0
-0.0779273 0.0804167 0.0
-0.0748463 0.0732248 0.0
-0.0716589 0.066338 0.0
-0.0683908 0.0597678 0.0
-0.0650615 0.0535203 0.0
-0.0616842 0.0475975 0.0
-0.0582655 0.0419983 0.0
-0.0548052 0.03672 0.0
-0.0512969 0.0317596 0.0
-0.0477283 0.0271141 0.0
-0.0440815 0.0227826 0.0
-0.0403341 0.0187665 0.0
-0.0364596 0.0150711 0.0
-0.0324282 0.0117064 0.0
-0.028208 0.00868872 0.0
-0.0237651 0.00604211 0.0
-0.0190648 0.00380066 0.0
-0.0140713 0.00200363 0.0
-0.00874782 0.000708022 0.0
-0.00305512 9.74541e-05 0.0
0.881416 0.00165998 0.0
0.658154 0.0132041 0.0
0.469752 0.035203 0.0
0.320975 0.0602179 0.0
0.208179 0.0852334 0.0
0.124715 0.108289 0.0
0.0637715 0.128374 0.0
0.0195208 0.14513 0.0
-0.0126006 0.158561 0.0
-0.0358854 0.168729 0.0
-0.0529541 0.175964 0.0
-0.065668 0.180594 0.0
-0.0753041 0.182932 0.0
-0.0827234 0.183266 0.0
-0.0884978 0.181864 0.0
-0.0930013 0.178966 0.0
-0.096475 0.174795 0.0
-0.0990741 0.169557 0.0
-0.100899 0.163439 0.0
-0.10202 0.156618 0.0
-0.102489 0.149254 0.0
-0.102352 0.141494 0.0
-0.101653 0.13347 0.0
-0.100438 0.125301 0.0
-0.0987575 0.117091 0.0
-0.0966622 0.108928 0.0
-0.0942065 0.100888 0.0
-0.0914441 0.0930327 0.0
-0.0884276 0.08541 0.0
-0.0852065 0.0780574 0.0
-0.0818253 0.0710016 0.0
-0.078323 0.0642606 0.0
-0.0747318 0.0578447 0.0
-0.0710762 0.0517584 0.0
-0.0673731 0.0460015 0.0
-0.0636315 0.0405707 0.0
-0.0598525 0.0354609 0.0
-0.0560296 0.0306662 0.0
-0.0521494 0.0261815 0.0
-0.048192 0.0220032 0.0
-0.0441314 0.0181308 0.0
-0.0399368 0.0145676 0.0
-0.0355728 0.011322 0.0
-0.0310001 0.00840909 0.0
-0.0261765 0.00585184 0.0
-0.0210566 0.00368365 0.0
-0.0155921 0.00194329 0.0
-0.00973151 0.000687154 0.0
-0.00341828 9.46709e-05 0.0
0.887847 0.00144747 0.0
0.674729 0.0117423 0.0
0.492026 0.0316761 0.0
0.345108 0.0547694 0.0
0.231577 0.0782702 0.0
0.145894 0.100294 0.0
0.082022 0.119798 0.0
0.0346124 0.136343 0.0
-0.000649898 0.149852 0.0
-0.0269509 0.160352 0.0
-0.0467464 0.168022 0.0
-0.0618936 0.173151 0.0
-0.0736809 0.176004 0.0
-0.0829872 0.176837 0.0
-0.090403 0.175897 0.0
-0.0963198 0.173413 0.0
-0.100995 0.169602 0.0
-0.104597 0.16467 0.0
-0.10724 0.158808 0.0
-0.109007 0.152198 0.0
-0.109965 0.145009 0.0
-0.110171 0.137396 0.0
-0.109686 0.129501 0.0
-0.108571 0.121451 0.0
-0.106889 0.113355 0.0
-0.104707 0.10531 0.0
-0.102095 0.0973942 0.0
-0.0991198 0.0896734 0.0
-0.0958464 0.0821981 0.0
-0.092336 0.0750061 0.0
-0.0886434 0.0681242 0.0
-0.084816 0.0615692 0.0
-0.0808931 0.0553498 0.0
-0.0769048 0.0494683 0.0
-0.0728719 0.0439219 0.0
-0.0688061 0.0387045 0.0
-0.0647097 0.0338081 0.0
-0.0605762 0.029224 0.0
-0.0563912 0.0249442 0.0
-0.0521321 0.0209625 0.0
-0.0477697 0.0172757 0.0
-0.0432683 0.0138849 0.0
-0.0385866 0.0107964 0.0
-0.033678 0.00802347 0.0
-0.0284914 0.00558738 0.0
-0.0229707 0.00351991 0.0
-0.0170552 0.0018585 0.0
-0.0106789 0.000657844 0.0
-0.0037684 9.08163e-05 0.0
0.893583 0.00127643 0.0
0.689698 0.010521 0.0
0.512454 0.0286668 0.0
0.367596 0.0500333 0.0
0.253723 0.072113 0.0
0.166245 0.0931083 0.0
0.0998271 0.111967 0.0
0.0495694 0.128194 0.0
0.011427 0.141627 0.0
-0.0177208 0.152293 0.0
-0.0401502 0.160243 0.0
-0.0576875 0.165722 0.0
-0.0716191 0.16895 0.0
-0.0828308 0.170157 0.0
-0.091923 0.169567 0.0
-0.099297 0.167399 0.0
-0.10522 0.163865 0.0
-0.10987 0.159167 0.0
-0.113372 0.153503 0.0
-0.11582 0.14706 0.0
-0.117292 0.140012 0.0
-0.117861 0.132525 0.0
-0.1176 0.124746 0.0
-0.116586 0.116811 0.0
-0.114899 0.108835 0.0
-0.112624 0.100919 0.0