# vtk DataFile Version 3.0
Malha 2D com triângulos e temperatura
ASCII
DATASET UNSTRUCTURED_GRID

POINTS 2500 double
0 0 0
1 0 0
1 1 0
0 1 0
0.0204082 0 0
0.0408163 0 0
0.0612245 0 0
0.0816327 0 0
0.102041 0 0
0.122449 0 0
0.142857 0 0
0.163265 0 0
0.183673 0 0
0.204082 0 0
0.22449 0 0
0.244898 0 0
0.265306 0 0
0.285714 0 0
0.306122 0 0
0.326531 0 0
0.346939 0 0
0.367347 0 0
0.387755 0 0
0.408163 0 0
0.428571 0 0
0.44898 0 0
0.469388 0 0
0.489796 0 0
0.510204 0 0
0.530612 0 0
0.55102 0 0
0.571429 0 0
0.591837 0 0
0.612245 0 0
0.632653 0 0
0.653061 0 0
0.673469 0 0
0.693878 0 0
0.714286 0 0
0.734694 0 0
0.755102 0 0
0.77551 0 0
0.795918 0 0
0.816327 0 0
0.836735 0 0
0.857143 0 0
0.877551 0 0
0.897959 0 0
0.918367 0 0
0.938776 0 0
0.959184 0 0
0.979592 0 0
1 0.0204082 0
1 0.0408163 0
1 0.0612245 0
1 0.0816327 0
1 0.102041 0
1 0.122449 0
1 0.142857 0
1 0.163265 0
1 0.183673 0
1 0.204082 0
1 0.22449 0
1 0.244898 0
1 0.265306 0
1 0.285714 0
1 0.306122 0
1 0.326531 0
1 0.346939 0
1 0.367347 0
1 0.387755 0
1 0.408163 0
1 0.428571 0
1 0.44898 0
1 0.469388 0
1 0.489796 0
1 0.510204 0
1 0.530612 0
1 0.55102 0
1 0.571429 0
1 0.591837 0
1 0.612245 0
1 0.632653 0
1 0.653061 0
1 0.673469 0
1 0.693878 0
1 0.714286 0
1 0.734694 0
1 0.755102 0
1 0.77551 0
1 0.795918 0
1 0.816327 0
1 0.836735 0
1 0.857143 0
1 0.877551 0
1 0.897959 0
1 0.918367 0
1 0.938776 0
1 0.959184 0
1 0.979592 0
0.979592 1 0
0.959184 1 0
0.938776 1 0
0.918367 1 0
0.897959 1 0
0.877551 1 0
0.857143 1 0
0.836735 1 0
0.816327 1 0
0.795918 1 0
0.77551 1 0
0.755102 1 0
0.734694 1 0
0.714286 1 0
0.693878 1 0
0.673469 1 0
0.653061 1 0
0.632653 1 0
0.612245 1 0
0.591837 1 0
0.571429 1 0
0.55102 1 0
0.530612 1 0
0.510204 1 0
0.489796 1 0
0.469388 1 0
0.44898 1 0
0.428571 1 0
0.408163 1 0
0.387755 1 0
0.367347 1 0
0.346939 1 0
0.326531 1 0
0.306122 1 0
0.285714 1 0
0.265306 1 0
0.244898 1 0
0.22449 1 0
0.204082 1 0
0.183673 1 0
0.163265 1 0
0.142857 1 0
0.122449 1 0
0.102041 1 0
0.0816327 1 0
0.0612245 1 0
0.0408163 1 0
0.0204082 1 0
0 0.979592 0
0 0.959184 0
0 0.938776 0
0 0.918367 0
0 0.897959 0
0 0.877551 0
0 0.857143 0
0 0.836735 0
0 0.816327 0
0 0.795918 0
0 0.77551 0
0 0.755102 0
0 0.734694 0
0 0.714286 0
0 0.693878 0
0 0.673469 0
0 0.653061 0
0 0.632653 0
0 0.612245 0
0 0.591837 0
0 0.571429 0
0 0.55102 0
0 0.530612 0
0 0.510204 0
0 0.489796 0
0 0.469388 0
0 0.44898 0
0 0.428571 0
0 0.408163 0
0 0.387755 0
0 0.367347 0
0 0.346939 0
0 0.326531 0
0 0.306122 0
0 0.285714 0
0 0.265306 0
0 0.244898 0
0 0.22449 0
0 0.204082 0
0 0.183673 0
0 0.163265 0
0 0.142857 0
0 0.122449 0
0 0.102041 0
0 0.0816327 0
0 0.0612245 0
0 0.0408163 0
0 0.0204082 0
0.0204082 0.979592 0
0.0204082 0.959184 0
0.0204082 0.938776 0
0.0204082 0.918367 0
0.0204082 0.897959 0
0.0204082 0.877551 0
0.0204082 0.857143 0
0.0204082 0.836735 0
0.0204082 0.816327 0
0.0204082 0.795918 0
0.0204082 0.77551 0
0.0204082 0.755102 0
0.0204082 0.734694 0
0.0204082 0.714286 0
0.0204082 0.693878 0
0.0204082 0.673469 0
0.0204082 0.653061 0
0.0204082 0.632653 0
0.0204082 0.612245 0
0.0204082 0.591837 0
0.0204082 0.571429 0
0.0204082 0.55102 0
0.0204082 0.530612 0
0.0204082 0.510204 0
0.0204082 0.489796 0
0.0204082 0.469388 0
0.0204082 0.44898 0
0.0204082 0.428571 0
0.0204082 0.408163 0
0.0204082 0.387755 0
0.0204082 0.367347 0
0.0204082 0.346939 0
0.0204082 0.326531 0
0.0204082 0.306122 0
0.0204082 0.285714 0
0.0204082 0.265306 0
0.0204082 0.244898 0
0.0204082 0.22449 0
0.0204082 0.204082 0
0.0204082 0.183673 0
0.0204082 0.163265 0
0.0204082 0.142857 0
0.0204082 0.122449 0
0.0204082 0.102041 0
0.0204082 0.0816327 0
0.0204082 0.0612245 0
0.0204082 0.0408163 0
0.0204082 0.0204082 0
0.0408163 0.979592 0
0.0408163 0.959184 0
0.0408163 0.938776 0
0.0408163 0.918367 0
0.0408163 0.897959 0
0.0408163 0.877551 0
0.0408163 0.857143 0
0.0408163 0.836735 0
0.0408163 0.816327 0
0.0408163 0.795918 0
0.0408163 0.77551 0
0.0408163 0.755102 0
0.0408163 0.734694 0
0.0408163 0.714286 0
0.0408163 0.693878 0
0.0408163 0.673469 0
0.0408163 0.653061 0
0.0408163 0.632653 0
0.0408163 0.612245 0
0.0408163 0.591837 0
0.0408163 0.571429 0
0.0408163 0.55102 0
0.0408163 0.530612 0
0.0408163 0.510204 0
0.0408163 0.489796 0
0.0408163 0.469388 0
0.0408163 0.44898 0
0.0408163 0.428571 0
0.0408163 0.408163 0
0.0408163 0.387755 0
0.0408163 0.367347 0
0.0408163 0.346939 0
0.0408163 0.326531 0
0.0408163 0.306122 0
0.0408163 0.285714 0
0.0408163 0.265306 0
0.0408163 0.244898 0
0.0408163 0.22449 0
0.0408163 0.204082 0
0.0408163 0.183673 0
0.0408163 0.163265 0
0.0408163 0.142857 0
0.0408163 0.122449 0
0.0408163 0.102041 0
0.0408163 0.0816327 0
0.0408163 0.0612245 0
0.0408163 0.0408163 0
0.0408163 0.0204082 0
0.0612245 0.979592 0
0.0612245 0.959184 0
0.0612245 0.938776 0
0.0612245 0.918367 0
0.0612245 0.897959 0
0.0612245 0.877551 0
0.0612245 0.857143 0
0.0612245 0.836735 0
0.0612245 0.816327 0
0.0612245 0.795918 0
0.0612245 0.77551 0
0.0612245 0.755102 0
0.0612245 0.734694 0
0.0612245 0.714286 0
0.0612245 0.693878 0
0.0612245 0.673469 0
0.0612245 0.653061 0
0.0612245 0.632653 0
0.0612245 0.612245 0
0.0612245 0.591837 0
0.0612245 0.571429 0
0.0612245 0.55102 0
0.0612245 0.530612 0
0.0612245 0.510204 0
0.0612245 0.489796 0
0.0612245 0.469388 0
0.0612245 0.44898 0
0.0612245 0.428571 0
0.0612245 0.408163 0
0.0612245 0.387755 0
0.0612245 0.367347 0
0.0612245 0.346939 0
0.0612245 0.326531 0
0.0612245 0.306122 0
0.0612245 0.285714 0
0.0612245 0.265306 0
0.0612245 0.244898 0
0.0612245 0.22449 0
0.0612245 0.204082 0
0.0612245 0.183673 0
0.0612245 0.163265 0
0.0612245 0.142857 0
0.0612245 0.122449 0
0.0612245 0.102041 0
0.0612245 0.0816327 0
0.0612245 0.0612245 0
0.0612245 0.0408163 0
0.0612245 0.0204082 0
0.0816327 0.979592 0
0.0816327 0.959184 0
0.0816327 0.938776 0
0.0816327 0.918367 0
0.0816327 0.897959 0
0.0816327 0.877551 0
0.0816327 0.857143 0
0.0816327 0.836735 0
0.0816327 0.816327 0
0.0816327 0.795918 0
0.0816327 0.77551 0
0.0816327 0.755102 0
0.0816327 0.734694 0
0.0816327 0.714286 0
0.0816327 0.693878 0
0.0816327 0.673469 0
0.0816327 0.653061 0
0.0816327 0.632653 0
0.0816327 0.612245 0
0.0816327 0.591837 0
0.0816327 0.571429 0
0.0816327 0.55102 0
0.0816327 0.530612 0
0.0816327 0.510204 0
0.0816327 0.489796 0
0.0816327 0.469388 0
0.0816327 0.44898 0
0.0816327 0.428571 0
0.0816327 0.408163 0
0.0816327 0.387755 0
0.0816327 0.367347 0
0.0816327 0.346939 0
0.0816327 0.326531 0
0.0816327 0.306122 0
0.0816327 0.285714 0
0.0816327 0.265306 0
0.0816327 0.244898 0
0.0816327 0.22449 0
0.0816327 0.204082 0
0.0816327 0.183673 0
0.0816327 0.163265 0
0.0816327 0.142857 0
0.0816327 0.122449 0
0.0816327 0.102041 0
0.0816327 0.0816327 0
0.0816327 0.0612245 0
0.0816327 0.0408163 0
0.0816327 0.0204082 0
0.102041 0.979592 0
0.102041 0.959184 0
0.102041 0.938776 0
0.102041 0.918367 0
0.102041 0.897959 0
0.102041 0.877551 0
0.102041 0.857143 0
0.102041 0.836735 0
0.102041 0.816327 0
0.102041 0.795918 0
0.102041 0.77551 0
0.102041 0.755102 0
0.102041 0.734694 0
0.102041 0.714286 0
0.102041 0.693878 0
0.102041 0.673469 0
0.102041 0.653061 0
0.102041 0.632653 0
0.102041 0.612245 0
0.102041 0.591837 0
0.102041 0.571429 0
0.102041 0.55102 0
0.102041 0.530612 0
0.102041 0.510204 0
0.102041 0.489796 0
0.102041 0.469388 0
0.102041 0.44898 0
0.102041 0.428571 0
0.102041 0.408163 0
0.102041 0.387755 0
0.102041 0.367347 0
0.102041 0.346939 0
0.102041 0.326531 0
0.102041 0.306122 0
0.102041 0.285714 0
0.102041 0.265306 0
0.102041 0.244898 0
0.102041 0.22449 0
0.102041 0.204082 0
0.102041 0.183673 0
0.102041 0.163265 0
0.102041 0.142857 0
0.102041 0.122449 0
0.102041 0.102041 0
0.102041 0.0816327 0
0.102041 0.0612245 0
0.102041 0.0408163 0
0.102041 0.0204082 0
0.122449 0.979592 0
0.122449 0.959184 0
0.122449 0.938776 0
0.122449 0.918367 0
0.122449 0.897959 0
0.122449 0.877551 0
0.122449 0.857143 0
0.122449 0.836735 0
0.122449 0.816327 0
0.122449 0.795918 0
0.122449 0.77551 0
0.122449 0.755102 0
0.122449 0.734694 0
0.122449 0.714286 0
0.122449 0.693878 0
0.122449 0.673469 0
0.122449 0.653061 0
0.122449 0.632653 0
0.122449 0.612245 0
0.122449 0.591837 0
0.122449 0.571429 0
0.122449 0.55102 0
0.122449 0.530612 0
0.122449 0.510204 0
0.122449 0.489796 0
0.122449 0.469388 0
0.122449 0.44898 0
0.122449 0.428571 0
0.122449 0.408163 0
0.122449 0.387755 0
0.122449 0.367347 0
0.122449 0.346939 0
0.122449 0.326531 0
0.122449 0.306122 0
0.122449 0.285714 0
0.122449 0.265306 0
0.122449 0.244898 0
0.122449 0.22449 0
0.122449 0.204082 0
0.122449 0.183673 0
0.122449 0.163265 0
0.122449 0.142857 0
0.122449 0.122449 0
0.122449 0.102041 0
0.122449 0.0816327 0
0.122449 0.0612245 0
0.122449 0.0408163 0
0.122449 0.0204082 0
0.142857 0.979592 0
0.142857 0.959184 0
0.142857 0.938776 0
0.142857 0.918367 0
0.142857 0.897959 0
0.142857 0.877551 0
0.142857 0.857143 0
0.142857 0.836735 0
0.142857 0.816327 0
0.142857 0.795918 0
0.142857 0.77551 0
0.142857 0.755102 0
0.142857 0.734694 0
0.142857 0.714286 0
0.142857 0.693878 0
0.142857 0.673469 0
0.142857 0.653061 0
0.142857 0.632653 0
0.142857 0.612245 0
0.142857 0.591837 0
0.142857 0.571429 0
0.142857 0.55102 0
0.142857 0.530612 0
0.142857 0.510204 0
0.142857 0.489796 0
0.142857 0.469388 0
0.142857 0.44898 0
0.142857 0.428571 0
0.142857 0.408163 0
0.142857 0.387755 0
0.142857 0.367347 0
0.142857 0.346939 0
0.142857 0.326531 0
0.142857 0.306122 0
0.142857 0.285714 0
0.142857 0.265306 0
0.142857 0.244898 0
0.142857 0.22449 0
0.142857 0.204082 0
0.142857 0.183673 0
0.142857 0.163265 0
0.142857 0.142857 0
0.142857 0.122449 0
0.142857 0.102041 0
0.142857 0.0816327 0
0.142857 0.0612245 0
0.142857 0.0408163 0
0.142857 0.0204082 0
0.163265 0.979592 0
0.163265 0.959184 0
0.163265 0.938776 0
0.163265 0.918367 0
0.163265 0.897959 0
0.163265 0.877551 0
0.163265 0.857143 0
0.163265 0.836735 0
0.163265 0.816327 0
0.163265 0.795918 0
0.163265 0.77551 0
0.163265 0.755102 0
0.163265 0.734694 0
0.163265 0.714286 0
0.163265 0.693878 0
0.163265 0.673469 0
0.163265 0.653061 0
0.163265 0.632653 0
0.163265 0.612245 0
0.163265 0.591837 0
0.163265 0.571429 0
0.163265 0.55102 0
[...]
CELL_DATA 2401
VECTORS velocity double
0.257583 0.157301 0.0
-0.00262204 0.264447 0.0
-0.0322598 0.205481 0.0
-0.0253655 0.150604 0.0
-0.0160618 0.113075 0.0
-0.00971168 0.0877173 0.0
-0.00593976 0.0706308 0.0
-0.00375634 0.0589141 0.0
-0.00247368 0.0506613 0.0
-0.00169628 0.0446886 0.0
-0.00120838 0.0402502 0.0
-0.000892683 0.0368636 0.0
-0.00068389 0.0342065 0.0
-0.000544169 0.0320579 0.0
-0.000450591 0.030263 0.0
-0.00038862 0.0287112 0.0
-0.000348654 0.027323 0.0
-0.000324121 0.0260409 0.0
-0.000310379 0.0248237 0.0
-0.000304062 0.0236421 0.0
-0.000302672 0.0224758 0.0
-0.000304328 0.0213117 0.0
-0.000307594 0.0201421 0.0
-0.000311373 0.0189632 0.0
-0.000314831 0.0177747 0.0
-0.000317346 0.0165788 0.0
-0.000318467 0.0153793 0.0
-0.000317887 0.0141815 0.0
-0.000315416 0.0129915 0.0
-0.00031096 0.0118159 0.0
-0.000304502 0.0106617 0.0
-0.000296084 0.00953552 0.0
-0.000285789 0.00844422 0.0
-0.000273725 0.00739417 0.0
-0.000260013 0.00639141 0.0
-0.000244772 0.00544162 0.0
-0.000228107 0.0045501 0.0
-0.000210094 0.00372182 0.0
-0.000190775 0.00296152 0.0
-0.000170138 0.00227376 0.0
-0.000148111 0.00166308 0.0
-0.00012455 0.00113407 0.0
-9.92462e-05 0.000691431 0.0
-7.19687e-05 0.000339973 0.0
-4.26311e-05 8.42029e-05 0.0
-1.17834e-05 -7.26715e-05 0.0
1.81241e-05 -0.000131073 0.0
4.01293e-05 -0.000103697 0.0
3.58553e-05 -3.56766e-05 0.0
0.340778 0.122974 0.0
-0.000631803 0.249505 0.0
-0.0652094 0.271728 0.0
-0.0632537 0.252253 0.0
-0.0485411 0.221731 0.0
-0.0349986 0.191848 0.0
-0.0249577 0.166402 0.0
-0.0179388 0.145892 0.0
-0.0130978 0.129706 0.0
-0.00974836 0.116989 0.0
-0.00741232 0.106945 0.0
-0.00577161 0.0989137 0.0
-0.0046155 0.0923759 0.0
-0.00380242 0.086931 0.0
-0.00323535 0.0822745 0.0
-0.00284628 0.0781756 0.0
-0.00258653 0.074461 0.0
-0.00242056 0.0710011 0.0
-0.00232193 0.0677005 0.0
-0.00227069 0.0644902 0.0
-0.00225156 0.0613221 0.0
-0.00225273 0.0581642 0.0
-0.00226507 0.0549976 0.0
-0.00228146 0.0518134 0.0
-0.00229646 0.0486104 0.0
-0.00230594 0.0453938 0.0
-0.00230687 0.0421731 0.0
-0.00229716 0.0389612 0.0
-0.00227543 0.0357733 0.0
-0.00224094 0.0326258 0.0
-0.00219345 0.0295359 0.0
-0.00213307 0.0265209 0.0
-0.00206022 0.0235978 0.0
-0.00197546 0.0207829 0.0
-0.00187949 0.0180918 0.0
-0.00177299 0.0155393 0.0
-0.00165662 0.0131391 0.0
-0.00153092 0.0109043 0.0
-0.0013963 0.00884727 0.0
-0.001253 0.00697966 0.0
-0.00110109 0.00531277 0.0
-0.000940553 0.00385738 0.0
-0.000771433 0.00262366 0.0
-0.000594293 0.00162051 0.0
-0.00041112 0.000854273 0.0
-0.000227388 0.000326092 0.0
-5.62767e-05 2.70356e-05 0.0
7.42153e-05 -7.26153e-05 0.0
0.000103167 -3.90345e-05 0.0
0.500848 0.0768133 0.0
0.099029 0.183241 0.0
-0.0393685 0.24926 0.0
-0.0734375 0.265781 0.0
-0.0719208 0.257482 0.0
-0.0606409 0.239681 0.0
-0.048412 0.219646 0.0
-0.0378651 0.200663 0.0
-0.0294851 0.183942 0.0
-0.0230683 0.169697 0.0
-0.0182487 0.157714 0.0
-0.0146734 0.147634 0.0
-0.0120496 0.139075 0.0
-0.0101472 0.131691 0.0
-0.00878928 0.125187 0.0
-0.00784099 0.119321 0.0
-0.0071991 0.113901 0.0
-0.00678435 0.108777 0.0
-0.0065354 0.103837 0.0
-0.00640448 0.0989983 0.0
-0.00635414 0.0942011 0.0
-0.00635491 0.0894071 0.0
-0.00638362 0.0845941 0.0
-0.0064221 0.0797526 0.0
-0.00645628 0.0748836 0.0
-0.00647547 0.0699959 0.0
-0.00647176 0.0651047 0.0
-0.00643959 0.0602292 0.0
-0.00637534 0.0553917 0.0
-0.00627697 0.0506166 0.0
-0.00614373 0.0459288 0.0
-0.00597584 0.0413536 0.0
-0.00577424 0.0369158 0.0
-0.00554038 0.0326392 0.0
-0.00527595 0.0285468 0.0
-0.00498274 0.0246602 0.0
-0.00466248 0.0209997 0.0
-0.00431672 0.0175844 0.0
-0.00394672 0.0144323 0.0
-0.00355353 0.0115603 0.0
-0.00313799 0.00898435 0.0
-0.00270108 0.00671908 0.0
-0.00224445 0.00477756 0.0
-0.00177153 0.0031702 0.0
-0.00128965 0.00190304 0.0
-0.000813991 0.000974781 0.0
-0.00037457 0.000371119 0.0
-2.60336e-05 5.7555e-05 0.0
0.000128221 -1.62368e-05 0.0
0.61004 0.0480581 0.0
0.195664 0.133976 0.0
0.0113618 0.209449 0.0
-0.058079 0.246505 0.0
-0.0761332 0.257049 0.0
-0.0738097 0.253597 0.0
-0.0645595 0.243336 0.0
-0.053994 0.23051 0.0
-0.0442872 0.21738 0.0
-0.0361273 0.204999 0.0
-0.0295843 0.193761 0.0
-0.0244943 0.183714 0.0
-0.0206257 0.174741 0.0
-0.017748 0.166662 0.0
-0.0156565 0.159283 0.0
-0.0141788 0.152424 0.0
-0.0131734 0.145929 0.0
-0.0125251 0.139671 0.0
-0.0121414 0.13355 0.0
-0.0119475 0.127489 0.0
-0.0118833 0.121436 0.0
-0.0119007 0.115358 0.0
-0.011961 0.109237 0.0
-0.0120338 0.103069 0.0
-0.0120952 0.096859 0.0
-0.0121271 0.0906226 0.0
-0.012116 0.0843807 0.0
-0.0120523 0.0781587 0.0
-0.0119297 0.0719854 0.0
-0.0117449 0.0658914 0.0
-0.0114966 0.0599079 0.0
-0.0111851 0.0540663 0.0
-0.0108122 0.0483972 0.0
-0.0103804 0.0429302 0.0
-0.00989275 0.0376935 0.0
-0.00935242 0.0327138 0.0
-0.00876259 0.0280159 0.0
-0.00812618 0.0236234 0.0
-0.0074458 0.0195582 0.0
-0.00672379 0.0158406 0.0
-0.00596248 0.0124896 0.0
-0.00516465 0.00952209 0.0
-0.00433463 0.00695264 0.0
-0.00347998 0.00479236 0.0
-0.0026146 0.00304721 0.0
-0.00176392 0.00171567 0.0
-0.000973326 0.000783108 0.0
-0.000318675 0.000220053 0.0
6.86631e-05 1.32246e-05 0.0
0.680442 0.0301767 0.0
0.27846 0.0982056 0.0
0.0696011 0.171008 0.0
-0.0275241 0.217544 0.0
-0.0653234 0.241007 0.0
-0.0747755 0.249479 0.0
-0.0717282 0.248881 0.0
-0.0639342 0.243316 0.0
-0.055054 0.235359 0.0
-0.0467158 0.226504 0.0
-0.0395482 0.217553 0.0
-0.033701 0.208885 0.0
-0.0291061 0.200636 0.0
-0.0256088 0.192811 0.0
-0.0230306 0.185345 0.0
-0.0211983 0.178152 0.0
-0.0199561 0.17114 0.0
-0.0191693 0.164227 0.0
-0.0187237 0.157344 0.0
-0.018524 0.15044 0.0
-0.0184913 0.14348 0.0
-0.018561 0.136444 0.0
-0.0186806 0.129327 0.0
-0.0188081 0.122132 0.0
-0.0189104 0.114876 0.0
-0.018962 0.10758 0.0
-0.018944 0.100272 0.0
-0.0188432 0.092985 0.0
-0.018651 0.0857526 0.0
-0.0183628 0.0786113 0.0
-0.0179769 0.0715976 0.0
-0.0174944 0.0647477 0.0
-0.0169179 0.0580966 0.0
-0.0162513 0.0516779 0.0
-0.0154994 0.0455236 0.0
-0.0146669 0.0396638 0.0
-0.013759 0.0341265 0.0
-0.0127801 0.0289381 0.0
-0.0117346 0.0241228 0.0
-0.0106267 0.0197034 0.0
-0.0094606 0.0157002 0.0
-0.00824151 0.0121318 0.0
-0.00697696 0.00901364 0.0
-0.00567902 0.00635764 0.0
-0.00436793 0.0041709 0.0
-0.0030778 0.00245438 0.0
-0.00186525 0.0011976 0.0
-0.00081903 0.000382466 0.0
-8.24171e-05 4.15438e-05 0.0
0.729836 0.0192025 0.0
0.349 0.0730619 0.0
0.127922 0.139311 0.0
0.011204 0.188297 0.0
-0.0443617 0.219643 0.0
-0.0661179 0.236734 0.0
-0.0708193 0.244111 0.0
-0.0675522 0.245242 0.0
-0.0611072 0.242588 0.0
-0.053929 0.237761 0.0
-0.0471937 0.231763 0.0
-0.041399 0.225184 0.0
-0.0366885 0.218345 0.0
-0.033029 0.211401 0.0
-0.0303063 0.204413 0.0
-0.0283768 0.197386 0.0
-0.027093 0.190301 0.0
-0.0263167 0.183128 0.0
-0.0259241 0.175842 0.0
-0.0258076 0.168422 0.0
-0.0258755 0.16086 0.0
-0.0260508 0.153154 0.0
-0.0262699 0.145314 0.0
-0.0264816 0.137359 0.0
-0.0266448 0.129314 0.0
-0.0267283 0.121211 0.0
-0.0267086 0.113085 0.0
-0.0265696 0.104976 0.0
-0.026301 0.0969242 0.0
-0.0258975 0.0889705 0.0
-0.0253578 0.081156 0.0
-0.0246838 0.0735209 0.0
-0.0238797 0.0661035 0.0
-0.0229511 0.0589403 0.0
-0.0219047 0.0520659 0.0
-0.0207474 0.0455123 0.0
-0.0194863 0.0393096 0.0
-0.0181279 0.0334856 0.0
-0.0166787 0.0280661 0.0
-0.0151448 0.0230746 0.0
-0.0135326 0.0185326 0.0
-0.01185 0.0144595 0.0
-0.0101076 0.0108716 0.0
-0.00832172 0.00778243 0.0
-0.00651749 0.00520145 0.0
-0.00473506 0.00313442 0.0
-0.0030372 0.00157815 0.0
-0.0015174 0.000529069 0.0
-0.000317728 6.5836e-05 0.0
0.765846 0.0125977 0.0
0.408429 0.0557084 0.0
0.182901 0.114534 0.0
0.0526985 0.162623 0.0
-0.0172084 0.197769 0.0
-0.0504682 0.220602 0.0
-0.0633382 0.233963 0.0
-0.0655236 0.240617 0.0
-0.0625711 0.242701 0.0
-0.0575589 0.24175 0.0
-0.0521342 0.238811 0.0
-0.0471236 0.234572 0.0
-0.0428898 0.229467 0.0
-0.0395398 0.22376 0.0
-0.0370449 0.217604 0.0
-0.0353104 0.211084 0.0
-0.0342141 0.204248 0.0
-0.0336279 0.197119 0.0
-0.0334291 0.189713 0.0
-0.033506 0.182046 0.0
-0.0337602 0.174133 0.0
-0.0341072 0.165998 0.0
-0.0344761 0.157669 0.0
-0.034809 0.149178 0.0
-0.0350594 0.140563 0.0
-0.0351917 0.131868 0.0
-0.0351797 0.123135 0.0
-0.0350054 0.114411 0.0
-0.0346578 0.105743 0.0
-0.0341319 0.0971771 0.0
-0.0334274 0.0887575 0.0
-0.0325478 0.0805277 0.0
-0.0314992 0.0725289 0.0
-0.0302896 0.0647995 0.0
-0.028928 0.0573754 0.0
-0.0274237 0.0502901 0.0
-0.0257861 0.0435742 0.0
-0.024024 0.0372562 0.0
-0.022146 0.0313623 0.0
-0.0201604 0.0259164 0.0
-0.0180758 0.0209404 0.0
-0.0159025 0.0164541 0.0
-0.0136539 0.0124752 0.0
-0.011349 0.009019 0.0
-0.00901628 0.00609864 0.0
-0.00669867 0.00372612 0.0
-0.00446014 0.00190722 0.0
-0.00239189 0.000653571 0.0
-0.0006255 8.54685e-05 0.0
0.792882 0.0086085 0.0
0.458478 0.0436211 0.0
0.233364 0.0953746 0.0
0.0943244 0.141048 0.0
0.0135939 0.177258 0.0
-0.0300246 0.203704 0.0
-0.0508703 0.221326 0.0
-0.0588621 0.232271 0.0
-0.0600061 0.238295 0.0
-0.0578386 0.240763 0.0
-0.0543831 0.240675 0.0
-0.05075 0.238742 0.0
-0.047505 0.235449 0.0
-0.0448946 0.231124 0.0
-0.0429826 0.225986 0.0
-0.0417331 0.220181 0.0
-0.041059 0.213807 0.0
-0.0408518 0.206935 0.0
-0.0409979 0.199621 0.0
-0.0413883 0.191909 0.0
-0.0419235 0.183846 0.0
-0.0425161 0.175476 0.0
-0.0430914 0.166846 0.0
-0.0435877 0.158004 0.0
-0.0439558 0.149002 0.0
-0.0441577 0.139892 0.0
-0.044166 0.130727 0.0
-0.0439623 0.121562 0.0
-0.0435363 0.112449 0.0
-0.0428844 0.103438 0.0
-0.0420081 0.0945783 0.0
-0.0409133 0.0859155 0.0
-0.0396088 0.0774925 0.0
-0.0381053 0.0693493 0.0
-0.0364148 0.0615225 0.0
-0.0345492 0.0540457 0.0
-0.0325206 0.0469498 0.0
-0.0303403 0.0402629 0.0
-0.0280189 0.0340109 0.0
-0.0255669 0.0282174 0.0
-0.022995 0.0229045 0.0
-0.0203152 0.0180924 0.0
-0.0175426 0.0137998 0.0
-0.0146981 0.0100445 0.0
-0.0118109 0.00684385 0.0
-0.00892358 0.00421674 0.0
-0.00609714 0.00217829 0.0
-0.0034151 0.000754473 0.0
-0.000992675 0.000100687 0.0
0.813886 0.00615667 0.0
0.500951 0.0350542 0.0
0.279158 0.0805576 0.0
0.134628 0.123247 0.0
0.0455533 0.159188 0.0
-0.00657073 0.187366 0.0
-0.0348133 0.207886 0.0
-0.0485925 0.222009 0.0
-0.0541077 0.231151 0.0
-0.0551966 0.236475 0.0
-0.0541661 0.238887 0.0
-0.0523576 0.239066 0.0
-0.0505126 0.237509 0.0
-0.0490056 0.234573 0.0
-0.0479901 0.230516 0.0
-0.0474909 0.225525 0.0
-0.0474605 0.219737 0.0
-0.0478152 0.213259 0.0
-0.0484559 0.206179 0.0
-0.0492809 0.198572 0.0
-0.050194 0.190508 0.0
-0.0511086 0.182051 0.0
-0.0519494 0.173268 0.0
-0.0526541 0.164222 0.0
-0.0531726 0.154977 0.0
-0.0534668 0.145597 0.0
-0.0535098 0.136145 0.0
-0.0532846 0.126682 0.0
-0.0527829 0.117264 0.0
-0.0520034 0.107949 0.0
-0.0509509 0.0987867 0.0
-0.0496343 0.0898269 0.0
-0.0480661 0.0811133 0.0
-0.0462603 0.0726866 0.0
-0.0442321 0.0645835 0.0
-0.0419969 0.0568373 0.0
-0.0395693 0.0494781 0.0
-0.0369632 0.0425332 0.0
-0.0341916 0.0360277 0.0
-0.0312668 0.0299844 0.0
-0.0282009 0.0244249 0.0
-0.0250072 0.0193697 0.0
-0.0217016 0.0148388 0.0
-0.0183046 0.0108524 0.0
-0.0148446 0.00743211 0.0
-0.011361 0.00460362 0.0
-0.00790806 0.00239093 0.0
-0.00455806 0.000832579 0.0
-0.0014065 0.000112026 0.0
0.830736 0.00460941 0.0
0.537367 0.0288484 0.0
0.320585 0.0689885 0.0
0.173011 0.108561 0.0
0.0776799 0.143475 0.0
0.018667 0.172175 0.0
-0.0162827 0.194522 0.0
-0.0356197 0.210921 0.0
-0.0455601 0.222449 0.0
-0.0501179 0.230073 0.0
-0.0518025 0.234586 0.0
-0.0521351 0.236611 0.0
-0.0520027 0.236629 0.0
-0.0518906 0.235002 0.0
-0.0520338 0.232005 0.0
-0.0525147 0.22785 0.0
-0.053326 0.2227 0.0
-0.0544104 0.216691 0.0
-0.0556856 0.209935 0.0
-0.0570606 0.202531 0.0
-0.0584455 0.19457 0.0
-0.0597569 0.186135 0.0
-0.0609219 0.17731 0.0
-0.0618794 0.168172 0.0
-0.062581 0.158799 0.0
-0.0629903 0.149265 0.0
-0.0630829 0.13964 0.0
-0.0628445 0.129993 0.0
-0.0622702 0.120388 0.0
-0.0613626 0.110883 0.0
-0.0601305 0.101535 0.0
-0.0585874 0.0923932 0.0
-0.0567497 0.0835026 0.0
-0.0546357 0.0749043 0.0
-0.0522646 0.0666345 0.0
-0.0496551 0.0587256 0.0
-0.0468251 0.0512063 0.0
-0.043791 0.0441027 0.0
-0.040568 0.0374383 0.0
-0.0371698 0.0312348 0.0
-0.0336097 0.0255131 0.0
-0.0299012 0.0202935 0.0
-0.0260598 0.0155971 0.0
-0.0221045 0.0114462 0.0
-0.0180604 0.00786655 0.0
-0.0139613 0.00488983 0.0
-0.00985253 0.00254789 0.0
-0.00579241 0.000889689 0.0
-0.00185523 0.000120064 0.0
0.844625 0.00360006 0.0
0.568926 0.0242472 0.0
0.35807 0.0598493 0.0
0.209193 0.0964155 0.0
0.109211 0.129916 0.0
0.0444883 0.158488 0.0
0.00389377 0.181672 0.0
-0.0206786 0.199652 0.0
-0.0349672 0.212951 0.0
-0.0430709 0.222373 0.0
-0.0476362 0.228597 0.0
-0.0503202 0.232182 0.0
-0.0521264 0.233574 0.0
-0.0536328 0.233125 0.0
-0.055145 0.231115 0.0
-0.0567975 0.227765 0.0
-0.0586202 0.223256 0.0
-0.0605816 0.217742 0.0
-0.0626172 0.211354 0.0
-0.0646477 0.204211 0.0
-0.066591 0.196419 0.0
-0.0683692 0.188081 0.0
-0.0699133 0.179293 0.0
-0.0711656 0.170147 0.0
-0.072081 0.160732 0.0
-0.0726268 0.151132 0.0
-0.0727823 0.141427 0.0
-0.072538 0.13169 0.0
-0.0718935 0.121991 0.0
-0.0708568 0.112394 0.0
-0.0694419 0.102957 0.0
-0.0676676 0.0937299 0.0
-0.0655555 0.0847598 0.0
-0.0631289 0.0760868 0.0
-0.0604113 0.0677462 0.0
-0.0574254 0.0597689 0.0
-0.0541924 0.0521819 0.0
-0.0507315 0.0450093 0.0
-0.0470597 0.0382725 0.0
-0.0431921 0.0319919 0.0
-0.0391422 0.026187 0.0
-0.0349232 0.0208778 0.0
-0.0305487 0.0160856 0.0
-0.0260349 0.0118349 0.0
-0.0214019 0.00815444 0.0
-0.016676 0.00508112 0.0
-0.0118916 0.00265321 0.0
-0.0070915 0.000927893 0.0
-0.00232838 0.000125329 0.0
0.856339 0.00291531 0.0
0.596561 0.0207511 0.0
0.392074 0.0525242 0.0
0.243139 0.0862881 0.0
0.139785 0.118194 0.0
0.0703864 0.146226 0.0
0.0248999 0.169671 0.0
-0.00437921 0.188571 0.0
-0.0228465 0.203144 0.0
-0.0344798 0.213928 0.0
-0.0420003 0.221506 0.0
-0.0471635 0.226368 0.0
-0.0510631 0.228921 0.0
-0.0543525 0.229497 0.0
-0.0573967 0.228368 0.0
-0.0603749 0.225758 0.0
-0.0633498 0.221857 0.0
-0.0663136 0.216828 0.0
-0.0692186 0.210819 0.0
-0.0719975 0.20396 0.0
-0.0745764 0.196375 0.0
-0.0768839 0.188179 0.0
-0.0788563 0.179481 0.0
-0.0804407 0.170387 0.0
-0.0815968 0.160994 0.0
-0.082297 0.151397 0.0
-0.0825263 0.141682 0.0
-0.0822807 0.131931 0.0
-0.0815665 0.122217 0.0
-0.080398 0.112608 0.0
-0.0787958 0.103163 0.0
-0.076785 0.0939348 0.0
-0.0743934 0.0849698 0.0
-0.0716498 0.0763073 0.0
-0.0685829 0.0679812 0.0
-0.0652197 0.0600203 0.0
-0.061585 0.0524493 0.0
-0.0577006 0.0452897 0.0
-0.0535854 0.0385608 0.0
-0.0492554 0.0322806 0.0
-0.0447239 0.026467 0.0
-0.0400026 0.021139 0.0
-0.0351025 0.0163181 0.0
-0.0300354 0.0120295 0.0
-0.0248151 0.00830463 0.0
-0.0194588 0.00518411 0.0
-0.0139885 0.0027112 0.0
-0.00843077 0.00094918 0.0
-0.00281664 0.000128258 0.0
0.866406 0.00243071 0.0
0.620997 0.0180288 0.0
0.423025 0.0465616 0.0
0.274914 0.0777596 0.0
0.169183 0.108012 0.0
0.09596 0.135249 0.0
0.046224 0.158587 0.0
0.0128021 0.177881 0.0
-0.00962713 0.19331 0.0
-0.0247137 0.205095 0.0
-0.0352005 0.213712 0.0
-0.0429084 0.219591 0.0
-0.0490002 0.223096 0.0
-0.0541886 0.224535 0.0
-0.0588866 0.224165 0.0
-0.0633105 0.222208 0.0
-0.067551 0.218855 0.0
-0.0716207 0.214278 0.0
-0.0754868 0.208631 0.0
-0.0790928 0.202058 0.0
-0.0823733 0.194692 0.0
-0.0852637 0.186661 0.0
-0.0877062 0.178086 0.0
-0.0896537 0.169082 0.0
-0.091072 0.159758 0.0
-0.09194 0.150215 0.0
-0.0922495 0.140547 0.0
-0.092004 0.130842 0.0
-0.0912174 0.121178 0.0
-0.0899118 0.111625 0.0
-0.0881155 0.102243 0.0
-0.0858611 0.0930876 0.0
-0.0831836 0.0842029 0.0
-0.080118 0.0756273 0.0
-0.0766988 0.0673928 0.0
-0.0729577 0.0595256 0.0
-0.0689233 0.0520476 0.0
-0.0646202 0.0449774 0.0
-0.060069 0.0383313 0.0
-0.0552859 0.0321246 0.0
-0.0502838 0.026373 0.0
-0.045072 0.021094 0.0
-0.0396581 0.0163082 0.0
-0.0340481 0.0120413 0.0
-0.0282483 0.00832589 0.0
-0.0222658 0.00520515 0.0
-0.0161089 0.00272578 0.0
-0.00978767 0.000955249 0.0
-0.00331175 0.000129185 0.0
0.875187 0.00207286 0.0
0.64279 0.015858 0.0
0.4513 0.04163 0.0
0.304632 0.0704962 0.0
0.197303 0.0991054 0.0
0.12096 0.125396 0.0
0.0675281 0.148376 0.0
0.0303505 0.167756 0.0
0.00436103 0.183599 0.0
-0.0140786 0.196093 0.0
-0.027505 0.205477 0.0
-0.0377808 0.212138 0.0
-0.0461213 0.216399 0.0
-0.0532859 0.218538 0.0
-0.0597253 0.2188 0.0
-0.0656858 0.217396 0.0
-0.0712805 0.214519 0.0
-0.0765387 0.21034 0.0
-0.0814402 0.205022 0.0
-0.085938 0.198715 0.0
-0.0899741 0.191563 0.0
-0.0934906 0.183703 0.0
-0.0964361 0.175267 0.0
-0.0987702 0.166378 0.0
-0.100466 0.157154 0.0
-0.101509 0.147704 0.0
-0.1019 0.138129 0.0
-0.101651 0.128521 0.0
-0.100785 0.118961 0.0
-0.0993334 0.109523 0.0
-0.0973334 0.100269 0.0
-0.094826 0.0912511 0.0
-0.0918542 0.0825148 0.0
-0.0884604 0.0740962 0.0
-0.084685 0.0660246 0.0
-0.0805651 0.0583232 0.0
-0.0761334 0.0510104 0.0
-0.0714171 0.0441014 0.0
-0.0664384 0.0376089 0.0
-0.0612137 0.0315452 0.0
-0.0557544 0.0259232 0.0
-0.0500673 0.0207579 0.0
-0.044155 0.0160687 0.0
-0.0380176 0.0118804 0.0
-0.0316523 0.00822597 0.0
-0.0250553 0.00514968 0.0
-0.0182207 0.0027002 0.0
-0.0111415 0.000947425 0.0
-0.00380629 0.000128346 0.0
0.882939 0.00179753 0.0
0.66237 0.0140866 0.0
0.47722 0.0374834 0.0
0.332424 0.064232 0.0
0.224107 0.0912422 0.0
0.145229 0.116497 0.0
0.088583 0.138941 0.0
0.0480153 0.15818 0.0
0.0187217 0.17417 0.0
-0.00285299 0.187054 0.0
-0.0191548 0.196973 0.0
-0.0319886 0.204201 0.0
-0.042602 0.209032 0.0
-0.0517892 0.211716 0.0
-0.0600298 0.212479 0.0
-0.0675926 0.211524 0.0
-0.0746081 0.209037 0.0
-0.0811185 0.205193 0.0
-0.0871132 0.200156 0.0
-0.0925527 0.194084 0.0
-0.0973859 0.187127 0.0
-0.101561 0.179432 0.0
-0.105033 0.171138 0.0
-0.107768 0.162378 0.0
-0.109747 0.153277 0.0
-0.110966 0.14395 0.0
-0.111434 0.134505 0.0
-0.111173 0.125037 0.0
-0.110216 0.115631 0.0
-0.108605 0.106362 0.0
-0.106388 0.0972914 0.0
-0.103616 0.088473 0.0
-0.100339 0.0799489 0.0
-0.0966087 0.0717531 0.0
-0.0924722 0.0639117 0.0
-0.0879721 0.0564442 0.0
-0.0831452 0.0493653 0.0
-0.0780218 0.0426859 0.0
-0.0726252 0.036415 0.0
-0.0669717 0.0305609 0.0
-0.061071 0.0251332 0.0
-0.0549264 0.020144 0.0
-0.0485354 0.0156103 0.0
-0.0418906 0.0115553 0.0
-0.0349801 0.00801124 0.0
-0.0277879 0.00502202 0.0
-0.0202937 0.00263692 0.0
-0.0124728 0.000926656 0.0
-0.00429341 0.000125892 0.0
0.889845 0.0015774 0.0
0.680068 0.0126084 0.0
0.501053 0.0339377 0.0
0.358419 0.058756 0.0
0.249588 0.0842241 0.0
0.168658 0.108391 0.0
0.109212 0.130171 0.0
0.0655794 0.149091 0.0
0.0332251 0.165026 0.0
0.00873223 0.178041 0.0
-0.0103602 0.188286 0.0
-0.0257207 0.195891 0.0
-0.0386074 0.201121 0.0
-0.0498399 0.204201 0.0
-0.0599186 0.205337 0.0
-0.0691284 0.204722 0.0
-0.0776121 0.202537 0.0
-0.0854208 0.198956 0.0
-0.0925506 0.194144 0.0
-0.0989679 0.188265 0.0
-0.104627 0.181477 0.0
-0.109481 0.173931 0.0
-0.113491 0.165776 0.0
-0.116633 0.157151 0.0
-0.118895 0.148189 0.0
-0.120282 0.13901 0.0
-0.120814 0.129727 0.0
-0.120526 0.120438 0.0
-0.119461 0.111232 0.0
-0.117674 0.102181 0.0
-0.115223 0.0933502 0.0
-0.112169 0.084789 0.0
-0.108574 0.0765383 0.0
-0.104498 0.0686284 0.0
-0.0999942 0.0610819 0.0
-0.0951117 0.0539141 0.0
-0.0898917 0.0471352 0.0
-0.0843674 0.0407515 0.0
-0.0785634 0.0347675 0.0
-0.0724955 0.0291873 0.0
-0.0661713 0.0240163 0.0
-0.05959 0.0192633 0.0
-0.0527435 0.0149419 0.0
-0.0456164 0.011073 0.0
-0.0381867 0.00768668 0.0
-0.030426 0.00482541 0.0
-0.022299 0.00253769 0.0
-0.0137633 0.000893554 0.0
-0.00476669 0.000121898 0.0
0.896038 0.00139499 0.0
0.696139 0.0113472 0.0
0.523018 0.0308526 0.0
0.382734 0.0538992 0.0
0.273759 0.077883 0.0
0.191176 0.100934 0.0
0.129284 0.121954 0.0
0.0828726 0.140417 0.0
0.0476737 0.156134 0.0
0.0204123 0.169107 0.0
-0.00131527 0.179451 0.0
-0.019151 0.187265 0.0
-0.0342924 0.192734 0.0
-0.047574 0.196067 0.0
-0.0595093 0.197451 0.0
-0.0703932 0.197068 0.0
-0.0803754 0.195093 0.0
-0.0895125 0.191697 0.0
-0.0978046 0.18705 0.0
-0.105221 0.181318 0.0
-0.111721 0.174664 0.0
-0.117263 0.167247 0.0
-0.121814 0.159222 0.0
-0.125356 0.150736 0.0
-0.127889 0.141925 0.0
-0.129429 0.132918 0.0
-0.130007 0.123827 0.0
-0.129669 0.114756 0.0
-0.128474 0.105792 0.0