# vtk DataFile Version 3.0
Malha 2D com triângulos e temperatura
ASCII
DATASET UNSTRUCTURED_GRID

POINTS 2500 double
0 0 0
1 0 0
1 1 0
0 1 0
0.0204082 0 0
0.0408163 0 0
0.0612245 0 0
0.0816327 0 0
0.102041 0 0
0.122449 0 0
0.142857 0 0
0.163265 0 0
0.183673 0 0
0.204082 0 0
0.22449 0 0
0.244898 0 0
0.265306 0 0
0.285714 0 0
0.306122 0 0
0.326531 0 0
0.346939 0 0
0.367347 0 0
0.387755 0 0
0.408163 0 0
0.428571 0 0
0.44898 0 0
0.469388 0 0
0.489796 0 0
0.510204 0 0
0.530612 0 0
0.55102 0 0
0.571429 0 0
0.591837 0 0
0.612245 0 0
0.632653 0 0
0.653061 0 0
0.673469 0 0
0.693878 0 0
0.714286 0 0
0.734694 0 0
0.755102 0 0
0.77551 0 0
0.795918 0 0
0.816327 0 0
0.836735 0 0
0.857143 0 0
0.877551 0 0
0.897959 0 0
0.918367 0 0
0.938776 0 0
0.959184 0 0
0.979592 0 0
1 0.0204082 0
1 0.0408163 0
1 0.0612245 0
1 0.0816327 0
1 0.102041 0
1 0.122449 0
1 0.142857 0
1 0.163265 0
1 0.183673 0
1 0.204082 0
1 0.22449 0
1 0.244898 0
1 0.265306 0
1 0.285714 0
1 0.306122 0
1 0.326531 0
1 0.346939 0
1 0.367347 0
1 0.387755 0
1 0.408163 0
1 0.428571 0
1 0.44898 0
1 0.469388 0
1 0.489796 0
1 0.510204 0
1 0.530612 0
1 0.55102 0
1 0.571429 0
1 0.591837 0
1 0.612245 0
1 0.632653 0
1 0.653061 0
1 0.673469 0
1 0.693878 0
1 0.714286 0
1 0.734694 0
1 0.755102 0
1 0.77551 0
1 0.795918 0
1 0.816327 0
1 0.836735 0
1 0.857143 0
1 0.877551 0
1 0.897959 0
1 0.918367 0
1 0.938776 0
1 0.959184 0
1 0.979592 0
0.979592 1 0
0.959184 1 0
0.938776 1 0
0.918367 1 0
0.897959 1 0
0.877551 1 0
0.857143 1 0
0.836735 1 0
0.816327 1 0
0.795918 1 0
0.77551 1 0
0.755102 1 0
0.734694 1 0
0.714286 1 0
0.693878 1 0
0.673469 1 0
0.653061 1 0
0.632653 1 0
0.612245 1 0
0.591837 1 0
0.571429 1 0
0.55102 1 0
0.530612 1 0
0.510204 1 0
0.489796 1 0
0.469388 1 0
0.44898 1 0
0.428571 1 0
0.408163 1 0
0.387755 1 0
0.367347 1 0
0.346939 1 0
0.326531 1 0
0.306122 1 0
0.285714 1 0
0.265306 1 0
0.244898 1 0
0.22449 1 0
0.204082 1 0
0.183673 1 0
0.163265 1 0
0.142857 1 0
0.122449 1 0
0.102041 1 0
0.0816327 1 0
0.0612245 1 0
0.0408163 1 0
0.0204082 1 0
0 0.979592 0
0 0.959184 0
0 0.938776 0
0 0.918367 0
0 0.897959 0
0 0.877551 0
0 0.857143 0
0 0.836735 0
0 0.816327 0
0 0.795918 0
0 0.77551 0
0 0.755102 0
0 0.734694 0
0 0.714286 0
0 0.693878 0
0 0.673469 0
0 0.653061 0
0 0.632653 0
0 0.612245 0
0 0.591837 0
0 0.571429 0
0 0.55102 0
0 0.530612 0
0 0.510204 0
0 0.489796 0
0 0.469388 0
0 0.44898 0
0 0.428571 0
0 0.408163 0
0 0.387755 0
0 0.367347 0
0 0.346939 0
0 0.326531 0
0 0.306122 0
0 0.285714 0
0 0.265306 0
0 0.244898 0
0 0.22449 0
0 0.204082 0
0 0.183673 0
0 0.163265 0
0 0.142857 0
0 0.122449 0
0 0.102041 0
0 0.0816327 0
0 0.0612245 0
0 0.0408163 0
0 0.0204082 0
0.0204082 0.979592 0
0.0204082 0.959184 0
0.0204082 0.938776 0
0.0204082 0.918367 0
0.0204082 0.897959 0
0.0204082 0.877551 0
0.0204082 0.857143 0
0.0204082 0.836735 0
0.0204082 0.816327 0
0.0204082 0.795918 0
0.0204082 0.77551 0
0.0204082 0.755102 0
0.0204082 0.734694 0
0.0204082 0.714286 0
0.0204082 0.693878 0
0.0204082 0.673469 0
0.0204082 0.653061 0
0.0204082 0.632653 0
0.0204082 0.612245 0
0.0204082 0.591837 0
0.0204082 0.571429 0
0.0204082 0.55102 0
0.0204082 0.530612 0
0.0204082 0.510204 0
0.0204082 0.489796 0
0.0204082 0.469388 0
0.0204082 0.44898 0
0.0204082 0.428571 0
0.0204082 0.408163 0
0.0204082 0.387755 0
0.0204082 0.367347 0
0.0204082 0.346939 0
0.0204082 0.326531 0
0.0204082 0.306122 0
0.0204082 0.285714 0
0.0204082 0.265306 0
0.0204082 0.244898 0
0.0204082 0.22449 0
0.0204082 0.204082 0
0.0204082 0.183673 0
0.0204082 0.163265 0
0.0204082 0.142857 0
0.0204082 0.122449 0
0.0204082 0.102041 0
0.0204082 0.0816327 0
0.0204082 0.0612245 0
0.0204082 0.0408163 0
0.0204082 0.0204082 0
0.0408163 0.979592 0
0.0408163 0.959184 0
0.0408163 0.938776 0
0.0408163 0.918367 0
0.0408163 0.897959 0
0.0408163 0.877551 0
0.0408163 0.857143 0
0.0408163 0.836735 0
0.0408163 0.816327 0
0.0408163 0.795918 0
0.0408163 0.77551 0
0.0408163 0.755102 0
0.0408163 0.734694 0
0.0408163 0.714286 0
0.0408163 0.693878 0
0.0408163 0.673469 0
0.0408163 0.653061 0
0.0408163 0.632653 0
0.0408163 0.612245 0
0.0408163 0.591837 0
0.0408163 0.571429 0
0.0408163 0.55102 0
0.0408163 0.530612 0
0.0408163 0.510204 0
0.0408163 0.489796 0
0.0408163 0.469388 0
0.0408163 0.44898 0
0.0408163 0.428571 0
0.0408163 0.408163 0
0.0408163 0.387755 0
0.0408163 0.367347 0
0.0408163 0.346939 0
0.0408163 0.326531 0
0.0408163 0.306122 0
0.0408163 0.285714 0
0.0408163 0.265306 0
0.0408163 0.244898 0
0.0408163 0.22449 0
0.0408163 0.204082 0
0.0408163 0.183673 0
0.0408163 0.163265 0
0.0408163 0.142857 0
0.0408163 0.122449 0
0.0408163 0.102041 0
0.0408163 0.0816327 0
0.0408163 0.0612245 0
0.0408163 0.0408163 0
0.0408163 0.0204082 0
0.0612245 0.979592 0
0.0612245 0.959184 0
0.0612245 0.938776 0
0.0612245 0.918367 0
0.0612245 0.897959 0
0.0612245 0.877551 0
0.0612245 0.857143 0
0.0612245 0.836735 0
0.0612245 0.816327 0
0.0612245 0.795918 0
0.0612245 0.77551 0
0.0612245 0.755102 0
0.0612245 0.734694 0
0.0612245 0.714286 0
0.0612245 0.693878 0
0.0612245 0.673469 0
0.0612245 0.653061 0
0.0612245 0.632653 0
0.0612245 0.612245 0
0.0612245 0.591837 0
0.0612245 0.571429 0
0.0612245 0.55102 0
0.0612245 0.530612 0
0.0612245 0.510204 0
0.0612245 0.489796 0
0.0612245 0.469388 0
0.0612245 0.44898 0
0.0612245 0.428571 0
0.0612245 0.408163 0
0.0612245 0.387755 0
0.0612245 0.367347 0
0.0612245 0.346939 0
0.0612245 0.326531 0
0.0612245 0.306122 0
0.0612245 0.285714 0
0.0612245 0.265306 0
0.0612245 0.244898 0
0.0612245 0.22449 0
0.0612245 0.204082 0
0.0612245 0.183673 0
0.0612245 0.163265 0
0.0612245 0.142857 0
0.0612245 0.122449 0
0.0612245 0.102041 0
0.0612245 0.0816327 0
0.0612245 0.0612245 0
0.0612245 0.0408163 0
0.0612245 0.0204082 0
0.0816327 0.979592 0
0.0816327 0.959184 0
0.0816327 0.938776 0
0.0816327 0.918367 0
0.0816327 0.897959 0
0.0816327 0.877551 0
0.0816327 0.857143 0
0.0816327 0.836735 0
0.0816327 0.816327 0
0.0816327 0.795918 0
0.0816327 0.77551 0
0.0816327 0.755102 0
0.0816327 0.734694 0
0.0816327 0.714286 0
0.0816327 0.693878 0
0.0816327 0.673469 0
0.0816327 0.653061 0
0.0816327 0.632653 0
0.0816327 0.612245 0
0.0816327 0.591837 0
0.0816327 0.571429 0
0.0816327 0.55102 0
0.0816327 0.530612 0
0.0816327 0.510204 0
0.0816327 0.489796 0
0.0816327 0.469388 0
0.0816327 0.44898 0
0.0816327 0.428571 0
0.0816327 0.408163 0
0.0816327 0.387755 0
0.0816327 0.367347 0
0.0816327 0.346939 0
0.0816327 0.326531 0
0.0816327 0.306122 0
0.0816327 0.285714 0
0.0816327 0.265306 0
0.0816327 0.244898 0
0.0816327 0.22449 0
0.0816327 0.204082 0
0.0816327 0.183673 0
0.0816327 0.163265 0
0.0816327 0.142857 0
0.0816327 0.122449 0
0.0816327 0.102041 0
0.0816327 0.0816327 0
0.0816327 0.0612245 0
0.0816327 0.0408163 0
0.0816327 0.0204082 0
0.102041 0.979592 0
0.102041 0.959184 0
0.102041 0.938776 0
0.102041 0.918367 0
0.102041 0.897959 0
0.102041 0.877551 0
0.102041 0.857143 0
0.102041 0.836735 0
0.102041 0.816327 0
0.102041 0.795918 0
0.102041 0.77551 0
0.102041 0.755102 0
0.102041 0.734694 0
0.102041 0.714286 0
0.102041 0.693878 0
0.102041 0.673469 0
0.102041 0.653061 0
0.102041 0.632653 0
0.102041 0.612245 0
0.102041 0.591837 0
0.102041 0.571429 0
0.102041 0.55102 0
0.102041 0.530612 0
0.102041 0.510204 0
0.102041 0.489796 0
0.102041 0.469388 0
0.102041 0.44898 0
0.102041 0.428571 0
0.102041 0.408163 0
0.102041 0.387755 0
0.102041 0.367347 0
0.102041 0.346939 0
0.102041 0.326531 0
0.102041 0.306122 0
0.102041 0.285714 0
0.102041 0.265306 0
0.102041 0.244898 0
0.102041 0.22449 0
0.102041 0.204082 0
0.102041 0.183673 0
0.102041 0.163265 0
0.102041 0.142857 0
0.102041 0.122449 0
0.102041 0.102041 0
0.102041 0.0816327 0
0.102041 0.0612245 0
0.102041 0.0408163 0
0.102041 0.0204082 0
0.122449 0.979592 0
0.122449 0.959184 0
0.122449 0.938776 0
0.122449 0.918367 0
0.122449 0.897959 0
0.122449 0.877551 0
0.122449 0.857143 0
0.122449 0.836735 0
0.122449 0.816327 0
0.122449 0.795918 0
0.122449 0.77551 0
0.122449 0.755102 0
0.122449 0.734694 0
0.122449 0.714286 0
0.122449 0.693878 0
0.122449 0.673469 0
0.122449 0.653061 0
0.122449 0.632653 0
0.122449 0.612245 0
0.122449 0.591837 0
0.122449 0.571429 0
0.122449 0.55102 0
0.122449 0.530612 0
0.122449 0.510204 0
0.122449 0.489796 0
0.122449 0.469388 0
0.122449 0.44898 0
0.122449 0.428571 0
0.122449 0.408163 0
0.122449 0.387755 0
0.122449 0.367347 0
0.122449 0.346939 0
0.122449 0.326531 0
0.122449 0.306122 0
0.122449 0.285714 0
0.122449 0.265306 0
0.122449 0.244898 0
0.122449 0.22449 0
0.122449 0.204082 0
0.122449 0.183673 0
0.122449 0.163265 0
0.122449 0.142857 0
0.122449 0.122449 0
0.122449 0.102041 0
0.122449 0.0816327 0
0.122449 0.0612245 0
0.122449 0.0408163 0
0.122449 0.0204082 0
0.142857 0.979592 0
0.142857 0.959184 0
0.142857 0.938776 0
0.142857 0.918367 0
0.142857 0.897959 0
0.142857 0.877551 0
0.142857 0.857143 0
0.142857 0.836735 0
0.142857 0.816327 0
0.142857 0.795918 0
0.142857 0.77551 0
0.142857 0.755102 0
0.142857 0.734694 0
0.142857 0.714286 0
0.142857 0.693878 0
0.142857 0.673469 0
0.142857 0.653061 0
0.142857 0.632653 0
0.142857 0.612245 0
0.142857 0.591837 0
0.142857 0.571429 0
0.142857 0.55102 0
0.142857 0.530612 0
0.142857 0.510204 0
0.142857 0.489796 0
0.142857 0.469388 0
0.142857 0.44898 0
0.142857 0.428571 0
0.142857 0.408163 0
0.142857 0.387755 0
0.142857 0.367347 0
0.142857 0.346939 0
0.142857 0.326531 0
0.142857 0.306122 0
0.142857 0.285714 0
0.142857 0.265306 0
0.142857 0.244898 0
0.142857 0.22449 0
0.142857 0.204082 0
0.142857 0.183673 0
0.142857 0.163265 0
0.142857 0.142857 0
0.142857 0.122449 0
0.142857 0.102041 0
0.142857 0.0816327 0
0.142857 0.0612245 0
0.142857 0.0408163 0
0.142857 0.0204082 0
0.163265 0.979592 0
0.163265 0.959184 0
0.163265 0.938776 0
0.163265 0.918367 0
0.163265 0.897959 0
0.163265 0.877551 0
0.163265 0.857143 0
0.163265 0.836735 0
0.163265 0.816327 0
0.163265 0.795918 0
0.163265 0.77551 0
0.163265 0.755102 0
0.163265 0.734694 0
0.163265 0.714286 0
0.163265 0.693878 0
0.163265 0.673469 0
0.163265 0.653061 0
0.163265 0.632653 0
0.163265 0.612245 0
0.163265 0.591837 0
0.163265 0.571429 0
0.163265 0.55102 0
[...]
CELL_DATA 2401
VECTORS velocity double
0.257582 0.1573 0.0
-0.00263069 0.264433 0.0
-0.0322733 0.205439 0.0
-0.0253787 0.150531 0.0
-0.0160707 0.11298 0.0
-0.00971452 0.0876142 0.0
-0.00593662 0.070537 0.0
-0.00374824 0.0588449 0.0
-0.00246194 0.0506292 0.0
-0.00168216 0.0447023 0.0
-0.00119293 0.0403157 0.0
-0.000876718 0.0369836 0.0
-0.000668011 0.0343818 0.0
-0.000528813 0.0322876 0.0
-0.000436078 0.0305448 0.0
-0.000375189 0.0290417 0.0
-0.000336494 0.0276981 0.0
-0.000313383 0.0264558 0.0
-0.000301187 0.0252731 0.0
-0.000296516 0.0241202 0.0
-0.000296852 0.0229766 0.0
-0.000300284 0.021829 0.0
-0.000305351 0.0206694 0.0
-0.000310924 0.0194941 0.0
-0.000316138 0.018303 0.0
-0.000320335 0.0170984 0.0
-0.000323035 0.0158845 0.0
-0.000323897 0.0146669 0.0
-0.000322704 0.0134524 0.0
-0.000319339 0.0122481 0.0
-0.000313765 0.0110616 0.0
-0.000306008 0.00990046 0.0
-0.000296145 0.00877222 0.0
-0.000284279 0.00768405 0.0
-0.000270535 0.00664282 0.0
-0.000255037 0.00565497 0.0
-0.000237902 0.00472656 0.0
-0.000219224 0.00386329 0.0
-0.000199061 0.00307054 0.0
-0.000177424 0.00235346 0.0
-0.000154262 0.00171709 0.0
-0.000129455 0.00116643 0.0
-0.00010282 0.00070653 0.0
-7.41539e-05 0.000342379 0.0
-4.34136e-05 7.85564e-05 0.0
-1.12269e-05 -8.18641e-05 0.0
1.97912e-05 -0.000139735 0.0
4.23277e-05 -0.000108862 0.0
3.73049e-05 -3.7114e-05 0.0
0.340763 0.122965 0.0
-0.000673938 0.249463 0.0
-0.0652617 0.271637 0.0
-0.0632994 0.252119 0.0
-0.0485656 0.221573 0.0
-0.0349947 0.191695 0.0
-0.0249249 0.166286 0.0
-0.0178806 0.145843 0.0
-0.01302 0.12975 0.0
-0.00965679 0.117147 0.0
-0.00731244 0.107229 0.0
-0.00566799 0.0993329 0.0
-0.00451183 0.092932 0.0
-0.00370164 0.0876225 0.0
-0.00313974 0.0830959 0.0
-0.00275765 0.0791191 0.0
-0.00250632 0.0755162 0.0
-0.00234992 0.072156 0.0
-0.00226179 0.0689415 0.0
-0.00222176 0.0658028 0.0
-0.00221436 0.0626908 0.0
-0.00222758 0.059573 0.0
-0.00225209 0.0564301 0.0
-0.00228056 0.0532534 0.0
-0.00230733 0.0500419 0.0
-0.00232806 0.0468014 0.0
-0.00233954 0.0435423 0.0
-0.00233945 0.0402785 0.0
-0.00232627 0.0370265 0.0
-0.0022991 0.0338043 0.0
-0.00225757 0.0306308 0.0
-0.00220172 0.027525 0.0
-0.0021319 0.024506 0.0
-0.00204865 0.0215921 0.0
-0.00195268 0.0188007 0.0
-0.00184471 0.0161488 0.0
-0.00172547 0.0136519 0.0
-0.0015956 0.0113249 0.0
-0.00145563 0.00918174 0.0
-0.00130594 0.0072357 0.0
-0.00114677 0.00549929 0.0
-0.000978265 0.00398435 0.0
-0.000800698 0.00270182 0.0
-0.000614876 0.00166104 0.0
-0.000423119 0.000868389 0.0
-0.000231394 0.000324553 0.0
-5.36872e-05 1.94405e-05 0.0
8.06384e-05 -7.89474e-05 0.0
0.000108292 -4.11593e-05 0.0
0.500807 0.0768014 0.0
0.0989393 0.183189 0.0
-0.0394678 0.249159 0.0
-0.0735126 0.265647 0.0
-0.0719457 0.257345 0.0
-0.0606016 0.239576 0.0
-0.0483072 0.219613 0.0
-0.0377018 0.200738 0.0
-0.0292749 0.184158 0.0
-0.0228243 0.170078 0.0
-0.0179835 0.158278 0.0
-0.0143983 0.14839 0.0
-0.011774 0.140027 0.0
-0.00987874 0.132837 0.0
-0.00853434 0.126518 0.0
-0.00760459 0.120826 0.0
-0.0069853 0.115565 0.0
-0.00659639 0.110583 0.0
-0.00637587 0.105766 0.0
-0.00627534 0.101028 0.0
-0.00625678 0.0963088 0.0
-0.00629016 0.09157 0.0
-0.00635174 0.0867884 0.0
-0.0064228 0.0819549 0.0
-0.00648869 0.0770707 0.0
-0.00653817 0.0721456 0.0
-0.0065628 0.0671959 0.0
-0.00655653 0.0622425 0.0
-0.00651529 0.0573096 0.0
-0.00643667 0.0524236 0.0
-0.0063196 0.047612 0.0
-0.00616406 0.0429026 0.0
-0.00597086 0.0383229 0.0
-0.00574135 0.0338997 0.0
-0.00547726 0.0296586 0.0
-0.00518048 0.0256241 0.0
-0.00485291 0.0218193 0.0
-0.00449633 0.0182659 0.0
-0.00411235 0.0149842 0.0
-0.00370238 0.0119932 0.0
-0.00326771 0.00931087 0.0
-0.00280983 0.00695324 0.0
-0.00233099 0.00493452 0.0
-0.00183533 0.00326575 0.0
-0.0013311 0.00195303 0.0
-0.000834727 0.000994428 0.0
-0.000378039 0.000374121 0.0
-1.83583e-05 5.49176e-05 0.0
0.00013671 -1.78017e-05 0.0
0.60997 0.0480472 0.0
0.195531 0.133932 0.0
0.0112257 0.209372 0.0
-0.058162 0.246417 0.0
-0.0761292 0.256986 0.0
-0.0737009 0.253602 0.0
-0.0643447 0.243448 0.0
-0.0536845 0.23077 0.0
-0.043901 0.21782 0.0
-0.0356851 0.205646 0.0
-0.0291067 0.194632 0.0
-0.024 0.184818 0.0
-0.0201309 0.176082 0.0
-0.0172663 0.168235 0.0
-0.0151991 0.161079 0.0
-0.0137549 0.154429 0.0
-0.0127904 0.148125 0.0
-0.0121891 0.142036 0.0
-0.0118571 0.13606 0.0
-0.0117184 0.130118 0.0
-0.011712 0.124157 0.0
-0.0117885 0.118142 0.0
-0.0119084 0.112055 0.0
-0.0120401 0.105892 0.0
-0.0121589 0.0996604 0.0
-0.0122456 0.0933748 0.0
-0.0122857 0.0870581 0.0
-0.0122688 0.0807378 0.0
-0.0121879 0.0744448 0.0
-0.0120389 0.0682124 0.0
-0.01182 0.0620747 0.0
-0.0115311 0.0560661 0.0
-0.0111738 0.0502205 0.0
-0.0107503 0.0445709 0.0
-0.0102638 0.0391488 0.0
-0.00971761 0.0339842 0.0
-0.00911517 0.0291054 0.0
-0.00845984 0.0245389 0.0
-0.00775481 0.0203096 0.0
-0.00700308 0.0164405 0.0
-0.00620777 0.0129526 0.0
-0.00537263 0.0098649 0.0
-0.00450305 0.00719328 0.0
-0.00360791 0.00494967 0.0
-0.00270273 0.00314019 0.0
-0.00181502 0.00176271 0.0
-0.000993008 0.000801067 0.0
-0.000316412 0.000223205 0.0
7.7727e-05 1.26872e-05 0.0
0.680349 0.030169 0.0
0.278301 0.0981779 0.0
0.0694574 0.170971 0.0
-0.0275848 0.217527 0.0
-0.0652563 0.24105 0.0
-0.0745608 0.249624 0.0
-0.0713668 0.24917 0.0
-0.0634421 0.243787 0.0
-0.0544561 0.236043 0.0
-0.0460406 0.227426 0.0
-0.0388243 0.218729 0.0
-0.0329547 0.210323 0.0
-0.0283607 0.202338 0.0
-0.0248842 0.19477 0.0
-0.0223433 0.18755 0.0
-0.0205621 0.180587 0.0
-0.0193824 0.173783 0.0
-0.018667 0.167054 0.0
-0.0183 0.160329 0.0
-0.0181842 0.153553 0.0
-0.0182392 0.14669 0.0
-0.0183987 0.139721 0.0
-0.0186086 0.132637 0.0
-0.0188254 0.125445 0.0
-0.0190144 0.118159 0.0
-0.0191488 0.110804 0.0
-0.0192083 0.103409 0.0
-0.0191783 0.0960077 0.0
-0.0190492 0.0886379 0.0
-0.0188153 0.0813383 0.0
-0.0184743 0.0741485 0.0
-0.0180264 0.0671081 0.0
-0.0174739 0.0602556 0.0
-0.0168207 0.0536283 0.0
-0.0160712 0.0472619 0.0
-0.0152307 0.0411902 0.0
-0.0143046 0.0354448 0.0
-0.013298 0.0300554 0.0
-0.0122162 0.0250496 0.0
-0.0110642 0.020453 0.0
-0.00984751 0.0162886 0.0
-0.00857276 0.012577 0.0
-0.00724909 0.00933532 0.0
-0.00589054 0.00657648 0.0
-0.00451967 0.00430794 0.0
-0.00317354 0.00253025 0.0
-0.00191247 0.00123165 0.0
-0.000830082 0.000391895 0.0
-7.62288e-05 4.2101e-05 0.0
0.729733 0.0191995 0.0
0.348835 0.0730564 0.0
0.127797 0.139323 0.0
0.0111998 0.188362 0.0
-0.0441965 0.219801 0.0
-0.0657627 0.237029 0.0
-0.0702783 0.244581 0.0
-0.0668468 0.245923 0.0
-0.0602693 0.243508 0.0
-0.0529949 0.238942 0.0
-0.0461998 0.233219 0.0
-0.0403791 0.22692 0.0
-0.0356729 0.220359 0.0
-0.0320437 0.213687 0.0
-0.0293735 0.206957 0.0
-0.0275148 0.20017 0.0
-0.0263169 0.193301 0.0
-0.0256389 0.18632 0.0
-0.0253542 0.179196 0.0
-0.0253528 0.171907 0.0
-0.0255408 0.164444 0.0
-0.0258389 0.156803 0.0
-0.0261816 0.148994 0.0
-0.0265152 0.141037 0.0
-0.0267969 0.132957 0.0
-0.0269934 0.124787 0.0
-0.0270794 0.116564 0.0
-0.0270372 0.108331 0.0
-0.0268549 0.100129 0.0
-0.0265259 0.0920039 0.0
-0.0260478 0.0839988 0.0
-0.0254217 0.0761575 0.0
-0.0246512 0.0685221 0.0
-0.0237417 0.0611329 0.0
-0.0226997 0.0540282 0.0
-0.0215326 0.047244 0.0
-0.0202479 0.0408141 0.0
-0.018853 0.0347698 0.0
-0.0173553 0.0291404 0.0
-0.0157624 0.0239525 0.0
-0.0140823 0.0192304 0.0
-0.0123246 0.0149957 0.0
-0.0105024 0.0112667 0.0
-0.00863425 0.00805792 0.0
-0.00674856 0.00537965 0.0
-0.00488909 0.00323751 0.0
-0.00312311 0.00162745 0.0
-0.00154961 0.000544387 0.0
-0.000317762 6.73764e-05 0.0
0.765747 0.0125996 0.0
0.408283 0.0557259 0.0
0.182826 0.114596 0.0
0.052783 0.162768 0.0
-0.0169133 0.198039 0.0
-0.0499422 0.221039 0.0
-0.0625904 0.234603 0.0
-0.0645811 0.24149 0.0
-0.0614728 0.243832 0.0
-0.0563486 0.243157 0.0
-0.0508558 0.240504 0.0
-0.0458182 0.236554 0.0
-0.0415941 0.231735 0.0
-0.0382858 0.226304 0.0
-0.0358599 0.22041 0.0
-0.0342174 0.214133 0.0
-0.0332321 0.207515 0.0
-0.0327723 0.200577 0.0
-0.032712 0.193333 0.0
-0.0329364 0.185796 0.0
-0.0333443 0.17798 0.0
-0.0338484 0.169908 0.0
-0.0343752 0.161606 0.0
-0.0348638 0.153109 0.0
-0.0352655 0.144455 0.0
-0.0355422 0.135687 0.0
-0.0356652 0.126852 0.0
-0.0356145 0.117997 0.0
-0.0353773 0.109173 0.0
-0.0349469 0.100427 0.0
-0.0343217 0.0918081 0.0
-0.033504 0.0833631 0.0
-0.0324994 0.0751366 0.0
-0.0313153 0.0671709 0.0
-0.0299608 0.0595056 0.0
-0.0284454 0.052178 0.0
-0.0267792 0.0452228 0.0
-0.0249721 0.0386718 0.0
-0.0230339 0.0325548 0.0
-0.0209744 0.0268989 0.0
-0.0188045 0.0217288 0.0
-0.0165365 0.017067 0.0
-0.0141867 0.0129329 0.0
-0.0117773 0.00934349 0.0
-0.00934042 0.00631277 0.0
-0.00692322 0.00385311 0.0
-0.00459482 0.00196988 0.0
-0.00245238 0.000673975 0.0
-0.000634713 8.78192e-05 0.0
0.792798 0.00861481 0.0
0.458374 0.0436599 0.0
0.233365 0.0954835 0.0
0.0945259 0.141266 0.0
0.0140536 0.177623 0.0
-0.0293016 0.204263 0.0
-0.0498943 0.22211 0.0
-0.0576652 0.233304 0.0
-0.0586342 0.239599 0.0
-0.0563425 0.242349 0.0
-0.0528137 0.242553 0.0
-0.0491548 0.240911 0.0
-0.0459269 0.237904 0.0
-0.0433711 0.233854 0.0
-0.041546 0.228975 0.0
-0.0404104 0.223409 0.0
-0.0398729 0.21725 0.0
-0.0398206 0.210566 0.0
-0.0401361 0.20341 0.0
-0.0407067 0.195825 0.0
-0.0414296 0.187855 0.0
-0.0422137 0.179544 0.0
-0.0429813 0.170939 0.0
-0.0436675 0.162087 0.0
-0.0442198 0.153042 0.0
-0.0445976 0.143858 0.0
-0.0447704 0.134588 0.0
-0.0447176 0.12529 0.0
-0.0444265 0.116017 0.0
-0.0438914 0.106823 0.0
-0.0431124 0.0977614 0.0
-0.0420941 0.0888799 0.0
-0.0408444 0.0802254 0.0
-0.0393735 0.0718414 0.0
-0.0376933 0.0637684 0.0
-0.0358161 0.0560438 0.0
-0.0337547 0.0487021 0.0
-0.0315215 0.0417751 0.0
-0.0291287 0.0352922 0.0
-0.0265886 0.0292801 0.0
-0.0239143 0.0237638 0.0
-0.0211206 0.0187661 0.0
-0.0182257 0.0143081 0.0
-0.0152542 0.010409 0.0
-0.0122394 0.00708756 0.0
-0.00922899 0.00436346 0.0
-0.00628921 0.00225197 0.0
-0.00350994 0.000779015 0.0
-0.00101351 0.000103669 0.0
0.81383 0.00616657 0.0
0.500911 0.0351116 0.0
0.279259 0.0807078 0.0
0.134968 0.123527 0.0
0.0461894 0.159636 0.0
-0.00562344 0.188015 0.0
-0.0335906 0.208779 0.0
-0.0471294 0.223163 0.0
-0.0524555 0.232582 0.0
-0.0534119 0.23819 0.0
-0.0523056 0.240891 0.0
-0.0504749 0.241358 0.0
-0.048656 0.240081 0.0
-0.0472174 0.237414 0.0
-0.046307 0.233609 0.0
-0.0459439 0.228849 0.0
-0.0460756 0.223269 0.0
-0.0466136 0.216974 0.0
-0.0474541 0.210046 0.0
-0.0484916 0.202561 0.0
-0.0496256 0.194586 0.0
-0.0507657 0.186185 0.0
-0.0518329 0.177424 0.0
-0.0527609 0.168367 0.0
-0.0534962 0.159079 0.0
-0.0539974 0.149624 0.0
-0.0542342 0.140067 0.0
-0.0541869 0.13047 0.0
-0.0538444 0.120895 0.0
-0.0532032 0.111398 0.0
-0.0522661 0.102035 0.0
-0.0510408 0.0928576 0.0
-0.0495386 0.0839135 0.0
-0.0477729 0.0752466 0.0
-0.0457589 0.0668974 0.0
-0.0435122 0.0589028 0.0
-0.0410483 0.0512964 0.0
-0.0383824 0.0441092 0.0
-0.0355291 0.0373694 0.0
-0.0325029 0.0311033 0.0
-0.0293185 0.0253352 0.0
-0.0259923 0.0200884 0.0
-0.0225437 0.0153851 0.0
-0.0189975 0.0112474 0.0
-0.0153866 0.00769867 0.0
-0.0117555 0.0047657 0.0
-0.00816445 0.00247319 0.0
-0.00469208 0.000860309 0.0
-0.00144087 0.000115477 0.0
0.830716 0.00462188 0.0
0.537409 0.0289201 0.0
0.320806 0.0691714 0.0
0.173508 0.108891 0.0
0.0785075 0.143986 0.0
0.019835 0.172898 0.0
-0.0148074 0.19549 0.0
-0.0338865 0.212156 0.0
-0.0436277 0.223959 0.0
-0.0480479 0.231864 0.0
-0.0496568 0.236658 0.0
-0.0499723 0.238962 0.0
-0.0498759 0.23925 0.0
-0.0498465 0.237881 0.0
-0.050113 0.235126 0.0
-0.0507518 0.231193 0.0
-0.05175 0.226243 0.0
-0.0530449 0.220408 0.0
-0.0545496 0.213798 0.0
-0.0561682 0.20651 0.0
-0.0578062 0.198634 0.0
-0.059376 0.190253 0.0
-0.0608002 0.181449 0.0
-0.0620136 0.1723 0.0
-0.0629637 0.162885 0.0
-0.0636104 0.153277 0.0
-0.0639254 0.14355 0.0
-0.0638913 0.133774 0.0
-0.0635001 0.124014 0.0
-0.0627519 0.114333 0.0
-0.0616535 0.104789 0.0
-0.0602164 0.0954345 0.0
-0.0584561 0.0863183 0.0
-0.0563902 0.0774845 0.0
-0.0540377 0.0689728 0.0
-0.0514176 0.0608191 0.0
-0.0485487 0.0530556 0.0
-0.0454488 0.0457115 0.0
-0.0421348 0.0388137 0.0
-0.0386229 0.0323871 0.0
-0.0349293 0.0264553 0.0
-0.0310707 0.0210415 0.0
-0.0270665 0.016169 0.0
-0.0229403 0.0118624 0.0
-0.0187219 0.00814932 0.0
-0.0144509 0.00506295 0.0
-0.0101784 0.00263637 0.0
-0.00596928 0.000919731 0.0
-0.00190456 0.000123848 0.0
0.844649 0.00361404 0.0
0.569063 0.0243287 0.0
0.358426 0.060055 0.0
0.209859 0.0967794 0.0
0.110239 0.130468 0.0
0.0458863 0.159254 0.0
0.0056353 0.182672 0.0
-0.018675 0.20092 0.0
-0.0327596 0.214492 0.0
-0.0407238 0.224185 0.0
-0.0452156 0.23068 0.0
-0.047889 0.23453 0.0
-0.0497414 0.236179 0.0
-0.0513446 0.235975 0.0
-0.0529977 0.234194 0.0
-0.0548289 0.231055 0.0
-0.056862 0.226736 0.0
-0.05906 0.221387 0.0
-0.061353 0.215138 0.0
-0.0636567 0.208106 0.0
-0.0658838 0.200396 0.0
-0.0679517 0.19211 0.0
-0.0697865 0.183343 0.0
-0.071326 0.174188 0.0
-0.0725204 0.164733 0.0
-0.0733327 0.155064 0.0
-0.0737384 0.145261 0.0
-0.0737239 0.135401 0.0
-0.0732859 0.125555 0.0
-0.0724293 0.115789 0.0
-0.0711658 0.106163 0.0
-0.0695123 0.0967322 0.0
-0.0674892 0.0875446 0.0
-0.065119 0.0786443 0.0
-0.0624248 0.0700696 0.0
-0.0594299 0.0618547 0.0
-0.0561563 0.0540299 0.0
-0.0526246 0.0466224 0.0
-0.0488538 0.0396567 0.0
-0.0448614 0.0331562 0.0
-0.0406641 0.0271432 0.0
-0.0362786 0.0216403 0.0
-0.0317226 0.0166716 0.0
-0.027017 0.0122635 0.0
-0.022187 0.00844715 0.0
-0.0172647 0.00526127 0.0
-0.0122905 0.00274575 0.0
-0.00731375 0.000959465 0.0
-0.00239365 0.000129335 0.0
0.856411 0.0029299 0.0
0.596803 0.0208382 0.0
0.392575 0.0527439 0.0
0.243982 0.0866725 0.0
0.141014 0.118769 0.0
0.0720061 0.147014 0.0
0.0268776 0.170688 0.0
-0.00210167 0.189827 0.0
-0.0203687 0.204668 0.0
-0.0318658 0.215712 0.0
-0.0393184 0.223547 0.0
-0.0444784 0.228659 0.0
-0.0484347 0.231453 0.0
-0.0518344 0.232258 0.0
-0.0550359 0.231343 0.0
-0.058212 0.228931 0.0
-0.0614191 0.225208 0.0
-0.0646436 0.220337 0.0
-0.0678321 0.214459 0.0
-0.0709117 0.207707 0.0
-0.0738033 0.200201 0.0
-0.0764301 0.192056 0.0
-0.0787231 0.183381 0.0
-0.0806243 0.17428 0.0
-0.0820885 0.164851 0.0
-0.0830833 0.155191 0.0
-0.0835892 0.145386 0.0
-0.0835983 0.135519 0.0
-0.0831131 0.125667 0.0
-0.0821447 0.115898 0.0
-0.0807113 0.106275 0.0
-0.0788358 0.0968539 0.0
-0.0765446 0.0876825 0.0
-0.0738658 0.0788036 0.0
-0.0708277 0.0702541 0.0
-0.0674576 0.0620659 0.0
-0.0637814 0.0542666 0.0
-0.0598222 0.0468808 0.0
-0.0556011 0.0399306 0.0
-0.0511366 0.0334369 0.0
-0.0464452 0.0274203 0.0
-0.0415423 0.0219024 0.0
-0.0364432 0.0169071 0.0
-0.0311645 0.0124622 0.0
-0.0257252 0.00860147 0.0
-0.0201485 0.0053676 0.0
-0.0144624 0.00280584 0.0
-0.00869989 0.000981598 0.0
-0.00289846 0.000132396 0.0
0.866526 0.0024451 0.0
0.621348 0.0181174 0.0
0.423676 0.0467862 0.0
0.275935 0.0781503 0.0
0.170613 0.108591 0.0
0.0977971 0.136034 0.0
0.0484307 0.159589 0.0
0.0153135 0.179108 0.0
-0.0068973 0.194778 0.0
-0.0218496 0.206809 0.0
-0.0322746 0.215664 0.0
-0.0399871 0.221774 0.0
-0.0461454 0.225501 0.0
-0.0514564 0.227152 0.0
-0.0563264 0.226981 0.0
-0.0609656 0.225208 0.0
-0.065458 0.222023 0.0
-0.0698103 0.217593 0.0
-0.0739837 0.212072 0.0
-0.0779159 0.205601 0.0
-0.0815359 0.198312 0.0
-0.084773 0.190332 0.0
-0.0875641 0.181781 0.0
-0.0898565 0.172774 0.0
-0.0916104 0.16342 0.0
-0.0927996 0.15382 0.0
-0.093411 0.144071 0.0
-0.0934437 0.13426 0.0
-0.0929077 0.124468 0.0
-0.0918215 0.114767 0.0
-0.0902108 0.10522 0.0
-0.0881059 0.0958841 0.0
-0.0855401 0.0868062 0.0
-0.0825478 0.0780276 0.0
-0.079163 0.0695829 0.0
-0.0754177 0.0615013 0.0
-0.0713416 0.0538074 0.0
-0.0669608 0.0465224 0.0
-0.0622978 0.0396655 0.0
-0.0573718 0.0332545 0.0
-0.0521987 0.0273077 0.0
-0.0467917 0.0218453 0.0
-0.0411625 0.0168902 0.0
-0.0353224 0.0124705 0.0
-0.0292827 0.00862149 0.0
-0.0230565 0.00538859 0.0
-0.0166583 0.00282076 0.0
-0.0101043 0.00098791 0.0
-0.0034104 0.000133382 0.0
0.875355 0.00208639 0.0
0.643252 0.0159445 0.0
0.4521 0.0418511 0.0
0.305828 0.0708797 0.0
0.198926 0.0996702 0.0
0.123003 0.126154 0.0
0.0699492 0.149335 0.0
0.0330855 0.168921 0.0
0.00733406 0.18497 0.0
-0.0109819 0.197693 0.0
-0.0243546 0.207298 0.0
-0.0346428 0.214169 0.0
-0.0430586 0.218632 0.0
-0.0503564 0.220966 0.0
-0.0569808 0.22141 0.0
-0.0631715 0.220177 0.0
-0.0690354 0.217455 0.0
-0.0745958 0.213415 0.0
-0.079826 0.208216 0.0
-0.084673 0.202007 0.0
-0.089073 0.19493 0.0
-0.0929618 0.187122 0.0
-0.0962819 0.178712 0.0
-0.098987 0.169825 0.0
-0.101044 0.160577 0.0
-0.102433 0.151078 0.0
-0.10315 0.141431 0.0
-0.103202 0.131728 0.0
-0.102607 0.122053 0.0
-0.101393 0.11248 0.0
-0.0995949 0.103073 0.0
-0.0972507 0.0938898 0.0
-0.0944017 0.0849754 0.0
-0.0910895 0.0763691 0.0
-0.0873543 0.0681027 0.0
-0.0832335 0.0602019 0.0
-0.0787605 0.0526879 0.0
-0.0739643 0.0455781 0.0
-0.0688692 0.0388878 0.0
-0.0634944 0.0326316 0.0
-0.0578544 0.0268249 0.0
-0.0519598 0.0214852 0.0
-0.0458177 0.0166341 0.0
-0.0394329 0.012299 0.0
-0.0328083 0.00851537 0.0
-0.0259454 0.00532997 0.0
-0.0188448 0.00279391 0.0
-0.0115052 0.000979788 0.0
-0.00392176 0.00013254 0.0
0.883153 0.00180969 0.0
0.662938 0.0141679 0.0
0.478166 0.0376938 0.0
0.333788 0.064597 0.0
0.225911 0.0917774 0.0
0.147461 0.11721 0.0
0.091197 0.139837 0.0
0.0509444 0.159261 0.0
0.021887 0.175435 0.0
0.000463809 0.188502 0.0
-0.0157968 0.198625 0.0
-0.0286528 0.206043 0.0
-0.0393502 0.211057 0.0
-0.0486799 0.213916 0.0
-0.0571161 0.214845 0.0
-0.0649219 0.214046 0.0
-0.0722214 0.211703 0.0
-0.0790507 0.207988 0.0
-0.085393 0.203064 0.0
-0.0912025 0.197085 0.0
-0.0964216 0.190203 0.0
-0.100992 0.18256 0.0
-0.104863 0.174296 0.0
-0.107993 0.165542 0.0
-0.110358 0.156423 0.0
-0.111946 0.147057 0.0
-0.112762 0.137549 0.0
-0.112823 0.127997 0.0
-0.112157 0.118489 0.0
-0.110801 0.109098 0.0
-0.108801 0.0998915 0.0
-0.106205 0.0909228 0.0
-0.103061 0.082237 0.0
-0.099421 0.0738704 0.0
-0.0953305 0.0658512 0.0
-0.0908328 0.0582014 0.0
-0.0859657 0.0509379 0.0
-0.080761 0.0440738 0.0
-0.0752444 0.0376203 0.0
-0.0694348 0.0315879 0.0
-0.063345 0.0259884 0.0
-0.0569823 0.0208361 0.0
-0.0503485 0.0161504 0.0
-0.0434409 0.0119567 0.0
-0.0362529 0.0082898 0.0
-0.0287742 0.00519625 0.0
-0.0209903 0.00272787 0.0
-0.0128827 0.000958221 0.0
-0.00442543 0.000130024 0.0
0.8901 0.00158779 0.0
0.680736 0.012682 0.0
0.502135 0.0341311 0.0
0.35994 0.0590925 0.0
0.251559 0.0847162 0.0
0.171061 0.109044 0.0
0.111999 0.130985 0.0
0.0686822 0.150067 0.0
0.0365626 0.166162 0.0
0.0122164 0.179335 0.0
-0.00682325 0.189747 0.0
-0.0222108 0.197519 0.0
-0.0351873 0.202908 0.0
-0.046569 0.206143 0.0
-0.0568516 0.207429 0.0
-0.0663145 0.206955 0.0
-0.0750942 0.204902 0.0
-0.083236 0.20144 0.0
-0.0907297 0.196735 0.0
-0.0975351 0.190946 0.0
-0.1036 0.184229 0.0
-0.10887 0.176737 0.0
-0.113301 0.168614 0.0
-0.116861 0.16 0.0
-0.11953 0.151028 0.0
-0.121309 0.141818 0.0
-0.12221 0.132482 0.0
-0.122263 0.123122 0.0
-0.121507 0.113826 0.0
-0.119991 0.104669 0.0
-0.117771 0.0957169 0.0
-0.114906 0.0870222 0.0
-0.111455 0.0786273 0.0
-0.107476 0.0705647 0.0
-0.103024 0.062859 0.0
-0.098147 0.0555275 0.0
-0.0928882 0.0485823 0.0
-0.087282 0.0420319 0.0
-0.0813552 0.0358825 0.0
-0.0751263 0.0301402 0.0
-0.0686061 0.0248125 0.0
-0.0617977 0.0199099 0.0
-0.0546969 0.0154484 0.0
-0.0472933 0.0114509 0.0
-0.0395698 0.00795002 0.0
-0.0315036 0.00499084 0.0
-0.0230651 0.00262445 0.0
-0.0142176 0.000923841 0.0
-0.00491474 0.000125913 0.0
0.89633 0.00140334 0.0
0.696899 0.0114112 0.0
0.524225 0.031024 0.0
0.384397 0.0541987 0.0
0.275879 0.0783204 0.0
0.193729 0.101511 0.0
0.132221 0.122669 0.0
0.0861233 0.141268 0.0
0.051158 0.157117 0.0
0.0240455 0.170221 0.0
0.00238497 0.18069 0.0
-0.0154873 0.188654 0.0
-0.0307243 0.19426 0.0
-0.0441601 0.197729 0.0
-0.0563052 0.199244 0.0
-0.0674494 0.198988 0.0
-0.0777371 0.197132 0.0
-0.0872187 0.193847 0.0
-0.0958882 0.189299 0.0
-0.103709 0.183653 0.0
-0.110632 0.177069 0.0
-0.116609 0.169706 0.0
-0.1216 0.161716 0.0
-0.125581 0.153246 0.0
-0.128542 0.144431 0.0
-0.130493 0.1354 0.0
-0.131459 0.126268 0.0
-0.131481 0.117137 0.0
-0.130611 0.108097 0.0