# vtk DataFile Version 3.0
Malha 2D com triângulos e temperatura
ASCII
DATASET UNSTRUCTURED_GRID

POINTS 2500 double
0 0 0
1 0 0
1 1 0
0 1 0
0.0204082 0 0
0.0408163 0 0
0.0612245 0 0
0.0816327 0 0
0.102041 0 0
0.122449 0 0
0.142857 0 0
0.163265 0 0
0.183673 0 0
0.204082 0 0
0.22449 0 0
0.244898 0 0
0.265306 0 0
0.285714 0 0
0.306122 0 0
0.326531 0 0
0.346939 0 0
0.367347 0 0
0.387755 0 0
0.408163 0 0
0.428571 0 0
0.44898 0 0
0.469388 0 0
0.489796 0 0
0.510204 0 0
0.530612 0 0
0.55102 0 0
0.571429 0 0
0.591837 0 0
0.612245 0 0
0.632653 0 0
0.653061 0 0
0.673469 0 0
0.693878 0 0
0.714286 0 0
0.734694 0 0
0.755102 0 0
0.77551 0 0
0.795918 0 0
0.816327 0 0
0.836735 0 0
0.857143 0 0
0.877551 0 0
0.897959 0 0
0.918367 0 0
0.938776 0 0
0.959184 0 0
0.979592 0 0
1 0.0204082 0
1 0.0408163 0
1 0.0612245 0
1 0.0816327 0
1 0.102041 0
1 0.122449 0
1 0.142857 0
1 0.163265 0
1 0.183673 0
1 0.204082 0
1 0.22449 0
1 0.244898 0
1 0.265306 0
1 0.285714 0
1 0.306122 0
1 0.326531 0
1 0.346939 0
1 0.367347 0
1 0.387755 0
1 0.408163 0
1 0.428571 0
1 0.44898 0
1 0.469388 0
1 0.489796 0
1 0.510204 0
1 0.530612 0
1 0.55102 0
1 0.571429 0
1 0.591837 0
1 0.612245 0
1 0.632653 0
1 0.653061 0
1 0.673469 0
1 0.693878 0
1 0.714286 0
1 0.734694 0
1 0.755102 0
1 0.77551 0
1 0.795918 0
1 0.816327 0
1 0.836735 0
1 0.857143 0
1 0.877551 0
1 0.897959 0
1 0.918367 0
1 0.938776 0
1 0.959184 0
1 0.979592 0
0.979592 1 0
0.959184 1 0
0.938776 1 0
0.918367 1 0
0.897959 1 0
0.877551 1 0
0.857143 1 0
0.836735 1 0
0.816327 1 0
0.795918 1 0
0.77551 1 0
0.755102 1 0
0.734694 1 0
0.714286 1 0
0.693878 1 0
0.673469 1 0
0.653061 1 0
0.632653 1 0
0.612245 1 0
0.591837 1 0
0.571429 1 0
0.55102 1 0
0.530612 1 0
0.510204 1 0
0.489796 1 0
0.469388 1 0
0.44898 1 0
0.428571 1 0
0.408163 1 0
0.387755 1 0
0.367347 1 0
0.346939 1 0
0.326531 1 0
0.306122 1 0
0.285714 1 0
0.265306 1 0
0.244898 1 0
0.22449 1 0
0.204082 1 0
0.183673 1 0
0.163265 1 0
0.142857 1 0
0.122449 1 0
0.102041 1 0
0.0816327 1 0
0.0612245 1 0
0.0408163 1 0
0.0204082 1 0
0 0.979592 0
0 0.959184 0
0 0.938776 0
0 0.918367 0
0 0.897959 0
0 0.877551 0
0 0.857143 0
0 0.836735 0
0 0.816327 0
0 0.795918 0
0 0.77551 0
0 0.755102 0
0 0.734694 0
0 0.714286 0
0 0.693878 0
0 0.673469 0
0 0.653061 0
0 0.632653 0
0 0.612245 0
0 0.591837 0
0 0.571429 0
0 0.55102 0
0 0.530612 0
0 0.510204 0
0 0.489796 0
0 0.469388 0
0 0.44898 0
0 0.428571 0
0 0.408163 0
0 0.387755 0
0 0.367347 0
0 0.346939 0
0 0.326531 0
0 0.306122 0
0 0.285714 0
0 0.265306 0
0 0.244898 0
0 0.22449 0
0 0.204082 0
0 0.183673 0
0 0.163265 0
0 0.142857 0
0 0.122449 0
0 0.102041 0
0 0.0816327 0
0 0.0612245 0
0 0.0408163 0
0 0.0204082 0
0.0204082 0.979592 0
0.0204082 0.959184 0
0.0204082 0.938776 0
0.0204082 0.918367 0
0.0204082 0.897959 0
0.0204082 0.877551 0
0.0204082 0.857143 0
0.0204082 0.836735 0
0.0204082 0.816327 0
0.0204082 0.795918 0
0.0204082 0.77551 0
0.0204082 0.755102 0
0.0204082 0.734694 0
0.0204082 0.714286 0
0.0204082 0.693878 0
0.0204082 0.673469 0
0.0204082 0.653061 0
0.0204082 0.632653 0
0.0204082 0.612245 0
0.0204082 0.591837 0
0.0204082 0.571429 0
0.0204082 0.55102 0
0.0204082 0.530612 0
0.0204082 0.510204 0
0.0204082 0.489796 0
0.0204082 0.469388 0
0.0204082 0.44898 0
0.0204082 0.428571 0
0.0204082 0.408163 0
0.0204082 0.387755 0
0.0204082 0.367347 0
0.0204082 0.346939 0
0.0204082 0.326531 0
0.0204082 0.306122 0
0.0204082 0.285714 0
0.0204082 0.265306 0
0.0204082 0.244898 0
0.0204082 0.22449 0
0.0204082 0.204082 0
0.0204082 0.183673 0
0.0204082 0.163265 0
0.0204082 0.142857 0
0.0204082 0.122449 0
0.0204082 0.102041 0
0.0204082 0.0816327 0
0.0204082 0.0612245 0
0.0204082 0.0408163 0
0.0204082 0.0204082 0
0.0408163 0.979592 0
0.0408163 0.959184 0
0.0408163 0.938776 0
0.0408163 0.918367 0
0.0408163 0.897959 0
0.0408163 0.877551 0
0.0408163 0.857143 0
0.0408163 0.836735 0
0.0408163 0.816327 0
0.0408163 0.795918 0
0.0408163 0.77551 0
0.0408163 0.755102 0
0.0408163 0.734694 0
0.0408163 0.714286 0
0.0408163 0.693878 0
0.0408163 0.673469 0
0.0408163 0.653061 0
0.0408163 0.632653 0
0.0408163 0.612245 0
0.0408163 0.591837 0
0.0408163 0.571429 0
0.0408163 0.55102 0
0.0408163 0.530612 0
0.0408163 0.510204 0
0.0408163 0.489796 0
0.0408163 0.469388 0
0.0408163 0.44898 0
0.0408163 0.428571 0
0.0408163 0.408163 0
0.0408163 0.387755 0
0.0408163 0.367347 0
0.0408163 0.346939 0
0.0408163 0.326531 0
0.0408163 0.306122 0
0.0408163 0.285714 0
0.0408163 0.265306 0
0.0408163 0.244898 0
0.0408163 0.22449 0
0.0408163 0.204082 0
0.0408163 0.183673 0
0.0408163 0.163265 0
0.0408163 0.142857 0
0.0408163 0.122449 0
0.0408163 0.102041 0
0.0408163 0.0816327 0
0.0408163 0.0612245 0
0.0408163 0.0408163 0
0.0408163 0.0204082 0
0.0612245 0.979592 0
0.0612245 0.959184 0
0.0612245 0.938776 0
0.0612245 0.918367 0
0.0612245 0.897959 0
0.0612245 0.877551 0
0.0612245 0.857143 0
0.0612245 0.836735 0
0.0612245 0.816327 0
0.0612245 0.795918 0
0.0612245 0.77551 0
0.0612245 0.755102 0
0.0612245 0.734694 0
0.0612245 0.714286 0
0.0612245 0.693878 0
0.0612245 0.673469 0
0.0612245 0.653061 0
0.0612245 0.632653 0
0.0612245 0.612245 0
0.0612245 0.591837 0
0.0612245 0.571429 0
0.0612245 0.55102 0
0.0612245 0.530612 0
0.0612245 0.510204 0
0.0612245 0.489796 0
0.0612245 0.469388 0
0.0612245 0.44898 0
0.0612245 0.428571 0
0.0612245 0.408163 0
0.0612245 0.387755 0
0.0612245 0.367347 0
0.0612245 0.346939 0
0.0612245 0.326531 0
0.0612245 0.306122 0
0.0612245 0.285714 0
0.0612245 0.265306 0
0.0612245 0.244898 0
0.0612245 0.22449 0
0.0612245 0.204082 0
0.0612245 0.183673 0
0.0612245 0.163265 0
0.0612245 0.142857 0
0.0612245 0.122449 0
0.0612245 0.102041 0
0.0612245 0.0816327 0
0.0612245 0.0612245 0
0.0612245 0.0408163 0
0.0612245 0.0204082 0
0.0816327 0.979592 0
0.0816327 0.959184 0
0.0816327 0.938776 0
0.0816327 0.918367 0
0.0816327 0.897959 0
0.0816327 0.877551 0
0.0816327 0.857143 0
0.0816327 0.836735 0
0.0816327 0.816327 0
0.0816327 0.795918 0
0.0816327 0.77551 0
0.0816327 0.755102 0
0.0816327 0.734694 0
0.0816327 0.714286 0
0.0816327 0.693878 0
0.0816327 0.673469 0
0.0816327 0.653061 0
0.0816327 0.632653 0
0.0816327 0.612245 0
0.0816327 0.591837 0
0.0816327 0.571429 0
0.0816327 0.55102 0
0.0816327 0.530612 0
0.0816327 0.510204 0
0.0816327 0.489796 0
0.0816327 0.469388 0
0.0816327 0.44898 0
0.0816327 0.428571 0
0.0816327 0.408163 0
0.0816327 0.387755 0
0.0816327 0.367347 0
0.0816327 0.346939 0
0.0816327 0.326531 0
0.0816327 0.306122 0
0.0816327 0.285714 0
0.0816327 0.265306 0
0.0816327 0.244898 0
0.0816327 0.22449 0
0.0816327 0.204082 0
0.0816327 0.183673 0
0.0816327 0.163265 0
0.0816327 0.142857 0
0.0816327 0.122449 0
0.0816327 0.102041 0
0.0816327 0.0816327 0
0.0816327 0.0612245 0
0.0816327 0.0408163 0
0.0816327 0.0204082 0
0.102041 0.979592 0
0.102041 0.959184 0
0.102041 0.938776 0
0.102041 0.918367 0
0.102041 0.897959 0
0.102041 0.877551 0
0.102041 0.857143 0
0.102041 0.836735 0
0.102041 0.816327 0
0.102041 0.795918 0
0.102041 0.77551 0
0.102041 0.755102 0
0.102041 0.734694 0
0.102041 0.714286 0
0.102041 0.693878 0
0.102041 0.673469 0
0.102041 0.653061 0
0.102041 0.632653 0
0.102041 0.612245 0
0.102041 0.591837 0
0.102041 0.571429 0
0.102041 0.55102 0
0.102041 0.530612 0
0.102041 0.510204 0
0.102041 0.489796 0
0.102041 0.469388 0
0.102041 0.44898 0
0.102041 0.428571 0
0.102041 0.408163 0
0.102041 0.387755 0
0.102041 0.367347 0
0.102041 0.346939 0
0.102041 0.326531 0
0.102041 0.306122 0
0.102041 0.285714 0
0.102041 0.265306 0
0.102041 0.244898 0
0.102041 0.22449 0
0.102041 0.204082 0
0.102041 0.183673 0
0.102041 0.163265 0
0.102041 0.142857 0
0.102041 0.122449 0
0.102041 0.102041 0
0.102041 0.0816327 0
0.102041 0.0612245 0
0.102041 0.0408163 0
0.102041 0.0204082 0
0.122449 0.979592 0
0.122449 0.959184 0
0.122449 0.938776 0
0.122449 0.918367 0
0.122449 0.897959 0
0.122449 0.877551 0
0.122449 0.857143 0
0.122449 0.836735 0
0.122449 0.816327 0
0.122449 0.795918 0
0.122449 0.77551 0
0.122449 0.755102 0
0.122449 0.734694 0
0.122449 0.714286 0
0.122449 0.693878 0
0.122449 0.673469 0
0.122449 0.653061 0
0.122449 0.632653 0
0.122449 0.612245 0
0.122449 0.591837 0
0.122449 0.571429 0
0.122449 0.55102 0
0.122449 0.530612 0
0.122449 0.510204 0
0.122449 0.489796 0
0.122449 0.469388 0
0.122449 0.44898 0
0.122449 0.428571 0
0.122449 0.408163 0
0.122449 0.387755 0
0.122449 0.367347 0
0.122449 0.346939 0
0.122449 0.326531 0
0.122449 0.306122 0
0.122449 0.285714 0
0.122449 0.265306 0
0.122449 0.244898 0
0.122449 0.22449 0
0.122449 0.204082 0
0.122449 0.183673 0
0.122449 0.163265 0
0.122449 0.142857 0
0.122449 0.122449 0
0.122449 0.102041 0
0.122449 0.0816327 0
0.122449 0.0612245 0
0.122449 0.0408163 0
0.122449 0.0204082 0
0.142857 0.979592 0
0.142857 0.959184 0
0.142857 0.938776 0
0.142857 0.918367 0
0.142857 0.897959 0
0.142857 0.877551 0
0.142857 0.857143 0
0.142857 0.836735 0
0.142857 0.816327 0
0.142857 0.795918 0
0.142857 0.77551 0
0.142857 0.755102 0
0.142857 0.734694 0
0.142857 0.714286 0
0.142857 0.693878 0
0.142857 0.673469 0
0.142857 0.653061 0
0.142857 0.632653 0
0.142857 0.612245 0
0.142857 0.591837 0
0.142857 0.571429 0
0.142857 0.55102 0
0.142857 0.530612 0
0.142857 0.510204 0
0.142857 0.489796 0
0.142857 0.469388 0
0.142857 0.44898 0
0.142857 0.428571 0
0.142857 0.408163 0
0.142857 0.387755 0
0.142857 0.367347 0
0.142857 0.346939 0
0.142857 0.326531 0
0.142857 0.306122 0
0.142857 0.285714 0
0.142857 0.265306 0
0.142857 0.244898 0
0.142857 0.22449 0
0.142857 0.204082 0
0.142857 0.183673 0
0.142857 0.163265 0
0.142857 0.142857 0
0.142857 0.122449 0
0.142857 0.102041 0
0.142857 0.0816327 0
0.142857 0.0612245 0
0.142857 0.0408163 0
0.142857 0.0204082 0
0.163265 0.979592 0
0.163265 0.959184 0
0.163265 0.938776 0
0.163265 0.918367 0
0.163265 0.897959 0
0.163265 0.877551 0
0.163265 0.857143 0
0.163265 0.836735 0
0.163265 0.816327 0
0.163265 0.795918 0
0.163265 0.77551 0
0.163265 0.755102 0
0.163265 0.734694 0
0.163265 0.714286 0
0.163265 0.693878 0
0.163265 0.673469 0
0.163265 0.653061 0
0.163265 0.632653 0
0.163265 0.612245 0
0.163265 0.591837 0
0.163265 0.571429 0
0.163265 0.55102 0
[...]
CELL_DATA 2401
VECTORS velocity double
0.257585 0.157303 0.0
-0.00258091 0.264512 0.0
-0.0321902 0.205692 0.0
-0.0252932 0.150981 0.0
-0.0160088 0.113588 0.0
-0.00968867 0.0882933 0.0
-0.00594821 0.0711836 0.0
-0.00379219 0.0593604 0.0
-0.00253064 0.0509313 0.0
-0.00176782 0.0447297 0.0
-0.00128866 0.0400272 0.0
-0.000976945 0.0363566 0.0
-0.000768387 0.0334088 0.0
-0.000626042 0.0309737 0.0
-0.000527674 0.0289046 0.0
-0.000459276 0.0270978 0.0
-0.000411648 0.025479 0.0
-0.000378531 0.0239947 0.0
-0.000355538 0.0226066 0.0
-0.00033953 0.0212874 0.0
-0.000328219 0.0200182 0.0
-0.000319924 0.0187863 0.0
-0.000313405 0.0175836 0.0
-0.000307754 0.0164057 0.0
-0.000302316 0.0152505 0.0
-0.00029663 0.014118 0.0
-0.00029039 0.0130094 0.0
-0.000283405 0.0119269 0.0
-0.000275578 0.010873 0.0
-0.000266874 0.00985058 0.0
-0.00025731 0.00886269 0.0
-0.000246929 0.00791219 0.0
-0.000235791 0.00700184 0.0
-0.000223955 0.00613424 0.0
-0.000211477 0.0053118 0.0
-0.000198391 0.00453682 0.0
-0.000184707 0.00381151 0.0
-0.0001704 0.00313811 0.0
-0.000155405 0.00251895 0.0
-0.000139607 0.0019566 0.0
-0.000122831 0.00145396 0.0
-0.000104837 0.00101438 0.0
-8.53159e-05 0.000641739 0.0
-6.39271e-05 0.000340461 0.0
-4.04165e-05 0.000115219 0.0
-1.50141e-05 -2.98153e-05 0.0
1.05177e-05 -9.29108e-05 0.0
3.06825e-05 -8.17996e-05 0.0
2.99298e-05 -2.98001e-05 0.0
0.340844 0.123016 0.0
-0.000417843 0.249717 0.0
-0.0649276 0.272211 0.0
-0.0629898 0.252987 0.0
-0.0483743 0.222632 0.0
-0.0349742 0.192777 0.0
-0.0250861 0.167193 0.0
-0.0182061 0.146378 0.0
-0.0134778 0.129741 0.0
-0.0102105 0.116459 0.0
-0.00792687 0.105768 0.0
-0.00631217 0.0970419 0.0
-0.0051598 0.0897902 0.0
-0.00433228 0.0836384 0.0
-0.00373617 0.0783031 0.0
-0.00330654 0.0735711 0.0
-0.00299727 0.0692828 0.0
-0.00277496 0.0653196 0.0
-0.00261506 0.0615941 0.0
-0.00249928 0.058043 0.0
-0.0024139 0.0546215 0.0
-0.00234856 0.0512993 0.0
-0.00229547 0.0480566 0.0
-0.0022488 0.0448822 0.0
-0.00220428 0.0417712 0.0
-0.00215885 0.0387231 0.0
-0.00211039 0.0357409 0.0
-0.00205754 0.0328296 0.0
-0.00199953 0.0299957 0.0
-0.001936 0.0272462 0.0
-0.00186693 0.0245888 0.0
-0.00179246 0.0220307 0.0
-0.00171287 0.0195791 0.0
-0.00162846 0.0172408 0.0
-0.00153951 0.0150222 0.0
-0.0014462 0.0129294 0.0
-0.00134858 0.0109685 0.0
-0.00124656 0.0091453 0.0
-0.00113982 0.00746604 0.0
-0.00102788 0.00593722 0.0
-0.000910068 0.00456592 0.0
-0.000785565 0.00335981 0.0
-0.000653587 0.00232707 0.0
-0.000513697 0.00147598 0.0
-0.000366573 0.000813782 0.0
-0.000215709 0.000344612 0.0
-7.09971e-05 6.5199e-05 0.0
4.51629e-05 -4.39479e-05 0.0
8.14277e-05 -2.9885e-05 0.0
0.501057 0.0768744 0.0
0.0995033 0.183519 0.0
-0.0388126 0.249826 0.0
-0.0729731 0.266566 0.0
-0.0716932 0.258349 0.0
-0.060737 0.24045 0.0
-0.0488551 0.22011 0.0
-0.0386298 0.200621 0.0
-0.0305167 0.183215 0.0
-0.0242996 0.168141 0.0
-0.0196109 0.155226 0.0
-0.0161026 0.144151 0.0
-0.0134897 0.134574 0.0
-0.0115508 0.126184 0.0
-0.0101175 0.118713 0.0
-0.0090624 0.111946 0.0
-0.00828891 0.105711 0.0
-0.00772359 0.0998732 0.0
-0.0073103 0.0943328 0.0
-0.00700593 0.0890145 0.0
-0.00677732 0.0838647 0.0
-0.006599 0.0788469 0.0
-0.00645152 0.0739378 0.0
-0.00632018 0.0691249 0.0
-0.00619403 0.0644033 0.0
-0.00606518 0.0597741 0.0
-0.00592815 0.0552427 0.0
-0.00577935 0.0508172 0.0
-0.00561668 0.0465076 0.0
-0.00543916 0.0423248 0.0
-0.00524661 0.0382799 0.0
-0.00503937 0.0343841 0.0
-0.00481808 0.0306481 0.0
-0.00458349 0.027082 0.0
-0.00433628 0.0236954 0.0
-0.0040769 0.0204976 0.0
-0.00380555 0.0174974 0.0
-0.00352203 0.0147038 0.0
-0.00322576 0.0121255 0.0
-0.00291576 0.00977202 0.0
-0.00259082 0.00765293 0.0
-0.00224966 0.00577837 0.0
-0.00189149 0.00415855 0.0
-0.00151687 0.00280301 0.0
-0.00112954 0.00171915 0.0
-0.000739713 0.000909848 0.0
-0.00037011 0.000368306 0.0
-6.45079e-05 7.23324e-05 0.0
9.07812e-05 -9.06877e-06 0.0
0.61041 0.0481182 0.0
0.196393 0.134234 0.0
0.0121609 0.209924 0.0
-0.0575083 0.247107 0.0
-0.0759822 0.257593 0.0
-0.0741936 0.253876 0.0
-0.0655066 0.243124 0.0
-0.0554635 0.229594 0.0
-0.0461937 0.215572 0.0
-0.0383637 0.202149 0.0
-0.0320385 0.189762 0.0
-0.0270596 0.178502 0.0
-0.0232066 0.168298 0.0
-0.0202619 0.159005 0.0
-0.0180343 0.150465 0.0
-0.0163641 0.142527 0.0
-0.0151212 0.135058 0.0
-0.0142009 0.127949 0.0
-0.0135199 0.121115 0.0
-0.013012 0.11449 0.0
-0.012625 0.108029 0.0
-0.0123179 0.101698 0.0
-0.0120591 0.0954806 0.0
-0.0118243 0.0893674 0.0
-0.0115953 0.0833578 0.0
-0.0113589 0.0774569 0.0
-0.0111058 0.0716742 0.0
-0.0108301 0.0660216 0.0
-0.0105284 0.0605131 0.0
-0.0101989 0.055163 0.0
-0.00984147 0.0499861 0.0
-0.00945682 0.0449966 0.0
-0.0090461 0.0402082 0.0
-0.00861068 0.0356338 0.0
-0.0081518 0.0312857 0.0
-0.00767038 0.0271752 0.0
-0.00716685 0.0233136 0.0
-0.00664106 0.0197117 0.0
-0.00609226 0.0163803 0.0
-0.0055192 0.0133303 0.0
-0.00492035 0.010573 0.0
-0.00429439 0.00811949 0.0
-0.00364108 0.00598091 0.0
-0.00296276 0.00416702 0.0
-0.00226694 0.00268514 0.0
-0.00157079 0.00153815 0.0
-0.000908386 0.000719349 0.0
-0.000339893 0.000211468 0.0
2.64719e-05 1.63013e-05 0.0
0.680944 0.0302232 0.0
0.279372 0.0983919 0.0
0.0705038 0.171309 0.0
-0.0269922 0.217818 0.0
-0.0654186 0.241056 0.0
-0.0756316 0.249079 0.0
-0.0733699 0.247806 0.0
-0.0662999 0.241352 0.0
-0.0580247 0.232324 0.0
-0.0501433 0.222255 0.0
-0.043276 0.21199 0.0
-0.037578 0.201954 0.0
-0.0329952 0.192327 0.0
-0.02939 0.183151 0.0
-0.0266021 0.1744 0.0
-0.0244762 0.166016 0.0
-0.022873 0.157933 0.0
-0.0216729 0.150088 0.0
-0.0207759 0.142431 0.0
-0.0200995 0.134919 0.0
-0.0195769 0.127525 0.0
-0.0191544 0.120232 0.0
-0.0187899 0.113031 0.0
-0.0184506 0.105923 0.0
-0.0181121 0.0989162 0.0
-0.0177563 0.092021 0.0
-0.0173709 0.0852528 0.0
-0.0169478 0.0786287 0.0
-0.0164825 0.0721668 0.0
-0.0159731 0.0658855 0.0
-0.0154198 0.0598028 0.0
-0.0148237 0.053936 0.0
-0.0141871 0.0483013 0.0
-0.0135119 0.042914 0.0
-0.0128005 0.037788 0.0
-0.0120542 0.0329368 0.0
-0.011274 0.0283729 0.0
-0.0104599 0.0241083 0.0
-0.00961134 0.020155 0.0
-0.00872688 0.0165248 0.0
-0.007805 0.0132296 0.0
-0.00684463 0.010281 0.0
-0.00584638 0.00769032 0.0
-0.00481449 0.00546761 0.0
-0.00375992 0.00362084 0.0
-0.0027053 0.00215477 0.0
-0.00169231 0.00106622 0.0
-0.000790226 0.000347686 0.0
-0.000115199 4.00957e-05 0.0
0.730419 0.0192268 0.0
0.349996 0.0731424 0.0
0.128799 0.139374 0.0
0.0115333 0.188167 0.0
-0.0448804 0.219115 0.0
-0.0676278 0.235578 0.0
-0.0733331 0.242105 0.0
-0.0709833 0.242186 0.0
-0.065301 0.238312 0.0
-0.058695 0.232135 0.0
-0.0523308 0.224702 0.0
-0.0467122 0.216645 0.0
-0.041999 0.20833 0.0
-0.0381791 0.199952 0.0
-0.0351612 0.191604 0.0
-0.0328241 0.183324 0.0
-0.0310421 0.175116 0.0
-0.0296972 0.166974 0.0
-0.0286844 0.158886 0.0
-0.0279135 0.150844 0.0
-0.0273091 0.142844 0.0
-0.0268092 0.134889 0.0
-0.0263645 0.126987 0.0
-0.0259361 0.119152 0.0
-0.0254949 0.111399 0.0
-0.0250196 0.103751 0.0
-0.0244955 0.0962281 0.0
-0.0239136 0.0888542 0.0
-0.0232691 0.0816523 0.0
-0.0225605 0.0746448 0.0
-0.0217887 0.0678533 0.0
-0.0209561 0.0612979 0.0
-0.020066 0.054997 0.0
-0.0191219 0.0489678 0.0
-0.018127 0.0432258 0.0
-0.0170837 0.0377856 0.0
-0.0159936 0.0326604 0.0
-0.0148573 0.0278631 0.0
-0.0136742 0.023406 0.0
-0.0124433 0.0193011 0.0
-0.011163 0.0155606 0.0
-0.00983261 0.0121962 0.0
-0.00845353 0.00921933 0.0
-0.00703142 0.00664082 0.0
-0.00557952 0.00447025 0.0
-0.00412349 0.00271599 0.0
-0.00270826 0.0013807 0.0
-0.0014051 0.000468953 0.0
-0.000326943 6.01933e-05 0.0
0.766443 0.0125976 0.0
0.40939 0.0556735 0.0
0.183602 0.114343 0.0
0.0526488 0.162085 0.0
-0.0183223 0.19666 0.0
-0.052799 0.218693 0.0
-0.0668795 0.231051 0.0
-0.0701613 0.236519 0.0
-0.0681135 0.237264 0.0
-0.0637733 0.23486 0.0
-0.0587757 0.2304 0.0
-0.0539544 0.224613 0.0
-0.0496908 0.217973 0.0
-0.0461165 0.210783 0.0
-0.0432301 0.203231 0.0
-0.0409641 0.19543 0.0
-0.0392228 0.187452 0.0
-0.0379031 0.179342 0.0
-0.0369059 0.17113 0.0
-0.0361413 0.162843 0.0
-0.0355316 0.154504 0.0
-0.0350115 0.146137 0.0
-0.034528 0.137769 0.0
-0.0340393 0.129428 0.0
-0.0335136 0.121143 0.0
-0.0329284 0.112944 0.0
-0.0322682 0.104862 0.0
-0.0315243 0.0969269 0.0
-0.0306925 0.0891664 0.0
-0.0297726 0.0816079 0.0
-0.0287672 0.0742763 0.0
-0.0276805 0.0671944 0.0
-0.0265176 0.0603829 0.0
-0.0252835 0.0538603 0.0
-0.023983 0.0476433 0.0
-0.0226199 0.0417469 0.0
-0.0211967 0.0361851 0.0
-0.0197146 0.0309705 0.0
-0.0181734 0.0261156 0.0
-0.0165724 0.0216322 0.0
-0.0149101 0.0175322 0.0
-0.0131859 0.0138274 0.0
-0.0114016 0.0105297 0.0
-0.0095634 0.00765094 0.0
-0.0076851 0.0052032 0.0
-0.00579272 0.00319957 0.0
-0.00393016 0.00164978 0.0
-0.00216469 0.000570787 0.0
-0.000598231 7.62427e-05 0.0
0.793426 0.00858531 0.0
0.459281 0.0434732 0.0
0.233745 0.0949344 0.0
0.0937444 0.140119 0.0
0.0116991 0.175623 0.0
-0.0333285 0.201117 0.0
-0.0555716 0.217597 0.0
-0.0648198 0.227244 0.0
-0.0669918 0.231839 0.0
-0.0655788 0.232783 0.0
-0.0625908 0.23112 0.0
-0.0591463 0.227597 0.0
-0.0558325 0.222742 0.0
-0.052924 0.216916 0.0
-0.0505158 0.21037 0.0
-0.0486035 0.203279 0.0
-0.0471312 0.195765 0.0
-0.0460198 0.187918 0.0
-0.0451838 0.179807 0.0
-0.0445406 0.171489 0.0
-0.0440155 0.163016 0.0
-0.0435444 0.154434 0.0
-0.0430743 0.145787 0.0
-0.0425631 0.137121 0.0
-0.0419794 0.128476 0.0
-0.0413011 0.119894 0.0
-0.0405138 0.111414 0.0
-0.0396104 0.103074 0.0
-0.0385889 0.0949064 0.0
-0.0374513 0.0869439 0.0
-0.0362028 0.0792148 0.0
-0.0348501 0.0717445 0.0
-0.0334007 0.0645553 0.0
-0.031862 0.0576672 0.0
-0.0302407 0.0510973 0.0
-0.0285423 0.0448611 0.0
-0.0267703 0.0389722 0.0
-0.024927 0.0334431 0.0
-0.0230128 0.0282857 0.0
-0.0210268 0.0235115 0.0
-0.0189679 0.0191318 0.0
-0.0168351 0.0151586 0.0
-0.0146299 0.0116041 0.0
-0.0123577 0.00848169 0.0
-0.0100313 0.00580645 0.0
-0.00767439 0.00359658 0.0
-0.0053261 0.00186911 0.0
-0.00304524 0.000652405 0.0
-0.000917806 8.85403e-05 0.0
0.814315 0.00611345 0.0
0.501481 0.0348035 0.0
0.279087 0.0798866 0.0
0.13339 0.121958 0.0
0.0427849 0.15707 0.0
-0.0110087 0.184221 0.0
-0.0407956 0.203475 0.0
-0.0559611 0.216208 0.0
-0.062604 0.223858 0.0
-0.0645109 0.227615 0.0
-0.063973 0.228423 0.0
-0.0623402 0.226999 0.0
-0.0603776 0.223875 0.0
-0.0584908 0.219441 0.0
-0.0568684 0.213985 0.0
-0.0555706 0.20772 0.0
-0.0545853 0.200806 0.0
-0.0538626 0.193368 0.0
-0.0533354 0.185509 0.0
-0.0529329 0.177313 0.0
-0.0525878 0.168856 0.0
-0.0522406 0.160206 0.0
-0.0518416 0.151425 0.0
-0.0513513 0.142573 0.0
-0.0507409 0.133705 0.0
-0.0499906 0.124874 0.0
-0.0490894 0.116127 0.0
-0.0480329 0.107508 0.0
-0.0468228 0.0990591 0.0
-0.0454647 0.090815 0.0
-0.0439672 0.0828078 0.0
-0.0423404 0.0750654 0.0
-0.0405952 0.0676119 0.0
-0.0387419 0.0604679 0.0
-0.0367894 0.053651 0.0
-0.0347453 0.0471762 0.0
-0.0326149 0.041057 0.0
-0.0304011 0.035305 0.0
-0.0281052 0.0299312 0.0
-0.0257263 0.0249464 0.0
-0.023263 0.0203615 0.0
-0.0207136 0.0161881 0.0
-0.0180783 0.0124391 0.0
-0.0153608 0.00912951 0.0
-0.0125708 0.00627737 0.0
-0.00972726 0.00390593 0.0
-0.00686201 0.00203898 0.0
-0.00402209 0.000714734 0.0
-0.00127485 9.75684e-05 0.0
0.830998 0.00455058 0.0
0.53752 0.0285117 0.0
0.319939 0.0681203 0.0
0.170996 0.106965 0.0
0.0739336 0.140952 0.0
0.0130693 0.168535 0.0
-0.0236126 0.189572 0.0
-0.0444548 0.204516 0.0
-0.0556043 0.214516 0.0
-0.0610272 0.220558 0.0
-0.0632163 0.223465 0.0
-0.0637017 0.223896 0.0
-0.0633956 0.222362 0.0
-0.0628172 0.219257 0.0
-0.0622397 0.214883 0.0
-0.0617848 0.209477 0.0
-0.061484 0.203225 0.0
-0.0613177 0.196277 0.0
-0.06124 0.188761 0.0
-0.0611945 0.180786 0.0
-0.061124 0.172448 0.0
-0.0609764 0.163834 0.0
-0.0607077 0.155024 0.0
-0.0602835 0.146092 0.0
-0.0596793 0.137106 0.0
-0.0588803 0.128129 0.0
-0.0578798 0.119218 0.0
-0.0566786 0.110424 0.0
-0.0552829 0.101795 0.0
-0.0537032 0.0933696 0.0
-0.0519528 0.0851838 0.0
-0.0500464 0.0772674 0.0
-0.0479986 0.0696458 0.0
-0.0458233 0.0623402 0.0
-0.0435327 0.0553679 0.0
-0.0411365 0.0487437 0.0
-0.0386418 0.0424797 0.0
-0.0360529 0.0365868 0.0
-0.0333714 0.0310748 0.0
-0.0305966 0.0259533 0.0
-0.0277262 0.0212325 0.0
-0.0247575 0.0169237 0.0
-0.0216883 0.0130403 0.0
-0.0185192 0.0095986 0.0
-0.0152556 0.00661956 0.0
-0.0119098 0.00413083 0.0
-0.00850392 0.00216205 0.0
-0.00507134 0.000759404 0.0
-0.00165948 0.000103822 0.0
0.844678 0.00353044 0.0
0.568614 0.0238448 0.0
0.356751 0.0588259 0.0
0.206308 0.0945798 0.0
0.104406 0.127086 0.0
0.0376488 0.154492 0.0
-0.00489355 0.176374 0.0
-0.0310281 0.192847 0.0
-0.0465775 0.204596 0.0
-0.0555743 0.212438 0.0
-0.0606434 0.217075 0.0
-0.0634494 0.219092 0.0
-0.0650212 0.218964 0.0
-0.0659729 0.217071 0.0
-0.0666506 0.213717 0.0
-0.0672312 0.209147 0.0
-0.0677868 0.203563 0.0
-0.0683271 0.197135 0.0
-0.0688276 0.190008 0.0
-0.0692475 0.182309 0.0
-0.0695411 0.174153 0.0
-0.0696656 0.165644 0.0
-0.0695844 0.156878 0.0
-0.0692701 0.147941 0.0
-0.0687046 0.138915 0.0
-0.0678795 0.129871 0.0
-0.0667944 0.120877 0.0
-0.0654564 0.11199 0.0
-0.0638781 0.103262 0.0
-0.0620762 0.0947383 0.0
-0.0600698 0.0864568 0.0
-0.0578788 0.0784493 0.0
-0.0555229 0.0707419 0.0
-0.0530201 0.0633561 0.0
-0.0503862 0.0563088 0.0
-0.0476337 0.0496136 0.0
-0.0447719 0.0432815 0.0
-0.0418062 0.0373219 0.0
-0.0387388 0.031743 0.0
-0.0355687 0.0265531 0.0
-0.0322926 0.0217612 0.0
-0.0289058 0.0173783 0.0
-0.0254032 0.0134179 0.0
-0.0217812 0.00989734 0.0
-0.0180393 0.0068398 0.0
-0.0141817 0.00427655 0.0
-0.0102193 0.00224195 0.0
-0.00617068 0.000788225 0.0
-0.00206288 0.00010774 0.0
0.856154 0.00283932 0.0
0.595719 0.0203027 0.0
0.390006 0.0513873 0.0
0.239319 0.0842752 0.0
0.13388 0.115137 0.0
0.0623027 0.141974 0.0
0.0147604 0.1641 0.0
-0.0162538 0.181557 0.0
-0.0360189 0.194575 0.0
-0.0485563 0.203802 0.0
-0.056569 0.20983 0.0
-0.0618174 0.213169 0.0
-0.0654203 0.214248 0.0
-0.0680673 0.213425 0.0
-0.0701659 0.210993 0.0
-0.07194 0.207201 0.0
-0.0734974 0.202256 0.0
-0.0748747 0.196339 0.0
-0.0760674 0.189609 0.0
-0.0770502 0.18221 0.0
-0.0777895 0.174269 0.0
-0.0782525 0.165906 0.0
-0.0784116 0.15723 0.0
-0.0782475 0.14834 0.0
-0.0777502 0.139328 0.0
-0.0769192 0.130277 0.0
-0.0757621 0.121261 0.0
-0.0742938 0.112345 0.0
-0.0725347 0.103586 0.0
-0.0705088 0.0950318 0.0
-0.0682424 0.0867242 0.0
-0.0657617 0.0786961 0.0
-0.0630921 0.0709742 0.0
-0.0602568 0.0635796 0.0
-0.0572754 0.0565282 0.0
-0.0541639 0.0498324 0.0
-0.0509336 0.0435015 0.0
-0.0475916 0.0375428 0.0
-0.0441403 0.0319627 0.0
-0.0405784 0.026768 0.0
-0.0369009 0.0219662 0.0
-0.0331007 0.0175673 0.0
-0.0291691 0.0135845 0.0
-0.0250971 0.0100359 0.0
-0.0208773 0.0069461 0.0
-0.0165045 0.00434903 0.0
-0.0119777 0.00228247 0.0
-0.0072996 0.000802911 0.0
-0.00247727 0.000109688 0.0
0.865964 0.0023524 0.0
0.619578 0.0175539 0.0
0.420156 0.0453543 0.0
0.270114 0.0756377 0.0
0.162148 0.104823 0.0
0.0866155 0.130866 0.0
0.0347087 0.152905 0.0
-0.000581761 0.170827 0.0
-0.0243345 0.184738 0.0
-0.0403229 0.195001 0.0
-0.0512815 0.202121 0.0
-0.059035 0.206535 0.0
-0.0647682 0.208625 0.0
-0.06923 0.208718 0.0
-0.0728765 0.207096 0.0
-0.0759706 0.203999 0.0
-0.0786501 0.199637 0.0
-0.0809748 0.194198 0.0
-0.0829581 0.18785 0.0
-0.084589 0.180747 0.0
-0.0858458 0.17303 0.0
-0.0867059 0.164831 0.0
-0.0871514 0.156271 0.0
-0.0871724 0.147461 0.0
-0.0867682 0.138502 0.0
-0.0859476 0.129487 0.0
-0.0847275 0.120497 0.0
-0.0831324 0.111603 0.0
-0.0811916 0.102866 0.0
-0.0789381 0.0943398 0.0
-0.0764059 0.0860658 0.0
-0.0736292 0.0780786 0.0
-0.0706397 0.0704049 0.0
-0.0674664 0.063065 0.0
-0.0641335 0.0560736 0.0
-0.0606606 0.0494412 0.0
-0.0570616 0.0431748 0.0
-0.053345 0.0372796 0.0
-0.0495136 0.0317598 0.0
-0.0455653 0.0266198 0.0
-0.0414933 0.0218656 0.0
-0.0372874 0.0175057 0.0
-0.0329344 0.0135527 0.0
-0.0284194 0.0100244 0.0
-0.0237271 0.00694638 0.0
-0.0188422 0.00435392 0.0
-0.0137506 0.00228706 0.0
-0.00843942 0.000804938 0.0
-0.00289574 0.000109948 0.0
0.874481 0.00199569 0.0
0.640769 0.0153747 0.0
0.447599 0.0403931 0.0
0.298833 0.0683291 0.0
0.189139 0.0958708 0.0
0.110382 0.120986 0.0
0.0546988 0.142705 0.0
0.0155988 0.160763 0.0
-0.011863 0.175235 0.0
-0.0311742 0.186246 0.0
-0.0450387 0.194197 0.0
-0.0553165 0.199463 0.0
-0.0632387 0.202376 0.0
-0.0695978 0.203235 0.0
-0.0748873 0.2023 0.0
-0.0794006 0.199803 0.0
-0.0832996 0.195953 0.0
-0.0866631 0.190941 0.0
-0.0895197 0.18494 0.0
-0.0918709 0.178113 0.0
-0.0937059 0.170612 0.0
-0.0950126 0.162579 0.0
-0.0957829 0.154146 0.0
-0.0960171 0.145434 0.0
-0.095725 0.136555 0.0
-0.0949257 0.127607 0.0
-0.0936473 0.118679 0.0
-0.0919247 0.109849 0.0
-0.089798 0.101182 0.0
-0.0873099 0.0927322 0.0
-0.0845041 0.0845442 0.0
-0.081423 0.0766526 0.0
-0.078106 0.0690839 0.0
-0.0745883 0.0618568 0.0
-0.0708994 0.0549843 0.0
-0.0670628 0.0484745 0.0
-0.0630953 0.0423318 0.0
-0.0590066 0.0365588 0.0
-0.0548001 0.031157 0.0
-0.0504725 0.0261283 0.0
-0.046015 0.0214763 0.0
-0.0414136 0.0172079 0.0
-0.0366502 0.0133342 0.0
-0.0317032 0.00987241 0.0
-0.0265487 0.0068478 0.0
-0.0211607 0.00429622 0.0
-0.0155118 0.00225868 0.0
-0.00957302 0.000795493 0.0
-0.00331213 0.000108729 0.0
0.881971 0.00172445 0.0
0.65974 0.0136114 0.0
0.472681 0.0362555 0.0
0.32563 0.0620814 0.0
0.214832 0.0880457 0.0
0.133453 0.112165 0.0
0.07449 0.133409 0.0
0.0319502 0.151398 0.0
0.00113868 0.166115 0.0
-0.0213586 0.177647 0.0
-0.0380652 0.186205 0.0
-0.0508579 0.192122 0.0
-0.0609977 0.195686 0.0
-0.0693079 0.197161 0.0
-0.0763094 0.19679 0.0
-0.0823179 0.194794 0.0
-0.0875136 0.191376 0.0
-0.0919898 0.186727 0.0
-0.0957871 0.181026 0.0
-0.0989175 0.174443 0.0
-0.10138 0.167138 0.0
-0.103173 0.159262 0.0
-0.104297 0.150956 0.0
-0.104765 0.142351 0.0
-0.104597 0.133567 0.0
-0.103824 0.124711 0.0
-0.102486 0.115877 0.0
-0.100631 0.107146 0.0
-0.0983093 0.0985886 0.0
-0.0955763 0.0902601 0.0
-0.0924859 0.0822061 0.0
-0.0890898 0.074461 0.0
-0.0854358 0.06705 0.0
-0.0815661 0.0599902 0.0
-0.077516 0.053292 0.0
-0.0733132 0.0469607 0.0
-0.0689773 0.0409979 0.0
-0.0645198 0.0354029 0.0
-0.0599441 0.0301741 0.0
-0.0552459 0.0253105 0.0
-0.0504136 0.020813 0.0
-0.0454295 0.0166862 0.0
-0.0402697 0.0129392 0.0
-0.0349056 0.00958786 0.0
-0.0293042 0.00665638 0.0
-0.0234282 0.00418001 0.0
-0.0172367 0.00219964 0.0
-0.0106846 0.000775467 0.0
-0.0037208 0.000106168 0.0
0.888625 0.00151083 0.0
0.67684 0.0121559 0.0
0.495691 0.0327541 0.0
0.350654 0.0566792 0.0
0.239244 0.0811445 0.0
0.155746 0.104237 0.0
0.0939341 0.124895 0.0
0.048296 0.142659 0.0
0.0144024 0.157418 0.0
-0.0110964 0.169244 0.0
-0.0305608 0.178218 0.0
-0.0458374 0.184606 0.0
-0.0582012 0.188659 0.0
-0.0684944 0.19061 0.0
-0.0772556 0.190681 0.0
-0.0848158 0.189082 0.0
-0.0913675 0.18601 0.0
-0.097014 0.181656 0.0
-0.101805 0.1762 0.0
-0.10576 0.16982 0.0
-0.108888 0.162682 0.0
-0.111195 0.154946 0.0
-0.112694 0.146762 0.0
-0.113407 0.138268 0.0
-0.113366 0.129592 0.0
-0.112617 0.120847 0.0
-0.111213 0.112132 0.0
-0.109214 0.103534 0.0
-0.106685 0.0951238 0.0
-0.103693 0.0869589 0.0
-0.100304 0.0790846 0.0
-0.0965794 0.0715345 0.0
-0.0925771 0.0643321 0.0
-0.0883464 0.0574919 0.0
-0.083929 0.0510215 0.0
-0.0793569 0.0449228 0.0
-0.0746531 0.0391939 0.0
-0.0698304 0.0338305 0.0
-0.0648924 0.0288277 0.0
-0.0598334 0.024181 0.0
-0.0546392 0.0198883 0.0
-0.0492873 0.0159511 0.0
-0.0437483 0.0123763 0.0
-0.0379859 0.00917747 0.0
-0.0319574 0.00637697 0.0
-0.0256145 0.00400848 0.0
-0.0189021 0.00211169 0.0
-0.0117594 0.000745482 0.0
-0.00411654 0.000102351 0.0
0.894584 0.00133689 0.0
0.692343 0.0109303 0.0
0.516868 0.0297452 0.0
0.374045 0.0519484 0.0
0.262408 0.0749923 0.0
0.177205 0.0970478 0.0
0.112914 0.11704 0.0
0.0644758 0.134455 0.0
0.0277224 0.14911 0.0
-0.00056672 0.161023 0.0
-0.0227008 0.170249 0.0
-0.040417 0.176946 0.0
-0.0549952 0.181338 0.0
-0.0672863 0.183631 0.0
-0.0778381 0.184026 0.0
-0.0869898 0.18272 0.0
-0.0949409 0.179907 0.0
-0.1018 0.175774 0.0
-0.107624 0.170506 0.0
-0.112437 0.164283 0.0
-0.116256 0.15728 0.0
-0.119095 0.149664 0.0
-0.120977 0.141592 0.0
-0.121936 0.13321 0.0
-0.122019 0.124652 0.0
-0.121284 0.116037 0.0