# vtk DataFile Version 3.0
Malha 2D com triângulos e temperatura
ASCII
DATASET UNSTRUCTURED_GRID

POINTS 2500 double
0 0 0
1 0 0
1 1 0
0 1 0
0.0204082 0 0
0.0408163 0 0
0.0612245 0 0
0.0816327 0 0
0.102041 0 0
0.122449 0 0
0.142857 0 0
0.163265 0 0
0.183673 0 0
0.204082 0 0
0.22449 0 0
0.244898 0 0
0.265306 0 0
0.285714 0 0
0.306122 0 0
0.326531 0 0
0.346939 0 0
0.367347 0 0
0.387755 0 0
0.408163 0 0
0.428571 0 0
0.44898 0 0
0.469388 0 0
0.489796 0 0
0.510204 0 0
0.530612 0 0
0.55102 0 0
0.571429 0 0
0.591837 0 0
0.612245 0 0
0.632653 0 0
0.653061 0 0
0.673469 0 0
0.693878 0 0
0.714286 0 0
0.734694 0 0
0.755102 0 0
0.77551 0 0
0.795918 0 0
0.816327 0 0
0.836735 0 0
0.857143 0 0
0.877551 0 0
0.897959 0 0
0.918367 0 0
0.938776 0 0
0.959184 0 0
0.979592 0 0
1 0.0204082 0
1 0.0408163 0
1 0.0612245 0
1 0.0816327 0
1 0.102041 0
1 0.122449 0
1 0.142857 0
1 0.163265 0
1 0.183673 0
1 0.204082 0
1 0.22449 0
1 0.244898 0
1 0.265306 0
1 0.285714 0
1 0.306122 0
1 0.326531 0
1 0.346939 0
1 0.367347 0
1 0.387755 0
1 0.408163 0
1 0.428571 0
1 0.44898 0
1 0.469388 0
1 0.489796 0
1 0.510204 0
1 0.530612 0
1 0.55102 0
1 0.571429 0
1 0.591837 0
1 0.612245 0
1 0.632653 0
1 0.653061 0
1 0.673469 0
1 0.693878 0
1 0.714286 0
1 0.734694 0
1 0.755102 0
1 0.77551 0
1 0.795918 0
1 0.816327 0
1 0.836735 0
1 0.857143 0
1 0.877551 0
1 0.897959 0
1 0.918367 0
1 0.938776 0
1 0.959184 0
1 0.979592 0
0.979592 1 0
0.959184 1 0
0.938776 1 0
0.918367 1 0
0.897959 1 0
0.877551 1 0
0.857143 1 0
0.836735 1 0
0.816327 1 0
0.795918 1 0
0.77551 1 0
0.755102 1 0
0.734694 1 0
0.714286 1 0
0.693878 1 0
0.673469 1 0
0.653061 1 0
0.632653 1 0
0.612245 1 0
0.591837 1 0
0.571429 1 0
0.55102 1 0
0.530612 1 0
0.510204 1 0
0.489796 1 0
0.469388 1 0
0.44898 1 0
0.428571 1 0
0.408163 1 0
0.387755 1 0
0.367347 1 0
0.346939 1 0
0.326531 1 0
0.306122 1 0
0.285714 1 0
0.265306 1 0
0.244898 1 0
0.22449 1 0
0.204082 1 0
0.183673 1 0
0.163265 1 0
0.142857 1 0
0.122449 1 0
0.102041 1 0
0.0816327 1 0
0.0612245 1 0
0.0408163 1 0
0.0204082 1 0
0 0.979592 0
0 0.959184 0
0 0.938776 0
0 0.918367 0
0 0.897959 0
0 0.877551 0
0 0.857143 0
0 0.836735 0
0 0.816327 0
0 0.795918 0
0 0.77551 0
0 0.755102 0
0 0.734694 0
0 0.714286 0
0 0.693878 0
0 0.673469 0
0 0.653061 0
0 0.632653 0
0 0.612245 0
0 0.591837 0
0 0.571429 0
0 0.55102 0
0 0.530612 0
0 0.510204 0
0 0.489796 0
0 0.469388 0
0 0.44898 0
0 0.428571 0
0 0.408163 0
0 0.387755 0
0 0.367347 0
0 0.346939 0
0 0.326531 0
0 0.306122 0
0 0.285714 0
0 0.265306 0
0 0.244898 0
0 0.22449 0
0 0.204082 0
0 0.183673 0
0 0.163265 0
0 0.142857 0
0 0.122449 0
0 0.102041 0
0 0.0816327 0
0 0.0612245 0
0 0.0408163 0
0 0.0204082 0
0.0204082 0.979592 0
0.0204082 0.959184 0
0.0204082 0.938776 0
0.0204082 0.918367 0
0.0204082 0.897959 0
0.0204082 0.877551 0
0.0204082 0.857143 0
0.0204082 0.836735 0
0.0204082 0.816327 0
0.0204082 0.795918 0
0.0204082 0.77551 0
0.0204082 0.755102 0
0.0204082 0.734694 0
0.0204082 0.714286 0
0.0204082 0.693878 0
0.0204082 0.673469 0
0.0204082 0.653061 0
0.0204082 0.632653 0
0.0204082 0.612245 0
0.0204082 0.591837 0
0.0204082 0.571429 0
0.0204082 0.55102 0
0.0204082 0.530612 0
0.0204082 0.510204 0
0.0204082 0.489796 0
0.0204082 0.469388 0
0.0204082 0.44898 0
0.0204082 0.428571 0
0.0204082 0.408163 0
0.0204082 0.387755 0
0.0204082 0.367347 0
0.0204082 0.346939 0
0.0204082 0.326531 0
0.0204082 0.306122 0
0.0204082 0.285714 0
0.0204082 0.265306 0
0.0204082 0.244898 0
0.0204082 0.22449 0
0.0204082 0.204082 0
0.0204082 0.183673 0
0.0204082 0.163265 0
0.0204082 0.142857 0
0.0204082 0.122449 0
0.0204082 0.102041 0
0.0204082 0.0816327 0
0.0204082 0.0612245 0
0.0204082 0.0408163 0
0.0204082 0.0204082 0
0.0408163 0.979592 0
0.0408163 0.959184 0
0.0408163 0.938776 0
0.0408163 0.918367 0
0.0408163 0.897959 0
0.0408163 0.877551 0
0.0408163 0.857143 0
0.0408163 0.836735 0
0.0408163 0.816327 0
0.0408163 0.795918 0
0.0408163 0.77551 0
0.0408163 0.755102 0
0.0408163 0.734694 0
0.0408163 0.714286 0
0.0408163 0.693878 0
0.0408163 0.673469 0
0.0408163 0.653061 0
0.0408163 0.632653 0
0.0408163 0.612245 0
0.0408163 0.591837 0
0.0408163 0.571429 0
0.0408163 0.55102 0
0.0408163 0.530612 0
0.0408163 0.510204 0
0.0408163 0.489796 0
0.0408163 0.469388 0
0.0408163 0.44898 0
0.0408163 0.428571 0
0.0408163 0.408163 0
0.0408163 0.387755 0
0.0408163 0.367347 0
0.0408163 0.346939 0
0.0408163 0.326531 0
0.0408163 0.306122 0
0.0408163 0.285714 0
0.0408163 0.265306 0
0.0408163 0.244898 0
0.0408163 0.22449 0
0.0408163 0.204082 0
0.0408163 0.183673 0
0.0408163 0.163265 0
0.0408163 0.142857 0
0.0408163 0.122449 0
0.0408163 0.102041 0
0.0408163 0.0816327 0
0.0408163 0.0612245 0
0.0408163 0.0408163 0
0.0408163 0.0204082 0
0.0612245 0.979592 0
0.0612245 0.959184 0
0.0612245 0.938776 0
0.0612245 0.918367 0
0.0612245 0.897959 0
0.0612245 0.877551 0
0.0612245 0.857143 0
0.0612245 0.836735 0
0.0612245 0.816327 0
0.0612245 0.795918 0
0.0612245 0.77551 0
0.0612245 0.755102 0
0.0612245 0.734694 0
0.0612245 0.714286 0
0.0612245 0.693878 0
0.0612245 0.673469 0
0.0612245 0.653061 0
0.0612245 0.632653 0
0.0612245 0.612245 0
0.0612245 0.591837 0
0.0612245 0.571429 0
0.0612245 0.55102 0
0.0612245 0.530612 0
0.0612245 0.510204 0
0.0612245 0.489796 0
0.0612245 0.469388 0
0.0612245 0.44898 0
0.0612245 0.428571 0
0.0612245 0.408163 0
0.0612245 0.387755 0
0.0612245 0.367347 0
0.0612245 0.346939 0
0.0612245 0.326531 0
0.0612245 0.306122 0
0.0612245 0.285714 0
0.0612245 0.265306 0
0.0612245 0.244898 0
0.0612245 0.22449 0
0.0612245 0.204082 0
0.0612245 0.183673 0
0.0612245 0.163265 0
0.0612245 0.142857 0
0.0612245 0.122449 0
0.0612245 0.102041 0
0.0612245 0.0816327 0
0.0612245 0.0612245 0
0.0612245 0.0408163 0
0.0612245 0.0204082 0
0.0816327 0.979592 0
0.0816327 0.959184 0
0.0816327 0.938776 0
0.0816327 0.918367 0
0.0816327 0.897959 0
0.0816327 0.877551 0
0.0816327 0.857143 0
0.0816327 0.836735 0
0.0816327 0.816327 0
0.0816327 0.795918 0
0.0816327 0.77551 0
0.0816327 0.755102 0
0.0816327 0.734694 0
0.0816327 0.714286 0
0.0816327 0.693878 0
0.0816327 0.673469 0
0.0816327 0.653061 0
0.0816327 0.632653 0
0.0816327 0.612245 0
0.0816327 0.591837 0
0.0816327 0.571429 0
0.0816327 0.55102 0
0.0816327 0.530612 0
0.0816327 0.510204 0
0.0816327 0.489796 0
0.0816327 0.469388 0
0.0816327 0.44898 0
0.0816327 0.428571 0
0.0816327 0.408163 0
0.0816327 0.387755 0
0.0816327 0.367347 0
0.0816327 0.346939 0
0.0816327 0.326531 0
0.0816327 0.306122 0
0.0816327 0.285714 0
0.0816327 0.265306 0
0.0816327 0.244898 0
0.0816327 0.22449 0
0.0816327 0.204082 0
0.0816327 0.183673 0
0.0816327 0.163265 0
0.0816327 0.142857 0
0.0816327 0.122449 0
0.0816327 0.102041 0
0.0816327 0.0816327 0
0.0816327 0.0612245 0
0.0816327 0.0408163 0
0.0816327 0.0204082 0
0.102041 0.979592 0
0.102041 0.959184 0
0.102041 0.938776 0
0.102041 0.918367 0
0.102041 0.897959 0
0.102041 0.877551 0
0.102041 0.857143 0
0.102041 0.836735 0
0.102041 0.816327 0
0.102041 0.795918 0
0.102041 0.77551 0
0.102041 0.755102 0
0.102041 0.734694 0
0.102041 0.714286 0
0.102041 0.693878 0
0.102041 0.673469 0
0.102041 0.653061 0
0.102041 0.632653 0
0.102041 0.612245 0
0.102041 0.591837 0
0.102041 0.571429 0
0.102041 0.55102 0
0.102041 0.530612 0
0.102041 0.510204 0
0.102041 0.489796 0
0.102041 0.469388 0
0.102041 0.44898 0
0.102041 0.428571 0
0.102041 0.408163 0
0.102041 0.387755 0
0.102041 0.367347 0
0.102041 0.346939 0
0.102041 0.326531 0
0.102041 0.306122 0
0.102041 0.285714 0
0.102041 0.265306 0
0.102041 0.244898 0
0.102041 0.22449 0
0.102041 0.204082 0
0.102041 0.183673 0
0.102041 0.163265 0
0.102041 0.142857 0
0.102041 0.122449 0
0.102041 0.102041 0
0.102041 0.0816327 0
0.102041 0.0612245 0
0.102041 0.0408163 0
0.102041 0.0204082 0
0.122449 0.979592 0
0.122449 0.959184 0
0.122449 0.938776 0
0.122449 0.918367 0
0.122449 0.897959 0
0.122449 0.877551 0
0.122449 0.857143 0
0.122449 0.836735 0
0.122449 0.816327 0
0.122449 0.795918 0
0.122449 0.77551 0
0.122449 0.755102 0
0.122449 0.734694 0
0.122449 0.714286 0
0.122449 0.693878 0
0.122449 0.673469 0
0.122449 0.653061 0
0.122449 0.632653 0
0.122449 0.612245 0
0.122449 0.591837 0
0.122449 0.571429 0
0.122449 0.55102 0
0.122449 0.530612 0
0.122449 0.510204 0
0.122449 0.489796 0
0.122449 0.469388 0
0.122449 0.44898 0
0.122449 0.428571 0
0.122449 0.408163 0
0.122449 0.387755 0
0.122449 0.367347 0
0.122449 0.346939 0
0.122449 0.326531 0
0.122449 0.306122 0
0.122449 0.285714 0
0.122449 0.265306 0
0.122449 0.244898 0
0.122449 0.22449 0
0.122449 0.204082 0
0.122449 0.183673 0
0.122449 0.163265 0
0.122449 0.142857 0
0.122449 0.122449 0
0.122449 0.102041 0
0.122449 0.0816327 0
0.122449 0.0612245 0
0.122449 0.0408163 0
0.122449 0.0204082 0
0.142857 0.979592 0
0.142857 0.959184 0
0.142857 0.938776 0
0.142857 0.918367 0
0.142857 0.897959 0
0.142857 0.877551 0
0.142857 0.857143 0
0.142857 0.836735 0
0.142857 0.816327 0
0.142857 0.795918 0
0.142857 0.77551 0
0.142857 0.755102 0
0.142857 0.734694 0
0.142857 0.714286 0
0.142857 0.693878 0
0.142857 0.673469 0
0.142857 0.653061 0
0.142857 0.632653 0
0.142857 0.612245 0
0.142857 0.591837 0
0.142857 0.571429 0
0.142857 0.55102 0
0.142857 0.530612 0
0.142857 0.510204 0
0.142857 0.489796 0
0.142857 0.469388 0
0.142857 0.44898 0
0.142857 0.428571 0
0.142857 0.408163 0
0.142857 0.387755 0
0.142857 0.367347 0
0.142857 0.346939 0
0.142857 0.326531 0
0.142857 0.306122 0
0.142857 0.285714 0
0.142857 0.265306 0
0.142857 0.244898 0
0.142857 0.22449 0
0.142857 0.204082 0
0.142857 0.183673 0
0.142857 0.163265 0
0.142857 0.142857 0
0.142857 0.122449 0
0.142857 0.102041 0
0.142857 0.0816327 0
0.142857 0.0612245 0
0.142857 0.0408163 0
0.142857 0.0204082 0
0.163265 0.979592 0
0.163265 0.959184 0
0.163265 0.938776 0
0.163265 0.918367 0
0.163265 0.897959 0
0.163265 0.877551 0
0.163265 0.857143 0
0.163265 0.836735 0
0.163265 0.816327 0
0.163265 0.795918 0
0.163265 0.77551 0
0.163265 0.755102 0
0.163265 0.734694 0
0.163265 0.714286 0
0.163265 0.693878 0
0.163265 0.673469 0
0.163265 0.653061 0
0.163265 0.632653 0
0.163265 0.612245 0
0.163265 0.591837 0
0.163265 0.571429 0
0.163265 0.55102 0
[...]
CELL_DATA 2401
VECTORS velocity double
0.257582 0.1573 0.0
-0.00262979 0.264434 0.0
-0.0322719 0.205443 0.0
-0.0253773 0.150538 0.0
-0.0160698 0.11299 0.0
-0.00971425 0.0876248 0.0
-0.00593697 0.0705465 0.0
-0.00374909 0.0588518 0.0
-0.00246316 0.0506322 0.0
-0.00168363 0.0447006 0.0
-0.00119452 0.0403086 0.0
-0.000878364 0.0369709 0.0
-0.000669645 0.0343634 0.0
-0.000530393 0.0322636 0.0
-0.000437571 0.0305153 0.0
-0.000376573 0.0290073 0.0
-0.000337749 0.027659 0.0
-0.000314494 0.0264127 0.0
-0.000302141 0.0252264 0.0
-0.000297304 0.0240705 0.0
-0.000297464 0.0229245 0.0
-0.000300715 0.0217752 0.0
-0.000305598 0.0206144 0.0
-0.000310986 0.0194388 0.0
-0.000316019 0.0182479 0.0
-0.000320042 0.0170441 0.0
-0.000322576 0.0158316 0.0
-0.000323287 0.0146161 0.0
-0.000321959 0.013404 0.0
-0.000318478 0.0122027 0.0
-0.000312808 0.0110195 0.0
-0.00030498 0.00986202 0.0
-0.000295067 0.00873761 0.0
-0.000283177 0.00765342 0.0
-0.000269433 0.0066162 0.0
-0.000253959 0.00563234 0.0
-0.000236871 0.00470781 0.0
-0.00021826 0.00384823 0.0
-0.000198184 0.0030589 0.0
-0.00017665 0.00234493 0.0
-0.000153607 0.00171129 0.0
-0.000128932 0.00116294 0.0
-0.000102436 0.000704875 0.0
-7.39178e-05 0.000342084 0.0
-4.33266e-05 7.9128e-05 0.0
-1.12826e-05 -8.09046e-05 0.0
1.96165e-05 -0.000138823 0.0
4.20951e-05 -0.000108315 0.0
3.71504e-05 -3.69608e-05 0.0
0.340765 0.122966 0.0
-0.000669566 0.249467 0.0
-0.0652563 0.271646 0.0
-0.0632947 0.252132 0.0
-0.0485631 0.221589 0.0
-0.0349952 0.19171 0.0
-0.0249284 0.166297 0.0
-0.0178867 0.145848 0.0
-0.0130281 0.129745 0.0
-0.0096663 0.117129 0.0
-0.00732277 0.107199 0.0
-0.00567869 0.0992887 0.0
-0.00452253 0.0928737 0.0
-0.00371203 0.0875502 0.0
-0.0031496 0.0830102 0.0
-0.0027668 0.0790208 0.0
-0.00251461 0.0754064 0.0
-0.00235724 0.0720358 0.0
-0.00226804 0.0688124 0.0
-0.00222687 0.0656663 0.0
-0.00221827 0.0625483 0.0
-0.00223027 0.0594263 0.0
-0.00225352 0.0562809 0.0
-0.00228075 0.0531032 0.0
-0.0023063 0.0498925 0.0
-0.00232587 0.0466544 0.0
-0.00233624 0.0433991 0.0
-0.00233515 0.0401406 0.0
-0.00232106 0.0368951 0.0
-0.00229312 0.0336806 0.0
-0.00225095 0.0305157 0.0
-0.0021946 0.0274193 0.0
-0.00212444 0.0244103 0.0
-0.00204101 0.0215066 0.0
-0.00194502 0.0187258 0.0
-0.00183718 0.0160842 0.0
-0.00171822 0.0135975 0.0
-0.00158878 0.0112802 0.0
-0.00144936 0.00914614 0.0
-0.00130033 0.00720839 0.0
-0.00114192 0.00547935 0.0
-0.000974249 0.00397074 0.0
-0.000797573 0.0026934 0.0
-0.000612669 0.00165664 0.0
-0.000421823 0.000866819 0.0
-0.000230949 0.00032467 0.0
-5.39473e-05 2.02223e-05 0.0
7.99647e-05 -7.82835e-05 0.0
0.000107749 -4.09347e-05 0.0
0.500811 0.0768027 0.0
0.0989486 0.183195 0.0
-0.0394576 0.24917 0.0
-0.073505 0.265661 0.0
-0.0719434 0.257358 0.0
-0.060606 0.239586 0.0
-0.0483183 0.219615 0.0
-0.0377189 0.200729 0.0
-0.0292968 0.184134 0.0
-0.0228496 0.170038 0.0
-0.0180109 0.158219 0.0
-0.0144267 0.148311 0.0
-0.0118024 0.139928 0.0
-0.00990643 0.132717 0.0
-0.00856065 0.126379 0.0
-0.007629 0.120669 0.0
-0.00700741 0.115392 0.0
-0.00661587 0.110396 0.0
-0.00639246 0.105565 0.0
-0.00628883 0.100817 0.0
-0.00626703 0.0960896 0.0
-0.00629707 0.0913449 0.0
-0.00635528 0.0865599 0.0
-0.00642298 0.0817254 0.0
-0.0064856 0.0768425 0.0
-0.00653193 0.0719212 0.0
-0.00655361 0.0669774 0.0
-0.00654463 0.0620319 0.0
-0.00650096 0.0571087 0.0
-0.00642024 0.0522341 0.0
-0.00630143 0.0474352 0.0
-0.00614455 0.0427397 0.0
-0.00595041 0.0381747 0.0
-0.00572039 0.0337668 0.0
-0.00545621 0.0295412 0.0
-0.00515975 0.0255222 0.0
-0.00483289 0.0217325 0.0
-0.00447741 0.0181936 0.0
-0.00409486 0.0149255 0.0
-0.00368662 0.0119472 0.0
-0.00325395 0.00927606 0.0
-0.00279827 0.00692823 0.0
-0.00232176 0.0049177 0.0
-0.00182851 0.00325548 0.0
-0.00132665 0.00194762 0.0
-0.000832477 0.000992275 0.0
-0.000377632 0.000373764 0.0
-1.91488e-05 5.5183e-05 0.0
0.000135816 -1.7638e-05 0.0
0.609977 0.0480483 0.0
0.195544 0.133936 0.0
0.0112396 0.20938 0.0
-0.0581538 0.246426 0.0
-0.0761301 0.256992 0.0
-0.0737126 0.2536 0.0
-0.0643674 0.243436 0.0
-0.0537169 0.230742 0.0
-0.0439412 0.217773 0.0
-0.035731 0.205577 0.0
-0.0291561 0.19454 0.0
-0.0240511 0.184703 0.0
-0.020182 0.175942 0.0
-0.017316 0.168071 0.0
-0.0152463 0.160892 0.0
-0.0137987 0.154221 0.0
-0.01283 0.147897 0.0
-0.012224 0.141791 0.0
-0.0118867 0.135799 0.0
-0.0117424 0.129845 0.0
-0.01173 0.123874 0.0
-0.0118004 0.117852 0.0
-0.0119142 0.111762 0.0
-0.0120399 0.105598 0.0
-0.0121528 0.0993685 0.0
-0.0122338 0.0930877 0.0
-0.0122685 0.0867786 0.0
-0.0122467 0.0804682 0.0
-0.0121614 0.0741875 0.0
-0.0120087 0.0679693 0.0
-0.0117866 0.0618475 0.0
-0.0114953 0.0558561 0.0
-0.0111362 0.0500288 0.0
-0.0107118 0.0443982 0.0
-0.010225 0.0389954 0.0
-0.00967935 0.0338501 0.0
-0.00907814 0.0289902 0.0
-0.00842472 0.024442 0.0
-0.0077222 0.02023 0.0
-0.00697355 0.0163768 0.0
-0.00618178 0.0129034 0.0
-0.00535054 0.00982839 0.0
-0.00448512 0.00716761 0.0
-0.00359426 0.00493285 0.0
-0.0026933 0.00313022 0.0
-0.00180952 0.00175765 0.0
-0.000990852 0.000799117 0.0
-0.000316607 0.000222852 0.0
7.67813e-05 1.27409e-05 0.0
0.680358 0.0301698 0.0
0.278317 0.0981806 0.0
0.0694719 0.170974 0.0
-0.0275791 0.217528 0.0
-0.065264 0.241045 0.0
-0.0745837 0.249608 0.0
-0.0714048 0.249139 0.0
-0.0634935 0.243737 0.0
-0.0545183 0.235971 0.0
-0.0461106 0.22733 0.0
-0.0388992 0.218606 0.0
-0.0330318 0.210173 0.0
-0.0284376 0.20216 0.0
-0.0249589 0.194566 0.0
-0.0224143 0.187321 0.0
-0.0206278 0.180334 0.0
-0.0194417 0.173509 0.0
-0.0187191 0.166761 0.0
-0.018344 0.160019 0.0
-0.0182197 0.15323 0.0
-0.0182657 0.146357 0.0
-0.018416 0.13938 0.0
-0.0186167 0.132293 0.0
-0.0188243 0.1251 0.0
-0.0190043 0.117817 0.0
-0.0191301 0.110468 0.0
-0.0191815 0.103082 0.0
-0.0191442 0.0956923 0.0
-0.0190084 0.0883365 0.0
-0.0187688 0.0810531 0.0
-0.018423 0.0738815 0.0
-0.0179713 0.0668607 0.0
-0.0174162 0.060029 0.0
-0.0167614 0.0534234 0.0
-0.0160115 0.047079 0.0
-0.0151717 0.0410294 0.0
-0.0142473 0.0353057 0.0
-0.0132436 0.0299373 0.0
-0.0121654 0.0249516 0.0
-0.011018 0.0203736 0.0
-0.00980656 0.0162262 0.0
-0.00853762 0.0125297 0.0
-0.00722016 0.00930111 0.0
-0.005868 0.00655317 0.0
-0.00450346 0.00429331 0.0
-0.00316327 0.00252214 0.0
-0.00190737 0.00122799 0.0
-0.000828842 0.000390877 0.0
-7.68589e-05 4.20383e-05 0.0
0.729744 0.0191998 0.0
0.348851 0.0730568 0.0
0.12781 0.139322 0.0
0.0111994 0.188355 0.0
-0.0442145 0.219784 0.0
-0.0658004 0.236998 0.0
-0.070335 0.244531 0.0
-0.0669204 0.245851 0.0
-0.0603564 0.243412 0.0
-0.0530917 0.238819 0.0
-0.0463025 0.233067 0.0
-0.0404844 0.226739 0.0
-0.0357776 0.22015 0.0
-0.0321453 0.21345 0.0
-0.0294697 0.206693 0.0
-0.0276037 0.199881 0.0
-0.0263972 0.19299 0.0
-0.0257091 0.185989 0.0
-0.0254134 0.178848 0.0
-0.0254003 0.171546 0.0
-0.025576 0.164072 0.0
-0.0258616 0.156424 0.0
-0.0261916 0.148613 0.0
-0.0265126 0.140655 0.0
-0.0267821 0.132579 0.0
-0.0269669 0.124415 0.0
-0.027042 0.116203 0.0
-0.0269896 0.107982 0.0
-0.0267982 0.0997953 0.0
-0.0264613 0.0916874 0.0
-0.0259767 0.0837018 0.0
-0.0253454 0.0758817 0.0
-0.0245712 0.0682688 0.0
-0.0236594 0.060903 0.0
-0.0226168 0.0538222 0.0
-0.0214505 0.047062 0.0
-0.0201681 0.0406558 0.0
-0.0187768 0.0346345 0.0
-0.0172841 0.0290271 0.0
-0.0156972 0.0238598 0.0
-0.0140242 0.0191566 0.0
-0.0122744 0.0149389 0.0
-0.0104605 0.0112248 0.0
-0.00860101 0.00802867 0.0
-0.00672393 0.0053607 0.0
-0.00487262 0.00322654 0.0
-0.00311388 0.00162219 0.0
-0.00154611 0.000542748 0.0
-0.000317723 6.72098e-05 0.0
0.765757 0.0125994 0.0
0.408298 0.055724 0.0
0.182833 0.114589 0.0
0.0527731 0.162752 0.0
-0.016945 0.19801 0.0
-0.0499977 0.220993 0.0
-0.0626686 0.234535 0.0
-0.0646792 0.241398 0.0
-0.0615868 0.243714 0.0
-0.0564739 0.24301 0.0
-0.0509879 0.240328 0.0
-0.0459528 0.236349 0.0
-0.0417277 0.2315 0.0
-0.038415 0.226041 0.0
-0.0359821 0.220119 0.0
-0.0343302 0.213817 0.0
-0.0333336 0.207177 0.0
-0.0328609 0.20022 0.0
-0.0327864 0.192959 0.0
-0.0329958 0.185408 0.0
-0.033388 0.177582 0.0
-0.0338761 0.169503 0.0
-0.0343867 0.161199 0.0
-0.0348593 0.152702 0.0
-0.0352454 0.144052 0.0
-0.0355071 0.135291 0.0
-0.0356161 0.126466 0.0
-0.0355526 0.117625 0.0
-0.0353038 0.108816 0.0
-0.0348633 0.100089 0.0
-0.0342296 0.0914902 0.0
-0.0334052 0.0830674 0.0
-0.0323958 0.0748643 0.0
-0.0312087 0.0669229 0.0
-0.0298532 0.0592826 0.0
-0.0283387 0.0519802 0.0
-0.0266753 0.0450498 0.0
-0.0248727 0.0385231 0.0
-0.0229405 0.0324293 0.0
-0.0208887 0.0267954 0.0
-0.0187276 0.0216457 0.0
-0.0164695 0.0170023 0.0
-0.0141303 0.0128846 0.0
-0.0117318 0.00930916 0.0
-0.00930594 0.00629009 0.0
-0.00689928 0.00383964 0.0
-0.00458041 0.00196323 0.0
-0.00244587 0.000671803 0.0
-0.000633693 8.75677e-05 0.0
0.792807 0.00861413 0.0
0.458384 0.0436558 0.0
0.233364 0.0954719 0.0
0.0945038 0.141243 0.0
0.0140047 0.177585 0.0
-0.0293776 0.204204 0.0
-0.0499962 0.222028 0.0
-0.0577897 0.233197 0.0
-0.0587764 0.239463 0.0
-0.0564972 0.242185 0.0
-0.0529756 0.242358 0.0
-0.0493192 0.240686 0.0
-0.0460895 0.23765 0.0
-0.043528 0.233572 0.0
-0.041694 0.228667 0.0
-0.0405467 0.223076 0.0
-0.0399953 0.216895 0.0
-0.0399272 0.210192 0.0
-0.0402255 0.203019 0.0
-0.0407778 0.195421 0.0
-0.0414815 0.187442 0.0
-0.042246 0.179125 0.0
-0.0429939 0.170516 0.0
-0.0436606 0.161666 0.0
-0.044194 0.152625 0.0
-0.0445536 0.143448 0.0
-0.0447094 0.134189 0.0
-0.0446408 0.124904 0.0
-0.0443356 0.115647 0.0
-0.0437882 0.106472 0.0
-0.0429988 0.0974308 0.0
-0.0419723 0.0885716 0.0
-0.0407165 0.0799409 0.0
-0.0392419 0.0715816 0.0
-0.0375603 0.063534 0.0
-0.035684 0.055835 0.0
-0.0336257 0.0485188 0.0
-0.0313977 0.0416168 0.0
-0.0290122 0.0351578 0.0
-0.0264811 0.0291686 0.0
-0.0238174 0.0236735 0.0
-0.0210355 0.0186953 0.0
-0.0181535 0.0142545 0.0
-0.0151952 0.0103705 0.0
-0.012194 0.00706184 0.0
-0.0091965 0.00434796 0.0
-0.00626873 0.00224418 0.0
-0.00349978 0.000776415 0.0
-0.00101126 0.000103352 0.0
0.813835 0.00616552 0.0
0.500914 0.0351055 0.0
0.279248 0.080692 0.0
0.134931 0.123498 0.0
0.0461221 0.159589 0.0
-0.00572272 0.187948 0.0
-0.033718 0.208686 0.0
-0.0472813 0.223043 0.0
-0.0526265 0.232433 0.0
-0.0535961 0.238013 0.0
-0.0524974 0.240684 0.0
-0.0506687 0.241121 0.0
-0.048847 0.239816 0.0
-0.0474014 0.237121 0.0
-0.0464802 0.233291 0.0
-0.0461032 0.228507 0.0
-0.0462184 0.222906 0.0
-0.0467377 0.216592 0.0
-0.0475579 0.209649 0.0
-0.0485737 0.202151 0.0
-0.0496853 0.194167 0.0
-0.0508024 0.18576 0.0
-0.0518464 0.176997 0.0
-0.0527515 0.167941 0.0
-0.0534645 0.158657 0.0
-0.0539443 0.14921 0.0
-0.0541611 0.139663 0.0
-0.0540953 0.130079 0.0
-0.0537361 0.12052 0.0
-0.0530804 0.111041 0.0
-0.052131 0.101699 0.0
-0.0508959 0.0925436 0.0
-0.0493864 0.083623 0.0
-0.0476162 0.0749807 0.0
-0.0456003 0.0666568 0.0
-0.0433544 0.0586877 0.0
-0.040894 0.0511069 0.0
-0.038234 0.0439447 0.0
-0.035389 0.0372292 0.0
-0.0323731 0.0309862 0.0
-0.0292009 0.0252399 0.0
-0.0258885 0.020013 0.0
-0.0224548 0.0153277 0.0
-0.0189242 0.0112059 0.0
-0.0153291 0.00767064 0.0
-0.0117136 0.00474864 0.0
-0.00813718 0.00246452 0.0
-0.00467779 0.000857385 0.0
-0.00143718 0.000115112 0.0
0.830718 0.00462058 0.0
0.537404 0.0289126 0.0
0.320782 0.0691522 0.0
0.173455 0.108857 0.0
0.0784204 0.143933 0.0
0.019713 0.172823 0.0
-0.0149609 0.195389 0.0
-0.0340661 0.212028 0.0
-0.0438274 0.223803 0.0
-0.0482613 0.231679 0.0
-0.0498777 0.236445 0.0
-0.0501947 0.23872 0.0
-0.0500944 0.238981 0.0
-0.0500565 0.237586 0.0
-0.0503103 0.234806 0.0
-0.0509331 0.23085 0.0
-0.0519123 0.22588 0.0
-0.0531858 0.220028 0.0
-0.0546671 0.213403 0.0
-0.056261 0.206103 0.0
-0.0578733 0.198218 0.0
-0.0594167 0.189831 0.0
-0.0608144 0.181025 0.0
-0.0620017 0.171877 0.0
-0.0629262 0.162466 0.0
-0.0635485 0.152865 0.0
-0.0638405 0.143149 0.0
-0.0637851 0.133385 0.0
-0.0633748 0.123641 0.0
-0.0626099 0.113978 0.0
-0.0614973 0.104454 0.0
-0.0600488 0.0951206 0.0
-0.0582801 0.0860273 0.0
-0.0562088 0.0772175 0.0
-0.0538538 0.0687306 0.0
-0.0512344 0.0606019 0.0
-0.0483691 0.0528635 0.0
-0.0452757 0.0455442 0.0
-0.0419709 0.0386705 0.0
-0.0384706 0.032267 0.0
-0.0347907 0.026357 0.0
-0.0309477 0.0209634 0.0
-0.0269604 0.0161092 0.0
-0.022852 0.0118189 0.0
-0.018652 0.0081197 0.0
-0.014399 0.0050448 0.0
-0.0101438 0.00262708 0.0
-0.00595048 0.000916576 0.0
-0.0018993 0.00012345 0.0
0.844646 0.00361259 0.0
0.569048 0.0243203 0.0
0.358388 0.0600336 0.0
0.209789 0.0967416 0.0
0.110131 0.130411 0.0
0.0457406 0.159175 0.0
0.00545452 0.182569 0.0
-0.0188823 0.200789 0.0
-0.0329874 0.214333 0.0
-0.0409654 0.223999 0.0
-0.0454644 0.230467 0.0
-0.0481386 0.23429 0.0
-0.0499861 0.235913 0.0
-0.0515793 0.235684 0.0
-0.053218 0.23388 0.0
-0.055031 0.230719 0.0
-0.0570428 0.226381 0.0
-0.0592167 0.221016 0.0
-0.0614836 0.214753 0.0
-0.0637596 0.207709 0.0
-0.0659579 0.199991 0.0
-0.0679963 0.191699 0.0
-0.0698014 0.18293 0.0
-0.0713116 0.173776 0.0
-0.0724774 0.164325 0.0
-0.0732623 0.154662 0.0
-0.0736422 0.144869 0.0
-0.0736039 0.135021 0.0
-0.0731443 0.12519 0.0
-0.0722688 0.115441 0.0
-0.0709893 0.105834 0.0
-0.0693229 0.0964236 0.0
-0.0672901 0.0872581 0.0
-0.0649135 0.0783808 0.0
-0.0622164 0.0698299 0.0
-0.059222 0.0616393 0.0
-0.0559521 0.0538388 0.0
-0.0524273 0.0464553 0.0
-0.0486664 0.0395132 0.0
-0.0446867 0.0330353 0.0
-0.0405046 0.0270438 0.0
-0.0361362 0.021561 0.0
-0.0315991 0.0166106 0.0
-0.0269135 0.0122188 0.0
-0.0221042 0.00841661 0.0
-0.0172025 0.00524246 0.0
-0.0122483 0.00273608 0.0
-0.0072902 0.000956164 0.0
-0.00238672 0.000128916 0.0
0.856403 0.00292839 0.0
0.596777 0.0208292 0.0
0.392522 0.0527211 0.0
0.243893 0.0866327 0.0
0.140886 0.11871 0.0
0.0718377 0.146933 0.0
0.0266728 0.170583 0.0
-0.00233686 0.189698 0.0
-0.0206239 0.204512 0.0
-0.0321344 0.21553 0.0
-0.0395936 0.223339 0.0
-0.0447536 0.228426 0.0
-0.0487039 0.231195 0.0
-0.0520923 0.231977 0.0
-0.0552778 0.231041 0.0
-0.0584337 0.228609 0.0
-0.0616173 0.224868 0.0
-0.0648154 0.219981 0.0
-0.0679752 0.21409 0.0
-0.0710243 0.207327 0.0
-0.0738841 0.199813 0.0
-0.0764785 0.191663 0.0
-0.0787388 0.182985 0.0
-0.0806078 0.173884 0.0
-0.0820404 0.164459 0.0
-0.083005 0.154805 0.0
-0.0834824 0.145009 0.0
-0.0834651 0.135153 0.0
-0.0829561 0.125315 0.0
-0.0819668 0.115562 0.0
-0.0805155 0.105957 0.0
-0.0786256 0.0965552 0.0
-0.0763235 0.0874046 0.0
-0.0736375 0.0785476 0.0
-0.0705958 0.0700207 0.0
-0.0672259 0.0618555 0.0
-0.0635534 0.0540795 0.0
-0.0596015 0.0467168 0.0
-0.055391 0.0397892 0.0
-0.0509401 0.0333174 0.0
-0.046265 0.0273216 0.0
-0.0413809 0.0218233 0.0
-0.0363024 0.016846 0.0
-0.0310458 0.0124173 0.0
-0.0256294 0.00857063 0.0
-0.0200758 0.00534852 0.0
-0.0144124 0.002796 0.0
-0.00867146 0.000978224 0.0
-0.0028898 0.000131965 0.0
0.866513 0.00244362 0.0
0.621311 0.0181082 0.0
0.423607 0.0467631 0.0
0.275828 0.0781101 0.0
0.170464 0.108531 0.0
0.0976066 0.135953 0.0
0.0482027 0.159487 0.0
0.0150546 0.178983 0.0
-0.00717877 0.194629 0.0
-0.0221437 0.206635 0.0
-0.0325744 0.215466 0.0
-0.0402861 0.221553 0.0
-0.0464374 0.225258 0.0
-0.0517357 0.226887 0.0
-0.0565883 0.226697 0.0
-0.0612055 0.224906 0.0
-0.0656725 0.221703 0.0
-0.0699962 0.217259 0.0
-0.0741385 0.211725 0.0
-0.0780378 0.205243 0.0
-0.0816233 0.197947 0.0
-0.0848253 0.189962 0.0
-0.087581 0.181408 0.0
-0.0898382 0.172401 0.0
-0.0915579 0.16305 0.0
-0.0927141 0.153455 0.0
-0.0932945 0.143714 0.0
-0.0932985 0.133914 0.0
-0.0927364 0.124135 0.0
-0.0916273 0.114448 0.0
-0.089997 0.104918 0.0
-0.0878762 0.0955994 0.0
-0.0852984 0.0865408 0.0
-0.0822979 0.0777826 0.0
-0.0789089 0.0693591 0.0
-0.0751635 0.0612991 0.0
-0.0710911 0.0536271 0.0
-0.0667178 0.0463639 0.0
-0.062066 0.0395284 0.0
-0.0571544 0.0331382 0.0
-0.0519987 0.0272114 0.0
-0.0466117 0.0217678 0.0
-0.0410049 0.0168301 0.0
-0.0351887 0.0124262 0.0
-0.0291741 0.00859092 0.0
-0.0229733 0.0053696 0.0
-0.0166004 0.00281093 0.0
-0.0100709 0.000984526 0.0
-0.0034 0.000132947 0.0
0.875337 0.002085 0.0
0.643203 0.0159356 0.0
0.452016 0.0418284 0.0
0.305703 0.0708405 0.0
0.198758 0.0996125 0.0
0.122792 0.126076 0.0
0.0696996 0.149237 0.0
0.0328044 0.168802 0.0
0.00702972 0.18483 0.0
-0.0112991 0.197531 0.0
-0.0246769 0.207114 0.0
-0.0349634 0.213964 0.0
-0.0433713 0.218408 0.0
-0.0506554 0.220722 0.0
-0.057261 0.221148 0.0
-0.0634284 0.219898 0.0
-0.0692651 0.21716 0.0
-0.0747949 0.213107 0.0
-0.0799919 0.207895 0.0
-0.0848037 0.201677 0.0
-0.0891669 0.194592 0.0
-0.093018 0.186779 0.0
-0.0963002 0.178366 0.0
-0.0989675 0.169479 0.0
-0.100987 0.160233 0.0
-0.102341 0.150739 0.0
-0.103025 0.141099 0.0
-0.103046 0.131405 0.0
-0.102423 0.121741 0.0
-0.101184 0.112181 0.0
-0.0993647 0.10279 0.0
-0.0970031 0.0936227 0.0
-0.0941409 0.084726 0.0
-0.0908197 0.0761384 0.0
-0.0870797 0.0678914 0.0
-0.0829582 0.0600107 0.0
-0.0784889 0.0525169 0.0
-0.0737004 0.0454273 0.0
-0.0686168 0.038757 0.0
-0.0632571 0.0325204 0.0
-0.0576355 0.0267324 0.0
-0.0517621 0.0214105 0.0
-0.0456438 0.016576 0.0
-0.0392847 0.0122559 0.0
-0.0326871 0.00848557 0.0
-0.025852 0.00531139 0.0
-0.0187792 0.00278425 0.0
-0.011467 0.00097645 0.0
-0.00390961 0.000132107 0.0
0.88313 0.00180845 0.0
0.662879 0.0141597 0.0
0.478067 0.0376723 0.0
0.333646 0.0645599 0.0
0.225724 0.0917231 0.0
0.14723 0.117138 0.0
0.0909279 0.139747 0.0
0.0506437 0.159152 0.0
0.0215628 0.175308 0.0
0.000124643 0.188357 0.0
-0.0161397 0.19846 0.0
-0.0289931 0.205859 0.0
-0.0396816 0.210854 0.0
-0.0489967 0.213696 0.0
-0.0574131 0.214609 0.0
-0.0651943 0.213795 0.0
-0.0724651 0.211437 0.0
-0.0792623 0.20771 0.0
-0.0855695 0.202774 0.0
-0.0913418 0.196786 0.0
-0.096522 0.189896 0.0
-0.101052 0.182248 0.0
-0.104883 0.173981 0.0
-0.107973 0.165226 0.0
-0.110299 0.156109 0.0
-0.111849 0.146746 0.0
-0.11263 0.137244 0.0
-0.112657 0.127701 0.0
-0.111961 0.118202 0.0
-0.110579 0.108824 0.0
-0.108556 0.0996302 0.0
-0.105941 0.0906763 0.0
-0.102783 0.0820065 0.0
-0.0991329 0.0736567 0.0
-0.095037 0.0656552 0.0
-0.0905383 0.0580236 0.0
-0.0856747 0.0507785 0.0
-0.0804778 0.0439329 0.0
-0.074973 0.0374977 0.0
-0.069179 0.0314833 0.0
-0.0631085 0.0259011 0.0
-0.0567681 0.0207654 0.0
-0.0501593 0.0160951 0.0
-0.0432789 0.0119156 0.0
-0.0361197 0.00826126 0.0
-0.0286709 0.00517838 0.0
-0.0209173 0.00271854 0.0
-0.0128397 0.00095498 0.0
-0.00441158 0.0001296 0.0
0.890073 0.00158675 0.0
0.680666 0.0126746 0.0
0.502023 0.0341115 0.0
0.359782 0.0590585 0.0
0.251355 0.0846666 0.0
0.170814 0.108978 0.0
0.111713 0.130904 0.0
0.0683644 0.149969 0.0
0.0362215 0.166049 0.0
0.0118609 0.179206 0.0
-0.00718374 0.189602 0.0
-0.0225681 0.197358 0.0
-0.0355352 0.202731 0.0
-0.0469016 0.205951 0.0
-0.0571636 0.207222 0.0
-0.0666009 0.206734 0.0
-0.0753509 0.204668 0.0
-0.0834591 0.201195 0.0
-0.0909162 0.196479 0.0
-0.0976826 0.190681 0.0
-0.103706 0.183957 0.0
-0.108935 0.176459 0.0
-0.113324 0.168333 0.0
-0.11684 0.159718 0.0
-0.119469 0.150746 0.0
-0.121207 0.141539 0.0
-0.122071 0.132209 0.0
-0.122089 0.122855 0.0
-0.121301 0.113567 0.0
-0.119757 0.104421 0.0
-0.117513 0.0954806 0.0
-0.114628 0.086799 0.0
-0.111161 0.0784181 0.0
-0.107171 0.0703706 0.0
-0.102713 0.0626805 0.0
-0.0978352 0.0553652 0.0
-0.0925797 0.0484365 0.0
-0.0869812 0.0419027 0.0
-0.0810664 0.0357698 0.0
-0.0748537 0.0300437 0.0
-0.0683533 0.0247317 0.0
-0.061568 0.0198442 0.0
-0.0544934 0.0153968 0.0
-0.0471184 0.0114124 0.0
-0.0394254 0.00792317 0.0
-0.031391 0.00497396 0.0
-0.0229849 0.00261559 0.0
-0.0141701 0.000920746 0.0
-0.00489925 0.000125503 0.0
0.8963 0.00140251 0.0
0.69682 0.0114048 0.0
0.524099 0.0310068 0.0
0.384225 0.0541687 0.0
0.27566 0.0782767 0.0
0.193467 0.101454 0.0
0.13192 0.122598 0.0
0.085791 0.141183 0.0
0.0508026 0.15702 0.0
0.0236754 0.170111 0.0
0.0020085 0.180569 0.0
-0.0158596 0.188518 0.0
-0.0310866 0.19411 0.0
-0.0445067 0.197566 0.0
-0.0566306 0.199069 0.0
-0.0677486 0.1988 0.0
-0.0780055 0.196932 0.0
-0.0874526 0.193637 0.0
-0.0960842 0.189079 0.0
-0.103864 0.183424 0.0
-0.110745 0.176833 0.0
-0.116678 0.169465 0.0
-0.121625 0.161472 0.0
-0.125561 0.152999 0.0
-0.128479 0.144185 0.0
-0.130388 0.135156 0.0
-0.131315 0.126028 0.0
-0.1313 0.116902 0.0
-0.130396 0.107869 0.0
-0.128666 0.099005 0.0