# vtk DataFile Version 3.0
Malha 2D com triângulos e temperatura
ASCII
DATASET UNSTRUCTURED_GRID

POINTS 2500 double
0 0 0
1 0 0
1 1 0
0 1 0
0.0204082 0 0
0.0408163 0 0
0.0612245 0 0
0.0816327 0 0
0.102041 0 0
0.122449 0 0
0.142857 0 0
0.163265 0 0
0.183673 0 0
0.204082 0 0
0.22449 0 0
0.244898 0 0
0.265306 0 0
0.285714 0 0
0.306122 0 0
0.326531 0 0
0.346939 0 0
0.367347 0 0
0.387755 0 0
0.408163 0 0
0.428571 0 0
0.44898 0 0
0.469388 0 0
0.489796 0 0
0.510204 0 0
0.530612 0 0
0.55102 0 0
0.571429 0 0
0.591837 0 0
0.612245 0 0
0.632653 0 0
0.653061 0 0
0.673469 0 0
0.693878 0 0
0.714286 0 0
0.734694 0 0
0.755102 0 0
0.77551 0 0
0.795918 0 0
0.816327 0 0
0.836735 0 0
0.857143 0 0
0.877551 0 0
0.897959 0 0
0.918367 0 0
0.938776 0 0
0.959184 0 0
0.979592 0 0
1 0.0204082 0
1 0.0408163 0
1 0.0612245 0
1 0.0816327 0
1 0.102041 0
1 0.122449 0
1 0.142857 0
1 0.163265 0
1 0.183673 0
1 0.204082 0
1 0.22449 0
1 0.244898 0
1 0.265306 0
1 0.285714 0
1 0.306122 0
1 0.326531 0
1 0.346939 0
1 0.367347 0
1 0.387755 0
1 0.408163 0
1 0.428571 0
1 0.44898 0
1 0.469388 0
1 0.489796 0
1 0.510204 0
1 0.530612 0
1 0.55102 0
1 0.571429 0
1 0.591837 0
1 0.612245 0
1 0.632653 0
1 0.653061 0
1 0.673469 0
1 0.693878 0
1 0.714286 0
1 0.734694 0
1 0.755102 0
1 0.77551 0
1 0.795918 0
1 0.816327 0
1 0.836735 0
1 0.857143 0
1 0.877551 0
1 0.897959 0
1 0.918367 0
1 0.938776 0
1 0.959184 0
1 0.979592 0
0.979592 1 0
0.959184 1 0
0.938776 1 0
0.918367 1 0
0.897959 1 0
0.877551 1 0
0.857143 1 0
0.836735 1 0
0.816327 1 0
0.795918 1 0
0.77551 1 0
0.755102 1 0
0.734694 1 0
0.714286 1 0
0.693878 1 0
0.673469 1 0
0.653061 1 0
0.632653 1 0
0.612245 1 0
0.591837 1 0
0.571429 1 0
0.55102 1 0
0.530612 1 0
0.510204 1 0
0.489796 1 0
0.469388 1 0
0.44898 1 0
0.428571 1 0
0.408163 1 0
0.387755 1 0
0.367347 1 0
0.346939 1 0
0.326531 1 0
0.306122 1 0
0.285714 1 0
0.265306 1 0
0.244898 1 0
0.22449 1 0
0.204082 1 0
0.183673 1 0
0.163265 1 0
0.142857 1 0
0.122449 1 0
0.102041 1 0
0.0816327 1 0
0.0612245 1 0
0.0408163 1 0
0.0204082 1 0
0 0.979592 0
0 0.959184 0
0 0.938776 0
0 0.918367 0
0 0.897959 0
0 0.877551 0
0 0.857143 0
0 0.836735 0
0 0.816327 0
0 0.795918 0
0 0.77551 0
0 0.755102 0
0 0.734694 0
0 0.714286 0
0 0.693878 0
0 0.673469 0
0 0.653061 0
0 0.632653 0
0 0.612245 0
0 0.591837 0
0 0.571429 0
0 0.55102 0
0 0.530612 0
0 0.510204 0
0 0.489796 0
0 0.469388 0
0 0.44898 0
0 0.428571 0
0 0.408163 0
0 0.387755 0
0 0.367347 0
0 0.346939 0
0 0.326531 0
0 0.306122 0
0 0.285714 0
0 0.265306 0
0 0.244898 0
0 0.22449 0
0 0.204082 0
0 0.183673 0
0 0.163265 0
0 0.142857 0
0 0.122449 0
0 0.102041 0
0 0.0816327 0
0 0.0612245 0
0 0.0408163 0
0 0.0204082 0
0.0204082 0.979592 0
0.0204082 0.959184 0
0.0204082 0.938776 0
0.0204082 0.918367 0
0.0204082 0.897959 0
0.0204082 0.877551 0
0.0204082 0.857143 0
0.0204082 0.836735 0
0.0204082 0.816327 0
0.0204082 0.795918 0
0.0204082 0.77551 0
0.0204082 0.755102 0
0.0204082 0.734694 0
0.0204082 0.714286 0
0.0204082 0.693878 0
0.0204082 0.673469 0
0.0204082 0.653061 0
0.0204082 0.632653 0
0.0204082 0.612245 0
0.0204082 0.591837 0
0.0204082 0.571429 0
0.0204082 0.55102 0
0.0204082 0.530612 0
0.0204082 0.510204 0
0.0204082 0.489796 0
0.0204082 0.469388 0
0.0204082 0.44898 0
0.0204082 0.428571 0
0.0204082 0.408163 0
0.0204082 0.387755 0
0.0204082 0.367347 0
0.0204082 0.346939 0
0.0204082 0.326531 0
0.0204082 0.306122 0
0.0204082 0.285714 0
0.0204082 0.265306 0
0.0204082 0.244898 0
0.0204082 0.22449 0
0.0204082 0.204082 0
0.0204082 0.183673 0
0.0204082 0.163265 0
0.0204082 0.142857 0
0.0204082 0.122449 0
0.0204082 0.102041 0
0.0204082 0.0816327 0
0.0204082 0.0612245 0
0.0204082 0.0408163 0
0.0204082 0.0204082 0
0.0408163 0.979592 0
0.0408163 0.959184 0
0.0408163 0.938776 0
0.0408163 0.918367 0
0.0408163 0.897959 0
0.0408163 0.877551 0
0.0408163 0.857143 0
0.0408163 0.836735 0
0.0408163 0.816327 0
0.0408163 0.795918 0
0.0408163 0.77551 0
0.0408163 0.755102 0
0.0408163 0.734694 0
0.0408163 0.714286 0
0.0408163 0.693878 0
0.0408163 0.673469 0
0.0408163 0.653061 0
0.0408163 0.632653 0
0.0408163 0.612245 0
0.0408163 0.591837 0
0.0408163 0.571429 0
0.0408163 0.55102 0
0.0408163 0.530612 0
0.0408163 0.510204 0
0.0408163 0.489796 0
0.0408163 0.469388 0
0.0408163 0.44898 0
0.0408163 0.428571 0
0.0408163 0.408163 0
0.0408163 0.387755 0
0.0408163 0.367347 0
0.0408163 0.346939 0
0.0408163 0.326531 0
0.0408163 0.306122 0
0.0408163 0.285714 0
0.0408163 0.265306 0
0.0408163 0.244898 0
0.0408163 0.22449 0
0.0408163 0.204082 0
0.0408163 0.183673 0
0.0408163 0.163265 0
0.0408163 0.142857 0
0.0408163 0.122449 0
0.0408163 0.102041 0
0.0408163 0.0816327 0
0.0408163 0.0612245 0
0.0408163 0.0408163 0
0.0408163 0.0204082 0
0.0612245 0.979592 0
0.0612245 0.959184 0
0.0612245 0.938776 0
0.0612245 0.918367 0
0.0612245 0.897959 0
0.0612245 0.877551 0
0.0612245 0.857143 0
0.0612245 0.836735 0
0.0612245 0.816327 0
0.0612245 0.795918 0
0.0612245 0.77551 0
0.0612245 0.755102 0
0.0612245 0.734694 0
0.0612245 0.714286 0
0.0612245 0.693878 0
0.0612245 0.673469 0
0.0612245 0.653061 0
0.0612245 0.632653 0
0.0612245 0.612245 0
0.0612245 0.591837 0
0.0612245 0.571429 0
0.0612245 0.55102 0
0.0612245 0.530612 0
0.0612245 0.510204 0
0.0612245 0.489796 0
0.0612245 0.469388 0
0.0612245 0.44898 0
0.0612245 0.428571 0
0.0612245 0.408163 0
0.0612245 0.387755 0
0.0612245 0.367347 0
0.0612245 0.346939 0
0.0612245 0.326531 0
0.0612245 0.306122 0
0.0612245 0.285714 0
0.0612245 0.265306 0
0.0612245 0.244898 0
0.0612245 0.22449 0
0.0612245 0.204082 0
0.0612245 0.183673 0
0.0612245 0.163265 0
0.0612245 0.142857 0
0.0612245 0.122449 0
0.0612245 0.102041 0
0.0612245 0.0816327 0
0.0612245 0.0612245 0
0.0612245 0.0408163 0
0.0612245 0.0204082 0
0.0816327 0.979592 0
0.0816327 0.959184 0
0.0816327 0.938776 0
0.0816327 0.918367 0
0.0816327 0.897959 0
0.0816327 0.877551 0
0.0816327 0.857143 0
0.0816327 0.836735 0
0.0816327 0.816327 0
0.0816327 0.795918 0
0.0816327 0.77551 0
0.0816327 0.755102 0
0.0816327 0.734694 0
0.0816327 0.714286 0
0.0816327 0.693878 0
0.0816327 0.673469 0
0.0816327 0.653061 0
0.0816327 0.632653 0
0.0816327 0.612245 0
0.0816327 0.591837 0
0.0816327 0.571429 0
0.0816327 0.55102 0
0.0816327 0.530612 0
0.0816327 0.510204 0
0.0816327 0.489796 0
0.0816327 0.469388 0
0.0816327 0.44898 0
0.0816327 0.428571 0
0.0816327 0.408163 0
0.0816327 0.387755 0
0.0816327 0.367347 0
0.0816327 0.346939 0
0.0816327 0.326531 0
0.0816327 0.306122 0
0.0816327 0.285714 0
0.0816327 0.265306 0
0.0816327 0.244898 0
0.0816327 0.22449 0
0.0816327 0.204082 0
0.0816327 0.183673 0
0.0816327 0.163265 0
0.0816327 0.142857 0
0.0816327 0.122449 0
0.0816327 0.102041 0
0.0816327 0.0816327 0
0.0816327 0.0612245 0
0.0816327 0.0408163 0
0.0816327 0.0204082 0
0.102041 0.979592 0
0.102041 0.959184 0
0.102041 0.938776 0
0.102041 0.918367 0
0.102041 0.897959 0
0.102041 0.877551 0
0.102041 0.857143 0
0.102041 0.836735 0
0.102041 0.816327 0
0.102041 0.795918 0
0.102041 0.77551 0
0.102041 0.755102 0
0.102041 0.734694 0
0.102041 0.714286 0
0.102041 0.693878 0
0.102041 0.673469 0
0.102041 0.653061 0
0.102041 0.632653 0
0.102041 0.612245 0
0.102041 0.591837 0
0.102041 0.571429 0
0.102041 0.55102 0
0.102041 0.530612 0
0.102041 0.510204 0
0.102041 0.489796 0
0.102041 0.469388 0
0.102041 0.44898 0
0.102041 0.428571 0
0.102041 0.408163 0
0.102041 0.387755 0
0.102041 0.367347 0
0.102041 0.346939 0
0.102041 0.326531 0
0.102041 0.306122 0
0.102041 0.285714 0
0.102041 0.265306 0
0.102041 0.244898 0
0.102041 0.22449 0
0.102041 0.204082 0
0.102041 0.183673 0
0.102041 0.163265 0
0.102041 0.142857 0
0.102041 0.122449 0
0.102041 0.102041 0
0.102041 0.0816327 0
0.102041 0.0612245 0
0.102041 0.0408163 0
0.102041 0.0204082 0
0.122449 0.979592 0
0.122449 0.959184 0
0.122449 0.938776 0
0.122449 0.918367 0
0.122449 0.897959 0
0.122449 0.877551 0
0.122449 0.857143 0
0.122449 0.836735 0
0.122449 0.816327 0
0.122449 0.795918 0
0.122449 0.77551 0
0.122449 0.755102 0
0.122449 0.734694 0
0.122449 0.714286 0
0.122449 0.693878 0
0.122449 0.673469 0
0.122449 0.653061 0
0.122449 0.632653 0
0.122449 0.612245 0
0.122449 0.591837 0
0.122449 0.571429 0
0.122449 0.55102 0
0.122449 0.530612 0
0.122449 0.510204 0
0.122449 0.489796 0
0.122449 0.469388 0
0.122449 0.44898 0
0.122449 0.428571 0
0.122449 0.408163 0
0.122449 0.387755 0
0.122449 0.367347 0
0.122449 0.346939 0
0.122449 0.326531 0
0.122449 0.306122 0
0.122449 0.285714 0
0.122449 0.265306 0
0.122449 0.244898 0
0.122449 0.22449 0
0.122449 0.204082 0
0.122449 0.183673 0
0.122449 0.163265 0
0.122449 0.142857 0
0.122449 0.122449 0
0.122449 0.102041 0
0.122449 0.0816327 0
0.122449 0.0612245 0
0.122449 0.0408163 0
0.122449 0.0204082 0
0.142857 0.979592 0
0.142857 0.959184 0
0.142857 0.938776 0
0.142857 0.918367 0
0.142857 0.897959 0
0.142857 0.877551 0
0.142857 0.857143 0
0.142857 0.836735 0
0.142857 0.816327 0
0.142857 0.795918 0
0.142857 0.77551 0
0.142857 0.755102 0
0.142857 0.734694 0
0.142857 0.714286 0
0.142857 0.693878 0
0.142857 0.673469 0
0.142857 0.653061 0
0.142857 0.632653 0
0.142857 0.612245 0
0.142857 0.591837 0
0.142857 0.571429 0
0.142857 0.55102 0
0.142857 0.530612 0
0.142857 0.510204 0
0.142857 0.489796 0
0.142857 0.469388 0
0.142857 0.44898 0
0.142857 0.428571 0
0.142857 0.408163 0
0.142857 0.387755 0
0.142857 0.367347 0
0.142857 0.346939 0
0.142857 0.326531 0
0.142857 0.306122 0
0.142857 0.285714 0
0.142857 0.265306 0
0.142857 0.244898 0
0.142857 0.22449 0
0.142857 0.204082 0
0.142857 0.183673 0
0.142857 0.163265 0
0.142857 0.142857 0
0.142857 0.122449 0
0.142857 0.102041 0
0.142857 0.0816327 0
0.142857 0.0612245 0
0.142857 0.0408163 0
0.142857 0.0204082 0
0.163265 0.979592 0
0.163265 0.959184 0
0.163265 0.938776 0
0.163265 0.918367 0
0.163265 0.897959 0
0.163265 0.877551 0
0.163265 0.857143 0
0.163265 0.836735 0
0.163265 0.816327 0
0.163265 0.795918 0
0.163265 0.77551 0
0.163265 0.755102 0
0.163265 0.734694 0
0.163265 0.714286 0
0.163265 0.693878 0
0.163265 0.673469 0
0.163265 0.653061 0
0.163265 0.632653 0
0.163265 0.612245 0
0.163265 0.591837 0
0.163265 0.571429 0
0.163265 0.55102 0
[...]
CELL_DATA 2401
VECTORS velocity double
0.257787 0.157484 0.0
-0.00215658 0.265201 0.0
-0.0317329 0.207011 0.0
-0.0249697 0.152788 0.0
-0.0158774 0.115543 0.0
-0.00973015 0.0900331 0.0
-0.00611613 0.0724098 0.0
-0.00403979 0.0598662 0.0
-0.00282014 0.0505967 0.0
-0.00207167 0.0435056 0.0
-0.00158793 0.0379185 0.0
-0.00125913 0.033407 0.0
-0.00102559 0.0296889 0.0
-0.000853557 0.0265716 0.0
-0.00072302 0.0239193 0.0
-0.000621517 0.0216338 0.0
-0.00054095 0.0196424 0.0
-0.000475855 0.0178904 0.0
-0.000422431 0.0163357 0.0
-0.000377971 0.0149457 0.0
-0.000340509 0.0136946 0.0
-0.000308589 0.0125621 0.0
-0.000281121 0.0115316 0.0
-0.000257277 0.0105895 0.0
-0.000236423 0.00972474 0.0
-0.000218065 0.00892799 0.0
-0.000201817 0.00819139 0.0
-0.000187374 0.00750822 0.0
-0.000174494 0.0068727 0.0
-0.000162979 0.00627978 0.0
-0.000152673 0.00572503 0.0
-0.000143443 0.0052045 0.0
-0.000135182 0.0047147 0.0
-0.000127795 0.00425246 0.0
-0.0001212 0.00381494 0.0
-0.000115319 0.00339962 0.0
-0.000110071 0.00300426 0.0
-0.000105367 0.00262694 0.0
-0.000101093 0.00226614 0.0
-9.70912e-05 0.00192081 0.0
-9.31333e-05 0.00159057 0.0
-8.88702e-05 0.00127597 0.0
-8.37622e-05 0.000978859 0.0
-7.69756e-05 0.000702982 0.0
-6.72588e-05 0.000454727 0.0
-5.29355e-05 0.000244052 0.0
-3.23745e-05 8.45152e-05 0.0
-5.41571e-06 -8.08654e-06 0.0
1.7853e-05 -1.77975e-05 0.0
0.341437 0.123138 0.0
0.000464965 0.249898 0.0
-0.0641539 0.272163 0.0
-0.0626317 0.252503 0.0
-0.0485751 0.221371 0.0
-0.0357081 0.190348 0.0
-0.026238 0.163252 0.0
-0.0196362 0.140675 0.0
-0.0150556 0.12213 0.0
-0.0118282 0.106896 0.0
-0.00950199 0.094298 0.0
-0.00778448 0.0837796 0.0
-0.00648747 0.0749044 0.0
-0.00548793 0.0673358 0.0
-0.0047036 0.0608153 0.0
-0.00407811 0.055144 0.0
-0.00357195 0.0501674 0.0
-0.00315684 0.0457653 0.0
-0.00281219 0.0418426 0.0
-0.00252277 0.038324 0.0
-0.00227719 0.0351492 0.0
-0.00206682 0.0322693 0.0
-0.00188504 0.0296443 0.0
-0.00172675 0.0272415 0.0
-0.00158797 0.0250334 0.0
-0.00146557 0.0229971 0.0
-0.00135708 0.021113 0.0
-0.00126052 0.0193643 0.0
-0.0011743 0.0177366 0.0
-0.00109712 0.0162173 0.0
-0.00102794 0.0147952 0.0
-0.000965851 0.0134604 0.0
-0.00091012 0.0122041 0.0
-0.000860086 0.0110185 0.0
-0.000815149 0.00989653 0.0
-0.000774729 0.00883191 0.0
-0.000738219 0.00781922 0.0
-0.000704927 0.00685392 0.0
-0.000674005 0.00593249 0.0
-0.000644343 0.00505272 0.0
-0.000614428 0.00421409 0.0
-0.000582156 0.00341834 0.0
-0.000544589 0.00267017 0.0
-0.000497698 0.00197818 0.0
-0.000436215 0.00135588 0.0
-0.000354093 0.00082247 0.0
-0.000246703 0.000400953 0.0
-0.00011596 0.000116335 0.0
7.88762e-06 5.75791e-06 0.0
0.501462 0.0767948 0.0
0.0996225 0.182451 0.0
-0.0390827 0.246835 0.0
-0.0739708 0.261406 0.0
-0.0735634 0.250826 0.0
-0.0634351 0.230348 0.0
-0.0522073 0.207273 0.0
-0.0424095 0.184961 0.0
-0.0344965 0.164731 0.0
-0.0282781 0.146912 0.0
-0.0234232 0.13141 0.0
-0.0196218 0.117972 0.0
-0.0166232 0.106308 0.0
-0.0142355 0.0961455 0.0
-0.0123146 0.0872436 0.0
-0.0107529 0.0794004 0.0
-0.00946992 0.0724479 0.0
-0.00840508 0.0662481 0.0
-0.00751249 0.0606881 0.0
-0.0067572 0.055675 0.0
-0.00611233 0.0511327 0.0
-0.00555714 0.0469981 0.0
-0.00507545 0.043219 0.0
-0.00465461 0.0397514 0.0
-0.00428464 0.0365586 0.0
-0.00395761 0.0336093 0.0
-0.00366719 0.0308765 0.0
-0.00340828 0.0283371 0.0
-0.00317676 0.0259711 0.0
-0.00296924 0.0237605 0.0
-0.00278294 0.0216899 0.0
-0.00261551 0.0197453 0.0
-0.00246495 0.0179143 0.0
-0.00232947 0.0161856 0.0
-0.00220744 0.0145496 0.0
-0.00209725 0.0129972 0.0
-0.0019972 0.0115209 0.0
-0.00190536 0.0101145 0.0
-0.0018194 0.00877305 0.0
-0.00173633 0.00749365 0.0
-0.00165218 0.00627565 0.0
-0.00156168 0.00512143 0.0
-0.00145779 0.00403719 0.0
-0.00133145 0.00303385 0.0
-0.00117159 0.00212813 0.0
-0.00096655 0.00134309 0.0
-0.000708238 0.000705324 0.0
-0.000400539 0.000246122 0.0
-8.52691e-05 3.28098e-05 0.0
0.609909 0.0478055 0.0
0.194268 0.131808 0.0
0.00887712 0.20376 0.0
-0.0617183 0.236779 0.0
-0.0811889 0.243059 0.0
-0.0802953 0.235155 0.0
-0.0722674 0.220298 0.0
-0.0625884 0.202812 0.0
-0.0533852 0.185046 0.0
-0.0453527 0.16815 0.0
-0.038599 0.152612 0.0
-0.0330129 0.138572 0.0
-0.0284195 0.12599 0.0
-0.0246425 0.114752 0.0
-0.0215264 0.104713 0.0
-0.018942 0.0957301 0.0
-0.0167844 0.0876674 0.0
-0.0149703 0.0804049 0.0
-0.0134335 0.0738385 0.0
-0.0121216 0.0678783 0.0
-0.0109935 0.0624482 0.0
-0.0100165 0.057483 0.0
-0.0091646 0.0529274 0.0
-0.00841725 0.0487343 0.0
-0.00775793 0.0448631 0.0
-0.00717343 0.0412791 0.0
-0.00665304 0.0379519 0.0
-0.00618812 0.0348551 0.0
-0.00577158 0.0319657 0.0
-0.00539758 0.029263 0.0
-0.00506127 0.0267288 0.0
-0.00475853 0.0243469 0.0
-0.00448581 0.0221027 0.0
-0.00423995 0.0199829 0.0
-0.00401799 0.0179758 0.0
-0.00381701 0.0160712 0.0
-0.00363393 0.01426 0.0
-0.00346526 0.0125347 0.0
-0.00330678 0.0108898 0.0
-0.00315318 0.00932161 0.0
-0.00299761 0.0078294 0.0
-0.00283109 0.00641562 0.0
-0.00264204 0.00508692 0.0
-0.0024159 0.00385504 0.0
-0.00213543 0.00273783 0.0
-0.0017826 0.00176019 0.0
-0.00134363 0.000951174 0.0
-0.00081837 0.0003492 0.0
-0.000244304 5.29372e-05 0.0
0.67878 0.0297013 0.0
0.273528 0.0947617 0.0
0.0624581 0.162247 0.0
-0.036278 0.202747 0.0
-0.0756864 0.219919 0.0
-0.086645 0.222154 0.0
-0.0848069 0.215396 0.0
-0.0778011 0.203837 0.0
-0.0692408 0.19014 0.0
-0.0607617 0.175876 0.0
-0.0530341 0.161922 0.0
-0.0462675 0.148727 0.0
-0.040461 0.136486 0.0
-0.0355267 0.125251 0.0
-0.0313484 0.114996 0.0
-0.0278098 0.105659 0.0
-0.024805 0.0971597 0.0
-0.022243 0.0894152 0.0
-0.0200474 0.0823462 0.0
-0.0181552 0.0758796 0.0
-0.0165148 0.0699496 0.0
-0.0150845 0.0644978 0.0
-0.0138302 0.0594731 0.0
-0.0127246 0.0548305 0.0
-0.0117452 0.0505304 0.0
-0.0108739 0.0465384 0.0
-0.0100958 0.0428238 0.0
-0.00939885 0.0393597 0.0
-0.00877299 0.0361219 0.0
-0.0082099 0.0330892 0.0
-0.00770259 0.0302421 0.0
-0.00724511 0.0275633 0.0
-0.00683226 0.0250372 0.0
-0.00645937 0.0226496 0.0
-0.00612205 0.0203879 0.0
-0.00581593 0.0182409 0.0
-0.00553638 0.0161987 0.0
-0.00527817 0.0142534 0.0
-0.00503502 0.0123986 0.0
-0.00479914 0.0106304 0.0
-0.00456056 0.00894781 0.0
-0.00430646 0.00735295 0.0
-0.00402055 0.00585244 0.0
-0.00368258 0.00445807 0.0
-0.00326866 0.00318811 0.0
-0.00275314 0.00206875 0.0
-0.00211349 0.00113164 0.0
-0.00133908 0.000422482 0.0
-0.000451255 6.60995e-05 0.0
0.725971 0.0185496 0.0
0.33914 0.0685717 0.0
0.114325 0.127996 0.0
-0.00488986 0.16932 0.0
-0.0619525 0.192405 0.0
-0.0850415 0.201538 0.0
-0.0907006 0.201262 0.0
-0.0878925 0.195131 0.0
-0.0813634 0.185684 0.0
-0.0735718 0.174601 0.0
-0.0657424 0.162944 0.0
-0.0584406 0.15135 0.0
-0.0518859 0.140184 0.0
-0.0461223 0.129633 0.0
-0.0411091 0.119777 0.0
-0.0367709 0.110634 0.0
-0.0330216 0.102183 0.0
-0.0297778 0.0943843 0.0
-0.0269638 0.0871915 0.0
-0.0245137 0.0805541 0.0
-0.0223712 0.074423 0.0
-0.0204893 0.0687519 0.0
-0.0188287 0.063498 0.0
-0.017357 0.0586224 0.0
-0.0160473 0.0540899 0.0
-0.0148776 0.0498688 0.0
-0.0138295 0.0459306 0.0
-0.0128879 0.0422497 0.0
-0.0120402 0.0388026 0.0
-0.0112757 0.0355684 0.0
-0.0105855 0.0325281 0.0
-0.00996187 0.0296641 0.0
-0.00939805 0.0269607 0.0
-0.00888786 0.0244035 0.0
-0.00842547 0.0219796 0.0
-0.00800503 0.0196775 0.0
-0.00762033 0.017487 0.0
-0.00726434 0.0153998 0.0
-0.00692869 0.0134092 0.0
-0.00660302 0.0115112 0.0
-0.00627425 0.00970418 0.0
-0.00592567 0.00799013 0.0
-0.00553616 0.00637534 0.0
-0.00507955 0.00487146 0.0
-0.00452465 0.003497 0.0
-0.00383672 0.00227943 0.0
-0.00298157 0.00125305 0.0
-0.00193315 0.000469934 0.0
-0.000689931 7.38331e-05 0.0
0.759262 0.011811 0.0
0.392516 0.0503913 0.0
0.161438 0.101146 0.0
0.0279762 0.140041 0.0
-0.0436376 0.165497 0.0
-0.0779444 0.178799 0.0
-0.091335 0.183176 0.0
-0.0934501 0.18142 0.0
-0.0898114 0.175748 0.0
-0.0835249 0.167758 0.0
-0.0762976 0.158548 0.0
-0.0690337 0.148842 0.0
-0.0621814 0.1391 0.0
-0.0559343 0.129603 0.0
-0.0503475 0.120512 0.0
-0.0454043 0.111909 0.0
-0.0410541 0.103828 0.0
-0.0372335 0.0962707 0.0
-0.033877 0.0892222 0.0
-0.0309231 0.082657 0.0
-0.0283166 0.0765447 0.0
-0.0260091 0.0708533 0.0
-0.0239595 0.065551 0.0
-0.0221324 0.0606069 0.0
-0.0204985 0.0559922 0.0
-0.0190329 0.0516798 0.0
-0.0177148 0.0476446 0.0
-0.0165267 0.0438635 0.0
-0.0154541 0.0403151 0.0
-0.0144843 0.0369799 0.0
-0.0136069 0.0338397 0.0
-0.0128124 0.0308779 0.0
-0.0120927 0.0280792 0.0
-0.0114403 0.0254295 0.0
-0.010848 0.022916 0.0
-0.0103085 0.0205273 0.0
-0.00981405 0.0182534 0.0
-0.00935587 0.0160857 0.0
-0.00892354 0.0140177 0.0
-0.00850419 0.0120448 0.0
-0.00808164 0.0101653 0.0
-0.00763531 0.00838088 0.0
-0.00713918 0.00669761 0.0
-0.00656085 0.00512695 0.0
-0.00586117 0.00368772 0.0
-0.004995 0.00240854 0.0
-0.00391423 0.00132609 0.0
-0.00257422 0.000497273 0.0
-0.000947511 7.77825e-05 0.0
0.783205 0.00774044 0.0
0.435606 0.0377366 0.0
0.2028 0.0804823 0.0
0.0595112 0.115816 0.0
-0.0233752 0.141255 0.0
-0.0674509 0.156717 0.0
-0.0881751 0.164145 0.0
-0.0953817 0.165646 0.0
-0.0950627 0.163046 0.0
-0.0907942 0.157767 0.0
-0.0846724 0.150851 0.0
-0.0778969 0.143031 0.0
-0.0711293 0.13481 0.0
-0.0647127 0.12652 0.0
-0.0588042 0.118376 0.0
-0.0534553 0.110508 0.0
-0.04866 0.10299 0.0
-0.0443833 0.0958621 0.0
-0.0405774 0.0891357 0.0
-0.037191 0.0828088 0.0
-0.0341747 0.0768696 0.0
-0.0314828 0.0713006 0.0
-0.0290749 0.0660815 0.0
-0.0269156 0.0611904 0.0
-0.0249743 0.0566054 0.0
-0.0232251 0.0523051 0.0
-0.0216458 0.0482687 0.0
-0.0202173 0.0444764 0.0
-0.0189237 0.0409096 0.0
-0.017751 0.0375505 0.0
-0.0166874 0.0343828 0.0
-0.0157224 0.0313909 0.0
-0.0148465 0.0285604 0.0
-0.014051 0.0258781 0.0
-0.0133276 0.0233317 0.0
-0.0126676 0.0209101 0.0
-0.0120619 0.0186035 0.0
-0.0115001 0.0164036 0.0
-0.0109697 0.0143036 0.0
-0.0104554 0.012299 0.0
-0.00993813 0.0103881 0.0
-0.00939333 0.00857216 0.0
-0.00879004 0.00685709 0.0
-0.00808936 0.0052543 0.0
-0.00724359 0.00378288 0.0
-0.00619618 0.0024724 0.0
-0.00488372 0.00136132 0.0
-0.00324128 0.00050961 0.0
-0.00121465 7.91919e-05 0.0
0.800882 0.00524526 0.0
0.470475 0.0287957 0.0
0.238603 0.0645756 0.0
0.0887514 0.0960227 0.0
-0.00277168 0.120213 0.0
-0.0551128 0.1365 0.0
-0.0824699 0.145745 0.0
-0.094595 0.149528 0.0
-0.0977202 0.149292 0.0
-0.0957397 0.146246 0.0
-0.0910462 0.141331 0.0
-0.0850823 0.135244 0.0
-0.0786969 0.128489 0.0
-0.0723711 0.12142 0.0
-0.0663616 0.114279 0.0
-0.0607903 0.10723 0.0
-0.0556998 0.100376 0.0
-0.0510883 0.0937825 0.0
-0.0469302 0.087486 0.0
-0.043189 0.0815036 0.0
-0.0398245 0.0758399 0.0
-0.0367971 0.0704909 0.0
-0.0340695 0.065447 0.0
-0.0316082 0.0606955 0.0
-0.0293835 0.0562215 0.0
-0.0273694 0.0520095 0.0
-0.0255433 0.0480431 0.0
-0.0238857 0.0443065 0.0
-0.0223798 0.0407837 0.0
-0.021011 0.0374597 0.0
-0.0197664 0.0343198 0.0
-0.0186346 0.03135 0.0
-0.0176053 0.0285371 0.0
-0.0166689 0.0258688 0.0
-0.0158159 0.0233336 0.0
-0.0150366 0.020921 0.0
-0.0143206 0.0186215 0.0
-0.0136558 0.016427 0.0
-0.013028 0.014331 0.0
-0.0124196 0.0123291 0.0
-0.0118084 0.0104193 0.0
-0.0111662 0.00860296 0.0
-0.0104569 0.00688571 0.0
-0.00963492 0.00527897 0.0
-0.00864359 0.00380204 0.0
-0.00741436 0.00248506 0.0
-0.00586776 0.00136753 0.0
-0.00391805 0.000510885 0.0
-0.0014846 7.88925e-05 0.0
0.814269 0.0036843 0.0
0.498832 0.0223796 0.0
0.269341 0.0522999 0.0
0.11523 0.0799743 0.0
0.0171845 0.102331 0.0
-0.0419864 0.118547 0.0
-0.0751771 0.128726 0.0
-0.0918688 0.134014 0.0
-0.0983695 0.135515 0.0
-0.0987723 0.134229 0.0
-0.0956861 0.130979 0.0
-0.0907462 0.126402 0.0
-0.0849583 0.120978 0.0
-0.0789254 0.11506 0.0
-0.072996 0.108901 0.0
-0.0673595 0.102681 0.0
-0.0621076 0.0965242 0.0
-0.0572735 0.0905133 0.0
-0.0528564 0.0847028 0.0
-0.0488371 0.0791257 0.0
-0.0451874 0.0738 0.0
-0.0418757 0.0687335 0.0
-0.0388702 0.0639263 0.0
-0.0361409 0.0593739 0.0
-0.0336602 0.0550682 0.0
-0.0314034 0.050999 0.0
-0.0293486 0.0471548 0.0
-0.0274766 0.0435232 0.0
-0.0257703 0.0400915 0.0
-0.0242149 0.036847 0.0
-0.022797 0.0337771 0.0
-0.0215049 0.0308695 0.0
-0.0203275 0.0281123 0.0
-0.0192544 0.0254943 0.0
-0.0182753 0.0230048 0.0
-0.0173797 0.020634 0.0
-0.0165558 0.0183729 0.0
-0.0157904 0.0162138 0.0
-0.0150674 0.0141505 0.0
-0.0143671 0.0121787 0.0
-0.0136642 0.0102963 0.0
-0.0129269 0.00850459 0.0
-0.0121139 0.00680928 0.0
-0.0111729 0.00522165 0.0
-0.0100381 0.00376104 0.0
-0.00862856 0.00245772 0.0
-0.00684869 0.0013515 0.0
-0.00459201 0.000503956 0.0
-0.00175246 7.74182e-05 0.0
0.824641 0.00268332 0.0
0.522048 0.0177007 0.0
0.295655 0.0427784 0.0
0.138899 0.0669922 0.0
0.0358654 0.0873727 0.0
-0.0287985 0.102904 0.0
-0.0670148 0.113398 0.0
-0.0878353 0.119587 0.0
-0.0975266 0.122301 0.0
-0.10029 0.122351 0.0
-0.0988833 0.120439 0.0
-0.0950902 0.117129 0.0
-0.0900439 0.112865 0.0
-0.0844513 0.107984 0.0
-0.0787423 0.102738 0.0
-0.0731686 0.0973115 0.0
-0.0678685 0.09184 0.0
-0.0629101 0.0864184 0.0
-0.058318 0.0811131 0.0
-0.0540919 0.0759687 0.0
-0.0502167 0.0710141 0.0
-0.0466707 0.0662664 0.0
-0.043429 0.0617341 0.0
-0.0404662 0.0574195 0.0
-0.0377583 0.0533207 0.0
-0.0352827 0.0494325 0.0
-0.033019 0.0457475 0.0
-0.0309489 0.042257 0.0
-0.0290559 0.0389511 0.0
-0.0273253 0.0358196 0.0
-0.0257438 0.0328519 0.0
-0.0242992 0.0300373 0.0
-0.0229804 0.0273654 0.0
-0.0217763 0.024826 0.0
-0.0206762 0.0224093 0.0
-0.0196685 0.0201063 0.0
-0.0187406 0.0179086 0.0
-0.017878 0.015809 0.0
-0.0170631 0.0138014 0.0
-0.0162738 0.0118817 0.0
-0.0154824 0.010048 0.0
-0.0146531 0.00830166 0.0
-0.0137397 0.00664811 0.0
-0.012683 0.00509857 0.0
-0.0114081 0.00367219 0.0
-0.00982183 0.00239896 0.0
-0.00781251 0.00131829 0.0
-0.00525353 0.000490838 0.0
-0.00201462 7.51054e-05 0.0
0.832845 0.00202127 0.0
0.541204 0.014224 0.0
0.318191 0.0353197 0.0
0.159925 0.056438 0.0
0.053118 0.0748357 0.0
-0.0159999 0.0894032 0.0
-0.0585014 0.0997956 0.0
-0.0829886 0.106439 0.0
-0.0956227 0.10995 0.0
-0.100647 0.110977 0.0
-0.100917 0.110105 0.0
-0.0983261 0.107828 0.0
-0.0941078 0.104545 0.0
-0.0890558 0.100568 0.0
-0.0836703 0.0961408 0.0
-0.0782583 0.0914457 0.0
-0.0730015 0.0866211 0.0
-0.0680009 0.0817685 0.0
-0.0633064 0.0769621 0.0
-0.0589362 0.0722546 0.0
-0.0548898 0.0676827 0.0
-0.0511557 0.0632707 0.0
-0.047717 0.0590338 0.0
-0.0445541 0.0549802 0.0
-0.0416471 0.0511129 0.0
-0.0389765 0.0474312 0.0
-0.036524 0.0439312 0.0
-0.0342729 0.0406076 0.0
-0.0322075 0.037453 0.0
-0.030314 0.0344595 0.0
-0.0285792 0.0316184 0.0
-0.0269913 0.0289206 0.0
-0.0255387 0.0263569 0.0
-0.0242104 0.0239184 0.0
-0.0229949 0.0215961 0.0
-0.0218803 0.0193818 0.0
-0.0208531 0.0172676 0.0
-0.0198976 0.0152468 0.0
-0.0189946 0.0133137 0.0
-0.0181203 0.0114645 0.0
-0.0172442 0.00969718 0.0
-0.0163267 0.00801319 0.0
-0.0153168 0.00641787 0.0
-0.0141487 0.00492219 0.0
-0.0127382 0.00354485 0.0
-0.0109805 0.00231516 0.0
-0.00874806 0.00127156 0.0
-0.00589507 0.000472925 0.0
-0.00226832 7.21646e-05 0.0
0.839449 0.00156834 0.0
0.557133 0.011592 0.0
0.337516 0.0294166 0.0
0.178512 0.0478116 0.0
0.0688593 0.0643109 0.0
-0.00385293 0.0777801 0.0
-0.0499894 0.0878135 0.0
-0.077697 0.0945935 0.0
-0.0930021 0.0985849 0.0
-0.100145 0.100295 0.0
-0.10204 0.100209 0.0
-0.100656 0.0987516 0.0
-0.0973077 0.0962761 0.0
-0.0928582 0.0930686 0.0
-0.0878669 0.0893559 0.0
-0.0826896 0.085315 0.0
-0.0775467 0.0810823 0.0
-0.0725697 0.0767617 0.0
-0.0678323 0.0724312 0.0
-0.0633715 0.0681486 0.0
-0.0592007 0.063956 0.0
-0.0553196 0.0598828 0.0
-0.0517195 0.0559494 0.0
-0.0483871 0.0521683 0.0
-0.0453073 0.0485467 0.0
-0.0424643 0.0450873 0.0
-0.0398425 0.0417897 0.0
-0.037427 0.0386509 0.0
-0.0352038 0.0356661 0.0
-0.0331598 0.0328292 0.0
-0.0312826 0.0301332 0.0
-0.0295606 0.0275705 0.0
-0.0279825 0.0251333 0.0
-0.0265371 0.0228133 0.0
-0.0252127 0.0206028 0.0
-0.0239969 0.018494 0.0
-0.0228755 0.0164798 0.0
-0.0218318 0.0145538 0.0
-0.0208453 0.0127109 0.0
-0.0198903 0.0109472 0.0
-0.0189336 0.00926106 0.0
-0.0179323 0.00765378 0.0
-0.0168306 0.00613055 0.0
-0.0155559 0.00470195 0.0
-0.0140157 0.00338602 0.0
-0.0120932 0.00221102 0.0
-0.00964633 0.00121393 0.0
-0.00651065 0.000451177 0.0
-0.0025114 6.87274e-05 0.0
0.844848 0.00124798 0.0
0.570476 0.00956512 0.0
0.354125 0.0246987 0.0
0.194898 0.0407244 0.0
0.083112 0.0554594 0.0
0.00752028 0.0677705 0.0
-0.0417009 0.0772906 0.0
-0.0722244 0.0839906 0.0
-0.0899313 0.0882247 0.0
-0.099031 0.0903852 0.0
-0.102467 0.0908715 0.0
-0.102264 0.0900462 0.0
-0.0997944 0.0882202 0.0
-0.0959786 0.0856512 0.0
-0.0914257 0.0825486 0.0
-0.0865332 0.0790796 0.0
-0.0815558 0.075376 0.0
-0.0766527 0.0715406 0.0
-0.0719198 0.0676528 0.0
-0.0674117 0.0637728 0.0
-0.0631557 0.0599458 0.0
-0.0591624 0.0562049 0.0
-0.0554316 0.0525737 0.0
-0.0519568 0.0490683 0.0
-0.048728 0.0456989 0.0
-0.0457334 0.042471 0.0
-0.0429604 0.0393866 0.0
-0.0403964 0.0364448 0.0
-0.0380291 0.0336429 0.0
-0.0358467 0.0309764 0.0
-0.0338378 0.0284397 0.0
-0.0319911 0.0260264 0.0
-0.0302959 0.0237298 0.0
-0.0287408 0.0215427 0.0
-0.0273142 0.019458 0.0
-0.0260032 0.0174686 0.0
-0.0247931 0.0155681 0.0
-0.0236664 0.0137504 0.0
-0.0226012 0.0120107 0.0
-0.02157 0.0103454 0.0
-0.0205375 0.00875301 0.0
-0.0194571 0.00723464 0.0
-0.0182685 0.00579528 0.0
-0.0168931 0.00444499 0.0
-0.0152297 0.00320094 0.0
-0.0131508 0.00208999 0.0
-0.0104999 0.00114728 0.0
-0.00709537 0.000426258 0.0
-0.00274211 6.48769e-05 0.0
0.849318 0.00101418 0.0
0.581736 0.00797942 0.0
0.368441 0.020893 0.0
0.209333 0.0348714 0.0
0.0959459 0.0479993 0.0
0.0179932 0.059196 0.0
-0.0337957 0.0680738 0.0
-0.0667656 0.074541 0.0
-0.086617 0.0788364 0.0
-0.0975059 0.0812611 0.0
-0.102384 0.0821423 0.0
-0.103312 0.0817884 0.0
-0.101706 0.0804707 0.0
-0.0985322 0.0784197 0.0
-0.0944403 0.0758267 0.0
-0.0898635 0.0728474 0.0
-0.0850866 0.0696072 0.0
-0.0802935 0.0662058 0.0
-0.0756007 0.0627216 0.0
-0.0710788 0.0592154 0.0
-0.0667689 0.0557339 0.0
-0.0626918 0.0523123 0.0
-0.0588561 0.0489762 0.0
-0.0552619 0.0457439 0.0
-0.0519046 0.0426277 0.0
-0.0487766 0.0396352 0.0
-0.0458687 0.0367702 0.0
-0.0431706 0.0340334 0.0
-0.0406722 0.0314236 0.0
-0.0383629 0.0289376 0.0
-0.0362324 0.026571 0.0
-0.0342703 0.0243185 0.0
-0.0324661 0.0221741 0.0
-0.0308088 0.0201315 0.0
-0.0292867 0.0181842 0.0
-0.0278867 0.0163259 0.0
-0.0265936 0.0145505 0.0
-0.0253891 0.0128524 0.0
-0.0242502 0.0112272 0.0
-0.0231479 0.00967131 0.0
-0.0220443 0.00818337 0.0
-0.02089 0.00676443 0.0
-0.0196201 0.00541907 0.0
-0.0181502 0.00415673 0.0
-0.0163712 0.00299351 0.0
-0.0141452 0.0019546 0.0
-0.0113025 0.00107296 0.0
-0.00764511 0.00039863 0.0
-0.00295894 6.06667e-05 0.0
0.853062 0.000838343 0.0
0.5913 0.00671935 0.0
0.38082 0.0177906 0.0
0.22205 0.029999 0.0
0.107471 0.0416719 0.0
0.0275895 0.0518055 0.0
-0.0263695 0.0599992 0.0
-0.0614625 0.0661304 0.0
-0.0832193 0.0703521 0.0
-0.0957317 0.0728948 0.0
-0.101945 0.074026 0.0
-0.10394 0.074007 0.0
-0.103166 0.073074 0.0
-0.100625 0.0714323 0.0
-0.0969998 0.0692553 0.0
-0.092754 0.0666871 0.0
-0.0881983 0.0638454 0.0
-0.083539 0.0608255 0.0
-0.0789108 0.0577034 0.0
-0.0743997 0.0545391 0.0
-0.0700591 0.0513794 0.0
-0.0659204 0.04826 0.0
-0.0620001 0.0452077 0.0
-0.0583053 0.042242 0.0
-0.0548367 0.0393765 0.0
-0.0515909 0.0366199 0.0
-0.0485621 0.0339772 0.0
-0.0457429 0.0314504 0.0
-0.0431249 0.0290391 0.0
-0.0406992 0.0267412 0.0
-0.0384568 0.0245531 0.0
-0.036388 0.0224703 0.0
-0.0344828 0.0204874 0.0
-0.0327306 0.018599 0.0
-0.0311197 0.016799 0.0
-0.0296369 0.0150815 0.0
-0.0282665 0.0134411 0.0
-0.0269896 0.0118724 0.0
-0.0257822 0.0103713 0.0
-0.0246137 0.00893438 0.0
-0.0234442 0.00756029 0.0
-0.0222213 0.0062499 0.0
-0.0208761 0.00500737 0.0
-0.0193186 0.00384136 0.0
-0.0174324 0.00276673 0.0
-0.0150697 0.00180677 0.0
-0.0120488 0.000991968 0.0
-0.00815633 0.000368631 0.0
-0.00316061 5.6133e-05 0.0
0.856226 0.00070237 0.0
0.599471 0.00570298 0.0
0.391555 0.0152345 0.0
0.233252 0.0259101 0.0
0.117788 0.0362725 0.0
0.0363221 0.0454047 0.0
-0.0194768 0.0529059 0.0
-0.0564132 0.0586359 0.0
-0.0798591 0.0626864 0.0
-0.0938374 0.065234 0.0
-0.101276 0.0664977 0.0