# vtk DataFile Version 3.0
Malha 2D com triângulos e temperatura
ASCII
DATASET UNSTRUCTURED_GRID

POINTS 2500 double
0 0 0
1 0 0
1 1 0
0 1 0
0.0204082 0 0
0.0408163 0 0
0.0612245 0 0
0.0816327 0 0
0.102041 0 0
0.122449 0 0
0.142857 0 0
0.163265 0 0
0.183673 0 0
0.204082 0 0
0.22449 0 0
0.244898 0 0
0.265306 0 0
0.285714 0 0
0.306122 0 0
0.326531 0 0
0.346939 0 0
0.367347 0 0
0.387755 0 0
0.408163 0 0
0.428571 0 0
0.44898 0 0
0.469388 0 0
0.489796 0 0
0.510204 0 0
0.530612 0 0
0.55102 0 0
0.571429 0 0
0.591837 0 0
0.612245 0 0
0.632653 0 0
0.653061 0 0
0.673469 0 0
0.693878 0 0
0.714286 0 0
0.734694 0 0
0.755102 0 0
0.77551 0 0
0.795918 0 0
0.816327 0 0
0.836735 0 0
0.857143 0 0
0.877551 0 0
0.897959 0 0
0.918367 0 0
0.938776 0 0
0.959184 0 0
0.979592 0 0
1 0.0204082 0
1 0.0408163 0
1 0.0612245 0
1 0.0816327 0
1 0.102041 0
1 0.122449 0
1 0.142857 0
1 0.163265 0
1 0.183673 0
1 0.204082 0
1 0.22449 0
1 0.244898 0
1 0.265306 0
1 0.285714 0
1 0.306122 0
1 0.326531 0
1 0.346939 0
1 0.367347 0
1 0.387755 0
1 0.408163 0
1 0.428571 0
1 0.44898 0
1 0.469388 0
1 0.489796 0
1 0.510204 0
1 0.530612 0
1 0.55102 0
1 0.571429 0
1 0.591837 0
1 0.612245 0
1 0.632653 0
1 0.653061 0
1 0.673469 0
1 0.693878 0
1 0.714286 0
1 0.734694 0
1 0.755102 0
1 0.77551 0
1 0.795918 0
1 0.816327 0
1 0.836735 0
1 0.857143 0
1 0.877551 0
1 0.897959 0
1 0.918367 0
1 0.938776 0
1 0.959184 0
1 0.979592 0
0.979592 1 0
0.959184 1 0
0.938776 1 0
0.918367 1 0
0.897959 1 0
0.877551 1 0
0.857143 1 0
0.836735 1 0
0.816327 1 0
0.795918 1 0
0.77551 1 0
0.755102 1 0
0.734694 1 0
0.714286 1 0
0.693878 1 0
0.673469 1 0
0.653061 1 0
0.632653 1 0
0.612245 1 0
0.591837 1 0
0.571429 1 0
0.55102 1 0
0.530612 1 0
0.510204 1 0
0.489796 1 0
0.469388 1 0
0.44898 1 0
0.428571 1 0
0.408163 1 0
0.387755 1 0
0.367347 1 0
0.346939 1 0
0.326531 1 0
0.306122 1 0
0.285714 1 0
0.265306 1 0
0.244898 1 0
0.22449 1 0
0.204082 1 0
0.183673 1 0
0.163265 1 0
0.142857 1 0
0.122449 1 0
0.102041 1 0
0.0816327 1 0
0.0612245 1 0
0.0408163 1 0
0.0204082 1 0
0 0.979592 0
0 0.959184 0
0 0.938776 0
0 0.918367 0
0 0.897959 0
0 0.877551 0
0 0.857143 0
0 0.836735 0
0 0.816327 0
0 0.795918 0
0 0.77551 0
0 0.755102 0
0 0.734694 0
0 0.714286 0
0 0.693878 0
0 0.673469 0
0 0.653061 0
0 0.632653 0
0 0.612245 0
0 0.591837 0
0 0.571429 0
0 0.55102 0
0 0.530612 0
0 0.510204 0
0 0.489796 0
0 0.469388 0
0 0.44898 0
0 0.428571 0
0 0.408163 0
0 0.387755 0
0 0.367347 0
0 0.346939 0
0 0.326531 0
0 0.306122 0
0 0.285714 0
0 0.265306 0
0 0.244898 0
0 0.22449 0
0 0.204082 0
0 0.183673 0
0 0.163265 0
0 0.142857 0
0 0.122449 0
0 0.102041 0
0 0.0816327 0
0 0.0612245 0
0 0.0408163 0
0 0.0204082 0
0.0204082 0.979592 0
0.0204082 0.959184 0
0.0204082 0.938776 0
0.0204082 0.918367 0
0.0204082 0.897959 0
0.0204082 0.877551 0
0.0204082 0.857143 0
0.0204082 0.836735 0
0.0204082 0.816327 0
0.0204082 0.795918 0
0.0204082 0.77551 0
0.0204082 0.755102 0
0.0204082 0.734694 0
0.0204082 0.714286 0
0.0204082 0.693878 0
0.0204082 0.673469 0
0.0204082 0.653061 0
0.0204082 0.632653 0
0.0204082 0.612245 0
0.0204082 0.591837 0
0.0204082 0.571429 0
0.0204082 0.55102 0
0.0204082 0.530612 0
0.0204082 0.510204 0
0.0204082 0.489796 0
0.0204082 0.469388 0
0.0204082 0.44898 0
0.0204082 0.428571 0
0.0204082 0.408163 0
0.0204082 0.387755 0
0.0204082 0.367347 0
0.0204082 0.346939 0
0.0204082 0.326531 0
0.0204082 0.306122 0
0.0204082 0.285714 0
0.0204082 0.265306 0
0.0204082 0.244898 0
0.0204082 0.22449 0
0.0204082 0.204082 0
0.0204082 0.183673 0
0.0204082 0.163265 0
0.0204082 0.142857 0
0.0204082 0.122449 0
0.0204082 0.102041 0
0.0204082 0.0816327 0
0.0204082 0.0612245 0
0.0204082 0.0408163 0
0.0204082 0.0204082 0
0.0408163 0.979592 0
0.0408163 0.959184 0
0.0408163 0.938776 0
0.0408163 0.918367 0
0.0408163 0.897959 0
0.0408163 0.877551 0
0.0408163 0.857143 0
0.0408163 0.836735 0
0.0408163 0.816327 0
0.0408163 0.795918 0
0.0408163 0.77551 0
0.0408163 0.755102 0
0.0408163 0.734694 0
0.0408163 0.714286 0
0.0408163 0.693878 0
0.0408163 0.673469 0
0.0408163 0.653061 0
0.0408163 0.632653 0
0.0408163 0.612245 0
0.0408163 0.591837 0
0.0408163 0.571429 0
0.0408163 0.55102 0
0.0408163 0.530612 0
0.0408163 0.510204 0
0.0408163 0.489796 0
0.0408163 0.469388 0
0.0408163 0.44898 0
0.0408163 0.428571 0
0.0408163 0.408163 0
0.0408163 0.387755 0
0.0408163 0.367347 0
0.0408163 0.346939 0
0.0408163 0.326531 0
0.0408163 0.306122 0
0.0408163 0.285714 0
0.0408163 0.265306 0
0.0408163 0.244898 0
0.0408163 0.22449 0
0.0408163 0.204082 0
0.0408163 0.183673 0
0.0408163 0.163265 0
0.0408163 0.142857 0
0.0408163 0.122449 0
0.0408163 0.102041 0
0.0408163 0.0816327 0
0.0408163 0.0612245 0
0.0408163 0.0408163 0
0.0408163 0.0204082 0
0.0612245 0.979592 0
0.0612245 0.959184 0
0.0612245 0.938776 0
0.0612245 0.918367 0
0.0612245 0.897959 0
0.0612245 0.877551 0
0.0612245 0.857143 0
0.0612245 0.836735 0
0.0612245 0.816327 0
0.0612245 0.795918 0
0.0612245 0.77551 0
0.0612245 0.755102 0
0.0612245 0.734694 0
0.0612245 0.714286 0
0.0612245 0.693878 0
0.0612245 0.673469 0
0.0612245 0.653061 0
0.0612245 0.632653 0
0.0612245 0.612245 0
0.0612245 0.591837 0
0.0612245 0.571429 0
0.0612245 0.55102 0
0.0612245 0.530612 0
0.0612245 0.510204 0
0.0612245 0.489796 0
0.0612245 0.469388 0
0.0612245 0.44898 0
0.0612245 0.428571 0
0.0612245 0.408163 0
0.0612245 0.387755 0
0.0612245 0.367347 0
0.0612245 0.346939 0
0.0612245 0.326531 0
0.0612245 0.306122 0
0.0612245 0.285714 0
0.0612245 0.265306 0
0.0612245 0.244898 0
0.0612245 0.22449 0
0.0612245 0.204082 0
0.0612245 0.183673 0
0.0612245 0.163265 0
0.0612245 0.142857 0
0.0612245 0.122449 0
0.0612245 0.102041 0
0.0612245 0.0816327 0
0.0612245 0.0612245 0
0.0612245 0.0408163 0
0.0612245 0.0204082 0
0.0816327 0.979592 0
0.0816327 0.959184 0
0.0816327 0.938776 0
0.0816327 0.918367 0
0.0816327 0.897959 0
0.0816327 0.877551 0
0.0816327 0.857143 0
0.0816327 0.836735 0
0.0816327 0.816327 0
0.0816327 0.795918 0
0.0816327 0.77551 0
0.0816327 0.755102 0
0.0816327 0.734694 0
0.0816327 0.714286 0
0.0816327 0.693878 0
0.0816327 0.673469 0
0.0816327 0.653061 0
0.0816327 0.632653 0
0.0816327 0.612245 0
0.0816327 0.591837 0
0.0816327 0.571429 0
0.0816327 0.55102 0
0.0816327 0.530612 0
0.0816327 0.510204 0
0.0816327 0.489796 0
0.0816327 0.469388 0
0.0816327 0.44898 0
0.0816327 0.428571 0
0.0816327 0.408163 0
0.0816327 0.387755 0
0.0816327 0.367347 0
0.0816327 0.346939 0
0.0816327 0.326531 0
0.0816327 0.306122 0
0.0816327 0.285714 0
0.0816327 0.265306 0
0.0816327 0.244898 0
0.0816327 0.22449 0
0.0816327 0.204082 0
0.0816327 0.183673 0
0.0816327 0.163265 0
0.0816327 0.142857 0
0.0816327 0.122449 0
0.0816327 0.102041 0
0.0816327 0.0816327 0
0.0816327 0.0612245 0
0.0816327 0.0408163 0
0.0816327 0.0204082 0
0.102041 0.979592 0
0.102041 0.959184 0
0.102041 0.938776 0
0.102041 0.918367 0
0.102041 0.897959 0
0.102041 0.877551 0
0.102041 0.857143 0
0.102041 0.836735 0
0.102041 0.816327 0
0.102041 0.795918 0
0.102041 0.77551 0
0.102041 0.755102 0
0.102041 0.734694 0
0.102041 0.714286 0
0.102041 0.693878 0
0.102041 0.673469 0
0.102041 0.653061 0
0.102041 0.632653 0
0.102041 0.612245 0
0.102041 0.591837 0
0.102041 0.571429 0
0.102041 0.55102 0
0.102041 0.530612 0
0.102041 0.510204 0
0.102041 0.489796 0
0.102041 0.469388 0
0.102041 0.44898 0
0.102041 0.428571 0
0.102041 0.408163 0
0.102041 0.387755 0
0.102041 0.367347 0
0.102041 0.346939 0
0.102041 0.326531 0
0.102041 0.306122 0
0.102041 0.285714 0
0.102041 0.265306 0
0.102041 0.244898 0
0.102041 0.22449 0
0.102041 0.204082 0
0.102041 0.183673 0
0.102041 0.163265 0
0.102041 0.142857 0
0.102041 0.122449 0
0.102041 0.102041 0
0.102041 0.0816327 0
0.102041 0.0612245 0
0.102041 0.0408163 0
0.102041 0.0204082 0
0.122449 0.979592 0
0.122449 0.959184 0
0.122449 0.938776 0
0.122449 0.918367 0
0.122449 0.897959 0
0.122449 0.877551 0
0.122449 0.857143 0
0.122449 0.836735 0
0.122449 0.816327 0
0.122449 0.795918 0
0.122449 0.77551 0
0.122449 0.755102 0
0.122449 0.734694 0
0.122449 0.714286 0
0.122449 0.693878 0
0.122449 0.673469 0
0.122449 0.653061 0
0.122449 0.632653 0
0.122449 0.612245 0
0.122449 0.591837 0
0.122449 0.571429 0
0.122449 0.55102 0
0.122449 0.530612 0
0.122449 0.510204 0
0.122449 0.489796 0
0.122449 0.469388 0
0.122449 0.44898 0
0.122449 0.428571 0
0.122449 0.408163 0
0.122449 0.387755 0
0.122449 0.367347 0
0.122449 0.346939 0
0.122449 0.326531 0
0.122449 0.306122 0
0.122449 0.285714 0
0.122449 0.265306 0
0.122449 0.244898 0
0.122449 0.22449 0
0.122449 0.204082 0
0.122449 0.183673 0
0.122449 0.163265 0
0.122449 0.142857 0
0.122449 0.122449 0
0.122449 0.102041 0
0.122449 0.0816327 0
0.122449 0.0612245 0
0.122449 0.0408163 0
0.122449 0.0204082 0
0.142857 0.979592 0
0.142857 0.959184 0
0.142857 0.938776 0
0.142857 0.918367 0
0.142857 0.897959 0
0.142857 0.877551 0
0.142857 0.857143 0
0.142857 0.836735 0
0.142857 0.816327 0
0.142857 0.795918 0
0.142857 0.77551 0
0.142857 0.755102 0
0.142857 0.734694 0
0.142857 0.714286 0
0.142857 0.693878 0
0.142857 0.673469 0
0.142857 0.653061 0
0.142857 0.632653 0
0.142857 0.612245 0
0.142857 0.591837 0
0.142857 0.571429 0
0.142857 0.55102 0
0.142857 0.530612 0
0.142857 0.510204 0
0.142857 0.489796 0
0.142857 0.469388 0
0.142857 0.44898 0
0.142857 0.428571 0
0.142857 0.408163 0
0.142857 0.387755 0
0.142857 0.367347 0
0.142857 0.346939 0
0.142857 0.326531 0
0.142857 0.306122 0
0.142857 0.285714 0
0.142857 0.265306 0
0.142857 0.244898 0
0.142857 0.22449 0
0.142857 0.204082 0
0.142857 0.183673 0
0.142857 0.163265 0
0.142857 0.142857 0
0.142857 0.122449 0
0.142857 0.102041 0
0.142857 0.0816327 0
0.142857 0.0612245 0
0.142857 0.0408163 0
0.142857 0.0204082 0
0.163265 0.979592 0
0.163265 0.959184 0
0.163265 0.938776 0
0.163265 0.918367 0
0.163265 0.897959 0
0.163265 0.877551 0
0.163265 0.857143 0
0.163265 0.836735 0
0.163265 0.816327 0
0.163265 0.795918 0
0.163265 0.77551 0
0.163265 0.755102 0
0.163265 0.734694 0
0.163265 0.714286 0
0.163265 0.693878 0
0.163265 0.673469 0
0.163265 0.653061 0
0.163265 0.632653 0
0.163265 0.612245 0
0.163265 0.591837 0
0.163265 0.571429 0
0.163265 0.55102 0
[...]
CELL_DATA 2401
VECTORS velocity double
0.257589 0.157308 0.0
-0.00244395 0.264727 0.0
-0.0319578 0.206402 0.0
-0.0250525 0.152253 0.0
-0.0158298 0.115322 0.0
-0.00960399 0.0902685 0.0
-0.00595956 0.073138 0.0
-0.00388427 0.0610511 0.0
-0.00268191 0.0521645 0.0
-0.00195674 0.0453698 0.0
-0.00149661 0.0399949 0.0
-0.00118913 0.0356209 0.0
-0.000973706 0.0319776 0.0
-0.000816598 0.0288842 0.0
-0.000698146 0.0262156 0.0
-0.000606355 0.0238826 0.0
-0.000533569 0.0218198 0.0
-0.000474701 0.0199783 0.0
-0.000426256 0.0183207 0.0
-0.000385764 0.0168181 0.0
-0.000351441 0.0154476 0.0
-0.000321978 0.0141912 0.0
-0.000296397 0.0130342 0.0
-0.000273963 0.0119646 0.0
-0.000254116 0.0109725 0.0
-0.000236427 0.0100496 0.0
-0.000220564 0.00918876 0.0
-0.000206268 0.008384 0.0
-0.000193333 0.00763003 0.0
-0.000181592 0.00692224 0.0
-0.000170906 0.00625656 0.0
-0.000161155 0.0056294 0.0
-0.000152227 0.00503759 0.0
-0.000144014 0.00447838 0.0
-0.000136402 0.00394941 0.0
-0.000129267 0.00344881 0.0
-0.000122463 0.00297515 0.0
-0.000115817 0.00252762 0.0
-0.000109115 0.00210603 0.0
-0.000102092 0.00171101 0.0
-9.44129e-05 0.00134415 0.0
-8.56583e-05 0.00100814 0.0
-7.53023e-05 0.00070699 0.0
-6.27108e-05 0.000446155 0.0
-4.71901e-05 0.000232593 0.0
-2.82449e-05 7.44541e-05 0.0
-6.38434e-06 -2.0306e-05 0.0
1.50868e-05 -4.87661e-05 0.0
2.33735e-05 -2.33023e-05 0.0
0.341068 0.123159 0.0
0.000307501 0.250444 0.0
-0.0639732 0.273864 0.0
-0.0620879 0.255509 0.0
-0.0477745 0.225764 0.0
-0.0348081 0.196097 0.0
-0.0253713 0.170213 0.0
-0.0188854 0.148633 0.0
-0.014458 0.130843 0.0
-0.01139 0.116126 0.0
-0.00921115 0.103828 0.0
-0.00762096 0.0934244 0.0
-0.00642914 0.0845105 0.0
-0.00551387 0.0767812 0.0
-0.00479553 0.0700056 0.0
-0.00422078 0.0640077 0.0
-0.00375298 0.0586521 0.0
-0.00336632 0.0538336 0.0
-0.00304227 0.0494691 0.0
-0.00276721 0.0454929 0.0
-0.00253104 0.0418518 0.0
-0.0023261 0.0385028 0.0
-0.00214659 0.0354106 0.0
-0.00198802 0.0325457 0.0
-0.0018469 0.0298836 0.0
-0.00172051 0.0274034 0.0
-0.00160671 0.0250872 0.0
-0.00150378 0.0229196 0.0
-0.00141033 0.0208871 0.0
-0.00132521 0.0189777 0.0
-0.00124744 0.0171811 0.0
-0.00117615 0.0154878 0.0
-0.00111052 0.0138898 0.0
-0.00104977 0.0123799 0.0
-0.000993055 0.0109523 0.0
-0.000939475 0.0096021 0.0
-0.000888007 0.00832583 0.0
-0.000837465 0.00712148 0.0
-0.000786459 0.0059887 0.0
-0.000733345 0.00492909 0.0
-0.000676199 0.0039465 0.0
-0.000612801 0.00304721 0.0
-0.000540695 0.00224017 0.0
-0.000457373 0.00153691 0.0
-0.000360791 0.000951013 0.0
-0.000250673 0.000496762 0.0
-0.000131506 0.000185363 0.0
-1.78982e-05 1.85584e-05 0.0
4.8559e-05 -1.46472e-05 0.0
0.501767 0.077086 0.0
0.101126 0.184482 0.0
-0.0369064 0.251789 0.0
-0.0713447 0.269314 0.0
-0.0707883 0.261461 0.0
-0.060798 0.243388 0.0
-0.0499167 0.222292 0.0
-0.0405768 0.201497 0.0
-0.0331522 0.182331 0.0
-0.0273986 0.165164 0.0
-0.0229552 0.149957 0.0
-0.0195002 0.136516 0.0
-0.0167825 0.12461 0.0
-0.014616 0.114016 0.0
-0.0128648 0.104541 0.0
-0.0114303 0.0960183 0.0
-0.01024 0.0883109 0.0
-0.00924033 0.0813048 0.0
-0.00839126 0.0749061 0.0
-0.00766246 0.0690369 0.0
-0.00703073 0.0636324 0.0
-0.00647819 0.0586386 0.0
-0.00599093 0.0540101 0.0
-0.00555807 0.0497084 0.0
-0.00517102 0.0457006 0.0
-0.00482299 0.0419583 0.0
-0.00450853 0.038457 0.0
-0.00422325 0.0351751 0.0
-0.00396353 0.0320937 0.0
-0.00372634 0.0291958 0.0
-0.00350907 0.0264665 0.0
-0.00330937 0.0238925 0.0
-0.00312502 0.021462 0.0
-0.00295382 0.019165 0.0
-0.0027935 0.0169927 0.0
-0.00264155 0.0149383 0.0
-0.00249522 0.0129968 0.0
-0.0023513 0.0111652 0.0
-0.00220615 0.00944288 0.0
-0.00205555 0.00783202 0.0
-0.00189471 0.00633764 0.0
-0.00171839 0.00496799 0.0
-0.00152113 0.00373453 0.0
-0.00129793 0.00265166 0.0
-0.00104562 0.00173584 0.0
-0.000765571 0.00100381 0.0
-0.000469031 0.00046789 0.0
-0.000184972 0.000132173 0.0
1.91449e-05 7.17587e-06 0.0
0.611682 0.04833 0.0
0.198904 0.13514 0.0
0.0149352 0.211604 0.0
-0.0554401 0.24928 0.0
-0.0751855 0.259694 0.0
-0.0749697 0.255295 0.0
-0.0678766 0.243239 0.0
-0.0592373 0.227843 0.0
-0.0510587 0.211499 0.0
-0.0439605 0.195434 0.0
-0.0380131 0.180224 0.0
-0.0330946 0.166096 0.0
-0.0290361 0.153096 0.0
-0.0256755 0.141182 0.0
-0.0228752 0.130272 0.0
-0.0205235 0.120274 0.0
-0.0185317 0.111094 0.0
-0.0168301 0.102647 0.0
-0.0153639 0.0948538 0.0
-0.01409 0.0876463 0.0
-0.0129743 0.080964 0.0
-0.0119899 0.0747544 0.0
-0.0111152 0.0689716 0.0
-0.0103332 0.0635756 0.0
-0.00963014 0.0585315 0.0
-0.00899498 0.0538083 0.0
-0.00841876 0.0493788 0.0
-0.00789414 0.0452185 0.0
-0.00741501 0.0413057 0.0
-0.0069762 0.0376207 0.0
-0.00657315 0.0341461 0.0
-0.00620172 0.030866 0.0
-0.00585798 0.0277665 0.0
-0.00553797 0.0248355 0.0
-0.00523757 0.0220625 0.0
-0.0049523 0.0194392 0.0
-0.00467717 0.0169596 0.0
-0.00440651 0.0146198 0.0
-0.00413386 0.012419 0.0
-0.00385193 0.0103594 0.0
-0.0035526 0.00844633 0.0
-0.00322721 0.0066889 0.0
-0.00286708 0.00509951 0.0
-0.00246469 0.00369369 0.0
-0.00201578 0.00248915 0.0
-0.00152313 0.00150441 0.0
-0.00100308 0.000753867 0.0
-0.000494016 0.000248178 0.0
-7.62265e-05 2.89465e-05 0.0
0.68269 0.0303919 0.0
0.282539 0.0990629 0.0
0.0736838 0.172409 0.0
-0.0249505 0.218905 0.0
-0.0652632 0.241531 0.0
-0.0776881 0.248295 0.0
-0.0776151 0.24514 0.0
-0.0724485 0.236264 0.0
-0.0656374 0.224393 0.0
-0.05872 0.211203 0.0
-0.0523231 0.197683 0.0
-0.0466496 0.184394 0.0
-0.0417139 0.171637 0.0
-0.0374545 0.159556 0.0
-0.0337853 0.148204 0.0
-0.0306193 0.137583 0.0
-0.0278771 0.127667 0.0
-0.0254901 0.118416 0.0
-0.0234005 0.109785 0.0
-0.0215605 0.101727 0.0
-0.0199304 0.0941982 0.0
-0.0184779 0.0871562 0.0
-0.0171765 0.0805625 0.0
-0.0160046 0.0743817 0.0
-0.0149444 0.0685815 0.0
-0.0139814 0.0631328 0.0
-0.0131037 0.0580086 0.0
-0.0123014 0.0531848 0.0
-0.0115661 0.048639 0.0
-0.0108905 0.0443509 0.0
-0.0102681 0.0403019 0.0
-0.00969298 0.0364753 0.0
-0.00915941 0.0328561 0.0
-0.00866155 0.0294308 0.0
-0.00819325 0.0261883 0.0
-0.00774783 0.0231193 0.0
-0.00731785 0.0202169 0.0
-0.00689489 0.0174769 0.0
-0.00646948 0.0148978 0.0
-0.00603098 0.0124816 0.0
-0.00556777 0.0102337 0.0
-0.0050676 0.00816304 0.0
-0.00451846 0.00628236 0.0
-0.00391009 0.00460752 0.0
-0.00323659 0.00315716 0.0
-0.00250075 0.00195189 0.0
-0.00172063 0.00100969 0.0
-0.000937535 0.000350138 0.0
-0.000232415 4.70321e-05 0.0
0.732462 0.0193217 0.0
0.35349 0.0734568 0.0
0.131956 0.139668 0.0
0.013011 0.187878 0.0
-0.0459435 0.217637 0.0
-0.0715465 0.232244 0.0
-0.0800145 0.236322 0.0
-0.0800299 0.233451 0.0
-0.0761362 0.226254 0.0
-0.0706733 0.216532 0.0
-0.0648174 0.205477 0.0
-0.0591326 0.193859 0.0
-0.0538653 0.182162 0.0
-0.0490998 0.17068 0.0
-0.0448401 0.159585 0.0
-0.0410534 0.148972 0.0
-0.0376925 0.138883 0.0
-0.0347068 0.129331 0.0
-0.0320479 0.120311 0.0
-0.0296721 0.111805 0.0
-0.0275411 0.103789 0.0
-0.0256219 0.0962395 0.0
-0.0238864 0.0891282 0.0
-0.0223111 0.082429 0.0
-0.0208762 0.0761159 0.0
-0.0195653 0.0701641 0.0
-0.0183643 0.0645501 0.0
-0.0172615 0.0592518 0.0
-0.0162468 0.0542482 0.0
-0.0153113 0.0495198 0.0
-0.0144468 0.0450484 0.0
-0.0136458 0.0408172 0.0
-0.0129008 0.0368112 0.0
-0.0122041 0.0330166 0.0
-0.0115476 0.0294217 0.0
-0.0109224 0.0260169 0.0
-0.0103184 0.0227949 0.0
-0.0097245 0.0197507 0.0
-0.00912807 0.0168828 0.0
-0.00851508 0.0141926 0.0
-0.00787028 0.0116851 0.0
-0.00717775 0.00936905 0.0
-0.0064219 0.00725699 0.0
-0.00558926 0.0053651 0.0
-0.00467128 0.00371309 0.0
-0.00366872 0.00232418 0.0
-0.00259772 0.00122093 0.0
-0.00149663 0.000432371 0.0
-0.000438425 6.07382e-05 0.0
0.768559 0.0126099 0.0
0.412795 0.055591 0.0
0.18621 0.113755 0.0
0.0529467 0.160369 0.0
-0.0211936 0.193142 0.0
-0.0591507 0.212719 0.0
-0.0765305 0.222082 0.0
-0.0825902 0.224105 0.0
-0.0825995 0.22109 0.0
-0.0795219 0.214763 0.0
-0.0750102 0.206364 0.0
-0.0699733 0.196756 0.0
-0.0648981 0.186534 0.0
-0.0600334 0.176093 0.0
-0.0554944 0.165698 0.0
-0.0513221 0.155516 0.0
-0.0475178 0.145653 0.0
-0.0440623 0.13617 0.0
-0.0409275 0.1271 0.0
-0.0380822 0.118456 0.0
-0.0354955 0.11024 0.0
-0.0331391 0.102443 0.0
-0.0309871 0.0950532 0.0
-0.029017 0.0880552 0.0
-0.0272093 0.0814316 0.0
-0.0255472 0.0751639 0.0
-0.0240161 0.0692335 0.0
-0.0226035 0.0636218 0.0
-0.0212982 0.0583106 0.0
-0.0200903 0.0532822 0.0
-0.0189706 0.0485199 0.0
-0.0179302 0.0440076 0.0
-0.0169601 0.0397307 0.0
-0.016051 0.0356759 0.0
-0.0151929 0.0318314 0.0
-0.0143748 0.0281874 0.0
-0.0135841 0.0247363 0.0
-0.012807 0.0214731 0.0
-0.0120277 0.0183956 0.0
-0.0112288 0.0155047 0.0
-0.0103914 0.0128052 0.0
-0.00949578 0.0103053 0.0
-0.0085224 0.00801746 0.0
-0.00745392 0.00595826 0.0
-0.00627792 0.00414871 0.0
-0.004991 0.00261495 0.0
-0.00360412 0.00138432 0.0
-0.00214812 0.000494507 0.0
-0.000682613 7.04872e-05 0.0
0.795382 0.00851756 0.0
0.462171 0.0429923 0.0
0.235294 0.0934539 0.0
0.0923112 0.13698 0.0
0.00635304 0.17015 0.0
-0.0426882 0.192604 0.0
-0.0686993 0.20556 0.0
-0.0810769 0.211306 0.0
-0.0855146 0.211744 0.0
-0.0854236 0.208428 0.0
-0.0828398 0.202546 0.0
-0.0789727 0.194982 0.0
-0.0745348 0.186375 0.0
-0.0699394 0.177182 0.0
-0.0654196 0.167727 0.0
-0.0610998 0.158233 0.0
-0.0570396 0.148852 0.0
-0.0532604 0.139689 0.0
-0.0497622 0.13081 0.0
-0.0465329 0.122256 0.0
-0.043555 0.114052 0.0
-0.0408086 0.106208 0.0
-0.0382741 0.0987264 0.0
-0.0359329 0.0916039 0.0
-0.0337678 0.0848323 0.0
-0.0317636 0.0784007 0.0
-0.0299066 0.0722962 0.0
-0.0281846 0.0665046 0.0
-0.0265866 0.0610113 0.0
-0.0251022 0.055801 0.0
-0.0237216 0.050859 0.0
-0.0224351 0.0461706 0.0
-0.0212327 0.0417222 0.0
-0.0201036 0.0375009 0.0
-0.0190362 0.0334954 0.0
-0.0180175 0.0296959 0.0
-0.0170328 0.0260948 0.0
-0.0160654 0.0226867 0.0
-0.0150965 0.0194691 0.0
-0.0141056 0.0164426 0.0
-0.0130698 0.0136113 0.0
-0.0119655 0.0109833 0.0
-0.0107689 0.008571 0.0
-0.0094579 0.00639138 0.0
-0.00801507 0.0044669 0.0
-0.00643097 0.00282654 0.0
-0.00470881 0.00150207 0.0
-0.0028688 0.000538315 0.0
-0.000954324 7.69662e-05 0.0
0.815892 0.00597451 0.0
0.503431 0.0339489 0.0
0.279072 0.0775519 0.0
0.129715 0.11746 0.0
0.0345479 0.149718 0.0
-0.0238749 0.173363 0.0
-0.0578589 0.188588 0.0
-0.0764489 0.197005 0.0
-0.0855086 0.200145 0.0
-0.0887408 0.199342 0.0
-0.0884702 0.195687 0.0
-0.0861541 0.190027 0.0
-0.0827037 0.183008 0.0
-0.0786853 0.175111 0.0
-0.074447 0.166694 0.0
-0.0701985 0.158016 0.0
-0.0660623 0.149265 0.0
-0.0621055 0.140577 0.0
-0.058361 0.132046 0.0
-0.0548408 0.123738 0.0
-0.0515445 0.115697 0.0
-0.0484648 0.107951 0.0
-0.0455911 0.100517 0.0
-0.0429112 0.0934025 0.0
-0.0404126 0.086609 0.0
-0.0380834 0.0801331 0.0
-0.0359123 0.073968 0.0
-0.0338884 0.0681043 0.0
-0.0320019 0.0625311 0.0
-0.0302427 0.0572362 0.0
-0.0286011 0.0522069 0.0
-0.0270671 0.0474304 0.0
-0.0256299 0.0428939 0.0
-0.0242779 0.0385857 0.0
-0.022998 0.0344947 0.0
-0.0217754 0.0306115 0.0
-0.0205933 0.0269283 0.0
-0.0194327 0.0234397 0.0
-0.0182718 0.0201428 0.0
-0.0170866 0.0170378 0.0
-0.0158507 0.0141284 0.0
-0.014536 0.0114226 0.0
-0.0131142 0.00893255 0.0
-0.0115579 0.00667592 0.0
-0.00984327 0.00467644 0.0
-0.00795353 0.00296559 0.0
-0.00588227 0.00157878 0.0
-0.00363724 0.000566238 0.0
-0.00124435 8.08337e-05 0.0
0.831998 0.00435299 0.0
0.538134 0.0273274 0.0
0.317886 0.065013 0.0
0.164583 0.101232 0.0
0.062285 0.131911 0.0
-0.00390563 0.155628 0.0
-0.0450739 0.172157 0.0
-0.06955 0.182385 0.0
-0.0832029 0.187551 0.0
-0.089899 0.188765 0.0
-0.0921674 0.186991 0.0
-0.0916606 0.183017 0.0
-0.0894567 0.177463 0.0
-0.0862575 0.170813 0.0
-0.082518 0.163436 0.0
-0.0785304 0.155615 0.0
-0.0744798 0.14756 0.0
-0.0704809 0.139428 0.0
-0.0666023 0.131337 0.0
-0.0628828 0.123372 0.0
-0.0593424 0.115594 0.0
-0.0559888 0.108046 0.0
-0.0528229 0.100759 0.0
-0.0498411 0.0937489 0.0
-0.0470374 0.0870275 0.0
-0.0444047 0.0805984 0.0
-0.0419355 0.0744607 0.0
-0.0396216 0.0686098 0.0
-0.0374547 0.0630385 0.0
-0.0354264 0.0577376 0.0
-0.0335275 0.0526966 0.0
-0.0317481 0.0479043 0.0
-0.0300774 0.0433495 0.0
-0.0285029 0.039021 0.0
-0.0270105 0.0349084 0.0
-0.0255839 0.0310024 0.0
-0.0242046 0.0272955 0.0
-0.0228509 0.0237819 0.0
-0.0214985 0.0204585 0.0
-0.0201199 0.0173251 0.0
-0.018685 0.0143852 0.0
-0.0171614 0.0116463 0.0
-0.0155154 0.00912083 0.0
-0.0137139 0.0068267 0.0
-0.011726 0.00478877 0.0
-0.00952627 0.00304044 0.0
-0.00709767 0.00161982 0.0
-0.00443445 0.000580761 0.0
-0.00154495 8.26453e-05 0.0
0.844936 0.00328648 0.0
0.567534 0.0223773 0.0
0.352227 0.0550314 0.0
0.196723 0.0877271 0.0
0.088968 0.116505 0.0
0.0164026 0.139621 0.0
-0.0311267 0.156741 0.0
-0.0610614 0.168126 0.0
-0.079146 0.174758 0.0
-0.0893137 0.177541 0.0
-0.0942288 0.177308 0.0
-0.0956907 0.174772 0.0
-0.0949136 0.170516 0.0
-0.0927157 0.165008 0.0
-0.0896475 0.158617 0.0
-0.0860774 0.151634 0.0
-0.0822507 0.144283 0.0
-0.0783293 0.136737 0.0
-0.0744182 0.129128 0.0
-0.0705847 0.121559 0.0
-0.0668705 0.114103 0.0
-0.0633006 0.106817 0.0
-0.0598891 0.0997412 0.0
-0.0566425 0.0929032 0.0
-0.0535633 0.0863215 0.0
-0.0506504 0.0800064 0.0
-0.047901 0.0739626 0.0
-0.0453107 0.0681899 0.0
-0.0428742 0.0626845 0.0
-0.0405847 0.05744 0.0
-0.0384344 0.0524483 0.0
-0.0364142 0.0476995 0.0
-0.0345133 0.0431837 0.0
-0.032719 0.0388905 0.0
-0.0310165 0.0348099 0.0
-0.0293883 0.0309329 0.0
-0.0278139 0.027252 0.0
-0.0262697 0.0237612 0.0
-0.0247286 0.0204571 0.0
-0.0231598 0.0173393 0.0
-0.0215294 0.0144107 0.0
-0.0198004 0.0116787 0.0
-0.0179337 0.00915552 0.0
-0.0158898 0.00685942 0.0
-0.0136302 0.00481591 0.0
-0.0111201 0.00305963 0.0
-0.00833127 0.00163039 0.0
-0.00524407 0.000584131 0.0
-0.00184975 8.28444e-05 0.0
0.855532 0.00256109 0.0
0.592632 0.0186031 0.0
0.38262 0.0470098 0.0
0.226154 0.0764638 0.0
0.114247 0.103238 0.0
0.0363588 0.125448 0.0
-0.0166253 0.142577 0.0
-0.0515307 0.154622 0.0
-0.0738034 0.16226 0.0
-0.0873612 0.166223 0.0
-0.0949451 0.167217 0.0
-0.0984597 0.165876 0.0
-0.0992263 0.162736 0.0
-0.0981602 0.158239 0.0
-0.0958946 0.152745 0.0
-0.0928671 0.146545 0.0
-0.0893788 0.139869 0.0
-0.0856364 0.1329 0.0
-0.0817812 0.125782 0.0
-0.077909 0.118627 0.0
-0.0740846 0.111522 0.0
-0.0703511 0.104532 0.0
-0.0667371 0.0977085 0.0
-0.063261 0.0910858 0.0
-0.0599344 0.0846896 0.0
-0.0567638 0.0785362 0.0
-0.0537522 0.072635 0.0
-0.0508998 0.0669897 0.0
-0.0482046 0.0615997 0.0
-0.0456627 0.056461 0.0
-0.0432681 0.0515672 0.0
-0.0410127 0.0469101 0.0
-0.0388865 0.0424804 0.0
-0.0368767 0.0382686 0.0
-0.034968 0.0342651 0.0
-0.0331418 0.030461 0.0
-0.0313763 0.0268486 0.0
-0.0296457 0.0234218 0.0
-0.0279203 0.0201769 0.0
-0.0261663 0.0171129 0.0
-0.0243455 0.0142326 0.0
-0.0224165 0.0115428 0.0
-0.0203345 0.00905555 0.0
-0.0180533 0.00678912 0.0
-0.0155264 0.00476925 0.0
-0.0127095 0.00303108 0.0
-0.00956247 0.00161519 0.0
-0.00605222 0.000578261 0.0
-0.00215349 8.17723e-05 0.0
0.864353 0.00205033 0.0
0.614221 0.01567 0.0
0.409571 0.0404932 0.0
0.253023 0.0670125 0.0
0.138006 0.0917873 0.0
0.055715 0.112905 0.0
-0.00196842 0.129693 0.0
-0.0413764 0.142047 0.0
-0.0675545 0.150331 0.0
-0.0843658 0.155153 0.0
-0.0945821 0.157102 0.0
-0.100178 0.156731 0.0
-0.102556 0.154526 0.0
-0.10271 0.150901 0.0
-0.101344 0.146199 0.0
-0.0989555 0.140706 0.0
-0.0958972 0.134653 0.0
-0.0924175 0.128229 0.0
-0.0886922 0.121584 0.0
-0.0848457 0.114839 0.0
-0.0809657 0.10809 0.0
-0.0771145 0.101411 0.0
-0.0733361 0.0948592 0.0
-0.0696617 0.088477 0.0
-0.066113 0.0822957 0.0
-0.0627051 0.0763364 0.0
-0.0594476 0.0706126 0.0
-0.0563461 0.0651313 0.0
-0.0534029 0.0598944 0.0
-0.0506172 0.0549 0.0
-0.0479854 0.050143 0.0
-0.045501 0.0456165 0.0
-0.0431547 0.0413119 0.0
-0.0409343 0.03722 0.0
-0.0388241 0.0333315 0.0
-0.0368048 0.0296375 0.0
-0.0348531 0.0261301 0.0
-0.0329414 0.0228029 0.0
-0.0310374 0.0196518 0.0
-0.029104 0.0166754 0.0
-0.0270995 0.0138758 0.0
-0.0249773 0.0112595 0.0
-0.0226872 0.00883806 0.0
-0.0201759 0.00662935 0.0
-0.0173889 0.0046589 0.0
-0.0142719 0.00296168 0.0
-0.0107735 0.0015782 0.0
-0.00684711 0.000564705 0.0
-0.00245186 7.9685e-05 0.0
0.8718 0.00167872 0.0
0.632923 0.013351 0.0
0.433529 0.0351457 0.0
0.27751 0.0590377 0.0
0.160196 0.0818913 0.0
0.0742625 0.101833 0.0
0.012546 0.11806 0.0
-0.0309032 0.13045 0.0
-0.0606958 0.139109 0.0
-0.0805964 0.144533 0.0
-0.0933725 0.147205 0.0
-0.10104 0.147603 0.0
-0.105061 0.146166 0.0
-0.10649 0.143274 0.0
-0.106092 0.139254 0.0
-0.104415 0.134382 0.0
-0.101858 0.128887 0.0
-0.098707 0.122959 0.0
-0.0951718 0.116754 0.0
-0.0914037 0.110399 0.0
-0.0875134 0.103995 0.0
-0.0835826 0.0976248 0.0
-0.0796716 0.0913505 0.0
-0.0758248 0.0852207 0.0
-0.0720752 0.079271 0.0
-0.068447 0.0735267 0.0
-0.0649574 0.0680044 0.0
-0.0616181 0.0627137 0.0
-0.058436 0.0576587 0.0
-0.0554141 0.0528387 0.0
-0.0525515 0.0482498 0.0
-0.0498438 0.0438858 0.0
-0.0472829 0.0397385 0.0
-0.044857 0.035799 0.0
-0.0425504 0.0320577 0.0
-0.0403432 0.0285058 0.0
-0.0382109 0.0251349 0.0
-0.036124 0.0219384 0.0
-0.0340478 0.0189115 0.0
-0.0319422 0.0160523 0.0
-0.0297614 0.0133622 0.0
-0.0274542 0.0108471 0.0
-0.0249646 0.00851792 0.0
-0.0222324 0.00639176 0.0
-0.0191948 0.00449348 0.0
-0.015788 0.00285722 0.0
-0.0119492 0.00152265 0.0
-0.00761878 0.000544689 0.0
-0.00274125 7.6769e-05 0.0
0.87816 0.00140033 0.0
0.649236 0.0114897 0.0
0.454889 0.0307168 0.0
0.29982 0.0522721 0.0
0.180845 0.0733222 0.0
0.0918989 0.0920678 0.0
0.0266659 0.107638 0.0
-0.0203514 0.119836 0.0
-0.053465 0.12866 0.0
-0.0762763 0.134474 0.0
-0.091517 0.13767 0.0
-0.101221 0.138662 0.0
-0.106889 0.137839 0.0
-0.109624 0.13555 0.0
-0.110238 0.132103 0.0
-0.109325 0.127761 0.0
-0.107322 0.122751 0.0
-0.104552 0.117262 0.0
-0.101254 0.111453 0.0
-0.0976051 0.105456 0.0
-0.0937401 0.0993775 0.0
-0.0897597 0.0933037 0.0
-0.0857406 0.0873027 0.0
-0.0817415 0.0814274 0.0
-0.0778073 0.0757172 0.0
-0.0739718 0.0702004 0.0
-0.0702606 0.064896 0.0
-0.0666919 0.0598156 0.0
-0.0632781 0.0549644 0.0
-0.0600261 0.0503428 0.0
-0.0569382 0.0459476 0.0
-0.0540122 0.0417726 0.0
-0.0512415 0.0378099 0.0
-0.0486151 0.0340503 0.0
-0.0461172 0.0304842 0.0
-0.0437276 0.0271021 0.0
-0.0414205 0.0238954 0.0
-0.0391648 0.0208568 0.0
-0.0369234 0.017981 0.0
-0.0346532 0.0152653 0.0
-0.0323046 0.0127103 0.0
-0.0298216 0.0103211 0.0
-0.0271425 0.00810767 0.0
-0.0242003 0.00608612 0.0
-0.0209241 0.0042801 0.0
-0.0172407 0.00272238 0.0
-0.0130762 0.00145113 0.0
-0.00835867 0.000519151 0.0
-0.00301864 7.31564e-05 0.0
0.883649 0.00118626 0.0
0.663552 0.00997478 0.0
0.473995 0.0270147 0.0
0.320157 0.0464954 0.0
0.200022 0.0658689 0.0
0.108593 0.0834286 0.0
0.0403067 0.0982792 0.0
-0.00989436 0.110154 0.0
-0.0460529 0.118985 0.0
-0.0715912 0.125016 0.0
-0.089188 0.128573 0.0
-0.100875 0.130006 0.0
-0.108176 0.129659 0.0
-0.112229 0.127852 0.0
-0.113883 0.124871 0.0
-0.113768 0.12097 0.0
-0.112358 0.11637 0.0
-0.110006 0.111259 0.0
-0.106979 0.105798 0.0
-0.10348 0.100121 0.0
-0.0996667 0.0943388 0.0
-0.095658 0.0885426 0.0
-0.0915482 0.0828041 0.0
-0.0874106 0.0771792 0.0
-0.0833025 0.0717104 0.0
-0.0792684 0.0664279 0.0
-0.0753423 0.0613527 0.0
-0.0715498 0.0564971 0.0
-0.0679088 0.0518672 0.0
-0.0644309 0.0474638 0.0
-0.0611217 0.0432836 0.0
-0.0579815 0.0393203 0.0
-0.0550052 0.0355657 0.0
-0.0521827 0.0320102 0.0
-0.0494985 0.0286437 0.0
-0.0469319 0.0254561 0.0
-0.0444561 0.0224382 0.0
-0.0420383 0.0195819 0.0
-0.0396393 0.0168811 0.0
-0.0372128 0.0143324 0.0
-0.0347054 0.0119355 0.0
-0.0320568 0.00969428 0.0
-0.0291995 0.00761763 0.0
-0.0260598 0.00572035 0.0
-0.0225591 0.00402448 0.0
-0.018615 0.00256086 0.0
-0.014143 0.00136561 0.0
-0.00905936 0.000488791 0.0
-0.0032814 6.89368e-05 0.0
0.888427 0.00101781 0.0
0.676189 0.00872598 0.0
0.491136 0.0238928 0.0
0.338709 0.0415312 0.0
0.217805 0.0593561 0.0
0.124328 0.0757636 0.0
0.0533867 0.0898599 0.0
0.000359286 0.101311 0.0
-0.0385997 0.110039 0.0
-0.0666892 0.116155 0.0
-0.0865302 0.119937 0.0
-0.100138 0.12168 0.0
-0.109045 0.121687 0.0
-0.114415 0.120249 0.0
-0.117121 0.117636 0.0
-0.117828 0.114089 0.0
-0.117035 0.109824 0.0
-0.115126 0.105027 0.0
-0.112393 0.0998617 0.0
-0.109065 0.0944635 0.0