# vtk DataFile Version 3.0
Malha 2D com triângulos e temperatura
ASCII
DATASET UNSTRUCTURED_GRID

POINTS 961 double
0 0 0
1 0 0
1 1 0
0 1 0
0.0333333 0 0
0.0666667 0 0
0.1 0 0
0.133333 0 0
0.166667 0 0
0.2 0 0
0.233333 0 0
0.266667 0 0
0.3 0 0
0.333333 0 0
0.366667 0 0
0.4 0 0
0.433333 0 0
0.466667 0 0
0.5 0 0
0.533333 0 0
0.566667 0 0
0.6 0 0
0.633333 0 0
0.666667 0 0
0.7 0 0
0.733333 0 0
0.766667 0 0
0.8 0 0
0.833333 0 0
0.866667 0 0
0.9 0 0
0.933333 0 0
0.966667 0 0
1 0.0333333 0
1 0.0666667 0
1 0.1 0
1 0.133333 0
1 0.166667 0
1 0.2 0
1 0.233333 0
1 0.266667 0
1 0.3 0
1 0.333333 0
1 0.366667 0
1 0.4 0
1 0.433333 0
1 0.466667 0
1 0.5 0
1 0.533333 0
1 0.566667 0
1 0.6 0
1 0.633333 0
1 0.666667 0
1 0.7 0
1 0.733333 0
1 0.766667 0
1 0.8 0
1 0.833333 0
1 0.866667 0
1 0.9 0
1 0.933333 0
1 0.966667 0
0.966667 1 0
0.933333 1 0
0.9 1 0
0.866667 1 0
0.833333 1 0
0.8 1 0
0.766667 1 0
0.733333 1 0
0.7 1 0
0.666667 1 0
0.633333 1 0
0.6 1 0
0.566667 1 0
0.533333 1 0
0.5 1 0
0.466667 1 0
0.433333 1 0
0.4 1 0
0.366667 1 0
0.333333 1 0
0.3 1 0
0.266667 1 0
0.233333 1 0
0.2 1 0
0.166667 1 0
0.133333 1 0
0.1 1 0
0.0666667 1 0
0.0333333 1 0
0 0.966667 0
0 0.933333 0
0 0.9 0
0 0.866667 0
0 0.833333 0
0 0.8 0
0 0.766667 0
0 0.733333 0
0 0.7 0
0 0.666667 0
0 0.633333 0
0 0.6 0
0 0.566667 0
0 0.533333 0
0 0.5 0
0 0.466667 0
0 0.433333 0
0 0.4 0
0 0.366667 0
0 0.333333 0
0 0.3 0
0 0.266667 0
0 0.233333 0
0 0.2 0
0 0.166667 0
0 0.133333 0
0 0.1 0
0 0.0666667 0
0 0.0333333 0
0.0333333 0.0333333 0
0.0333333 0.0666667 0
0.0333333 0.1 0
0.0333333 0.133333 0
0.0333333 0.166667 0
0.0333333 0.2 0
0.0333333 0.233333 0
0.0333333 0.266667 0
0.0333333 0.3 0
0.0333333 0.333333 0
0.0333333 0.366667 0
0.0333333 0.4 0
0.0333333 0.433333 0
0.0333333 0.466667 0
0.0333333 0.5 0
0.0333333 0.533333 0
0.0333333 0.566667 0
0.0333333 0.6 0
0.0333333 0.633333 0
0.0333333 0.666667 0
0.0333333 0.7 0
0.0333333 0.733333 0
0.0333333 0.766667 0
0.0333333 0.8 0
0.0333333 0.833333 0
0.0333333 0.866667 0
0.0333333 0.9 0
0.0333333 0.933333 0
0.0333333 0.966667 0
0.0666667 0.0333333 0
0.0666667 0.0666667 0
0.0666667 0.1 0
0.0666667 0.133333 0
0.0666667 0.166667 0
0.0666667 0.2 0
0.0666667 0.233333 0
0.0666667 0.266667 0
0.0666667 0.3 0
0.0666667 0.333333 0
0.0666667 0.366667 0
0.0666667 0.4 0
0.0666667 0.433333 0
0.0666667 0.466667 0
0.0666667 0.5 0
0.0666667 0.533333 0
0.0666667 0.566667 0
0.0666667 0.6 0
0.0666667 0.633333 0
0.0666667 0.666667 0
0.0666667 0.7 0
0.0666667 0.733333 0
0.0666667 0.766667 0
0.0666667 0.8 0
0.0666667 0.833333 0
0.0666667 0.866667 0
0.0666667 0.9 0
0.0666667 0.933333 0
0.0666667 0.966667 0
0.1 0.0333333 0
0.1 0.0666667 0
0.1 0.1 0
0.1 0.133333 0
0.1 0.166667 0
0.1 0.2 0
0.1 0.233333 0
0.1 0.266667 0
0.1 0.3 0
0.1 0.333333 0
0.1 0.366667 0
0.1 0.4 0
0.1 0.433333 0
0.1 0.466667 0
0.1 0.5 0
0.1 0.533333 0
0.1 0.566667 0
0.1 0.6 0
0.1 0.633333 0
0.1 0.666667 0
0.1 0.7 0
0.1 0.733333 0
0.1 0.766667 0
0.1 0.8 0
0.1 0.833333 0
0.1 0.866667 0
0.1 0.9 0
0.1 0.933333 0
0.1 0.966667 0
0.133333 0.0333333 0
0.133333 0.0666667 0
0.133333 0.1 0
0.133333 0.133333 0
0.133333 0.166667 0
0.133333 0.2 0
0.133333 0.233333 0
0.133333 0.266667 0
0.133333 0.3 0
0.133333 0.333333 0
0.133333 0.366667 0
0.133333 0.4 0
0.133333 0.433333 0
0.133333 0.466667 0
0.133333 0.5 0
0.133333 0.533333 0
0.133333 0.566667 0
0.133333 0.6 0
0.133333 0.633333 0
0.133333 0.666667 0
0.133333 0.7 0
0.133333 0.733333 0
0.133333 0.766667 0
0.133333 0.8 0
0.133333 0.833333 0
0.133333 0.866667 0
0.133333 0.9 0
0.133333 0.933333 0
0.133333 0.966667 0
0.166667 0.0333333 0
0.166667 0.0666667 0
0.166667 0.1 0
0.166667 0.133333 0
0.166667 0.166667 0
0.166667 0.2 0
0.166667 0.233333 0
0.166667 0.266667 0
0.166667 0.3 0
0.166667 0.333333 0
0.166667 0.366667 0
0.166667 0.4 0
0.166667 0.433333 0
0.166667 0.466667 0
0.166667 0.5 0
0.166667 0.533333 0
0.166667 0.566667 0
0.166667 0.6 0
0.166667 0.633333 0
0.166667 0.666667 0
0.166667 0.7 0
0.166667 0.733333 0
0.166667 0.766667 0
0.166667 0.8 0
0.166667 0.833333 0
0.166667 0.866667 0
0.166667 0.9 0
0.166667 0.933333 0
0.166667 0.966667 0
0.2 0.0333333 0
0.2 0.0666667 0
0.2 0.1 0
0.2 0.133333 0
0.2 0.166667 0
0.2 0.2 0
0.2 0.233333 0
0.2 0.266667 0
0.2 0.3 0
0.2 0.333333 0
0.2 0.366667 0
0.2 0.4 0
0.2 0.433333 0
0.2 0.466667 0
0.2 0.5 0
0.2 0.533333 0
0.2 0.566667 0
0.2 0.6 0
0.2 0.633333 0
0.2 0.666667 0
0.2 0.7 0
0.2 0.733333 0
0.2 0.766667 0
0.2 0.8 0
0.2 0.833333 0
0.2 0.866667 0
0.2 0.9 0
0.2 0.933333 0
0.2 0.966667 0
0.233333 0.0333333 0
0.233333 0.0666667 0
0.233333 0.1 0
0.233333 0.133333 0
0.233333 0.166667 0
0.233333 0.2 0
0.233333 0.233333 0
0.233333 0.266667 0
0.233333 0.3 0
0.233333 0.333333 0
0.233333 0.366667 0
0.233333 0.4 0
0.233333 0.433333 0
0.233333 0.466667 0
0.233333 0.5 0
0.233333 0.533333 0
0.233333 0.566667 0
0.233333 0.6 0
0.233333 0.633333 0
0.233333 0.666667 0
0.233333 0.7 0
0.233333 0.733333 0
0.233333 0.766667 0
0.233333 0.8 0
0.233333 0.833333 0
0.233333 0.866667 0
0.233333 0.9 0
0.233333 0.933333 0
0.233333 0.966667 0
0.266667 0.0333333 0
0.266667 0.0666667 0
0.266667 0.1 0
0.266667 0.133333 0
0.266667 0.166667 0
0.266667 0.2 0
0.266667 0.233333 0
0.266667 0.266667 0
0.266667 0.3 0
0.266667 0.333333 0
0.266667 0.366667 0
0.266667 0.4 0
0.266667 0.433333 0
0.266667 0.466667 0
0.266667 0.5 0
0.266667 0.533333 0
0.266667 0.566667 0
0.266667 0.6 0
0.266667 0.633333 0
0.266667 0.666667 0
0.266667 0.7 0
0.266667 0.733333 0
0.266667 0.766667 0
0.266667 0.8 0
0.266667 0.833333 0
0.266667 0.866667 0
0.266667 0.9 0
0.266667 0.933333 0
0.266667 0.966667 0
0.3 0.0333333 0
0.3 0.0666667 0
0.3 0.1 0
0.3 0.133333 0
0.3 0.166667 0
0.3 0.2 0
0.3 0.233333 0
0.3 0.266667 0
0.3 0.3 0
0.3 0.333333 0
0.3 0.366667 0
0.3 0.4 0
0.3 0.433333 0
0.3 0.466667 0
0.3 0.5 0
0.3 0.533333 0
0.3 0.566667 0
0.3 0.6 0
0.3 0.633333 0
0.3 0.666667 0
0.3 0.7 0
0.3 0.733333 0
0.3 0.766667 0
0.3 0.8 0
0.3 0.833333 0
0.3 0.866667 0
0.3 0.9 0
0.3 0.933333 0
0.3 0.966667 0
0.333333 0.0333333 0
0.333333 0.0666667 0
0.333333 0.1 0
0.333333 0.133333 0
0.333333 0.166667 0
0.333333 0.2 0
0.333333 0.233333 0
0.333333 0.266667 0
0.333333 0.3 0
0.333333 0.333333 0
0.333333 0.366667 0
0.333333 0.4 0
0.333333 0.433333 0
0.333333 0.466667 0
0.333333 0.5 0
0.333333 0.533333 0
0.333333 0.566667 0
0.333333 0.6 0
0.333333 0.633333 0
0.333333 0.666667 0
0.333333 0.7 0
0.333333 0.733333 0
0.333333 0.766667 0
0.333333 0.8 0
0.333333 0.833333 0
0.333333 0.866667 0
0.333333 0.9 0
0.333333 0.933333 0
0.333333 0.966667 0
0.366667 0.0333333 0
0.366667 0.0666667 0
0.366667 0.1 0
0.366667 0.133333 0
0.366667 0.166667 0
0.366667 0.2 0
0.366667 0.233333 0
0.366667 0.266667 0
0.366667 0.3 0
0.366667 0.333333 0
0.366667 0.366667 0
0.366667 0.4 0
0.366667 0.433333 0
0.366667 0.466667 0
0.366667 0.5 0
0.366667 0.533333 0
0.366667 0.566667 0
0.366667 0.6 0
0.366667 0.633333 0
0.366667 0.666667 0
0.366667 0.7 0
0.366667 0.733333 0
0.366667 0.766667 0
0.366667 0.8 0
0.366667 0.833333 0
0.366667 0.866667 0
0.366667 0.9 0
0.366667 0.933333 0
0.366667 0.966667 0
0.4 0.0333333 0
0.4 0.0666667 0
0.4 0.1 0
0.4 0.133333 0
0.4 0.166667 0
0.4 0.2 0
0.4 0.233333 0
0.4 0.266667 0
0.4 0.3 0
0.4 0.333333 0
0.4 0.366667 0
0.4 0.4 0
0.4 0.433333 0
0.4 0.466667 0
0.4 0.5 0
0.4 0.533333 0
0.4 0.566667 0
0.4 0.6 0
0.4 0.633333 0
0.4 0.666667 0
0.4 0.7 0
0.4 0.733333 0
0.4 0.766667 0
0.4 0.8 0
0.4 0.833333 0
0.4 0.866667 0
0.4 0.9 0
0.4 0.933333 0
0.4 0.966667 0
0.433333 0.0333333 0
0.433333 0.0666667 0
0.433333 0.1 0
0.433333 0.133333 0
0.433333 0.166667 0
0.433333 0.2 0
0.433333 0.233333 0
0.433333 0.266667 0
0.433333 0.3 0
0.433333 0.333333 0
0.433333 0.366667 0
0.433333 0.4 0
0.433333 0.433333 0
0.433333 0.466667 0
0.433333 0.5 0
0.433333 0.533333 0
0.433333 0.566667 0
0.433333 0.6 0
0.433333 0.633333 0
0.433333 0.666667 0
0.433333 0.7 0
0.433333 0.733333 0
0.433333 0.766667 0
0.433333 0.8 0
0.433333 0.833333 0
0.433333 0.866667 0
0.433333 0.9 0
0.433333 0.933333 0
0.433333 0.966667 0
0.466667 0.0333333 0
0.466667 0.0666667 0
0.466667 0.1 0
0.466667 0.133333 0
0.466667 0.166667 0
0.466667 0.2 0
0.466667 0.233333 0
0.466667 0.266667 0
0.466667 0.3 0
0.466667 0.333333 0
0.466667 0.366667 0
0.466667 0.4 0
0.466667 0.433333 0
0.466667 0.466667 0
0.466667 0.5 0
0.466667 0.533333 0
0.466667 0.566667 0
0.466667 0.6 0
0.466667 0.633333 0
0.466667 0.666667 0
0.466667 0.7 0
0.466667 0.733333 0
0.466667 0.766667 0
0.466667 0.8 0
0.466667 0.833333 0
0.466667 0.866667 0
0.466667 0.9 0
0.466667 0.933333 0
0.466667 0.966667 0
0.5 0.0333333 0
0.5 0.0666667 0
0.5 0.1 0
0.5 0.133333 0
0.5 0.166667 0
0.5 0.2 0
0.5 0.233333 0
0.5 0.266667 0
0.5 0.3 0
0.5 0.333333 0
0.5 0.366667 0
0.5 0.4 0
0.5 0.433333 0
0.5 0.466667 0
0.5 0.5 0
0.5 0.533333 0
0.5 0.566667 0
0.5 0.6 0
0.5 0.633333 0
0.5 0.666667 0
0.5 0.7 0
0.5 0.733333 0
0.5 0.766667 0
0.5 0.8 0
0.5 0.833333 0
0.5 0.866667 0
0.5 0.9 0
0.5 0.933333 0
0.5 0.966667 0
0.533333 0.0333333 0
0.533333 0.0666667 0
0.533333 0.1 0
0.533333 0.133333 0
0.533333 0.166667 0
0.533333 0.2 0
0.533333 0.233333 0
0.533333 0.266667 0
0.533333 0.3 0
0.533333 0.333333 0
0.533333 0.366667 0
0.533333 0.4 0
0.533333 0.433333 0
0.533333 0.466667 0
0.533333 0.5 0
0.533333 0.533333 0
0.533333 0.566667 0
0.533333 0.6 0
0.533333 0.633333 0
0.533333 0.666667 0
0.533333 0.7 0
0.533333 0.733333 0
0.533333 0.766667 0
0.533333 0.8 0
0.533333 0.833333 0
0.533333 0.866667 0
0.533333 0.9 0
0.533333 0.933333 0
0.533333 0.966667 0
0.566667 0.0333333 0
0.566667 0.0666667 0
0.566667 0.1 0
0.566667 0.133333 0
0.566667 0.166667 0
0.566667 0.2 0
0.566667 0.233333 0
0.566667 0.266667 0
0.566667 0.3 0
0.566667 0.333333 0
0.566667 0.366667 0
0.566667 0.4 0
0.566667 0.433333 0
0.566667 0.466667 0
0.566667 0.5 0
0.566667 0.533333 0
0.566667 0.566667 0
0.566667 0.6 0
0.566667 0.633333 0
0.566667 0.666667 0
0.566667 0.7 0
0.566667 0.733333 0
0.566667 0.766667 0
0.566667 0.8 0
0.566667 0.833333 0
0.566667 0.866667 0
0.566667 0.9 0
0.566667 0.933333 0
0.566667 0.966667 0
0.6 0.0333333 0
0.6 0.0666667 0
0.6 0.1 0
0.6 0.133333 0
[...]
CELL_DATA 900
VECTORS velocity double
-0.000133332 0.000132791 0.0
-0.000194445 0.000503292 0.0
-0.000206262 0.000971493 0.0
-0.00021348 0.00144242 0.0
-0.00022245 0.00193318 0.0
-0.000234222 0.00244712 0.0
-0.000249045 0.002991 0.0
-0.000267177 0.00357192 0.0
-0.000288978 0.00419765 0.0
-0.000314921 0.00487689 0.0
-0.000345624 0.00561955 0.0
-0.000381898 0.00643709 0.0
-0.000424815 0.00734303 0.0
-0.000475817 0.0083536 0.0
-0.000536869 0.00948868 0.0
-0.000610724 0.0107732 0.0
-0.000701326 0.012239 0.0
-0.000814528 0.0139282 0.0
-0.000959343 0.0158979 0.0
-0.00115035 0.018228 0.0
-0.00141249 0.0210355 0.0
-0.00179131 0.0244993 0.0
-0.00237575 0.0289081 0.0
-0.00335119 0.0347615 0.0
-0.00512454 0.0429622 0.0
-0.00858833 0.0552493 0.0
-0.0155136 0.0758453 0.0
-0.0270475 0.106432 0.0
-0.0193246 0.180655 0.0
0.18365 0.12527 0.0
-0.000502854 0.000191087 0.0
-0.000712987 0.000703696 0.0
-0.000757675 0.00133833 0.0
-0.000785293 0.00197861 0.0
-0.000818981 0.0026467 0.0
-0.000862591 0.00334669 0.0
-0.000917231 0.00408751 0.0
-0.000983945 0.00487862 0.0
-0.00106407 0.00573046 0.0
-0.00115933 0.00665469 0.0
-0.00127197 0.00766456 0.0
-0.00140491 0.00877535 0.0
-0.00156201 0.0100049 0.0
-0.00174842 0.0113747 0.0
-0.00197112 0.0129106 0.0
-0.00223979 0.0146448 0.0
-0.00256815 0.016618 0.0
-0.00297613 0.0188827 0.0
-0.00349358 0.0215084 0.0
-0.00416672 0.0245888 0.0
-0.00506992 0.0282532 0.0
-0.00632817 0.0326825 0.0
-0.00816133 0.038132 0.0
-0.0109748 0.0449617 0.0
-0.0155476 0.0536466 0.0
-0.0233626 0.064694 0.0
-0.0368637 0.0789638 0.0
-0.056568 0.0920724 0.0
-0.0449426 0.108098 0.0
0.209923 0.0656625 0.0
-0.00095872 0.000195 0.0
-0.0013396 0.000719171 0.0
-0.00142388 0.00136787 0.0
-0.00147632 0.00202121 0.0
-0.00154004 0.00270265 0.0
-0.00162205 0.00341626 0.0
-0.00172456 0.00417108 0.0
-0.00184954 0.00497658 0.0
-0.00199945 0.0058431 0.0
-0.00217745 0.00678217 0.0
-0.00238761 0.0078067 0.0
-0.00263518 0.00893147 0.0
-0.00292705 0.0101735 0.0
-0.00327233 0.0115529 0.0
-0.00368328 0.0130934 0.0
-0.00417661 0.014824 0.0
-0.00477563 0.0167797 0.0
-0.00551338 0.0190046 0.0
-0.0064378 0.0215536 0.0
-0.00762003 0.0244963 0.0
-0.00916802 0.0279203 0.0
-0.0112494 0.0319344 0.0
-0.0141299 0.036667 0.0
-0.0182365 0.042252 0.0
-0.0242559 0.0487731 0.0
-0.0331979 0.0560807 0.0
-0.0458324 0.0636904 0.0
-0.0577686 0.0678801 0.0
-0.0208115 0.0654321 0.0
0.299489 0.0349824 0.0
-0.0013937 0.000189542 0.0
-0.00193904 0.000699798 0.0
-0.00206 0.0013313 0.0
-0.00213545 0.00196668 0.0
-0.00222729 0.00262912 0.0
-0.00234538 0.00332235 0.0
-0.0024928 0.00405499 0.0
-0.00267231 0.00483596 0.0
-0.0028873 0.00567491 0.0
-0.00314211 0.00658247 0.0
-0.00344227 0.00757039 0.0
-0.00379485 0.00865184 0.0
-0.00420905 0.00984174 0.0
-0.00469686 0.0111571 0.0
-0.00527414 0.0126175 0.0
-0.00596219 0.0142457 0.0
-0.00678997 0.016068 0.0
-0.00779746 0.018115 0.0
-0.00904071 0.0204216 0.0
-0.0105994 0.0230266 0.0
-0.0125884 0.0259699 0.0
-0.0151747 0.0292856 0.0
-0.0186033 0.0329856 0.0
-0.0232309 0.0370244 0.0
-0.0295621 0.041225 0.0
-0.0381906 0.045117 0.0
-0.0489861 0.0477816 0.0
-0.0555094 0.0466893 0.0
-0.00817721 0.038819 0.0
0.334201 0.0184936 0.0
-0.00181433 0.000180957 0.0
-0.0025193 0.000668536 0.0
-0.00267553 0.00127203 0.0
-0.00277298 0.00187882 0.0
-0.00289158 0.00251106 0.0
-0.00304394 0.00317212 0.0
-0.00323389 0.00386997 0.0
-0.00346485 0.00461279 0.0
-0.00374095 0.0054093 0.0
-0.00406742 0.00626895 0.0
-0.00445089 0.00720199 0.0
-0.00489975 0.00821962 0.0
-0.00542469 0.0093341 0.0
-0.0060395 0.0105589 0.0
-0.00676206 0.0119088 0.0
-0.00761584 0.0133996 0.0
-0.00863193 0.0150482 0.0
-0.00985194 0.0168718 0.0
-0.0113321 0.018886 0.0
-0.0131486 0.0211024 0.0
-0.0154056 0.023522 0.0
-0.0182444 0.0261249 0.0
-0.021855 0.0288502 0.0
-0.0264852 0.0315616 0.0
-0.0324314 0.0339883 0.0
-0.0399125 0.0356226 0.0
-0.048176 0.0356229 0.0
-0.0497201 0.0324494 0.0
0.00503886 0.0239544 0.0
0.355561 0.0101125 0.0
-0.00221286 0.00017028 0.0
-0.00306926 0.000629199 0.0
-0.00325861 0.00119715 0.0
-0.00337654 0.00176788 0.0
-0.00351995 0.00236213 0.0
-0.00370399 0.00298284 0.0
-0.00393314 0.00363724 0.0
-0.00421128 0.00433264 0.0
-0.00454308 0.00507671 0.0
-0.00493438 0.00587759 0.0
-0.00539246 0.0067439 0.0
-0.00592645 0.00768471 0.0
-0.0065478 0.00870958 0.0
-0.00727094 0.00982836 0.0
-0.00811423 0.011051 0.0
-0.00910114 0.0123869 0.0
-0.0102619 0.0138445 0.0
-0.0116355 0.0154292 0.0
-0.0132726 0.0171412 0.0
-0.0152386 0.0189717 0.0
-0.0176176 0.0208954 0.0
-0.0205159 0.0228606 0.0
-0.0240634 0.0247712 0.0
-0.0284084 0.0264617 0.0
-0.0336897 0.0276597 0.0
-0.0398927 0.0279345 0.0
-0.0459602 0.0266597 0.0
-0.0440187 0.0229728 0.0
0.0150947 0.0156138 0.0
0.36861 0.00594077 0.0
-0.00258498 0.000157704 0.0
-0.00358277 0.000582706 0.0
-0.00380284 0.00110855 0.0
-0.00393952 0.00163669 0.0
-0.00410554 0.00218617 0.0
-0.00431835 0.00275949 0.0
-0.00458295 0.00336307 0.0
-0.00490352 0.00400328 0.0
-0.00528506 0.00468671 0.0
-0.00573371 0.00542015 0.0
-0.00625706 0.00621058 0.0
-0.00686443 0.00706504 0.0
-0.00756731 0.00799049 0.0
-0.00837987 0.00899347 0.0
-0.00931968 0.0100797 0.0
-0.0104086 0.0112532 0.0
-0.0116737 0.0125153 0.0
-0.0131489 0.0138627 0.0
-0.0148761 0.0152847 0.0
-0.0169064 0.0167594 0.0
-0.0193015 0.018247 0.0
-0.0221327 0.0196816 0.0
-0.0254772 0.0209585 0.0
-0.0294072 0.0219184 0.0
-0.0339567 0.0223279 0.0
-0.0389821 0.0218614 0.0
-0.0433004 0.0200979 0.0
-0.0389656 0.0165812 0.0
0.0227456 0.010629 0.0
0.377008 0.00373369 0.0
-0.00292656 0.000143386 0.0
-0.00405404 0.000529737 0.0
-0.00430208 0.00100762 0.0
-0.00445563 0.00148733 0.0
-0.00464186 0.00198602 0.0
-0.00488029 0.00250577 0.0
-0.00517631 0.00305214 0.0
-0.00553426 0.00363058 0.0
-0.00595927 0.00424658 0.0
-0.00645755 0.00490565 0.0
-0.00703665 0.00561325 0.0
-0.00770568 0.00637455 0.0
-0.00847559 0.00719424 0.0
-0.00935961 0.0080761 0.0
-0.0103736 0.00902239 0.0
-0.0115368 0.010033 0.0
-0.012872 0.0111043 0.0
-0.0144064 0.012227 0.0
-0.0161722 0.0133839 0.0
-0.0182059 0.0145464 0.0
-0.020548 0.0156693 0.0
-0.0232401 0.0166848 0.0
-0.026319 0.0174946 0.0
-0.0298042 0.017962 0.0
-0.0336683 0.017904 0.0
-0.037707 0.0170906 0.0
-0.0407038 0.0152565 0.0
-0.0347507 0.0121768 0.0
0.0285345 0.00749371 0.0
0.382733 0.0024874 0.0
-0.00323383 0.000127509 0.0
-0.00447788 0.000471005 0.0
-0.00475089 0.00089575 0.0
-0.00491928 0.00132189 0.0
-0.0051232 0.00176454 0.0
-0.00538397 0.00222539 0.0
-0.00570724 0.00270914 0.0
-0.00609742 0.00322033 0.0
-0.00655959 0.00376342 0.0
-0.00709985 0.00434277 0.0
-0.00772547 0.00496246 0.0
-0.008445 0.00562611 0.0
-0.00926854 0.00633657 0.0
-0.0102079 0.00709544 0.0
-0.0112768 0.00790252 0.0
-0.012491 0.00875487 0.0
-0.0138689 0.00964565 0.0
-0.0154308 0.0105625 0.0
-0.017199 0.0114853 0.0
-0.0191971 0.0123835 0.0
-0.0214478 0.0132127 0.0
-0.0239693 0.0139104 0.0
-0.0267698 0.0143922 0.0
-0.0298362 0.0145484 0.0
-0.0331089 0.0142435 0.0
-0.0363618 0.0133221 0.0
-0.038387 0.0116247 0.0
-0.031343 0.00905162 0.0
0.0329046 0.00541815 0.0
0.386778 0.00173235 0.0
-0.00350349 0.000110271 0.0
-0.00484974 0.000407262 0.0
-0.00514449 0.000774386 0.0
-0.00532564 0.00114253 0.0
-0.00554468 0.00152467 0.0
-0.00582446 0.0019221 0.0
-0.00617081 0.00233874 0.0
-0.0065881 0.00277824 0.0
-0.00708129 0.00324414 0.0
-0.00765621 0.00373978 0.0
-0.00831967 0.0042681 0.0
-0.00907955 0.00483147 0.0
-0.00994483 0.00543135 0.0
-0.0109257 0.00606787 0.0
-0.0120335 0.00673923 0.0
-0.0132808 0.00744089 0.0
-0.0146811 0.00816456 0.0
-0.0162484 0.00889684 0.0
-0.0179967 0.00961754 0.0
-0.0199384 0.0102976 0.0
-0.0220819 0.0108971 0.0
-0.024429 0.0113625 0.0
-0.0269687 0.0116255 0.0
-0.0296693 0.0116022 0.0
-0.032457 0.0111962 0.0
-0.0351042 0.0103059 0.0
-0.0364256 0.0088392 0.0
-0.0286431 0.00676055 0.0
0.0362056 0.00397345 0.0
0.389707 0.00124153 0.0
-0.0037327 9.18816e-05 0.0
-0.00516574 0.000339276 0.0
-0.00547884 0.000645002 0.0
-0.00567063 0.000951447 0.0
-0.0059022 0.00126934 0.0
-0.00619769 0.00159966 0.0
-0.00656302 0.00194554 0.0
-0.00700248 0.00230986 0.0
-0.00752081 0.00269532 0.0
-0.00812354 0.00310439 0.0
-0.00881696 0.00353912 0.0
-0.00960816 0.00400096 0.0
-0.010505 0.00449042 0.0
-0.011516 0.00500676 0.0
-0.0126504 0.00554739 0.0
-0.0139174 0.00610727 0.0
-0.0153264 0.00667799 0.0
-0.0168861 0.00724681 0.0
-0.0186031 0.00779535 0.0
-0.0204812 0.00829829 0.0
-0.0225185 0.00872198 0.0
-0.024705 0.00902337 0.0
-0.0270181 0.00914965 0.0
-0.0294164 0.00903932 0.0
-0.0318218 0.00862585 0.0
-0.0340139 0.00784475 0.0
-0.0348317 0.00664454 0.0
-0.0265472 0.00501981 0.0
0.038685 0.00291799 0.0
0.391853 0.000901022 0.0
-0.0039191 7.25483e-05 0.0
-0.00542265 0.000267823 0.0
-0.00575058 0.000509071 0.0
-0.00595087 0.000750806 0.0
-0.00619243 0.00100145 0.0
-0.00650039 0.00126172 0.0
-0.00688073 0.001534 0.0
-0.00733761 0.00182046 0.0
-0.00787559 0.00212308 0.0
-0.00849983 0.00244363 0.0
-0.00921613 0.00278348 0.0
-0.0100308 0.00314342 0.0
-0.0109508 0.00352347 0.0
-0.011983 0.00392251 0.0
-0.0131346 0.00433786 0.0
-0.0144124 0.0047648 0.0
-0.0158221 0.00519588 0.0
-0.0173679 0.00562017 0.0
-0.0190511 0.00602243 0.0
-0.0208687 0.00638224 0.0
-0.0228116 0.00667322 0.0
-0.0248622 0.00686269 0.0
-0.0269909 0.00691193 0.0
-0.0291519 0.00677766 0.0
-0.031268 0.0064155 0.0
-0.0331279 0.00578552 0.0
-0.0335915 0.00485988 0.0
-0.0249665 0.00364473 0.0
0.0405159 0.00210879 0.0
0.393419 0.000650021 0.0
-0.0040608 5.24804e-05 0.0
-0.00561789 0.000193672 0.0
-0.00595702 0.000368054 0.0
-0.00616371 0.000542755 0.0
-0.00641275 0.000723842 0.0
-0.00673003 0.000911819 0.0
-0.00712155 0.00110837 0.0
-0.00759136 0.001315 0.0
-0.00814382 0.00153311 0.0
-0.00878381 0.00176385 0.0
-0.00951669 0.00200811 0.0
-0.0103482 0.00226631 0.0
-0.0112843 0.00253826 0.0
-0.0123308 0.0028229 0.0
-0.0134932 0.003118 0.0
-0.0147763 0.00341978 0.0
-0.0161831 0.0037225 0.0
-0.0177143 0.00401786 0.0
-0.0193674 0.00429456 0.0
-0.0211348 0.00453769 0.0
-0.0230024 0.00472843 0.0
-0.0249477 0.0048439 0.0
-0.0269374 0.00485773 0.0
-0.0289241 0.0047413 0.0
-0.030833 0.00446641 0.0
-0.032461 0.0040092 0.0
-0.0326836 0.00335487 0.0
-0.0238318 0.00251121 0.0
0.0418171 0.00145667 0.0
0.394533 0.000453753 0.0
-0.00415638 3.18852e-05 0.0
-0.00574952 0.000117585 0.0
-0.00609619 0.000223388 0.0
-0.00630717 0.000329396 0.0
-0.00656123 0.000439293 0.0
-0.00688476 0.000553392 0.0
-0.00728377 0.000672717 0.0
-0.00776222 0.000798187 0.0
-0.00832432 0.000930634 0.0
-0.00897475 0.00107077 0.0
-0.00971856 0.00121909 0.0
-0.010561 0.00137586 0.0
-0.0115075 0.0015409 0.0
-0.012563 0.00171354 0.0
-0.013732 0.00189235 0.0
-0.0150176 0.00207497 0.0
-0.0164211 0.00225782 0.0
-0.0179412 0.00243579 0.0
-0.0195725 0.00260195 0.0
-0.0213046 0.00274723 0.0
-0.0231203 0.00286029 0.0
-0.0249942 0.0029275 0.0
-0.0268911 0.00293331 0.0
-0.0287632 0.00286112 0.0
-0.0305379 0.00269485 0.0
-0.0320178 0.00242124 0.0
-0.0320884 0.00203225 0.0
-0.0230931 0.00153203 0.0
0.0426674 0.000902267 0.0
0.395275 0.000290481 0.0
-0.00420488 1.09687e-05 0.0
-0.00581624 4.03152e-05 0.0
-0.00616673 7.64948e-05 0.0
-0.00637992 0.000112798 0.0
-0.00663658 0.000150507 0.0
-0.00696335 0.000189767 0.0
-0.00736625 0.000230964 0.0
-0.00784919 0.000274454 0.0
-0.00841633 0.00032057 0.0
-0.00907222 0.000369614 0.0
-0.00982176 0.000421828 0.0
-0.01067 0.000477373 0.0
-0.011622 0.000536287 0.0
-0.0126824 0.000598435 0.0
-0.0138549 0.000663442 0.0
-0.0151422 0.000730614 0.0
-0.0165445 0.000798837 0.0
-0.0180592 0.000866462 0.0
-0.0196799 0.000931186 0.0
-0.0213944 0.000989932 0.0
-0.0231842 0.00103876 0.0
-0.0250224 0.00107283 0.0
-0.0268728 0.0010865 0.0
-0.0286872 0.00107356 0.0
-0.0303943 0.00102775 0.0
-0.0317994 0.00094339 0.0
-0.0317917 0.000815692 0.0
-0.022718 0.000641989 0.0
0.0431168 0.000401681 0.0
0.395693 0.000144192 0.0
-0.00420582 -1.00665e-05 0.0
-0.00581738 -3.73899e-05 0.0
-0.00616794 -7.12187e-05 0.0
-0.00638127 -0.000104993 0.0
-0.00663813 -0.000139843 0.0
-0.00696517 -0.000175787 0.0
-0.0073684 -0.000213069 0.0
-0.00785177 -0.000251888 0.0
-0.00841944 -0.000292392 0.0
-0.00907597 -0.000334667 0.0
-0.00982628 -0.00037871 0.0
-0.0106755 -0.000424398 0.0
-0.0116286 -0.00047145 0.0
-0.0126902 -0.000519379 0.0
-0.0138642 -0.000567438 0.0
-0.0151531 -0.000614555 0.0
-0.0165572 -0.000659262 0.0
-0.0180738 -0.000699634 0.0
-0.0196964 -0.000733233 0.0
-0.0214126 -0.000757084 0.0
-0.0232038 -0.000767714 0.0
-0.0250427 -0.000761268 0.0
-0.0268927 -0.000733766 0.0
-0.0287053 -0.000681515 0.0
-0.0304085 -0.000601737 0.0
-0.0318068 -0.000493515 0.0
-0.0317872 -0.000359693 0.0
-0.0226897 -0.000212004 0.0
0.0431917 -8.04505e-05 0.0
0.39581 1.74299e-06 0.0
-0.00415914 -3.1022e-05 0.0
-0.00575288 -0.000114789 0.0
-0.00609979 -0.000218346 0.0
-0.00631117 -0.000321935 0.0
-0.00656582 -0.000429095 0.0
-0.00689014 -0.000540017 0.0
-0.00729015 -0.000655589 0.0
-0.00776987 -0.000776574 0.0
-0.00833354 -0.000903624 0.0
-0.00898588 -0.00103724 0.0
-0.00973199 -0.00117768 0.0
-0.0105772 -0.0013249 0.0
-0.011527 -0.00147843 0.0
-0.0125863 -0.00163721 0.0
-0.0137596 -0.00179944 0.0
-0.0150502 -0.00196234 0.0
-0.0164592 -0.00212193 0.0
-0.017985 -0.00227274 0.0
-0.0196222 -0.00240762 0.0
-0.0213597 -0.00251748 0.0
-0.0231797 -0.00259131 0.0
-0.0250562 -0.00261628 0.0
-0.0269524 -0.00257838 0.0
-0.0288193 -0.00246344 0.0
-0.0305826 -0.00225894 0.0
-0.0320423 -0.00195663 0.0
-0.0320756 -0.00155689 0.0
-0.0230026 -0.00108047 0.0
0.0429089 -0.000567745 0.0
0.395615 -0.000140475 0.0
-0.00406526 -5.16941e-05 0.0
-0.00562333 -0.00019113 0.0
-0.00596285 -0.000363469 0.0
-0.00617019 -0.000535967 0.0
-0.00642018 -0.00071456 0.0
-0.00673874 -0.000899634 0.0
-0.00713191 -0.00109275 0.0
-0.00760378 -0.00129527 0.0
-0.0081588 -0.0015084 0.0
-0.00880191 -0.00173312 0.0
-0.00953858 -0.00197006 0.0
-0.0103746 -0.00221936 0.0
-0.0113161 -0.0024805 0.0
-0.0123689 -0.00275204 0.0
-0.0135387 -0.00303132 0.0
-0.0148301 -0.0033141 0.0
-0.0162461 -0.00359413 0.0
-0.0177874 -0.00386263 0.0
-0.0194507 -0.00410786 0.0
-0.0212279 -0.00431467 0.0
-0.0231038 -0.00446422 0.0
-0.0250544 -0.00453414 0.0
-0.0270444 -0.00449925 0.0
-0.029024 -0.00433317 0.0
-0.0309152 -0.00401134 0.0
-0.0325096 -0.00351553 0.0
-0.0326684 -0.002841 0.0
-0.0236798 -0.00201559 0.0
0.0422356 -0.0010868 0.0
0.395115 -0.000287278 0.0
-0.00392506 -7.18734e-05 0.0
-0.00542992 -0.000265649 0.0
-0.00575838 -0.00050515 0.0
-0.00595954 -0.000744997 0.0
-0.00620239 -0.000993495 0.0
-0.00651207 -0.00125127 0.0
-0.00689463 -0.00152058 0.0
-0.00735431 -0.00180346 0.0
-0.00789574 -0.00210175 0.0
-0.00852424 -0.00241702 0.0
-0.00924571 -0.00275039 0.0
-0.0100667 -0.00310241 0.0
-0.010994 -0.00347273 0.0
-0.0120351 -0.00385985 0.0
-0.013197 -0.00426062 0.0
-0.0144866 -0.00466975 0.0
-0.0159096 -0.00507918 0.0
-0.01747 -0.00547729 0.0
-0.0191685 -0.00584813 0.0
-0.0210013 -0.00617061 0.0
-0.0229581 -0.00641788 0.0
-0.0250188 -0.00655716 0.0
-0.0271512 -0.00655032 0.0
-0.0293055 -0.00635587 0.0
-0.0313997 -0.00593293 0.0
-0.0332135 -0.00524797 0.0
-0.0335841 -0.00428564 0.0
-0.0247536 -0.00307747 0.0
0.0411324 -0.00167853 0.0
0.394276 -0.000453182 0.0
-0.00373989 -9.13483e-05 0.0
-0.00517452 -0.00033757 0.0
-0.00548827 -0.000641926 0.0
-0.00568111 -0.000946882 0.0
-0.00591425 -0.00126308 0.0
-0.00621184 -0.00159142 0.0
-0.00657989 -0.00193493 0.0
-0.00702276 -0.00229638 0.0
-0.00754536 -0.00267833 0.0
-0.00815333 -0.00308309 0.0
-0.00885317 -0.00351248 0.0
-0.00965216 -0.0039677 0.0
-0.0105584 -0.00444893 0.0
-0.0115806 -0.004955 0.0
-0.0127281 -0.00548283 0.0
-0.0140105 -0.00602671 0.0
-0.0154372 -0.0065775 0.0
-0.0170166 -0.00712149 0.0
-0.018755 -0.00763926 0.0
-0.0206552 -0.00810427 0.0
-0.0227139 -0.0084817 0.0
-0.0249183 -0.00872749 0.0
-0.0272421 -0.00878838 0.0
-0.0296383 -0.00860365 0.0
-0.0320214 -0.00810968 0.0
-0.0341573 -0.00724881 0.0
-0.0348506 -0.00598518 0.0
-0.0262778 -0.00434656 0.0
0.0395293 -0.0023956 0.0
0.39304 -0.000655776 0.0
-0.00351159 -0.000109904 0.0
-0.00485964 -0.000406103 0.0
-0.00515512 -0.0007723 0.0
-0.00533747 -0.00113943 0.0
-0.00555829 -0.0015204 0.0
-0.00584047 -0.00191647 0.0
-0.00618992 -0.00233145 0.0
-0.00661113 -0.00276892 0.0
-0.00710922 -0.00323232 0.0
-0.00769021 -0.00372483 0.0
-0.00836114 -0.00424922 0.0
-0.00913014 -0.00480762 0.0
-0.0100065 -0.00540117 0.0
-0.0110007 -0.0060296 0.0
-0.0121245 -0.00669057 0.0
-0.0133907 -0.00737884 0.0
-0.0148131 -0.00808521 0.0
-0.0164059 -0.0087951 0.0
-0.0181826 -0.0094868 0.0
-0.020155 -0.0101295 0.0
-0.0223302 -0.010681 0.0
-0.0247067 -0.0110856 0.0
-0.0272693 -0.0112727 0.0
-0.029979 -0.0111575 0.0
-0.0327509 -0.0106447 0.0
-0.0353372 -0.0096391 0.0
-0.0365014 -0.0080673 0.0
-0.0283289 -0.0059375 0.0
0.0373198 -0.00331647 0.0
0.391304 -0.000921698 0.0
-0.00324247 -0.000127324 0.0
-0.00448844 -0.000470452 0.0
-0.00476224 -0.000894758 0.0
-0.00493192 -0.0013204 0.0
-0.00513777 -0.00176248 0.0
-0.00540113 -0.00222264 0.0
-0.00572776 -0.00270555 0.0
-0.0061222 -0.00321567 0.0
-0.00658972 -0.00375741 0.0
-0.00713666 -0.004335 0.0
-0.00777052 -0.00495241 0.0
-0.00850022 -0.00561306 0.0
-0.00933622 -0.00631951 0.0
-0.0102908 -0.00707302 0.0
-0.0113781 -0.00787285 0.0
-0.0126147 -0.00871535 0.0
-0.0140191 -0.00959266 0.0
-0.0156123 -0.010491 0.0
-0.0174169 -0.0113884 0.0
-0.0194562 -0.0122518 0.0
-0.0217516 -0.0130334 0.0
-0.024319 -0.0136669 0.0
-0.0271616 -0.0140631 0.0
-0.0302577 -0.014108 0.0
-0.0335327 -0.0136637 0.0
-0.0367312 -0.012578 0.0
-0.0385699 -0.0107124 0.0
-0.0310105 -0.00802317 0.0
0.0343453 -0.00456921 0.0
0.388904 -0.00129761 0.0
-0.00293535 -0.000143394 0.0
-0.00406478 -0.000529819 0.0
-0.00431363 -0.00100778 0.0
-0.00446851 -0.00148754 0.0
-0.00465672 -0.00198629 0.0
-0.00489782 -0.00250608 0.0
-0.00519731 -0.00305247 0.0
-0.00555969 -0.00363089 0.0
-0.00599027 -0.00424678 0.0
-0.00649555 -0.00490563 0.0
-0.00708336 -0.00561278 0.0
-0.0077632 -0.00637332 0.0
-0.00854652 -0.00719173 0.0
-0.0094471 -0.0080715 0.0
-0.0104815 -0.00901445 0.0
-0.0116698 -0.0100198 0.0
-0.0130356 -0.0110829 0.0
-0.0146073 -0.012193 0.0
-0.0164177 -0.0133307 0.0
-0.0185042 -0.0144642 0.0
-0.0209073 -0.0155439 0.0
-0.023667 -0.0164958 0.0
-0.0268159 -0.017214 0.0
-0.0303648 -0.0175521 0.0
-0.0342679 -0.0173179 0.0
-0.0382795 -0.0162771 0.0
-0.0410739 -0.0141828 0.0
-0.0344536 -0.0108758 0.0
0.0303749 -0.00637838 0.0
0.38556 -0.00187325 0.0
-0.00259352 -0.000157905 0.0
-0.00359319 -0.000583425 0.0
-0.00381405 -0.00110986 0.0
-0.00395204 -0.00163862 0.0
-0.00412 -0.00218878 0.0
-0.00433544 -0.00276288 0.0
-0.00460346 -0.00336737 0.0
-0.00492842 -0.00400863 0.0
-0.0053155 -0.00469326 0.0
-0.00577114 -0.00542808 0.0
-0.00630327 -0.00622006 0.0
-0.00692163 -0.00707621 0.0
-0.00763827 -0.0080034 0.0
-0.00846806 -0.00900804 0.0
-0.00942944 -0.0100955 0.0
-0.0105454 -0.0112694 0.0
-0.0118443 -0.0125302 0.0
-0.0133617 -0.0138731 0.0
-0.0151414 -0.0152854 0.0
-0.0172365 -0.0167414 0.0
-0.0197106 -0.0181963 0.0
-0.0226359 -0.0195759 0.0
-0.0260883 -0.0207637 0.0
-0.0301331 -0.0215841 0.0
-0.034785 -0.0217832 0.0
-0.0398477 -0.0210155 0.0
-0.0439822 -0.0188651 0.0
-0.0388076 -0.0149382 0.0
0.0250738 -0.00916219 0.0
0.380773 -0.00283403 0.0
-0.00222074 -0.000170665 0.0
-0.00307888 -0.000630526 0.0
-0.00326897 -0.00119956 0.0
-0.00338812 -0.00177144 0.0
-0.00353334 -0.00236699 0.0
-0.00371983 -0.0029892 0.0
-0.00395219 -0.00364537 0.0
-0.00423445 -0.00434287 0.0
-0.00457149 -0.00508945 0.0
-0.00496943 -0.00589332 0.0
-0.00543591 -0.00676319 0.0
-0.0059805 -0.00770824 0.0
-0.00661525 -0.00873806 0.0
-0.0073554 -0.00986256 0.0
-0.00822032 -0.0110916 0.0
-0.00923482 -0.0124345 0.0
-0.0104309 -0.0138991 0.0
-0.0118499 -0.0154899 0.0
-0.0135455 -0.0172053 0.0
-0.0155868 -0.0190333 0.0
-0.0180627 -0.0209432 0.0
-0.0210842 -0.0228737 0.0
-0.0247854 -0.0247138 0.0
-0.0293151 -0.0262737 0.0
-0.0347985 -0.0272447 0.0
-0.0411618 -0.0271496 0.0
-0.0471363 -0.0253317 0.0
-0.0441858 -0.0209529 0.0
0.0179958 -0.0137438 0.0
0.373627 -0.00458417 0.0
-0.00182118 -0.000181508 0.0
-0.00252767 -0.000670413 0.0