# vtk DataFile Version 3.0
Malha 2D com triângulos e temperatura
ASCII
DATASET UNSTRUCTURED_GRID

POINTS 961 double
0 0 0
1 0 0
1 1 0
0 1 0
0.0333333 0 0
0.0666667 0 0
0.1 0 0
0.133333 0 0
0.166667 0 0
0.2 0 0
0.233333 0 0
0.266667 0 0
0.3 0 0
0.333333 0 0
0.366667 0 0
0.4 0 0
0.433333 0 0
0.466667 0 0
0.5 0 0
0.533333 0 0
0.566667 0 0
0.6 0 0
0.633333 0 0
0.666667 0 0
0.7 0 0
0.733333 0 0
0.766667 0 0
0.8 0 0
0.833333 0 0
0.866667 0 0
0.9 0 0
0.933333 0 0
0.966667 0 0
1 0.0333333 0
1 0.0666667 0
1 0.1 0
1 0.133333 0
1 0.166667 0
1 0.2 0
1 0.233333 0
1 0.266667 0
1 0.3 0
1 0.333333 0
1 0.366667 0
1 0.4 0
1 0.433333 0
1 0.466667 0
1 0.5 0
1 0.533333 0
1 0.566667 0
1 0.6 0
1 0.633333 0
1 0.666667 0
1 0.7 0
1 0.733333 0
1 0.766667 0
1 0.8 0
1 0.833333 0
1 0.866667 0
1 0.9 0
1 0.933333 0
1 0.966667 0
0.966667 1 0
0.933333 1 0
0.9 1 0
0.866667 1 0
0.833333 1 0
0.8 1 0
0.766667 1 0
0.733333 1 0
0.7 1 0
0.666667 1 0
0.633333 1 0
0.6 1 0
0.566667 1 0
0.533333 1 0
0.5 1 0
0.466667 1 0
0.433333 1 0
0.4 1 0
0.366667 1 0
0.333333 1 0
0.3 1 0
0.266667 1 0
0.233333 1 0
0.2 1 0
0.166667 1 0
0.133333 1 0
0.1 1 0
0.0666667 1 0
0.0333333 1 0
0 0.966667 0
0 0.933333 0
0 0.9 0
0 0.866667 0
0 0.833333 0
0 0.8 0
0 0.766667 0
0 0.733333 0
0 0.7 0
0 0.666667 0
0 0.633333 0
0 0.6 0
0 0.566667 0
0 0.533333 0
0 0.5 0
0 0.466667 0
0 0.433333 0
0 0.4 0
0 0.366667 0
0 0.333333 0
0 0.3 0
0 0.266667 0
0 0.233333 0
0 0.2 0
0 0.166667 0
0 0.133333 0
0 0.1 0
0 0.0666667 0
0 0.0333333 0
0.0333333 0.0333333 0
0.0333333 0.0666667 0
0.0333333 0.1 0
0.0333333 0.133333 0
0.0333333 0.166667 0
0.0333333 0.2 0
0.0333333 0.233333 0
0.0333333 0.266667 0
0.0333333 0.3 0
0.0333333 0.333333 0
0.0333333 0.366667 0
0.0333333 0.4 0
0.0333333 0.433333 0
0.0333333 0.466667 0
0.0333333 0.5 0
0.0333333 0.533333 0
0.0333333 0.566667 0
0.0333333 0.6 0
0.0333333 0.633333 0
0.0333333 0.666667 0
0.0333333 0.7 0
0.0333333 0.733333 0
0.0333333 0.766667 0
0.0333333 0.8 0
0.0333333 0.833333 0
0.0333333 0.866667 0
0.0333333 0.9 0
0.0333333 0.933333 0
0.0333333 0.966667 0
0.0666667 0.0333333 0
0.0666667 0.0666667 0
0.0666667 0.1 0
0.0666667 0.133333 0
0.0666667 0.166667 0
0.0666667 0.2 0
0.0666667 0.233333 0
0.0666667 0.266667 0
0.0666667 0.3 0
0.0666667 0.333333 0
0.0666667 0.366667 0
0.0666667 0.4 0
0.0666667 0.433333 0
0.0666667 0.466667 0
0.0666667 0.5 0
0.0666667 0.533333 0
0.0666667 0.566667 0
0.0666667 0.6 0
0.0666667 0.633333 0
0.0666667 0.666667 0
0.0666667 0.7 0
0.0666667 0.733333 0
0.0666667 0.766667 0
0.0666667 0.8 0
0.0666667 0.833333 0
0.0666667 0.866667 0
0.0666667 0.9 0
0.0666667 0.933333 0
0.0666667 0.966667 0
0.1 0.0333333 0
0.1 0.0666667 0
0.1 0.1 0
0.1 0.133333 0
0.1 0.166667 0
0.1 0.2 0
0.1 0.233333 0
0.1 0.266667 0
0.1 0.3 0
0.1 0.333333 0
0.1 0.366667 0
0.1 0.4 0
0.1 0.433333 0
0.1 0.466667 0
0.1 0.5 0
0.1 0.533333 0
0.1 0.566667 0
0.1 0.6 0
0.1 0.633333 0
0.1 0.666667 0
0.1 0.7 0
0.1 0.733333 0
0.1 0.766667 0
0.1 0.8 0
0.1 0.833333 0
0.1 0.866667 0
0.1 0.9 0
0.1 0.933333 0
0.1 0.966667 0
0.133333 0.0333333 0
0.133333 0.0666667 0
0.133333 0.1 0
0.133333 0.133333 0
0.133333 0.166667 0
0.133333 0.2 0
0.133333 0.233333 0
0.133333 0.266667 0
0.133333 0.3 0
0.133333 0.333333 0
0.133333 0.366667 0
0.133333 0.4 0
0.133333 0.433333 0
0.133333 0.466667 0
0.133333 0.5 0
0.133333 0.533333 0
0.133333 0.566667 0
0.133333 0.6 0
0.133333 0.633333 0
0.133333 0.666667 0
0.133333 0.7 0
0.133333 0.733333 0
0.133333 0.766667 0
0.133333 0.8 0
0.133333 0.833333 0
0.133333 0.866667 0
0.133333 0.9 0
0.133333 0.933333 0
0.133333 0.966667 0
0.166667 0.0333333 0
0.166667 0.0666667 0
0.166667 0.1 0
0.166667 0.133333 0
0.166667 0.166667 0
0.166667 0.2 0
0.166667 0.233333 0
0.166667 0.266667 0
0.166667 0.3 0
0.166667 0.333333 0
0.166667 0.366667 0
0.166667 0.4 0
0.166667 0.433333 0
0.166667 0.466667 0
0.166667 0.5 0
0.166667 0.533333 0
0.166667 0.566667 0
0.166667 0.6 0
0.166667 0.633333 0
0.166667 0.666667 0
0.166667 0.7 0
0.166667 0.733333 0
0.166667 0.766667 0
0.166667 0.8 0
0.166667 0.833333 0
0.166667 0.866667 0
0.166667 0.9 0
0.166667 0.933333 0
0.166667 0.966667 0
0.2 0.0333333 0
0.2 0.0666667 0
0.2 0.1 0
0.2 0.133333 0
0.2 0.166667 0
0.2 0.2 0
0.2 0.233333 0
0.2 0.266667 0
0.2 0.3 0
0.2 0.333333 0
0.2 0.366667 0
0.2 0.4 0
0.2 0.433333 0
0.2 0.466667 0
0.2 0.5 0
0.2 0.533333 0
0.2 0.566667 0
0.2 0.6 0
0.2 0.633333 0
0.2 0.666667 0
0.2 0.7 0
0.2 0.733333 0
0.2 0.766667 0
0.2 0.8 0
0.2 0.833333 0
0.2 0.866667 0
0.2 0.9 0
0.2 0.933333 0
0.2 0.966667 0
0.233333 0.0333333 0
0.233333 0.0666667 0
0.233333 0.1 0
0.233333 0.133333 0
0.233333 0.166667 0
0.233333 0.2 0
0.233333 0.233333 0
0.233333 0.266667 0
0.233333 0.3 0
0.233333 0.333333 0
0.233333 0.366667 0
0.233333 0.4 0
0.233333 0.433333 0
0.233333 0.466667 0
0.233333 0.5 0
0.233333 0.533333 0
0.233333 0.566667 0
0.233333 0.6 0
0.233333 0.633333 0
0.233333 0.666667 0
0.233333 0.7 0
0.233333 0.733333 0
0.233333 0.766667 0
0.233333 0.8 0
0.233333 0.833333 0
0.233333 0.866667 0
0.233333 0.9 0
0.233333 0.933333 0
0.233333 0.966667 0
0.266667 0.0333333 0
0.266667 0.0666667 0
0.266667 0.1 0
0.266667 0.133333 0
0.266667 0.166667 0
0.266667 0.2 0
0.266667 0.233333 0
0.266667 0.266667 0
0.266667 0.3 0
0.266667 0.333333 0
0.266667 0.366667 0
0.266667 0.4 0
0.266667 0.433333 0
0.266667 0.466667 0
0.266667 0.5 0
0.266667 0.533333 0
0.266667 0.566667 0
0.266667 0.6 0
0.266667 0.633333 0
0.266667 0.666667 0
0.266667 0.7 0
0.266667 0.733333 0
0.266667 0.766667 0
0.266667 0.8 0
0.266667 0.833333 0
0.266667 0.866667 0
0.266667 0.9 0
0.266667 0.933333 0
0.266667 0.966667 0
0.3 0.0333333 0
0.3 0.0666667 0
0.3 0.1 0
0.3 0.133333 0
0.3 0.166667 0
0.3 0.2 0
0.3 0.233333 0
0.3 0.266667 0
0.3 0.3 0
0.3 0.333333 0
0.3 0.366667 0
0.3 0.4 0
0.3 0.433333 0
0.3 0.466667 0
0.3 0.5 0
0.3 0.533333 0
0.3 0.566667 0
0.3 0.6 0
0.3 0.633333 0
0.3 0.666667 0
0.3 0.7 0
0.3 0.733333 0
0.3 0.766667 0
0.3 0.8 0
0.3 0.833333 0
0.3 0.866667 0
0.3 0.9 0
0.3 0.933333 0
0.3 0.966667 0
0.333333 0.0333333 0
0.333333 0.0666667 0
0.333333 0.1 0
0.333333 0.133333 0
0.333333 0.166667 0
0.333333 0.2 0
0.333333 0.233333 0
0.333333 0.266667 0
0.333333 0.3 0
0.333333 0.333333 0
0.333333 0.366667 0
0.333333 0.4 0
0.333333 0.433333 0
0.333333 0.466667 0
0.333333 0.5 0
0.333333 0.533333 0
0.333333 0.566667 0
0.333333 0.6 0
0.333333 0.633333 0
0.333333 0.666667 0
0.333333 0.7 0
0.333333 0.733333 0
0.333333 0.766667 0
0.333333 0.8 0
0.333333 0.833333 0
0.333333 0.866667 0
0.333333 0.9 0
0.333333 0.933333 0
0.333333 0.966667 0
0.366667 0.0333333 0
0.366667 0.0666667 0
0.366667 0.1 0
0.366667 0.133333 0
0.366667 0.166667 0
0.366667 0.2 0
0.366667 0.233333 0
0.366667 0.266667 0
0.366667 0.3 0
0.366667 0.333333 0
0.366667 0.366667 0
0.366667 0.4 0
0.366667 0.433333 0
0.366667 0.466667 0
0.366667 0.5 0
0.366667 0.533333 0
0.366667 0.566667 0
0.366667 0.6 0
0.366667 0.633333 0
0.366667 0.666667 0
0.366667 0.7 0
0.366667 0.733333 0
0.366667 0.766667 0
0.366667 0.8 0
0.366667 0.833333 0
0.366667 0.866667 0
0.366667 0.9 0
0.366667 0.933333 0
0.366667 0.966667 0
0.4 0.0333333 0
0.4 0.0666667 0
0.4 0.1 0
0.4 0.133333 0
0.4 0.166667 0
0.4 0.2 0
0.4 0.233333 0
0.4 0.266667 0
0.4 0.3 0
0.4 0.333333 0
0.4 0.366667 0
0.4 0.4 0
0.4 0.433333 0
0.4 0.466667 0
0.4 0.5 0
0.4 0.533333 0
0.4 0.566667 0
0.4 0.6 0
0.4 0.633333 0
0.4 0.666667 0
0.4 0.7 0
0.4 0.733333 0
0.4 0.766667 0
0.4 0.8 0
0.4 0.833333 0
0.4 0.866667 0
0.4 0.9 0
0.4 0.933333 0
0.4 0.966667 0
0.433333 0.0333333 0
0.433333 0.0666667 0
0.433333 0.1 0
0.433333 0.133333 0
0.433333 0.166667 0
0.433333 0.2 0
0.433333 0.233333 0
0.433333 0.266667 0
0.433333 0.3 0
0.433333 0.333333 0
0.433333 0.366667 0
0.433333 0.4 0
0.433333 0.433333 0
0.433333 0.466667 0
0.433333 0.5 0
0.433333 0.533333 0
0.433333 0.566667 0
0.433333 0.6 0
0.433333 0.633333 0
0.433333 0.666667 0
0.433333 0.7 0
0.433333 0.733333 0
0.433333 0.766667 0
0.433333 0.8 0
0.433333 0.833333 0
0.433333 0.866667 0
0.433333 0.9 0
0.433333 0.933333 0
0.433333 0.966667 0
0.466667 0.0333333 0
0.466667 0.0666667 0
0.466667 0.1 0
0.466667 0.133333 0
0.466667 0.166667 0
0.466667 0.2 0
0.466667 0.233333 0
0.466667 0.266667 0
0.466667 0.3 0
0.466667 0.333333 0
0.466667 0.366667 0
0.466667 0.4 0
0.466667 0.433333 0
0.466667 0.466667 0
0.466667 0.5 0
0.466667 0.533333 0
0.466667 0.566667 0
0.466667 0.6 0
0.466667 0.633333 0
0.466667 0.666667 0
0.466667 0.7 0
0.466667 0.733333 0
0.466667 0.766667 0
0.466667 0.8 0
0.466667 0.833333 0
0.466667 0.866667 0
0.466667 0.9 0
0.466667 0.933333 0
0.466667 0.966667 0
0.5 0.0333333 0
0.5 0.0666667 0
0.5 0.1 0
0.5 0.133333 0
0.5 0.166667 0
0.5 0.2 0
0.5 0.233333 0
0.5 0.266667 0
0.5 0.3 0
0.5 0.333333 0
0.5 0.366667 0
0.5 0.4 0
0.5 0.433333 0
0.5 0.466667 0
0.5 0.5 0
0.5 0.533333 0
0.5 0.566667 0
0.5 0.6 0
0.5 0.633333 0
0.5 0.666667 0
0.5 0.7 0
0.5 0.733333 0
0.5 0.766667 0
0.5 0.8 0
0.5 0.833333 0
0.5 0.866667 0
0.5 0.9 0
0.5 0.933333 0
0.5 0.966667 0
0.533333 0.0333333 0
0.533333 0.0666667 0
0.533333 0.1 0
0.533333 0.133333 0
0.533333 0.166667 0
0.533333 0.2 0
0.533333 0.233333 0
0.533333 0.266667 0
0.533333 0.3 0
0.533333 0.333333 0
0.533333 0.366667 0
0.533333 0.4 0
0.533333 0.433333 0
0.533333 0.466667 0
0.533333 0.5 0
0.533333 0.533333 0
0.533333 0.566667 0
0.533333 0.6 0
0.533333 0.633333 0
0.533333 0.666667 0
0.533333 0.7 0
0.533333 0.733333 0
0.533333 0.766667 0
0.533333 0.8 0
0.533333 0.833333 0
0.533333 0.866667 0
0.533333 0.9 0
0.533333 0.933333 0
0.533333 0.966667 0
0.566667 0.0333333 0
0.566667 0.0666667 0
0.566667 0.1 0
0.566667 0.133333 0
0.566667 0.166667 0
0.566667 0.2 0
0.566667 0.233333 0
0.566667 0.266667 0
0.566667 0.3 0
0.566667 0.333333 0
0.566667 0.366667 0
0.566667 0.4 0
0.566667 0.433333 0
0.566667 0.466667 0
0.566667 0.5 0
0.566667 0.533333 0
0.566667 0.566667 0
0.566667 0.6 0
0.566667 0.633333 0
0.566667 0.666667 0
0.566667 0.7 0
0.566667 0.733333 0
0.566667 0.766667 0
0.566667 0.8 0
0.566667 0.833333 0
0.566667 0.866667 0
0.566667 0.9 0
0.566667 0.933333 0
0.566667 0.966667 0
0.6 0.0333333 0
0.6 0.0666667 0
0.6 0.1 0
0.6 0.133333 0
[...]
CELL_DATA 900
VECTORS velocity double
7.20523e-05 -7.08978e-05 0.0
-1.48531e-06 -2.8076e-05 0.0
-7.60141e-05 0.000305457 0.0
-0.000136409 0.000861331 0.0
-0.000175505 0.00160585 0.0
-0.000202062 0.00248416 0.0
-0.000221581 0.00347221 0.0
-0.000238981 0.00455505 0.0
-0.000257242 0.00573245 0.0
-0.000278414 0.00701234 0.0
-0.000303865 0.00841007 0.0
-0.000334733 0.00994657 0.0
-0.000372219 0.0116484 0.0
-0.000417912 0.0135485 0.0
-0.000474153 0.0156878 0.0
-0.000544564 0.018119 0.0
-0.000634847 0.0209105 0.0
-0.000754196 0.0241541 0.0
-0.000917915 0.0279749 0.0
-0.0011529 0.0325476 0.0
-0.00150932 0.0381222 0.0
-0.00208686 0.0450712 0.0
-0.00308887 0.0539805 0.0
-0.00493451 0.0658035 0.0
-0.00842562 0.082235 0.0
-0.0149598 0.105821 0.0
-0.0257169 0.141791 0.0
-0.0382186 0.188955 0.0
-0.013614 0.262173 0.0
0.216697 0.173833 0.0
2.60861e-05 5.67865e-06 0.0
-0.000411887 0.000414208 0.0
-0.000846896 0.00142299 0.0
-0.00122227 0.00287516 0.0
-0.00151216 0.0047351 0.0
-0.00174151 0.00691163 0.0
-0.00193448 0.00936247 0.0
-0.00211527 0.0120604 0.0
-0.00230266 0.0150056 0.0
-0.00251154 0.0182162 0.0
-0.00275381 0.021727 0.0
-0.00304019 0.0255861 0.0
-0.00338194 0.0298553 0.0
-0.00379268 0.0346106 0.0
-0.00429052 0.0399457 0.0
-0.00490053 0.0459774 0.0
-0.00565788 0.052852 0.0
-0.0066122 0.0607553 0.0
-0.00783389 0.0699222 0.0
-0.00942454 0.0806485 0.0
-0.0115353 0.0932992 0.0
-0.0144019 0.10831 0.0
-0.0184014 0.126165 0.0
-0.0241461 0.147307 0.0
-0.0324922 0.17192 0.0
-0.0443758 0.199073 0.0
-0.058359 0.225587 0.0
-0.0651978 0.239926 0.0
-0.00336201 0.218152 0.0
0.304732 0.116266 0.0
-0.000310634 7.97481e-05 0.0
-0.00141736 0.000829257 0.0
-0.00246889 0.00241958 0.0
-0.00337864 0.00457373 0.0
-0.00411425 0.00726058 0.0
-0.00471911 0.010369 0.0
-0.00524472 0.0138526 0.0
-0.00574405 0.0176812 0.0
-0.00626158 0.0218576 0.0
-0.00683387 0.0264069 0.0
-0.00749116 0.0313746 0.0
-0.00826079 0.0368228 0.0
-0.00917081 0.0428297 0.0
-0.0102539 0.0494896 0.0
-0.0115515 0.0569151 0.0
-0.013118 0.0652408 0.0
-0.0150252 0.0746265 0.0
-0.017367 0.0852611 0.0
-0.0202635 0.0973612 0.0
-0.0238647 0.111164 0.0
-0.0283519 0.126902 0.0
-0.0339369 0.14475 0.0
-0.0408338 0.164707 0.0
-0.0491735 0.186391 0.0
-0.0585963 0.20856 0.0
-0.0672415 0.228409 0.0
-0.0677045 0.239374 0.0
-0.0384516 0.230989 0.0
0.0914821 0.173543 0.0
0.475657 0.0769515 0.0
-0.000851602 0.000135458 0.0
-0.00281708 0.00115061 0.0
-0.00459289 0.0031811 0.0
-0.00610562 0.0058359 0.0
-0.00734593 0.00908657 0.0
-0.00838357 0.0128086 0.0
-0.00930091 0.016958 0.0
-0.0101808 0.0215054 0.0
-0.0110945 0.0264573 0.0
-0.012101 0.0318424 0.0
-0.0132495 0.0377103 0.0
-0.0145837 0.0441273 0.0
-0.0161474 0.051174 0.0
-0.0179893 0.0589451 0.0
-0.0201681 0.0675486 0.0
-0.0227572 0.0771063 0.0
-0.0258471 0.0877522 0.0
-0.0295459 0.0996275 0.0
-0.0339744 0.112867 0.0
-0.0392524 0.127575 0.0
-0.0454704 0.143769 0.0
-0.052636 0.161292 0.0
-0.0605589 0.179646 0.0
-0.0686167 0.19776 0.0
-0.0751129 0.213464 0.0
-0.0758621 0.223127 0.0
-0.059943 0.219732 0.0
-0.000312861 0.195199 0.0
0.167906 0.129406 0.0
0.574673 0.0491534 0.0
-0.0015423 0.000164317 0.0
-0.00452481 0.00134334 0.0
-0.00711404 0.00365206 0.0
-0.00928223 0.00661336 0.0
-0.0110669 0.0101962 0.0
-0.0125735 0.014265 0.0
-0.0139199 0.0187782 0.0
-0.0152202 0.0237086 0.0
-0.0165726 0.029065 0.0
-0.0180584 0.0348774 0.0
-0.0197445 0.0411954 0.0
-0.0216894 0.0480825 0.0
-0.0239493 0.0556139 0.0
-0.026584 0.0638733 0.0
-0.029662 0.0729513 0.0
-0.0332631 0.0829415 0.0
-0.0374781 0.0939348 0.0
-0.0424021 0.106008 0.0
-0.0481164 0.119201 0.0
-0.0546539 0.133483 0.0
-0.0619364 0.148685 0.0
-0.0696679 0.164401 0.0
-0.0771402 0.179817 0.0
-0.0828819 0.193523 0.0
-0.0838705 0.203026 0.0
-0.0739493 0.204734 0.0
-0.0397186 0.19233 0.0
0.0473803 0.160346 0.0
0.242231 0.0963797 0.0
0.646978 0.0309245 0.0
-0.0023032 0.000175558 0.0
-0.00638877 0.00143133 0.0
-0.00983104 0.00387067 0.0
-0.0126674 0.00696682 0.0
-0.0149987 0.0106842 0.0
-0.0169746 0.0148802 0.0
-0.018752 0.0195153 0.0
-0.0204768 0.0245638 0.0
-0.0222732 0.0300364 0.0
-0.0242425 0.0359627 0.0
-0.0264668 0.0423897 0.0
-0.0290158 0.0493753 0.0
-0.0319534 0.0569851 0.0
-0.035344 0.065288 0.0
-0.0392561 0.0743525 0.0
-0.0437636 0.0842409 0.0
-0.0489402 0.0949993 0.0
-0.0548443 0.106643 0.0
-0.0614885 0.11913 0.0
-0.0687834 0.132321 0.0
-0.0764447 0.145911 0.0
-0.0838434 0.15934 0.0
-0.0897576 0.171628 0.0
-0.0919533 0.181255 0.0
-0.0863519 0.185734 0.0
-0.0654688 0.181931 0.0
-0.0147083 0.164386 0.0
0.0933424 0.130549 0.0
0.305036 0.0727665 0.0
0.698495 0.0197117 0.0
-0.00308674 0.000174798 0.0
-0.00830673 0.00143771 0.0
-0.0126097 0.00388515 0.0
-0.0161077 0.00697391 0.0
-0.0189726 0.0106648 0.0
-0.0214038 0.0148129 0.0
-0.0235997 0.0193808 0.0
-0.025738 0.0243446 0.0
-0.0279676 0.0297159 0.0
-0.0304075 0.0355235 0.0
-0.0331524 0.0418111 0.0
-0.0362795 0.04863 0.0
-0.0398561 0.0560358 0.0
-0.0439449 0.0640828 0.0
-0.0486075 0.0728188 0.0
-0.0539014 0.0822777 0.0
-0.0598708 0.092468 0.0
-0.0665225 0.103356 0.0
-0.0737829 0.114837 0.0
-0.0814234 0.126698 0.0
-0.0889422 0.138548 0.0
-0.0953812 0.149746 0.0
-0.0990441 0.159256 0.0
-0.0970419 0.16558 0.0
-0.0844844 0.166389 0.0
-0.052972 0.159127 0.0
0.0124708 0.139102 0.0
0.136427 0.106329 0.0
0.358303 0.0555939 0.0
0.73615 0.0127411 0.0
-0.0038537 0.000167058 0.0
-0.0101891 0.0013859 0.0
-0.0153289 0.00374618 0.0
-0.019462 0.00671505 0.0
-0.022833 0.0102519 0.0
-0.0256935 0.0142155 0.0
-0.0282839 0.0185709 0.0
-0.0308133 0.0232969 0.0
-0.0334534 0.0284062 0.0
-0.0363392 0.0339268 0.0
-0.039575 0.0398992 0.0
-0.0432425 0.0463695 0.0
-0.0474085 0.0533847 0.0
-0.0521296 0.0609869 0.0
-0.0574541 0.0692078 0.0
-0.0634167 0.0780595 0.0
-0.0700231 0.0875227 0.0
-0.0772196 0.0975281 0.0
-0.0848379 0.10793 0.0
-0.0925051 0.118465 0.0
-0.0995055 0.1287 0.0
-0.104575 0.137958 0.0
-0.105603 0.145209 0.0
-0.0991651 0.149041 0.0
-0.0797909 0.14737 0.0
-0.038572 0.138099 0.0
0.0389673 0.117682 0.0
0.1751 0.0870757 0.0
0.402858 0.0431123 0.0
0.764224 0.00841063 0.0
-0.00457911 0.000155018 0.0
-0.0119729 0.00129237 0.0
-0.0179007 0.00349316 0.0
-0.0226271 0.00625498 0.0
-0.0264671 0.0095385 0.0
-0.0297242 0.0132114 0.0
-0.0326798 0.017243 0.0
-0.0355729 0.0216158 0.0
-0.0385966 0.026344 0.0
-0.0418998 0.0314557 0.0
-0.0455943 0.0369896 0.0
-0.0497641 0.042988 0.0
-0.0544725 0.0494921 0.0
-0.0597672 0.0565362 0.0
-0.0656792 0.0641412 0.0
-0.0722154 0.0723052 0.0
-0.0793387 0.0809909 0.0
-0.0869293 0.0901072 0.0
-0.0947207 0.0994823 0.0
-0.102196 0.108828 0.0
-0.108438 0.117685 0.0
-0.111903 0.125376 0.0
-0.110127 0.130907 0.0
-0.0992638 0.132973 0.0
-0.0734469 0.129763 0.0
-0.0235725 0.119558 0.0
0.0641081 0.0997648 0.0
0.209526 0.0717476 0.0
0.440163 0.0338977 0.0
0.7856 0.00568433 0.0
-0.00524445 0.000140205 0.0
-0.0136092 0.00116838 0.0
-0.020256 0.0031545 0.0
-0.0255206 0.00564157 0.0
-0.0297843 0.00859399 0.0
-0.0333999 0.0118932 0.0
-0.0366875 0.0155144 0.0
-0.0399145 0.0194451 0.0
-0.0432933 0.0237023 0.0
-0.0469848 0.028315 0.0
-0.0511073 0.0333215 0.0
-0.0557451 0.038763 0.0
-0.0609569 0.044678 0.0
-0.0667791 0.0510977 0.0
-0.0732237 0.0580382 0.0
-0.0802674 0.0654913 0.0
-0.0878267 0.0734117 0.0
-0.0957134 0.0816974 0.0
-0.103562 0.0901637 0.0
-0.110714 0.0985087 0.0
-0.11606 0.106267 0.0
-0.117811 0.112766 0.0
-0.113202 0.117063 0.0
-0.0980699 0.117958 0.0
-0.0662987 0.1139 0.0
-0.00879638 0.103455 0.0
0.0873313 0.0848047 0.0
0.239848 0.0594979 0.0
0.471415 0.0270042 0.0
0.802176 0.00394293 0.0
-0.00583621 0.000123237 0.0
-0.0150614 0.00102062 0.0
-0.0223416 0.00274873 0.0
-0.0280785 0.00490731 0.0
-0.0327139 0.0074665 0.0
-0.036646 0.0103256 0.0
-0.0402307 0.013467 0.0
-0.0437606 0.0168849 0.0
-0.047466 0.0205998 0.0
-0.0515186 0.0246431 0.0
-0.0560419 0.0290546 0.0
-0.0611202 0.0338763 0.0
-0.066807 0.0391481 0.0
-0.0731271 0.0449025 0.0
-0.0800728 0.0511571 0.0
-0.0875893 0.0579052 0.0
-0.0955456 0.0651019 0.0
-0.103683 0.0726445 0.0
-0.111534 0.0803452 0.0
-0.118304 0.0878974 0.0
-0.1227 0.0948344 0.0
-0.12271 0.100493 0.0
-0.11532 0.103975 0.0
-0.0961307 0.104169 0.0
-0.0588833 0.099754 0.0
0.00537388 0.0894934 0.0
0.108491 0.0723061 0.0
0.26643 0.04964 0.0
0.497668 0.021771 0.0
0.81525 0.00281003 0.0
-0.00634321 0.00010431 0.0
-0.0162996 0.000853002 0.0
-0.0241144 0.00228761 0.0
-0.0302488 0.00407364 0.0
-0.0351983 0.00618848 0.0
-0.0394015 0.00855237 0.0
-0.043246 0.0111564 0.0
-0.0470472 0.0140026 0.0
-0.0510511 0.0171157 0.0
-0.0554393 0.0205306 0.0
-0.0603401 0.0242902 0.0
-0.0658384 0.02844 0.0
-0.0719829 0.0330245 0.0
-0.078788 0.0380822 0.0
-0.0862266 0.0436386 0.0
-0.0942128 0.0496956 0.0
-0.102567 0.0562178 0.0
-0.110959 0.0631102 0.0
-0.118817 0.07019 0.0
-0.125208 0.0771522 0.0
-0.128661 0.0835304 0.0
-0.126961 0.088668 0.0
-0.116883 0.0916977 0.0
-0.0938641 0.0915827 0.0
-0.0515988 0.0871726 0.0
0.0185451 0.0774868 0.0
0.127559 0.0618393 0.0
0.289663 0.0416574 0.0
0.519795 0.0177441 0.0
0.825718 0.00205867 0.0
-0.00675574 8.34139e-05 0.0
-0.0172989 0.000667807 0.0
-0.0255386 0.00177872 0.0
-0.0319881 0.00315505 0.0
-0.0371891 0.00478241 0.0
-0.0416149 0.00660441 0.0
-0.04568 0.00862157 0.0
-0.0497196 0.0108444 0.0
-0.0539935 0.0133028 0.0
-0.0586927 0.0160358 0.0
-0.0639507 0.0190906 0.0
-0.069854 0.0225183 0.0
-0.0764489 0.0263715 0.0
-0.083741 0.0306991 0.0
-0.0916863 0.0355403 0.0
-0.100169 0.0409134 0.0
-0.108961 0.0468004 0.0
-0.117657 0.0531236 0.0
-0.12558 0.0597127 0.0
-0.13165 0.0662692 0.0
-0.134222 0.0723277 0.0
-0.130886 0.0772315 0.0
-0.11824 0.0801298 0.0
-0.0916168 0.0800396 0.0
-0.0447561 0.0759364 0.0
0.0305967 0.0670599 0.0
0.144627 0.0529711 0.0
0.309936 0.0351068 0.0
0.538507 0.0145867 0.0
0.83421 0.00154641 0.0
-0.00706477 6.04909e-05 0.0
-0.0180372 0.000466638 0.0
-0.0265832 0.00122774 0.0
-0.0332592 0.00216265 0.0
-0.0386447 0.00326566 0.0
-0.0432412 0.00450545 0.0
-0.0474852 0.00589225 0.0
-0.051728 0.00744542 0.0
-0.0562418 0.00919972 0.0
-0.0612265 0.0111989 0.0
-0.0668219 0.013495 0.0
-0.0731187 0.0161467 0.0
-0.0801634 0.019217 0.0
-0.0879567 0.0227698 0.0
-0.0964411 0.0268634 0.0
-0.105474 0.0315395 0.0
-0.114779 0.0368074 0.0
-0.123873 0.0426155 0.0
-0.131967 0.0488142 0.0
-0.137828 0.0551179 0.0
-0.13963 0.0610633 0.0
-0.134771 0.0659875 0.0
-0.119695 0.0690395 0.0
-0.0896801 0.0692638 0.0
-0.038586 0.0657241 0.0
0.0414252 0.0578204 0.0
0.159771 0.0453062 0.0
0.327568 0.0296138 0.0
0.554357 0.0120433 0.0
0.841162 0.00118157 0.0
-0.00726212 3.55302e-05 0.0
-0.0184956 0.000251064 0.0
-0.0272219 0.000640014 0.0
-0.0340306 0.00110676 0.0
-0.0395299 0.00165437 0.0
-0.0442418 0.00227747 0.0
-0.0486193 0.00299565 0.0
-0.0530267 0.0038367 0.0
-0.0577464 0.00483972 0.0
-0.0629874 0.00605253 0.0
-0.0688979 0.00753242 0.0
-0.0755753 0.00934604 0.0
-0.0830712 0.011569 0.0
-0.0913865 0.0142834 0.0
-0.100456 0.0175722 0.0
-0.110113 0.0215074 0.0
-0.120039 0.0261347 0.0
-0.129667 0.0314389 0.0
-0.138086 0.0373009 0.0
-0.143905 0.0434571 0.0
-0.145098 0.0494512 0.0
-0.13887 0.0546107 0.0
-0.12152 0.0580699 0.0
-0.0883094 0.0588725 0.0
-0.0332813 0.056133 0.0
0.0509439 0.0493568 0.0
0.173047 0.0384573 0.0
0.342808 0.0248419 0.0
0.567751 0.00990607 0.0
0.846867 0.000901544 0.0
-0.00733998 8.53852e-06 0.0
-0.0186571 2.2931e-05 0.0
-0.0274319 2.16172e-05 0.0
-0.0342756 -1.12349e-06 0.0
-0.0398141 -3.38456e-05 0.0
-0.0445823 -5.57003e-05 0.0
-0.0490435 -3.86388e-05 0.0
-0.0535712 5.23276e-05 0.0
-0.0584566 0.00025914 0.0
-0.0639181 0.000632444 0.0
-0.0701145 0.00123361 0.0
-0.0771546 0.00213701 0.0
-0.0851005 0.00343147 0.0
-0.0939603 0.00521937 0.0
-0.103667 0.00761242 0.0
-0.114037 0.010719 0.0
-0.124712 0.0146325 0.0
-0.135042 0.019384 0.0
-0.143988 0.0248957 0.0
-0.149985 0.0309401 0.0
-0.150791 0.0370788 0.0
-0.143398 0.042634 0.0
-0.123962 0.0467183 0.0
-0.0877497 0.0483488 0.0
-0.0290405 0.0466547 0.0
0.0590424 0.0411903 0.0
0.18446 0.032003 0.0
0.355803 0.0204552 0.0
0.57895 0.00798634 0.0
0.8515 0.000658645 0.0
-0.00729231 -2.01886e-05 0.0
-0.0185095 -0.000215113 0.0
-0.0271973 -0.000619937 0.0
-0.033975 -0.001147 0.0
-0.039475 -0.00177719 0.0
-0.0442366 -0.00246425 0.0
-0.0487268 -0.00317344 0.0
-0.0533237 -0.00386466 0.0
-0.0583256 -0.00449552 0.0
-0.0639606 -0.00501501 0.0
-0.0704008 -0.00536004 0.0
-0.077771 -0.00545044 0.0
-0.086151 -0.00518507 0.0
-0.0955646 -0.00444017 0.0
-0.105953 -0.00307172 0.0
-0.117131 -0.000927543 0.0
-0.128709 0.00213461 0.0
-0.139937 0.00619736 0.0
-0.14965 0.0112484 0.0
-0.156095 0.0171167 0.0
-0.1568 0.0233991 0.0
-0.14852 0.0294273 0.0
-0.127242 0.0343001 0.0
-0.0882497 0.0369929 0.0
-0.0260927 0.0366186 0.0
0.0655505 0.0327171 0.0
0.193921 0.0254399 0.0
0.366574 0.0160796 0.0
0.588058 0.00609054 0.0
0.855128 0.000410596 0.0
-0.00711392 -5.02287e-05 0.0
-0.0180432 -0.000459398 0.0
-0.0265063 -0.00127443 0.0
-0.0331159 -0.0023122 0.0
-0.0384977 -0.00354707 0.0
-0.0431854 -0.00490926 0.0
-0.047643 -0.00635992 0.0
-0.0522487 -0.0078567 0.0
-0.0573058 -0.0093599 0.0
-0.0630529 -0.0108218 0.0
-0.0696782 -0.0121814 0.0
-0.0773284 -0.0133564 0.0
-0.0861093 -0.014237 0.0
-0.0960716 -0.0146802 0.0
-0.107177 -0.0145107 0.0
-0.119241 -0.0135297 0.0
-0.131833 -0.0115455 0.0
-0.144156 -0.00840148 0.0
-0.154912 -0.00403331 0.0
-0.162151 0.00146206 0.0
-0.163113 0.00773631 0.0
-0.154305 0.0141826 0.0
-0.131532 0.0199191 0.0
-0.0900722 0.0238778 0.0
-0.0247425 0.0251336 0.0
0.0701826 0.023143 0.0
0.2012 0.0181219 0.0
0.37497 0.0112585 0.0
0.59499 0.00399793 0.0
0.857695 0.000114603 0.0
-0.00680248 -8.11005e-05 0.0
-0.0172555 -0.000704806 0.0
-0.0253574 -0.00192758 0.0
-0.0316972 -0.00347132 0.0
-0.0368797 -0.00530546 0.0
-0.0414226 -0.00733929 0.0
-0.0457792 -0.00953277 0.0
-0.050323 -0.0118448 0.0
-0.0553597 -0.0142425 0.0
-0.0611382 -0.016686 0.0
-0.0678651 -0.0191222 0.0
-0.0757143 -0.0214735 0.0
-0.0848262 -0.0236282 0.0
-0.0952902 -0.025432 0.0
-0.107103 -0.0266841 0.0
-0.120099 -0.0271433 0.0
-0.133836 -0.0265519 0.0
-0.147452 -0.0246723 0.0
-0.159516 -0.0213501 0.0
-0.16787 -0.0166007 0.0
-0.169536 -0.0106632 0.0
-0.160736 -0.00405476 0.0
-0.136953 0.00244161 0.0
-0.0934526 0.00778678 0.0
-0.0253154 0.0110218 0.0
0.0725535 0.0114385 0.0
0.205871 0.00922678 0.0
0.380576 0.00541802 0.0
0.599416 0.001435 0.0
0.859024 -0.000281044 0.0
-0.00635856 -0.000111951 0.0
-0.0161515 -0.000944168 0.0
-0.0237595 -0.00256032 0.0
-0.0297305 -0.004591 0.0
-0.0346326 -0.00700255 0.0
-0.0389569 -0.00968679 0.0
-0.0431376 -0.0126056 0.0
-0.0475384 -0.0157231 0.0
-0.0524639 -0.0190175 0.0
-0.058172 -0.022463 0.0
-0.0648891 -0.0260214 0.0
-0.0728203 -0.029629 0.0
-0.0821481 -0.0331836 0.0
-0.0930125 -0.0365319 0.0
-0.105463 -0.0394602 0.0
-0.119371 -0.0416948 0.0
-0.134305 -0.0429197 0.0
-0.149362 -0.0428124 0.0
-0.162994 -0.0411065 0.0
-0.172847 -0.0376772 0.0
-0.175678 -0.0326135 0.0
-0.167426 -0.0262882 0.0
-0.143403 -0.0193364 0.0
-0.0986764 -0.0126375 0.0
-0.0283985 -0.0071593 0.0
0.0719622 -0.0037649 0.0
0.207252 -0.0023715 0.0
0.382768 -0.00216765 0.0
0.600755 -0.0018629 0.0
0.858742 -0.000794915 0.0
-0.00578724 -0.000141613 0.0
-0.0147469 -0.00116807 0.0
-0.0217367 -0.00314796 0.0
-0.0272452 -0.00562828 0.0
-0.0317877 -0.00857439 0.0
-0.0358181 -0.0118647 0.0
-0.0397432 -0.0154662 0.0
-0.0439105 -0.0193516 0.0
-0.0486193 -0.023515 0.0
-0.0541334 -0.0279505 0.0
-0.0606978 -0.0326437 0.0
-0.0685502 -0.0375564 0.0
-0.0779208 -0.0426113 0.0
-0.0890104 -0.0476747 0.0
-0.101937 -0.0525416 0.0
-0.116635 -0.0569278 0.0
-0.132715 -0.0604771 0.0
-0.149264 -0.0627899 0.0
-0.164655 -0.0634767 0.0
-0.176372 -0.0622352 0.0
-0.18094 -0.0589258 0.0
-0.174015 -0.0536442 0.0
-0.150621 -0.0467564 0.0
-0.105627 -0.0389086 0.0
-0.0341676 -0.030963 0.0
0.0677936 -0.0238482 0.0
0.204255 -0.0177696 0.0
0.380171 -0.0122341 0.0
0.597832 -0.00623108 0.0
0.856376 -0.00148353 0.0
-0.00509939 -0.000168481 0.0
-0.0130711 -0.00136429 0.0
-0.0193316 -0.00365903 0.0
-0.0242924 -0.00652901 0.0
-0.028401 -0.00994066 0.0
-0.0320636 -0.0137637 0.0
-0.0356515 -0.0179723 0.0
-0.0394892 -0.0225511 0.0
-0.0438648 -0.0275136 0.0
-0.0490427 -0.0328793 0.0
-0.0552822 -0.0386664 0.0
-0.0628511 -0.044875 0.0
-0.0720274 -0.0514712 0.0
-0.0830788 -0.058366 0.0
-0.096205 -0.065394 0.0
-0.11143 -0.0722952 0.0
-0.128438 -0.0787079 0.0
-0.146361 -0.0841805 0.0
-0.163552 -0.0882054 0.0
-0.177406 -0.090276 0.0
-0.184286 -0.0899515 0.0
-0.179614 -0.0869254 0.0
-0.158145 -0.0810989 0.0
-0.114439 -0.0726376 0.0
-0.0433913 -0.0621064 0.0
0.0588777 -0.0503451 0.0
0.195567 -0.0382201 0.0
0.371455 -0.0257162 0.0
0.589441 -0.0121933 0.0
0.851218 -0.00247659 0.0
-0.00431321 -0.000190413 0.0
-0.0111704 -0.00151743 0.0
-0.0166093 -0.0040546 0.0
-0.0209501 -0.00722685 0.0
-0.0245585 -0.0110036 0.0
-0.0277847 -0.0152507 0.0
-0.0309566 -0.0199507 0.0
-0.034369 -0.0251014 0.0
-0.038291 -0.0307374 0.0
-0.04298 -0.0369079 0.0
-0.0487012 -0.04367 0.0
-0.0557438 -0.0510748 0.0
-0.0644273 -0.0591511 0.0
-0.0750839 -0.0678832 0.0
-0.0880022 -0.0771842 0.0
-0.103315 -0.0868668 0.0
-0.120822 -0.0966172 0.0
-0.13976 -0.10598 0.0
-0.158557 -0.114362 0.0
-0.17463 -0.121048 0.0
-0.184302 -0.125242 0.0
-0.182885 -0.126116 0.0
-0.164924 -0.122903 0.0
-0.124628 -0.114994 0.0
-0.0564194 -0.102335 0.0
0.0440255 -0.0852666 0.0
0.17946 -0.0656236 0.0
0.354567 -0.0441125 0.0
0.573616 -0.0205652 0.0
0.842122 -0.00396826 0.0
-0.00345683 -0.000204446 0.0
-0.00911245 -0.00160834 0.0
-0.0136637 -0.00428792 0.0
-0.0173292 -0.0076436 0.0
-0.0203838 -0.0116491 0.0
-0.0231154 -0.016171 0.0
-0.0258025 -0.0211993 0.0
-0.0287032 -0.0267445 0.0
-0.0320594 -0.032861 0.0
-0.0361111 -0.0396275 0.0
-0.0411162 -0.0471437 0.0
-0.0473706 -0.0555193 0.0
-0.0552191 -0.0648619 0.0
-0.0650448 -0.0752566 0.0
-0.0772192 -0.0867377 0.0
-0.0919935 -0.0992487 0.0
-0.10932 -0.112596 0.0
-0.128612 -0.1264 0.0
-0.148483 -0.140048 0.0
-0.166528 -0.152665 0.0
-0.179224 -0.163097 0.0
-0.181965 -0.169922 0.0
-0.169254 -0.171537 0.0
-0.13501 -0.166284 0.0
-0.0730245 -0.153039 0.0
0.0224607 -0.13092 0.0
0.15427 -0.102429 0.0
0.327132 -0.0696166 0.0
0.547804 -0.0327337 0.0
0.827421 -0.00635786 0.0
-0.00256887 -0.000206827 0.0
-0.00698715 -0.00161498 0.0
-0.010617 -0.0043069 0.0
-0.0135731 -0.00769355 0.0
-0.0160369 -0.0117531 0.0
-0.018232 -0.0163566 0.0
-0.0203834 -0.0214989 0.0
-0.0227064 -0.027199 0.0
-0.0254073 -0.0335266 0.0
-0.0286963 -0.0405853 0.0
-0.0328081 -0.0485135 0.0
-0.0380237 -0.0574791 0.0
-0.044687 -0.0676747 0.0
-0.0532037 -0.0793039 0.0
-0.0640035 -0.0925567 0.0
-0.0774469 -0.107566 0.0
-0.0936583 -0.124344 0.0
-0.112293 -0.142692 0.0
-0.132275 -0.162104 0.0
-0.151566 -0.181657 0.0
-0.167033 -0.199929 0.0
-0.174435 -0.214943 0.0
-0.168519 -0.224205 0.0
-0.143155 -0.22484 0.0
-0.0915722 -0.214058 0.0
-0.00638015 -0.189716 0.0
0.117753 -0.151769 0.0
0.285721 -0.105609 0.0
0.507928 -0.0513218 0.0
0.803978 -0.0105848 0.0
-0.00170462 -0.000192146 0.0
-0.004915 -0.00151233 0.0
-0.00762991 -0.00405755 0.0
-0.00987015 -0.00729074 0.0
-0.0117297 -0.0111926 0.0
-0.0133711 -0.0156413 0.0
-0.0149649 -0.0206311 0.0
-0.0166798 -0.0261837 0.0
-0.0186785 -0.0323753 0.0
-0.0211304 -0.0393237 0.0
-0.0242296 -0.0471936 0.0
-0.0282179 -0.0561984 0.0
-0.0334044 -0.0666039 0.0
-0.0401746 -0.0787278 0.0
-0.0489705 -0.0929266 0.0
-0.0602221 -0.10956 0.0
-0.0742127 -0.128919 0.0
-0.0908747 -0.151113 0.0
-0.109545 -0.17591 0.0
-0.128736 -0.202556 0.0
-0.145971 -0.229587 0.0
-0.157712 -0.254688 0.0
-0.159339 -0.274622 0.0
-0.145095 -0.285301 0.0
-0.107968 -0.282007 0.0
-0.0393167 -0.260596 0.0
0.0703943 -0.216713 0.0
0.228472 -0.156655 0.0
0.450045 -0.080983 0.0
0.767289 -0.0186677 0.0
-0.000927152 -0.000155407 0.0
-0.00302781 -0.00128105 0.0
-0.00487488 -0.00350067 0.0
-0.00641933 -0.00637232 0.0
-0.00768632 -0.00987482 0.0
-0.00878498 -0.0138944 0.0
-0.00983409 -0.0184192 0.0
-0.0109534 -0.0234661 0.0
-0.0122578 -0.0291065 0.0
-0.013867 -0.0354573 0.0
-0.0159208 -0.0426884 0.0
-0.0185984 -0.0510308 0.0
-0.0221394 -0.0607897 0.0
-0.0268581 -0.0723578 0.0
-0.0331422 -0.0862219 0.0
-0.0414165 -0.102948 0.0
-0.0520562 -0.123129 0.0