# vtk DataFile Version 3.0
Malha 2D com triângulos e temperatura
ASCII
DATASET UNSTRUCTURED_GRID

POINTS 961 double
0 0 0
1 0 0
1 1 0
0 1 0
0.0333333 0 0
0.0666667 0 0
0.1 0 0
0.133333 0 0
0.166667 0 0
0.2 0 0
0.233333 0 0
0.266667 0 0
0.3 0 0
0.333333 0 0
0.366667 0 0
0.4 0 0
0.433333 0 0
0.466667 0 0
0.5 0 0
0.533333 0 0
0.566667 0 0
0.6 0 0
0.633333 0 0
0.666667 0 0
0.7 0 0
0.733333 0 0
0.766667 0 0
0.8 0 0
0.833333 0 0
0.866667 0 0
0.9 0 0
0.933333 0 0
0.966667 0 0
1 0.0333333 0
1 0.0666667 0
1 0.1 0
1 0.133333 0
1 0.166667 0
1 0.2 0
1 0.233333 0
1 0.266667 0
1 0.3 0
1 0.333333 0
1 0.366667 0
1 0.4 0
1 0.433333 0
1 0.466667 0
1 0.5 0
1 0.533333 0
1 0.566667 0
1 0.6 0
1 0.633333 0
1 0.666667 0
1 0.7 0
1 0.733333 0
1 0.766667 0
1 0.8 0
1 0.833333 0
1 0.866667 0
1 0.9 0
1 0.933333 0
1 0.966667 0
0.966667 1 0
0.933333 1 0
0.9 1 0
0.866667 1 0
0.833333 1 0
0.8 1 0
0.766667 1 0
0.733333 1 0
0.7 1 0
0.666667 1 0
0.633333 1 0
0.6 1 0
0.566667 1 0
0.533333 1 0
0.5 1 0
0.466667 1 0
0.433333 1 0
0.4 1 0
0.366667 1 0
0.333333 1 0
0.3 1 0
0.266667 1 0
0.233333 1 0
0.2 1 0
0.166667 1 0
0.133333 1 0
0.1 1 0
0.0666667 1 0
0.0333333 1 0
0 0.966667 0
0 0.933333 0
0 0.9 0
0 0.866667 0
0 0.833333 0
0 0.8 0
0 0.766667 0
0 0.733333 0
0 0.7 0
0 0.666667 0
0 0.633333 0
0 0.6 0
0 0.566667 0
0 0.533333 0
0 0.5 0
0 0.466667 0
0 0.433333 0
0 0.4 0
0 0.366667 0
0 0.333333 0
0 0.3 0
0 0.266667 0
0 0.233333 0
0 0.2 0
0 0.166667 0
0 0.133333 0
0 0.1 0
0 0.0666667 0
0 0.0333333 0
0.0333333 0.0333333 0
0.0333333 0.0666667 0
0.0333333 0.1 0
0.0333333 0.133333 0
0.0333333 0.166667 0
0.0333333 0.2 0
0.0333333 0.233333 0
0.0333333 0.266667 0
0.0333333 0.3 0
0.0333333 0.333333 0
0.0333333 0.366667 0
0.0333333 0.4 0
0.0333333 0.433333 0
0.0333333 0.466667 0
0.0333333 0.5 0
0.0333333 0.533333 0
0.0333333 0.566667 0
0.0333333 0.6 0
0.0333333 0.633333 0
0.0333333 0.666667 0
0.0333333 0.7 0
0.0333333 0.733333 0
0.0333333 0.766667 0
0.0333333 0.8 0
0.0333333 0.833333 0
0.0333333 0.866667 0
0.0333333 0.9 0
0.0333333 0.933333 0
0.0333333 0.966667 0
0.0666667 0.0333333 0
0.0666667 0.0666667 0
0.0666667 0.1 0
0.0666667 0.133333 0
0.0666667 0.166667 0
0.0666667 0.2 0
0.0666667 0.233333 0
0.0666667 0.266667 0
0.0666667 0.3 0
0.0666667 0.333333 0
0.0666667 0.366667 0
0.0666667 0.4 0
0.0666667 0.433333 0
0.0666667 0.466667 0
0.0666667 0.5 0
0.0666667 0.533333 0
0.0666667 0.566667 0
0.0666667 0.6 0
0.0666667 0.633333 0
0.0666667 0.666667 0
0.0666667 0.7 0
0.0666667 0.733333 0
0.0666667 0.766667 0
0.0666667 0.8 0
0.0666667 0.833333 0
0.0666667 0.866667 0
0.0666667 0.9 0
0.0666667 0.933333 0
0.0666667 0.966667 0
0.1 0.0333333 0
0.1 0.0666667 0
0.1 0.1 0
0.1 0.133333 0
0.1 0.166667 0
0.1 0.2 0
0.1 0.233333 0
0.1 0.266667 0
0.1 0.3 0
0.1 0.333333 0
0.1 0.366667 0
0.1 0.4 0
0.1 0.433333 0
0.1 0.466667 0
0.1 0.5 0
0.1 0.533333 0
0.1 0.566667 0
0.1 0.6 0
0.1 0.633333 0
0.1 0.666667 0
0.1 0.7 0
0.1 0.733333 0
0.1 0.766667 0
0.1 0.8 0
0.1 0.833333 0
0.1 0.866667 0
0.1 0.9 0
0.1 0.933333 0
0.1 0.966667 0
0.133333 0.0333333 0
0.133333 0.0666667 0
0.133333 0.1 0
0.133333 0.133333 0
0.133333 0.166667 0
0.133333 0.2 0
0.133333 0.233333 0
0.133333 0.266667 0
0.133333 0.3 0
0.133333 0.333333 0
0.133333 0.366667 0
0.133333 0.4 0
0.133333 0.433333 0
0.133333 0.466667 0
0.133333 0.5 0
0.133333 0.533333 0
0.133333 0.566667 0
0.133333 0.6 0
0.133333 0.633333 0
0.133333 0.666667 0
0.133333 0.7 0
0.133333 0.733333 0
0.133333 0.766667 0
0.133333 0.8 0
0.133333 0.833333 0
0.133333 0.866667 0
0.133333 0.9 0
0.133333 0.933333 0
0.133333 0.966667 0
0.166667 0.0333333 0
0.166667 0.0666667 0
0.166667 0.1 0
0.166667 0.133333 0
0.166667 0.166667 0
0.166667 0.2 0
0.166667 0.233333 0
0.166667 0.266667 0
0.166667 0.3 0
0.166667 0.333333 0
0.166667 0.366667 0
0.166667 0.4 0
0.166667 0.433333 0
0.166667 0.466667 0
0.166667 0.5 0
0.166667 0.533333 0
0.166667 0.566667 0
0.166667 0.6 0
0.166667 0.633333 0
0.166667 0.666667 0
0.166667 0.7 0
0.166667 0.733333 0
0.166667 0.766667 0
0.166667 0.8 0
0.166667 0.833333 0
0.166667 0.866667 0
0.166667 0.9 0
0.166667 0.933333 0
0.166667 0.966667 0
0.2 0.0333333 0
0.2 0.0666667 0
0.2 0.1 0
0.2 0.133333 0
0.2 0.166667 0
0.2 0.2 0
0.2 0.233333 0
0.2 0.266667 0
0.2 0.3 0
0.2 0.333333 0
0.2 0.366667 0
0.2 0.4 0
0.2 0.433333 0
0.2 0.466667 0
0.2 0.5 0
0.2 0.533333 0
0.2 0.566667 0
0.2 0.6 0
0.2 0.633333 0
0.2 0.666667 0
0.2 0.7 0
0.2 0.733333 0
0.2 0.766667 0
0.2 0.8 0
0.2 0.833333 0
0.2 0.866667 0
0.2 0.9 0
0.2 0.933333 0
0.2 0.966667 0
0.233333 0.0333333 0
0.233333 0.0666667 0
0.233333 0.1 0
0.233333 0.133333 0
0.233333 0.166667 0
0.233333 0.2 0
0.233333 0.233333 0
0.233333 0.266667 0
0.233333 0.3 0
0.233333 0.333333 0
0.233333 0.366667 0
0.233333 0.4 0
0.233333 0.433333 0
0.233333 0.466667 0
0.233333 0.5 0
0.233333 0.533333 0
0.233333 0.566667 0
0.233333 0.6 0
0.233333 0.633333 0
0.233333 0.666667 0
0.233333 0.7 0
0.233333 0.733333 0
0.233333 0.766667 0
0.233333 0.8 0
0.233333 0.833333 0
0.233333 0.866667 0
0.233333 0.9 0
0.233333 0.933333 0
0.233333 0.966667 0
0.266667 0.0333333 0
0.266667 0.0666667 0
0.266667 0.1 0
0.266667 0.133333 0
0.266667 0.166667 0
0.266667 0.2 0
0.266667 0.233333 0
0.266667 0.266667 0
0.266667 0.3 0
0.266667 0.333333 0
0.266667 0.366667 0
0.266667 0.4 0
0.266667 0.433333 0
0.266667 0.466667 0
0.266667 0.5 0
0.266667 0.533333 0
0.266667 0.566667 0
0.266667 0.6 0
0.266667 0.633333 0
0.266667 0.666667 0
0.266667 0.7 0
0.266667 0.733333 0
0.266667 0.766667 0
0.266667 0.8 0
0.266667 0.833333 0
0.266667 0.866667 0
0.266667 0.9 0
0.266667 0.933333 0
0.266667 0.966667 0
0.3 0.0333333 0
0.3 0.0666667 0
0.3 0.1 0
0.3 0.133333 0
0.3 0.166667 0
0.3 0.2 0
0.3 0.233333 0
0.3 0.266667 0
0.3 0.3 0
0.3 0.333333 0
0.3 0.366667 0
0.3 0.4 0
0.3 0.433333 0
0.3 0.466667 0
0.3 0.5 0
0.3 0.533333 0
0.3 0.566667 0
0.3 0.6 0
0.3 0.633333 0
0.3 0.666667 0
0.3 0.7 0
0.3 0.733333 0
0.3 0.766667 0
0.3 0.8 0
0.3 0.833333 0
0.3 0.866667 0
0.3 0.9 0
0.3 0.933333 0
0.3 0.966667 0
0.333333 0.0333333 0
0.333333 0.0666667 0
0.333333 0.1 0
0.333333 0.133333 0
0.333333 0.166667 0
0.333333 0.2 0
0.333333 0.233333 0
0.333333 0.266667 0
0.333333 0.3 0
0.333333 0.333333 0
0.333333 0.366667 0
0.333333 0.4 0
0.333333 0.433333 0
0.333333 0.466667 0
0.333333 0.5 0
0.333333 0.533333 0
0.333333 0.566667 0
0.333333 0.6 0
0.333333 0.633333 0
0.333333 0.666667 0
0.333333 0.7 0
0.333333 0.733333 0
0.333333 0.766667 0
0.333333 0.8 0
0.333333 0.833333 0
0.333333 0.866667 0
0.333333 0.9 0
0.333333 0.933333 0
0.333333 0.966667 0
0.366667 0.0333333 0
0.366667 0.0666667 0
0.366667 0.1 0
0.366667 0.133333 0
0.366667 0.166667 0
0.366667 0.2 0
0.366667 0.233333 0
0.366667 0.266667 0
0.366667 0.3 0
0.366667 0.333333 0
0.366667 0.366667 0
0.366667 0.4 0
0.366667 0.433333 0
0.366667 0.466667 0
0.366667 0.5 0
0.366667 0.533333 0
0.366667 0.566667 0
0.366667 0.6 0
0.366667 0.633333 0
0.366667 0.666667 0
0.366667 0.7 0
0.366667 0.733333 0
0.366667 0.766667 0
0.366667 0.8 0
0.366667 0.833333 0
0.366667 0.866667 0
0.366667 0.9 0
0.366667 0.933333 0
0.366667 0.966667 0
0.4 0.0333333 0
0.4 0.0666667 0
0.4 0.1 0
0.4 0.133333 0
0.4 0.166667 0
0.4 0.2 0
0.4 0.233333 0
0.4 0.266667 0
0.4 0.3 0
0.4 0.333333 0
0.4 0.366667 0
0.4 0.4 0
0.4 0.433333 0
0.4 0.466667 0
0.4 0.5 0
0.4 0.533333 0
0.4 0.566667 0
0.4 0.6 0
0.4 0.633333 0
0.4 0.666667 0
0.4 0.7 0
0.4 0.733333 0
0.4 0.766667 0
0.4 0.8 0
0.4 0.833333 0
0.4 0.866667 0
0.4 0.9 0
0.4 0.933333 0
0.4 0.966667 0
0.433333 0.0333333 0
0.433333 0.0666667 0
0.433333 0.1 0
0.433333 0.133333 0
0.433333 0.166667 0
0.433333 0.2 0
0.433333 0.233333 0
0.433333 0.266667 0
0.433333 0.3 0
0.433333 0.333333 0
0.433333 0.366667 0
0.433333 0.4 0
0.433333 0.433333 0
0.433333 0.466667 0
0.433333 0.5 0
0.433333 0.533333 0
0.433333 0.566667 0
0.433333 0.6 0
0.433333 0.633333 0
0.433333 0.666667 0
0.433333 0.7 0
0.433333 0.733333 0
0.433333 0.766667 0
0.433333 0.8 0
0.433333 0.833333 0
0.433333 0.866667 0
0.433333 0.9 0
0.433333 0.933333 0
0.433333 0.966667 0
0.466667 0.0333333 0
0.466667 0.0666667 0
0.466667 0.1 0
0.466667 0.133333 0
0.466667 0.166667 0
0.466667 0.2 0
0.466667 0.233333 0
0.466667 0.266667 0
0.466667 0.3 0
0.466667 0.333333 0
0.466667 0.366667 0
0.466667 0.4 0
0.466667 0.433333 0
0.466667 0.466667 0
0.466667 0.5 0
0.466667 0.533333 0
0.466667 0.566667 0
0.466667 0.6 0
0.466667 0.633333 0
0.466667 0.666667 0
0.466667 0.7 0
0.466667 0.733333 0
0.466667 0.766667 0
0.466667 0.8 0
0.466667 0.833333 0
0.466667 0.866667 0
0.466667 0.9 0
0.466667 0.933333 0
0.466667 0.966667 0
0.5 0.0333333 0
0.5 0.0666667 0
0.5 0.1 0
0.5 0.133333 0
0.5 0.166667 0
0.5 0.2 0
0.5 0.233333 0
0.5 0.266667 0
0.5 0.3 0
0.5 0.333333 0
0.5 0.366667 0
0.5 0.4 0
0.5 0.433333 0
0.5 0.466667 0
0.5 0.5 0
0.5 0.533333 0
0.5 0.566667 0
0.5 0.6 0
0.5 0.633333 0
0.5 0.666667 0
0.5 0.7 0
0.5 0.733333 0
0.5 0.766667 0
0.5 0.8 0
0.5 0.833333 0
0.5 0.866667 0
0.5 0.9 0
0.5 0.933333 0
0.5 0.966667 0
0.533333 0.0333333 0
0.533333 0.0666667 0
0.533333 0.1 0
0.533333 0.133333 0
0.533333 0.166667 0
0.533333 0.2 0
0.533333 0.233333 0
0.533333 0.266667 0
0.533333 0.3 0
0.533333 0.333333 0
0.533333 0.366667 0
0.533333 0.4 0
0.533333 0.433333 0
0.533333 0.466667 0
0.533333 0.5 0
0.533333 0.533333 0
0.533333 0.566667 0
0.533333 0.6 0
0.533333 0.633333 0
0.533333 0.666667 0
0.533333 0.7 0
0.533333 0.733333 0
0.533333 0.766667 0
0.533333 0.8 0
0.533333 0.833333 0
0.533333 0.866667 0
0.533333 0.9 0
0.533333 0.933333 0
0.533333 0.966667 0
0.566667 0.0333333 0
0.566667 0.0666667 0
0.566667 0.1 0
0.566667 0.133333 0
0.566667 0.166667 0
0.566667 0.2 0
0.566667 0.233333 0
0.566667 0.266667 0
0.566667 0.3 0
0.566667 0.333333 0
0.566667 0.366667 0
0.566667 0.4 0
0.566667 0.433333 0
0.566667 0.466667 0
0.566667 0.5 0
0.566667 0.533333 0
0.566667 0.566667 0
0.566667 0.6 0
0.566667 0.633333 0
0.566667 0.666667 0
0.566667 0.7 0
0.566667 0.733333 0
0.566667 0.766667 0
0.566667 0.8 0
0.566667 0.833333 0
0.566667 0.866667 0
0.566667 0.9 0
0.566667 0.933333 0
0.566667 0.966667 0
0.6 0.0333333 0
0.6 0.0666667 0
0.6 0.1 0
0.6 0.133333 0
[...]
CELL_DATA 900
VECTORS velocity double
5.30902e-05 -5.20494e-05 0.0
-4.91217e-05 9.26912e-05 0.0
-0.000124431 0.000569229 0.0
-0.00017119 0.00121873 0.0
-0.00019328 0.00199485 0.0
-0.000205902 0.00284041 0.0
-0.000216334 0.00374552 0.0
-0.000228891 0.00470936 0.0
-0.000245129 0.00574319 0.0
-0.000265773 0.00686184 0.0
-0.000291267 0.00808363 0.0
-0.000322188 0.00942966 0.0
-0.000359399 0.0109247 0.0
-0.00040419 0.0125984 0.0
-0.000458497 0.0144876 0.0
-0.000525318 0.016639 0.0
-0.000609559 0.0191147 0.0
-0.000719789 0.0220001 0.0
-0.000871873 0.0254176 0.0
-0.00109646 0.029551 0.0
-0.00145373 0.0346854 0.0
-0.00206217 0.0412759 0.0
-0.00315026 0.0500584 0.0
-0.00515232 0.0622001 0.0
-0.00883847 0.0795974 0.0
-0.0154867 0.104816 0.0
-0.0260827 0.142654 0.0
-0.0380886 0.191055 0.0
-0.0129718 0.264043 0.0
0.21738 0.174629 0.0
-9.45413e-05 5.26277e-05 0.0
-0.000631048 0.000631524 0.0
-0.0010398 0.0018338 0.0
-0.00131843 0.00336403 0.0
-0.00149251 0.00516209 0.0
-0.00161777 0.00713217 0.0
-0.00173007 0.00925534 0.0
-0.00185268 0.0115299 0.0
-0.00199798 0.0139777 0.0
-0.00217354 0.0166302 0.0
-0.0023852 0.0195275 0.0
-0.00263928 0.0227172 0.0
-0.0029439 0.0262554 0.0
-0.00331032 0.0302098 0.0
-0.00375461 0.0346634 0.0
-0.00430025 0.039721 0.0
-0.0049826 0.0455188 0.0
-0.0058562 0.0522377 0.0
-0.00700703 0.0601243 0.0
-0.00857215 0.0695192 0.0
-0.0107684 0.0808923 0.0
-0.0139302 0.0948758 0.0
-0.0185427 0.112263 0.0
-0.025258 0.133889 0.0
-0.0347627 0.160284 0.0
-0.0474874 0.190575 0.0
-0.0612454 0.221007 0.0
-0.0664774 0.238891 0.0
-0.00243083 0.218961 0.0
0.306597 0.116983 0.0
-0.000571883 0.000126366 0.0
-0.00182869 0.00101671 0.0
-0.00277231 0.00271671 0.0
-0.00342495 0.00480933 0.0
-0.00386291 0.00723579 0.0
-0.00419488 0.00988406 0.0
-0.00449931 0.0127359 0.0
-0.0048281 0.0157917 0.0
-0.00521175 0.0190799 0.0
-0.00566987 0.0226406 0.0
-0.00621795 0.0265246 0.0
-0.00687226 0.0307917 0.0
-0.00765302 0.0355118 0.0
-0.00858743 0.0407677 0.0
-0.00971339 0.0466587 0.0
-0.0110848 0.0533068 0.0
-0.0127798 0.0608645 0.0
-0.014913 0.0695252 0.0
-0.0176531 0.0795367 0.0
-0.0212447 0.0912149 0.0
-0.0260273 0.104949 0.0
-0.0324303 0.121185 0.0
-0.0408867 0.14032 0.0
-0.0515866 0.162467 0.0
-0.0638149 0.186835 0.0
-0.0747175 0.210789 0.0
-0.0754516 0.22725 0.0
-0.0436853 0.224745 0.0
0.0904522 0.171911 0.0
0.477619 0.0772024 0.0
-0.0012018 0.000167527 0.0
-0.00330316 0.00124008 0.0
-0.00483415 0.00322299 0.0
-0.00588383 0.00561601 0.0
-0.00660508 0.00836557 0.0
-0.00716526 0.0113535 0.0
-0.00768695 0.0145657 0.0
-0.00825064 0.0180048 0.0
-0.00890505 0.0217024 0.0
-0.00968185 0.0257016 0.0
-0.0106062 0.0300559 0.0
-0.011704 0.0348275 0.0
-0.0130066 0.0400878 0.0
-0.0145551 0.0459192 0.0
-0.0164055 0.0524176 0.0
-0.0186349 0.0596963 0.0
-0.0213516 0.0678893 0.0
-0.0247072 0.0771563 0.0
-0.0289126 0.0876841 0.0
-0.0342507 0.0996832 0.0
-0.04107 0.113365 0.0
-0.0497205 0.128887 0.0
-0.0603473 0.146196 0.0
-0.0724224 0.164772 0.0
-0.0837467 0.182975 0.0
-0.0886956 0.197468 0.0
-0.0743053 0.200842 0.0
-0.0121443 0.184295 0.0
0.162495 0.125354 0.0
0.575217 0.0488989 0.0
-0.0019195 0.000178932 0.0
-0.00495037 0.00132081 0.0
-0.00710437 0.00341431 0.0
-0.00856565 0.00591549 0.0
-0.00957999 0.00877323 0.0
-0.0103789 0.0118671 0.0
-0.0111305 0.0151863 0.0
-0.0119439 0.018735 0.0
-0.0128854 0.0225452 0.0
-0.0139981 0.0266593 0.0
-0.0153159 0.0311288 0.0
-0.0168731 0.0360121 0.0
-0.0187097 0.0413747 0.0
-0.0208777 0.0472894 0.0
-0.0234451 0.0538374 0.0
-0.0265039 0.0611094 0.0
-0.030178 0.0692051 0.0
-0.0346342 0.0782321 0.0
-0.0400913 0.0882992 0.0
-0.0468188 0.099502 0.0
-0.0551007 0.111887 0.0
-0.0651112 0.125384 0.0
-0.0766006 0.13965 0.0
-0.088243 0.153851 0.0
-0.0963976 0.166087 0.0
-0.0930568 0.173098 0.0
-0.0621522 0.168433 0.0
0.0273677 0.145585 0.0
0.230496 0.0903853 0.0
0.644732 0.0302285 0.0
-0.00264622 0.000176126 0.0
-0.00662331 0.00131444 0.0
-0.00939771 0.00339826 0.0
-0.0112608 0.00587562 0.0
-0.0125577 0.0086969 0.0
-0.0135867 0.0117428 0.0
-0.0145614 0.0150047 0.0
-0.0156177 0.0184867 0.0
-0.0168379 0.0222199 0.0
-0.0182749 0.0262435 0.0
-0.0199695 0.0306046 0.0
-0.0219616 0.0353546 0.0
-0.0242969 0.0405495 0.0
-0.0270327 0.0462487 0.0
-0.0302425 0.0525147 0.0
-0.0340224 0.0594116 0.0
-0.0384976 0.0670021 0.0
-0.0438292 0.0753419 0.0
-0.0502162 0.0844688 0.0
-0.0578802 0.0943832 0.0
-0.0670023 0.105009 0.0
-0.0775509 0.116129 0.0
-0.0888867 0.127251 0.0
-0.0989821 0.137438 0.0
-0.103038 0.144835 0.0
-0.0913426 0.146621 0.0
-0.0460153 0.13748 0.0
0.063816 0.113603 0.0
0.2855 0.0656704 0.0
0.692508 0.0187714 0.0
-0.0033515 0.000166179 0.0
-0.00825381 0.0012555 0.0
-0.0116281 0.00325093 0.0
-0.0138753 0.00561759 0.0
-0.0154397 0.00830774 0.0
-0.0166856 0.0112064 0.0
-0.0178707 0.0143061 0.0
-0.0191561 0.0176105 0.0
-0.0206384 0.0211482 0.0
-0.0223787 0.0249545 0.0
-0.0244225 0.0290706 0.0
-0.026813 0.0335401 0.0
-0.0295983 0.0384086 0.0
-0.0328366 0.0437214 0.0
-0.0366008 0.0495226 0.0
-0.040983 0.0558513 0.0
-0.0460987 0.0627377 0.0
-0.0520899 0.0701947 0.0
-0.0591197 0.0782058 0.0
-0.0673448 0.0867051 0.0
-0.0768313 0.0955409 0.0
-0.0873452 0.104424 0.0
-0.0978976 0.112812 0.0
-0.105873 0.119795 0.0
-0.105566 0.123707 0.0
-0.0860564 0.122248 0.0
-0.0285139 0.11118 0.0
0.0968408 0.0884932 0.0
0.330333 0.0481 0.0
0.726025 0.0117277 0.0
-0.00401271 0.000153277 0.0
-0.00978865 0.00116612 0.0
-0.0137258 0.00302202 0.0
-0.0163311 0.00522013 0.0
-0.0181423 0.00771574 0.0
-0.0195876 0.0104012 0.0
-0.0209656 0.0132699 0.0
-0.022461 0.0163249 0.0
-0.0241828 0.0195918 0.0
-0.0261984 0.0231016 0.0
-0.0285564 0.0268896 0.0
-0.031301 0.0309916 0.0
-0.0344798 0.0354435 0.0
-0.0381486 0.0402781 0.0
-0.0423747 0.0455235 0.0
-0.0472403 0.0511988 0.0
-0.0528443 0.0573086 0.0
-0.0593016 0.0638351 0.0
-0.0667318 0.0707254 0.0
-0.0752227 0.0778735 0.0
-0.0847296 0.0850901 0.0
-0.0948387 0.0920615 0.0
-0.104268 0.0982557 0.0
-0.109937 0.10285 0.0
-0.105459 0.104409 0.0
-0.0790945 0.101115 0.0
-0.0115963 0.0896277 0.0
0.125327 0.069104 0.0
0.366234 0.0356314 0.0
0.7499 0.0074294 0.0
-0.00461878 0.000138653 0.0
-0.0111973 0.00105672 0.0
-0.0156494 0.00273794 0.0
-0.0185808 0.00472682 0.0
-0.0206156 0.00698292 0.0
-0.0222409 0.00940856 0.0
-0.023793 0.011998 0.0
-0.0254775 0.014754 0.0
-0.0274143 0.0176992 0.0
-0.0296756 0.0208604 0.0
-0.0323116 0.0242672 0.0
-0.0353659 0.027949 0.0
-0.0388836 0.0319332 0.0
-0.0429154 0.0362428 0.0
-0.0475202 0.0408936 0.0
-0.0527667 0.0458903 0.0
-0.0587336 0.0512203 0.0
-0.0655053 0.0568465 0.0
-0.0731568 0.0626955 0.0
-0.0817094 0.068643 0.0
-0.0910189 0.0744883 0.0
-0.100518 0.0799239 0.0
-0.108687 0.0844591 0.0
-0.112076 0.0873756 0.0
-0.103791 0.0874602 0.0
-0.0715359 0.0832972 0.0
0.00405387 0.0722235 0.0
0.149563 0.0542156 0.0
0.394925 0.026712 0.0
0.767211 0.00479928 0.0
-0.00516081 0.000122688 0.0
-0.0124563 0.000932376 0.0
-0.0173664 0.0024127 0.0
-0.0205871 0.00416156 0.0
-0.0228197 0.00614391 0.0
-0.0246041 0.00827419 0.0
-0.0263103 0.010548 0.0
-0.0281623 0.0129681 0.0
-0.030289 0.0155545 0.0
-0.0327663 0.0183301 0.0
-0.0356449 0.0213199 0.0
-0.038967 0.024548 0.0
-0.0427736 0.0280354 0.0
-0.0471091 0.0317981 0.0
-0.0520223 0.035844 0.0
-0.0575673 0.040169 0.0
-0.0638011 0.0447511 0.0
-0.0707777 0.049544 0.0
-0.0785296 0.0544671 0.0
-0.0870181 0.0593931 0.0
-0.096013 0.0641274 0.0
-0.104819 0.0683855 0.0
-0.111723 0.0717305 0.0
-0.112985 0.0735454 0.0
-0.101331 0.0728139 0.0
-0.0640915 0.0684175 0.0
0.0179674 0.0582997 0.0
0.169912 0.0427879 0.0
0.417831 0.0202861 0.0
0.779988 0.0031829 0.0
-0.00563193 0.000105374 0.0
-0.0135476 0.000795512 0.0
-0.0188524 0.00205386 0.0
-0.0223217 0.00353799 0.0
-0.0247242 0.0052191 0.0
-0.026646 0.0070255 0.0
-0.028486 0.00895461 0.0
-0.0304838 0.0110096 0.0
-0.0327758 0.0132082 0.0
-0.0354406 0.0155702 0.0
-0.0385291 0.018117 0.0
-0.042081 0.0208685 0.0
-0.0461334 0.0238419 0.0
-0.0507237 0.027049 0.0
-0.0558907 0.0304938 0.0
-0.0616736 0.0341687 0.0
-0.0681087 0.0380495 0.0
-0.0752217 0.0420894 0.0
-0.0830064 0.0462102 0.0
-0.0913714 0.0502929 0.0
-0.100013 0.0541602 0.0
-0.10813 0.0575586 0.0
-0.113848 0.060107 0.0
-0.1132 0.0612771 0.0
-0.0986205 0.0602198 0.0
-0.0572057 0.0560253 0.0
0.0300411 0.0471405 0.0
0.18688 0.0339587 0.0
0.436155 0.0156027 0.0
0.789592 0.00217848 0.0
-0.00602588 8.67088e-05 0.0
-0.0144563 0.000647712 0.0
-0.0200866 0.00166652 0.0
-0.0237607 0.00286544 0.0
-0.0263038 0.0042226 0.0
-0.0283405 0.00568157 0.0
-0.0302937 0.00724198 0.0
-0.0324157 0.00890792 0.0
-0.0348492 0.0106951 0.0
-0.0376748 0.0126211 0.0
-0.040943 0.0147043 0.0
-0.0446916 0.0169624 0.0
-0.0489538 0.0194102 0.0
-0.0537608 0.0220586 0.0
-0.059142 0.0249113 0.0
-0.0651231 0.0279621 0.0
-0.071722 0.0311904 0.0
-0.0789391 0.0345558 0.0
-0.0867341 0.0379909 0.0
-0.0949703 0.0413926 0.0
-0.103281 0.0446073 0.0
-0.110774 0.0474157 0.0
-0.115443 0.0494888 0.0
-0.113131 0.0503711 0.0
-0.0960468 0.049346 0.0
-0.0511458 0.0456522 0.0
0.0403152 0.0380953 0.0
0.200929 0.0270536 0.0
0.45084 0.0121301 0.0
0.796932 0.0015413 0.0
-0.00633713 6.67388e-05 0.0
-0.0151694 0.000490363 0.0
-0.021052 0.0012549 0.0
-0.0248845 0.00215165 0.0
-0.0275375 0.00316608 0.0
-0.0296661 0.00425815 0.0
-0.0317117 0.00542991 0.0
-0.0339367 0.00668678 0.0
-0.0364886 0.00804287 0.0
-0.0394495 0.00951373 0.0
-0.04287 0.0111161 0.0
-0.0467866 0.0128662 0.0
-0.0512293 0.0147788 0.0
-0.0562245 0.0168659 0.0
-0.0617941 0.0191344 0.0
-0.0679527 0.0215838 0.0
-0.0747027 0.0242021 0.0
-0.0820228 0.0269614 0.0
-0.089844 0.029811 0.0
-0.0979898 0.0326698 0.0
-0.106038 0.0354124 0.0
-0.113018 0.0378539 0.0
-0.116806 0.0397111 0.0
-0.113084 0.0405848 0.0
-0.0938783 0.0398559 0.0
-0.0460562 0.0368626 0.0
0.0488632 0.0306575 0.0
0.212452 0.0215695 0.0
0.462607 0.0095012 0.0
0.802615 0.00112458 0.0
-0.00656082 4.55813e-05 0.0
-0.0156761 0.000324935 0.0
-0.0217342 0.000823168 0.0
-0.0256769 0.001404 0.0
-0.0284081 0.00206053 0.0
-0.0306048 0.00276986 0.0
-0.0327218 0.0035366 0.0
-0.0350285 0.00436764 0.0
-0.0376758 0.00527566 0.0
-0.0407476 0.00627472 0.0
-0.044295 0.00738025 0.0
-0.0483539 0.00860825 0.0
-0.0529531 0.00997469 0.0
-0.0581161 0.0114948 0.0
-0.0638597 0.0131815 0.0
-0.0701908 0.0150433 0.0
-0.0770998 0.0170815 0.0
-0.0845486 0.0192856 0.0
-0.0924436 0.0216275 0.0
-0.100574 0.0240531 0.0
-0.108467 0.0264685 0.0
-0.115079 0.0287234 0.0
-0.118177 0.0305733 0.0
-0.113297 0.0316596 0.0
-0.0923085 0.0314288 0.0
-0.0420225 0.0292786 0.0
0.0557836 0.0244224 0.0
0.221785 0.0171219 0.0
0.472007 0.00745747 0.0
0.80705 0.000839483 0.0
-0.00669291 2.34011e-05 0.0
-0.0159679 0.000153035 0.0
-0.022122 0.00037568 0.0
-0.0261251 0.000630087 0.0
-0.0289019 0.000917072 0.0
-0.0311424 0.00123134 0.0
-0.0333091 0.00158003 0.0
-0.0356756 0.00197143 0.0
-0.0383953 0.00241679 0.0
-0.0415538 0.00292875 0.0
-0.0452033 0.00352176 0.0
-0.0493808 0.0042121 0.0
-0.0541156 0.00501788 0.0
-0.0594311 0.00595913 0.0
-0.0653424 0.00705691 0.0
-0.0718526 0.00833175 0.0
-0.0789449 0.0098018 0.0
-0.0865691 0.011479 0.0
-0.0946122 0.0133633 0.0
-0.102833 0.015433 0.0
-0.110711 0.0176297 0.0
-0.117129 0.0198384 0.0
-0.119747 0.0218479 0.0
-0.113958 0.0233256 0.0
-0.0914863 0.0237558 0.0
-0.0391049 0.0225611 0.0
0.061159 0.0190515 0.0
0.229189 0.0134082 0.0
0.479447 0.00581142 0.0
0.810513 0.000631365 0.0
-0.00673017 4.08323e-07 0.0
-0.0160381 -2.35816e-05 0.0
-0.022207 -8.29435e-05 0.0
-0.0262196 -0.000162137 0.0
-0.0290086 -0.000252689 0.0
-0.0312677 -0.000342173 0.0
-0.0334615 -0.000421262 0.0
-0.0358648 -0.000480472 0.0
-0.0386326 -0.000510335 0.0
-0.041852 -0.000499815 0.0
-0.0455776 -0.000435522 0.0
-0.0498492 -0.000300748 0.0
-0.0546992 -7.47639e-05 0.0
-0.0601544 0.00026782 0.0
-0.0662318 0.000757217 0.0
-0.0729355 0.00142838 0.0
-0.0802474 0.00231969 0.0
-0.0881111 0.00347009 0.0
-0.0963994 0.00491305 0.0
-0.104843 0.00666615 0.0
-0.112876 0.0087125 0.0
-0.119303 0.0109766 0.0
-0.121669 0.0132766 0.0
-0.115221 0.0152934 0.0
-0.0915372 0.0165244 0.0
-0.037357 0.0163865 0.0
0.0650476 0.0142398 0.0
0.234853 0.0101726 0.0
0.485213 0.00441745 0.0
0.813179 0.000464691 0.0
-0.00667059 -2.31929e-05 0.0
-0.0158828 -0.000203197 0.0
-0.0219843 -0.000547972 0.0
-0.0259549 -0.000964219 0.0
-0.0287219 -0.00143619 0.0
-0.0309735 -0.00193413 0.0
-0.0331706 -0.002447 0.0
-0.0355863 -0.00296469 0.0
-0.0383757 -0.00348001 0.0
-0.0416282 -0.00398411 0.0
-0.0454019 -0.00446525 0.0
-0.049741 -0.00490685 0.0
-0.0546835 -0.00528602 0.0
-0.0602622 -0.00557229 0.0
-0.066502 -0.00572586 0.0
-0.073414 -0.0056962 0.0
-0.0809856 -0.00542214 0.0
-0.0891617 -0.00483334 0.0
-0.0978082 -0.00385577 0.0
-0.106634 -0.00242364 0.0
-0.115025 -0.000502702 0.0
-0.121702 0.00187515 0.0
-0.12407 0.00455615 0.0
-0.117217 0.00723344 0.0
-0.0925752 0.00939471 0.0
-0.0368496 0.0104192 0.0
0.0674552 0.00968188 0.0
0.238885 0.00716917 0.0
0.489477 0.00314522 0.0
0.81515 0.000312615 0.0
-0.00651271 -4.71618e-05 0.0
-0.0155 -0.000383806 0.0
-0.0214519 -0.00101402 0.0
-0.0253291 -0.00176673 0.0
-0.0280395 -0.00261959 0.0
-0.0302564 -0.0035263 0.0
-0.0324309 -0.00447487 0.0
-0.0348316 -0.00545528 0.0
-0.037613 -0.00646347 0.0
-0.0408666 -0.00749372 0.0
-0.0446547 -0.00853709 0.0
-0.0490282 -0.00957848 0.0
-0.0540335 -0.0105944 0.0
-0.059714 -0.0115503 0.0
-0.0661072 -0.0123975 0.0
-0.0732385 -0.0130705 0.0
-0.0811096 -0.0134839 0.0
-0.089677 -0.0135327 0.0
-0.0988091 -0.0130953 0.0
-0.108198 -0.0120472 0.0
-0.117177 -0.0102885 0.0
-0.124368 -0.00779452 0.0
-0.127035 -0.0046772 0.0
-0.12008 -0.00124932 0.0
-0.0947197 0.0019518 0.0
-0.0376488 0.00425498 0.0
0.0683728 0.00503181 0.0
0.241308 0.00413608 0.0
0.49229 0.00186262 0.0
0.816447 0.000150854 0.0
-0.00625657 -7.11796e-05 0.0
-0.0148909 -0.000562949 0.0
-0.0206123 -0.0014748 0.0
-0.024345 -0.00255907 0.0
-0.0269639 -0.00378758 0.0
-0.0291175 -0.0050986 0.0
-0.0312416 -0.00648007 0.0
-0.0335973 -0.00792307 0.0
-0.0363369 -0.00942773 0.0
-0.0395541 -0.0109928 0.0
-0.0433165 -0.0126138 0.0
-0.0476829 -0.0142792 0.0
-0.0527107 -0.0159673 0.0
-0.0584581 -0.0176424 0.0
-0.0649807 -0.0192498 0.0
-0.0723266 -0.0207113 0.0
-0.0805225 -0.0219189 0.0
-0.08955 -0.0227312 0.0
-0.0992942 -0.0229744 0.0
-0.109443 -0.0224535 0.0
-0.119282 -0.0209839 0.0
-0.127319 -0.0184533 0.0
-0.130626 -0.0149082 0.0
-0.123861 -0.010658 0.0
-0.0980911 -0.00628823 0.0
-0.0399489 -0.00256434 0.0
0.0676035 -0.00016564 0.0
0.24203 0.000687453 0.0
0.493599 0.000383979 0.0
0.817041 -5.07901e-05 0.0
-0.00590355 -9.48953e-05 0.0
-0.0140598 -0.000737888 0.0
-0.0194718 -0.00192331 0.0
-0.0230102 -0.0033293 0.0
-0.0255023 -0.00492279 0.0
-0.027563 -0.00662802 0.0
-0.0296067 -0.00843388 0.0
-0.0318837 -0.0103337 0.0
-0.0345431 -0.012333 0.0
-0.0376801 -0.0144367 0.0
-0.0413678 -0.0166471 0.0
-0.045674 -0.018959 0.0
-0.0506695 -0.0213561 0.0
-0.0564303 -0.023806 0.0
-0.0630367 -0.0262535 0.0
-0.0705674 -0.0286127 0.0
-0.0790873 -0.030758 0.0
-0.0886191 -0.0325146 0.0
-0.099085 -0.0336542 0.0
-0.110188 -0.033902 0.0
-0.121181 -0.0329686 0.0
-0.130451 -0.0306219 0.0
-0.134844 -0.0267983 0.0
-0.128707 -0.0217476 0.0
-0.102824 -0.0160827 0.0
-0.043766 -0.0107203 0.0
0.0651403 -0.00644022 0.0
0.240771 -0.00356805 0.0
0.493044 -0.00149805 0.0
0.816717 -0.000332286 0.0
-0.00545652 -0.000117956 0.0
-0.0130146 -0.000905563 0.0
-0.0180417 -0.00235151 0.0
-0.0213377 -0.00406368 0.0
-0.0236682 -0.00600508 0.0
-0.0256053 -0.00808768 0.0
-0.0275364 -0.0103023 0.0
-0.0296979 -0.0126456 0.0
-0.0322337 -0.01513 0.0
-0.0352396 -0.0177685 0.0
-0.0387937 -0.0205725 0.0
-0.0429731 -0.0235469 0.0
-0.0478627 -0.0266855 0.0
-0.0535593 -0.0299656 0.0
-0.0601721 -0.0333391 0.0
-0.0678196 -0.0367223 0.0
-0.0766177 -0.0399816 0.0
-0.0866504 -0.0429184 0.0
-0.0979037 -0.0452547 0.0
-0.110127 -0.0466329 0.0
-0.122565 -0.0466406 0.0
-0.133497 -0.0448894 0.0
-0.139518 -0.0411463 0.0
-0.134594 -0.0355267 0.0
-0.109134 -0.0285814 0.0
-0.0495516 -0.0213254 0.0
0.0604748 -0.0146446 0.0
0.237157 -0.0091939 0.0
0.490206 -0.00406925 0.0
0.815212 -0.000756637 0.0
-0.0049202 -0.000139984 0.0
-0.0117677 -0.00106231 0.0
-0.0163392 -0.00274965 0.0
-0.0193472 -0.00474539 0.0
-0.0214822 -0.00700971 0.0
-0.0232646 -0.00944431 0.0
-0.0250494 -0.0120428 0.0
-0.0270559 -0.0148063 0.0
-0.0294203 -0.0177554 0.0
-0.0322375 -0.0209126 0.0
-0.0355892 -0.0243015 0.0
-0.0395605 -0.0279407 0.0
-0.04425 -0.0318401 0.0
-0.0497756 -0.0359941 0.0
-0.0562781 -0.0403729 0.0
-0.0639221 -0.0449088 0.0
-0.0728875 -0.0494775 0.0
-0.0833412 -0.053875 0.0
-0.0953653 -0.0577921 0.0
-0.108798 -0.0607979 0.0
-0.122924 -0.0623516 0.0
-0.135952 -0.0618742 0.0
-0.14423 -0.05889 0.0
-0.141296 -0.0532612 0.0
-0.117066 -0.0453153 0.0
-0.0576592 -0.0360244 0.0
0.0529941 -0.026273 0.0
0.230378 -0.0173064 0.0
0.484251 -0.00788952 0.0
0.811998 -0.00144575 0.0
-0.00430115 -0.000160529 0.0
-0.0103364 -0.00120324 0.0
-0.0143884 -0.00310452 0.0
-0.0170666 -0.00535179 0.0
-0.0189736 -0.00790348 0.0
-0.0205707 -0.0106534 0.0
-0.022175 -0.0135983 0.0
-0.0239851 -0.0167447 0.0
-0.0261274 -0.0201218 0.0
-0.0286932 -0.0237635 0.0
-0.0317652 -0.0277073 0.0
-0.0354339 -0.0319895 0.0
-0.0398083 -0.0366416 0.0
-0.0450249 -0.0416843 0.0
-0.0512551 -0.0471188 0.0
-0.0587115 -0.0529116 0.0
-0.0676464 -0.0589729 0.0
-0.0783289 -0.0651254 0.0
-0.0909724 -0.0710649 0.0
-0.105558 -0.0763227 0.0
-0.121484 -0.080251 0.0
-0.136962 -0.0820674 0.0
-0.148157 -0.0809825 0.0
-0.148199 -0.0764474 0.0
-0.12644 -0.0683047 0.0
-0.0685241 -0.0571735 0.0
0.0416894 -0.0435912 0.0
0.219066 -0.0297056 0.0
0.473675 -0.0139614 0.0
0.806094 -0.00264361 0.0
-0.00360957 -0.00017866 0.0
-0.00874686 -0.00132034 0.0
-0.0122245 -0.00339561 0.0
-0.0145365 -0.00584855 0.0
-0.016186 -0.00863685 0.0
-0.0175687 -0.0116489 0.0
-0.0189594 -0.0148847 0.0
-0.0205329 -0.0183559 0.0
-0.0224025 -0.0221005 0.0
-0.0246528 -0.026164 0.0
-0.027364 -0.0305994 0.0
-0.030627 -0.035463 0.0
-0.0345558 -0.0408125 0.0
-0.0392987 -0.046703 0.0
-0.0450507 -0.0531796 0.0
-0.0520669 -0.0602643 0.0
-0.060671 -0.0679335 0.0
-0.0712443 -0.0760824 0.0
-0.0841601 -0.084473 0.0
-0.0996011 -0.0926713 0.0
-0.117171 -0.0999916 0.0
-0.135217 -0.105488 0.0
-0.149871 -0.108021 0.0
-0.153992 -0.106463 0.0
-0.13643 -0.0998248 0.0
-0.0822389 -0.0878334 0.0
0.0254809 -0.0699309 0.0
0.201313 -0.0491716 0.0
0.45614 -0.0239967 0.0
0.795811 -0.00482902 0.0
-0.00285956 -0.000192507 0.0
-0.00703518 -0.00139999 0.0
-0.00989606 -0.00358938 0.0
-0.0118116 -0.00618072 0.0
-0.013178 -0.00913151 0.0
-0.0143204 -0.0123273 0.0
-0.0154679 -0.0157705 0.0
-0.0167682 -0.019477 0.0
-0.0183185 -0.0234922 0.0
-0.0201933 -0.0278722 0.0
-0.0224651 -0.0326848 0.0
-0.0252194 -0.0380064 0.0
-0.0285664 -0.0439227 0.0
-0.0326552 -0.0505276 0.0
-0.0376903 -0.0579199 0.0
-0.0439524 -0.0661955 0.0
-0.0518204 -0.0754302 0.0
-0.0617776 -0.0856469 0.0
-0.0743662 -0.096758 0.0
-0.0900158 -0.108481 0.0
-0.108641 -0.120232 0.0
-0.128909 -0.131028 0.0
-0.147189 -0.139441 0.0
-0.156406 -0.143646 0.0
-0.145229 -0.141481 0.0
-0.0982422 -0.13096 0.0
0.00279894 -0.109693 0.0
0.173834 -0.0798162 0.0
0.42748 -0.0410197 0.0
0.777766 -0.00903267 0.0
-0.00207886 -0.000197193 0.0
-0.00526387 -0.0014168 0.0
-0.00748379 -0.00362918 0.0
-0.00898306 -0.00625853 0.0
-0.0100476 -0.00926159 0.0
-0.0109311 -0.0125237 0.0
-0.0118141 -0.0160473 0.0
-0.0128149 -0.0198506 0.0
-0.0140118 -0.0239836 0.0
-0.0154652 -0.0285102 0.0
-0.0172356 -0.0335091 0.0
-0.0193955 -0.0390735 0.0
-0.0220421 -0.0453136 0.0
-0.0253102 -0.0523593 0.0
-0.0293929 -0.060364 0.0
-0.0345681 -0.0695056 0.0
-0.0412324 -0.0799819 0.0
-0.0499298 -0.0919927 0.0
-0.0613384 -0.105694 0.0
-0.0761363 -0.121108 0.0
-0.0946274 -0.137971 0.0
-0.116006 -0.155525 0.0
-0.137256 -0.172277 0.0
-0.151924 -0.185786 0.0
-0.149163 -0.192498 0.0
-0.113564 -0.187903 0.0
-0.025582 -0.166879 0.0
0.134382 -0.127117 0.0
0.383242 -0.0700128 0.0
0.746931 -0.0173479 0.0
-0.00130448 -0.000185087 0.0
-0.00351278 -0.00133376 0.0
-0.00508797 -0.00343371 0.0
-0.00616063 -0.00595259 0.0
-0.00691214 -0.00884415 0.0
-0.00752635 -0.0119961 0.0
-0.0081346 -0.0154077 0.0