# vtk DataFile Version 3.0
Malha 2D com triângulos e temperatura
ASCII
DATASET UNSTRUCTURED_GRID

POINTS 961 double
0 0 0
1 0 0
1 1 0
0 1 0
0.0333333 0 0
0.0666667 0 0
0.1 0 0
0.133333 0 0
0.166667 0 0
0.2 0 0
0.233333 0 0
0.266667 0 0
0.3 0 0
0.333333 0 0
0.366667 0 0
0.4 0 0
0.433333 0 0
0.466667 0 0
0.5 0 0
0.533333 0 0
0.566667 0 0
0.6 0 0
0.633333 0 0
0.666667 0 0
0.7 0 0
0.733333 0 0
0.766667 0 0
0.8 0 0
0.833333 0 0
0.866667 0 0
0.9 0 0
0.933333 0 0
0.966667 0 0
1 0.0333333 0
1 0.0666667 0
1 0.1 0
1 0.133333 0
1 0.166667 0
1 0.2 0
1 0.233333 0
1 0.266667 0
1 0.3 0
1 0.333333 0
1 0.366667 0
1 0.4 0
1 0.433333 0
1 0.466667 0
1 0.5 0
1 0.533333 0
1 0.566667 0
1 0.6 0
1 0.633333 0
1 0.666667 0
1 0.7 0
1 0.733333 0
1 0.766667 0
1 0.8 0
1 0.833333 0
1 0.866667 0
1 0.9 0
1 0.933333 0
1 0.966667 0
0.966667 1 0
0.933333 1 0
0.9 1 0
0.866667 1 0
0.833333 1 0
0.8 1 0
0.766667 1 0
0.733333 1 0
0.7 1 0
0.666667 1 0
0.633333 1 0
0.6 1 0
0.566667 1 0
0.533333 1 0
0.5 1 0
0.466667 1 0
0.433333 1 0
0.4 1 0
0.366667 1 0
0.333333 1 0
0.3 1 0
0.266667 1 0
0.233333 1 0
0.2 1 0
0.166667 1 0
0.133333 1 0
0.1 1 0
0.0666667 1 0
0.0333333 1 0
0 0.966667 0
0 0.933333 0
0 0.9 0
0 0.866667 0
0 0.833333 0
0 0.8 0
0 0.766667 0
0 0.733333 0
0 0.7 0
0 0.666667 0
0 0.633333 0
0 0.6 0
0 0.566667 0
0 0.533333 0
0 0.5 0
0 0.466667 0
0 0.433333 0
0 0.4 0
0 0.366667 0
0 0.333333 0
0 0.3 0
0 0.266667 0
0 0.233333 0
0 0.2 0
0 0.166667 0
0 0.133333 0
0 0.1 0
0 0.0666667 0
0 0.0333333 0
0.0333333 0.0333333 0
0.0333333 0.0666667 0
0.0333333 0.1 0
0.0333333 0.133333 0
0.0333333 0.166667 0
0.0333333 0.2 0
0.0333333 0.233333 0
0.0333333 0.266667 0
0.0333333 0.3 0
0.0333333 0.333333 0
0.0333333 0.366667 0
0.0333333 0.4 0
0.0333333 0.433333 0
0.0333333 0.466667 0
0.0333333 0.5 0
0.0333333 0.533333 0
0.0333333 0.566667 0
0.0333333 0.6 0
0.0333333 0.633333 0
0.0333333 0.666667 0
0.0333333 0.7 0
0.0333333 0.733333 0
0.0333333 0.766667 0
0.0333333 0.8 0
0.0333333 0.833333 0
0.0333333 0.866667 0
0.0333333 0.9 0
0.0333333 0.933333 0
0.0333333 0.966667 0
0.0666667 0.0333333 0
0.0666667 0.0666667 0
0.0666667 0.1 0
0.0666667 0.133333 0
0.0666667 0.166667 0
0.0666667 0.2 0
0.0666667 0.233333 0
0.0666667 0.266667 0
0.0666667 0.3 0
0.0666667 0.333333 0
0.0666667 0.366667 0
0.0666667 0.4 0
0.0666667 0.433333 0
0.0666667 0.466667 0
0.0666667 0.5 0
0.0666667 0.533333 0
0.0666667 0.566667 0
0.0666667 0.6 0
0.0666667 0.633333 0
0.0666667 0.666667 0
0.0666667 0.7 0
0.0666667 0.733333 0
0.0666667 0.766667 0
0.0666667 0.8 0
0.0666667 0.833333 0
0.0666667 0.866667 0
0.0666667 0.9 0
0.0666667 0.933333 0
0.0666667 0.966667 0
0.1 0.0333333 0
0.1 0.0666667 0
0.1 0.1 0
0.1 0.133333 0
0.1 0.166667 0
0.1 0.2 0
0.1 0.233333 0
0.1 0.266667 0
0.1 0.3 0
0.1 0.333333 0
0.1 0.366667 0
0.1 0.4 0
0.1 0.433333 0
0.1 0.466667 0
0.1 0.5 0
0.1 0.533333 0
0.1 0.566667 0
0.1 0.6 0
0.1 0.633333 0
0.1 0.666667 0
0.1 0.7 0
0.1 0.733333 0
0.1 0.766667 0
0.1 0.8 0
0.1 0.833333 0
0.1 0.866667 0
0.1 0.9 0
0.1 0.933333 0
0.1 0.966667 0
0.133333 0.0333333 0
0.133333 0.0666667 0
0.133333 0.1 0
0.133333 0.133333 0
0.133333 0.166667 0
0.133333 0.2 0
0.133333 0.233333 0
0.133333 0.266667 0
0.133333 0.3 0
0.133333 0.333333 0
0.133333 0.366667 0
0.133333 0.4 0
0.133333 0.433333 0
0.133333 0.466667 0
0.133333 0.5 0
0.133333 0.533333 0
0.133333 0.566667 0
0.133333 0.6 0
0.133333 0.633333 0
0.133333 0.666667 0
0.133333 0.7 0
0.133333 0.733333 0
0.133333 0.766667 0
0.133333 0.8 0
0.133333 0.833333 0
0.133333 0.866667 0
0.133333 0.9 0
0.133333 0.933333 0
0.133333 0.966667 0
0.166667 0.0333333 0
0.166667 0.0666667 0
0.166667 0.1 0
0.166667 0.133333 0
0.166667 0.166667 0
0.166667 0.2 0
0.166667 0.233333 0
0.166667 0.266667 0
0.166667 0.3 0
0.166667 0.333333 0
0.166667 0.366667 0
0.166667 0.4 0
0.166667 0.433333 0
0.166667 0.466667 0
0.166667 0.5 0
0.166667 0.533333 0
0.166667 0.566667 0
0.166667 0.6 0
0.166667 0.633333 0
0.166667 0.666667 0
0.166667 0.7 0
0.166667 0.733333 0
0.166667 0.766667 0
0.166667 0.8 0
0.166667 0.833333 0
0.166667 0.866667 0
0.166667 0.9 0
0.166667 0.933333 0
0.166667 0.966667 0
0.2 0.0333333 0
0.2 0.0666667 0
0.2 0.1 0
0.2 0.133333 0
0.2 0.166667 0
0.2 0.2 0
0.2 0.233333 0
0.2 0.266667 0
0.2 0.3 0
0.2 0.333333 0
0.2 0.366667 0
0.2 0.4 0
0.2 0.433333 0
0.2 0.466667 0
0.2 0.5 0
0.2 0.533333 0
0.2 0.566667 0
0.2 0.6 0
0.2 0.633333 0
0.2 0.666667 0
0.2 0.7 0
0.2 0.733333 0
0.2 0.766667 0
0.2 0.8 0
0.2 0.833333 0
0.2 0.866667 0
0.2 0.9 0
0.2 0.933333 0
0.2 0.966667 0
0.233333 0.0333333 0
0.233333 0.0666667 0
0.233333 0.1 0
0.233333 0.133333 0
0.233333 0.166667 0
0.233333 0.2 0
0.233333 0.233333 0
0.233333 0.266667 0
0.233333 0.3 0
0.233333 0.333333 0
0.233333 0.366667 0
0.233333 0.4 0
0.233333 0.433333 0
0.233333 0.466667 0
0.233333 0.5 0
0.233333 0.533333 0
0.233333 0.566667 0
0.233333 0.6 0
0.233333 0.633333 0
0.233333 0.666667 0
0.233333 0.7 0
0.233333 0.733333 0
0.233333 0.766667 0
0.233333 0.8 0
0.233333 0.833333 0
0.233333 0.866667 0
0.233333 0.9 0
0.233333 0.933333 0
0.233333 0.966667 0
0.266667 0.0333333 0
0.266667 0.0666667 0
0.266667 0.1 0
0.266667 0.133333 0
0.266667 0.166667 0
0.266667 0.2 0
0.266667 0.233333 0
0.266667 0.266667 0
0.266667 0.3 0
0.266667 0.333333 0
0.266667 0.366667 0
0.266667 0.4 0
0.266667 0.433333 0
0.266667 0.466667 0
0.266667 0.5 0
0.266667 0.533333 0
0.266667 0.566667 0
0.266667 0.6 0
0.266667 0.633333 0
0.266667 0.666667 0
0.266667 0.7 0
0.266667 0.733333 0
0.266667 0.766667 0
0.266667 0.8 0
0.266667 0.833333 0
0.266667 0.866667 0
0.266667 0.9 0
0.266667 0.933333 0
0.266667 0.966667 0
0.3 0.0333333 0
0.3 0.0666667 0
0.3 0.1 0
0.3 0.133333 0
0.3 0.166667 0
0.3 0.2 0
0.3 0.233333 0
0.3 0.266667 0
0.3 0.3 0
0.3 0.333333 0
0.3 0.366667 0
0.3 0.4 0
0.3 0.433333 0
0.3 0.466667 0
0.3 0.5 0
0.3 0.533333 0
0.3 0.566667 0
0.3 0.6 0
0.3 0.633333 0
0.3 0.666667 0
0.3 0.7 0
0.3 0.733333 0
0.3 0.766667 0
0.3 0.8 0
0.3 0.833333 0
0.3 0.866667 0
0.3 0.9 0
0.3 0.933333 0
0.3 0.966667 0
0.333333 0.0333333 0
0.333333 0.0666667 0
0.333333 0.1 0
0.333333 0.133333 0
0.333333 0.166667 0
0.333333 0.2 0
0.333333 0.233333 0
0.333333 0.266667 0
0.333333 0.3 0
0.333333 0.333333 0
0.333333 0.366667 0
0.333333 0.4 0
0.333333 0.433333 0
0.333333 0.466667 0
0.333333 0.5 0
0.333333 0.533333 0
0.333333 0.566667 0
0.333333 0.6 0
0.333333 0.633333 0
0.333333 0.666667 0
0.333333 0.7 0
0.333333 0.733333 0
0.333333 0.766667 0
0.333333 0.8 0
0.333333 0.833333 0
0.333333 0.866667 0
0.333333 0.9 0
0.333333 0.933333 0
0.333333 0.966667 0
0.366667 0.0333333 0
0.366667 0.0666667 0
0.366667 0.1 0
0.366667 0.133333 0
0.366667 0.166667 0
0.366667 0.2 0
0.366667 0.233333 0
0.366667 0.266667 0
0.366667 0.3 0
0.366667 0.333333 0
0.366667 0.366667 0
0.366667 0.4 0
0.366667 0.433333 0
0.366667 0.466667 0
0.366667 0.5 0
0.366667 0.533333 0
0.366667 0.566667 0
0.366667 0.6 0
0.366667 0.633333 0
0.366667 0.666667 0
0.366667 0.7 0
0.366667 0.733333 0
0.366667 0.766667 0
0.366667 0.8 0
0.366667 0.833333 0
0.366667 0.866667 0
0.366667 0.9 0
0.366667 0.933333 0
0.366667 0.966667 0
0.4 0.0333333 0
0.4 0.0666667 0
0.4 0.1 0
0.4 0.133333 0
0.4 0.166667 0
0.4 0.2 0
0.4 0.233333 0
0.4 0.266667 0
0.4 0.3 0
0.4 0.333333 0
0.4 0.366667 0
0.4 0.4 0
0.4 0.433333 0
0.4 0.466667 0
0.4 0.5 0
0.4 0.533333 0
0.4 0.566667 0
0.4 0.6 0
0.4 0.633333 0
0.4 0.666667 0
0.4 0.7 0
0.4 0.733333 0
0.4 0.766667 0
0.4 0.8 0
0.4 0.833333 0
0.4 0.866667 0
0.4 0.9 0
0.4 0.933333 0
0.4 0.966667 0
0.433333 0.0333333 0
0.433333 0.0666667 0
0.433333 0.1 0
0.433333 0.133333 0
0.433333 0.166667 0
0.433333 0.2 0
0.433333 0.233333 0
0.433333 0.266667 0
0.433333 0.3 0
0.433333 0.333333 0
0.433333 0.366667 0
0.433333 0.4 0
0.433333 0.433333 0
0.433333 0.466667 0
0.433333 0.5 0
0.433333 0.533333 0
0.433333 0.566667 0
0.433333 0.6 0
0.433333 0.633333 0
0.433333 0.666667 0
0.433333 0.7 0
0.433333 0.733333 0
0.433333 0.766667 0
0.433333 0.8 0
0.433333 0.833333 0
0.433333 0.866667 0
0.433333 0.9 0
0.433333 0.933333 0
0.433333 0.966667 0
0.466667 0.0333333 0
0.466667 0.0666667 0
0.466667 0.1 0
0.466667 0.133333 0
0.466667 0.166667 0
0.466667 0.2 0
0.466667 0.233333 0
0.466667 0.266667 0
0.466667 0.3 0
0.466667 0.333333 0
0.466667 0.366667 0
0.466667 0.4 0
0.466667 0.433333 0
0.466667 0.466667 0
0.466667 0.5 0
0.466667 0.533333 0
0.466667 0.566667 0
0.466667 0.6 0
0.466667 0.633333 0
0.466667 0.666667 0
0.466667 0.7 0
0.466667 0.733333 0
0.466667 0.766667 0
0.466667 0.8 0
0.466667 0.833333 0
0.466667 0.866667 0
0.466667 0.9 0
0.466667 0.933333 0
0.466667 0.966667 0
0.5 0.0333333 0
0.5 0.0666667 0
0.5 0.1 0
0.5 0.133333 0
0.5 0.166667 0
0.5 0.2 0
0.5 0.233333 0
0.5 0.266667 0
0.5 0.3 0
0.5 0.333333 0
0.5 0.366667 0
0.5 0.4 0
0.5 0.433333 0
0.5 0.466667 0
0.5 0.5 0
0.5 0.533333 0
0.5 0.566667 0
0.5 0.6 0
0.5 0.633333 0
0.5 0.666667 0
0.5 0.7 0
0.5 0.733333 0
0.5 0.766667 0
0.5 0.8 0
0.5 0.833333 0
0.5 0.866667 0
0.5 0.9 0
0.5 0.933333 0
0.5 0.966667 0
0.533333 0.0333333 0
0.533333 0.0666667 0
0.533333 0.1 0
0.533333 0.133333 0
0.533333 0.166667 0
0.533333 0.2 0
0.533333 0.233333 0
0.533333 0.266667 0
0.533333 0.3 0
0.533333 0.333333 0
0.533333 0.366667 0
0.533333 0.4 0
0.533333 0.433333 0
0.533333 0.466667 0
0.533333 0.5 0
0.533333 0.533333 0
0.533333 0.566667 0
0.533333 0.6 0
0.533333 0.633333 0
0.533333 0.666667 0
0.533333 0.7 0
0.533333 0.733333 0
0.533333 0.766667 0
0.533333 0.8 0
0.533333 0.833333 0
0.533333 0.866667 0
0.533333 0.9 0
0.533333 0.933333 0
0.533333 0.966667 0
0.566667 0.0333333 0
0.566667 0.0666667 0
0.566667 0.1 0
0.566667 0.133333 0
0.566667 0.166667 0
0.566667 0.2 0
0.566667 0.233333 0
0.566667 0.266667 0
0.566667 0.3 0
0.566667 0.333333 0
0.566667 0.366667 0
0.566667 0.4 0
0.566667 0.433333 0
0.566667 0.466667 0
0.566667 0.5 0
0.566667 0.533333 0
0.566667 0.566667 0
0.566667 0.6 0
0.566667 0.633333 0
0.566667 0.666667 0
0.566667 0.7 0
0.566667 0.733333 0
0.566667 0.766667 0
0.566667 0.8 0
0.566667 0.833333 0
0.566667 0.866667 0
0.566667 0.9 0
0.566667 0.933333 0
0.566667 0.966667 0
0.6 0.0333333 0
0.6 0.0666667 0
0.6 0.1 0
0.6 0.133333 0
[...]
CELL_DATA 900
VECTORS velocity double
5.98072e-05 -5.87479e-05 0.0
-3.43686e-05 5.45959e-05 0.0
-0.000110426 0.000490409 0.0
-0.00016172 0.00111625 0.0
-0.000188388 0.00188663 0.0
-0.000203972 0.00274215 0.0
-0.000215703 0.00366716 0.0
-0.000228456 0.00465658 0.0
-0.000244363 0.00571909 0.0
-0.000264517 0.00686854 0.0
-0.000289532 0.00812328 0.0
-0.000320038 0.00950496 0.0
-0.000356903 0.0110392 0.0
-0.000401436 0.0127567 0.0
-0.000455649 0.0146958 0.0
-0.000522747 0.0169052 0.0
-0.000608064 0.0194499 0.0
-0.000720911 0.0224199 0.0
-0.000878175 0.0259437 0.0
-0.00111133 0.0302122 0.0
-0.0014798 0.0355156 0.0
-0.00209708 0.0423026 0.0
-0.00317981 0.0512764 0.0
-0.00514524 0.0635273 0.0
-0.00875551 0.0808336 0.0
-0.0153173 0.105656 0.0
-0.0259022 0.142838 0.0
-0.0380473 0.190626 0.0
-0.0131506 0.263454 0.0
0.217117 0.17432 0.0
-5.64604e-05 3.80289e-05 0.0
-0.000567121 0.000568136 0.0
-0.000988259 0.00172056 0.0
-0.00129705 0.00323843 0.0
-0.00150189 0.0050635 0.0
-0.00165056 0.00709592 0.0
-0.00177786 0.00930689 0.0
-0.00190942 0.0116869 0.0
-0.00206056 0.0142528 0.0
-0.00224111 0.0170344 0.0
-0.00245833 0.0200722 0.0
-0.00271935 0.0234153 0.0
-0.00303287 0.0271227 0.0
-0.00341074 0.0312656 0.0
-0.00386992 0.0359314 0.0
-0.0044353 0.0412307 0.0
-0.00514424 0.0473066 0.0
-0.00605377 0.0543494 0.0
-0.00725163 0.0626154 0.0
-0.00887253 0.0724526 0.0
-0.01112 0.084327 0.0
-0.0142949 0.0988399 0.0
-0.018822 0.116703 0.0
-0.0252824 0.1386 0.0
-0.0343427 0.164854 0.0
-0.0465633 0.194421 0.0
-0.0600917 0.22358 0.0
-0.0656717 0.240012 0.0
-0.00243162 0.219013 0.0
0.306006 0.116768 0.0
-0.000493768 0.000112877 0.0
-0.00171537 0.000967091 0.0
-0.00270078 0.00264771 0.0
-0.00343131 0.00477413 0.0
-0.00394757 0.00728904 0.0
-0.00434167 0.0100741 0.0
-0.00468955 0.0130994 0.0
-0.00504819 0.016356 0.0
-0.00545473 0.0198669 0.0
-0.00593422 0.0236706 0.0
-0.00650583 0.0278189 0.0
-0.00718811 0.0323745 0.0
-0.00800299 0.0374117 0.0
-0.00897937 0.0430184 0.0
-0.0101573 0.0493002 0.0
-0.0115937 0.0563865 0.0
-0.0133703 0.0644385 0.0
-0.015605 0.073659 0.0
-0.018466 0.0843041 0.0
-0.0221855 0.0966914 0.0
-0.0270649 0.111195 0.0
-0.0334529 0.12821 0.0
-0.0416532 0.148022 0.0
-0.0517161 0.170558 0.0
-0.0628945 0.194777 0.0
-0.0725885 0.217819 0.0
-0.0725813 0.232593 0.0
-0.0411577 0.227891 0.0
0.0915801 0.172978 0.0
0.477241 0.0771974 0.0
-0.00110169 0.000158963 0.0
-0.00317913 0.00122176 0.0
-0.00479695 0.00323302 0.0
-0.00598367 0.00571813 0.0
-0.00683991 0.00862376 0.0
-0.0075089 0.0118232 0.0
-0.0081101 0.0152902 0.0
-0.0087323 0.0190182 0.0
-0.00943488 0.0230338 0.0
-0.0102584 0.0273786 0.0
-0.0112342 0.0321085 0.0
-0.0123919 0.037289 0.0
-0.0137658 0.0429968 0.0
-0.0153999 0.0493201 0.0
-0.0173529 0.0563618 0.0
-0.0197062 0.0642423 0.0
-0.0225719 0.0731035 0.0
-0.0261036 0.0831119 0.0
-0.0305066 0.094458 0.0
-0.0360376 0.107347 0.0
-0.0429787 0.121964 0.0
-0.0515504 0.138403 0.0
-0.0616991 0.156488 0.0
-0.0726865 0.175497 0.0
-0.0822561 0.193524 0.0
-0.0851351 0.206961 0.0
-0.0692207 0.208343 0.0
-0.00703534 0.188972 0.0
0.165606 0.127268 0.0
0.575636 0.0490782 0.0
-0.00181586 0.00017533 0.0
-0.00485467 0.00133347 0.0
-0.00715422 0.00350014 0.0
-0.00882021 0.00614454 0.0
-0.0100323 0.00921434 0.0
-0.0109918 0.0125784 0.0
-0.0118642 0.0162143 0.0
-0.0127703 0.020117 0.0
-0.0137914 0.0243144 0.0
-0.014983 0.0288484 0.0
-0.0163875 0.033773 0.0
-0.0180446 0.0391507 0.0
-0.0199983 0.0450521 0.0
-0.0223038 0.0515561 0.0
-0.0250329 0.0587502 0.0
-0.0282813 0.0667311 0.0
-0.0321764 0.0756043 0.0
-0.0368839 0.085481 0.0
-0.0426097 0.0964691 0.0
-0.049582 0.108653 0.0
-0.0579891 0.122047 0.0
-0.0678267 0.136512 0.0
-0.078578 0.151581 0.0
-0.0886333 0.166215 0.0
-0.0942564 0.178242 0.0
-0.087869 0.184121 0.0
-0.0544957 0.177261 0.0
0.0354588 0.151368 0.0
0.236168 0.0928677 0.0
0.646389 0.0305435 0.0
-0.00255476 0.000175898 0.0
-0.00658871 0.00134955 0.0
-0.00957659 0.0035389 0.0
-0.0117158 0.00619443 0.0
-0.0132749 0.00926397 0.0
-0.0145174 0.012616 0.0
-0.0156554 0.0162305 0.0
-0.0168409 0.0201034 0.0
-0.0181751 0.0242624 0.0
-0.0197267 0.0287467 0.0
-0.0215472 0.0336062 0.0
-0.0236831 0.0388968 0.0
-0.0261849 0.0446793 0.0
-0.0291133 0.0510186 0.0
-0.0325456 0.0579824 0.0
-0.0365809 0.0656397 0.0
-0.041346 0.0740566 0.0
-0.0469975 0.0832897 0.0
-0.0537136 0.0933723 0.0
-0.0616589 0.10429 0.0
-0.0708913 0.115932 0.0
-0.081155 0.128013 0.0
-0.0914772 0.139916 0.0
-0.0994728 0.150508 0.0
-0.100203 0.157659 0.0
-0.0844459 0.15828 0.0
-0.0356395 0.14686 0.0
0.0751977 0.119827 0.0
0.294116 0.0683765 0.0
0.695651 0.0191383 0.0
-0.00328161 0.000167746 0.0
-0.00830058 0.00130346 0.0
-0.0119609 0.00342253 0.0
-0.0145566 0.00598497 0.0
-0.0164463 0.00893952 0.0
-0.0179574 0.0121581 0.0
-0.0193479 0.0156225 0.0
-0.0207992 0.0193292 0.0
-0.0224309 0.0233039 0.0
-0.0243228 0.0275825 0.0
-0.0265331 0.0322094 0.0
-0.0291126 0.0372323 0.0
-0.0321145 0.0427016 0.0
-0.0356006 0.0486675 0.0
-0.0396468 0.0551782 0.0
-0.0443472 0.0622766 0.0
-0.0498168 0.0699943 0.0
-0.0561886 0.0783432 0.0
-0.0635972 0.0873 0.0
-0.072128 0.0967822 0.0
-0.0816975 0.106603 0.0
-0.0918044 0.116406 0.0
-0.101063 0.125527 0.0
-0.106428 0.132871 0.0
-0.102011 0.136501 0.0
-0.0774334 0.133876 0.0
-0.0153865 0.120501 0.0
0.111547 0.0946719 0.0
0.341956 0.050772 0.0
0.730689 0.0120838 0.0
-0.00396903 0.000155636 0.0
-0.00992651 0.00121963 0.0
-0.0142229 0.0032055 0.0
-0.0172467 0.00560274 0.0
-0.0194437 0.00836256 0.0
-0.021203 0.0113641 0.0
-0.0228267 0.014591 0.0
-0.0245234 0.0180398 0.0
-0.0264295 0.0217343 0.0
-0.0286335 0.0257064 0.0
-0.0311984 0.0299945 0.0
-0.0341769 0.034639 0.0
-0.0376218 0.03968 0.0
-0.041592 0.0451548 0.0
-0.0461572 0.051095 0.0
-0.0514 0.0575222 0.0
-0.0574163 0.0644418 0.0
-0.0643079 0.0718332 0.0
-0.0721582 0.0796355 0.0
-0.0809699 0.0877252 0.0
-0.0905241 0.0958772 0.0
-0.100098 0.103712 0.0
-0.107954 0.110579 0.0
-0.110511 0.115478 0.0
-0.101159 0.116706 0.0
-0.0687312 0.112242 0.0
0.0043138 0.0984057 0.0
0.143263 0.0749424 0.0
0.380772 0.038103 0.0
0.755997 0.00773634 0.0
-0.00460275 0.000141345 0.0
-0.0114282 0.00111113 0.0
-0.01631 0.00292034 0.0
-0.0197259 0.00510133 0.0
-0.0222024 0.0076095 0.0
-0.024187 0.0103345 0.0
-0.0260223 0.0132621 0.0
-0.0279419 0.0163895 0.0
-0.0300966 0.0197383 0.0
-0.0325822 0.0233367 0.0
-0.0354648 0.0272178 0.0
-0.0387971 0.0314153 0.0
-0.0426291 0.035961 0.0
-0.0470144 0.0408818 0.0
-0.0520131 0.0461971 0.0
-0.0576928 0.0519134 0.0
-0.0641264 0.0580181 0.0
-0.0713811 0.0644708 0.0
-0.079488 0.0711892 0.0
-0.08837 0.0780307 0.0
-0.0976847 0.0847585 0.0
-0.106516 0.0909994 0.0
-0.11283 0.0961469 0.0
-0.112613 0.0993099 0.0
-0.0987096 0.0990227 0.0
-0.0594378 0.0936716 0.0
0.0225435 0.0803914 0.0
0.170535 0.0596007 0.0
0.412183 0.0289312 0.0
0.774587 0.00504762 0.0
-0.00517211 0.00012556 0.0
-0.0127769 0.000984969 0.0
-0.0181823 0.00258568 0.0
-0.0219475 0.00451241 0.0
-0.0246724 0.00672622 0.0
-0.0268571 0.00913005 0.0
-0.0288809 0.0117124 0.0
-0.0309997 0.0144716 0.0
-0.0333764 0.0174275 0.0
-0.0361129 0.020605 0.0
-0.0392769 0.0240329 0.0
-0.04292 0.0277396 0.0
-0.0470883 0.0317507 0.0
-0.0518283 0.0360863 0.0
-0.0571889 0.0407578 0.0
-0.0632214 0.0457627 0.0
-0.0699743 0.0510792 0.0
-0.0774801 0.0566574 0.0
-0.0857197 0.0624074 0.0
-0.0945423 0.0681826 0.0
-0.103496 0.0737522 0.0
-0.111499 0.0787654 0.0
-0.116267 0.0826714 0.0
-0.11344 0.0846855 0.0
-0.095457 0.0835624 0.0
-0.0503359 0.0779899 0.0
0.0388779 0.0658239 0.0
0.19374 0.0476711 0.0
0.437596 0.022243 0.0
0.788483 0.00337461 0.0
-0.00566926 0.00010838 0.0
-0.0139517 0.000844533 0.0
-0.0198099 0.00221178 0.0
-0.0238766 0.00385434 0.0
-0.0268158 0.00574006 0.0
-0.0291742 0.0077874 0.0
-0.0313629 0.00998824 0.0
-0.0336569 0.0123428 0.0
-0.0362295 0.0148694 0.0
-0.0391873 0.0175905 0.0
-0.042599 0.0205316 0.0
-0.0465144 0.0237174 0.0
-0.0509755 0.0271698 0.0
-0.0560211 0.0309053 0.0
-0.0616891 0.0349317 0.0
-0.0680141 0.0392438 0.0
-0.0750211 0.0438176 0.0
-0.0827096 0.0486031 0.0
-0.0910139 0.0535128 0.0
-0.099717 0.0584082 0.0
-0.10827 0.0630744 0.0
-0.115445 0.0671908 0.0
-0.118752 0.0702633 0.0
-0.113547 0.0716003 0.0
-0.0919649 0.070143 0.0
-0.041875 0.0648081 0.0
0.0532498 0.0539856 0.0
0.213366 0.0383302 0.0
0.458197 0.0173039 0.0
0.799051 0.00232065 0.0
-0.00608721 8.97999e-05 0.0
-0.0149348 0.00069179 0.0
-0.0211685 0.00180498 0.0
-0.0254846 0.00313886 0.0
-0.0286018 0.00466889 0.0
-0.0311062 0.00633081 0.0
-0.0334356 0.00812045 0.0
-0.0358807 0.0100405 0.0
-0.0386237 0.0121081 0.0
-0.0417748 0.0143441 0.0
-0.0454035 0.0167717 0.0
-0.0495579 0.0194136 0.0
-0.0542759 0.0222903 0.0
-0.0595899 0.0254176 0.0
-0.0655273 0.0288043 0.0
-0.0721074 0.0324475 0.0
-0.079334 0.036328 0.0
-0.0871761 0.0404029 0.0
-0.095526 0.0445961 0.0
-0.104107 0.0487845 0.0
-0.112282 0.0527762 0.0
-0.118697 0.0562826 0.0
-0.12068 0.058861 0.0
-0.113354 0.0598954 0.0
-0.088627 0.0584735 0.0
-0.0343115 0.0536797 0.0
0.0656691 0.0442902 0.0
0.229853 0.0309492 0.0
0.474923 0.0136038 0.0
0.807211 0.00164529 0.0
-0.0064198 6.98216e-05 0.0
-0.0157114 0.000528197 0.0
-0.0222377 0.00137 0.0
-0.0267477 0.0023748 0.0
-0.0300048 0.00352624 0.0
-0.0326265 0.00477866 0.0
-0.0350719 0.00613224 0.0
-0.0376443 0.00759244 0.0
-0.0405327 0.00917588 0.0
-0.0438506 0.0109021 0.0
-0.0476681 0.0127931 0.0
-0.0520326 0.0148707 0.0
-0.0569791 0.0171563 0.0
-0.0625349 0.019668 0.0
-0.0687188 0.0224191 0.0
-0.0755377 0.025414 0.0
-0.0829768 0.0286439 0.0
-0.0909784 0.0320802 0.0
-0.0993967 0.0356648 0.0
-0.1079 0.0392967 0.0
-0.115771 0.0428109 0.0
-0.121539 0.0459507 0.0
-0.122369 0.0483162 0.0
-0.113187 0.049348 0.0
-0.0857216 0.0482407 0.0
-0.0277915 0.0441965 0.0
0.0762272 0.0362619 0.0
0.243612 0.025041 0.0
0.488517 0.0107809 0.0
0.813596 0.00120118 0.0
-0.00666147 4.85136e-05 0.0
-0.0162689 0.000355186 0.0
-0.0230004 0.000911189 0.0
-0.0276462 0.00157013 0.0
-0.0310034 0.00232414 0.0
-0.0337127 0.00314716 0.0
-0.0362487 0.00404385 0.0
-0.0389241 0.00502266 0.0
-0.041933 0.00609975 0.0
-0.0453916 0.00729386 0.0
-0.0493716 0.00862613 0.0
-0.0539207 0.0101191 0.0
-0.0590728 0.0117963 0.0
-0.0648524 0.0136807 0.0
-0.071273 0.0157932 0.0
-0.0783323 0.01815 0.0
-0.0860006 0.0207582 0.0
-0.0941978 0.0236093 0.0
-0.102744 0.02667 0.0
-0.111255 0.0298674 0.0
-0.118939 0.0330671 0.0
-0.12421 0.0360428 0.0
-0.124081 0.0384287 0.0
-0.113301 0.0397027 0.0
-0.0834551 0.0391298 0.0
-0.0224061 0.0359873 0.0
0.085023 0.029504 0.0
0.254993 0.0202258 0.0
0.499554 0.0085764 0.0
0.818637 0.00089769 0.0
-0.00680747 2.60009e-05 0.0
-0.0165968 0.000174333 0.0
-0.0234428 0.00043304 0.0
-0.0281642 0.000732877 0.0
-0.0315802 0.0010746 0.0
-0.0343465 0.00145228 0.0
-0.0369469 0.00187496 0.0
-0.0397 0.00235402 0.0
-0.0428036 0.00290503 0.0
-0.0463767 0.00354588 0.0
-0.0504931 0.00429724 0.0
-0.0552025 0.0051828 0.0
-0.0605403 0.00622946 0.0
-0.0665314 0.00746677 0.0
-0.0731878 0.00892613 0.0
-0.0805025 0.0106391 0.0
-0.0884361 0.0126335 0.0
-0.0968906 0.0149276 0.0
-0.105656 0.0175192 0.0
-0.114299 0.0203703 0.0
-0.12195 0.0233818 0.0
-0.126908 0.0263573 0.0
-0.126034 0.0289569 0.0
-0.113907 0.0306783 0.0
-0.0819914 0.030823 0.0
-0.0182196 0.0287066 0.0
0.0921472 0.0236715 0.0
0.264275 0.0161943 0.0
0.508464 0.00679657 0.0
0.822627 0.000677333 0.0
-0.00685377 2.46792e-06 0.0
-0.0166869 -1.25811e-05 0.0
-0.0235542 -5.95846e-05 0.0
-0.0282893 -0.000128398 0.0
-0.0317219 -0.000209744 0.0
-0.034513 -0.00028929 0.0
-0.03715 -0.000353975 0.0
-0.0399537 -0.000389912 0.0
-0.0431241 -0.000382605 0.0
-0.046783 -0.000315322 0.0
-0.0510076 -0.000167983 0.0
-0.055852 8.41884e-05 0.0
-0.061356 0.00047167 0.0
-0.0675484 0.00103148 0.0
-0.074445 0.00180747 0.0
-0.0820398 0.00284955 0.0
-0.09029 0.00421106 0.0
-0.0990853 0.00594281 0.0
-0.108189 0.00808162 0.0
-0.117121 0.0106332 0.0
-0.124929 0.013541 0.0
-0.129792 0.0166401 0.0
-0.128408 0.0196106 0.0
-0.115183 0.0219543 0.0
-0.0814717 0.0229799 0.0
-0.0152915 0.0220084 0.0
0.0976623 0.0184402 0.0
0.271663 0.0126742 0.0
0.515553 0.00528519 0.0
0.825757 0.000501088 0.0
-0.0067977 -2.18745e-05 0.0
-0.0165337 -0.000203733 0.0
-0.0233275 -0.000561586 0.0
-0.0280136 -0.00100443 0.0
-0.0314193 -0.0015149 0.0
-0.034202 -0.00205883 0.0
-0.036846 -0.0026199 0.0
-0.039671 -0.00318246 0.0
-0.0428778 -0.00373391 0.0
-0.0465908 -0.00425951 0.0
-0.050892 -0.00474065 0.0
-0.0558413 -0.00515229 0.0
-0.0614866 -0.00546098 0.0
-0.067866 -0.00562235 0.0
-0.0750045 -0.00557942 0.0
-0.0829046 -0.00526182 0.0
-0.091528 -0.00458667 0.0
-0.100761 -0.00346345 0.0
-0.110346 -0.0018064 0.0
-0.119763 0.000443658 0.0
-0.127964 0.00327826 0.0
-0.132986 0.00657187 0.0
-0.131354 0.0100302 0.0
-0.11729 0.013146 0.0
-0.0820402 0.0152066 0.0
-0.0137068 0.0155079 0.0
0.101581 0.0134637 0.0
0.277276 0.00939127 0.0
0.521005 0.00389706 0.0
0.828133 0.000338185 0.0
-0.00663705 -4.67761e-05 0.0
-0.0161338 -0.000396939 0.0
-0.0227594 -0.00106696 0.0
-0.0273336 -0.00188451 0.0
-0.0306683 -0.0028249 0.0
-0.0334075 -0.00383511 0.0
-0.0360263 -0.00489659 0.0
-0.0388394 -0.00599308 0.0
-0.0420469 -0.007115 0.0
-0.0457761 -0.00825105 0.0
-0.0501146 -0.00938573 0.0
-0.0551313 -0.0104954 0.0
-0.0608854 -0.0115452 0.0
-0.0674292 -0.0124848 0.0
-0.0748046 -0.0132454 0.0
-0.0830316 -0.0137356 0.0
-0.0920874 -0.0138406 0.0
-0.101865 -0.0134244 0.0
-0.112096 -0.0123421 0.0
-0.122207 -0.010469 0.0
-0.131062 -0.00774722 0.0
-0.136553 -0.00424682 0.0
-0.134996 -0.000240991 0.0
-0.120369 0.00375404 0.0
-0.0838183 0.00699797 0.0
-0.0135545 0.00873313 0.0
0.103853 0.00833377 0.0
0.28112 0.00603135 0.0
0.524864 0.00247399 0.0
0.829772 0.000158535 0.0
-0.00637139 -7.1909e-05 0.0
-0.0154877 -0.000589411 0.0
-0.0218512 -0.00156839 0.0
-0.0262513 -0.00275607 0.0
-0.0294703 -0.00412137 0.0
-0.0321294 -0.00559381 0.0
-0.034688 -0.00715386 0.0
-0.0374521 -0.008786 0.0
-0.0406193 -0.0104853 0.0
-0.0443194 -0.0122456 0.0
-0.0486468 -0.0140568 0.0
-0.053681 -0.0158996 0.0
-0.0594962 -0.0177406 0.0
-0.0661647 -0.0195277 0.0
-0.0737526 -0.0211832 0.0
-0.0823085 -0.0225977 0.0
-0.0918388 -0.0236248 0.0
-0.102259 -0.0240804 0.0
-0.113304 -0.0237524 0.0
-0.124361 -0.0224299 0.0
-0.134192 -0.0199602 0.0
-0.140502 -0.0163334 0.0
-0.139366 -0.0117853 0.0
-0.12455 -0.00684237 0.0
-0.0870379 -0.00229788 0.0
-0.0150454 0.00101333 0.0
0.104343 0.00245793 0.0
0.283083 0.00216306 0.0
0.527038 0.000810517 0.0
0.830616 -7.33834e-05 0.0
-0.0060017 -9.68813e-05 0.0
-0.0145992 -0.000777872 0.0
-0.0206094 -0.00205727 0.0
-0.0247743 -0.00360428 0.0
-0.027833 -0.00538253 0.0
-0.030374 -0.00730585 0.0
-0.0328343 -0.00935513 0.0
-0.0355077 -0.0115172 0.0
-0.0385871 -0.0137934 0.0
-0.0422041 -0.0161852 0.0
-0.04646 -0.0186908 0.0
-0.0514466 -0.0212988 0.0
-0.0572559 -0.0239829 0.0
-0.063985 -0.0266942 0.0
-0.0717326 -0.0293532 0.0
-0.0805875 -0.031839 0.0
-0.0906019 -0.0339795 0.0
-0.101735 -0.035544 0.0
-0.113746 -0.0362484 0.0
-0.126002 -0.0357821 0.0
-0.137165 -0.0338705 0.0
-0.144741 -0.0303793 0.0
-0.144497 -0.0254433 0.0
-0.129876 -0.0195641 0.0
-0.0916786 -0.0135953 0.0
-0.018309 -0.00847757 0.0
0.10272 -0.00487481 0.0
0.282774 -0.00276141 0.0
0.527138 -0.00135225 0.0
0.830428 -0.000398933 0.0
-0.00553091 -0.000121261 0.0
-0.013477 -0.000958411 0.0
-0.0190467 -0.00252321 0.0
-0.0229178 -0.00441116 0.0
-0.0257719 -0.00658182 0.0
-0.0281556 -0.00893553 0.0
-0.030477 -0.011455 0.0
-0.0330135 -0.0141308 0.0
-0.0359511 -0.0169727 0.0
-0.0394215 -0.0199921 0.0
-0.0435325 -0.023199 0.0
-0.048388 -0.0265947 0.0
-0.0540996 -0.0301661 0.0
-0.0607926 -0.0338764 0.0
-0.0686054 -0.0376545 0.0
-0.0776792 -0.0413803 0.0
-0.0881303 -0.0448682 0.0
-0.0999869 -0.0478519 0.0
-0.113064 -0.0499799 0.0
-0.126739 -0.0508348 0.0
-0.1396 -0.0499959 0.0
-0.148943 -0.0471554 0.0
-0.150199 -0.0422711 0.0
-0.136416 -0.0357127 0.0
-0.0981087 -0.0282719 0.0
-0.0237305 -0.0209768 0.0
0.0986209 -0.0146306 0.0
0.279637 -0.00942318 0.0
0.524515 -0.00435319 0.0
0.828857 -0.000887906 0.0
-0.00496424 -0.000144513 0.0
-0.0121356 -0.00112601 0.0
-0.0171836 -0.00295283 0.0
-0.0207058 -0.00515358 0.0
-0.0233127 -0.00768509 0.0
-0.0254996 -0.0104368 0.0
-0.0276397 -0.0133942 0.0
-0.0299898 -0.0165535 0.0
-0.0327259 -0.019934 0.0
-0.0359776 -0.0235594 0.0
-0.0398571 -0.0274551 0.0
-0.0444788 -0.0316405 0.0
-0.0499732 -0.036123 0.0
-0.056495 -0.0408886 0.0
-0.0642262 -0.045889 0.0
-0.0733704 -0.0510235 0.0
-0.0841258 -0.0561152 0.0
-0.0966182 -0.0608859 0.0
-0.110758 -0.0649371 0.0
-0.125983 -0.0677544 0.0
-0.140849 -0.0687575 0.0
-0.15248 -0.0674149 0.0
-0.155966 -0.0634072 0.0
-0.143908 -0.0568145 0.0
-0.106432 -0.0481636 0.0
-0.0318864 -0.0384063 0.0
0.0911521 -0.0284144 0.0
0.272681 -0.0189434 0.0
0.518203 -0.00875935 0.0
0.825301 -0.00166764 0.0
-0.00430975 -0.000165885 0.0
-0.0105965 -0.00127364 0.0
-0.0150505 -0.00332754 0.0
-0.018174 -0.0057997 0.0
-0.0204933 -0.00864564 0.0
-0.0224449 -0.0117467 0.0
-0.0243609 -0.0150922 0.0
-0.0264735 -0.0186843 0.0
-0.0289452 -0.022553 0.0
-0.0319001 -0.0267361 0.0
-0.035451 -0.031277 0.0
-0.0397194 -0.036218 0.0
-0.0448503 -0.0415949 0.0
-0.0510247 -0.0474281 0.0
-0.0584676 -0.0537098 0.0
-0.0674487 -0.0603832 0.0
-0.0782618 -0.0673137 0.0
-0.091157 -0.0742523 0.0
-0.106186 -0.080798 0.0
-0.122912 -0.0863779 0.0
-0.139939 -0.0902672 0.0
-0.154304 -0.091678 0.0
-0.160831 -0.0899033 0.0
-0.151696 -0.0845202 0.0
-0.116554 -0.0754624 0.0
-0.0433957 -0.0632725 0.0
0.0790891 -0.0485714 0.0
0.260293 -0.0331429 0.0
0.506502 -0.0155562 0.0
0.818687 -0.0029726 0.0
-0.00358052 -0.000183927 0.0
-0.00889313 -0.00139023 0.0
-0.0126931 -0.00361947 0.0
-0.0153753 -0.00630294 0.0
-0.0173714 -0.00939609 0.0
-0.019052 -0.0127754 0.0
-0.0207036 -0.0164335 0.0
-0.0225295 -0.020379 0.0
-0.024675 -0.0246521 0.0
-0.0272544 -0.0293049 0.0
-0.030376 -0.0344003 0.0
-0.0341618 -0.0400062 0.0
-0.0387638 -0.0461929 0.0
-0.0443804 -0.053026 0.0
-0.0512707 -0.060556 0.0
-0.0597647 -0.0687988 0.0
-0.0702531 -0.0777052 0.0
-0.0831278 -0.0871154 0.0
-0.0986241 -0.0967019 0.0
-0.116505 -0.105915 0.0
-0.135544 -0.113952 0.0
-0.152848 -0.119782 0.0
-0.16315 -0.122228 0.0
-0.15837 -0.120126 0.0
-0.127721 -0.112383 0.0
-0.0585985 -0.0985694 0.0
0.0609619 -0.0782829 0.0
0.240232 -0.0547127 0.0
0.486865 -0.0263944 0.0
0.80726 -0.00526262 0.0
-0.00279561 -0.00019605 0.0
-0.00707295 -0.00145852 0.0
-0.0101753 -0.00378679 0.0
-0.0123831 -0.00659471 0.0
-0.0140258 -0.00983841 0.0
-0.015405 -0.0133926 0.0
-0.0167573 -0.0172524 0.0
-0.0182539 -0.021431 0.0
-0.0200185 -0.0259771 0.0
-0.0221509 -0.0309554 0.0
-0.0247485 -0.0364468 0.0
-0.0279252 -0.0425447 0.0
-0.0318286 -0.0493554 0.0
-0.0366589 -0.0569953 0.0
-0.0426908 -0.0655866 0.0
-0.0502933 -0.075244 0.0
-0.0599359 -0.086049 0.0
-0.0721466 -0.0980047 0.0
-0.0873677 -0.110963 0.0
-0.105638 -0.124534 0.0
-0.126049 -0.137976 0.0
-0.146014 -0.150123 0.0
-0.160505 -0.159327 0.0
-0.161554 -0.163504 0.0
-0.138229 -0.160112 0.0
-0.0773286 -0.146985 0.0
0.0350444 -0.121434 0.0
0.209142 -0.0874635 0.0
0.455051 -0.0441355 0.0
0.787656 -0.0095255 0.0
-0.00198981 -0.000196721 0.0
-0.00521331 -0.00145045 0.0
-0.00759817 -0.00376715 0.0
-0.00931206 -0.00657587 0.0
-0.0105818 -0.00983286 0.0
-0.0116393 -0.0134141 0.0
-0.0126696 -0.0173144 0.0
-0.0138087 -0.0215489 0.0
-0.0151553 -0.0261711 0.0
-0.0167899 -0.0312539 0.0
-0.0187928 -0.0368912 0.0
-0.0212601 -0.0431963 0.0
-0.0243213 -0.0503061 0.0
-0.0281585 -0.0583841 0.0
-0.033033 -0.0676248 0.0
-0.0393148 -0.0782531 0.0
-0.0475062 -0.0905143 0.0
-0.0582275 -0.104642 0.0
-0.0721086 -0.120789 0.0
-0.0895035 -0.138904 0.0
-0.109965 -0.158548 0.0
-0.131503 -0.178662 0.0
-0.149781 -0.197322 0.0
-0.157525 -0.211544 0.0
-0.144276 -0.217138 0.0
-0.0966396 -0.209302 0.0
0.00160851 -0.182385 0.0
0.164654 -0.136691 0.0
0.406632 -0.0737322 0.0
0.754944 -0.0178364 0.0
-0.00120865 -0.000178396 0.0
-0.00341085 -0.00133058 0.0
-0.00508439 -0.00348328 0.0
-0.00629872 -0.00612281 0.0
-0.00718705 -0.00920321 0.0
-0.00791503 -0.0126044 0.0
-0.00861594 -0.0163175 0.0
-0.00938887 -0.0203562 0.0
-0.0103047 -0.0247732 0.0
-0.0114209 -0.0296427 0.0