# vtk DataFile Version 3.0
Malha 2D com triângulos e temperatura
ASCII
DATASET UNSTRUCTURED_GRID

POINTS 961 double
0 0 0
1 0 0
1 1 0
0 1 0
0.0333333 0 0
0.0666667 0 0
0.1 0 0
0.133333 0 0
0.166667 0 0
0.2 0 0
0.233333 0 0
0.266667 0 0
0.3 0 0
0.333333 0 0
0.366667 0 0
0.4 0 0
0.433333 0 0
0.466667 0 0
0.5 0 0
0.533333 0 0
0.566667 0 0
0.6 0 0
0.633333 0 0
0.666667 0 0
0.7 0 0
0.733333 0 0
0.766667 0 0
0.8 0 0
0.833333 0 0
0.866667 0 0
0.9 0 0
0.933333 0 0
0.966667 0 0
1 0.0333333 0
1 0.0666667 0
1 0.1 0
1 0.133333 0
1 0.166667 0
1 0.2 0
1 0.233333 0
1 0.266667 0
1 0.3 0
1 0.333333 0
1 0.366667 0
1 0.4 0
1 0.433333 0
1 0.466667 0
1 0.5 0
1 0.533333 0
1 0.566667 0
1 0.6 0
1 0.633333 0
1 0.666667 0
1 0.7 0
1 0.733333 0
1 0.766667 0
1 0.8 0
1 0.833333 0
1 0.866667 0
1 0.9 0
1 0.933333 0
1 0.966667 0
0.966667 1 0
0.933333 1 0
0.9 1 0
0.866667 1 0
0.833333 1 0
0.8 1 0
0.766667 1 0
0.733333 1 0
0.7 1 0
0.666667 1 0
0.633333 1 0
0.6 1 0
0.566667 1 0
0.533333 1 0
0.5 1 0
0.466667 1 0
0.433333 1 0
0.4 1 0
0.366667 1 0
0.333333 1 0
0.3 1 0
0.266667 1 0
0.233333 1 0
0.2 1 0
0.166667 1 0
0.133333 1 0
0.1 1 0
0.0666667 1 0
0.0333333 1 0
0 0.966667 0
0 0.933333 0
0 0.9 0
0 0.866667 0
0 0.833333 0
0 0.8 0
0 0.766667 0
0 0.733333 0
0 0.7 0
0 0.666667 0
0 0.633333 0
0 0.6 0
0 0.566667 0
0 0.533333 0
0 0.5 0
0 0.466667 0
0 0.433333 0
0 0.4 0
0 0.366667 0
0 0.333333 0
0 0.3 0
0 0.266667 0
0 0.233333 0
0 0.2 0
0 0.166667 0
0 0.133333 0
0 0.1 0
0 0.0666667 0
0 0.0333333 0
0.0333333 0.0333333 0
0.0333333 0.0666667 0
0.0333333 0.1 0
0.0333333 0.133333 0
0.0333333 0.166667 0
0.0333333 0.2 0
0.0333333 0.233333 0
0.0333333 0.266667 0
0.0333333 0.3 0
0.0333333 0.333333 0
0.0333333 0.366667 0
0.0333333 0.4 0
0.0333333 0.433333 0
0.0333333 0.466667 0
0.0333333 0.5 0
0.0333333 0.533333 0
0.0333333 0.566667 0
0.0333333 0.6 0
0.0333333 0.633333 0
0.0333333 0.666667 0
0.0333333 0.7 0
0.0333333 0.733333 0
0.0333333 0.766667 0
0.0333333 0.8 0
0.0333333 0.833333 0
0.0333333 0.866667 0
0.0333333 0.9 0
0.0333333 0.933333 0
0.0333333 0.966667 0
0.0666667 0.0333333 0
0.0666667 0.0666667 0
0.0666667 0.1 0
0.0666667 0.133333 0
0.0666667 0.166667 0
0.0666667 0.2 0
0.0666667 0.233333 0
0.0666667 0.266667 0
0.0666667 0.3 0
0.0666667 0.333333 0
0.0666667 0.366667 0
0.0666667 0.4 0
0.0666667 0.433333 0
0.0666667 0.466667 0
0.0666667 0.5 0
0.0666667 0.533333 0
0.0666667 0.566667 0
0.0666667 0.6 0
0.0666667 0.633333 0
0.0666667 0.666667 0
0.0666667 0.7 0
0.0666667 0.733333 0
0.0666667 0.766667 0
0.0666667 0.8 0
0.0666667 0.833333 0
0.0666667 0.866667 0
0.0666667 0.9 0
0.0666667 0.933333 0
0.0666667 0.966667 0
0.1 0.0333333 0
0.1 0.0666667 0
0.1 0.1 0
0.1 0.133333 0
0.1 0.166667 0
0.1 0.2 0
0.1 0.233333 0
0.1 0.266667 0
0.1 0.3 0
0.1 0.333333 0
0.1 0.366667 0
0.1 0.4 0
0.1 0.433333 0
0.1 0.466667 0
0.1 0.5 0
0.1 0.533333 0
0.1 0.566667 0
0.1 0.6 0
0.1 0.633333 0
0.1 0.666667 0
0.1 0.7 0
0.1 0.733333 0
0.1 0.766667 0
0.1 0.8 0
0.1 0.833333 0
0.1 0.866667 0
0.1 0.9 0
0.1 0.933333 0
0.1 0.966667 0
0.133333 0.0333333 0
0.133333 0.0666667 0
0.133333 0.1 0
0.133333 0.133333 0
0.133333 0.166667 0
0.133333 0.2 0
0.133333 0.233333 0
0.133333 0.266667 0
0.133333 0.3 0
0.133333 0.333333 0
0.133333 0.366667 0
0.133333 0.4 0
0.133333 0.433333 0
0.133333 0.466667 0
0.133333 0.5 0
0.133333 0.533333 0
0.133333 0.566667 0
0.133333 0.6 0
0.133333 0.633333 0
0.133333 0.666667 0
0.133333 0.7 0
0.133333 0.733333 0
0.133333 0.766667 0
0.133333 0.8 0
0.133333 0.833333 0
0.133333 0.866667 0
0.133333 0.9 0
0.133333 0.933333 0
0.133333 0.966667 0
0.166667 0.0333333 0
0.166667 0.0666667 0
0.166667 0.1 0
0.166667 0.133333 0
0.166667 0.166667 0
0.166667 0.2 0
0.166667 0.233333 0
0.166667 0.266667 0
0.166667 0.3 0
0.166667 0.333333 0
0.166667 0.366667 0
0.166667 0.4 0
0.166667 0.433333 0
0.166667 0.466667 0
0.166667 0.5 0
0.166667 0.533333 0
0.166667 0.566667 0
0.166667 0.6 0
0.166667 0.633333 0
0.166667 0.666667 0
0.166667 0.7 0
0.166667 0.733333 0
0.166667 0.766667 0
0.166667 0.8 0
0.166667 0.833333 0
0.166667 0.866667 0
0.166667 0.9 0
0.166667 0.933333 0
0.166667 0.966667 0
0.2 0.0333333 0
0.2 0.0666667 0
0.2 0.1 0
0.2 0.133333 0
0.2 0.166667 0
0.2 0.2 0
0.2 0.233333 0
0.2 0.266667 0
0.2 0.3 0
0.2 0.333333 0
0.2 0.366667 0
0.2 0.4 0
0.2 0.433333 0
0.2 0.466667 0
0.2 0.5 0
0.2 0.533333 0
0.2 0.566667 0
0.2 0.6 0
0.2 0.633333 0
0.2 0.666667 0
0.2 0.7 0
0.2 0.733333 0
0.2 0.766667 0
0.2 0.8 0
0.2 0.833333 0
0.2 0.866667 0
0.2 0.9 0
0.2 0.933333 0
0.2 0.966667 0
0.233333 0.0333333 0
0.233333 0.0666667 0
0.233333 0.1 0
0.233333 0.133333 0
0.233333 0.166667 0
0.233333 0.2 0
0.233333 0.233333 0
0.233333 0.266667 0
0.233333 0.3 0
0.233333 0.333333 0
0.233333 0.366667 0
0.233333 0.4 0
0.233333 0.433333 0
0.233333 0.466667 0
0.233333 0.5 0
0.233333 0.533333 0
0.233333 0.566667 0
0.233333 0.6 0
0.233333 0.633333 0
0.233333 0.666667 0
0.233333 0.7 0
0.233333 0.733333 0
0.233333 0.766667 0
0.233333 0.8 0
0.233333 0.833333 0
0.233333 0.866667 0
0.233333 0.9 0
0.233333 0.933333 0
0.233333 0.966667 0
0.266667 0.0333333 0
0.266667 0.0666667 0
0.266667 0.1 0
0.266667 0.133333 0
0.266667 0.166667 0
0.266667 0.2 0
0.266667 0.233333 0
0.266667 0.266667 0
0.266667 0.3 0
0.266667 0.333333 0
0.266667 0.366667 0
0.266667 0.4 0
0.266667 0.433333 0
0.266667 0.466667 0
0.266667 0.5 0
0.266667 0.533333 0
0.266667 0.566667 0
0.266667 0.6 0
0.266667 0.633333 0
0.266667 0.666667 0
0.266667 0.7 0
0.266667 0.733333 0
0.266667 0.766667 0
0.266667 0.8 0
0.266667 0.833333 0
0.266667 0.866667 0
0.266667 0.9 0
0.266667 0.933333 0
0.266667 0.966667 0
0.3 0.0333333 0
0.3 0.0666667 0
0.3 0.1 0
0.3 0.133333 0
0.3 0.166667 0
0.3 0.2 0
0.3 0.233333 0
0.3 0.266667 0
0.3 0.3 0
0.3 0.333333 0
0.3 0.366667 0
0.3 0.4 0
0.3 0.433333 0
0.3 0.466667 0
0.3 0.5 0
0.3 0.533333 0
0.3 0.566667 0
0.3 0.6 0
0.3 0.633333 0
0.3 0.666667 0
0.3 0.7 0
0.3 0.733333 0
0.3 0.766667 0
0.3 0.8 0
0.3 0.833333 0
0.3 0.866667 0
0.3 0.9 0
0.3 0.933333 0
0.3 0.966667 0
0.333333 0.0333333 0
0.333333 0.0666667 0
0.333333 0.1 0
0.333333 0.133333 0
0.333333 0.166667 0
0.333333 0.2 0
0.333333 0.233333 0
0.333333 0.266667 0
0.333333 0.3 0
0.333333 0.333333 0
0.333333 0.366667 0
0.333333 0.4 0
0.333333 0.433333 0
0.333333 0.466667 0
0.333333 0.5 0
0.333333 0.533333 0
0.333333 0.566667 0
0.333333 0.6 0
0.333333 0.633333 0
0.333333 0.666667 0
0.333333 0.7 0
0.333333 0.733333 0
0.333333 0.766667 0
0.333333 0.8 0
0.333333 0.833333 0
0.333333 0.866667 0
0.333333 0.9 0
0.333333 0.933333 0
0.333333 0.966667 0
0.366667 0.0333333 0
0.366667 0.0666667 0
0.366667 0.1 0
0.366667 0.133333 0
0.366667 0.166667 0
0.366667 0.2 0
0.366667 0.233333 0
0.366667 0.266667 0
0.366667 0.3 0
0.366667 0.333333 0
0.366667 0.366667 0
0.366667 0.4 0
0.366667 0.433333 0
0.366667 0.466667 0
0.366667 0.5 0
0.366667 0.533333 0
0.366667 0.566667 0
0.366667 0.6 0
0.366667 0.633333 0
0.366667 0.666667 0
0.366667 0.7 0
0.366667 0.733333 0
0.366667 0.766667 0
0.366667 0.8 0
0.366667 0.833333 0
0.366667 0.866667 0
0.366667 0.9 0
0.366667 0.933333 0
0.366667 0.966667 0
0.4 0.0333333 0
0.4 0.0666667 0
0.4 0.1 0
0.4 0.133333 0
0.4 0.166667 0
0.4 0.2 0
0.4 0.233333 0
0.4 0.266667 0
0.4 0.3 0
0.4 0.333333 0
0.4 0.366667 0
0.4 0.4 0
0.4 0.433333 0
0.4 0.466667 0
0.4 0.5 0
0.4 0.533333 0
0.4 0.566667 0
0.4 0.6 0
0.4 0.633333 0
0.4 0.666667 0
0.4 0.7 0
0.4 0.733333 0
0.4 0.766667 0
0.4 0.8 0
0.4 0.833333 0
0.4 0.866667 0
0.4 0.9 0
0.4 0.933333 0
0.4 0.966667 0
0.433333 0.0333333 0
0.433333 0.0666667 0
0.433333 0.1 0
0.433333 0.133333 0
0.433333 0.166667 0
0.433333 0.2 0
0.433333 0.233333 0
0.433333 0.266667 0
0.433333 0.3 0
0.433333 0.333333 0
0.433333 0.366667 0
0.433333 0.4 0
0.433333 0.433333 0
0.433333 0.466667 0
0.433333 0.5 0
0.433333 0.533333 0
0.433333 0.566667 0
0.433333 0.6 0
0.433333 0.633333 0
0.433333 0.666667 0
0.433333 0.7 0
0.433333 0.733333 0
0.433333 0.766667 0
0.433333 0.8 0
0.433333 0.833333 0
0.433333 0.866667 0
0.433333 0.9 0
0.433333 0.933333 0
0.433333 0.966667 0
0.466667 0.0333333 0
0.466667 0.0666667 0
0.466667 0.1 0
0.466667 0.133333 0
0.466667 0.166667 0
0.466667 0.2 0
0.466667 0.233333 0
0.466667 0.266667 0
0.466667 0.3 0
0.466667 0.333333 0
0.466667 0.366667 0
0.466667 0.4 0
0.466667 0.433333 0
0.466667 0.466667 0
0.466667 0.5 0
0.466667 0.533333 0
0.466667 0.566667 0
0.466667 0.6 0
0.466667 0.633333 0
0.466667 0.666667 0
0.466667 0.7 0
0.466667 0.733333 0
0.466667 0.766667 0
0.466667 0.8 0
0.466667 0.833333 0
0.466667 0.866667 0
0.466667 0.9 0
0.466667 0.933333 0
0.466667 0.966667 0
0.5 0.0333333 0
0.5 0.0666667 0
0.5 0.1 0
0.5 0.133333 0
0.5 0.166667 0
0.5 0.2 0
0.5 0.233333 0
0.5 0.266667 0
0.5 0.3 0
0.5 0.333333 0
0.5 0.366667 0
0.5 0.4 0
0.5 0.433333 0
0.5 0.466667 0
0.5 0.5 0
0.5 0.533333 0
0.5 0.566667 0
0.5 0.6 0
0.5 0.633333 0
0.5 0.666667 0
0.5 0.7 0
0.5 0.733333 0
0.5 0.766667 0
0.5 0.8 0
0.5 0.833333 0
0.5 0.866667 0
0.5 0.9 0
0.5 0.933333 0
0.5 0.966667 0
0.533333 0.0333333 0
0.533333 0.0666667 0
0.533333 0.1 0
0.533333 0.133333 0
0.533333 0.166667 0
0.533333 0.2 0
0.533333 0.233333 0
0.533333 0.266667 0
0.533333 0.3 0
0.533333 0.333333 0
0.533333 0.366667 0
0.533333 0.4 0
0.533333 0.433333 0
0.533333 0.466667 0
0.533333 0.5 0
0.533333 0.533333 0
0.533333 0.566667 0
0.533333 0.6 0
0.533333 0.633333 0
0.533333 0.666667 0
0.533333 0.7 0
0.533333 0.733333 0
0.533333 0.766667 0
0.533333 0.8 0
0.533333 0.833333 0
0.533333 0.866667 0
0.533333 0.9 0
0.533333 0.933333 0
0.533333 0.966667 0
0.566667 0.0333333 0
0.566667 0.0666667 0
0.566667 0.1 0
0.566667 0.133333 0
0.566667 0.166667 0
0.566667 0.2 0
0.566667 0.233333 0
0.566667 0.266667 0
0.566667 0.3 0
0.566667 0.333333 0
0.566667 0.366667 0
0.566667 0.4 0
0.566667 0.433333 0
0.566667 0.466667 0
0.566667 0.5 0
0.566667 0.533333 0
0.566667 0.566667 0
0.566667 0.6 0
0.566667 0.633333 0
0.566667 0.666667 0
0.566667 0.7 0
0.566667 0.733333 0
0.566667 0.766667 0
0.566667 0.8 0
0.566667 0.833333 0
0.566667 0.866667 0
0.566667 0.9 0
0.566667 0.933333 0
0.566667 0.966667 0
0.6 0.0333333 0
0.6 0.0666667 0
0.6 0.1 0
0.6 0.133333 0
[...]
CELL_DATA 900
VECTORS velocity double
3.73824e-05 -3.63725e-05 0.0
-7.77077e-05 0.000168104 0.0
-0.000148966 0.000712087 0.0
-0.000186695 0.0013923 0.0
-0.000201929 0.00216887 0.0
-0.000211456 0.00299354 0.0
-0.000221482 0.00386721 0.0
-0.000234919 0.00479489 0.0
-0.000252429 0.0057903 0.0
-0.000274365 0.0068685 0.0
-0.000301089 0.0080471 0.0
-0.000333217 0.00934605 0.0
-0.000371668 0.0107887 0.0
-0.000417769 0.0124032 0.0
-0.000473429 0.0142241 0.0
-0.000541483 0.0162953 0.0
-0.000626374 0.0186744 0.0
-0.000735593 0.0214397 0.0
-0.000882859 0.0247021 0.0
-0.00109523 0.0286276 0.0
-0.00142861 0.0334767 0.0
-0.00200035 0.0396786 0.0
-0.0030506 0.0479675 0.0
-0.00505087 0.0595814 0.0
-0.00883178 0.076638 0.0
-0.0156973 0.102064 0.0
-0.0264999 0.140971 0.0
-0.0383935 0.190933 0.0
-0.0127647 0.264982 0.0
0.217992 0.175352 0.0
-0.000169942 8.09172e-05 0.0
-0.000741535 0.000740925 0.0
-0.00111477 0.00200801 0.0
-0.00133594 0.00352731 0.0
-0.00146254 0.00524876 0.0
-0.00155819 0.0070925 0.0
-0.00165488 0.00905824 0.0
-0.00176926 0.0111551 0.0
-0.0019087 0.0134096 0.0
-0.00207792 0.0158531 0.0
-0.00228138 0.0185233 0.0
-0.00252466 0.0214638 0.0
-0.00281531 0.0247258 0.0
-0.00316376 0.0283706 0.0
-0.00358472 0.0324737 0.0
-0.0040994 0.0371297 0.0
-0.00473931 0.0424612 0.0
-0.0055529 0.0486308 0.0
-0.00661737 0.0558601 0.0
-0.00805998 0.0644585 0.0
-0.0100946 0.0748649 0.0
-0.0130801 0.0876995 0.0
-0.0175904 0.103811 0.0
-0.0244652 0.12423 0.0
-0.0346343 0.149912 0.0
-0.0485926 0.180586 0.0
-0.0636077 0.213016 0.0
-0.0689907 0.234163 0.0
-0.00348469 0.217675 0.0
0.307553 0.117279 0.0
-0.000713331 0.000149817 0.0
-0.00200303 0.00108761 0.0
-0.0028431 0.00278221 0.0
-0.00335155 0.0047677 0.0
-0.00366873 0.00699816 0.0
-0.00391908 0.00938267 0.0
-0.00417285 0.0119244 0.0
-0.00446733 0.0146361 0.0
-0.00482142 0.0175506 0.0
-0.00524753 0.0207068 0.0
-0.00575718 0.0241511 0.0
-0.0063642 0.0279367 0.0
-0.00708672 0.0321255 0.0
-0.00794932 0.0367904 0.0
-0.0089861 0.0420193 0.0
-0.0102452 0.0479199 0.0
-0.0117961 0.0546267 0.0
-0.0137414 0.0623111 0.0
-0.0162354 0.0711945 0.0
-0.0195128 0.0815648 0.0
-0.0239276 0.0937934 0.0
-0.0299909 0.10834 0.0
-0.0383506 0.125708 0.0
-0.0495923 0.146276 0.0
-0.0634695 0.169758 0.0
-0.0772431 0.194227 0.0
-0.0810833 0.213241 0.0
-0.0505903 0.21526 0.0
0.0856784 0.16801 0.0
0.477277 0.0769099 0.0
-0.00137044 0.000180998 0.0
-0.00346312 0.00125083 0.0
-0.00479674 0.0031417 0.0
-0.00559951 0.00532682 0.0
-0.00611474 0.00776762 0.0
-0.00653068 0.0103704 0.0
-0.00695581 0.0131422 0.0
-0.00744735 0.0160975 0.0
-0.00803534 0.0192712 0.0
-0.00873963 0.0227039 0.0
-0.00957856 0.0264431 0.0
-0.0105736 0.030543 0.0
-0.0117524 0.035065 0.0
-0.0131517 0.0400803 0.0
-0.0148213 0.0456719 0.0
-0.01683 0.0519379 0.0
-0.0192741 0.0589952 0.0
-0.0222905 0.0669837 0.0
-0.0260754 0.0760702 0.0
-0.0309096 0.0864492 0.0
-0.0371828 0.0983327 0.0
-0.0453916 0.111919 0.0
-0.0560226 0.127288 0.0
-0.06914 0.144209 0.0
-0.0832358 0.161557 0.0
-0.0928852 0.176737 0.0
-0.0838338 0.183009 0.0
-0.0247448 0.171911 0.0
0.152223 0.119827 0.0
0.572203 0.0482195 0.0
-0.00208359 0.000184466 0.0
-0.0050308 0.00128279 0.0
-0.00687402 0.00321623 0.0
-0.00797545 0.00543539 0.0
-0.00869177 0.00790574 0.0
-0.00927781 0.0105336 0.0
-0.00988037 0.0133284 0.0
-0.010576 0.0163046 0.0
-0.0114053 0.0194967 0.0
-0.012395 0.0229433 0.0
-0.0135692 0.0266895 0.0
-0.014956 0.0307847 0.0
-0.0165903 0.0352844 0.0
-0.0185181 0.0402501 0.0
-0.0208 0.045751 0.0
-0.0235179 0.0518642 0.0
-0.0267826 0.0586755 0.0
-0.0307461 0.0662785 0.0
-0.0356163 0.0747705 0.0
-0.0416732 0.0842429 0.0
-0.0492728 0.0947573 0.0
-0.0588016 0.106301 0.0
-0.0704718 0.118673 0.0
-0.0837365 0.131327 0.0
-0.0958719 0.142862 0.0
-0.0991877 0.150754 0.0
-0.0761509 0.149242 0.0
0.00814997 0.132233 0.0
0.213921 0.0842428 0.0
0.638387 0.0294027 0.0
-0.00278364 0.000177333 0.0
-0.00657895 0.0012474 0.0
-0.00891904 0.00313101 0.0
-0.0103069 0.00528601 0.0
-0.0112139 0.00768029 0.0
-0.0119614 0.0102225 0.0
-0.0127331 0.0129226 0.0
-0.0136234 0.0157943 0.0
-0.0146821 0.0188696 0.0
-0.0159414 0.0221839 0.0
-0.0174298 0.0257771 0.0
-0.0191795 0.0296924 0.0
-0.0212301 0.0339759 0.0
-0.0236322 0.0386772 0.0
-0.0264513 0.043848 0.0
-0.0297731 0.0495421 0.0
-0.0337102 0.0558122 0.0
-0.0384114 0.0627059 0.0
-0.0440709 0.0702571 0.0
-0.0509348 0.0784711 0.0
-0.0592869 0.0872962 0.0
-0.0693681 0.0965805 0.0
-0.0811108 0.10597 0.0
-0.0934395 0.1148 0.0
-0.102688 0.121688 0.0
-0.0995858 0.124477 0.0
-0.0645644 0.118603 0.0
0.0382362 0.100273 0.0
0.262476 0.0595738 0.0
0.682707 0.0179471 0.0
-0.00345184 0.000165548 0.0
-0.00806272 0.00117546 0.0
-0.0108764 0.00295455 0.0
-0.0125352 0.00498675 0.0
-0.0136209 0.00724199 0.0
-0.0145191 0.00963325 0.0
-0.0154485 0.0121701 0.0
-0.0165199 0.0148646 0.0
-0.0177912 0.0177457 0.0
-0.0192985 0.0208445 0.0
-0.0210733 0.0241954 0.0
-0.0231499 0.027834 0.0
-0.0255696 0.0317972 0.0
-0.028384 0.0361218 0.0
-0.0316579 0.0408432 0.0
-0.035474 0.045993 0.0
-0.0399371 0.0515951 0.0
-0.0451802 0.0576593 0.0
-0.0513689 0.0641709 0.0
-0.0586988 0.0710751 0.0
-0.0673666 0.0782504 0.0
-0.0774653 0.0854725 0.0
-0.0886762 0.0923336 0.0
-0.099493 0.0981739 0.0
-0.105538 0.101768 0.0
-0.096446 0.101398 0.0
-0.0514633 0.0935402 0.0
0.065013 0.0761032 0.0
0.301047 0.0425528 0.0
0.712966 0.0110256 0.0
-0.00407229 0.000151921 0.0
-0.00944451 0.00108277 0.0
-0.0126981 0.00272253 0.0
-0.0146072 0.00459366 0.0
-0.0158564 0.00666849 0.0
-0.0168919 0.00886622 0.0
-0.0179645 0.0111955 0.0
-0.0192001 0.0136668 0.0
-0.0206629 0.0163054 0.0
-0.0223921 0.0191381 0.0
-0.0244204 0.0221935 0.0
-0.0267826 0.0255004 0.0
-0.0295194 0.0290867 0.0
-0.0326799 0.032978 0.0
-0.0363246 0.0371957 0.0
-0.0405275 0.0417536 0.0
-0.0453796 0.0466531 0.0
-0.0509909 0.0518766 0.0
-0.0574913 0.0573772 0.0
-0.0650208 0.0630641 0.0
-0.0736914 0.0687808 0.0
-0.0834652 0.0742783 0.0
-0.0938198 0.0791535 0.0
-0.102923 0.0828126 0.0
-0.105887 0.0842291 0.0
-0.0916167 0.0820848 0.0
-0.0387191 0.0737124 0.0
0.0877511 0.0580713 0.0
0.331267 0.0308354 0.0
0.734019 0.00689077 0.0
-0.00463749 0.000136865 0.0
-0.0107036 0.000975147 0.0
-0.0143566 0.00245063 0.0
-0.0164922 0.0041327 0.0
-0.0178885 0.00599666 0.0
-0.019047 0.00796959 0.0
-0.0202477 0.0100592 0.0
-0.0216293 0.0122742 0.0
-0.0232616 0.0146367 0.0
-0.0251857 0.0171689 0.0
-0.0274347 0.0198944 0.0
-0.0300421 0.0228358 0.0
-0.0330461 0.0260136 0.0
-0.0364918 0.0294444 0.0
-0.0404322 0.0331387 0.0
-0.04493 0.0370974 0.0
-0.0500588 0.0413069 0.0
-0.055903 0.0457326 0.0
-0.0625552 0.0503097 0.0
-0.0701021 0.0549314 0.0
-0.0785802 0.0594315 0.0
-0.0878434 0.0635664 0.0
-0.0972107 0.0669695 0.0
-0.104608 0.0691345 0.0
-0.104785 0.0692281 0.0
-0.0861621 0.0662519 0.0
-0.0270214 0.0581987 0.0
0.106754 0.0446252 0.0
0.354924 0.0226959 0.0
0.748983 0.0044201 0.0
-0.00514017 0.000120459 0.0
-0.011822 0.00085532 0.0
-0.0158283 0.00214673 0.0
-0.0181635 0.00361738 0.0
-0.0196892 0.00524613 0.0
-0.0209557 0.00696931 0.0
-0.0222685 0.00879379 0.0
-0.0237776 0.010727 0.0
-0.0255573 0.0127876 0.0
-0.0276497 0.0149942 0.0
-0.0300872 0.0173658 0.0
-0.0329017 0.0199201 0.0
-0.0361279 0.0226717 0.0
-0.0398051 0.0256308 0.0
-0.0439778 0.0288007 0.0
-0.0486961 0.0321744 0.0
-0.0540153 0.03573 0.0
-0.0599947 0.0394249 0.0
-0.0666914 0.0431882 0.0
-0.0741451 0.0469117 0.0
-0.0823287 0.0504363 0.0
-0.0910106 0.0535406 0.0
-0.0993898 0.0559077 0.0
-0.105216 0.0571194 0.0
-0.102978 0.0565102 0.0
-0.0807728 0.0533224 0.0
-0.0167328 0.046042 0.0
0.122422 0.0345371 0.0
0.373455 0.0169657 0.0
0.759855 0.00293134 0.0
-0.0055744 0.000102674 0.0
-0.0127857 0.000724802 0.0
-0.0170945 0.00181561 0.0
-0.0196005 0.00305626 0.0
-0.0212367 0.00442959 0.0
-0.0225956 0.00588241 0.0
-0.0240046 0.00742092 0.0
-0.0256229 0.00905154 0.0
-0.0275284 0.01079 0.0
-0.0297636 0.0126516 0.0
-0.0323602 0.0146518 0.0
-0.0353475 0.0168044 0.0
-0.0387565 0.0191202 0.0
-0.0426206 0.0216054 0.0
-0.0469756 0.0242595 0.0
-0.0518591 0.0270722 0.0
-0.0573093 0.0300191 0.0
-0.0633616 0.0330574 0.0
-0.0700427 0.0361191 0.0
-0.0773518 0.0391042 0.0
-0.0852105 0.0418713 0.0
-0.0933206 0.0442294 0.0
-0.100791 0.0459141 0.0
-0.10524 0.0465857 0.0
-0.100966 0.0457145 0.0
-0.0758449 0.042716 0.0
-0.00795188 0.0364335 0.0
0.135214 0.0268772 0.0
0.387993 0.0128561 0.0
0.767919 0.00201704 0.0
-0.00593468 8.35786e-05 0.0
-0.0135823 0.000584967 0.0
-0.0181393 0.00146126 0.0
-0.0207851 0.00245637 0.0
-0.0225122 0.00355749 0.0
-0.0239479 0.00472283 0.0
-0.025437 0.00595815 0.0
-0.0271466 0.00726919 0.0
-0.029157 0.00866901 0.0
-0.0315113 0.0101703 0.0
-0.0342398 0.0117858 0.0
-0.0373698 0.0135265 0.0
-0.0409287 0.0154012 0.0
-0.0449443 0.0174145 0.0
-0.0494445 0.019565 0.0
-0.0544558 0.0218431 0.0
-0.0600009 0.024227 0.0
-0.0660953 0.0266795 0.0
-0.0727393 0.029142 0.0
-0.0798992 0.0315302 0.0
-0.0874558 0.0337256 0.0
-0.0950589 0.0355712 0.0
-0.101748 0.0368518 0.0
-0.105041 0.0372933 0.0
-0.0990901 0.0364707 0.0
-0.0716107 0.0339188 0.0
-0.000667873 0.0287301 0.0
0.145544 0.0209647 0.0
0.399405 0.00984087 0.0
0.774001 0.00143792 0.0
-0.0062163 6.33004e-05 0.0
-0.0142015 0.000437219 0.0
-0.0189494 0.00108751 0.0
-0.0217027 0.00182435 0.0
-0.0235006 0.00263955 0.0
-0.0249969 0.00350346 0.0
-0.0265503 0.00442153 0.0
-0.0283337 0.00539911 0.0
-0.0304291 0.00644693 0.0
-0.0328801 0.00757549 0.0
-0.0357161 0.00879546 0.0
-0.0389627 0.0101164 0.0
-0.0426442 0.0115463 0.0
-0.0467842 0.0130902 0.0
-0.0514041 0.0147485 0.0
-0.0565212 0.0165155 0.0
-0.062146 0.0183762 0.0
-0.0682773 0.0203034 0.0
-0.0748943 0.0222533 0.0
-0.081937 0.0241615 0.0
-0.0892533 0.0259365 0.0
-0.0964516 0.0274554 0.0
-0.102515 0.0285474 0.0
-0.104879 0.0289908 0.0
-0.0975773 0.0284374 0.0
-0.0681982 0.0264985 0.0
0.00518123 0.0224367 0.0
0.153766 0.0163047 0.0
0.40834 0.00756808 0.0
0.778642 0.00105481 0.0
-0.00641526 4.20192e-05 0.0
-0.014635 0.000283066 0.0
-0.0195141 0.00069828 0.0
-0.0223416 0.00116685 0.0
-0.0241894 0.00168536 0.0
-0.0257303 0.00223685 0.0
-0.0273321 0.00282651 0.0
-0.0291718 0.00345948 0.0
-0.0313331 0.00414434 0.0
-0.0338595 0.0048898 0.0
-0.0367805 0.00570502 0.0
-0.0401204 0.00659891 0.0
-0.0439022 0.00757979 0.0
-0.0481462 0.00865458 0.0
-0.0528697 0.00982784 0.0
-0.0580834 0.0111003 0.0
-0.063789 0.0124669 0.0
-0.0699729 0.0139143 0.0
-0.0765982 0.0154174 0.0
-0.083584 0.0169354 0.0
-0.0907515 0.0184065 0.0
-0.0976742 0.0197418 0.0
-0.103285 0.02081 0.0
-0.104947 0.0214301 0.0
-0.0965868 0.0213075 0.0
-0.0656833 0.0200951 0.0
0.009663 0.0171728 0.0
0.160165 0.0125321 0.0
0.415275 0.00579915 0.0
0.782197 0.000786813 0.0
-0.00652842 1.99451e-05 0.0
-0.0148762 0.000124113 0.0
-0.0198253 0.000297616 0.0
-0.0226926 0.000490636 0.0
-0.0245693 0.000704612 0.0
-0.0261383 0.00093556 0.0
-0.0277726 0.0011884 0.0
-0.0296513 0.00146806 0.0
-0.0318592 0.00178106 0.0
-0.0344405 0.00213448 0.0
-0.037425 0.00253627 0.0
-0.0408372 0.00299515 0.0
-0.0446997 0.00352059 0.0
-0.0490322 0.00412254 0.0
-0.0538498 0.00481097 0.0
-0.0591604 0.00559511 0.0
-0.0649602 0.00648249 0.0
-0.0712282 0.00747675 0.0
-0.0779161 0.00857481 0.0
-0.0849275 0.00976334 0.0
-0.0920612 0.0110126 0.0
-0.0988587 0.0122687 0.0
-0.104205 0.0134367 0.0
-0.105391 0.0143667 0.0
-0.0962355 0.0147986 0.0
-0.064117 0.0143993 0.0
0.012848 0.0126204 0.0
0.164958 0.00936749 0.0
0.420554 0.00436519 0.0
0.784899 0.000585808 0.0
-0.00655352 -2.69227e-06 0.0
-0.0149206 -3.79778e-05 0.0
-0.0198772 -0.000110304 0.0
-0.0227497 -0.0001973 0.0
-0.0246337 -0.000292732 0.0
-0.026214 -0.000387535 0.0
-0.0278643 -0.000477237 0.0
-0.0297642 -0.000557243 0.0
-0.0319992 -0.000623215 0.0
-0.0346143 -0.000669756 0.0
-0.0376407 -0.000690108 0.0
-0.0411042 -0.000675613 0.0
-0.0450289 -0.000615367 0.0
-0.0494359 -0.000495873 0.0
-0.0543416 -0.000300814 0.0
-0.0597544 -1.10242e-05 0.0
-0.0656705 0.000395149 0.0
-0.0720655 0.000940753 0.0
-0.0788856 0.00164824 0.0
-0.0860235 0.00253562 0.0
-0.0932593 0.00360943 0.0
-0.100103 0.00485379 0.0
-0.105387 0.00620972 0.0
-0.106321 0.00755276 0.0
-0.0966164 0.00864032 0.0
-0.0635454 0.00913014 0.0
0.014773 0.00850851 0.0
0.168291 0.0065826 0.0
0.424409 0.00313766 0.0
0.786895 0.000421461 0.0
-0.00648932 -2.56984e-05 0.0
-0.014766 -0.000201632 0.0
-0.0196672 -0.000521273 0.0
-0.0225096 -0.000889704 0.0
-0.0243792 -0.0012962 0.0
-0.0259535 -0.0017189 0.0
-0.0276028 -0.00215406 0.0
-0.0295052 -0.00259766 0.0
-0.0317465 -0.00304784 0.0
-0.0343734 -0.00350118 0.0
-0.0374188 -0.00395244 0.0
-0.0409116 -0.00439336 0.0
-0.044879 -0.00481187 0.0
-0.0493463 -0.00519109 0.0
-0.0543341 -0.0055083 0.0
-0.0598557 -0.00573399 0.0
-0.0659114 -0.00583134 0.0
-0.0724808 -0.00575578 0.0
-0.0795108 -0.00545604 0.0
-0.0868891 -0.00487784 0.0
-0.0943807 -0.00397191 0.0
-0.101463 -0.00270918 0.0
-0.106909 -0.00110881 0.0
-0.107833 0.00072514 0.0
-0.0978128 0.00255328 0.0
-0.0640079 0.00400813 0.0
0.0154589 0.00458535 0.0
0.17024 0.00397598 0.0
0.426968 0.00200893 0.0
0.788266 0.000272153 0.0
-0.00633518 -4.88387e-05 0.0
-0.0144118 -0.000365062 0.0
-0.019195 -0.000930691 0.0
-0.0219725 -0.0015788 0.0
-0.0238053 -0.00229466 0.0
-0.0253557 -0.00304415 0.0
-0.0269856 -0.00382463 0.0
-0.0288703 -0.00463307 0.0
-0.0310955 -0.00547052 0.0
-0.0337096 -0.00633613 0.0
-0.0367483 -0.00722687 0.0
-0.0402446 -0.00813568 0.0
-0.0442309 -0.00905026 0.0
-0.0487392 -0.00995136 0.0
-0.0537983 -0.0108108 0.0
-0.059431 -0.0115895 0.0
-0.0656482 -0.0122349 0.0
-0.0724404 -0.0126799 0.0
-0.0797634 -0.0128414 0.0
-0.0875079 -0.0126236 0.0
-0.0954292 -0.0119259 0.0
-0.102969 -0.0106628 0.0
-0.108826 -0.00880054 0.0
-0.109993 -0.0064164 0.0
-0.0999079 -0.00375275 0.0
-0.0656058 -0.00124337 0.0
0.0148454 0.00057928 0.0
0.170827 0.00131648 0.0
0.428285 0.000865338 0.0
0.789042 0.000119715 0.0
-0.00609176 -7.18036e-05 0.0
-0.0138602 -0.00052618 0.0
-0.0184639 -0.00133348 0.0
-0.0211416 -0.00225624 0.0
-0.0229153 -0.00327629 0.0
-0.0244229 -0.00434798 0.0
-0.026014 -0.00547023 0.0
-0.027859 -0.00664158 0.0
-0.0300432 -0.00786665 0.0
-0.0326167 -0.00914798 0.0
-0.0356189 -0.0104858 0.0
-0.0390877 -0.0118755 0.0
-0.0430627 -0.0133064 0.0
-0.0475848 -0.0147585 0.0
-0.052695 -0.0162003 0.0
-0.0584305 -0.017585 0.0
-0.0648199 -0.0188463 0.0
-0.0718734 -0.0198946 0.0
-0.0795665 -0.0206137 0.0
-0.0878047 -0.0208608 0.0
-0.096343 -0.0204743 0.0
-0.104591 -0.019296 0.0
-0.111162 -0.0172179 0.0
-0.112889 -0.0142641 0.0
-0.102996 -0.0106714 0.0
-0.0683482 -0.00696563 0.0
0.0129189 -0.00375939 0.0
0.16994 -0.00159055 0.0
0.428248 -0.000414768 0.0
0.789174 -6.30483e-05 0.0
-0.00576083 -9.42723e-05 0.0
-0.0131157 -0.00068278 0.0
-0.01748 -0.00172422 0.0
-0.020024 -0.00291306 0.0
-0.0217158 -0.00422827 0.0
-0.023161 -0.00561363 0.0
-0.0246923 -0.00707018 0.0
-0.0264737 -0.00859869 0.0
-0.0285891 -0.0102081 0.0
-0.0310902 -0.0119054 0.0
-0.0340204 -0.0136955 0.0
-0.0374236 -0.0155782 0.0
-0.0413474 -0.0175463 0.0
-0.0458444 -0.0195825 0.0
-0.0509708 -0.0216554 0.0
-0.0567837 -0.0237141 0.0
-0.0633369 -0.0256825 0.0
-0.0706711 -0.0274515 0.0
-0.0787952 -0.0288722 0.0
-0.0876458 -0.0297516 0.0
-0.0969938 -0.029856 0.0
-0.106228 -0.028935 0.0
-0.113866 -0.0267761 0.0
-0.116549 -0.0233147 0.0
-0.107223 -0.0187472 0.0
-0.0725017 -0.0136736 0.0
0.00948608 -0.00881171 0.0
0.167521 -0.00497885 0.0
0.426724 -0.00194949 0.0
0.788537 -0.000303515 0.0
-0.00534538 -0.000115935 0.0
-0.0121856 -0.000832554 0.0
-0.016253 -0.00209712 0.0
-0.0186303 -0.00353958 0.0
-0.0202176 -0.00513667 0.0
-0.02158 -0.00682275 0.0
-0.0230293 -0.00860151 0.0
-0.0247209 -0.0104767 0.0
-0.0267365 -0.0124623 0.0
-0.0291292 -0.0145711 0.0
-0.0319458 -0.0168142 0.0
-0.0352363 -0.0191981 0.0
-0.0390576 -0.0217225 0.0
-0.0434747 -0.0243763 0.0
-0.048562 -0.0271333 0.0
-0.0544016 -0.0299451 0.0
-0.0610802 -0.0327323 0.0
-0.0686808 -0.0353735 0.0
-0.0772633 -0.0376924 0.0
-0.086818 -0.0394461 0.0
-0.0971582 -0.0403208 0.0
-0.107673 -0.0399509 0.0
-0.116793 -0.0379794 0.0
-0.120931 -0.0341961 0.0
-0.112672 -0.0286965 0.0
-0.0782722 -0.022117 0.0
0.00421781 -0.0152715 0.0
0.163197 -0.0093533 0.0
0.423408 -0.00397652 0.0
0.786953 -0.000648584 0.0
-0.00484976 -0.000136505 0.0
-0.0110802 -0.000973029 0.0
-0.0147967 -0.00244581 0.0
-0.0169757 -0.00412504 0.0
-0.0184362 -0.00598584 0.0
-0.019695 -0.00795451 0.0
-0.021039 -0.0100379 0.0
-0.0226128 -0.0122432 0.0
-0.0244947 -0.0145906 0.0
-0.0267383 -0.0170996 0.0
-0.0293934 -0.0197892 0.0
-0.0325151 -0.0226752 0.0
-0.0361688 -0.0257677 0.0
-0.0404328 -0.029067 0.0
-0.0454007 -0.0325588 0.0
-0.0511828 -0.0362058 0.0
-0.0579058 -0.0399366 0.0
-0.0657073 -0.0436301 0.0
-0.0747181 -0.0470957 0.0
-0.0850123 -0.0500501 0.0
-0.096485 -0.0521 0.0
-0.108568 -0.0527467 0.0
-0.119631 -0.0514433 0.0
-0.125846 -0.0477545 0.0
-0.11935 -0.0415699 0.0
-0.0858951 -0.0334531 0.0
-0.00331743 -0.024263 0.0
0.156431 -0.0156114 0.0
0.417693 -0.00699491 0.0
0.784021 -0.00121324 0.0
-0.00427943 -0.000155756 0.0
-0.00981288 -0.00110139 0.0
-0.0131285 -0.00276267 0.0
-0.01508 -0.00465644 0.0
-0.0163921 -0.00675684 0.0
-0.0175265 -0.00898362 0.0
-0.0187412 -0.0113469 0.0
-0.0201679 -0.0138583 0.0
-0.0218801 -0.0165442 0.0
-0.0239304 -0.0194319 0.0
-0.0263699 -0.0225503 0.0
-0.0292574 -0.0259266 0.0
-0.0326651 -0.0295851 0.0
-0.0366825 -0.0335431 0.0
-0.0414216 -0.0378062 0.0
-0.0470213 -0.0423597 0.0
-0.0536521 -0.0471556 0.0
-0.0615165 -0.0520935 0.0
-0.0708363 -0.0569927 0.0
-0.081805 -0.0615555 0.0
-0.0944531 -0.0653285 0.0
-0.108324 -0.0676816 0.0
-0.121794 -0.0678417 0.0
-0.130823 -0.0650544 0.0
-0.127046 -0.0588415 0.0
-0.0955537 -0.0494672 0.0
-0.0137198 -0.0376189 0.0
0.146253 -0.0252939 0.0
0.408424 -0.0119189 0.0
0.778928 -0.00223684 0.0
-0.003642 -0.000173303 0.0
-0.00840212 -0.0012134 0.0
-0.0112729 -0.00303649 0.0
-0.0129705 -0.00511504 0.0
-0.0141141 -0.00742267 0.0
-0.015104 -0.00987421 0.0
-0.0161656 -0.0124831 0.0
-0.0174161 -0.0152651 0.0
-0.018922 -0.0182534 0.0
-0.020733 -0.0214835 0.0
-0.0228995 -0.024995 0.0
-0.025481 -0.0288288 0.0
-0.028553 -0.0330264 0.0
-0.0322122 -0.0376273 0.0
-0.0365843 -0.0426655 0.0
-0.0418329 -0.0481615 0.0
-0.0481702 -0.0541104 0.0
-0.0558668 -0.0604607 0.0
-0.0652501 -0.0670803 0.0
-0.0766671 -0.0737067 0.0
-0.0903469 -0.0798809 0.0
-0.106042 -0.084885 0.0
-0.122258 -0.0877257 0.0
-0.134856 -0.0872492 0.0
-0.135014 -0.0824014 0.0
-0.107063 -0.0727463 0.0
-0.027588 -0.0583152 0.0
0.131304 -0.0410115 0.0
0.393743 -0.0204153 0.0
0.770192 -0.00420823 0.0
-0.00294626 -0.000188368 0.0
-0.00687103 -0.0013014 0.0
-0.00926019 -0.00324767 0.0
-0.0106808 -0.00546871 0.0
-0.0116372 -0.00793769 0.0
-0.0124638 -0.0105663 0.0
-0.0133502 -0.0133705 0.0
-0.0143966 -0.0163699 0.0
-0.0156609 -0.0196038 0.0
-0.0171877 -0.0231158 0.0
-0.0190234 -0.0269562 0.0
-0.0212247 -0.0311799 0.0
-0.0238648 -0.0358475 0.0
-0.0270411 -0.0410244 0.0
-0.0308843 -0.046779 0.0
-0.0355721 -0.0531791 0.0
-0.0413467 -0.0602828 0.0
-0.0485374 -0.0681203 0.0
-0.0575768 -0.0766606 0.0
-0.068985 -0.0857531 0.0
-0.0832491 -0.0950371 0.0
-0.10045 -0.103825 0.0
-0.119414 -0.110999 0.0
-0.136158 -0.115006 0.0
-0.141666 -0.114014 0.0
-0.119662 -0.106318 0.0
-0.0457163 -0.0904571 0.0
0.109042 -0.0668936 0.0
0.370036 -0.035544 0.0
0.75463 -0.00818747 0.0
-0.00221064 -0.000197673 0.0
-0.00526161 -0.00134746 0.0
-0.00714346 -0.003356 0.0
-0.00826988 -0.00565429 0.0
-0.00902429 -0.00821413 0.0
-0.00967246 -0.0109457 0.0
-0.0103661 -0.013866 0.0
-0.0111862 -0.0169974 0.0
-0.0121802 -0.0203835 0.0
-0.0133852 -0.0240747 0.0
-0.0148406 -0.02813 0.0
-0.0165955 -0.0326172 0.0
-0.0187152 -0.0376145 0.0
-0.0212883 -0.0432124 0.0
-0.0244382 -0.0495158 0.0
-0.028339 -0.0566451 0.0
-0.0332401 -0.0647353 0.0
-0.0395004 -0.0739276 0.0
-0.0476279 -0.084348 0.0
-0.0582978 -0.0960567 0.0
-0.0722745 -0.108949 0.0
-0.0900679 -0.122591 0.0
-0.111056 -0.135996 0.0
-0.131816 -0.147403 0.0
-0.143715 -0.154147 0.0
-0.130473 -0.152675 0.0
-0.0669353 -0.138855 0.0
0.0780042 -0.109017 0.0
0.333372 -0.0625894 0.0
0.727323 -0.0163314 0.0
-0.0014575 -0.000194759 0.0
-0.00362491 -0.00131853 0.0