# vtk DataFile Version 3.0
Malha 2D com triângulos e temperatura
ASCII
DATASET UNSTRUCTURED_GRID

POINTS 961 double
0 0 0
1 0 0
1 1 0
0 1 0
0.0333333 0 0
0.0666667 0 0
0.1 0 0
0.133333 0 0
0.166667 0 0
0.2 0 0
0.233333 0 0
0.266667 0 0
0.3 0 0
0.333333 0 0
0.366667 0 0
0.4 0 0
0.433333 0 0
0.466667 0 0
0.5 0 0
0.533333 0 0
0.566667 0 0
0.6 0 0
0.633333 0 0
0.666667 0 0
0.7 0 0
0.733333 0 0
0.766667 0 0
0.8 0 0
0.833333 0 0
0.866667 0 0
0.9 0 0
0.933333 0 0
0.966667 0 0
1 0.0333333 0
1 0.0666667 0
1 0.1 0
1 0.133333 0
1 0.166667 0
1 0.2 0
1 0.233333 0
1 0.266667 0
1 0.3 0
1 0.333333 0
1 0.366667 0
1 0.4 0
1 0.433333 0
1 0.466667 0
1 0.5 0
1 0.533333 0
1 0.566667 0
1 0.6 0
1 0.633333 0
1 0.666667 0
1 0.7 0
1 0.733333 0
1 0.766667 0
1 0.8 0
1 0.833333 0
1 0.866667 0
1 0.9 0
1 0.933333 0
1 0.966667 0
0.966667 1 0
0.933333 1 0
0.9 1 0
0.866667 1 0
0.833333 1 0
0.8 1 0
0.766667 1 0
0.733333 1 0
0.7 1 0
0.666667 1 0
0.633333 1 0
0.6 1 0
0.566667 1 0
0.533333 1 0
0.5 1 0
0.466667 1 0
0.433333 1 0
0.4 1 0
0.366667 1 0
0.333333 1 0
0.3 1 0
0.266667 1 0
0.233333 1 0
0.2 1 0
0.166667 1 0
0.133333 1 0
0.1 1 0
0.0666667 1 0
0.0333333 1 0
0 0.966667 0
0 0.933333 0
0 0.9 0
0 0.866667 0
0 0.833333 0
0 0.8 0
0 0.766667 0
0 0.733333 0
0 0.7 0
0 0.666667 0
0 0.633333 0
0 0.6 0
0 0.566667 0
0 0.533333 0
0 0.5 0
0 0.466667 0
0 0.433333 0
0 0.4 0
0 0.366667 0
0 0.333333 0
0 0.3 0
0 0.266667 0
0 0.233333 0
0 0.2 0
0 0.166667 0
0 0.133333 0
0 0.1 0
0 0.0666667 0
0 0.0333333 0
0.0333333 0.0333333 0
0.0333333 0.0666667 0
0.0333333 0.1 0
0.0333333 0.133333 0
0.0333333 0.166667 0
0.0333333 0.2 0
0.0333333 0.233333 0
0.0333333 0.266667 0
0.0333333 0.3 0
0.0333333 0.333333 0
0.0333333 0.366667 0
0.0333333 0.4 0
0.0333333 0.433333 0
0.0333333 0.466667 0
0.0333333 0.5 0
0.0333333 0.533333 0
0.0333333 0.566667 0
0.0333333 0.6 0
0.0333333 0.633333 0
0.0333333 0.666667 0
0.0333333 0.7 0
0.0333333 0.733333 0
0.0333333 0.766667 0
0.0333333 0.8 0
0.0333333 0.833333 0
0.0333333 0.866667 0
0.0333333 0.9 0
0.0333333 0.933333 0
0.0333333 0.966667 0
0.0666667 0.0333333 0
0.0666667 0.0666667 0
0.0666667 0.1 0
0.0666667 0.133333 0
0.0666667 0.166667 0
0.0666667 0.2 0
0.0666667 0.233333 0
0.0666667 0.266667 0
0.0666667 0.3 0
0.0666667 0.333333 0
0.0666667 0.366667 0
0.0666667 0.4 0
0.0666667 0.433333 0
0.0666667 0.466667 0
0.0666667 0.5 0
0.0666667 0.533333 0
0.0666667 0.566667 0
0.0666667 0.6 0
0.0666667 0.633333 0
0.0666667 0.666667 0
0.0666667 0.7 0
0.0666667 0.733333 0
0.0666667 0.766667 0
0.0666667 0.8 0
0.0666667 0.833333 0
0.0666667 0.866667 0
0.0666667 0.9 0
0.0666667 0.933333 0
0.0666667 0.966667 0
0.1 0.0333333 0
0.1 0.0666667 0
0.1 0.1 0
0.1 0.133333 0
0.1 0.166667 0
0.1 0.2 0
0.1 0.233333 0
0.1 0.266667 0
0.1 0.3 0
0.1 0.333333 0
0.1 0.366667 0
0.1 0.4 0
0.1 0.433333 0
0.1 0.466667 0
0.1 0.5 0
0.1 0.533333 0
0.1 0.566667 0
0.1 0.6 0
0.1 0.633333 0
0.1 0.666667 0
0.1 0.7 0
0.1 0.733333 0
0.1 0.766667 0
0.1 0.8 0
0.1 0.833333 0
0.1 0.866667 0
0.1 0.9 0
0.1 0.933333 0
0.1 0.966667 0
0.133333 0.0333333 0
0.133333 0.0666667 0
0.133333 0.1 0
0.133333 0.133333 0
0.133333 0.166667 0
0.133333 0.2 0
0.133333 0.233333 0
0.133333 0.266667 0
0.133333 0.3 0
0.133333 0.333333 0
0.133333 0.366667 0
0.133333 0.4 0
0.133333 0.433333 0
0.133333 0.466667 0
0.133333 0.5 0
0.133333 0.533333 0
0.133333 0.566667 0
0.133333 0.6 0
0.133333 0.633333 0
0.133333 0.666667 0
0.133333 0.7 0
0.133333 0.733333 0
0.133333 0.766667 0
0.133333 0.8 0
0.133333 0.833333 0
0.133333 0.866667 0
0.133333 0.9 0
0.133333 0.933333 0
0.133333 0.966667 0
0.166667 0.0333333 0
0.166667 0.0666667 0
0.166667 0.1 0
0.166667 0.133333 0
0.166667 0.166667 0
0.166667 0.2 0
0.166667 0.233333 0
0.166667 0.266667 0
0.166667 0.3 0
0.166667 0.333333 0
0.166667 0.366667 0
0.166667 0.4 0
0.166667 0.433333 0
0.166667 0.466667 0
0.166667 0.5 0
0.166667 0.533333 0
0.166667 0.566667 0
0.166667 0.6 0
0.166667 0.633333 0
0.166667 0.666667 0
0.166667 0.7 0
0.166667 0.733333 0
0.166667 0.766667 0
0.166667 0.8 0
0.166667 0.833333 0
0.166667 0.866667 0
0.166667 0.9 0
0.166667 0.933333 0
0.166667 0.966667 0
0.2 0.0333333 0
0.2 0.0666667 0
0.2 0.1 0
0.2 0.133333 0
0.2 0.166667 0
0.2 0.2 0
0.2 0.233333 0
0.2 0.266667 0
0.2 0.3 0
0.2 0.333333 0
0.2 0.366667 0
0.2 0.4 0
0.2 0.433333 0
0.2 0.466667 0
0.2 0.5 0
0.2 0.533333 0
0.2 0.566667 0
0.2 0.6 0
0.2 0.633333 0
0.2 0.666667 0
0.2 0.7 0
0.2 0.733333 0
0.2 0.766667 0
0.2 0.8 0
0.2 0.833333 0
0.2 0.866667 0
0.2 0.9 0
0.2 0.933333 0
0.2 0.966667 0
0.233333 0.0333333 0
0.233333 0.0666667 0
0.233333 0.1 0
0.233333 0.133333 0
0.233333 0.166667 0
0.233333 0.2 0
0.233333 0.233333 0
0.233333 0.266667 0
0.233333 0.3 0
0.233333 0.333333 0
0.233333 0.366667 0
0.233333 0.4 0
0.233333 0.433333 0
0.233333 0.466667 0
0.233333 0.5 0
0.233333 0.533333 0
0.233333 0.566667 0
0.233333 0.6 0
0.233333 0.633333 0
0.233333 0.666667 0
0.233333 0.7 0
0.233333 0.733333 0
0.233333 0.766667 0
0.233333 0.8 0
0.233333 0.833333 0
0.233333 0.866667 0
0.233333 0.9 0
0.233333 0.933333 0
0.233333 0.966667 0
0.266667 0.0333333 0
0.266667 0.0666667 0
0.266667 0.1 0
0.266667 0.133333 0
0.266667 0.166667 0
0.266667 0.2 0
0.266667 0.233333 0
0.266667 0.266667 0
0.266667 0.3 0
0.266667 0.333333 0
0.266667 0.366667 0
0.266667 0.4 0
0.266667 0.433333 0
0.266667 0.466667 0
0.266667 0.5 0
0.266667 0.533333 0
0.266667 0.566667 0
0.266667 0.6 0
0.266667 0.633333 0
0.266667 0.666667 0
0.266667 0.7 0
0.266667 0.733333 0
0.266667 0.766667 0
0.266667 0.8 0
0.266667 0.833333 0
0.266667 0.866667 0
0.266667 0.9 0
0.266667 0.933333 0
0.266667 0.966667 0
0.3 0.0333333 0
0.3 0.0666667 0
0.3 0.1 0
0.3 0.133333 0
0.3 0.166667 0
0.3 0.2 0
0.3 0.233333 0
0.3 0.266667 0
0.3 0.3 0
0.3 0.333333 0
0.3 0.366667 0
0.3 0.4 0
0.3 0.433333 0
0.3 0.466667 0
0.3 0.5 0
0.3 0.533333 0
0.3 0.566667 0
0.3 0.6 0
0.3 0.633333 0
0.3 0.666667 0
0.3 0.7 0
0.3 0.733333 0
0.3 0.766667 0
0.3 0.8 0
0.3 0.833333 0
0.3 0.866667 0
0.3 0.9 0
0.3 0.933333 0
0.3 0.966667 0
0.333333 0.0333333 0
0.333333 0.0666667 0
0.333333 0.1 0
0.333333 0.133333 0
0.333333 0.166667 0
0.333333 0.2 0
0.333333 0.233333 0
0.333333 0.266667 0
0.333333 0.3 0
0.333333 0.333333 0
0.333333 0.366667 0
0.333333 0.4 0
0.333333 0.433333 0
0.333333 0.466667 0
0.333333 0.5 0
0.333333 0.533333 0
0.333333 0.566667 0
0.333333 0.6 0
0.333333 0.633333 0
0.333333 0.666667 0
0.333333 0.7 0
0.333333 0.733333 0
0.333333 0.766667 0
0.333333 0.8 0
0.333333 0.833333 0
0.333333 0.866667 0
0.333333 0.9 0
0.333333 0.933333 0
0.333333 0.966667 0
0.366667 0.0333333 0
0.366667 0.0666667 0
0.366667 0.1 0
0.366667 0.133333 0
0.366667 0.166667 0
0.366667 0.2 0
0.366667 0.233333 0
0.366667 0.266667 0
0.366667 0.3 0
0.366667 0.333333 0
0.366667 0.366667 0
0.366667 0.4 0
0.366667 0.433333 0
0.366667 0.466667 0
0.366667 0.5 0
0.366667 0.533333 0
0.366667 0.566667 0
0.366667 0.6 0
0.366667 0.633333 0
0.366667 0.666667 0
0.366667 0.7 0
0.366667 0.733333 0
0.366667 0.766667 0
0.366667 0.8 0
0.366667 0.833333 0
0.366667 0.866667 0
0.366667 0.9 0
0.366667 0.933333 0
0.366667 0.966667 0
0.4 0.0333333 0
0.4 0.0666667 0
0.4 0.1 0
0.4 0.133333 0
0.4 0.166667 0
0.4 0.2 0
0.4 0.233333 0
0.4 0.266667 0
0.4 0.3 0
0.4 0.333333 0
0.4 0.366667 0
0.4 0.4 0
0.4 0.433333 0
0.4 0.466667 0
0.4 0.5 0
0.4 0.533333 0
0.4 0.566667 0
0.4 0.6 0
0.4 0.633333 0
0.4 0.666667 0
0.4 0.7 0
0.4 0.733333 0
0.4 0.766667 0
0.4 0.8 0
0.4 0.833333 0
0.4 0.866667 0
0.4 0.9 0
0.4 0.933333 0
0.4 0.966667 0
0.433333 0.0333333 0
0.433333 0.0666667 0
0.433333 0.1 0
0.433333 0.133333 0
0.433333 0.166667 0
0.433333 0.2 0
0.433333 0.233333 0
0.433333 0.266667 0
0.433333 0.3 0
0.433333 0.333333 0
0.433333 0.366667 0
0.433333 0.4 0
0.433333 0.433333 0
0.433333 0.466667 0
0.433333 0.5 0
0.433333 0.533333 0
0.433333 0.566667 0
0.433333 0.6 0
0.433333 0.633333 0
0.433333 0.666667 0
0.433333 0.7 0
0.433333 0.733333 0
0.433333 0.766667 0
0.433333 0.8 0
0.433333 0.833333 0
0.433333 0.866667 0
0.433333 0.9 0
0.433333 0.933333 0
0.433333 0.966667 0
0.466667 0.0333333 0
0.466667 0.0666667 0
0.466667 0.1 0
0.466667 0.133333 0
0.466667 0.166667 0
0.466667 0.2 0
0.466667 0.233333 0
0.466667 0.266667 0
0.466667 0.3 0
0.466667 0.333333 0
0.466667 0.366667 0
0.466667 0.4 0
0.466667 0.433333 0
0.466667 0.466667 0
0.466667 0.5 0
0.466667 0.533333 0
0.466667 0.566667 0
0.466667 0.6 0
0.466667 0.633333 0
0.466667 0.666667 0
0.466667 0.7 0
0.466667 0.733333 0
0.466667 0.766667 0
0.466667 0.8 0
0.466667 0.833333 0
0.466667 0.866667 0
0.466667 0.9 0
0.466667 0.933333 0
0.466667 0.966667 0
0.5 0.0333333 0
0.5 0.0666667 0
0.5 0.1 0
0.5 0.133333 0
0.5 0.166667 0
0.5 0.2 0
0.5 0.233333 0
0.5 0.266667 0
0.5 0.3 0
0.5 0.333333 0
0.5 0.366667 0
0.5 0.4 0
0.5 0.433333 0
0.5 0.466667 0
0.5 0.5 0
0.5 0.533333 0
0.5 0.566667 0
0.5 0.6 0
0.5 0.633333 0
0.5 0.666667 0
0.5 0.7 0
0.5 0.733333 0
0.5 0.766667 0
0.5 0.8 0
0.5 0.833333 0
0.5 0.866667 0
0.5 0.9 0
0.5 0.933333 0
0.5 0.966667 0
0.533333 0.0333333 0
0.533333 0.0666667 0
0.533333 0.1 0
0.533333 0.133333 0
0.533333 0.166667 0
0.533333 0.2 0
0.533333 0.233333 0
0.533333 0.266667 0
0.533333 0.3 0
0.533333 0.333333 0
0.533333 0.366667 0
0.533333 0.4 0
0.533333 0.433333 0
0.533333 0.466667 0
0.533333 0.5 0
0.533333 0.533333 0
0.533333 0.566667 0
0.533333 0.6 0
0.533333 0.633333 0
0.533333 0.666667 0
0.533333 0.7 0
0.533333 0.733333 0
0.533333 0.766667 0
0.533333 0.8 0
0.533333 0.833333 0
0.533333 0.866667 0
0.533333 0.9 0
0.533333 0.933333 0
0.533333 0.966667 0
0.566667 0.0333333 0
0.566667 0.0666667 0
0.566667 0.1 0
0.566667 0.133333 0
0.566667 0.166667 0
0.566667 0.2 0
0.566667 0.233333 0
0.566667 0.266667 0
0.566667 0.3 0
0.566667 0.333333 0
0.566667 0.366667 0
0.566667 0.4 0
0.566667 0.433333 0
0.566667 0.466667 0
0.566667 0.5 0
0.566667 0.533333 0
0.566667 0.566667 0
0.566667 0.6 0
0.566667 0.633333 0
0.566667 0.666667 0
0.566667 0.7 0
0.566667 0.733333 0
0.566667 0.766667 0
0.566667 0.8 0
0.566667 0.833333 0
0.566667 0.866667 0
0.566667 0.9 0
0.566667 0.933333 0
0.566667 0.966667 0
0.6 0.0333333 0
0.6 0.0666667 0
0.6 0.1 0
0.6 0.133333 0
[...]
CELL_DATA 900
VECTORS velocity double
-0.000127931 0.000127375 0.0
-0.000172771 0.000453254 0.0
-0.000181164 0.000847481 0.0
-0.000187302 0.0012461 0.0
-0.0001953 0.00166057 0.0
-0.000205738 0.00209502 0.0
-0.000218821 0.0025549 0.0
-0.000234783 0.00304618 0.0
-0.000253944 0.00357538 0.0
-0.000276718 0.00414983 0.0
-0.000303649 0.00477784 0.0
-0.000335443 0.00546905 0.0
-0.000373037 0.00623484 0.0
-0.000417683 0.00708883 0.0
-0.00047109 0.00804775 0.0
-0.000535641 0.0091325 0.0
-0.00061474 0.0103698 0.0
-0.000713401 0.011795 0.0
-0.000839283 0.0134556 0.0
-0.00100461 0.0154184 0.0
-0.00122995 0.0177801 0.0
-0.00155207 0.0206881 0.0
-0.00204124 0.0243784 0.0
-0.002841 0.0292532 0.0
-0.00426206 0.0360326 0.0
-0.00699213 0.0461527 0.0
-0.0124838 0.0626468 0.0
-0.0220251 0.0881074 0.0
-0.0182866 0.151555 0.0
0.164393 0.104092 0.0
-0.00045257 0.000169388 0.0
-0.000602494 0.00059394 0.0
-0.000632842 0.00110121 0.0
-0.000654917 0.00161506 0.0
-0.000683184 0.00214986 0.0
-0.00071979 0.00271055 0.0
-0.00076554 0.00330402 0.0
-0.000821293 0.00393785 0.0
-0.00088816 0.00462034 0.0
-0.000967579 0.00536078 0.0
-0.00106141 0.00616971 0.0
-0.00117208 0.00705929 0.0
-0.00130277 0.00804375 0.0
-0.00145772 0.00914008 0.0
-0.00164271 0.0103689 0.0
-0.00186569 0.0117556 0.0
-0.00213791 0.0133326 0.0
-0.00247565 0.0151413 0.0
-0.00290321 0.0172365 0.0
-0.00345801 0.019692 0.0
-0.00419985 0.0226093 0.0
-0.00522847 0.0261303 0.0
-0.0067178 0.030455 0.0
-0.00898598 0.0358645 0.0
-0.0126408 0.0427279 0.0
-0.0188563 0.0514862 0.0
-0.0297594 0.0625861 0.0
-0.0465901 0.0732938 0.0
-0.0431331 0.0871216 0.0
0.177537 0.0519973 0.0
-0.000835243 0.000170622 0.0
-0.00110275 0.000599188 0.0
-0.00115881 0.00111134 0.0
-0.00119959 0.00162941 0.0
-0.00125149 0.0021684 0.0
-0.00131846 0.00273321 0.0
-0.00140201 0.00333071 0.0
-0.00150371 0.00396836 0.0
-0.00162555 0.00465432 0.0
-0.00177008 0.00539762 0.0
-0.00194058 0.00620843 0.0
-0.00214128 0.00709834 0.0
-0.00237773 0.00808073 0.0
-0.00265724 0.00917131 0.0
-0.00298965 0.0103887 0.0
-0.00338834 0.0117555 0.0
-0.00387191 0.0132991 0.0
-0.00446668 0.0150538 0.0
-0.00521076 0.017062 0.0
-0.00616049 0.0193776 0.0
-0.00740113 0.0220677 0.0
-0.00906467 0.0252153 0.0
-0.0113597 0.0289165 0.0
-0.014621 0.033269 0.0
-0.0193884 0.0383249 0.0
-0.0264835 0.0439737 0.0
-0.0367867 0.0497146 0.0
-0.0479318 0.0529904 0.0
-0.0251068 0.0513497 0.0
0.250056 0.0267997 0.0
-0.00120201 0.000165421 0.0
-0.00158292 0.000581403 0.0
-0.00166291 0.00107859 0.0
-0.00172117 0.00158112 0.0
-0.00179534 0.00210369 0.0
-0.00189096 0.00265092 0.0
-0.00201013 0.00322931 0.0
-0.002155 0.00384587 0.0
-0.0023283 0.00450819 0.0
-0.0025335 0.00522456 0.0
-0.00277501 0.00600418 0.0
-0.00305851 0.00685737 0.0
-0.00339131 0.00779575 0.0
-0.00378298 0.00883261 0.0
-0.00424613 0.00998318 0.0
-0.00479768 0.0112651 0.0
-0.00546057 0.0126987 0.0
-0.00626643 0.0143077 0.0
-0.00725948 0.0161187 0.0
-0.00850242 0.0181611 0.0
-0.0100853 0.020465 0.0
-0.0121388 0.023055 0.0
-0.0148535 0.0259375 0.0
-0.0185064 0.029073 0.0
-0.0234907 0.0323175 0.0
-0.0302971 0.0353084 0.0
-0.0390865 0.0372825 0.0
-0.0460154 0.0364089 0.0
-0.0150279 0.0303743 0.0
0.27771 0.0140553 0.0
-0.00155535 0.000157853 0.0
-0.0020459 0.000555004 0.0
-0.0021488 0.00102969 0.0
-0.00222368 0.00150919 0.0
-0.00231896 0.0020075 0.0
-0.00244167 0.00252886 0.0
-0.00259441 0.00307929 0.0
-0.00277982 0.00366519 0.0
-0.00300122 0.0042934 0.0
-0.00326275 0.00497129 0.0
-0.0035697 0.00570686 0.0
-0.00392872 0.00650884 0.0
-0.00434831 0.00738679 0.0
-0.00483938 0.00835116 0.0
-0.00541609 0.00941335 0.0
-0.00609697 0.0105856 0.0
-0.00690654 0.011881 0.0
-0.00787755 0.0133123 0.0
-0.0090541 0.0148915 0.0
-0.010496 0.0166267 0.0
-0.0122845 0.0185177 0.0
-0.0145297 0.0205473 0.0
-0.0173792 0.0226659 0.0
-0.0210253 0.0247645 0.0
-0.0257012 0.0266286 0.0
-0.031613 0.0278638 0.0
-0.038443 0.0278012 0.0
-0.041609 0.0252858 0.0
-0.00492953 0.0187667 0.0
0.294335 0.00772843 0.0
-0.00189014 0.000148478 0.0
-0.00248467 0.000522081 0.0
-0.00260907 0.000968551 0.0
-0.00269941 0.0014193 0.0
-0.00281426 0.0018874 0.0
-0.00296201 0.00237666 0.0
-0.00314568 0.00289251 0.0
-0.00336827 0.00344067 0.0
-0.00363348 0.00402713 0.0
-0.00394596 0.00465825 0.0
-0.00431147 0.00534072 0.0
-0.00473724 0.00608162 0.0
-0.00523233 0.00688835 0.0
-0.00580813 0.00776852 0.0
-0.00647913 0.00872978 0.0
-0.00726381 0.00977939 0.0
-0.0081859 0.0109236 0.0
-0.00927604 0.0121662 0.0
-0.0105738 0.0135072 0.0
-0.0121304 0.0149387 0.0
-0.0140113 0.0164405 0.0
-0.0162989 0.0179707 0.0
-0.0190938 0.0194533 0.0
-0.0225107 0.0207576 0.0
-0.0266604 0.0216698 0.0
-0.0315688 0.021855 0.0
-0.0366809 0.020826 0.0
-0.0371642 0.0179181 0.0
0.00293165 0.0122542 0.0
0.304617 0.00459535 0.0
-0.0022026 0.000137448 0.0
-0.00289413 0.000483277 0.0
-0.00303843 0.000896453 0.0
-0.0031429 0.00131337 0.0
-0.00327556 0.00174598 0.0
-0.00344604 0.00219765 0.0
-0.00365766 0.00267318 0.0
-0.00391364 0.00317756 0.0
-0.00421794 0.00371591 0.0
-0.00457544 0.00429352 0.0
-0.00499212 0.00491583 0.0
-0.00547536 0.00558827 0.0
-0.00603421 0.00631623 0.0
-0.00667985 0.00710473 0.0
-0.00742609 0.0079581 0.0
-0.0082901 0.00887935 0.0
-0.00929319 0.00986928 0.0
-0.0104618 0.010925 0.0
-0.0118286 0.0120378 0.0
-0.0134336 0.01319 0.0
-0.0153246 0.0143501 0.0
-0.0175567 0.0154657 0.0
-0.0201894 0.0164545 0.0
-0.0232781 0.0171913 0.0
-0.026853 0.0174941 0.0
-0.030841 0.01711 0.0
-0.034591 0.0157157 0.0
-0.0332332 0.0129514 0.0
0.00888401 0.00837057 0.0
0.311253 0.00293104 0.0
-0.00248928 0.000124908 0.0
-0.00326974 0.000439146 0.0
-0.00343213 0.000814472 0.0
-0.00354928 0.00119298 0.0
-0.00369784 0.00158542 0.0
-0.00388854 0.00199469 0.0
-0.00412491 0.00242494 0.0
-0.00441029 0.0028804 0.0
-0.00474872 0.00336535 0.0
-0.00514514 0.00388409 0.0
-0.00560548 0.00444083 0.0
-0.00613694 0.00503956 0.0
-0.00674814 0.00568389 0.0
-0.0074495 0.00637667 0.0
-0.00825349 0.00711957 0.0
-0.00917512 0.00791235 0.0
-0.0102323 0.00875191 0.0
-0.0114464 0.00963084 0.0
-0.0128422 0.0105354 0.0
-0.0144483 0.0114428 0.0
-0.016296 0.0123175 0.0
-0.0184171 0.0131059 0.0
-0.0208397 0.0137312 0.0
-0.0235787 0.0140862 0.0
-0.0266167 0.0140288 0.0
-0.0298348 0.0133806 0.0
-0.0325574 0.01194 0.0
-0.0299529 0.00952463 0.0
0.0133849 0.00592124 0.0
0.315796 0.00197849 0.0
-0.00274704 0.000111021 0.0
-0.0036074 0.000390281 0.0
-0.00378589 0.000723731 0.0
-0.00391419 0.00105983 0.0
-0.00407666 0.00140801 0.0
-0.00428498 0.00177072 0.0
-0.00454279 0.00215145 0.0
-0.00485348 0.00255374 0.0
-0.00522107 0.00298106 0.0
-0.00565036 0.00343677 0.0
-0.00614708 0.00392403 0.0
-0.00671799 0.00444561 0.0
-0.00737101 0.00500367 0.0
-0.00811542 0.00559938 0.0
-0.00896199 0.00623248 0.0
-0.00992315 0.00690053 0.0
-0.0110131 0.00759804 0.0
-0.0122478 0.00831513 0.0
-0.0136445 0.0090359 0.0
-0.0152216 0.00973625 0.0
-0.0169963 0.0103812 0.0
-0.0189826 0.0109218 0.0
-0.0211862 0.0112921 0.0
-0.0235967 0.0114064 0.0
-0.0261723 0.0111598 0.0
-0.028778 0.0104319 0.0
-0.0307461 0.00910286 0.0
-0.0273008 0.0070882 0.0
0.0167824 0.0042928 0.0
0.319019 0.0013916 0.0
-0.00297316 9.59615e-05 0.0
-0.00390353 0.000337305 0.0
-0.00409602 0.000625395 0.0
-0.00423387 0.000915623 0.0
-0.00440822 0.00121607 0.0
-0.00463151 0.00152871 0.0
-0.00490746 0.00185644 0.0
-0.00523943 0.00220212 0.0
-0.00563131 0.00256848 0.0
-0.00608771 0.00295808 0.0
-0.00661399 0.0033732 0.0
-0.00721635 0.00381564 0.0
-0.00790185 0.00428646 0.0
-0.00867848 0.00478569 0.0
-0.00955517 0.00531183 0.0
-0.0105417 0.00586124 0.0
-0.0116486 0.00642729 0.0
-0.0128869 0.00699938 0.0
-0.0142672 0.00756157 0.0
-0.0157991 0.00809106 0.0
-0.0174891 0.00855644 0.0
-0.019338 0.00891597 0.0
-0.0213369 0.00911628 0.0
-0.0234612 0.00909221 0.0
-0.0256581 0.00876906 0.0
-0.0277923 0.00806862 0.0
-0.0292145 0.00692228 0.0
-0.0252002 0.00529681 0.0
0.019348 0.00315297 0.0
0.32136 0.00100349 0.0
-0.00316526 7.99108e-05 0.0
-0.00415506 0.000280852 0.0
-0.00435934 0.000520651 0.0
-0.00450514 0.00076212 0.0
-0.00468932 0.00101192 0.0
-0.00492496 0.00127163 0.0
-0.00521582 0.00154355 0.0
-0.00556515 0.0018299 0.0
-0.0059767 0.00213278 0.0
-0.00645481 0.00245409 0.0
-0.00700444 0.00279539 0.0
-0.00763117 0.00315775 0.0
-0.00834116 0.00354153 0.0
-0.00914113 0.00394606 0.0
-0.0100382 0.00436926 0.0
-0.0110397 0.00480707 0.0
-0.012153 0.00525285 0.0
-0.0133846 0.00569652 0.0
-0.0147398 0.00612364 0.0
-0.0162213 0.00651434 0.0
-0.0178275 0.0068423 0.0
-0.0195503 0.00707395 0.0
-0.0213716 0.00716819 0.0
-0.0232595 0.00707734 0.0
-0.0251585 0.00675003 0.0
-0.0269388 0.00613672 0.0
-0.027971 0.00519977 0.0
-0.0235704 0.00393067 0.0
0.0212738 0.0023149 0.0
0.323077 0.000729809 0.0
-0.00332139 6.30499e-05 0.0
-0.00435945 0.000221563 0.0
-0.00457323 0.000410683 0.0
-0.00472538 0.000601052 0.0
-0.00491738 0.000797886 0.0
-0.00516282 0.00100238 0.0
-0.00546544 0.00121627 0.0
-0.0058284 0.00144124 0.0
-0.00625527 0.00167882 0.0
-0.00675013 0.00193034 0.0
-0.00731755 0.00219685 0.0
-0.0079625 0.00247891 0.0
-0.00869034 0.00277649 0.0
-0.00950661 0.00308864 0.0
-0.0104169 0.00341322 0.0
-0.0114264 0.00374644 0.0
-0.0125397 0.00408242 0.0
-0.01376 0.00441255 0.0
-0.0150881 0.00472486 0.0
-0.0165218 0.00500336 0.0
-0.0180537 0.00522748 0.0
-0.0196698 0.00537179 0.0
-0.0213469 0.00540624 0.0
-0.0230497 0.0052974 0.0
-0.0247233 0.00501111 0.0
-0.0262457 0.00451689 0.0
-0.0270041 0.00379487 0.0
-0.0223423 0.00284687 0.0
0.0226936 0.00166792 0.0
0.324328 0.000525004 0.0
-0.00343999 4.55598e-05 0.0
-0.00451468 0.000160072 0.0
-0.00473563 0.000296665 0.0
-0.00489254 0.000434128 0.0
-0.00509038 0.000576211 0.0
-0.00534311 0.000723754 0.0
-0.00565446 0.000877982 0.0
-0.0060275 0.00104006 0.0
-0.00646564 0.00121105 0.0
-0.00697273 0.00139182 0.0
-0.00755297 0.00158303 0.0
-0.00821087 0.00178496 0.0
-0.00895109 0.00199742 0.0
-0.00977825 0.00221952 0.0
-0.0106966 0.00244947 0.0
-0.0117099 0.00268425 0.0
-0.0128205 0.0029193 0.0
-0.0140289 0.00314811 0.0
-0.0153331 0.0033618 0.0
-0.016727 0.00354875 0.0
-0.0181997 0.00369428 0.0
-0.0197333 0.00378068 0.0
-0.0213018 0.00378755 0.0
-0.0228687 0.00369289 0.0
-0.0243814 0.00347517 0.0
-0.0257242 0.00311633 0.0
-0.026297 0.00260625 0.0
-0.0214624 0.00194929 0.0
0.0236987 0.00114282 0.0
0.325213 0.000362617 0.0
-0.00351988 2.76195e-05 0.0
-0.00461922 9.70053e-05 0.0
-0.00484499 0.000179751 0.0
-0.00500507 0.000263024 0.0
-0.00520682 0.000349096 0.0
-0.00546442 0.000438473 0.0
-0.00578159 0.000531894 0.0
-0.00616132 0.000630059 0.0
-0.00660692 0.000733594 0.0
-0.00712205 0.00084302 0.0
-0.00771067 0.000958703 0.0
-0.00837696 0.00108079 0.0
-0.00912507 0.00120912 0.0
-0.00995897 0.00134309 0.0
-0.0108821 0.00148156 0.0
-0.011897 0.00162262 0.0
-0.0130046 0.00176342 0.0
-0.0142038 0.00189995 0.0
-0.0154905 0.00202675 0.0
-0.0168564 0.00213678 0.0
-0.0182882 0.00222123 0.0
-0.0197659 0.00226961 0.0
-0.0212621 0.00226997 0.0
-0.02274 0.00220972 0.0
-0.0241488 0.00207673 0.0
-0.0253775 0.00186123 0.0
-0.025834 0.00155811 0.0
-0.020892 0.00117017 0.0
0.0243499 0.000693288 0.0
0.325795 0.000225847 0.0
-0.00356028 9.40675e-06 0.0
-0.00467205 3.29839e-05 0.0
-0.00490025 6.10825e-05 0.0
-0.00506197 8.93888e-05 0.0
-0.00526571 0.000118686 0.0
-0.0055258 0.000149166 0.0
-0.00584595 0.000181096 0.0
-0.00622912 0.000214735 0.0
-0.00667853 0.000250322 0.0
-0.00719779 0.000288063 0.0
-0.00779073 0.000328116 0.0
-0.00846132 0.000370569 0.0
-0.00921349 0.000415412 0.0
-0.0100509 0.000462492 0.0
-0.0109765 0.000511471 0.0
-0.0119922 0.000561757 0.0
-0.0130984 0.000612435 0.0
-0.0142931 0.000662184 0.0
-0.015571 0.00070919 0.0
-0.0169228 0.000751065 0.0
-0.018334 0.000784795 0.0
-0.0197837 0.000806734 0.0
-0.0212436 0.000812691 0.0
-0.0226771 0.000798147 0.0
-0.0240341 0.000758657 0.0
-0.025206 0.000690391 0.0
-0.0256043 0.000590748 0.0
-0.0206063 0.000458696 0.0
0.0246846 0.000285039 0.0
0.32611 0.000102185 0.0
-0.0035608 -8.90328e-06 0.0
-0.00467267 -3.13783e-05 0.0
-0.00490091 -5.82126e-05 0.0
-0.0050627 -8.51508e-05 0.0
-0.00526655 -0.000112902 0.0
-0.00552678 -0.000141587 0.0
-0.00584712 -0.000171402 0.0
-0.00623051 -0.00020252 0.0
-0.00668021 -0.00023508 0.0
-0.00719981 -0.000269173 0.0
-0.00779316 -0.000304827 0.0
-0.00846425 -0.000341978 0.0
-0.009217 -0.000380446 0.0
-0.0100551 -0.000419893 0.0
-0.0109814 -0.000459783 0.0
-0.0119981 -0.000499324 0.0
-0.0131052 -0.000537417 0.0
-0.0143009 -0.000572599 0.0
-0.0155798 -0.000602988 0.0
-0.0169325 -0.00062626 0.0
-0.0183444 -0.000639656 0.0
-0.0197945 -0.000640061 0.0
-0.0212542 -0.000624173 0.0
-0.0226866 -0.000588808 0.0
-0.0240416 -0.000531348 0.0
-0.0252101 -0.000450403 0.0
-0.0256025 -0.000346941 0.0
-0.0205925 -0.000227057 0.0
0.0247241 -0.00010903 0.0
0.326175 -1.78965e-05 0.0
-0.0035214 -2.71377e-05 0.0
-0.00462103 -9.54701e-05 0.0
-0.00484693 -0.000177007 0.0
-0.00500724 -0.000258971 0.0
-0.0052093 -0.000343562 0.0
-0.00546732 -0.00043122 0.0
-0.00578504 -0.000522612 0.0
-0.00616545 -0.000618355 0.0
-0.00661188 -0.000718978 0.0
-0.00712803 -0.000824889 0.0
-0.0077179 -0.000936324 0.0
-0.00838565 -0.00105328 0.0
-0.00913551 -0.00117541 0.0
-0.00997144 -0.00130195 0.0
-0.0108969 -0.00143152 0.0
-0.0119144 -0.00156201 0.0
-0.0130249 -0.00169036 0.0
-0.0142272 -0.00181236 0.0
-0.015517 -0.00192247 0.0
-0.0168858 -0.00201361 0.0
-0.0183199 -0.00207717 0.0
-0.0197988 -0.00210309 0.0
-0.0212946 -0.00208026 0.0
-0.0227698 -0.00199737 0.0
-0.0241726 -0.00184418 0.0
-0.0253909 -0.00161348 0.0
-0.0258291 -0.0013041 0.0
-0.0208484 -0.000926967 0.0
0.0244763 -0.000509397 0.0
0.325985 -0.000138533 0.0
-0.00344244 -4.51205e-05 0.0
-0.00451761 -0.000158675 0.0
-0.00473878 -0.000294168 0.0
-0.00489604 -0.000430437 0.0
-0.0050944 -0.00057117 0.0
-0.00534782 -0.000717141 0.0
-0.00566005 -0.00086951 0.0
-0.0060342 -0.00102936 0.0
-0.00647371 -0.00119766 0.0
-0.00698247 -0.00137519 0.0
-0.00756474 -0.00156245 0.0
-0.00822507 -0.00175959 0.0
-0.00896818 -0.00196624 0.0
-0.00979872 -0.0021813 0.0
-0.010721 -0.00240275 0.0
-0.0117387 -0.00262733 0.0
-0.0128542 -0.00285023 0.0
-0.0140679 -0.00306467 0.0
-0.0153775 -0.00326155 0.0
-0.0167766 -0.00342912 0.0
-0.0182536 -0.00355271 0.0
-0.01979 -0.00361488 0.0
-0.0213586 -0.00359589 0.0
-0.0229218 -0.00347495 0.0
-0.0244251 -0.00323242 0.0
-0.0257507 -0.00285315 0.0
-0.0262921 -0.00233175 0.0
-0.0213898 -0.00168241 0.0
0.0239175 -0.000939368 0.0
0.325541 -0.000265513 0.0
-0.00332467 -6.26724e-05 0.0
-0.00436338 -0.000220366 0.0
-0.00457745 -0.000408544 0.0
-0.00473007 -0.000597888 0.0
-0.00492277 -0.00079356 0.0
-0.00516913 -0.000996696 0.0
-0.00547294 -0.00120898 0.0
-0.0058374 -0.00143201 0.0
-0.00626613 -0.00166725 0.0
-0.00676328 -0.00191592 0.0
-0.00733346 -0.00217893 0.0
-0.00798175 -0.00245672 0.0
-0.00871357 -0.00274906 0.0
-0.00953455 -0.00305479 0.0
-0.0104503 -0.00337153 0.0
-0.0114661 -0.00369519 0.0
-0.0125865 -0.00401956 0.0
-0.0138145 -0.00433566 0.0
-0.0151508 -0.00463116 0.0
-0.0165925 -0.00488973 0.0
-0.0181317 -0.00509055 0.0
-0.0197531 -0.00520815 0.0
-0.021432 -0.00521283 0.0
-0.0231312 -0.0050721 0.0
-0.0247933 -0.00475369 0.0
-0.0262922 -0.00423039 0.0
-0.0270051 -0.00348824 0.0
-0.0222416 -0.00254158 0.0
0.0230153 -0.00143139 0.0
0.324811 -0.000410329 0.0
-0.00316923 -7.96118e-05 0.0
-0.0041598 -0.00027991 0.0
-0.00436443 -0.000518968 0.0
-0.00451081 -0.000759627 0.0
-0.00469584 -0.00100851 0.0
-0.00493261 -0.00126714 0.0
-0.00522493 -0.00153776 0.0
-0.0055761 -0.00182256 0.0
-0.00598994 -0.00212354 0.0
-0.00647086 -0.00244251 0.0
-0.00702393 -0.00278093 0.0
-0.00765483 -0.00313971 0.0
-0.00836984 -0.00351904 0.0
-0.00917578 -0.00391803 0.0
-0.0100799 -0.00433433 0.0
-0.0110896 -0.00476354 0.0
-0.0122123 -0.0051986 0.0
-0.0134544 -0.00562896 0.0
-0.0148209 -0.00603958 0.0
-0.0163142 -0.00641 0.0
-0.0179316 -0.00671328 0.0
-0.0196637 -0.0069153 0.0
-0.0214906 -0.0069748 0.0
-0.0233773 -0.00684452 0.0
-0.0252644 -0.00647464 0.0
-0.0270162 -0.00581917 0.0
-0.0279878 -0.00484781 0.0
-0.0234447 -0.0035686 0.0
0.0217138 -0.00202804 0.0
0.323746 -0.000587326 0.0
-0.00297763 -9.57546e-05 0.0
-0.00390888 -0.000336661 0.0
-0.00410176 -0.000624247 0.0
-0.00424028 -0.000913918 0.0
-0.00441559 -0.00121372 0.0
-0.00464017 -0.00152562 0.0
-0.00491779 -0.00185245 0.0
-0.00525187 -0.00219702 0.0
-0.00564638 -0.00256201 0.0
-0.00610604 -0.00294991 0.0
-0.00663632 -0.00336289 0.0
-0.00724357 -0.00380262 0.0
-0.007935 -0.00427001 0.0
-0.00871878 -0.00476487 0.0
-0.009604 -0.00528539 0.0
-0.0106006 -0.00582756 0.0
-0.0117193 -0.00638429 0.0
-0.0129711 -0.00694432 0.0
-0.0143665 -0.00749095 0.0
-0.0159147 -0.00800039 0.0
-0.0176214 -0.00844012 0.0
-0.0194858 -0.0087672 0.0
-0.0214966 -0.00892719 0.0
-0.0236254 -0.00885438 0.0
-0.025814 -0.00847474 0.0
-0.0279176 -0.00771333 0.0
-0.0292639 -0.00651038 0.0
-0.0250571 -0.00485455 0.0
0.0199277 -0.0027926 0.0
0.322261 -0.000818303 0.0
-0.00275182 -0.000110915 0.0
-0.00361311 -0.000389968 0.0
-0.00379203 -0.000723173 0.0
-0.00392104 -0.00105899 0.0
-0.00408456 -0.00140686 0.0
-0.00429427 -0.00176919 0.0
-0.00455389 -0.00214945 0.0
-0.00486688 -0.00255115 0.0
-0.00523735 -0.00297771 0.0
-0.00567022 -0.00343246 0.0
-0.00617137 -0.00391846 0.0
-0.00674773 -0.00443838 0.0
-0.00740743 -0.00499425 0.0
-0.00815998 -0.00558703 0.0
-0.00901641 -0.00621617 0.0
-0.00998945 -0.00687887 0.0
-0.0110936 -0.00756907 0.0
-0.0123449 -0.00827617 0.0
-0.013761 -0.00898325 0.0
-0.0153599 -0.00966486 0.0
-0.0171582 -0.0102843 0.0
-0.0191687 -0.0107906 0.0
-0.0213943 -0.0111152 0.0
-0.0238202 -0.0111705 0.0
-0.0263971 -0.01085 0.0
-0.0289761 -0.0100354 0.0
-0.0308553 -0.00861606 0.0
-0.0271563 -0.00653595 0.0
0.0175304 -0.00382748 0.0
0.320218 -0.00114082 0.0
-0.00249414 -0.000124909 0.0
-0.00327556 -0.000439179 0.0
-0.00343838 -0.000814536 0.0
-0.00355627 -0.00119307 0.0
-0.00370591 -0.00158553 0.0
-0.00389805 -0.00199481 0.0
-0.00413628 -0.00242504 0.0
-0.00442405 -0.00288047 0.0
-0.00476549 -0.00336535 0.0
-0.00516566 -0.00388394 0.0
-0.00563069 -0.0044404 0.0
-0.00616795 -0.00503868 0.0
-0.00678635 -0.00568227 0.0
-0.00749658 -0.00637385 0.0
-0.0083115 -0.00711487 0.0
-0.00924653 -0.00790472 0.0
-0.0103201 -0.00873976 0.0
-0.0115539 -0.00961178 0.0
-0.0129735 -0.0105059 0.0
-0.0146076 -0.0113976 0.0
-0.0164875 -0.012249 0.0
-0.0186443 -0.0130033 0.0
-0.0211038 -0.0135796 0.0
-0.023876 -0.0138659 0.0
-0.0269346 -0.0137151 0.0
-0.0301411 -0.0129467 0.0
-0.0327696 -0.0113666 0.0
-0.0298384 -0.00882612 0.0
0.0143379 -0.00530984 0.0
0.317389 -0.00162557 0.0
-0.00220733 -0.000137557 0.0
-0.00289979 -0.000483659 0.0
-0.00304452 -0.000897142 0.0
-0.00314971 -0.00131438 0.0
-0.00328342 -0.00174735 0.0
-0.00345532 -0.00219943 0.0
-0.00366879 -0.00267543 0.0
-0.00392714 -0.00318035 0.0
-0.00423444 -0.00371932 0.0
-0.0045957 -0.00429765 0.0
-0.00501711 -0.00492074 0.0
-0.00550625 -0.00559404 0.0
-0.0060725 -0.00632287 0.0
-0.00672738 -0.00711218 0.0
-0.0074852 -0.00796612 0.0
-0.00836366 -0.00888745 0.0
-0.00938481 -0.00987648 0.0
-0.0105759 -0.0109296 0.0
-0.0119707 -0.0120369 0.0
-0.0136101 -0.0131789 0.0
-0.015543 -0.0143211 0.0
-0.0178247 -0.0154069 0.0
-0.0205142 -0.0163479 0.0
-0.0236631 -0.0170103 0.0
-0.0272919 -0.0172013 0.0
-0.0313032 -0.0166578 0.0
-0.0349735 -0.015056 0.0
-0.0332083 -0.0120684 0.0
0.0100851 -0.00756536 0.0
0.313373 -0.00241613 0.0
-0.00189452 -0.000148689 0.0
-0.0024899 -0.000522796 0.0
-0.00261471 -0.000969839 0.0
-0.00270572 -0.0014212 0.0
-0.00282155 -0.00188999 0.0
-0.00297064 -0.00238005 0.0
-0.00315604 -0.00289683 0.0
-0.00338086 -0.0034461 0.0
-0.00364891 -0.00403389 0.0
-0.00396497 -0.00466658 0.0
-0.00433501 -0.00535093 0.0
-0.0047665 -0.00609405 0.0
-0.00526881 -0.00690336 0.0
-0.00585376 -0.00778651 0.0
-0.00653638 -0.0087511 0.0
-0.00733586 -0.00980428 0.0
-0.00827687 -0.010952 0.0
-0.00939128 -0.0121976 0.0
-0.0107203 -0.0135401 0.0
-0.0123169 -0.0149698 0.0
-0.0142491 -0.0164635 0.0
-0.0166019 -0.0179746 0.0
-0.0194778 -0.0194189 0.0
-0.0229917 -0.0206529 0.0
-0.0272478 -0.021444 0.0
-0.0322453 -0.0214331 0.0
-0.0373319 -0.020112 0.0