# vtk DataFile Version 3.0
Malha 2D com triângulos e temperatura
ASCII
DATASET UNSTRUCTURED_GRID

POINTS 961 double
0 0 0
1 0 0
1 1 0
0 1 0
0.0333333 0 0
0.0666667 0 0
0.1 0 0
0.133333 0 0
0.166667 0 0
0.2 0 0
0.233333 0 0
0.266667 0 0
0.3 0 0
0.333333 0 0
0.366667 0 0
0.4 0 0
0.433333 0 0
0.466667 0 0
0.5 0 0
0.533333 0 0
0.566667 0 0
0.6 0 0
0.633333 0 0
0.666667 0 0
0.7 0 0
0.733333 0 0
0.766667 0 0
0.8 0 0
0.833333 0 0
0.866667 0 0
0.9 0 0
0.933333 0 0
0.966667 0 0
1 0.0333333 0
1 0.0666667 0
1 0.1 0
1 0.133333 0
1 0.166667 0
1 0.2 0
1 0.233333 0
1 0.266667 0
1 0.3 0
1 0.333333 0
1 0.366667 0
1 0.4 0
1 0.433333 0
1 0.466667 0
1 0.5 0
1 0.533333 0
1 0.566667 0
1 0.6 0
1 0.633333 0
1 0.666667 0
1 0.7 0
1 0.733333 0
1 0.766667 0
1 0.8 0
1 0.833333 0
1 0.866667 0
1 0.9 0
1 0.933333 0
1 0.966667 0
0.966667 1 0
0.933333 1 0
0.9 1 0
0.866667 1 0
0.833333 1 0
0.8 1 0
0.766667 1 0
0.733333 1 0
0.7 1 0
0.666667 1 0
0.633333 1 0
0.6 1 0
0.566667 1 0
0.533333 1 0
0.5 1 0
0.466667 1 0
0.433333 1 0
0.4 1 0
0.366667 1 0
0.333333 1 0
0.3 1 0
0.266667 1 0
0.233333 1 0
0.2 1 0
0.166667 1 0
0.133333 1 0
0.1 1 0
0.0666667 1 0
0.0333333 1 0
0 0.966667 0
0 0.933333 0
0 0.9 0
0 0.866667 0
0 0.833333 0
0 0.8 0
0 0.766667 0
0 0.733333 0
0 0.7 0
0 0.666667 0
0 0.633333 0
0 0.6 0
0 0.566667 0
0 0.533333 0
0 0.5 0
0 0.466667 0
0 0.433333 0
0 0.4 0
0 0.366667 0
0 0.333333 0
0 0.3 0
0 0.266667 0
0 0.233333 0
0 0.2 0
0 0.166667 0
0 0.133333 0
0 0.1 0
0 0.0666667 0
0 0.0333333 0
0.0333333 0.0333333 0
0.0333333 0.0666667 0
0.0333333 0.1 0
0.0333333 0.133333 0
0.0333333 0.166667 0
0.0333333 0.2 0
0.0333333 0.233333 0
0.0333333 0.266667 0
0.0333333 0.3 0
0.0333333 0.333333 0
0.0333333 0.366667 0
0.0333333 0.4 0
0.0333333 0.433333 0
0.0333333 0.466667 0
0.0333333 0.5 0
0.0333333 0.533333 0
0.0333333 0.566667 0
0.0333333 0.6 0
0.0333333 0.633333 0
0.0333333 0.666667 0
0.0333333 0.7 0
0.0333333 0.733333 0
0.0333333 0.766667 0
0.0333333 0.8 0
0.0333333 0.833333 0
0.0333333 0.866667 0
0.0333333 0.9 0
0.0333333 0.933333 0
0.0333333 0.966667 0
0.0666667 0.0333333 0
0.0666667 0.0666667 0
0.0666667 0.1 0
0.0666667 0.133333 0
0.0666667 0.166667 0
0.0666667 0.2 0
0.0666667 0.233333 0
0.0666667 0.266667 0
0.0666667 0.3 0
0.0666667 0.333333 0
0.0666667 0.366667 0
0.0666667 0.4 0
0.0666667 0.433333 0
0.0666667 0.466667 0
0.0666667 0.5 0
0.0666667 0.533333 0
0.0666667 0.566667 0
0.0666667 0.6 0
0.0666667 0.633333 0
0.0666667 0.666667 0
0.0666667 0.7 0
0.0666667 0.733333 0
0.0666667 0.766667 0
0.0666667 0.8 0
0.0666667 0.833333 0
0.0666667 0.866667 0
0.0666667 0.9 0
0.0666667 0.933333 0
0.0666667 0.966667 0
0.1 0.0333333 0
0.1 0.0666667 0
0.1 0.1 0
0.1 0.133333 0
0.1 0.166667 0
0.1 0.2 0
0.1 0.233333 0
0.1 0.266667 0
0.1 0.3 0
0.1 0.333333 0
0.1 0.366667 0
0.1 0.4 0
0.1 0.433333 0
0.1 0.466667 0
0.1 0.5 0
0.1 0.533333 0
0.1 0.566667 0
0.1 0.6 0
0.1 0.633333 0
0.1 0.666667 0
0.1 0.7 0
0.1 0.733333 0
0.1 0.766667 0
0.1 0.8 0
0.1 0.833333 0
0.1 0.866667 0
0.1 0.9 0
0.1 0.933333 0
0.1 0.966667 0
0.133333 0.0333333 0
0.133333 0.0666667 0
0.133333 0.1 0
0.133333 0.133333 0
0.133333 0.166667 0
0.133333 0.2 0
0.133333 0.233333 0
0.133333 0.266667 0
0.133333 0.3 0
0.133333 0.333333 0
0.133333 0.366667 0
0.133333 0.4 0
0.133333 0.433333 0
0.133333 0.466667 0
0.133333 0.5 0
0.133333 0.533333 0
0.133333 0.566667 0
0.133333 0.6 0
0.133333 0.633333 0
0.133333 0.666667 0
0.133333 0.7 0
0.133333 0.733333 0
0.133333 0.766667 0
0.133333 0.8 0
0.133333 0.833333 0
0.133333 0.866667 0
0.133333 0.9 0
0.133333 0.933333 0
0.133333 0.966667 0
0.166667 0.0333333 0
0.166667 0.0666667 0
0.166667 0.1 0
0.166667 0.133333 0
0.166667 0.166667 0
0.166667 0.2 0
0.166667 0.233333 0
0.166667 0.266667 0
0.166667 0.3 0
0.166667 0.333333 0
0.166667 0.366667 0
0.166667 0.4 0
0.166667 0.433333 0
0.166667 0.466667 0
0.166667 0.5 0
0.166667 0.533333 0
0.166667 0.566667 0
0.166667 0.6 0
0.166667 0.633333 0
0.166667 0.666667 0
0.166667 0.7 0
0.166667 0.733333 0
0.166667 0.766667 0
0.166667 0.8 0
0.166667 0.833333 0
0.166667 0.866667 0
0.166667 0.9 0
0.166667 0.933333 0
0.166667 0.966667 0
0.2 0.0333333 0
0.2 0.0666667 0
0.2 0.1 0
0.2 0.133333 0
0.2 0.166667 0
0.2 0.2 0
0.2 0.233333 0
0.2 0.266667 0
0.2 0.3 0
0.2 0.333333 0
0.2 0.366667 0
0.2 0.4 0
0.2 0.433333 0
0.2 0.466667 0
0.2 0.5 0
0.2 0.533333 0
0.2 0.566667 0
0.2 0.6 0
0.2 0.633333 0
0.2 0.666667 0
0.2 0.7 0
0.2 0.733333 0
0.2 0.766667 0
0.2 0.8 0
0.2 0.833333 0
0.2 0.866667 0
0.2 0.9 0
0.2 0.933333 0
0.2 0.966667 0
0.233333 0.0333333 0
0.233333 0.0666667 0
0.233333 0.1 0
0.233333 0.133333 0
0.233333 0.166667 0
0.233333 0.2 0
0.233333 0.233333 0
0.233333 0.266667 0
0.233333 0.3 0
0.233333 0.333333 0
0.233333 0.366667 0
0.233333 0.4 0
0.233333 0.433333 0
0.233333 0.466667 0
0.233333 0.5 0
0.233333 0.533333 0
0.233333 0.566667 0
0.233333 0.6 0
0.233333 0.633333 0
0.233333 0.666667 0
0.233333 0.7 0
0.233333 0.733333 0
0.233333 0.766667 0
0.233333 0.8 0
0.233333 0.833333 0
0.233333 0.866667 0
0.233333 0.9 0
0.233333 0.933333 0
0.233333 0.966667 0
0.266667 0.0333333 0
0.266667 0.0666667 0
0.266667 0.1 0
0.266667 0.133333 0
0.266667 0.166667 0
0.266667 0.2 0
0.266667 0.233333 0
0.266667 0.266667 0
0.266667 0.3 0
0.266667 0.333333 0
0.266667 0.366667 0
0.266667 0.4 0
0.266667 0.433333 0
0.266667 0.466667 0
0.266667 0.5 0
0.266667 0.533333 0
0.266667 0.566667 0
0.266667 0.6 0
0.266667 0.633333 0
0.266667 0.666667 0
0.266667 0.7 0
0.266667 0.733333 0
0.266667 0.766667 0
0.266667 0.8 0
0.266667 0.833333 0
0.266667 0.866667 0
0.266667 0.9 0
0.266667 0.933333 0
0.266667 0.966667 0
0.3 0.0333333 0
0.3 0.0666667 0
0.3 0.1 0
0.3 0.133333 0
0.3 0.166667 0
0.3 0.2 0
0.3 0.233333 0
0.3 0.266667 0
0.3 0.3 0
0.3 0.333333 0
0.3 0.366667 0
0.3 0.4 0
0.3 0.433333 0
0.3 0.466667 0
0.3 0.5 0
0.3 0.533333 0
0.3 0.566667 0
0.3 0.6 0
0.3 0.633333 0
0.3 0.666667 0
0.3 0.7 0
0.3 0.733333 0
0.3 0.766667 0
0.3 0.8 0
0.3 0.833333 0
0.3 0.866667 0
0.3 0.9 0
0.3 0.933333 0
0.3 0.966667 0
0.333333 0.0333333 0
0.333333 0.0666667 0
0.333333 0.1 0
0.333333 0.133333 0
0.333333 0.166667 0
0.333333 0.2 0
0.333333 0.233333 0
0.333333 0.266667 0
0.333333 0.3 0
0.333333 0.333333 0
0.333333 0.366667 0
0.333333 0.4 0
0.333333 0.433333 0
0.333333 0.466667 0
0.333333 0.5 0
0.333333 0.533333 0
0.333333 0.566667 0
0.333333 0.6 0
0.333333 0.633333 0
0.333333 0.666667 0
0.333333 0.7 0
0.333333 0.733333 0
0.333333 0.766667 0
0.333333 0.8 0
0.333333 0.833333 0
0.333333 0.866667 0
0.333333 0.9 0
0.333333 0.933333 0
0.333333 0.966667 0
0.366667 0.0333333 0
0.366667 0.0666667 0
0.366667 0.1 0
0.366667 0.133333 0
0.366667 0.166667 0
0.366667 0.2 0
0.366667 0.233333 0
0.366667 0.266667 0
0.366667 0.3 0
0.366667 0.333333 0
0.366667 0.366667 0
0.366667 0.4 0
0.366667 0.433333 0
0.366667 0.466667 0
0.366667 0.5 0
0.366667 0.533333 0
0.366667 0.566667 0
0.366667 0.6 0
0.366667 0.633333 0
0.366667 0.666667 0
0.366667 0.7 0
0.366667 0.733333 0
0.366667 0.766667 0
0.366667 0.8 0
0.366667 0.833333 0
0.366667 0.866667 0
0.366667 0.9 0
0.366667 0.933333 0
0.366667 0.966667 0
0.4 0.0333333 0
0.4 0.0666667 0
0.4 0.1 0
0.4 0.133333 0
0.4 0.166667 0
0.4 0.2 0
0.4 0.233333 0
0.4 0.266667 0
0.4 0.3 0
0.4 0.333333 0
0.4 0.366667 0
0.4 0.4 0
0.4 0.433333 0
0.4 0.466667 0
0.4 0.5 0
0.4 0.533333 0
0.4 0.566667 0
0.4 0.6 0
0.4 0.633333 0
0.4 0.666667 0
0.4 0.7 0
0.4 0.733333 0
0.4 0.766667 0
0.4 0.8 0
0.4 0.833333 0
0.4 0.866667 0
0.4 0.9 0
0.4 0.933333 0
0.4 0.966667 0
0.433333 0.0333333 0
0.433333 0.0666667 0
0.433333 0.1 0
0.433333 0.133333 0
0.433333 0.166667 0
0.433333 0.2 0
0.433333 0.233333 0
0.433333 0.266667 0
0.433333 0.3 0
0.433333 0.333333 0
0.433333 0.366667 0
0.433333 0.4 0
0.433333 0.433333 0
0.433333 0.466667 0
0.433333 0.5 0
0.433333 0.533333 0
0.433333 0.566667 0
0.433333 0.6 0
0.433333 0.633333 0
0.433333 0.666667 0
0.433333 0.7 0
0.433333 0.733333 0
0.433333 0.766667 0
0.433333 0.8 0
0.433333 0.833333 0
0.433333 0.866667 0
0.433333 0.9 0
0.433333 0.933333 0
0.433333 0.966667 0
0.466667 0.0333333 0
0.466667 0.0666667 0
0.466667 0.1 0
0.466667 0.133333 0
0.466667 0.166667 0
0.466667 0.2 0
0.466667 0.233333 0
0.466667 0.266667 0
0.466667 0.3 0
0.466667 0.333333 0
0.466667 0.366667 0
0.466667 0.4 0
0.466667 0.433333 0
0.466667 0.466667 0
0.466667 0.5 0
0.466667 0.533333 0
0.466667 0.566667 0
0.466667 0.6 0
0.466667 0.633333 0
0.466667 0.666667 0
0.466667 0.7 0
0.466667 0.733333 0
0.466667 0.766667 0
0.466667 0.8 0
0.466667 0.833333 0
0.466667 0.866667 0
0.466667 0.9 0
0.466667 0.933333 0
0.466667 0.966667 0
0.5 0.0333333 0
0.5 0.0666667 0
0.5 0.1 0
0.5 0.133333 0
0.5 0.166667 0
0.5 0.2 0
0.5 0.233333 0
0.5 0.266667 0
0.5 0.3 0
0.5 0.333333 0
0.5 0.366667 0
0.5 0.4 0
0.5 0.433333 0
0.5 0.466667 0
0.5 0.5 0
0.5 0.533333 0
0.5 0.566667 0
0.5 0.6 0
0.5 0.633333 0
0.5 0.666667 0
0.5 0.7 0
0.5 0.733333 0
0.5 0.766667 0
0.5 0.8 0
0.5 0.833333 0
0.5 0.866667 0
0.5 0.9 0
0.5 0.933333 0
0.5 0.966667 0
0.533333 0.0333333 0
0.533333 0.0666667 0
0.533333 0.1 0
0.533333 0.133333 0
0.533333 0.166667 0
0.533333 0.2 0
0.533333 0.233333 0
0.533333 0.266667 0
0.533333 0.3 0
0.533333 0.333333 0
0.533333 0.366667 0
0.533333 0.4 0
0.533333 0.433333 0
0.533333 0.466667 0
0.533333 0.5 0
0.533333 0.533333 0
0.533333 0.566667 0
0.533333 0.6 0
0.533333 0.633333 0
0.533333 0.666667 0
0.533333 0.7 0
0.533333 0.733333 0
0.533333 0.766667 0
0.533333 0.8 0
0.533333 0.833333 0
0.533333 0.866667 0
0.533333 0.9 0
0.533333 0.933333 0
0.533333 0.966667 0
0.566667 0.0333333 0
0.566667 0.0666667 0
0.566667 0.1 0
0.566667 0.133333 0
0.566667 0.166667 0
0.566667 0.2 0
0.566667 0.233333 0
0.566667 0.266667 0
0.566667 0.3 0
0.566667 0.333333 0
0.566667 0.366667 0
0.566667 0.4 0
0.566667 0.433333 0
0.566667 0.466667 0
0.566667 0.5 0
0.566667 0.533333 0
0.566667 0.566667 0
0.566667 0.6 0
0.566667 0.633333 0
0.566667 0.666667 0
0.566667 0.7 0
0.566667 0.733333 0
0.566667 0.766667 0
0.566667 0.8 0
0.566667 0.833333 0
0.566667 0.866667 0
0.566667 0.9 0
0.566667 0.933333 0
0.566667 0.966667 0
0.6 0.0333333 0
0.6 0.0666667 0
0.6 0.1 0
0.6 0.133333 0
[...]
CELL_DATA 900
VECTORS velocity double
7.25653e-05 -7.14026e-05 0.0
-1.79979e-09 -3.17463e-05 0.0
-7.44002e-05 0.000297023 0.0
-0.000135194 0.000849517 0.0
-0.000174933 0.00159286 0.0
-0.00020216 0.00247275 0.0
-0.000222259 0.00346501 0.0
-0.000240105 0.00455436 0.0
-0.000258683 0.00574013 0.0
-0.00028007 0.00702986 0.0
-0.000305673 0.00843858 0.0
-0.000336661 0.00998707 0.0
-0.000374261 0.0117018 0.0
-0.000420074 0.0136155 0.0
-0.000476445 0.0157694 0.0
-0.000546972 0.0182156 0.0
-0.000637293 0.0210224 0.0
-0.000756463 0.0242808 0.0
-0.000919554 0.0281143 0.0
-0.00115312 0.0326953 0.0
-0.00150698 0.0382703 0.0
-0.00208065 0.0452076 0.0
-0.00307785 0.0540894 0.0
-0.00491913 0.0658681 0.0
-0.00840891 0.0822428 0.0
-0.0149479 0.105771 0.0
-0.0257171 0.141704 0.0
-0.0382335 0.188866 0.0
-0.0136349 0.262121 0.0
0.216684 0.173818 0.0
2.97441e-05 4.23356e-06 0.0
-0.000404753 0.000407142 0.0
-0.000840201 0.00140905 0.0
-0.00121874 0.00285792 0.0
-0.00151319 0.00471975 0.0
-0.00174744 0.00690441 0.0
-0.00194496 0.00936955 0.0
-0.00212961 0.0120873 0.0
-0.00232014 0.0150571 0.0
-0.00253155 0.0182963 0.0
-0.00277591 0.021839 0.0
-0.00306411 0.025733 0.0
-0.00340751 0.0300397 0.0
-0.00381978 0.0348349 0.0
-0.00431891 0.040212 0.0
-0.00492964 0.046287 0.0
-0.00568656 0.0532053 0.0
-0.00663831 0.0611502 0.0
-0.00785386 0.070353 0.0
-0.00943313 0.0811043 0.0
-0.0115258 0.0937617 0.0
-0.0143676 0.108753 0.0
-0.0183381 0.126557 0.0
-0.024057 0.147614 0.0
-0.0323915 0.172115 0.0
-0.0442897 0.199149 0.0
-0.0583179 0.225565 0.0
-0.0652171 0.239854 0.0
-0.00342526 0.218092 0.0
0.30468 0.116244 0.0
-0.000302302 7.8205e-05 0.0
-0.00140338 0.000822669 0.0
-0.00245764 0.00240836 0.0
-0.00337615 0.00456348 0.0
-0.00412366 0.00725888 0.0
-0.00474129 0.0103846 0.0
-0.00527895 0.0138941 0.0
-0.00578879 0.0177565 0.0
-0.00631515 0.0219737 0.0
-0.0068948 0.0265696 0.0
-0.00755837 0.0315891 0.0
-0.00833355 0.0370937 0.0
-0.00924862 0.0431611 0.0
-0.0103363 0.0498853 0.0
-0.0116375 0.0573783 0.0
-0.0132057 0.0657734 0.0
-0.0151112 0.0752288 0.0
-0.0174454 0.0859298 0.0
-0.0203251 0.0980883 0.0
-0.0238965 0.111934 0.0
-0.0283382 0.12769 0.0
-0.0338622 0.145521 0.0
-0.0406893 0.165418 0.0
-0.0489652 0.186996 0.0
-0.0583531 0.209019 0.0
-0.0670157 0.228703 0.0
-0.0675581 0.239514 0.0
-0.0384245 0.231015 0.0
0.0914092 0.173521 0.0
0.475573 0.0769354 0.0
-0.000839981 0.000134317 0.0
-0.00279972 0.00114701 0.0
-0.00458253 0.00317804 0.0
-0.00611149 0.0058408 0.0
-0.00737284 0.00910881 0.0
-0.00843286 0.0128586 0.0
-0.00937139 0.0170459 0.0
-0.0102701 0.0216407 0.0
-0.0111998 0.0266484 0.0
-0.01222 0.0320966 0.0
-0.0133804 0.0380342 0.0
-0.0147252 0.0445267 0.0
-0.0162985 0.0516544 0.0
-0.0181489 0.0595112 0.0
-0.0203343 0.0682044 0.0
-0.0229263 0.0778543 0.0
-0.0260127 0.0885924 0.0
-0.0296974 0.100556 0.0
-0.0340958 0.113873 0.0
-0.0393219 0.12864 0.0
-0.0454618 0.144863 0.0
-0.0525238 0.162375 0.0
-0.0603277 0.180667 0.0
-0.0682735 0.198663 0.0
-0.0746984 0.214198 0.0
-0.0754534 0.223658 0.0
-0.0596332 0.220058 0.0
-0.000169481 0.195346 0.0
0.16788 0.12944 0.0
0.574585 0.049148 0.0
-0.00152943 0.000163776 0.0
-0.00450875 0.00134379 0.0
-0.00711141 0.0036594 0.0
-0.00930504 0.0066365 0.0
-0.0111214 0.0102459 0.0
-0.0126614 0.0143526 0.0
-0.0140394 0.018915 0.0
-0.015368 0.0239048 0.0
-0.0167449 0.0293299 0.0
-0.0182519 0.0352193 0.0
-0.0199567 0.0416218 0.0
-0.0219184 0.0486004 0.0
-0.0241935 0.0562296 0.0
-0.0268416 0.0645926 0.0
-0.0299296 0.0737787 0.0
-0.0335348 0.0838798 0.0
-0.037744 0.0949839 0.0
-0.0426461 0.107163 0.0
-0.0483146 0.12045 0.0
-0.0547744 0.134806 0.0
-0.0619413 0.150047 0.0
-0.0695201 0.165758 0.0
-0.0768159 0.181112 0.0
-0.082387 0.19469 0.0
-0.0832557 0.204006 0.0
-0.0733149 0.205482 0.0
-0.0391885 0.192828 0.0
0.0476991 0.160612 0.0
0.242308 0.0964711 0.0
0.646922 0.0309313 0.0
-0.00229147 0.0001756 0.0
-0.00637927 0.00143579 0.0
-0.00984335 0.00388821 0.0
-0.0127157 0.00700748 0.0
-0.0150901 0.0107597 0.0
-0.017111 0.0150023 0.0
-0.018931 0.0196957 0.0
-0.0206942 0.024813 0.0
-0.0225243 0.0303642 0.0
-0.0245231 0.0363781 0.0
-0.0267737 0.0429009 0.0
-0.0293467 0.0499901 0.0
-0.032306 0.0577105 0.0
-0.0357153 0.0661306 0.0
-0.0396414 0.0753177 0.0
-0.0441545 0.0853318 0.0
-0.0493226 0.096216 0.0
-0.0551961 0.10798 0.0
-0.0617774 0.120576 0.0
-0.0689663 0.133852 0.0
-0.0764709 0.147491 0.0
-0.0836629 0.160919 0.0
-0.0893368 0.173144 0.0
-0.0912955 0.182638 0.0
-0.085517 0.186914 0.0
-0.0645792 0.182856 0.0
-0.0139189 0.165021 0.0
0.0938876 0.130907 0.0
0.305269 0.0729031 0.0
0.698504 0.0197282 0.0
-0.00307821 0.000175305 0.0
-0.00830841 0.00144549 0.0
-0.0126431 0.0039111 0.0
-0.0161885 0.0070288 0.0
-0.0191085 0.0107607 0.0
-0.0215965 0.0149618 0.0
-0.0238463 0.0195943 0.0
-0.0260333 0.0246333 0.0
-0.0283061 0.0300898 0.0
-0.0307843 0.0359918 0.0
-0.0335639 0.0423826 0.0
-0.0367227 0.0493132 0.0
-0.0403282 0.0568387 0.0
-0.0444422 0.0650128 0.0
-0.0491234 0.0738821 0.0
-0.0544248 0.0834784 0.0
-0.0603831 0.0938067 0.0
-0.0669951 0.104828 0.0
-0.0741742 0.116429 0.0
-0.0816785 0.128385 0.0
-0.0889962 0.140292 0.0
-0.09517 0.151495 0.0
-0.0985229 0.160941 0.0
-0.09621 0.167125 0.0
-0.0834094 0.167717 0.0
-0.0517932 0.160178 0.0
0.0135757 0.139827 0.0
0.137236 0.106758 0.0
0.358726 0.0557634 0.0
0.736245 0.0127641 0.0
-0.00384995 0.000167887 0.0
-0.0102055 0.00139603 0.0
-0.0153881 0.00377804 0.0
-0.0195803 0.00677969 0.0
-0.0230184 0.0103614 0.0
-0.0259475 0.0143816 0.0
-0.0286028 0.0188048 0.0
-0.0311912 0.0236091 0.0
-0.0338842 0.0288066 0.0
-0.0368175 0.034425 0.0
-0.0400969 0.0405044 0.0
-0.0438048 0.047091 0.0
-0.0480078 0.0542314 0.0
-0.0527614 0.0619674 0.0
-0.0581103 0.0703296 0.0
-0.0640831 0.079328 0.0
-0.0706766 0.0889394 0.0
-0.0778243 0.0990889 0.0
-0.0853423 0.109621 0.0
-0.0928413 0.120263 0.0
-0.0995935 0.130563 0.0
-0.104336 0.13983 0.0
-0.104978 0.147018 0.0
-0.0981501 0.150705 0.0
-0.0784603 0.148808 0.0
-0.0370852 0.139243 0.0
0.0403832 0.118492 0.0
0.176199 0.0875623 0.0
0.403502 0.0433084 0.0
0.764423 0.0084381 0.0
-0.00458115 0.00015604 0.0
-0.0120061 0.00130389 0.0
-0.0179884 0.0035283 0.0
-0.0227856 0.00632465 0.0
-0.0267045 0.00965443 0.0
-0.0300413 0.0133847 0.0
-0.0330724 0.0174844 0.0
-0.0360347 0.0219354 0.0
-0.0391211 0.0267517 0.0
-0.0424814 0.0319613 0.0
-0.0462291 0.0376028 0.0
-0.0504488 0.0437189 0.0
-0.0552038 0.050351 0.0
-0.0605395 0.0575332 0.0
-0.0664831 0.0652854 0.0
-0.0730339 0.0736038 0.0
-0.0801434 0.0824473 0.0
-0.0876769 0.0917183 0.0
-0.0953487 0.101236 0.0
-0.102623 0.110697 0.0
-0.108566 0.119629 0.0
-0.111638 0.127334 0.0
-0.109398 0.132803 0.0
-0.0980605 0.134721 0.0
-0.0718512 0.13128 0.0
-0.0217635 0.120771 0.0
0.0658668 0.100629 0.0
0.210942 0.0722687 0.0
0.441052 0.0341084 0.0
0.785914 0.00571332 0.0
-0.00525277 0.000141321 0.0
-0.0136603 0.00118039 0.0
-0.0203731 0.00319051 0.0
-0.0257198 0.00571191 0.0
-0.0300733 0.00870966 0.0
-0.0337792 0.0120645 0.0
-0.0371527 0.0157513 0.0
-0.0404587 0.0197573 0.0
-0.0439099 0.0240996 0.0
-0.0476687 0.0288073 0.0
-0.0518546 0.0339194 0.0
-0.0565531 0.0394775 0.0
-0.0618223 0.045521 0.0
-0.0676962 0.052081 0.0
-0.0741816 0.0591733 0.0
-0.081246 0.0667878 0.0
-0.0887927 0.0748752 0.0
-0.0966151 0.0833268 0.0
-0.104324 0.0919473 0.0
-0.111241 0.10042 0.0
-0.116236 0.108262 0.0
-0.117524 0.114782 0.0
-0.112368 0.119018 0.0
-0.0966753 0.119762 0.0
-0.0644333 0.115468 0.0
-0.00665753 0.104703 0.0
0.0894409 0.0856943 0.0
0.241594 0.0600358 0.0
0.472561 0.0272207 0.0
0.80261 0.00397151 0.0
-0.00585088 0.000124374 0.0
-0.0151303 0.00103239 0.0
-0.0224873 0.00278352 0.0
-0.0283168 0.00497448 0.0
-0.0330522 0.00757598 0.0
-0.0370843 0.0104866 0.0
-0.0407643 0.0136887 0.0
-0.0443828 0.0171765 0.0
-0.0481705 0.0209709 0.0
-0.0523009 0.0251039 0.0
-0.0568989 0.0296163 0.0
-0.06205 0.0345513 0.0
-0.067807 0.03995 0.0
-0.0741917 0.0458454 0.0
-0.0811899 0.0522552 0.0
-0.0887362 0.0591711 0.0
-0.0966833 0.0665443 0.0
-0.104751 0.0742647 0.0
-0.112445 0.082133 0.0
-0.118942 0.0898263 0.0
-0.122932 0.0968578 0.0
-0.122404 0.102543 0.0
-0.114379 0.105966 0.0
-0.0945373 0.106003 0.0
-0.0567325 0.101343 0.0
0.00786703 0.0907486 0.0
0.110959 0.0732088 0.0
0.268513 0.0501829 0.0
0.499077 0.0219873 0.0
0.815803 0.00283703 0.0
-0.00636396 0.000105408 0.0
-0.0163851 0.000863898 0.0
-0.0242866 0.00231934 0.0
-0.0305228 0.00413427 0.0
-0.0355811 0.00628655 0.0
-0.0398931 0.00869588 0.0
-0.0438417 0.0113535 0.0
-0.0477407 0.0142618 0.0
-0.0518369 0.0174464 0.0
-0.0563137 0.0209433 0.0
-0.0613017 0.0247969 0.0
-0.0668865 0.0290544 0.0
-0.0731163 0.0337621 0.0
-0.0800014 0.0389599 0.0
-0.0875075 0.0446737 0.0
-0.0955358 0.0509043 0.0
-0.103888 0.0576125 0.0
-0.112206 0.0646955 0.0
-0.119889 0.0719578 0.0
-0.12597 0.0790761 0.0
-0.128959 0.0855619 0.0
-0.126641 0.0907346 0.0
-0.115834 0.0937081 0.0
-0.0920658 0.0934356 0.0
-0.0491583 0.0887725 0.0
0.0213702 0.0787632 0.0
0.130387 0.0627509 0.0
0.292088 0.042202 0.0
0.521469 0.0179576 0.0
0.826388 0.00208386 0.0
-0.00678195 8.44148e-05 0.0
-0.0173991 0.000677242 0.0
-0.0257338 0.00180574 0.0
-0.0322928 0.00320613 0.0
-0.0376101 0.0048644 0.0
-0.0421522 0.00672388 0.0
-0.0463293 0.00878553 0.0
-0.0504754 0.0110606 0.0
-0.0548515 0.0135802 0.0
-0.0596508 0.0163851 0.0
-0.0650094 0.0195244 0.0
-0.0710148 0.0230518 0.0
-0.0777122 0.0270222 0.0
-0.085103 0.0314869 0.0
-0.0931344 0.036486 0.0
-0.101676 0.0420373 0.0
-0.110476 0.0481195 0.0
-0.119098 0.0546465 0.0
-0.126829 0.0614339 0.0
-0.132552 0.0681632 0.0
-0.134597 0.0743441 0.0
-0.130558 0.0792938 0.0
-0.117085 0.082141 0.0
-0.0896124 0.0818939 0.0
-0.0420254 0.0775358 0.0
0.033772 0.0683325 0.0
0.147828 0.0538729 0.0
0.312707 0.0356413 0.0
0.540446 0.0147924 0.0
0.834994 0.00156906 0.0
-0.00709556 6.13325e-05 0.0
-0.0181493 0.000474054 0.0
-0.0267968 0.00124853 0.0
-0.0335882 0.00220138 0.0
-0.039096 0.0033273 0.0
-0.0438148 0.00459491 0.0
-0.0481776 0.00601518 0.0
-0.052535 0.00760856 0.0
-0.0571606 0.00941148 0.0
-0.0622573 0.0114698 0.0
-0.0679678 0.0138385 0.0
-0.0743838 0.016579 0.0
-0.081551 0.0197578 0.0
-0.089465 0.0234416 0.0
-0.0980582 0.027691 0.0
-0.10717 0.032548 0.0
-0.116499 0.0380187 0.0
-0.125523 0.0440429 0.0
-0.13341 0.0504557 0.0
-0.138886 0.0569496 0.0
-0.140096 0.0630338 0.0
-0.134445 0.0680165 0.0
-0.118438 0.0710246 0.0
-0.0874693 0.071094 0.0
-0.0355627 0.0672985 0.0
0.0449484 0.0590662 0.0
0.163341 0.0461823 0.0
0.330682 0.0301275 0.0
0.556554 0.0122366 0.0
0.842053 0.00120109 0.0
-0.00729628 3.61426e-05 0.0
-0.0186161 0.000255919 0.0
-0.0274481 0.000653128 0.0
-0.0343762 0.00113062 0.0
-0.0400016 0.00169176 0.0
-0.0448404 0.00233148 0.0
-0.0493424 0.00307033 0.0
-0.0538714 0.00393755 0.0
-0.0587122 0.00497429 0.0
-0.0640773 0.00623104 0.0
-0.0701179 0.00776835 0.0
-0.0769334 0.00965665 0.0
-0.084574 0.0119757 0.0
-0.0930355 0.0148115 0.0
-0.10224 0.0182502 0.0
-0.112003 0.0223652 0.0
-0.121973 0.0271998 0.0
-0.131538 0.0327296 0.0
-0.13974 0.0388194 0.0
-0.145136 0.0451822 0.0
-0.14567 0.0513316 0.0
-0.138557 0.0565637 0.0
-0.120166 0.0599888 0.0
-0.085894 0.0606419 0.0
-0.0299651 0.0576501 0.0
0.0548148 0.0505483 0.0
0.176982 0.0392869 0.0
0.346255 0.0253209 0.0
0.570194 0.010081 0.0
0.847857 0.000917029 0.0
-0.00737602 8.84252e-06 0.0
-0.0187819 2.47101e-05 0.0
-0.0276643 2.57649e-05 0.0
-0.034629 5.61592e-06 0.0
-0.0402954 -2.4056e-05 0.0
-0.0451931 -4.18324e-05 0.0
-0.0497828 -1.84983e-05 0.0
-0.0544381 8.26715e-05 0.0
-0.0594531 0.000305994 0.0
-0.0650503 0.000705178 0.0
-0.0713924 0.00134537 0.0
-0.0785905 0.00230542 0.0
-0.0867056 0.00367911 0.0
-0.0957401 0.00557391 0.0
-0.105613 0.00810558 0.0
-0.116121 0.0113858 0.0
-0.126864 0.0155055 0.0
-0.137145 0.0204864 0.0
-0.145866 0.0262344 0.0
-0.151405 0.0324981 0.0
-0.151485 0.0388064 0.0
-0.143111 0.0444489 0.0
-0.12252 0.0485119 0.0
-0.0851367 0.0500032 0.0
-0.0254379 0.0480678 0.0
0.0632514 0.0422891 0.0
0.188745 0.0327578 0.0
0.359566 0.0208813 0.0
0.58162 0.00813525 0.0
0.852576 0.000668817 0.0
-0.00732847 -2.02623e-05 0.0
-0.018634 -0.000216826 0.0
-0.0274285 -0.000625765 0.0
-0.0343262 -0.00115909 0.0
-0.0399539 -0.00179757 0.0
-0.0448456 -0.00249413 0.0
-0.0494663 -0.00321273 0.0
-0.0541951 -0.00391139 0.0
-0.0593337 -0.00454513 0.0
-0.0651153 -0.00505962 0.0
-0.0717164 -0.00538758 0.0
-0.0792649 -0.00544375 0.0
-0.0878398 -0.00512114 0.0
-0.0974591 -0.00428974 0.0
-0.10805 -0.00280015 0.0
-0.119403 -0.000496384 0.0
-0.131079 0.00276123 0.0
-0.142274 0.00704817 0.0
-0.151759 0.0123353 0.0
-0.157715 0.0184283 0.0
-0.157629 0.024889 0.0
-0.148273 0.0310176 0.0
-0.125727 0.0358846 0.0
-0.0854531 0.0384559 0.0
-0.0222197 0.0378628 0.0
0.0700773 0.0336709 0.0
0.19853 0.026082 0.0
0.370622 0.0164291 0.0
0.590925 0.00620317 0.0
0.856272 0.000413706 0.0
-0.00714824 -5.07289e-05 0.0
-0.0181622 -0.000464849 0.0
-0.0267284 -0.00129078 0.0
-0.0334546 -0.002344 0.0
-0.0389613 -0.00359893 0.0
-0.0437774 -0.00498474 0.0
-0.0483654 -0.00646133 0.0
-0.0531052 -0.00798439 0.0
-0.0583044 -0.00951166 0.0
-0.0642072 -0.010992 0.0
-0.0710074 -0.0123599 0.0
-0.0788557 -0.0135278 0.0
-0.0878581 -0.0143789 0.0
-0.0980591 -0.0147632 0.0
-0.109405 -0.0144985 0.0
-0.121679 -0.0133827 0.0
-0.134405 -0.0112245 0.0
-0.14672 -0.00787348 0.0
-0.157251 -0.00328273 0.0
-0.163975 0.00243019 0.0
-0.164085 0.00887907 0.0
-0.154112 0.0154359 0.0
-0.129964 0.0211852 0.0
-0.0871186 0.0250484 0.0
-0.0206299 0.0261234 0.0
0.0749909 0.0238839 0.0
0.206092 0.0186032 0.0
0.379257 0.0115019 0.0
0.598013 0.004062 0.0
0.858882 0.00010858 0.0
-0.00683291 -8.20504e-05 0.0
-0.0173638 -0.000713997 0.0
-0.0255623 -0.00195431 0.0
-0.0320129 -0.00352249 0.0
-0.0373149 -0.00538821 0.0
-0.0419821 -0.00745964 0.0
-0.0464664 -0.00969562 0.0
-0.051144 -0.0120533 0.0
-0.0563254 -0.0144972 0.0
-0.0622661 -0.0169845 0.0
-0.0691795 -0.0194576 0.0
-0.0772448 -0.0218333 0.0
-0.0866034 -0.0239928 0.0
-0.0973388 -0.0257738 0.0
-0.109431 -0.0269677 0.0
-0.122678 -0.0273282 0.0
-0.136587 -0.0265969 0.0
-0.15022 -0.0245424 0.0
-0.162064 -0.0210267 0.0
-0.169883 -0.0160888 0.0
-0.170652 -0.00999213 0.0
-0.160615 -0.00327858 0.0
-0.135351 0.00325291 0.0
-0.0903778 0.00854428 0.0
-0.0210107 0.0116557 0.0
0.0775853 0.0118874 0.0
0.21098 0.00949183 0.0
0.385038 0.00552238 0.0
0.602536 0.00143692 0.0
0.860224 -0.00029846 0.0
-0.00638311 -0.000113325 0.0
-0.0162441 -0.000956739 0.0
-0.0239398 -0.00259637 0.0
-0.0300132 -0.00465954 0.0
-0.035027 -0.00711312 0.0
-0.0394687 -0.00984787 0.0
-0.0437719 -0.0128248 0.0
-0.0483029 -0.0160066 0.0
-0.0533724 -0.0193695 0.0
-0.0592455 -0.0228849 0.0
-0.066157 -0.0265108 0.0
-0.0743183 -0.0301782 0.0
-0.0839147 -0.0337779 0.0
-0.0950808 -0.0371482 0.0
-0.107847 -0.0400669 0.0
-0.122048 -0.0422538 0.0
-0.137192 -0.0433907 0.0
-0.152295 -0.0431598 0.0
-0.165716 -0.0413084 0.0
-0.175019 -0.0377322 0.0
-0.176915 -0.0325403 0.0
-0.167373 -0.0261261 0.0
-0.141818 -0.0191257 0.0
-0.0955444 -0.0124289 0.0
-0.0239766 -0.0069992 0.0
0.0771373 -0.00369736 0.0
0.212492 -0.00237996 0.0
0.387318 -0.00223079 0.0
0.6039 -0.00193129 0.0
0.859914 -0.000823906 0.0
-0.00580422 -0.000143318 0.0
-0.0148197 -0.0011832 0.0
-0.021886 -0.00319107 0.0
-0.0274862 -0.00571018 0.0
-0.0321304 -0.00870671 0.0
-0.0362689 -0.0120583 0.0
-0.040308 -0.0157312 0.0
-0.0445987 -0.0196976 0.0
-0.0494465 -0.0239501 0.0
-0.0551238 -0.0284808 0.0
-0.0618849 -0.0332726 0.0
-0.0699758 -0.0382827 0.0
-0.0796308 -0.0434276 0.0
-0.0910464 -0.0485658 0.0
-0.104321 -0.0534836 0.0
-0.119351 -0.057889 0.0
-0.135677 -0.0614219 0.0
-0.152301 -0.0636843 0.0
-0.167496 -0.0642959 0.0
-0.178659 -0.062968 0.0
-0.182274 -0.0595736 0.0
-0.174028 -0.0542184 0.0
-0.14907 -0.0472666 0.0
-0.102496 -0.0393677 0.0
-0.0297218 -0.0313764 0.0
0.0729925 -0.0242351 0.0
0.209496 -0.0180958 0.0
0.384693 -0.0124827 0.0
0.600914 -0.00637208 0.0
0.857481 -0.00152265 0.0
-0.00510771 -0.000170342 0.0
-0.0131215 -0.00138064 0.0
-0.0194455 -0.00370572 0.0
-0.0244857 -0.0066181 0.0
-0.0286839 -0.0100854 0.0
-0.0324427 -0.013977 0.0
-0.0361333 -0.0182669 0.0
-0.0400838 -0.0229395 0.0
-0.0445889 -0.028008 0.0
-0.0499224 -0.0334912 0.0
-0.0563541 -0.0394055 0.0
-0.0641616 -0.0457486 0.0
-0.0736291 -0.052482 0.0
-0.0850213 -0.05951 0.0
-0.0985191 -0.0666592 0.0
-0.114105 -0.0736613 0.0
-0.131392 -0.0801483 0.0
-0.149419 -0.0856658 0.0
-0.166436 -0.0897079 0.0
-0.17975 -0.0917714 0.0
-0.185682 -0.0914172 0.0
-0.179695 -0.0883359 0.0
-0.156673 -0.0824199 0.0
-0.111396 -0.0738335 0.0
-0.0390411 -0.0631398 0.0
0.0639638 -0.0512125 0.0
0.200667 -0.0388771 0.0
0.375821 -0.0261517 0.0
0.592367 -0.012404 0.0
0.852215 -0.00252386 0.0
-0.00431264 -0.000192172 0.0
-0.0111975 -0.0015332 0.0
-0.0166863 -0.00410022 0.0
-0.0210929 -0.00731505 0.0
-0.0247772 -0.0111487 0.0
-0.0280857 -0.015467 0.0
-0.0313463 -0.0202529 0.0
-0.0348573 -0.0255049 0.0
-0.0388947 -0.0312581 0.0
-0.0437257 -0.0375623 0.0
-0.0496264 -0.044475 0.0
-0.0568977 -0.052047 0.0
-0.0658669 -0.0603052 0.0
-0.0768654 -0.0692298 0.0
-0.0901644 -0.0787278 0.0
-0.105855 -0.0886036 0.0
-0.123665 -0.0985343 0.0
-0.142736 -0.108056 0.0
-0.161389 -0.116565 0.0
-0.176954 -0.123339 0.0
-0.185721 -0.127568 0.0
-0.183041 -0.128405 0.0
-0.163587 -0.125067 0.0
-0.121779 -0.116941 0.0
-0.0523019 -0.103982 0.0
0.0488519 -0.0865891 0.0
0.18427 -0.0665851 0.0
0.358648 -0.044711 0.0
0.576298 -0.0208314 0.0
0.842978 -0.00401938 0.0
-0.00344823 -0.000205783 0.0
-0.00911806 -0.00162145 0.0
-0.0137056 -0.00432718 0.0
-0.0174229 -0.00772169 0.0
-0.0205387 -0.0117806 0.0
-0.0233373 -0.0163709 0.0
-0.0260971 -0.0214838 0.0
-0.0290794 -0.0271306 0.0
-0.0325327 -0.0333674 0.0
-0.0367065 -0.0402753 0.0
-0.0418702 -0.0479562 0.0
-0.048332 -0.0565226 0.0
-0.0564463 -0.0660836 0.0
-0.0665977 -0.0767244 0.0
-0.0791431 -0.0884758 0.0
-0.0942947 -0.101274 0.0
-0.111936 -0.114915 0.0
-0.131384 -0.129002 0.0
-0.151152 -0.142901 0.0
-0.16875 -0.155712 0.0
-0.180623 -0.166248 0.0
-0.182205 -0.173057 0.0
-0.168121 -0.17451 0.0
-0.132477 -0.168937 0.0
-0.0692963 -0.155242 0.0
0.026856 -0.132616 0.0
0.158635 -0.103634 0.0
0.330806 -0.0703325 0.0
0.550166 -0.0330317 0.0
0.828114 -0.00640679 0.0
-0.00255437 -0.000207413 0.0
-0.00697562 -0.00162337 0.0
-0.0106293 -0.00433471 0.0
-0.0136237 -0.0077526 0.0
-0.0161338 -0.0118573 0.0
-0.01838 -0.016521 0.0
-0.0205869 -0.0217396 0.0
-0.0229727 -0.0275339 0.0
-0.0257493 -0.0339759 0.0
-0.0291358 -0.0411725 0.0
-0.0333777 -0.0492668 0.0
-0.0387683 -0.0584325 0.0
-0.0456621 -0.0688679 0.0
-0.0544687 -0.0807812 0.0
-0.0656075 -0.0943641 0.0
-0.0794056 -0.109745 0.0
-0.0959254 -0.126923 0.0
-0.114736 -0.145677 0.0
-0.134664 -0.165465 0.0
-0.153594 -0.185322 0.0
-0.168363 -0.203776 0.0
-0.174769 -0.218803 0.0
-0.167663 -0.227875 0.0
-0.141074 -0.228102 0.0
-0.0884267 -0.216746 0.0
-0.0025298 -0.191628 0.0
0.121591 -0.153122 0.0
0.288909 -0.106373 0.0
0.509927 -0.0516168 0.0
0.804505 -0.0106233 0.0
-0.00168737 -0.000191735 0.0
-0.00489292 -0.00151454 0.0
-0.00762137 -0.00407022 0.0
-0.00988738 -0.00732413 0.0
-0.0117793 -0.0112592 0.0
-0.0134565 -0.0157549 0.0
-0.015089 -0.020807 0.0
-0.0168475 -0.0264387 0.0
-0.0188996 -0.032729 0.0
-0.0214217 -0.0397999 0.0
-0.0246175 -0.0478224 0.0
-0.0287395 -0.057018 0.0
-0.0341077 -0.0676625 0.0
-0.0411134 -0.0800832 0.0
-0.0501929 -0.0946439 0.0
-0.0617517 -0.111705 0.0
-0.0760229 -0.131546 0.0
-0.0928659 -0.154248 0.0
-0.111535 -0.179535 0.0
-0.130473 -0.206593 0.0
-0.147174 -0.233892 0.0
-0.158128 -0.259055 0.0
-0.158796 -0.278807 0.0
-0.14355 -0.289047 0.0
-0.10554 -0.285099 0.0
-0.0362593 -0.262864 0.0
0.0735586 -0.218165 0.0
0.23109 -0.157447 0.0
0.451654 -0.0812557 0.0
0.767663 -0.0186922 0.0
-0.000910947 -0.000153958 0.0
-0.00300312 -0.00127685 0.0
-0.00485613 -0.00349739 0.0
-0.00641592 -0.00637811 0.0
-0.00770293 -0.00989994 0.0
-0.0088237 -0.0139507 0.0
-0.00989633 -0.0185194 0.0
-0.0110419 -0.0236245 0.0
-0.0123786 -0.0293402 0.0
-0.0140313 -0.0357873 0.0
-0.0161468 -0.0431428 0.0
-0.0189131 -0.051647 0.0
-0.0225784 -0.0616173 0.0
-0.027464 -0.0734606 0.0
-0.0339561 -0.0876764 0.0