# vtk DataFile Version 3.0
Malha 2D com triângulos e temperatura
ASCII
DATASET UNSTRUCTURED_GRID

POINTS 961 double
0 0 0
1 0 0
1 1 0
0 1 0
0.0333333 0 0
0.0666667 0 0
0.1 0 0
0.133333 0 0
0.166667 0 0
0.2 0 0
0.233333 0 0
0.266667 0 0
0.3 0 0
0.333333 0 0
0.366667 0 0
0.4 0 0
0.433333 0 0
0.466667 0 0
0.5 0 0
0.533333 0 0
0.566667 0 0
0.6 0 0
0.633333 0 0
0.666667 0 0
0.7 0 0
0.733333 0 0
0.766667 0 0
0.8 0 0
0.833333 0 0
0.866667 0 0
0.9 0 0
0.933333 0 0
0.966667 0 0
1 0.0333333 0
1 0.0666667 0
1 0.1 0
1 0.133333 0
1 0.166667 0
1 0.2 0
1 0.233333 0
1 0.266667 0
1 0.3 0
1 0.333333 0
1 0.366667 0
1 0.4 0
1 0.433333 0
1 0.466667 0
1 0.5 0
1 0.533333 0
1 0.566667 0
1 0.6 0
1 0.633333 0
1 0.666667 0
1 0.7 0
1 0.733333 0
1 0.766667 0
1 0.8 0
1 0.833333 0
1 0.866667 0
1 0.9 0
1 0.933333 0
1 0.966667 0
0.966667 1 0
0.933333 1 0
0.9 1 0
0.866667 1 0
0.833333 1 0
0.8 1 0
0.766667 1 0
0.733333 1 0
0.7 1 0
0.666667 1 0
0.633333 1 0
0.6 1 0
0.566667 1 0
0.533333 1 0
0.5 1 0
0.466667 1 0
0.433333 1 0
0.4 1 0
0.366667 1 0
0.333333 1 0
0.3 1 0
0.266667 1 0
0.233333 1 0
0.2 1 0
0.166667 1 0
0.133333 1 0
0.1 1 0
0.0666667 1 0
0.0333333 1 0
0 0.966667 0
0 0.933333 0
0 0.9 0
0 0.866667 0
0 0.833333 0
0 0.8 0
0 0.766667 0
0 0.733333 0
0 0.7 0
0 0.666667 0
0 0.633333 0
0 0.6 0
0 0.566667 0
0 0.533333 0
0 0.5 0
0 0.466667 0
0 0.433333 0
0 0.4 0
0 0.366667 0
0 0.333333 0
0 0.3 0
0 0.266667 0
0 0.233333 0
0 0.2 0
0 0.166667 0
0 0.133333 0
0 0.1 0
0 0.0666667 0
0 0.0333333 0
0.0333333 0.0333333 0
0.0333333 0.0666667 0
0.0333333 0.1 0
0.0333333 0.133333 0
0.0333333 0.166667 0
0.0333333 0.2 0
0.0333333 0.233333 0
0.0333333 0.266667 0
0.0333333 0.3 0
0.0333333 0.333333 0
0.0333333 0.366667 0
0.0333333 0.4 0
0.0333333 0.433333 0
0.0333333 0.466667 0
0.0333333 0.5 0
0.0333333 0.533333 0
0.0333333 0.566667 0
0.0333333 0.6 0
0.0333333 0.633333 0
0.0333333 0.666667 0
0.0333333 0.7 0
0.0333333 0.733333 0
0.0333333 0.766667 0
0.0333333 0.8 0
0.0333333 0.833333 0
0.0333333 0.866667 0
0.0333333 0.9 0
0.0333333 0.933333 0
0.0333333 0.966667 0
0.0666667 0.0333333 0
0.0666667 0.0666667 0
0.0666667 0.1 0
0.0666667 0.133333 0
0.0666667 0.166667 0
0.0666667 0.2 0
0.0666667 0.233333 0
0.0666667 0.266667 0
0.0666667 0.3 0
0.0666667 0.333333 0
0.0666667 0.366667 0
0.0666667 0.4 0
0.0666667 0.433333 0
0.0666667 0.466667 0
0.0666667 0.5 0
0.0666667 0.533333 0
0.0666667 0.566667 0
0.0666667 0.6 0
0.0666667 0.633333 0
0.0666667 0.666667 0
0.0666667 0.7 0
0.0666667 0.733333 0
0.0666667 0.766667 0
0.0666667 0.8 0
0.0666667 0.833333 0
0.0666667 0.866667 0
0.0666667 0.9 0
0.0666667 0.933333 0
0.0666667 0.966667 0
0.1 0.0333333 0
0.1 0.0666667 0
0.1 0.1 0
0.1 0.133333 0
0.1 0.166667 0
0.1 0.2 0
0.1 0.233333 0
0.1 0.266667 0
0.1 0.3 0
0.1 0.333333 0
0.1 0.366667 0
0.1 0.4 0
0.1 0.433333 0
0.1 0.466667 0
0.1 0.5 0
0.1 0.533333 0
0.1 0.566667 0
0.1 0.6 0
0.1 0.633333 0
0.1 0.666667 0
0.1 0.7 0
0.1 0.733333 0
0.1 0.766667 0
0.1 0.8 0
0.1 0.833333 0
0.1 0.866667 0
0.1 0.9 0
0.1 0.933333 0
0.1 0.966667 0
0.133333 0.0333333 0
0.133333 0.0666667 0
0.133333 0.1 0
0.133333 0.133333 0
0.133333 0.166667 0
0.133333 0.2 0
0.133333 0.233333 0
0.133333 0.266667 0
0.133333 0.3 0
0.133333 0.333333 0
0.133333 0.366667 0
0.133333 0.4 0
0.133333 0.433333 0
0.133333 0.466667 0
0.133333 0.5 0
0.133333 0.533333 0
0.133333 0.566667 0
0.133333 0.6 0
0.133333 0.633333 0
0.133333 0.666667 0
0.133333 0.7 0
0.133333 0.733333 0
0.133333 0.766667 0
0.133333 0.8 0
0.133333 0.833333 0
0.133333 0.866667 0
0.133333 0.9 0
0.133333 0.933333 0
0.133333 0.966667 0
0.166667 0.0333333 0
0.166667 0.0666667 0
0.166667 0.1 0
0.166667 0.133333 0
0.166667 0.166667 0
0.166667 0.2 0
0.166667 0.233333 0
0.166667 0.266667 0
0.166667 0.3 0
0.166667 0.333333 0
0.166667 0.366667 0
0.166667 0.4 0
0.166667 0.433333 0
0.166667 0.466667 0
0.166667 0.5 0
0.166667 0.533333 0
0.166667 0.566667 0
0.166667 0.6 0
0.166667 0.633333 0
0.166667 0.666667 0
0.166667 0.7 0
0.166667 0.733333 0
0.166667 0.766667 0
0.166667 0.8 0
0.166667 0.833333 0
0.166667 0.866667 0
0.166667 0.9 0
0.166667 0.933333 0
0.166667 0.966667 0
0.2 0.0333333 0
0.2 0.0666667 0
0.2 0.1 0
0.2 0.133333 0
0.2 0.166667 0
0.2 0.2 0
0.2 0.233333 0
0.2 0.266667 0
0.2 0.3 0
0.2 0.333333 0
0.2 0.366667 0
0.2 0.4 0
0.2 0.433333 0
0.2 0.466667 0
0.2 0.5 0
0.2 0.533333 0
0.2 0.566667 0
0.2 0.6 0
0.2 0.633333 0
0.2 0.666667 0
0.2 0.7 0
0.2 0.733333 0
0.2 0.766667 0
0.2 0.8 0
0.2 0.833333 0
0.2 0.866667 0
0.2 0.9 0
0.2 0.933333 0
0.2 0.966667 0
0.233333 0.0333333 0
0.233333 0.0666667 0
0.233333 0.1 0
0.233333 0.133333 0
0.233333 0.166667 0
0.233333 0.2 0
0.233333 0.233333 0
0.233333 0.266667 0
0.233333 0.3 0
0.233333 0.333333 0
0.233333 0.366667 0
0.233333 0.4 0
0.233333 0.433333 0
0.233333 0.466667 0
0.233333 0.5 0
0.233333 0.533333 0
0.233333 0.566667 0
0.233333 0.6 0
0.233333 0.633333 0
0.233333 0.666667 0
0.233333 0.7 0
0.233333 0.733333 0
0.233333 0.766667 0
0.233333 0.8 0
0.233333 0.833333 0
0.233333 0.866667 0
0.233333 0.9 0
0.233333 0.933333 0
0.233333 0.966667 0
0.266667 0.0333333 0
0.266667 0.0666667 0
0.266667 0.1 0
0.266667 0.133333 0
0.266667 0.166667 0
0.266667 0.2 0
0.266667 0.233333 0
0.266667 0.266667 0
0.266667 0.3 0
0.266667 0.333333 0
0.266667 0.366667 0
0.266667 0.4 0
0.266667 0.433333 0
0.266667 0.466667 0
0.266667 0.5 0
0.266667 0.533333 0
0.266667 0.566667 0
0.266667 0.6 0
0.266667 0.633333 0
0.266667 0.666667 0
0.266667 0.7 0
0.266667 0.733333 0
0.266667 0.766667 0
0.266667 0.8 0
0.266667 0.833333 0
0.266667 0.866667 0
0.266667 0.9 0
0.266667 0.933333 0
0.266667 0.966667 0
0.3 0.0333333 0
0.3 0.0666667 0
0.3 0.1 0
0.3 0.133333 0
0.3 0.166667 0
0.3 0.2 0
0.3 0.233333 0
0.3 0.266667 0
0.3 0.3 0
0.3 0.333333 0
0.3 0.366667 0
0.3 0.4 0
0.3 0.433333 0
0.3 0.466667 0
0.3 0.5 0
0.3 0.533333 0
0.3 0.566667 0
0.3 0.6 0
0.3 0.633333 0
0.3 0.666667 0
0.3 0.7 0
0.3 0.733333 0
0.3 0.766667 0
0.3 0.8 0
0.3 0.833333 0
0.3 0.866667 0
0.3 0.9 0
0.3 0.933333 0
0.3 0.966667 0
0.333333 0.0333333 0
0.333333 0.0666667 0
0.333333 0.1 0
0.333333 0.133333 0
0.333333 0.166667 0
0.333333 0.2 0
0.333333 0.233333 0
0.333333 0.266667 0
0.333333 0.3 0
0.333333 0.333333 0
0.333333 0.366667 0
0.333333 0.4 0
0.333333 0.433333 0
0.333333 0.466667 0
0.333333 0.5 0
0.333333 0.533333 0
0.333333 0.566667 0
0.333333 0.6 0
0.333333 0.633333 0
0.333333 0.666667 0
0.333333 0.7 0
0.333333 0.733333 0
0.333333 0.766667 0
0.333333 0.8 0
0.333333 0.833333 0
0.333333 0.866667 0
0.333333 0.9 0
0.333333 0.933333 0
0.333333 0.966667 0
0.366667 0.0333333 0
0.366667 0.0666667 0
0.366667 0.1 0
0.366667 0.133333 0
0.366667 0.166667 0
0.366667 0.2 0
0.366667 0.233333 0
0.366667 0.266667 0
0.366667 0.3 0
0.366667 0.333333 0
0.366667 0.366667 0
0.366667 0.4 0
0.366667 0.433333 0
0.366667 0.466667 0
0.366667 0.5 0
0.366667 0.533333 0
0.366667 0.566667 0
0.366667 0.6 0
0.366667 0.633333 0
0.366667 0.666667 0
0.366667 0.7 0
0.366667 0.733333 0
0.366667 0.766667 0
0.366667 0.8 0
0.366667 0.833333 0
0.366667 0.866667 0
0.366667 0.9 0
0.366667 0.933333 0
0.366667 0.966667 0
0.4 0.0333333 0
0.4 0.0666667 0
0.4 0.1 0
0.4 0.133333 0
0.4 0.166667 0
0.4 0.2 0
0.4 0.233333 0
0.4 0.266667 0
0.4 0.3 0
0.4 0.333333 0
0.4 0.366667 0
0.4 0.4 0
0.4 0.433333 0
0.4 0.466667 0
0.4 0.5 0
0.4 0.533333 0
0.4 0.566667 0
0.4 0.6 0
0.4 0.633333 0
0.4 0.666667 0
0.4 0.7 0
0.4 0.733333 0
0.4 0.766667 0
0.4 0.8 0
0.4 0.833333 0
0.4 0.866667 0
0.4 0.9 0
0.4 0.933333 0
0.4 0.966667 0
0.433333 0.0333333 0
0.433333 0.0666667 0
0.433333 0.1 0
0.433333 0.133333 0
0.433333 0.166667 0
0.433333 0.2 0
0.433333 0.233333 0
0.433333 0.266667 0
0.433333 0.3 0
0.433333 0.333333 0
0.433333 0.366667 0
0.433333 0.4 0
0.433333 0.433333 0
0.433333 0.466667 0
0.433333 0.5 0
0.433333 0.533333 0
0.433333 0.566667 0
0.433333 0.6 0
0.433333 0.633333 0
0.433333 0.666667 0
0.433333 0.7 0
0.433333 0.733333 0
0.433333 0.766667 0
0.433333 0.8 0
0.433333 0.833333 0
0.433333 0.866667 0
0.433333 0.9 0
0.433333 0.933333 0
0.433333 0.966667 0
0.466667 0.0333333 0
0.466667 0.0666667 0
0.466667 0.1 0
0.466667 0.133333 0
0.466667 0.166667 0
0.466667 0.2 0
0.466667 0.233333 0
0.466667 0.266667 0
0.466667 0.3 0
0.466667 0.333333 0
0.466667 0.366667 0
0.466667 0.4 0
0.466667 0.433333 0
0.466667 0.466667 0
0.466667 0.5 0
0.466667 0.533333 0
0.466667 0.566667 0
0.466667 0.6 0
0.466667 0.633333 0
0.466667 0.666667 0
0.466667 0.7 0
0.466667 0.733333 0
0.466667 0.766667 0
0.466667 0.8 0
0.466667 0.833333 0
0.466667 0.866667 0
0.466667 0.9 0
0.466667 0.933333 0
0.466667 0.966667 0
0.5 0.0333333 0
0.5 0.0666667 0
0.5 0.1 0
0.5 0.133333 0
0.5 0.166667 0
0.5 0.2 0
0.5 0.233333 0
0.5 0.266667 0
0.5 0.3 0
0.5 0.333333 0
0.5 0.366667 0
0.5 0.4 0
0.5 0.433333 0
0.5 0.466667 0
0.5 0.5 0
0.5 0.533333 0
0.5 0.566667 0
0.5 0.6 0
0.5 0.633333 0
0.5 0.666667 0
0.5 0.7 0
0.5 0.733333 0
0.5 0.766667 0
0.5 0.8 0
0.5 0.833333 0
0.5 0.866667 0
0.5 0.9 0
0.5 0.933333 0
0.5 0.966667 0
0.533333 0.0333333 0
0.533333 0.0666667 0
0.533333 0.1 0
0.533333 0.133333 0
0.533333 0.166667 0
0.533333 0.2 0
0.533333 0.233333 0
0.533333 0.266667 0
0.533333 0.3 0
0.533333 0.333333 0
0.533333 0.366667 0
0.533333 0.4 0
0.533333 0.433333 0
0.533333 0.466667 0
0.533333 0.5 0
0.533333 0.533333 0
0.533333 0.566667 0
0.533333 0.6 0
0.533333 0.633333 0
0.533333 0.666667 0
0.533333 0.7 0
0.533333 0.733333 0
0.533333 0.766667 0
0.533333 0.8 0
0.533333 0.833333 0
0.533333 0.866667 0
0.533333 0.9 0
0.533333 0.933333 0
0.533333 0.966667 0
0.566667 0.0333333 0
0.566667 0.0666667 0
0.566667 0.1 0
0.566667 0.133333 0
0.566667 0.166667 0
0.566667 0.2 0
0.566667 0.233333 0
0.566667 0.266667 0
0.566667 0.3 0
0.566667 0.333333 0
0.566667 0.366667 0
0.566667 0.4 0
0.566667 0.433333 0
0.566667 0.466667 0
0.566667 0.5 0
0.566667 0.533333 0
0.566667 0.566667 0
0.566667 0.6 0
0.566667 0.633333 0
0.566667 0.666667 0
0.566667 0.7 0
0.566667 0.733333 0
0.566667 0.766667 0
0.566667 0.8 0
0.566667 0.833333 0
0.566667 0.866667 0
0.566667 0.9 0
0.566667 0.933333 0
0.566667 0.966667 0
0.6 0.0333333 0
0.6 0.0666667 0
0.6 0.1 0
0.6 0.133333 0
[...]
CELL_DATA 900
VECTORS velocity double
7.18759e-05 -7.07241e-05 0.0
-1.99748e-06 -2.68082e-05 0.0
-7.65715e-05 0.000308373 0.0
-0.00013683 0.000865421 0.0
-0.000175706 0.00161037 0.0
-0.000202035 0.00248816 0.0
-0.00022136 0.0034748 0.0
-0.000238613 0.00455547 0.0
-0.000256771 0.00573007 0.0
-0.000277874 0.0070067 0.0
-0.000303278 0.00840077 0.0
-0.000334108 0.0099333 0.0
-0.000371558 0.0116309 0.0
-0.000417209 0.0135264 0.0
-0.000473405 0.0156609 0.0
-0.000543769 0.018087 0.0
-0.000634027 0.0208733 0.0
-0.000753414 0.0241118 0.0
-0.000917316 0.0279282 0.0
-0.00115275 0.0324977 0.0
-0.00151 0.0380718 0.0
-0.00208885 0.0450242 0.0
-0.00309252 0.0539424 0.0
-0.00493973 0.0657802 0.0
-0.0084314 0.082231 0.0
-0.0149641 0.105836 0.0
-0.025717 0.14182 0.0
-0.0382136 0.188985 0.0
-0.0136067 0.262191 0.0
0.216702 0.173838 0.0
2.48224e-05 6.17802e-06 0.0
-0.000414356 0.000416654 0.0
-0.000849219 0.00142782 0.0
-0.00122351 0.00288116 0.0
-0.00151184 0.00474049 0.0
-0.00173954 0.00691428 0.0
-0.00193098 0.00936032 0.0
-0.00211048 0.0120516 0.0
-0.00229683 0.0149885 0.0
-0.00250488 0.0181896 0.0
-0.00274646 0.0216896 0.0
-0.00303224 0.0255371 0.0
-0.00337342 0.0297937 0.0
-0.00378362 0.0345356 0.0
-0.00428099 0.0398566 0.0
-0.00489068 0.0458736 0.0
-0.00564806 0.0527333 0.0
-0.00660309 0.0606222 0.0
-0.00782666 0.0697764 0.0
-0.00942097 0.0804935 0.0
-0.0115377 0.0931409 0.0
-0.0144127 0.108157 0.0
-0.0184222 0.126029 0.0
-0.0241762 0.1472 0.0
-0.0325269 0.17185 0.0
-0.044406 0.199045 0.0
-0.058374 0.225592 0.0
-0.0651919 0.239949 0.0
-0.00334049 0.218173 0.0
0.30475 0.116273 0.0
-0.000313516 8.02815e-05 0.0
-0.0014222 0.000831541 0.0
-0.0024728 0.00242349 0.0
-0.00337957 0.00457733 0.0
-0.00411112 0.0072613 0.0
-0.00471166 0.0103639 0.0
-0.00523323 0.0138388 0.0
-0.00572903 0.0176559 0.0
-0.00624363 0.0218186 0.0
-0.00681348 0.0263522 0.0
-0.00746869 0.0313025 0.0
-0.00823644 0.0367318 0.0
-0.00914473 0.0427183 0.0
-0.0102263 0.0493565 0.0
-0.0115225 0.0567592 0.0
-0.0130882 0.0650612 0.0
-0.0149956 0.074423 0.0
-0.0173396 0.0850345 0.0
-0.0202413 0.0971142 0.0
-0.0238521 0.110902 0.0
-0.0283545 0.126632 0.0
-0.0339601 0.144484 0.0
-0.0408812 0.16446 0.0
-0.0492436 0.186179 0.0
-0.0586797 0.208398 0.0
-0.0673203 0.228304 0.0
-0.0677568 0.239322 0.0
-0.0384628 0.230978 0.0
0.0915061 0.17355 0.0
0.475687 0.076957 0.0
-0.000855625 0.000135852 0.0
-0.00282311 0.00115186 0.0
-0.00459653 0.0031822 0.0
-0.00610373 0.00583432 0.0
-0.00733687 0.00907909 0.0
-0.00836694 0.0127917 0.0
-0.00927714 0.0169282 0.0
-0.0101508 0.0214596 0.0
-0.0110591 0.0263927 0.0
-0.0120611 0.0317565 0.0
-0.0132056 0.0376009 0.0
-0.0145362 0.0439924 0.0
-0.0160966 0.0510118 0.0
-0.0179354 0.0587539 0.0
-0.0201119 0.067327 0.0
-0.0226996 0.0768533 0.0
-0.0257901 0.0874676 0.0
-0.029493 0.0993124 0.0
-0.0339309 0.112525 0.0
-0.0392258 0.127212 0.0
-0.0454697 0.143393 0.0
-0.0526704 0.160919 0.0
-0.0606345 0.179293 0.0
-0.068732 0.197446 0.0
-0.0752547 0.213206 0.0
-0.0760041 0.222939 0.0
-0.0600526 0.219615 0.0
-0.000365576 0.195146 0.0
0.167913 0.129393 0.0
0.574703 0.0491551 0.0
-0.00154676 0.000164505 0.0
-0.00453042 0.00134321 0.0
-0.00711507 0.0036496 0.0
-0.00927458 0.00660553 0.0
-0.0110484 0.0101793 0.0
-0.0125438 0.0142352 0.0
-0.0138795 0.0187318 0.0
-0.0151704 0.023642 0.0
-0.0165146 0.0289752 0.0
-0.0179933 0.0347616 0.0
-0.0196731 0.0410511 0.0
-0.0216123 0.0479074 0.0
-0.023867 0.0554057 0.0
-0.026497 0.0636301 0.0
-0.0295712 0.0726714 0.0
-0.0331703 0.0826238 0.0
-0.0373866 0.0935791 0.0
-0.0423171 0.105615 0.0
-0.0480457 0.118776 0.0
-0.0546085 0.133032 0.0
-0.0619295 0.148218 0.0
-0.0697127 0.163934 0.0
-0.077246 0.17937 0.0
-0.083048 0.193118 0.0
-0.0840805 0.202684 0.0
-0.0741691 0.204472 0.0
-0.039905 0.192154 0.0
0.0472657 0.160251 0.0
0.2422 0.0963469 0.0
0.646996 0.0309219 0.0
-0.00230728 0.000175547 0.0
-0.00639217 0.00142982 0.0
-0.00982699 0.00386473 0.0
-0.0126512 0.00695302 0.0
-0.0149677 0.0106586 0.0
-0.0169284 0.0148388 0.0
-0.0186914 0.0194541 0.0
-0.0204034 0.0244793 0.0
-0.0221886 0.0299253 0.0
-0.024148 0.035822 0.0
-0.0263635 0.0422167 0.0
-0.0289044 0.0491674 0.0
-0.0318345 0.0567397 0.0
-0.0352184 0.065003 0.0
-0.0391253 0.074026 0.0
-0.0436302 0.0838715 0.0
-0.0488086 0.0945869 0.0
-0.0547219 0.106189 0.0
-0.061386 0.118639 0.0
-0.0687154 0.1318 0.0
-0.0764288 0.145371 0.0
-0.0838975 0.158798 0.0
-0.0898947 0.171105 0.0
-0.0921738 0.180777 0.0
-0.0866366 0.185324 0.0
-0.0657764 0.181608 0.0
-0.0149849 0.164164 0.0
0.0931484 0.130423 0.0
0.304951 0.0727181 0.0
0.69849 0.0197059 0.0
-0.00308974 0.00017463 0.0
-0.00830634 0.00143508 0.0
-0.0125984 0.00387636 0.0
-0.0160804 0.0069553 0.0
-0.0189265 0.0106322 0.0
-0.0213385 0.0147624 0.0
-0.0235163 0.0193085 0.0
-0.0256383 0.0242468 0.0
-0.0278534 0.0295893 0.0
-0.0302805 0.0353651 0.0
-0.0330138 0.0416178 0.0
-0.0361301 0.0483991 0.0
-0.0396967 0.0557645 0.0
-0.0437767 0.0637685 0.0
-0.0484323 0.0724594 0.0
-0.0537229 0.0818716 0.0
-0.0596947 0.0920149 0.0
-0.0663583 0.102857 0.0
-0.0736444 0.114297 0.0
-0.0813294 0.126124 0.0
-0.088915 0.137953 0.0
-0.0954438 0.149147 0.0
-0.0992136 0.158677 0.0
-0.0973205 0.165047 0.0
-0.0848506 0.165929 0.0
-0.0533789 0.158761 0.0
0.0120849 0.138849 0.0
0.136141 0.106179 0.0
0.35815 0.0555343 0.0
0.736115 0.012733 0.0
-0.00385509 0.000166782 0.0
-0.0101838 0.00138248 0.0
-0.0153089 0.00373541 0.0
-0.0194219 0.00669318 0.0
-0.0227701 0.0102148 0.0
-0.0256075 0.0141592 0.0
-0.0281761 0.0184918 0.0
-0.0306857 0.0231913 0.0
-0.0333081 0.0282708 0.0
-0.036178 0.0337584 0.0
-0.0393992 0.0396948 0.0
-0.043053 0.046126 0.0
-0.0472062 0.0530989 0.0
-0.0519159 0.0606561 0.0
-0.0572316 0.0688293 0.0
-0.0631896 0.0776314 0.0
-0.0697989 0.0870441 0.0
-0.07701 0.0970003 0.0
-0.08466 0.107357 0.0
-0.092382 0.117855 0.0
-0.099465 0.128066 0.0
-0.104646 0.137319 0.0
-0.105806 0.14459 0.0
-0.0995045 0.148469 0.0
-0.0802437 0.146874 0.0
-0.0390845 0.137703 0.0
0.038474 0.1174 0.0
0.174714 0.086906 0.0
0.402629 0.0430438 0.0
0.764152 0.00840105 0.0
-0.00457856 0.000154677 0.0
-0.0119618 0.0012885 0.0
-0.0178711 0.0034813 0.0
-0.0225734 0.00623144 0.0
-0.0263867 0.00949931 0.0
-0.0296168 0.0131528 0.0
-0.032547 0.0171615 0.0
-0.0354169 0.0215078 0.0
-0.0384197 0.0262064 0.0
-0.0417038 0.0312852 0.0
-0.0453805 0.0367829 0.0
-0.0495334 0.0427417 0.0
-0.0542259 0.0492028 0.0
-0.0595061 0.0562005 0.0
-0.0654067 0.0637558 0.0
-0.0719369 0.0718677 0.0
-0.079063 0.0805 0.0
-0.0866707 0.0895636 0.0
-0.0944999 0.0988899 0.0
-0.102041 0.108195 0.0
-0.108382 0.117026 0.0
-0.11198 0.12471 0.0
-0.110363 0.130259 0.0
-0.0996658 0.132374 0.0
-0.0739892 0.129241 0.0
-0.024195 0.11914 0.0
0.0634969 0.0994655 0.0
0.209029 0.0715666 0.0
0.439849 0.0338244 0.0
0.785488 0.00567429 0.0
-0.00524178 0.000139832 0.0
-0.0135921 0.00116434 0.0
-0.0202165 0.00314237 0.0
-0.0254532 0.00561785 0.0
-0.0296864 0.00855497 0.0
-0.0332715 0.0118354 0.0
-0.0365303 0.0154345 0.0
-0.0397308 0.0193399 0.0
-0.0430854 0.0235684 0.0
-0.0467545 0.0281492 0.0
-0.0508557 0.0331203 0.0
-0.055473 0.0385226 0.0
-0.0606652 0.0443946 0.0
-0.0664694 0.0507672 0.0
-0.0728994 0.0576567 0.0
-0.0799347 0.0650556 0.0
-0.0874963 0.0729196 0.0
-0.0954023 0.0811491 0.0
-0.103294 0.0895626 0.0
-0.110523 0.0978633 0.0
-0.115986 0.105592 0.0
-0.117893 0.112082 0.0
-0.113472 0.116397 0.0
-0.0985353 0.117341 0.0
-0.0669318 0.113362 0.0
-0.00953066 0.103025 0.0
0.0865994 0.0844975 0.0
0.239237 0.0593118 0.0
0.471011 0.0269293 0.0
0.802023 0.00393309 0.0
-0.00583141 0.000122858 0.0
-0.0150383 0.00101666 0.0
-0.0222924 0.00273703 0.0
-0.0279979 0.00488469 0.0
-0.0325994 0.00742962 0.0
-0.0364978 0.0102713 0.0
-0.0400504 0.0133923 0.0
-0.0435506 0.0167867 0.0
-0.0472286 0.020475 0.0
-0.0512553 0.0244882 0.0
-0.0557535 0.0288659 0.0
-0.0608073 0.0336496 0.0
-0.0664702 0.0388791 0.0
-0.072768 0.0445862 0.0
-0.0796951 0.0507888 0.0
-0.0872001 0.0574807 0.0
-0.0951572 0.0646181 0.0
-0.103315 0.0721006 0.0
-0.111217 0.0797442 0.0
-0.118075 0.0872477 0.0
-0.122605 0.0941511 0.0
-0.122797 0.0997989 0.0
-0.115624 0.103298 0.0
-0.0966618 0.103543 0.0
-0.0596123 0.0992102 0.0
0.00451835 0.0890629 0.0
0.107636 0.0719955 0.0
0.265704 0.0494529 0.0
0.497174 0.0216965 0.0
0.815056 0.00280079 0.0
-0.00633638 0.000103945 0.0
-0.0162709 0.000849345 0.0
-0.0240564 0.00227694 0.0
-0.0301562 0.00405324 0.0
-0.0350688 0.00615548 0.0
-0.0392353 0.00850407 0.0
-0.0430448 0.0110901 0.0
-0.0468133 0.0139154 0.0
-0.0507864 0.0170046 0.0
-0.0551451 0.0203921 0.0
-0.0600167 0.0241203 0.0
-0.0654859 0.028234 0.0
-0.0716016 0.0327775 0.0
-0.0783791 0.0377885 0.0
-0.0857941 0.0432923 0.0
-0.0937646 0.0492913 0.0
-0.102117 0.0557511 0.0
-0.11053 0.0625792 0.0
-0.118444 0.0695971 0.0
-0.124935 0.0765056 0.0
-0.128543 0.082846 0.0
-0.12705 0.0879696 0.0
-0.117221 0.091016 0.0
-0.0944629 0.0909522 0.0
-0.0524251 0.0866265 0.0
0.0175773 0.0770498 0.0
0.126581 0.0615266 0.0
0.288819 0.0414704 0.0
0.519209 0.0176708 0.0
0.825483 0.00205009 0.0
-0.00674707 8.30798e-05 0.0
-0.0172653 0.00066464 0.0
-0.0254728 0.00176963 0.0
-0.0318851 0.00313788 0.0
-0.0370467 0.00475483 0.0
-0.0414333 0.00656422 0.0
-0.0454608 0.00856645 0.0
-0.0494648 0.0107718 0.0
-0.0537047 0.0132097 0.0
-0.0583705 0.0159188 0.0
-0.0635949 0.0189453 0.0
-0.069464 0.0223398 0.0
-0.0760243 0.026154 0.0
-0.0832826 0.0304361 0.0
-0.091198 0.0352247 0.0
-0.0996593 0.0405383 0.0
-0.108446 0.0463601 0.0
-0.117164 0.0526148 0.0
-0.125146 0.0591367 0.0
-0.131329 0.065634 0.0
-0.134075 0.0716496 0.0
-0.130975 0.0765358 0.0
-0.118612 0.079449 0.0
-0.0922836 0.0794098 0.0
-0.0456799 0.0753915 0.0
0.0295102 0.0666252 0.0
0.143522 0.0526625 0.0
0.308973 0.0349237 0.0
0.537831 0.0145163 0.0
0.833936 0.00153873 0.0
-0.00705457 6.02089e-05 0.0
-0.0179996 0.000464144 0.0
-0.0265112 0.00122074 0.0
-0.033148 0.00214961 0.0
-0.0384922 0.00324491 0.0
-0.0430475 0.00447535 0.0
-0.0472516 0.00585093 0.0
-0.0514562 0.00739064 0.0
-0.0559327 0.0091287 0.0
-0.0608801 0.0111081 0.0
-0.0664372 0.0133801 0.0
-0.072694 0.0160023 0.0
-0.0796974 0.0190367 0.0
-0.0874497 0.0225459 0.0
-0.0958966 0.0265878 0.0
-0.104901 0.0312038 0.0
-0.114195 0.036404 0.0
-0.123309 0.0421396 0.0
-0.131467 0.0482659 0.0
-0.137453 0.0545045 0.0
-0.13945 0.0604015 0.0
-0.134857 0.0653037 0.0
-0.1201 0.0683681 0.0
-0.0904149 0.0686427 0.0
-0.039608 0.0651882 0.0
0.0402208 0.0573953 0.0
0.15854 0.0450068 0.0
0.326488 0.029438 0.0
0.553592 0.0119773 0.0
0.840851 0.00117497 0.0
-0.00725078 3.53234e-05 0.0
-0.0184551 0.000249421 0.0
-0.0271456 0.000635577 0.0
-0.0339138 0.0010987 0.0
-0.0393704 0.00164174 0.0
-0.0440396 0.00225925 0.0
-0.0483755 0.00297051 0.0
-0.0527423 0.00380282 0.0
-0.0574217 0.0047946 0.0
-0.0626214 0.00599283 0.0
-0.0684885 0.00745369 0.0
-0.0751198 0.0092426 0.0
-0.0825671 0.0114338 0.0
-0.090833 0.014108 0.0
-0.0998554 0.0173471 0.0
-0.109475 0.0212226 0.0
-0.119384 0.0257809 0.0
-0.129028 0.0310094 0.0
-0.137515 0.0367944 0.0
-0.14347 0.04288 0.0
-0.144881 0.04882 0.0
-0.138949 0.0539526 0.0
-0.121955 0.0574209 0.0
-0.0891117 0.058272 0.0
-0.0344014 0.0556165 0.0
0.0496219 0.0489502 0.0
0.171692 0.0381738 0.0
0.341614 0.0246781 0.0
0.566901 0.00984627 0.0
0.846522 0.000896301 0.0
-0.007328 8.43317e-06 0.0
-0.0186151 2.23112e-05 0.0
-0.0273535 2.01709e-05 0.0
-0.0341563 -3.46983e-06 0.0
-0.0396514 -3.72399e-05 0.0
-0.044376 -6.04753e-05 0.0
-0.0487943 -4.55113e-05 0.0
-0.0532794 4.20682e-05 0.0
-0.0581217 0.000243424 0.0
-0.0635381 0.000608196 0.0
-0.069686 0.00119651 0.0
-0.0766734 0.00208128 0.0
-0.0845626 0.00334964 0.0
-0.0933634 0.00510231 0.0
-0.103013 0.00744953 0.0
-0.113336 0.0104987 0.0
-0.123983 0.0143434 0.0
-0.134325 0.0190179 0.0
-0.143341 0.0244497 0.0
-0.149485 0.0304191 0.0
-0.15053 0.0364987 0.0
-0.143466 0.0420219 0.0
-0.124424 0.046111 0.0
-0.0886172 0.0477865 0.0
-0.0302567 0.046173 0.0
0.0576058 0.0408147 0.0
0.182985 0.0317446 0.0
0.354501 0.0203092 0.0
0.578023 0.00793533 0.0
0.851127 0.000655177 0.0
-0.00728027 -2.01693e-05 0.0
-0.0184677 -0.000214571 0.0
-0.0271193 -0.000618055 0.0
-0.0338563 -0.00114305 0.0
-0.0393132 -0.00177049 0.0
-0.0440309 -0.00245438 0.0
-0.0484775 -0.00316041 0.0
-0.0530305 -0.0038491 0.0
-0.0579869 -0.00447892 0.0
-0.0635732 -0.00499995 0.0
-0.0699599 -0.00535048 0.0
-0.0772708 -0.00545198 0.0
-0.0855856 -0.00520529 0.0
-0.0949299 -0.00448875 0.0
-0.10525 -0.00316023 0.0
-0.116367 -0.00106889 0.0
-0.127908 0.00192802 0.0
-0.139141 0.00591548 0.0
-0.148924 0.0108865 0.0
-0.155527 0.0166778 0.0
-0.156492 0.0228979 0.0
-0.148572 0.0288898 0.0
-0.127727 0.033762 0.0
-0.0891778 0.036494 0.0
-0.0274 0.036193 0.0
0.0640059 0.0323898 0.0
0.192335 0.0252192 0.0
0.365175 0.0159594 0.0
0.587063 0.00605171 0.0
0.854731 0.000409487 0.0
-0.00710248 -5.00682e-05 0.0
-0.0180032 -0.000457609 0.0
-0.0264313 -0.00126903 0.0
-0.0330013 -0.00230165 0.0
-0.038341 -0.00352983 0.0
-0.0429855 -0.0048841 0.0
-0.0473995 -0.00632607 0.0
-0.0519605 -0.00781401 0.0
-0.0569704 -0.00930909 0.0
-0.0626659 -0.0107647 0.0
-0.0692331 -0.0121212 0.0
-0.0768174 -0.0132983 0.0
-0.0855244 -0.0141882 0.0
-0.0954065 -0.0146505 0.0
-0.106431 -0.0145122 0.0
-0.118421 -0.0135759 0.0
-0.130964 -0.0116498 0.0
-0.143284 -0.00857556 0.0
-0.154108 -0.00428321 0.0
-0.161511 0.00113727 0.0
-0.162755 0.00735034 0.0
-0.154337 0.0137568 0.0
-0.132033 0.0194867 0.0
-0.0910521 0.0234761 0.0
-0.0261307 0.0247927 0.0
0.0685418 0.0228869 0.0
0.199518 0.0179551 0.0
0.373487 0.0111739 0.0
0.593942 0.00397543 0.0
0.857283 0.00011656 0.0
-0.00679232 -8.07903e-05 0.0
-0.017219 -0.000701764 0.0
-0.0252881 -0.0019187 0.0
-0.0315903 -0.00345427 0.0
-0.0367324 -0.00527784 0.0
-0.0412336 -0.00729906 0.0
-0.0455474 -0.00947829 0.0
-0.0500467 -0.011775 0.0
-0.0550354 -0.0141571 0.0
-0.0607602 -0.0165859 0.0
-0.0674253 -0.0190095 0.0
-0.0752028 -0.0213523 0.0
-0.0842324 -0.0235049 0.0
-0.0946053 -0.0253157 0.0
-0.106324 -0.0265866 0.0
-0.119232 -0.0270784 0.0
-0.132907 -0.0265338 0.0
-0.14651 -0.0247134 0.0
-0.15864 -0.0214576 0.0
-0.167165 -0.0167737 0.0
-0.169126 -0.0108923 0.0
-0.160741 -0.00432167 0.0
-0.137464 0.00216095 0.0
-0.0944728 0.0075233 0.0
-0.0267689 0.0108001 0.0
0.0708359 0.0112805 0.0
0.204114 0.00913283 0.0
0.379034 0.00538032 0.0
0.598334 0.00143353 0.0
0.858608 -0.000275226 0.0
-0.00635034 -0.000111498 0.0
-0.0161202 -0.00093999 0.0
-0.0236984 -0.0025483 0.0
-0.0296348 -0.00456809 0.0
-0.034499 -0.00696555 0.0
-0.0387838 -0.00963283 0.0
-0.0429236 -0.0125322 0.0
-0.047281 -0.0156281 0.0
-0.0521589 -0.0188995 0.0
-0.0578124 -0.0223214 0.0
-0.0644652 -0.025857 0.0
-0.07232 -0.0294442 0.0
-0.0815583 -0.0329833 0.0
-0.0923216 -0.0363236 0.0
-0.104664 -0.0392545 0.0
-0.118471 -0.0415048 0.0
-0.13333 -0.0427593 0.0
-0.148364 -0.0426942 0.0
-0.162058 -0.0410386 0.0
-0.172086 -0.037661 0.0
-0.175225 -0.0326429 0.0
-0.167407 -0.0263496 0.0
-0.143906 -0.0194155 0.0
-0.0997157 -0.0127161 0.0
-0.0298923 -0.00722083 0.0
0.0701944 -0.00379356 0.0
0.205449 -0.00237248 0.0
0.381193 -0.00214835 0.0
0.599663 -0.00184039 0.0
0.858334 -0.000785143 0.0
-0.00578154 -0.000141048 0.0
-0.0147222 -0.00116302 0.0
-0.021686 -0.00313354 0.0
-0.0271634 -0.00560083 0.0
-0.0316715 -0.00853 0.0
-0.0356655 -0.0117998 0.0
-0.0395525 -0.0153772 0.0
-0.0436788 -0.0192354 0.0
-0.0483416 -0.0233689 0.0
-0.0538017 -0.0277724 0.0
-0.0603011 -0.0324325 0.0
-0.0680746 -0.0373123 0.0
-0.0773505 -0.0423366 0.0
-0.0883309 -0.0473744 0.0
-0.101139 -0.0522238 0.0
-0.115723 -0.0566033 0.0
-0.131714 -0.0601583 0.0
-0.14823 -0.0624887 0.0
-0.163676 -0.0632023 0.0
-0.17557 -0.0619918 0.0
-0.180453 -0.058713 0.0
-0.173972 -0.0534575 0.0
-0.151113 -0.0465918 0.0
-0.106666 -0.0387607 0.0
-0.035671 -0.0308291 0.0
0.066016 -0.0237214 0.0
0.202449 -0.0176616 0.0
0.378605 -0.0121511 0.0
0.596761 -0.00618358 0.0
0.855991 -0.00147025 0.0
-0.00509659 -0.000167861 0.0
-0.013054 -0.00135881 0.0
-0.0192928 -0.00364336 0.0
-0.0242266 -0.00649906 0.0
-0.0283049 -0.00989195 0.0
-0.0319352 -0.0136919 0.0
-0.0354887 -0.0178732 0.0
-0.039289 -0.0224205 0.0
-0.0436217 -0.0273473 0.0
-0.0487482 -0.0326736 0.0
-0.0549243 -0.0384179 0.0
-0.0624143 -0.0445813 0.0
-0.0714938 -0.0511313 0.0
-0.082431 -0.0579812 0.0
-0.0954312 -0.0649682 0.0
-0.110532 -0.0718353 0.0
-0.12744 -0.0782232 0.0
-0.145318 -0.0836813 0.0
-0.162557 -0.0877016 0.0
-0.176584 -0.0897757 0.0
-0.183776 -0.0894622 0.0
-0.179547 -0.0864549 0.0
-0.15861 -0.0806579 0.0
-0.11545 -0.0722375 0.0
-0.0448643 -0.0617596 0.0
0.0571362 -0.0500526 0.0
0.193807 -0.0379976 0.0
0.36994 -0.0255685 0.0
0.588421 -0.0121216 0.0
0.850869 -0.00246045 0.0
-0.0043134 -0.000189824 0.0
-0.0111611 -0.00151212 0.0
-0.016583 -0.00403922 0.0
-0.0209013 -0.00719709 0.0
-0.0244841 -0.0109547 0.0
-0.0276826 -0.0151777 0.0
-0.0308248 -0.0198487 0.0
-0.0342044 -0.0249654 0.0
-0.0380883 -0.0305621 0.0
-0.0427306 -0.0366876 0.0
-0.0483926 -0.0433992 0.0
-0.0553596 -0.0507479 0.0
-0.0639482 -0.0587632 0.0
-0.0744903 -0.0674305 0.0
-0.0872795 -0.0766654 0.0
-0.102462 -0.086283 0.0
-0.119861 -0.0959729 0.0
-0.138745 -0.105283 0.0
-0.157579 -0.113621 0.0
-0.173813 -0.120278 0.0
-0.183785 -0.12446 0.0
-0.182794 -0.125345 0.0
-0.165345 -0.122172 0.0
-0.125576 -0.114335 0.0
-0.0578155 -0.101776 0.0
0.042371 -0.0848167 0.0
0.177799 -0.065295 0.0
0.353149 -0.0439075 0.0
0.572681 -0.0204738 0.0
0.841822 -0.00395066 0.0
-0.00345971 -0.000203996 0.0
-0.00911042 -0.00160391 0.0
-0.0136492 -0.00427463 0.0
-0.017297 -0.00761715 0.0
-0.0203309 -0.0116046 0.0
-0.02304 -0.0161033 0.0
-0.0257028 -0.0211032 0.0
-0.0285764 -0.0266141 0.0
-0.0319005 -0.0326901 0.0
-0.035912 -0.0394092 0.0
-0.0408649 -0.0468702 0.0
-0.0470509 -0.055182 0.0
-0.0548113 -0.0644514 0.0
-0.064528 -0.0747638 0.0
-0.0765766 -0.0861542 0.0
-0.0912207 -0.0985686 0.0
-0.108435 -0.111817 0.0
-0.127665 -0.125525 0.0
-0.14756 -0.139088 0.0
-0.165747 -0.151639 0.0
-0.178715 -0.162032 0.0
-0.181847 -0.16886 0.0
-0.169609 -0.170526 0.0
-0.135852 -0.165379 0.0
-0.0742887 -0.152284 0.0
0.0209514 -0.13034 0.0
0.152759 -0.102015 0.0
0.325854 -0.0693701 0.0
0.546978 -0.0326308 0.0
0.827177 -0.00634093 0.0
-0.00257376 -0.000206627 0.0
-0.00699094 -0.00161213 0.0
-0.0106125 -0.00429744 0.0
-0.0135556 -0.00767345 0.0
-0.0160037 -0.0117176 0.0
-0.0181816 -0.0163007 0.0
-0.0203143 -0.0214172 0.0
-0.0226166 -0.0270855 0.0
-0.0252924 -0.0333748 0.0
-0.0285494 -0.0403872 0.0
-0.0326185 -0.0482597 0.0
-0.0377765 -0.0571586 0.0
-0.0443635 -0.0672741 0.0
-0.0527831 -0.0788084 0.0
-0.0634681 -0.0919508 0.0
-0.0767892 -0.106836 0.0
-0.0928911 -0.123478 0.0
-0.111459 -0.141689 0.0
-0.13145 -0.160971 0.0
-0.150854 -0.180419 0.0
-0.166551 -0.198624 0.0
-0.17429 -0.213629 0.0
-0.168784 -0.22295 0.0
-0.143846 -0.22372 0.0
-0.092639 -0.21313 0.0
-0.00770127 -0.189052 0.0
0.116424 -0.151298 0.0
0.28461 -0.105343 0.0
0.507228 -0.0512188 0.0
0.803791 -0.0105712 0.0
-0.00171045 -0.000192282 0.0
-0.0049224 -0.00151155 0.0
-0.00763261 -0.00405318 0.0
-0.00986401 -0.00727927 0.0
-0.0117126 -0.0111698 0.0
-0.0133419 -0.0156024 0.0
-0.0149228 -0.0205712 0.0
-0.0166231 -0.0260971 0.0
-0.0186043 -0.0322555 0.0
-0.0210332 -0.0391628 0.0
-0.0241008 -0.0469817 0.0
-0.028045 -0.0559229 0.0
-0.0331715 -0.0662488 0.0
-0.0398631 -0.0782739 0.0
-0.0485629 -0.0923518 0.0
-0.0597089 -0.108842 0.0
-0.0736002 -0.128038 0.0
-0.0901943 -0.150059 0.0
-0.108857 -0.174688 0.0
-0.128126 -0.201189 0.0
-0.145538 -0.228124 0.0
-0.157546 -0.253197 0.0
-0.159504 -0.273187 0.0
-0.145608 -0.284012 0.0
-0.108793 -0.280937 0.0
-0.0403666 -0.259807 0.0
0.0692995 -0.216206 0.0
0.22756 -0.156377 0.0
0.44948 -0.080887 0.0
0.767156 -0.0186589 0.0
-0.000932647 -0.000155897 0.0
-0.00303614 -0.00128244 0.0
-0.00488111 -0.0035017 0.0
-0.00642027 -0.00637019 0.0
-0.00768044 -0.00986604 0.0
-0.00877161 -0.013875 0.0
-0.00981284 -0.0183848 0.0
-0.0109234 -0.023412 0.0
-0.0122172 -0.0290271 0.0
-0.0138123 -0.0353456 0.0
-0.0158459 -0.0425353 0.0
-0.0184945 -0.0508239 0.0
-0.0219943 -0.0605126 0.0
-0.0266575 -0.0719892 0.0
-0.0328713 -0.0857362 0.0
-0.041065 -0.102317 0.0
-0.0516248 -0.122324 0.0