# vtk DataFile Version 3.0
Malha 2D com triângulos e temperatura
ASCII
DATASET UNSTRUCTURED_GRID

POINTS 961 double
0 0 0
1 0 0
1 1 0
0 1 0
0.0333333 0 0
0.0666667 0 0
0.1 0 0
0.133333 0 0
0.166667 0 0
0.2 0 0
0.233333 0 0
0.266667 0 0
0.3 0 0
0.333333 0 0
0.366667 0 0
0.4 0 0
0.433333 0 0
0.466667 0 0
0.5 0 0
0.533333 0 0
0.566667 0 0
0.6 0 0
0.633333 0 0
0.666667 0 0
0.7 0 0
0.733333 0 0
0.766667 0 0
0.8 0 0
0.833333 0 0
0.866667 0 0
0.9 0 0
0.933333 0 0
0.966667 0 0
1 0.0333333 0
1 0.0666667 0
1 0.1 0
1 0.133333 0
1 0.166667 0
1 0.2 0
1 0.233333 0
1 0.266667 0
1 0.3 0
1 0.333333 0
1 0.366667 0
1 0.4 0
1 0.433333 0
1 0.466667 0
1 0.5 0
1 0.533333 0
1 0.566667 0
1 0.6 0
1 0.633333 0
1 0.666667 0
1 0.7 0
1 0.733333 0
1 0.766667 0
1 0.8 0
1 0.833333 0
1 0.866667 0
1 0.9 0
1 0.933333 0
1 0.966667 0
0.966667 1 0
0.933333 1 0
0.9 1 0
0.866667 1 0
0.833333 1 0
0.8 1 0
0.766667 1 0
0.733333 1 0
0.7 1 0
0.666667 1 0
0.633333 1 0
0.6 1 0
0.566667 1 0
0.533333 1 0
0.5 1 0
0.466667 1 0
0.433333 1 0
0.4 1 0
0.366667 1 0
0.333333 1 0
0.3 1 0
0.266667 1 0
0.233333 1 0
0.2 1 0
0.166667 1 0
0.133333 1 0
0.1 1 0
0.0666667 1 0
0.0333333 1 0
0 0.966667 0
0 0.933333 0
0 0.9 0
0 0.866667 0
0 0.833333 0
0 0.8 0
0 0.766667 0
0 0.733333 0
0 0.7 0
0 0.666667 0
0 0.633333 0
0 0.6 0
0 0.566667 0
0 0.533333 0
0 0.5 0
0 0.466667 0
0 0.433333 0
0 0.4 0
0 0.366667 0
0 0.333333 0
0 0.3 0
0 0.266667 0
0 0.233333 0
0 0.2 0
0 0.166667 0
0 0.133333 0
0 0.1 0
0 0.0666667 0
0 0.0333333 0
0.0333333 0.0333333 0
0.0333333 0.0666667 0
0.0333333 0.1 0
0.0333333 0.133333 0
0.0333333 0.166667 0
0.0333333 0.2 0
0.0333333 0.233333 0
0.0333333 0.266667 0
0.0333333 0.3 0
0.0333333 0.333333 0
0.0333333 0.366667 0
0.0333333 0.4 0
0.0333333 0.433333 0
0.0333333 0.466667 0
0.0333333 0.5 0
0.0333333 0.533333 0
0.0333333 0.566667 0
0.0333333 0.6 0
0.0333333 0.633333 0
0.0333333 0.666667 0
0.0333333 0.7 0
0.0333333 0.733333 0
0.0333333 0.766667 0
0.0333333 0.8 0
0.0333333 0.833333 0
0.0333333 0.866667 0
0.0333333 0.9 0
0.0333333 0.933333 0
0.0333333 0.966667 0
0.0666667 0.0333333 0
0.0666667 0.0666667 0
0.0666667 0.1 0
0.0666667 0.133333 0
0.0666667 0.166667 0
0.0666667 0.2 0
0.0666667 0.233333 0
0.0666667 0.266667 0
0.0666667 0.3 0
0.0666667 0.333333 0
0.0666667 0.366667 0
0.0666667 0.4 0
0.0666667 0.433333 0
0.0666667 0.466667 0
0.0666667 0.5 0
0.0666667 0.533333 0
0.0666667 0.566667 0
0.0666667 0.6 0
0.0666667 0.633333 0
0.0666667 0.666667 0
0.0666667 0.7 0
0.0666667 0.733333 0
0.0666667 0.766667 0
0.0666667 0.8 0
0.0666667 0.833333 0
0.0666667 0.866667 0
0.0666667 0.9 0
0.0666667 0.933333 0
0.0666667 0.966667 0
0.1 0.0333333 0
0.1 0.0666667 0
0.1 0.1 0
0.1 0.133333 0
0.1 0.166667 0
0.1 0.2 0
0.1 0.233333 0
0.1 0.266667 0
0.1 0.3 0
0.1 0.333333 0
0.1 0.366667 0
0.1 0.4 0
0.1 0.433333 0
0.1 0.466667 0
0.1 0.5 0
0.1 0.533333 0
0.1 0.566667 0
0.1 0.6 0
0.1 0.633333 0
0.1 0.666667 0
0.1 0.7 0
0.1 0.733333 0
0.1 0.766667 0
0.1 0.8 0
0.1 0.833333 0
0.1 0.866667 0
0.1 0.9 0
0.1 0.933333 0
0.1 0.966667 0
0.133333 0.0333333 0
0.133333 0.0666667 0
0.133333 0.1 0
0.133333 0.133333 0
0.133333 0.166667 0
0.133333 0.2 0
0.133333 0.233333 0
0.133333 0.266667 0
0.133333 0.3 0
0.133333 0.333333 0
0.133333 0.366667 0
0.133333 0.4 0
0.133333 0.433333 0
0.133333 0.466667 0
0.133333 0.5 0
0.133333 0.533333 0
0.133333 0.566667 0
0.133333 0.6 0
0.133333 0.633333 0
0.133333 0.666667 0
0.133333 0.7 0
0.133333 0.733333 0
0.133333 0.766667 0
0.133333 0.8 0
0.133333 0.833333 0
0.133333 0.866667 0
0.133333 0.9 0
0.133333 0.933333 0
0.133333 0.966667 0
0.166667 0.0333333 0
0.166667 0.0666667 0
0.166667 0.1 0
0.166667 0.133333 0
0.166667 0.166667 0
0.166667 0.2 0
0.166667 0.233333 0
0.166667 0.266667 0
0.166667 0.3 0
0.166667 0.333333 0
0.166667 0.366667 0
0.166667 0.4 0
0.166667 0.433333 0
0.166667 0.466667 0
0.166667 0.5 0
0.166667 0.533333 0
0.166667 0.566667 0
0.166667 0.6 0
0.166667 0.633333 0
0.166667 0.666667 0
0.166667 0.7 0
0.166667 0.733333 0
0.166667 0.766667 0
0.166667 0.8 0
0.166667 0.833333 0
0.166667 0.866667 0
0.166667 0.9 0
0.166667 0.933333 0
0.166667 0.966667 0
0.2 0.0333333 0
0.2 0.0666667 0
0.2 0.1 0
0.2 0.133333 0
0.2 0.166667 0
0.2 0.2 0
0.2 0.233333 0
0.2 0.266667 0
0.2 0.3 0
0.2 0.333333 0
0.2 0.366667 0
0.2 0.4 0
0.2 0.433333 0
0.2 0.466667 0
0.2 0.5 0
0.2 0.533333 0
0.2 0.566667 0
0.2 0.6 0
0.2 0.633333 0
0.2 0.666667 0
0.2 0.7 0
0.2 0.733333 0
0.2 0.766667 0
0.2 0.8 0
0.2 0.833333 0
0.2 0.866667 0
0.2 0.9 0
0.2 0.933333 0
0.2 0.966667 0
0.233333 0.0333333 0
0.233333 0.0666667 0
0.233333 0.1 0
0.233333 0.133333 0
0.233333 0.166667 0
0.233333 0.2 0
0.233333 0.233333 0
0.233333 0.266667 0
0.233333 0.3 0
0.233333 0.333333 0
0.233333 0.366667 0
0.233333 0.4 0
0.233333 0.433333 0
0.233333 0.466667 0
0.233333 0.5 0
0.233333 0.533333 0
0.233333 0.566667 0
0.233333 0.6 0
0.233333 0.633333 0
0.233333 0.666667 0
0.233333 0.7 0
0.233333 0.733333 0
0.233333 0.766667 0
0.233333 0.8 0
0.233333 0.833333 0
0.233333 0.866667 0
0.233333 0.9 0
0.233333 0.933333 0
0.233333 0.966667 0
0.266667 0.0333333 0
0.266667 0.0666667 0
0.266667 0.1 0
0.266667 0.133333 0
0.266667 0.166667 0
0.266667 0.2 0
0.266667 0.233333 0
0.266667 0.266667 0
0.266667 0.3 0
0.266667 0.333333 0
0.266667 0.366667 0
0.266667 0.4 0
0.266667 0.433333 0
0.266667 0.466667 0
0.266667 0.5 0
0.266667 0.533333 0
0.266667 0.566667 0
0.266667 0.6 0
0.266667 0.633333 0
0.266667 0.666667 0
0.266667 0.7 0
0.266667 0.733333 0
0.266667 0.766667 0
0.266667 0.8 0
0.266667 0.833333 0
0.266667 0.866667 0
0.266667 0.9 0
0.266667 0.933333 0
0.266667 0.966667 0
0.3 0.0333333 0
0.3 0.0666667 0
0.3 0.1 0
0.3 0.133333 0
0.3 0.166667 0
0.3 0.2 0
0.3 0.233333 0
0.3 0.266667 0
0.3 0.3 0
0.3 0.333333 0
0.3 0.366667 0
0.3 0.4 0
0.3 0.433333 0
0.3 0.466667 0
0.3 0.5 0
0.3 0.533333 0
0.3 0.566667 0
0.3 0.6 0
0.3 0.633333 0
0.3 0.666667 0
0.3 0.7 0
0.3 0.733333 0
0.3 0.766667 0
0.3 0.8 0
0.3 0.833333 0
0.3 0.866667 0
0.3 0.9 0
0.3 0.933333 0
0.3 0.966667 0
0.333333 0.0333333 0
0.333333 0.0666667 0
0.333333 0.1 0
0.333333 0.133333 0
0.333333 0.166667 0
0.333333 0.2 0
0.333333 0.233333 0
0.333333 0.266667 0
0.333333 0.3 0
0.333333 0.333333 0
0.333333 0.366667 0
0.333333 0.4 0
0.333333 0.433333 0
0.333333 0.466667 0
0.333333 0.5 0
0.333333 0.533333 0
0.333333 0.566667 0
0.333333 0.6 0
0.333333 0.633333 0
0.333333 0.666667 0
0.333333 0.7 0
0.333333 0.733333 0
0.333333 0.766667 0
0.333333 0.8 0
0.333333 0.833333 0
0.333333 0.866667 0
0.333333 0.9 0
0.333333 0.933333 0
0.333333 0.966667 0
0.366667 0.0333333 0
0.366667 0.0666667 0
0.366667 0.1 0
0.366667 0.133333 0
0.366667 0.166667 0
0.366667 0.2 0
0.366667 0.233333 0
0.366667 0.266667 0
0.366667 0.3 0
0.366667 0.333333 0
0.366667 0.366667 0
0.366667 0.4 0
0.366667 0.433333 0
0.366667 0.466667 0
0.366667 0.5 0
0.366667 0.533333 0
0.366667 0.566667 0
0.366667 0.6 0
0.366667 0.633333 0
0.366667 0.666667 0
0.366667 0.7 0
0.366667 0.733333 0
0.366667 0.766667 0
0.366667 0.8 0
0.366667 0.833333 0
0.366667 0.866667 0
0.366667 0.9 0
0.366667 0.933333 0
0.366667 0.966667 0
0.4 0.0333333 0
0.4 0.0666667 0
0.4 0.1 0
0.4 0.133333 0
0.4 0.166667 0
0.4 0.2 0
0.4 0.233333 0
0.4 0.266667 0
0.4 0.3 0
0.4 0.333333 0
0.4 0.366667 0
0.4 0.4 0
0.4 0.433333 0
0.4 0.466667 0
0.4 0.5 0
0.4 0.533333 0
0.4 0.566667 0
0.4 0.6 0
0.4 0.633333 0
0.4 0.666667 0
0.4 0.7 0
0.4 0.733333 0
0.4 0.766667 0
0.4 0.8 0
0.4 0.833333 0
0.4 0.866667 0
0.4 0.9 0
0.4 0.933333 0
0.4 0.966667 0
0.433333 0.0333333 0
0.433333 0.0666667 0
0.433333 0.1 0
0.433333 0.133333 0
0.433333 0.166667 0
0.433333 0.2 0
0.433333 0.233333 0
0.433333 0.266667 0
0.433333 0.3 0
0.433333 0.333333 0
0.433333 0.366667 0
0.433333 0.4 0
0.433333 0.433333 0
0.433333 0.466667 0
0.433333 0.5 0
0.433333 0.533333 0
0.433333 0.566667 0
0.433333 0.6 0
0.433333 0.633333 0
0.433333 0.666667 0
0.433333 0.7 0
0.433333 0.733333 0
0.433333 0.766667 0
0.433333 0.8 0
0.433333 0.833333 0
0.433333 0.866667 0
0.433333 0.9 0
0.433333 0.933333 0
0.433333 0.966667 0
0.466667 0.0333333 0
0.466667 0.0666667 0
0.466667 0.1 0
0.466667 0.133333 0
0.466667 0.166667 0
0.466667 0.2 0
0.466667 0.233333 0
0.466667 0.266667 0
0.466667 0.3 0
0.466667 0.333333 0
0.466667 0.366667 0
0.466667 0.4 0
0.466667 0.433333 0
0.466667 0.466667 0
0.466667 0.5 0
0.466667 0.533333 0
0.466667 0.566667 0
0.466667 0.6 0
0.466667 0.633333 0
0.466667 0.666667 0
0.466667 0.7 0
0.466667 0.733333 0
0.466667 0.766667 0
0.466667 0.8 0
0.466667 0.833333 0
0.466667 0.866667 0
0.466667 0.9 0
0.466667 0.933333 0
0.466667 0.966667 0
0.5 0.0333333 0
0.5 0.0666667 0
0.5 0.1 0
0.5 0.133333 0
0.5 0.166667 0
0.5 0.2 0
0.5 0.233333 0
0.5 0.266667 0
0.5 0.3 0
0.5 0.333333 0
0.5 0.366667 0
0.5 0.4 0
0.5 0.433333 0
0.5 0.466667 0
0.5 0.5 0
0.5 0.533333 0
0.5 0.566667 0
0.5 0.6 0
0.5 0.633333 0
0.5 0.666667 0
0.5 0.7 0
0.5 0.733333 0
0.5 0.766667 0
0.5 0.8 0
0.5 0.833333 0
0.5 0.866667 0
0.5 0.9 0
0.5 0.933333 0
0.5 0.966667 0
0.533333 0.0333333 0
0.533333 0.0666667 0
0.533333 0.1 0
0.533333 0.133333 0
0.533333 0.166667 0
0.533333 0.2 0
0.533333 0.233333 0
0.533333 0.266667 0
0.533333 0.3 0
0.533333 0.333333 0
0.533333 0.366667 0
0.533333 0.4 0
0.533333 0.433333 0
0.533333 0.466667 0
0.533333 0.5 0
0.533333 0.533333 0
0.533333 0.566667 0
0.533333 0.6 0
0.533333 0.633333 0
0.533333 0.666667 0
0.533333 0.7 0
0.533333 0.733333 0
0.533333 0.766667 0
0.533333 0.8 0
0.533333 0.833333 0
0.533333 0.866667 0
0.533333 0.9 0
0.533333 0.933333 0
0.533333 0.966667 0
0.566667 0.0333333 0
0.566667 0.0666667 0
0.566667 0.1 0
0.566667 0.133333 0
0.566667 0.166667 0
0.566667 0.2 0
0.566667 0.233333 0
0.566667 0.266667 0
0.566667 0.3 0
0.566667 0.333333 0
0.566667 0.366667 0
0.566667 0.4 0
0.566667 0.433333 0
0.566667 0.466667 0
0.566667 0.5 0
0.566667 0.533333 0
0.566667 0.566667 0
0.566667 0.6 0
0.566667 0.633333 0
0.566667 0.666667 0
0.566667 0.7 0
0.566667 0.733333 0
0.566667 0.766667 0
0.566667 0.8 0
0.566667 0.833333 0
0.566667 0.866667 0
0.566667 0.9 0
0.566667 0.933333 0
0.566667 0.966667 0
0.6 0.0333333 0
0.6 0.0666667 0
0.6 0.1 0
0.6 0.133333 0
[...]
CELL_DATA 900
VECTORS velocity double
6.99264e-05 -6.88007e-05 0.0
-7.67577e-06 -1.27226e-05 0.0
-8.27406e-05 0.000340782 0.0
-0.000141496 0.000910932 0.0
-0.000178002 0.00166084 0.0
-0.000201952 0.00253368 0.0
-0.00021931 0.00350618 0.0
-0.00023514 0.004565 0.0
-0.00025236 0.00571175 0.0
-0.000272874 0.00695593 0.0
-0.000297891 0.0083139 0.0
-0.000328411 0.00980719 0.0
-0.000365535 0.0114625 0.0
-0.000410776 0.0133127 0.0
-0.000466438 0.0153987 0.0
-0.00053616 0.017773 0.0
-0.000625804 0.0205049 0.0
-0.000744991 0.0236881 0.0
-0.000909894 0.0274522 0.0
-0.00114883 0.0319803 0.0
-0.00151376 0.0375359 0.0
-0.00210581 0.0445093 0.0
-0.00312777 0.0535058 0.0
-0.00499393 0.0654901 0.0
-0.00849539 0.0821459 0.0
-0.0150152 0.105974 0.0
-0.0257245 0.14212 0.0
-0.0381623 0.189318 0.0
-0.0135256 0.262398 0.0
0.216758 0.173903 0.0
1.07748e-05 1.17289e-05 0.0
-0.000441828 0.000443877 0.0
-0.000875124 0.00148167 0.0
-0.00123768 0.0029483 0.0
-0.00150942 0.00480193 0.0
-0.00171977 0.00694759 0.0
-0.00189562 0.00934401 0.0
-0.0020623 0.0119667 0.0
-0.00223855 0.0148194 0.0
-0.0024386 0.0179232 0.0
-0.0026735 0.0213151 0.0
-0.0029532 0.0250445 0.0
-0.00328838 0.0291736 0.0
-0.00369246 0.0337785 0.0
-0.00418371 0.0389535 0.0
-0.00478803 0.0448161 0.0
-0.0055425 0.051516 0.0
-0.0065003 0.0592453 0.0
-0.0077375 0.0682511 0.0
-0.00936342 0.0788489 0.0
-0.0115373 0.091432 0.0
-0.0144992 0.106471 0.0
-0.0186195 0.124485 0.0
-0.024485 0.145934 0.0
-0.0329042 0.170983 0.0
-0.044755 0.198632 0.0
-0.0585686 0.225578 0.0
-0.0651531 0.240171 0.0
-0.00311346 0.218389 0.0
0.304955 0.116358 0.0
-0.000345563 8.61971e-05 0.0
-0.00147618 0.000856963 0.0
-0.00251679 0.00246717 0.0
-0.00339123 0.00461841 0.0
-0.0040796 0.00727213 0.0
-0.00463493 0.0103131 0.0
-0.00511504 0.0136963 0.0
-0.0055756 0.0173948 0.0
-0.00606125 0.0214157 0.0
-0.00660712 0.0257878 0.0
-0.00724152 0.0305592 0.0
-0.00799005 0.0357938 0.0
-0.00887958 0.0415705 0.0
-0.00994252 0.0479839 0.0
-0.0112212 0.0551478 0.0
-0.0127726 0.0631991 0.0
-0.0146741 0.072303 0.0
-0.0170288 0.0826585 0.0
-0.0199706 0.0944999 0.0
-0.0236667 0.108091 0.0
-0.0283155 0.123703 0.0
-0.0341357 0.141553 0.0
-0.0413247 0.161686 0.0
-0.0499582 0.183745 0.0
-0.0595805 0.206475 0.0
-0.0682158 0.227005 0.0
-0.0683942 0.238637 0.0
-0.0386513 0.230782 0.0
0.0917308 0.173597 0.0
0.476003 0.0770153 0.0
-0.000900359 0.000140224 0.0
-0.00289047 0.00116596 0.0
-0.00463811 0.00319516 0.0
-0.00608556 0.00581874 0.0
-0.0072425 0.00900077 0.0
-0.00819343 0.0126135 0.0
-0.00903048 0.0166145 0.0
-0.00984086 0.0209781 0.0
-0.010696 0.0257151 0.0
-0.0116527 0.0308581 0.0
-0.0127572 0.0364595 0.0
-0.0140504 0.0425872 0.0
-0.0155746 0.0493229 0.0
-0.0173783 0.0567622 0.0
-0.0195224 0.065015 0.0
-0.0220855 0.0742069 0.0
-0.0251678 0.0844792 0.0
-0.0288933 0.0959862 0.0
-0.0334054 0.108885 0.0
-0.0388518 0.12331 0.0
-0.0453489 0.139322 0.0
-0.0529149 0.156817 0.0
-0.0613339 0.175345 0.0
-0.0699011 0.193872 0.0
-0.0767774 0.210223 0.0
-0.0776035 0.220709 0.0
-0.0613552 0.218191 0.0
-0.00106113 0.194464 0.0
0.167907 0.129211 0.0
0.575007 0.0491685 0.0
-0.00159648 0.000166613 0.0
-0.00459364 0.00134221 0.0
-0.00712888 0.003624 0.0
-0.00919499 0.00652257 0.0
-0.0108543 0.01 0.0
-0.0122319 0.013919 0.0
-0.0134583 0.0182399 0.0
-0.0146535 0.0229391 0.0
-0.015916 0.0280298 0.0
-0.0173237 0.0335457 0.0
-0.0189398 0.0395388 0.0
-0.0208192 0.0460743 0.0
-0.0230162 0.0532285 0.0
-0.0255911 0.0610865 0.0
-0.0286161 0.0697413 0.0
-0.0321792 0.0792914 0.0
-0.0363862 0.0898369 0.0
-0.0413552 0.10147 0.0
-0.0471998 0.114255 0.0
-0.0539919 0.128196 0.0
-0.0616895 0.14317 0.0
-0.0700114 0.158829 0.0
-0.0782164 0.174416 0.0
-0.0847246 0.18856 0.0
-0.0863252 0.198777 0.0
-0.0766277 0.20142 0.0
-0.0420859 0.190071 0.0
0.0458397 0.159103 0.0
0.241735 0.0959367 0.0
0.647143 0.0308865 0.0
-0.00235318 0.000175514 0.0
-0.00643196 0.0014142 0.0
-0.00978668 0.00380208 0.0
-0.0124794 0.00680671 0.0
-0.0146401 0.0103867 0.0
-0.0164422 0.0143991 0.0
-0.0180578 0.0188067 0.0
-0.0196398 0.0235875 0.0
-0.0213122 0.028756 0.0
-0.0231724 0.0343453 0.0
-0.0252976 0.0404042 0.0
-0.0277533 0.0469921 0.0
-0.0306015 0.0541754 0.0
-0.0339078 0.0620246 0.0
-0.0377466 0.0706113 0.0
-0.0422036 0.0800031 0.0
-0.0473724 0.0902567 0.0
-0.0533428 0.101404 0.0
-0.0601695 0.113431 0.0
-0.0678139 0.126234 0.0
-0.0760387 0.13956 0.0
-0.0842353 0.152908 0.0
-0.0911417 0.165362 0.0
-0.0943905 0.175448 0.0
-0.0896677 0.180694 0.0
-0.0691955 0.177908 0.0
-0.0181849 0.161574 0.0
0.090799 0.128931 0.0
0.303832 0.0721376 0.0
0.698357 0.0196339 0.0
-0.00312436 0.000172942 0.0
-0.00830616 0.00140768 0.0
-0.0124819 0.00378401 0.0
-0.0157914 0.00675899 0.0
-0.018439 0.0102887 0.0
-0.020651 0.0142295 0.0
-0.0226429 0.0185463 0.0
-0.0245997 0.0232189 0.0
-0.0266699 0.0282621 0.0
-0.0289677 0.0337073 0.0
-0.031582 0.0395995 0.0
-0.0345853 0.045991 0.0
-0.038043 0.0529377 0.0
-0.0420205 0.0604953 0.0
-0.0465871 0.0687147 0.0
-0.0518163 0.0776357 0.0
-0.0577779 0.0872779 0.0
-0.0645183 0.0976257 0.0
-0.0720171 0.108603 0.0
-0.0801089 0.120037 0.0
-0.0883505 0.131592 0.0
-0.0958104 0.142691 0.0
-0.100746 0.152365 0.0
-0.100111 0.159168 0.0
-0.0887338 0.160794 0.0
-0.0578773 0.154626 0.0
0.00766537 0.135952 0.0
0.132737 0.104439 0.0
0.356248 0.0548377 0.0
0.735619 0.0126381 0.0
-0.00387296 0.000163994 0.0
-0.0101314 0.00134702 0.0
-0.0151003 0.00362296 0.0
-0.0189987 0.00646401 0.0
-0.022106 0.00982582 0.0
-0.0247027 0.0135696 0.0
-0.0270475 0.0176628 0.0
-0.029357 0.0220873 0.0
-0.0318019 0.0268585 0.0
-0.0345113 0.0320058 0.0
-0.0375829 0.0375705 0.0
-0.0410934 0.0435983 0.0
-0.045108 0.0501361 0.0
-0.0496873 0.057227 0.0
-0.0548899 0.0649051 0.0
-0.0607704 0.0731886 0.0
-0.067367 0.0820695 0.0
-0.074674 0.091498 0.0
-0.0825881 0.101358 0.0
-0.0908131 0.111432 0.0
-0.0987045 0.121342 0.0
-0.105032 0.130482 0.0
-0.10763 0.137892 0.0
-0.102896 0.142214 0.0
-0.0850276 0.141386 0.0
-0.044721 0.13327 0.0
0.0328646 0.114213 0.0
0.170173 0.08497 0.0
0.399841 0.0422581 0.0
0.763238 0.00829174 0.0
-0.00457633 0.000151256 0.0
-0.0118499 0.00124856 0.0
-0.0175618 0.00335833 0.0
-0.0220075 0.00598654 0.0
-0.0255389 0.00909097 0.0
-0.0284893 0.0125425 0.0
-0.0311593 0.0163124 0.0
-0.033795 0.0203858 0.0
-0.0365875 0.0247785 0.0
-0.0396789 0.029519 0.0
-0.0431736 0.0346453 0.0
-0.04715 0.0401986 0.0
-0.0516708 0.0462187 0.0
-0.0567885 0.0527399 0.0
-0.0625477 0.0597849 0.0
-0.0689797 0.0673573 0.0
-0.0760865 0.0754316 0.0
-0.0838067 0.083937 0.0
-0.0919513 0.0927341 0.0
-0.100095 0.101581 0.0
-0.107403 0.110084 0.0
-0.112373 0.117636 0.0
-0.112479 0.123318 0.0
-0.103669 0.125881 0.0
-0.0796969 0.123527 0.0
-0.0310053 0.114507 0.0
0.0565936 0.0961196 0.0
0.203255 0.0695282 0.0
0.436095 0.0329972 0.0
0.784119 0.00556208 0.0
-0.00521791 0.000136116 0.0
-0.0134179 0.00112296 0.0
-0.019804 0.00301729 0.0
-0.0247442 0.00537245 0.0
-0.0286569 0.00815064 0.0
-0.0319258 0.0112366 0.0
-0.0348901 0.0146071 0.0
-0.0378233 0.0182514 0.0
-0.0409349 0.0221866 0.0
-0.0443781 0.026441 0.0
-0.0482624 0.0310509 0.0
-0.0526668 0.0360546 0.0
-0.0576495 0.0414883 0.0
-0.0632537 0.0473814 0.0
-0.0695078 0.0537507 0.0
-0.076418 0.0605931 0.0
-0.0839478 0.0678745 0.0
-0.0919784 0.0755145 0.0
-0.100235 0.0833636 0.0
-0.108168 0.0911715 0.0
-0.114765 0.0985407 0.0
-0.118279 0.104878 0.0
-0.115877 0.109316 0.0
-0.103155 0.110715 0.0
-0.0735724 0.107523 0.0
-0.0175306 0.0983013 0.0
0.0783828 0.0810934 0.0
0.232199 0.0572374 0.0
0.466258 0.0260935 0.0
0.80019 0.00382501 0.0
-0.00578578 0.000119084 0.0
-0.0148026 0.000976325 0.0
-0.0217801 0.00261691 0.0
-0.0271524 0.00465176 0.0
-0.0313983 0.00704926 0.0
-0.0349471 0.00971174 0.0
-0.0381731 0.0126225 0.0
-0.0413743 0.0157763 0.0
-0.0447767 0.0191924 0.0
-0.0485428 0.0228998 0.0
-0.0527867 0.0269347 0.0
-0.057587 0.0313348 0.0
-0.0629972 0.0361355 0.0
-0.0690506 0.041366 0.0
-0.0757593 0.047043 0.0
-0.0831036 0.0531635 0.0
-0.0910085 0.0596936 0.0
-0.0992971 0.0665533 0.0
-0.10761 0.0735929 0.0
-0.115276 0.0805631 0.0
-0.121114 0.0870718 0.0
-0.123161 0.0925431 0.0
-0.118318 0.0961582 0.0
-0.101915 0.0968703 0.0
-0.0672258 0.093346 0.0
-0.00474952 0.0843732 0.0
0.098091 0.068589 0.0
0.257389 0.0473908 0.0
0.491413 0.0208759 0.0
0.812767 0.00270118 0.0
-0.00627006 0.000100295 0.0
-0.015978 0.000812109 0.0
-0.0234523 0.00216774 0.0
-0.0291866 0.0038438 0.0
-0.0337128 0.0058162 0.0
-0.0375002 0.00800762 0.0
-0.0409538 0.0104091 0.0
-0.044393 0.0130216 0.0
-0.048058 0.0158676 0.0
-0.0521201 0.0189778 0.0
-0.056697 0.0223894 0.0
-0.0618673 0.0261418 0.0
-0.0676806 0.030273 0.0
-0.0741611 0.034816 0.0
-0.0813054 0.0397929 0.0
-0.089069 0.0452079 0.0
-0.0973385 0.0510355 0.0
-0.105879 0.0572045 0.0
-0.114248 0.063574 0.0
-0.121652 0.069902 0.0
-0.126749 0.0758055 0.0
-0.127375 0.0807227 0.0
-0.120207 0.0838729 0.0
-0.100367 0.0842793 0.0
-0.0610301 0.0807879 0.0
0.00711618 0.0723458 0.0
0.11571 0.058139 0.0
0.279225 0.0394357 0.0
0.512448 0.0168752 0.0
0.822755 0.00195969 0.0
-0.00666212 7.97292e-05 0.0
-0.0169218 0.000632356 0.0
-0.0247893 0.00167664 0.0
-0.0308092 0.00296167 0.0
-0.0355587 0.00447172 0.0
-0.0395409 0.00615198 0.0
-0.0431863 0.0080018 0.0
-0.0468326 0.0100295 0.0
-0.0507323 0.0122605 0.0
-0.0550642 0.0147283 0.0
-0.0599503 0.0174725 0.0
-0.0654702 0.0205359 0.0
-0.071671 0.0239618 0.0
-0.0785702 0.0277912 0.0
-0.0861511 0.0320572 0.0
-0.0943465 0.0367778 0.0
-0.103006 0.0419435 0.0
-0.111837 0.047501 0.0
-0.12031 0.0533258 0.0
-0.127512 0.0591889 0.0
-0.13194 0.0647175 0.0
-0.131237 0.0693593 0.0
-0.121881 0.072357 0.0
-0.0988432 0.072784 0.0
-0.0552743 0.0696072 0.0
0.0178138 0.0619761 0.0
0.131302 0.0493417 0.0
0.298099 0.0329471 0.0
0.530084 0.0137586 0.0
0.830787 0.00145877 0.0
-0.00695398 5.73518e-05 0.0
-0.0176151 0.000438587 0.0
-0.0257641 0.00114887 0.0
-0.031988 0.00201553 0.0
-0.0369004 0.00303169 0.0
-0.0410309 0.00416651 0.0
-0.0448304 0.00542795 0.0
-0.0486513 0.00683164 0.0
-0.0527563 0.00840658 0.0
-0.0573315 0.0101889 0.0
-0.0625039 0.0122214 0.0
-0.0683561 0.0145517 0.0
-0.0749355 0.0172311 0.0
-0.0822563 0.020312 0.0
-0.0902919 0.0238436 0.0
-0.0989558 0.0278641 0.0
-0.108063 0.0323886 0.0
-0.117264 0.0373901 0.0
-0.125939 0.0427692 0.0
-0.133048 0.0483157 0.0
-0.136926 0.0536687 0.0
-0.135023 0.0582805 0.0
-0.123637 0.0614014 0.0
-0.0976284 0.0621322 0.0
-0.0501948 0.0595197 0.0
0.0272949 0.0528641 0.0
0.144983 0.0417981 0.0
0.314357 0.0275507 0.0
0.544892 0.0112703 0.0
0.83731 0.00110673 0.0
-0.00713849 3.31816e-05 0.0
-0.0180411 0.000232328 0.0
-0.0263542 0.00058944 0.0
-0.0326963 0.00101497 0.0
-0.0377078 0.00151095 0.0
-0.0419374 0.00207134 0.0
-0.0458508 0.00271244 0.0
-0.049811 0.00345695 0.0
-0.0540891 0.00433679 0.0
-0.0588785 0.00539065 0.0
-0.0643125 0.00666441 0.0
-0.0704793 0.00821141 0.0
-0.0774306 0.0100924 0.0
-0.085182 0.0123746 0.0
-0.0937027 0.0151275 0.0
-0.102891 0.0184163 0.0
-0.112533 0.0222883 0.0
-0.12222 0.0267531 0.0
-0.13124 0.0317454 0.0
-0.138417 0.0370816 0.0
-0.141911 0.0424175 0.0
-0.138978 0.0472069 0.0
-0.125738 0.0506942 0.0
-0.0969708 0.0519813 0.0
-0.0459795 0.0501567 0.0
0.035473 0.0446183 0.0
0.156821 0.035138 0.0
0.328263 0.02292 0.0
0.557297 0.00920643 0.0
0.842623 0.000842018 0.0
-0.00720892 7.26632e-06 0.0
-0.0181856 1.53822e-05 0.0
-0.0265403 3.99808e-06 0.0
-0.0329115 -2.95611e-05 0.0
-0.0379556 -7.45723e-05 0.0
-0.0422321 -0.000112089 0.0
-0.0462153 -0.000118191 0.0
-0.0502748 -6.40114e-05 0.0
-0.0546891 8.41068e-05 0.0
-0.0596581 0.000366203 0.0
-0.0653237 0.00083055 0.0
-0.0717833 0.00153587 0.0
-0.0790982 0.00255306 0.0
-0.0872914 0.00396565 0.0
-0.0963345 0.00586756 0.0
-0.106118 0.00835616 0.0
-0.116401 0.0115198 0.0
-0.126722 0.0154161 0.0
-0.13627 0.0200239 0.0
-0.143725 0.0251966 0.0
-0.147058 0.0306163 0.0
-0.143308 0.0357409 0.0
-0.128417 0.0398016 0.0
-0.0970988 0.0418776 0.0
-0.0428069 0.0410617 0.0
0.0422622 0.036798 0.0
0.166846 0.0289676 0.0
0.339996 0.018736 0.0
0.567584 0.00738632 0.0
0.846915 0.000618655 0.0
-0.0071602 -2.01285e-05 0.0
-0.0180384 -0.000209929 0.0
-0.026309 -0.000600846 0.0
-0.0326175 -0.0011057 0.0
-0.0376251 -0.00170572 0.0
-0.0418934 -0.00235762 0.0
-0.0458985 -0.00303136 0.0
-0.0500126 -0.00369357 0.0
-0.0545185 -0.00431081 0.0
-0.0596239 -0.00484369 0.0
-0.0654808 -0.00524346 0.0
-0.0722 -0.00544763 0.0
-0.0798582 -0.00537613 0.0
-0.088494 -0.0049284 0.0
-0.0980908 -0.00398347 0.0
-0.108542 -0.00240542 0.0
-0.119593 -5.74039e-05 0.0
-0.13073 0.00316984 0.0
-0.141027 0.00731114 0.0
-0.149016 0.0122791 0.0
-0.152463 0.0178003 0.0
-0.148173 0.0233441 0.0
-0.131884 0.0281327 0.0
-0.0982374 0.0312081 0.0
-0.040875 0.031636 0.0
0.04753 0.028855 0.0
0.175013 0.0228222 0.0
0.349616 0.0146474 0.0
0.575892 0.0056265 0.0
0.850267 0.000396489 0.0
-0.00698791 -4.86465e-05 0.0
-0.0175911 -0.000440497 0.0
-0.0256507 -0.00121638 0.0
-0.0318042 -0.00219751 0.0
-0.0367045 -0.00335812 0.0
-0.040906 -0.00463219 0.0
-0.0448792 -0.00598565 0.0
-0.048995 -0.00738314 0.0
-0.0535386 -0.00879399 0.0
-0.058725 -0.0101822 0.0
-0.064719 -0.0115018 0.0
-0.0716497 -0.0126898 0.0
-0.0796162 -0.0136598 0.0
-0.0886825 -0.0142964 0.0
-0.0988558 -0.0144521 0.0
-0.110042 -0.0139504 0.0
-0.121974 -0.0126015 0.0
-0.134089 -0.0102351 0.0
-0.145382 -0.00673812 0.0
-0.154223 -0.0021264 0.0
-0.158139 0.00339112 0.0
-0.153649 0.00931355 0.0
-0.136285 0.0148987 0.0
-0.100607 0.0191498 0.0
-0.0404349 0.0210771 0.0
0.0510467 0.0200643 0.0
0.181148 0.0161024 0.0
0.357026 0.0102239 0.0
0.582182 0.00371672 0.0
0.852649 0.000134548 0.0
-0.00669011 -7.78824e-05 0.0
-0.016842 -0.000672 0.0
-0.0245643 -0.00183063 0.0
-0.0304709 -0.00328383 0.0
-0.0351921 -0.00500021 0.0
-0.0392649 -0.00689325 0.0
-0.0431473 -0.00892733 0.0
-0.0472036 -0.0110679 0.0
-0.0517188 -0.0132905 0.0
-0.0569152 -0.0155662 0.0
-0.0629722 -0.0178566 0.0
-0.070041 -0.0201036 0.0
-0.0782505 -0.0222206 0.0
-0.0877008 -0.0240836 0.0
-0.0984363 -0.0255241 0.0
-0.110393 -0.0263285 0.0
-0.12331 -0.0262497 0.0
-0.136594 -0.0250382 0.0
-0.149141 -0.022491 0.0
-0.15915 -0.0185314 0.0
-0.163913 -0.0132966 0.0
-0.159702 -0.00719085 0.0
-0.141752 -0.000914627 0.0
-0.104413 0.00458501 0.0
-0.041755 0.00828818 0.0
0.0525076 0.009455 0.0
0.184916 0.00802511 0.0
0.361896 0.00491324 0.0
0.586184 0.00139244 0.0
0.853913 -0.000217143 0.0
-0.00626725 -0.000107149 0.0
-0.0157951 -0.000898543 0.0
-0.0230577 -0.00242788 0.0
-0.0286275 -0.00433714 0.0
-0.0330978 -0.00659096 0.0
-0.0369777 -0.0090853 0.0
-0.0407047 -0.0117856 0.0
-0.0446314 -0.0146615 0.0
-0.0490397 -0.0176979 0.0
-0.0541579 -0.0208783 0.0
-0.0601804 -0.0241775 0.0
-0.0672839 -0.0275499 0.0
-0.0756338 -0.0309183 0.0
-0.085376 -0.0341605 0.0
-0.0966075 -0.0370984 0.0
-0.109314 -0.0394907 0.0
-0.123263 -0.0410396 0.0
-0.13785 -0.0414164 0.0
-0.151896 -0.0403133 0.0
-0.163429 -0.0375252 0.0
-0.169492 -0.0330488 0.0
-0.166051 -0.0271569 0.0
-0.148082 -0.0204513 0.0
-0.109836 -0.0137651 0.0
-0.0453114 -0.00808205 0.0
0.0513008 -0.00427148 0.0
0.18571 -0.00250435 0.0
0.363666 -0.00201488 0.0
0.587375 -0.00162783 0.0
0.85372 -0.000684966 0.0
-0.00572346 -0.000135519 0.0
-0.0144637 -0.00111237 0.0
-0.0211507 -0.00298764 0.0
-0.0262985 -0.0053218 0.0
-0.0304476 -0.00807738 0.0
-0.0340688 -0.0111364 0.0
-0.0375715 -0.0144679 0.0
-0.0412908 -0.0180486 0.0
-0.0455015 -0.0218769 0.0
-0.0504348 -0.0259532 0.0
-0.0562995 -0.0302727 0.0
-0.0632986 -0.0348119 0.0
-0.0716378 -0.0395153 0.0
-0.0815178 -0.0442791 0.0
-0.0931025 -0.0489341 0.0
-0.106448 -0.0532318 0.0
-0.121381 -0.0568414 0.0
-0.137317 -0.059367 0.0
-0.153034 -0.0603923 0.0
-0.166422 -0.0595572 0.0
-0.174294 -0.0566562 0.0
-0.172316 -0.0517242 0.0
-0.155145 -0.0451104 0.0
-0.116797 -0.0374472 0.0
-0.0512284 -0.0296282 0.0
0.0469646 -0.0225351 0.0
0.182635 -0.0166157 0.0
0.361119 -0.0113267 0.0
0.584658 -0.00569853 0.0
0.851602 -0.00133141 0.0
-0.00506765 -0.000161695 0.0
-0.0128723 -0.00130321 0.0
-0.0188791 -0.00348326 0.0
-0.0235265 -0.00619187 0.0
-0.0272879 -0.00939138 0.0
-0.0305857 -0.0129539 0.0
-0.0337932 -0.0168543 0.0
-0.0372222 -0.0210787 0.0
-0.041135 -0.0256419 0.0
-0.0457616 -0.0305659 0.0
-0.0513209 -0.0358732 0.0
-0.05804 -0.0415728 0.0
-0.0661645 -0.0476463 0.0
-0.0759543 -0.0540291 0.0
-0.0876509 -0.0605879 0.0
-0.101401 -0.0670992 0.0
-0.117123 -0.0732334 0.0
-0.134296 -0.0785567 0.0
-0.151706 -0.0825583 0.0
-0.167172 -0.0847094 0.0
-0.177339 -0.0845461 0.0
-0.17762 -0.0817524 0.0
-0.162374 -0.0762506 0.0
-0.125314 -0.0682219 0.0
-0.0601621 -0.0582475 0.0
0.0383924 -0.0470479 0.0
0.174431 -0.0356841 0.0
0.352967 -0.024024 0.0
0.576851 -0.0113643 0.0
0.846857 -0.00228841 0.0
-0.00431487 -0.000183869 0.0
-0.0110598 -0.00145758 0.0
-0.0162979 -0.0038804 0.0
-0.0203773 -0.00688884 0.0
-0.0236908 -0.0104469 0.0
-0.0266042 -0.0144212 0.0
-0.0294475 -0.0187932 0.0
-0.0325029 -0.02356 0.0
-0.0360141 -0.0287541 0.0
-0.0402031 -0.0344221 0.0
-0.0452919 -0.0406192 0.0
-0.0515242 -0.0473966 0.0
-0.0591794 -0.0547891 0.0
-0.068573 -0.0627947 0.0
-0.0800276 -0.0713506 0.0
-0.093796 -0.0803022 0.0
-0.109916 -0.0893735 0.0
-0.127985 -0.0981455 0.0
-0.146876 -0.106054 0.0
-0.164436 -0.112414 0.0
-0.177261 -0.116465 0.0
-0.180634 -0.117433 0.0
-0.168694 -0.114619 0.0
-0.134834 -0.107468 0.0
-0.072374 -0.0959047 0.0
0.0245264 -0.0800657 0.0
0.159466 -0.0617624 0.0
0.337206 -0.0416994 0.0
0.561999 -0.0194817 0.0
0.838328 -0.00375848 0.0
-0.00348911 -0.000199354 0.0
-0.00908467 -0.00155771 0.0
-0.0134879 -0.00413549 0.0
-0.0169463 -0.00733982 0.0
-0.0197619 -0.0111378 0.0
-0.0222383 -0.0153949 0.0
-0.024656 -0.0200989 0.0
-0.0272619 -0.0252568 0.0
-0.0302739 -0.0309182 0.0
-0.0338975 -0.0371541 0.0
-0.0383473 -0.0440546 0.0
-0.0438707 -0.0517197 0.0
-0.0507667 -0.0602492 0.0
-0.0593923 -0.0697273 0.0
-0.0701416 -0.0801975 0.0
-0.0833751 -0.0916273 0.0
-0.0992742 -0.103864 0.0
-0.117609 -0.116584 0.0
-0.137433 -0.129249 0.0
-0.156761 -0.141073 0.0
-0.172325 -0.151013 0.0
-0.17948 -0.157773 0.0
-0.172332 -0.159867 0.0
-0.144049 -0.155736 0.0
-0.0874356 -0.144137 0.0
0.0045037 -0.124248 0.0
0.135926 -0.0975126 0.0
0.311384 -0.066685 0.0
0.537481 -0.0314985 0.0
0.824298 -0.00615359 0.0
-0.00262426 -0.000204492 0.0
-0.00702664 -0.00158166 0.0
-0.0105574 -0.00419646 0.0
-0.0133597 -0.00745928 0.0
-0.0156413 -0.0113407 0.0
-0.0176407 -0.0157091 0.0
-0.0195858 -0.0205558 0.0
-0.0216826 -0.0258954 0.0
-0.0241162 -0.03179 0.0
-0.0270657 -0.0383311 0.0
-0.0307251 -0.0456407 0.0
-0.0353278 -0.0538662 0.0
-0.0411691 -0.0631774 0.0
-0.0486209 -0.0737578 0.0
-0.0581217 -0.0857865 0.0
-0.0701207 -0.0994047 0.0
-0.0849466 -0.114661 0.0
-0.102584 -0.131433 0.0
-0.122369 -0.149331 0.0
-0.142656 -0.167594 0.0
-0.16055 -0.184988 0.0
-0.171774 -0.199735 0.0
-0.170714 -0.209502 0.0
-0.150584 -0.211513 0.0
-0.10374 -0.202843 0.0
-0.0219248 -0.181375 0.0
0.101587 -0.146 0.0
0.271988 -0.1023 0.0
0.499126 -0.050039 0.0
0.801558 -0.0104109 0.0
-0.00177131 -0.000193612 0.0
-0.00499714 -0.00150249 0.0
-0.00765434 -0.00400457 0.0
-0.00978951 -0.00715353 0.0
-0.011521 -0.0109221 0.0
-0.0130246 -0.0151844 0.0
-0.0144744 -0.0199312 0.0
-0.0160319 -0.0251792 0.0
-0.0178435 -0.0309959 0.0
-0.0200527 -0.0374849 0.0
-0.0228192 -0.0447892 0.0
-0.0263422 -0.0530928 0.0
-0.0308846 -0.0626251 0.0
-0.0367943 -0.0736638 0.0
-0.0445077 -0.0865303 0.0
-0.0545158 -0.101569 0.0
-0.0672631 -0.119094 0.0
-0.0829578 -0.139297 0.0
-0.101294 -0.162103 0.0
-0.121131 -0.186979 0.0
-0.140213 -0.212732 0.0
-0.15499 -0.237315 0.0
-0.160554 -0.257699 0.0
-0.150624 -0.269896 0.0
-0.117481 -0.269082 0.0
-0.0517814 -0.250898 0.0
0.0571445 -0.210406 0.0
0.21721 -0.153173 0.0
0.442951 -0.0797667 0.0
0.76555 -0.0185487 0.0
-0.000990475 -0.000160961 0.0
-0.0031221 -0.00129631 0.0
-0.00494234 -0.00350986 0.0
-0.00642333 -0.00634233 0.0
-0.00761018 -0.00976488 0.0
-0.00862308 -0.013659 0.0
-0.0095843 -0.0180098 0.0
-0.0106092 -0.0228304 0.0
-0.0118011 -0.0281843 0.0
-0.0132617 -0.0341741 0.0
-0.015105 -0.0409469 0.0
-0.0174776 -0.0487001 0.0
-0.0205811 -0.0576936 0.0
-0.0246945 -0.0682655 0.0
-0.0301897 -0.0808457 0.0