# vtk DataFile Version 3.0
Malha 2D com triângulos e temperatura
ASCII
DATASET UNSTRUCTURED_GRID

POINTS 961 double
0 0 0
1 0 0
1 1 0
0 1 0
0.0333333 0 0
0.0666667 0 0
0.1 0 0
0.133333 0 0
0.166667 0 0
0.2 0 0
0.233333 0 0
0.266667 0 0
0.3 0 0
0.333333 0 0
0.366667 0 0
0.4 0 0
0.433333 0 0
0.466667 0 0
0.5 0 0
0.533333 0 0
0.566667 0 0
0.6 0 0
0.633333 0 0
0.666667 0 0
0.7 0 0
0.733333 0 0
0.766667 0 0
0.8 0 0
0.833333 0 0
0.866667 0 0
0.9 0 0
0.933333 0 0
0.966667 0 0
1 0.0333333 0
1 0.0666667 0
1 0.1 0
1 0.133333 0
1 0.166667 0
1 0.2 0
1 0.233333 0
1 0.266667 0
1 0.3 0
1 0.333333 0
1 0.366667 0
1 0.4 0
1 0.433333 0
1 0.466667 0
1 0.5 0
1 0.533333 0
1 0.566667 0
1 0.6 0
1 0.633333 0
1 0.666667 0
1 0.7 0
1 0.733333 0
1 0.766667 0
1 0.8 0
1 0.833333 0
1 0.866667 0
1 0.9 0
1 0.933333 0
1 0.966667 0
0.966667 1 0
0.933333 1 0
0.9 1 0
0.866667 1 0
0.833333 1 0
0.8 1 0
0.766667 1 0
0.733333 1 0
0.7 1 0
0.666667 1 0
0.633333 1 0
0.6 1 0
0.566667 1 0
0.533333 1 0
0.5 1 0
0.466667 1 0
0.433333 1 0
0.4 1 0
0.366667 1 0
0.333333 1 0
0.3 1 0
0.266667 1 0
0.233333 1 0
0.2 1 0
0.166667 1 0
0.133333 1 0
0.1 1 0
0.0666667 1 0
0.0333333 1 0
0 0.966667 0
0 0.933333 0
0 0.9 0
0 0.866667 0
0 0.833333 0
0 0.8 0
0 0.766667 0
0 0.733333 0
0 0.7 0
0 0.666667 0
0 0.633333 0
0 0.6 0
0 0.566667 0
0 0.533333 0
0 0.5 0
0 0.466667 0
0 0.433333 0
0 0.4 0
0 0.366667 0
0 0.333333 0
0 0.3 0
0 0.266667 0
0 0.233333 0
0 0.2 0
0 0.166667 0
0 0.133333 0
0 0.1 0
0 0.0666667 0
0 0.0333333 0
0.0333333 0.0333333 0
0.0333333 0.0666667 0
0.0333333 0.1 0
0.0333333 0.133333 0
0.0333333 0.166667 0
0.0333333 0.2 0
0.0333333 0.233333 0
0.0333333 0.266667 0
0.0333333 0.3 0
0.0333333 0.333333 0
0.0333333 0.366667 0
0.0333333 0.4 0
0.0333333 0.433333 0
0.0333333 0.466667 0
0.0333333 0.5 0
0.0333333 0.533333 0
0.0333333 0.566667 0
0.0333333 0.6 0
0.0333333 0.633333 0
0.0333333 0.666667 0
0.0333333 0.7 0
0.0333333 0.733333 0
0.0333333 0.766667 0
0.0333333 0.8 0
0.0333333 0.833333 0
0.0333333 0.866667 0
0.0333333 0.9 0
0.0333333 0.933333 0
0.0333333 0.966667 0
0.0666667 0.0333333 0
0.0666667 0.0666667 0
0.0666667 0.1 0
0.0666667 0.133333 0
0.0666667 0.166667 0
0.0666667 0.2 0
0.0666667 0.233333 0
0.0666667 0.266667 0
0.0666667 0.3 0
0.0666667 0.333333 0
0.0666667 0.366667 0
0.0666667 0.4 0
0.0666667 0.433333 0
0.0666667 0.466667 0
0.0666667 0.5 0
0.0666667 0.533333 0
0.0666667 0.566667 0
0.0666667 0.6 0
0.0666667 0.633333 0
0.0666667 0.666667 0
0.0666667 0.7 0
0.0666667 0.733333 0
0.0666667 0.766667 0
0.0666667 0.8 0
0.0666667 0.833333 0
0.0666667 0.866667 0
0.0666667 0.9 0
0.0666667 0.933333 0
0.0666667 0.966667 0
0.1 0.0333333 0
0.1 0.0666667 0
0.1 0.1 0
0.1 0.133333 0
0.1 0.166667 0
0.1 0.2 0
0.1 0.233333 0
0.1 0.266667 0
0.1 0.3 0
0.1 0.333333 0
0.1 0.366667 0
0.1 0.4 0
0.1 0.433333 0
0.1 0.466667 0
0.1 0.5 0
0.1 0.533333 0
0.1 0.566667 0
0.1 0.6 0
0.1 0.633333 0
0.1 0.666667 0
0.1 0.7 0
0.1 0.733333 0
0.1 0.766667 0
0.1 0.8 0
0.1 0.833333 0
0.1 0.866667 0
0.1 0.9 0
0.1 0.933333 0
0.1 0.966667 0
0.133333 0.0333333 0
0.133333 0.0666667 0
0.133333 0.1 0
0.133333 0.133333 0
0.133333 0.166667 0
0.133333 0.2 0
0.133333 0.233333 0
0.133333 0.266667 0
0.133333 0.3 0
0.133333 0.333333 0
0.133333 0.366667 0
0.133333 0.4 0
0.133333 0.433333 0
0.133333 0.466667 0
0.133333 0.5 0
0.133333 0.533333 0
0.133333 0.566667 0
0.133333 0.6 0
0.133333 0.633333 0
0.133333 0.666667 0
0.133333 0.7 0
0.133333 0.733333 0
0.133333 0.766667 0
0.133333 0.8 0
0.133333 0.833333 0
0.133333 0.866667 0
0.133333 0.9 0
0.133333 0.933333 0
0.133333 0.966667 0
0.166667 0.0333333 0
0.166667 0.0666667 0
0.166667 0.1 0
0.166667 0.133333 0
0.166667 0.166667 0
0.166667 0.2 0
0.166667 0.233333 0
0.166667 0.266667 0
0.166667 0.3 0
0.166667 0.333333 0
0.166667 0.366667 0
0.166667 0.4 0
0.166667 0.433333 0
0.166667 0.466667 0
0.166667 0.5 0
0.166667 0.533333 0
0.166667 0.566667 0
0.166667 0.6 0
0.166667 0.633333 0
0.166667 0.666667 0
0.166667 0.7 0
0.166667 0.733333 0
0.166667 0.766667 0
0.166667 0.8 0
0.166667 0.833333 0
0.166667 0.866667 0
0.166667 0.9 0
0.166667 0.933333 0
0.166667 0.966667 0
0.2 0.0333333 0
0.2 0.0666667 0
0.2 0.1 0
0.2 0.133333 0
0.2 0.166667 0
0.2 0.2 0
0.2 0.233333 0
0.2 0.266667 0
0.2 0.3 0
0.2 0.333333 0
0.2 0.366667 0
0.2 0.4 0
0.2 0.433333 0
0.2 0.466667 0
0.2 0.5 0
0.2 0.533333 0
0.2 0.566667 0
0.2 0.6 0
0.2 0.633333 0
0.2 0.666667 0
0.2 0.7 0
0.2 0.733333 0
0.2 0.766667 0
0.2 0.8 0
0.2 0.833333 0
0.2 0.866667 0
0.2 0.9 0
0.2 0.933333 0
0.2 0.966667 0
0.233333 0.0333333 0
0.233333 0.0666667 0
0.233333 0.1 0
0.233333 0.133333 0
0.233333 0.166667 0
0.233333 0.2 0
0.233333 0.233333 0
0.233333 0.266667 0
0.233333 0.3 0
0.233333 0.333333 0
0.233333 0.366667 0
0.233333 0.4 0
0.233333 0.433333 0
0.233333 0.466667 0
0.233333 0.5 0
0.233333 0.533333 0
0.233333 0.566667 0
0.233333 0.6 0
0.233333 0.633333 0
0.233333 0.666667 0
0.233333 0.7 0
0.233333 0.733333 0
0.233333 0.766667 0
0.233333 0.8 0
0.233333 0.833333 0
0.233333 0.866667 0
0.233333 0.9 0
0.233333 0.933333 0
0.233333 0.966667 0
0.266667 0.0333333 0
0.266667 0.0666667 0
0.266667 0.1 0
0.266667 0.133333 0
0.266667 0.166667 0
0.266667 0.2 0
0.266667 0.233333 0
0.266667 0.266667 0
0.266667 0.3 0
0.266667 0.333333 0
0.266667 0.366667 0
0.266667 0.4 0
0.266667 0.433333 0
0.266667 0.466667 0
0.266667 0.5 0
0.266667 0.533333 0
0.266667 0.566667 0
0.266667 0.6 0
0.266667 0.633333 0
0.266667 0.666667 0
0.266667 0.7 0
0.266667 0.733333 0
0.266667 0.766667 0
0.266667 0.8 0
0.266667 0.833333 0
0.266667 0.866667 0
0.266667 0.9 0
0.266667 0.933333 0
0.266667 0.966667 0
0.3 0.0333333 0
0.3 0.0666667 0
0.3 0.1 0
0.3 0.133333 0
0.3 0.166667 0
0.3 0.2 0
0.3 0.233333 0
0.3 0.266667 0
0.3 0.3 0
0.3 0.333333 0
0.3 0.366667 0
0.3 0.4 0
0.3 0.433333 0
0.3 0.466667 0
0.3 0.5 0
0.3 0.533333 0
0.3 0.566667 0
0.3 0.6 0
0.3 0.633333 0
0.3 0.666667 0
0.3 0.7 0
0.3 0.733333 0
0.3 0.766667 0
0.3 0.8 0
0.3 0.833333 0
0.3 0.866667 0
0.3 0.9 0
0.3 0.933333 0
0.3 0.966667 0
0.333333 0.0333333 0
0.333333 0.0666667 0
0.333333 0.1 0
0.333333 0.133333 0
0.333333 0.166667 0
0.333333 0.2 0
0.333333 0.233333 0
0.333333 0.266667 0
0.333333 0.3 0
0.333333 0.333333 0
0.333333 0.366667 0
0.333333 0.4 0
0.333333 0.433333 0
0.333333 0.466667 0
0.333333 0.5 0
0.333333 0.533333 0
0.333333 0.566667 0
0.333333 0.6 0
0.333333 0.633333 0
0.333333 0.666667 0
0.333333 0.7 0
0.333333 0.733333 0
0.333333 0.766667 0
0.333333 0.8 0
0.333333 0.833333 0
0.333333 0.866667 0
0.333333 0.9 0
0.333333 0.933333 0
0.333333 0.966667 0
0.366667 0.0333333 0
0.366667 0.0666667 0
0.366667 0.1 0
0.366667 0.133333 0
0.366667 0.166667 0
0.366667 0.2 0
0.366667 0.233333 0
0.366667 0.266667 0
0.366667 0.3 0
0.366667 0.333333 0
0.366667 0.366667 0
0.366667 0.4 0
0.366667 0.433333 0
0.366667 0.466667 0
0.366667 0.5 0
0.366667 0.533333 0
0.366667 0.566667 0
0.366667 0.6 0
0.366667 0.633333 0
0.366667 0.666667 0
0.366667 0.7 0
0.366667 0.733333 0
0.366667 0.766667 0
0.366667 0.8 0
0.366667 0.833333 0
0.366667 0.866667 0
0.366667 0.9 0
0.366667 0.933333 0
0.366667 0.966667 0
0.4 0.0333333 0
0.4 0.0666667 0
0.4 0.1 0
0.4 0.133333 0
0.4 0.166667 0
0.4 0.2 0
0.4 0.233333 0
0.4 0.266667 0
0.4 0.3 0
0.4 0.333333 0
0.4 0.366667 0
0.4 0.4 0
0.4 0.433333 0
0.4 0.466667 0
0.4 0.5 0
0.4 0.533333 0
0.4 0.566667 0
0.4 0.6 0
0.4 0.633333 0
0.4 0.666667 0
0.4 0.7 0
0.4 0.733333 0
0.4 0.766667 0
0.4 0.8 0
0.4 0.833333 0
0.4 0.866667 0
0.4 0.9 0
0.4 0.933333 0
0.4 0.966667 0
0.433333 0.0333333 0
0.433333 0.0666667 0
0.433333 0.1 0
0.433333 0.133333 0
0.433333 0.166667 0
0.433333 0.2 0
0.433333 0.233333 0
0.433333 0.266667 0
0.433333 0.3 0
0.433333 0.333333 0
0.433333 0.366667 0
0.433333 0.4 0
0.433333 0.433333 0
0.433333 0.466667 0
0.433333 0.5 0
0.433333 0.533333 0
0.433333 0.566667 0
0.433333 0.6 0
0.433333 0.633333 0
0.433333 0.666667 0
0.433333 0.7 0
0.433333 0.733333 0
0.433333 0.766667 0
0.433333 0.8 0
0.433333 0.833333 0
0.433333 0.866667 0
0.433333 0.9 0
0.433333 0.933333 0
0.433333 0.966667 0
0.466667 0.0333333 0
0.466667 0.0666667 0
0.466667 0.1 0
0.466667 0.133333 0
0.466667 0.166667 0
0.466667 0.2 0
0.466667 0.233333 0
0.466667 0.266667 0
0.466667 0.3 0
0.466667 0.333333 0
0.466667 0.366667 0
0.466667 0.4 0
0.466667 0.433333 0
0.466667 0.466667 0
0.466667 0.5 0
0.466667 0.533333 0
0.466667 0.566667 0
0.466667 0.6 0
0.466667 0.633333 0
0.466667 0.666667 0
0.466667 0.7 0
0.466667 0.733333 0
0.466667 0.766667 0
0.466667 0.8 0
0.466667 0.833333 0
0.466667 0.866667 0
0.466667 0.9 0
0.466667 0.933333 0
0.466667 0.966667 0
0.5 0.0333333 0
0.5 0.0666667 0
0.5 0.1 0
0.5 0.133333 0
0.5 0.166667 0
0.5 0.2 0
0.5 0.233333 0
0.5 0.266667 0
0.5 0.3 0
0.5 0.333333 0
0.5 0.366667 0
0.5 0.4 0
0.5 0.433333 0
0.5 0.466667 0
0.5 0.5 0
0.5 0.533333 0
0.5 0.566667 0
0.5 0.6 0
0.5 0.633333 0
0.5 0.666667 0
0.5 0.7 0
0.5 0.733333 0
0.5 0.766667 0
0.5 0.8 0
0.5 0.833333 0
0.5 0.866667 0
0.5 0.9 0
0.5 0.933333 0
0.5 0.966667 0
0.533333 0.0333333 0
0.533333 0.0666667 0
0.533333 0.1 0
0.533333 0.133333 0
0.533333 0.166667 0
0.533333 0.2 0
0.533333 0.233333 0
0.533333 0.266667 0
0.533333 0.3 0
0.533333 0.333333 0
0.533333 0.366667 0
0.533333 0.4 0
0.533333 0.433333 0
0.533333 0.466667 0
0.533333 0.5 0
0.533333 0.533333 0
0.533333 0.566667 0
0.533333 0.6 0
0.533333 0.633333 0
0.533333 0.666667 0
0.533333 0.7 0
0.533333 0.733333 0
0.533333 0.766667 0
0.533333 0.8 0
0.533333 0.833333 0
0.533333 0.866667 0
0.533333 0.9 0
0.533333 0.933333 0
0.533333 0.966667 0
0.566667 0.0333333 0
0.566667 0.0666667 0
0.566667 0.1 0
0.566667 0.133333 0
0.566667 0.166667 0
0.566667 0.2 0
0.566667 0.233333 0
0.566667 0.266667 0
0.566667 0.3 0
0.566667 0.333333 0
0.566667 0.366667 0
0.566667 0.4 0
0.566667 0.433333 0
0.566667 0.466667 0
0.566667 0.5 0
0.566667 0.533333 0
0.566667 0.566667 0
0.566667 0.6 0
0.566667 0.633333 0
0.566667 0.666667 0
0.566667 0.7 0
0.566667 0.733333 0
0.566667 0.766667 0
0.566667 0.8 0
0.566667 0.833333 0
0.566667 0.866667 0
0.566667 0.9 0
0.566667 0.933333 0
0.566667 0.966667 0
0.6 0.0333333 0
0.6 0.0666667 0
0.6 0.1 0
0.6 0.133333 0
[...]
CELL_DATA 900
VECTORS velocity double
7.114e-05 -6.99988e-05 0.0
-4.14139e-06 -2.14969e-05 0.0
-7.89044e-05 0.000320598 0.0
-0.000138594 0.000882585 0.0
-0.00017656 0.00162935 0.0
-0.000201962 0.00250513 0.0
-0.000220504 0.00348614 0.0
-0.000237176 0.0045581 0.0
-0.000254939 0.00572156 0.0
-0.000275784 0.00698515 0.0
-0.000301013 0.00836469 0.0
-0.000331705 0.0098814 0.0
-0.000369015 0.011562 0.0
-0.000414501 0.0134393 0.0
-0.000470497 0.0155545 0.0
-0.000540642 0.0179601 0.0
-0.00063073 0.0207252 0.0
-0.000750167 0.0239425 0.0
-0.000914657 0.0277396 0.0
-0.00115171 0.0322949 0.0
-0.00151221 0.0378645 0.0
-0.00209632 0.0448285 0.0
-0.00310695 0.0537805 0.0
-0.00496098 0.0656774 0.0
-0.00845561 0.0822078 0.0
-0.0149825 0.105897 0.0
-0.0257185 0.141939 0.0
-0.0381933 0.189112 0.0
-0.0135762 0.262268 0.0
0.216722 0.173862 0.0
1.95268e-05 8.2709e-06 0.0
-0.000424715 0.000426917 0.0
-0.000858982 0.00144812 0.0
-0.00122879 0.00290641 0.0
-0.00151073 0.00476341 0.0
-0.00173166 0.00692616 0.0
-0.00191693 0.00935272 0.0
-0.00209128 0.012017 0.0
-0.00227353 0.0149206 0.0
-0.00247831 0.0180831 0.0
-0.00271717 0.0215402 0.0
-0.00300052 0.0253408 0.0
-0.00333936 0.0295469 0.0
-0.00374728 0.0342347 0.0
-0.0042425 0.0394983 0.0
-0.00485051 0.0454551 0.0
-0.00560744 0.0522533 0.0
-0.00656456 0.0600818 0.0
-0.00779477 0.0691815 0.0
-0.00940289 0.079857 0.0
-0.0115431 0.0924859 0.0
-0.0144524 0.107518 0.0
-0.0185039 0.125452 0.0
-0.0242981 0.146737 0.0
-0.0326709 0.171543 0.0
-0.0445348 0.198909 0.0
-0.0584415 0.225603 0.0
-0.0651714 0.240042 0.0
-0.00325219 0.218257 0.0
0.304826 0.116305 0.0
-0.0003256 8.25161e-05 0.0
-0.00144255 0.000841133 0.0
-0.00248934 0.00243994 0.0
-0.00338374 0.00459268 0.0
-0.00409862 0.00726492 0.0
-0.00468152 0.0103436 0.0
-0.00518671 0.0137827 0.0
-0.00566844 0.0175535 0.0
-0.00617136 0.0216606 0.0
-0.00673152 0.0261306 0.0
-0.00737839 0.0310104 0.0
-0.00813857 0.036363 0.0
-0.00903967 0.042267 0.0
-0.0101143 0.0488171 0.0
-0.0114045 0.0561266 0.0
-0.0129658 0.0643315 0.0
-0.0148728 0.0735945 0.0
-0.0172235 0.0841094 0.0
-0.0201441 0.0961012 0.0
-0.0237916 0.109819 0.0
-0.0283538 0.125513 0.0
-0.0340437 0.143374 0.0
-0.0410662 0.163421 0.0
-0.049527 0.185279 0.0
-0.0590252 0.207698 0.0
-0.0676538 0.227842 0.0
-0.0679851 0.239088 0.0
-0.03852 0.23092 0.0
0.0916 0.173574 0.0
0.475807 0.0769796 0.0
-0.000872501 0.000137506 0.0
-0.00284848 0.00115717 0.0
-0.00461206 0.00318698 0.0
-0.00609636 0.0058281 0.0
-0.00730006 0.00904867 0.0
-0.00829925 0.0127227 0.0
-0.00918059 0.0168066 0.0
-0.010029 0.0212725 0.0
-0.010916 0.026129 0.0
-0.0118998 0.0314063 0.0
-0.0130284 0.0371554 0.0
-0.0143444 0.0434434 0.0
-0.015891 0.0503518 0.0
-0.0177169 0.0579756 0.0
-0.0198821 0.0664242 0.0
-0.0224624 0.0758213 0.0
-0.025553 0.0863047 0.0
-0.029269 0.0980219 0.0
-0.0337412 0.111118 0.0
-0.0391007 0.125711 0.0
-0.0454477 0.141838 0.0
-0.0527917 0.159363 0.0
-0.0609282 0.177808 0.0
-0.0691971 0.196115 0.0
-0.0758407 0.212108 0.0
-0.076603 0.222129 0.0
-0.0605258 0.219106 0.0
-0.00060422 0.194908 0.0
0.167929 0.129333 0.0
0.574823 0.0491613 0.0
-0.0015655 0.000165299 0.0
-0.00455414 0.00134275 0.0
-0.00711989 0.00363963 0.0
-0.00924356 0.00657348 0.0
-0.0109731 0.0101101 0.0
-0.0124225 0.0141131 0.0
-0.0137151 0.0185415 0.0
-0.0149679 0.0233695 0.0
-0.0162794 0.0286081 0.0
-0.0177298 0.0342887 0.0
-0.0193843 0.0404621 0.0
-0.0213002 0.0471928 0.0
-0.0235329 0.0545565 0.0
-0.0261427 0.062638 0.0
-0.0291998 0.0715292 0.0
-0.0327882 0.0813261 0.0
-0.0370056 0.0921244 0.0
-0.0419573 0.104008 0.0
-0.0477388 0.117029 0.0
-0.0543989 0.131171 0.0
-0.0618728 0.146285 0.0
-0.0698672 0.161992 0.0
-0.0776557 0.177499 0.0
-0.0837166 0.19141 0.0
-0.0849465 0.201234 0.0
-0.0750935 0.20335 0.0
-0.0407043 0.191397 0.0
0.0467608 0.159838 0.0
0.242052 0.0962019 0.0
0.647062 0.03091 0.0
-0.00232452 0.000175518 0.0
-0.00640682 0.00142372 0.0
-0.00981096 0.00384045 0.0
-0.0125846 0.00689645 0.0
-0.0148408 0.0105535 0.0
-0.0167395 0.0146687 0.0
-0.0184445 0.0192033 0.0
-0.0201047 0.0241333 0.0
-0.0218449 0.0294709 0.0
-0.0237647 0.0352473 0.0
-0.0259445 0.0415105 0.0
-0.0284522 0.0483191 0.0
-0.0313512 0.0557392 0.0
-0.0347065 0.0638409 0.0
-0.0385897 0.0726941 0.0
-0.0430803 0.0823639 0.0
-0.0482612 0.0929017 0.0
-0.054205 0.104331 0.0
-0.0609424 0.116622 0.0
-0.068405 0.129652 0.0
-0.0763258 0.143139 0.0
-0.0840801 0.156549 0.0
-0.0904234 0.168926 0.0
-0.0930598 0.178769 0.0
-0.0878089 0.183594 0.0
-0.0670663 0.180236 0.0
-0.016165 0.163212 0.0
0.0923039 0.129879 0.0
0.304566 0.0725083 0.0
0.698456 0.0196801 0.0
-0.00310258 0.000173955 0.0
-0.0083055 0.00142438 0.0
-0.0125529 0.00384046 0.0
-0.0159685 0.00687913 0.0
-0.0187377 0.010499 0.0
-0.0210715 0.0145556 0.0
-0.0231759 0.0190124 0.0
-0.0252323 0.0238469 0.0
-0.0273895 0.0290724 0.0
-0.0297652 0.0347186 0.0
-0.0324514 0.0408299 0.0
-0.0355238 0.0474583 0.0
-0.0390489 0.0546596 0.0
-0.043091 0.0624889 0.0
-0.0477154 0.0709957 0.0
-0.0529874 0.080217 0.0
-0.058963 0.0901667 0.0
-0.0656668 0.10082 0.0
-0.0730483 0.112085 0.0
-0.0809048 0.123767 0.0
-0.0887563 0.135501 0.0
-0.095651 0.146671 0.0
-0.0998657 0.15627 0.0
-0.098438 0.162821 0.0
-0.0863556 0.163998 0.0
-0.0550812 0.157217 0.0
0.010446 0.137774 0.0
0.134905 0.105538 0.0
0.357478 0.055279 0.0
0.735949 0.0126983 0.0
-0.00386137 0.000165671 0.0
-0.0101626 0.00136858 0.0
-0.0152277 0.00369151 0.0
-0.0192579 0.00660389 0.0
-0.0225126 0.0100634 0.0
-0.0252558 0.0139296 0.0
-0.0277361 0.0181687 0.0
-0.0301662 0.0227606 0.0
-0.0327178 0.0277191 0.0
-0.0355237 0.0330731 0.0
-0.0386858 0.0388633 0.0
-0.0422838 0.0451358 0.0
-0.046384 0.0519377 0.0
-0.0510453 0.0593117 0.0
-0.0563209 0.0672909 0.0
-0.0622551 0.0758905 0.0
-0.0688686 0.0850967 0.0
-0.0761294 0.0948497 0.0
-0.0838974 0.105017 0.0
-0.0918312 0.115358 0.0
-0.0992421 0.125463 0.0
-0.104874 0.134685 0.0
-0.106584 0.142024 0.0
-0.100865 0.146088 0.0
-0.0821013 0.144798 0.0
-0.0412233 0.136037 0.0
0.0363855 0.116209 0.0
0.173053 0.0861866 0.0
0.401629 0.0427527 0.0
0.763832 0.00836042 0.0
-0.00457694 0.00015331 0.0
-0.0119174 0.00127279 0.0
-0.0177506 0.00343311 0.0
-0.0223538 0.00613565 0.0
-0.0260576 0.00933972 0.0
-0.0291782 0.0129143 0.0
-0.0320055 0.0168294 0.0
-0.0347823 0.0210686 0.0
-0.0377012 0.0256469 0.0
-0.0409086 0.0305925 0.0
-0.0445133 0.0359437 0.0
-0.0485973 0.0417425 0.0
-0.0532239 0.0480296 0.0
-0.0584433 0.0548394 0.0
-0.0642932 0.0621939 0.0
-0.0707923 0.0700941 0.0
-0.0779215 0.0785084 0.0
-0.0855874 0.0873557 0.0
-0.0935572 0.0964794 0.0
-0.101352 0.105613 0.0
-0.108086 0.114326 0.0
-0.112225 0.121972 0.0
-0.111269 0.127587 0.0
-0.101274 0.129889 0.0
-0.0762104 0.127068 0.0
-0.0267872 0.117388 0.0
0.0609164 0.0982076 0.0
0.206905 0.0708036 0.0
0.438489 0.0335152 0.0
0.784999 0.00563208 0.0
-0.00523162 0.000138344 0.0
-0.0135232 0.00114801 0.0
-0.0200556 0.00309319 0.0
-0.0251776 0.00552154 0.0
-0.0292862 0.00839642 0.0
-0.0327473 0.0116006 0.0
-0.0358897 0.01511 0.0
-0.0389838 0.0189125 0.0
-0.0422414 0.0230254 0.0
-0.0458205 0.0274772 0.0
-0.0498359 0.0323055 0.0
-0.0543698 0.0375499 0.0
-0.0594812 0.0432483 0.0
-0.0652099 0.049431 0.0
-0.0715761 0.0561148 0.0
-0.0785705 0.0632941 0.0
-0.0861316 0.0709292 0.0
-0.0941026 0.0789288 0.0
-0.102157 0.0871247 0.0
-0.109683 0.0952391 0.0
-0.115607 0.102837 0.0
-0.118149 0.109281 0.0
-0.114504 0.113659 0.0
-0.100395 0.114794 0.0
-0.0695206 0.11113 0.0
-0.0125827 0.101231 0.0
0.0835178 0.0832115 0.0
0.236636 0.0585307 0.0
0.469276 0.0266146 0.0
0.80136 0.00389204 0.0
-0.00581264 0.000121345 0.0
-0.0149452 0.00100071 0.0
-0.0220923 0.00268968 0.0
-0.0276688 0.00479304 0.0
-0.0321319 0.00728007 0.0
-0.035893 0.0100513 0.0
-0.0393164 0.0130895 0.0
-0.0426976 0.016389 0.0
-0.0462654 0.0199696 0.0
-0.0501882 0.0238617 0.0
-0.0545856 0.0281033 0.0
-0.0595398 0.0327345 0.0
-0.0651047 0.0377935 0.0
-0.0713095 0.043311 0.0
-0.0781563 0.0493047 0.0
-0.0856071 0.0557699 0.0
-0.0935569 0.0626674 0.0
-0.101784 0.0699055 0.0
-0.10987 0.0773146 0.0
-0.117069 0.0846149 0.0
-0.122132 0.0913735 0.0
-0.123058 0.0969655 0.0
-0.116783 0.100525 0.0
-0.0987802 0.100967 0.0
-0.0625884 0.0969605 0.0
0.000970455 0.0872749 0.0
0.104046 0.0707008 0.0
0.262619 0.0486715 0.0
0.495059 0.0213853 0.0
0.81422 0.00276257 0.0
-0.00630941 0.000102482 0.0
-0.0161553 0.0008346 0.0
-0.0238202 0.00223383 0.0
-0.0297783 0.00397069 0.0
-0.0345403 0.00602183 0.0
-0.0385579 0.00830851 0.0
-0.0422265 0.0108217 0.0
-0.0458637 0.0135628 0.0
-0.0497137 0.0165555 0.0
-0.0539539 0.0198328 0.0
-0.0587084 0.0234349 0.0
-0.0640597 0.0274045 0.0
-0.0700575 0.0317833 0.0
-0.0767211 0.0366073 0.0
-0.0840352 0.0419006 0.0
-0.0919337 0.0476668 0.0
-0.100268 0.0538754 0.0
-0.108752 0.0604434 0.0
-0.11687 0.0672081 0.0
-0.123747 0.0738939 0.0
-0.127963 0.0800723 0.0
-0.127311 0.0851281 0.0
-0.118509 0.0882304 0.0
-0.0968484 0.0883646 0.0
-0.0557941 0.0843753 0.0
0.0135692 0.0752423 0.0
0.122482 0.0602295 0.0
0.285247 0.0406931 0.0
0.516714 0.0173665 0.0
0.824479 0.00201492 0.0
-0.00671271 8.17411e-05 0.0
-0.0171297 0.000651861 0.0
-0.0252053 0.00173291 0.0
-0.0314653 0.00306837 0.0
-0.0364662 0.0046432 0.0
-0.0406938 0.00640163 0.0
-0.0445699 0.00834357 0.0
-0.0484312 0.0104785 0.0
-0.0525349 0.0128341 0.0
-0.0570671 0.0154469 0.0
-0.0621568 0.0183606 0.0
-0.0678877 0.0216225 0.0
-0.074307 0.0252809 0.0
-0.0814266 0.0293812 0.0
-0.0892158 0.0339601 0.0
-0.0975822 0.0390361 0.0
-0.106335 0.044596 0.0
-0.115119 0.0505742 0.0
-0.123323 0.0568226 0.0
-0.129938 0.0630752 0.0
-0.133372 0.0689087 0.0
-0.131225 0.0737121 0.0
-0.120025 0.0766738 0.0
-0.0949371 0.0768313 0.0
-0.0494414 0.0731518 0.0
0.0250177 0.0648324 0.0
0.1389 0.0513867 0.0
0.304908 0.0341656 0.0
0.534958 0.0142252 0.0
0.83277 0.00150742 0.0
-0.00701402 5.9074e-05 0.0
-0.0178478 0.000454055 0.0
-0.0262186 0.00119241 0.0
-0.0326951 0.00209678 0.0
-0.0378707 0.00316088 0.0
-0.0422588 0.00435353 0.0
-0.0463025 0.00568388 0.0
-0.0503539 0.0071695 0.0
-0.0546815 0.00884248 0.0
-0.0594798 0.010743 0.0
-0.0648833 0.0129189 0.0
-0.0709795 0.0154236 0.0
-0.0778158 0.0183148 0.0
-0.0854001 0.0216513 0.0
-0.0936902 0.0254874 0.0
-0.10257 0.0298638 0.0
-0.111808 0.0347932 0.0
-0.120981 0.0402366 0.0
-0.129374 0.0460688 0.0
-0.135838 0.0520393 0.0
-0.138605 0.0577317 0.0
-0.135084 0.0625334 0.0
-0.121633 0.0656358 0.0
-0.0933365 0.0661037 0.0
-0.0437645 0.0629889 0.0
0.0352478 0.0556448 0.0
0.153401 0.043771 0.0
0.32194 0.028712 0.0
0.550353 0.0117048 0.0
0.839534 0.00114812 0.0
-0.00720562 3.44828e-05 0.0
-0.0182917 0.000242728 0.0
-0.0268356 0.000617507 0.0
-0.0334382 0.00106587 0.0
-0.038721 0.00159039 0.0
-0.0432171 0.00218532 0.0
-0.0473852 0.00286873 0.0
-0.0515895 0.00366599 0.0
-0.0561079 0.00461291 0.0
-0.061143 0.00575306 0.0
-0.0668367 0.00713837 0.0
-0.073283 0.00882936 0.0
-0.080534 0.0108948 0.0
-0.0885984 0.01341 0.0
-0.0974278 0.0164522 0.0
-0.106888 0.0200906 0.0
-0.116709 0.024373 0.0
-0.126397 0.0292971 0.0
-0.13513 0.0347696 0.0
-0.141606 0.0405644 0.0
-0.143873 0.0462763 0.0
-0.139137 0.0512882 0.0
-0.1236 0.0547803 0.0
-0.0922987 0.0558172 0.0
-0.0389532 0.053497 0.0
0.0441692 0.0472759 0.0
0.166043 0.0370039 0.0
0.336596 0.0240014 0.0
0.563314 0.00959957 0.0
0.845067 0.00087496 0.0
-0.00728021 7.99136e-06 0.0
-0.0184457 1.96984e-05 0.0
-0.027035 1.40703e-05 0.0
-0.03367 -1.33441e-05 0.0
-0.0389889 -5.14534e-05 0.0
-0.0435369 -8.03072e-05 0.0
-0.0477823 -7.37583e-05 0.0
-0.0520972 3.51877e-07 0.0
-0.0567676 0.000180118 0.0
-0.0620042 0.000511237 0.0
-0.0679586 0.00104897 0.0
-0.0747351 0.00186042 0.0
-0.0823961 0.00302614 0.0
-0.0909578 0.00463999 0.0
-0.100372 0.00680599 0.0
-0.110493 0.0096278 0.0
-0.121015 0.0131983 0.0
-0.131379 0.0175624 0.0
-0.140644 0.0226695 0.0
-0.14735 0.0283299 0.0
-0.149337 0.0341603 0.0
-0.143596 0.0395418 0.0
-0.126168 0.0436368 0.0
-0.0920603 0.0454842 0.0
-0.0351955 0.0441922 0.0
0.0516855 0.0392652 0.0
0.176845 0.0306764 0.0
0.349038 0.0197049 0.0
0.574115 0.00772432 0.0
0.849551 0.000640949 0.0
-0.00723217 -2.01193e-05 0.0
-0.0182985 -0.000212543 0.0
-0.0268021 -0.000610826 0.0
-0.0333725 -0.00112767 0.0
-0.0386538 -0.00174412 0.0
-0.0431944 -0.00241529 0.0
-0.0474654 -0.00310857 0.0
-0.0518427 -0.00378695 0.0
-0.0566179 -0.00441221 0.0
-0.0620107 -0.00493876 0.0
-0.0681844 -0.00531022 0.0
-0.0752582 -0.00545465 0.0
-0.0833112 -0.00528063 0.0
-0.0923755 -0.00467493 0.0
-0.102414 -0.00350352 0.0
-0.113278 -0.00162101 0.0
-0.124647 0.00111475 0.0
-0.135875 0.00479926 0.0
-0.145905 0.00944411 0.0
-0.153105 0.014917 0.0
-0.155092 0.0208741 0.0
-0.148623 0.0267056 0.0
-0.129551 0.0315623 0.0
-0.0928591 0.0344433 0.0
-0.0327062 0.0344354 0.0
0.0576438 0.0310333 0.0
0.185738 0.0243023 0.0
0.359307 0.0154588 0.0
0.582875 0.00588982 0.0
0.853059 0.000404703 0.0
-0.00705669 -4.94586e-05 0.0
-0.0178411 -0.000450593 0.0
-0.0261261 -0.00124769 0.0
-0.0325343 -0.00225972 0.0
-0.0377021 -0.00346102 0.0
-0.0421719 -0.00478347 0.0
-0.0464105 -0.00619039 0.0
-0.0507932 -0.00764261 0.0
-0.0556154 -0.00910464 0.0
-0.0611056 -0.0105342 0.0
-0.0674419 -0.0118774 0.0
-0.0747636 -0.013061 0.0
-0.0831745 -0.0139859 0.0
-0.0927331 -0.0145217 0.0
-0.103424 -0.0145051 0.0
-0.115108 -0.013746 0.0
-0.127433 -0.0120523 0.0
-0.139708 -0.00925926 0.0
-0.150766 -0.00527771 0.0
-0.158793 -0.00016818 0.0
-0.161139 0.00578509 0.0
-0.154291 0.0120172 0.0
-0.13391 0.0177072 0.0
-0.0949376 0.0218124 0.0
-0.0317649 0.0233733 0.0
0.0617843 0.0218156 0.0
0.192519 0.0172551 0.0
0.367275 0.010817 0.0
0.58953 0.00387954 0.0
0.855547 0.000124123 0.0
-0.00675157 -7.95834e-05 0.0
-0.017071 -0.000689716 0.0
-0.0250056 -0.00188331 0.0
-0.0311542 -0.0033861 0.0
-0.0361317 -0.00516714 0.0
-0.040464 -0.00713757 0.0
-0.0446061 -0.00925933 0.0
-0.0489277 -0.0114943 0.0
-0.0537256 -0.0138134 0.0
-0.059237 -0.0161821 0.0
-0.0656566 -0.018554 0.0
-0.0731487 -0.0208608 0.0
-0.0818495 -0.0230024 0.0
-0.0918555 -0.0248381 0.0
-0.103189 -0.0261812 0.0
-0.115733 -0.0268017 0.0
-0.129134 -0.0264445 0.0
-0.142651 -0.0248647 0.0
-0.155 -0.0218832 0.0
-0.164172 -0.0174739 0.0
-0.16729 -0.0118321 0.0
-0.160574 -0.00542799 0.0
-0.13937 0.000988104 0.0
-0.0985171 0.00641405 0.0
-0.0326703 0.00986053 0.0
0.0637588 0.0106053 0.0
0.196801 0.00872766 0.0
0.372568 0.00521394 0.0
0.593777 0.00142321 0.0
0.856851 -0.000251925 0.0
-0.00631732 -0.000109718 0.0
-0.015993 -0.000923334 0.0
-0.023449 -0.00250019 0.0
-0.0292431 -0.00447615 0.0
-0.0339534 -0.00681676 0.0
-0.0380785 -0.00941564 0.0
-0.042054 -0.0122362 0.0
-0.0462385 -0.0152451 0.0
-0.0509269 -0.0184235 0.0
-0.0563639 -0.0217502 0.0
-0.0627618 -0.025193 0.0
-0.0703133 -0.0286968 0.0
-0.0791946 -0.0321709 0.0
-0.0895511 -0.0354762 0.0
-0.101457 -0.0384144 0.0
-0.114842 -0.0407251 0.0
-0.129369 -0.0420983 0.0
-0.144273 -0.0422062 0.0
-0.158166 -0.0407616 0.0
-0.168854 -0.0376037 0.0
-0.173201 -0.0327831 0.0
-0.16713 -0.0266318 0.0
-0.145777 -0.0197766 0.0
-0.103835 -0.0130775 0.0
-0.0359614 -0.00751002 0.0
0.0629048 -0.00394096 0.0
0.197936 -0.00239699 0.0
0.374586 -0.00208098 0.0
0.595061 -0.00175223 0.0
0.856612 -0.000745553 0.0
-0.00575856 -0.000138808 0.0
-0.0146215 -0.00114279 0.0
-0.0214784 -0.00307555 0.0
-0.026828 -0.00549025 0.0
-0.031196 -0.00835092 0.0
-0.035043 -0.0115375 0.0
-0.038777 -0.0150178 0.0
-0.0427398 -0.0187663 0.0
-0.04722 -0.022779 0.0
-0.0524667 -0.0270532 0.0
-0.0587088 -0.0315789 0.0
-0.066169 -0.0363251 0.0
-0.0750677 -0.0412244 0.0
-0.085609 -0.0461568 0.0
-0.0979359 -0.0509329 0.0
-0.112045 -0.0552833 0.0
-0.127648 -0.0588611 0.0
-0.143986 -0.0612661 0.0
-0.159605 -0.062095 0.0
-0.172159 -0.0610201 0.0
-0.178277 -0.0578759 0.0
-0.173589 -0.0527353 0.0
-0.152934 -0.0459623 0.0
-0.110789 -0.0381974 0.0
-0.0417865 -0.0303166 0.0
0.0586768 -0.0232265 0.0
0.194919 -0.017234 0.0
0.372025 -0.0118191 0.0
0.592237 -0.00599132 0.0
0.854359 -0.00141599 0.0
-0.00508522 -0.000165386 0.0
-0.0129837 -0.00133675 0.0
-0.0191332 -0.00358008 0.0
-0.0239563 -0.00637791 0.0
-0.0279109 -0.00969478 0.0
-0.0314102 -0.0134013 0.0
-0.0348259 -0.0174719 0.0
-0.038477 -0.0218916 0.0
-0.0426399 -0.0266747 0.0
-0.0475635 -0.0318419 0.0
-0.053489 -0.0374134 0.0
-0.0606664 -0.0433937 0.0
-0.0693607 -0.0497564 0.0
-0.0798394 -0.0564233 0.0
-0.0923266 -0.0632433 0.0
-0.106909 -0.0699717 0.0
-0.123382 -0.0762599 0.0
-0.141036 -0.0816622 0.0
-0.158413 -0.0856688 0.0
-0.173081 -0.0877643 0.0
-0.181502 -0.0875011 0.0
-0.179064 -0.0845726 0.0
-0.160325 -0.0788928 0.0
-0.119462 -0.0706325 0.0
-0.0508664 -0.0603622 0.0
0.0499317 -0.0488662 0.0
0.186458 -0.0370907 0.0
0.363567 -0.0249649 0.0
0.584109 -0.0118273 0.0
0.849384 -0.00239398 0.0
-0.00431407 -0.000187456 0.0
-0.0111225 -0.00149063 0.0
-0.0164739 -0.00397684 0.0
-0.0207001 -0.00707622 0.0
-0.024178 -0.0107557 0.0
-0.0272643 -0.0148812 0.0
-0.0302874 -0.0194347 0.0
-0.0335367 -0.0244134 0.0
-0.0372696 -0.0298511 0.0
-0.0417275 -0.0357956 0.0
-0.0471561 -0.0423034 0.0
-0.0538245 -0.0494259 0.0
-0.0620359 -0.0571947 0.0
-0.0721185 -0.0656008 0.0
-0.0843823 -0.0745678 0.0
-0.0990217 -0.083923 0.0
-0.115951 -0.0933686 0.0
-0.13457 -0.102465 0.0
-0.153499 -0.110632 0.0
-0.17033 -0.117169 0.0
-0.18148 -0.1213 0.0
-0.182218 -0.122224 0.0
-0.16689 -0.119203 0.0
-0.12934 -0.111647 0.0
-0.0635154 -0.0994897 0.0
0.0355198 -0.0829745 0.0
0.170854 -0.0639375 0.0
0.347176 -0.0430594 0.0
0.568712 -0.0200941 0.0
0.840537 -0.0038774 0.0
-0.00347135 -0.00020217 0.0
-0.00910139 -0.00158586 0.0
-0.0135885 -0.00422039 0.0
-0.0171634 -0.00750914 0.0
-0.0201125 -0.0114228 0.0
-0.0227301 -0.0158271 0.0
-0.0252954 -0.020711 0.0
-0.0280613 -0.0260832 0.0
-0.0312588 -0.0319956 0.0
-0.0351121 -0.0385235 0.0
-0.0398596 -0.0457622 0.0
-0.0457757 -0.0538171 0.0
-0.053186 -0.0627926 0.0
-0.0624656 -0.0727736 0.0
-0.0740024 -0.083799 0.0
-0.0881047 -0.0958237 0.0
-0.104835 -0.108673 0.0
-0.123768 -0.121993 0.0
-0.143706 -0.135205 0.0
-0.162414 -0.147478 0.0
-0.176453 -0.157706 0.0
-0.181176 -0.164526 0.0
-0.170892 -0.166383 0.0
-0.13919 -0.161652 0.0
-0.0794432 -0.149162 0.0
0.0146769 -0.127957 0.0
0.146414 -0.100298 0.0
0.320451 -0.0683466 0.0
0.543463 -0.0322016 0.0
0.826127 -0.0062702 0.0
-0.0025936 -0.000205805 0.0
-0.00700575 -0.00160037 0.0
-0.010593 -0.00425849 0.0
-0.0134821 -0.00759079 0.0
-0.0158657 -0.011572 0.0
-0.0179735 -0.0160716 0.0
-0.0200317 -0.0210828 0.0
-0.0222512 -0.0266222 0.0
-0.0248286 -0.0327559 0.0
-0.0279599 -0.0395819 0.0
-0.0318612 -0.0472308 0.0
-0.0367923 -0.0558615 0.0
-0.0430766 -0.0656562 0.0
-0.0511079 -0.07681 0.0
-0.0613259 -0.0895088 0.0
-0.0741386 -0.103891 0.0
-0.089769 -0.119987 0.0
-0.108022 -0.137635 0.0
-0.127998 -0.156384 0.0
-0.147814 -0.175384 0.0
-0.164418 -0.193299 0.0
-0.173532 -0.208236 0.0
-0.169728 -0.217768 0.0
-0.14659 -0.219058 0.0
-0.0969877 -0.209237 0.0
-0.0131713 -0.186224 0.0
0.110838 -0.149313 0.0
0.279907 -0.104213 0.0
0.504238 -0.0507813 0.0
0.802983 -0.0105127 0.0
-0.00173423 -0.000192822 0.0
-0.00495214 -0.00150822 0.0
-0.00764254 -0.00403486 0.0
-0.00983724 -0.00723151 0.0
-0.0116406 -0.0110752 0.0
-0.0132207 -0.0154421 0.0
-0.0147496 -0.0203245 0.0
-0.0163924 -0.0257418 0.0
-0.0183044 -0.0317658 0.0
-0.0206432 -0.0385076 0.0
-0.0235871 -0.0461218 0.0
-0.0273586 -0.0548083 0.0
-0.0322473 -0.0648165 0.0
-0.0386245 -0.0764464 0.0
-0.0469347 -0.0900401 0.0
-0.057642 -0.105953 0.0
-0.0711086 -0.12449 0.0
-0.0873919 -0.145802 0.0
-0.105982 -0.169732 0.0
-0.12553 -0.195624 0.0
-0.143634 -0.222135 0.0
-0.156732 -0.24706 0.0
-0.160066 -0.267246 0.0
-0.14765 -0.278637 0.0
-0.112175 -0.276454 0.0
-0.0447269 -0.25647 0.0
0.0647115 -0.21405 0.0
0.223701 -0.155193 0.0
0.447073 -0.0804759 0.0
0.766577 -0.0186198 0.0
-0.000955127 -0.000157884 0.0
-0.00306992 -0.00128802 0.0
-0.00490586 -0.00350547 0.0
-0.00642298 -0.00636058 0.0
-0.00765497 -0.00982867 0.0
-0.00871563 -0.0137937 0.0
-0.00972515 -0.0182421 0.0
-0.0108012 -0.0231887 0.0
-0.0120534 -0.0287013 0.0
-0.013593 -0.0348897 0.0
-0.015548 -0.0419132 0.0
-0.018083 -0.0499873 0.0
-0.0214209 -0.0593964 0.0
-0.0258623 -0.070509 0.0
-0.0317913 -0.0837878 0.0