# vtk DataFile Version 3.0
Malha 2D com triângulos e temperatura
ASCII
DATASET UNSTRUCTURED_GRID

POINTS 961 double
0 0 0
1 0 0
1 1 0
0 1 0
0.0333333 0 0
0.0666667 0 0
0.1 0 0
0.133333 0 0
0.166667 0 0
0.2 0 0
0.233333 0 0
0.266667 0 0
0.3 0 0
0.333333 0 0
0.366667 0 0
0.4 0 0
0.433333 0 0
0.466667 0 0
0.5 0 0
0.533333 0 0
0.566667 0 0
0.6 0 0
0.633333 0 0
0.666667 0 0
0.7 0 0
0.733333 0 0
0.766667 0 0
0.8 0 0
0.833333 0 0
0.866667 0 0
0.9 0 0
0.933333 0 0
0.966667 0 0
1 0.0333333 0
1 0.0666667 0
1 0.1 0
1 0.133333 0
1 0.166667 0
1 0.2 0
1 0.233333 0
1 0.266667 0
1 0.3 0
1 0.333333 0
1 0.366667 0
1 0.4 0
1 0.433333 0
1 0.466667 0
1 0.5 0
1 0.533333 0
1 0.566667 0
1 0.6 0
1 0.633333 0
1 0.666667 0
1 0.7 0
1 0.733333 0
1 0.766667 0
1 0.8 0
1 0.833333 0
1 0.866667 0
1 0.9 0
1 0.933333 0
1 0.966667 0
0.966667 1 0
0.933333 1 0
0.9 1 0
0.866667 1 0
0.833333 1 0
0.8 1 0
0.766667 1 0
0.733333 1 0
0.7 1 0
0.666667 1 0
0.633333 1 0
0.6 1 0
0.566667 1 0
0.533333 1 0
0.5 1 0
0.466667 1 0
0.433333 1 0
0.4 1 0
0.366667 1 0
0.333333 1 0
0.3 1 0
0.266667 1 0
0.233333 1 0
0.2 1 0
0.166667 1 0
0.133333 1 0
0.1 1 0
0.0666667 1 0
0.0333333 1 0
0 0.966667 0
0 0.933333 0
0 0.9 0
0 0.866667 0
0 0.833333 0
0 0.8 0
0 0.766667 0
0 0.733333 0
0 0.7 0
0 0.666667 0
0 0.633333 0
0 0.6 0
0 0.566667 0
0 0.533333 0
0 0.5 0
0 0.466667 0
0 0.433333 0
0 0.4 0
0 0.366667 0
0 0.333333 0
0 0.3 0
0 0.266667 0
0 0.233333 0
0 0.2 0
0 0.166667 0
0 0.133333 0
0 0.1 0
0 0.0666667 0
0 0.0333333 0
0.0333333 0.0333333 0
0.0333333 0.0666667 0
0.0333333 0.1 0
0.0333333 0.133333 0
0.0333333 0.166667 0
0.0333333 0.2 0
0.0333333 0.233333 0
0.0333333 0.266667 0
0.0333333 0.3 0
0.0333333 0.333333 0
0.0333333 0.366667 0
0.0333333 0.4 0
0.0333333 0.433333 0
0.0333333 0.466667 0
0.0333333 0.5 0
0.0333333 0.533333 0
0.0333333 0.566667 0
0.0333333 0.6 0
0.0333333 0.633333 0
0.0333333 0.666667 0
0.0333333 0.7 0
0.0333333 0.733333 0
0.0333333 0.766667 0
0.0333333 0.8 0
0.0333333 0.833333 0
0.0333333 0.866667 0
0.0333333 0.9 0
0.0333333 0.933333 0
0.0333333 0.966667 0
0.0666667 0.0333333 0
0.0666667 0.0666667 0
0.0666667 0.1 0
0.0666667 0.133333 0
0.0666667 0.166667 0
0.0666667 0.2 0
0.0666667 0.233333 0
0.0666667 0.266667 0
0.0666667 0.3 0
0.0666667 0.333333 0
0.0666667 0.366667 0
0.0666667 0.4 0
0.0666667 0.433333 0
0.0666667 0.466667 0
0.0666667 0.5 0
0.0666667 0.533333 0
0.0666667 0.566667 0
0.0666667 0.6 0
0.0666667 0.633333 0
0.0666667 0.666667 0
0.0666667 0.7 0
0.0666667 0.733333 0
0.0666667 0.766667 0
0.0666667 0.8 0
0.0666667 0.833333 0
0.0666667 0.866667 0
0.0666667 0.9 0
0.0666667 0.933333 0
0.0666667 0.966667 0
0.1 0.0333333 0
0.1 0.0666667 0
0.1 0.1 0
0.1 0.133333 0
0.1 0.166667 0
0.1 0.2 0
0.1 0.233333 0
0.1 0.266667 0
0.1 0.3 0
0.1 0.333333 0
0.1 0.366667 0
0.1 0.4 0
0.1 0.433333 0
0.1 0.466667 0
0.1 0.5 0
0.1 0.533333 0
0.1 0.566667 0
0.1 0.6 0
0.1 0.633333 0
0.1 0.666667 0
0.1 0.7 0
0.1 0.733333 0
0.1 0.766667 0
0.1 0.8 0
0.1 0.833333 0
0.1 0.866667 0
0.1 0.9 0
0.1 0.933333 0
0.1 0.966667 0
0.133333 0.0333333 0
0.133333 0.0666667 0
0.133333 0.1 0
0.133333 0.133333 0
0.133333 0.166667 0
0.133333 0.2 0
0.133333 0.233333 0
0.133333 0.266667 0
0.133333 0.3 0
0.133333 0.333333 0
0.133333 0.366667 0
0.133333 0.4 0
0.133333 0.433333 0
0.133333 0.466667 0
0.133333 0.5 0
0.133333 0.533333 0
0.133333 0.566667 0
0.133333 0.6 0
0.133333 0.633333 0
0.133333 0.666667 0
0.133333 0.7 0
0.133333 0.733333 0
0.133333 0.766667 0
0.133333 0.8 0
0.133333 0.833333 0
0.133333 0.866667 0
0.133333 0.9 0
0.133333 0.933333 0
0.133333 0.966667 0
0.166667 0.0333333 0
0.166667 0.0666667 0
0.166667 0.1 0
0.166667 0.133333 0
0.166667 0.166667 0
0.166667 0.2 0
0.166667 0.233333 0
0.166667 0.266667 0
0.166667 0.3 0
0.166667 0.333333 0
0.166667 0.366667 0
0.166667 0.4 0
0.166667 0.433333 0
0.166667 0.466667 0
0.166667 0.5 0
0.166667 0.533333 0
0.166667 0.566667 0
0.166667 0.6 0
0.166667 0.633333 0
0.166667 0.666667 0
0.166667 0.7 0
0.166667 0.733333 0
0.166667 0.766667 0
0.166667 0.8 0
0.166667 0.833333 0
0.166667 0.866667 0
0.166667 0.9 0
0.166667 0.933333 0
0.166667 0.966667 0
0.2 0.0333333 0
0.2 0.0666667 0
0.2 0.1 0
0.2 0.133333 0
0.2 0.166667 0
0.2 0.2 0
0.2 0.233333 0
0.2 0.266667 0
0.2 0.3 0
0.2 0.333333 0
0.2 0.366667 0
0.2 0.4 0
0.2 0.433333 0
0.2 0.466667 0
0.2 0.5 0
0.2 0.533333 0
0.2 0.566667 0
0.2 0.6 0
0.2 0.633333 0
0.2 0.666667 0
0.2 0.7 0
0.2 0.733333 0
0.2 0.766667 0
0.2 0.8 0
0.2 0.833333 0
0.2 0.866667 0
0.2 0.9 0
0.2 0.933333 0
0.2 0.966667 0
0.233333 0.0333333 0
0.233333 0.0666667 0
0.233333 0.1 0
0.233333 0.133333 0
0.233333 0.166667 0
0.233333 0.2 0
0.233333 0.233333 0
0.233333 0.266667 0
0.233333 0.3 0
0.233333 0.333333 0
0.233333 0.366667 0
0.233333 0.4 0
0.233333 0.433333 0
0.233333 0.466667 0
0.233333 0.5 0
0.233333 0.533333 0
0.233333 0.566667 0
0.233333 0.6 0
0.233333 0.633333 0
0.233333 0.666667 0
0.233333 0.7 0
0.233333 0.733333 0
0.233333 0.766667 0
0.233333 0.8 0
0.233333 0.833333 0
0.233333 0.866667 0
0.233333 0.9 0
0.233333 0.933333 0
0.233333 0.966667 0
0.266667 0.0333333 0
0.266667 0.0666667 0
0.266667 0.1 0
0.266667 0.133333 0
0.266667 0.166667 0
0.266667 0.2 0
0.266667 0.233333 0
0.266667 0.266667 0
0.266667 0.3 0
0.266667 0.333333 0
0.266667 0.366667 0
0.266667 0.4 0
0.266667 0.433333 0
0.266667 0.466667 0
0.266667 0.5 0
0.266667 0.533333 0
0.266667 0.566667 0
0.266667 0.6 0
0.266667 0.633333 0
0.266667 0.666667 0
0.266667 0.7 0
0.266667 0.733333 0
0.266667 0.766667 0
0.266667 0.8 0
0.266667 0.833333 0
0.266667 0.866667 0
0.266667 0.9 0
0.266667 0.933333 0
0.266667 0.966667 0
0.3 0.0333333 0
0.3 0.0666667 0
0.3 0.1 0
0.3 0.133333 0
0.3 0.166667 0
0.3 0.2 0
0.3 0.233333 0
0.3 0.266667 0
0.3 0.3 0
0.3 0.333333 0
0.3 0.366667 0
0.3 0.4 0
0.3 0.433333 0
0.3 0.466667 0
0.3 0.5 0
0.3 0.533333 0
0.3 0.566667 0
0.3 0.6 0
0.3 0.633333 0
0.3 0.666667 0
0.3 0.7 0
0.3 0.733333 0
0.3 0.766667 0
0.3 0.8 0
0.3 0.833333 0
0.3 0.866667 0
0.3 0.9 0
0.3 0.933333 0
0.3 0.966667 0
0.333333 0.0333333 0
0.333333 0.0666667 0
0.333333 0.1 0
0.333333 0.133333 0
0.333333 0.166667 0
0.333333 0.2 0
0.333333 0.233333 0
0.333333 0.266667 0
0.333333 0.3 0
0.333333 0.333333 0
0.333333 0.366667 0
0.333333 0.4 0
0.333333 0.433333 0
0.333333 0.466667 0
0.333333 0.5 0
0.333333 0.533333 0
0.333333 0.566667 0
0.333333 0.6 0
0.333333 0.633333 0
0.333333 0.666667 0
0.333333 0.7 0
0.333333 0.733333 0
0.333333 0.766667 0
0.333333 0.8 0
0.333333 0.833333 0
0.333333 0.866667 0
0.333333 0.9 0
0.333333 0.933333 0
0.333333 0.966667 0
0.366667 0.0333333 0
0.366667 0.0666667 0
0.366667 0.1 0
0.366667 0.133333 0
0.366667 0.166667 0
0.366667 0.2 0
0.366667 0.233333 0
0.366667 0.266667 0
0.366667 0.3 0
0.366667 0.333333 0
0.366667 0.366667 0
0.366667 0.4 0
0.366667 0.433333 0
0.366667 0.466667 0
0.366667 0.5 0
0.366667 0.533333 0
0.366667 0.566667 0
0.366667 0.6 0
0.366667 0.633333 0
0.366667 0.666667 0
0.366667 0.7 0
0.366667 0.733333 0
0.366667 0.766667 0
0.366667 0.8 0
0.366667 0.833333 0
0.366667 0.866667 0
0.366667 0.9 0
0.366667 0.933333 0
0.366667 0.966667 0
0.4 0.0333333 0
0.4 0.0666667 0
0.4 0.1 0
0.4 0.133333 0
0.4 0.166667 0
0.4 0.2 0
0.4 0.233333 0
0.4 0.266667 0
0.4 0.3 0
0.4 0.333333 0
0.4 0.366667 0
0.4 0.4 0
0.4 0.433333 0
0.4 0.466667 0
0.4 0.5 0
0.4 0.533333 0
0.4 0.566667 0
0.4 0.6 0
0.4 0.633333 0
0.4 0.666667 0
0.4 0.7 0
0.4 0.733333 0
0.4 0.766667 0
0.4 0.8 0
0.4 0.833333 0
0.4 0.866667 0
0.4 0.9 0
0.4 0.933333 0
0.4 0.966667 0
0.433333 0.0333333 0
0.433333 0.0666667 0
0.433333 0.1 0
0.433333 0.133333 0
0.433333 0.166667 0
0.433333 0.2 0
0.433333 0.233333 0
0.433333 0.266667 0
0.433333 0.3 0
0.433333 0.333333 0
0.433333 0.366667 0
0.433333 0.4 0
0.433333 0.433333 0
0.433333 0.466667 0
0.433333 0.5 0
0.433333 0.533333 0
0.433333 0.566667 0
0.433333 0.6 0
0.433333 0.633333 0
0.433333 0.666667 0
0.433333 0.7 0
0.433333 0.733333 0
0.433333 0.766667 0
0.433333 0.8 0
0.433333 0.833333 0
0.433333 0.866667 0
0.433333 0.9 0
0.433333 0.933333 0
0.433333 0.966667 0
0.466667 0.0333333 0
0.466667 0.0666667 0
0.466667 0.1 0
0.466667 0.133333 0
0.466667 0.166667 0
0.466667 0.2 0
0.466667 0.233333 0
0.466667 0.266667 0
0.466667 0.3 0
0.466667 0.333333 0
0.466667 0.366667 0
0.466667 0.4 0
0.466667 0.433333 0
0.466667 0.466667 0
0.466667 0.5 0
0.466667 0.533333 0
0.466667 0.566667 0
0.466667 0.6 0
0.466667 0.633333 0
0.466667 0.666667 0
0.466667 0.7 0
0.466667 0.733333 0
0.466667 0.766667 0
0.466667 0.8 0
0.466667 0.833333 0
0.466667 0.866667 0
0.466667 0.9 0
0.466667 0.933333 0
0.466667 0.966667 0
0.5 0.0333333 0
0.5 0.0666667 0
0.5 0.1 0
0.5 0.133333 0
0.5 0.166667 0
0.5 0.2 0
0.5 0.233333 0
0.5 0.266667 0
0.5 0.3 0
0.5 0.333333 0
0.5 0.366667 0
0.5 0.4 0
0.5 0.433333 0
0.5 0.466667 0
0.5 0.5 0
0.5 0.533333 0
0.5 0.566667 0
0.5 0.6 0
0.5 0.633333 0
0.5 0.666667 0
0.5 0.7 0
0.5 0.733333 0
0.5 0.766667 0
0.5 0.8 0
0.5 0.833333 0
0.5 0.866667 0
0.5 0.9 0
0.5 0.933333 0
0.5 0.966667 0
0.533333 0.0333333 0
0.533333 0.0666667 0
0.533333 0.1 0
0.533333 0.133333 0
0.533333 0.166667 0
0.533333 0.2 0
0.533333 0.233333 0
0.533333 0.266667 0
0.533333 0.3 0
0.533333 0.333333 0
0.533333 0.366667 0
0.533333 0.4 0
0.533333 0.433333 0
0.533333 0.466667 0
0.533333 0.5 0
0.533333 0.533333 0
0.533333 0.566667 0
0.533333 0.6 0
0.533333 0.633333 0
0.533333 0.666667 0
0.533333 0.7 0
0.533333 0.733333 0
0.533333 0.766667 0
0.533333 0.8 0
0.533333 0.833333 0
0.533333 0.866667 0
0.533333 0.9 0
0.533333 0.933333 0
0.533333 0.966667 0
0.566667 0.0333333 0
0.566667 0.0666667 0
0.566667 0.1 0
0.566667 0.133333 0
0.566667 0.166667 0
0.566667 0.2 0
0.566667 0.233333 0
0.566667 0.266667 0
0.566667 0.3 0
0.566667 0.333333 0
0.566667 0.366667 0
0.566667 0.4 0
0.566667 0.433333 0
0.566667 0.466667 0
0.566667 0.5 0
0.566667 0.533333 0
0.566667 0.566667 0
0.566667 0.6 0
0.566667 0.633333 0
0.566667 0.666667 0
0.566667 0.7 0
0.566667 0.733333 0
0.566667 0.766667 0
0.566667 0.8 0
0.566667 0.833333 0
0.566667 0.866667 0
0.566667 0.9 0
0.566667 0.933333 0
0.566667 0.966667 0
0.6 0.0333333 0
0.6 0.0666667 0
0.6 0.1 0
0.6 0.133333 0
[...]
CELL_DATA 900
VECTORS velocity double
-0.000109113 0.000108653 0.0
-0.00013683 0.000365192 0.0
-0.000142114 0.000661676 0.0
-0.000146854 0.000963688 0.0
-0.000153214 0.00127722 0.0
-0.000161472 0.00160605 0.0
-0.000171778 0.00195424 0.0
-0.000184323 0.00232625 0.0
-0.000199356 0.00272698 0.0
-0.000217204 0.00316195 0.0
-0.000238289 0.0036374 0.0
-0.000263159 0.00416059 0.0
-0.00029254 0.00474007 0.0
-0.000327401 0.00538607 0.0
-0.00036906 0.00611116 0.0
-0.000419347 0.00693102 0.0
-0.000480865 0.00786569 0.0
-0.000557419 0.00894152 0.0
-0.000654762 0.010194 0.0
-0.000781951 0.0116726 0.0
-0.000953935 0.013449 0.0
-0.00119683 0.0156309 0.0
-0.00155924 0.0183898 0.0
-0.00213807 0.0220135 0.0
-0.00313915 0.027016 0.0
-0.00502086 0.034414 0.0
-0.00879316 0.0461398 0.0
-0.0156388 0.0653999 0.0
-0.0155257 0.112368 0.0
0.134031 0.0756658 0.0
-0.000364324 0.000133881 0.0
-0.00045438 0.000447451 0.0
-0.000472505 0.000807759 0.0
-0.000488538 0.00117504 0.0
-0.000509783 0.00155653 0.0
-0.000537259 0.00195666 0.0
-0.000571504 0.00238026 0.0
-0.000613155 0.0028327 0.0
-0.000663039 0.00331987 0.0
-0.000722221 0.00384835 0.0
-0.000792076 0.00442561 0.0
-0.000874391 0.00506024 0.0
-0.000971513 0.00576233 0.0
-0.00108657 0.00654388 0.0
-0.00122377 0.00741944 0.0
-0.00138896 0.00840698 0.0
-0.00159031 0.00952919 0.0
-0.00183965 0.0108153 0.0
-0.0021545 0.0123036 0.0
-0.00256167 0.0140457 0.0
-0.00310371 0.0161126 0.0
-0.00385087 0.0186033 0.0
-0.00492448 0.0216575 0.0
-0.00654427 0.025472 0.0
-0.00912692 0.0303095 0.0
-0.0134881 0.0364944 0.0
-0.0211945 0.0442252 0.0
-0.0337365 0.0523194 0.0
-0.0367997 0.0622975 0.0
0.135071 0.0359989 0.0
-0.000651108 0.000133379 0.0
-0.000809143 0.000446292 0.0
-0.000841776 0.000805976 0.0
-0.000870498 0.00117224 0.0
-0.000908347 0.00155255 0.0
-0.000957188 0.00195125 0.0
-0.00101799 0.0023731 0.0
-0.00109187 0.00282331 0.0
-0.00118025 0.00330761 0.0
-0.00128499 0.00383233 0.0
-0.00140842 0.00440457 0.0
-0.00155359 0.00503245 0.0
-0.00172447 0.00572532 0.0
-0.00192629 0.00649413 0.0
-0.00216605 0.0073519 0.0
-0.00245327 0.00831428 0.0
-0.00280115 0.00940039 0.0
-0.00322831 0.0106338 0.0
-0.00376162 0.0120441 0.0
-0.0044407 0.0136681 0.0
-0.00532531 0.015552 0.0
-0.00650774 0.0177522 0.0
-0.00813359 0.0203333 0.0
-0.0104367 0.0233589 0.0
-0.0137951 0.0268583 0.0
-0.0188035 0.0307461 0.0
-0.0262343 0.0346044 0.0
-0.0352791 0.0369258 0.0
-0.0252832 0.0355653 0.0
0.186205 0.0178427 0.0
-0.0009278 0.000129072 0.0
-0.0011516 0.000432105 0.0
-0.00119786 0.000780482 0.0
-0.00123857 0.00113501 0.0
-0.0012922 0.00150294 0.0
-0.00136133 0.0018884 0.0
-0.00144731 0.00229587 0.0
-0.00155166 0.00273024 0.0
-0.00167632 0.00319681 0.0
-0.00182376 0.00370137 0.0
-0.00199714 0.00425035 0.0
-0.00220049 0.00485092 0.0
-0.00243899 0.00551119 0.0
-0.00271944 0.00624038 0.0
-0.00305075 0.00704907 0.0
-0.00344487 0.00794945 0.0
-0.00391798 0.0089556 0.0
-0.00449232 0.0100837 0.0
-0.00519892 0.0113521 0.0
-0.0060817 0.0127807 0.0
-0.00720356 0.0143896 0.0
-0.00865558 0.0161947 0.0
-0.0105702 0.0181986 0.0
-0.0131396 0.0203707 0.0
-0.0166364 0.0226068 0.0
-0.0214156 0.0246514 0.0
-0.0277314 0.0259516 0.0
-0.0337973 0.0253298 0.0
-0.0177506 0.0210275 0.0
0.206203 0.00934398 0.0
-0.00119358 0.000123109 0.0
-0.00148073 0.00041221 0.0
-0.00153997 0.000744545 0.0
-0.00159204 0.00108257 0.0
-0.00166055 0.00143316 0.0
-0.00174881 0.00180011 0.0
-0.00185843 0.00218758 0.0
-0.00199129 0.00260002 0.0
-0.00214973 0.0030422 0.0
-0.00233669 0.00351925 0.0
-0.00255591 0.00403676 0.0
-0.00281211 0.00460079 0.0
-0.00311129 0.00521797 0.0
-0.00346114 0.00589556 0.0
-0.00387165 0.00664141 0.0
-0.00435583 0.007464 0.0
-0.00493091 0.00837217 0.0
-0.00561984 0.00937475 0.0
-0.00645349 0.0104796 0.0
-0.00747359 0.011692 0.0
-0.00873679 0.013011 0.0
-0.0103197 0.0144236 0.0
-0.0123246 0.0158938 0.0
-0.0148846 0.0173438 0.0
-0.018162 0.0186219 0.0
-0.0223165 0.0194522 0.0
-0.0272768 0.0193639 0.0
-0.0307936 0.0175811 0.0
-0.0107743 0.0130469 0.0
0.217721 0.00521287 0.0
-0.00144534 0.000115749 0.0
-0.00179253 0.000387571 0.0
-0.00186394 0.000699984 0.0
-0.00192655 0.00101758 0.0
-0.00200887 0.00134673 0.0
-0.0021148 0.0016909 0.0
-0.0022462 0.00205382 0.0
-0.00240519 0.00243947 0.0
-0.00259438 0.00285202 0.0
-0.00281706 0.00329589 0.0
-0.00307729 0.00377575 0.0
-0.00338019 0.00429648 0.0
-0.00373211 0.00486323 0.0
-0.0041411 0.00548123 0.0
-0.00461731 0.00615576 0.0
-0.00517373 0.00689174 0.0
-0.00582697 0.00769335 0.0
-0.00659847 0.00856314 0.0
-0.00751588 0.00950062 0.0
-0.00861484 0.0105 0.0
-0.00994088 0.0115465 0.0
-0.0115512 0.0126103 0.0
-0.0135153 0.0136374 0.0
-0.0159121 0.0145357 0.0
-0.0188194 0.015155 0.0
-0.0222721 0.0152625 0.0
-0.0260363 0.0145195 0.0
-0.0277065 0.0124674 0.0
-0.00528631 0.00856323 0.0
0.224927 0.00315798 0.0
-0.00168022 0.000107103 0.0
-0.00208337 0.000358606 0.0
-0.00216602 0.00064759 0.0
-0.00223825 0.00094121 0.0
-0.00233313 0.00124526 0.0
-0.00245508 0.00156284 0.0
-0.00260616 0.00189722 0.0
-0.00278861 0.00225188 0.0
-0.00300522 0.00263039 0.0
-0.00325943 0.00303641 0.0
-0.00355548 0.00347371 0.0
-0.00389853 0.00394606 0.0
-0.00429498 0.00445716 0.0
-0.00475266 0.00501046 0.0
-0.00528127 0.0056089 0.0
-0.00589282 0.00625448 0.0
-0.00660223 0.00694758 0.0
-0.00742797 0.00768601 0.0
-0.00839281 0.00846346 0.0
-0.00952455 0.0092672 0.0
-0.0108563 0.0100748 0.0
-0.0124263 0.0108494 0.0
-0.0142753 0.011533 0.0
-0.0164412 0.0120377 0.0
-0.0189458 0.0122367 0.0
-0.0217564 0.0119544 0.0
-0.0245739 0.0109685 0.0
-0.0249744 0.00902694 0.0
-0.00113695 0.00588117 0.0
0.229619 0.00205243 0.0
-0.00189562 9.72886e-05 0.0
-0.00235006 0.000325722 0.0
-0.00244289 0.000588124 0.0
-0.00252374 0.000854585 0.0
-0.00262983 0.00113028 0.0
-0.00276603 0.00141791 0.0
-0.00293451 0.0017203 0.0
-0.0031376 0.00204041 0.0
-0.00337814 0.0023812 0.0
-0.00365959 0.00274564 0.0
-0.00398616 0.00313665 0.0
-0.0043629 0.00355699 0.0
-0.00479586 0.00400911 0.0
-0.00529235 0.00449495 0.0
-0.00586112 0.0050156 0.0
-0.00651265 0.00557079 0.0
-0.00725948 0.00615822 0.0
-0.00811644 0.00677257 0.0
-0.00910087 0.00740405 0.0
-0.0102326 0.0080365 0.0
-0.0115331 0.00864478 0.0
-0.0130245 0.00919137 0.0
-0.0147256 0.00962232 0.0
-0.0166463 0.00986288 0.0
-0.0187757 0.00981412 0.0
-0.02105 0.0093529 0.0
-0.0231544 0.0083416 0.0
-0.0226954 0.00665086 0.0
0.00199196 0.00418068 0.0
0.232846 0.00140731 0.0
-0.00208922 8.64343e-05 0.0
-0.00258971 0.00028936 0.0
-0.00269157 0.000522392 0.0
-0.00278 0.000758898 0.0
-0.00289588 0.0010034 0.0
-0.00304449 0.00125819 0.0
-0.00322804 0.00152566 0.0
-0.00344888 0.00180826 0.0
-0.00370984 0.00210839 0.0
-0.0040143 0.00242838 0.0
-0.00436628 0.0027704 0.0
-0.00477054 0.00313636 0.0
-0.00523264 0.0035277 0.0
-0.00575908 0.00394521 0.0
-0.0063574 0.0043886 0.0
-0.00703629 0.00485612 0.0
-0.00780564 0.00534379 0.0
-0.00867656 0.00584462 0.0
-0.00966112 0.00634734 0.0
-0.0107719 0.00683497 0.0
-0.0120207 0.00728293 0.0
-0.013417 0.00765695 0.0
-0.0149645 0.00791092 0.0
-0.0166554 0.00798529 0.0
-0.0184622 0.00780718 0.0
-0.0203105 0.007294 0.0
-0.0218918 0.00636449 0.0
-0.020853 0.00495756 0.0
0.00435158 0.00304286 0.0
0.235149 0.00100113 0.0
-0.00225897 7.46766e-05 0.0
-0.0027998 0.000249979 0.0
-0.0029095 0.000451233 0.0
-0.0030044 0.000655378 0.0
-0.00312863 0.000866262 0.0
-0.00328778 0.00108579 0.0
-0.00348408 0.00131591 0.0
-0.00371983 0.00155861 0.0
-0.00399779 0.00181579 0.0
-0.00432119 0.0020892 0.0
-0.0046938 0.00238041 0.0
-0.00511998 0.00269063 0.0
-0.00560467 0.00302057 0.0
-0.00615349 0.00337019 0.0
-0.00677265 0.00373839 0.0
-0.00746901 0.00412254 0.0
-0.00824991 0.00451794 0.0
-0.00912295 0.00491709 0.0
-0.0100956 0.00530876 0.0
-0.0111743 0.00567692 0.0
-0.0123634 0.00599958 0.0
-0.0136633 0.00624758 0.0
-0.0150674 0.00638375 0.0
-0.0165583 0.00636286 0.0
-0.0181013 0.00613331 0.0
-0.0196218 0.00564155 0.0
-0.0208251 0.00484163 0.0
-0.0193943 0.00370836 0.0
0.00613297 0.00224041 0.0
0.236827 0.000726959 0.0
-0.00240314 6.21553e-05 0.0
-0.00297818 0.000208048 0.0
-0.00309446 0.000375496 0.0
-0.00319474 0.00054527 0.0
-0.00332588 0.000720526 0.0
-0.00349372 0.00090279 0.0
-0.00370047 0.00109362 0.0
-0.00394838 0.00129455 0.0
-0.00424008 0.00150704 0.0
-0.00457863 0.00173237 0.0
-0.00496751 0.00197161 0.0
-0.00541064 0.00222548 0.0
-0.00591234 0.00249419 0.0
-0.00647731 0.00277723 0.0
-0.00711053 0.00307308 0.0
-0.00781713 0.00337886 0.0
-0.00860216 0.00368985 0.0
-0.00947021 0.00399896 0.0
-0.0104249 0.00429603 0.0
-0.011468 0.00456715 0.0
-0.0125982 0.00479392 0.0
-0.0138096 0.00495294 0.0
-0.0150896 0.00501566 0.0
-0.0164157 0.00494911 0.0
-0.0177513 0.0047179 0.0
-0.0190261 0.00428831 0.0
-0.0199597 0.00363545 0.0
-0.018263 0.00275175 0.0
0.00746953 0.00164577 0.0
0.23806 0.000530071 0.0
-0.00252025 4.90112e-05 0.0
-0.00312306 0.000164039 0.0
-0.00324463 0.000296032 0.0
-0.00334921 0.000429808 0.0
-0.00348583 0.000567825 0.0
-0.00366054 0.000711248 0.0
-0.00387553 0.000861256 0.0
-0.00413297 0.001019 0.0
-0.00443536 0.00118554 0.0
-0.00478558 0.00136177 0.0
-0.00518682 0.0015484 0.0
-0.00564259 0.0017458 0.0
-0.00615664 0.0019539 0.0
-0.00673284 0.00217201 0.0
-0.00737508 0.00239857 0.0
-0.00808702 0.00263091 0.0
-0.00887182 0.00286486 0.0
-0.00973163 0.00309435 0.0
-0.0106671 0.003311 0.0
-0.0116765 0.00350363 0.0
-0.0127545 0.0036579 0.0
-0.0138913 0.00375611 0.0
-0.0150706 0.00377747 0.0
-0.0162677 0.00369892 0.0
-0.0174467 0.00349707 0.0
-0.0185428 0.00315127 0.0
-0.0192872 0.00264867 0.0
-0.0174112 0.00198932 0.0
0.00845377 0.00118313 0.0
0.238957 0.000380353 0.0
-0.00260915 3.5384e-05 0.0
-0.00323303 0.000118419 0.0
-0.00335859 0.000213684 0.0
-0.00346636 0.000310208 0.0
-0.00360708 0.000409754 0.0
-0.0037869 0.000513142 0.0
-0.00400799 0.000621198 0.0
-0.00427245 0.00073472 0.0
-0.00458269 0.000854423 0.0
-0.00494139 0.000980908 0.0
-0.00535151 0.0011146 0.0
-0.00581623 0.00125567 0.0
-0.00633879 0.00140395 0.0
-0.00692242 0.00155879 0.0
-0.00757015 0.00171889 0.0
-0.00828448 0.00188212 0.0
-0.0090671 0.00204524 0.0
-0.00991839 0.00220368 0.0
-0.0108368 0.00235122 0.0
-0.0118182 0.00247974 0.0
-0.0128546 0.00257904 0.0
-0.0139337 0.00263685 0.0
-0.0150373 0.0026391 0.0
-0.0161399 0.0025707 0.0
-0.0172072 0.00241698 0.0
-0.0181791 0.00216587 0.0
-0.0187957 0.00181103 0.0
-0.0168018 0.00135482 0.0
0.00914852 0.000804804 0.0
0.239589 0.000259966 0.0
-0.00266897 2.14123e-05 0.0
-0.00330702 7.16501e-05 0.0
-0.00343524 0.000129279 0.0
-0.00354516 0.000187666 0.0
-0.00368859 0.000247871 0.0
-0.00387181 0.000310387 0.0
-0.00409695 0.000375708 0.0
-0.00436605 0.000444306 0.0
-0.00468144 0.000516603 0.0
-0.00504569 0.000592942 0.0
-0.00546158 0.000673558 0.0
-0.00593203 0.000758527 0.0
-0.00645996 0.000847705 0.0
-0.00704813 0.00094065 0.0
-0.00769896 0.00103652 0.0
-0.00841418 0.00113396 0.0
-0.0091945 0.00123094 0.0
-0.0100391 0.00132464 0.0
-0.0109451 0.00141124 0.0
-0.0119066 0.00148583 0.0
-0.0129144 0.00154231 0.0
-0.0139544 0.00157345 0.0
-0.0150075 0.00157109 0.0
-0.0160484 0.00152664 0.0
-0.0170439 0.00143199 0.0
-0.0179373 0.00128074 0.0
-0.0184744 0.00106993 0.0
-0.016408 0.000801399 0.0
0.00959532 0.000478712 0.0
0.239998 0.000157374 0.0
-0.00269913 7.23318e-06 0.0
-0.00334432 2.41891e-05 0.0
-0.00347389 4.36366e-05 0.0
-0.00358488 6.33504e-05 0.0
-0.0037297 8.3694e-05 0.0
-0.00391463 0.00010484 0.0
-0.00414181 0.000126962 0.0
-0.00441327 0.000150227 0.0
-0.00473126 0.000174785 0.0
-0.00509831 0.000200764 0.0
-0.0055171 0.000228255 0.0
-0.00599043 0.000257295 0.0
-0.00652104 0.000287852 0.0
-0.00711146 0.000319792 0.0
-0.0077638 0.000352848 0.0
-0.0084794 0.000386578 0.0
-0.00925846 0.000420315 0.0
-0.0100996 0.000453118 0.0
-0.0109991 0.000483711 0.0
-0.0119506 0.000510439 0.0
-0.0129439 0.000531242 0.0
-0.0139643 0.000543659 0.0
-0.0149922 0.000544906 0.0
-0.0160024 0.000532039 0.0
-0.0169624 0.00050224 0.0
-0.0178172 0.000453221 0.0
-0.0183154 0.000383746 0.0
-0.0162129 0.000293734 0.0
0.00981956 0.000181062 0.0
0.240212 6.39952e-05 0.0
-0.00269935 -7.0178e-06 0.0
-0.00334457 -2.35117e-05 0.0
-0.00347416 -4.24357e-05 0.0
-0.00358519 -6.15796e-05 0.0
-0.00373004 -8.1279e-05 0.0
-0.00391504 -0.000101678 0.0
-0.0041423 -0.00012292 0.0
-0.00441384 -0.000145137 0.0
-0.00473195 -0.000168438 0.0
-0.00509914 -0.000192903 0.0
-0.00551811 -0.000218569 0.0
-0.00599164 -0.000245412 0.0
-0.00652249 -0.000273329 0.0
-0.0071132 -0.000302111 0.0
-0.00776585 -0.00033141 0.0
-0.0084818 -0.000360702 0.0
-0.00926126 -0.000389248 0.0
-0.0101028 -0.000416047 0.0
-0.0110028 -0.0004398 0.0
-0.0119546 -0.000458881 0.0
-0.0129481 -0.000471336 0.0
-0.0139687 -0.000474928 0.0
-0.0149966 -0.000467238 0.0
-0.0160063 -0.000445868 0.0
-0.0169655 -0.000408742 0.0
-0.0178189 -0.000354535 0.0
-0.0183148 -0.000283292 0.0
-0.0162077 -0.000197604 0.0
0.00983562 -0.000106966 0.0
0.240239 -2.65717e-05 0.0
-0.00266961 -2.12061e-05 0.0
-0.00330777 -7.10021e-05 0.0
-0.00343605 -0.000128131 0.0
-0.00354606 -0.000185971 0.0
-0.00368962 -0.000245559 0.0
-0.00387302 -0.00030736 0.0
-0.00409838 -0.000371837 0.0
-0.00436776 -0.000439427 0.0
-0.0046835 -0.000510514 0.0
-0.00504817 -0.000585394 0.0
-0.00546457 -0.000664247 0.0
-0.00593563 -0.000747088 0.0
-0.00646428 -0.000833702 0.0
-0.00705329 -0.000923568 0.0
-0.00770507 -0.00101576 0.0
-0.00842137 -0.00110883 0.0
-0.00920288 -0.00120068 0.0
-0.0100487 -0.00128839 0.0
-0.010956 -0.00136811 0.0
-0.0119187 -0.00143493 0.0
-0.0129274 -0.00148284 0.0
-0.0139679 -0.00150478 0.0
-0.0150209 -0.00149292 0.0
-0.0160606 -0.00143924 0.0
-0.0170537 -0.00133636 0.0
-0.0179429 -0.00117891 0.0
-0.0184731 -0.000965347 0.0
-0.0163922 -0.000700524 0.0
0.00964615 -0.000401073 0.0
0.240081 -0.000118324 0.0
-0.00261019 -3.51959e-05 0.0
-0.00323425 -0.000117829 0.0
-0.00335989 -0.000212637 0.0
-0.00346782 -0.000308665 0.0
-0.00360875 -0.000407647 0.0
-0.00378886 -0.00051038 0.0
-0.00401031 -0.000617662 0.0
-0.00427523 -0.000730257 0.0
-0.00458603 -0.000848845 0.0
-0.00494542 -0.000973978 0.0
-0.00535639 -0.00110603 0.0
-0.0058221 -0.00124511 0.0
-0.00634585 -0.00139099 0.0
-0.00693088 -0.00154291 0.0
-0.00758021 -0.0016995 0.0
-0.00829636 -0.00185851 0.0
-0.00908101 -0.00201661 0.0
-0.00993446 -0.00216912 0.0
-0.0108551 -0.00230974 0.0
-0.0118386 -0.00243028 0.0
-0.0128768 -0.00252058 0.0
-0.013957 -0.00256846 0.0
-0.0150606 -0.00256012 0.0
-0.0161616 -0.00248099 0.0
-0.0172251 -0.00231717 0.0
-0.0181902 -0.00205773 0.0
-0.018795 -0.00169807 0.0
-0.0167757 -0.00124418 0.0
0.00923631 -0.000718891 0.0
0.239731 -0.000216475 0.0
-0.00252164 -4.88494e-05 0.0
-0.00312469 -0.000163533 0.0
-0.00324638 -0.000295135 0.0
-0.00335116 -0.000428482 0.0
-0.00348807 -0.000566014 0.0
-0.00366317 -0.000708871 0.0
-0.00387865 -0.000858208 0.0
-0.0041367 -0.00101515 0.0
-0.00443987 -0.0011807 0.0
-0.00479103 -0.00135575 0.0
-0.00519341 -0.00154093 0.0
-0.00565056 -0.00173655 0.0
-0.00616625 -0.00194248 0.0
-0.00674439 -0.00215793 0.0
-0.00738888 -0.00238124 0.0
-0.00810342 -0.00260963 0.0
-0.00889112 -0.00283877 0.0
-0.00975411 -0.00306248 0.0
-0.0106929 -0.0032722 0.0
-0.0117055 -0.00345663 0.0
-0.0127865 -0.00360131 0.0
-0.0139255 -0.00368857 0.0
-0.0151055 -0.00369773 0.0
-0.0163011 -0.00360617 0.0
-0.0174753 -0.00339123 0.0
-0.0185621 -0.0030336 0.0
-0.0192895 -0.00252256 0.0
-0.0173755 -0.00186288 0.0
0.00858263 -0.00108336 0.0
0.239167 -0.000329092 0.0
-0.00240482 -6.2027e-05 0.0
-0.00298015 -0.000207648 0.0
-0.00309657 -0.000374787 0.0
-0.00319711 -0.000544222 0.0
-0.0033286 -0.000719093 0.0
-0.0034969 -0.000900905 0.0
-0.00370425 -0.00109119 0.0
-0.00395293 -0.00129148 0.0
-0.00424557 -0.00150317 0.0
-0.00458529 -0.00172753 0.0
-0.00497559 -0.00196557 0.0
-0.00542044 -0.00221795 0.0
-0.00592421 -0.00248481 0.0
-0.00649163 -0.00276554 0.0
-0.00712775 -0.00305853 0.0
-0.00783772 -0.00336074 0.0
-0.0086266 -0.0036673 0.0
-0.00949896 -0.0039709 0.0
-0.0104583 -0.00426117 0.0
-0.0115061 -0.00452393 0.0
-0.0126409 -0.00474054 0.0
-0.0138562 -0.0048874 0.0
-0.0151384 -0.00493589 0.0
-0.0164639 -0.00485323 0.0
-0.0177947 -0.00460468 0.0
-0.0190583 -0.00415794 0.0
-0.0199691 -0.0034908 0.0
-0.0182193 -0.00260198 0.0
0.00764545 -0.00152497 0.0
0.23835 -0.000466599 0.0
-0.00226087 -7.45874e-05 0.0
-0.00280202 -0.000249704 0.0
-0.00291189 -0.000450746 0.0
-0.00300707 -0.000654658 0.0
-0.0031317 -0.000865274 0.0
-0.00329139 -0.00108448 0.0
-0.00348837 -0.00131423 0.0
-0.003725 -0.00155647 0.0
-0.00400405 -0.00181307 0.0
-0.00432879 -0.00208577 0.0
-0.00470306 -0.00237608 0.0
-0.00513125 -0.00268517 0.0
-0.0056184 -0.00301368 0.0
-0.00617015 -0.00336148 0.0
-0.00679283 -0.00372733 0.0
-0.00749334 -0.00410848 0.0
-0.00827908 -0.00450001 0.0
-0.00915766 -0.00489416 0.0
-0.0101365 -0.00527939 0.0
-0.0112218 -0.00563927 0.0
-0.0124177 -0.00595137 0.0
-0.0137239 -0.00618603 0.0
-0.0151328 -0.00630566 0.0
-0.0166255 -0.00626484 0.0
-0.0181651 -0.00601228 0.0
-0.0196737 -0.00549573 0.0
-0.0208488 -0.00467246 0.0
-0.0193462 -0.00352567 0.0
0.00636423 -0.00208892 0.0
0.237218 -0.000644807 0.0
-0.00209125 -8.63884e-05 0.0
-0.00259208 -0.000289224 0.0
-0.00269413 -0.000522152 0.0
-0.00278286 -0.000758539 0.0
-0.00289917 -0.0010029 0.0
-0.00304836 -0.00125753 0.0
-0.00323266 -0.0015248 0.0
-0.00345446 -0.00180715 0.0
-0.0037166 -0.00210696 0.0
-0.00402254 -0.00242654 0.0
-0.00437636 -0.00276803 0.0
-0.00478287 -0.00313329 0.0
-0.00524773 -0.00352371 0.0
-0.00577752 -0.00393998 0.0
-0.00637991 -0.00438172 0.0
-0.00706368 -0.00484699 0.0
-0.00783886 -0.00533162 0.0
-0.00871662 -0.00582828 0.0
-0.00970909 -0.00632532 0.0
-0.0108287 -0.00680519 0.0
-0.0120872 -0.00724263 0.0
-0.0134934 -0.0076025 0.0
-0.0150497 -0.00783773 0.0
-0.0167469 -0.00788792 0.0
-0.0185541 -0.00767972 0.0
-0.0203922 -0.00713124 0.0
-0.0219409 -0.00616463 0.0
-0.0208079 -0.00472973 0.0
0.00464913 -0.00284752 0.0
0.235669 -0.000890378 0.0
-0.00189769 -9.72882e-05 0.0
-0.00235248 -0.000325732 0.0
-0.00244549 -0.000588142 0.0
-0.00252666 -0.000854609 0.0
-0.00263319 -0.00113031 0.0
-0.00277 -0.00141794 0.0
-0.00293925 -0.00172032 0.0
-0.00314333 -0.00204041 0.0
-0.00338511 -0.00238115 0.0
-0.00366813 -0.00274552 0.0
-0.00399663 -0.00313641 0.0
-0.00437577 -0.00355654 0.0
-0.00481171 -0.00400833 0.0
-0.00531186 -0.00449365 0.0
-0.00588513 -0.00501349 0.0
-0.00654218 -0.00556743 0.0
-0.00729573 -0.00615296 0.0
-0.00816082 -0.0067644 0.0
-0.00915499 -0.0073915 0.0
-0.0102981 -0.00801742 0.0
-0.0116118 -0.00861604 0.0
-0.0131177 -0.00914855 0.0
-0.0148337 -0.00955933 0.0
-0.0167679 -0.0097717 0.0
-0.0189056 -0.00968482 0.0
-0.021176 -0.00917469 0.0
-0.023247 -0.0081061 0.0
-0.0226673 -0.00636295 0.0
0.00236944 -0.00392411 0.0
0.233538 -0.00125217 0.0
-0.00168223 -0.000107148 0.0
-0.00208573 -0.000358762 0.0
-0.00216856 -0.000647869 0.0
-0.0022411 -0.000941619 0.0
-0.00233641 -0.00124582 0.0
-0.00245896 -0.00156356 0.0
-0.0026108 -0.00189813 0.0
-0.00279424 -0.00225301 0.0
-0.00301209 -0.00263176 0.0
-0.00326787 -0.00303806 0.0
-0.00356587 -0.00347567 0.0
-0.00391137 -0.00394836 0.0
-0.00431087 -0.00445979 0.0
-0.00477237 -0.0050134 0.0
-0.00530576 -0.00561204 0.0
-0.00592327 -0.00625759 0.0
-0.00664011 -0.00695027 0.0
-0.0074751 -0.00768755 0.0
-0.00845141 -0.00846264 0.0
-0.00959724 -0.00926205 0.0
-0.0109461 -0.0100622 0.0
-0.0125363 -0.0108244 0.0
-0.0144084 -0.0114881 0.0
-0.0165986 -0.0119623 0.0
-0.0191251 -0.0121155 0.0
-0.0219461 -0.0117683 0.0
-0.0247376 -0.0106971 0.0
-0.0249896 -0.00866305 0.0
-0.000663378 -0.00554282 0.0
0.230539 -0.00182719 0.0
-0.00144721 -0.000115838 0.0
-0.00179472 -0.000387867 0.0
-0.0018663 -0.000700513 0.0
-0.00192919 -0.00101836 0.0
-0.00201192 -0.00134779 0.0
-0.00211841 -0.00169229 0.0
-0.00225054 -0.00205559 0.0
-0.00241046 -0.00244169 0.0
-0.00260083 -0.00285478 0.0
-0.00282499 -0.00329929 0.0
-0.00308711 -0.0037799 0.0
-0.00339237 -0.00430154 0.0
-0.00374729 -0.00486932 0.0
-0.00416006 -0.00548853 0.0
-0.00464108 -0.00616438 0.0
-0.00520361 -0.00690178 0.0
-0.00586465 -0.00770477 0.0
-0.00664613 -0.00857569 0.0
-0.00757635 -0.00951364 0.0