# vtk DataFile Version 3.0
Malha 2D com triângulos e temperatura
ASCII
DATASET UNSTRUCTURED_GRID

POINTS 961 double
0 0 0
1 0 0
1 1 0
0 1 0
0.0333333 0 0
0.0666667 0 0
0.1 0 0
0.133333 0 0
0.166667 0 0
0.2 0 0
0.233333 0 0
0.266667 0 0
0.3 0 0
0.333333 0 0
0.366667 0 0
0.4 0 0
0.433333 0 0
0.466667 0 0
0.5 0 0
0.533333 0 0
0.566667 0 0
0.6 0 0
0.633333 0 0
0.666667 0 0
0.7 0 0
0.733333 0 0
0.766667 0 0
0.8 0 0
0.833333 0 0
0.866667 0 0
0.9 0 0
0.933333 0 0
0.966667 0 0
1 0.0333333 0
1 0.0666667 0
1 0.1 0
1 0.133333 0
1 0.166667 0
1 0.2 0
1 0.233333 0
1 0.266667 0
1 0.3 0
1 0.333333 0
1 0.366667 0
1 0.4 0
1 0.433333 0
1 0.466667 0
1 0.5 0
1 0.533333 0
1 0.566667 0
1 0.6 0
1 0.633333 0
1 0.666667 0
1 0.7 0
1 0.733333 0
1 0.766667 0
1 0.8 0
1 0.833333 0
1 0.866667 0
1 0.9 0
1 0.933333 0
1 0.966667 0
0.966667 1 0
0.933333 1 0
0.9 1 0
0.866667 1 0
0.833333 1 0
0.8 1 0
0.766667 1 0
0.733333 1 0
0.7 1 0
0.666667 1 0
0.633333 1 0
0.6 1 0
0.566667 1 0
0.533333 1 0
0.5 1 0
0.466667 1 0
0.433333 1 0
0.4 1 0
0.366667 1 0
0.333333 1 0
0.3 1 0
0.266667 1 0
0.233333 1 0
0.2 1 0
0.166667 1 0
0.133333 1 0
0.1 1 0
0.0666667 1 0
0.0333333 1 0
0 0.966667 0
0 0.933333 0
0 0.9 0
0 0.866667 0
0 0.833333 0
0 0.8 0
0 0.766667 0
0 0.733333 0
0 0.7 0
0 0.666667 0
0 0.633333 0
0 0.6 0
0 0.566667 0
0 0.533333 0
0 0.5 0
0 0.466667 0
0 0.433333 0
0 0.4 0
0 0.366667 0
0 0.333333 0
0 0.3 0
0 0.266667 0
0 0.233333 0
0 0.2 0
0 0.166667 0
0 0.133333 0
0 0.1 0
0 0.0666667 0
0 0.0333333 0
0.0333333 0.0333333 0
0.0333333 0.0666667 0
0.0333333 0.1 0
0.0333333 0.133333 0
0.0333333 0.166667 0
0.0333333 0.2 0
0.0333333 0.233333 0
0.0333333 0.266667 0
0.0333333 0.3 0
0.0333333 0.333333 0
0.0333333 0.366667 0
0.0333333 0.4 0
0.0333333 0.433333 0
0.0333333 0.466667 0
0.0333333 0.5 0
0.0333333 0.533333 0
0.0333333 0.566667 0
0.0333333 0.6 0
0.0333333 0.633333 0
0.0333333 0.666667 0
0.0333333 0.7 0
0.0333333 0.733333 0
0.0333333 0.766667 0
0.0333333 0.8 0
0.0333333 0.833333 0
0.0333333 0.866667 0
0.0333333 0.9 0
0.0333333 0.933333 0
0.0333333 0.966667 0
0.0666667 0.0333333 0
0.0666667 0.0666667 0
0.0666667 0.1 0
0.0666667 0.133333 0
0.0666667 0.166667 0
0.0666667 0.2 0
0.0666667 0.233333 0
0.0666667 0.266667 0
0.0666667 0.3 0
0.0666667 0.333333 0
0.0666667 0.366667 0
0.0666667 0.4 0
0.0666667 0.433333 0
0.0666667 0.466667 0
0.0666667 0.5 0
0.0666667 0.533333 0
0.0666667 0.566667 0
0.0666667 0.6 0
0.0666667 0.633333 0
0.0666667 0.666667 0
0.0666667 0.7 0
0.0666667 0.733333 0
0.0666667 0.766667 0
0.0666667 0.8 0
0.0666667 0.833333 0
0.0666667 0.866667 0
0.0666667 0.9 0
0.0666667 0.933333 0
0.0666667 0.966667 0
0.1 0.0333333 0
0.1 0.0666667 0
0.1 0.1 0
0.1 0.133333 0
0.1 0.166667 0
0.1 0.2 0
0.1 0.233333 0
0.1 0.266667 0
0.1 0.3 0
0.1 0.333333 0
0.1 0.366667 0
0.1 0.4 0
0.1 0.433333 0
0.1 0.466667 0
0.1 0.5 0
0.1 0.533333 0
0.1 0.566667 0
0.1 0.6 0
0.1 0.633333 0
0.1 0.666667 0
0.1 0.7 0
0.1 0.733333 0
0.1 0.766667 0
0.1 0.8 0
0.1 0.833333 0
0.1 0.866667 0
0.1 0.9 0
0.1 0.933333 0
0.1 0.966667 0
0.133333 0.0333333 0
0.133333 0.0666667 0
0.133333 0.1 0
0.133333 0.133333 0
0.133333 0.166667 0
0.133333 0.2 0
0.133333 0.233333 0
0.133333 0.266667 0
0.133333 0.3 0
0.133333 0.333333 0
0.133333 0.366667 0
0.133333 0.4 0
0.133333 0.433333 0
0.133333 0.466667 0
0.133333 0.5 0
0.133333 0.533333 0
0.133333 0.566667 0
0.133333 0.6 0
0.133333 0.633333 0
0.133333 0.666667 0
0.133333 0.7 0
0.133333 0.733333 0
0.133333 0.766667 0
0.133333 0.8 0
0.133333 0.833333 0
0.133333 0.866667 0
0.133333 0.9 0
0.133333 0.933333 0
0.133333 0.966667 0
0.166667 0.0333333 0
0.166667 0.0666667 0
0.166667 0.1 0
0.166667 0.133333 0
0.166667 0.166667 0
0.166667 0.2 0
0.166667 0.233333 0
0.166667 0.266667 0
0.166667 0.3 0
0.166667 0.333333 0
0.166667 0.366667 0
0.166667 0.4 0
0.166667 0.433333 0
0.166667 0.466667 0
0.166667 0.5 0
0.166667 0.533333 0
0.166667 0.566667 0
0.166667 0.6 0
0.166667 0.633333 0
0.166667 0.666667 0
0.166667 0.7 0
0.166667 0.733333 0
0.166667 0.766667 0
0.166667 0.8 0
0.166667 0.833333 0
0.166667 0.866667 0
0.166667 0.9 0
0.166667 0.933333 0
0.166667 0.966667 0
0.2 0.0333333 0
0.2 0.0666667 0
0.2 0.1 0
0.2 0.133333 0
0.2 0.166667 0
0.2 0.2 0
0.2 0.233333 0
0.2 0.266667 0
0.2 0.3 0
0.2 0.333333 0
0.2 0.366667 0
0.2 0.4 0
0.2 0.433333 0
0.2 0.466667 0
0.2 0.5 0
0.2 0.533333 0
0.2 0.566667 0
0.2 0.6 0
0.2 0.633333 0
0.2 0.666667 0
0.2 0.7 0
0.2 0.733333 0
0.2 0.766667 0
0.2 0.8 0
0.2 0.833333 0
0.2 0.866667 0
0.2 0.9 0
0.2 0.933333 0
0.2 0.966667 0
0.233333 0.0333333 0
0.233333 0.0666667 0
0.233333 0.1 0
0.233333 0.133333 0
0.233333 0.166667 0
0.233333 0.2 0
0.233333 0.233333 0
0.233333 0.266667 0
0.233333 0.3 0
0.233333 0.333333 0
0.233333 0.366667 0
0.233333 0.4 0
0.233333 0.433333 0
0.233333 0.466667 0
0.233333 0.5 0
0.233333 0.533333 0
0.233333 0.566667 0
0.233333 0.6 0
0.233333 0.633333 0
0.233333 0.666667 0
0.233333 0.7 0
0.233333 0.733333 0
0.233333 0.766667 0
0.233333 0.8 0
0.233333 0.833333 0
0.233333 0.866667 0
0.233333 0.9 0
0.233333 0.933333 0
0.233333 0.966667 0
0.266667 0.0333333 0
0.266667 0.0666667 0
0.266667 0.1 0
0.266667 0.133333 0
0.266667 0.166667 0
0.266667 0.2 0
0.266667 0.233333 0
0.266667 0.266667 0
0.266667 0.3 0
0.266667 0.333333 0
0.266667 0.366667 0
0.266667 0.4 0
0.266667 0.433333 0
0.266667 0.466667 0
0.266667 0.5 0
0.266667 0.533333 0
0.266667 0.566667 0
0.266667 0.6 0
0.266667 0.633333 0
0.266667 0.666667 0
0.266667 0.7 0
0.266667 0.733333 0
0.266667 0.766667 0
0.266667 0.8 0
0.266667 0.833333 0
0.266667 0.866667 0
0.266667 0.9 0
0.266667 0.933333 0
0.266667 0.966667 0
0.3 0.0333333 0
0.3 0.0666667 0
0.3 0.1 0
0.3 0.133333 0
0.3 0.166667 0
0.3 0.2 0
0.3 0.233333 0
0.3 0.266667 0
0.3 0.3 0
0.3 0.333333 0
0.3 0.366667 0
0.3 0.4 0
0.3 0.433333 0
0.3 0.466667 0
0.3 0.5 0
0.3 0.533333 0
0.3 0.566667 0
0.3 0.6 0
0.3 0.633333 0
0.3 0.666667 0
0.3 0.7 0
0.3 0.733333 0
0.3 0.766667 0
0.3 0.8 0
0.3 0.833333 0
0.3 0.866667 0
0.3 0.9 0
0.3 0.933333 0
0.3 0.966667 0
0.333333 0.0333333 0
0.333333 0.0666667 0
0.333333 0.1 0
0.333333 0.133333 0
0.333333 0.166667 0
0.333333 0.2 0
0.333333 0.233333 0
0.333333 0.266667 0
0.333333 0.3 0
0.333333 0.333333 0
0.333333 0.366667 0
0.333333 0.4 0
0.333333 0.433333 0
0.333333 0.466667 0
0.333333 0.5 0
0.333333 0.533333 0
0.333333 0.566667 0
0.333333 0.6 0
0.333333 0.633333 0
0.333333 0.666667 0
0.333333 0.7 0
0.333333 0.733333 0
0.333333 0.766667 0
0.333333 0.8 0
0.333333 0.833333 0
0.333333 0.866667 0
0.333333 0.9 0
0.333333 0.933333 0
0.333333 0.966667 0
0.366667 0.0333333 0
0.366667 0.0666667 0
0.366667 0.1 0
0.366667 0.133333 0
0.366667 0.166667 0
0.366667 0.2 0
0.366667 0.233333 0
0.366667 0.266667 0
0.366667 0.3 0
0.366667 0.333333 0
0.366667 0.366667 0
0.366667 0.4 0
0.366667 0.433333 0
0.366667 0.466667 0
0.366667 0.5 0
0.366667 0.533333 0
0.366667 0.566667 0
0.366667 0.6 0
0.366667 0.633333 0
0.366667 0.666667 0
0.366667 0.7 0
0.366667 0.733333 0
0.366667 0.766667 0
0.366667 0.8 0
0.366667 0.833333 0
0.366667 0.866667 0
0.366667 0.9 0
0.366667 0.933333 0
0.366667 0.966667 0
0.4 0.0333333 0
0.4 0.0666667 0
0.4 0.1 0
0.4 0.133333 0
0.4 0.166667 0
0.4 0.2 0
0.4 0.233333 0
0.4 0.266667 0
0.4 0.3 0
0.4 0.333333 0
0.4 0.366667 0
0.4 0.4 0
0.4 0.433333 0
0.4 0.466667 0
0.4 0.5 0
0.4 0.533333 0
0.4 0.566667 0
0.4 0.6 0
0.4 0.633333 0
0.4 0.666667 0
0.4 0.7 0
0.4 0.733333 0
0.4 0.766667 0
0.4 0.8 0
0.4 0.833333 0
0.4 0.866667 0
0.4 0.9 0
0.4 0.933333 0
0.4 0.966667 0
0.433333 0.0333333 0
0.433333 0.0666667 0
0.433333 0.1 0
0.433333 0.133333 0
0.433333 0.166667 0
0.433333 0.2 0
0.433333 0.233333 0
0.433333 0.266667 0
0.433333 0.3 0
0.433333 0.333333 0
0.433333 0.366667 0
0.433333 0.4 0
0.433333 0.433333 0
0.433333 0.466667 0
0.433333 0.5 0
0.433333 0.533333 0
0.433333 0.566667 0
0.433333 0.6 0
0.433333 0.633333 0
0.433333 0.666667 0
0.433333 0.7 0
0.433333 0.733333 0
0.433333 0.766667 0
0.433333 0.8 0
0.433333 0.833333 0
0.433333 0.866667 0
0.433333 0.9 0
0.433333 0.933333 0
0.433333 0.966667 0
0.466667 0.0333333 0
0.466667 0.0666667 0
0.466667 0.1 0
0.466667 0.133333 0
0.466667 0.166667 0
0.466667 0.2 0
0.466667 0.233333 0
0.466667 0.266667 0
0.466667 0.3 0
0.466667 0.333333 0
0.466667 0.366667 0
0.466667 0.4 0
0.466667 0.433333 0
0.466667 0.466667 0
0.466667 0.5 0
0.466667 0.533333 0
0.466667 0.566667 0
0.466667 0.6 0
0.466667 0.633333 0
0.466667 0.666667 0
0.466667 0.7 0
0.466667 0.733333 0
0.466667 0.766667 0
0.466667 0.8 0
0.466667 0.833333 0
0.466667 0.866667 0
0.466667 0.9 0
0.466667 0.933333 0
0.466667 0.966667 0
0.5 0.0333333 0
0.5 0.0666667 0
0.5 0.1 0
0.5 0.133333 0
0.5 0.166667 0
0.5 0.2 0
0.5 0.233333 0
0.5 0.266667 0
0.5 0.3 0
0.5 0.333333 0
0.5 0.366667 0
0.5 0.4 0
0.5 0.433333 0
0.5 0.466667 0
0.5 0.5 0
0.5 0.533333 0
0.5 0.566667 0
0.5 0.6 0
0.5 0.633333 0
0.5 0.666667 0
0.5 0.7 0
0.5 0.733333 0
0.5 0.766667 0
0.5 0.8 0
0.5 0.833333 0
0.5 0.866667 0
0.5 0.9 0
0.5 0.933333 0
0.5 0.966667 0
0.533333 0.0333333 0
0.533333 0.0666667 0
0.533333 0.1 0
0.533333 0.133333 0
0.533333 0.166667 0
0.533333 0.2 0
0.533333 0.233333 0
0.533333 0.266667 0
0.533333 0.3 0
0.533333 0.333333 0
0.533333 0.366667 0
0.533333 0.4 0
0.533333 0.433333 0
0.533333 0.466667 0
0.533333 0.5 0
0.533333 0.533333 0
0.533333 0.566667 0
0.533333 0.6 0
0.533333 0.633333 0
0.533333 0.666667 0
0.533333 0.7 0
0.533333 0.733333 0
0.533333 0.766667 0
0.533333 0.8 0
0.533333 0.833333 0
0.533333 0.866667 0
0.533333 0.9 0
0.533333 0.933333 0
0.533333 0.966667 0
0.566667 0.0333333 0
0.566667 0.0666667 0
0.566667 0.1 0
0.566667 0.133333 0
0.566667 0.166667 0
0.566667 0.2 0
0.566667 0.233333 0
0.566667 0.266667 0
0.566667 0.3 0
0.566667 0.333333 0
0.566667 0.366667 0
0.566667 0.4 0
0.566667 0.433333 0
0.566667 0.466667 0
0.566667 0.5 0
0.566667 0.533333 0
0.566667 0.566667 0
0.566667 0.6 0
0.566667 0.633333 0
0.566667 0.666667 0
0.566667 0.7 0
0.566667 0.733333 0
0.566667 0.766667 0
0.566667 0.8 0
0.566667 0.833333 0
0.566667 0.866667 0
0.566667 0.9 0
0.566667 0.933333 0
0.566667 0.966667 0
0.6 0.0333333 0
0.6 0.0666667 0
0.6 0.1 0
0.6 0.133333 0
[...]
CELL_DATA 900
VECTORS velocity double
7.22259e-05 -7.10686e-05 0.0
-9.82148e-07 -2.93211e-05 0.0
-7.54665e-05 0.000302594 0.0
-0.000135996 0.000857318 0.0
-0.00017531 0.00160144 0.0
-0.000202091 0.00248027 0.0
-0.000221804 0.00346971 0.0
-0.000239352 0.00455473 0.0
-0.000257718 0.00573491 0.0
-0.00027896 0.00701808 0.0
-0.00030446 0.00841947 0.0
-0.000335367 0.00995995 0.0
-0.00037289 0.0116661 0.0
-0.000418623 0.0135707 0.0
-0.00047491 0.0157149 0.0
-0.000545363 0.0181511 0.0
-0.000635665 0.0209478 0.0
-0.000754965 0.0241964 0.0
-0.000918488 0.0280216 0.0
-0.00115301 0.0325971 0.0
-0.00150859 0.0381721 0.0
-0.00208483 0.0451174 0.0
-0.00308521 0.0540176 0.0
-0.00492934 0.0658259 0.0
-0.00841995 0.0822382 0.0
-0.0149557 0.105804 0.0
-0.0257169 0.141762 0.0
-0.0382236 0.188925 0.0
-0.0136211 0.262155 0.0
0.216693 0.173828 0.0
2.73272e-05 5.18828e-06 0.0
-0.000409464 0.000411808 0.0
-0.00084462 0.00141825 0.0
-0.00122106 0.00286929 0.0
-0.00151248 0.00472985 0.0
-0.00174349 0.00690909 0.0
-0.00193798 0.00936473 0.0
-0.00212005 0.0120693 0.0
-0.00230849 0.0150227 0.0
-0.0025182 0.0182429 0.0
-0.00276117 0.0217643 0.0
-0.00304816 0.0256351 0.0
-0.00339046 0.0299168 0.0
-0.00380172 0.0346854 0.0
-0.00430002 0.0400346 0.0
-0.00491031 0.0460809 0.0
-0.00566757 0.0529703 0.0
-0.00662111 0.0608877 0.0
-0.00784083 0.0700669 0.0
-0.00942776 0.080802 0.0
-0.0115325 0.0934554 0.0
-0.0143908 0.10846 0.0
-0.0183804 0.126298 0.0
-0.0241162 0.147412 0.0
-0.0324581 0.171988 0.0
-0.0443463 0.1991 0.0
-0.0583447 0.225581 0.0
-0.0652039 0.239902 0.0
-0.00338332 0.218132 0.0
0.304714 0.116259 0.0
-0.000307805 7.92243e-05 0.0
-0.00141261 0.000827018 0.0
-0.00246505 0.00241576 0.0
-0.00337776 0.00457021 0.0
-0.00411738 0.00725993 0.0
-0.00472652 0.0103741 0.0
-0.00525618 0.0138665 0.0
-0.00575901 0.0177064 0.0
-0.00627948 0.0218965 0.0
-0.00685422 0.0264614 0.0
-0.0075136 0.0314464 0.0
-0.00828509 0.0369135 0.0
-0.00919682 0.0429407 0.0
-0.0102815 0.0496221 0.0
-0.0115804 0.0570703 0.0
-0.0131475 0.0654193 0.0
-0.0150543 0.0748286 0.0
-0.0173937 0.0854857 0.0
-0.0202848 0.0976059 0.0
-0.0238762 0.111424 0.0
-0.0283483 0.127168 0.0
-0.0339128 0.145011 0.0
-0.040786 0.164949 0.0
-0.0491037 0.186597 0.0
-0.0585141 0.208718 0.0
-0.0671646 0.228511 0.0
-0.067654 0.239423 0.0
-0.0384415 0.230999 0.0
0.0914579 0.173536 0.0
0.475629 0.0769461 0.0
-0.000847655 0.00013507 0.0
-0.00281117 0.00114938 0.0
-0.00458934 0.00318004 0.0
-0.00610755 0.00583751 0.0
-0.00735494 0.00909401 0.0
-0.0084001 0.0128254 0.0
-0.00932453 0.0169875 0.0
-0.0102107 0.0215508 0.0
-0.0111297 0.0265215 0.0
-0.0121408 0.0319277 0.0
-0.0132933 0.037819 0.0
-0.0146311 0.0442612 0.0
-0.016198 0.0513351 0.0
-0.0180428 0.059135 0.0
-0.0202239 0.0677687 0.0
-0.0228142 0.0773575 0.0
-0.0259032 0.0880345 0.0
-0.0295976 0.0999396 0.0
-0.0340163 0.113206 0.0
-0.0392773 0.127934 0.0
-0.0454693 0.144139 0.0
-0.0526 0.161659 0.0
-0.0604825 0.179993 0.0
-0.0685018 0.198068 0.0
-0.074973 0.213715 0.0
-0.075723 0.223309 0.0
-0.0598366 0.219844 0.0
-0.00026268 0.19525 0.0
0.167898 0.129418 0.0
0.574643 0.0491516 0.0
-0.00153792 0.000164132 0.0
-0.00451933 0.00134348 0.0
-0.00711309 0.00365451 0.0
-0.00928986 0.00662113 0.0
-0.0110852 0.0102129 0.0
-0.012603 0.0142945 0.0
-0.01396 0.0188242 0.0
-0.0152697 0.0237745 0.0
-0.0166304 0.029154 0.0
-0.0181232 0.0349923 0.0
-0.0198155 0.0413386 0.0
-0.0217661 0.0482564 0.0
-0.0240311 0.0558206 0.0
-0.0266705 0.0641148 0.0
-0.029752 0.0732292 0.0
-0.0333547 0.0832568 0.0
-0.0375682 0.0942874 0.0
-0.0424853 0.106396 0.0
-0.0481847 0.119622 0.0
-0.0546967 0.133929 0.0
-0.0619407 0.149145 0.0
-0.0696208 0.16486 0.0
-0.0770331 0.180256 0.0
-0.0827163 0.19392 0.0
-0.083663 0.20336 0.0
-0.0737337 0.20499 0.0
-0.0395371 0.192501 0.0
0.0474906 0.160437 0.0
0.242259 0.0964114 0.0
0.64696 0.0309269 0.0
-0.0022992 0.000175571 0.0
-0.0063855 0.00143282 0.0
-0.00983511 0.00387656 0.0
-0.0126836 0.00698049 0.0
-0.0150294 0.0107096 0.0
-0.0170204 0.0149213 0.0
-0.0188121 0.019576 0.0
-0.0205497 0.0246476 0.0
-0.0223574 0.0301466 0.0
-0.0243365 0.0361022 0.0
-0.0265696 0.0425614 0.0
-0.0291267 0.0495817 0.0
-0.0320716 0.0572286 0.0
-0.0354686 0.0655709 0.0
-0.0393857 0.0746766 0.0
-0.0438955 0.0846073 0.0
-0.0490697 0.0954082 0.0
-0.0549642 0.107093 0.0
-0.0615879 0.119617 0.0
-0.0688479 0.132837 0.0
-0.076457 0.146445 0.0
-0.0837862 0.159874 0.0
-0.0896189 0.172141 0.0
-0.0917334 0.181724 0.0
-0.0860703 0.186136 0.0
-0.0651668 0.182247 0.0
-0.0144386 0.164603 0.0
0.0935301 0.130672 0.0
0.305117 0.0728135 0.0
0.698499 0.0197174 0.0
-0.00308382 0.000174967 0.0
-0.00830721 0.00144032 0.0
-0.0126209 0.00389386 0.0
-0.0161348 0.00699236 0.0
-0.0190183 0.010697 0.0
-0.0214686 0.014863 0.0
-0.0236825 0.0194526 0.0
-0.0258371 0.0244416 0.0
-0.0280811 0.0298415 0.0
-0.0305338 0.0356808 0.0
-0.0332903 0.0420029 0.0
-0.0364281 0.0488593 0.0
-0.0400144 0.0563053 0.0
-0.0441119 0.0643949 0.0
-0.048781 0.0731756 0.0
-0.0540779 0.0826807 0.0
-0.0600441 0.0929176 0.0
-0.0666833 0.10385 0.0
-0.0739173 0.115372 0.0
-0.0815129 0.127266 0.0
-0.0889647 0.139136 0.0
-0.0953145 0.150336 0.0
-0.0988724 0.159826 0.0
-0.096764 0.166104 0.0
-0.0841221 0.16684 0.0
-0.0525722 0.159484 0.0
0.0128477 0.139349 0.0
0.136704 0.106476 0.0
0.358449 0.0556519 0.0
0.736184 0.012749 0.0
-0.00385238 0.000167335 0.0
-0.0101946 0.00138929 0.0
-0.0153487 0.00375687 0.0
-0.0195017 0.00673676 0.0
-0.0228953 0.0102887 0.0
-0.0257789 0.0142713 0.0
-0.028391 0.0186495 0.0
-0.0309401 0.0234017 0.0
-0.0335979 0.0285406 0.0
-0.0364995 0.034094 0.0
-0.0397499 0.0401023 0.0
-0.043431 0.0466115 0.0
-0.0476095 0.0536686 0.0
-0.0523417 0.0613157 0.0
-0.0576748 0.069584 0.0
-0.0636413 0.078485 0.0
-0.0702441 0.087998 0.0
-0.0774252 0.0980521 0.0
-0.0850108 0.108498 0.0
-0.0926226 0.11907 0.0
-0.0995404 0.129327 0.0
-0.1045 0.138589 0.0
-0.105397 0.14582 0.0
-0.0988261 0.149604 0.0
-0.0793428 0.147858 0.0
-0.0380682 0.138488 0.0
0.0394496 0.117957 0.0
0.175476 0.0872416 0.0
0.40308 0.0431792 0.0
0.764293 0.00841999 0.0
-0.00457973 0.000155359 0.0
-0.011984 0.00129623 0.0
-0.0179301 0.00350494 0.0
-0.0226804 0.00627835 0.0
-0.0265469 0.00957741 0.0
-0.0298307 0.0132696 0.0
-0.0328116 0.017324 0.0
-0.0357278 0.021723 0.0
-0.0387725 0.0264808 0.0
-0.0420947 0.0316252 0.0
-0.045807 0.0371952 0.0
-0.0499936 0.043233 0.0
-0.0547177 0.0497799 0.0
-0.0600264 0.0568702 0.0
-0.0659494 0.0645245 0.0
-0.0724911 0.0727403 0.0
-0.0796106 0.081479 0.0
-0.0871831 0.0906475 0.0
-0.0949356 0.100071 0.0
-0.102345 0.109456 0.0
-0.108487 0.118339 0.0
-0.111821 0.126035 0.0
-0.109887 0.131547 0.0
-0.0988622 0.133564 0.0
-0.0729097 0.130277 0.0
-0.0229599 0.11997 0.0
0.0647066 0.100058 0.0
0.21001 0.0719249 0.0
0.440469 0.0339694 0.0
0.785708 0.00569418 0.0
-0.00524717 0.000140577 0.0
-0.0136263 0.0011724 0.0
-0.0202953 0.00316656 0.0
-0.0255875 0.00566515 0.0
-0.0298814 0.00863278 0.0
-0.0335273 0.0119507 0.0
-0.0368436 0.0155939 0.0
-0.040097 0.0195498 0.0
-0.0435 0.0238354 0.0
-0.047214 0.0284799 0.0
-0.0513576 0.0335218 0.0
-0.0560158 0.0390022 0.0
-0.061247 0.0449602 0.0
-0.0670867 0.0514268 0.0
-0.0735455 0.0584181 0.0
-0.0805968 0.0659253 0.0
-0.0881528 0.0739016 0.0
-0.0960192 0.0822431 0.0
-0.103822 0.0907615 0.0
-0.110897 0.09915 0.0
-0.116126 0.106937 0.0
-0.117722 0.113444 0.0
-0.112928 0.117722 0.0
-0.0976047 0.118567 0.0
-0.0656713 0.11443 0.0
-0.00807315 0.103878 0.0
0.0880486 0.0851065 0.0
0.240444 0.0596806 0.0
0.471808 0.0270777 0.0
0.802325 0.00395261 0.0
-0.00584106 0.000123616 0.0
-0.0150844 0.00102456 0.0
-0.0223905 0.00276038 0.0
-0.0281585 0.00492981 0.0
-0.0328275 0.00750318 0.0
-0.0367932 0.0103795 0.0
-0.0404097 0.0135413 0.0
-0.0439692 0.0169826 0.0
-0.0477021 0.0207241 0.0
-0.0517806 0.0247974 0.0
-0.0563289 0.0292426 0.0
-0.0614316 0.0341021 0.0
-0.067142 0.0394163 0.0
-0.0734841 0.0452178 0.0
-0.0804478 0.0515242 0.0
-0.0879751 0.0583284 0.0
-0.0959293 0.0655842 0.0
-0.104045 0.0731865 0.0
-0.111845 0.0809436 0.0
-0.118525 0.0885437 0.0
-0.122786 0.0955132 0.0
-0.122616 0.101182 0.0
-0.115011 0.104645 0.0
-0.0955996 0.104787 0.0
-0.0581604 0.100291 0.0
0.00621727 0.0899174 0.0
0.109329 0.0726118 0.0
0.26714 0.049824 0.0
0.49815 0.0218443 0.0
0.81544 0.00281915 0.0
-0.00635009 0.000104676 0.0
-0.0163282 0.000856646 0.0
-0.0241722 0.00229823 0.0
-0.0303408 0.00409394 0.0
-0.0353268 0.00622133 0.0
-0.0395665 0.00860043 0.0
-0.0434458 0.0112224 0.0
-0.0472797 0.0140893 0.0
-0.0513143 0.0172264 0.0
-0.0557321 0.0206687 0.0
-0.060662 0.0244596 0.0
-0.0661893 0.0286453 0.0
-0.0723625 0.0332709 0.0
-0.0791946 0.0383754 0.0
-0.0866563 0.0439842 0.0
-0.0946575 0.0500992 0.0
-0.103012 0.0566836 0.0
-0.111381 0.0636399 0.0
-0.119183 0.0707811 0.0
-0.125471 0.0777961 0.0
-0.12877 0.0842112 0.0
-0.126863 0.0893616 0.0
-0.116539 0.0923736 0.0
-0.0932649 0.0922067 0.0
-0.0507788 0.0877123 0.0
0.0194997 0.0779179 0.0
0.128519 0.0621476 0.0
0.290489 0.0418417 0.0
0.520367 0.0178163 0.0
0.825947 0.00206715 0.0
-0.00676444 8.37478e-05 0.0
-0.0173324 0.000670963 0.0
-0.0256041 0.00178776 0.0
-0.0320904 0.00317216 0.0
-0.0373304 0.00480986 0.0
-0.0417952 0.00664441 0.0
-0.0458978 0.00867645 0.0
-0.0499729 0.0109168 0.0
-0.0542809 0.0133956 0.0
-0.0590134 0.0161526 0.0
-0.064305 0.0192355 0.0
-0.0702425 0.0226965 0.0
-0.0768718 0.0265887 0.0
-0.0841971 0.030962 0.0
-0.0921718 0.0358558 0.0
-0.100675 0.0412882 0.0
-0.109471 0.0472405 0.0
-0.118144 0.0536319 0.0
-0.126005 0.0602876 0.0
-0.13196 0.0669025 0.0
-0.134357 0.0730029 0.0
-0.130786 0.0779231 0.0
-0.117861 0.0808054 0.0
-0.0909492 0.0806635 0.0
-0.0438391 0.0764754 0.0
0.0316691 0.0674893 0.0
0.145713 0.0532757 0.0
0.310879 0.0352874 0.0
0.539169 0.0146562 0.0
0.834477 0.00155402 0.0
-0.00707501 6.07722e-05 0.0
-0.0180747 0.000469121 0.0
-0.0266548 0.0012347 0.0
-0.0333696 0.00217563 0.0
-0.0387962 0.00328631 0.0
-0.0434337 0.00453541 0.0
-0.0477174 0.0059334 0.0
-0.0519984 0.0075 0.0
-0.0565495 0.00927052 0.0
-0.0615715 0.0112894 0.0
-0.0672053 0.0136097 0.0
-0.0735419 0.0162909 0.0
-0.0806276 0.0193973 0.0
-0.0884615 0.0229937 0.0
-0.0969829 0.0271391 0.0
-0.106043 0.0318755 0.0
-0.115357 0.037211 0.0
-0.12443 0.0430914 0.0
-0.132457 0.049362 0.0
-0.138192 0.0557299 0.0
-0.139797 0.0617227 0.0
-0.134673 0.0666676 0.0
-0.119283 0.069706 0.0
-0.088944 0.0698794 0.0
-0.0375712 0.0662544 0.0
0.0426144 0.0582406 0.0
0.160981 0.0456019 0.0
0.328627 0.0297872 0.0
0.555106 0.0121086 0.0
0.841466 0.00118813 0.0
-0.00727349 3.57357e-05 0.0
-0.0185359 0.000252695 0.0
-0.0272977 0.000644418 0.0
-0.0341466 0.00111477 0.0
-0.0396882 0.00166691 0.0
-0.0444426 0.00229558 0.0
-0.0488617 0.00302067 0.0
-0.0533097 0.00387045 0.0
-0.0580697 0.0048847 0.0
-0.063352 0.00611213 0.0
-0.0693059 0.0076111 0.0
-0.0760294 0.00944953 0.0
-0.0835737 0.0117044 0.0
-0.0919381 0.0144591 0.0
-0.101053 0.0177977 0.0
-0.110747 0.0217927 0.0
-0.120689 0.0264891 0.0
-0.130298 0.0318688 0.0
-0.138647 0.0378072 0.0
-0.144327 0.0440332 0.0
-0.145302 0.0500803 0.0
-0.138777 0.0552652 0.0
-0.121077 0.0587142 0.0
-0.0875055 0.0594677 0.0
-0.0321685 0.056644 0.0
0.0522499 0.0497587 0.0
0.17438 0.0387373 0.0
0.343979 0.0250036 0.0
0.568582 0.00996513 0.0
0.847204 0.000906747 0.0
-0.00735198 8.64185e-06 0.0
-0.0186988 2.35374e-05 0.0
-0.0275099 2.30317e-05 0.0
-0.0343942 1.17314e-06 0.0
-0.0399756 -3.05164e-05 0.0
-0.0447872 -5.10009e-05 0.0
-0.0492913 -3.1845e-05 0.0
-0.0538616 6.25155e-05 0.0
-0.0587901 0.000274808 0.0
-0.0642968 0.000656691 0.0
-0.0705417 0.00127079 0.0
-0.0776345 0.00219295 0.0
-0.0856369 0.00351366 0.0
-0.0945553 0.00533699 0.0
-0.104318 0.00777606 0.0
-0.114736 0.0109404 0.0
-0.125435 0.0149226 0.0
-0.13575 0.0197509 0.0
-0.144625 0.0253419 0.0
-0.150471 0.0314604 0.0
-0.151036 0.0376569 0.0
-0.143315 0.0432425 0.0
-0.12349 0.0473209 0.0
-0.0868802 0.0489057 0.0
-0.0278318 0.0471311 0.0
0.0604621 0.0415612 0.0
0.185911 0.032258 0.0
0.357081 0.0205992 0.0
0.579858 0.00803666 0.0
0.851866 0.000662075 0.0
-0.00730435 -2.02105e-05 0.0
-0.0185512 -0.00021567 0.0
-0.0272749 -0.00062185 0.0
-0.0340929 -0.00115099 0.0
-0.0396357 -0.00178394 0.0
-0.0444409 -0.00247416 0.0
-0.0489747 -0.0031865 0.0
-0.0536156 -0.00388022 0.0
-0.0586629 -0.00451208 0.0
-0.0643467 -0.00502997 0.0
-0.0708404 -0.00536941 0.0
-0.0782701 -0.00544855 0.0
-0.0867151 -0.00516429 0.0
-0.0961976 -0.00439079 0.0
-0.106654 -0.00298219 0.0
-0.117892 -0.000784978 0.0
-0.129505 0.00234238 0.0
-0.140724 0.00648017 0.0
-0.150364 0.0116106 0.0
-0.156649 0.0175549 0.0
-0.157092 0.0238981 0.0
-0.148452 0.0299612 0.0
-0.126747 0.0348333 0.0
-0.0873193 0.0374862 0.0
-0.0247935 0.0370389 0.0
0.0670771 0.0330397 0.0
0.195481 0.0256572 0.0
0.367948 0.016198 0.0
0.589033 0.00612872 0.0
0.855517 0.000411669 0.0
-0.00712536 -5.03924e-05 0.0
-0.018083 -0.000461201 0.0
-0.0265808 -0.00127986 0.0
-0.0332296 -0.00232277 0.0
-0.0386533 -0.00356434 0.0
-0.043384 -0.00493442 0.0
-0.0478852 -0.00639374 0.0
-0.0525356 -0.00789932 0.0
-0.0576399 -0.0094106 0.0
-0.0634388 -0.0108787 0.0
-0.0701222 -0.0122412 0.0
-0.0778384 -0.013414 0.0
-0.0866932 -0.014285 0.0
-0.0967354 -0.0147089 0.0
-0.107922 -0.0145078 0.0
-0.120057 -0.013482 0.0
-0.132697 -0.0114398 0.0
-0.14502 -0.00822637 0.0
-0.155704 -0.00378317 0.0
-0.162775 0.00178591 0.0
-0.163454 0.00811984 0.0
-0.154256 0.0146044 0.0
-0.13102 0.0203463 0.0
-0.0890896 0.0242737 0.0
-0.0233629 0.025469 0.0
0.0718042 0.0233945 0.0
0.202856 0.0182855 0.0
0.376425 0.0113414 0.0
0.596018 0.00401985 0.0
0.858099 0.00011262 0.0
-0.00681263 -8.1414e-05 0.0
-0.0172918 -0.000707858 0.0
-0.0254262 -0.00193647 0.0
-0.0318032 -0.00348837 0.0
-0.0370258 -0.00533306 0.0
-0.0416104 -0.00737946 0.0
-0.0460096 -0.00958715 0.0
-0.0505979 -0.0119144 0.0
-0.0556828 -0.0143276 0.0
-0.0615151 -0.0167858 0.0
-0.0683041 -0.0192345 0.0
-0.0762252 -0.0215941 0.0
-0.0854193 -0.0237507 0.0
-0.0959741 -0.0255471 0.0
-0.107881 -0.0267801 0.0
-0.120962 -0.0272065 0.0
-0.134759 -0.0265683 0.0
-0.148384 -0.0246299 0.0
-0.160379 -0.0212423 0.0
-0.168558 -0.0164288 0.0
-0.169926 -0.0104368 0.0
-0.160713 -0.00379189 0.0
-0.136431 0.00271718 0.0
-0.0924297 0.00804476 0.0
-0.0238711 0.0112382 0.0
0.0742508 0.0115923 0.0
0.207601 0.00931789 0.0
0.382091 0.00545425 0.0
0.600477 0.00143604 0.0
0.859432 -0.000286857 0.0
-0.00636676 -0.000112406 0.0
-0.0161825 -0.000948353 0.0
-0.0238201 -0.00257234 0.0
-0.0298255 -0.00461387 0.0
-0.0347651 -0.00703948 0.0
-0.0391287 -0.00974061 0.0
-0.0433503 -0.0126789 0.0
-0.0477944 -0.0158179 0.0
-0.0527678 -0.0191352 0.0
-0.0585307 -0.0226041 0.0
-0.0653124 -0.0261852 0.0
-0.0733201 -0.0298129 0.0
-0.0827374 -0.0333828 0.0
-0.0937027 -0.0367387 0.0
-0.106259 -0.0396641 0.0
-0.120267 -0.0418829 0.0
-0.135274 -0.0430784 0.0
-0.15035 -0.0429293 0.0
-0.163916 -0.0411739 0.0
-0.173589 -0.0376944 0.0
-0.17611 -0.0325865 0.0
-0.167427 -0.0262304 0.0
-0.142886 -0.0192618 0.0
-0.0976344 -0.0125635 0.0
-0.0269144 -0.0071019 0.0
0.0737084 -0.00373937 0.0
0.209027 -0.00237246 0.0
0.384313 -0.00218785 0.0
0.601825 -0.00188556 0.0
0.859141 -0.000804635 0.0
-0.00579292 -0.00014218 0.0
-0.0147713 -0.00117311 0.0
-0.0217869 -0.00316236 0.0
-0.0273263 -0.00565566 0.0
-0.0319029 -0.00861864 0.0
-0.0359695 -0.0119295 0.0
-0.0399326 -0.0155549 0.0
-0.044141 -0.0194673 0.0
-0.048896 -0.0236606 0.0
-0.0544642 -0.028128 0.0
-0.061094 -0.0328542 0.0
-0.0690256 -0.0377996 0.0
-0.078491 -0.0428847 0.0
-0.0896896 -0.0479733 0.0
-0.102733 -0.0528575 0.0
-0.117544 -0.0572502 0.0
-0.133709 -0.060794 0.0
-0.150288 -0.0630895 0.0
-0.165618 -0.0637504 0.0
-0.177154 -0.062479 0.0
-0.181406 -0.0591402 0.0
-0.174038 -0.0538332 0.0
-0.150117 -0.0469238 0.0
-0.104585 -0.0390591 0.0
-0.0326748 -0.0310989 0.0
0.0695488 -0.0239761 0.0
0.206031 -0.0178781 0.0
0.381707 -0.0123171 0.0
0.598881 -0.00627834 0.0
0.856753 -0.00149669 0.0
-0.00510218 -0.000169101 0.0
-0.0130881 -0.00136975 0.0
-0.0193699 -0.00367465 0.0
-0.0243575 -0.00655883 0.0
-0.0284962 -0.00998914 0.0
-0.032191 -0.0138351 0.0
-0.0358131 -0.018071 0.0
-0.0396884 -0.0226812 0.0
-0.044107 -0.0276791 0.0
-0.0493365 -0.0330841 0.0
-0.0556398 -0.0389138 0.0
-0.0632879 -0.0451675 0.0
-0.0725612 -0.0518096 0.0
-0.0837265 -0.0587491 0.0
-0.0969776 -0.0658178 0.0
-0.112325 -0.0727528 0.0
-0.12943 -0.0791903 0.0
-0.147392 -0.0846776 0.0
-0.16453 -0.0887077 0.0
-0.178208 -0.0907754 0.0
-0.184773 -0.0904405 0.0
-0.17966 -0.0873958 0.0
-0.157666 -0.0815396 0.0
-0.113426 -0.073037 0.0
-0.0419296 -0.0624521 0.0
0.060596 -0.050636 0.0
0.197296 -0.0384408 0.0
0.372939 -0.0258627 0.0
0.590437 -0.0122643 0.0
0.851558 -0.00249254 0.0
-0.00431303 -0.000191001 0.0
-0.0111796 -0.00152271 0.0
-0.0166353 -0.00406989 0.0
-0.0209983 -0.00725642 0.0
-0.0246322 -0.0110523 0.0
-0.0278859 -0.0153232 0.0
-0.0310874 -0.020052 0.0
-0.0345326 -0.0252366 0.0
-0.0384929 -0.0309119 0.0
-0.043229 -0.037127 0.0
-0.0490097 -0.0439395 0.0
-0.0561282 -0.0514003 0.0
-0.0649068 -0.0595374 0.0
-0.0756776 -0.0683339 0.0
-0.088724 -0.0777008 0.0
-0.104165 -0.0874481 0.0
-0.121777 -0.0972588 0.0
-0.140764 -0.106675 0.0
-0.159518 -0.115099 0.0
-0.175425 -0.121814 0.0
-0.184797 -0.126021 0.0
-0.182956 -0.126883 0.0
-0.16449 -0.123629 0.0
-0.123679 -0.115648 0.0
-0.055035 -0.102889 0.0
0.045657 -0.085712 0.0
0.181092 -0.0659481 0.0
0.355955 -0.0443147 0.0
0.574531 -0.0206552 0.0
0.842415 -0.00398557 0.0
-0.00345395 -0.000204894 0.0
-0.0091144 -0.00161274 0.0
-0.0136779 -0.00430111 0.0
-0.0173609 -0.00766983 0.0
-0.020436 -0.0116933 0.0
-0.0231901 -0.0162381 0.0
-0.0259015 -0.0212948 0.0
-0.0288293 -0.026874 0.0
-0.0322177 -0.0330308 0.0
-0.0363098 -0.0398446 0.0
-0.0413675 -0.0474158 0.0
-0.0476907 -0.0558552 0.0
-0.0556276 -0.0652707 0.0
-0.0655621 -0.0757477 0.0
-0.0778613 -0.087319 0.0
-0.0927636 -0.0999263 0.0
-0.110199 -0.113372 0.0
-0.129547 -0.127271 0.0
-0.149389 -0.141003 0.0
-0.167289 -0.153686 0.0
-0.179711 -0.164154 0.0
-0.182063 -0.170976 0.0
-0.168888 -0.172538 0.0
-0.134166 -0.167179 0.0
-0.0717708 -0.153783 0.0
0.0239476 -0.131494 0.0
0.155752 -0.102837 0.0
0.328383 -0.0698592 0.0
0.54861 -0.0328348 0.0
0.827659 -0.00637449 0.0
-0.00256401 -0.000207024 0.0
-0.00698334 -0.00161781 0.0
-0.0106212 -0.00431627 0.0
-0.0135903 -0.00771344 0.0
-0.0160697 -0.0117882 0.0
-0.0182819 -0.0164119 0.0
-0.0204518 -0.0215798 0.0
-0.0227957 -0.0273115 0.0
-0.0255217 -0.0336774 0.0
-0.0288429 -0.0407822 0.0
-0.0329978 -0.0487658 0.0
-0.0382714 -0.0577983 0.0
-0.0450114 -0.0680738 0.0
-0.0536248 -0.0797978 0.0
-0.0645386 -0.0931609 0.0
-0.0781023 -0.108295 0.0
-0.0944199 -0.125207 0.0
-0.113118 -0.143691 0.0
-0.133086 -0.16323 0.0
-0.15226 -0.182887 0.0
-0.167495 -0.201222 0.0
-0.174562 -0.216243 0.0
-0.168243 -0.225444 0.0
-0.142462 -0.225944 0.0
-0.0905144 -0.21497 0.0
-0.00507794 -0.190367 0.0
0.119057 -0.152229 0.0
0.286807 -0.105869 0.0
0.508611 -0.0514224 0.0
0.804159 -0.010598 0.0
-0.00169883 -0.000192009 0.0
-0.00490762 -0.00151309 0.0
-0.00762714 -0.00406185 0.0
-0.00987609 -0.00730204 0.0
-0.0117466 -0.0112151 0.0
-0.0133999 -0.0156796 0.0
-0.0150067 -0.0206903 0.0
-0.016736 -0.0262695 0.0
-0.0187524 -0.0324941 0.0
-0.0212275 -0.0394835 0.0
-0.0243587 -0.0474043 0.0
-0.0283912 -0.0564727 0.0
-0.0336381 -0.0669578 0.0
-0.0404869 -0.0791806 0.0
-0.0493781 -0.0935002 0.0
-0.0607338 -0.110276 0.0
-0.0748207 -0.129797 0.0
-0.0915467 -0.152162 0.0
-0.110221 -0.177125 0.0
-0.12933 -0.203911 0.0
-0.146388 -0.231036 0.0
-0.157864 -0.256161 0.0
-0.159166 -0.276036 0.0
-0.14458 -0.28657 0.0
-0.107151 -0.283057 0.0
-0.0382823 -0.261368 0.0
0.0714688 -0.217209 0.0
0.229364 -0.156925 0.0
0.450594 -0.0810763 0.0
0.767417 -0.0186762 0.0
-0.000921704 -0.000154921 0.0
-0.00301953 -0.00127965 0.0
-0.00486864 -0.0034996 0.0
-0.00641828 -0.00637434 0.0
-0.00769203 -0.00988339 0.0
-0.00879811 -0.0139135 0.0
-0.00985508 -0.0184531 0.0
-0.0109831 -0.0235195 0.0
-0.0122982 -0.0291851 0.0
-0.0139218 -0.0355681 0.0
-0.0159959 -0.0428407 0.0
-0.0187028 -0.051237 0.0
-0.0222851 -0.0610662 0.0
-0.0270595 -0.0727259 0.0
-0.0334134 -0.0867072 0.0
-0.0417671 -0.103579 0.0