# vtk DataFile Version 3.0
Malha 2D com triângulos e temperatura
ASCII
DATASET UNSTRUCTURED_GRID

POINTS 961 double
0 0 0
1 0 0
1 1 0
0 1 0
0.0333333 0 0
0.0666667 0 0
0.1 0 0
0.133333 0 0
0.166667 0 0
0.2 0 0
0.233333 0 0
0.266667 0 0
0.3 0 0
0.333333 0 0
0.366667 0 0
0.4 0 0
0.433333 0 0
0.466667 0 0
0.5 0 0
0.533333 0 0
0.566667 0 0
0.6 0 0
0.633333 0 0
0.666667 0 0
0.7 0 0
0.733333 0 0
0.766667 0 0
0.8 0 0
0.833333 0 0
0.866667 0 0
0.9 0 0
0.933333 0 0
0.966667 0 0
1 0.0333333 0
1 0.0666667 0
1 0.1 0
1 0.133333 0
1 0.166667 0
1 0.2 0
1 0.233333 0
1 0.266667 0
1 0.3 0
1 0.333333 0
1 0.366667 0
1 0.4 0
1 0.433333 0
1 0.466667 0
1 0.5 0
1 0.533333 0
1 0.566667 0
1 0.6 0
1 0.633333 0
1 0.666667 0
1 0.7 0
1 0.733333 0
1 0.766667 0
1 0.8 0
1 0.833333 0
1 0.866667 0
1 0.9 0
1 0.933333 0
1 0.966667 0
0.966667 1 0
0.933333 1 0
0.9 1 0
0.866667 1 0
0.833333 1 0
0.8 1 0
0.766667 1 0
0.733333 1 0
0.7 1 0
0.666667 1 0
0.633333 1 0
0.6 1 0
0.566667 1 0
0.533333 1 0
0.5 1 0
0.466667 1 0
0.433333 1 0
0.4 1 0
0.366667 1 0
0.333333 1 0
0.3 1 0
0.266667 1 0
0.233333 1 0
0.2 1 0
0.166667 1 0
0.133333 1 0
0.1 1 0
0.0666667 1 0
0.0333333 1 0
0 0.966667 0
0 0.933333 0
0 0.9 0
0 0.866667 0
0 0.833333 0
0 0.8 0
0 0.766667 0
0 0.733333 0
0 0.7 0
0 0.666667 0
0 0.633333 0
0 0.6 0
0 0.566667 0
0 0.533333 0
0 0.5 0
0 0.466667 0
0 0.433333 0
0 0.4 0
0 0.366667 0
0 0.333333 0
0 0.3 0
0 0.266667 0
0 0.233333 0
0 0.2 0
0 0.166667 0
0 0.133333 0
0 0.1 0
0 0.0666667 0
0 0.0333333 0
0.0333333 0.0333333 0
0.0333333 0.0666667 0
0.0333333 0.1 0
0.0333333 0.133333 0
0.0333333 0.166667 0
0.0333333 0.2 0
0.0333333 0.233333 0
0.0333333 0.266667 0
0.0333333 0.3 0
0.0333333 0.333333 0
0.0333333 0.366667 0
0.0333333 0.4 0
0.0333333 0.433333 0
0.0333333 0.466667 0
0.0333333 0.5 0
0.0333333 0.533333 0
0.0333333 0.566667 0
0.0333333 0.6 0
0.0333333 0.633333 0
0.0333333 0.666667 0
0.0333333 0.7 0
0.0333333 0.733333 0
0.0333333 0.766667 0
0.0333333 0.8 0
0.0333333 0.833333 0
0.0333333 0.866667 0
0.0333333 0.9 0
0.0333333 0.933333 0
0.0333333 0.966667 0
0.0666667 0.0333333 0
0.0666667 0.0666667 0
0.0666667 0.1 0
0.0666667 0.133333 0
0.0666667 0.166667 0
0.0666667 0.2 0
0.0666667 0.233333 0
0.0666667 0.266667 0
0.0666667 0.3 0
0.0666667 0.333333 0
0.0666667 0.366667 0
0.0666667 0.4 0
0.0666667 0.433333 0
0.0666667 0.466667 0
0.0666667 0.5 0
0.0666667 0.533333 0
0.0666667 0.566667 0
0.0666667 0.6 0
0.0666667 0.633333 0
0.0666667 0.666667 0
0.0666667 0.7 0
0.0666667 0.733333 0
0.0666667 0.766667 0
0.0666667 0.8 0
0.0666667 0.833333 0
0.0666667 0.866667 0
0.0666667 0.9 0
0.0666667 0.933333 0
0.0666667 0.966667 0
0.1 0.0333333 0
0.1 0.0666667 0
0.1 0.1 0
0.1 0.133333 0
0.1 0.166667 0
0.1 0.2 0
0.1 0.233333 0
0.1 0.266667 0
0.1 0.3 0
0.1 0.333333 0
0.1 0.366667 0
0.1 0.4 0
0.1 0.433333 0
0.1 0.466667 0
0.1 0.5 0
0.1 0.533333 0
0.1 0.566667 0
0.1 0.6 0
0.1 0.633333 0
0.1 0.666667 0
0.1 0.7 0
0.1 0.733333 0
0.1 0.766667 0
0.1 0.8 0
0.1 0.833333 0
0.1 0.866667 0
0.1 0.9 0
0.1 0.933333 0
0.1 0.966667 0
0.133333 0.0333333 0
0.133333 0.0666667 0
0.133333 0.1 0
0.133333 0.133333 0
0.133333 0.166667 0
0.133333 0.2 0
0.133333 0.233333 0
0.133333 0.266667 0
0.133333 0.3 0
0.133333 0.333333 0
0.133333 0.366667 0
0.133333 0.4 0
0.133333 0.433333 0
0.133333 0.466667 0
0.133333 0.5 0
0.133333 0.533333 0
0.133333 0.566667 0
0.133333 0.6 0
0.133333 0.633333 0
0.133333 0.666667 0
0.133333 0.7 0
0.133333 0.733333 0
0.133333 0.766667 0
0.133333 0.8 0
0.133333 0.833333 0
0.133333 0.866667 0
0.133333 0.9 0
0.133333 0.933333 0
0.133333 0.966667 0
0.166667 0.0333333 0
0.166667 0.0666667 0
0.166667 0.1 0
0.166667 0.133333 0
0.166667 0.166667 0
0.166667 0.2 0
0.166667 0.233333 0
0.166667 0.266667 0
0.166667 0.3 0
0.166667 0.333333 0
0.166667 0.366667 0
0.166667 0.4 0
0.166667 0.433333 0
0.166667 0.466667 0
0.166667 0.5 0
0.166667 0.533333 0
0.166667 0.566667 0
0.166667 0.6 0
0.166667 0.633333 0
0.166667 0.666667 0
0.166667 0.7 0
0.166667 0.733333 0
0.166667 0.766667 0
0.166667 0.8 0
0.166667 0.833333 0
0.166667 0.866667 0
0.166667 0.9 0
0.166667 0.933333 0
0.166667 0.966667 0
0.2 0.0333333 0
0.2 0.0666667 0
0.2 0.1 0
0.2 0.133333 0
0.2 0.166667 0
0.2 0.2 0
0.2 0.233333 0
0.2 0.266667 0
0.2 0.3 0
0.2 0.333333 0
0.2 0.366667 0
0.2 0.4 0
0.2 0.433333 0
0.2 0.466667 0
0.2 0.5 0
0.2 0.533333 0
0.2 0.566667 0
0.2 0.6 0
0.2 0.633333 0
0.2 0.666667 0
0.2 0.7 0
0.2 0.733333 0
0.2 0.766667 0
0.2 0.8 0
0.2 0.833333 0
0.2 0.866667 0
0.2 0.9 0
0.2 0.933333 0
0.2 0.966667 0
0.233333 0.0333333 0
0.233333 0.0666667 0
0.233333 0.1 0
0.233333 0.133333 0
0.233333 0.166667 0
0.233333 0.2 0
0.233333 0.233333 0
0.233333 0.266667 0
0.233333 0.3 0
0.233333 0.333333 0
0.233333 0.366667 0
0.233333 0.4 0
0.233333 0.433333 0
0.233333 0.466667 0
0.233333 0.5 0
0.233333 0.533333 0
0.233333 0.566667 0
0.233333 0.6 0
0.233333 0.633333 0
0.233333 0.666667 0
0.233333 0.7 0
0.233333 0.733333 0
0.233333 0.766667 0
0.233333 0.8 0
0.233333 0.833333 0
0.233333 0.866667 0
0.233333 0.9 0
0.233333 0.933333 0
0.233333 0.966667 0
0.266667 0.0333333 0
0.266667 0.0666667 0
0.266667 0.1 0
0.266667 0.133333 0
0.266667 0.166667 0
0.266667 0.2 0
0.266667 0.233333 0
0.266667 0.266667 0
0.266667 0.3 0
0.266667 0.333333 0
0.266667 0.366667 0
0.266667 0.4 0
0.266667 0.433333 0
0.266667 0.466667 0
0.266667 0.5 0
0.266667 0.533333 0
0.266667 0.566667 0
0.266667 0.6 0
0.266667 0.633333 0
0.266667 0.666667 0
0.266667 0.7 0
0.266667 0.733333 0
0.266667 0.766667 0
0.266667 0.8 0
0.266667 0.833333 0
0.266667 0.866667 0
0.266667 0.9 0
0.266667 0.933333 0
0.266667 0.966667 0
0.3 0.0333333 0
0.3 0.0666667 0
0.3 0.1 0
0.3 0.133333 0
0.3 0.166667 0
0.3 0.2 0
0.3 0.233333 0
0.3 0.266667 0
0.3 0.3 0
0.3 0.333333 0
0.3 0.366667 0
0.3 0.4 0
0.3 0.433333 0
0.3 0.466667 0
0.3 0.5 0
0.3 0.533333 0
0.3 0.566667 0
0.3 0.6 0
0.3 0.633333 0
0.3 0.666667 0
0.3 0.7 0
0.3 0.733333 0
0.3 0.766667 0
0.3 0.8 0
0.3 0.833333 0
0.3 0.866667 0
0.3 0.9 0
0.3 0.933333 0
0.3 0.966667 0
0.333333 0.0333333 0
0.333333 0.0666667 0
0.333333 0.1 0
0.333333 0.133333 0
0.333333 0.166667 0
0.333333 0.2 0
0.333333 0.233333 0
0.333333 0.266667 0
0.333333 0.3 0
0.333333 0.333333 0
0.333333 0.366667 0
0.333333 0.4 0
0.333333 0.433333 0
0.333333 0.466667 0
0.333333 0.5 0
0.333333 0.533333 0
0.333333 0.566667 0
0.333333 0.6 0
0.333333 0.633333 0
0.333333 0.666667 0
0.333333 0.7 0
0.333333 0.733333 0
0.333333 0.766667 0
0.333333 0.8 0
0.333333 0.833333 0
0.333333 0.866667 0
0.333333 0.9 0
0.333333 0.933333 0
0.333333 0.966667 0
0.366667 0.0333333 0
0.366667 0.0666667 0
0.366667 0.1 0
0.366667 0.133333 0
0.366667 0.166667 0
0.366667 0.2 0
0.366667 0.233333 0
0.366667 0.266667 0
0.366667 0.3 0
0.366667 0.333333 0
0.366667 0.366667 0
0.366667 0.4 0
0.366667 0.433333 0
0.366667 0.466667 0
0.366667 0.5 0
0.366667 0.533333 0
0.366667 0.566667 0
0.366667 0.6 0
0.366667 0.633333 0
0.366667 0.666667 0
0.366667 0.7 0
0.366667 0.733333 0
0.366667 0.766667 0
0.366667 0.8 0
0.366667 0.833333 0
0.366667 0.866667 0
0.366667 0.9 0
0.366667 0.933333 0
0.366667 0.966667 0
0.4 0.0333333 0
0.4 0.0666667 0
0.4 0.1 0
0.4 0.133333 0
0.4 0.166667 0
0.4 0.2 0
0.4 0.233333 0
0.4 0.266667 0
0.4 0.3 0
0.4 0.333333 0
0.4 0.366667 0
0.4 0.4 0
0.4 0.433333 0
0.4 0.466667 0
0.4 0.5 0
0.4 0.533333 0
0.4 0.566667 0
0.4 0.6 0
0.4 0.633333 0
0.4 0.666667 0
0.4 0.7 0
0.4 0.733333 0
0.4 0.766667 0
0.4 0.8 0
0.4 0.833333 0
0.4 0.866667 0
0.4 0.9 0
0.4 0.933333 0
0.4 0.966667 0
0.433333 0.0333333 0
0.433333 0.0666667 0
0.433333 0.1 0
0.433333 0.133333 0
0.433333 0.166667 0
0.433333 0.2 0
0.433333 0.233333 0
0.433333 0.266667 0
0.433333 0.3 0
0.433333 0.333333 0
0.433333 0.366667 0
0.433333 0.4 0
0.433333 0.433333 0
0.433333 0.466667 0
0.433333 0.5 0
0.433333 0.533333 0
0.433333 0.566667 0
0.433333 0.6 0
0.433333 0.633333 0
0.433333 0.666667 0
0.433333 0.7 0
0.433333 0.733333 0
0.433333 0.766667 0
0.433333 0.8 0
0.433333 0.833333 0
0.433333 0.866667 0
0.433333 0.9 0
0.433333 0.933333 0
0.433333 0.966667 0
0.466667 0.0333333 0
0.466667 0.0666667 0
0.466667 0.1 0
0.466667 0.133333 0
0.466667 0.166667 0
0.466667 0.2 0
0.466667 0.233333 0
0.466667 0.266667 0
0.466667 0.3 0
0.466667 0.333333 0
0.466667 0.366667 0
0.466667 0.4 0
0.466667 0.433333 0
0.466667 0.466667 0
0.466667 0.5 0
0.466667 0.533333 0
0.466667 0.566667 0
0.466667 0.6 0
0.466667 0.633333 0
0.466667 0.666667 0
0.466667 0.7 0
0.466667 0.733333 0
0.466667 0.766667 0
0.466667 0.8 0
0.466667 0.833333 0
0.466667 0.866667 0
0.466667 0.9 0
0.466667 0.933333 0
0.466667 0.966667 0
0.5 0.0333333 0
0.5 0.0666667 0
0.5 0.1 0
0.5 0.133333 0
0.5 0.166667 0
0.5 0.2 0
0.5 0.233333 0
0.5 0.266667 0
0.5 0.3 0
0.5 0.333333 0
0.5 0.366667 0
0.5 0.4 0
0.5 0.433333 0
0.5 0.466667 0
0.5 0.5 0
0.5 0.533333 0
0.5 0.566667 0
0.5 0.6 0
0.5 0.633333 0
0.5 0.666667 0
0.5 0.7 0
0.5 0.733333 0
0.5 0.766667 0
0.5 0.8 0
0.5 0.833333 0
0.5 0.866667 0
0.5 0.9 0
0.5 0.933333 0
0.5 0.966667 0
0.533333 0.0333333 0
0.533333 0.0666667 0
0.533333 0.1 0
0.533333 0.133333 0
0.533333 0.166667 0
0.533333 0.2 0
0.533333 0.233333 0
0.533333 0.266667 0
0.533333 0.3 0
0.533333 0.333333 0
0.533333 0.366667 0
0.533333 0.4 0
0.533333 0.433333 0
0.533333 0.466667 0
0.533333 0.5 0
0.533333 0.533333 0
0.533333 0.566667 0
0.533333 0.6 0
0.533333 0.633333 0
0.533333 0.666667 0
0.533333 0.7 0
0.533333 0.733333 0
0.533333 0.766667 0
0.533333 0.8 0
0.533333 0.833333 0
0.533333 0.866667 0
0.533333 0.9 0
0.533333 0.933333 0
0.533333 0.966667 0
0.566667 0.0333333 0
0.566667 0.0666667 0
0.566667 0.1 0
0.566667 0.133333 0
0.566667 0.166667 0
0.566667 0.2 0
0.566667 0.233333 0
0.566667 0.266667 0
0.566667 0.3 0
0.566667 0.333333 0
0.566667 0.366667 0
0.566667 0.4 0
0.566667 0.433333 0
0.566667 0.466667 0
0.566667 0.5 0
0.566667 0.533333 0
0.566667 0.566667 0
0.566667 0.6 0
0.566667 0.633333 0
0.566667 0.666667 0
0.566667 0.7 0
0.566667 0.733333 0
0.566667 0.766667 0
0.566667 0.8 0
0.566667 0.833333 0
0.566667 0.866667 0
0.566667 0.9 0
0.566667 0.933333 0
0.566667 0.966667 0
0.6 0.0333333 0
0.6 0.0666667 0
0.6 0.1 0
0.6 0.133333 0
[...]
CELL_DATA 900
VECTORS velocity double
6.90258e-05 -6.791e-05 0.0
-1.02763e-05 -6.24947e-06 0.0
-8.5548e-05 0.000355625 0.0
-0.000143615 0.000931744 0.0
-0.000179074 0.00168401 0.0
-0.000202013 0.00255491 0.0
-0.000218578 0.00352165 0.0
-0.000233872 0.00457164 0.0
-0.00025077 0.00570724 0.0
-0.000271104 0.00693855 0.0
-0.000296014 0.00828232 0.0
-0.000326449 0.00976019 0.0
-0.000363466 0.0113989 0.0
-0.000408549 0.0132311 0.0
-0.000463975 0.0152976 0.0
-0.000533364 0.0176507 0.0
-0.000622595 0.0203596 0.0
-0.000741396 0.0235183 0.0
-0.000906233 0.0272577 0.0
-0.00114598 0.0317635 0.0
-0.00151348 0.0373041 0.0
-0.00211072 0.0442776 0.0
-0.00314077 0.0532984 0.0
-0.00501642 0.0653389 0.0
-0.00852438 0.0820821 0.0
-0.0150408 0.106013 0.0
-0.0257317 0.142242 0.0
-0.0381417 0.189466 0.0
-0.0134883 0.262496 0.0
0.216786 0.173935 0.0
4.31567e-06 1.42786e-05 0.0
-0.000454405 0.000456345 0.0
-0.000886955 0.00150629 0.0
-0.00124424 0.00297903 0.0
-0.00150872 0.00483041 0.0
-0.00171172 0.00696415 0.0
-0.00188119 0.00933967 0.0
-0.0020428 0.0119338 0.0
-0.00221519 0.0147517 0.0
-0.00241223 0.0178157 0.0
-0.00264457 0.0211634 0.0
-0.00292182 0.0248447 0.0
-0.00325445 0.0289215 0.0
-0.0036557 0.03347 0.0
-0.00414383 0.038584 0.0
-0.00474489 0.044381 0.0
-0.00549649 0.0510112 0.0
-0.00645299 0.0586681 0.0
-0.00769259 0.0676027 0.0
-0.00932797 0.0781372 0.0
-0.0115225 0.0906761 0.0
-0.0145198 0.105705 0.0
-0.0186899 0.12376 0.0
-0.0246109 0.145314 0.0
-0.0330717 0.17053 0.0
-0.0449224 0.198385 0.0
-0.0586746 0.225526 0.0
-0.0651521 0.240245 0.0
-0.00301727 0.21848 0.0
0.305052 0.116397 0.0
-0.00036025 8.88954e-05 0.0
-0.00150084 0.000868545 0.0
-0.00253689 0.00248706 0.0
-0.00339692 0.00463724 0.0
-0.00406646 0.00727775 0.0
-0.00460262 0.0102921 0.0
-0.00506566 0.013636 0.0
-0.00551214 0.0172842 0.0
-0.00598646 0.0212456 0.0
-0.00652298 0.0255504 0.0
-0.00714912 0.0302475 0.0
-0.00788966 0.0354011 0.0
-0.00877094 0.0410901 0.0
-0.00982511 0.0474091 0.0
-0.0110946 0.0544716 0.0
-0.0126371 0.0624146 0.0
-0.0145316 0.0714047 0.0
-0.0168844 0.0816435 0.0
-0.0198348 0.093371 0.0
-0.0235579 0.106861 0.0
-0.028261 0.122398 0.0
-0.0341695 0.140221 0.0
-0.0414789 0.160394 0.0
-0.0502463 0.182579 0.0
-0.0599758 0.205522 0.0
-0.0686373 0.22633 0.0
-0.0687201 0.238254 0.0
-0.0387774 0.230646 0.0
0.0918071 0.1736 0.0
0.476144 0.0770402 0.0
-0.000920802 0.000142204 0.0
-0.00292121 0.00117237 0.0
-0.00465719 0.00320113 0.0
-0.0060781 0.00581204 0.0
-0.0072019 0.00896646 0.0
-0.00811928 0.0125357 0.0
-0.00892616 0.0164783 0.0
-0.00971108 0.0207702 0.0
-0.0105451 0.0254243 0.0
-0.0114839 0.0304743 0.0
-0.0125721 0.0359736 0.0
-0.0138496 0.0419904 0.0
-0.0153577 0.0486066 0.0
-0.0171446 0.0559174 0.0
-0.0192718 0.0640331 0.0
-0.0218191 0.0730797 0.0
-0.02489 0.0832005 0.0
-0.0286142 0.0945538 0.0
-0.033144 0.107303 0.0
-0.0386397 0.121596 0.0
-0.0452319 0.137508 0.0
-0.052949 0.154959 0.0
-0.0615722 0.173523 0.0
-0.0703688 0.192186 0.0
-0.0774409 0.20878 0.0
-0.0783474 0.2196 0.0
-0.0620027 0.217458 0.0
-0.00144781 0.194095 0.0
0.167852 0.129101 0.0
0.57513 0.0491712 0.0
-0.0016192 0.000167572 0.0
-0.0046226 0.00134188 0.0
-0.00713564 0.00361283 0.0
-0.00916041 0.00648608 0.0
-0.0107701 0.00992126 0.0
-0.0120977 0.0137807 0.0
-0.013279 0.0180259 0.0
-0.0144356 0.0226348 0.0
-0.0156654 0.0276227 0.0
-0.0170448 0.0330242 0.0
-0.0186348 0.0388924 0.0
-0.0204887 0.0452927 0.0
-0.0226599 0.0523013 0.0
-0.0252085 0.0600035 0.0
-0.0282074 0.0684925 0.0
-0.0317474 0.0778682 0.0
-0.0359389 0.0882327 0.0
-0.0409084 0.099683 0.0
-0.0467826 0.112292 0.0
-0.0536511 0.126076 0.0
-0.0614912 0.140932 0.0
-0.0700362 0.156533 0.0
-0.0785414 0.172151 0.0
-0.0853911 0.186437 0.0
-0.0872975 0.196921 0.0
-0.0777608 0.199939 0.0
-0.0431504 0.189037 0.0
0.045092 0.158517 0.0
0.241441 0.0957206 0.0
0.647178 0.030866 0.0
-0.00237426 0.000175534 0.0
-0.00645065 0.0014075 0.0
-0.00976963 0.00377486 0.0
-0.0124043 0.00674289 0.0
-0.0144977 0.0102681 0.0
-0.0162327 0.014208 0.0
-0.0177875 0.0185263 0.0
-0.0193169 0.0232029 0.0
-0.020944 0.028254 0.0
-0.0227642 0.0337134 0.0
-0.0248523 0.039631 0.0
-0.0272716 0.046066 0.0
-0.0300831 0.0530851 0.0
-0.0333524 0.0607588 0.0
-0.0371555 0.069159 0.0
-0.0415815 0.078355 0.0
-0.046731 0.0884063 0.0
-0.0527048 0.0993504 0.0
-0.059575 0.111181 0.0
-0.0673258 0.123809 0.0
-0.075745 0.137001 0.0
-0.0842427 0.150282 0.0
-0.0915537 0.162764 0.0
-0.0952669 0.172997 0.0
-0.0909734 0.178527 0.0
-0.0707591 0.176145 0.0
-0.0197265 0.160318 0.0
0.0896033 0.128193 0.0
0.303211 0.0718452 0.0
0.698247 0.0195969 0.0
-0.00314063 0.000172262 0.0
-0.00830755 0.00139602 0.0
-0.0124317 0.00374431 0.0
-0.0156654 0.0066743 0.0
-0.0182275 0.0101404 0.0
-0.0203551 0.0139999 0.0
-0.0222702 0.0182189 0.0
-0.0241601 0.0227787 0.0
-0.026172 0.0276957 0.0
-0.0284176 0.033002 0.0
-0.0309827 0.038743 0.0
-0.0339377 0.044971 0.0
-0.0373469 0.0517419 0.0
-0.0412759 0.0591113 0.0
-0.0457963 0.0671306 0.0
-0.0509863 0.0758414 0.0
-0.0569247 0.0852663 0.0
-0.063672 0.0953954 0.0
-0.0712294 0.106162 0.0
-0.0794597 0.117408 0.0
-0.0879509 0.128818 0.0
-0.095795 0.139842 0.0
-0.101247 0.149541 0.0
-0.10121 0.156498 0.0
-0.0903983 0.158425 0.0
-0.0599203 0.152688 0.0
0.00556207 0.134573 0.0
0.13104 0.103597 0.0
0.355245 0.0544972 0.0
0.735331 0.0125916 0.0
-0.00388215 0.00016287 0.0
-0.0101105 0.00133208 0.0
-0.0150106 0.00357517 0.0
-0.018815 0.00636621 0.0
-0.0218187 0.00965963 0.0
-0.024314 0.0133179 0.0
-0.0265666 0.0173097 0.0
-0.0287951 0.0216183 0.0
-0.0311685 0.0262602 0.0
-0.033813 0.0312654 0.0
-0.0368228 0.036675 0.0
-0.0402723 0.0425348 0.0
-0.0442255 0.0488912 0.0
-0.0487436 0.0557871 0.0
-0.0538885 0.0632571 0.0
-0.0597207 0.071321 0.0
-0.0662894 0.0799741 0.0
-0.0736066 0.0891725 0.0
-0.0815947 0.0988102 0.0
-0.0899917 0.108685 0.0
-0.0981906 0.11844 0.0
-0.104989 0.127497 0.0
-0.108221 0.13493 0.0
-0.104225 0.139409 0.0
-0.087069 0.138888 0.0
-0.0472646 0.131222 0.0
0.0302187 0.11272 0.0
0.167943 0.0840523 0.0
0.398414 0.0418833 0.0
0.762747 0.00823996 0.0
-0.00457712 0.000149887 0.0
-0.0118038 0.00123192 0.0
-0.017429 0.00330661 0.0
-0.0217631 0.00588306 0.0
-0.0251735 0.00891818 0.0
-0.0280064 0.0122842 0.0
-0.0305693 0.0159538 0.0
-0.0331102 0.0199129 0.0
-0.0358182 0.0241782 0.0
-0.0388316 0.0287783 0.0
-0.0422513 0.0337509 0.0
-0.046153 0.0391364 0.0
-0.0505982 0.0449743 0.0
-0.0556408 0.0512981 0.0
-0.0613292 0.0581309 0.0
-0.0677022 0.0654777 0.0
-0.0747752 0.0733161 0.0
-0.0825076 0.0815816 0.0
-0.0907413 0.0901452 0.0
-0.0990911 0.098782 0.0
-0.106766 0.10712 0.0
-0.112298 0.114583 0.0
-0.113159 0.120283 0.0
-0.105231 0.123004 0.0
-0.0821204 0.12096 0.0
-0.0340567 0.112396 0.0
0.0533659 0.0945754 0.0
0.200454 0.0685782 0.0
0.434213 0.0326104 0.0
0.783414 0.00551038 0.0
-0.00520976 0.000134639 0.0
-0.0133456 0.00110586 0.0
-0.0196278 0.00296513 0.0
-0.0244393 0.00526965 0.0
-0.0282149 0.00798093 0.0
-0.0313512 0.0109853 0.0
-0.0341945 0.0142603 0.0
-0.0370197 0.017796 0.0
-0.0400337 0.0216099 0.0
-0.0433856 0.0257298 0.0
-0.0471809 0.0301912 0.0
-0.0514957 0.0350315 0.0
-0.0563873 0.0402856 0.0
-0.0619005 0.0459821 0.0
-0.0680685 0.0521377 0.0
-0.0749067 0.0587503 0.0
-0.0823944 0.0657888 0.0
-0.0904376 0.0731794 0.0
-0.0987978 0.0807836 0.0
-0.106971 0.0883686 0.0
-0.113996 0.095562 0.0
-0.118167 0.101802 0.0
-0.116644 0.106255 0.0
-0.104953 0.107811 0.0
-0.0763825 0.104932 0.0
-0.021099 0.0961733 0.0
0.0745699 0.0795399 0.0
0.228821 0.0562837 0.0
0.463915 0.0257092 0.0
0.799271 0.00377636 0.0
-0.0057687 0.000117587 0.0
-0.0147048 0.000959754 0.0
-0.0215622 0.00256713 0.0
-0.0267902 0.00455482 0.0
-0.0308845 0.00689067 0.0
-0.034287 0.00947841 0.0
-0.0373791 0.0123019 0.0
-0.0404596 0.0153562 0.0
-0.0437515 0.0186605 0.0
-0.0474126 0.0222428 0.0
-0.0515526 0.026138 0.0
-0.056247 0.0303821 0.0
-0.0615485 0.035009 0.0
-0.0674927 0.0400462 0.0
-0.0740972 0.0455098 0.0
-0.0813534 0.0513973 0.0
-0.0892047 0.0576778 0.0
-0.0975035 0.0642777 0.0
-0.105932 0.0710594 0.0
-0.113873 0.0777926 0.0
-0.120204 0.0841124 0.0
-0.123003 0.0894768 0.0
-0.11917 0.093102 0.0
-0.103948 0.0939726 0.0
-0.0704231 0.0907621 0.0
-0.00883764 0.0822649 0.0
0.0936878 0.067057 0.0
0.253432 0.0464557 0.0
0.488609 0.0205047 0.0
0.81164 0.00265742 0.0
-0.00624453 9.88447e-05 0.0
-0.0158564 0.000796858 0.0
-0.0231962 0.00212267 0.0
-0.0287727 0.00375703 0.0
-0.0331345 0.00567542 0.0
-0.0367636 0.00780165 0.0
-0.0400715 0.0101269 0.0
-0.0433781 0.0126521 0.0
-0.0469199 0.0153988 0.0
-0.0508628 0.0183963 0.0
-0.0553198 0.02168 0.0
-0.0603664 0.0252869 0.0
-0.0660512 0.0292526 0.0
-0.0724012 0.0336079 0.0
-0.0794197 0.0383735 0.0
-0.0870751 0.0435534 0.0
-0.0952756 0.0491245 0.0
-0.103821 0.0550224 0.0
-0.112315 0.061119 0.0
-0.120029 0.0671934 0.0
-0.125685 0.0728922 0.0
-0.127167 0.077691 0.0
-0.121143 0.0808467 0.0
-0.102641 0.0814152 0.0
-0.0646297 0.0782454 0.0
0.00248693 0.0702941 0.0
0.110723 0.0566421 0.0
0.274698 0.038532 0.0
0.509194 0.0165227 0.0
0.821432 0.00192135 0.0
-0.00662897 7.83878e-05 0.0
-0.0167795 0.000619126 0.0
-0.0245002 0.0016383 0.0
-0.0303511 0.00288881 0.0
-0.0349257 0.00435456 0.0
-0.0387393 0.00598151 0.0
-0.0422287 0.00776873 0.0
-0.0457313 0.00972384 0.0
-0.0494952 0.011871 0.0
-0.0536934 0.0142416 0.0
-0.0584426 0.0168727 0.0
-0.0638191 0.019804 0.0
-0.0698691 0.0230758 0.0
-0.0766133 0.0267258 0.0
-0.0840426 0.0307847 0.0
-0.0921047 0.0352694 0.0
-0.100674 0.0401724 0.0
-0.109499 0.0454465 0.0
-0.118106 0.0509813 0.0
-0.125651 0.056571 0.0
-0.130707 0.0618756 0.0
-0.130967 0.0663836 0.0
-0.122899 0.0693783 0.0
-0.101363 0.0699649 0.0
-0.0592778 0.0671168 0.0
0.0126813 0.0599542 0.0
0.12574 0.0478832 0.0
0.293011 0.0320764 0.0
0.526394 0.0134262 0.0
0.829281 0.00142535 0.0
-0.00691444 5.61919e-05 0.0
-0.0174557 0.000428054 0.0
-0.0254487 0.00111914 0.0
-0.0314952 0.00196 0.0
-0.0362245 0.00294343 0.0
-0.0401783 0.00403891 0.0
-0.0438131 0.00525368 0.0
-0.04748 0.00660222 0.0
-0.0514371 0.00811152 0.0
-0.0558639 0.00981515 0.0
-0.0608816 0.0117526 0.0
-0.066569 0.0139679 0.0
-0.0729726 0.016508 0.0
-0.0801099 0.0194212 0.0
-0.0879633 0.022753 0.0
-0.0964632 0.0265394 0.0
-0.105454 0.0307961 0.0
-0.114631 0.0355022 0.0
-0.123442 0.0405731 0.0
-0.130927 0.045824 0.0
-0.135503 0.0509302 0.0
-0.134678 0.0553887 0.0
-0.12473 0.0584939 0.0
-0.100391 0.0593782 0.0
-0.0545973 0.0570923 0.0
0.0216426 0.0509033 0.0
0.138842 0.0403991 0.0
0.308718 0.0267257 0.0
0.540783 0.0109626 0.0
0.835633 0.00107857 0.0
-0.0070941 3.22879e-05 0.0
-0.0178696 0.000225161 0.0
-0.0260204 0.000570101 0.0
-0.0321796 0.000979938 0.0
-0.0370027 0.00145642 0.0
-0.0410499 0.00199335 0.0
-0.0447915 0.00260594 0.0
-0.0485889 0.00331517 0.0
-0.0527077 0.00415046 0.0
-0.057334 0.00514737 0.0
-0.0625948 0.00634798 0.0
-0.0685739 0.007801 0.0
-0.0753219 0.00956207 0.0
-0.0828576 0.0116928 0.0
-0.0911602 0.0142576 0.0
-0.100148 0.0173181 0.0
-0.109637 0.0209205 0.0
-0.119279 0.0250798 0.0
-0.128431 0.0297467 0.0
-0.136013 0.0347645 0.0
-0.140278 0.0398284 0.0
-0.138539 0.0444413 0.0
-0.126895 0.0478957 0.0
-0.0999718 0.0493267 0.0
-0.0507783 0.0478238 0.0
0.0293115 0.0427473 0.0
0.150116 0.0338176 0.0
0.322094 0.0221533 0.0
0.552792 0.00892852 0.0
0.840792 0.000819602 0.0
-0.00716163 6.74085e-06 0.0
-0.0180074 1.2246e-05 0.0
-0.0261973 -3.30241e-06 0.0
-0.0323835 -4.12422e-05 0.0
-0.0372367 -9.10664e-05 0.0
-0.0413276 -0.000134461 0.0
-0.0451341 -0.000148967 0.0
-0.0490238 -0.000107848 0.0
-0.0532683 1.96921e-05 0.0
-0.0580605 0.000270109 0.0
-0.0635343 0.000687238 0.0
-0.0697822 0.00132448 0.0
-0.0768638 0.00224649 0.0
-0.0848054 0.00352996 0.0
-0.0935892 0.00526189 0.0
-0.103128 0.00753449 0.0
-0.113217 0.0104322 0.0
-0.123459 0.014018 0.0
-0.133129 0.0182874 0.0
-0.141014 0.0231217 0.0
-0.145187 0.0282447 0.0
-0.142753 0.0331678 0.0
-0.129622 0.0371737 0.0
-0.100328 0.0393781 0.0
-0.0479948 0.0388713 0.0
0.035601 0.0350573 0.0
0.159598 0.0277557 0.0
0.333325 0.0180469 0.0
0.562715 0.00714627 0.0
0.844947 0.000603254 0.0
-0.00711229 -2.01929e-05 0.0
-0.0178599 -0.000208469 0.0
-0.0259667 -0.000594731 0.0
-0.0320917 -0.00109171 0.0
-0.0369093 -0.00168072 0.0
-0.0409916 -0.00231957 0.0
-0.0448177 -0.00297992 0.0
-0.0487569 -0.00363085 0.0
-0.0530849 -0.00424195 0.0
-0.0580006 -0.00477769 0.0
-0.063648 -0.00519426 0.0
-0.0701316 -0.00543508 0.0
-0.0775253 -0.00542736 0.0
-0.0858707 -0.00507896 0.0
-0.0951622 -0.00427784 0.0
-0.105316 -0.00289559 0.0
-0.11612 -0.000800361 0.0
-0.127139 0.0021228 0.0
-0.137541 0.00592202 0.0
-0.145978 0.0105391 0.0
-0.150331 0.0157434 0.0
-0.147477 0.0210629 0.0
-0.133115 0.0257719 0.0
-0.101677 0.0289524 0.0
-0.0464348 0.0296643 0.0
0.0403924 0.0273062 0.0
0.167254 0.0217635 0.0
0.342484 0.0140645 0.0
0.570701 0.00543669 0.0
0.848189 0.000390313 0.0
-0.00694196 -4.81772e-05 0.0
-0.0174193 -0.00043405 0.0
-0.0253201 -0.00119595 0.0
-0.0312951 -0.00215638 0.0
-0.0360097 -0.00328954 0.0
-0.0400279 -0.00453082 0.0
-0.0438227 -0.00584797 0.0
-0.0477614 -0.00720816 0.0
-0.0521212 -0.00858381 0.0
-0.0571076 -0.00994284 0.0
-0.0628762 -0.0112443 0.0
-0.0695482 -0.0124316 0.0
-0.0772188 -0.0134266 0.0
-0.0859535 -0.0141237 0.0
-0.0957709 -0.0143863 0.0
-0.106604 -0.0140481 0.0
-0.118233 -0.0129241 0.0
-0.13018 -0.0108421 0.0
-0.141548 -0.00767671 0.0
-0.150842 -0.00341306 0.0
-0.155726 0.00178093 0.0
-0.152791 0.0074656 0.0
-0.137514 0.0129445 0.0
-0.104225 0.0172686 0.0
-0.0463308 0.0194366 0.0
0.0434754 0.0187984 0.0
0.172931 0.0152622 0.0
0.349492 0.00978735 0.0
0.576727 0.00359443 0.0
0.850494 0.000140732 0.0
-0.00664886 -7.68277e-05 0.0
-0.0166839 -0.000660431 0.0
-0.0242566 -0.00179575 0.0
-0.0299932 -0.00321552 0.0
-0.0345365 -0.0048881 0.0
-0.0384322 -0.00672863 0.0
-0.0421402 -0.00870322 0.0
-0.0460204 -0.0107798 0.0
-0.0503495 -0.0129365 0.0
-0.0553393 -0.0151485 0.0
-0.0611582 -0.0173819 0.0
-0.0679482 -0.0195851 0.0
-0.0758322 -0.0216802 0.0
-0.0849101 -0.0235542 0.0
-0.0952372 -0.0250511 0.0
-0.106778 -0.0259699 0.0
-0.119329 -0.0260716 0.0
-0.132386 -0.0251071 0.0
-0.144975 -0.0228607 0.0
-0.15544 -0.0192245 0.0
-0.161219 -0.0142929 0.0
-0.158658 -0.00842104 0.0
-0.142953 -0.00226932 0.0
-0.108171 0.00325802 0.0
-0.0479333 0.00712917 0.0
0.0445728 0.00859122 0.0
0.176326 0.00748793 0.0
0.354052 0.00467446 0.0
0.580545 0.00135995 0.0
0.851724 -0.000194385 0.0
-0.00623346 -0.000105511 0.0
-0.0156578 -0.000882148 0.0
-0.0227836 -0.00237953 0.0
-0.0281957 -0.00424359 0.0
-0.0324993 -0.0064384 0.0
-0.0362116 -0.00886164 0.0
-0.0397718 -0.0114803 0.0
-0.0435276 -0.0142658 0.0
-0.0477519 -0.0172058 0.0
-0.0526614 -0.0202866 0.0
-0.0584384 -0.0234872 0.0
-0.0652482 -0.0267679 0.0
-0.0732475 -0.03006 0.0
-0.0825799 -0.0332527 0.0
-0.093352 -0.0361815 0.0
-0.10558 -0.03862 0.0
-0.119094 -0.0402813 0.0
-0.133392 -0.04084 0.0
-0.147436 -0.039978 0.0
-0.159421 -0.0374624 0.0
-0.166541 -0.0332492 0.0
-0.164835 -0.0275665 0.0
-0.149213 -0.0209854 0.0
-0.11365 -0.0143221 0.0
-0.051671 -0.00856312 0.0
0.0431099 -0.0045741 0.0
0.176864 -0.00263095 0.0
0.355628 -0.00199944 0.0
0.581656 -0.00155233 0.0
0.851556 -0.000644179 0.0
-0.00569959 -0.000133383 0.0
-0.0143533 -0.00109203 0.0
-0.0209197 -0.00292835 0.0
-0.0259252 -0.0052076 0.0
-0.0299221 -0.00789137 0.0
-0.033389 -0.0108633 0.0
-0.0367363 -0.0140934 0.0
-0.0402944 -0.01756 0.0
-0.0443283 -0.0212631 0.0
-0.0490571 -0.025205 0.0
-0.0546759 -0.0293839 0.0
-0.0613739 -0.0337809 0.0
-0.0693455 -0.038348 0.0
-0.0787858 -0.042992 0.0
-0.0898664 -0.0475576 0.0
-0.102675 -0.051812 0.0
-0.117105 -0.0554382 0.0
-0.132687 -0.0580469 0.0
-0.148353 -0.0592164 0.0
-0.162176 -0.0585656 0.0
-0.171126 -0.0558576 0.0
-0.170941 -0.0510951 0.0
-0.156196 -0.0446067 0.0
-0.120613 -0.0370177 0.0
-0.0576617 -0.0292343 0.0
0.0386775 -0.022121 0.0
0.173725 -0.0162285 0.0
0.353072 -0.0110077 0.0
0.578999 -0.00550255 0.0
0.849527 -0.00127331 0.0
-0.00505552 -0.000159257 0.0
-0.0127933 -0.00128054 0.0
-0.0186983 -0.00341733 0.0
-0.0232216 -0.00606466 0.0
-0.0268482 -0.00918351 0.0
-0.0300082 -0.0126473 0.0
-0.0330757 -0.0164312 0.0
-0.0363577 -0.0205224 0.0
-0.0401069 -0.0249362 0.0
-0.0445402 -0.0296952 0.0
-0.0498618 -0.0348229 0.0
-0.0562828 -0.0403312 0.0
-0.0640345 -0.0462066 0.0
-0.0733675 -0.0523929 0.0
-0.0845282 -0.0587695 0.0
-0.0976944 -0.0651281 0.0
-0.112854 -0.0711546 0.0
-0.12961 -0.0764261 0.0
-0.146917 -0.0804337 0.0
-0.162786 -0.0826393 0.0
-0.174024 -0.082563 0.0
-0.176111 -0.0798765 0.0
-0.163307 -0.0744998 0.0
-0.129028 -0.0666228 0.0
-0.0665108 -0.0568388 0.0
0.0302045 -0.0458282 0.0
0.165681 -0.0347252 0.0
0.345118 -0.0233756 0.0
0.571407 -0.0110419 0.0
0.844939 -0.00221412 0.0
-0.00431521 -0.000181459 0.0
-0.0110142 -0.00143496 0.0
-0.0161708 -0.003814 0.0
-0.0201462 -0.00675942 0.0
-0.0233447 -0.0102334 0.0
-0.0261396 -0.0141033 0.0
-0.0288619 -0.0183506 0.0
-0.0317891 -0.0229724 0.0
-0.0351555 -0.0280007 0.0
-0.03917 -0.0334809 0.0
-0.0440392 -0.0394672 0.0
-0.0499891 -0.0460108 0.0
-0.0572817 -0.0531475 0.0
-0.0662198 -0.0608803 0.0
-0.0771267 -0.069155 0.0
-0.0902834 -0.07783 0.0
-0.105799 -0.0866452 0.0
-0.1234 -0.0951974 0.0
-0.142134 -0.102935 0.0
-0.160047 -0.109179 0.0
-0.173898 -0.113179 0.0
-0.179028 -0.114172 0.0
-0.169468 -0.111483 0.0
-0.138316 -0.104586 0.0
-0.0784337 -0.0934082 0.0
0.0166959 -0.0780325 0.0
0.151141 -0.0602275 0.0
0.329788 -0.0407331 0.0
0.556936 -0.0190439 0.0
0.836635 -0.0036729 0.0
-0.00350113 -0.000197424 0.0
-0.00907095 -0.00153814 0.0
-0.0134134 -0.00407624 0.0
-0.0167886 -0.00722145 0.0
-0.0195106 -0.0109386 0.0
-0.0218898 -0.0150933 0.0
-0.0242082 -0.0196728 0.0
-0.0267083 -0.0246837 0.0
-0.0295994 -0.0301736 0.0
-0.0330746 -0.036211 0.0
-0.0373329 -0.0428826 0.0
-0.0426033 -0.0502843 0.0
-0.0491653 -0.0585131 0.0
-0.0573597 -0.0676517 0.0
-0.067577 -0.0777462 0.0
-0.0802009 -0.0887726 0.0
-0.0954814 -0.100592 0.0
-0.113314 -0.112901 0.0
-0.132929 -0.125188 0.0
-0.152541 -0.136696 0.0
-0.169036 -0.146417 0.0
-0.177821 -0.153105 0.0
-0.172889 -0.155321 0.0
-0.147127 -0.151557 0.0
-0.092916 -0.140538 0.0
-0.00275342 -0.121552 0.0
0.128236 -0.095481 0.0
0.304613 -0.0654652 0.0
0.532944 -0.0309807 0.0
0.822881 -0.00606663 0.0
-0.00264534 -0.000203559 0.0
-0.00703941 -0.00156837 0.0
-0.0105287 -0.00415237 0.0
-0.0132686 -0.00736586 0.0
-0.0154783 -0.0111768 0.0
-0.0174029 -0.0154531 0.0
-0.0192718 -0.0201854 0.0
-0.0212874 -0.025387 0.0
-0.0236274 -0.0311176 0.0
-0.02646 -0.037465 0.0
-0.0299647 -0.044545 0.0
-0.0343569 -0.0524979 0.0
-0.0399119 -0.0614849 0.0
-0.0469829 -0.0716813 0.0
-0.0560001 -0.0832605 0.0
-0.0674292 -0.0963635 0.0
-0.0816584 -0.111049 0.0
-0.0987882 -0.127217 0.0
-0.118322 -0.144518 0.0
-0.138801 -0.162246 0.0
-0.157477 -0.179239 0.0
-0.170121 -0.193797 0.0
-0.171012 -0.203662 0.0
-0.153112 -0.206116 0.0
-0.108391 -0.19821 0.0
-0.0281869 -0.177804 0.0
0.0948002 -0.143539 0.0
0.266062 -0.100868 0.0
0.495235 -0.0494804 0.0
0.800443 -0.0103326 0.0
-0.00179707 -0.000194121 0.0
-0.0050273 -0.00149809 0.0
-0.00765963 -0.00398217 0.0
-0.00975169 -0.00709663 0.0
-0.0114322 -0.0108114 0.0
-0.0128827 -0.0149995 0.0
-0.0142791 -0.019651 0.0
-0.0157803 -0.0247814 0.0
-0.0175266 -0.0304556 0.0
-0.0196529 -0.0367723 0.0
-0.0223067 -0.0438674 0.0
-0.0256713 -0.0519145 0.0
-0.0299912 -0.0611297 0.0
-0.0355952 -0.0717752 0.0
-0.0429076 -0.0841573 0.0
-0.0524274 -0.0986093 0.0
-0.0646443 -0.115447 0.0
-0.0798625 -0.134885 0.0
-0.0979209 -0.156894 0.0
-0.117845 -0.181025 0.0
-0.137513 -0.206188 0.0
-0.153418 -0.230452 0.0
-0.160573 -0.250892 0.0
-0.152489 -0.263584 0.0
-0.12114 -0.263693 0.0
-0.0568408 -0.246771 0.0
0.0515826 -0.207675 0.0
0.212343 -0.151644 0.0
0.439804 -0.0792236 0.0
0.764738 -0.0184916 0.0
-0.00101526 -0.000163082 0.0
-0.00315793 -0.00130174 0.0
-0.00496599 -0.00351171 0.0
-0.00642054 -0.00632708 0.0
-0.00757514 -0.00971623 0.0
-0.00855473 -0.0135592 0.0
-0.00948315 -0.0178409 0.0
-0.0104742 -0.0225732 0.0
-0.0116273 -0.0278175 0.0
-0.0130376 -0.0336718 0.0
-0.0148105 -0.0402757 0.0
-0.0170806 -0.0478149 0.0
-0.0200344 -0.0565335 0.0
-0.0239346 -0.0667487 0.0