# vtk DataFile Version 3.0
Malha 2D com triângulos e temperatura
ASCII
DATASET UNSTRUCTURED_GRID

POINTS 961 double
0 0 0
1 0 0
1 1 0
0 1 0
0.0333333 0 0
0.0666667 0 0
0.1 0 0
0.133333 0 0
0.166667 0 0
0.2 0 0
0.233333 0 0
0.266667 0 0
0.3 0 0
0.333333 0 0
0.366667 0 0
0.4 0 0
0.433333 0 0
0.466667 0 0
0.5 0 0
0.533333 0 0
0.566667 0 0
0.6 0 0
0.633333 0 0
0.666667 0 0
0.7 0 0
0.733333 0 0
0.766667 0 0
0.8 0 0
0.833333 0 0
0.866667 0 0
0.9 0 0
0.933333 0 0
0.966667 0 0
1 0.0333333 0
1 0.0666667 0
1 0.1 0
1 0.133333 0
1 0.166667 0
1 0.2 0
1 0.233333 0
1 0.266667 0
1 0.3 0
1 0.333333 0
1 0.366667 0
1 0.4 0
1 0.433333 0
1 0.466667 0
1 0.5 0
1 0.533333 0
1 0.566667 0
1 0.6 0
1 0.633333 0
1 0.666667 0
1 0.7 0
1 0.733333 0
1 0.766667 0
1 0.8 0
1 0.833333 0
1 0.866667 0
1 0.9 0
1 0.933333 0
1 0.966667 0
0.966667 1 0
0.933333 1 0
0.9 1 0
0.866667 1 0
0.833333 1 0
0.8 1 0
0.766667 1 0
0.733333 1 0
0.7 1 0
0.666667 1 0
0.633333 1 0
0.6 1 0
0.566667 1 0
0.533333 1 0
0.5 1 0
0.466667 1 0
0.433333 1 0
0.4 1 0
0.366667 1 0
0.333333 1 0
0.3 1 0
0.266667 1 0
0.233333 1 0
0.2 1 0
0.166667 1 0
0.133333 1 0
0.1 1 0
0.0666667 1 0
0.0333333 1 0
0 0.966667 0
0 0.933333 0
0 0.9 0
0 0.866667 0
0 0.833333 0
0 0.8 0
0 0.766667 0
0 0.733333 0
0 0.7 0
0 0.666667 0
0 0.633333 0
0 0.6 0
0 0.566667 0
0 0.533333 0
0 0.5 0
0 0.466667 0
0 0.433333 0
0 0.4 0
0 0.366667 0
0 0.333333 0
0 0.3 0
0 0.266667 0
0 0.233333 0
0 0.2 0
0 0.166667 0
0 0.133333 0
0 0.1 0
0 0.0666667 0
0 0.0333333 0
0.0333333 0.0333333 0
0.0333333 0.0666667 0
0.0333333 0.1 0
0.0333333 0.133333 0
0.0333333 0.166667 0
0.0333333 0.2 0
0.0333333 0.233333 0
0.0333333 0.266667 0
0.0333333 0.3 0
0.0333333 0.333333 0
0.0333333 0.366667 0
0.0333333 0.4 0
0.0333333 0.433333 0
0.0333333 0.466667 0
0.0333333 0.5 0
0.0333333 0.533333 0
0.0333333 0.566667 0
0.0333333 0.6 0
0.0333333 0.633333 0
0.0333333 0.666667 0
0.0333333 0.7 0
0.0333333 0.733333 0
0.0333333 0.766667 0
0.0333333 0.8 0
0.0333333 0.833333 0
0.0333333 0.866667 0
0.0333333 0.9 0
0.0333333 0.933333 0
0.0333333 0.966667 0
0.0666667 0.0333333 0
0.0666667 0.0666667 0
0.0666667 0.1 0
0.0666667 0.133333 0
0.0666667 0.166667 0
0.0666667 0.2 0
0.0666667 0.233333 0
0.0666667 0.266667 0
0.0666667 0.3 0
0.0666667 0.333333 0
0.0666667 0.366667 0
0.0666667 0.4 0
0.0666667 0.433333 0
0.0666667 0.466667 0
0.0666667 0.5 0
0.0666667 0.533333 0
0.0666667 0.566667 0
0.0666667 0.6 0
0.0666667 0.633333 0
0.0666667 0.666667 0
0.0666667 0.7 0
0.0666667 0.733333 0
0.0666667 0.766667 0
0.0666667 0.8 0
0.0666667 0.833333 0
0.0666667 0.866667 0
0.0666667 0.9 0
0.0666667 0.933333 0
0.0666667 0.966667 0
0.1 0.0333333 0
0.1 0.0666667 0
0.1 0.1 0
0.1 0.133333 0
0.1 0.166667 0
0.1 0.2 0
0.1 0.233333 0
0.1 0.266667 0
0.1 0.3 0
0.1 0.333333 0
0.1 0.366667 0
0.1 0.4 0
0.1 0.433333 0
0.1 0.466667 0
0.1 0.5 0
0.1 0.533333 0
0.1 0.566667 0
0.1 0.6 0
0.1 0.633333 0
0.1 0.666667 0
0.1 0.7 0
0.1 0.733333 0
0.1 0.766667 0
0.1 0.8 0
0.1 0.833333 0
0.1 0.866667 0
0.1 0.9 0
0.1 0.933333 0
0.1 0.966667 0
0.133333 0.0333333 0
0.133333 0.0666667 0
0.133333 0.1 0
0.133333 0.133333 0
0.133333 0.166667 0
0.133333 0.2 0
0.133333 0.233333 0
0.133333 0.266667 0
0.133333 0.3 0
0.133333 0.333333 0
0.133333 0.366667 0
0.133333 0.4 0
0.133333 0.433333 0
0.133333 0.466667 0
0.133333 0.5 0
0.133333 0.533333 0
0.133333 0.566667 0
0.133333 0.6 0
0.133333 0.633333 0
0.133333 0.666667 0
0.133333 0.7 0
0.133333 0.733333 0
0.133333 0.766667 0
0.133333 0.8 0
0.133333 0.833333 0
0.133333 0.866667 0
0.133333 0.9 0
0.133333 0.933333 0
0.133333 0.966667 0
0.166667 0.0333333 0
0.166667 0.0666667 0
0.166667 0.1 0
0.166667 0.133333 0
0.166667 0.166667 0
0.166667 0.2 0
0.166667 0.233333 0
0.166667 0.266667 0
0.166667 0.3 0
0.166667 0.333333 0
0.166667 0.366667 0
0.166667 0.4 0
0.166667 0.433333 0
0.166667 0.466667 0
0.166667 0.5 0
0.166667 0.533333 0
0.166667 0.566667 0
0.166667 0.6 0
0.166667 0.633333 0
0.166667 0.666667 0
0.166667 0.7 0
0.166667 0.733333 0
0.166667 0.766667 0
0.166667 0.8 0
0.166667 0.833333 0
0.166667 0.866667 0
0.166667 0.9 0
0.166667 0.933333 0
0.166667 0.966667 0
0.2 0.0333333 0
0.2 0.0666667 0
0.2 0.1 0
0.2 0.133333 0
0.2 0.166667 0
0.2 0.2 0
0.2 0.233333 0
0.2 0.266667 0
0.2 0.3 0
0.2 0.333333 0
0.2 0.366667 0
0.2 0.4 0
0.2 0.433333 0
0.2 0.466667 0
0.2 0.5 0
0.2 0.533333 0
0.2 0.566667 0
0.2 0.6 0
0.2 0.633333 0
0.2 0.666667 0
0.2 0.7 0
0.2 0.733333 0
0.2 0.766667 0
0.2 0.8 0
0.2 0.833333 0
0.2 0.866667 0
0.2 0.9 0
0.2 0.933333 0
0.2 0.966667 0
0.233333 0.0333333 0
0.233333 0.0666667 0
0.233333 0.1 0
0.233333 0.133333 0
0.233333 0.166667 0
0.233333 0.2 0
0.233333 0.233333 0
0.233333 0.266667 0
0.233333 0.3 0
0.233333 0.333333 0
0.233333 0.366667 0
0.233333 0.4 0
0.233333 0.433333 0
0.233333 0.466667 0
0.233333 0.5 0
0.233333 0.533333 0
0.233333 0.566667 0
0.233333 0.6 0
0.233333 0.633333 0
0.233333 0.666667 0
0.233333 0.7 0
0.233333 0.733333 0
0.233333 0.766667 0
0.233333 0.8 0
0.233333 0.833333 0
0.233333 0.866667 0
0.233333 0.9 0
0.233333 0.933333 0
0.233333 0.966667 0
0.266667 0.0333333 0
0.266667 0.0666667 0
0.266667 0.1 0
0.266667 0.133333 0
0.266667 0.166667 0
0.266667 0.2 0
0.266667 0.233333 0
0.266667 0.266667 0
0.266667 0.3 0
0.266667 0.333333 0
0.266667 0.366667 0
0.266667 0.4 0
0.266667 0.433333 0
0.266667 0.466667 0
0.266667 0.5 0
0.266667 0.533333 0
0.266667 0.566667 0
0.266667 0.6 0
0.266667 0.633333 0
0.266667 0.666667 0
0.266667 0.7 0
0.266667 0.733333 0
0.266667 0.766667 0
0.266667 0.8 0
0.266667 0.833333 0
0.266667 0.866667 0
0.266667 0.9 0
0.266667 0.933333 0
0.266667 0.966667 0
0.3 0.0333333 0
0.3 0.0666667 0
0.3 0.1 0
0.3 0.133333 0
0.3 0.166667 0
0.3 0.2 0
0.3 0.233333 0
0.3 0.266667 0
0.3 0.3 0
0.3 0.333333 0
0.3 0.366667 0
0.3 0.4 0
0.3 0.433333 0
0.3 0.466667 0
0.3 0.5 0
0.3 0.533333 0
0.3 0.566667 0
0.3 0.6 0
0.3 0.633333 0
0.3 0.666667 0
0.3 0.7 0
0.3 0.733333 0
0.3 0.766667 0
0.3 0.8 0
0.3 0.833333 0
0.3 0.866667 0
0.3 0.9 0
0.3 0.933333 0
0.3 0.966667 0
0.333333 0.0333333 0
0.333333 0.0666667 0
0.333333 0.1 0
0.333333 0.133333 0
0.333333 0.166667 0
0.333333 0.2 0
0.333333 0.233333 0
0.333333 0.266667 0
0.333333 0.3 0
0.333333 0.333333 0
0.333333 0.366667 0
0.333333 0.4 0
0.333333 0.433333 0
0.333333 0.466667 0
0.333333 0.5 0
0.333333 0.533333 0
0.333333 0.566667 0
0.333333 0.6 0
0.333333 0.633333 0
0.333333 0.666667 0
0.333333 0.7 0
0.333333 0.733333 0
0.333333 0.766667 0
0.333333 0.8 0
0.333333 0.833333 0
0.333333 0.866667 0
0.333333 0.9 0
0.333333 0.933333 0
0.333333 0.966667 0
0.366667 0.0333333 0
0.366667 0.0666667 0
0.366667 0.1 0
0.366667 0.133333 0
0.366667 0.166667 0
0.366667 0.2 0
0.366667 0.233333 0
0.366667 0.266667 0
0.366667 0.3 0
0.366667 0.333333 0
0.366667 0.366667 0
0.366667 0.4 0
0.366667 0.433333 0
0.366667 0.466667 0
0.366667 0.5 0
0.366667 0.533333 0
0.366667 0.566667 0
0.366667 0.6 0
0.366667 0.633333 0
0.366667 0.666667 0
0.366667 0.7 0
0.366667 0.733333 0
0.366667 0.766667 0
0.366667 0.8 0
0.366667 0.833333 0
0.366667 0.866667 0
0.366667 0.9 0
0.366667 0.933333 0
0.366667 0.966667 0
0.4 0.0333333 0
0.4 0.0666667 0
0.4 0.1 0
0.4 0.133333 0
0.4 0.166667 0
0.4 0.2 0
0.4 0.233333 0
0.4 0.266667 0
0.4 0.3 0
0.4 0.333333 0
0.4 0.366667 0
0.4 0.4 0
0.4 0.433333 0
0.4 0.466667 0
0.4 0.5 0
0.4 0.533333 0
0.4 0.566667 0
0.4 0.6 0
0.4 0.633333 0
0.4 0.666667 0
0.4 0.7 0
0.4 0.733333 0
0.4 0.766667 0
0.4 0.8 0
0.4 0.833333 0
0.4 0.866667 0
0.4 0.9 0
0.4 0.933333 0
0.4 0.966667 0
0.433333 0.0333333 0
0.433333 0.0666667 0
0.433333 0.1 0
0.433333 0.133333 0
0.433333 0.166667 0
0.433333 0.2 0
0.433333 0.233333 0
0.433333 0.266667 0
0.433333 0.3 0
0.433333 0.333333 0
0.433333 0.366667 0
0.433333 0.4 0
0.433333 0.433333 0
0.433333 0.466667 0
0.433333 0.5 0
0.433333 0.533333 0
0.433333 0.566667 0
0.433333 0.6 0
0.433333 0.633333 0
0.433333 0.666667 0
0.433333 0.7 0
0.433333 0.733333 0
0.433333 0.766667 0
0.433333 0.8 0
0.433333 0.833333 0
0.433333 0.866667 0
0.433333 0.9 0
0.433333 0.933333 0
0.433333 0.966667 0
0.466667 0.0333333 0
0.466667 0.0666667 0
0.466667 0.1 0
0.466667 0.133333 0
0.466667 0.166667 0
0.466667 0.2 0
0.466667 0.233333 0
0.466667 0.266667 0
0.466667 0.3 0
0.466667 0.333333 0
0.466667 0.366667 0
0.466667 0.4 0
0.466667 0.433333 0
0.466667 0.466667 0
0.466667 0.5 0
0.466667 0.533333 0
0.466667 0.566667 0
0.466667 0.6 0
0.466667 0.633333 0
0.466667 0.666667 0
0.466667 0.7 0
0.466667 0.733333 0
0.466667 0.766667 0
0.466667 0.8 0
0.466667 0.833333 0
0.466667 0.866667 0
0.466667 0.9 0
0.466667 0.933333 0
0.466667 0.966667 0
0.5 0.0333333 0
0.5 0.0666667 0
0.5 0.1 0
0.5 0.133333 0
0.5 0.166667 0
0.5 0.2 0
0.5 0.233333 0
0.5 0.266667 0
0.5 0.3 0
0.5 0.333333 0
0.5 0.366667 0
0.5 0.4 0
0.5 0.433333 0
0.5 0.466667 0
0.5 0.5 0
0.5 0.533333 0
0.5 0.566667 0
0.5 0.6 0
0.5 0.633333 0
0.5 0.666667 0
0.5 0.7 0
0.5 0.733333 0
0.5 0.766667 0
0.5 0.8 0
0.5 0.833333 0
0.5 0.866667 0
0.5 0.9 0
0.5 0.933333 0
0.5 0.966667 0
0.533333 0.0333333 0
0.533333 0.0666667 0
0.533333 0.1 0
0.533333 0.133333 0
0.533333 0.166667 0
0.533333 0.2 0
0.533333 0.233333 0
0.533333 0.266667 0
0.533333 0.3 0
0.533333 0.333333 0
0.533333 0.366667 0
0.533333 0.4 0
0.533333 0.433333 0
0.533333 0.466667 0
0.533333 0.5 0
0.533333 0.533333 0
0.533333 0.566667 0
0.533333 0.6 0
0.533333 0.633333 0
0.533333 0.666667 0
0.533333 0.7 0
0.533333 0.733333 0
0.533333 0.766667 0
0.533333 0.8 0
0.533333 0.833333 0
0.533333 0.866667 0
0.533333 0.9 0
0.533333 0.933333 0
0.533333 0.966667 0
0.566667 0.0333333 0
0.566667 0.0666667 0
0.566667 0.1 0
0.566667 0.133333 0
0.566667 0.166667 0
0.566667 0.2 0
0.566667 0.233333 0
0.566667 0.266667 0
0.566667 0.3 0
0.566667 0.333333 0
0.566667 0.366667 0
0.566667 0.4 0
0.566667 0.433333 0
0.566667 0.466667 0
0.566667 0.5 0
0.566667 0.533333 0
0.566667 0.566667 0
0.566667 0.6 0
0.566667 0.633333 0
0.566667 0.666667 0
0.566667 0.7 0
0.566667 0.733333 0
0.566667 0.766667 0
0.566667 0.8 0
0.566667 0.833333 0
0.566667 0.866667 0
0.566667 0.9 0
0.566667 0.933333 0
0.566667 0.966667 0
0.6 0.0333333 0
0.6 0.0666667 0
0.6 0.1 0
0.6 0.133333 0
[...]
CELL_DATA 900
VECTORS velocity double
-9.95755e-05 9.9536e-05 0.0
-0.000206176 0.000516402 0.0
-0.000233045 0.00113283 0.0
-0.000243848 0.00175401 0.0
-0.000253382 0.00240806 0.0
-0.000266089 0.00308979 0.0
-0.000282442 0.00381073 0.0
-0.000302741 0.00457999 0.0
-0.000327338 0.00540826 0.0
-0.000356747 0.00630733 0.0
-0.000391666 0.00729059 0.0
-0.000433019 0.00837348 0.0
-0.000482039 0.00957423 0.0
-0.000540386 0.0109147 0.0
-0.00061035 0.0124218 0.0
-0.000695154 0.0141291 0.0
-0.000799489 0.01608 0.0
-0.000930458 0.0183318 0.0
-0.00109936 0.0209628 0.0
-0.00132531 0.0240842 0.0
-0.001643 0.0278607 0.0
-0.00212017 0.0325502 0.0
-0.00289851 0.0385838 0.0
-0.00428827 0.0467067 0.0
-0.00698023 0.0584587 0.0
-0.0124146 0.0762067 0.0
-0.0226972 0.107204 0.0
-0.037053 0.151713 0.0
-0.0176315 0.238706 0.0
0.213004 0.165068 0.0
-0.000516998 0.000204717 0.0
-0.000922433 0.000914173 0.0
-0.00103717 0.00190034 0.0
-0.0010879 0.00289997 0.0
-0.0011348 0.00395443 0.0
-0.00119383 0.0050562 0.0
-0.00126823 0.0062222 0.0
-0.00135976 0.00746659 0.0
-0.00147026 0.00880626 0.0
-0.00160213 0.0102599 0.0
-0.00175851 0.0118488 0.0
-0.00194351 0.0135974 0.0
-0.00216257 0.0155345 0.0
-0.00242302 0.0176944 0.0
-0.00273485 0.0201191 0.0
-0.00311198 0.0228607 0.0
-0.00357433 0.0259853 0.0
-0.00415111 0.0295791 0.0
-0.00488665 0.0337564 0.0
-0.00585075 0.0386734 0.0
-0.0071582 0.0445468 0.0
-0.00900683 0.051684 0.0
-0.0117548 0.0605267 0.0
-0.0160753 0.0716787 0.0
-0.0232374 0.0860869 0.0
-0.0354697 0.104264 0.0
-0.0547068 0.128165 0.0
-0.0758672 0.149529 0.0
-0.0350358 0.163495 0.0
0.277256 0.0989775 0.0
-0.00112273 0.000223783 0.0
-0.00189929 0.000993073 0.0
-0.00212799 0.00205633 0.0
-0.00223206 0.00313082 0.0
-0.00233074 0.00426323 0.0
-0.00245303 0.0054458 0.0
-0.00260616 0.00669675 0.0
-0.00279389 0.00803098 0.0
-0.00302007 0.0094662 0.0
-0.00328954 0.0110218 0.0
-0.00360854 0.0127198 0.0
-0.00398519 0.0145852 0.0
-0.00443019 0.016647 0.0
-0.00495772 0.0189392 0.0
-0.005587 0.0215028 0.0
-0.00634443 0.0243873 0.0
-0.00726701 0.0276538 0.0
-0.00840774 0.031379 0.0
-0.00984422 0.0356601 0.0
-0.0116929 0.040622 0.0
-0.0141328 0.0464249 0.0
-0.0174455 0.0532727 0.0
-0.0220834 0.0614172 0.0
-0.0287747 0.071118 0.0
-0.0386188 0.0826517 0.0
-0.0529393 0.0955847 0.0
-0.0703509 0.109343 0.0
-0.076319 0.117067 0.0
0.0100148 0.10702 0.0
0.407962 0.0578988 0.0
-0.00170421 0.000221359 0.0
-0.00284137 0.000983107 0.0
-0.00317646 0.00203442 0.0
-0.00332956 0.00309478 0.0
-0.0034765 0.00421187 0.0
-0.00365839 0.00537761 0.0
-0.0038858 0.00660989 0.0
-0.00416412 0.00792293 0.0
-0.00449887 0.00933358 0.0
-0.00489691 0.0108601 0.0
-0.00536703 0.0125228 0.0
-0.00592053 0.0143446 0.0
-0.00657211 0.0163513 0.0
-0.00734108 0.0185727 0.0
-0.00825314 0.0210433 0.0
-0.00934294 0.0238033 0.0
-0.010658 0.0269 0.0
-0.0122643 0.0303889 0.0
-0.0142554 0.0343346 0.0
-0.0167655 0.0388107 0.0
-0.0199903 0.0438965 0.0
-0.0242181 0.0496656 0.0
-0.0298756 0.0561616 0.0
-0.0375824 0.0633246 0.0
-0.0481288 0.0709185 0.0
-0.062056 0.0780342 0.0
-0.0762977 0.0831788 0.0
-0.0719852 0.081921 0.0
0.0346332 0.0656022 0.0
0.465894 0.0323705 0.0
-0.00227572 0.000211783 0.0
-0.00376807 0.000943279 0.0
-0.00420673 0.00195333 0.0
-0.00440762 0.00297084 0.0
-0.00460133 0.00404215 0.0
-0.00484088 0.00515909 0.0
-0.00513992 0.00633855 0.0
-0.00550528 0.00759364 0.0
-0.00594386 0.00893974 0.0
-0.00646415 0.0103932 0.0
-0.00707689 0.0119721 0.0
-0.00779577 0.0136958 0.0
-0.0086383 0.0155863 0.0
-0.00962714 0.0176672 0.0
-0.0107919 0.0199651 0.0
-0.0121716 0.0225088 0.0
-0.0138183 0.0253296 0.0
-0.0158022 0.0284601 0.0
-0.0182189 0.0319321 0.0
-0.0211993 0.0357717 0.0
-0.0249234 0.0399898 0.0
-0.0296383 0.0445642 0.0
-0.0356777 0.0494067 0.0
-0.0434682 0.0542954 0.0
-0.0534252 0.0587978 0.0
-0.0653626 0.061991 0.0
-0.0750681 0.0623963 0.0
-0.0613435 0.0573811 0.0
0.0593068 0.0411275 0.0
0.502295 0.0179926 0.0
-0.00281639 0.000199594 0.0
-0.00464636 0.000889821 0.0
-0.00518247 0.00184288 0.0
-0.00542784 0.00280229 0.0
-0.00566482 0.00381179 0.0
-0.00595766 0.00486324 0.0
-0.00632275 0.00597222 0.0
-0.00676801 0.00715044 0.0
-0.00730137 0.00841155 0.0
-0.00793241 0.0097698 0.0
-0.00867312 0.0112404 0.0
-0.00953858 0.0128394 0.0
-0.0105477 0.014584 0.0
-0.0117247 0.0164919 0.0
-0.0131002 0.0185814 0.0
-0.0147139 0.0208705 0.0
-0.0166168 0.0233754 0.0
-0.0188759 0.0261086 0.0
-0.0215782 0.0290745 0.0
-0.0248375 0.0322626 0.0
-0.0288015 0.0356362 0.0
-0.0336586 0.0391137 0.0
-0.0396402 0.0425391 0.0
-0.0470004 0.0456326 0.0
-0.0558793 0.0479347 0.0
-0.0656476 0.0486781 0.0
-0.0715455 0.0467102 0.0
-0.0514336 0.0406124 0.0
0.0773519 0.0268775 0.0
0.524398 0.0104241 0.0
-0.00332267 0.000185174 0.0
-0.00546897 0.00082564 0.0
-0.00609591 0.0017098 0.0
-0.00638241 0.00259934 0.0
-0.00665904 0.00353467 0.0
-0.00700052 0.00450788 0.0
-0.00742563 0.00553297 0.0
-0.00794315 0.0066202 0.0
-0.00856161 0.00778134 0.0
-0.00929125 0.00902842 0.0
-0.0101446 0.0103739 0.0
-0.0111373 0.0118304 0.0
-0.0122885 0.0134105 0.0
-0.0136221 0.0151265 0.0
-0.0151678 0.0169893 0.0
-0.0169627 0.0190073 0.0
-0.0190534 0.0211847 0.0
-0.0214983 0.0235181 0.0
-0.0243702 0.0259924 0.0
-0.0277593 0.0285731 0.0
-0.0317749 0.0311964 0.0
-0.0365455 0.0337531 0.0
-0.0422102 0.0360671 0.0
-0.0488871 0.0378648 0.0
-0.0565278 0.0387428 0.0
-0.0642468 0.0381248 0.0
-0.06704 0.035201 0.0
-0.0424693 0.0292563 0.0
0.0912431 0.0182208 0.0
0.538634 0.00634617 0.0
-0.00378815 0.000168718 0.0
-0.00622516 0.000752024 0.0
-0.0069352 0.00155697 0.0
-0.00725896 0.00236639 0.0
-0.00757117 0.00321689 0.0
-0.00795612 0.00410091 0.0
-0.00843463 0.0050308 0.0
-0.00901606 0.00601531 0.0
-0.00970924 0.00706437 0.0
-0.0105246 0.00818783 0.0
-0.0114747 0.00939552 0.0
-0.0125749 0.0106969 0.0
-0.0138436 0.0121008 0.0
-0.0153033 0.0136144 0.0
-0.016981 0.0152428 0.0
-0.0189095 0.016987 0.0
-0.0211284 0.0188423 0.0
-0.023685 0.0207946 0.0
-0.0266357 0.0228166 0.0
-0.0300457 0.0248612 0.0
-0.0339881 0.0268532 0.0
-0.0385392 0.0286777 0.0
-0.0437669 0.0301667 0.0
-0.0496952 0.0310823 0.0
-0.0561632 0.0311031 0.0
-0.0621597 0.0298222 0.0
-0.0625987 0.026706 0.0
-0.0350096 0.0214319 0.0
0.101699 0.0127732 0.0
0.548223 0.00408382 0.0
-0.00420773 0.000150389 0.0
-0.00690648 0.000669969 0.0
-0.00769104 0.00138666 0.0
-0.00804788 0.00210697 0.0
-0.00839139 0.00286331 0.0
-0.00881441 0.00364871 0.0
-0.00933946 0.00447376 0.0
-0.00997625 0.00534579 0.0
-0.0107336 0.00627295 0.0
-0.0116219 0.0072631 0.0
-0.0126532 0.00832374 0.0
-0.0138421 0.00946164 0.0
-0.0152056 0.0106823 0.0
-0.0167638 0.0119894 0.0
-0.0185403 0.0133833 0.0
-0.0205624 0.0148602 0.0
-0.0228616 0.0164094 0.0
-0.025474 0.0180111 0.0
-0.0284391 0.019632 0.0
-0.0317995 0.021221 0.0
-0.0355971 0.0227025 0.0
-0.0398674 0.0239695 0.0
-0.044627 0.0248755 0.0
-0.04984 0.0252281 0.0
-0.0552851 0.0247858 0.0
-0.0598998 0.0232731 0.0
-0.0585915 0.0203521 0.0
-0.0289513 0.0159052 0.0
0.109599 0.00918963 0.0
0.554931 0.00276139 0.0
-0.00457672 0.000130398 0.0
-0.00750534 0.000580521 0.0
-0.00835509 0.0012011 0.0
-0.00874059 0.00182454 0.0
-0.00911101 0.00247875 0.0
-0.00956659 0.00315749 0.0
-0.0101313 0.00386968 0.0
-0.0108149 0.00462125 0.0
-0.0116262 0.00541874 0.0
-0.012575 0.00626826 0.0
-0.0136729 0.00717534 0.0
-0.0149332 0.00814457 0.0
-0.0163712 0.00917907 0.0
-0.0180043 0.0102797 0.0
-0.019852 0.0114443 0.0
-0.0219362 0.0126657 0.0
-0.0242803 0.0139307 0.0
-0.0269093 0.0152171 0.0
-0.0298482 0.016491 0.0
-0.03312 0.0177031 0.0
-0.0367419 0.0187845 0.0
-0.0407195 0.0196426 0.0
-0.045035 0.0201576 0.0
-0.0496176 0.020181 0.0
-0.0542174 0.0195385 0.0
-0.0577604 0.0180495 0.0
-0.0551759 0.0155051 0.0
-0.0241346 0.0118872 0.0
0.115575 0.00672703 0.0
0.559756 0.00194009 0.0
-0.0048911 0.000108981 0.0
-0.00801524 0.000484772 0.0
-0.00892023 0.0010026 0.0
-0.00932983 0.0015226 0.0
-0.00972272 0.002068 0.0
-0.0102054 0.00263346 0.0
-0.0108028 0.00322622 0.0
-0.011525 0.00385098 0.0
-0.0123804 0.00451282 0.0
-0.0133782 0.00521635 0.0
-0.0145293 0.00596555 0.0
-0.0158457 0.00676336 0.0
-0.0173407 0.00761126 0.0
-0.0190291 0.00850855 0.0
-0.0209266 0.00945145 0.0
-0.0230495 0.010432 0.0
-0.0254142 0.0114363 0.0
-0.028036 0.0124431 0.0
-0.0309276 0.0134212 0.0
-0.0340964 0.014327 0.0
-0.0375412 0.0151022 0.0
-0.0412463 0.0156713 0.0
-0.0451723 0.0159407 0.0
-0.0492298 0.0158005 0.0
-0.0531589 0.0151288 0.0
-0.0558911 0.0138095 0.0
-0.0523849 0.0117156 0.0
-0.0203786 0.00886921 0.0
0.12008 0.004959 0.0
0.563287 0.00139724 0.0
-0.00514747 8.63821e-05 0.0
-0.00843073 0.000383828 0.0
-0.00938055 0.000793449 0.0
-0.00980959 0.00120468 0.0
-0.0102205 0.00163585 0.0
-0.0107248 0.00208269 0.0
-0.0113485 0.00255083 0.0
-0.0121013 0.00304384 0.0
-0.0129913 0.00356554 0.0
-0.0140276 0.0041193 0.0
-0.0152198 0.0047079 0.0
-0.0165789 0.00533316 0.0
-0.0181164 0.00599561 0.0
-0.0198447 0.00669386 0.0
-0.0217758 0.00742388 0.0
-0.0239217 0.00817809 0.0
-0.0262925 0.00894417 0.0
-0.0288957 0.00970371 0.0
-0.0317343 0.0104306 0.0
-0.0348039 0.0110894 0.0
-0.0380899 0.0116339 0.0
-0.0415626 0.0120063 0.0
-0.0451695 0.012137 0.0
-0.0488119 0.0119477 0.0
-0.0522293 0.0113554 0.0
-0.0543645 0.0102867 0.0
-0.0502012 0.00866436 0.0
-0.017526 0.00651936 0.0
0.123437 0.00363203 0.0
0.565881 0.00101599 0.0
-0.00534309 6.2851e-05 0.0
-0.00874745 0.000278798 0.0
-0.0097313 0.000575943 0.0
-0.0101751 0.000874225 0.0
-0.0105997 0.00118696 0.0
-0.0111204 0.00151108 0.0
-0.0117637 0.00185065 0.0
-0.0125395 0.00220821 0.0
-0.0134557 0.00258651 0.0
-0.0145205 0.0029879 0.0
-0.0157431 0.00341425 0.0
-0.0171334 0.00386673 0.0
-0.0187015 0.00434547 0.0
-0.0204576 0.00484914 0.0
-0.0224112 0.00537442 0.0
-0.0245704 0.00591529 0.0
-0.0269407 0.00646225 0.0
-0.0295237 0.00700133 0.0
-0.0323151 0.00751303 0.0
-0.0353021 0.00797132 0.0
-0.0384609 0.00834283 0.0
-0.0417528 0.00858646 0.0
-0.0451175 0.00865407 0.0
-0.0484525 0.0084926 0.0
-0.0514995 0.00804773 0.0
-0.0532123 0.00727353 0.0
-0.0485921 0.0061216 0.0
-0.0154528 0.00461494 0.0
0.125868 0.00258865 0.0
0.567764 0.000731923 0.0
-0.00547588 3.86375e-05 0.0
-0.00896208 0.000170786 0.0
-0.00996888 0.000352351 0.0
-0.0104226 0.000534661 0.0
-0.0108566 0.000725921 0.0
-0.0113885 0.000924359 0.0
-0.0120454 0.00113252 0.0
-0.012837 0.00135203 0.0
-0.0137709 0.00158465 0.0
-0.0148552 0.00183189 0.0
-0.0160986 0.00209499 0.0
-0.0175101 0.00237476 0.0
-0.0190989 0.00267138 0.0
-0.0208738 0.00298413 0.0
-0.0228423 0.00331106 0.0
-0.02501 0.00364855 0.0
-0.0273792 0.00399083 0.0
-0.0299475 0.00432937 0.0
-0.0327056 0.00465222 0.0
-0.0356354 0.00494344 0.0
-0.0387071 0.00518255 0.0
-0.0418763 0.00534445 0.0
-0.0450782 0.00539979 0.0
-0.0482085 0.00531631 0.0
-0.0510112 0.00506097 0.0
-0.0524471 0.00460534 0.0
-0.0475254 0.00391668 0.0
-0.0140687 0.0030004 0.0
0.127524 0.00172483 0.0
0.56908 0.000506542 0.0
-0.0055444 1.39953e-05 0.0
-0.00907233 6.08956e-05 0.0
-0.0100908 0.000124919 0.0
-0.0105499 0.000189355 0.0
-0.0109889 0.000257226 0.0
-0.0115269 0.000328115 0.0
-0.0121913 0.000403069 0.0
-0.0129916 0.000482856 0.0
-0.0139354 0.00056831 0.0
-0.0150307 0.000660233 0.0
-0.0162859 0.000759377 0.0
-0.0177097 0.000866396 0.0
-0.0193108 0.00098178 0.0
-0.0210973 0.00110576 0.0
-0.0230758 0.00123818 0.0
-0.0252504 0.00137834 0.0
-0.027622 0.00152477 0.0
-0.0301857 0.00167497 0.0
-0.03293 0.00182511 0.0
-0.0358335 0.00196971 0.0
-0.0388634 0.00210126 0.0
-0.0419717 0.00221006 0.0
-0.0450912 0.00228402 0.0
-0.0481157 0.00230895 0.0
-0.0507894 0.00226872 0.0
-0.0520739 0.00214643 0.0
-0.0469764 0.00191663 0.0
-0.0133109 0.00156038 0.0
0.128501 0.000965654 0.0
0.569912 0.000313888 0.0
-0.00554787 -1.08312e-05 0.0
-0.00907695 -4.97849e-05 0.0
-0.0100958 -0.000104113 0.0
-0.0105553 -0.000158342 0.0
-0.0109951 -0.000214668 0.0
-0.0115343 -0.000272144 0.0
-0.0122001 -0.000331216 0.0
-0.0130021 -0.000391973 0.0
-0.0139482 -0.000454468 0.0
-0.0150462 -0.000518588 0.0
-0.0163046 -0.000584022 0.0
-0.0177324 -0.000650203 0.0
-0.0193382 -0.000716228 0.0
-0.0211301 -0.000780788 0.0
-0.0231148 -0.000842068 0.0
-0.0252966 -0.000897655 0.0
-0.0276759 -0.000944452 0.0
-0.030248 -0.000978617 0.0
-0.0330006 -0.000995556 0.0
-0.035912 -0.000990007 0.0
-0.0389482 -0.000956275 0.0
-0.04206 -0.000888674 0.0
-0.0451783 -0.000782246 0.0
-0.0481948 -0.000633878 0.0
-0.0508503 -0.000444107 0.0
-0.0521003 -0.000220782 0.0
-0.046938 1.1914e-05 0.0
-0.01315 0.000201144 0.0
0.128854 0.000244392 0.0
0.570313 0.00012903 0.0
-0.00548614 -3.56143e-05 0.0
-0.00897572 -0.000160183 0.0
-0.00998357 -0.000332499 0.0
-0.0104389 -0.000505064 0.0
-0.0108752 -0.000685294 0.0
-0.0114104 -0.000870906 0.0
-0.0120714 -0.00106386 0.0
-0.0128683 -0.00126514 0.0
-0.0138088 -0.00147572 0.0
-0.0149011 -0.00169622 0.0
-0.0161542 -0.00192684 0.0
-0.0175774 -0.00216716 0.0
-0.0191801 -0.00241594 0.0
-0.0209713 -0.0026709 0.0
-0.0229587 -0.00292834 0.0
-0.0251479 -0.00318279 0.0
-0.0275408 -0.00342666 0.0
-0.0301344 -0.00364974 0.0
-0.0329184 -0.00383891 0.0
-0.0358727 -0.00397788 0.0
-0.0389647 -0.00404734 0.0
-0.0421459 -0.00402545 0.0
-0.0453464 -0.00388927 0.0
-0.0484546 -0.00361716 0.0
-0.0512039 -0.00319288 0.0
-0.0525333 -0.00261433 0.0
-0.0474029 -0.00190513 0.0
-0.0135547 -0.00115649 0.0
0.12861 -0.000473849 0.0
0.570268 -5.60491e-05 0.0
-0.00535967 -6.01063e-05 0.0
-0.00876949 -0.000269192 0.0
-0.00975504 -0.000557961 0.0
-0.0102013 -0.000847403 0.0
-0.0106297 -0.00115012 0.0
-0.0111557 -0.00146257 0.0
-0.0118059 -0.00178827 0.0
-0.0125903 -0.00212917 0.0
-0.0135171 -0.00248725 0.0
-0.014595 -0.00286403 0.0
-0.0158336 -0.00326034 0.0
-0.0172431 -0.00367615 0.0
-0.0188342 -0.00411016 0.0
-0.0206174 -0.00455938 0.0
-0.0226026 -0.00501861 0.0
-0.0247978 -0.00547974 0.0
-0.0272085 -0.00593102 0.0
-0.0298351 -0.00635623 0.0
-0.0326718 -0.00673383 0.0
-0.0357029 -0.00703637 0.0
-0.0388999 -0.00723018 0.0
-0.0422175 -0.00727592 0.0
-0.0455863 -0.00713032 0.0
-0.0488913 -0.00674996 0.0
-0.0518546 -0.00609771 0.0
-0.05339 -0.00515707 0.0
-0.0484066 -0.00394647 0.0
-0.0145719 -0.00259288 0.0
0.127752 -0.00121413 0.0
0.569785 -0.00023874 0.0
-0.00516959 -8.40416e-05 0.0
-0.00846015 -0.000375669 0.0
-0.00941225 -0.000778176 0.0
-0.00984462 -0.00118188 0.0
-0.0102607 -0.00160451 0.0
-0.0107721 -0.00204136 0.0
-0.0114049 -0.0024976 0.0
-0.0121693 -0.00297623 0.0
-0.0130739 -0.00348042 0.0
-0.014128 -0.00401274 0.0
-0.015342 -0.00457497 0.0
-0.0167274 -0.00516778 0.0
-0.0182966 -0.00579025 0.0
-0.0200625 -0.00643926 0.0
-0.0220378 -0.00710874 0.0
-0.0242347 -0.00778867 0.0
-0.0266634 -0.00846396 0.0
-0.0293305 -0.00911307 0.0
-0.0322369 -0.00970664 0.0
-0.0353748 -0.0102061 0.0
-0.0387236 -0.0105627 0.0
-0.0422443 -0.0107176 0.0
-0.0458713 -0.0106035 0.0
-0.0494868 -0.0101493 0.0
-0.0527991 -0.00928894 0.0
-0.0546869 -0.00798215 0.0
-0.0499885 -0.00623423 0.0
-0.0162642 -0.0042063 0.0
0.126213 -0.00203586 0.0
0.568845 -0.000433761 0.0
-0.00491775 -0.000107153 0.0
-0.00805068 -0.000478447 0.0
-0.00895844 -0.000990764 0.0
-0.00937208 -0.00150491 0.0
-0.00977125 -0.00204365 0.0
-0.0102625 -0.00260128 0.0
-0.0108712 -0.00318467 0.0
-0.0116076 -0.00379802 0.0
-0.0124806 -0.00444586 0.0
-0.0135005 -0.0051321 0.0
-0.0146785 -0.00585981 0.0
-0.0160277 -0.00663084 0.0
-0.0175625 -0.00744525 0.0
-0.0192985 -0.00830058 0.0
-0.0212525 -0.00919087 0.0
-0.0234417 -0.0101053 0.0
-0.0258828 -0.0110268 0.0
-0.0285908 -0.0119298 0.0
-0.0315768 -0.0127782 0.0
-0.0348445 -0.0135231 0.0
-0.0383858 -0.0141004 0.0
-0.0421739 -0.0144295 0.0
-0.0461523 -0.0144144 0.0
-0.0502043 -0.0139477 0.0
-0.0540239 -0.0129215 0.0
-0.0564462 -0.0112555 0.0
-0.0522124 -0.00892671 0.0
-0.0187305 -0.00612476 0.0
0.123887 -0.00302076 0.0
0.567376 -0.00066758 0.0
-0.00460664 -0.00012917 0.0
-0.00754515 -0.000576339 0.0
-0.00839802 -0.00119329 0.0
-0.00878811 -0.00181282 0.0
-0.00916566 -0.00246258 0.0
-0.00963102 -0.00313605 0.0
-0.0102084 -0.00384186 0.0
-0.0109083 -0.00458559 0.0
-0.0117399 -0.00537333 0.0
-0.0127141 -0.00621061 0.0
-0.0138432 -0.00710222 0.0
-0.0151419 -0.00805176 0.0
-0.0166266 -0.00906106 0.0
-0.0183164 -0.0101293 0.0
-0.0202324 -0.0112519 0.0
-0.0223977 -0.012419 0.0
-0.0248374 -0.0136131 0.0
-0.027577 -0.0148071 0.0
-0.0306409 -0.0159603 0.0
-0.0340493 -0.0170151 0.0
-0.0378132 -0.017893 0.0
-0.0419259 -0.0184903 0.0
-0.0463491 -0.0186768 0.0
-0.0509765 -0.0182981 0.0
-0.0554927 -0.0171865 0.0
-0.0586829 -0.0151946 0.0
-0.0551594 -0.012244 0.0
-0.0221139 -0.00853446 0.0
0.12061 -0.00428918 0.0
0.56525 -0.000979639 0.0
-0.00423952 -0.000149819 0.0
-0.00694878 -0.000668143 0.0
-0.00773668 -0.00138326 0.0
-0.00809845 -0.00210184 0.0
-0.00844961 -0.00285619 0.0
-0.00888316 -0.00363915 0.0
-0.00942197 -0.00446119 0.0
-0.0100763 -0.0053294 0.0
-0.0108558 -0.00625165 0.0
-0.0117717 -0.00723539 0.0
-0.0128374 -0.00828759 0.0
-0.0140688 -0.00941424 0.0
-0.0154847 -0.0106198 0.0
-0.0171072 -0.0119063 0.0
-0.0189621 -0.0132722 0.0
-0.0210793 -0.0147104 0.0
-0.0234929 -0.0162061 0.0
-0.0262412 -0.0177333 0.0
-0.0293654 -0.0192506 0.0
-0.0329074 -0.0206956 0.0
-0.0369051 -0.0219779 0.0
-0.0413836 -0.0229719 0.0
-0.0463376 -0.0235097 0.0
-0.0516885 -0.0233777 0.0
-0.0571267 -0.0223243 0.0
-0.0613894 -0.0200943 0.0
-0.0589233 -0.0165074 0.0
-0.0266154 -0.0117246 0.0
0.11613 -0.00604323 0.0
0.562233 -0.00144088 0.0
-0.0038203 -0.000168837 0.0
-0.00626795 -0.000752661 0.0
-0.0069814 -0.0015582 0.0
-0.00731019 -0.00236816 0.0
-0.00763022 -0.00321924 0.0
-0.00802596 -0.00410385 0.0
-0.00851861 -0.00503432 0.0
-0.00911814 -0.00601933 0.0
-0.00983424 -0.00706873 0.0
-0.0106784 -0.0081922 0.0
-0.0116646 -0.00939928 0.0
-0.0128097 -0.010699 0.0
-0.0141345 -0.0120994 0.0
-0.0156637 -0.0136067 0.0
-0.0174276 -0.015224 0.0
-0.0194627 -0.0169498 0.0
-0.0218127 -0.0187751 0.0
-0.0245297 -0.0206796 0.0
-0.0276747 -0.0226266 0.0
-0.0313166 -0.0245551 0.0
-0.0355296 -0.0263703 0.0
-0.040385 -0.0279297 0.0
-0.0459327 -0.0290287 0.0
-0.0521514 -0.0293855 0.0
-0.0587703 -0.0286376 0.0
-0.0645007 -0.0263632 0.0
-0.0635899 -0.0222038 0.0
-0.0325047 -0.0161715 0.0
0.110064 -0.00865462 0.0
0.557915 -0.00219444 0.0
-0.00335363 -0.000185978 0.0
-0.0055102 -0.000828729 0.0
-0.00614044 -0.00171564 0.0
-0.00643183 -0.00260798 0.0
-0.00671608 -0.0035465 0.0
-0.00706809 -0.00452334 0.0
-0.00750703 -0.00555266 0.0
-0.00804233 -0.00664483 0.0
-0.00868341 -0.00781175 0.0
-0.00944162 -0.00906556 0.0
-0.010331 -0.0104187 0.0
-0.011369 -0.0118839 0.0
-0.0125773 -0.0134735 0.0
-0.0139826 -0.0151992 0.0
-0.0156187 -0.0170709 0.0
-0.0175274 -0.0190952 0.0
-0.0197616 -0.0212728 0.0
-0.0223871 -0.0235949 0.0
-0.0254857 -0.0260372 0.0
-0.0291574 -0.0285503 0.0
-0.0335216 -0.0310469 0.0
-0.0387127 -0.033382 0.0
-0.0448654 -0.0353256 0.0
-0.0520613 -0.036529 0.0
-0.0601304 -0.0364974 0.0
-0.0678199 -0.034568 0.0
-0.0691714 -0.0300893 0.0
-0.0400955 -0.0226976 0.0
0.101861 -0.0128528 0.0
0.551548 -0.00354759 0.0
-0.00284467 -0.000201045 0.0
-0.00468405 -0.000895227 0.0
-0.00522319 -0.00185307 0.0
-0.00547306 -0.00281745 0.0
-0.00571707 -0.0038326 0.0
-0.00601965 -0.0048906 0.0
-0.00639756 -0.00600732 0.0
-0.00685937 -0.0071948 0.0
-0.00741385 -0.00846703 0.0
-0.00807174 -0.00983868 0.0
-0.00884652 -0.0113254 0.0
-0.0097552 -0.0129437 0.0
-0.0108193 -0.0147113 0.0
-0.0120663 -0.0166461 0.0
-0.0135314 -0.0187666 0.0
-0.01526 -0.0210902 0.0
-0.0173113 -0.0236318 0.0
-0.0197626 -0.0264003 0.0
-0.0227147 -0.0293931 0.0
-0.0262995 -0.0325869 0.0
-0.0306867 -0.0359218 0.0
-0.03609 -0.0392759 0.0
-0.0427628 -0.0424248 0.0
-0.0509543 -0.0449797 0.0
-0.0607005 -0.0463184 0.0
-0.0709222 -0.0454673 0.0
-0.0755372 -0.041334 0.0
-0.0497997 -0.0327566 0.0
0.0905298 -0.0201286 0.0
0.541536 -0.00618621 0.0
-0.00229995 -0.00021381 0.0
-0.00380038 -0.000950736 0.0
-0.00424165 -0.00196738 0.0
-0.00444641 -0.00299177 0.0
-0.00464619 -0.00407095 0.0
-0.00489418 -0.00519704 0.0
-0.00520435 -0.00638743 0.0
-0.00558411 -0.00765569 0.0
-0.00604116 -0.0090178 0.0
-0.00658503 -0.0104909 0.0
-0.00722787 -0.0120937 0.0
-0.00798523 -0.0138469 0.0
-0.00887713 -0.0157734 0.0