# vtk DataFile Version 3.0
Malha 2D com triângulos e temperatura
ASCII
DATASET UNSTRUCTURED_GRID

POINTS 961 double
0 0 0
1 0 0
1 1 0
0 1 0
0.0333333 0 0
0.0666667 0 0
0.1 0 0
0.133333 0 0
0.166667 0 0
0.2 0 0
0.233333 0 0
0.266667 0 0
0.3 0 0
0.333333 0 0
0.366667 0 0
0.4 0 0
0.433333 0 0
0.466667 0 0
0.5 0 0
0.533333 0 0
0.566667 0 0
0.6 0 0
0.633333 0 0
0.666667 0 0
0.7 0 0
0.733333 0 0
0.766667 0 0
0.8 0 0
0.833333 0 0
0.866667 0 0
0.9 0 0
0.933333 0 0
0.966667 0 0
1 0.0333333 0
1 0.0666667 0
1 0.1 0
1 0.133333 0
1 0.166667 0
1 0.2 0
1 0.233333 0
1 0.266667 0
1 0.3 0
1 0.333333 0
1 0.366667 0
1 0.4 0
1 0.433333 0
1 0.466667 0
1 0.5 0
1 0.533333 0
1 0.566667 0
1 0.6 0
1 0.633333 0
1 0.666667 0
1 0.7 0
1 0.733333 0
1 0.766667 0
1 0.8 0
1 0.833333 0
1 0.866667 0
1 0.9 0
1 0.933333 0
1 0.966667 0
0.966667 1 0
0.933333 1 0
0.9 1 0
0.866667 1 0
0.833333 1 0
0.8 1 0
0.766667 1 0
0.733333 1 0
0.7 1 0
0.666667 1 0
0.633333 1 0
0.6 1 0
0.566667 1 0
0.533333 1 0
0.5 1 0
0.466667 1 0
0.433333 1 0
0.4 1 0
0.366667 1 0
0.333333 1 0
0.3 1 0
0.266667 1 0
0.233333 1 0
0.2 1 0
0.166667 1 0
0.133333 1 0
0.1 1 0
0.0666667 1 0
0.0333333 1 0
0 0.966667 0
0 0.933333 0
0 0.9 0
0 0.866667 0
0 0.833333 0
0 0.8 0
0 0.766667 0
0 0.733333 0
0 0.7 0
0 0.666667 0
0 0.633333 0
0 0.6 0
0 0.566667 0
0 0.533333 0
0 0.5 0
0 0.466667 0
0 0.433333 0
0 0.4 0
0 0.366667 0
0 0.333333 0
0 0.3 0
0 0.266667 0
0 0.233333 0
0 0.2 0
0 0.166667 0
0 0.133333 0
0 0.1 0
0 0.0666667 0
0 0.0333333 0
0.0333333 0.0333333 0
0.0333333 0.0666667 0
0.0333333 0.1 0
0.0333333 0.133333 0
0.0333333 0.166667 0
0.0333333 0.2 0
0.0333333 0.233333 0
0.0333333 0.266667 0
0.0333333 0.3 0
0.0333333 0.333333 0
0.0333333 0.366667 0
0.0333333 0.4 0
0.0333333 0.433333 0
0.0333333 0.466667 0
0.0333333 0.5 0
0.0333333 0.533333 0
0.0333333 0.566667 0
0.0333333 0.6 0
0.0333333 0.633333 0
0.0333333 0.666667 0
0.0333333 0.7 0
0.0333333 0.733333 0
0.0333333 0.766667 0
0.0333333 0.8 0
0.0333333 0.833333 0
0.0333333 0.866667 0
0.0333333 0.9 0
0.0333333 0.933333 0
0.0333333 0.966667 0
0.0666667 0.0333333 0
0.0666667 0.0666667 0
0.0666667 0.1 0
0.0666667 0.133333 0
0.0666667 0.166667 0
0.0666667 0.2 0
0.0666667 0.233333 0
0.0666667 0.266667 0
0.0666667 0.3 0
0.0666667 0.333333 0
0.0666667 0.366667 0
0.0666667 0.4 0
0.0666667 0.433333 0
0.0666667 0.466667 0
0.0666667 0.5 0
0.0666667 0.533333 0
0.0666667 0.566667 0
0.0666667 0.6 0
0.0666667 0.633333 0
0.0666667 0.666667 0
0.0666667 0.7 0
0.0666667 0.733333 0
0.0666667 0.766667 0
0.0666667 0.8 0
0.0666667 0.833333 0
0.0666667 0.866667 0
0.0666667 0.9 0
0.0666667 0.933333 0
0.0666667 0.966667 0
0.1 0.0333333 0
0.1 0.0666667 0
0.1 0.1 0
0.1 0.133333 0
0.1 0.166667 0
0.1 0.2 0
0.1 0.233333 0
0.1 0.266667 0
0.1 0.3 0
0.1 0.333333 0
0.1 0.366667 0
0.1 0.4 0
0.1 0.433333 0
0.1 0.466667 0
0.1 0.5 0
0.1 0.533333 0
0.1 0.566667 0
0.1 0.6 0
0.1 0.633333 0
0.1 0.666667 0
0.1 0.7 0
0.1 0.733333 0
0.1 0.766667 0
0.1 0.8 0
0.1 0.833333 0
0.1 0.866667 0
0.1 0.9 0
0.1 0.933333 0
0.1 0.966667 0
0.133333 0.0333333 0
0.133333 0.0666667 0
0.133333 0.1 0
0.133333 0.133333 0
0.133333 0.166667 0
0.133333 0.2 0
0.133333 0.233333 0
0.133333 0.266667 0
0.133333 0.3 0
0.133333 0.333333 0
0.133333 0.366667 0
0.133333 0.4 0
0.133333 0.433333 0
0.133333 0.466667 0
0.133333 0.5 0
0.133333 0.533333 0
0.133333 0.566667 0
0.133333 0.6 0
0.133333 0.633333 0
0.133333 0.666667 0
0.133333 0.7 0
0.133333 0.733333 0
0.133333 0.766667 0
0.133333 0.8 0
0.133333 0.833333 0
0.133333 0.866667 0
0.133333 0.9 0
0.133333 0.933333 0
0.133333 0.966667 0
0.166667 0.0333333 0
0.166667 0.0666667 0
0.166667 0.1 0
0.166667 0.133333 0
0.166667 0.166667 0
0.166667 0.2 0
0.166667 0.233333 0
0.166667 0.266667 0
0.166667 0.3 0
0.166667 0.333333 0
0.166667 0.366667 0
0.166667 0.4 0
0.166667 0.433333 0
0.166667 0.466667 0
0.166667 0.5 0
0.166667 0.533333 0
0.166667 0.566667 0
0.166667 0.6 0
0.166667 0.633333 0
0.166667 0.666667 0
0.166667 0.7 0
0.166667 0.733333 0
0.166667 0.766667 0
0.166667 0.8 0
0.166667 0.833333 0
0.166667 0.866667 0
0.166667 0.9 0
0.166667 0.933333 0
0.166667 0.966667 0
0.2 0.0333333 0
0.2 0.0666667 0
0.2 0.1 0
0.2 0.133333 0
0.2 0.166667 0
0.2 0.2 0
0.2 0.233333 0
0.2 0.266667 0
0.2 0.3 0
0.2 0.333333 0
0.2 0.366667 0
0.2 0.4 0
0.2 0.433333 0
0.2 0.466667 0
0.2 0.5 0
0.2 0.533333 0
0.2 0.566667 0
0.2 0.6 0
0.2 0.633333 0
0.2 0.666667 0
0.2 0.7 0
0.2 0.733333 0
0.2 0.766667 0
0.2 0.8 0
0.2 0.833333 0
0.2 0.866667 0
0.2 0.9 0
0.2 0.933333 0
0.2 0.966667 0
0.233333 0.0333333 0
0.233333 0.0666667 0
0.233333 0.1 0
0.233333 0.133333 0
0.233333 0.166667 0
0.233333 0.2 0
0.233333 0.233333 0
0.233333 0.266667 0
0.233333 0.3 0
0.233333 0.333333 0
0.233333 0.366667 0
0.233333 0.4 0
0.233333 0.433333 0
0.233333 0.466667 0
0.233333 0.5 0
0.233333 0.533333 0
0.233333 0.566667 0
0.233333 0.6 0
0.233333 0.633333 0
0.233333 0.666667 0
0.233333 0.7 0
0.233333 0.733333 0
0.233333 0.766667 0
0.233333 0.8 0
0.233333 0.833333 0
0.233333 0.866667 0
0.233333 0.9 0
0.233333 0.933333 0
0.233333 0.966667 0
0.266667 0.0333333 0
0.266667 0.0666667 0
0.266667 0.1 0
0.266667 0.133333 0
0.266667 0.166667 0
0.266667 0.2 0
0.266667 0.233333 0
0.266667 0.266667 0
0.266667 0.3 0
0.266667 0.333333 0
0.266667 0.366667 0
0.266667 0.4 0
0.266667 0.433333 0
0.266667 0.466667 0
0.266667 0.5 0
0.266667 0.533333 0
0.266667 0.566667 0
0.266667 0.6 0
0.266667 0.633333 0
0.266667 0.666667 0
0.266667 0.7 0
0.266667 0.733333 0
0.266667 0.766667 0
0.266667 0.8 0
0.266667 0.833333 0
0.266667 0.866667 0
0.266667 0.9 0
0.266667 0.933333 0
0.266667 0.966667 0
0.3 0.0333333 0
0.3 0.0666667 0
0.3 0.1 0
0.3 0.133333 0
0.3 0.166667 0
0.3 0.2 0
0.3 0.233333 0
0.3 0.266667 0
0.3 0.3 0
0.3 0.333333 0
0.3 0.366667 0
0.3 0.4 0
0.3 0.433333 0
0.3 0.466667 0
0.3 0.5 0
0.3 0.533333 0
0.3 0.566667 0
0.3 0.6 0
0.3 0.633333 0
0.3 0.666667 0
0.3 0.7 0
0.3 0.733333 0
0.3 0.766667 0
0.3 0.8 0
0.3 0.833333 0
0.3 0.866667 0
0.3 0.9 0
0.3 0.933333 0
0.3 0.966667 0
0.333333 0.0333333 0
0.333333 0.0666667 0
0.333333 0.1 0
0.333333 0.133333 0
0.333333 0.166667 0
0.333333 0.2 0
0.333333 0.233333 0
0.333333 0.266667 0
0.333333 0.3 0
0.333333 0.333333 0
0.333333 0.366667 0
0.333333 0.4 0
0.333333 0.433333 0
0.333333 0.466667 0
0.333333 0.5 0
0.333333 0.533333 0
0.333333 0.566667 0
0.333333 0.6 0
0.333333 0.633333 0
0.333333 0.666667 0
0.333333 0.7 0
0.333333 0.733333 0
0.333333 0.766667 0
0.333333 0.8 0
0.333333 0.833333 0
0.333333 0.866667 0
0.333333 0.9 0
0.333333 0.933333 0
0.333333 0.966667 0
0.366667 0.0333333 0
0.366667 0.0666667 0
0.366667 0.1 0
0.366667 0.133333 0
0.366667 0.166667 0
0.366667 0.2 0
0.366667 0.233333 0
0.366667 0.266667 0
0.366667 0.3 0
0.366667 0.333333 0
0.366667 0.366667 0
0.366667 0.4 0
0.366667 0.433333 0
0.366667 0.466667 0
0.366667 0.5 0
0.366667 0.533333 0
0.366667 0.566667 0
0.366667 0.6 0
0.366667 0.633333 0
0.366667 0.666667 0
0.366667 0.7 0
0.366667 0.733333 0
0.366667 0.766667 0
0.366667 0.8 0
0.366667 0.833333 0
0.366667 0.866667 0
0.366667 0.9 0
0.366667 0.933333 0
0.366667 0.966667 0
0.4 0.0333333 0
0.4 0.0666667 0
0.4 0.1 0
0.4 0.133333 0
0.4 0.166667 0
0.4 0.2 0
0.4 0.233333 0
0.4 0.266667 0
0.4 0.3 0
0.4 0.333333 0
0.4 0.366667 0
0.4 0.4 0
0.4 0.433333 0
0.4 0.466667 0
0.4 0.5 0
0.4 0.533333 0
0.4 0.566667 0
0.4 0.6 0
0.4 0.633333 0
0.4 0.666667 0
0.4 0.7 0
0.4 0.733333 0
0.4 0.766667 0
0.4 0.8 0
0.4 0.833333 0
0.4 0.866667 0
0.4 0.9 0
0.4 0.933333 0
0.4 0.966667 0
0.433333 0.0333333 0
0.433333 0.0666667 0
0.433333 0.1 0
0.433333 0.133333 0
0.433333 0.166667 0
0.433333 0.2 0
0.433333 0.233333 0
0.433333 0.266667 0
0.433333 0.3 0
0.433333 0.333333 0
0.433333 0.366667 0
0.433333 0.4 0
0.433333 0.433333 0
0.433333 0.466667 0
0.433333 0.5 0
0.433333 0.533333 0
0.433333 0.566667 0
0.433333 0.6 0
0.433333 0.633333 0
0.433333 0.666667 0
0.433333 0.7 0
0.433333 0.733333 0
0.433333 0.766667 0
0.433333 0.8 0
0.433333 0.833333 0
0.433333 0.866667 0
0.433333 0.9 0
0.433333 0.933333 0
0.433333 0.966667 0
0.466667 0.0333333 0
0.466667 0.0666667 0
0.466667 0.1 0
0.466667 0.133333 0
0.466667 0.166667 0
0.466667 0.2 0
0.466667 0.233333 0
0.466667 0.266667 0
0.466667 0.3 0
0.466667 0.333333 0
0.466667 0.366667 0
0.466667 0.4 0
0.466667 0.433333 0
0.466667 0.466667 0
0.466667 0.5 0
0.466667 0.533333 0
0.466667 0.566667 0
0.466667 0.6 0
0.466667 0.633333 0
0.466667 0.666667 0
0.466667 0.7 0
0.466667 0.733333 0
0.466667 0.766667 0
0.466667 0.8 0
0.466667 0.833333 0
0.466667 0.866667 0
0.466667 0.9 0
0.466667 0.933333 0
0.466667 0.966667 0
0.5 0.0333333 0
0.5 0.0666667 0
0.5 0.1 0
0.5 0.133333 0
0.5 0.166667 0
0.5 0.2 0
0.5 0.233333 0
0.5 0.266667 0
0.5 0.3 0
0.5 0.333333 0
0.5 0.366667 0
0.5 0.4 0
0.5 0.433333 0
0.5 0.466667 0
0.5 0.5 0
0.5 0.533333 0
0.5 0.566667 0
0.5 0.6 0
0.5 0.633333 0
0.5 0.666667 0
0.5 0.7 0
0.5 0.733333 0
0.5 0.766667 0
0.5 0.8 0
0.5 0.833333 0
0.5 0.866667 0
0.5 0.9 0
0.5 0.933333 0
0.5 0.966667 0
0.533333 0.0333333 0
0.533333 0.0666667 0
0.533333 0.1 0
0.533333 0.133333 0
0.533333 0.166667 0
0.533333 0.2 0
0.533333 0.233333 0
0.533333 0.266667 0
0.533333 0.3 0
0.533333 0.333333 0
0.533333 0.366667 0
0.533333 0.4 0
0.533333 0.433333 0
0.533333 0.466667 0
0.533333 0.5 0
0.533333 0.533333 0
0.533333 0.566667 0
0.533333 0.6 0
0.533333 0.633333 0
0.533333 0.666667 0
0.533333 0.7 0
0.533333 0.733333 0
0.533333 0.766667 0
0.533333 0.8 0
0.533333 0.833333 0
0.533333 0.866667 0
0.533333 0.9 0
0.533333 0.933333 0
0.533333 0.966667 0
0.566667 0.0333333 0
0.566667 0.0666667 0
0.566667 0.1 0
0.566667 0.133333 0
0.566667 0.166667 0
0.566667 0.2 0
0.566667 0.233333 0
0.566667 0.266667 0
0.566667 0.3 0
0.566667 0.333333 0
0.566667 0.366667 0
0.566667 0.4 0
0.566667 0.433333 0
0.566667 0.466667 0
0.566667 0.5 0
0.566667 0.533333 0
0.566667 0.566667 0
0.566667 0.6 0
0.566667 0.633333 0
0.566667 0.666667 0
0.566667 0.7 0
0.566667 0.733333 0
0.566667 0.766667 0
0.566667 0.8 0
0.566667 0.833333 0
0.566667 0.866667 0
0.566667 0.9 0
0.566667 0.933333 0
0.566667 0.966667 0
0.6 0.0333333 0
0.6 0.0666667 0
0.6 0.1 0
0.6 0.133333 0
[...]
CELL_DATA 900
VECTORS velocity double
4.8343e-05 -4.7312e-05 0.0
-5.84949e-05 0.000117209 0.0
-0.000132836 0.000617575 0.0
-0.000176628 0.00127927 0.0
-0.000196164 0.00205692 0.0
-0.000207424 0.00289577 0.0
-0.000217479 0.00378964 0.0
-0.000230198 0.00474002 0.0
-0.000246799 0.0057593 0.0
-0.000267836 0.00686255 0.0
-0.000293697 0.00806793 0.0
-0.00032496 0.00939612 0.0
-0.000362502 0.0108714 0.0
-0.000407619 0.0125229 0.0
-0.000462224 0.0143865 0.0
-0.000529233 0.016508 0.0
-0.000613347 0.0189477 0.0
-0.000722702 0.0217884 0.0
-0.000872403 0.0251487 0.0
-0.00109204 0.0292062 0.0
-0.00144098 0.0342392 0.0
-0.00203887 0.0406984 0.0
-0.00312026 0.0493276 0.0
-0.00513269 0.061331 0.0
-0.00886109 0.0786853 0.0
-0.0155787 0.104061 0.0
-0.0262166 0.142298 0.0
-0.0381573 0.191171 0.0
-0.0128795 0.264394 0.0
0.217568 0.174851 0.0
-0.000119055 6.19079e-05 0.0
-0.000669308 0.000669438 0.0
-0.001068 0.00189765 0.0
-0.00132746 0.0034292 0.0
-0.0014842 0.00520539 0.0
-0.00159772 0.00713476 0.0
-0.00170333 0.0092048 0.0
-0.0018223 0.0114181 0.0
-0.00196518 0.0137986 0.0
-0.00213838 0.0163781 0.0
-0.0023471 0.0191962 0.0
-0.00259735 0.0222991 0.0
-0.002897 0.0257413 0.0
-0.00325703 0.0295882 0.0
-0.00369298 0.0339202 0.0
-0.00422753 0.0388388 0.0
-0.00489469 0.0444754 0.0
-0.00574696 0.0510048 0.0
-0.00686779 0.0586656 0.0
-0.00839241 0.0677896 0.0
-0.0105401 0.07884 0.0
-0.0136597 0.0924539 0.0
-0.0182726 0.109457 0.0
-0.0250914 0.130767 0.0
-0.034858 0.157059 0.0
-0.0479719 0.187634 0.0
-0.0620307 0.218815 0.0
-0.0671745 0.237731 0.0
-0.00260874 0.218731 0.0
0.306951 0.117104 0.0
-0.000619779 0.000134435 0.0
-0.00189258 0.00104361 0.0
-0.00280527 0.00274795 0.0
-0.00340927 0.0048111 0.0
-0.00380318 0.00717637 0.0
-0.0041034 0.00973777 0.0
-0.00438732 0.0124845 0.0
-0.0047024 0.015422 0.0
-0.00507495 0.0185809 0.0
-0.0055217 0.0220013 0.0
-0.0060565 0.0257329 0.0
-0.00669455 0.0298332 0.0
-0.00745529 0.0343695 0.0
-0.00836498 0.0394213 0.0
-0.0094602 0.0450841 0.0
-0.0107929 0.051475 0.0
-0.0124384 0.0587405 0.0
-0.0145076 0.0670671 0.0
-0.0171658 0.0766945 0.0
-0.0206579 0.0879318 0.0
-0.0253357 0.101167 0.0
-0.0316675 0.116861 0.0
-0.0401684 0.135461 0.0
-0.0511522 0.157186 0.0
-0.0640073 0.181415 0.0
-0.0758179 0.205723 0.0
-0.0773444 0.223149 0.0
-0.0456838 0.222128 0.0
0.0892815 0.170912 0.0
0.477688 0.0771559 0.0
-0.00126077 0.000172344 0.0
-0.00336725 0.00124697 0.0
-0.00483727 0.00320471 0.0
-0.00580272 0.00553322 0.0
-0.00644853 0.00818181 0.0
-0.00695288 0.0110396 0.0
-0.00743619 0.0141001 0.0
-0.00797185 0.0173707 0.0
-0.0086018 0.020885 0.0
-0.00935306 0.0246856 0.0
-0.0102479 0.0288244 0.0
-0.0113105 0.0333609 0.0
-0.0125707 0.0383632 0.0
-0.0140681 0.0439099 0.0
-0.0158566 0.0500926 0.0
-0.0180108 0.0570195 0.0
-0.0206349 0.0648192 0.0
-0.0238766 0.0736453 0.0
-0.0279444 0.083679 0.0
-0.033126 0.0951282 0.0
-0.0397948 0.10821 0.0
-0.0483661 0.123104 0.0
-0.0591126 0.139816 0.0
-0.0716911 0.15794 0.0
-0.0840593 0.176013 0.0
-0.0905167 0.190927 0.0
-0.0775725 0.195414 0.0
-0.0159601 0.180715 0.0
0.159759 0.123804 0.0
0.57458 0.0487276 0.0
-0.00197845 0.000180882 0.0
-0.00499159 0.00131001 0.0
-0.00704715 0.00335327 0.0
-0.00838444 0.00576206 0.0
-0.00928912 0.00848889 0.0
-0.0100056 0.0114216 0.0
-0.0106985 0.0145568 0.0
-0.0114666 0.0179028 0.0
-0.0123669 0.0214934 0.0
-0.0134362 0.0253701 0.0
-0.0147042 0.0295824 0.0
-0.0162026 0.0341859 0.0
-0.0179698 0.0392425 0.0
-0.0200553 0.0448213 0.0
-0.0225251 0.0509995 0.0
-0.0254677 0.0578633 0.0
-0.0290032 0.0655082 0.0
-0.0332949 0.0740374 0.0
-0.0385614 0.0835573 0.0
-0.0450832 0.0941644 0.0
-0.0531825 0.105915 0.0
-0.0631251 0.118766 0.0
-0.0748326 0.132436 0.0
-0.0872242 0.146201 0.0
-0.0968736 0.15834 0.0
-0.0956978 0.165817 0.0
-0.0669895 0.162364 0.0
0.0215056 0.14145 0.0
0.225872 0.088547 0.0
0.643132 0.0299856 0.0
-0.00269671 0.000176362 0.0
-0.00662427 0.00129218 0.0
-0.00925844 0.0033096 0.0
-0.0109563 0.00567778 0.0
-0.0121091 0.00835128 0.0
-0.0130291 0.0112197 0.0
-0.0139239 0.0142812 0.0
-0.0149165 0.017544 0.0
-0.0160775 0.0210402 0.0
-0.0174514 0.0248081 0.0
-0.019074 0.0288924 0.0
-0.020982 0.0333419 0.0
-0.0232189 0.0382091 0.0
-0.0258397 0.0435501 0.0
-0.0289153 0.049424 0.0
-0.0325387 0.0558912 0.0
-0.0368317 0.0630114 0.0
-0.0419529 0.0708384 0.0
-0.0481042 0.0794094 0.0
-0.0555245 0.0887287 0.0
-0.0644458 0.0987321 0.0
-0.0749524 0.109233 0.0
-0.0866172 0.119795 0.0
-0.0977143 0.129588 0.0
-0.103718 0.136928 0.0
-0.0948468 0.139207 0.0
-0.0524644 0.13131 0.0
0.055813 0.109363 0.0
0.278836 0.0637781 0.0
0.689846 0.0185147 0.0
-0.00338912 0.000165621 0.0
-0.00820511 0.00122753 0.0
-0.0113957 0.00314898 0.0
-0.013437 0.00539987 0.0
-0.0148236 0.00793694 0.0
-0.0159346 0.0106543 0.0
-0.0170191 0.0135507 0.0
-0.0182225 0.0166336 0.0
-0.0196272 0.0199322 0.0
-0.0212843 0.0234805 0.0
-0.0232335 0.0273177 0.0
-0.0255144 0.0314847 0.0
-0.0281725 0.0360239 0.0
-0.0312639 0.0409779 0.0
-0.034859 0.0463875 0.0
-0.039047 0.0522898 0.0
-0.0439409 0.0587127 0.0
-0.049682 0.0656687 0.0
-0.056439 0.0731426 0.0
-0.0643921 0.081074 0.0
-0.0736705 0.0893247 0.0
-0.084178 0.0976338 0.0
-0.0951749 0.105514 0.0
-0.104402 0.112156 0.0
-0.10648 0.116055 0.0
-0.0904318 0.115101 0.0
-0.0365601 0.10526 0.0
0.0867367 0.0844372 0.0
0.321657 0.0463135 0.0
0.722329 0.0114961 0.0
-0.00403567 0.000152406 0.0
-0.0096868 0.00113626 0.0
-0.0133974 0.00291685 0.0
-0.0157576 0.00500015 0.0
-0.0173594 0.00734592 0.0
-0.0186453 0.0098554 0.0
-0.0199033 0.0125276 0.0
-0.021299 0.0153688 0.0
-0.0229253 0.018405 0.0
-0.024838 0.0216659 0.0
-0.0270794 0.0251845 0.0
-0.0296896 0.0289945 0.0
-0.0327136 0.0331285 0.0
-0.0362051 0.0376171 0.0
-0.0402294 0.0424859 0.0
-0.0448665 0.0477523 0.0
-0.0502138 0.0534199 0.0
-0.0563869 0.0594713 0.0
-0.0635146 0.0658561 0.0
-0.0717136 0.0724751 0.0
-0.0810133 0.0791527 0.0
-0.0911578 0.0856028 0.0
-0.101149 0.091347 0.0
-0.108311 0.0956541 0.0
-0.106633 0.0972416 0.0
-0.0843229 0.0944547 0.0
-0.0211695 0.0841656 0.0
0.113235 0.0654014 0.0
0.355675 0.0340399 0.0
0.745273 0.00724226 0.0
-0.00462679 0.000137634 0.0
-0.0110427 0.00102711 0.0
-0.0152276 0.00263578 0.0
-0.0178775 0.00451587 0.0
-0.0196737 0.00663119 0.0
-0.0211172 0.00889232 0.0
-0.0225311 0.0112985 0.0
-0.0240994 0.0138552 0.0
-0.0259234 0.016585 0.0
-0.028063 0.0195135 0.0
-0.0305612 0.0226681 0.0
-0.0334574 0.0260758 0.0
-0.0367941 0.0297615 0.0
-0.0406201 0.0337458 0.0
-0.0449928 0.0380427 0.0
-0.0499796 0.0426553 0.0
-0.0556585 0.047571 0.0
-0.0621168 0.0527535 0.0
-0.0694414 0.0581328 0.0
-0.0776884 0.0635919 0.0
-0.0867977 0.0689443 0.0
-0.0963789 0.0739096 0.0
-0.105227 0.0780492 0.0
-0.110342 0.0807307 0.0
-0.10525 0.0808871 0.0
-0.0776097 0.0772356 0.0
-0.00700716 0.0673534 0.0
0.135641 0.0509279 0.0
0.382663 0.0253476 0.0
0.761787 0.00466051 0.0
-0.00515429 0.000121548 0.0
-0.0122516 0.000904187 0.0
-0.0168574 0.00231731 0.0
-0.0197638 0.00396681 0.0
-0.0217316 0.00582142 0.0
-0.023314 0.00780296 0.0
-0.0248654 0.00991123 0.0
-0.0265856 0.012151 0.0
-0.0285834 0.0145421 0.0
-0.030921 0.0171059 0.0
-0.0336416 0.0198655 0.0
-0.0367829 0.0228423 0.0
-0.0403835 0.0260552 0.0
-0.0444863 0.0295178 0.0
-0.0491391 0.0332363 0.0
-0.0543952 0.0372054 0.0
-0.0603124 0.0414031 0.0
-0.0669497 0.0457845 0.0
-0.0743543 0.0502727 0.0
-0.0825276 0.0547479 0.0
-0.0913334 0.0590304 0.0
-0.100271 0.0628624 0.0
-0.107973 0.065858 0.0
-0.111189 0.0674818 0.0
-0.103101 0.0668527 0.0
-0.0709944 0.0629774 0.0
0.00558043 0.0539471 0.0
0.154334 0.039899 0.0
0.404061 0.0191298 0.0
0.773902 0.00308447 0.0
-0.00561173 0.00010411 0.0
-0.0132971 0.000769494 0.0
-0.0182648 0.00196781 0.0
-0.021391 0.00336442 0.0
-0.023506 0.00493373 0.0
-0.0252081 0.00661031 0.0
-0.0268783 0.00839484 0.0
-0.02873 0.0102919 0.0
-0.0308779 0.0123187 0.0
-0.0333861 0.0144934 0.0
-0.0362972 0.0168353 0.0
-0.0396466 0.0193619 0.0
-0.0434691 0.0220878 0.0
-0.0478009 0.0250227 0.0
-0.0526801 0.0281688 0.0
-0.0581462 0.0315172 0.0
-0.0642376 0.0350436 0.0
-0.0709867 0.0387025 0.0
-0.0784053 0.0424196 0.0
-0.0864476 0.0460836 0.0
-0.0949136 0.049532 0.0
-0.103214 0.0525384 0.0
-0.109848 0.0547713 0.0
-0.111374 0.0557811 0.0
-0.10071 0.0548402 0.0
-0.0648892 0.0511579 0.0
0.0164244 0.0432674 0.0
0.169793 0.0314364 0.0
0.421052 0.0146261 0.0
0.782956 0.0021108 0.0
-0.00599314 8.53366e-05 0.0
-0.0141653 0.000624497 0.0
-0.0194308 0.00159186 0.0
-0.0227378 0.00271704 0.0
-0.0249742 0.00398066 0.0
-0.026776 0.00533127 0.0
-0.0285463 0.00677075 0.0
-0.0305094 0.00830395 0.0
-0.0327846 0.00994572 0.0
-0.0354374 0.0117117 0.0
-0.0385098 0.0136182 0.0
-0.0420351 0.0156803 0.0
-0.0460441 0.0179104 0.0
-0.0505672 0.0203166 0.0
-0.0556335 0.0229007 0.0
-0.0612701 0.0256549 0.0
-0.067498 0.0285581 0.0
-0.0743264 0.0315706 0.0
-0.0817363 0.0346287 0.0
-0.089642 0.0376367 0.0
-0.0977901 0.0404562 0.0
-0.105518 0.042895 0.0
-0.111217 0.044673 0.0
-0.11129 0.0454113 0.0
-0.098448 0.0445042 0.0
-0.0595574 0.0412978 0.0
0.0255622 0.0346615 0.0
0.182478 0.0248566 0.0
0.434566 0.0113047 0.0
0.789838 0.00149556 0.0
-0.0062933 6.53051e-05 0.0
-0.0148442 0.00047058 0.0
-0.0203398 0.00119351 0.0
-0.0237863 0.00203194 0.0
-0.0261175 0.00297308 0.0
-0.0279988 0.00398041 0.0
-0.0298503 0.00505724 0.0
-0.0319048 0.00620897 0.0
-0.0342853 0.00744849 0.0
-0.0370583 0.00878937 0.0
-0.0402655 0.0102459 0.0
-0.0439385 0.0118317 0.0
-0.0481052 0.0135587 0.0
-0.052791 0.0154359 0.0
-0.0580183 0.0174675 0.0
-0.0638035 0.0196509 0.0
-0.0701535 0.0219725 0.0
-0.0770579 0.0244046 0.0
-0.0844723 0.0268992 0.0
-0.092277 0.0293822 0.0
-0.100174 0.0317432 0.0
-0.107437 0.0338248 0.0
-0.112366 0.0353929 0.0
-0.111231 0.0361238 0.0
-0.096575 0.0355026 0.0
-0.0551466 0.032965 0.0
0.033072 0.0276102 0.0
0.192779 0.0196487 0.0
0.445308 0.00879729 0.0
0.795139 0.00109276 0.0
-0.00650769 4.41569e-05 0.0
-0.015324 0.000309233 0.0
-0.020979 0.00077685 0.0
-0.0245221 0.00131624 0.0
-0.0269205 0.00192145 0.0
-0.0288606 0.00257159 0.0
-0.0307744 0.00327146 0.0
-0.0329004 0.00402722 0.0
-0.0353646 0.00484997 0.0
-0.0382345 0.00575158 0.0
-0.0415518 0.00674493 0.0
-0.0453475 0.00784309 0.0
-0.0496479 0.00905884 0.0
-0.0544757 0.0104039 0.0
-0.0598484 0.0118876 0.0
-0.065775 0.0135153 0.0
-0.0722519 0.0152854 0.0
-0.0792536 0.0171862 0.0
-0.0867149 0.0191909 0.0
-0.0944879 0.0212516 0.0
-0.102235 0.023289 0.0
-0.109173 0.0251804 0.0
-0.113519 0.026732 0.0
-0.11142 0.027661 0.0
-0.0952748 0.0275148 0.0
-0.0517402 0.0257809 0.0
0.0390407 0.0217067 0.0
0.201013 0.0154312 0.0
0.453806 0.00684968 0.0
0.799249 0.00081574 0.0
-0.00663262 2.20753e-05 0.0
-0.0155968 0.000142071 0.0
-0.0213382 0.000346136 0.0
-0.024934 0.000577259 0.0
-0.0273714 0.000836408 0.0
-0.029349 0.00111873 0.0
-0.0313056 0.00143046 0.0
-0.0334831 0.00177853 0.0
-0.0360094 0.00217223 0.0
-0.038953 0.00262188 0.0
-0.0423567 0.00313923 0.0
-0.0462522 0.0037374 0.0
-0.0506658 0.00443087 0.0
-0.0556197 0.00523526 0.0
-0.0611296 0.00616705 0.0
-0.0672013 0.00724222 0.0
-0.0738245 0.00847429 0.0
-0.0809638 0.00987185 0.0
-0.0885384 0.0114339 0.0
-0.0963765 0.0131434 0.0
-0.104105 0.0149559 0.0
-0.110885 0.0167845 0.0
-0.114851 0.0184709 0.0
-0.11203 0.0197608 0.0
-0.0946856 0.020239 0.0
-0.0493937 0.0194135 0.0
0.0435485 0.0166183 0.0
0.207426 0.0119078 0.0
0.460449 0.00527951 0.0
0.802429 0.000611918 0.0
-0.00666524 -7.19919e-07 0.0
-0.0156571 -2.9177e-05 0.0
-0.0214103 -9.41564e-05 0.0
-0.0250137 -0.00017738 0.0
-0.0274613 -0.000271013 0.0
-0.0294546 -0.000363783 0.0
-0.0314338 -0.000448254 0.0
-0.0336418 -0.000516963 0.0
-0.0362075 -0.000562621 0.0
-0.0392009 -0.000576603 0.0
-0.0426666 -0.000548341 0.0
-0.0466384 -0.000464543 0.0
-0.051145 -0.000308632 0.0
-0.056211 -6.02607e-05 0.0
-0.0618548 0.000304996 0.0
-0.068082 0.000815414 0.0
-0.0748816 0.00150247 0.0
-0.0822139 0.00239879 0.0
-0.0899879 0.00353405 0.0
-0.0980124 0.00492761 0.0
-0.105879 0.00657522 0.0
-0.112693 0.0084294 0.0
-0.116499 0.0103662 0.0
-0.113202 0.0121486 0.0
-0.0949236 0.0133776 0.0
-0.0481594 0.0135532 0.0
0.046647 0.012051 0.0
0.212196 0.00883157 0.0
0.465504 0.00394728 0.0
0.804848 0.000447755 0.0
-0.00660385 -2.40287e-05 0.0
-0.0155014 -0.000202845 0.0
-0.021191 -0.000539486 0.0
-0.0247566 -0.000939655 0.0
-0.0271851 -0.00138901 0.0
-0.0291715 -0.00186049 0.0
-0.0311522 -0.00234588 0.0
-0.0333685 -0.00283758 0.0
-0.0359495 -0.00333073 0.0
-0.038967 -0.00381887 0.0
-0.0424684 -0.00429307 0.0
-0.0464914 -0.00474032 0.0
-0.0510695 -0.00514235 0.0
-0.0562326 -0.00547427 0.0
-0.0620045 -0.00570358 0.0
-0.0683979 -0.00578876 0.0
-0.0754071 -0.00567852 0.0
-0.0829948 -0.00531277 0.0
-0.091067 -0.00462584 0.0
-0.0994186 -0.00355435 0.0
-0.107609 -0.00205352 0.0
-0.114682 -0.000124818 0.0
-0.118577 0.00214151 0.0
-0.115053 0.0045193 0.0
-0.0960861 0.00661396 0.0
-0.0480941 0.00788791 0.0
0.0483446 0.00772071 0.0
0.215416 0.0059725 0.0
0.46913 0.00273112 0.0
0.806599 0.000298434 0.0
-0.00644732 -4.76133e-05 0.0
-0.0151283 -0.000377013 0.0
-0.0206793 -0.000984762 0.0
-0.0241618 -0.00170076 0.0
-0.0265413 -0.00250477 0.0
-0.0284973 -0.00335465 0.0
-0.0304567 -0.00424197 0.0
-0.0326568 -0.00515962 0.0
-0.0352261 -0.00610582 0.0
-0.0382384 -0.00707707 0.0
-0.041745 -0.00806703 0.0
-0.0457889 -0.0090641 0.0
-0.0504108 -0.0100496 0.0
-0.0556495 -0.0109953 0.0
-0.0615397 -0.0118615 0.0
-0.0681064 -0.0125935 0.0
-0.075357 -0.0131197 0.0
-0.0832661 -0.0133502 0.0
-0.0917463 -0.0131781 0.0
-0.100586 -0.0124872 0.0
-0.109311 -0.0111715 0.0
-0.116893 -0.00917199 0.0
-0.121151 -0.00653461 0.0
-0.117689 -0.00347363 0.0
-0.0983042 -0.00041421 0.0
-0.0492757 0.00205041 0.0
0.0486308 0.00330167 0.0
0.217121 0.00308486 0.0
0.471381 0.00151129 0.0
0.807706 0.000143242 0.0
-0.00619595 -7.11582e-05 0.0
-0.0145396 -0.000549364 0.0
-0.019878 -0.00142418 0.0
-0.0232324 -0.00245098 0.0
-0.0255327 -0.00360437 0.0
-0.0274336 -0.00482805 0.0
-0.0293473 -0.00611414 0.0
-0.0315043 -0.0074568 0.0
-0.0340317 -0.00885826 0.0
-0.0370053 -0.0103191 0.0
-0.0404808 -0.0118369 0.0
-0.0445081 -0.0134033 0.0
-0.0491374 -0.0150013 0.0
-0.0544197 -0.0166018 0.0
-0.0604053 -0.0181603 0.0
-0.0671386 -0.0196115 0.0
-0.0746494 -0.0208648 0.0
-0.0829358 -0.0218 0.0
-0.09193 -0.0222653 0.0
-0.101426 -0.0220832 0.0
-0.110927 -0.0210707 0.0
-0.119324 -0.0190848 0.0
-0.124284 -0.0160975 0.0
-0.121186 -0.0122965 0.0
-0.10162 -0.00814726 0.0
-0.0518249 -0.00434692 0.0
0.0473365 -0.00155913 0.0
0.217174 -0.000153642 0.0
0.472199 0.000111445 0.0
0.808147 -4.80931e-05 0.0
-0.00585126 -9.43258e-05 0.0
-0.0137395 -0.000717383 0.0
-0.0187933 -0.00185137 0.0
-0.0219757 -0.00317961 0.0
-0.0241665 -0.0046723 0.0
-0.0259866 -0.00626028 0.0
-0.0278282 -0.00793699 0.0
-0.0299124 -0.00969883 0.0
-0.0323637 -0.0115531 0.0
-0.0352595 -0.0135057 0.0
-0.0386603 -0.0155604 0.0
-0.0426239 -0.0177143 0.0
-0.0472115 -0.019955 0.0
-0.0524895 -0.0222567 0.0
-0.0585287 -0.0245743 0.0
-0.0654001 -0.0268369 0.0
-0.0731664 -0.0289395 0.0
-0.0818634 -0.0307343 0.0
-0.0914611 -0.0320238 0.0
-0.101779 -0.0325623 0.0
-0.112311 -0.0320734 0.0
-0.121872 -0.0303025 0.0
-0.127951 -0.0271092 0.0
-0.12565 -0.0226098 0.0
-0.106257 -0.0172644 0.0
-0.0558586 -0.0119081 0.0
0.0444559 -0.0073255 0.0
0.215469 -0.00406723 0.0
0.471276 -0.0016378 0.0
0.807718 -0.000311739 0.0
-0.00541619 -0.000116786 0.0
-0.0127359 -0.000878341 0.0
-0.0174361 -0.00225929 0.0
-0.0204038 -0.00387465 0.0
-0.022455 -0.00569108 0.0
-0.0241678 -0.00762808 0.0
-0.0259091 -0.00968122 0.0
-0.027888 -0.0118501 0.0
-0.0302247 -0.0141482 0.0
-0.0329977 -0.0165886 0.0
-0.0362719 -0.019183 0.0
-0.0401129 -0.0219372 0.0
-0.0445941 -0.0248476 0.0
-0.0497992 -0.0278968 0.0
-0.0558234 -0.0310461 0.0
-0.0627711 -0.034227 0.0
-0.0707493 -0.0373288 0.0
-0.0798482 -0.0401847 0.0
-0.0900988 -0.042557 0.0
-0.101375 -0.0441295 0.0
-0.113188 -0.0445186 0.0
-0.124294 -0.0433262 0.0
-0.131992 -0.0402481 0.0
-0.131048 -0.0352605 0.0
-0.112349 -0.0287479 0.0
-0.0617339 -0.0216356 0.0
0.0395144 -0.0148098 0.0
0.211583 -0.00918837 0.0
0.468278 -0.0039901 0.0
0.806208 -0.000703356 0.0
-0.00489526 -0.000138212 0.0
-0.0115401 -0.00102911 0.0
-0.0158219 -0.00263964 0.0
-0.0185347 -0.0045219 0.0
-0.0204168 -0.00663992 0.0
-0.0219953 -0.00890359 0.0
-0.0236068 -0.0113113 0.0
-0.0254453 -0.0138669 0.0
-0.0276253 -0.016591 0.0
-0.0302246 -0.0195052 0.0
-0.0333117 -0.0226317 0.0
-0.0369589 -0.0259882 0.0
-0.0412512 -0.0295848 0.0
-0.0462899 -0.0334191 0.0
-0.0521968 -0.0374681 0.0
-0.059115 -0.0416772 0.0
-0.0672054 -0.0459451 0.0
-0.0766309 -0.0501021 0.0
-0.0875113 -0.0538865 0.0
-0.0998127 -0.056922 0.0
-0.113113 -0.0587143 0.0
-0.126146 -0.0586943 0.0
-0.136035 -0.056332 0.0
-0.13717 -0.0513615 0.0
-0.119929 -0.0439546 0.0
-0.0697584 -0.0350005 0.0
0.0319849 -0.0253717 0.0
0.204832 -0.0165756 0.0
0.462448 -0.00750025 0.0
0.803131 -0.00134364 0.0
-0.00429454 -0.000158266 0.0
-0.0101678 -0.00116571 0.0
-0.0139722 -0.00298164 0.0
-0.0163928 -0.00510284 0.0
-0.0180775 -0.00749168 0.0
-0.0194949 -0.0100504 0.0
-0.0209464 -0.0127808 0.0
-0.0226081 -0.0156913 0.0
-0.0245864 -0.0188105 0.0
-0.0269567 -0.0221699 0.0
-0.0297886 -0.025804 0.0
-0.0331592 -0.0297456 0.0
-0.0371622 -0.0340236 0.0
-0.0419146 -0.0386578 0.0
-0.0475632 -0.0436517 0.0
-0.054291 -0.0489807 0.0
-0.0623198 -0.0545735 0.0
-0.0719005 -0.0602852 0.0
-0.0832709 -0.0658615 0.0
-0.0965376 -0.0708984 0.0
-0.111409 -0.0748123 0.0
-0.126675 -0.0768573 0.0
-0.139345 -0.0762226 0.0
-0.143451 -0.0722684 0.0
-0.128791 -0.0647369 0.0
-0.0802639 -0.0541982 0.0
0.0210237 -0.0411824 0.0
0.194013 -0.0279649 0.0
0.452413 -0.0131543 0.0
0.797567 -0.00247703 0.0
-0.00362303 -0.000176256 0.0
-0.00864196 -0.00128169 0.0
-0.0119177 -0.00326853 0.0
-0.0140132 -0.00558943 0.0
-0.0154745 -0.00820591 0.0
-0.0167052 -0.0110148 0.0
-0.0179673 -0.0140211 0.0
-0.0194162 -0.017238 0.0
-0.0211475 -0.0207021 0.0
-0.0232319 -0.0244554 0.0
-0.0257369 -0.0285455 0.0
-0.0287402 -0.0330231 0.0
-0.0323397 -0.0379395 0.0
-0.0366622 -0.043344 0.0
-0.0418738 -0.0492776 0.0
-0.0481924 -0.055763 0.0
-0.0558987 -0.0627857 0.0
-0.0653384 -0.0702645 0.0
-0.0768907 -0.0780054 0.0
-0.0908514 -0.0856403 0.0
-0.107143 -0.0925626 0.0
-0.124727 -0.0978939 0.0
-0.140637 -0.100528 0.0
-0.14867 -0.0993181 0.0
-0.138101 -0.0932904 0.0
-0.0931839 -0.0821668 0.0
0.00569028 -0.065594 0.0
0.177365 -0.0461494 0.0
0.435968 -0.0226865 0.0
0.787878 -0.00459376 0.0
-0.00289258 -0.000190731 0.0
-0.0069933 -0.00136562 0.0
-0.00969941 -0.00347184 0.0
-0.011442 -0.00593505 0.0
-0.0126566 -0.00871627 0.0
-0.0136774 -0.0117093 0.0
-0.0147232 -0.0149213 0.0
-0.015926 -0.0183698 0.0
-0.0173682 -0.0220983 0.0
-0.0191122 -0.0261583 0.0
-0.0212197 -0.0306108 0.0
-0.0237638 -0.035524 0.0
-0.0268395 -0.0409738 0.0
-0.030574 -0.0470428 0.0
-0.0351408 -0.053818 0.0
-0.0407781 -0.0613848 0.0
-0.047811 -0.0698135 0.0
-0.05667 -0.0791322 0.0
-0.0678792 -0.0892789 0.0
-0.0819581 -0.100024 0.0
-0.0991284 -0.110868 0.0
-0.118684 -0.12093 0.0
-0.13792 -0.128887 0.0
-0.150704 -0.133018 0.0
-0.146096 -0.131325 0.0
-0.107834 -0.121934 0.0
-0.0152696 -0.102884 0.0
0.151812 -0.0752798 0.0
0.409085 -0.0391322 0.0
0.770723 -0.00873593 0.0
-0.00212727 -0.000197327 0.0
-0.00527645 -0.00139441 0.0
-0.00738751 -0.00353996 0.0
-0.00875771 -0.00605811 0.0
-0.00970827 -0.00890873 0.0
-0.0105015 -0.0119848 0.0
-0.011311 -0.0152937 0.0
-0.0122428 -0.0188557 0.0
-0.0133635 -0.0227187 0.0
-0.0147242 -0.0269415 0.0
-0.0163766 -0.0315956 0.0
-0.0183834 -0.0367642 0.0
-0.0208281 -0.0425447 0.0
-0.0238264 -0.0490517 0.0
-0.0275414 -0.0564189 0.0
-0.0322078 -0.0648017 0.0
-0.0381634 -0.0743734 0.0
-0.0458858 -0.0853125 0.0
-0.0560103 -0.0977672 0.0
-0.0692702 -0.111781 0.0
-0.0862382 -0.127159 0.0
-0.106702 -0.143277 0.0
-0.128543 -0.15884 0.0
-0.146213 -0.171676 0.0
-0.149216 -0.178578 0.0
-0.121326 -0.175355 0.0
-0.0408708 -0.157163 0.0
0.115367 -0.121019 0.0
0.367441 -0.0675613 0.0
0.74108 -0.0170154 0.0
-0.00135892 -0.000188636 0.0
-0.00356109 -0.00133149 0.0
-0.00506881 -0.00339234 0.0
-0.00605471 -0.00583082 0.0
-0.00672928 -0.0086034 0.0