# vtk DataFile Version 3.0
Malha 2D com triângulos e temperatura
ASCII
DATASET UNSTRUCTURED_GRID

POINTS 961 double
0 0 0
1 0 0
1 1 0
0 1 0
0.0333333 0 0
0.0666667 0 0
0.1 0 0
0.133333 0 0
0.166667 0 0
0.2 0 0
0.233333 0 0
0.266667 0 0
0.3 0 0
0.333333 0 0
0.366667 0 0
0.4 0 0
0.433333 0 0
0.466667 0 0
0.5 0 0
0.533333 0 0
0.566667 0 0
0.6 0 0
0.633333 0 0
0.666667 0 0
0.7 0 0
0.733333 0 0
0.766667 0 0
0.8 0 0
0.833333 0 0
0.866667 0 0
0.9 0 0
0.933333 0 0
0.966667 0 0
1 0.0333333 0
1 0.0666667 0
1 0.1 0
1 0.133333 0
1 0.166667 0
1 0.2 0
1 0.233333 0
1 0.266667 0
1 0.3 0
1 0.333333 0
1 0.366667 0
1 0.4 0
1 0.433333 0
1 0.466667 0
1 0.5 0
1 0.533333 0
1 0.566667 0
1 0.6 0
1 0.633333 0
1 0.666667 0
1 0.7 0
1 0.733333 0
1 0.766667 0
1 0.8 0
1 0.833333 0
1 0.866667 0
1 0.9 0
1 0.933333 0
1 0.966667 0
0.966667 1 0
0.933333 1 0
0.9 1 0
0.866667 1 0
0.833333 1 0
0.8 1 0
0.766667 1 0
0.733333 1 0
0.7 1 0
0.666667 1 0
0.633333 1 0
0.6 1 0
0.566667 1 0
0.533333 1 0
0.5 1 0
0.466667 1 0
0.433333 1 0
0.4 1 0
0.366667 1 0
0.333333 1 0
0.3 1 0
0.266667 1 0
0.233333 1 0
0.2 1 0
0.166667 1 0
0.133333 1 0
0.1 1 0
0.0666667 1 0
0.0333333 1 0
0 0.966667 0
0 0.933333 0
0 0.9 0
0 0.866667 0
0 0.833333 0
0 0.8 0
0 0.766667 0
0 0.733333 0
0 0.7 0
0 0.666667 0
0 0.633333 0
0 0.6 0
0 0.566667 0
0 0.533333 0
0 0.5 0
0 0.466667 0
0 0.433333 0
0 0.4 0
0 0.366667 0
0 0.333333 0
0 0.3 0
0 0.266667 0
0 0.233333 0
0 0.2 0
0 0.166667 0
0 0.133333 0
0 0.1 0
0 0.0666667 0
0 0.0333333 0
0.0333333 0.0333333 0
0.0333333 0.0666667 0
0.0333333 0.1 0
0.0333333 0.133333 0
0.0333333 0.166667 0
0.0333333 0.2 0
0.0333333 0.233333 0
0.0333333 0.266667 0
0.0333333 0.3 0
0.0333333 0.333333 0
0.0333333 0.366667 0
0.0333333 0.4 0
0.0333333 0.433333 0
0.0333333 0.466667 0
0.0333333 0.5 0
0.0333333 0.533333 0
0.0333333 0.566667 0
0.0333333 0.6 0
0.0333333 0.633333 0
0.0333333 0.666667 0
0.0333333 0.7 0
0.0333333 0.733333 0
0.0333333 0.766667 0
0.0333333 0.8 0
0.0333333 0.833333 0
0.0333333 0.866667 0
0.0333333 0.9 0
0.0333333 0.933333 0
0.0333333 0.966667 0
0.0666667 0.0333333 0
0.0666667 0.0666667 0
0.0666667 0.1 0
0.0666667 0.133333 0
0.0666667 0.166667 0
0.0666667 0.2 0
0.0666667 0.233333 0
0.0666667 0.266667 0
0.0666667 0.3 0
0.0666667 0.333333 0
0.0666667 0.366667 0
0.0666667 0.4 0
0.0666667 0.433333 0
0.0666667 0.466667 0
0.0666667 0.5 0
0.0666667 0.533333 0
0.0666667 0.566667 0
0.0666667 0.6 0
0.0666667 0.633333 0
0.0666667 0.666667 0
0.0666667 0.7 0
0.0666667 0.733333 0
0.0666667 0.766667 0
0.0666667 0.8 0
0.0666667 0.833333 0
0.0666667 0.866667 0
0.0666667 0.9 0
0.0666667 0.933333 0
0.0666667 0.966667 0
0.1 0.0333333 0
0.1 0.0666667 0
0.1 0.1 0
0.1 0.133333 0
0.1 0.166667 0
0.1 0.2 0
0.1 0.233333 0
0.1 0.266667 0
0.1 0.3 0
0.1 0.333333 0
0.1 0.366667 0
0.1 0.4 0
0.1 0.433333 0
0.1 0.466667 0
0.1 0.5 0
0.1 0.533333 0
0.1 0.566667 0
0.1 0.6 0
0.1 0.633333 0
0.1 0.666667 0
0.1 0.7 0
0.1 0.733333 0
0.1 0.766667 0
0.1 0.8 0
0.1 0.833333 0
0.1 0.866667 0
0.1 0.9 0
0.1 0.933333 0
0.1 0.966667 0
0.133333 0.0333333 0
0.133333 0.0666667 0
0.133333 0.1 0
0.133333 0.133333 0
0.133333 0.166667 0
0.133333 0.2 0
0.133333 0.233333 0
0.133333 0.266667 0
0.133333 0.3 0
0.133333 0.333333 0
0.133333 0.366667 0
0.133333 0.4 0
0.133333 0.433333 0
0.133333 0.466667 0
0.133333 0.5 0
0.133333 0.533333 0
0.133333 0.566667 0
0.133333 0.6 0
0.133333 0.633333 0
0.133333 0.666667 0
0.133333 0.7 0
0.133333 0.733333 0
0.133333 0.766667 0
0.133333 0.8 0
0.133333 0.833333 0
0.133333 0.866667 0
0.133333 0.9 0
0.133333 0.933333 0
0.133333 0.966667 0
0.166667 0.0333333 0
0.166667 0.0666667 0
0.166667 0.1 0
0.166667 0.133333 0
0.166667 0.166667 0
0.166667 0.2 0
0.166667 0.233333 0
0.166667 0.266667 0
0.166667 0.3 0
0.166667 0.333333 0
0.166667 0.366667 0
0.166667 0.4 0
0.166667 0.433333 0
0.166667 0.466667 0
0.166667 0.5 0
0.166667 0.533333 0
0.166667 0.566667 0
0.166667 0.6 0
0.166667 0.633333 0
0.166667 0.666667 0
0.166667 0.7 0
0.166667 0.733333 0
0.166667 0.766667 0
0.166667 0.8 0
0.166667 0.833333 0
0.166667 0.866667 0
0.166667 0.9 0
0.166667 0.933333 0
0.166667 0.966667 0
0.2 0.0333333 0
0.2 0.0666667 0
0.2 0.1 0
0.2 0.133333 0
0.2 0.166667 0
0.2 0.2 0
0.2 0.233333 0
0.2 0.266667 0
0.2 0.3 0
0.2 0.333333 0
0.2 0.366667 0
0.2 0.4 0
0.2 0.433333 0
0.2 0.466667 0
0.2 0.5 0
0.2 0.533333 0
0.2 0.566667 0
0.2 0.6 0
0.2 0.633333 0
0.2 0.666667 0
0.2 0.7 0
0.2 0.733333 0
0.2 0.766667 0
0.2 0.8 0
0.2 0.833333 0
0.2 0.866667 0
0.2 0.9 0
0.2 0.933333 0
0.2 0.966667 0
0.233333 0.0333333 0
0.233333 0.0666667 0
0.233333 0.1 0
0.233333 0.133333 0
0.233333 0.166667 0
0.233333 0.2 0
0.233333 0.233333 0
0.233333 0.266667 0
0.233333 0.3 0
0.233333 0.333333 0
0.233333 0.366667 0
0.233333 0.4 0
0.233333 0.433333 0
0.233333 0.466667 0
0.233333 0.5 0
0.233333 0.533333 0
0.233333 0.566667 0
0.233333 0.6 0
0.233333 0.633333 0
0.233333 0.666667 0
0.233333 0.7 0
0.233333 0.733333 0
0.233333 0.766667 0
0.233333 0.8 0
0.233333 0.833333 0
0.233333 0.866667 0
0.233333 0.9 0
0.233333 0.933333 0
0.233333 0.966667 0
0.266667 0.0333333 0
0.266667 0.0666667 0
0.266667 0.1 0
0.266667 0.133333 0
0.266667 0.166667 0
0.266667 0.2 0
0.266667 0.233333 0
0.266667 0.266667 0
0.266667 0.3 0
0.266667 0.333333 0
0.266667 0.366667 0
0.266667 0.4 0
0.266667 0.433333 0
0.266667 0.466667 0
0.266667 0.5 0
0.266667 0.533333 0
0.266667 0.566667 0
0.266667 0.6 0
0.266667 0.633333 0
0.266667 0.666667 0
0.266667 0.7 0
0.266667 0.733333 0
0.266667 0.766667 0
0.266667 0.8 0
0.266667 0.833333 0
0.266667 0.866667 0
0.266667 0.9 0
0.266667 0.933333 0
0.266667 0.966667 0
0.3 0.0333333 0
0.3 0.0666667 0
0.3 0.1 0
0.3 0.133333 0
0.3 0.166667 0
0.3 0.2 0
0.3 0.233333 0
0.3 0.266667 0
0.3 0.3 0
0.3 0.333333 0
0.3 0.366667 0
0.3 0.4 0
0.3 0.433333 0
0.3 0.466667 0
0.3 0.5 0
0.3 0.533333 0
0.3 0.566667 0
0.3 0.6 0
0.3 0.633333 0
0.3 0.666667 0
0.3 0.7 0
0.3 0.733333 0
0.3 0.766667 0
0.3 0.8 0
0.3 0.833333 0
0.3 0.866667 0
0.3 0.9 0
0.3 0.933333 0
0.3 0.966667 0
0.333333 0.0333333 0
0.333333 0.0666667 0
0.333333 0.1 0
0.333333 0.133333 0
0.333333 0.166667 0
0.333333 0.2 0
0.333333 0.233333 0
0.333333 0.266667 0
0.333333 0.3 0
0.333333 0.333333 0
0.333333 0.366667 0
0.333333 0.4 0
0.333333 0.433333 0
0.333333 0.466667 0
0.333333 0.5 0
0.333333 0.533333 0
0.333333 0.566667 0
0.333333 0.6 0
0.333333 0.633333 0
0.333333 0.666667 0
0.333333 0.7 0
0.333333 0.733333 0
0.333333 0.766667 0
0.333333 0.8 0
0.333333 0.833333 0
0.333333 0.866667 0
0.333333 0.9 0
0.333333 0.933333 0
0.333333 0.966667 0
0.366667 0.0333333 0
0.366667 0.0666667 0
0.366667 0.1 0
0.366667 0.133333 0
0.366667 0.166667 0
0.366667 0.2 0
0.366667 0.233333 0
0.366667 0.266667 0
0.366667 0.3 0
0.366667 0.333333 0
0.366667 0.366667 0
0.366667 0.4 0
0.366667 0.433333 0
0.366667 0.466667 0
0.366667 0.5 0
0.366667 0.533333 0
0.366667 0.566667 0
0.366667 0.6 0
0.366667 0.633333 0
0.366667 0.666667 0
0.366667 0.7 0
0.366667 0.733333 0
0.366667 0.766667 0
0.366667 0.8 0
0.366667 0.833333 0
0.366667 0.866667 0
0.366667 0.9 0
0.366667 0.933333 0
0.366667 0.966667 0
0.4 0.0333333 0
0.4 0.0666667 0
0.4 0.1 0
0.4 0.133333 0
0.4 0.166667 0
0.4 0.2 0
0.4 0.233333 0
0.4 0.266667 0
0.4 0.3 0
0.4 0.333333 0
0.4 0.366667 0
0.4 0.4 0
0.4 0.433333 0
0.4 0.466667 0
0.4 0.5 0
0.4 0.533333 0
0.4 0.566667 0
0.4 0.6 0
0.4 0.633333 0
0.4 0.666667 0
0.4 0.7 0
0.4 0.733333 0
0.4 0.766667 0
0.4 0.8 0
0.4 0.833333 0
0.4 0.866667 0
0.4 0.9 0
0.4 0.933333 0
0.4 0.966667 0
0.433333 0.0333333 0
0.433333 0.0666667 0
0.433333 0.1 0
0.433333 0.133333 0
0.433333 0.166667 0
0.433333 0.2 0
0.433333 0.233333 0
0.433333 0.266667 0
0.433333 0.3 0
0.433333 0.333333 0
0.433333 0.366667 0
0.433333 0.4 0
0.433333 0.433333 0
0.433333 0.466667 0
0.433333 0.5 0
0.433333 0.533333 0
0.433333 0.566667 0
0.433333 0.6 0
0.433333 0.633333 0
0.433333 0.666667 0
0.433333 0.7 0
0.433333 0.733333 0
0.433333 0.766667 0
0.433333 0.8 0
0.433333 0.833333 0
0.433333 0.866667 0
0.433333 0.9 0
0.433333 0.933333 0
0.433333 0.966667 0
0.466667 0.0333333 0
0.466667 0.0666667 0
0.466667 0.1 0
0.466667 0.133333 0
0.466667 0.166667 0
0.466667 0.2 0
0.466667 0.233333 0
0.466667 0.266667 0
0.466667 0.3 0
0.466667 0.333333 0
0.466667 0.366667 0
0.466667 0.4 0
0.466667 0.433333 0
0.466667 0.466667 0
0.466667 0.5 0
0.466667 0.533333 0
0.466667 0.566667 0
0.466667 0.6 0
0.466667 0.633333 0
0.466667 0.666667 0
0.466667 0.7 0
0.466667 0.733333 0
0.466667 0.766667 0
0.466667 0.8 0
0.466667 0.833333 0
0.466667 0.866667 0
0.466667 0.9 0
0.466667 0.933333 0
0.466667 0.966667 0
0.5 0.0333333 0
0.5 0.0666667 0
0.5 0.1 0
0.5 0.133333 0
0.5 0.166667 0
0.5 0.2 0
0.5 0.233333 0
0.5 0.266667 0
0.5 0.3 0
0.5 0.333333 0
0.5 0.366667 0
0.5 0.4 0
0.5 0.433333 0
0.5 0.466667 0
0.5 0.5 0
0.5 0.533333 0
0.5 0.566667 0
0.5 0.6 0
0.5 0.633333 0
0.5 0.666667 0
0.5 0.7 0
0.5 0.733333 0
0.5 0.766667 0
0.5 0.8 0
0.5 0.833333 0
0.5 0.866667 0
0.5 0.9 0
0.5 0.933333 0
0.5 0.966667 0
0.533333 0.0333333 0
0.533333 0.0666667 0
0.533333 0.1 0
0.533333 0.133333 0
0.533333 0.166667 0
0.533333 0.2 0
0.533333 0.233333 0
0.533333 0.266667 0
0.533333 0.3 0
0.533333 0.333333 0
0.533333 0.366667 0
0.533333 0.4 0
0.533333 0.433333 0
0.533333 0.466667 0
0.533333 0.5 0
0.533333 0.533333 0
0.533333 0.566667 0
0.533333 0.6 0
0.533333 0.633333 0
0.533333 0.666667 0
0.533333 0.7 0
0.533333 0.733333 0
0.533333 0.766667 0
0.533333 0.8 0
0.533333 0.833333 0
0.533333 0.866667 0
0.533333 0.9 0
0.533333 0.933333 0
0.533333 0.966667 0
0.566667 0.0333333 0
0.566667 0.0666667 0
0.566667 0.1 0
0.566667 0.133333 0
0.566667 0.166667 0
0.566667 0.2 0
0.566667 0.233333 0
0.566667 0.266667 0
0.566667 0.3 0
0.566667 0.333333 0
0.566667 0.366667 0
0.566667 0.4 0
0.566667 0.433333 0
0.566667 0.466667 0
0.566667 0.5 0
0.566667 0.533333 0
0.566667 0.566667 0
0.566667 0.6 0
0.566667 0.633333 0
0.566667 0.666667 0
0.566667 0.7 0
0.566667 0.733333 0
0.566667 0.766667 0
0.566667 0.8 0
0.566667 0.833333 0
0.566667 0.866667 0
0.566667 0.9 0
0.566667 0.933333 0
0.566667 0.966667 0
0.6 0.0333333 0
0.6 0.0666667 0
0.6 0.1 0
0.6 0.133333 0
[...]
CELL_DATA 900
VECTORS velocity double
-6.9711e-05 6.95085e-05 0.0
-8.13347e-05 0.000222094 0.0
-8.38538e-05 0.000390183 0.0
-8.66484e-05 0.000562885 0.0
-9.04458e-05 0.000742121 0.0
-9.53506e-05 0.000930167 0.0
-0.00010145 0.00112933 0.0
-0.000108856 0.00134215 0.0
-0.000117716 0.00157139 0.0
-0.000128219 0.00182017 0.0
-0.000140609 0.00209206 0.0
-0.000155203 0.00239114 0.0
-0.00017242 0.00272227 0.0
-0.000192814 0.00309124 0.0
-0.000217139 0.00350514 0.0
-0.000246433 0.00397281 0.0
-0.000282165 0.00450555 0.0
-0.00032646 0.00511813 0.0
-0.000382491 0.0058304 0.0
-0.000455171 0.0066699 0.0
-0.000552433 0.00767615 0.0
-0.000687754 0.00890824 0.0
-0.000885444 0.0104589 0.0
-0.0011924 0.0124818 0.0
-0.00170573 0.0152497 0.0
-0.00264067 0.0192855 0.0
-0.00448492 0.0255932 0.0
-0.00802325 0.0366361 0.0
-0.0098126 0.0607686 0.0
0.084809 0.0393999 0.0
-0.000221159 7.95113e-05 0.0
-0.000257847 0.000253858 0.0
-0.000265988 0.0004457 0.0
-0.00027491 0.000642801 0.0
-0.000286963 0.000847386 0.0
-0.000302506 0.001062 0.0
-0.000321821 0.00128925 0.0
-0.000345264 0.00153198 0.0
-0.000373295 0.00179333 0.0
-0.000406502 0.00207679 0.0
-0.000445646 0.00238634 0.0
-0.00049171 0.00272653 0.0
-0.000545985 0.00310272 0.0
-0.00061018 0.00352125 0.0
-0.000686599 0.00398983 0.0
-0.000778403 0.00451794 0.0
-0.000890018 0.00511754 0.0
-0.00102779 0.00580397 0.0
-0.00120104 0.00659737 0.0
-0.00142393 0.00752477 0.0
-0.00171865 0.00862328 0.0
-0.00212143 0.00994481 0.0
-0.002694 0.0115632 0.0
-0.00354685 0.0135834 0.0
-0.0048878 0.0161511 0.0
-0.00712707 0.0194504 0.0
-0.0110839 0.0236051 0.0
-0.0179263 0.0283423 0.0
-0.0232463 0.0330216 0.0
0.0791444 0.0180864 0.0
-0.000382996 7.85148e-05 0.0
-0.000446252 0.000250823 0.0
-0.00046045 0.000440472 0.0
-0.000475916 0.000635202 0.0
-0.000496739 0.000837253 0.0
-0.000523561 0.00104911 0.0
-0.000556867 0.00127331 0.0
-0.000597257 0.0015126 0.0
-0.000645504 0.00176998 0.0
-0.000702593 0.00204879 0.0
-0.000769788 0.00235278 0.0
-0.000848716 0.00268619 0.0
-0.000941495 0.00305395 0.0
-0.00105091 0.0034618 0.0
-0.00118068 0.00391655 0.0
-0.00133584 0.00442639 0.0
-0.00152335 0.00500131 0.0
-0.00175299 0.00565363 0.0
-0.00203881 0.0063987 0.0
-0.00240146 0.00725577 0.0
-0.00287197 0.00824891 0.0
-0.00349819 0.00940757 0.0
-0.00435566 0.0107658 0.0
-0.00556619 0.0123568 0.0
-0.0073291 0.0141962 0.0
-0.00996875 0.0162341 0.0
-0.0139656 0.0182276 0.0
-0.0194181 0.0194239 0.0
-0.0183652 0.0181811 0.0
0.104376 0.00858111 0.0
-0.000540367 7.5886e-05 0.0
-0.000629445 0.00024248 0.0
-0.000649416 0.000425844 0.0
-0.000671145 0.00061403 0.0
-0.00070038 0.00080919 0.0
-0.000738008 0.00101368 0.0
-0.000784688 0.00122989 0.0
-0.000841234 0.00146039 0.0
-0.000908684 0.00170794 0.0
-0.000988356 0.00197562 0.0
-0.00108193 0.00226677 0.0
-0.00119153 0.00258518 0.0
-0.00131994 0.00293508 0.0
-0.00147072 0.00332131 0.0
-0.00164859 0.0037494 0.0
-0.00185985 0.00422572 0.0
-0.00211299 0.00475761 0.0
-0.0024197 0.00535351 0.0
-0.00279621 0.00602297 0.0
-0.00326552 0.00677637 0.0
-0.00386055 0.00762412 0.0
-0.00462899 0.00857442 0.0
-0.00564046 0.00962828 0.0
-0.00699636 0.0107687 0.0
-0.0088419 0.0119384 0.0
-0.0113729 0.0129957 0.0
-0.0147849 0.013632 0.0
-0.0186186 0.013224 0.0
-0.0139641 0.0107332 0.0
0.115399 0.00451691 0.0
-0.000691322 7.23502e-05 0.0
-0.0008052 0.00023119 0.0
-0.00083065 0.000405994 0.0
-0.000858293 0.000585312 0.0
-0.000895457 0.000771154 0.0
-0.00094325 0.000965716 0.0
-0.00100248 0.00117119 0.0
-0.00107412 0.00138991 0.0
-0.00115942 0.00162439 0.0
-0.00125996 0.00187733 0.0
-0.00137771 0.00215164 0.0
-0.00151516 0.00245051 0.0
-0.00167549 0.00277742 0.0
-0.00186277 0.00313616 0.0
-0.00208225 0.00353083 0.0
-0.0023408 0.00396586 0.0
-0.00264745 0.00444586 0.0
-0.00301429 0.0049754 0.0
-0.00345753 0.00555856 0.0
-0.00399911 0.00619795 0.0
-0.00466885 0.00689293 0.0
-0.00550714 0.00763635 0.0
-0.00656811 0.00840858 0.0
-0.00792238 0.00916719 0.0
-0.00965667 0.00982948 0.0
-0.0118615 0.010245 0.0
-0.0145565 0.0101572 0.0
-0.0170363 0.0091579 0.0
-0.0102083 0.00671963 0.0
0.121461 0.00258903 0.0
-0.000834253 6.8e-05 0.0
-0.000971604 0.000217283 0.0
-0.00100218 0.000381532 0.0
-0.00103532 0.000549937 0.0
-0.00107983 0.00072434 0.0
-0.00113702 0.00090674 0.0
-0.0012078 0.00109911 0.0
-0.00129327 0.00130354 0.0
-0.00139484 0.00152222 0.0
-0.00151423 0.00175747 0.0
-0.00165362 0.00201173 0.0
-0.00181569 0.00228757 0.0
-0.00200381 0.00258767 0.0
-0.00222222 0.00291478 0.0
-0.00247628 0.00327164 0.0
-0.00277282 0.00366081 0.0
-0.0031206 0.00408445 0.0
-0.00353092 0.00454382 0.0
-0.00401835 0.00503858 0.0
-0.00460168 0.00556555 0.0
-0.00530497 0.00611667 0.0
-0.00615847 0.00667582 0.0
-0.00719894 0.00721377 0.0
-0.00846824 0.00768065 0.0
-0.0100075 0.00799534 0.0
-0.0118402 0.00803251 0.0
-0.0138988 0.00761166 0.0
-0.0154 0.00649615 0.0
-0.00729417 0.00445263 0.0
0.125252 0.00161386 0.0
-0.000967552 6.28988e-05 0.0
-0.00112677 0.000200972 0.0
-0.00116206 0.000352845 0.0
-0.00120021 0.000508476 0.0
-0.00125141 0.000669519 0.0
-0.00131712 0.000837761 0.0
-0.00139833 0.00101494 0.0
-0.00149623 0.00120288 0.0
-0.0016123 0.00140344 0.0
-0.00174836 0.00161856 0.0
-0.00190665 0.0018502 0.0
-0.00208991 0.00210034 0.0
-0.00230151 0.00237091 0.0
-0.00254559 0.00266371 0.0
-0.00282726 0.00298025 0.0
-0.00315288 0.00332156 0.0
-0.00353029 0.00368778 0.0
-0.00396925 0.00407768 0.0
-0.0044818 0.00448783 0.0
-0.00508261 0.00491136 0.0
-0.00578921 0.00533618 0.0
-0.00662174 0.00574241 0.0
-0.00760173 0.00609882 0.0
-0.00874896 0.00635827 0.0
-0.0100746 0.00645268 0.0
-0.011566 0.00628914 0.0
-0.0131223 0.00575161 0.0
-0.0139553 0.00471335 0.0
-0.00510701 0.00308714 0.0
0.127752 0.00107544 0.0
-0.00108976 5.71161e-05 0.0
-0.001269 0.000182484 0.0
-0.00130856 0.000320339 0.0
-0.00135119 0.000461527 0.0
-0.00140836 0.000607502 0.0
-0.00148165 0.000759826 0.0
-0.0015721 0.000920002 0.0
-0.00168093 0.00108957 0.0
-0.00180966 0.00127009 0.0
-0.00196012 0.00146312 0.0
-0.00213454 0.00167018 0.0
-0.00233558 0.00189271 0.0
-0.00256645 0.002132 0.0
-0.00283101 0.00238903 0.0
-0.00313388 0.00266435 0.0
-0.0034806 0.00295779 0.0
-0.00387779 0.00326807 0.0
-0.00433328 0.00359231 0.0
-0.00485624 0.00392522 0.0
-0.00545711 0.00425814 0.0
-0.0061473 0.00457754 0.0
-0.00693832 0.0048633 0.0
-0.00784 0.00508653 0.0
-0.00885715 0.00520735 0.0
-0.00998371 0.00517335 0.0
-0.0111907 0.00492019 0.0
-0.0123708 0.00437759 0.0
-0.0127551 0.00348236 0.0
-0.00346687 0.00221273 0.0
0.129485 0.000751742 0.0
-0.00119957 5.07278e-05 0.0
-0.00139678 0.000162062 0.0
-0.0014401 0.00028445 0.0
-0.00148667 0.000409726 0.0
-0.00154906 0.000539141 0.0
-0.00162895 0.000674032 0.0
-0.0017274 0.000815664 0.0
-0.00184564 0.000965315 0.0
-0.00198517 0.00112425 0.0
-0.0021478 0.00129368 0.0
-0.00233565 0.00147474 0.0
-0.00255123 0.00166842 0.0
-0.0027975 0.00187547 0.0
-0.00307787 0.00209628 0.0
-0.00339635 0.00233066 0.0
-0.00375752 0.00257765 0.0
-0.00416662 0.0028351 0.0
-0.0046295 0.00309923 0.0
-0.00515254 0.003364 0.0
-0.00574234 0.0036203 0.0
-0.00640515 0.00385497 0.0
-0.00714582 0.00404971 0.0
-0.00796597 0.00417996 0.0
-0.00886121 0.00421419 0.0
-0.00981676 0.00411417 0.0
-0.0107987 0.00383738 0.0
-0.0117043 0.00334317 0.0
-0.0117878 0.00260274 0.0
-0.00223188 0.0016206 0.0
0.13073 0.000542018 0.0
-0.00129583 4.38135e-05 0.0
-0.00150877 0.000139964 0.0
-0.00155534 0.00024563 0.0
-0.00160528 0.000353731 0.0
-0.00167212 0.000465316 0.0
-0.00175761 0.000581498 0.0
-0.00186282 0.000703313 0.0
-0.00198897 0.000831793 0.0
-0.0021375 0.000967929 0.0
-0.00231015 0.00111264 0.0
-0.0025089 0.00126675 0.0
-0.00273607 0.00143087 0.0
-0.00299427 0.00160536 0.0
-0.00328646 0.00179017 0.0
-0.00361595 0.0019847 0.0
-0.00398635 0.00218752 0.0
-0.00440154 0.00239609 0.0
-0.00486553 0.00260639 0.0
-0.00538222 0.00281238 0.0
-0.00595501 0.00300552 0.0
-0.00658613 0.00317406 0.0
-0.0072756 0.00330248 0.0
-0.00801973 0.00337111 0.0
-0.00880898 0.00335618 0.0
-0.00962506 0.00323089 0.0
-0.0104345 0.00296803 0.0
-0.0111425 0.0025451 0.0
-0.0110233 0.00195089 0.0
-0.00130023 0.00119832 0.0
0.131642 0.000396947 0.0
-0.00137755 3.64547e-05 0.0
-0.00160382 0.000116449 0.0
-0.00165312 0.000204337 0.0
-0.00170586 0.000294207 0.0
-0.00177637 0.000386908 0.0
-0.00186649 0.000483335 0.0
-0.00197725 0.000584309 0.0
-0.00210983 0.000690634 0.0
-0.00226565 0.000803066 0.0
-0.0024463 0.000922278 0.0
-0.00265366 0.00104882 0.0
-0.00288978 0.00118305 0.0
-0.00315695 0.00132508 0.0
-0.00345768 0.00147459 0.0
-0.00379458 0.00163077 0.0
-0.00417036 0.00179206 0.0
-0.0045877 0.00195593 0.0
-0.00504901 0.00211855 0.0
-0.00555615 0.00227451 0.0
-0.00611001 0.00241638 0.0
-0.00670984 0.00253438 0.0
-0.00735239 0.00261611 0.0
-0.00803073 0.00264655 0.0
-0.00873279 0.00260847 0.0
-0.00943951 0.00248369 0.0
-0.0101201 0.00225528 0.0
-0.0106876 0.00191135 0.0
-0.0104312 0.00144905 0.0
-0.000601352 0.000882104 0.0
0.132313 0.000290592 0.0
-0.00144392 2.87334e-05 0.0
-0.00168101 9.17793e-05 0.0
-0.00173249 0.000161031 0.0
-0.00178745 0.000231817 0.0
-0.00186088 0.000304789 0.0
-0.00195465 0.000380632 0.0
-0.00206978 0.000459967 0.0
-0.00220741 0.000543393 0.0
-0.00236888 0.000631459 0.0
-0.0025557 0.000724635 0.0
-0.00276958 0.000823275 0.0
-0.00301237 0.000927567 0.0
-0.00328606 0.00103746 0.0
-0.00359269 0.00115255 0.0
-0.00393433 0.00127202 0.0
-0.0043129 0.00139439 0.0
-0.00473007 0.00151745 0.0
-0.00518694 0.00163794 0.0
-0.00568383 0.00175138 0.0
-0.00621975 0.00185183 0.0
-0.00679188 0.00193167 0.0
-0.00739483 0.00198159 0.0
-0.00801984 0.00199069 0.0
-0.00865381 0.00194702 0.0
-0.00927821 0.00183865 0.0
-0.00986523 0.00165537 0.0
-0.0103345 0.00139121 0.0
-0.00998585 0.00104683 0.0
-8.69902e-05 0.000633706 0.0
0.132801 0.0002083 0.0
-0.00149427 2.07312e-05 0.0
-0.00173956 6.6216e-05 0.0
-0.00179269 0.00011617 0.0
-0.0018493 0.000167214 0.0
-0.00192491 0.000219812 0.0
-0.00202139 0.000274446 0.0
-0.00213976 0.000331549 0.0
-0.0022811 0.000391535 0.0
-0.00244671 0.000454775 0.0
-0.002638 0.000521575 0.0
-0.00285656 0.00059215 0.0
-0.00310406 0.000666579 0.0
-0.00338221 0.000744756 0.0
-0.00369274 0.000826319 0.0
-0.00403723 0.000910562 0.0
-0.00441701 0.000996329 0.0
-0.00483295 0.00108189 0.0
-0.00528524 0.00116478 0.0
-0.00577302 0.00124171 0.0
-0.00629402 0.00130834 0.0
-0.00684404 0.0013593 0.0
-0.00741641 0.00138815 0.0
-0.00800139 0.00138754 0.0
-0.0085856 0.00134973 0.0
-0.00915142 0.00126731 0.0
-0.00967368 0.00113439 0.0
-0.0100767 0.000948172 0.0
-0.00966755 0.000710239 0.0
0.000275419 0.000428836 0.0
0.133143 0.000141164 0.0
-0.00152813 1.25291e-05 0.0
-0.00177893 4.00164e-05 0.0
-0.00183315 7.02015e-05 0.0
-0.00189087 0.00010104 0.0
-0.00196792 0.00013281 0.0
-0.0020662 0.000165798 0.0
-0.0021867 0.000200261 0.0
-0.00233049 0.000236443 0.0
-0.0024988 0.000274558 0.0
-0.00269301 0.00031478 0.0
-0.00291459 0.000357223 0.0
-0.00316508 0.000401915 0.0
-0.00344603 0.000448769 0.0
-0.00375891 0.000497534 0.0
-0.00410498 0.000547748 0.0
-0.00448515 0.000598674 0.0
-0.00489979 0.000649222 0.0
-0.00534844 0.000697875 0.0
-0.00582953 0.000742605 0.0
-0.00633995 0.00078081 0.0
-0.0068747 0.000809282 0.0
-0.00742638 0.00082424 0.0
-0.00798476 0.000821469 0.0
-0.0085365 0.000796607 0.0
-0.00906478 0.000745611 0.0
-0.00954627 0.000665433 0.0
-0.0099084 0.000554871 0.0
-0.00946236 0.000415168 0.0
0.000507274 0.000250989 0.0
0.133363 8.33014e-05 0.0
-0.00154517 4.20698e-06 0.0
-0.00179874 1.34352e-05 0.0
-0.00185351 2.35693e-05 0.0
-0.00191178 3.39247e-05 0.0
-0.00198955 4.45954e-05 0.0
-0.00208873 5.56788e-05 0.0
-0.0022103 6.72623e-05 0.0
-0.00235531 7.94284e-05 0.0
-0.00252498 9.22505e-05 0.0
-0.00272064 0.000105788 0.0
-0.00294371 0.00012008 0.0
-0.00319568 0.000135137 0.0
-0.00347799 0.00015093 0.0
-0.00379199 0.000167376 0.0
-0.00413877 0.000184321 0.0
-0.00451906 0.000201515 0.0
-0.00493293 0.000218594 0.0
-0.00537964 0.000235048 0.0
-0.00585723 0.000250195 0.0
-0.00636223 0.000263164 0.0
-0.00688922 0.000272882 0.0
-0.00743048 0.00027809 0.0
-0.0079756 0.000277387 0.0
-0.0085113 0.000269328 0.0
-0.00902119 0.000252581 0.0
-0.00948288 0.000226143 0.0
-0.00982527 0.000189609 0.0
-0.00936145 0.000143279 0.0
0.000621564 8.78808e-05 0.0
0.133473 3.03528e-05 0.0
-0.00154522 -4.1557e-06 0.0
-0.0017988 -1.32753e-05 0.0
-0.00185357 -2.32876e-05 0.0
-0.00191185 -3.35097e-05 0.0
-0.00198964 -4.40297e-05 0.0
-0.00208883 -5.49384e-05 0.0
-0.00221041 -6.63163e-05 0.0
-0.00235545 -7.82376e-05 0.0
-0.00252514 -9.07662e-05 0.0
-0.00272083 -0.00010395 0.0
-0.00294394 -0.000117817 0.0
-0.00319596 -0.000132362 0.0
-0.00347832 -0.000147541 0.0
-0.00379239 -0.000163253 0.0
-0.00413925 -0.000179323 0.0
-0.00451962 -0.000195487 0.0
-0.00493358 -0.000211361 0.0
-0.00538038 -0.000226422 0.0
-0.00585807 -0.000239984 0.0
-0.00636315 -0.000251183 0.0
-0.00689022 -0.000258971 0.0
-0.00743151 -0.000262141 0.0
-0.00797661 -0.000259377 0.0
-0.00851221 -0.00024936 0.0
-0.00902191 -0.000230926 0.0
-0.00948329 -0.000203288 0.0
-0.00982519 -0.000166297 0.0
-0.00936041 -0.000120802 0.0
0.00062525 -7.03716e-05 0.0
0.13348 -2.10279e-05 0.0
-0.00152828 -1.248e-05 0.0
-0.00177911 -3.98634e-05 0.0
-0.00183334 -6.99319e-05 0.0
-0.00189108 -0.000100643 0.0
-0.00196816 -0.000132268 0.0
-0.00206648 -0.000165089 0.0
-0.00218703 -0.000199355 0.0
-0.00233089 -0.000235301 0.0
-0.00249928 -0.000273133 0.0
-0.00269359 -0.000313015 0.0
-0.00291529 -0.000355047 0.0
-0.00316592 -0.000399244 0.0
-0.00344704 -0.0004455 0.0
-0.00376011 -0.000493549 0.0
-0.0041064 -0.000542908 0.0
-0.00448682 -0.000592818 0.0
-0.00490173 -0.000642174 0.0
-0.00535068 -0.000689438 0.0
-0.00583205 -0.000732575 0.0
-0.00634275 -0.000768982 0.0
-0.00687771 -0.00079547 0.0
-0.0074295 -0.000808303 0.0
-0.00798784 -0.000803345 0.0
-0.00853932 -0.000776356 0.0
-0.00906705 -0.000723467 0.0
-0.00954762 -0.00064186 0.0
-0.00990828 -0.000530619 0.0
-0.00945924 -0.000391602 0.0
0.000518759 -0.000232601 0.0
0.133383 -7.35113e-05 0.0
-0.00149452 -2.06864e-05 0.0
-0.00173985 -6.60766e-05 0.0
-0.00179299 -0.000115924 0.0
-0.00184964 -0.000166852 0.0
-0.0019253 -0.000219318 0.0
-0.00202185 -0.000273798 0.0
-0.0021403 -0.000330721 0.0
-0.00228175 -0.00039049 0.0
-0.00244748 -0.000453469 0.0
-0.00263894 -0.000519954 0.0
-0.00285769 -0.000590146 0.0
-0.00310542 -0.000664112 0.0
-0.00338385 -0.000741728 0.0
-0.00369471 -0.000822612 0.0
-0.00403957 -0.000906038 0.0
-0.00441977 -0.000990825 0.0
-0.00483618 -0.00107522 0.0
-0.00528896 -0.00115674 0.0
-0.00577726 -0.00123206 0.0
-0.00629874 -0.00129685 0.0
-0.00684917 -0.00134572 0.0
-0.0074218 -0.00137227 0.0
-0.00800678 -0.00136923 0.0
-0.00859062 -0.00132895 0.0
-0.00915557 -0.00124421 0.0
-0.00967631 -0.00110937 0.0
-0.0100769 -0.000922 0.0
-0.00966245 -0.000684417 0.0
0.000295192 -0.000408497 0.0
0.133178 -0.000130257 0.0
-0.00144424 -2.86948e-05 0.0
-0.00168139 -9.16595e-05 0.0
-0.0017329 -0.00016082 0.0
-0.0017879 -0.000231506 0.0
-0.00186141 -0.000304364 0.0
-0.00195526 -0.000380074 0.0
-0.00207051 -0.000459252 0.0
-0.00220828 -0.000542489 0.0
-0.00236993 -0.000630327 0.0
-0.00255697 -0.000723225 0.0
-0.00277111 -0.000821527 0.0
-0.00301423 -0.000925404 0.0
-0.00328829 -0.00103479 0.0
-0.00359537 -0.00114926 0.0
-0.00393754 -0.00126797 0.0
-0.00431671 -0.00138943 0.0
-0.00473454 -0.00151137 0.0
-0.00519215 -0.00163052 0.0
-0.00568981 -0.00174235 0.0
-0.00622649 -0.0018409 0.0
-0.00679929 -0.00191853 0.0
-0.00740274 -0.00196591 0.0
-0.00802791 -0.0019722 0.0
-0.00866152 -0.00192554 0.0
-0.00928484 -0.00181416 0.0
-0.0098698 -0.00162817 0.0
-0.0103354 -0.00136203 0.0
-0.00997898 -0.00101736 0.0
-5.80374e-05 -0.000610129 0.0
0.132852 -0.000195483 0.0
-0.00137795 -3.64241e-05 0.0
-0.00160428 -0.000116354 0.0
-0.00165362 -0.00020417 0.0
-0.00170641 -0.00029396 0.0
-0.00177701 -0.000386571 0.0
-0.00186723 -0.000482891 0.0
-0.00197813 -0.000583739 0.0
-0.00211089 -0.000689912 0.0
-0.00226693 -0.000802157 0.0
-0.00244785 -0.000921141 0.0
-0.00265554 -0.0010474 0.0
-0.00289205 -0.00118129 0.0
-0.00315971 -0.00132288 0.0
-0.003461 -0.00147186 0.0
-0.00379858 -0.00162737 0.0
-0.00417514 -0.00178783 0.0
-0.00459337 -0.00195066 0.0
-0.00505567 -0.00211201 0.0
-0.00556388 -0.00226639 0.0
-0.00611885 -0.00240632 0.0
-0.00671973 -0.00252197 0.0
-0.00736315 -0.00260089 0.0
-0.00804199 -0.00262804 0.0
-0.00874391 -0.00258627 0.0
-0.00944954 -0.00245751 0.0
-0.0101276 -0.00222518 0.0
-0.0106903 -0.00187792 0.0
-0.0104231 -0.00141422 0.0
-0.000561925 -0.000853629 0.0
0.132384 -0.000274794 0.0
-0.00129628 -4.37922e-05 0.0
-0.00150929 -0.000139898 0.0
-0.0015559 -0.000245514 0.0
-0.00160591 -0.00035356 0.0
-0.00167284 -0.000465082 0.0
-0.00175845 -0.000581189 0.0
-0.00186383 -0.000702915 0.0
-0.00199017 -0.000831286 0.0
-0.00213896 -0.000967287 0.0
-0.00231192 -0.00111183 0.0
-0.00251106 -0.00126573 0.0
-0.00273869 -0.00142958 0.0
-0.00299746 -0.00160374 0.0
-0.00329034 -0.00178813 0.0
-0.00362064 -0.00198211 0.0
-0.003992 -0.00218423 0.0
-0.00440831 -0.0023919 0.0
-0.00487357 -0.00260103 0.0
-0.00539169 -0.00280553 0.0
-0.00596602 -0.00299674 0.0
-0.0065987 -0.00316283 0.0
-0.00728961 -0.00328817 0.0
-0.00803483 -0.00335299 0.0
-0.00882449 -0.00333347 0.0
-0.00963979 -0.00320291 0.0
-0.0104466 -0.00293439 0.0
-0.0111487 -0.00250606 0.0
-0.0110148 -0.00190849 0.0
-0.00124856 -0.0011627 0.0
0.131737 -0.00037661 0.0
-0.00120005 -5.07168e-05 0.0
-0.00139733 -0.000162029 0.0
-0.0014407 -0.000284392 0.0
-0.00148734 -0.00040964 0.0
-0.00154983 -0.000539022 0.0
-0.00162985 -0.000673874 0.0
-0.00172848 -0.000815458 0.0
-0.00184694 -0.000965049 0.0
-0.00198675 -0.0011239 0.0
-0.00214972 -0.00129324 0.0
-0.002338 -0.00147417 0.0
-0.0025541 -0.00166769 0.0
-0.00280101 -0.00187452 0.0
-0.00308216 -0.00209504 0.0
-0.00340158 -0.00232903 0.0
-0.00376388 -0.0025755 0.0
-0.00417433 -0.00283223 0.0
-0.00463879 -0.00309539 0.0
-0.00516365 -0.00335884 0.0
-0.00575551 -0.00361333 0.0
-0.00642054 -0.00384556 0.0
-0.00716346 -0.00403703 0.0
-0.00798564 -0.00416295 0.0
-0.00888229 -0.00419161 0.0
-0.00983796 -0.0040847 0.0
-0.0108177 -0.00379985 0.0
-0.0117165 -0.0032971 0.0
-0.0117808 -0.00254998 0.0
-0.00216565 -0.00157476 0.0
0.130857 -0.000514761 0.0
-0.00109025 -5.71159e-05 0.0
-0.00126957 -0.000182485 0.0
-0.00130917 -0.000320342 0.0
-0.00135188 -0.00046153 0.0
-0.00140915 -0.000607504 0.0
-0.00148258 -0.000759827 0.0
-0.00157321 -0.00092 0.0
-0.00168227 -0.00108956 0.0
-0.00181129 -0.00127007 0.0
-0.00196211 -0.00146308 0.0
-0.00213698 -0.00167011 0.0
-0.00233858 -0.00189259 0.0
-0.00257014 -0.00213179 0.0
-0.00283555 -0.0023887 0.0
-0.00313946 -0.00266383 0.0
-0.00348746 -0.00295697 0.0
-0.0038862 -0.0032668 0.0
-0.00434357 -0.00359035 0.0
-0.00486878 -0.00392225 0.0
-0.00547229 -0.00425363 0.0
-0.00616551 -0.00457078 0.0
-0.00695985 -0.00485328 0.0
-0.00786495 -0.00507185 0.0
-0.00888516 -0.00518618 0.0
-0.0100136 -0.00514343 0.0
-0.0112199 -0.0048791 0.0
-0.0123933 -0.00432334 0.0
-0.0127533 -0.00341581 0.0
-0.00338329 -0.0021526 0.0
0.129654 -0.000713807 0.0
-0.00096803 -6.29094e-05 0.0
-0.00112732 -0.000201008 0.0
-0.00116266 -0.000352908 0.0
-0.00120088 -0.000508569 0.0
-0.00125218 -0.000669645 0.0
-0.00131803 -0.000837924 0.0
-0.00139942 -0.00101515 0.0
-0.00149755 -0.00120313 0.0
-0.00161391 -0.00140375 0.0
-0.00175033 -0.00161893 0.0
-0.00190908 -0.00185064 0.0
-0.00209291 -0.00210085 0.0
-0.00230522 -0.0023715 0.0
-0.00255018 -0.00266436 0.0
-0.00283296 -0.00298094 0.0
-0.00315995 -0.00332223 0.0
-0.00353909 -0.00368835 0.0
-0.00398019 -0.00407797 0.0
-0.00449538 -0.00448756 0.0
-0.00509944 -0.00491006 0.0
-0.00580997 -0.00533313 0.0
-0.00664714 -0.00573648 0.0
-0.0076324 -0.00608829 0.0
-0.00878518 -0.00634067 0.0
-0.0101159 -0.00642458 0.0
-0.0116098 -0.00624619 0.0
-0.0131614 -0.00568907 0.0
-0.0139649 -0.00462935 0.0
-0.00500301 -0.00300787 0.0
0.127976 -0.00102077 0.0
-0.000834697 -6.80211e-05 0.0
-0.000972117 -0.000217352 0.0
-0.00100273 -0.000381654 0.0
-0.00103594 -0.000550116 0.0
-0.00108055 -0.000724584 0.0
-0.00113787 -0.000907059 0.0