# vtk DataFile Version 3.0
Malha 2D com triângulos e temperatura
ASCII
DATASET UNSTRUCTURED_GRID

POINTS 961 double
0 0 0
1 0 0
1 1 0
0 1 0
0.0333333 0 0
0.0666667 0 0
0.1 0 0
0.133333 0 0
0.166667 0 0
0.2 0 0
0.233333 0 0
0.266667 0 0
0.3 0 0
0.333333 0 0
0.366667 0 0
0.4 0 0
0.433333 0 0
0.466667 0 0
0.5 0 0
0.533333 0 0
0.566667 0 0
0.6 0 0
0.633333 0 0
0.666667 0 0
0.7 0 0
0.733333 0 0
0.766667 0 0
0.8 0 0
0.833333 0 0
0.866667 0 0
0.9 0 0
0.933333 0 0
0.966667 0 0
1 0.0333333 0
1 0.0666667 0
1 0.1 0
1 0.133333 0
1 0.166667 0
1 0.2 0
1 0.233333 0
1 0.266667 0
1 0.3 0
1 0.333333 0
1 0.366667 0
1 0.4 0
1 0.433333 0
1 0.466667 0
1 0.5 0
1 0.533333 0
1 0.566667 0
1 0.6 0
1 0.633333 0
1 0.666667 0
1 0.7 0
1 0.733333 0
1 0.766667 0
1 0.8 0
1 0.833333 0
1 0.866667 0
1 0.9 0
1 0.933333 0
1 0.966667 0
0.966667 1 0
0.933333 1 0
0.9 1 0
0.866667 1 0
0.833333 1 0
0.8 1 0
0.766667 1 0
0.733333 1 0
0.7 1 0
0.666667 1 0
0.633333 1 0
0.6 1 0
0.566667 1 0
0.533333 1 0
0.5 1 0
0.466667 1 0
0.433333 1 0
0.4 1 0
0.366667 1 0
0.333333 1 0
0.3 1 0
0.266667 1 0
0.233333 1 0
0.2 1 0
0.166667 1 0
0.133333 1 0
0.1 1 0
0.0666667 1 0
0.0333333 1 0
0 0.966667 0
0 0.933333 0
0 0.9 0
0 0.866667 0
0 0.833333 0
0 0.8 0
0 0.766667 0
0 0.733333 0
0 0.7 0
0 0.666667 0
0 0.633333 0
0 0.6 0
0 0.566667 0
0 0.533333 0
0 0.5 0
0 0.466667 0
0 0.433333 0
0 0.4 0
0 0.366667 0
0 0.333333 0
0 0.3 0
0 0.266667 0
0 0.233333 0
0 0.2 0
0 0.166667 0
0 0.133333 0
0 0.1 0
0 0.0666667 0
0 0.0333333 0
0.0333333 0.0333333 0
0.0333333 0.0666667 0
0.0333333 0.1 0
0.0333333 0.133333 0
0.0333333 0.166667 0
0.0333333 0.2 0
0.0333333 0.233333 0
0.0333333 0.266667 0
0.0333333 0.3 0
0.0333333 0.333333 0
0.0333333 0.366667 0
0.0333333 0.4 0
0.0333333 0.433333 0
0.0333333 0.466667 0
0.0333333 0.5 0
0.0333333 0.533333 0
0.0333333 0.566667 0
0.0333333 0.6 0
0.0333333 0.633333 0
0.0333333 0.666667 0
0.0333333 0.7 0
0.0333333 0.733333 0
0.0333333 0.766667 0
0.0333333 0.8 0
0.0333333 0.833333 0
0.0333333 0.866667 0
0.0333333 0.9 0
0.0333333 0.933333 0
0.0333333 0.966667 0
0.0666667 0.0333333 0
0.0666667 0.0666667 0
0.0666667 0.1 0
0.0666667 0.133333 0
0.0666667 0.166667 0
0.0666667 0.2 0
0.0666667 0.233333 0
0.0666667 0.266667 0
0.0666667 0.3 0
0.0666667 0.333333 0
0.0666667 0.366667 0
0.0666667 0.4 0
0.0666667 0.433333 0
0.0666667 0.466667 0
0.0666667 0.5 0
0.0666667 0.533333 0
0.0666667 0.566667 0
0.0666667 0.6 0
0.0666667 0.633333 0
0.0666667 0.666667 0
0.0666667 0.7 0
0.0666667 0.733333 0
0.0666667 0.766667 0
0.0666667 0.8 0
0.0666667 0.833333 0
0.0666667 0.866667 0
0.0666667 0.9 0
0.0666667 0.933333 0
0.0666667 0.966667 0
0.1 0.0333333 0
0.1 0.0666667 0
0.1 0.1 0
0.1 0.133333 0
0.1 0.166667 0
0.1 0.2 0
0.1 0.233333 0
0.1 0.266667 0
0.1 0.3 0
0.1 0.333333 0
0.1 0.366667 0
0.1 0.4 0
0.1 0.433333 0
0.1 0.466667 0
0.1 0.5 0
0.1 0.533333 0
0.1 0.566667 0
0.1 0.6 0
0.1 0.633333 0
0.1 0.666667 0
0.1 0.7 0
0.1 0.733333 0
0.1 0.766667 0
0.1 0.8 0
0.1 0.833333 0
0.1 0.866667 0
0.1 0.9 0
0.1 0.933333 0
0.1 0.966667 0
0.133333 0.0333333 0
0.133333 0.0666667 0
0.133333 0.1 0
0.133333 0.133333 0
0.133333 0.166667 0
0.133333 0.2 0
0.133333 0.233333 0
0.133333 0.266667 0
0.133333 0.3 0
0.133333 0.333333 0
0.133333 0.366667 0
0.133333 0.4 0
0.133333 0.433333 0
0.133333 0.466667 0
0.133333 0.5 0
0.133333 0.533333 0
0.133333 0.566667 0
0.133333 0.6 0
0.133333 0.633333 0
0.133333 0.666667 0
0.133333 0.7 0
0.133333 0.733333 0
0.133333 0.766667 0
0.133333 0.8 0
0.133333 0.833333 0
0.133333 0.866667 0
0.133333 0.9 0
0.133333 0.933333 0
0.133333 0.966667 0
0.166667 0.0333333 0
0.166667 0.0666667 0
0.166667 0.1 0
0.166667 0.133333 0
0.166667 0.166667 0
0.166667 0.2 0
0.166667 0.233333 0
0.166667 0.266667 0
0.166667 0.3 0
0.166667 0.333333 0
0.166667 0.366667 0
0.166667 0.4 0
0.166667 0.433333 0
0.166667 0.466667 0
0.166667 0.5 0
0.166667 0.533333 0
0.166667 0.566667 0
0.166667 0.6 0
0.166667 0.633333 0
0.166667 0.666667 0
0.166667 0.7 0
0.166667 0.733333 0
0.166667 0.766667 0
0.166667 0.8 0
0.166667 0.833333 0
0.166667 0.866667 0
0.166667 0.9 0
0.166667 0.933333 0
0.166667 0.966667 0
0.2 0.0333333 0
0.2 0.0666667 0
0.2 0.1 0
0.2 0.133333 0
0.2 0.166667 0
0.2 0.2 0
0.2 0.233333 0
0.2 0.266667 0
0.2 0.3 0
0.2 0.333333 0
0.2 0.366667 0
0.2 0.4 0
0.2 0.433333 0
0.2 0.466667 0
0.2 0.5 0
0.2 0.533333 0
0.2 0.566667 0
0.2 0.6 0
0.2 0.633333 0
0.2 0.666667 0
0.2 0.7 0
0.2 0.733333 0
0.2 0.766667 0
0.2 0.8 0
0.2 0.833333 0
0.2 0.866667 0
0.2 0.9 0
0.2 0.933333 0
0.2 0.966667 0
0.233333 0.0333333 0
0.233333 0.0666667 0
0.233333 0.1 0
0.233333 0.133333 0
0.233333 0.166667 0
0.233333 0.2 0
0.233333 0.233333 0
0.233333 0.266667 0
0.233333 0.3 0
0.233333 0.333333 0
0.233333 0.366667 0
0.233333 0.4 0
0.233333 0.433333 0
0.233333 0.466667 0
0.233333 0.5 0
0.233333 0.533333 0
0.233333 0.566667 0
0.233333 0.6 0
0.233333 0.633333 0
0.233333 0.666667 0
0.233333 0.7 0
0.233333 0.733333 0
0.233333 0.766667 0
0.233333 0.8 0
0.233333 0.833333 0
0.233333 0.866667 0
0.233333 0.9 0
0.233333 0.933333 0
0.233333 0.966667 0
0.266667 0.0333333 0
0.266667 0.0666667 0
0.266667 0.1 0
0.266667 0.133333 0
0.266667 0.166667 0
0.266667 0.2 0
0.266667 0.233333 0
0.266667 0.266667 0
0.266667 0.3 0
0.266667 0.333333 0
0.266667 0.366667 0
0.266667 0.4 0
0.266667 0.433333 0
0.266667 0.466667 0
0.266667 0.5 0
0.266667 0.533333 0
0.266667 0.566667 0
0.266667 0.6 0
0.266667 0.633333 0
0.266667 0.666667 0
0.266667 0.7 0
0.266667 0.733333 0
0.266667 0.766667 0
0.266667 0.8 0
0.266667 0.833333 0
0.266667 0.866667 0
0.266667 0.9 0
0.266667 0.933333 0
0.266667 0.966667 0
0.3 0.0333333 0
0.3 0.0666667 0
0.3 0.1 0
0.3 0.133333 0
0.3 0.166667 0
0.3 0.2 0
0.3 0.233333 0
0.3 0.266667 0
0.3 0.3 0
0.3 0.333333 0
0.3 0.366667 0
0.3 0.4 0
0.3 0.433333 0
0.3 0.466667 0
0.3 0.5 0
0.3 0.533333 0
0.3 0.566667 0
0.3 0.6 0
0.3 0.633333 0
0.3 0.666667 0
0.3 0.7 0
0.3 0.733333 0
0.3 0.766667 0
0.3 0.8 0
0.3 0.833333 0
0.3 0.866667 0
0.3 0.9 0
0.3 0.933333 0
0.3 0.966667 0
0.333333 0.0333333 0
0.333333 0.0666667 0
0.333333 0.1 0
0.333333 0.133333 0
0.333333 0.166667 0
0.333333 0.2 0
0.333333 0.233333 0
0.333333 0.266667 0
0.333333 0.3 0
0.333333 0.333333 0
0.333333 0.366667 0
0.333333 0.4 0
0.333333 0.433333 0
0.333333 0.466667 0
0.333333 0.5 0
0.333333 0.533333 0
0.333333 0.566667 0
0.333333 0.6 0
0.333333 0.633333 0
0.333333 0.666667 0
0.333333 0.7 0
0.333333 0.733333 0
0.333333 0.766667 0
0.333333 0.8 0
0.333333 0.833333 0
0.333333 0.866667 0
0.333333 0.9 0
0.333333 0.933333 0
0.333333 0.966667 0
0.366667 0.0333333 0
0.366667 0.0666667 0
0.366667 0.1 0
0.366667 0.133333 0
0.366667 0.166667 0
0.366667 0.2 0
0.366667 0.233333 0
0.366667 0.266667 0
0.366667 0.3 0
0.366667 0.333333 0
0.366667 0.366667 0
0.366667 0.4 0
0.366667 0.433333 0
0.366667 0.466667 0
0.366667 0.5 0
0.366667 0.533333 0
0.366667 0.566667 0
0.366667 0.6 0
0.366667 0.633333 0
0.366667 0.666667 0
0.366667 0.7 0
0.366667 0.733333 0
0.366667 0.766667 0
0.366667 0.8 0
0.366667 0.833333 0
0.366667 0.866667 0
0.366667 0.9 0
0.366667 0.933333 0
0.366667 0.966667 0
0.4 0.0333333 0
0.4 0.0666667 0
0.4 0.1 0
0.4 0.133333 0
0.4 0.166667 0
0.4 0.2 0
0.4 0.233333 0
0.4 0.266667 0
0.4 0.3 0
0.4 0.333333 0
0.4 0.366667 0
0.4 0.4 0
0.4 0.433333 0
0.4 0.466667 0
0.4 0.5 0
0.4 0.533333 0
0.4 0.566667 0
0.4 0.6 0
0.4 0.633333 0
0.4 0.666667 0
0.4 0.7 0
0.4 0.733333 0
0.4 0.766667 0
0.4 0.8 0
0.4 0.833333 0
0.4 0.866667 0
0.4 0.9 0
0.4 0.933333 0
0.4 0.966667 0
0.433333 0.0333333 0
0.433333 0.0666667 0
0.433333 0.1 0
0.433333 0.133333 0
0.433333 0.166667 0
0.433333 0.2 0
0.433333 0.233333 0
0.433333 0.266667 0
0.433333 0.3 0
0.433333 0.333333 0
0.433333 0.366667 0
0.433333 0.4 0
0.433333 0.433333 0
0.433333 0.466667 0
0.433333 0.5 0
0.433333 0.533333 0
0.433333 0.566667 0
0.433333 0.6 0
0.433333 0.633333 0
0.433333 0.666667 0
0.433333 0.7 0
0.433333 0.733333 0
0.433333 0.766667 0
0.433333 0.8 0
0.433333 0.833333 0
0.433333 0.866667 0
0.433333 0.9 0
0.433333 0.933333 0
0.433333 0.966667 0
0.466667 0.0333333 0
0.466667 0.0666667 0
0.466667 0.1 0
0.466667 0.133333 0
0.466667 0.166667 0
0.466667 0.2 0
0.466667 0.233333 0
0.466667 0.266667 0
0.466667 0.3 0
0.466667 0.333333 0
0.466667 0.366667 0
0.466667 0.4 0
0.466667 0.433333 0
0.466667 0.466667 0
0.466667 0.5 0
0.466667 0.533333 0
0.466667 0.566667 0
0.466667 0.6 0
0.466667 0.633333 0
0.466667 0.666667 0
0.466667 0.7 0
0.466667 0.733333 0
0.466667 0.766667 0
0.466667 0.8 0
0.466667 0.833333 0
0.466667 0.866667 0
0.466667 0.9 0
0.466667 0.933333 0
0.466667 0.966667 0
0.5 0.0333333 0
0.5 0.0666667 0
0.5 0.1 0
0.5 0.133333 0
0.5 0.166667 0
0.5 0.2 0
0.5 0.233333 0
0.5 0.266667 0
0.5 0.3 0
0.5 0.333333 0
0.5 0.366667 0
0.5 0.4 0
0.5 0.433333 0
0.5 0.466667 0
0.5 0.5 0
0.5 0.533333 0
0.5 0.566667 0
0.5 0.6 0
0.5 0.633333 0
0.5 0.666667 0
0.5 0.7 0
0.5 0.733333 0
0.5 0.766667 0
0.5 0.8 0
0.5 0.833333 0
0.5 0.866667 0
0.5 0.9 0
0.5 0.933333 0
0.5 0.966667 0
0.533333 0.0333333 0
0.533333 0.0666667 0
0.533333 0.1 0
0.533333 0.133333 0
0.533333 0.166667 0
0.533333 0.2 0
0.533333 0.233333 0
0.533333 0.266667 0
0.533333 0.3 0
0.533333 0.333333 0
0.533333 0.366667 0
0.533333 0.4 0
0.533333 0.433333 0
0.533333 0.466667 0
0.533333 0.5 0
0.533333 0.533333 0
0.533333 0.566667 0
0.533333 0.6 0
0.533333 0.633333 0
0.533333 0.666667 0
0.533333 0.7 0
0.533333 0.733333 0
0.533333 0.766667 0
0.533333 0.8 0
0.533333 0.833333 0
0.533333 0.866667 0
0.533333 0.9 0
0.533333 0.933333 0
0.533333 0.966667 0
0.566667 0.0333333 0
0.566667 0.0666667 0
0.566667 0.1 0
0.566667 0.133333 0
0.566667 0.166667 0
0.566667 0.2 0
0.566667 0.233333 0
0.566667 0.266667 0
0.566667 0.3 0
0.566667 0.333333 0
0.566667 0.366667 0
0.566667 0.4 0
0.566667 0.433333 0
0.566667 0.466667 0
0.566667 0.5 0
0.566667 0.533333 0
0.566667 0.566667 0
0.566667 0.6 0
0.566667 0.633333 0
0.566667 0.666667 0
0.566667 0.7 0
0.566667 0.733333 0
0.566667 0.766667 0
0.566667 0.8 0
0.566667 0.833333 0
0.566667 0.866667 0
0.566667 0.9 0
0.566667 0.933333 0
0.566667 0.966667 0
0.6 0.0333333 0
0.6 0.0666667 0
0.6 0.1 0
0.6 0.133333 0
[...]
CELL_DATA 900
VECTORS velocity double
-1.95939e-05 2.03358e-05 0.0
-0.000148661 0.000358385 0.0
-0.000200056 0.000999531 0.0
-0.000220014 0.00169062 0.0
-0.000228844 0.00243435 0.0
-0.000238858 0.00320749 0.0
-0.000252137 0.00402402 0.0
-0.000269432 0.00489293 0.0
-0.000290895 0.00582756 0.0
-0.000316897 0.00684155 0.0
-0.000347996 0.0079506 0.0
-0.000384997 0.00917267 0.0
-0.000429001 0.0105289 0.0
-0.000481515 0.0120446 0.0
-0.000544639 0.0137511 0.0
-0.000621376 0.0156876 0.0
-0.000716197 0.0179049 0.0
-0.000836124 0.0204709 0.0
-0.000992969 0.0234796 0.0
-0.00120827 0.0270666 0.0
-0.00152485 0.0314402 0.0
-0.00203352 0.0369323 0.0
-0.00293568 0.0441365 0.0
-0.00467418 0.0540796 0.0
-0.00815974 0.0688751 0.0
-0.0149957 0.0917523 0.0
-0.0265256 0.129765 0.0
-0.0395466 0.181985 0.0
-0.0137438 0.262791 0.0
0.219222 0.176473 0.0
-0.000359984 0.000150395 0.0
-0.000923987 0.000919965 0.0
-0.0011704 0.00216957 0.0
-0.0012809 0.00351026 0.0
-0.00134819 0.00495487 0.0
-0.00141818 0.00646697 0.0
-0.00150382 0.00806829 0.0
-0.0016102 0.00977503 0.0
-0.00173988 0.0116115 0.0
-0.00189576 0.0136036 0.0
-0.00208155 0.0157813 0.0
-0.0023022 0.0181792 0.0
-0.00256436 0.0208377 0.0
-0.00287704 0.0238051 0.0
-0.00325267 0.0271408 0.0
-0.0037088 0.0309188 0.0
-0.00427082 0.0352338 0.0
-0.00497671 0.0402099 0.0
-0.00588534 0.0460145 0.0
-0.00709211 0.052878 0.0
-0.00875902 0.0611281 0.0
-0.0111738 0.0712295 0.0
-0.0148606 0.0838771 0.0
-0.0207684 0.0999867 0.0
-0.0304158 0.120902 0.0
-0.0456463 0.14733 0.0
-0.0652385 0.179233 0.0
-0.0771723 0.205706 0.0
-0.0140622 0.203925 0.0
0.305236 0.115415 0.0
-0.000996079 0.000196826 0.0
-0.00216558 0.00113274 0.0
-0.00268787 0.0026161 0.0
-0.00293008 0.00419439 0.0
-0.00309066 0.00589016 0.0
-0.00325631 0.0076643 0.0
-0.00345613 0.00954258 0.0
-0.0037015 0.0115438 0.0
-0.00399902 0.0136956 0.0
-0.00435546 0.0160276 0.0
-0.00477924 0.0185735 0.0
-0.00528134 0.0213719 0.0
-0.00587632 0.0244674 0.0
-0.00658371 0.0279127 0.0
-0.00743014 0.0317712 0.0
-0.00845263 0.03612 0.0
-0.0097037 0.0410554 0.0
-0.0112596 0.0466987 0.0
-0.0132338 0.0532062 0.0
-0.0157995 0.0607804 0.0
-0.0192276 0.0696876 0.0
-0.0239492 0.0802656 0.0
-0.0306408 0.0929478 0.0
-0.0403067 0.108159 0.0
-0.0540178 0.126243 0.0
-0.0716641 0.146512 0.0
-0.086063 0.165889 0.0
-0.0709047 0.175232 0.0
0.0576291 0.146802 0.0
0.464532 0.0731165 0.0
-0.00165451 0.000206967 0.0
-0.00344193 0.00117995 0.0
-0.00423415 0.00271052 0.0
-0.00460188 0.00433055 0.0
-0.00485279 0.0060686 0.0
-0.00511314 0.00788526 0.0
-0.00542678 0.00980751 0.0
-0.00581062 0.011854 0.0
-0.00627476 0.0140523 0.0
-0.00682943 0.0164312 0.0
-0.0074871 0.0190236 0.0
-0.00826391 0.021866 0.0
-0.00918091 0.0250005 0.0
-0.010266 0.0284753 0.0
-0.0115565 0.0323466 0.0
-0.0131035 0.0366806 0.0
-0.0149774 0.0415561 0.0
-0.0172773 0.0470667 0.0
-0.0201453 0.0533236 0.0
-0.0237881 0.0604565 0.0
-0.0285096 0.068611 0.0
-0.0347587 0.0779286 0.0
-0.0431706 0.0885172 0.0
-0.054545 0.100313 0.0
-0.0693377 0.112893 0.0
-0.0858299 0.124891 0.0
-0.0934607 0.132575 0.0
-0.0587144 0.129895 0.0
0.1041 0.0973085 0.0
0.54629 0.0440018 0.0
-0.0023219 0.000200233 0.0
-0.00473412 0.00115122 0.0
-0.00579413 0.00264758 0.0
-0.00628584 0.00422709 0.0
-0.00662609 0.00591988 0.0
-0.00698047 0.00768708 0.0
-0.007407 0.0095552 0.0
-0.00792771 0.0115417 0.0
-0.00855585 0.0136724 0.0
-0.00930451 0.0159737 0.0
-0.0101895 0.0184753 0.0
-0.0112311 0.0212095 0.0
-0.0124551 0.0242123 0.0
-0.0138953 0.0275238 0.0
-0.0155962 0.0311884 0.0
-0.017617 0.035256 0.0
-0.0200371 0.0397812 0.0
-0.0229652 0.044823 0.0
-0.0265501 0.0504416 0.0
-0.0309984 0.0566921 0.0
-0.0365955 0.0636112 0.0
-0.0437306 0.0711861 0.0
-0.0528936 0.0793073 0.0
-0.0645603 0.0876519 0.0
-0.0785275 0.0954958 0.0
-0.0917141 0.101443 0.0
-0.0912569 0.102219 0.0
-0.0397567 0.0941508 0.0
0.146821 0.0640875 0.0
0.600002 0.0257638 0.0
-0.00295592 0.000189237 0.0
-0.00596831 0.00109326 0.0
-0.00728241 0.00251615 0.0
-0.00789041 0.00401605 0.0
-0.00831359 0.00562237 0.0
-0.00875533 0.00729745 0.0
-0.00928672 0.00906628 0.0
-0.00993423 0.0109446 0.0
-0.0107135 0.0129556 0.0
-0.0116398 0.0151228 0.0
-0.0127311 0.0174717 0.0
-0.01401 0.0200294 0.0
-0.0155053 0.0228249 0.0
-0.0172535 0.0258891 0.0
-0.0193018 0.0292539 0.0
-0.0217112 0.0329518 0.0
-0.0245616 0.037014 0.0
-0.027958 0.0414669 0.0
-0.032039 0.0463264 0.0
-0.0369871 0.0515874 0.0
-0.0430402 0.0572063 0.0
-0.0504975 0.0630701 0.0
-0.0596873 0.0689506 0.0
-0.0707975 0.0744234 0.0
-0.0831409 0.0787215 0.0
-0.0927734 0.0806683 0.0
-0.0855723 0.0777611 0.0
-0.0224116 0.0679716 0.0
0.178658 0.042986 0.0
0.633912 0.0152421 0.0
-0.00355286 0.000175856 0.0
-0.00713189 0.00101828 0.0
-0.00868452 0.00234431 0.0
-0.00940116 0.00374095 0.0
-0.00990108 0.00523571 0.0
-0.0104233 0.00679289 0.0
-0.0110509 0.00843532 0.0
-0.0118143 0.0101767 0.0
-0.0127309 0.0120376 0.0
-0.0138171 0.014038 0.0
-0.0150923 0.0161991 0.0
-0.0165801 0.0185428 0.0
-0.0183101 0.0210912 0.0
-0.020319 0.0238661 0.0
-0.022653 0.0268879 0.0
-0.0253703 0.0301738 0.0
-0.0285446 0.033735 0.0
-0.032269 0.0375722 0.0
-0.0366611 0.0416683 0.0
-0.041868 0.0459773 0.0
-0.0480686 0.0504079 0.0
-0.0554672 0.0547978 0.0
-0.0642437 0.0588771 0.0
-0.0743554 0.0622217 0.0
-0.0847753 0.0641498 0.0
-0.0910253 0.0637576 0.0
-0.0782953 0.0592499 0.0
-0.0068197 0.049548 0.0
0.203201 0.029481 0.0
0.656072 0.00920619 0.0
-0.00410305 0.000160786 0.0
-0.00820494 0.000930859 0.0
-0.00997677 0.00214244 0.0
-0.0107927 0.00341772 0.0
-0.011362 0.00478175 0.0
-0.0119566 0.00620144 0.0
-0.0126705 0.00769716 0.0
-0.0135371 0.00928063 0.0
-0.0145752 0.0109694 0.0
-0.0158018 0.0127802 0.0
-0.0172365 0.0147302 0.0
-0.0189028 0.0168361 0.0
-0.0208294 0.019114 0.0
-0.0230512 0.0215778 0.0
-0.0256108 0.0242382 0.0
-0.02856 0.0271004 0.0
-0.0319623 0.0301606 0.0
-0.0358942 0.0334012 0.0
-0.0404479 0.0367839 0.0
-0.0457319 0.0402398 0.0
-0.0518678 0.0436553 0.0
-0.0589765 0.0468538 0.0
-0.067121 0.0495705 0.0
-0.0760965 0.0514295 0.0
-0.0846615 0.0518774 0.0
-0.0880354 0.0502574 0.0
-0.0710484 0.0453337 0.0
0.00622924 0.0365549 0.0
0.22179 0.0207525 0.0
0.671004 0.0057641 0.0
-0.00460099 0.00014399 0.0
-0.00917542 0.000832504 0.0
-0.0111447 0.00191495 0.0
-0.0120497 0.00305361 0.0
-0.0126807 0.00427082 0.0
-0.0133393 0.00553669 0.0
-0.0141291 0.00686896 0.0
-0.0150861 0.00827745 0.0
-0.0162297 0.00977689 0.0
-0.0175771 0.0113808 0.0
-0.0191474 0.0131027 0.0
-0.0209631 0.0149551 0.0
-0.0230509 0.0169487 0.0
-0.0254423 0.0190913 0.0
-0.0281748 0.0213865 0.0
-0.0312919 0.0238306 0.0
-0.0348447 0.0264101 0.0
-0.038892 0.0290966 0.0
-0.0435 0.0318411 0.0
-0.0487405 0.0345653 0.0
-0.0546851 0.0371523 0.0
-0.0613877 0.0394331 0.0
-0.0688253 0.0411722 0.0
-0.0766854 0.0420596 0.0
-0.0835981 0.0416692 0.0
-0.0846192 0.0395405 0.0
-0.064397 0.0348332 0.0
0.0169165 0.0273155 0.0
0.235945 0.0149624 0.0
0.681411 0.00376861 0.0
-0.00504071 0.000125583 0.0
-0.0100315 0.000724512 0.0
-0.0121743 0.0016652 0.0
-0.013157 0.00265415 0.0
-0.0138417 0.00371079 0.0
-0.0145556 0.00480897 0.0
-0.0154106 0.00596381 0.0
-0.016445 0.00718333 0.0
-0.0176783 0.00847962 0.0
-0.0191275 0.00986343 0.0
-0.0208106 0.0113451 0.0
-0.0227486 0.0129337 0.0
-0.0249656 0.0146358 0.0
-0.0274891 0.0164551 0.0
-0.0303503 0.01839 0.0
-0.0335841 0.0204319 0.0
-0.037229 0.022562 0.0
-0.0413264 0.0247474 0.0
-0.0459186 0.0269364 0.0
-0.0510459 0.0290518 0.0
-0.0567394 0.0309845 0.0
-0.0630023 0.0325856 0.0
-0.0697526 0.0336583 0.0
-0.0766105 0.0339586 0.0
-0.0821341 0.0331699 0.0
-0.0812953 0.030977 0.0
-0.0586534 0.0268077 0.0
0.0255009 0.0205992 0.0
0.246745 0.0109989 0.0
0.688876 0.00257368 0.0
-0.00541723 0.000105716 0.0
-0.0107633 0.000608139 0.0
-0.0130537 0.0013963 0.0
-0.0141026 0.00222443 0.0
-0.0148325 0.00310891 0.0
-0.015593 0.00402782 0.0
-0.0165028 0.00499366 0.0
-0.0176017 0.00601285 0.0
-0.0189095 0.00709511 0.0
-0.0204423 0.00824881 0.0
-0.0222173 0.00948176 0.0
-0.0242535 0.0108003 0.0
-0.0265721 0.0122083 0.0
-0.0291964 0.0137068 0.0
-0.0321516 0.0152916 0.0
-0.0354641 0.016952 0.0
-0.0391608 0.0186679 0.0
-0.0432674 0.020407 0.0
-0.0478059 0.0221207 0.0
-0.0527909 0.0237397 0.0
-0.0582221 0.0251697 0.0
-0.0640664 0.026287 0.0
-0.0702024 0.0269347 0.0
-0.0762108 0.0269273 0.0
-0.0806108 0.0260351 0.0
-0.0783324 0.024044 0.0
-0.0538899 0.0205596 0.0
0.032295 0.0155884 0.0
0.254991 0.00818794 0.0
0.694351 0.0018234 0.0
-0.00572614 8.45942e-05 0.0
-0.0113626 0.000484714 0.0
-0.0137733 0.00111142 0.0
-0.0148758 0.00176954 0.0
-0.0156425 0.00247231 0.0
-0.016441 0.00320247 0.0
-0.0173952 0.00396996 0.0
-0.0185463 0.0047798 0.0
-0.019914 0.00563958 0.0
-0.0215139 0.0065557 0.0
-0.0233618 0.007534 0.0
-0.025475 0.00857892 0.0
-0.027872 0.00969294 0.0
-0.0305723 0.0108756 0.0
-0.0335956 0.0121223 0.0
-0.0369608 0.0134227 0.0
-0.0406847 0.0147587 0.0
-0.0447802 0.0161021 0.0
-0.0492528 0.0174118 0.0
-0.0540971 0.0186305 0.0
-0.0592894 0.0196822 0.0
-0.0647713 0.0204697 0.0
-0.070396 0.0208735 0.0
-0.0757212 0.0207568 0.0
-0.0792456 0.0199553 0.0
-0.0758762 0.0183223 0.0
-0.0500984 0.0155778 0.0
0.0375641 0.0117402 0.0
0.261259 0.00612032 0.0
0.69842 0.00132571 0.0
-0.00596386 6.24422e-05 0.0
-0.0118225 0.000355597 0.0
-0.0143248 0.000813699 0.0
-0.0154683 0.00129451 0.0
-0.0162634 0.00180803 0.0
-0.0170911 0.00234198 0.0
-0.0180797 0.00290378 0.0
-0.0192711 0.00349727 0.0
-0.0206851 0.00412812 0.0
-0.0223366 0.00480112 0.0
-0.0242404 0.00552065 0.0
-0.0264123 0.00629001 0.0
-0.0288687 0.00711101 0.0
-0.0316258 0.00798324 0.0
-0.0346988 0.00890312 0.0
-0.0381009 0.00986275 0.0
-0.0418409 0.0108484 0.0
-0.0459214 0.0118387 0.0
-0.0503356 0.0128028 0.0
-0.0550631 0.0136981 0.0
-0.0600636 0.0144683 0.0
-0.065261 0.0150426 0.0
-0.0704921 0.0153347 0.0
-0.0753006 0.0152473 0.0
-0.0781726 0.0146642 0.0
-0.0739977 0.013481 0.0
-0.0472336 0.0114887 0.0
0.0415283 0.00868528 0.0
0.265959 0.00453903 0.0
0.701449 0.000975675 0.0
-0.00612754 3.94986e-05 0.0
-0.0121376 0.000222176 0.0
-0.0147021 0.000506324 0.0
-0.0158736 0.000804358 0.0
-0.0166885 0.001123 0.0
-0.017537 0.00145516 0.0
-0.0185501 0.00180581 0.0
-0.0197705 0.00217772 0.0
-0.0212177 0.00257481 0.0
-0.0229063 0.00300057 0.0
-0.0248506 0.00345826 0.0
-0.0270653 0.00395061 0.0
-0.0295652 0.00447947 0.0
-0.0323644 0.00504542 0.0
-0.0354752 0.00564713 0.0
-0.0389063 0.00628059 0.0
-0.0426612 0.00693812 0.0
-0.0467353 0.00760722 0.0
-0.0511132 0.00826912 0.0
-0.055764 0.00889743 0.0
-0.0606357 0.00945662 0.0
-0.0656403 0.00990121 0.0
-0.0706029 0.0101749 0.0
-0.075057 0.0102124 0.0
-0.077477 0.0099327 0.0
-0.072733 0.00925539 0.0
-0.0452482 0.00801301 0.0
0.0443526 0.00616416 0.0
0.269377 0.00327591 0.0
0.703674 0.00071425 0.0
-0.00621511 1.60159e-05 0.0
-0.0123041 8.58597e-05 0.0
-0.0149007 0.000192476 0.0
-0.0160871 0.000304093 0.0
-0.0169132 0.00042409 0.0
-0.0177741 0.000550715 0.0
-0.018802 0.000686466 0.0
-0.02004 0.000833128 0.0
-0.0215078 0.000992993 0.0
-0.0232199 0.00116836 0.0
-0.0251903 0.00136167 0.0
-0.0274334 0.00157536 0.0
-0.0299634 0.00181183 0.0
-0.0327934 0.00207322 0.0
-0.035934 0.00236125 0.0
-0.039392 0.00267677 0.0
-0.0431678 0.00301935 0.0
-0.0472529 0.0033866 0.0
-0.0516266 0.00377332 0.0
-0.0562518 0.00417045 0.0
-0.0610688 0.00456391 0.0
-0.0659813 0.00493329 0.0
-0.0708051 0.00525024 0.0
-0.0750631 0.00547728 0.0
-0.0772144 0.00555931 0.0
-0.072102 0.00542726 0.0
-0.0441046 0.00493341 0.0
0.0461515 0.00398422 0.0
0.271706 0.00221241 0.0
0.705248 0.000505345 0.0
-0.00622534 -7.76434e-06 0.0
-0.0123197 -5.19523e-05 0.0
-0.014918 -0.000124644 0.0
-0.016106 -0.000201251 0.0
-0.0169347 -0.000281795 0.0
-0.0177994 -0.00036268 0.0
-0.0188324 -0.000443912 0.0
-0.0200769 -0.000524702 0.0
-0.0215528 -0.000604381 0.0
-0.0232748 -0.000681785 0.0
-0.0252573 -0.000755271 0.0
-0.0275152 -0.000822544 0.0
-0.0300628 -0.000880526 0.0
-0.0329136 -0.000925208 0.0
-0.0360785 -0.000951513 0.0
-0.0395642 -0.000953186 0.0
-0.0433709 -0.000922767 0.0
-0.0474893 -0.000851688 0.0
-0.0518973 -0.000730593 0.0
-0.0565551 -0.000549995 0.0
-0.0613994 -0.000301421 0.0
-0.0663282 2.07617e-05 0.0
-0.0711489 0.000416191 0.0
-0.0753704 0.000873595 0.0
-0.0774284 0.00135922 0.0
-0.0721249 0.00180523 0.0
-0.0437795 0.00206646 0.0
0.0470026 0.00198849 0.0
0.273064 0.00125618 0.0
0.706254 0.000324269 0.0
-0.00615777 -3.16387e-05 0.0
-0.0121837 -0.000189919 0.0
-0.014753 -0.00044182 0.0
-0.0159293 -0.000706554 0.0
-0.016752 -0.000987643 0.0
-0.0176118 -0.00127622 0.0
-0.0186399 -0.00157487 0.0
-0.0198795 -0.00188388 0.0
-0.0213507 -0.00220428 0.0
-0.0230689 -0.00253617 0.0
-0.0250494 -0.00287881 0.0
-0.027308 -0.0032302 0.0
-0.0298605 -0.0035867 0.0
-0.0327222 -0.00394258 0.0
-0.0359058 -0.00428948 0.0
-0.0394205 -0.00461574 0.0
-0.0432691 -0.00490588 0.0
-0.0474449 -0.00513998 0.0
-0.0519283 -0.00529344 0.0
-0.0566811 -0.00533707 0.0
-0.06164 -0.00523812 0.0
-0.0666998 -0.00496264 0.0
-0.0716595 -0.00448017 0.0
-0.0760098 -0.00377282 0.0
-0.0781503 -0.00285185 0.0
-0.0728246 -0.00178795 0.0
-0.0442813 -0.000742761 0.0
0.0469175 4.0832e-05 0.0
0.273508 0.000316323 0.0
0.706743 0.000145917 0.0
-0.00601259 -5.5364e-05 0.0
-0.0118968 -0.000326594 0.0
-0.0144068 -0.000755712 0.0
-0.0155581 -0.00120656 0.0
-0.0163658 -0.00168625 0.0
-0.0172119 -0.00218086 0.0
-0.0182248 -0.00269562 0.0
-0.0194474 -0.00323206 0.0
-0.0209004 -0.00379313 0.0
-0.0226002 -0.00438041 0.0
-0.0245632 -0.00499439 0.0
-0.0268071 -0.00563374 0.0
-0.0293502 -0.00629476 0.0
-0.0322106 -0.00697051 0.0
-0.035405 -0.0076499 0.0
-0.0389474 -0.0083165 0.0
-0.0428462 -0.00894721 0.0
-0.0471013 -0.00951101 0.0
-0.0516998 -0.00996773 0.0
-0.0566102 -0.0102674 0.0
-0.0617738 -0.0103508 0.0
-0.0670865 -0.010152 0.0
-0.0723397 -0.00960393 0.0
-0.0770011 -0.00865266 0.0
-0.079418 -0.0072798 0.0
-0.0742425 -0.00555382 0.0
-0.04561 -0.00365947 0.0
0.0459429 -0.00195377 0.0
0.273012 -0.000645396 0.0
0.706677 -4.1761e-05 0.0
-0.00579097 -7.86495e-05 0.0
-0.0114615 -0.000460418 0.0
-0.0138824 -0.00106285 0.0
-0.0149953 -0.00169583 0.0
-0.015779 -0.00237017 0.0
-0.016602 -0.00306717 0.0
-0.0175889 -0.00379486 0.0
-0.0187819 -0.00455622 0.0
-0.0202023 -0.0053564 0.0
-0.0218675 -0.00619886 0.0
-0.0237959 -0.00708581 0.0
-0.0260073 -0.00801724 0.0
-0.0285234 -0.00899016 0.0
-0.0313665 -0.00999744 0.0
-0.0345592 -0.0110264 0.0
-0.0381224 -0.012057 0.0
-0.0420736 -0.0130598 0.0
-0.0464233 -0.0139937 0.0
-0.0511707 -0.0148033 0.0
-0.0562968 -0.0154172 0.0
-0.0617545 -0.015747 0.0
-0.0674464 -0.0156894 0.0
-0.0731597 -0.0151328 0.0
-0.0783364 -0.0139749 0.0
-0.0812568 -0.0121539 0.0
-0.0764506 -0.00972239 0.0
-0.0478935 -0.00688233 0.0
0.0439525 -0.00411465 0.0
0.271571 -0.00165961 0.0
0.706051 -0.00023803 0.0
-0.00549491 -0.000101204 0.0
-0.0108818 -0.000589788 0.0
-0.0131846 -0.00135963 0.0
-0.0142459 -0.00216872 0.0
-0.0149964 -0.00303161 0.0
-0.0157866 -0.00392522 0.0
-0.016736 -0.00486053 0.0
-0.0178858 -0.00584227 0.0
-0.0192578 -0.00687813 0.0
-0.0208707 -0.00797392 0.0
-0.0227447 -0.00913425 0.0
-0.0249026 -0.0103613 0.0
-0.0273696 -0.011654 0.0
-0.0301738 -0.0130063 0.0
-0.0333447 -0.0144059 0.0
-0.036913 -0.015831 0.0
-0.0409082 -0.0172482 0.0
-0.0453563 -0.0186084 0.0
-0.0502745 -0.0198425 0.0
-0.0556645 -0.0208579 0.0
-0.0614996 -0.0215352 0.0
-0.0676992 -0.0217272 0.0
-0.0740544 -0.0212656 0.0
-0.0799823 -0.0199807 0.0
-0.0836819 -0.0177431 0.0
-0.0795214 -0.0145646 0.0
-0.0512516 -0.0106562 0.0
0.0408006 -0.00664163 0.0
0.269048 -0.0028357 0.0
0.704815 -0.000462412 0.0
-0.00512737 -0.000122736 0.0
-0.0101637 -0.000713068 0.0
-0.0123203 -0.00164235 0.0
-0.0133172 -0.00261937 0.0
-0.0140249 -0.00366243 0.0
-0.0147724 -0.00474454 0.0
-0.0156722 -0.0058798 0.0
-0.0167643 -0.00707497 0.0
-0.0180707 -0.00834066 0.0
-0.0196113 -0.00968563 0.0
-0.0214084 -0.0111177 0.0
-0.0234874 -0.0126422 0.0
-0.025878 -0.0142614 0.0
-0.028614 -0.0159726 0.0
-0.0317336 -0.0177656 0.0
-0.0352788 -0.0196206 0.0
-0.0392946 -0.0215033 0.0
-0.0438269 -0.0233603 0.0
-0.0489184 -0.0251129 0.0
-0.054601 -0.0266496 0.0
-0.060882 -0.0278192 0.0
-0.067713 -0.0284255 0.0
-0.0749052 -0.0282288 0.0
-0.0818605 -0.0269655 0.0
-0.0866869 -0.0244007 0.0
-0.0835449 -0.0204601 0.0
-0.0558666 -0.0153406 0.0
0.0362546 -0.00982257 0.0
0.265223 -0.00435009 0.0
0.70283 -0.000764034 0.0
-0.00469223 -0.00014296 0.0
-0.0093147 -0.000828596 0.0
-0.0112987 -0.00190719 0.0
-0.0122186 -0.0030417 0.0
-0.0128741 -0.00425413 0.0
-0.0135685 -0.00551412 0.0
-0.0144061 -0.00683897 0.0
-0.015425 -0.00823779 0.0
-0.0166473 -0.00972448 0.0
-0.0180938 -0.0113113 0.0
-0.0197881 -0.0130101 0.0
-0.0217587 -0.0148308 0.0
-0.024039 -0.0167804 0.0
-0.0266691 -0.0188617 0.0
-0.0296958 -0.0210704 0.0
-0.0331741 -0.0233918 0.0
-0.0371667 -0.0257962 0.0
-0.0417442 -0.0282322 0.0
-0.0469818 -0.0306177 0.0
-0.0529538 -0.0328291 0.0
-0.0597185 -0.0346874 0.0
-0.0672842 -0.0359451 0.0
-0.0755104 -0.0362779 0.0
-0.0838097 -0.0352956 0.0
-0.0902023 -0.0326026 0.0
-0.0885908 -0.0279618 0.0
-0.0619582 -0.0214999 0.0
0.0299867 -0.0141347 0.0
0.25973 -0.00650915 0.0
0.699823 -0.00123579 0.0
-0.00419422 -0.000161633 0.0
-0.00834425 -0.00093474 0.0
-0.0101308 -0.00215029 0.0
-0.0109618 -0.00342948 0.0
-0.0115558 -0.00479789 0.0
-0.0121866 -0.00622238 0.0
-0.0129491 -0.00772348 0.0
-0.0138788 -0.00931288 0.0
-0.0149973 -0.0110081 0.0
-0.0163257 -0.0128254 0.0
-0.0178889 -0.0147814 0.0
-0.0197169 -0.0168918 0.0
-0.0218467 -0.0191704 0.0
-0.0243235 -0.0216277 0.0
-0.0272026 -0.0242688 0.0
-0.0305514 -0.0270894 0.0
-0.0344519 -0.0300711 0.0
-0.0390021 -0.033173 0.0
-0.0443169 -0.0363209 0.0
-0.0505252 -0.0393915 0.0
-0.0577582 -0.0421904 0.0
-0.0661138 -0.0444259 0.0
-0.075547 -0.0456838 0.0
-0.0855338 -0.0454147 0.0
-0.0940394 -0.0429915 0.0
-0.0946718 -0.0378934 0.0
-0.0698015 -0.0300557 0.0
0.0214869 -0.0204237 0.0
0.251932 -0.00990398 0.0
0.695238 -0.0020729 0.0
-0.00363928 -0.000178544 0.0
-0.00726411 -0.00102978 0.0
-0.00883071 -0.00236743 0.0
-0.00956172 -0.00377593 0.0
-0.0100853 -0.0052841 0.0
-0.0106422 -0.00685666 0.0
-0.0113167 -0.00851725 0.0
-0.0121409 -0.0102803 0.0
-0.0131355 -0.012167 0.0
-0.014321 -0.0141982 0.0
-0.0157224 -0.0163958 0.0
-0.0173704 -0.0187822 0.0
-0.0193037 -0.0213797 0.0
-0.021571 -0.0242091 0.0
-0.0242342 -0.0272886 0.0
-0.0273714 -0.0306299 0.0
-0.031082 -0.0342339 0.0
-0.035492 -0.0380822 0.0
-0.0407593 -0.0421247 0.0
-0.0470778 -0.046259 0.0
-0.0546741 -0.0503015 0.0
-0.0637771 -0.0539422 0.0
-0.0745043 -0.0566933 0.0
-0.0864874 -0.0578319 0.0
-0.097726 -0.0564268 0.0
-0.101546 -0.0515042 0.0
-0.0795367 -0.042571 0.0
0.0101899 -0.0302872 0.0
0.240896 -0.0157341 0.0
0.68806 -0.00369793 0.0
-0.00303313 -0.000193617 0.0
-0.00608669 -0.00111176 0.0
-0.00741329 -0.00255328 0.0
-0.00803417 -0.00407234 0.0
-0.00847869 -0.0057004 0.0
-0.00895176 -0.00740069 0.0
-0.00952556 -0.00919962 0.0
-0.0102284 -0.0111143 0.0
-0.0110789 -0.0131696 0.0
-0.0120963 -0.0153909 0.0
-0.0133042 -0.0178059 0.0
-0.0147322 -0.0204443 0.0
-0.0164187 -0.0233378 0.0
-0.0184132 -0.0265198 0.0
-0.0207799 -0.0300247 0.0
-0.0236034 -0.0338857 0.0
-0.0269958 -0.0381316 0.0
-0.0311059 -0.0427801 0.0
-0.0361321 -0.0478256 0.0
-0.0423369 -0.0532183 0.0
-0.0500586 -0.0588279 0.0
-0.0597009 -0.0643826 0.0
-0.0716313 -0.0693816 0.0
-0.085783 -0.0729686 0.0
-0.100381 -0.0738783 0.0
-0.108621 -0.0704969 0.0
-0.0912558 -0.0615034 0.0
-0.00508821 -0.0466677 0.0
0.22449 -0.0264857 0.0
0.675861 -0.00707933 0.0
-0.00238598 -0.000206027 0.0
-0.00483272 -0.00117553 0.0
-0.00590309 -0.00269633 0.0
-0.00640546 -0.00430104 0.0
-0.00676351 -0.00602253 0.0
-0.00714417 -0.00782315 0.0
-0.00760636 -0.00973143 0.0
-0.00817375 -0.0117668 0.0
-0.00886218 -0.0139576 0.0
-0.00968835 -0.0163333 0.0
-0.010673 -0.018927 0.0
-0.011843 -0.0217757 0.0
-0.0132331 -0.0249209 0.0
-0.0148897 -0.0284092 0.0
-0.0168745 -0.0322931 0.0
-0.0192712 -0.036631 0.0
-0.0221948 -0.0414868 0.0
-0.0258052 -0.046927 0.0
-0.0303274 -0.0530135 0.0
-0.0360793 -0.0597873 0.0
-0.043507 -0.0672355 0.0
-0.0532098 -0.075222 0.0
-0.065882 -0.0833707 0.0