# vtk DataFile Version 3.0
Malha 2D com triângulos e temperatura
ASCII
DATASET UNSTRUCTURED_GRID

POINTS 961 double
0 0 0
1 0 0
1 1 0
0 1 0
0.0333333 0 0
0.0666667 0 0
0.1 0 0
0.133333 0 0
0.166667 0 0
0.2 0 0
0.233333 0 0
0.266667 0 0
0.3 0 0
0.333333 0 0
0.366667 0 0
0.4 0 0
0.433333 0 0
0.466667 0 0
0.5 0 0
0.533333 0 0
0.566667 0 0
0.6 0 0
0.633333 0 0
0.666667 0 0
0.7 0 0
0.733333 0 0
0.766667 0 0
0.8 0 0
0.833333 0 0
0.866667 0 0
0.9 0 0
0.933333 0 0
0.966667 0 0
1 0.0333333 0
1 0.0666667 0
1 0.1 0
1 0.133333 0
1 0.166667 0
1 0.2 0
1 0.233333 0
1 0.266667 0
1 0.3 0
1 0.333333 0
1 0.366667 0
1 0.4 0
1 0.433333 0
1 0.466667 0
1 0.5 0
1 0.533333 0
1 0.566667 0
1 0.6 0
1 0.633333 0
1 0.666667 0
1 0.7 0
1 0.733333 0
1 0.766667 0
1 0.8 0
1 0.833333 0
1 0.866667 0
1 0.9 0
1 0.933333 0
1 0.966667 0
0.966667 1 0
0.933333 1 0
0.9 1 0
0.866667 1 0
0.833333 1 0
0.8 1 0
0.766667 1 0
0.733333 1 0
0.7 1 0
0.666667 1 0
0.633333 1 0
0.6 1 0
0.566667 1 0
0.533333 1 0
0.5 1 0
0.466667 1 0
0.433333 1 0
0.4 1 0
0.366667 1 0
0.333333 1 0
0.3 1 0
0.266667 1 0
0.233333 1 0
0.2 1 0
0.166667 1 0
0.133333 1 0
0.1 1 0
0.0666667 1 0
0.0333333 1 0
0 0.966667 0
0 0.933333 0
0 0.9 0
0 0.866667 0
0 0.833333 0
0 0.8 0
0 0.766667 0
0 0.733333 0
0 0.7 0
0 0.666667 0
0 0.633333 0
0 0.6 0
0 0.566667 0
0 0.533333 0
0 0.5 0
0 0.466667 0
0 0.433333 0
0 0.4 0
0 0.366667 0
0 0.333333 0
0 0.3 0
0 0.266667 0
0 0.233333 0
0 0.2 0
0 0.166667 0
0 0.133333 0
0 0.1 0
0 0.0666667 0
0 0.0333333 0
0.0333333 0.0333333 0
0.0333333 0.0666667 0
0.0333333 0.1 0
0.0333333 0.133333 0
0.0333333 0.166667 0
0.0333333 0.2 0
0.0333333 0.233333 0
0.0333333 0.266667 0
0.0333333 0.3 0
0.0333333 0.333333 0
0.0333333 0.366667 0
0.0333333 0.4 0
0.0333333 0.433333 0
0.0333333 0.466667 0
0.0333333 0.5 0
0.0333333 0.533333 0
0.0333333 0.566667 0
0.0333333 0.6 0
0.0333333 0.633333 0
0.0333333 0.666667 0
0.0333333 0.7 0
0.0333333 0.733333 0
0.0333333 0.766667 0
0.0333333 0.8 0
0.0333333 0.833333 0
0.0333333 0.866667 0
0.0333333 0.9 0
0.0333333 0.933333 0
0.0333333 0.966667 0
0.0666667 0.0333333 0
0.0666667 0.0666667 0
0.0666667 0.1 0
0.0666667 0.133333 0
0.0666667 0.166667 0
0.0666667 0.2 0
0.0666667 0.233333 0
0.0666667 0.266667 0
0.0666667 0.3 0
0.0666667 0.333333 0
0.0666667 0.366667 0
0.0666667 0.4 0
0.0666667 0.433333 0
0.0666667 0.466667 0
0.0666667 0.5 0
0.0666667 0.533333 0
0.0666667 0.566667 0
0.0666667 0.6 0
0.0666667 0.633333 0
0.0666667 0.666667 0
0.0666667 0.7 0
0.0666667 0.733333 0
0.0666667 0.766667 0
0.0666667 0.8 0
0.0666667 0.833333 0
0.0666667 0.866667 0
0.0666667 0.9 0
0.0666667 0.933333 0
0.0666667 0.966667 0
0.1 0.0333333 0
0.1 0.0666667 0
0.1 0.1 0
0.1 0.133333 0
0.1 0.166667 0
0.1 0.2 0
0.1 0.233333 0
0.1 0.266667 0
0.1 0.3 0
0.1 0.333333 0
0.1 0.366667 0
0.1 0.4 0
0.1 0.433333 0
0.1 0.466667 0
0.1 0.5 0
0.1 0.533333 0
0.1 0.566667 0
0.1 0.6 0
0.1 0.633333 0
0.1 0.666667 0
0.1 0.7 0
0.1 0.733333 0
0.1 0.766667 0
0.1 0.8 0
0.1 0.833333 0
0.1 0.866667 0
0.1 0.9 0
0.1 0.933333 0
0.1 0.966667 0
0.133333 0.0333333 0
0.133333 0.0666667 0
0.133333 0.1 0
0.133333 0.133333 0
0.133333 0.166667 0
0.133333 0.2 0
0.133333 0.233333 0
0.133333 0.266667 0
0.133333 0.3 0
0.133333 0.333333 0
0.133333 0.366667 0
0.133333 0.4 0
0.133333 0.433333 0
0.133333 0.466667 0
0.133333 0.5 0
0.133333 0.533333 0
0.133333 0.566667 0
0.133333 0.6 0
0.133333 0.633333 0
0.133333 0.666667 0
0.133333 0.7 0
0.133333 0.733333 0
0.133333 0.766667 0
0.133333 0.8 0
0.133333 0.833333 0
0.133333 0.866667 0
0.133333 0.9 0
0.133333 0.933333 0
0.133333 0.966667 0
0.166667 0.0333333 0
0.166667 0.0666667 0
0.166667 0.1 0
0.166667 0.133333 0
0.166667 0.166667 0
0.166667 0.2 0
0.166667 0.233333 0
0.166667 0.266667 0
0.166667 0.3 0
0.166667 0.333333 0
0.166667 0.366667 0
0.166667 0.4 0
0.166667 0.433333 0
0.166667 0.466667 0
0.166667 0.5 0
0.166667 0.533333 0
0.166667 0.566667 0
0.166667 0.6 0
0.166667 0.633333 0
0.166667 0.666667 0
0.166667 0.7 0
0.166667 0.733333 0
0.166667 0.766667 0
0.166667 0.8 0
0.166667 0.833333 0
0.166667 0.866667 0
0.166667 0.9 0
0.166667 0.933333 0
0.166667 0.966667 0
0.2 0.0333333 0
0.2 0.0666667 0
0.2 0.1 0
0.2 0.133333 0
0.2 0.166667 0
0.2 0.2 0
0.2 0.233333 0
0.2 0.266667 0
0.2 0.3 0
0.2 0.333333 0
0.2 0.366667 0
0.2 0.4 0
0.2 0.433333 0
0.2 0.466667 0
0.2 0.5 0
0.2 0.533333 0
0.2 0.566667 0
0.2 0.6 0
0.2 0.633333 0
0.2 0.666667 0
0.2 0.7 0
0.2 0.733333 0
0.2 0.766667 0
0.2 0.8 0
0.2 0.833333 0
0.2 0.866667 0
0.2 0.9 0
0.2 0.933333 0
0.2 0.966667 0
0.233333 0.0333333 0
0.233333 0.0666667 0
0.233333 0.1 0
0.233333 0.133333 0
0.233333 0.166667 0
0.233333 0.2 0
0.233333 0.233333 0
0.233333 0.266667 0
0.233333 0.3 0
0.233333 0.333333 0
0.233333 0.366667 0
0.233333 0.4 0
0.233333 0.433333 0
0.233333 0.466667 0
0.233333 0.5 0
0.233333 0.533333 0
0.233333 0.566667 0
0.233333 0.6 0
0.233333 0.633333 0
0.233333 0.666667 0
0.233333 0.7 0
0.233333 0.733333 0
0.233333 0.766667 0
0.233333 0.8 0
0.233333 0.833333 0
0.233333 0.866667 0
0.233333 0.9 0
0.233333 0.933333 0
0.233333 0.966667 0
0.266667 0.0333333 0
0.266667 0.0666667 0
0.266667 0.1 0
0.266667 0.133333 0
0.266667 0.166667 0
0.266667 0.2 0
0.266667 0.233333 0
0.266667 0.266667 0
0.266667 0.3 0
0.266667 0.333333 0
0.266667 0.366667 0
0.266667 0.4 0
0.266667 0.433333 0
0.266667 0.466667 0
0.266667 0.5 0
0.266667 0.533333 0
0.266667 0.566667 0
0.266667 0.6 0
0.266667 0.633333 0
0.266667 0.666667 0
0.266667 0.7 0
0.266667 0.733333 0
0.266667 0.766667 0
0.266667 0.8 0
0.266667 0.833333 0
0.266667 0.866667 0
0.266667 0.9 0
0.266667 0.933333 0
0.266667 0.966667 0
0.3 0.0333333 0
0.3 0.0666667 0
0.3 0.1 0
0.3 0.133333 0
0.3 0.166667 0
0.3 0.2 0
0.3 0.233333 0
0.3 0.266667 0
0.3 0.3 0
0.3 0.333333 0
0.3 0.366667 0
0.3 0.4 0
0.3 0.433333 0
0.3 0.466667 0
0.3 0.5 0
0.3 0.533333 0
0.3 0.566667 0
0.3 0.6 0
0.3 0.633333 0
0.3 0.666667 0
0.3 0.7 0
0.3 0.733333 0
0.3 0.766667 0
0.3 0.8 0
0.3 0.833333 0
0.3 0.866667 0
0.3 0.9 0
0.3 0.933333 0
0.3 0.966667 0
0.333333 0.0333333 0
0.333333 0.0666667 0
0.333333 0.1 0
0.333333 0.133333 0
0.333333 0.166667 0
0.333333 0.2 0
0.333333 0.233333 0
0.333333 0.266667 0
0.333333 0.3 0
0.333333 0.333333 0
0.333333 0.366667 0
0.333333 0.4 0
0.333333 0.433333 0
0.333333 0.466667 0
0.333333 0.5 0
0.333333 0.533333 0
0.333333 0.566667 0
0.333333 0.6 0
0.333333 0.633333 0
0.333333 0.666667 0
0.333333 0.7 0
0.333333 0.733333 0
0.333333 0.766667 0
0.333333 0.8 0
0.333333 0.833333 0
0.333333 0.866667 0
0.333333 0.9 0
0.333333 0.933333 0
0.333333 0.966667 0
0.366667 0.0333333 0
0.366667 0.0666667 0
0.366667 0.1 0
0.366667 0.133333 0
0.366667 0.166667 0
0.366667 0.2 0
0.366667 0.233333 0
0.366667 0.266667 0
0.366667 0.3 0
0.366667 0.333333 0
0.366667 0.366667 0
0.366667 0.4 0
0.366667 0.433333 0
0.366667 0.466667 0
0.366667 0.5 0
0.366667 0.533333 0
0.366667 0.566667 0
0.366667 0.6 0
0.366667 0.633333 0
0.366667 0.666667 0
0.366667 0.7 0
0.366667 0.733333 0
0.366667 0.766667 0
0.366667 0.8 0
0.366667 0.833333 0
0.366667 0.866667 0
0.366667 0.9 0
0.366667 0.933333 0
0.366667 0.966667 0
0.4 0.0333333 0
0.4 0.0666667 0
0.4 0.1 0
0.4 0.133333 0
0.4 0.166667 0
0.4 0.2 0
0.4 0.233333 0
0.4 0.266667 0
0.4 0.3 0
0.4 0.333333 0
0.4 0.366667 0
0.4 0.4 0
0.4 0.433333 0
0.4 0.466667 0
0.4 0.5 0
0.4 0.533333 0
0.4 0.566667 0
0.4 0.6 0
0.4 0.633333 0
0.4 0.666667 0
0.4 0.7 0
0.4 0.733333 0
0.4 0.766667 0
0.4 0.8 0
0.4 0.833333 0
0.4 0.866667 0
0.4 0.9 0
0.4 0.933333 0
0.4 0.966667 0
0.433333 0.0333333 0
0.433333 0.0666667 0
0.433333 0.1 0
0.433333 0.133333 0
0.433333 0.166667 0
0.433333 0.2 0
0.433333 0.233333 0
0.433333 0.266667 0
0.433333 0.3 0
0.433333 0.333333 0
0.433333 0.366667 0
0.433333 0.4 0
0.433333 0.433333 0
0.433333 0.466667 0
0.433333 0.5 0
0.433333 0.533333 0
0.433333 0.566667 0
0.433333 0.6 0
0.433333 0.633333 0
0.433333 0.666667 0
0.433333 0.7 0
0.433333 0.733333 0
0.433333 0.766667 0
0.433333 0.8 0
0.433333 0.833333 0
0.433333 0.866667 0
0.433333 0.9 0
0.433333 0.933333 0
0.433333 0.966667 0
0.466667 0.0333333 0
0.466667 0.0666667 0
0.466667 0.1 0
0.466667 0.133333 0
0.466667 0.166667 0
0.466667 0.2 0
0.466667 0.233333 0
0.466667 0.266667 0
0.466667 0.3 0
0.466667 0.333333 0
0.466667 0.366667 0
0.466667 0.4 0
0.466667 0.433333 0
0.466667 0.466667 0
0.466667 0.5 0
0.466667 0.533333 0
0.466667 0.566667 0
0.466667 0.6 0
0.466667 0.633333 0
0.466667 0.666667 0
0.466667 0.7 0
0.466667 0.733333 0
0.466667 0.766667 0
0.466667 0.8 0
0.466667 0.833333 0
0.466667 0.866667 0
0.466667 0.9 0
0.466667 0.933333 0
0.466667 0.966667 0
0.5 0.0333333 0
0.5 0.0666667 0
0.5 0.1 0
0.5 0.133333 0
0.5 0.166667 0
0.5 0.2 0
0.5 0.233333 0
0.5 0.266667 0
0.5 0.3 0
0.5 0.333333 0
0.5 0.366667 0
0.5 0.4 0
0.5 0.433333 0
0.5 0.466667 0
0.5 0.5 0
0.5 0.533333 0
0.5 0.566667 0
0.5 0.6 0
0.5 0.633333 0
0.5 0.666667 0
0.5 0.7 0
0.5 0.733333 0
0.5 0.766667 0
0.5 0.8 0
0.5 0.833333 0
0.5 0.866667 0
0.5 0.9 0
0.5 0.933333 0
0.5 0.966667 0
0.533333 0.0333333 0
0.533333 0.0666667 0
0.533333 0.1 0
0.533333 0.133333 0
0.533333 0.166667 0
0.533333 0.2 0
0.533333 0.233333 0
0.533333 0.266667 0
0.533333 0.3 0
0.533333 0.333333 0
0.533333 0.366667 0
0.533333 0.4 0
0.533333 0.433333 0
0.533333 0.466667 0
0.533333 0.5 0
0.533333 0.533333 0
0.533333 0.566667 0
0.533333 0.6 0
0.533333 0.633333 0
0.533333 0.666667 0
0.533333 0.7 0
0.533333 0.733333 0
0.533333 0.766667 0
0.533333 0.8 0
0.533333 0.833333 0
0.533333 0.866667 0
0.533333 0.9 0
0.533333 0.933333 0
0.533333 0.966667 0
0.566667 0.0333333 0
0.566667 0.0666667 0
0.566667 0.1 0
0.566667 0.133333 0
0.566667 0.166667 0
0.566667 0.2 0
0.566667 0.233333 0
0.566667 0.266667 0
0.566667 0.3 0
0.566667 0.333333 0
0.566667 0.366667 0
0.566667 0.4 0
0.566667 0.433333 0
0.566667 0.466667 0
0.566667 0.5 0
0.566667 0.533333 0
0.566667 0.566667 0
0.566667 0.6 0
0.566667 0.633333 0
0.566667 0.666667 0
0.566667 0.7 0
0.566667 0.733333 0
0.566667 0.766667 0
0.566667 0.8 0
0.566667 0.833333 0
0.566667 0.866667 0
0.566667 0.9 0
0.566667 0.933333 0
0.566667 0.966667 0
0.6 0.0333333 0
0.6 0.0666667 0
0.6 0.1 0
0.6 0.133333 0
[...]
CELL_DATA 900
VECTORS velocity double
-5.34267e-05 5.38811e-05 0.0
-0.000178254 0.000437855 0.0
-0.000218916 0.00108706 0.0
-0.000233967 0.00175992 0.0
-0.000242814 0.00247568 0.0
-0.000254174 0.0032196 0.0
-0.00026911 0.00400581 0.0
-0.000288065 0.00484356 0.0
-0.000311277 0.00574517 0.0
-0.000339196 0.00672365 0.0
-0.00037246 0.00779384 0.0
-0.000411944 0.00897284 0.0
-0.000458824 0.0102808 0.0
-0.000514699 0.0117418 0.0
-0.000581782 0.0133856 0.0
-0.000663216 0.0152495 0.0
-0.000763628 0.0173816 0.0
-0.000890156 0.0198459 0.0
-0.00105449 0.0227304 0.0
-0.00127719 0.026161 0.0
-0.00159752 0.0303278 0.0
-0.00209604 0.0355306 0.0
-0.00294854 0.0422955 0.0
-0.00454585 0.0515168 0.0
-0.00773375 0.0651211 0.0
-0.0141317 0.0860046 0.0
-0.0255056 0.121759 0.0
-0.0393662 0.17227 0.0
-0.015121 0.256827 0.0
0.21847 0.174647 0.0
-0.000439122 0.000178759 0.0
-0.000953089 0.000947194 0.0
-0.00113936 0.00211268 0.0
-0.00121839 0.00332398 0.0
-0.00127476 0.00461493 0.0
-0.00134032 0.00596318 0.0
-0.00142241 0.00739041 0.0
-0.00152407 0.00891246 0.0
-0.00164744 0.0105507 0.0
-0.0017952 0.012328 0.0
-0.00197087 0.014271 0.0
-0.00217911 0.0164099 0.0
-0.00242613 0.0187806 0.0
-0.0027203 0.0214256 0.0
-0.00307312 0.024397 0.0
-0.00350071 0.02776 0.0
-0.00402628 0.0315974 0.0
-0.00468417 0.0360175 0.0
-0.00552712 0.0411653 0.0
-0.0066394 0.0472396 0.0
-0.00816216 0.0545202 0.0
-0.0103435 0.0634035 0.0
-0.0136381 0.0744794 0.0
-0.0188963 0.0885215 0.0
-0.0276138 0.106782 0.0
-0.0420272 0.129906 0.0
-0.0624321 0.159137 0.0
-0.0789181 0.184776 0.0
-0.0224859 0.190622 0.0
0.298516 0.111258 0.0
-0.00108079 0.00021311 0.0
-0.00210975 0.00109784 0.0
-0.00249441 0.00242062 0.0
-0.00266338 0.00378826 0.0
-0.00279162 0.00524326 0.0
-0.00293812 0.00676212 0.0
-0.00311953 0.00836934 0.0
-0.00334258 0.0100825 0.0
-0.00361233 0.011925 0.0
-0.00393465 0.0139221 0.0
-0.00431708 0.0161022 0.0
-0.00476946 0.0184981 0.0
-0.00530478 0.0211477 0.0
-0.00594039 0.0240954 0.0
-0.00669985 0.0273948 0.0
-0.00761577 0.031111 0.0
-0.00873409 0.0353247 0.0
-0.0101211 0.0401379 0.0
-0.0118748 0.0456805 0.0
-0.0141435 0.0521207 0.0
-0.0171579 0.0596778 0.0
-0.0212844 0.0686302 0.0
-0.0271097 0.0793366 0.0
-0.0355587 0.0921453 0.0
-0.0478448 0.107439 0.0
-0.0648034 0.124649 0.0
-0.0819096 0.142087 0.0
-0.0765799 0.151679 0.0
0.038421 0.131795 0.0
0.448325 0.0685531 0.0
-0.00171712 0.000216679 0.0
-0.00325773 0.00111321 0.0
-0.00383179 0.0024481 0.0
-0.00408467 0.00382364 0.0
-0.00428098 0.00528592 0.0
-0.00450546 0.00681119 0.0
-0.00478296 0.00842425 0.0
-0.00512331 0.0101421 0.0
-0.00553403 0.0119877 0.0
-0.00602373 0.013985 0.0
-0.00660334 0.0161611 0.0
-0.00728693 0.0185467 0.0
-0.0080929 0.0211762 0.0
-0.00904549 0.0240897 0.0
-0.0101771 0.0273335 0.0
-0.0115316 0.030962 0.0
-0.0131696 0.0350397 0.0
-0.0151758 0.0396427 0.0
-0.0176709 0.0448611 0.0
-0.0208295 0.0507988 0.0
-0.0249081 0.0575706 0.0
-0.0302869 0.0652868 0.0
-0.0375221 0.074029 0.0
-0.0473882 0.0837295 0.0
-0.0606477 0.0940923 0.0
-0.0769494 0.103947 0.0
-0.0891882 0.110748 0.0
-0.0686404 0.109235 0.0
0.0749596 0.0843611 0.0
0.521072 0.0401289 0.0
-0.00235214 0.000208128 0.0
-0.00440343 0.00107564 0.0
-0.00516362 0.0023681 0.0
-0.00549895 0.00369739 0.0
-0.00576202 0.00510947 0.0
-0.00606303 0.00658083 0.0
-0.00643458 0.00813536 0.0
-0.00688934 0.00978885 0.0
-0.00743694 0.0115624 0.0
-0.00808826 0.0134778 0.0
-0.0088569 0.0155594 0.0
-0.00976023 0.0178337 0.0
-0.0108206 0.02033 0.0
-0.0120669 0.023081 0.0
-0.0135371 0.0261227 0.0
-0.0152817 0.0294952 0.0
-0.017368 0.0332424 0.0
-0.0198877 0.0374108 0.0
-0.022966 0.0420471 0.0
-0.0267757 0.0471926 0.0
-0.0315559 0.0528714 0.0
-0.0376354 0.0590647 0.0
-0.0454497 0.0656737 0.0
-0.0555128 0.072415 0.0
-0.068071 0.0787219 0.0
-0.0817256 0.0833994 0.0
-0.0876414 0.0841081 0.0
-0.0538166 0.0777111 0.0
0.109483 0.054199 0.0
0.567781 0.0229683 0.0
-0.00295318 0.000196402 0.0
-0.00549195 0.00101763 0.0
-0.00642782 0.00224132 0.0
-0.00684013 0.0034986 0.0
-0.007165 0.00483336 0.0
-0.00753685 0.00622274 0.0
-0.00799533 0.00768901 0.0
-0.00855547 0.00924632 0.0
-0.00922847 0.0109135 0.0
-0.0100268 0.0127098 0.0
-0.0109658 0.0146559 0.0
-0.0120648 0.0167738 0.0
-0.0133482 0.019087 0.0
-0.0148473 0.0216201 0.0
-0.0166018 0.0243986 0.0
-0.0186633 0.0274482 0.0
-0.021099 0.0307929 0.0
-0.0239969 0.0344522 0.0
-0.0274724 0.0384361 0.0
-0.0316775 0.0427362 0.0
-0.03681 0.0473108 0.0
-0.0431231 0.0520595 0.0
-0.050918 0.0567863 0.0
-0.0604756 0.0611268 0.0
-0.071665 0.0644686 0.0
-0.0824381 0.0658129 0.0
-0.0830773 0.0633606 0.0
-0.0401677 0.0554248 0.0
0.13483 0.0358201 0.0
0.596658 0.013426 0.0
-0.00351765 0.000182414 0.0
-0.00651487 0.000945983 0.0
-0.00761513 0.00208362 0.0
-0.00809908 0.00325171 0.0
-0.00848086 0.00449097 0.0
-0.0089177 0.00577967 0.0
-0.00945561 0.007138 0.0
-0.0101116 0.00857834 0.0
-0.0108979 0.0101172 0.0
-0.0118278 0.0117707 0.0
-0.0129178 0.0135562 0.0
-0.0141879 0.0154909 0.0
-0.015663 0.0175927 0.0
-0.0173743 0.0198787 0.0
-0.0193605 0.0223647 0.0
-0.0216706 0.0250636 0.0
-0.0243661 0.027983 0.0
-0.0275244 0.0311213 0.0
-0.0312431 0.0344615 0.0
-0.0356435 0.0379622 0.0
-0.0408738 0.0415433 0.0
-0.0471076 0.0450651 0.0
-0.0545233 0.0482997 0.0
-0.0632154 0.0508872 0.0
-0.0727911 0.0522824 0.0
-0.080814 0.0517286 0.0
-0.0771258 0.0479473 0.0
-0.0278029 0.0400863 0.0
0.154344 0.0243741 0.0
0.615355 0.00810621 0.0
-0.00403727 0.00016653 0.0
-0.0074566 0.000863243 0.0
-0.0087076 0.00190081 0.0
-0.00925678 0.00296553 0.0
-0.00968985 0.00409442 0.0
-0.010185 0.00526721 0.0
-0.0107938 0.00650185 0.0
-0.0115348 0.00780889 0.0
-0.012421 0.00920233 0.0
-0.013466 0.0106956 0.0
-0.0146862 0.0123025 0.0
-0.0161016 0.0140362 0.0
-0.0177364 0.0159092 0.0
-0.0196197 0.0179323 0.0
-0.0217874 0.0201132 0.0
-0.0242827 0.022455 0.0
-0.0271583 0.024953 0.0
-0.0304776 0.0275908 0.0
-0.0343165 0.0303345 0.0
-0.0387638 0.0331243 0.0
-0.0439197 0.0358633 0.0
-0.0498886 0.0384018 0.0
-0.0567527 0.0405185 0.0
-0.0644772 0.0418978 0.0
-0.0725094 0.0420996 0.0
-0.0782083 0.0405849 0.0
-0.0712201 0.0364892 0.0
-0.0175041 0.0294313 0.0
0.169043 0.0170935 0.0
0.627914 0.00512428 0.0
-0.00450663 0.000148804 0.0
-0.00830673 0.000770578 0.0
-0.00969325 0.00169598 0.0
-0.0103007 0.00264509 0.0
-0.0107791 0.00365079 0.0
-0.0113255 0.00469468 0.0
-0.0119965 0.00579234 0.0
-0.0128116 0.00695257 0.0
-0.013784 0.008187 0.0
-0.0149274 0.0095065 0.0
-0.0162577 0.0109216 0.0
-0.017794 0.0124421 0.0
-0.0195585 0.0140761 0.0
-0.0215777 0.0158294 0.0
-0.0238828 0.0177036 0.0
-0.0265101 0.0196948 0.0
-0.0295018 0.0217905 0.0
-0.0329063 0.0239656 0.0
-0.0367778 0.0261779 0.0
-0.0411746 0.0283611 0.0
-0.0461553 0.0304162 0.0
-0.0517691 0.0322018 0.0
-0.0580286 0.033523 0.0
-0.0648149 0.034122 0.0
-0.071485 0.0336638 0.0
-0.0753007 0.0317793 0.0
-0.0658349 0.0278992 0.0
-0.00908644 0.0218887 0.0
0.180188 0.0122938 0.0
0.636668 0.00339745 0.0
-0.00492028 0.000129405 0.0
-0.00905531 0.000669173 0.0
-0.0105607 0.00147193 0.0
-0.0112189 0.00229486 0.0
-0.0117366 0.00316636 0.0
-0.012327 0.0040703 0.0
-0.0130511 0.00501985 0.0
-0.0139293 0.00602218 0.0
-0.0149746 0.00708675 0.0
-0.0162003 0.00822208 0.0
-0.0176216 0.00943614 0.0
-0.0192559 0.0107357 0.0
-0.0211234 0.0121257 0.0
-0.0232471 0.0136082 0.0
-0.025653 0.0151811 0.0
-0.02837 0.0168362 0.0
-0.0314299 0.018557 0.0
-0.0348664 0.020315 0.0
-0.0387141 0.0220663 0.0
-0.0430052 0.0237461 0.0
-0.0477649 0.0252633 0.0
-0.0530015 0.0264943 0.0
-0.0586801 0.0272776 0.0
-0.0646313 0.0274128 0.0
-0.0701665 0.0266547 0.0
-0.0725092 0.0247571 0.0
-0.061214 0.0213502 0.0
-0.00236061 0.0164162 0.0
0.188642 0.00901037 0.0
0.642948 0.00235037 0.0
-0.00527359 0.000108537 0.0
-0.00969398 0.000560244 0.0
-0.0113003 0.00123146 0.0
-0.0120014 0.00191924 0.0
-0.0125521 0.00264731 0.0
-0.0131795 0.00340208 0.0
-0.0139478 0.00419438 0.0
-0.0148782 0.00502988 0.0
-0.0159836 0.00591609 0.0
-0.0172765 0.00685953 0.0
-0.0187711 0.00786608 0.0
-0.0204833 0.00894032 0.0
-0.0224308 0.0100849 0.0
-0.0246331 0.0112998 0.0
-0.0271109 0.0125807 0.0
-0.0298863 0.0139179 0.0
-0.0329814 0.015294 0.0
-0.0364169 0.0166813 0.0
-0.0402108 0.0180389 0.0
-0.0443744 0.0193092 0.0
-0.0489072 0.020414 0.0
-0.0537885 0.0212516 0.0
-0.0589528 0.0216948 0.0
-0.0642024 0.0215933 0.0
-0.0688288 0.0207723 0.0
-0.0700455 0.0190703 0.0
-0.0574093 0.0162468 0.0
0.00292485 0.0123275 0.0
0.195052 0.00667457 0.0
0.647546 0.00167907 0.0
-0.00556259 8.64317e-05 0.0
-0.0102157 0.000445051 0.0
-0.0119041 0.000977378 0.0
-0.01264 0.00152264 0.0
-0.0132173 0.00209972 0.0
-0.0138745 0.00269786 0.0
-0.0146785 0.00332557 0.0
-0.0156508 0.00398724 0.0
-0.016804 0.00468859 0.0
-0.0181501 0.00543453 0.0
-0.0197022 0.00622931 0.0
-0.0214747 0.00707601 0.0
-0.0234829 0.00797597 0.0
-0.025743 0.0089281 0.0
-0.0282714 0.00992782 0.0
-0.0310838 0.0109658 0.0
-0.0341941 0.0120263 0.0
-0.0376126 0.0130854 0.0
-0.0413438 0.0141087 0.0
-0.0453827 0.0150487 0.0
-0.0497105 0.0158432 0.0
-0.0542864 0.0164132 0.0
-0.0590259 0.0166629 0.0
-0.0637164 0.0164834 0.0
-0.0676425 0.0157532 0.0
-0.0680192 0.0143665 0.0
-0.0544083 0.0121632 0.0
0.00697605 0.00917681 0.0
0.199876 0.00494478 0.0
0.650945 0.00122299 0.0
-0.00578404 6.33325e-05 0.0
-0.0106147 0.000324869 0.0
-0.0123655 0.000712492 0.0
-0.0131279 0.00110944 0.0
-0.0137256 0.0015296 0.0
-0.0144056 0.00196529 0.0
-0.0152369 0.00242276 0.0
-0.0162411 0.00290523 0.0
-0.0174307 0.00341689 0.0
-0.0188171 0.00396131 0.0
-0.0204125 0.00454152 0.0
-0.0222299 0.00515968 0.0
-0.0242829 0.0058166 0.0
-0.026585 0.00651123 0.0
-0.0291489 0.00723984 0.0
-0.0319853 0.00799516 0.0
-0.0351017 0.00876514 0.0
-0.0385004 0.0095316 0.0
-0.0421757 0.0102687 0.0
-0.0461109 0.0109415 0.0
-0.0502742 0.0115043 0.0
-0.0546114 0.0119003 0.0
-0.0590263 0.0120619 0.0
-0.0632984 0.0119136 0.0
-0.0667109 0.0113727 0.0
-0.0664817 0.010369 0.0
-0.0521722 0.00879069 0.0
0.00997095 0.0066555 0.0
0.203436 0.00360743 0.0
0.653449 0.000894318 0.0
-0.00593543 3.94885e-05 0.0
-0.0108865 0.00020098 0.0
-0.0126796 0.000439605 0.0
-0.0134601 0.00068397 0.0
-0.0140719 0.000942857 0.0
-0.0147678 0.00121183 0.0
-0.0156182 0.0014949 0.0
-0.0166448 0.00179427 0.0
-0.0178599 0.00211274 0.0
-0.0192746 0.00245275 0.0
-0.0209005 0.00281647 0.0
-0.0227497 0.00320555 0.0
-0.0248344 0.00362087 0.0
-0.0271663 0.00406215 0.0
-0.0297555 0.00452752 0.0
-0.0326094 0.00501289 0.0
-0.0357311 0.00551119 0.0
-0.039117 0.00601149 0.0
-0.0427548 0.00649805 0.0
-0.0466198 0.00694924 0.0
-0.0506713 0.00733669 0.0
-0.0548465 0.00762482 0.0
-0.0590416 0.00777088 0.0
-0.0630314 0.00772682 0.0
-0.0660975 0.00743876 0.0
-0.0654568 0.00685788 0.0
-0.0506612 0.00589938 0.0
0.0120365 0.00455095 0.0
0.205952 0.00252297 0.0
0.655252 0.000642686 0.0
-0.00601499 1.5158e-05 0.0
-0.0110282 7.46778e-05 0.0
-0.0128429 0.000161511 0.0
-0.0136329 0.000250517 0.0
-0.0142527 0.000345306 0.0
-0.0149577 0.000444769 0.0
-0.0158191 0.000550709 0.0
-0.0168588 0.000664355 0.0
-0.018089 0.000787208 0.0
-0.0195207 0.000920745 0.0
-0.0211652 0.00106646 0.0
-0.0230342 0.00122577 0.0
-0.0251395 0.00139998 0.0
-0.0274917 0.0015901 0.0
-0.0300997 0.00179668 0.0
-0.0329691 0.00201958 0.0
-0.0361007 0.00225756 0.0
-0.0394878 0.00250793 0.0
-0.0431142 0.0027659 0.0
-0.0469507 0.00302403 0.0
-0.0509513 0.00327147 0.0
-0.0550474 0.00349332 0.0
-0.0591301 0.00367003 0.0
-0.0629694 0.00377719 0.0
-0.0658419 0.00378338 0.0
-0.0649561 0.003652 0.0
-0.0498426 0.00331039 0.0
0.0132628 0.00270541 0.0
0.207568 0.00159239 0.0
0.656474 0.000436087 0.0
-0.00602171 -9.41278e-06 0.0
-0.0110378 -5.27621e-05 0.0
-0.0128534 -0.000118998 0.0
-0.0136445 -0.000186618 0.0
-0.0142659 -0.000257246 0.0
-0.0149732 -0.000328649 0.0
-0.0158376 -0.000401246 0.0
-0.0168812 -0.000474771 0.0
-0.0181162 -0.000549002 0.0
-0.0195537 -0.000623396 0.0
-0.0212054 -0.000697084 0.0
-0.023083 -0.000768761 0.0
-0.0251985 -0.000836586 0.0
-0.0275628 -0.00089807 0.0
-0.0301849 -0.000949954 0.0
-0.0330702 -0.000988111 0.0
-0.0362194 -0.00100746 0.0
-0.0396255 -0.00100199 0.0
-0.0432712 -0.000964848 0.0
-0.0471258 -0.00088867 0.0
-0.0511414 -0.00076618 0.0
-0.0552463 -0.000591173 0.0
-0.059327 -0.000360087 0.0
-0.0631476 -7.44954e-05 0.0
-0.0659743 0.000253853 0.0
-0.0649953 0.000594608 0.0
-0.0497042 0.00087474 0.0
0.0137025 0.000988535 0.0
0.208373 0.000732431 0.0
0.657186 0.000249264 0.0
-0.00595528 -3.40072e-05 0.0
-0.010915 -0.000180099 0.0
-0.0127106 -0.000399111 0.0
-0.0134941 -0.000623096 0.0
-0.0141108 -0.000858944 0.0
-0.0148136 -0.00110113 0.0
-0.015673 -0.00135235 0.0
-0.016711 -0.00161334 0.0
-0.0179403 -0.00188522 0.0
-0.0193725 -0.00216845 0.0
-0.0210197 -0.0024629 0.0
-0.0228946 -0.00276746 0.0
-0.02501 -0.00307987 0.0
-0.0273781 -0.00339626 0.0
-0.0300094 -0.00371077 0.0
-0.0329114 -0.00401505 0.0
-0.0360866 -0.0042977 0.0
-0.0395303 -0.0045438 0.0
-0.0432274 -0.00473455 0.0
-0.0471494 -0.00484714 0.0
-0.051249 -0.00485518 0.0
-0.0554541 -0.00472998 0.0
-0.0596477 -0.00444309 0.0
-0.0635852 -0.00397127 0.0
-0.0665138 -0.00330503 0.0
-0.0655857 -0.00246845 0.0
-0.0502377 -0.00154157 0.0
0.0133798 -0.00069932 0.0
0.208387 -0.000119821 0.0
0.65741 5.89918e-05 0.0
-0.00581607 -5.83761e-05 0.0
-0.0106606 -0.000306024 0.0
-0.0124155 -0.000675952 0.0
-0.0131828 -0.00105449 0.0
-0.0137885 -0.00145381 0.0
-0.0144796 -0.00186523 0.0
-0.0153255 -0.00229376 0.0
-0.0163483 -0.00274128 0.0
-0.017561 -0.00321039 0.0
-0.018976 -0.00370276 0.0
-0.0206063 -0.00421917 0.0
-0.0224659 -0.00475908 0.0
-0.0245696 -0.00532013 0.0
-0.0269317 -0.00589753 0.0
-0.0295657 -0.00648328 0.0
-0.0324829 -0.00706529 0.0
-0.0356902 -0.00762631 0.0
-0.0391881 -0.00814282 0.0
-0.0429673 -0.00858404 0.0
-0.0470047 -0.00891117 0.0
-0.0512582 -0.00907739 0.0
-0.0556582 -0.00902908 0.0
-0.0600861 -0.00870922 0.0
-0.0642866 -0.00806476 0.0
-0.0674803 -0.00705902 0.0
-0.0667635 -0.00570364 0.0
-0.0514824 -0.0040834 0.0
0.0122912 -0.00244985 0.0
0.207636 -0.000988819 0.0
0.657108 -0.000134287 0.0
-0.00560528 -8.22365e-05 0.0
-0.0102769 -0.000429154 0.0
-0.0119707 -0.000946561 0.0
-0.0127132 -0.00147626 0.0
-0.0133012 -0.0020357 0.0
-0.0139734 -0.00261323 0.0
-0.014797 -0.00321628 0.0
-0.0157943 -0.00384803 0.0
-0.0169788 -0.00451278 0.0
-0.0183637 -0.00521368 0.0
-0.0199632 -0.00595285 0.0
-0.0217934 -0.00673078 0.0
-0.0238712 -0.00754563 0.0
-0.0262145 -0.00839246 0.0
-0.0288411 -0.00926204 0.0
-0.0317676 -0.0101395 0.0
-0.0350081 -0.0110029 0.0
-0.0385714 -0.0118209 0.0
-0.0424578 -0.0125513 0.0
-0.0466547 -0.0131391 0.0
-0.0511298 -0.0135155 0.0
-0.0558213 -0.0135986 0.0
-0.0606119 -0.0132968 0.0
-0.0652362 -0.0125182 0.0
-0.0688803 -0.0111879 0.0
-0.0685661 -0.00929299 0.0
-0.0535137 -0.00691572 0.0
0.0103268 -0.00438455 0.0
0.206042 -0.00192129 0.0
0.656296 -0.000330953 0.0
-0.00532488 -0.000105305 0.0
-0.00976752 -0.000548078 0.0
-0.0113804 -0.00120789 0.0
-0.0120895 -0.00188372 0.0
-0.0126531 -0.00259821 0.0
-0.0132986 -0.00333704 0.0
-0.0140909 -0.00411016 0.0
-0.0150518 -0.00492225 0.0
-0.0161954 -0.00577957 0.0
-0.0175359 -0.00668715 0.0
-0.0190891 -0.00764894 0.0
-0.0208729 -0.00866712 0.0
-0.0229076 -0.00974128 0.0
-0.0252148 -0.0108674 0.0
-0.027818 -0.0120364 0.0
-0.0307411 -0.0132324 0.0
-0.0340076 -0.0144301 0.0
-0.0376381 -0.0155926 0.0
-0.0416472 -0.0166675 0.0
-0.0460383 -0.0175843 0.0
-0.0507964 -0.0182512 0.0
-0.0558749 -0.0185539 0.0
-0.0611654 -0.0183582 0.0
-0.0663956 -0.0175198 0.0
-0.0707122 -0.0159065 0.0
-0.0710408 -0.0134589 0.0
-0.0564275 -0.0102421 0.0
0.00736138 -0.00666576 0.0
0.203489 -0.00301972 0.0
0.654907 -0.000560287 0.0
-0.00497768 -0.000127297 0.0
-0.00913763 -0.000661354 0.0
-0.0106504 -0.0014568 0.0
-0.0113176 -0.002272 0.0
-0.0118499 -0.0031347 0.0
-0.012461 -0.00402819 0.0
-0.0132122 -0.00496507 0.0
-0.014125 -0.00595173 0.0
-0.015214 -0.00699671 0.0
-0.0164943 -0.00810732 0.0
-0.0179832 -0.00928995 0.0
-0.0197009 -0.0105493 0.0
-0.0216706 -0.0118875 0.0
-0.0239189 -0.0133029 0.0
-0.0264753 -0.0147884 0.0
-0.0293728 -0.0163293 0.0
-0.0326464 -0.0179 0.0
-0.036332 -0.0194606 0.0
-0.0404635 -0.0209517 0.0
-0.0450679 -0.0222896 0.0
-0.0501567 -0.0233598 0.0
-0.0557106 -0.0240126 0.0
-0.0616433 -0.024062 0.0
-0.0676867 -0.0232929 0.0
-0.0729487 -0.0214879 0.0
-0.0742363 -0.0185025 0.0
-0.0603569 -0.0143563 0.0
0.00320022 -0.0095325 0.0
0.199779 -0.0044335 0.0
0.652803 -0.000868424 0.0
-0.00456733 -0.000147926 0.0
-0.00839384 -0.000767521 0.0
-0.00978823 -0.00169009 0.0
-0.0104053 -0.00263614 0.0
-0.0108993 -0.00363828 0.0
-0.0114678 -0.00467784 0.0
-0.0121678 -0.00577008 0.0
-0.0130203 -0.00692335 0.0
-0.01404 -0.00814874 0.0
-0.0152427 -0.00945631 0.0
-0.0166471 -0.0108555 0.0
-0.0182753 -0.0123545 0.0
-0.0201537 -0.0139592 0.0
-0.0223134 -0.0156721 0.0
-0.0247908 -0.0174904 0.0
-0.0276283 -0.0194035 0.0
-0.0308746 -0.0213894 0.0
-0.0345839 -0.0234098 0.0
-0.0388148 -0.0254037 0.0
-0.043626 -0.0272789 0.0
-0.0490681 -0.0289022 0.0
-0.0551668 -0.0300885 0.0
-0.0618795 -0.0305919 0.0
-0.068966 -0.0301055 0.0
-0.0755089 -0.0282874 0.0
-0.0781797 -0.0248472 0.0
-0.0654613 -0.0197012 0.0
-0.00243608 -0.013374 0.0
0.194599 -0.00641988 0.0
0.649729 -0.00134004 0.0
-0.00409829 -0.000166931 0.0
-0.00754423 -0.000865136 0.0
-0.00880317 -0.00190455 0.0
-0.00936214 -0.00297105 0.0
-0.00981103 -0.0041019 0.0
-0.0103286 -0.00527679 0.0
-0.0109671 -0.0065137 0.0
-0.0117465 -0.0078231 0.0
-0.0126813 -0.00921887 0.0
-0.0137877 -0.0107142 0.0
-0.0150851 -0.0123223 0.0
-0.0165972 -0.0140556 0.0
-0.0183529 -0.0159253 0.0
-0.0203872 -0.0179397 0.0
-0.0227431 -0.0201031 0.0
-0.0254725 -0.0224128 0.0
-0.0286381 -0.0248553 0.0
-0.0323148 -0.0274005 0.0
-0.0365903 -0.0299936 0.0
-0.0415637 -0.032544 0.0
-0.0473397 -0.0349091 0.0
-0.0540121 -0.0368751 0.0
-0.0616169 -0.0381354 0.0
-0.0699846 -0.0382714 0.0
-0.0782121 -0.03677 0.0
-0.0828381 -0.0331013 0.0
-0.0719207 -0.0269747 0.0
-0.00993719 -0.0188473 0.0
0.18743 -0.0094669 0.0
0.64519 -0.00214947 0.0
-0.00357596 -0.000184079 0.0
-0.00659866 -0.000952765 0.0
-0.00770655 -0.00209687 0.0
-0.00819993 -0.00327154 0.0
-0.00859699 -0.00451826 0.0
-0.00905554 -0.00581549 0.0
-0.00962231 -0.00718385 0.0
-0.0103156 -0.00863602 0.0
-0.0111494 -0.0101888 0.0
-0.0121398 -0.0118589 0.0
-0.0133062 -0.0136637 0.0
-0.0146728 -0.0156207 0.0
-0.01627 -0.0177475 0.0
-0.0181357 -0.0200604 0.0
-0.0203175 -0.0225734 0.0
-0.0228756 -0.0252959 0.0
-0.0258857 -0.0282287 0.0
-0.0294432 -0.0313586 0.0
-0.0336673 -0.0346489 0.0
-0.0387043 -0.0380254 0.0
-0.0447276 -0.0413554 0.0
-0.0519276 -0.0444163 0.0
-0.0604658 -0.0468556 0.0
-0.0703144 -0.0481382 0.0
-0.0806674 -0.0475363 0.0
-0.0879828 -0.0441559 0.0
-0.0798056 -0.0373237 0.0
-0.0197386 -0.0271646 0.0
0.177544 -0.0145596 0.0
0.638297 -0.00367393 0.0
-0.00300587 -0.000199246 0.0
-0.00556776 -0.00102897 0.0
-0.00651054 -0.00226343 0.0
-0.00693142 -0.0035318 0.0
-0.00727021 -0.00487918 0.0
-0.00766191 -0.00628319 0.0
-0.00814685 -0.00776685 0.0
-0.00874129 -0.00934506 0.0
-0.00945824 -0.0110376 0.0
-0.0103126 -0.0128646 0.0
-0.011323 -0.0148479 0.0
-0.012513 -0.0170109 0.0
-0.0139127 -0.0193782 0.0
-0.0155605 -0.0219758 0.0
-0.0175064 -0.0248299 0.0
-0.0198154 -0.0279659 0.0
-0.0225726 -0.0314055 0.0
-0.0258904 -0.035162 0.0
-0.0299171 -0.0392315 0.0
-0.0348478 -0.0435786 0.0
-0.0409352 -0.0481109 0.0
-0.0484939 -0.0526376 0.0
-0.0578705 -0.0568058 0.0
-0.0692844 -0.0599991 0.0
-0.0821839 -0.061267 0.0
-0.0931078 -0.0592242 0.0
-0.0891039 -0.0525533 0.0
-0.0326205 -0.0405175 0.0
0.163344 -0.0237412 0.0
0.626966 -0.00677184 0.0
-0.00239656 -0.000211992 0.0
-0.00446749 -0.0010909 0.0
-0.00523349 -0.00239785 0.0
-0.00557607 -0.0037421 0.0
-0.00585097 -0.00517128 0.0
-0.0061689 -0.00666255 0.0
-0.00656304 -0.00824093 0.0
-0.00704719 -0.00992332 0.0
-0.00763259 -0.0117322 0.0
-0.00833235 -0.0136911 0.0
-0.00916305 -0.0158263 0.0
-0.010146 -0.0181668 0.0
-0.011309 -0.0207448 0.0
-0.0126883 -0.0235965 0.0
-0.0143321 -0.026762 0.0
-0.016305 -0.0302858 0.0
-0.0186948 -0.0342156 0.0
-0.0216222 -0.0386009 0.0
-0.0252546 -0.043487 0.0