# vtk DataFile Version 3.0
Malha 2D com triângulos e temperatura
ASCII
DATASET UNSTRUCTURED_GRID

POINTS 961 double
0 0 0
1 0 0
1 1 0
0 1 0
0.0333333 0 0
0.0666667 0 0
0.1 0 0
0.133333 0 0
0.166667 0 0
0.2 0 0
0.233333 0 0
0.266667 0 0
0.3 0 0
0.333333 0 0
0.366667 0 0
0.4 0 0
0.433333 0 0
0.466667 0 0
0.5 0 0
0.533333 0 0
0.566667 0 0
0.6 0 0
0.633333 0 0
0.666667 0 0
0.7 0 0
0.733333 0 0
0.766667 0 0
0.8 0 0
0.833333 0 0
0.866667 0 0
0.9 0 0
0.933333 0 0
0.966667 0 0
1 0.0333333 0
1 0.0666667 0
1 0.1 0
1 0.133333 0
1 0.166667 0
1 0.2 0
1 0.233333 0
1 0.266667 0
1 0.3 0
1 0.333333 0
1 0.366667 0
1 0.4 0
1 0.433333 0
1 0.466667 0
1 0.5 0
1 0.533333 0
1 0.566667 0
1 0.6 0
1 0.633333 0
1 0.666667 0
1 0.7 0
1 0.733333 0
1 0.766667 0
1 0.8 0
1 0.833333 0
1 0.866667 0
1 0.9 0
1 0.933333 0
1 0.966667 0
0.966667 1 0
0.933333 1 0
0.9 1 0
0.866667 1 0
0.833333 1 0
0.8 1 0
0.766667 1 0
0.733333 1 0
0.7 1 0
0.666667 1 0
0.633333 1 0
0.6 1 0
0.566667 1 0
0.533333 1 0
0.5 1 0
0.466667 1 0
0.433333 1 0
0.4 1 0
0.366667 1 0
0.333333 1 0
0.3 1 0
0.266667 1 0
0.233333 1 0
0.2 1 0
0.166667 1 0
0.133333 1 0
0.1 1 0
0.0666667 1 0
0.0333333 1 0
0 0.966667 0
0 0.933333 0
0 0.9 0
0 0.866667 0
0 0.833333 0
0 0.8 0
0 0.766667 0
0 0.733333 0
0 0.7 0
0 0.666667 0
0 0.633333 0
0 0.6 0
0 0.566667 0
0 0.533333 0
0 0.5 0
0 0.466667 0
0 0.433333 0
0 0.4 0
0 0.366667 0
0 0.333333 0
0 0.3 0
0 0.266667 0
0 0.233333 0
0 0.2 0
0 0.166667 0
0 0.133333 0
0 0.1 0
0 0.0666667 0
0 0.0333333 0
0.0333333 0.0333333 0
0.0333333 0.0666667 0
0.0333333 0.1 0
0.0333333 0.133333 0
0.0333333 0.166667 0
0.0333333 0.2 0
0.0333333 0.233333 0
0.0333333 0.266667 0
0.0333333 0.3 0
0.0333333 0.333333 0
0.0333333 0.366667 0
0.0333333 0.4 0
0.0333333 0.433333 0
0.0333333 0.466667 0
0.0333333 0.5 0
0.0333333 0.533333 0
0.0333333 0.566667 0
0.0333333 0.6 0
0.0333333 0.633333 0
0.0333333 0.666667 0
0.0333333 0.7 0
0.0333333 0.733333 0
0.0333333 0.766667 0
0.0333333 0.8 0
0.0333333 0.833333 0
0.0333333 0.866667 0
0.0333333 0.9 0
0.0333333 0.933333 0
0.0333333 0.966667 0
0.0666667 0.0333333 0
0.0666667 0.0666667 0
0.0666667 0.1 0
0.0666667 0.133333 0
0.0666667 0.166667 0
0.0666667 0.2 0
0.0666667 0.233333 0
0.0666667 0.266667 0
0.0666667 0.3 0
0.0666667 0.333333 0
0.0666667 0.366667 0
0.0666667 0.4 0
0.0666667 0.433333 0
0.0666667 0.466667 0
0.0666667 0.5 0
0.0666667 0.533333 0
0.0666667 0.566667 0
0.0666667 0.6 0
0.0666667 0.633333 0
0.0666667 0.666667 0
0.0666667 0.7 0
0.0666667 0.733333 0
0.0666667 0.766667 0
0.0666667 0.8 0
0.0666667 0.833333 0
0.0666667 0.866667 0
0.0666667 0.9 0
0.0666667 0.933333 0
0.0666667 0.966667 0
0.1 0.0333333 0
0.1 0.0666667 0
0.1 0.1 0
0.1 0.133333 0
0.1 0.166667 0
0.1 0.2 0
0.1 0.233333 0
0.1 0.266667 0
0.1 0.3 0
0.1 0.333333 0
0.1 0.366667 0
0.1 0.4 0
0.1 0.433333 0
0.1 0.466667 0
0.1 0.5 0
0.1 0.533333 0
0.1 0.566667 0
0.1 0.6 0
0.1 0.633333 0
0.1 0.666667 0
0.1 0.7 0
0.1 0.733333 0
0.1 0.766667 0
0.1 0.8 0
0.1 0.833333 0
0.1 0.866667 0
0.1 0.9 0
0.1 0.933333 0
0.1 0.966667 0
0.133333 0.0333333 0
0.133333 0.0666667 0
0.133333 0.1 0
0.133333 0.133333 0
0.133333 0.166667 0
0.133333 0.2 0
0.133333 0.233333 0
0.133333 0.266667 0
0.133333 0.3 0
0.133333 0.333333 0
0.133333 0.366667 0
0.133333 0.4 0
0.133333 0.433333 0
0.133333 0.466667 0
0.133333 0.5 0
0.133333 0.533333 0
0.133333 0.566667 0
0.133333 0.6 0
0.133333 0.633333 0
0.133333 0.666667 0
0.133333 0.7 0
0.133333 0.733333 0
0.133333 0.766667 0
0.133333 0.8 0
0.133333 0.833333 0
0.133333 0.866667 0
0.133333 0.9 0
0.133333 0.933333 0
0.133333 0.966667 0
0.166667 0.0333333 0
0.166667 0.0666667 0
0.166667 0.1 0
0.166667 0.133333 0
0.166667 0.166667 0
0.166667 0.2 0
0.166667 0.233333 0
0.166667 0.266667 0
0.166667 0.3 0
0.166667 0.333333 0
0.166667 0.366667 0
0.166667 0.4 0
0.166667 0.433333 0
0.166667 0.466667 0
0.166667 0.5 0
0.166667 0.533333 0
0.166667 0.566667 0
0.166667 0.6 0
0.166667 0.633333 0
0.166667 0.666667 0
0.166667 0.7 0
0.166667 0.733333 0
0.166667 0.766667 0
0.166667 0.8 0
0.166667 0.833333 0
0.166667 0.866667 0
0.166667 0.9 0
0.166667 0.933333 0
0.166667 0.966667 0
0.2 0.0333333 0
0.2 0.0666667 0
0.2 0.1 0
0.2 0.133333 0
0.2 0.166667 0
0.2 0.2 0
0.2 0.233333 0
0.2 0.266667 0
0.2 0.3 0
0.2 0.333333 0
0.2 0.366667 0
0.2 0.4 0
0.2 0.433333 0
0.2 0.466667 0
0.2 0.5 0
0.2 0.533333 0
0.2 0.566667 0
0.2 0.6 0
0.2 0.633333 0
0.2 0.666667 0
0.2 0.7 0
0.2 0.733333 0
0.2 0.766667 0
0.2 0.8 0
0.2 0.833333 0
0.2 0.866667 0
0.2 0.9 0
0.2 0.933333 0
0.2 0.966667 0
0.233333 0.0333333 0
0.233333 0.0666667 0
0.233333 0.1 0
0.233333 0.133333 0
0.233333 0.166667 0
0.233333 0.2 0
0.233333 0.233333 0
0.233333 0.266667 0
0.233333 0.3 0
0.233333 0.333333 0
0.233333 0.366667 0
0.233333 0.4 0
0.233333 0.433333 0
0.233333 0.466667 0
0.233333 0.5 0
0.233333 0.533333 0
0.233333 0.566667 0
0.233333 0.6 0
0.233333 0.633333 0
0.233333 0.666667 0
0.233333 0.7 0
0.233333 0.733333 0
0.233333 0.766667 0
0.233333 0.8 0
0.233333 0.833333 0
0.233333 0.866667 0
0.233333 0.9 0
0.233333 0.933333 0
0.233333 0.966667 0
0.266667 0.0333333 0
0.266667 0.0666667 0
0.266667 0.1 0
0.266667 0.133333 0
0.266667 0.166667 0
0.266667 0.2 0
0.266667 0.233333 0
0.266667 0.266667 0
0.266667 0.3 0
0.266667 0.333333 0
0.266667 0.366667 0
0.266667 0.4 0
0.266667 0.433333 0
0.266667 0.466667 0
0.266667 0.5 0
0.266667 0.533333 0
0.266667 0.566667 0
0.266667 0.6 0
0.266667 0.633333 0
0.266667 0.666667 0
0.266667 0.7 0
0.266667 0.733333 0
0.266667 0.766667 0
0.266667 0.8 0
0.266667 0.833333 0
0.266667 0.866667 0
0.266667 0.9 0
0.266667 0.933333 0
0.266667 0.966667 0
0.3 0.0333333 0
0.3 0.0666667 0
0.3 0.1 0
0.3 0.133333 0
0.3 0.166667 0
0.3 0.2 0
0.3 0.233333 0
0.3 0.266667 0
0.3 0.3 0
0.3 0.333333 0
0.3 0.366667 0
0.3 0.4 0
0.3 0.433333 0
0.3 0.466667 0
0.3 0.5 0
0.3 0.533333 0
0.3 0.566667 0
0.3 0.6 0
0.3 0.633333 0
0.3 0.666667 0
0.3 0.7 0
0.3 0.733333 0
0.3 0.766667 0
0.3 0.8 0
0.3 0.833333 0
0.3 0.866667 0
0.3 0.9 0
0.3 0.933333 0
0.3 0.966667 0
0.333333 0.0333333 0
0.333333 0.0666667 0
0.333333 0.1 0
0.333333 0.133333 0
0.333333 0.166667 0
0.333333 0.2 0
0.333333 0.233333 0
0.333333 0.266667 0
0.333333 0.3 0
0.333333 0.333333 0
0.333333 0.366667 0
0.333333 0.4 0
0.333333 0.433333 0
0.333333 0.466667 0
0.333333 0.5 0
0.333333 0.533333 0
0.333333 0.566667 0
0.333333 0.6 0
0.333333 0.633333 0
0.333333 0.666667 0
0.333333 0.7 0
0.333333 0.733333 0
0.333333 0.766667 0
0.333333 0.8 0
0.333333 0.833333 0
0.333333 0.866667 0
0.333333 0.9 0
0.333333 0.933333 0
0.333333 0.966667 0
0.366667 0.0333333 0
0.366667 0.0666667 0
0.366667 0.1 0
0.366667 0.133333 0
0.366667 0.166667 0
0.366667 0.2 0
0.366667 0.233333 0
0.366667 0.266667 0
0.366667 0.3 0
0.366667 0.333333 0
0.366667 0.366667 0
0.366667 0.4 0
0.366667 0.433333 0
0.366667 0.466667 0
0.366667 0.5 0
0.366667 0.533333 0
0.366667 0.566667 0
0.366667 0.6 0
0.366667 0.633333 0
0.366667 0.666667 0
0.366667 0.7 0
0.366667 0.733333 0
0.366667 0.766667 0
0.366667 0.8 0
0.366667 0.833333 0
0.366667 0.866667 0
0.366667 0.9 0
0.366667 0.933333 0
0.366667 0.966667 0
0.4 0.0333333 0
0.4 0.0666667 0
0.4 0.1 0
0.4 0.133333 0
0.4 0.166667 0
0.4 0.2 0
0.4 0.233333 0
0.4 0.266667 0
0.4 0.3 0
0.4 0.333333 0
0.4 0.366667 0
0.4 0.4 0
0.4 0.433333 0
0.4 0.466667 0
0.4 0.5 0
0.4 0.533333 0
0.4 0.566667 0
0.4 0.6 0
0.4 0.633333 0
0.4 0.666667 0
0.4 0.7 0
0.4 0.733333 0
0.4 0.766667 0
0.4 0.8 0
0.4 0.833333 0
0.4 0.866667 0
0.4 0.9 0
0.4 0.933333 0
0.4 0.966667 0
0.433333 0.0333333 0
0.433333 0.0666667 0
0.433333 0.1 0
0.433333 0.133333 0
0.433333 0.166667 0
0.433333 0.2 0
0.433333 0.233333 0
0.433333 0.266667 0
0.433333 0.3 0
0.433333 0.333333 0
0.433333 0.366667 0
0.433333 0.4 0
0.433333 0.433333 0
0.433333 0.466667 0
0.433333 0.5 0
0.433333 0.533333 0
0.433333 0.566667 0
0.433333 0.6 0
0.433333 0.633333 0
0.433333 0.666667 0
0.433333 0.7 0
0.433333 0.733333 0
0.433333 0.766667 0
0.433333 0.8 0
0.433333 0.833333 0
0.433333 0.866667 0
0.433333 0.9 0
0.433333 0.933333 0
0.433333 0.966667 0
0.466667 0.0333333 0
0.466667 0.0666667 0
0.466667 0.1 0
0.466667 0.133333 0
0.466667 0.166667 0
0.466667 0.2 0
0.466667 0.233333 0
0.466667 0.266667 0
0.466667 0.3 0
0.466667 0.333333 0
0.466667 0.366667 0
0.466667 0.4 0
0.466667 0.433333 0
0.466667 0.466667 0
0.466667 0.5 0
0.466667 0.533333 0
0.466667 0.566667 0
0.466667 0.6 0
0.466667 0.633333 0
0.466667 0.666667 0
0.466667 0.7 0
0.466667 0.733333 0
0.466667 0.766667 0
0.466667 0.8 0
0.466667 0.833333 0
0.466667 0.866667 0
0.466667 0.9 0
0.466667 0.933333 0
0.466667 0.966667 0
0.5 0.0333333 0
0.5 0.0666667 0
0.5 0.1 0
0.5 0.133333 0
0.5 0.166667 0
0.5 0.2 0
0.5 0.233333 0
0.5 0.266667 0
0.5 0.3 0
0.5 0.333333 0
0.5 0.366667 0
0.5 0.4 0
0.5 0.433333 0
0.5 0.466667 0
0.5 0.5 0
0.5 0.533333 0
0.5 0.566667 0
0.5 0.6 0
0.5 0.633333 0
0.5 0.666667 0
0.5 0.7 0
0.5 0.733333 0
0.5 0.766667 0
0.5 0.8 0
0.5 0.833333 0
0.5 0.866667 0
0.5 0.9 0
0.5 0.933333 0
0.5 0.966667 0
0.533333 0.0333333 0
0.533333 0.0666667 0
0.533333 0.1 0
0.533333 0.133333 0
0.533333 0.166667 0
0.533333 0.2 0
0.533333 0.233333 0
0.533333 0.266667 0
0.533333 0.3 0
0.533333 0.333333 0
0.533333 0.366667 0
0.533333 0.4 0
0.533333 0.433333 0
0.533333 0.466667 0
0.533333 0.5 0
0.533333 0.533333 0
0.533333 0.566667 0
0.533333 0.6 0
0.533333 0.633333 0
0.533333 0.666667 0
0.533333 0.7 0
0.533333 0.733333 0
0.533333 0.766667 0
0.533333 0.8 0
0.533333 0.833333 0
0.533333 0.866667 0
0.533333 0.9 0
0.533333 0.933333 0
0.533333 0.966667 0
0.566667 0.0333333 0
0.566667 0.0666667 0
0.566667 0.1 0
0.566667 0.133333 0
0.566667 0.166667 0
0.566667 0.2 0
0.566667 0.233333 0
0.566667 0.266667 0
0.566667 0.3 0
0.566667 0.333333 0
0.566667 0.366667 0
0.566667 0.4 0
0.566667 0.433333 0
0.566667 0.466667 0
0.566667 0.5 0
0.566667 0.533333 0
0.566667 0.566667 0
0.566667 0.6 0
0.566667 0.633333 0
0.566667 0.666667 0
0.566667 0.7 0
0.566667 0.733333 0
0.566667 0.766667 0
0.566667 0.8 0
0.566667 0.833333 0
0.566667 0.866667 0
0.566667 0.9 0
0.566667 0.933333 0
0.566667 0.966667 0
0.6 0.0333333 0
0.6 0.0666667 0
0.6 0.1 0
0.6 0.133333 0
[...]
CELL_DATA 900
VECTORS velocity double
5.46843e-05 -5.36399e-05 0.0
-4.57945e-05 8.40451e-05 0.0
-0.000121356 0.000551736 0.0
-0.000169157 0.00119638 0.0
-0.000192222 0.00197157 0.0
-0.000205421 0.00281946 0.0
-0.000216062 0.0037288 0.0
-0.000228607 0.00469789 0.0
-0.000244738 0.0057375 0.0
-0.000265256 0.00686229 0.0
-0.000290628 0.00809065 0.0
-0.000321442 0.00944379 0.0
-0.000358555 0.0109467 0.0
-0.000403258 0.0126292 0.0
-0.0004575 0.0145284 0.0
-0.000524317 0.0166916 0.0
-0.0006087 0.0191815 0.0
-0.000719387 0.0220842 0.0
-0.000872504 0.0255239 0.0
-0.001099 0.0296861 0.0
-0.00145913 0.034858 0.0
-0.00207056 0.0414947 0.0
-0.00315925 0.0503269 0.0
-0.00515509 0.0625061 0.0
-0.00882467 0.0799002 0.0
-0.0154504 0.105044 0.0
-0.0260382 0.142735 0.0
-0.0380722 0.190982 0.0
-0.013009 0.263913 0.0
0.217317 0.174555 0.0
-8.58975e-05 4.93339e-05 0.0
-0.000617016 0.000617614 0.0
-0.00102894 0.0018096 0.0
-0.00131439 0.00333815 0.0
-0.00149504 0.00514311 0.0
-0.00162502 0.00712743 0.0
-0.00174017 0.0092699 0.0
-0.0018644 0.0115672 0.0
-0.00201076 0.0140401 0.0
-0.00218728 0.01672 0.0
-0.00240008 0.019647 0.0
-0.0026556 0.0228692 0.0
-0.0029621 0.0264434 0.0
-0.00333095 0.0304379 0.0
-0.00377839 0.0349368 0.0
-0.00432824 0.0400462 0.0
-0.00501631 0.0459037 0.0
-0.00589782 0.0526927 0.0
-0.00705946 0.0606623 0.0
-0.00863842 0.0701555 0.0
-0.0108495 0.0816431 0.0
-0.0140207 0.0957532 0.0
-0.0186234 0.113263 0.0
-0.0252903 0.134977 0.0
-0.0346962 0.161373 0.0
-0.0472933 0.19153 0.0
-0.0609733 0.221681 0.0
-0.0662636 0.239217 0.0
-0.00240256 0.219003 0.0
0.306466 0.116937 0.0
-0.000554548 0.000123409 0.0
-0.00180447 0.00100629 0.0
-0.00275828 0.00270326 0.0
-0.00342837 0.00480488 0.0
-0.00388303 0.00725217 0.0
-0.00422764 0.00993129 0.0
-0.00454055 0.0128213 0.0
-0.00487505 0.0159207 0.0
-0.00526317 0.0192569 0.0
-0.00572565 0.0228697 0.0
-0.00627871 0.0268104 0.0
-0.00693904 0.0311394 0.0
-0.00772718 0.0359276 0.0
-0.00867071 0.041259 0.0
-0.00980798 0.0472343 0.0
-0.0111936 0.0539774 0.0
-0.0129067 0.0616425 0.0
-0.015063 0.0704256 0.0
-0.0178317 0.0805769 0.0
-0.0214562 0.0924139 0.0
-0.0262693 0.106325 0.0
-0.032684 0.122746 0.0
-0.0411033 0.142054 0.0
-0.0516784 0.164321 0.0
-0.0636725 0.188696 0.0
-0.0742745 0.212481 0.0
-0.0747866 0.228576 0.0
-0.0430471 0.225558 0.0
0.0907805 0.172203 0.0
0.47756 0.077209 0.0
-0.00117999 0.000165706 0.0
-0.00327765 0.00123676 0.0
-0.00482924 0.0032273 0.0
-0.0059094 0.00564216 0.0
-0.00665933 0.00842727 0.0
-0.00724168 0.0114622 0.0
-0.00777904 0.01473 0.0
-0.00835417 0.0182316 0.0
-0.00901822 0.0219975 0.0
-0.00980473 0.0260708 0.0
-0.0107401 0.0305055 0.0
-0.0118509 0.0353648 0.0
-0.013169 0.0407211 0.0
-0.0147362 0.0466583 0.0
-0.0166091 0.0532739 0.0
-0.018866 0.0606828 0.0
-0.0216161 0.0690209 0.0
-0.0250122 0.0784499 0.0
-0.0292651 0.089158 0.0
-0.034654 0.101356 0.0
-0.0415153 0.115251 0.0
-0.0501722 0.130989 0.0
-0.0607232 0.148494 0.0
-0.0725824 0.167201 0.0
-0.0835168 0.185407 0.0
-0.087959 0.199703 0.0
-0.0731414 0.20265 0.0
-0.0108898 0.185452 0.0
0.163321 0.125841 0.0
0.57537 0.0489485 0.0
-0.0018973 0.000178184 0.0
-0.00493211 0.00132416 0.0
-0.00711998 0.00343483 0.0
-0.00862647 0.00596859 0.0
-0.00968268 0.00887355 0.0
-0.0105143 0.0120265 0.0
-0.0112898 0.0154142 0.0
-0.0121215 0.0190387 0.0
-0.0130791 0.0229315 0.0
-0.0142082 0.0271349 0.0
-0.0155446 0.0317013 0.0
-0.0171234 0.0366899 0.0
-0.0189856 0.0421674 0.0
-0.0211837 0.048208 0.0
-0.0237868 0.0548944 0.0
-0.0268877 0.0623187 0.0
-0.0306116 0.0705822 0.0
-0.035126 0.0797935 0.0
-0.0406484 0.0900621 0.0
-0.0474418 0.101482 0.0
-0.0557723 0.114095 0.0
-0.0657771 0.127817 0.0
-0.0771439 0.142283 0.0
-0.0884694 0.156612 0.0
-0.0960641 0.168843 0.0
-0.0919872 0.175642 0.0
-0.0604156 0.17051 0.0
0.0293214 0.146972 0.0
0.231945 0.0909913 0.0
0.645194 0.0303071 0.0
-0.00262691 0.000176065 0.0
-0.0066191 0.00132237 0.0
-0.00944247 0.00342988 0.0
-0.0113661 0.00594676 0.0
-0.0127183 0.00882233 0.0
-0.0137908 0.0119343 0.0
-0.0147978 0.0152715 0.0
-0.0158797 0.0188365 0.0
-0.017123 0.0226597 0.0
-0.018584 0.0267805 0.0
-0.0203055 0.0312467 0.0
-0.0223287 0.0361109 0.0
-0.0247002 0.04143 0.0
-0.0274782 0.0472648 0.0
-0.030737 0.053679 0.0
-0.0345737 0.0607378 0.0
-0.0391144 0.068505 0.0
-0.0445203 0.0770368 0.0
-0.0509877 0.0863706 0.0
-0.058729 0.0965046 0.0
-0.0679019 0.107356 0.0
-0.0784281 0.118698 0.0
-0.089591 0.13001 0.0
-0.0992662 0.140315 0.0
-0.102591 0.147696 0.0
-0.089925 0.149262 0.0
-0.0436834 0.139641 0.0
0.0665247 0.115061 0.0
0.287645 0.0663122 0.0
0.693327 0.0188586 0.0
-0.00333691 0.000166459 0.0
-0.00826758 0.00126587 0.0
-0.0117067 0.00328837 0.0
-0.01403 0.00569768 0.0
-0.0156627 0.00844484 0.0
-0.0169625 0.0114118 0.0
-0.0181883 0.0145886 0.0
-0.0195066 0.0179776 0.0
-0.0210193 0.0216069 0.0
-0.0227912 0.025512 0.0
-0.0248705 0.029735 0.0
-0.0273017 0.0343204 0.0
-0.030134 0.0393148 0.0
-0.0334264 0.0447647 0.0
-0.0372526 0.0507152 0.0
-0.0417054 0.0572063 0.0
-0.046901 0.0642686 0.0
-0.0529806 0.0719152 0.0
-0.0601033 0.0801286 0.0
-0.0684139 0.0888402 0.0
-0.0779501 0.0978922 0.0
-0.0884224 0.106983 0.0
-0.0987501 0.115547 0.0
-0.106203 0.122634 0.0
-0.104996 0.12652 0.0
-0.084286 0.124839 0.0
-0.0255817 0.113292 0.0
0.100301 0.0899163 0.0
0.333176 0.0487207 0.0
0.7272 0.0118095 0.0
-0.00400368 0.000153698 0.0
-0.00982212 0.00117743 0.0
-0.01384 0.00306132 0.0
-0.0165362 0.00530223 0.0
-0.0184282 0.00785421 0.0
-0.019937 0.0106065 0.0
-0.0213638 0.0135504 0.0
-0.0228992 0.0166875 0.0
-0.0246584 0.0200435 0.0
-0.0267132 0.0236493 0.0
-0.0291151 0.0275411 0.0
-0.0319099 0.0317559 0.0
-0.0351462 0.0363302 0.0
-0.0388805 0.0412981 0.0
-0.0431809 0.0466884 0.0
-0.0481299 0.0525207 0.0
-0.0538267 0.0588002 0.0
-0.0603847 0.0655084 0.0
-0.0679181 0.0725913 0.0
-0.0765002 0.0799401 0.0
-0.0860534 0.087359 0.0
-0.0960999 0.0945224 0.0
-0.105253 0.100875 0.0
-0.1103 0.105559 0.0
-0.104762 0.10708 0.0
-0.0769809 0.103567 0.0
-0.00808775 0.0916066 0.0
0.12951 0.0704244 0.0
0.369744 0.0361951 0.0
0.751403 0.00749772 0.0
-0.0046155 0.000139134 0.0
-0.0112506 0.00106807 0.0
-0.0157985 0.00277654 0.0
-0.0188347 0.00480632 0.0
-0.0209618 0.00711576 0.0
-0.0226597 0.00960427 0.0
-0.0242679 0.0122642 0.0
-0.0259991 0.0150973 0.0
-0.0279802 0.018126 0.0
-0.030288 0.0213774 0.0
-0.0329761 0.0248821 0.0
-0.0360898 0.0286703 0.0
-0.0396751 0.0327704 0.0
-0.0437833 0.0372062 0.0
-0.0484739 0.0419943 0.0
-0.0538159 0.0471398 0.0
-0.0598873 0.0526304 0.0
-0.0667705 0.0584282 0.0
-0.0745337 0.0644584 0.0
-0.0831814 0.0705937 0.0
-0.0925321 0.0766268 0.0
-0.101947 0.0822383 0.0
-0.109787 0.0869154 0.0
-0.112457 0.0899047 0.0
-0.102958 0.0899367 0.0
-0.0690744 0.0855514 0.0
0.00814204 0.0740026 0.0
0.154417 0.0554079 0.0
0.399045 0.0272038 0.0
0.769001 0.00485186 0.0
-0.00516317 0.00012321 0.0
-0.0125285 0.000943261 0.0
-0.0175485 0.002449 0.0
-0.0208866 0.00423546 0.0
-0.0232217 0.00626649 0.0
-0.0250869 0.00845389 0.0
-0.0268561 0.0107917 0.0
-0.028761 0.0132818 0.0
-0.0309384 0.0159442 0.0
-0.0334693 0.0188023 0.0
-0.036408 0.0218821 0.0
-0.0397982 0.0252082 0.0
-0.0436821 0.0288029 0.0
-0.0481045 0.032683 0.0
-0.0531147 0.036857 0.0
-0.0587663 0.0413211 0.0
-0.0651157 0.0460537 0.0
-0.0722137 0.0510077 0.0
-0.0800849 0.0561008 0.0
-0.0886713 0.0612024 0.0
-0.0977008 0.0661117 0.0
-0.106399 0.0705319 0.0
-0.112922 0.0740046 0.0
-0.113371 0.075879 0.0
-0.100354 0.075088 0.0
-0.0612937 0.0704665 0.0
0.0225501 0.0599277 0.0
0.17538 0.0438565 0.0
0.422503 0.0207136 0.0
0.782022 0.00322229 0.0
-0.00563963 0.000105933 0.0
-0.0136373 0.000805606 0.0
-0.0190643 0.0020868 0.0
-0.022662 0.00360422 0.0
-0.0251762 0.00532813 0.0
-0.027186 0.00718459 0.0
-0.029095 0.00916981 0.0
-0.0311515 0.0112864 0.0
-0.0335002 0.0135521 0.0
-0.0362255 0.0159875 0.0
-0.0393816 0.0186147 0.0
-0.0430103 0.0214546 0.0
-0.0471495 0.0245254 0.0
-0.051837 0.0278397 0.0
-0.0571118 0.0314025 0.0
-0.0630124 0.0352064 0.0
-0.0695738 0.0392275 0.0
-0.0768179 0.0434182 0.0
-0.084729 0.047699 0.0
-0.0931941 0.0519473 0.0
-0.101863 0.0559792 0.0
-0.109848 0.0595293 0.0
-0.115136 0.0621949 0.0
-0.113583 0.0634154 0.0
-0.0975016 0.0622955 0.0
-0.0540934 0.0578835 0.0
0.035107 0.0486046 0.0
0.19292 0.034902 0.0
0.441323 0.0159686 0.0
0.791833 0.00220655 0.0
-0.00603848 8.7296e-05 0.0
-0.0145615 0.000656753 0.0
-0.0203246 0.00169525 0.0
-0.0241363 0.00292237 0.0
-0.0267987 0.00431551 0.0
-0.0289296 0.00581645 0.0
-0.0309571 0.00742397 0.0
-0.0331432 0.00914188 0.0
-0.0356391 0.0109862 0.0
-0.0385316 0.0129751 0.0
-0.0418748 0.0151282 0.0
-0.0457086 0.0174638 0.0
-0.0500669 0.019998 0.0
-0.0549814 0.0227427 0.0
-0.0604813 0.0257024 0.0
-0.0665914 0.0288718 0.0
-0.0733277 0.0322304 0.0
-0.0806859 0.0357374 0.0
-0.0886149 0.039324 0.0
-0.0969537 0.0428835 0.0
-0.105285 0.0462559 0.0
-0.112623 0.0492095 0.0
-0.116811 0.0513939 0.0
-0.113505 0.0523219 0.0
-0.0947891 0.0512343 0.0
-0.0477362 0.0473321 0.0
0.0458235 0.039406 0.0
0.207486 0.0278844 0.0
0.456446 0.0124431 0.0
0.799347 0.00156108 0.0
-0.00635408 6.73366e-05 0.0
-0.0152877 0.000498098 0.0
-0.0213115 0.00127866 0.0
-0.0252891 0.00219785 0.0
-0.0280674 0.00324063 0.0
-0.0302952 0.00436568 0.0
-0.0324198 0.00557462 0.0
-0.0347135 0.00687285 0.0
-0.0373331 0.00827499 0.0
-0.0403671 0.00979737 0.0
-0.0438699 0.0114577 0.0
-0.0478798 0.0132734 0.0
-0.0524281 0.0152604 0.0
-0.0575412 0.0174319 0.0
-0.0632407 0.019796 0.0
-0.0695403 0.022353 0.0
-0.0764396 0.0250918 0.0
-0.083912 0.0279842 0.0
-0.091876 0.0309784 0.0
-0.100128 0.0339901 0.0
-0.108192 0.036887 0.0
-0.114994 0.0394718 0.0
-0.118251 0.0414394 0.0
-0.11345 0.0423593 0.0
-0.0924877 0.0415719 0.0
-0.0423663 0.0383816 0.0
0.0547827 0.0318315 0.0
0.21948 0.0223024 0.0
0.468601 0.00977035 0.0
0.805177 0.00113873 0.0
-0.00658143 4.61613e-05 0.0
-0.0158049 0.0003311 0.0
-0.0220104 0.000841224 0.0
-0.0261034 0.00143815 0.0
-0.0289643 0.00211469 0.0
-0.031264 0.00284722 0.0
-0.0334637 0.00364034 0.0
-0.0358433 0.00450121 0.0
-0.0385632 0.0054432 0.0
-0.0417139 0.00648124 0.0
-0.0453504 0.00763187 0.0
-0.0495109 0.00891228 0.0
-0.054225 0.0103399 0.0
-0.0595167 0.0119313 0.0
-0.0654022 0.0137011 0.0
-0.0718872 0.0156591 0.0
-0.0789591 0.0178078 0.0
-0.0865733 0.0201372 0.0
-0.094622 0.0226184 0.0
-0.102865 0.0251945 0.0
-0.110769 0.0277648 0.0
-0.117182 0.0301657 0.0
-0.119702 0.0321308 0.0
-0.11366 0.0332691 0.0
-0.0907944 0.0329882 0.0
-0.0380707 0.0306548 0.0
0.0620831 0.0254776 0.0
0.229239 0.0177719 0.0
0.478346 0.00769117 0.0
0.809738 0.000850101 0.0
-0.00671634 2.39274e-05 0.0
-0.0161041 0.000157364 0.0
-0.0224094 0.000387338 0.0
-0.0265658 0.000650952 0.0
-0.029475 0.000948988 0.0
-0.031821 0.001276 0.0
-0.0340733 0.00163948 0.0
-0.0365162 0.00204832 0.0
-0.0393128 0.00251458 0.0
-0.0425555 0.00305188 0.0
-0.0463007 0.00367584 0.0
-0.0505876 0.00440407 0.0
-0.0554469 0.00525633 0.0
-0.0609022 0.00625449 0.0
-0.0669683 0.00742147 0.0
-0.0736469 0.00877987 0.0
-0.0809177 0.0103498 0.0
-0.088723 0.0121445 0.0
-0.0969341 0.0141639 0.0
-0.105276 0.016384 0.0
-0.113165 0.0187397 0.0
-0.119366 0.0211025 0.0
-0.121359 0.0232375 0.0
-0.114326 0.0247791 0.0
-0.0898615 0.0251722 0.0
-0.0349107 0.0238108 0.0
0.0678091 0.020004 0.0
0.237031 0.0139884 0.0
0.486094 0.00601648 0.0
0.813309 0.000639878 0.0
-0.00675544 8.40377e-07 0.0
-0.0161783 -2.13505e-05 0.0
-0.0224997 -7.83285e-05 0.0
-0.0266665 -0.000155651 0.0
-0.0295886 -0.000244644 0.0
-0.0319544 -0.000332462 0.0
-0.0342356 -0.000409023 0.0
-0.036718 -0.000463997 0.0
-0.0395662 -0.000486978 0.0
-0.0428745 -0.000465883 0.0
-0.0467019 -0.000386094 0.0
-0.0510905 -0.000229429 0.0
-0.0560745 2.66527e-05 0.0
-0.0616811 0.000409676 0.0
-0.0679271 0.000952387 0.0
-0.0748154 0.00169256 0.0
-0.0823241 0.00267149 0.0
-0.0903886 0.00393061 0.0
-0.0988636 0.00550466 0.0
-0.107444 0.00740951 0.0
-0.115491 0.00962259 0.0
-0.121686 0.0120538 0.0
-0.123383 0.0144952 0.0
-0.11561 0.0165939 0.0
-0.089818 0.0178056 0.0
-0.032941 0.0175211 0.0
0.0720204 0.0151018 0.0
0.243048 0.0106924 0.0
0.492135 0.00459833 0.0
0.816071 0.000471756 0.0
-0.00669659 -2.28941e-05 0.0
-0.0160234 -0.000203302 0.0
-0.0222758 -0.00055097 0.0
-0.0263991 -0.000973047 0.0
-0.0292982 -0.00145336 0.0
-0.0316564 -0.00196116 0.0
-0.0339416 -0.00248434 0.0
-0.0364379 -0.00301169 0.0
-0.0393106 -0.00353505 0.0
-0.042656 -0.00404448 0.0
-0.0465366 -0.00452701 0.0
-0.0509997 -0.0049645 0.0
-0.0560852 -0.00533213 0.0
-0.061827 -0.00559693 0.0
-0.0682501 -0.00571589 0.0
-0.0753648 -0.00563473 0.0
-0.0831546 -0.00528811 0.0
-0.0915554 -0.00460156 0.0
-0.100413 -0.00349801 0.0
-0.109396 -0.00191186 0.0
-0.117814 0.000185707 0.0
-0.124247 0.0027462 0.0
-0.125905 0.00559004 0.0
-0.117649 0.00837356 0.0
-0.0907845 0.0105386 0.0
-0.0322369 0.0114407 0.0
0.0747243 0.0104574 0.0
0.247403 0.0076322 0.0
0.496646 0.0033033 0.0
0.818127 0.000318111 0.0
-0.00653816 -4.70338e-05 0.0
-0.0156369 -0.000386454 0.0
-0.0217358 -0.00102508 0.0
-0.0257617 -0.00179156 0.0
-0.0286012 -0.0026629 0.0
-0.030923 -0.00359129 0.0
-0.0331851 -0.00456338 0.0
-0.0356671 -0.00556793 0.0
-0.0385333 -0.00659986 0.0
-0.0418824 -0.00765247 0.0
-0.0457816 -0.00871564 0.0
-0.0502851 -0.00977274 0.0
-0.0554418 -0.0107982 0.0
-0.0612968 -0.0117546 0.0
-0.0678886 -0.0125896 0.0
-0.0752424 -0.0132328 0.0
-0.0833566 -0.0135932 0.0
-0.0921781 -0.0135595 0.0
-0.101553 -0.0130047 0.0
-0.111129 -0.011802 0.0
-0.120152 -0.00985729 0.0
-0.127097 -0.00716208 0.0
-0.12902 -0.00385769 0.0
-0.120579 -0.000297328 0.0
-0.0928779 0.00293648 0.0
-0.0328638 0.00515281 0.0
0.0759045 0.00571492 0.0
0.250113 0.00453625 0.0
0.499677 0.00199366 0.0
0.819497 0.000153362 0.0
-0.00628014 -7.12585e-05 0.0
-0.0150201 -0.000568284 0.0
-0.0208817 -0.00149419 0.0
-0.024757 -0.00260021 0.0
-0.0275 -0.00385737 0.0
-0.0297551 -0.00520196 0.0
-0.0319649 -0.00662035 0.0
-0.0344011 -0.0081023 0.0
-0.0372257 -0.00964702 0.0
-0.0405397 -0.0112524 0.0
-0.0444157 -0.0129131 0.0
-0.0489164 -0.014616 0.0
-0.0541024 -0.0163375 0.0
-0.0600345 -0.0180387 0.0
-0.0667709 -0.019661 0.0
-0.0743602 -0.0211202 0.0
-0.0828271 -0.0223009 0.0
-0.0921437 -0.0230534 0.0
-0.102171 -0.0231952 0.0
-0.112546 -0.0225257 0.0
-0.122459 -0.0208631 0.0
-0.130254 -0.0181113 0.0
-0.132781 -0.0143514 0.0
-0.124458 -0.00994046 0.0
-0.096246 -0.00550808 0.0
-0.035039 -0.00184166 0.0
0.075383 0.000381437 0.0
0.251093 0.0010057 0.0
0.50117 0.000481144 0.0
0.820146 -5.36286e-05 0.0
-0.00592378 -9.52107e-05 0.0
-0.0141771 -0.000745958 0.0
-0.01972 -0.00195098 0.0
-0.0233924 -0.00338654 0.0
-0.0260018 -0.00501861 0.0
-0.0281591 -0.00676907 0.0
-0.030285 -0.00862508 0.0
-0.0326401 -0.0105786 0.0
-0.035383 -0.0126346 0.0
-0.0386159 -0.0147973 0.0
-0.0424175 -0.0170683 0.0
-0.04686 -0.0194415 0.0
-0.0520181 -0.0218986 0.0
-0.0579719 -0.0244043 0.0
-0.0648055 -0.0268991 0.0
-0.0726004 -0.0292907 0.0
-0.0814209 -0.0314445 0.0
-0.0912815 -0.0331747 0.0
-0.102079 -0.0342407 0.0
-0.113461 -0.0343582 0.0
-0.12457 -0.0332358 0.0
-0.133617 -0.0306562 0.0
-0.137204 -0.0265915 0.0
-0.12943 -0.0213455 0.0
-0.100987 -0.0155861 0.0
-0.0387481 -0.010252 0.0
0.0730762 -0.00610327 0.0
0.250024 -0.0033834 0.0
0.500757 -0.0014548 0.0
0.819857 -0.000343429 0.0
-0.00547201 -0.000118525 0.0
-0.013116 -0.000916269 0.0
-0.0182622 -0.00238703 0.0
-0.0216814 -0.00413605 0.0
-0.0241206 -0.00612531 0.0
-0.0261475 -0.00826412 0.0
-0.0281557 -0.0105415 0.0
-0.0303913 -0.0129529 0.0
-0.0330069 -0.0155103 0.0
-0.0361055 -0.0182265 0.0
-0.039771 -0.0211127 0.0
-0.0440853 -0.0241732 0.0
-0.0491385 -0.0274008 0.0
-0.0550325 -0.0307701 0.0
-0.0618825 -0.0342291 0.0
-0.0698123 -0.0376874 0.0
-0.0789401 -0.0410016 0.0
-0.089344 -0.0439596 0.0
-0.100985 -0.0462679 0.0
-0.11355 -0.0475538 0.0
-0.126164 -0.0473979 0.0
-0.136907 -0.045422 0.0
-0.14211 -0.0414277 0.0
-0.135482 -0.0355857 0.0
-0.107351 -0.0285059 0.0
-0.0444751 -0.0212218 0.0
0.0685267 -0.0146084 0.0
0.246515 -0.00921698 0.0
0.497973 -0.00411357 0.0
0.818346 -0.000780887 0.0
-0.00492957 -0.0001408 0.0
-0.0118494 -0.00107531 0.0
-0.0165261 -0.00279188 0.0
-0.0196446 -0.00483075 0.0
-0.0218777 -0.007151 0.0
-0.0237417 -0.0096515 0.0
-0.0255968 -0.012324 0.0
-0.0276712 -0.0151687 0.0
-0.0301095 -0.0182059 0.0
-0.0330135 -0.0214586 0.0
-0.0364706 -0.0249506 0.0
-0.0405714 -0.0287009 0.0
-0.0454204 -0.0327192 0.0
-0.0511423 -0.0369984 0.0
-0.0578862 -0.0415056 0.0
-0.065825 -0.046167 0.0
-0.0751448 -0.0508487 0.0
-0.0860103 -0.0553321 0.0
-0.0984801 -0.059289 0.0
-0.112327 -0.0622687 0.0
-0.126703 -0.0637168 0.0
-0.139595 -0.0630571 0.0
-0.147064 -0.0598423 0.0
-0.142378 -0.0539844 0.0
-0.115389 -0.0458635 0.0
-0.0525987 -0.0364642 0.0
0.0610584 -0.0266702 0.0
0.239713 -0.0176187 0.0
0.491957 -0.00805597 0.0
0.81507 -0.00148903 0.0
-0.00430332 -0.00016153 0.0
-0.0103956 -0.00121778 0.0
-0.0145369 -0.00315133 0.0
-0.0173112 -0.00544623 0.0
-0.0193042 -0.0080599 0.0
-0.0209729 -0.0108831 0.0
-0.0226391 -0.0139111 0.0
-0.0245091 -0.0171493 0.0
-0.026717 -0.0206271 0.0
-0.0293606 -0.0243794 0.0
-0.0325283 -0.0284449 0.0
-0.0363161 -0.0328611 0.0
-0.04084 -0.0376605 0.0
-0.0462444 -0.0428641 0.0
-0.0527114 -0.0484716 0.0
-0.0604655 -0.0544455 0.0
-0.0697698 -0.060688 0.0
-0.0808966 -0.0670077 0.0
-0.0940394 -0.0730803 0.0
-0.109113 -0.0784134 0.0
-0.125371 -0.0823378 0.0
-0.140786 -0.0840643 0.0
-0.15121 -0.0828179 0.0
-0.149492 -0.0780827 0.0
-0.124935 -0.0697317 0.0
-0.0635934 -0.0583821 0.0
0.0496161 -0.0445818 0.0
0.228195 -0.0304026 0.0
0.481161 -0.014285 0.0
0.809026 -0.00271058 0.0
-0.00360395 -0.000179682 0.0
-0.00878197 -0.00133506 0.0
-0.0123319 -0.00344334 0.0
-0.0147241 -0.00594567 0.0
-0.0164462 -0.0087988 0.0
-0.0178894 -0.0118882 0.0
-0.0193321 -0.0152122 0.0
-0.0209557 -0.0187818 0.0
-0.0228803 -0.0226354 0.0
-0.0251966 -0.0268199 0.0
-0.0279898 -0.0313903 0.0
-0.0313566 -0.0364053 0.0
-0.035418 -0.0419252 0.0
-0.0403316 -0.0480072 0.0
-0.0463046 -0.0546979 0.0
-0.0536073 -0.0620184 0.0
-0.0625798 -0.069941 0.0
-0.0736127 -0.0783503 0.0
-0.0870663 -0.0869905 0.0
-0.103059 -0.0954021 0.0
-0.121044 -0.102872 0.0
-0.139113 -0.108432 0.0
-0.153069 -0.110937 0.0
-0.155484 -0.109258 0.0
-0.135172 -0.102393 0.0
-0.0776042 -0.0900458 0.0
0.0330251 -0.0716605 0.0
0.209974 -0.0503421 0.0
0.463191 -0.0245036 0.0
0.798506 -0.00492086 0.0
-0.00284653 -0.000193229 0.0
-0.00704688 -0.0014127 0.0
-0.0099625 -0.00363251 0.0
-0.0119419 -0.00627104 0.0
-0.0133664 -0.00928498 0.0
-0.0145571 -0.0125572 0.0
-0.0157455 -0.0160883 0.0
-0.0170849 -0.0198937 0.0
-0.0186781 -0.0240193 0.0
-0.0206046 -0.0285232 0.0
-0.0229417 -0.0334756 0.0
-0.0257798 -0.0389565 0.0
-0.0292362 -0.0450555 0.0
-0.0334692 -0.051871 0.0
-0.0386966 -0.0595064 0.0
-0.045217 -0.0680619 0.0
-0.0534297 -0.0776149 0.0
-0.0638348 -0.0881851 0.0
-0.0769698 -0.099674 0.0
-0.0932078 -0.111777 0.0
-0.112315 -0.123878 0.0
-0.132699 -0.134958 0.0
-0.150395 -0.143544 0.0
-0.158047 -0.147765 0.0
-0.144304 -0.145383 0.0
-0.0941625 -0.134377 0.0
0.00971429 -0.112173 0.0
0.181759 -0.0814841 0.0
0.433861 -0.0417012 0.0
0.780128 -0.00914063 0.0
-0.00206025 -0.000197125 0.0
-0.00525592 -0.0014246 0.0
-0.0075138 -0.00366061 0.0
-0.0090603 -0.00632997 0.0
-0.0101683 -0.00938879 0.0
-0.0110874 -0.01272 0.0
-0.0119999 -0.0163241 0.0
-0.0130284 -0.0202188 0.0
-0.0142553 -0.0244547 0.0
-0.0157453 -0.0290976 0.0
-0.0175623 -0.0342292 0.0
-0.0197833 -0.0399467 0.0
-0.0225111 -0.0463654 0.0
-0.0258895 -0.0536218 0.0
-0.0301239 -0.0618772 0.0
-0.0355106 -0.0713186 0.0
-0.0424695 -0.0821539 0.0
-0.0515671 -0.0945905 0.0
-0.0634867 -0.108786 0.0
-0.0788635 -0.124752 0.0
-0.0978681 -0.142192 0.0
-0.119448 -0.160294 0.0
-0.140266 -0.177482 0.0
-0.153607 -0.191205 0.0
-0.148611 -0.197772 0.0
-0.110265 -0.192578 0.0
-0.0197867 -0.170413 0.0
0.141205 -0.129288 0.0
0.38869 -0.0708735 0.0
0.748869 -0.0174631 0.0
-0.00128402 -0.000183709 0.0
-0.00349268 -0.00133382 0.0
-0.00509095 -0.00344666 0.0
-0.00619508 -0.00599345 0.0
-0.00697576 -0.00892748 0.0
-0.00761336 -0.0121344 0.0
-0.00824021 -0.0156114 0.0
-0.00894611 -0.0193755 0.0