# vtk DataFile Version 3.0
Malha 2D com triângulos e temperatura
ASCII
DATASET UNSTRUCTURED_GRID

POINTS 961 double
0 0 0
1 0 0
1 1 0
0 1 0
0.0333333 0 0
0.0666667 0 0
0.1 0 0
0.133333 0 0
0.166667 0 0
0.2 0 0
0.233333 0 0
0.266667 0 0
0.3 0 0
0.333333 0 0
0.366667 0 0
0.4 0 0
0.433333 0 0
0.466667 0 0
0.5 0 0
0.533333 0 0
0.566667 0 0
0.6 0 0
0.633333 0 0
0.666667 0 0
0.7 0 0
0.733333 0 0
0.766667 0 0
0.8 0 0
0.833333 0 0
0.866667 0 0
0.9 0 0
0.933333 0 0
0.966667 0 0
1 0.0333333 0
1 0.0666667 0
1 0.1 0
1 0.133333 0
1 0.166667 0
1 0.2 0
1 0.233333 0
1 0.266667 0
1 0.3 0
1 0.333333 0
1 0.366667 0
1 0.4 0
1 0.433333 0
1 0.466667 0
1 0.5 0
1 0.533333 0
1 0.566667 0
1 0.6 0
1 0.633333 0
1 0.666667 0
1 0.7 0
1 0.733333 0
1 0.766667 0
1 0.8 0
1 0.833333 0
1 0.866667 0
1 0.9 0
1 0.933333 0
1 0.966667 0
0.966667 1 0
0.933333 1 0
0.9 1 0
0.866667 1 0
0.833333 1 0
0.8 1 0
0.766667 1 0
0.733333 1 0
0.7 1 0
0.666667 1 0
0.633333 1 0
0.6 1 0
0.566667 1 0
0.533333 1 0
0.5 1 0
0.466667 1 0
0.433333 1 0
0.4 1 0
0.366667 1 0
0.333333 1 0
0.3 1 0
0.266667 1 0
0.233333 1 0
0.2 1 0
0.166667 1 0
0.133333 1 0
0.1 1 0
0.0666667 1 0
0.0333333 1 0
0 0.966667 0
0 0.933333 0
0 0.9 0
0 0.866667 0
0 0.833333 0
0 0.8 0
0 0.766667 0
0 0.733333 0
0 0.7 0
0 0.666667 0
0 0.633333 0
0 0.6 0
0 0.566667 0
0 0.533333 0
0 0.5 0
0 0.466667 0
0 0.433333 0
0 0.4 0
0 0.366667 0
0 0.333333 0
0 0.3 0
0 0.266667 0
0 0.233333 0
0 0.2 0
0 0.166667 0
0 0.133333 0
0 0.1 0
0 0.0666667 0
0 0.0333333 0
0.0333333 0.0333333 0
0.0333333 0.0666667 0
0.0333333 0.1 0
0.0333333 0.133333 0
0.0333333 0.166667 0
0.0333333 0.2 0
0.0333333 0.233333 0
0.0333333 0.266667 0
0.0333333 0.3 0
0.0333333 0.333333 0
0.0333333 0.366667 0
0.0333333 0.4 0
0.0333333 0.433333 0
0.0333333 0.466667 0
0.0333333 0.5 0
0.0333333 0.533333 0
0.0333333 0.566667 0
0.0333333 0.6 0
0.0333333 0.633333 0
0.0333333 0.666667 0
0.0333333 0.7 0
0.0333333 0.733333 0
0.0333333 0.766667 0
0.0333333 0.8 0
0.0333333 0.833333 0
0.0333333 0.866667 0
0.0333333 0.9 0
0.0333333 0.933333 0
0.0333333 0.966667 0
0.0666667 0.0333333 0
0.0666667 0.0666667 0
0.0666667 0.1 0
0.0666667 0.133333 0
0.0666667 0.166667 0
0.0666667 0.2 0
0.0666667 0.233333 0
0.0666667 0.266667 0
0.0666667 0.3 0
0.0666667 0.333333 0
0.0666667 0.366667 0
0.0666667 0.4 0
0.0666667 0.433333 0
0.0666667 0.466667 0
0.0666667 0.5 0
0.0666667 0.533333 0
0.0666667 0.566667 0
0.0666667 0.6 0
0.0666667 0.633333 0
0.0666667 0.666667 0
0.0666667 0.7 0
0.0666667 0.733333 0
0.0666667 0.766667 0
0.0666667 0.8 0
0.0666667 0.833333 0
0.0666667 0.866667 0
0.0666667 0.9 0
0.0666667 0.933333 0
0.0666667 0.966667 0
0.1 0.0333333 0
0.1 0.0666667 0
0.1 0.1 0
0.1 0.133333 0
0.1 0.166667 0
0.1 0.2 0
0.1 0.233333 0
0.1 0.266667 0
0.1 0.3 0
0.1 0.333333 0
0.1 0.366667 0
0.1 0.4 0
0.1 0.433333 0
0.1 0.466667 0
0.1 0.5 0
0.1 0.533333 0
0.1 0.566667 0
0.1 0.6 0
0.1 0.633333 0
0.1 0.666667 0
0.1 0.7 0
0.1 0.733333 0
0.1 0.766667 0
0.1 0.8 0
0.1 0.833333 0
0.1 0.866667 0
0.1 0.9 0
0.1 0.933333 0
0.1 0.966667 0
0.133333 0.0333333 0
0.133333 0.0666667 0
0.133333 0.1 0
0.133333 0.133333 0
0.133333 0.166667 0
0.133333 0.2 0
0.133333 0.233333 0
0.133333 0.266667 0
0.133333 0.3 0
0.133333 0.333333 0
0.133333 0.366667 0
0.133333 0.4 0
0.133333 0.433333 0
0.133333 0.466667 0
0.133333 0.5 0
0.133333 0.533333 0
0.133333 0.566667 0
0.133333 0.6 0
0.133333 0.633333 0
0.133333 0.666667 0
0.133333 0.7 0
0.133333 0.733333 0
0.133333 0.766667 0
0.133333 0.8 0
0.133333 0.833333 0
0.133333 0.866667 0
0.133333 0.9 0
0.133333 0.933333 0
0.133333 0.966667 0
0.166667 0.0333333 0
0.166667 0.0666667 0
0.166667 0.1 0
0.166667 0.133333 0
0.166667 0.166667 0
0.166667 0.2 0
0.166667 0.233333 0
0.166667 0.266667 0
0.166667 0.3 0
0.166667 0.333333 0
0.166667 0.366667 0
0.166667 0.4 0
0.166667 0.433333 0
0.166667 0.466667 0
0.166667 0.5 0
0.166667 0.533333 0
0.166667 0.566667 0
0.166667 0.6 0
0.166667 0.633333 0
0.166667 0.666667 0
0.166667 0.7 0
0.166667 0.733333 0
0.166667 0.766667 0
0.166667 0.8 0
0.166667 0.833333 0
0.166667 0.866667 0
0.166667 0.9 0
0.166667 0.933333 0
0.166667 0.966667 0
0.2 0.0333333 0
0.2 0.0666667 0
0.2 0.1 0
0.2 0.133333 0
0.2 0.166667 0
0.2 0.2 0
0.2 0.233333 0
0.2 0.266667 0
0.2 0.3 0
0.2 0.333333 0
0.2 0.366667 0
0.2 0.4 0
0.2 0.433333 0
0.2 0.466667 0
0.2 0.5 0
0.2 0.533333 0
0.2 0.566667 0
0.2 0.6 0
0.2 0.633333 0
0.2 0.666667 0
0.2 0.7 0
0.2 0.733333 0
0.2 0.766667 0
0.2 0.8 0
0.2 0.833333 0
0.2 0.866667 0
0.2 0.9 0
0.2 0.933333 0
0.2 0.966667 0
0.233333 0.0333333 0
0.233333 0.0666667 0
0.233333 0.1 0
0.233333 0.133333 0
0.233333 0.166667 0
0.233333 0.2 0
0.233333 0.233333 0
0.233333 0.266667 0
0.233333 0.3 0
0.233333 0.333333 0
0.233333 0.366667 0
0.233333 0.4 0
0.233333 0.433333 0
0.233333 0.466667 0
0.233333 0.5 0
0.233333 0.533333 0
0.233333 0.566667 0
0.233333 0.6 0
0.233333 0.633333 0
0.233333 0.666667 0
0.233333 0.7 0
0.233333 0.733333 0
0.233333 0.766667 0
0.233333 0.8 0
0.233333 0.833333 0
0.233333 0.866667 0
0.233333 0.9 0
0.233333 0.933333 0
0.233333 0.966667 0
0.266667 0.0333333 0
0.266667 0.0666667 0
0.266667 0.1 0
0.266667 0.133333 0
0.266667 0.166667 0
0.266667 0.2 0
0.266667 0.233333 0
0.266667 0.266667 0
0.266667 0.3 0
0.266667 0.333333 0
0.266667 0.366667 0
0.266667 0.4 0
0.266667 0.433333 0
0.266667 0.466667 0
0.266667 0.5 0
0.266667 0.533333 0
0.266667 0.566667 0
0.266667 0.6 0
0.266667 0.633333 0
0.266667 0.666667 0
0.266667 0.7 0
0.266667 0.733333 0
0.266667 0.766667 0
0.266667 0.8 0
0.266667 0.833333 0
0.266667 0.866667 0
0.266667 0.9 0
0.266667 0.933333 0
0.266667 0.966667 0
0.3 0.0333333 0
0.3 0.0666667 0
0.3 0.1 0
0.3 0.133333 0
0.3 0.166667 0
0.3 0.2 0
0.3 0.233333 0
0.3 0.266667 0
0.3 0.3 0
0.3 0.333333 0
0.3 0.366667 0
0.3 0.4 0
0.3 0.433333 0
0.3 0.466667 0
0.3 0.5 0
0.3 0.533333 0
0.3 0.566667 0
0.3 0.6 0
0.3 0.633333 0
0.3 0.666667 0
0.3 0.7 0
0.3 0.733333 0
0.3 0.766667 0
0.3 0.8 0
0.3 0.833333 0
0.3 0.866667 0
0.3 0.9 0
0.3 0.933333 0
0.3 0.966667 0
0.333333 0.0333333 0
0.333333 0.0666667 0
0.333333 0.1 0
0.333333 0.133333 0
0.333333 0.166667 0
0.333333 0.2 0
0.333333 0.233333 0
0.333333 0.266667 0
0.333333 0.3 0
0.333333 0.333333 0
0.333333 0.366667 0
0.333333 0.4 0
0.333333 0.433333 0
0.333333 0.466667 0
0.333333 0.5 0
0.333333 0.533333 0
0.333333 0.566667 0
0.333333 0.6 0
0.333333 0.633333 0
0.333333 0.666667 0
0.333333 0.7 0
0.333333 0.733333 0
0.333333 0.766667 0
0.333333 0.8 0
0.333333 0.833333 0
0.333333 0.866667 0
0.333333 0.9 0
0.333333 0.933333 0
0.333333 0.966667 0
0.366667 0.0333333 0
0.366667 0.0666667 0
0.366667 0.1 0
0.366667 0.133333 0
0.366667 0.166667 0
0.366667 0.2 0
0.366667 0.233333 0
0.366667 0.266667 0
0.366667 0.3 0
0.366667 0.333333 0
0.366667 0.366667 0
0.366667 0.4 0
0.366667 0.433333 0
0.366667 0.466667 0
0.366667 0.5 0
0.366667 0.533333 0
0.366667 0.566667 0
0.366667 0.6 0
0.366667 0.633333 0
0.366667 0.666667 0
0.366667 0.7 0
0.366667 0.733333 0
0.366667 0.766667 0
0.366667 0.8 0
0.366667 0.833333 0
0.366667 0.866667 0
0.366667 0.9 0
0.366667 0.933333 0
0.366667 0.966667 0
0.4 0.0333333 0
0.4 0.0666667 0
0.4 0.1 0
0.4 0.133333 0
0.4 0.166667 0
0.4 0.2 0
0.4 0.233333 0
0.4 0.266667 0
0.4 0.3 0
0.4 0.333333 0
0.4 0.366667 0
0.4 0.4 0
0.4 0.433333 0
0.4 0.466667 0
0.4 0.5 0
0.4 0.533333 0
0.4 0.566667 0
0.4 0.6 0
0.4 0.633333 0
0.4 0.666667 0
0.4 0.7 0
0.4 0.733333 0
0.4 0.766667 0
0.4 0.8 0
0.4 0.833333 0
0.4 0.866667 0
0.4 0.9 0
0.4 0.933333 0
0.4 0.966667 0
0.433333 0.0333333 0
0.433333 0.0666667 0
0.433333 0.1 0
0.433333 0.133333 0
0.433333 0.166667 0
0.433333 0.2 0
0.433333 0.233333 0
0.433333 0.266667 0
0.433333 0.3 0
0.433333 0.333333 0
0.433333 0.366667 0
0.433333 0.4 0
0.433333 0.433333 0
0.433333 0.466667 0
0.433333 0.5 0
0.433333 0.533333 0
0.433333 0.566667 0
0.433333 0.6 0
0.433333 0.633333 0
0.433333 0.666667 0
0.433333 0.7 0
0.433333 0.733333 0
0.433333 0.766667 0
0.433333 0.8 0
0.433333 0.833333 0
0.433333 0.866667 0
0.433333 0.9 0
0.433333 0.933333 0
0.433333 0.966667 0
0.466667 0.0333333 0
0.466667 0.0666667 0
0.466667 0.1 0
0.466667 0.133333 0
0.466667 0.166667 0
0.466667 0.2 0
0.466667 0.233333 0
0.466667 0.266667 0
0.466667 0.3 0
0.466667 0.333333 0
0.466667 0.366667 0
0.466667 0.4 0
0.466667 0.433333 0
0.466667 0.466667 0
0.466667 0.5 0
0.466667 0.533333 0
0.466667 0.566667 0
0.466667 0.6 0
0.466667 0.633333 0
0.466667 0.666667 0
0.466667 0.7 0
0.466667 0.733333 0
0.466667 0.766667 0
0.466667 0.8 0
0.466667 0.833333 0
0.466667 0.866667 0
0.466667 0.9 0
0.466667 0.933333 0
0.466667 0.966667 0
0.5 0.0333333 0
0.5 0.0666667 0
0.5 0.1 0
0.5 0.133333 0
0.5 0.166667 0
0.5 0.2 0
0.5 0.233333 0
0.5 0.266667 0
0.5 0.3 0
0.5 0.333333 0
0.5 0.366667 0
0.5 0.4 0
0.5 0.433333 0
0.5 0.466667 0
0.5 0.5 0
0.5 0.533333 0
0.5 0.566667 0
0.5 0.6 0
0.5 0.633333 0
0.5 0.666667 0
0.5 0.7 0
0.5 0.733333 0
0.5 0.766667 0
0.5 0.8 0
0.5 0.833333 0
0.5 0.866667 0
0.5 0.9 0
0.5 0.933333 0
0.5 0.966667 0
0.533333 0.0333333 0
0.533333 0.0666667 0
0.533333 0.1 0
0.533333 0.133333 0
0.533333 0.166667 0
0.533333 0.2 0
0.533333 0.233333 0
0.533333 0.266667 0
0.533333 0.3 0
0.533333 0.333333 0
0.533333 0.366667 0
0.533333 0.4 0
0.533333 0.433333 0
0.533333 0.466667 0
0.533333 0.5 0
0.533333 0.533333 0
0.533333 0.566667 0
0.533333 0.6 0
0.533333 0.633333 0
0.533333 0.666667 0
0.533333 0.7 0
0.533333 0.733333 0
0.533333 0.766667 0
0.533333 0.8 0
0.533333 0.833333 0
0.533333 0.866667 0
0.533333 0.9 0
0.533333 0.933333 0
0.533333 0.966667 0
0.566667 0.0333333 0
0.566667 0.0666667 0
0.566667 0.1 0
0.566667 0.133333 0
0.566667 0.166667 0
0.566667 0.2 0
0.566667 0.233333 0
0.566667 0.266667 0
0.566667 0.3 0
0.566667 0.333333 0
0.566667 0.366667 0
0.566667 0.4 0
0.566667 0.433333 0
0.566667 0.466667 0
0.566667 0.5 0
0.566667 0.533333 0
0.566667 0.566667 0
0.566667 0.6 0
0.566667 0.633333 0
0.566667 0.666667 0
0.566667 0.7 0
0.566667 0.733333 0
0.566667 0.766667 0
0.566667 0.8 0
0.566667 0.833333 0
0.566667 0.866667 0
0.566667 0.9 0
0.566667 0.933333 0
0.566667 0.966667 0
0.6 0.0333333 0
0.6 0.0666667 0
0.6 0.1 0
0.6 0.133333 0
[...]
CELL_DATA 900
VECTORS velocity double
6.08431e-05 -5.97799e-05 0.0
-3.19043e-05 4.82947e-05 0.0
-0.000107992 0.000476938 0.0
-0.000160018 0.0010983 0.0
-0.000187513 0.00186729 0.0
-0.000203699 0.00272439 0.0
-0.00021575 0.00365304 0.0
-0.000228611 0.00464739 0.0
-0.000244508 0.00571558 0.0
-0.000264606 0.00687123 0.0
-0.000289558 0.00813263 0.0
-0.000320014 0.00952148 0.0
-0.000356846 0.0110636 0.0
-0.000401371 0.0127898 0.0
-0.000455623 0.0147387 0.0
-0.000522849 0.0169595 0.0
-0.000608461 0.0195177 0.0
-0.000721885 0.0225038 0.0
-0.00088012 0.0260475 0.0
-0.00111463 0.0303401 0.0
-0.00148441 0.0356718 0.0
-0.00210186 0.0424883 0.0
-0.00318159 0.051485 0.0
-0.0051389 0.0637384 0.0
-0.0087365 0.0810099 0.0
-0.0152876 0.105752 0.0
-0.0258769 0.142825 0.0
-0.0380481 0.19053 0.0
-0.0131834 0.263354 0.0
0.217077 0.174274 0.0
-5.0163e-05 3.55927e-05 0.0
-0.000556026 0.000557131 0.0
-0.00097881 0.00170019 0.0
-0.00129261 0.00321478 0.0
-0.001503 0.00504345 0.0
-0.00165623 0.0070861 0.0
-0.0017867 0.00931239 0.0
-0.00192029 0.0117114 0.0
-0.00207276 0.014299 0.0
-0.00225439 0.0171045 0.0
-0.0024727 0.0201683 0.0
-0.00273503 0.0235399 0.0
-0.0030502 0.0272786 0.0
-0.00343019 0.0314561 0.0
-0.00389209 0.0361607 0.0
-0.00446104 0.0415039 0.0
-0.00517467 0.0476301 0.0
-0.00609025 0.0547306 0.0
-0.00729536 0.0630629 0.0
-0.00892353 0.0729749 0.0
-0.011175 0.0849298 0.0
-0.014344 0.0995206 0.0
-0.0188461 0.117442 0.0
-0.0252552 0.139352 0.0
-0.0342426 0.165546 0.0
-0.0463967 0.194963 0.0
-0.0599157 0.223905 0.0
-0.0655734 0.240121 0.0
-0.00246152 0.218989 0.0
0.305906 0.116731 0.0
-0.000480417 0.000110529 0.0
-0.00169498 0.000957951 0.0
-0.00268652 0.00263385 0.0
-0.00343015 0.00476438 0.0
-0.00396058 0.00729307 0.0
-0.0043667 0.010101 0.0
-0.00472349 0.0131564 0.0
-0.00508845 0.0164488 0.0
-0.00549977 0.0199998 0.0
-0.00598348 0.0238475 0.0
-0.00655948 0.0280439 0.0
-0.00724683 0.0326519 0.0
-0.00806781 0.0377465 0.0
-0.00905162 0.0434164 0.0
-0.0102387 0.0497683 0.0
-0.0116863 0.0569329 0.0
-0.0134767 0.0650724 0.0
-0.0157278 0.0743911 0.0
-0.0186064 0.0851452 0.0
-0.0223413 0.0976513 0.0
-0.0272251 0.112279 0.0
-0.0335919 0.129408 0.0
-0.0417262 0.149307 0.0
-0.0516645 0.171868 0.0
-0.0626703 0.196017 0.0
-0.0721988 0.218867 0.0
-0.0721291 0.233347 0.0
-0.0408134 0.228304 0.0
0.0916894 0.173101 0.0
0.477152 0.0771888 0.0
-0.00108411 0.000157405 0.0
-0.00315571 0.00121777 0.0
-0.00478687 0.00323238 0.0
-0.00599692 0.00573166 0.0
-0.00687771 0.00866294 0.0
-0.00756771 0.0118985 0.0
-0.00818502 0.0154103 0.0
-0.0088193 0.0191899 0.0
-0.00953161 0.0232628 0.0
-0.0103641 0.0276703 0.0
-0.0113493 0.0324683 0.0
-0.0125178 0.037723 0.0
-0.0139043 0.0435117 0.0
-0.0155532 0.0499237 0.0
-0.0175241 0.0570628 0.0
-0.0198985 0.0650507 0.0
-0.0227888 0.0740302 0.0
-0.0263483 0.0841685 0.0
-0.0307793 0.0956556 0.0
-0.0363319 0.108694 0.0
-0.0432741 0.123462 0.0
-0.0518028 0.14004 0.0
-0.0618353 0.158227 0.0
-0.0726124 0.177267 0.0
-0.0818909 0.195215 0.0
-0.0844772 0.208431 0.0
-0.068403 0.209461 0.0
-0.00630149 0.189639 0.0
0.16599 0.127527 0.0
0.575646 0.0490984 0.0
-0.00179723 0.000174649 0.0
-0.004835 0.00133501 0.0
-0.00715765 0.00351313 0.0
-0.00885887 0.00618112 0.0
-0.0101072 0.00928701 0.0
-0.0110977 0.0126984 0.0
-0.0119945 0.0163906 0.0
-0.0129195 0.0203573 0.0
-0.0139564 0.0246253 0.0
-0.015163 0.029236 0.0
-0.0165833 0.0342438 0.0
-0.0182582 0.0397118 0.0
-0.0202325 0.0457115 0.0
-0.0225619 0.0523226 0.0
-0.0253189 0.0596336 0.0
-0.0285994 0.067742 0.0
-0.0325307 0.0767541 0.0
-0.0372773 0.0867811 0.0
-0.0430405 0.0979297 0.0
-0.0500383 0.110281 0.0
-0.058439 0.12384 0.0
-0.0682067 0.138456 0.0
-0.0787847 0.153633 0.0
-0.0885343 0.168301 0.0
-0.0937336 0.180242 0.0
-0.0869041 0.185884 0.0
-0.0532452 0.178629 0.0
0.0366578 0.152236 0.0
0.236929 0.0932293 0.0
0.646572 0.0305875 0.0
-0.00253799 0.000175864 0.0
-0.00657893 0.0013554 0.0
-0.00960151 0.0035625 0.0
-0.0117888 0.00624858 0.0
-0.013396 0.00936155 0.0
-0.0146799 0.0127682 0.0
-0.0158508 0.0164465 0.0
-0.0170624 0.0203911 0.0
-0.0184192 0.0246286 0.0
-0.0199925 0.0291982 0.0
-0.021836 0.0341499 0.0
-0.0239976 0.0395403 0.0
-0.0265287 0.0454312 0.0
-0.0294907 0.0518882 0.0
-0.0329613 0.0589798 0.0
-0.0370397 0.0667757 0.0
-0.0418523 0.0753422 0.0
-0.0475531 0.0847355 0.0
-0.0543142 0.0949872 0.0
-0.0622867 0.106079 0.0
-0.0715028 0.117891 0.0
-0.0816666 0.130125 0.0
-0.0917557 0.142137 0.0
-0.0993466 0.152761 0.0
-0.0995142 0.159822 0.0
-0.0831545 0.160199 0.0
-0.0339188 0.148363 0.0
0.0769271 0.120798 0.0
0.295328 0.0687903 0.0
0.696056 0.0191941 0.0
-0.00326861 0.00016809 0.0
-0.00830481 0.001312 0.0
-0.0120126 0.00345271 0.0
-0.0146693 0.00604967 0.0
-0.0166192 0.00905149 0.0
-0.0181818 0.0123281 0.0
-0.0196137 0.0158596 0.0
-0.0210984 0.0196409 0.0
-0.0227596 0.0236972 0.0
-0.0246802 0.0280643 0.0
-0.026921 0.0327868 0.0
-0.0295345 0.0379133 0.0
-0.0325747 0.0434947 0.0
-0.0361043 0.0495822 0.0
-0.0401991 0.0562247 0.0
-0.0449534 0.0634653 0.0
-0.0504808 0.0713357 0.0
-0.0569113 0.0798472 0.0
-0.0643712 0.0889745 0.0
-0.072929 0.0986306 0.0
-0.0824706 0.10862 0.0
-0.0924465 0.118573 0.0
-0.101411 0.1278 0.0
-0.106273 0.135172 0.0
-0.101154 0.138709 0.0
-0.0758115 0.135839 0.0
-0.0131855 0.122034 0.0
0.113826 0.0956628 0.0
0.343646 0.0511949 0.0
0.731332 0.012141 0.0
-0.00396084 0.000156163 0.0
-0.009947 0.00122949 0.0
-0.0143038 0.00323872 0.0
-0.0174015 0.00567179 0.0
-0.0196701 0.00847966 0.0
-0.0214906 0.0115394 0.0
-0.0231638 0.0148329 0.0
-0.0249012 0.0183557 0.0
-0.0268436 0.0221308 0.0
-0.0290833 0.0261903 0.0
-0.0316863 0.0305732 0.0
-0.0347071 0.0353203 0.0
-0.0381995 0.0404726 0.0
-0.0422228 0.0460681 0.0
-0.0468468 0.052139 0.0
-0.0521538 0.0587073 0.0
-0.0582379 0.065778 0.0
-0.0651966 0.0733299 0.0
-0.0731034 0.0812997 0.0
-0.0819409 0.0895596 0.0
-0.0914545 0.0978761 0.0
-0.100866 0.105855 0.0
-0.108366 0.112822 0.0
-0.11032 0.117742 0.0
-0.100126 0.118868 0.0
-0.0667646 0.114155 0.0
0.00702447 0.0998737 0.0
0.146084 0.0759059 0.0
0.382934 0.0385065 0.0
0.756871 0.0077882 0.0
-0.00459977 0.00014195 0.0
-0.0114656 0.00112138 0.0
-0.0164206 0.002954 0.0
-0.0199225 0.00517008 0.0
-0.0224815 0.00772467 0.0
-0.0245362 0.0105054 0.0
-0.0264286 0.0134966 0.0
-0.0283958 0.0166944 0.0
-0.0305934 0.02012 0.0
-0.0331218 0.0238018 0.0
-0.03605 0.0277736 0.0
-0.0394329 0.0320697 0.0
-0.0433214 0.0367226 0.0
-0.0477695 0.0417602 0.0
-0.0528371 0.0472022 0.0
-0.0585911 0.0530554 0.0
-0.0651021 0.0593072 0.0
-0.0724318 0.065916 0.0
-0.0805999 0.0727974 0.0
-0.0895059 0.0798041 0.0
-0.0987666 0.0866909 0.0
-0.107403 0.09307 0.0
-0.1133 0.0983108 0.0
-0.112379 0.101489 0.0
-0.0974973 0.101099 0.0
-0.0571324 0.0954954 0.0
0.0257034 0.0818095 0.0
0.173875 0.0605195 0.0
0.4148 0.0293088 0.0
0.775676 0.00509249 0.0
-0.00517437 0.000126198 0.0
-0.0128311 0.000994996 0.0
-0.0183214 0.00261802 0.0
-0.0221839 0.00457761 0.0
-0.0250009 0.00683447 0.0
-0.0272641 0.00928967 0.0
-0.029352 0.0119305 0.0
-0.0315247 0.0147545 0.0
-0.0339508 0.0177813 0.0
-0.0367369 0.0210361 0.0
-0.0399541 0.0245485 0.0
-0.0436561 0.0283476 0.0
-0.04789 0.0324599 0.0
-0.0527025 0.0369063 0.0
-0.0581422 0.0416987 0.0
-0.0642592 0.046835 0.0
-0.0710991 0.0522933 0.0
-0.0786879 0.0580227 0.0
-0.0869931 0.0639307 0.0
-0.0958378 0.0698666 0.0
-0.104724 0.0755904 0.0
-0.112498 0.0807366 0.0
-0.116788 0.0847307 0.0
-0.11316 0.0867557 0.0
-0.0940677 0.0855286 0.0
-0.0477071 0.0797103 0.0
0.0424904 0.0671548 0.0
0.197588 0.048522 0.0
0.440646 0.0225845 0.0
0.789768 0.0034109 0.0
-0.00567654 0.000109034 0.0
-0.0140214 0.000853953 0.0
-0.0199754 0.00224157 0.0
-0.0241493 0.00391369 0.0
-0.0271893 0.00583778 0.0
-0.0296334 0.00793071 0.0
-0.0318925 0.0101834 0.0
-0.0342464 0.0125956 0.0
-0.0368745 0.0151856 0.0
-0.0398886 0.0179764 0.0
-0.0433611 0.0209942 0.0
-0.0473438 0.0242647 0.0
-0.0518797 0.0278108 0.0
-0.0570079 0.0316498 0.0
-0.0627655 0.0357902 0.0
-0.0691856 0.0402274 0.0
-0.0762897 0.0449375 0.0
-0.0840697 0.0498693 0.0
-0.0924446 0.0549332 0.0
-0.101168 0.0599857 0.0
-0.109639 0.064803 0.0
-0.116553 0.0690491 0.0
-0.119321 0.0722062 0.0
-0.11322 0.073551 0.0
-0.0904013 0.0719894 0.0
-0.0389338 0.0664144 0.0
0.0572878 0.0552177 0.0
0.217688 0.0391079 0.0
0.461646 0.0176081 0.0
0.800507 0.00234905 0.0
-0.00609915 9.04561e-05 0.0
-0.0150186 0.000700306 0.0
-0.0213573 0.0018313 0.0
-0.025789 0.00319057 0.0
-0.0290143 0.00475327 0.0
-0.0316107 0.00645387 0.0
-0.0340161 0.00828757 0.0
-0.0365267 0.0102568 0.0
-0.0393312 0.012379 0.0
-0.0425452 0.0146757 0.0
-0.0462421 0.017171 0.0
-0.0504723 0.0198886 0.0
-0.0552748 0.0228502 0.0
-0.0606817 0.0260727 0.0
-0.0667199 0.0295658 0.0
-0.0734066 0.0333274 0.0
-0.0807413 0.0373385 0.0
-0.0886844 0.0415555 0.0
-0.0971108 0.0459 0.0
-0.10571 0.050244 0.0
-0.11379 0.054386 0.0
-0.119911 0.0580215 0.0
-0.121293 0.0606837 0.0
-0.112978 0.0617249 0.0
-0.0868923 0.0601999 0.0
-0.0310681 0.0551724 0.0
0.0701135 0.0454241 0.0
0.234619 0.0316547 0.0
0.478737 0.0138725 0.0
0.808817 0.00166709 0.0
-0.0064359 7.04604e-05 0.0
-0.0158073 0.000535537 0.0
-0.0224461 0.00139204 0.0
-0.0270784 0.00241734 0.0
-0.0304496 0.00359489 0.0
-0.0331684 0.00487812 0.0
-0.0356947 0.00626693 0.0
-0.0383376 0.00776681 0.0
-0.041293 0.00939492 0.0
-0.0446803 0.0111716 0.0
-0.0485736 0.0131199 0.0
-0.0530226 0.0152631 0.0
-0.0580635 0.0176236 0.0
-0.0637233 0.0202211 0.0
-0.0700201 0.0230701 0.0
-0.0769583 0.0261761 0.0
-0.0845181 0.0295311 0.0
-0.0926319 0.0331058 0.0
-0.101134 0.0368401 0.0
-0.109657 0.0406282 0.0
-0.11742 0.0442949 0.0
-0.122859 0.0475665 0.0
-0.123028 0.0500183 0.0
-0.112764 0.051059 0.0
-0.0838202 0.0498517 0.0
-0.0242573 0.0455811 0.0
0.0810567 0.0373033 0.0
0.248791 0.0256795 0.0
0.492664 0.0110179 0.0
0.815333 0.00121788 0.0
-0.00668108 4.91062e-05 0.0
-0.0163746 0.000361074 0.0
-0.0232242 0.000928177 0.0
-0.0279973 0.0016021 0.0
-0.0314728 0.0023749 0.0
-0.0342832 0.00322 0.0
-0.0369042 0.00414212 0.0
-0.0396545 0.00515009 0.0
-0.0427355 0.00626079 0.0
-0.0462698 0.00749396 0.0
-0.0503331 0.00887198 0.0
-0.0549756 0.0104189 0.0
-0.0602324 0.0121597 0.0
-0.0661279 0.0141191 0.0
-0.0726747 0.0163198 0.0
-0.0798676 0.0187797 0.0
-0.0876714 0.0215069 0.0
-0.0959944 0.0244932 0.0
-0.104635 0.0277034 0.0
-0.113168 0.0310597 0.0
-0.120732 0.0344173 0.0
-0.125642 0.0375315 0.0
-0.12479 0.0400103 0.0
-0.112834 0.041299 0.0
-0.0813931 0.0406317 0.0
-0.0185927 0.0372714 0.0
0.090217 0.0304605 0.0
0.260555 0.0208038 0.0
0.504003 0.00878589 0.0
0.820488 0.000910635 0.0
-0.0068298 2.65102e-05 0.0
-0.0167095 0.000178485 0.0
-0.0236772 0.000444226 0.0
-0.0285288 0.000752962 0.0
-0.0320659 0.00110547 0.0
-0.0349359 0.00149572 0.0
-0.0376243 0.00193319 0.0
-0.0404561 0.0024299 0.0
-0.0436366 0.00300235 0.0
-0.0472912 0.00366959 0.0
-0.0514982 0.00445365 0.0
-0.05631 0.00537994 0.0
-0.0617633 0.00647723 0.0
-0.0678831 0.00777711 0.0
-0.0746803 0.00931337 0.0
-0.0821451 0.0111198 0.0
-0.0902316 0.0132264 0.0
-0.0988288 0.0156522 0.0
-0.107702 0.0183937 0.0
-0.116373 0.0214087 0.0
-0.123896 0.0245866 0.0
-0.12846 0.0277114 0.0
-0.1268 0.0304152 0.0
-0.113403 0.0321612 0.0
-0.0797771 0.0322208 0.0
-0.0141394 0.029897 0.0
0.0976859 0.0245497 0.0
0.270193 0.0167175 0.0
0.513188 0.00698195 0.0
0.824579 0.000687454 0.0
-0.00687786 2.85082e-06 0.0
-0.0168035 -1.04459e-05 0.0
-0.0237938 -5.49017e-05 0.0
-0.0286601 -0.000121406 0.0
-0.0322146 -0.000200567 0.0
-0.0351108 -0.000277717 0.0
-0.0378378 -0.00033906 0.0
-0.0407231 -0.000369784 0.0
-0.0439745 -0.000354295 0.0
-0.0477203 -0.000274584 0.0
-0.0520425 -0.000109069 0.0
-0.0569983 0.000168847 0.0
-0.0626287 0.0005918 0.0
-0.0689634 0.00119943 0.0
-0.0760171 0.00203858 0.0
-0.0837809 0.00316238 0.0
-0.0922047 0.00462716 0.0
-0.101164 0.00648591 0.0
-0.110394 0.00877484 0.0
-0.119364 0.0114966 0.0
-0.127038 0.0145822 0.0
-0.131478 0.0178449 0.0
-0.129245 0.0209354 0.0
-0.114655 0.0233188 0.0
-0.0791164 0.024273 0.0
-0.010958 0.0231073 0.0
0.103526 0.0192429 0.0
0.277912 0.0131454 0.0
0.520525 0.00544801 0.0
0.827797 0.000508721 0.0
-0.00682244 -2.16599e-05 0.0
-0.0166508 -0.000203875 0.0
-0.0235667 -0.000564034 0.0
-0.0283827 -0.00101157 0.0
-0.0319095 -0.00152893 0.0
-0.0347971 -0.00208119 0.0
-0.037532 -0.00265101 0.0
-0.0404405 -0.00322163 0.0
-0.0437313 -0.00377921 0.0
-0.0475359 -0.0043077 0.0
-0.051941 -0.00478689 0.0
-0.05701 -0.00518992 0.0
-0.0627928 -0.00548084 0.0
-0.0693285 -0.00561212 0.0
-0.0766418 -0.00552307 0.0
-0.0847321 -0.005139 0.0
-0.0935536 -0.00437256 0.0
-0.102976 -0.00312947 0.0
-0.112713 -0.00132307 0.0
-0.122187 0.00110298 0.0
-0.130251 0.00412611 0.0
-0.134822 0.00760084 0.0
-0.13228 0.0111992 0.0
-0.116755 0.0143741 0.0
-0.07956 0.0163824 0.0
-0.00913418 0.0165072 0.0
0.107749 0.0141856 0.0
0.28383 0.00980785 0.0
0.526201 0.00403599 0.0
0.830249 0.00034291 0.0
-0.00666121 -4.67692e-05 0.0
-0.0162478 -0.000399577 0.0
-0.022992 -0.00107704 0.0
-0.0276928 -0.00190656 0.0
-0.0311458 -0.00286321 0.0
-0.0339882 -0.00389282 0.0
-0.0366973 -0.00497563 0.0
-0.0395947 -0.0060941 0.0
-0.0428883 -0.00723743 0.0
-0.0467123 -0.00839303 0.0
-0.05116 -0.00954385 0.0
-0.0563039 -0.0106643 0.0
-0.0622059 -0.0117169 0.0
-0.0689204 -0.0126478 0.0
-0.0764893 -0.0133836 0.0
-0.0849304 -0.0138274 0.0
-0.0942132 -0.0138581 0.0
-0.104213 -0.0133341 0.0
-0.114626 -0.0121071 0.0
-0.124814 -0.0100563 0.0
-0.133541 -0.00713545 0.0
-0.138561 -0.00343772 0.0
-0.136031 0.000729466 0.0
-0.119846 0.00480656 0.0
-0.081233 0.00802623 0.0
-0.0087687 0.00960865 0.0
0.110298 0.00895399 0.0
0.287948 0.00638074 0.0
0.530255 0.00258312 0.0
0.83195 0.000158917 0.0
-0.0063936 -7.21462e-05 0.0
-0.0155945 -0.000594691 0.0
-0.022071 -0.00158635 0.0
-0.0265921 -0.00279336 0.0
-0.0299248 -0.00418434 0.0
-0.0326838 -0.00568735 0.0
-0.0353307 -0.00728151 0.0
-0.0381782 -0.00894998 0.0
-0.0414319 -0.0106866 0.0
-0.0452288 -0.0124843 0.0
-0.0496688 -0.0143314 0.0
-0.054836 -0.0162067 0.0
-0.0608083 -0.0180745 0.0
-0.0676608 -0.0198785 0.0
-0.0754612 -0.0215359 0.0
-0.0842568 -0.0229305 0.0
-0.0940467 -0.0239081 0.0
-0.104728 -0.0242762 0.0
-0.115994 -0.0238168 0.0
-0.127161 -0.0223199 0.0
-0.136876 -0.0196443 0.0
-0.142697 -0.0158066 0.0
-0.140537 -0.011081 0.0
-0.124074 -0.00603372 0.0
-0.0843832 -0.00149348 0.0
-0.010053 0.00170455 0.0
0.111034 0.00294266 0.0
0.290145 0.00242329 0.0
0.532586 0.000879126 0.0
0.832836 -8.00333e-05 0.0
-0.00602054 -9.73881e-05 0.0
-0.0146951 -0.00078581 0.0
-0.0208101 -0.00208301 0.0
-0.0250885 -0.00365649 0.0
-0.0282543 -0.00546955 0.0
-0.0308901 -0.00743433 0.0
-0.0334349 -0.0095303 0.0
-0.0361892 -0.011743 0.0
-0.0393537 -0.0140728 0.0
-0.0430671 -0.0165204 0.0
-0.0474369 -0.0190829 0.0
-0.0525598 -0.0217475 0.0
-0.0585329 -0.0244852 0.0
-0.0654573 -0.0272436 0.0
-0.073435 -0.0299374 0.0
-0.0825555 -0.0324383 0.0
-0.0928647 -0.034564 0.0
-0.104302 -0.0360732 0.0
-0.116582 -0.0366726 0.0
-0.12899 -0.036049 0.0
-0.140063 -0.0339374 0.0
-0.147137 -0.0302295 0.0
-0.145815 -0.0251022 0.0
-0.129455 -0.0191005 0.0
-0.0889744 -0.0131158 0.0
-0.0132045 -0.00806585 0.0
0.109595 -0.00460198 0.0
0.290018 -0.00263766 0.0
0.532799 -0.00134185 0.0
0.832665 -0.000415058 0.0
-0.00554498 -0.000122041 0.0
-0.0135582 -0.000968827 0.0
-0.0192224 -0.00255609 0.0
-0.0231973 -0.00447698 0.0
-0.0261502 -0.00669081 0.0
-0.0286219 -0.00909604 0.0
-0.0310223 -0.0116739 0.0
-0.0336353 -0.0144141 0.0
-0.0366543 -0.0173255 0.0
-0.0402182 -0.020419 0.0
-0.0444411 -0.0237043 0.0
-0.0494328 -0.0271817 0.0
-0.0553109 -0.0308362 0.0
-0.0622067 -0.0346279 0.0
-0.070264 -0.03848 0.0
-0.0796272 -0.0422646 0.0
-0.0904082 -0.0457848 0.0
-0.102615 -0.0487612 0.0
-0.116016 -0.0508296 0.0
-0.129897 -0.0515661 0.0
-0.142702 -0.0505557 0.0
-0.151546 -0.047514 0.0
-0.151683 -0.0424391 0.0
-0.13608 -0.0357415 0.0
-0.0953938 -0.0282461 0.0
-0.0185413 -0.0209612 0.0
0.105601 -0.0146755 0.0
0.286961 -0.00950159 0.0
0.530201 -0.00442571 0.0
0.831071 -0.000916505 0.0
-0.00497229 -0.000145531 0.0
-0.0121988 -0.00113841 0.0
-0.0173292 -0.00299138 0.0
-0.0209438 -0.00523032 0.0
-0.0236393 -0.00781189 0.0
-0.0259056 -0.0106236 0.0
-0.0281175 -0.0136496 0.0
-0.0305375 -0.0168853 0.0
-0.0333488 -0.0203494 0.0
-0.0366881 -0.0240661 0.0
-0.0406738 -0.0280607 0.0
-0.0454272 -0.0323527 0.0
-0.0510857 -0.0369485 0.0
-0.0578117 -0.0418322 0.0
-0.0657957 -0.0469509 0.0
-0.0752473 -0.0521962 0.0
-0.0863636 -0.0573802 0.0
-0.0992518 -0.0622098 0.0
-0.113772 -0.0662708 0.0
-0.129262 -0.0690378 0.0
-0.14412 -0.0699306 0.0
-0.15527 -0.0684347 0.0
-0.157615 -0.0642625 0.0
-0.143683 -0.0575256 0.0
-0.103765 -0.0487732 0.0
-0.0267064 -0.0389333 0.0
0.0981203 -0.0288788 0.0
0.279954 -0.0192869 0.0
0.523805 -0.00894019 0.0
0.827439 -0.00171258 0.0
-0.00431089 -0.000167035 0.0
-0.0106394 -0.00128708 0.0
-0.0151622 -0.00336919 0.0
-0.0183651 -0.00588277 0.0
-0.0207616 -0.0087833 0.0
-0.0227825 -0.0119503 0.0
-0.0247613 -0.0153717 0.0
-0.0269352 -0.0190492 0.0
-0.0294734 -0.0230128 0.0
-0.0325066 -0.027301 0.0
-0.0361541 -0.0319583 0.0
-0.0405442 -0.0370279 0.0
-0.0458301 -0.0425463 0.0
-0.0522024 -0.0485336 0.0
-0.0598969 -0.0549793 0.0
-0.0691934 -0.0618213 0.0
-0.0803884 -0.0689148 0.0
-0.0937167 -0.0759965 0.0
-0.109179 -0.0826479 0.0
-0.12623 -0.0882803 0.0
-0.143306 -0.0921614 0.0
-0.157227 -0.0935083 0.0
-0.162623 -0.0916296 0.0
-0.151606 -0.0861139 0.0
-0.114015 -0.076898 0.0
-0.0383517 -0.0644964 0.0
0.0858826 -0.0495574 0.0
0.267337 -0.0338076 0.0
0.511876 -0.0158641 0.0
0.820683 -0.00303559 0.0
-0.00357449 -0.000185003 0.0
-0.00891507 -0.00140318 0.0
-0.0127694 -0.00366026 0.0
-0.0155172 -0.00638542 0.0
-0.0175776 -0.00953427 0.0
-0.0193162 -0.0129815 0.0
-0.02102 -0.0167189 0.0
-0.022897 -0.0207543 0.0
-0.025098 -0.0251285 0.0
-0.0277435 -0.0298947 0.0
-0.0309478 -0.0351179 0.0
-0.03484 -0.0408682 0.0
-0.0395806 -0.0472183 0.0
-0.0453789 -0.0542358 0.0
-0.0525075 -0.0619715 0.0
-0.0613099 -0.0704397 0.0
-0.0721846 -0.0795849 0.0
-0.0855124 -0.0892356 0.0
-0.10148 -0.0990475 0.0
-0.11974 -0.108451 0.0
-0.138888 -0.116625 0.0
-0.155807 -0.122527 0.0
-0.165036 -0.124968 0.0
-0.158434 -0.122766 0.0
-0.125413 -0.114801 0.0
-0.053863 -0.100612 0.0
0.0673739 -0.0798558 0.0
0.246835 -0.0557257 0.0
0.491845 -0.0268311 0.0
0.809043 -0.00534073 0.0
-0.00278321 -0.000196724 0.0
-0.00707547 -0.00146887 0.0
-0.0102178 -0.00382142 0.0
-0.0124768 -0.00666751 0.0
-0.0141704 -0.00996361 0.0
-0.0155954 -0.013583 0.0
-0.0169886 -0.0175197 0.0
-0.0185247 -0.0217865 0.0
-0.0203322 -0.0264328 0.0
-0.0225161 -0.031525 0.0
-0.0251794 -0.0371465 0.0
-0.0284422 -0.0433944 0.0
-0.0324606 -0.0503789 0.0
-0.0374464 -0.0582212 0.0
-0.0436888 -0.0670478 0.0
-0.0515737 -0.0769768 0.0
-0.061583 -0.0880901 0.0
-0.07424 -0.100385 0.0
-0.0899441 -0.113702 0.0
-0.108629 -0.127626 0.0
-0.129208 -0.141389 0.0
-0.148871 -0.153784 0.0
-0.162403 -0.16312 0.0
-0.161785 -0.167251 0.0
-0.136274 -0.163571 0.0
-0.0731215 -0.149885 0.0
0.0407968 -0.123577 0.0
0.215046 -0.0888069 0.0
0.459459 -0.0446803 0.0
0.789157 -0.00961073 0.0
-0.00197313 -0.000196585 0.0
-0.00520075 -0.00145581 0.0
-0.00761226 -0.00378979 0.0
-0.00936326 -0.00662896 0.0
-0.0106705 -0.00993011 0.0
-0.0117614 -0.0135681 0.0
-0.0128209 -0.0175365 0.0
-0.0139877 -0.0218503 0.0
-0.0153643 -0.0265634 0.0
-0.017035 -0.0317507 0.0
-0.0190846 -0.0375088 0.0
-0.0216147 -0.0439556 0.0
-0.024762 -0.0512333 0.0
-0.0287195 -0.0595127 0.0
-0.033763 -0.0689967 0.0
-0.0402803 -0.0799198 0.0
-0.04879 -0.092536 0.0
-0.0599151 -0.107084 0.0
-0.0742527 -0.123712 0.0
-0.092065 -0.142348 0.0
-0.112742 -0.162511 0.0
-0.134084 -0.183078 0.0
-0.151583 -0.202035 0.0
-0.15792 -0.216292 0.0
-0.142808 -0.221555 0.0
-0.0932314 -0.213013 0.0
0.00649586 -0.184923 0.0
0.169682 -0.138266 0.0
0.410328 -0.0743247 0.0
0.756133 -0.0179116 0.0
-0.00119124 -0.000177115 0.0
-0.0033904 -0.00132912 0.0
-0.0050793 -0.00348945 0.0
-0.00631777 -0.00614828 0.0
-0.00723084 -0.00926028 0.0
-0.00798051 -0.0127046 0.0
-0.00869975 -0.016471 0.0
-0.00948943 -0.0205728 0.0
-0.010423 -0.0250629 0.0
-0.0115608 -0.0300172 0.0