# vtk DataFile Version 3.0
Malha 2D com triângulos e temperatura
ASCII
DATASET UNSTRUCTURED_GRID

POINTS 961 double
0 0 0
1 0 0
1 1 0
0 1 0
0.0333333 0 0
0.0666667 0 0
0.1 0 0
0.133333 0 0
0.166667 0 0
0.2 0 0
0.233333 0 0
0.266667 0 0
0.3 0 0
0.333333 0 0
0.366667 0 0
0.4 0 0
0.433333 0 0
0.466667 0 0
0.5 0 0
0.533333 0 0
0.566667 0 0
0.6 0 0
0.633333 0 0
0.666667 0 0
0.7 0 0
0.733333 0 0
0.766667 0 0
0.8 0 0
0.833333 0 0
0.866667 0 0
0.9 0 0
0.933333 0 0
0.966667 0 0
1 0.0333333 0
1 0.0666667 0
1 0.1 0
1 0.133333 0
1 0.166667 0
1 0.2 0
1 0.233333 0
1 0.266667 0
1 0.3 0
1 0.333333 0
1 0.366667 0
1 0.4 0
1 0.433333 0
1 0.466667 0
1 0.5 0
1 0.533333 0
1 0.566667 0
1 0.6 0
1 0.633333 0
1 0.666667 0
1 0.7 0
1 0.733333 0
1 0.766667 0
1 0.8 0
1 0.833333 0
1 0.866667 0
1 0.9 0
1 0.933333 0
1 0.966667 0
0.966667 1 0
0.933333 1 0
0.9 1 0
0.866667 1 0
0.833333 1 0
0.8 1 0
0.766667 1 0
0.733333 1 0
0.7 1 0
0.666667 1 0
0.633333 1 0
0.6 1 0
0.566667 1 0
0.533333 1 0
0.5 1 0
0.466667 1 0
0.433333 1 0
0.4 1 0
0.366667 1 0
0.333333 1 0
0.3 1 0
0.266667 1 0
0.233333 1 0
0.2 1 0
0.166667 1 0
0.133333 1 0
0.1 1 0
0.0666667 1 0
0.0333333 1 0
0 0.966667 0
0 0.933333 0
0 0.9 0
0 0.866667 0
0 0.833333 0
0 0.8 0
0 0.766667 0
0 0.733333 0
0 0.7 0
0 0.666667 0
0 0.633333 0
0 0.6 0
0 0.566667 0
0 0.533333 0
0 0.5 0
0 0.466667 0
0 0.433333 0
0 0.4 0
0 0.366667 0
0 0.333333 0
0 0.3 0
0 0.266667 0
0 0.233333 0
0 0.2 0
0 0.166667 0
0 0.133333 0
0 0.1 0
0 0.0666667 0
0 0.0333333 0
0.0333333 0.0333333 0
0.0333333 0.0666667 0
0.0333333 0.1 0
0.0333333 0.133333 0
0.0333333 0.166667 0
0.0333333 0.2 0
0.0333333 0.233333 0
0.0333333 0.266667 0
0.0333333 0.3 0
0.0333333 0.333333 0
0.0333333 0.366667 0
0.0333333 0.4 0
0.0333333 0.433333 0
0.0333333 0.466667 0
0.0333333 0.5 0
0.0333333 0.533333 0
0.0333333 0.566667 0
0.0333333 0.6 0
0.0333333 0.633333 0
0.0333333 0.666667 0
0.0333333 0.7 0
0.0333333 0.733333 0
0.0333333 0.766667 0
0.0333333 0.8 0
0.0333333 0.833333 0
0.0333333 0.866667 0
0.0333333 0.9 0
0.0333333 0.933333 0
0.0333333 0.966667 0
0.0666667 0.0333333 0
0.0666667 0.0666667 0
0.0666667 0.1 0
0.0666667 0.133333 0
0.0666667 0.166667 0
0.0666667 0.2 0
0.0666667 0.233333 0
0.0666667 0.266667 0
0.0666667 0.3 0
0.0666667 0.333333 0
0.0666667 0.366667 0
0.0666667 0.4 0
0.0666667 0.433333 0
0.0666667 0.466667 0
0.0666667 0.5 0
0.0666667 0.533333 0
0.0666667 0.566667 0
0.0666667 0.6 0
0.0666667 0.633333 0
0.0666667 0.666667 0
0.0666667 0.7 0
0.0666667 0.733333 0
0.0666667 0.766667 0
0.0666667 0.8 0
0.0666667 0.833333 0
0.0666667 0.866667 0
0.0666667 0.9 0
0.0666667 0.933333 0
0.0666667 0.966667 0
0.1 0.0333333 0
0.1 0.0666667 0
0.1 0.1 0
0.1 0.133333 0
0.1 0.166667 0
0.1 0.2 0
0.1 0.233333 0
0.1 0.266667 0
0.1 0.3 0
0.1 0.333333 0
0.1 0.366667 0
0.1 0.4 0
0.1 0.433333 0
0.1 0.466667 0
0.1 0.5 0
0.1 0.533333 0
0.1 0.566667 0
0.1 0.6 0
0.1 0.633333 0
0.1 0.666667 0
0.1 0.7 0
0.1 0.733333 0
0.1 0.766667 0
0.1 0.8 0
0.1 0.833333 0
0.1 0.866667 0
0.1 0.9 0
0.1 0.933333 0
0.1 0.966667 0
0.133333 0.0333333 0
0.133333 0.0666667 0
0.133333 0.1 0
0.133333 0.133333 0
0.133333 0.166667 0
0.133333 0.2 0
0.133333 0.233333 0
0.133333 0.266667 0
0.133333 0.3 0
0.133333 0.333333 0
0.133333 0.366667 0
0.133333 0.4 0
0.133333 0.433333 0
0.133333 0.466667 0
0.133333 0.5 0
0.133333 0.533333 0
0.133333 0.566667 0
0.133333 0.6 0
0.133333 0.633333 0
0.133333 0.666667 0
0.133333 0.7 0
0.133333 0.733333 0
0.133333 0.766667 0
0.133333 0.8 0
0.133333 0.833333 0
0.133333 0.866667 0
0.133333 0.9 0
0.133333 0.933333 0
0.133333 0.966667 0
0.166667 0.0333333 0
0.166667 0.0666667 0
0.166667 0.1 0
0.166667 0.133333 0
0.166667 0.166667 0
0.166667 0.2 0
0.166667 0.233333 0
0.166667 0.266667 0
0.166667 0.3 0
0.166667 0.333333 0
0.166667 0.366667 0
0.166667 0.4 0
0.166667 0.433333 0
0.166667 0.466667 0
0.166667 0.5 0
0.166667 0.533333 0
0.166667 0.566667 0
0.166667 0.6 0
0.166667 0.633333 0
0.166667 0.666667 0
0.166667 0.7 0
0.166667 0.733333 0
0.166667 0.766667 0
0.166667 0.8 0
0.166667 0.833333 0
0.166667 0.866667 0
0.166667 0.9 0
0.166667 0.933333 0
0.166667 0.966667 0
0.2 0.0333333 0
0.2 0.0666667 0
0.2 0.1 0
0.2 0.133333 0
0.2 0.166667 0
0.2 0.2 0
0.2 0.233333 0
0.2 0.266667 0
0.2 0.3 0
0.2 0.333333 0
0.2 0.366667 0
0.2 0.4 0
0.2 0.433333 0
0.2 0.466667 0
0.2 0.5 0
0.2 0.533333 0
0.2 0.566667 0
0.2 0.6 0
0.2 0.633333 0
0.2 0.666667 0
0.2 0.7 0
0.2 0.733333 0
0.2 0.766667 0
0.2 0.8 0
0.2 0.833333 0
0.2 0.866667 0
0.2 0.9 0
0.2 0.933333 0
0.2 0.966667 0
0.233333 0.0333333 0
0.233333 0.0666667 0
0.233333 0.1 0
0.233333 0.133333 0
0.233333 0.166667 0
0.233333 0.2 0
0.233333 0.233333 0
0.233333 0.266667 0
0.233333 0.3 0
0.233333 0.333333 0
0.233333 0.366667 0
0.233333 0.4 0
0.233333 0.433333 0
0.233333 0.466667 0
0.233333 0.5 0
0.233333 0.533333 0
0.233333 0.566667 0
0.233333 0.6 0
0.233333 0.633333 0
0.233333 0.666667 0
0.233333 0.7 0
0.233333 0.733333 0
0.233333 0.766667 0
0.233333 0.8 0
0.233333 0.833333 0
0.233333 0.866667 0
0.233333 0.9 0
0.233333 0.933333 0
0.233333 0.966667 0
0.266667 0.0333333 0
0.266667 0.0666667 0
0.266667 0.1 0
0.266667 0.133333 0
0.266667 0.166667 0
0.266667 0.2 0
0.266667 0.233333 0
0.266667 0.266667 0
0.266667 0.3 0
0.266667 0.333333 0
0.266667 0.366667 0
0.266667 0.4 0
0.266667 0.433333 0
0.266667 0.466667 0
0.266667 0.5 0
0.266667 0.533333 0
0.266667 0.566667 0
0.266667 0.6 0
0.266667 0.633333 0
0.266667 0.666667 0
0.266667 0.7 0
0.266667 0.733333 0
0.266667 0.766667 0
0.266667 0.8 0
0.266667 0.833333 0
0.266667 0.866667 0
0.266667 0.9 0
0.266667 0.933333 0
0.266667 0.966667 0
0.3 0.0333333 0
0.3 0.0666667 0
0.3 0.1 0
0.3 0.133333 0
0.3 0.166667 0
0.3 0.2 0
0.3 0.233333 0
0.3 0.266667 0
0.3 0.3 0
0.3 0.333333 0
0.3 0.366667 0
0.3 0.4 0
0.3 0.433333 0
0.3 0.466667 0
0.3 0.5 0
0.3 0.533333 0
0.3 0.566667 0
0.3 0.6 0
0.3 0.633333 0
0.3 0.666667 0
0.3 0.7 0
0.3 0.733333 0
0.3 0.766667 0
0.3 0.8 0
0.3 0.833333 0
0.3 0.866667 0
0.3 0.9 0
0.3 0.933333 0
0.3 0.966667 0
0.333333 0.0333333 0
0.333333 0.0666667 0
0.333333 0.1 0
0.333333 0.133333 0
0.333333 0.166667 0
0.333333 0.2 0
0.333333 0.233333 0
0.333333 0.266667 0
0.333333 0.3 0
0.333333 0.333333 0
0.333333 0.366667 0
0.333333 0.4 0
0.333333 0.433333 0
0.333333 0.466667 0
0.333333 0.5 0
0.333333 0.533333 0
0.333333 0.566667 0
0.333333 0.6 0
0.333333 0.633333 0
0.333333 0.666667 0
0.333333 0.7 0
0.333333 0.733333 0
0.333333 0.766667 0
0.333333 0.8 0
0.333333 0.833333 0
0.333333 0.866667 0
0.333333 0.9 0
0.333333 0.933333 0
0.333333 0.966667 0
0.366667 0.0333333 0
0.366667 0.0666667 0
0.366667 0.1 0
0.366667 0.133333 0
0.366667 0.166667 0
0.366667 0.2 0
0.366667 0.233333 0
0.366667 0.266667 0
0.366667 0.3 0
0.366667 0.333333 0
0.366667 0.366667 0
0.366667 0.4 0
0.366667 0.433333 0
0.366667 0.466667 0
0.366667 0.5 0
0.366667 0.533333 0
0.366667 0.566667 0
0.366667 0.6 0
0.366667 0.633333 0
0.366667 0.666667 0
0.366667 0.7 0
0.366667 0.733333 0
0.366667 0.766667 0
0.366667 0.8 0
0.366667 0.833333 0
0.366667 0.866667 0
0.366667 0.9 0
0.366667 0.933333 0
0.366667 0.966667 0
0.4 0.0333333 0
0.4 0.0666667 0
0.4 0.1 0
0.4 0.133333 0
0.4 0.166667 0
0.4 0.2 0
0.4 0.233333 0
0.4 0.266667 0
0.4 0.3 0
0.4 0.333333 0
0.4 0.366667 0
0.4 0.4 0
0.4 0.433333 0
0.4 0.466667 0
0.4 0.5 0
0.4 0.533333 0
0.4 0.566667 0
0.4 0.6 0
0.4 0.633333 0
0.4 0.666667 0
0.4 0.7 0
0.4 0.733333 0
0.4 0.766667 0
0.4 0.8 0
0.4 0.833333 0
0.4 0.866667 0
0.4 0.9 0
0.4 0.933333 0
0.4 0.966667 0
0.433333 0.0333333 0
0.433333 0.0666667 0
0.433333 0.1 0
0.433333 0.133333 0
0.433333 0.166667 0
0.433333 0.2 0
0.433333 0.233333 0
0.433333 0.266667 0
0.433333 0.3 0
0.433333 0.333333 0
0.433333 0.366667 0
0.433333 0.4 0
0.433333 0.433333 0
0.433333 0.466667 0
0.433333 0.5 0
0.433333 0.533333 0
0.433333 0.566667 0
0.433333 0.6 0
0.433333 0.633333 0
0.433333 0.666667 0
0.433333 0.7 0
0.433333 0.733333 0
0.433333 0.766667 0
0.433333 0.8 0
0.433333 0.833333 0
0.433333 0.866667 0
0.433333 0.9 0
0.433333 0.933333 0
0.433333 0.966667 0
0.466667 0.0333333 0
0.466667 0.0666667 0
0.466667 0.1 0
0.466667 0.133333 0
0.466667 0.166667 0
0.466667 0.2 0
0.466667 0.233333 0
0.466667 0.266667 0
0.466667 0.3 0
0.466667 0.333333 0
0.466667 0.366667 0
0.466667 0.4 0
0.466667 0.433333 0
0.466667 0.466667 0
0.466667 0.5 0
0.466667 0.533333 0
0.466667 0.566667 0
0.466667 0.6 0
0.466667 0.633333 0
0.466667 0.666667 0
0.466667 0.7 0
0.466667 0.733333 0
0.466667 0.766667 0
0.466667 0.8 0
0.466667 0.833333 0
0.466667 0.866667 0
0.466667 0.9 0
0.466667 0.933333 0
0.466667 0.966667 0
0.5 0.0333333 0
0.5 0.0666667 0
0.5 0.1 0
0.5 0.133333 0
0.5 0.166667 0
0.5 0.2 0
0.5 0.233333 0
0.5 0.266667 0
0.5 0.3 0
0.5 0.333333 0
0.5 0.366667 0
0.5 0.4 0
0.5 0.433333 0
0.5 0.466667 0
0.5 0.5 0
0.5 0.533333 0
0.5 0.566667 0
0.5 0.6 0
0.5 0.633333 0
0.5 0.666667 0
0.5 0.7 0
0.5 0.733333 0
0.5 0.766667 0
0.5 0.8 0
0.5 0.833333 0
0.5 0.866667 0
0.5 0.9 0
0.5 0.933333 0
0.5 0.966667 0
0.533333 0.0333333 0
0.533333 0.0666667 0
0.533333 0.1 0
0.533333 0.133333 0
0.533333 0.166667 0
0.533333 0.2 0
0.533333 0.233333 0
0.533333 0.266667 0
0.533333 0.3 0
0.533333 0.333333 0
0.533333 0.366667 0
0.533333 0.4 0
0.533333 0.433333 0
0.533333 0.466667 0
0.533333 0.5 0
0.533333 0.533333 0
0.533333 0.566667 0
0.533333 0.6 0
0.533333 0.633333 0
0.533333 0.666667 0
0.533333 0.7 0
0.533333 0.733333 0
0.533333 0.766667 0
0.533333 0.8 0
0.533333 0.833333 0
0.533333 0.866667 0
0.533333 0.9 0
0.533333 0.933333 0
0.533333 0.966667 0
0.566667 0.0333333 0
0.566667 0.0666667 0
0.566667 0.1 0
0.566667 0.133333 0
0.566667 0.166667 0
0.566667 0.2 0
0.566667 0.233333 0
0.566667 0.266667 0
0.566667 0.3 0
0.566667 0.333333 0
0.566667 0.366667 0
0.566667 0.4 0
0.566667 0.433333 0
0.566667 0.466667 0
0.566667 0.5 0
0.566667 0.533333 0
0.566667 0.566667 0
0.566667 0.6 0
0.566667 0.633333 0
0.566667 0.666667 0
0.566667 0.7 0
0.566667 0.733333 0
0.566667 0.766667 0
0.566667 0.8 0
0.566667 0.833333 0
0.566667 0.866667 0
0.566667 0.9 0
0.566667 0.933333 0
0.566667 0.966667 0
0.6 0.0333333 0
0.6 0.0666667 0
0.6 0.1 0
0.6 0.133333 0
[...]
CELL_DATA 900
VECTORS velocity double
6.92588e-05 -6.81406e-05 0.0
-9.6061e-06 -7.91915e-06 0.0
-8.48261e-05 0.000351802 0.0
-0.000143071 0.000926388 0.0
-0.000178798 0.00167805 0.0
-0.000201993 0.00254943 0.0
-0.000218756 0.00351762 0.0
-0.000234181 0.00456982 0.0
-0.000251157 0.00570822 0.0
-0.000271533 0.00694274 0.0
-0.000296467 0.00829004 0.0
-0.000326921 0.00977175 0.0
-0.000363963 0.0114146 0.0
-0.000409085 0.0132513 0.0
-0.00046457 0.0153227 0.0
-0.000534046 0.0176811 0.0
-0.000623388 0.0203958 0.0
-0.000742302 0.0235607 0.0
-0.000907183 0.0273066 0.0
-0.00114676 0.0318182 0.0
-0.00151365 0.037363 0.0
-0.00210961 0.0443371 0.0
-0.0031376 0.0533523 0.0
-0.00501077 0.0653789 0.0
-0.00851694 0.0821 0.0
-0.0150341 0.106004 0.0
-0.0257296 0.142212 0.0
-0.0381468 0.189428 0.0
-0.0134979 0.262471 0.0
0.216778 0.173927 0.0
5.98193e-06 1.36211e-05 0.0
-0.000451166 0.000453134 0.0
-0.000883914 0.00149996 0.0
-0.00124255 0.00297113 0.0
-0.00150889 0.00482308 0.0
-0.00171375 0.00695985 0.0
-0.00188482 0.00934066 0.0
-0.00204769 0.011942 0.0
-0.00222103 0.0147687 0.0
-0.00241881 0.0178427 0.0
-0.00265179 0.0212015 0.0
-0.00292965 0.0248948 0.0
-0.00326293 0.0289848 0.0
-0.0036649 0.0335476 0.0
-0.00415385 0.0386769 0.0
-0.00475578 0.0444906 0.0
-0.0055082 0.0511385 0.0
-0.00646516 0.058814 0.0
-0.00770434 0.0677671 0.0
-0.00933756 0.0783183 0.0
-0.0115271 0.0908693 0.0
-0.0145156 0.105902 0.0
-0.0186729 0.123948 0.0
-0.0245794 0.145476 0.0
-0.0330289 0.17065 0.0
-0.0448789 0.198452 0.0
-0.0586463 0.225542 0.0
-0.0651513 0.240228 0.0
-0.00304156 0.218457 0.0
0.305027 0.116387 0.0
-0.000356466 8.82012e-05 0.0
-0.0014945 0.000865569 0.0
-0.00253173 0.00248196 0.0
-0.00339545 0.00463241 0.0
-0.0040698 0.00727631 0.0
-0.00461081 0.0102974 0.0
-0.00507814 0.0136513 0.0
-0.00552814 0.0173123 0.0
-0.00600528 0.0212888 0.0
-0.00654412 0.0256105 0.0
-0.00717232 0.0303264 0.0
-0.00791487 0.0355004 0.0
-0.00879826 0.0412116 0.0
-0.0098547 0.0475544 0.0
-0.0111266 0.0546426 0.0
-0.0126715 0.0626132 0.0
-0.014568 0.0716323 0.0
-0.0169217 0.0819011 0.0
-0.0198704 0.0936582 0.0
-0.0235872 0.107175 0.0
-0.028277 0.122732 0.0
-0.0341634 0.140563 0.0
-0.041442 0.160728 0.0
-0.0501744 0.182882 0.0
-0.0598751 0.205772 0.0
-0.0685281 0.226508 0.0
-0.0686341 0.238357 0.0
-0.0387425 0.230684 0.0
0.0917891 0.173601 0.0
0.476108 0.0770339 0.0
-0.000915542 0.000141696 0.0
-0.00291331 0.00117073 0.0
-0.0046523 0.00319961 0.0
-0.00608001 0.00581378 0.0
-0.00721225 0.00897526 0.0
-0.00813813 0.0125556 0.0
-0.0089526 0.016513 0.0
-0.00974389 0.0208232 0.0
-0.0105832 0.0254982 0.0
-0.0115265 0.0305718 0.0
-0.0126187 0.0360969 0.0
-0.0139002 0.0421418 0.0
-0.0154124 0.0487882 0.0
-0.0172037 0.0561316 0.0
-0.0193353 0.0642821 0.0
-0.0218869 0.0733656 0.0
-0.0249611 0.0835252 0.0
-0.0286862 0.0949181 0.0
-0.0332124 0.107706 0.0
-0.0386965 0.122033 0.0
-0.0452654 0.137973 0.0
-0.0529446 0.155436 0.0
-0.0615155 0.173994 0.0
-0.0702523 0.192623 0.0
-0.0772721 0.209156 0.0
-0.0781553 0.219891 0.0
-0.0618329 0.217652 0.0
-0.00134407 0.194193 0.0
0.167869 0.129131 0.0
0.575099 0.0491707 0.0
-0.00161335 0.000167326 0.0
-0.00461516 0.00134197 0.0
-0.00713391 0.00361569 0.0
-0.00916926 0.00649543 0.0
-0.0107916 0.00994142 0.0
-0.0121319 0.0138161 0.0
-0.0133245 0.0180805 0.0
-0.0144908 0.0227123 0.0
-0.0157287 0.0277263 0.0
-0.0171152 0.0331568 0.0
-0.0187117 0.0390565 0.0
-0.0205721 0.0454911 0.0
-0.02275 0.0525366 0.0
-0.0253053 0.0602782 0.0
-0.0283111 0.0688094 0.0
-0.0318574 0.0782294 0.0
-0.0360534 0.0886402 0.0
-0.0410237 0.100137 0.0
-0.0468915 0.112792 0.0
-0.0537419 0.126617 0.0
-0.0615471 0.141504 0.0
-0.0700361 0.157123 0.0
-0.0784645 0.172734 0.0
-0.0852254 0.186986 0.0
-0.0870505 0.197403 0.0
-0.0774687 0.200326 0.0
-0.0428723 0.189308 0.0
0.0452903 0.158672 0.0
0.241522 0.095778 0.0
0.647171 0.0308715 0.0
-0.00236884 0.000175528 0.0
-0.00644584 0.0014092 0.0
-0.009774 0.00378181 0.0
-0.0124235 0.00675918 0.0
-0.014534 0.0102984 0.0
-0.016286 0.0142567 0.0
-0.0178561 0.0185977 0.0
-0.0193987 0.0233008 0.0
-0.0210371 0.0283816 0.0
-0.0228674 0.0338739 0.0
-0.0249647 0.0398272 0.0
-0.0273933 0.0463009 0.0
-0.0302142 0.0533616 0.0
-0.0334931 0.0610797 0.0
-0.0373056 0.0695272 0.0
-0.04174 0.078773 0.0
-0.0468952 0.0888759 0.0
-0.0528693 0.0998722 0.0
-0.05973 0.111753 0.0
-0.0674554 0.124427 0.0
-0.0758269 0.137655 0.0
-0.084249 0.150954 0.0
-0.0914567 0.163431 0.0
-0.0950494 0.173629 0.0
-0.0906421 0.179088 0.0
-0.0703567 0.176603 0.0
-0.0193249 0.160646 0.0
0.0899186 0.128387 0.0
0.303378 0.0719222 0.0
0.698278 0.0196067 0.0
-0.00313643 0.000172433 0.0
-0.00830715 0.00139898 0.0
-0.0124445 0.00375441 0.0
-0.0156976 0.00669585 0.0
-0.0182814 0.0101781 0.0
-0.0204303 0.0140583 0.0
-0.0223648 0.0183021 0.0
-0.0242715 0.0228905 0.0
-0.026298 0.0278394 0.0
-0.0285567 0.0331809 0.0
-0.0311341 0.0389601 0.0
-0.0341014 0.0452294 0.0
-0.037523 0.0520447 0.0
-0.0414645 0.0594617 0.0
-0.0459971 0.0675317 0.0
-0.0511977 0.0762958 0.0
-0.057143 0.085776 0.0
-0.06389 0.095961 0.0
-0.0714343 0.106782 0.0
-0.0796316 0.118077 0.0
-0.0880614 0.129525 0.0
-0.0958091 0.14057 0.0
-0.101129 0.150265 0.0
-0.100937 0.157185 0.0
-0.0899764 0.159036 0.0
-0.0593953 0.15319 0.0
0.0061085 0.134932 0.0
0.131485 0.103816 0.0
0.355511 0.0545862 0.0
0.735409 0.0126037 0.0
-0.00387974 0.000163151 0.0
-0.0101158 0.00133586 0.0
-0.0150334 0.00358729 0.0
-0.0188618 0.00639103 0.0
-0.0218918 0.00970182 0.0
-0.0244128 0.0133817 0.0
-0.0266886 0.0173992 0.0
-0.0289374 0.0217372 0.0
-0.0313287 0.0264117 0.0
-0.0339894 0.0314528 0.0
-0.0370148 0.0369015 0.0
-0.0404798 0.0428037 0.0
-0.0444487 0.0492059 0.0
-0.0489826 0.0561511 0.0
-0.0541426 0.0636737 0.0
-0.0599879 0.0717932 0.0
-0.0665648 0.0805041 0.0
-0.0738811 0.0897611 0.0
-0.0818526 0.0994558 0.0
-0.0902086 0.109382 0.0
-0.0983318 0.119177 0.0
-0.105012 0.128258 0.0
-0.108083 0.135687 0.0
-0.103896 0.140128 0.0
-0.0865522 0.13953 0.0
-0.0466119 0.13175 0.0
0.0309047 0.113106 0.0
0.168526 0.0842905 0.0
0.39879 0.0419807 0.0
0.762878 0.0082534 0.0
-0.00457684 0.000150229 0.0
-0.0118155 0.00123612 0.0
-0.0174628 0.00331969 0.0
-0.0218253 0.00590926 0.0
-0.0252664 0.00896194 0.0
-0.0281291 0.0123496 0.0
-0.0307189 0.0160446 0.0
-0.0332836 0.0200325 0.0
-0.0360127 0.02433 0.0
-0.0390457 0.0289655 0.0
-0.0424842 0.0339768 0.0
-0.0464048 0.0394046 0.0
-0.0508693 0.0452883 0.0
-0.0559313 0.0516619 0.0
-0.0616381 0.0585482 0.0
-0.068027 0.0659519 0.0
-0.07511 0.07385 0.0
-0.0828412 0.0821764 0.0
-0.0910548 0.0907996 0.0
-0.0993553 0.0994906 0.0
-0.10694 0.107872 0.0
-0.112332 0.115359 0.0
-0.113 0.121057 0.0
-0.104845 0.123739 0.0
-0.0815075 0.121618 0.0
-0.0332748 0.112939 0.0
0.0542012 0.0949738 0.0
0.201184 0.0688239 0.0
0.434708 0.0327104 0.0
0.7836 0.00552371 0.0
-0.00521172 0.000135008 0.0
-0.0133639 0.00111017 0.0
-0.0196726 0.0029783 0.0
-0.0245168 0.00529563 0.0
-0.0283273 0.00802383 0.0
-0.0314971 0.0110488 0.0
-0.0343708 0.0143479 0.0
-0.037223 0.017911 0.0
-0.0402615 0.0217554 0.0
-0.0436362 0.0259092 0.0
-0.0474539 0.030408 0.0
-0.0517914 0.0352893 0.0
-0.0567062 0.0405886 0.0
-0.0622427 0.0463345 0.0
-0.0684331 0.0525439 0.0
-0.0752905 0.0592143 0.0
-0.0827904 0.0663141 0.0
-0.0908325 0.0737678 0.0
-0.0991695 0.0814342 0.0
-0.107286 0.0890764 0.0
-0.114205 0.0963155 0.0
-0.118211 0.102582 0.0
-0.116465 0.107033 0.0
-0.104509 0.108552 0.0
-0.0756725 0.105594 0.0
-0.0201857 0.0967191 0.0
0.0755549 0.0799395 0.0
0.2297 0.0565294 0.0
0.464528 0.0258082 0.0
0.799513 0.00378882 0.0
-0.00577291 0.00011796 0.0
-0.0147295 0.000963922 0.0
-0.0216175 0.00257968 0.0
-0.0268823 0.00457927 0.0
-0.031015 0.00693069 0.0
-0.0344545 0.00953729 0.0
-0.0375801 0.0123828 0.0
-0.0406909 0.0154622 0.0
-0.0440104 0.0187946 0.0
-0.0476978 0.0224083 0.0
-0.0518639 0.0263386 0.0
-0.0565851 0.0306218 0.0
-0.0619142 0.0352923 0.0
-0.0678863 0.040378 0.0
-0.0745178 0.0458951 0.0
-0.0817973 0.0518411 0.0
-0.0896639 0.0581843 0.0
-0.0979624 0.0648497 0.0
-0.106365 0.0716968 0.0
-0.11424 0.0784905 0.0
-0.12045 0.0848592 0.0
-0.123061 0.0902523 0.0
-0.118972 0.0938771 0.0
-0.103445 0.0947097 0.0
-0.0696161 0.0914213 0.0
-0.00779331 0.082805 0.0
0.0948237 0.0674499 0.0
0.25446 0.0466959 0.0
0.489341 0.0206 0.0
0.811935 0.00266857 0.0
-0.00625086 9.92066e-05 0.0
-0.0158871 0.000800691 0.0
-0.0232612 0.00213402 0.0
-0.0288778 0.0037789 0.0
-0.0332813 0.0057109 0.0
-0.0369503 0.00785357 0.0
-0.0402948 0.010198 0.0
-0.0436346 0.0127452 0.0
-0.0472072 0.0155168 0.0
-0.0511799 0.0185426 0.0
-0.055667 0.0218584 0.0
-0.0607448 0.0255016 0.0
-0.0664621 0.0295088 0.0
-0.0728454 0.033911 0.0
-0.0798963 0.0387294 0.0
-0.0875801 0.0439682 0.0
-0.0957999 0.0496036 0.0
-0.104347 0.0555696 0.0
-0.112813 0.0617351 0.0
-0.120452 0.067874 0.0
-0.125972 0.0736256 0.0
-0.127239 0.0784559 0.0
-0.120925 0.0816124 0.0
-0.10208 0.0821421 0.0
-0.0637222 0.0788928 0.0
0.00366909 0.0708173 0.0
0.112007 0.0570249 0.0
0.275873 0.0387634 0.0
0.510041 0.0166129 0.0
0.821777 0.00193106 0.0
-0.00663722 7.8723e-05 0.0
-0.0168154 0.000622451 0.0
-0.0245735 0.00164795 0.0
-0.0304673 0.00290716 0.0
-0.0350862 0.00438407 0.0
-0.0389424 0.00602444 0.0
-0.042471 0.0078274 0.0
-0.0460095 0.00980073 0.0
-0.0498073 0.011969 0.0
-0.0540389 0.0143639 0.0
-0.0588225 0.0170233 0.0
-0.0642351 0.0199875 0.0
-0.0703232 0.0232978 0.0
-0.0771067 0.0269926 0.0
-0.0845749 0.0311031 0.0
-0.0926718 0.0356467 0.0
-0.101266 0.0406153 0.0
-0.110096 0.0459604 0.0
-0.118672 0.0515682 0.0
-0.126135 0.0572273 0.0
-0.131037 0.0625894 0.0
-0.131057 0.0671328 0.0
-0.122663 0.0701304 0.0
-0.100741 0.0706788 0.0
-0.0582693 0.0677494 0.0
0.0139903 0.0604689 0.0
0.127171 0.0482552 0.0
0.294328 0.0322987 0.0
0.527353 0.013511 0.0
0.829673 0.00143377 0.0
-0.00692429 5.64827e-05 0.0
-0.0174959 0.000430704 0.0
-0.0255286 0.00112663 0.0
-0.0316202 0.00197399 0.0
-0.0363959 0.00296566 0.0
-0.0403942 0.00407103 0.0
-0.0440703 0.00529753 0.0
-0.0477758 0.00665989 0.0
-0.0517698 0.00818563 0.0
-0.0562336 0.00990892 0.0
-0.0612901 0.0118701 0.0
-0.0670188 0.014114 0.0
-0.0734667 0.0166888 0.0
-0.0806505 0.0196438 0.0
-0.0885504 0.0230252 0.0
-0.0970928 0.0268699 0.0
-0.106114 0.0311933 0.0
-0.115301 0.0359732 0.0
-0.124082 0.0411215 0.0
-0.131478 0.0464472 0.0
-0.135883 0.0516166 0.0
-0.134789 0.0561155 0.0
-0.124477 0.0592268 0.0
-0.0997102 0.0600745 0.0
-0.053489 0.0577078 0.0
0.0230827 0.0514016 0.0
0.14042 0.0407552 0.0
0.310175 0.0269359 0.0
0.541849 0.0110409 0.0
0.836068 0.00108565 0.0
-0.00710518 3.25133e-05 0.0
-0.0179128 0.00022697 0.0
-0.0261049 0.000574982 0.0
-0.0323106 0.000988775 0.0
-0.0371814 0.00147017 0.0
-0.0412746 0.00201299 0.0
-0.0450593 0.00263273 0.0
-0.0488973 0.00335079 0.0
-0.0530559 0.0041972 0.0
-0.057723 0.00520831 0.0
-0.063027 0.00642711 0.0
-0.0690532 0.00790347 0.0
-0.0758522 0.0096943 0.0
-0.0834425 0.0118625 0.0
-0.0918004 0.014474 0.0
-0.10084 0.0175912 0.0
-0.11037 0.0212606 0.0
-0.120026 0.0254962 0.0
-0.129149 0.0302446 0.0
-0.136635 0.0353429 0.0
-0.140712 0.0404763 0.0
-0.138676 0.0451355 0.0
-0.126628 0.0486004 0.0
-0.0992324 0.0499974 0.0
-0.0495711 0.0484149 0.0
0.03088 0.0432225 0.0
0.151837 0.0341535 0.0
0.323687 0.0223485 0.0
0.553959 0.0089992 0.0
0.841266 0.000825229 0.0
-0.00717344 6.87542e-06 0.0
-0.0180524 1.30491e-05 0.0
-0.0262841 -1.43496e-06 0.0
-0.0325173 -3.82604e-05 0.0
-0.0374189 -8.68683e-05 0.0
-0.0415566 -0.000128789 0.0
-0.0454073 -0.000141199 0.0
-0.0493394 -9.68338e-05 0.0
-0.0536263 3.58097e-05 0.0
-0.0584626 0.00029407 0.0
-0.0639843 0.000722873 0.0
-0.0702852 0.00137693 0.0
-0.0774252 0.00232244 0.0
-0.0854302 0.00363779 0.0
-0.0942797 0.00541172 0.0
-0.103881 0.00773782 0.0
-0.114021 0.0107015 0.0
-0.124287 0.0143647 0.0
-0.133932 0.0187189 0.0
-0.141714 0.0236387 0.0
-0.145682 0.0288375 0.0
-0.142921 0.0338132 0.0
-0.129345 0.0378354 0.0
-0.099533 0.0400097 0.0
-0.0466906 0.0394264 0.0
0.0372954 0.0354996 0.0
0.161456 0.0280642 0.0
0.335045 0.0182224 0.0
0.563975 0.0072074 0.0
0.845456 0.000607136 0.0
-0.00712426 -2.01724e-05 0.0
-0.0179049 -0.000208813 0.0
-0.0260534 -0.000596222 0.0
-0.032225 -0.00109516 0.0
-0.0370907 -0.00168693 0.0
-0.0412199 -0.00232907 0.0
-0.0450908 -0.00299279 0.0
-0.0490737 -0.00364659 0.0
-0.053446 -0.00425928 0.0
-0.058409 -0.00479441 0.0
-0.0641086 -0.00520693 0.0
-0.0706511 -0.00543884 0.0
-0.0781111 -0.00541553 0.0
-0.0865294 -0.00504276 0.0
-0.095898 -0.00420627 0.0
-0.106128 -0.00277568 0.0
-0.116996 -0.000617813 0.0
-0.128049 0.00238118 0.0
-0.13843 0.0062662 0.0
-0.146761 0.010972 0.0
-0.150894 0.0162573 0.0
-0.147683 0.0216353 0.0
-0.132834 0.026367 0.0
-0.100831 0.0295233 0.0
-0.0450378 0.0301649 0.0
0.0422071 0.0277006 0.0
0.169242 0.0220336 0.0
0.344321 0.0142135 0.0
0.572043 0.00548523 0.0
0.848726 0.000391906 0.0
-0.00695345 -4.82889e-05 0.0
-0.0174627 -0.00043564 0.0
-0.0254039 -0.00120103 0.0
-0.0314242 -0.00216665 0.0
-0.0361858 -0.00330669 0.0
-0.0402502 -0.00455621 0.0
-0.0440897 -0.0058825 0.0
-0.0480726 -0.00725208 0.0
-0.0524782 -0.00863661 0.0
-0.0575144 -0.0100031 0.0
-0.0633392 -0.0113092 0.0
-0.0700757 -0.012497 0.0
-0.0778202 -0.0134861 0.0
-0.086638 -0.0141686 0.0
-0.0965451 -0.0144051 0.0
-0.107468 -0.0140268 0.0
-0.119176 -0.012847 0.0
-0.131169 -0.0106941 0.0
-0.142525 -0.00744541 0.0
-0.151712 -0.00309367 0.0
-0.156361 0.00218356 0.0
-0.15304 0.00793003 0.0
-0.137237 0.0134385 0.0
-0.103336 0.0177465 0.0
-0.0448499 0.0198547 0.0
0.0453996 0.0191223 0.0
0.175035 0.0154777 0.0
0.351432 0.00989969 0.0
0.578136 0.00362608 0.0
0.851051 0.000139248 0.0
-0.0066592 -7.70851e-05 0.0
-0.0167239 -0.000663305 0.0
-0.0243346 -0.00180445 0.0
-0.0301145 -0.00323261 0.0
-0.0347028 -0.0049162 0.0
-0.0386431 -0.00676993 0.0
-0.0423947 -0.00875948 0.0
-0.0463189 -0.0108521 0.0
-0.0506944 -0.0130254 0.0
-0.0557356 -0.0152535 0.0
-0.0616138 -0.0175013 0.0
-0.0684732 -0.0197158 0.0
-0.0764384 -0.0218168 0.0
-0.0856094 -0.0236886 0.0
-0.0960392 -0.0251721 0.0
-0.107686 -0.026063 0.0
-0.120331 -0.0261201 0.0
-0.13345 -0.0250939 0.0
-0.146035 -0.0227717 0.0
-0.156395 -0.019053 0.0
-0.161926 -0.0140433 0.0
-0.158956 -0.00811014 0.0
-0.142685 -0.00192482 0.0
-0.107247 0.00359767 0.0
-0.0463815 0.00742724 0.0
0.0465894 0.00881462 0.0
0.178527 0.00762761 0.0
0.356072 0.00473722 0.0
0.582002 0.00136906 0.0
0.852291 -0.000200028 0.0
-0.00624194 -0.000105914 0.0
-0.0156926 -0.000886237 0.0
-0.0228532 -0.00239163 0.0
-0.0283054 -0.00426705 0.0
-0.0326512 -0.00647671 0.0
-0.0364057 -0.00891784 0.0
-0.0400077 -0.011557 0.0
-0.0438061 -0.0143653 0.0
-0.0480763 -0.0173295 0.0
-0.0530376 -0.0204354 0.0
-0.0588757 -0.0236608 0.0
-0.0657585 -0.0269648 0.0
-0.0738451 -0.0302763 0.0
-0.0832799 -0.033482 0.0
-0.0941674 -0.0364138 0.0
-0.106517 -0.0388415 0.0
-0.120143 -0.0404752 0.0
-0.134519 -0.0409884 0.0
-0.148572 -0.0400653 0.0
-0.160453 -0.0374797 0.0
-0.167315 -0.0331981 0.0
-0.165179 -0.0274601 0.0
-0.148964 -0.020846 0.0
-0.112714 -0.0141755 0.0
-0.0500738 -0.00843503 0.0
0.0451919 -0.00449192 0.0
0.17913 -0.00259485 0.0
0.357698 -0.00200089 0.0
0.583135 -0.00157055 0.0
0.852116 -0.000654384 0.0
-0.0057056 -0.000133912 0.0
-0.0143814 -0.00109712 0.0
-0.0209785 -0.00294323 0.0
-0.0260201 -0.0052363 0.0
-0.0300556 -0.00793817 0.0
-0.0335614 -0.010932 0.0
-0.0369476 -0.0141877 0.0
-0.0405459 -0.017683 0.0
-0.0446239 -0.0214175 0.0
-0.0494035 -0.0253932 0.0
-0.0550833 -0.0296075 0.0
-0.0618561 -0.0340404 0.0
-0.0699191 -0.038642 0.0
-0.0794692 -0.0433165 0.0
-0.0906762 -0.0479051 0.0
-0.103621 -0.052171 0.0
-0.11818 -0.0557936 0.0
-0.133857 -0.0583815 0.0
-0.149545 -0.0595141 0.0
-0.163269 -0.0588154 0.0
-0.171958 -0.0560568 0.0
-0.171327 -0.0512492 0.0
-0.155969 -0.0447277 0.0
-0.119677 -0.0371194 0.0
-0.0560453 -0.0293274 0.0
0.0407856 -0.0222205 0.0
0.17601 -0.0163231 0.0
0.355147 -0.0110865 0.0
0.580464 -0.0055515 0.0
0.850065 -0.00128794 0.0
-0.00505858 -0.000159865 0.0
-0.0128135 -0.00128623 0.0
-0.0187445 -0.00343393 0.0
-0.0232993 -0.00609672 0.0
-0.0269601 -0.00923592 0.0
-0.0301548 -0.0127246 0.0
-0.0332574 -0.0165379 0.0
-0.0365761 -0.0206626 0.0
-0.0403659 -0.025114 0.0
-0.0448472 -0.0299144 0.0
-0.0502278 -0.0350873 0.0
-0.0567228 -0.0406437 0.0
-0.0645671 -0.0465691 0.0
-0.074014 -0.0528051 0.0
-0.085309 -0.0592278 0.0
-0.0986232 -0.0656253 0.0
-0.113927 -0.0716792 0.0
-0.130795 -0.0769637 0.0
-0.148137 -0.0809692 0.0
-0.163916 -0.0831598 0.0
-0.174895 -0.0830601 0.0
-0.176533 -0.0803451 0.0
-0.163111 -0.0749363 0.0
-0.128117 -0.0670213 0.0
-0.0649145 -0.0571901 0.0
0.0322889 -0.0461327 0.0
0.167926 -0.0349662 0.0
0.347143 -0.0235391 0.0
0.572818 -0.0111235 0.0
0.845438 -0.00223298 0.0
-0.00431514 -0.000182063 0.0
-0.0110259 -0.00144066 0.0
-0.0162034 -0.00383077 0.0
-0.0202053 -0.00679213 0.0
-0.023433 -0.0102874 0.0
-0.0262578 -0.0141837 0.0
-0.0290104 -0.0184625 0.0
-0.0319696 -0.0231208 0.0
-0.0353719 -0.0281908 0.0
-0.0394297 -0.0337182 0.0
-0.0443533 -0.0397575 0.0
-0.0503731 -0.0463598 0.0
-0.0577557 -0.0535609 0.0
-0.0668073 -0.0613624 0.0
-0.0778514 -0.0697079 0.0
-0.091163 -0.0784527 0.0
-0.106834 -0.0873325 0.0
-0.12456 -0.0959399 0.0
-0.143344 -0.10372 0.0
-0.161179 -0.109993 0.0
-0.174782 -0.114005 0.0
-0.179474 -0.114992 0.0
-0.169311 -0.112272 0.0
-0.137463 -0.105313 0.0
-0.0769101 -0.0940399 0.0
0.0186922 -0.0785464 0.0
0.153281 -0.0606171 0.0
0.331705 -0.0409789 0.0
0.55825 -0.0191555 0.0
0.837077 -0.00369475 0.0
-0.00349812 -0.000197911 0.0
-0.0090746 -0.0015431 0.0
-0.0134327 -0.00409126 0.0
-0.0168291 -0.00725149 0.0
-0.0195749 -0.0109891 0.0
-0.0219786 -0.0151698 0.0
-0.0243219 -0.0197808 0.0
-0.0268484 -0.0248288 0.0
-0.0297696 -0.0303619 0.0
-0.0332815 -0.0364492 0.0
-0.0375872 -0.0431783 0.0
-0.0429201 -0.0506461 0.0
-0.0495649 -0.0589503 0.0
-0.0578665 -0.0681742 0.0
-0.0682171 -0.078363 0.0
-0.0809953 -0.0894908 0.0
-0.0964349 -0.101415 0.0
-0.114401 -0.113828 0.0
-0.134079 -0.12621 0.0
-0.15363 -0.137798 0.0
-0.169901 -0.147576 0.0
-0.178279 -0.154284 0.0
-0.172785 -0.156473 0.0
-0.146374 -0.15262 0.0
-0.091537 -0.141457 0.0
-0.000903558 -0.122245 0.0
0.130215 -0.096003 0.0
0.306365 -0.0657794 0.0
0.534124 -0.0311141 0.0
0.823252 -0.00608914 0.0
-0.00264002 -0.000203797 0.0
-0.00703632 -0.00157176 0.0
-0.0105363 -0.00416362 0.0
-0.0132921 -0.00738969 0.0
-0.0155201 -0.0112186 0.0
-0.0174636 -0.0155183 0.0
-0.0193517 -0.0202795 0.0
-0.0213875 -0.025516 0.0
-0.0237508 -0.031288 0.0
-0.0266123 -0.0376841 0.0
-0.0301552 -0.0448218 0.0
-0.0345993 -0.0528431 0.0
-0.0402252 -0.0619113 0.0
-0.0473908 -0.0722039 0.0
-0.0565291 -0.0838956 0.0
-0.0681023 -0.0971278 0.0
-0.082485 -0.111956 0.0
-0.099749 -0.128277 0.0
-0.119355 -0.14573 0.0
-0.139796 -0.163595 0.0
-0.158285 -0.180691 0.0
-0.170574 -0.195302 0.0
-0.170969 -0.205147 0.0
-0.152493 -0.207493 0.0
-0.107218 -0.199397 0.0
-0.0265884 -0.178723 0.0
0.0965463 -0.144175 0.0
0.267596 -0.101239 0.0
0.496248 -0.0496252 0.0
0.800736 -0.0103531 0.0
-0.00179055 -0.000193995 0.0
-0.00501976 -0.00149924 0.0
-0.00765853 -0.00398796 0.0
-0.00976165 -0.00711126 0.0
-0.0114551 -0.0108398 0.0
-0.0129191 -0.0150468 0.0
-0.0143289 -0.0197225 0.0
-0.0158441 -0.0248827 0.0
-0.0176067 -0.0305929 0.0
-0.0197535 -0.036953 0.0
-0.022435 -0.0441006 0.0
-0.0258387 -0.052212 0.0
-0.0302135 -0.0615065 0.0
-0.0358933 -0.0722502 0.0
-0.043306 -0.0847533 0.0
-0.0529492 -0.0993521 0.0
-0.0653023 -0.116363 0.0
-0.0806459 -0.135993 0.0
-0.0987823 -0.158205 0.0
-0.118694 -0.182527 0.0
-0.138222 -0.207844 0.0
-0.153845 -0.232196 0.0
-0.160595 -0.252628 0.0
-0.152034 -0.2652 0.0
-0.120218 -0.265078 0.0
-0.0555486 -0.247836 0.0
0.0530146 -0.208382 0.0
0.213604 -0.152041 0.0
0.440624 -0.0793652 0.0
0.764952 -0.0185067 0.0
-0.00100896 -0.000162546 0.0
-0.00314889 -0.0013004 0.0
-0.00496014 -0.00351134 0.0
-0.00642149 -0.00633115 0.0
-0.00758433 -0.0097289 0.0
-0.00857237 -0.013585 0.0
-0.00950904 -0.0178843 0.0
-0.0105085 -0.022639 0.0
-0.0116712 -0.027911 0.0
-0.0130939 -0.0337995 0.0
-0.0148841 -0.0404458 0.0
-0.0171794 -0.0480385 0.0
-0.0201701 -0.0568257 0.0
-0.0241232 -0.0671298 0.0