# vtk DataFile Version 3.0
Malha 2D com triângulos e temperatura
ASCII
DATASET UNSTRUCTURED_GRID

POINTS 961 double
0 0 0
1 0 0
1 1 0
0 1 0
0.0333333 0 0
0.0666667 0 0
0.1 0 0
0.133333 0 0
0.166667 0 0
0.2 0 0
0.233333 0 0
0.266667 0 0
0.3 0 0
0.333333 0 0
0.366667 0 0
0.4 0 0
0.433333 0 0
0.466667 0 0
0.5 0 0
0.533333 0 0
0.566667 0 0
0.6 0 0
0.633333 0 0
0.666667 0 0
0.7 0 0
0.733333 0 0
0.766667 0 0
0.8 0 0
0.833333 0 0
0.866667 0 0
0.9 0 0
0.933333 0 0
0.966667 0 0
1 0.0333333 0
1 0.0666667 0
1 0.1 0
1 0.133333 0
1 0.166667 0
1 0.2 0
1 0.233333 0
1 0.266667 0
1 0.3 0
1 0.333333 0
1 0.366667 0
1 0.4 0
1 0.433333 0
1 0.466667 0
1 0.5 0
1 0.533333 0
1 0.566667 0
1 0.6 0
1 0.633333 0
1 0.666667 0
1 0.7 0
1 0.733333 0
1 0.766667 0
1 0.8 0
1 0.833333 0
1 0.866667 0
1 0.9 0
1 0.933333 0
1 0.966667 0
0.966667 1 0
0.933333 1 0
0.9 1 0
0.866667 1 0
0.833333 1 0
0.8 1 0
0.766667 1 0
0.733333 1 0
0.7 1 0
0.666667 1 0
0.633333 1 0
0.6 1 0
0.566667 1 0
0.533333 1 0
0.5 1 0
0.466667 1 0
0.433333 1 0
0.4 1 0
0.366667 1 0
0.333333 1 0
0.3 1 0
0.266667 1 0
0.233333 1 0
0.2 1 0
0.166667 1 0
0.133333 1 0
0.1 1 0
0.0666667 1 0
0.0333333 1 0
0 0.966667 0
0 0.933333 0
0 0.9 0
0 0.866667 0
0 0.833333 0
0 0.8 0
0 0.766667 0
0 0.733333 0
0 0.7 0
0 0.666667 0
0 0.633333 0
0 0.6 0
0 0.566667 0
0 0.533333 0
0 0.5 0
0 0.466667 0
0 0.433333 0
0 0.4 0
0 0.366667 0
0 0.333333 0
0 0.3 0
0 0.266667 0
0 0.233333 0
0 0.2 0
0 0.166667 0
0 0.133333 0
0 0.1 0
0 0.0666667 0
0 0.0333333 0
0.0333333 0.0333333 0
0.0333333 0.0666667 0
0.0333333 0.1 0
0.0333333 0.133333 0
0.0333333 0.166667 0
0.0333333 0.2 0
0.0333333 0.233333 0
0.0333333 0.266667 0
0.0333333 0.3 0
0.0333333 0.333333 0
0.0333333 0.366667 0
0.0333333 0.4 0
0.0333333 0.433333 0
0.0333333 0.466667 0
0.0333333 0.5 0
0.0333333 0.533333 0
0.0333333 0.566667 0
0.0333333 0.6 0
0.0333333 0.633333 0
0.0333333 0.666667 0
0.0333333 0.7 0
0.0333333 0.733333 0
0.0333333 0.766667 0
0.0333333 0.8 0
0.0333333 0.833333 0
0.0333333 0.866667 0
0.0333333 0.9 0
0.0333333 0.933333 0
0.0333333 0.966667 0
0.0666667 0.0333333 0
0.0666667 0.0666667 0
0.0666667 0.1 0
0.0666667 0.133333 0
0.0666667 0.166667 0
0.0666667 0.2 0
0.0666667 0.233333 0
0.0666667 0.266667 0
0.0666667 0.3 0
0.0666667 0.333333 0
0.0666667 0.366667 0
0.0666667 0.4 0
0.0666667 0.433333 0
0.0666667 0.466667 0
0.0666667 0.5 0
0.0666667 0.533333 0
0.0666667 0.566667 0
0.0666667 0.6 0
0.0666667 0.633333 0
0.0666667 0.666667 0
0.0666667 0.7 0
0.0666667 0.733333 0
0.0666667 0.766667 0
0.0666667 0.8 0
0.0666667 0.833333 0
0.0666667 0.866667 0
0.0666667 0.9 0
0.0666667 0.933333 0
0.0666667 0.966667 0
0.1 0.0333333 0
0.1 0.0666667 0
0.1 0.1 0
0.1 0.133333 0
0.1 0.166667 0
0.1 0.2 0
0.1 0.233333 0
0.1 0.266667 0
0.1 0.3 0
0.1 0.333333 0
0.1 0.366667 0
0.1 0.4 0
0.1 0.433333 0
0.1 0.466667 0
0.1 0.5 0
0.1 0.533333 0
0.1 0.566667 0
0.1 0.6 0
0.1 0.633333 0
0.1 0.666667 0
0.1 0.7 0
0.1 0.733333 0
0.1 0.766667 0
0.1 0.8 0
0.1 0.833333 0
0.1 0.866667 0
0.1 0.9 0
0.1 0.933333 0
0.1 0.966667 0
0.133333 0.0333333 0
0.133333 0.0666667 0
0.133333 0.1 0
0.133333 0.133333 0
0.133333 0.166667 0
0.133333 0.2 0
0.133333 0.233333 0
0.133333 0.266667 0
0.133333 0.3 0
0.133333 0.333333 0
0.133333 0.366667 0
0.133333 0.4 0
0.133333 0.433333 0
0.133333 0.466667 0
0.133333 0.5 0
0.133333 0.533333 0
0.133333 0.566667 0
0.133333 0.6 0
0.133333 0.633333 0
0.133333 0.666667 0
0.133333 0.7 0
0.133333 0.733333 0
0.133333 0.766667 0
0.133333 0.8 0
0.133333 0.833333 0
0.133333 0.866667 0
0.133333 0.9 0
0.133333 0.933333 0
0.133333 0.966667 0
0.166667 0.0333333 0
0.166667 0.0666667 0
0.166667 0.1 0
0.166667 0.133333 0
0.166667 0.166667 0
0.166667 0.2 0
0.166667 0.233333 0
0.166667 0.266667 0
0.166667 0.3 0
0.166667 0.333333 0
0.166667 0.366667 0
0.166667 0.4 0
0.166667 0.433333 0
0.166667 0.466667 0
0.166667 0.5 0
0.166667 0.533333 0
0.166667 0.566667 0
0.166667 0.6 0
0.166667 0.633333 0
0.166667 0.666667 0
0.166667 0.7 0
0.166667 0.733333 0
0.166667 0.766667 0
0.166667 0.8 0
0.166667 0.833333 0
0.166667 0.866667 0
0.166667 0.9 0
0.166667 0.933333 0
0.166667 0.966667 0
0.2 0.0333333 0
0.2 0.0666667 0
0.2 0.1 0
0.2 0.133333 0
0.2 0.166667 0
0.2 0.2 0
0.2 0.233333 0
0.2 0.266667 0
0.2 0.3 0
0.2 0.333333 0
0.2 0.366667 0
0.2 0.4 0
0.2 0.433333 0
0.2 0.466667 0
0.2 0.5 0
0.2 0.533333 0
0.2 0.566667 0
0.2 0.6 0
0.2 0.633333 0
0.2 0.666667 0
0.2 0.7 0
0.2 0.733333 0
0.2 0.766667 0
0.2 0.8 0
0.2 0.833333 0
0.2 0.866667 0
0.2 0.9 0
0.2 0.933333 0
0.2 0.966667 0
0.233333 0.0333333 0
0.233333 0.0666667 0
0.233333 0.1 0
0.233333 0.133333 0
0.233333 0.166667 0
0.233333 0.2 0
0.233333 0.233333 0
0.233333 0.266667 0
0.233333 0.3 0
0.233333 0.333333 0
0.233333 0.366667 0
0.233333 0.4 0
0.233333 0.433333 0
0.233333 0.466667 0
0.233333 0.5 0
0.233333 0.533333 0
0.233333 0.566667 0
0.233333 0.6 0
0.233333 0.633333 0
0.233333 0.666667 0
0.233333 0.7 0
0.233333 0.733333 0
0.233333 0.766667 0
0.233333 0.8 0
0.233333 0.833333 0
0.233333 0.866667 0
0.233333 0.9 0
0.233333 0.933333 0
0.233333 0.966667 0
0.266667 0.0333333 0
0.266667 0.0666667 0
0.266667 0.1 0
0.266667 0.133333 0
0.266667 0.166667 0
0.266667 0.2 0
0.266667 0.233333 0
0.266667 0.266667 0
0.266667 0.3 0
0.266667 0.333333 0
0.266667 0.366667 0
0.266667 0.4 0
0.266667 0.433333 0
0.266667 0.466667 0
0.266667 0.5 0
0.266667 0.533333 0
0.266667 0.566667 0
0.266667 0.6 0
0.266667 0.633333 0
0.266667 0.666667 0
0.266667 0.7 0
0.266667 0.733333 0
0.266667 0.766667 0
0.266667 0.8 0
0.266667 0.833333 0
0.266667 0.866667 0
0.266667 0.9 0
0.266667 0.933333 0
0.266667 0.966667 0
0.3 0.0333333 0
0.3 0.0666667 0
0.3 0.1 0
0.3 0.133333 0
0.3 0.166667 0
0.3 0.2 0
0.3 0.233333 0
0.3 0.266667 0
0.3 0.3 0
0.3 0.333333 0
0.3 0.366667 0
0.3 0.4 0
0.3 0.433333 0
0.3 0.466667 0
0.3 0.5 0
0.3 0.533333 0
0.3 0.566667 0
0.3 0.6 0
0.3 0.633333 0
0.3 0.666667 0
0.3 0.7 0
0.3 0.733333 0
0.3 0.766667 0
0.3 0.8 0
0.3 0.833333 0
0.3 0.866667 0
0.3 0.9 0
0.3 0.933333 0
0.3 0.966667 0
0.333333 0.0333333 0
0.333333 0.0666667 0
0.333333 0.1 0
0.333333 0.133333 0
0.333333 0.166667 0
0.333333 0.2 0
0.333333 0.233333 0
0.333333 0.266667 0
0.333333 0.3 0
0.333333 0.333333 0
0.333333 0.366667 0
0.333333 0.4 0
0.333333 0.433333 0
0.333333 0.466667 0
0.333333 0.5 0
0.333333 0.533333 0
0.333333 0.566667 0
0.333333 0.6 0
0.333333 0.633333 0
0.333333 0.666667 0
0.333333 0.7 0
0.333333 0.733333 0
0.333333 0.766667 0
0.333333 0.8 0
0.333333 0.833333 0
0.333333 0.866667 0
0.333333 0.9 0
0.333333 0.933333 0
0.333333 0.966667 0
0.366667 0.0333333 0
0.366667 0.0666667 0
0.366667 0.1 0
0.366667 0.133333 0
0.366667 0.166667 0
0.366667 0.2 0
0.366667 0.233333 0
0.366667 0.266667 0
0.366667 0.3 0
0.366667 0.333333 0
0.366667 0.366667 0
0.366667 0.4 0
0.366667 0.433333 0
0.366667 0.466667 0
0.366667 0.5 0
0.366667 0.533333 0
0.366667 0.566667 0
0.366667 0.6 0
0.366667 0.633333 0
0.366667 0.666667 0
0.366667 0.7 0
0.366667 0.733333 0
0.366667 0.766667 0
0.366667 0.8 0
0.366667 0.833333 0
0.366667 0.866667 0
0.366667 0.9 0
0.366667 0.933333 0
0.366667 0.966667 0
0.4 0.0333333 0
0.4 0.0666667 0
0.4 0.1 0
0.4 0.133333 0
0.4 0.166667 0
0.4 0.2 0
0.4 0.233333 0
0.4 0.266667 0
0.4 0.3 0
0.4 0.333333 0
0.4 0.366667 0
0.4 0.4 0
0.4 0.433333 0
0.4 0.466667 0
0.4 0.5 0
0.4 0.533333 0
0.4 0.566667 0
0.4 0.6 0
0.4 0.633333 0
0.4 0.666667 0
0.4 0.7 0
0.4 0.733333 0
0.4 0.766667 0
0.4 0.8 0
0.4 0.833333 0
0.4 0.866667 0
0.4 0.9 0
0.4 0.933333 0
0.4 0.966667 0
0.433333 0.0333333 0
0.433333 0.0666667 0
0.433333 0.1 0
0.433333 0.133333 0
0.433333 0.166667 0
0.433333 0.2 0
0.433333 0.233333 0
0.433333 0.266667 0
0.433333 0.3 0
0.433333 0.333333 0
0.433333 0.366667 0
0.433333 0.4 0
0.433333 0.433333 0
0.433333 0.466667 0
0.433333 0.5 0
0.433333 0.533333 0
0.433333 0.566667 0
0.433333 0.6 0
0.433333 0.633333 0
0.433333 0.666667 0
0.433333 0.7 0
0.433333 0.733333 0
0.433333 0.766667 0
0.433333 0.8 0
0.433333 0.833333 0
0.433333 0.866667 0
0.433333 0.9 0
0.433333 0.933333 0
0.433333 0.966667 0
0.466667 0.0333333 0
0.466667 0.0666667 0
0.466667 0.1 0
0.466667 0.133333 0
0.466667 0.166667 0
0.466667 0.2 0
0.466667 0.233333 0
0.466667 0.266667 0
0.466667 0.3 0
0.466667 0.333333 0
0.466667 0.366667 0
0.466667 0.4 0
0.466667 0.433333 0
0.466667 0.466667 0
0.466667 0.5 0
0.466667 0.533333 0
0.466667 0.566667 0
0.466667 0.6 0
0.466667 0.633333 0
0.466667 0.666667 0
0.466667 0.7 0
0.466667 0.733333 0
0.466667 0.766667 0
0.466667 0.8 0
0.466667 0.833333 0
0.466667 0.866667 0
0.466667 0.9 0
0.466667 0.933333 0
0.466667 0.966667 0
0.5 0.0333333 0
0.5 0.0666667 0
0.5 0.1 0
0.5 0.133333 0
0.5 0.166667 0
0.5 0.2 0
0.5 0.233333 0
0.5 0.266667 0
0.5 0.3 0
0.5 0.333333 0
0.5 0.366667 0
0.5 0.4 0
0.5 0.433333 0
0.5 0.466667 0
0.5 0.5 0
0.5 0.533333 0
0.5 0.566667 0
0.5 0.6 0
0.5 0.633333 0
0.5 0.666667 0
0.5 0.7 0
0.5 0.733333 0
0.5 0.766667 0
0.5 0.8 0
0.5 0.833333 0
0.5 0.866667 0
0.5 0.9 0
0.5 0.933333 0
0.5 0.966667 0
0.533333 0.0333333 0
0.533333 0.0666667 0
0.533333 0.1 0
0.533333 0.133333 0
0.533333 0.166667 0
0.533333 0.2 0
0.533333 0.233333 0
0.533333 0.266667 0
0.533333 0.3 0
0.533333 0.333333 0
0.533333 0.366667 0
0.533333 0.4 0
0.533333 0.433333 0
0.533333 0.466667 0
0.533333 0.5 0
0.533333 0.533333 0
0.533333 0.566667 0
0.533333 0.6 0
0.533333 0.633333 0
0.533333 0.666667 0
0.533333 0.7 0
0.533333 0.733333 0
0.533333 0.766667 0
0.533333 0.8 0
0.533333 0.833333 0
0.533333 0.866667 0
0.533333 0.9 0
0.533333 0.933333 0
0.533333 0.966667 0
0.566667 0.0333333 0
0.566667 0.0666667 0
0.566667 0.1 0
0.566667 0.133333 0
0.566667 0.166667 0
0.566667 0.2 0
0.566667 0.233333 0
0.566667 0.266667 0
0.566667 0.3 0
0.566667 0.333333 0
0.566667 0.366667 0
0.566667 0.4 0
0.566667 0.433333 0
0.566667 0.466667 0
0.566667 0.5 0
0.566667 0.533333 0
0.566667 0.566667 0
0.566667 0.6 0
0.566667 0.633333 0
0.566667 0.666667 0
0.566667 0.7 0
0.566667 0.733333 0
0.566667 0.766667 0
0.566667 0.8 0
0.566667 0.833333 0
0.566667 0.866667 0
0.566667 0.9 0
0.566667 0.933333 0
0.566667 0.966667 0
0.6 0.0333333 0
0.6 0.0666667 0
0.6 0.1 0
0.6 0.133333 0
[...]
CELL_DATA 900
VECTORS velocity double
6.42933e-05 -6.3214e-05 0.0
-2.32657e-05 2.6348e-05 0.0
-9.92513e-05 0.000429087 0.0
-0.000153772 0.00103356 0.0
-0.000184296 0.00179677 0.0
-0.000202849 0.00265927 0.0
-0.000216308 0.00360158 0.0
-0.000229779 0.00461512 0.0
-0.000245798 0.00570593 0.0
-0.000265797 0.00688652 0.0
-0.000290596 0.00817483 0.0
-0.000320931 0.00959273 0.0
-0.000357719 0.0111665 0.0
-0.000402322 0.0129277 0.0
-0.000456857 0.014916 0.0
-0.000524736 0.0171817 0.0
-0.000611633 0.0197923 0.0
-0.000727291 0.0228406 0.0
-0.000888869 0.0264584 0.0
-0.00112732 0.0308379 0.0
-0.00149965 0.0362648 0.0
-0.00211389 0.0431702 0.0
-0.00317846 0.0522189 0.0
-0.0051043 0.0644397 0.0
-0.00866015 0.0815465 0.0
-0.0151843 0.105981 0.0
-0.0258016 0.142691 0.0
-0.0380676 0.190147 0.0
-0.0133025 0.263004 0.0
0.216948 0.174124 0.0
-2.82342e-05 2.70621e-05 0.0
-0.000516271 0.000517699 0.0
-0.000943902 0.00162573 0.0
-0.00127513 0.00312617 0.0
-0.00150592 0.00496556 0.0
-0.00167682 0.00704391 0.0
-0.00182024 0.00932602 0.0
-0.00196252 0.0117959 0.0
-0.00212089 0.0144656 0.0
-0.00230712 0.0173622 0.0
-0.0025299 0.0205255 0.0
-0.00279732 0.0240057 0.0
-0.00311875 0.0278634 0.0
-0.00350664 0.0321725 0.0
-0.00397864 0.0370237 0.0
-0.00456055 0.0425317 0.0
-0.00529071 0.0488443 0.0
-0.00622644 0.0561563 0.0
-0.00745347 0.0647265 0.0
-0.00909905 0.0748987 0.0
-0.0113497 0.0871202 0.0
-0.0144766 0.101947 0.0
-0.0188684 0.120011 0.0
-0.0250854 0.141885 0.0
-0.0338318 0.167782 0.0
-0.0458019 0.19662 0.0
-0.0593492 0.224814 0.0
-0.065311 0.240342 0.0
-0.00262493 0.218847 0.0
0.305558 0.116597 0.0
-0.000433 0.000102097 0.0
-0.00162045 0.000924083 0.0
-0.00263162 0.00258025 0.0
-0.00342134 0.00472184 0.0
-0.00400401 0.00729677 0.0
-0.00445642 0.0101854 0.0
-0.00484903 0.01335 0.0
-0.00524023 0.016774 0.0
-0.00567143 0.0204747 0.0
-0.00617218 0.0244875 0.0
-0.00676522 0.0288641 0.0
-0.00747162 0.0336686 0.0
-0.00831508 0.038978 0.0
-0.00932598 0.0448839 0.0
-0.0105459 0.0514965 0.0
-0.0120332 0.0589499 0.0
-0.0138706 0.0674101 0.0
-0.0161743 0.0770837 0.0
-0.0191041 0.0882257 0.0
-0.0228711 0.101143 0.0
-0.0277348 0.116179 0.0
-0.0339785 0.133667 0.0
-0.0418316 0.15379 0.0
-0.0513079 0.176335 0.0
-0.0617394 0.200126 0.0
-0.0707889 0.222231 0.0
-0.0706341 0.235676 0.0
-0.039788 0.229509 0.0
0.0919091 0.17342 0.0
0.476791 0.0771437 0.0
-0.0010207 0.000151652 0.0
-0.0030678 0.00120175 0.0
-0.00474326 0.00322504 0.0
-0.00603602 0.0057713 0.0
-0.00700764 0.00879167 0.0
-0.00777858 0.0121563 0.0
-0.00846024 0.0158309 0.0
-0.00914385 0.0198007 0.0
-0.00989568 0.0240868 0.0
-0.0107636 0.0287284 0.0
-0.0117848 0.0337812 0.0
-0.012993 0.0393129 0.0
-0.0144256 0.0454034 0.0
-0.0161284 0.052145 0.0
-0.0181625 0.0596449 0.0
-0.0206103 0.0680281 0.0
-0.0235837 0.0774399 0.0
-0.027231 0.0880478 0.0
-0.0317407 0.100037 0.0
-0.0373322 0.113595 0.0
-0.0442193 0.12887 0.0
-0.0525198 0.145883 0.0
-0.0620666 0.164345 0.0
-0.0720646 0.183383 0.0
-0.0803665 0.200933 0.0
-0.0820781 0.213284 0.0
-0.0656574 0.213053 0.0
-0.00401642 0.191719 0.0
0.167049 0.128303 0.0
0.57556 0.0491491 0.0
-0.00172905 0.000172054 0.0
-0.00475808 0.00133906 0.0
-0.00715909 0.00355567 0.0
-0.00898615 0.00630563 0.0
-0.0103688 0.00953984 0.0
-0.0114792 0.0131221 0.0
-0.0124728 0.0170216 0.0
-0.0134744 0.0212256 0.0
-0.0145749 0.0257569 0.0
-0.01584 0.0306554 0.0
-0.0173203 0.0359755 0.0
-0.0190611 0.0417821 0.0
-0.0211104 0.0481494 0.0
-0.0235259 0.0551599 0.0
-0.0263813 0.0629052 0.0
-0.0297729 0.0714852 0.0
-0.0338253 0.0810071 0.0
-0.0386941 0.0915804 0.0
-0.0445589 0.103304 0.0
-0.0515933 0.116242 0.0
-0.0598896 0.130364 0.0
-0.0693041 0.145458 0.0
-0.079165 0.160937 0.0
-0.0877808 0.175608 0.0
-0.0915446 0.187125 0.0
-0.0833625 0.191832 0.0
-0.048992 0.18315 0.0
0.0404871 0.15504 0.0
0.239188 0.0943727 0.0
0.64702 0.030722 0.0
-0.00247591 0.000175735 0.0
-0.00653599 0.0013759 0.0
-0.00967822 0.00364573 0.0
-0.0120381 0.00644094 0.0
-0.0138252 0.00971119 0.0
-0.015269 0.0133181 0.0
-0.0165707 0.0172335 0.0
-0.0178878 0.0214461 0.0
-0.0193345 0.025979 0.0
-0.0209922 0.0308701 0.0
-0.0229226 0.0361701 0.0
-0.0251794 0.0419376 0.0
-0.0278173 0.0482367 0.0
-0.0309 0.0551358 0.0
-0.0345059 0.062706 0.0
-0.0387335 0.0710181 0.0
-0.0437039 0.0801384 0.0
-0.0495581 0.0901198 0.0
-0.0564381 0.100984 0.0
-0.0644371 0.112694 0.0
-0.0734903 0.125094 0.0
-0.0831654 0.137823 0.0
-0.0922935 0.150145 0.0
-0.0983786 0.160771 0.0
-0.0966254 0.16739 0.0
-0.0783908 0.166797 0.0
-0.0280117 0.153433 0.0
0.0825497 0.12401 0.0
0.299068 0.0701408 0.0
0.697217 0.0193747 0.0
-0.00322014 0.000169492 0.0
-0.0083122 0.00134338 0.0
-0.0121854 0.00356271 0.0
-0.0150631 0.00628549 0.0
-0.0172385 0.00946113 0.0
-0.0190006 0.0129535 0.0
-0.020597 0.0167364 0.0
-0.0222167 0.0207996 0.0
-0.023995 0.0251653 0.0
-0.0260271 0.0298686 0.0
-0.0283833 0.0349551 0.0
-0.0311226 0.0404754 0.0
-0.034303 0.046483 0.0
-0.0379888 0.0530314 0.0
-0.0422563 0.0601715 0.0
-0.047197 0.0679474 0.0
-0.0529173 0.0763896 0.0
-0.0595291 0.0855049 0.0
-0.0671208 0.0952577 0.0
-0.07569 0.105541 0.0
-0.0850047 0.116123 0.0
-0.0943508 0.126571 0.0
-0.102105 0.136103 0.0
-0.105081 0.14347 0.0
-0.0975451 0.146544 0.0
-0.0697766 0.142686 0.0
-0.00551768 0.127259 0.0
0.12133 0.0990135 0.0
0.348979 0.0526089 0.0
0.73328 0.0123332 0.0
-0.00393037 0.000158357 0.0
-0.0100143 0.00126665 0.0
-0.0145842 0.00336235 0.0
-0.0179507 0.00592805 0.0
-0.0204887 0.00891476 0.0
-0.0225469 0.0121929 0.0
-0.024417 0.0157387 0.0
-0.0263181 0.0195429 0.0
-0.0284046 0.0236265 0.0
-0.0307833 0.0280212 0.0
-0.0335309 0.0327673 0.0
-0.0367089 0.037908 0.0
-0.0403753 0.0434867 0.0
-0.0445908 0.049544 0.0
-0.0494245 0.0561139 0.0
-0.0549547 0.0632186 0.0
-0.0612654 0.0708618 0.0
-0.0684313 0.0790173 0.0
-0.0764803 0.087611 0.0
-0.0853109 0.0964943 0.0
-0.0945303 0.105396 0.0
-0.103167 0.113862 0.0
-0.109204 0.121122 0.0
-0.108887 0.12602 0.0
-0.0957707 0.126663 0.0
-0.0594096 0.120938 0.0
0.016475 0.105042 0.0
0.155482 0.0792387 0.0
0.389882 0.0398964 0.0
0.759605 0.00797042 0.0
-0.00458923 0.000144496 0.0
-0.0115965 0.00116058 0.0
-0.0168117 0.00308108 0.0
-0.0206281 0.00542858 0.0
-0.0234978 0.00815773 0.0
-0.0258258 0.0111495 0.0
-0.0279457 0.0143831 0.0
-0.030104 0.0178508 0.0
-0.0324724 0.0215722 0.0
-0.035167 0.0255763 0.0
-0.0382692 0.0298985 0.0
-0.0418411 0.0345756 0.0
-0.0459381 0.0396432 0.0
-0.0506148 0.0451315 0.0
-0.0559296 0.0510621 0.0
-0.0619438 0.0574423 0.0
-0.0687149 0.064258 0.0
-0.0762773 0.0714624 0.0
-0.0845971 0.0789598 0.0
-0.0934765 0.0865819 0.0
-0.102374 0.0940452 0.0
-0.110088 0.1009 0.0
-0.114265 0.106421 0.0
-0.110688 0.109565 0.0
-0.092383 0.108689 0.0
-0.0484805 0.102071 0.0
0.0368347 0.0868558 0.0
0.185128 0.0637506 0.0
0.423337 0.0306353 0.0
0.779162 0.00525515 0.0
-0.00518409 0.000128886 0.0
-0.0130251 0.00103375 0.0
-0.0188201 0.00274135 0.0
-0.0230394 0.00482514 0.0
-0.026205 0.00724518 0.0
-0.0287738 0.0098963 0.0
-0.0311175 0.0127615 0.0
-0.0335073 0.0158355 0.0
-0.03613 0.019137 0.0
-0.0391095 0.0226925 0.0
-0.0425302 0.0265338 0.0
-0.0464537 0.0306929 0.0
-0.0509311 0.0351997 0.0
-0.0560099 0.040078 0.0
-0.0617357 0.0453418 0.0
-0.0681511 0.0509901 0.0
-0.0752862 0.0569994 0.0
-0.0831345 0.0633137 0.0
-0.0916017 0.0698293 0.0
-0.1004 0.0763733 0.0
-0.108852 0.0826666 0.0
-0.115556 0.0882801 0.0
-0.117871 0.092545 0.0
-0.111208 0.0945258 0.0
-0.0882063 0.092815 0.0
-0.0377991 0.0860017 0.0
0.0552918 0.0719631 0.0
0.210664 0.0515686 0.0
0.450717 0.0238091 0.0
0.793951 0.00354731 0.0
-0.00570587 0.000111767 0.0
-0.0142752 0.000890592 0.0
-0.0205743 0.00235606 0.0
-0.0251426 0.00414063 0.0
-0.0285646 0.00621118 0.0
-0.0313434 0.00847904 0.0
-0.033884 0.010932 0.0
-0.0364793 0.0135678 0.0
-0.0393289 0.0164049 0.0
-0.0425634 0.0194682 0.0
-0.0462691 0.0227868 0.0
-0.0505067 0.02639 0.0
-0.0553227 0.0303045 0.0
-0.0607565 0.0345513 0.0
-0.0668414 0.0391417 0.0
-0.0736012 0.0440727 0.0
-0.0810386 0.0493194 0.0
-0.0891079 0.0548262 0.0
-0.0976578 0.0604918 0.0
-0.106317 0.0661496 0.0
-0.114283 0.0715349 0.0
-0.119977 0.0762458 0.0
-0.120513 0.0796688 0.0
-0.111001 0.0809635 0.0
-0.083803 0.0789195 0.0
-0.0278022 0.0723668 0.0
0.0716859 0.0597323 0.0
0.232492 0.0419363 0.0
0.473155 0.0187184 0.0
0.805316 0.00245968 0.0
-0.00614674 9.31662e-05 0.0
-0.0153266 0.000733563 0.0
-0.0220454 0.00193302 0.0
-0.0269038 0.00338949 0.0
-0.0305396 0.00507764 0.0
-0.0334957 0.0069275 0.0
-0.0362055 0.00893227 0.0
-0.0389801 0.0110935 0.0
-0.0420299 0.0134299 0.0
-0.0454911 0.0159655 0.0
-0.0494517 0.018728 0.0
-0.0539711 0.0217457 0.0
-0.0590921 0.0250446 0.0
-0.0648468 0.0286464 0.0
-0.071257 0.0325646 0.0
-0.078329 0.0367997 0.0
-0.0860402 0.0413331 0.0
-0.0943078 0.0461171 0.0
-0.102927 0.0510617 0.0
-0.111447 0.0560149 0.0
-0.118952 0.0607318 0.0
-0.1237 0.0648385 0.0
-0.122592 0.0677699 0.0
-0.110493 0.0687615 0.0
-0.079567 0.0667583 0.0
-0.0187431 0.0607722 0.0
0.0860511 0.0496323 0.0
0.251061 0.0342561 0.0
0.491582 0.0148683 0.0
0.814184 0.00175485 0.0
-0.00649981 7.30621e-05 0.0
-0.0161621 0.000564269 0.0
-0.0232098 0.00147759 0.0
-0.0282948 0.00258188 0.0
-0.0320995 0.00386029 0.0
-0.0351988 0.0052631 0.0
-0.0380493 0.00678944 0.0
-0.0409767 0.00844519 0.0
-0.0442004 0.0102496 0.0
-0.0478611 0.0122266 0.0
-0.0520489 0.0144034 0.0
-0.0568229 0.0168087 0.0
-0.0622231 0.0194704 0.0
-0.0682762 0.0224141 0.0
-0.0749946 0.0256594 0.0
-0.0823698 0.0292165 0.0
-0.0903563 0.0330789 0.0
-0.0988374 0.0372148 0.0
-0.107557 0.0415527 0.0
-0.11599 0.045962 0.0
-0.123111 0.050221 0.0
-0.127025 0.0539819 0.0
-0.124439 0.0567173 0.0
-0.110016 0.0577177 0.0
-0.0757814 0.0560418 0.0
-0.0107734 0.050834 0.0
0.0984677 0.0412121 0.0
0.266775 0.0280616 0.0
0.50674 0.0119073 0.0
0.821192 0.00128706 0.0
-0.00675879 5.14806e-05 0.0
-0.0167672 0.00038414 0.0
-0.0240473 0.000994364 0.0
-0.0292922 0.00172643 0.0
-0.0332184 0.00257234 0.0
-0.0364254 0.00350377 0.0
-0.0393869 0.00452596 0.0
-0.04244 0.00564932 0.0
-0.0458108 0.00689384 0.0
-0.0496443 0.00828345 0.0
-0.0540333 0.00984585 0.0
-0.0590376 0.0116112 0.0
-0.0646971 0.0136112 0.0
-0.0710355 0.0158779 0.0
-0.0780593 0.0184414 0.0
-0.0857487 0.0213261 0.0
-0.094039 0.0245443 0.0
-0.102783 0.0280869 0.0
-0.111676 0.0319087 0.0
-0.120118 0.0359068 0.0
-0.126976 0.0398856 0.0
-0.130205 0.0435211 0.0
-0.126332 0.0463121 0.0
-0.109839 0.0475817 0.0
-0.0726592 0.0464638 0.0
-0.00398581 0.042191 0.0
0.109037 0.0340842 0.0
0.279987 0.02298 0.0
0.51921 0.00957883 0.0
0.826781 0.000965179 0.0
-0.00691817 2.85067e-05 0.0
-0.0171295 0.000194712 0.0
-0.0245414 0.00048796 0.0
-0.0298766 0.000831616 0.0
-0.0338751 0.00122664 0.0
-0.0371527 0.00166675 0.0
-0.0401943 0.00216316 0.0
-0.0433443 0.00273068 0.0
-0.0468342 0.00338974 0.0
-0.0508128 0.00416429 0.0
-0.0553763 0.00508255 0.0
-0.0605878 0.00617697 0.0
-0.0664894 0.00748423 0.0
-0.073106 0.00904515 0.0
-0.0804423 0.0109034 0.0
-0.0884723 0.0131022 0.0
-0.0971171 0.0156791 0.0
-0.106202 0.0186549 0.0
-0.115379 0.0220189 0.0
-0.123971 0.0257033 0.0
-0.13073 0.0295427 0.0
-0.13346 0.0332353 0.0
-0.128505 0.0362956 0.0
-0.110185 0.0380586 0.0
-0.0703718 0.0376965 0.0
0.00155555 0.0344857 0.0
0.11785 0.0278994 0.0
0.290982 0.0186985 0.0
0.529429 0.00768625 0.0
0.831256 0.000730057 0.0
-0.00697307 4.29075e-06 0.0
-0.0172388 -2.22326e-06 0.0
-0.0246789 -3.65356e-05 0.0
-0.0300326 -9.34496e-05 0.0
-0.0340525 -0.000163187 0.0
-0.0373617 -0.000229829 0.0
-0.0404502 -0.000276672 0.0
-0.0436659 -0.000285098 0.0
-0.0472436 -0.00023483 0.0
-0.0513362 -0.000102347 0.0
-0.0560451 0.000140535 0.0
-0.0614384 0.000528256 0.0
-0.0675645 0.001103 0.0
-0.0744542 0.00191565 0.0
-0.0821164 0.00302577 0.0
-0.090525 0.00449976 0.0
-0.0995933 0.0064057 0.0
-0.109125 0.00880225 0.0
-0.118726 0.0117236 0.0
-0.127645 0.0151467 0.0
-0.134512 0.018942 0.0
-0.136967 0.0228317 0.0
-0.13116 0.0263392 0.0
-0.111253 0.0287933 0.0
-0.0690724 0.0293697 0.0
0.0057761 0.0273574 0.0
0.124964 0.0223141 0.0
0.299965 0.0149311 0.0
0.537708 0.00606488 0.0
0.83481 0.000540022 0.0
-0.0069201 -2.09491e-05 0.0
-0.0170882 -0.000204725 0.0
-0.0244505 -0.000573626 0.0
-0.0297497 -0.00103864 0.0
-0.0337387 -0.00158167 0.0
-0.0370389 -0.00216507 0.0
-0.0401387 -0.00276765 0.0
-0.0433858 -0.003368 0.0
-0.0470164 -0.00394717 0.0
-0.0511875 -0.00448322 0.0
-0.056006 -0.00494926 0.0
-0.0615492 -0.00530988 0.0
-0.0678754 -0.00551815 0.0
-0.0750271 -0.00551315 0.0
-0.0830246 -0.00521815 0.0
-0.0918503 -0.00454047 0.0
-0.101418 -0.00337508 0.0
-0.11152 -0.00161585 0.0
-0.121728 0.00082525 0.0
-0.131196 0.0039759 0.0
-0.138422 0.00775686 0.0
-0.140866 0.0119272 0.0
-0.134473 0.016017 0.0
-0.11323 0.0193349 0.0
-0.0689248 0.0210289 0.0
0.00858567 0.0203701 0.0
0.130387 0.0169411 0.0
0.307051 0.0113775 0.0
0.544228 0.00455568 0.0
0.83755 0.000360727 0.0
-0.00675629 -4.6946e-05 0.0
-0.0166727 -0.000410387 0.0
-0.0238509 -0.00111659 0.0
-0.0290222 -0.00199182 0.0
-0.0329269 -0.00301047 0.0
-0.0361752 -0.00411439 0.0
-0.0392473 -0.00527923 0.0
-0.0424862 -0.00648234 0.0
-0.0461282 -0.00770771 0.0
-0.0503339 -0.00893702 0.0
-0.0552179 -0.0101465 0.0
-0.0608689 -0.0113017 0.0
-0.0673604 -0.0123533 0.0
-0.0747532 -0.0132322 0.0
-0.0830879 -0.0138451 0.0
-0.0923668 -0.0140722 0.0
-0.102517 -0.0137676 0.0
-0.113324 -0.0127695 0.0
-0.124318 -0.010927 0.0
-0.13458 -0.00814124 0.0
-0.142471 -0.00442312 0.0
-0.145242 2.99504e-05 0.0
-0.138575 0.00476418 0.0
-0.116271 0.00907799 0.0
-0.0700897 0.0120732 0.0
0.00984884 0.0129597 0.0
0.134035 0.0112981 0.0
0.312221 0.00767648 0.0
0.549016 0.00297885 0.0
0.83948 0.000157346 0.0
-0.00648066 -7.33539e-05 0.0
-0.0159919 -0.000616011 0.0
-0.0228806 -0.00165684 0.0
-0.0278512 -0.00293804 0.0
-0.0316177 -0.00442757 0.0
-0.0347692 -0.0060484 0.0
-0.0377707 -0.00777471 0.0
-0.0409567 -0.0095844 0.0
-0.0445612 -0.0114665 0.0
-0.048748 -0.0134086 0.0
-0.0536405 -0.0153932 0.0
-0.0593414 -0.0173905 0.0
-0.0659439 -0.0193526 0.0
-0.0735342 -0.0212068 0.0
-0.0821836 -0.0228474 0.0
-0.0919273 -0.0241301 0.0
-0.102721 -0.0248684 0.0
-0.114363 -0.0248407 0.0
-0.126358 -0.023815 0.0
-0.137704 -0.0215971 0.0
-0.146601 -0.0181072 0.0
-0.150065 -0.0134795 0.0
-0.143535 -0.00813324 0.0
-0.120578 -0.0027793 0.0
-0.0727935 0.00164601 0.0
0.00937172 0.00432092 0.0
0.135727 0.0047221 0.0
0.3153 0.00334848 0.0
0.551922 0.00110471 0.0
0.840513 -0.000111941 0.0
-0.00609393 -9.97133e-05 0.0
-0.0150494 -0.000817614 0.0
-0.0215462 -0.0021838 0.0
-0.0262449 -0.00385889 0.0
-0.0298191 -0.00580573 0.0
-0.032827 -0.00793055 0.0
-0.0357115 -0.0102078 0.0
-0.038794 -0.0126181 0.0
-0.0423036 -0.0151578 0.0
-0.0464066 -0.0178235 0.0
-0.0512353 -0.0206076 0.0
-0.0569083 -0.02349 0.0
-0.0635426 -0.0264308 0.0
-0.0712563 -0.0293605 0.0
-0.080162 -0.0321698 0.0
-0.0903429 -0.0346974 0.0
-0.101803 -0.036722 0.0
-0.114376 -0.0379631 0.0
-0.127563 -0.038101 0.0
-0.140294 -0.0368281 0.0
-0.150599 -0.0339358 0.0
-0.155229 -0.029433 0.0
-0.149291 -0.023654 0.0
-0.126075 -0.0172943 0.0
-0.0771917 -0.0113176 0.0
0.0067706 -0.00656318 0.0
0.135018 -0.00368411 0.0
0.315847 -0.00225947 0.0
0.552526 -0.00135072 0.0
0.84038 -0.000485755 0.0
-0.00559916 -0.000125466 0.0
-0.0138551 -0.00101019 0.0
-0.0198623 -0.00268411 0.0
-0.0242207 -0.00473118 0.0
-0.0275494 -0.00711055 0.0
-0.0303658 -0.00971437 0.0
-0.0330835 -0.0125192 0.0
-0.0360063 -0.0155102 0.0
-0.0393555 -0.0186936 0.0
-0.0432976 -0.0220782 0.0
-0.0479732 -0.0256708 0.0
-0.0535171 -0.0294671 0.0
-0.0600718 -0.0334434 0.0
-0.0677931 -0.0375446 0.0
-0.076844 -0.0416704 0.0
-0.0873716 -0.0456579 0.0
-0.0994516 -0.0492661 0.0
-0.11298 -0.0521668 0.0
-0.127491 -0.0539571 0.0
-0.141872 -0.0542046 0.0
-0.154005 -0.0525378 0.0
-0.160362 -0.0487771 0.0
-0.15569 -0.0430662 0.0
-0.132922 -0.0359439 0.0
-0.0835094 -0.0283106 0.0
0.00177154 -0.0210656 0.0
0.131404 -0.015004 0.0
0.313052 -0.00990236 0.0
0.549979 -0.00475149 0.0
0.838668 -0.00103479 0.0
-0.00500251 -0.000149855 0.0
-0.0124261 -0.00118707 0.0
-0.0178535 -0.00314017 0.0
-0.0218081 -0.00552447 0.0
-0.0248401 -0.00829701 0.0
-0.0274171 -0.011339 0.0
-0.0299163 -0.0146303 0.0
-0.0326193 -0.0181629 0.0
-0.0357356 -0.0219544 0.0
-0.0394292 -0.0260288 0.0
-0.0438459 -0.0304119 0.0
-0.0491348 -0.0351221 0.0
-0.0554637 -0.0401614 0.0
-0.0630273 -0.0455029 0.0
-0.0720457 -0.0510739 0.0
-0.0827431 -0.0567335 0.0
-0.0952894 -0.0622477 0.0
-0.10968 -0.0672691 0.0
-0.125521 -0.0713325 0.0
-0.141713 -0.0738867 0.0
-0.156036 -0.0743727 0.0
-0.16472 -0.0723515 0.0
-0.162151 -0.0676445 0.0
-0.140866 -0.0604465 0.0
-0.0920425 -0.051347 0.0
-0.00645339 -0.0411662 0.0
0.123821 -0.0308069 0.0
0.30579 -0.0206794 0.0
0.543213 -0.00966479 0.0
0.834722 -0.00188987 0.0
-0.00431399 -0.000171772 0.0
-0.0107891 -0.00133896 0.0
-0.0155578 -0.00352778 0.0
-0.0190518 -0.00619743 0.0
-0.0217397 -0.00930446 0.0
-0.0240309 -0.0127225 0.0
-0.0262602 -0.0164358 0.0
-0.028682 -0.0204437 0.0
-0.0314895 -0.0247766 0.0
-0.0348398 -0.0294757 0.0
-0.0388794 -0.0345891 0.0
-0.0437667 -0.040164 0.0
-0.0496895 -0.0462382 0.0
-0.0568782 -0.0528285 0.0
-0.0656099 -0.0599124 0.0
-0.0761927 -0.0674029 0.0
-0.0889091 -0.0751146 0.0
-0.103887 -0.0827292 0.0
-0.120865 -0.0897685 0.0
-0.138827 -0.0955974 0.0
-0.155544 -0.0994699 0.0
-0.167108 -0.100627 0.0
-0.167625 -0.0984181 0.0
-0.149258 -0.0924383 0.0
-0.102794 -0.0826046 0.0
-0.0186839 -0.0693269 0.0
0.110832 -0.0533945 0.0
0.292242 -0.0363545 0.0
0.530384 -0.0170369 0.0
0.827411 -0.00327429 0.0
-0.00355008 -0.000189279 0.0
-0.00898565 -0.00145205 0.0
-0.0130322 -0.0038126 0.0
-0.0160185 -0.00669267 0.0
-0.0183211 -0.0100497 0.0
-0.0202846 -0.0137534 0.0
-0.0221965 -0.0177923 0.0
-0.0242791 -0.0221727 0.0
-0.0267047 -0.0269375 0.0
-0.0296176 -0.0321448 0.0
-0.0331585 -0.037867 0.0
-0.0374866 -0.0441834 0.0
-0.0427998 -0.0511755 0.0
-0.0493531 -0.0589177 0.0
-0.0574704 -0.0674617 0.0
-0.0675386 -0.0768114 0.0
-0.0799587 -0.0868847 0.0
-0.0950189 -0.097464 0.0
-0.112645 -0.108142 0.0
-0.132006 -0.118281 0.0
-0.151007 -0.126996 0.0
-0.165783 -0.133192 0.0
-0.170364 -0.135617 0.0
-0.156694 -0.132988 0.0
-0.115141 -0.124086 0.0
-0.0354628 -0.108361 0.0
0.0908012 -0.0857457 0.0
0.270036 -0.0594647 0.0
0.508874 -0.0284305 0.0
0.814973 -0.00562522 0.0
-0.00273502 -0.000199261 0.0
-0.00707449 -0.00150659 0.0
-0.0103562 -0.00394722 0.0
-0.0128 -0.00693239 0.0
-0.0146842 -0.0104212 0.0
-0.0162859 -0.0142831 0.0
-0.0178409 -0.0185091 0.0
-0.0195358 -0.023111 0.0
-0.0215167 -0.0281412 0.0
-0.0239092 -0.0336727 0.0
-0.0268397 -0.0397995 0.0
-0.0304566 -0.0466327 0.0
-0.0349531 -0.0542994 0.0
-0.0405889 -0.0629393 0.0
-0.0477116 -0.0726961 0.0
-0.0567626 -0.0836994 0.0
-0.0682458 -0.0960289 0.0
-0.0826145 -0.109657 0.0
-0.100029 -0.124368 0.0
-0.119951 -0.139657 0.0
-0.140615 -0.154633 0.0
-0.158478 -0.167932 0.0
-0.167844 -0.177666 0.0
-0.160791 -0.181457 0.0
-0.127481 -0.17649 0.0
-0.0568237 -0.160521 0.0
0.0616919 -0.131329 0.0
0.235642 -0.0936036 0.0
0.474401 -0.0466051 0.0
0.794076 -0.00990875 0.0
-0.00190983 -0.000195916 0.0
-0.00514611 -0.0014738 0.0
-0.00764873 -0.00386803 0.0
-0.00953256 -0.00681522 0.0
-0.010979 -0.0102755 0.0
-0.0121982 -0.014121 0.0
-0.0133731 -0.0183424 0.0
-0.0146509 -0.0229534 0.0
-0.0161479 -0.0280111 0.0
-0.0179647 -0.0335976 0.0
-0.0202049 -0.0398218 0.0
-0.0229941 -0.0468192 0.0
-0.0265019 -0.054755 0.0
-0.0309664 -0.0638296 0.0
-0.036722 -0.0742807 0.0
-0.0442192 -0.0863801 0.0
-0.0540156 -0.100413 0.0
-0.0666953 -0.116628 0.0
-0.0826605 -0.135141 0.0
-0.101757 -0.155779 0.0
-0.12275 -0.177877 0.0
-0.142766 -0.200034 0.0
-0.156857 -0.219889 0.0
-0.157798 -0.233981 0.0
-0.136077 -0.237689 0.0
-0.080048 -0.226273 0.0
0.0241997 -0.193789 0.0
0.187124 -0.143682 0.0
0.422771 -0.0763264 0.0
0.759966 -0.0181586 0.0
-0.00112644 -0.000172172 0.0
-0.00330984 -0.00132156 0.0
-0.00504988 -0.00350565 0.0
-0.00637381 -0.0062299 0.0
-0.007378 -0.00945266 0.0
-0.00821048 -0.0130515 0.0
-0.00900182 -0.0170127 0.0
-0.00985854 -0.0213479 0.0
-0.0108635 -0.0261121 0.0
-0.0120883 -0.0313878 0.0
-0.0136067 -0.0372875 0.0
-0.0155103 -0.0439556 0.0