# vtk DataFile Version 3.0
Malha 2D com triângulos e temperatura
ASCII
DATASET UNSTRUCTURED_GRID

POINTS 961 double
0 0 0
1 0 0
1 1 0
0 1 0
0.0333333 0 0
0.0666667 0 0
0.1 0 0
0.133333 0 0
0.166667 0 0
0.2 0 0
0.233333 0 0
0.266667 0 0
0.3 0 0
0.333333 0 0
0.366667 0 0
0.4 0 0
0.433333 0 0
0.466667 0 0
0.5 0 0
0.533333 0 0
0.566667 0 0
0.6 0 0
0.633333 0 0
0.666667 0 0
0.7 0 0
0.733333 0 0
0.766667 0 0
0.8 0 0
0.833333 0 0
0.866667 0 0
0.9 0 0
0.933333 0 0
0.966667 0 0
1 0.0333333 0
1 0.0666667 0
1 0.1 0
1 0.133333 0
1 0.166667 0
1 0.2 0
1 0.233333 0
1 0.266667 0
1 0.3 0
1 0.333333 0
1 0.366667 0
1 0.4 0
1 0.433333 0
1 0.466667 0
1 0.5 0
1 0.533333 0
1 0.566667 0
1 0.6 0
1 0.633333 0
1 0.666667 0
1 0.7 0
1 0.733333 0
1 0.766667 0
1 0.8 0
1 0.833333 0
1 0.866667 0
1 0.9 0
1 0.933333 0
1 0.966667 0
0.966667 1 0
0.933333 1 0
0.9 1 0
0.866667 1 0
0.833333 1 0
0.8 1 0
0.766667 1 0
0.733333 1 0
0.7 1 0
0.666667 1 0
0.633333 1 0
0.6 1 0
0.566667 1 0
0.533333 1 0
0.5 1 0
0.466667 1 0
0.433333 1 0
0.4 1 0
0.366667 1 0
0.333333 1 0
0.3 1 0
0.266667 1 0
0.233333 1 0
0.2 1 0
0.166667 1 0
0.133333 1 0
0.1 1 0
0.0666667 1 0
0.0333333 1 0
0 0.966667 0
0 0.933333 0
0 0.9 0
0 0.866667 0
0 0.833333 0
0 0.8 0
0 0.766667 0
0 0.733333 0
0 0.7 0
0 0.666667 0
0 0.633333 0
0 0.6 0
0 0.566667 0
0 0.533333 0
0 0.5 0
0 0.466667 0
0 0.433333 0
0 0.4 0
0 0.366667 0
0 0.333333 0
0 0.3 0
0 0.266667 0
0 0.233333 0
0 0.2 0
0 0.166667 0
0 0.133333 0
0 0.1 0
0 0.0666667 0
0 0.0333333 0
0.0333333 0.0333333 0
0.0333333 0.0666667 0
0.0333333 0.1 0
0.0333333 0.133333 0
0.0333333 0.166667 0
0.0333333 0.2 0
0.0333333 0.233333 0
0.0333333 0.266667 0
0.0333333 0.3 0
0.0333333 0.333333 0
0.0333333 0.366667 0
0.0333333 0.4 0
0.0333333 0.433333 0
0.0333333 0.466667 0
0.0333333 0.5 0
0.0333333 0.533333 0
0.0333333 0.566667 0
0.0333333 0.6 0
0.0333333 0.633333 0
0.0333333 0.666667 0
0.0333333 0.7 0
0.0333333 0.733333 0
0.0333333 0.766667 0
0.0333333 0.8 0
0.0333333 0.833333 0
0.0333333 0.866667 0
0.0333333 0.9 0
0.0333333 0.933333 0
0.0333333 0.966667 0
0.0666667 0.0333333 0
0.0666667 0.0666667 0
0.0666667 0.1 0
0.0666667 0.133333 0
0.0666667 0.166667 0
0.0666667 0.2 0
0.0666667 0.233333 0
0.0666667 0.266667 0
0.0666667 0.3 0
0.0666667 0.333333 0
0.0666667 0.366667 0
0.0666667 0.4 0
0.0666667 0.433333 0
0.0666667 0.466667 0
0.0666667 0.5 0
0.0666667 0.533333 0
0.0666667 0.566667 0
0.0666667 0.6 0
0.0666667 0.633333 0
0.0666667 0.666667 0
0.0666667 0.7 0
0.0666667 0.733333 0
0.0666667 0.766667 0
0.0666667 0.8 0
0.0666667 0.833333 0
0.0666667 0.866667 0
0.0666667 0.9 0
0.0666667 0.933333 0
0.0666667 0.966667 0
0.1 0.0333333 0
0.1 0.0666667 0
0.1 0.1 0
0.1 0.133333 0
0.1 0.166667 0
0.1 0.2 0
0.1 0.233333 0
0.1 0.266667 0
0.1 0.3 0
0.1 0.333333 0
0.1 0.366667 0
0.1 0.4 0
0.1 0.433333 0
0.1 0.466667 0
0.1 0.5 0
0.1 0.533333 0
0.1 0.566667 0
0.1 0.6 0
0.1 0.633333 0
0.1 0.666667 0
0.1 0.7 0
0.1 0.733333 0
0.1 0.766667 0
0.1 0.8 0
0.1 0.833333 0
0.1 0.866667 0
0.1 0.9 0
0.1 0.933333 0
0.1 0.966667 0
0.133333 0.0333333 0
0.133333 0.0666667 0
0.133333 0.1 0
0.133333 0.133333 0
0.133333 0.166667 0
0.133333 0.2 0
0.133333 0.233333 0
0.133333 0.266667 0
0.133333 0.3 0
0.133333 0.333333 0
0.133333 0.366667 0
0.133333 0.4 0
0.133333 0.433333 0
0.133333 0.466667 0
0.133333 0.5 0
0.133333 0.533333 0
0.133333 0.566667 0
0.133333 0.6 0
0.133333 0.633333 0
0.133333 0.666667 0
0.133333 0.7 0
0.133333 0.733333 0
0.133333 0.766667 0
0.133333 0.8 0
0.133333 0.833333 0
0.133333 0.866667 0
0.133333 0.9 0
0.133333 0.933333 0
0.133333 0.966667 0
0.166667 0.0333333 0
0.166667 0.0666667 0
0.166667 0.1 0
0.166667 0.133333 0
0.166667 0.166667 0
0.166667 0.2 0
0.166667 0.233333 0
0.166667 0.266667 0
0.166667 0.3 0
0.166667 0.333333 0
0.166667 0.366667 0
0.166667 0.4 0
0.166667 0.433333 0
0.166667 0.466667 0
0.166667 0.5 0
0.166667 0.533333 0
0.166667 0.566667 0
0.166667 0.6 0
0.166667 0.633333 0
0.166667 0.666667 0
0.166667 0.7 0
0.166667 0.733333 0
0.166667 0.766667 0
0.166667 0.8 0
0.166667 0.833333 0
0.166667 0.866667 0
0.166667 0.9 0
0.166667 0.933333 0
0.166667 0.966667 0
0.2 0.0333333 0
0.2 0.0666667 0
0.2 0.1 0
0.2 0.133333 0
0.2 0.166667 0
0.2 0.2 0
0.2 0.233333 0
0.2 0.266667 0
0.2 0.3 0
0.2 0.333333 0
0.2 0.366667 0
0.2 0.4 0
0.2 0.433333 0
0.2 0.466667 0
0.2 0.5 0
0.2 0.533333 0
0.2 0.566667 0
0.2 0.6 0
0.2 0.633333 0
0.2 0.666667 0
0.2 0.7 0
0.2 0.733333 0
0.2 0.766667 0
0.2 0.8 0
0.2 0.833333 0
0.2 0.866667 0
0.2 0.9 0
0.2 0.933333 0
0.2 0.966667 0
0.233333 0.0333333 0
0.233333 0.0666667 0
0.233333 0.1 0
0.233333 0.133333 0
0.233333 0.166667 0
0.233333 0.2 0
0.233333 0.233333 0
0.233333 0.266667 0
0.233333 0.3 0
0.233333 0.333333 0
0.233333 0.366667 0
0.233333 0.4 0
0.233333 0.433333 0
0.233333 0.466667 0
0.233333 0.5 0
0.233333 0.533333 0
0.233333 0.566667 0
0.233333 0.6 0
0.233333 0.633333 0
0.233333 0.666667 0
0.233333 0.7 0
0.233333 0.733333 0
0.233333 0.766667 0
0.233333 0.8 0
0.233333 0.833333 0
0.233333 0.866667 0
0.233333 0.9 0
0.233333 0.933333 0
0.233333 0.966667 0
0.266667 0.0333333 0
0.266667 0.0666667 0
0.266667 0.1 0
0.266667 0.133333 0
0.266667 0.166667 0
0.266667 0.2 0
0.266667 0.233333 0
0.266667 0.266667 0
0.266667 0.3 0
0.266667 0.333333 0
0.266667 0.366667 0
0.266667 0.4 0
0.266667 0.433333 0
0.266667 0.466667 0
0.266667 0.5 0
0.266667 0.533333 0
0.266667 0.566667 0
0.266667 0.6 0
0.266667 0.633333 0
0.266667 0.666667 0
0.266667 0.7 0
0.266667 0.733333 0
0.266667 0.766667 0
0.266667 0.8 0
0.266667 0.833333 0
0.266667 0.866667 0
0.266667 0.9 0
0.266667 0.933333 0
0.266667 0.966667 0
0.3 0.0333333 0
0.3 0.0666667 0
0.3 0.1 0
0.3 0.133333 0
0.3 0.166667 0
0.3 0.2 0
0.3 0.233333 0
0.3 0.266667 0
0.3 0.3 0
0.3 0.333333 0
0.3 0.366667 0
0.3 0.4 0
0.3 0.433333 0
0.3 0.466667 0
0.3 0.5 0
0.3 0.533333 0
0.3 0.566667 0
0.3 0.6 0
0.3 0.633333 0
0.3 0.666667 0
0.3 0.7 0
0.3 0.733333 0
0.3 0.766667 0
0.3 0.8 0
0.3 0.833333 0
0.3 0.866667 0
0.3 0.9 0
0.3 0.933333 0
0.3 0.966667 0
0.333333 0.0333333 0
0.333333 0.0666667 0
0.333333 0.1 0
0.333333 0.133333 0
0.333333 0.166667 0
0.333333 0.2 0
0.333333 0.233333 0
0.333333 0.266667 0
0.333333 0.3 0
0.333333 0.333333 0
0.333333 0.366667 0
0.333333 0.4 0
0.333333 0.433333 0
0.333333 0.466667 0
0.333333 0.5 0
0.333333 0.533333 0
0.333333 0.566667 0
0.333333 0.6 0
0.333333 0.633333 0
0.333333 0.666667 0
0.333333 0.7 0
0.333333 0.733333 0
0.333333 0.766667 0
0.333333 0.8 0
0.333333 0.833333 0
0.333333 0.866667 0
0.333333 0.9 0
0.333333 0.933333 0
0.333333 0.966667 0
0.366667 0.0333333 0
0.366667 0.0666667 0
0.366667 0.1 0
0.366667 0.133333 0
0.366667 0.166667 0
0.366667 0.2 0
0.366667 0.233333 0
0.366667 0.266667 0
0.366667 0.3 0
0.366667 0.333333 0
0.366667 0.366667 0
0.366667 0.4 0
0.366667 0.433333 0
0.366667 0.466667 0
0.366667 0.5 0
0.366667 0.533333 0
0.366667 0.566667 0
0.366667 0.6 0
0.366667 0.633333 0
0.366667 0.666667 0
0.366667 0.7 0
0.366667 0.733333 0
0.366667 0.766667 0
0.366667 0.8 0
0.366667 0.833333 0
0.366667 0.866667 0
0.366667 0.9 0
0.366667 0.933333 0
0.366667 0.966667 0
0.4 0.0333333 0
0.4 0.0666667 0
0.4 0.1 0
0.4 0.133333 0
0.4 0.166667 0
0.4 0.2 0
0.4 0.233333 0
0.4 0.266667 0
0.4 0.3 0
0.4 0.333333 0
0.4 0.366667 0
0.4 0.4 0
0.4 0.433333 0
0.4 0.466667 0
0.4 0.5 0
0.4 0.533333 0
0.4 0.566667 0
0.4 0.6 0
0.4 0.633333 0
0.4 0.666667 0
0.4 0.7 0
0.4 0.733333 0
0.4 0.766667 0
0.4 0.8 0
0.4 0.833333 0
0.4 0.866667 0
0.4 0.9 0
0.4 0.933333 0
0.4 0.966667 0
0.433333 0.0333333 0
0.433333 0.0666667 0
0.433333 0.1 0
0.433333 0.133333 0
0.433333 0.166667 0
0.433333 0.2 0
0.433333 0.233333 0
0.433333 0.266667 0
0.433333 0.3 0
0.433333 0.333333 0
0.433333 0.366667 0
0.433333 0.4 0
0.433333 0.433333 0
0.433333 0.466667 0
0.433333 0.5 0
0.433333 0.533333 0
0.433333 0.566667 0
0.433333 0.6 0
0.433333 0.633333 0
0.433333 0.666667 0
0.433333 0.7 0
0.433333 0.733333 0
0.433333 0.766667 0
0.433333 0.8 0
0.433333 0.833333 0
0.433333 0.866667 0
0.433333 0.9 0
0.433333 0.933333 0
0.433333 0.966667 0
0.466667 0.0333333 0
0.466667 0.0666667 0
0.466667 0.1 0
0.466667 0.133333 0
0.466667 0.166667 0
0.466667 0.2 0
0.466667 0.233333 0
0.466667 0.266667 0
0.466667 0.3 0
0.466667 0.333333 0
0.466667 0.366667 0
0.466667 0.4 0
0.466667 0.433333 0
0.466667 0.466667 0
0.466667 0.5 0
0.466667 0.533333 0
0.466667 0.566667 0
0.466667 0.6 0
0.466667 0.633333 0
0.466667 0.666667 0
0.466667 0.7 0
0.466667 0.733333 0
0.466667 0.766667 0
0.466667 0.8 0
0.466667 0.833333 0
0.466667 0.866667 0
0.466667 0.9 0
0.466667 0.933333 0
0.466667 0.966667 0
0.5 0.0333333 0
0.5 0.0666667 0
0.5 0.1 0
0.5 0.133333 0
0.5 0.166667 0
0.5 0.2 0
0.5 0.233333 0
0.5 0.266667 0
0.5 0.3 0
0.5 0.333333 0
0.5 0.366667 0
0.5 0.4 0
0.5 0.433333 0
0.5 0.466667 0
0.5 0.5 0
0.5 0.533333 0
0.5 0.566667 0
0.5 0.6 0
0.5 0.633333 0
0.5 0.666667 0
0.5 0.7 0
0.5 0.733333 0
0.5 0.766667 0
0.5 0.8 0
0.5 0.833333 0
0.5 0.866667 0
0.5 0.9 0
0.5 0.933333 0
0.5 0.966667 0
0.533333 0.0333333 0
0.533333 0.0666667 0
0.533333 0.1 0
0.533333 0.133333 0
0.533333 0.166667 0
0.533333 0.2 0
0.533333 0.233333 0
0.533333 0.266667 0
0.533333 0.3 0
0.533333 0.333333 0
0.533333 0.366667 0
0.533333 0.4 0
0.533333 0.433333 0
0.533333 0.466667 0
0.533333 0.5 0
0.533333 0.533333 0
0.533333 0.566667 0
0.533333 0.6 0
0.533333 0.633333 0
0.533333 0.666667 0
0.533333 0.7 0
0.533333 0.733333 0
0.533333 0.766667 0
0.533333 0.8 0
0.533333 0.833333 0
0.533333 0.866667 0
0.533333 0.9 0
0.533333 0.933333 0
0.533333 0.966667 0
0.566667 0.0333333 0
0.566667 0.0666667 0
0.566667 0.1 0
0.566667 0.133333 0
0.566667 0.166667 0
0.566667 0.2 0
0.566667 0.233333 0
0.566667 0.266667 0
0.566667 0.3 0
0.566667 0.333333 0
0.566667 0.366667 0
0.566667 0.4 0
0.566667 0.433333 0
0.566667 0.466667 0
0.566667 0.5 0
0.566667 0.533333 0
0.566667 0.566667 0
0.566667 0.6 0
0.566667 0.633333 0
0.566667 0.666667 0
0.566667 0.7 0
0.566667 0.733333 0
0.566667 0.766667 0
0.566667 0.8 0
0.566667 0.833333 0
0.566667 0.866667 0
0.566667 0.9 0
0.566667 0.933333 0
0.566667 0.966667 0
0.6 0.0333333 0
0.6 0.0666667 0
0.6 0.1 0
0.6 0.133333 0
[...]
CELL_DATA 900
VECTORS velocity double
5.80884e-05 -5.70347e-05 0.0
-3.83374e-05 6.47819e-05 0.0
-0.000114288 0.000511926 0.0
-0.000164386 0.00114467 0.0
-0.000189759 0.00191702 0.0
-0.000204441 0.00276995 0.0
-0.000215723 0.0036893 0.0
-0.000228354 0.00467122 0.0
-0.000244309 0.00572517 0.0
-0.000264573 0.00686536 0.0
-0.000289701 0.00811017 0.0
-0.000320301 0.00948111 0.0
-0.000357236 0.0110036 0.0
-0.000401803 0.012708 0.0
-0.000455989 0.0146322 0.0
-0.000522934 0.0168244 0.0
-0.000607846 0.0193488 0.0
-0.000719841 0.022294 0.0
-0.00087558 0.0257872 0.0
-0.00110646 0.0300175 0.0
-0.00147238 0.0352751 0.0
-0.00208852 0.042012 0.0
-0.00317478 0.0509427 0.0
-0.00515223 0.0631795 0.0
-0.0087832 0.0805299 0.0
-0.0153646 0.105475 0.0
-0.0259461 0.142832 0.0
-0.0380505 0.190767 0.0
-0.0130994 0.263615 0.0
0.217183 0.174398 0.0
-6.66413e-05 4.19542e-05 0.0
-0.000584746 0.000585615 0.0
-0.00100298 0.00175251 0.0
-0.00130369 0.00327495 0.0
-0.00149984 0.00509367 0.0
-0.00164156 0.00710952 0.0
-0.00176419 0.00929626 0.0
-0.00189285 0.0116466 0.0
-0.00204209 0.0141789 0.0
-0.00222109 0.0169236 0.0
-0.00243666 0.0199212 0.0
-0.00269567 0.0232204 0.0
-0.00300664 0.0268796 0.0
-0.00338125 0.0309688 0.0
-0.00383618 0.0355744 0.0
-0.00439597 0.0408053 0.0
-0.00509747 0.0468029 0.0
-0.0059972 0.053755 0.0
-0.00718282 0.061916 0.0
-0.00879045 0.0716329 0.0
-0.0110284 0.0833749 0.0
-0.0142075 0.0977548 0.0
-0.0187683 0.115509 0.0
-0.0253068 0.137365 0.0
-0.0344867 0.163694 0.0
-0.046826 0.193487 0.0
-0.0603868 0.222994 0.0
-0.065852 0.239791 0.0
-0.00240044 0.219032 0.0
0.306167 0.116828 0.0
-0.000515093 0.000116601 0.0
-0.00174734 0.000981305 0.0
-0.00272237 0.00266865 0.0
-0.00343184 0.00478752 0.0
-0.00392595 0.00727964 0.0
-0.00430174 0.0100279 0.0
-0.00463635 0.0130054 0.0
-0.00498571 0.0162059 0.0
-0.00538522 0.0196542 0.0
-0.00585838 0.0233892 0.0
-0.00642324 0.0274628 0.0
-0.00709763 0.031937 0.0
-0.00790296 0.0368848 0.0
-0.00886764 0.0423927 0.0
-0.0100311 0.0485647 0.0
-0.0114496 0.0555284 0.0
-0.013204 0.0634426 0.0
-0.0154118 0.0725081 0.0
-0.0182423 0.0829793 0.0
-0.0219327 0.0951751 0.0
-0.0267969 0.109476 0.0
-0.033207 0.126294 0.0
-0.0414995 0.145949 0.0
-0.0517536 0.168419 0.0
-0.0632145 0.192725 0.0
-0.0731992 0.216052 0.0
-0.0733295 0.231294 0.0
-0.0417598 0.227159 0.0
0.0913581 0.172748 0.0
0.47737 0.077207 0.0
-0.00112948 0.000161393 0.0
-0.00321526 0.00122761 0.0
-0.00481087 0.00323265 0.0
-0.00596027 0.00569421 0.0
-0.0067782 0.00855827 0.0
-0.00741515 0.0117 0.0
-0.00799226 0.0150963 0.0
-0.00859656 0.0187434 0.0
-0.00928465 0.0226694 0.0
-0.0100946 0.0269166 0.0
-0.0110557 0.0315403 0.0
-0.0121967 0.0366053 0.0
-0.0135508 0.0421869 0.0
-0.0151611 0.0483717 0.0
-0.0170859 0.0552609 0.0
-0.0194054 0.0629729 0.0
-0.0222309 0.0716478 0.0
-0.0257166 0.0814508 0.0
-0.0300705 0.0925721 0.0
-0.035559 0.10522 0.0
-0.0424855 0.119589 0.0
-0.0511071 0.135794 0.0
-0.0614209 0.153696 0.0
-0.072732 0.172629 0.0
-0.0827757 0.190752 0.0
-0.0861619 0.204519 0.0
-0.0705623 0.206459 0.0
-0.00829146 0.187829 0.0
0.164908 0.126815 0.0
0.575587 0.04904 0.0
-0.00184507 0.000176377 0.0
-0.00488415 0.00133064 0.0
-0.00714575 0.00347839 0.0
-0.00875562 0.0060846 0.0
-0.00991141 0.00909668 0.0
-0.0108236 0.012386 0.0
-0.0116595 0.0159332 0.0
-0.0125375 0.019736 0.0
-0.0135348 0.0238237 0.0
-0.0147035 0.0282383 0.0
-0.0160835 0.0330335 0.0
-0.0177126 0.0382708 0.0
-0.0196338 0.0440195 0.0
-0.0219013 0.0503567 0.0
-0.024586 0.0573683 0.0
-0.0277829 0.0651496 0.0
-0.0316188 0.0738049 0.0
-0.0362611 0.0834447 0.0
-0.0419209 0.0941781 0.0
-0.0488411 0.106094 0.0
-0.0572399 0.119218 0.0
-0.0671637 0.133433 0.0
-0.0781636 0.148309 0.0
-0.0886896 0.162864 0.0
-0.095 0.174996 0.0
-0.0893703 0.181228 0.0
-0.0565347 0.174988 0.0
0.0334321 0.149909 0.0
0.234832 0.0922527 0.0
0.64604 0.0304674 0.0
-0.00258086 0.000175952 0.0
-0.00660207 0.00134012 0.0
-0.00953348 0.00350096 0.0
-0.0115965 0.0061078 0.0
-0.0130807 0.00910861 0.0
-0.0142602 0.0123749 0.0
-0.015349 0.0158896 0.0
-0.0164953 0.0196513 0.0
-0.0177957 0.0236886 0.0
-0.0193142 0.0280411 0.0
-0.0210989 0.0327579 0.0
-0.0231945 0.0378938 0.0
-0.02565 0.0435084 0.0
-0.0285252 0.0496651 0.0
-0.0318964 0.0564304 0.0
-0.0358623 0.063872 0.0
-0.04055 0.0720553 0.0
-0.0461186 0.0810372 0.0
-0.0527546 0.090853 0.0
-0.0606421 0.101494 0.0
-0.0698771 0.11286 0.0
-0.0802676 0.124689 0.0
-0.0909263 0.136401 0.0
-0.0995442 0.146917 0.0
-0.101183 0.154182 0.0
-0.086449 0.155165 0.0
-0.0384284 0.144395 0.0
0.0723031 0.118218 0.0
0.292026 0.0676857 0.0
0.694928 0.0190449 0.0
-0.00330175 0.000167241 0.0
-0.00829163 0.00129004 0.0
-0.0118754 0.00337489 0.0
-0.0143745 0.0058829 0.0
-0.016171 0.00876329 0.0
-0.0176037 0.0118913 0.0
-0.0189322 0.0152516 0.0
-0.0203334 0.0188428 0.0
-0.0219208 0.0226917 0.0
-0.0237688 0.0268342 0.0
-0.0259317 0.0313137 0.0
-0.0284581 0.0361772 0.0
-0.0313996 0.0414735 0.0
-0.034817 0.0472517 0.0
-0.0387857 0.0535588 0.0
-0.0433995 0.0604369 0.0
-0.0487744 0.0679175 0.0
-0.0550478 0.0760131 0.0
-0.0623647 0.084703 0.0
-0.0708346 0.0939105 0.0
-0.0804205 0.10346 0.0
-0.0906972 0.113018 0.0
-0.100381 0.121956 0.0
-0.106521 0.129232 0.0
-0.103231 0.132983 0.0
-0.0799426 0.130721 0.0
-0.0189374 0.118012 0.0
0.107763 0.0930479 0.0
0.339082 0.0500754 0.0
0.729572 0.0119901 0.0
-0.0039817 0.000154872 0.0
-0.00989205 0.00120434 0.0
-0.0140915 0.00315367 0.0
-0.0169987 0.00549486 0.0
-0.0190847 0.00817983 0.0
-0.0207511 0.0110911 0.0
-0.0223007 0.014215 0.0
-0.0239366 0.01755 0.0
-0.0257881 0.0211206 0.0
-0.0279374 0.0249586 0.0
-0.0304432 0.0291015 0.0
-0.0333558 0.0335886 0.0
-0.0367262 0.0384588 0.0
-0.0406125 0.0437481 0.0
-0.0450841 0.0494874 0.0
-0.0502239 0.0556975 0.0
-0.0561297 0.0623839 0.0
-0.0629087 0.0695271 0.0
-0.0706576 0.077069 0.0
-0.0794075 0.0848922 0.0
-0.0889937 0.0927834 0.0
-0.0987819 0.100384 0.0
-0.107153 0.107081 0.0
-0.110635 0.111925 0.0
-0.102629 0.113286 0.0
-0.0717643 0.109189 0.0
-3.57427e-05 0.0960419 0.0
0.138605 0.0733803 0.0
0.377126 0.0374465 0.0
0.754502 0.00765295 0.0
-0.00460741 0.000140472 0.0
-0.0113673 0.00109539 0.0
-0.0161323 0.00286824 0.0
-0.0194127 0.00499466 0.0
-0.0217619 0.00743087 0.0
-0.02364 0.0100699 0.0
-0.0253898 0.0128997 0.0
-0.0272385 0.0159192 0.0
-0.0293285 0.0191504 0.0
-0.0317488 0.0226212 0.0
-0.0345608 0.0263639 0.0
-0.0378143 0.0304108 0.0
-0.041558 0.0347925 0.0
-0.0458444 0.039535 0.0
-0.0507338 0.0446565 0.0
-0.0562947 0.0501632 0.0
-0.0626026 0.0560426 0.0
-0.0697316 0.0622555 0.0
-0.0777286 0.0687228 0.0
-0.0865492 0.0753079 0.0
-0.0959128 0.0817859 0.0
-0.105004 0.0878051 0.0
-0.111922 0.0927945 0.0
-0.11278 0.0959139 0.0
-0.100437 0.0957652 0.0
-0.0629863 0.0907865 0.0
0.0174871 0.078133 0.0
0.165047 0.0581293 0.0
0.407803 0.0283257 0.0
0.772747 0.00497714 0.0
-0.00516879 0.000124637 0.0
-0.0126904 0.000969645 0.0
-0.0179603 0.00253589 0.0
-0.0215728 0.00441176 0.0
-0.0241555 0.00655911 0.0
-0.0262213 0.00888391 0.0
-0.0281492 0.0113766 0.0
-0.0301875 0.0140369 0.0
-0.0324899 0.0168846 0.0
-0.0351508 0.0199442 0.0
-0.0382327 0.0232436 0.0
-0.0417844 0.0268097 0.0
-0.0458504 0.0306669 0.0
-0.0504767 0.0348341 0.0
-0.0557124 0.0393217 0.0
-0.0616103 0.0441267 0.0
-0.0682226 0.0492275 0.0
-0.0755898 0.0545754 0.0
-0.0837113 0.0600834 0.0
-0.0924737 0.0656118 0.0
-0.101494 0.0709415 0.0
-0.109802 0.0757435 0.0
-0.115264 0.079502 0.0
-0.113658 0.081482 0.0
-0.0974403 0.0805 0.0
-0.0543748 0.0752912 0.0
0.0331183 0.0637231 0.0
0.187451 0.0463212 0.0
0.432527 0.0217013 0.0
0.786332 0.00331875 0.0
-0.00565829 0.000107428 0.0
-0.0138411 0.000830184 0.0
-0.0195473 0.00216607 0.0
-0.023446 0.00376308 0.0
-0.0262299 0.00558976 0.0
-0.0284585 0.00756718 0.0
-0.0305418 0.00968873 0.0
-0.0327463 0.0119555 0.0
-0.0352353 0.0143857 0.0
-0.0381074 0.017001 0.0
-0.0414258 0.0198258 0.0
-0.0452372 0.0228832 0.0
-0.049582 0.0261939 0.0
-0.0544988 0.0297729 0.0
-0.0600261 0.0336268 0.0
-0.0662003 0.0377498 0.0
-0.0730512 0.0421179 0.0
-0.0805878 0.046682 0.0
-0.0887656 0.0513581 0.0
-0.0974094 0.056014 0.0
-0.106047 0.0604476 0.0
-0.113574 0.06436 0.0
-0.117663 0.0672923 0.0
-0.11382 0.0686017 0.0
-0.0941996 0.0672866 0.0
-0.0463857 0.062306 0.0
0.0468312 0.0520546 0.0
0.206331 0.0371063 0.0
0.452496 0.016826 0.0
0.796629 0.0022778 0.0
-0.00606917 8.88361e-05 0.0
-0.0148026 0.000678845 0.0
-0.02087 0.00176471 0.0
-0.0250052 0.0030596 0.0
-0.027956 0.00453951 0.0
-0.0303213 0.00614229 0.0
-0.0325368 0.00786476 0.0
-0.0348843 0.00971001 0.0
-0.037535 0.0116948 0.0
-0.0405905 0.0138391 0.0
-0.0441147 0.0161645 0.0
-0.0481523 0.0186922 0.0
-0.0527398 0.021441 0.0
-0.0579094 0.0244253 0.0
-0.0636892 0.0276521 0.0
-0.0701015 0.0311176 0.0
-0.0771551 0.0348022 0.0
-0.0848308 0.0386641 0.0
-0.0930445 0.0426298 0.0
-0.101566 0.0465834 0.0
-0.109843 0.0503457 0.0
-0.116656 0.0536509 0.0
-0.119508 0.0560922 0.0
-0.113686 0.0571014 0.0
-0.0911083 0.0558201 0.0
-0.0392762 0.0513699 0.0
0.0586255 0.042525 0.0
0.222125 0.0298467 0.0
0.468648 0.013185 0.0
0.804556 0.00161302 0.0
-0.00639546 6.8875e-05 0.0
-0.0155607 0.000517055 0.0
-0.0219091 0.00133638 0.0
-0.0262278 0.00230979 0.0
-0.0293097 0.00342131 0.0
-0.0317845 0.00462677 0.0
-0.0341089 0.00592684 0.0
-0.0365762 0.00732692 0.0
-0.039364 0.00884289 0.0
-0.0425767 0.0104931 0.0
-0.0462786 0.0122978 0.0
-0.0505134 0.0142772 0.0
-0.0553148 0.0164506 0.0
-0.0607096 0.0188342 0.0
-0.0667182 0.0214393 0.0
-0.0733505 0.0242687 0.0
-0.0805978 0.0273127 0.0
-0.088416 0.0305431 0.0
-0.096686 0.0339044 0.0
-0.105128 0.0373026 0.0
-0.113117 0.0405862 0.0
-0.119328 0.0435222 0.0
-0.121116 0.0457478 0.0
-0.113576 0.0467518 0.0
-0.0884419 0.04578 0.0
-0.0331911 0.0420668 0.0
0.0685943 0.0346504 0.0
0.235244 0.0240493 0.0
0.481724 0.0104139 0.0
0.810739 0.00117684 0.0
-0.00663181 4.76272e-05 0.0
-0.0161033 0.000346257 0.0
-0.0226483 0.000885347 0.0
-0.0270954 0.00152144 0.0
-0.0302708 0.00224685 0.0
-0.0328273 0.00303636 0.0
-0.0352364 0.00389456 0.0
-0.0378001 0.00482939 0.0
-0.0407007 0.00585595 0.0
-0.044045 0.0069915 0.0
-0.0478984 0.00825542 0.0
-0.0523046 0.00966815 0.0
-0.0572964 0.0112508 0.0
-0.0628977 0.0130239 0.0
-0.0691235 0.015006 0.0
-0.0759749 0.0172107 0.0
-0.0834299 0.0196434 0.0
-0.0914233 0.0222952 0.0
-0.0998053 0.0251348 0.0
-0.10825 0.0280961 0.0
-0.116065 0.0310587 0.0
-0.121825 0.033822 0.0
-0.122742 0.0360586 0.0
-0.113741 0.037296 0.0
-0.0864041 0.0368491 0.0
-0.0282205 0.0340228 0.0
0.0768354 0.0280314 0.0
0.246033 0.0193326 0.0
0.492292 0.00825346 0.0
0.815604 0.000878992 0.0
-0.0067737 2.52299e-05 0.0
-0.0164206 0.000168036 0.0
-0.0230747 0.000416079 0.0
-0.0275928 0.000702448 0.0
-0.0308231 0.00102789 0.0
-0.0334325 0.00138663 0.0
-0.0359014 0.00178711 0.0
-0.0385373 0.00223977 0.0
-0.0415258 0.0027588 0.0
-0.0449759 0.00336042 0.0
-0.048955 0.00406336 0.0
-0.0535085 0.00488884 0.0
-0.0586702 0.00586106 0.0
-0.0644645 0.00700658 0.0
-0.0709047 0.00835342 0.0
-0.0779877 0.00992968 0.0
-0.0856823 0.0117603 0.0
-0.0939078 0.0138618 0.0
-0.102488 0.0162334 0.0
-0.111054 0.0188429 0.0
-0.118846 0.0216058 0.0
-0.124335 0.0243536 0.0
-0.124595 0.0267872 0.0
-0.114385 0.0284561 0.0
-0.085155 0.0287119 0.0
-0.0244279 0.0268937 0.0
0.0834379 0.0223245 0.0
0.254768 0.0153884 0.0
0.500779 0.00651137 0.0
0.819441 0.000662693 0.0
-0.00681732 1.87592e-06 0.0
-0.0165048 -1.58319e-05 0.0
-0.0231781 -6.66322e-05 0.0
-0.0277087 -0.000138794 0.0
-0.0309541 -0.000223236 0.0
-0.0335864 -0.000306153 0.0
-0.036089 -0.000375591 0.0
-0.0387713 -0.000419027 0.0
-0.0418207 -0.000423559 0.0
-0.0453488 -0.000374283 0.0
-0.0494259 -0.000253271 0.0
-0.0541014 -3.83532e-05 0.0
-0.0594133 0.000297855 0.0
-0.0653893 0.000788606 0.0
-0.0720462 0.00147344 0.0
-0.0793819 0.00239756 0.0
-0.0873627 0.00360974 0.0
-0.0958979 0.00515745 0.0
-0.104789 0.00707745 0.0
-0.113625 0.00937944 0.0
-0.121579 0.0120228 0.0
-0.127013 0.0148731 0.0
-0.12685 0.0176535 0.0
-0.115681 0.0199213 0.0
-0.0848312 0.0210361 0.0
-0.0218709 0.0203402 0.0
0.088464 0.0172112 0.0
0.261651 0.0119492 0.0
0.507484 0.00503435 0.0
0.822436 0.000489872 0.0
-0.00676023 -2.22257e-05 0.0
-0.0163509 -0.000203555 0.0
-0.0229523 -0.000557799 0.0
-0.0274358 -0.000993267 0.0
-0.0306557 -0.00149296 0.0
-0.0332798 -0.00202391 0.0
-0.0357883 -0.00257134 0.0
-0.038489 -0.0031213 0.0
-0.0415702 -0.00366291 0.0
-0.0451457 -0.00418335 0.0
-0.0492903 -0.00466626 0.0
-0.0540589 -0.00508924 0.0
-0.0594963 -0.00542236 0.0
-0.065639 -0.00562575 0.0
-0.0725124 -0.00564783 0.0
-0.0801226 -0.00542449 0.0
-0.0884409 -0.00487954 0.0
-0.0973747 -0.00392836 0.0
-0.10671 -0.00248754 0.0
-0.116002 -0.000494742 0.0
-0.124347 0.0020595 0.0
-0.129975 0.00507876 0.0
-0.129649 0.00831575 0.0
-0.117781 0.0113247 0.0
-0.0855689 0.0134449 0.0
-0.0206327 0.0139926 0.0
0.0919254 0.0123575 0.0
0.266799 0.0087488 0.0
0.512593 0.00368157 0.0
0.824695 0.000330918 0.0
-0.00660044 -4.6828e-05 0.0
-0.0159559 -0.000393007 0.0
-0.0223943 -0.00105161 0.0
-0.0267712 -0.00185066 0.0
-0.0299242 -0.00276597 0.0
-0.0325075 -0.00374634 0.0
-0.0349916 -0.00477511 0.0
-0.0376795 -0.00583791 0.0
-0.0407585 -0.00692695 0.0
-0.0443453 -0.00803275 0.0
-0.0485198 -0.00914197 0.0
-0.053345 -0.0102337 0.0
-0.0588763 -0.0112769 0.0
-0.0651632 -0.0122263 0.0
-0.0722466 -0.0130194 0.0
-0.0801493 -0.0135733 0.0
-0.088858 -0.013782 0.0
-0.0982893 -0.0135187 0.0
-0.108223 -0.0126444 0.0
-0.118174 -0.0110311 0.0
-0.127156 -0.00860542 0.0
-0.133277 -0.00540532 0.0
-0.133109 -0.00165299 0.0
-0.120823 0.00219894 0.0
-0.0874858 0.005459 0.0
-0.0207875 0.0074018 0.0
0.0937825 0.00737708 0.0
0.270223 0.00548848 0.0
0.51615 0.00230204 0.0
0.826237 0.000157328 0.0
-0.00633766 -7.16066e-05 0.0
-0.0153205 -0.000581505 0.0
-0.0215058 -0.00154108 0.0
-0.0257171 -0.00269902 0.0
-0.0287615 -0.00402486 0.0
-0.0312699 -0.00545046 0.0
-0.0336967 -0.00695842 0.0
-0.0363368 -0.00853521 0.0
-0.0393749 -0.0101775 0.0
-0.0429301 -0.0118808 0.0
-0.0470886 -0.013637 0.0
-0.0519231 -0.0154291 0.0
-0.0575028 -0.0172279 0.0
-0.0638954 -0.0189862 0.0
-0.0711643 -0.0206341 0.0
-0.0793591 -0.0220718 0.0
-0.0884949 -0.0231651 0.0
-0.0985124 -0.0237424 0.0
-0.109199 -0.0236017 0.0
-0.120045 -0.0225335 0.0
-0.129977 -0.0203709 0.0
-0.136937 -0.017068 0.0
-0.137264 -0.0128014 0.0
-0.124913 -0.00803649 0.0
-0.0907853 -0.00350881 0.0
-0.0225709 -4.43248e-05 0.0
0.0939015 0.00170341 0.0
0.271826 0.00175077 0.0
0.518078 0.000697595 0.0
0.827012 -6.45889e-05 0.0
-0.005973 -9.61843e-05 0.0
-0.0144487 -0.000765948 0.0
-0.0202933 -0.00201811 0.0
-0.0242811 -0.00352446 0.0
-0.0271752 -0.00524928 0.0
-0.029573 -0.00710916 0.0
-0.0319071 -0.00908724 0.0
-0.0344601 -0.0111723 0.0
-0.0374126 -0.013367 0.0
-0.0408854 -0.015674 0.0
-0.044971 -0.0180931 0.0
-0.0497534 -0.0206148 0.0
-0.0553181 -0.023216 0.0
-0.0617555 -0.0258536 0.0
-0.0691591 -0.0284556 0.0
-0.0776159 -0.0309126 0.0
-0.0871848 -0.0330668 0.0
-0.0978503 -0.0347042 0.0
-0.10943 -0.035556 0.0
-0.121406 -0.0353184 0.0
-0.132628 -0.0337065 0.0
-0.140858 -0.0305504 0.0
-0.142151 -0.025922 0.0
-0.130132 -0.0202528 0.0
-0.0954848 -0.0143325 0.0
-0.0259967 -0.00912226 0.0
0.0920053 -0.00531209 0.0
0.271236 -0.00297046 0.0
0.517997 -0.00137857 0.0
0.826793 -0.000376273 0.0
-0.00550934 -0.000120158 0.0
-0.013349 -0.000942711 0.0
-0.0187689 -0.0024731 0.0
-0.0224778 -0.00431039 0.0
-0.02518 -0.00641475 0.0
-0.0274307 -0.00868961 0.0
-0.029634 -0.0111198 0.0
-0.0320567 -0.013698 0.0
-0.0348729 -0.0164345 0.0
-0.0382036 -0.0193414 0.0
-0.0421473 -0.0224294 0.0
-0.0467993 -0.0257012 0.0
-0.0522628 -0.0291457 0.0
-0.0586541 -0.0327311 0.0
-0.0661031 -0.0363938 0.0
-0.0747451 -0.0400255 0.0
-0.0847 -0.0434567 0.0
-0.0960197 -0.0464415 0.0
-0.108583 -0.0486487 0.0
-0.121894 -0.0496748 0.0
-0.134749 -0.0490945 0.0
-0.144733 -0.0465687 0.0
-0.147581 -0.0419949 0.0
-0.136519 -0.0356739 0.0
-0.101914 -0.0283387 0.0
-0.0315418 -0.0210353 0.0
0.0877425 -0.0145925 0.0
0.267969 -0.00932497 0.0
0.515325 -0.00425304 0.0
0.825251 -0.000846218 0.0
-0.00495173 -0.000143047 0.0
-0.012035 -0.00110722 0.0
-0.0169521 -0.00289382 0.0
-0.0203297 -0.00503568 0.0
-0.0228 -0.00749014 0.0
-0.0248666 -0.0101498 0.0
-0.0268994 -0.0130024 0.0
-0.0291453 -0.0160456 0.0
-0.0317692 -0.0192989 0.0
-0.0348902 -0.0227861 0.0
-0.0386109 -0.026532 0.0
-0.0430365 -0.0305559 0.0
-0.0482871 -0.0348663 0.0
-0.0545059 -0.0394522 0.0
-0.0618625 -0.0442714 0.0
-0.0705499 -0.049234 0.0
-0.0807646 -0.0541798 0.0
-0.0926531 -0.0588529 0.0
-0.106192 -0.0628798 0.0
-0.120957 -0.0657669 0.0
-0.135737 -0.0669379 0.0
-0.14797 -0.0658398 0.0
-0.153072 -0.0621041 0.0
-0.143819 -0.0557552 0.0
-0.110151 -0.0472763 0.0
-0.0396863 -0.0376452 0.0
0.0802823 -0.0277367 0.0
0.261081 -0.0184359 0.0
0.509132 -0.00849065 0.0
0.821805 -0.00160021 0.0
-0.00430772 -0.000164198 0.0
-0.0105271 -0.0012531 0.0
-0.0148713 -0.00326336 0.0
-0.0178701 -0.00567134 0.0
-0.0200704 -0.00843291 0.0
-0.0219169 -0.0114326 0.0
-0.0237389 -0.0146616 0.0
-0.0257599 -0.0181234 0.0
-0.0281323 -0.0218477 0.0
-0.0309703 -0.0258713 0.0
-0.0343771 -0.0302359 0.0
-0.0384642 -0.0349821 0.0
-0.0433654 -0.0401445 0.0
-0.0492472 -0.0457441 0.0
-0.0563185 -0.0517763 0.0
-0.0648327 -0.0581922 0.0
-0.0750754 -0.0648715 0.0
-0.087312 -0.071587 0.0
-0.10166 -0.0779655 0.0
-0.117828 -0.0834611 0.0
-0.134674 -0.0873647 0.0
-0.149576 -0.0888834 0.0
-0.157695 -0.0872849 0.0
-0.151382 -0.0821198 0.0
-0.120072 -0.0733093 0.0
-0.0509983 -0.0614337 0.0
0.0684682 -0.0470801 0.0
0.249028 -0.032129 0.0
0.497773 -0.0150855 0.0
0.815405 -0.00287598 0.0
-0.00358945 -0.000182317 0.0
-0.00885624 -0.0013702 0.0
-0.012569 -0.00355599 0.0
-0.015148 -0.00617437 0.0
-0.0170444 -0.00918089 0.0
-0.0186369 -0.0124549 0.0
-0.02021 -0.0159912 0.0
-0.0219598 -0.0197988 0.0
-0.0240223 -0.0239175 0.0
-0.0265029 -0.0283976 0.0
-0.029501 -0.0332987 0.0
-0.0331287 -0.0386857 0.0
-0.0375257 -0.0446249 0.0
-0.0428744 -0.051179 0.0
-0.0494141 -0.0583973 0.0
-0.0574531 -0.0662982 0.0
-0.0673664 -0.0748411 0.0
-0.0795532 -0.0838835 0.0
-0.0943095 -0.0931241 0.0
-0.111548 -0.102045 0.0
-0.130308 -0.109873 0.0
-0.148051 -0.115599 0.0
-0.159861 -0.118058 0.0
-0.157815 -0.116108 0.0
-0.130894 -0.108693 0.0
-0.065746 -0.0954347 0.0
0.0509131 -0.0758575 0.0
0.229642 -0.0531351 0.0
0.478743 -0.0257121 0.0
0.804309 -0.00514002 0.0
-0.00281447 -0.000195012 0.0
-0.0070665 -0.00144222 0.0
-0.0101042 -0.00373207 0.0
-0.0122311 -0.00647979 0.0
-0.0137947 -0.00964131 0.0
-0.0151041 -0.013094 0.0
-0.016395 -0.0168346 0.0
-0.0178325 -0.0208772 0.0
-0.0195328 -0.0252694 0.0
-0.021588 -0.0300735 0.0
-0.0240877 -0.0353663 0.0
-0.0271366 -0.0412363 0.0
-0.0308701 -0.0477834 0.0
-0.0354722 -0.0551172 0.0
-0.0411954 -0.063353 0.0
-0.048383 -0.0726001 0.0
-0.0574812 -0.0829394 0.0
-0.0690158 -0.0943807 0.0
-0.0834795 -0.106796 0.0
-0.101055 -0.119825 0.0
-0.121096 -0.132776 0.0
-0.141374 -0.144535 0.0
-0.157204 -0.153524 0.0
-0.160762 -0.157741 0.0
-0.140881 -0.154752 0.0
-0.0836788 -0.142449 0.0
0.0259952 -0.118067 0.0
0.199626 -0.0853358 0.0
0.447827 -0.0432691 0.0
0.785145 -0.00938916 0.0
-0.0020155 -0.000196899 0.0
-0.00523093 -0.00144165 0.0
-0.00757231 -0.00373042 0.0
-0.00922718 -0.00649039 0.0
-0.0104385 -0.00967735 0.0
-0.011445 -0.0131694 0.0
-0.0124312 -0.0169632 0.0
-0.0135288 -0.0210748 0.0
-0.0148306 -0.0255566 0.0
-0.0164111 -0.0304788 0.0
-0.0183441 -0.0359308 0.0
-0.0207184 -0.0420198 0.0
-0.0236527 -0.0488743 0.0
-0.027314 -0.0566476 0.0
-0.0319419 -0.0655215 0.0
-0.037879 -0.0757066 0.0
-0.0455993 -0.0874344 0.0
-0.0557108 -0.10093 0.0
-0.0688778 -0.11635 0.0
-0.0855779 -0.133671 0.0
-0.105606 -0.15251 0.0
-0.127307 -0.171906 0.0
-0.146664 -0.190068 0.0
-0.15653 -0.204171 0.0
-0.146233 -0.210203 0.0
-0.101784 -0.203399 0.0
-0.00607846 -0.178282 0.0
0.15653 -0.134136 0.0
0.400547 -0.0727609 0.0
0.75294 -0.0177112 0.0
-0.00123578 -0.000180352 0.0
-0.00344163 -0.00133234 0.0
-0.00508976 -0.00347201 0.0
-0.00626547 -0.00607991 0.0
-0.00711509 -0.00910942 0.0
-0.00780983 -0.0124421 0.0
-0.00848308 -0.0160711 0.0
-0.00923087 -0.0200113 0.0