# vtk DataFile Version 3.0
Malha 2D com triângulos e temperatura
ASCII
DATASET UNSTRUCTURED_GRID

POINTS 961 double
0 0 0
1 0 0
1 1 0
0 1 0
0.0333333 0 0
0.0666667 0 0
0.1 0 0
0.133333 0 0
0.166667 0 0
0.2 0 0
0.233333 0 0
0.266667 0 0
0.3 0 0
0.333333 0 0
0.366667 0 0
0.4 0 0
0.433333 0 0
0.466667 0 0
0.5 0 0
0.533333 0 0
0.566667 0 0
0.6 0 0
0.633333 0 0
0.666667 0 0
0.7 0 0
0.733333 0 0
0.766667 0 0
0.8 0 0
0.833333 0 0
0.866667 0 0
0.9 0 0
0.933333 0 0
0.966667 0 0
1 0.0333333 0
1 0.0666667 0
1 0.1 0
1 0.133333 0
1 0.166667 0
1 0.2 0
1 0.233333 0
1 0.266667 0
1 0.3 0
1 0.333333 0
1 0.366667 0
1 0.4 0
1 0.433333 0
1 0.466667 0
1 0.5 0
1 0.533333 0
1 0.566667 0
1 0.6 0
1 0.633333 0
1 0.666667 0
1 0.7 0
1 0.733333 0
1 0.766667 0
1 0.8 0
1 0.833333 0
1 0.866667 0
1 0.9 0
1 0.933333 0
1 0.966667 0
0.966667 1 0
0.933333 1 0
0.9 1 0
0.866667 1 0
0.833333 1 0
0.8 1 0
0.766667 1 0
0.733333 1 0
0.7 1 0
0.666667 1 0
0.633333 1 0
0.6 1 0
0.566667 1 0
0.533333 1 0
0.5 1 0
0.466667 1 0
0.433333 1 0
0.4 1 0
0.366667 1 0
0.333333 1 0
0.3 1 0
0.266667 1 0
0.233333 1 0
0.2 1 0
0.166667 1 0
0.133333 1 0
0.1 1 0
0.0666667 1 0
0.0333333 1 0
0 0.966667 0
0 0.933333 0
0 0.9 0
0 0.866667 0
0 0.833333 0
0 0.8 0
0 0.766667 0
0 0.733333 0
0 0.7 0
0 0.666667 0
0 0.633333 0
0 0.6 0
0 0.566667 0
0 0.533333 0
0 0.5 0
0 0.466667 0
0 0.433333 0
0 0.4 0
0 0.366667 0
0 0.333333 0
0 0.3 0
0 0.266667 0
0 0.233333 0
0 0.2 0
0 0.166667 0
0 0.133333 0
0 0.1 0
0 0.0666667 0
0 0.0333333 0
0.0333333 0.0333333 0
0.0333333 0.0666667 0
0.0333333 0.1 0
0.0333333 0.133333 0
0.0333333 0.166667 0
0.0333333 0.2 0
0.0333333 0.233333 0
0.0333333 0.266667 0
0.0333333 0.3 0
0.0333333 0.333333 0
0.0333333 0.366667 0
0.0333333 0.4 0
0.0333333 0.433333 0
0.0333333 0.466667 0
0.0333333 0.5 0
0.0333333 0.533333 0
0.0333333 0.566667 0
0.0333333 0.6 0
0.0333333 0.633333 0
0.0333333 0.666667 0
0.0333333 0.7 0
0.0333333 0.733333 0
0.0333333 0.766667 0
0.0333333 0.8 0
0.0333333 0.833333 0
0.0333333 0.866667 0
0.0333333 0.9 0
0.0333333 0.933333 0
0.0333333 0.966667 0
0.0666667 0.0333333 0
0.0666667 0.0666667 0
0.0666667 0.1 0
0.0666667 0.133333 0
0.0666667 0.166667 0
0.0666667 0.2 0
0.0666667 0.233333 0
0.0666667 0.266667 0
0.0666667 0.3 0
0.0666667 0.333333 0
0.0666667 0.366667 0
0.0666667 0.4 0
0.0666667 0.433333 0
0.0666667 0.466667 0
0.0666667 0.5 0
0.0666667 0.533333 0
0.0666667 0.566667 0
0.0666667 0.6 0
0.0666667 0.633333 0
0.0666667 0.666667 0
0.0666667 0.7 0
0.0666667 0.733333 0
0.0666667 0.766667 0
0.0666667 0.8 0
0.0666667 0.833333 0
0.0666667 0.866667 0
0.0666667 0.9 0
0.0666667 0.933333 0
0.0666667 0.966667 0
0.1 0.0333333 0
0.1 0.0666667 0
0.1 0.1 0
0.1 0.133333 0
0.1 0.166667 0
0.1 0.2 0
0.1 0.233333 0
0.1 0.266667 0
0.1 0.3 0
0.1 0.333333 0
0.1 0.366667 0
0.1 0.4 0
0.1 0.433333 0
0.1 0.466667 0
0.1 0.5 0
0.1 0.533333 0
0.1 0.566667 0
0.1 0.6 0
0.1 0.633333 0
0.1 0.666667 0
0.1 0.7 0
0.1 0.733333 0
0.1 0.766667 0
0.1 0.8 0
0.1 0.833333 0
0.1 0.866667 0
0.1 0.9 0
0.1 0.933333 0
0.1 0.966667 0
0.133333 0.0333333 0
0.133333 0.0666667 0
0.133333 0.1 0
0.133333 0.133333 0
0.133333 0.166667 0
0.133333 0.2 0
0.133333 0.233333 0
0.133333 0.266667 0
0.133333 0.3 0
0.133333 0.333333 0
0.133333 0.366667 0
0.133333 0.4 0
0.133333 0.433333 0
0.133333 0.466667 0
0.133333 0.5 0
0.133333 0.533333 0
0.133333 0.566667 0
0.133333 0.6 0
0.133333 0.633333 0
0.133333 0.666667 0
0.133333 0.7 0
0.133333 0.733333 0
0.133333 0.766667 0
0.133333 0.8 0
0.133333 0.833333 0
0.133333 0.866667 0
0.133333 0.9 0
0.133333 0.933333 0
0.133333 0.966667 0
0.166667 0.0333333 0
0.166667 0.0666667 0
0.166667 0.1 0
0.166667 0.133333 0
0.166667 0.166667 0
0.166667 0.2 0
0.166667 0.233333 0
0.166667 0.266667 0
0.166667 0.3 0
0.166667 0.333333 0
0.166667 0.366667 0
0.166667 0.4 0
0.166667 0.433333 0
0.166667 0.466667 0
0.166667 0.5 0
0.166667 0.533333 0
0.166667 0.566667 0
0.166667 0.6 0
0.166667 0.633333 0
0.166667 0.666667 0
0.166667 0.7 0
0.166667 0.733333 0
0.166667 0.766667 0
0.166667 0.8 0
0.166667 0.833333 0
0.166667 0.866667 0
0.166667 0.9 0
0.166667 0.933333 0
0.166667 0.966667 0
0.2 0.0333333 0
0.2 0.0666667 0
0.2 0.1 0
0.2 0.133333 0
0.2 0.166667 0
0.2 0.2 0
0.2 0.233333 0
0.2 0.266667 0
0.2 0.3 0
0.2 0.333333 0
0.2 0.366667 0
0.2 0.4 0
0.2 0.433333 0
0.2 0.466667 0
0.2 0.5 0
0.2 0.533333 0
0.2 0.566667 0
0.2 0.6 0
0.2 0.633333 0
0.2 0.666667 0
0.2 0.7 0
0.2 0.733333 0
0.2 0.766667 0
0.2 0.8 0
0.2 0.833333 0
0.2 0.866667 0
0.2 0.9 0
0.2 0.933333 0
0.2 0.966667 0
0.233333 0.0333333 0
0.233333 0.0666667 0
0.233333 0.1 0
0.233333 0.133333 0
0.233333 0.166667 0
0.233333 0.2 0
0.233333 0.233333 0
0.233333 0.266667 0
0.233333 0.3 0
0.233333 0.333333 0
0.233333 0.366667 0
0.233333 0.4 0
0.233333 0.433333 0
0.233333 0.466667 0
0.233333 0.5 0
0.233333 0.533333 0
0.233333 0.566667 0
0.233333 0.6 0
0.233333 0.633333 0
0.233333 0.666667 0
0.233333 0.7 0
0.233333 0.733333 0
0.233333 0.766667 0
0.233333 0.8 0
0.233333 0.833333 0
0.233333 0.866667 0
0.233333 0.9 0
0.233333 0.933333 0
0.233333 0.966667 0
0.266667 0.0333333 0
0.266667 0.0666667 0
0.266667 0.1 0
0.266667 0.133333 0
0.266667 0.166667 0
0.266667 0.2 0
0.266667 0.233333 0
0.266667 0.266667 0
0.266667 0.3 0
0.266667 0.333333 0
0.266667 0.366667 0
0.266667 0.4 0
0.266667 0.433333 0
0.266667 0.466667 0
0.266667 0.5 0
0.266667 0.533333 0
0.266667 0.566667 0
0.266667 0.6 0
0.266667 0.633333 0
0.266667 0.666667 0
0.266667 0.7 0
0.266667 0.733333 0
0.266667 0.766667 0
0.266667 0.8 0
0.266667 0.833333 0
0.266667 0.866667 0
0.266667 0.9 0
0.266667 0.933333 0
0.266667 0.966667 0
0.3 0.0333333 0
0.3 0.0666667 0
0.3 0.1 0
0.3 0.133333 0
0.3 0.166667 0
0.3 0.2 0
0.3 0.233333 0
0.3 0.266667 0
0.3 0.3 0
0.3 0.333333 0
0.3 0.366667 0
0.3 0.4 0
0.3 0.433333 0
0.3 0.466667 0
0.3 0.5 0
0.3 0.533333 0
0.3 0.566667 0
0.3 0.6 0
0.3 0.633333 0
0.3 0.666667 0
0.3 0.7 0
0.3 0.733333 0
0.3 0.766667 0
0.3 0.8 0
0.3 0.833333 0
0.3 0.866667 0
0.3 0.9 0
0.3 0.933333 0
0.3 0.966667 0
0.333333 0.0333333 0
0.333333 0.0666667 0
0.333333 0.1 0
0.333333 0.133333 0
0.333333 0.166667 0
0.333333 0.2 0
0.333333 0.233333 0
0.333333 0.266667 0
0.333333 0.3 0
0.333333 0.333333 0
0.333333 0.366667 0
0.333333 0.4 0
0.333333 0.433333 0
0.333333 0.466667 0
0.333333 0.5 0
0.333333 0.533333 0
0.333333 0.566667 0
0.333333 0.6 0
0.333333 0.633333 0
0.333333 0.666667 0
0.333333 0.7 0
0.333333 0.733333 0
0.333333 0.766667 0
0.333333 0.8 0
0.333333 0.833333 0
0.333333 0.866667 0
0.333333 0.9 0
0.333333 0.933333 0
0.333333 0.966667 0
0.366667 0.0333333 0
0.366667 0.0666667 0
0.366667 0.1 0
0.366667 0.133333 0
0.366667 0.166667 0
0.366667 0.2 0
0.366667 0.233333 0
0.366667 0.266667 0
0.366667 0.3 0
0.366667 0.333333 0
0.366667 0.366667 0
0.366667 0.4 0
0.366667 0.433333 0
0.366667 0.466667 0
0.366667 0.5 0
0.366667 0.533333 0
0.366667 0.566667 0
0.366667 0.6 0
0.366667 0.633333 0
0.366667 0.666667 0
0.366667 0.7 0
0.366667 0.733333 0
0.366667 0.766667 0
0.366667 0.8 0
0.366667 0.833333 0
0.366667 0.866667 0
0.366667 0.9 0
0.366667 0.933333 0
0.366667 0.966667 0
0.4 0.0333333 0
0.4 0.0666667 0
0.4 0.1 0
0.4 0.133333 0
0.4 0.166667 0
0.4 0.2 0
0.4 0.233333 0
0.4 0.266667 0
0.4 0.3 0
0.4 0.333333 0
0.4 0.366667 0
0.4 0.4 0
0.4 0.433333 0
0.4 0.466667 0
0.4 0.5 0
0.4 0.533333 0
0.4 0.566667 0
0.4 0.6 0
0.4 0.633333 0
0.4 0.666667 0
0.4 0.7 0
0.4 0.733333 0
0.4 0.766667 0
0.4 0.8 0
0.4 0.833333 0
0.4 0.866667 0
0.4 0.9 0
0.4 0.933333 0
0.4 0.966667 0
0.433333 0.0333333 0
0.433333 0.0666667 0
0.433333 0.1 0
0.433333 0.133333 0
0.433333 0.166667 0
0.433333 0.2 0
0.433333 0.233333 0
0.433333 0.266667 0
0.433333 0.3 0
0.433333 0.333333 0
0.433333 0.366667 0
0.433333 0.4 0
0.433333 0.433333 0
0.433333 0.466667 0
0.433333 0.5 0
0.433333 0.533333 0
0.433333 0.566667 0
0.433333 0.6 0
0.433333 0.633333 0
0.433333 0.666667 0
0.433333 0.7 0
0.433333 0.733333 0
0.433333 0.766667 0
0.433333 0.8 0
0.433333 0.833333 0
0.433333 0.866667 0
0.433333 0.9 0
0.433333 0.933333 0
0.433333 0.966667 0
0.466667 0.0333333 0
0.466667 0.0666667 0
0.466667 0.1 0
0.466667 0.133333 0
0.466667 0.166667 0
0.466667 0.2 0
0.466667 0.233333 0
0.466667 0.266667 0
0.466667 0.3 0
0.466667 0.333333 0
0.466667 0.366667 0
0.466667 0.4 0
0.466667 0.433333 0
0.466667 0.466667 0
0.466667 0.5 0
0.466667 0.533333 0
0.466667 0.566667 0
0.466667 0.6 0
0.466667 0.633333 0
0.466667 0.666667 0
0.466667 0.7 0
0.466667 0.733333 0
0.466667 0.766667 0
0.466667 0.8 0
0.466667 0.833333 0
0.466667 0.866667 0
0.466667 0.9 0
0.466667 0.933333 0
0.466667 0.966667 0
0.5 0.0333333 0
0.5 0.0666667 0
0.5 0.1 0
0.5 0.133333 0
0.5 0.166667 0
0.5 0.2 0
0.5 0.233333 0
0.5 0.266667 0
0.5 0.3 0
0.5 0.333333 0
0.5 0.366667 0
0.5 0.4 0
0.5 0.433333 0
0.5 0.466667 0
0.5 0.5 0
0.5 0.533333 0
0.5 0.566667 0
0.5 0.6 0
0.5 0.633333 0
0.5 0.666667 0
0.5 0.7 0
0.5 0.733333 0
0.5 0.766667 0
0.5 0.8 0
0.5 0.833333 0
0.5 0.866667 0
0.5 0.9 0
0.5 0.933333 0
0.5 0.966667 0
0.533333 0.0333333 0
0.533333 0.0666667 0
0.533333 0.1 0
0.533333 0.133333 0
0.533333 0.166667 0
0.533333 0.2 0
0.533333 0.233333 0
0.533333 0.266667 0
0.533333 0.3 0
0.533333 0.333333 0
0.533333 0.366667 0
0.533333 0.4 0
0.533333 0.433333 0
0.533333 0.466667 0
0.533333 0.5 0
0.533333 0.533333 0
0.533333 0.566667 0
0.533333 0.6 0
0.533333 0.633333 0
0.533333 0.666667 0
0.533333 0.7 0
0.533333 0.733333 0
0.533333 0.766667 0
0.533333 0.8 0
0.533333 0.833333 0
0.533333 0.866667 0
0.533333 0.9 0
0.533333 0.933333 0
0.533333 0.966667 0
0.566667 0.0333333 0
0.566667 0.0666667 0
0.566667 0.1 0
0.566667 0.133333 0
0.566667 0.166667 0
0.566667 0.2 0
0.566667 0.233333 0
0.566667 0.266667 0
0.566667 0.3 0
0.566667 0.333333 0
0.566667 0.366667 0
0.566667 0.4 0
0.566667 0.433333 0
0.566667 0.466667 0
0.566667 0.5 0
0.566667 0.533333 0
0.566667 0.566667 0
0.566667 0.6 0
0.566667 0.633333 0
0.566667 0.666667 0
0.566667 0.7 0
0.566667 0.733333 0
0.566667 0.766667 0
0.566667 0.8 0
0.566667 0.833333 0
0.566667 0.866667 0
0.566667 0.9 0
0.566667 0.933333 0
0.566667 0.966667 0
0.6 0.0333333 0
0.6 0.0666667 0
0.6 0.1 0
0.6 0.133333 0
[...]
CELL_DATA 900
VECTORS velocity double
5.03884e-05 -4.93534e-05 0.0
-5.45482e-05 0.000106858 0.0
-0.000129342 0.000597389 0.0
-0.000174388 0.00125421 0.0
-0.000194964 0.0020314 0.0
-0.000206752 0.00287311 0.0
-0.000216929 0.00377159 0.0
-0.00022956 0.00472742 0.0
-0.000245999 0.00575254 0.0
-0.000266866 0.00686196 0.0
-0.000292567 0.00807391 0.0
-0.00032368 0.00940926 0.0
-0.000361072 0.0108925 0.0
-0.000406038 0.0125529 0.0
-0.000460499 0.0144268 0.0
-0.000527399 0.0165604 0.0
-0.000611519 0.0190146 0.0
-0.000721171 0.0218734 0.0
-0.000871778 0.0252569 0.0
-0.00109341 0.0293453 0.0
-0.00144587 0.0344203 0.0
-0.00204852 0.0409347 0.0
-0.00313358 0.0496304 0.0
-0.00514295 0.0616974 0.0
-0.00885452 0.0790789 0.0
-0.015542 0.104398 0.0
-0.0261589 0.142471 0.0
-0.0381243 0.191139 0.0
-0.0129159 0.26425 0.0
0.217487 0.174755 0.0
-0.000108705 5.80004e-05 0.0
-0.00065343 0.000653707 0.0
-0.00105656 0.00187155 0.0
-0.00132408 0.00340315 0.0
-0.00148791 0.00518897 0.0
-0.0016061 0.00713559 0.0
-0.0017143 0.00922779 0.0
-0.00183465 0.0114664 0.0
-0.00197847 0.0138747 0.0
-0.00215261 0.0164843 0.0
-0.00236253 0.019335 0.0
-0.00261434 0.0224737 0.0
-0.00291604 0.0259554 0.0
-0.00327868 0.0298467 0.0
-0.00371805 0.0342289 0.0
-0.00425715 0.039205 0.0
-0.00493053 0.0449082 0.0
-0.00579159 0.0515161 0.0
-0.00692492 0.0592706 0.0
-0.00846676 0.0685075 0.0
-0.0106359 0.0796935 0.0
-0.0137758 0.0934649 0.0
-0.0183932 0.110635 0.0
-0.0251745 0.13209 0.0
-0.0348346 0.158443 0.0
-0.0477802 0.188916 0.0
-0.0616979 0.21979 0.0
-0.0668645 0.238264 0.0
-0.00251559 0.218848 0.0
0.306805 0.117055 0.0
-0.000599784 0.000131084 0.0
-0.00186646 0.00103272 0.0
-0.00279257 0.00273598 0.0
-0.00341693 0.00481227 0.0
-0.00382886 0.00720374 0.0
-0.00414179 0.00980171 0.0
-0.00443378 0.0125923 0.0
-0.00475424 0.0155788 0.0
-0.00513124 0.0187912 0.0
-0.00558263 0.0222696 0.0
-0.00612291 0.0260642 0.0
-0.0067677 0.0302335 0.0
-0.00753673 0.0348458 0.0
-0.00845667 0.0399821 0.0
-0.00956463 0.0457394 0.0
-0.0109134 0.0522369 0.0
-0.0125794 0.0596237 0.0
-0.0146754 0.0680891 0.0
-0.0173681 0.0778765 0.0
-0.0209031 0.0892981 0.0
-0.0256279 0.102744 0.0
-0.0319959 0.118668 0.0
-0.0404885 0.137501 0.0
-0.0513653 0.159418 0.0
-0.0639637 0.183726 0.0
-0.0753829 0.207907 0.0
-0.0765462 0.22494 0.0
-0.0448071 0.22329 0.0
0.0898195 0.171365 0.0
0.477677 0.0771808 0.0
-0.00123638 0.00017037 0.0
-0.00334166 0.0012445 0.0
-0.00483787 0.00321349 0.0
-0.00583846 0.00556968 0.0
-0.00651508 0.0082609 0.0
-0.00704179 0.0111731 0.0
-0.0075403 0.0142965 0.0
-0.00808709 0.0176368 0.0
-0.00872691 0.0212268 0.0
-0.00948864 0.0251093 0.0
-0.0103957 0.029337 0.0
-0.0114729 0.0339705 0.0
-0.0127507 0.0390792 0.0
-0.0142694 0.0447435 0.0
-0.0160836 0.0510567 0.0
-0.0182691 0.0581292 0.0
-0.0209318 0.0660918 0.0
-0.0242213 0.0751008 0.0
-0.0283475 0.08534 0.0
-0.033597 0.0970188 0.0
-0.0403342 0.110353 0.0
-0.0489488 0.125513 0.0
-0.0596611 0.142484 0.0
-0.072047 0.160812 0.0
-0.0839876 0.178961 0.0
-0.0897982 0.193722 0.0
-0.0762034 0.197758 0.0
-0.0143061 0.18228 0.0
0.160985 0.124489 0.0
0.574887 0.0488056 0.0
-0.00195427 0.000180086 0.0
-0.00497606 0.00131479 0.0
-0.00707358 0.00337952 0.0
-0.00846244 0.0058273 0.0
-0.00941182 0.00860885 0.0
-0.0101613 0.0116084 0.0
-0.0108775 0.0148196 0.0
-0.0116637 0.018249 0.0
-0.0125807 0.0219299 0.0
-0.0136677 0.025904 0.0
-0.0149564 0.030222 0.0
-0.0164791 0.0349405 0.0
-0.0182751 0.0401229 0.0
-0.0203949 0.0458399 0.0
-0.0229053 0.0521704 0.0
-0.0258963 0.0592024 0.0
-0.0294898 0.0670333 0.0
-0.0338507 0.0757683 0.0
-0.0391982 0.0855149 0.0
-0.0458097 0.0963698 0.0
-0.053993 0.108386 0.0
-0.063978 0.121509 0.0
-0.0756155 0.135436 0.0
-0.0877179 0.149396 0.0
-0.0967555 0.161595 0.0
-0.0946559 0.168899 0.0
-0.0649683 0.164956 0.0
0.0240355 0.143229 0.0
0.227917 0.0893436 0.0
0.643861 0.0300915 0.0
-0.00267614 0.000176249 0.0
-0.0066258 0.00130154 0.0
-0.0093194 0.00334684 0.0
-0.0110858 0.00576061 0.0
-0.0122972 0.00849541 0.0
-0.0132609 0.011437 0.0
-0.0141874 0.0145808 0.0
-0.0152054 0.0179335 0.0
-0.0163904 0.0215266 0.0
-0.0177902 0.0253991 0.0
-0.0194425 0.0295966 0.0
-0.0213853 0.034169 0.0
-0.023663 0.0391704 0.0
-0.0263315 0.0446582 0.0
-0.0294629 0.0506928 0.0
-0.0331515 0.0573363 0.0
-0.0375207 0.0646498 0.0
-0.0427305 0.0726878 0.0
-0.0489822 0.0814881 0.0
-0.0565089 0.0910536 0.0
-0.0655237 0.101316 0.0
-0.0760652 0.112076 0.0
-0.0876186 0.122877 0.0
-0.098327 0.132846 0.0
-0.103534 0.140226 0.0
-0.0934623 0.142319 0.0
-0.0497769 0.133919 0.0
0.0592443 0.111169 0.0
0.281752 0.0645892 0.0
0.691031 0.0186246 0.0
-0.00337389 0.000165814 0.0
-0.00822737 0.00123909 0.0
-0.0114954 0.00319129 0.0
-0.0136219 0.00549017 0.0
-0.0150808 0.00809037 0.0
-0.0162458 0.0108822 0.0
-0.0173702 0.0138617 0.0
-0.0186064 0.017035 0.0
-0.0200425 0.0204311 0.0
-0.0217337 0.0240845 0.0
-0.0237219 0.0280354 0.0
-0.026048 0.0323257 0.0
-0.0287587 0.0369992 0.0
-0.031911 0.0420996 0.0
-0.0355763 0.0476691 0.0
-0.0398451 0.0537456 0.0
-0.0448317 0.0603581 0.0
-0.050678 0.0675193 0.0
-0.0575513 0.0752137 0.0
-0.0656235 0.0833788 0.0
-0.075 0.0918712 0.0
-0.0855304 0.100419 0.0
-0.0963723 0.108515 0.0
-0.105112 0.115307 0.0
-0.106217 0.119226 0.0
-0.088702 0.11808 0.0
-0.0332179 0.107744 0.0
0.0910489 0.0861513 0.0
0.325427 0.0470718 0.0
0.723955 0.0115937 0.0
-0.00402644 0.000152718 0.0
-0.00973104 0.00114849 0.0
-0.0135368 0.00296019 0.0
-0.0159982 0.00509084 0.0
-0.017685 0.00749816 0.0
-0.0190347 0.0100796 0.0
-0.0203404 0.0128319 0.0
-0.0217759 0.0157601 0.0
-0.0234408 0.0188901 0.0
-0.0253956 0.0222521 0.0
-0.0276849 0.0258802 0.0
-0.0303505 0.0298088 0.0
-0.0334384 0.0340721 0.0
-0.0370033 0.0387014 0.0
-0.0411112 0.0437234 0.0
-0.0458432 0.0491562 0.0
-0.0512976 0.055004 0.0
-0.0575902 0.0612491 0.0
-0.0648467 0.0678402 0.0
-0.0731736 0.0746756 0.0
-0.0825724 0.0815745 0.0
-0.0927249 0.0882402 0.0
-0.102517 0.0941734 0.0
-0.109096 0.0986063 0.0
-0.106276 0.100194 0.0
-0.0822533 0.0972122 0.0
-0.0172017 0.0864425 0.0
0.118374 0.0669556 0.0
0.360239 0.03471 0.0
0.747291 0.00732 0.0
-0.00462364 0.000138006 0.0
-0.0111087 0.00103918 0.0
-0.0154055 0.00267769 0.0
-0.0181715 0.00460249 0.0
-0.0200644 0.00677546 0.0
-0.0215806 0.00910371 0.0
-0.0230494 0.0115845 0.0
-0.024664 0.014222 0.0
-0.0265337 0.0170392 0.0
-0.0287229 0.020062 0.0
-0.0312776 0.0233189 0.0
-0.0342388 0.0268377 0.0
-0.0376501 0.0306443 0.0
-0.0415611 0.0347605 0.0
-0.0460298 0.0392008 0.0
-0.0511243 0.0439692 0.0
-0.0569231 0.0490529 0.0
-0.0635129 0.0544155 0.0
-0.0709765 0.0599855 0.0
-0.0793575 0.0656432 0.0
-0.0885641 0.0711967 0.0
-0.0981362 0.0763551 0.0
-0.106739 0.0806598 0.0
-0.111181 0.0834443 0.0
-0.104789 0.0835829 0.0
-0.0752081 0.0797351 0.0
-0.00244143 0.0693795 0.0
0.141539 0.0522979 0.0
0.38794 0.0259179 0.0
0.764139 0.00471724 0.0
-0.00515703 0.000121972 0.0
-0.0123381 0.000915643 0.0
-0.0170711 0.00235632 0.0
-0.0201069 0.00404655 0.0
-0.022182 0.00595336 0.0
-0.0238451 0.00799546 0.0
-0.025458 0.010171 0.0
-0.0272308 0.0124838 0.0
-0.0292806 0.0149539 0.0
-0.0316751 0.0176034 0.0
-0.0344604 0.0204561 0.0
-0.0376759 0.0235345 0.0
-0.0413612 0.0268583 0.0
-0.0455598 0.0304422 0.0
-0.0503201 0.034293 0.0
-0.0556957 0.0384057 0.0
-0.0617444 0.0427587 0.0
-0.0685237 0.0473063 0.0
-0.0760757 0.0519701 0.0
-0.0843873 0.0566275 0.0
-0.0932867 0.0610931 0.0
-0.102197 0.0650988 0.0
-0.109608 0.068239 0.0
-0.112061 0.0699463 0.0
-0.102524 0.0692842 0.0
-0.0682644 0.0652088 0.0
0.0106967 0.055735 0.0
0.160917 0.0410927 0.0
0.409965 0.0196077 0.0
0.776528 0.00312365 0.0
-0.00562001 0.00010459 0.0
-0.0134023 0.000780046 0.0
-0.0185106 0.00200292 0.0
-0.021778 0.00343532 0.0
-0.0240094 0.00505023 0.0
-0.0257992 0.00677957 0.0
-0.0275368 0.0086227 0.0
-0.0294468 0.0105837 0.0
-0.0316528 0.0126799 0.0
-0.0342247 0.0149302 0.0
-0.0372083 0.0173547 0.0
-0.0406406 0.019972 0.0
-0.0445574 0.0227976 0.0
-0.0489954 0.0258421 0.0
-0.053993 0.0291084 0.0
-0.0595898 0.0325881 0.0
-0.0658236 0.036257 0.0
-0.0727246 0.0400689 0.0
-0.0802982 0.0439481 0.0
-0.0884821 0.0477803 0.0
-0.097037 0.0513973 0.0
-0.10529 0.0545624 0.0
-0.111589 0.0569249 0.0
-0.112265 0.0580044 0.0
-0.100012 0.0570238 0.0
-0.0618479 0.0531425 0.0
0.0220331 0.0448533 0.0
0.176991 0.0324746 0.0
0.427505 0.0150277 0.0
0.785808 0.00213733 0.0
-0.00600649 8.5867e-05 0.0
-0.014287 0.000633896 0.0
-0.0197045 0.00162225 0.0
-0.0231624 0.00277752 0.0
-0.0255229 0.00407921 0.0
-0.0274185 0.00547379 0.0
-0.0292614 0.0069622 0.0
-0.0312878 0.008549 0.0
-0.0336268 0.0102494 0.0
-0.0363497 0.0120798 0.0
-0.0395019 0.0140575 0.0
-0.0431185 0.0161983 0.0
-0.0472311 0.0185158 0.0
-0.0518705 0.0210191 0.0
-0.057066 0.0237109 0.0
-0.0628443 0.0265838 0.0
-0.0692255 0.0296169 0.0
-0.0762155 0.0327704 0.0
-0.0837881 0.035979 0.0
-0.0918386 0.0391441 0.0
-0.100071 0.0421217 0.0
-0.107732 0.0447091 0.0
-0.113052 0.0466075 0.0
-0.112192 0.0474082 0.0
-0.0976317 0.0464604 0.0
-0.0562278 0.0430652 0.0
0.0316306 0.0360618 0.0
0.190234 0.0257565 0.0
0.4415 0.0116424 0.0
0.792877 0.00151314 0.0
-0.00631112 6.58667e-05 0.0
-0.0149798 0.000478576 0.0
-0.0206365 0.00121844 0.0
-0.0242416 0.0020806 0.0
-0.0267029 0.00305149 0.0
-0.0286828 0.00409313 0.0
-0.0306114 0.00520829 0.0
-0.0327339 0.00640239 0.0
-0.0351833 0.0076888 0.0
-0.0380325 0.00908188 0.0
-0.0413264 0.0105969 0.0
-0.0450987 0.0122485 0.0
-0.049378 0.0140497 0.0
-0.0541902 0.0160106 0.0
-0.0595576 0.0181367 0.0
-0.0654959 0.0204259 0.0
-0.0720105 0.0228655 0.0
-0.0790872 0.0254274 0.0
-0.0866728 0.0280628 0.0
-0.0946267 0.0306949 0.0
-0.102604 0.0332076 0.0
-0.109782 0.0354331 0.0
-0.11429 0.0371186 0.0
-0.112144 0.037911 0.0
-0.095647 0.0372532 0.0
-0.0515499 0.0345402 0.0
0.0395568 0.028848 0.0
0.201032 0.0204324 0.0
0.452662 0.00908434 0.0
0.798333 0.00110483 0.0
-0.00652926 4.47213e-05 0.0
-0.0154705 0.000315566 0.0
-0.0212932 0.000795594 0.0
-0.0250003 0.00135179 0.0
-0.0275333 0.00197776 0.0
-0.0295757 0.00265178 0.0
-0.0315701 0.00337856 0.0
-0.0337681 0.00416456 0.0
-0.0363059 0.00502149 0.0
-0.0392575 0.00596208 0.0
-0.0426682 0.00700021 0.0
-0.0465709 0.00815009 0.0
-0.0509929 0.00942576 0.0
-0.0559572 0.0108402 0.0
-0.0614811 0.0124043 0.0
-0.067573 0.0141246 0.0
-0.0742271 0.0160005 0.0
-0.0814134 0.0180209 0.0
-0.0890566 0.0201584 0.0
-0.0969854 0.022363 0.0
-0.104811 0.0245499 0.0
-0.111649 0.0265859 0.0
-0.115533 0.0282582 0.0
-0.112348 0.0292544 0.0
-0.0942459 0.0290813 0.0
-0.0478979 0.0271885 0.0
0.0459057 0.0228057 0.0
0.209711 0.0161188 0.0
0.461528 0.00709698 0.0
0.802575 0.000824737 0.0
-0.00665707 2.26071e-05 0.0
-0.015751 0.000146481 0.0
-0.0216639 0.000358023 0.0
-0.0254269 0.000598505 0.0
-0.0280014 0.000868824 0.0
-0.0300839 0.00116394 0.0
-0.0321238 0.00149045 0.0
-0.0343766 0.0018558 0.0
-0.0369805 0.00227006 0.0
-0.0400109 0.00274445 0.0
-0.0435142 0.00329176 0.0
-0.047524 0.00392634 0.0
-0.052068 0.00466408 0.0
-0.0571686 0.00552228 0.0
-0.0628417 0.00651923 0.0
-0.069092 0.00767267 0.0
-0.0759068 0.00899791 0.0
-0.0832455 0.0105049 0.0
-0.0910156 0.012193 0.0
-0.0990197 0.0140438 0.0
-0.106829 0.0160074 0.0
-0.113496 0.0179867 0.0
-0.116962 0.0198035 0.0
-0.112984 0.0211728 0.0
-0.0935712 0.0216396 0.0
-0.0453295 0.0206751 0.0
0.0507584 0.0175997 0.0
0.216523 0.0125164 0.0
0.468495 0.00549571 0.0
0.80587 0.000619381 0.0
-0.00669155 -2.60017e-07 0.0
-0.0158152 -2.6939e-05 0.0
-0.0217412 -8.97403e-05 0.0
-0.0255125 -0.000171475 0.0
-0.028098 -0.000264028 0.0
-0.0301972 -0.000355646 0.0
-0.0322615 -0.000438135 0.0
-0.0345473 -0.000503243 0.0
-0.0371941 -0.000542837 0.0
-0.0402786 -0.000547365 0.0
-0.0438494 -0.000505172 0.0
-0.0479424 -0.000401646 0.0
-0.0525879 -0.00021861 0.0
-0.0578116 6.62393e-05 0.0
-0.063631 0.000479565 0.0
-0.0700514 0.00105223 0.0
-0.0770595 0.00181842 0.0
-0.0846094 0.00281326 0.0
-0.092597 0.00406808 0.0
-0.100803 0.00560182 0.0
-0.108758 0.00740567 0.0
-0.11545 0.00942199 0.0
-0.118723 0.0115052 0.0
-0.114199 0.0133859 0.0
-0.0937433 0.0146243 0.0
-0.0438974 0.0146844 0.0
0.0541694 0.0129311 0.0
0.221653 0.00937471 0.0
0.473838 0.00413861 0.0
0.808389 0.000454416 0.0
-0.00663089 -2.36782e-05 0.0
-0.0156596 -0.000203007 0.0
-0.0215203 -0.000543077 0.0
-0.0252521 -0.000949961 0.0
-0.0278173 -0.00140869 0.0
-0.0299095 -0.00189108 0.0
-0.031976 -0.00238778 0.0
-0.0342716 -0.0028902 0.0
-0.0369361 -0.0033926 0.0
-0.0400482 -0.0038876 0.0
-0.0436595 -0.00436519 0.0
-0.04781 -0.004811 0.0
-0.0525352 -0.00520497 0.0
-0.057866 -0.00552003 0.0
-0.0638268 -0.0057209 0.0
-0.0704298 -0.00576257 0.0
-0.0776669 -0.00558985 0.0
-0.0854945 -0.00513861 0.0
-0.093804 -0.0043397 0.0
-0.102358 -0.00312838 0.0
-0.110652 -0.00146343 0.0
-0.117603 0.000643037 0.0
-0.120933 0.00307634 0.0
-0.116115 0.00557862 0.0
-0.0948655 0.0077099 0.0
-0.0436643 0.00889529 0.0
0.0561456 0.00850736 0.0
0.225197 0.00645722 0.0
0.477723 0.00290035 0.0
0.810229 0.000304171 0.0
-0.00647381 -4.74086e-05 0.0
-0.0152826 -0.000379769 0.0
-0.0210001 -0.000996778 0.0
-0.0246445 -0.00172789 0.0
-0.0271577 -0.00255194 0.0
-0.0292177 -0.00342502 0.0
-0.0312624 -0.00433729 0.0
-0.0335423 -0.00528048 0.0
-0.0361965 -0.00625196 0.0
-0.0393059 -0.00724737 0.0
-0.0429258 -0.0082594 0.0
-0.0471024 -0.00927511 0.0
-0.0518787 -0.0102739 0.0
-0.0572952 -0.0112253 0.0
-0.0633878 -0.0120859 0.0
-0.0701818 -0.012797 0.0
-0.0776828 -0.0132815 0.0
-0.085859 -0.0134436 0.0
-0.0946072 -0.0131704 0.0
-0.10368 -0.0123418 0.0
-0.112531 -0.0108532 0.0
-0.119995 -0.00865797 0.0
-0.123667 -0.00582701 0.0
-0.118849 -0.00261317 0.0
-0.0970665 0.000512798 0.0
-0.0447018 0.0029238 0.0
0.0566793 0.00399443 0.0
0.227188 0.00351274 0.0
0.480201 0.00165722 0.0
0.811414 0.000146542 0.0
-0.00622053 -7.11344e-05 0.0
-0.0146855 -0.000554851 0.0
-0.020183 -0.00144485 0.0
-0.0236927 -0.00249521 0.0
-0.0261217 -0.0036793 0.0
-0.0281234 -0.00493853 0.0
-0.0301206 -0.00626334 0.0
-0.0323566 -0.00764668 0.0
-0.0349689 -0.00908997 0.0
-0.0380403 -0.0105931 0.0
-0.0416312 -0.012153 0.0
-0.0457948 -0.0137599 0.0
-0.0505841 -0.0153951 0.0
-0.0560531 -0.017027 0.0
-0.0622541 -0.0186072 0.0
-0.0692332 -0.0200653 0.0
-0.0770194 -0.021304 0.0
-0.0856051 -0.0221947 0.0
-0.094906 -0.0225768 0.0
-0.104677 -0.0222651 0.0
-0.11434 -0.0210748 0.0
-0.122635 -0.0188731 0.0
-0.126987 -0.01566 0.0
-0.122468 -0.0116708 0.0
-0.100413 -0.00742237 0.0
-0.0471626 -0.0036411 0.0
0.0555829 -0.000999051 0.0
0.227504 0.000189871 0.0
0.481222 0.000225795 0.0
0.81192 -4.83426e-05 0.0
-0.00587249 -9.45131e-05 0.0
-0.0138728 -0.000725653 0.0
-0.0190755 -0.00188068 0.0
-0.0224041 -0.00324073 0.0
-0.0247166 -0.00477455 0.0
-0.0266328 -0.00641019 0.0
-0.0285545 -0.00813924 0.0
-0.0307155 -0.00995689 0.0
-0.03325 -0.0118698 0.0
-0.0362426 -0.0138835 0.0
-0.0397585 -0.0160013 0.0
-0.0438596 -0.0182193 0.0
-0.0486107 -0.0205237 0.0
-0.054082 -0.0228862 0.0
-0.0603481 -0.0252577 0.0
-0.0674832 -0.0275617 0.0
-0.0755512 -0.0296851 0.0
-0.084584 -0.0314695 0.0
-0.0945349 -0.032705 0.0
-0.105181 -0.0331337 0.0
-0.115926 -0.0324725 0.0
-0.125416 -0.0304734 0.0
-0.130881 -0.0270243 0.0
-0.127097 -0.0222937 0.0
-0.105102 -0.0168058 0.0
-0.0511204 -0.0114335 0.0
0.0528676 -0.00696377 0.0
0.225979 -0.00386085 0.0
0.480446 -0.00157763 0.0
0.811535 -0.000318605 0.0
-0.00543263 -0.000117207 0.0
-0.0128522 -0.000889321 0.0
-0.0176885 -0.00229683 0.0
-0.0207911 -0.00395179 0.0
-0.0229553 -0.00581918 0.0
-0.0247576 -0.00781533 0.0
-0.0265742 -0.00993388 0.0
-0.0286258 -0.0121733 0.0
-0.0310421 -0.0145466 0.0
-0.0339085 -0.017067 0.0
-0.037295 -0.019746 0.0
-0.0412717 -0.0225891 0.0
-0.0459163 -0.0255919 0.0
-0.0513178 -0.0287348 0.0
-0.0575768 -0.0319756 0.0
-0.0648035 -0.0352399 0.0
-0.0731088 -0.0384083 0.0
-0.0825819 -0.0413013 0.0
-0.0932386 -0.0436653 0.0
-0.104908 -0.0451668 0.0
-0.117002 -0.045409 0.0
-0.12809 -0.0439947 0.0
-0.135184 -0.0406453 0.0
-0.132705 -0.0353921 0.0
-0.111296 -0.028689 0.0
-0.0569709 -0.0215053 0.0
0.0480332 -0.0147309 0.0
0.222204 -0.0091812 0.0
0.477516 -0.00401647 0.0
0.81003 -0.000723229 0.0
-0.00490551 -0.00013887 0.0
-0.0116355 -0.00104253 0.0
-0.0160382 -0.00268448 0.0
-0.0188725 -0.00461317 0.0
-0.0208569 -0.00679088 0.0
-0.0225169 -0.00912404 0.0
-0.0241972 -0.0116091 0.0
-0.0261026 -0.0142487 0.0
-0.0283564 -0.0170636 0.0
-0.0310431 -0.0200759 0.0
-0.0342362 -0.0233082 0.0
-0.0380133 -0.0267786 0.0
-0.0424644 -0.0304974 0.0
-0.0476972 -0.0344608 0.0
-0.0538412 -0.0386432 0.0
-0.0610479 -0.0429853 0.0
-0.0694863 -0.0473766 0.0
-0.0793225 -0.0516344 0.0
-0.0906643 -0.0554776 0.0
-0.103433 -0.0585078 0.0
-0.117097 -0.0602101 0.0
-0.130185 -0.060008 0.0
-0.139504 -0.0573902 0.0
-0.139074 -0.0521418 0.0
-0.119034 -0.0445003 0.0
-0.0650377 -0.0353982 0.0
0.0405245 -0.0257153 0.0
0.215447 -0.0168586 0.0
0.471641 -0.00765093 0.0
0.806902 -0.00138324 0.0
-0.00429741 -0.000159124 0.0
-0.0102392 -0.00118094 0.0
-0.0141471 -0.00303187 0.0
-0.0166738 -0.00520478 0.0
-0.0184487 -0.00766019 0.0
-0.0199379 -0.0102968 0.0
-0.0214501 -0.0131142 0.0
-0.023171 -0.0161202 0.0
-0.0252149 -0.0193437 0.0
-0.0276637 -0.022817 0.0
-0.0305919 -0.026576 0.0
-0.0340819 -0.0306548 0.0
-0.0382333 -0.0350835 0.0
-0.0431705 -0.0398823 0.0
-0.0490501 -0.0450539 0.0
-0.0560668 -0.0505702 0.0
-0.0644549 -0.0563531 0.0
-0.0744743 -0.0622451 0.0
-0.0863568 -0.067972 0.0
-0.100166 -0.0731034 0.0
-0.115495 -0.077028 0.0
-0.13091 -0.078982 0.0
-0.143073 -0.0781601 0.0
-0.145621 -0.0739592 0.0
-0.128116 -0.0661654 0.0
-0.0756957 -0.0553806 0.0
0.0294237 -0.0421323 0.0
0.204434 -0.0286601 0.0
0.461392 -0.0134758 0.0
0.801204 -0.00254313 0.0
-0.00361776 -0.000177185 0.0
-0.00868718 -0.00129748 0.0
-0.0120477 -0.00332078 0.0
-0.0142325 -0.00569606 0.0
-0.0157702 -0.00838302 0.0
-0.0170618 -0.0112749 0.0
-0.0183751 -0.0143746 0.0
-0.0198737 -0.0176947 0.0
-0.0216605 -0.0212725 0.0
-0.0238116 -0.0251512 0.0
-0.0263993 -0.0293808 0.0
-0.0295066 -0.0340141 0.0
-0.0332376 -0.0391051 0.0
-0.0377273 -0.0447053 0.0
-0.0431532 -0.0508575 0.0
-0.0497477 -0.0575843 0.0
-0.057809 -0.0648678 0.0
-0.0676989 -0.072618 0.0
-0.0797984 -0.0806233 0.0
-0.0943662 -0.088489 0.0
-0.111208 -0.0955755 0.0
-0.129046 -0.100974 0.0
-0.144544 -0.103563 0.0
-0.151085 -0.102205 0.0
-0.137712 -0.0959229 0.0
-0.0889471 -0.0844569 0.0
0.0137632 -0.0673131 0.0
0.187359 -0.047373 0.0
0.444512 -0.0232164 0.0
0.791278 -0.0046883 0.0
-0.0028793 -0.000191431 0.0
-0.00701249 -0.00137984 0.0
-0.00978384 -0.00352064 0.0
-0.011598 -0.00603696 0.0
-0.0128744 -0.00888812 0.0
-0.0139439 -0.0119644 0.0
-0.0150303 -0.0152708 0.0
-0.0162721 -0.0188245 0.0
-0.0177577 -0.0226695 0.0
-0.0195543 -0.0268594 0.0
-0.0217278 -0.0314578 0.0
-0.0243562 -0.0365363 0.0
-0.0275402 -0.0421745 0.0
-0.0314156 -0.0484596 0.0
-0.0361677 -0.0554832 0.0
-0.0420515 -0.0633352 0.0
-0.0494138 -0.0720882 0.0
-0.0587077 -0.0817685 0.0
-0.0704692 -0.0923045 0.0
-0.0851909 -0.103446 0.0
-0.102983 -0.114658 0.0
-0.122897 -0.125019 0.0
-0.141844 -0.133161 0.0
-0.153273 -0.137326 0.0
-0.146025 -0.135456 0.0
-0.104131 -0.125626 0.0
-0.00792877 -0.105731 0.0
0.161021 -0.0771579 0.0
0.416901 -0.0399208 0.0
0.773758 -0.00885944 0.0
-0.00210758 -0.000197277 0.0
-0.00527286 -0.00140391 0.0
-0.00743008 -0.00357762 0.0
-0.00885389 -0.00614232 0.0
-0.00985092 -0.00905629 0.0
-0.0106804 -0.0122092 0.0
-0.0115192 -0.0156064 0.0
-0.0124787 -0.0192672 0.0
-0.01363 -0.0232405 0.0
-0.0150281 -0.0275871 0.0
-0.016728 -0.0323815 0.0
-0.0187963 -0.0377109 0.0
-0.0213216 -0.0436776 0.0
-0.024427 -0.0504024 0.0
-0.0282873 -0.0580267 0.0
-0.0331539 -0.0667147 0.0
-0.0393882 -0.0766497 0.0
-0.0474956 -0.0880189 0.0
-0.0581332 -0.100974 0.0
-0.0720212 -0.115552 0.0
-0.0896373 -0.131531 0.0
-0.110538 -0.148234 0.0
-0.132235 -0.164289 0.0
-0.148772 -0.177417 0.0
-0.14945 -0.184272 0.0
-0.11833 -0.180521 0.0
-0.0346249 -0.161204 0.0
0.123328 -0.123579 0.0
0.374171 -0.0685969 0.0
0.743614 -0.0171566 0.0
-0.00133655 -0.000187197 0.0
-0.0035422 -0.00133281 0.0
-0.00507875 -0.0034106 0.0
-0.00610082 -0.00588323 0.0
-0.00680685 -0.00870576 0.0
-0.00738552 -0.0117697 0.0