# vtk DataFile Version 3.0
Malha 2D com triângulos e temperatura
ASCII
DATASET UNSTRUCTURED_GRID

POINTS 961 double
0 0 0
1 0 0
1 1 0
0 1 0
0.0333333 0 0
0.0666667 0 0
0.1 0 0
0.133333 0 0
0.166667 0 0
0.2 0 0
0.233333 0 0
0.266667 0 0
0.3 0 0
0.333333 0 0
0.366667 0 0
0.4 0 0
0.433333 0 0
0.466667 0 0
0.5 0 0
0.533333 0 0
0.566667 0 0
0.6 0 0
0.633333 0 0
0.666667 0 0
0.7 0 0
0.733333 0 0
0.766667 0 0
0.8 0 0
0.833333 0 0
0.866667 0 0
0.9 0 0
0.933333 0 0
0.966667 0 0
1 0.0333333 0
1 0.0666667 0
1 0.1 0
1 0.133333 0
1 0.166667 0
1 0.2 0
1 0.233333 0
1 0.266667 0
1 0.3 0
1 0.333333 0
1 0.366667 0
1 0.4 0
1 0.433333 0
1 0.466667 0
1 0.5 0
1 0.533333 0
1 0.566667 0
1 0.6 0
1 0.633333 0
1 0.666667 0
1 0.7 0
1 0.733333 0
1 0.766667 0
1 0.8 0
1 0.833333 0
1 0.866667 0
1 0.9 0
1 0.933333 0
1 0.966667 0
0.966667 1 0
0.933333 1 0
0.9 1 0
0.866667 1 0
0.833333 1 0
0.8 1 0
0.766667 1 0
0.733333 1 0
0.7 1 0
0.666667 1 0
0.633333 1 0
0.6 1 0
0.566667 1 0
0.533333 1 0
0.5 1 0
0.466667 1 0
0.433333 1 0
0.4 1 0
0.366667 1 0
0.333333 1 0
0.3 1 0
0.266667 1 0
0.233333 1 0
0.2 1 0
0.166667 1 0
0.133333 1 0
0.1 1 0
0.0666667 1 0
0.0333333 1 0
0 0.966667 0
0 0.933333 0
0 0.9 0
0 0.866667 0
0 0.833333 0
0 0.8 0
0 0.766667 0
0 0.733333 0
0 0.7 0
0 0.666667 0
0 0.633333 0
0 0.6 0
0 0.566667 0
0 0.533333 0
0 0.5 0
0 0.466667 0
0 0.433333 0
0 0.4 0
0 0.366667 0
0 0.333333 0
0 0.3 0
0 0.266667 0
0 0.233333 0
0 0.2 0
0 0.166667 0
0 0.133333 0
0 0.1 0
0 0.0666667 0
0 0.0333333 0
0.0333333 0.0333333 0
0.0333333 0.0666667 0
0.0333333 0.1 0
0.0333333 0.133333 0
0.0333333 0.166667 0
0.0333333 0.2 0
0.0333333 0.233333 0
0.0333333 0.266667 0
0.0333333 0.3 0
0.0333333 0.333333 0
0.0333333 0.366667 0
0.0333333 0.4 0
0.0333333 0.433333 0
0.0333333 0.466667 0
0.0333333 0.5 0
0.0333333 0.533333 0
0.0333333 0.566667 0
0.0333333 0.6 0
0.0333333 0.633333 0
0.0333333 0.666667 0
0.0333333 0.7 0
0.0333333 0.733333 0
0.0333333 0.766667 0
0.0333333 0.8 0
0.0333333 0.833333 0
0.0333333 0.866667 0
0.0333333 0.9 0
0.0333333 0.933333 0
0.0333333 0.966667 0
0.0666667 0.0333333 0
0.0666667 0.0666667 0
0.0666667 0.1 0
0.0666667 0.133333 0
0.0666667 0.166667 0
0.0666667 0.2 0
0.0666667 0.233333 0
0.0666667 0.266667 0
0.0666667 0.3 0
0.0666667 0.333333 0
0.0666667 0.366667 0
0.0666667 0.4 0
0.0666667 0.433333 0
0.0666667 0.466667 0
0.0666667 0.5 0
0.0666667 0.533333 0
0.0666667 0.566667 0
0.0666667 0.6 0
0.0666667 0.633333 0
0.0666667 0.666667 0
0.0666667 0.7 0
0.0666667 0.733333 0
0.0666667 0.766667 0
0.0666667 0.8 0
0.0666667 0.833333 0
0.0666667 0.866667 0
0.0666667 0.9 0
0.0666667 0.933333 0
0.0666667 0.966667 0
0.1 0.0333333 0
0.1 0.0666667 0
0.1 0.1 0
0.1 0.133333 0
0.1 0.166667 0
0.1 0.2 0
0.1 0.233333 0
0.1 0.266667 0
0.1 0.3 0
0.1 0.333333 0
0.1 0.366667 0
0.1 0.4 0
0.1 0.433333 0
0.1 0.466667 0
0.1 0.5 0
0.1 0.533333 0
0.1 0.566667 0
0.1 0.6 0
0.1 0.633333 0
0.1 0.666667 0
0.1 0.7 0
0.1 0.733333 0
0.1 0.766667 0
0.1 0.8 0
0.1 0.833333 0
0.1 0.866667 0
0.1 0.9 0
0.1 0.933333 0
0.1 0.966667 0
0.133333 0.0333333 0
0.133333 0.0666667 0
0.133333 0.1 0
0.133333 0.133333 0
0.133333 0.166667 0
0.133333 0.2 0
0.133333 0.233333 0
0.133333 0.266667 0
0.133333 0.3 0
0.133333 0.333333 0
0.133333 0.366667 0
0.133333 0.4 0
0.133333 0.433333 0
0.133333 0.466667 0
0.133333 0.5 0
0.133333 0.533333 0
0.133333 0.566667 0
0.133333 0.6 0
0.133333 0.633333 0
0.133333 0.666667 0
0.133333 0.7 0
0.133333 0.733333 0
0.133333 0.766667 0
0.133333 0.8 0
0.133333 0.833333 0
0.133333 0.866667 0
0.133333 0.9 0
0.133333 0.933333 0
0.133333 0.966667 0
0.166667 0.0333333 0
0.166667 0.0666667 0
0.166667 0.1 0
0.166667 0.133333 0
0.166667 0.166667 0
0.166667 0.2 0
0.166667 0.233333 0
0.166667 0.266667 0
0.166667 0.3 0
0.166667 0.333333 0
0.166667 0.366667 0
0.166667 0.4 0
0.166667 0.433333 0
0.166667 0.466667 0
0.166667 0.5 0
0.166667 0.533333 0
0.166667 0.566667 0
0.166667 0.6 0
0.166667 0.633333 0
0.166667 0.666667 0
0.166667 0.7 0
0.166667 0.733333 0
0.166667 0.766667 0
0.166667 0.8 0
0.166667 0.833333 0
0.166667 0.866667 0
0.166667 0.9 0
0.166667 0.933333 0
0.166667 0.966667 0
0.2 0.0333333 0
0.2 0.0666667 0
0.2 0.1 0
0.2 0.133333 0
0.2 0.166667 0
0.2 0.2 0
0.2 0.233333 0
0.2 0.266667 0
0.2 0.3 0
0.2 0.333333 0
0.2 0.366667 0
0.2 0.4 0
0.2 0.433333 0
0.2 0.466667 0
0.2 0.5 0
0.2 0.533333 0
0.2 0.566667 0
0.2 0.6 0
0.2 0.633333 0
0.2 0.666667 0
0.2 0.7 0
0.2 0.733333 0
0.2 0.766667 0
0.2 0.8 0
0.2 0.833333 0
0.2 0.866667 0
0.2 0.9 0
0.2 0.933333 0
0.2 0.966667 0
0.233333 0.0333333 0
0.233333 0.0666667 0
0.233333 0.1 0
0.233333 0.133333 0
0.233333 0.166667 0
0.233333 0.2 0
0.233333 0.233333 0
0.233333 0.266667 0
0.233333 0.3 0
0.233333 0.333333 0
0.233333 0.366667 0
0.233333 0.4 0
0.233333 0.433333 0
0.233333 0.466667 0
0.233333 0.5 0
0.233333 0.533333 0
0.233333 0.566667 0
0.233333 0.6 0
0.233333 0.633333 0
0.233333 0.666667 0
0.233333 0.7 0
0.233333 0.733333 0
0.233333 0.766667 0
0.233333 0.8 0
0.233333 0.833333 0
0.233333 0.866667 0
0.233333 0.9 0
0.233333 0.933333 0
0.233333 0.966667 0
0.266667 0.0333333 0
0.266667 0.0666667 0
0.266667 0.1 0
0.266667 0.133333 0
0.266667 0.166667 0
0.266667 0.2 0
0.266667 0.233333 0
0.266667 0.266667 0
0.266667 0.3 0
0.266667 0.333333 0
0.266667 0.366667 0
0.266667 0.4 0
0.266667 0.433333 0
0.266667 0.466667 0
0.266667 0.5 0
0.266667 0.533333 0
0.266667 0.566667 0
0.266667 0.6 0
0.266667 0.633333 0
0.266667 0.666667 0
0.266667 0.7 0
0.266667 0.733333 0
0.266667 0.766667 0
0.266667 0.8 0
0.266667 0.833333 0
0.266667 0.866667 0
0.266667 0.9 0
0.266667 0.933333 0
0.266667 0.966667 0
0.3 0.0333333 0
0.3 0.0666667 0
0.3 0.1 0
0.3 0.133333 0
0.3 0.166667 0
0.3 0.2 0
0.3 0.233333 0
0.3 0.266667 0
0.3 0.3 0
0.3 0.333333 0
0.3 0.366667 0
0.3 0.4 0
0.3 0.433333 0
0.3 0.466667 0
0.3 0.5 0
0.3 0.533333 0
0.3 0.566667 0
0.3 0.6 0
0.3 0.633333 0
0.3 0.666667 0
0.3 0.7 0
0.3 0.733333 0
0.3 0.766667 0
0.3 0.8 0
0.3 0.833333 0
0.3 0.866667 0
0.3 0.9 0
0.3 0.933333 0
0.3 0.966667 0
0.333333 0.0333333 0
0.333333 0.0666667 0
0.333333 0.1 0
0.333333 0.133333 0
0.333333 0.166667 0
0.333333 0.2 0
0.333333 0.233333 0
0.333333 0.266667 0
0.333333 0.3 0
0.333333 0.333333 0
0.333333 0.366667 0
0.333333 0.4 0
0.333333 0.433333 0
0.333333 0.466667 0
0.333333 0.5 0
0.333333 0.533333 0
0.333333 0.566667 0
0.333333 0.6 0
0.333333 0.633333 0
0.333333 0.666667 0
0.333333 0.7 0
0.333333 0.733333 0
0.333333 0.766667 0
0.333333 0.8 0
0.333333 0.833333 0
0.333333 0.866667 0
0.333333 0.9 0
0.333333 0.933333 0
0.333333 0.966667 0
0.366667 0.0333333 0
0.366667 0.0666667 0
0.366667 0.1 0
0.366667 0.133333 0
0.366667 0.166667 0
0.366667 0.2 0
0.366667 0.233333 0
0.366667 0.266667 0
0.366667 0.3 0
0.366667 0.333333 0
0.366667 0.366667 0
0.366667 0.4 0
0.366667 0.433333 0
0.366667 0.466667 0
0.366667 0.5 0
0.366667 0.533333 0
0.366667 0.566667 0
0.366667 0.6 0
0.366667 0.633333 0
0.366667 0.666667 0
0.366667 0.7 0
0.366667 0.733333 0
0.366667 0.766667 0
0.366667 0.8 0
0.366667 0.833333 0
0.366667 0.866667 0
0.366667 0.9 0
0.366667 0.933333 0
0.366667 0.966667 0
0.4 0.0333333 0
0.4 0.0666667 0
0.4 0.1 0
0.4 0.133333 0
0.4 0.166667 0
0.4 0.2 0
0.4 0.233333 0
0.4 0.266667 0
0.4 0.3 0
0.4 0.333333 0
0.4 0.366667 0
0.4 0.4 0
0.4 0.433333 0
0.4 0.466667 0
0.4 0.5 0
0.4 0.533333 0
0.4 0.566667 0
0.4 0.6 0
0.4 0.633333 0
0.4 0.666667 0
0.4 0.7 0
0.4 0.733333 0
0.4 0.766667 0
0.4 0.8 0
0.4 0.833333 0
0.4 0.866667 0
0.4 0.9 0
0.4 0.933333 0
0.4 0.966667 0
0.433333 0.0333333 0
0.433333 0.0666667 0
0.433333 0.1 0
0.433333 0.133333 0
0.433333 0.166667 0
0.433333 0.2 0
0.433333 0.233333 0
0.433333 0.266667 0
0.433333 0.3 0
0.433333 0.333333 0
0.433333 0.366667 0
0.433333 0.4 0
0.433333 0.433333 0
0.433333 0.466667 0
0.433333 0.5 0
0.433333 0.533333 0
0.433333 0.566667 0
0.433333 0.6 0
0.433333 0.633333 0
0.433333 0.666667 0
0.433333 0.7 0
0.433333 0.733333 0
0.433333 0.766667 0
0.433333 0.8 0
0.433333 0.833333 0
0.433333 0.866667 0
0.433333 0.9 0
0.433333 0.933333 0
0.433333 0.966667 0
0.466667 0.0333333 0
0.466667 0.0666667 0
0.466667 0.1 0
0.466667 0.133333 0
0.466667 0.166667 0
0.466667 0.2 0
0.466667 0.233333 0
0.466667 0.266667 0
0.466667 0.3 0
0.466667 0.333333 0
0.466667 0.366667 0
0.466667 0.4 0
0.466667 0.433333 0
0.466667 0.466667 0
0.466667 0.5 0
0.466667 0.533333 0
0.466667 0.566667 0
0.466667 0.6 0
0.466667 0.633333 0
0.466667 0.666667 0
0.466667 0.7 0
0.466667 0.733333 0
0.466667 0.766667 0
0.466667 0.8 0
0.466667 0.833333 0
0.466667 0.866667 0
0.466667 0.9 0
0.466667 0.933333 0
0.466667 0.966667 0
0.5 0.0333333 0
0.5 0.0666667 0
0.5 0.1 0
0.5 0.133333 0
0.5 0.166667 0
0.5 0.2 0
0.5 0.233333 0
0.5 0.266667 0
0.5 0.3 0
0.5 0.333333 0
0.5 0.366667 0
0.5 0.4 0
0.5 0.433333 0
0.5 0.466667 0
0.5 0.5 0
0.5 0.533333 0
0.5 0.566667 0
0.5 0.6 0
0.5 0.633333 0
0.5 0.666667 0
0.5 0.7 0
0.5 0.733333 0
0.5 0.766667 0
0.5 0.8 0
0.5 0.833333 0
0.5 0.866667 0
0.5 0.9 0
0.5 0.933333 0
0.5 0.966667 0
0.533333 0.0333333 0
0.533333 0.0666667 0
0.533333 0.1 0
0.533333 0.133333 0
0.533333 0.166667 0
0.533333 0.2 0
0.533333 0.233333 0
0.533333 0.266667 0
0.533333 0.3 0
0.533333 0.333333 0
0.533333 0.366667 0
0.533333 0.4 0
0.533333 0.433333 0
0.533333 0.466667 0
0.533333 0.5 0
0.533333 0.533333 0
0.533333 0.566667 0
0.533333 0.6 0
0.533333 0.633333 0
0.533333 0.666667 0
0.533333 0.7 0
0.533333 0.733333 0
0.533333 0.766667 0
0.533333 0.8 0
0.533333 0.833333 0
0.533333 0.866667 0
0.533333 0.9 0
0.533333 0.933333 0
0.533333 0.966667 0
0.566667 0.0333333 0
0.566667 0.0666667 0
0.566667 0.1 0
0.566667 0.133333 0
0.566667 0.166667 0
0.566667 0.2 0
0.566667 0.233333 0
0.566667 0.266667 0
0.566667 0.3 0
0.566667 0.333333 0
0.566667 0.366667 0
0.566667 0.4 0
0.566667 0.433333 0
0.566667 0.466667 0
0.566667 0.5 0
0.566667 0.533333 0
0.566667 0.566667 0
0.566667 0.6 0
0.566667 0.633333 0
0.566667 0.666667 0
0.566667 0.7 0
0.566667 0.733333 0
0.566667 0.766667 0
0.566667 0.8 0
0.566667 0.833333 0
0.566667 0.866667 0
0.566667 0.9 0
0.566667 0.933333 0
0.566667 0.966667 0
0.6 0.0333333 0
0.6 0.0666667 0
0.6 0.1 0
0.6 0.133333 0
[...]
CELL_DATA 900
VECTORS velocity double
6.66355e-05 -6.55409e-05 0.0
-1.69982e-05 1.05615e-05 0.0
-9.27153e-05 0.000393826 0.0
-0.000148975 0.000984994 0.0
-0.000181822 0.00174319 0.0
-0.00020236 0.00260959 0.0
-0.000217152 0.00356295 0.0
-0.000231343 0.0045927 0.0
-0.000247655 0.00570316 0.0
-0.00026772 0.0069058 0.0
-0.000292503 0.0082181 0.0
-0.00032283 0.00966191 0.0
-0.000359674 0.0112638 0.0
-0.000404448 0.0130559 0.0
-0.000459344 0.0150784 0.0
-0.000527891 0.0173828 0.0
-0.000615907 0.0200376 0.0
-0.000733226 0.0231366 0.0
-0.000896829 0.026812 0.0
-0.00113685 0.0312544 0.0
-0.00150838 0.0367426 0.0
-0.0021163 0.0436933 0.0
-0.0031657 0.0527466 0.0
-0.00506715 0.0649009 0.0
-0.00859703 0.0818484 0.0
-0.0151124 0.106044 0.0
-0.025761 0.142509 0.0
-0.038097 0.189832 0.0
-0.0133917 0.262755 0.0
0.216865 0.174027 0.0
-1.24668e-05 2.08856e-05 0.0
-0.000486678 0.000488347 0.0
-0.000916987 0.00156904 0.0
-0.00126078 0.0030569 0.0
-0.00150734 0.00490246 0.0
-0.00169282 0.00700699 0.0
-0.00184769 0.00933232 0.0
-0.00199819 0.0118589 0.0
-0.00216237 0.0145956 0.0
-0.00235307 0.0175673 0.0
-0.00257991 0.0208131 0.0
-0.00285166 0.0243833 0.0
-0.00317818 0.0283393 0.0
-0.00357232 0.0327563 0.0
-0.00405206 0.0377266 0.0
-0.00464352 0.0433667 0.0
-0.00538502 0.0498264 0.0
-0.00633301 0.057301 0.0
-0.0075703 0.0660474 0.0
-0.00921773 0.0764016 0.0
-0.0114506 0.0887928 0.0
-0.014525 0.103745 0.0
-0.0188167 0.121843 0.0
-0.024889 0.143603 0.0
-0.0334831 0.169206 0.0
-0.0453711 0.197582 0.0
-0.0589947 0.225253 0.0
-0.0651997 0.240355 0.0
-0.00279452 0.21869 0.0
0.30531 0.1165 0.0
-0.000398071 9.57957e-05 0.0
-0.00156368 0.000897877 0.0
-0.00258743 0.00253689 0.0
-0.00341083 0.00468358 0.0
-0.00403405 0.00729043 0.0
-0.00452454 0.0102386 0.0
-0.00494832 0.0134869 0.0
-0.00536339 0.0170142 0.0
-0.00581296 0.0208342 0.0
-0.00632905 0.0249798 0.0
-0.00693661 0.029502 0.0
-0.00765846 0.034465 0.0
-0.00851949 0.0399472 0.0
-0.00955099 0.0460418 0.0
-0.0107951 0.052861 0.0
-0.0123105 0.060541 0.0
-0.0141788 0.0692491 0.0
-0.0165127 0.0791911 0.0
-0.0194635 0.0906171 0.0
-0.0232262 0.103821 0.0
-0.0280342 0.119122 0.0
-0.0341388 0.136807 0.0
-0.0417445 0.157003 0.0
-0.0508747 0.179428 0.0
-0.0609368 0.202856 0.0
-0.0697465 0.224357 0.0
-0.0696545 0.237058 0.0
-0.0392209 0.230155 0.0
0.0919205 0.173549 0.0
0.476492 0.0770984 0.0
-0.000973073 0.000147201 0.0
-0.00299889 0.00118826 0.0
-0.00470425 0.0032151 0.0
-0.00605812 0.00579318 0.0
-0.00710061 0.00887784 0.0
-0.00793812 0.0123391 0.0
-0.00867535 0.0161388 0.0
-0.00940304 0.0202576 0.0
-0.0101904 0.0247127 0.0
-0.0110892 0.0295412 0.0
-0.0121402 0.034798 0.0
-0.0133801 0.0405513 0.0
-0.0148481 0.0468824 0.0
-0.0165912 0.0538855 0.0
-0.0186712 0.0616696 0.0
-0.02117 0.0703611 0.0
-0.0241968 0.0801055 0.0
-0.0278928 0.0910676 0.0
-0.0324313 0.103425 0.0
-0.0380046 0.117349 0.0
-0.0447848 0.132956 0.0
-0.0528403 0.150219 0.0
-0.0619657 0.168785 0.0
-0.0713791 0.187702 0.0
-0.0790416 0.204844 0.0
-0.0802833 0.216488 0.0
-0.0638125 0.215331 0.0
-0.0026452 0.192978 0.0
0.167549 0.128742 0.0
0.575393 0.0491674 0.0
-0.00167698 0.00016997 0.0
-0.00469518 0.00134081 0.0
-0.00715082 0.00358393 0.0
-0.00907174 0.00639308 0.0
-0.0105599 0.00972263 0.0
-0.0117689 0.013435 0.0
-0.0128459 0.0174953 0.0
-0.0139152 0.0218863 0.0
-0.015072 0.0266273 0.0
-0.0163873 0.031756 0.0
-0.0179169 0.0373266 0.0
-0.0197097 0.0434047 0.0
-0.0218164 0.0500657 0.0
-0.0242959 0.057394 0.0
-0.0272222 0.0654823 0.0
-0.0306902 0.0744316 0.0
-0.0348194 0.0843479 0.0
-0.0397541 0.0953364 0.0
-0.0456512 0.107486 0.0
-0.0526455 0.120842 0.0
-0.060772 0.135341 0.0
-0.0698186 0.15072 0.0
-0.0790609 0.166322 0.0
-0.0868212 0.180872 0.0
-0.0896292 0.191951 0.0
-0.0806832 0.195883 0.0
-0.0460735 0.186135 0.0
0.0428873 0.156831 0.0
0.240442 0.095079 0.0
0.647168 0.0308001 0.0
-0.00242789 0.000175631 0.0
-0.00649725 0.00139091 0.0
-0.00972485 0.00370706 0.0
-0.0122147 0.00658397 0.0
-0.0141437 0.00997396 0.0
-0.0157195 0.0137361 0.0
-0.0171337 0.0178379 0.0
-0.0185438 0.0222639 0.0
-0.0200694 0.0270339 0.0
-0.0217988 0.0321844 0.0
-0.0238003 0.037766 0.0
-0.0261319 0.0438379 0.0
-0.0288516 0.0504658 0.0
-0.0320241 0.0577196 0.0
-0.0357274 0.0656712 0.0
-0.0400572 0.0743917 0.0
-0.0451271 0.0839453 0.0
-0.051062 0.0943795 0.0
-0.0579738 0.105705 0.0
-0.0659053 0.117864 0.0
-0.0747185 0.130667 0.0
-0.0838938 0.1437 0.0
-0.0921942 0.156154 0.0
-0.0971358 0.166658 0.0
-0.0940864 0.172818 0.0
-0.0747595 0.171411 0.0
-0.0239048 0.156876 0.0
0.0861731 0.12613 0.0
0.301286 0.0710134 0.0
0.697817 0.0194896 0.0
-0.00318248 0.000170716 0.0
-0.00831142 0.00136778 0.0
-0.0123049 0.00364738 0.0
-0.0153503 0.00646696 0.0
-0.0177043 0.0097777 0.0
-0.019632 0.0134399 0.0
-0.02137 0.0174233 0.0
-0.0231081 0.0217137 0.0
-0.0249887 0.0263305 0.0
-0.0271153 0.0313079 0.0
-0.0295658 0.0366914 0.0
-0.0324044 0.042533 0.0
-0.0356923 0.0488875 0.0
-0.0394949 0.0558098 0.0
-0.043887 0.0633516 0.0
-0.0489559 0.0715565 0.0
-0.0547976 0.0804527 0.0
-0.0615032 0.0900408 0.0
-0.0691236 0.100273 0.0
-0.0775943 0.111022 0.0
-0.086594 0.122019 0.0
-0.095302 0.13278 0.0
-0.10201 0.142447 0.0
-0.103541 0.149684 0.0
-0.0943469 0.152276 0.0
-0.0651105 0.147569 0.0
-6.89916e-05 0.130871 0.0
0.126264 0.101301 0.0
0.352264 0.0535577 0.0
0.734398 0.012463 0.0
-0.00390707 0.000160327 0.0
-0.0100602 0.00129654 0.0
-0.0147873 0.00346029 0.0
-0.0183594 0.0061302 0.0
-0.0211121 0.00925838 0.0
-0.0233678 0.0127111 0.0
-0.0254077 0.0164607 0.0
-0.0274524 0.0204943 0.0
-0.0296646 0.0248309 0.0
-0.0321611 0.0295015 0.0
-0.0350269 0.0345473 0.0
-0.0383297 0.0400126 0.0
-0.0421304 0.0459427 0.0
-0.0464905 0.0523795 0.0
-0.0514769 0.0593577 0.0
-0.0571617 0.0668991 0.0
-0.0636155 0.0750047 0.0
-0.0708879 0.0836418 0.0
-0.0789614 0.092724 0.0
-0.0876608 0.102081 0.0
-0.0964872 0.111405 0.0
-0.104343 0.120187 0.0
-0.10911 0.127581 0.0
-0.107036 0.132346 0.0
-0.0918891 0.1325 0.0
-0.0536843 0.125902 0.0
0.0231981 0.108783 0.0
0.161759 0.081603 0.0
0.394289 0.0408762 0.0
0.761266 0.00810224 0.0
-0.00458228 0.000146827 0.0
-0.0116934 0.00119282 0.0
-0.0171027 0.00318384 0.0
-0.0211612 0.00563633 0.0
-0.0242797 0.00850558 0.0
-0.0268355 0.0116681 0.0
-0.0291518 0.0150997 0.0
-0.0314779 0.0187897 0.0
-0.0339951 0.0227563 0.0
-0.0368309 0.0270284 0.0
-0.0400759 0.0316427 0.0
-0.0437989 0.0366378 0.0
-0.0480582 0.0420511 0.0
-0.0529087 0.0479148 0.0
-0.0584055 0.0542513 0.0
-0.0646019 0.0610678 0.0
-0.0715392 0.0683472 0.0
-0.0792217 0.0760364 0.0
-0.0875621 0.084027 0.0
-0.096277 0.0921278 0.0
-0.104702 0.100018 0.0
-0.111491 0.107192 0.0
-0.114171 0.112848 0.0
-0.108525 0.115854 0.0
-0.0878175 0.114489 0.0
-0.0417087 0.106999 0.0
0.0448758 0.0905731 0.0
0.192787 0.0660911 0.0
0.428888 0.0315944 0.0
0.781364 0.00537718 0.0
-0.00519408 0.000131361 0.0
-0.0131734 0.00106609 0.0
-0.0191979 0.00284255 0.0
-0.0236935 0.00502686 0.0
-0.0271391 0.00757943 0.0
-0.0299636 0.0103908 0.0
-0.0325286 0.0134412 0.0
-0.0351091 0.016723 0.0
-0.0379032 0.0202543 0.0
-0.0410474 0.0240622 0.0
-0.0446362 0.0281805 0.0
-0.0487381 0.0326434 0.0
-0.0534074 0.0374834 0.0
-0.058691 0.0427264 0.0
-0.0646303 0.0483881 0.0
-0.0712581 0.0544675 0.0
-0.078585 0.0609387 0.0
-0.0865692 0.0677393 0.0
-0.095055 0.0747524 0.0
-0.103656 0.0817813 0.0
-0.111556 0.0885077 0.0
-0.117187 0.0944445 0.0
-0.117775 0.0988451 0.0
-0.108731 0.100687 0.0
-0.0829598 0.0984873 0.0
-0.0299901 0.0908082 0.0
0.0646214 0.075574 0.0
0.219676 0.0538286 0.0
0.457388 0.0247196 0.0
0.796667 0.00365455 0.0
-0.00573243 0.000114271 0.0
-0.0144727 0.00092146 0.0
-0.0210338 0.00245099 0.0
-0.0259091 0.00432756 0.0
-0.0296391 0.00651819 0.0
-0.0326985 0.00893046 0.0
-0.0354831 0.0115501 0.0
-0.0382908 0.0143733 0.0
-0.0413339 0.0174189 0.0
-0.0447567 0.0207132 0.0
-0.0486567 0.0242878 0.0
-0.0531014 0.0281751 0.0
-0.0581408 0.0324048 0.0
-0.0638131 0.0370011 0.0
-0.0701463 0.0419776 0.0
-0.0771524 0.047332 0.0
-0.0848112 0.0530378 0.0
-0.0930362 0.0590328 0.0
-0.101605 0.0652023 0.0
-0.110036 0.0713548 0.0
-0.117369 0.0771836 0.0
-0.121839 0.0822259 0.0
-0.120415 0.0857885 0.0
-0.108209 0.0869443 0.0
-0.0778796 0.0844128 0.0
-0.0189674 0.0770017 0.0
0.0822816 0.063191 0.0
0.242822 0.0440807 0.0
0.480903 0.0195644 0.0
0.808509 0.00255051 0.0
-0.00618883 9.56193e-05 0.0
-0.0155691 0.000761734 0.0
-0.0225784 0.00201799 0.0
-0.0277702 0.00355468 0.0
-0.0317381 0.00534659 0.0
-0.0349966 0.00732066 0.0
-0.0379706 0.00946891 0.0
-0.0409778 0.0117925 0.0
-0.0442426 0.0143111 0.0
-0.0479159 0.0170512 0.0
-0.0520977 0.0200437 0.0
-0.0568548 0.0233207 0.0
-0.0622332 0.0269124 0.0
-0.0682636 0.0308445 0.0
-0.0749612 0.0351338 0.0
-0.0823185 0.0397829 0.0
-0.0902864 0.0447721 0.0
-0.098735 0.050048 0.0
-0.107379 0.0555067 0.0
-0.115641 0.0609695 0.0
-0.122431 0.0661465 0.0
-0.125802 0.0705989 0.0
-0.122496 0.0736787 0.0
-0.107388 0.074534 0.0
-0.0729726 0.0720467 0.0
-0.00889806 0.0652095 0.0
0.0978815 0.0529152 0.0
0.262659 0.0362676 0.0
0.50035 0.0156437 0.0
0.81781 0.00182999 0.0
-0.00655581 7.53794e-05 0.0
-0.0164438 0.000588667 0.0
-0.0238055 0.00154945 0.0
-0.0292455 0.00271943 0.0
-0.0334018 0.00408194 0.0
-0.0368216 0.00558508 0.0
-0.0399541 0.00722773 0.0
-0.0431327 0.00901636 0.0
-0.0465921 0.0109723 0.0
-0.0504889 0.0131224 0.0
-0.0549258 0.0154984 0.0
-0.0599698 0.0181334 0.0
-0.0656643 0.0210608 0.0
-0.0720342 0.0243112 0.0
-0.0790846 0.0279093 0.0
-0.0867907 0.0318685 0.0
-0.0950768 0.0361831 0.0
-0.103772 0.0408162 0.0
-0.112529 0.0456825 0.0
-0.120679 0.0506226 0.0
-0.127002 0.055366 0.0
-0.129381 0.059495 0.0
-0.124354 0.0623947 0.0
-0.106602 0.0632651 0.0
-0.0685222 0.0611108 0.0
6.98363e-05 0.0550503 0.0
0.111497 0.0443085 0.0
0.279586 0.029933 0.0
0.516466 0.0126121 0.0
0.825208 0.00134832 0.0
-0.00682655 5.35526e-05 0.0
-0.0170807 0.000403708 0.0
-0.0246928 0.00105014 0.0
-0.0303087 0.00183095 0.0
-0.0346012 0.00273837 0.0
-0.0381429 0.00374292 0.0
-0.0414012 0.00485057 0.0
-0.044722 0.00607335 0.0
-0.0483482 0.00743416 0.0
-0.0524415 0.00896097 0.0
-0.0571082 0.0106865 0.0
-0.0624167 0.0126466 0.0
-0.0684106 0.0148794 0.0
-0.0751118 0.017424 0.0
-0.0825185 0.0203171 0.0
-0.0905925 0.0235885 0.0
-0.0992347 0.0272533 0.0
-0.108236 0.0312989 0.0
-0.117187 0.0356669 0.0
-0.125329 0.0402235 0.0
-0.131308 0.0447197 0.0
-0.13284 0.0487553 0.0
-0.126271 0.0517351 0.0
-0.106121 0.0528874 0.0
-0.0647355 0.0512966 0.0
0.00783889 0.046174 0.0
0.123222 0.0369926 0.0
0.293951 0.0247104 0.0
0.529827 0.0102153 0.0
0.831148 0.0010145 0.0
-0.00699499 3.0199e-05 0.0
-0.0174661 0.000208377 0.0
-0.0252217 0.000524811 0.0
-0.0309378 0.000898062 0.0
-0.035312 0.00132937 0.0
-0.0389341 0.00181237 0.0
-0.042284 0.00235997 0.0
-0.0457161 0.00298955 0.0
-0.0494793 0.00372528 0.0
-0.0537408 0.00459596 0.0
-0.0586109 0.00563563 0.0
-0.0641622 0.00688342 0.0
-0.0704412 0.00838389 0.0
-0.0774713 0.0101866 0.0
-0.0852486 0.0123444 0.0
-0.0937266 0.0149087 0.0
-0.102787 0.0179223 0.0
-0.112187 0.0214052 0.0
-0.121456 0.0253347 0.0
-0.129736 0.0296099 0.0
-0.135539 0.0340075 0.0
-0.136405 0.0381428 0.0
-0.128492 0.0414285 0.0
-0.106176 0.0430999 0.0
-0.0617934 0.0422766 0.0
0.0143199 0.0382486 0.0
0.133148 0.030616 0.0
0.306039 0.0202884 0.0
0.540872 0.00825588 0.0
0.835935 0.000768838 0.0
-0.0070556 5.43215e-06 0.0
-0.0175883 4.46563e-06 0.0
-0.0253768 -2.12862e-05 0.0
-0.031115 -6.97124e-05 0.0
-0.0355144 -0.00013073 0.0
-0.0391733 -0.000187382 0.0
-0.0425777 -0.000220451 0.0
-0.0460867 -0.000207844 0.0
-0.0499537 -0.000124869 0.0
-0.0543509 5.73702e-05 0.0
-0.0593947 0.000373484 0.0
-0.0651641 0.000865709 0.0
-0.0717131 0.00158554 0.0
-0.079072 0.00259469 0.0
-0.0872408 0.00396461 0.0
-0.0961715 0.00577331 0.0
-0.105733 0.00809763 0.0
-0.11565 0.0109994 0.0
-0.125394 0.0145036 0.0
-0.134005 0.0185505 0.0
-0.139846 0.0229489 0.0
-0.14027 0.0273328 0.0
-0.131234 0.0311142 0.0
-0.10698 0.033518 0.0
-0.0598651 0.0336608 0.0
0.0194548 0.0308656 0.0
0.141333 0.0248121 0.0
0.316052 0.0163663 0.0
0.549908 0.00656221 0.0
0.839764 0.00056776 0.0
-0.00700444 -2.05151e-05 0.0
-0.0174393 -0.000205979 0.0
-0.0251475 -0.000582327 0.0
-0.0308281 -0.00106157 0.0
-0.0351942 -0.00162529 0.0
-0.0388441 -0.00223379 0.0
-0.0422632 -0.00286265 0.0
-0.0458112 -0.00348636 0.0
-0.0497439 -0.00408108 0.0
-0.0542384 -0.0046193 0.0
-0.0594182 -0.00506729 0.0
-0.065373 -0.00538096 0.0
-0.0721685 -0.00550269 0.0
-0.0798484 -0.00535857 0.0
-0.0884251 -0.00485666 0.0
-0.0978578 -0.00388826 0.0
-0.108012 -0.00233462 0.0
-0.118594 -8.25769e-05 0.0
-0.129013 0.00294565 0.0
-0.138189 0.00674357 0.0
-0.144329 0.0111713 0.0
-0.14458 0.0158915 0.0
-0.134685 0.0203118 0.0
-0.108736 0.0236344 0.0
-0.0591227 0.0249414 0.0
0.0231398 0.0235445 0.0
0.147767 0.019167 0.0
0.32409 0.0126248 0.0
0.557105 0.00496592 0.0
0.842735 0.000374604 0.0
-0.00683802 -4.735e-05 0.0
-0.017013 -0.000420349 0.0
-0.0245272 -0.001151 0.0
-0.0300697 -0.00206418 0.0
-0.034343 -0.0031341 0.0
-0.0379354 -0.00429958 0.0
-0.041325 -0.00553266 0.0
-0.0448679 -0.00680621 0.0
-0.0488205 -0.00809934 0.0
-0.0533643 -0.00938806 0.0
-0.0586325 -0.0106417 0.0
-0.064728 -0.0118169 0.0
-0.0717346 -0.0128524 0.0
-0.0797169 -0.013664 0.0
-0.0887098 -0.0141399 0.0
-0.0986921 -0.0141393 0.0
-0.109537 -0.0134968 0.0
-0.120929 -0.0120401 0.0
-0.132221 -0.00962597 0.0
-0.142235 -0.00618418 0.0
-0.149005 -0.00179283 0.0
-0.149425 0.00325627 0.0
-0.13898 0.00837608 0.0
-0.111614 0.0127664 0.0
-0.0597572 0.0154433 0.0
0.0252083 0.0156624 0.0
0.152337 0.0131531 0.0
0.33011 0.0086753 0.0
0.562471 0.00327485 0.0
0.844842 0.000151945 0.0
-0.00655501 -7.47154e-05 0.0
-0.0163083 -0.000635101 0.0
-0.0235155 -0.00171765 0.0
-0.0288403 -0.00306067 0.0
-0.0329604 -0.00463213 0.0
-0.0364446 -0.00635126 0.0
-0.0397564 -0.00818845 0.0
-0.0432439 -0.0101171 0.0
-0.0471615 -0.0121218 0.0
-0.0516952 -0.0141849 0.0
-0.0569885 -0.0162825 0.0
-0.0631613 -0.0183759 0.0
-0.0703203 -0.0204053 0.0
-0.0785599 -0.022281 0.0
-0.0879489 -0.023876 0.0
-0.0985005 -0.0250203 0.0
-0.110113 -0.0255017 0.0
-0.122467 -0.0250804 0.0
-0.134871 -0.0235251 0.0
-0.146029 -0.0206707 0.0
-0.153776 -0.0165092 0.0
-0.154762 -0.0112768 0.0
-0.144218 -0.00550993 0.0
-0.115832 -1.79741e-05 0.0
-0.0619909 0.00420286 0.0
0.0254383 0.00635157 0.0
0.154814 0.00605969 0.0
0.333885 0.00400857 0.0
0.565814 0.00124448 0.0
0.845976 -0.000145665 0.0
-0.00615596 -0.000102085 0.0
-0.0153291 -0.000845655 0.0
-0.0221195 -0.00227007 0.0
-0.0271484 -0.00402972 0.0
-0.031055 -0.00608773 0.0
-0.034378 -0.00834617 0.0
-0.0375593 -0.0107759 0.0
-0.0409341 -0.0133533 0.0
-0.0447523 -0.0160711 0.0
-0.049203 -0.0189217 0.0
-0.0544405 -0.0218923 0.0
-0.0606038 -0.0249551 0.0
-0.0678277 -0.0280586 0.0
-0.0762438 -0.0311164 0.0
-0.0859676 -0.0339955 0.0
-0.0970632 -0.0365054 0.0
-0.109474 -0.0383929 0.0
-0.122905 -0.0393512 0.0
-0.136633 -0.039053 0.0
-0.14926 -0.0372144 0.0
-0.15841 -0.0336945 0.0
-0.16044 -0.0286062 0.0
-0.150257 -0.0224018 0.0
-0.121353 -0.0158582 0.0
-0.06613 -0.00995349 0.0
0.0233485 -0.0055251 0.0
0.154691 -0.00310455 0.0
0.334934 -0.00207222 0.0
0.566681 -0.00141442 0.0
0.845842 -0.000553222 0.0
-0.00564421 -0.000128785 0.0
-0.014086 -0.00104611 0.0
-0.0203551 -0.00279255 0.0
-0.0250137 -0.00494399 0.0
-0.0286474 -0.00746032 0.0
-0.0317551 -0.0102294 0.0
-0.0347496 -0.0132245 0.0
-0.0379482 -0.0164276 0.0
-0.0415927 -0.0198422 0.0
-0.0458734 -0.0234745 0.0
-0.0509542 -0.0273281 0.0
-0.0569937 -0.0313935 0.0
-0.0641573 -0.0356371 0.0
-0.0726206 -0.0399884 0.0
-0.0825568 -0.0443237 0.0
-0.0940994 -0.0484488 0.0
-0.107263 -0.0520862 0.0
-0.121804 -0.0548741 0.0
-0.137006 -0.0563919 0.0
-0.151392 -0.0562211 0.0
-0.162395 -0.0540464 0.0
-0.166072 -0.0497777 0.0
-0.156976 -0.0436581 0.0
-0.128289 -0.0362848 0.0
-0.0723138 -0.0285786 0.0
0.0186242 -0.0213762 0.0
0.151331 -0.0154613 0.0
0.332287 -0.0103417 0.0
0.564116 -0.00506898 0.0
0.844002 -0.00113957 0.0
-0.00502672 -0.000153879 0.0
-0.0125985 -0.00122855 0.0
-0.0182507 -0.00326435 0.0
-0.02247 -0.00576765 0.0
-0.025774 -0.00869684 0.0
-0.0286124 -0.011929 0.0
-0.0313618 -0.0154416 0.0
-0.0343163 -0.019224 0.0
-0.0377054 -0.0232928 0.0
-0.0417166 -0.0276715 0.0
-0.046521 -0.0323857 0.0
-0.0522939 -0.0374513 0.0
-0.0592312 -0.0428649 0.0
-0.0675548 -0.0485878 0.0
-0.0775037 -0.0545272 0.0
-0.0892963 -0.0605121 0.0
-0.103044 -0.0662706 0.0
-0.118594 -0.0714158 0.0
-0.135284 -0.0754547 0.0
-0.151609 -0.0778344 0.0
-0.164865 -0.0780298 0.0
-0.170851 -0.0756619 0.0
-0.163773 -0.0706144 0.0
-0.136462 -0.0630969 0.0
-0.0810018 -0.0537201 0.0
0.0103386 -0.0431296 0.0
0.14361 -0.032522 0.0
0.324754 -0.0218724 0.0
0.557002 -0.010281 0.0
0.839775 -0.00203674 0.0
-0.00431516 -0.000176004 0.0
-0.0108974 -0.00138212 0.0
-0.0158499 -0.00365747 0.0
-0.0195689 -0.00645297 0.0
-0.0224911 -0.0097272 0.0
-0.0250087 -0.0133503 0.0
-0.0274553 -0.0173047 0.0
-0.0300968 -0.0215883 0.0
-0.0331451 -0.0262321 0.0
-0.0367801 -0.0312791 0.0
-0.0411739 -0.0367806 0.0
-0.0465135 -0.0427859 0.0
-0.0530191 -0.0493329 0.0
-0.0609556 -0.0564334 0.0
-0.0706286 -0.0640519 0.0
-0.0823503 -0.0720777 0.0
-0.0963517 -0.0802908 0.0
-0.112611 -0.088331 0.0
-0.130581 -0.0956816 0.0
-0.148814 -0.101684 0.0
-0.164574 -0.105591 0.0
-0.173508 -0.106655 0.0
-0.169563 -0.104228 0.0
-0.14523 -0.0978716 0.0
-0.0922344 -0.0874867 0.0
-0.00247759 -0.0733625 0.0
0.12994 -0.0565401 0.0
0.310409 -0.0383953 0.0
0.543426 -0.0179722 0.0
0.83201 -0.00346195 0.0
-0.00352857 -0.000192923 0.0
-0.00903015 -0.00149142 0.0
-0.0132181 -0.0039338 0.0
-0.0163871 -0.00693619 0.0
-0.0188828 -0.0104589 0.0
-0.0210338 -0.0143689 0.0
-0.0231253 -0.0186535 0.0
-0.0253896 -0.0233187 0.0
-0.0280156 -0.028409 0.0
-0.031169 -0.0339873 0.0
-0.0350151 -0.040132 0.0
-0.0397424 -0.0469301 0.0
-0.0455842 -0.0544704 0.0
-0.0528356 -0.0628316 0.0
-0.0618582 -0.0720641 0.0
-0.0730546 -0.0821604 0.0
-0.0867859 -0.093014 0.0
-0.103197 -0.104368 0.0
-0.121924 -0.115768 0.0
-0.141695 -0.126523 0.0
-0.159898 -0.135698 0.0
-0.172227 -0.142138 0.0
-0.172574 -0.144515 0.0
-0.153222 -0.141447 0.0
-0.105454 -0.131654 0.0
-0.0204141 -0.114549 0.0
0.108585 -0.0903361 0.0
0.286819 -0.0623223 0.0
0.520748 -0.0296469 0.0
0.818949 -0.00583837 0.0
-0.0026947 -0.000201262 0.0
-0.00706312 -0.00153553 0.0
-0.0104452 -0.00404342 0.0
-0.0130289 -0.00713543 0.0
-0.0150637 -0.0107741 0.0
-0.0168115 -0.0148274 0.0
-0.0185057 -0.0192854 0.0
-0.0203403 -0.0241601 0.0
-0.0224758 -0.0295065 0.0
-0.0250561 -0.0354039 0.0
-0.0282298 -0.0419558 0.0
-0.0321735 -0.0492857 0.0
-0.0371154 -0.0575357 0.0
-0.0433586 -0.0668614 0.0
-0.0512946 -0.0774207 0.0
-0.0613926 -0.0893501 0.0
-0.0741322 -0.102723 0.0
-0.0898413 -0.117485 0.0
-0.108407 -0.133365 0.0
-0.128865 -0.149775 0.0
-0.148944 -0.165708 0.0
-0.164683 -0.179656 0.0
-0.170262 -0.189555 0.0
-0.158088 -0.192857 0.0
-0.119153 -0.186639 0.0
-0.0435907 -0.168688 0.0
0.0774684 -0.137158 0.0
0.250452 -0.0971122 0.0
0.484722 -0.0480021 0.0
0.797307 -0.0101188 0.0
-0.00185843 -0.00019519 0.0
-0.0050949 -0.00148597 0.0
-0.00766123 -0.00392361 0.0
-0.00964417 -0.00695062 0.0
-0.0111995 -0.0105311 0.0
-0.0125239 -0.0145367 0.0
-0.0137973 -0.018957 0.0
-0.0151726 -0.0238061 0.0
-0.0167768 -0.0291438 0.0
-0.0187253 -0.0350591 0.0
-0.0211399 -0.0416725 0.0
-0.0241701 -0.0491353 0.0
-0.0280174 -0.0576346 0.0
-0.0329612 -0.0673973 0.0
-0.0393818 -0.0786922 0.0
-0.0477662 -0.0918208 0.0
-0.0586666 -0.107088 0.0
-0.0725719 -0.124738 0.0
-0.0896519 -0.144834 0.0
-0.109372 -0.167095 0.0
-0.13004 -0.190672 0.0
-0.1484 -0.213924 0.0
-0.159386 -0.234214 0.0
-0.156055 -0.247834 0.0
-0.129585 -0.250009 0.0
-0.0693104 -0.236105 0.0
0.0373123 -0.200491 0.0
0.199467 -0.147566 0.0
0.431254 -0.0777513 0.0
0.762417 -0.0183275 0.0
-0.00107516 -0.00016807 0.0
-0.00324171 -0.00131341 0.0
-0.005016 -0.00351157 0.0
-0.00640265 -0.00628094 0.0
-0.00747731 -0.00958396 0.0
-0.00837706 -0.0132986 0.0
-0.00922958 -0.0174097 0.0
-0.010145 -0.0219285 0.0
-0.0112136 -0.0269122 0.0
-0.012517 -0.0324497 0.0
-0.014142 -0.0386646 0.0
-0.0161979 -0.0457186 0.0