# vtk DataFile Version 3.0
Malha 2D com triângulos e temperatura
ASCII
DATASET UNSTRUCTURED_GRID

POINTS 961 double
0 0 0
1 0 0
1 1 0
0 1 0
0.0333333 0 0
0.0666667 0 0
0.1 0 0
0.133333 0 0
0.166667 0 0
0.2 0 0
0.233333 0 0
0.266667 0 0
0.3 0 0
0.333333 0 0
0.366667 0 0
0.4 0 0
0.433333 0 0
0.466667 0 0
0.5 0 0
0.533333 0 0
0.566667 0 0
0.6 0 0
0.633333 0 0
0.666667 0 0
0.7 0 0
0.733333 0 0
0.766667 0 0
0.8 0 0
0.833333 0 0
0.866667 0 0
0.9 0 0
0.933333 0 0
0.966667 0 0
1 0.0333333 0
1 0.0666667 0
1 0.1 0
1 0.133333 0
1 0.166667 0
1 0.2 0
1 0.233333 0
1 0.266667 0
1 0.3 0
1 0.333333 0
1 0.366667 0
1 0.4 0
1 0.433333 0
1 0.466667 0
1 0.5 0
1 0.533333 0
1 0.566667 0
1 0.6 0
1 0.633333 0
1 0.666667 0
1 0.7 0
1 0.733333 0
1 0.766667 0
1 0.8 0
1 0.833333 0
1 0.866667 0
1 0.9 0
1 0.933333 0
1 0.966667 0
0.966667 1 0
0.933333 1 0
0.9 1 0
0.866667 1 0
0.833333 1 0
0.8 1 0
0.766667 1 0
0.733333 1 0
0.7 1 0
0.666667 1 0
0.633333 1 0
0.6 1 0
0.566667 1 0
0.533333 1 0
0.5 1 0
0.466667 1 0
0.433333 1 0
0.4 1 0
0.366667 1 0
0.333333 1 0
0.3 1 0
0.266667 1 0
0.233333 1 0
0.2 1 0
0.166667 1 0
0.133333 1 0
0.1 1 0
0.0666667 1 0
0.0333333 1 0
0 0.966667 0
0 0.933333 0
0 0.9 0
0 0.866667 0
0 0.833333 0
0 0.8 0
0 0.766667 0
0 0.733333 0
0 0.7 0
0 0.666667 0
0 0.633333 0
0 0.6 0
0 0.566667 0
0 0.533333 0
0 0.5 0
0 0.466667 0
0 0.433333 0
0 0.4 0
0 0.366667 0
0 0.333333 0
0 0.3 0
0 0.266667 0
0 0.233333 0
0 0.2 0
0 0.166667 0
0 0.133333 0
0 0.1 0
0 0.0666667 0
0 0.0333333 0
0.0333333 0.0333333 0
0.0333333 0.0666667 0
0.0333333 0.1 0
0.0333333 0.133333 0
0.0333333 0.166667 0
0.0333333 0.2 0
0.0333333 0.233333 0
0.0333333 0.266667 0
0.0333333 0.3 0
0.0333333 0.333333 0
0.0333333 0.366667 0
0.0333333 0.4 0
0.0333333 0.433333 0
0.0333333 0.466667 0
0.0333333 0.5 0
0.0333333 0.533333 0
0.0333333 0.566667 0
0.0333333 0.6 0
0.0333333 0.633333 0
0.0333333 0.666667 0
0.0333333 0.7 0
0.0333333 0.733333 0
0.0333333 0.766667 0
0.0333333 0.8 0
0.0333333 0.833333 0
0.0333333 0.866667 0
0.0333333 0.9 0
0.0333333 0.933333 0
0.0333333 0.966667 0
0.0666667 0.0333333 0
0.0666667 0.0666667 0
0.0666667 0.1 0
0.0666667 0.133333 0
0.0666667 0.166667 0
0.0666667 0.2 0
0.0666667 0.233333 0
0.0666667 0.266667 0
0.0666667 0.3 0
0.0666667 0.333333 0
0.0666667 0.366667 0
0.0666667 0.4 0
0.0666667 0.433333 0
0.0666667 0.466667 0
0.0666667 0.5 0
0.0666667 0.533333 0
0.0666667 0.566667 0
0.0666667 0.6 0
0.0666667 0.633333 0
0.0666667 0.666667 0
0.0666667 0.7 0
0.0666667 0.733333 0
0.0666667 0.766667 0
0.0666667 0.8 0
0.0666667 0.833333 0
0.0666667 0.866667 0
0.0666667 0.9 0
0.0666667 0.933333 0
0.0666667 0.966667 0
0.1 0.0333333 0
0.1 0.0666667 0
0.1 0.1 0
0.1 0.133333 0
0.1 0.166667 0
0.1 0.2 0
0.1 0.233333 0
0.1 0.266667 0
0.1 0.3 0
0.1 0.333333 0
0.1 0.366667 0
0.1 0.4 0
0.1 0.433333 0
0.1 0.466667 0
0.1 0.5 0
0.1 0.533333 0
0.1 0.566667 0
0.1 0.6 0
0.1 0.633333 0
0.1 0.666667 0
0.1 0.7 0
0.1 0.733333 0
0.1 0.766667 0
0.1 0.8 0
0.1 0.833333 0
0.1 0.866667 0
0.1 0.9 0
0.1 0.933333 0
0.1 0.966667 0
0.133333 0.0333333 0
0.133333 0.0666667 0
0.133333 0.1 0
0.133333 0.133333 0
0.133333 0.166667 0
0.133333 0.2 0
0.133333 0.233333 0
0.133333 0.266667 0
0.133333 0.3 0
0.133333 0.333333 0
0.133333 0.366667 0
0.133333 0.4 0
0.133333 0.433333 0
0.133333 0.466667 0
0.133333 0.5 0
0.133333 0.533333 0
0.133333 0.566667 0
0.133333 0.6 0
0.133333 0.633333 0
0.133333 0.666667 0
0.133333 0.7 0
0.133333 0.733333 0
0.133333 0.766667 0
0.133333 0.8 0
0.133333 0.833333 0
0.133333 0.866667 0
0.133333 0.9 0
0.133333 0.933333 0
0.133333 0.966667 0
0.166667 0.0333333 0
0.166667 0.0666667 0
0.166667 0.1 0
0.166667 0.133333 0
0.166667 0.166667 0
0.166667 0.2 0
0.166667 0.233333 0
0.166667 0.266667 0
0.166667 0.3 0
0.166667 0.333333 0
0.166667 0.366667 0
0.166667 0.4 0
0.166667 0.433333 0
0.166667 0.466667 0
0.166667 0.5 0
0.166667 0.533333 0
0.166667 0.566667 0
0.166667 0.6 0
0.166667 0.633333 0
0.166667 0.666667 0
0.166667 0.7 0
0.166667 0.733333 0
0.166667 0.766667 0
0.166667 0.8 0
0.166667 0.833333 0
0.166667 0.866667 0
0.166667 0.9 0
0.166667 0.933333 0
0.166667 0.966667 0
0.2 0.0333333 0
0.2 0.0666667 0
0.2 0.1 0
0.2 0.133333 0
0.2 0.166667 0
0.2 0.2 0
0.2 0.233333 0
0.2 0.266667 0
0.2 0.3 0
0.2 0.333333 0
0.2 0.366667 0
0.2 0.4 0
0.2 0.433333 0
0.2 0.466667 0
0.2 0.5 0
0.2 0.533333 0
0.2 0.566667 0
0.2 0.6 0
0.2 0.633333 0
0.2 0.666667 0
0.2 0.7 0
0.2 0.733333 0
0.2 0.766667 0
0.2 0.8 0
0.2 0.833333 0
0.2 0.866667 0
0.2 0.9 0
0.2 0.933333 0
0.2 0.966667 0
0.233333 0.0333333 0
0.233333 0.0666667 0
0.233333 0.1 0
0.233333 0.133333 0
0.233333 0.166667 0
0.233333 0.2 0
0.233333 0.233333 0
0.233333 0.266667 0
0.233333 0.3 0
0.233333 0.333333 0
0.233333 0.366667 0
0.233333 0.4 0
0.233333 0.433333 0
0.233333 0.466667 0
0.233333 0.5 0
0.233333 0.533333 0
0.233333 0.566667 0
0.233333 0.6 0
0.233333 0.633333 0
0.233333 0.666667 0
0.233333 0.7 0
0.233333 0.733333 0
0.233333 0.766667 0
0.233333 0.8 0
0.233333 0.833333 0
0.233333 0.866667 0
0.233333 0.9 0
0.233333 0.933333 0
0.233333 0.966667 0
0.266667 0.0333333 0
0.266667 0.0666667 0
0.266667 0.1 0
0.266667 0.133333 0
0.266667 0.166667 0
0.266667 0.2 0
0.266667 0.233333 0
0.266667 0.266667 0
0.266667 0.3 0
0.266667 0.333333 0
0.266667 0.366667 0
0.266667 0.4 0
0.266667 0.433333 0
0.266667 0.466667 0
0.266667 0.5 0
0.266667 0.533333 0
0.266667 0.566667 0
0.266667 0.6 0
0.266667 0.633333 0
0.266667 0.666667 0
0.266667 0.7 0
0.266667 0.733333 0
0.266667 0.766667 0
0.266667 0.8 0
0.266667 0.833333 0
0.266667 0.866667 0
0.266667 0.9 0
0.266667 0.933333 0
0.266667 0.966667 0
0.3 0.0333333 0
0.3 0.0666667 0
0.3 0.1 0
0.3 0.133333 0
0.3 0.166667 0
0.3 0.2 0
0.3 0.233333 0
0.3 0.266667 0
0.3 0.3 0
0.3 0.333333 0
0.3 0.366667 0
0.3 0.4 0
0.3 0.433333 0
0.3 0.466667 0
0.3 0.5 0
0.3 0.533333 0
0.3 0.566667 0
0.3 0.6 0
0.3 0.633333 0
0.3 0.666667 0
0.3 0.7 0
0.3 0.733333 0
0.3 0.766667 0
0.3 0.8 0
0.3 0.833333 0
0.3 0.866667 0
0.3 0.9 0
0.3 0.933333 0
0.3 0.966667 0
0.333333 0.0333333 0
0.333333 0.0666667 0
0.333333 0.1 0
0.333333 0.133333 0
0.333333 0.166667 0
0.333333 0.2 0
0.333333 0.233333 0
0.333333 0.266667 0
0.333333 0.3 0
0.333333 0.333333 0
0.333333 0.366667 0
0.333333 0.4 0
0.333333 0.433333 0
0.333333 0.466667 0
0.333333 0.5 0
0.333333 0.533333 0
0.333333 0.566667 0
0.333333 0.6 0
0.333333 0.633333 0
0.333333 0.666667 0
0.333333 0.7 0
0.333333 0.733333 0
0.333333 0.766667 0
0.333333 0.8 0
0.333333 0.833333 0
0.333333 0.866667 0
0.333333 0.9 0
0.333333 0.933333 0
0.333333 0.966667 0
0.366667 0.0333333 0
0.366667 0.0666667 0
0.366667 0.1 0
0.366667 0.133333 0
0.366667 0.166667 0
0.366667 0.2 0
0.366667 0.233333 0
0.366667 0.266667 0
0.366667 0.3 0
0.366667 0.333333 0
0.366667 0.366667 0
0.366667 0.4 0
0.366667 0.433333 0
0.366667 0.466667 0
0.366667 0.5 0
0.366667 0.533333 0
0.366667 0.566667 0
0.366667 0.6 0
0.366667 0.633333 0
0.366667 0.666667 0
0.366667 0.7 0
0.366667 0.733333 0
0.366667 0.766667 0
0.366667 0.8 0
0.366667 0.833333 0
0.366667 0.866667 0
0.366667 0.9 0
0.366667 0.933333 0
0.366667 0.966667 0
0.4 0.0333333 0
0.4 0.0666667 0
0.4 0.1 0
0.4 0.133333 0
0.4 0.166667 0
0.4 0.2 0
0.4 0.233333 0
0.4 0.266667 0
0.4 0.3 0
0.4 0.333333 0
0.4 0.366667 0
0.4 0.4 0
0.4 0.433333 0
0.4 0.466667 0
0.4 0.5 0
0.4 0.533333 0
0.4 0.566667 0
0.4 0.6 0
0.4 0.633333 0
0.4 0.666667 0
0.4 0.7 0
0.4 0.733333 0
0.4 0.766667 0
0.4 0.8 0
0.4 0.833333 0
0.4 0.866667 0
0.4 0.9 0
0.4 0.933333 0
0.4 0.966667 0
0.433333 0.0333333 0
0.433333 0.0666667 0
0.433333 0.1 0
0.433333 0.133333 0
0.433333 0.166667 0
0.433333 0.2 0
0.433333 0.233333 0
0.433333 0.266667 0
0.433333 0.3 0
0.433333 0.333333 0
0.433333 0.366667 0
0.433333 0.4 0
0.433333 0.433333 0
0.433333 0.466667 0
0.433333 0.5 0
0.433333 0.533333 0
0.433333 0.566667 0
0.433333 0.6 0
0.433333 0.633333 0
0.433333 0.666667 0
0.433333 0.7 0
0.433333 0.733333 0
0.433333 0.766667 0
0.433333 0.8 0
0.433333 0.833333 0
0.433333 0.866667 0
0.433333 0.9 0
0.433333 0.933333 0
0.433333 0.966667 0
0.466667 0.0333333 0
0.466667 0.0666667 0
0.466667 0.1 0
0.466667 0.133333 0
0.466667 0.166667 0
0.466667 0.2 0
0.466667 0.233333 0
0.466667 0.266667 0
0.466667 0.3 0
0.466667 0.333333 0
0.466667 0.366667 0
0.466667 0.4 0
0.466667 0.433333 0
0.466667 0.466667 0
0.466667 0.5 0
0.466667 0.533333 0
0.466667 0.566667 0
0.466667 0.6 0
0.466667 0.633333 0
0.466667 0.666667 0
0.466667 0.7 0
0.466667 0.733333 0
0.466667 0.766667 0
0.466667 0.8 0
0.466667 0.833333 0
0.466667 0.866667 0
0.466667 0.9 0
0.466667 0.933333 0
0.466667 0.966667 0
0.5 0.0333333 0
0.5 0.0666667 0
0.5 0.1 0
0.5 0.133333 0
0.5 0.166667 0
0.5 0.2 0
0.5 0.233333 0
0.5 0.266667 0
0.5 0.3 0
0.5 0.333333 0
0.5 0.366667 0
0.5 0.4 0
0.5 0.433333 0
0.5 0.466667 0
0.5 0.5 0
0.5 0.533333 0
0.5 0.566667 0
0.5 0.6 0
0.5 0.633333 0
0.5 0.666667 0
0.5 0.7 0
0.5 0.733333 0
0.5 0.766667 0
0.5 0.8 0
0.5 0.833333 0
0.5 0.866667 0
0.5 0.9 0
0.5 0.933333 0
0.5 0.966667 0
0.533333 0.0333333 0
0.533333 0.0666667 0
0.533333 0.1 0
0.533333 0.133333 0
0.533333 0.166667 0
0.533333 0.2 0
0.533333 0.233333 0
0.533333 0.266667 0
0.533333 0.3 0
0.533333 0.333333 0
0.533333 0.366667 0
0.533333 0.4 0
0.533333 0.433333 0
0.533333 0.466667 0
0.533333 0.5 0
0.533333 0.533333 0
0.533333 0.566667 0
0.533333 0.6 0
0.533333 0.633333 0
0.533333 0.666667 0
0.533333 0.7 0
0.533333 0.733333 0
0.533333 0.766667 0
0.533333 0.8 0
0.533333 0.833333 0
0.533333 0.866667 0
0.533333 0.9 0
0.533333 0.933333 0
0.533333 0.966667 0
0.566667 0.0333333 0
0.566667 0.0666667 0
0.566667 0.1 0
0.566667 0.133333 0
0.566667 0.166667 0
0.566667 0.2 0
0.566667 0.233333 0
0.566667 0.266667 0
0.566667 0.3 0
0.566667 0.333333 0
0.566667 0.366667 0
0.566667 0.4 0
0.566667 0.433333 0
0.566667 0.466667 0
0.566667 0.5 0
0.566667 0.533333 0
0.566667 0.566667 0
0.566667 0.6 0
0.566667 0.633333 0
0.566667 0.666667 0
0.566667 0.7 0
0.566667 0.733333 0
0.566667 0.766667 0
0.566667 0.8 0
0.566667 0.833333 0
0.566667 0.866667 0
0.566667 0.9 0
0.566667 0.933333 0
0.566667 0.966667 0
0.6 0.0333333 0
0.6 0.0666667 0
0.6 0.1 0
0.6 0.133333 0
[...]
CELL_DATA 900
VECTORS velocity double
6.50163e-05 -6.39327e-05 0.0
-2.13667e-05 2.15529e-05 0.0
-9.72874e-05 0.000418447 0.0
-0.000152341 0.00101897 0.0
-0.000183558 0.00178073 0.0
-0.000202688 0.0026444 0.0
-0.00021652 0.00358995 0.0
-0.000230182 0.00460817 0.0
-0.000246269 0.00570461 0.0
-0.000266272 0.00689147 0.0
-0.000291056 0.00818659 0.0
-0.00032138 0.00961184 0.0
-0.000358176 0.0111936 0.0
-0.00040282 0.0129636 0.0
-0.00045745 0.0149616 0.0
-0.000525515 0.0172385 0.0
-0.00061274 0.0198619 0.0
-0.00072891 0.0229251 0.0
-0.000891159 0.02656 0.0
-0.00113024 0.0309587 0.0
-0.00150259 0.0364051 0.0
-0.00211528 0.0433263 0.0
-0.0031756 0.0523796 0.0
-0.0050941 0.0645842 0.0
-0.00864161 0.0816461 0.0
-0.0151621 0.10601 0.0
-0.025788 0.142643 0.0
-0.0380752 0.190055 0.0
-0.0133294 0.262928 0.0
0.216922 0.174093 0.0
-2.34443e-05 2.51893e-05 0.0
-0.000507365 0.000508865 0.0
-0.000935877 0.00160877 0.0
-0.00127092 0.00310559 0.0
-0.0015064 0.00494696 0.0
-0.00168155 0.0070332 0.0
-0.00182824 0.00932811 0.0
-0.00197282 0.0118146 0.0
-0.00213279 0.0145039 0.0
-0.00232026 0.0174223 0.0
-0.00254417 0.0206096 0.0
-0.00281284 0.0241158 0.0
-0.00313576 0.0280022 0.0
-0.00352549 0.0323426 0.0
-0.00399981 0.0372286 0.0
-0.00458463 0.0427754 0.0
-0.00531833 0.0491314 0.0
-0.00625808 0.0564918 0.0
-0.00748886 0.0651153 0.0
-0.00913613 0.0753436 0.0
-0.011383 0.0876191 0.0
-0.0144961 0.102489 0.0
-0.0188591 0.12057 0.0
-0.0250324 0.142417 0.0
-0.0337302 0.168232 0.0
-0.0456707 0.196933 0.0
-0.0592364 0.224966 0.0
-0.0652704 0.240358 0.0
-0.0026721 0.218803 0.0
0.305482 0.116568 0.0
-0.000422459 0.000100203 0.0
-0.00160347 0.000916277 0.0
-0.00261858 0.00256748 0.0
-0.00341848 0.00471085 0.0
-0.00401319 0.00729557 0.0
-0.00447672 0.0102021 0.0
-0.00487827 0.0133916 0.0
-0.00527622 0.0168461 0.0
-0.00571258 0.0205818 0.0
-0.00621766 0.0246336 0.0
-0.00681487 0.0290528 0.0
-0.00752578 0.0339037 0.0
-0.00837444 0.0392637 0.0
-0.00939151 0.045225 0.0
-0.0106188 0.0518984 0.0
-0.0121147 0.0594188 0.0
-0.0139619 0.0679527 0.0
-0.0162757 0.0777067 0.0
-0.0192136 0.0889347 0.0
-0.0229821 0.10194 0.0
-0.027833 0.11706 0.0
-0.034039 0.134614 0.0
-0.0418207 0.154768 0.0
-0.0511922 0.177287 0.0
-0.0615067 0.200977 0.0
-0.0704735 0.222904 0.0
-0.0703271 0.236123 0.0
-0.0396005 0.229724 0.0
0.0919251 0.173468 0.0
0.476704 0.077131 0.0
-0.0010064 0.000150327 0.0
-0.00304734 0.00119782 0.0
-0.00473204 0.0032224 0.0
-0.0060432 0.00577848 0.0
-0.00703583 0.00881832 0.0
-0.0078262 0.0122119 0.0
-0.00852383 0.0159237 0.0
-0.00921997 0.0199376 0.0
-0.00998186 0.0242735 0.0
-0.0108586 0.02897 0.0
-0.0118884 0.0340826 0.0
-0.013106 0.0396794 0.0
-0.014549 0.0458406 0.0
-0.016264 0.0526592 0.0
-0.018312 0.060243 0.0
-0.0207757 0.0687175 0.0
-0.0237661 0.0782283 0.0
-0.0274299 0.0889423 0.0
-0.0319513 0.101043 0.0
-0.0375421 0.114713 0.0
-0.0444033 0.130093 0.0
-0.0526367 0.147188 0.0
-0.0620614 0.165691 0.0
-0.0718828 0.184704 0.0
-0.0799835 0.202141 0.0
-0.0815373 0.214284 0.0
-0.0650838 0.213773 0.0
-0.0035752 0.192123 0.0
0.167223 0.128447 0.0
0.575518 0.0491562 0.0
-0.00171349 0.00017144 0.0
-0.0047396 0.00133969 0.0
-0.00715734 0.00356443 0.0
-0.00901258 0.00633233 0.0
-0.0104265 0.00959518 0.0
-0.0115656 0.0132163 0.0
-0.0125832 0.0171634 0.0
-0.0136041 0.0214226 0.0
-0.0147206 0.0260157 0.0
-0.0160001 0.0309817 0.0
-0.0174948 0.0363754 0.0
-0.0192509 0.0422617 0.0
-0.0213173 0.0487153 0.0
-0.0237521 0.0558193 0.0
-0.0266291 0.0636658 0.0
-0.0300444 0.0723551 0.0
-0.0341215 0.0819942 0.0
-0.0390129 0.0926917 0.0
-0.0448919 0.104544 0.0
-0.0519209 0.117609 0.0
-0.0601749 0.131849 0.0
-0.0694881 0.147036 0.0
-0.0791696 0.162562 0.0
-0.0875275 0.177209 0.0
-0.0909921 0.188605 0.0
-0.082558 0.193085 0.0
-0.0480903 0.184082 0.0
0.0412488 0.155605 0.0
0.239602 0.0945977 0.0
0.64708 0.0307474 0.0
-0.0024616 0.000175704 0.0
-0.00652486 0.00138042 0.0
-0.00969305 0.00366419 0.0
-0.0120918 0.00648389 0.0
-0.0139209 0.00978986 0.0
-0.0154031 0.0134429 0.0
-0.0167372 0.0174133 0.0
-0.0180809 0.0216888 0.0
-0.0195501 0.0262912 0.0
-0.0212285 0.0312584 0.0
-0.0231796 0.0366409 0.0
-0.0254584 0.0424975 0.0
-0.0281207 0.048893 0.0
-0.0312305 0.0558963 0.0
-0.0348661 0.0635787 0.0
-0.0391254 0.0720113 0.0
-0.0441278 0.08126 0.0
-0.0500099 0.0913762 0.0
-0.0569054 0.102379 0.0
-0.0648928 0.114226 0.0
-0.0738852 0.12675 0.0
-0.0834222 0.139578 0.0
-0.0923103 0.151949 0.0
-0.0980516 0.16255 0.0
-0.0958945 0.169043 0.0
-0.0773037 0.168213 0.0
-0.0267488 0.154499 0.0
0.0836895 0.124672 0.0
0.299784 0.0704149 0.0
0.69742 0.019411 0.0
-0.00320892 0.000169843 0.0
-0.00831242 0.00135061 0.0
-0.012222 0.00358787 0.0
-0.0151498 0.00633944 0.0
-0.0173779 0.00955514 0.0
-0.0191882 0.0130976 0.0
-0.0208253 0.0169396 0.0
-0.0224789 0.0210694 0.0
-0.0242864 0.0255086 0.0
-0.0263457 0.030292 0.0
-0.0287294 0.0354653 0.0
-0.031498 0.0410794 0.0
-0.0347105 0.0471884 0.0
-0.0384314 0.0538462 0.0
-0.0427368 0.0611041 0.0
-0.0477174 0.069006 0.0
-0.0534767 0.0775821 0.0
-0.0601212 0.0868375 0.0
-0.0677288 0.0967335 0.0
-0.0762791 0.107157 0.0
-0.0855131 0.117867 0.0
-0.0946826 0.128415 0.0
-0.102134 0.137997 0.0
-0.104677 0.145337 0.0
-0.0966267 0.148279 0.0
-0.0683845 0.144175 0.0
-0.00385078 0.128369 0.0
0.122872 0.0997205 0.0
0.350026 0.0529035 0.0
0.733645 0.0123735 0.0
-0.00392338 0.000158917 0.0
-0.0100283 0.00127542 0.0
-0.0146456 0.00339121 0.0
-0.0180733 0.0059877 0.0
-0.0206746 0.00901613 0.0
-0.0227902 0.0123456 0.0
-0.0247092 0.0159512 0.0
-0.0266513 0.0198224 0.0
-0.0287738 0.0239798 0.0
-0.0311864 0.0284549 0.0
-0.0339684 0.0332882 0.0
-0.0371832 0.0385234 0.0
-0.0408895 0.0442045 0.0
-0.0451484 0.0503724 0.0
-0.0500286 0.0570614 0.0
-0.0556067 0.0642938 0.0
-0.0619633 0.0720727 0.0
-0.0691664 0.08037 0.0
-0.0772314 0.0891086 0.0
-0.0860353 0.0981338 0.0
-0.0951533 0.107165 0.0
-0.103574 0.11573 0.0
-0.109244 0.123039 0.0
-0.108401 0.127909 0.0
-0.0946581 0.128418 0.0
-0.0577055 0.12244 0.0
0.0185261 0.106181 0.0
0.157434 0.0799616 0.0
0.391274 0.0401967 0.0
0.760137 0.00801056 0.0
-0.004587 0.000145155 0.0
-0.0116255 0.00116997 0.0
-0.0168989 0.00311117 0.0
-0.0207874 0.00548954 0.0
-0.0237303 0.00825982 0.0
-0.0261245 0.0113016 0.0
-0.0283008 0.014593 0.0
-0.030507 0.0181255 0.0
-0.0329179 0.0219182 0.0
-0.0356533 0.0260001 0.0
-0.038797 0.030407 0.0
-0.0424134 0.0351764 0.0
-0.0465584 0.0403443 0.0
-0.0512872 0.0459415 0.0
-0.0566571 0.05199 0.0
-0.0627275 0.0584972 0.0
-0.0695517 0.0654481 0.0
-0.0771562 0.0727943 0.0
-0.0854919 0.080437 0.0
-0.0943366 0.0882015 0.0
-0.103111 0.0957941 0.0
-0.110569 0.102749 0.0
-0.114314 0.108319 0.0
-0.11012 0.111432 0.0
-0.091076 0.110421 0.0
-0.0464694 0.103552 0.0
0.0392791 0.0879786 0.0
0.187498 0.0644607 0.0
0.425077 0.0309265 0.0
0.779859 0.00529181 0.0
-0.00518678 0.000129584 0.0
-0.0130692 0.00104313 0.0
-0.0189328 0.00277085 0.0
-0.0232341 0.00488406 0.0
-0.026482 0.00734287 0.0
-0.029125 0.0100408 0.0
-0.0315323 0.0129599 0.0
-0.0339766 0.0160943 0.0
-0.0366482 0.0194624 0.0
-0.0396752 0.023091 0.0
-0.0431447 0.0270123 0.0
-0.0471205 0.0312593 0.0
-0.0516546 0.0358623 0.0
-0.0567944 0.040846 0.0
-0.0625846 0.0462248 0.0
-0.0690652 0.0519978 0.0
-0.0762612 0.0581409 0.0
-0.0841568 0.0645966 0.0
-0.0926405 0.0712577 0.0
-0.101396 0.0779449 0.0
-0.109705 0.0843682 0.0
-0.116112 0.0900821 0.0
-0.117929 0.094395 0.0
-0.110557 0.0963448 0.0
-0.0867062 0.0944993 0.0
-0.0354853 0.0874372 0.0
0.0581194 0.0730471 0.0
0.21344 0.0522495 0.0
0.452797 0.0240833 0.0
0.794802 0.0035791 0.0
-0.00571334 0.000112474 0.0
-0.0143336 0.000899517 0.0
-0.0207108 0.00238364 0.0
-0.0253702 0.00419505 0.0
-0.0288826 0.00630061 0.0
-0.0317427 0.00861051 0.0
-0.0343534 0.0111119 0.0
-0.0370093 0.013802 0.0
-0.0399142 0.0166994 0.0
-0.0432028 0.0198293 0.0
-0.0469649 0.0232217 0.0
-0.051263 0.0269067 0.0
-0.0561447 0.0309119 0.0
-0.0616493 0.0352592 0.0
-0.0678086 0.0399606 0.0
-0.0746435 0.0450133 0.0
-0.0821507 0.0503923 0.0
-0.0902736 0.05604 0.0
-0.0988413 0.0618519 0.0
-0.10745 0.0676546 0.0
-0.115252 0.073172 0.0
-0.120607 0.0779848 0.0
-0.120579 0.0814563 0.0
-0.110267 0.0827198 0.0
-0.0821114 0.0805415 0.0
-0.0251903 0.0737429 0.0
0.0748876 0.0607643 0.0
0.235663 0.0425782 0.0
0.475558 0.0189713 0.0
0.806311 0.00248627 0.0
-0.00615869 9.38607e-05 0.0
-0.015398 0.000741694 0.0
-0.0222033 0.00195765 0.0
-0.0271604 0.00343746 0.0
-0.0308936 0.00515578 0.0
-0.0339373 0.0070417 0.0
-0.036723 0.00908803 0.0
-0.0395639 0.0112962 0.0
-0.0426751 0.0136851 0.0
-0.0461972 0.0162795 0.0
-0.0502217 0.0191081 0.0
-0.0548104 0.0222001 0.0
-0.0600068 0.0255829 0.0
-0.0658429 0.0292792 0.0
-0.0723387 0.0333035 0.0
-0.0794971 0.037657 0.0
-0.0872884 0.0423207 0.0
-0.0956174 0.0472458 0.0
-0.104257 0.0523386 0.0
-0.11272 0.05744 0.0
-0.120039 0.0622928 0.0
-0.124407 0.0665049 0.0
-0.122667 0.0694869 0.0
-0.109676 0.0704479 0.0
-0.0776858 0.0683114 0.0
-0.0158387 0.0620826 0.0
0.0896161 0.0506066 0.0
0.254609 0.0348547 0.0
0.49429 0.0150986 0.0
0.815307 0.00177658 0.0
-0.00651577 7.37212e-05 0.0
-0.0162449 0.000571307 0.0
-0.0233859 0.00149839 0.0
-0.028576 0.00262175 0.0
-0.0324836 0.00392455 0.0
-0.0356757 0.00535642 0.0
-0.0386071 0.00691635 0.0
-0.0416061 0.00861039 0.0
-0.044897 0.0104584 0.0
-0.0486254 0.012485 0.0
-0.0528851 0.0147188 0.0
-0.0577374 0.0171896 0.0
-0.0632235 0.0199271 0.0
-0.0693695 0.022958 0.0
-0.0761862 0.0263036 0.0
-0.0836608 0.0299749 0.0
-0.09174 0.0339659 0.0
-0.100292 0.0382434 0.0
-0.109037 0.0427326 0.0
-0.117408 0.0472952 0.0
-0.124321 0.0516963 0.0
-0.127811 0.0555686 0.0
-0.124525 0.0583591 0.0
-0.109118 0.0593311 0.0
-0.0737133 0.057524 0.0
-0.00758267 0.0520766 0.0
0.102384 0.0421271 0.0
0.270682 0.0286161 0.0
0.509732 0.0121155 0.0
0.82243 0.00130462 0.0
-0.00677813 5.20737e-05 0.0
-0.0168592 0.000389788 0.0
-0.0242379 0.0010105 0.0
-0.0295924 0.00175668 0.0
-0.0336258 0.00262039 0.0
-0.0369297 0.00357293 0.0
-0.0399763 0.00461973 0.0
-0.0431056 0.00577165 0.0
-0.0465492 0.00704947 0.0
-0.0504571 0.00847825 0.0
-0.0549259 0.0100871 0.0
-0.0600182 0.0119077 0.0
-0.0657748 0.0139737 0.0
-0.0722191 0.016319 0.0
-0.0793555 0.0189755 0.0
-0.0871595 0.0219693 0.0
-0.0955575 0.0253137 0.0
-0.104385 0.0289986 0.0
-0.113311 0.0329759 0.0
-0.121687 0.0371345 0.0
-0.128316 0.0412643 0.0
-0.131078 0.0450201 0.0
-0.126434 0.0478733 0.0
-0.108862 0.049119 0.0
-0.070407 0.0478733 0.0
-0.000513022 0.043361 0.0
0.113292 0.0349397 0.0
0.284234 0.0234906 0.0
0.522465 0.00976599 0.0
0.828123 0.000979208 0.0
-0.00694013 2.89957e-05 0.0
-0.0172282 0.000198669 0.0
-0.0247421 0.000498629 0.0
-0.0301897 0.000850836 0.0
-0.0342982 0.00125632 0.0
-0.0376754 0.00170876 0.0
-0.0408053 0.00221985 0.0
-0.0440356 0.0028051 0.0
-0.0476033 0.00348599 0.0
-0.0516627 0.0042878 0.0
-0.0563142 0.00524039 0.0
-0.0616236 0.00637805 0.0
-0.0676342 0.00773963 0.0
-0.0743709 0.00936842 0.0
-0.0818361 0.0113106 0.0
-0.0899986 0.0136119 0.0
-0.0987693 0.0163113 0.0
-0.107955 0.0194297 0.0
-0.117175 0.0229539 0.0
-0.1257 0.0268074 0.0
-0.132211 0.030809 0.0
-0.134429 0.0346339 0.0
-0.128629 0.0377671 0.0
-0.109134 0.0395134 0.0
-0.0679373 0.039028 0.0
0.00530171 0.035582 0.0
0.122429 0.0286955 0.0
0.295549 0.0191654 0.0
0.532928 0.00785314 0.0
0.832688 0.000741002 0.0
-0.00699669 4.62806e-06 0.0
-0.0173412 -2.59614e-07 0.0
-0.0248846 -3.20836e-05 0.0
-0.0303519 -8.65633e-05 0.0
-0.0344827 -0.000153833 0.0
-0.037893 -0.000217674 0.0
-0.0410719 -0.000260665 0.0
-0.0443711 -0.000263207 0.0
-0.0480311 -0.00020379 0.0
-0.0522105 -5.74088e-05 0.0
-0.0570153 0.000205896 0.0
-0.0625166 0.000622702 0.0
-0.0687644 0.00123777 0.0
-0.0757896 0.00210498 0.0
-0.083599 0.00328726 0.0
-0.092161 0.00485433 0.0
-0.101377 0.00687705 0.0
-0.11103 0.00941476 0.0
-0.12069 0.0125006 0.0
-0.129546 0.016102 0.0
-0.136148 0.020072 0.0
-0.138045 0.0241089 0.0
-0.131319 0.0277036 0.0
-0.110135 0.0301536 0.0
-0.0664622 0.0306144 0.0
0.00978184 0.0283801 0.0
0.129853 0.0230463 0.0
0.304834 0.0153528 0.0
0.541429 0.00621087 0.0
0.836323 0.000547922 0.0
-0.00694427 -2.08078e-05 0.0
-0.0171911 -0.000205029 0.0
-0.0246559 -0.000576055 0.0
-0.0300677 -0.00104521 0.0
-0.034167 -0.00159428 0.0
-0.0375682 -0.00218502 0.0
-0.0407594 -0.0027953 0.0
-0.044092 -0.00340256 0.0
-0.0478086 -0.00398645 0.0
-0.0520717 -0.00452352 0.0
-0.0569934 -0.00498499 0.0
-0.0626543 -0.0053331 0.0
-0.0691151 -0.00551796 0.0
-0.0764187 -0.00547505 0.0
-0.0845835 -0.00512339 0.0
-0.0935864 -0.00436572 0.0
-0.103329 -0.00309278 0.0
-0.113578 -0.00119637 0.0
-0.123868 0.00141063 0.0
-0.133279 0.00474565 0.0
-0.140225 0.00871403 0.0
-0.142069 0.013048 0.0
-0.134681 0.0172418 0.0
-0.11206 0.0205727 0.0
-0.0661495 0.022165 0.0
0.0128421 0.0212975 0.0
0.13557 0.0175952 0.0
0.312199 0.0117455 0.0
0.548149 0.00467696 0.0
0.839131 0.000364841 0.0
-0.00677975 -4.70387e-05 0.0
-0.0167725 -0.000413178 0.0
-0.0240504 -0.00112641 0.0
-0.0293313 -0.00201263 0.0
-0.0333437 -0.00304617 0.0
-0.0366915 -0.00416796 0.0
-0.0398544 -0.00535259 0.0
-0.0431797 -0.00657614 0.0
-0.0469099 -0.00782122 0.0
-0.0512117 -0.00906796 0.0
-0.0562052 -0.0102907 0.0
-0.061983 -0.0114526 0.0
-0.0686216 -0.012501 0.0
-0.0761831 -0.0133627 0.0
-0.0847071 -0.0139392 0.0
-0.0941902 -0.0141047 0.0
-0.104546 -0.0137075 0.0
-0.115532 -0.0125816 0.0
-0.126632 -0.0105781 0.0
-0.136853 -0.00760518 0.0
-0.144457 -0.00369126 0.0
-0.146588 0.000939679 0.0
-0.138849 0.0057938 0.0
-0.115064 0.0101434 0.0
-0.0671691 0.0130571 0.0
0.0143348 0.0137539 0.0
0.139486 0.0118472 0.0
0.317619 0.00797438 0.0
0.553108 0.00306796 0.0
0.841114 0.000156152 0.0
-0.00650206 -7.37156e-05 0.0
-0.0160849 -0.000621417 0.0
-0.0230682 -0.00167426 0.0
-0.0281433 -0.00297336 0.0
-0.0320132 -0.00448666 0.0
-0.0352609 -0.00613598 0.0
-0.0383511 -0.00789437 0.0
-0.0416228 -0.00973846 0.0
-0.0453162 -0.011656 0.0
-0.0496015 -0.0136332 0.0
-0.0546079 -0.0156507 0.0
-0.060443 -0.0176764 0.0
-0.0672039 -0.0196592 0.0
-0.0749794 -0.0215216 0.0
-0.0838406 -0.0231521 0.0
-0.0938176 -0.0243989 0.0
-0.104852 -0.025068 0.0
-0.116711 -0.0249315 0.0
-0.128845 -0.0237566 0.0
-0.140171 -0.0213561 0.0
-0.148777 -0.017669 0.0
-0.151567 -0.0128595 0.0
-0.1439 -0.00738132 0.0
-0.119364 -0.00197695 0.0
-0.0697379 0.00239921 0.0
0.0140614 0.00492698 0.0
0.141408 0.00512523 0.0
0.320905 0.00355095 0.0
0.556145 0.00114972 0.0
0.842178 -0.000121086 0.0
-0.00611183 -0.000100361 0.0
-0.0151319 -0.0008256 0.0
-0.0217159 -0.00220859 0.0
-0.0265122 -0.0039082 0.0
-0.0301837 -0.00588729 0.0
-0.0332827 -0.00805084 0.0
-0.0362521 -0.0103722 0.0
-0.0394177 -0.0128308 0.0
-0.0430148 -0.0154218 0.0
-0.0472164 -0.0181409 0.0
-0.0521611 -0.0209789 0.0
-0.0579732 -0.0239139 0.0
-0.0647747 -0.0269026 0.0
-0.0726881 -0.029871 0.0
-0.0818272 -0.0327031 0.0
-0.0922713 -0.0352294 0.0
-0.10401 -0.0372191 0.0
-0.116842 -0.038383 0.0
-0.130209 -0.0383982 0.0
-0.142947 -0.0369619 0.0
-0.152966 -0.0338835 0.0
-0.156889 -0.0292023 0.0
-0.149748 -0.0232879 0.0
-0.12487 -0.0168664 0.0
-0.0740748 -0.0109049 0.0
0.0116049 -0.00623674 0.0
0.140871 -0.00349818 0.0
0.321603 -0.00219262 0.0
0.556831 -0.00136416 0.0
0.842047 -0.000504585 0.0
-0.00561224 -0.000126387 0.0
-0.0139235 -0.00102047 0.0
-0.0200087 -0.00271539 0.0
-0.024456 -0.00479279 0.0
-0.027874 -0.00721197 0.0
-0.0307747 -0.00986375 0.0
-0.0335715 -0.0127237 0.0
-0.0365728 -0.015776 0.0
-0.0400057 -0.019026 0.0
-0.0440438 -0.022482 0.0
-0.0488341 -0.0261499 0.0
-0.0545182 -0.0300241 0.0
-0.0612452 -0.0340781 0.0
-0.0691766 -0.0382528 0.0
-0.0784793 -0.0424412 0.0
-0.0892982 -0.0464717 0.0
-0.101694 -0.0500924 0.0
-0.115528 -0.0529645 0.0
-0.130265 -0.0546784 0.0
-0.144688 -0.0548039 0.0
-0.156546 -0.0529844 0.0
-0.162178 -0.0490669 0.0
-0.156251 -0.0432261 0.0
-0.131751 -0.0360224 0.0
-0.0803612 -0.0283675 0.0
0.00669301 -0.02112 0.0
0.137343 -0.0151187 0.0
0.318859 -0.0100185 0.0
0.554285 -0.00483926 0.0
0.840301 -0.00106463 0.0
-0.00500962 -0.000150986 0.0
-0.0124775 -0.00119902 0.0
-0.0179721 -0.00317617 0.0
-0.0220052 -0.00559517 0.0
-0.025117 -0.00841339 0.0
-0.0277697 -0.0115107 0.0
-0.0303405 -0.0148663 0.0
-0.0331151 -0.0184711 0.0
-0.0363087 -0.0223427 0.0
-0.0400922 -0.0265048 0.0
-0.0446185 -0.0309833 0.0
-0.0500441 -0.0357961 0.0
-0.0565446 -0.0409436 0.0
-0.0643228 -0.046396 0.0
-0.0736051 -0.0520748 0.0
-0.084616 -0.0578307 0.0
-0.0975122 -0.0634187 0.0
-0.112251 -0.0684788 0.0
-0.128366 -0.0725366 0.0
-0.144642 -0.0750385 0.0
-0.158713 -0.0754346 0.0
-0.166668 -0.0733043 0.0
-0.162818 -0.0684902 0.0
-0.139764 -0.0611973 0.0
-0.0889371 -0.0520199 0.0
-0.00155461 -0.041737 0.0
0.129725 -0.0312977 0.0
0.311525 -0.0210252 0.0
0.547422 -0.00984339 0.0
0.836275 -0.00193284 0.0
-0.00431445 -0.000172977 0.0
-0.0108219 -0.00135149 0.0
-0.0156457 -0.00356563 0.0
-0.0192066 -0.00627216 0.0
-0.0219633 -0.00942815 0.0
-0.0243202 -0.012906 0.0
-0.0266118 -0.0166896 0.0
-0.0290961 -0.0207774 0.0
-0.0319719 -0.0252003 0.0
-0.0354027 -0.0299998 0.0
-0.0395424 -0.0352251 0.0
-0.0445571 -0.040924 0.0
-0.0506438 -0.0471346 0.0
-0.058043 -0.0538723 0.0
-0.0670409 -0.0611113 0.0
-0.0779491 -0.0687576 0.0
-0.0910392 -0.0766161 0.0
-0.106402 -0.0843555 0.0
-0.123697 -0.0914856 0.0
-0.141786 -0.097363 0.0
-0.158286 -0.101241 0.0
-0.169141 -0.102366 0.0
-0.168388 -0.10009 0.0
-0.148262 -0.0940035 0.0
-0.0998156 -0.0840145 0.0
-0.0139456 -0.0705086 0.0
0.116538 -0.0543174 0.0
0.297744 -0.0369579 0.0
0.534374 -0.0173134 0.0
0.828831 -0.00333016 0.0
-0.00354393 -0.000190332 0.0
-0.00899976 -0.0014636 0.0
-0.0130889 -0.00384828 0.0
-0.0161297 -0.00676444 0.0
-0.0184891 -0.0101702 0.0
-0.0205072 -0.0139345 0.0
-0.0224706 -0.0180451 0.0
-0.024605 -0.0225085 0.0
-0.0270874 -0.0273677 0.0
-0.0300683 -0.0326824 0.0
-0.0336952 -0.0385265 0.0
-0.0381355 -0.0449818 0.0
-0.0435969 -0.0521317 0.0
-0.0503461 -0.0600522 0.0
-0.0587189 -0.0687946 0.0
-0.0691087 -0.0783598 0.0
-0.0819098 -0.0886589 0.0
-0.0973748 -0.0994629 0.0
-0.115351 -0.11035 0.0
-0.134881 -0.120667 0.0
-0.153711 -0.129516 0.0
-0.16783 -0.135784 0.0
-0.171204 -0.1382 0.0
-0.155854 -0.135454 0.0
-0.112408 -0.126302 0.0
-0.0310501 -0.110186 0.0
0.0961271 -0.0871111 0.0
0.275132 -0.0603199 0.0
0.512518 -0.0287947 0.0
0.816208 -0.00568953 0.0
-0.00272333 -0.000199853 0.0
-0.00707205 -0.00151521 0.0
-0.0103842 -0.00397589 0.0
-0.0128699 -0.00699285 0.0
-0.0147985 -0.0105261 0.0
-0.0164428 -0.0144445 0.0
-0.0180379 -0.0187386 0.0
-0.0197725 -0.0234203 0.0
-0.0217973 -0.0285426 0.0
-0.0242429 -0.0341802 0.0
-0.0272418 -0.04043 0.0
-0.0309503 -0.0474064 0.0
-0.0355713 -0.0552408 0.0
-0.041377 -0.0640776 0.0
-0.0487285 -0.0740647 0.0
-0.0580775 -0.0853338 0.0
-0.0699253 -0.0979634 0.0
-0.0846949 -0.111919 0.0
-0.102473 -0.126969 0.0
-0.122599 -0.142586 0.0
-0.143152 -0.157846 0.0
-0.160448 -0.171345 0.0
-0.168731 -0.181143 0.0
-0.16016 -0.184812 0.0
-0.125132 -0.179495 0.0
-0.0529332 -0.162955 0.0
0.0664246 -0.133076 0.0
0.240145 -0.0946654 0.0
0.477576 -0.047029 0.0
0.795085 -0.0099734 0.0
-0.00189478 -0.00019572 0.0
-0.0051317 -0.00147757 0.0
-0.00765384 -0.00388497 0.0
-0.00956745 -0.00685621 0.0
-0.0110461 -0.0103524 0.0
-0.0122961 -0.0142455 0.0
-0.0134993 -0.0185257 0.0
-0.014805 -0.0232067 0.0
-0.0163324 -0.0283462 0.0
-0.0181864 -0.0340284 0.0
-0.0204755 -0.0403654 0.0
-0.023332 -0.047497 0.0
-0.0269343 -0.0555947 0.0
-0.0315325 -0.0648663 0.0
-0.0374745 -0.0755585 0.0
-0.0452236 -0.0879519 0.0
-0.0553398 -0.102338 0.0
-0.0683853 -0.118966 0.0
-0.0847003 -0.137939 0.0
-0.104021 -0.159054 0.0
-0.124972 -0.181595 0.0
-0.14455 -0.204094 0.0
-0.157754 -0.224104 0.0
-0.157426 -0.238089 0.0
-0.134255 -0.241369 0.0
-0.0768945 -0.229234 0.0
0.0281545 -0.1958 0.0
0.190898 -0.14486 0.0
0.425391 -0.0767594 0.0
0.760738 -0.0182107 0.0
-0.00111132 -0.000170979 0.0
-0.00329012 -0.00131935 0.0
-0.0050408 -0.003508 0.0
-0.00638368 -0.00624614 0.0
-0.00740882 -0.00949322 0.0
-0.00826101 -0.0131268 0.0
-0.00907002 -0.0171326 0.0
-0.00994351 -0.0215221 0.0
-0.0109666 -0.0263507 0.0
-0.0122135 -0.0317028 0.0
-0.0137617 -0.037694 0.0
-0.0157077 -0.0444734 0.0