# vtk DataFile Version 3.0
Malha 2D com triângulos e temperatura
ASCII
DATASET UNSTRUCTURED_GRID

POINTS 961 double
0 0 0
1 0 0
1 1 0
0 1 0
0.0333333 0 0
0.0666667 0 0
0.1 0 0
0.133333 0 0
0.166667 0 0
0.2 0 0
0.233333 0 0
0.266667 0 0
0.3 0 0
0.333333 0 0
0.366667 0 0
0.4 0 0
0.433333 0 0
0.466667 0 0
0.5 0 0
0.533333 0 0
0.566667 0 0
0.6 0 0
0.633333 0 0
0.666667 0 0
0.7 0 0
0.733333 0 0
0.766667 0 0
0.8 0 0
0.833333 0 0
0.866667 0 0
0.9 0 0
0.933333 0 0
0.966667 0 0
1 0.0333333 0
1 0.0666667 0
1 0.1 0
1 0.133333 0
1 0.166667 0
1 0.2 0
1 0.233333 0
1 0.266667 0
1 0.3 0
1 0.333333 0
1 0.366667 0
1 0.4 0
1 0.433333 0
1 0.466667 0
1 0.5 0
1 0.533333 0
1 0.566667 0
1 0.6 0
1 0.633333 0
1 0.666667 0
1 0.7 0
1 0.733333 0
1 0.766667 0
1 0.8 0
1 0.833333 0
1 0.866667 0
1 0.9 0
1 0.933333 0
1 0.966667 0
0.966667 1 0
0.933333 1 0
0.9 1 0
0.866667 1 0
0.833333 1 0
0.8 1 0
0.766667 1 0
0.733333 1 0
0.7 1 0
0.666667 1 0
0.633333 1 0
0.6 1 0
0.566667 1 0
0.533333 1 0
0.5 1 0
0.466667 1 0
0.433333 1 0
0.4 1 0
0.366667 1 0
0.333333 1 0
0.3 1 0
0.266667 1 0
0.233333 1 0
0.2 1 0
0.166667 1 0
0.133333 1 0
0.1 1 0
0.0666667 1 0
0.0333333 1 0
0 0.966667 0
0 0.933333 0
0 0.9 0
0 0.866667 0
0 0.833333 0
0 0.8 0
0 0.766667 0
0 0.733333 0
0 0.7 0
0 0.666667 0
0 0.633333 0
0 0.6 0
0 0.566667 0
0 0.533333 0
0 0.5 0
0 0.466667 0
0 0.433333 0
0 0.4 0
0 0.366667 0
0 0.333333 0
0 0.3 0
0 0.266667 0
0 0.233333 0
0 0.2 0
0 0.166667 0
0 0.133333 0
0 0.1 0
0 0.0666667 0
0 0.0333333 0
0.0333333 0.0333333 0
0.0333333 0.0666667 0
0.0333333 0.1 0
0.0333333 0.133333 0
0.0333333 0.166667 0
0.0333333 0.2 0
0.0333333 0.233333 0
0.0333333 0.266667 0
0.0333333 0.3 0
0.0333333 0.333333 0
0.0333333 0.366667 0
0.0333333 0.4 0
0.0333333 0.433333 0
0.0333333 0.466667 0
0.0333333 0.5 0
0.0333333 0.533333 0
0.0333333 0.566667 0
0.0333333 0.6 0
0.0333333 0.633333 0
0.0333333 0.666667 0
0.0333333 0.7 0
0.0333333 0.733333 0
0.0333333 0.766667 0
0.0333333 0.8 0
0.0333333 0.833333 0
0.0333333 0.866667 0
0.0333333 0.9 0
0.0333333 0.933333 0
0.0333333 0.966667 0
0.0666667 0.0333333 0
0.0666667 0.0666667 0
0.0666667 0.1 0
0.0666667 0.133333 0
0.0666667 0.166667 0
0.0666667 0.2 0
0.0666667 0.233333 0
0.0666667 0.266667 0
0.0666667 0.3 0
0.0666667 0.333333 0
0.0666667 0.366667 0
0.0666667 0.4 0
0.0666667 0.433333 0
0.0666667 0.466667 0
0.0666667 0.5 0
0.0666667 0.533333 0
0.0666667 0.566667 0
0.0666667 0.6 0
0.0666667 0.633333 0
0.0666667 0.666667 0
0.0666667 0.7 0
0.0666667 0.733333 0
0.0666667 0.766667 0
0.0666667 0.8 0
0.0666667 0.833333 0
0.0666667 0.866667 0
0.0666667 0.9 0
0.0666667 0.933333 0
0.0666667 0.966667 0
0.1 0.0333333 0
0.1 0.0666667 0
0.1 0.1 0
0.1 0.133333 0
0.1 0.166667 0
0.1 0.2 0
0.1 0.233333 0
0.1 0.266667 0
0.1 0.3 0
0.1 0.333333 0
0.1 0.366667 0
0.1 0.4 0
0.1 0.433333 0
0.1 0.466667 0
0.1 0.5 0
0.1 0.533333 0
0.1 0.566667 0
0.1 0.6 0
0.1 0.633333 0
0.1 0.666667 0
0.1 0.7 0
0.1 0.733333 0
0.1 0.766667 0
0.1 0.8 0
0.1 0.833333 0
0.1 0.866667 0
0.1 0.9 0
0.1 0.933333 0
0.1 0.966667 0
0.133333 0.0333333 0
0.133333 0.0666667 0
0.133333 0.1 0
0.133333 0.133333 0
0.133333 0.166667 0
0.133333 0.2 0
0.133333 0.233333 0
0.133333 0.266667 0
0.133333 0.3 0
0.133333 0.333333 0
0.133333 0.366667 0
0.133333 0.4 0
0.133333 0.433333 0
0.133333 0.466667 0
0.133333 0.5 0
0.133333 0.533333 0
0.133333 0.566667 0
0.133333 0.6 0
0.133333 0.633333 0
0.133333 0.666667 0
0.133333 0.7 0
0.133333 0.733333 0
0.133333 0.766667 0
0.133333 0.8 0
0.133333 0.833333 0
0.133333 0.866667 0
0.133333 0.9 0
0.133333 0.933333 0
0.133333 0.966667 0
0.166667 0.0333333 0
0.166667 0.0666667 0
0.166667 0.1 0
0.166667 0.133333 0
0.166667 0.166667 0
0.166667 0.2 0
0.166667 0.233333 0
0.166667 0.266667 0
0.166667 0.3 0
0.166667 0.333333 0
0.166667 0.366667 0
0.166667 0.4 0
0.166667 0.433333 0
0.166667 0.466667 0
0.166667 0.5 0
0.166667 0.533333 0
0.166667 0.566667 0
0.166667 0.6 0
0.166667 0.633333 0
0.166667 0.666667 0
0.166667 0.7 0
0.166667 0.733333 0
0.166667 0.766667 0
0.166667 0.8 0
0.166667 0.833333 0
0.166667 0.866667 0
0.166667 0.9 0
0.166667 0.933333 0
0.166667 0.966667 0
0.2 0.0333333 0
0.2 0.0666667 0
0.2 0.1 0
0.2 0.133333 0
0.2 0.166667 0
0.2 0.2 0
0.2 0.233333 0
0.2 0.266667 0
0.2 0.3 0
0.2 0.333333 0
0.2 0.366667 0
0.2 0.4 0
0.2 0.433333 0
0.2 0.466667 0
0.2 0.5 0
0.2 0.533333 0
0.2 0.566667 0
0.2 0.6 0
0.2 0.633333 0
0.2 0.666667 0
0.2 0.7 0
0.2 0.733333 0
0.2 0.766667 0
0.2 0.8 0
0.2 0.833333 0
0.2 0.866667 0
0.2 0.9 0
0.2 0.933333 0
0.2 0.966667 0
0.233333 0.0333333 0
0.233333 0.0666667 0
0.233333 0.1 0
0.233333 0.133333 0
0.233333 0.166667 0
0.233333 0.2 0
0.233333 0.233333 0
0.233333 0.266667 0
0.233333 0.3 0
0.233333 0.333333 0
0.233333 0.366667 0
0.233333 0.4 0
0.233333 0.433333 0
0.233333 0.466667 0
0.233333 0.5 0
0.233333 0.533333 0
0.233333 0.566667 0
0.233333 0.6 0
0.233333 0.633333 0
0.233333 0.666667 0
0.233333 0.7 0
0.233333 0.733333 0
0.233333 0.766667 0
0.233333 0.8 0
0.233333 0.833333 0
0.233333 0.866667 0
0.233333 0.9 0
0.233333 0.933333 0
0.233333 0.966667 0
0.266667 0.0333333 0
0.266667 0.0666667 0
0.266667 0.1 0
0.266667 0.133333 0
0.266667 0.166667 0
0.266667 0.2 0
0.266667 0.233333 0
0.266667 0.266667 0
0.266667 0.3 0
0.266667 0.333333 0
0.266667 0.366667 0
0.266667 0.4 0
0.266667 0.433333 0
0.266667 0.466667 0
0.266667 0.5 0
0.266667 0.533333 0
0.266667 0.566667 0
0.266667 0.6 0
0.266667 0.633333 0
0.266667 0.666667 0
0.266667 0.7 0
0.266667 0.733333 0
0.266667 0.766667 0
0.266667 0.8 0
0.266667 0.833333 0
0.266667 0.866667 0
0.266667 0.9 0
0.266667 0.933333 0
0.266667 0.966667 0
0.3 0.0333333 0
0.3 0.0666667 0
0.3 0.1 0
0.3 0.133333 0
0.3 0.166667 0
0.3 0.2 0
0.3 0.233333 0
0.3 0.266667 0
0.3 0.3 0
0.3 0.333333 0
0.3 0.366667 0
0.3 0.4 0
0.3 0.433333 0
0.3 0.466667 0
0.3 0.5 0
0.3 0.533333 0
0.3 0.566667 0
0.3 0.6 0
0.3 0.633333 0
0.3 0.666667 0
0.3 0.7 0
0.3 0.733333 0
0.3 0.766667 0
0.3 0.8 0
0.3 0.833333 0
0.3 0.866667 0
0.3 0.9 0
0.3 0.933333 0
0.3 0.966667 0
0.333333 0.0333333 0
0.333333 0.0666667 0
0.333333 0.1 0
0.333333 0.133333 0
0.333333 0.166667 0
0.333333 0.2 0
0.333333 0.233333 0
0.333333 0.266667 0
0.333333 0.3 0
0.333333 0.333333 0
0.333333 0.366667 0
0.333333 0.4 0
0.333333 0.433333 0
0.333333 0.466667 0
0.333333 0.5 0
0.333333 0.533333 0
0.333333 0.566667 0
0.333333 0.6 0
0.333333 0.633333 0
0.333333 0.666667 0
0.333333 0.7 0
0.333333 0.733333 0
0.333333 0.766667 0
0.333333 0.8 0
0.333333 0.833333 0
0.333333 0.866667 0
0.333333 0.9 0
0.333333 0.933333 0
0.333333 0.966667 0
0.366667 0.0333333 0
0.366667 0.0666667 0
0.366667 0.1 0
0.366667 0.133333 0
0.366667 0.166667 0
0.366667 0.2 0
0.366667 0.233333 0
0.366667 0.266667 0
0.366667 0.3 0
0.366667 0.333333 0
0.366667 0.366667 0
0.366667 0.4 0
0.366667 0.433333 0
0.366667 0.466667 0
0.366667 0.5 0
0.366667 0.533333 0
0.366667 0.566667 0
0.366667 0.6 0
0.366667 0.633333 0
0.366667 0.666667 0
0.366667 0.7 0
0.366667 0.733333 0
0.366667 0.766667 0
0.366667 0.8 0
0.366667 0.833333 0
0.366667 0.866667 0
0.366667 0.9 0
0.366667 0.933333 0
0.366667 0.966667 0
0.4 0.0333333 0
0.4 0.0666667 0
0.4 0.1 0
0.4 0.133333 0
0.4 0.166667 0
0.4 0.2 0
0.4 0.233333 0
0.4 0.266667 0
0.4 0.3 0
0.4 0.333333 0
0.4 0.366667 0
0.4 0.4 0
0.4 0.433333 0
0.4 0.466667 0
0.4 0.5 0
0.4 0.533333 0
0.4 0.566667 0
0.4 0.6 0
0.4 0.633333 0
0.4 0.666667 0
0.4 0.7 0
0.4 0.733333 0
0.4 0.766667 0
0.4 0.8 0
0.4 0.833333 0
0.4 0.866667 0
0.4 0.9 0
0.4 0.933333 0
0.4 0.966667 0
0.433333 0.0333333 0
0.433333 0.0666667 0
0.433333 0.1 0
0.433333 0.133333 0
0.433333 0.166667 0
0.433333 0.2 0
0.433333 0.233333 0
0.433333 0.266667 0
0.433333 0.3 0
0.433333 0.333333 0
0.433333 0.366667 0
0.433333 0.4 0
0.433333 0.433333 0
0.433333 0.466667 0
0.433333 0.5 0
0.433333 0.533333 0
0.433333 0.566667 0
0.433333 0.6 0
0.433333 0.633333 0
0.433333 0.666667 0
0.433333 0.7 0
0.433333 0.733333 0
0.433333 0.766667 0
0.433333 0.8 0
0.433333 0.833333 0
0.433333 0.866667 0
0.433333 0.9 0
0.433333 0.933333 0
0.433333 0.966667 0
0.466667 0.0333333 0
0.466667 0.0666667 0
0.466667 0.1 0
0.466667 0.133333 0
0.466667 0.166667 0
0.466667 0.2 0
0.466667 0.233333 0
0.466667 0.266667 0
0.466667 0.3 0
0.466667 0.333333 0
0.466667 0.366667 0
0.466667 0.4 0
0.466667 0.433333 0
0.466667 0.466667 0
0.466667 0.5 0
0.466667 0.533333 0
0.466667 0.566667 0
0.466667 0.6 0
0.466667 0.633333 0
0.466667 0.666667 0
0.466667 0.7 0
0.466667 0.733333 0
0.466667 0.766667 0
0.466667 0.8 0
0.466667 0.833333 0
0.466667 0.866667 0
0.466667 0.9 0
0.466667 0.933333 0
0.466667 0.966667 0
0.5 0.0333333 0
0.5 0.0666667 0
0.5 0.1 0
0.5 0.133333 0
0.5 0.166667 0
0.5 0.2 0
0.5 0.233333 0
0.5 0.266667 0
0.5 0.3 0
0.5 0.333333 0
0.5 0.366667 0
0.5 0.4 0
0.5 0.433333 0
0.5 0.466667 0
0.5 0.5 0
0.5 0.533333 0
0.5 0.566667 0
0.5 0.6 0
0.5 0.633333 0
0.5 0.666667 0
0.5 0.7 0
0.5 0.733333 0
0.5 0.766667 0
0.5 0.8 0
0.5 0.833333 0
0.5 0.866667 0
0.5 0.9 0
0.5 0.933333 0
0.5 0.966667 0
0.533333 0.0333333 0
0.533333 0.0666667 0
0.533333 0.1 0
0.533333 0.133333 0
0.533333 0.166667 0
0.533333 0.2 0
0.533333 0.233333 0
0.533333 0.266667 0
0.533333 0.3 0
0.533333 0.333333 0
0.533333 0.366667 0
0.533333 0.4 0
0.533333 0.433333 0
0.533333 0.466667 0
0.533333 0.5 0
0.533333 0.533333 0
0.533333 0.566667 0
0.533333 0.6 0
0.533333 0.633333 0
0.533333 0.666667 0
0.533333 0.7 0
0.533333 0.733333 0
0.533333 0.766667 0
0.533333 0.8 0
0.533333 0.833333 0
0.533333 0.866667 0
0.533333 0.9 0
0.533333 0.933333 0
0.533333 0.966667 0
0.566667 0.0333333 0
0.566667 0.0666667 0
0.566667 0.1 0
0.566667 0.133333 0
0.566667 0.166667 0
0.566667 0.2 0
0.566667 0.233333 0
0.566667 0.266667 0
0.566667 0.3 0
0.566667 0.333333 0
0.566667 0.366667 0
0.566667 0.4 0
0.566667 0.433333 0
0.566667 0.466667 0
0.566667 0.5 0
0.566667 0.533333 0
0.566667 0.566667 0
0.566667 0.6 0
0.566667 0.633333 0
0.566667 0.666667 0
0.566667 0.7 0
0.566667 0.733333 0
0.566667 0.766667 0
0.566667 0.8 0
0.566667 0.833333 0
0.566667 0.866667 0
0.566667 0.9 0
0.566667 0.933333 0
0.566667 0.966667 0
0.6 0.0333333 0
0.6 0.0666667 0
0.6 0.1 0
0.6 0.133333 0
[...]
CELL_DATA 900
VECTORS velocity double
6.26921e-05 -6.1621e-05 0.0
-2.73602e-05 3.67229e-05 0.0
-0.000103434 0.000451885 0.0
-0.000156787 0.00106458 0.0
-0.00018585 0.00183072 0.0
-0.00020323 0.00269067 0.0
-0.000215963 0.00362632 0.0
-0.000229097 0.00463036 0.0
-0.000245024 0.00570989 0.0
-0.000265048 0.00687797 0.0
-0.000289905 0.00815276 0.0
-0.000320284 0.00955607 0.0
-0.000357078 0.0111139 0.0
-0.000401623 0.0128577 0.0
-0.000455994 0.0148263 0.0
-0.000523523 0.0170696 0.0
-0.000609765 0.0196543 0.0
-0.000724333 0.022672 0.0
-0.000884361 0.0262538 0.0
-0.00112114 0.0305919 0.0
-0.00149271 0.0359747 0.0
-0.00210923 0.0428411 0.0
-0.00318188 0.051871 0.0
-0.00512311 0.0641155 0.0
-0.00869809 0.0813086 0.0
-0.015233 0.105893 0.0
-0.0258346 0.142772 0.0
-0.0380553 0.190337 0.0
-0.0132454 0.26317 0.0
0.217007 0.174192 0.0
-3.85996e-05 3.11034e-05 0.0
-0.000535276 0.000536549 0.0
-0.000960785 0.0016616 0.0
-0.00128377 0.00316924 0.0
-0.00150471 0.0050039 0.0
-0.0016669 0.00706534 0.0
-0.0018038 0.00932054 0.0
-0.00194163 0.0117559 0.0
-0.00209694 0.0143855 0.0
-0.00228081 0.0172373 0.0
-0.00250134 0.0203517 0.0
-0.00276624 0.0237785 0.0
-0.0030846 0.0275778 0.0
-0.00346864 0.0318224 0.0
-0.00393576 0.0366019 0.0
-0.00451145 0.0420295 0.0
-0.0052338 0.0482516 0.0
-0.00616028 0.0554615 0.0
-0.00737775 0.063918 0.0
-0.00901686 0.0739676 0.0
-0.0112709 0.0860664 0.0
-0.0144221 0.100789 0.0
-0.0188705 0.118798 0.0
-0.0251804 0.140706 0.0
-0.0340375 0.16676 0.0
-0.0460851 0.195881 0.0
-0.0596073 0.224428 0.0
-0.0654195 0.240268 0.0
-0.00253661 0.218926 0.0
0.305722 0.116661 0.0
-0.00045559 0.000106133 0.0
-0.00165635 0.000940481 0.0
-0.00265857 0.00260661 0.0
-0.00342641 0.00474358 0.0
-0.00398381 0.00729698 0.0
-0.00441344 0.0101472 0.0
-0.00478813 0.0132593 0.0
-0.00516604 0.0166196 0.0
-0.00558714 0.0202475 0.0
-0.00607933 0.0241798 0.0
-0.00666393 0.0284684 0.0
-0.00736103 0.0331771 0.0
-0.0081936 0.0383817 0.0
-0.00919146 0.0441728 0.0
-0.0103957 0.0506587 0.0
-0.0118642 0.0579722 0.0
-0.0136796 0.0662776 0.0
-0.0159595 0.0757808 0.0
-0.0188676 0.086738 0.0
-0.022624 0.0994619 0.0
-0.0275047 0.11431 0.0
-0.0338165 0.131638 0.0
-0.0418122 0.151671 0.0
-0.0515114 0.174245 0.0
-0.0622077 0.198226 0.0
-0.0714637 0.220698 0.0
-0.0713238 0.234634 0.0
-0.0402389 0.228984 0.0
0.0918358 0.17329 0.0
0.476971 0.0771677 0.0
-0.0010511 0.000154436 0.0
-0.00311056 0.00120974 0.0
-0.0047655 0.00322949 0.0
-0.00601887 0.00575399 0.0
-0.00694649 0.00873226 0.0
-0.00767759 0.0120352 0.0
-0.00832713 0.0156314 0.0
-0.0089859 0.0195092 0.0
-0.00971783 0.0236917 0.0
-0.0105681 0.0282193 0.0
-0.0115716 0.033148 0.0
-0.0127605 0.0385448 0.0
-0.0141709 0.0444884 0.0
-0.0158479 0.0510699 0.0
-0.0178519 0.0583948 0.0
-0.0202651 0.0665867 0.0
-0.0232 0.0757901 0.0
-0.0268079 0.0861726 0.0
-0.0312848 0.0979226 0.0
-0.0368658 0.111236 0.0
-0.0437911 0.126276 0.0
-0.0522152 0.143094 0.0
-0.062007 0.161443 0.0
-0.0723808 0.180504 0.0
-0.081135 0.198266 0.0
-0.0832303 0.211044 0.0
-0.066933 0.211414 0.0
-0.00504318 0.190784 0.0
0.166602 0.12796 0.0
0.575623 0.0491289 0.0
-0.00176192 0.000173324 0.0
-0.00479605 0.0013374 0.0
-0.00716041 0.00353607 0.0
-0.00892736 0.0062473 0.0
-0.0102448 0.00942032 0.0
-0.0112962 0.0129205 0.0
-0.0122415 0.0167198 0.0
-0.0132046 0.0208087 0.0
-0.0142733 0.0252119 0.0
-0.0155094 0.0299701 0.0
-0.0169603 0.0351379 0.0
-0.0186691 0.0407795 0.0
-0.0206823 0.0469677 0.0
-0.0230566 0.0537839 0.0
-0.0258652 0.0613183 0.0
-0.0292046 0.0696698 0.0
-0.0332011 0.0789454 0.0
-0.0380155 0.089256 0.0
-0.0438387 0.100705 0.0
-0.0508671 0.113365 0.0
-0.05923 0.127225 0.0
-0.0688334 0.142103 0.0
-0.0790551 0.157456 0.0
-0.0882183 0.172148 0.0
-0.0926499 0.183891 0.0
-0.0850683 0.189061 0.0
-0.05098 0.181063 0.0
0.0387455 0.153758 0.0
0.238195 0.0938552 0.0
0.646844 0.0306621 0.0
-0.00250596 0.000175798 0.0
-0.00655797 0.00136617 0.0
-0.00964385 0.00360616 0.0
-0.011921 0.00634921 0.0
-0.0136208 0.00954389 0.0
-0.0149857 0.0130541 0.0
-0.0162222 0.0168545 0.0
-0.0174865 0.0209366 0.0
-0.0188882 0.0253253 0.0
-0.0205041 0.0300593 0.0
-0.022392 0.0351891 0.0
-0.0246026 0.0407723 0.0
-0.0271891 0.046872 0.0
-0.0302141 0.0535555 0.0
-0.0337557 0.0608926 0.0
-0.0379132 0.0689538 0.0
-0.0428109 0.0778057 0.0
-0.048597 0.0875032 0.0
-0.0554294 0.0980736 0.0
-0.0634306 0.109489 0.0
-0.072583 0.121614 0.0
-0.0825176 0.134117 0.0
-0.0921285 0.146308 0.0
-0.0989416 0.156955 0.0
-0.0980849 0.16381 0.0
-0.0806889 0.163697 0.0
-0.0307817 0.151073 0.0
0.079972 0.122527 0.0
0.297394 0.0695213 0.0
0.696716 0.0192922 0.0
-0.00324366 0.000168789 0.0
-0.00831008 0.00132821 0.0
-0.012105 0.00350971 0.0
-0.0148765 0.00617187 0.0
-0.0169422 0.00926347 0.0
-0.0186059 0.0126511 0.0
-0.0201203 0.0163115 0.0
-0.0216723 0.020237 0.0
-0.0233922 0.0244513 0.0
-0.0253691 0.0289898 0.0
-0.0276688 0.0338978 0.0
-0.0303471 0.039225 0.0
-0.0334599 0.0450239 0.0
-0.0370709 0.0513467 0.0
-0.0412563 0.0582435 0.0
-0.0461094 0.0657582 0.0
-0.0517408 0.0739221 0.0
-0.0582724 0.0827445 0.0
-0.0658123 0.0921954 0.0
-0.0743941 0.102179 0.0
-0.0838434 0.112481 0.0
-0.0935224 0.122701 0.0
-0.101885 0.132103 0.0
-0.105775 0.139495 0.0
-0.0993727 0.142817 0.0
-0.0727022 0.139453 0.0
-0.00914382 0.124821 0.0
0.117871 0.0974508 0.0
0.346567 0.0519534 0.0
0.732416 0.0122439 0.0
-0.00394513 0.000157247 0.0
-0.00998317 0.00124851 0.0
-0.0144518 0.00330228 0.0
-0.0176889 0.00580367 0.0
-0.0200956 0.00870347 0.0
-0.0220364 0.0118752 0.0
-0.0238083 0.0152976 0.0
-0.0256274 0.0189638 0.0
-0.027642 0.0228959 0.0
-0.029952 0.0271258 0.0
-0.0326287 0.0316933 0.0
-0.0357303 0.0366404 0.0
-0.0393126 0.0420096 0.0
-0.043436 0.04784 0.0
-0.0481698 0.054165 0.0
-0.0535949 0.0610068 0.0
-0.059801 0.06837 0.0
-0.0668752 0.0762311 0.0
-0.0748694 0.0845219 0.0
-0.0837245 0.0931049 0.0
-0.0931152 0.101728 0.0
-0.10216 0.109968 0.0
-0.108933 0.117102 0.0
-0.109719 0.122031 0.0
-0.0979796 0.122928 0.0
-0.0629819 0.117711 0.0
0.0120188 0.102583 0.0
0.15113 0.0776664 0.0
0.386713 0.0392415 0.0
0.758373 0.0078838 0.0
-0.00459419 0.000143201 0.0
-0.0115344 0.00114132 0.0
-0.0166254 0.00301897 0.0
-0.0202902 0.00530244 0.0
-0.0230082 0.00794642 0.0
-0.0252012 0.010835 0.0
-0.0272076 0.0139496 0.0
-0.0292701 0.0172846 0.0
-0.0315533 0.0208604 0.0
-0.0341656 0.0247056 0.0
-0.0371825 0.0288549 0.0
-0.0406623 0.0333441 0.0
-0.0446584 0.0382071 0.0
-0.0492251 0.0434731 0.0
-0.0544219 0.0491629 0.0
-0.0603132 0.0552837 0.0
-0.0669639 0.0618221 0.0
-0.0744232 0.0687344 0.0
-0.0826851 0.0759309 0.0
-0.0916014 0.0832544 0.0
-0.100708 0.0904414 0.0
-0.108907 0.0970736 0.0
-0.11395 0.102473 0.0
-0.111665 0.105652 0.0
-0.0949763 0.105031 0.0
-0.052687 0.0989195 0.0
0.0315542 0.0844503 0.0
0.179887 0.0622191 0.0
0.419415 0.0300065 0.0
0.777574 0.00517715 0.0
-0.00517905 0.000127518 0.0
-0.0129321 0.00101463 0.0
-0.0185813 0.00268081 0.0
-0.0226282 0.00470387 0.0
-0.0256235 0.00704403 0.0
-0.0280412 0.00959903 0.0
-0.0302572 0.0123539 0.0
-0.0325383 0.0153046 0.0
-0.0350627 0.0184705 0.0
-0.0379464 0.0218774 0.0
-0.0412671 0.025556 0.0
-0.0450825 0.0295369 0.0
-0.0494417 0.0338484 0.0
-0.0543919 0.0385129 0.0
-0.0599806 0.0435433 0.0
-0.0662545 0.0489383 0.0
-0.0732524 0.0546753 0.0
-0.0809852 0.060701 0.0
-0.0893911 0.066918 0.0
-0.0982386 0.0731649 0.0
-0.106938 0.0791831 0.0
-0.114204 0.0845761 0.0
-0.117514 0.0887217 0.0
-0.112331 0.0907414 0.0
-0.0911794 0.0892846 0.0
-0.0426254 0.08297 0.0
0.0492056 0.0696579 0.0
0.204552 0.0501135 0.0
0.446067 0.0232237 0.0
0.79203 0.00348094 0.0
-0.00569112 0.00011038 0.0
-0.0141529 0.000872469 0.0
-0.0202863 0.0022997 0.0
-0.0246639 0.00402912 0.0
-0.0278991 0.00602778 0.0
-0.0305122 0.0082096 0.0
-0.0329123 0.0105638 0.0
-0.0353866 0.0130892 0.0
-0.0381255 0.0158039 0.0
-0.0412507 0.0187322 0.0
-0.0448416 0.0219016 0.0
-0.0489544 0.0253396 0.0
-0.053634 0.0290711 0.0
-0.0589197 0.0331151 0.0
-0.064847 0.0374818 0.0
-0.071445 0.0421672 0.0
-0.0787266 0.0471472 0.0
-0.0866664 0.0523687 0.0
-0.0951499 0.0577365 0.0
-0.103869 0.0630966 0.0
-0.112122 0.0682056 0.0
-0.118456 0.0726952 0.0
-0.120117 0.0759998 0.0
-0.112271 0.0773352 0.0
-0.0871514 0.0755444 0.0
-0.0332346 0.0694829 0.0
0.0648213 0.0575552 0.0
0.225549 0.0405765 0.0
0.467816 0.0181838 0.0
0.803095 0.00240512 0.0
-0.00612294 9.17959e-05 0.0
-0.0151775 0.000717088 0.0
-0.0217136 0.00188284 0.0
-0.0263654 0.00329151 0.0
-0.0298003 0.00491794 0.0
-0.0325783 0.00669421 0.0
-0.035136 0.00861445 0.0
-0.0377782 0.0106806 0.0
-0.0407054 0.0129107 0.0
-0.0440437 0.0153276 0.0
-0.0478742 0.0179572 0.0
-0.0522517 0.0208253 0.0
-0.057217 0.023956 0.0
-0.0628025 0.0273684 0.0
-0.0690327 0.0310742 0.0
-0.0759201 0.0350726 0.0
-0.0834542 0.0393449 0.0
-0.0915754 0.0438458 0.0
-0.10012 0.0484916 0.0
-0.108711 0.0531431 0.0
-0.11654 0.0575784 0.0
-0.122008 0.0614591 0.0
-0.122157 0.0642691 0.0
-0.11191 0.0653006 0.0
-0.0832863 0.0635487 0.0
-0.0247682 0.0580455 0.0
0.0784342 0.0475921 0.0
0.243325 0.0329981 0.0
0.485599 0.0143857 0.0
0.811692 0.001711 0.0
-0.0064679 7.17532e-05 0.0
-0.0159899 0.000550023 0.0
-0.0228408 0.00143531 0.0
-0.0277064 0.00250068 0.0
-0.0312987 0.00372934 0.0
-0.0342095 0.00507306 0.0
-0.0368979 0.00653128 0.0
-0.0396827 0.00810966 0.0
-0.0427721 0.00982638 0.0
-0.0462968 0.0117035 0.0
-0.0503389 0.0137662 0.0
-0.0549528 0.0160404 0.0
-0.0601767 0.0185513 0.0
-0.0660376 0.0213212 0.0
-0.072551 0.0243675 0.0
-0.0797157 0.0276978 0.0
-0.0875001 0.0313051 0.0
-0.0958139 0.0351591 0.0
-0.104449 0.0391946 0.0
-0.112959 0.0432944 0.0
-0.120441 0.0472613 0.0
-0.125156 0.0507859 0.0
-0.123962 0.0533921 0.0
-0.111578 0.0544276 0.0
-0.0798658 0.0529987 0.0
-0.0173762 0.0482645 0.0
0.0901276 0.0393083 0.0
0.25829 0.0269041 0.0
0.500161 0.0114741 0.0
0.81846 0.00125213 0.0
-0.00672003 5.02932e-05 0.0
-0.0165763 0.000372702 0.0
-0.023649 0.000961611 0.0
-0.028665 0.00166495 0.0
-0.0323703 0.0024747 0.0
-0.0353807 0.00336335 0.0
-0.0381719 0.00433583 0.0
-0.041073 0.00540174 0.0
-0.0442987 0.00657947 0.0
-0.0479832 0.00789082 0.0
-0.0522106 0.00936074 0.0
-0.0570362 0.0110163 0.0
-0.0624973 0.0128857 0.0
-0.0686184 0.0149974 0.0
-0.0754091 0.0173776 0.0
-0.0828578 0.0200474 0.0
-0.0909159 0.0230173 0.0
-0.099466 0.0262789 0.0
-0.108257 0.0297924 0.0
-0.116781 0.033469 0.0
-0.124035 0.03714 0.0
-0.128148 0.0405223 0.0
-0.125803 0.0431694 0.0
-0.111539 0.0444639 0.0
-0.0771003 0.0435848 0.0
-0.0111502 0.0397752 0.0
0.100003 0.0323126 0.0
0.270795 0.0219187 0.0
0.51208 0.00919126 0.0
0.823837 0.000937468 0.0
-0.00687413 2.75167e-05 0.0
-0.0169251 0.000186676 0.0
-0.0241227 0.0004663 0.0
-0.0292232 0.000792634 0.0
-0.0329954 0.00116653 0.0
-0.0360709 0.00158181 0.0
-0.0389358 0.00204879 0.0
-0.0419261 0.00258087 0.0
-0.0452609 0.00319647 0.0
-0.0490777 0.00391702 0.0
-0.053464 0.00476753 0.0
-0.0584775 0.00577688 0.0
-0.0641574 0.00697767 0.0
-0.0705291 0.00840596 0.0
-0.0776007 0.0101004 0.0
-0.0853551 0.0120995 0.0
-0.0937315 0.0144369 0.0
-0.10259 0.0171334 0.0
-0.11164 0.0201821 0.0
-0.12031 0.0235296 0.0
-0.127499 0.02704 0.0
-0.131193 0.0304555 0.0
-0.127909 0.0333501 0.0
-0.112012 0.0351211 0.0
-0.0751598 0.0349847 0.0
-0.0061565 0.0322291 0.0
0.108151 0.0262575 0.0
0.281125 0.0177306 0.0
0.521795 0.00734155 0.0
0.828123 0.000708435 0.0
-0.00692565 3.58892e-06 0.0
-0.0170268 -6.26596e-06 0.0
-0.0242498 -4.56256e-05 0.0
-0.0293669 -0.000107384 0.0
-0.0331585 -0.000181945 0.0
-0.0362628 -0.000254002 0.0
-0.0391704 -0.000308299 0.0
-0.0422201 -0.000328143 0.0
-0.0456341 -0.000295651 0.0
-0.0495533 -0.00019014 0.0
-0.0540695 1.31596e-05 0.0
-0.0592455 0.000344643 0.0
-0.0651256 0.000841551 0.0
-0.0717405 0.00154899 0.0
-0.0791024 0.00252003 0.0
-0.0871949 0.00381437 0.0
-0.0959511 0.00549431 0.0
-0.105213 0.00761632 0.0
-0.114656 0.0102156 0.0
-0.123642 0.0132848 0.0
-0.130965 0.0167266 0.0
-0.134466 0.0203095 0.0
-0.130474 0.0236217 0.0
-0.113188 0.0260582 0.0
-0.074194 0.0268408 0.0
-0.00245898 0.0252662 0.0
0.114634 0.0208069 0.0
0.289488 0.0140585 0.0
0.529613 0.00576335 0.0
0.831513 0.000524305 0.0
-0.0068715 -2.12755e-05 0.0
-0.0168752 -0.000204235 0.0
-0.0240219 -0.000568835 0.0
-0.0290865 -0.00102534 0.0
-0.0328487 -0.00155586 0.0
-0.0359442 -0.00212409 0.0
-0.0388614 -0.0027107 0.0
-0.0419383 -0.00329665 0.0
-0.0453984 -0.00386558 0.0
-0.049386 -0.00439861 0.0
-0.053998 -0.00487227 0.0
-0.0593049 -0.00525564 0.0
-0.0653606 -0.00550749 0.0
-0.0722061 -0.00557376 0.0
-0.0798644 -0.00538596 0.0
-0.0883276 -0.0048605 0.0
-0.097532 -0.00390112 0.0
-0.107311 -0.00240688 0.0
-0.11731 -0.000289794 0.0
-0.126828 0.00249521 0.0
-0.13453 0.00589775 0.0
-0.138097 0.00972743 0.0
-0.133664 0.0135861 0.0
-0.115246 0.016851 0.0
-0.0743593 0.0187222 0.0
-0.000145479 0.0184699 0.0
0.119463 0.0155904 0.0
0.296 0.0106125 0.0
0.535721 0.004303 0.0
0.834112 0.000352096 0.0
-0.00670902 -4.68179e-05 0.0
-0.0164659 -0.00040492 0.0
-0.0234346 -0.00109691 0.0
-0.0283775 -0.00194968 0.0
-0.0320605 -0.00293787 0.0
-0.0351075 -0.00400525 0.0
-0.0379978 -0.00512968 0.0
-0.041065 -0.00629109 0.0
-0.044532 -0.00747612 0.0
-0.0485464 -0.00866942 0.0
-0.0532121 -0.0098507 0.0
-0.0586097 -0.0109902 0.0
-0.0648068 -0.0120447 0.0
-0.0718611 -0.012953 0.0
-0.0798146 -0.013632 0.0
-0.0886786 -0.0139735 0.0
-0.0984037 -0.013844 0.0
-0.108824 -0.0130909 0.0
-0.119558 -0.0115627 0.0
-0.129831 -0.00914821 0.0
-0.138203 -0.00582729 0.0
-0.142167 -0.00174461 0.0
-0.137607 0.00272397 0.0
-0.118332 0.00693723 0.0
-0.0757953 0.0100679 0.0
0.000662824 0.011318 0.0
0.122566 0.0101547 0.0
0.300655 0.00704939 0.0
0.540152 0.00278902 0.0
0.835931 0.000158775 0.0
-0.00643745 -7.27005e-05 0.0
-0.0157987 -0.000605299 0.0
-0.0224886 -0.00162181 0.0
-0.0272411 -0.00286647 0.0
-0.0307947 -0.0043075 0.0
-0.0337516 -0.00587025 0.0
-0.0365755 -0.00753129 0.0
-0.0395913 -0.00927113 0.0
-0.0430195 -0.0110813 0.0
-0.0470107 -0.0129521 0.0
-0.0516764 -0.0148691 0.0
-0.05711 -0.016807 0.0
-0.0633968 -0.0187244 0.0
-0.0706177 -0.0205569 0.0
-0.0788428 -0.0222108 0.0
-0.088115 -0.0235559 0.0
-0.0984145 -0.0244218 0.0
-0.109593 -0.0246005 0.0
-0.121256 -0.023865 0.0
-0.132566 -0.022011 0.0
-0.141942 -0.0189246 0.0
-0.146659 -0.0146803 0.0
-0.142358 -0.00962608 0.0
-0.12262 -0.00440412 0.0
-0.0787465 9.65541e-05 0.0
-0.000218986 0.00304479 0.0
0.123787 0.00386544 0.0
0.303304 0.00290869 0.0
0.542781 0.00100127 0.0
0.836895 -9.50116e-05 0.0
-0.0060576 -9.84944e-05 0.0
-0.0148776 -0.000801692 0.0
-0.0211905 -0.00213378 0.0
-0.0256853 -0.00375884 0.0
-0.0290593 -0.0056398 0.0
-0.0318827 -0.00768569 0.0
-0.0345971 -0.00987335 0.0
-0.0375146 -0.0121858 0.0
-0.0408507 -0.0146215 0.0
-0.0447581 -0.0171791 0.0
-0.0493565 -0.0198535 0.0
-0.0547533 -0.0226286 0.0
-0.0610555 -0.0254701 0.0
-0.0683728 -0.0283176 0.0
-0.0768132 -0.0310739 0.0
-0.0864648 -0.0335947 0.0
-0.0973562 -0.035678 0.0
-0.109379 -0.0370619 0.0
-0.122148 -0.0374377 0.0
-0.134776 -0.0364918 0.0
-0.145544 -0.0339841 0.0
-0.151478 -0.0298634 0.0
-0.147898 -0.024388 0.0
-0.128078 -0.0181833 0.0
-0.0832454 -0.0121896 0.0
-0.0031079 -0.00728692 0.0
0.122715 -0.00410824 0.0
0.303526 -0.00242671 0.0
0.543201 -0.00133701 0.0
0.836748 -0.000449392 0.0
-0.00557247 -0.000123697 0.0
-0.0137117 -0.000989559 0.0
-0.019554 -0.00262073 0.0
-0.0237266 -0.00460576 0.0
-0.0268712 -0.00690369 0.0
-0.0295167 -0.00940963 0.0
-0.0320757 -0.0121023 0.0
-0.0348429 -0.0149692 0.0
-0.038026 -0.0180177 0.0
-0.041778 -0.0212578 0.0
-0.0462262 -0.0246979 0.0
-0.0514923 -0.0283364 0.0
-0.0577064 -0.0321539 0.0
-0.0650119 -0.0361035 0.0
-0.0735631 -0.040097 0.0
-0.0835077 -0.0439894 0.0
-0.0949436 -0.0475615 0.0
-0.10783 -0.0505087 0.0
-0.121824 -0.0524447 0.0
-0.136021 -0.052938 0.0
-0.148578 -0.0515918 0.0
-0.15627 -0.0481726 0.0
-0.154055 -0.0427551 0.0
-0.134833 -0.0358216 0.0
-0.0896211 -0.0282434 0.0
-0.00827565 -0.0209846 0.0
0.118919 -0.0148113 0.0
0.300611 -0.00968667 0.0
0.540639 -0.00458253 0.0
0.8351 -0.000975151 0.0
-0.00498778 -0.000147648 0.0
-0.0123171 -0.00116292 0.0
-0.0176021 -0.00306679 0.0
-0.0213922 -0.0053798 0.0
-0.0242596 -0.00805861 0.0
-0.0266827 -0.0109873 0.0
-0.0290383 -0.0141478 0.0
-0.0315992 -0.0175335 0.0
-0.0345621 -0.0211628 0.0
-0.0380775 -0.0250597 0.0
-0.0422775 -0.02925 0.0
-0.0472966 -0.0337526 0.0
-0.0532872 -0.0385722 0.0
-0.0604278 -0.0436877 0.0
-0.0689245 -0.0490367 0.0
-0.0789965 -0.054495 0.0
-0.0908321 -0.0598516 0.0
-0.10449 -0.0647851 0.0
-0.119714 -0.0688535 0.0
-0.135628 -0.0715148 0.0
-0.150317 -0.0721959 0.0
-0.160333 -0.0704193 0.0
-0.160276 -0.0659566 0.0
-0.142624 -0.058969 0.0
-0.0980772 -0.050034 0.0
-0.0164635 -0.0400276 0.0
0.111397 -0.0298316 0.0
0.293486 -0.0199815 0.0
0.534063 -0.00930328 0.0
0.831313 -0.00180196 0.0
-0.00431271 -0.000169382 0.0
-0.0107183 -0.00131338 0.0
-0.0153694 -0.00345 0.0
-0.0187229 -0.00604342 0.0
-0.0212685 -0.00904945 0.0
-0.023426 -0.0123443 0.0
-0.0255302 -0.0159141 0.0
-0.0278276 -0.0197589 0.0
-0.0304997 -0.0239092 0.0
-0.0336905 -0.0284046 0.0
-0.0375327 -0.0332917 0.0
-0.0421692 -0.0386158 0.0
-0.0477699 -0.0444142 0.0
-0.0545453 -0.0507056 0.0
-0.0627525 -0.0574741 0.0
-0.072688 -0.0646454 0.0
-0.0846469 -0.0720546 0.0
-0.0988196 -0.07941 0.0
-0.115086 -0.0862614 0.0
-0.132673 -0.0919935 0.0
-0.149676 -0.0958644 0.0
-0.162524 -0.0971037 0.0
-0.165536 -0.0950448 0.0
-0.150793 -0.0892871 0.0
-0.108578 -0.079762 0.0
-0.0283929 -0.0669289 0.0
0.0987932 -0.0515008 0.0
0.280406 -0.0351051 0.0
0.52168 -0.016463 0.0
0.824276 -0.00315774 0.0
-0.00356233 -0.000187151 0.0
-0.00895346 -0.00142818 0.0
-0.0129086 -0.00373847 0.0
-0.01578 -0.00654332 0.0
-0.0179645 -0.00979903 0.0
-0.019817 -0.0133775 0.0
-0.0216252 -0.0172686 0.0
-0.0236047 -0.0214793 0.0
-0.0259174 -0.0260514 0.0
-0.0286958 -0.0310406 0.0
-0.0320672 -0.0365156 0.0
-0.036175 -0.0425512 0.0
-0.041198 -0.0492246 0.0
-0.0473681 -0.0566068 0.0
-0.0549841 -0.0647496 0.0
-0.0644139 -0.0736625 0.0
-0.0760634 -0.083277 0.0
-0.0902769 -0.0933983 0.0
-0.107122 -0.10365 0.0
-0.126017 -0.113425 0.0
-0.145205 -0.121872 0.0
-0.161161 -0.12792 0.0
-0.168118 -0.130355 0.0
-0.157925 -0.127947 0.0
-0.120444 -0.119525 0.0
-0.0445317 -0.104575 0.0
0.0795217 -0.0828839 0.0
0.259037 -0.0576578 0.0
0.500891 -0.0276599 0.0
0.812225 -0.00548843 0.0
-0.00275883 -0.000198025 0.0
-0.00707693 -0.00148842 0.0
-0.0102927 -0.0038867 0.0
-0.0126479 -0.00680487 0.0
-0.0144394 -0.0102005 0.0
-0.015954 -0.0139446 0.0
-0.0174284 -0.0180294 0.0
-0.0190438 -0.0224672 0.0
-0.0209376 -0.0273087 0.0
-0.0232253 -0.0326237 0.0
-0.026021 -0.0385007 0.0
-0.0294587 -0.0450439 0.0
-0.0337123 -0.0523719 0.0
-0.0390173 -0.0606151 0.0
-0.0456924 -0.0699089 0.0
-0.054154 -0.0803774 0.0
-0.064901 -0.092102 0.0
-0.0784321 -0.105069 0.0
-0.0950393 -0.11909 0.0
-0.114428 -0.133707 0.0
-0.135161 -0.148091 0.0
-0.154031 -0.160958 0.0
-0.165527 -0.170519 0.0
-0.161631 -0.174512 0.0
-0.132032 -0.170214 0.0
-0.0648442 -0.155392 0.0
0.051654 -0.127614 0.0
0.225905 -0.0913168 0.0
0.46742 -0.0456915 0.0
0.791812 -0.00976789 0.0
-0.00194083 -0.000196274 0.0
-0.00517415 -0.00146543 0.0
-0.00763405 -0.00383117 0.0
-0.00945439 -0.00672691 0.0
-0.0108333 -0.0101109 0.0
-0.0119895 -0.0138563 0.0
-0.013107 -0.0179549 0.0
-0.0143293 -0.022421 0.0
-0.0157658 -0.02731 0.0
-0.0175092 -0.0327004 0.0
-0.0196531 -0.0386949 0.0
-0.022311 -0.0454199 0.0
-0.0256352 -0.0530291 0.0
-0.0298408 -0.0617077 0.0
-0.0352333 -0.0716762 0.0
-0.0422339 -0.0831876 0.0
-0.0513863 -0.0965128 0.0
-0.063304 -0.111897 0.0
-0.0784985 -0.129476 0.0
-0.0970306 -0.149131 0.0
-0.117969 -0.170291 0.0
-0.138745 -0.191699 0.0
-0.154581 -0.211161 0.0
-0.158162 -0.225393 0.0
-0.139578 -0.229918 0.0
-0.0865314 -0.219943 0.0
0.0157095 -0.189588 0.0
0.178898 -0.141136 0.0
0.416975 -0.0753919 0.0
0.758214 -0.0180446 0.0
-0.00115793 -0.000174608 0.0
-0.00334981 -0.00132564 0.0
-0.00506615 -0.00349906 0.0
-0.00634942 -0.00619275 0.0
-0.00730957 -0.00936303 0.0
-0.00810145 -0.0128879 0.0
-0.008857 -0.0167552 0.0
-0.0096802 -0.0209772 0.0
-0.0106494 -0.0256078 0.0
-0.0118304 -0.0307262 0.0
-0.0132902 -0.0364388 0.0