# vtk DataFile Version 3.0
Malha 2D com triângulos e temperatura
ASCII
DATASET UNSTRUCTURED_GRID

POINTS 961 double
0 0 0
1 0 0
1 1 0
0 1 0
0.0333333 0 0
0.0666667 0 0
0.1 0 0
0.133333 0 0
0.166667 0 0
0.2 0 0
0.233333 0 0
0.266667 0 0
0.3 0 0
0.333333 0 0
0.366667 0 0
0.4 0 0
0.433333 0 0
0.466667 0 0
0.5 0 0
0.533333 0 0
0.566667 0 0
0.6 0 0
0.633333 0 0
0.666667 0 0
0.7 0 0
0.733333 0 0
0.766667 0 0
0.8 0 0
0.833333 0 0
0.866667 0 0
0.9 0 0
0.933333 0 0
0.966667 0 0
1 0.0333333 0
1 0.0666667 0
1 0.1 0
1 0.133333 0
1 0.166667 0
1 0.2 0
1 0.233333 0
1 0.266667 0
1 0.3 0
1 0.333333 0
1 0.366667 0
1 0.4 0
1 0.433333 0
1 0.466667 0
1 0.5 0
1 0.533333 0
1 0.566667 0
1 0.6 0
1 0.633333 0
1 0.666667 0
1 0.7 0
1 0.733333 0
1 0.766667 0
1 0.8 0
1 0.833333 0
1 0.866667 0
1 0.9 0
1 0.933333 0
1 0.966667 0
0.966667 1 0
0.933333 1 0
0.9 1 0
0.866667 1 0
0.833333 1 0
0.8 1 0
0.766667 1 0
0.733333 1 0
0.7 1 0
0.666667 1 0
0.633333 1 0
0.6 1 0
0.566667 1 0
0.533333 1 0
0.5 1 0
0.466667 1 0
0.433333 1 0
0.4 1 0
0.366667 1 0
0.333333 1 0
0.3 1 0
0.266667 1 0
0.233333 1 0
0.2 1 0
0.166667 1 0
0.133333 1 0
0.1 1 0
0.0666667 1 0
0.0333333 1 0
0 0.966667 0
0 0.933333 0
0 0.9 0
0 0.866667 0
0 0.833333 0
0 0.8 0
0 0.766667 0
0 0.733333 0
0 0.7 0
0 0.666667 0
0 0.633333 0
0 0.6 0
0 0.566667 0
0 0.533333 0
0 0.5 0
0 0.466667 0
0 0.433333 0
0 0.4 0
0 0.366667 0
0 0.333333 0
0 0.3 0
0 0.266667 0
0 0.233333 0
0 0.2 0
0 0.166667 0
0 0.133333 0
0 0.1 0
0 0.0666667 0
0 0.0333333 0
0.0333333 0.0333333 0
0.0333333 0.0666667 0
0.0333333 0.1 0
0.0333333 0.133333 0
0.0333333 0.166667 0
0.0333333 0.2 0
0.0333333 0.233333 0
0.0333333 0.266667 0
0.0333333 0.3 0
0.0333333 0.333333 0
0.0333333 0.366667 0
0.0333333 0.4 0
0.0333333 0.433333 0
0.0333333 0.466667 0
0.0333333 0.5 0
0.0333333 0.533333 0
0.0333333 0.566667 0
0.0333333 0.6 0
0.0333333 0.633333 0
0.0333333 0.666667 0
0.0333333 0.7 0
0.0333333 0.733333 0
0.0333333 0.766667 0
0.0333333 0.8 0
0.0333333 0.833333 0
0.0333333 0.866667 0
0.0333333 0.9 0
0.0333333 0.933333 0
0.0333333 0.966667 0
0.0666667 0.0333333 0
0.0666667 0.0666667 0
0.0666667 0.1 0
0.0666667 0.133333 0
0.0666667 0.166667 0
0.0666667 0.2 0
0.0666667 0.233333 0
0.0666667 0.266667 0
0.0666667 0.3 0
0.0666667 0.333333 0
0.0666667 0.366667 0
0.0666667 0.4 0
0.0666667 0.433333 0
0.0666667 0.466667 0
0.0666667 0.5 0
0.0666667 0.533333 0
0.0666667 0.566667 0
0.0666667 0.6 0
0.0666667 0.633333 0
0.0666667 0.666667 0
0.0666667 0.7 0
0.0666667 0.733333 0
0.0666667 0.766667 0
0.0666667 0.8 0
0.0666667 0.833333 0
0.0666667 0.866667 0
0.0666667 0.9 0
0.0666667 0.933333 0
0.0666667 0.966667 0
0.1 0.0333333 0
0.1 0.0666667 0
0.1 0.1 0
0.1 0.133333 0
0.1 0.166667 0
0.1 0.2 0
0.1 0.233333 0
0.1 0.266667 0
0.1 0.3 0
0.1 0.333333 0
0.1 0.366667 0
0.1 0.4 0
0.1 0.433333 0
0.1 0.466667 0
0.1 0.5 0
0.1 0.533333 0
0.1 0.566667 0
0.1 0.6 0
0.1 0.633333 0
0.1 0.666667 0
0.1 0.7 0
0.1 0.733333 0
0.1 0.766667 0
0.1 0.8 0
0.1 0.833333 0
0.1 0.866667 0
0.1 0.9 0
0.1 0.933333 0
0.1 0.966667 0
0.133333 0.0333333 0
0.133333 0.0666667 0
0.133333 0.1 0
0.133333 0.133333 0
0.133333 0.166667 0
0.133333 0.2 0
0.133333 0.233333 0
0.133333 0.266667 0
0.133333 0.3 0
0.133333 0.333333 0
0.133333 0.366667 0
0.133333 0.4 0
0.133333 0.433333 0
0.133333 0.466667 0
0.133333 0.5 0
0.133333 0.533333 0
0.133333 0.566667 0
0.133333 0.6 0
0.133333 0.633333 0
0.133333 0.666667 0
0.133333 0.7 0
0.133333 0.733333 0
0.133333 0.766667 0
0.133333 0.8 0
0.133333 0.833333 0
0.133333 0.866667 0
0.133333 0.9 0
0.133333 0.933333 0
0.133333 0.966667 0
0.166667 0.0333333 0
0.166667 0.0666667 0
0.166667 0.1 0
0.166667 0.133333 0
0.166667 0.166667 0
0.166667 0.2 0
0.166667 0.233333 0
0.166667 0.266667 0
0.166667 0.3 0
0.166667 0.333333 0
0.166667 0.366667 0
0.166667 0.4 0
0.166667 0.433333 0
0.166667 0.466667 0
0.166667 0.5 0
0.166667 0.533333 0
0.166667 0.566667 0
0.166667 0.6 0
0.166667 0.633333 0
0.166667 0.666667 0
0.166667 0.7 0
0.166667 0.733333 0
0.166667 0.766667 0
0.166667 0.8 0
0.166667 0.833333 0
0.166667 0.866667 0
0.166667 0.9 0
0.166667 0.933333 0
0.166667 0.966667 0
0.2 0.0333333 0
0.2 0.0666667 0
0.2 0.1 0
0.2 0.133333 0
0.2 0.166667 0
0.2 0.2 0
0.2 0.233333 0
0.2 0.266667 0
0.2 0.3 0
0.2 0.333333 0
0.2 0.366667 0
0.2 0.4 0
0.2 0.433333 0
0.2 0.466667 0
0.2 0.5 0
0.2 0.533333 0
0.2 0.566667 0
0.2 0.6 0
0.2 0.633333 0
0.2 0.666667 0
0.2 0.7 0
0.2 0.733333 0
0.2 0.766667 0
0.2 0.8 0
0.2 0.833333 0
0.2 0.866667 0
0.2 0.9 0
0.2 0.933333 0
0.2 0.966667 0
0.233333 0.0333333 0
0.233333 0.0666667 0
0.233333 0.1 0
0.233333 0.133333 0
0.233333 0.166667 0
0.233333 0.2 0
0.233333 0.233333 0
0.233333 0.266667 0
0.233333 0.3 0
0.233333 0.333333 0
0.233333 0.366667 0
0.233333 0.4 0
0.233333 0.433333 0
0.233333 0.466667 0
0.233333 0.5 0
0.233333 0.533333 0
0.233333 0.566667 0
0.233333 0.6 0
0.233333 0.633333 0
0.233333 0.666667 0
0.233333 0.7 0
0.233333 0.733333 0
0.233333 0.766667 0
0.233333 0.8 0
0.233333 0.833333 0
0.233333 0.866667 0
0.233333 0.9 0
0.233333 0.933333 0
0.233333 0.966667 0
0.266667 0.0333333 0
0.266667 0.0666667 0
0.266667 0.1 0
0.266667 0.133333 0
0.266667 0.166667 0
0.266667 0.2 0
0.266667 0.233333 0
0.266667 0.266667 0
0.266667 0.3 0
0.266667 0.333333 0
0.266667 0.366667 0
0.266667 0.4 0
0.266667 0.433333 0
0.266667 0.466667 0
0.266667 0.5 0
0.266667 0.533333 0
0.266667 0.566667 0
0.266667 0.6 0
0.266667 0.633333 0
0.266667 0.666667 0
0.266667 0.7 0
0.266667 0.733333 0
0.266667 0.766667 0
0.266667 0.8 0
0.266667 0.833333 0
0.266667 0.866667 0
0.266667 0.9 0
0.266667 0.933333 0
0.266667 0.966667 0
0.3 0.0333333 0
0.3 0.0666667 0
0.3 0.1 0
0.3 0.133333 0
0.3 0.166667 0
0.3 0.2 0
0.3 0.233333 0
0.3 0.266667 0
0.3 0.3 0
0.3 0.333333 0
0.3 0.366667 0
0.3 0.4 0
0.3 0.433333 0
0.3 0.466667 0
0.3 0.5 0
0.3 0.533333 0
0.3 0.566667 0
0.3 0.6 0
0.3 0.633333 0
0.3 0.666667 0
0.3 0.7 0
0.3 0.733333 0
0.3 0.766667 0
0.3 0.8 0
0.3 0.833333 0
0.3 0.866667 0
0.3 0.9 0
0.3 0.933333 0
0.3 0.966667 0
0.333333 0.0333333 0
0.333333 0.0666667 0
0.333333 0.1 0
0.333333 0.133333 0
0.333333 0.166667 0
0.333333 0.2 0
0.333333 0.233333 0
0.333333 0.266667 0
0.333333 0.3 0
0.333333 0.333333 0
0.333333 0.366667 0
0.333333 0.4 0
0.333333 0.433333 0
0.333333 0.466667 0
0.333333 0.5 0
0.333333 0.533333 0
0.333333 0.566667 0
0.333333 0.6 0
0.333333 0.633333 0
0.333333 0.666667 0
0.333333 0.7 0
0.333333 0.733333 0
0.333333 0.766667 0
0.333333 0.8 0
0.333333 0.833333 0
0.333333 0.866667 0
0.333333 0.9 0
0.333333 0.933333 0
0.333333 0.966667 0
0.366667 0.0333333 0
0.366667 0.0666667 0
0.366667 0.1 0
0.366667 0.133333 0
0.366667 0.166667 0
0.366667 0.2 0
0.366667 0.233333 0
0.366667 0.266667 0
0.366667 0.3 0
0.366667 0.333333 0
0.366667 0.366667 0
0.366667 0.4 0
0.366667 0.433333 0
0.366667 0.466667 0
0.366667 0.5 0
0.366667 0.533333 0
0.366667 0.566667 0
0.366667 0.6 0
0.366667 0.633333 0
0.366667 0.666667 0
0.366667 0.7 0
0.366667 0.733333 0
0.366667 0.766667 0
0.366667 0.8 0
0.366667 0.833333 0
0.366667 0.866667 0
0.366667 0.9 0
0.366667 0.933333 0
0.366667 0.966667 0
0.4 0.0333333 0
0.4 0.0666667 0
0.4 0.1 0
0.4 0.133333 0
0.4 0.166667 0
0.4 0.2 0
0.4 0.233333 0
0.4 0.266667 0
0.4 0.3 0
0.4 0.333333 0
0.4 0.366667 0
0.4 0.4 0
0.4 0.433333 0
0.4 0.466667 0
0.4 0.5 0
0.4 0.533333 0
0.4 0.566667 0
0.4 0.6 0
0.4 0.633333 0
0.4 0.666667 0
0.4 0.7 0
0.4 0.733333 0
0.4 0.766667 0
0.4 0.8 0
0.4 0.833333 0
0.4 0.866667 0
0.4 0.9 0
0.4 0.933333 0
0.4 0.966667 0
0.433333 0.0333333 0
0.433333 0.0666667 0
0.433333 0.1 0
0.433333 0.133333 0
0.433333 0.166667 0
0.433333 0.2 0
0.433333 0.233333 0
0.433333 0.266667 0
0.433333 0.3 0
0.433333 0.333333 0
0.433333 0.366667 0
0.433333 0.4 0
0.433333 0.433333 0
0.433333 0.466667 0
0.433333 0.5 0
0.433333 0.533333 0
0.433333 0.566667 0
0.433333 0.6 0
0.433333 0.633333 0
0.433333 0.666667 0
0.433333 0.7 0
0.433333 0.733333 0
0.433333 0.766667 0
0.433333 0.8 0
0.433333 0.833333 0
0.433333 0.866667 0
0.433333 0.9 0
0.433333 0.933333 0
0.433333 0.966667 0
0.466667 0.0333333 0
0.466667 0.0666667 0
0.466667 0.1 0
0.466667 0.133333 0
0.466667 0.166667 0
0.466667 0.2 0
0.466667 0.233333 0
0.466667 0.266667 0
0.466667 0.3 0
0.466667 0.333333 0
0.466667 0.366667 0
0.466667 0.4 0
0.466667 0.433333 0
0.466667 0.466667 0
0.466667 0.5 0
0.466667 0.533333 0
0.466667 0.566667 0
0.466667 0.6 0
0.466667 0.633333 0
0.466667 0.666667 0
0.466667 0.7 0
0.466667 0.733333 0
0.466667 0.766667 0
0.466667 0.8 0
0.466667 0.833333 0
0.466667 0.866667 0
0.466667 0.9 0
0.466667 0.933333 0
0.466667 0.966667 0
0.5 0.0333333 0
0.5 0.0666667 0
0.5 0.1 0
0.5 0.133333 0
0.5 0.166667 0
0.5 0.2 0
0.5 0.233333 0
0.5 0.266667 0
0.5 0.3 0
0.5 0.333333 0
0.5 0.366667 0
0.5 0.4 0
0.5 0.433333 0
0.5 0.466667 0
0.5 0.5 0
0.5 0.533333 0
0.5 0.566667 0
0.5 0.6 0
0.5 0.633333 0
0.5 0.666667 0
0.5 0.7 0
0.5 0.733333 0
0.5 0.766667 0
0.5 0.8 0
0.5 0.833333 0
0.5 0.866667 0
0.5 0.9 0
0.5 0.933333 0
0.5 0.966667 0
0.533333 0.0333333 0
0.533333 0.0666667 0
0.533333 0.1 0
0.533333 0.133333 0
0.533333 0.166667 0
0.533333 0.2 0
0.533333 0.233333 0
0.533333 0.266667 0
0.533333 0.3 0
0.533333 0.333333 0
0.533333 0.366667 0
0.533333 0.4 0
0.533333 0.433333 0
0.533333 0.466667 0
0.533333 0.5 0
0.533333 0.533333 0
0.533333 0.566667 0
0.533333 0.6 0
0.533333 0.633333 0
0.533333 0.666667 0
0.533333 0.7 0
0.533333 0.733333 0
0.533333 0.766667 0
0.533333 0.8 0
0.533333 0.833333 0
0.533333 0.866667 0
0.533333 0.9 0
0.533333 0.933333 0
0.533333 0.966667 0
0.566667 0.0333333 0
0.566667 0.0666667 0
0.566667 0.1 0
0.566667 0.133333 0
0.566667 0.166667 0
0.566667 0.2 0
0.566667 0.233333 0
0.566667 0.266667 0
0.566667 0.3 0
0.566667 0.333333 0
0.566667 0.366667 0
0.566667 0.4 0
0.566667 0.433333 0
0.566667 0.466667 0
0.566667 0.5 0
0.566667 0.533333 0
0.566667 0.566667 0
0.566667 0.6 0
0.566667 0.633333 0
0.566667 0.666667 0
0.566667 0.7 0
0.566667 0.733333 0
0.566667 0.766667 0
0.566667 0.8 0
0.566667 0.833333 0
0.566667 0.866667 0
0.566667 0.9 0
0.566667 0.933333 0
0.566667 0.966667 0
0.6 0.0333333 0
0.6 0.0666667 0
0.6 0.1 0
0.6 0.133333 0
[...]
CELL_DATA 900
VECTORS velocity double
4.35145e-05 -4.24925e-05 0.0
-6.73271e-05 0.000140511 0.0
-0.000140425 0.000661815 0.0
-0.00018141 0.00133306 0.0
-0.00019881 0.00211084 0.0
-0.000209112 0.00294321 0.0
-0.00021905 0.00382735 0.0
-0.000232051 0.00476659 0.0
-0.000249051 0.00577405 0.0
-0.000270489 0.00686489 0.0
-0.000296729 0.008057 0.0
-0.000328363 0.00937074 0.0
-0.000366286 0.01083 0.0
-0.000411805 0.0124632 0.0
-0.000466827 0.0143058 0.0
-0.000534219 0.0164026 0.0
-0.000618536 0.0188127 0.0
-0.000727579 0.0216164 0.0
-0.000875766 0.0249288 0.0
-0.00109153 0.0289219 0.0
-0.00143287 0.0338662 0.0
-0.00201905 0.0402039 0.0
-0.00308846 0.0486783 0.0
-0.00510072 0.0605162 0.0
-0.00886007 0.0777654 0.0
-0.0156471 0.103211 0.0
-0.0263489 0.141788 0.0
-0.0382513 0.191149 0.0
-0.0128128 0.264692 0.0
0.217758 0.175075 0.0
-0.000142353 7.06504e-05 0.0
-0.00070358 0.000703376 0.0
-0.00109132 0.00195185 0.0
-0.00133294 0.00348018 0.0
-0.00147493 0.00523272 0.0
-0.00157929 0.00712303 0.0
-0.00168014 0.00914445 0.0
-0.00179663 0.0113029 0.0
-0.00193774 0.0136238 0.0
-0.00210901 0.016139 0.0
-0.00231522 0.0188872 0.0
-0.00256214 0.0219133 0.0
-0.00285749 0.0252704 0.0
-0.00321197 0.029022 0.0
-0.00364072 0.033246 0.0
-0.00416572 0.0380408 0.0
-0.00481975 0.0435336 0.0
-0.0056534 0.0498934 0.0
-0.00674732 0.0573511 0.0
-0.00823353 0.0662286 0.0
-0.0103302 0.0769791 0.0
-0.013394 0.0902356 0.0
-0.0179745 0.106841 0.0
-0.0248447 0.127775 0.0
-0.0348233 0.153847 0.0
-0.0483263 0.184549 0.0
-0.0627729 0.216362 0.0
-0.0679485 0.236296 0.0
-0.00291977 0.218351 0.0
0.307255 0.117199 0.0
-0.000663587 0.000141692 0.0
-0.00194682 0.00106568 0.0
-0.00282753 0.00276857 0.0
-0.00338675 0.00479869 0.0
-0.00374315 0.00710332 0.0
-0.00401815 0.00958307 0.0
-0.00428653 0.0122339 0.0
-0.00459117 0.0150651 0.0
-0.00495471 0.0181085 0.0
-0.00539165 0.0214041 0.0
-0.00591462 0.025 0.0
-0.00653809 0.0289517 0.0
-0.00728085 0.0333241 0.0
-0.00816837 0.0381935 0.0
-0.00923604 0.0436518 0.0
-0.010534 0.0498118 0.0
-0.0121349 0.0568144 0.0
-0.0141458 0.0648392 0.0
-0.0167273 0.0741177 0.0
-0.020121 0.0849498 0.0
-0.024683 0.0977181 0.0
-0.0309071 0.112887 0.0
-0.0393772 0.130936 0.0
-0.0505331 0.152168 0.0
-0.0639111 0.176124 0.0
-0.0766252 0.200599 0.0
-0.079113 0.218829 0.0
-0.0478203 0.219215 0.0
0.0878321 0.169722 0.0
0.477601 0.077069 0.0
-0.00131305 0.000176501 0.0
-0.00341718 0.00125035 0.0
-0.00482616 0.00317972 0.0
-0.00571493 0.00544388 0.0
-0.00629678 0.00799679 0.0
-0.00675655 0.0107352 0.0
-0.00721023 0.0136594 0.0
-0.00772383 0.0167803 0.0
-0.00833345 0.0201327 0.0
-0.00906242 0.0237582 0.0
-0.00993097 0.0277069 0.0
-0.0109618 0.0320358 0.0
-0.0121837 0.0368099 0.0
-0.013635 0.0421043 0.0
-0.0153677 0.0480066 0.0
-0.0174535 0.0546204 0.0
-0.0199931 0.0620687 0.0
-0.0231295 0.0704991 0.0
-0.0270662 0.0800864 0.0
-0.03209 0.0910333 0.0
-0.0385866 0.103556 0.0
-0.0470174 0.117848 0.0
-0.0577635 0.133955 0.0
-0.0706704 0.151562 0.0
-0.0839132 0.169367 0.0
-0.0918465 0.184497 0.0
-0.0805542 0.18989 0.0
-0.0198564 0.176891 0.0
0.156616 0.122107 0.0
0.573675 0.0485198 0.0
-0.0020293 0.00018257 0.0
-0.00501695 0.00129822 0.0
-0.00697631 0.00329196 0.0
-0.00820186 0.00561336 0.0
-0.00901404 0.00822011 0.0
-0.0096648 0.0110084 0.0
-0.0103119 0.0139812 0.0
-0.0110439 0.0171501 0.0
-0.0119098 0.0205495 0.0
-0.0129412 0.0242198 0.0
-0.0141649 0.0282084 0.0
-0.0156107 0.0325682 0.0
-0.0173153 0.037358 0.0
-0.0193265 0.0426433 0.0
-0.0217079 0.0484975 0.0
-0.0245449 0.0550028 0.0
-0.0279535 0.06225 0.0
-0.032092 0.0703383 0.0
-0.0371755 0.07937 0.0
-0.043487 0.0894404 0.0
-0.0513709 0.10061 0.0
-0.0611591 0.112853 0.0
-0.0729198 0.125932 0.0
-0.0858197 0.139212 0.0
-0.0967219 0.151129 0.0
-0.0976343 0.158882 0.0
-0.071369 0.156413 0.0
0.0155398 0.137326 0.0
0.220779 0.0866569 0.0
0.641203 0.029733 0.0
-0.00273927 0.00017671 0.0
-0.00661099 0.0012714 0.0
-0.00911068 0.00322686 0.0
-0.0106611 0.00549518 0.0
-0.0116928 0.00803636 0.0
-0.0125258 0.0107487 0.0
-0.0133583 0.0136364 0.0
-0.0143 0.0167104 0.0
-0.0154114 0.0200031 0.0
-0.0167305 0.0235517 0.0
-0.0182895 0.0273986 0.0
-0.0201225 0.03159 0.0
-0.0222714 0.0361755 0.0
-0.0247888 0.0412079 0.0
-0.0277435 0.046743 0.0
-0.0312249 0.052838 0.0
-0.0353509 0.0595496 0.0
-0.0402761 0.0669288 0.0
-0.0462004 0.0750116 0.0
-0.0533696 0.0838035 0.0
-0.0620471 0.0932477 0.0
-0.0724023 0.103176 0.0
-0.0841888 0.113197 0.0
-0.0959837 0.122564 0.0
-0.103619 0.129741 0.0
-0.097443 0.13233 0.0
-0.0582653 0.125452 0.0
0.047876 0.105233 0.0
0.271752 0.0618916 0.0
0.686852 0.0182604 0.0
-0.0034202 0.000165409 0.0
-0.00814644 0.00120277 0.0
-0.0111634 0.00305731 0.0
-0.0130221 0.00520467 0.0
-0.0142602 0.00760707 0.0
-0.0152638 0.0101674 0.0
-0.0162698 0.0128897 0.0
-0.0174076 0.015784 0.0
-0.0187474 0.0188797 0.0
-0.0203327 0.0222094 0.0
-0.0221988 0.0258102 0.0
-0.0243826 0.0297205 0.0
-0.0269276 0.0339799 0.0
-0.0298877 0.0386284 0.0
-0.0333309 0.0437043 0.0
-0.0373434 0.0492419 0.0
-0.0420348 0.0552676 0.0
-0.0475431 0.0617925 0.0
-0.0540375 0.0688021 0.0
-0.0617094 0.0762391 0.0
-0.0707278 0.0839742 0.0
-0.0810983 0.0917661 0.0
-0.0922932 0.0991693 0.0
-0.102405 0.105451 0.0
-0.106476 0.109244 0.0
-0.0936939 0.108625 0.0
-0.0437297 0.0997808 0.0
0.0768542 0.0805903 0.0
0.312627 0.0445927 0.0
0.718323 0.0112786 0.0
-0.00405414 0.000151979 0.0
-0.00958082 0.00111052 0.0
-0.0130798 0.00282433 0.0
-0.0152239 0.0048065 0.0
-0.0166514 0.00702209 0.0
-0.0178109 0.00938071 0.0
-0.018975 0.0118862 0.0
-0.0202911 0.014547 0.0
-0.0218377 0.0173892 0.0
-0.0236621 0.020441 0.0
-0.0258016 0.0237335 0.0
-0.0282936 0.0272979 0.0
-0.0311808 0.0311646 0.0
-0.034515 0.0353619 0.0
-0.0383591 0.0399133 0.0
-0.0427908 0.0448343 0.0
-0.0479046 0.0501279 0.0
-0.0538145 0.0557764 0.0
-0.0606518 0.0617312 0.0
-0.0685484 0.0678976 0.0
-0.0775815 0.0741099 0.0
-0.0876122 0.0801013 0.0
-0.0978822 0.0854329 0.0
-0.106111 0.0894443 0.0
-0.106765 0.0909804 0.0
-0.0882459 0.0885463 0.0
-0.0296379 0.0792201 0.0
0.101567 0.0619726 0.0
0.344882 0.0325501 0.0
0.740391 0.00707487 0.0
-0.00463264 0.00013708 0.0
-0.0108905 0.00100195 0.0
-0.014828 0.0025471 0.0
-0.017231 0.00433238 0.0
-0.0188294 0.00632646 0.0
-0.0201288 0.00844766 0.0
-0.0214347 0.0106995 0.0
-0.02291 0.0130891 0.0
-0.0246405 0.0156391 0.0
-0.0266762 0.0183734 0.0
-0.0290547 0.0213178 0.0
-0.0318127 0.0244971 0.0
-0.0349905 0.0279339 0.0
-0.0386351 0.031647 0.0
-0.042802 0.0356486 0.0
-0.0475566 0.0399409 0.0
-0.0529754 0.0445105 0.0
-0.0591451 0.0493222 0.0
-0.0661575 0.0543084 0.0
-0.0740878 0.0593574 0.0
-0.0829309 0.0642929 0.0
-0.0924272 0.0688537 0.0
-0.101637 0.0726389 0.0
-0.107996 0.0750813 0.0
-0.105551 0.0752315 0.0
-0.0821764 0.0719404 0.0
-0.016687 0.0629802 0.0
0.122344 0.0479489 0.0
0.370305 0.0240997 0.0
0.756176 0.00454266 0.0
-0.00514801 0.000120859 0.0
-0.0120561 0.000880436 0.0
-0.0163821 0.00223527 0.0
-0.0190138 0.00379884 0.0
-0.0207626 0.00554419 0.0
-0.0221852 0.00739996 0.0
-0.0236157 0.00936949 0.0
-0.0252307 0.011459 0.0
-0.0271218 0.0136879 0.0
-0.0293408 0.0160762 0.0
-0.0319252 0.0186452 0.0
-0.0349095 0.0214142 0.0
-0.0383307 0.0244002 0.0
-0.0422297 0.027615 0.0
-0.0466532 0.0310634 0.0
-0.051653 0.0347391 0.0
-0.0572865 0.0386202 0.0
-0.0636134 0.0426628 0.0
-0.0706882 0.0467931 0.0
-0.0785353 0.0508968 0.0
-0.0870802 0.0548048 0.0
-0.0959662 0.0582784 0.0
-0.104112 0.0609681 0.0
-0.108742 0.0623995 0.0
-0.103595 0.0618019 0.0
-0.0761921 0.058291 0.0
-0.00525237 0.0501591 0.0
0.139581 0.0373415 0.0
0.390344 0.0181024 0.0
0.767699 0.00300712 0.0
-0.00559408 0.000103277 0.0
-0.0130622 0.000747707 0.0
-0.0177216 0.00189435 0.0
-0.0205491 0.00321579 0.0
-0.0224267 0.00469004 0.0
-0.0239551 0.00625744 0.0
-0.0254929 0.00792142 0.0
-0.0272282 0.0096876 0.0
-0.0292573 0.0115725 0.0
-0.0316331 0.013593 0.0
-0.0343923 0.0157664 0.0
-0.0375673 0.0181084 0.0
-0.0411909 0.0206317 0.0
-0.045298 0.0233442 0.0
-0.0499258 0.0262467 0.0
-0.0551133 0.0293295 0.0
-0.0608991 0.0325682 0.0
-0.0673183 0.0359185 0.0
-0.074392 0.0393093 0.0
-0.0821011 0.0426347 0.0
-0.090314 0.0457432 0.0
-0.0985969 0.048427 0.0
-0.105759 0.0503901 0.0
-0.108862 0.0512408 0.0
-0.101415 0.0503525 0.0
-0.0706952 0.0470355 0.0
0.0045854 0.0399506 0.0
0.153749 0.0292406 0.0
0.406163 0.0137765 0.0
0.776277 0.00206125 0.0
-0.00596512 8.43712e-05 0.0
-0.0138958 0.000605167 0.0
-0.0188291 0.00152859 0.0
-0.0218173 0.00259087 0.0
-0.023801 0.00377545 0.0
-0.0254174 0.00503543 0.0
-0.0270452 0.00637462 0.0
-0.0288817 0.0077984 0.0
-0.0310269 0.00932077 0.0
-0.0335345 0.0109559 0.0
-0.0364403 0.0127184 0.0
-0.0397746 0.0146212 0.0
-0.0435663 0.0166748 0.0
-0.0478446 0.0188855 0.0
-0.0526384 0.0212536 0.0
-0.0579746 0.0237701 0.0
-0.0638758 0.0264135 0.0
-0.0703551 0.0291453 0.0
-0.0774054 0.0319042 0.0
-0.0849711 0.0346002 0.0
-0.0928743 0.0371053 0.0
-0.100619 0.039246 0.0
-0.106928 0.0407767 0.0
-0.108732 0.0413742 0.0
-0.0993646 0.0405242 0.0
-0.0659265 0.0376675 0.0
0.0127994 0.0317579 0.0
0.165281 0.0229694 0.0
0.418663 0.0105963 0.0
0.782771 0.00146385 0.0
-0.00625615 6.42446e-05 0.0
-0.0145458 0.000454208 0.0
-0.0196903 0.00114193 0.0
-0.0228022 0.00193102 0.0
-0.0248686 0.00281068 0.0
-0.0265549 0.00374763 0.0
-0.0282553 0.00474623 0.0
-0.0301742 0.0058119 0.0
-0.0324145 0.00695647 0.0
-0.0350304 0.00819196 0.0
-0.0380573 0.00953083 0.0
-0.0415234 0.0109846 0.0
-0.045455 0.0125631 0.0
-0.0498766 0.0142733 0.0
-0.0548103 0.0161176 0.0
-0.0602732 0.0180913 0.0
-0.0662746 0.0201803 0.0
-0.0728095 0.0223569 0.0
-0.0798478 0.0245753 0.0
-0.087304 0.0267662 0.0
-0.0949616 0.0288293 0.0
-0.102274 0.0306258 0.0
-0.107889 0.0319554 0.0
-0.108633 0.0325491 0.0
-0.097689 0.0319762 0.0
-0.0620296 0.0297597 0.0
0.0194728 0.0250641 0.0
0.174557 0.0180188 0.0
0.428527 0.00819981 0.0
0.787749 0.0010716 0.0
-0.00646292 4.30581e-05 0.0
-0.015003 0.000296333 0.0
-0.0202932 0.000738365 0.0
-0.0234907 0.00124314 0.0
-0.0256156 0.00180579 0.0
-0.0273534 0.00240727 0.0
-0.029109 0.00305257 0.0
-0.0310918 0.00374734 0.0
-0.0334066 0.00450141 0.0
-0.0361085 0.00532502 0.0
-0.0392327 0.00622912 0.0
-0.0428066 0.00722464 0.0
-0.0468547 0.00832201 0.0
-0.0513987 0.00953044 0.0
-0.0564562 0.0108567 0.0
-0.0620374 0.0123037 0.0
-0.0681417 0.0138681 0.0
-0.0747506 0.0155371 0.0
-0.0818156 0.0172848 0.0
-0.0892269 0.0190672 0.0
-0.0967358 0.0208144 0.0
-0.10375 0.0224221 0.0
-0.108853 0.0237304 0.0
-0.108772 0.0245113 0.0
-0.096562 0.0243923 0.0
-0.0590884 0.0229429 0.0
0.0246894 0.0194635 0.0
0.181883 0.0140111 0.0
0.436263 0.00633731 0.0
0.791588 0.000799845 0.0
-0.00658202 2.10091e-05 0.0
-0.0152603 0.000133156 0.0
-0.0206288 0.00032208 0.0
-0.0238726 0.000534293 0.0
-0.0260313 0.000770957 0.0
-0.0278019 0.00102763 0.0
-0.029595 0.00130987 0.0
-0.0316229 0.00162358 0.0
-0.0339919 0.00197661 0.0
-0.0367579 0.00237758 0.0
-0.0399567 0.00283627 0.0
-0.0436161 0.00336348 0.0
-0.0477607 0.00397109 0.0
-0.0524113 0.00467172 0.0
-0.0575835 0.00547831 0.0
-0.0632846 0.00640342 0.0
-0.0695081 0.0074575 0.0
-0.0762267 0.00864638 0.0
-0.0833786 0.00996813 0.0
-0.0908348 0.0114079 0.0
-0.0983181 0.0129297 0.0
-0.105194 0.0144648 0.0
-0.109981 0.0158897 0.0
-0.10931 0.0170064 0.0
-0.0961123 0.0174785 0.0
-0.0571556 0.0168929 0.0
0.0285214 0.0146299 0.0
0.187488 0.0106581 0.0
0.442236 0.00483264 0.0
0.794533 0.00059815 0.0
-0.00661089 -1.67726e-06 0.0
-0.0153126 -3.3623e-05 0.0
-0.0206907 -0.000102596 0.0
-0.0239408 -0.000188196 0.0
-0.0261082 -0.000283282 0.0
-0.0278923 -0.000377626 0.0
-0.0297046 -0.000465293 0.0
-0.0317582 -0.000540318 0.0
-0.0341602 -0.000596976 0.0
-0.0369677 -0.000628352 0.0
-0.040218 -0.000625891 0.0
-0.0439407 -0.000578741 0.0
-0.0481622 -0.000473315 0.0
-0.0529052 -0.000292865 0.0
-0.0581871 -1.72381e-05 0.0
-0.0640162 0.000377113 0.0
-0.0703846 0.000916474 0.0
-0.0772617 0.00162858 0.0
-0.0845782 0.00253958 0.0
-0.0921906 0.00366866 0.0
-0.0997955 0.00501825 0.0
-0.106715 0.00655872 0.0
-0.111398 0.00820226 0.0
-0.110374 0.00977272 0.0
-0.0964451 0.0109499 0.0
-0.0562814 0.0113132 0.0
0.0310148 0.0102801 0.0
0.191537 0.00772102 0.0
0.4467 0.00355145 0.0
0.796745 0.000434593 0.0
-0.00654807 -2.48037e-05 0.0
-0.0151571 -0.000202383 0.0
-0.0204754 -0.000531283 0.0
-0.0236913 -0.000916674 0.0
-0.025842 -0.00134577 0.0
-0.0276197 -0.00179398 0.0
-0.0294321 -0.00225532 0.0
-0.031491 -0.0027241 0.0
-0.0339036 -0.00319706 0.0
-0.0367287 -0.00366937 0.0
-0.0400059 -0.00413409 0.0
-0.0437683 -0.00458072 0.0
-0.048046 -0.00499426 0.0
-0.0528668 -0.00535405 0.0
-0.0582528 -0.00563259 0.0
-0.0642176 -0.00579481 0.0
-0.0707588 -0.005797 0.0
-0.0778492 -0.0055869 0.0
-0.0854184 -0.00510601 0.0
-0.0933141 -0.0042949 0.0
-0.10121 -0.00310487 0.0
-0.108383 -0.00151935 0.0
-0.113202 0.000411346 0.0
-0.11207 0.00252577 0.0
-0.0976497 0.00450722 0.0
-0.0565103 0.00590848 0.0
0.0321827 0.00614769 0.0
0.194114 0.00498366 0.0
0.449798 0.00237866 0.0
0.79831 0.000285992 0.0
-0.00639267 -4.81344e-05 0.0
-0.0147929 -0.000371269 0.0
-0.0199823 -0.000959128 0.0
-0.023124 -0.00164284 0.0
-0.0252317 -0.00240453 0.0
-0.0269823 -0.00320584 0.0
-0.0287745 -0.00404126 0.0
-0.0308163 -0.00490583 0.0
-0.0332148 -0.00579933 0.0
-0.0360305 -0.0067197 0.0
-0.0393065 -0.0076624 0.0
-0.0430803 -0.00861826 0.0
-0.0473886 -0.00957195 0.0
-0.0522666 -0.0105 0.0
-0.057746 -0.0113687 0.0
-0.0638513 -0.0121316 0.0
-0.0705919 -0.0127272 0.0
-0.0779523 -0.0130769 0.0
-0.0858701 -0.0130861 0.0
-0.0941923 -0.012648 0.0
-0.102573 -0.0116572 0.0
-0.110236 -0.0100372 0.0
-0.11545 -0.00778935 0.0
-0.114482 -0.00505546 0.0
-0.0998384 -0.00216798 0.0
-0.0579459 0.000353797 0.0
0.0320001 0.00192521 0.0
0.195253 0.00220842 0.0
0.451587 0.00119919 0.0
0.799256 0.000133565 0.0
-0.0061452 -7.13567e-05 0.0
-0.0142218 -0.000538078 0.0
-0.0192144 -0.00138069 0.0
-0.0222418 -0.00235766 0.0
-0.0242805 -0.00344668 0.0
-0.0259822 -0.00459648 0.0
-0.0277322 -0.00580259 0.0
-0.0297326 -0.00706148 0.0
-0.0320895 -0.00837672 0.0
-0.0348652 -0.00975 0.0
-0.0381069 -0.0111804 0.0
-0.0418581 -0.0126616 0.0
-0.0461635 -0.0141799 0.0
-0.051069 -0.015711 0.0
-0.0566202 -0.0172173 0.0
-0.0628581 -0.0186432 0.0
-0.0698125 -0.0199109 0.0
-0.0774895 -0.0209158 0.0
-0.085847 -0.0215242 0.0
-0.0947437 -0.0215753 0.0
-0.103823 -0.0208944 0.0
-0.112256 -0.019326 0.0
-0.118191 -0.016795 0.0
-0.117701 -0.0134018 0.0
-0.103069 -0.00949573 0.0
-0.0606146 -0.00570731 0.0
0.0303516 -0.00267635 0.0
0.194816 -0.000862995 0.0
0.451979 -0.000138039 0.0
0.79955 -5.20232e-05 0.0
-0.0058073 -9.41416e-05 0.0
-0.0134484 -0.000700456 0.0
-0.018178 -0.0017901 0.0
-0.0210521 -0.00305134 0.0
-0.0229952 -0.00445813 0.0
-0.0246255 -0.00594738 0.0
-0.0263098 -0.00751634 0.0
-0.028242 -0.00916372 0.0
-0.0305262 -0.0108978 0.0
-0.0332266 -0.0127252 0.0
-0.0363945 -0.0146503 0.0
-0.0400804 -0.0166717 0.0
-0.0443385 -0.01878 0.0
-0.0492282 -0.0209537 0.0
-0.0548126 -0.0231549 0.0
-0.0611561 -0.0253235 0.0
-0.0683175 -0.0273694 0.0
-0.0763368 -0.0291649 0.0
-0.0852085 -0.0305375 0.0
-0.0948207 -0.031267 0.0
-0.104823 -0.0310959 0.0
-0.114339 -0.0297657 0.0
-0.121384 -0.0270914 0.0
-0.121792 -0.0230915 0.0
-0.107544 -0.0180925 0.0
-0.0647495 -0.0128304 0.0
0.0271693 -0.00806813 0.0
0.192743 -0.00450782 0.0
0.45076 -0.00177764 0.0
0.799026 -0.000303011 0.0
-0.00538193 -0.000116172 0.0
-0.0124802 -0.000855896 0.0
-0.0168834 -0.00218096 0.0
-0.0195663 -0.00371309 0.0
-0.0213874 -0.00542323 0.0
-0.022923 -0.00723784 0.0
-0.0245163 -0.00915653 0.0
-0.026351 -0.0111811 0.0
-0.028528 -0.0133255 0.0
-0.0311125 -0.0156027 0.0
-0.03416 -0.0180243 0.0
-0.0377278 -0.0205965 0.0
-0.0418807 -0.0233175 0.0
-0.0466929 -0.0261734 0.0
-0.0522488 -0.0291321 0.0
-0.0586417 -0.0321357 0.0
-0.0659686 -0.0350901 0.0
-0.0743184 -0.037852 0.0
-0.0837418 -0.0402153 0.0
-0.0941826 -0.0419001 0.0
-0.105324 -0.0425548 0.0
-0.116264 -0.0417906 0.0
-0.124878 -0.0392664 0.0
-0.126716 -0.0348564 0.0
-0.113363 -0.0287989 0.0
-0.0706192 -0.0218989 0.0
0.0220359 -0.0150153 0.0
0.188631 -0.00924422 0.0
0.447611 -0.00396324 0.0
0.79749 -0.000670002 0.0
-0.00487352 -0.000137145 0.0
-0.011328 -0.00100163 0.0
-0.0153451 -0.00254602 0.0
-0.0178009 -0.00433056 0.0
-0.0194741 -0.00632395 0.0
-0.0208911 -0.00844376 0.0
-0.0223671 -0.0106926 0.0
-0.0240729 -0.013076 0.0
-0.0261047 -0.0156146 0.0
-0.0285278 -0.0183292 0.0
-0.0314007 -0.0212402 0.0
-0.0347869 -0.0243647 0.0
-0.038761 -0.0277127 0.0
-0.0434127 -0.0312835 0.0
-0.0488489 -0.0350587 0.0
-0.055196 -0.0389931 0.0
-0.0625982 -0.0430012 0.0
-0.0712077 -0.0469388 0.0
-0.0811556 -0.0505807 0.0
-0.0924761 -0.0535972 0.0
-0.104929 -0.0555415 0.0
-0.117628 -0.0558718 0.0
-0.128332 -0.0540374 0.0
-0.132276 -0.0496776 0.0
-0.120551 -0.042824 0.0
-0.0784998 -0.0342355 0.0
0.0144883 -0.0247629 0.0
0.181884 -0.0160557 0.0
0.441854 -0.00722511 0.0
0.7945 -0.00127115 0.0
-0.00428779 -0.000156791 0.0
-0.0100063 -0.00113432 0.0
-0.0135827 -0.00287618 0.0
-0.0157779 -0.00488817 0.0
-0.0172783 -0.00713753 0.0
-0.0185529 -0.00953468 0.0
-0.0198846 -0.0120855 0.0
-0.0214287 -0.0148 0.0
-0.0232748 -0.0177061 0.0
-0.0254867 -0.0208331 0.0
-0.0281242 -0.0242128 0.0
-0.0312548 -0.0278754 0.0
-0.0349611 -0.0318472 0.0
-0.0393457 -0.0361472 0.0
-0.0445373 -0.0407801 0.0
-0.0506964 -0.0457267 0.0
-0.0580188 -0.0509283 0.0
-0.0667331 -0.0562637 0.0
-0.0770757 -0.0615167 0.0
-0.0892127 -0.0663368 0.0
-0.103042 -0.0702026 0.0
-0.117764 -0.0724176 0.0
-0.131087 -0.0721769 0.0
-0.13795 -0.0687728 0.0
-0.128889 -0.0618454 0.0
-0.0886307 -0.0518413 0.0
0.00378126 -0.0393741 0.0
0.171404 -0.0266063 0.0
0.432218 -0.0125278 0.0
0.789185 -0.00235109 0.0
-0.003633 -0.000174588 0.0
-0.00853559 -0.00124865 0.0
-0.0116234 -0.00315757 0.0
-0.0135283 -0.0053627 0.0
-0.0148327 -0.00783048 0.0
-0.0159422 -0.0104661 0.0
-0.0171031 -0.0132786 0.0
-0.0184528 -0.0162827 0.0
-0.0200724 -0.0195135 0.0
-0.0220218 -0.0230096 0.0
-0.0243593 -0.026815 0.0
-0.0271533 -0.0309751 0.0
-0.0304899 -0.0355365 0.0
-0.0344803 -0.0405437 0.0
-0.0392694 -0.0460341 0.0
-0.0450471 -0.0520298 0.0
-0.0520592 -0.0585218 0.0
-0.0606153 -0.065445 0.0
-0.0710759 -0.0726381 0.0
-0.0837802 -0.0797865 0.0
-0.0988366 -0.0863553 0.0
-0.115643 -0.0915386 0.0
-0.131984 -0.0942737 0.0
-0.14262 -0.0934021 0.0
-0.137577 -0.0879224 0.0
-0.100865 -0.0774964 0.0
-0.0108469 -0.0620332 0.0
0.155603 -0.0436244 0.0
0.416648 -0.0215792 0.0
0.779972 -0.00440124 0.0
-0.00291934 -0.000189425 0.0
-0.00694276 -0.0013351 0.0
-0.00950281 -0.00336612 0.0
-0.0110917 -0.00571469 0.0
-0.0121793 -0.00834672 0.0
-0.0131024 -0.0111642 0.0
-0.014068 -0.0141785 0.0
-0.0151928 -0.0174085 0.0
-0.0165471 -0.0208957 0.0
-0.0181841 -0.0246877 0.0
-0.0201575 -0.0288403 0.0
-0.0225318 -0.0334149 0.0
-0.0253907 -0.0384798 0.0
-0.0288458 -0.0441087 0.0
-0.033048 -0.0503794 0.0
-0.0382041 -0.0573685 0.0
-0.0445969 -0.0651406 0.0
-0.0526068 -0.0737259 0.0
-0.0627195 -0.0830795 0.0
-0.0754744 -0.0930131 0.0
-0.0912629 -0.103096 0.0
-0.109818 -0.112539 0.0
-0.129215 -0.120113 0.0
-0.144318 -0.124177 0.0
-0.144929 -0.122826 0.0
-0.114489 -0.114286 0.0
-0.0303583 -0.0968516 0.0
0.131677 -0.0712595 0.0
0.391305 -0.0374244 0.0
0.76359 -0.00847131 0.0
-0.00216802 -0.000197445 0.0
-0.00527601 -0.00137291 0.0
-0.00728241 -0.00345539 0.0
-0.00853685 -0.00587099 0.0
-0.00939118 -0.00858426 0.0
-0.0101117 -0.011496 0.0
-0.0108629 -0.0146182 0.0
-0.0117392 -0.0179724 0.0
-0.0127975 -0.0216045 0.0
-0.0140819 -0.0255693 0.0
-0.0156374 -0.029932 0.0
-0.0175198 -0.0347682 0.0
-0.0198031 -0.0401656 0.0
-0.0225886 -0.0462263 0.0
-0.0260188 -0.0530696 0.0
-0.0302963 -0.060833 0.0
-0.0357134 -0.0696705 0.0
-0.0426886 -0.0797424 0.0
-0.0517999 -0.0911869 0.0
-0.0637716 -0.104058 0.0
-0.0793111 -0.118211 0.0
-0.098616 -0.133117 0.0
-0.120332 -0.147637 0.0
-0.139887 -0.159805 0.0
-0.14749 -0.166694 0.0
-0.126614 -0.164419 0.0
-0.0537684 -0.148449 0.0
0.0978575 -0.115386 0.0
0.352018 -0.0652527 0.0
0.735046 -0.016698 0.0
-0.00140628 -0.000191607 0.0
-0.00359605 -0.00132678 0.0
-0.00503733 -0.00334739 0.0
-0.00594447 -0.00570822 0.0