# vtk DataFile Version 3.0
Malha 2D com triângulos e temperatura
ASCII
DATASET UNSTRUCTURED_GRID

POINTS 961 double
0 0 0
1 0 0
1 1 0
0 1 0
0.0333333 0 0
0.0666667 0 0
0.1 0 0
0.133333 0 0
0.166667 0 0
0.2 0 0
0.233333 0 0
0.266667 0 0
0.3 0 0
0.333333 0 0
0.366667 0 0
0.4 0 0
0.433333 0 0
0.466667 0 0
0.5 0 0
0.533333 0 0
0.566667 0 0
0.6 0 0
0.633333 0 0
0.666667 0 0
0.7 0 0
0.733333 0 0
0.766667 0 0
0.8 0 0
0.833333 0 0
0.866667 0 0
0.9 0 0
0.933333 0 0
0.966667 0 0
1 0.0333333 0
1 0.0666667 0
1 0.1 0
1 0.133333 0
1 0.166667 0
1 0.2 0
1 0.233333 0
1 0.266667 0
1 0.3 0
1 0.333333 0
1 0.366667 0
1 0.4 0
1 0.433333 0
1 0.466667 0
1 0.5 0
1 0.533333 0
1 0.566667 0
1 0.6 0
1 0.633333 0
1 0.666667 0
1 0.7 0
1 0.733333 0
1 0.766667 0
1 0.8 0
1 0.833333 0
1 0.866667 0
1 0.9 0
1 0.933333 0
1 0.966667 0
0.966667 1 0
0.933333 1 0
0.9 1 0
0.866667 1 0
0.833333 1 0
0.8 1 0
0.766667 1 0
0.733333 1 0
0.7 1 0
0.666667 1 0
0.633333 1 0
0.6 1 0
0.566667 1 0
0.533333 1 0
0.5 1 0
0.466667 1 0
0.433333 1 0
0.4 1 0
0.366667 1 0
0.333333 1 0
0.3 1 0
0.266667 1 0
0.233333 1 0
0.2 1 0
0.166667 1 0
0.133333 1 0
0.1 1 0
0.0666667 1 0
0.0333333 1 0
0 0.966667 0
0 0.933333 0
0 0.9 0
0 0.866667 0
0 0.833333 0
0 0.8 0
0 0.766667 0
0 0.733333 0
0 0.7 0
0 0.666667 0
0 0.633333 0
0 0.6 0
0 0.566667 0
0 0.533333 0
0 0.5 0
0 0.466667 0
0 0.433333 0
0 0.4 0
0 0.366667 0
0 0.333333 0
0 0.3 0
0 0.266667 0
0 0.233333 0
0 0.2 0
0 0.166667 0
0 0.133333 0
0 0.1 0
0 0.0666667 0
0 0.0333333 0
0.0333333 0.0333333 0
0.0333333 0.0666667 0
0.0333333 0.1 0
0.0333333 0.133333 0
0.0333333 0.166667 0
0.0333333 0.2 0
0.0333333 0.233333 0
0.0333333 0.266667 0
0.0333333 0.3 0
0.0333333 0.333333 0
0.0333333 0.366667 0
0.0333333 0.4 0
0.0333333 0.433333 0
0.0333333 0.466667 0
0.0333333 0.5 0
0.0333333 0.533333 0
0.0333333 0.566667 0
0.0333333 0.6 0
0.0333333 0.633333 0
0.0333333 0.666667 0
0.0333333 0.7 0
0.0333333 0.733333 0
0.0333333 0.766667 0
0.0333333 0.8 0
0.0333333 0.833333 0
0.0333333 0.866667 0
0.0333333 0.9 0
0.0333333 0.933333 0
0.0333333 0.966667 0
0.0666667 0.0333333 0
0.0666667 0.0666667 0
0.0666667 0.1 0
0.0666667 0.133333 0
0.0666667 0.166667 0
0.0666667 0.2 0
0.0666667 0.233333 0
0.0666667 0.266667 0
0.0666667 0.3 0
0.0666667 0.333333 0
0.0666667 0.366667 0
0.0666667 0.4 0
0.0666667 0.433333 0
0.0666667 0.466667 0
0.0666667 0.5 0
0.0666667 0.533333 0
0.0666667 0.566667 0
0.0666667 0.6 0
0.0666667 0.633333 0
0.0666667 0.666667 0
0.0666667 0.7 0
0.0666667 0.733333 0
0.0666667 0.766667 0
0.0666667 0.8 0
0.0666667 0.833333 0
0.0666667 0.866667 0
0.0666667 0.9 0
0.0666667 0.933333 0
0.0666667 0.966667 0
0.1 0.0333333 0
0.1 0.0666667 0
0.1 0.1 0
0.1 0.133333 0
0.1 0.166667 0
0.1 0.2 0
0.1 0.233333 0
0.1 0.266667 0
0.1 0.3 0
0.1 0.333333 0
0.1 0.366667 0
0.1 0.4 0
0.1 0.433333 0
0.1 0.466667 0
0.1 0.5 0
0.1 0.533333 0
0.1 0.566667 0
0.1 0.6 0
0.1 0.633333 0
0.1 0.666667 0
0.1 0.7 0
0.1 0.733333 0
0.1 0.766667 0
0.1 0.8 0
0.1 0.833333 0
0.1 0.866667 0
0.1 0.9 0
0.1 0.933333 0
0.1 0.966667 0
0.133333 0.0333333 0
0.133333 0.0666667 0
0.133333 0.1 0
0.133333 0.133333 0
0.133333 0.166667 0
0.133333 0.2 0
0.133333 0.233333 0
0.133333 0.266667 0
0.133333 0.3 0
0.133333 0.333333 0
0.133333 0.366667 0
0.133333 0.4 0
0.133333 0.433333 0
0.133333 0.466667 0
0.133333 0.5 0
0.133333 0.533333 0
0.133333 0.566667 0
0.133333 0.6 0
0.133333 0.633333 0
0.133333 0.666667 0
0.133333 0.7 0
0.133333 0.733333 0
0.133333 0.766667 0
0.133333 0.8 0
0.133333 0.833333 0
0.133333 0.866667 0
0.133333 0.9 0
0.133333 0.933333 0
0.133333 0.966667 0
0.166667 0.0333333 0
0.166667 0.0666667 0
0.166667 0.1 0
0.166667 0.133333 0
0.166667 0.166667 0
0.166667 0.2 0
0.166667 0.233333 0
0.166667 0.266667 0
0.166667 0.3 0
0.166667 0.333333 0
0.166667 0.366667 0
0.166667 0.4 0
0.166667 0.433333 0
0.166667 0.466667 0
0.166667 0.5 0
0.166667 0.533333 0
0.166667 0.566667 0
0.166667 0.6 0
0.166667 0.633333 0
0.166667 0.666667 0
0.166667 0.7 0
0.166667 0.733333 0
0.166667 0.766667 0
0.166667 0.8 0
0.166667 0.833333 0
0.166667 0.866667 0
0.166667 0.9 0
0.166667 0.933333 0
0.166667 0.966667 0
0.2 0.0333333 0
0.2 0.0666667 0
0.2 0.1 0
0.2 0.133333 0
0.2 0.166667 0
0.2 0.2 0
0.2 0.233333 0
0.2 0.266667 0
0.2 0.3 0
0.2 0.333333 0
0.2 0.366667 0
0.2 0.4 0
0.2 0.433333 0
0.2 0.466667 0
0.2 0.5 0
0.2 0.533333 0
0.2 0.566667 0
0.2 0.6 0
0.2 0.633333 0
0.2 0.666667 0
0.2 0.7 0
0.2 0.733333 0
0.2 0.766667 0
0.2 0.8 0
0.2 0.833333 0
0.2 0.866667 0
0.2 0.9 0
0.2 0.933333 0
0.2 0.966667 0
0.233333 0.0333333 0
0.233333 0.0666667 0
0.233333 0.1 0
0.233333 0.133333 0
0.233333 0.166667 0
0.233333 0.2 0
0.233333 0.233333 0
0.233333 0.266667 0
0.233333 0.3 0
0.233333 0.333333 0
0.233333 0.366667 0
0.233333 0.4 0
0.233333 0.433333 0
0.233333 0.466667 0
0.233333 0.5 0
0.233333 0.533333 0
0.233333 0.566667 0
0.233333 0.6 0
0.233333 0.633333 0
0.233333 0.666667 0
0.233333 0.7 0
0.233333 0.733333 0
0.233333 0.766667 0
0.233333 0.8 0
0.233333 0.833333 0
0.233333 0.866667 0
0.233333 0.9 0
0.233333 0.933333 0
0.233333 0.966667 0
0.266667 0.0333333 0
0.266667 0.0666667 0
0.266667 0.1 0
0.266667 0.133333 0
0.266667 0.166667 0
0.266667 0.2 0
0.266667 0.233333 0
0.266667 0.266667 0
0.266667 0.3 0
0.266667 0.333333 0
0.266667 0.366667 0
0.266667 0.4 0
0.266667 0.433333 0
0.266667 0.466667 0
0.266667 0.5 0
0.266667 0.533333 0
0.266667 0.566667 0
0.266667 0.6 0
0.266667 0.633333 0
0.266667 0.666667 0
0.266667 0.7 0
0.266667 0.733333 0
0.266667 0.766667 0
0.266667 0.8 0
0.266667 0.833333 0
0.266667 0.866667 0
0.266667 0.9 0
0.266667 0.933333 0
0.266667 0.966667 0
0.3 0.0333333 0
0.3 0.0666667 0
0.3 0.1 0
0.3 0.133333 0
0.3 0.166667 0
0.3 0.2 0
0.3 0.233333 0
0.3 0.266667 0
0.3 0.3 0
0.3 0.333333 0
0.3 0.366667 0
0.3 0.4 0
0.3 0.433333 0
0.3 0.466667 0
0.3 0.5 0
0.3 0.533333 0
0.3 0.566667 0
0.3 0.6 0
0.3 0.633333 0
0.3 0.666667 0
0.3 0.7 0
0.3 0.733333 0
0.3 0.766667 0
0.3 0.8 0
0.3 0.833333 0
0.3 0.866667 0
0.3 0.9 0
0.3 0.933333 0
0.3 0.966667 0
0.333333 0.0333333 0
0.333333 0.0666667 0
0.333333 0.1 0
0.333333 0.133333 0
0.333333 0.166667 0
0.333333 0.2 0
0.333333 0.233333 0
0.333333 0.266667 0
0.333333 0.3 0
0.333333 0.333333 0
0.333333 0.366667 0
0.333333 0.4 0
0.333333 0.433333 0
0.333333 0.466667 0
0.333333 0.5 0
0.333333 0.533333 0
0.333333 0.566667 0
0.333333 0.6 0
0.333333 0.633333 0
0.333333 0.666667 0
0.333333 0.7 0
0.333333 0.733333 0
0.333333 0.766667 0
0.333333 0.8 0
0.333333 0.833333 0
0.333333 0.866667 0
0.333333 0.9 0
0.333333 0.933333 0
0.333333 0.966667 0
0.366667 0.0333333 0
0.366667 0.0666667 0
0.366667 0.1 0
0.366667 0.133333 0
0.366667 0.166667 0
0.366667 0.2 0
0.366667 0.233333 0
0.366667 0.266667 0
0.366667 0.3 0
0.366667 0.333333 0
0.366667 0.366667 0
0.366667 0.4 0
0.366667 0.433333 0
0.366667 0.466667 0
0.366667 0.5 0
0.366667 0.533333 0
0.366667 0.566667 0
0.366667 0.6 0
0.366667 0.633333 0
0.366667 0.666667 0
0.366667 0.7 0
0.366667 0.733333 0
0.366667 0.766667 0
0.366667 0.8 0
0.366667 0.833333 0
0.366667 0.866667 0
0.366667 0.9 0
0.366667 0.933333 0
0.366667 0.966667 0
0.4 0.0333333 0
0.4 0.0666667 0
0.4 0.1 0
0.4 0.133333 0
0.4 0.166667 0
0.4 0.2 0
0.4 0.233333 0
0.4 0.266667 0
0.4 0.3 0
0.4 0.333333 0
0.4 0.366667 0
0.4 0.4 0
0.4 0.433333 0
0.4 0.466667 0
0.4 0.5 0
0.4 0.533333 0
0.4 0.566667 0
0.4 0.6 0
0.4 0.633333 0
0.4 0.666667 0
0.4 0.7 0
0.4 0.733333 0
0.4 0.766667 0
0.4 0.8 0
0.4 0.833333 0
0.4 0.866667 0
0.4 0.9 0
0.4 0.933333 0
0.4 0.966667 0
0.433333 0.0333333 0
0.433333 0.0666667 0
0.433333 0.1 0
0.433333 0.133333 0
0.433333 0.166667 0
0.433333 0.2 0
0.433333 0.233333 0
0.433333 0.266667 0
0.433333 0.3 0
0.433333 0.333333 0
0.433333 0.366667 0
0.433333 0.4 0
0.433333 0.433333 0
0.433333 0.466667 0
0.433333 0.5 0
0.433333 0.533333 0
0.433333 0.566667 0
0.433333 0.6 0
0.433333 0.633333 0
0.433333 0.666667 0
0.433333 0.7 0
0.433333 0.733333 0
0.433333 0.766667 0
0.433333 0.8 0
0.433333 0.833333 0
0.433333 0.866667 0
0.433333 0.9 0
0.433333 0.933333 0
0.433333 0.966667 0
0.466667 0.0333333 0
0.466667 0.0666667 0
0.466667 0.1 0
0.466667 0.133333 0
0.466667 0.166667 0
0.466667 0.2 0
0.466667 0.233333 0
0.466667 0.266667 0
0.466667 0.3 0
0.466667 0.333333 0
0.466667 0.366667 0
0.466667 0.4 0
0.466667 0.433333 0
0.466667 0.466667 0
0.466667 0.5 0
0.466667 0.533333 0
0.466667 0.566667 0
0.466667 0.6 0
0.466667 0.633333 0
0.466667 0.666667 0
0.466667 0.7 0
0.466667 0.733333 0
0.466667 0.766667 0
0.466667 0.8 0
0.466667 0.833333 0
0.466667 0.866667 0
0.466667 0.9 0
0.466667 0.933333 0
0.466667 0.966667 0
0.5 0.0333333 0
0.5 0.0666667 0
0.5 0.1 0
0.5 0.133333 0
0.5 0.166667 0
0.5 0.2 0
0.5 0.233333 0
0.5 0.266667 0
0.5 0.3 0
0.5 0.333333 0
0.5 0.366667 0
0.5 0.4 0
0.5 0.433333 0
0.5 0.466667 0
0.5 0.5 0
0.5 0.533333 0
0.5 0.566667 0
0.5 0.6 0
0.5 0.633333 0
0.5 0.666667 0
0.5 0.7 0
0.5 0.733333 0
0.5 0.766667 0
0.5 0.8 0
0.5 0.833333 0
0.5 0.866667 0
0.5 0.9 0
0.5 0.933333 0
0.5 0.966667 0
0.533333 0.0333333 0
0.533333 0.0666667 0
0.533333 0.1 0
0.533333 0.133333 0
0.533333 0.166667 0
0.533333 0.2 0
0.533333 0.233333 0
0.533333 0.266667 0
0.533333 0.3 0
0.533333 0.333333 0
0.533333 0.366667 0
0.533333 0.4 0
0.533333 0.433333 0
0.533333 0.466667 0
0.533333 0.5 0
0.533333 0.533333 0
0.533333 0.566667 0
0.533333 0.6 0
0.533333 0.633333 0
0.533333 0.666667 0
0.533333 0.7 0
0.533333 0.733333 0
0.533333 0.766667 0
0.533333 0.8 0
0.533333 0.833333 0
0.533333 0.866667 0
0.533333 0.9 0
0.533333 0.933333 0
0.533333 0.966667 0
0.566667 0.0333333 0
0.566667 0.0666667 0
0.566667 0.1 0
0.566667 0.133333 0
0.566667 0.166667 0
0.566667 0.2 0
0.566667 0.233333 0
0.566667 0.266667 0
0.566667 0.3 0
0.566667 0.333333 0
0.566667 0.366667 0
0.566667 0.4 0
0.566667 0.433333 0
0.566667 0.466667 0
0.566667 0.5 0
0.566667 0.533333 0
0.566667 0.566667 0
0.566667 0.6 0
0.566667 0.633333 0
0.566667 0.666667 0
0.566667 0.7 0
0.566667 0.733333 0
0.566667 0.766667 0
0.566667 0.8 0
0.566667 0.833333 0
0.566667 0.866667 0
0.566667 0.9 0
0.566667 0.933333 0
0.566667 0.966667 0
0.6 0.0333333 0
0.6 0.0666667 0
0.6 0.1 0
0.6 0.133333 0
[...]
CELL_DATA 900
VECTORS velocity double
-3.48749e-05 3.54963e-05 0.0
-0.000162916 0.00039656 0.0
-0.000209343 0.00104452 0.0
-0.000226801 0.00172894 0.0
-0.000235524 0.00246107 0.0
-0.000246161 0.00322177 0.0
-0.000260243 0.00402544 0.0
-0.000278345 0.00488121 0.0
-0.000300654 0.00580196 0.0
-0.000327579 0.00680107 0.0
-0.00035972 0.00789385 0.0
-0.000397914 0.00909787 0.0
-0.000443301 0.0104338 0.0
-0.000497431 0.0119266 0.0
-0.000562458 0.0136066 0.0
-0.000641454 0.0155123 0.0
-0.000738963 0.0176934 0.0
-0.000862061 0.0202159 0.0
-0.00102249 0.0231711 0.0
-0.00124131 0.02669 0.0
-0.00155957 0.0309725 0.0
-0.00206312 0.0363347 0.0
-0.00294145 0.0433392 0.0
-0.0046145 0.052949 0.0
-0.00796978 0.0672016 0.0
-0.0146338 0.0891938 0.0
-0.0261521 0.126291 0.0
-0.0395743 0.178 0.0
-0.0143098 0.260608 0.0
0.219079 0.175982 0.0
-0.000398024 0.000164121 0.0
-0.000942346 0.000937467 0.0
-0.00116041 0.00215352 0.0
-0.001255 0.00343723 0.0
-0.00131654 0.00481269 0.0
-0.00138437 0.00625037 0.0
-0.0014685 0.00777253 0.0
-0.00157292 0.00939531 0.0
-0.00169993 0.0111417 0.0
-0.00185233 0.0130362 0.0
-0.00203375 0.0151074 0.0
-0.00224901 0.0173876 0.0
-0.00250456 0.0199153 0.0
-0.00280913 0.0227363 0.0
-0.00317473 0.0259064 0.0
-0.00361824 0.0294956 0.0
-0.00416405 0.033593 0.0
-0.00484843 0.0383157 0.0
-0.00572736 0.0438204 0.0
-0.00689093 0.0503228 0.0
-0.00849116 0.0581283 0.0
-0.0107971 0.0676691 0.0
-0.0143012 0.0795927 0.0
-0.0199127 0.094748 0.0
-0.0291599 0.114453 0.0
-0.0441101 0.139407 0.0
-0.0642439 0.170224 0.0
-0.0782958 0.196595 0.0
-0.0177557 0.198407 0.0
0.302815 0.113893 0.0
-0.00103981 0.000204953 0.0
-0.00214997 0.00112082 0.0
-0.00260659 0.00253356 0.0
-0.00281163 0.00401501 0.0
-0.00295551 0.00559871 0.0
-0.00311183 0.00725329 0.0
-0.00330322 0.0090045 0.0
-0.00353855 0.0108707 0.0
-0.00382356 0.0128775 0.0
-0.00416458 0.0150526 0.0
-0.00456962 0.0174271 0.0
-0.00504914 0.020037 0.0
-0.00561698 0.0229235 0.0
-0.00629166 0.0261357 0.0
-0.00709841 0.0297322 0.0
-0.00807218 0.0337846 0.0
-0.00926243 0.0383816 0.0
-0.0107407 0.0436356 0.0
-0.0126132 0.0496904 0.0
-0.0150414 0.0567323 0.0
-0.018277 0.0650054 0.0
-0.0227214 0.0748193 0.0
-0.0290115 0.0865743 0.0
-0.0381263 0.100659 0.0
-0.0512354 0.117451 0.0
-0.0687282 0.136335 0.0
-0.0846419 0.15492 0.0
-0.0740427 0.164604 0.0
0.0490835 0.140231 0.0
0.458154 0.0713083 0.0
-0.00168967 0.000211812 0.0
-0.0033695 0.00115172 0.0
-0.00405669 0.00259323 0.0
-0.00436585 0.00409843 0.0
-0.00458858 0.00570578 0.0
-0.00483131 0.00738364 0.0
-0.00512803 0.0091585 0.0
-0.00549179 0.0110483 0.0
-0.00593128 0.0130785 0.0
-0.00645592 0.0152755 0.0
-0.00707745 0.0176696 0.0
-0.00781105 0.0202943 0.0
-0.00867654 0.0231883 0.0
-0.0097001 0.0263956 0.0
-0.0109168 0.0299679 0.0
-0.0123743 0.0339657 0.0
-0.0141383 0.038461 0.0
-0.0163012 0.043539 0.0
-0.018995 0.0493008 0.0
-0.0224111 0.0558638 0.0
-0.0268313 0.0633589 0.0
-0.0326728 0.0719125 0.0
-0.0405377 0.0816215 0.0
-0.0512295 0.09242 0.0
-0.0653873 0.103955 0.0
-0.0820023 0.114961 0.0
-0.0921097 0.122294 0.0
-0.0640058 0.120311 0.0
0.090898 0.091442 0.0
0.53596 0.0424002 0.0
-0.00234319 0.000204097 0.0
-0.00459528 0.00111792 0.0
-0.00551011 0.00252012 0.0
-0.00592186 0.00398091 0.0
-0.00622226 0.00553946 0.0
-0.00655032 0.00716456 0.0
-0.00695083 0.00888196 0.0
-0.00744071 0.0107084 0.0
-0.00803124 0.0126674 0.0
-0.00873439 0.0147833 0.0
-0.00956495 0.0170831 0.0
-0.0105417 0.0195963 0.0
-0.011689 0.0223557 0.0
-0.0130383 0.0253978 0.0
-0.014631 0.0287631 0.0
-0.0165221 0.0324966 0.0
-0.0187854 0.0366478 0.0
-0.0215215 0.0412695 0.0
-0.024868 0.0464156 0.0
-0.0290155 0.0521344 0.0
-0.0342277 0.0584565 0.0
-0.0408663 0.065366 0.0
-0.0494005 0.0727591 0.0
-0.0603417 0.0803311 0.0
-0.0737421 0.0874387 0.0
-0.0873882 0.0927864 0.0
-0.0902892 0.0935626 0.0
-0.0471132 0.0863823 0.0
0.129727 0.0594982 0.0
0.586505 0.0245714 0.0
-0.00296266 0.00019273 0.0
-0.00576261 0.00105951 0.0
-0.00689285 0.00238981 0.0
-0.00740058 0.00377407 0.0
-0.00777295 0.00524999 0.0
-0.00818012 0.00678733 0.0
-0.00867678 0.00841019 0.0
-0.00928314 0.0101336 0.0
-0.0100124 0.0119788 0.0
-0.0108784 0.013967 0.0
-0.0118979 0.0161215 0.0
-0.013092 0.0184671 0.0
-0.0144873 0.0210298 0.0
-0.0161179 0.0238377 0.0
-0.0180275 0.0269194 0.0
-0.0202726 0.0303043 0.0
-0.0229271 0.0340199 0.0
-0.0260878 0.0380893 0.0
-0.0298824 0.0425254 0.0
-0.0344789 0.0473213 0.0
-0.0400965 0.0524343 0.0
-0.0470139 0.0577571 0.0
-0.0555517 0.0630769 0.0
-0.0659608 0.0679972 0.0
-0.0778639 0.0718285 0.0
-0.0882926 0.0734824 0.0
-0.0851842 0.0708068 0.0
-0.0316129 0.0619641 0.0
0.158434 0.0396059 0.0
0.618086 0.0144516 0.0
-0.00354517 0.00017906 0.0
-0.00686137 0.000985848 0.0
-0.00819348 0.00222405 0.0
-0.00879074 0.0035115 0.0
-0.00922956 0.00488334 0.0
-0.00970946 0.00631082 0.0
-0.0102942 0.00781593 0.0
-0.0110067 0.00941179 0.0
-0.0118617 0.011117 0.0
-0.012874 0.0129497 0.0
-0.0140615 0.0149291 0.0
-0.0154461 0.0170751 0.0
-0.0170553 0.0194074 0.0
-0.0189231 0.0219457 0.0
-0.0210922 0.0247081 0.0
-0.0236164 0.0277097 0.0
-0.0265635 0.0309599 0.0
-0.0300193 0.0344581 0.0
-0.0340917 0.0381872 0.0
-0.0389157 0.0421033 0.0
-0.0446557 0.0461202 0.0
-0.051503 0.0500861 0.0
-0.0596422 0.0537513 0.0
-0.0691152 0.0567215 0.0
-0.0792447 0.058383 0.0
-0.0866037 0.0579052 0.0
-0.0785664 0.0537513 0.0
-0.0176206 0.0449769 0.0
0.18054 0.0270475 0.0
0.638621 0.0087226 0.0
-0.00408173 0.000163602 0.0
-0.00787374 0.000900426 0.0
-0.00939117 0.00203072 0.0
-0.0100701 0.00320526 0.0
-0.0105689 0.00445601 0.0
-0.0111141 0.00575629 0.0
-0.0117776 0.00712565 0.0
-0.0125846 0.0085753 0.0
-0.0135506 0.0101211 0.0
-0.014691 0.0117782 0.0
-0.0160238 0.0135619 0.0
-0.0175708 0.0154875 0.0
-0.0193586 0.0175691 0.0
-0.0214194 0.0198192 0.0
-0.0237925 0.022247 0.0
-0.0265258 0.0248564 0.0
-0.0296774 0.0276433 0.0
-0.0333177 0.0305906 0.0
-0.0375312 0.033662 0.0
-0.0424168 0.0367926 0.0
-0.0480863 0.0398769 0.0
-0.0546542 0.0427508 0.0
-0.0621984 0.0451703 0.0
-0.0706148 0.0467881 0.0
-0.0790405 0.0471072 0.0
-0.0837975 0.0455308 0.0
-0.0719864 0.0410092 0.0
-0.0059518 0.0331034 0.0
0.197232 0.0189973 0.0
0.652431 0.00548406 0.0
-0.00456687 0.000146356 0.0
-0.0087885 0.000804539 0.0
-0.0104727 0.0018135 0.0
-0.0112247 0.00286137 0.0
-0.0117768 0.00397657 0.0
-0.0123796 0.00513496 0.0
-0.0131122 0.00635356 0.0
-0.0140017 0.00764171 0.0
-0.0150639 0.00901268 0.0
-0.0163142 0.0104787 0.0
-0.0177701 0.0120517 0.0
-0.0194526 0.013743 0.0
-0.0213862 0.0155619 0.0
-0.0236002 0.0175153 0.0
-0.0261287 0.0196057 0.0
-0.0290122 0.0218293 0.0
-0.0322973 0.0241728 0.0
-0.0360379 0.0266097 0.0
-0.0402944 0.0290938 0.0
-0.0451323 0.0315525 0.0
-0.0506172 0.0338775 0.0
-0.0568021 0.0359129 0.0
-0.0636872 0.0374424 0.0
-0.0710725 0.0381813 0.0
-0.0779872 0.0377488 0.0
-0.0806259 0.0357319 0.0
-0.0659644 0.0314299 0.0
0.00361841 0.0246629 0.0
0.209915 0.0136743 0.0
0.662052 0.00360796 0.0
-0.00499487 0.000127464 0.0
-0.0095947 0.000699426 0.0
-0.0114253 0.00157546 0.0
-0.0122411 0.0024848 0.0
-0.0128393 0.00345205 0.0
-0.0134919 0.00445608 0.0
-0.0142838 0.00551134 0.0
-0.0152436 0.00662544 0.0
-0.0163873 0.00780922 0.0
-0.0177298 0.00907233 0.0
-0.0192879 0.0104239 0.0
-0.0210808 0.0118719 0.0
-0.0231308 0.0134221 0.0
-0.0254632 0.0150773 0.0
-0.0281067 0.0168356 0.0
-0.0310934 0.0186885 0.0
-0.0344586 0.0206183 0.0
-0.0382399 0.0225942 0.0
-0.0424761 0.024568 0.0
-0.0472035 0.0264685 0.0
-0.0524508 0.0281951 0.0
-0.058225 0.029611 0.0
-0.0644729 0.0305364 0.0
-0.0709361 0.0307483 0.0
-0.0765863 0.0299662 0.0
-0.0775592 0.0279107 0.0
-0.0607781 0.0241168 0.0
0.0112771 0.0185418 0.0
0.219557 0.010036 0.0
0.668951 0.00247905 0.0
-0.0053609 0.000107105 0.0
-0.0102832 0.00058633 0.0
-0.0122383 0.00131957 0.0
-0.0131082 0.00208031 0.0
-0.0137452 0.00288917 0.0
-0.0144395 0.00372842 0.0
-0.015281 0.00460996 0.0
-0.0162993 0.00553987 0.0
-0.0175104 0.00652677 0.0
-0.0189286 0.00757813 0.0
-0.0205695 0.0087008 0.0
-0.0224505 0.00990019 0.0
-0.0245914 0.0111797 0.0
-0.0270135 0.0125395 0.0
-0.0297401 0.0139755 0.0
-0.0327952 0.0154774 0.0
-0.0362036 0.0170263 0.0
-0.0399887 0.0185921 0.0
-0.0441704 0.0201297 0.0
-0.0487619 0.0215755 0.0
-0.0537631 0.0228429 0.0
-0.0591484 0.0238187 0.0
-0.0648294 0.0243604 0.0
-0.0705143 0.0242998 0.0
-0.0751467 0.023435 0.0
-0.0748382 0.0215798 0.0
-0.0564911 0.0184219 0.0
0.0173134 0.0139783 0.0
0.226894 0.00745358 0.0
0.674006 0.00176386 0.0
-0.00566075 8.54986e-05 0.0
-0.0108464 0.000466553 0.0
-0.0129027 0.00104883 0.0
-0.0138165 0.00165266 0.0
-0.0144851 0.00229458 0.0
-0.0152131 0.00296057 0.0
-0.0160948 0.00366004 0.0
-0.0171602 0.00439772 0.0
-0.0184253 0.00518028 0.0
-0.0199036 0.00601336 0.0
-0.0216098 0.00690201 0.0
-0.0235596 0.00784996 0.0
-0.02577 0.0088591 0.0
-0.0282591 0.00992861 0.0
-0.0310448 0.0110538 0.0
-0.0341446 0.0122249 0.0
-0.037574 0.0134247 0.0
-0.0413445 0.0146272 0.0
-0.0454612 0.0157943 0.0
-0.049919 0.0168735 0.0
-0.0546969 0.0177953 0.0
-0.0597466 0.0184714 0.0
-0.0649577 0.018794 0.0
-0.0700195 0.0186399 0.0
-0.0738632 0.017867 0.0
-0.0725916 0.0163507 0.0
-0.0530952 0.0138753 0.0
0.021969 0.0104685 0.0
0.232444 0.00554816 0.0
0.677753 0.00128403 0.0
-0.00589101 6.28793e-05 0.0
-0.0112777 0.00034142 0.0
-0.0134113 0.000766227 0.0
-0.0143585 0.0012066 0.0
-0.0150513 0.00167482 0.0
-0.0158053 0.00216091 0.0
-0.0167178 0.00267181 0.0
-0.0178194 0.00321109 0.0
-0.0191259 0.00378365 0.0
-0.0206501 0.00439369 0.0
-0.0224059 0.00504488 0.0
-0.0244075 0.00573993 0.0
-0.02667 0.00648013 0.0
-0.0292083 0.00726469 0.0
-0.0320365 0.00808991 0.0
-0.0351665 0.00894813 0.0
-0.0386066 0.00982636 0.0
-0.0423592 0.0107047 0.0
-0.0464181 0.0115548 0.0
-0.0507648 0.0123375 0.0
-0.0553635 0.0130018 0.0
-0.0601503 0.0134837 0.0
-0.0650008 0.0137062 0.0
-0.0695941 0.0135829 0.0
-0.0728551 0.0130153 0.0
-0.0708808 0.0119176 0.0
-0.0505482 0.0101335 0.0
0.0254408 0.00767226 0.0
0.236574 0.00408378 0.0
0.680529 0.000942686 0.0
-0.00604899 3.94917e-05 0.0
-0.0115725 0.000212271 0.0
-0.0137583 0.000474776 0.0
-0.0147284 0.000746816 0.0
-0.015438 0.00103635 0.0
-0.0162104 0.0013376 0.0
-0.0171446 0.00165514 0.0
-0.0182719 0.00199144 0.0
-0.0196077 0.00234987 0.0
-0.0211647 0.00273337 0.0
-0.0229559 0.00314463 0.0
-0.0249947 0.00358582 0.0
-0.0272947 0.00405828 0.0
-0.0298689 0.0045621 0.0
-0.0327284 0.00509563 0.0
-0.0358813 0.00565475 0.0
-0.0393311 0.00623203 0.0
-0.0430737 0.00681565 0.0
-0.047095 0.00738827 0.0
-0.0513675 0.00792578 0.0
-0.055845 0.00839615 0.0
-0.0604535 0.00875881 0.0
-0.0650591 0.00896427 0.0
-0.0693337 0.0089562 0.0
-0.0721966 0.00866805 0.0
-0.0697357 0.00803694 0.0
-0.0488061 0.0069404 0.0
0.0278754 0.00535231 0.0
0.239539 0.002906 0.0
0.68255 0.000684867 0.0
-0.00613276 1.55915e-05 0.0
-0.0117272 8.0465e-05 0.0
-0.0139399 0.000177476 0.0
-0.0149221 0.000277976 0.0
-0.0156412 0.000385527 0.0
-0.0164242 0.000498689 0.0
-0.0173714 0.000619625 0.0
-0.018514 0.000749827 0.0
-0.0198676 0.00089118 0.0
-0.0214448 0.00104555 0.0
-0.0232582 0.00121489 0.0
-0.025321 0.00140109 0.0
-0.0276462 0.00160596 0.0
-0.0302456 0.00183104 0.0
-0.0331292 0.00207742 0.0
-0.0363031 0.00234539 0.0
-0.0397678 0.00263406 0.0
-0.043516 0.00294081 0.0
-0.047529 0.0032606 0.0
-0.0517739 0.00358514 0.0
-0.056198 0.00390194 0.0
-0.0607203 0.00419341 0.0
-0.0652 0.00443575 0.0
-0.0693017 0.00459854 0.0
-0.0719353 0.00463973 0.0
-0.0691719 0.00450822 0.0
-0.0478336 0.00409699 0.0
0.029375 0.00333284 0.0
0.241504 0.00190559 0.0
0.683953 0.000476392 0.0
-0.00614121 -8.57713e-06 0.0
-0.0117397 -5.26557e-05 0.0
-0.0139536 -0.000122661 0.0
-0.0149371 -0.000195231 0.0
-0.0156584 -0.000271262 0.0
-0.0164445 -0.000347847 0.0
-0.0173956 -0.000425248 0.0
-0.0185434 -0.000502957 0.0
-0.0199033 -0.00058055 0.0
-0.0214883 -0.000657196 0.0
-0.0233112 -0.000731667 0.0
-0.0253856 -0.00080219 0.0
-0.0277245 -0.000866345 0.0
-0.0303401 -0.000920923 0.0
-0.0332425 -0.000961805 0.0
-0.0364378 -0.00098385 0.0
-0.0399264 -0.000980846 0.0
-0.0437003 -0.000945548 0.0
-0.0477396 -0.000869891 0.0
-0.0520093 -0.000745461 0.0
-0.0564541 -0.000564339 0.0
-0.0609887 -0.00032047 0.0
-0.065466 -1.18918e-05 0.0
-0.0695413 0.000355707 0.0
-0.0721081 0.000761022 0.0
-0.0692077 0.00115681 0.0
-0.0476131 0.00143622 0.0
0.0300055 0.00146884 0.0
0.242576 0.000994605 0.0
0.684815 0.000292796 0.0
-0.00607396 -3.28048e-05 0.0
-0.0116095 -0.000185795 0.0
-0.0137988 -0.000422607 0.0
-0.0147728 -0.000668056 0.0
-0.0154888 -0.000927559 0.0
-0.0162701 -0.00119393 0.0
-0.0172163 -0.00146991 0.0
-0.0183587 -0.00175604 0.0
-0.0197133 -0.00205343 0.0
-0.0212935 -0.00236239 0.0
-0.0231131 -0.00268249 0.0
-0.0251862 -0.00301222 0.0
-0.0275273 -0.00334867 0.0
-0.03015 -0.00368708 0.0
-0.0330661 -0.00402038 0.0
-0.0362838 -0.00433862 0.0
-0.0398059 -0.00462841 0.0
-0.0436268 -0.00487239 0.0
-0.0477291 -0.00504886 0.0
-0.0520795 -0.00513183 0.0
-0.0566233 -0.00509168 0.0
-0.0612735 -0.00489686 0.0
-0.0658774 -0.00451741 0.0
-0.0700773 -0.00393183 0.0
-0.07274 -0.0031391 0.0
-0.0698591 -0.00218409 0.0
-0.0481429 -0.00118544 0.0
0.0297801 -0.000355038 0.0
0.242789 9.37227e-05 0.0
0.685176 0.000106946 0.0
-0.0059313 -5.68452e-05 0.0
-0.0113374 -0.00031757 0.0
-0.0134767 -0.000719242 0.0
-0.0144302 -0.00113564 0.0
-0.0151332 -0.00157676 0.0
-0.0159019 -0.00203129 0.0
-0.0168336 -0.00250453 0.0
-0.0179598 -0.00299821 0.0
-0.0192969 -0.00351513 0.0
-0.0208591 -0.00405696 0.0
-0.0226613 -0.00462436 0.0
-0.0247192 -0.00521642 0.0
-0.0270494 -0.00583014 0.0
-0.0296681 -0.00645972 0.0
-0.0325906 -0.00709565 0.0
-0.0358294 -0.00772372 0.0
-0.0393922 -0.00832382 0.0
-0.0432793 -0.00886871 0.0
-0.0474797 -0.00932296 0.0
-0.0519661 -0.00964221 0.0
-0.0566889 -0.00977336 0.0
-0.0615631 -0.00965636 0.0
-0.0664317 -0.00922872 0.0
-0.0709212 -0.00843566 0.0
-0.0738599 -0.00724715 0.0
-0.0711679 -0.00569964 0.0
-0.049448 -0.00392499 0.0
0.0287324 -0.00223266 0.0
0.242151 -0.000825709 0.0
0.684988 -8.57584e-05 0.0
-0.00571439 -8.04109e-05 0.0
-0.0109258 -0.000446504 0.0
-0.0129898 -0.00100934 0.0
-0.013912 -0.00159298 0.0
-0.0145943 -0.00221204 0.0
-0.015342 -0.00285133 0.0
-0.0162495 -0.00351882 0.0
-0.017348 -0.00421761 0.0
-0.0186545 -0.00495247 0.0
-0.0201842 -0.00572674 0.0
-0.0219535 -0.00654261 0.0
-0.0239802 -0.00740036 0.0
-0.0262837 -0.0082976 0.0
-0.028884 -0.00922834 0.0
-0.0318015 -0.0101817 0.0
-0.0350549 -0.0111403 0.0
-0.03866 -0.0120784 0.0
-0.0426265 -0.0129599 0.0
-0.0469543 -0.0137361 0.0
-0.0516279 -0.0143438 0.0
-0.0566081 -0.0147044 0.0
-0.0618174 -0.0147252 0.0
-0.0670985 -0.0143038 0.0
-0.0720605 -0.0133417 0.0
-0.0754826 -0.0117675 0.0
-0.0731867 -0.00959617 0.0
-0.0516284 -0.00696633 0.0
0.0267297 -0.00428759 0.0
0.240614 -0.00180014 0.0
0.684266 -0.000282052 0.0
-0.00542526 -0.000103215 0.0
-0.0103786 -0.000571087 0.0
-0.0123429 -0.00128956 0.0
-0.0132229 -0.0020349 0.0
-0.0138766 -0.00282629 0.0
-0.0145946 -0.00364503 0.0
-0.0154676 -0.00450187 0.0
-0.0165261 -0.00540153 0.0
-0.0177878 -0.00635106 0.0
-0.0192689 -0.00735589 0.0
-0.0209876 -0.00842034 0.0
-0.022964 -0.00954662 0.0
-0.0252211 -0.010734 0.0
-0.0277836 -0.0119776 0.0
-0.030678 -0.0132666 0.0
-0.0339318 -0.0145823 0.0
-0.0375714 -0.0158955 0.0
-0.0416201 -0.0171632 0.0
-0.0460939 -0.0183248 0.0
-0.0509957 -0.0192989 0.0
-0.0563055 -0.0199798 0.0
-0.0619619 -0.0202368 0.0
-0.0678147 -0.0199181 0.0
-0.0734586 -0.0188649 0.0
-0.0776144 -0.0169425 0.0
-0.0759755 -0.0141206 0.0
-0.054793 -0.0105327 0.0
0.02364 -0.00669979 0.0
0.238054 -0.00293859 0.0
0.682949 -0.000508249 0.0
-0.00506678 -0.000124967 0.0
-0.00970126 -0.000689773 0.0
-0.0115422 -0.00155648 0.0
-0.0123695 -0.00245601 0.0
-0.0129864 -0.0034121 0.0
-0.0136658 -0.0044029 0.0
-0.0144934 -0.00544206 0.0
-0.0154988 -0.00653622 0.0
-0.0167002 -0.007695 0.0
-0.0181149 -0.00892646 0.0
-0.0197627 -0.0102377 0.0
-0.0216663 -0.0116339 0.0
-0.0238524 -0.0131172 0.0
-0.0263509 -0.0146853 0.0
-0.0291959 -0.01633 0.0
-0.0324247 -0.0180337 0.0
-0.0360775 -0.0197668 0.0
-0.0401952 -0.0214826 0.0
-0.044816 -0.0231124 0.0
-0.0499698 -0.0245586 0.0
-0.0556667 -0.0256887 0.0
-0.0618758 -0.0263298 0.0
-0.0684685 -0.0262687 0.0
-0.0750362 -0.0252642 0.0
-0.0802375 -0.0230853 0.0
-0.0796037 -0.0196138 0.0
-0.0591008 -0.0149515 0.0
0.0192465 -0.00973258 0.0
0.234259 -0.00440375 0.0
0.680901 -0.000812344 0.0
-0.00464276 -0.000145383 0.0
-0.008901 -0.000800999 0.0
-0.0105962 -0.00180658 0.0
-0.0113604 -0.00285079 0.0
-0.0119325 -0.00396177 0.0
-0.012564 -0.00511499 0.0
-0.0133347 -0.00632709 0.0
-0.0142733 -0.00760685 0.0
-0.0153977 -0.00896682 0.0
-0.0167263 -0.0104182 0.0
-0.0182802 -0.0119717 0.0
-0.0200845 -0.0136362 0.0
-0.0221694 -0.0154185 0.0
-0.0245703 -0.017321 0.0
-0.0273289 -0.0193404 0.0
-0.0304938 -0.021464 0.0
-0.0341207 -0.023666 0.0
-0.038272 -0.0259018 0.0
-0.0430145 -0.0281 0.0
-0.048415 -0.030153 0.0
-0.054529 -0.0319052 0.0
-0.0613762 -0.0331407 0.0
-0.0688754 -0.0335745 0.0
-0.0766398 -0.0328559 0.0
-0.0832752 -0.0306108 0.0
-0.0841188 -0.0265636 0.0
-0.0647427 -0.0207266 0.0
0.0132467 -0.0138174 0.0
0.228891 -0.00647653 0.0
0.677857 -0.00128328 0.0
-0.00415779 -0.000164207 0.0
-0.00798659 -0.000903222 0.0
-0.00951505 -0.00203631 0.0
-0.0102063 -0.00321358 0.0
-0.0107254 -0.00446737 0.0
-0.0112997 -0.00577093 0.0
-0.012002 -0.00714393 0.0
-0.0128592 -0.0085975 0.0
-0.0138891 -0.0101474 0.0
-0.0151102 -0.0118084 0.0
-0.0165447 -0.0135954 0.0
-0.0182194 -0.0155225 0.0
-0.0201673 -0.0176022 0.0
-0.0224285 -0.0198441 0.0
-0.0250521 -0.0222527 0.0
-0.0280977 -0.0248246 0.0
-0.0316376 -0.027544 0.0
-0.0357581 -0.0303754 0.0
-0.0405605 -0.0332548 0.0
-0.0461586 -0.0360754 0.0
-0.0526714 -0.0386695 0.0
-0.0601979 -0.0407853 0.0
-0.0687447 -0.0420629 0.0
-0.0779954 -0.0420167 0.0
-0.0865412 -0.0400705 0.0
-0.0895097 -0.0356841 0.0
-0.0719459 -0.0286652 0.0
0.00518617 -0.0197101 0.0
0.221372 -0.00969819 0.0
0.673291 -0.00210722 0.0
-0.00361756 -0.00018122 0.0
-0.00696888 -0.000994876 0.0
-0.00831153 -0.00224194 0.0
-0.00892064 -0.00353843 0.0
-0.0093789 -0.0049205 0.0
-0.00988684 -0.0063597 0.0
-0.0105091 -0.00787862 0.0
-0.0112703 -0.00949085 0.0
-0.0121875 -0.0112155 0.0
-0.0132789 -0.0130713 0.0
-0.0145666 -0.015078 0.0
-0.0160783 -0.0172555 0.0
-0.0178483 -0.0196238 0.0
-0.0199201 -0.0222015 0.0
-0.0223483 -0.0250046 0.0
-0.025202 -0.0280437 0.0
-0.0285687 -0.0313198 0.0
-0.0325588 -0.0348171 0.0
-0.0373106 -0.0384923 0.0
-0.042994 -0.0422578 0.0
-0.0498094 -0.0459561 0.0
-0.0579697 -0.0493223 0.0
-0.0676264 -0.0519378 0.0
-0.0786158 -0.0531727 0.0
-0.0896025 -0.0521913 0.0
-0.0955392 -0.048041 0.0
-0.0808109 -0.0401148 0.0
-0.00544914 -0.0288343 0.0
0.210869 -0.0151712 0.0
0.666248 -0.00368742 0.0
-0.00302769 -0.00019633 0.0
-0.00585937 -0.0010743 0.0
-0.00699909 -0.00241909 0.0
-0.00751753 -0.00381824 0.0
-0.00790751 -0.00531111 0.0
-0.00834016 -0.00686806 0.0
-0.00887103 -0.00851432 0.0
-0.00952188 -0.0102659 0.0
-0.0103083 -0.0121453 0.0
-0.0112473 -0.0141752 0.0
-0.01236 -0.0163806 0.0
-0.013673 -0.0187877 0.0
-0.0152205 -0.021425 0.0
-0.0170466 -0.0243221 0.0
-0.0192082 -0.0275092 0.0
-0.0217802 -0.0310157 0.0
-0.0248609 -0.0348668 0.0
-0.0285807 -0.0390779 0.0
-0.0331125 -0.0436444 0.0
-0.0386844 -0.048524 0.0
-0.0455919 -0.0536064 0.0
-0.0541968 -0.0586615 0.0
-0.064869 -0.0632653 0.0
-0.0777237 -0.0666814 0.0
-0.0916756 -0.0677964 0.0
-0.101661 -0.065088 0.0
-0.0913817 -0.0572106 0.0
-0.0195893 -0.043717 0.0
0.195511 -0.0251709 0.0
0.654459 -0.00694067 0.0
-0.0023976 -0.000208923 0.0
-0.00467645 -0.0011376 0.0
-0.0055992 -0.00255903 0.0
-0.00601991 -0.00403967 0.0
-0.00633514 -0.00562086 0.0
-0.00668474 -0.00727233 0.0
-0.00711424 -0.00902137 0.0
-0.00764194 -0.0108862 0.0
-0.00828121 -0.0128924 0.0
-0.00904692 -0.0150664 0.0
-0.00995777 -0.017438 0.0
-0.0110378 -0.0200402 0.0
-0.0123184 -0.02291 0.0
-0.0138409 -0.0260886 0.0
-0.0156602 -0.0296224 0.0
-0.0178504 -0.0335628 0.0
-0.0205128 -0.0379656 0.0
-0.0237874 -0.0428884 0.0
-0.0278697 -0.048385 0.0
-0.0330348 -0.0544912 0.0
-0.0396685 -0.0611971 0.0
-0.0482971 -0.068391 0.0