# vtk DataFile Version 3.0
Malha 2D com triângulos e temperatura
ASCII
DATASET UNSTRUCTURED_GRID

POINTS 961 double
0 0 0
1 0 0
1 1 0
0 1 0
0.0333333 0 0
0.0666667 0 0
0.1 0 0
0.133333 0 0
0.166667 0 0
0.2 0 0
0.233333 0 0
0.266667 0 0
0.3 0 0
0.333333 0 0
0.366667 0 0
0.4 0 0
0.433333 0 0
0.466667 0 0
0.5 0 0
0.533333 0 0
0.566667 0 0
0.6 0 0
0.633333 0 0
0.666667 0 0
0.7 0 0
0.733333 0 0
0.766667 0 0
0.8 0 0
0.833333 0 0
0.866667 0 0
0.9 0 0
0.933333 0 0
0.966667 0 0
1 0.0333333 0
1 0.0666667 0
1 0.1 0
1 0.133333 0
1 0.166667 0
1 0.2 0
1 0.233333 0
1 0.266667 0
1 0.3 0
1 0.333333 0
1 0.366667 0
1 0.4 0
1 0.433333 0
1 0.466667 0
1 0.5 0
1 0.533333 0
1 0.566667 0
1 0.6 0
1 0.633333 0
1 0.666667 0
1 0.7 0
1 0.733333 0
1 0.766667 0
1 0.8 0
1 0.833333 0
1 0.866667 0
1 0.9 0
1 0.933333 0
1 0.966667 0
0.966667 1 0
0.933333 1 0
0.9 1 0
0.866667 1 0
0.833333 1 0
0.8 1 0
0.766667 1 0
0.733333 1 0
0.7 1 0
0.666667 1 0
0.633333 1 0
0.6 1 0
0.566667 1 0
0.533333 1 0
0.5 1 0
0.466667 1 0
0.433333 1 0
0.4 1 0
0.366667 1 0
0.333333 1 0
0.3 1 0
0.266667 1 0
0.233333 1 0
0.2 1 0
0.166667 1 0
0.133333 1 0
0.1 1 0
0.0666667 1 0
0.0333333 1 0
0 0.966667 0
0 0.933333 0
0 0.9 0
0 0.866667 0
0 0.833333 0
0 0.8 0
0 0.766667 0
0 0.733333 0
0 0.7 0
0 0.666667 0
0 0.633333 0
0 0.6 0
0 0.566667 0
0 0.533333 0
0 0.5 0
0 0.466667 0
0 0.433333 0
0 0.4 0
0 0.366667 0
0 0.333333 0
0 0.3 0
0 0.266667 0
0 0.233333 0
0 0.2 0
0 0.166667 0
0 0.133333 0
0 0.1 0
0 0.0666667 0
0 0.0333333 0
0.0333333 0.0333333 0
0.0333333 0.0666667 0
0.0333333 0.1 0
0.0333333 0.133333 0
0.0333333 0.166667 0
0.0333333 0.2 0
0.0333333 0.233333 0
0.0333333 0.266667 0
0.0333333 0.3 0
0.0333333 0.333333 0
0.0333333 0.366667 0
0.0333333 0.4 0
0.0333333 0.433333 0
0.0333333 0.466667 0
0.0333333 0.5 0
0.0333333 0.533333 0
0.0333333 0.566667 0
0.0333333 0.6 0
0.0333333 0.633333 0
0.0333333 0.666667 0
0.0333333 0.7 0
0.0333333 0.733333 0
0.0333333 0.766667 0
0.0333333 0.8 0
0.0333333 0.833333 0
0.0333333 0.866667 0
0.0333333 0.9 0
0.0333333 0.933333 0
0.0333333 0.966667 0
0.0666667 0.0333333 0
0.0666667 0.0666667 0
0.0666667 0.1 0
0.0666667 0.133333 0
0.0666667 0.166667 0
0.0666667 0.2 0
0.0666667 0.233333 0
0.0666667 0.266667 0
0.0666667 0.3 0
0.0666667 0.333333 0
0.0666667 0.366667 0
0.0666667 0.4 0
0.0666667 0.433333 0
0.0666667 0.466667 0
0.0666667 0.5 0
0.0666667 0.533333 0
0.0666667 0.566667 0
0.0666667 0.6 0
0.0666667 0.633333 0
0.0666667 0.666667 0
0.0666667 0.7 0
0.0666667 0.733333 0
0.0666667 0.766667 0
0.0666667 0.8 0
0.0666667 0.833333 0
0.0666667 0.866667 0
0.0666667 0.9 0
0.0666667 0.933333 0
0.0666667 0.966667 0
0.1 0.0333333 0
0.1 0.0666667 0
0.1 0.1 0
0.1 0.133333 0
0.1 0.166667 0
0.1 0.2 0
0.1 0.233333 0
0.1 0.266667 0
0.1 0.3 0
0.1 0.333333 0
0.1 0.366667 0
0.1 0.4 0
0.1 0.433333 0
0.1 0.466667 0
0.1 0.5 0
0.1 0.533333 0
0.1 0.566667 0
0.1 0.6 0
0.1 0.633333 0
0.1 0.666667 0
0.1 0.7 0
0.1 0.733333 0
0.1 0.766667 0
0.1 0.8 0
0.1 0.833333 0
0.1 0.866667 0
0.1 0.9 0
0.1 0.933333 0
0.1 0.966667 0
0.133333 0.0333333 0
0.133333 0.0666667 0
0.133333 0.1 0
0.133333 0.133333 0
0.133333 0.166667 0
0.133333 0.2 0
0.133333 0.233333 0
0.133333 0.266667 0
0.133333 0.3 0
0.133333 0.333333 0
0.133333 0.366667 0
0.133333 0.4 0
0.133333 0.433333 0
0.133333 0.466667 0
0.133333 0.5 0
0.133333 0.533333 0
0.133333 0.566667 0
0.133333 0.6 0
0.133333 0.633333 0
0.133333 0.666667 0
0.133333 0.7 0
0.133333 0.733333 0
0.133333 0.766667 0
0.133333 0.8 0
0.133333 0.833333 0
0.133333 0.866667 0
0.133333 0.9 0
0.133333 0.933333 0
0.133333 0.966667 0
0.166667 0.0333333 0
0.166667 0.0666667 0
0.166667 0.1 0
0.166667 0.133333 0
0.166667 0.166667 0
0.166667 0.2 0
0.166667 0.233333 0
0.166667 0.266667 0
0.166667 0.3 0
0.166667 0.333333 0
0.166667 0.366667 0
0.166667 0.4 0
0.166667 0.433333 0
0.166667 0.466667 0
0.166667 0.5 0
0.166667 0.533333 0
0.166667 0.566667 0
0.166667 0.6 0
0.166667 0.633333 0
0.166667 0.666667 0
0.166667 0.7 0
0.166667 0.733333 0
0.166667 0.766667 0
0.166667 0.8 0
0.166667 0.833333 0
0.166667 0.866667 0
0.166667 0.9 0
0.166667 0.933333 0
0.166667 0.966667 0
0.2 0.0333333 0
0.2 0.0666667 0
0.2 0.1 0
0.2 0.133333 0
0.2 0.166667 0
0.2 0.2 0
0.2 0.233333 0
0.2 0.266667 0
0.2 0.3 0
0.2 0.333333 0
0.2 0.366667 0
0.2 0.4 0
0.2 0.433333 0
0.2 0.466667 0
0.2 0.5 0
0.2 0.533333 0
0.2 0.566667 0
0.2 0.6 0
0.2 0.633333 0
0.2 0.666667 0
0.2 0.7 0
0.2 0.733333 0
0.2 0.766667 0
0.2 0.8 0
0.2 0.833333 0
0.2 0.866667 0
0.2 0.9 0
0.2 0.933333 0
0.2 0.966667 0
0.233333 0.0333333 0
0.233333 0.0666667 0
0.233333 0.1 0
0.233333 0.133333 0
0.233333 0.166667 0
0.233333 0.2 0
0.233333 0.233333 0
0.233333 0.266667 0
0.233333 0.3 0
0.233333 0.333333 0
0.233333 0.366667 0
0.233333 0.4 0
0.233333 0.433333 0
0.233333 0.466667 0
0.233333 0.5 0
0.233333 0.533333 0
0.233333 0.566667 0
0.233333 0.6 0
0.233333 0.633333 0
0.233333 0.666667 0
0.233333 0.7 0
0.233333 0.733333 0
0.233333 0.766667 0
0.233333 0.8 0
0.233333 0.833333 0
0.233333 0.866667 0
0.233333 0.9 0
0.233333 0.933333 0
0.233333 0.966667 0
0.266667 0.0333333 0
0.266667 0.0666667 0
0.266667 0.1 0
0.266667 0.133333 0
0.266667 0.166667 0
0.266667 0.2 0
0.266667 0.233333 0
0.266667 0.266667 0
0.266667 0.3 0
0.266667 0.333333 0
0.266667 0.366667 0
0.266667 0.4 0
0.266667 0.433333 0
0.266667 0.466667 0
0.266667 0.5 0
0.266667 0.533333 0
0.266667 0.566667 0
0.266667 0.6 0
0.266667 0.633333 0
0.266667 0.666667 0
0.266667 0.7 0
0.266667 0.733333 0
0.266667 0.766667 0
0.266667 0.8 0
0.266667 0.833333 0
0.266667 0.866667 0
0.266667 0.9 0
0.266667 0.933333 0
0.266667 0.966667 0
0.3 0.0333333 0
0.3 0.0666667 0
0.3 0.1 0
0.3 0.133333 0
0.3 0.166667 0
0.3 0.2 0
0.3 0.233333 0
0.3 0.266667 0
0.3 0.3 0
0.3 0.333333 0
0.3 0.366667 0
0.3 0.4 0
0.3 0.433333 0
0.3 0.466667 0
0.3 0.5 0
0.3 0.533333 0
0.3 0.566667 0
0.3 0.6 0
0.3 0.633333 0
0.3 0.666667 0
0.3 0.7 0
0.3 0.733333 0
0.3 0.766667 0
0.3 0.8 0
0.3 0.833333 0
0.3 0.866667 0
0.3 0.9 0
0.3 0.933333 0
0.3 0.966667 0
0.333333 0.0333333 0
0.333333 0.0666667 0
0.333333 0.1 0
0.333333 0.133333 0
0.333333 0.166667 0
0.333333 0.2 0
0.333333 0.233333 0
0.333333 0.266667 0
0.333333 0.3 0
0.333333 0.333333 0
0.333333 0.366667 0
0.333333 0.4 0
0.333333 0.433333 0
0.333333 0.466667 0
0.333333 0.5 0
0.333333 0.533333 0
0.333333 0.566667 0
0.333333 0.6 0
0.333333 0.633333 0
0.333333 0.666667 0
0.333333 0.7 0
0.333333 0.733333 0
0.333333 0.766667 0
0.333333 0.8 0
0.333333 0.833333 0
0.333333 0.866667 0
0.333333 0.9 0
0.333333 0.933333 0
0.333333 0.966667 0
0.366667 0.0333333 0
0.366667 0.0666667 0
0.366667 0.1 0
0.366667 0.133333 0
0.366667 0.166667 0
0.366667 0.2 0
0.366667 0.233333 0
0.366667 0.266667 0
0.366667 0.3 0
0.366667 0.333333 0
0.366667 0.366667 0
0.366667 0.4 0
0.366667 0.433333 0
0.366667 0.466667 0
0.366667 0.5 0
0.366667 0.533333 0
0.366667 0.566667 0
0.366667 0.6 0
0.366667 0.633333 0
0.366667 0.666667 0
0.366667 0.7 0
0.366667 0.733333 0
0.366667 0.766667 0
0.366667 0.8 0
0.366667 0.833333 0
0.366667 0.866667 0
0.366667 0.9 0
0.366667 0.933333 0
0.366667 0.966667 0
0.4 0.0333333 0
0.4 0.0666667 0
0.4 0.1 0
0.4 0.133333 0
0.4 0.166667 0
0.4 0.2 0
0.4 0.233333 0
0.4 0.266667 0
0.4 0.3 0
0.4 0.333333 0
0.4 0.366667 0
0.4 0.4 0
0.4 0.433333 0
0.4 0.466667 0
0.4 0.5 0
0.4 0.533333 0
0.4 0.566667 0
0.4 0.6 0
0.4 0.633333 0
0.4 0.666667 0
0.4 0.7 0
0.4 0.733333 0
0.4 0.766667 0
0.4 0.8 0
0.4 0.833333 0
0.4 0.866667 0
0.4 0.9 0
0.4 0.933333 0
0.4 0.966667 0
0.433333 0.0333333 0
0.433333 0.0666667 0
0.433333 0.1 0
0.433333 0.133333 0
0.433333 0.166667 0
0.433333 0.2 0
0.433333 0.233333 0
0.433333 0.266667 0
0.433333 0.3 0
0.433333 0.333333 0
0.433333 0.366667 0
0.433333 0.4 0
0.433333 0.433333 0
0.433333 0.466667 0
0.433333 0.5 0
0.433333 0.533333 0
0.433333 0.566667 0
0.433333 0.6 0
0.433333 0.633333 0
0.433333 0.666667 0
0.433333 0.7 0
0.433333 0.733333 0
0.433333 0.766667 0
0.433333 0.8 0
0.433333 0.833333 0
0.433333 0.866667 0
0.433333 0.9 0
0.433333 0.933333 0
0.433333 0.966667 0
0.466667 0.0333333 0
0.466667 0.0666667 0
0.466667 0.1 0
0.466667 0.133333 0
0.466667 0.166667 0
0.466667 0.2 0
0.466667 0.233333 0
0.466667 0.266667 0
0.466667 0.3 0
0.466667 0.333333 0
0.466667 0.366667 0
0.466667 0.4 0
0.466667 0.433333 0
0.466667 0.466667 0
0.466667 0.5 0
0.466667 0.533333 0
0.466667 0.566667 0
0.466667 0.6 0
0.466667 0.633333 0
0.466667 0.666667 0
0.466667 0.7 0
0.466667 0.733333 0
0.466667 0.766667 0
0.466667 0.8 0
0.466667 0.833333 0
0.466667 0.866667 0
0.466667 0.9 0
0.466667 0.933333 0
0.466667 0.966667 0
0.5 0.0333333 0
0.5 0.0666667 0
0.5 0.1 0
0.5 0.133333 0
0.5 0.166667 0
0.5 0.2 0
0.5 0.233333 0
0.5 0.266667 0
0.5 0.3 0
0.5 0.333333 0
0.5 0.366667 0
0.5 0.4 0
0.5 0.433333 0
0.5 0.466667 0
0.5 0.5 0
0.5 0.533333 0
0.5 0.566667 0
0.5 0.6 0
0.5 0.633333 0
0.5 0.666667 0
0.5 0.7 0
0.5 0.733333 0
0.5 0.766667 0
0.5 0.8 0
0.5 0.833333 0
0.5 0.866667 0
0.5 0.9 0
0.5 0.933333 0
0.5 0.966667 0
0.533333 0.0333333 0
0.533333 0.0666667 0
0.533333 0.1 0
0.533333 0.133333 0
0.533333 0.166667 0
0.533333 0.2 0
0.533333 0.233333 0
0.533333 0.266667 0
0.533333 0.3 0
0.533333 0.333333 0
0.533333 0.366667 0
0.533333 0.4 0
0.533333 0.433333 0
0.533333 0.466667 0
0.533333 0.5 0
0.533333 0.533333 0
0.533333 0.566667 0
0.533333 0.6 0
0.533333 0.633333 0
0.533333 0.666667 0
0.533333 0.7 0
0.533333 0.733333 0
0.533333 0.766667 0
0.533333 0.8 0
0.533333 0.833333 0
0.533333 0.866667 0
0.533333 0.9 0
0.533333 0.933333 0
0.533333 0.966667 0
0.566667 0.0333333 0
0.566667 0.0666667 0
0.566667 0.1 0
0.566667 0.133333 0
0.566667 0.166667 0
0.566667 0.2 0
0.566667 0.233333 0
0.566667 0.266667 0
0.566667 0.3 0
0.566667 0.333333 0
0.566667 0.366667 0
0.566667 0.4 0
0.566667 0.433333 0
0.566667 0.466667 0
0.566667 0.5 0
0.566667 0.533333 0
0.566667 0.566667 0
0.566667 0.6 0
0.566667 0.633333 0
0.566667 0.666667 0
0.566667 0.7 0
0.566667 0.733333 0
0.566667 0.766667 0
0.566667 0.8 0
0.566667 0.833333 0
0.566667 0.866667 0
0.566667 0.9 0
0.566667 0.933333 0
0.566667 0.966667 0
0.6 0.0333333 0
0.6 0.0666667 0
0.6 0.1 0
0.6 0.133333 0
[...]
CELL_DATA 900
VECTORS velocity double
4.72354e-05 -4.62065e-05 0.0
-6.05786e-05 0.00012269 0.0
-0.000134655 0.000628129 0.0
-0.000177784 0.00129224 0.0
-0.000196792 0.00207003 0.0
-0.000207799 0.00290736 0.0
-0.000217807 0.00379887 0.0
-0.000230584 0.0047465 0.0
-0.000247275 0.00576284 0.0
-0.000268404 0.006863 0.0
-0.000294351 0.00806507 0.0
-0.000325698 0.00938967 0.0
-0.000363324 0.010861 0.0
-0.000408528 0.0125079 0.0
-0.00046322 0.0143663 0.0
-0.000530303 0.0164817 0.0
-0.000614439 0.0189141 0.0
-0.000723678 0.0217457 0.0
-0.000872958 0.0250942 0.0
-0.0010916 0.0291359 0.0
-0.00143871 0.0341474 0.0
-0.00203394 0.0405775 0.0
-0.00311295 0.0491708 0.0
-0.0051262 0.0611378 0.0
-0.00886281 0.0784727 0.0
-0.0155967 0.103872 0.0
-0.0262476 0.142193 0.0
-0.0381771 0.191179 0.0
-0.0128619 0.264468 0.0
0.217612 0.174903 0.0
-0.000124535 6.39707e-05 0.0
-0.000677552 0.000677604 0.0
-0.00107378 0.00191096 0.0
-0.00132901 0.00344214 0.0
-0.00148213 0.005213 0.0
-0.00159333 0.00713321 0.0
-0.0016977 0.00919167 0.0
-0.00181602 0.0113918 0.0
-0.00195844 0.0137579 0.0
-0.00213116 0.016322 0.0
-0.00233927 0.0191232 0.0
-0.00258871 0.0222076 0.0
-0.00288732 0.0256293 0.0
-0.003246 0.0294532 0.0
-0.0036802 0.0337593 0.0
-0.00421243 0.0386481 0.0
-0.00487638 0.0442501 0.0
-0.00572413 0.0507388 0.0
-0.00683848 0.0583509 0.0
-0.00835399 0.0674159 0.0
-0.01049 0.0783952 0.0
-0.0135976 0.0919252 0.0
-0.0182055 0.108837 0.0
-0.0250405 0.130065 0.0
-0.0348606 0.156315 0.0
-0.0480652 0.186932 0.0
-0.0622066 0.21827 0.0
-0.0673474 0.237423 0.0
-0.00266904 0.218657 0.0
0.307026 0.117128 0.0
-0.000630233 0.000136177 0.0
-0.0019059 0.0010491 0.0
-0.00281128 0.00275358 0.0
-0.00340461 0.00480937 0.0
-0.00378932 0.00716058 0.0
-0.00408321 0.00970269 0.0
-0.00436317 0.0124266 0.0
-0.00467559 0.0153385 0.0
-0.00504591 0.0184696 0.0
-0.00549029 0.02186 0.0
-0.00602224 0.025559 0.0
-0.0066568 0.0296236 0.0
-0.00741322 0.0341205 0.0
-0.0083176 0.0391285 0.0
-0.0094062 0.0447422 0.0
-0.0107306 0.0510776 0.0
-0.0123653 0.0582801 0.0
-0.0144206 0.0665344 0.0
-0.0170606 0.0760785 0.0
-0.0205297 0.0872192 0.0
-0.0251813 0.100344 0.0
-0.0314908 0.115915 0.0
-0.0399904 0.134388 0.0
-0.0510232 0.156004 0.0
-0.0640086 0.180181 0.0
-0.0760298 0.204543 0.0
-0.0777649 0.222168 0.0
-0.0461666 0.221479 0.0
0.0889705 0.170653 0.0
0.477682 0.0771394 0.0
-0.00127339 0.000173356 0.0
-0.00337994 0.00124803 0.0
-0.00483585 0.00319947 0.0
-0.00578295 0.00551308 0.0
-0.00641306 0.00813912 0.0
-0.00690623 0.0109685 0.0
-0.00738204 0.0139962 0.0
-0.00791216 0.0172307 0.0
-0.00853711 0.0207059 0.0
-0.00928298 0.0244643 0.0
-0.0101715 0.0285572 0.0
-0.0112265 0.0330436 0.0
-0.0124775 0.0379908 0.0
-0.0139639 0.0434766 0.0
-0.015739 0.0495918 0.0
-0.0178768 0.0564433 0.0
-0.0204807 0.0641585 0.0
-0.0236974 0.0728895 0.0
-0.0277342 0.0828163 0.0
-0.0328792 0.0941455 0.0
-0.0395095 0.107094 0.0
-0.0480527 0.121847 0.0
-0.0588083 0.138419 0.0
-0.0714771 0.156428 0.0
-0.0840625 0.17445 0.0
-0.0908659 0.18943 0.0
-0.078288 0.194144 0.0
-0.0168578 0.179854 0.0
0.159068 0.123424 0.0
0.574394 0.0486827 0.0
-0.00199085 0.00018129 0.0
-0.00499873 0.00130736 0.0
-0.00703187 0.00333911 0.0
-0.00834233 0.00572729 0.0
-0.00922425 0.00842549 0.0
-0.00992428 0.0113235 0.0
-0.0106056 0.0144194 0.0
-0.0113647 0.0177225 0.0
-0.0122566 0.0212667 0.0
-0.0133166 0.0250932 0.0
-0.014574 0.0292513 0.0
-0.0160598 0.0337956 0.0
-0.0178119 0.0387875 0.0
-0.0198796 0.0442951 0.0
-0.0223282 0.0503949 0.0
-0.0252456 0.0571719 0.0
-0.0287508 0.0647206 0.0
-0.0330061 0.0731434 0.0
-0.0382295 0.0825457 0.0
-0.0447027 0.093024 0.0
-0.0527543 0.104636 0.0
-0.0626673 0.117343 0.0
-0.0743997 0.130875 0.0
-0.0869284 0.144532 0.0
-0.0968886 0.156628 0.0
-0.0962048 0.164184 0.0
-0.0680431 0.160978 0.0
0.0201355 0.140492 0.0
0.224735 0.0881142 0.0
0.642715 0.0299278 0.0
-0.00270717 0.000176431 0.0
-0.00662234 0.00128726 0.0
-0.00922496 0.00329 0.0
-0.0108873 0.00563435 0.0
-0.0120103 0.00827603 0.0
-0.0129084 0.0111067 0.0
-0.0137875 0.0141259 0.0
-0.0147674 0.0173427 0.0
-0.0159162 0.0207893 0.0
-0.0172768 0.0245036 0.0
-0.0188841 0.02853 0.0
-0.0207741 0.0329165 0.0
-0.0229898 0.037715 0.0
-0.0255858 0.0429809 0.0
-0.0286324 0.0487722 0.0
-0.0322218 0.0551489 0.0
-0.0364749 0.0621699 0.0
-0.0415496 0.0698881 0.0
-0.0476475 0.0783409 0.0
-0.0550098 0.0875329 0.0
-0.0638775 0.0974018 0.0
-0.0743568 0.107766 0.0
-0.0860655 0.118201 0.0
-0.0973485 0.127897 0.0
-0.103756 0.135207 0.0
-0.0955226 0.137572 0.0
-0.0538622 0.129929 0.0
0.0539698 0.108399 0.0
0.277234 0.0633418 0.0
0.689183 0.0184558 0.0
-0.00339682 0.000165544 0.0
-0.00819236 0.00122156 0.0
-0.011342 0.00312698 0.0
-0.0133392 0.00535298 0.0
-0.0146891 0.00785746 0.0
-0.0157731 0.0105366 0.0
-0.0168379 0.0133905 0.0
-0.0180249 0.0164272 0.0
-0.0194137 0.0196761 0.0
-0.0210533 0.0231709 0.0
-0.0229825 0.0269502 0.0
-0.0252399 0.0310543 0.0
-0.0278708 0.035525 0.0
-0.0309306 0.0404042 0.0
-0.0344891 0.0457322 0.0
-0.038635 0.0515453 0.0
-0.0434806 0.0578712 0.0
-0.0491663 0.0647221 0.0
-0.0558615 0.0720829 0.0
-0.0637498 0.0798942 0.0
-0.0729714 0.08802 0.0
-0.0834563 0.0962047 0.0
-0.0945177 0.103972 0.0
-0.103978 0.110531 0.0
-0.106551 0.114412 0.0
-0.0912778 0.113549 0.0
-0.0382928 0.103957 0.0
0.0844311 0.0835301 0.0
0.319599 0.0459101 0.0
0.72143 0.0114447 0.0
-0.0040403 0.000152272 0.0
-0.00966266 0.00113 0.0
-0.0133231 0.00289448 0.0
-0.015631 0.00495334 0.0
-0.0171897 0.00726748 0.0
-0.0184439 0.00974013 0.0
-0.0196783 0.0123715 0.0
-0.0210541 0.0151684 0.0
-0.0226607 0.0181569 0.0
-0.024552 0.0213664 0.0
-0.0267686 0.0248295 0.0
-0.0293502 0.0285791 0.0
-0.0323412 0.0326474 0.0
-0.0357948 0.0370645 0.0
-0.0397757 0.0418554 0.0
-0.0443635 0.047037 0.0
-0.0496548 0.0526128 0.0
-0.0557653 0.0585655 0.0
-0.0628245 0.064845 0.0
-0.0709539 0.0713533 0.0
-0.0801956 0.0779174 0.0
-0.0903243 0.0842562 0.0
-0.100402 0.0899016 0.0
-0.107844 0.0941402 0.0
-0.106745 0.0957212 0.0
-0.0853372 0.0930278 0.0
-0.0232219 0.0829793 0.0
0.1105 0.0645854 0.0
0.353199 0.0336868 0.0
0.744166 0.00720191 0.0
-0.00462831 0.00013747 0.0
-0.0110074 0.00102095 0.0
-0.0151335 0.00261425 0.0
-0.0177236 0.00447134 0.0
-0.0194708 0.00655712 0.0
-0.0208781 0.00878399 0.0
-0.0222648 0.0111523 0.0
-0.0238098 0.0136678 0.0
-0.0256108 0.0163534 0.0
-0.027725 0.019234 0.0
-0.0301941 0.0223368 0.0
-0.0330568 0.0256883 0.0
-0.0363551 0.0293126 0.0
-0.0401373 0.0332301 0.0
-0.0444603 0.0374542 0.0
-0.0493912 0.0419879 0.0
-0.0550076 0.0468183 0.0
-0.0613971 0.0519094 0.0
-0.068648 0.057192 0.0
-0.0768219 0.0625501 0.0
-0.0858737 0.0678001 0.0
-0.0954469 0.0726664 0.0
-0.104402 0.0767204 0.0
-0.109843 0.079346 0.0
-0.105409 0.0795058 0.0
-0.0787867 0.0759484 0.0
-0.00935737 0.0662976 0.0
0.132512 0.050214 0.0
0.379814 0.0250493 0.0
0.760506 0.00463155 0.0
-0.00515283 0.000121354 0.0
-0.0122057 0.00089836 0.0
-0.016745 0.00229733 0.0
-0.0195846 0.00392593 0.0
-0.0214982 0.00575386 0.0
-0.0230405 0.00770455 0.0
-0.0245614 0.00977869 0.0
-0.0262553 0.0119814 0.0
-0.0282267 0.0143325 0.0
-0.0305354 0.016853 0.0
-0.0332228 0.0195655 0.0
-0.0363259 0.022491 0.0
-0.039883 0.0256477 0.0
-0.0439364 0.0290491 0.0
-0.0485337 0.0327008 0.0
-0.0537279 0.0365973 0.0
-0.0595769 0.0407166 0.0
-0.0661399 0.0450142 0.0
-0.0734665 0.0494137 0.0
-0.0815644 0.0537969 0.0
-0.0903143 0.0579867 0.0
-0.0992531 0.0617304 0.0
-0.107083 0.0646515 0.0
-0.110669 0.0662303 0.0
-0.103312 0.0656135 0.0
-0.0723329 0.0618336 0.0
0.0029417 0.0530308 0.0
0.150851 0.0392819 0.0
0.400885 0.0188826 0.0
0.772478 0.00306506 0.0
-0.00560747 0.000103884 0.0
-0.0132417 0.000764137 0.0
-0.0181358 0.00194987 0.0
-0.0211894 0.00332816 0.0
-0.0232455 0.00487421 0.0
-0.024904 0.00652396 0.0
-0.0265408 0.00827879 0.0
-0.0283634 0.0101435 0.0
-0.0304819 0.0121352 0.0
-0.0329577 0.0142718 0.0
-0.0358317 0.016572 0.0
-0.0391387 0.0190528 0.0
-0.0429128 0.0217285 0.0
-0.04719 0.0246082 0.0
-0.0520082 0.0276938 0.0
-0.0574068 0.0309762 0.0
-0.0634245 0.0344311 0.0
-0.0700944 0.0380131 0.0
-0.0774312 0.0416489 0.0
-0.0853965 0.0452285 0.0
-0.0938087 0.0485922 0.0
-0.102119 0.0515185 0.0
-0.108904 0.0536851 0.0
-0.110841 0.0546575 0.0
-0.100978 0.0537331 0.0
-0.0663824 0.0501466 0.0
0.013541 0.0424558 0.0
0.165996 0.0309022 0.0
0.417593 0.0144195 0.0
0.781417 0.00209793 0.0
-0.00598632 8.50823e-05 0.0
-0.0141014 0.000619735 0.0
-0.0192875 0.00157637 0.0
-0.022517 0.00268618 0.0
-0.0246907 0.00393042 0.0
-0.0264459 0.00525872 0.0
-0.0281802 0.00667344 0.0
-0.0301116 0.00817957 0.0
-0.0323547 0.00979176 0.0
-0.0349718 0.0115253 0.0
-0.0380035 0.0133961 0.0
-0.0414821 0.0154185 0.0
-0.0454382 0.0176047 0.0
-0.0499016 0.0199622 0.0
-0.0549017 0.0224924 0.0
-0.0604653 0.0251873 0.0
-0.0666141 0.0280254 0.0
-0.0733584 0.0309677 0.0
-0.0806828 0.0339507 0.0
-0.0885097 0.0368804 0.0
-0.0966062 0.0396211 0.0
-0.104353 0.0419852 0.0
-0.110224 0.0437021 0.0
-0.110748 0.044407 0.0
-0.0987728 0.0435172 0.0
-0.0611931 0.0404018 0.0
0.022447 0.0339481 0.0
0.178397 0.0243958 0.0
0.43086 0.0111318 0.0
0.788204 0.00148717 0.0
-0.00628422 6.50314e-05 0.0
-0.0147732 0.000466537 0.0
-0.0201848 0.00118084 0.0
-0.0235499 0.00200718 0.0
-0.0258154 0.0029332 0.0
-0.0276477 0.00392317 0.0
-0.029461 0.00498064 0.0
-0.0314815 0.00611104 0.0
-0.0338273 0.00732697 0.0
-0.0365617 0.00864163 0.0
-0.0397247 0.0100689 0.0
-0.043347 0.0116217 0.0
-0.0474562 0.0133116 0.0
-0.0520775 0.0151469 0.0
-0.0572331 0.0171316 0.0
-0.0629398 0.0192622 0.0
-0.0692052 0.0215253 0.0
-0.0760203 0.023893 0.0
-0.0833448 0.0263178 0.0
-0.0910686 0.028727 0.0
-0.0989154 0.0310128 0.0
-0.106206 0.0330227 0.0
-0.111328 0.0345315 0.0
-0.110681 0.0352297 0.0
-0.0969524 0.0346235 0.0
-0.0569134 0.0321701 0.0
0.0297482 0.0269822 0.0
0.188446 0.019249 0.0
0.441387 0.00865089 0.0
0.793425 0.00108708 0.0
-0.00649672 4.3878e-05 0.0
-0.0152474 0.000306038 0.0
-0.0208151 0.000767359 0.0
-0.0242741 0.00129823 0.0
-0.0266046 0.00189293 0.0
-0.0284938 0.00253102 0.0
-0.0303676 0.00321734 0.0
-0.0324577 0.00395793 0.0
-0.0348849 0.00476355 0.0
-0.0377134 0.00564566 0.0
-0.0409832 0.00661667 0.0
-0.0447245 0.00768906 0.0
-0.0489631 0.00887504 0.0
-0.0537213 0.0101856 0.0
-0.0590168 0.0116296 0.0
-0.064859 0.0132115 0.0
-0.0712451 0.0149295 0.0
-0.0781515 0.0167714 0.0
-0.0855178 0.0187108 0.0
-0.0932066 0.0207007 0.0
-0.100904 0.0226643 0.0
-0.107877 0.024484 0.0
-0.112434 0.0259749 0.0
-0.11086 0.0268684 0.0
-0.0956991 0.0267322 0.0
-0.0536267 0.0250737 0.0
0.0355277 0.0211512 0.0
0.196455 0.0150818 0.0
0.449699 0.00672383 0.0
0.797469 0.000811492 0.0
-0.0066202 2.1809e-05 0.0
-0.0155165 0.000139854 0.0
-0.0211685 0.000340158 0.0
-0.0246785 0.000566578 0.0
-0.0270468 0.000820124 0.0
-0.0289723 0.00109604 0.0
-0.0308875 0.00140039 0.0
-0.0330276 0.00173985 0.0
-0.0355148 0.00212332 0.0
-0.0384146 0.0025607 0.0
-0.0417678 0.00306322 0.0
-0.0456052 0.00364341 0.0
-0.0499526 0.00431509 0.0
-0.0548319 0.00509306 0.0
-0.0602589 0.00599289 0.0
-0.0662397 0.00702973 0.0
-0.0727651 0.00821626 0.0
-0.079802 0.00956035 0.0
-0.0872748 0.0110609 0.0
-0.0950236 0.0127013 0.0
-0.102701 0.0144395 0.0
-0.109521 0.0161937 0.0
-0.113715 0.0178146 0.0
-0.111455 0.0190629 0.0
-0.0951487 0.0195431 0.0
-0.0513876 0.0187824 0.0
0.0398645 0.0161241 0.0
0.202667 0.0115994 0.0
0.456176 0.0051696 0.0
0.800591 0.000608322 0.0
-0.00665188 -9.54397e-07 0.0
-0.0155747 -3.02935e-05 0.0
-0.021238 -9.63206e-05 0.0
-0.0247553 -0.000180218 0.0
-0.0271334 -0.000274307 0.0
-0.029074 -0.000367566 0.0
-0.031011 -0.000452935 0.0
-0.0331803 -0.000523338 0.0
-0.0357053 -0.000571891 0.0
-0.0386528 -0.000590416 0.0
-0.0420653 -0.000568869 0.0
-0.0459756 -0.00049459 0.0
-0.0504119 -0.000351779 0.0
-0.0553983 -0.000121024 0.0
-0.0609529 0.000221003 0.0
-0.067082 0.000701343 0.0
-0.0737757 0.00135014 0.0
-0.0809967 0.00219879 0.0
-0.0886601 0.0032761 0.0
-0.0965877 0.00460151 0.0
-0.104399 0.00617273 0.0
-0.111257 0.00794703 0.0
-0.115307 0.00981039 0.0
-0.112603 0.0115417 0.0
-0.0954151 0.0127617 0.0
-0.050248 0.0129897 0.0
0.042809 0.0116093 0.0
0.207257 0.0085568 0.0
0.461085 0.00384992 0.0
0.802959 0.000444431 0.0
-0.00659013 -2.42127e-05 0.0
-0.015419 -0.00020275 0.0
-0.0210196 -0.000537574 0.0
-0.0245 -0.000934227 0.0
-0.0268595 -0.00137872 0.0
-0.0287934 -0.00184457 0.0
-0.0307316 -0.00232413 0.0
-0.0329084 -0.00281029 0.0
-0.0354474 -0.00329861 0.0
-0.0384173 -0.00378307 0.0
-0.0418632 -0.00425524 0.0
-0.0458218 -0.00470279 0.0
-0.0503256 -0.00510829 0.0
-0.055404 -0.00544792 0.0
-0.0610805 -0.00569049 0.0
-0.067368 -0.00579619 0.0
-0.0742617 -0.00571564 0.0
-0.0817273 -0.00539074 0.0
-0.0896773 -0.00475759 0.0
-0.097921 -0.00375366 0.0
-0.106048 -0.00233281 0.0
-0.113164 -0.000491601 0.0
-0.117317 0.00169089 0.0
-0.114418 0.00400451 0.0
-0.0965928 0.0060757 0.0
-0.0502616 0.00738791 0.0
0.0443704 0.00732712 0.0
0.210315 0.00572744 0.0
0.464581 0.0026446 0.0
0.804664 0.000295428 0.0
-0.00643388 -4.77288e-05 0.0
-0.0150481 -0.00037561 0.0
-0.0205124 -0.00097857 0.0
-0.0239118 -0.00168677 0.0
-0.0262238 -0.0024805 0.0
-0.0281281 -0.00331851 0.0
-0.0300453 -0.00419311 0.0
-0.0322057 -0.00509775 0.0
-0.0347324 -0.00603106 0.0
-0.037696 -0.00698992 0.0
-0.0411454 -0.00796847 0.0
-0.0451224 -0.00895574 0.0
-0.0496665 -0.00993391 0.0
-0.0548158 -0.0108761 0.0
-0.0606041 -0.0117439 0.0
-0.0670563 -0.012485 0.0
-0.0741806 -0.0130304 0.0
-0.0819543 -0.0132929 0.0
-0.0902971 -0.0131688 0.0
-0.0990132 -0.012544 0.0
-0.107664 -0.0113122 0.0
-0.115285 -0.00940925 0.0
-0.11981 -0.00686915 0.0
-0.117001 -0.00388743 0.0
-0.0988121 -0.000866159 0.0
-0.0515109 0.00161927 0.0
0.0445357 0.00295611 0.0
0.211878 0.00286781 0.0
0.466717 0.00143532 0.0
0.805731 0.00014121 0.0
-0.00618347 -7.11879e-05 0.0
-0.0144636 -0.000546586 0.0
-0.0197191 -0.00141359 0.0
-0.0229939 -0.0024283 0.0
-0.0252293 -0.00356598 0.0
-0.0270801 -0.00477155 0.0
-0.0289524 -0.00603797 0.0
-0.0310701 -0.00736001 0.0
-0.033555 -0.00874025 0.0
-0.0364794 -0.0101795 0.0
-0.0398969 -0.011676 0.0
-0.0438557 -0.0132216 0.0
-0.0484044 -0.0148003 0.0
-0.053593 -0.0163844 0.0
-0.0594705 -0.0179309 0.0
-0.0660805 -0.0193772 0.0
-0.0734529 -0.020636 0.0
-0.0815883 -0.0215911 0.0
-0.0904262 -0.0220951 0.0
-0.0997787 -0.0219746 0.0
-0.109186 -0.0210482 0.0
-0.117613 -0.0191687 0.0
-0.122847 -0.016295 0.0
-0.120433 -0.0125923 0.0
-0.10211 -0.00849812 0.0
-0.0540978 -0.00469436 0.0
0.0431474 -0.00183954 0.0
0.211805 -0.000328495 0.0
0.46743 5.1599e-05 0.0
0.806137 -4.84965e-05 0.0
-0.00584047 -9.42546e-05 0.0
-0.01367 -0.000713205 0.0
-0.0186462 -0.00183641 0.0
-0.0217536 -0.00314835 0.0
-0.0238829 -0.00462004 0.0
-0.0256553 -0.00618378 0.0
-0.0274571 -0.00783395 0.0
-0.0295032 -0.00956755 0.0
-0.0319128 -0.0113921 0.0
-0.03476 -0.0133139 0.0
-0.0381029 -0.0153366 0.0
-0.0419975 -0.0174579 0.0
-0.046503 -0.0196662 0.0
-0.0516842 -0.0219367 0.0
-0.0576099 -0.0242263 0.0
-0.0643494 -0.0264668 0.0
-0.0719647 -0.0285571 0.0
-0.080493 -0.0303546 0.0
-0.0899115 -0.0316681 0.0
-0.100059 -0.032258 0.0
-0.110471 -0.0318521 0.0
-0.120044 -0.0301936 0.0
-0.126398 -0.0271295 0.0
-0.124809 -0.0227505 0.0
-0.106714 -0.017484 0.0
-0.0581634 -0.0121432 0.0
0.0401876 -0.00750961 0.0
0.210007 -0.00417383 0.0
0.466434 -0.00166983 0.0
0.805686 -0.000308874 0.0
-0.00540781 -0.000116603 0.0
-0.012675 -0.000872796 0.0
-0.0173042 -0.00224014 0.0
-0.0202027 -0.00383522 0.0
-0.0221968 -0.00562566 0.0
-0.0238651 -0.00753258 0.0
-0.025569 -0.00955258 0.0
-0.0275117 -0.0116858 0.0
-0.0298086 -0.0139459 0.0
-0.0325347 -0.016346 0.0
-0.0357525 -0.0188976 0.0
-0.0395255 -0.0216068 0.0
-0.0439248 -0.0244705 0.0
-0.0490317 -0.0274721 0.0
-0.0549387 -0.0305748 0.0
-0.0617475 -0.0337126 0.0
-0.0695624 -0.0367794 0.0
-0.0784741 -0.0396143 0.0
-0.0885196 -0.0419875 0.0
-0.0995922 -0.043592 0.0
-0.111251 -0.0440513 0.0
-0.122341 -0.0429682 0.0
-0.130305 -0.0400275 0.0
-0.130096 -0.0351789 0.0
-0.112746 -0.0287706 0.0
-0.0640446 -0.0217022 0.0
0.0351948 -0.0148556 0.0
0.206064 -0.0091971 0.0
0.4634 -0.00397982 0.0
0.804171 -0.000694133 0.0
-0.00488999 -0.000137912 0.0
-0.0114899 -0.00102233 0.0
-0.0157085 -0.00261676 0.0
-0.0183589 -0.00447522 0.0
-0.0201892 -0.00656276 0.0
-0.0217272 -0.0087911 0.0
-0.0233045 -0.0111597 0.0
-0.0251097 -0.0136727 0.0
-0.0272527 -0.0163509 0.0
-0.0298082 -0.0192157 0.0
-0.032842 -0.0222889 0.0
-0.0364242 -0.0255879 0.0
-0.0406371 -0.0291229 0.0
-0.0455789 -0.032892 0.0
-0.0513678 -0.0368734 0.0
-0.0581425 -0.041015 0.0
-0.0660598 -0.0452195 0.0
-0.0752807 -0.049324 0.0
-0.0859288 -0.0530758 0.0
-0.0979904 -0.0561104 0.0
-0.111093 -0.0579445 0.0
-0.12407 -0.0580142 0.0
-0.134204 -0.0557822 0.0
-0.136085 -0.0509579 0.0
-0.120238 -0.0436784 0.0
-0.0720413 -0.0348064 0.0
0.0276569 -0.0252096 0.0
0.199316 -0.0164396 0.0
0.457591 -0.0074278 0.0
0.801118 -0.00132454 0.0
-0.00429298 -0.000157864 0.0
-0.01013 -0.00115799 0.0
-0.0138801 -0.00295593 0.0
-0.016246 -0.00505059 0.0
-0.0178851 -0.00740538 0.0
-0.0192667 -0.00992449 0.0
-0.020688 -0.0126107 0.0
-0.0223202 -0.0154728 0.0
-0.0242655 -0.0185393 0.0
-0.0265965 -0.0218413 0.0
-0.02938 -0.0254123 0.0
-0.0326909 -0.0292847 0.0
-0.0366197 -0.0334868 0.0
-0.0412799 -0.0380381 0.0
-0.0468137 -0.0429426 0.0
-0.0533983 -0.0481769 0.0
-0.061249 -0.0536732 0.0
-0.0706117 -0.0592928 0.0
-0.0817252 -0.0647911 0.0
-0.0947144 -0.0697774 0.0
-0.10934 -0.0736829 0.0
-0.124501 -0.0757723 0.0
-0.13738 -0.0752341 0.0
-0.142223 -0.0714105 0.0
-0.128979 -0.0640196 0.0
-0.0824634 -0.0536089 0.0
0.0167643 -0.0407155 0.0
0.188588 -0.0276202 0.0
0.447659 -0.0129951 0.0
0.795619 -0.00244457 0.0
-0.0036256 -0.000175812 0.0
-0.00861749 -0.00127362 0.0
-0.0118487 -0.00324163 0.0
-0.013898 -0.00553451 0.0
-0.0153206 -0.0081148 0.0
-0.0165209 -0.0108813 0.0
-0.0177575 -0.01384 0.0
-0.0191816 -0.0170046 0.0
-0.0208852 -0.0204111 0.0
-0.022936 -0.0241009 0.0
-0.0253994 -0.0281206 0.0
-0.0283506 -0.0325196 0.0
-0.0318844 -0.037348 0.0
-0.0361236 -0.0426539 0.0
-0.041229 -0.0484775 0.0
-0.047411 -0.0548413 0.0
-0.0549417 -0.0617325 0.0
-0.0641584 -0.0690741 0.0
-0.0754371 -0.0766804 0.0
-0.0890883 -0.0841968 0.0
-0.105086 -0.0910342 0.0
-0.12251 -0.0963305 0.0
-0.138577 -0.0989885 0.0
-0.147312 -0.0978583 0.0
-0.138141 -0.0919623 0.0
-0.0952141 -0.08101 0.0
0.00159332 -0.0647272 0.0
0.172152 -0.0455276 0.0
0.431432 -0.0224162 0.0
0.78605 -0.00454607 0.0
-0.00289924 -0.00019039 0.0
-0.0069823 -0.00135826 0.0
-0.00965395 -0.00344647 0.0
-0.0113594 -0.00588212 0.0
-0.0125427 -0.00862724 0.0
-0.0135391 -0.0115775 0.0
-0.0145647 -0.0147412 0.0
-0.0157481 -0.0181362 0.0
-0.0171684 -0.0218054 0.0
-0.018886 -0.0257994 0.0
-0.0209601 -0.030178 0.0
-0.023462 -0.0350077 0.0
-0.0264836 -0.0403623 0.0
-0.030148 -0.0463222 0.0
-0.034623 -0.0529723 0.0
-0.0401385 -0.0603957 0.0
-0.0470092 -0.0686612 0.0
-0.0556532 -0.0777979 0.0
-0.0665868 -0.0877481 0.0
-0.0803387 -0.0982932 0.0
-0.0971797 -0.10895 0.0
-0.116521 -0.11886 0.0
-0.13585 -0.126723 0.0
-0.149267 -0.130837 0.0
-0.145977 -0.129229 0.0
-0.109602 -0.120053 0.0
-0.0189944 -0.101413 0.0
0.146998 -0.0743081 0.0
0.404924 -0.0387215 0.0
0.769082 -0.00867189 0.0
-0.00213728 -0.000197352 0.0
-0.00527738 -0.00138936 0.0
-0.0073639 -0.00352003 0.0
-0.00870626 -0.00601378 0.0
-0.00963316 -0.00883144 0.0
-0.0104082 -0.0118678 0.0
-0.0112031 -0.0151314 0.0
-0.012121 -0.0186427 0.0
-0.0132263 -0.0224493 0.0
-0.0145682 -0.0266089 0.0
-0.0161966 -0.0311916 0.0
-0.0181725 -0.0362785 0.0
-0.020577 -0.0419646 0.0
-0.0235218 -0.0483614 0.0
-0.027165 -0.055599 0.0
-0.0317328 -0.0638281 0.0
-0.0375515 -0.0732173 0.0
-0.0450841 -0.0839405 0.0
-0.0549533 -0.0961438 0.0
-0.0678943 -0.109874 0.0
-0.0845207 -0.124949 0.0
-0.10473 -0.140769 0.0
-0.126594 -0.156078 0.0
-0.144787 -0.168757 0.0
-0.148952 -0.175669 0.0
-0.122749 -0.172697 0.0
-0.0440507 -0.155065 0.0
0.111194 -0.119676 0.0
0.363845 -0.0670147 0.0
0.739701 -0.0169405 0.0
-0.00137042 -0.000189366 0.0
-0.00357023 -0.00133059 0.0
-0.00506251 -0.00338222 0.0
-0.00602954 -0.00580252 0.0
-0.00668805 -0.00854885 0.0
-0.0072308 -0.0115173 0.0