# vtk DataFile Version 3.0
Malha 2D com triângulos e temperatura
ASCII
DATASET UNSTRUCTURED_GRID

POINTS 961 double
0 0 0
1 0 0
1 1 0
0 1 0
0.0333333 0 0
0.0666667 0 0
0.1 0 0
0.133333 0 0
0.166667 0 0
0.2 0 0
0.233333 0 0
0.266667 0 0
0.3 0 0
0.333333 0 0
0.366667 0 0
0.4 0 0
0.433333 0 0
0.466667 0 0
0.5 0 0
0.533333 0 0
0.566667 0 0
0.6 0 0
0.633333 0 0
0.666667 0 0
0.7 0 0
0.733333 0 0
0.766667 0 0
0.8 0 0
0.833333 0 0
0.866667 0 0
0.9 0 0
0.933333 0 0
0.966667 0 0
1 0.0333333 0
1 0.0666667 0
1 0.1 0
1 0.133333 0
1 0.166667 0
1 0.2 0
1 0.233333 0
1 0.266667 0
1 0.3 0
1 0.333333 0
1 0.366667 0
1 0.4 0
1 0.433333 0
1 0.466667 0
1 0.5 0
1 0.533333 0
1 0.566667 0
1 0.6 0
1 0.633333 0
1 0.666667 0
1 0.7 0
1 0.733333 0
1 0.766667 0
1 0.8 0
1 0.833333 0
1 0.866667 0
1 0.9 0
1 0.933333 0
1 0.966667 0
0.966667 1 0
0.933333 1 0
0.9 1 0
0.866667 1 0
0.833333 1 0
0.8 1 0
0.766667 1 0
0.733333 1 0
0.7 1 0
0.666667 1 0
0.633333 1 0
0.6 1 0
0.566667 1 0
0.533333 1 0
0.5 1 0
0.466667 1 0
0.433333 1 0
0.4 1 0
0.366667 1 0
0.333333 1 0
0.3 1 0
0.266667 1 0
0.233333 1 0
0.2 1 0
0.166667 1 0
0.133333 1 0
0.1 1 0
0.0666667 1 0
0.0333333 1 0
0 0.966667 0
0 0.933333 0
0 0.9 0
0 0.866667 0
0 0.833333 0
0 0.8 0
0 0.766667 0
0 0.733333 0
0 0.7 0
0 0.666667 0
0 0.633333 0
0 0.6 0
0 0.566667 0
0 0.533333 0
0 0.5 0
0 0.466667 0
0 0.433333 0
0 0.4 0
0 0.366667 0
0 0.333333 0
0 0.3 0
0 0.266667 0
0 0.233333 0
0 0.2 0
0 0.166667 0
0 0.133333 0
0 0.1 0
0 0.0666667 0
0 0.0333333 0
0.0333333 0.0333333 0
0.0333333 0.0666667 0
0.0333333 0.1 0
0.0333333 0.133333 0
0.0333333 0.166667 0
0.0333333 0.2 0
0.0333333 0.233333 0
0.0333333 0.266667 0
0.0333333 0.3 0
0.0333333 0.333333 0
0.0333333 0.366667 0
0.0333333 0.4 0
0.0333333 0.433333 0
0.0333333 0.466667 0
0.0333333 0.5 0
0.0333333 0.533333 0
0.0333333 0.566667 0
0.0333333 0.6 0
0.0333333 0.633333 0
0.0333333 0.666667 0
0.0333333 0.7 0
0.0333333 0.733333 0
0.0333333 0.766667 0
0.0333333 0.8 0
0.0333333 0.833333 0
0.0333333 0.866667 0
0.0333333 0.9 0
0.0333333 0.933333 0
0.0333333 0.966667 0
0.0666667 0.0333333 0
0.0666667 0.0666667 0
0.0666667 0.1 0
0.0666667 0.133333 0
0.0666667 0.166667 0
0.0666667 0.2 0
0.0666667 0.233333 0
0.0666667 0.266667 0
0.0666667 0.3 0
0.0666667 0.333333 0
0.0666667 0.366667 0
0.0666667 0.4 0
0.0666667 0.433333 0
0.0666667 0.466667 0
0.0666667 0.5 0
0.0666667 0.533333 0
0.0666667 0.566667 0
0.0666667 0.6 0
0.0666667 0.633333 0
0.0666667 0.666667 0
0.0666667 0.7 0
0.0666667 0.733333 0
0.0666667 0.766667 0
0.0666667 0.8 0
0.0666667 0.833333 0
0.0666667 0.866667 0
0.0666667 0.9 0
0.0666667 0.933333 0
0.0666667 0.966667 0
0.1 0.0333333 0
0.1 0.0666667 0
0.1 0.1 0
0.1 0.133333 0
0.1 0.166667 0
0.1 0.2 0
0.1 0.233333 0
0.1 0.266667 0
0.1 0.3 0
0.1 0.333333 0
0.1 0.366667 0
0.1 0.4 0
0.1 0.433333 0
0.1 0.466667 0
0.1 0.5 0
0.1 0.533333 0
0.1 0.566667 0
0.1 0.6 0
0.1 0.633333 0
0.1 0.666667 0
0.1 0.7 0
0.1 0.733333 0
0.1 0.766667 0
0.1 0.8 0
0.1 0.833333 0
0.1 0.866667 0
0.1 0.9 0
0.1 0.933333 0
0.1 0.966667 0
0.133333 0.0333333 0
0.133333 0.0666667 0
0.133333 0.1 0
0.133333 0.133333 0
0.133333 0.166667 0
0.133333 0.2 0
0.133333 0.233333 0
0.133333 0.266667 0
0.133333 0.3 0
0.133333 0.333333 0
0.133333 0.366667 0
0.133333 0.4 0
0.133333 0.433333 0
0.133333 0.466667 0
0.133333 0.5 0
0.133333 0.533333 0
0.133333 0.566667 0
0.133333 0.6 0
0.133333 0.633333 0
0.133333 0.666667 0
0.133333 0.7 0
0.133333 0.733333 0
0.133333 0.766667 0
0.133333 0.8 0
0.133333 0.833333 0
0.133333 0.866667 0
0.133333 0.9 0
0.133333 0.933333 0
0.133333 0.966667 0
0.166667 0.0333333 0
0.166667 0.0666667 0
0.166667 0.1 0
0.166667 0.133333 0
0.166667 0.166667 0
0.166667 0.2 0
0.166667 0.233333 0
0.166667 0.266667 0
0.166667 0.3 0
0.166667 0.333333 0
0.166667 0.366667 0
0.166667 0.4 0
0.166667 0.433333 0
0.166667 0.466667 0
0.166667 0.5 0
0.166667 0.533333 0
0.166667 0.566667 0
0.166667 0.6 0
0.166667 0.633333 0
0.166667 0.666667 0
0.166667 0.7 0
0.166667 0.733333 0
0.166667 0.766667 0
0.166667 0.8 0
0.166667 0.833333 0
0.166667 0.866667 0
0.166667 0.9 0
0.166667 0.933333 0
0.166667 0.966667 0
0.2 0.0333333 0
0.2 0.0666667 0
0.2 0.1 0
0.2 0.133333 0
0.2 0.166667 0
0.2 0.2 0
0.2 0.233333 0
0.2 0.266667 0
0.2 0.3 0
0.2 0.333333 0
0.2 0.366667 0
0.2 0.4 0
0.2 0.433333 0
0.2 0.466667 0
0.2 0.5 0
0.2 0.533333 0
0.2 0.566667 0
0.2 0.6 0
0.2 0.633333 0
0.2 0.666667 0
0.2 0.7 0
0.2 0.733333 0
0.2 0.766667 0
0.2 0.8 0
0.2 0.833333 0
0.2 0.866667 0
0.2 0.9 0
0.2 0.933333 0
0.2 0.966667 0
0.233333 0.0333333 0
0.233333 0.0666667 0
0.233333 0.1 0
0.233333 0.133333 0
0.233333 0.166667 0
0.233333 0.2 0
0.233333 0.233333 0
0.233333 0.266667 0
0.233333 0.3 0
0.233333 0.333333 0
0.233333 0.366667 0
0.233333 0.4 0
0.233333 0.433333 0
0.233333 0.466667 0
0.233333 0.5 0
0.233333 0.533333 0
0.233333 0.566667 0
0.233333 0.6 0
0.233333 0.633333 0
0.233333 0.666667 0
0.233333 0.7 0
0.233333 0.733333 0
0.233333 0.766667 0
0.233333 0.8 0
0.233333 0.833333 0
0.233333 0.866667 0
0.233333 0.9 0
0.233333 0.933333 0
0.233333 0.966667 0
0.266667 0.0333333 0
0.266667 0.0666667 0
0.266667 0.1 0
0.266667 0.133333 0
0.266667 0.166667 0
0.266667 0.2 0
0.266667 0.233333 0
0.266667 0.266667 0
0.266667 0.3 0
0.266667 0.333333 0
0.266667 0.366667 0
0.266667 0.4 0
0.266667 0.433333 0
0.266667 0.466667 0
0.266667 0.5 0
0.266667 0.533333 0
0.266667 0.566667 0
0.266667 0.6 0
0.266667 0.633333 0
0.266667 0.666667 0
0.266667 0.7 0
0.266667 0.733333 0
0.266667 0.766667 0
0.266667 0.8 0
0.266667 0.833333 0
0.266667 0.866667 0
0.266667 0.9 0
0.266667 0.933333 0
0.266667 0.966667 0
0.3 0.0333333 0
0.3 0.0666667 0
0.3 0.1 0
0.3 0.133333 0
0.3 0.166667 0
0.3 0.2 0
0.3 0.233333 0
0.3 0.266667 0
0.3 0.3 0
0.3 0.333333 0
0.3 0.366667 0
0.3 0.4 0
0.3 0.433333 0
0.3 0.466667 0
0.3 0.5 0
0.3 0.533333 0
0.3 0.566667 0
0.3 0.6 0
0.3 0.633333 0
0.3 0.666667 0
0.3 0.7 0
0.3 0.733333 0
0.3 0.766667 0
0.3 0.8 0
0.3 0.833333 0
0.3 0.866667 0
0.3 0.9 0
0.3 0.933333 0
0.3 0.966667 0
0.333333 0.0333333 0
0.333333 0.0666667 0
0.333333 0.1 0
0.333333 0.133333 0
0.333333 0.166667 0
0.333333 0.2 0
0.333333 0.233333 0
0.333333 0.266667 0
0.333333 0.3 0
0.333333 0.333333 0
0.333333 0.366667 0
0.333333 0.4 0
0.333333 0.433333 0
0.333333 0.466667 0
0.333333 0.5 0
0.333333 0.533333 0
0.333333 0.566667 0
0.333333 0.6 0
0.333333 0.633333 0
0.333333 0.666667 0
0.333333 0.7 0
0.333333 0.733333 0
0.333333 0.766667 0
0.333333 0.8 0
0.333333 0.833333 0
0.333333 0.866667 0
0.333333 0.9 0
0.333333 0.933333 0
0.333333 0.966667 0
0.366667 0.0333333 0
0.366667 0.0666667 0
0.366667 0.1 0
0.366667 0.133333 0
0.366667 0.166667 0
0.366667 0.2 0
0.366667 0.233333 0
0.366667 0.266667 0
0.366667 0.3 0
0.366667 0.333333 0
0.366667 0.366667 0
0.366667 0.4 0
0.366667 0.433333 0
0.366667 0.466667 0
0.366667 0.5 0
0.366667 0.533333 0
0.366667 0.566667 0
0.366667 0.6 0
0.366667 0.633333 0
0.366667 0.666667 0
0.366667 0.7 0
0.366667 0.733333 0
0.366667 0.766667 0
0.366667 0.8 0
0.366667 0.833333 0
0.366667 0.866667 0
0.366667 0.9 0
0.366667 0.933333 0
0.366667 0.966667 0
0.4 0.0333333 0
0.4 0.0666667 0
0.4 0.1 0
0.4 0.133333 0
0.4 0.166667 0
0.4 0.2 0
0.4 0.233333 0
0.4 0.266667 0
0.4 0.3 0
0.4 0.333333 0
0.4 0.366667 0
0.4 0.4 0
0.4 0.433333 0
0.4 0.466667 0
0.4 0.5 0
0.4 0.533333 0
0.4 0.566667 0
0.4 0.6 0
0.4 0.633333 0
0.4 0.666667 0
0.4 0.7 0
0.4 0.733333 0
0.4 0.766667 0
0.4 0.8 0
0.4 0.833333 0
0.4 0.866667 0
0.4 0.9 0
0.4 0.933333 0
0.4 0.966667 0
0.433333 0.0333333 0
0.433333 0.0666667 0
0.433333 0.1 0
0.433333 0.133333 0
0.433333 0.166667 0
0.433333 0.2 0
0.433333 0.233333 0
0.433333 0.266667 0
0.433333 0.3 0
0.433333 0.333333 0
0.433333 0.366667 0
0.433333 0.4 0
0.433333 0.433333 0
0.433333 0.466667 0
0.433333 0.5 0
0.433333 0.533333 0
0.433333 0.566667 0
0.433333 0.6 0
0.433333 0.633333 0
0.433333 0.666667 0
0.433333 0.7 0
0.433333 0.733333 0
0.433333 0.766667 0
0.433333 0.8 0
0.433333 0.833333 0
0.433333 0.866667 0
0.433333 0.9 0
0.433333 0.933333 0
0.433333 0.966667 0
0.466667 0.0333333 0
0.466667 0.0666667 0
0.466667 0.1 0
0.466667 0.133333 0
0.466667 0.166667 0
0.466667 0.2 0
0.466667 0.233333 0
0.466667 0.266667 0
0.466667 0.3 0
0.466667 0.333333 0
0.466667 0.366667 0
0.466667 0.4 0
0.466667 0.433333 0
0.466667 0.466667 0
0.466667 0.5 0
0.466667 0.533333 0
0.466667 0.566667 0
0.466667 0.6 0
0.466667 0.633333 0
0.466667 0.666667 0
0.466667 0.7 0
0.466667 0.733333 0
0.466667 0.766667 0
0.466667 0.8 0
0.466667 0.833333 0
0.466667 0.866667 0
0.466667 0.9 0
0.466667 0.933333 0
0.466667 0.966667 0
0.5 0.0333333 0
0.5 0.0666667 0
0.5 0.1 0
0.5 0.133333 0
0.5 0.166667 0
0.5 0.2 0
0.5 0.233333 0
0.5 0.266667 0
0.5 0.3 0
0.5 0.333333 0
0.5 0.366667 0
0.5 0.4 0
0.5 0.433333 0
0.5 0.466667 0
0.5 0.5 0
0.5 0.533333 0
0.5 0.566667 0
0.5 0.6 0
0.5 0.633333 0
0.5 0.666667 0
0.5 0.7 0
0.5 0.733333 0
0.5 0.766667 0
0.5 0.8 0
0.5 0.833333 0
0.5 0.866667 0
0.5 0.9 0
0.5 0.933333 0
0.5 0.966667 0
0.533333 0.0333333 0
0.533333 0.0666667 0
0.533333 0.1 0
0.533333 0.133333 0
0.533333 0.166667 0
0.533333 0.2 0
0.533333 0.233333 0
0.533333 0.266667 0
0.533333 0.3 0
0.533333 0.333333 0
0.533333 0.366667 0
0.533333 0.4 0
0.533333 0.433333 0
0.533333 0.466667 0
0.533333 0.5 0
0.533333 0.533333 0
0.533333 0.566667 0
0.533333 0.6 0
0.533333 0.633333 0
0.533333 0.666667 0
0.533333 0.7 0
0.533333 0.733333 0
0.533333 0.766667 0
0.533333 0.8 0
0.533333 0.833333 0
0.533333 0.866667 0
0.533333 0.9 0
0.533333 0.933333 0
0.533333 0.966667 0
0.566667 0.0333333 0
0.566667 0.0666667 0
0.566667 0.1 0
0.566667 0.133333 0
0.566667 0.166667 0
0.566667 0.2 0
0.566667 0.233333 0
0.566667 0.266667 0
0.566667 0.3 0
0.566667 0.333333 0
0.566667 0.366667 0
0.566667 0.4 0
0.566667 0.433333 0
0.566667 0.466667 0
0.566667 0.5 0
0.566667 0.533333 0
0.566667 0.566667 0
0.566667 0.6 0
0.566667 0.633333 0
0.566667 0.666667 0
0.566667 0.7 0
0.566667 0.733333 0
0.566667 0.766667 0
0.566667 0.8 0
0.566667 0.833333 0
0.566667 0.866667 0
0.566667 0.9 0
0.566667 0.933333 0
0.566667 0.966667 0
0.6 0.0333333 0
0.6 0.0666667 0
0.6 0.1 0
0.6 0.133333 0
[...]
CELL_DATA 900
VECTORS velocity double
5.61372e-05 -5.50891e-05 0.0
-4.26735e-05 7.59633e-05 0.0
-0.000118428 0.000535174 0.0
-0.000167197 0.00117501 0.0
-0.000191208 0.00194915 0.0
-0.000204995 0.00279917 0.0
-0.000215874 0.00371261 0.0
-0.000228434 0.00468688 0.0
-0.00024448 0.00573224 0.0
-0.000264885 0.00686318 0.0
-0.000290151 0.00809811 0.0
-0.00032087 0.00945837 0.0
-0.000357901 0.0109691 0.0
-0.000402537 0.0126604 0.0
-0.000456739 0.0145697 0.0
-0.000523585 0.0167445 0.0
-0.000608154 0.0192483 0.0
-0.000719341 0.0221682 0.0
-0.000873508 0.0256296 0.0
-0.00110184 0.0298197 0.0
-0.00146451 0.0350273 0.0
-0.00207828 0.0417067 0.0
-0.00316661 0.0505825 0.0
-0.00515547 0.0627905 0.0
-0.00880905 0.0801725 0.0
-0.0154152 0.105238 0.0
-0.0259983 0.14279 0.0
-0.0380606 0.190901 0.0
-0.0130458 0.263789 0.0
0.21726 0.174488 0.0
-7.78183e-05 4.62448e-05 0.0
-0.000603647 0.000604358 0.0
-0.00101835 0.00178618 0.0
-0.00131019 0.00331257 0.0
-0.00149719 0.00512357 0.0
-0.00163189 0.00712116 0.0
-0.00174998 0.00928198 0.0
-0.00187592 0.0116011 0.0
-0.00202339 0.0140983 0.0
-0.00220089 0.0168047 0.0
-0.0024148 0.0197605 0.0
-0.00267174 0.0230142 0.0
-0.00298006 0.0266232 0.0
-0.00335126 0.0306564 0.0
-0.00380177 0.035199 0.0
-0.00435568 0.0403583 0.0
-0.00504928 0.0462734 0.0
-0.00593836 0.0531296 0.0
-0.00711012 0.0611783 0.0
-0.00870154 0.0707647 0.0
-0.0109251 0.0823594 0.0
-0.014102 0.096585 0.0
-0.0186905 0.114203 0.0
-0.0253068 0.135986 0.0
-0.0346185 0.162366 0.0
-0.0471026 0.19238 0.0
-0.0607234 0.222264 0.0
-0.0660799 0.239483 0.0
-0.00239165 0.219026 0.0
0.306341 0.116892 0.0
-0.000538135 0.00012059 0.0
-0.00178104 0.00099611 0.0
-0.002744 0.00268953 0.0
-0.00343053 0.00479886 0.0
-0.00390136 0.00726523 0.0
-0.00425853 0.00997328 0.0
-0.00458004 0.0128996 0.0
-0.00492039 0.0160407 0.0
-0.00531303 0.0194229 0.0
-0.00577981 0.0230859 0.0
-0.00633768 0.0270812 0.0
-0.00700379 0.0314698 0.0
-0.00779901 0.0363236 0.0
-0.00875126 0.0417275 0.0
-0.00989937 0.0477839 0.0
-0.0112986 0.0546178 0.0
-0.0130289 0.0623857 0.0
-0.0152068 0.0712856 0.0
-0.0180019 0.0815697 0.0
-0.0216554 0.0935565 0.0
-0.0264931 0.107632 0.0
-0.0329114 0.124223 0.0
-0.041285 0.143684 0.0
-0.0517324 0.166047 0.0
-0.063504 0.190408 0.0
-0.0738373 0.214014 0.0
-0.07417 0.229757 0.0
-0.0424839 0.226264 0.0
0.0910484 0.172449 0.0
0.477489 0.0772108 0.0
-0.00115913 0.00016394 0.0
-0.00325241 0.00123323 0.0
-0.00482279 0.00323027 0.0
-0.00593178 0.00566506 0.0
-0.00670955 0.00848335 0.0
-0.0073139 0.0115627 0.0
-0.00786708 0.0148837 0.0
-0.00845378 0.0184452 0.0
-0.00912743 0.0222769 0.0
-0.00992343 0.0264215 0.0
-0.0108693 0.0309338 0.0
-0.0119926 0.0358775 0.0
-0.0133256 0.0413264 0.0
-0.0149106 0.0473654 0.0
-0.0168051 0.0540935 0.0
-0.0190879 0.0616273 0.0
-0.0218696 0.0701044 0.0
-0.0253034 0.079688 0.0
-0.0295997 0.0905675 0.0
-0.035033 0.102953 0.0
-0.0419269 0.117048 0.0
-0.0505778 0.132985 0.0
-0.0610411 0.150664 0.0
-0.0726812 0.169477 0.0
-0.0832444 0.187664 0.0
-0.0872299 0.201753 0.0
-0.0720551 0.204286 0.0
-0.00976551 0.186483 0.0
0.164029 0.126268 0.0
0.575481 0.0489901 0.0
-0.00187586 0.000177451 0.0
-0.00491322 0.00132705 0.0
-0.00713233 0.00345348 0.0
-0.00868175 0.00601767 0.0
-0.00977866 0.00896725 0.0
-0.0106427 0.0121767 0.0
-0.0114423 0.01563 0.0
-0.0122924 0.0193277 0.0
-0.013266 0.0233004 0.0
-0.0144112 0.0275903 0.0
-0.0157655 0.0322503 0.0
-0.017365 0.0373407 0.0
-0.0192516 0.0429293 0.0
-0.0214784 0.0490915 0.0
-0.0241153 0.0559114 0.0
-0.0272562 0.0634825 0.0
-0.0310271 0.0719072 0.0
-0.0355955 0.0812953 0.0
-0.0411772 0.0917562 0.0
-0.0480276 0.103382 0.0
-0.0563942 0.116209 0.0
-0.0663771 0.130141 0.0
-0.0776061 0.144784 0.0
-0.0886115 0.15922 0.0
-0.095672 0.171424 0.0
-0.0909269 0.178001 0.0
-0.0587867 0.172415 0.0
0.0310883 0.148231 0.0
0.233213 0.0915358 0.0
0.645579 0.0303769 0.0
-0.00260811 0.000176015 0.0
-0.00661325 0.0013298 0.0
-0.00948215 0.0034596 0.0
-0.0114636 0.00601389 0.0
-0.0128696 0.00894128 0.0
-0.0139851 0.0121168 0.0
-0.0150248 0.0155268 0.0
-0.0161324 0.0191722 0.0
-0.0173986 0.0230828 0.0
-0.018883 0.0272982 0.0
-0.0206304 0.0318667 0.0
-0.0226834 0.0368417 0.0
-0.0250896 0.0422816 0.0
-0.0279078 0.0482479 0.0
-0.0312133 0.0548058 0.0
-0.0351038 0.0620213 0.0
-0.0397061 0.0699592 0.0
-0.0451809 0.078676 0.0
-0.0517212 0.0882084 0.0
-0.0595287 0.0985522 0.0
-0.0687371 0.109618 0.0
-0.0792218 0.121166 0.0
-0.0901936 0.13265 0.0
-0.0994452 0.143054 0.0
-0.10207 0.1504 0.0
-0.0885186 0.151738 0.0
-0.041486 0.141647 0.0
0.0689944 0.116403 0.0
0.289551 0.0668985 0.0
0.694036 0.0189382 0.0
-0.00332262 0.00016676 0.0
-0.0082788 0.00127583 0.0
-0.0117786 0.00332413 0.0
-0.0141746 0.00577421 0.0
-0.015874 0.00857619 0.0
-0.0172273 0.0116091 0.0
-0.018494 0.0148609 0.0
-0.0198454 0.0183323 0.0
-0.0213882 0.0220511 0.0
-0.023191 0.0260528 0.0
-0.0253045 0.0303801 0.0
-0.0277749 0.0350786 0.0
-0.0306522 0.0401959 0.0
-0.0339963 0.0457796 0.0
-0.0378816 0.0518755 0.0
-0.0424014 0.0585245 0.0
-0.0476721 0.0657577 0.0
-0.0538338 0.073588 0.0
-0.0610405 0.081997 0.0
-0.0694239 0.0909128 0.0
-0.0789923 0.100171 0.0
-0.089401 0.109458 0.0
-0.0994834 0.118182 0.0
-0.10641 0.125357 0.0
-0.10434 0.129199 0.0
-0.0825294 0.12729 0.0
-0.0228096 0.115272 0.0
0.103476 0.0912383 0.0
0.335727 0.0492944 0.0
0.728237 0.0118857 0.0
-0.00399478 0.000154149 0.0
-0.00985224 0.00118842 0.0
-0.013946 0.00309922 0.0
-0.0167293 0.00538135 0.0
-0.0187002 0.00798783 0.0
-0.0202724 0.0108051 0.0
-0.0217482 0.0138223 0.0
-0.0233237 0.0170398 0.0
-0.02512 0.0204829 0.0
-0.0272132 0.0241829 0.0
-0.0296576 0.0281766 0.0
-0.0325007 0.0325019 0.0
-0.0357923 0.0371963 0.0
-0.0395893 0.0422947 0.0
-0.0439605 0.0478268 0.0
-0.0489889 0.0538127 0.0
-0.0547731 0.0602578 0.0
-0.0614246 0.0671433 0.0
-0.0690514 0.0744136 0.0
-0.0777107 0.0819568 0.0
-0.0872908 0.0895703 0.0
-0.0972504 0.096916 0.0
-0.106105 0.103416 0.0
-0.110525 0.108174 0.0
-0.103967 0.109641 0.0
-0.0748771 0.105901 0.0
-0.00474406 0.0934626 0.0
0.133367 0.0716633 0.0
0.372917 0.0367214 0.0
0.752746 0.00756238 0.0
-0.00461224 0.000139649 0.0
-0.0112999 0.00107917 0.0
-0.0159383 0.002814 0.0
-0.0190751 0.00488336 0.0
-0.0212925 0.00724459 0.0
-0.0230628 0.00979439 0.0
-0.0247274 0.0125234 0.0
-0.0265055 0.015432 0.0
-0.0285304 0.0185428 0.0
-0.0308839 0.021883 0.0
-0.0336225 0.025484 0.0
-0.0367935 0.0293769 0.0
-0.0404439 0.033591 0.0
-0.0446256 0.0381509 0.0
-0.0493983 0.0430741 0.0
-0.054831 0.0483659 0.0
-0.0610012 0.054014 0.0
-0.0679883 0.0599802 0.0
-0.0758527 0.0661881 0.0
-0.0845806 0.0725066 0.0
-0.0939514 0.0787219 0.0
-0.103255 0.0845022 0.0
-0.110742 0.0893115 0.0
-0.112687 0.0923617 0.0
-0.102016 0.0923292 0.0
-0.066621 0.0877123 0.0
0.0120253 0.0757097 0.0
0.158913 0.0565386 0.0
0.402793 0.0276701 0.0
0.770614 0.00490305 0.0
-0.00516545 0.000123762 0.0
-0.0125962 0.00095395 0.0
-0.0177202 0.00248438 0.0
-0.0211712 0.00430736 0.0
-0.0236069 0.0063858 0.0
-0.0255526 0.00862905 0.0
-0.0273851 0.0110297 0.0
-0.0293431 0.0135887 0.0
-0.0315707 0.016326 0.0
-0.0341543 0.0192655 0.0
-0.0371514 0.0224339 0.0
-0.0406077 0.025857 0.0
-0.0445663 0.0295576 0.0
-0.0490725 0.0335536 0.0
-0.0541756 0.0378541 0.0
-0.0599292 0.0424558 0.0
-0.0663881 0.0473369 0.0
-0.0735996 0.05245 0.0
-0.0815791 0.0577108 0.0
-0.0902475 0.0629854 0.0
-0.0992893 0.0680658 0.0
-0.107851 0.0726429 0.0
-0.113967 0.0762358 0.0
-0.113594 0.0781598 0.0
-0.09926 0.0772994 0.0
-0.0585058 0.0724464 0.0
0.0269273 0.0614915 0.0
0.180466 0.0448766 0.0
0.426775 0.0211221 0.0
0.783868 0.00326133 0.0
-0.00564717 0.000106515 0.0
-0.0137221 0.000815544 0.0
-0.019265 0.00211901 0.0
-0.0229864 0.00366886 0.0
-0.0256101 0.00543457 0.0
-0.0277077 0.00734011 0.0
-0.0296862 0.00938052 0.0
-0.0318016 0.0115578 0.0
-0.0342067 0.0138899 0.0
-0.0369914 0.0163978 0.0
-0.0402136 0.0191046 0.0
-0.0439168 0.0220321 0.0
-0.0481401 0.0251994 0.0
-0.0529217 0.0286202 0.0
-0.0583002 0.0323 0.0
-0.0643137 0.0362322 0.0
-0.0709954 0.0403927 0.0
-0.0783625 0.0447335 0.0
-0.0863887 0.0491732 0.0
-0.0949374 0.0535857 0.0
-0.103611 0.0577801 0.0
-0.111434 0.0614782 0.0
-0.11626 0.0642553 0.0
-0.113793 0.0655177 0.0
-0.0962572 0.0643262 0.0
-0.0509902 0.0596907 0.0
0.0399557 0.0500203 0.0
0.198559 0.0358095 0.0
0.44607 0.0163211 0.0
0.793879 0.00223495 0.0
-0.00605088 8.79008e-05 0.0
-0.0146614 0.000665673 0.0
-0.0205507 0.00172341 0.0
-0.0244952 0.00297809 0.0
-0.0272747 0.00440646 0.0
-0.0294995 0.00594864 0.0
-0.031602 0.00760262 0.0
-0.0338524 0.00937189 0.0
-0.0364104 0.0112728 0.0
-0.0393687 0.0133242 0.0
-0.0427854 0.0155465 0.0
-0.0467022 0.0179593 0.0
-0.0511541 0.0205796 0.0
-0.0561729 0.0234203 0.0
-0.0617875 0.0264869 0.0
-0.0680219 0.0297748 0.0
-0.0748896 0.0332637 0.0
-0.0823808 0.0369126 0.0
-0.0904323 0.0406508 0.0
-0.0988567 0.0443681 0.0
-0.107184 0.0478974 0.0
-0.114334 0.0509938 0.0
-0.118009 0.0532849 0.0
-0.113699 0.0542512 0.0
-0.0933984 0.0530924 0.0
-0.0443334 0.0489752 0.0
0.0511082 0.0406806 0.0
0.213627 0.0286886 0.0
0.461616 0.0127466 0.0
0.801562 0.0015815 0.0
-0.00637079 6.79452e-05 0.0
-0.0154006 0.000505743 0.0
-0.0215588 0.00130202 0.0
-0.0256764 0.00224321 0.0
-0.0285778 0.00331383 0.0
-0.0309046 0.00447139 0.0
-0.0331087 0.00571708 0.0
-0.0354717 0.00705631 0.0
-0.0381587 0.00850419 0.0
-0.0412648 0.0100779 0.0
-0.0448482 0.0117961 0.0
-0.0489495 0.0136773 0.0
-0.0536008 0.0157388 0.0
-0.0588288 0.0179949 0.0
-0.0646546 0.020455 0.0
-0.0710905 0.0231205 0.0
-0.0781334 0.0259806 0.0
-0.0857501 0.0290074 0.0
-0.0938452 0.0321476 0.0
-0.102186 0.0353132 0.0
-0.110239 0.0383648 0.0
-0.116829 0.0410915 0.0
-0.119521 0.0431658 0.0
-0.113628 0.0441247 0.0
-0.0909564 0.0432701 0.0
-0.0386794 0.0398755 0.0
0.0604749 0.032979 0.0
0.22608 0.0230157 0.0
0.474148 0.0100327 0.0
0.807535 0.00115355 0.0
-0.00660175 4.67455e-05 0.0
-0.015928 0.000337206 0.0
-0.022274 0.00085904 0.0
-0.0265122 0.0014718 0.0
-0.0295006 0.00216808 0.0
-0.0319033 0.00292358 0.0
-0.0341863 0.00374288 0.0
-0.0366392 0.00463344 0.0
-0.0394315 0.00560931 0.0
-0.0426602 0.00668634 0.0
-0.0463844 0.00788219 0.0
-0.0506445 0.00921531 0.0
-0.0554713 0.0107045 0.0
-0.0608888 0.0123681 0.0
-0.0669129 0.014222 0.0
-0.0735476 0.0162777 0.0
-0.0807768 0.0185386 0.0
-0.0885485 0.0209954 0.0
-0.0967394 0.0236184 0.0
-0.105076 0.0263472 0.0
-0.112965 0.0290737 0.0
-0.119142 0.0316204 0.0
-0.121046 0.0336971 0.0
-0.113826 0.0348805 0.0
-0.0891312 0.0345401 0.0
-0.0341168 0.0320151 0.0
0.0681535 0.0265138 0.0
0.236257 0.0184072 0.0
0.484229 0.00791978 0.0
0.81222 0.000861282 0.0
-0.00673947 2.44508e-05 0.0
-0.0162345 0.000161658 0.0
-0.022684 0.000398904 0.0
-0.0269888 0.000671666 0.0
-0.030028 0.000980703 0.0
-0.0324796 0.00132043 0.0
-0.0348181 0.00169871 0.0
-0.0373379 0.00212505 0.0
-0.0402113 0.00261233 0.0
-0.0435374 0.00317519 0.0
-0.047377 0.00383048 0.0
-0.0517716 0.00459717 0.0
-0.0567533 0.00549678 0.0
-0.062346 0.00655303 0.0
-0.0685639 0.00779079 0.0
-0.075407 0.00923482 0.0
-0.0828511 0.0109071 0.0
-0.0908302 0.0128223 0.0
-0.0991978 0.0149803 0.0
-0.107643 0.0173539 0.0
-0.115515 0.0198711 0.0
-0.121459 0.0223883 0.0
-0.122785 0.0246456 0.0
-0.114489 0.0262439 0.0
-0.0880784 0.0265896 0.0
-0.030708 0.025052 0.0
0.0742306 0.0209431 0.0
0.24443 0.014557 0.0
0.492277 0.00621742 0.0
0.815899 0.000648753 0.0
-0.00678039 1.26213e-06 0.0
-0.0163127 -1.91307e-05 0.0
-0.0227796 -7.36685e-05 0.0
-0.0270955 -0.000149002 0.0
-0.0301486 -0.000236277 0.0
-0.0326212 -0.000322253 0.0
-0.0349905 -0.000396095 0.0
-0.0375524 -0.000446608 0.0
-0.0404811 -0.000462414 0.0
-0.0438777 -0.000430335 0.0
-0.0478056 -0.000334471 0.0
-0.0523098 -0.000155098 0.0
-0.0574263 0.000132217 0.0
-0.0631821 0.000557206 0.0
-0.0695942 0.00115527 0.0
-0.0766638 0.00196709 0.0
-0.0843648 0.00303692 0.0
-0.092623 0.00440866 0.0
-0.101273 0.00611809 0.0
-0.10997 0.00817881 0.0
-0.118003 0.010562 0.0
-0.123923 0.013161 0.0
-0.124906 0.0157408 0.0
-0.115786 0.0179133 0.0
-0.0879301 0.0190945 0.0
-0.0285087 0.018653 0.0
0.0787671 0.0159541 0.0
0.250797 0.0112024 0.0
0.498588 0.00477545 0.0
0.818755 0.000478924 0.0
-0.00672225 -2.26137e-05 0.0
-0.0161581 -0.000203402 0.0
-0.0225549 -0.0005538 0.0
-0.0268257 -0.00098142 0.0
-0.0298548 -0.00146972 0.0
-0.0323195 -0.00198703 0.0
-0.0346936 -0.00252015 0.0
-0.0372713 -0.0030568 0.0
-0.0402272 -0.00358776 0.0
-0.0436649 -0.00410198 0.0
-0.0476517 -0.00458518 0.0
-0.0522377 -0.00501756 0.0
-0.0574648 -0.00537233 0.0
-0.063368 -0.00561388 0.0
-0.0699726 -0.00569584 0.0
-0.0772874 -0.00556009 0.0
-0.0852915 -0.005137 0.0
-0.0939106 -0.00434801 0.0
-0.102968 -0.00311323 0.0
-0.112089 -0.00136803 0.0
-0.120503 0.000910126 0.0
-0.126646 0.00365396 0.0
-0.127544 0.00665788 0.0
-0.117856 0.00953847 0.0
-0.0888134 0.0116946 0.0
-0.027598 0.0124635 0.0
0.0817723 0.011225 0.0
0.255472 0.00808573 0.0
0.503342 0.00345745 0.0
0.820893 0.000323368 0.0
-0.00656329 -4.69327e-05 0.0
-0.0157682 -0.000389082 0.0
-0.0220075 -0.00103586 0.0
-0.0261772 -0.00181566 0.0
-0.0291437 -0.00270494 0.0
-0.0315703 -0.00365449 0.0
-0.0339207 -0.0046496 0.0
-0.0364846 -0.00567779 0.0
-0.0394358 -0.00673294 0.0
-0.0428801 -0.00780726 0.0
-0.0468898 -0.00888942 0.0
-0.0515225 -0.00996115 0.0
-0.0568295 -0.0109947 0.0
-0.062858 -0.0119497 0.0
-0.0696473 -0.0127699 0.0
-0.0772218 -0.0133799 0.0
-0.0855761 -0.0136828 0.0
-0.0946462 -0.0135612 0.0
-0.104254 -0.012883 0.0
-0.113995 -0.0115198 0.0
-0.123028 -0.00938513 0.0
-0.129678 -0.00648791 0.0
-0.130801 -0.00300064 0.0
-0.12084 0.000683377 0.0
-0.0908446 0.00393647 0.0
-0.0280425 0.0060544 0.0
0.08322 0.00638898 0.0
0.258469 0.0049245 0.0
0.506586 0.00212023 0.0
0.822333 0.000155298 0.0
-0.00630337 -7.1373e-05 0.0
-0.0151439 -0.000573586 0.0
-0.0211393 -0.00151318 0.0
-0.0251523 -0.00264037 0.0
-0.0280175 -0.00392548 0.0
-0.0303741 -0.00530294 0.0
-0.0326703 -0.0067576 0.0
-0.0351875 -0.0082779 0.0
-0.0380974 -0.00986208 0.0
-0.0415079 -0.0115071 0.0
-0.0454971 -0.0132066 0.0
-0.0501315 -0.014946 0.0
-0.0554753 -0.0166994 0.0
-0.0615918 -0.0184249 0.0
-0.0685414 -0.0200593 0.0
-0.0763734 -0.0215126 0.0
-0.0851095 -0.0226618 0.0
-0.0947103 -0.0233485 0.0
-0.105011 -0.023382 0.0
-0.115591 -0.0225574 0.0
-0.125539 -0.0206973 0.0
-0.133039 -0.0177242 0.0
-0.134726 -0.0137561 0.0
-0.124811 -0.00919516 0.0
-0.0941951 -0.00471441 0.0
-0.0300794 -0.00111969 0.0
0.0829589 0.000918938 0.0
0.259701 0.0013124 0.0
0.508257 0.000572107 0.0
0.823035 -5.73954e-05 0.0
-0.00594369 -9.557e-05 0.0
-0.0142892 -0.00075398 0.0
-0.0199569 -0.00197816 0.0
-0.0237587 -0.00344253 0.0
-0.0264835 -0.0051123 0.0
-0.0287372 -0.00690712 0.0
-0.030946 -0.0088125 0.0
-0.0333798 -0.0108191 0.0
-0.0362063 -0.0129311 0.0
-0.0395352 -0.015152 0.0
-0.0434505 -0.0174828 0.0
-0.0480289 -0.0199161 0.0
-0.0533496 -0.0224319 0.0
-0.0594966 -0.0249917 0.0
-0.0665577 -0.0275313 0.0
-0.0746171 -0.0299516 0.0
-0.0837377 -0.0321091 0.0
-0.0939235 -0.0338067 0.0
-0.105043 -0.034792 0.0
-0.11668 -0.034772 0.0
-0.127866 -0.0334562 0.0
-0.136629 -0.0306443 0.0
-0.139343 -0.0263469 0.0
-0.129892 -0.0209204 0.0
-0.0989294 -0.0150839 0.0
-0.0336712 -0.00979297 0.0
0.0808068 -0.00577815 0.0
0.258825 -0.00320891 0.0
0.507982 -0.00141909 0.0
0.822777 -0.000355769 0.0
-0.00548716 -0.000119145 0.0
-0.0132124 -0.000926895 0.0
-0.0184721 -0.00242188 0.0
-0.0220102 -0.00420684 0.0
-0.024556 -0.00624288 0.0
-0.0266727 -0.00843684 0.0
-0.0287586 -0.010776 0.0
-0.0310686 -0.0132547 0.0
-0.0337643 -0.0158843 0.0
-0.0369557 -0.0186774 0.0
-0.0407324 -0.0216449 0.0
-0.0451817 -0.0247906 0.0
-0.0503986 -0.0281058 0.0
-0.0564909 -0.0315628 0.0
-0.0635794 -0.035105 0.0
-0.0717929 -0.038635 0.0
-0.0812512 -0.0419995 0.0
-0.0920239 -0.0449726 0.0
-0.104042 -0.0472456 0.0
-0.116925 -0.0484321 0.0
-0.12967 -0.0481084 0.0
-0.140159 -0.0459097 0.0
-0.144469 -0.0416747 0.0
-0.136091 -0.0356281 0.0
-0.10533 -0.0284331 0.0
-0.0393306 -0.0211344 0.0
0.0763735 -0.0145899 0.0
0.255416 -0.00925171 0.0
0.505247 -0.00416481 0.0
0.821256 -0.000806311 0.0
-0.00493864 -0.000141666 0.0
-0.0119267 -0.00108817 0.0
-0.0167031 -0.00283325 0.0
-0.0199281 -0.00491409 0.0
-0.0222575 -0.00728895 0.0
-0.0242028 -0.00985403 0.0
-0.0261287 -0.0125995 0.0
-0.0282714 -0.0155243 0.0
-0.0307838 -0.0186486 0.0
-0.0337745 -0.0219957 0.0
-0.037337 -0.02559 0.0
-0.0415675 -0.0294504 0.0
-0.0465765 -0.0335864 0.0
-0.0524961 -0.0379893 0.0
-0.0594834 -0.0426228 0.0
-0.0677196 -0.0474069 0.0
-0.0773961 -0.0521974 0.0
-0.0886724 -0.0567608 0.0
-0.101578 -0.0607506 0.0
-0.115814 -0.0636975 0.0
-0.13039 -0.0650362 0.0
-0.143073 -0.0641975 0.0
-0.149649 -0.0607643 0.0
-0.143162 -0.0546964 0.0
-0.113458 -0.0464199 0.0
-0.0474642 -0.0369229 0.0
0.0689121 -0.0270858 0.0
0.248584 -0.0179405 0.0
0.499164 -0.00822724 0.0
0.817915 -0.00153315 0.0
-0.00430525 -0.000162572 0.0
-0.0104508 -0.00123208 0.0
-0.0146765 -0.00319695 0.0
-0.0175432 -0.00553807 0.0
-0.0196205 -0.00821205 0.0
-0.0213607 -0.011107 0.0
-0.023089 -0.0142165 0.0
-0.0250192 -0.0175451 0.0
-0.0272928 -0.0211224 0.0
-0.0300141 -0.0249841 0.0
-0.0332773 -0.02917 0.0
-0.0371846 -0.0337191 0.0
-0.0418586 -0.0386646 0.0
-0.0474527 -0.0440276 0.0
-0.0541592 -0.0498063 0.0
-0.0622146 -0.0559589 0.0
-0.0718919 -0.0623788 0.0
-0.0834634 -0.0688606 0.0
-0.0970968 -0.07506 0.0
-0.112631 -0.080462 0.0
-0.129167 -0.0843794 0.0
-0.144436 -0.0860192 0.0
-0.153998 -0.084623 0.0
-0.150468 -0.0797045 0.0
-0.123162 -0.0711606 0.0
-0.0585852 -0.0595988 0.0
0.0573274 -0.0455806 0.0
0.236856 -0.0310978 0.0
0.488143 -0.0146071 0.0
0.811729 -0.00277723 0.0
-0.00359822 -0.000180725 0.0
-0.00881382 -0.00134939 0.0
-0.0124317 -0.00348949 0.0
-0.014901 -0.00603946 0.0
-0.016694 -0.00895537 0.0
-0.0181973 -0.0121201 0.0
-0.0196921 -0.0155304 0.0
-0.021366 -0.0191965 0.0
-0.0233457 -0.0231574 0.0
-0.0257277 -0.0274613 0.0
-0.0286029 -0.0321651 0.0
-0.0320738 -0.03733 0.0
-0.0362686 -0.0430187 0.0
-0.0413547 -0.0492906 0.0
-0.0475518 -0.0561936 0.0
-0.0551457 -0.0637479 0.0
-0.0644913 -0.0719208 0.0
-0.0759857 -0.0805864 0.0
-0.0899688 -0.0894706 0.0
-0.106484 -0.0980898 0.0
-0.124825 -0.105705 0.0
-0.142828 -0.111331 0.0
-0.155989 -0.113813 0.0
-0.156645 -0.112021 0.0
-0.133636 -0.104934 0.0
-0.0728885 -0.0922251 0.0
0.0403481 -0.0733622 0.0
0.218162 -0.0514848 0.0
0.469743 -0.0249973 0.0
0.800975 -0.00501052 0.0
-0.00283362 -0.000193948 0.0
-0.00705624 -0.00142488 0.0
-0.0100231 -0.00367368 0.0
-0.0120634 -0.00635731 0.0
-0.0135446 -0.00943198 0.0
-0.0147832 -0.0127781 0.0
-0.0160126 -0.0163948 0.0
-0.0173912 -0.0202967 0.0
-0.0190272 -0.0245305 0.0
-0.0210053 -0.0291561 0.0
-0.0234074 -0.0342462 0.0
-0.0263296 -0.0398841 0.0
-0.0298961 -0.0461638 0.0
-0.0342752 -0.0531879 0.0
-0.0396983 -0.0610648 0.0
-0.0464818 -0.0698982 0.0
-0.0550449 -0.0797672 0.0
-0.0659009 -0.0906881 0.0
-0.0795753 -0.102551 0.0
-0.0963727 -0.115028 0.0
-0.115901 -0.127474 0.0
-0.136309 -0.138829 0.0
-0.153322 -0.147582 0.0
-0.15936 -0.15181 0.0
-0.143109 -0.149194 0.0
-0.0900058 -0.137685 0.0
0.0164162 -0.114553 0.0
0.189229 -0.0830729 0.0
0.439766 -0.0423468 0.0
0.782275 -0.00924301 0.0
-0.00204205 -0.000197045 0.0
-0.0052467 -0.00143181 0.0
-0.0075398 -0.00368995 0.0
-0.00913124 -0.00639707 0.0
-0.0102815 -0.00950899 0.0
-0.0112358 -0.0129065 0.0
-0.0121779 -0.0165884 0.0
-0.013234 -0.0205717 0.0
-0.0144909 -0.0249079 0.0
-0.0160172 -0.0296644 0.0
-0.0178806 -0.034926 0.0
-0.0201628 -0.040794 0.0
-0.0229726 -0.0473887 0.0
-0.0264627 -0.0548534 0.0
-0.030852 -0.0633574 0.0
-0.0364552 -0.0730972 0.0
-0.0437146 -0.0842902 0.0
-0.0532161 -0.0971513 0.0
-0.0656413 -0.111839 0.0
-0.0815703 -0.12835 0.0
-0.10103 -0.146359 0.0
-0.122721 -0.164992 0.0
-0.143014 -0.18259 0.0
-0.154984 -0.196493 0.0
-0.147815 -0.202878 0.0
-0.106904 -0.197059 0.0
-0.0141805 -0.173747 0.0
0.147623 -0.131321 0.0
0.393717 -0.0716732 0.0
0.750621 -0.017569 0.0
-0.00126425 -0.000182351 0.0
-0.00347235 -0.00133348 0.0
-0.00509182 -0.0034579 0.0
-0.00622574 -0.00603053 0.0
-0.00703467 -0.00900449 0.0
-0.00769537 -0.0122636 0.0
-0.00834081 -0.0158033 0.0