# vtk DataFile Version 3.0
Malha 2D com triângulos e temperatura
ASCII
DATASET UNSTRUCTURED_GRID

POINTS 961 double
0 0 0
1 0 0
1 1 0
0 1 0
0.0333333 0 0
0.0666667 0 0
0.1 0 0
0.133333 0 0
0.166667 0 0
0.2 0 0
0.233333 0 0
0.266667 0 0
0.3 0 0
0.333333 0 0
0.366667 0 0
0.4 0 0
0.433333 0 0
0.466667 0 0
0.5 0 0
0.533333 0 0
0.566667 0 0
0.6 0 0
0.633333 0 0
0.666667 0 0
0.7 0 0
0.733333 0 0
0.766667 0 0
0.8 0 0
0.833333 0 0
0.866667 0 0
0.9 0 0
0.933333 0 0
0.966667 0 0
1 0.0333333 0
1 0.0666667 0
1 0.1 0
1 0.133333 0
1 0.166667 0
1 0.2 0
1 0.233333 0
1 0.266667 0
1 0.3 0
1 0.333333 0
1 0.366667 0
1 0.4 0
1 0.433333 0
1 0.466667 0
1 0.5 0
1 0.533333 0
1 0.566667 0
1 0.6 0
1 0.633333 0
1 0.666667 0
1 0.7 0
1 0.733333 0
1 0.766667 0
1 0.8 0
1 0.833333 0
1 0.866667 0
1 0.9 0
1 0.933333 0
1 0.966667 0
0.966667 1 0
0.933333 1 0
0.9 1 0
0.866667 1 0
0.833333 1 0
0.8 1 0
0.766667 1 0
0.733333 1 0
0.7 1 0
0.666667 1 0
0.633333 1 0
0.6 1 0
0.566667 1 0
0.533333 1 0
0.5 1 0
0.466667 1 0
0.433333 1 0
0.4 1 0
0.366667 1 0
0.333333 1 0
0.3 1 0
0.266667 1 0
0.233333 1 0
0.2 1 0
0.166667 1 0
0.133333 1 0
0.1 1 0
0.0666667 1 0
0.0333333 1 0
0 0.966667 0
0 0.933333 0
0 0.9 0
0 0.866667 0
0 0.833333 0
0 0.8 0
0 0.766667 0
0 0.733333 0
0 0.7 0
0 0.666667 0
0 0.633333 0
0 0.6 0
0 0.566667 0
0 0.533333 0
0 0.5 0
0 0.466667 0
0 0.433333 0
0 0.4 0
0 0.366667 0
0 0.333333 0
0 0.3 0
0 0.266667 0
0 0.233333 0
0 0.2 0
0 0.166667 0
0 0.133333 0
0 0.1 0
0 0.0666667 0
0 0.0333333 0
0.0333333 0.0333333 0
0.0333333 0.0666667 0
0.0333333 0.1 0
0.0333333 0.133333 0
0.0333333 0.166667 0
0.0333333 0.2 0
0.0333333 0.233333 0
0.0333333 0.266667 0
0.0333333 0.3 0
0.0333333 0.333333 0
0.0333333 0.366667 0
0.0333333 0.4 0
0.0333333 0.433333 0
0.0333333 0.466667 0
0.0333333 0.5 0
0.0333333 0.533333 0
0.0333333 0.566667 0
0.0333333 0.6 0
0.0333333 0.633333 0
0.0333333 0.666667 0
0.0333333 0.7 0
0.0333333 0.733333 0
0.0333333 0.766667 0
0.0333333 0.8 0
0.0333333 0.833333 0
0.0333333 0.866667 0
0.0333333 0.9 0
0.0333333 0.933333 0
0.0333333 0.966667 0
0.0666667 0.0333333 0
0.0666667 0.0666667 0
0.0666667 0.1 0
0.0666667 0.133333 0
0.0666667 0.166667 0
0.0666667 0.2 0
0.0666667 0.233333 0
0.0666667 0.266667 0
0.0666667 0.3 0
0.0666667 0.333333 0
0.0666667 0.366667 0
0.0666667 0.4 0
0.0666667 0.433333 0
0.0666667 0.466667 0
0.0666667 0.5 0
0.0666667 0.533333 0
0.0666667 0.566667 0
0.0666667 0.6 0
0.0666667 0.633333 0
0.0666667 0.666667 0
0.0666667 0.7 0
0.0666667 0.733333 0
0.0666667 0.766667 0
0.0666667 0.8 0
0.0666667 0.833333 0
0.0666667 0.866667 0
0.0666667 0.9 0
0.0666667 0.933333 0
0.0666667 0.966667 0
0.1 0.0333333 0
0.1 0.0666667 0
0.1 0.1 0
0.1 0.133333 0
0.1 0.166667 0
0.1 0.2 0
0.1 0.233333 0
0.1 0.266667 0
0.1 0.3 0
0.1 0.333333 0
0.1 0.366667 0
0.1 0.4 0
0.1 0.433333 0
0.1 0.466667 0
0.1 0.5 0
0.1 0.533333 0
0.1 0.566667 0
0.1 0.6 0
0.1 0.633333 0
0.1 0.666667 0
0.1 0.7 0
0.1 0.733333 0
0.1 0.766667 0
0.1 0.8 0
0.1 0.833333 0
0.1 0.866667 0
0.1 0.9 0
0.1 0.933333 0
0.1 0.966667 0
0.133333 0.0333333 0
0.133333 0.0666667 0
0.133333 0.1 0
0.133333 0.133333 0
0.133333 0.166667 0
0.133333 0.2 0
0.133333 0.233333 0
0.133333 0.266667 0
0.133333 0.3 0
0.133333 0.333333 0
0.133333 0.366667 0
0.133333 0.4 0
0.133333 0.433333 0
0.133333 0.466667 0
0.133333 0.5 0
0.133333 0.533333 0
0.133333 0.566667 0
0.133333 0.6 0
0.133333 0.633333 0
0.133333 0.666667 0
0.133333 0.7 0
0.133333 0.733333 0
0.133333 0.766667 0
0.133333 0.8 0
0.133333 0.833333 0
0.133333 0.866667 0
0.133333 0.9 0
0.133333 0.933333 0
0.133333 0.966667 0
0.166667 0.0333333 0
0.166667 0.0666667 0
0.166667 0.1 0
0.166667 0.133333 0
0.166667 0.166667 0
0.166667 0.2 0
0.166667 0.233333 0
0.166667 0.266667 0
0.166667 0.3 0
0.166667 0.333333 0
0.166667 0.366667 0
0.166667 0.4 0
0.166667 0.433333 0
0.166667 0.466667 0
0.166667 0.5 0
0.166667 0.533333 0
0.166667 0.566667 0
0.166667 0.6 0
0.166667 0.633333 0
0.166667 0.666667 0
0.166667 0.7 0
0.166667 0.733333 0
0.166667 0.766667 0
0.166667 0.8 0
0.166667 0.833333 0
0.166667 0.866667 0
0.166667 0.9 0
0.166667 0.933333 0
0.166667 0.966667 0
0.2 0.0333333 0
0.2 0.0666667 0
0.2 0.1 0
0.2 0.133333 0
0.2 0.166667 0
0.2 0.2 0
0.2 0.233333 0
0.2 0.266667 0
0.2 0.3 0
0.2 0.333333 0
0.2 0.366667 0
0.2 0.4 0
0.2 0.433333 0
0.2 0.466667 0
0.2 0.5 0
0.2 0.533333 0
0.2 0.566667 0
0.2 0.6 0
0.2 0.633333 0
0.2 0.666667 0
0.2 0.7 0
0.2 0.733333 0
0.2 0.766667 0
0.2 0.8 0
0.2 0.833333 0
0.2 0.866667 0
0.2 0.9 0
0.2 0.933333 0
0.2 0.966667 0
0.233333 0.0333333 0
0.233333 0.0666667 0
0.233333 0.1 0
0.233333 0.133333 0
0.233333 0.166667 0
0.233333 0.2 0
0.233333 0.233333 0
0.233333 0.266667 0
0.233333 0.3 0
0.233333 0.333333 0
0.233333 0.366667 0
0.233333 0.4 0
0.233333 0.433333 0
0.233333 0.466667 0
0.233333 0.5 0
0.233333 0.533333 0
0.233333 0.566667 0
0.233333 0.6 0
0.233333 0.633333 0
0.233333 0.666667 0
0.233333 0.7 0
0.233333 0.733333 0
0.233333 0.766667 0
0.233333 0.8 0
0.233333 0.833333 0
0.233333 0.866667 0
0.233333 0.9 0
0.233333 0.933333 0
0.233333 0.966667 0
0.266667 0.0333333 0
0.266667 0.0666667 0
0.266667 0.1 0
0.266667 0.133333 0
0.266667 0.166667 0
0.266667 0.2 0
0.266667 0.233333 0
0.266667 0.266667 0
0.266667 0.3 0
0.266667 0.333333 0
0.266667 0.366667 0
0.266667 0.4 0
0.266667 0.433333 0
0.266667 0.466667 0
0.266667 0.5 0
0.266667 0.533333 0
0.266667 0.566667 0
0.266667 0.6 0
0.266667 0.633333 0
0.266667 0.666667 0
0.266667 0.7 0
0.266667 0.733333 0
0.266667 0.766667 0
0.266667 0.8 0
0.266667 0.833333 0
0.266667 0.866667 0
0.266667 0.9 0
0.266667 0.933333 0
0.266667 0.966667 0
0.3 0.0333333 0
0.3 0.0666667 0
0.3 0.1 0
0.3 0.133333 0
0.3 0.166667 0
0.3 0.2 0
0.3 0.233333 0
0.3 0.266667 0
0.3 0.3 0
0.3 0.333333 0
0.3 0.366667 0
0.3 0.4 0
0.3 0.433333 0
0.3 0.466667 0
0.3 0.5 0
0.3 0.533333 0
0.3 0.566667 0
0.3 0.6 0
0.3 0.633333 0
0.3 0.666667 0
0.3 0.7 0
0.3 0.733333 0
0.3 0.766667 0
0.3 0.8 0
0.3 0.833333 0
0.3 0.866667 0
0.3 0.9 0
0.3 0.933333 0
0.3 0.966667 0
0.333333 0.0333333 0
0.333333 0.0666667 0
0.333333 0.1 0
0.333333 0.133333 0
0.333333 0.166667 0
0.333333 0.2 0
0.333333 0.233333 0
0.333333 0.266667 0
0.333333 0.3 0
0.333333 0.333333 0
0.333333 0.366667 0
0.333333 0.4 0
0.333333 0.433333 0
0.333333 0.466667 0
0.333333 0.5 0
0.333333 0.533333 0
0.333333 0.566667 0
0.333333 0.6 0
0.333333 0.633333 0
0.333333 0.666667 0
0.333333 0.7 0
0.333333 0.733333 0
0.333333 0.766667 0
0.333333 0.8 0
0.333333 0.833333 0
0.333333 0.866667 0
0.333333 0.9 0
0.333333 0.933333 0
0.333333 0.966667 0
0.366667 0.0333333 0
0.366667 0.0666667 0
0.366667 0.1 0
0.366667 0.133333 0
0.366667 0.166667 0
0.366667 0.2 0
0.366667 0.233333 0
0.366667 0.266667 0
0.366667 0.3 0
0.366667 0.333333 0
0.366667 0.366667 0
0.366667 0.4 0
0.366667 0.433333 0
0.366667 0.466667 0
0.366667 0.5 0
0.366667 0.533333 0
0.366667 0.566667 0
0.366667 0.6 0
0.366667 0.633333 0
0.366667 0.666667 0
0.366667 0.7 0
0.366667 0.733333 0
0.366667 0.766667 0
0.366667 0.8 0
0.366667 0.833333 0
0.366667 0.866667 0
0.366667 0.9 0
0.366667 0.933333 0
0.366667 0.966667 0
0.4 0.0333333 0
0.4 0.0666667 0
0.4 0.1 0
0.4 0.133333 0
0.4 0.166667 0
0.4 0.2 0
0.4 0.233333 0
0.4 0.266667 0
0.4 0.3 0
0.4 0.333333 0
0.4 0.366667 0
0.4 0.4 0
0.4 0.433333 0
0.4 0.466667 0
0.4 0.5 0
0.4 0.533333 0
0.4 0.566667 0
0.4 0.6 0
0.4 0.633333 0
0.4 0.666667 0
0.4 0.7 0
0.4 0.733333 0
0.4 0.766667 0
0.4 0.8 0
0.4 0.833333 0
0.4 0.866667 0
0.4 0.9 0
0.4 0.933333 0
0.4 0.966667 0
0.433333 0.0333333 0
0.433333 0.0666667 0
0.433333 0.1 0
0.433333 0.133333 0
0.433333 0.166667 0
0.433333 0.2 0
0.433333 0.233333 0
0.433333 0.266667 0
0.433333 0.3 0
0.433333 0.333333 0
0.433333 0.366667 0
0.433333 0.4 0
0.433333 0.433333 0
0.433333 0.466667 0
0.433333 0.5 0
0.433333 0.533333 0
0.433333 0.566667 0
0.433333 0.6 0
0.433333 0.633333 0
0.433333 0.666667 0
0.433333 0.7 0
0.433333 0.733333 0
0.433333 0.766667 0
0.433333 0.8 0
0.433333 0.833333 0
0.433333 0.866667 0
0.433333 0.9 0
0.433333 0.933333 0
0.433333 0.966667 0
0.466667 0.0333333 0
0.466667 0.0666667 0
0.466667 0.1 0
0.466667 0.133333 0
0.466667 0.166667 0
0.466667 0.2 0
0.466667 0.233333 0
0.466667 0.266667 0
0.466667 0.3 0
0.466667 0.333333 0
0.466667 0.366667 0
0.466667 0.4 0
0.466667 0.433333 0
0.466667 0.466667 0
0.466667 0.5 0
0.466667 0.533333 0
0.466667 0.566667 0
0.466667 0.6 0
0.466667 0.633333 0
0.466667 0.666667 0
0.466667 0.7 0
0.466667 0.733333 0
0.466667 0.766667 0
0.466667 0.8 0
0.466667 0.833333 0
0.466667 0.866667 0
0.466667 0.9 0
0.466667 0.933333 0
0.466667 0.966667 0
0.5 0.0333333 0
0.5 0.0666667 0
0.5 0.1 0
0.5 0.133333 0
0.5 0.166667 0
0.5 0.2 0
0.5 0.233333 0
0.5 0.266667 0
0.5 0.3 0
0.5 0.333333 0
0.5 0.366667 0
0.5 0.4 0
0.5 0.433333 0
0.5 0.466667 0
0.5 0.5 0
0.5 0.533333 0
0.5 0.566667 0
0.5 0.6 0
0.5 0.633333 0
0.5 0.666667 0
0.5 0.7 0
0.5 0.733333 0
0.5 0.766667 0
0.5 0.8 0
0.5 0.833333 0
0.5 0.866667 0
0.5 0.9 0
0.5 0.933333 0
0.5 0.966667 0
0.533333 0.0333333 0
0.533333 0.0666667 0
0.533333 0.1 0
0.533333 0.133333 0
0.533333 0.166667 0
0.533333 0.2 0
0.533333 0.233333 0
0.533333 0.266667 0
0.533333 0.3 0
0.533333 0.333333 0
0.533333 0.366667 0
0.533333 0.4 0
0.533333 0.433333 0
0.533333 0.466667 0
0.533333 0.5 0
0.533333 0.533333 0
0.533333 0.566667 0
0.533333 0.6 0
0.533333 0.633333 0
0.533333 0.666667 0
0.533333 0.7 0
0.533333 0.733333 0
0.533333 0.766667 0
0.533333 0.8 0
0.533333 0.833333 0
0.533333 0.866667 0
0.533333 0.9 0
0.533333 0.933333 0
0.533333 0.966667 0
0.566667 0.0333333 0
0.566667 0.0666667 0
0.566667 0.1 0
0.566667 0.133333 0
0.566667 0.166667 0
0.566667 0.2 0
0.566667 0.233333 0
0.566667 0.266667 0
0.566667 0.3 0
0.566667 0.333333 0
0.566667 0.366667 0
0.566667 0.4 0
0.566667 0.433333 0
0.566667 0.466667 0
0.566667 0.5 0
0.566667 0.533333 0
0.566667 0.566667 0
0.566667 0.6 0
0.566667 0.633333 0
0.566667 0.666667 0
0.566667 0.7 0
0.566667 0.733333 0
0.566667 0.766667 0
0.566667 0.8 0
0.566667 0.833333 0
0.566667 0.866667 0
0.566667 0.9 0
0.566667 0.933333 0
0.566667 0.966667 0
0.6 0.0333333 0
0.6 0.0666667 0
0.6 0.1 0
0.6 0.133333 0
[...]
CELL_DATA 900
VECTORS velocity double
7.09476e-05 -6.9809e-05 0.0
-4.70259e-06 -2.01053e-05 0.0
-7.95147e-05 0.000323802 0.0
-0.000139056 0.000887085 0.0
-0.000176787 0.00163434 0.0
-0.000201952 0.00250962 0.0
-0.000220298 0.00348922 0.0
-0.000236827 0.004559 0.0
-0.000254495 0.00571968 0.0
-0.00027528 0.00698002 0.0
-0.000300469 0.00835595 0.0
-0.000331129 0.00986873 0.0
-0.000368405 0.0115451 0.0
-0.000413851 0.0134178 0.0
-0.000469793 0.0155282 0.0
-0.000539875 0.0179286 0.0
-0.000629905 0.0206883 0.0
-0.000749327 0.0239002 0.0
-0.000913927 0.0276921 0.0
-0.00115134 0.0322433 0.0
-0.00151262 0.0378113 0.0
-0.00209806 0.0447775 0.0
-0.0031105 0.0537375 0.0
-0.00496639 0.0656491 0.0
-0.00846194 0.0821999 0.0
-0.0149875 0.105911 0.0
-0.0257192 0.141969 0.0
-0.0381882 0.189145 0.0
-0.0135682 0.262289 0.0
0.216728 0.173868 0.0
1.81391e-05 8.81936e-06 0.0
-0.000427431 0.000429608 0.0
-0.000861544 0.00145344 0.0
-0.00123019 0.00291305 0.0
-0.00151048 0.00476948 0.0
-0.00172969 0.00692943 0.0
-0.00191341 0.00935106 0.0
-0.00208647 0.0120085 0.0
-0.0022677 0.0149037 0.0
-0.00247168 0.0180565 0.0
-0.00270987 0.0215028 0.0
-0.00299261 0.0252916 0.0
-0.00333086 0.029485 0.0
-0.00373817 0.0341591 0.0
-0.00423279 0.0394082 0.0
-0.00484029 0.0453496 0.0
-0.00559696 0.052132 0.0
-0.0065544 0.0599447 0.0
-0.00778603 0.0690297 0.0
-0.00939738 0.0796936 0.0
-0.0115434 0.0923164 0.0
-0.0144614 0.107352 0.0
-0.0185238 0.1253 0.0
-0.024329 0.146612 0.0
-0.0327083 0.171458 0.0
-0.0445691 0.198869 0.0
-0.0584603 0.225603 0.0
-0.0651672 0.240064 0.0
-0.00322958 0.218279 0.0
0.304846 0.116313 0.0
-0.000328768 8.31011e-05 0.0
-0.00144789 0.000843648 0.0
-0.00249369 0.00244426 0.0
-0.00338489 0.00459675 0.0
-0.00409549 0.00726599 0.0
-0.00467388 0.0103385 0.0
-0.00517494 0.0137686 0.0
-0.00565314 0.0175275 0.0
-0.00615316 0.0216205 0.0
-0.00671092 0.0260744 0.0
-0.0073557 0.0309364 0.0
-0.00811397 0.0362696 0.0
-0.0090132 0.0421526 0.0
-0.010086 0.0486803 0.0
-0.0113744 0.0559661 0.0
-0.0129344 0.0641461 0.0
-0.0148409 0.0733835 0.0
-0.0171928 0.0838731 0.0
-0.0201175 0.0958414 0.0
-0.0237738 0.109541 0.0
-0.0283507 0.125222 0.0
-0.034062 0.143084 0.0
-0.0411111 0.163147 0.0
-0.0495984 0.18504 0.0
-0.0591146 0.20751 0.0
-0.0677421 0.227715 0.0
-0.0680474 0.239022 0.0
-0.0385378 0.230902 0.0
0.0916228 0.173579 0.0
0.475839 0.0769854 0.0
-0.000876925 0.000137939 0.0
-0.00285515 0.00115856 0.0
-0.00461618 0.00318827 0.0
-0.00609456 0.00582656 0.0
-0.00729069 0.00904091 0.0
-0.008282 0.012705 0.0
-0.00915604 0.0167754 0.0
-0.00999813 0.0212247 0.0
-0.0108798 0.0260617 0.0
-0.0118591 0.0313169 0.0
-0.0129836 0.0370419 0.0
-0.014296 0.0433036 0.0
-0.0158389 0.0501837 0.0
-0.0176614 0.0577774 0.0
-0.0198234 0.0661941 0.0
-0.0224014 0.075558 0.0
-0.0254913 0.0860075 0.0
-0.0292098 0.0976913 0.0
-0.0336897 0.110757 0.0
-0.0390646 0.125324 0.0
-0.045437 0.141434 0.0
-0.0528174 0.158957 0.0
-0.0609991 0.177418 0.0
-0.0693141 0.195763 0.0
-0.0759919 0.211814 0.0
-0.0767608 0.22191 0.0
-0.0606535 0.218967 0.0
-0.00067149 0.194842 0.0
0.167929 0.129316 0.0
0.574854 0.0491627 0.0
-0.00157042 0.000165507 0.0
-0.0045604 0.00134265 0.0
-0.00712126 0.00363709 0.0
-0.00923567 0.00656526 0.0
-0.0109539 0.0100923 0.0
-0.0123915 0.0140817 0.0
-0.0136732 0.0184927 0.0
-0.0149165 0.0232997 0.0
-0.0162198 0.0285141 0.0
-0.017663 0.0341678 0.0
-0.0193112 0.0403117 0.0
-0.0212212 0.0470105 0.0
-0.0234482 0.05434 0.0
-0.0260525 0.062385 0.0
-0.0291048 0.0712377 0.0
-0.0326898 0.0809947 0.0
-0.0369065 0.0917523 0.0
-0.0418624 0.103596 0.0
-0.0476557 0.116579 0.0
-0.0543391 0.130691 0.0
-0.0618508 0.145785 0.0
-0.0698991 0.161487 0.0
-0.0777541 0.177009 0.0
-0.0838845 0.190961 0.0
-0.0851696 0.200849 0.0
-0.0753363 0.20305 0.0
-0.0409185 0.191192 0.0
0.0466219 0.159726 0.0
0.242008 0.096162 0.0
0.647078 0.0309066 0.0
-0.00232905 0.000175514 0.0
-0.00641075 0.00142217 0.0
-0.00980696 0.00383423 0.0
-0.0125675 0.00688193 0.0
-0.0148083 0.0105265 0.0
-0.0166912 0.014625 0.0
-0.0183814 0.019139 0.0
-0.0200287 0.0240446 0.0
-0.0217576 0.0293546 0.0
-0.0236675 0.0351004 0.0
-0.0258383 0.0413302 0.0
-0.0283376 0.0481027 0.0
-0.0312284 0.0554841 0.0
-0.0345761 0.0635445 0.0
-0.0384526 0.0723543 0.0
-0.0429386 0.081979 0.0
-0.0481189 0.092471 0.0
-0.0540688 0.103855 0.0
-0.0608229 0.116104 0.0
-0.0683173 0.1291 0.0
-0.0762895 0.142563 0.0
-0.0841166 0.155965 0.0
-0.0905501 0.168358 0.0
-0.0932819 0.178243 0.0
-0.0881103 0.183137 0.0
-0.0674044 0.179872 0.0
-0.0164797 0.162957 0.0
0.0920743 0.129733 0.0
0.304458 0.0724515 0.0
0.698444 0.0196731 0.0
-0.00310599 0.000173786 0.0
-0.00830546 0.00142166 0.0
-0.0125414 0.00383128 0.0
-0.0159398 0.00685962 0.0
-0.0186893 0.0104648 0.0
-0.0210032 0.0145027 0.0
-0.023089 0.0189366 0.0
-0.0251289 0.0237447 0.0
-0.0272717 0.0289404 0.0
-0.0296344 0.0345537 0.0
-0.0323088 0.040629 0.0
-0.0353699 0.0472186 0.0
-0.0388842 0.0543782 0.0
-0.0429162 0.062163 0.0
-0.0475319 0.0706229 0.0
-0.0527981 0.0797954 0.0
-0.058773 0.0896953 0.0
-0.065485 0.100299 0.0
-0.0728882 0.111519 0.0
-0.0807859 0.123162 0.0
-0.0887034 0.134869 0.0
-0.095691 0.146031 0.0
-0.100021 0.155645 0.0
-0.0987177 0.162239 0.0
-0.0867419 0.163491 0.0
-0.0555263 0.156809 0.0
0.0100109 0.137489 0.0
0.134571 0.105367 0.0
0.357293 0.0552106 0.0
0.735902 0.012689 0.0
-0.00386312 0.000165392 0.0
-0.0101574 0.00136505 0.0
-0.0152069 0.00368033 0.0
-0.0192159 0.0065811 0.0
-0.0224466 0.0100247 0.0
-0.0251659 0.0138709 0.0
-0.0276238 0.0180862 0.0
-0.0300339 0.0226507 0.0
-0.0325677 0.0275786 0.0
-0.0353577 0.0328986 0.0
-0.0385049 0.0386517 0.0
-0.0420886 0.0448841 0.0
-0.0461751 0.0516426 0.0
-0.0508234 0.0589702 0.0
-0.056088 0.0669 0.0
-0.0620147 0.075448 0.0
-0.0686274 0.0846013 0.0
-0.0758984 0.0943019 0.0
-0.0836934 0.104421 0.0
-0.0916782 0.114719 0.0
-0.0991703 0.124794 0.0
-0.104917 0.134006 0.0
-0.10677 0.141359 0.0
-0.101205 0.145468 0.0
-0.0825774 0.144255 0.0
-0.0417813 0.135599 0.0
0.0358326 0.115895 0.0
0.172608 0.0859959 0.0
0.401357 0.0426754 0.0
0.763743 0.00834966 0.0
-0.00457668 0.000152968 0.0
-0.0119062 0.00126881 0.0
-0.0177198 0.00342086 0.0
-0.0222976 0.00611127 0.0
-0.0259733 0.00929907 0.0
-0.0290661 0.0128535 0.0
-0.0318675 0.0167449 0.0
-0.0346208 0.0209569 0.0
-0.0375187 0.0255047 0.0
-0.0407068 0.0304165 0.0
-0.0442934 0.0357307 0.0
-0.0483598 0.041489 0.0
-0.0529694 0.0477322 0.0
-0.0581727 0.0544945 0.0
-0.0640088 0.0617981 0.0
-0.0704984 0.0696445 0.0
-0.0776262 0.0780033 0.0
-0.0853039 0.086795 0.0
-0.0933061 0.0958662 0.0
-0.101162 0.104954 0.0
-0.107993 0.113636 0.0
-0.112269 0.121269 0.0
-0.111484 0.126898 0.0
-0.101676 0.129246 0.0
-0.0767787 0.126502 0.0
-0.0274619 0.11693 0.0
0.0602354 0.0978771 0.0
0.206338 0.0706024 0.0
0.438121 0.0334336 0.0
0.784865 0.005621 0.0
-0.00522921 0.000137972 0.0
-0.0135058 0.00114388 0.0
-0.0200145 0.00308072 0.0
-0.0251071 0.0054971 0.0
-0.0291839 0.00835614 0.0
-0.0326135 0.011541 0.0
-0.0357265 0.0150275 0.0
-0.0387939 0.0188041 0.0
-0.0420272 0.0228877 0.0
-0.0455837 0.0273069 0.0
-0.0495774 0.0320991 0.0
-0.0540902 0.0373038 0.0
-0.0591807 0.0429585 0.0
-0.0648896 0.0490933 0.0
-0.0712386 0.0557252 0.0
-0.0782208 0.062849 0.0
-0.0857793 0.070426 0.0
-0.0937635 0.0783669 0.0
-0.101856 0.0865067 0.0
-0.109453 0.0945722 0.0
-0.11549 0.102135 0.0
-0.118193 0.108564 0.0
-0.114748 0.112955 0.0
-0.100858 0.114136 0.0
-0.070182 0.110551 0.0
-0.0133755 0.100763 0.0
0.0827066 0.082875 0.0
0.235944 0.0583257 0.0
0.46881 0.0265321 0.0
0.80118 0.00388134 0.0
-0.00580806 0.000120967 0.0
-0.0149217 0.000996682 0.0
-0.0220414 0.0026777 0.0
-0.0275847 0.00476982 0.0
-0.0320125 0.00724216 0.0
-0.0357388 0.00999554 0.0
-0.0391295 0.0130128 0.0
-0.0424808 0.0162882 0.0
-0.0460211 0.0198417 0.0
-0.0499179 0.0237032 0.0
-0.0542898 0.0279106 0.0
-0.0592188 0.0325036 0.0
-0.0647585 0.0375197 0.0
-0.0709392 0.0429896 0.0
-0.0777644 0.0489308 0.0
-0.0851995 0.0553389 0.0
-0.0931447 0.0621758 0.0
-0.101386 0.0693518 0.0
-0.109514 0.0767008 0.0
-0.116795 0.0839482 0.0
-0.121989 0.0906679 0.0
-0.123101 0.096243 0.0
-0.117057 0.0998151 0.0
-0.0993074 0.100304 0.0
-0.0633473 0.0963787 0.0
5.09999e-05 0.0868105 0.0
0.103103 0.0703635 0.0
0.2618 0.0484675 0.0
0.494493 0.0213041 0.0
0.813995 0.00275268 0.0
-0.00630276 0.000102117 0.0
-0.0161261 0.000830883 0.0
-0.0237601 0.00222294 0.0
-0.0296819 0.0039498 0.0
-0.0344054 0.005988 0.0
-0.0383853 0.008259 0.0
-0.0420183 0.0107537 0.0
-0.0456226 0.0134736 0.0
-0.0494418 0.0164421 0.0
-0.0536523 0.0196917 0.0
-0.0583774 0.0232621 0.0
-0.0636989 0.0271956 0.0
-0.0696666 0.0315332 0.0
-0.0763007 0.0363104 0.0
-0.0835881 0.041551 0.0
-0.0914664 0.0472588 0.0
-0.0997932 0.0534043 0.0
-0.10829 0.0599065 0.0
-0.116455 0.0666066 0.0
-0.123424 0.0732347 0.0
-0.12779 0.0793699 0.0
-0.12735 0.0844057 0.0
-0.118813 0.0875192 0.0
-0.0974411 0.0877009 0.0
-0.056652 0.0837953 0.0
0.0125317 0.0747751 0.0
0.121408 0.0598934 0.0
0.284301 0.0404913 0.0
0.516049 0.0172876 0.0
0.824211 0.00200592 0.0
-0.0067042 8.14059e-05 0.0
-0.0170954 0.000648638 0.0
-0.0251373 0.00172364 0.0
-0.0313583 0.0030508 0.0
-0.0363181 0.00461496 0.0
-0.0405054 0.00636051 0.0
-0.0443434 0.00828724 0.0
-0.0481689 0.0104044 0.0
-0.0522386 0.0127394 0.0
-0.0567375 0.0153281 0.0
-0.0617933 0.0182135 0.0
-0.0674894 0.0214423 0.0
-0.0738729 0.0250618 0.0
-0.0809568 0.0291169 0.0
-0.0887129 0.0336435 0.0
-0.0970531 0.0386601 0.0
-0.105793 0.0441544 0.0
-0.11459 0.0500629 0.0
-0.122845 0.0562418 0.0
-0.129563 0.0624313 0.0
-0.133166 0.0682166 0.0
-0.131258 0.0729963 0.0
-0.120358 0.0759671 0.0
-0.0955956 0.0761717 0.0
-0.050398 0.0725766 0.0
0.0238568 0.0643705 0.0
0.137692 0.0510571 0.0
0.303836 0.0339694 0.0
0.534195 0.01415 0.0
0.832461 0.00149944 0.0
-0.00700395 5.87885e-05 0.0
-0.0178094 0.000451504 0.0
-0.0261443 0.00118524 0.0
-0.0325797 0.0020834 0.0
-0.0377123 0.00313961 0.0
-0.0420581 0.00432272 0.0
-0.0460613 0.00564167 0.0
-0.0500743 0.00711371 0.0
-0.0543649 0.00877038 0.0
-0.0591259 0.0106512 0.0
-0.0644909 0.0128031 0.0
-0.0705467 0.0152786 0.0
-0.0773408 0.0181343 0.0
-0.0848821 0.0214278 0.0
-0.0931314 0.0252128 0.0
-0.101978 0.0295296 0.0
-0.111197 0.0343913 0.0
-0.12038 0.0397614 0.0
-0.128826 0.0455189 0.0
-0.135404 0.0514205 0.0
-0.138361 0.057059 0.0
-0.135108 0.0618323 0.0
-0.121994 0.0649411 0.0
-0.0940609 0.0654553 0.0
-0.0448204 0.0624249 0.0
0.0339644 0.0551945 0.0
0.152059 0.0434523 0.0
0.320743 0.0285246 0.0
0.549496 0.0116345 0.0
0.839185 0.0011413 0.0
-0.00719438 3.42692e-05 0.0
-0.0182504 0.000241024 0.0
-0.0267568 0.000612909 0.0
-0.0333171 0.00105753 0.0
-0.0385555 0.00157735 0.0
-0.0430078 0.00216658 0.0
-0.0471338 0.00284298 0.0
-0.0512973 0.00363147 0.0
-0.0557756 0.00456719 0.0
-0.0607696 0.00569288 0.0
-0.0664201 0.00705945 0.0
-0.0728199 0.00872619 0.0
-0.0800214 0.0107605 0.0
-0.0880346 0.0132364 0.0
-0.0968141 0.0162298 0.0
-0.106231 0.0198095 0.0
-0.116026 0.0240232 0.0
-0.12572 0.0288708 0.0
-0.134508 0.0342641 0.0
-0.141108 0.0399842 0.0
-0.143584 0.0456363 0.0
-0.139149 0.0506146 0.0
-0.123986 0.0541094 0.0
-0.093088 0.0551905 0.0
-0.0401083 0.0529537 0.0
0.0427638 0.0468453 0.0
0.164571 0.0367023 0.0
0.335277 0.0238268 0.0
0.562367 0.009536 0.0
0.844683 0.000869542 0.0
-0.00726829 7.87573e-06 0.0
-0.0184029 1.90119e-05 0.0
-0.0269541 1.24672e-05 0.0
-0.0335462 -1.59326e-05 0.0
-0.0388201 -5.51614e-05 0.0
-0.0433235 -8.54417e-05 0.0
-0.0475254 -8.1001e-05 0.0
-0.0517977 -1.0237e-05 0.0
-0.0564253 0.000164192 0.0
-0.0616171 0.000487018 0.0
-0.0675233 0.00101231 0.0
-0.074247 0.00180575 0.0
-0.0818506 0.00294624 0.0
-0.0903516 0.00452596 0.0
-0.0997057 0.00664724 0.0
-0.109773 0.00941285 0.0
-0.12026 0.012915 0.0
-0.130622 0.0172013 0.0
-0.139943 0.022226 0.0
-0.146782 0.0278071 0.0
-0.148999 0.033572 0.0
-0.14359 0.0389144 0.0
-0.126575 0.0430075 0.0
-0.0929125 0.0448956 0.0
-0.0364479 0.0436836 0.0
0.050161 0.0388659 0.0
0.175247 0.0304006 0.0
0.347605 0.0195487 0.0
0.573085 0.0076698 0.0
0.849135 0.000637309 0.0
-0.00722016 -2.01137e-05 0.0
-0.0182557 -0.000212072 0.0
-0.0267215 -0.000609092 0.0
-0.0332493 -0.00112392 0.0
-0.0384858 -0.00173763 0.0
-0.0429816 -0.00240561 0.0
-0.0472085 -0.00309567 0.0
-0.0515418 -0.00377141 0.0
-0.056272 -0.00439544 0.0
-0.0616166 -0.00492321 0.0
-0.0677373 -0.00529964 0.0
-0.0747519 -0.00545442 0.0
-0.0827393 -0.00529804 0.0
-0.0917328 -0.00471938 0.0
-0.101699 -0.00358653 0.0
-0.112497 -0.00175553 0.0
-0.123818 0.000915086 0.0
-0.135038 0.00452353 0.0
-0.145121 0.0090855 0.0
-0.152462 0.0144764 0.0
-0.1547 0.0203642 0.0
-0.148594 0.0261518 0.0
-0.129976 0.0310011 0.0
-0.0937695 0.0339171 0.0
-0.0340512 0.0339823 0.0
0.0560064 0.0306823 0.0
0.184022 0.0240645 0.0
0.357769 0.0153287 0.0
0.581772 0.00584767 0.0
0.852618 0.000403422 0.0
-0.00704523 -4.93146e-05 0.0
-0.0178 -0.000448875 0.0
-0.0260484 -0.00124241 0.0
-0.0324152 -0.0022493 0.0
-0.0375393 -0.00344385 0.0
-0.0419649 -0.00475829 0.0
-0.0461595 -0.00615638 0.0
-0.0504976 -0.00759958 0.0
-0.0552731 -0.00905321 0.0
-0.0607123 -0.0104761 0.0
-0.0669913 -0.0118157 0.0
-0.0742475 -0.0130004 0.0
-0.0825843 -0.0139335 0.0
-0.0920614 -0.0144869 0.0
-0.102668 -0.0144999 0.0
-0.114272 -0.0137845 0.0
-0.126536 -0.0121487 0.0
-0.138792 -0.00942651 0.0
-0.149899 -0.00552434 0.0
-0.158073 -0.000495307 0.0
-0.160688 0.00538921 0.0
-0.154234 0.0115737 0.0
-0.134345 0.0172503 0.0
-0.0958979 0.0213823 0.0
-0.0331928 0.0230045 0.0
0.0600454 0.0215359 0.0
0.190699 0.0170717 0.0
0.365648 0.0107231 0.0
0.588369 0.00385404 0.0
0.855089 0.000125945 0.0
-0.00674136 -7.92905e-05 0.0
-0.0170335 -0.000686733 0.0
-0.0249336 -0.0018745 0.0
-0.0310428 -0.00336906 0.0
-0.0359785 -0.0051394 0.0
-0.040268 -0.00709704 0.0
-0.044367 -0.00920431 0.0
-0.0486443 -0.0114237 0.0
-0.0533948 -0.0137268 0.0
-0.0588533 -0.0160803 0.0
-0.065212 -0.018439 0.0
-0.0726331 -0.0207363 0.0
-0.0812518 -0.0228745 0.0
-0.0911656 -0.0247156 0.0
-0.102401 -0.0260759 0.0
-0.11485 -0.0267279 0.0
-0.128176 -0.0264175 0.0
-0.141663 -0.0248985 0.0
-0.154056 -0.0219877 0.0
-0.16338 -0.0176503 0.0
-0.166781 -0.0120723 0.0
-0.160482 -0.00571373 0.0
-0.139809 0.000682609 0.0
-0.0995164 0.00612291 0.0
-0.0341663 0.00961221 0.0
0.0619372 0.0104253 0.0
0.194899 0.00861876 0.0
0.370873 0.00516828 0.0
0.592577 0.00141944 0.0
0.856388 -0.0002461 0.0
-0.00630902 -0.000109281 0.0
-0.0159606 -0.000919186 0.0
-0.0233853 -0.00248815 0.0
-0.029143 -0.00445307 0.0
-0.0338141 -0.00677936 0.0
-0.0378988 -0.00936098 0.0
-0.041833 -0.0121617 0.0
-0.0459744 -0.0151486 0.0
-0.0506158 -0.0183036 0.0
-0.0559992 -0.0216061 0.0
-0.0623339 -0.0250254 0.0
-0.0698101 -0.0285078 0.0
-0.0786025 -0.031965 0.0
-0.0888568 -0.0352607 0.0
-0.100652 -0.0381998 0.0
-0.113927 -0.040525 0.0
-0.128365 -0.0419278 0.0
-0.143225 -0.0420799 0.0
-0.157156 -0.0406903 0.0
-0.167998 -0.0375907 0.0
-0.17264 -0.0328233 0.0
-0.167008 -0.0267111 0.0
-0.146206 -0.0198781 0.0
-0.104853 -0.0131799 0.0
-0.0375007 -0.00759348 0.0
0.0610271 -0.00398643 0.0
0.195981 -0.00240859 0.0
0.372854 -0.00206681 0.0
0.593848 -0.00173074 0.0
0.856157 -0.000735538 0.0
-0.00575276 -0.000138254 0.0
-0.0145958 -0.00113773 0.0
-0.0214252 -0.00306098 0.0
-0.0267421 -0.0054624 0.0
-0.0310743 -0.00830575 0.0
-0.0348842 -0.0114713 0.0
-0.0385797 -0.0149271 0.0
-0.0425018 -0.0186478 0.0
-0.0469367 -0.0226301 0.0
-0.0521306 -0.0268717 0.0
-0.0583091 -0.0313634 0.0
-0.0656917 -0.0360756 0.0
-0.0744966 -0.040943 0.0
-0.0849277 -0.0458482 0.0
-0.0971324 -0.0506051 0.0
-0.111118 -0.0549475 0.0
-0.126617 -0.058531 0.0
-0.142899 -0.0609555 0.0
-0.158548 -0.0618153 0.0
-0.171255 -0.0607773 0.0
-0.177674 -0.05767 0.0
-0.173438 -0.0525609 0.0
-0.153349 -0.0458125 0.0
-0.111808 -0.0380642 0.0
-0.0433394 -0.0301946 0.0
0.0567839 -0.0231064 0.0
0.192957 -0.0171285 0.0
0.370297 -0.0117363 0.0
0.591043 -0.00594279 0.0
0.853926 -0.00140214 0.0
-0.00508234 -0.000164769 0.0
-0.0129657 -0.0013312 0.0
-0.0190921 -0.00356411 0.0
-0.0238868 -0.00634728 0.0
-0.0278099 -0.00964487 0.0
-0.031276 -0.0133278 0.0
-0.0346571 -0.0173703 0.0
-0.0382711 -0.0217578 0.0
-0.0423919 -0.0265046 0.0
-0.0472654 -0.0316316 0.0
-0.0531291 -0.0371595 0.0
-0.0602291 -0.0430936 0.0
-0.0688277 -0.0494087 0.0
-0.0791916 -0.0560291 0.0
-0.0915485 -0.0628065 0.0
-0.105996 -0.0694996 0.0
-0.122352 -0.0757626 0.0
-0.139938 -0.0811514 0.0
-0.157336 -0.0851559 0.0
-0.172152 -0.0872586 0.0
-0.180872 -0.0870098 0.0
-0.178887 -0.0841022 0.0
-0.160714 -0.0784517 0.0
-0.120455 -0.0702307 0.0
-0.0523932 -0.0600109 0.0
0.0480697 -0.0485656 0.0
0.18454 -0.0368596 0.0
0.361891 -0.024811 0.0
0.582968 -0.011752 0.0
0.848989 -0.00237689 0.0
-0.00431423 -0.000186861 0.0
-0.0111125 -0.00148519 0.0
-0.0164457 -0.00396102 0.0
-0.0206481 -0.00704551 0.0
-0.0240992 -0.0107051 0.0
-0.0271571 -0.0148058 0.0
-0.0301504 -0.0193295 0.0
-0.0333672 -0.0242734 0.0
-0.0370628 -0.0296709 0.0
-0.0414752 -0.0355697 0.0
-0.0468464 -0.0420261 0.0
-0.0534411 -0.0490916 0.0
-0.0615588 -0.0567983 0.0
-0.0715265 -0.0651383 0.0
-0.0836569 -0.0740377 0.0
-0.0981555 -0.0833264 0.0
-0.114958 -0.0927103 0.0
-0.133499 -0.101753 0.0
-0.152437 -0.109877 0.0
-0.169404 -0.116384 0.0
-0.180842 -0.120502 0.0
-0.182017 -0.121434 0.0
-0.167237 -0.118449 0.0
-0.130272 -0.110963 0.0
-0.0649684 -0.0989058 0.0
0.0337485 -0.0825026 0.0
0.169041 -0.0635863 0.0
0.345602 -0.0428403 0.0
0.56766 -0.0199957 0.0
0.840193 -0.00385836 0.0
-0.00347429 -0.000201707 0.0
-0.00909889 -0.00158126 0.0
-0.0135726 -0.00420655 0.0
-0.0171287 -0.00748156 0.0
-0.0200561 -0.0113763 0.0
-0.0226505 -0.0157567 0.0
-0.0251913 -0.0206111 0.0
-0.0279304 -0.0259481 0.0
-0.0310966 -0.0318191 0.0
-0.0349111 -0.0382988 0.0
-0.0396081 -0.0454815 0.0
-0.0454576 -0.0534719 0.0
-0.0527812 -0.0623735 0.0
-0.0619515 -0.0722712 0.0
-0.0733585 -0.0832047 0.0
-0.0873203 -0.0951311 0.0
-0.10392 -0.107879 0.0
-0.122767 -0.1211 0.0
-0.142701 -0.134224 0.0
-0.161527 -0.146424 0.0
-0.175829 -0.156607 0.0
-0.180953 -0.163421 0.0
-0.171176 -0.165323 0.0
-0.140014 -0.160694 0.0
-0.0807534 -0.148354 0.0
0.0130426 -0.127358 0.0
0.144748 -0.0998533 0.0
0.319023 -0.0680821 0.0
0.542528 -0.0320899 0.0
0.825844 -0.00625178 0.0
-0.00259863 -0.000205593 0.0
-0.00700935 -0.00159735 0.0
-0.0105876 -0.00424846 0.0
-0.0134628 -0.00756953 0.0
-0.0158298 -0.0115345 0.0
-0.0179198 -0.0160128 0.0
-0.0199593 -0.0209972 0.0
-0.0221583 -0.0265038 0.0
-0.0247114 -0.0325982 0.0
-0.0278118 -0.0393772 0.0
-0.031672 -0.0469699 0.0
-0.0365473 -0.0555333 0.0
-0.0427568 -0.0652476 0.0
-0.0506911 -0.076306 0.0
-0.0607907 -0.0888936 0.0
-0.0734717 -0.103149 0.0
-0.088976 -0.119107 0.0
-0.107139 -0.136611 0.0
-0.127097 -0.155222 0.0
-0.147005 -0.174106 0.0
-0.163831 -0.19194 0.0
-0.173293 -0.206853 0.0
-0.169931 -0.216431 0.0
-0.147267 -0.217845 0.0
-0.0980931 -0.208216 0.0
-0.0145809 -0.185461 0.0
0.10937 -0.14879 0.0
0.278661 -0.103912 0.0
0.503441 -0.050665 0.0
0.802764 -0.0104969 0.0
-0.00174029 -0.000192955 0.0
-0.00495961 -0.00150733 0.0
-0.00764478 -0.00403006 0.0
-0.00982996 -0.00721907 0.0
-0.0116217 -0.0110507 0.0
-0.0131893 -0.0154006 0.0
-0.0147051 -0.020261 0.0
-0.0163336 -0.0256506 0.0
-0.0182286 -0.0316406 0.0
-0.0205454 -0.0383406 0.0
-0.023459 -0.0459035 0.0
-0.0271882 -0.0545263 0.0
-0.0320183 -0.0644551 0.0
-0.038317 -0.0759863 0.0
-0.0465285 -0.0894588 0.0
-0.0571226 -0.105226 0.0
-0.0704759 -0.123597 0.0
-0.0866716 -0.144728 0.0
-0.105232 -0.168476 0.0
-0.124839 -0.194208 0.0
-0.143113 -0.220602 0.0
-0.156488 -0.245481 0.0
-0.16018 -0.265709 0.0
-0.148156 -0.277238 0.0
-0.113042 -0.275281 0.0
-0.0458592 -0.255589 0.0
0.0635103 -0.213478 0.0
0.222681 -0.154878 0.0
0.446431 -0.0803658 0.0
0.76642 -0.0186091 0.0
-0.000960877 -0.000158388 0.0
-0.00307849 -0.00128941 0.0
-0.004912 -0.00350632 0.0
-0.00642337 -0.00635788 0.0
-0.00764809 -0.00981872 0.0
-0.00870096 -0.0137723 0.0
-0.0097025 -0.0182049 0.0
-0.01077 -0.0231311 0.0
-0.012012 -0.0286176 0.0
-0.0135381 -0.0347732 0.0
-0.015474 -0.0417552 0.0
-0.0179811 -0.0497757 0.0
-0.0212792 -0.0591152 0.0
-0.0256654 -0.0701372 0.0
-0.0315226 -0.0832992 0.0