# vtk DataFile Version 3.0
Malha 2D com triângulos e temperatura
ASCII
DATASET UNSTRUCTURED_GRID

POINTS 961 double
0 0 0
1 0 0
1 1 0
0 1 0
0.0333333 0 0
0.0666667 0 0
0.1 0 0
0.133333 0 0
0.166667 0 0
0.2 0 0
0.233333 0 0
0.266667 0 0
0.3 0 0
0.333333 0 0
0.366667 0 0
0.4 0 0
0.433333 0 0
0.466667 0 0
0.5 0 0
0.533333 0 0
0.566667 0 0
0.6 0 0
0.633333 0 0
0.666667 0 0
0.7 0 0
0.733333 0 0
0.766667 0 0
0.8 0 0
0.833333 0 0
0.866667 0 0
0.9 0 0
0.933333 0 0
0.966667 0 0
1 0.0333333 0
1 0.0666667 0
1 0.1 0
1 0.133333 0
1 0.166667 0
1 0.2 0
1 0.233333 0
1 0.266667 0
1 0.3 0
1 0.333333 0
1 0.366667 0
1 0.4 0
1 0.433333 0
1 0.466667 0
1 0.5 0
1 0.533333 0
1 0.566667 0
1 0.6 0
1 0.633333 0
1 0.666667 0
1 0.7 0
1 0.733333 0
1 0.766667 0
1 0.8 0
1 0.833333 0
1 0.866667 0
1 0.9 0
1 0.933333 0
1 0.966667 0
0.966667 1 0
0.933333 1 0
0.9 1 0
0.866667 1 0
0.833333 1 0
0.8 1 0
0.766667 1 0
0.733333 1 0
0.7 1 0
0.666667 1 0
0.633333 1 0
0.6 1 0
0.566667 1 0
0.533333 1 0
0.5 1 0
0.466667 1 0
0.433333 1 0
0.4 1 0
0.366667 1 0
0.333333 1 0
0.3 1 0
0.266667 1 0
0.233333 1 0
0.2 1 0
0.166667 1 0
0.133333 1 0
0.1 1 0
0.0666667 1 0
0.0333333 1 0
0 0.966667 0
0 0.933333 0
0 0.9 0
0 0.866667 0
0 0.833333 0
0 0.8 0
0 0.766667 0
0 0.733333 0
0 0.7 0
0 0.666667 0
0 0.633333 0
0 0.6 0
0 0.566667 0
0 0.533333 0
0 0.5 0
0 0.466667 0
0 0.433333 0
0 0.4 0
0 0.366667 0
0 0.333333 0
0 0.3 0
0 0.266667 0
0 0.233333 0
0 0.2 0
0 0.166667 0
0 0.133333 0
0 0.1 0
0 0.0666667 0
0 0.0333333 0
0.0333333 0.0333333 0
0.0333333 0.0666667 0
0.0333333 0.1 0
0.0333333 0.133333 0
0.0333333 0.166667 0
0.0333333 0.2 0
0.0333333 0.233333 0
0.0333333 0.266667 0
0.0333333 0.3 0
0.0333333 0.333333 0
0.0333333 0.366667 0
0.0333333 0.4 0
0.0333333 0.433333 0
0.0333333 0.466667 0
0.0333333 0.5 0
0.0333333 0.533333 0
0.0333333 0.566667 0
0.0333333 0.6 0
0.0333333 0.633333 0
0.0333333 0.666667 0
0.0333333 0.7 0
0.0333333 0.733333 0
0.0333333 0.766667 0
0.0333333 0.8 0
0.0333333 0.833333 0
0.0333333 0.866667 0
0.0333333 0.9 0
0.0333333 0.933333 0
0.0333333 0.966667 0
0.0666667 0.0333333 0
0.0666667 0.0666667 0
0.0666667 0.1 0
0.0666667 0.133333 0
0.0666667 0.166667 0
0.0666667 0.2 0
0.0666667 0.233333 0
0.0666667 0.266667 0
0.0666667 0.3 0
0.0666667 0.333333 0
0.0666667 0.366667 0
0.0666667 0.4 0
0.0666667 0.433333 0
0.0666667 0.466667 0
0.0666667 0.5 0
0.0666667 0.533333 0
0.0666667 0.566667 0
0.0666667 0.6 0
0.0666667 0.633333 0
0.0666667 0.666667 0
0.0666667 0.7 0
0.0666667 0.733333 0
0.0666667 0.766667 0
0.0666667 0.8 0
0.0666667 0.833333 0
0.0666667 0.866667 0
0.0666667 0.9 0
0.0666667 0.933333 0
0.0666667 0.966667 0
0.1 0.0333333 0
0.1 0.0666667 0
0.1 0.1 0
0.1 0.133333 0
0.1 0.166667 0
0.1 0.2 0
0.1 0.233333 0
0.1 0.266667 0
0.1 0.3 0
0.1 0.333333 0
0.1 0.366667 0
0.1 0.4 0
0.1 0.433333 0
0.1 0.466667 0
0.1 0.5 0
0.1 0.533333 0
0.1 0.566667 0
0.1 0.6 0
0.1 0.633333 0
0.1 0.666667 0
0.1 0.7 0
0.1 0.733333 0
0.1 0.766667 0
0.1 0.8 0
0.1 0.833333 0
0.1 0.866667 0
0.1 0.9 0
0.1 0.933333 0
0.1 0.966667 0
0.133333 0.0333333 0
0.133333 0.0666667 0
0.133333 0.1 0
0.133333 0.133333 0
0.133333 0.166667 0
0.133333 0.2 0
0.133333 0.233333 0
0.133333 0.266667 0
0.133333 0.3 0
0.133333 0.333333 0
0.133333 0.366667 0
0.133333 0.4 0
0.133333 0.433333 0
0.133333 0.466667 0
0.133333 0.5 0
0.133333 0.533333 0
0.133333 0.566667 0
0.133333 0.6 0
0.133333 0.633333 0
0.133333 0.666667 0
0.133333 0.7 0
0.133333 0.733333 0
0.133333 0.766667 0
0.133333 0.8 0
0.133333 0.833333 0
0.133333 0.866667 0
0.133333 0.9 0
0.133333 0.933333 0
0.133333 0.966667 0
0.166667 0.0333333 0
0.166667 0.0666667 0
0.166667 0.1 0
0.166667 0.133333 0
0.166667 0.166667 0
0.166667 0.2 0
0.166667 0.233333 0
0.166667 0.266667 0
0.166667 0.3 0
0.166667 0.333333 0
0.166667 0.366667 0
0.166667 0.4 0
0.166667 0.433333 0
0.166667 0.466667 0
0.166667 0.5 0
0.166667 0.533333 0
0.166667 0.566667 0
0.166667 0.6 0
0.166667 0.633333 0
0.166667 0.666667 0
0.166667 0.7 0
0.166667 0.733333 0
0.166667 0.766667 0
0.166667 0.8 0
0.166667 0.833333 0
0.166667 0.866667 0
0.166667 0.9 0
0.166667 0.933333 0
0.166667 0.966667 0
0.2 0.0333333 0
0.2 0.0666667 0
0.2 0.1 0
0.2 0.133333 0
0.2 0.166667 0
0.2 0.2 0
0.2 0.233333 0
0.2 0.266667 0
0.2 0.3 0
0.2 0.333333 0
0.2 0.366667 0
0.2 0.4 0
0.2 0.433333 0
0.2 0.466667 0
0.2 0.5 0
0.2 0.533333 0
0.2 0.566667 0
0.2 0.6 0
0.2 0.633333 0
0.2 0.666667 0
0.2 0.7 0
0.2 0.733333 0
0.2 0.766667 0
0.2 0.8 0
0.2 0.833333 0
0.2 0.866667 0
0.2 0.9 0
0.2 0.933333 0
0.2 0.966667 0
0.233333 0.0333333 0
0.233333 0.0666667 0
0.233333 0.1 0
0.233333 0.133333 0
0.233333 0.166667 0
0.233333 0.2 0
0.233333 0.233333 0
0.233333 0.266667 0
0.233333 0.3 0
0.233333 0.333333 0
0.233333 0.366667 0
0.233333 0.4 0
0.233333 0.433333 0
0.233333 0.466667 0
0.233333 0.5 0
0.233333 0.533333 0
0.233333 0.566667 0
0.233333 0.6 0
0.233333 0.633333 0
0.233333 0.666667 0
0.233333 0.7 0
0.233333 0.733333 0
0.233333 0.766667 0
0.233333 0.8 0
0.233333 0.833333 0
0.233333 0.866667 0
0.233333 0.9 0
0.233333 0.933333 0
0.233333 0.966667 0
0.266667 0.0333333 0
0.266667 0.0666667 0
0.266667 0.1 0
0.266667 0.133333 0
0.266667 0.166667 0
0.266667 0.2 0
0.266667 0.233333 0
0.266667 0.266667 0
0.266667 0.3 0
0.266667 0.333333 0
0.266667 0.366667 0
0.266667 0.4 0
0.266667 0.433333 0
0.266667 0.466667 0
0.266667 0.5 0
0.266667 0.533333 0
0.266667 0.566667 0
0.266667 0.6 0
0.266667 0.633333 0
0.266667 0.666667 0
0.266667 0.7 0
0.266667 0.733333 0
0.266667 0.766667 0
0.266667 0.8 0
0.266667 0.833333 0
0.266667 0.866667 0
0.266667 0.9 0
0.266667 0.933333 0
0.266667 0.966667 0
0.3 0.0333333 0
0.3 0.0666667 0
0.3 0.1 0
0.3 0.133333 0
0.3 0.166667 0
0.3 0.2 0
0.3 0.233333 0
0.3 0.266667 0
0.3 0.3 0
0.3 0.333333 0
0.3 0.366667 0
0.3 0.4 0
0.3 0.433333 0
0.3 0.466667 0
0.3 0.5 0
0.3 0.533333 0
0.3 0.566667 0
0.3 0.6 0
0.3 0.633333 0
0.3 0.666667 0
0.3 0.7 0
0.3 0.733333 0
0.3 0.766667 0
0.3 0.8 0
0.3 0.833333 0
0.3 0.866667 0
0.3 0.9 0
0.3 0.933333 0
0.3 0.966667 0
0.333333 0.0333333 0
0.333333 0.0666667 0
0.333333 0.1 0
0.333333 0.133333 0
0.333333 0.166667 0
0.333333 0.2 0
0.333333 0.233333 0
0.333333 0.266667 0
0.333333 0.3 0
0.333333 0.333333 0
0.333333 0.366667 0
0.333333 0.4 0
0.333333 0.433333 0
0.333333 0.466667 0
0.333333 0.5 0
0.333333 0.533333 0
0.333333 0.566667 0
0.333333 0.6 0
0.333333 0.633333 0
0.333333 0.666667 0
0.333333 0.7 0
0.333333 0.733333 0
0.333333 0.766667 0
0.333333 0.8 0
0.333333 0.833333 0
0.333333 0.866667 0
0.333333 0.9 0
0.333333 0.933333 0
0.333333 0.966667 0
0.366667 0.0333333 0
0.366667 0.0666667 0
0.366667 0.1 0
0.366667 0.133333 0
0.366667 0.166667 0
0.366667 0.2 0
0.366667 0.233333 0
0.366667 0.266667 0
0.366667 0.3 0
0.366667 0.333333 0
0.366667 0.366667 0
0.366667 0.4 0
0.366667 0.433333 0
0.366667 0.466667 0
0.366667 0.5 0
0.366667 0.533333 0
0.366667 0.566667 0
0.366667 0.6 0
0.366667 0.633333 0
0.366667 0.666667 0
0.366667 0.7 0
0.366667 0.733333 0
0.366667 0.766667 0
0.366667 0.8 0
0.366667 0.833333 0
0.366667 0.866667 0
0.366667 0.9 0
0.366667 0.933333 0
0.366667 0.966667 0
0.4 0.0333333 0
0.4 0.0666667 0
0.4 0.1 0
0.4 0.133333 0
0.4 0.166667 0
0.4 0.2 0
0.4 0.233333 0
0.4 0.266667 0
0.4 0.3 0
0.4 0.333333 0
0.4 0.366667 0
0.4 0.4 0
0.4 0.433333 0
0.4 0.466667 0
0.4 0.5 0
0.4 0.533333 0
0.4 0.566667 0
0.4 0.6 0
0.4 0.633333 0
0.4 0.666667 0
0.4 0.7 0
0.4 0.733333 0
0.4 0.766667 0
0.4 0.8 0
0.4 0.833333 0
0.4 0.866667 0
0.4 0.9 0
0.4 0.933333 0
0.4 0.966667 0
0.433333 0.0333333 0
0.433333 0.0666667 0
0.433333 0.1 0
0.433333 0.133333 0
0.433333 0.166667 0
0.433333 0.2 0
0.433333 0.233333 0
0.433333 0.266667 0
0.433333 0.3 0
0.433333 0.333333 0
0.433333 0.366667 0
0.433333 0.4 0
0.433333 0.433333 0
0.433333 0.466667 0
0.433333 0.5 0
0.433333 0.533333 0
0.433333 0.566667 0
0.433333 0.6 0
0.433333 0.633333 0
0.433333 0.666667 0
0.433333 0.7 0
0.433333 0.733333 0
0.433333 0.766667 0
0.433333 0.8 0
0.433333 0.833333 0
0.433333 0.866667 0
0.433333 0.9 0
0.433333 0.933333 0
0.433333 0.966667 0
0.466667 0.0333333 0
0.466667 0.0666667 0
0.466667 0.1 0
0.466667 0.133333 0
0.466667 0.166667 0
0.466667 0.2 0
0.466667 0.233333 0
0.466667 0.266667 0
0.466667 0.3 0
0.466667 0.333333 0
0.466667 0.366667 0
0.466667 0.4 0
0.466667 0.433333 0
0.466667 0.466667 0
0.466667 0.5 0
0.466667 0.533333 0
0.466667 0.566667 0
0.466667 0.6 0
0.466667 0.633333 0
0.466667 0.666667 0
0.466667 0.7 0
0.466667 0.733333 0
0.466667 0.766667 0
0.466667 0.8 0
0.466667 0.833333 0
0.466667 0.866667 0
0.466667 0.9 0
0.466667 0.933333 0
0.466667 0.966667 0
0.5 0.0333333 0
0.5 0.0666667 0
0.5 0.1 0
0.5 0.133333 0
0.5 0.166667 0
0.5 0.2 0
0.5 0.233333 0
0.5 0.266667 0
0.5 0.3 0
0.5 0.333333 0
0.5 0.366667 0
0.5 0.4 0
0.5 0.433333 0
0.5 0.466667 0
0.5 0.5 0
0.5 0.533333 0
0.5 0.566667 0
0.5 0.6 0
0.5 0.633333 0
0.5 0.666667 0
0.5 0.7 0
0.5 0.733333 0
0.5 0.766667 0
0.5 0.8 0
0.5 0.833333 0
0.5 0.866667 0
0.5 0.9 0
0.5 0.933333 0
0.5 0.966667 0
0.533333 0.0333333 0
0.533333 0.0666667 0
0.533333 0.1 0
0.533333 0.133333 0
0.533333 0.166667 0
0.533333 0.2 0
0.533333 0.233333 0
0.533333 0.266667 0
0.533333 0.3 0
0.533333 0.333333 0
0.533333 0.366667 0
0.533333 0.4 0
0.533333 0.433333 0
0.533333 0.466667 0
0.533333 0.5 0
0.533333 0.533333 0
0.533333 0.566667 0
0.533333 0.6 0
0.533333 0.633333 0
0.533333 0.666667 0
0.533333 0.7 0
0.533333 0.733333 0
0.533333 0.766667 0
0.533333 0.8 0
0.533333 0.833333 0
0.533333 0.866667 0
0.533333 0.9 0
0.533333 0.933333 0
0.533333 0.966667 0
0.566667 0.0333333 0
0.566667 0.0666667 0
0.566667 0.1 0
0.566667 0.133333 0
0.566667 0.166667 0
0.566667 0.2 0
0.566667 0.233333 0
0.566667 0.266667 0
0.566667 0.3 0
0.566667 0.333333 0
0.566667 0.366667 0
0.566667 0.4 0
0.566667 0.433333 0
0.566667 0.466667 0
0.566667 0.5 0
0.566667 0.533333 0
0.566667 0.566667 0
0.566667 0.6 0
0.566667 0.633333 0
0.566667 0.666667 0
0.566667 0.7 0
0.566667 0.733333 0
0.566667 0.766667 0
0.566667 0.8 0
0.566667 0.833333 0
0.566667 0.866667 0
0.566667 0.9 0
0.566667 0.933333 0
0.566667 0.966667 0
0.6 0.0333333 0
0.6 0.0666667 0
0.6 0.1 0
0.6 0.133333 0
[...]
CELL_DATA 900
VECTORS velocity double
7.15143e-05 -7.03679e-05 0.0
-3.04983e-06 -2.4202e-05 0.0
-7.77169e-05 0.000314371 0.0
-0.000137696 0.000873839 0.0
-0.000176123 0.00161967 0.0
-0.000201992 0.00249644 0.0
-0.000220926 0.00348027 0.0
-0.000237887 0.00455659 0.0
-0.000255845 0.00572562 0.0
-0.000276815 0.00699573 0.0
-0.000302128 0.00838251 0.0
-0.000332887 0.00990711 0.0
-0.000370265 0.0115962 0.0
-0.000415835 0.0134826 0.0
-0.000471933 0.0156074 0.0
-0.000542194 0.0180233 0.0
-0.00063238 0.0207991 0.0
-0.000751813 0.0240272 0.0
-0.000916039 0.0278342 0.0
-0.00115231 0.032397 0.0
-0.00151121 0.0379693 0.0
-0.00209268 0.044928 0.0
-0.00309978 0.0538634 0.0
-0.00495027 0.0657308 0.0
-0.00844328 0.082221 0.0
-0.014973 0.105867 0.0
-0.0257176 0.141879 0.0
-0.0382035 0.189048 0.0
-0.0135918 0.262229 0.0
0.216712 0.17385 0.0
2.22242e-05 7.20484e-06 0.0
-0.000419437 0.000421687 0.0
-0.000854004 0.00143777 0.0
-0.00122608 0.00289352 0.0
-0.00151126 0.00475167 0.0
-0.0017356 0.00691997 0.0
-0.00192397 0.00935633 0.0
-0.00210089 0.0120341 0.0
-0.00228518 0.0149545 0.0
-0.00249158 0.0181363 0.0
-0.0027318 0.0216149 0.0
-0.00301636 0.0254391 0.0
-0.00335638 0.0296705 0.0
-0.00376547 0.0343854 0.0
-0.00426182 0.0396779 0.0
-0.00487075 0.045665 0.0
-0.00562802 0.0524944 0.0
-0.00658425 0.0603536 0.0
-0.00781132 0.0694813 0.0
-0.00941271 0.0801786 0.0
-0.0115413 0.0928179 0.0
-0.0144333 0.107843 0.0
-0.0184634 0.125747 0.0
-0.0242368 0.146975 0.0
-0.0325978 0.171702 0.0
-0.0444687 0.198981 0.0
-0.0584062 0.2256 0.0
-0.065181 0.239996 0.0
-0.00329677 0.218215 0.0
0.304787 0.116289 0.0
-0.000319444 8.13782e-05 0.0
-0.00143218 0.000836245 0.0
-0.0024809 0.00243155 0.0
-0.00338156 0.00458482 0.0
-0.00410488 0.00726297 0.0
-0.00469666 0.0103537 0.0
-0.00521008 0.0138109 0.0
-0.00569885 0.0176049 0.0
-0.0062076 0.02174 0.0
-0.00677259 0.026242 0.0
-0.00742362 0.0311572 0.0
-0.00818761 0.0365483 0.0
-0.00909235 0.0424938 0.0
-0.0101705 0.0490882 0.0
-0.0114639 0.0564447 0.0
-0.0130276 0.0646987 0.0
-0.0149351 0.0740118 0.0
-0.0172829 0.0845759 0.0
-0.0201945 0.0966128 0.0
-0.023824 0.110367 0.0
-0.0283564 0.12608 0.0
-0.0340038 0.143939 0.0
-0.0409747 0.163951 0.0
-0.0493847 0.185741 0.0
-0.0588501 0.208059 0.0
-0.0674832 0.228081 0.0
-0.067867 0.239211 0.0
-0.0384888 0.230952 0.0
0.0915535 0.173563 0.0
0.475746 0.0769682 0.0
-0.000863903 0.000136664 0.0
-0.00283554 0.00115446 0.0
-0.00460411 0.00318452 0.0
-0.00610001 0.00583119 0.0
-0.00731859 0.00906399 0.0
-0.00833335 0.0127575 0.0
-0.00922918 0.0168679 0.0
-0.0100902 0.0213669 0.0
-0.0109879 0.0262619 0.0
-0.0119808 0.0315827 0.0
-0.0131173 0.0373798 0.0
-0.0144407 0.0437199 0.0
-0.0159943 0.0506841 0.0
-0.0178268 0.0583675 0.0
-0.0199979 0.0668789 0.0
-0.0225823 0.0763413 0.0
-0.0256734 0.0868911 0.0
-0.0293836 0.0986734 0.0
-0.0338393 0.111829 0.0
-0.0391671 0.126471 0.0
-0.0454627 0.142627 0.0
-0.0527345 0.160154 0.0
-0.0607833 0.178565 0.0
-0.0689639 0.196795 0.0
-0.0755439 0.212671 0.0
-0.0762972 0.222546 0.0
-0.060282 0.21937 0.0
-0.000479086 0.195032 0.0
0.167923 0.129365 0.0
0.574763 0.0491583 0.0
-0.00155595 0.000164894 0.0
-0.00454202 0.00134296 0.0
-0.00711735 0.00364465 0.0
-0.00925917 0.00658966 0.0
-0.0110111 0.0101451 0.0
-0.0124837 0.0141748 0.0
-0.013798 0.0186376 0.0
-0.0150698 0.0235071 0.0
-0.0163977 0.0287933 0.0
-0.0178622 0.0345272 0.0
-0.0195294 0.040759 0.0
-0.0214571 0.0475529 0.0
-0.0237009 0.0549844 0.0
-0.0263211 0.063138 0.0
-0.0293872 0.0721049 0.0
-0.0329815 0.0819804 0.0
-0.0371992 0.0928583 0.0
-0.0421412 0.10482 0.0
-0.0478972 0.117912 0.0
-0.0545094 0.132113 0.0
-0.0619071 0.147265 0.0
-0.0697952 0.162979 0.0
-0.0774538 0.178452 0.0
-0.0833816 0.192282 0.0
-0.0845083 0.201976 0.0
-0.0746221 0.203926 0.0
-0.0402936 0.191787 0.0
0.047023 0.160052 0.0
0.242132 0.0962772 0.0
0.64703 0.0309163 0.0
-0.00231572 0.00017553 0.0
-0.00639928 0.00142679 0.0
-0.00981896 0.0038527 0.0
-0.0126182 0.00692502 0.0
-0.0149049 0.0106066 0.0
-0.0168348 0.0147546 0.0
-0.0185689 0.01933 0.0
-0.0202551 0.0243079 0.0
-0.0220178 0.0297001 0.0
-0.0239574 0.0355371 0.0
-0.0261551 0.0418665 0.0
-0.0286796 0.0487466 0.0
-0.0315944 0.0562434 0.0
-0.0349644 0.0644265 0.0
-0.03886 0.0733653 0.0
-0.0433585 0.0831239 0.0
-0.0485392 0.0937516 0.0
-0.054469 0.105269 0.0
-0.061171 0.117641 0.0
-0.068568 0.130738 0.0
-0.0763854 0.14427 0.0
-0.0839959 0.15769 0.0
-0.0901632 0.170034 0.0
-0.0926161 0.179792 0.0
-0.0872161 0.184478 0.0
-0.0664092 0.180939 0.0
-0.0155597 0.1637 0.0
0.0927404 0.130159 0.0
0.304768 0.0726166 0.0
0.698476 0.0196935 0.0
-0.00309599 0.000174292 0.0
-0.00830577 0.00142977 0.0
-0.0125758 0.00385857 0.0
-0.016025 0.00691757 0.0
-0.018833 0.0105662 0.0
-0.0212062 0.01466 0.0
-0.0233475 0.0191618 0.0
-0.0254367 0.0240486 0.0
-0.027623 0.029333 0.0
-0.0300243 0.0350444 0.0
-0.0327342 0.0412269 0.0
-0.0358288 0.0479322 0.0
-0.0393749 0.0552161 0.0
-0.0434365 0.0631333 0.0
-0.0480772 0.0717329 0.0
-0.0533595 0.0810506 0.0
-0.0593345 0.0910982 0.0
-0.0660196 0.101847 0.0
-0.073355 0.113201 0.0
-0.081127 0.124958 0.0
-0.088846 0.136741 0.0
-0.0955564 0.147926 0.0
-0.0995451 0.157492 0.0
-0.0978788 0.163954 0.0
-0.0855951 0.164983 0.0
-0.0542148 0.158006 0.0
0.0112852 0.138324 0.0
0.135542 0.105867 0.0
0.357827 0.0554101 0.0
0.736037 0.0127161 0.0
-0.00385808 0.000166227 0.0
-0.0101731 0.00137557 0.0
-0.0152686 0.00371363 0.0
-0.0193407 0.0066489 0.0
-0.0226426 0.0101397 0.0
-0.0254332 0.0140454 0.0
-0.0279578 0.0183315 0.0
-0.0304278 0.0229776 0.0
-0.0330148 0.027997 0.0
-0.0358528 0.0334182 0.0
-0.0390446 0.0392819 0.0
-0.0426707 0.0456342 0.0
-0.0467978 0.0525221 0.0
-0.0514839 0.0599882 0.0
-0.0567804 0.0680651 0.0
-0.0627276 0.0767667 0.0
-0.0693405 0.0860771 0.0
-0.0765783 0.095933 0.0
-0.0842891 0.106197 0.0
-0.0921186 0.116618 0.0
-0.0993661 0.126778 0.0
-0.104771 0.136018 0.0
-0.106202 0.143324 0.0
-0.100184 0.147297 0.0
-0.0811631 0.145854 0.0
-0.0401357 0.136886 0.0
0.0374535 0.116817 0.0
0.173907 0.0865547 0.0
0.402146 0.0429018 0.0
0.763999 0.00838121 0.0
-0.00457762 0.000153994 0.0
-0.0119396 0.00128068 0.0
-0.0178113 0.00345736 0.0
-0.0224646 0.00618389 0.0
-0.0262236 0.0094201 0.0
-0.0293994 0.0130344 0.0
-0.0322784 0.0169967 0.0
-0.0351018 0.0212898 0.0
-0.0380627 0.0259285 0.0
-0.0413085 0.030941 0.0
-0.0449493 0.0363658 0.0
-0.049068 0.0422449 0.0
-0.053728 0.0486194 0.0
-0.0589785 0.0555236 0.0
-0.0648548 0.0629791 0.0
-0.0713707 0.0709857 0.0
-0.0785001 0.0795099 0.0
-0.086139 0.0884665 0.0
-0.0940408 0.097693 0.0
-0.101711 0.106914 0.0
-0.108248 0.115688 0.0
-0.112116 0.123355 0.0
-0.110824 0.12894 0.0
-0.10047 0.131149 0.0
-0.0750894 0.128172 0.0
-0.0254702 0.11828 0.0
0.0622345 0.098849 0.0
0.207995 0.0711932 0.0
0.43919 0.0336732 0.0
0.785252 0.0056536 0.0
-0.0052366 0.000139088 0.0
-0.0135577 0.00115621 0.0
-0.0201366 0.00311791 0.0
-0.0253166 0.00556999 0.0
-0.029488 0.0084762 0.0
-0.0330115 0.0117188 0.0
-0.0362124 0.0152733 0.0
-0.0393598 0.0191275 0.0
-0.0426659 0.0232985 0.0
-0.0462901 0.027815 0.0
-0.0503485 0.032715 0.0
-0.0549244 0.0380386 0.0
-0.0600767 0.043824 0.0
-0.0658439 0.050102 0.0
-0.0722431 0.056889 0.0
-0.0792594 0.0641786 0.0
-0.0868227 0.0719289 0.0
-0.0947636 0.0800444 0.0
-0.10274 0.0883505 0.0
-0.110119 0.0965597 0.0
-0.115813 0.104225 0.0
-0.118037 0.110695 0.0
-0.113998 0.115043 0.0
-0.0994657 0.116084 0.0
-0.0682149 0.112263 0.0
-0.0110332 0.102143 0.0
0.0850903 0.0838663 0.0
0.237969 0.0589288 0.0
0.470169 0.026775 0.0
0.801702 0.00391291 0.0
-0.00582193 0.000122101 0.0
-0.0149919 0.00100871 0.0
-0.0221931 0.00271347 0.0
-0.0278347 0.00483911 0.0
-0.0323676 0.00735526 0.0
-0.0361978 0.0101619 0.0
-0.039686 0.0132417 0.0
-0.0431269 0.0165889 0.0
-0.0467498 0.0202235 0.0
-0.0507246 0.0241764 0.0
-0.0551725 0.0284862 0.0
-0.0601768 0.0331938 0.0
-0.0657911 0.0383382 0.0
-0.0720433 0.0439507 0.0
-0.0789314 0.0500491 0.0
-0.0864109 0.0566279 0.0
-0.0943666 0.0636458 0.0
-0.102562 0.071007 0.0
-0.110558 0.0785345 0.0
-0.11759 0.0859381 0.0
-0.122388 0.0927712 0.0
-0.122945 0.0983935 0.0
-0.116215 0.101925 0.0
-0.0977225 0.10227 0.0
-0.0610884 0.0981004 0.0
0.00276998 0.0881825 0.0
0.105876 0.0713588 0.0
0.264198 0.049069 0.0
0.496145 0.0215436 0.0
0.81465 0.00278194 0.0
-0.00632282 0.000103213 0.0
-0.0162133 0.000841997 0.0
-0.0239391 0.00225548 0.0
-0.0299687 0.00401216 0.0
-0.0348067 0.00608899 0.0
-0.0388992 0.00840677 0.0
-0.0426385 0.0109565 0.0
-0.0463414 0.0137399 0.0
-0.050253 0.016781 0.0
-0.0545524 0.0201135 0.0
-0.0593656 0.0237787 0.0
-0.0647761 0.0278205 0.0
-0.0708333 0.0322816 0.0
-0.0775547 0.0371991 0.0
-0.0849205 0.0425978 0.0
-0.0928568 0.0484805 0.0
-0.101203 0.054815 0.0
-0.109654 0.0615137 0.0
-0.117674 0.0684061 0.0
-0.124361 0.0752048 0.0
-0.128274 0.0814663 0.0
-0.1272 0.0865584 0.0
-0.117879 0.089635 0.0
-0.0956581 0.0896717 0.0
-0.054097 0.0855144 0.0
0.0156012 0.0761581 0.0
0.12457 0.0608874 0.0
0.287073 0.0410876 0.0
0.517993 0.0175209 0.0
0.824995 0.00203268 0.0
-0.00672982 8.24108e-05 0.0
-0.0171977 0.000658272 0.0
-0.0253399 0.00175135 0.0
-0.0316768 0.00310328 0.0
-0.0367587 0.00469927 0.0
-0.0410662 0.0064833 0.0
-0.0450183 0.00845549 0.0
-0.048951 0.0106257 0.0
-0.0531228 0.0130226 0.0
-0.0577218 0.0156836 0.0
-0.0628789 0.0186537 0.0
-0.0686792 0.0219818 0.0
-0.0751695 0.025718 0.0
-0.0823592 0.0299091 0.0
-0.0902128 0.0345928 0.0
-0.0986286 0.0397875 0.0
-0.107401 0.0454785 0.0
-0.116155 0.0515955 0.0
-0.124253 0.0579816 0.0
-0.130655 0.0643581 0.0
-0.133747 0.0702848 0.0
-0.131122 0.075132 0.0
-0.119334 0.0780718 0.0
-0.0936136 0.0781324 0.0
-0.0475474 0.0742838 0.0
0.0272938 0.0657397 0.0
0.141253 0.052033 0.0
0.306984 0.0345498 0.0
0.536429 0.0143727 0.0
0.833367 0.00152319 0.0
-0.00703424 5.96428e-05 0.0
-0.017924 0.000459122 0.0
-0.0263659 0.00120665 0.0
-0.0329232 0.00212332 0.0
-0.0381838 0.0032031 0.0
-0.042656 0.00441473 0.0
-0.0467801 0.00576775 0.0
-0.0509081 0.00728048 0.0
-0.0553102 0.00898603 0.0
-0.0601829 0.010926 0.0
-0.0656633 0.0131499 0.0
-0.07184 0.0157132 0.0
-0.0787603 0.0186758 0.0
-0.0864294 0.0220985 0.0
-0.0947991 0.0260372 0.0
-0.103743 0.0305332 0.0
-0.113012 0.035598 0.0
-0.12216 0.0411878 0.0
-0.13044 0.047168 0.0
-0.136669 0.0532741 0.0
-0.139054 0.059071 0.0
-0.134995 0.0639255 0.0
-0.120884 0.0670113 0.0
-0.0918799 0.0673842 0.0
-0.0416726 0.0640998 0.0
0.0377659 0.0565302 0.0
0.156015 0.0443966 0.0
0.324261 0.0290797 0.0
0.552009 0.0118427 0.0
0.840208 0.00116163 0.0
-0.00722816 3.49058e-05 0.0
-0.0183737 0.000246099 0.0
-0.0269915 0.000626606 0.0
-0.0336778 0.0010824 0.0
-0.0390481 0.00161623 0.0
-0.0436312 0.0022225 0.0
-0.0478834 0.00291986 0.0
-0.052169 0.00373467 0.0
-0.0567678 0.00470401 0.0
-0.0618851 0.00587313 0.0
-0.0676655 0.00729611 0.0
-0.0742044 0.00903587 0.0
-0.0815539 0.0111639 0.0
-0.0897198 0.0137583 0.0
-0.0986471 0.0168986 0.0
-0.108189 0.0206552 0.0
-0.118057 0.0250754 0.0
-0.127728 0.030152 0.0
-0.136343 0.0357816 0.0
-0.142564 0.0417234 0.0
-0.144405 0.0475517 0.0
-0.13907 0.0526267 0.0
-0.122797 0.0561094 0.0
-0.0907104 0.0570551 0.0
-0.0366633 0.0545675 0.0
0.0469289 0.0481227 0.0
0.168915 0.0375961 0.0
0.339154 0.024344 0.0
0.565147 0.00972443 0.0
0.845811 0.000885701 0.0
-0.00730408 8.21638e-06 0.0
-0.0185308 2.10315e-05 0.0
-0.0271953 1.71833e-05 0.0
-0.0339149 -8.31008e-06 0.0
-0.0393226 -4.4221e-05 0.0
-0.0439594 -7.02473e-05 0.0
-0.0482914 -5.94865e-05 0.0
-0.0526914 2.13421e-05 0.0
-0.0574476 0.000211855 0.0
-0.062774 0.000559706 0.0
-0.068825 0.00112257 0.0
-0.075707 0.00197042 0.0
-0.0834824 0.00318712 0.0
-0.0921643 0.00486995 0.0
-0.101697 0.00712612 0.0
-0.111921 0.0100611 0.0
-0.12251 0.0137685 0.0
-0.132868 0.0182882 0.0
-0.142014 0.0235586 0.0
-0.148445 0.0293753 0.0
-0.149965 0.0353328 0.0
-0.143561 0.040788 0.0
-0.125317 0.0448827 0.0
-0.0903449 0.0466459 0.0
-0.0327116 0.0451933 0.0
0.0546808 0.0400494 0.0
0.179965 0.0312175 0.0
0.351822 0.0200111 0.0
0.57611 0.00783123 0.0
0.850355 0.000648132 0.0
-0.00725621 -2.01388e-05 0.0
-0.0183835 -0.000213529 0.0
-0.0269618 -0.000614381 0.0
-0.0336162 -0.00113528 0.0
-0.0389859 -0.00175722 0.0
-0.0436155 -0.00243476 0.0
-0.0479745 -0.00313444 0.0
-0.0524396 -0.00381802 0.0
-0.0573053 -0.00444564 0.0
-0.0627947 -0.00496956 0.0
-0.0690747 -0.00533075 0.0
-0.076267 -0.00545402 0.0
-0.084451 -0.00524409 0.0
-0.0936559 -0.00458349 0.0
-0.103836 -0.00333406 0.0
-0.114829 -0.00134771 0.0
-0.126289 0.00151865 0.0
-0.137524 0.00535491 0.0
-0.147438 0.010164 0.0
-0.154345 0.015798 0.0
-0.155826 0.0218895 0.0
-0.148631 0.0278042 0.0
-0.128663 0.0326714 0.0
-0.0910255 0.0354796 0.0
-0.030038 0.0353251 0.0
0.0608619 0.031721 0.0
0.189089 0.0247676 0.0
0.362296 0.015713 0.0
0.585012 0.00597209 0.0
0.853912 0.000407164 0.0
-0.00707959 -4.97569e-05 0.0
-0.0179225 -0.000454073 0.0
-0.0262798 -0.00125831 0.0
-0.0327696 -0.00228063 0.0
-0.038024 -0.00349539 0.0
-0.0425816 -0.00483379 0.0
-0.046908 -0.00625829 0.0
-0.0513798 -0.00772845 0.0
-0.0562957 -0.00920711 0.0
-0.0618882 -0.0106499 0.0
-0.0683397 -0.012 0.0
-0.0757926 -0.0131807 0.0
-0.0843515 -0.0140885 0.0
-0.0940724 -0.0145882 0.0
-0.104932 -0.0145114 0.0
-0.116771 -0.013664 0.0
-0.12921 -0.0118542 0.0
-0.141513 -0.00892016 0.0
-0.152461 -0.00478177 0.0
-0.160184 0.00048549 0.0
-0.161984 0.00657169 0.0
-0.15435 0.0128941 0.0
-0.132997 0.0186068 0.0
-0.0930027 0.0226556 0.0
-0.0289319 0.0240941 0.0
0.0652023 0.0223607 0.0
0.196073 0.0176117 0.0
0.370439 0.0109991 0.0
0.591781 0.00392869 0.0
0.856433 0.000120396 0.0
-0.00677197 -8.01799e-05 0.0
-0.0171454 -0.000695717 0.0
-0.0251479 -0.00190097 0.0
-0.031374 -0.00342018 0.0
-0.0364345 -0.00522254 0.0
-0.0408516 -0.00721844 0.0
-0.0450797 -0.00936902 0.0
-0.04949 -0.011635 0.0
-0.0543831 -0.0139857 0.0
-0.0600009 -0.0163846 0.0
-0.0665429 -0.0187827 0.0
-0.0741773 -0.0211079 0.0
-0.0830425 -0.0232555 0.0
-0.0932324 -0.0250794 0.0
-0.10476 -0.0263871 0.0
-0.117489 -0.0269436 0.0
-0.131032 -0.0264928 0.0
-0.144599 -0.024792 0.0
-0.156847 -0.0216716 0.0
-0.165704 -0.0171225 0.0
-0.168248 -0.0113577 0.0
-0.160696 -0.00486728 0.0
-0.138445 0.00158447 0.0
-0.0965033 0.00697974 0.0
-0.0297026 0.010341 0.0
0.067339 0.0109517 0.0
0.200516 0.00893622 0.0
0.375861 0.00530031 0.0
0.596102 0.0014293 0.0
0.857748 -0.000263578 0.0
-0.00633387 -0.000110602 0.0
-0.016057 -0.00093165 0.0
-0.0235748 -0.00252425 0.0
-0.0294407 -0.00452218 0.0
-0.0342285 -0.00689132 0.0
-0.0384339 -0.00952452 0.0
-0.0424916 -0.0123846 0.0
-0.0467625 -0.0154371 0.0
-0.0515453 -0.0186623 0.0
-0.0570902 -0.0220368 0.0
-0.063615 -0.0255263 0.0
-0.0713178 -0.0290722 0.0
-0.0803774 -0.0325794 0.0
-0.0909377 -0.0359028 0.0
-0.103064 -0.038838 0.0
-0.116663 -0.041119 0.0
-0.131361 -0.0424328 0.0
-0.146338 -0.0424534 0.0
-0.160141 -0.0409016 0.0
-0.170508 -0.0376311 0.0
-0.174256 -0.0327086 0.0
-0.16731 -0.0264835 0.0
-0.144871 -0.0195871 0.0
-0.101784 -0.0128873 0.0
-0.0329087 -0.00735665 0.0
0.0665936 -0.00386054 0.0
0.201753 -0.00238049 0.0
0.377953 -0.00211261 0.0
0.59741 -0.00179591 0.0
0.857492 -0.000765445 0.0
-0.00577009 -0.000139924 0.0
-0.0146723 -0.00115291 0.0
-0.0215832 -0.0031046 0.0
-0.0269973 -0.0055457 0.0
-0.0314359 -0.00844077 0.0
-0.0353568 -0.0116691 0.0
-0.0391674 -0.0151982 0.0
-0.0432118 -0.0190017 0.0
-0.047783 -0.0230751 0.0
-0.053136 -0.0274142 0.0
-0.0595062 -0.0320074 0.0
-0.0671224 -0.0368208 0.0
-0.0762095 -0.0417832 0.0
-0.0869706 -0.0467689 0.0
-0.0995397 -0.0515823 0.0
-0.11389 -0.0559477 0.0
-0.129693 -0.0595142 0.0
-0.146129 -0.0618812 0.0
-0.161672 -0.0626508 0.0
-0.173905 -0.0615057 0.0
-0.179411 -0.0582917 0.0
-0.173823 -0.0530915 0.0
-0.152054 -0.0462711 0.0
-0.108736 -0.0384732 0.0
-0.0387089 -0.0305681 0.0
0.0623925 -0.0234713 0.0
0.198746 -0.0174468 0.0
0.375379 -0.011985 0.0
0.594548 -0.00608786 0.0
0.855194 -0.00144335 0.0
-0.00509094 -0.000166622 0.0
-0.0130192 -0.00134781 0.0
-0.0192139 -0.00361184 0.0
-0.0240929 -0.00643876 0.0
-0.0281099 -0.00979385 0.0
-0.031675 -0.0135474 0.0
-0.0351597 -0.0176735 0.0
-0.0388853 -0.0221573 0.0
-0.0431327 -0.0270125 0.0
-0.0481573 -0.0322596 0.0
-0.0542075 -0.0379178 0.0
-0.0615405 -0.0439901 0.0
-0.070427 -0.0504469 0.0
-0.0811352 -0.0572059 0.0
-0.0938806 -0.0641101 0.0
-0.108726 -0.0709084 0.0
-0.125423 -0.0772466 0.0
-0.143199 -0.0826764 0.0
-0.160518 -0.0866888 0.0
-0.174875 -0.0887721 0.0
-0.182686 -0.0884824 0.0
-0.17935 -0.0855137 0.0
-0.159498 -0.0797754 0.0
-0.117463 -0.0714357 0.0
-0.0478438 -0.0610627 0.0
0.0535822 -0.0494627 0.0
0.190196 -0.0375476 0.0
0.366818 -0.0252691 0.0
0.586314 -0.011976 0.0
0.850145 -0.0024276 0.0
-0.00431375 -0.000188642 0.0
-0.0111421 -0.00150142 0.0
-0.0165292 -0.00400821 0.0
-0.020802 -0.00713704 0.0
-0.0243328 -0.0108558 0.0
-0.0274754 -0.0150304 0.0
-0.0305582 -0.019643 0.0
-0.0338725 -0.024691 0.0
-0.0376806 -0.0302085 0.0
-0.0422302 -0.0362439 0.0
-0.0477748 -0.0428539 0.0
-0.0545918 -0.0500899 0.0
-0.0629912 -0.0579824 0.0
-0.0733038 -0.0665196 0.0
-0.0858321 -0.0756211 0.0
-0.100747 -0.0851081 0.0
-0.117918 -0.0946763 0.0
-0.13668 -0.10388 0.0
-0.155573 -0.112132 0.0
-0.172115 -0.118729 0.0
-0.18268 -0.122887 0.0
-0.18255 -0.123792 0.0
-0.166147 -0.120696 0.0
-0.127464 -0.113001 0.0
-0.0606425 -0.100642 0.0
0.0389923 -0.0839042 0.0
0.174387 -0.0646252 0.0
0.350225 -0.0434892 0.0
0.570743 -0.0202868 0.0
0.841196 -0.00391461 0.0
-0.00346551 -0.000203088 0.0
-0.0091061 -0.00159496 0.0
-0.0136195 -0.00424773 0.0
-0.0172312 -0.0075636 0.0
-0.0202231 -0.0115144 0.0
-0.0228867 -0.0159663 0.0
-0.0255008 -0.0209086 0.0
-0.0283205 -0.0263505 0.0
-0.031581 -0.0323451 0.0
-0.0355129 -0.0389689 0.0
-0.0403624 -0.0463191 0.0
-0.0464126 -0.0545027 0.0
-0.0539974 -0.0636255 0.0
-0.0634957 -0.0737726 0.0
-0.07529 -0.084981 0.0
-0.0896673 -0.0972012 0.0
-0.106647 -0.110251 0.0
-0.125738 -0.123766 0.0
-0.145666 -0.137156 0.0
-0.164123 -0.149569 0.0
-0.177631 -0.159883 0.0
-0.181554 -0.16671 0.0
-0.170279 -0.168475 0.0
-0.137528 -0.163536 0.0
-0.0768474 -0.150744 0.0
0.0178634 -0.129157 0.0
0.149649 -0.101168 0.0
0.323212 -0.0688656 0.0
0.545264 -0.0324197 0.0
0.826667 -0.00630614 0.0
-0.00258362 -0.000206221 0.0
-0.00699842 -0.00160632 0.0
-0.0106031 -0.00427818 0.0
-0.0135196 -0.00763259 0.0
-0.0159358 -0.0116456 0.0
-0.0180788 -0.0161873 0.0
-0.0201743 -0.0212516 0.0
-0.0224351 -0.0268559 0.0
-0.0250615 -0.0330677 0.0
-0.0282552 -0.0399872 0.0
-0.0322397 -0.0477482 0.0
-0.0372835 -0.0565131 0.0
-0.0437185 -0.0664683 0.0
-0.051944 -0.0778125 0.0
-0.062397 -0.0907335 0.0
-0.0754675 -0.105368 0.0
-0.0913403 -0.121739 0.0
-0.10976 -0.13967 0.0
-0.129754 -0.158689 0.0
-0.149373 -0.177918 0.0
-0.165526 -0.195983 0.0
-0.173949 -0.21096 0.0
-0.169281 -0.220391 0.0
-0.145223 -0.221425 0.0
-0.094798 -0.21122 0.0
-0.0104 -0.187675 0.0
0.113687 -0.150327 0.0
0.282312 -0.104792 0.0
0.505772 -0.0510054 0.0
0.8034 -0.0105428 0.0
-0.00172225 -0.000192553 0.0
-0.00493724 -0.00150993 0.0
-0.00763776 -0.00404419 0.0
-0.00985108 -0.00725577 0.0
-0.0116773 -0.0111232 0.0
-0.0132822 -0.0155233 0.0
-0.0148371 -0.0204493 0.0
-0.0165086 -0.0259213 0.0
-0.018455 -0.0320128 0.0
-0.0208384 -0.0388376 0.0
-0.0238437 -0.0465544 0.0
-0.0277009 -0.0553682 0.0
-0.0327078 -0.0655352 0.0
-0.0392421 -0.0773626 0.0
-0.0477482 -0.0911985 0.0
-0.0586779 -0.1074 0.0
-0.0723625 -0.126269 0.0
-0.0888091 -0.147939 0.0
-0.107445 -0.172223 0.0
-0.12686 -0.198427 0.0
-0.144621 -0.225157 0.0
-0.157171 -0.250164 0.0
-0.159805 -0.270258 0.0
-0.146632 -0.281368 0.0
-0.110467 -0.278737 0.0
-0.042514 -0.258175 0.0
0.0670479 -0.215154 0.0
0.225674 -0.155801 0.0
0.448308 -0.0806872 0.0
0.766876 -0.0186401 0.0
-0.000943785 -0.000156884 0.0
-0.00305293 -0.00128524 0.0
-0.00489352 -0.00350366 0.0
-0.00642185 -0.00636561 0.0
-0.00766811 -0.00984782 0.0
-0.00874414 -0.0138351 0.0
-0.00976956 -0.0183146 0.0
-0.0108628 -0.0233018 0.0
-0.0121357 -0.0288659 0.0
-0.0137027 -0.0351195 0.0
-0.0156966 -0.0422262 0.0
-0.0182879 -0.0504075 0.0
-0.0217062 -0.0599561 0.0
-0.0262583 -0.0712504 0.0
-0.0323304 -0.0847631 0.0
-0.0403596 -0.101051 0.0
-0.0507534 -0.12071 0.0