# vtk DataFile Version 3.0
Malha 2D com triângulos e temperatura
ASCII
DATASET UNSTRUCTURED_GRID

POINTS 961 double
0 0 0
1 0 0
1 1 0
0 1 0
0.0333333 0 0
0.0666667 0 0
0.1 0 0
0.133333 0 0
0.166667 0 0
0.2 0 0
0.233333 0 0
0.266667 0 0
0.3 0 0
0.333333 0 0
0.366667 0 0
0.4 0 0
0.433333 0 0
0.466667 0 0
0.5 0 0
0.533333 0 0
0.566667 0 0
0.6 0 0
0.633333 0 0
0.666667 0 0
0.7 0 0
0.733333 0 0
0.766667 0 0
0.8 0 0
0.833333 0 0
0.866667 0 0
0.9 0 0
0.933333 0 0
0.966667 0 0
1 0.0333333 0
1 0.0666667 0
1 0.1 0
1 0.133333 0
1 0.166667 0
1 0.2 0
1 0.233333 0
1 0.266667 0
1 0.3 0
1 0.333333 0
1 0.366667 0
1 0.4 0
1 0.433333 0
1 0.466667 0
1 0.5 0
1 0.533333 0
1 0.566667 0
1 0.6 0
1 0.633333 0
1 0.666667 0
1 0.7 0
1 0.733333 0
1 0.766667 0
1 0.8 0
1 0.833333 0
1 0.866667 0
1 0.9 0
1 0.933333 0
1 0.966667 0
0.966667 1 0
0.933333 1 0
0.9 1 0
0.866667 1 0
0.833333 1 0
0.8 1 0
0.766667 1 0
0.733333 1 0
0.7 1 0
0.666667 1 0
0.633333 1 0
0.6 1 0
0.566667 1 0
0.533333 1 0
0.5 1 0
0.466667 1 0
0.433333 1 0
0.4 1 0
0.366667 1 0
0.333333 1 0
0.3 1 0
0.266667 1 0
0.233333 1 0
0.2 1 0
0.166667 1 0
0.133333 1 0
0.1 1 0
0.0666667 1 0
0.0333333 1 0
0 0.966667 0
0 0.933333 0
0 0.9 0
0 0.866667 0
0 0.833333 0
0 0.8 0
0 0.766667 0
0 0.733333 0
0 0.7 0
0 0.666667 0
0 0.633333 0
0 0.6 0
0 0.566667 0
0 0.533333 0
0 0.5 0
0 0.466667 0
0 0.433333 0
0 0.4 0
0 0.366667 0
0 0.333333 0
0 0.3 0
0 0.266667 0
0 0.233333 0
0 0.2 0
0 0.166667 0
0 0.133333 0
0 0.1 0
0 0.0666667 0
0 0.0333333 0
0.0333333 0.0333333 0
0.0333333 0.0666667 0
0.0333333 0.1 0
0.0333333 0.133333 0
0.0333333 0.166667 0
0.0333333 0.2 0
0.0333333 0.233333 0
0.0333333 0.266667 0
0.0333333 0.3 0
0.0333333 0.333333 0
0.0333333 0.366667 0
0.0333333 0.4 0
0.0333333 0.433333 0
0.0333333 0.466667 0
0.0333333 0.5 0
0.0333333 0.533333 0
0.0333333 0.566667 0
0.0333333 0.6 0
0.0333333 0.633333 0
0.0333333 0.666667 0
0.0333333 0.7 0
0.0333333 0.733333 0
0.0333333 0.766667 0
0.0333333 0.8 0
0.0333333 0.833333 0
0.0333333 0.866667 0
0.0333333 0.9 0
0.0333333 0.933333 0
0.0333333 0.966667 0
0.0666667 0.0333333 0
0.0666667 0.0666667 0
0.0666667 0.1 0
0.0666667 0.133333 0
0.0666667 0.166667 0
0.0666667 0.2 0
0.0666667 0.233333 0
0.0666667 0.266667 0
0.0666667 0.3 0
0.0666667 0.333333 0
0.0666667 0.366667 0
0.0666667 0.4 0
0.0666667 0.433333 0
0.0666667 0.466667 0
0.0666667 0.5 0
0.0666667 0.533333 0
0.0666667 0.566667 0
0.0666667 0.6 0
0.0666667 0.633333 0
0.0666667 0.666667 0
0.0666667 0.7 0
0.0666667 0.733333 0
0.0666667 0.766667 0
0.0666667 0.8 0
0.0666667 0.833333 0
0.0666667 0.866667 0
0.0666667 0.9 0
0.0666667 0.933333 0
0.0666667 0.966667 0
0.1 0.0333333 0
0.1 0.0666667 0
0.1 0.1 0
0.1 0.133333 0
0.1 0.166667 0
0.1 0.2 0
0.1 0.233333 0
0.1 0.266667 0
0.1 0.3 0
0.1 0.333333 0
0.1 0.366667 0
0.1 0.4 0
0.1 0.433333 0
0.1 0.466667 0
0.1 0.5 0
0.1 0.533333 0
0.1 0.566667 0
0.1 0.6 0
0.1 0.633333 0
0.1 0.666667 0
0.1 0.7 0
0.1 0.733333 0
0.1 0.766667 0
0.1 0.8 0
0.1 0.833333 0
0.1 0.866667 0
0.1 0.9 0
0.1 0.933333 0
0.1 0.966667 0
0.133333 0.0333333 0
0.133333 0.0666667 0
0.133333 0.1 0
0.133333 0.133333 0
0.133333 0.166667 0
0.133333 0.2 0
0.133333 0.233333 0
0.133333 0.266667 0
0.133333 0.3 0
0.133333 0.333333 0
0.133333 0.366667 0
0.133333 0.4 0
0.133333 0.433333 0
0.133333 0.466667 0
0.133333 0.5 0
0.133333 0.533333 0
0.133333 0.566667 0
0.133333 0.6 0
0.133333 0.633333 0
0.133333 0.666667 0
0.133333 0.7 0
0.133333 0.733333 0
0.133333 0.766667 0
0.133333 0.8 0
0.133333 0.833333 0
0.133333 0.866667 0
0.133333 0.9 0
0.133333 0.933333 0
0.133333 0.966667 0
0.166667 0.0333333 0
0.166667 0.0666667 0
0.166667 0.1 0
0.166667 0.133333 0
0.166667 0.166667 0
0.166667 0.2 0
0.166667 0.233333 0
0.166667 0.266667 0
0.166667 0.3 0
0.166667 0.333333 0
0.166667 0.366667 0
0.166667 0.4 0
0.166667 0.433333 0
0.166667 0.466667 0
0.166667 0.5 0
0.166667 0.533333 0
0.166667 0.566667 0
0.166667 0.6 0
0.166667 0.633333 0
0.166667 0.666667 0
0.166667 0.7 0
0.166667 0.733333 0
0.166667 0.766667 0
0.166667 0.8 0
0.166667 0.833333 0
0.166667 0.866667 0
0.166667 0.9 0
0.166667 0.933333 0
0.166667 0.966667 0
0.2 0.0333333 0
0.2 0.0666667 0
0.2 0.1 0
0.2 0.133333 0
0.2 0.166667 0
0.2 0.2 0
0.2 0.233333 0
0.2 0.266667 0
0.2 0.3 0
0.2 0.333333 0
0.2 0.366667 0
0.2 0.4 0
0.2 0.433333 0
0.2 0.466667 0
0.2 0.5 0
0.2 0.533333 0
0.2 0.566667 0
0.2 0.6 0
0.2 0.633333 0
0.2 0.666667 0
0.2 0.7 0
0.2 0.733333 0
0.2 0.766667 0
0.2 0.8 0
0.2 0.833333 0
0.2 0.866667 0
0.2 0.9 0
0.2 0.933333 0
0.2 0.966667 0
0.233333 0.0333333 0
0.233333 0.0666667 0
0.233333 0.1 0
0.233333 0.133333 0
0.233333 0.166667 0
0.233333 0.2 0
0.233333 0.233333 0
0.233333 0.266667 0
0.233333 0.3 0
0.233333 0.333333 0
0.233333 0.366667 0
0.233333 0.4 0
0.233333 0.433333 0
0.233333 0.466667 0
0.233333 0.5 0
0.233333 0.533333 0
0.233333 0.566667 0
0.233333 0.6 0
0.233333 0.633333 0
0.233333 0.666667 0
0.233333 0.7 0
0.233333 0.733333 0
0.233333 0.766667 0
0.233333 0.8 0
0.233333 0.833333 0
0.233333 0.866667 0
0.233333 0.9 0
0.233333 0.933333 0
0.233333 0.966667 0
0.266667 0.0333333 0
0.266667 0.0666667 0
0.266667 0.1 0
0.266667 0.133333 0
0.266667 0.166667 0
0.266667 0.2 0
0.266667 0.233333 0
0.266667 0.266667 0
0.266667 0.3 0
0.266667 0.333333 0
0.266667 0.366667 0
0.266667 0.4 0
0.266667 0.433333 0
0.266667 0.466667 0
0.266667 0.5 0
0.266667 0.533333 0
0.266667 0.566667 0
0.266667 0.6 0
0.266667 0.633333 0
0.266667 0.666667 0
0.266667 0.7 0
0.266667 0.733333 0
0.266667 0.766667 0
0.266667 0.8 0
0.266667 0.833333 0
0.266667 0.866667 0
0.266667 0.9 0
0.266667 0.933333 0
0.266667 0.966667 0
0.3 0.0333333 0
0.3 0.0666667 0
0.3 0.1 0
0.3 0.133333 0
0.3 0.166667 0
0.3 0.2 0
0.3 0.233333 0
0.3 0.266667 0
0.3 0.3 0
0.3 0.333333 0
0.3 0.366667 0
0.3 0.4 0
0.3 0.433333 0
0.3 0.466667 0
0.3 0.5 0
0.3 0.533333 0
0.3 0.566667 0
0.3 0.6 0
0.3 0.633333 0
0.3 0.666667 0
0.3 0.7 0
0.3 0.733333 0
0.3 0.766667 0
0.3 0.8 0
0.3 0.833333 0
0.3 0.866667 0
0.3 0.9 0
0.3 0.933333 0
0.3 0.966667 0
0.333333 0.0333333 0
0.333333 0.0666667 0
0.333333 0.1 0
0.333333 0.133333 0
0.333333 0.166667 0
0.333333 0.2 0
0.333333 0.233333 0
0.333333 0.266667 0
0.333333 0.3 0
0.333333 0.333333 0
0.333333 0.366667 0
0.333333 0.4 0
0.333333 0.433333 0
0.333333 0.466667 0
0.333333 0.5 0
0.333333 0.533333 0
0.333333 0.566667 0
0.333333 0.6 0
0.333333 0.633333 0
0.333333 0.666667 0
0.333333 0.7 0
0.333333 0.733333 0
0.333333 0.766667 0
0.333333 0.8 0
0.333333 0.833333 0
0.333333 0.866667 0
0.333333 0.9 0
0.333333 0.933333 0
0.333333 0.966667 0
0.366667 0.0333333 0
0.366667 0.0666667 0
0.366667 0.1 0
0.366667 0.133333 0
0.366667 0.166667 0
0.366667 0.2 0
0.366667 0.233333 0
0.366667 0.266667 0
0.366667 0.3 0
0.366667 0.333333 0
0.366667 0.366667 0
0.366667 0.4 0
0.366667 0.433333 0
0.366667 0.466667 0
0.366667 0.5 0
0.366667 0.533333 0
0.366667 0.566667 0
0.366667 0.6 0
0.366667 0.633333 0
0.366667 0.666667 0
0.366667 0.7 0
0.366667 0.733333 0
0.366667 0.766667 0
0.366667 0.8 0
0.366667 0.833333 0
0.366667 0.866667 0
0.366667 0.9 0
0.366667 0.933333 0
0.366667 0.966667 0
0.4 0.0333333 0
0.4 0.0666667 0
0.4 0.1 0
0.4 0.133333 0
0.4 0.166667 0
0.4 0.2 0
0.4 0.233333 0
0.4 0.266667 0
0.4 0.3 0
0.4 0.333333 0
0.4 0.366667 0
0.4 0.4 0
0.4 0.433333 0
0.4 0.466667 0
0.4 0.5 0
0.4 0.533333 0
0.4 0.566667 0
0.4 0.6 0
0.4 0.633333 0
0.4 0.666667 0
0.4 0.7 0
0.4 0.733333 0
0.4 0.766667 0
0.4 0.8 0
0.4 0.833333 0
0.4 0.866667 0
0.4 0.9 0
0.4 0.933333 0
0.4 0.966667 0
0.433333 0.0333333 0
0.433333 0.0666667 0
0.433333 0.1 0
0.433333 0.133333 0
0.433333 0.166667 0
0.433333 0.2 0
0.433333 0.233333 0
0.433333 0.266667 0
0.433333 0.3 0
0.433333 0.333333 0
0.433333 0.366667 0
0.433333 0.4 0
0.433333 0.433333 0
0.433333 0.466667 0
0.433333 0.5 0
0.433333 0.533333 0
0.433333 0.566667 0
0.433333 0.6 0
0.433333 0.633333 0
0.433333 0.666667 0
0.433333 0.7 0
0.433333 0.733333 0
0.433333 0.766667 0
0.433333 0.8 0
0.433333 0.833333 0
0.433333 0.866667 0
0.433333 0.9 0
0.433333 0.933333 0
0.433333 0.966667 0
0.466667 0.0333333 0
0.466667 0.0666667 0
0.466667 0.1 0
0.466667 0.133333 0
0.466667 0.166667 0
0.466667 0.2 0
0.466667 0.233333 0
0.466667 0.266667 0
0.466667 0.3 0
0.466667 0.333333 0
0.466667 0.366667 0
0.466667 0.4 0
0.466667 0.433333 0
0.466667 0.466667 0
0.466667 0.5 0
0.466667 0.533333 0
0.466667 0.566667 0
0.466667 0.6 0
0.466667 0.633333 0
0.466667 0.666667 0
0.466667 0.7 0
0.466667 0.733333 0
0.466667 0.766667 0
0.466667 0.8 0
0.466667 0.833333 0
0.466667 0.866667 0
0.466667 0.9 0
0.466667 0.933333 0
0.466667 0.966667 0
0.5 0.0333333 0
0.5 0.0666667 0
0.5 0.1 0
0.5 0.133333 0
0.5 0.166667 0
0.5 0.2 0
0.5 0.233333 0
0.5 0.266667 0
0.5 0.3 0
0.5 0.333333 0
0.5 0.366667 0
0.5 0.4 0
0.5 0.433333 0
0.5 0.466667 0
0.5 0.5 0
0.5 0.533333 0
0.5 0.566667 0
0.5 0.6 0
0.5 0.633333 0
0.5 0.666667 0
0.5 0.7 0
0.5 0.733333 0
0.5 0.766667 0
0.5 0.8 0
0.5 0.833333 0
0.5 0.866667 0
0.5 0.9 0
0.5 0.933333 0
0.5 0.966667 0
0.533333 0.0333333 0
0.533333 0.0666667 0
0.533333 0.1 0
0.533333 0.133333 0
0.533333 0.166667 0
0.533333 0.2 0
0.533333 0.233333 0
0.533333 0.266667 0
0.533333 0.3 0
0.533333 0.333333 0
0.533333 0.366667 0
0.533333 0.4 0
0.533333 0.433333 0
0.533333 0.466667 0
0.533333 0.5 0
0.533333 0.533333 0
0.533333 0.566667 0
0.533333 0.6 0
0.533333 0.633333 0
0.533333 0.666667 0
0.533333 0.7 0
0.533333 0.733333 0
0.533333 0.766667 0
0.533333 0.8 0
0.533333 0.833333 0
0.533333 0.866667 0
0.533333 0.9 0
0.533333 0.933333 0
0.533333 0.966667 0
0.566667 0.0333333 0
0.566667 0.0666667 0
0.566667 0.1 0
0.566667 0.133333 0
0.566667 0.166667 0
0.566667 0.2 0
0.566667 0.233333 0
0.566667 0.266667 0
0.566667 0.3 0
0.566667 0.333333 0
0.566667 0.366667 0
0.566667 0.4 0
0.566667 0.433333 0
0.566667 0.466667 0
0.566667 0.5 0
0.566667 0.533333 0
0.566667 0.566667 0
0.566667 0.6 0
0.566667 0.633333 0
0.566667 0.666667 0
0.566667 0.7 0
0.566667 0.733333 0
0.566667 0.766667 0
0.566667 0.8 0
0.566667 0.833333 0
0.566667 0.866667 0
0.566667 0.9 0
0.566667 0.933333 0
0.566667 0.966667 0
0.6 0.0333333 0
0.6 0.0666667 0
0.6 0.1 0
0.6 0.133333 0
[...]
CELL_DATA 900
VECTORS velocity double
6.72184e-05 -6.61192e-05 0.0
-1.53875e-05 6.52217e-06 0.0
-9.10114e-05 0.000384702 0.0
-0.000147709 0.000972328 0.0
-0.00018117 0.00172914 0.0
-0.000202257 0.00259657 0.0
-0.000217439 0.00355298 0.0
-0.00023186 0.00458727 0.0
-0.000248285 0.00570333 0.0
-0.000268392 0.00691231 0.0
-0.000293189 0.00823154 0.0
-0.000323529 0.00968284 0.0
-0.000360403 0.0112928 0.0
-0.000405238 0.0130938 0.0
-0.000460249 0.0151261 0.0
-0.000528989 0.0174414 0.0
-0.000617303 0.0201085 0.0
-0.000735021 0.0232213 0.0
-0.000899032 0.026912 0.0
-0.0011392 0.0313701 0.0
-0.00151008 0.0368724 0.0
-0.00211581 0.0438313 0.0
-0.00316083 0.0528805 0.0
-0.00505599 0.0650116 0.0
-0.00858001 0.0819132 0.0
-0.0150947 0.106046 0.0
-0.0257526 0.142452 0.0
-0.0381065 0.189746 0.0
-0.0134148 0.262692 0.0
0.216845 0.174004 0.0
-8.43343e-06 1.93005e-05 0.0
-0.000478987 0.000480719 0.0
-0.000909884 0.00155416 0.0
-0.0012569 0.00303852 0.0
-0.00150765 0.00488552 0.0
-0.00169715 0.0069969 0.0
-0.00185528 0.00933384 0.0
-0.00200821 0.0118759 0.0
-0.00217415 0.014631 0.0
-0.0023662 0.0176236 0.0
-0.00259423 0.0208925 0.0
-0.00286721 0.0244877 0.0
-0.00319513 0.028471 0.0
-0.00359094 0.0329178 0.0
-0.0040727 0.0379209 0.0
-0.00466656 0.0435971 0.0
-0.00541075 0.0500964 0.0
-0.00636131 0.057614 0.0
-0.00760012 0.0664057 0.0
-0.00924614 0.0768049 0.0
-0.0114717 0.0892353 0.0
-0.0145296 0.104212 0.0
-0.0187933 0.122307 0.0
-0.0248287 0.144026 0.0
-0.0333877 0.169543 0.0
-0.0452619 0.197796 0.0
-0.0589121 0.225337 0.0
-0.0651816 0.24034 0.0
-0.00284428 0.218643 0.0
0.305247 0.116475 0.0
-0.000389035 9.4154e-05 0.0
-0.00154878 0.000890949 0.0
-0.00257557 0.00252522 0.0
-0.00340768 0.00467289 0.0
-0.00404172 0.00728781 0.0
-0.00454268 0.0102516 0.0
-0.00497528 0.0135221 0.0
-0.00539727 0.0170774 0.0
-0.00585224 0.0209298 0.0
-0.00637279 0.0251118 0.0
-0.00698449 0.0296739 0.0
-0.00771059 0.0346804 0.0
-0.00857634 0.0402099 0.0
-0.00961323 0.0463559 0.0
-0.0108636 0.0532312 0.0
-0.0123858 0.0609722 0.0
-0.0142612 0.0697463 0.0
-0.0166012 0.0797586 0.0
-0.0195544 0.0912574 0.0
-0.0233112 0.104533 0.0
-0.0280986 0.119895 0.0
-0.0341606 0.137621 0.0
-0.0416978 0.157822 0.0
-0.0507395 0.1802 0.0
-0.0607153 0.20352 0.0
-0.069479 0.22486 0.0
-0.069419 0.237372 0.0
-0.0390992 0.230292 0.0
0.0919047 0.173569 0.0
0.476411 0.0770853 0.0
-0.000960645 0.000146023 0.0
-0.00298058 0.00118456 0.0
-0.00469339 0.00321202 0.0
-0.00606315 0.00579804 0.0
-0.0071246 0.00889929 0.0
-0.0079804 0.012386 0.0
-0.0087333 0.0162189 0.0
-0.00947368 0.0203778 0.0
-0.0102713 0.0248788 0.0
-0.0111789 0.0297582 0.0
-0.0122383 0.0350705 0.0
-0.0134869 0.0408843 0.0
-0.0149642 0.0472809 0.0
-0.0167179 0.0543549 0.0
-0.0188094 0.0622157 0.0
-0.0213206 0.0709898 0.0
-0.0243595 0.0808224 0.0
-0.028065 0.0918773 0.0
-0.0326057 0.104329 0.0
-0.0381664 0.118344 0.0
-0.0449089 0.13403 0.0
-0.0528903 0.151347 0.0
-0.0618994 0.169923 0.0
-0.0711631 0.188791 0.0
-0.0786741 0.205813 0.0
-0.0798191 0.217265 0.0
-0.0633619 0.215871 0.0
-0.00233237 0.193267 0.0
0.167643 0.128838 0.0
0.575338 0.0491697 0.0
-0.00166329 0.000169409 0.0
-0.00467819 0.00134112 0.0
-0.00714766 0.00359094 0.0
-0.00909313 0.00641534 0.0
-0.0106095 0.00976982 0.0
-0.0118457 0.0135167 0.0
-0.0129462 0.01762 0.0
-0.0140349 0.0220614 0.0
-0.0152078 0.0268593 0.0
-0.0165374 0.0320507 0.0
-0.0180807 0.0376896 0.0
-0.0198876 0.0438416 0.0
-0.0220094 0.0505826 0.0
-0.0245055 0.057997 0.0
-0.0274497 0.066178 0.0
-0.0309361 0.0752264 0.0
-0.0350826 0.0852476 0.0
-0.0400297 0.0963453 0.0
-0.0459275 0.108606 0.0
-0.0529002 0.122066 0.0
-0.0609685 0.136656 0.0
-0.0699049 0.152097 0.0
-0.0789768 0.167714 0.0
-0.0865167 0.182214 0.0
-0.0890955 0.193163 0.0
-0.0799857 0.196884 0.0
-0.045352 0.18686 0.0
0.0434509 0.157258 0.0
0.240714 0.0952437 0.0
0.647184 0.0308176 0.0
-0.0024152 0.000175605 0.0
-0.00648646 0.00139481 0.0
-0.00973591 0.00372305 0.0
-0.0122599 0.00662142 0.0
-0.014227 0.0100431 0.0
-0.0158393 0.0138466 0.0
-0.0172851 0.0179986 0.0
-0.0187218 0.0224824 0.0
-0.0202699 0.0273171 0.0
-0.0220197 0.0325385 0.0
-0.0240407 0.0381971 0.0
-0.0263926 0.0443522 0.0
-0.0291339 0.0510699 0.0
-0.0323296 0.0584202 0.0
-0.0360576 0.0664753 0.0
-0.040412 0.0753059 0.0
-0.0455041 0.0849756 0.0
-0.0514537 0.0955297 0.0
-0.0583636 0.106976 0.0
-0.0662631 0.119249 0.0
-0.0749955 0.13215 0.0
-0.0840218 0.14525 0.0
-0.0920938 0.157723 0.0
-0.0967394 0.168176 0.0
-0.0933761 0.174199 0.0
-0.0738086 0.172567 0.0
-0.0228801 0.157725 0.0
0.0870389 0.126644 0.0
0.30179 0.0712226 0.0
0.69794 0.0195169 0.0
-0.00317254 0.000171062 0.0
-0.00831065 0.00137433 0.0
-0.0123352 0.00366996 0.0
-0.0154248 0.0065153 0.0
-0.0178271 0.0098622 0.0
-0.0198004 0.0135701 0.0
-0.0215783 0.0176079 0.0
-0.0233503 0.0219602 0.0
-0.02526 0.0266458 0.0
-0.0274133 0.0316984 0.0
-0.0298898 0.0371636 0.0
-0.0327553 0.0430935 0.0
-0.0360717 0.0495432 0.0
-0.0399045 0.0565679 0.0
-0.0443282 0.0642194 0.0
-0.0494281 0.0725409 0.0
-0.0552968 0.0815596 0.0
-0.062019 0.0912742 0.0
-0.0696345 0.101633 0.0
-0.0780616 0.112502 0.0
-0.0869565 0.123602 0.0
-0.0954746 0.134433 0.0
-0.101894 0.14412 0.0
-0.103048 0.151304 0.0
-0.0934485 0.153751 0.0
-0.0638815 0.148808 0.0
0.00130327 0.131775 0.0
0.127458 0.101866 0.0
0.35303 0.0537905 0.0
0.734646 0.0124949 0.0
-0.00390103 0.000160893 0.0
-0.010072 0.0013047 0.0
-0.01484 0.0034868 0.0
-0.0184665 0.00618476 0.0
-0.0212773 0.00935116 0.0
-0.0235877 0.0128512 0.0
-0.0256755 0.0166565 0.0
-0.0277611 0.0207531 0.0
-0.0300092 0.0251593 0.0
-0.0325388 0.0299062 0.0
-0.0354373 0.0350347 0.0
-0.0387739 0.0405898 0.0
-0.0426103 0.046617 0.0
-0.0470082 0.0531584 0.0
-0.0520334 0.0602489 0.0
-0.0577557 0.0679101 0.0
-0.0642416 0.0761417 0.0
-0.0715325 0.084909 0.0
-0.0795977 0.0941215 0.0
-0.0882414 0.103602 0.0
-0.0969382 0.113032 0.0
-0.104562 0.121887 0.0
-0.108976 0.129302 0.0
-0.106443 0.134013 0.0
-0.0907951 0.13402 0.0
-0.0521693 0.127179 0.0
0.0249013 0.109735 0.0
0.163294 0.0821992 0.0
0.395335 0.0411222 0.0
0.761649 0.00813568 0.0
-0.00458074 0.000147503 0.0
-0.011719 0.00120172 0.0
-0.0171792 0.00321196 0.0
-0.0213021 0.00569299 0.0
-0.024488 0.00860038 0.0
-0.027107 0.0118096 0.0
-0.0294787 0.0152956 0.0
-0.0318526 0.0190469 0.0
-0.0344123 0.0230815 0.0
-0.0372879 0.027428 0.0
-0.0405725 0.0321235 0.0
-0.0443366 0.037207 0.0
-0.0486393 0.0427165 0.0
-0.0535354 0.0486845 0.0
-0.0590788 0.0551337 0.0
-0.0653198 0.0620709 0.0
-0.0722947 0.069478 0.0
-0.079998 0.0772997 0.0
-0.0883269 0.0854235 0.0
-0.0969741 0.093651 0.0
-0.105244 0.10165 0.0
-0.111757 0.108899 0.0
-0.11402 0.114577 0.0
-0.107831 0.117529 0.0
-0.0865275 0.116017 0.0
-0.0399091 0.108284 0.0
0.0469262 0.0915322 0.0
0.194678 0.0666902 0.0
0.430224 0.0318395 0.0
0.781885 0.00540896 0.0
-0.00519726 0.000132082 0.0
-0.0132131 0.0010751 0.0
-0.0192982 0.00287047 0.0
-0.0238674 0.00508231 0.0
-0.0273891 0.00767121 0.0
-0.0302846 0.0105266 0.0
-0.0329121 0.0136282 0.0
-0.0355471 0.0169676 0.0
-0.0383901 0.0205629 0.0
-0.0415808 0.0244414 0.0
-0.0452163 0.0286371 0.0
-0.049367 0.0331851 0.0
-0.0540879 0.0381184 0.0
-0.0594256 0.0434637 0.0
-0.0654201 0.0492368 0.0
-0.0721006 0.0554366 0.0
-0.0794714 0.0620364 0.0
-0.0874796 0.0689715 0.0
-0.0959512 0.0761207 0.0
-0.104473 0.0832798 0.0
-0.112191 0.0901187 0.0
-0.117503 0.0961335 0.0
-0.117608 0.100557 0.0
-0.107936 0.102345 0.0
-0.0814737 0.0999976 0.0
-0.027906 0.0920748 0.0
0.067014 0.0765165 0.0
0.221919 0.0544147 0.0
0.459013 0.0249558 0.0
0.79732 0.00368316 0.0
-0.00574025 0.000115 0.0
-0.0145261 0.000930098 0.0
-0.0211565 0.00247733 0.0
-0.0261139 0.00437924 0.0
-0.0299278 0.00660299 0.0
-0.0330652 0.00905518 0.0
-0.0359188 0.011721 0.0
-0.0387872 0.0145966 0.0
-0.0418856 0.0177006 0.0
-0.0453617 0.0210597 0.0
-0.0493158 0.0247063 0.0
-0.0538175 0.0286736 0.0
-0.0589174 0.0329924 0.0
-0.0646534 0.0376874 0.0
-0.0710515 0.042773 0.0
-0.0781194 0.048247 0.0
-0.0858299 0.054082 0.0
-0.0940832 0.0602138 0.0
-0.102637 0.066523 0.0
-0.110976 0.07281 0.0
-0.118101 0.0787558 0.0
-0.122207 0.0838797 0.0
-0.120233 0.0874671 0.0
-0.107313 0.0885689 0.0
-0.0761977 0.0858904 0.0
-0.0165991 0.0782361 0.0
0.0850143 0.0641037 0.0
0.245411 0.0446434 0.0
0.482808 0.0197868 0.0
0.809287 0.00257526 0.0
-0.00620102 9.63303e-05 0.0
-0.015635 0.000769641 0.0
-0.0227215 0.00204167 0.0
-0.0280027 0.00360056 0.0
-0.0320612 0.00542121 0.0
-0.0354037 0.00742979 0.0
-0.0384526 0.00961807 0.0
-0.0415264 0.0119871 0.0
-0.0448527 0.014557 0.0
-0.0485862 0.0173548 0.0
-0.0528299 0.0204124 0.0
-0.0576528 0.023763 0.0
-0.0631015 0.0274381 0.0
-0.0692061 0.0314644 0.0
-0.0759797 0.0358596 0.0
-0.0834098 0.0406268 0.0
-0.0914388 0.0457458 0.0
-0.0999219 0.0511612 0.0
-0.108549 0.0567641 0.0
-0.116709 0.0623674 0.0
-0.123265 0.0676674 0.0
-0.126225 0.0722064 0.0
-0.1223 0.0753141 0.0
-0.106391 0.0761162 0.0
-0.0710968 0.0734829 0.0
-0.00624993 0.0664015 0.0
0.100948 0.0537891 0.0
0.265585 0.0368006 0.0
0.502524 0.0158501 0.0
0.818703 0.00185087 0.0
-0.00657193 7.60459e-05 0.0
-0.0165206 0.000595522 0.0
-0.023966 0.00156952 0.0
-0.0295014 0.00275776 0.0
-0.0337538 0.00414367 0.0
-0.0372629 0.0056748 0.0
-0.0404753 0.00735004 0.0
-0.0437259 0.00917607 0.0
-0.0472528 0.0111748 0.0
-0.0512167 0.0133742 0.0
-0.0557236 0.0158069 0.0
-0.0608428 0.0185077 0.0
-0.0666184 0.0215113 0.0
-0.0730746 0.02485 0.0
-0.0802138 0.0285498 0.0
-0.0880058 0.0326251 0.0
-0.0963648 0.0370699 0.0
-0.105103 0.0418455 0.0
-0.113845 0.0468618 0.0
-0.121883 0.0519499 0.0
-0.127945 0.0568245 0.0
-0.129863 0.0610471 0.0
-0.124146 0.0639789 0.0
-0.105505 0.0647965 0.0
-0.0664491 0.0624952 0.0
0.00300497 0.0561829 0.0
0.114889 0.04514 0.0
0.282836 0.0304328 0.0
0.518894 0.0128014 0.0
0.826207 0.00136562 0.0
-0.00684598 5.4142e-05 0.0
-0.0171664 0.000409196 0.0
-0.0248672 0.00106573 0.0
-0.0305828 0.00186013 0.0
-0.0349756 0.00278473 0.0
-0.0386106 0.00380978 0.0
-0.0419532 0.0049415 0.0
-0.0453509 0.00619242 0.0
-0.0490503 0.00758633 0.0
-0.0532177 0.0091524 0.0
-0.0579629 0.0109248 0.0
-0.0633567 0.0129411 0.0
-0.0694434 0.0152415 0.0
-0.0762444 0.0178669 0.0
-0.0837547 0.0208561 0.0
-0.0919302 0.0242404 0.0
-0.10066 0.0280352 0.0
-0.109715 0.0322266 0.0
-0.118656 0.0367513 0.0
-0.126676 0.041465 0.0
-0.132367 0.0461028 0.0
-0.133388 0.0502415 0.0
-0.126055 0.0532604 0.0
-0.104923 0.0543634 0.0
-0.0624651 0.0526247 0.0
0.0110401 0.0472634 0.0
0.126929 0.0377816 0.0
0.297512 0.0251779 0.0
0.532495 0.0103881 0.0
0.832242 0.00102874 0.0
-0.00701695 3.0672e-05 0.0
-0.0175582 0.000212184 0.0
-0.0254057 0.000535083 0.0
-0.0312244 0.000916612 0.0
-0.0357016 0.0013581 0.0
-0.0394199 0.00185322 0.0
-0.0428574 0.00241535 0.0
-0.0463705 0.00306266 0.0
-0.0502123 0.00382042 0.0
-0.0545547 0.00471891 0.0
-0.0595119 0.00579389 0.0
-0.065159 0.00708652 0.0
-0.0715436 0.00864375 0.0
-0.0786886 0.0105178 0.0
-0.0865867 0.012764 0.0
-0.0951845 0.0154362 0.0
-0.104351 0.0185782 0.0
-0.11382 0.0222095 0.0
-0.123086 0.0263026 0.0
-0.131239 0.0307452 0.0
-0.136727 0.0352966 0.0
-0.137029 0.0395474 0.0
-0.128274 0.0428821 0.0
-0.104881 0.0445113 0.0
-0.0593307 0.0435437 0.0
0.0177892 0.0392825 0.0
0.137163 0.0313556 0.0
0.309897 0.02072 0.0
0.543763 0.00841114 0.0
0.837114 0.000780097 0.0
-0.00707914 5.73827e-06 0.0
-0.017684 6.27786e-06 0.0
-0.0255657 -1.71174e-05 0.0
-0.0314077 -6.31549e-05 0.0
-0.0359111 -0.000121663 0.0
-0.0396677 -0.000175387 0.0
-0.0431619 -0.000204394 0.0
-0.0467552 -0.000185575 0.0
-0.0507056 -9.29226e-05 0.0
-0.0551903 0.00010408 0.0
-0.0603295 0.000441994 0.0
-0.0662056 0.000965437 0.0
-0.072874 0.00172872 0.0
-0.0803643 0.00279678 0.0
-0.0886735 0.00424455 0.0
-0.0977456 0.00615331 0.0
-0.107435 0.00860184 0.0
-0.117442 0.011653 0.0
-0.127194 0.0153265 0.0
-0.135674 0.0195507 0.0
-0.141175 0.024116 0.0
-0.140982 0.0286296 0.0
-0.131025 0.0324732 0.0
-0.105595 0.0348448 0.0
-0.0572161 0.0348507 0.0
0.0231836 0.0318293 0.0
0.145645 0.0254924 0.0
0.320192 0.0167556 0.0
0.553004 0.00669734 0.0
0.841018 0.000575702 0.0
-0.00702844 -2.04214e-05 0.0
-0.0175354 -0.000206442 0.0
-0.0253362 -0.000584943 0.0
-0.0311196 -0.00106815 0.0
-0.0355892 -0.00163759 0.0
-0.0393369 -0.00225298 0.0
-0.0428468 -0.00288904 0.0
-0.0464814 -0.00351904 0.0
-0.0505014 -0.00411772 0.0
-0.0550888 -0.00465589 0.0
-0.0603722 -0.00509768 0.0
-0.0664444 -0.00539634 0.0
-0.0733733 -0.00549103 0.0
-0.0812024 -0.00530391 0.0
-0.089941 -0.0047386 0.0
-0.0995401 -0.00368184 0.0
-0.109849 -0.00201159 0.0
-0.120548 0.000386852 0.0
-0.13099 0.00358559 0.0
-0.140036 0.00756796 0.0
-0.145813 0.0121747 0.0
-0.145396 0.0170393 0.0
-0.134498 0.0215368 0.0
-0.107271 0.0248409 0.0
-0.0562959 0.0260233 0.0
0.0271173 0.0244129 0.0
0.152359 0.0197699 0.0
0.328489 0.0129605 0.0
0.560385 0.00507594 0.0
0.844052 0.000378308 0.0
-0.00686121 -4.75051e-05 0.0
-0.0171059 -0.000423301 0.0
-0.02471 -0.00116089 0.0
-0.0303527 -0.00208469 0.0
-0.0347271 -0.00316887 0.0
-0.0384157 -0.00435149 0.0
-0.0418958 -0.00560357 0.0
-0.0455262 -0.00689673 0.0
-0.0495685 -0.00820861 0.0
-0.0542099 -0.00951353 0.0
-0.0595885 -0.0107786 0.0
-0.0658116 -0.0119578 0.0
-0.0729654 -0.0129862 0.0
-0.0811155 -0.013775 0.0
-0.0902941 -0.014207 0.0
-0.100471 -0.0141355 0.0
-0.111502 -0.0133898 0.0
-0.123037 -0.0117969 0.0
-0.134376 -0.00921636 0.0
-0.144268 -0.00558843 0.0
-0.150658 -0.00101124 0.0
-0.150358 0.00419182 0.0
-0.13883 0.00940505 0.0
-0.110086 0.0137943 0.0
-0.05677 0.0163657 0.0
0.0294149 0.0163935 0.0
0.157183 0.0136486 0.0
0.334738 0.00893868 0.0
0.565905 0.00335154 0.0
0.846206 0.000149829 0.0
-0.00657602 -7.51515e-05 0.0
-0.0163945 -0.000640649 0.0
-0.0236868 -0.00173498 0.0
-0.0291069 -0.00309528 0.0
-0.0333241 -0.00468957 0.0
-0.0369012 -0.00643612 0.0
-0.0403014 -0.0083043 0.0
-0.0438757 -0.0102663 0.0
-0.0478839 -0.0123053 0.0
-0.052518 -0.0144021 0.0
-0.057927 -0.0165308 0.0
-0.0642358 -0.01865 0.0
-0.071555 -0.0206959 0.0
-0.0799806 -0.022574 0.0
-0.0895798 -0.0241509 0.0
-0.100357 -0.0252494 0.0
-0.11219 -0.0256506 0.0
-0.124722 -0.0251113 0.0
-0.1372 -0.0234021 0.0
-0.148247 -0.0203688 0.0
-0.1556 -0.0160263 0.0
-0.155826 -0.0106381 0.0
-0.144126 -0.00477136 0.0
-0.114254 0.00074103 0.0
-0.0588662 0.0048902 0.0
0.0298424 0.00688535 0.0
0.159874 0.00640469 0.0
0.338699 0.00417323 0.0
0.569362 0.00127582 0.0
0.847364 -0.000156081 0.0
-0.00617338 -0.000102812 0.0
-0.0154048 -0.000853719 0.0
-0.0222734 -0.00229451 0.0
-0.0273912 -0.00407772 0.0
-0.0313889 -0.00616667 0.0
-0.0347999 -0.00846237 0.0
-0.0380657 -0.0109347 0.0
-0.0415248 -0.013559 0.0
-0.0454322 -0.0163268 0.0
-0.0499837 -0.0192293 0.0
-0.0553397 -0.0222519 0.0
-0.061645 -0.0253645 0.0
-0.0690394 -0.0285119 0.0
-0.0776581 -0.0316026 0.0
-0.0876157 -0.0344965 0.0
-0.0989683 -0.0369949 0.0
-0.111638 -0.0388364 0.0
-0.125286 -0.0397083 0.0
-0.139122 -0.0392837 0.0
-0.151653 -0.0372883 0.0
-0.1604 -0.0336026 0.0
-0.16163 -0.028367 0.0
-0.150227 -0.0220641 0.0
-0.119774 -0.0154838 0.0
-0.0629187 -0.00960792 0.0
0.0278971 -0.00527892 0.0
0.159908 -0.00297431 0.0
0.339877 -0.00204123 0.0
0.570291 -0.00144035 0.0
0.847226 -0.000573159 0.0
-0.00565674 -0.000129778 0.0
-0.0141479 -0.00105633 0.0
-0.0204866 -0.00282305 0.0
-0.0252258 -0.00500345 0.0
-0.0289429 -0.00755776 0.0
-0.0321319 -0.0103728 0.0
-0.0352051 -0.013421 0.0
-0.0384832 -0.0166835 0.0
-0.0422133 -0.020163 0.0
-0.0465922 -0.023865 0.0
-0.0517908 -0.027792 0.0
-0.0579744 -0.0319324 0.0
-0.0653151 -0.0362499 0.0
-0.0739935 -0.040669 0.0
-0.0841842 -0.0450592 0.0
-0.0960132 -0.0492174 0.0
-0.109472 -0.0528563 0.0
-0.124272 -0.0556066 0.0
-0.13962 -0.0570454 0.0
-0.153933 -0.0567612 0.0
-0.164532 -0.0544559 0.0
-0.167383 -0.0500628 0.0
-0.157017 -0.0438481 0.0
-0.126721 -0.0364187 0.0
-0.0690583 -0.028694 0.0
0.0232442 -0.0215135 0.0
0.156606 -0.0156164 0.0
0.337258 -0.0104819 0.0
0.567712 -0.00516379 0.0
0.845345 -0.00116955 0.0
-0.00503333 -0.000155058 0.0
-0.0126441 -0.00124022 0.0
-0.0183557 -0.00329895 0.0
-0.0226458 -0.00583506 0.0
-0.026024 -0.00880746 0.0
-0.0289352 -0.0120923 0.0
-0.0317557 -0.0156664 0.0
-0.0347826 -0.0195185 0.0
-0.0382508 -0.0236651 0.0
-0.0423544 -0.0281294 0.0
-0.0472717 -0.0329366 0.0
-0.053186 -0.038102 0.0
-0.0603011 -0.0436201 0.0
-0.0688463 -0.0494487 0.0
-0.0790639 -0.0554886 0.0
-0.0911667 -0.0615606 0.0
-0.105243 -0.0673825 0.0
-0.121092 -0.072558 0.0
-0.137965 -0.0765888 0.0
-0.154247 -0.0789241 0.0
-0.167111 -0.0790493 0.0
-0.172262 -0.0765995 0.0
-0.163894 -0.0714706 0.0
-0.134952 -0.0638696 0.0
-0.0777834 -0.0544065 0.0
0.0149249 -0.043719 0.0
0.148823 -0.0330136 0.0
0.329638 -0.0222099 0.0
0.560494 -0.0104535 0.0
0.841038 -0.00207726 0.0
-0.00431529 -0.000177218 0.0
-0.0109253 -0.00139411 0.0
-0.015926 -0.00369318 0.0
-0.0197048 -0.00652306 0.0
-0.0226907 -0.00984305 0.0
-0.0252713 -0.0135225 0.0
-0.0277796 -0.0175436 0.0
-0.0304842 -0.0219039 0.0
-0.0336024 -0.0266345 0.0
-0.0373203 -0.0317791 0.0
-0.0418176 -0.0373897 0.0
-0.0472898 -0.043516 0.0
-0.0539667 -0.0501959 0.0
-0.0621223 -0.0574391 0.0
-0.0720682 -0.0652064 0.0
-0.0841135 -0.07338 0.0
-0.0984675 -0.0817306 0.0
-0.115057 -0.0898873 0.0
-0.133247 -0.0973245 0.0
-0.151471 -0.103378 0.0
-0.166864 -0.107302 0.0
-0.174982 -0.108347 0.0
-0.169767 -0.105863 0.0
-0.143833 -0.099392 0.0
-0.0891679 -0.0888413 0.0
0.00196013 -0.0744302 0.0
0.134964 -0.0573936 0.0
0.315071 -0.0389396 0.0
0.546713 -0.0182223 0.0
0.833149 -0.00351151 0.0
-0.00352244 -0.000193942 0.0
-0.0090406 -0.00150215 0.0
-0.0132653 -0.00396665 0.0
-0.0164826 -0.00700208 0.0
-0.0190307 -0.0105696 0.0
-0.0212336 -0.0145359 0.0
-0.0233759 -0.018888 0.0
-0.0256924 -0.0236318 0.0
-0.0283765 -0.0288127 0.0
-0.0316001 -0.0344946 0.0
-0.0355357 -0.0407579 0.0
-0.0403806 -0.0476916 0.0
-0.0463785 -0.0553864 0.0
-0.0538355 -0.063922 0.0
-0.0631217 -0.0733483 0.0
-0.0746396 -0.0836541 0.0
-0.0887312 -0.0947256 0.0
-0.105491 -0.106296 0.0
-0.124467 -0.117897 0.0
-0.144266 -0.128823 0.0
-0.162146 -0.138125 0.0
-0.173714 -0.144628 0.0
-0.172861 -0.146981 0.0
-0.151996 -0.143773 0.0
-0.102657 -0.133715 0.0
-0.0163267 -0.11621 0.0
0.113249 -0.0915512 0.0
0.29111 -0.0630705 0.0
0.523726 -0.0299648 0.0
0.819924 -0.00589328 0.0
-0.00268349 -0.000201798 0.0
-0.00705859 -0.00154322 0.0
-0.0104664 -0.00406893 0.0
-0.0130869 -0.00718934 0.0
-0.0151623 -0.0108682 0.0
-0.0169504 -0.0149731 0.0
-0.0186838 -0.0194942 0.0
-0.0205585 -0.0244436 0.0
-0.0227388 -0.0298774 0.0
-0.025374 -0.0358767 0.0
-0.0286194 -0.0425475 0.0
-0.0326598 -0.0500172 0.0
-0.037734 -0.0584321 0.0
-0.044157 -0.0679523 0.0
-0.052331 -0.0787392 0.0
-0.0627282 -0.090931 0.0
-0.0758138 -0.104599 0.0
-0.0918702 -0.119678 0.0
-0.110701 -0.135883 0.0
-0.131224 -0.152598 0.0
-0.151045 -0.168785 0.0
-0.16612 -0.18289 0.0
-0.170629 -0.192806 0.0
-0.157097 -0.195939 0.0
-0.116745 -0.189351 0.0
-0.040009 -0.170845 0.0
0.0815885 -0.138681 0.0
0.254225 -0.0980154 0.0
0.487297 -0.0483593 0.0
0.798091 -0.0101713 0.0
-0.00184436 -0.000194963 0.0
-0.00507997 -0.00148897 0.0
-0.00766234 -0.00393774 0.0
-0.00967115 -0.00698551 0.0
-0.0112557 -0.0105976 0.0
-0.012609 -0.0146458 0.0
-0.01391 -0.0191197 0.0
-0.0153132 -0.0240335 0.0
-0.0169485 -0.0294481 0.0
-0.0189356 -0.0354545 0.0
-0.0214017 -0.0421765 0.0
-0.0245037 -0.0497703 0.0
-0.0284525 -0.0584292 0.0
-0.0335391 -0.0683881 0.0
-0.0401553 -0.0799242 0.0
-0.0487943 -0.0933471 0.0
-0.0599997 -0.108966 0.0
-0.0742242 -0.127019 0.0
-0.0915657 -0.147554 0.0
-0.111385 -0.170252 0.0
-0.131879 -0.194212 0.0
-0.149713 -0.217727 0.0
-0.159824 -0.238087 0.0
-0.155364 -0.251527 0.0
-0.127698 -0.253249 0.0
-0.0664065 -0.238655 0.0
0.0407139 -0.202223 0.0
0.202588 -0.148556 0.0
0.433355 -0.0781116 0.0
0.763002 -0.0183687 0.0
-0.00106131 -0.000166934 0.0
-0.00322272 -0.0013109 0.0
-0.00500539 -0.00351222 0.0
-0.00640825 -0.00629284 0.0
-0.00750163 -0.00961649 0.0
-0.00841975 -0.0133615 0.0
-0.00928941 -0.0175125 0.0
-0.0102216 -0.0220807 0.0
-0.0113087 -0.0271242 0.0
-0.0126352 -0.0327338 0.0
-0.0142919 -0.0390365 0.0
-0.0163935 -0.046199 0.0
-0.0191001 -0.0544384 0.0