# vtk DataFile Version 3.0
Malha 2D com triângulos e temperatura
ASCII
DATASET UNSTRUCTURED_GRID

POINTS 961 double
0 0 0
1 0 0
1 1 0
0 1 0
0.0333333 0 0
0.0666667 0 0
0.1 0 0
0.133333 0 0
0.166667 0 0
0.2 0 0
0.233333 0 0
0.266667 0 0
0.3 0 0
0.333333 0 0
0.366667 0 0
0.4 0 0
0.433333 0 0
0.466667 0 0
0.5 0 0
0.533333 0 0
0.566667 0 0
0.6 0 0
0.633333 0 0
0.666667 0 0
0.7 0 0
0.733333 0 0
0.766667 0 0
0.8 0 0
0.833333 0 0
0.866667 0 0
0.9 0 0
0.933333 0 0
0.966667 0 0
1 0.0333333 0
1 0.0666667 0
1 0.1 0
1 0.133333 0
1 0.166667 0
1 0.2 0
1 0.233333 0
1 0.266667 0
1 0.3 0
1 0.333333 0
1 0.366667 0
1 0.4 0
1 0.433333 0
1 0.466667 0
1 0.5 0
1 0.533333 0
1 0.566667 0
1 0.6 0
1 0.633333 0
1 0.666667 0
1 0.7 0
1 0.733333 0
1 0.766667 0
1 0.8 0
1 0.833333 0
1 0.866667 0
1 0.9 0
1 0.933333 0
1 0.966667 0
0.966667 1 0
0.933333 1 0
0.9 1 0
0.866667 1 0
0.833333 1 0
0.8 1 0
0.766667 1 0
0.733333 1 0
0.7 1 0
0.666667 1 0
0.633333 1 0
0.6 1 0
0.566667 1 0
0.533333 1 0
0.5 1 0
0.466667 1 0
0.433333 1 0
0.4 1 0
0.366667 1 0
0.333333 1 0
0.3 1 0
0.266667 1 0
0.233333 1 0
0.2 1 0
0.166667 1 0
0.133333 1 0
0.1 1 0
0.0666667 1 0
0.0333333 1 0
0 0.966667 0
0 0.933333 0
0 0.9 0
0 0.866667 0
0 0.833333 0
0 0.8 0
0 0.766667 0
0 0.733333 0
0 0.7 0
0 0.666667 0
0 0.633333 0
0 0.6 0
0 0.566667 0
0 0.533333 0
0 0.5 0
0 0.466667 0
0 0.433333 0
0 0.4 0
0 0.366667 0
0 0.333333 0
0 0.3 0
0 0.266667 0
0 0.233333 0
0 0.2 0
0 0.166667 0
0 0.133333 0
0 0.1 0
0 0.0666667 0
0 0.0333333 0
0.0333333 0.0333333 0
0.0333333 0.0666667 0
0.0333333 0.1 0
0.0333333 0.133333 0
0.0333333 0.166667 0
0.0333333 0.2 0
0.0333333 0.233333 0
0.0333333 0.266667 0
0.0333333 0.3 0
0.0333333 0.333333 0
0.0333333 0.366667 0
0.0333333 0.4 0
0.0333333 0.433333 0
0.0333333 0.466667 0
0.0333333 0.5 0
0.0333333 0.533333 0
0.0333333 0.566667 0
0.0333333 0.6 0
0.0333333 0.633333 0
0.0333333 0.666667 0
0.0333333 0.7 0
0.0333333 0.733333 0
0.0333333 0.766667 0
0.0333333 0.8 0
0.0333333 0.833333 0
0.0333333 0.866667 0
0.0333333 0.9 0
0.0333333 0.933333 0
0.0333333 0.966667 0
0.0666667 0.0333333 0
0.0666667 0.0666667 0
0.0666667 0.1 0
0.0666667 0.133333 0
0.0666667 0.166667 0
0.0666667 0.2 0
0.0666667 0.233333 0
0.0666667 0.266667 0
0.0666667 0.3 0
0.0666667 0.333333 0
0.0666667 0.366667 0
0.0666667 0.4 0
0.0666667 0.433333 0
0.0666667 0.466667 0
0.0666667 0.5 0
0.0666667 0.533333 0
0.0666667 0.566667 0
0.0666667 0.6 0
0.0666667 0.633333 0
0.0666667 0.666667 0
0.0666667 0.7 0
0.0666667 0.733333 0
0.0666667 0.766667 0
0.0666667 0.8 0
0.0666667 0.833333 0
0.0666667 0.866667 0
0.0666667 0.9 0
0.0666667 0.933333 0
0.0666667 0.966667 0
0.1 0.0333333 0
0.1 0.0666667 0
0.1 0.1 0
0.1 0.133333 0
0.1 0.166667 0
0.1 0.2 0
0.1 0.233333 0
0.1 0.266667 0
0.1 0.3 0
0.1 0.333333 0
0.1 0.366667 0
0.1 0.4 0
0.1 0.433333 0
0.1 0.466667 0
0.1 0.5 0
0.1 0.533333 0
0.1 0.566667 0
0.1 0.6 0
0.1 0.633333 0
0.1 0.666667 0
0.1 0.7 0
0.1 0.733333 0
0.1 0.766667 0
0.1 0.8 0
0.1 0.833333 0
0.1 0.866667 0
0.1 0.9 0
0.1 0.933333 0
0.1 0.966667 0
0.133333 0.0333333 0
0.133333 0.0666667 0
0.133333 0.1 0
0.133333 0.133333 0
0.133333 0.166667 0
0.133333 0.2 0
0.133333 0.233333 0
0.133333 0.266667 0
0.133333 0.3 0
0.133333 0.333333 0
0.133333 0.366667 0
0.133333 0.4 0
0.133333 0.433333 0
0.133333 0.466667 0
0.133333 0.5 0
0.133333 0.533333 0
0.133333 0.566667 0
0.133333 0.6 0
0.133333 0.633333 0
0.133333 0.666667 0
0.133333 0.7 0
0.133333 0.733333 0
0.133333 0.766667 0
0.133333 0.8 0
0.133333 0.833333 0
0.133333 0.866667 0
0.133333 0.9 0
0.133333 0.933333 0
0.133333 0.966667 0
0.166667 0.0333333 0
0.166667 0.0666667 0
0.166667 0.1 0
0.166667 0.133333 0
0.166667 0.166667 0
0.166667 0.2 0
0.166667 0.233333 0
0.166667 0.266667 0
0.166667 0.3 0
0.166667 0.333333 0
0.166667 0.366667 0
0.166667 0.4 0
0.166667 0.433333 0
0.166667 0.466667 0
0.166667 0.5 0
0.166667 0.533333 0
0.166667 0.566667 0
0.166667 0.6 0
0.166667 0.633333 0
0.166667 0.666667 0
0.166667 0.7 0
0.166667 0.733333 0
0.166667 0.766667 0
0.166667 0.8 0
0.166667 0.833333 0
0.166667 0.866667 0
0.166667 0.9 0
0.166667 0.933333 0
0.166667 0.966667 0
0.2 0.0333333 0
0.2 0.0666667 0
0.2 0.1 0
0.2 0.133333 0
0.2 0.166667 0
0.2 0.2 0
0.2 0.233333 0
0.2 0.266667 0
0.2 0.3 0
0.2 0.333333 0
0.2 0.366667 0
0.2 0.4 0
0.2 0.433333 0
0.2 0.466667 0
0.2 0.5 0
0.2 0.533333 0
0.2 0.566667 0
0.2 0.6 0
0.2 0.633333 0
0.2 0.666667 0
0.2 0.7 0
0.2 0.733333 0
0.2 0.766667 0
0.2 0.8 0
0.2 0.833333 0
0.2 0.866667 0
0.2 0.9 0
0.2 0.933333 0
0.2 0.966667 0
0.233333 0.0333333 0
0.233333 0.0666667 0
0.233333 0.1 0
0.233333 0.133333 0
0.233333 0.166667 0
0.233333 0.2 0
0.233333 0.233333 0
0.233333 0.266667 0
0.233333 0.3 0
0.233333 0.333333 0
0.233333 0.366667 0
0.233333 0.4 0
0.233333 0.433333 0
0.233333 0.466667 0
0.233333 0.5 0
0.233333 0.533333 0
0.233333 0.566667 0
0.233333 0.6 0
0.233333 0.633333 0
0.233333 0.666667 0
0.233333 0.7 0
0.233333 0.733333 0
0.233333 0.766667 0
0.233333 0.8 0
0.233333 0.833333 0
0.233333 0.866667 0
0.233333 0.9 0
0.233333 0.933333 0
0.233333 0.966667 0
0.266667 0.0333333 0
0.266667 0.0666667 0
0.266667 0.1 0
0.266667 0.133333 0
0.266667 0.166667 0
0.266667 0.2 0
0.266667 0.233333 0
0.266667 0.266667 0
0.266667 0.3 0
0.266667 0.333333 0
0.266667 0.366667 0
0.266667 0.4 0
0.266667 0.433333 0
0.266667 0.466667 0
0.266667 0.5 0
0.266667 0.533333 0
0.266667 0.566667 0
0.266667 0.6 0
0.266667 0.633333 0
0.266667 0.666667 0
0.266667 0.7 0
0.266667 0.733333 0
0.266667 0.766667 0
0.266667 0.8 0
0.266667 0.833333 0
0.266667 0.866667 0
0.266667 0.9 0
0.266667 0.933333 0
0.266667 0.966667 0
0.3 0.0333333 0
0.3 0.0666667 0
0.3 0.1 0
0.3 0.133333 0
0.3 0.166667 0
0.3 0.2 0
0.3 0.233333 0
0.3 0.266667 0
0.3 0.3 0
0.3 0.333333 0
0.3 0.366667 0
0.3 0.4 0
0.3 0.433333 0
0.3 0.466667 0
0.3 0.5 0
0.3 0.533333 0
0.3 0.566667 0
0.3 0.6 0
0.3 0.633333 0
0.3 0.666667 0
0.3 0.7 0
0.3 0.733333 0
0.3 0.766667 0
0.3 0.8 0
0.3 0.833333 0
0.3 0.866667 0
0.3 0.9 0
0.3 0.933333 0
0.3 0.966667 0
0.333333 0.0333333 0
0.333333 0.0666667 0
0.333333 0.1 0
0.333333 0.133333 0
0.333333 0.166667 0
0.333333 0.2 0
0.333333 0.233333 0
0.333333 0.266667 0
0.333333 0.3 0
0.333333 0.333333 0
0.333333 0.366667 0
0.333333 0.4 0
0.333333 0.433333 0
0.333333 0.466667 0
0.333333 0.5 0
0.333333 0.533333 0
0.333333 0.566667 0
0.333333 0.6 0
0.333333 0.633333 0
0.333333 0.666667 0
0.333333 0.7 0
0.333333 0.733333 0
0.333333 0.766667 0
0.333333 0.8 0
0.333333 0.833333 0
0.333333 0.866667 0
0.333333 0.9 0
0.333333 0.933333 0
0.333333 0.966667 0
0.366667 0.0333333 0
0.366667 0.0666667 0
0.366667 0.1 0
0.366667 0.133333 0
0.366667 0.166667 0
0.366667 0.2 0
0.366667 0.233333 0
0.366667 0.266667 0
0.366667 0.3 0
0.366667 0.333333 0
0.366667 0.366667 0
0.366667 0.4 0
0.366667 0.433333 0
0.366667 0.466667 0
0.366667 0.5 0
0.366667 0.533333 0
0.366667 0.566667 0
0.366667 0.6 0
0.366667 0.633333 0
0.366667 0.666667 0
0.366667 0.7 0
0.366667 0.733333 0
0.366667 0.766667 0
0.366667 0.8 0
0.366667 0.833333 0
0.366667 0.866667 0
0.366667 0.9 0
0.366667 0.933333 0
0.366667 0.966667 0
0.4 0.0333333 0
0.4 0.0666667 0
0.4 0.1 0
0.4 0.133333 0
0.4 0.166667 0
0.4 0.2 0
0.4 0.233333 0
0.4 0.266667 0
0.4 0.3 0
0.4 0.333333 0
0.4 0.366667 0
0.4 0.4 0
0.4 0.433333 0
0.4 0.466667 0
0.4 0.5 0
0.4 0.533333 0
0.4 0.566667 0
0.4 0.6 0
0.4 0.633333 0
0.4 0.666667 0
0.4 0.7 0
0.4 0.733333 0
0.4 0.766667 0
0.4 0.8 0
0.4 0.833333 0
0.4 0.866667 0
0.4 0.9 0
0.4 0.933333 0
0.4 0.966667 0
0.433333 0.0333333 0
0.433333 0.0666667 0
0.433333 0.1 0
0.433333 0.133333 0
0.433333 0.166667 0
0.433333 0.2 0
0.433333 0.233333 0
0.433333 0.266667 0
0.433333 0.3 0
0.433333 0.333333 0
0.433333 0.366667 0
0.433333 0.4 0
0.433333 0.433333 0
0.433333 0.466667 0
0.433333 0.5 0
0.433333 0.533333 0
0.433333 0.566667 0
0.433333 0.6 0
0.433333 0.633333 0
0.433333 0.666667 0
0.433333 0.7 0
0.433333 0.733333 0
0.433333 0.766667 0
0.433333 0.8 0
0.433333 0.833333 0
0.433333 0.866667 0
0.433333 0.9 0
0.433333 0.933333 0
0.433333 0.966667 0
0.466667 0.0333333 0
0.466667 0.0666667 0
0.466667 0.1 0
0.466667 0.133333 0
0.466667 0.166667 0
0.466667 0.2 0
0.466667 0.233333 0
0.466667 0.266667 0
0.466667 0.3 0
0.466667 0.333333 0
0.466667 0.366667 0
0.466667 0.4 0
0.466667 0.433333 0
0.466667 0.466667 0
0.466667 0.5 0
0.466667 0.533333 0
0.466667 0.566667 0
0.466667 0.6 0
0.466667 0.633333 0
0.466667 0.666667 0
0.466667 0.7 0
0.466667 0.733333 0
0.466667 0.766667 0
0.466667 0.8 0
0.466667 0.833333 0
0.466667 0.866667 0
0.466667 0.9 0
0.466667 0.933333 0
0.466667 0.966667 0
0.5 0.0333333 0
0.5 0.0666667 0
0.5 0.1 0
0.5 0.133333 0
0.5 0.166667 0
0.5 0.2 0
0.5 0.233333 0
0.5 0.266667 0
0.5 0.3 0
0.5 0.333333 0
0.5 0.366667 0
0.5 0.4 0
0.5 0.433333 0
0.5 0.466667 0
0.5 0.5 0
0.5 0.533333 0
0.5 0.566667 0
0.5 0.6 0
0.5 0.633333 0
0.5 0.666667 0
0.5 0.7 0
0.5 0.733333 0
0.5 0.766667 0
0.5 0.8 0
0.5 0.833333 0
0.5 0.866667 0
0.5 0.9 0
0.5 0.933333 0
0.5 0.966667 0
0.533333 0.0333333 0
0.533333 0.0666667 0
0.533333 0.1 0
0.533333 0.133333 0
0.533333 0.166667 0
0.533333 0.2 0
0.533333 0.233333 0
0.533333 0.266667 0
0.533333 0.3 0
0.533333 0.333333 0
0.533333 0.366667 0
0.533333 0.4 0
0.533333 0.433333 0
0.533333 0.466667 0
0.533333 0.5 0
0.533333 0.533333 0
0.533333 0.566667 0
0.533333 0.6 0
0.533333 0.633333 0
0.533333 0.666667 0
0.533333 0.7 0
0.533333 0.733333 0
0.533333 0.766667 0
0.533333 0.8 0
0.533333 0.833333 0
0.533333 0.866667 0
0.533333 0.9 0
0.533333 0.933333 0
0.533333 0.966667 0
0.566667 0.0333333 0
0.566667 0.0666667 0
0.566667 0.1 0
0.566667 0.133333 0
0.566667 0.166667 0
0.566667 0.2 0
0.566667 0.233333 0
0.566667 0.266667 0
0.566667 0.3 0
0.566667 0.333333 0
0.566667 0.366667 0
0.566667 0.4 0
0.566667 0.433333 0
0.566667 0.466667 0
0.566667 0.5 0
0.566667 0.533333 0
0.566667 0.566667 0
0.566667 0.6 0
0.566667 0.633333 0
0.566667 0.666667 0
0.566667 0.7 0
0.566667 0.733333 0
0.566667 0.766667 0
0.566667 0.8 0
0.566667 0.833333 0
0.566667 0.866667 0
0.566667 0.9 0
0.566667 0.933333 0
0.566667 0.966667 0
0.6 0.0333333 0
0.6 0.0666667 0
0.6 0.1 0
0.6 0.133333 0
[...]
CELL_DATA 900
VECTORS velocity double
6.1802e-05 -6.07349e-05 0.0
-2.95716e-05 4.23466e-05 0.0
-0.000105664 0.000464111 0.0
-0.000158374 0.00108108 0.0
-0.000186668 0.00184866 0.0
-0.000203452 0.00270724 0.0
-0.000215838 0.00363943 0.0
-0.000228827 0.00463865 0.0
-0.00024473 0.00571252 0.0
-0.000264785 0.00687438 0.0
-0.000289685 0.00814245 0.0
-0.000320098 0.00953852 0.0
-0.000356907 0.0110885 0.0
-0.000401437 0.0128235 0.0
-0.000455742 0.0147822 0.0
-0.000523113 0.0170143 0.0
-0.000609034 0.0195858 0.0
-0.000723034 0.0225879 0.0
-0.000882193 0.0261508 0.0
-0.00111791 0.0304667 0.0
-0.00148873 0.0358248 0.0
-0.0021059 0.0426678 0.0
-0.00318225 0.051683 0.0
-0.00513146 0.0639341 0.0
-0.0087173 0.0811676 0.0
-0.0152595 0.10583 0.0
-0.0258545 0.142803 0.0
-0.0380509 0.190433 0.0
-0.013215 0.263259 0.0
0.21704 0.174231 0.0
-4.4219e-05 3.32876e-05 0.0
-0.00054542 0.000546612 0.0
-0.000969653 0.00168054 0.0
-0.00128818 0.0031917 0.0
-0.00150393 0.00502356 0.0
-0.00166167 0.00707586 0.0
-0.00179534 0.00931687 0.0
-0.00193102 0.0117343 0.0
-0.00208489 0.0143432 0.0
-0.00226761 0.017172 0.0
-0.00248703 0.0202614 0.0
-0.00275066 0.0236608 0.0
-0.00306744 0.0274301 0.0
-0.00344948 0.0316415 0.0
-0.00391403 0.036384 0.0
-0.00448642 0.04177 0.0
-0.00520452 0.0479448 0.0
-0.00612575 0.055101 0.0
-0.0073374 0.0634967 0.0
-0.00897162 0.0734795 0.0
-0.0112252 0.0855091 0.0
-0.0143862 0.10017 0.0
-0.018862 0.118139 0.0
-0.0252208 0.140052 0.0
-0.0341405 0.166179 0.0
-0.0462373 0.195447 0.0
-0.0597546 0.224186 0.0
-0.06549 0.240205 0.0
-0.00249693 0.21896 0.0
0.305811 0.116695 0.0
-0.000467705 0.000108283 0.0
-0.00167531 0.000949081 0.0
-0.00267244 0.00262014 0.0
-0.00342849 0.00475415 0.0
-0.00397263 0.00729564 0.0
-0.00439059 0.0101253 0.0
-0.00475632 0.0132096 0.0
-0.0051277 0.0165365 0.0
-0.00554388 0.0201265 0.0
-0.00603182 0.0240171 0.0
-0.00661215 0.0282601 0.0
-0.00730443 0.0329191 0.0
-0.0081313 0.0380695 0.0
-0.00912227 0.0438008 0.0
-0.0103181 0.0502207 0.0
-0.0117764 0.0574609 0.0
-0.0135797 0.0656849 0.0
-0.0158458 0.0750976 0.0
-0.0187402 0.0859557 0.0
-0.0224873 0.0985739 0.0
-0.0273715 0.113316 0.0
-0.0337127 0.13055 0.0
-0.0417785 0.150522 0.0
-0.0515954 0.173095 0.0
-0.0624406 0.197163 0.0
-0.0718238 0.219824 0.0
-0.0717108 0.234025 0.0
-0.0405087 0.228666 0.0
0.0917733 0.173204 0.0
0.477061 0.0771788 0.0
-0.00106726 0.000155897 0.0
-0.00313284 0.00121376 0.0
-0.00477635 0.00323117 0.0
-0.00600858 0.00574354 0.0
-0.00691316 0.00869899 0.0
-0.00762386 0.011969 0.0
-0.00825729 0.0155238 0.0
-0.00890377 0.0193533 0.0
-0.00962586 0.0234818 0.0
-0.0104673 0.0279503 0.0
-0.0114617 0.0328144 0.0
-0.0126405 0.0381412 0.0
-0.0140392 0.0440084 0.0
-0.0157025 0.0505064 0.0
-0.0176903 0.0577399 0.0
-0.0200846 0.0658315 0.0
-0.022998 0.074925 0.0
-0.0265829 0.0851879 0.0
-0.0310385 0.0968095 0.0
-0.0366077 0.109989 0.0
-0.0435443 0.124898 0.0
-0.0520236 0.141602 0.0
-0.0619368 0.159877 0.0
-0.072509 0.178934 0.0
-0.081516 0.196793 0.0
-0.083842 0.209789 0.0
-0.0676418 0.210481 0.0
-0.00564005 0.190241 0.0
0.16632 0.127756 0.0
0.57564 0.0491152 0.0
-0.00177926 0.00017398 0.0
-0.00481544 0.00133631 0.0
-0.00715964 0.00352507 0.0
-0.00889447 0.00621529 0.0
-0.0101779 0.00935555 0.0
-0.0111991 0.0128122 0.0
-0.0121201 0.0165589 0.0
-0.0130641 0.0205876 0.0
-0.0141169 0.0249241 0.0
-0.0153383 0.0296096 0.0
-0.0167741 0.0346984 0.0
-0.0184662 0.0402544 0.0
-0.0204604 0.0463496 0.0
-0.0228127 0.0530647 0.0
-0.0255961 0.060489 0.0
-0.0289069 0.0687209 0.0
-0.032872 0.077867 0.0
-0.0376542 0.0880386 0.0
-0.0434499 0.0993406 0.0
-0.0504662 0.11185 0.0
-0.0588519 0.125565 0.0
-0.0685411 0.140318 0.0
-0.0789421 0.15559 0.0
-0.088394 0.170276 0.0
-0.0931964 0.182122 0.0
-0.0859701 0.187527 0.0
-0.0520752 0.179893 0.0
0.0377497 0.15303 0.0
0.237601 0.0935573 0.0
0.646722 0.0306269 0.0
-0.00252173 0.000175831 0.0
-0.00656864 0.00136093 0.0
-0.00962382 0.00358489 0.0
-0.011857 0.0063001 0.0
-0.0135112 0.00945475 0.0
-0.0148358 0.0129141 0.0
-0.0160396 0.0166544 0.0
-0.0172775 0.0206686 0.0
-0.0186567 0.0249827 0.0
-0.0202515 0.0296354 0.0
-0.0221174 0.0346772 0.0
-0.0243039 0.0401651 0.0
-0.0268632 0.0461617 0.0
-0.0298574 0.0527334 0.0
-0.0333644 0.0599494 0.0
-0.0374835 0.0678798 0.0
-0.0423402 0.0765912 0.0
-0.0480859 0.0861392 0.0
-0.0548857 0.0965535 0.0
-0.0628766 0.107811 0.0
-0.0720657 0.119784 0.0
-0.0821194 0.132159 0.0
-0.0919708 0.144266 0.0
-0.0991671 0.154908 0.0
-0.098806 0.16187 0.0
-0.0819014 0.162002 0.0
-0.0323014 0.149765 0.0
0.078514 0.121696 0.0
0.296416 0.069171 0.0
0.696409 0.0192453 0.0
-0.00325596 0.000168438 0.0
-0.00830792 0.00132025 0.0
-0.0120604 0.00348175 0.0
-0.0147757 0.00611192 0.0
-0.0167843 0.00915939 0.0
-0.0183978 0.0124924 0.0
-0.0198709 0.0160892 0.0
-0.0213893 0.0199434 0.0
-0.0230798 0.0240795 0.0
-0.0250288 0.0285332 0.0
-0.0272993 0.0333493 0.0
-0.0299457 0.0385772 0.0
-0.0330229 0.0442685 0.0
-0.036594 0.0504749 0.0
-0.0407353 0.057246 0.0
-0.0455404 0.0646253 0.0
-0.0511218 0.0726445 0.0
-0.0576055 0.0813137 0.0
-0.065109 0.0906056 0.0
-0.0736837 0.100429 0.0
-0.0831849 0.110579 0.0
-0.0930176 0.12067 0.0
-0.101683 0.129991 0.0
-0.106052 0.137379 0.0
-0.100272 0.140813 0.0
-0.074234 0.137696 0.0
-0.0111089 0.123474 0.0
0.115929 0.0965872 0.0
0.345177 0.051588 0.0
0.731905 0.0121943 0.0
-0.00395287 0.000156701 0.0
-0.00996582 0.00123912 0.0
-0.0143799 0.00327096 0.0
-0.0175487 0.00573873 0.0
-0.0198872 0.00859322 0.0
-0.0217682 0.0117097 0.0
-0.0234908 0.0150684 0.0
-0.025269 0.0186636 0.0
-0.0272475 0.0225179 0.0
-0.0295226 0.0266633 0.0
-0.0321628 0.0311393 0.0
-0.0352247 0.0359873 0.0
-0.0387628 0.0412489 0.0
-0.0428371 0.0469629 0.0
-0.0475173 0.0531621 0.0
-0.0528851 0.0598685 0.0
-0.0590324 0.0670871 0.0
-0.0660519 0.0747955 0.0
-0.0740065 0.0829281 0.0
-0.0828584 0.0913524 0.0
-0.0923172 0.099826 0.0
-0.101551 0.10794 0.0
-0.10869 0.114995 0.0
-0.110053 0.119925 0.0
-0.0990641 0.120941 0.0
-0.0648475 0.115976 0.0
0.00959227 0.101262 0.0
0.148701 0.0768121 0.0
0.384908 0.0388851 0.0
0.75766 0.00783724 0.0
-0.00459691 0.000142569 0.0
-0.011501 0.00113144 0.0
-0.0165255 0.00298686 0.0
-0.0201104 0.00523709 0.0
-0.0227498 0.00783692 0.0
-0.0248741 0.0106722 0.0
-0.0268235 0.0137257 0.0
-0.0288383 0.0169926 0.0
-0.0310787 0.0204939 0.0
-0.0336493 0.024258 0.0
-0.0366223 0.0283192 0.0
-0.0400543 0.0327125 0.0
-0.0439975 0.0374712 0.0
-0.0485061 0.0426238 0.0
-0.0536397 0.0481906 0.0
-0.0594642 0.0541786 0.0
-0.0660475 0.0605749 0.0
-0.0734454 0.0673369 0.0
-0.081665 0.0743776 0.0
-0.0905823 0.081545 0.0
-0.0997732 0.0885849 0.0
-0.108198 0.0950944 0.0
-0.11367 0.100419 0.0
-0.112059 0.103603 0.0
-0.0962497 0.1031 0.0
-0.0548809 0.0972435 0.0
0.0287041 0.0831614 0.0
0.176986 0.0613916 0.0
0.417203 0.0296668 0.0
0.776668 0.00513566 0.0
-0.00517667 0.000126852 0.0
-0.0128827 0.00100488 0.0
-0.0184542 0.00264971 0.0
-0.0224105 0.00464141 0.0
-0.0253177 0.00694036 0.0
-0.0276585 0.00944594 0.0
-0.0298105 0.0121442 0.0
-0.0320374 0.0150321 0.0
-0.0345127 0.0181288 0.0
-0.0373478 0.0214602 0.0
-0.0406172 0.0250561 0.0
-0.0443766 0.0289466 0.0
-0.0486741 0.033159 0.0
-0.0535566 0.037715 0.0
-0.0590724 0.042627 0.0
-0.0652698 0.0478934 0.0
-0.0721913 0.0534918 0.0
-0.0798558 0.0593703 0.0
-0.0882164 0.0654341 0.0
-0.0970692 0.0715272 0.0
-0.10587 0.0774006 0.0
-0.113398 0.0826735 0.0
-0.117201 0.0867474 0.0
-0.112787 0.0887741 0.0
-0.0926384 0.0874355 0.0
-0.0451356 0.0813697 0.0
0.0459304 0.0684322 0.0
0.201186 0.0493356 0.0
0.443462 0.0229112 0.0
0.790946 0.00344636 0.0
-0.00568382 0.000109701 0.0
-0.0140884 0.000863263 0.0
-0.020134 0.00227087 0.0
-0.0244114 0.00397192 0.0
-0.0275501 0.00593365 0.0
-0.0300791 0.0080714 0.0
-0.0324087 0.0103752 0.0
-0.0348227 0.0128443 0.0
-0.0375063 0.015497 0.0
-0.0405762 0.0183568 0.0
-0.0441083 0.0214508 0.0
-0.0481568 0.0248053 0.0
-0.0527655 0.0284444 0.0
-0.0579737 0.0323862 0.0
-0.0638177 0.0366401 0.0
-0.0703288 0.0412018 0.0
-0.0775244 0.0460472 0.0
-0.0853881 0.0511243 0.0
-0.0938227 0.056341 0.0
-0.102551 0.0615484 0.0
-0.110922 0.0665134 0.0
-0.117555 0.070884 0.0
-0.119773 0.0741185 0.0
-0.112791 0.0754627 0.0
-0.0887932 0.0737898 0.0
-0.0360522 0.0679723 0.0
0.0611423 0.0564072 0.0
0.221742 0.0398563 0.0
0.464845 0.0179013 0.0
0.801851 0.00237724 0.0
-0.00611105 9.11217e-05 0.0
-0.0150994 0.000708737 0.0
-0.0215388 0.00185725 0.0
-0.0260823 0.00324143 0.0
-0.0294135 0.00483626 0.0
-0.0321011 0.00657497 0.0
-0.0345827 0.0084522 0.0
-0.037159 0.0104701 0.0
-0.0400248 0.0126465 0.0
-0.0433012 0.0150035 0.0
-0.0470654 0.0175661 0.0
-0.0513699 0.0203591 0.0
-0.0562547 0.0234053 0.0
-0.0617522 0.0267229 0.0
-0.0678879 0.0303224 0.0
-0.074677 0.0342024 0.0
-0.0821142 0.0383441 0.0
-0.0901504 0.0427031 0.0
-0.0986418 0.0471985 0.0
-0.107245 0.0516969 0.0
-0.115209 0.0559868 0.0
-0.121013 0.0597472 0.0
-0.121783 0.0624866 0.0
-0.112493 0.0635269 0.0
-0.0851083 0.0618917 0.0
-0.0278854 0.0566276 0.0
0.0743659 0.0465245 0.0
0.239102 0.0323374 0.0
0.482288 0.014133 0.0
0.810308 0.00168902 0.0
-0.00645192 7.11045e-05 0.0
-0.0159001 0.000542811 0.0
-0.0226469 0.00141381 0.0
-0.0273977 0.00245929 0.0
-0.0308806 0.00366257 0.0
-0.0336958 0.00497623 0.0
-0.0363031 0.00639991 0.0
-0.0390168 0.00793919 0.0
-0.0420393 0.00961172 0.0
-0.0454954 0.0114387 0.0
-0.0494636 0.0134443 0.0
-0.0539957 0.0156529 0.0
-0.059129 0.0180885 0.0
-0.0648904 0.0207721 0.0
-0.0712971 0.0237195 0.0
-0.0783505 0.0269374 0.0
-0.0860254 0.0304181 0.0
-0.0942433 0.0341321 0.0
-0.102818 0.0380168 0.0
-0.111342 0.0419609 0.0
-0.118976 0.0457786 0.0
-0.124063 0.0491786 0.0
-0.123556 0.0517107 0.0
-0.112223 0.0527526 0.0
-0.0818643 0.051438 0.0
-0.0207837 0.0469372 0.0
0.0856875 0.0383187 0.0
0.253677 0.0263004 0.0
0.496538 0.0112489 0.0
0.816951 0.00123489 0.0
-0.00670059 4.96995e-05 0.0
-0.0164769 0.000366913 0.0
-0.0234402 0.000944982 0.0
-0.0283366 0.0016337 0.0
-0.0319281 0.00242508 0.0
-0.034839 0.00329205 0.0
-0.037545 0.00423944 0.0
-0.0403705 0.00527644 0.0
-0.0435239 0.00642068 0.0
-0.0471333 0.00769293 0.0
-0.0512791 0.00911683 0.0
-0.0560137 0.0107179 0.0
-0.0613735 0.0125228 0.0
-0.0673828 0.014558 0.0
-0.0740529 0.016848 0.0
-0.0813757 0.0194122 0.0
-0.0893094 0.02226 0.0
-0.0977501 0.0253831 0.0
-0.106472 0.0287443 0.0
-0.115009 0.0322605 0.0
-0.12243 0.0357753 0.0
-0.126953 0.0390252 0.0
-0.125361 0.0415911 0.0
-0.112243 0.0428866 0.0
-0.0792708 0.0421172 0.0
-0.0148387 0.0385343 0.0
0.0952077 0.0313966 0.0
0.265815 0.0213681 0.0
0.508171 0.00899082 0.0
0.822218 0.000923911 0.0
-0.00685201 2.70155e-05 0.0
-0.0168188 0.0001826 0.0
-0.0239036 0.000455314 0.0
-0.0288815 0.000772882 0.0
-0.0325373 0.00113612 0.0
-0.0355104 0.0015389 0.0
-0.038287 0.00199114 0.0
-0.0411979 0.00250552 0.0
-0.0444554 0.00309951 0.0
-0.0481913 0.00379331 0.0
-0.0524882 0.00461043 0.0
-0.0574013 0.00557799 0.0
-0.0629686 0.00672666 0.0
-0.0692152 0.0080902 0.0
-0.0761509 0.00970481 0.0
-0.0837622 0.0116067 0.0
-0.0919963 0.0138276 0.0
-0.100728 0.0163876 0.0
-0.109696 0.0192815 0.0
-0.118377 0.022462 0.0
-0.125744 0.0258064 0.0
-0.129887 0.0290781 0.0
-0.127423 0.0318803 0.0
-0.112768 0.0336429 0.0
-0.0774956 0.0336086 0.0
-0.0101161 0.0310714 0.0
0.103018 0.0254118 0.0
0.275803 0.0172296 0.0
0.517624 0.00716359 0.0
0.826407 0.000697833 0.0
-0.00690181 3.22444e-06 0.0
-0.0169167 -8.34001e-06 0.0
-0.0240254 -5.02452e-05 0.0
-0.029019 -0.000114394 0.0
-0.0326932 -0.000191289 0.0
-0.0356938 -0.000265939 0.0
-0.0385111 -0.000323815 0.0
-0.0414783 -0.000349171 0.0
-0.0448109 -0.000325283 0.0
-0.0486434 -0.000232825 0.0
-0.0530628 -4.86505e-05 0.0
-0.0581291 0.000255708 0.0
-0.0638849 0.000715144 0.0
-0.0703604 0.00137199 0.0
-0.0775692 0.00227617 0.0
-0.0854989 0.00348407 0.0
-0.0940914 0.00505503 0.0
-0.103206 0.00704393 0.0
-0.112549 0.0094864 0.0
-0.121537 0.0123808 0.0
-0.12905 0.0156446 0.0
-0.133034 0.0190688 0.0
-0.129932 0.0222733 0.0
-0.113986 0.0246875 0.0
-0.076686 0.0255606 0.0
-0.00667801 0.0241936 0.0
0.109181 0.0200319 0.0
0.283847 0.0136069 0.0
0.525204 0.00560738 0.0
0.829712 0.000516468 0.0
-0.00684704 -2.14604e-05 0.0
-0.0167645 -0.000204041 0.0
-0.0237979 -0.000566444 0.0
-0.0287401 -0.00101853 0.0
-0.0323857 -0.00154256 0.0
-0.0353776 -0.00210291 0.0
-0.0382035 -0.00268125 0.0
-0.041196 -0.00325965 0.0
-0.0445713 -0.00382305 0.0
-0.0484673 -0.00435401 0.0
-0.052976 -0.00483071 0.0
-0.0581642 -0.0052243 0.0
-0.0640838 -0.00549627 0.0
-0.0707749 -0.00559584 0.0
-0.0782614 -0.00545849 0.0
-0.0865394 -0.00500511 0.0
-0.0955547 -0.0041439 0.0
-0.105159 -0.00277706 0.0
-0.115034 -0.000817215 0.0
-0.124542 0.00178733 0.0
-0.13244 0.00499995 0.0
-0.136525 0.00865358 0.0
-0.133048 0.0123855 0.0
-0.11607 0.01561 0.0
-0.076995 0.0175551 0.0
-0.00461091 0.0174952 0.0
0.113708 0.0148946 0.0
0.290064 0.010215 0.0
0.531098 0.00417129 0.0
0.832238 0.000347553 0.0
-0.00668519 -4.67833e-05 0.0
-0.0163584 -0.000402236 0.0
-0.0232169 -0.00108701 0.0
-0.0280405 -0.00192827 0.0
-0.0316096 -0.00290084 0.0
-0.0345547 -0.00394949 0.0
-0.0373543 -0.00505328 0.0
-0.0403363 -0.00619338 0.0
-0.0437164 -0.00735774 0.0
-0.0476355 -0.00853241 0.0
-0.0521923 -0.00969877 0.0
-0.057463 -0.0108292 0.0
-0.0635127 -0.0118833 0.0
-0.0703973 -0.0128038 0.0
-0.0781589 -0.0135124 0.0
-0.0868124 -0.0139066 0.0
-0.0963184 -0.0138591 0.0
-0.106532 -0.0132227 0.0
-0.117113 -0.0118469 0.0
-0.127356 -0.00961548 0.0
-0.135922 -0.00649467 0.0
-0.140432 -0.00260276 0.0
-0.136899 0.00171912 0.0
-0.119163 0.00586873 0.0
-0.0785539 0.00905052 0.0
-0.00402626 0.0104708 0.0
0.116534 0.00956106 0.0
0.294453 0.00672014 0.0
0.535343 0.00268809 0.0
0.833999 0.000158996 0.0
-0.00641561 -7.24104e-05 0.0
-0.0156981 -0.000599985 0.0
-0.0222833 -0.00160414 0.0
-0.0269218 -0.00283014 0.0
-0.030366 -0.00424635 0.0
-0.0332243 -0.00577945 0.0
-0.0359596 -0.00740727 0.0
-0.038891 -0.00911162 0.0
-0.0422318 -0.0108852 0.0
-0.0461256 -0.0127197 0.0
-0.0506784 -0.014602 0.0
-0.0559787 -0.0165091 0.0
-0.0621082 -0.0184023 0.0
-0.0691447 -0.0202214 0.0
-0.0771575 -0.0218783 0.0
-0.086192 -0.0232498 0.0
-0.0962384 -0.0241736 0.0
-0.107172 -0.0244493 0.0
-0.118645 -0.0238538 0.0
-0.129896 -0.0221795 0.0
-0.13946 -0.0192982 0.0
-0.144748 -0.0152543 0.0
-0.141532 -0.01036 0.0
-0.123427 -0.00521979 0.0
-0.0816125 -0.000694384 0.0
-0.00510881 0.00238202 0.0
0.117514 0.00341199 0.0
0.296879 0.00267178 0.0
0.537825 0.000942632 0.0
0.834925 -8.7258e-05 0.0
-0.00603917 -9.79264e-05 0.0
-0.0147878 -0.000793749 0.0
-0.0210037 -0.0021085 0.0
-0.0253919 -0.00370798 0.0
-0.0286628 -0.00555527 0.0
-0.0313927 -0.00756089 0.0
-0.0340223 -0.00970298 0.0
-0.036858 -0.0119658 0.0
-0.040108 -0.0143488 0.0
-0.0439182 -0.0168516 0.0
-0.0484021 -0.0194704 0.0
-0.0536618 -0.0221906 0.0
-0.0597991 -0.0249808 0.0
-0.0669195 -0.0277846 0.0
-0.0751282 -0.0305109 0.0
-0.0845144 -0.0330234 0.0
-0.0951161 -0.03513 0.0
-0.10685 -0.0365789 0.0
-0.119383 -0.0370686 0.0
-0.131915 -0.0362848 0.0
-0.142856 -0.0339742 0.0
-0.149383 -0.0300562 0.0
-0.146947 -0.0247492 0.0
-0.128851 -0.0186392 0.0
-0.0861579 -0.0126466 0.0
-0.00813345 -0.00766861 0.0
0.116259 -0.00434631 0.0
0.296929 -0.00252624 0.0
0.538145 -0.00133688 0.0
0.834768 -0.000431907 0.0
-0.00555883 -0.000122854 0.0
-0.0136363 -0.000979207 0.0
-0.0193914 -0.00258858 0.0
-0.0234667 -0.00454182 0.0
-0.0265164 -0.00679806 0.0
-0.0290753 -0.00925402 0.0
-0.031555 -0.0118897 0.0
-0.0342449 -0.0146935 0.0
-0.0373457 -0.0176737 0.0
-0.0410035 -0.0208408 0.0
-0.0453387 -0.0242038 0.0
-0.0504673 -0.0277622 0.0
-0.0565128 -0.0314987 0.0
-0.0636128 -0.0353701 0.0
-0.0719163 -0.0392941 0.0
-0.0815697 -0.0431342 0.0
-0.0926792 -0.0466824 0.0
-0.10523 -0.0496465 0.0
-0.118936 -0.0516507 0.0
-0.132991 -0.0522664 0.0
-0.145695 -0.0510865 0.0
-0.153988 -0.0478517 0.0
-0.152965 -0.0425992 0.0
-0.135547 -0.0357769 0.0
-0.0925585 -0.0282363 0.0
-0.0133855 -0.0209638 0.0
0.112366 -0.0147359 0.0
0.293946 -0.00958968 0.0
0.535568 -0.00450231 0.0
0.833148 -0.000945626 0.0
-0.00498013 -0.000146577 0.0
-0.0122592 -0.00115071 0.0
-0.0174685 -0.00302936 0.0
-0.0211723 -0.0053057 0.0
-0.0239547 -0.00793635 0.0
-0.0262998 -0.010807 0.0
-0.0285835 -0.0139008 0.0
-0.0310738 -0.0172118 0.0
-0.0339607 -0.020759 0.0
-0.0373878 -0.0245661 0.0
-0.0414804 -0.0286589 0.0
-0.0463662 -0.0330566 0.0
-0.05219 -0.0377649 0.0
-0.0591223 -0.0427651 0.0
-0.0673615 -0.048 0.0
-0.0771224 -0.0533533 0.0
-0.088599 -0.0586255 0.0
-0.101876 -0.0635092 0.0
-0.116758 -0.0675758 0.0
-0.132478 -0.0702905 0.0
-0.147277 -0.0710757 0.0
-0.157887 -0.069435 0.0
-0.159048 -0.0651114 0.0
-0.143249 -0.0582433 0.0
-0.100974 -0.0493969 0.0
-0.0215611 -0.0394743 0.0
0.104868 -0.0293516 0.0
0.286883 -0.0196332 0.0
0.529083 -0.00912167 0.0
0.829439 -0.00175739 0.0
-0.00431187 -0.000168202 0.0
-0.0106799 -0.00130032 0.0
-0.0152684 -0.00340999 0.0
-0.0185479 -0.00596398 0.0
-0.0210198 -0.00891785 0.0
-0.0231093 -0.0121494 0.0
-0.0251508 -0.0156456 0.0
-0.0273864 -0.0194073 0.0
-0.0299914 -0.0234647 0.0
-0.0331032 -0.027857 0.0
-0.0368477 -0.0326297 0.0
-0.0413605 -0.037827 0.0
-0.046803 -0.043486 0.0
-0.0533755 -0.0496259 0.0
-0.0613249 -0.056234 0.0
-0.0709396 -0.0632418 0.0
-0.0825169 -0.0704949 0.0
-0.0962715 -0.0777154 0.0
-0.112147 -0.0844686 0.0
-0.129485 -0.0901515 0.0
-0.146552 -0.0940263 0.0
-0.159966 -0.095316 0.0
-0.164188 -0.0933429 0.0
-0.151299 -0.0877029 0.0
-0.111349 -0.0783319 0.0
-0.0333463 -0.065716 0.0
0.0924494 -0.0505345 0.0
0.274035 -0.0344619 0.0
0.516927 -0.0161665 0.0
0.822542 -0.00309733 0.0
-0.00356843 -0.000186079 0.0
-0.00893512 -0.00141583 0.0
-0.0128411 -0.0036999 0.0
-0.0156519 -0.0064655 0.0
-0.0177751 -0.00966851 0.0
-0.019571 -0.0131822 0.0
-0.0213271 -0.0169972 0.0
-0.0232552 -0.021121 0.0
-0.025512 -0.0255947 0.0
-0.0282237 -0.0304732 0.0
-0.0315113 -0.0358228 0.0
-0.0355108 -0.0417164 0.0
-0.0403917 -0.0482287 0.0
-0.0463745 -0.0554291 0.0
-0.053745 -0.0633692 0.0
-0.0628595 -0.0720607 0.0
-0.0741215 -0.0814419 0.0
-0.0878962 -0.0913296 0.0
-0.104314 -0.101363 0.0
-0.122912 -0.110954 0.0
-0.14211 -0.119265 0.0
-0.158577 -0.12524 0.0
-0.166688 -0.127677 0.0
-0.158279 -0.125373 0.0
-0.12298 -0.117183 0.0
-0.0491697 -0.102615 0.0
0.073559 -0.0813901 0.0
0.253096 -0.0567074 0.0
0.496512 -0.0272529 0.0
0.810694 -0.00541597 0.0
-0.00277095 -0.000197383 0.0
-0.00707675 -0.00147883 0.0
-0.0102569 -0.00385469 0.0
-0.0125649 -0.00673751 0.0
-0.0143081 -0.0100842 0.0
-0.0157782 -0.0137669 0.0
-0.0172121 -0.0177786 0.0
-0.0187878 -0.0221318 0.0
-0.0206384 -0.0268765 0.0
-0.0228741 -0.0320809 0.0
-0.0256033 -0.0378309 0.0
-0.0289531 -0.0442272 0.0
-0.0330882 -0.051384 0.0
-0.0382321 -0.0594274 0.0
-0.044689 -0.0684882 0.0
-0.0528605 -0.0786875 0.0
-0.0632382 -0.0901073 0.0
-0.076336 -0.10274 0.0
-0.0925028 -0.11641 0.0
-0.11156 -0.130683 0.0
-0.132246 -0.14476 0.0
-0.151542 -0.157396 0.0
-0.164072 -0.166851 0.0
-0.161803 -0.170921 0.0
-0.134202 -0.166939 0.0
-0.0689557 -0.152687 0.0
0.0463313 -0.125637 0.0
0.220626 -0.0900907 0.0
0.463573 -0.0451987 0.0
0.790539 -0.00969145 0.0
-0.00195681 -0.000196436 0.0
-0.00518767 -0.00146079 0.0
-0.00762414 -0.00381109 0.0
-0.00941059 -0.00667924 0.0
-0.0107542 -0.0100227 0.0
-0.011878 -0.0137153 0.0
-0.0129666 -0.0177498 0.0
-0.0141612 -0.0221408 0.0
-0.0155676 -0.0269428 0.0
-0.0172746 -0.0322325 0.0
-0.0193712 -0.0381097 0.0
-0.0219648 -0.0446964 0.0
-0.0251998 -0.0521406 0.0
-0.02928 -0.0606201 0.0
-0.0344961 -0.0703466 0.0
-0.0412532 -0.081564 0.0
-0.0500836 -0.0945348 0.0
-0.061608 -0.109502 0.0
-0.0763841 -0.126607 0.0
-0.0945756 -0.145756 0.0
-0.11541 -0.166426 0.0
-0.136497 -0.187424 0.0
-0.153178 -0.206647 0.0
-0.158126 -0.220908 0.0
-0.141235 -0.225814 0.0
-0.0898581 -0.216557 0.0
0.0111948 -0.18732 0.0
0.174423 -0.139745 0.0
0.413768 -0.0748768 0.0
0.757219 -0.0179807 0.0
-0.00117434 -0.000175853 0.0
-0.00337004 -0.00132747 0.0
-0.00507317 -0.00349468 0.0
-0.0063346 -0.00617152 0.0
-0.0072716 -0.00931344 0.0
-0.00804257 -0.0127989 0.0
-0.00878003 -0.0166167 0.0
-0.00958647 -0.0207795 0.0
-0.0105378 -0.0253408 0.0
-0.0116972 -0.0303781 0.0