# vtk DataFile Version 3.0
Malha 2D com triângulos e temperatura
ASCII
DATASET UNSTRUCTURED_GRID

POINTS 961 double
0 0 0
1 0 0
1 1 0
0 1 0
0.0333333 0 0
0.0666667 0 0
0.1 0 0
0.133333 0 0
0.166667 0 0
0.2 0 0
0.233333 0 0
0.266667 0 0
0.3 0 0
0.333333 0 0
0.366667 0 0
0.4 0 0
0.433333 0 0
0.466667 0 0
0.5 0 0
0.533333 0 0
0.566667 0 0
0.6 0 0
0.633333 0 0
0.666667 0 0
0.7 0 0
0.733333 0 0
0.766667 0 0
0.8 0 0
0.833333 0 0
0.866667 0 0
0.9 0 0
0.933333 0 0
0.966667 0 0
1 0.0333333 0
1 0.0666667 0
1 0.1 0
1 0.133333 0
1 0.166667 0
1 0.2 0
1 0.233333 0
1 0.266667 0
1 0.3 0
1 0.333333 0
1 0.366667 0
1 0.4 0
1 0.433333 0
1 0.466667 0
1 0.5 0
1 0.533333 0
1 0.566667 0
1 0.6 0
1 0.633333 0
1 0.666667 0
1 0.7 0
1 0.733333 0
1 0.766667 0
1 0.8 0
1 0.833333 0
1 0.866667 0
1 0.9 0
1 0.933333 0
1 0.966667 0
0.966667 1 0
0.933333 1 0
0.9 1 0
0.866667 1 0
0.833333 1 0
0.8 1 0
0.766667 1 0
0.733333 1 0
0.7 1 0
0.666667 1 0
0.633333 1 0
0.6 1 0
0.566667 1 0
0.533333 1 0
0.5 1 0
0.466667 1 0
0.433333 1 0
0.4 1 0
0.366667 1 0
0.333333 1 0
0.3 1 0
0.266667 1 0
0.233333 1 0
0.2 1 0
0.166667 1 0
0.133333 1 0
0.1 1 0
0.0666667 1 0
0.0333333 1 0
0 0.966667 0
0 0.933333 0
0 0.9 0
0 0.866667 0
0 0.833333 0
0 0.8 0
0 0.766667 0
0 0.733333 0
0 0.7 0
0 0.666667 0
0 0.633333 0
0 0.6 0
0 0.566667 0
0 0.533333 0
0 0.5 0
0 0.466667 0
0 0.433333 0
0 0.4 0
0 0.366667 0
0 0.333333 0
0 0.3 0
0 0.266667 0
0 0.233333 0
0 0.2 0
0 0.166667 0
0 0.133333 0
0 0.1 0
0 0.0666667 0
0 0.0333333 0
0.0333333 0.0333333 0
0.0333333 0.0666667 0
0.0333333 0.1 0
0.0333333 0.133333 0
0.0333333 0.166667 0
0.0333333 0.2 0
0.0333333 0.233333 0
0.0333333 0.266667 0
0.0333333 0.3 0
0.0333333 0.333333 0
0.0333333 0.366667 0
0.0333333 0.4 0
0.0333333 0.433333 0
0.0333333 0.466667 0
0.0333333 0.5 0
0.0333333 0.533333 0
0.0333333 0.566667 0
0.0333333 0.6 0
0.0333333 0.633333 0
0.0333333 0.666667 0
0.0333333 0.7 0
0.0333333 0.733333 0
0.0333333 0.766667 0
0.0333333 0.8 0
0.0333333 0.833333 0
0.0333333 0.866667 0
0.0333333 0.9 0
0.0333333 0.933333 0
0.0333333 0.966667 0
0.0666667 0.0333333 0
0.0666667 0.0666667 0
0.0666667 0.1 0
0.0666667 0.133333 0
0.0666667 0.166667 0
0.0666667 0.2 0
0.0666667 0.233333 0
0.0666667 0.266667 0
0.0666667 0.3 0
0.0666667 0.333333 0
0.0666667 0.366667 0
0.0666667 0.4 0
0.0666667 0.433333 0
0.0666667 0.466667 0
0.0666667 0.5 0
0.0666667 0.533333 0
0.0666667 0.566667 0
0.0666667 0.6 0
0.0666667 0.633333 0
0.0666667 0.666667 0
0.0666667 0.7 0
0.0666667 0.733333 0
0.0666667 0.766667 0
0.0666667 0.8 0
0.0666667 0.833333 0
0.0666667 0.866667 0
0.0666667 0.9 0
0.0666667 0.933333 0
0.0666667 0.966667 0
0.1 0.0333333 0
0.1 0.0666667 0
0.1 0.1 0
0.1 0.133333 0
0.1 0.166667 0
0.1 0.2 0
0.1 0.233333 0
0.1 0.266667 0
0.1 0.3 0
0.1 0.333333 0
0.1 0.366667 0
0.1 0.4 0
0.1 0.433333 0
0.1 0.466667 0
0.1 0.5 0
0.1 0.533333 0
0.1 0.566667 0
0.1 0.6 0
0.1 0.633333 0
0.1 0.666667 0
0.1 0.7 0
0.1 0.733333 0
0.1 0.766667 0
0.1 0.8 0
0.1 0.833333 0
0.1 0.866667 0
0.1 0.9 0
0.1 0.933333 0
0.1 0.966667 0
0.133333 0.0333333 0
0.133333 0.0666667 0
0.133333 0.1 0
0.133333 0.133333 0
0.133333 0.166667 0
0.133333 0.2 0
0.133333 0.233333 0
0.133333 0.266667 0
0.133333 0.3 0
0.133333 0.333333 0
0.133333 0.366667 0
0.133333 0.4 0
0.133333 0.433333 0
0.133333 0.466667 0
0.133333 0.5 0
0.133333 0.533333 0
0.133333 0.566667 0
0.133333 0.6 0
0.133333 0.633333 0
0.133333 0.666667 0
0.133333 0.7 0
0.133333 0.733333 0
0.133333 0.766667 0
0.133333 0.8 0
0.133333 0.833333 0
0.133333 0.866667 0
0.133333 0.9 0
0.133333 0.933333 0
0.133333 0.966667 0
0.166667 0.0333333 0
0.166667 0.0666667 0
0.166667 0.1 0
0.166667 0.133333 0
0.166667 0.166667 0
0.166667 0.2 0
0.166667 0.233333 0
0.166667 0.266667 0
0.166667 0.3 0
0.166667 0.333333 0
0.166667 0.366667 0
0.166667 0.4 0
0.166667 0.433333 0
0.166667 0.466667 0
0.166667 0.5 0
0.166667 0.533333 0
0.166667 0.566667 0
0.166667 0.6 0
0.166667 0.633333 0
0.166667 0.666667 0
0.166667 0.7 0
0.166667 0.733333 0
0.166667 0.766667 0
0.166667 0.8 0
0.166667 0.833333 0
0.166667 0.866667 0
0.166667 0.9 0
0.166667 0.933333 0
0.166667 0.966667 0
0.2 0.0333333 0
0.2 0.0666667 0
0.2 0.1 0
0.2 0.133333 0
0.2 0.166667 0
0.2 0.2 0
0.2 0.233333 0
0.2 0.266667 0
0.2 0.3 0
0.2 0.333333 0
0.2 0.366667 0
0.2 0.4 0
0.2 0.433333 0
0.2 0.466667 0
0.2 0.5 0
0.2 0.533333 0
0.2 0.566667 0
0.2 0.6 0
0.2 0.633333 0
0.2 0.666667 0
0.2 0.7 0
0.2 0.733333 0
0.2 0.766667 0
0.2 0.8 0
0.2 0.833333 0
0.2 0.866667 0
0.2 0.9 0
0.2 0.933333 0
0.2 0.966667 0
0.233333 0.0333333 0
0.233333 0.0666667 0
0.233333 0.1 0
0.233333 0.133333 0
0.233333 0.166667 0
0.233333 0.2 0
0.233333 0.233333 0
0.233333 0.266667 0
0.233333 0.3 0
0.233333 0.333333 0
0.233333 0.366667 0
0.233333 0.4 0
0.233333 0.433333 0
0.233333 0.466667 0
0.233333 0.5 0
0.233333 0.533333 0
0.233333 0.566667 0
0.233333 0.6 0
0.233333 0.633333 0
0.233333 0.666667 0
0.233333 0.7 0
0.233333 0.733333 0
0.233333 0.766667 0
0.233333 0.8 0
0.233333 0.833333 0
0.233333 0.866667 0
0.233333 0.9 0
0.233333 0.933333 0
0.233333 0.966667 0
0.266667 0.0333333 0
0.266667 0.0666667 0
0.266667 0.1 0
0.266667 0.133333 0
0.266667 0.166667 0
0.266667 0.2 0
0.266667 0.233333 0
0.266667 0.266667 0
0.266667 0.3 0
0.266667 0.333333 0
0.266667 0.366667 0
0.266667 0.4 0
0.266667 0.433333 0
0.266667 0.466667 0
0.266667 0.5 0
0.266667 0.533333 0
0.266667 0.566667 0
0.266667 0.6 0
0.266667 0.633333 0
0.266667 0.666667 0
0.266667 0.7 0
0.266667 0.733333 0
0.266667 0.766667 0
0.266667 0.8 0
0.266667 0.833333 0
0.266667 0.866667 0
0.266667 0.9 0
0.266667 0.933333 0
0.266667 0.966667 0
0.3 0.0333333 0
0.3 0.0666667 0
0.3 0.1 0
0.3 0.133333 0
0.3 0.166667 0
0.3 0.2 0
0.3 0.233333 0
0.3 0.266667 0
0.3 0.3 0
0.3 0.333333 0
0.3 0.366667 0
0.3 0.4 0
0.3 0.433333 0
0.3 0.466667 0
0.3 0.5 0
0.3 0.533333 0
0.3 0.566667 0
0.3 0.6 0
0.3 0.633333 0
0.3 0.666667 0
0.3 0.7 0
0.3 0.733333 0
0.3 0.766667 0
0.3 0.8 0
0.3 0.833333 0
0.3 0.866667 0
0.3 0.9 0
0.3 0.933333 0
0.3 0.966667 0
0.333333 0.0333333 0
0.333333 0.0666667 0
0.333333 0.1 0
0.333333 0.133333 0
0.333333 0.166667 0
0.333333 0.2 0
0.333333 0.233333 0
0.333333 0.266667 0
0.333333 0.3 0
0.333333 0.333333 0
0.333333 0.366667 0
0.333333 0.4 0
0.333333 0.433333 0
0.333333 0.466667 0
0.333333 0.5 0
0.333333 0.533333 0
0.333333 0.566667 0
0.333333 0.6 0
0.333333 0.633333 0
0.333333 0.666667 0
0.333333 0.7 0
0.333333 0.733333 0
0.333333 0.766667 0
0.333333 0.8 0
0.333333 0.833333 0
0.333333 0.866667 0
0.333333 0.9 0
0.333333 0.933333 0
0.333333 0.966667 0
0.366667 0.0333333 0
0.366667 0.0666667 0
0.366667 0.1 0
0.366667 0.133333 0
0.366667 0.166667 0
0.366667 0.2 0
0.366667 0.233333 0
0.366667 0.266667 0
0.366667 0.3 0
0.366667 0.333333 0
0.366667 0.366667 0
0.366667 0.4 0
0.366667 0.433333 0
0.366667 0.466667 0
0.366667 0.5 0
0.366667 0.533333 0
0.366667 0.566667 0
0.366667 0.6 0
0.366667 0.633333 0
0.366667 0.666667 0
0.366667 0.7 0
0.366667 0.733333 0
0.366667 0.766667 0
0.366667 0.8 0
0.366667 0.833333 0
0.366667 0.866667 0
0.366667 0.9 0
0.366667 0.933333 0
0.366667 0.966667 0
0.4 0.0333333 0
0.4 0.0666667 0
0.4 0.1 0
0.4 0.133333 0
0.4 0.166667 0
0.4 0.2 0
0.4 0.233333 0
0.4 0.266667 0
0.4 0.3 0
0.4 0.333333 0
0.4 0.366667 0
0.4 0.4 0
0.4 0.433333 0
0.4 0.466667 0
0.4 0.5 0
0.4 0.533333 0
0.4 0.566667 0
0.4 0.6 0
0.4 0.633333 0
0.4 0.666667 0
0.4 0.7 0
0.4 0.733333 0
0.4 0.766667 0
0.4 0.8 0
0.4 0.833333 0
0.4 0.866667 0
0.4 0.9 0
0.4 0.933333 0
0.4 0.966667 0
0.433333 0.0333333 0
0.433333 0.0666667 0
0.433333 0.1 0
0.433333 0.133333 0
0.433333 0.166667 0
0.433333 0.2 0
0.433333 0.233333 0
0.433333 0.266667 0
0.433333 0.3 0
0.433333 0.333333 0
0.433333 0.366667 0
0.433333 0.4 0
0.433333 0.433333 0
0.433333 0.466667 0
0.433333 0.5 0
0.433333 0.533333 0
0.433333 0.566667 0
0.433333 0.6 0
0.433333 0.633333 0
0.433333 0.666667 0
0.433333 0.7 0
0.433333 0.733333 0
0.433333 0.766667 0
0.433333 0.8 0
0.433333 0.833333 0
0.433333 0.866667 0
0.433333 0.9 0
0.433333 0.933333 0
0.433333 0.966667 0
0.466667 0.0333333 0
0.466667 0.0666667 0
0.466667 0.1 0
0.466667 0.133333 0
0.466667 0.166667 0
0.466667 0.2 0
0.466667 0.233333 0
0.466667 0.266667 0
0.466667 0.3 0
0.466667 0.333333 0
0.466667 0.366667 0
0.466667 0.4 0
0.466667 0.433333 0
0.466667 0.466667 0
0.466667 0.5 0
0.466667 0.533333 0
0.466667 0.566667 0
0.466667 0.6 0
0.466667 0.633333 0
0.466667 0.666667 0
0.466667 0.7 0
0.466667 0.733333 0
0.466667 0.766667 0
0.466667 0.8 0
0.466667 0.833333 0
0.466667 0.866667 0
0.466667 0.9 0
0.466667 0.933333 0
0.466667 0.966667 0
0.5 0.0333333 0
0.5 0.0666667 0
0.5 0.1 0
0.5 0.133333 0
0.5 0.166667 0
0.5 0.2 0
0.5 0.233333 0
0.5 0.266667 0
0.5 0.3 0
0.5 0.333333 0
0.5 0.366667 0
0.5 0.4 0
0.5 0.433333 0
0.5 0.466667 0
0.5 0.5 0
0.5 0.533333 0
0.5 0.566667 0
0.5 0.6 0
0.5 0.633333 0
0.5 0.666667 0
0.5 0.7 0
0.5 0.733333 0
0.5 0.766667 0
0.5 0.8 0
0.5 0.833333 0
0.5 0.866667 0
0.5 0.9 0
0.5 0.933333 0
0.5 0.966667 0
0.533333 0.0333333 0
0.533333 0.0666667 0
0.533333 0.1 0
0.533333 0.133333 0
0.533333 0.166667 0
0.533333 0.2 0
0.533333 0.233333 0
0.533333 0.266667 0
0.533333 0.3 0
0.533333 0.333333 0
0.533333 0.366667 0
0.533333 0.4 0
0.533333 0.433333 0
0.533333 0.466667 0
0.533333 0.5 0
0.533333 0.533333 0
0.533333 0.566667 0
0.533333 0.6 0
0.533333 0.633333 0
0.533333 0.666667 0
0.533333 0.7 0
0.533333 0.733333 0
0.533333 0.766667 0
0.533333 0.8 0
0.533333 0.833333 0
0.533333 0.866667 0
0.533333 0.9 0
0.533333 0.933333 0
0.533333 0.966667 0
0.566667 0.0333333 0
0.566667 0.0666667 0
0.566667 0.1 0
0.566667 0.133333 0
0.566667 0.166667 0
0.566667 0.2 0
0.566667 0.233333 0
0.566667 0.266667 0
0.566667 0.3 0
0.566667 0.333333 0
0.566667 0.366667 0
0.566667 0.4 0
0.566667 0.433333 0
0.566667 0.466667 0
0.566667 0.5 0
0.566667 0.533333 0
0.566667 0.566667 0
0.566667 0.6 0
0.566667 0.633333 0
0.566667 0.666667 0
0.566667 0.7 0
0.566667 0.733333 0
0.566667 0.766667 0
0.566667 0.8 0
0.566667 0.833333 0
0.566667 0.866667 0
0.566667 0.9 0
0.566667 0.933333 0
0.566667 0.966667 0
0.6 0.0333333 0
0.6 0.0666667 0
0.6 0.1 0
0.6 0.133333 0
[...]
CELL_DATA 900
VECTORS velocity double
6.80338e-05 -6.69276e-05 0.0
-1.31021e-05 8.0316e-07 0.0
-8.85786e-05 0.000371722 0.0
-0.000145892 0.000954248 0.0
-0.000180237 0.00170905 0.0
-0.000202131 0.00257799 0.0
-0.000217904 0.00353888 0.0
-0.000232687 0.00457993 0.0
-0.000249299 0.00570438 0.0
-0.000269489 0.0069229 0.0
-0.000294323 0.00825259 0.0
-0.000324694 0.00971522 0.0
-0.000361622 0.0113374 0.0
-0.000406559 0.0131518 0.0
-0.000461746 0.0151987 0.0
-0.000530771 0.0175303 0.0
-0.000619505 0.0202155 0.0
-0.000737749 0.0233485 0.0
-0.000902227 0.027061 0.0
-0.00114239 0.0315409 0.0
-0.00151201 0.0370616 0.0
-0.00211423 0.0440293 0.0
-0.00315274 0.0530689 0.0
-0.00503907 0.0651626 0.0
-0.0085554 0.0819957 0.0
-0.0150701 0.106038 0.0
-0.0257422 0.142363 0.0
-0.0381213 0.189623 0.0
-0.0134476 0.262604 0.0
0.216818 0.173972 0.0
-2.72377e-06 1.70534e-05 0.0
-0.000468024 0.000469849 0.0
-0.000899698 0.00153286 0.0
-0.0012513 0.00301211 0.0
-0.00150811 0.00486109 0.0
-0.00170349 0.00698233 0.0
-0.0018665 0.00933616 0.0
-0.00202312 0.0119009 0.0
-0.00219177 0.0146833 0.0
-0.00238591 0.0177068 0.0
-0.00261576 0.0210097 0.0
-0.00289058 0.0246421 0.0
-0.00322055 0.0286659 0.0
-0.00361876 0.0331568 0.0
-0.00410339 0.038208 0.0
-0.00470057 0.043937 0.0
-0.00544831 0.0504938 0.0
-0.006402 0.0580732 0.0
-0.00764198 0.0669291 0.0
-0.00928445 0.0773903 0.0
-0.0114977 0.0898724 0.0
-0.01453 0.104877 0.0
-0.0187526 0.122961 0.0
-0.0247362 0.144613 0.0
-0.0332487 0.17 0.0
-0.0451086 0.198077 0.0
-0.0588012 0.225436 0.0
-0.0651632 0.240307 0.0
-0.00291888 0.218573 0.0
0.30516 0.11644 0.0
-0.000376183 9.18113e-05 0.0
-0.00152746 0.000881003 0.0
-0.00255845 0.00250835 0.0
-0.00340299 0.00465724 0.0
-0.00405267 0.00728358 0.0
-0.00456898 0.0102697 0.0
-0.00501471 0.0135725 0.0
-0.00544716 0.0171684 0.0
-0.00591034 0.0210684 0.0
-0.00643768 0.0253039 0.0
-0.00705556 0.0299246 0.0
-0.00778792 0.0349951 0.0
-0.00866051 0.040594 0.0
-0.00970512 0.0468155 0.0
-0.0109641 0.0537726 0.0
-0.0124958 0.0616023 0.0
-0.0143804 0.0704717 0.0
-0.0167275 0.0805847 0.0
-0.0196816 0.0921864 0.0
-0.0234263 0.10556 0.0
-0.0281796 0.121004 0.0
-0.0341763 0.13878 0.0
-0.0416134 0.158977 0.0
-0.050531 0.181277 0.0
-0.0603912 0.204436 0.0
-0.0691009 0.22554 0.0
-0.0690972 0.237787 0.0
-0.0389432 0.230465 0.0
0.0918699 0.173589 0.0
0.476293 0.0770658 0.0
-0.000942898 0.00014433 0.0
-0.00295425 0.00117919 0.0
-0.00467748 0.00320733 0.0
-0.00606997 0.00580452 0.0
-0.00715887 0.00892941 0.0
-0.00804152 0.0124526 0.0
-0.00881773 0.0163338 0.0
-0.00957719 0.020551 0.0
-0.0103903 0.0251189 0.0
-0.0113113 0.0300728 0.0
-0.0123831 0.0354666 0.0
-0.0136443 0.041369 0.0
-0.0151352 0.0478614 0.0
-0.0169037 0.055039 0.0
-0.0190115 0.0630114 0.0
-0.0215396 0.0719053 0.0
-0.0245941 0.0818653 0.0
-0.0283103 0.0930529 0.0
-0.0328497 0.105639 0.0
-0.0383863 0.11978 0.0
-0.0450674 0.135572 0.0
-0.0529361 0.152956 0.0
-0.0617756 0.171535 0.0
-0.0708284 0.190321 0.0
-0.0781349 0.20716 0.0
-0.0791602 0.218334 0.0
-0.0627406 0.216605 0.0
-0.00191649 0.193654 0.0
0.167753 0.128964 0.0
0.575251 0.0491715 0.0
-0.00164369 0.000168597 0.0
-0.00465361 0.0013415 0.0
-0.00714259 0.00360076 0.0
-0.00912324 0.0064469 0.0
-0.0106806 0.00983713 0.0
-0.0119567 0.0136337 0.0
-0.0130921 0.0177993 0.0
-0.01421 0.0223142 0.0
-0.0154072 0.0271951 0.0
-0.0167581 0.0324783 0.0
-0.0183216 0.0382172 0.0
-0.0201491 0.0444776 0.0
-0.0222928 0.0513355 0.0
-0.0248124 0.0588757 0.0
-0.0277815 0.0671918 0.0
-0.0312929 0.076384 0.0
-0.0354616 0.0865568 0.0
-0.0404221 0.097811 0.0
-0.0463146 0.110227 0.0
-0.0532477 0.123835 0.0
-0.0612223 0.138548 0.0
-0.0699915 0.154068 0.0
-0.0788144 0.169695 0.0
-0.0860435 0.18411 0.0
-0.0883107 0.194861 0.0
-0.0789923 0.198273 0.0
-0.0443504 0.187856 0.0
0.0442126 0.157838 0.0
0.241064 0.0954655 0.0
0.647192 0.0308405 0.0
-0.00239701 0.00017557 0.0
-0.00647069 0.00140042 0.0
-0.00975116 0.00374599 0.0
-0.0123242 0.00667518 0.0
-0.0143468 0.0101426 0.0
-0.0160125 0.0140061 0.0
-0.0175054 0.0182311 0.0
-0.0189819 0.0227993 0.0
-0.0205638 0.0277284 0.0
-0.0223439 0.0330537 0.0
-0.024394 0.0388252 0.0
-0.0267754 0.0451024 0.0
-0.0295477 0.0519515 0.0
-0.0327765 0.0594431 0.0
-0.0365386 0.0676492 0.0
-0.0409265 0.0766402 0.0
-0.046047 0.0864779 0.0
-0.0520119 0.0972047 0.0
-0.058911 0.108822 0.0
-0.0667532 0.121256 0.0
-0.0753565 0.134291 0.0
-0.0841569 0.147479 0.0
-0.091895 0.159966 0.0
-0.0961216 0.170332 0.0
-0.0923293 0.176145 0.0
-0.0724502 0.174185 0.0
-0.0214508 0.158904 0.0
0.0882203 0.127353 0.0
0.302459 0.0715088 0.0
0.698093 0.0195539 0.0
-0.00315832 0.000171579 0.0
-0.00830931 0.00138385 0.0
-0.0123782 0.00370266 0.0
-0.0155315 0.00658528 0.0
-0.0180039 0.00998458 0.0
-0.0200444 0.013759 0.0
-0.0218815 0.0178761 0.0
-0.0237042 0.022319 0.0
-0.0256577 0.0271056 0.0
-0.0278507 0.0322686 0.0
-0.0303656 0.0378539 0.0
-0.0332703 0.0439135 0.0
-0.0366278 0.0505031 0.0
-0.0405036 0.057678 0.0
-0.0449713 0.0654901 0.0
-0.0501132 0.0739819 0.0
-0.0560165 0.083179 0.0
-0.0627556 0.0930764 0.0
-0.0703535 0.103617 0.0
-0.0787043 0.114655 0.0
-0.0874324 0.125897 0.0
-0.0956625 0.136821 0.0
-0.101658 0.146523 0.0
-0.102278 0.153617 0.0
-0.0921216 0.155843 0.0
-0.0621208 0.150553 0.0
0.00322655 0.13304 0.0
0.129099 0.102652 0.0
0.35406 0.0541125 0.0
0.734972 0.012539 0.0
-0.00389251 0.000161741 0.0
-0.0100889 0.00131665 0.0
-0.0149155 0.00352547 0.0
-0.0186206 0.00626426 0.0
-0.0215159 0.00948632 0.0
-0.0239068 0.0130556 0.0
-0.0260657 0.0169423 0.0
-0.0282127 0.0211313 0.0
-0.0305146 0.02564 0.0
-0.0330936 0.0304991 0.0
-0.0360404 0.0357498 0.0
-0.0394264 0.0414372 0.0
-0.0433143 0.0476074 0.0
-0.0477659 0.0543029 0.0
-0.0528454 0.0615586 0.0
-0.0586189 0.0693954 0.0
-0.0651457 0.0778113 0.0
-0.072455 0.0867679 0.0
-0.0804959 0.0961684 0.0
-0.0890433 0.105825 0.0
-0.0975342 0.115403 0.0
-0.104806 0.124355 0.0
-0.108703 0.131787 0.0
-0.105515 0.136406 0.0
-0.0891765 0.136189 0.0
-0.0499935 0.128989 0.0
0.0272964 0.111077 0.0
0.165415 0.0830354 0.0
0.396756 0.0414663 0.0
0.762162 0.00818269 0.0
-0.00457886 0.000148522 0.0
-0.0117561 0.00121484 0.0
-0.0172894 0.00325321 0.0
-0.0215054 0.00577595 0.0
-0.0247896 0.00873914 0.0
-0.0275016 0.0120168 0.0
-0.0299559 0.0155827 0.0
-0.0324015 0.0194244 0.0
-0.0350247 0.0235591 0.0
-0.0379597 0.0280156 0.0
-0.0413028 0.0328311 0.0
-0.045127 0.0380455 0.0
-0.0494925 0.0436972 0.0
-0.0544538 0.0498195 0.0
-0.0600627 0.056435 0.0
-0.0663649 0.0635501 0.0
-0.073388 0.071145 0.0
-0.081112 0.0791608 0.0
-0.0894102 0.087478 0.0
-0.0979408 0.0958874 0.0
-0.105965 0.10404 0.0
-0.112059 0.11139 0.0
-0.11371 0.117087 0.0
-0.106744 0.119947 0.0
-0.0846156 0.11821 0.0
-0.0373177 0.110116 0.0
0.0498195 0.0928935 0.0
0.197304 0.0675373 0.0
0.432055 0.0321857 0.0
0.782592 0.00545423 0.0
-0.00520235 0.000133173 0.0
-0.013271 0.00108842 0.0
-0.0194432 0.0029116 0.0
-0.0241191 0.00516383 0.0
-0.0277519 0.00780605 0.0
-0.030752 0.0107263 0.0
-0.0334726 0.0139032 0.0
-0.0361892 0.0173278 0.0
-0.0391056 0.0210178 0.0
-0.0423656 0.0250007 0.0
-0.0460703 0.0293113 0.0
-0.0502925 0.0339855 0.0
-0.0550884 0.0390574 0.0
-0.0605039 0.0445544 0.0
-0.0665764 0.0504928 0.0
-0.0733296 0.0568712 0.0
-0.0807574 0.0636612 0.0
-0.0887897 0.0707945 0.0
-0.097225 0.0781427 0.0
-0.10561 0.08549 0.0
-0.113042 0.0924883 0.0
-0.117867 0.0986086 0.0
-0.117262 0.103054 0.0
-0.10669 0.10475 0.0
-0.079268 0.102177 0.0
-0.024898 0.0938928 0.0
0.0704006 0.0778627 0.0
0.225046 0.055249 0.0
0.461252 0.0252921 0.0
0.798216 0.0037244 0.0
-0.00575224 0.000116103 0.0
-0.0146041 0.000942915 0.0
-0.0213346 0.00251626 0.0
-0.026411 0.00445547 0.0
-0.0303475 0.00672795 0.0
-0.0336 0.00923901 0.0
-0.0365564 0.0119732 0.0
-0.0395158 0.0149262 0.0
-0.0426971 0.0181167 0.0
-0.0462528 0.0215722 0.0
-0.0502872 0.025326 0.0
-0.0548728 0.0294125 0.0
-0.060061 0.033864 0.0
-0.0658889 0.0387063 0.0
-0.0723792 0.0439547 0.0
-0.0795333 0.0496068 0.0
-0.0873116 0.055634 0.0
-0.0955945 0.0619685 0.0
-0.104107 0.0684834 0.0
-0.11229 0.0749665 0.0
-0.119087 0.0810793 0.0
-0.122637 0.0863147 0.0
-0.119853 0.0899274 0.0
-0.105908 0.0909378 0.0
-0.0736979 0.0880341 0.0
-0.0131737 0.0800173 0.0
0.0888934 0.0654144 0.0
0.249036 0.0454492 0.0
0.485448 0.0201057 0.0
0.810361 0.00261135 0.0
-0.0062195 9.74035e-05 0.0
-0.0157315 0.00078139 0.0
-0.0229295 0.00207673 0.0
-0.0283405 0.00366838 0.0
-0.0325315 0.00553144 0.0
-0.0359984 0.00759102 0.0
-0.0391589 0.00983857 0.0
-0.0423325 0.0122751 0.0
-0.0457511 0.0149213 0.0
-0.0495745 0.0178051 0.0
-0.0539103 0.0209599 0.0
-0.0588302 0.0244206 0.0
-0.0643819 0.0282204 0.0
-0.0705945 0.0323878 0.0
-0.0774769 0.0369418 0.0
-0.0850092 0.0418861 0.0
-0.0931197 0.0471993 0.0
-0.10164 0.0528226 0.0
-0.110225 0.0586394 0.0
-0.11821 0.0644486 0.0
-0.124395 0.0699258 0.0
-0.126725 0.0745845 0.0
-0.121888 0.0777221 0.0
-0.104828 0.078433 0.0
-0.0683037 0.0755746 0.0
-0.00240696 0.0681228 0.0
0.105313 0.0550498 0.0
0.269694 0.0375676 0.0
0.50555 0.0161475 0.0
0.819944 0.0018816 0.0
-0.00659624 7.70482e-05 0.0
-0.0166333 0.00060571 0.0
-0.0241998 0.00159927 0.0
-0.0298738 0.0028145 0.0
-0.0342668 0.004235 0.0
-0.037908 0.0058076 0.0
-0.0412397 0.00753122 0.0
-0.0445983 0.00941292 0.0
-0.0482266 0.0114756 0.0
-0.052291 0.0137485 0.0
-0.0569023 0.0162663 0.0
-0.0621328 0.0190658 0.0
-0.0680278 0.0221841 0.0
-0.07461 0.0256558 0.0
-0.0818774 0.0295089 0.0
-0.089791 0.0337591 0.0
-0.0982487 0.0383998 0.0
-0.107036 0.0433893 0.0
-0.115736 0.0486293 0.0
-0.12358 0.0539357 0.0
-0.129228 0.0590003 0.0
-0.130442 0.0633532 0.0
-0.123705 0.0663213 0.0
-0.103781 0.0670478 0.0
-0.0633557 0.0645181 0.0
0.0072657 0.0578336 0.0
0.119726 0.0463459 0.0
0.287413 0.0311563 0.0
0.522287 0.013076 0.0
0.827599 0.00139135 0.0
-0.00687522 5.50233e-05 0.0
-0.0172923 0.000417345 0.0
-0.0251215 0.00108884 0.0
-0.0309823 0.00190336 0.0
-0.035522 0.00285342 0.0
-0.0392952 0.0039089 0.0
-0.0427635 0.00507644 0.0
-0.0462765 0.00636937 0.0
-0.0500861 0.00781281 0.0
-0.0543647 0.0094378 0.0
-0.059227 0.0112808 0.0
-0.0647475 0.013382 0.0
-0.0709715 0.0157845 0.0
-0.0779191 0.0185323 0.0
-0.0855802 0.0216672 0.0
-0.0939005 0.0252225 0.0
-0.102751 0.029214 0.0
-0.111872 0.0336253 0.0
-0.120774 0.0383848 0.0
-0.128585 0.0433315 0.0
-0.133817 0.0481754 0.0
-0.134055 0.052459 0.0
-0.125589 0.0555244 0.0
-0.103038 0.0565421 0.0
-0.0590733 0.0545734 0.0
0.015697 0.0488561 0.0
0.132228 0.0389307 0.0
0.302541 0.0258579 0.0
0.536234 0.0106401 0.0
0.833773 0.00105013 0.0
-0.00704995 3.13724e-05 0.0
-0.0176936 0.000217813 0.0
-0.0256744 0.000550271 0.0
-0.0316425 0.000944061 0.0
-0.0362705 0.00140068 0.0
-0.0401313 0.00191383 0.0
-0.0436996 0.00249766 0.0
-0.0473344 0.00317154 0.0
-0.0512946 0.00396245 0.0
-0.0557586 0.00490292 0.0
-0.060846 0.00603136 0.0
-0.066636 0.00739208 0.0
-0.0731775 0.0090357 0.0
-0.0804921 0.0110184 0.0
-0.088567 0.0133994 0.0
-0.0973376 0.0162361 0.0
-0.106652 0.0195734 0.0
-0.116208 0.0234297 0.0
-0.125445 0.0277687 0.0
-0.133376 0.0324603 0.0
-0.138361 0.0372365 0.0
-0.1378 0.0416507 0.0
-0.127794 0.0450465 0.0
-0.102841 0.0465998 0.0
-0.0556475 0.0454081 0.0
0.022845 0.0407971 0.0
0.142917 0.0324347 0.0
0.315361 0.0213488 0.0
0.547828 0.00863778 0.0
0.838771 0.000797031 0.0
-0.00711447 6.18102e-06 0.0
-0.0178246 8.90854e-06 0.0
-0.0258417 -1.10428e-05 0.0
-0.0318346 -5.35525e-05 0.0
-0.0364906 -0.000108311 0.0
-0.040392 -0.000157615 0.0
-0.0440204 -0.000180451 0.0
-0.0477405 -0.000152173 0.0
-0.0518165 -4.47545e-05 0.0
-0.0564327 0.000174815 0.0
-0.0617152 0.000546134 0.0
-0.0677509 0.0011175 0.0
-0.0745972 0.00194756 0.0
-0.0822826 0.00310622 0.0
-0.0907984 0.00467361 0.0
-0.100076 0.00673587 0.0
-0.109946 0.00937421 0.0
-0.120069 0.0126526 0.0
-0.129807 0.0165814 0.0
-0.138057 0.0210693 0.0
-0.143014 0.0258791 0.0
-0.141874 0.0305769 0.0
-0.130544 0.0345005 0.0
-0.103409 0.0368102 0.0
-0.053249 0.036602 0.0
0.0286255 0.0332408 0.0
0.151834 0.0264848 0.0
0.326065 0.0173225 0.0
0.557369 0.00689429 0.0
0.842785 0.000587575 0.0
-0.00706439 -2.03049e-05 0.0
-0.0176765 -0.000207231 0.0
-0.0256118 -0.000589007 0.0
-0.031545 -0.00107813 0.0
-0.0361663 -0.00165602 0.0
-0.0400588 -0.00228158 0.0
-0.0437046 -0.00292821 0.0
-0.0474695 -0.00356738 0.0
-0.0516209 -0.00417164 0.0
-0.0563486 -0.00470919 0.0
-0.0617875 -0.00514084 0.0
-0.0680359 -0.0054157 0.0
-0.0751644 -0.00546797 0.0
-0.083216 -0.00521375 0.0
-0.0921942 -0.00454996 0.0
-0.102037 -0.00335663 0.0
-0.112567 -0.00150734 0.0
-0.12342 0.00111421 0.0
-0.133868 0.00456991 0.0
-0.142681 0.00882687 0.0
-0.147876 0.0136958 0.0
-0.14643 0.018765 0.0
-0.134036 0.0233643 0.0
-0.104953 0.0266258 0.0
-0.0520573 0.0276123 0.0
0.0329298 0.0256811 0.0
0.158959 0.0206465 0.0
0.33474 0.013447 0.0
0.565015 0.00523511 0.0
0.84591 0.000383637 0.0
-0.00689588 -4.7769e-05 0.0
-0.0172424 -0.000427827 0.0
-0.0249769 -0.00117582 0.0
-0.0307652 -0.0021154 0.0
-0.035288 -0.00322074 0.0
-0.0391192 -0.00442873 0.0
-0.0427346 -0.00570895 0.0
-0.0464968 -0.00703113 0.0
-0.0506745 -0.00837069 0.0
-0.055463 -0.00969928 0.0
-0.0610081 -0.0109807 0.0
-0.067423 -0.0121645 0.0
-0.0747981 -0.0131802 0.0
-0.0831994 -0.0139319 0.0
-0.0926539 -0.0142942 0.0
-0.103117 -0.0141117 0.0
-0.114415 -0.0132069 0.0
-0.126144 -0.0114062 0.0
-0.137521 -0.00857511 0.0
-0.147188 -0.00467114 0.0
-0.152965 0.000177362 0.0
-0.151554 0.00559759 0.0
-0.138408 0.0109364 0.0
-0.107662 0.0153086 0.0
-0.0522862 0.0177125 0.0
0.0355675 0.0174537 0.0
0.164156 0.0143629 0.0
0.341324 0.00931606 0.0
0.570759 0.00346035 0.0
0.848131 0.000146229 0.0
-0.00660735 -7.58421e-05 0.0
-0.0165207 -0.000649057 0.0
-0.0239363 -0.00176099 0.0
-0.0294953 -0.00314696 0.0
-0.0338546 -0.00477509 0.0
-0.0375696 -0.00656226 0.0
-0.0411021 -0.00847643 0.0
-0.0448071 -0.0104879 0.0
-0.0489521 -0.0125778 0.0
-0.0537377 -0.0147245 0.0
-0.0593214 -0.0168988 0.0
-0.0658355 -0.0190552 0.0
-0.0733959 -0.0211239 0.0
-0.082101 -0.0230026 0.0
-0.0920137 -0.0245483 0.0
-0.103124 -0.0255733 0.0
-0.115275 -0.0258494 0.0
-0.128052 -0.0251296 0.0
-0.140606 -0.0231893 0.0
-0.151439 -0.0198928 0.0
-0.158152 -0.0152889 0.0
-0.157204 -0.00968171 0.0
-0.143778 -0.00368109 0.0
-0.111742 0.00184797 0.0
-0.0541724 0.00588211 0.0
0.0362868 0.00764719 0.0
0.167157 0.00689209 0.0
0.345551 0.00440179 0.0
0.574377 0.00131649 0.0
0.849323 -0.000172198 0.0
-0.00619929 -0.000103941 0.0
-0.0155154 -0.000865863 0.0
-0.0224972 -0.00233103 0.0
-0.0277442 -0.00414919 0.0
-0.0318753 -0.00628395 0.0
-0.0354168 -0.00863482 0.0
-0.0388091 -0.0111704 0.0
-0.0423949 -0.0138643 0.0
-0.0464374 -0.0167065 0.0
-0.0511412 -0.019686 0.0
-0.0566764 -0.0227857 0.0
-0.0631964 -0.0259716 0.0
-0.0708486 -0.0291827 0.0
-0.0797723 -0.0323195 0.0
-0.0900801 -0.0352315 0.0
-0.101813 -0.0377079 0.0
-0.114856 -0.0394753 0.0
-0.128804 -0.0402145 0.0
-0.142762 -0.0396009 0.0
-0.155099 -0.0373766 0.0
-0.163187 -0.0334545 0.0
-0.163181 -0.0280145 0.0
-0.149956 -0.0215806 0.0
-0.117252 -0.0149568 0.0
-0.0580913 -0.00912864 0.0
0.034553 -0.0049481 0.0
0.167416 -0.00280675 0.0
0.346909 -0.00201147 0.0
0.575392 -0.00148466 0.0
0.849174 -0.00060344 0.0
-0.00567529 -0.0001313 0.0
-0.014238 -0.00107165 0.0
-0.0206771 -0.00286844 0.0
-0.0255333 -0.00509166 0.0
-0.0293725 -0.00770209 0.0
-0.0326819 -0.0105851 0.0
-0.0358729 -0.013712 0.0
-0.0392706 -0.0170627 0.0
-0.0431301 -0.0206387 0.0
-0.0476578 -0.0244442 0.0
-0.0530349 -0.0284801 0.0
-0.0594371 -0.0327317 0.0
-0.0670461 -0.0371579 0.0
-0.0760495 -0.0416758 0.0
-0.0866221 -0.0461442 0.0
-0.0988759 -0.0503471 0.0
-0.112764 -0.0539837 0.0
-0.127923 -0.0566747 0.0
-0.143444 -0.0579962 0.0
-0.157591 -0.0575486 0.0
-0.167526 -0.0550604 0.0
-0.169097 -0.0504967 0.0
-0.156839 -0.0441544 0.0
-0.12421 -0.0366507 0.0
-0.0641649 -0.0289007 0.0
0.0300018 -0.0217526 0.0
0.164192 -0.0158669 0.0
0.344324 -0.0107012 0.0
0.572784 -0.00530789 0.0
0.847231 -0.00121429 0.0
-0.005043 -0.000156845 0.0
-0.0127099 -0.00125761 0.0
-0.018507 -0.00335018 0.0
-0.0228997 -0.00593462 0.0
-0.0263864 -0.00897065 0.0
-0.0294054 -0.0123332 0.0
-0.0323321 -0.0159982 0.0
-0.035468 -0.0199538 0.0
-0.0390558 -0.0242157 0.0
-0.0432995 -0.0288073 0.0
-0.0483883 -0.0337528 0.0
-0.0545175 -0.0390664 0.0
-0.0619028 -0.0447393 0.0
-0.0707834 -0.0507234 0.0
-0.0814051 -0.0569105 0.0
-0.0939687 -0.0631086 0.0
-0.108524 -0.0690212 0.0
-0.124787 -0.0742393 0.0
-0.141887 -0.0782587 0.0
-0.15804 -0.0805333 0.0
-0.170252 -0.0805639 0.0
-0.174112 -0.0780039 0.0
-0.163823 -0.0727627 0.0
-0.132522 -0.0650409 0.0
-0.0729412 -0.0554433 0.0
0.0216199 -0.0446182 0.0
0.156301 -0.0337516 0.0
0.336564 -0.0227134 0.0
0.565406 -0.010709 0.0
0.842803 -0.00213691 0.0
-0.00431535 -0.000179038 0.0
-0.0109649 -0.00141182 0.0
-0.0160348 -0.00374572 0.0
-0.0199002 -0.00662599 0.0
-0.0229791 -0.0100131 0.0
-0.0256526 -0.0137755 0.0
-0.028253 -0.0178948 0.0
-0.0310528 -0.0223684 0.0
-0.0342765 -0.0272278 0.0
-0.0381203 -0.0325174 0.0
-0.0427751 -0.0382901 0.0
-0.0484495 -0.0445965 0.0
-0.0553872 -0.0514736 0.0
-0.0638754 -0.0589286 0.0
-0.0742326 -0.0669158 0.0
-0.0867592 -0.0753073 0.0
-0.101626 -0.0838599 0.0
-0.118678 -0.0921881 0.0
-0.137143 -0.0997543 0.0
-0.155286 -0.105888 0.0
-0.170063 -0.109841 0.0
-0.176921 -0.110862 0.0
-0.169821 -0.108291 0.0
-0.141576 -0.101641 0.0
-0.0845606 -0.090831 0.0
0.00843892 -0.0759741 0.0
0.142159 -0.0586338 0.0
0.32167 -0.0397256 0.0
0.551325 -0.0185836 0.0
0.834732 -0.00358268 0.0
-0.00351327 -0.000195451 0.0
-0.00905471 -0.00151787 0.0
-0.0133318 -0.0040146 0.0
-0.0166189 -0.00709813 0.0
-0.0192432 -0.0107312 0.0
-0.0215226 -0.0147797 0.0
-0.0237408 -0.0192309 0.0
-0.0261357 -0.0240907 0.0
-0.0289079 -0.0294055 0.0
-0.0322381 -0.0352411 0.0
-0.0363101 -0.0416806 0.0
-0.0413347 -0.0488161 0.0
-0.0475711 -0.0567409 0.0
-0.0553409 -0.0655365 0.0
-0.0650251 -0.0752509 0.0
-0.0770217 -0.0858678 0.0
-0.0916377 -0.0972627 0.0
-0.108887 -0.109153 0.0
-0.12818 -0.121051 0.0
-0.147951 -0.13223 0.0
-0.165282 -0.141717 0.0
-0.175675 -0.148307 0.0
-0.173048 -0.150613 0.0
-0.150007 -0.14718 0.0
-0.0984683 -0.136719 0.0
-0.0103777 -0.118608 0.0
0.119922 -0.0932953 0.0
0.297173 -0.0641396 0.0
0.527894 -0.0304184 0.0
0.821273 -0.00597107 0.0
-0.00266694 -0.000202574 0.0
-0.00705094 -0.00155431 0.0
-0.0104952 -0.00410575 0.0
-0.0131685 -0.00726719 0.0
-0.0153029 -0.0110041 0.0
-0.0171504 -0.0151842 0.0
-0.0189422 -0.0197976 0.0
-0.0208772 -0.0248569 0.0
-0.0231254 -0.0304195 0.0
-0.0258441 -0.0365695 0.0
-0.0291989 -0.043417 0.0
-0.0333875 -0.0510949 0.0
-0.0386645 -0.0597558 0.0
-0.0453619 -0.0695665 0.0
-0.0538958 -0.0806938 0.0
-0.0647392 -0.0932776 0.0
-0.0783288 -0.107384 0.0
-0.0948733 -0.122935 0.0
-0.114047 -0.139617 0.0
-0.134601 -0.156778 0.0
-0.153973 -0.173325 0.0
-0.168021 -0.187644 0.0
-0.170953 -0.197558 0.0
-0.155475 -0.200416 0.0
-0.11314 -0.193266 0.0
-0.0348054 -0.173939 0.0
0.0874712 -0.140852 0.0
0.259546 -0.0992955 0.0
0.490892 -0.0488636 0.0
0.799168 -0.0102445 0.0
-0.00182373 -0.000194611 0.0
-0.00505745 -0.00149312 0.0
-0.00766233 -0.00395768 0.0
-0.00970814 -0.0070351 0.0
-0.0113349 -0.0106926 0.0
-0.0127306 -0.0148025 0.0
-0.0140728 -0.0193543 0.0
-0.0155179 -0.0243628 0.0
-0.0172004 -0.0298903 0.0
-0.0192463 -0.0360312 0.0
-0.0217914 -0.0429144 0.0
-0.0250037 -0.0507033 0.0
-0.0291086 -0.0596009 0.0
-0.0344137 -0.069854 0.0
-0.0413266 -0.0817524 0.0
-0.0503459 -0.0956165 0.0
-0.0619964 -0.11176 0.0
-0.0766711 -0.130412 0.0
-0.094357 -0.151591 0.0
-0.114265 -0.174922 0.0
-0.134442 -0.199425 0.0
-0.151463 -0.223292 0.0
-0.160283 -0.243717 0.0
-0.154207 -0.256857 0.0
-0.124871 -0.25789 0.0
-0.062194 -0.242281 0.0
0.0455607 -0.204671 0.0
0.206979 -0.149948 0.0
0.436281 -0.0786154 0.0
0.763801 -0.0184253 0.0
-0.00104113 -0.00016526 0.0
-0.00319463 -0.00130704 0.0
-0.00498888 -0.00351249 0.0
-0.0064148 -0.00630883 0.0
-0.00753522 -0.00966175 0.0
-0.00848021 -0.0134502 0.0
-0.00937527 -0.0176588 0.0
-0.0103326 -0.022299 0.0
-0.0114477 -0.0274301 0.0
-0.0128096 -0.0331459 0.0
-0.014515 -0.0395787 0.0
-0.0166872 -0.0469032 0.0
-0.0194974 -0.0553478 0.0
-0.0231904 -0.0652092 0.0