# vtk DataFile Version 3.0
Malha 2D com triângulos e temperatura
ASCII
DATASET UNSTRUCTURED_GRID

POINTS 961 double
0 0 0
1 0 0
1 1 0
0 1 0
0.0333333 0 0
0.0666667 0 0
0.1 0 0
0.133333 0 0
0.166667 0 0
0.2 0 0
0.233333 0 0
0.266667 0 0
0.3 0 0
0.333333 0 0
0.366667 0 0
0.4 0 0
0.433333 0 0
0.466667 0 0
0.5 0 0
0.533333 0 0
0.566667 0 0
0.6 0 0
0.633333 0 0
0.666667 0 0
0.7 0 0
0.733333 0 0
0.766667 0 0
0.8 0 0
0.833333 0 0
0.866667 0 0
0.9 0 0
0.933333 0 0
0.966667 0 0
1 0.0333333 0
1 0.0666667 0
1 0.1 0
1 0.133333 0
1 0.166667 0
1 0.2 0
1 0.233333 0
1 0.266667 0
1 0.3 0
1 0.333333 0
1 0.366667 0
1 0.4 0
1 0.433333 0
1 0.466667 0
1 0.5 0
1 0.533333 0
1 0.566667 0
1 0.6 0
1 0.633333 0
1 0.666667 0
1 0.7 0
1 0.733333 0
1 0.766667 0
1 0.8 0
1 0.833333 0
1 0.866667 0
1 0.9 0
1 0.933333 0
1 0.966667 0
0.966667 1 0
0.933333 1 0
0.9 1 0
0.866667 1 0
0.833333 1 0
0.8 1 0
0.766667 1 0
0.733333 1 0
0.7 1 0
0.666667 1 0
0.633333 1 0
0.6 1 0
0.566667 1 0
0.533333 1 0
0.5 1 0
0.466667 1 0
0.433333 1 0
0.4 1 0
0.366667 1 0
0.333333 1 0
0.3 1 0
0.266667 1 0
0.233333 1 0
0.2 1 0
0.166667 1 0
0.133333 1 0
0.1 1 0
0.0666667 1 0
0.0333333 1 0
0 0.966667 0
0 0.933333 0
0 0.9 0
0 0.866667 0
0 0.833333 0
0 0.8 0
0 0.766667 0
0 0.733333 0
0 0.7 0
0 0.666667 0
0 0.633333 0
0 0.6 0
0 0.566667 0
0 0.533333 0
0 0.5 0
0 0.466667 0
0 0.433333 0
0 0.4 0
0 0.366667 0
0 0.333333 0
0 0.3 0
0 0.266667 0
0 0.233333 0
0 0.2 0
0 0.166667 0
0 0.133333 0
0 0.1 0
0 0.0666667 0
0 0.0333333 0
0.0333333 0.0333333 0
0.0333333 0.0666667 0
0.0333333 0.1 0
0.0333333 0.133333 0
0.0333333 0.166667 0
0.0333333 0.2 0
0.0333333 0.233333 0
0.0333333 0.266667 0
0.0333333 0.3 0
0.0333333 0.333333 0
0.0333333 0.366667 0
0.0333333 0.4 0
0.0333333 0.433333 0
0.0333333 0.466667 0
0.0333333 0.5 0
0.0333333 0.533333 0
0.0333333 0.566667 0
0.0333333 0.6 0
0.0333333 0.633333 0
0.0333333 0.666667 0
0.0333333 0.7 0
0.0333333 0.733333 0
0.0333333 0.766667 0
0.0333333 0.8 0
0.0333333 0.833333 0
0.0333333 0.866667 0
0.0333333 0.9 0
0.0333333 0.933333 0
0.0333333 0.966667 0
0.0666667 0.0333333 0
0.0666667 0.0666667 0
0.0666667 0.1 0
0.0666667 0.133333 0
0.0666667 0.166667 0
0.0666667 0.2 0
0.0666667 0.233333 0
0.0666667 0.266667 0
0.0666667 0.3 0
0.0666667 0.333333 0
0.0666667 0.366667 0
0.0666667 0.4 0
0.0666667 0.433333 0
0.0666667 0.466667 0
0.0666667 0.5 0
0.0666667 0.533333 0
0.0666667 0.566667 0
0.0666667 0.6 0
0.0666667 0.633333 0
0.0666667 0.666667 0
0.0666667 0.7 0
0.0666667 0.733333 0
0.0666667 0.766667 0
0.0666667 0.8 0
0.0666667 0.833333 0
0.0666667 0.866667 0
0.0666667 0.9 0
0.0666667 0.933333 0
0.0666667 0.966667 0
0.1 0.0333333 0
0.1 0.0666667 0
0.1 0.1 0
0.1 0.133333 0
0.1 0.166667 0
0.1 0.2 0
0.1 0.233333 0
0.1 0.266667 0
0.1 0.3 0
0.1 0.333333 0
0.1 0.366667 0
0.1 0.4 0
0.1 0.433333 0
0.1 0.466667 0
0.1 0.5 0
0.1 0.533333 0
0.1 0.566667 0
0.1 0.6 0
0.1 0.633333 0
0.1 0.666667 0
0.1 0.7 0
0.1 0.733333 0
0.1 0.766667 0
0.1 0.8 0
0.1 0.833333 0
0.1 0.866667 0
0.1 0.9 0
0.1 0.933333 0
0.1 0.966667 0
0.133333 0.0333333 0
0.133333 0.0666667 0
0.133333 0.1 0
0.133333 0.133333 0
0.133333 0.166667 0
0.133333 0.2 0
0.133333 0.233333 0
0.133333 0.266667 0
0.133333 0.3 0
0.133333 0.333333 0
0.133333 0.366667 0
0.133333 0.4 0
0.133333 0.433333 0
0.133333 0.466667 0
0.133333 0.5 0
0.133333 0.533333 0
0.133333 0.566667 0
0.133333 0.6 0
0.133333 0.633333 0
0.133333 0.666667 0
0.133333 0.7 0
0.133333 0.733333 0
0.133333 0.766667 0
0.133333 0.8 0
0.133333 0.833333 0
0.133333 0.866667 0
0.133333 0.9 0
0.133333 0.933333 0
0.133333 0.966667 0
0.166667 0.0333333 0
0.166667 0.0666667 0
0.166667 0.1 0
0.166667 0.133333 0
0.166667 0.166667 0
0.166667 0.2 0
0.166667 0.233333 0
0.166667 0.266667 0
0.166667 0.3 0
0.166667 0.333333 0
0.166667 0.366667 0
0.166667 0.4 0
0.166667 0.433333 0
0.166667 0.466667 0
0.166667 0.5 0
0.166667 0.533333 0
0.166667 0.566667 0
0.166667 0.6 0
0.166667 0.633333 0
0.166667 0.666667 0
0.166667 0.7 0
0.166667 0.733333 0
0.166667 0.766667 0
0.166667 0.8 0
0.166667 0.833333 0
0.166667 0.866667 0
0.166667 0.9 0
0.166667 0.933333 0
0.166667 0.966667 0
0.2 0.0333333 0
0.2 0.0666667 0
0.2 0.1 0
0.2 0.133333 0
0.2 0.166667 0
0.2 0.2 0
0.2 0.233333 0
0.2 0.266667 0
0.2 0.3 0
0.2 0.333333 0
0.2 0.366667 0
0.2 0.4 0
0.2 0.433333 0
0.2 0.466667 0
0.2 0.5 0
0.2 0.533333 0
0.2 0.566667 0
0.2 0.6 0
0.2 0.633333 0
0.2 0.666667 0
0.2 0.7 0
0.2 0.733333 0
0.2 0.766667 0
0.2 0.8 0
0.2 0.833333 0
0.2 0.866667 0
0.2 0.9 0
0.2 0.933333 0
0.2 0.966667 0
0.233333 0.0333333 0
0.233333 0.0666667 0
0.233333 0.1 0
0.233333 0.133333 0
0.233333 0.166667 0
0.233333 0.2 0
0.233333 0.233333 0
0.233333 0.266667 0
0.233333 0.3 0
0.233333 0.333333 0
0.233333 0.366667 0
0.233333 0.4 0
0.233333 0.433333 0
0.233333 0.466667 0
0.233333 0.5 0
0.233333 0.533333 0
0.233333 0.566667 0
0.233333 0.6 0
0.233333 0.633333 0
0.233333 0.666667 0
0.233333 0.7 0
0.233333 0.733333 0
0.233333 0.766667 0
0.233333 0.8 0
0.233333 0.833333 0
0.233333 0.866667 0
0.233333 0.9 0
0.233333 0.933333 0
0.233333 0.966667 0
0.266667 0.0333333 0
0.266667 0.0666667 0
0.266667 0.1 0
0.266667 0.133333 0
0.266667 0.166667 0
0.266667 0.2 0
0.266667 0.233333 0
0.266667 0.266667 0
0.266667 0.3 0
0.266667 0.333333 0
0.266667 0.366667 0
0.266667 0.4 0
0.266667 0.433333 0
0.266667 0.466667 0
0.266667 0.5 0
0.266667 0.533333 0
0.266667 0.566667 0
0.266667 0.6 0
0.266667 0.633333 0
0.266667 0.666667 0
0.266667 0.7 0
0.266667 0.733333 0
0.266667 0.766667 0
0.266667 0.8 0
0.266667 0.833333 0
0.266667 0.866667 0
0.266667 0.9 0
0.266667 0.933333 0
0.266667 0.966667 0
0.3 0.0333333 0
0.3 0.0666667 0
0.3 0.1 0
0.3 0.133333 0
0.3 0.166667 0
0.3 0.2 0
0.3 0.233333 0
0.3 0.266667 0
0.3 0.3 0
0.3 0.333333 0
0.3 0.366667 0
0.3 0.4 0
0.3 0.433333 0
0.3 0.466667 0
0.3 0.5 0
0.3 0.533333 0
0.3 0.566667 0
0.3 0.6 0
0.3 0.633333 0
0.3 0.666667 0
0.3 0.7 0
0.3 0.733333 0
0.3 0.766667 0
0.3 0.8 0
0.3 0.833333 0
0.3 0.866667 0
0.3 0.9 0
0.3 0.933333 0
0.3 0.966667 0
0.333333 0.0333333 0
0.333333 0.0666667 0
0.333333 0.1 0
0.333333 0.133333 0
0.333333 0.166667 0
0.333333 0.2 0
0.333333 0.233333 0
0.333333 0.266667 0
0.333333 0.3 0
0.333333 0.333333 0
0.333333 0.366667 0
0.333333 0.4 0
0.333333 0.433333 0
0.333333 0.466667 0
0.333333 0.5 0
0.333333 0.533333 0
0.333333 0.566667 0
0.333333 0.6 0
0.333333 0.633333 0
0.333333 0.666667 0
0.333333 0.7 0
0.333333 0.733333 0
0.333333 0.766667 0
0.333333 0.8 0
0.333333 0.833333 0
0.333333 0.866667 0
0.333333 0.9 0
0.333333 0.933333 0
0.333333 0.966667 0
0.366667 0.0333333 0
0.366667 0.0666667 0
0.366667 0.1 0
0.366667 0.133333 0
0.366667 0.166667 0
0.366667 0.2 0
0.366667 0.233333 0
0.366667 0.266667 0
0.366667 0.3 0
0.366667 0.333333 0
0.366667 0.366667 0
0.366667 0.4 0
0.366667 0.433333 0
0.366667 0.466667 0
0.366667 0.5 0
0.366667 0.533333 0
0.366667 0.566667 0
0.366667 0.6 0
0.366667 0.633333 0
0.366667 0.666667 0
0.366667 0.7 0
0.366667 0.733333 0
0.366667 0.766667 0
0.366667 0.8 0
0.366667 0.833333 0
0.366667 0.866667 0
0.366667 0.9 0
0.366667 0.933333 0
0.366667 0.966667 0
0.4 0.0333333 0
0.4 0.0666667 0
0.4 0.1 0
0.4 0.133333 0
0.4 0.166667 0
0.4 0.2 0
0.4 0.233333 0
0.4 0.266667 0
0.4 0.3 0
0.4 0.333333 0
0.4 0.366667 0
0.4 0.4 0
0.4 0.433333 0
0.4 0.466667 0
0.4 0.5 0
0.4 0.533333 0
0.4 0.566667 0
0.4 0.6 0
0.4 0.633333 0
0.4 0.666667 0
0.4 0.7 0
0.4 0.733333 0
0.4 0.766667 0
0.4 0.8 0
0.4 0.833333 0
0.4 0.866667 0
0.4 0.9 0
0.4 0.933333 0
0.4 0.966667 0
0.433333 0.0333333 0
0.433333 0.0666667 0
0.433333 0.1 0
0.433333 0.133333 0
0.433333 0.166667 0
0.433333 0.2 0
0.433333 0.233333 0
0.433333 0.266667 0
0.433333 0.3 0
0.433333 0.333333 0
0.433333 0.366667 0
0.433333 0.4 0
0.433333 0.433333 0
0.433333 0.466667 0
0.433333 0.5 0
0.433333 0.533333 0
0.433333 0.566667 0
0.433333 0.6 0
0.433333 0.633333 0
0.433333 0.666667 0
0.433333 0.7 0
0.433333 0.733333 0
0.433333 0.766667 0
0.433333 0.8 0
0.433333 0.833333 0
0.433333 0.866667 0
0.433333 0.9 0
0.433333 0.933333 0
0.433333 0.966667 0
0.466667 0.0333333 0
0.466667 0.0666667 0
0.466667 0.1 0
0.466667 0.133333 0
0.466667 0.166667 0
0.466667 0.2 0
0.466667 0.233333 0
0.466667 0.266667 0
0.466667 0.3 0
0.466667 0.333333 0
0.466667 0.366667 0
0.466667 0.4 0
0.466667 0.433333 0
0.466667 0.466667 0
0.466667 0.5 0
0.466667 0.533333 0
0.466667 0.566667 0
0.466667 0.6 0
0.466667 0.633333 0
0.466667 0.666667 0
0.466667 0.7 0
0.466667 0.733333 0
0.466667 0.766667 0
0.466667 0.8 0
0.466667 0.833333 0
0.466667 0.866667 0
0.466667 0.9 0
0.466667 0.933333 0
0.466667 0.966667 0
0.5 0.0333333 0
0.5 0.0666667 0
0.5 0.1 0
0.5 0.133333 0
0.5 0.166667 0
0.5 0.2 0
0.5 0.233333 0
0.5 0.266667 0
0.5 0.3 0
0.5 0.333333 0
0.5 0.366667 0
0.5 0.4 0
0.5 0.433333 0
0.5 0.466667 0
0.5 0.5 0
0.5 0.533333 0
0.5 0.566667 0
0.5 0.6 0
0.5 0.633333 0
0.5 0.666667 0
0.5 0.7 0
0.5 0.733333 0
0.5 0.766667 0
0.5 0.8 0
0.5 0.833333 0
0.5 0.866667 0
0.5 0.9 0
0.5 0.933333 0
0.5 0.966667 0
0.533333 0.0333333 0
0.533333 0.0666667 0
0.533333 0.1 0
0.533333 0.133333 0
0.533333 0.166667 0
0.533333 0.2 0
0.533333 0.233333 0
0.533333 0.266667 0
0.533333 0.3 0
0.533333 0.333333 0
0.533333 0.366667 0
0.533333 0.4 0
0.533333 0.433333 0
0.533333 0.466667 0
0.533333 0.5 0
0.533333 0.533333 0
0.533333 0.566667 0
0.533333 0.6 0
0.533333 0.633333 0
0.533333 0.666667 0
0.533333 0.7 0
0.533333 0.733333 0
0.533333 0.766667 0
0.533333 0.8 0
0.533333 0.833333 0
0.533333 0.866667 0
0.533333 0.9 0
0.533333 0.933333 0
0.533333 0.966667 0
0.566667 0.0333333 0
0.566667 0.0666667 0
0.566667 0.1 0
0.566667 0.133333 0
0.566667 0.166667 0
0.566667 0.2 0
0.566667 0.233333 0
0.566667 0.266667 0
0.566667 0.3 0
0.566667 0.333333 0
0.566667 0.366667 0
0.566667 0.4 0
0.566667 0.433333 0
0.566667 0.466667 0
0.566667 0.5 0
0.566667 0.533333 0
0.566667 0.566667 0
0.566667 0.6 0
0.566667 0.633333 0
0.566667 0.666667 0
0.566667 0.7 0
0.566667 0.733333 0
0.566667 0.766667 0
0.566667 0.8 0
0.566667 0.833333 0
0.566667 0.866667 0
0.566667 0.9 0
0.566667 0.933333 0
0.566667 0.966667 0
0.6 0.0333333 0
0.6 0.0666667 0
0.6 0.1 0
0.6 0.133333 0
[...]
CELL_DATA 900
VECTORS velocity double
7.07515e-05 -6.96156e-05 0.0
-5.27448e-06 -1.86866e-05 0.0
-8.01362e-05 0.000327067 0.0
-0.000139526 0.000891673 0.0
-0.000177019 0.00163943 0.0
-0.000201945 0.00251422 0.0
-0.000220094 0.0034924 0.0
-0.000236481 0.00456 0.0
-0.000254056 0.00571789 0.0
-0.000274783 0.00697499 0.0
-0.000299934 0.00834731 0.0
-0.000330563 0.00985617 0.0
-0.000367808 0.0115283 0.0
-0.000413212 0.0133965 0.0
-0.0004691 0.015502 0.0
-0.000539115 0.0178973 0.0
-0.000629081 0.0206515 0.0
-0.000748478 0.0238578 0.0
-0.000913171 0.0276444 0.0
-0.00115093 0.0321914 0.0
-0.00151297 0.0377574 0.0
-0.00209973 0.0447257 0.0
-0.00311403 0.0536934 0.0
-0.00497184 0.0656197 0.0
-0.00846839 0.0821911 0.0
-0.0149927 0.105924 0.0
-0.02572 0.141999 0.0
-0.038183 0.189179 0.0
-0.01356 0.26231 0.0
0.216733 0.173875 0.0
1.67242e-05 9.37853e-06 0.0
-0.000430199 0.000432352 0.0
-0.000864157 0.00145887 0.0
-0.00123162 0.00291983 0.0
-0.00151025 0.00477569 0.0
-0.00172771 0.00693283 0.0
-0.00190987 0.00934948 0.0
-0.00208165 0.012 0.0
-0.00226187 0.0148868 0.0
-0.00246505 0.0180299 0.0
-0.00270258 0.0214654 0.0
-0.00298471 0.0252424 0.0
-0.00332236 0.0294229 0.0
-0.00372905 0.0340834 0.0
-0.00422304 0.0393178 0.0
-0.00482998 0.0452437 0.0
-0.00558633 0.05201 0.0
-0.00654402 0.0598066 0.0
-0.00777698 0.0688766 0.0
-0.00939146 0.0795284 0.0
-0.0115432 0.0921446 0.0
-0.0144699 0.107182 0.0
-0.0185435 0.125145 0.0
-0.02436 0.146484 0.0
-0.0327463 0.17137 0.0
-0.0446044 0.198827 0.0
-0.0584801 0.225601 0.0
-0.0651635 0.240086 0.0
-0.00320676 0.2183 0.0
0.304867 0.116322 0.0
-0.000331997 8.36972e-05 0.0
-0.00145333 0.000846211 0.0
-0.00249813 0.00244867 0.0
-0.00338608 0.00460091 0.0
-0.00409234 0.00726711 0.0
-0.0046662 0.0103335 0.0
-0.0051631 0.0137543 0.0
-0.00563777 0.0175013 0.0
-0.00613491 0.0215801 0.0
-0.00669027 0.0260179 0.0
-0.00733297 0.030862 0.0
-0.00808931 0.0361756 0.0
-0.00898665 0.0420376 0.0
-0.0100576 0.0485428 0.0
-0.0113442 0.0558046 0.0
-0.0129027 0.0639594 0.0
-0.0148085 0.0731709 0.0
-0.0171614 0.0836346 0.0
-0.0200901 0.0955789 0.0
-0.0237548 0.109258 0.0
-0.0283464 0.124927 0.0
-0.0340792 0.142789 0.0
-0.0411553 0.162867 0.0
-0.0496701 0.184794 0.0
-0.0592053 0.207316 0.0
-0.0678324 0.227584 0.0
-0.0681119 0.238952 0.0
-0.0385571 0.230882 0.0
0.0916453 0.173584 0.0
0.475871 0.0769913 0.0
-0.000881434 0.000138379 0.0
-0.00286194 0.00115999 0.0
-0.00462038 0.00318959 0.0
-0.00609276 0.00582501 0.0
-0.00728124 0.00903307 0.0
-0.00826461 0.0126872 0.0
-0.00913132 0.0167439 0.0
-0.00996708 0.0211764 0.0
-0.0108434 0.0259937 0.0
-0.0118182 0.0312268 0.0
-0.0129387 0.0369274 0.0
-0.0142473 0.0431627 0.0
-0.0157866 0.0500143 0.0
-0.0176055 0.0575777 0.0
-0.0197643 0.0659622 0.0
-0.0223397 0.0752925 0.0
-0.0254286 0.0857076 0.0
-0.0291493 0.0973574 0.0
-0.0336364 0.110391 0.0
-0.0390263 0.124932 0.0
-0.0454241 0.141024 0.0
-0.0528413 0.158544 0.0
-0.0610688 0.17702 0.0
-0.0694314 0.195402 0.0
-0.0761451 0.211513 0.0
-0.0769221 0.221685 0.0
-0.0607852 0.218823 0.0
-0.000742093 0.194772 0.0
0.167928 0.129297 0.0
0.574884 0.049164 0.0
-0.00157543 0.00016572 0.0
-0.00456678 0.00134256 0.0
-0.00712268 0.00363453 0.0
-0.00922771 0.00655694 0.0
-0.0109344 0.0100743 0.0
-0.0123602 0.01405 0.0
-0.013631 0.0184433 0.0
-0.0148646 0.0232292 0.0
-0.0161598 0.0284193 0.0
-0.0175959 0.0340458 0.0
-0.0192378 0.04016 0.0
-0.0211417 0.0468266 0.0
-0.0233629 0.0541216 0.0
-0.0259616 0.0621298 0.0
-0.0290089 0.0709437 0.0
-0.0325901 0.0806603 0.0
-0.0368057 0.0913767 0.0
-0.0417653 0.103179 0.0
-0.0475701 0.116125 0.0
-0.0542762 0.130205 0.0
-0.0618256 0.145277 0.0
-0.069928 0.160973 0.0
-0.0778507 0.17651 0.0
-0.0840526 0.190501 0.0
-0.0853954 0.200455 0.0
-0.0755842 0.202742 0.0
-0.0411388 0.190982 0.0
0.0464775 0.15961 0.0
0.24196 0.0961205 0.0
0.647092 0.030903 0.0
-0.00233369 0.000175511 0.0
-0.00641479 0.00142061 0.0
-0.00980295 0.00382795 0.0
-0.0125503 0.00686724 0.0
-0.0147754 0.0104992 0.0
-0.0166424 0.0145809 0.0
-0.0183179 0.019074 0.0
-0.0199522 0.0239551 0.0
-0.0216697 0.0292373 0.0
-0.0235697 0.0349522 0.0
-0.0257315 0.0411483 0.0
-0.0282222 0.0478844 0.0
-0.0311048 0.0552268 0.0
-0.0344446 0.0632457 0.0
-0.0383142 0.0720117 0.0
-0.0427952 0.0815908 0.0
-0.0479743 0.0920364 0.0
-0.0539296 0.103375 0.0
-0.0606997 0.115581 0.0
-0.0682255 0.12854 0.0
-0.0762489 0.141979 0.0
-0.0841491 0.155372 0.0
-0.0906742 0.16778 0.0
-0.093504 0.177706 0.0
-0.088415 0.18267 0.0
-0.0677489 0.179499 0.0
-0.0168027 0.162696 0.0
0.0918367 0.129582 0.0
0.304344 0.0723928 0.0
0.69843 0.0196658 0.0
-0.00310949 0.000173618 0.0
-0.00830549 0.00141891 0.0
-0.0125297 0.00382201 0.0
-0.0159108 0.00683992 0.0
-0.0186404 0.0104303 0.0
-0.0209342 0.0144492 0.0
-0.0230014 0.0188601 0.0
-0.0250247 0.0236416 0.0
-0.027153 0.0288072 0.0
-0.0295028 0.0343873 0.0
-0.0321653 0.0404266 0.0
-0.035215 0.046977 0.0
-0.0387184 0.0540946 0.0
-0.04274 0.0618347 0.0
-0.0473467 0.0702473 0.0
-0.0526064 0.0793704 0.0
-0.0585801 0.08922 0.0
-0.0652994 0.0997742 0.0
-0.0727235 0.110947 0.0
-0.0806617 0.122551 0.0
-0.0886448 0.13423 0.0
-0.095726 0.145381 0.0
-0.100174 0.15501 0.0
-0.0989973 0.161647 0.0
-0.0871322 0.162973 0.0
-0.0559795 0.156392 0.0
0.00956486 0.137197 0.0
0.134227 0.105191 0.0
0.357101 0.0551402 0.0
0.735851 0.0126794 0.0
-0.00386494 0.000165113 0.0
-0.0101522 0.00136149 0.0
-0.015186 0.00366905 0.0
-0.0191734 0.0065581 0.0
-0.02238 0.00998563 0.0
-0.0250751 0.0138118 0.0
-0.0275106 0.018003 0.0
-0.0299006 0.0225399 0.0
-0.0324167 0.0274369 0.0
-0.0351906 0.0327228 0.0
-0.0383228 0.0384387 0.0
-0.0418922 0.0446306 0.0
-0.0459647 0.0513455 0.0
-0.0505998 0.0586263 0.0
-0.0558529 0.0665065 0.0
-0.0617716 0.0750024 0.0
-0.0683827 0.0841023 0.0
-0.0756628 0.0937498 0.0
-0.0834838 0.103818 0.0
-0.0915186 0.114075 0.0
-0.0990917 0.124119 0.0
-0.104953 0.133319 0.0
-0.106951 0.140685 0.0
-0.101544 0.144839 0.0
-0.0830581 0.143702 0.0
-0.042349 0.135152 0.0
0.0352668 0.115574 0.0
0.172149 0.0858006 0.0
0.401075 0.0425961 0.0
0.763651 0.00833863 0.0
-0.00457649 0.000152626 0.0
-0.011895 0.0012648 0.0
-0.0176888 0.00340853 0.0
-0.0222408 0.00608671 0.0
-0.0258882 0.00925811 0.0
-0.0289529 0.0127923 0.0
-0.0317282 0.0166597 0.0
-0.0344582 0.0208444 0.0
-0.037335 0.0253615 0.0
-0.0405038 0.0302394 0.0
-0.0440722 0.0355164 0.0
-0.0481209 0.0412341 0.0
-0.0527132 0.047433 0.0
-0.0579001 0.0541476 0.0
-0.0637218 0.0614 0.0
-0.0702013 0.0691923 0.0
-0.0773267 0.0774951 0.0
-0.0850153 0.0862308 0.0
-0.0930485 0.0952487 0.0
-0.100964 0.104291 0.0
-0.107892 0.112938 0.0
-0.112306 0.120558 0.0
-0.111694 0.1262 0.0
-0.102076 0.128592 0.0
-0.0773522 0.125927 0.0
-0.0281477 0.116463 0.0
0.0595393 0.0975399 0.0
0.205755 0.0703969 0.0
0.437742 0.0333502 0.0
0.784726 0.00560969 0.0
-0.00522685 0.0001376 0.0
-0.0134884 0.00113973 0.0
-0.0199732 0.00306818 0.0
-0.025036 0.00547249 0.0
-0.0290805 0.0083156 0.0
-0.0324784 0.0114809 0.0
-0.0355619 0.0149446 0.0
-0.0386026 0.0186949 0.0
-0.0418116 0.0227492 0.0
-0.0453455 0.0271357 0.0
-0.0493175 0.0318917 0.0
-0.0538089 0.0370565 0.0
-0.0588784 0.0426672 0.0
-0.0645671 0.0487541 0.0
-0.0708982 0.0553338 0.0
-0.0778676 0.0624019 0.0
-0.0854224 0.0699205 0.0
-0.0934185 0.0778021 0.0
-0.101547 0.0858852 0.0
-0.109214 0.093901 0.0
-0.115365 0.101427 0.0
-0.118229 0.107841 0.0
-0.114987 0.112243 0.0
-0.10132 0.113469 0.0
-0.0708489 0.109963 0.0
-0.0141808 0.100287 0.0
0.0818783 0.0825321 0.0
0.235233 0.0581167 0.0
0.46833 0.0264478 0.0
0.800995 0.00387046 0.0
-0.00580352 0.000120589 0.0
-0.0148981 0.000992641 0.0
-0.02199 0.00266566 0.0
-0.0274999 0.00474647 0.0
-0.0318919 0.00720403 0.0
-0.0355832 0.00993945 0.0
-0.0389412 0.0129356 0.0
-0.0422626 0.0161869 0.0
-0.0457753 0.0197132 0.0
-0.049646 0.0235441 0.0
-0.0539925 0.0277172 0.0
-0.058896 0.0322717 0.0
-0.0644104 0.0372449 0.0
-0.0705664 0.0426671 0.0
-0.0773695 0.0485557 0.0
-0.0847882 0.0549066 0.0
-0.0927276 0.0616826 0.0
-0.100981 0.0687961 0.0
-0.109149 0.0760844 0.0
-0.116511 0.0832781 0.0
-0.121836 0.0899578 0.0
-0.123133 0.0955147 0.0
-0.117325 0.099098 0.0
-0.099833 0.0996337 0.0
-0.0641119 0.095789 0.0
-0.000881835 0.0863388 0.0
0.102141 0.0700205 0.0
0.260961 0.0482599 0.0
0.493911 0.0212214 0.0
0.813764 0.00274266 0.0
-0.00629615 0.000101752 0.0
-0.0160967 0.000827153 0.0
-0.0236995 0.00221199 0.0
-0.0295846 0.00392881 0.0
-0.0342694 0.00595399 0.0
-0.0382112 0.00820924 0.0
-0.0418086 0.0106855 0.0
-0.0453799 0.0133841 0.0
-0.0491683 0.0163282 0.0
-0.0533491 0.01955 0.0
-0.0580447 0.0230888 0.0
-0.0633363 0.0269861 0.0
-0.0692736 0.0312825 0.0
-0.0758778 0.0360128 0.0
-0.0831378 0.0412008 0.0
-0.090995 0.0468501 0.0
-0.0993129 0.0529323 0.0
-0.107822 0.0593684 0.0
-0.116031 0.0660034 0.0
-0.123092 0.072573 0.0
-0.127606 0.078664 0.0
-0.127378 0.0836786 0.0
-0.119109 0.086802 0.0
-0.0980317 0.0870304 0.0
-0.0575159 0.0832084 0.0
0.0114794 0.0743017 0.0
0.120313 0.0595525 0.0
0.283333 0.0402865 0.0
0.515366 0.0172075 0.0
0.823936 0.00199683 0.0
-0.00669572 8.10707e-05 0.0
-0.0170611 0.000645404 0.0
-0.0250687 0.00171432 0.0
-0.0312504 0.00303314 0.0
-0.0361689 0.00458659 0.0
-0.0403156 0.0063192 0.0
-0.0441153 0.00823066 0.0
-0.047905 0.01033 0.0
-0.0519407 0.0126443 0.0
-0.0564062 0.0152089 0.0
-0.0614281 0.0180661 0.0
-0.0670893 0.0212617 0.0
-0.0734367 0.0248425 0.0
-0.0804845 0.0288523 0.0
-0.0882068 0.0333266 0.0
-0.09652 0.0382839 0.0
-0.105247 0.0437126 0.0
-0.114054 0.0495512 0.0
-0.122357 0.0556601 0.0
-0.129176 0.0617858 0.0
-0.132947 0.0675218 0.0
-0.13128 0.0722765 0.0
-0.120682 0.0752553 0.0
-0.0962517 0.0755062 0.0
-0.051361 0.0719952 0.0
0.0226803 0.063903 0.0
0.136461 0.0507231 0.0
0.302739 0.0337706 0.0
0.533413 0.0140738 0.0
0.832143 0.00149142 0.0
-0.00699391 5.85024e-05 0.0
-0.0177709 0.000448943 0.0
-0.0260694 0.00117804 0.0
-0.0324633 0.00206996 0.0
-0.0375526 0.00311823 0.0
-0.0418558 0.00429177 0.0
-0.0458186 0.00559929 0.0
-0.0497932 0.00705771 0.0
-0.0540465 0.00869806 0.0
-0.0587704 0.0105592 0.0
-0.0640969 0.0126871 0.0
-0.0701122 0.0151335 0.0
-0.0768638 0.0179537 0.0
-0.0843618 0.0212045 0.0
-0.0925696 0.0249385 0.0
-0.101382 0.0291957 0.0
-0.110581 0.0339898 0.0
-0.119772 0.0392864 0.0
-0.128269 0.0449689 0.0
-0.134958 0.0508009 0.0
-0.138103 0.0563844 0.0
-0.13512 0.0611281 0.0
-0.122344 0.064242 0.0
-0.0947821 0.0648014 0.0
-0.0458829 0.0618553 0.0
0.0326645 0.054739 0.0
0.150694 0.0431296 0.0
0.31952 0.0283348 0.0
0.548618 0.0115634 0.0
0.838828 0.00113446 0.0
-0.00718317 3.40543e-05 0.0
-0.018209 0.000239308 0.0
-0.0266774 0.000608279 0.0
-0.033195 0.00104912 0.0
-0.0383887 0.00156423 0.0
-0.042797 0.00214773 0.0
-0.0468806 0.00281711 0.0
-0.0510035 0.00359681 0.0
-0.0554417 0.00452134 0.0
-0.0603947 0.00563261 0.0
-0.0660018 0.0069805 0.0
-0.0723552 0.00862309 0.0
-0.079507 0.0106265 0.0
-0.0874685 0.0130632 0.0
-0.0961975 0.0160081 0.0
-0.105571 0.0195292 0.0
-0.115339 0.0236742 0.0
-0.125036 0.0284453 0.0
-0.133875 0.033759 0.0
-0.140597 0.0394038 0.0
-0.143281 0.0449948 0.0
-0.139146 0.0499381 0.0
-0.124361 0.0534343 0.0
-0.0938737 0.0545587 0.0
-0.04127 0.052405 0.0
0.0413411 0.0464097 0.0
0.163074 0.036397 0.0
0.333932 0.0236499 0.0
0.561399 0.00947166 0.0
0.84429 0.000864092 0.0
-0.00725639 7.75802e-06 0.0
-0.0183599 1.83121e-05 0.0
-0.0268725 1.08335e-05 0.0
-0.0334213 -1.85677e-05 0.0
-0.03865 -5.89292e-05 0.0
-0.0431085 -9.06436e-05 0.0
-0.0472668 -8.83119e-05 0.0
-0.0514966 -2.0885e-05 0.0
-0.0560814 0.000148231 0.0
-0.0612285 0.000462813 0.0
-0.0670864 0.000975748 0.0
-0.0737574 0.0017513 0.0
-0.0813035 0.00286676 0.0
-0.0897436 0.00441256 0.0
-0.0990367 0.0064894 0.0
-0.109049 0.00919905 0.0
-0.119499 0.0126331 0.0
-0.129858 0.0168414 0.0
-0.139231 0.0217834 0.0
-0.146199 0.0272843 0.0
-0.148645 0.0329826 0.0
-0.143568 0.0382844 0.0
-0.12697 0.042374 0.0
-0.0937603 0.0443019 0.0
-0.0377071 0.0431697 0.0
0.0486184 0.0384619 0.0
0.173622 0.0301212 0.0
0.346144 0.0193904 0.0
0.572033 0.00761456 0.0
0.84871 0.000633639 0.0
-0.00720816 -2.01109e-05 0.0
-0.0182127 -0.000211615 0.0
-0.0266402 -0.000607387 0.0
-0.033125 -0.0011202 0.0
-0.0383164 -0.00173118 0.0
-0.0427672 -0.00239596 0.0
-0.0469499 -0.00308278 0.0
-0.0512394 -0.00375587 0.0
-0.0559245 -0.00437862 0.0
-0.0612211 -0.00490754 0.0
-0.0672889 -0.00528885 0.0
-0.0742443 -0.00545382 0.0
-0.082166 -0.00531486 0.0
-0.0910885 -0.00476296 0.0
-0.100982 -0.00366837 0.0
-0.111713 -0.0018886 0.0
-0.122984 0.000717053 0.0
-0.134192 0.00424933 0.0
-0.144326 0.00872796 0.0
-0.151803 0.0140359 0.0
-0.154289 0.0198531 0.0
-0.148547 0.0255951 0.0
-0.130387 0.0304355 0.0
-0.094675 0.0333856 0.0
-0.0354031 0.0335238 0.0
0.0543499 0.0303265 0.0
0.182279 0.0238231 0.0
0.356202 0.0151966 0.0
0.580646 0.00580484 0.0
0.852168 0.000402107 0.0
-0.00703377 -4.91739e-05 0.0
-0.0177587 -0.000447171 0.0
-0.0259701 -0.00123716 0.0
-0.0322951 -0.0022389 0.0
-0.0373751 -0.00342669 0.0
-0.0417563 -0.00473311 0.0
-0.0459068 -0.00612233 0.0
-0.0502004 -0.00755647 0.0
-0.0549293 -0.00900165 0.0
-0.0603177 -0.0104178 0.0
-0.0665394 -0.0117536 0.0
-0.0737303 -0.0129393 0.0
-0.0819931 -0.0138803 0.0
-0.0913884 -0.014451 0.0
-0.101909 -0.0144933 0.0
-0.113432 -0.0138213 0.0
-0.125634 -0.0122432 0.0
-0.137869 -0.00959207 0.0
-0.14902 -0.00576989 0.0
-0.157336 -0.00082239 0.0
-0.160218 0.00499185 0.0
-0.154158 0.0111272 0.0
-0.134765 0.0167888 0.0
-0.0968529 0.0209467 0.0
-0.034628 0.0226302 0.0
0.0582864 0.0212513 0.0
0.188849 0.0168849 0.0
0.363989 0.0106272 0.0
0.587184 0.00382791 0.0
0.854622 0.000127737 0.0
-0.00673113 -7.90013e-05 0.0
-0.0169957 -0.000683762 0.0
-0.024861 -0.0018657 0.0
-0.0309305 -0.00335202 0.0
-0.0358239 -0.00511163 0.0
-0.0400705 -0.00705644 0.0
-0.0441263 -0.00914917 0.0
-0.0483593 -0.0113529 0.0
-0.0530625 -0.0136401 0.0
-0.0584683 -0.0159782 0.0
-0.0647663 -0.0183235 0.0
-0.0721166 -0.0206111 0.0
-0.0806533 -0.0227456 0.0
-0.0904746 -0.0245918 0.0
-0.101611 -0.025969 0.0
-0.113964 -0.0266521 0.0
-0.127213 -0.0263884 0.0
-0.140667 -0.0249306 0.0
-0.1531 -0.0220911 0.0
-0.16257 -0.0178269 0.0
-0.16625 -0.0123143 0.0
-0.16037 -0.00600289 0.0
-0.140233 0.00037234 0.0
-0.10051 0.00582626 0.0
-0.0356701 0.00935843 0.0
0.0600942 0.0102407 0.0
0.192966 0.00850667 0.0
0.369147 0.00512091 0.0
0.591352 0.00141516 0.0
0.855914 -0.00024028 0.0
-0.00630071 -0.000108848 0.0
-0.015928 -0.000915044 0.0
-0.023321 -0.00247611 0.0
-0.0290419 -0.00442997 0.0
-0.0336734 -0.00674186 0.0
-0.0377176 -0.00930617 0.0
-0.0416104 -0.012087 0.0
-0.0457089 -0.0150518 0.0
-0.0503034 -0.0181833 0.0
-0.0556333 -0.0214616 0.0
-0.0619051 -0.0248571 0.0
-0.0693063 -0.0283179 0.0
-0.0780099 -0.031758 0.0
-0.0881619 -0.0350437 0.0
-0.0998456 -0.0379834 0.0
-0.11301 -0.0403227 0.0
-0.127355 -0.041755 0.0
-0.142169 -0.0419516 0.0
-0.156133 -0.0406178 0.0
-0.167123 -0.0375778 0.0
-0.172057 -0.0328653 0.0
-0.166863 -0.0267939 0.0
-0.146618 -0.019984 0.0
-0.105865 -0.0132871 0.0
-0.0390482 -0.00768158 0.0
0.059127 -0.0040356 0.0
0.193993 -0.00242257 0.0
0.371088 -0.00205382 0.0
0.592609 -0.00170952 0.0
0.855691 -0.000725484 0.0
-0.00574694 -0.000137702 0.0
-0.0145699 -0.00113266 0.0
-0.0213715 -0.00304637 0.0
-0.0266552 -0.00543446 0.0
-0.0309514 -0.00826042 0.0
-0.034724 -0.0114049 0.0
-0.038381 -0.014836 0.0
-0.0422625 -0.018529 0.0
-0.0466522 -0.0224807 0.0
-0.0517936 -0.0266894 0.0
-0.0579088 -0.031147 0.0
-0.065214 -0.035825 0.0
-0.0739253 -0.0406602 0.0
-0.0842462 -0.0455378 0.0
-0.0963281 -0.0502752 0.0
-0.110189 -0.0546094 0.0
-0.12558 -0.0581984 0.0
-0.141802 -0.0606426 0.0
-0.157476 -0.0615341 0.0
-0.17033 -0.0605342 0.0
-0.177048 -0.0574653 0.0
-0.173263 -0.0523888 0.0
-0.153747 -0.0456658 0.0
-0.112821 -0.0379341 0.0
-0.0449012 -0.0300754 0.0
0.0548675 -0.0229879 0.0
0.190961 -0.0170238 0.0
0.368535 -0.0116538 0.0
0.589823 -0.00589413 0.0
0.853484 -0.00138819 0.0
-0.00507944 -0.000164152 0.0
-0.0129475 -0.00132563 0.0
-0.0190506 -0.00354807 0.0
-0.0238164 -0.0063165 0.0
-0.0277078 -0.0095947 0.0
-0.0311406 -0.0132538 0.0
-0.0344871 -0.0172682 0.0
-0.0380639 -0.0216234 0.0
-0.0421428 -0.0263337 0.0
-0.0469664 -0.0314204 0.0
-0.0527686 -0.0369045 0.0
-0.0597917 -0.0427921 0.0
-0.0682949 -0.0490595 0.0
-0.0785438 -0.055633 0.0
-0.0907699 -0.0623675 0.0
-0.105082 -0.0690249 0.0
-0.121317 -0.0752625 0.0
-0.13883 -0.080638 0.0
-0.156242 -0.084641 0.0
-0.1712 -0.0867516 0.0
-0.180218 -0.0865181 0.0
-0.178685 -0.0836319 0.0
-0.161085 -0.0780108 0.0
-0.121441 -0.0698287 0.0
-0.0539297 -0.0596589 0.0
0.0461832 -0.0482637 0.0
0.182588 -0.036627 0.0
0.36018 -0.0246559 0.0
0.581801 -0.0116758 0.0
0.848584 -0.00235959 0.0
-0.00431437 -0.000186265 0.0
-0.0111023 -0.00147972 0.0
-0.016417 -0.00394509 0.0
-0.0205954 -0.0070146 0.0
-0.0240195 -0.0106542 0.0
-0.0270488 -0.01473 0.0
-0.0300122 -0.0192237 0.0
-0.0331967 -0.0241325 0.0
-0.0368551 -0.0294897 0.0
-0.0412223 -0.0353427 0.0
-0.0465363 -0.0417475 0.0
-0.0530577 -0.0487558 0.0
-0.0610822 -0.0564001 0.0
-0.0709348 -0.0646738 0.0
-0.0829312 -0.0735052 0.0
-0.0972872 -0.0827272 0.0
-0.11396 -0.0920491 0.0
-0.132417 -0.101038 0.0
-0.151358 -0.109119 0.0
-0.168456 -0.115596 0.0
-0.180179 -0.119701 0.0
-0.181792 -0.120641 0.0
-0.167566 -0.117692 0.0
-0.131198 -0.110274 0.0
-0.0664316 -0.0983166 0.0
0.0319533 -0.0820255 0.0
0.167196 -0.0632303 0.0
0.343995 -0.0426182 0.0
0.566582 -0.0198958 0.0
0.839841 -0.00383902 0.0
-0.00347724 -0.000201242 0.0
-0.00909628 -0.00157663 0.0
-0.0135563 -0.00419258 0.0
-0.0170934 -0.00745373 0.0
-0.0199989 -0.0113295 0.0
-0.02257 -0.0156856 0.0
-0.0250863 -0.0205103 0.0
-0.0277986 -0.0258119 0.0
-0.0309337 -0.0316415 0.0
-0.0347095 -0.0380727 0.0
-0.0393564 -0.0451994 0.0
-0.0451398 -0.053125 0.0
-0.0523771 -0.0619525 0.0
-0.0614381 -0.0717667 0.0
-0.0727146 -0.082608 0.0
-0.0865342 -0.0944358 0.0
-0.103001 -0.107083 0.0
-0.121755 -0.120205 0.0
-0.14168 -0.133238 0.0
-0.160619 -0.145365 0.0
-0.175179 -0.155502 0.0
-0.180708 -0.162308 0.0
-0.171443 -0.164252 0.0
-0.140833 -0.159725 0.0
-0.0820723 -0.147535 0.0
0.0113816 -0.126757 0.0
0.14305 -0.0994018 0.0
0.317563 -0.0678132 0.0
0.54157 -0.0319762 0.0
0.825553 -0.00623301 0.0
-0.0026037 -0.000205378 0.0
-0.00701291 -0.00159429 0.0
-0.010582 -0.00423832 0.0
-0.013443 -0.00754801 0.0
-0.0157933 -0.0114967 0.0
-0.0178655 -0.0159534 0.0
-0.0198862 -0.0209107 0.0
-0.0220646 -0.0263844 0.0
-0.0245936 -0.0324392 0.0
-0.0276634 -0.039171 0.0
-0.0314827 -0.0467074 0.0
-0.0363027 -0.0552034 0.0
-0.0424377 -0.0648373 0.0
-0.0502752 -0.0758003 0.0
-0.0602559 -0.0882763 0.0
-0.0728036 -0.102405 0.0
-0.0881785 -0.118223 0.0
-0.106246 -0.135584 0.0
-0.126181 -0.154055 0.0
-0.146176 -0.172819 0.0
-0.163222 -0.190571 0.0
-0.173034 -0.205457 0.0
-0.170119 -0.215077 0.0
-0.147941 -0.216615 0.0
-0.0992061 -0.207177 0.0
-0.0160076 -0.184675 0.0
0.107873 -0.148255 0.0
0.277387 -0.103604 0.0
0.502622 -0.0505458 0.0
0.802538 -0.0104807 0.0
-0.0017464 -0.000193088 0.0
-0.0049671 -0.00150642 0.0
-0.00764692 -0.00402517 0.0
-0.00982242 -0.00720641 0.0
-0.0116024 -0.0110258 0.0
-0.0131574 -0.0153586 0.0
-0.01466 -0.0201967 0.0
-0.0162743 -0.0255584 0.0
-0.0181525 -0.0315141 0.0
-0.0204473 -0.0381723 0.0
-0.023331 -0.0456837 0.0
-0.0270182 -0.0542428 0.0
-0.03179 -0.0640922 0.0
-0.0380105 -0.0755248 0.0
-0.046123 -0.0888761 0.0
-0.0566023 -0.104498 0.0
-0.0698398 -0.122701 0.0
-0.0859436 -0.14365 0.0
-0.104469 -0.167214 0.0
-0.124132 -0.192781 0.0
-0.142573 -0.219056 0.0
-0.156226 -0.243884 0.0
-0.160282 -0.26415 0.0
-0.148658 -0.275817 0.0
-0.113916 -0.274087 0.0
-0.0470088 -0.25469 0.0
0.0622862 -0.212892 0.0
0.221637 -0.154554 0.0
0.445772 -0.0802525 0.0
0.766258 -0.0185979 0.0
-0.000966682 -0.000158896 0.0
-0.00308711 -0.0012908 0.0
-0.00491812 -0.00350712 0.0
-0.00642364 -0.00635505 0.0
-0.00764098 -0.00980851 0.0
-0.008686 -0.0137506 0.0
-0.00967953 -0.0181672 0.0
-0.0107384 -0.0230726 0.0
-0.0119703 -0.0285329 0.0
-0.013483 -0.0346557 0.0
-0.0154 -0.0415959 0.0
-0.0178797 -0.049563 0.0
-0.0211382 -0.0588331 0.0
-0.0254695 -0.0697647 0.0
-0.0312545 -0.08281 0.0
-0.0389423 -0.0985111 0.0
-0.0489797 -0.117462 0.0