# vtk DataFile Version 3.0
Malha 2D com triângulos e temperatura
ASCII
DATASET UNSTRUCTURED_GRID

POINTS 961 double
0 0 0
1 0 0
1 1 0
0 1 0
0.0333333 0 0
0.0666667 0 0
0.1 0 0
0.133333 0 0
0.166667 0 0
0.2 0 0
0.233333 0 0
0.266667 0 0
0.3 0 0
0.333333 0 0
0.366667 0 0
0.4 0 0
0.433333 0 0
0.466667 0 0
0.5 0 0
0.533333 0 0
0.566667 0 0
0.6 0 0
0.633333 0 0
0.666667 0 0
0.7 0 0
0.733333 0 0
0.766667 0 0
0.8 0 0
0.833333 0 0
0.866667 0 0
0.9 0 0
0.933333 0 0
0.966667 0 0
1 0.0333333 0
1 0.0666667 0
1 0.1 0
1 0.133333 0
1 0.166667 0
1 0.2 0
1 0.233333 0
1 0.266667 0
1 0.3 0
1 0.333333 0
1 0.366667 0
1 0.4 0
1 0.433333 0
1 0.466667 0
1 0.5 0
1 0.533333 0
1 0.566667 0
1 0.6 0
1 0.633333 0
1 0.666667 0
1 0.7 0
1 0.733333 0
1 0.766667 0
1 0.8 0
1 0.833333 0
1 0.866667 0
1 0.9 0
1 0.933333 0
1 0.966667 0
0.966667 1 0
0.933333 1 0
0.9 1 0
0.866667 1 0
0.833333 1 0
0.8 1 0
0.766667 1 0
0.733333 1 0
0.7 1 0
0.666667 1 0
0.633333 1 0
0.6 1 0
0.566667 1 0
0.533333 1 0
0.5 1 0
0.466667 1 0
0.433333 1 0
0.4 1 0
0.366667 1 0
0.333333 1 0
0.3 1 0
0.266667 1 0
0.233333 1 0
0.2 1 0
0.166667 1 0
0.133333 1 0
0.1 1 0
0.0666667 1 0
0.0333333 1 0
0 0.966667 0
0 0.933333 0
0 0.9 0
0 0.866667 0
0 0.833333 0
0 0.8 0
0 0.766667 0
0 0.733333 0
0 0.7 0
0 0.666667 0
0 0.633333 0
0 0.6 0
0 0.566667 0
0 0.533333 0
0 0.5 0
0 0.466667 0
0 0.433333 0
0 0.4 0
0 0.366667 0
0 0.333333 0
0 0.3 0
0 0.266667 0
0 0.233333 0
0 0.2 0
0 0.166667 0
0 0.133333 0
0 0.1 0
0 0.0666667 0
0 0.0333333 0
0.0333333 0.0333333 0
0.0333333 0.0666667 0
0.0333333 0.1 0
0.0333333 0.133333 0
0.0333333 0.166667 0
0.0333333 0.2 0
0.0333333 0.233333 0
0.0333333 0.266667 0
0.0333333 0.3 0
0.0333333 0.333333 0
0.0333333 0.366667 0
0.0333333 0.4 0
0.0333333 0.433333 0
0.0333333 0.466667 0
0.0333333 0.5 0
0.0333333 0.533333 0
0.0333333 0.566667 0
0.0333333 0.6 0
0.0333333 0.633333 0
0.0333333 0.666667 0
0.0333333 0.7 0
0.0333333 0.733333 0
0.0333333 0.766667 0
0.0333333 0.8 0
0.0333333 0.833333 0
0.0333333 0.866667 0
0.0333333 0.9 0
0.0333333 0.933333 0
0.0333333 0.966667 0
0.0666667 0.0333333 0
0.0666667 0.0666667 0
0.0666667 0.1 0
0.0666667 0.133333 0
0.0666667 0.166667 0
0.0666667 0.2 0
0.0666667 0.233333 0
0.0666667 0.266667 0
0.0666667 0.3 0
0.0666667 0.333333 0
0.0666667 0.366667 0
0.0666667 0.4 0
0.0666667 0.433333 0
0.0666667 0.466667 0
0.0666667 0.5 0
0.0666667 0.533333 0
0.0666667 0.566667 0
0.0666667 0.6 0
0.0666667 0.633333 0
0.0666667 0.666667 0
0.0666667 0.7 0
0.0666667 0.733333 0
0.0666667 0.766667 0
0.0666667 0.8 0
0.0666667 0.833333 0
0.0666667 0.866667 0
0.0666667 0.9 0
0.0666667 0.933333 0
0.0666667 0.966667 0
0.1 0.0333333 0
0.1 0.0666667 0
0.1 0.1 0
0.1 0.133333 0
0.1 0.166667 0
0.1 0.2 0
0.1 0.233333 0
0.1 0.266667 0
0.1 0.3 0
0.1 0.333333 0
0.1 0.366667 0
0.1 0.4 0
0.1 0.433333 0
0.1 0.466667 0
0.1 0.5 0
0.1 0.533333 0
0.1 0.566667 0
0.1 0.6 0
0.1 0.633333 0
0.1 0.666667 0
0.1 0.7 0
0.1 0.733333 0
0.1 0.766667 0
0.1 0.8 0
0.1 0.833333 0
0.1 0.866667 0
0.1 0.9 0
0.1 0.933333 0
0.1 0.966667 0
0.133333 0.0333333 0
0.133333 0.0666667 0
0.133333 0.1 0
0.133333 0.133333 0
0.133333 0.166667 0
0.133333 0.2 0
0.133333 0.233333 0
0.133333 0.266667 0
0.133333 0.3 0
0.133333 0.333333 0
0.133333 0.366667 0
0.133333 0.4 0
0.133333 0.433333 0
0.133333 0.466667 0
0.133333 0.5 0
0.133333 0.533333 0
0.133333 0.566667 0
0.133333 0.6 0
0.133333 0.633333 0
0.133333 0.666667 0
0.133333 0.7 0
0.133333 0.733333 0
0.133333 0.766667 0
0.133333 0.8 0
0.133333 0.833333 0
0.133333 0.866667 0
0.133333 0.9 0
0.133333 0.933333 0
0.133333 0.966667 0
0.166667 0.0333333 0
0.166667 0.0666667 0
0.166667 0.1 0
0.166667 0.133333 0
0.166667 0.166667 0
0.166667 0.2 0
0.166667 0.233333 0
0.166667 0.266667 0
0.166667 0.3 0
0.166667 0.333333 0
0.166667 0.366667 0
0.166667 0.4 0
0.166667 0.433333 0
0.166667 0.466667 0
0.166667 0.5 0
0.166667 0.533333 0
0.166667 0.566667 0
0.166667 0.6 0
0.166667 0.633333 0
0.166667 0.666667 0
0.166667 0.7 0
0.166667 0.733333 0
0.166667 0.766667 0
0.166667 0.8 0
0.166667 0.833333 0
0.166667 0.866667 0
0.166667 0.9 0
0.166667 0.933333 0
0.166667 0.966667 0
0.2 0.0333333 0
0.2 0.0666667 0
0.2 0.1 0
0.2 0.133333 0
0.2 0.166667 0
0.2 0.2 0
0.2 0.233333 0
0.2 0.266667 0
0.2 0.3 0
0.2 0.333333 0
0.2 0.366667 0
0.2 0.4 0
0.2 0.433333 0
0.2 0.466667 0
0.2 0.5 0
0.2 0.533333 0
0.2 0.566667 0
0.2 0.6 0
0.2 0.633333 0
0.2 0.666667 0
0.2 0.7 0
0.2 0.733333 0
0.2 0.766667 0
0.2 0.8 0
0.2 0.833333 0
0.2 0.866667 0
0.2 0.9 0
0.2 0.933333 0
0.2 0.966667 0
0.233333 0.0333333 0
0.233333 0.0666667 0
0.233333 0.1 0
0.233333 0.133333 0
0.233333 0.166667 0
0.233333 0.2 0
0.233333 0.233333 0
0.233333 0.266667 0
0.233333 0.3 0
0.233333 0.333333 0
0.233333 0.366667 0
0.233333 0.4 0
0.233333 0.433333 0
0.233333 0.466667 0
0.233333 0.5 0
0.233333 0.533333 0
0.233333 0.566667 0
0.233333 0.6 0
0.233333 0.633333 0
0.233333 0.666667 0
0.233333 0.7 0
0.233333 0.733333 0
0.233333 0.766667 0
0.233333 0.8 0
0.233333 0.833333 0
0.233333 0.866667 0
0.233333 0.9 0
0.233333 0.933333 0
0.233333 0.966667 0
0.266667 0.0333333 0
0.266667 0.0666667 0
0.266667 0.1 0
0.266667 0.133333 0
0.266667 0.166667 0
0.266667 0.2 0
0.266667 0.233333 0
0.266667 0.266667 0
0.266667 0.3 0
0.266667 0.333333 0
0.266667 0.366667 0
0.266667 0.4 0
0.266667 0.433333 0
0.266667 0.466667 0
0.266667 0.5 0
0.266667 0.533333 0
0.266667 0.566667 0
0.266667 0.6 0
0.266667 0.633333 0
0.266667 0.666667 0
0.266667 0.7 0
0.266667 0.733333 0
0.266667 0.766667 0
0.266667 0.8 0
0.266667 0.833333 0
0.266667 0.866667 0
0.266667 0.9 0
0.266667 0.933333 0
0.266667 0.966667 0
0.3 0.0333333 0
0.3 0.0666667 0
0.3 0.1 0
0.3 0.133333 0
0.3 0.166667 0
0.3 0.2 0
0.3 0.233333 0
0.3 0.266667 0
0.3 0.3 0
0.3 0.333333 0
0.3 0.366667 0
0.3 0.4 0
0.3 0.433333 0
0.3 0.466667 0
0.3 0.5 0
0.3 0.533333 0
0.3 0.566667 0
0.3 0.6 0
0.3 0.633333 0
0.3 0.666667 0
0.3 0.7 0
0.3 0.733333 0
0.3 0.766667 0
0.3 0.8 0
0.3 0.833333 0
0.3 0.866667 0
0.3 0.9 0
0.3 0.933333 0
0.3 0.966667 0
0.333333 0.0333333 0
0.333333 0.0666667 0
0.333333 0.1 0
0.333333 0.133333 0
0.333333 0.166667 0
0.333333 0.2 0
0.333333 0.233333 0
0.333333 0.266667 0
0.333333 0.3 0
0.333333 0.333333 0
0.333333 0.366667 0
0.333333 0.4 0
0.333333 0.433333 0
0.333333 0.466667 0
0.333333 0.5 0
0.333333 0.533333 0
0.333333 0.566667 0
0.333333 0.6 0
0.333333 0.633333 0
0.333333 0.666667 0
0.333333 0.7 0
0.333333 0.733333 0
0.333333 0.766667 0
0.333333 0.8 0
0.333333 0.833333 0
0.333333 0.866667 0
0.333333 0.9 0
0.333333 0.933333 0
0.333333 0.966667 0
0.366667 0.0333333 0
0.366667 0.0666667 0
0.366667 0.1 0
0.366667 0.133333 0
0.366667 0.166667 0
0.366667 0.2 0
0.366667 0.233333 0
0.366667 0.266667 0
0.366667 0.3 0
0.366667 0.333333 0
0.366667 0.366667 0
0.366667 0.4 0
0.366667 0.433333 0
0.366667 0.466667 0
0.366667 0.5 0
0.366667 0.533333 0
0.366667 0.566667 0
0.366667 0.6 0
0.366667 0.633333 0
0.366667 0.666667 0
0.366667 0.7 0
0.366667 0.733333 0
0.366667 0.766667 0
0.366667 0.8 0
0.366667 0.833333 0
0.366667 0.866667 0
0.366667 0.9 0
0.366667 0.933333 0
0.366667 0.966667 0
0.4 0.0333333 0
0.4 0.0666667 0
0.4 0.1 0
0.4 0.133333 0
0.4 0.166667 0
0.4 0.2 0
0.4 0.233333 0
0.4 0.266667 0
0.4 0.3 0
0.4 0.333333 0
0.4 0.366667 0
0.4 0.4 0
0.4 0.433333 0
0.4 0.466667 0
0.4 0.5 0
0.4 0.533333 0
0.4 0.566667 0
0.4 0.6 0
0.4 0.633333 0
0.4 0.666667 0
0.4 0.7 0
0.4 0.733333 0
0.4 0.766667 0
0.4 0.8 0
0.4 0.833333 0
0.4 0.866667 0
0.4 0.9 0
0.4 0.933333 0
0.4 0.966667 0
0.433333 0.0333333 0
0.433333 0.0666667 0
0.433333 0.1 0
0.433333 0.133333 0
0.433333 0.166667 0
0.433333 0.2 0
0.433333 0.233333 0
0.433333 0.266667 0
0.433333 0.3 0
0.433333 0.333333 0
0.433333 0.366667 0
0.433333 0.4 0
0.433333 0.433333 0
0.433333 0.466667 0
0.433333 0.5 0
0.433333 0.533333 0
0.433333 0.566667 0
0.433333 0.6 0
0.433333 0.633333 0
0.433333 0.666667 0
0.433333 0.7 0
0.433333 0.733333 0
0.433333 0.766667 0
0.433333 0.8 0
0.433333 0.833333 0
0.433333 0.866667 0
0.433333 0.9 0
0.433333 0.933333 0
0.433333 0.966667 0
0.466667 0.0333333 0
0.466667 0.0666667 0
0.466667 0.1 0
0.466667 0.133333 0
0.466667 0.166667 0
0.466667 0.2 0
0.466667 0.233333 0
0.466667 0.266667 0
0.466667 0.3 0
0.466667 0.333333 0
0.466667 0.366667 0
0.466667 0.4 0
0.466667 0.433333 0
0.466667 0.466667 0
0.466667 0.5 0
0.466667 0.533333 0
0.466667 0.566667 0
0.466667 0.6 0
0.466667 0.633333 0
0.466667 0.666667 0
0.466667 0.7 0
0.466667 0.733333 0
0.466667 0.766667 0
0.466667 0.8 0
0.466667 0.833333 0
0.466667 0.866667 0
0.466667 0.9 0
0.466667 0.933333 0
0.466667 0.966667 0
0.5 0.0333333 0
0.5 0.0666667 0
0.5 0.1 0
0.5 0.133333 0
0.5 0.166667 0
0.5 0.2 0
0.5 0.233333 0
0.5 0.266667 0
0.5 0.3 0
0.5 0.333333 0
0.5 0.366667 0
0.5 0.4 0
0.5 0.433333 0
0.5 0.466667 0
0.5 0.5 0
0.5 0.533333 0
0.5 0.566667 0
0.5 0.6 0
0.5 0.633333 0
0.5 0.666667 0
0.5 0.7 0
0.5 0.733333 0
0.5 0.766667 0
0.5 0.8 0
0.5 0.833333 0
0.5 0.866667 0
0.5 0.9 0
0.5 0.933333 0
0.5 0.966667 0
0.533333 0.0333333 0
0.533333 0.0666667 0
0.533333 0.1 0
0.533333 0.133333 0
0.533333 0.166667 0
0.533333 0.2 0
0.533333 0.233333 0
0.533333 0.266667 0
0.533333 0.3 0
0.533333 0.333333 0
0.533333 0.366667 0
0.533333 0.4 0
0.533333 0.433333 0
0.533333 0.466667 0
0.533333 0.5 0
0.533333 0.533333 0
0.533333 0.566667 0
0.533333 0.6 0
0.533333 0.633333 0
0.533333 0.666667 0
0.533333 0.7 0
0.533333 0.733333 0
0.533333 0.766667 0
0.533333 0.8 0
0.533333 0.833333 0
0.533333 0.866667 0
0.533333 0.9 0
0.533333 0.933333 0
0.533333 0.966667 0
0.566667 0.0333333 0
0.566667 0.0666667 0
0.566667 0.1 0
0.566667 0.133333 0
0.566667 0.166667 0
0.566667 0.2 0
0.566667 0.233333 0
0.566667 0.266667 0
0.566667 0.3 0
0.566667 0.333333 0
0.566667 0.366667 0
0.566667 0.4 0
0.566667 0.433333 0
0.566667 0.466667 0
0.566667 0.5 0
0.566667 0.533333 0
0.566667 0.566667 0
0.566667 0.6 0
0.566667 0.633333 0
0.566667 0.666667 0
0.566667 0.7 0
0.566667 0.733333 0
0.566667 0.766667 0
0.566667 0.8 0
0.566667 0.833333 0
0.566667 0.866667 0
0.566667 0.9 0
0.566667 0.933333 0
0.566667 0.966667 0
0.6 0.0333333 0
0.6 0.0666667 0
0.6 0.1 0
0.6 0.133333 0
[...]
CELL_DATA 900
VECTORS velocity double
-6.39882e-05 6.43389e-05 0.0
-0.000186031 0.000459023 0.0
-0.00022351 0.0011056 0.0
-0.000237415 0.00177001 0.0
-0.000246401 0.00247493 0.0
-0.000258138 0.0032079 0.0
-0.000273499 0.00398267 0.0
-0.000292872 0.00480852 0.0
-0.000316528 0.00569743 0.0
-0.000344935 0.00666219 0.0
-0.000378749 0.00771736 0.0
-0.000418863 0.00887973 0.0
-0.000466473 0.0101691 0.0
-0.000523199 0.0116092 0.0
-0.000591283 0.0132291 0.0
-0.000673901 0.0150655 0.0
-0.000775719 0.0171657 0.0
-0.000903898 0.0195923 0.0
-0.00107008 0.0224313 0.0
-0.00129458 0.0258059 0.0
-0.00161568 0.0299006 0.0
-0.0021111 0.0350063 0.0
-0.0029491 0.0416285 0.0
-0.00450338 0.050626 0.0
-0.00759068 0.0638524 0.0
-0.0138104 0.0840818 0.0
-0.0250358 0.118954 0.0
-0.0391047 0.1685 0.0
-0.0156382 0.253994 0.0
0.21784 0.173414 0.0
-0.00046016 0.000186113 0.0
-0.000953784 0.000947325 0.0
-0.00112298 0.00207927 0.0
-0.0011945 0.00324718 0.0
-0.00124847 0.00448865 0.0
-0.00131274 0.00578504 0.0
-0.00139348 0.00715727 0.0
-0.00149333 0.00862092 0.0
-0.00161434 0.0101964 0.0
-0.00175915 0.0119057 0.0
-0.00193121 0.0137743 0.0
-0.00213506 0.0158312 0.0
-0.00237677 0.0181107 0.0
-0.00266451 0.0206536 0.0
-0.00300946 0.02351 0.0
-0.00342732 0.026742 0.0
-0.00394059 0.030429 0.0
-0.00458254 0.0346744 0.0
-0.00540411 0.0396165 0.0
-0.0064864 0.0454448 0.0
-0.00796465 0.0524251 0.0
-0.0100756 0.0609338 0.0
-0.0132525 0.071528 0.0
-0.0183092 0.0849412 0.0
-0.026706 0.102374 0.0
-0.0407303 0.124431 0.0
-0.0611079 0.152636 0.0
-0.0788712 0.177597 0.0
-0.025273 0.185564 0.0
0.295243 0.109292 0.0
-0.00109845 0.000216899 0.0
-0.00207672 0.00108057 0.0
-0.00242342 0.00234957 0.0
-0.00257508 0.00365292 0.0
-0.00269583 0.00503627 0.0
-0.00283703 0.00648009 0.0
-0.00301262 0.00800777 0.0
-0.00322844 0.00963637 0.0
-0.0034892 0.011388 0.0
-0.00380057 0.0132866 0.0
-0.00416981 0.0153593 0.0
-0.0046064 0.0176369 0.0
-0.00512284 0.0201553 0.0
-0.00573581 0.0229568 0.0
-0.00646794 0.026092 0.0
-0.00735049 0.0296224 0.0
-0.00842746 0.0336245 0.0
-0.00976223 0.0381943 0.0
-0.0114482 0.0434544 0.0
-0.0136267 0.0495631 0.0
-0.0165166 0.0567262 0.0
-0.0204653 0.065205 0.0
-0.02603 0.0753344 0.0
-0.0340976 0.0874412 0.0
-0.0458794 0.101898 0.0
-0.0623951 0.118157 0.0
-0.0798974 0.134866 0.0
-0.0773994 0.144212 0.0
0.0322015 0.126712 0.0
0.441479 0.0666657 0.0
-0.00172536 0.000218858 0.0
-0.00318214 0.00108869 0.0
-0.00369728 0.00236244 0.0
-0.00392334 0.00366682 0.0
-0.00410703 0.00505037 0.0
-0.00432187 0.00649331 0.0
-0.00458857 0.00801912 0.0
-0.00491563 0.0096443 0.0
-0.00531001 0.0113902 0.0
-0.00577994 0.0132798 0.0
-0.00633586 0.0153384 0.0
-0.00699126 0.0175949 0.0
-0.00776372 0.0200818 0.0
-0.0086764 0.0228367 0.0
-0.00976021 0.0259033 0.0
-0.011057 0.0293326 0.0
-0.0126245 0.0331852 0.0
-0.014543 0.0375324 0.0
-0.0169273 0.0424582 0.0
-0.0199429 0.0480594 0.0
-0.0238323 0.0544423 0.0
-0.0289552 0.0617086 0.0
-0.03584 0.0699311 0.0
-0.0452343 0.0790422 0.0
-0.0579362 0.088768 0.0
-0.0738832 0.0979889 0.0
-0.0869698 0.104453 0.0
-0.0704571 0.103082 0.0
0.0658926 0.0802938 0.0
0.511181 0.0386543 0.0
-0.00234864 0.000209956 0.0
-0.00428145 0.00104983 0.0
-0.00496174 0.00228045 0.0
-0.00526081 0.00353849 0.0
-0.00550607 0.00487201 0.0
-0.00579294 0.00626134 0.0
-0.00614851 0.00772903 0.0
-0.00658369 0.00929031 0.0
-0.00710735 0.0109649 0.0
-0.00772982 0.0127735 0.0
-0.00846407 0.0147387 0.0
-0.00932664 0.0168855 0.0
-0.0103388 0.0192415 0.0
-0.0115281 0.0218372 0.0
-0.0129306 0.0247065 0.0
-0.0145941 0.0278867 0.0
-0.0165827 0.0314188 0.0
-0.0189831 0.0353458 0.0
-0.0219137 0.0397111 0.0
-0.0255377 0.0445521 0.0
-0.0300808 0.0498894 0.0
-0.0358535 0.0557034 0.0
-0.0432697 0.0618972 0.0
-0.0528326 0.0682004 0.0
-0.0648591 0.0740819 0.0
-0.0783177 0.0784025 0.0
-0.0855232 0.0790545 0.0
-0.056666 0.0730149 0.0
0.0981082 0.0512566 0.0
0.555674 0.0219706 0.0
-0.0029383 0.000198064 0.0
-0.00532496 0.000992417 0.0
-0.00616096 0.00215646 0.0
-0.00652813 0.00334535 0.0
-0.00683035 0.00460477 0.0
-0.00718386 0.00591561 0.0
-0.00762151 0.00729879 0.0
-0.00815616 0.00876796 0.0
-0.00879811 0.0103407 0.0
-0.00955915 0.0120352 0.0
-0.0104539 0.0138707 0.0
-0.0115007 0.0158679 0.0
-0.0127227 0.0180487 0.0
-0.0141496 0.0204361 0.0
-0.0158191 0.023054 0.0
-0.0177801 0.0259261 0.0
-0.0200962 0.0290745 0.0
-0.0228503 0.0325171 0.0
-0.0261515 0.0362623 0.0
-0.030143 0.040301 0.0
-0.0350111 0.0445925 0.0
-0.0409944 0.0490402 0.0
-0.0483802 0.0534571 0.0
-0.0574528 0.0574973 0.0
-0.0681775 0.0605864 0.0
-0.0789249 0.0617746 0.0
-0.0812193 0.0594353 0.0
-0.0439438 0.051946 0.0
0.121696 0.0337638 0.0
0.58304 0.012805 0.0
-0.0034917 0.000183919 0.0
-0.00630476 0.000922115 0.0
-0.00728635 0.00200371 0.0
-0.00771681 0.00310767 0.0
-0.00807144 0.00427638 0.0
-0.00848601 0.00549157 0.0
-0.00899855 0.00677222 0.0
-0.00962353 0.00813026 0.0
-0.0103722 0.00958102 0.0
-0.0112572 0.0111398 0.0
-0.0122939 0.0128226 0.0
-0.0135015 0.0146457 0.0
-0.0149035 0.0166257 0.0
-0.0165295 0.0187784 0.0
-0.0184163 0.0211185 0.0
-0.0206099 0.0236578 0.0
-0.0231684 0.0264031 0.0
-0.0261651 0.029352 0.0
-0.0296916 0.0324881 0.0
-0.0338622 0.0357712 0.0
-0.038816 0.0391247 0.0
-0.0447165 0.0424159 0.0
-0.0517353 0.0454284 0.0
-0.0599821 0.0478216 0.0
-0.0691785 0.049085 0.0
-0.0773407 0.0485012 0.0
-0.0756094 0.0449169 0.0
-0.0324053 0.0375158 0.0
0.139858 0.0229419 0.0
0.600727 0.00773785 0.0
-0.00400099 0.000167828 0.0
-0.00720647 0.00084108 0.0
-0.00832148 0.00182709 0.0
-0.0088095 0.00283294 0.0
-0.00921131 0.00389707 0.0
-0.00968058 0.00500247 0.0
-0.0102599 0.00616593 0.0
-0.010965 0.00739763 0.0
-0.0118077 0.00871061 0.0
-0.0128008 0.0101175 0.0
-0.0139599 0.011631 0.0
-0.0153039 0.0132635 0.0
-0.0168556 0.0150266 0.0
-0.0186428 0.0169301 0.0
-0.0206991 0.0189813 0.0
-0.0230656 0.0211825 0.0
-0.0257917 0.0235289 0.0
-0.0289373 0.0260047 0.0
-0.0325737 0.0285773 0.0
-0.0367841 0.0311898 0.0
-0.0416625 0.0337499 0.0
-0.0473072 0.036116 0.0
-0.0537991 0.0380788 0.0
-0.0611272 0.0393404 0.0
-0.0688655 0.0394896 0.0
-0.0748467 0.038017 0.0
-0.0700509 0.0341475 0.0
-0.0227997 0.0275182 0.0
0.153528 0.0160813 0.0
0.612607 0.00490822 0.0
-0.00446078 0.000149874 0.0
-0.00802006 0.000750428 0.0
-0.00925496 0.00162947 0.0
-0.00979434 0.00252573 0.0
-0.0102378 0.00347333 0.0
-0.0107552 0.00445678 0.0
-0.011393 0.00549065 0.0
-0.0121677 0.00658343 0.0
-0.0130915 0.00774592 0.0
-0.014177 0.00898825 0.0
-0.0154393 0.0103203 0.0
-0.0168965 0.0117509 0.0
-0.0185696 0.0132878 0.0
-0.0204837 0.014936 0.0
-0.0226682 0.0166969 0.0
-0.0251573 0.0185666 0.0
-0.0279908 0.0205328 0.0
-0.0312141 0.0225717 0.0
-0.0348781 0.024643 0.0
-0.0390374 0.0266836 0.0
-0.0437466 0.0286002 0.0
-0.0490522 0.030259 0.0
-0.0549699 0.0314763 0.0
-0.0614103 0.0320092 0.0
-0.0678652 0.0315458 0.0
-0.0720834 0.0297387 0.0
-0.0649934 0.0260817 0.0
-0.0149599 0.0204489 0.0
0.163882 0.0115635 0.0
0.620892 0.00326818 0.0
-0.00486578 0.000130238 0.0
-0.00873616 0.000651316 0.0
-0.0100761 0.00141352 0.0
-0.0106602 0.00219027 0.0
-0.0111397 0.00301107 0.0
-0.0116983 0.00386226 0.0
-0.012386 0.00475616 0.0
-0.01322 0.00569967 0.0
-0.0142122 0.00670155 0.0
-0.0153748 0.00776973 0.0
-0.0167223 0.00891159 0.0
-0.0182712 0.0101334 0.0
-0.0200405 0.0114395 0.0
-0.0220519 0.0128317 0.0
-0.0243299 0.0143079 0.0
-0.0269019 0.01586 0.0
-0.0297976 0.0174722 0.0
-0.0330489 0.0191175 0.0
-0.0366878 0.0207541 0.0
-0.0407446 0.0223208 0.0
-0.0452426 0.0237315 0.0
-0.0501896 0.0248699 0.0
-0.0555572 0.0255842 0.0
-0.0612094 0.0256859 0.0
-0.0665973 0.0249474 0.0
-0.0694396 0.0231384 0.0
-0.0606605 0.0199335 0.0
-0.00870382 0.0153201 0.0
0.171728 0.00847131 0.0
0.626839 0.00226919 0.0
-0.00521149 0.000109136 0.0
-0.00934681 0.00054494 0.0
-0.010776 0.00118192 0.0
-0.0113978 0.00183079 0.0
-0.0119075 0.00251614 0.0
-0.0125006 0.00322648 0.0
-0.0132299 0.00397189 0.0
-0.0141129 0.00475783 0.0
-0.0151612 0.00559122 0.0
-0.0163867 0.00647812 0.0
-0.0178027 0.00742392 0.0
-0.0194242 0.00843279 0.0
-0.0212679 0.00950709 0.0
-0.0233521 0.0106465 0.0
-0.0256967 0.0118469 0.0
-0.0283221 0.0130989 0.0
-0.0312491 0.0143858 0.0
-0.0344974 0.0156814 0.0
-0.0380835 0.016947 0.0
-0.0420178 0.0181282 0.0
-0.0462997 0.0191514 0.0
-0.0509101 0.0199211 0.0
-0.0557919 0.0203179 0.0
-0.0607833 0.020201 0.0
-0.0653187 0.0194089 0.0
-0.0671124 0.0177918 0.0
-0.0571004 0.0151406 0.0
-0.00379954 0.0114866 0.0
0.177669 0.00626746 0.0
0.631191 0.00162455 0.0
-0.00549406 8.68045e-05 0.0
-0.00984531 0.000432533 0.0
-0.011347 0.000937377 0.0
-0.0119994 0.00145148 0.0
-0.0125334 0.00199436 0.0
-0.0131544 0.00255689 0.0
-0.013917 0.003147 0.0
-0.0148392 0.00376887 0.0
-0.0159322 0.00442778 0.0
-0.0172073 0.00512824 0.0
-0.0186768 0.00587412 0.0
-0.0203542 0.00666817 0.0
-0.0222542 0.00751152 0.0
-0.0243918 0.00840294 0.0
-0.0267826 0.00933794 0.0
-0.0294413 0.0103075 0.0
-0.032381 0.0112968 0.0
-0.0356114 0.012283 0.0
-0.0391365 0.0132335 0.0
-0.0429515 0.0141039 0.0
-0.0470387 0.0148355 0.0
-0.0513602 0.0153543 0.0
-0.0558415 0.0155708 0.0
-0.0603076 0.0153835 0.0
-0.0641879 0.0146807 0.0
-0.0652022 0.0133652 0.0
-0.0542988 0.0113008 0.0
-4.62793e-05 0.00852364 0.0
0.182129 0.00463069 0.0
0.634404 0.00118318 0.0
-0.00571034 6.349e-05 0.0
-0.0102262 0.000315336 0.0
-0.0117831 0.000682596 0.0
-0.0124587 0.00105652 0.0
-0.0130113 0.00145141 0.0
-0.0136535 0.00186075 0.0
-0.0144416 0.00229031 0.0
-0.0153935 0.00274318 0.0
-0.0165204 0.00322316 0.0
-0.0178329 0.00373351 0.0
-0.0193425 0.00427699 0.0
-0.0210615 0.00485545 0.0
-0.0230027 0.00546953 0.0
-0.0251787 0.00611805 0.0
-0.0276015 0.00679735 0.0
-0.0302814 0.00750038 0.0
-0.0332253 0.00821565 0.0
-0.0364352 0.00892593 0.0
-0.039906 0.00960682 0.0
-0.0436218 0.0102254 0.0
-0.0475527 0.010739 0.0
-0.0516487 0.0110945 0.0
-0.0558245 0.0112291 0.0
-0.0598984 0.0110726 0.0
-0.0633 0.01055 0.0
-0.0637551 0.00959778 0.0
-0.0522176 0.00812296 0.0
0.00271531 0.00614657 0.0
0.185405 0.00336111 0.0
0.636763 0.000862842 0.0
-0.00585794 3.94434e-05 0.0
-0.0104854 0.000194598 0.0
-0.0120795 0.000420263 0.0
-0.012771 0.000650048 0.0
-0.0133365 0.000892921 0.0
-0.0139934 0.00114512 0.0
-0.0147992 0.00141032 0.0
-0.0157719 0.00169059 0.0
-0.0169224 0.00198846 0.0
-0.018261 0.00230612 0.0
-0.0197987 0.00264551 0.0
-0.0215467 0.00300803 0.0
-0.0235167 0.00339435 0.0
-0.0257197 0.00380407 0.0
-0.0281651 0.00423522 0.0
-0.03086 0.00468378 0.0
-0.0338072 0.00514294 0.0
-0.0370035 0.0056023 0.0
-0.0404372 0.00604695 0.0
-0.0440853 0.00645661 0.0
-0.0479098 0.0068048 0.0
-0.0518527 0.00705848 0.0
-0.0558221 0.00717827 0.0
-0.0596324 0.00712012 0.0
-0.062713 0.00683584 0.0
-0.0627918 0.00628259 0.0
-0.0508189 0.0053914 0.0
0.00460394 0.00415598 0.0
0.1877 0.00232693 0.0
0.638451 0.0006157 0.0
-0.00593515 1.49235e-05 0.0
-0.01062 7.15723e-05 0.0
-0.0122332 0.00015305 0.0
-0.012933 0.000236137 0.0
-0.0135057 0.000324398 0.0
-0.0141709 0.000416891 0.0
-0.0149869 0.000515235 0.0
-0.0159715 0.000620536 0.0
-0.0171358 0.000734115 0.0
-0.0184898 0.000857266 0.0
-0.0200443 0.000991273 0.0
-0.0218103 0.00113735 0.0
-0.0237986 0.00129656 0.0
-0.0260195 0.00146968 0.0
-0.0284813 0.00165705 0.0
-0.0311893 0.00185834 0.0
-0.0341442 0.0020722 0.0
-0.0373398 0.00229593 0.0
-0.0407611 0.00252494 0.0
-0.0443807 0.00275224 0.0
-0.048156 0.00296779 0.0
-0.0520239 0.00315803 0.0
-0.0558879 0.00330539 0.0
-0.0595588 0.00338824 0.0
-0.0624627 0.00337961 0.0
-0.0623222 0.00324892 0.0
-0.0500718 0.00293805 0.0
0.0057036 0.00240349 0.0
0.189148 0.00143454 0.0
0.63958 0.000410934 0.0
-0.00594102 -9.82276e-06 0.0
-0.0106283 -5.25035e-05 0.0
-0.0122422 -0.00011637 0.0
-0.0129429 -0.000181123 0.0
-0.013517 -0.00024866 0.0
-0.0141842 -0.000317081 0.0
-0.0150027 -0.000386845 0.0
-0.0159907 -0.000457791 0.0
-0.017159 -0.000529783 0.0
-0.0185181 -0.000602404 0.0
-0.0200786 -0.000674946 0.0
-0.0218519 -0.000746312 0.0
-0.0238489 -0.000814926 0.0
-0.0260801 -0.000878624 0.0
-0.0285537 -0.000934545 0.0
-0.0312751 -0.000979025 0.0
-0.0342448 -0.00100752 0.0
-0.0374563 -0.00101459 0.0
-0.0408938 -0.000993964 0.0
-0.0445286 -0.000938804 0.0
-0.0483164 -0.000842189 0.0
-0.0521914 -0.000697938 0.0
-0.0560537 -0.000501923 0.0
-0.059709 -0.000254135 0.0
-0.0625756 3.73897e-05 0.0
-0.0623602 0.000349354 0.0
-0.0499661 0.000623463 0.0
0.00606019 0.000767153 0.0
0.189828 0.000603643 0.0
0.640215 0.000222795 0.0
-0.00587529 -3.45751e-05 0.0
-0.0105099 -0.000176423 0.0
-0.0121061 -0.00038531 0.0
-0.0128001 -0.000597615 0.0
-0.0133699 -0.000820718 0.0
-0.0140327 -0.00104992 0.0
-0.0148461 -0.00128781 0.0
-0.0158285 -0.0015352 0.0
-0.0169911 -0.0017932 0.0
-0.0183446 -0.00206234 0.0
-0.0199003 -0.00234258 0.0
-0.0216702 -0.00263301 0.0
-0.0236662 -0.00293167 0.0
-0.0258998 -0.00323509 0.0
-0.0283807 -0.003538 0.0
-0.0311161 -0.0038328 0.0
-0.0341084 -0.00410906 0.0
-0.0373532 -0.00435306 0.0
-0.0408368 -0.00454742 0.0
-0.0445325 -0.00467092 0.0
-0.0483971 -0.00469888 0.0
-0.0523646 -0.00460416 0.0
-0.0563326 -0.00435939 0.0
-0.0600997 -0.00394115 0.0
-0.0630687 -0.00333705 0.0
-0.0629154 -0.00256268 0.0
-0.0504921 -0.00168109 0.0
0.00570242 -0.000846963 0.0
0.189761 -0.000220253 0.0
0.640368 3.19453e-05 0.0
-0.00573835 -5.90834e-05 0.0
-0.0102657 -0.000298917 0.0
-0.0118259 -0.000651027 0.0
-0.0125058 -0.00100915 0.0
-0.0130653 -0.00138613 0.0
-0.013717 -0.00177462 0.0
-0.0145175 -0.00217934 0.0
-0.0154853 -0.00260224 0.0
-0.0166318 -0.00304577 0.0
-0.0179686 -0.00351159 0.0
-0.0195078 -0.00400054 0.0
-0.0212626 -0.0045122 0.0
-0.0232467 -0.00504452 0.0
-0.0254735 -0.00559319 0.0
-0.0279556 -0.00615093 0.0
-0.0307036 -0.00670668 0.0
-0.033724 -0.00724458 0.0
-0.0370174 -0.00774295 0.0
-0.0405753 -0.00817331 0.0
-0.0443766 -0.00849965 0.0
-0.0483827 -0.00867836 0.0
-0.0525307 -0.00865921 0.0
-0.056717 -0.00838825 0.0
-0.0607321 -0.00781414 0.0
-0.0639569 -0.00689859 0.0
-0.06402 -0.00564357 0.0
-0.051692 -0.00411332 0.0
0.00461073 -0.00252855 0.0
0.188963 -0.001061 0.0
0.640015 -0.00015991 0.0
-0.00553139 -8.30675e-05 0.0
-0.0098979 -0.000418658 0.0
-0.0114041 -0.000910705 0.0
-0.0120622 -0.00141142 0.0
-0.0126055 -0.00193911 0.0
-0.0132392 -0.00248391 0.0
-0.0140186 -0.00305281 0.0
-0.0149621 -0.00364898 0.0
-0.0160818 -0.00427648 0.0
-0.0173898 -0.00493833 0.0
-0.0188996 -0.00563661 0.0
-0.020626 -0.00637185 0.0
-0.0225849 -0.0071425 0.0
-0.0247929 -0.00794407 0.0
-0.0272667 -0.00876818 0.0
-0.0300218 -0.00960122 0.0
-0.0330712 -0.0104229 0.0
-0.0364234 -0.0112044 0.0
-0.0400788 -0.0119067 0.0
-0.0440261 -0.0124789 0.0
-0.0482362 -0.0128572 0.0
-0.0526536 -0.0129652 0.0
-0.0571773 -0.012717 0.0
-0.0615898 -0.012025 0.0
-0.0652439 -0.0108148 0.0
-0.065705 -0.00906316 0.0
-0.0536302 -0.0068279 0.0
0.00268775 -0.00439529 0.0
0.187359 -0.00197045 0.0
0.639162 -0.000356859 0.0
-0.00525638 -0.000106247 0.0
-0.00941005 -0.000534287 0.0
-0.0108447 -0.00116145 0.0
-0.0114734 -0.00180001 0.0
-0.0119942 -0.00247364 0.0
-0.012603 -0.00317021 0.0
-0.0133526 -0.00389907 0.0
-0.0142616 -0.00466483 0.0
-0.0153425 -0.00547336 0.0
-0.0166085 -0.00632942 0.0
-0.0180742 -0.00723677 0.0
-0.0197566 -0.00819755 0.0
-0.0216741 -0.00921149 0.0
-0.0238473 -0.010275 0.0
-0.0262978 -0.0113798 0.0
-0.029048 -0.0125112 0.0
-0.0321197 -0.0136462 0.0
-0.035532 -0.0147506 0.0
-0.0392989 -0.0157761 0.0
-0.0434239 -0.0166577 0.0
-0.0478941 -0.0173104 0.0
-0.0526687 -0.0176282 0.0
-0.0576557 -0.0174862 0.0
-0.0626338 -0.0167483 0.0
-0.0669243 -0.0152862 0.0
-0.068011 -0.0130308 0.0
-0.0563955 -0.0100181 0.0
-0.000187514 -0.00660195 0.0
0.184832 -0.00304658 0.0
0.637741 -0.000588048 0.0
-0.00491606 -0.000128338 0.0
-0.00880702 -0.000644419 0.0
-0.0101531 -0.00140028 0.0
-0.0107451 -0.00217032 0.0
-0.0112371 -0.00298345 0.0
-0.0118134 -0.00382556 0.0
-0.0125243 -0.00470844 0.0
-0.0133879 -0.00563836 0.0
-0.0144173 -0.00662325 0.0
-0.0156264 -0.00767003 0.0
-0.0170314 -0.00878472 0.0
-0.0186511 -0.00997177 0.0
-0.0205072 -0.0112333 0.0
-0.0226241 -0.0125678 0.0
-0.0250297 -0.0139689 0.0
-0.0277542 -0.0154231 0.0
-0.0308303 -0.016907 0.0
-0.0342914 -0.0183837 0.0
-0.038169 -0.0197988 0.0
-0.0424887 -0.0210749 0.0
-0.047262 -0.0221067 0.0
-0.052474 -0.0227561 0.0
-0.0580542 -0.0228508 0.0
-0.063788 -0.0221898 0.0
-0.0689674 -0.0205656 0.0
-0.0709777 -0.0178272 0.0
-0.0601077 -0.0139598 0.0
-0.00419894 -0.00937525 0.0
0.181192 -0.00443246 0.0
0.635616 -0.000898454 0.0
-0.00451401 -0.000149059 0.0
-0.00809512 -0.00074765 0.0
-0.00933656 -0.00162417 0.0
-0.00988433 -0.00251767 0.0
-0.0103413 -0.0034621 0.0
-0.0108776 -0.00444167 0.0
-0.0115403 -0.0054707 0.0
-0.012347 -0.00655729 0.0
-0.013311 -0.00771176 0.0
-0.0144471 -0.00894354 0.0
-0.0157725 -0.0102615 0.0
-0.017308 -0.0116733 0.0
-0.0190779 -0.0131845 0.0
-0.0211112 -0.0147975 0.0
-0.0234417 -0.0165099 0.0
-0.0261088 -0.018312 0.0
-0.0291573 -0.0201835 0.0
-0.0326378 -0.0220894 0.0
-0.0366043 -0.0239736 0.0
-0.0411116 -0.0257515 0.0
-0.0462076 -0.0273009 0.0
-0.0519187 -0.0284516 0.0
-0.0582162 -0.0289774 0.0
-0.0649147 -0.028594 0.0
-0.0712914 -0.0269794 0.0
-0.0746224 -0.0238438 0.0
-0.0649106 -0.0190668 0.0
-0.00960296 -0.0130763 0.0
0.176137 -0.00637157 0.0
0.632535 -0.00136966 0.0
-0.00405458 -0.000168142 0.0
-0.00728207 -0.000842589 0.0
-0.0084037 -0.00183006 0.0
-0.00890027 -0.00283729 0.0
-0.00931578 -0.00390296 0.0
-0.00980433 -0.00500996 0.0
-0.0104092 -0.00617514 0.0
-0.011147 -0.0074086 0.0
-0.0120313 -0.00872323 0.0
-0.0130768 -0.0101314 0.0
-0.0143018 -0.0116454 0.0
-0.0157281 -0.013277 0.0
-0.0173828 -0.0150363 0.0
-0.0192984 -0.0169314 0.0
-0.0215145 -0.0189663 0.0
-0.0240794 -0.0211386 0.0
-0.027051 -0.0234358 0.0
-0.0304984 -0.0258305 0.0
-0.0345028 -0.0282726 0.0
-0.0391558 -0.0306789 0.0
-0.0445546 -0.0329192 0.0
-0.0507887 -0.034798 0.0
-0.0579021 -0.0360348 0.0
-0.0657784 -0.0362449 0.0
-0.0737196 -0.0349506 0.0
-0.078902 -0.0316385 0.0
-0.0709604 -0.0259848 0.0
-0.016767 -0.0183212 0.0
0.169184 -0.00932382 0.0
0.628022 -0.00216957 0.0
-0.00354302 -0.000185351 0.0
-0.0063772 -0.000927869 0.0
-0.00736515 -0.00201486 0.0
-0.00780387 -0.00312432 0.0
-0.00817175 -0.00429926 0.0
-0.00860502 -0.00552157 0.0
-0.00914235 -0.00681057 0.0
-0.0097993 -0.00817844 0.0
-0.0105887 -0.00964081 0.0
-0.0115254 -0.0112133 0.0
-0.0126275 -0.012912 0.0
-0.0139175 -0.0147533 0.0
-0.0154237 -0.0167536 0.0
-0.0171813 -0.0189279 0.0
-0.0192344 -0.0212894 0.0
-0.0216386 -0.0238467 0.0
-0.024464 -0.0266007 0.0
-0.0277986 -0.0295392 0.0
-0.0317519 -0.0326287 0.0
-0.0364589 -0.0358015 0.0
-0.0420793 -0.0389367 0.0
-0.0487905 -0.0418319 0.0
-0.0567521 -0.0441665 0.0
-0.0659814 -0.0454527 0.0
-0.0758835 -0.0450196 0.0
-0.0835935 -0.0420177 0.0
-0.0783114 -0.0357596 0.0
-0.0260949 -0.0262229 0.0
0.159651 -0.0142148 0.0
0.62122 -0.00366115 0.0
-0.00298479 -0.000200543 0.0
-0.00539066 -0.00100214 0.0
-0.00623245 -0.00217528 0.0
-0.00660714 -0.00337353 0.0
-0.00692149 -0.00464362 0.0
-0.00729215 -0.00596681 0.0
-0.00775257 -0.00736466 0.0
-0.00831672 -0.00885143 0.0
-0.00899644 -0.0104455 0.0
-0.0098056 -0.0121657 0.0
-0.0107616 -0.0140324 0.0
-0.0118863 -0.0160673 0.0
-0.0132078 -0.0182933 0.0
-0.0147619 -0.0207343 0.0
-0.0165948 -0.0234147 0.0
-0.0187666 -0.0263579 0.0
-0.021356 -0.0295839 0.0
-0.0244666 -0.0331048 0.0
-0.0282346 -0.0369172 0.0
-0.0328389 -0.0409888 0.0
-0.0385112 -0.0452357 0.0
-0.0455414 -0.0494854 0.0
-0.0542572 -0.053419 0.0
-0.0649048 -0.0564788 0.0
-0.077138 -0.0577975 0.0
-0.08821 -0.0560762 0.0
-0.0869221 -0.0500332 0.0
-0.0382757 -0.0387877 0.0
0.146086 -0.0229601 0.0
0.610151 -0.00666712 0.0
-0.00238799 -0.000213346 0.0
-0.00433717 -0.001063 0.0
-0.00502235 -0.0023059 0.0
-0.00532781 -0.00357668 0.0
-0.00558342 -0.00492473 0.0
-0.00588496 -0.006331 0.0
-0.00626007 -0.00781894 0.0
-0.00672062 -0.00940474 0.0
-0.00727689 -0.0111093 0.0
-0.00794111 -0.0129546 0.0
-0.00872879 -0.0149651 0.0
-0.00965989 -0.0171678 0.0
-0.0107602 -0.0195926 0.0
-0.0120637 -0.022273 0.0
-0.0136149 -0.025246 0.0
-0.0154739 -0.0285527 0.0
-0.0177217 -0.0322369 0.0
-0.0204695 -0.0363438 0.0