# vtk DataFile Version 3.0
Malha 2D com triângulos e temperatura
ASCII
DATASET UNSTRUCTURED_GRID

POINTS 961 double
0 0 0
1 0 0
1 1 0
0 1 0
0.0333333 0 0
0.0666667 0 0
0.1 0 0
0.133333 0 0
0.166667 0 0
0.2 0 0
0.233333 0 0
0.266667 0 0
0.3 0 0
0.333333 0 0
0.366667 0 0
0.4 0 0
0.433333 0 0
0.466667 0 0
0.5 0 0
0.533333 0 0
0.566667 0 0
0.6 0 0
0.633333 0 0
0.666667 0 0
0.7 0 0
0.733333 0 0
0.766667 0 0
0.8 0 0
0.833333 0 0
0.866667 0 0
0.9 0 0
0.933333 0 0
0.966667 0 0
1 0.0333333 0
1 0.0666667 0
1 0.1 0
1 0.133333 0
1 0.166667 0
1 0.2 0
1 0.233333 0
1 0.266667 0
1 0.3 0
1 0.333333 0
1 0.366667 0
1 0.4 0
1 0.433333 0
1 0.466667 0
1 0.5 0
1 0.533333 0
1 0.566667 0
1 0.6 0
1 0.633333 0
1 0.666667 0
1 0.7 0
1 0.733333 0
1 0.766667 0
1 0.8 0
1 0.833333 0
1 0.866667 0
1 0.9 0
1 0.933333 0
1 0.966667 0
0.966667 1 0
0.933333 1 0
0.9 1 0
0.866667 1 0
0.833333 1 0
0.8 1 0
0.766667 1 0
0.733333 1 0
0.7 1 0
0.666667 1 0
0.633333 1 0
0.6 1 0
0.566667 1 0
0.533333 1 0
0.5 1 0
0.466667 1 0
0.433333 1 0
0.4 1 0
0.366667 1 0
0.333333 1 0
0.3 1 0
0.266667 1 0
0.233333 1 0
0.2 1 0
0.166667 1 0
0.133333 1 0
0.1 1 0
0.0666667 1 0
0.0333333 1 0
0 0.966667 0
0 0.933333 0
0 0.9 0
0 0.866667 0
0 0.833333 0
0 0.8 0
0 0.766667 0
0 0.733333 0
0 0.7 0
0 0.666667 0
0 0.633333 0
0 0.6 0
0 0.566667 0
0 0.533333 0
0 0.5 0
0 0.466667 0
0 0.433333 0
0 0.4 0
0 0.366667 0
0 0.333333 0
0 0.3 0
0 0.266667 0
0 0.233333 0
0 0.2 0
0 0.166667 0
0 0.133333 0
0 0.1 0
0 0.0666667 0
0 0.0333333 0
0.0333333 0.0333333 0
0.0333333 0.0666667 0
0.0333333 0.1 0
0.0333333 0.133333 0
0.0333333 0.166667 0
0.0333333 0.2 0
0.0333333 0.233333 0
0.0333333 0.266667 0
0.0333333 0.3 0
0.0333333 0.333333 0
0.0333333 0.366667 0
0.0333333 0.4 0
0.0333333 0.433333 0
0.0333333 0.466667 0
0.0333333 0.5 0
0.0333333 0.533333 0
0.0333333 0.566667 0
0.0333333 0.6 0
0.0333333 0.633333 0
0.0333333 0.666667 0
0.0333333 0.7 0
0.0333333 0.733333 0
0.0333333 0.766667 0
0.0333333 0.8 0
0.0333333 0.833333 0
0.0333333 0.866667 0
0.0333333 0.9 0
0.0333333 0.933333 0
0.0333333 0.966667 0
0.0666667 0.0333333 0
0.0666667 0.0666667 0
0.0666667 0.1 0
0.0666667 0.133333 0
0.0666667 0.166667 0
0.0666667 0.2 0
0.0666667 0.233333 0
0.0666667 0.266667 0
0.0666667 0.3 0
0.0666667 0.333333 0
0.0666667 0.366667 0
0.0666667 0.4 0
0.0666667 0.433333 0
0.0666667 0.466667 0
0.0666667 0.5 0
0.0666667 0.533333 0
0.0666667 0.566667 0
0.0666667 0.6 0
0.0666667 0.633333 0
0.0666667 0.666667 0
0.0666667 0.7 0
0.0666667 0.733333 0
0.0666667 0.766667 0
0.0666667 0.8 0
0.0666667 0.833333 0
0.0666667 0.866667 0
0.0666667 0.9 0
0.0666667 0.933333 0
0.0666667 0.966667 0
0.1 0.0333333 0
0.1 0.0666667 0
0.1 0.1 0
0.1 0.133333 0
0.1 0.166667 0
0.1 0.2 0
0.1 0.233333 0
0.1 0.266667 0
0.1 0.3 0
0.1 0.333333 0
0.1 0.366667 0
0.1 0.4 0
0.1 0.433333 0
0.1 0.466667 0
0.1 0.5 0
0.1 0.533333 0
0.1 0.566667 0
0.1 0.6 0
0.1 0.633333 0
0.1 0.666667 0
0.1 0.7 0
0.1 0.733333 0
0.1 0.766667 0
0.1 0.8 0
0.1 0.833333 0
0.1 0.866667 0
0.1 0.9 0
0.1 0.933333 0
0.1 0.966667 0
0.133333 0.0333333 0
0.133333 0.0666667 0
0.133333 0.1 0
0.133333 0.133333 0
0.133333 0.166667 0
0.133333 0.2 0
0.133333 0.233333 0
0.133333 0.266667 0
0.133333 0.3 0
0.133333 0.333333 0
0.133333 0.366667 0
0.133333 0.4 0
0.133333 0.433333 0
0.133333 0.466667 0
0.133333 0.5 0
0.133333 0.533333 0
0.133333 0.566667 0
0.133333 0.6 0
0.133333 0.633333 0
0.133333 0.666667 0
0.133333 0.7 0
0.133333 0.733333 0
0.133333 0.766667 0
0.133333 0.8 0
0.133333 0.833333 0
0.133333 0.866667 0
0.133333 0.9 0
0.133333 0.933333 0
0.133333 0.966667 0
0.166667 0.0333333 0
0.166667 0.0666667 0
0.166667 0.1 0
0.166667 0.133333 0
0.166667 0.166667 0
0.166667 0.2 0
0.166667 0.233333 0
0.166667 0.266667 0
0.166667 0.3 0
0.166667 0.333333 0
0.166667 0.366667 0
0.166667 0.4 0
0.166667 0.433333 0
0.166667 0.466667 0
0.166667 0.5 0
0.166667 0.533333 0
0.166667 0.566667 0
0.166667 0.6 0
0.166667 0.633333 0
0.166667 0.666667 0
0.166667 0.7 0
0.166667 0.733333 0
0.166667 0.766667 0
0.166667 0.8 0
0.166667 0.833333 0
0.166667 0.866667 0
0.166667 0.9 0
0.166667 0.933333 0
0.166667 0.966667 0
0.2 0.0333333 0
0.2 0.0666667 0
0.2 0.1 0
0.2 0.133333 0
0.2 0.166667 0
0.2 0.2 0
0.2 0.233333 0
0.2 0.266667 0
0.2 0.3 0
0.2 0.333333 0
0.2 0.366667 0
0.2 0.4 0
0.2 0.433333 0
0.2 0.466667 0
0.2 0.5 0
0.2 0.533333 0
0.2 0.566667 0
0.2 0.6 0
0.2 0.633333 0
0.2 0.666667 0
0.2 0.7 0
0.2 0.733333 0
0.2 0.766667 0
0.2 0.8 0
0.2 0.833333 0
0.2 0.866667 0
0.2 0.9 0
0.2 0.933333 0
0.2 0.966667 0
0.233333 0.0333333 0
0.233333 0.0666667 0
0.233333 0.1 0
0.233333 0.133333 0
0.233333 0.166667 0
0.233333 0.2 0
0.233333 0.233333 0
0.233333 0.266667 0
0.233333 0.3 0
0.233333 0.333333 0
0.233333 0.366667 0
0.233333 0.4 0
0.233333 0.433333 0
0.233333 0.466667 0
0.233333 0.5 0
0.233333 0.533333 0
0.233333 0.566667 0
0.233333 0.6 0
0.233333 0.633333 0
0.233333 0.666667 0
0.233333 0.7 0
0.233333 0.733333 0
0.233333 0.766667 0
0.233333 0.8 0
0.233333 0.833333 0
0.233333 0.866667 0
0.233333 0.9 0
0.233333 0.933333 0
0.233333 0.966667 0
0.266667 0.0333333 0
0.266667 0.0666667 0
0.266667 0.1 0
0.266667 0.133333 0
0.266667 0.166667 0
0.266667 0.2 0
0.266667 0.233333 0
0.266667 0.266667 0
0.266667 0.3 0
0.266667 0.333333 0
0.266667 0.366667 0
0.266667 0.4 0
0.266667 0.433333 0
0.266667 0.466667 0
0.266667 0.5 0
0.266667 0.533333 0
0.266667 0.566667 0
0.266667 0.6 0
0.266667 0.633333 0
0.266667 0.666667 0
0.266667 0.7 0
0.266667 0.733333 0
0.266667 0.766667 0
0.266667 0.8 0
0.266667 0.833333 0
0.266667 0.866667 0
0.266667 0.9 0
0.266667 0.933333 0
0.266667 0.966667 0
0.3 0.0333333 0
0.3 0.0666667 0
0.3 0.1 0
0.3 0.133333 0
0.3 0.166667 0
0.3 0.2 0
0.3 0.233333 0
0.3 0.266667 0
0.3 0.3 0
0.3 0.333333 0
0.3 0.366667 0
0.3 0.4 0
0.3 0.433333 0
0.3 0.466667 0
0.3 0.5 0
0.3 0.533333 0
0.3 0.566667 0
0.3 0.6 0
0.3 0.633333 0
0.3 0.666667 0
0.3 0.7 0
0.3 0.733333 0
0.3 0.766667 0
0.3 0.8 0
0.3 0.833333 0
0.3 0.866667 0
0.3 0.9 0
0.3 0.933333 0
0.3 0.966667 0
0.333333 0.0333333 0
0.333333 0.0666667 0
0.333333 0.1 0
0.333333 0.133333 0
0.333333 0.166667 0
0.333333 0.2 0
0.333333 0.233333 0
0.333333 0.266667 0
0.333333 0.3 0
0.333333 0.333333 0
0.333333 0.366667 0
0.333333 0.4 0
0.333333 0.433333 0
0.333333 0.466667 0
0.333333 0.5 0
0.333333 0.533333 0
0.333333 0.566667 0
0.333333 0.6 0
0.333333 0.633333 0
0.333333 0.666667 0
0.333333 0.7 0
0.333333 0.733333 0
0.333333 0.766667 0
0.333333 0.8 0
0.333333 0.833333 0
0.333333 0.866667 0
0.333333 0.9 0
0.333333 0.933333 0
0.333333 0.966667 0
0.366667 0.0333333 0
0.366667 0.0666667 0
0.366667 0.1 0
0.366667 0.133333 0
0.366667 0.166667 0
0.366667 0.2 0
0.366667 0.233333 0
0.366667 0.266667 0
0.366667 0.3 0
0.366667 0.333333 0
0.366667 0.366667 0
0.366667 0.4 0
0.366667 0.433333 0
0.366667 0.466667 0
0.366667 0.5 0
0.366667 0.533333 0
0.366667 0.566667 0
0.366667 0.6 0
0.366667 0.633333 0
0.366667 0.666667 0
0.366667 0.7 0
0.366667 0.733333 0
0.366667 0.766667 0
0.366667 0.8 0
0.366667 0.833333 0
0.366667 0.866667 0
0.366667 0.9 0
0.366667 0.933333 0
0.366667 0.966667 0
0.4 0.0333333 0
0.4 0.0666667 0
0.4 0.1 0
0.4 0.133333 0
0.4 0.166667 0
0.4 0.2 0
0.4 0.233333 0
0.4 0.266667 0
0.4 0.3 0
0.4 0.333333 0
0.4 0.366667 0
0.4 0.4 0
0.4 0.433333 0
0.4 0.466667 0
0.4 0.5 0
0.4 0.533333 0
0.4 0.566667 0
0.4 0.6 0
0.4 0.633333 0
0.4 0.666667 0
0.4 0.7 0
0.4 0.733333 0
0.4 0.766667 0
0.4 0.8 0
0.4 0.833333 0
0.4 0.866667 0
0.4 0.9 0
0.4 0.933333 0
0.4 0.966667 0
0.433333 0.0333333 0
0.433333 0.0666667 0
0.433333 0.1 0
0.433333 0.133333 0
0.433333 0.166667 0
0.433333 0.2 0
0.433333 0.233333 0
0.433333 0.266667 0
0.433333 0.3 0
0.433333 0.333333 0
0.433333 0.366667 0
0.433333 0.4 0
0.433333 0.433333 0
0.433333 0.466667 0
0.433333 0.5 0
0.433333 0.533333 0
0.433333 0.566667 0
0.433333 0.6 0
0.433333 0.633333 0
0.433333 0.666667 0
0.433333 0.7 0
0.433333 0.733333 0
0.433333 0.766667 0
0.433333 0.8 0
0.433333 0.833333 0
0.433333 0.866667 0
0.433333 0.9 0
0.433333 0.933333 0
0.433333 0.966667 0
0.466667 0.0333333 0
0.466667 0.0666667 0
0.466667 0.1 0
0.466667 0.133333 0
0.466667 0.166667 0
0.466667 0.2 0
0.466667 0.233333 0
0.466667 0.266667 0
0.466667 0.3 0
0.466667 0.333333 0
0.466667 0.366667 0
0.466667 0.4 0
0.466667 0.433333 0
0.466667 0.466667 0
0.466667 0.5 0
0.466667 0.533333 0
0.466667 0.566667 0
0.466667 0.6 0
0.466667 0.633333 0
0.466667 0.666667 0
0.466667 0.7 0
0.466667 0.733333 0
0.466667 0.766667 0
0.466667 0.8 0
0.466667 0.833333 0
0.466667 0.866667 0
0.466667 0.9 0
0.466667 0.933333 0
0.466667 0.966667 0
0.5 0.0333333 0
0.5 0.0666667 0
0.5 0.1 0
0.5 0.133333 0
0.5 0.166667 0
0.5 0.2 0
0.5 0.233333 0
0.5 0.266667 0
0.5 0.3 0
0.5 0.333333 0
0.5 0.366667 0
0.5 0.4 0
0.5 0.433333 0
0.5 0.466667 0
0.5 0.5 0
0.5 0.533333 0
0.5 0.566667 0
0.5 0.6 0
0.5 0.633333 0
0.5 0.666667 0
0.5 0.7 0
0.5 0.733333 0
0.5 0.766667 0
0.5 0.8 0
0.5 0.833333 0
0.5 0.866667 0
0.5 0.9 0
0.5 0.933333 0
0.5 0.966667 0
0.533333 0.0333333 0
0.533333 0.0666667 0
0.533333 0.1 0
0.533333 0.133333 0
0.533333 0.166667 0
0.533333 0.2 0
0.533333 0.233333 0
0.533333 0.266667 0
0.533333 0.3 0
0.533333 0.333333 0
0.533333 0.366667 0
0.533333 0.4 0
0.533333 0.433333 0
0.533333 0.466667 0
0.533333 0.5 0
0.533333 0.533333 0
0.533333 0.566667 0
0.533333 0.6 0
0.533333 0.633333 0
0.533333 0.666667 0
0.533333 0.7 0
0.533333 0.733333 0
0.533333 0.766667 0
0.533333 0.8 0
0.533333 0.833333 0
0.533333 0.866667 0
0.533333 0.9 0
0.533333 0.933333 0
0.533333 0.966667 0
0.566667 0.0333333 0
0.566667 0.0666667 0
0.566667 0.1 0
0.566667 0.133333 0
0.566667 0.166667 0
0.566667 0.2 0
0.566667 0.233333 0
0.566667 0.266667 0
0.566667 0.3 0
0.566667 0.333333 0
0.566667 0.366667 0
0.566667 0.4 0
0.566667 0.433333 0
0.566667 0.466667 0
0.566667 0.5 0
0.566667 0.533333 0
0.566667 0.566667 0
0.566667 0.6 0
0.566667 0.633333 0
0.566667 0.666667 0
0.566667 0.7 0
0.566667 0.733333 0
0.566667 0.766667 0
0.566667 0.8 0
0.566667 0.833333 0
0.566667 0.866667 0
0.566667 0.9 0
0.566667 0.933333 0
0.566667 0.966667 0
0.6 0.0333333 0
0.6 0.0666667 0
0.6 0.1 0
0.6 0.133333 0
[...]
CELL_DATA 900
VECTORS velocity double
2.69625e-05 -2.59784e-05 0.0
-9.36421e-05 0.00021076 0.0
-0.000161384 0.000785399 0.0
-0.000194342 0.00147507 0.0
-0.000206962 0.00224748 0.0
-0.000215902 0.00306049 0.0
-0.000226388 0.00391979 0.0
-0.000240616 0.00483224 0.0
-0.000258958 0.00581194 0.0
-0.000281709 0.00687368 0.0
-0.000309257 0.00803461 0.0
-0.000342263 0.00931412 0.0
-0.000381687 0.010735 0.0
-0.000428886 0.0123246 0.0
-0.000485795 0.0141167 0.0
-0.000555242 0.0161538 0.0
-0.000641583 0.0184918 0.0
-0.000752003 0.0212058 0.0
-0.000899402 0.024402 0.0
-0.00110896 0.0282375 0.0
-0.00143304 0.0329585 0.0
-0.00198392 0.038971 0.0
-0.0029991 0.0469836 0.0
-0.00496039 0.0582214 0.0
-0.00873891 0.0748716 0.0
-0.0156999 0.100058 0.0
-0.026694 0.139273 0.0
-0.0386635 0.190141 0.0
-0.0127679 0.265242 0.0
0.218363 0.175784 0.0
-0.000212585 9.66456e-05 0.0
-0.000794594 0.000793322 0.0
-0.00114268 0.0020781 0.0
-0.00133416 0.00357358 0.0
-0.00144109 0.00524156 0.0
-0.00152688 0.00701292 0.0
-0.00161931 0.00889564 0.0
-0.00173144 0.0109023 0.0
-0.00186871 0.0130599 0.0
-0.00203504 0.0153991 0.0
-0.00223454 0.0179557 0.0
-0.00247263 0.0207711 0.0
-0.00275662 0.0238941 0.0
-0.00309658 0.0273828 0.0
-0.00350662 0.0313089 0.0
-0.00400697 0.0357619 0.0
-0.00462741 0.0408577 0.0
-0.00541346 0.0467493 0.0
-0.0064373 0.0536449 0.0
-0.00781823 0.0618349 0.0
-0.00975961 0.0717331 0.0
-0.0126132 0.0839303 0.0
-0.0169694 0.0992605 0.0
-0.0237487 0.118789 0.0
-0.0340676 0.143649 0.0
-0.0486501 0.17393 0.0
-0.0647078 0.206978 0.0
-0.0708065 0.229913 0.0
-0.00481011 0.216087 0.0
0.307829 0.117306 0.0
-0.000785773 0.000161527 0.0
-0.00207322 0.00111315 0.0
-0.00284595 0.00278216 0.0
-0.00328159 0.00468905 0.0
-0.00354826 0.00680173 0.0
-0.00376937 0.00904263 0.0
-0.00400612 0.0114241 0.0
-0.00428783 0.0139623 0.0
-0.00462874 0.0166903 0.0
-0.00503901 0.019645 0.0
-0.00552905 0.0228702 0.0
-0.00611187 0.0264152 0.0
-0.00680471 0.0303378 0.0
-0.00763094 0.034706 0.0
-0.00862276 0.0396017 0.0
-0.0098255 0.045125 0.0
-0.0113043 0.0514013 0.0
-0.0131549 0.0585896 0.0
-0.0155216 0.0668959 0.0
-0.0186258 0.0765882 0.0
-0.0228084 0.0880162 0.0
-0.0285843 0.101622 0.0
-0.0366627 0.117915 0.0
-0.0478195 0.137347 0.0
-0.0621819 0.159859 0.0
-0.0774409 0.183933 0.0
-0.0836759 0.203768 0.0
-0.0552139 0.208131 0.0
0.0813995 0.164713 0.0
0.476218 0.0765274 0.0
-0.00145025 0.000187306 0.0
-0.00350772 0.00124515 0.0
-0.00472055 0.00306785 0.0
-0.00540172 0.00512721 0.0
-0.00583147 0.00739904 0.0
-0.00619482 0.00980413 0.0
-0.00658566 0.0123582 0.0
-0.00704867 0.0150788 0.0
-0.00760644 0.0180002 0.0
-0.00827502 0.0211605 0.0
-0.00907071 0.0246037 0.0
-0.0100135 0.0283794 0.0
-0.0111293 0.0325442 0.0
-0.0124527 0.0371635 0.0
-0.0140306 0.0423136 0.0
-0.0159272 0.0480845 0.0
-0.0182323 0.0545838 0.0
-0.0210736 0.06194 0.0
-0.0246346 0.070307 0.0
-0.0291815 0.0798646 0.0
-0.0350951 0.0908129 0.0
-0.0428941 0.103347 0.0
-0.0531745 0.117573 0.0
-0.0662938 0.133353 0.0
-0.0812856 0.149787 0.0
-0.0933448 0.164684 0.0
-0.0881496 0.171912 0.0
-0.0326931 0.163472 0.0
0.144053 0.115759 0.0
0.568999 0.0476352 0.0
-0.00215626 0.000187418 0.0
-0.00502082 0.00125669 0.0
-0.00668259 0.00309467 0.0
-0.00761067 0.00515991 0.0
-0.0082047 0.00743237 0.0
-0.00871285 0.00983339 0.0
-0.0092614 0.0123802 0.0
-0.00990978 0.0150899 0.0
-0.0106883 0.0179958 0.0
-0.0116184 0.0211338 0.0
-0.0127213 0.024545 0.0
-0.0140228 0.0282745 0.0
-0.0155557 0.0323725 0.0
-0.0173628 0.036895 0.0
-0.0195008 0.0419048 0.0
-0.0220461 0.0474721 0.0
-0.0251018 0.0536748 0.0
-0.0288094 0.0605978 0.0
-0.0333638 0.06833 0.0
-0.0390322 0.076955 0.0
-0.0461694 0.0865315 0.0
-0.055204 0.0970548 0.0
-0.0665044 0.108362 0.0
-0.0799093 0.120002 0.0
-0.0933896 0.130786 0.0
-0.100057 0.138574 0.0
-0.0824119 0.138131 0.0
-0.00351738 0.123987 0.0
0.201696 0.080179 0.0
0.632845 0.0288158 0.0
-0.00284114 0.000178846 0.0
-0.00649832 0.00121167 0.0
-0.008594 0.0029875 0.0
-0.00975718 0.00497773 0.0
-0.0105059 0.00716444 0.0
-0.0111506 0.00947125 0.0
-0.0118483 0.0119152 0.0
-0.0126718 0.0145122 0.0
-0.0136583 0.0172929 0.0
-0.014833 0.0202897 0.0
-0.016221 0.023539 0.0
-0.0178516 0.0270793 0.0
-0.0197618 0.0309525 0.0
-0.0219986 0.0352029 0.0
-0.0246231 0.039877 0.0
-0.027715 0.0450231 0.0
-0.031379 0.0506882 0.0
-0.0357537 0.0569147 0.0
-0.0410216 0.0637322 0.0
-0.0474195 0.0711441 0.0
-0.0552388 0.0791031 0.0
-0.0647819 0.087472 0.0
-0.0761788 0.0959397 0.0
-0.0888188 0.10393 0.0
-0.0998667 0.110257 0.0
-0.101015 0.113091 0.0
-0.0727951 0.108383 0.0
0.0232528 0.0926145 0.0
0.246426 0.0558893 0.0
0.674992 0.0174394 0.0
-0.0034914 0.000166556 0.0
-0.00790607 0.00113679 0.0
-0.0104132 0.00280605 0.0
-0.0117978 0.00467438 0.0
-0.012691 0.00672525 0.0
-0.0134625 0.00888612 0.0
-0.0142986 0.0111729 0.0
-0.0152844 0.0135996 0.0
-0.0164622 0.0161938 0.0
-0.0178606 0.0189836 0.0
-0.0195066 0.022 0.0
-0.0214316 0.0252749 0.0
-0.0236738 0.0288408 0.0
-0.0262812 0.0327306 0.0
-0.0293141 0.0369755 0.0
-0.0328493 0.0416032 0.0
-0.0369842 0.0466342 0.0
-0.0418428 0.0520756 0.0
-0.0475811 0.0579122 0.0
-0.0543899 0.0640919 0.0
-0.0624823 0.0705016 0.0
-0.0720303 0.076936 0.0
-0.082948 0.0830302 0.0
-0.094262 0.0882068 0.0
-0.102539 0.0914159 0.0
-0.0985141 0.0912136 0.0
-0.0615428 0.084533 0.0
0.0469162 0.0694316 0.0
0.281523 0.0394464 0.0
0.703381 0.0106445 0.0
-0.00409346 0.000152667 0.0
-0.00921241 0.00104439 0.0
-0.0121003 0.00257826 0.0
-0.0136888 0.0042935 0.0
-0.0147137 0.00617499 0.0
-0.0156005 0.00815554 0.0
-0.0165618 0.0102495 0.0
-0.0176937 0.0124688 0.0
-0.019043 0.0148375 0.0
-0.0206402 0.0173797 0.0
-0.0225133 0.0201208 0.0
-0.0246937 0.0230862 0.0
-0.0272189 0.0263003 0.0
-0.0301349 0.0297856 0.0
-0.0334976 0.0335601 0.0
-0.0373759 0.0376352 0.0
-0.0418542 0.0420106 0.0
-0.0470354 0.0466685 0.0
-0.0530424 0.0515639 0.0
-0.0600151 0.0566114 0.0
-0.0680898 0.061666 0.0
-0.0773234 0.066499 0.0
-0.0874566 0.0707494 0.0
-0.0972481 0.0738981 0.0
-0.102849 0.0750748 0.0
-0.0943729 0.0731905 0.0
-0.0505254 0.0659698 0.0
0.0669061 0.0524373 0.0
0.308755 0.028314 0.0
0.722931 0.00663262 0.0
-0.0046408 0.000137326 0.0
-0.0103998 0.00093854 0.0
-0.0136325 0.00231551 0.0
-0.0154051 0.00385399 0.0
-0.0165482 0.00554058 0.0
-0.0175379 0.00731468 0.0
-0.0186106 0.00918894 0.0
-0.0198719 0.0111734 0.0
-0.0213722 0.0132887 0.0
-0.0231429 0.0155547 0.0
-0.0252122 0.0179923 0.0
-0.0276101 0.0206208 0.0
-0.0303721 0.0234579 0.0
-0.0335398 0.0265176 0.0
-0.0371625 0.0298082 0.0
-0.0412985 0.0333289 0.0
-0.0460163 0.0370658 0.0
-0.0513949 0.0409855 0.0
-0.057523 0.0450268 0.0
-0.0644919 0.0490901 0.0
-0.0723697 0.053022 0.0
-0.0811187 0.0565996 0.0
-0.0903474 0.0594965 0.0
-0.0986225 0.061274 0.0
-0.10181 0.0612376 0.0
-0.0896238 0.0585812 0.0
-0.0404187 0.0516273 0.0
0.083496 0.0399412 0.0
0.329887 0.0206882 0.0
0.736722 0.0042602 0.0
-0.00512657 0.000120573 0.0
-0.0114523 0.000821295 0.0
-0.0149892 0.00202379 0.0
-0.0169238 0.00336609 0.0
-0.0181705 0.00483683 0.0
-0.0192501 0.00638316 0.0
-0.0204199 0.00801604 0.0
-0.0217935 0.00974389 0.0
-0.0234241 0.011584 0.0
-0.0253436 0.0135527 0.0
-0.0275792 0.0156666 0.0
-0.0301592 0.0179405 0.0
-0.0331157 0.0203866 0.0
-0.0364852 0.023013 0.0
-0.040309 0.0258212 0.0
-0.0446339 0.0288033 0.0
-0.0495114 0.0319377 0.0
-0.0549974 0.0351839 0.0
-0.0611485 0.0384756 0.0
-0.0680127 0.0417124 0.0
-0.0756019 0.0447482 0.0
-0.0838047 0.0473823 0.0
-0.0921328 0.0493353 0.0
-0.0990188 0.0502508 0.0
-0.100134 0.0495861 0.0
-0.0849301 0.0467462 0.0
-0.0315767 0.0404906 0.0
0.0970631 0.030662 0.0
0.346304 0.0153741 0.0
0.746688 0.00284 0.0
-0.00554511 0.000102415 0.0
-0.0123569 0.000694006 0.0
-0.016154 0.00170718 0.0
-0.0182267 0.00283696 0.0
-0.0195617 0.00407431 0.0
-0.020718 0.00537507 0.0
-0.0219706 0.00674866 0.0
-0.0234396 0.00820211 0.0
-0.0251806 0.00974972 0.0
-0.0272252 0.0114048 0.0
-0.0295996 0.0131804 0.0
-0.0323298 0.015088 0.0
-0.0354443 0.017136 0.0
-0.0389741 0.0193288 0.0
-0.0429525 0.0216643 0.0
-0.0474149 0.0241315 0.0
-0.052397 0.0267069 0.0
-0.0579333 0.0293496 0.0
-0.0640523 0.0319965 0.0
-0.0707661 0.0345554 0.0
-0.0780414 0.0368976 0.0
-0.0857112 0.038852 0.0
-0.0932173 0.040189 0.0
-0.098898 0.0406254 0.0
-0.0982878 0.0397411 0.0
-0.0806632 0.0370907 0.0
-0.0240932 0.0317438 0.0
0.108038 0.0236655 0.0
0.359079 0.0115858 0.0
0.754047 0.00196805 0.0
-0.00589124 8.29638e-05 0.0
-0.0131026 0.000558036 0.0
-0.0171125 0.00136941 0.0
-0.0192982 0.00227302 0.0
-0.0207056 0.00326241 0.0
-0.0219252 0.00430287 0.0
-0.0232463 0.0054024 0.0
-0.0247944 0.00656697 0.0
-0.0266265 0.00780821 0.0
-0.0287741 0.00913685 0.0
-0.0312621 0.0105634 0.0
-0.0341146 0.0120967 0.0
-0.0373563 0.0137432 0.0
-0.0410134 0.0155057 0.0
-0.0451119 0.0173813 0.0
-0.0496767 0.0193596 0.0
-0.05473 0.0214191 0.0
-0.0602878 0.0235245 0.0
-0.0663553 0.0256214 0.0
-0.0729157 0.0276326 0.0
-0.0799004 0.0294517 0.0
-0.0871009 0.0309401 0.0
-0.0939078 0.0319152 0.0
-0.098591 0.0321554 0.0
-0.0965845 0.0313341 0.0
-0.0770375 0.0291071 0.0
-0.0179618 0.0247586 0.0
0.116801 0.0182858 0.0
0.369017 0.00881267 0.0
0.759573 0.00141198 0.0
-0.00616055 6.23789e-05 0.0
-0.01368 0.0004148 0.0
-0.0178532 0.00101415 0.0
-0.0201255 0.0016805 0.0
-0.0215891 0.00241012 0.0
-0.0228586 0.00317836 0.0
-0.0242341 0.00399194 0.0
-0.0258453 0.00485596 0.0
-0.0277502 0.0057797 0.0
-0.0299802 0.0067718 0.0
-0.0325592 0.00784079 0.0
-0.0355094 0.00899406 0.0
-0.0388531 0.0102373 0.0
-0.0426121 0.0115734 0.0
-0.0468064 0.0130011 0.0
-0.0514528 0.0145133 0.0
-0.0565623 0.0160946 0.0
-0.0621363 0.0177189 0.0
-0.0681614 0.0193453 0.0
-0.0745981 0.0209154 0.0
-0.0813507 0.0223482 0.0
-0.0881789 0.0235381 0.0
-0.0944342 0.0243448 0.0
-0.0983332 0.024596 0.0
-0.095229 0.0240343 0.0
-0.0741689 0.0223792 0.0
-0.013125 0.0190578 0.0
0.123675 0.0140478 0.0
0.376713 0.0067197 0.0
0.763765 0.00103912 0.0
-0.00634939 4.08612e-05 0.0
-0.0140816 0.000265801 0.0
-0.0183665 0.000645173 0.0
-0.0206984 0.00106568 0.0
-0.0222016 0.00152638 0.0
-0.0235075 0.00201316 0.0
-0.0249235 0.00253148 0.0
-0.0265821 0.00308576 0.0
-0.0285421 0.00368311 0.0
-0.030835 0.00433043 0.0
-0.0334842 0.0050348 0.0
-0.0365108 0.00580288 0.0
-0.0399354 0.00664059 0.0
-0.043777 0.00755239 0.0
-0.0480517 0.00854045 0.0
-0.0527703 0.00960332 0.0
-0.0579358 0.0107344 0.0
-0.063539 0.0119197 0.0
-0.0695527 0.0131356 0.0
-0.0759201 0.0143453 0.0
-0.0825249 0.0154956 0.0
-0.0891011 0.0165131 0.0
-0.0949675 0.0172957 0.0
-0.0982939 0.0177103 0.0
-0.0943605 0.0175482 0.0
-0.0721231 0.0165637 0.0
-0.00951703 0.0142746 0.0
0.128912 0.0106074 0.0
0.382598 0.00508321 0.0
0.766945 0.000773731 0.0
-0.00645497 1.86355e-05 0.0
-0.0143017 0.000112612 0.0
-0.0186456 0.000266344 0.0
-0.0210093 0.00043489 0.0
-0.0225353 0.000620172 0.0
-0.0238639 0.000818842 0.0
-0.0253064 0.00103506 0.0
-0.0269968 0.00127264 0.0
-0.0289946 0.00153659 0.0
-0.0313316 0.00183225 0.0
-0.0340314 0.00216554 0.0
-0.037115 0.00254287 0.0
-0.0406025 0.00297105 0.0
-0.0445118 0.00345707 0.0
-0.0488573 0.0040077 0.0
-0.0536469 0.00462889 0.0
-0.058879 0.00532471 0.0
-0.064538 0.00609622 0.0
-0.0705878 0.00693938 0.0
-0.0769592 0.00784219 0.0
-0.0835198 0.00878086 0.0
-0.089982 0.00971533 0.0
-0.0956334 0.0105788 0.0
-0.0985967 0.0112695 0.0
-0.0940787 0.0116112 0.0
-0.0709426 0.0113702 0.0
-0.00708199 0.010116 0.0
0.132702 0.00770473 0.0
0.386976 0.00374704 0.0
0.769326 0.000571422 0.0
-0.00647536 -4.06467e-06 0.0
-0.0143366 -4.31645e-05 0.0
-0.0186857 -0.000118399 0.0
-0.0210532 -0.000205366 0.0
-0.022585 -0.000299334 0.0
-0.0239223 -0.000392851 0.0
-0.025377 -0.00048316 0.0
-0.0270834 -0.000567162 0.0
-0.0291014 -0.000641991 0.0
-0.0314636 -0.000703885 0.0
-0.0341944 -0.000748033 0.0
-0.0373159 -0.000768175 0.0
-0.0408491 -0.000756352 0.0
-0.0448131 -0.000702627 0.0
-0.0492229 -0.000594894 0.0
-0.0540868 -0.000418807 0.0
-0.0594027 -0.000157985 0.0
-0.0651537 0.000205423 0.0
-0.0712992 0.000689287 0.0
-0.0777629 0.00130924 0.0
-0.0843999 0.00207431 0.0
-0.0909024 0.00298006 0.0
-0.0965247 0.00399516 0.0
-0.0993353 0.00504506 0.0
-0.0944595 0.00597417 0.0
-0.0706627 0.00654021 0.0
-0.00578865 0.00633438 0.0
0.135163 0.00512951 0.0
0.390049 0.00259225 0.0
0.77104 0.000403846 0.0
-0.00640959 -2.70468e-05 0.0
-0.0141844 -0.000200015 0.0
-0.0184847 -0.000505096 0.0
-0.0208277 -0.000848387 0.0
-0.022348 -0.00122261 0.0
-0.0236798 -0.0016097 0.0
-0.025132 -0.00200851 0.0
-0.0268378 -0.00241683 0.0
-0.0288577 -0.00283414 0.0
-0.0312254 -0.0032585 0.0
-0.0339669 -0.00368646 0.0
-0.0371064 -0.00411214 0.0
-0.0406677 -0.00452668 0.0
-0.0446729 -0.00491735 0.0
-0.0491407 -0.0052667 0.0
-0.0540834 -0.00555173 0.0
-0.0595028 -0.00574305 0.0
-0.065385 -0.00580474 0.0
-0.0716915 -0.00569467 0.0
-0.0783446 -0.00536608 0.0
-0.0851916 -0.00477239 0.0
-0.0919055 -0.00387658 0.0
-0.0977022 -0.00266951 0.0
-0.100585 -0.00119879 0.0
-0.095579 0.0003878 0.0
-0.0713261 0.00182052 0.0
-0.00561991 0.00269431 0.0
0.136373 0.00269365 0.0
0.391925 0.00152105 0.0
0.772156 0.000251519 0.0
-0.0062573 -5.00768e-05 0.0
-0.0138453 -0.000356242 0.0
-0.0180432 -0.000889481 0.0
-0.0203334 -0.00148709 0.0
-0.0218245 -0.00213964 0.0
-0.023136 -0.00281887 0.0
-0.0245699 -0.0035255 0.0
-0.0262576 -0.00425852 0.0
-0.0282596 -0.00502015 0.0
-0.0306112 -0.00581067 0.0
-0.0333406 -0.00662856 0.0
-0.0364755 -0.00746904 0.0
-0.0400437 -0.00832305 0.0
-0.0440728 -0.00917593 0.0
-0.0485882 -0.0100057 0.0
-0.0536101 -0.0107814 0.0
-0.0591494 -0.011461 0.0
-0.0652017 -0.0119898 0.0
-0.0717376 -0.0122993 0.0
-0.0786852 -0.0123079 0.0
-0.08589 -0.0119256 0.0
-0.0930073 -0.0110649 0.0
-0.0992064 -0.00966514 0.0
-0.102401 -0.00773675 0.0
-0.0974868 -0.00541893 0.0
-0.0729891 -0.0030277 0.0
-0.00664371 -0.00101142 0.0
0.136299 0.000201593 0.0
0.392644 0.000416988 0.0
0.772704 9.36862e-05 0.0
-0.00601934 -7.28497e-05 0.0
-0.0133215 -0.000509906 0.0
-0.0173641 -0.00126694 0.0
-0.0195737 -0.002114 0.0
-0.0210177 -0.0030399 0.0
-0.0222934 -0.00400682 0.0
-0.0236925 -0.00501766 0.0
-0.025343 -0.00607307 0.0
-0.0273054 -0.00717848 0.0
-0.0296167 -0.00833711 0.0
-0.0323081 -0.00955022 0.0
-0.0354114 -0.0108152 0.0
-0.0389602 -0.0121241 0.0
-0.0429895 -0.013462 0.0
-0.0475343 -0.0148042 0.0
-0.052627 -0.0161133 0.0
-0.0582933 -0.0173363 0.0
-0.0645456 -0.0184005 0.0
-0.0713725 -0.0192103 0.0
-0.0787179 -0.0196463 0.0
-0.0864352 -0.0195674 0.0
-0.0941679 -0.0188241 0.0
-0.101035 -0.0172871 0.0
-0.104838 -0.0149081 0.0
-0.100296 -0.0117971 0.0
-0.0757398 -0.0083219 0.0
-0.00883712 -0.00501584 0.0
0.13495 -0.00248672 0.0
0.392083 -0.000796936 0.0
0.772611 -9.14486e-05 0.0
-0.00569761 -9.50541e-05 0.0
-0.0126177 -0.000658984 0.0
-0.0164537 -0.00163261 0.0
-0.0185549 -0.00272115 0.0
-0.0199338 -0.00391215 0.0
-0.0211575 -0.00515894 0.0
-0.022504 -0.00646705 0.0
-0.0240966 -0.00783927 0.0
-0.0259956 -0.00928489 0.0
-0.0282393 -0.0108109 0.0
-0.0308623 -0.0124225 0.0
-0.0339012 -0.0141208 0.0
-0.0373963 -0.0159009 0.0
-0.0413921 -0.0177498 0.0
-0.045936 -0.0196431 0.0
-0.0510767 -0.0215406 0.0
-0.0568608 -0.0233812 0.0
-0.0633259 -0.025077 0.0
-0.0704899 -0.026507 0.0
-0.0783264 -0.0275114 0.0
-0.0867114 -0.0278913 0.0
-0.0952886 -0.0274193 0.0
-0.103128 -0.0258733 0.0
-0.107899 -0.0231147 0.0
-0.10409 -0.0191932 0.0
-0.0797668 -0.0145091 0.0
-0.0124692 -0.00968455 0.0
0.13215 -0.00558459 0.0
0.390184 -0.00220538 0.0
0.771808 -0.000322405 0.0
-0.00529513 -0.000116388 0.0
-0.0117407 -0.000801383 0.0
-0.0153208 -0.00198137 0.0
-0.0172871 -0.00330012 0.0
-0.0185826 -0.00474434 0.0
-0.0197375 -0.00625948 0.0
-0.0210125 -0.00785404 0.0
-0.022525 -0.00953357 0.0
-0.0243338 -0.0113119 0.0
-0.0264789 -0.0132007 0.0
-0.0289981 -0.0152105 0.0
-0.0319327 -0.0173478 0.0
-0.0353305 -0.0196136 0.0
-0.0392464 -0.022 0.0
-0.0437424 -0.0244869 0.0
-0.0488874 -0.0270362 0.0
-0.0547548 -0.029585 0.0
-0.0614172 -0.0320362 0.0
-0.0689351 -0.0342478 0.0
-0.0773305 -0.0360217 0.0
-0.0865251 -0.0370958 0.0
-0.0961855 -0.0371484 0.0
-0.105346 -0.0358324 0.0
-0.111529 -0.0328696 0.0
-0.108931 -0.0281936 0.0
-0.0852465 -0.0221949 0.0
-0.0177904 -0.0155822 0.0
0.1276 -0.0095491 0.0
0.386651 -0.004046 0.0
0.770131 -0.000644572 0.0
-0.00481613 -0.000136569 0.0
-0.0107002 -0.000934929 0.0
-0.0139778 -0.00230776 0.0
-0.0157836 -0.00384183 0.0
-0.0169779 -0.0055234 0.0
-0.0180467 -0.00729114 0.0
-0.0192305 -0.00915686 0.0
-0.0206388 -0.0111294 0.0
-0.0223286 -0.0132277 0.0
-0.0243406 -0.0154692 0.0
-0.0267151 -0.0178712 0.0
-0.0294979 -0.0204476 0.0
-0.0327438 -0.0232081 0.0
-0.0365181 -0.0261542 0.0
-0.0408986 -0.0292754 0.0
-0.0459769 -0.0325431 0.0
-0.0518585 -0.0359011 0.0
-0.05866 -0.0392538 0.0
-0.0665002 -0.0424495 0.0
-0.0754735 -0.0452606 0.0
-0.0855799 -0.047364 0.0
-0.0965487 -0.0483319 0.0
-0.107411 -0.0476569 0.0
-0.115548 -0.0448553 0.0
-0.114803 -0.039654 0.0
-0.0923669 -0.0323367 0.0
-0.0251631 -0.0236435 0.0
0.120833 -0.0151452 0.0
0.380963 -0.00676359 0.0
0.76723 -0.00116672 0.0
-0.00426582 -0.000155395 0.0
-0.00950824 -0.00105733 0.0
-0.0124404 -0.00260569 0.0
-0.0140616 -0.00433596 0.0
-0.0151372 -0.00623437 0.0
-0.0161027 -0.00823402 0.0
-0.0171749 -0.0103502 0.0
-0.018454 -0.0125954 0.0
-0.019994 -0.0149941 0.0
-0.0218353 -0.0175707 0.0
-0.0240194 -0.0203501 0.0
-0.0265954 -0.0233561 0.0
-0.0296234 -0.0266099 0.0
-0.0331781 -0.0301268 0.0
-0.0373519 -0.0339128 0.0
-0.0422594 -0.0379575 0.0
-0.0480408 -0.0422242 0.0
-0.0548643 -0.0466348 0.0
-0.0629221 -0.0510479 0.0
-0.0724082 -0.0552279 0.0
-0.083445 -0.0588087 0.0
-0.0958851 -0.0612608 0.0
-0.108824 -0.061891 0.0
-0.119544 -0.0599362 0.0
-0.121508 -0.0547839 0.0
-0.101257 -0.0464215 0.0
-0.0350833 -0.0354468 0.0
0.111039 -0.0237236 0.0
0.372129 -0.0111951 0.0
0.762374 -0.00211943 0.0
-0.00365121 -0.000172601 0.0
-0.00818115 -0.00116542 0.0
-0.0107294 -0.00286681 0.0
-0.0121443 -0.00476862 0.0
-0.0130847 -0.00685729 0.0
-0.01393 -0.00906162 0.0
-0.0148705 -0.0114003 0.0
-0.0159953 -0.0138896 0.0
-0.0173541 -0.0165599 0.0
-0.0189855 -0.0194426 0.0
-0.0209304 -0.0225716 0.0
-0.0232389 -0.0259821 0.0
-0.0259738 -0.0297095 0.0
-0.0292157 -0.0337873 0.0
-0.0330681 -0.0382446 0.0
-0.0376652 -0.0430996 0.0
-0.0431797 -0.0483506 0.0
-0.0498334 -0.0539596 0.0
-0.057902 -0.0598259 0.0
-0.0677043 -0.0657464 0.0
-0.0795353 -0.0713574 0.0
-0.0934524 -0.0760677 0.0
-0.108728 -0.0790104 0.0
-0.122657 -0.0790883 0.0
-0.128376 -0.0751892 0.0
-0.111689 -0.0666841 0.0
-0.0479675 -0.053623 0.0
0.0971336 -0.0376764 0.0
0.358564 -0.0189204 0.0
0.754209 -0.00398288 0.0
-0.00297965 -0.000187765 0.0
-0.00673789 -0.00125382 0.0
-0.00886935 -0.00307695 0.0
-0.0100585 -0.00511655 0.0
-0.0108483 -0.0073591 0.0
-0.0115575 -0.00973052 0.0
-0.0123469 -0.0122522 0.0
-0.0132933 -0.0149441 0.0
-0.0144403 -0.0178421 0.0
-0.0158226 -0.0209844 0.0
-0.0174787 -0.0244143 0.0
-0.0194562 -0.0281788 0.0
-0.0218165 -0.0323292 0.0
-0.0246408 -0.0369204 0.0
-0.0280368 -0.0420099 0.0
-0.0321495 -0.0476543 0.0
-0.0371753 -0.0539027 0.0
-0.0433808 -0.060783 0.0
-0.0511233 -0.068277 0.0
-0.0608594 -0.0762746 0.0
-0.0731002 -0.0844991 0.0
-0.0882037 -0.0923987 0.0
-0.105781 -0.0990261 0.0
-0.123366 -0.102976 0.0
-0.134003 -0.102504 0.0
-0.122896 -0.0959242 0.0
-0.0643648 -0.0820103 0.0
0.0769454 -0.0609807 0.0
0.337009 -0.0329555 0.0
0.739711 -0.00782032 0.0
-0.00226647 -0.000198415 0.0
-0.00521311 -0.00130858 0.0
-0.00690345 -0.00320478 0.0
-0.0078518 -0.00533084 0.0
-0.00847832 -0.00767212 0.0
-0.00903822 -0.010153 0.0
-0.0096608 -0.0127964 0.0
-0.0104088 -0.0156249 0.0
-0.0113179 -0.0186787 0.0
-0.0124177 -0.022002 0.0
-0.013741 -0.0256461 0.0
-0.0153295 -0.0296692 0.0
-0.0172384 -0.0341377 0.0
-0.0195421 -0.039128 0.0
-0.0223424 -0.0447279 0.0
-0.0257816 -0.0510374 0.0
-0.0300611 -0.058168 0.0
-0.0354695 -0.0662371 0.0
-0.0424202 -0.0753525 0.0
-0.051489 -0.0855748 0.0
-0.0634105 -0.0968413 0.0
-0.078912 -0.108828 0.0
-0.0981223 -0.120742 0.0
-0.119144 -0.131083 0.0
-0.135421 -0.137506 0.0
-0.132118 -0.136856 0.0
-0.0828901 -0.125564 0.0
0.0496045 -0.0999066 0.0
0.304053 -0.058656 0.0
0.714161 -0.0158012 0.0