# vtk DataFile Version 3.0
Malha 2D com triângulos e temperatura
ASCII
DATASET UNSTRUCTURED_GRID

POINTS 961 double
0 0 0
1 0 0
1 1 0
0 1 0
0.0333333 0 0
0.0666667 0 0
0.1 0 0
0.133333 0 0
0.166667 0 0
0.2 0 0
0.233333 0 0
0.266667 0 0
0.3 0 0
0.333333 0 0
0.366667 0 0
0.4 0 0
0.433333 0 0
0.466667 0 0
0.5 0 0
0.533333 0 0
0.566667 0 0
0.6 0 0
0.633333 0 0
0.666667 0 0
0.7 0 0
0.733333 0 0
0.766667 0 0
0.8 0 0
0.833333 0 0
0.866667 0 0
0.9 0 0
0.933333 0 0
0.966667 0 0
1 0.0333333 0
1 0.0666667 0
1 0.1 0
1 0.133333 0
1 0.166667 0
1 0.2 0
1 0.233333 0
1 0.266667 0
1 0.3 0
1 0.333333 0
1 0.366667 0
1 0.4 0
1 0.433333 0
1 0.466667 0
1 0.5 0
1 0.533333 0
1 0.566667 0
1 0.6 0
1 0.633333 0
1 0.666667 0
1 0.7 0
1 0.733333 0
1 0.766667 0
1 0.8 0
1 0.833333 0
1 0.866667 0
1 0.9 0
1 0.933333 0
1 0.966667 0
0.966667 1 0
0.933333 1 0
0.9 1 0
0.866667 1 0
0.833333 1 0
0.8 1 0
0.766667 1 0
0.733333 1 0
0.7 1 0
0.666667 1 0
0.633333 1 0
0.6 1 0
0.566667 1 0
0.533333 1 0
0.5 1 0
0.466667 1 0
0.433333 1 0
0.4 1 0
0.366667 1 0
0.333333 1 0
0.3 1 0
0.266667 1 0
0.233333 1 0
0.2 1 0
0.166667 1 0
0.133333 1 0
0.1 1 0
0.0666667 1 0
0.0333333 1 0
0 0.966667 0
0 0.933333 0
0 0.9 0
0 0.866667 0
0 0.833333 0
0 0.8 0
0 0.766667 0
0 0.733333 0
0 0.7 0
0 0.666667 0
0 0.633333 0
0 0.6 0
0 0.566667 0
0 0.533333 0
0 0.5 0
0 0.466667 0
0 0.433333 0
0 0.4 0
0 0.366667 0
0 0.333333 0
0 0.3 0
0 0.266667 0
0 0.233333 0
0 0.2 0
0 0.166667 0
0 0.133333 0
0 0.1 0
0 0.0666667 0
0 0.0333333 0
0.0333333 0.0333333 0
0.0333333 0.0666667 0
0.0333333 0.1 0
0.0333333 0.133333 0
0.0333333 0.166667 0
0.0333333 0.2 0
0.0333333 0.233333 0
0.0333333 0.266667 0
0.0333333 0.3 0
0.0333333 0.333333 0
0.0333333 0.366667 0
0.0333333 0.4 0
0.0333333 0.433333 0
0.0333333 0.466667 0
0.0333333 0.5 0
0.0333333 0.533333 0
0.0333333 0.566667 0
0.0333333 0.6 0
0.0333333 0.633333 0
0.0333333 0.666667 0
0.0333333 0.7 0
0.0333333 0.733333 0
0.0333333 0.766667 0
0.0333333 0.8 0
0.0333333 0.833333 0
0.0333333 0.866667 0
0.0333333 0.9 0
0.0333333 0.933333 0
0.0333333 0.966667 0
0.0666667 0.0333333 0
0.0666667 0.0666667 0
0.0666667 0.1 0
0.0666667 0.133333 0
0.0666667 0.166667 0
0.0666667 0.2 0
0.0666667 0.233333 0
0.0666667 0.266667 0
0.0666667 0.3 0
0.0666667 0.333333 0
0.0666667 0.366667 0
0.0666667 0.4 0
0.0666667 0.433333 0
0.0666667 0.466667 0
0.0666667 0.5 0
0.0666667 0.533333 0
0.0666667 0.566667 0
0.0666667 0.6 0
0.0666667 0.633333 0
0.0666667 0.666667 0
0.0666667 0.7 0
0.0666667 0.733333 0
0.0666667 0.766667 0
0.0666667 0.8 0
0.0666667 0.833333 0
0.0666667 0.866667 0
0.0666667 0.9 0
0.0666667 0.933333 0
0.0666667 0.966667 0
0.1 0.0333333 0
0.1 0.0666667 0
0.1 0.1 0
0.1 0.133333 0
0.1 0.166667 0
0.1 0.2 0
0.1 0.233333 0
0.1 0.266667 0
0.1 0.3 0
0.1 0.333333 0
0.1 0.366667 0
0.1 0.4 0
0.1 0.433333 0
0.1 0.466667 0
0.1 0.5 0
0.1 0.533333 0
0.1 0.566667 0
0.1 0.6 0
0.1 0.633333 0
0.1 0.666667 0
0.1 0.7 0
0.1 0.733333 0
0.1 0.766667 0
0.1 0.8 0
0.1 0.833333 0
0.1 0.866667 0
0.1 0.9 0
0.1 0.933333 0
0.1 0.966667 0
0.133333 0.0333333 0
0.133333 0.0666667 0
0.133333 0.1 0
0.133333 0.133333 0
0.133333 0.166667 0
0.133333 0.2 0
0.133333 0.233333 0
0.133333 0.266667 0
0.133333 0.3 0
0.133333 0.333333 0
0.133333 0.366667 0
0.133333 0.4 0
0.133333 0.433333 0
0.133333 0.466667 0
0.133333 0.5 0
0.133333 0.533333 0
0.133333 0.566667 0
0.133333 0.6 0
0.133333 0.633333 0
0.133333 0.666667 0
0.133333 0.7 0
0.133333 0.733333 0
0.133333 0.766667 0
0.133333 0.8 0
0.133333 0.833333 0
0.133333 0.866667 0
0.133333 0.9 0
0.133333 0.933333 0
0.133333 0.966667 0
0.166667 0.0333333 0
0.166667 0.0666667 0
0.166667 0.1 0
0.166667 0.133333 0
0.166667 0.166667 0
0.166667 0.2 0
0.166667 0.233333 0
0.166667 0.266667 0
0.166667 0.3 0
0.166667 0.333333 0
0.166667 0.366667 0
0.166667 0.4 0
0.166667 0.433333 0
0.166667 0.466667 0
0.166667 0.5 0
0.166667 0.533333 0
0.166667 0.566667 0
0.166667 0.6 0
0.166667 0.633333 0
0.166667 0.666667 0
0.166667 0.7 0
0.166667 0.733333 0
0.166667 0.766667 0
0.166667 0.8 0
0.166667 0.833333 0
0.166667 0.866667 0
0.166667 0.9 0
0.166667 0.933333 0
0.166667 0.966667 0
0.2 0.0333333 0
0.2 0.0666667 0
0.2 0.1 0
0.2 0.133333 0
0.2 0.166667 0
0.2 0.2 0
0.2 0.233333 0
0.2 0.266667 0
0.2 0.3 0
0.2 0.333333 0
0.2 0.366667 0
0.2 0.4 0
0.2 0.433333 0
0.2 0.466667 0
0.2 0.5 0
0.2 0.533333 0
0.2 0.566667 0
0.2 0.6 0
0.2 0.633333 0
0.2 0.666667 0
0.2 0.7 0
0.2 0.733333 0
0.2 0.766667 0
0.2 0.8 0
0.2 0.833333 0
0.2 0.866667 0
0.2 0.9 0
0.2 0.933333 0
0.2 0.966667 0
0.233333 0.0333333 0
0.233333 0.0666667 0
0.233333 0.1 0
0.233333 0.133333 0
0.233333 0.166667 0
0.233333 0.2 0
0.233333 0.233333 0
0.233333 0.266667 0
0.233333 0.3 0
0.233333 0.333333 0
0.233333 0.366667 0
0.233333 0.4 0
0.233333 0.433333 0
0.233333 0.466667 0
0.233333 0.5 0
0.233333 0.533333 0
0.233333 0.566667 0
0.233333 0.6 0
0.233333 0.633333 0
0.233333 0.666667 0
0.233333 0.7 0
0.233333 0.733333 0
0.233333 0.766667 0
0.233333 0.8 0
0.233333 0.833333 0
0.233333 0.866667 0
0.233333 0.9 0
0.233333 0.933333 0
0.233333 0.966667 0
0.266667 0.0333333 0
0.266667 0.0666667 0
0.266667 0.1 0
0.266667 0.133333 0
0.266667 0.166667 0
0.266667 0.2 0
0.266667 0.233333 0
0.266667 0.266667 0
0.266667 0.3 0
0.266667 0.333333 0
0.266667 0.366667 0
0.266667 0.4 0
0.266667 0.433333 0
0.266667 0.466667 0
0.266667 0.5 0
0.266667 0.533333 0
0.266667 0.566667 0
0.266667 0.6 0
0.266667 0.633333 0
0.266667 0.666667 0
0.266667 0.7 0
0.266667 0.733333 0
0.266667 0.766667 0
0.266667 0.8 0
0.266667 0.833333 0
0.266667 0.866667 0
0.266667 0.9 0
0.266667 0.933333 0
0.266667 0.966667 0
0.3 0.0333333 0
0.3 0.0666667 0
0.3 0.1 0
0.3 0.133333 0
0.3 0.166667 0
0.3 0.2 0
0.3 0.233333 0
0.3 0.266667 0
0.3 0.3 0
0.3 0.333333 0
0.3 0.366667 0
0.3 0.4 0
0.3 0.433333 0
0.3 0.466667 0
0.3 0.5 0
0.3 0.533333 0
0.3 0.566667 0
0.3 0.6 0
0.3 0.633333 0
0.3 0.666667 0
0.3 0.7 0
0.3 0.733333 0
0.3 0.766667 0
0.3 0.8 0
0.3 0.833333 0
0.3 0.866667 0
0.3 0.9 0
0.3 0.933333 0
0.3 0.966667 0
0.333333 0.0333333 0
0.333333 0.0666667 0
0.333333 0.1 0
0.333333 0.133333 0
0.333333 0.166667 0
0.333333 0.2 0
0.333333 0.233333 0
0.333333 0.266667 0
0.333333 0.3 0
0.333333 0.333333 0
0.333333 0.366667 0
0.333333 0.4 0
0.333333 0.433333 0
0.333333 0.466667 0
0.333333 0.5 0
0.333333 0.533333 0
0.333333 0.566667 0
0.333333 0.6 0
0.333333 0.633333 0
0.333333 0.666667 0
0.333333 0.7 0
0.333333 0.733333 0
0.333333 0.766667 0
0.333333 0.8 0
0.333333 0.833333 0
0.333333 0.866667 0
0.333333 0.9 0
0.333333 0.933333 0
0.333333 0.966667 0
0.366667 0.0333333 0
0.366667 0.0666667 0
0.366667 0.1 0
0.366667 0.133333 0
0.366667 0.166667 0
0.366667 0.2 0
0.366667 0.233333 0
0.366667 0.266667 0
0.366667 0.3 0
0.366667 0.333333 0
0.366667 0.366667 0
0.366667 0.4 0
0.366667 0.433333 0
0.366667 0.466667 0
0.366667 0.5 0
0.366667 0.533333 0
0.366667 0.566667 0
0.366667 0.6 0
0.366667 0.633333 0
0.366667 0.666667 0
0.366667 0.7 0
0.366667 0.733333 0
0.366667 0.766667 0
0.366667 0.8 0
0.366667 0.833333 0
0.366667 0.866667 0
0.366667 0.9 0
0.366667 0.933333 0
0.366667 0.966667 0
0.4 0.0333333 0
0.4 0.0666667 0
0.4 0.1 0
0.4 0.133333 0
0.4 0.166667 0
0.4 0.2 0
0.4 0.233333 0
0.4 0.266667 0
0.4 0.3 0
0.4 0.333333 0
0.4 0.366667 0
0.4 0.4 0
0.4 0.433333 0
0.4 0.466667 0
0.4 0.5 0
0.4 0.533333 0
0.4 0.566667 0
0.4 0.6 0
0.4 0.633333 0
0.4 0.666667 0
0.4 0.7 0
0.4 0.733333 0
0.4 0.766667 0
0.4 0.8 0
0.4 0.833333 0
0.4 0.866667 0
0.4 0.9 0
0.4 0.933333 0
0.4 0.966667 0
0.433333 0.0333333 0
0.433333 0.0666667 0
0.433333 0.1 0
0.433333 0.133333 0
0.433333 0.166667 0
0.433333 0.2 0
0.433333 0.233333 0
0.433333 0.266667 0
0.433333 0.3 0
0.433333 0.333333 0
0.433333 0.366667 0
0.433333 0.4 0
0.433333 0.433333 0
0.433333 0.466667 0
0.433333 0.5 0
0.433333 0.533333 0
0.433333 0.566667 0
0.433333 0.6 0
0.433333 0.633333 0
0.433333 0.666667 0
0.433333 0.7 0
0.433333 0.733333 0
0.433333 0.766667 0
0.433333 0.8 0
0.433333 0.833333 0
0.433333 0.866667 0
0.433333 0.9 0
0.433333 0.933333 0
0.433333 0.966667 0
0.466667 0.0333333 0
0.466667 0.0666667 0
0.466667 0.1 0
0.466667 0.133333 0
0.466667 0.166667 0
0.466667 0.2 0
0.466667 0.233333 0
0.466667 0.266667 0
0.466667 0.3 0
0.466667 0.333333 0
0.466667 0.366667 0
0.466667 0.4 0
0.466667 0.433333 0
0.466667 0.466667 0
0.466667 0.5 0
0.466667 0.533333 0
0.466667 0.566667 0
0.466667 0.6 0
0.466667 0.633333 0
0.466667 0.666667 0
0.466667 0.7 0
0.466667 0.733333 0
0.466667 0.766667 0
0.466667 0.8 0
0.466667 0.833333 0
0.466667 0.866667 0
0.466667 0.9 0
0.466667 0.933333 0
0.466667 0.966667 0
0.5 0.0333333 0
0.5 0.0666667 0
0.5 0.1 0
0.5 0.133333 0
0.5 0.166667 0
0.5 0.2 0
0.5 0.233333 0
0.5 0.266667 0
0.5 0.3 0
0.5 0.333333 0
0.5 0.366667 0
0.5 0.4 0
0.5 0.433333 0
0.5 0.466667 0
0.5 0.5 0
0.5 0.533333 0
0.5 0.566667 0
0.5 0.6 0
0.5 0.633333 0
0.5 0.666667 0
0.5 0.7 0
0.5 0.733333 0
0.5 0.766667 0
0.5 0.8 0
0.5 0.833333 0
0.5 0.866667 0
0.5 0.9 0
0.5 0.933333 0
0.5 0.966667 0
0.533333 0.0333333 0
0.533333 0.0666667 0
0.533333 0.1 0
0.533333 0.133333 0
0.533333 0.166667 0
0.533333 0.2 0
0.533333 0.233333 0
0.533333 0.266667 0
0.533333 0.3 0
0.533333 0.333333 0
0.533333 0.366667 0
0.533333 0.4 0
0.533333 0.433333 0
0.533333 0.466667 0
0.533333 0.5 0
0.533333 0.533333 0
0.533333 0.566667 0
0.533333 0.6 0
0.533333 0.633333 0
0.533333 0.666667 0
0.533333 0.7 0
0.533333 0.733333 0
0.533333 0.766667 0
0.533333 0.8 0
0.533333 0.833333 0
0.533333 0.866667 0
0.533333 0.9 0
0.533333 0.933333 0
0.533333 0.966667 0
0.566667 0.0333333 0
0.566667 0.0666667 0
0.566667 0.1 0
0.566667 0.133333 0
0.566667 0.166667 0
0.566667 0.2 0
0.566667 0.233333 0
0.566667 0.266667 0
0.566667 0.3 0
0.566667 0.333333 0
0.566667 0.366667 0
0.566667 0.4 0
0.566667 0.433333 0
0.566667 0.466667 0
0.566667 0.5 0
0.566667 0.533333 0
0.566667 0.566667 0
0.566667 0.6 0
0.566667 0.633333 0
0.566667 0.666667 0
0.566667 0.7 0
0.566667 0.733333 0
0.566667 0.766667 0
0.566667 0.8 0
0.566667 0.833333 0
0.566667 0.866667 0
0.566667 0.9 0
0.566667 0.933333 0
0.566667 0.966667 0
0.6 0.0333333 0
0.6 0.0666667 0
0.6 0.1 0
0.6 0.133333 0
[...]
CELL_DATA 900
VECTORS velocity double
6.94864e-05 -6.83657e-05 0.0
-8.94957e-06 -9.55382e-06 0.0
-8.41177e-05 0.000348055 0.0
-0.000142537 0.000921136 0.0
-0.000178527 0.0016722 0.0
-0.000201976 0.00254407 0.0
-0.000218937 0.0035137 0.0
-0.000234496 0.00456811 0.0
-0.000251551 0.00570929 0.0
-0.000271971 0.00694703 0.0
-0.000296931 0.00829788 0.0
-0.000327405 0.00978344 0.0
-0.000364473 0.0114304 0.0
-0.000409635 0.0132716 0.0
-0.000465179 0.0153479 0.0
-0.00053474 0.0177116 0.0
-0.000624188 0.0204321 0.0
-0.000743204 0.0236032 0.0
-0.00090811 0.0273553 0.0
-0.0011475 0.0318726 0.0
-0.00151376 0.0374213 0.0
-0.00210842 0.0443955 0.0
-0.00313438 0.0534047 0.0
-0.00500514 0.0654174 0.0
-0.00850963 0.0821166 0.0
-0.0150276 0.105995 0.0
-0.0257278 0.142181 0.0
-0.038152 0.189391 0.0
-0.0135073 0.262446 0.0
0.216771 0.173918 0.0
7.61313e-06 1.29773e-05 0.0
-0.000447992 0.000449987 0.0
-0.000880929 0.00149374 0.0
-0.00124089 0.00296337 0.0
-0.00150906 0.00481589 0.0
-0.00171576 0.00695565 0.0
-0.00188843 0.00934171 0.0
-0.00205257 0.0119502 0.0
-0.00222688 0.0147856 0.0
-0.00242541 0.0178696 0.0
-0.00265902 0.0212395 0.0
-0.00293749 0.0249449 0.0
-0.00327141 0.0290479 0.0
-0.0036741 0.0336248 0.0
-0.00416384 0.0387695 0.0
-0.0047666 0.0445996 0.0
-0.00551977 0.0512651 0.0
-0.0064771 0.0589588 0.0
-0.00771574 0.0679299 0.0
-0.00934666 0.0784973 0.0
-0.0115311 0.0910597 0.0
-0.0145107 0.106095 0.0
-0.0186555 0.124131 0.0
-0.0245479 0.145633 0.0
-0.0329867 0.170765 0.0
-0.0448365 0.198516 0.0
-0.0586192 0.225557 0.0
-0.0651513 0.240209 0.0
-0.00306569 0.218434 0.0
0.305003 0.116377 0.0
-0.000352758 8.75203e-05 0.0
-0.00148827 0.000862648 0.0
-0.00252666 0.00247694 0.0
-0.00339402 0.00462767 0.0
-0.0040731 0.00727489 0.0
-0.00461892 0.0103027 0.0
-0.00509053 0.0136665 0.0
-0.00554405 0.01734 0.0
-0.00602401 0.0213315 0.0
-0.00656518 0.0256701 0.0
-0.00719545 0.0304046 0.0
-0.00794 0.035599 0.0
-0.00882547 0.0413321 0.0
-0.00988413 0.0476987 0.0
-0.0111583 0.0548123 0.0
-0.0127055 0.0628101 0.0
-0.0146039 0.0718579 0.0
-0.0169581 0.0821561 0.0
-0.0199048 0.093942 0.0
-0.023615 0.107485 0.0
-0.0282914 0.123061 0.0
-0.0341557 0.1409 0.0
-0.041404 0.161055 0.0
-0.0501024 0.183178 0.0
-0.0597756 0.206014 0.0
-0.0684215 0.22668 0.0
-0.0685512 0.238455 0.0
-0.0387099 0.230719 0.0
0.0917704 0.1736 0.0
0.476072 0.0770276 0.0
-0.000910383 0.000141197 0.0
-0.00290555 0.00116911 0.0
-0.00464749 0.00319811 0.0
-0.00608188 0.00581547 0.0
-0.00722247 0.0089839 0.0
-0.00815676 0.0125752 0.0
-0.00897879 0.0165473 0.0
-0.00977645 0.0208754 0.0
-0.010621 0.0255714 0.0
-0.0115688 0.0306682 0.0
-0.0126651 0.036219 0.0
-0.0139506 0.0422916 0.0
-0.0154668 0.0489681 0.0
-0.0172623 0.0563438 0.0
-0.0193983 0.0645287 0.0
-0.0219539 0.0736488 0.0
-0.0250311 0.0838465 0.0
-0.0287568 0.0952781 0.0
-0.0332787 0.108104 0.0
-0.0387507 0.122465 0.0
-0.045296 0.13843 0.0
-0.0529373 0.155905 0.0
-0.0614569 0.174454 0.0
-0.0701355 0.19305 0.0
-0.0771053 0.209522 0.0
-0.0779673 0.220173 0.0
-0.0616685 0.217839 0.0
-0.00124519 0.194287 0.0
0.167884 0.129159 0.0
0.575069 0.0491701 0.0
-0.00160762 0.000167084 0.0
-0.00460786 0.00134205 0.0
-0.00713221 0.00361851 0.0
-0.00917797 0.00650462 0.0
-0.0108128 0.00996125 0.0
-0.0121656 0.0138509 0.0
-0.0133696 0.0181343 0.0
-0.0145455 0.0227889 0.0
-0.0157916 0.0278286 0.0
-0.0171851 0.0332878 0.0
-0.0187882 0.039219 0.0
-0.020655 0.0456874 0.0
-0.0228393 0.0527694 0.0
-0.0254014 0.0605503 0.0
-0.0284138 0.069123 0.0
-0.031966 0.078587 0.0
-0.0361662 0.0890433 0.0
-0.0411365 0.100586 0.0
-0.0469973 0.113286 0.0
-0.0538289 0.127151 0.0
-0.0615987 0.142068 0.0
-0.0700318 0.157701 0.0
-0.0783846 0.173306 0.0
-0.085059 0.187523 0.0
-0.0868061 0.197873 0.0
-0.0771825 0.200701 0.0
-0.0426024 0.189571 0.0
0.0454808 0.15882 0.0
0.241597 0.0958331 0.0
0.647163 0.0308768 0.0
-0.00236351 0.000175522 0.0
-0.00644112 0.00141089 0.0
-0.00977829 0.00378866 0.0
-0.0124424 0.00677524 0.0
-0.0145698 0.0103282 0.0
-0.0163387 0.0143048 0.0
-0.0179241 0.0186682 0.0
-0.0194797 0.0233974 0.0
-0.0211295 0.0285078 0.0
-0.0229698 0.0340326 0.0
-0.0250765 0.0400214 0.0
-0.0275141 0.0465335 0.0
-0.0303443 0.0536354 0.0
-0.0336326 0.0613976 0.0
-0.0374541 0.069892 0.0
-0.0418965 0.079187 0.0
-0.0470568 0.0893408 0.0
-0.0530304 0.100388 0.0
-0.0598806 0.112319 0.0
-0.0675799 0.125037 0.0
-0.075903 0.138299 0.0
-0.0842497 0.151616 0.0
-0.0913555 0.164087 0.0
-0.0948306 0.174248 0.0
-0.090314 0.179636 0.0
-0.069962 0.17705 0.0
-0.0189344 0.160964 0.0
0.0902226 0.128574 0.0
0.303537 0.0719965 0.0
0.698307 0.0196161 0.0
-0.00313232 0.000172602 0.0
-0.00830678 0.00140191 0.0
-0.0124572 0.00376439 0.0
-0.0157293 0.00671715 0.0
-0.0183346 0.0102154 0.0
-0.0205048 0.014116 0.0
-0.0224584 0.0183844 0.0
-0.0243819 0.0230011 0.0
-0.0264229 0.0279817 0.0
-0.0286947 0.033358 0.0
-0.0312845 0.0391751 0.0
-0.0342638 0.0454855 0.0
-0.0376977 0.0523449 0.0
-0.0416515 0.0598092 0.0
-0.0461958 0.0679294 0.0
-0.0514064 0.0767463 0.0
-0.0573579 0.0862812 0.0
-0.0641036 0.0965212 0.0
-0.0716338 0.107395 0.0
-0.079797 0.118738 0.0
-0.0881647 0.130223 0.0
-0.0958162 0.141287 0.0
-0.101007 0.150976 0.0
-0.100663 0.157858 0.0
-0.0895584 0.159634 0.0
-0.0588799 0.15368 0.0
0.00664089 0.135281 0.0
0.131916 0.10403 0.0
0.355767 0.0546726 0.0
0.735483 0.0126155 0.0
-0.00387741 0.000163432 0.0
-0.010121 0.00133961 0.0
-0.015056 0.00359929 0.0
-0.0189081 0.0064156 0.0
-0.0219641 0.00974357 0.0
-0.0245105 0.013445 0.0
-0.0268094 0.0174879 0.0
-0.0290785 0.021855 0.0
-0.0314876 0.0265619 0.0
-0.0341646 0.0316387 0.0
-0.0372055 0.0371263 0.0
-0.0406858 0.0430706 0.0
-0.0446701 0.0495183 0.0
-0.0492195 0.0565123 0.0
-0.0543942 0.0640872 0.0
-0.0602519 0.0722618 0.0
-0.0668362 0.0810299 0.0
-0.0741504 0.0903448 0.0
-0.0821041 0.100096 0.0
-0.0904176 0.110072 0.0
-0.0984644 0.119907 0.0
-0.105027 0.129009 0.0
-0.107938 0.136433 0.0
-0.103564 0.140835 0.0
-0.0860396 0.140161 0.0
-0.0459705 0.132268 0.0
0.0315741 0.113484 0.0
0.169092 0.0845227 0.0
0.399153 0.0420756 0.0
0.763003 0.0082665 0.0
-0.00457661 0.000150571 0.0
-0.011827 0.00124029 0.0
-0.0174962 0.00333267 0.0
-0.0218868 0.00593523 0.0
-0.0253583 0.00900532 0.0
-0.0282504 0.0124144 0.0
-0.0308671 0.0161346 0.0
-0.0334555 0.0201512 0.0
-0.0362057 0.0244806 0.0
-0.0392582 0.0291513 0.0
-0.0427155 0.0342012 0.0
-0.0466549 0.039671 0.0
-0.0511384 0.0456004 0.0
-0.0562193 0.0520235 0.0
-0.0619442 0.0589629 0.0
-0.0683482 0.0664233 0.0
-0.07544 0.0743805 0.0
-0.0831688 0.0827672 0.0
-0.0913609 0.0914492 0.0
-0.0996106 0.100193 0.0
-0.107104 0.108616 0.0
-0.112355 0.116126 0.0
-0.112834 0.12182 0.0
-0.104455 0.124464 0.0
-0.0808992 0.122265 0.0
-0.0325057 0.113472 0.0
0.0550172 0.0953638 0.0
0.201894 0.069064 0.0
0.435186 0.0328082 0.0
0.78378 0.00553676 0.0
-0.00521374 0.000135377 0.0
-0.013382 0.00111445 0.0
-0.0197168 0.00299138 0.0
-0.0245935 0.00532141 0.0
-0.0284384 0.0080664 0.0
-0.0316414 0.0111119 0.0
-0.0345454 0.0144349 0.0
-0.0374247 0.0180252 0.0
-0.0404875 0.0219001 0.0
-0.0438851 0.0260875 0.0
-0.0477251 0.0306235 0.0
-0.0520851 0.0355458 0.0
-0.0570228 0.04089 0.0
-0.0625823 0.0466852 0.0
-0.0687945 0.0529481 0.0
-0.0756703 0.0596761 0.0
-0.0831813 0.0668367 0.0
-0.091221 0.074353 0.0
-0.0995329 0.0820811 0.0
-0.10759 0.0897794 0.0
-0.114403 0.0970631 0.0
-0.118245 0.103355 0.0
-0.116278 0.107803 0.0
-0.10406 0.109282 0.0
-0.0749673 0.106247 0.0
-0.0192867 0.0972556 0.0
0.0765184 0.0803315 0.0
0.230556 0.0567702 0.0
0.465123 0.0259053 0.0
0.799746 0.00380109 0.0
-0.00577716 0.000118334 0.0
-0.0147541 0.000968072 0.0
-0.0216722 0.00259215 0.0
-0.0269733 0.00460358 0.0
-0.0311441 0.00697046 0.0
-0.0346203 0.00959581 0.0
-0.0377795 0.0124632 0.0
-0.0409204 0.0155675 0.0
-0.0442675 0.0189279 0.0
-0.0479813 0.022573 0.0
-0.0521734 0.0265382 0.0
-0.0569211 0.0308605 0.0
-0.0622775 0.0355745 0.0
-0.0682771 0.0407085 0.0
-0.0749349 0.046279 0.0
-0.082237 0.0522833 0.0
-0.0901175 0.0586891 0.0
-0.0984143 0.0654196 0.0
-0.106789 0.0723315 0.0
-0.114597 0.0791848 0.0
-0.120684 0.0856013 0.0
-0.123107 0.0910218 0.0
-0.118763 0.0946448 0.0
-0.102939 0.0954383 0.0
-0.0688142 0.0920718 0.0
-0.00676442 0.0833368 0.0
0.0959358 0.0678361 0.0
0.255461 0.0469318 0.0
0.490052 0.0206936 0.0
0.812221 0.00267958 0.0
-0.00625723 9.95689e-05 0.0
-0.0159176 0.00080451 0.0
-0.0233255 0.00214531 0.0
-0.0289818 0.00380065 0.0
-0.0334266 0.00574619 0.0
-0.0371353 0.0079052 0.0
-0.0405162 0.0102687 0.0
-0.0438892 0.0128378 0.0
-0.0474926 0.0156343 0.0
-0.0514951 0.0186883 0.0
-0.0560122 0.022036 0.0
-0.061121 0.0257157 0.0
-0.0668706 0.0297642 0.0
-0.0732867 0.0342134 0.0
-0.0803694 0.0390847 0.0
-0.0880808 0.0443822 0.0
-0.0963184 0.0500818 0.0
-0.104865 0.0561157 0.0
-0.1133 0.0623497 0.0
-0.120864 0.0685523 0.0
-0.126244 0.0743556 0.0
-0.127298 0.0792162 0.0
-0.120697 0.082372 0.0
-0.101513 0.0828617 0.0
-0.0628197 0.0795323 0.0
0.00483498 0.0713331 0.0
0.113267 0.0574019 0.0
0.277018 0.038991 0.0
0.510866 0.0167016 0.0
0.822112 0.00194069 0.0
-0.00664549 7.90584e-05 0.0
-0.0168511 0.000625764 0.0
-0.0246461 0.00165756 0.0
-0.0305824 0.00292542 0.0
-0.0352452 0.00441343 0.0
-0.0391436 0.00606716 0.0
-0.0427113 0.0078858 0.0
-0.0462857 0.00987729 0.0
-0.0501175 0.0120665 0.0
-0.0543826 0.0144858 0.0
-0.0592003 0.0171734 0.0
-0.0646488 0.0201707 0.0
-0.0707748 0.0235195 0.0
-0.0775973 0.0272591 0.0
-0.0851037 0.0314214 0.0
-0.0932344 0.0360238 0.0
-0.101852 0.0410581 0.0
-0.110684 0.0464742 0.0
-0.119228 0.0521547 0.0
-0.126607 0.0578824 0.0
-0.131353 0.063301 0.0
-0.131132 0.0678785 0.0
-0.122414 0.0708776 0.0
-0.100114 0.0713866 0.0
-0.0572657 0.0683752 0.0
0.0152818 0.0609774 0.0
0.128574 0.0486223 0.0
0.295615 0.0325178 0.0
0.528287 0.0135946 0.0
0.830054 0.00144214 0.0
-0.00693416 5.67729e-05 0.0
-0.0175359 0.000433343 0.0
-0.0256078 0.00113408 0.0
-0.031744 0.0019879 0.0
-0.0365656 0.00298778 0.0
-0.0406082 0.00410301 0.0
-0.0443256 0.00534118 0.0
-0.0480695 0.00671735 0.0
-0.0521005 0.0082595 0.0
-0.0566015 0.0100025 0.0
-0.0616966 0.0119874 0.0
-0.0674666 0.01426 0.0
-0.0739586 0.0168696 0.0
-0.0811884 0.0198664 0.0
-0.0891342 0.0232977 0.0
-0.097718 0.0272009 0.0
-0.10677 0.0315911 0.0
-0.115963 0.0364449 0.0
-0.124712 0.0416704 0.0
-0.132015 0.0470703 0.0
-0.136246 0.0523019 0.0
-0.134883 0.0568398 0.0
-0.124211 0.0599558 0.0
-0.0990222 0.0607657 0.0
-0.0523857 0.0583175 0.0
0.0245047 0.0518945 0.0
0.141969 0.0411071 0.0
0.3116 0.0271434 0.0
0.542889 0.0111183 0.0
0.836493 0.0010927 0.0
-0.00711626 3.27374e-05 0.0
-0.0179558 0.000228767 0.0
-0.0261887 0.000579833 0.0
-0.0324404 0.000997559 0.0
-0.0373585 0.00148384 0.0
-0.0414974 0.00203254 0.0
-0.045325 0.00265942 0.0
-0.0492038 0.0033863 0.0
-0.0534022 0.00424384 0.0
-0.05811 0.00526917 0.0
-0.0634574 0.00650623 0.0
-0.0695304 0.00800603 0.0
-0.0763805 0.00982678 0.0
-0.0840248 0.0120328 0.0
-0.0924376 0.0146911 0.0
-0.101528 0.0178653 0.0
-0.111096 0.0216019 0.0
-0.120765 0.0259138 0.0
-0.129857 0.0307438 0.0
-0.137243 0.0359219 0.0
-0.141129 0.0411239 0.0
-0.138794 0.0458279 0.0
-0.126346 0.0493018 0.0
-0.0984854 0.0506634 0.0
-0.0483688 0.0490007 0.0
0.0324297 0.0436927 0.0
0.153528 0.0344855 0.0
0.325245 0.0225413 0.0
0.555098 0.00906907 0.0
0.841729 0.000830842 0.0
-0.00718525 7.00785e-06 0.0
-0.018097 1.38396e-05 0.0
-0.0263703 4.04538e-07 0.0
-0.0326499 -3.5319e-05 0.0
-0.0375994 -8.27188e-05 0.0
-0.0417836 -0.000123168 0.0
-0.0456786 -0.000133478 0.0
-0.0496531 -8.58539e-05 0.0
-0.0539824 5.19207e-05 0.0
-0.0588629 0.000318075 0.0
-0.0644325 0.000758639 0.0
-0.0707863 0.00142965 0.0
-0.0779848 0.00239886 0.0
-0.0860528 0.00374636 0.0
-0.0949674 0.00556263 0.0
-0.10463 0.00794255 0.0
-0.11482 0.0109725 0.0
-0.125107 0.0147133 0.0
-0.134722 0.0191523 0.0
-0.142399 0.0241569 0.0
-0.146159 0.0294305 0.0
-0.143069 0.0344573 0.0
-0.129052 0.0384941 0.0
-0.0987294 0.0406368 0.0
-0.045391 0.0399766 0.0
0.0389704 0.0359372 0.0
0.163284 0.028369 0.0
0.33673 0.0183958 0.0
0.565206 0.00726778 0.0
0.845954 0.000610999 0.0
-0.00713624 -2.01548e-05 0.0
-0.0179497 -0.000209171 0.0
-0.0261393 -0.000597737 0.0
-0.032357 -0.00109865 0.0
-0.0372704 -0.00169317 0.0
-0.0414462 -0.00233857 0.0
-0.0453619 -0.00300565 0.0
-0.0493886 -0.00366228 0.0
-0.0538053 -0.00427654 0.0
-0.0588157 -0.00481098 0.0
-0.0645676 -0.00521936 0.0
-0.071169 -0.00544218 0.0
-0.0786951 -0.00540304 0.0
-0.0871861 -0.0050056 0.0
-0.0966313 -0.00413334 0.0
-0.106936 -0.00265399 0.0
-0.117867 -0.000433091 0.0
-0.128951 0.00264188 0.0
-0.139308 0.00661256 0.0
-0.147529 0.0114063 0.0
-0.151437 0.0167715 0.0
-0.147867 0.0222065 0.0
-0.132535 0.0269589 0.0
-0.0999752 0.0300896 0.0
-0.0436453 0.0306604 0.0
0.0440015 0.0280902 0.0
0.171198 0.0223001 0.0
0.346122 0.0143603 0.0
0.573355 0.00553305 0.0
0.849252 0.000393467 0.0
-0.00696494 -4.84044e-05 0.0
-0.0175058 -0.000437245 0.0
-0.0254869 -0.00120613 0.0
-0.0315521 -0.00217692 0.0
-0.0363603 -0.00332384 0.0
-0.0404706 -0.00458157 0.0
-0.0443548 -0.00591695 0.0
-0.0483819 -0.00729588 0.0
-0.0528334 -0.00868924 0.0
-0.0579195 -0.010063 0.0
-0.0638006 -0.0113738 0.0
-0.0706017 -0.0125618 0.0
-0.0784202 -0.0135448 0.0
-0.087321 -0.0142124 0.0
-0.0973173 -0.0144224 0.0
-0.108329 -0.0140033 0.0
-0.120113 -0.0127675 0.0
-0.132151 -0.0105435 0.0
-0.143489 -0.00721175 0.0
-0.152566 -0.00277275 0.0
-0.156975 0.00258641 0.0
-0.153266 0.00839298 0.0
-0.136939 0.013929 0.0
-0.102436 0.0182195 0.0
-0.0433734 0.0202675 0.0
0.0473028 0.0194412 0.0
0.177106 0.0156896 0.0
0.353334 0.0100099 0.0
0.579515 0.003657 0.0
0.851596 0.000137722 0.0
-0.00666951 -7.73467e-05 0.0
-0.0167635 -0.000666191 0.0
-0.0244119 -0.00181317 0.0
-0.0302344 -0.0032497 0.0
-0.0348674 -0.00494425 0.0
-0.0388521 -0.00681114 0.0
-0.0426474 -0.00881558 0.0
-0.0466156 -0.0109243 0.0
-0.0510375 -0.0131141 0.0
-0.0561303 -0.0153581 0.0
-0.0620679 -0.0176203 0.0
-0.0689969 -0.0198457 0.0
-0.0770435 -0.0219524 0.0
-0.0863076 -0.0238216 0.0
-0.0968397 -0.0252912 0.0
-0.108591 -0.0261538 0.0
-0.121329 -0.0261659 0.0
-0.134506 -0.025078 0.0
-0.147084 -0.0226803 0.0
-0.157331 -0.0188802 0.0
-0.162611 -0.0137938 0.0
-0.159229 -0.00780136 0.0
-0.142395 -0.00158408 0.0
-0.106313 0.00393208 0.0
-0.0448342 0.00771977 0.0
0.0485841 0.00903303 0.0
0.180691 0.00776367 0.0
0.358052 0.00479791 0.0
0.583427 0.00137749 0.0
0.852844 -0.000205704 0.0
-0.0062504 -0.000106322 0.0
-0.0157271 -0.000890332 0.0
-0.022922 -0.00240372 0.0
-0.0284139 -0.00429046 0.0
-0.0328015 -0.0065149 0.0
-0.0365981 -0.00897384 0.0
-0.0402418 -0.0116335 0.0
-0.0440829 -0.0144643 0.0
-0.048399 -0.0174527 0.0
-0.0534124 -0.0205836 0.0
-0.0593117 -0.0238337 0.0
-0.0662679 -0.0271607 0.0
-0.074442 -0.0304915 0.0
-0.0839793 -0.0337097 0.0
-0.0949818 -0.036644 0.0
-0.107451 -0.0390604 0.0
-0.121187 -0.0406661 0.0
-0.135638 -0.0411338 0.0
-0.149693 -0.0401502 0.0
-0.161464 -0.0374958 0.0
-0.168065 -0.0331475 0.0
-0.165496 -0.0273563 0.0
-0.148692 -0.0207104 0.0
-0.111766 -0.0140338 0.0
-0.0484812 -0.0083122 0.0
0.0472511 -0.00441414 0.0
0.18136 -0.00256177 0.0
0.359728 -0.00200399 0.0
0.58458 -0.00158922 0.0
0.852663 -0.000664587 0.0
-0.00571158 -0.000134445 0.0
-0.0144091 -0.00110221 0.0
-0.0210366 -0.00295807 0.0
-0.026114 -0.0052649 0.0
-0.0301877 -0.00798476 0.0
-0.0337321 -0.0110004 0.0
-0.0371573 -0.0142815 0.0
-0.0407958 -0.0178054 0.0
-0.0449179 -0.0215712 0.0
-0.0497485 -0.0255806 0.0
-0.0554897 -0.0298301 0.0
-0.0623376 -0.0342987 0.0
-0.0704923 -0.0389345 0.0
-0.0801523 -0.0436392 0.0
-0.0914856 -0.0482504 0.0
-0.104565 -0.0525273 0.0
-0.119252 -0.0561459 0.0
-0.13502 -0.058713 0.0
-0.150723 -0.0598092 0.0
-0.164341 -0.0590639 0.0
-0.172763 -0.0562561 0.0
-0.171684 -0.0514054 0.0
-0.155718 -0.0448521 0.0
-0.118728 -0.037225 0.0
-0.0544339 -0.0294241 0.0
0.0428694 -0.0223227 0.0
0.178255 -0.0164192 0.0
0.357179 -0.0111659 0.0
0.581894 -0.00560049 0.0
0.85059 -0.0013025 0.0
-0.00506163 -0.000160473 0.0
-0.0128333 -0.00129191 0.0
-0.0187899 -0.00345044 0.0
-0.0233761 -0.00612861 0.0
-0.0270706 -0.00928804 0.0
-0.0302999 -0.0128015 0.0
-0.0334375 -0.016644 0.0
-0.0367929 -0.020802 0.0
-0.0406236 -0.0252908 0.0
-0.0451531 -0.0301326 0.0
-0.050593 -0.0353505 0.0
-0.0571622 -0.0409548 0.0
-0.0650995 -0.0469298 0.0
-0.0746606 -0.0532151 0.0
-0.0860898 -0.0596837 0.0
-0.0995507 -0.0661195 0.0
-0.114997 -0.0722005 0.0
-0.131971 -0.077498 0.0
-0.149342 -0.0815017 0.0
-0.165024 -0.0836783 0.0
-0.175737 -0.0835562 0.0
-0.176924 -0.080814 0.0
-0.162889 -0.0753737 0.0
-0.127194 -0.0674208 0.0
-0.063324 -0.0575421 0.0
0.0343483 -0.0464376 0.0
0.170132 -0.0352064 0.0
0.349126 -0.0237017 0.0
0.574195 -0.0112045 0.0
0.845923 -0.00225164 0.0
-0.00431506 -0.000182666 0.0
-0.0110374 -0.00144633 0.0
-0.0162354 -0.00384743 0.0
-0.0202635 -0.0068246 0.0
-0.02352 -0.0103409 0.0
-0.0263746 -0.0142634 0.0
-0.0291575 -0.0185735 0.0
-0.0321487 -0.0232682 0.0
-0.0355872 -0.0283797 0.0
-0.0396884 -0.0339542 0.0
-0.0446668 -0.0400462 0.0
-0.050757 -0.0467071 0.0
-0.05823 -0.0539722 0.0
-0.0673953 -0.0618421 0.0
-0.0785765 -0.0702581 0.0
-0.0920417 -0.0790722 0.0
-0.107866 -0.0880162 0.0
-0.125711 -0.0966787 0.0
-0.144537 -0.104502 0.0
-0.162288 -0.110804 0.0
-0.175637 -0.114828 0.0
-0.17989 -0.115809 0.0
-0.169129 -0.113058 0.0
-0.136598 -0.106036 0.0
-0.0753918 -0.0946667 0.0
0.0206625 -0.0790569 0.0
0.155381 -0.0610029 0.0
0.33358 -0.041222 0.0
0.559531 -0.0192657 0.0
0.837506 -0.0037163 0.0
-0.00349511 -0.000198395 0.0
-0.0090781 -0.00154801 0.0
-0.0134515 -0.00410615 0.0
-0.0168689 -0.00728122 0.0
-0.0196382 -0.0110392 0.0
-0.0220662 -0.0152456 0.0
-0.0244345 -0.0198878 0.0
-0.0269874 -0.0249726 0.0
-0.0299387 -0.0305487 0.0
-0.0334876 -0.0366858 0.0
-0.037841 -0.0434722 0.0
-0.043237 -0.0510059 0.0
-0.0499649 -0.0593854 0.0
-0.0583742 -0.0686942 0.0
-0.068858 -0.0789771 0.0
-0.0817893 -0.0902059 0.0
-0.0973851 -0.102235 0.0
-0.115479 -0.114751 0.0
-0.135212 -0.127228 0.0
-0.154697 -0.138895 0.0
-0.170737 -0.148728 0.0
-0.178708 -0.155455 0.0
-0.172656 -0.157614 0.0
-0.145609 -0.15367 0.0
-0.0901635 -0.142364 0.0
0.000922656 -0.122925 0.0
0.132155 -0.0965154 0.0
0.308077 -0.0660872 0.0
0.535273 -0.0312448 0.0
0.823612 -0.00611112 0.0
-0.00263473 -0.000204032 0.0
-0.00703316 -0.0015751 0.0
-0.0105436 -0.00417471 0.0
-0.0133152 -0.00741319 0.0
-0.0155612 -0.0112598 0.0
-0.0175235 -0.0155827 0.0
-0.0194306 -0.0203726 0.0
-0.0214867 -0.0256438 0.0
-0.0238733 -0.0314568 0.0
-0.026764 -0.0379015 0.0
-0.0303454 -0.0450967 0.0
-0.034842 -0.0531861 0.0
-0.0405391 -0.0623355 0.0
-0.0477998 -0.0727241 0.0
-0.057059 -0.0845283 0.0
-0.0687754 -0.0978894 0.0
-0.0833087 -0.112861 0.0
-0.100702 -0.129333 0.0
-0.120374 -0.146936 0.0
-0.140771 -0.164936 0.0
-0.159065 -0.182134 0.0
-0.171 -0.196793 0.0
-0.170904 -0.206615 0.0
-0.151865 -0.208852 0.0
-0.106052 -0.200565 0.0
-0.0250121 -0.179625 0.0
0.0982591 -0.144796 0.0
0.269095 -0.101601 0.0
0.497233 -0.0497666 0.0
0.801019 -0.0103729 0.0
-0.00178409 -0.000193869 0.0
-0.00501222 -0.00150036 0.0
-0.00765727 -0.00399362 0.0
-0.00977126 -0.00712562 0.0
-0.0114776 -0.0108677 0.0
-0.0129548 -0.0150934 0.0
-0.014378 -0.019793 0.0
-0.0159074 -0.0249827 0.0
-0.0176861 -0.0307287 0.0
-0.0198536 -0.0371319 0.0
-0.0225632 -0.044332 0.0
-0.0260062 -0.0525075 0.0
-0.0304365 -0.0618812 0.0
-0.0361926 -0.0727232 0.0
-0.0437055 -0.0853475 0.0
-0.0534712 -0.100093 0.0
-0.0659582 -0.117276 0.0
-0.0814231 -0.137098 0.0
-0.0996318 -0.15951 0.0
-0.119524 -0.184021 0.0
-0.138908 -0.209488 0.0
-0.154249 -0.233921 0.0
-0.160598 -0.254341 0.0
-0.151572 -0.26679 0.0
-0.1193 -0.266437 0.0
-0.0542747 -0.248878 0.0
0.0544185 -0.209073 0.0
0.214835 -0.152428 0.0
0.441421 -0.0795028 0.0
0.765158 -0.0185212 0.0
-0.00100274 -0.000162014 0.0
-0.00313991 -0.00129904 0.0
-0.00495425 -0.00351091 0.0
-0.00642227 -0.00633505 0.0
-0.00759323 -0.00974123 0.0
-0.00858963 -0.0136102 0.0
-0.00953452 -0.0179269 0.0
-0.0105424 -0.0227038 0.0
-0.0117149 -0.0280033 0.0
-0.0131501 -0.0339257 0.0
-0.0149578 -0.0406143 0.0
-0.0172785 -0.0482605 0.0
-0.0203065 -0.0571164 0.0
-0.0243126 -0.0675096 0.0