# vtk DataFile Version 3.0
Malha 2D com triângulos e temperatura
ASCII
DATASET UNSTRUCTURED_GRID

POINTS 961 double
0 0 0
1 0 0
1 1 0
0 1 0
0.0333333 0 0
0.0666667 0 0
0.1 0 0
0.133333 0 0
0.166667 0 0
0.2 0 0
0.233333 0 0
0.266667 0 0
0.3 0 0
0.333333 0 0
0.366667 0 0
0.4 0 0
0.433333 0 0
0.466667 0 0
0.5 0 0
0.533333 0 0
0.566667 0 0
0.6 0 0
0.633333 0 0
0.666667 0 0
0.7 0 0
0.733333 0 0
0.766667 0 0
0.8 0 0
0.833333 0 0
0.866667 0 0
0.9 0 0
0.933333 0 0
0.966667 0 0
1 0.0333333 0
1 0.0666667 0
1 0.1 0
1 0.133333 0
1 0.166667 0
1 0.2 0
1 0.233333 0
1 0.266667 0
1 0.3 0
1 0.333333 0
1 0.366667 0
1 0.4 0
1 0.433333 0
1 0.466667 0
1 0.5 0
1 0.533333 0
1 0.566667 0
1 0.6 0
1 0.633333 0
1 0.666667 0
1 0.7 0
1 0.733333 0
1 0.766667 0
1 0.8 0
1 0.833333 0
1 0.866667 0
1 0.9 0
1 0.933333 0
1 0.966667 0
0.966667 1 0
0.933333 1 0
0.9 1 0
0.866667 1 0
0.833333 1 0
0.8 1 0
0.766667 1 0
0.733333 1 0
0.7 1 0
0.666667 1 0
0.633333 1 0
0.6 1 0
0.566667 1 0
0.533333 1 0
0.5 1 0
0.466667 1 0
0.433333 1 0
0.4 1 0
0.366667 1 0
0.333333 1 0
0.3 1 0
0.266667 1 0
0.233333 1 0
0.2 1 0
0.166667 1 0
0.133333 1 0
0.1 1 0
0.0666667 1 0
0.0333333 1 0
0 0.966667 0
0 0.933333 0
0 0.9 0
0 0.866667 0
0 0.833333 0
0 0.8 0
0 0.766667 0
0 0.733333 0
0 0.7 0
0 0.666667 0
0 0.633333 0
0 0.6 0
0 0.566667 0
0 0.533333 0
0 0.5 0
0 0.466667 0
0 0.433333 0
0 0.4 0
0 0.366667 0
0 0.333333 0
0 0.3 0
0 0.266667 0
0 0.233333 0
0 0.2 0
0 0.166667 0
0 0.133333 0
0 0.1 0
0 0.0666667 0
0 0.0333333 0
0.0333333 0.0333333 0
0.0333333 0.0666667 0
0.0333333 0.1 0
0.0333333 0.133333 0
0.0333333 0.166667 0
0.0333333 0.2 0
0.0333333 0.233333 0
0.0333333 0.266667 0
0.0333333 0.3 0
0.0333333 0.333333 0
0.0333333 0.366667 0
0.0333333 0.4 0
0.0333333 0.433333 0
0.0333333 0.466667 0
0.0333333 0.5 0
0.0333333 0.533333 0
0.0333333 0.566667 0
0.0333333 0.6 0
0.0333333 0.633333 0
0.0333333 0.666667 0
0.0333333 0.7 0
0.0333333 0.733333 0
0.0333333 0.766667 0
0.0333333 0.8 0
0.0333333 0.833333 0
0.0333333 0.866667 0
0.0333333 0.9 0
0.0333333 0.933333 0
0.0333333 0.966667 0
0.0666667 0.0333333 0
0.0666667 0.0666667 0
0.0666667 0.1 0
0.0666667 0.133333 0
0.0666667 0.166667 0
0.0666667 0.2 0
0.0666667 0.233333 0
0.0666667 0.266667 0
0.0666667 0.3 0
0.0666667 0.333333 0
0.0666667 0.366667 0
0.0666667 0.4 0
0.0666667 0.433333 0
0.0666667 0.466667 0
0.0666667 0.5 0
0.0666667 0.533333 0
0.0666667 0.566667 0
0.0666667 0.6 0
0.0666667 0.633333 0
0.0666667 0.666667 0
0.0666667 0.7 0
0.0666667 0.733333 0
0.0666667 0.766667 0
0.0666667 0.8 0
0.0666667 0.833333 0
0.0666667 0.866667 0
0.0666667 0.9 0
0.0666667 0.933333 0
0.0666667 0.966667 0
0.1 0.0333333 0
0.1 0.0666667 0
0.1 0.1 0
0.1 0.133333 0
0.1 0.166667 0
0.1 0.2 0
0.1 0.233333 0
0.1 0.266667 0
0.1 0.3 0
0.1 0.333333 0
0.1 0.366667 0
0.1 0.4 0
0.1 0.433333 0
0.1 0.466667 0
0.1 0.5 0
0.1 0.533333 0
0.1 0.566667 0
0.1 0.6 0
0.1 0.633333 0
0.1 0.666667 0
0.1 0.7 0
0.1 0.733333 0
0.1 0.766667 0
0.1 0.8 0
0.1 0.833333 0
0.1 0.866667 0
0.1 0.9 0
0.1 0.933333 0
0.1 0.966667 0
0.133333 0.0333333 0
0.133333 0.0666667 0
0.133333 0.1 0
0.133333 0.133333 0
0.133333 0.166667 0
0.133333 0.2 0
0.133333 0.233333 0
0.133333 0.266667 0
0.133333 0.3 0
0.133333 0.333333 0
0.133333 0.366667 0
0.133333 0.4 0
0.133333 0.433333 0
0.133333 0.466667 0
0.133333 0.5 0
0.133333 0.533333 0
0.133333 0.566667 0
0.133333 0.6 0
0.133333 0.633333 0
0.133333 0.666667 0
0.133333 0.7 0
0.133333 0.733333 0
0.133333 0.766667 0
0.133333 0.8 0
0.133333 0.833333 0
0.133333 0.866667 0
0.133333 0.9 0
0.133333 0.933333 0
0.133333 0.966667 0
0.166667 0.0333333 0
0.166667 0.0666667 0
0.166667 0.1 0
0.166667 0.133333 0
0.166667 0.166667 0
0.166667 0.2 0
0.166667 0.233333 0
0.166667 0.266667 0
0.166667 0.3 0
0.166667 0.333333 0
0.166667 0.366667 0
0.166667 0.4 0
0.166667 0.433333 0
0.166667 0.466667 0
0.166667 0.5 0
0.166667 0.533333 0
0.166667 0.566667 0
0.166667 0.6 0
0.166667 0.633333 0
0.166667 0.666667 0
0.166667 0.7 0
0.166667 0.733333 0
0.166667 0.766667 0
0.166667 0.8 0
0.166667 0.833333 0
0.166667 0.866667 0
0.166667 0.9 0
0.166667 0.933333 0
0.166667 0.966667 0
0.2 0.0333333 0
0.2 0.0666667 0
0.2 0.1 0
0.2 0.133333 0
0.2 0.166667 0
0.2 0.2 0
0.2 0.233333 0
0.2 0.266667 0
0.2 0.3 0
0.2 0.333333 0
0.2 0.366667 0
0.2 0.4 0
0.2 0.433333 0
0.2 0.466667 0
0.2 0.5 0
0.2 0.533333 0
0.2 0.566667 0
0.2 0.6 0
0.2 0.633333 0
0.2 0.666667 0
0.2 0.7 0
0.2 0.733333 0
0.2 0.766667 0
0.2 0.8 0
0.2 0.833333 0
0.2 0.866667 0
0.2 0.9 0
0.2 0.933333 0
0.2 0.966667 0
0.233333 0.0333333 0
0.233333 0.0666667 0
0.233333 0.1 0
0.233333 0.133333 0
0.233333 0.166667 0
0.233333 0.2 0
0.233333 0.233333 0
0.233333 0.266667 0
0.233333 0.3 0
0.233333 0.333333 0
0.233333 0.366667 0
0.233333 0.4 0
0.233333 0.433333 0
0.233333 0.466667 0
0.233333 0.5 0
0.233333 0.533333 0
0.233333 0.566667 0
0.233333 0.6 0
0.233333 0.633333 0
0.233333 0.666667 0
0.233333 0.7 0
0.233333 0.733333 0
0.233333 0.766667 0
0.233333 0.8 0
0.233333 0.833333 0
0.233333 0.866667 0
0.233333 0.9 0
0.233333 0.933333 0
0.233333 0.966667 0
0.266667 0.0333333 0
0.266667 0.0666667 0
0.266667 0.1 0
0.266667 0.133333 0
0.266667 0.166667 0
0.266667 0.2 0
0.266667 0.233333 0
0.266667 0.266667 0
0.266667 0.3 0
0.266667 0.333333 0
0.266667 0.366667 0
0.266667 0.4 0
0.266667 0.433333 0
0.266667 0.466667 0
0.266667 0.5 0
0.266667 0.533333 0
0.266667 0.566667 0
0.266667 0.6 0
0.266667 0.633333 0
0.266667 0.666667 0
0.266667 0.7 0
0.266667 0.733333 0
0.266667 0.766667 0
0.266667 0.8 0
0.266667 0.833333 0
0.266667 0.866667 0
0.266667 0.9 0
0.266667 0.933333 0
0.266667 0.966667 0
0.3 0.0333333 0
0.3 0.0666667 0
0.3 0.1 0
0.3 0.133333 0
0.3 0.166667 0
0.3 0.2 0
0.3 0.233333 0
0.3 0.266667 0
0.3 0.3 0
0.3 0.333333 0
0.3 0.366667 0
0.3 0.4 0
0.3 0.433333 0
0.3 0.466667 0
0.3 0.5 0
0.3 0.533333 0
0.3 0.566667 0
0.3 0.6 0
0.3 0.633333 0
0.3 0.666667 0
0.3 0.7 0
0.3 0.733333 0
0.3 0.766667 0
0.3 0.8 0
0.3 0.833333 0
0.3 0.866667 0
0.3 0.9 0
0.3 0.933333 0
0.3 0.966667 0
0.333333 0.0333333 0
0.333333 0.0666667 0
0.333333 0.1 0
0.333333 0.133333 0
0.333333 0.166667 0
0.333333 0.2 0
0.333333 0.233333 0
0.333333 0.266667 0
0.333333 0.3 0
0.333333 0.333333 0
0.333333 0.366667 0
0.333333 0.4 0
0.333333 0.433333 0
0.333333 0.466667 0
0.333333 0.5 0
0.333333 0.533333 0
0.333333 0.566667 0
0.333333 0.6 0
0.333333 0.633333 0
0.333333 0.666667 0
0.333333 0.7 0
0.333333 0.733333 0
0.333333 0.766667 0
0.333333 0.8 0
0.333333 0.833333 0
0.333333 0.866667 0
0.333333 0.9 0
0.333333 0.933333 0
0.333333 0.966667 0
0.366667 0.0333333 0
0.366667 0.0666667 0
0.366667 0.1 0
0.366667 0.133333 0
0.366667 0.166667 0
0.366667 0.2 0
0.366667 0.233333 0
0.366667 0.266667 0
0.366667 0.3 0
0.366667 0.333333 0
0.366667 0.366667 0
0.366667 0.4 0
0.366667 0.433333 0
0.366667 0.466667 0
0.366667 0.5 0
0.366667 0.533333 0
0.366667 0.566667 0
0.366667 0.6 0
0.366667 0.633333 0
0.366667 0.666667 0
0.366667 0.7 0
0.366667 0.733333 0
0.366667 0.766667 0
0.366667 0.8 0
0.366667 0.833333 0
0.366667 0.866667 0
0.366667 0.9 0
0.366667 0.933333 0
0.366667 0.966667 0
0.4 0.0333333 0
0.4 0.0666667 0
0.4 0.1 0
0.4 0.133333 0
0.4 0.166667 0
0.4 0.2 0
0.4 0.233333 0
0.4 0.266667 0
0.4 0.3 0
0.4 0.333333 0
0.4 0.366667 0
0.4 0.4 0
0.4 0.433333 0
0.4 0.466667 0
0.4 0.5 0
0.4 0.533333 0
0.4 0.566667 0
0.4 0.6 0
0.4 0.633333 0
0.4 0.666667 0
0.4 0.7 0
0.4 0.733333 0
0.4 0.766667 0
0.4 0.8 0
0.4 0.833333 0
0.4 0.866667 0
0.4 0.9 0
0.4 0.933333 0
0.4 0.966667 0
0.433333 0.0333333 0
0.433333 0.0666667 0
0.433333 0.1 0
0.433333 0.133333 0
0.433333 0.166667 0
0.433333 0.2 0
0.433333 0.233333 0
0.433333 0.266667 0
0.433333 0.3 0
0.433333 0.333333 0
0.433333 0.366667 0
0.433333 0.4 0
0.433333 0.433333 0
0.433333 0.466667 0
0.433333 0.5 0
0.433333 0.533333 0
0.433333 0.566667 0
0.433333 0.6 0
0.433333 0.633333 0
0.433333 0.666667 0
0.433333 0.7 0
0.433333 0.733333 0
0.433333 0.766667 0
0.433333 0.8 0
0.433333 0.833333 0
0.433333 0.866667 0
0.433333 0.9 0
0.433333 0.933333 0
0.433333 0.966667 0
0.466667 0.0333333 0
0.466667 0.0666667 0
0.466667 0.1 0
0.466667 0.133333 0
0.466667 0.166667 0
0.466667 0.2 0
0.466667 0.233333 0
0.466667 0.266667 0
0.466667 0.3 0
0.466667 0.333333 0
0.466667 0.366667 0
0.466667 0.4 0
0.466667 0.433333 0
0.466667 0.466667 0
0.466667 0.5 0
0.466667 0.533333 0
0.466667 0.566667 0
0.466667 0.6 0
0.466667 0.633333 0
0.466667 0.666667 0
0.466667 0.7 0
0.466667 0.733333 0
0.466667 0.766667 0
0.466667 0.8 0
0.466667 0.833333 0
0.466667 0.866667 0
0.466667 0.9 0
0.466667 0.933333 0
0.466667 0.966667 0
0.5 0.0333333 0
0.5 0.0666667 0
0.5 0.1 0
0.5 0.133333 0
0.5 0.166667 0
0.5 0.2 0
0.5 0.233333 0
0.5 0.266667 0
0.5 0.3 0
0.5 0.333333 0
0.5 0.366667 0
0.5 0.4 0
0.5 0.433333 0
0.5 0.466667 0
0.5 0.5 0
0.5 0.533333 0
0.5 0.566667 0
0.5 0.6 0
0.5 0.633333 0
0.5 0.666667 0
0.5 0.7 0
0.5 0.733333 0
0.5 0.766667 0
0.5 0.8 0
0.5 0.833333 0
0.5 0.866667 0
0.5 0.9 0
0.5 0.933333 0
0.5 0.966667 0
0.533333 0.0333333 0
0.533333 0.0666667 0
0.533333 0.1 0
0.533333 0.133333 0
0.533333 0.166667 0
0.533333 0.2 0
0.533333 0.233333 0
0.533333 0.266667 0
0.533333 0.3 0
0.533333 0.333333 0
0.533333 0.366667 0
0.533333 0.4 0
0.533333 0.433333 0
0.533333 0.466667 0
0.533333 0.5 0
0.533333 0.533333 0
0.533333 0.566667 0
0.533333 0.6 0
0.533333 0.633333 0
0.533333 0.666667 0
0.533333 0.7 0
0.533333 0.733333 0
0.533333 0.766667 0
0.533333 0.8 0
0.533333 0.833333 0
0.533333 0.866667 0
0.533333 0.9 0
0.533333 0.933333 0
0.533333 0.966667 0
0.566667 0.0333333 0
0.566667 0.0666667 0
0.566667 0.1 0
0.566667 0.133333 0
0.566667 0.166667 0
0.566667 0.2 0
0.566667 0.233333 0
0.566667 0.266667 0
0.566667 0.3 0
0.566667 0.333333 0
0.566667 0.366667 0
0.566667 0.4 0
0.566667 0.433333 0
0.566667 0.466667 0
0.566667 0.5 0
0.566667 0.533333 0
0.566667 0.566667 0
0.566667 0.6 0
0.566667 0.633333 0
0.566667 0.666667 0
0.566667 0.7 0
0.566667 0.733333 0
0.566667 0.766667 0
0.566667 0.8 0
0.566667 0.833333 0
0.566667 0.866667 0
0.566667 0.9 0
0.566667 0.933333 0
0.566667 0.966667 0
0.6 0.0333333 0
0.6 0.0666667 0
0.6 0.1 0
0.6 0.133333 0
[...]
CELL_DATA 900
VECTORS velocity double
-0.000111552 0.000111365 0.0
-0.000209849 0.000528848 0.0
-0.000232931 0.00112382 0.0
-0.000242816 0.00172121 0.0
-0.000252475 0.00234863 0.0
-0.000265332 0.00300333 0.0
-0.000281784 0.00369579 0.0
-0.000302116 0.00443487 0.0
-0.000326699 0.00523074 0.0
-0.000356054 0.00609467 0.0
-0.00039088 0.00703945 0.0
-0.0004321 0.00807987 0.0
-0.000480941 0.00923337 0.0
-0.000539055 0.0105209 0.0
-0.000608715 0.0119681 0.0
-0.000693117 0.0136072 0.0
-0.000796895 0.0154796 0.0
-0.000927031 0.01764 0.0
-0.00109455 0.0201631 0.0
-0.0013179 0.0231544 0.0
-0.00163012 0.0267701 0.0
-0.00209474 0.0312533 0.0
-0.00284273 0.0370058 0.0
-0.00415828 0.0447274 0.0
-0.00667524 0.0558177 0.0
-0.0117375 0.0725092 0.0
-0.0214652 0.10163 0.0
-0.0356384 0.143534 0.0
-0.018356 0.2299 0.0
0.209491 0.159551 0.0
-0.00052921 0.000207822 0.0
-0.000894462 0.000885656 0.0
-0.000990696 0.00180394 0.0
-0.0010352 0.00273127 0.0
-0.00107953 0.00370688 0.0
-0.00113598 0.00472683 0.0
-0.00120708 0.00580618 0.0
-0.00129438 0.00695832 0.0
-0.00139965 0.00819874 0.0
-0.00152517 0.00954469 0.0
-0.0016739 0.0110158 0.0
-0.00184976 0.0126345 0.0
-0.00205791 0.0144275 0.0
-0.00230527 0.0164265 0.0
-0.00260128 0.0186699 0.0
-0.0029591 0.0212057 0.0
-0.00339746 0.0240948 0.0
-0.00394383 0.0274161 0.0
-0.00463972 0.0312748 0.0
-0.00555029 0.0358132 0.0
-0.00678211 0.0412294 0.0
-0.00851781 0.0478031 0.0
-0.011086 0.0559331 0.0
-0.0151026 0.066173 0.0
-0.0217416 0.0793557 0.0
-0.0331216 0.095989 0.0
-0.0514843 0.117953 0.0
-0.0732894 0.137565 0.0
-0.0384771 0.153072 0.0
0.266855 0.0933234 0.0
-0.00111273 0.000222822 0.0
-0.0018035 0.000946734 0.0
-0.00199319 0.00192356 0.0
-0.00208314 0.00290737 0.0
-0.00217416 0.00394165 0.0
-0.00228854 0.00502234 0.0
-0.00243184 0.00616542 0.0
-0.00260731 0.00738481 0.0
-0.00281851 0.00869653 0.0
-0.00306992 0.0101183 0.0
-0.00336737 0.01167 0.0
-0.0037184 0.0133745 0.0
-0.00413291 0.0152581 0.0
-0.0046241 0.0173518 0.0
-0.00520974 0.0196926 0.0
-0.00591424 0.0223256 0.0
-0.00677176 0.025306 0.0
-0.00783113 0.0287032 0.0
-0.00916367 0.0326049 0.0
-0.0108761 0.0371231 0.0
-0.013132 0.0424015 0.0
-0.016188 0.048622 0.0
-0.020455 0.0560064 0.0
-0.0265952 0.064788 0.0
-0.0356334 0.0751938 0.0
-0.0488918 0.086856 0.0
-0.0657001 0.0993281 0.0
-0.0740926 0.106252 0.0
0.00179433 0.0985616 0.0
0.390132 0.0535782 0.0
-0.00167025 0.000219215 0.0
-0.00267608 0.000932469 0.0
-0.00295265 0.00189401 0.0
-0.00308432 0.00286081 0.0
-0.00321879 0.00387685 0.0
-0.00338757 0.00493773 0.0
-0.00359873 0.00605904 0.0
-0.00385688 0.007254 0.0
-0.00416707 0.00853777 0.0
-0.00453564 0.00992691 0.0
-0.00497068 0.0114398 0.0
-0.00548262 0.0130971 0.0
-0.00608501 0.0149223 0.0
-0.00679561 0.0169421 0.0
-0.00763804 0.0191877 0.0
-0.0086441 0.0216953 0.0
-0.0098573 0.0245073 0.0
-0.0113381 0.0276734 0.0
-0.0131717 0.0312513 0.0
-0.0154805 0.0353063 0.0
-0.0184422 0.0399079 0.0
-0.0223179 0.0451201 0.0
-0.027494 0.0509772 0.0
-0.0345335 0.0574229 0.0
-0.0441837 0.0642288 0.0
-0.0570801 0.0705837 0.0
-0.0710856 0.0751798 0.0
-0.0704407 0.0739037 0.0
0.0232911 0.059764 0.0
0.443091 0.0295272 0.0
-0.00221605 0.000209602 0.0
-0.00353111 0.000893518 0.0
-0.00389205 0.00181588 0.0
-0.00406425 0.0027423 0.0
-0.00424066 0.00371534 0.0
-0.00446184 0.00473039 0.0
-0.00473815 0.00580214 0.0
-0.00507541 0.00694273 0.0
-0.00547987 0.00816597 0.0
-0.00595934 0.00948669 0.0
-0.00652366 0.0109211 0.0
-0.00718539 0.0124868 0.0
-0.00796059 0.0142033 0.0
-0.00887 0.0160922 0.0
-0.00994068 0.0181772 0.0
-0.0112083 0.020484 0.0
-0.0127202 0.0230406 0.0
-0.0145405 0.0258757 0.0
-0.0167559 0.0290173 0.0
-0.019485 0.0324876 0.0
-0.0228909 0.0362947 0.0
-0.0271967 0.040416 0.0
-0.0327039 0.0447677 0.0
-0.0398017 0.0491472 0.0
-0.0489002 0.0531554 0.0
-0.0599923 0.0559624 0.0
-0.0699285 0.0562654 0.0
-0.0609082 0.0516216 0.0
0.0452545 0.0372745 0.0
0.476247 0.0162995 0.0
-0.00273256 0.000197467 0.0
-0.00434137 0.000842357 0.0
-0.00478164 0.00171205 0.0
-0.00499156 0.00258499 0.0
-0.00520679 0.00350126 0.0
-0.00547641 0.00445617 0.0
-0.00581278 0.00546315 0.0
-0.00622263 0.0065331 0.0
-0.0067131 0.00767824 0.0
-0.00729297 0.00891142 0.0
-0.00797322 0.0102463 0.0
-0.00876762 0.0116974 0.0
-0.00969352 0.0132801 0.0
-0.0107729 0.0150102 0.0
-0.0120337 0.0169041 0.0
-0.0135121 0.0189777 0.0
-0.0152545 0.0212453 0.0
-0.0173216 0.0237175 0.0
-0.0197922 0.0263975 0.0
-0.0227693 0.0292748 0.0
-0.0263859 0.0323147 0.0
-0.0308117 0.0354417 0.0
-0.0362553 0.0385125 0.0
-0.0429498 0.0412727 0.0
-0.0510571 0.0433039 0.0
-0.0601787 0.0439143 0.0
-0.0666846 0.0420898 0.0
-0.0519703 0.0365089 0.0
0.0613731 0.0243176 0.0
0.496329 0.00944353 0.0
-0.00321584 0.00018313 0.0
-0.00509962 0.000781232 0.0
-0.00561376 0.00158765 0.0
-0.00585847 0.00239662 0.0
-0.00610921 0.00324514 0.0
-0.00642299 0.00412853 0.0
-0.00681387 0.00505884 0.0
-0.00728926 0.00604559 0.0
-0.00785686 0.00709931 0.0
-0.00852598 0.00823083 0.0
-0.00930811 0.0094513 0.0
-0.0102175 0.0107721 0.0
-0.0112715 0.0122045 0.0
-0.012492 0.0137593 0.0
-0.013906 0.0154461 0.0
-0.0155472 0.0172725 0.0
-0.0174579 0.0192415 0.0
-0.0196907 0.0213499 0.0
-0.0223117 0.0235831 0.0
-0.0254019 0.0259091 0.0
-0.02906 0.0282693 0.0
-0.0334009 0.0305637 0.0
-0.0385501 0.0326321 0.0
-0.0446186 0.0342262 0.0
-0.051599 0.034981 0.0
-0.0588694 0.0343766 0.0
-0.0625897 0.0317053 0.0
-0.0439163 0.0262969 0.0
0.0737673 0.0164864 0.0
0.509254 0.00577741 0.0
-0.00366002 0.000166767 0.0
-0.00579639 0.000711235 0.0
-0.00637805 0.00144508 0.0
-0.00665423 0.00218086 0.0
-0.00693682 0.00295206 0.0
-0.00729002 0.0037541 0.0
-0.00772935 0.00459757 0.0
-0.00826266 0.00549061 0.0
-0.00889788 0.00644205 0.0
-0.0096445 0.00746077 0.0
-0.010514 0.00855553 0.0
-0.0115203 0.00973483 0.0
-0.0126803 0.0110064 0.0
-0.0140142 0.0123767 0.0
-0.0155468 0.0138501 0.0
-0.0173076 0.0154271 0.0
-0.0193325 0.0171032 0.0
-0.0216644 0.0188653 0.0
-0.0243539 0.020688 0.0
-0.0274597 0.0225284 0.0
-0.0310473 0.0243175 0.0
-0.0351849 0.0259512 0.0
-0.0399334 0.0272769 0.0
-0.0453196 0.0280795 0.0
-0.0512354 0.0280693 0.0
-0.0569508 0.0268794 0.0
-0.0585604 0.0240476 0.0
-0.0372113 0.0192669 0.0
0.0831064 0.0115651 0.0
0.51798 0.00374242 0.0
-0.00406018 0.000148559 0.0
-0.00642388 0.000633312 0.0
-0.00706604 0.0012864 0.0
-0.0073701 0.0019409 0.0
-0.00768067 0.00262641 0.0
-0.00806834 0.00333861 0.0
-0.00854986 0.00408661 0.0
-0.00913327 0.00487716 0.0
-0.00982653 0.00571754 0.0
-0.010639 0.00661478 0.0
-0.0115817 0.00757557 0.0
-0.0126679 0.00860591 0.0
-0.0139131 0.00971067 0.0
-0.0153354 0.0108929 0.0
-0.0169564 0.0121529 0.0
-0.0188006 0.0134869 0.0
-0.0208968 0.0148849 0.0
-0.0232771 0.0163287 0.0
-0.0259773 0.0177879 0.0
-0.0290355 0.0192158 0.0
-0.032489 0.0205439 0.0
-0.0363692 0.021675 0.0
-0.0406911 0.0224768 0.0
-0.045428 0.0227755 0.0
-0.050418 0.0223544 0.0
-0.054889 0.0209653 0.0
-0.0549362 0.0183189 0.0
-0.0317751 0.0142988 0.0
0.0901597 0.00832592 0.0
0.524093 0.00254626 0.0
-0.00441191 0.00012872 0.0
-0.00697516 0.000548459 0.0
-0.00767021 0.00111371 0.0
-0.00799839 0.00167992 0.0
-0.00833297 0.00227258 0.0
-0.0087501 0.00288776 0.0
-0.00926747 0.00353306 0.0
-0.00989321 0.00421399 0.0
-0.0106351 0.00493636 0.0
-0.0115022 0.0057056 0.0
-0.0125048 0.00652663 0.0
-0.0136552 0.00740349 0.0
-0.0149671 0.00833886 0.0
-0.0164565 0.0093334 0.0
-0.018141 0.0103848 0.0
-0.0200402 0.0114867 0.0
-0.0221755 0.0126267 0.0
-0.0245692 0.0137847 0.0
-0.0272438 0.0149295 0.0
-0.0302197 0.0160166 0.0
-0.0335122 0.0169834 0.0
-0.0371254 0.0177463 0.0
-0.0410438 0.0181972 0.0
-0.0452096 0.0182024 0.0
-0.0494363 0.0176062 0.0
-0.0529436 0.0162458 0.0
-0.0518526 0.0139454 0.0
-0.0274575 0.0106814 0.0
0.095492 0.00609505 0.0
0.528496 0.00179684 0.0
-0.0047114 0.000107489 0.0
-0.00744431 0.00045771 0.0
-0.00818415 0.000929132 0.0
-0.00853256 0.00140116 0.0
-0.00888715 0.00189498 0.0
-0.00932873 0.00240718 0.0
-0.00987573 0.00294393 0.0
-0.0105363 0.00350956 0.0
-0.0113178 0.00410859 0.0
-0.012229 0.00474509 0.0
-0.0132794 0.00542257 0.0
-0.01448 0.00614358 0.0
-0.0158429 0.00690934 0.0
-0.0173816 0.00771907 0.0
-0.0191101 0.00856921 0.0
-0.0210433 0.00945235 0.0
-0.0231959 0.0103559 0.0
-0.0255817 0.0112603 0.0
-0.0282119 0.0121373 0.0
-0.0310931 0.0129474 0.0
-0.0342236 0.0136378 0.0
-0.0375892 0.0141406 0.0
-0.0411546 0.0143715 0.0
-0.0448457 0.0142319 0.0
-0.0484678 0.0136132 0.0
-0.0512478 0.012411 0.0
-0.049337 0.0105208 0.0
-0.0240959 0.00795798 0.0
0.099508 0.00448796 0.0
0.531718 0.00129655 0.0
-0.00495544 8.51086e-05 0.0
-0.00782638 0.000362113 0.0
-0.00860253 0.00073479 0.0
-0.00896723 0.00110784 0.0
-0.00933786 0.00149798 0.0
-0.00979897 0.00190243 0.0
-0.0103696 0.00232599 0.0
-0.0110576 0.00277194 0.0
-0.0118704 0.00324364 0.0
-0.012816 0.00374408 0.0
-0.0139032 0.00427565 0.0
-0.0151419 0.00483992 0.0
-0.0165427 0.00543724 0.0
-0.0181166 0.00606623 0.0
-0.0198747 0.00672312 0.0
-0.0218276 0.00740091 0.0
-0.0239845 0.00808833 0.0
-0.0263523 0.00876862 0.0
-0.0289332 0.00941811 0.0
-0.0317234 0.0100048 0.0
-0.0347092 0.010487 0.0
-0.0378639 0.0108126 0.0
-0.0411406 0.0109194 0.0
-0.0444573 0.0107373 0.0
-0.0476191 0.0101927 0.0
-0.0498648 0.0092201 0.0
-0.0473721 0.00775764 0.0
-0.0215483 0.00583076 0.0
0.102493 0.00327639 0.0
0.534081 0.000941571 0.0
-0.00514148 6.18243e-05 0.0
-0.00811739 0.000262713 0.0
-0.00892108 0.000532809 0.0
-0.00929811 0.000803151 0.0
-0.00968085 0.00108584 0.0
-0.0101567 0.0013789 0.0
-0.010745 0.00168575 0.0
-0.0114537 0.00200875 0.0
-0.0122898 0.00235026 0.0
-0.0132608 0.00271235 0.0
-0.0143751 0.00309663 0.0
-0.0156415 0.00350406 0.0
-0.0170693 0.00393465 0.0
-0.0186677 0.00438707 0.0
-0.0204452 0.00485819 0.0
-0.0224092 0.00534247 0.0
-0.0245646 0.0058312 0.0
-0.0269128 0.00631165 0.0
-0.0294499 0.00676617 0.0
-0.0321644 0.0071713 0.0
-0.0350345 0.007497 0.0
-0.0380252 0.00770647 0.0
-0.0410832 0.00775674 0.0
-0.0441231 0.00760061 0.0
-0.0469529 0.00719036 0.0
-0.048822 0.00648551 0.0
-0.0459272 0.00544863 0.0
-0.0197036 0.0041 0.0
0.104644 0.00231853 0.0
0.535789 0.00067427 0.0
-0.00526754 3.78821e-05 0.0
-0.00831433 0.00016055 0.0
-0.00913658 0.000325286 0.0
-0.00952197 0.000490217 0.0
-0.00991296 0.000662767 0.0
-0.0103988 0.000841801 0.0
-0.0109992 0.00102945 0.0
-0.011722 0.00122719 0.0
-0.0125739 0.00143653 0.0
-0.0135622 0.00165877 0.0
-0.0146948 0.00189495 0.0
-0.0159799 0.00214571 0.0
-0.0174258 0.00241111 0.0
-0.0190403 0.00269037 0.0
-0.0208304 0.00298163 0.0
-0.0228011 0.00328149 0.0
-0.0249545 0.00358464 0.0
-0.0272883 0.00388329 0.0
-0.0297942 0.0041666 0.0
-0.032456 0.00442022 0.0
-0.0352466 0.00462583 0.0
-0.0381261 0.00476107 0.0
-0.0410374 0.00479997 0.0
-0.0438937 0.00471417 0.0
-0.0465054 0.00447513 0.0
-0.0481295 0.00405849 0.0
-0.0449727 0.00343997 0.0
-0.0184811 0.00262608 0.0
0.106094 0.00152058 0.0
0.53697 0.000459881 0.0
-0.0053323 1.35302e-05 0.0
-0.00841514 5.66611e-05 0.0
-0.00924685 0.000114295 0.0
-0.00963661 0.000172131 0.0
-0.010032 0.000232856 0.0
-0.0105233 0.000296224 0.0
-0.0111303 0.000363096 0.0
-0.0118607 0.000434134 0.0
-0.0127213 0.00051003 0.0
-0.0137192 0.000591443 0.0
-0.014862 0.000678975 0.0
-0.0161577 0.000773128 0.0
-0.017614 0.000874241 0.0
-0.0192383 0.000982413 0.0
-0.0210365 0.00109739 0.0
-0.0230125 0.0012184 0.0
-0.0251668 0.00134402 0.0
-0.0274955 0.00147189 0.0
-0.0299878 0.0015985 0.0
-0.0326247 0.00171892 0.0
-0.0353767 0.00182653 0.0
-0.038201 0.00191285 0.0
-0.0410381 0.00196752 0.0
-0.0438002 0.00197851 0.0
-0.0462982 0.00193262 0.0
-0.0477912 0.00181637 0.0
-0.0444864 0.00161159 0.0
-0.0178254 0.00130531 0.0
0.106928 0.000814609 0.0
0.5377 0.000274501 0.0
-0.00533504 -1.09914e-05 0.0
-0.00841871 -4.79311e-05 0.0
-0.00925069 -9.80987e-05 0.0
-0.00964086 -0.000148037 0.0
-0.0100369 -0.00019983 0.0
-0.010529 -0.000252822 0.0
-0.0111371 -0.000307418 0.0
-0.0118689 -0.000363763 0.0
-0.0127311 -0.000421952 0.0
-0.0137311 -0.000481945 0.0
-0.0148764 -0.000543536 0.0
-0.0161751 -0.000606294 0.0
-0.017635 -0.000669507 0.0
-0.0192634 -0.000732104 0.0
-0.0210664 -0.000792571 0.0
-0.0230478 -0.000848865 0.0
-0.0252081 -0.000898327 0.0
-0.027543 -0.000937612 0.0
-0.0300416 -0.000962663 0.0
-0.0326845 -0.000968762 0.0
-0.0354412 -0.000950691 0.0
-0.038268 -0.00090308 0.0
-0.0411041 -0.00082098 0.0
-0.0438602 -0.000700756 0.0
-0.0463447 -0.00054148 0.0
-0.0478125 -0.000347643 0.0
-0.0444612 -0.000135651 0.0
-0.0177111 5.40247e-05 0.0
0.107192 0.000140379 0.0
0.538024 9.47608e-05 0.0
-0.00527564 -3.54556e-05 0.0
-0.00832488 -0.000152216 0.0
-0.00914793 -0.000309826 0.0
-0.00953451 -0.000467213 0.0
-0.00992734 -0.000631226 0.0
-0.0104157 -0.000800333 0.0
-0.0110193 -0.000976225 0.0
-0.0117461 -0.00115988 0.0
-0.0126031 -0.00135221 0.0
-0.0135976 -0.00155384 0.0
-0.0147376 -0.00176502 0.0
-0.0160316 -0.00198543 0.0
-0.0174881 -0.00221408 0.0
-0.0191151 -0.002449 0.0
-0.0209196 -0.00268699 0.0
-0.0229065 -0.00292329 0.0
-0.0250779 -0.00315118 0.0
-0.0274309 -0.00336165 0.0
-0.0299564 -0.003543 0.0
-0.0326366 -0.00368068 0.0
-0.0354424 -0.00375725 0.0
-0.0383308 -0.00375293 0.0
-0.0412407 -0.00364663 0.0
-0.0440803 -0.00341804 0.0
-0.0466524 -0.003051 0.0
-0.0481995 -0.00254013 0.0
-0.0448926 -0.00190013 0.0
-0.0181106 -0.00120162 0.0
0.106915 -0.000532792 0.0
0.537923 -8.45624e-05 0.0
-0.00515457 -5.96193e-05 0.0
-0.00813444 -0.000255155 0.0
-0.00893941 -0.000518791 0.0
-0.00931839 -0.000782283 0.0
-0.00970412 -0.00105721 0.0
-0.010184 -0.00134123 0.0
-0.0107776 -0.00163735 0.0
-0.0114929 -0.00194745 0.0
-0.0123372 -0.00227336 0.0
-0.0133183 -0.00261646 0.0
-0.0144448 -0.0029776 0.0
-0.0157259 -0.0033568 0.0
-0.0171712 -0.00375298 0.0
-0.0187902 -0.00416358 0.0
-0.0205918 -0.00458403 0.0
-0.0225831 -0.00500721 0.0
-0.0247692 -0.00542271 0.0
-0.0271505 -0.00581613 0.0
-0.0297218 -0.00616831 0.0
-0.0324694 -0.00645473 0.0
-0.0353681 -0.00664521 0.0
-0.0383779 -0.00670434 0.0
-0.0414385 -0.00659291 0.0
-0.0444557 -0.00627105 0.0
-0.0472236 -0.00570368 0.0
-0.0489648 -0.00487157 0.0
-0.0458097 -0.00378357 0.0
-0.0190712 -0.0025371 0.0
0.106069 -0.00123097 0.0
0.537412 -0.000261874 0.0
-0.00497293 -8.3225e-05 0.0
-0.00784915 -0.000355682 0.0
-0.00862702 -0.000722864 0.0
-0.00899435 -0.00109008 0.0
-0.00936898 -0.00147358 0.0
-0.00983555 -0.00187028 0.0
-0.0104132 -0.00228461 0.0
-0.0111102 -0.00271942 0.0
-0.0119341 -0.00317758 0.0
-0.0128933 -0.00366144 0.0
-0.0139972 -0.00417266 0.0
-0.0152561 -0.0047119 0.0
-0.0166811 -0.00527843 0.0
-0.0182837 -0.00586954 0.0
-0.0200754 -0.0064799 0.0
-0.0220671 -0.00710069 0.0
-0.024268 -0.00771853 0.0
-0.0266841 -0.00831432 0.0
-0.0293164 -0.00886193 0.0
-0.0321581 -0.009327 0.0
-0.035191 -0.00966605 0.0
-0.0383814 -0.00982637 0.0
-0.0416726 -0.00974742 0.0
-0.0449688 -0.00936459 0.0
-0.0480534 -0.00861683 0.0
-0.0501215 -0.0074625 0.0
-0.0472461 -0.00589688 0.0
-0.0206457 -0.00404205 0.0
0.104594 -0.00201226 0.0
0.536463 -0.000454157 0.0
-0.00473247 -0.000106013 0.0
-0.00747176 -0.000452709 0.0
-0.00821369 -0.000919861 0.0
-0.00856528 -0.00138733 0.0
-0.00892474 -0.00187596 0.0
-0.00937297 -0.00238207 0.0
-0.00992858 -0.00291152 0.0
-0.0106 -0.00346829 0.0
-0.0113952 -0.00405645 0.0
-0.0123232 -0.00467955 0.0
-0.0133943 -0.00534038 0.0
-0.01462 -0.00604068 0.0
-0.0160133 -0.00678057 0.0
-0.0175883 -0.00755794 0.0
-0.0193599 -0.00836753 0.0
-0.0213436 -0.00919986 0.0
-0.0235543 -0.0100397 0.0
-0.0260054 -0.0108645 0.0
-0.0287071 -0.0116422 0.0
-0.0316628 -0.0123294 0.0
-0.034866 -0.0128689 0.0
-0.0382936 -0.0131891 0.0
-0.0418977 -0.0132039 0.0
-0.0455844 -0.0128167 0.0
-0.0491268 -0.0119292 0.0
-0.0516858 -0.0104627 0.0
-0.0492565 -0.00838455 0.0
-0.0229234 -0.00583462 0.0
0.10239 -0.00295218 0.0
0.535008 -0.000686199 0.0
-0.00443559 -0.000127721 0.0
-0.00700602 -0.000545129 0.0
-0.00770343 -0.00110755 0.0
-0.00803521 -0.0016707 0.0
-0.00837533 -0.00225987 0.0
-0.00880001 -0.00287091 0.0
-0.0093272 -0.00351122 0.0
-0.00996542 -0.00418602 0.0
-0.010723 -0.00490076 0.0
-0.0116094 -0.00566046 0.0
-0.0126361 -0.00646943 0.0
-0.0138158 -0.00733097 0.0
-0.0151635 -0.00824677 0.0
-0.0166962 -0.00921618 0.0
-0.0184327 -0.0102352 0.0
-0.0203939 -0.011295 0.0
-0.0226018 -0.0123804 0.0
-0.0250795 -0.0134672 0.0
-0.0278488 -0.0145193 0.0
-0.030928 -0.0154859 0.0
-0.0343272 -0.0162972 0.0
-0.0380419 -0.0168613 0.0
-0.0420406 -0.0170625 0.0
-0.0462399 -0.0167627 0.0
-0.0504075 -0.0158105 0.0
-0.0536665 -0.0140669 0.0
-0.0519093 -0.0114459 0.0
-0.0260322 -0.00808564 0.0
0.0993033 -0.00416243 0.0
0.532919 -0.000994927 0.0
-0.00408537 -0.000148085 0.0
-0.0064567 -0.000631822 0.0
-0.0071014 -0.00128366 0.0
-0.00740933 -0.00193676 0.0
-0.00772585 -0.00262067 0.0
-0.00812167 -0.00333092 0.0
-0.00861379 -0.0040765 0.0
-0.00921072 -0.00486401 0.0
-0.00992101 -0.00570047 0.0
-0.0107547 -0.00659262 0.0
-0.0117238 -0.00754672 0.0
-0.0128426 -0.00856817 0.0
-0.0141279 -0.00966102 0.0
-0.0155995 -0.0108271 0.0
-0.0172803 -0.0120652 0.0
-0.0191972 -0.013369 0.0
-0.0213804 -0.0147254 0.0
-0.023864 -0.0161115 0.0
-0.0266849 -0.0174908 0.0
-0.0298805 -0.0188079 0.0
-0.033485 -0.0199832 0.0
-0.0375217 -0.0209058 0.0
-0.0419892 -0.0214271 0.0
-0.0468298 -0.0213577 0.0
-0.0518201 -0.0204727 0.0
-0.0560497 -0.0185375 0.0
-0.0552819 -0.0153695 0.0
-0.0301508 -0.0110583 0.0
0.0951019 -0.00582956 0.0
0.529975 -0.00144656 0.0
-0.00368553 -0.000166843 0.0
-0.00582964 -0.000711671 0.0
-0.00641389 -0.00144592 0.0
-0.00669403 -0.00218206 0.0
-0.00698272 -0.00295364 0.0
-0.00734426 -0.00375605 0.0
-0.00779452 -0.00459987 0.0
-0.00834179 -0.00549317 0.0
-0.00899467 -0.00644473 0.0
-0.00976347 -0.00746327 0.0
-0.0106607 -0.00855734 0.0
-0.0117016 -0.00973506 0.0
-0.0129045 -0.0110036 0.0
-0.0142918 -0.0123686 0.0
-0.0158903 -0.0138329 0.0
-0.0177325 -0.0153951 0.0
-0.0198575 -0.0170473 0.0
-0.0223114 -0.0187717 0.0
-0.0251485 -0.0205359 0.0
-0.02843 -0.0222862 0.0
-0.032222 -0.023939 0.0
-0.0365887 -0.0253692 0.0
-0.0415777 -0.0263969 0.0
-0.0471829 -0.0267743 0.0
-0.0532199 -0.0261799 0.0
-0.0587674 -0.0242336 0.0
-0.0594394 -0.0205881 0.0
-0.0355146 -0.0151809 0.0
0.0894383 -0.00829294 0.0
0.525792 -0.00217365 0.0
-0.00324046 -0.000183753 0.0
-0.00513173 -0.000783589 0.0
-0.00564837 -0.00159206 0.0
-0.00589695 -0.00240314 0.0
-0.00615364 -0.00325405 0.0
-0.00647558 -0.00414015 0.0
-0.00687717 -0.00507362 0.0
-0.0073663 -0.00606405 0.0
-0.00795136 -0.00712207 0.0
-0.00864253 -0.00825857 0.0
-0.00945242 -0.00948473 0.0
-0.0103967 -0.0108119 0.0
-0.0114946 -0.0122511 0.0
-0.0127702 -0.0138128 0.0
-0.0142535 -0.0155058 0.0
-0.0159819 -0.017336 0.0
-0.0180022 -0.0193041 0.0
-0.0203728 -0.0214024 0.0
-0.0231662 -0.0236092 0.0
-0.0264711 -0.0258814 0.0
-0.0303929 -0.0281424 0.0
-0.0350512 -0.0302652 0.0
-0.0405678 -0.0320489 0.0
-0.047028 -0.0331892 0.0
-0.0543415 -0.0332511 0.0
-0.0616345 -0.0316473 0.0
-0.0643809 -0.0277646 0.0
-0.0424023 -0.021181 0.0
0.0818076 -0.0122105 0.0
0.519667 -0.00345903 0.0
-0.00275511 -0.00019861 0.0
-0.00437079 -0.000846534 0.0
-0.00481337 -0.00171986 0.0
-0.00502685 -0.00259657 0.0
-0.00524759 -0.00351715 0.0
-0.00552479 -0.00447702 0.0
-0.00587111 -0.00548989 0.0
-0.00629378 -0.00656685 0.0
-0.00680061 -0.0077204 0.0
-0.00740126 -0.00896369 0.0
-0.00810785 -0.0103107 0.0
-0.00893563 -0.0117764 0.0
-0.00990389 -0.0133762 0.0
-0.0110372 -0.0151264 0.0
-0.0123669 -0.0170433 0.0
-0.0139336 -0.0191423 0.0
-0.0157898 -0.0214366 0.0
-0.0180038 -0.0239339 0.0
-0.0206651 -0.0266321 0.0
-0.0238898 -0.0295106 0.0
-0.0278275 -0.032517 0.0
-0.0326664 -0.0355452 0.0
-0.0386312 -0.0384002 0.0
-0.0459536 -0.0407459 0.0
-0.0547281 -0.0420397 0.0
-0.0642532 -0.0414316 0.0
-0.0699528 -0.0379172 0.0
-0.0511369 -0.030332 0.0
0.0713715 -0.0189186 0.0
0.510157 -0.00593092 0.0
-0.00223544 -0.000211208 0.0
-0.00355642 -0.000899315 0.0
-0.00391936 -0.0018267 0.0
-0.00409464 -0.00275839 0.0
-0.00427582 -0.00373745 0.0
-0.00450359 -0.00475951 0.0
-0.00478858 -0.00583961 0.0
-0.00513704 -0.00699025 0.0
-0.00555587 -0.00822569 0.0
-0.00605365 -0.00956132 0.0
-0.00664134 -0.0110139 0.0