# vtk DataFile Version 3.0
Malha 2D com triângulos e temperatura
ASCII
DATASET UNSTRUCTURED_GRID

POINTS 961 double
0 0 0
1 0 0
1 1 0
0 1 0
0.0333333 0 0
0.0666667 0 0
0.1 0 0
0.133333 0 0
0.166667 0 0
0.2 0 0
0.233333 0 0
0.266667 0 0
0.3 0 0
0.333333 0 0
0.366667 0 0
0.4 0 0
0.433333 0 0
0.466667 0 0
0.5 0 0
0.533333 0 0
0.566667 0 0
0.6 0 0
0.633333 0 0
0.666667 0 0
0.7 0 0
0.733333 0 0
0.766667 0 0
0.8 0 0
0.833333 0 0
0.866667 0 0
0.9 0 0
0.933333 0 0
0.966667 0 0
1 0.0333333 0
1 0.0666667 0
1 0.1 0
1 0.133333 0
1 0.166667 0
1 0.2 0
1 0.233333 0
1 0.266667 0
1 0.3 0
1 0.333333 0
1 0.366667 0
1 0.4 0
1 0.433333 0
1 0.466667 0
1 0.5 0
1 0.533333 0
1 0.566667 0
1 0.6 0
1 0.633333 0
1 0.666667 0
1 0.7 0
1 0.733333 0
1 0.766667 0
1 0.8 0
1 0.833333 0
1 0.866667 0
1 0.9 0
1 0.933333 0
1 0.966667 0
0.966667 1 0
0.933333 1 0
0.9 1 0
0.866667 1 0
0.833333 1 0
0.8 1 0
0.766667 1 0
0.733333 1 0
0.7 1 0
0.666667 1 0
0.633333 1 0
0.6 1 0
0.566667 1 0
0.533333 1 0
0.5 1 0
0.466667 1 0
0.433333 1 0
0.4 1 0
0.366667 1 0
0.333333 1 0
0.3 1 0
0.266667 1 0
0.233333 1 0
0.2 1 0
0.166667 1 0
0.133333 1 0
0.1 1 0
0.0666667 1 0
0.0333333 1 0
0 0.966667 0
0 0.933333 0
0 0.9 0
0 0.866667 0
0 0.833333 0
0 0.8 0
0 0.766667 0
0 0.733333 0
0 0.7 0
0 0.666667 0
0 0.633333 0
0 0.6 0
0 0.566667 0
0 0.533333 0
0 0.5 0
0 0.466667 0
0 0.433333 0
0 0.4 0
0 0.366667 0
0 0.333333 0
0 0.3 0
0 0.266667 0
0 0.233333 0
0 0.2 0
0 0.166667 0
0 0.133333 0
0 0.1 0
0 0.0666667 0
0 0.0333333 0
0.0333333 0.0333333 0
0.0333333 0.0666667 0
0.0333333 0.1 0
0.0333333 0.133333 0
0.0333333 0.166667 0
0.0333333 0.2 0
0.0333333 0.233333 0
0.0333333 0.266667 0
0.0333333 0.3 0
0.0333333 0.333333 0
0.0333333 0.366667 0
0.0333333 0.4 0
0.0333333 0.433333 0
0.0333333 0.466667 0
0.0333333 0.5 0
0.0333333 0.533333 0
0.0333333 0.566667 0
0.0333333 0.6 0
0.0333333 0.633333 0
0.0333333 0.666667 0
0.0333333 0.7 0
0.0333333 0.733333 0
0.0333333 0.766667 0
0.0333333 0.8 0
0.0333333 0.833333 0
0.0333333 0.866667 0
0.0333333 0.9 0
0.0333333 0.933333 0
0.0333333 0.966667 0
0.0666667 0.0333333 0
0.0666667 0.0666667 0
0.0666667 0.1 0
0.0666667 0.133333 0
0.0666667 0.166667 0
0.0666667 0.2 0
0.0666667 0.233333 0
0.0666667 0.266667 0
0.0666667 0.3 0
0.0666667 0.333333 0
0.0666667 0.366667 0
0.0666667 0.4 0
0.0666667 0.433333 0
0.0666667 0.466667 0
0.0666667 0.5 0
0.0666667 0.533333 0
0.0666667 0.566667 0
0.0666667 0.6 0
0.0666667 0.633333 0
0.0666667 0.666667 0
0.0666667 0.7 0
0.0666667 0.733333 0
0.0666667 0.766667 0
0.0666667 0.8 0
0.0666667 0.833333 0
0.0666667 0.866667 0
0.0666667 0.9 0
0.0666667 0.933333 0
0.0666667 0.966667 0
0.1 0.0333333 0
0.1 0.0666667 0
0.1 0.1 0
0.1 0.133333 0
0.1 0.166667 0
0.1 0.2 0
0.1 0.233333 0
0.1 0.266667 0
0.1 0.3 0
0.1 0.333333 0
0.1 0.366667 0
0.1 0.4 0
0.1 0.433333 0
0.1 0.466667 0
0.1 0.5 0
0.1 0.533333 0
0.1 0.566667 0
0.1 0.6 0
0.1 0.633333 0
0.1 0.666667 0
0.1 0.7 0
0.1 0.733333 0
0.1 0.766667 0
0.1 0.8 0
0.1 0.833333 0
0.1 0.866667 0
0.1 0.9 0
0.1 0.933333 0
0.1 0.966667 0
0.133333 0.0333333 0
0.133333 0.0666667 0
0.133333 0.1 0
0.133333 0.133333 0
0.133333 0.166667 0
0.133333 0.2 0
0.133333 0.233333 0
0.133333 0.266667 0
0.133333 0.3 0
0.133333 0.333333 0
0.133333 0.366667 0
0.133333 0.4 0
0.133333 0.433333 0
0.133333 0.466667 0
0.133333 0.5 0
0.133333 0.533333 0
0.133333 0.566667 0
0.133333 0.6 0
0.133333 0.633333 0
0.133333 0.666667 0
0.133333 0.7 0
0.133333 0.733333 0
0.133333 0.766667 0
0.133333 0.8 0
0.133333 0.833333 0
0.133333 0.866667 0
0.133333 0.9 0
0.133333 0.933333 0
0.133333 0.966667 0
0.166667 0.0333333 0
0.166667 0.0666667 0
0.166667 0.1 0
0.166667 0.133333 0
0.166667 0.166667 0
0.166667 0.2 0
0.166667 0.233333 0
0.166667 0.266667 0
0.166667 0.3 0
0.166667 0.333333 0
0.166667 0.366667 0
0.166667 0.4 0
0.166667 0.433333 0
0.166667 0.466667 0
0.166667 0.5 0
0.166667 0.533333 0
0.166667 0.566667 0
0.166667 0.6 0
0.166667 0.633333 0
0.166667 0.666667 0
0.166667 0.7 0
0.166667 0.733333 0
0.166667 0.766667 0
0.166667 0.8 0
0.166667 0.833333 0
0.166667 0.866667 0
0.166667 0.9 0
0.166667 0.933333 0
0.166667 0.966667 0
0.2 0.0333333 0
0.2 0.0666667 0
0.2 0.1 0
0.2 0.133333 0
0.2 0.166667 0
0.2 0.2 0
0.2 0.233333 0
0.2 0.266667 0
0.2 0.3 0
0.2 0.333333 0
0.2 0.366667 0
0.2 0.4 0
0.2 0.433333 0
0.2 0.466667 0
0.2 0.5 0
0.2 0.533333 0
0.2 0.566667 0
0.2 0.6 0
0.2 0.633333 0
0.2 0.666667 0
0.2 0.7 0
0.2 0.733333 0
0.2 0.766667 0
0.2 0.8 0
0.2 0.833333 0
0.2 0.866667 0
0.2 0.9 0
0.2 0.933333 0
0.2 0.966667 0
0.233333 0.0333333 0
0.233333 0.0666667 0
0.233333 0.1 0
0.233333 0.133333 0
0.233333 0.166667 0
0.233333 0.2 0
0.233333 0.233333 0
0.233333 0.266667 0
0.233333 0.3 0
0.233333 0.333333 0
0.233333 0.366667 0
0.233333 0.4 0
0.233333 0.433333 0
0.233333 0.466667 0
0.233333 0.5 0
0.233333 0.533333 0
0.233333 0.566667 0
0.233333 0.6 0
0.233333 0.633333 0
0.233333 0.666667 0
0.233333 0.7 0
0.233333 0.733333 0
0.233333 0.766667 0
0.233333 0.8 0
0.233333 0.833333 0
0.233333 0.866667 0
0.233333 0.9 0
0.233333 0.933333 0
0.233333 0.966667 0
0.266667 0.0333333 0
0.266667 0.0666667 0
0.266667 0.1 0
0.266667 0.133333 0
0.266667 0.166667 0
0.266667 0.2 0
0.266667 0.233333 0
0.266667 0.266667 0
0.266667 0.3 0
0.266667 0.333333 0
0.266667 0.366667 0
0.266667 0.4 0
0.266667 0.433333 0
0.266667 0.466667 0
0.266667 0.5 0
0.266667 0.533333 0
0.266667 0.566667 0
0.266667 0.6 0
0.266667 0.633333 0
0.266667 0.666667 0
0.266667 0.7 0
0.266667 0.733333 0
0.266667 0.766667 0
0.266667 0.8 0
0.266667 0.833333 0
0.266667 0.866667 0
0.266667 0.9 0
0.266667 0.933333 0
0.266667 0.966667 0
0.3 0.0333333 0
0.3 0.0666667 0
0.3 0.1 0
0.3 0.133333 0
0.3 0.166667 0
0.3 0.2 0
0.3 0.233333 0
0.3 0.266667 0
0.3 0.3 0
0.3 0.333333 0
0.3 0.366667 0
0.3 0.4 0
0.3 0.433333 0
0.3 0.466667 0
0.3 0.5 0
0.3 0.533333 0
0.3 0.566667 0
0.3 0.6 0
0.3 0.633333 0
0.3 0.666667 0
0.3 0.7 0
0.3 0.733333 0
0.3 0.766667 0
0.3 0.8 0
0.3 0.833333 0
0.3 0.866667 0
0.3 0.9 0
0.3 0.933333 0
0.3 0.966667 0
0.333333 0.0333333 0
0.333333 0.0666667 0
0.333333 0.1 0
0.333333 0.133333 0
0.333333 0.166667 0
0.333333 0.2 0
0.333333 0.233333 0
0.333333 0.266667 0
0.333333 0.3 0
0.333333 0.333333 0
0.333333 0.366667 0
0.333333 0.4 0
0.333333 0.433333 0
0.333333 0.466667 0
0.333333 0.5 0
0.333333 0.533333 0
0.333333 0.566667 0
0.333333 0.6 0
0.333333 0.633333 0
0.333333 0.666667 0
0.333333 0.7 0
0.333333 0.733333 0
0.333333 0.766667 0
0.333333 0.8 0
0.333333 0.833333 0
0.333333 0.866667 0
0.333333 0.9 0
0.333333 0.933333 0
0.333333 0.966667 0
0.366667 0.0333333 0
0.366667 0.0666667 0
0.366667 0.1 0
0.366667 0.133333 0
0.366667 0.166667 0
0.366667 0.2 0
0.366667 0.233333 0
0.366667 0.266667 0
0.366667 0.3 0
0.366667 0.333333 0
0.366667 0.366667 0
0.366667 0.4 0
0.366667 0.433333 0
0.366667 0.466667 0
0.366667 0.5 0
0.366667 0.533333 0
0.366667 0.566667 0
0.366667 0.6 0
0.366667 0.633333 0
0.366667 0.666667 0
0.366667 0.7 0
0.366667 0.733333 0
0.366667 0.766667 0
0.366667 0.8 0
0.366667 0.833333 0
0.366667 0.866667 0
0.366667 0.9 0
0.366667 0.933333 0
0.366667 0.966667 0
0.4 0.0333333 0
0.4 0.0666667 0
0.4 0.1 0
0.4 0.133333 0
0.4 0.166667 0
0.4 0.2 0
0.4 0.233333 0
0.4 0.266667 0
0.4 0.3 0
0.4 0.333333 0
0.4 0.366667 0
0.4 0.4 0
0.4 0.433333 0
0.4 0.466667 0
0.4 0.5 0
0.4 0.533333 0
0.4 0.566667 0
0.4 0.6 0
0.4 0.633333 0
0.4 0.666667 0
0.4 0.7 0
0.4 0.733333 0
0.4 0.766667 0
0.4 0.8 0
0.4 0.833333 0
0.4 0.866667 0
0.4 0.9 0
0.4 0.933333 0
0.4 0.966667 0
0.433333 0.0333333 0
0.433333 0.0666667 0
0.433333 0.1 0
0.433333 0.133333 0
0.433333 0.166667 0
0.433333 0.2 0
0.433333 0.233333 0
0.433333 0.266667 0
0.433333 0.3 0
0.433333 0.333333 0
0.433333 0.366667 0
0.433333 0.4 0
0.433333 0.433333 0
0.433333 0.466667 0
0.433333 0.5 0
0.433333 0.533333 0
0.433333 0.566667 0
0.433333 0.6 0
0.433333 0.633333 0
0.433333 0.666667 0
0.433333 0.7 0
0.433333 0.733333 0
0.433333 0.766667 0
0.433333 0.8 0
0.433333 0.833333 0
0.433333 0.866667 0
0.433333 0.9 0
0.433333 0.933333 0
0.433333 0.966667 0
0.466667 0.0333333 0
0.466667 0.0666667 0
0.466667 0.1 0
0.466667 0.133333 0
0.466667 0.166667 0
0.466667 0.2 0
0.466667 0.233333 0
0.466667 0.266667 0
0.466667 0.3 0
0.466667 0.333333 0
0.466667 0.366667 0
0.466667 0.4 0
0.466667 0.433333 0
0.466667 0.466667 0
0.466667 0.5 0
0.466667 0.533333 0
0.466667 0.566667 0
0.466667 0.6 0
0.466667 0.633333 0
0.466667 0.666667 0
0.466667 0.7 0
0.466667 0.733333 0
0.466667 0.766667 0
0.466667 0.8 0
0.466667 0.833333 0
0.466667 0.866667 0
0.466667 0.9 0
0.466667 0.933333 0
0.466667 0.966667 0
0.5 0.0333333 0
0.5 0.0666667 0
0.5 0.1 0
0.5 0.133333 0
0.5 0.166667 0
0.5 0.2 0
0.5 0.233333 0
0.5 0.266667 0
0.5 0.3 0
0.5 0.333333 0
0.5 0.366667 0
0.5 0.4 0
0.5 0.433333 0
0.5 0.466667 0
0.5 0.5 0
0.5 0.533333 0
0.5 0.566667 0
0.5 0.6 0
0.5 0.633333 0
0.5 0.666667 0
0.5 0.7 0
0.5 0.733333 0
0.5 0.766667 0
0.5 0.8 0
0.5 0.833333 0
0.5 0.866667 0
0.5 0.9 0
0.5 0.933333 0
0.5 0.966667 0
0.533333 0.0333333 0
0.533333 0.0666667 0
0.533333 0.1 0
0.533333 0.133333 0
0.533333 0.166667 0
0.533333 0.2 0
0.533333 0.233333 0
0.533333 0.266667 0
0.533333 0.3 0
0.533333 0.333333 0
0.533333 0.366667 0
0.533333 0.4 0
0.533333 0.433333 0
0.533333 0.466667 0
0.533333 0.5 0
0.533333 0.533333 0
0.533333 0.566667 0
0.533333 0.6 0
0.533333 0.633333 0
0.533333 0.666667 0
0.533333 0.7 0
0.533333 0.733333 0
0.533333 0.766667 0
0.533333 0.8 0
0.533333 0.833333 0
0.533333 0.866667 0
0.533333 0.9 0
0.533333 0.933333 0
0.533333 0.966667 0
0.566667 0.0333333 0
0.566667 0.0666667 0
0.566667 0.1 0
0.566667 0.133333 0
0.566667 0.166667 0
0.566667 0.2 0
0.566667 0.233333 0
0.566667 0.266667 0
0.566667 0.3 0
0.566667 0.333333 0
0.566667 0.366667 0
0.566667 0.4 0
0.566667 0.433333 0
0.566667 0.466667 0
0.566667 0.5 0
0.566667 0.533333 0
0.566667 0.566667 0
0.566667 0.6 0
0.566667 0.633333 0
0.566667 0.666667 0
0.566667 0.7 0
0.566667 0.733333 0
0.566667 0.766667 0
0.566667 0.8 0
0.566667 0.833333 0
0.566667 0.866667 0
0.566667 0.9 0
0.566667 0.933333 0
0.566667 0.966667 0
0.6 0.0333333 0
0.6 0.0666667 0
0.6 0.1 0
0.6 0.133333 0
[...]
CELL_DATA 900
VECTORS velocity double
6.03353e-05 -5.92741e-05 0.0
-3.31193e-05 5.13992e-05 0.0
-0.000109195 0.00048359 0.0
-0.000160861 0.00110718 0.0
-0.000187947 0.00187687 0.0
-0.000203832 0.0027332 0.0
-0.000215721 0.00366003 0.0
-0.000228526 0.00465193 0.0
-0.000244425 0.00571728 0.0
-0.00026455 0.00686983 0.0
-0.000289532 0.0081279 0.0
-0.000320012 0.00951315 0.0
-0.000356859 0.0110513 0.0
-0.000401386 0.0127732 0.0
-0.000455617 0.0147172 0.0
-0.000522777 0.0169323 0.0
-0.000608239 0.0194838 0.0
-0.000721375 0.0224619 0.0
-0.000879129 0.0259956 0.0
-0.00111298 0.0302763 0.0
-0.00148214 0.0355941 0.0
-0.00209956 0.0423962 0.0
-0.00318085 0.051382 0.0
-0.00514222 0.0636348 0.0
-0.00874604 0.0809242 0.0
-0.0153022 0.105706 0.0
-0.0258892 0.142833 0.0
-0.0380474 0.190578 0.0
-0.0131672 0.263403 0.0
0.217096 0.174296 0.0
-5.32655e-05 3.67937e-05 0.0
-0.000561511 0.000562571 0.0
-0.000983498 0.00171029 0.0
-0.00129483 0.00322653 0.0
-0.00150247 0.00505346 0.0
-0.00165342 0.00709107 0.0
-0.0017823 0.00930978 0.0
-0.00191487 0.0116993 0.0
-0.00206667 0.0142762 0.0
-0.00224776 0.0170698 0.0
-0.00246552 0.0201206 0.0
-0.0027272 0.023478 0.0
-0.00304155 0.0272012 0.0
-0.00342049 0.0313615 0.0
-0.00388104 0.0360469 0.0
-0.00444821 0.0413682 0.0
-0.00515953 0.0474695 0.0
-0.00607213 0.0545414 0.0
-0.00727371 0.0628409 0.0
-0.0088984 0.072716 0.0
-0.0111481 0.0846315 0.0
-0.0143203 0.0991843 0.0
-0.0188351 0.117077 0.0
-0.0252698 0.138982 0.0
-0.034293 0.165208 0.0
-0.0464791 0.194699 0.0
-0.0600017 0.223749 0.0
-0.0656205 0.24007 0.0
-0.00244579 0.219002 0.0
0.305955 0.116749 0.0
-0.00048701 0.00011169 0.0
-0.00170508 0.000962487 0.0
-0.00269363 0.00264077 0.0
-0.0034308 0.00476932 0.0
-0.00395421 0.00729125 0.0
-0.00435434 0.0100879 0.0
-0.00470667 0.0131284 0.0
-0.00506845 0.016403 0.0
-0.00547737 0.0199342 0.0
-0.00595897 0.02376 0.0
-0.00653278 0.0279325 0.0
-0.00721762 0.0325146 0.0
-0.00803557 0.0375807 0.0
-0.00901571 0.0432192 0.0
-0.0101983 0.0495363 0.0
-0.0116403 0.0566621 0.0
-0.0134239 0.0647583 0.0
-0.015667 0.0740284 0.0
-0.0185371 0.0847286 0.0
-0.0222646 0.0971762 0.0
-0.0271468 0.111743 0.0
-0.0335248 0.128816 0.0
-0.0416924 0.148674 0.0
-0.0516927 0.171224 0.0
-0.0627833 0.195409 0.0
-0.0723919 0.218355 0.0
-0.0723508 0.23298 0.0
-0.0409803 0.228104 0.0
0.0916382 0.173042 0.0
0.477196 0.0771933 0.0
-0.00109281 0.000158178 0.0
-0.00316735 0.00121977 0.0
-0.00479198 0.00323278 0.0
-0.00599051 0.00572512 0.0
-0.00685912 0.00864376 0.0
-0.00753865 0.0118615 0.0
-0.0081479 0.0153511 0.0
-0.00877613 0.0191051 0.0
-0.00948357 0.0231496 0.0
-0.0103116 0.027526 0.0
-0.0112921 0.0322902 0.0
-0.0124552 0.0375081 0.0
-0.0138355 0.0432566 0.0
-0.0154771 0.0496246 0.0
-0.0174392 0.0567154 0.0
-0.0198031 0.0646501 0.0
-0.0226813 0.073571 0.0
-0.0262273 0.0836451 0.0
-0.0306447 0.0950625 0.0
-0.0361871 0.108027 0.0
-0.0431296 0.122721 0.0
-0.0516807 0.139231 0.0
-0.0617718 0.157369 0.0
-0.0726534 0.176396 0.0
-0.082075 0.194384 0.0
-0.0848034 0.207711 0.0
-0.0688045 0.208915 0.0
-0.00665884 0.189315 0.0
0.165806 0.127401 0.0
0.575643 0.0490888 0.0
-0.00180646 0.000174988 0.0
-0.00484483 0.00133427 0.0
-0.00715613 0.00350677 0.0
-0.00883995 0.00616314 0.0
-0.0100703 0.00925122 0.0
-0.0110454 0.0126392 0.0
-0.0119299 0.0163035 0.0
-0.0128455 0.0202384 0.0
-0.0138745 0.0244714 0.0
-0.0150736 0.029044 0.0
-0.0164861 0.0340105 0.0
-0.0181521 0.0394337 0.0
-0.0201162 0.0453846 0.0
-0.0224338 0.0519425 0.0
-0.025177 0.0591955 0.0
-0.0284417 0.0672407 0.0
-0.0323552 0.076184 0.0
-0.0370827 0.0861366 0.0
-0.0428279 0.0972058 0.0
-0.0498138 0.109474 0.0
-0.0582188 0.122952 0.0
-0.0680226 0.137495 0.0
-0.0786878 0.15262 0.0
-0.0885894 0.167272 0.0
-0.0939971 0.179258 0.0
-0.0873827 0.185018 0.0
-0.05386 0.177959 0.0
0.0360724 0.151812 0.0
0.23656 0.093053 0.0
0.646485 0.0305662 0.0
-0.00254631 0.00017588 0.0
-0.00658389 0.00135251 0.0
-0.0095894 0.00355086 0.0
-0.0117529 0.00622185 0.0
-0.0133362 0.00931333 0.0
-0.0145995 0.0126929 0.0
-0.015754 0.0163396 0.0
-0.0169525 0.0202486 0.0
-0.018298 0.0244471 0.0
-0.0198605 0.0289743 0.0
-0.0216925 0.0338802 0.0
-0.0238414 0.039221 0.0
-0.026358 0.045058 0.0
-0.0293034 0.0514565 0.0
-0.032755 0.0584847 0.0
-0.0368122 0.0662118 0.0
-0.0416015 0.0747041 0.0
-0.0472783 0.084018 0.0
-0.0540176 0.094186 0.0
-0.0619777 0.105192 0.0
-0.0712033 0.11692 0.0
-0.0814184 0.129079 0.0
-0.0916248 0.141038 0.0
-0.0994169 0.151648 0.0
-0.0998615 0.158756 0.0
-0.0837956 0.159254 0.0
-0.0347658 0.147625 0.0
0.0760811 0.120322 0.0
0.294738 0.0685878 0.0
0.69586 0.0191668 0.0
-0.00327507 0.000167917 0.0
-0.00830285 0.00130777 0.0
-0.0119872 0.00343777 0.0
-0.0146137 0.00601764 0.0
-0.0165338 0.00899603 0.0
-0.0180707 0.0122439 0.0
-0.0194819 0.0157421 0.0
-0.0209499 0.0194863 0.0
-0.0225964 0.023502 0.0
-0.0245026 0.0278251 0.0
-0.0267282 0.0325 0.0
-0.0293249 0.037575 0.0
-0.0323462 0.0431006 0.0
-0.0358542 0.0491277 0.0
-0.0399251 0.0557047 0.0
-0.0446528 0.0628746 0.0
-0.0501518 0.0706692 0.0
-0.0565536 0.0791 0.0
-0.0639888 0.0881428 0.0
-0.0725344 0.0977128 0.0
-0.0820916 0.107619 0.0
-0.0921346 0.117498 0.0
-0.101247 0.126674 0.0
-0.106359 0.134034 0.0
-0.101586 0.137618 0.0
-0.076617 0.134871 0.0
-0.01427 0.121279 0.0
0.112709 0.095176 0.0
0.342822 0.0509874 0.0
0.73102 0.0121129 0.0
-0.00396491 0.000155898 0.0
-0.00993698 0.00122459 0.0
-0.014264 0.00322224 0.0
-0.0173251 0.00563754 0.0
-0.0195581 0.00842156 0.0
-0.0213481 0.0114524 0.0
-0.0229965 0.0147128 0.0
-0.0247136 0.0181988 0.0
-0.0266378 0.0219338 0.0
-0.0288598 0.0259498 0.0
-0.0314438 0.0302855 0.0
-0.0344437 0.0349815 0.0
-0.0379125 0.0400784 0.0
-0.0419095 0.0456138 0.0
-0.0465045 0.0516197 0.0
-0.0517798 0.0581178 0.0
-0.0578306 0.0651134 0.0
-0.0647565 0.0725855 0.0
-0.0726362 0.0804722 0.0
-0.0814622 0.0886477 0.0
-0.090998 0.0968829 0.0
-0.100492 0.104791 0.0
-0.108172 0.11171 0.0
-0.110425 0.11662 0.0
-0.100647 0.117798 0.0
-0.0677419 0.11321 0.0
0.00568745 0.09915 0.0
0.144701 0.0754316 0.0
0.381878 0.038308 0.0
0.756445 0.00776263 0.0
-0.00460125 0.000141645 0.0
-0.0114472 0.00111628 0.0
-0.0163661 0.00293728 0.0
-0.0198253 0.00513593 0.0
-0.0223433 0.00766746 0.0
-0.0243631 0.0104205 0.0
-0.0262269 0.01338 0.0
-0.0281703 0.0165428 0.0
-0.0303465 0.0199301 0.0
-0.0328535 0.0235704 0.0
-0.0357591 0.0274971 0.0
-0.0391168 0.031744 0.0
-0.0429774 0.0363435 0.0
-0.0473944 0.0413229 0.0
-0.0524278 0.0467018 0.0
-0.0581452 0.0524868 0.0
-0.0646181 0.0586654 0.0
-0.0719112 0.0651965 0.0
-0.0800499 0.0719968 0.0
-0.0889455 0.0789215 0.0
-0.0982353 0.0857295 0.0
-0.106971 0.0920405 0.0
-0.113078 0.0972359 0.0
-0.112507 0.100408 0.0
-0.0981085 0.10007 0.0
-0.0582786 0.0945932 0.0
0.0241438 0.081109 0.0
0.172235 0.0600661 0.0
0.413519 0.0291225 0.0
0.775145 0.00507027 0.0
-0.00517323 0.000125877 0.0
-0.0128043 0.000990001 0.0
-0.0182527 0.00260193 0.0
-0.0220669 0.00454519 0.0
-0.0248382 0.00678065 0.0
-0.0270622 0.00921029 0.0
-0.0291181 0.011822 0.0
-0.0312638 0.0146137 0.0
-0.0336652 0.0176052 0.0
-0.0364266 0.0208215 0.0
-0.0396173 0.0242918 0.0
-0.04329 0.0280448 0.0
-0.0474914 0.0321066 0.0
-0.052268 0.0364978 0.0
-0.0576686 0.0412298 0.0
-0.0637438 0.0463006 0.0
-0.0705409 0.0516883 0.0
-0.0780891 0.0573423 0.0
-0.0863628 0.0631716 0.0
-0.0951982 0.0690276 0.0
-0.10412 0.0746748 0.0
-0.112011 0.0797553 0.0
-0.116542 0.0837064 0.0
-0.113313 0.0857271 0.0
-0.094768 0.084553 0.0
-0.0490146 0.0788578 0.0
0.0407062 0.0664962 0.0
0.195697 0.0481013 0.0
0.439152 0.0224156 0.0
0.789139 0.00339285 0.0
-0.0056729 0.000108706 0.0
-0.0139869 0.000849257 0.0
-0.0198936 0.00222674 0.0
-0.0240143 0.00388416 0.0
-0.0270042 0.00578916 0.0
-0.0294055 0.00785939 0.0
-0.0316294 0.0100863 0.0
-0.0339533 0.0124697 0.0
-0.0365537 0.0150281 0.0
-0.0395397 0.0177841 0.0
-0.0429819 0.0207637 0.0
-0.0469312 0.0239919 0.0
-0.0514299 0.0274912 0.0
-0.0565172 0.0312786 0.0
-0.0622304 0.0353621 0.0
-0.0686035 0.0397368 0.0
-0.0756598 0.0443788 0.0
-0.0833949 0.0492376 0.0
-0.0917359 0.0542246 0.0
-0.100451 0.0591988 0.0
-0.108965 0.063941 0.0
-0.116013 0.0681229 0.0
-0.119052 0.0712386 0.0
-0.113397 0.0725805 0.0
-0.0911894 0.071072 0.0
-0.0403973 0.0656174 0.0
0.0552922 0.0546071 0.0
0.215562 0.0387228 0.0
0.459954 0.0174574 0.0
0.799793 0.00233487 0.0
-0.00609319 9.01267e-05 0.0
-0.0149771 0.000696059 0.0
-0.0212639 0.00181819 0.0
-0.0256382 0.00316482 0.0
-0.0288098 0.00471126 0.0
-0.0313603 0.00639259 0.0
-0.0337277 0.00820433 0.0
-0.0362055 0.010149 0.0
-0.0389792 0.012244 0.0
-0.0421619 0.0145104 0.0
-0.0458248 0.0169719 0.0
-0.0500173 0.0196517 0.0
-0.0547778 0.0225708 0.0
-0.0601386 0.0257458 0.0
-0.0661267 0.0291857 0.0
-0.0727607 0.0328881 0.0
-0.080042 0.0368339 0.0
-0.0879356 0.0409799 0.0
-0.0963252 0.0452487 0.0
-0.104917 0.0495151 0.0
-0.113047 0.0535822 0.0
-0.119318 0.0571536 0.0
-0.121002 0.0597747 0.0
-0.113181 0.0608136 0.0
-0.0877666 0.059341 0.0
-0.0326825 0.0544308 0.0
0.0679158 0.0448614 0.0
0.232272 0.0313048 0.0
0.476864 0.0137391 0.0
0.80803 0.00165617 0.0
-0.00642786 7.01403e-05 0.0
-0.0157598 0.000531875 0.0
-0.0223429 0.00138106 0.0
-0.0269145 0.00239615 0.0
-0.030229 0.00356069 0.0
-0.0328993 0.00482856 0.0
-0.0353851 0.0061998 0.0
-0.0379928 0.00767988 0.0
-0.0409147 0.00928569 0.0
-0.0442673 0.0110372 0.0
-0.0481228 0.0129568 0.0
-0.0525298 0.0150672 0.0
-0.0575237 0.0173903 0.0
-0.0631318 0.0199449 0.0
-0.0693725 0.0227448 0.0
-0.0762516 0.0257952 0.0
-0.0837518 0.0290875 0.0
-0.0918105 0.0325929 0.0
-0.100272 0.0362523 0.0
-0.108787 0.0399623 0.0
-0.116607 0.0435529 0.0
-0.122214 0.046759 0.0
-0.122715 0.0491684 0.0
-0.112991 0.0502056 0.0
-0.0847785 0.0490493 0.0
-0.0260172 0.0448924 0.0
0.0786672 0.0367859 0.0
0.24624 0.0253624 0.0
0.490627 0.0109002 0.0
0.81448 0.00120949 0.0
-0.00667129 4.88097e-05 0.0
-0.0163222 0.000358137 0.0
-0.0231133 0.000919707 0.0
-0.0278232 0.00158616 0.0
-0.0312399 0.0023496 0.0
-0.0339999 0.00318368 0.0
-0.0365783 0.0040931 0.0
-0.0392911 0.00508651 0.0
-0.0423361 0.00618042 0.0
-0.0458326 0.00739405 0.0
-0.0498543 0.00874918 0.0
-0.0544503 0.0102691 0.0
-0.059655 0.011978 0.0
-0.0654928 0.0138998 0.0
-0.0719768 0.0160563 0.0
-0.0791034 0.0184645 0.0
-0.0868402 0.021132 0.0
-0.0951013 0.0240505 0.0
-0.103696 0.0271857 0.0
-0.112221 0.0304625 0.0
-0.119847 0.0337412 0.0
-0.124941 0.0367865 0.0
-0.124453 0.0392195 0.0
-0.113084 0.0405018 0.0
-0.0824325 0.0398827 0.0
-0.0204924 0.036632 0.0
0.0876458 0.0299848 0.0
0.257813 0.0205166 0.0
0.501816 0.00868172 0.0
0.819578 0.000904118 0.0
-0.00681865 2.6256e-05 0.0
-0.0166536 0.000176414 0.0
-0.023561 0.000438645 0.0
-0.028348 0.00074294 0.0
-0.0318249 0.00109007 0.0
-0.0346431 0.00147403 0.0
-0.0372875 0.00190411 0.0
-0.0400799 0.00239199 0.0
-0.0432219 0.00295371 0.0
-0.0468358 0.00360773 0.0
-0.0509976 0.0043754 0.0
-0.0557583 0.00528125 0.0
-0.0611541 0.00635313 0.0
-0.0672097 0.00762159 0.0
-0.0739369 0.00911922 0.0
-0.0813271 0.0108787 0.0
-0.0893378 0.0129289 0.0
-0.0978646 0.0152885 0.0
-0.106685 0.0179548 0.0
-0.115345 0.0208876 0.0
-0.122935 0.0239822 0.0
-0.1277 0.0270327 0.0
-0.126435 0.029685 0.0
-0.113672 0.0314198 0.0
-0.0808935 0.031523 0.0
-0.0161729 0.0293037 0.0
0.0949427 0.0241126 0.0
0.267274 0.0164573 0.0
0.510864 0.00688973 0.0
0.823619 0.000682359 0.0
-0.00686583 2.66053e-06 0.0
-0.0167456 -1.15101e-05 0.0
-0.023675 -5.72406e-05 0.0
-0.0284762 -0.000124906 0.0
-0.0319701 -0.00020517 0.0
-0.0348138 -0.000283533 0.0
-0.0374958 -0.000346562 0.0
-0.0403402 -0.000379913 0.0
-0.0435511 -0.000368544 0.0
-0.0472535 -0.000295087 0.0
-0.0515269 -0.000138722 0.0
-0.0564272 0.000126234 0.0
-0.0619945 0.000531323 0.0
-0.0682582 0.00111486 0.0
-0.0752336 0.0019222 0.0
-0.0829133 0.00300484 0.0
-0.0912509 0.00441762 0.0
-0.100129 0.00621245 0.0
-0.109298 0.00842591 0.0
-0.118251 0.0110622 0.0
-0.125996 0.0140588 0.0
-0.130651 0.01724 0.0
-0.128846 0.0202712 0.0
-0.114937 0.0226358 0.0
-0.0803043 0.0236269 0.0
-0.0131186 0.0225593 0.0
0.10062 0.0188432 0.0
0.274828 0.012911 0.0
0.518077 0.00536704 0.0
0.826793 0.00050489 0.0
-0.00681009 -2.17653e-05 0.0
-0.0165927 -0.000203801 0.0
-0.0234481 -0.000562816 0.0
-0.0281997 -0.00100803 0.0
-0.0316662 -0.00152197 0.0
-0.0345014 -0.0020701 0.0
-0.0371908 -0.00263557 0.0
-0.0400575 -0.0032022 0.0
-0.0433063 -0.00375675 0.0
-0.0470651 -0.00428385 0.0
-0.0514183 -0.00476409 0.0
-0.0564275 -0.00517152 0.0
-0.0621417 -0.00547148 0.0
-0.0685994 -0.00561801 0.0
-0.0758254 -0.0055523 0.0
-0.0838209 -0.00520182 0.0
-0.0925439 -0.00448146 0.0
-0.101872 -0.00329881 0.0
-0.111535 -0.00156758 0.0
-0.120983 0.000770065 0.0
-0.12912 0.00369882 0.0
-0.133921 0.00708322 0.0
-0.131837 0.0106123 0.0
-0.117042 0.0137589 0.0
-0.0808115 0.0157947 0.0
-0.011415 0.0160089 0.0
0.104691 0.0138263 0.0
0.280594 0.00960074 0.0
0.523642 0.00396699 0.0
0.829208 0.000340559 0.0
-0.00664915 -4.677e-05 0.0
-0.0161913 -0.000398256 0.0
-0.0228767 -0.00107201 0.0
-0.0275147 -0.00189558 0.0
-0.0309088 -0.00284414 0.0
-0.0336997 -0.0038641 0.0
-0.0363636 -0.00493629 0.0
-0.0392188 -0.00604381 0.0
-0.0424693 -0.00717649 0.0
-0.0462459 -0.00832238 0.0
-0.050639 -0.00946521 0.0
-0.0557193 -0.0105804 0.0
-0.0615474 -0.0116317 0.0
-0.0681767 -0.0125672 0.0
-0.0756489 -0.0133157 0.0
-0.0839832 -0.0137831 0.0
-0.0931529 -0.0138515 0.0
-0.103043 -0.0133819 0.0
-0.113366 -0.0122278 0.0
-0.123519 -0.0102663 0.0
-0.132314 -0.0074451 0.0
-0.137574 -0.00384569 0.0
-0.135535 0.000241634 0.0
-0.120128 0.00427897 0.0
-0.0825383 0.00751224 0.0
-0.0111569 0.0091723 0.0
0.107102 0.00864561 0.0
0.284576 0.00620731 0.0
0.527599 0.0025291 0.0
0.830878 0.000158767 0.0
-0.00638252 -7.20242e-05 0.0
-0.0155415 -0.00059205 0.0
-0.0219621 -0.00157739 0.0
-0.0264232 -0.00277478 0.0
-0.0296993 -0.00415298 0.0
-0.0324084 -0.00564077 0.0
-0.0350111 -0.00721794 0.0
-0.0378168 -0.00886829 0.0
-0.0410273 -0.0105863 0.0
-0.0447757 -0.0123653 0.0
-0.0491594 -0.0141946 0.0
-0.0542601 -0.0160538 0.0
-0.0601539 -0.0179083 0.0
-0.0669143 -0.0197041 0.0
-0.0746085 -0.0213608 0.0
-0.0832843 -0.0227658 0.0
-0.0929448 -0.0237687 0.0
-0.103496 -0.0241812 0.0
-0.114654 -0.0237881 0.0
-0.125769 -0.0223788 0.0
-0.135546 -0.0198062 0.0
-0.141618 -0.0160734 0.0
-0.139974 -0.0114355 0.0
-0.124334 -0.00643895 0.0
-0.0857253 -0.00189516 0.0
-0.0125448 0.00136052 0.0
0.107715 0.00270219 0.0
0.286656 0.00229464 0.0
0.529852 0.000845472 0.0
0.831743 -7.66336e-05 0.0
-0.00601115 -9.71306e-05 0.0
-0.0146475 -0.000781841 0.0
-0.0207107 -0.00207017 0.0
-0.0249328 -0.00363048 0.0
-0.0280453 -0.00542621 0.0
-0.0306338 -0.00737034 0.0
-0.0331363 -0.00944304 0.0
-0.0358501 -0.0116305 0.0
-0.038972 -0.0139335 0.0
-0.0426371 -0.0163533 0.0
-0.04695 -0.0188875 0.0
-0.0520047 -0.0215239 0.0
-0.0578958 -0.0242349 0.0
-0.0647225 -0.0269699 0.0
-0.072585 -0.0296467 0.0
-0.0815727 -0.0321405 0.0
-0.0917348 -0.0342741 0.0
-0.103021 -0.0358116 0.0
-0.115168 -0.0364642 0.0
-0.127503 -0.0359196 0.0
-0.138627 -0.0339079 0.0
-0.145958 -0.0303076 0.0
-0.14518 -0.0252746 0.0
-0.129689 -0.0193324 0.0
-0.0903416 -0.0133542 0.0
-0.0157534 -0.00826983 0.0
0.106184 -0.00473639 0.0
0.286439 -0.002698 0.0
0.530009 -0.00134636 0.0
0.831564 -0.000406901 0.0
-0.00553797 -0.000121647 0.0
-0.013518 -0.000963624 0.0
-0.0191354 -0.0025397 0.0
-0.0230589 -0.0044442 0.0
-0.0259626 -0.00663654 0.0
-0.0283904 -0.00901611 0.0
-0.0307513 -0.0115649 0.0
-0.033326 -0.014273 0.0
-0.0363042 -0.0171497 0.0
-0.0398213 -0.0202062 0.0
-0.0439882 -0.0234524 0.0
-0.0489117 -0.0268891 0.0
-0.0547065 -0.0305021 0.0
-0.0615007 -0.0342533 0.0
-0.0694356 -0.0380687 0.0
-0.0786539 -0.0418243 0.0
-0.0892701 -0.0453289 0.0
-0.101303 -0.0483096 0.0
-0.114543 -0.0504084 0.0
-0.128326 -0.0512045 0.0
-0.141164 -0.0502796 0.0
-0.150265 -0.0473375 0.0
-0.150967 -0.0423564 0.0
-0.136273 -0.0357265 0.0
-0.0967674 -0.028257 0.0
-0.0211327 -0.0209666 0.0
0.102138 -0.0146511 0.0
0.283342 -0.00946114 0.0
0.5274 -0.00438892 0.0
0.829982 -0.000902134 0.0
-0.00496829 -0.000145018 0.0
-0.0121675 -0.00113222 0.0
-0.0172572 -0.00297218 0.0
-0.020826 -0.00519212 0.0
-0.0234774 -0.00774879 0.0
-0.0257041 -0.0105306 0.0
-0.0278801 -0.0135225 0.0
-0.0302651 -0.0167201 0.0
-0.0330388 -0.0201425 0.0
-0.0363342 -0.0238136 0.0
-0.0402668 -0.0277589 0.0
-0.0449542 -0.0319976 0.0
-0.0505305 -0.0365369 0.0
-0.0571542 -0.0413617 0.0
-0.0650115 -0.0464216 0.0
-0.0743091 -0.0516118 0.0
-0.085245 -0.0567502 0.0
-0.097936 -0.0615509 0.0
-0.112268 -0.0656076 0.0
-0.12763 -0.0684001 0.0
-0.142499 -0.0693478 0.0
-0.153896 -0.0679274 0.0
-0.156818 -0.0638359 0.0
-0.143823 -0.0571694 0.0
-0.105116 -0.0484666 0.0
-0.029293 -0.0386679 0.0
0.094664 -0.0286454 0.0
0.276362 -0.0191147 0.0
0.521046 -0.00884965 0.0
0.826388 -0.00169012 0.0
-0.00431034 -0.000166458 0.0
-0.0106183 -0.00128038 0.0
-0.0151071 -0.00334847 0.0
-0.0182706 -0.00584148 0.0
-0.0206288 -0.00871487 0.0
-0.0226151 -0.011849 0.0
-0.0245625 -0.0152327 0.0
-0.0267057 -0.0188676 0.0
-0.0292106 -0.0227839 0.0
-0.0322046 -0.0270197 0.0
-0.0358038 -0.0316189 0.0
-0.0401329 -0.0366243 0.0
-0.0453411 -0.0420721 0.0
-0.0516142 -0.0479825 0.0
-0.0591825 -0.0543464 0.0
-0.0683209 -0.0611044 0.0
-0.0793248 -0.0681169 0.0
-0.0924373 -0.0751276 0.0
-0.107685 -0.0817267 0.0
-0.124578 -0.0873332 0.0
-0.141637 -0.0912181 0.0
-0.155789 -0.0925961 0.0
-0.161756 -0.0907682 0.0
-0.151679 -0.0853177 0.0
-0.115302 -0.0761803 0.0
-0.0408698 -0.0638848 0.0
0.0825144 -0.0490654 0.0
0.26386 -0.0334765 0.0
0.509231 -0.0157108 0.0
0.819703 -0.00300424 0.0
-0.00357751 -0.000184465 0.0
-0.00890435 -0.00139675 0.0
-0.0127318 -0.00364001 0.0
-0.0154472 -0.00634449 0.0
-0.0174756 -0.00946569 0.0
-0.0191853 -0.0128792 0.0
-0.020863 -0.0165772 0.0
-0.0227145 -0.0205678 0.0
-0.0248877 -0.0248916 0.0
-0.0275001 -0.0296013 0.0
-0.030663 -0.0347607 0.0
-0.0345019 -0.040439 0.0
-0.039173 -0.0467076 0.0
-0.0448801 -0.053633 0.0
-0.0518891 -0.061266 0.0
-0.0605368 -0.0696218 0.0
-0.0712181 -0.078648 0.0
-0.0843201 -0.0881788 0.0
-0.100054 -0.0978786 0.0
-0.11813 -0.107187 0.0
-0.137231 -0.115293 0.0
-0.154351 -0.121159 0.0
-0.164123 -0.123602 0.0
-0.158431 -0.12145 0.0
-0.126584 -0.113597 0.0
-0.0562264 -0.0995959 0.0
0.0641964 -0.079074 0.0
0.243577 -0.0552231 0.0
0.489396 -0.0266146 0.0
0.808169 -0.00530203 0.0
-0.0027894 -0.000196389 0.0
-0.00707438 -0.00146375 0.0
-0.010197 -0.00380428 0.0
-0.0124307 -0.00663148 0.0
-0.014099 -0.00990161 0.0
-0.0155012 -0.0134887 0.0
-0.0168739 -0.0173872 0.0
-0.0183903 -0.0216101 0.0
-0.0201763 -0.0262065 0.0
-0.0223345 -0.031242 0.0
-0.0249648 -0.0367986 0.0
-0.0281845 -0.0429717 0.0
-0.0321452 -0.0498695 0.0
-0.0370529 -0.0576108 0.0
-0.0431896 -0.0663199 0.0
-0.0509328 -0.0761133 0.0
-0.0607584 -0.0870727 0.0
-0.0731928 -0.0991984 0.0
-0.0886578 -0.112337 0.0
-0.10714 -0.126084 0.0
-0.127643 -0.139688 0.0
-0.147466 -0.15196 0.0
-0.161483 -0.161231 0.0
-0.161697 -0.165387 0.0
-0.137268 -0.161853 0.0
-0.0752208 -0.148448 0.0
0.0379482 -0.122516 0.0
0.212136 -0.0881427 0.0
0.457293 -0.0444112 0.0
0.788422 -0.00956867 0.0
-0.00198142 -0.000196655 0.0
-0.0052071 -0.00145318 0.0
-0.00760551 -0.00377864 0.0
-0.00933817 -0.00660278 0.0
-0.0106268 -0.00988209 0.0
-0.0117011 -0.013492 0.0
-0.012746 -0.0174266 0.0
-0.013899 -0.021701 0.0
-0.0152605 -0.0263689 0.0
-0.0169132 -0.0315042 0.0
-0.0189393 -0.0372021 0.0
-0.021438 -0.0435784 0.0
-0.0245421 -0.0507723 0.0
-0.0284391 -0.0589512 0.0
-0.0333976 -0.0683136 0.0
-0.0397967 -0.0790894 0.0
-0.0481469 -0.0915281 0.0
-0.0590705 -0.105866 0.0
-0.073182 -0.122254 0.0
-0.0907902 -0.14063 0.0
-0.111367 -0.160536 0.0
-0.132815 -0.180879 0.0
-0.150708 -0.199691 0.0
-0.157747 -0.213935 0.0
-0.143556 -0.219367 0.0
-0.094932 -0.211179 0.0
0.00407579 -0.183672 0.0
0.167205 -0.137491 0.0
0.408514 -0.0740336 0.0
0.755552 -0.0178747 0.0
-0.00119988 -0.000177753 0.0
-0.00340061 -0.00132988 0.0
-0.00508198 -0.00348649 0.0
-0.00630854 -0.00613584 0.0
-0.00720934 -0.00923225 0.0
-0.00794822 -0.0126553 0.0
-0.0086583 -0.0163952 0.0
-0.0094396 -0.0204658 0.0
-0.0103643 -0.0249196 0.0
-0.0114913 -0.0298317 0.0