# vtk DataFile Version 3.0
Malha 2D com triângulos e temperatura
ASCII
DATASET UNSTRUCTURED_GRID

POINTS 961 double
0 0 0
1 0 0
1 1 0
0 1 0
0.0333333 0 0
0.0666667 0 0
0.1 0 0
0.133333 0 0
0.166667 0 0
0.2 0 0
0.233333 0 0
0.266667 0 0
0.3 0 0
0.333333 0 0
0.366667 0 0
0.4 0 0
0.433333 0 0
0.466667 0 0
0.5 0 0
0.533333 0 0
0.566667 0 0
0.6 0 0
0.633333 0 0
0.666667 0 0
0.7 0 0
0.733333 0 0
0.766667 0 0
0.8 0 0
0.833333 0 0
0.866667 0 0
0.9 0 0
0.933333 0 0
0.966667 0 0
1 0.0333333 0
1 0.0666667 0
1 0.1 0
1 0.133333 0
1 0.166667 0
1 0.2 0
1 0.233333 0
1 0.266667 0
1 0.3 0
1 0.333333 0
1 0.366667 0
1 0.4 0
1 0.433333 0
1 0.466667 0
1 0.5 0
1 0.533333 0
1 0.566667 0
1 0.6 0
1 0.633333 0
1 0.666667 0
1 0.7 0
1 0.733333 0
1 0.766667 0
1 0.8 0
1 0.833333 0
1 0.866667 0
1 0.9 0
1 0.933333 0
1 0.966667 0
0.966667 1 0
0.933333 1 0
0.9 1 0
0.866667 1 0
0.833333 1 0
0.8 1 0
0.766667 1 0
0.733333 1 0
0.7 1 0
0.666667 1 0
0.633333 1 0
0.6 1 0
0.566667 1 0
0.533333 1 0
0.5 1 0
0.466667 1 0
0.433333 1 0
0.4 1 0
0.366667 1 0
0.333333 1 0
0.3 1 0
0.266667 1 0
0.233333 1 0
0.2 1 0
0.166667 1 0
0.133333 1 0
0.1 1 0
0.0666667 1 0
0.0333333 1 0
0 0.966667 0
0 0.933333 0
0 0.9 0
0 0.866667 0
0 0.833333 0
0 0.8 0
0 0.766667 0
0 0.733333 0
0 0.7 0
0 0.666667 0
0 0.633333 0
0 0.6 0
0 0.566667 0
0 0.533333 0
0 0.5 0
0 0.466667 0
0 0.433333 0
0 0.4 0
0 0.366667 0
0 0.333333 0
0 0.3 0
0 0.266667 0
0 0.233333 0
0 0.2 0
0 0.166667 0
0 0.133333 0
0 0.1 0
0 0.0666667 0
0 0.0333333 0
0.0333333 0.0333333 0
0.0333333 0.0666667 0
0.0333333 0.1 0
0.0333333 0.133333 0
0.0333333 0.166667 0
0.0333333 0.2 0
0.0333333 0.233333 0
0.0333333 0.266667 0
0.0333333 0.3 0
0.0333333 0.333333 0
0.0333333 0.366667 0
0.0333333 0.4 0
0.0333333 0.433333 0
0.0333333 0.466667 0
0.0333333 0.5 0
0.0333333 0.533333 0
0.0333333 0.566667 0
0.0333333 0.6 0
0.0333333 0.633333 0
0.0333333 0.666667 0
0.0333333 0.7 0
0.0333333 0.733333 0
0.0333333 0.766667 0
0.0333333 0.8 0
0.0333333 0.833333 0
0.0333333 0.866667 0
0.0333333 0.9 0
0.0333333 0.933333 0
0.0333333 0.966667 0
0.0666667 0.0333333 0
0.0666667 0.0666667 0
0.0666667 0.1 0
0.0666667 0.133333 0
0.0666667 0.166667 0
0.0666667 0.2 0
0.0666667 0.233333 0
0.0666667 0.266667 0
0.0666667 0.3 0
0.0666667 0.333333 0
0.0666667 0.366667 0
0.0666667 0.4 0
0.0666667 0.433333 0
0.0666667 0.466667 0
0.0666667 0.5 0
0.0666667 0.533333 0
0.0666667 0.566667 0
0.0666667 0.6 0
0.0666667 0.633333 0
0.0666667 0.666667 0
0.0666667 0.7 0
0.0666667 0.733333 0
0.0666667 0.766667 0
0.0666667 0.8 0
0.0666667 0.833333 0
0.0666667 0.866667 0
0.0666667 0.9 0
0.0666667 0.933333 0
0.0666667 0.966667 0
0.1 0.0333333 0
0.1 0.0666667 0
0.1 0.1 0
0.1 0.133333 0
0.1 0.166667 0
0.1 0.2 0
0.1 0.233333 0
0.1 0.266667 0
0.1 0.3 0
0.1 0.333333 0
0.1 0.366667 0
0.1 0.4 0
0.1 0.433333 0
0.1 0.466667 0
0.1 0.5 0
0.1 0.533333 0
0.1 0.566667 0
0.1 0.6 0
0.1 0.633333 0
0.1 0.666667 0
0.1 0.7 0
0.1 0.733333 0
0.1 0.766667 0
0.1 0.8 0
0.1 0.833333 0
0.1 0.866667 0
0.1 0.9 0
0.1 0.933333 0
0.1 0.966667 0
0.133333 0.0333333 0
0.133333 0.0666667 0
0.133333 0.1 0
0.133333 0.133333 0
0.133333 0.166667 0
0.133333 0.2 0
0.133333 0.233333 0
0.133333 0.266667 0
0.133333 0.3 0
0.133333 0.333333 0
0.133333 0.366667 0
0.133333 0.4 0
0.133333 0.433333 0
0.133333 0.466667 0
0.133333 0.5 0
0.133333 0.533333 0
0.133333 0.566667 0
0.133333 0.6 0
0.133333 0.633333 0
0.133333 0.666667 0
0.133333 0.7 0
0.133333 0.733333 0
0.133333 0.766667 0
0.133333 0.8 0
0.133333 0.833333 0
0.133333 0.866667 0
0.133333 0.9 0
0.133333 0.933333 0
0.133333 0.966667 0
0.166667 0.0333333 0
0.166667 0.0666667 0
0.166667 0.1 0
0.166667 0.133333 0
0.166667 0.166667 0
0.166667 0.2 0
0.166667 0.233333 0
0.166667 0.266667 0
0.166667 0.3 0
0.166667 0.333333 0
0.166667 0.366667 0
0.166667 0.4 0
0.166667 0.433333 0
0.166667 0.466667 0
0.166667 0.5 0
0.166667 0.533333 0
0.166667 0.566667 0
0.166667 0.6 0
0.166667 0.633333 0
0.166667 0.666667 0
0.166667 0.7 0
0.166667 0.733333 0
0.166667 0.766667 0
0.166667 0.8 0
0.166667 0.833333 0
0.166667 0.866667 0
0.166667 0.9 0
0.166667 0.933333 0
0.166667 0.966667 0
0.2 0.0333333 0
0.2 0.0666667 0
0.2 0.1 0
0.2 0.133333 0
0.2 0.166667 0
0.2 0.2 0
0.2 0.233333 0
0.2 0.266667 0
0.2 0.3 0
0.2 0.333333 0
0.2 0.366667 0
0.2 0.4 0
0.2 0.433333 0
0.2 0.466667 0
0.2 0.5 0
0.2 0.533333 0
0.2 0.566667 0
0.2 0.6 0
0.2 0.633333 0
0.2 0.666667 0
0.2 0.7 0
0.2 0.733333 0
0.2 0.766667 0
0.2 0.8 0
0.2 0.833333 0
0.2 0.866667 0
0.2 0.9 0
0.2 0.933333 0
0.2 0.966667 0
0.233333 0.0333333 0
0.233333 0.0666667 0
0.233333 0.1 0
0.233333 0.133333 0
0.233333 0.166667 0
0.233333 0.2 0
0.233333 0.233333 0
0.233333 0.266667 0
0.233333 0.3 0
0.233333 0.333333 0
0.233333 0.366667 0
0.233333 0.4 0
0.233333 0.433333 0
0.233333 0.466667 0
0.233333 0.5 0
0.233333 0.533333 0
0.233333 0.566667 0
0.233333 0.6 0
0.233333 0.633333 0
0.233333 0.666667 0
0.233333 0.7 0
0.233333 0.733333 0
0.233333 0.766667 0
0.233333 0.8 0
0.233333 0.833333 0
0.233333 0.866667 0
0.233333 0.9 0
0.233333 0.933333 0
0.233333 0.966667 0
0.266667 0.0333333 0
0.266667 0.0666667 0
0.266667 0.1 0
0.266667 0.133333 0
0.266667 0.166667 0
0.266667 0.2 0
0.266667 0.233333 0
0.266667 0.266667 0
0.266667 0.3 0
0.266667 0.333333 0
0.266667 0.366667 0
0.266667 0.4 0
0.266667 0.433333 0
0.266667 0.466667 0
0.266667 0.5 0
0.266667 0.533333 0
0.266667 0.566667 0
0.266667 0.6 0
0.266667 0.633333 0
0.266667 0.666667 0
0.266667 0.7 0
0.266667 0.733333 0
0.266667 0.766667 0
0.266667 0.8 0
0.266667 0.833333 0
0.266667 0.866667 0
0.266667 0.9 0
0.266667 0.933333 0
0.266667 0.966667 0
0.3 0.0333333 0
0.3 0.0666667 0
0.3 0.1 0
0.3 0.133333 0
0.3 0.166667 0
0.3 0.2 0
0.3 0.233333 0
0.3 0.266667 0
0.3 0.3 0
0.3 0.333333 0
0.3 0.366667 0
0.3 0.4 0
0.3 0.433333 0
0.3 0.466667 0
0.3 0.5 0
0.3 0.533333 0
0.3 0.566667 0
0.3 0.6 0
0.3 0.633333 0
0.3 0.666667 0
0.3 0.7 0
0.3 0.733333 0
0.3 0.766667 0
0.3 0.8 0
0.3 0.833333 0
0.3 0.866667 0
0.3 0.9 0
0.3 0.933333 0
0.3 0.966667 0
0.333333 0.0333333 0
0.333333 0.0666667 0
0.333333 0.1 0
0.333333 0.133333 0
0.333333 0.166667 0
0.333333 0.2 0
0.333333 0.233333 0
0.333333 0.266667 0
0.333333 0.3 0
0.333333 0.333333 0
0.333333 0.366667 0
0.333333 0.4 0
0.333333 0.433333 0
0.333333 0.466667 0
0.333333 0.5 0
0.333333 0.533333 0
0.333333 0.566667 0
0.333333 0.6 0
0.333333 0.633333 0
0.333333 0.666667 0
0.333333 0.7 0
0.333333 0.733333 0
0.333333 0.766667 0
0.333333 0.8 0
0.333333 0.833333 0
0.333333 0.866667 0
0.333333 0.9 0
0.333333 0.933333 0
0.333333 0.966667 0
0.366667 0.0333333 0
0.366667 0.0666667 0
0.366667 0.1 0
0.366667 0.133333 0
0.366667 0.166667 0
0.366667 0.2 0
0.366667 0.233333 0
0.366667 0.266667 0
0.366667 0.3 0
0.366667 0.333333 0
0.366667 0.366667 0
0.366667 0.4 0
0.366667 0.433333 0
0.366667 0.466667 0
0.366667 0.5 0
0.366667 0.533333 0
0.366667 0.566667 0
0.366667 0.6 0
0.366667 0.633333 0
0.366667 0.666667 0
0.366667 0.7 0
0.366667 0.733333 0
0.366667 0.766667 0
0.366667 0.8 0
0.366667 0.833333 0
0.366667 0.866667 0
0.366667 0.9 0
0.366667 0.933333 0
0.366667 0.966667 0
0.4 0.0333333 0
0.4 0.0666667 0
0.4 0.1 0
0.4 0.133333 0
0.4 0.166667 0
0.4 0.2 0
0.4 0.233333 0
0.4 0.266667 0
0.4 0.3 0
0.4 0.333333 0
0.4 0.366667 0
0.4 0.4 0
0.4 0.433333 0
0.4 0.466667 0
0.4 0.5 0
0.4 0.533333 0
0.4 0.566667 0
0.4 0.6 0
0.4 0.633333 0
0.4 0.666667 0
0.4 0.7 0
0.4 0.733333 0
0.4 0.766667 0
0.4 0.8 0
0.4 0.833333 0
0.4 0.866667 0
0.4 0.9 0
0.4 0.933333 0
0.4 0.966667 0
0.433333 0.0333333 0
0.433333 0.0666667 0
0.433333 0.1 0
0.433333 0.133333 0
0.433333 0.166667 0
0.433333 0.2 0
0.433333 0.233333 0
0.433333 0.266667 0
0.433333 0.3 0
0.433333 0.333333 0
0.433333 0.366667 0
0.433333 0.4 0
0.433333 0.433333 0
0.433333 0.466667 0
0.433333 0.5 0
0.433333 0.533333 0
0.433333 0.566667 0
0.433333 0.6 0
0.433333 0.633333 0
0.433333 0.666667 0
0.433333 0.7 0
0.433333 0.733333 0
0.433333 0.766667 0
0.433333 0.8 0
0.433333 0.833333 0
0.433333 0.866667 0
0.433333 0.9 0
0.433333 0.933333 0
0.433333 0.966667 0
0.466667 0.0333333 0
0.466667 0.0666667 0
0.466667 0.1 0
0.466667 0.133333 0
0.466667 0.166667 0
0.466667 0.2 0
0.466667 0.233333 0
0.466667 0.266667 0
0.466667 0.3 0
0.466667 0.333333 0
0.466667 0.366667 0
0.466667 0.4 0
0.466667 0.433333 0
0.466667 0.466667 0
0.466667 0.5 0
0.466667 0.533333 0
0.466667 0.566667 0
0.466667 0.6 0
0.466667 0.633333 0
0.466667 0.666667 0
0.466667 0.7 0
0.466667 0.733333 0
0.466667 0.766667 0
0.466667 0.8 0
0.466667 0.833333 0
0.466667 0.866667 0
0.466667 0.9 0
0.466667 0.933333 0
0.466667 0.966667 0
0.5 0.0333333 0
0.5 0.0666667 0
0.5 0.1 0
0.5 0.133333 0
0.5 0.166667 0
0.5 0.2 0
0.5 0.233333 0
0.5 0.266667 0
0.5 0.3 0
0.5 0.333333 0
0.5 0.366667 0
0.5 0.4 0
0.5 0.433333 0
0.5 0.466667 0
0.5 0.5 0
0.5 0.533333 0
0.5 0.566667 0
0.5 0.6 0
0.5 0.633333 0
0.5 0.666667 0
0.5 0.7 0
0.5 0.733333 0
0.5 0.766667 0
0.5 0.8 0
0.5 0.833333 0
0.5 0.866667 0
0.5 0.9 0
0.5 0.933333 0
0.5 0.966667 0
0.533333 0.0333333 0
0.533333 0.0666667 0
0.533333 0.1 0
0.533333 0.133333 0
0.533333 0.166667 0
0.533333 0.2 0
0.533333 0.233333 0
0.533333 0.266667 0
0.533333 0.3 0
0.533333 0.333333 0
0.533333 0.366667 0
0.533333 0.4 0
0.533333 0.433333 0
0.533333 0.466667 0
0.533333 0.5 0
0.533333 0.533333 0
0.533333 0.566667 0
0.533333 0.6 0
0.533333 0.633333 0
0.533333 0.666667 0
0.533333 0.7 0
0.533333 0.733333 0
0.533333 0.766667 0
0.533333 0.8 0
0.533333 0.833333 0
0.533333 0.866667 0
0.533333 0.9 0
0.533333 0.933333 0
0.533333 0.966667 0
0.566667 0.0333333 0
0.566667 0.0666667 0
0.566667 0.1 0
0.566667 0.133333 0
0.566667 0.166667 0
0.566667 0.2 0
0.566667 0.233333 0
0.566667 0.266667 0
0.566667 0.3 0
0.566667 0.333333 0
0.566667 0.366667 0
0.566667 0.4 0
0.566667 0.433333 0
0.566667 0.466667 0
0.566667 0.5 0
0.566667 0.533333 0
0.566667 0.566667 0
0.566667 0.6 0
0.566667 0.633333 0
0.566667 0.666667 0
0.566667 0.7 0
0.566667 0.733333 0
0.566667 0.766667 0
0.566667 0.8 0
0.566667 0.833333 0
0.566667 0.866667 0
0.566667 0.9 0
0.566667 0.933333 0
0.566667 0.966667 0
0.6 0.0333333 0
0.6 0.0666667 0
0.6 0.1 0
0.6 0.133333 0
[...]
CELL_DATA 900
VECTORS velocity double
7.13288e-05 -7.0185e-05 0.0
-3.59057e-06 -2.28622e-05 0.0
-7.83053e-05 0.000317455 0.0
-0.000138141 0.000878171 0.0
-0.000176339 0.00162446 0.0
-0.000201975 0.00250073 0.0
-0.000220714 0.00348315 0.0
-0.00023753 0.0045573 0.0
-0.000255389 0.00572354 0.0
-0.000276296 0.00699039 0.0
-0.000301566 0.00837355 0.0
-0.000332291 0.0098942 0.0
-0.000369635 0.011579 0.0
-0.000415163 0.0134609 0.0
-0.00047121 0.0155809 0.0
-0.000541415 0.0179916 0.0
-0.000631555 0.0207621 0.0
-0.000750996 0.0239849 0.0
-0.000915361 0.027787 0.0
-0.00115203 0.0323461 0.0
-0.00151174 0.0379172 0.0
-0.00209453 0.0448787 0.0
-0.00310338 0.0538224 0.0
-0.00495561 0.0657046 0.0
-0.00844939 0.0822148 0.0
-0.0149777 0.105882 0.0
-0.025718 0.141909 0.0
-0.0381984 0.18908 0.0
-0.0135841 0.262248 0.0
0.216717 0.173856 0.0
2.08883e-05 7.73282e-06 0.0
-0.00042205 0.000424277 0.0
-0.000856469 0.00144289 0.0
-0.00122742 0.0028999 0.0
-0.00151099 0.00475747 0.0
-0.00173363 0.006923 0.0
-0.00192046 0.00935448 0.0
-0.00209609 0.0120255 0.0
-0.00227936 0.0149375 0.0
-0.00248494 0.0181097 0.0
-0.00272448 0.0215776 0.0
-0.00300843 0.02539 0.0
-0.00334787 0.0296087 0.0
-0.00375638 0.0343101 0.0
-0.00425218 0.0395882 0.0
-0.00486067 0.0455602 0.0
-0.0056178 0.0523741 0.0
-0.00657451 0.0602181 0.0
-0.0078032 0.069332 0.0
-0.009408 0.0800187 0.0
-0.0115424 0.092653 0.0
-0.0144431 0.107682 0.0
-0.0184837 0.125601 0.0
-0.0242674 0.146857 0.0
-0.0326341 0.171624 0.0
-0.0445013 0.198946 0.0
-0.0584234 0.225602 0.0
-0.065176 0.240019 0.0
-0.00327459 0.218236 0.0
0.304806 0.116297 0.0
-0.000322493 8.19419e-05 0.0
-0.00143731 0.000838665 0.0
-0.00248507 0.0024357 0.0
-0.00338263 0.00458871 0.0
-0.00410175 0.00726391 0.0
-0.00468911 0.0103486 0.0
-0.00519842 0.0137968 0.0
-0.00568367 0.0175793 0.0
-0.00618951 0.0217004 0.0
-0.00675208 0.0261865 0.0
-0.00740103 0.031084 0.0
-0.00816311 0.0364559 0.0
-0.00906605 0.0423807 0.0
-0.0101425 0.048953 0.0
-0.0114343 0.0562861 0.0
-0.0129968 0.0645157 0.0
-0.0149042 0.0738039 0.0
-0.0172535 0.0843437 0.0
-0.0201697 0.0963583 0.0
-0.0238083 0.110095 0.0
-0.0283557 0.125799 0.0
-0.0340243 0.143659 0.0
-0.0410207 0.163689 0.0
-0.0494557 0.185513 0.0
-0.058937 0.207881 0.0
-0.0675675 0.227964 0.0
-0.067925 0.239151 0.0
-0.0385037 0.230937 0.0
0.0915769 0.173569 0.0
0.475776 0.0769739 0.0
-0.000868161 0.000137081 0.0
-0.00284195 0.0011558 0.0
-0.00460804 0.00318573 0.0
-0.00609818 0.00582964 0.0
-0.00730936 0.00905636 0.0
-0.00831636 0.0127402 0.0
-0.00920497 0.0168374 0.0
-0.0100597 0.0213199 0.0
-0.010952 0.0261957 0.0
-0.0119404 0.0314949 0.0
-0.0130729 0.0372681 0.0
-0.0143927 0.0435822 0.0
-0.0159427 0.0505186 0.0
-0.017772 0.0581723 0.0
-0.0199402 0.0666524 0.0
-0.0225227 0.0760824 0.0
-0.0256137 0.0865992 0.0
-0.0293269 0.0983492 0.0
-0.0337911 0.111476 0.0
-0.0391349 0.126094 0.0
-0.0454562 0.142235 0.0
-0.052764 0.159762 0.0
-0.0608562 0.17819 0.0
-0.0690803 0.196459 0.0
-0.0756913 0.212393 0.0
-0.0764484 0.222341 0.0
-0.0604021 0.21924 0.0
-0.000540133 0.194971 0.0
0.167927 0.12935 0.0
0.574793 0.0491598 0.0
-0.00156068 0.000165094 0.0
-0.00454802 0.00134285 0.0
-0.00711859 0.00364215 0.0
-0.00925139 0.00658161 0.0
-0.0109922 0.0101277 0.0
-0.0124532 0.0141441 0.0
-0.0137567 0.0185898 0.0
-0.015019 0.0234387 0.0
-0.0163387 0.0287011 0.0
-0.0177961 0.0344085 0.0
-0.0194571 0.0406112 0.0
-0.0213788 0.0473736 0.0
-0.0236172 0.0547714 0.0
-0.0262322 0.062889 0.0
-0.0292939 0.0718182 0.0
-0.0328854 0.0816547 0.0
-0.0371031 0.092493 0.0
-0.0420503 0.104416 0.0
-0.0478193 0.117473 0.0
-0.0544556 0.131645 0.0
-0.0618915 0.146779 0.0
-0.0698325 0.16249 0.0
-0.0775555 0.17798 0.0
-0.083549 0.191851 0.0
-0.0847261 0.201609 0.0
-0.0748554 0.203642 0.0
-0.0404961 0.191595 0.0
0.0468944 0.159947 0.0
0.242093 0.0962403 0.0
0.647046 0.0309133 0.0
-0.00232007 0.000175523 0.0
-0.006403 0.00142526 0.0
-0.00981496 0.0038466 0.0
-0.0126015 0.00691081 0.0
-0.014873 0.0105802 0.0
-0.0167874 0.0147119 0.0
-0.0185069 0.019267 0.0
-0.0201802 0.024221 0.0
-0.0219316 0.029586 0.0
-0.0238613 0.0353928 0.0
-0.0260501 0.0416892 0.0
-0.0285662 0.0485337 0.0
-0.0314732 0.0559923 0.0
-0.0348359 0.0641348 0.0
-0.0387255 0.073031 0.0
-0.0432202 0.0827455 0.0
-0.0484013 0.0933285 0.0
-0.0543384 0.104802 0.0
-0.0610584 0.117134 0.0
-0.0684885 0.130199 0.0
-0.0763576 0.143708 0.0
-0.0840399 0.157124 0.0
-0.0902944 0.169485 0.0
-0.0928378 0.179286 0.0
-0.0875108 0.18404 0.0
-0.0667347 0.180592 0.0
-0.0158584 0.163459 0.0
0.0925258 0.130021 0.0
0.304669 0.0725633 0.0
0.698467 0.0196869 0.0
-0.00309924 0.000174124 0.0
-0.0083056 0.00142709 0.0
-0.0125644 0.00384955 0.0
-0.0159969 0.00689844 0.0
-0.0187856 0.0105328 0.0
-0.0211392 0.0146081 0.0
-0.023262 0.0190874 0.0
-0.0253349 0.0239482 0.0
-0.0275066 0.0292032 0.0
-0.0298951 0.0348822 0.0
-0.0325932 0.0410291 0.0
-0.0356768 0.0476961 0.0
-0.0392125 0.0549388 0.0
-0.0432644 0.0628123 0.0
-0.0478972 0.0713657 0.0
-0.0531746 0.0806354 0.0
-0.0591502 0.0906343 0.0
-0.065845 0.101336 0.0
-0.0732038 0.112646 0.0
-0.0810184 0.124366 0.0
-0.0888038 0.136125 0.0
-0.0956061 0.147303 0.0
-0.0997069 0.156886 0.0
-0.0981583 0.163392 0.0
-0.0859733 0.164495 0.0
-0.0546441 0.157616 0.0
0.0108707 0.138053 0.0
0.135228 0.105705 0.0
0.357656 0.0553455 0.0
0.735994 0.0127073 0.0
-0.00385969 0.000165949 0.0
-0.0101679 0.00137209 0.0
-0.0152482 0.00370261 0.0
-0.0192995 0.00662649 0.0
-0.0225779 0.0101017 0.0
-0.0253449 0.0139877 0.0
-0.0278474 0.0182504 0.0
-0.0302974 0.0228695 0.0
-0.0328668 0.0278586 0.0
-0.0356888 0.0332463 0.0
-0.0388657 0.0390733 0.0
-0.0424779 0.0453859 0.0
-0.0465916 0.0522308 0.0
-0.0512654 0.0596511 0.0
-0.0565517 0.0676793 0.0
-0.0624927 0.0763301 0.0
-0.0691063 0.0855886 0.0
-0.076356 0.0953934 0.0
-0.0840959 0.10561 0.0
-0.091978 0.115991 0.0
-0.0993073 0.126124 0.0
-0.104825 0.135355 0.0
-0.106395 0.142679 0.0
-0.100524 0.146697 0.0
-0.0816299 0.145331 0.0
-0.0406748 0.136466 0.0
0.0369256 0.116517 0.0
0.173486 0.0863728 0.0
0.401892 0.0428281 0.0
0.763917 0.00837094 0.0
-0.00457725 0.000153652 0.0
-0.0119285 0.00127675 0.0
-0.017781 0.00344527 0.0
-0.0224095 0.00615986 0.0
-0.026141 0.00938006 0.0
-0.0292893 0.0129746 0.0
-0.0321425 0.0169134 0.0
-0.0349426 0.0211796 0.0
-0.0378826 0.0257882 0.0
-0.0411091 0.0307673 0.0
-0.0447319 0.0361554 0.0
-0.0488334 0.0419944 0.0
-0.0534768 0.0483253 0.0
-0.0587119 0.0551824 0.0
-0.0645752 0.0625875 0.0
-0.0710831 0.0705411 0.0
-0.0782128 0.0790106 0.0
-0.0858657 0.0879128 0.0
-0.0938021 0.0970883 0.0
-0.101535 0.106266 0.0
-0.108171 0.11501 0.0
-0.112174 0.122667 0.0
-0.111049 0.128268 0.0
-0.100872 0.130524 0.0
-0.0756473 0.127624 0.0
-0.0261234 0.117838 0.0
0.0615826 0.0985315 0.0
0.207458 0.0710004 0.0
0.438845 0.0335951 0.0
0.785128 0.00564295 0.0
-0.00523409 0.000138716 0.0
-0.0135405 0.00115212 0.0
-0.0200962 0.00310558 0.0
-0.0252474 0.00554584 0.0
-0.0293876 0.00843644 0.0
-0.03288 0.0116599 0.0
-0.0360517 0.0151919 0.0
-0.0391725 0.0190203 0.0
-0.0424543 0.0231623 0.0
-0.046056 0.0276466 0.0
-0.0500929 0.0325107 0.0
-0.0546479 0.0377948 0.0
-0.0597798 0.0435368 0.0
-0.065528 0.0497672 0.0
-0.071911 0.0565027 0.0
-0.0789167 0.0637373 0.0
-0.0864794 0.0714302 0.0
-0.0944359 0.0794879 0.0
-0.102452 0.0877393 0.0
-0.109905 0.0959015 0.0
-0.115714 0.103534 0.0
-0.118097 0.109991 0.0
-0.114253 0.114355 0.0
-0.0999304 0.115443 0.0
-0.068865 0.1117 0.0
-0.011802 0.10169 0.0
0.0843122 0.0835419 0.0
0.237311 0.0587317 0.0
0.469729 0.0266956 0.0
0.801533 0.00390256 0.0
-0.00581727 0.000121723 0.0
-0.0149686 0.00100472 0.0
-0.0221429 0.0027016 0.0
-0.0277521 0.00481613 0.0
-0.0322503 0.00731777 0.0
-0.036046 0.0101068 0.0
-0.0395019 0.0131658 0.0
-0.0429129 0.0164892 0.0
-0.0465083 0.0200969 0.0
-0.0504571 0.0240194 0.0
-0.0548798 0.0282951 0.0
-0.0598591 0.0329646 0.0
-0.0654489 0.0380663 0.0
-0.0716776 0.0436314 0.0
-0.0785453 0.0496775 0.0
-0.0860108 0.0561996 0.0
-0.0939641 0.0631574 0.0
-0.102176 0.0704572 0.0
-0.110218 0.0779259 0.0
-0.117334 0.0852782 0.0
-0.122265 0.0920746 0.0
-0.123006 0.0976823 0.0
-0.116502 0.101229 0.0
-0.0982519 0.101622 0.0
-0.0618355 0.0975343 0.0
0.00187672 0.0877322 0.0
0.10497 0.0710325 0.0
0.263418 0.048872 0.0
0.495609 0.0214651 0.0
0.814438 0.00277232 0.0
-0.00631609 0.000102848 0.0
-0.0161843 0.000838305 0.0
-0.0238798 0.00224468 0.0
-0.0298739 0.00399147 0.0
-0.034674 0.00605549 0.0
-0.0387292 0.00835776 0.0
-0.0424332 0.0108892 0.0
-0.0461033 0.0136515 0.0
-0.0499841 0.0166685 0.0
-0.0542539 0.0199734 0.0
-0.0590378 0.0236071 0.0
-0.0644188 0.0276128 0.0
-0.0704464 0.0320328 0.0
-0.0771391 0.0369035 0.0
-0.0844793 0.0422495 0.0
-0.0923972 0.048074 0.0
-0.100738 0.0543456 0.0
-0.109206 0.0609792 0.0
-0.117276 0.067808 0.0
-0.124059 0.0745506 0.0
-0.128124 0.0807711 0.0
-0.127261 0.0858456 0.0
-0.118198 0.0889357 0.0
-0.096254 0.0890215 0.0
-0.0549424 0.0849483 0.0
0.0145923 0.0757033 0.0
0.123536 0.0605609 0.0
0.28617 0.0408919 0.0
0.517362 0.0174443 0.0
0.82474 0.00202385 0.0
-0.00672125 8.2076e-05 0.0
-0.0171638 0.000655072 0.0
-0.0252728 0.00174215 0.0
-0.0315715 0.00308587 0.0
-0.036613 0.0046713 0.0
-0.0408807 0.00644256 0.0
-0.0447948 0.00839966 0.0
-0.0486919 0.0105522 0.0
-0.0528296 0.0129285 0.0
-0.0573953 0.0155654 0.0
-0.0625187 0.0185073 0.0
-0.0682843 0.0218023 0.0
-0.0747392 0.0254996 0.0
-0.0818941 0.0296453 0.0
-0.0897158 0.0342766 0.0
-0.0981074 0.0394119 0.0
-0.10687 0.0450374 0.0
-0.115641 0.0510851 0.0
-0.123793 0.0574026 0.0
-0.130302 0.0637175 0.0
-0.133566 0.0695981 0.0
-0.131179 0.0744241 0.0
-0.119684 0.0773754 0.0
-0.0942763 0.0774848 0.0
-0.0484911 0.0737208 0.0
0.0261633 0.0652888 0.0
0.140087 0.051712 0.0
0.305957 0.034359 0.0
0.535702 0.0142994 0.0
0.833073 0.00151533 0.0
-0.00702412 5.93587e-05 0.0
-0.017886 0.000456594 0.0
-0.0262925 0.00119955 0.0
-0.0328096 0.00211008 0.0
-0.0380279 0.00318204 0.0
-0.0424581 0.0043842 0.0
-0.0465421 0.0057259 0.0
-0.0506318 0.00722509 0.0
-0.0549966 0.00891436 0.0
-0.0598321 0.0108346 0.0
-0.0652741 0.0130345 0.0
-0.0714105 0.0155685 0.0
-0.078289 0.0184954 0.0
-0.0859159 0.0218748 0.0
-0.0942461 0.0257622 0.0
-0.103159 0.0301983 0.0
-0.112413 0.0351954 0.0
-0.121574 0.0407121 0.0
-0.129912 0.0466185 0.0
-0.136259 0.0526572 0.0
-0.138836 0.0584024 0.0
-0.135046 0.0632311 0.0
-0.121263 0.0663258 0.0
-0.0926094 0.0667467 0.0
-0.0427152 0.0635471 0.0
0.0365149 0.0560901 0.0
0.154719 0.0440857 0.0
0.323113 0.028897 0.0
0.551191 0.0117742 0.0
0.839875 0.00115489 0.0
-0.00721688 3.4695e-05 0.0
-0.0183328 0.00024442 0.0
-0.0269138 0.000622073 0.0
-0.0335585 0.00107416 0.0
-0.0388851 0.00160335 0.0
-0.0434249 0.00220396 0.0
-0.0476351 0.00289436 0.0
-0.05188 0.0037004 0.0
-0.0564386 0.00465852 0.0
-0.0615148 0.00581314 0.0
-0.0672519 0.00721726 0.0
-0.0737445 0.00893258 0.0
-0.0810448 0.0110293 0.0
-0.0891602 0.0135839 0.0
-0.0980388 0.0166751 0.0
-0.10754 0.0203725 0.0
-0.117386 0.0247238 0.0
-0.127066 0.0297242 0.0
-0.135742 0.0352755 0.0
-0.142092 0.0411442 0.0
-0.144146 0.0469149 0.0
-0.13911 0.051959 0.0
-0.123204 0.055447 0.0
-0.091506 0.0564387 0.0
-0.0378048 0.0540349 0.0
0.0455575 0.0477017 0.0
0.167491 0.0373018 0.0
0.337888 0.0241738 0.0
0.564241 0.00966238 0.0
0.845443 0.000880348 0.0
-0.00729214 8.1049e-06 0.0
-0.0184883 2.03716e-05 0.0
-0.0271154 1.56424e-05 0.0
-0.033793 -1.08031e-05 0.0
-0.0391564 -4.78062e-05 0.0
-0.0437489 -7.5242e-05 0.0
-0.0480376 -6.65862e-05 0.0
-0.0523951 1.0879e-05 0.0
-0.0571084 0.000196007 0.0
-0.0623898 0.000535467 0.0
-0.0683925 0.00108573 0.0
-0.0752218 0.00191531 0.0
-0.08294 0.00310643 0.0
-0.091562 0.00475466 0.0
-0.101036 0.00696563 0.0
-0.111209 0.00984388 0.0
-0.121766 0.0134828 0.0
-0.132127 0.0179248 0.0
-0.141335 0.0231137 0.0
-0.147905 0.0288527 0.0
-0.149659 0.0347473 0.0
-0.143586 0.0401664 0.0
-0.125748 0.0442619 0.0
-0.0912044 0.0460677 0.0
-0.03395 0.0446954 0.0
0.053192 0.0396597 0.0
0.178418 0.0309487 0.0
0.350444 0.019859 0.0
0.575123 0.00777813 0.0
0.849957 0.000644557 0.0
-0.00724419 -2.01277e-05 0.0
-0.0183411 -0.000213029 0.0
-0.0268822 -0.000612589 0.0
-0.0334948 -0.00113145 0.0
-0.0388205 -0.00175065 0.0
-0.0434057 -0.00242501 0.0
-0.0477208 -0.00312149 0.0
-0.0521419 -0.00380249 0.0
-0.0569623 -0.00442894 0.0
-0.0624034 -0.00495421 0.0
-0.0686302 -0.00532059 0.0
-0.0757632 -0.00545452 0.0
-0.0838818 -0.00526265 0.0
-0.0930165 -0.00462963 0.0
-0.103126 -0.00341935 0.0
-0.114055 -0.00148506 0.0
-0.125471 0.00131598 0.0
-0.136704 0.00507642 0.0
-0.146677 0.00980364 0.0
-0.153732 0.0153576 0.0
-0.155468 0.0213826 0.0
-0.148635 0.0272564 0.0
-0.129113 0.0321191 0.0
-0.0919443 0.0349642 0.0
-0.0313684 0.034883 0.0
0.0592622 0.0313796 0.0
0.187427 0.0245367 0.0
0.360816 0.0155869 0.0
0.583954 0.00593129 0.0
0.85349 0.00040595 0.0
-0.00706814 -4.96061e-05 0.0
-0.0178819 -0.000452326 0.0
-0.0262032 -0.00125299 0.0
-0.0326524 -0.00227017 0.0
-0.0378637 -0.0034782 0.0
-0.0423775 -0.00480863 0.0
-0.04666 -0.00622436 0.0
-0.0510872 -0.00768557 0.0
-0.0559562 -0.00915594 0.0
-0.0614976 -0.0105922 0.0
-0.0678914 -0.0119389 0.0
-0.0752786 -0.0131211 0.0
-0.0837636 -0.0140376 0.0
-0.0934034 -0.0145555 0.0
-0.104179 -0.0145089 0.0
-0.115941 -0.0137058 0.0
-0.128324 -0.0119541 0.0
-0.140615 -0.00909045 0.0
-0.15162 -0.00503014 0.0
-0.159497 0.000158809 0.0
-0.161571 0.0061793 0.0
-0.15433 0.0124573 0.0
-0.13346 0.0181594 0.0
-0.0939723 0.0222368 0.0
-0.0303445 0.0237365 0.0
0.0635032 0.0220905 0.0
0.19431 0.0174351 0.0
0.368872 0.010909 0.0
0.590667 0.00390442 0.0
0.855994 0.000122273 0.0
-0.00676177 -7.98799e-05 0.0
-0.0171083 -0.00069271 0.0
-0.025077 -0.00189214 0.0
-0.0312646 -0.00340314 0.0
-0.0362837 -0.00519485 0.0
-0.0406585 -0.00717804 0.0
-0.0448436 -0.00931423 0.0
-0.0492096 -0.0115647 0.0
-0.054055 -0.0138997 0.0
-0.0596195 -0.0162835 0.0
-0.0661002 -0.0186686 0.0
-0.0736634 -0.0209847 0.0
-0.0824464 -0.0231294 0.0
-0.0925444 -0.0249593 0.0
-0.103975 -0.0262849 0.0
-0.116612 -0.0268736 0.0
-0.130085 -0.0264696 0.0
-0.14363 -0.0248291 0.0
-0.15593 -0.0217778 0.0
-0.164947 -0.0172979 0.0
-0.167779 -0.0115939 0.0
-0.160645 -0.0051458 0.0
-0.138915 0.00128874 0.0
-0.0975125 0.00669967 0.0
-0.0311823 0.0101035 0.0
0.0655594 0.0107807 0.0
0.198673 0.00883346 0.0
0.37423 0.00525794 0.0
0.594951 0.00142649 0.0
0.857304 -0.000257752 0.0
-0.0063256 -0.000110158 0.0
-0.0160251 -0.000927489 0.0
-0.0235122 -0.00251222 0.0
-0.0293423 -0.00449918 0.0
-0.0340916 -0.00685408 0.0
-0.0382569 -0.00947015 0.0
-0.0422735 -0.0123105 0.0
-0.0465012 -0.0153412 0.0
-0.0512368 -0.0185431 0.0
-0.0567276 -0.0218937 0.0
-0.0631888 -0.0253599 0.0
-0.0708158 -0.0288849 0.0
-0.0797863 -0.0323757 0.0
-0.0902447 -0.0356902 0.0
-0.102261 -0.0386271 0.0
-0.115754 -0.0409231 0.0
-0.130368 -0.0422666 0.0
-0.14531 -0.0423307 0.0
-0.15916 -0.040832 0.0
-0.169691 -0.0376172 0.0
-0.173739 -0.0327448 0.0
-0.16723 -0.0265559 0.0
-0.145332 -0.0196796 0.0
-0.102812 -0.01298 0.0
-0.0344306 -0.0074311 0.0
0.0647603 -0.00389903 0.0
0.19986 -0.00238764 0.0
0.376286 -0.00209626 0.0
0.596248 -0.00177396 0.0
0.857057 -0.000755523 0.0
-0.00576433 -0.000139365 0.0
-0.014647 -0.00114785 0.0
-0.0215311 -0.00309009 0.0
-0.0269131 -0.00551802 0.0
-0.0313165 -0.00839592 0.0
-0.0352006 -0.0116034 0.0
-0.0389728 -0.0151082 0.0
-0.0429765 -0.0188842 0.0
-0.047502 -0.0229273 0.0
-0.0528018 -0.0272341 0.0
-0.0591078 -0.0317936 0.0
-0.0666459 -0.0365735 0.0
-0.0756387 -0.0415045 0.0
-0.0862899 -0.0464637 0.0
-0.0987383 -0.0512586 0.0
-0.112969 -0.0556167 0.0
-0.128674 -0.0591888 0.0
-0.145062 -0.0615746 0.0
-0.160646 -0.0623735 0.0
-0.173042 -0.0612629 0.0
-0.178855 -0.0580831 0.0
-0.173717 -0.0529122 0.0
-0.152502 -0.0461152 0.0
-0.109765 -0.0383338 0.0
-0.0402429 -0.0304411 0.0
0.0605463 -0.0233482 0.0
0.196849 -0.0173401 0.0
0.373718 -0.011902 0.0
0.593405 -0.00603968 0.0
0.854781 -0.00142972 0.0
-0.00508809 -0.000166004 0.0
-0.0130016 -0.00134228 0.0
-0.0191738 -0.00359599 0.0
-0.024025 -0.00640841 0.0
-0.0280109 -0.00974443 0.0
-0.0315432 -0.0134745 0.0
-0.0349934 -0.0175729 0.0
-0.0386817 -0.0220248 0.0
-0.0428868 -0.026844 0.0
-0.0478608 -0.0320512 0.0
-0.0538485 -0.0376661 0.0
-0.0611035 -0.0436926 0.0
-0.0698937 -0.0501024 0.0
-0.0804873 -0.0568155 0.0
-0.093104 -0.0636778 0.0
-0.107819 -0.0704413 0.0
-0.124405 -0.0767546 0.0
-0.142123 -0.0821705 0.0
-0.159474 -0.0861797 0.0
-0.173989 -0.0882688 0.0
-0.182106 -0.0879919 0.0
-0.179219 -0.0850431 0.0
-0.15992 -0.0793341 0.0
-0.118465 -0.0710342 0.0
-0.0493498 -0.0607129 0.0
0.0517691 -0.0491653 0.0
0.188343 -0.03732 0.0
0.365209 -0.0251176 0.0
0.585224 -0.011902 0.0
0.849769 -0.00241089 0.0
-0.00431391 -0.00018805 0.0
-0.0111324 -0.00149604 0.0
-0.0165018 -0.00399257 0.0
-0.0207514 -0.00710673 0.0
-0.0242558 -0.0108059 0.0
-0.0273704 -0.0149561 0.0
-0.0304234 -0.0195392 0.0
-0.0337051 -0.0245526 0.0
-0.0374755 -0.0300303 0.0
-0.0419792 -0.0360203 0.0
-0.0474656 -0.0425793 0.0
-0.0542081 -0.0497586 0.0
-0.0625134 -0.0575894 0.0
-0.072711 -0.0660612 0.0
-0.0851074 -0.0750956 0.0
-0.0998856 -0.0845168 0.0
-0.116937 -0.0940239 0.0
-0.135631 -0.103174 0.0
-0.154545 -0.111383 0.0
-0.171233 -0.117951 0.0
-0.182092 -0.122095 0.0
-0.182395 -0.12301 0.0
-0.166526 -0.119952 0.0
-0.128404 -0.112326 0.0
-0.0620733 -0.100068 0.0
0.0372678 -0.0834415 0.0
0.172636 -0.0642838 0.0
0.348716 -0.0432757 0.0
0.569739 -0.0201912 0.0
0.840871 -0.00389616 0.0
-0.00346843 -0.00020263 0.0
-0.0091038 -0.00159043 0.0
-0.0136041 -0.00423412 0.0
-0.0171976 -0.00753649 0.0
-0.0201682 -0.0114688 0.0
-0.0228088 -0.015897 0.0
-0.0253986 -0.0208102 0.0
-0.0281913 -0.0262173 0.0
-0.0314202 -0.0321709 0.0
-0.0353127 -0.0387469 0.0
-0.0401111 -0.0460414 0.0
-0.046094 -0.0541607 0.0
-0.0535913 -0.0632099 0.0
-0.0629803 -0.0732741 0.0
-0.0746463 -0.0843911 0.0
-0.088887 -0.0965137 0.0
-0.105744 -0.109463 0.0
-0.124758 -0.122881 0.0
-0.144694 -0.136183 0.0
-0.163279 -0.148526 0.0
-0.177054 -0.158798 0.0
-0.181375 -0.165622 0.0
-0.170593 -0.167434 0.0
-0.138361 -0.162599 0.0
-0.078141 -0.149958 0.0
0.0162831 -0.128559 0.0
0.148047 -0.100736 0.0
0.321847 -0.0686078 0.0
0.544375 -0.0323115 0.0
0.826401 -0.00628831 0.0
-0.0025886 -0.000206014 0.0
-0.0070021 -0.00160336 0.0
-0.0105981 -0.00426839 0.0
-0.0135011 -0.00761181 0.0
-0.015901 -0.011609 0.0
-0.0180265 -0.0161298 0.0
-0.0201034 -0.0211676 0.0
-0.0223435 -0.0267395 0.0
-0.0249453 -0.0329124 0.0
-0.0281077 -0.0397852 0.0
-0.0320504 -0.0474903 0.0
-0.0370376 -0.0561881 0.0
-0.0433972 -0.0660631 0.0
-0.0515256 -0.0773121 0.0
-0.0618614 -0.0901221 0.0
-0.0748039 -0.104631 0.0
-0.0905572 -0.120864 0.0
-0.108896 -0.138655 0.0
-0.128883 -0.157539 0.0
-0.148603 -0.176655 0.0
-0.164983 -0.194646 0.0
-0.17375 -0.209605 0.0
-0.169511 -0.219088 0.0
-0.145908 -0.220251 0.0
-0.0958892 -0.210238 0.0
-0.011777 -0.18696 0.0
0.112277 -0.149825 0.0
0.281123 -0.104506 0.0
0.505015 -0.0508948 0.0
0.803195 -0.010528 0.0
-0.00172822 -0.000192688 0.0
-0.00494468 -0.00150909 0.0
-0.0076402 -0.00403957 0.0
-0.00984428 -0.00724374 0.0
-0.0116592 -0.0110994 0.0
-0.0132517 -0.0154829 0.0
-0.0147936 -0.0203873 0.0
-0.0164507 -0.025832 0.0
-0.0183799 -0.0318899 0.0
-0.0207409 -0.0386732 0.0
-0.0237153 -0.0463388 0.0
-0.0275295 -0.0550889 0.0
-0.0324772 -0.0651765 0.0
-0.0389329 -0.0769051 0.0
-0.0473413 -0.09062 0.0
-0.0581605 -0.106677 0.0
-0.0717374 -0.125381 0.0
-0.0881045 -0.146873 0.0
-0.10672 -0.170981 0.0
-0.126203 -0.19703 0.0
-0.144136 -0.223653 0.0
-0.156959 -0.248621 0.0
-0.159941 -0.268762 0.0
-0.147142 -0.280014 0.0
-0.111317 -0.277606 0.0
-0.043612 -0.257332 0.0
0.0658905 -0.214609 0.0
0.224699 -0.155501 0.0
0.447699 -0.080583 0.0
0.766729 -0.0186302 0.0
-0.00094943 -0.000157382 0.0
-0.0030614 -0.00128663 0.0
-0.0048997 -0.00350458 0.0
-0.00642247 -0.00636316 0.0
-0.00766164 -0.00983837 0.0
-0.00873002 -0.0138146 0.0
-0.00974751 -0.0182786 0.0
-0.0108322 -0.0232456 0.0
-0.0120946 -0.028784 0.0
-0.0136479 -0.0350051 0.0
-0.0156223 -0.0420703 0.0
-0.0181852 -0.0501979 0.0
-0.0215632 -0.0596767 0.0
-0.0260599 -0.07088 0.0
-0.0320606 -0.0842757 0.0
-0.040006 -0.100418 0.0