# vtk DataFile Version 3.0
Malha 2D com triângulos e temperatura
ASCII
DATASET UNSTRUCTURED_GRID

POINTS 961 double
0 0 0
1 0 0
1 1 0
0 1 0
0.0333333 0 0
0.0666667 0 0
0.1 0 0
0.133333 0 0
0.166667 0 0
0.2 0 0
0.233333 0 0
0.266667 0 0
0.3 0 0
0.333333 0 0
0.366667 0 0
0.4 0 0
0.433333 0 0
0.466667 0 0
0.5 0 0
0.533333 0 0
0.566667 0 0
0.6 0 0
0.633333 0 0
0.666667 0 0
0.7 0 0
0.733333 0 0
0.766667 0 0
0.8 0 0
0.833333 0 0
0.866667 0 0
0.9 0 0
0.933333 0 0
0.966667 0 0
1 0.0333333 0
1 0.0666667 0
1 0.1 0
1 0.133333 0
1 0.166667 0
1 0.2 0
1 0.233333 0
1 0.266667 0
1 0.3 0
1 0.333333 0
1 0.366667 0
1 0.4 0
1 0.433333 0
1 0.466667 0
1 0.5 0
1 0.533333 0
1 0.566667 0
1 0.6 0
1 0.633333 0
1 0.666667 0
1 0.7 0
1 0.733333 0
1 0.766667 0
1 0.8 0
1 0.833333 0
1 0.866667 0
1 0.9 0
1 0.933333 0
1 0.966667 0
0.966667 1 0
0.933333 1 0
0.9 1 0
0.866667 1 0
0.833333 1 0
0.8 1 0
0.766667 1 0
0.733333 1 0
0.7 1 0
0.666667 1 0
0.633333 1 0
0.6 1 0
0.566667 1 0
0.533333 1 0
0.5 1 0
0.466667 1 0
0.433333 1 0
0.4 1 0
0.366667 1 0
0.333333 1 0
0.3 1 0
0.266667 1 0
0.233333 1 0
0.2 1 0
0.166667 1 0
0.133333 1 0
0.1 1 0
0.0666667 1 0
0.0333333 1 0
0 0.966667 0
0 0.933333 0
0 0.9 0
0 0.866667 0
0 0.833333 0
0 0.8 0
0 0.766667 0
0 0.733333 0
0 0.7 0
0 0.666667 0
0 0.633333 0
0 0.6 0
0 0.566667 0
0 0.533333 0
0 0.5 0
0 0.466667 0
0 0.433333 0
0 0.4 0
0 0.366667 0
0 0.333333 0
0 0.3 0
0 0.266667 0
0 0.233333 0
0 0.2 0
0 0.166667 0
0 0.133333 0
0 0.1 0
0 0.0666667 0
0 0.0333333 0
0.0333333 0.0333333 0
0.0333333 0.0666667 0
0.0333333 0.1 0
0.0333333 0.133333 0
0.0333333 0.166667 0
0.0333333 0.2 0
0.0333333 0.233333 0
0.0333333 0.266667 0
0.0333333 0.3 0
0.0333333 0.333333 0
0.0333333 0.366667 0
0.0333333 0.4 0
0.0333333 0.433333 0
0.0333333 0.466667 0
0.0333333 0.5 0
0.0333333 0.533333 0
0.0333333 0.566667 0
0.0333333 0.6 0
0.0333333 0.633333 0
0.0333333 0.666667 0
0.0333333 0.7 0
0.0333333 0.733333 0
0.0333333 0.766667 0
0.0333333 0.8 0
0.0333333 0.833333 0
0.0333333 0.866667 0
0.0333333 0.9 0
0.0333333 0.933333 0
0.0333333 0.966667 0
0.0666667 0.0333333 0
0.0666667 0.0666667 0
0.0666667 0.1 0
0.0666667 0.133333 0
0.0666667 0.166667 0
0.0666667 0.2 0
0.0666667 0.233333 0
0.0666667 0.266667 0
0.0666667 0.3 0
0.0666667 0.333333 0
0.0666667 0.366667 0
0.0666667 0.4 0
0.0666667 0.433333 0
0.0666667 0.466667 0
0.0666667 0.5 0
0.0666667 0.533333 0
0.0666667 0.566667 0
0.0666667 0.6 0
0.0666667 0.633333 0
0.0666667 0.666667 0
0.0666667 0.7 0
0.0666667 0.733333 0
0.0666667 0.766667 0
0.0666667 0.8 0
0.0666667 0.833333 0
0.0666667 0.866667 0
0.0666667 0.9 0
0.0666667 0.933333 0
0.0666667 0.966667 0
0.1 0.0333333 0
0.1 0.0666667 0
0.1 0.1 0
0.1 0.133333 0
0.1 0.166667 0
0.1 0.2 0
0.1 0.233333 0
0.1 0.266667 0
0.1 0.3 0
0.1 0.333333 0
0.1 0.366667 0
0.1 0.4 0
0.1 0.433333 0
0.1 0.466667 0
0.1 0.5 0
0.1 0.533333 0
0.1 0.566667 0
0.1 0.6 0
0.1 0.633333 0
0.1 0.666667 0
0.1 0.7 0
0.1 0.733333 0
0.1 0.766667 0
0.1 0.8 0
0.1 0.833333 0
0.1 0.866667 0
0.1 0.9 0
0.1 0.933333 0
0.1 0.966667 0
0.133333 0.0333333 0
0.133333 0.0666667 0
0.133333 0.1 0
0.133333 0.133333 0
0.133333 0.166667 0
0.133333 0.2 0
0.133333 0.233333 0
0.133333 0.266667 0
0.133333 0.3 0
0.133333 0.333333 0
0.133333 0.366667 0
0.133333 0.4 0
0.133333 0.433333 0
0.133333 0.466667 0
0.133333 0.5 0
0.133333 0.533333 0
0.133333 0.566667 0
0.133333 0.6 0
0.133333 0.633333 0
0.133333 0.666667 0
0.133333 0.7 0
0.133333 0.733333 0
0.133333 0.766667 0
0.133333 0.8 0
0.133333 0.833333 0
0.133333 0.866667 0
0.133333 0.9 0
0.133333 0.933333 0
0.133333 0.966667 0
0.166667 0.0333333 0
0.166667 0.0666667 0
0.166667 0.1 0
0.166667 0.133333 0
0.166667 0.166667 0
0.166667 0.2 0
0.166667 0.233333 0
0.166667 0.266667 0
0.166667 0.3 0
0.166667 0.333333 0
0.166667 0.366667 0
0.166667 0.4 0
0.166667 0.433333 0
0.166667 0.466667 0
0.166667 0.5 0
0.166667 0.533333 0
0.166667 0.566667 0
0.166667 0.6 0
0.166667 0.633333 0
0.166667 0.666667 0
0.166667 0.7 0
0.166667 0.733333 0
0.166667 0.766667 0
0.166667 0.8 0
0.166667 0.833333 0
0.166667 0.866667 0
0.166667 0.9 0
0.166667 0.933333 0
0.166667 0.966667 0
0.2 0.0333333 0
0.2 0.0666667 0
0.2 0.1 0
0.2 0.133333 0
0.2 0.166667 0
0.2 0.2 0
0.2 0.233333 0
0.2 0.266667 0
0.2 0.3 0
0.2 0.333333 0
0.2 0.366667 0
0.2 0.4 0
0.2 0.433333 0
0.2 0.466667 0
0.2 0.5 0
0.2 0.533333 0
0.2 0.566667 0
0.2 0.6 0
0.2 0.633333 0
0.2 0.666667 0
0.2 0.7 0
0.2 0.733333 0
0.2 0.766667 0
0.2 0.8 0
0.2 0.833333 0
0.2 0.866667 0
0.2 0.9 0
0.2 0.933333 0
0.2 0.966667 0
0.233333 0.0333333 0
0.233333 0.0666667 0
0.233333 0.1 0
0.233333 0.133333 0
0.233333 0.166667 0
0.233333 0.2 0
0.233333 0.233333 0
0.233333 0.266667 0
0.233333 0.3 0
0.233333 0.333333 0
0.233333 0.366667 0
0.233333 0.4 0
0.233333 0.433333 0
0.233333 0.466667 0
0.233333 0.5 0
0.233333 0.533333 0
0.233333 0.566667 0
0.233333 0.6 0
0.233333 0.633333 0
0.233333 0.666667 0
0.233333 0.7 0
0.233333 0.733333 0
0.233333 0.766667 0
0.233333 0.8 0
0.233333 0.833333 0
0.233333 0.866667 0
0.233333 0.9 0
0.233333 0.933333 0
0.233333 0.966667 0
0.266667 0.0333333 0
0.266667 0.0666667 0
0.266667 0.1 0
0.266667 0.133333 0
0.266667 0.166667 0
0.266667 0.2 0
0.266667 0.233333 0
0.266667 0.266667 0
0.266667 0.3 0
0.266667 0.333333 0
0.266667 0.366667 0
0.266667 0.4 0
0.266667 0.433333 0
0.266667 0.466667 0
0.266667 0.5 0
0.266667 0.533333 0
0.266667 0.566667 0
0.266667 0.6 0
0.266667 0.633333 0
0.266667 0.666667 0
0.266667 0.7 0
0.266667 0.733333 0
0.266667 0.766667 0
0.266667 0.8 0
0.266667 0.833333 0
0.266667 0.866667 0
0.266667 0.9 0
0.266667 0.933333 0
0.266667 0.966667 0
0.3 0.0333333 0
0.3 0.0666667 0
0.3 0.1 0
0.3 0.133333 0
0.3 0.166667 0
0.3 0.2 0
0.3 0.233333 0
0.3 0.266667 0
0.3 0.3 0
0.3 0.333333 0
0.3 0.366667 0
0.3 0.4 0
0.3 0.433333 0
0.3 0.466667 0
0.3 0.5 0
0.3 0.533333 0
0.3 0.566667 0
0.3 0.6 0
0.3 0.633333 0
0.3 0.666667 0
0.3 0.7 0
0.3 0.733333 0
0.3 0.766667 0
0.3 0.8 0
0.3 0.833333 0
0.3 0.866667 0
0.3 0.9 0
0.3 0.933333 0
0.3 0.966667 0
0.333333 0.0333333 0
0.333333 0.0666667 0
0.333333 0.1 0
0.333333 0.133333 0
0.333333 0.166667 0
0.333333 0.2 0
0.333333 0.233333 0
0.333333 0.266667 0
0.333333 0.3 0
0.333333 0.333333 0
0.333333 0.366667 0
0.333333 0.4 0
0.333333 0.433333 0
0.333333 0.466667 0
0.333333 0.5 0
0.333333 0.533333 0
0.333333 0.566667 0
0.333333 0.6 0
0.333333 0.633333 0
0.333333 0.666667 0
0.333333 0.7 0
0.333333 0.733333 0
0.333333 0.766667 0
0.333333 0.8 0
0.333333 0.833333 0
0.333333 0.866667 0
0.333333 0.9 0
0.333333 0.933333 0
0.333333 0.966667 0
0.366667 0.0333333 0
0.366667 0.0666667 0
0.366667 0.1 0
0.366667 0.133333 0
0.366667 0.166667 0
0.366667 0.2 0
0.366667 0.233333 0
0.366667 0.266667 0
0.366667 0.3 0
0.366667 0.333333 0
0.366667 0.366667 0
0.366667 0.4 0
0.366667 0.433333 0
0.366667 0.466667 0
0.366667 0.5 0
0.366667 0.533333 0
0.366667 0.566667 0
0.366667 0.6 0
0.366667 0.633333 0
0.366667 0.666667 0
0.366667 0.7 0
0.366667 0.733333 0
0.366667 0.766667 0
0.366667 0.8 0
0.366667 0.833333 0
0.366667 0.866667 0
0.366667 0.9 0
0.366667 0.933333 0
0.366667 0.966667 0
0.4 0.0333333 0
0.4 0.0666667 0
0.4 0.1 0
0.4 0.133333 0
0.4 0.166667 0
0.4 0.2 0
0.4 0.233333 0
0.4 0.266667 0
0.4 0.3 0
0.4 0.333333 0
0.4 0.366667 0
0.4 0.4 0
0.4 0.433333 0
0.4 0.466667 0
0.4 0.5 0
0.4 0.533333 0
0.4 0.566667 0
0.4 0.6 0
0.4 0.633333 0
0.4 0.666667 0
0.4 0.7 0
0.4 0.733333 0
0.4 0.766667 0
0.4 0.8 0
0.4 0.833333 0
0.4 0.866667 0
0.4 0.9 0
0.4 0.933333 0
0.4 0.966667 0
0.433333 0.0333333 0
0.433333 0.0666667 0
0.433333 0.1 0
0.433333 0.133333 0
0.433333 0.166667 0
0.433333 0.2 0
0.433333 0.233333 0
0.433333 0.266667 0
0.433333 0.3 0
0.433333 0.333333 0
0.433333 0.366667 0
0.433333 0.4 0
0.433333 0.433333 0
0.433333 0.466667 0
0.433333 0.5 0
0.433333 0.533333 0
0.433333 0.566667 0
0.433333 0.6 0
0.433333 0.633333 0
0.433333 0.666667 0
0.433333 0.7 0
0.433333 0.733333 0
0.433333 0.766667 0
0.433333 0.8 0
0.433333 0.833333 0
0.433333 0.866667 0
0.433333 0.9 0
0.433333 0.933333 0
0.433333 0.966667 0
0.466667 0.0333333 0
0.466667 0.0666667 0
0.466667 0.1 0
0.466667 0.133333 0
0.466667 0.166667 0
0.466667 0.2 0
0.466667 0.233333 0
0.466667 0.266667 0
0.466667 0.3 0
0.466667 0.333333 0
0.466667 0.366667 0
0.466667 0.4 0
0.466667 0.433333 0
0.466667 0.466667 0
0.466667 0.5 0
0.466667 0.533333 0
0.466667 0.566667 0
0.466667 0.6 0
0.466667 0.633333 0
0.466667 0.666667 0
0.466667 0.7 0
0.466667 0.733333 0
0.466667 0.766667 0
0.466667 0.8 0
0.466667 0.833333 0
0.466667 0.866667 0
0.466667 0.9 0
0.466667 0.933333 0
0.466667 0.966667 0
0.5 0.0333333 0
0.5 0.0666667 0
0.5 0.1 0
0.5 0.133333 0
0.5 0.166667 0
0.5 0.2 0
0.5 0.233333 0
0.5 0.266667 0
0.5 0.3 0
0.5 0.333333 0
0.5 0.366667 0
0.5 0.4 0
0.5 0.433333 0
0.5 0.466667 0
0.5 0.5 0
0.5 0.533333 0
0.5 0.566667 0
0.5 0.6 0
0.5 0.633333 0
0.5 0.666667 0
0.5 0.7 0
0.5 0.733333 0
0.5 0.766667 0
0.5 0.8 0
0.5 0.833333 0
0.5 0.866667 0
0.5 0.9 0
0.5 0.933333 0
0.5 0.966667 0
0.533333 0.0333333 0
0.533333 0.0666667 0
0.533333 0.1 0
0.533333 0.133333 0
0.533333 0.166667 0
0.533333 0.2 0
0.533333 0.233333 0
0.533333 0.266667 0
0.533333 0.3 0
0.533333 0.333333 0
0.533333 0.366667 0
0.533333 0.4 0
0.533333 0.433333 0
0.533333 0.466667 0
0.533333 0.5 0
0.533333 0.533333 0
0.533333 0.566667 0
0.533333 0.6 0
0.533333 0.633333 0
0.533333 0.666667 0
0.533333 0.7 0
0.533333 0.733333 0
0.533333 0.766667 0
0.533333 0.8 0
0.533333 0.833333 0
0.533333 0.866667 0
0.533333 0.9 0
0.533333 0.933333 0
0.533333 0.966667 0
0.566667 0.0333333 0
0.566667 0.0666667 0
0.566667 0.1 0
0.566667 0.133333 0
0.566667 0.166667 0
0.566667 0.2 0
0.566667 0.233333 0
0.566667 0.266667 0
0.566667 0.3 0
0.566667 0.333333 0
0.566667 0.366667 0
0.566667 0.4 0
0.566667 0.433333 0
0.566667 0.466667 0
0.566667 0.5 0
0.566667 0.533333 0
0.566667 0.566667 0
0.566667 0.6 0
0.566667 0.633333 0
0.566667 0.666667 0
0.566667 0.7 0
0.566667 0.733333 0
0.566667 0.766667 0
0.566667 0.8 0
0.566667 0.833333 0
0.566667 0.866667 0
0.566667 0.9 0
0.566667 0.933333 0
0.566667 0.966667 0
0.6 0.0333333 0
0.6 0.0666667 0
0.6 0.1 0
0.6 0.133333 0
[...]
CELL_DATA 900
VECTORS velocity double
5.74659e-05 -5.64141e-05 0.0
-3.97395e-05 6.83915e-05 0.0
-0.000115636 0.000519473 0.0
-0.000165307 0.00115457 0.0
-0.000190233 0.00192753 0.0
-0.000204616 0.00277953 0.0
-0.000215758 0.00369694 0.0
-0.000228359 0.00467632 0.0
-0.000244339 0.00572742 0.0
-0.000264647 0.00686452 0.0
-0.000289817 0.00810603 0.0
-0.000320455 0.00947341 0.0
-0.000357418 0.010992 0.0
-0.000402004 0.012692 0.0
-0.000456191 0.0146112 0.0
-0.000523096 0.0167977 0.0
-0.000607886 0.0193153 0.0
-0.000719605 0.0222521 0.0
-0.000874823 0.0257348 0.0
-0.00110488 0.029952 0.0
-0.00146979 0.0351933 0.0
-0.00208529 0.0419119 0.0
-0.00317242 0.0508256 0.0
-0.00515377 0.0630546 0.0
-0.00879207 0.0804171 0.0
-0.0153811 0.105403 0.0
-0.0259625 0.142823 0.0
-0.038053 0.190813 0.0
-0.0130817 0.263671 0.0
0.217207 0.174426 0.0
-7.02493e-05 4.33414e-05 0.0
-0.000590898 0.000591717 0.0
-0.00100803 0.00176354 0.0
-0.00130587 0.00328738 0.0
-0.00149903 0.00510369 0.0
-0.00163842 0.00711365 0.0
-0.00175952 0.00929195 0.0
-0.00188725 0.011632 0.0
-0.00203589 0.0141529 0.0
-0.00221438 0.016885 0.0
-0.0024294 0.0198688 0.0
-0.00268773 0.0231531 0.0
-0.00299782 0.0267957 0.0
-0.00337131 0.0308666 0.0
-0.00382479 0.0354515 0.0
-0.00438265 0.0406589 0.0
-0.00508157 0.0466295 0.0
-0.00597784 0.0535503 0.0
-0.00715902 0.0616746 0.0
-0.00876158 0.0713492 0.0
-0.0109953 0.0830438 0.0
-0.0141744 0.0973747 0.0
-0.0187452 0.115087 0.0
-0.0253098 0.136922 0.0
-0.0345323 0.163272 0.0
-0.0469168 0.193139 0.0
-0.0604941 0.222768 0.0
-0.0659222 0.239699 0.0
-0.00239463 0.219033 0.0
0.306223 0.116849 0.0
-0.000522574 0.0001179 0.0
-0.00175838 0.000986176 0.0
-0.00272959 0.00267563 0.0
-0.00343163 0.00479157 0.0
-0.00391811 0.00727545 0.0
-0.00428773 0.0100107 0.0
-0.00461795 0.0129715 0.0
-0.00496427 0.0161527 0.0
-0.00536148 0.0195793 0.0
-0.00583252 0.0232907 0.0
-0.00639507 0.0273387 0.0
-0.00706675 0.0317848 0.0
-0.00786878 0.0367018 0.0
-0.0088294 0.0421756 0.0
-0.00998787 0.0483098 0.0
-0.0114001 0.0552311 0.0
-0.0131466 0.0630976 0.0
-0.0153448 0.0721091 0.0
-0.018164 0.0825194 0.0
-0.021843 0.0946475 0.0
-0.0266998 0.108876 0.0
-0.0331142 0.125622 0.0
-0.0414353 0.145217 0.0
-0.0517538 0.167656 0.0
-0.0633151 0.191984 0.0
-0.0734091 0.215405 0.0
-0.0735989 0.23081 0.0
-0.0419864 0.226881 0.0
0.0912658 0.172657 0.0
0.477411 0.077209 0.0
-0.00113915 0.000162229 0.0
-0.00322754 0.00122952 0.0
-0.0048151 0.00323211 0.0
-0.00595139 0.00568512 0.0
-0.00675614 0.00853443 0.0
-0.00738228 0.0116559 0.0
-0.00795139 0.0150277 0.0
-0.0085498 0.0186468 0.0
-0.00923307 0.0225419 0.0
-0.0100384 0.0267555 0.0
-0.0109945 0.0313426 0.0
-0.0121297 0.0363679 0.0
-0.0134769 0.041906 0.0
-0.015079 0.0480431 0.0
-0.0169939 0.0548796 0.0
-0.0193015 0.0625333 0.0
-0.0221129 0.0711437 0.0
-0.0255819 0.0808751 0.0
-0.0299175 0.0919178 0.0
-0.0353892 0.104481 0.0
-0.0423068 0.118762 0.0
-0.0509407 0.134881 0.0
-0.0613064 0.152713 0.0
-0.0727269 0.171611 0.0
-0.0829386 0.18976 0.0
-0.0865138 0.203635 0.0
-0.0710424 0.20577 0.0
-0.00875667 0.187405 0.0
0.164637 0.126644 0.0
0.575559 0.0490248 0.0
-0.00185515 0.000176732 0.0
-0.00489391 0.00132953 0.0
-0.00714189 0.00347046 0.0
-0.00873211 0.00606312 0.0
-0.00986856 0.00905493 0.0
-0.0107648 0.0123182 0.0
-0.0115886 0.0158347 0.0
-0.0124572 0.0196031 0.0
-0.0134467 0.023653 0.0
-0.0146076 0.0280267 0.0
-0.0159791 0.0327776 0.0
-0.0175986 0.0379667 0.0
-0.0195085 0.0436628 0.0
-0.0217627 0.0499426 0.0
-0.0244319 0.0568914 0.0
-0.0276106 0.0646039 0.0
-0.0314256 0.0731837 0.0
-0.0360442 0.0827414 0.0
-0.0416793 0.093386 0.0
-0.0485783 0.105208 0.0
-0.0569691 0.118236 0.0
-0.0669159 0.13236 0.0
-0.0779947 0.147163 0.0
-0.0886799 0.161683 0.0
-0.0952334 0.173843 0.0
-0.0898837 0.180192 0.0
-0.0572608 0.174166 0.0
0.0326887 0.149376 0.0
0.234327 0.092026 0.0
0.6459 0.030439 0.0
-0.00258981 0.000175972 0.0
-0.00660607 0.00133678 0.0
-0.00951736 0.00348757 0.0
-0.0115538 0.00607735 0.0
-0.0130123 0.00905423 0.0
-0.0141706 0.0122908 0.0
-0.015243 0.0157712 0.0
-0.0163764 0.0194947 0.0
-0.0176654 0.0234904 0.0
-0.0191726 0.0277977 0.0
-0.0209451 0.0324657 0.0
-0.0230268 0.0375488 0.0
-0.0254662 0.0431059 0.0
-0.0283228 0.0492001 0.0
-0.0316726 0.0558973 0.0
-0.0356141 0.0632647 0.0
-0.0402742 0.0713675 0.0
-0.0458128 0.0802626 0.0
-0.0524187 0.0899859 0.0
-0.060282 0.10053 0.0
-0.0695116 0.111799 0.0
-0.0799374 0.123538 0.0
-0.0907035 0.135178 0.0
-0.0995319 0.145661 0.0
-0.10149 0.152956 0.0
-0.0871324 0.154059 0.0
-0.0394167 0.143512 0.0
0.0712494 0.117638 0.0
0.291248 0.0674347 0.0
0.694651 0.0190109 0.0
-0.00330863 0.000167078 0.0
-0.00828783 0.0012854 0.0
-0.0118445 0.00335834 0.0
-0.01431 0.00584744 0.0
-0.0160745 0.00870218 0.0
-0.0174808 0.011799 0.0
-0.0187888 0.0151237 0.0
-0.0201733 0.0186754 0.0
-0.0217459 0.0224815 0.0
-0.0235789 0.0265775 0.0
-0.0257257 0.0310069 0.0
-0.0282337 0.035816 0.0
-0.0311542 0.0410533 0.0
-0.0345478 0.0467674 0.0
-0.0384893 0.053005 0.0
-0.0430726 0.0598078 0.0
-0.0484139 0.0672071 0.0
-0.0546515 0.0752156 0.0
-0.0619338 0.0838134 0.0
-0.0703778 0.0929257 0.0
-0.0799618 0.102381 0.0
-0.090287 0.111851 0.0
-0.100107 0.120721 0.0
-0.106508 0.127968 0.0
-0.103615 0.131752 0.0
-0.0807972 0.129609 0.0
-0.0201912 0.117128 0.0
0.106393 0.0924665 0.0
0.338022 0.049825 0.0
0.729154 0.0119565 0.0
-0.00398602 0.000154626 0.0
-0.00987943 0.00119911 0.0
-0.0140447 0.00313583 0.0
-0.0169114 0.00545768 0.0
-0.0189596 0.0081169 0.0
-0.0205946 0.0109973 0.0
-0.0221196 0.014086 0.0
-0.0237353 0.0173823 0.0
-0.0255685 0.0209108 0.0
-0.0276992 0.0247032 0.0
-0.0301849 0.0287969 0.0
-0.0330747 0.0332306 0.0
-0.0364193 0.0380427 0.0
-0.0402765 0.043269 0.0
-0.0447154 0.0489399 0.0
-0.049819 0.0550761 0.0
-0.0556855 0.061683 0.0
-0.0624237 0.0687413 0.0
-0.0701343 0.076194 0.0
-0.0788573 0.0839254 0.0
-0.0884458 0.091726 0.0
-0.0982962 0.0992443 0.0
-0.106832 0.105878 0.0
-0.110626 0.110697 0.0
-0.103092 0.112097 0.0
-0.0727944 0.10812 0.0
-0.00156447 0.0952074 0.0
0.136928 0.072826 0.0
0.375791 0.0372129 0.0
0.753948 0.00762358 0.0
-0.00460901 0.000140191 0.0
-0.0113456 0.00109004 0.0
-0.0160696 0.00285041 0.0
-0.0193031 0.0049581 0.0
-0.0216088 0.00736967 0.0
-0.0234511 0.00997928 0.0
-0.0251724 0.0127758 0.0
-0.0269976 0.0157587 0.0
-0.0290659 0.0189501 0.0
-0.0314642 0.0223777 0.0
-0.034252 0.0260735 0.0
-0.0374785 0.0300695 0.0
-0.0411916 0.0343958 0.0
-0.0454438 0.0390779 0.0
-0.0502951 0.0441339 0.0
-0.0558144 0.0495695 0.0
-0.0620777 0.0553725 0.0
-0.0691612 0.061504 0.0
-0.0771166 0.0678856 0.0
-0.0859099 0.074383 0.0
-0.0952807 0.0807749 0.0
-0.104448 0.0867164 0.0
-0.111561 0.0916482 0.0
-0.11278 0.0947474 0.0
-0.100983 0.09464 0.0
-0.0641898 0.0897834 0.0
0.0157131 0.0773438 0.0
0.163079 0.0576127 0.0
0.406208 0.0281129 0.0
0.772071 0.00495283 0.0
-0.00516768 0.000124339 0.0
-0.0126599 0.000964457 0.0
-0.0178824 0.00251892 0.0
-0.0214421 0.0043774 0.0
-0.0239763 0.00650205 0.0
-0.0260023 0.00879996 0.0
-0.0278983 0.0112622 0.0
-0.0299097 0.013889 0.0
-0.0321873 0.0167002 0.0
-0.0348226 0.0197201 0.0
-0.0378766 0.022976 0.0
-0.0413969 0.0264947 0.0
-0.0454277 0.0303001 0.0
-0.0500147 0.0344105 0.0
-0.0552072 0.0388361 0.0
-0.061058 0.0435738 0.0
-0.0676206 0.0486018 0.0
-0.0749379 0.0538718 0.0
-0.0830147 0.0592981 0.0
-0.0917496 0.0647426 0.0
-0.100782 0.0699902 0.0
-0.109181 0.0747187 0.0
-0.114866 0.078424 0.0
-0.11367 0.0803878 0.0
-0.0980676 0.0794486 0.0
-0.0557431 0.0743594 0.0
0.0311037 0.0629941 0.0
0.185204 0.0458506 0.0
0.430691 0.0215126 0.0
0.785549 0.00329977 0.0
-0.0056546 0.000107119 0.0
-0.0138024 0.000825337 0.0
-0.0194555 0.00215054 0.0
-0.0232962 0.00373202 0.0
-0.0260273 0.0055386 0.0
-0.0282123 0.00749228 0.0
-0.0302606 0.009587 0.0
-0.0324353 0.0118242 0.0
-0.0348965 0.0142218 0.0
-0.0377396 0.0168015 0.0
-0.0410263 0.0195871 0.0
-0.0448021 0.0226015 0.0
-0.049107 0.0258646 0.0
-0.0539795 0.029391 0.0
-0.059458 0.0331871 0.0
-0.0655798 0.0372466 0.0
-0.0723758 0.0415457 0.0
-0.0798579 0.0460356 0.0
-0.087988 0.0506332 0.0
-0.0966041 0.0552084 0.0
-0.105259 0.0595629 0.0
-0.112891 0.063405 0.0
-0.117231 0.0662872 0.0
-0.113847 0.0675831 0.0
-0.0949079 0.0663113 0.0
-0.0479117 0.0614469 0.0
0.0445914 0.0513882 0.0
0.203827 0.0366823 0.0
0.45044 0.0166608 0.0
0.795752 0.0022635 0.0
-0.00606311 8.85209e-05 0.0
-0.0147566 0.000674481 0.0
-0.020766 0.00175107 0.0
-0.0248388 0.00303269 0.0
-0.0277331 0.00449559 0.0
-0.0300516 0.00607833 0.0
-0.0322294 0.00777813 0.0
-0.0345444 0.00959819 0.0
-0.0371642 0.0115552 0.0
-0.0401876 0.0136686 0.0
-0.0436763 0.0159597 0.0
-0.0476741 0.0184492 0.0
-0.052217 0.0211553 0.0
-0.057337 0.0240917 0.0
-0.0630627 0.0272652 0.0
-0.0694168 0.0306715 0.0
-0.0764099 0.0342909 0.0
-0.0840261 0.0380817 0.0
-0.0921886 0.0419716 0.0
-0.100682 0.0458465 0.0
-0.108981 0.0495315 0.0
-0.115914 0.0527679 0.0
-0.119047 0.0551605 0.0
-0.113728 0.0561574 0.0
-0.0918957 0.0549189 0.0
-0.0409534 0.050581 0.0
0.0561734 0.0419191 0.0
0.219383 0.029467 0.0
0.466394 0.0130411 0.0
0.803598 0.00160242 0.0
-0.00638728 6.8563e-05 0.0
-0.0155084 0.000513304 0.0
-0.0217949 0.00132501 0.0
-0.0260477 0.00228778 0.0
-0.02907 0.00338578 0.0
-0.0314956 0.00457538 0.0
-0.0337798 0.00585742 0.0
-0.0362122 0.00723731 0.0
-0.0389664 0.00873064 0.0
-0.0421438 0.0103554 0.0
-0.0458066 0.0121313 0.0
-0.0499973 0.014078 0.0
-0.0547492 0.0162141 0.0
-0.0600891 0.0185551 0.0
-0.0660377 0.0211117 0.0
-0.0726055 0.0238863 0.0
-0.0797861 0.0268688 0.0
-0.0875392 0.030031 0.0
-0.0957538 0.0333184 0.0
-0.104166 0.0366389 0.0
-0.112183 0.0398452 0.0
-0.118528 0.042712 0.0
-0.120624 0.0448884 0.0
-0.113633 0.0458792 0.0
-0.0893058 0.0449486 0.0
-0.0350125 0.0413431 0.0
0.0659429 0.0341 0.0
0.232283 0.0237095 0.0
0.479291 0.0102885 0.0
0.809712 0.00116895 0.0
-0.00662184 4.73327e-05 0.0
-0.0160461 0.000343254 0.0
-0.0225262 0.000876632 0.0
-0.0269048 0.001505 0.0
-0.0300184 0.00222076 0.0
-0.0325237 0.002999 0.0
-0.0348907 0.00384427 0.0
-0.0374174 0.00476438 0.0
-0.0402819 0.00577406 0.0
-0.0435879 0.0068901 0.0
-0.0473984 0.0081313 0.0
-0.0517564 0.00951742 0.0
-0.0566937 0.0110688 0.0
-0.0622343 0.0128052 0.0
-0.0683937 0.0147443 0.0
-0.0751739 0.016899 0.0
-0.082555 0.019274 0.0
-0.0904764 0.0218603 0.0
-0.0987977 0.0246272 0.0
-0.107211 0.0275106 0.0
-0.115057 0.0303943 0.0
-0.120964 0.0330857 0.0
-0.122218 0.0352702 0.0
-0.113811 0.0364914 0.0
-0.0873408 0.0360823 0.0
-0.0301789 0.0333582 0.0
0.0739973 0.0275305 0.0
0.24287 0.0190277 0.0
0.489699 0.00814344 0.0
0.814518 0.000872972 0.0
-0.00676234 2.4971e-05 0.0
-0.0163597 0.000165919 0.0
-0.0229471 0.000410377 0.0
-0.0273953 0.000692226 0.0
-0.0305625 0.00101221 0.0
-0.0331193 0.00136462 0.0
-0.0355447 0.00175771 0.0
-0.0381418 0.00220158 0.0
-0.0410919 0.00271 0.0
-0.0445008 0.00329865 0.0
-0.0484336 0.00398562 0.0
-0.0529345 0.00479136 0.0
-0.0580367 0.00573916 0.0
-0.0637643 0.00685465 0.0
-0.0701311 0.00816474 0.0
-0.077135 0.00969642 0.0
-0.0847475 0.0114737 0.0
-0.0928927 0.0135124 0.0
-0.101405 0.015812 0.0
-0.109935 0.0183421 0.0
-0.117761 0.0210227 0.0
-0.123411 0.0236939 0.0
-0.124035 0.0260698 0.0
-0.114464 0.0277171 0.0
-0.0861592 0.0280053 0.0
-0.0265155 0.0262828 0.0
0.080425 0.0218678 0.0
0.251419 0.0151141 0.0
0.498041 0.00641436 0.0
0.818302 0.000657966 0.0
-0.00680507 1.67378e-06 0.0
-0.0164419 -1.69268e-05 0.0
-0.023048 -6.89812e-05 0.0
-0.0275081 -0.000142223 0.0
-0.03069 -0.000227641 0.0
-0.0332691 -0.000311614 0.0
-0.0357272 -0.000382561 0.0
-0.0383692 -0.000428405 0.0
-0.0413783 -0.00043676 0.0
-0.0448627 -0.00039331 0.0
-0.0488903 -0.000280815 0.0
-0.053509 -7.79391e-05 0.0
-0.0587562 0.000241703 0.0
-0.0646592 0.000710163 0.0
-0.071235 0.00136558 0.0
-0.0784828 0.00225163 0.0
-0.0863715 0.00341558 0.0
-0.0948162 0.00490371 0.0
-0.10363 0.00675257 0.0
-0.112425 0.00897314 0.0
-0.120413 0.0115292 0.0
-0.126018 0.0142959 0.0
-0.126246 0.0170105 0.0
-0.115762 0.0192486 0.0
-0.0858962 0.0203883 0.0
-0.0240793 0.0197796 0.0
0.0852878 0.0167952 0.0
0.258131 0.0117027 0.0
0.504616 0.00494894 0.0
0.821252 0.000486195 0.0
-0.00674763 -2.23508e-05 0.0
-0.0162878 -0.000203502 0.0
-0.0228225 -0.000556494 0.0
-0.0272362 -0.000989403 0.0
-0.030393 -0.00148537 0.0
-0.0329641 -0.00201185 0.0
-0.0354277 -0.00255459 0.0
-0.0380872 -0.00310019 0.0
-0.0411266 -0.00363835 0.0
-0.0446563 -0.00415684 0.0
-0.0487484 -0.00464001 0.0
-0.0534563 -0.00506635 0.0
-0.0588239 -0.005407 0.0
-0.0648871 -0.00562355 0.0
-0.0716714 -0.00566616 0.0
-0.0791837 -0.00547277 0.0
-0.0873983 -0.00496938 0.0
-0.0962289 -0.00407338 0.0
-0.105475 -0.00270242 0.0
-0.114714 -0.000793326 0.0
-0.123091 0.00166837 0.0
-0.128901 0.00459582 0.0
-0.128993 0.00775624 0.0
-0.117855 0.0107247 0.0
-0.0866853 0.0128598 0.0
-0.0229526 0.0134841 0.0
0.0885969 0.0119828 0.0
0.263122 0.00853004 0.0
0.509608 0.00360782 0.0
0.823471 0.000328439 0.0
-0.00658812 -4.68569e-05 0.0
-0.0158945 -0.000391699 0.0
-0.0222679 -0.00104641 0.0
-0.0265769 -0.00183913 0.0
-0.0296683 -0.00274588 0.0
-0.0321994 -0.00371609 0.0
-0.0346388 -0.00473375 0.0
-0.0372852 -0.00578512 0.0
-0.0403215 -0.00686298 0.0
-0.0438609 -0.00795843 0.0
-0.0479806 -0.00905881 0.0
-0.0527417 -0.0101442 0.0
-0.0581984 -0.0111844 0.0
-0.0643994 -0.0121361 0.0
-0.071385 -0.012939 0.0
-0.0791787 -0.0135123 0.0
-0.0877701 -0.0137535 0.0
-0.0970826 -0.0135387 0.0
-0.10691 -0.0127312 0.0
-0.116797 -0.0112024 0.0
-0.125805 -0.00887443 0.0
-0.132113 -0.00577518 0.0
-0.132388 -0.00210995 0.0
-0.12088 0.00168861 0.0
-0.088643 0.00494896 0.0
-0.023206 0.00695412 0.0
0.0903166 0.00705118 0.0
0.266405 0.00530274 0.0
0.513062 0.00224251 0.0
0.824979 0.00015675 0.0
-0.0063263 -7.15208e-05 0.0
-0.0152627 -0.000578868 0.0
-0.0213862 -0.00153185 0.0
-0.0255324 -0.00267966 0.0
-0.0285176 -0.00399207 0.0
-0.0309755 -0.00540178 0.0
-0.0333586 -0.00689212 0.0
-0.0359576 -0.00845021 0.0
-0.0389529 -0.0100733 0.0
-0.0424599 -0.0117573 0.0
-0.046562 -0.0134948 0.0
-0.0513299 -0.0152696 0.0
-0.056831 -0.0170535 0.0
-0.0631316 -0.0188014 0.0
-0.0702941 -0.0204454 0.0
-0.0783682 -0.0218892 0.0
-0.0873713 -0.0230023 0.0
-0.0972513 -0.0236175 0.0
-0.107812 -0.0235363 0.0
-0.118575 -0.0225506 0.0
-0.128522 -0.0204896 0.0
-0.135675 -0.0172962 0.0
-0.136468 -0.0131271 0.0
-0.124933 -0.00842736 0.0
-0.0919628 -0.00391194 0.0
-0.0250798 -0.000401276 0.0
0.0903109 0.00144506 0.0
0.267885 0.00160753 0.0
0.514906 0.000657192 0.0
0.825731 -6.20002e-05 0.0
-0.0059633 -9.59699e-05 0.0
-0.0143966 -0.000761965 0.0
-0.0201836 -0.00200489 0.0
-0.0241104 -0.00349741 0.0
-0.0269486 -0.00520406 0.0
-0.0292984 -0.00704245 0.0
-0.0315906 -0.00899647 0.0
-0.0341037 -0.0110555 0.0
-0.0370142 -0.0132228 0.0
-0.040439 -0.0155013 0.0
-0.0444678 -0.0178911 0.0
-0.0491822 -0.0203836 0.0
-0.0546655 -0.0229567 0.0
-0.061006 -0.0255687 0.0
-0.0682953 -0.0281506 0.0
-0.0766195 -0.0305963 0.0
-0.0860393 -0.0327527 0.0
-0.0965461 -0.0344116 0.0
-0.107976 -0.0353095 0.0
-0.119845 -0.0351458 0.0
-0.131065 -0.0336332 0.0
-0.139487 -0.0305911 0.0
-0.141267 -0.0260705 0.0
-0.13011 -0.0204784 0.0
-0.0966768 -0.0145819 0.0
-0.0285594 -0.00934337 0.0
0.0883262 -0.00546456 0.0
0.2672 -0.00304661 0.0
0.514762 -0.00139041 0.0
0.825499 -0.000369181 0.0
-0.00550202 -0.000119809 0.0
-0.0133045 -0.000937454 0.0
-0.0186722 -0.00245616 0.0
-0.0223251 -0.0042762 0.0
-0.0249757 -0.00635803 0.0
-0.0271819 -0.00860615 0.0
-0.0293459 -0.0110063 0.0
-0.0317309 -0.0135514 0.0
-0.0345069 -0.0162525 0.0
-0.0377911 -0.0191216 0.0
-0.0416791 -0.0221697 0.0
-0.0462635 -0.0253996 0.0
-0.0516446 -0.0288014 0.0
-0.057936 -0.0323443 0.0
-0.0652644 -0.0359674 0.0
-0.0737633 -0.039566 0.0
-0.0835526 -0.0429761 0.0
-0.0946909 -0.0459585 0.0
-0.107075 -0.0481893 0.0
-0.120251 -0.0492701 0.0
-0.133081 -0.0487758 0.0
-0.143249 -0.0463579 0.0
-0.146599 -0.0418939 0.0
-0.136438 -0.0356602 0.0
-0.1031 -0.0283676 0.0
-0.034144 -0.021064 0.0
0.0840072 -0.0145877 0.0
0.263887 -0.00929772 0.0
0.51207 -0.00422221 0.0
0.823966 -0.000832699 0.0
-0.00494743 -0.000142577 0.0
-0.0119998 -0.0011009 0.0
-0.0168712 -0.00287382 0.0
-0.0201988 -0.00499558 0.0
-0.0226226 -0.0074238 0.0
-0.0246489 -0.0100522 0.0
-0.026646 -0.0128694 0.0
-0.0288574 -0.0158733 0.0
-0.0314441 -0.0190839 0.0
-0.0345216 -0.0225246 0.0
-0.0381895 -0.0262202 0.0
-0.04255 -0.0301898 0.0
-0.0477198 -0.0344423 0.0
-0.0538385 -0.0389676 0.0
-0.0610714 -0.0437254 0.0
-0.0696078 -0.0486293 0.0
-0.0796427 -0.0535243 0.0
-0.0913279 -0.0581622 0.0
-0.104659 -0.0621783 0.0
-0.119255 -0.0650865 0.0
-0.13398 -0.0663137 0.0
-0.14638 -0.0653006 0.0
-0.151991 -0.0616624 0.0
-0.143666 -0.0554028 0.0
-0.111303 -0.0469876 0.0
-0.042285 -0.0374 0.0
0.0765476 -0.0275165 0.0
0.257019 -0.0182693 0.0
0.505915 -0.00840211 0.0
0.820555 -0.00157778 0.0
-0.00430695 -0.000163648 0.0
-0.0105025 -0.00124615 0.0
-0.0148082 -0.00324148 0.0
-0.0177638 -0.00562749 0.0
-0.0199236 -0.00836024 0.0
-0.0217347 -0.0113254 0.0
-0.0235254 -0.0145149 0.0
-0.0255162 -0.0179326 0.0
-0.0278556 -0.0216082 0.0
-0.0306546 -0.0255781 0.0
-0.0340135 -0.0298834 0.0
-0.0380406 -0.0345642 0.0
-0.0428657 -0.0396546 0.0
-0.0486512 -0.0451757 0.0
-0.0556001 -0.0511238 0.0
-0.0639605 -0.0574525 0.0
-0.074014 -0.0640463 0.0
-0.0860294 -0.0706851 0.0
-0.100142 -0.0770053 0.0
-0.116107 -0.0824709 0.0
-0.132864 -0.0863793 0.0
-0.147908 -0.087937 0.0
-0.156527 -0.086403 0.0
-0.151147 -0.0813166 0.0
-0.121154 -0.0725924 0.0
-0.0535327 -0.0608212 0.0
0.0648123 -0.0465808 0.0
0.245076 -0.031787 0.0
0.494669 -0.0149268 0.0
0.814227 -0.00284327 0.0
-0.00359239 -0.000181784 0.0
-0.00884276 -0.00136335 0.0
-0.0125248 -0.00353417 0.0
-0.0150679 -0.00613013 0.0
-0.0169303 -0.00910691 0.0
-0.0184932 -0.012345 0.0
-0.0200402 -0.0158397 0.0
-0.0217646 -0.0196006 0.0
-0.0237995 -0.0236671 0.0
-0.0262472 -0.0280888 0.0
-0.0292044 -0.0329245 0.0
-0.0327796 -0.0382378 0.0
-0.037109 -0.0440939 0.0
-0.0423695 -0.0505543 0.0
-0.0487942 -0.0576678 0.0
-0.0566838 -0.0654538 0.0
-0.0664068 -0.0738741 0.0
-0.0783631 -0.0827919 0.0
-0.0928649 -0.0919149 0.0
-0.109871 -0.100736 0.0
-0.128507 -0.108494 0.0
-0.146358 -0.114187 0.0
-0.158637 -0.116652 0.0
-0.157497 -0.114753 0.0
-0.131861 -0.107447 0.0
-0.068131 -0.0943727 0.0
0.0474483 -0.0750331 0.0
0.225918 -0.0525933 0.0
0.475847 -0.0254775 0.0
0.803243 -0.00509763 0.0
-0.00282082 -0.00019466 0.0
-0.00706354 -0.00143656 0.0
-0.0100784 -0.00371303 0.0
-0.012177 -0.00643984 0.0
-0.0137135 -0.00957296 0.0
-0.0149995 -0.0129907 0.0
-0.0162699 -0.0166905 0.0
-0.0176877 -0.0206867 0.0
-0.0193666 -0.0250267 0.0
-0.0213961 -0.0297718 0.0
-0.0238633 -0.0349975 0.0
-0.0268698 -0.0407906 0.0
-0.0305473 -0.047249 0.0
-0.0350745 -0.05448 0.0
-0.0406968 -0.0625965 0.0
-0.0477485 -0.0717062 0.0
-0.0566672 -0.0818892 0.0
-0.0679755 -0.0931578 0.0
-0.0821792 -0.10539 0.0
-0.0995037 -0.118237 0.0
-0.11939 -0.13102 0.0
-0.139733 -0.142646 0.0
-0.155977 -0.151558 0.0
-0.160366 -0.155782 0.0
-0.141676 -0.15292 0.0
-0.0857951 -0.140887 0.0
0.0228631 -0.116908 0.0
0.196263 -0.0845965 0.0
0.445239 -0.0429676 0.0
0.784232 -0.00934147 0.0
-0.00202425 -0.000196951 0.0
-0.00523642 -0.00143849 0.0
-0.00756227 -0.00371737 0.0
-0.00919651 -0.00646021 0.0
-0.0103878 -0.00962274 0.0
-0.011377 -0.0130839 0.0
-0.0123485 -0.016841 0.0
-0.0134323 -0.0209105 0.0
-0.0147191 -0.0253443 0.0
-0.0162815 -0.0302119 0.0
-0.0181914 -0.035601 0.0
-0.0205349 -0.0416169 0.0
-0.0234274 -0.0483854 0.0
-0.0270311 -0.0560563 0.0
-0.0315787 -0.0648072 0.0
-0.0374032 -0.0748442 0.0
-0.0449686 -0.0863939 0.0
-0.0548766 -0.0996783 0.0
-0.0677989 -0.114855 0.0
-0.0842501 -0.131907 0.0
-0.104104 -0.150473 0.0
-0.125822 -0.169619 0.0
-0.145509 -0.1876 0.0
-0.15608 -0.201646 0.0
-0.146806 -0.207806 0.0
-0.103497 -0.201336 0.0
-0.0087349 -0.176825 0.0
0.153653 -0.133227 0.0
0.398359 -0.0724124 0.0
0.752205 -0.0176658 0.0
-0.00124512 -0.000181014 0.0
-0.00345189 -0.0013328 0.0
-0.00509085 -0.00346764 0.0
-0.006253 -0.00606422 0.0
-0.00708928 -0.00907576 0.0
-0.00777276 -0.0123845 0.0
-0.00843675 -0.0159844 0.0
-0.00917616 -0.0198906 0.0