# vtk DataFile Version 3.0
Malha 2D com triângulos e temperatura
ASCII
DATASET UNSTRUCTURED_GRID

POINTS 961 double
0 0 0
1 0 0
1 1 0
0 1 0
0.0333333 0 0
0.0666667 0 0
0.1 0 0
0.133333 0 0
0.166667 0 0
0.2 0 0
0.233333 0 0
0.266667 0 0
0.3 0 0
0.333333 0 0
0.366667 0 0
0.4 0 0
0.433333 0 0
0.466667 0 0
0.5 0 0
0.533333 0 0
0.566667 0 0
0.6 0 0
0.633333 0 0
0.666667 0 0
0.7 0 0
0.733333 0 0
0.766667 0 0
0.8 0 0
0.833333 0 0
0.866667 0 0
0.9 0 0
0.933333 0 0
0.966667 0 0
1 0.0333333 0
1 0.0666667 0
1 0.1 0
1 0.133333 0
1 0.166667 0
1 0.2 0
1 0.233333 0
1 0.266667 0
1 0.3 0
1 0.333333 0
1 0.366667 0
1 0.4 0
1 0.433333 0
1 0.466667 0
1 0.5 0
1 0.533333 0
1 0.566667 0
1 0.6 0
1 0.633333 0
1 0.666667 0
1 0.7 0
1 0.733333 0
1 0.766667 0
1 0.8 0
1 0.833333 0
1 0.866667 0
1 0.9 0
1 0.933333 0
1 0.966667 0
0.966667 1 0
0.933333 1 0
0.9 1 0
0.866667 1 0
0.833333 1 0
0.8 1 0
0.766667 1 0
0.733333 1 0
0.7 1 0
0.666667 1 0
0.633333 1 0
0.6 1 0
0.566667 1 0
0.533333 1 0
0.5 1 0
0.466667 1 0
0.433333 1 0
0.4 1 0
0.366667 1 0
0.333333 1 0
0.3 1 0
0.266667 1 0
0.233333 1 0
0.2 1 0
0.166667 1 0
0.133333 1 0
0.1 1 0
0.0666667 1 0
0.0333333 1 0
0 0.966667 0
0 0.933333 0
0 0.9 0
0 0.866667 0
0 0.833333 0
0 0.8 0
0 0.766667 0
0 0.733333 0
0 0.7 0
0 0.666667 0
0 0.633333 0
0 0.6 0
0 0.566667 0
0 0.533333 0
0 0.5 0
0 0.466667 0
0 0.433333 0
0 0.4 0
0 0.366667 0
0 0.333333 0
0 0.3 0
0 0.266667 0
0 0.233333 0
0 0.2 0
0 0.166667 0
0 0.133333 0
0 0.1 0
0 0.0666667 0
0 0.0333333 0
0.0333333 0.0333333 0
0.0333333 0.0666667 0
0.0333333 0.1 0
0.0333333 0.133333 0
0.0333333 0.166667 0
0.0333333 0.2 0
0.0333333 0.233333 0
0.0333333 0.266667 0
0.0333333 0.3 0
0.0333333 0.333333 0
0.0333333 0.366667 0
0.0333333 0.4 0
0.0333333 0.433333 0
0.0333333 0.466667 0
0.0333333 0.5 0
0.0333333 0.533333 0
0.0333333 0.566667 0
0.0333333 0.6 0
0.0333333 0.633333 0
0.0333333 0.666667 0
0.0333333 0.7 0
0.0333333 0.733333 0
0.0333333 0.766667 0
0.0333333 0.8 0
0.0333333 0.833333 0
0.0333333 0.866667 0
0.0333333 0.9 0
0.0333333 0.933333 0
0.0333333 0.966667 0
0.0666667 0.0333333 0
0.0666667 0.0666667 0
0.0666667 0.1 0
0.0666667 0.133333 0
0.0666667 0.166667 0
0.0666667 0.2 0
0.0666667 0.233333 0
0.0666667 0.266667 0
0.0666667 0.3 0
0.0666667 0.333333 0
0.0666667 0.366667 0
0.0666667 0.4 0
0.0666667 0.433333 0
0.0666667 0.466667 0
0.0666667 0.5 0
0.0666667 0.533333 0
0.0666667 0.566667 0
0.0666667 0.6 0
0.0666667 0.633333 0
0.0666667 0.666667 0
0.0666667 0.7 0
0.0666667 0.733333 0
0.0666667 0.766667 0
0.0666667 0.8 0
0.0666667 0.833333 0
0.0666667 0.866667 0
0.0666667 0.9 0
0.0666667 0.933333 0
0.0666667 0.966667 0
0.1 0.0333333 0
0.1 0.0666667 0
0.1 0.1 0
0.1 0.133333 0
0.1 0.166667 0
0.1 0.2 0
0.1 0.233333 0
0.1 0.266667 0
0.1 0.3 0
0.1 0.333333 0
0.1 0.366667 0
0.1 0.4 0
0.1 0.433333 0
0.1 0.466667 0
0.1 0.5 0
0.1 0.533333 0
0.1 0.566667 0
0.1 0.6 0
0.1 0.633333 0
0.1 0.666667 0
0.1 0.7 0
0.1 0.733333 0
0.1 0.766667 0
0.1 0.8 0
0.1 0.833333 0
0.1 0.866667 0
0.1 0.9 0
0.1 0.933333 0
0.1 0.966667 0
0.133333 0.0333333 0
0.133333 0.0666667 0
0.133333 0.1 0
0.133333 0.133333 0
0.133333 0.166667 0
0.133333 0.2 0
0.133333 0.233333 0
0.133333 0.266667 0
0.133333 0.3 0
0.133333 0.333333 0
0.133333 0.366667 0
0.133333 0.4 0
0.133333 0.433333 0
0.133333 0.466667 0
0.133333 0.5 0
0.133333 0.533333 0
0.133333 0.566667 0
0.133333 0.6 0
0.133333 0.633333 0
0.133333 0.666667 0
0.133333 0.7 0
0.133333 0.733333 0
0.133333 0.766667 0
0.133333 0.8 0
0.133333 0.833333 0
0.133333 0.866667 0
0.133333 0.9 0
0.133333 0.933333 0
0.133333 0.966667 0
0.166667 0.0333333 0
0.166667 0.0666667 0
0.166667 0.1 0
0.166667 0.133333 0
0.166667 0.166667 0
0.166667 0.2 0
0.166667 0.233333 0
0.166667 0.266667 0
0.166667 0.3 0
0.166667 0.333333 0
0.166667 0.366667 0
0.166667 0.4 0
0.166667 0.433333 0
0.166667 0.466667 0
0.166667 0.5 0
0.166667 0.533333 0
0.166667 0.566667 0
0.166667 0.6 0
0.166667 0.633333 0
0.166667 0.666667 0
0.166667 0.7 0
0.166667 0.733333 0
0.166667 0.766667 0
0.166667 0.8 0
0.166667 0.833333 0
0.166667 0.866667 0
0.166667 0.9 0
0.166667 0.933333 0
0.166667 0.966667 0
0.2 0.0333333 0
0.2 0.0666667 0
0.2 0.1 0
0.2 0.133333 0
0.2 0.166667 0
0.2 0.2 0
0.2 0.233333 0
0.2 0.266667 0
0.2 0.3 0
0.2 0.333333 0
0.2 0.366667 0
0.2 0.4 0
0.2 0.433333 0
0.2 0.466667 0
0.2 0.5 0
0.2 0.533333 0
0.2 0.566667 0
0.2 0.6 0
0.2 0.633333 0
0.2 0.666667 0
0.2 0.7 0
0.2 0.733333 0
0.2 0.766667 0
0.2 0.8 0
0.2 0.833333 0
0.2 0.866667 0
0.2 0.9 0
0.2 0.933333 0
0.2 0.966667 0
0.233333 0.0333333 0
0.233333 0.0666667 0
0.233333 0.1 0
0.233333 0.133333 0
0.233333 0.166667 0
0.233333 0.2 0
0.233333 0.233333 0
0.233333 0.266667 0
0.233333 0.3 0
0.233333 0.333333 0
0.233333 0.366667 0
0.233333 0.4 0
0.233333 0.433333 0
0.233333 0.466667 0
0.233333 0.5 0
0.233333 0.533333 0
0.233333 0.566667 0
0.233333 0.6 0
0.233333 0.633333 0
0.233333 0.666667 0
0.233333 0.7 0
0.233333 0.733333 0
0.233333 0.766667 0
0.233333 0.8 0
0.233333 0.833333 0
0.233333 0.866667 0
0.233333 0.9 0
0.233333 0.933333 0
0.233333 0.966667 0
0.266667 0.0333333 0
0.266667 0.0666667 0
0.266667 0.1 0
0.266667 0.133333 0
0.266667 0.166667 0
0.266667 0.2 0
0.266667 0.233333 0
0.266667 0.266667 0
0.266667 0.3 0
0.266667 0.333333 0
0.266667 0.366667 0
0.266667 0.4 0
0.266667 0.433333 0
0.266667 0.466667 0
0.266667 0.5 0
0.266667 0.533333 0
0.266667 0.566667 0
0.266667 0.6 0
0.266667 0.633333 0
0.266667 0.666667 0
0.266667 0.7 0
0.266667 0.733333 0
0.266667 0.766667 0
0.266667 0.8 0
0.266667 0.833333 0
0.266667 0.866667 0
0.266667 0.9 0
0.266667 0.933333 0
0.266667 0.966667 0
0.3 0.0333333 0
0.3 0.0666667 0
0.3 0.1 0
0.3 0.133333 0
0.3 0.166667 0
0.3 0.2 0
0.3 0.233333 0
0.3 0.266667 0
0.3 0.3 0
0.3 0.333333 0
0.3 0.366667 0
0.3 0.4 0
0.3 0.433333 0
0.3 0.466667 0
0.3 0.5 0
0.3 0.533333 0
0.3 0.566667 0
0.3 0.6 0
0.3 0.633333 0
0.3 0.666667 0
0.3 0.7 0
0.3 0.733333 0
0.3 0.766667 0
0.3 0.8 0
0.3 0.833333 0
0.3 0.866667 0
0.3 0.9 0
0.3 0.933333 0
0.3 0.966667 0
0.333333 0.0333333 0
0.333333 0.0666667 0
0.333333 0.1 0
0.333333 0.133333 0
0.333333 0.166667 0
0.333333 0.2 0
0.333333 0.233333 0
0.333333 0.266667 0
0.333333 0.3 0
0.333333 0.333333 0
0.333333 0.366667 0
0.333333 0.4 0
0.333333 0.433333 0
0.333333 0.466667 0
0.333333 0.5 0
0.333333 0.533333 0
0.333333 0.566667 0
0.333333 0.6 0
0.333333 0.633333 0
0.333333 0.666667 0
0.333333 0.7 0
0.333333 0.733333 0
0.333333 0.766667 0
0.333333 0.8 0
0.333333 0.833333 0
0.333333 0.866667 0
0.333333 0.9 0
0.333333 0.933333 0
0.333333 0.966667 0
0.366667 0.0333333 0
0.366667 0.0666667 0
0.366667 0.1 0
0.366667 0.133333 0
0.366667 0.166667 0
0.366667 0.2 0
0.366667 0.233333 0
0.366667 0.266667 0
0.366667 0.3 0
0.366667 0.333333 0
0.366667 0.366667 0
0.366667 0.4 0
0.366667 0.433333 0
0.366667 0.466667 0
0.366667 0.5 0
0.366667 0.533333 0
0.366667 0.566667 0
0.366667 0.6 0
0.366667 0.633333 0
0.366667 0.666667 0
0.366667 0.7 0
0.366667 0.733333 0
0.366667 0.766667 0
0.366667 0.8 0
0.366667 0.833333 0
0.366667 0.866667 0
0.366667 0.9 0
0.366667 0.933333 0
0.366667 0.966667 0
0.4 0.0333333 0
0.4 0.0666667 0
0.4 0.1 0
0.4 0.133333 0
0.4 0.166667 0
0.4 0.2 0
0.4 0.233333 0
0.4 0.266667 0
0.4 0.3 0
0.4 0.333333 0
0.4 0.366667 0
0.4 0.4 0
0.4 0.433333 0
0.4 0.466667 0
0.4 0.5 0
0.4 0.533333 0
0.4 0.566667 0
0.4 0.6 0
0.4 0.633333 0
0.4 0.666667 0
0.4 0.7 0
0.4 0.733333 0
0.4 0.766667 0
0.4 0.8 0
0.4 0.833333 0
0.4 0.866667 0
0.4 0.9 0
0.4 0.933333 0
0.4 0.966667 0
0.433333 0.0333333 0
0.433333 0.0666667 0
0.433333 0.1 0
0.433333 0.133333 0
0.433333 0.166667 0
0.433333 0.2 0
0.433333 0.233333 0
0.433333 0.266667 0
0.433333 0.3 0
0.433333 0.333333 0
0.433333 0.366667 0
0.433333 0.4 0
0.433333 0.433333 0
0.433333 0.466667 0
0.433333 0.5 0
0.433333 0.533333 0
0.433333 0.566667 0
0.433333 0.6 0
0.433333 0.633333 0
0.433333 0.666667 0
0.433333 0.7 0
0.433333 0.733333 0
0.433333 0.766667 0
0.433333 0.8 0
0.433333 0.833333 0
0.433333 0.866667 0
0.433333 0.9 0
0.433333 0.933333 0
0.433333 0.966667 0
0.466667 0.0333333 0
0.466667 0.0666667 0
0.466667 0.1 0
0.466667 0.133333 0
0.466667 0.166667 0
0.466667 0.2 0
0.466667 0.233333 0
0.466667 0.266667 0
0.466667 0.3 0
0.466667 0.333333 0
0.466667 0.366667 0
0.466667 0.4 0
0.466667 0.433333 0
0.466667 0.466667 0
0.466667 0.5 0
0.466667 0.533333 0
0.466667 0.566667 0
0.466667 0.6 0
0.466667 0.633333 0
0.466667 0.666667 0
0.466667 0.7 0
0.466667 0.733333 0
0.466667 0.766667 0
0.466667 0.8 0
0.466667 0.833333 0
0.466667 0.866667 0
0.466667 0.9 0
0.466667 0.933333 0
0.466667 0.966667 0
0.5 0.0333333 0
0.5 0.0666667 0
0.5 0.1 0
0.5 0.133333 0
0.5 0.166667 0
0.5 0.2 0
0.5 0.233333 0
0.5 0.266667 0
0.5 0.3 0
0.5 0.333333 0
0.5 0.366667 0
0.5 0.4 0
0.5 0.433333 0
0.5 0.466667 0
0.5 0.5 0
0.5 0.533333 0
0.5 0.566667 0
0.5 0.6 0
0.5 0.633333 0
0.5 0.666667 0
0.5 0.7 0
0.5 0.733333 0
0.5 0.766667 0
0.5 0.8 0
0.5 0.833333 0
0.5 0.866667 0
0.5 0.9 0
0.5 0.933333 0
0.5 0.966667 0
0.533333 0.0333333 0
0.533333 0.0666667 0
0.533333 0.1 0
0.533333 0.133333 0
0.533333 0.166667 0
0.533333 0.2 0
0.533333 0.233333 0
0.533333 0.266667 0
0.533333 0.3 0
0.533333 0.333333 0
0.533333 0.366667 0
0.533333 0.4 0
0.533333 0.433333 0
0.533333 0.466667 0
0.533333 0.5 0
0.533333 0.533333 0
0.533333 0.566667 0
0.533333 0.6 0
0.533333 0.633333 0
0.533333 0.666667 0
0.533333 0.7 0
0.533333 0.733333 0
0.533333 0.766667 0
0.533333 0.8 0
0.533333 0.833333 0
0.533333 0.866667 0
0.533333 0.9 0
0.533333 0.933333 0
0.533333 0.966667 0
0.566667 0.0333333 0
0.566667 0.0666667 0
0.566667 0.1 0
0.566667 0.133333 0
0.566667 0.166667 0
0.566667 0.2 0
0.566667 0.233333 0
0.566667 0.266667 0
0.566667 0.3 0
0.566667 0.333333 0
0.566667 0.366667 0
0.566667 0.4 0
0.566667 0.433333 0
0.566667 0.466667 0
0.566667 0.5 0
0.566667 0.533333 0
0.566667 0.566667 0
0.566667 0.6 0
0.566667 0.633333 0
0.566667 0.666667 0
0.566667 0.7 0
0.566667 0.733333 0
0.566667 0.766667 0
0.566667 0.8 0
0.566667 0.833333 0
0.566667 0.866667 0
0.566667 0.9 0
0.566667 0.933333 0
0.566667 0.966667 0
0.6 0.0333333 0
0.6 0.0666667 0
0.6 0.1 0
0.6 0.133333 0
[...]
CELL_DATA 900
VECTORS velocity double
6.56941e-05 -6.46061e-05 0.0
-1.95574e-05 1.69939e-05 0.0
-9.54027e-05 0.000408273 0.0
-0.000150959 0.00100497 0.0
-0.000182845 0.00176529 0.0
-0.000202544 0.00263008 0.0
-0.000216757 0.00357879 0.0
-0.000230622 0.00460165 0.0
-0.000246789 0.00570371 0.0
-0.000266809 0.00689687 0.0
-0.000291586 0.00819883 0.0
-0.000321906 0.00963148 0.0
-0.000358717 0.0112212 0.0
-0.000403408 0.0130001 0.0
-0.00045814 0.0150079 0.0
-0.000526397 0.0172958 0.0
-0.000613944 0.0199319 0.0
-0.000730598 0.0230096 0.0
-0.000893445 0.0266612 0.0
-0.001133 0.0310781 0.0
-0.00150517 0.0365424 0.0
-0.0021161 0.043477 0.0
-0.00317207 0.0525322 0.0
-0.00508353 0.0647182 0.0
-0.00862346 0.0817346 0.0
-0.0151413 0.106029 0.0
-0.0257761 0.142591 0.0
-0.0380836 0.189964 0.0
-0.0133551 0.262856 0.0
0.216898 0.174065 0.0
-1.88907e-05 2.3406e-05 0.0
-0.000498829 0.000500399 0.0
-0.000928122 0.00159243 0.0
-0.00126679 0.00308564 0.0
-0.00150681 0.00492881 0.0
-0.00168614 0.00702258 0.0
-0.00183611 0.00932992 0.0
-0.00198303 0.0118327 0.0
-0.00214465 0.0145412 0.0
-0.00233338 0.0174811 0.0
-0.00255846 0.020692 0.0
-0.00282836 0.0242241 0.0
-0.00315274 0.0281385 0.0
-0.00354427 0.0325099 0.0
-0.00402083 0.0374301 0.0
-0.00460841 0.0430148 0.0
-0.00534542 0.0494131 0.0
-0.00628877 0.0568204 0.0
-0.00752263 0.0654947 0.0
-0.00917064 0.0757757 0.0
-0.0114127 0.0881007 0.0
-0.0145108 0.103008 0.0
-0.0188452 0.121099 0.0
-0.0249766 0.142915 0.0
-0.0336301 0.168645 0.0
-0.0455461 0.197214 0.0
-0.0591332 0.225096 0.0
-0.0652372 0.240364 0.0
-0.00272052 0.218759 0.0
0.30541 0.11654 0.0
-0.00041238 9.8386e-05 0.0
-0.00158711 0.000908729 0.0
-0.00260587 0.00255501 0.0
-0.00341548 0.00469988 0.0
-0.00402186 0.00729382 0.0
-0.00449631 0.0102175 0.0
-0.00490678 0.0134311 0.0
-0.00531154 0.0169153 0.0
-0.00575313 0.0206853 0.0
-0.00626259 0.0247751 0.0
-0.00686395 0.0292361 0.0
-0.00757929 0.0341325 0.0
-0.00843301 0.0395421 0.0
-0.00945601 0.0455575 0.0
-0.0106903 0.0522903 0.0
-0.0121944 0.0598758 0.0
-0.0140505 0.068481 0.0
-0.0163732 0.0783123 0.0
-0.0193176 0.0896224 0.0
-0.0230854 0.102711 0.0
-0.0279207 0.117908 0.0
-0.0340873 0.13552 0.0
-0.0417979 0.155696 0.0
-0.0510694 0.178182 0.0
-0.0612763 0.201769 0.0
-0.0701724 0.223522 0.0
-0.0700426 0.236525 0.0
-0.0394345 0.229914 0.0
0.0919301 0.173506 0.0
0.476618 0.077118 0.0
-0.000992668 0.000149045 0.0
-0.0030275 0.00119394 0.0
-0.00472085 0.00321958 0.0
-0.00604963 0.00578486 0.0
-0.00706265 0.00884326 0.0
-0.00787212 0.0122647 0.0
-0.00858565 0.0160124 0.0
-0.00929438 0.0200692 0.0
-0.0100664 0.0244536 0.0
-0.0109519 0.0292038 0.0
-0.0119903 0.034375 0.0
-0.013217 0.0400354 0.0
-0.0146702 0.0462657 0.0
-0.0163968 0.0531594 0.0
-0.0184581 0.0608248 0.0
-0.0209366 0.069388 0.0
-0.0239426 0.0789945 0.0
-0.0276208 0.0898107 0.0
-0.0321511 0.102018 0.0
-0.0377375 0.115794 0.0
-0.0445688 0.13127 0.0
-0.0527325 0.148439 0.0
-0.0620363 0.166973 0.0
-0.0716887 0.185953 0.0
-0.0796034 0.203274 0.0
-0.0810192 0.215214 0.0
-0.0645489 0.214435 0.0
-0.00317559 0.192489 0.0
0.167371 0.128575 0.0
0.575471 0.0491617 0.0
-0.00169849 0.00017084 0.0
-0.00472151 0.0013402 0.0
-0.00715503 0.00357261 0.0
-0.00903733 0.00635758 0.0
-0.0104816 0.00964791 0.0
-0.011649 0.0133065 0.0
-0.0126905 0.0172999 0.0
-0.0137307 0.0216128 0.0
-0.0148633 0.0262661 0.0
-0.0161572 0.0312983 0.0
-0.0176659 0.0367638 0.0
-0.019437 0.0427281 0.0
-0.0215199 0.049266 0.0
-0.0239732 0.0564613 0.0
-0.0268707 0.0644064 0.0
-0.0303082 0.0732018 0.0
-0.0344077 0.0829544 0.0
-0.0393186 0.0937715 0.0
-0.0452078 0.105747 0.0
-0.0522264 0.118933 0.0
-0.0604329 0.133283 0.0
-0.0696413 0.148553 0.0
-0.0791452 0.164116 0.0
-0.087256 0.178729 0.0
-0.0904429 0.190001 0.0
-0.0817851 0.194258 0.0
-0.0472449 0.184948 0.0
0.0419468 0.156125 0.0
0.239968 0.0948032 0.0
0.647125 0.0307702 0.0
-0.00244777 0.000175674 0.0
-0.00651375 0.00138475 0.0
-0.00970658 0.00368187 0.0
-0.0121428 0.00652511 0.0
-0.0140127 0.00986555 0.0
-0.0155328 0.0135632 0.0
-0.0168991 0.0175873 0.0
-0.0182693 0.021924 0.0
-0.019761 0.0265946 0.0
-0.0214599 0.0316362 0.0
-0.0234314 0.0370995 0.0
-0.0257317 0.0430435 0.0
-0.0284176 0.0495334 0.0
-0.0315533 0.0566385 0.0
-0.0352171 0.0644305 0.0
-0.0395061 0.0729804 0.0
-0.0445376 0.0823537 0.0
-0.0504437 0.0926003 0.0
-0.0573493 0.103736 0.0
-0.0653189 0.115713 0.0
-0.0742438 0.128354 0.0
-0.0836385 0.14127 0.0
-0.0922892 0.153682 0.0
-0.0977002 0.16425 0.0
-0.0951669 0.170612 0.0
-0.0762567 0.169548 0.0
-0.0255599 0.155496 0.0
0.0847419 0.125286 0.0
0.30043 0.0706683 0.0
0.697596 0.0194444 0.0
-0.00319807 0.000170193 0.0
-0.00831224 0.00135763 0.0
-0.0122565 0.00361223 0.0
-0.0152326 0.00639166 0.0
-0.017512 0.00964621 0.0
-0.0193698 0.0132375 0.0
-0.0210475 0.0171371 0.0
-0.0227349 0.0213321 0.0
-0.0245716 0.0258434 0.0
-0.026658 0.0307054 0.0
-0.0290687 0.0359639 0.0
-0.0318659 0.0416702 0.0
-0.0351092 0.0478787 0.0
-0.0388638 0.0546439 0.0
-0.0432054 0.062017 0.0
-0.0482231 0.0700422 0.0
-0.054018 0.0787487 0.0
-0.0606904 0.0881401 0.0
-0.0683076 0.0981744 0.0
-0.0768314 0.108732 0.0
-0.0859768 0.119563 0.0
-0.0949646 0.130202 0.0
-0.102116 0.139825 0.0
-0.104242 0.147129 0.0
-0.0957105 0.149934 0.0
-0.0670398 0.145586 0.0
-0.00227465 0.129414 0.0
0.124304 0.100383 0.0
0.350982 0.0531785 0.0
0.733971 0.0124111 0.0
-0.00391665 0.00015948 0.0
-0.0100416 0.001284 0.0
-0.0147042 0.00341935 0.0
-0.0181911 0.00604579 0.0
-0.020854 0.00911488 0.0
-0.0230263 0.0124945 0.0
-0.0249939 0.0161585 0.0
-0.026977 0.0200957 0.0
-0.0291354 0.0243256 0.0
-0.0315817 0.0288798 0.0
-0.0343976 0.033799 0.0
-0.0376483 0.0391273 0.0
-0.0413932 0.0449091 0.0
-0.0456939 0.0511859 0.0
-0.0506182 0.057992 0.0
-0.0562411 0.0653498 0.0
-0.0626396 0.0732614 0.0
-0.0698745 0.0816971 0.0
-0.0779481 0.0905763 0.0
-0.0867164 0.099738 0.0
-0.0957238 0.108891 0.0
-0.103922 0.117549 0.0
-0.109228 0.124898 0.0
-0.107879 0.129731 0.0
-0.0935465 0.130101 0.0
-0.0560563 0.123873 0.0
0.0204697 0.107262 0.0
0.159254 0.0806455 0.0
0.392555 0.0404802 0.0
0.760621 0.00804868 0.0
-0.00458496 0.00014582 0.0
-0.0116534 0.00117921 0.0
-0.0169827 0.00314066 0.0
-0.0209409 0.00554918 0.0
-0.0239552 0.00835969 0.0
-0.0264147 0.0114505 0.0
-0.0286473 0.0147987 0.0
-0.0309014 0.0183949 0.0
-0.0333549 0.0222579 0.0
-0.0361306 0.0264166 0.0
-0.0393153 0.0309073 0.0
-0.042975 0.0357677 0.0
-0.0471668 0.0410347 0.0
-0.0519456 0.0467395 0.0
-0.0573681 0.0529044 0.0
-0.0634914 0.0595366 0.0
-0.0703642 0.0666204 0.0
-0.0780044 0.0741059 0.0
-0.086348 0.0818903 0.0
-0.0951477 0.0897927 0.0
-0.10379 0.0975087 0.0
-0.110984 0.104556 0.0
-0.1143 0.110166 0.0
-0.109509 0.113242 0.0
-0.089769 0.112092 0.0
-0.0445197 0.104973 0.0
0.0416025 0.0890516 0.0
0.189716 0.0651367 0.0
0.426689 0.0312036 0.0
0.780499 0.00532701 0.0
-0.00518959 0.00013029 0.0
-0.0131118 0.0010524 0.0
-0.0190416 0.00279987 0.0
-0.0234223 0.00494193 0.0
-0.0267506 0.00743877 0.0
-0.029467 0.0101826 0.0
-0.0319375 0.0131549 0.0
-0.0344363 0.0163488 0.0
-0.0371569 0.0197827 0.0
-0.040231 0.0234836 0.0
-0.0437487 0.0274843 0.0
-0.0477757 0.0318182 0.0
-0.052365 0.0365167 0.0
-0.0575637 0.0416048 0.0
-0.0634156 0.0470975 0.0
-0.0699577 0.052994 0.0
-0.0772097 0.0592694 0.0
-0.0851458 0.0658646 0.0
-0.0936369 0.0726685 0.0
-0.102339 0.0794951 0.0
-0.110492 0.0860434 0.0
-0.116593 0.0918513 0.0
-0.117916 0.0962047 0.0
-0.109858 0.0981164 0.0
-0.0852046 0.0961319 0.0
-0.0332378 0.0888219 0.0
0.0608137 0.0740882 0.0
0.216049 0.0529015 0.0
0.454731 0.0243459 0.0
0.795591 0.00360996 0.0
-0.0057209 0.000113188 0.0
-0.0143903 0.000908355 0.0
-0.020843 0.00241084 0.0
-0.0255906 0.00424864 0.0
-0.0291915 0.00638864 0.0
-0.0321321 0.00873994 0.0
-0.0348125 0.011289 0.0
-0.0375291 0.0140329 0.0
-0.0404893 0.0169899 0.0
-0.0438318 0.020186 0.0
-0.0476495 0.0236517 0.0
-0.052007 0.0274179 0.0
-0.0569529 0.0315133 0.0
-0.0625261 0.0359606 0.0
-0.068757 0.0407724 0.0
-0.0756632 0.0459463 0.0
-0.083235 0.0514566 0.0
-0.0914041 0.0572442 0.0
-0.0999797 0.0632005 0.0
-0.108526 0.0691453 0.0
-0.116149 0.0747905 0.0
-0.121157 0.0796995 0.0
-0.120567 0.0832126 0.0
-0.109479 0.0844378 0.0
-0.0804166 0.082121 0.0
-0.0226488 0.0750768 0.0
0.0779461 0.0617606 0.0
0.238651 0.0431962 0.0
0.477803 0.0192151 0.0
0.807236 0.00251236 0.0
-0.00617069 9.45606e-05 0.0
-0.0154676 0.000749758 0.0
-0.0223566 0.00198199 0.0
-0.0274096 0.00348479 0.0
-0.0312381 0.00523286 0.0
-0.0343684 0.00715437 0.0
-0.0372296 0.0092418 0.0
-0.0401371 0.0114964 0.0
-0.0433097 0.0139375 0.0
-0.0468924 0.0165904 0.0
-0.0509803 0.0194848 0.0
-0.0556371 0.022651 0.0
-0.0609074 0.0261174 0.0
-0.0668227 0.0299081 0.0
-0.0734012 0.0340384 0.0
-0.0806421 0.0385102 0.0
-0.0885082 0.0433043 0.0
-0.0968908 0.0483701 0.0
-0.10554 0.05361 0.0
-0.113932 0.0588576 0.0
-0.12105 0.0638429 0.0
-0.125026 0.0681551 0.0
-0.122657 0.0711811 0.0
-0.1088 0.0721047 0.0
-0.0757993 0.0698305 0.0
-0.0130073 0.0633587 0.0
0.0930294 0.0515516 0.0
0.257962 0.0354339 0.0
0.496829 0.0153218 0.0
0.816357 0.00179813 0.0
-0.00653175 7.43829e-05 0.0
-0.0163258 0.000578291 0.0
-0.0235572 0.00151897 0.0
-0.0288492 0.00266115 0.0
-0.0328578 0.00398806 0.0
-0.0361418 0.00544866 0.0
-0.0391538 0.00704189 0.0
-0.0422246 0.00877395 0.0
-0.0455828 0.0106652 0.0
-0.0493787 0.0127414 0.0
-0.0537096 0.0150321 0.0
-0.0586393 0.0175686 0.0
-0.0642097 0.0203819 0.0
-0.0704468 0.0235004 0.0
-0.077359 0.0269467 0.0
-0.0849291 0.0307328 0.0
-0.0930953 0.0348528 0.0
-0.101711 0.0392723 0.0
-0.110469 0.0439126 0.0
-0.118762 0.0486274 0.0
-0.125451 0.0531678 0.0
-0.128504 0.0571465 0.0
-0.12452 0.0599856 0.0
-0.108155 0.0609224 0.0
-0.0716381 0.0589797 0.0
-0.00446771 0.053291 0.0
0.106142 0.0430175 0.0
0.274385 0.0291546 0.0
0.512547 0.0123182 0.0
0.823593 0.00132215 0.0
-0.00679749 5.26661e-05 0.0
-0.0169492 0.00039539 0.0
-0.0244234 0.00102647 0.0
-0.0298845 0.00178662 0.0
-0.0340231 0.00266794 0.0
-0.0374228 0.00364142 0.0
-0.0405542 0.00471267 0.0
-0.0437601 0.00589302 0.0
-0.0472766 0.00720409 0.0
-0.0512587 0.00867206 0.0
-0.055807 0.0103275 0.0
-0.0609864 0.0122037 0.0
-0.0668387 0.0143361 0.0
-0.0733871 0.0167606 0.0
-0.0806335 0.0195111 0.0
-0.0885484 0.0226152 0.0
-0.0970484 0.0260868 0.0
-0.105952 0.0299153 0.0
-0.114897 0.0340486 0.0
-0.123191 0.0383671 0.0
-0.129573 0.0426455 0.0
-0.131853 0.0465168 0.0
-0.126437 0.0494257 0.0
-0.107813 0.0506394 0.0
-0.0681426 0.0492602 0.0
0.00288729 0.0445019 0.0
0.117382 0.0357752 0.0
0.288268 0.0239877 0.0
0.525537 0.00994876 0.0
0.829386 0.000993281 0.0
-0.00696208 2.94805e-05 0.0
-0.0173247 0.000202584 0.0
-0.0249375 0.000509186 0.0
-0.0304946 0.00086987 0.0
-0.0347109 0.00128574 0.0
-0.0381868 0.00175045 0.0
-0.0414048 0.00227617 0.0
-0.0447157 0.00287916 0.0
-0.0483615 0.00358194 0.0
-0.0525017 0.00441118 0.0
-0.0572408 0.00539839 0.0
-0.0626474 0.00657976 0.0
-0.0687661 0.00799638 0.0
-0.0756213 0.00969402 0.0
-0.0832131 0.0117215 0.0
-0.0915045 0.0141268 0.0
-0.100396 0.0169506 0.0
-0.109673 0.0202136 0.0
-0.118923 0.0238991 0.0
-0.127363 0.0279217 0.0
-0.133606 0.0320834 0.0
-0.135293 0.0360361 0.0
-0.128648 0.0392354 0.0
-0.108003 0.0409573 0.0
-0.0654859 0.0403412 0.0
0.00896808 0.0366624 0.0
0.126838 0.0294759 0.0
0.299898 0.0196222 0.0
0.536236 0.00801672 0.0
0.834041 0.000752064 0.0
-0.00702028 4.95638e-06 0.0
-0.0174415 1.66286e-06 0.0
-0.0250851 -2.77042e-05 0.0
-0.0306628 -7.97531e-05 0.0
-0.0349026 -0.000144531 0.0
-0.0384131 -0.000205524 0.0
-0.0416823 -0.000244592 0.0
-0.0450652 -0.000241145 0.0
-0.0488077 -0.000172418 0.0
-0.0530742 -1.18797e-05 0.0
-0.0579746 0.000272253 0.0
-0.0635835 0.000718769 0.0
-0.0699522 0.00137507 0.0
-0.0771118 0.00229812 0.0
-0.0850665 0.00355424 0.0
-0.0937785 0.00521645 0.0
-0.103137 0.00735822 0.0
-0.112902 0.0100398 0.0
-0.122607 0.0132918 0.0
-0.131379 0.0170717 0.0
-0.137693 0.0212147 0.0
-0.139013 0.0253942 0.0
-0.131364 0.0290688 0.0
-0.108931 0.0315065 0.0
-0.0638318 0.0318447 0.0
0.0137105 0.0293869 0.0
0.134569 0.0237638 0.0
0.309478 0.0157652 0.0
0.544955 0.00635375 0.0
0.837755 0.000555852 0.0
-0.00696838 -2.06805e-05 0.0
-0.0172918 -0.000205375 0.0
-0.0248562 -0.000578525 0.0
-0.0303775 -0.00105175 0.0
-0.034585 -0.00160675 0.0
-0.0380864 -0.00220469 0.0
-0.0413689 -0.00282252 0.0
-0.0447874 -0.00343648 0.0
-0.0485902 -0.00402487 0.0
-0.0529456 -0.00456263 0.0
-0.0579705 -0.00501906 0.0
-0.063749 -0.00535393 0.0
-0.070344 -0.00551431 0.0
-0.0777986 -0.00543201 0.0
-0.0861294 -0.0050217 0.0
-0.0953065 -0.00418154 0.0
-0.105218 -0.00279828 0.0
-0.115607 -0.000761603 0.0
-0.125961 0.00201287 0.0
-0.135293 0.005533 0.0
-0.141935 0.00968689 0.0
-0.143157 0.0141795 0.0
-0.134767 0.0184696 0.0
-0.110794 0.0218041 0.0
-0.0633499 0.0232872 0.0
0.017021 0.022209 0.0
0.140576 0.0182349 0.0
0.317116 0.0121042 0.0
0.551869 0.00479496 0.0
0.840629 0.000368834 0.0
-0.00680312 -4.71499e-05 0.0
-0.0168702 -0.000416011 0.0
-0.0242447 -0.00113623 0.0
-0.0296322 -0.00203332 0.0
-0.0337505 -0.00308154 0.0
-0.0371968 -0.00422096 0.0
-0.0404504 -0.00542515 0.0
-0.0438626 -0.00666888 0.0
-0.0476814 -0.00793338 0.0
-0.0520797 -0.00919718 0.0
-0.0571828 -0.0104326 0.0
-0.0630876 -0.0116004 0.0
-0.0698733 -0.0126445 0.0
-0.0776033 -0.0134874 0.0
-0.0863157 -0.0140253 0.0
-0.0960004 -0.0141263 0.0
-0.106556 -0.0136333 0.0
-0.117712 -0.0123769 0.0
-0.128901 -0.0102103 0.0
-0.139057 -0.0070497 0.0
-0.146348 -0.00294268 0.0
-0.147812 0.00186064 0.0
-0.138993 0.00682668 0.0
-0.113754 0.0112006 0.0
-0.0642188 0.0140248 0.0
0.0187441 0.0145308 0.0
0.144756 0.0123811 0.0
0.32278 0.00826215 0.0
0.556994 0.00315339 0.0
0.842663 0.000154669 0.0
-0.00652332 -7.40995e-05 0.0
-0.0161757 -0.00062686 0.0
-0.0232506 -0.00169164 0.0
-0.0284276 -0.00300844 0.0
-0.032399 -0.0045452 0.0
-0.0357419 -0.00622268 0.0
-0.0389208 -0.00801282 0.0
-0.0422786 -0.00989099 0.0
-0.0460613 -0.0118436 0.0
-0.0504456 -0.0138555 0.0
-0.0555664 -0.0159054 0.0
-0.0615362 -0.0179588 0.0
-0.068456 -0.0199611 0.0
-0.0764168 -0.02183 0.0
-0.0854895 -0.023448 0.0
-0.095698 -0.024656 0.0
-0.106968 -0.0252524 0.0
-0.119033 -0.025004 0.0
-0.131289 -0.023678 0.0
-0.142567 -0.0210951 0.0
-0.150852 -0.0172148 0.0
-0.152939 -0.0122305 0.0
-0.144125 -0.00663001 0.0
-0.118029 -0.00118412 0.0
-0.0666545 0.00313473 0.0
0.0186736 0.00551238 0.0
0.146904 0.0055116 0.0
0.326267 0.00374215 0.0
0.560158 0.00119057 0.0
0.843756 -0.000130639 0.0
-0.00612959 -0.000101034 0.0
-0.0152122 -0.000833605 0.0
-0.0218807 -0.00223326 0.0
-0.026772 -0.00395708 0.0
-0.0305388 -0.00596803 0.0
-0.0337281 -0.00816986 0.0
-0.0367823 -0.0105349 0.0
-0.0400313 -0.0130413 0.0
-0.0437165 -0.0156833 0.0
-0.0480173 -0.0184553 0.0
-0.0530786 -0.0213468 0.0
-0.0590306 -0.0243334 0.0
-0.0660003 -0.0273689 0.0
-0.0741141 -0.0303743 0.0
-0.083487 -0.033227 0.0
-0.0941931 -0.0357489 0.0
-0.106205 -0.0377001 0.0
-0.119286 -0.0387839 0.0
-0.132813 -0.0386745 0.0
-0.145528 -0.0370759 0.0
-0.155224 -0.0338165 0.0
-0.158411 -0.0289658 0.0
-0.150057 -0.0229274 0.0
-0.123544 -0.0164518 0.0
-0.0709173 -0.0105099 0.0
0.0163635 -0.00593457 0.0
0.146536 -0.00332863 0.0
0.32711 -0.00213682 0.0
0.56092 -0.00138161 0.0
0.843626 -0.000523809 0.0
-0.00562514 -0.000127331 0.0
-0.0139899 -0.00103074 0.0
-0.0201505 -0.00274643 0.0
-0.0246841 -0.00485373 0.0
-0.0281896 -0.00731216 0.0
-0.0311737 -0.0100113 0.0
-0.0340497 -0.0129257 0.0
-0.0371297 -0.0160387 0.0
-0.0406469 -0.019355 0.0
-0.0447815 -0.0228819 0.0
-0.0496874 -0.0266245 0.0
-0.0555128 -0.0305757 0.0
-0.0624134 -0.0347064 0.0
-0.0705565 -0.0389529 0.0
-0.080112 -0.0432018 0.0
-0.0912213 -0.0472723 0.0
-0.103929 -0.050902 0.0
-0.118055 -0.0537423 0.0
-0.132996 -0.0553784 0.0
-0.147429 -0.0553836 0.0
-0.158972 -0.0534173 0.0
-0.163844 -0.0493523 0.0
-0.156654 -0.0433924 0.0
-0.130452 -0.0361155 0.0
-0.0771657 -0.0284395 0.0
0.0115295 -0.0212064 0.0
0.143081 -0.015247 0.0
0.32441 -0.0101426 0.0
0.55837 -0.00492959 0.0
0.841844 -0.00109456 0.0
-0.00501657 -0.000152133 0.0
-0.0125272 -0.00121089 0.0
-0.0180865 -0.00321174 0.0
-0.0221957 -0.00566487 0.0
-0.0253856 -0.00852801 0.0
-0.0281132 -0.0116798 0.0
-0.0307555 -0.0150988 0.0
-0.0336019 -0.0187752 0.0
-0.0368733 -0.0227261 0.0
-0.0407474 -0.0269754 0.0
-0.0453842 -0.0315487 0.0
-0.0509478 -0.0364631 0.0
-0.0576216 -0.0417179 0.0
-0.0656164 -0.0472796 0.0
-0.0751644 -0.0530642 0.0
-0.0864886 -0.0589137 0.0
-0.0997299 -0.0645721 0.0
-0.114804 -0.0696681 0.0
-0.131168 -0.0737189 0.0
-0.147491 -0.0761703 0.0
-0.161266 -0.0764818 0.0
-0.168457 -0.0742507 0.0
-0.163318 -0.0693377 0.0
-0.13853 -0.0619527 0.0
-0.0857872 -0.0526976 0.0
0.00327036 -0.0422888 0.0
0.135427 -0.031788 0.0
0.316999 -0.0213662 0.0
0.551408 -0.0100198 0.0
0.837738 -0.00197497 0.0
-0.0043148 -0.000174186 0.0
-0.0108532 -0.00136386 0.0
-0.01573 -0.00360283 0.0
-0.0193555 -0.00634548 0.0
-0.0221796 -0.00954945 0.0
-0.0246013 -0.0130862 0.0
-0.0269551 -0.0169388 0.0
-0.0295021 -0.0211057 0.0
-0.0324466 -0.0256176 0.0
-0.0359586 -0.0305167 0.0
-0.0401991 -0.0358531 0.0
-0.0453426 -0.0416752 0.0
-0.0515953 -0.0480211 0.0
-0.0592076 -0.0549049 0.0
-0.0684741 -0.0622971 0.0
-0.079708 -0.0700969 0.0
-0.0931672 -0.0780992 0.0
-0.1089 -0.0859607 0.0
-0.126486 -0.0931799 0.0
-0.144662 -0.0991065 0.0
-0.160898 -0.102994 0.0
-0.171008 -0.104091 0.0
-0.168978 -0.101753 0.0
-0.147136 -0.0955598 0.0
-0.0968019 -0.0854146 0.0
-0.00929412 -0.0716747 0.0
0.122044 -0.0552213 0.0
0.30299 -0.0375453 0.0
0.538145 -0.0175826 0.0
0.830162 -0.00338423 0.0
-0.00353778 -0.000191376 0.0
-0.0090127 -0.0014749 0.0
-0.0131427 -0.00388309 0.0
-0.016236 -0.00683441 0.0
-0.018651 -0.0102878 0.0
-0.0207227 -0.0141112 0.0
-0.0227376 -0.0182924 0.0
-0.0249238 -0.0228375 0.0
-0.0274634 -0.02779 0.0
-0.0305128 -0.0332108 0.0
-0.0342267 -0.039176 0.0
-0.0387805 -0.0457691 0.0
-0.0443924 -0.0530758 0.0
-0.0513405 -0.0611734 0.0
-0.0599713 -0.0701129 0.0
-0.0706838 -0.0798919 0.0
-0.0838614 -0.0904144 0.0
-0.0997167 -0.10144 0.0
-0.118015 -0.112535 0.0
-0.137672 -0.123028 0.0
-0.156284 -0.132008 0.0
-0.16971 -0.138347 0.0
-0.171871 -0.140751 0.0
-0.154885 -0.137882 0.0
-0.109641 -0.128476 0.0
-0.0267258 -0.111965 0.0
0.101253 -0.088433 0.0
0.27998 -0.0611437 0.0
0.515953 -0.0291455 0.0
0.81736 -0.00575108 0.0
-0.00271177 -0.000200428 0.0
-0.00706893 -0.00152354 0.0
-0.0104101 -0.00400358 0.0
-0.012936 -0.00705129 0.0
-0.014908 -0.0106277 0.0
-0.0165942 -0.014601 0.0
-0.018229 -0.0189618 0.0
-0.0200036 -0.0237217 0.0
-0.0220725 -0.0289347 0.0
-0.0245716 -0.0346772 0.0
-0.0276397 -0.0410486 0.0
-0.0314411 -0.0481671 0.0
-0.0361888 -0.0561685 0.0
-0.0421674 -0.0652014 0.0
-0.0497507 -0.0754179 0.0
-0.059399 -0.0869518 0.0
-0.0716075 -0.0998799 0.0
-0.0867643 -0.11416 0.0
-0.104879 -0.129545 0.0
-0.125168 -0.145484 0.0
-0.145562 -0.16102 0.0
-0.162257 -0.174707 0.0
-0.169456 -0.184557 0.0
-0.159408 -0.188089 0.0
-0.122753 -0.182416 0.0
-0.0491298 -0.165307 0.0
0.0709742 -0.134757 0.0
0.244425 -0.0956779 0.0
0.480563 -0.0474325 0.0
0.796022 -0.0100342 0.0
-0.00188003 -0.000195514 0.0
-0.00511709 -0.0014811 0.0
-0.00765765 -0.00390104 0.0
-0.00959984 -0.00689529 0.0
-0.0111099 -0.0104261 0.0
-0.01239 -0.0143653 0.0
-0.0136214 -0.0187026 0.0
-0.0149549 -0.023452 0.0
-0.0165129 -0.0286719 0.0
-0.0184044 -0.0344483 0.0
-0.0207431 -0.0408968 0.0
-0.0236682 -0.0481615 0.0
-0.027367 -0.0564204 0.0
-0.0321014 -0.0658886 0.0
-0.0382329 -0.0768219 0.0
-0.0462355 -0.0895093 0.0
-0.0566685 -0.104249 0.0
-0.0700678 -0.121287 0.0
-0.0867078 -0.140714 0.0
-0.106215 -0.162296 0.0
-0.127081 -0.185264 0.0
-0.146192 -0.208081 0.0
-0.158506 -0.228221 0.0
-0.156947 -0.242076 0.0
-0.132401 -0.24492 0.0
-0.0738069 -0.232071 0.0
0.0319357 -0.197738 0.0
0.194466 -0.145983 0.0
0.427848 -0.077172 0.0
0.76145 -0.0182598 0.0
-0.00109658 -0.000169803 0.0
-0.00327061 -0.00131703 0.0
-0.00503121 -0.00350979 0.0
-0.00639219 -0.00626099 0.0
-0.00743762 -0.00953124 0.0
-0.00830912 -0.0131982 0.0
-0.00913565 -0.0172472 0.0
-0.0100259 -0.0216894 0.0
-0.0110671 -0.026581 0.0
-0.0123364 -0.0320082 0.0
-0.0139149 -0.0380897 0.0