# vtk DataFile Version 3.0
Malha 2D com triângulos e temperatura
ASCII
DATASET UNSTRUCTURED_GRID

POINTS 961 double
0 0 0
1 0 0
1 1 0
0 1 0
0.0333333 0 0
0.0666667 0 0
0.1 0 0
0.133333 0 0
0.166667 0 0
0.2 0 0
0.233333 0 0
0.266667 0 0
0.3 0 0
0.333333 0 0
0.366667 0 0
0.4 0 0
0.433333 0 0
0.466667 0 0
0.5 0 0
0.533333 0 0
0.566667 0 0
0.6 0 0
0.633333 0 0
0.666667 0 0
0.7 0 0
0.733333 0 0
0.766667 0 0
0.8 0 0
0.833333 0 0
0.866667 0 0
0.9 0 0
0.933333 0 0
0.966667 0 0
1 0.0333333 0
1 0.0666667 0
1 0.1 0
1 0.133333 0
1 0.166667 0
1 0.2 0
1 0.233333 0
1 0.266667 0
1 0.3 0
1 0.333333 0
1 0.366667 0
1 0.4 0
1 0.433333 0
1 0.466667 0
1 0.5 0
1 0.533333 0
1 0.566667 0
1 0.6 0
1 0.633333 0
1 0.666667 0
1 0.7 0
1 0.733333 0
1 0.766667 0
1 0.8 0
1 0.833333 0
1 0.866667 0
1 0.9 0
1 0.933333 0
1 0.966667 0
0.966667 1 0
0.933333 1 0
0.9 1 0
0.866667 1 0
0.833333 1 0
0.8 1 0
0.766667 1 0
0.733333 1 0
0.7 1 0
0.666667 1 0
0.633333 1 0
0.6 1 0
0.566667 1 0
0.533333 1 0
0.5 1 0
0.466667 1 0
0.433333 1 0
0.4 1 0
0.366667 1 0
0.333333 1 0
0.3 1 0
0.266667 1 0
0.233333 1 0
0.2 1 0
0.166667 1 0
0.133333 1 0
0.1 1 0
0.0666667 1 0
0.0333333 1 0
0 0.966667 0
0 0.933333 0
0 0.9 0
0 0.866667 0
0 0.833333 0
0 0.8 0
0 0.766667 0
0 0.733333 0
0 0.7 0
0 0.666667 0
0 0.633333 0
0 0.6 0
0 0.566667 0
0 0.533333 0
0 0.5 0
0 0.466667 0
0 0.433333 0
0 0.4 0
0 0.366667 0
0 0.333333 0
0 0.3 0
0 0.266667 0
0 0.233333 0
0 0.2 0
0 0.166667 0
0 0.133333 0
0 0.1 0
0 0.0666667 0
0 0.0333333 0
0.0333333 0.0333333 0
0.0333333 0.0666667 0
0.0333333 0.1 0
0.0333333 0.133333 0
0.0333333 0.166667 0
0.0333333 0.2 0
0.0333333 0.233333 0
0.0333333 0.266667 0
0.0333333 0.3 0
0.0333333 0.333333 0
0.0333333 0.366667 0
0.0333333 0.4 0
0.0333333 0.433333 0
0.0333333 0.466667 0
0.0333333 0.5 0
0.0333333 0.533333 0
0.0333333 0.566667 0
0.0333333 0.6 0
0.0333333 0.633333 0
0.0333333 0.666667 0
0.0333333 0.7 0
0.0333333 0.733333 0
0.0333333 0.766667 0
0.0333333 0.8 0
0.0333333 0.833333 0
0.0333333 0.866667 0
0.0333333 0.9 0
0.0333333 0.933333 0
0.0333333 0.966667 0
0.0666667 0.0333333 0
0.0666667 0.0666667 0
0.0666667 0.1 0
0.0666667 0.133333 0
0.0666667 0.166667 0
0.0666667 0.2 0
0.0666667 0.233333 0
0.0666667 0.266667 0
0.0666667 0.3 0
0.0666667 0.333333 0
0.0666667 0.366667 0
0.0666667 0.4 0
0.0666667 0.433333 0
0.0666667 0.466667 0
0.0666667 0.5 0
0.0666667 0.533333 0
0.0666667 0.566667 0
0.0666667 0.6 0
0.0666667 0.633333 0
0.0666667 0.666667 0
0.0666667 0.7 0
0.0666667 0.733333 0
0.0666667 0.766667 0
0.0666667 0.8 0
0.0666667 0.833333 0
0.0666667 0.866667 0
0.0666667 0.9 0
0.0666667 0.933333 0
0.0666667 0.966667 0
0.1 0.0333333 0
0.1 0.0666667 0
0.1 0.1 0
0.1 0.133333 0
0.1 0.166667 0
0.1 0.2 0
0.1 0.233333 0
0.1 0.266667 0
0.1 0.3 0
0.1 0.333333 0
0.1 0.366667 0
0.1 0.4 0
0.1 0.433333 0
0.1 0.466667 0
0.1 0.5 0
0.1 0.533333 0
0.1 0.566667 0
0.1 0.6 0
0.1 0.633333 0
0.1 0.666667 0
0.1 0.7 0
0.1 0.733333 0
0.1 0.766667 0
0.1 0.8 0
0.1 0.833333 0
0.1 0.866667 0
0.1 0.9 0
0.1 0.933333 0
0.1 0.966667 0
0.133333 0.0333333 0
0.133333 0.0666667 0
0.133333 0.1 0
0.133333 0.133333 0
0.133333 0.166667 0
0.133333 0.2 0
0.133333 0.233333 0
0.133333 0.266667 0
0.133333 0.3 0
0.133333 0.333333 0
0.133333 0.366667 0
0.133333 0.4 0
0.133333 0.433333 0
0.133333 0.466667 0
0.133333 0.5 0
0.133333 0.533333 0
0.133333 0.566667 0
0.133333 0.6 0
0.133333 0.633333 0
0.133333 0.666667 0
0.133333 0.7 0
0.133333 0.733333 0
0.133333 0.766667 0
0.133333 0.8 0
0.133333 0.833333 0
0.133333 0.866667 0
0.133333 0.9 0
0.133333 0.933333 0
0.133333 0.966667 0
0.166667 0.0333333 0
0.166667 0.0666667 0
0.166667 0.1 0
0.166667 0.133333 0
0.166667 0.166667 0
0.166667 0.2 0
0.166667 0.233333 0
0.166667 0.266667 0
0.166667 0.3 0
0.166667 0.333333 0
0.166667 0.366667 0
0.166667 0.4 0
0.166667 0.433333 0
0.166667 0.466667 0
0.166667 0.5 0
0.166667 0.533333 0
0.166667 0.566667 0
0.166667 0.6 0
0.166667 0.633333 0
0.166667 0.666667 0
0.166667 0.7 0
0.166667 0.733333 0
0.166667 0.766667 0
0.166667 0.8 0
0.166667 0.833333 0
0.166667 0.866667 0
0.166667 0.9 0
0.166667 0.933333 0
0.166667 0.966667 0
0.2 0.0333333 0
0.2 0.0666667 0
0.2 0.1 0
0.2 0.133333 0
0.2 0.166667 0
0.2 0.2 0
0.2 0.233333 0
0.2 0.266667 0
0.2 0.3 0
0.2 0.333333 0
0.2 0.366667 0
0.2 0.4 0
0.2 0.433333 0
0.2 0.466667 0
0.2 0.5 0
0.2 0.533333 0
0.2 0.566667 0
0.2 0.6 0
0.2 0.633333 0
0.2 0.666667 0
0.2 0.7 0
0.2 0.733333 0
0.2 0.766667 0
0.2 0.8 0
0.2 0.833333 0
0.2 0.866667 0
0.2 0.9 0
0.2 0.933333 0
0.2 0.966667 0
0.233333 0.0333333 0
0.233333 0.0666667 0
0.233333 0.1 0
0.233333 0.133333 0
0.233333 0.166667 0
0.233333 0.2 0
0.233333 0.233333 0
0.233333 0.266667 0
0.233333 0.3 0
0.233333 0.333333 0
0.233333 0.366667 0
0.233333 0.4 0
0.233333 0.433333 0
0.233333 0.466667 0
0.233333 0.5 0
0.233333 0.533333 0
0.233333 0.566667 0
0.233333 0.6 0
0.233333 0.633333 0
0.233333 0.666667 0
0.233333 0.7 0
0.233333 0.733333 0
0.233333 0.766667 0
0.233333 0.8 0
0.233333 0.833333 0
0.233333 0.866667 0
0.233333 0.9 0
0.233333 0.933333 0
0.233333 0.966667 0
0.266667 0.0333333 0
0.266667 0.0666667 0
0.266667 0.1 0
0.266667 0.133333 0
0.266667 0.166667 0
0.266667 0.2 0
0.266667 0.233333 0
0.266667 0.266667 0
0.266667 0.3 0
0.266667 0.333333 0
0.266667 0.366667 0
0.266667 0.4 0
0.266667 0.433333 0
0.266667 0.466667 0
0.266667 0.5 0
0.266667 0.533333 0
0.266667 0.566667 0
0.266667 0.6 0
0.266667 0.633333 0
0.266667 0.666667 0
0.266667 0.7 0
0.266667 0.733333 0
0.266667 0.766667 0
0.266667 0.8 0
0.266667 0.833333 0
0.266667 0.866667 0
0.266667 0.9 0
0.266667 0.933333 0
0.266667 0.966667 0
0.3 0.0333333 0
0.3 0.0666667 0
0.3 0.1 0
0.3 0.133333 0
0.3 0.166667 0
0.3 0.2 0
0.3 0.233333 0
0.3 0.266667 0
0.3 0.3 0
0.3 0.333333 0
0.3 0.366667 0
0.3 0.4 0
0.3 0.433333 0
0.3 0.466667 0
0.3 0.5 0
0.3 0.533333 0
0.3 0.566667 0
0.3 0.6 0
0.3 0.633333 0
0.3 0.666667 0
0.3 0.7 0
0.3 0.733333 0
0.3 0.766667 0
0.3 0.8 0
0.3 0.833333 0
0.3 0.866667 0
0.3 0.9 0
0.3 0.933333 0
0.3 0.966667 0
0.333333 0.0333333 0
0.333333 0.0666667 0
0.333333 0.1 0
0.333333 0.133333 0
0.333333 0.166667 0
0.333333 0.2 0
0.333333 0.233333 0
0.333333 0.266667 0
0.333333 0.3 0
0.333333 0.333333 0
0.333333 0.366667 0
0.333333 0.4 0
0.333333 0.433333 0
0.333333 0.466667 0
0.333333 0.5 0
0.333333 0.533333 0
0.333333 0.566667 0
0.333333 0.6 0
0.333333 0.633333 0
0.333333 0.666667 0
0.333333 0.7 0
0.333333 0.733333 0
0.333333 0.766667 0
0.333333 0.8 0
0.333333 0.833333 0
0.333333 0.866667 0
0.333333 0.9 0
0.333333 0.933333 0
0.333333 0.966667 0
0.366667 0.0333333 0
0.366667 0.0666667 0
0.366667 0.1 0
0.366667 0.133333 0
0.366667 0.166667 0
0.366667 0.2 0
0.366667 0.233333 0
0.366667 0.266667 0
0.366667 0.3 0
0.366667 0.333333 0
0.366667 0.366667 0
0.366667 0.4 0
0.366667 0.433333 0
0.366667 0.466667 0
0.366667 0.5 0
0.366667 0.533333 0
0.366667 0.566667 0
0.366667 0.6 0
0.366667 0.633333 0
0.366667 0.666667 0
0.366667 0.7 0
0.366667 0.733333 0
0.366667 0.766667 0
0.366667 0.8 0
0.366667 0.833333 0
0.366667 0.866667 0
0.366667 0.9 0
0.366667 0.933333 0
0.366667 0.966667 0
0.4 0.0333333 0
0.4 0.0666667 0
0.4 0.1 0
0.4 0.133333 0
0.4 0.166667 0
0.4 0.2 0
0.4 0.233333 0
0.4 0.266667 0
0.4 0.3 0
0.4 0.333333 0
0.4 0.366667 0
0.4 0.4 0
0.4 0.433333 0
0.4 0.466667 0
0.4 0.5 0
0.4 0.533333 0
0.4 0.566667 0
0.4 0.6 0
0.4 0.633333 0
0.4 0.666667 0
0.4 0.7 0
0.4 0.733333 0
0.4 0.766667 0
0.4 0.8 0
0.4 0.833333 0
0.4 0.866667 0
0.4 0.9 0
0.4 0.933333 0
0.4 0.966667 0
0.433333 0.0333333 0
0.433333 0.0666667 0
0.433333 0.1 0
0.433333 0.133333 0
0.433333 0.166667 0
0.433333 0.2 0
0.433333 0.233333 0
0.433333 0.266667 0
0.433333 0.3 0
0.433333 0.333333 0
0.433333 0.366667 0
0.433333 0.4 0
0.433333 0.433333 0
0.433333 0.466667 0
0.433333 0.5 0
0.433333 0.533333 0
0.433333 0.566667 0
0.433333 0.6 0
0.433333 0.633333 0
0.433333 0.666667 0
0.433333 0.7 0
0.433333 0.733333 0
0.433333 0.766667 0
0.433333 0.8 0
0.433333 0.833333 0
0.433333 0.866667 0
0.433333 0.9 0
0.433333 0.933333 0
0.433333 0.966667 0
0.466667 0.0333333 0
0.466667 0.0666667 0
0.466667 0.1 0
0.466667 0.133333 0
0.466667 0.166667 0
0.466667 0.2 0
0.466667 0.233333 0
0.466667 0.266667 0
0.466667 0.3 0
0.466667 0.333333 0
0.466667 0.366667 0
0.466667 0.4 0
0.466667 0.433333 0
0.466667 0.466667 0
0.466667 0.5 0
0.466667 0.533333 0
0.466667 0.566667 0
0.466667 0.6 0
0.466667 0.633333 0
0.466667 0.666667 0
0.466667 0.7 0
0.466667 0.733333 0
0.466667 0.766667 0
0.466667 0.8 0
0.466667 0.833333 0
0.466667 0.866667 0
0.466667 0.9 0
0.466667 0.933333 0
0.466667 0.966667 0
0.5 0.0333333 0
0.5 0.0666667 0
0.5 0.1 0
0.5 0.133333 0
0.5 0.166667 0
0.5 0.2 0
0.5 0.233333 0
0.5 0.266667 0
0.5 0.3 0
0.5 0.333333 0
0.5 0.366667 0
0.5 0.4 0
0.5 0.433333 0
0.5 0.466667 0
0.5 0.5 0
0.5 0.533333 0
0.5 0.566667 0
0.5 0.6 0
0.5 0.633333 0
0.5 0.666667 0
0.5 0.7 0
0.5 0.733333 0
0.5 0.766667 0
0.5 0.8 0
0.5 0.833333 0
0.5 0.866667 0
0.5 0.9 0
0.5 0.933333 0
0.5 0.966667 0
0.533333 0.0333333 0
0.533333 0.0666667 0
0.533333 0.1 0
0.533333 0.133333 0
0.533333 0.166667 0
0.533333 0.2 0
0.533333 0.233333 0
0.533333 0.266667 0
0.533333 0.3 0
0.533333 0.333333 0
0.533333 0.366667 0
0.533333 0.4 0
0.533333 0.433333 0
0.533333 0.466667 0
0.533333 0.5 0
0.533333 0.533333 0
0.533333 0.566667 0
0.533333 0.6 0
0.533333 0.633333 0
0.533333 0.666667 0
0.533333 0.7 0
0.533333 0.733333 0
0.533333 0.766667 0
0.533333 0.8 0
0.533333 0.833333 0
0.533333 0.866667 0
0.533333 0.9 0
0.533333 0.933333 0
0.533333 0.966667 0
0.566667 0.0333333 0
0.566667 0.0666667 0
0.566667 0.1 0
0.566667 0.133333 0
0.566667 0.166667 0
0.566667 0.2 0
0.566667 0.233333 0
0.566667 0.266667 0
0.566667 0.3 0
0.566667 0.333333 0
0.566667 0.366667 0
0.566667 0.4 0
0.566667 0.433333 0
0.566667 0.466667 0
0.566667 0.5 0
0.566667 0.533333 0
0.566667 0.566667 0
0.566667 0.6 0
0.566667 0.633333 0
0.566667 0.666667 0
0.566667 0.7 0
0.566667 0.733333 0
0.566667 0.766667 0
0.566667 0.8 0
0.566667 0.833333 0
0.566667 0.866667 0
0.566667 0.9 0
0.566667 0.933333 0
0.566667 0.966667 0
0.6 0.0333333 0
0.6 0.0666667 0
0.6 0.1 0
0.6 0.133333 0
[...]
CELL_DATA 900
VECTORS velocity double
5.92576e-05 -5.82002e-05 0.0
-3.56537e-05 5.78889e-05 0.0
-0.000111684 0.0004974 0.0
-0.000162593 0.00112552 0.0
-0.000188837 0.00189657 0.0
-0.00020412 0.00275126 0.0
-0.000215697 0.00367441 0.0
-0.000228404 0.00466134 0.0
-0.000244322 0.00572101 0.0
-0.00026451 0.00686737 0.0
-0.000289559 0.00811879 0.0
-0.000320095 0.00949688 0.0
-0.00035698 0.0110272 0.0
-0.000401521 0.0127404 0.0
-0.00045572 0.0146745 0.0
-0.000522762 0.0168781 0.0
-0.000607938 0.0194162 0.0
-0.000720498 0.0223779 0.0
-0.000877262 0.0258916 0.0
-0.00110969 0.0301476 0.0
-0.00147739 0.0354362 0.0
-0.00209442 0.0422074 0.0
-0.00317846 0.051168 0.0
-0.00514794 0.0634157 0.0
-0.00876488 0.0807378 0.0
-0.0153327 0.105601 0.0
-0.025916 0.142839 0.0
-0.0380477 0.190674 0.0
-0.0131338 0.263506 0.0
0.217138 0.174345 0.0
-5.97516e-05 3.92996e-05 0.0
-0.000572861 0.000573829 0.0
-0.000993092 0.00173102 0.0
-0.00129927 0.00325047 0.0
-0.00150126 0.00507356 0.0
-0.00164763 0.00710063 0.0
-0.00177336 0.00930369 0.0
-0.00190394 0.0116739 0.0
-0.00205443 0.0142289 0.0
-0.00223446 0.0169983 0.0
-0.00245112 0.0200228 0.0
-0.00271148 0.0233515 0.0
-0.00302416 0.027043 0.0
-0.00340096 0.0311682 0.0
-0.00385874 0.0358142 0.0
-0.00442229 0.041091 0.0
-0.0051288 0.0471413 0.0
-0.00603516 0.0541545 0.0
-0.00722912 0.0623862 0.0
-0.00884592 0.0721844 0.0
-0.0110907 0.0840163 0.0
-0.0142677 0.098487 0.0
-0.0188065 0.116316 0.0
-0.0252929 0.138203 0.0
-0.0343918 0.164485 0.0
-0.0466492 0.194127 0.0
-0.0601857 0.223399 0.0
-0.0657271 0.239946 0.0
-0.00241918 0.219021 0.0
0.306058 0.116788 0.0
-0.000500697 0.00011409 0.0
-0.00172584 0.000971762 0.0
-0.00270796 0.00265468 0.0
-0.00343166 0.00477878 0.0
-0.00394066 0.00728639 0.0
-0.0043287 0.0100595 0.0
-0.00467214 0.0130692 0.0
-0.00502765 0.0163075 0.0
-0.00543183 0.0197979 0.0
-0.00590922 0.023579 0.0
-0.00647859 0.0277028 0.0
-0.00715829 0.0322317 0.0
-0.00797004 0.0372396 0.0
-0.0089426 0.0428138 0.0
-0.0101158 0.0490597 0.0
-0.0115464 0.0561059 0.0
-0.0133158 0.0641128 0.0
-0.0155419 0.0732827 0.0
-0.0183932 0.0838712 0.0
-0.0221038 0.0961965 0.0
-0.0269794 0.110635 0.0
-0.0333761 0.127587 0.0
-0.0416082 0.147351 0.0
-0.0517343 0.169869 0.0
-0.0630038 0.19412 0.0
-0.0727887 0.217257 0.0
-0.0728211 0.232183 0.0
-0.0413462 0.227663 0.0
0.0915145 0.172908 0.0
0.477285 0.0772011 0.0
-0.00111075 0.00015976 0.0
-0.00319105 0.00122373 0.0
-0.00480177 0.00323309 0.0
-0.00597637 0.00571067 0.0
-0.00682004 0.00860288 0.0
-0.00747842 0.0117835 0.0
-0.00807158 0.0152275 0.0
-0.00868778 0.018929 0.0
-0.00938552 0.0229152 0.0
-0.0102045 0.027228 0.0
-0.0111755 0.031923 0.0
-0.0123277 0.0370657 0.0
-0.0136952 0.0427321 0.0
-0.0153215 0.04901 0.0
-0.0172654 0.0560017 0.0
-0.0196077 0.0638271 0.0
-0.0224604 0.0726274 0.0
-0.0259774 0.0825688 0.0
-0.0303649 0.0938417 0.0
-0.0358831 0.106652 0.0
-0.0428212 0.12119 0.0
-0.0514116 0.137554 0.0
-0.0616167 0.155583 0.0
-0.0727111 0.17457 0.0
-0.0824337 0.192633 0.0
-0.0854723 0.20618 0.0
-0.069652 0.207744 0.0
-0.00743213 0.188611 0.0
0.165391 0.127126 0.0
0.575625 0.0490666 0.0
-0.00182542 0.000175676 0.0
-0.00486452 0.0013326 0.0
-0.00715187 0.00349321 0.0
-0.00879961 0.00612527 0.0
-0.00999324 0.00917633 0.0
-0.0109371 0.0125161 0.0
-0.0117973 0.0161229 0.0
-0.012694 0.0199928 0.0
-0.0137072 0.0241542 0.0
-0.0148912 0.028649 0.0
-0.0162876 0.0335311 0.0
-0.0179355 0.0388626 0.0
-0.0198786 0.0447139 0.0
-0.0221717 0.0511632 0.0
-0.0248864 0.0582974 0.0
-0.0281181 0.0662129 0.0
-0.0319941 0.0750148 0.0
-0.0366808 0.0848141 0.0
-0.042386 0.0957192 0.0
-0.0493428 0.107816 0.0
-0.0577495 0.121123 0.0
-0.0676186 0.135509 0.0
-0.0784544 0.150517 0.0
-0.0886653 0.165129 0.0
-0.0945105 0.177194 0.0
-0.0883625 0.183191 0.0
-0.0551529 0.176534 0.0
0.0348153 0.150904 0.0
0.23575 0.0926729 0.0
0.646284 0.0305196 0.0
-0.00256333 0.000175915 0.0
-0.00659336 0.0013465 0.0
-0.00956303 0.0035266 0.0
-0.0116775 0.00616631 0.0
-0.0132119 0.00921343 0.0
-0.0144335 0.0125374 0.0
-0.0155551 0.0161192 0.0
-0.0167275 0.0199556 0.0
-0.0180505 0.0240745 0.0
-0.0195911 0.0285154 0.0
-0.0213999 0.033328 0.0
-0.0235226 0.0385676 0.0
-0.0260092 0.0442949 0.0
-0.0289203 0.0505741 0.0
-0.0323327 0.0574728 0.0
-0.0363455 0.0650592 0.0
-0.0410857 0.0733995 0.0
-0.0467108 0.0825504 0.0
-0.0534018 0.0925458 0.0
-0.0613302 0.103373 0.0
-0.0705666 0.114926 0.0
-0.0808758 0.126927 0.0
-0.0913122 0.138769 0.0
-0.0995135 0.14934 0.0
-0.100538 0.156532 0.0
-0.0851052 0.157274 0.0
-0.0365406 0.146067 0.0
0.074275 0.119312 0.0
0.293457 0.068156 0.0
0.695426 0.0191085 0.0
-0.00328824 0.000167575 0.0
-0.00829797 0.00129907 0.0
-0.0119336 0.00340697 0.0
-0.0144977 0.00595164 0.0
-0.0163568 0.00888191 0.0
-0.0178419 0.0120708 0.0
-0.0192117 0.015501 0.0
-0.0206462 0.0191696 0.0
-0.0222633 0.0231029 0.0
-0.0241406 0.0273366 0.0
-0.0263353 0.0319149 0.0
-0.0288974 0.0368853 0.0
-0.0318796 0.0422975 0.0
-0.0353433 0.0482015 0.0
-0.0393643 0.0546452 0.0
-0.0440366 0.0616711 0.0
-0.0494757 0.0693109 0.0
-0.0558161 0.0775766 0.0
-0.0631961 0.086446 0.0
-0.0717094 0.0958385 0.0
-0.0812879 0.105571 0.0
-0.0914552 0.115295 0.0
-0.100858 0.124358 0.0
-0.106479 0.131683 0.0
-0.102428 0.135357 0.0
-0.0782601 0.132854 0.0
-0.016536 0.119698 0.0
0.110337 0.0941497 0.0
0.341046 0.0505485 0.0
0.730339 0.0120537 0.0
-0.00397321 0.000155378 0.0
-0.00991555 0.0012146 0.0
-0.0141805 0.0031885 0.0
-0.0171662 0.00556737 0.0
-0.0193267 0.00830263 0.0
-0.0210551 0.0112745 0.0
-0.0226541 0.0144674 0.0
-0.0243306 0.0178787 0.0
-0.0262185 0.0215323 0.0
-0.0284044 0.0254601 0.0
-0.0309498 0.0297003 0.0
-0.0339068 0.0342928 0.0
-0.0373273 0.0392773 0.0
-0.0412701 0.0446909 0.0
-0.0458048 0.0505648 0.0
-0.0510141 0.0569204 0.0
-0.0569948 0.0637631 0.0
-0.0638505 0.0710728 0.0
-0.0716693 0.0787895 0.0
-0.0804635 0.0867919 0.0
-0.0900323 0.0948589 0.0
-0.0996821 0.102618 0.0
-0.107713 0.109432 0.0
-0.110576 0.114315 0.0
-0.101661 0.11559 0.0
-0.0697318 0.111249 0.0
0.00290262 0.0976401 0.0
0.14177 0.0744379 0.0
0.379613 0.0378913 0.0
0.755524 0.00770931 0.0
-0.00460428 0.000141049 0.0
-0.0114085 0.00110594 0.0
-0.0162525 0.0029032 0.0
-0.019624 0.00506626 0.0
-0.0220586 0.00755077 0.0
-0.0240078 0.0102474 0.0
-0.0258146 0.0131428 0.0
-0.0277106 0.0162345 0.0
-0.0298437 0.0195444 0.0
-0.0323078 0.0231006 0.0
-0.0351671 0.0269359 0.0
-0.0384735 0.0310836 0.0
-0.0422766 0.035575 0.0
-0.0466296 0.0404369 0.0
-0.0515926 0.0456881 0.0
-0.0572337 0.051335 0.0
-0.0636267 0.0573653 0.0
-0.0708413 0.0637388 0.0
-0.078914 0.0703745 0.0
-0.087779 0.0771316 0.0
-0.0971144 0.0837776 0.0
-0.106037 0.0899465 0.0
-0.112556 0.0950438 0.0
-0.112695 0.098195 0.0
-0.0992992 0.0979563 0.0
-0.0606094 0.0927302 0.0
0.0209013 0.0796564 0.0
0.168772 0.0591229 0.0
0.410787 0.0287347 0.0
0.774003 0.00502455 0.0
-0.005171 0.000125248 0.0
-0.0127488 0.0009799 0.0
-0.0181102 0.00256926 0.0
-0.0218254 0.00447926 0.0
-0.0245034 0.00667117 0.0
-0.0266486 0.00904892 0.0
-0.0286405 0.0116016 0.0
-0.0307324 0.0143282 0.0
-0.0330844 0.0172482 0.0
-0.0357958 0.0203867 0.0
-0.0389328 0.023772 0.0
-0.0425458 0.0274321 0.0
-0.0466805 0.0313922 0.0
-0.0513833 0.035672 0.0
-0.0567031 0.0402824 0.0
-0.0626918 0.0452211 0.0
-0.0693992 0.0504662 0.0
-0.0768607 0.0559681 0.0
-0.0850636 0.061638 0.0
-0.0938698 0.0673317 0.0
-0.102851 0.0728224 0.0
-0.11096 0.0777668 0.0
-0.115964 0.0816257 0.0
-0.113541 0.0836308 0.0
-0.0961332 0.0825568 0.0
-0.0516702 0.0771062 0.0
0.0370045 0.0651378 0.0
0.191716 0.0472312 0.0
0.435976 0.0220664 0.0
0.787798 0.00335617 0.0
-0.00566561 0.000108059 0.0
-0.0139156 0.000839781 0.0
-0.0197244 0.00219668 0.0
-0.0237361 0.00382423 0.0
-0.0266241 0.00569048 0.0
-0.0289394 0.00771472 0.0
-0.0310929 0.00988932 0.0
-0.0333569 0.0122148 0.0
-0.0359017 0.0147094 0.0
-0.0388311 0.0173955 0.0
-0.0422121 0.0202979 0.0
-0.0460932 0.0234411 0.0
-0.0505161 0.0268465 0.0
-0.0555195 0.03053 0.0
-0.0611414 0.0344991 0.0
-0.0674172 0.0387483 0.0
-0.0743736 0.0432537 0.0
-0.0820134 0.0479657 0.0
-0.0902784 0.0527978 0.0
-0.0989656 0.0576139 0.0
-0.107552 0.0622033 0.0
-0.11485 0.0662529 0.0
-0.118422 0.0692804 0.0
-0.113669 0.0706104 0.0
-0.0927263 0.0692024 0.0
-0.0433662 0.0639865 0.0
0.0511595 0.0533532 0.0
0.211098 0.03793 0.0
0.45637 0.0171475 0.0
0.798277 0.00230639 0.0
-0.00608122 8.94757e-05 0.0
-0.0148916 0.000687499 0.0
-0.0210711 0.00179166 0.0
-0.0253279 0.00311267 0.0
-0.0283903 0.00462615 0.0
-0.0308485 0.00626851 0.0
-0.0331398 0.0080359 0.0
-0.0355523 0.00993112 0.0
-0.0382646 0.0119713 0.0
-0.041384 0.0141768 0.0
-0.0449781 0.0165704 0.0
-0.049094 0.0191743 0.0
-0.0537691 0.0220085 0.0
-0.0590356 0.0250882 0.0
-0.0649213 0.0284216 0.0
-0.0714466 0.0320056 0.0
-0.0786169 0.0358207 0.0
-0.0864056 0.0398246 0.0
-0.0947129 0.043942 0.0
-0.103278 0.0480524 0.0
-0.111492 0.0519681 0.0
-0.118046 0.0554084 0.0
-0.120324 0.0579426 0.0
-0.113498 0.0589706 0.0
-0.089472 0.0575974 0.0
-0.0359541 0.0529192 0.0
0.0633725 0.0437105 0.0
0.227357 0.0305877 0.0
0.472908 0.0134663 0.0
0.806361 0.00163447 0.0
-0.00641172 6.95044e-05 0.0
-0.0156621 0.000524501 0.0
-0.0221304 0.00135887 0.0
-0.0265777 0.0023533 0.0
-0.0297769 0.00349153 0.0
-0.0323499 0.0047284 0.0
-0.0347548 0.00606424 0.0
-0.0372921 0.00750448 0.0
-0.040147 0.00906549 0.0
-0.04343 0.0107664 0.0
-0.0472092 0.0126287 0.0
-0.0515309 0.0146736 0.0
-0.0564296 0.0169217 0.0
-0.0619323 0.0193907 0.0
-0.0680586 0.0220929 0.0
-0.0748164 0.0250325 0.0
-0.0821929 0.0282003 0.0
-0.0901354 0.0315677 0.0
-0.0985072 0.0350776 0.0
-0.106994 0.0386316 0.0
-0.11491 0.0420691 0.0
-0.120833 0.0451416 0.0
-0.121988 0.0474619 0.0
-0.113351 0.0484864 0.0
-0.0866478 0.0474262 0.0
-0.0295793 0.0434936 0.0
0.0737356 0.0357314 0.0
0.240906 0.024715 0.0
0.486333 0.0106601 0.0
0.812679 0.00119297 0.0
-0.00665162 4.82177e-05 0.0
-0.0162147 0.000352223 0.0
-0.0228853 0.000902625 0.0
-0.0274659 0.001554 0.0
-0.0307631 0.00229853 0.0
-0.0334217 0.00311044 0.0
-0.0359153 0.00399434 0.0
-0.0385533 0.00495852 0.0
-0.0415261 0.00601879 0.0
-0.0449468 0.00719337 0.0
-0.0488848 0.00850283 0.0
-0.0533866 0.009969 0.0
-0.0584858 0.0116145 0.0
-0.0642065 0.0134617 0.0
-0.0705629 0.0155304 0.0
-0.0775539 0.0178362 0.0
-0.0851525 0.0203855 0.0
-0.0932838 0.0231697 0.0
-0.101778 0.0261563 0.0
-0.110272 0.0292746 0.0
-0.118006 0.0323953 0.0
-0.123447 0.0353007 0.0
-0.123673 0.0376381 0.0
-0.113484 0.0389019 0.0
-0.0844592 0.0383731 0.0
-0.0243328 0.0353375 0.0
0.0823475 0.0290182 0.0
0.252091 0.0199316 0.0
0.497216 0.00846993 0.0
0.817662 0.000891356 0.0
-0.00679625 2.57448e-05 0.0
-0.0165391 0.000172243 0.0
-0.0233224 0.00042741 0.0
-0.0279771 0.000722774 0.0
-0.0313318 0.00105909 0.0
-0.0340459 0.00143046 0.0
-0.0366024 0.00184574 0.0
-0.0393163 0.002316 0.0
-0.0423815 0.00285632 0.0
-0.0459137 0.00348404 0.0
-0.0499846 0.00421918 0.0
-0.0546423 0.00508457 0.0
-0.0599219 0.00610622 0.0
-0.0658479 0.00731265 0.0
-0.0724328 0.00873413 0.0
-0.0796712 0.010401 0.0
-0.0875264 0.0123403 0.0
-0.0959066 0.0145695 0.0
-0.104613 0.0170871 0.0
-0.113236 0.0198571 0.0
-0.12094 0.0227854 0.0
-0.126083 0.0256855 0.0
-0.125594 0.028231 0.0
-0.114105 0.0299369 0.0
-0.0830689 0.030121 0.0
-0.0202786 0.0281058 0.0
0.0892984 0.0232264 0.0
0.261192 0.0159285 0.0
0.505986 0.00670246 0.0
0.821601 0.000672379 0.0
-0.00684167 2.27296e-06 0.0
-0.0166272 -1.36587e-05 0.0
-0.0234311 -6.19322e-05 0.0
-0.0280992 -0.000131878 0.0
-0.0314699 -0.000214282 0.0
-0.0342082 -0.000294984 0.0
-0.0368003 -0.000361289 0.0
-0.0395634 -0.00039977 0.0
-0.0426935 -0.000396469 0.0
-0.0463089 -0.000335275 0.0
-0.0504845 -0.000196839 0.0
-0.0552728 4.27298e-05 0.0
-0.0607131 0.00041286 0.0
-0.0668338 0.000949288 0.0
-0.0736509 0.00169441 0.0
-0.0811602 0.00269656 0.0
-0.0893218 0.00400753 0.0
-0.0980323 0.00567706 0.0
-0.107068 0.00774205 0.0
-0.115973 0.0102096 0.0
-0.123838 0.0130289 0.0
-0.128899 0.0160454 0.0
-0.12793 0.0189539 0.0
-0.11539 0.0212744 0.0
-0.0826167 0.0223323 0.0
-0.0174754 0.0214548 0.0
0.0946506 0.0180338 0.0
0.268413 0.012435 0.0
0.512948 0.00520247 0.0
0.824687 0.000497318 0.0
-0.00678526 -2.19876e-05 0.0
-0.0164738 -0.00020367 0.0
-0.0232047 -0.000560342 0.0
-0.0278243 -0.00100077 0.0
-0.0311687 -0.00150772 0.0
-0.0338986 -0.00204739 0.0
-0.0364974 -0.00260397 0.0
-0.0392808 -0.00316241 0.0
-0.0424456 -0.00371067 0.0
-0.0461129 -0.00423467 0.0
-0.050362 -0.00471654 0.0
-0.0552512 -0.00513218 0.0
-0.0608274 -0.00544931 0.0
-0.0671282 -0.00562511 0.0
-0.0741787 -0.00560442 0.0
-0.0819828 -0.00531897 0.0
-0.0905056 -0.00468813 0.0
-0.0996405 -0.00362331 0.0
-0.109146 -0.00203942 0.0
-0.118526 0.000123934 0.0
-0.126783 0.00286469 0.0
-0.132017 0.00606712 0.0
-0.130829 0.00945313 0.0
-0.117497 0.0125357 0.0
-0.0832441 0.0146188 0.0
-0.016008 0.0150048 0.0
0.0984169 0.013098 0.0
0.273873 0.00917944 0.0
0.518287 0.00382618 0.0
0.827024 0.000335788 0.0
-0.0066249 -4.67878e-05 0.0
-0.0160755 -0.000395626 0.0
-0.0226399 -0.00106188 0.0
-0.0271494 -0.00187334 0.0
-0.0304241 -0.00280547 0.0
-0.0331114 -0.00380583 0.0
-0.0356853 -0.00485651 0.0
-0.0384565 -0.00594186 0.0
-0.0416211 -0.00705293 0.0
-0.0453028 -0.00817903 0.0
-0.0495867 -0.00930539 0.0
-0.0545396 -0.0104093 0.0
-0.0602196 -0.0114572 0.0
-0.066678 -0.0124005 0.0
-0.0739562 -0.0131726 0.0
-0.0820755 -0.0136849 0.0
-0.0910165 -0.0138254 0.0
-0.100681 -0.0134614 0.0
-0.110816 -0.0124497 0.0
-0.120879 -0.0106641 0.0
-0.129785 -0.00804151 0.0
-0.135496 -0.00464074 0.0
-0.134412 -0.000717971 0.0
-0.120566 0.00323209 0.0
-0.0850711 0.00648402 0.0
-0.0159599 0.00829152 0.0
0.10055 0.00801839 0.0
0.277578 0.00585286 0.0
0.522047 0.00241778 0.0
0.828631 0.000158218 0.0
-0.0063602 -7.18009e-05 0.0
-0.0154329 -0.000586775 0.0
-0.0217382 -0.00155934 0.0
-0.0260764 -0.00273721 0.0
-0.0292377 -0.00408949 0.0
-0.0318467 -0.00554645 0.0
-0.0343613 -0.00708927 0.0
-0.0370839 -0.00870308 0.0
-0.040208 -0.0103835 0.0
-0.0438598 -0.0121249 0.0
-0.0481309 -0.013918 0.0
-0.0530985 -0.0157441 0.0
-0.0588353 -0.0175714 0.0
-0.0654118 -0.0193493 0.0
-0.0728934 -0.0210029 0.0
-0.0813291 -0.022426 0.0
-0.0907285 -0.0234763 0.0
-0.101016 -0.0239738 0.0
-0.111945 -0.0237096 0.0
-0.122938 -0.0224728 0.0
-0.132812 -0.0201059 0.0
-0.13935 -0.0165862 0.0
-0.138713 -0.0121299 0.0
-0.124719 -0.00724344 0.0
-0.0883203 -0.00270134 0.0
-0.0175513 0.000663279 0.0
0.100917 0.00220997 0.0
0.279422 0.00202855 0.0
0.52414 0.000774234 0.0
0.829453 -7.02884e-05 0.0
-0.00599219 -9.66403e-05 0.0
-0.01455 -0.0007739 0.0
-0.0205061 -0.0020443 0.0
-0.024613 -0.00357789 0.0
-0.0276173 -0.00533849 0.0
-0.0301107 -0.00724084 0.0
-0.0325288 -0.00926654 0.0
-0.0351619 -0.0114031 0.0
-0.038199 -0.0136522 0.0
-0.0417678 -0.0160159 0.0
-0.045967 -0.0184928 0.0
-0.0508854 -0.0210723 0.0
-0.0566131 -0.0237291 0.0
-0.0632448 -0.0264162 0.0
-0.0708775 -0.0290569 0.0
-0.0795997 -0.031534 0.0
-0.089466 -0.0336801 0.0
-0.100445 -0.0352703 0.0
-0.112316 -0.0360253 0.0
-0.124485 -0.0356362 0.0
-0.135678 -0.0338247 0.0
-0.143485 -0.030444 0.0
-0.143765 -0.0256078 0.0
-0.130013 -0.0197951 0.0
-0.0929831 -0.0138389 0.0
-0.0208693 -0.00868906 0.0
0.099202 -0.005017 0.0
0.27902 -0.00282793 0.0
0.524181 -0.00135955 0.0
0.829255 -0.000391163 0.0
-0.00552378 -0.000120884 0.0
-0.0134352 -0.000953189 0.0
-0.018956 -0.00250662 0.0
-0.022774 -0.00437786 0.0
-0.025578 -0.00652663 0.0
-0.0279175 -0.00885427 0.0
-0.0301995 -0.0113442 0.0
-0.0326979 -0.0139876 0.0
-0.0355949 -0.0167945 0.0
-0.0390187 -0.0197766 0.0
-0.0430739 -0.022944 0.0
-0.0478614 -0.0262987 0.0
-0.0534901 -0.0298281 0.0
-0.0600823 -0.0334971 0.0
-0.0677734 -0.0372373 0.0
-0.0767029 -0.0409325 0.0
-0.0869887 -0.0444026 0.0
-0.0986677 -0.0473881 0.0
-0.111577 -0.0495439 0.0
-0.125138 -0.0504569 0.0
-0.138009 -0.0497041 0.0
-0.14758 -0.0469668 0.0
-0.14938 -0.0421829 0.0
-0.136506 -0.0356997 0.0
-0.0994153 -0.0282906 0.0
-0.0263327 -0.0209916 0.0
0.0950493 -0.014614 0.0
0.275841 -0.00938777 0.0
0.521543 -0.00431859 0.0
0.827695 -0.000873834 0.0
-0.00496013 -0.000144016 0.0
-0.0121029 -0.00111977 0.0
-0.0171082 -0.00293333 0.0
-0.0205831 -0.00511466 0.0
-0.0231449 -0.00762076 0.0
-0.0252919 -0.010342 0.0
-0.0273961 -0.0132648 0.0
-0.0297114 -0.0163856 0.0
-0.03241 -0.0197239 0.0
-0.0356181 -0.0233035 0.0
-0.0394446 -0.0271494 0.0
-0.0440008 -0.0312812 0.0
-0.0494136 -0.0357066 0.0
-0.055834 -0.0404126 0.0
-0.0634397 -0.0453532 0.0
-0.072431 -0.0504311 0.0
-0.0830061 -0.0554752 0.0
-0.0952983 -0.0602146 0.0
-0.109242 -0.0642591 0.0
-0.124322 -0.0671005 0.0
-0.139172 -0.0681594 0.0
-0.15102 -0.0668964 0.0
-0.155058 -0.062976 0.0
-0.143938 -0.0564607 0.0
-0.107712 -0.0478642 0.0
-0.0344845 -0.0381485 0.0
0.0875846 -0.0281858 0.0
0.268909 -0.0187731 0.0
0.515272 -0.00866936 0.0
0.824176 -0.00164515 0.0
-0.00430912 -0.000165317 0.0
-0.0105741 -0.00126684 0.0
-0.0149924 -0.00330638 0.0
-0.018075 -0.00575743 0.0
-0.0203552 -0.00857559 0.0
-0.0222719 -0.0116432 0.0
-0.0241565 -0.0149502 0.0
-0.0262385 -0.0184991 0.0
-0.028677 -0.02232 0.0
-0.0315929 -0.0264502 0.0
-0.0350957 -0.0309326 0.0
-0.0393035 -0.0358089 0.0
-0.0443575 -0.0411146 0.0
-0.0504338 -0.0468703 0.0
-0.057752 -0.0530692 0.0
-0.0665767 -0.0596574 0.0
-0.0771992 -0.0665051 0.0
-0.0898759 -0.0733705 0.0
-0.104682 -0.0798617 0.0
-0.121231 -0.0854143 0.0
-0.138212 -0.0893082 0.0
-0.152774 -0.0907534 0.0
-0.159846 -0.0890347 0.0
-0.151654 -0.0837215 0.0
-0.117768 -0.0747444 0.0
-0.0459272 -0.0626596 0.0
0.0756064 -0.0480757 0.0
0.256634 -0.0328071 0.0
0.503685 -0.0154003 0.0
0.817633 -0.00294066 0.0
-0.00358351 -0.000183389 0.0
-0.0088814 -0.00138364 0.0
-0.0126531 -0.00359862 0.0
-0.0153016 -0.00626075 0.0
-0.0172648 -0.00932545 0.0
-0.0189162 -0.0126701 0.0
-0.0205417 -0.016288 0.0
-0.0223422 -0.020188 0.0
-0.0244599 -0.02441 0.0
-0.0270064 -0.0290055 0.0
-0.0300868 -0.0340365 0.0
-0.0338196 -0.0395698 0.0
-0.038353 -0.0456743 0.0
-0.0438796 -0.0524148 0.0
-0.0506521 -0.0598412 0.0
-0.0589935 -0.0679706 0.0
-0.0692895 -0.0767566 0.0
-0.0819357 -0.0860451 0.0
-0.0971895 -0.0955174 0.0
-0.114866 -0.104634 0.0
-0.133828 -0.112602 0.0
-0.151297 -0.118397 0.0
-0.162117 -0.120846 0.0
-0.158249 -0.118794 0.0
-0.128821 -0.111161 0.0
-0.0609773 -0.0975335 0.0
0.05767 -0.0774828 0.0
0.236796 -0.0541946 0.0
0.484248 -0.0261706 0.0
0.806315 -0.0052225 0.0
-0.00280187 -0.000195707 0.0
-0.00707118 -0.00145319 0.0
-0.0101527 -0.00376893 0.0
-0.012334 -0.00655719 0.0
-0.0139507 -0.009774 0.0
-0.0153068 -0.0132949 0.0
-0.0166387 -0.0171155 0.0
-0.0181156 -0.0212492 0.0
-0.0198587 -0.0257445 0.0
-0.0219653 -0.0306652 0.0
-0.0245303 -0.0360908 0.0
-0.0276642 -0.0421132 0.0
-0.0315106 -0.0488364 0.0
-0.0362642 -0.0563747 0.0
-0.0421922 -0.0648478 0.0
-0.0496553 -0.0743688 0.0
-0.0591156 -0.0850191 0.0
-0.0711015 -0.096804 0.0
-0.0860743 -0.109582 0.0
-0.104122 -0.122974 0.0
-0.124426 -0.136254 0.0
-0.144514 -0.148273 0.0
-0.159467 -0.157408 0.0
-0.161353 -0.161602 0.0
-0.139153 -0.158348 0.0
-0.0794425 -0.145498 0.0
0.0320849 -0.120332 0.0
0.206062 -0.0867694 0.0
0.452729 -0.0438532 0.0
0.786855 -0.00948119 0.0
-0.00199828 -0.000196784 0.0
-0.00521936 -0.00144763 0.0
-0.00759022 -0.00375529 0.0
-0.0092849 -0.00654818 0.0
-0.0105355 -0.00978236 0.0
-0.0115761 -0.0133345 0.0
-0.0125917 -0.0171998 0.0
-0.013717 -0.0213939 0.0
-0.0150486 -0.0259699 0.0
-0.0166652 -0.0309997 0.0
-0.0186447 -0.0365757 0.0
-0.021081 -0.0428093 0.0
-0.0240995 -0.0498345 0.0
-0.0278775 -0.0578113 0.0
-0.0326689 -0.06693 0.0
-0.0388346 -0.0774108 0.0
-0.046868 -0.0894943 0.0
-0.0573865 -0.103412 0.0
-0.0710331 -0.119317 0.0
-0.0882053 -0.137169 0.0
-0.108537 -0.156548 0.0
-0.130147 -0.176428 0.0
-0.148799 -0.194929 0.0
-0.157249 -0.20912 0.0
-0.144964 -0.214869 0.0
-0.0983524 -0.20738 0.0
-0.000906295 -0.181059 0.0
0.162027 -0.135867 0.0
0.404679 -0.07342 0.0
0.754307 -0.0177964 0.0
-0.00121755 -0.000179043 0.0
-0.0034211 -0.00133123 0.0
-0.00508651 -0.0034798 0.0
-0.0062883 -0.00610917 0.0
-0.00716394 -0.00917308 0.0
-0.00788093 -0.012552 0.0
-0.00857264 -0.0162376 0.0
-0.00933719 -0.020244 0.0