# vtk DataFile Version 3.0
Malha 2D com triângulos e temperatura
ASCII
DATASET UNSTRUCTURED_GRID

POINTS 961 double
0 0 0
1 0 0
1 1 0
0 1 0
0.0333333 0 0
0.0666667 0 0
0.1 0 0
0.133333 0 0
0.166667 0 0
0.2 0 0
0.233333 0 0
0.266667 0 0
0.3 0 0
0.333333 0 0
0.366667 0 0
0.4 0 0
0.433333 0 0
0.466667 0 0
0.5 0 0
0.533333 0 0
0.566667 0 0
0.6 0 0
0.633333 0 0
0.666667 0 0
0.7 0 0
0.733333 0 0
0.766667 0 0
0.8 0 0
0.833333 0 0
0.866667 0 0
0.9 0 0
0.933333 0 0
0.966667 0 0
1 0.0333333 0
1 0.0666667 0
1 0.1 0
1 0.133333 0
1 0.166667 0
1 0.2 0
1 0.233333 0
1 0.266667 0
1 0.3 0
1 0.333333 0
1 0.366667 0
1 0.4 0
1 0.433333 0
1 0.466667 0
1 0.5 0
1 0.533333 0
1 0.566667 0
1 0.6 0
1 0.633333 0
1 0.666667 0
1 0.7 0
1 0.733333 0
1 0.766667 0
1 0.8 0
1 0.833333 0
1 0.866667 0
1 0.9 0
1 0.933333 0
1 0.966667 0
0.966667 1 0
0.933333 1 0
0.9 1 0
0.866667 1 0
0.833333 1 0
0.8 1 0
0.766667 1 0
0.733333 1 0
0.7 1 0
0.666667 1 0
0.633333 1 0
0.6 1 0
0.566667 1 0
0.533333 1 0
0.5 1 0
0.466667 1 0
0.433333 1 0
0.4 1 0
0.366667 1 0
0.333333 1 0
0.3 1 0
0.266667 1 0
0.233333 1 0
0.2 1 0
0.166667 1 0
0.133333 1 0
0.1 1 0
0.0666667 1 0
0.0333333 1 0
0 0.966667 0
0 0.933333 0
0 0.9 0
0 0.866667 0
0 0.833333 0
0 0.8 0
0 0.766667 0
0 0.733333 0
0 0.7 0
0 0.666667 0
0 0.633333 0
0 0.6 0
0 0.566667 0
0 0.533333 0
0 0.5 0
0 0.466667 0
0 0.433333 0
0 0.4 0
0 0.366667 0
0 0.333333 0
0 0.3 0
0 0.266667 0
0 0.233333 0
0 0.2 0
0 0.166667 0
0 0.133333 0
0 0.1 0
0 0.0666667 0
0 0.0333333 0
0.0333333 0.0333333 0
0.0333333 0.0666667 0
0.0333333 0.1 0
0.0333333 0.133333 0
0.0333333 0.166667 0
0.0333333 0.2 0
0.0333333 0.233333 0
0.0333333 0.266667 0
0.0333333 0.3 0
0.0333333 0.333333 0
0.0333333 0.366667 0
0.0333333 0.4 0
0.0333333 0.433333 0
0.0333333 0.466667 0
0.0333333 0.5 0
0.0333333 0.533333 0
0.0333333 0.566667 0
0.0333333 0.6 0
0.0333333 0.633333 0
0.0333333 0.666667 0
0.0333333 0.7 0
0.0333333 0.733333 0
0.0333333 0.766667 0
0.0333333 0.8 0
0.0333333 0.833333 0
0.0333333 0.866667 0
0.0333333 0.9 0
0.0333333 0.933333 0
0.0333333 0.966667 0
0.0666667 0.0333333 0
0.0666667 0.0666667 0
0.0666667 0.1 0
0.0666667 0.133333 0
0.0666667 0.166667 0
0.0666667 0.2 0
0.0666667 0.233333 0
0.0666667 0.266667 0
0.0666667 0.3 0
0.0666667 0.333333 0
0.0666667 0.366667 0
0.0666667 0.4 0
0.0666667 0.433333 0
0.0666667 0.466667 0
0.0666667 0.5 0
0.0666667 0.533333 0
0.0666667 0.566667 0
0.0666667 0.6 0
0.0666667 0.633333 0
0.0666667 0.666667 0
0.0666667 0.7 0
0.0666667 0.733333 0
0.0666667 0.766667 0
0.0666667 0.8 0
0.0666667 0.833333 0
0.0666667 0.866667 0
0.0666667 0.9 0
0.0666667 0.933333 0
0.0666667 0.966667 0
0.1 0.0333333 0
0.1 0.0666667 0
0.1 0.1 0
0.1 0.133333 0
0.1 0.166667 0
0.1 0.2 0
0.1 0.233333 0
0.1 0.266667 0
0.1 0.3 0
0.1 0.333333 0
0.1 0.366667 0
0.1 0.4 0
0.1 0.433333 0
0.1 0.466667 0
0.1 0.5 0
0.1 0.533333 0
0.1 0.566667 0
0.1 0.6 0
0.1 0.633333 0
0.1 0.666667 0
0.1 0.7 0
0.1 0.733333 0
0.1 0.766667 0
0.1 0.8 0
0.1 0.833333 0
0.1 0.866667 0
0.1 0.9 0
0.1 0.933333 0
0.1 0.966667 0
0.133333 0.0333333 0
0.133333 0.0666667 0
0.133333 0.1 0
0.133333 0.133333 0
0.133333 0.166667 0
0.133333 0.2 0
0.133333 0.233333 0
0.133333 0.266667 0
0.133333 0.3 0
0.133333 0.333333 0
0.133333 0.366667 0
0.133333 0.4 0
0.133333 0.433333 0
0.133333 0.466667 0
0.133333 0.5 0
0.133333 0.533333 0
0.133333 0.566667 0
0.133333 0.6 0
0.133333 0.633333 0
0.133333 0.666667 0
0.133333 0.7 0
0.133333 0.733333 0
0.133333 0.766667 0
0.133333 0.8 0
0.133333 0.833333 0
0.133333 0.866667 0
0.133333 0.9 0
0.133333 0.933333 0
0.133333 0.966667 0
0.166667 0.0333333 0
0.166667 0.0666667 0
0.166667 0.1 0
0.166667 0.133333 0
0.166667 0.166667 0
0.166667 0.2 0
0.166667 0.233333 0
0.166667 0.266667 0
0.166667 0.3 0
0.166667 0.333333 0
0.166667 0.366667 0
0.166667 0.4 0
0.166667 0.433333 0
0.166667 0.466667 0
0.166667 0.5 0
0.166667 0.533333 0
0.166667 0.566667 0
0.166667 0.6 0
0.166667 0.633333 0
0.166667 0.666667 0
0.166667 0.7 0
0.166667 0.733333 0
0.166667 0.766667 0
0.166667 0.8 0
0.166667 0.833333 0
0.166667 0.866667 0
0.166667 0.9 0
0.166667 0.933333 0
0.166667 0.966667 0
0.2 0.0333333 0
0.2 0.0666667 0
0.2 0.1 0
0.2 0.133333 0
0.2 0.166667 0
0.2 0.2 0
0.2 0.233333 0
0.2 0.266667 0
0.2 0.3 0
0.2 0.333333 0
0.2 0.366667 0
0.2 0.4 0
0.2 0.433333 0
0.2 0.466667 0
0.2 0.5 0
0.2 0.533333 0
0.2 0.566667 0
0.2 0.6 0
0.2 0.633333 0
0.2 0.666667 0
0.2 0.7 0
0.2 0.733333 0
0.2 0.766667 0
0.2 0.8 0
0.2 0.833333 0
0.2 0.866667 0
0.2 0.9 0
0.2 0.933333 0
0.2 0.966667 0
0.233333 0.0333333 0
0.233333 0.0666667 0
0.233333 0.1 0
0.233333 0.133333 0
0.233333 0.166667 0
0.233333 0.2 0
0.233333 0.233333 0
0.233333 0.266667 0
0.233333 0.3 0
0.233333 0.333333 0
0.233333 0.366667 0
0.233333 0.4 0
0.233333 0.433333 0
0.233333 0.466667 0
0.233333 0.5 0
0.233333 0.533333 0
0.233333 0.566667 0
0.233333 0.6 0
0.233333 0.633333 0
0.233333 0.666667 0
0.233333 0.7 0
0.233333 0.733333 0
0.233333 0.766667 0
0.233333 0.8 0
0.233333 0.833333 0
0.233333 0.866667 0
0.233333 0.9 0
0.233333 0.933333 0
0.233333 0.966667 0
0.266667 0.0333333 0
0.266667 0.0666667 0
0.266667 0.1 0
0.266667 0.133333 0
0.266667 0.166667 0
0.266667 0.2 0
0.266667 0.233333 0
0.266667 0.266667 0
0.266667 0.3 0
0.266667 0.333333 0
0.266667 0.366667 0
0.266667 0.4 0
0.266667 0.433333 0
0.266667 0.466667 0
0.266667 0.5 0
0.266667 0.533333 0
0.266667 0.566667 0
0.266667 0.6 0
0.266667 0.633333 0
0.266667 0.666667 0
0.266667 0.7 0
0.266667 0.733333 0
0.266667 0.766667 0
0.266667 0.8 0
0.266667 0.833333 0
0.266667 0.866667 0
0.266667 0.9 0
0.266667 0.933333 0
0.266667 0.966667 0
0.3 0.0333333 0
0.3 0.0666667 0
0.3 0.1 0
0.3 0.133333 0
0.3 0.166667 0
0.3 0.2 0
0.3 0.233333 0
0.3 0.266667 0
0.3 0.3 0
0.3 0.333333 0
0.3 0.366667 0
0.3 0.4 0
0.3 0.433333 0
0.3 0.466667 0
0.3 0.5 0
0.3 0.533333 0
0.3 0.566667 0
0.3 0.6 0
0.3 0.633333 0
0.3 0.666667 0
0.3 0.7 0
0.3 0.733333 0
0.3 0.766667 0
0.3 0.8 0
0.3 0.833333 0
0.3 0.866667 0
0.3 0.9 0
0.3 0.933333 0
0.3 0.966667 0
0.333333 0.0333333 0
0.333333 0.0666667 0
0.333333 0.1 0
0.333333 0.133333 0
0.333333 0.166667 0
0.333333 0.2 0
0.333333 0.233333 0
0.333333 0.266667 0
0.333333 0.3 0
0.333333 0.333333 0
0.333333 0.366667 0
0.333333 0.4 0
0.333333 0.433333 0
0.333333 0.466667 0
0.333333 0.5 0
0.333333 0.533333 0
0.333333 0.566667 0
0.333333 0.6 0
0.333333 0.633333 0
0.333333 0.666667 0
0.333333 0.7 0
0.333333 0.733333 0
0.333333 0.766667 0
0.333333 0.8 0
0.333333 0.833333 0
0.333333 0.866667 0
0.333333 0.9 0
0.333333 0.933333 0
0.333333 0.966667 0
0.366667 0.0333333 0
0.366667 0.0666667 0
0.366667 0.1 0
0.366667 0.133333 0
0.366667 0.166667 0
0.366667 0.2 0
0.366667 0.233333 0
0.366667 0.266667 0
0.366667 0.3 0
0.366667 0.333333 0
0.366667 0.366667 0
0.366667 0.4 0
0.366667 0.433333 0
0.366667 0.466667 0
0.366667 0.5 0
0.366667 0.533333 0
0.366667 0.566667 0
0.366667 0.6 0
0.366667 0.633333 0
0.366667 0.666667 0
0.366667 0.7 0
0.366667 0.733333 0
0.366667 0.766667 0
0.366667 0.8 0
0.366667 0.833333 0
0.366667 0.866667 0
0.366667 0.9 0
0.366667 0.933333 0
0.366667 0.966667 0
0.4 0.0333333 0
0.4 0.0666667 0
0.4 0.1 0
0.4 0.133333 0
0.4 0.166667 0
0.4 0.2 0
0.4 0.233333 0
0.4 0.266667 0
0.4 0.3 0
0.4 0.333333 0
0.4 0.366667 0
0.4 0.4 0
0.4 0.433333 0
0.4 0.466667 0
0.4 0.5 0
0.4 0.533333 0
0.4 0.566667 0
0.4 0.6 0
0.4 0.633333 0
0.4 0.666667 0
0.4 0.7 0
0.4 0.733333 0
0.4 0.766667 0
0.4 0.8 0
0.4 0.833333 0
0.4 0.866667 0
0.4 0.9 0
0.4 0.933333 0
0.4 0.966667 0
0.433333 0.0333333 0
0.433333 0.0666667 0
0.433333 0.1 0
0.433333 0.133333 0
0.433333 0.166667 0
0.433333 0.2 0
0.433333 0.233333 0
0.433333 0.266667 0
0.433333 0.3 0
0.433333 0.333333 0
0.433333 0.366667 0
0.433333 0.4 0
0.433333 0.433333 0
0.433333 0.466667 0
0.433333 0.5 0
0.433333 0.533333 0
0.433333 0.566667 0
0.433333 0.6 0
0.433333 0.633333 0
0.433333 0.666667 0
0.433333 0.7 0
0.433333 0.733333 0
0.433333 0.766667 0
0.433333 0.8 0
0.433333 0.833333 0
0.433333 0.866667 0
0.433333 0.9 0
0.433333 0.933333 0
0.433333 0.966667 0
0.466667 0.0333333 0
0.466667 0.0666667 0
0.466667 0.1 0
0.466667 0.133333 0
0.466667 0.166667 0
0.466667 0.2 0
0.466667 0.233333 0
0.466667 0.266667 0
0.466667 0.3 0
0.466667 0.333333 0
0.466667 0.366667 0
0.466667 0.4 0
0.466667 0.433333 0
0.466667 0.466667 0
0.466667 0.5 0
0.466667 0.533333 0
0.466667 0.566667 0
0.466667 0.6 0
0.466667 0.633333 0
0.466667 0.666667 0
0.466667 0.7 0
0.466667 0.733333 0
0.466667 0.766667 0
0.466667 0.8 0
0.466667 0.833333 0
0.466667 0.866667 0
0.466667 0.9 0
0.466667 0.933333 0
0.466667 0.966667 0
0.5 0.0333333 0
0.5 0.0666667 0
0.5 0.1 0
0.5 0.133333 0
0.5 0.166667 0
0.5 0.2 0
0.5 0.233333 0
0.5 0.266667 0
0.5 0.3 0
0.5 0.333333 0
0.5 0.366667 0
0.5 0.4 0
0.5 0.433333 0
0.5 0.466667 0
0.5 0.5 0
0.5 0.533333 0
0.5 0.566667 0
0.5 0.6 0
0.5 0.633333 0
0.5 0.666667 0
0.5 0.7 0
0.5 0.733333 0
0.5 0.766667 0
0.5 0.8 0
0.5 0.833333 0
0.5 0.866667 0
0.5 0.9 0
0.5 0.933333 0
0.5 0.966667 0
0.533333 0.0333333 0
0.533333 0.0666667 0
0.533333 0.1 0
0.533333 0.133333 0
0.533333 0.166667 0
0.533333 0.2 0
0.533333 0.233333 0
0.533333 0.266667 0
0.533333 0.3 0
0.533333 0.333333 0
0.533333 0.366667 0
0.533333 0.4 0
0.533333 0.433333 0
0.533333 0.466667 0
0.533333 0.5 0
0.533333 0.533333 0
0.533333 0.566667 0
0.533333 0.6 0
0.533333 0.633333 0
0.533333 0.666667 0
0.533333 0.7 0
0.533333 0.733333 0
0.533333 0.766667 0
0.533333 0.8 0
0.533333 0.833333 0
0.533333 0.866667 0
0.533333 0.9 0
0.533333 0.933333 0
0.533333 0.966667 0
0.566667 0.0333333 0
0.566667 0.0666667 0
0.566667 0.1 0
0.566667 0.133333 0
0.566667 0.166667 0
0.566667 0.2 0
0.566667 0.233333 0
0.566667 0.266667 0
0.566667 0.3 0
0.566667 0.333333 0
0.566667 0.366667 0
0.566667 0.4 0
0.566667 0.433333 0
0.566667 0.466667 0
0.566667 0.5 0
0.566667 0.533333 0
0.566667 0.566667 0
0.566667 0.6 0
0.566667 0.633333 0
0.566667 0.666667 0
0.566667 0.7 0
0.566667 0.733333 0
0.566667 0.766667 0
0.566667 0.8 0
0.566667 0.833333 0
0.566667 0.866667 0
0.566667 0.9 0
0.566667 0.933333 0
0.566667 0.966667 0
0.6 0.0333333 0
0.6 0.0666667 0
0.6 0.1 0
0.6 0.133333 0
[...]
CELL_DATA 900
VECTORS velocity double
-7.53399e-05 7.55729e-05 0.0
-0.000193567 0.000479837 0.0
-0.000227672 0.00112072 0.0
-0.000240484 0.00177424 0.0
-0.000249645 0.00246583 0.0
-0.00026175 0.00318537 0.0
-0.000277509 0.00394609 0.0
-0.000297269 0.00475724 0.0
-0.000321333 0.00563043 0.0
-0.000350185 0.00657818 0.0
-0.0003845 0.00761472 0.0
-0.000425183 0.0087565 0.0
-0.000473449 0.0100229 0.0
-0.000530939 0.011437 0.0
-0.000599917 0.0130276 0.0
-0.000683591 0.0148303 0.0
-0.000786653 0.0168913 0.0
-0.000916275 0.0192719 0.0
-0.00108404 0.0220559 0.0
-0.00130994 0.0253629 0.0
-0.00163121 0.0293717 0.0
-0.00212258 0.0343637 0.0
-0.00294415 0.0408214 0.0
-0.00445064 0.0495676 0.0
-0.00742366 0.0623686 0.0
-0.013428 0.081866 0.0
-0.0244351 0.11568 0.0
-0.0386801 0.163944 0.0
-0.0162358 0.250254 0.0
0.216849 0.171588 0.0
-0.00048082 0.000193178 0.0
-0.000949946 0.000942893 0.0
-0.00110142 0.00203454 0.0
-0.00116568 0.00315331 0.0
-0.00121731 0.00433953 0.0
-0.00128013 0.00557823 0.0
-0.00135921 0.00688931 0.0
-0.00145684 0.00828801 0.0
-0.00157502 0.00979361 0.0
-0.00171631 0.0114273 0.0
-0.00188407 0.013213 0.0
-0.00208274 0.0151786 0.0
-0.0023182 0.0173567 0.0
-0.00259839 0.0197861 0.0
-0.00293415 0.0225145 0.0
-0.00334066 0.025601 0.0
-0.00383967 0.029121 0.0
-0.00446327 0.0331727 0.0
-0.0052604 0.0378871 0.0
-0.00630876 0.0434435 0.0
-0.0077373 0.0500925 0.0
-0.00977071 0.0581895 0.0
-0.0128191 0.0682557 0.0
-0.0176546 0.0809834 0.0
-0.0256886 0.0975048 0.0
-0.0392284 0.118387 0.0
-0.0594282 0.14538 0.0
-0.0784486 0.169415 0.0
-0.0283291 0.179503 0.0
0.290877 0.106716 0.0
-0.00111264 0.000220202 0.0
-0.00203243 0.00105822 0.0
-0.0023402 0.0022666 0.0
-0.00247521 0.00350008 0.0
-0.00258859 0.00480623 0.0
-0.0027241 0.00616946 0.0
-0.00289315 0.00761175 0.0
-0.0031008 0.00914957 0.0
-0.00335146 0.0108037 0.0
-0.00365055 0.0125965 0.0
-0.00400504 0.0145537 0.0
-0.00442399 0.0167042 0.0
-0.00491937 0.0190818 0.0
-0.00550713 0.0217262 0.0
-0.00620886 0.0246851 0.0
-0.00705436 0.0280161 0.0
-0.00808551 0.0317911 0.0
-0.00936254 0.0360999 0.0
-0.010974 0.0410572 0.0
-0.0130535 0.046811 0.0
-0.0158076 0.0535524 0.0
-0.0195632 0.061525 0.0
-0.0248455 0.0710377 0.0
-0.0324955 0.0823956 0.0
-0.0437054 0.0959498 0.0
-0.0596426 0.11118 0.0
-0.0773566 0.127042 0.0
-0.0777477 0.135994 0.0
0.0253668 0.120952 0.0
0.432845 0.0643293 0.0
-0.00172775 0.000220604 0.0
-0.0030899 0.00105961 0.0
-0.00354513 0.0022662 0.0
-0.00374552 0.00349466 0.0
-0.00391686 0.00479481 0.0
-0.00412152 0.00615079 0.0
-0.00437643 0.00758449 0.0
-0.00468888 0.00911175 0.0
-0.00506534 0.0107525 0.0
-0.00551363 0.0125282 0.0
-0.00604367 0.0144626 0.0
-0.0066683 0.0165827 0.0
-0.00740422 0.018919 0.0
-0.00827341 0.0215065 0.0
-0.00930519 0.024386 0.0
-0.0105392 0.0276051 0.0
-0.01203 0.0312202 0.0
-0.0138536 0.0352975 0.0
-0.016118 0.0399148 0.0
-0.0189791 0.0451616 0.0
-0.0226647 0.0511353 0.0
-0.0275124 0.0579287 0.0
-0.0340197 0.0656049 0.0
-0.0428993 0.0740979 0.0
-0.0549662 0.0831508 0.0
-0.0704077 0.091702 0.0
-0.0841416 0.0977789 0.0
-0.0717498 0.0964924 0.0
0.0561011 0.0758338 0.0
0.499097 0.0368982 0.0
-0.00233699 0.000211405 0.0
-0.00413777 0.0010199 0.0
-0.00473725 0.00218329 0.0
-0.00500169 0.00336595 0.0
-0.00522957 0.00461683 0.0
-0.00550165 0.00592014 0.0
-0.00583999 0.00729678 0.0
-0.00625393 0.00876136 0.0
-0.00675166 0.0103322 0.0
-0.00734294 0.0120286 0.0
-0.00804005 0.0138718 0.0
-0.00885865 0.015885 0.0
-0.00981885 0.0180939 0.0
-0.0109467 0.0205269 0.0
-0.0122763 0.0232154 0.0
-0.0138527 0.0261943 0.0
-0.0157362 0.0295011 0.0
-0.0180084 0.0331757 0.0
-0.0207806 0.0372576 0.0
-0.0242059 0.0417804 0.0
-0.0284955 0.0467616 0.0
-0.0339403 0.0521804 0.0
-0.04093 0.0579422 0.0
-0.0499493 0.0637913 0.0
-0.0613669 0.0692305 0.0
-0.0744803 0.0731828 0.0
-0.0827765 0.0737645 0.0
-0.058994 0.068067 0.0
0.0859041 0.0481049 0.0
0.541147 0.0208186 0.0
-0.00291326 0.000199369 0.0
-0.00513174 0.000963405 0.0
-0.0058671 0.00206289 0.0
-0.00619124 0.00317965 0.0
-0.00647141 0.00436008 0.0
-0.00680583 0.00558879 0.0
-0.00722117 0.0068851 0.0
-0.0077284 0.00826213 0.0
-0.00833699 0.0097362 0.0
-0.00905803 0.0113242 0.0
-0.00990531 0.013044 0.0
-0.0108962 0.0149151 0.0
-0.0120525 0.0169575 0.0
-0.0134022 0.0191929 0.0
-0.0149809 0.0216431 0.0
-0.0168344 0.0243299 0.0
-0.0190226 0.0272738 0.0
-0.0216233 0.0304906 0.0
-0.0247387 0.0339874 0.0
-0.0285027 0.0377545 0.0
-0.0330895 0.0417523 0.0
-0.0387219 0.0458887 0.0
-0.0456709 0.049986 0.0
-0.0542171 0.0537185 0.0
-0.0644029 0.05655 0.0
-0.0749792 0.0575844 0.0
-0.07873 0.0553619 0.0
-0.0472008 0.0483217 0.0
0.107686 0.0315919 0.0
0.566886 0.0121015 0.0
-0.00345369 0.000185084 0.0
-0.00606426 0.000894746 0.0
-0.00692655 0.00191581 0.0
-0.00730609 0.00295226 0.0
-0.00763431 0.00404709 0.0
-0.00802577 0.00518555 0.0
-0.00851128 0.00638512 0.0
-0.00910311 0.00765725 0.0
-0.00981155 0.00901612 0.0
-0.0106485 0.010476 0.0
-0.0116284 0.0120517 0.0
-0.0127694 0.0137584 0.0
-0.0140936 0.0156113 0.0
-0.0156288 0.0176252 0.0
-0.0174095 0.0198134 0.0
-0.0194792 0.0221867 0.0
-0.0218922 0.0247508 0.0
-0.0247171 0.0275033 0.0
-0.0280396 0.0304276 0.0
-0.0319663 0.0334856 0.0
-0.0366269 0.0366043 0.0
-0.0421741 0.0396582 0.0
-0.0487704 0.0424437 0.0
-0.056534 0.0446406 0.0
-0.0652819 0.0457734 0.0
-0.0734438 0.0451676 0.0
-0.073472 0.0417902 0.0
-0.0365011 0.0348574 0.0
0.124461 0.021442 0.0
0.583495 0.00732395 0.0
-0.0039509 0.000168809 0.0
-0.00692212 0.000815738 0.0
-0.00790067 0.00174615 0.0
-0.00833054 0.00269008 0.0
-0.00870197 0.00368651 0.0
-0.0091445 0.00472162 0.0
-0.00969255 0.00581088 0.0
-0.0103593 0.00696406 0.0
-0.0111556 0.00819319 0.0
-0.0120935 0.00950998 0.0
-0.0131877 0.0109262 0.0
-0.0144558 0.0124534 0.0
-0.0159193 0.0141021 0.0
-0.0176044 0.0158814 0.0
-0.0195427 0.0177977 0.0
-0.0217725 0.019853 0.0
-0.0243403 0.0220424 0.0
-0.0273019 0.0243505 0.0
-0.0307238 0.0267463 0.0
-0.0346837 0.029176 0.0
-0.0392688 0.0315525 0.0
-0.0445705 0.0337424 0.0
-0.0506671 0.0355496 0.0
-0.0575644 0.0366947 0.0
-0.0649438 0.0367957 0.0
-0.0710717 0.0353751 0.0
-0.0682708 0.0317427 0.0
-0.027597 0.0255503 0.0
0.13708 0.0150262 0.0
0.594657 0.00466447 0.0
-0.00439954 0.000150658 0.0
-0.00769579 0.000727458 0.0
-0.00877875 0.00155657 0.0
-0.00925344 0.00239731 0.0
-0.009663 0.00328423 0.0
-0.0101504 0.00420472 0.0
-0.010753 0.00517218 0.0
-0.0114849 0.00619474 0.0
-0.0123569 0.00728235 0.0
-0.013381 0.0084444 0.0
-0.0145713 0.00968997 0.0
-0.0159447 0.0110273 0.0
-0.0175211 0.0124633 0.0
-0.0193239 0.0140025 0.0
-0.0213808 0.0156461 0.0
-0.0237238 0.01739 0.0
-0.02639 0.0192224 0.0
-0.0294219 0.0211207 0.0
-0.0328668 0.0230468 0.0
-0.0367754 0.0249414 0.0
-0.0411983 0.0267165 0.0
-0.0461785 0.0282468 0.0
-0.0517335 0.0293604 0.0
-0.0577969 0.0298302 0.0
-0.0639753 0.0293673 0.0
-0.0684631 0.027647 0.0
-0.0635503 0.024223 0.0
-0.020341 0.0189743 0.0
0.14663 0.0108045 0.0
0.602447 0.00312041 0.0
-0.00479452 0.000130822 0.0
-0.00837644 0.000631031 0.0
-0.00955085 0.00134962 0.0
-0.0100645 0.00207793 0.0
-0.0105069 0.00284581 0.0
-0.0110327 0.00364212 0.0
-0.0116821 0.00447814 0.0
-0.0124692 0.00536051 0.0
-0.013405 0.00629725 0.0
-0.0145008 0.00729569 0.0
-0.0157703 0.00836261 0.0
-0.0172288 0.0095037 0.0
-0.0188944 0.0107229 0.0
-0.0207872 0.0120218 0.0
-0.0229304 0.013398 0.0
-0.0253493 0.0148439 0.0
-0.0280719 0.0163443 0.0
-0.0311278 0.0178737 0.0
-0.0345468 0.0193928 0.0
-0.0383567 0.0208442 0.0
-0.0425791 0.0221471 0.0
-0.047221 0.0231926 0.0
-0.0522588 0.0238391 0.0
-0.0575835 0.0239109 0.0
-0.0627655 0.0231979 0.0
-0.0659762 0.0214858 0.0
-0.0595129 0.0184911 0.0
-0.0145582 0.0142018 0.0
0.153861 0.00791225 0.0
0.608041 0.00217474 0.0
-0.00513146 0.000109526 0.0
-0.00895656 0.000527627 0.0
-0.0102086 0.00112785 0.0
-0.0107551 0.00173595 0.0
-0.0112251 0.00237679 0.0
-0.0117829 0.00304095 0.0
-0.012471 0.00373766 0.0
-0.0133038 0.00447217 0.0
-0.0142918 0.00525078 0.0
-0.0154461 0.00607907 0.0
-0.0167791 0.00696197 0.0
-0.0183048 0.00790323 0.0
-0.0200391 0.0089049 0.0
-0.0219991 0.0099665 0.0
-0.0242031 0.011084 0.0
-0.0266706 0.0122484 0.0
-0.0294208 0.0134439 0.0
-0.032472 0.0146458 0.0
-0.0358394 0.0158177 0.0
-0.0395327 0.0169087 0.0
-0.0435508 0.0178499 0.0
-0.047876 0.0185523 0.0
-0.0524582 0.0189046 0.0
-0.057165 0.018776 0.0
-0.0615527 0.0180182 0.0
-0.0637927 0.0164923 0.0
-0.0562019 0.0140193 0.0
-0.0100334 0.01063 0.0
0.159327 0.00584675 0.0
0.612135 0.00156009 0.0
-0.00540665 8.70122e-05 0.0
-0.00942985 0.000418443 0.0
-0.0107449 0.000893847 0.0
-0.011318 0.00137535 0.0
-0.0118102 0.00188264 0.0
-0.0123938 0.00240824 0.0
-0.0131129 0.00295936 0.0
-0.0139821 0.00354002 0.0
-0.0150116 0.00415501 0.0
-0.0162118 0.00480845 0.0
-0.0175943 0.00550384 0.0
-0.0191717 0.00624364 0.0
-0.0209576 0.00702872 0.0
-0.0229665 0.00785779 0.0
-0.0252126 0.00872647 0.0
-0.0277098 0.0096262 0.0
-0.0304703 0.0105428 0.0
-0.033503 0.0114549 0.0
-0.0368116 0.012332 0.0
-0.0403916 0.0131324 0.0
-0.0442261 0.0138015 0.0
-0.04828 0.0142703 0.0
-0.0524873 0.0144559 0.0
-0.0567038 0.0142642 0.0
-0.0604827 0.0135932 0.0
-0.0620036 0.0123539 0.0
-0.0536016 0.0104317 0.0
-0.00658004 0.00786385 0.0
0.163421 0.00430799 0.0
0.615153 0.00113601 0.0
-0.00561706 6.35279e-05 0.0
-0.00979122 0.000304685 0.0
-0.0111542 0.0006502 0.0
-0.0117475 0.0010001 0.0
-0.0122565 0.00136875 0.0
-0.0128598 0.00175081 0.0
-0.0136025 0.00215153 0.0
-0.0144993 0.00257382 0.0
-0.0155601 0.00302113 0.0
-0.0167948 0.00349641 0.0
-0.0182141 0.00400212 0.0
-0.0198297 0.00453987 0.0
-0.0216533 0.0051101 0.0
-0.0236969 0.00571156 0.0
-0.0259718 0.00634066 0.0
-0.0284874 0.00699066 0.0
-0.0312503 0.00765065 0.0
-0.0342623 0.00830441 0.0
-0.0375186 0.00892909 0.0
-0.0410042 0.00949397 0.0
-0.0446914 0.00995931 0.0
-0.0485338 0.0102759 0.0
-0.0524556 0.0103858 0.0
-0.0563072 0.0102243 0.0
-0.0596426 0.00972359 0.0
-0.0606502 0.00882636 0.0
-0.0516758 0.00745641 0.0
-0.00404967 0.00563763 0.0
0.166415 0.00310947 0.0
0.617361 0.000825723 0.0
-0.0057604 3.93256e-05 0.0
-0.0100368 0.000187559 0.0
-0.0114321 0.000399465 0.0
-0.0120391 0.000614099 0.0
-0.0125598 0.000840417 0.0
-0.0131767 0.00107532 0.0
-0.0139357 0.00132214 0.0
-0.0148516 0.0015828 0.0
-0.0159341 0.00185956 0.0
-0.0171927 0.00215438 0.0
-0.0186376 0.00246895 0.0
-0.0202796 0.00280447 0.0
-0.0221293 0.00316142 0.0
-0.0241971 0.00353925 0.0
-0.0264919 0.003936 0.0
-0.0290202 0.00434771 0.0
-0.0317846 0.00476788 0.0
-0.0347823 0.00518667 0.0
-0.0380024 0.00559012 0.0
-0.0414234 0.00595929 0.0
-0.0450101 0.00626968 0.0
-0.0487088 0.00649083 0.0
-0.0524381 0.00658669 0.0
-0.0560452 0.00651718 0.0
-0.059085 0.00623948 0.0
-0.0597504 0.00571603 0.0
-0.0503881 0.00489178 0.0
-0.00233297 0.0037658 0.0
0.168493 0.00212831 0.0
0.618929 0.000584258 0.0
-0.00583503 1.46636e-05 0.0
-0.0101638 6.82761e-05 0.0
-0.0115757 0.000144187 0.0
-0.01219 0.00022122 0.0
-0.0127171 0.000302832 0.0
-0.0133416 0.000388255 0.0
-0.0141098 0.000478917 0.0
-0.0150366 0.000575808 0.0
-0.0161315 0.000680076 0.0
-0.017404 0.000792841 0.0
-0.0188641 0.000915199 0.0
-0.020522 0.00104816 0.0
-0.022388 0.00119257 0.0
-0.0244715 0.00134901 0.0
-0.0267804 0.00151762 0.0
-0.0293195 0.00169792 0.0
-0.0320896 0.00188848 0.0
-0.0350852 0.00208662 0.0
-0.038292 0.002288 0.0
-0.0416849 0.00248606 0.0
-0.0452243 0.00267165 0.0
-0.0488525 0.00283247 0.0
-0.0524838 0.00295287 0.0
-0.0559624 0.00301385 0.0
-0.0588419 0.00299243 0.0
-0.059312 0.00286327 0.0
-0.0497094 0.00258096 0.0
-0.00135347 0.00211113 0.0
0.169778 0.00127683 0.0
0.619962 0.000382248 0.0
-0.00584008 -1.02109e-05 0.0
-0.0101708 -5.19701e-05 0.0
-0.0115832 -0.000113093 0.0
-0.0121983 -0.000174682 0.0
-0.0127266 -0.000238831 0.0
-0.0133528 -0.000303966 0.0
-0.0141232 -0.000370562 0.0
-0.0150527 -0.000438555 0.0
-0.016151 -0.00050788 0.0
-0.0174277 -0.000578238 0.0
-0.0188928 -0.000649066 0.0
-0.0205568 -0.000719459 0.0
-0.0224301 -0.000788087 0.0
-0.0245221 -0.000853092 0.0
-0.0268407 -0.000911983 0.0
-0.029391 -0.00096154 0.0
-0.0321734 -0.000997726 0.0
-0.035182 -0.00101565 0.0
-0.0384022 -0.00100961 0.0
-0.0418076 -0.000973301 0.0
-0.0453572 -0.000900168 0.0
-0.0489911 -0.000784131 0.0
-0.0526209 -0.000620642 0.0
-0.0560868 -0.00040839 0.0
-0.0589362 -0.000152349 0.0
-0.0593473 0.00013028 0.0
-0.0496311 0.00039432 0.0
-0.00107116 0.000560562 0.0
0.17034 0.000478272 0.0
0.620519 0.000193729 0.0
-0.00577531 -3.50742e-05 0.0
-0.0100574 -0.000172011 0.0
-0.0114544 -0.000369823 0.0
-0.0120637 -0.000569725 0.0
-0.012588 -0.000779375 0.0
-0.0132098 -0.000994897 0.0
-0.0139752 -0.0012187 0.0
-0.0148992 -0.00145169 0.0
-0.0159918 -0.00169493 0.0
-0.0172628 -0.00194901 0.0
-0.0187228 -0.00221397 0.0
-0.0203829 -0.0024891 0.0
-0.0222543 -0.00277268 0.0
-0.0243475 -0.00306166 0.0
-0.0266718 -0.00335132 0.0
-0.0292336 -0.00363477 0.0
-0.0320353 -0.00390257 0.0
-0.0350731 -0.00414216 0.0
-0.0383342 -0.00433758 0.0
-0.0417943 -0.00446925 0.0
-0.0454136 -0.00451418 0.0
-0.0491324 -0.00444693 0.0
-0.0528602 -0.00424139 0.0
-0.056432 -0.00387437 0.0
-0.0593827 -0.00333142 0.0
-0.0598645 -0.00262096 0.0
-0.0501433 -0.00179081 0.0
-0.00145459 -0.000974793 0.0
0.170202 -0.000314272 0.0
0.620602 3.32656e-06 0.0
-0.00564113 -5.96759e-05 0.0
-0.0098245 -0.000290626 0.0
-0.0111902 -0.000623401 0.0
-0.0117872 -0.000959961 0.0
-0.012302 -0.00131351 0.0
-0.0129133 -0.00167797 0.0
-0.0136664 -0.00205774 0.0
-0.0145764 -0.00245478 0.0
-0.0156537 -0.00287142 0.0
-0.0169086 -0.00330928 0.0
-0.0183527 -0.0037692 0.0
-0.019998 -0.00425093 0.0
-0.0218573 -0.00475267 0.0
-0.0239432 -0.00527058 0.0
-0.0262673 -0.00579809 0.0
-0.0288393 -0.00632513 0.0
-0.0316655 -0.00683723 0.0
-0.0347464 -0.00731453 0.0
-0.0380745 -0.00773085 0.0
-0.0416304 -0.00805301 0.0
-0.045379 -0.00824063 0.0
-0.0492636 -0.00824699 0.0
-0.0531935 -0.00802146 0.0
-0.0569973 -0.00751489 0.0
-0.060192 -0.00668844 0.0
-0.060891 -0.0055362 0.0
-0.0512881 -0.00410429 0.0
-0.00253627 -0.00258225 0.0
0.169371 -0.00112465 0.0
0.620201 -0.0001864 0.0
-0.00543875 -8.37394e-05 0.0
-0.00947425 -0.000406542 0.0
-0.010793 -0.000871166 0.0
-0.011371 -0.00134135 0.0
-0.0118709 -0.00183581 0.0
-0.0124653 -0.0023464 0.0
-0.0131985 -0.00287961 0.0
-0.0140855 -0.00343858 0.0
-0.0151373 -0.00402709 0.0
-0.016365 -0.00464803 0.0
-0.017781 -0.00530338 0.0
-0.0193993 -0.00599377 0.0
-0.0212343 -0.00671785 0.0
-0.0233017 -0.00747162 0.0
-0.0256167 -0.00824747 0.0
-0.0281937 -0.00903301 0.0
-0.031045 -0.00980969 0.0
-0.0341784 -0.0105511 0.0
-0.0375945 -0.0112216 0.0
-0.0412831 -0.0117741 0.0
-0.0452183 -0.0121499 0.0
-0.0493503 -0.0122783 0.0
-0.0535917 -0.0120793 0.0
-0.0577652 -0.0114705 0.0
-0.0613653 -0.0103787 0.0
-0.0624523 -0.00877309 0.0
-0.0531206 -0.00669007 0.0
-0.0044015 -0.00437435 0.0
0.16777 -0.00200889 0.0
0.619312 -0.000383364 0.0
-0.00517008 -0.000106988 0.0
-0.00900998 -0.00051846 0.0
-0.0102664 -0.00111038 0.0
-0.0108189 -0.00170974 0.0
-0.0112983 -0.00234064 0.0
-0.0118692 -0.00299311 0.0
-0.0125744 -0.0036758 0.0
-0.013429 -0.00439322 0.0
-0.0144443 -0.00515081 0.0
-0.0156323 -0.00595305 0.0
-0.0170068 -0.00680351 0.0
-0.0185834 -0.00770424 0.0
-0.0203792 -0.00865511 0.0
-0.0224131 -0.00965292 0.0
-0.0247052 -0.0106902 0.0
-0.0272762 -0.0117535 0.0
-0.0301461 -0.0128219 0.0
-0.033333 -0.013864 0.0
-0.0368496 -0.0148357 0.0
-0.0406998 -0.0156772 0.0
-0.0448724 -0.0163105 0.0
-0.0493318 -0.016638 0.0
-0.0539996 -0.0165441 0.0
-0.0586971 -0.0159018 0.0
-0.0628938 -0.0145881 0.0
-0.0645826 -0.0125272 0.0
-0.0557216 -0.00973062 0.0
-0.0071644 -0.00649675 0.0
0.165287 -0.00305987 0.0
0.617865 -0.000616162 0.0
-0.00483781 -0.00012914 0.0
-0.00843634 -0.000625054 0.0
-0.00961575 -0.00133824 0.0
-0.0101361 -0.00206082 0.0
-0.0105892 -0.00282216 0.0
-0.0111299 -0.0036107 0.0
-0.0117987 -0.00443732 0.0
-0.0126106 -0.00530809 0.0
-0.0135776 -0.00623037 0.0
-0.0147123 -0.00721062 0.0
-0.0160298 -0.00825447 0.0
-0.0175475 -0.00936612 0.0
-0.0192854 -0.0105476 0.0
-0.0212661 -0.0117977 0.0
-0.0235153 -0.0131106 0.0
-0.0260609 -0.014474 0.0
-0.028933 -0.0158666 0.0
-0.0321625 -0.0172547 0.0
-0.0357786 -0.0185885 0.0
-0.0398051 -0.0197973 0.0
-0.0442537 -0.0207847 0.0
-0.0491127 -0.021424 0.0
-0.0543246 -0.0215567 0.0
-0.0597189 -0.0209971 0.0
-0.0647443 -0.0195491 0.0
-0.0673129 -0.017059 0.0
-0.0591981 -0.0134843 0.0
-0.0109962 -0.00916351 0.0
0.161739 -0.00441332 0.0
0.615726 -0.000928214 0.0
-0.00444543 -0.000149916 0.0
-0.00775931 -0.000724982 0.0
-0.0088476 -0.00155189 0.0
-0.0093295 -0.0023902 0.0
-0.00975048 -0.00327433 0.0
-0.0102538 -0.00419142 0.0
-0.0108774 -0.00515464 0.0
-0.0116361 -0.0061718 0.0
-0.0125419 -0.00725242 0.0
-0.0136083 -0.00840531 0.0
-0.0148514 -0.00963873 0.0
-0.0162902 -0.0109598 0.0
-0.0179474 -0.0123737 0.0
-0.0198496 -0.0138828 0.0
-0.0220281 -0.015485 0.0
-0.024519 -0.0171714 0.0
-0.0273637 -0.0189236 0.0
-0.0306086 -0.0207097 0.0
-0.0343036 -0.0224784 0.0
-0.0384993 -0.0241528 0.0
-0.0432404 -0.0256211 0.0
-0.0485536 -0.0267284 0.0
-0.0544204 -0.0272677 0.0
-0.0606998 -0.026978 0.0
-0.0668347 -0.0255592 0.0
-0.0706513 -0.0227277 0.0
-0.0636774 -0.0183347 0.0
-0.0161372 -0.0127129 0.0
0.156839 -0.00629957 0.0
0.612649 -0.00139807 0.0
-0.00399716 -0.000169047 0.0
-0.00698619 -0.000816911 0.0
-0.00797016 -0.00174844 0.0
-0.00840736 -0.00269342 0.0
-0.00879043 -0.00369101 0.0
-0.00924925 -0.00472732 0.0
-0.00981875 -0.00581784 0.0
-0.0105131 -0.00697226 0.0
-0.0113443 -0.00820249 0.0
-0.0123262 -0.00952002 0.0
-0.0134755 -0.0109363 0.0
-0.0148126 -0.012462 0.0
-0.0163622 -0.0141069 0.0
-0.0181545 -0.0158783 0.0
-0.0202261 -0.0177799 0.0
-0.0226211 -0.0198096 0.0
-0.0253928 -0.0219561 0.0
-0.0286049 -0.0241946 0.0
-0.0323315 -0.0264792 0.0
-0.0366569 -0.0287345 0.0
-0.0416708 -0.0308421 0.0
-0.0474572 -0.0326247 0.0
-0.0540649 -0.0338272 0.0
-0.0614188 -0.0340995 0.0
-0.0689937 -0.0330006 0.0
-0.0745455 -0.0300411 0.0
-0.0692912 -0.0248747 0.0
-0.0229229 -0.0177142 0.0
0.150138 -0.00915017 0.0
0.608177 -0.00218631 0.0
-0.00349808 -0.000186294 0.0
-0.00612576 -0.000899538 0.0
-0.00699328 -0.00192502 0.0
-0.00737991 -0.00296598 0.0
-0.00771942 -0.00406592 0.0
-0.00812671 -0.00521021 0.0
-0.00863312 -0.0064166 0.0
-0.00925188 -0.00769675 0.0
-0.00999464 -0.00906506 0.0
-0.010875 -0.010536 0.0
-0.0119098 -0.0121246 0.0
-0.01312 -0.0138459 0.0
-0.0145315 -0.015715 0.0
-0.0161768 -0.0177459 0.0
-0.0180966 -0.0199506 0.0
-0.020342 -0.0223371 0.0
-0.0229773 -0.0249063 0.0
-0.026083 -0.0276471 0.0
-0.0297596 -0.0305291 0.0
-0.0341301 -0.033491 0.0
-0.0393411 -0.0364232 0.0
-0.0455559 -0.039143 0.0
-0.0529287 -0.0413607 0.0
-0.0615088 -0.0426357 0.0
-0.0708767 -0.042355 0.0
-0.0787798 -0.0397233 0.0
-0.0760794 -0.0340518 0.0
-0.0317284 -0.025183 0.0
0.140996 -0.0138282 0.0
0.601486 -0.00363977 0.0
-0.00295358 -0.000201492 0.0
-0.00518767 -0.000971596 0.0
-0.00592779 -0.00207861 0.0
-0.00625843 -0.00320313 0.0
-0.00654896 -0.00439241 0.0
-0.00689793 -0.00563136 0.0
-0.00733253 -0.00693983 0.0
-0.00786468 -0.00833142 0.0
-0.00850514 -0.00982306 0.0
-0.00926676 -0.0114323 0.0
-0.0101656 -0.0131778 0.0
-0.0112221 -0.0150797 0.0
-0.012462 -0.0171592 0.0
-0.0139185 -0.0194382 0.0
-0.0156341 -0.0219392 0.0
-0.0176641 -0.0246835 0.0
-0.0200807 -0.0276894 0.0
-0.0229786 -0.0309679 0.0
-0.0264822 -0.0345161 0.0
-0.0307545 -0.0383045 0.0
-0.0360065 -0.0422578 0.0
-0.0425027 -0.0462207 0.0
-0.0505485 -0.049907 0.0
-0.0604027 -0.052817 0.0
-0.071884 -0.054166 0.0
-0.0828866 -0.0527535 0.0
-0.08397 -0.0473475 0.0
-0.0431505 -0.0369399 0.0
0.128113 -0.0221141 0.0
0.590714 -0.00654087 0.0
-0.00237127 -0.00021433 0.0
-0.00418538 -0.00103106 0.0
-0.0047889 -0.00220468 0.0
-0.00505888 -0.00339797 0.0
-0.00529564 -0.00466099 0.0
-0.00558022 -0.00597844 0.0
-0.00593515 -0.00737197 0.0
-0.00637061 -0.00885698 0.0
-0.00689598 -0.0104527 0.0
-0.00752261 -0.0121797 0.0
-0.00826492 -0.0140605 0.0
-0.00914143 -0.0161199 0.0
-0.0101761 -0.0183857 0.0
-0.0114002 -0.0208885 0.0
-0.012855 -0.0236624 0.0
-0.0145957 -0.0267449 0.0
-0.0166967 -0.0301761 0.0