# vtk DataFile Version 3.0
Malha 2D com triângulos e temperatura
ASCII
DATASET UNSTRUCTURED_GRID

POINTS 961 double
0 0 0
1 0 0
1 1 0
0 1 0
0.0333333 0 0
0.0666667 0 0
0.1 0 0
0.133333 0 0
0.166667 0 0
0.2 0 0
0.233333 0 0
0.266667 0 0
0.3 0 0
0.333333 0 0
0.366667 0 0
0.4 0 0
0.433333 0 0
0.466667 0 0
0.5 0 0
0.533333 0 0
0.566667 0 0
0.6 0 0
0.633333 0 0
0.666667 0 0
0.7 0 0
0.733333 0 0
0.766667 0 0
0.8 0 0
0.833333 0 0
0.866667 0 0
0.9 0 0
0.933333 0 0
0.966667 0 0
1 0.0333333 0
1 0.0666667 0
1 0.1 0
1 0.133333 0
1 0.166667 0
1 0.2 0
1 0.233333 0
1 0.266667 0
1 0.3 0
1 0.333333 0
1 0.366667 0
1 0.4 0
1 0.433333 0
1 0.466667 0
1 0.5 0
1 0.533333 0
1 0.566667 0
1 0.6 0
1 0.633333 0
1 0.666667 0
1 0.7 0
1 0.733333 0
1 0.766667 0
1 0.8 0
1 0.833333 0
1 0.866667 0
1 0.9 0
1 0.933333 0
1 0.966667 0
0.966667 1 0
0.933333 1 0
0.9 1 0
0.866667 1 0
0.833333 1 0
0.8 1 0
0.766667 1 0
0.733333 1 0
0.7 1 0
0.666667 1 0
0.633333 1 0
0.6 1 0
0.566667 1 0
0.533333 1 0
0.5 1 0
0.466667 1 0
0.433333 1 0
0.4 1 0
0.366667 1 0
0.333333 1 0
0.3 1 0
0.266667 1 0
0.233333 1 0
0.2 1 0
0.166667 1 0
0.133333 1 0
0.1 1 0
0.0666667 1 0
0.0333333 1 0
0 0.966667 0
0 0.933333 0
0 0.9 0
0 0.866667 0
0 0.833333 0
0 0.8 0
0 0.766667 0
0 0.733333 0
0 0.7 0
0 0.666667 0
0 0.633333 0
0 0.6 0
0 0.566667 0
0 0.533333 0
0 0.5 0
0 0.466667 0
0 0.433333 0
0 0.4 0
0 0.366667 0
0 0.333333 0
0 0.3 0
0 0.266667 0
0 0.233333 0
0 0.2 0
0 0.166667 0
0 0.133333 0
0 0.1 0
0 0.0666667 0
0 0.0333333 0
0.0333333 0.0333333 0
0.0333333 0.0666667 0
0.0333333 0.1 0
0.0333333 0.133333 0
0.0333333 0.166667 0
0.0333333 0.2 0
0.0333333 0.233333 0
0.0333333 0.266667 0
0.0333333 0.3 0
0.0333333 0.333333 0
0.0333333 0.366667 0
0.0333333 0.4 0
0.0333333 0.433333 0
0.0333333 0.466667 0
0.0333333 0.5 0
0.0333333 0.533333 0
0.0333333 0.566667 0
0.0333333 0.6 0
0.0333333 0.633333 0
0.0333333 0.666667 0
0.0333333 0.7 0
0.0333333 0.733333 0
0.0333333 0.766667 0
0.0333333 0.8 0
0.0333333 0.833333 0
0.0333333 0.866667 0
0.0333333 0.9 0
0.0333333 0.933333 0
0.0333333 0.966667 0
0.0666667 0.0333333 0
0.0666667 0.0666667 0
0.0666667 0.1 0
0.0666667 0.133333 0
0.0666667 0.166667 0
0.0666667 0.2 0
0.0666667 0.233333 0
0.0666667 0.266667 0
0.0666667 0.3 0
0.0666667 0.333333 0
0.0666667 0.366667 0
0.0666667 0.4 0
0.0666667 0.433333 0
0.0666667 0.466667 0
0.0666667 0.5 0
0.0666667 0.533333 0
0.0666667 0.566667 0
0.0666667 0.6 0
0.0666667 0.633333 0
0.0666667 0.666667 0
0.0666667 0.7 0
0.0666667 0.733333 0
0.0666667 0.766667 0
0.0666667 0.8 0
0.0666667 0.833333 0
0.0666667 0.866667 0
0.0666667 0.9 0
0.0666667 0.933333 0
0.0666667 0.966667 0
0.1 0.0333333 0
0.1 0.0666667 0
0.1 0.1 0
0.1 0.133333 0
0.1 0.166667 0
0.1 0.2 0
0.1 0.233333 0
0.1 0.266667 0
0.1 0.3 0
0.1 0.333333 0
0.1 0.366667 0
0.1 0.4 0
0.1 0.433333 0
0.1 0.466667 0
0.1 0.5 0
0.1 0.533333 0
0.1 0.566667 0
0.1 0.6 0
0.1 0.633333 0
0.1 0.666667 0
0.1 0.7 0
0.1 0.733333 0
0.1 0.766667 0
0.1 0.8 0
0.1 0.833333 0
0.1 0.866667 0
0.1 0.9 0
0.1 0.933333 0
0.1 0.966667 0
0.133333 0.0333333 0
0.133333 0.0666667 0
0.133333 0.1 0
0.133333 0.133333 0
0.133333 0.166667 0
0.133333 0.2 0
0.133333 0.233333 0
0.133333 0.266667 0
0.133333 0.3 0
0.133333 0.333333 0
0.133333 0.366667 0
0.133333 0.4 0
0.133333 0.433333 0
0.133333 0.466667 0
0.133333 0.5 0
0.133333 0.533333 0
0.133333 0.566667 0
0.133333 0.6 0
0.133333 0.633333 0
0.133333 0.666667 0
0.133333 0.7 0
0.133333 0.733333 0
0.133333 0.766667 0
0.133333 0.8 0
0.133333 0.833333 0
0.133333 0.866667 0
0.133333 0.9 0
0.133333 0.933333 0
0.133333 0.966667 0
0.166667 0.0333333 0
0.166667 0.0666667 0
0.166667 0.1 0
0.166667 0.133333 0
0.166667 0.166667 0
0.166667 0.2 0
0.166667 0.233333 0
0.166667 0.266667 0
0.166667 0.3 0
0.166667 0.333333 0
0.166667 0.366667 0
0.166667 0.4 0
0.166667 0.433333 0
0.166667 0.466667 0
0.166667 0.5 0
0.166667 0.533333 0
0.166667 0.566667 0
0.166667 0.6 0
0.166667 0.633333 0
0.166667 0.666667 0
0.166667 0.7 0
0.166667 0.733333 0
0.166667 0.766667 0
0.166667 0.8 0
0.166667 0.833333 0
0.166667 0.866667 0
0.166667 0.9 0
0.166667 0.933333 0
0.166667 0.966667 0
0.2 0.0333333 0
0.2 0.0666667 0
0.2 0.1 0
0.2 0.133333 0
0.2 0.166667 0
0.2 0.2 0
0.2 0.233333 0
0.2 0.266667 0
0.2 0.3 0
0.2 0.333333 0
0.2 0.366667 0
0.2 0.4 0
0.2 0.433333 0
0.2 0.466667 0
0.2 0.5 0
0.2 0.533333 0
0.2 0.566667 0
0.2 0.6 0
0.2 0.633333 0
0.2 0.666667 0
0.2 0.7 0
0.2 0.733333 0
0.2 0.766667 0
0.2 0.8 0
0.2 0.833333 0
0.2 0.866667 0
0.2 0.9 0
0.2 0.933333 0
0.2 0.966667 0
0.233333 0.0333333 0
0.233333 0.0666667 0
0.233333 0.1 0
0.233333 0.133333 0
0.233333 0.166667 0
0.233333 0.2 0
0.233333 0.233333 0
0.233333 0.266667 0
0.233333 0.3 0
0.233333 0.333333 0
0.233333 0.366667 0
0.233333 0.4 0
0.233333 0.433333 0
0.233333 0.466667 0
0.233333 0.5 0
0.233333 0.533333 0
0.233333 0.566667 0
0.233333 0.6 0
0.233333 0.633333 0
0.233333 0.666667 0
0.233333 0.7 0
0.233333 0.733333 0
0.233333 0.766667 0
0.233333 0.8 0
0.233333 0.833333 0
0.233333 0.866667 0
0.233333 0.9 0
0.233333 0.933333 0
0.233333 0.966667 0
0.266667 0.0333333 0
0.266667 0.0666667 0
0.266667 0.1 0
0.266667 0.133333 0
0.266667 0.166667 0
0.266667 0.2 0
0.266667 0.233333 0
0.266667 0.266667 0
0.266667 0.3 0
0.266667 0.333333 0
0.266667 0.366667 0
0.266667 0.4 0
0.266667 0.433333 0
0.266667 0.466667 0
0.266667 0.5 0
0.266667 0.533333 0
0.266667 0.566667 0
0.266667 0.6 0
0.266667 0.633333 0
0.266667 0.666667 0
0.266667 0.7 0
0.266667 0.733333 0
0.266667 0.766667 0
0.266667 0.8 0
0.266667 0.833333 0
0.266667 0.866667 0
0.266667 0.9 0
0.266667 0.933333 0
0.266667 0.966667 0
0.3 0.0333333 0
0.3 0.0666667 0
0.3 0.1 0
0.3 0.133333 0
0.3 0.166667 0
0.3 0.2 0
0.3 0.233333 0
0.3 0.266667 0
0.3 0.3 0
0.3 0.333333 0
0.3 0.366667 0
0.3 0.4 0
0.3 0.433333 0
0.3 0.466667 0
0.3 0.5 0
0.3 0.533333 0
0.3 0.566667 0
0.3 0.6 0
0.3 0.633333 0
0.3 0.666667 0
0.3 0.7 0
0.3 0.733333 0
0.3 0.766667 0
0.3 0.8 0
0.3 0.833333 0
0.3 0.866667 0
0.3 0.9 0
0.3 0.933333 0
0.3 0.966667 0
0.333333 0.0333333 0
0.333333 0.0666667 0
0.333333 0.1 0
0.333333 0.133333 0
0.333333 0.166667 0
0.333333 0.2 0
0.333333 0.233333 0
0.333333 0.266667 0
0.333333 0.3 0
0.333333 0.333333 0
0.333333 0.366667 0
0.333333 0.4 0
0.333333 0.433333 0
0.333333 0.466667 0
0.333333 0.5 0
0.333333 0.533333 0
0.333333 0.566667 0
0.333333 0.6 0
0.333333 0.633333 0
0.333333 0.666667 0
0.333333 0.7 0
0.333333 0.733333 0
0.333333 0.766667 0
0.333333 0.8 0
0.333333 0.833333 0
0.333333 0.866667 0
0.333333 0.9 0
0.333333 0.933333 0
0.333333 0.966667 0
0.366667 0.0333333 0
0.366667 0.0666667 0
0.366667 0.1 0
0.366667 0.133333 0
0.366667 0.166667 0
0.366667 0.2 0
0.366667 0.233333 0
0.366667 0.266667 0
0.366667 0.3 0
0.366667 0.333333 0
0.366667 0.366667 0
0.366667 0.4 0
0.366667 0.433333 0
0.366667 0.466667 0
0.366667 0.5 0
0.366667 0.533333 0
0.366667 0.566667 0
0.366667 0.6 0
0.366667 0.633333 0
0.366667 0.666667 0
0.366667 0.7 0
0.366667 0.733333 0
0.366667 0.766667 0
0.366667 0.8 0
0.366667 0.833333 0
0.366667 0.866667 0
0.366667 0.9 0
0.366667 0.933333 0
0.366667 0.966667 0
0.4 0.0333333 0
0.4 0.0666667 0
0.4 0.1 0
0.4 0.133333 0
0.4 0.166667 0
0.4 0.2 0
0.4 0.233333 0
0.4 0.266667 0
0.4 0.3 0
0.4 0.333333 0
0.4 0.366667 0
0.4 0.4 0
0.4 0.433333 0
0.4 0.466667 0
0.4 0.5 0
0.4 0.533333 0
0.4 0.566667 0
0.4 0.6 0
0.4 0.633333 0
0.4 0.666667 0
0.4 0.7 0
0.4 0.733333 0
0.4 0.766667 0
0.4 0.8 0
0.4 0.833333 0
0.4 0.866667 0
0.4 0.9 0
0.4 0.933333 0
0.4 0.966667 0
0.433333 0.0333333 0
0.433333 0.0666667 0
0.433333 0.1 0
0.433333 0.133333 0
0.433333 0.166667 0
0.433333 0.2 0
0.433333 0.233333 0
0.433333 0.266667 0
0.433333 0.3 0
0.433333 0.333333 0
0.433333 0.366667 0
0.433333 0.4 0
0.433333 0.433333 0
0.433333 0.466667 0
0.433333 0.5 0
0.433333 0.533333 0
0.433333 0.566667 0
0.433333 0.6 0
0.433333 0.633333 0
0.433333 0.666667 0
0.433333 0.7 0
0.433333 0.733333 0
0.433333 0.766667 0
0.433333 0.8 0
0.433333 0.833333 0
0.433333 0.866667 0
0.433333 0.9 0
0.433333 0.933333 0
0.433333 0.966667 0
0.466667 0.0333333 0
0.466667 0.0666667 0
0.466667 0.1 0
0.466667 0.133333 0
0.466667 0.166667 0
0.466667 0.2 0
0.466667 0.233333 0
0.466667 0.266667 0
0.466667 0.3 0
0.466667 0.333333 0
0.466667 0.366667 0
0.466667 0.4 0
0.466667 0.433333 0
0.466667 0.466667 0
0.466667 0.5 0
0.466667 0.533333 0
0.466667 0.566667 0
0.466667 0.6 0
0.466667 0.633333 0
0.466667 0.666667 0
0.466667 0.7 0
0.466667 0.733333 0
0.466667 0.766667 0
0.466667 0.8 0
0.466667 0.833333 0
0.466667 0.866667 0
0.466667 0.9 0
0.466667 0.933333 0
0.466667 0.966667 0
0.5 0.0333333 0
0.5 0.0666667 0
0.5 0.1 0
0.5 0.133333 0
0.5 0.166667 0
0.5 0.2 0
0.5 0.233333 0
0.5 0.266667 0
0.5 0.3 0
0.5 0.333333 0
0.5 0.366667 0
0.5 0.4 0
0.5 0.433333 0
0.5 0.466667 0
0.5 0.5 0
0.5 0.533333 0
0.5 0.566667 0
0.5 0.6 0
0.5 0.633333 0
0.5 0.666667 0
0.5 0.7 0
0.5 0.733333 0
0.5 0.766667 0
0.5 0.8 0
0.5 0.833333 0
0.5 0.866667 0
0.5 0.9 0
0.5 0.933333 0
0.5 0.966667 0
0.533333 0.0333333 0
0.533333 0.0666667 0
0.533333 0.1 0
0.533333 0.133333 0
0.533333 0.166667 0
0.533333 0.2 0
0.533333 0.233333 0
0.533333 0.266667 0
0.533333 0.3 0
0.533333 0.333333 0
0.533333 0.366667 0
0.533333 0.4 0
0.533333 0.433333 0
0.533333 0.466667 0
0.533333 0.5 0
0.533333 0.533333 0
0.533333 0.566667 0
0.533333 0.6 0
0.533333 0.633333 0
0.533333 0.666667 0
0.533333 0.7 0
0.533333 0.733333 0
0.533333 0.766667 0
0.533333 0.8 0
0.533333 0.833333 0
0.533333 0.866667 0
0.533333 0.9 0
0.533333 0.933333 0
0.533333 0.966667 0
0.566667 0.0333333 0
0.566667 0.0666667 0
0.566667 0.1 0
0.566667 0.133333 0
0.566667 0.166667 0
0.566667 0.2 0
0.566667 0.233333 0
0.566667 0.266667 0
0.566667 0.3 0
0.566667 0.333333 0
0.566667 0.366667 0
0.566667 0.4 0
0.566667 0.433333 0
0.566667 0.466667 0
0.566667 0.5 0
0.566667 0.533333 0
0.566667 0.566667 0
0.566667 0.6 0
0.566667 0.633333 0
0.566667 0.666667 0
0.566667 0.7 0
0.566667 0.733333 0
0.566667 0.766667 0
0.566667 0.8 0
0.566667 0.833333 0
0.566667 0.866667 0
0.566667 0.9 0
0.566667 0.933333 0
0.566667 0.966667 0
0.6 0.0333333 0
0.6 0.0666667 0
0.6 0.1 0
0.6 0.133333 0
[...]
CELL_DATA 900
VECTORS velocity double
6.97089e-05 -6.85857e-05 0.0
-8.30626e-06 -1.11546e-05 0.0
-8.34227e-05 0.000344383 0.0
-0.000142012 0.000915985 0.0
-0.000178262 0.00166647 0.0
-0.000201962 0.00253882 0.0
-0.000219122 0.00350989 0.0
-0.000234815 0.00456651 0.0
-0.000251952 0.00571047 0.0
-0.000272418 0.00695142 0.0
-0.000297405 0.00830583 0.0
-0.000327902 0.00979525 0.0
-0.000364997 0.0114464 0.0
-0.000410198 0.0132921 0.0
-0.000465802 0.0153732 0.0
-0.000535444 0.0177422 0.0
-0.000624994 0.0204684 0.0
-0.0007441 0.0236456 0.0
-0.000909014 0.0274038 0.0
-0.00114818 0.0319266 0.0
-0.00151379 0.0374789 0.0
-0.00210715 0.0444529 0.0
-0.0031311 0.0534559 0.0
-0.00499952 0.0654544 0.0
-0.00850245 0.0821318 0.0
-0.0150213 0.105985 0.0
-0.0257261 0.142151 0.0
-0.0381572 0.189354 0.0
-0.0135166 0.262422 0.0
0.216764 0.173911 0.0
9.21041e-06 1.23467e-05 0.0
-0.000444879 0.000446902 0.0
-0.000877999 0.00148765 0.0
-0.00123927 0.00295576 0.0
-0.00150923 0.00480884 0.0
-0.00171777 0.00695157 0.0
-0.00189204 0.00934283 0.0
-0.00205744 0.0119585 0.0
-0.00223271 0.0148025 0.0
-0.002432 0.0178964 0.0
-0.00266626 0.0212773 0.0
-0.00294534 0.0249947 0.0
-0.00327989 0.0291108 0.0
-0.00368328 0.0337018 0.0
-0.00417379 0.0388617 0.0
-0.00477735 0.0447081 0.0
-0.0055312 0.0513909 0.0
-0.00648881 0.0591026 0.0
-0.00772679 0.0680912 0.0
-0.00935528 0.0786741 0.0
-0.0115345 0.0912472 0.0
-0.0145052 0.106285 0.0
-0.0186377 0.12431 0.0
-0.0245165 0.145786 0.0
-0.0329452 0.170876 0.0
-0.0447952 0.198575 0.0
-0.0585934 0.225568 0.0
-0.0651519 0.24019 0.0
-0.00308966 0.218412 0.0
0.304979 0.116367 0.0
-0.000349125 8.68524e-05 0.0
-0.00148217 0.000859779 0.0
-0.00252168 0.00247201 0.0
-0.00339261 0.004623 0.0
-0.00407636 0.0072735 0.0
-0.00462696 0.010308 0.0
-0.00510283 0.0136815 0.0
-0.00555987 0.0173675 0.0
-0.00604267 0.0213738 0.0
-0.00658618 0.0257292 0.0
-0.00721852 0.0304822 0.0
-0.00796506 0.0356968 0.0
-0.00885258 0.0414517 0.0
-0.0099134 0.0478418 0.0
-0.0111899 0.0549807 0.0
-0.0127393 0.0630054 0.0
-0.0146393 0.0720815 0.0
-0.0169939 0.0824086 0.0
-0.0199382 0.0942226 0.0
-0.0236415 0.10779 0.0
-0.0283043 0.123384 0.0
-0.0341464 0.141229 0.0
-0.0413648 0.161374 0.0
-0.0500303 0.183465 0.0
-0.0596774 0.206248 0.0
-0.0683175 0.226846 0.0
-0.0684713 0.238548 0.0
-0.0386796 0.230752 0.0
0.0917509 0.173599 0.0
0.476037 0.0770214 0.0
-0.000905323 0.000140706 0.0
-0.00289794 0.00116752 0.0
-0.00464276 0.00319662 0.0
-0.00608373 0.00581712 0.0
-0.00723255 0.0089924 0.0
-0.00817519 0.0125945 0.0
-0.00900475 0.0165811 0.0
-0.00980877 0.0209271 0.0
-0.0106586 0.0256436 0.0
-0.0116108 0.0307637 0.0
-0.0127112 0.0363398 0.0
-0.0140006 0.0424401 0.0
-0.0155208 0.0491463 0.0
-0.0173205 0.0565539 0.0
-0.0194606 0.064773 0.0
-0.0220201 0.0739292 0.0
-0.0251 0.0841644 0.0
-0.0288258 0.0956341 0.0
-0.033343 0.108497 0.0
-0.0388024 0.12289 0.0
-0.0453238 0.138879 0.0
-0.0529274 0.156365 0.0
-0.0613963 0.174904 0.0
-0.0700184 0.193466 0.0
-0.0769404 0.209877 0.0
-0.0777834 0.220445 0.0
-0.0615093 0.218018 0.0
-0.00115095 0.194377 0.0
0.167896 0.129186 0.0
0.575038 0.0491693 0.0
-0.001602 0.000166847 0.0
-0.00460069 0.00134213 0.0
-0.00713052 0.00362127 0.0
-0.00918654 0.00651367 0.0
-0.0108337 0.00998077 0.0
-0.0121989 0.0138852 0.0
-0.0134142 0.0181875 0.0
-0.0145997 0.0228644 0.0
-0.015854 0.0279298 0.0
-0.0172547 0.0334174 0.0
-0.0188643 0.0393797 0.0
-0.0207374 0.0458818 0.0
-0.0229281 0.0530001 0.0
-0.0254966 0.0608197 0.0
-0.0285154 0.0694336 0.0
-0.0320733 0.078941 0.0
-0.0362771 0.0894422 0.0
-0.041247 0.101031 0.0
-0.0471 0.113773 0.0
-0.0539122 0.127677 0.0
-0.0616461 0.142623 0.0
-0.0700235 0.15827 0.0
-0.0783018 0.173867 0.0
-0.084892 0.188047 0.0
-0.0865643 0.198331 0.0
-0.0769022 0.201066 0.0
-0.0423403 0.189825 0.0
0.0456639 0.158964 0.0
0.241668 0.095886 0.0
0.647153 0.0308818 0.0
-0.00235829 0.000175517 0.0
-0.00643649 0.00141255 0.0
-0.00978251 0.00379542 0.0
-0.012461 0.00679108 0.0
-0.0146052 0.0103576 0.0
-0.0163907 0.0143522 0.0
-0.0179913 0.0187379 0.0
-0.0195601 0.023493 0.0
-0.0212212 0.0286326 0.0
-0.0230714 0.0341897 0.0
-0.0251874 0.0402137 0.0
-0.0276341 0.0467639 0.0
-0.0304734 0.0539066 0.0
-0.0337708 0.0617126 0.0
-0.0376011 0.0702533 0.0
-0.042051 0.079597 0.0
-0.0472159 0.089801 0.0
-0.0531882 0.100899 0.0
-0.0600271 0.112878 0.0
-0.0676993 0.125639 0.0
-0.0759736 0.138934 0.0
-0.0842451 0.152267 0.0
-0.0912505 0.16473 0.0
-0.094611 0.174854 0.0
-0.0899892 0.180171 0.0
-0.0695751 0.177484 0.0
-0.0185545 0.161274 0.0
0.090516 0.128756 0.0
0.303688 0.0720682 0.0
0.698333 0.0196252 0.0
-0.00312829 0.000172772 0.0
-0.00830645 0.00140481 0.0
-0.0124696 0.00377425 0.0
-0.0157605 0.00673819 0.0
-0.0183872 0.0102522 0.0
-0.0205783 0.0141731 0.0
-0.0225511 0.0184658 0.0
-0.0244913 0.0231105 0.0
-0.0265469 0.0281226 0.0
-0.0288317 0.0335335 0.0
-0.0314337 0.0393883 0.0
-0.0344251 0.0457393 0.0
-0.037871 0.0526426 0.0
-0.0418368 0.0601537 0.0
-0.0463925 0.0683237 0.0
-0.0516126 0.0771929 0.0
-0.0575696 0.0867817 0.0
-0.064313 0.0970761 0.0
-0.0718281 0.108002 0.0
-0.0799561 0.119391 0.0
-0.088261 0.130912 0.0
-0.0958166 0.141994 0.0
-0.100879 0.151676 0.0
-0.100388 0.158519 0.0
-0.0891441 0.16022 0.0
-0.058374 0.154158 0.0
0.0071597 0.135621 0.0
0.132333 0.104237 0.0
0.356013 0.0547564 0.0
0.735553 0.012627 0.0
-0.00387515 0.000163713 0.0
-0.0101262 0.00134333 0.0
-0.0150783 0.00361118 0.0
-0.0189537 0.00643992 0.0
-0.0220355 0.0097849 0.0
-0.0246071 0.0135076 0.0
-0.026929 0.0175758 0.0
-0.0292183 0.0219717 0.0
-0.0316453 0.0267109 0.0
-0.0343386 0.031823 0.0
-0.0373948 0.0373492 0.0
-0.0408903 0.0433355 0.0
-0.0448899 0.0498284 0.0
-0.0494544 0.056871 0.0
-0.0546433 0.0644976 0.0
-0.0605127 0.0727269 0.0
-0.0671035 0.0815517 0.0
-0.0744147 0.0909237 0.0
-0.0823492 0.10073 0.0
-0.0906191 0.110755 0.0
-0.0985885 0.120628 0.0
-0.105033 0.12975 0.0
-0.107787 0.137167 0.0
-0.103231 0.141531 0.0
-0.0855314 0.140779 0.0
-0.0453403 0.132774 0.0
0.0322272 0.113852 0.0
0.169641 0.0847492 0.0
0.399503 0.0421681 0.0
0.763123 0.00827928 0.0
-0.00457644 0.000150914 0.0
-0.0118385 0.00124444 0.0
-0.0175292 0.00334554 0.0
-0.0219475 0.00596099 0.0
-0.0254491 0.00904833 0.0
-0.0283705 0.0124787 0.0
-0.0310139 0.0162239 0.0
-0.0336259 0.020269 0.0
-0.0363973 0.0246301 0.0
-0.0394693 0.0293358 0.0
-0.0429453 0.034424 0.0
-0.0469033 0.0399356 0.0
-0.0514056 0.0459105 0.0
-0.0565051 0.0523828 0.0
-0.0622473 0.0593751 0.0
-0.0686657 0.0668917 0.0
-0.0757655 0.0749077 0.0
-0.0834906 0.083354 0.0
-0.0916597 0.092094 0.0
-0.099857 0.10089 0.0
-0.107258 0.109354 0.0
-0.112369 0.116885 0.0
-0.11266 0.122574 0.0
-0.104063 0.125178 0.0
-0.0802956 0.122901 0.0
-0.0317494 0.113994 0.0
0.0558144 0.0957457 0.0
0.202584 0.0692987 0.0
0.435648 0.0329038 0.0
0.783952 0.00554955 0.0
-0.0052158 0.000135746 0.0
-0.0134 0.00111872 0.0
-0.0197606 0.00300437 0.0
-0.0246693 0.00534702 0.0
-0.0285482 0.00810867 0.0
-0.0317843 0.0111745 0.0
-0.0347185 0.0145213 0.0
-0.0376248 0.0181387 0.0
-0.040712 0.0220438 0.0
-0.0441324 0.0262648 0.0
-0.0479946 0.0308378 0.0
-0.0523769 0.0358009 0.0
-0.0573372 0.0411899 0.0
-0.0629193 0.0470341 0.0
-0.0691527 0.0533503 0.0
-0.0760461 0.0601357 0.0
-0.083567 0.0673569 0.0
-0.0916029 0.0749353 0.0
-0.0998882 0.0827242 0.0
-0.107884 0.0904777 0.0
-0.114589 0.0978048 0.0
-0.118267 0.10412 0.0
-0.116081 0.108564 0.0
-0.103609 0.110003 0.0
-0.0742671 0.10689 0.0
-0.0184016 0.097783 0.0
0.0774608 0.0807161 0.0
0.231388 0.0570062 0.0
0.4657 0.0260003 0.0
0.799972 0.00381315 0.0
-0.00578145 0.000118709 0.0
-0.0147784 0.000972207 0.0
-0.0217264 0.00260456 0.0
-0.0270633 0.00462774 0.0
-0.0312719 0.00700998 0.0
-0.0347845 0.00965395 0.0
-0.0379771 0.0125431 0.0
-0.0411482 0.0156722 0.0
-0.044523 0.0190605 0.0
-0.0482629 0.0227368 0.0
-0.0524809 0.0267369 0.0
-0.057255 0.0310981 0.0
-0.0626385 0.0358556 0.0
-0.0686652 0.0410379 0.0
-0.0753488 0.0466617 0.0
-0.0826724 0.0527241 0.0
-0.0905657 0.0591922 0.0
-0.0988591 0.0659875 0.0
-0.107204 0.0729635 0.0
-0.114942 0.0798757 0.0
-0.120905 0.0863389 0.0
-0.123139 0.0917854 0.0
-0.118545 0.0954052 0.0
-0.102428 0.0961586 0.0
-0.0680174 0.0927134 0.0
-0.00575049 0.0838601 0.0
0.0970248 0.0682157 0.0
0.256437 0.0471635 0.0
0.490743 0.0207856 0.0
0.812498 0.00269045 0.0
-0.00626363 9.99318e-05 0.0
-0.0159479 0.000808316 0.0
-0.0233892 0.00215655 0.0
-0.0290847 0.00382228 0.0
-0.0335704 0.00578129 0.0
-0.0373186 0.00795655 0.0
-0.0407359 0.0103391 0.0
-0.044142 0.0129299 0.0
-0.0477762 0.0157512 0.0
-0.0518085 0.0188333 0.0
-0.0563555 0.022213 0.0
-0.0614952 0.0259291 0.0
-0.0672767 0.030019 0.0
-0.0737253 0.034515 0.0
-0.0808391 0.0394391 0.0
-0.088577 0.0447954 0.0
-0.0968312 0.0505591 0.0
-0.105376 0.0566606 0.0
-0.113779 0.0629626 0.0
-0.121264 0.0692284 0.0
-0.126504 0.0750822 0.0
-0.127343 0.0799718 0.0
-0.120457 0.0831255 0.0
-0.100942 0.0835741 0.0
-0.0619223 0.080164 0.0
0.00598454 0.0718419 0.0
0.114501 0.0577731 0.0
0.278135 0.039215 0.0
0.511668 0.016789 0.0
0.822438 0.00195022 0.0
-0.00665379 7.93938e-05 0.0
-0.0168866 0.000629066 0.0
-0.024718 0.00166712 0.0
-0.0306963 0.00294359 0.0
-0.0354027 0.00444265 0.0
-0.0393431 0.00610968 0.0
-0.0429497 0.00794394 0.0
-0.0465601 0.00995353 0.0
-0.0504258 0.0121637 0.0
-0.0547243 0.0146072 0.0
-0.0595763 0.0173232 0.0
-0.0650605 0.0203535 0.0
-0.071224 0.0237408 0.0
-0.0780851 0.0275253 0.0
-0.0856291 0.0317394 0.0
-0.0937926 0.0364009 0.0
-0.102432 0.0415009 0.0
-0.111264 0.0469877 0.0
-0.119774 0.0527405 0.0
-0.127066 0.0585363 0.0
-0.131654 0.0640104 0.0
-0.131192 0.0686207 0.0
-0.122153 0.0716198 0.0
-0.099481 0.0720883 0.0
-0.0562673 0.0689945 0.0
0.0165562 0.0614798 0.0
0.129951 0.0489845 0.0
0.296871 0.032734 0.0
0.529197 0.0136772 0.0
0.830426 0.00145048 0.0
-0.00694406 5.70626e-05 0.0
-0.0175756 0.00043597 0.0
-0.0256863 0.00114149 0.0
-0.0318666 0.00200175 0.0
-0.0367338 0.00300979 0.0
-0.0408204 0.00413483 0.0
-0.0445789 0.00538466 0.0
-0.0483614 0.0067746 0.0
-0.0524293 0.00833316 0.0
-0.0569674 0.0100958 0.0
-0.0621012 0.0121045 0.0
-0.0679124 0.0144059 0.0
-0.0744481 0.0170504 0.0
-0.0817236 0.0200892 0.0
-0.0897147 0.0235705 0.0
-0.098339 0.0275323 0.0
-0.107419 0.0319896 0.0
-0.116617 0.0369172 0.0
-0.12533 0.0422197 0.0
-0.132538 0.0476932 0.0
-0.136594 0.052986 0.0
-0.134961 0.0575615 0.0
-0.12393 0.0606807 0.0
-0.0983281 0.0614516 0.0
-0.0512875 0.0589214 0.0
0.0259088 0.052382 0.0
0.143489 0.0414547 0.0
0.312994 0.0273484 0.0
0.543903 0.0111947 0.0
0.836906 0.00109973 0.0
-0.00712737 3.29601e-05 0.0
-0.0179986 0.000230553 0.0
-0.0262718 0.000584652 0.0
-0.0325689 0.00100629 0.0
-0.0375339 0.00149743 0.0
-0.0417183 0.00205199 0.0
-0.0455889 0.00268599 0.0
-0.0495083 0.00342168 0.0
-0.0537466 0.00429037 0.0
-0.0584951 0.00532995 0.0
-0.0638858 0.00658533 0.0
-0.0700058 0.00810868 0.0
-0.0769066 0.00995949 0.0
-0.0846046 0.0122034 0.0
-0.0930716 0.014909 0.0
-0.102211 0.0181403 0.0
-0.111817 0.0219445 0.0
-0.121497 0.0263329 0.0
-0.130554 0.0312441 0.0
-0.137837 0.0365016 0.0
-0.141528 0.041771 0.0
-0.138895 0.0465184 0.0
-0.126049 0.0499998 0.0
-0.0977313 0.0513247 0.0
-0.0471714 0.0495814 0.0
0.0339606 0.044158 0.0
0.155188 0.0348137 0.0
0.32677 0.0227318 0.0
0.55621 0.00913815 0.0
0.842182 0.00083644 0.0
-0.00719708 7.13814e-06 0.0
-0.0181415 1.46174e-05 0.0
-0.0264556 2.21568e-06 0.0
-0.0327813 -3.2419e-05 0.0
-0.0377782 -7.86196e-05 0.0
-0.0420088 -0.0001176 0.0
-0.0459479 -0.000125808 0.0
-0.0499649 -7.4912e-05 0.0
-0.0543367 6.80211e-05 0.0
-0.0592614 0.000342121 0.0
-0.0648789 0.000794533 0.0
-0.0712857 0.00148263 0.0
-0.0785424 0.00247573 0.0
-0.0866732 0.00385565 0.0
-0.0956523 0.00571458 0.0
-0.105376 0.00814868 0.0
-0.115613 0.0112453 0.0
-0.125919 0.0150638 0.0
-0.135502 0.0195873 0.0
-0.14307 0.0246763 0.0
-0.146618 0.0300235 0.0
-0.143198 0.0350999 0.0
-0.128743 0.0391495 0.0
-0.0979178 0.0412595 0.0
-0.0440963 0.0405217 0.0
0.0406259 0.03637 0.0
0.16508 0.0286702 0.0
0.33838 0.018567 0.0
0.566408 0.00732742 0.0
0.84644 0.000614839 0.0
-0.00714822 -2.01402e-05 0.0
-0.0179942 -0.000209543 0.0
-0.0262245 -0.000599279 0.0
-0.0324879 -0.00110216 0.0
-0.0374485 -0.00169943 0.0
-0.0416707 -0.00234809 0.0
-0.0456311 -0.00301851 0.0
-0.0497015 -0.00367794 0.0
-0.0541628 -0.00429371 0.0
-0.0592206 -0.0048274 0.0
-0.065025 -0.00523153 0.0
-0.0716853 -0.00544511 0.0
-0.0792775 -0.0053899 0.0
-0.087841 -0.00496747 0.0
-0.0973622 -0.00405907 0.0
-0.10774 -0.00253056 0.0
-0.118733 -0.000246265 0.0
-0.129845 0.0029048 0.0
-0.140173 0.00696092 0.0
-0.148281 0.0118421 0.0
-0.15196 0.0172859 0.0
-0.14803 0.0227761 0.0
-0.132218 0.0275476 0.0
-0.0991104 0.0306513 0.0
-0.0422576 0.0311508 0.0
0.0457758 0.028475 0.0
0.173121 0.0225629 0.0
0.347886 0.0145049 0.0
0.574638 0.00558014 0.0
0.849765 0.000394995 0.0
-0.00697643 -4.85236e-05 0.0
-0.0175486 -0.000438864 0.0
-0.0255691 -0.00121124 0.0
-0.0316787 -0.00218721 0.0
-0.0365332 -0.00334098 0.0
-0.0406891 -0.0046069 0.0
-0.0446179 -0.00595133 0.0
-0.0486894 -0.00733957 0.0
-0.0531868 -0.0087417 0.0
-0.058323 -0.0101227 0.0
-0.0642606 -0.011438 0.0
-0.0711264 -0.012626 0.0
-0.0790188 -0.0136027 0.0
-0.0880025 -0.014255 0.0
-0.0980875 -0.0144381 0.0
-0.109187 -0.0139778 0.0
-0.121046 -0.0126856 0.0
-0.133124 -0.0103905 0.0
-0.144442 -0.00697594 0.0
-0.153403 -0.00245026 0.0
-0.157567 0.002989 0.0
-0.153468 0.00885423 0.0
-0.136621 0.0144158 0.0
-0.101526 0.0186873 0.0
-0.0419016 0.020675 0.0
0.0491852 0.0197552 0.0
0.179143 0.0158978 0.0
0.355198 0.0101179 0.0
0.580863 0.00368722 0.0
0.852128 0.000136156 0.0
-0.00667982 -7.76125e-05 0.0
-0.0168029 -0.00066909 0.0
-0.0244885 -0.0018219 0.0
-0.0303532 -0.00326677 0.0
-0.0350305 -0.00497225 0.0
-0.0390594 -0.00685224 0.0
-0.0428983 -0.00887153 0.0
-0.0469105 -0.0109962 0.0
-0.051379 -0.0132024 0.0
-0.0565235 -0.0154623 0.0
-0.0625207 -0.0177387 0.0
-0.0695195 -0.019975 0.0
-0.0776475 -0.022087 0.0
-0.0870047 -0.0239533 0.0
-0.0976388 -0.0254086 0.0
-0.109493 -0.0262423 0.0
-0.122322 -0.0262091 0.0
-0.135554 -0.0250594 0.0
-0.148119 -0.0225867 0.0
-0.15825 -0.0187063 0.0
-0.163273 -0.0135449 0.0
-0.159478 -0.00749488 0.0
-0.142084 -0.0012473 0.0
-0.105368 0.0042612 0.0
-0.0432919 0.00800676 0.0
0.0505568 0.00924647 0.0
0.182821 0.00789616 0.0
0.359993 0.00485657 0.0
0.58482 0.00138528 0.0
0.853385 -0.00021141 0.0
-0.00625883 -0.000106733 0.0
-0.0157613 -0.000894434 0.0
-0.0229902 -0.0024158 0.0
-0.0285213 -0.00431382 0.0
-0.0329504 -0.00655299 0.0
-0.0367887 -0.00902966 0.0
-0.0404741 -0.0117097 0.0
-0.044358 -0.0145631 0.0
-0.0487201 -0.0175755 0.0
-0.0537858 -0.0207312 0.0
-0.0597466 -0.024006 0.0
-0.0667764 -0.0273558 0.0
-0.0750382 -0.0307055 0.0
-0.084678 -0.0339359 0.0
-0.0957952 -0.0368722 0.0
-0.108384 -0.0392768 0.0
-0.122227 -0.0408542 0.0
-0.136748 -0.0412765 0.0
-0.150802 -0.0402328 0.0
-0.162456 -0.0375109 0.0
-0.168791 -0.0330977 0.0
-0.165786 -0.0272552 0.0
-0.148398 -0.0205788 0.0
-0.110806 -0.013897 0.0
-0.0468935 -0.00819457 0.0
0.0492874 -0.00434068 0.0
0.183553 -0.00253162 0.0
0.361716 -0.00200867 0.0
0.585993 -0.00160832 0.0
0.853198 -0.000674783 0.0
-0.00571753 -0.00013498 0.0
-0.0144366 -0.00110729 0.0
-0.021094 -0.00297287 0.0
-0.0262068 -0.0052934 0.0
-0.0303183 -0.00803117 0.0
-0.0339013 -0.0110685 0.0
-0.0373652 -0.0143749 0.0
-0.0410441 -0.0179272 0.0
-0.0452104 -0.0217244 0.0
-0.0500923 -0.0257673 0.0
-0.0558951 -0.0300519 0.0
-0.0628184 -0.0345558 0.0
-0.0710652 -0.0392256 0.0
-0.0808352 -0.0439601 0.0
-0.0922943 -0.0485934 0.0
-0.105507 -0.0528809 0.0
-0.120318 -0.0564951 0.0
-0.136173 -0.0590415 0.0
-0.151885 -0.0601019 0.0
-0.165392 -0.059311 0.0
-0.173541 -0.0564559 0.0
-0.172014 -0.0515637 0.0
-0.155443 -0.0449796 0.0
-0.117768 -0.0373342 0.0
-0.0528281 -0.0295244 0.0
0.0449291 -0.0224276 0.0
0.180464 -0.0165168 0.0
0.359169 -0.0112461 0.0
0.583292 -0.00564951 0.0
0.851103 -0.00131699 0.0
-0.00506465 -0.000161084 0.0
-0.0128529 -0.00129757 0.0
-0.0188348 -0.00346689 0.0
-0.0234518 -0.00616032 0.0
-0.0271799 -0.00933986 0.0
-0.0304435 -0.0128779 0.0
-0.0336161 -0.0167494 0.0
-0.0370083 -0.0209407 0.0
-0.04088 -0.0254668 0.0
-0.0454579 -0.0303498 0.0
-0.0509573 -0.0356124 0.0
-0.0576013 -0.0412645 0.0
-0.065632 -0.0472889 0.0
-0.0753073 -0.0536231 0.0
-0.0868704 -0.060137 0.0
-0.100477 -0.0666108 0.0
-0.116062 -0.0727186 0.0
-0.133138 -0.0780289 0.0
-0.150532 -0.0820314 0.0
-0.166109 -0.0841948 0.0
-0.176552 -0.0840515 0.0
-0.177287 -0.0812831 0.0
-0.162643 -0.0758119 0.0
-0.126259 -0.067821 0.0
-0.0617397 -0.0578947 0.0
0.0363828 -0.0467427 0.0
0.1723 -0.0354457 0.0
0.351067 -0.0238633 0.0
0.575539 -0.0112847 0.0
0.846396 -0.00227012 0.0
-0.00431497 -0.000183268 0.0
-0.0110487 -0.00145197 0.0
-0.0162669 -0.00386397 0.0
-0.0203208 -0.00685684 0.0
-0.023606 -0.0103941 0.0
-0.02649 -0.0143426 0.0
-0.0293032 -0.0186837 0.0
-0.0323264 -0.0234146 0.0
-0.0358012 -0.0285675 0.0
-0.0399462 -0.0341888 0.0
-0.0449797 -0.0403334 0.0
-0.0511407 -0.0470527 0.0
-0.0587045 -0.0543816 0.0
-0.0679839 -0.0623195 0.0
-0.079302 -0.0708056 0.0
-0.0929194 -0.0796887 0.0
-0.108893 -0.0886965 0.0
-0.126853 -0.0974139 0.0
-0.145715 -0.10528 0.0
-0.163374 -0.11161 0.0
-0.176463 -0.115648 0.0
-0.180277 -0.116623 0.0
-0.168923 -0.113841 0.0
-0.135721 -0.106754 0.0
-0.0738795 -0.0952883 0.0
0.0226072 -0.0795635 0.0
0.157443 -0.0613847 0.0
0.335413 -0.0414622 0.0
0.560781 -0.0193744 0.0
0.837923 -0.00373755 0.0
-0.00349211 -0.000198876 0.0
-0.00908145 -0.00155288 0.0
-0.0134699 -0.00412089 0.0
-0.0169079 -0.00731066 0.0
-0.0197005 -0.0110887 0.0
-0.0221528 -0.0153206 0.0
-0.0245458 -0.0199938 0.0
-0.0271252 -0.0251153 0.0
-0.0301068 -0.0307342 0.0
-0.0336929 -0.0369207 0.0
-0.0380943 -0.0437643 0.0
-0.0435538 -0.0513637 0.0
-0.0503655 -0.0598184 0.0
-0.0588828 -0.0692119 0.0
-0.0694995 -0.0795886 0.0
-0.0825826 -0.0909181 0.0
-0.0983316 -0.103051 0.0
-0.116548 -0.115669 0.0
-0.13633 -0.12824 0.0
-0.15574 -0.139987 0.0
-0.171545 -0.149874 0.0
-0.179108 -0.156618 0.0
-0.172505 -0.158746 0.0
-0.144833 -0.154709 0.0
-0.0887961 -0.143257 0.0
0.00272509 -0.123592 0.0
0.134059 -0.0970185 0.0
0.30975 -0.0663891 0.0
0.536391 -0.0313729 0.0
0.82396 -0.0061326 0.0
-0.00262948 -0.000204264 0.0
-0.00702993 -0.0015784 0.0
-0.0105506 -0.00418566 0.0
-0.0133377 -0.00743638 0.0
-0.0156016 -0.0113005 0.0
-0.0175825 -0.0156462 0.0
-0.0195087 -0.0204647 0.0
-0.0215851 -0.0257702 0.0
-0.0239951 -0.0316242 0.0
-0.0269151 -0.0381172 0.0
-0.0305354 -0.0453696 0.0
-0.0350848 -0.0535271 0.0
-0.0408538 -0.0627575 0.0
-0.0482098 -0.073242 0.0
-0.0575899 -0.0851586 0.0
-0.0694482 -0.0986484 0.0
-0.0841293 -0.113762 0.0
-0.101647 -0.130385 0.0
-0.121379 -0.148136 0.0
-0.141724 -0.166269 0.0
-0.15982 -0.183566 0.0
-0.171399 -0.198271 0.0
-0.170819 -0.208067 0.0
-0.151228 -0.210192 0.0
-0.104893 -0.201714 0.0
-0.0234576 -0.180509 0.0
0.0999393 -0.145405 0.0
0.270558 -0.101954 0.0
0.498192 -0.0499045 0.0
0.801293 -0.0103922 0.0
-0.00177767 -0.000193741 0.0
-0.00500468 -0.00150144 0.0
-0.00765587 -0.00399915 0.0
-0.00978055 -0.00713971 0.0
-0.0114995 -0.0108952 0.0
-0.01299 -0.0151393 0.0
-0.0144265 -0.0198626 0.0
-0.01597 -0.0250815 0.0
-0.0177651 -0.030863 0.0
-0.0199533 -0.0373092 0.0
-0.0226913 -0.0445615 0.0
-0.0261741 -0.0528011 0.0
-0.0306602 -0.0622541 0.0
-0.0364929 -0.0731944 0.0
-0.0441061 -0.0859398 0.0
-0.0539935 -0.100832 0.0
-0.0666119 -0.118186 0.0
-0.0821938 -0.1382 0.0
-0.100469 -0.16081 0.0
-0.120337 -0.185505 0.0
-0.139571 -0.211117 0.0
-0.15463 -0.235627 0.0
-0.160584 -0.256032 0.0
-0.151101 -0.268355 0.0
-0.118388 -0.267772 0.0
-0.053019 -0.249899 0.0
0.0557949 -0.209748 0.0
0.216036 -0.152806 0.0
0.442197 -0.0796366 0.0
0.765358 -0.0185352 0.0
-0.000996575 -0.000161486 0.0
-0.00313098 -0.00129768 0.0
-0.00494831 -0.00351041 0.0
-0.00642288 -0.00633877 0.0
-0.00760184 -0.00975321 0.0
-0.00860653 -0.0136348 0.0
-0.0095596 -0.0179687 0.0
-0.010576 -0.0227675 0.0
-0.0117582 -0.0280944 0.0
-0.013206 -0.0340505 0.0
-0.0150314 -0.0407813 0.0
-0.0173779 -0.048481 0.0
-0.0204434 -0.0574057 0.0
-0.0245031 -0.0678881 0.0
-0.0299257 -0.0803525 0.0