# vtk DataFile Version 3.0
Malha 2D com triângulos e temperatura
ASCII
DATASET UNSTRUCTURED_GRID

POINTS 961 double
0 0 0
1 0 0
1 1 0
0 1 0
0.0333333 0 0
0.0666667 0 0
0.1 0 0
0.133333 0 0
0.166667 0 0
0.2 0 0
0.233333 0 0
0.266667 0 0
0.3 0 0
0.333333 0 0
0.366667 0 0
0.4 0 0
0.433333 0 0
0.466667 0 0
0.5 0 0
0.533333 0 0
0.566667 0 0
0.6 0 0
0.633333 0 0
0.666667 0 0
0.7 0 0
0.733333 0 0
0.766667 0 0
0.8 0 0
0.833333 0 0
0.866667 0 0
0.9 0 0
0.933333 0 0
0.966667 0 0
1 0.0333333 0
1 0.0666667 0
1 0.1 0
1 0.133333 0
1 0.166667 0
1 0.2 0
1 0.233333 0
1 0.266667 0
1 0.3 0
1 0.333333 0
1 0.366667 0
1 0.4 0
1 0.433333 0
1 0.466667 0
1 0.5 0
1 0.533333 0
1 0.566667 0
1 0.6 0
1 0.633333 0
1 0.666667 0
1 0.7 0
1 0.733333 0
1 0.766667 0
1 0.8 0
1 0.833333 0
1 0.866667 0
1 0.9 0
1 0.933333 0
1 0.966667 0
0.966667 1 0
0.933333 1 0
0.9 1 0
0.866667 1 0
0.833333 1 0
0.8 1 0
0.766667 1 0
0.733333 1 0
0.7 1 0
0.666667 1 0
0.633333 1 0
0.6 1 0
0.566667 1 0
0.533333 1 0
0.5 1 0
0.466667 1 0
0.433333 1 0
0.4 1 0
0.366667 1 0
0.333333 1 0
0.3 1 0
0.266667 1 0
0.233333 1 0
0.2 1 0
0.166667 1 0
0.133333 1 0
0.1 1 0
0.0666667 1 0
0.0333333 1 0
0 0.966667 0
0 0.933333 0
0 0.9 0
0 0.866667 0
0 0.833333 0
0 0.8 0
0 0.766667 0
0 0.733333 0
0 0.7 0
0 0.666667 0
0 0.633333 0
0 0.6 0
0 0.566667 0
0 0.533333 0
0 0.5 0
0 0.466667 0
0 0.433333 0
0 0.4 0
0 0.366667 0
0 0.333333 0
0 0.3 0
0 0.266667 0
0 0.233333 0
0 0.2 0
0 0.166667 0
0 0.133333 0
0 0.1 0
0 0.0666667 0
0 0.0333333 0
0.0333333 0.0333333 0
0.0333333 0.0666667 0
0.0333333 0.1 0
0.0333333 0.133333 0
0.0333333 0.166667 0
0.0333333 0.2 0
0.0333333 0.233333 0
0.0333333 0.266667 0
0.0333333 0.3 0
0.0333333 0.333333 0
0.0333333 0.366667 0
0.0333333 0.4 0
0.0333333 0.433333 0
0.0333333 0.466667 0
0.0333333 0.5 0
0.0333333 0.533333 0
0.0333333 0.566667 0
0.0333333 0.6 0
0.0333333 0.633333 0
0.0333333 0.666667 0
0.0333333 0.7 0
0.0333333 0.733333 0
0.0333333 0.766667 0
0.0333333 0.8 0
0.0333333 0.833333 0
0.0333333 0.866667 0
0.0333333 0.9 0
0.0333333 0.933333 0
0.0333333 0.966667 0
0.0666667 0.0333333 0
0.0666667 0.0666667 0
0.0666667 0.1 0
0.0666667 0.133333 0
0.0666667 0.166667 0
0.0666667 0.2 0
0.0666667 0.233333 0
0.0666667 0.266667 0
0.0666667 0.3 0
0.0666667 0.333333 0
0.0666667 0.366667 0
0.0666667 0.4 0
0.0666667 0.433333 0
0.0666667 0.466667 0
0.0666667 0.5 0
0.0666667 0.533333 0
0.0666667 0.566667 0
0.0666667 0.6 0
0.0666667 0.633333 0
0.0666667 0.666667 0
0.0666667 0.7 0
0.0666667 0.733333 0
0.0666667 0.766667 0
0.0666667 0.8 0
0.0666667 0.833333 0
0.0666667 0.866667 0
0.0666667 0.9 0
0.0666667 0.933333 0
0.0666667 0.966667 0
0.1 0.0333333 0
0.1 0.0666667 0
0.1 0.1 0
0.1 0.133333 0
0.1 0.166667 0
0.1 0.2 0
0.1 0.233333 0
0.1 0.266667 0
0.1 0.3 0
0.1 0.333333 0
0.1 0.366667 0
0.1 0.4 0
0.1 0.433333 0
0.1 0.466667 0
0.1 0.5 0
0.1 0.533333 0
0.1 0.566667 0
0.1 0.6 0
0.1 0.633333 0
0.1 0.666667 0
0.1 0.7 0
0.1 0.733333 0
0.1 0.766667 0
0.1 0.8 0
0.1 0.833333 0
0.1 0.866667 0
0.1 0.9 0
0.1 0.933333 0
0.1 0.966667 0
0.133333 0.0333333 0
0.133333 0.0666667 0
0.133333 0.1 0
0.133333 0.133333 0
0.133333 0.166667 0
0.133333 0.2 0
0.133333 0.233333 0
0.133333 0.266667 0
0.133333 0.3 0
0.133333 0.333333 0
0.133333 0.366667 0
0.133333 0.4 0
0.133333 0.433333 0
0.133333 0.466667 0
0.133333 0.5 0
0.133333 0.533333 0
0.133333 0.566667 0
0.133333 0.6 0
0.133333 0.633333 0
0.133333 0.666667 0
0.133333 0.7 0
0.133333 0.733333 0
0.133333 0.766667 0
0.133333 0.8 0
0.133333 0.833333 0
0.133333 0.866667 0
0.133333 0.9 0
0.133333 0.933333 0
0.133333 0.966667 0
0.166667 0.0333333 0
0.166667 0.0666667 0
0.166667 0.1 0
0.166667 0.133333 0
0.166667 0.166667 0
0.166667 0.2 0
0.166667 0.233333 0
0.166667 0.266667 0
0.166667 0.3 0
0.166667 0.333333 0
0.166667 0.366667 0
0.166667 0.4 0
0.166667 0.433333 0
0.166667 0.466667 0
0.166667 0.5 0
0.166667 0.533333 0
0.166667 0.566667 0
0.166667 0.6 0
0.166667 0.633333 0
0.166667 0.666667 0
0.166667 0.7 0
0.166667 0.733333 0
0.166667 0.766667 0
0.166667 0.8 0
0.166667 0.833333 0
0.166667 0.866667 0
0.166667 0.9 0
0.166667 0.933333 0
0.166667 0.966667 0
0.2 0.0333333 0
0.2 0.0666667 0
0.2 0.1 0
0.2 0.133333 0
0.2 0.166667 0
0.2 0.2 0
0.2 0.233333 0
0.2 0.266667 0
0.2 0.3 0
0.2 0.333333 0
0.2 0.366667 0
0.2 0.4 0
0.2 0.433333 0
0.2 0.466667 0
0.2 0.5 0
0.2 0.533333 0
0.2 0.566667 0
0.2 0.6 0
0.2 0.633333 0
0.2 0.666667 0
0.2 0.7 0
0.2 0.733333 0
0.2 0.766667 0
0.2 0.8 0
0.2 0.833333 0
0.2 0.866667 0
0.2 0.9 0
0.2 0.933333 0
0.2 0.966667 0
0.233333 0.0333333 0
0.233333 0.0666667 0
0.233333 0.1 0
0.233333 0.133333 0
0.233333 0.166667 0
0.233333 0.2 0
0.233333 0.233333 0
0.233333 0.266667 0
0.233333 0.3 0
0.233333 0.333333 0
0.233333 0.366667 0
0.233333 0.4 0
0.233333 0.433333 0
0.233333 0.466667 0
0.233333 0.5 0
0.233333 0.533333 0
0.233333 0.566667 0
0.233333 0.6 0
0.233333 0.633333 0
0.233333 0.666667 0
0.233333 0.7 0
0.233333 0.733333 0
0.233333 0.766667 0
0.233333 0.8 0
0.233333 0.833333 0
0.233333 0.866667 0
0.233333 0.9 0
0.233333 0.933333 0
0.233333 0.966667 0
0.266667 0.0333333 0
0.266667 0.0666667 0
0.266667 0.1 0
0.266667 0.133333 0
0.266667 0.166667 0
0.266667 0.2 0
0.266667 0.233333 0
0.266667 0.266667 0
0.266667 0.3 0
0.266667 0.333333 0
0.266667 0.366667 0
0.266667 0.4 0
0.266667 0.433333 0
0.266667 0.466667 0
0.266667 0.5 0
0.266667 0.533333 0
0.266667 0.566667 0
0.266667 0.6 0
0.266667 0.633333 0
0.266667 0.666667 0
0.266667 0.7 0
0.266667 0.733333 0
0.266667 0.766667 0
0.266667 0.8 0
0.266667 0.833333 0
0.266667 0.866667 0
0.266667 0.9 0
0.266667 0.933333 0
0.266667 0.966667 0
0.3 0.0333333 0
0.3 0.0666667 0
0.3 0.1 0
0.3 0.133333 0
0.3 0.166667 0
0.3 0.2 0
0.3 0.233333 0
0.3 0.266667 0
0.3 0.3 0
0.3 0.333333 0
0.3 0.366667 0
0.3 0.4 0
0.3 0.433333 0
0.3 0.466667 0
0.3 0.5 0
0.3 0.533333 0
0.3 0.566667 0
0.3 0.6 0
0.3 0.633333 0
0.3 0.666667 0
0.3 0.7 0
0.3 0.733333 0
0.3 0.766667 0
0.3 0.8 0
0.3 0.833333 0
0.3 0.866667 0
0.3 0.9 0
0.3 0.933333 0
0.3 0.966667 0
0.333333 0.0333333 0
0.333333 0.0666667 0
0.333333 0.1 0
0.333333 0.133333 0
0.333333 0.166667 0
0.333333 0.2 0
0.333333 0.233333 0
0.333333 0.266667 0
0.333333 0.3 0
0.333333 0.333333 0
0.333333 0.366667 0
0.333333 0.4 0
0.333333 0.433333 0
0.333333 0.466667 0
0.333333 0.5 0
0.333333 0.533333 0
0.333333 0.566667 0
0.333333 0.6 0
0.333333 0.633333 0
0.333333 0.666667 0
0.333333 0.7 0
0.333333 0.733333 0
0.333333 0.766667 0
0.333333 0.8 0
0.333333 0.833333 0
0.333333 0.866667 0
0.333333 0.9 0
0.333333 0.933333 0
0.333333 0.966667 0
0.366667 0.0333333 0
0.366667 0.0666667 0
0.366667 0.1 0
0.366667 0.133333 0
0.366667 0.166667 0
0.366667 0.2 0
0.366667 0.233333 0
0.366667 0.266667 0
0.366667 0.3 0
0.366667 0.333333 0
0.366667 0.366667 0
0.366667 0.4 0
0.366667 0.433333 0
0.366667 0.466667 0
0.366667 0.5 0
0.366667 0.533333 0
0.366667 0.566667 0
0.366667 0.6 0
0.366667 0.633333 0
0.366667 0.666667 0
0.366667 0.7 0
0.366667 0.733333 0
0.366667 0.766667 0
0.366667 0.8 0
0.366667 0.833333 0
0.366667 0.866667 0
0.366667 0.9 0
0.366667 0.933333 0
0.366667 0.966667 0
0.4 0.0333333 0
0.4 0.0666667 0
0.4 0.1 0
0.4 0.133333 0
0.4 0.166667 0
0.4 0.2 0
0.4 0.233333 0
0.4 0.266667 0
0.4 0.3 0
0.4 0.333333 0
0.4 0.366667 0
0.4 0.4 0
0.4 0.433333 0
0.4 0.466667 0
0.4 0.5 0
0.4 0.533333 0
0.4 0.566667 0
0.4 0.6 0
0.4 0.633333 0
0.4 0.666667 0
0.4 0.7 0
0.4 0.733333 0
0.4 0.766667 0
0.4 0.8 0
0.4 0.833333 0
0.4 0.866667 0
0.4 0.9 0
0.4 0.933333 0
0.4 0.966667 0
0.433333 0.0333333 0
0.433333 0.0666667 0
0.433333 0.1 0
0.433333 0.133333 0
0.433333 0.166667 0
0.433333 0.2 0
0.433333 0.233333 0
0.433333 0.266667 0
0.433333 0.3 0
0.433333 0.333333 0
0.433333 0.366667 0
0.433333 0.4 0
0.433333 0.433333 0
0.433333 0.466667 0
0.433333 0.5 0
0.433333 0.533333 0
0.433333 0.566667 0
0.433333 0.6 0
0.433333 0.633333 0
0.433333 0.666667 0
0.433333 0.7 0
0.433333 0.733333 0
0.433333 0.766667 0
0.433333 0.8 0
0.433333 0.833333 0
0.433333 0.866667 0
0.433333 0.9 0
0.433333 0.933333 0
0.433333 0.966667 0
0.466667 0.0333333 0
0.466667 0.0666667 0
0.466667 0.1 0
0.466667 0.133333 0
0.466667 0.166667 0
0.466667 0.2 0
0.466667 0.233333 0
0.466667 0.266667 0
0.466667 0.3 0
0.466667 0.333333 0
0.466667 0.366667 0
0.466667 0.4 0
0.466667 0.433333 0
0.466667 0.466667 0
0.466667 0.5 0
0.466667 0.533333 0
0.466667 0.566667 0
0.466667 0.6 0
0.466667 0.633333 0
0.466667 0.666667 0
0.466667 0.7 0
0.466667 0.733333 0
0.466667 0.766667 0
0.466667 0.8 0
0.466667 0.833333 0
0.466667 0.866667 0
0.466667 0.9 0
0.466667 0.933333 0
0.466667 0.966667 0
0.5 0.0333333 0
0.5 0.0666667 0
0.5 0.1 0
0.5 0.133333 0
0.5 0.166667 0
0.5 0.2 0
0.5 0.233333 0
0.5 0.266667 0
0.5 0.3 0
0.5 0.333333 0
0.5 0.366667 0
0.5 0.4 0
0.5 0.433333 0
0.5 0.466667 0
0.5 0.5 0
0.5 0.533333 0
0.5 0.566667 0
0.5 0.6 0
0.5 0.633333 0
0.5 0.666667 0
0.5 0.7 0
0.5 0.733333 0
0.5 0.766667 0
0.5 0.8 0
0.5 0.833333 0
0.5 0.866667 0
0.5 0.9 0
0.5 0.933333 0
0.5 0.966667 0
0.533333 0.0333333 0
0.533333 0.0666667 0
0.533333 0.1 0
0.533333 0.133333 0
0.533333 0.166667 0
0.533333 0.2 0
0.533333 0.233333 0
0.533333 0.266667 0
0.533333 0.3 0
0.533333 0.333333 0
0.533333 0.366667 0
0.533333 0.4 0
0.533333 0.433333 0
0.533333 0.466667 0
0.533333 0.5 0
0.533333 0.533333 0
0.533333 0.566667 0
0.533333 0.6 0
0.533333 0.633333 0
0.533333 0.666667 0
0.533333 0.7 0
0.533333 0.733333 0
0.533333 0.766667 0
0.533333 0.8 0
0.533333 0.833333 0
0.533333 0.866667 0
0.533333 0.9 0
0.533333 0.933333 0
0.533333 0.966667 0
0.566667 0.0333333 0
0.566667 0.0666667 0
0.566667 0.1 0
0.566667 0.133333 0
0.566667 0.166667 0
0.566667 0.2 0
0.566667 0.233333 0
0.566667 0.266667 0
0.566667 0.3 0
0.566667 0.333333 0
0.566667 0.366667 0
0.566667 0.4 0
0.566667 0.433333 0
0.566667 0.466667 0
0.566667 0.5 0
0.566667 0.533333 0
0.566667 0.566667 0
0.566667 0.6 0
0.566667 0.633333 0
0.566667 0.666667 0
0.566667 0.7 0
0.566667 0.733333 0
0.566667 0.766667 0
0.566667 0.8 0
0.566667 0.833333 0
0.566667 0.866667 0
0.566667 0.9 0
0.566667 0.933333 0
0.566667 0.966667 0
0.6 0.0333333 0
0.6 0.0666667 0
0.6 0.1 0
0.6 0.133333 0
[...]
CELL_DATA 900
VECTORS velocity double
1.84864e-05 -1.75304e-05 0.0
-0.000105352 0.000242222 0.0
-0.000170072 0.000836135 0.0
-0.00019978 0.00152983 0.0
-0.000210988 0.00229784 0.0
-0.000219852 0.00310247 0.0
-0.000230833 0.00395225 0.0
-0.000245691 0.00485488 0.0
-0.00026467 0.00582449 0.0
-0.000288056 0.00687563 0.0
-0.000316274 0.00802511 0.0
-0.000350015 0.00929199 0.0
-0.000390268 0.0106987 0.0
-0.000438421 0.012272 0.0
-0.000496432 0.0140452 0.0
-0.000567149 0.01606 0.0
-0.000654912 0.0183711 0.0
-0.000766781 0.0210517 0.0
-0.000915243 0.0242051 0.0
-0.00112435 0.0279825 0.0
-0.00144399 0.032621 0.0
-0.00198185 0.0385089 0.0
-0.00297023 0.0463315 0.0
-0.00489155 0.057286 0.0
-0.00864123 0.0735805 0.0
-0.0156411 0.0984465 0.0
-0.0267866 0.137707 0.0
-0.0388842 0.189164 0.0
-0.01284 0.265237 0.0
0.218628 0.176084 0.0
-0.000244027 0.000108169 0.0
-0.000829328 0.000827535 0.0
-0.00115723 0.00211709 0.0
-0.00132856 0.00358829 0.0
-0.00142383 0.00521342 0.0
-0.00150445 0.00693112 0.0
-0.0015948 0.00875417 0.0
-0.00170566 0.0106968 0.0
-0.00184146 0.0127858 0.0
-0.00200572 0.0150509 0.0
-0.00220243 0.0175269 0.0
-0.00243688 0.0202534 0.0
-0.00271624 0.0232776 0.0
-0.00305036 0.0266553 0.0
-0.00345294 0.0304555 0.0
-0.00394356 0.0347644 0.0
-0.00455093 0.039693 0.0
-0.00531867 0.0453878 0.0
-0.00631567 0.0520478 0.0
-0.00765547 0.0599496 0.0
-0.00953251 0.0694884 0.0
-0.0122879 0.0812291 0.0
-0.0165103 0.0959842 0.0
-0.0231576 0.114814 0.0
-0.0334753 0.138945 0.0
-0.0484138 0.168692 0.0
-0.0653032 0.201919 0.0
-0.0722371 0.226024 0.0
-0.00615854 0.21444 0.0
0.307834 0.11722 0.0
-0.000835812 0.000169628 0.0
-0.00211232 0.00112593 0.0
-0.00283299 0.00276718 0.0
-0.00321984 0.00461028 0.0
-0.00345614 0.00663489 0.0
-0.00366088 0.0087729 0.0
-0.00388792 0.0110417 0.0
-0.00416145 0.013459 0.0
-0.00449318 0.0160573 0.0
-0.00489213 0.018872 0.0
-0.00536813 0.0219445 0.0
-0.00593371 0.0253218 0.0
-0.00660551 0.0290588 0.0
-0.00740604 0.0332199 0.0
-0.00836626 0.0378829 0.0
-0.00952954 0.0431428 0.0
-0.0109581 0.0491182 0.0
-0.012743 0.0559597 0.0
-0.0150216 0.0638621 0.0
-0.0180044 0.0730789 0.0
-0.0220191 0.0839424 0.0
-0.0275709 0.0968745 0.0
-0.0353877 0.11238 0.0
-0.046349 0.130931 0.0
-0.0608491 0.152598 0.0
-0.0770079 0.176129 0.0
-0.085119 0.19627 0.0
-0.0587456 0.202149 0.0
0.0775031 0.161764 0.0
0.474918 0.076117 0.0
-0.00150273 0.000191651 0.0
-0.00352141 0.00123675 0.0
-0.0046436 0.00300375 0.0
-0.00524437 0.00496921 0.0
-0.0056229 0.00712078 0.0
-0.00595636 0.00938926 0.0
-0.00632706 0.011795 0.0
-0.00677166 0.0143566 0.0
-0.00730866 0.0171075 0.0
-0.00795218 0.0200836 0.0
-0.00871744 0.0233264 0.0
-0.00962346 0.0268825 0.0
-0.0106951 0.0308051 0.0
-0.0119655 0.0351556 0.0
-0.0134792 0.0400055 0.0
-0.0152975 0.0454396 0.0
-0.0175058 0.0515585 0.0
-0.0202251 0.058483 0.0
-0.0236296 0.0663572 0.0
-0.0279729 0.0753501 0.0
-0.0336228 0.0856508 0.0
-0.041096 0.0974454 0.0
-0.0510328 0.110851 0.0
-0.0639576 0.125765 0.0
-0.079293 0.141429 0.0
-0.0928416 0.155901 0.0
-0.0906109 0.163549 0.0
-0.0386436 0.156791 0.0
0.137009 0.112366 0.0
0.56583 0.047098 0.0
-0.00220214 0.000189758 0.0
-0.00499127 0.00123618 0.0
-0.00651994 0.00300274 0.0
-0.0073347 0.00495849 0.0
-0.00785579 0.00709496 0.0
-0.0083195 0.00934361 0.0
-0.00883609 0.0117257 0.0
-0.0094541 0.0142594 0.0
-0.0101983 0.0169765 0.0
-0.0110872 0.0199109 0.0
-0.0121408 0.0231009 0.0
-0.0133833 0.0265886 0.0
-0.0148458 0.0304207 0.0
-0.0165694 0.0346496 0.0
-0.0186079 0.0393335 0.0
-0.0210336 0.0445378 0.0
-0.0239444 0.0503351 0.0
-0.0274742 0.0568043 0.0
-0.0318079 0.0640275 0.0
-0.0372003 0.0720824 0.0
-0.0439964 0.0810236 0.0
-0.0526329 0.0908471 0.0
-0.0635479 0.101409 0.0
-0.0768031 0.112302 0.0
-0.0908641 0.122467 0.0
-0.0996076 0.129994 0.0
-0.0859955 0.130068 0.0
-0.0120003 0.117703 0.0
0.191528 0.0769745 0.0
0.627766 0.0283143 0.0
-0.00287609 0.000180427 0.0
-0.00641708 0.00118626 0.0
-0.00833655 0.00288495 0.0
-0.00935418 0.00476138 0.0
-0.010009 0.00680869 0.0
-0.010595 0.00896049 0.0
-0.0112488 0.0112375 0.0
-0.0120298 0.0136561 0.0
-0.0129679 0.0162458 0.0
-0.0140851 0.0190368 0.0
-0.0154045 0.0220627 0.0
-0.0169537 0.0253596 0.0
-0.0187678 0.028966 0.0
-0.0208914 0.0329228 0.0
-0.0233825 0.0372732 0.0
-0.0263165 0.0420615 0.0
-0.0297926 0.0473311 0.0
-0.0339416 0.0531203 0.0
-0.0389366 0.0594557 0.0
-0.0450042 0.0663388 0.0
-0.05243 0.0737238 0.0
-0.0615355 0.0814806 0.0
-0.0725426 0.089321 0.0
-0.0851108 0.096716 0.0
-0.0969882 0.102594 0.0
-0.100764 0.105327 0.0
-0.0775547 0.101229 0.0
0.0124497 0.0871036 0.0
0.233422 0.0531446 0.0
0.668243 0.0170458 0.0
-0.00351423 0.00016787 0.0
-0.00777122 0.00111038 0.0
-0.0100601 0.00270292 0.0
-0.0112684 0.00446003 0.0
-0.0120477 0.00637557 0.0
-0.0127472 0.0083866 0.0
-0.013528 0.0105123 0.0
-0.0144594 0.0127671 0.0
-0.0155753 0.0151772 0.0
-0.0169004 0.017769 0.0
-0.0184594 0.0205708 0.0
-0.0202817 0.0236122 0.0
-0.0224037 0.026923 0.0
-0.0248706 0.0305333 0.0
-0.0277398 0.0344717 0.0
-0.0310836 0.0387632 0.0
-0.0349941 0.0434259 0.0
-0.0395885 0.0484654 0.0
-0.0450147 0.0538659 0.0
-0.0514556 0.0595765 0.0
-0.0591238 0.0654894 0.0
-0.0682198 0.0714102 0.0
-0.0787696 0.0769984 0.0
-0.090109 0.0817213 0.0
-0.0994619 0.0846308 0.0
-0.0985637 0.0844468 0.0
-0.0674247 0.0784258 0.0
0.0340836 0.0647763 0.0
0.266083 0.0372136 0.0
0.695279 0.0103658 0.0
-0.0041042 0.000153779 0.0
-0.00902538 0.00101865 0.0
-0.0116555 0.00247957 0.0
-0.013039 0.00409011 0.0
-0.0139317 0.00584472 0.0
-0.0147338 0.0076851 0.0
-0.0156293 0.00962845 0.0
-0.0166957 0.0116872 0.0
-0.0179705 0.0138841 0.0
-0.0194796 0.0162414 0.0
-0.0212487 0.0187825 0.0
-0.023307 0.0215306 0.0
-0.0256903 0.0245079 0.0
-0.0284416 0.0277346 0.0
-0.0316142 0.031227 0.0
-0.0352729 0.0349947 0.0
-0.0394976 0.0390364 0.0
-0.0443851 0.0433341 0.0
-0.0500521 0.0478443 0.0
-0.0566338 0.0524853 0.0
-0.0642707 0.0571191 0.0
-0.0730567 0.0615298 0.0
-0.0828608 0.0653807 0.0
-0.0927832 0.0681934 0.0
-0.099691 0.0691873 0.0
-0.0947816 0.0674056 0.0
-0.0574458 0.0608426 0.0
0.0522747 0.0486052 0.0
0.291246 0.0265594 0.0
0.713772 0.0064555 0.0
-0.00463993 0.000138186 0.0
-0.0101638 0.000914234 0.0
-0.0131025 0.00222396 0.0
-0.0146439 0.00366667 0.0
-0.015638 0.00523754 0.0
-0.0165317 0.00688401 0.0
-0.0175289 0.00862117 0.0
-0.0187145 0.0104595 0.0
-0.0201286 0.0124183 0.0
-0.0217979 0.014516 0.0
-0.0237476 0.0167714 0.0
-0.0260061 0.0192022 0.0
-0.0286066 0.0218242 0.0
-0.0315886 0.0246497 0.0
-0.0349986 0.0276857 0.0
-0.0388918 0.0309305 0.0
-0.0433325 0.03437 0.0
-0.0483955 0.0379719 0.0
-0.054165 0.0416775 0.0
-0.0607304 0.0453921 0.0
-0.0681686 0.0489706 0.0
-0.0764863 0.0522032 0.0
-0.0854342 0.0547867 0.0
-0.0939475 0.056319 0.0
-0.0986555 0.0561837 0.0
-0.0904184 0.0536834 0.0
-0.0482916 0.0473628 0.0
0.0673255 0.0368243 0.0
0.310678 0.0193249 0.0
0.726767 0.00415688 0.0
-0.00511476 0.000121132 0.0
-0.0111715 0.000798875 0.0
-0.0143821 0.00194112 0.0
-0.0160622 0.0031983 0.0
-0.0171452 0.00456646 0.0
-0.0181186 0.00599975 0.0
-0.0192041 0.00751119 0.0
-0.0204928 0.00910942 0.0
-0.0220268 0.0108106 0.0
-0.0238326 0.0126297 0.0
-0.0259348 0.0145817 0.0
-0.0283598 0.0166796 0.0
-0.0311377 0.0189344 0.0
-0.0343031 0.0213527 0.0
-0.0378951 0.0239351 0.0
-0.0419577 0.0266732 0.0
-0.0465396 0.029546 0.0
-0.0516936 0.0325145 0.0
-0.0574739 0.0355157 0.0
-0.0639294 0.0384542 0.0
-0.0710847 0.0411928 0.0
-0.0788793 0.0435435 0.0
-0.0869788 0.0452485 0.0
-0.0942066 0.0459837 0.0
-0.0970358 0.0452747 0.0
-0.0861133 0.0426167 0.0
-0.0403112 0.0369503 0.0
0.0795685 0.0281302 0.0
0.325696 0.0143136 0.0
0.73613 0.00278463 0.0
-0.00552324 0.000102658 0.0
-0.0120364 0.000673875 0.0
-0.0154791 0.00163483 0.0
-0.0172775 0.00269151 0.0
-0.018436 0.00384101 0.0
-0.0194773 0.00504501 0.0
-0.0206378 0.00631451 0.0
-0.0220137 0.00765665 0.0
-0.0236485 0.0090847 0.0
-0.0255686 0.0106106 0.0
-0.0277971 0.0122462 0.0
-0.0303585 0.0140012 0.0
-0.0332794 0.0158829 0.0
-0.036589 0.0178947 0.0
-0.040319 0.0200336 0.0
-0.0445027 0.0222885 0.0
-0.049174 0.0246364 0.0
-0.0543657 0.0270383 0.0
-0.0601056 0.0294343 0.0
-0.0664094 0.0317374 0.0
-0.07326 0.0338273 0.0
-0.0805471 0.0355446 0.0
-0.0878763 0.0366795 0.0
-0.0939956 0.0369781 0.0
-0.0952732 0.0360791 0.0
-0.0822165 0.0336138 0.0
-0.0335923 0.0287997 0.0
0.0894156 0.0215994 0.0
0.337323 0.0107512 0.0
0.743029 0.00194012 0.0
-0.00586034 8.29003e-05 0.0
-0.0127481 0.000540595 0.0
-0.0163806 0.00130867 0.0
-0.0182754 0.00215237 0.0
-0.0194958 0.00306997 0.0
-0.0205929 0.00403136 0.0
-0.0218152 0.00504565 0.0
-0.0232629 0.0061187 0.0
-0.0249805 0.00726121 0.0
-0.0269939 0.00848271 0.0
-0.0293251 0.0097924 0.0
-0.0319963 0.0111978 0.0
-0.0350311 0.0127043 0.0
-0.0384537 0.0143134 0.0
-0.042289 0.0160218 0.0
-0.0465607 0.0178186 0.0
-0.0512899 0.0196829 0.0
-0.0564923 0.0215809 0.0
-0.0621742 0.0234612 0.0
-0.0683243 0.0252512 0.0
-0.074894 0.026852 0.0
-0.0817361 0.0281359 0.0
-0.088414 0.0289379 0.0
-0.0936236 0.0290628 0.0
-0.0936591 0.0282361 0.0
-0.078928 0.0261799 0.0
-0.02813 0.0223003 0.0
0.0972204 0.0165855 0.0
0.346316 0.00814396 0.0
0.748196 0.00139766 0.0
-0.00612186 6.20392e-05 0.0
-0.0132978 0.000400451 0.0
-0.0170756 0.000966217 0.0
-0.0190444 0.00158683 0.0
-0.0203126 0.00226187 0.0
-0.0214535 0.00296996 0.0
-0.0227246 0.00371838 0.0
-0.0242292 0.00451199 0.0
-0.0260123 0.00535915 0.0
-0.0280996 0.0062674 0.0
-0.030512 0.00724406 0.0
-0.0332702 0.0082953 0.0
-0.0363948 0.00942559 0.0
-0.0399064 0.0106367 0.0
-0.0438242 0.0119266 0.0
-0.048164 0.0132875 0.0
-0.0529368 0.0147043 0.0
-0.0581446 0.0161515 0.0
-0.063777 0.0175907 0.0
-0.0698019 0.018967 0.0
-0.0761466 0.0202061 0.0
-0.0826368 0.0212115 0.0
-0.0888049 0.0218591 0.0
-0.0933078 0.0220009 0.0
-0.0923814 0.021426 0.0
-0.0763535 0.0199139 0.0
-0.0238701 0.016994 0.0
0.103281 0.0126334 0.0
0.353228 0.0061724 0.0
0.752099 0.00103005 0.0
-0.00630438 4.02861e-05 0.0
-0.0136786 0.000254931 0.0
-0.0175556 0.000611118 0.0
-0.0195752 0.0010009 0.0
-0.0208771 0.00142521 0.0
-0.0220498 0.00187177 0.0
-0.0233568 0.0023461 0.0
-0.0249036 0.0028522 0.0
-0.0267357 0.0033963 0.0
-0.0288786 0.00398427 0.0
-0.0313528 0.00462205 0.0
-0.0341777 0.0053151 0.0
-0.0373723 0.00606804 0.0
-0.0409546 0.00688407 0.0
-0.0449398 0.00776413 0.0
-0.0493386 0.00870578 0.0
-0.0541542 0.00970176 0.0
-0.0593792 0.0107381 0.0
-0.0649905 0.0117921 0.0
-0.0709411 0.0128297 0.0
-0.0771401 0.0138021 0.0
-0.0833924 0.0146445 0.0
-0.0892052 0.0152689 0.0
-0.0932019 0.0155653 0.0
-0.0915661 0.0153682 0.0
-0.0745515 0.0144882 0.0
-0.0207517 0.0125319 0.0
0.10783 0.0094163 0.0
0.358456 0.00462485 0.0
0.75504 0.000765342 0.0
-0.00640529 1.78741e-05 0.0
-0.0138853 0.00010558 0.0
-0.0178144 0.000247093 0.0
-0.019861 0.000400626 0.0
-0.0211823 0.000568467 0.0
-0.0223746 0.000747681 0.0
-0.0237047 0.000941988 0.0
-0.0252792 0.00115458 0.0
-0.0271441 0.00138964 0.0
-0.0293251 0.00165158 0.0
-0.0318427 0.00194524 0.0
-0.034716 0.00227579 0.0
-0.0379636 0.00264862 0.0
-0.0416024 0.00306917 0.0
-0.0456459 0.00354258 0.0
-0.0501018 0.00407308 0.0
-0.0549695 0.00466321 0.0
-0.0602356 0.00531263 0.0
-0.0658693 0.00601668 0.0
-0.071813 0.00676421 0.0
-0.0779628 0.0075344 0.0
-0.0841062 0.0082936 0.0
-0.0897276 0.00898817 0.0
-0.0934164 0.00953918 0.0
-0.0913015 0.00981204 0.0
-0.0735597 0.00962851 0.0
-0.0187249 0.00863717 0.0
0.111036 0.00668834 0.0
0.36228 0.00335352 0.0
0.757218 0.000561436 0.0
-0.00642287 -4.96125e-06 0.0
-0.0139147 -4.60448e-05 0.0
-0.0178478 -0.000122082 0.0
-0.0198975 -0.000207842 0.0
-0.0212236 -0.000299721 0.0
-0.0224233 -0.000391299 0.0
-0.0237635 -0.000480746 0.0
-0.025351 -0.000565732 0.0
-0.0272324 -0.000644132 0.0
-0.0294339 -0.000713023 0.0
-0.0319766 -0.00076861 0.0
-0.0348807 -0.000805893 0.0
-0.0381653 -0.00081846 0.0
-0.0418481 -0.000798248 0.0
-0.0459432 -0.000735368 0.0
-0.0504588 -0.000618022 0.0
-0.0553934 -0.000432612 0.0
-0.0607325 -0.000164188 0.0
-0.0664425 0.000202633 0.0
-0.0724599 0.000681795 0.0
-0.0786711 0.00128276 0.0
-0.084849 0.00200555 0.0
-0.0904534 0.0028309 0.0
-0.0940335 0.00370762 0.0
-0.0916542 0.00452232 0.0
-0.0734068 0.00509137 0.0
-0.0177584 0.00507754 0.0
0.113006 0.00425188 0.0
0.364876 0.00224605 0.0
0.758752 0.000391196 0.0
-0.00635629 -2.80275e-05 0.0
-0.0137651 -0.000198469 0.0
-0.017654 -0.000492617 0.0
-0.0196827 -0.000818171 0.0
-0.020999 -0.00117044 0.0
-0.0221934 -0.0015338 0.0
-0.0235302 -0.00190848 0.0
-0.0251157 -0.00229315 0.0
-0.0269967 -0.00268792 0.0
-0.0292005 -0.00309154 0.0
-0.0317496 -0.00350147 0.0
-0.0346659 -0.00391309 0.0
-0.037971 -0.00431919 0.0
-0.0416852 -0.00470922 0.0
-0.0458257 -0.00506857 0.0
-0.0504042 -0.0053777 0.0
-0.055423 -0.00561145 0.0
-0.0608706 -0.00573854 0.0
-0.0667151 -0.00572187 0.0
-0.0728934 -0.00551962 0.0
-0.0792873 -0.00508823 0.0
-0.0856564 -0.00438918 0.0
-0.0914328 -0.00340248 0.0
-0.0951157 -0.00214939 0.0
-0.0926914 -0.000730624 0.0
-0.0741394 0.00064472 0.0
-0.0178461 0.00163235 0.0
0.113808 0.0019247 0.0
0.366346 0.0012072 0.0
0.759706 0.000236341 0.0
-0.00620536 -5.10896e-05 0.0
-0.0134369 -0.000350055 0.0
-0.0172338 -0.000860466 0.0
-0.0192174 -0.00142373 0.0
-0.0205088 -0.00203438 0.0
-0.0216849 -0.00266797 0.0
-0.0230042 -0.00332695 0.0
-0.0245715 -0.00401127 0.0
-0.0264339 -0.00472359 0.0
-0.0286202 -0.00546472 0.0
-0.0311549 -0.00623387 0.0
-0.0340627 -0.00702737 0.0
-0.0373689 -0.00783789 0.0
-0.0410984 -0.00865316 0.0
-0.0452745 -0.00945458 0.0
-0.0499155 -0.0102155 0.0
-0.0550322 -0.0108997 0.0
-0.0606218 -0.0114593 0.0
-0.0666611 -0.011834 0.0
-0.0730934 -0.0119511 0.0
-0.0798019 -0.0117282 0.0
-0.0865362 -0.011081 0.0
-0.0926961 -0.00994062 0.0
-0.0967119 -0.00828847 0.0
-0.0944555 -0.00620732 0.0
-0.0757868 -0.0039427 0.0
-0.0190234 -0.00188053 0.0
0.113397 -0.000449279 0.0
0.366693 0.000132441 0.0
0.760106 7.09358e-05 0.0
-0.00597104 -7.38459e-05 0.0
-0.0129326 -0.000498957 0.0
-0.0165904 -0.0012213 0.0
-0.0185049 -0.00201756 0.0
-0.0197562 -0.00288184 0.0
-0.0209003 -0.00378133 0.0
-0.0221871 -0.00472103 0.0
-0.0237189 -0.00570253 0.0
-0.0255431 -0.00673148 0.0
-0.02769 -0.00781132 0.0
-0.0301866 -0.00894377 0.0
-0.0330615 -0.0101271 0.0
-0.0363447 -0.011355 0.0
-0.0400678 -0.0126149 0.0
-0.0442625 -0.0138858 0.0
-0.0489581 -0.0151357 0.0
-0.0541781 -0.0163185 0.0
-0.0599351 -0.0173708 0.0
-0.0662223 -0.0182088 0.0
-0.0729986 -0.0187267 0.0
-0.0801575 -0.0187973 0.0
-0.0874452 -0.0182808 0.0
-0.0942287 -0.0170454 0.0
-0.0988551 -0.0150137 0.0
-0.0970454 -0.0122306 0.0
-0.0784706 -0.00896886 0.0
-0.0213332 -0.00568495 0.0
0.111811 -0.00299583 0.0
0.365854 -0.00103403 0.0
0.759867 -0.000119716 0.0
-0.00565526 -9.59909e-05 0.0
-0.0122566 -0.00064326 0.0
-0.0157295 -0.00157059 0.0
-0.0175515 -0.00259233 0.0
-0.0187472 -0.00370246 0.0
-0.0198449 -0.00486054 0.0
-0.0210833 -0.00607439 0.0
-0.0225609 -0.00734769 0.0
-0.0243251 -0.0086896 0.0
-0.0264078 -0.010107 0.0
-0.028839 -0.0116051 0.0
-0.0316512 -0.0131853 0.0
-0.0348806 -0.0148442 0.0
-0.038567 -0.016571 0.0
-0.0427528 -0.0183449 0.0
-0.0474817 -0.0201313 0.0
-0.0527957 -0.0218775 0.0
-0.0587298 -0.0235071 0.0
-0.0653034 -0.0249144 0.0
-0.0725032 -0.0259591 0.0
-0.0802465 -0.0264638 0.0
-0.0882882 -0.0262207 0.0
-0.0959671 -0.0250135 0.0
-0.101534 -0.0226775 0.0
-0.100518 -0.0191898 0.0
-0.0823337 -0.0148299 0.0
-0.0250012 -0.0101265 0.0
0.10883 -0.0059351 0.0
0.363744 -0.0023723 0.0
0.758954 -0.000345878 0.0
-0.00526105 -0.000117225 0.0
-0.0114156 -0.000780995 0.0
-0.0146597 -0.0019036 0.0
-0.0163662 -0.00314029 0.0
-0.0174907 -0.0044853 0.0
-0.0185274 -0.00589131 0.0
-0.0197003 -0.00736929 0.0
-0.0211035 -0.00892551 0.0
-0.0227838 -0.0105732 0.0
-0.0247744 -0.0123236 0.0
-0.0271081 -0.0141864 0.0
-0.029822 -0.0161681 0.0
-0.0329584 -0.0182702 0.0
-0.0365664 -0.0204864 0.0
-0.0407011 -0.0227998 0.0
-0.045424 -0.025178 0.0
-0.0508003 -0.0275665 0.0
-0.0568957 -0.0298815 0.0
-0.0637674 -0.0319999 0.0
-0.071446 -0.0337491 0.0
-0.0798932 -0.0348982 0.0
-0.0888942 -0.0351577 0.0
-0.0977757 -0.0342003 0.0
-0.104687 -0.03173 0.0
-0.104919 -0.0276037 0.0
-0.0875355 -0.0220632 0.0
-0.030264 -0.0157022 0.0
0.104189 -0.00967457 0.0
0.360092 -0.00411163 0.0
0.757207 -0.000656887 0.0
-0.00479259 -0.000137267 0.0
-0.0104188 -0.000910138 0.0
-0.0133926 -0.00221536 0.0
-0.0149616 -0.00365326 0.0
-0.0159995 -0.00521862 0.0
-0.01696 -0.00685821 0.0
-0.0180497 -0.00858636 0.0
-0.0193569 -0.0104124 0.0
-0.0209272 -0.0123543 0.0
-0.0227946 -0.0144282 0.0
-0.0249944 -0.0166501 0.0
-0.0275673 -0.0190328 0.0
-0.030562 -0.0215854 0.0
-0.0340367 -0.0243101 0.0
-0.0380602 -0.0271983 0.0
-0.0427136 -0.0302257 0.0
-0.04809 -0.0333444 0.0
-0.0542934 -0.0364721 0.0
-0.0614319 -0.0394783 0.0
-0.0696002 -0.0421665 0.0
-0.0788329 -0.0442552 0.0
-0.088982 -0.0453649 0.0
-0.0993964 -0.0450281 0.0
-0.108138 -0.0427605 0.0
-0.110218 -0.0382164 0.0
-0.0942322 -0.0315072 0.0
-0.0374454 -0.0232402 0.0
0.0974581 -0.0148987 0.0
0.354421 -0.0066608 0.0
0.754301 -0.00115772 0.0
-0.00425496 -0.000155912 0.0
-0.0092776 -0.00102862 0.0
-0.0119425 -0.00250048 0.0
-0.0133533 -0.00412224 0.0
-0.0142895 -0.00588946 0.0
-0.0151584 -0.00774401 0.0
-0.0161467 -0.00970373 0.0
-0.0173355 -0.0117814 0.0
-0.018768 -0.014 0.0
-0.0204785 -0.0163817 0.0
-0.0225034 -0.0189493 0.0
-0.0248863 -0.0217246 0.0
-0.0276806 -0.0247265 0.0
-0.0309527 -0.0279693 0.0
-0.0347841 -0.0314589 0.0
-0.0392758 -0.035187 0.0
-0.0445509 -0.0391225 0.0
-0.0507576 -0.0431992 0.0
-0.0580673 -0.0472961 0.0
-0.0666618 -0.0512121 0.0
-0.0766863 -0.0546316 0.0
-0.0881132 -0.0570909 0.0
-0.100379 -0.057963 0.0
-0.111507 -0.0565126 0.0
-0.11622 -0.0520754 0.0
-0.102523 -0.0444622 0.0
-0.0469789 -0.0341401 0.0
0.087918 -0.022827 0.0
0.345841 -0.0107981 0.0
0.749556 -0.00207115 0.0
-0.00365485 -0.000172935 0.0
-0.00800705 -0.00113382 0.0
-0.0103285 -0.00275207 0.0
-0.0115623 -0.00453579 0.0
-0.0123825 -0.00648138 0.0
-0.0131448 -0.00852693 0.0
-0.0140136 -0.0106937 0.0
-0.0150612 -0.012998 0.0
-0.0163277 -0.0154681 0.0
-0.017846 -0.0181325 0.0
-0.0196523 -0.0210221 0.0
-0.0217909 -0.0241685 0.0
-0.0243179 -0.0276034 0.0
-0.0273047 -0.031357 0.0
-0.0308428 -0.0354551 0.0
-0.0350496 -0.0399146 0.0
-0.0400766 -0.0447347 0.0
-0.0461172 -0.049884 0.0
-0.0534142 -0.0552781 0.0
-0.0622569 -0.0607453 0.0
-0.0729428 -0.0659764 0.0
-0.0856363 -0.0704599 0.0
-0.0999631 -0.0734238 0.0
-0.114022 -0.0738402 0.0
-0.122311 -0.070591 0.0
-0.112169 -0.0629113 0.0
-0.0591927 -0.0507753 0.0
0.0746395 -0.0356715 0.0
0.332939 -0.0180272 0.0
0.741704 -0.0038679 0.0
-0.00299897 -0.000188082 0.0
-0.006624 -0.00122154 0.0
-0.00857193 -0.0029589 0.0
-0.00961171 -0.00487546 0.0
-0.0103024 -0.00696818 0.0
-0.0109439 -0.00917255 0.0
-0.0116757 -0.0115127 0.0
-0.0125602 -0.0140082 0.0
-0.0136328 -0.0166926 0.0
-0.0149236 -0.0196006 0.0
-0.0164664 -0.0227714 0.0
-0.0183037 -0.0262472 0.0
-0.0204906 -0.0300738 0.0
-0.0230989 -0.0343003 0.0
-0.0262238 -0.0389774 0.0
-0.0299925 -0.0441552 0.0
-0.0345763 -0.0498774 0.0
-0.0402067 -0.0561695 0.0
-0.0471951 -0.0630185 0.0
-0.0559478 -0.0703345 0.0
-0.0669499 -0.077887 0.0
-0.0806387 -0.0852064 0.0
-0.0969736 -0.0914622 0.0
-0.114335 -0.0953699 0.0
-0.12722 -0.0952592 0.0
-0.122433 -0.0894292 0.0
-0.0745014 -0.076723 0.0
0.0557145 -0.0572349 0.0
0.312732 -0.0312902 0.0
0.727852 -0.00760213 0.0
-0.00230101 -0.000199373 0.0
-0.00515896 -0.00128037 0.0
-0.00671057 -0.00309531 0.0
-0.0075429 -0.00510138 0.0
-0.0080928 -0.00729483 0.0
-0.0086016 -0.00960969 0.0
-0.00918173 -0.0120718 0.0
-0.00988451 -0.0147035 0.0
-0.0107393 -0.0175423 0.0
-0.0117715 -0.0206287 0.0
-0.0130105 -0.0240091 0.0
-0.0144939 -0.0277358 0.0
-0.0162709 -0.0318686 0.0
-0.018408 -0.0364754 0.0
-0.0209955 -0.0416341 0.0
-0.0241583 -0.047433 0.0
-0.0280718 -0.0539701 0.0
-0.0329859 -0.0613484 0.0
-0.0392583 -0.0696637 0.0
-0.0473945 -0.0789735 0.0
-0.0580699 -0.0892348 0.0
-0.0720472 -0.100183 0.0
-0.089768 -0.111144 0.0
-0.110182 -0.120789 0.0
-0.128224 -0.126965 0.0
-0.130677 -0.126738 0.0
-0.0913973 -0.116853 0.0
0.0306471 -0.0937691 0.0