# vtk DataFile Version 3.0
Malha 2D com triângulos e temperatura
ASCII
DATASET UNSTRUCTURED_GRID

POINTS 961 double
0 0 0
1 0 0
1 1 0
0 1 0
0.0333333 0 0
0.0666667 0 0
0.1 0 0
0.133333 0 0
0.166667 0 0
0.2 0 0
0.233333 0 0
0.266667 0 0
0.3 0 0
0.333333 0 0
0.366667 0 0
0.4 0 0
0.433333 0 0
0.466667 0 0
0.5 0 0
0.533333 0 0
0.566667 0 0
0.6 0 0
0.633333 0 0
0.666667 0 0
0.7 0 0
0.733333 0 0
0.766667 0 0
0.8 0 0
0.833333 0 0
0.866667 0 0
0.9 0 0
0.933333 0 0
0.966667 0 0
1 0.0333333 0
1 0.0666667 0
1 0.1 0
1 0.133333 0
1 0.166667 0
1 0.2 0
1 0.233333 0
1 0.266667 0
1 0.3 0
1 0.333333 0
1 0.366667 0
1 0.4 0
1 0.433333 0
1 0.466667 0
1 0.5 0
1 0.533333 0
1 0.566667 0
1 0.6 0
1 0.633333 0
1 0.666667 0
1 0.7 0
1 0.733333 0
1 0.766667 0
1 0.8 0
1 0.833333 0
1 0.866667 0
1 0.9 0
1 0.933333 0
1 0.966667 0
0.966667 1 0
0.933333 1 0
0.9 1 0
0.866667 1 0
0.833333 1 0
0.8 1 0
0.766667 1 0
0.733333 1 0
0.7 1 0
0.666667 1 0
0.633333 1 0
0.6 1 0
0.566667 1 0
0.533333 1 0
0.5 1 0
0.466667 1 0
0.433333 1 0
0.4 1 0
0.366667 1 0
0.333333 1 0
0.3 1 0
0.266667 1 0
0.233333 1 0
0.2 1 0
0.166667 1 0
0.133333 1 0
0.1 1 0
0.0666667 1 0
0.0333333 1 0
0 0.966667 0
0 0.933333 0
0 0.9 0
0 0.866667 0
0 0.833333 0
0 0.8 0
0 0.766667 0
0 0.733333 0
0 0.7 0
0 0.666667 0
0 0.633333 0
0 0.6 0
0 0.566667 0
0 0.533333 0
0 0.5 0
0 0.466667 0
0 0.433333 0
0 0.4 0
0 0.366667 0
0 0.333333 0
0 0.3 0
0 0.266667 0
0 0.233333 0
0 0.2 0
0 0.166667 0
0 0.133333 0
0 0.1 0
0 0.0666667 0
0 0.0333333 0
0.0333333 0.0333333 0
0.0333333 0.0666667 0
0.0333333 0.1 0
0.0333333 0.133333 0
0.0333333 0.166667 0
0.0333333 0.2 0
0.0333333 0.233333 0
0.0333333 0.266667 0
0.0333333 0.3 0
0.0333333 0.333333 0
0.0333333 0.366667 0
0.0333333 0.4 0
0.0333333 0.433333 0
0.0333333 0.466667 0
0.0333333 0.5 0
0.0333333 0.533333 0
0.0333333 0.566667 0
0.0333333 0.6 0
0.0333333 0.633333 0
0.0333333 0.666667 0
0.0333333 0.7 0
0.0333333 0.733333 0
0.0333333 0.766667 0
0.0333333 0.8 0
0.0333333 0.833333 0
0.0333333 0.866667 0
0.0333333 0.9 0
0.0333333 0.933333 0
0.0333333 0.966667 0
0.0666667 0.0333333 0
0.0666667 0.0666667 0
0.0666667 0.1 0
0.0666667 0.133333 0
0.0666667 0.166667 0
0.0666667 0.2 0
0.0666667 0.233333 0
0.0666667 0.266667 0
0.0666667 0.3 0
0.0666667 0.333333 0
0.0666667 0.366667 0
0.0666667 0.4 0
0.0666667 0.433333 0
0.0666667 0.466667 0
0.0666667 0.5 0
0.0666667 0.533333 0
0.0666667 0.566667 0
0.0666667 0.6 0
0.0666667 0.633333 0
0.0666667 0.666667 0
0.0666667 0.7 0
0.0666667 0.733333 0
0.0666667 0.766667 0
0.0666667 0.8 0
0.0666667 0.833333 0
0.0666667 0.866667 0
0.0666667 0.9 0
0.0666667 0.933333 0
0.0666667 0.966667 0
0.1 0.0333333 0
0.1 0.0666667 0
0.1 0.1 0
0.1 0.133333 0
0.1 0.166667 0
0.1 0.2 0
0.1 0.233333 0
0.1 0.266667 0
0.1 0.3 0
0.1 0.333333 0
0.1 0.366667 0
0.1 0.4 0
0.1 0.433333 0
0.1 0.466667 0
0.1 0.5 0
0.1 0.533333 0
0.1 0.566667 0
0.1 0.6 0
0.1 0.633333 0
0.1 0.666667 0
0.1 0.7 0
0.1 0.733333 0
0.1 0.766667 0
0.1 0.8 0
0.1 0.833333 0
0.1 0.866667 0
0.1 0.9 0
0.1 0.933333 0
0.1 0.966667 0
0.133333 0.0333333 0
0.133333 0.0666667 0
0.133333 0.1 0
0.133333 0.133333 0
0.133333 0.166667 0
0.133333 0.2 0
0.133333 0.233333 0
0.133333 0.266667 0
0.133333 0.3 0
0.133333 0.333333 0
0.133333 0.366667 0
0.133333 0.4 0
0.133333 0.433333 0
0.133333 0.466667 0
0.133333 0.5 0
0.133333 0.533333 0
0.133333 0.566667 0
0.133333 0.6 0
0.133333 0.633333 0
0.133333 0.666667 0
0.133333 0.7 0
0.133333 0.733333 0
0.133333 0.766667 0
0.133333 0.8 0
0.133333 0.833333 0
0.133333 0.866667 0
0.133333 0.9 0
0.133333 0.933333 0
0.133333 0.966667 0
0.166667 0.0333333 0
0.166667 0.0666667 0
0.166667 0.1 0
0.166667 0.133333 0
0.166667 0.166667 0
0.166667 0.2 0
0.166667 0.233333 0
0.166667 0.266667 0
0.166667 0.3 0
0.166667 0.333333 0
0.166667 0.366667 0
0.166667 0.4 0
0.166667 0.433333 0
0.166667 0.466667 0
0.166667 0.5 0
0.166667 0.533333 0
0.166667 0.566667 0
0.166667 0.6 0
0.166667 0.633333 0
0.166667 0.666667 0
0.166667 0.7 0
0.166667 0.733333 0
0.166667 0.766667 0
0.166667 0.8 0
0.166667 0.833333 0
0.166667 0.866667 0
0.166667 0.9 0
0.166667 0.933333 0
0.166667 0.966667 0
0.2 0.0333333 0
0.2 0.0666667 0
0.2 0.1 0
0.2 0.133333 0
0.2 0.166667 0
0.2 0.2 0
0.2 0.233333 0
0.2 0.266667 0
0.2 0.3 0
0.2 0.333333 0
0.2 0.366667 0
0.2 0.4 0
0.2 0.433333 0
0.2 0.466667 0
0.2 0.5 0
0.2 0.533333 0
0.2 0.566667 0
0.2 0.6 0
0.2 0.633333 0
0.2 0.666667 0
0.2 0.7 0
0.2 0.733333 0
0.2 0.766667 0
0.2 0.8 0
0.2 0.833333 0
0.2 0.866667 0
0.2 0.9 0
0.2 0.933333 0
0.2 0.966667 0
0.233333 0.0333333 0
0.233333 0.0666667 0
0.233333 0.1 0
0.233333 0.133333 0
0.233333 0.166667 0
0.233333 0.2 0
0.233333 0.233333 0
0.233333 0.266667 0
0.233333 0.3 0
0.233333 0.333333 0
0.233333 0.366667 0
0.233333 0.4 0
0.233333 0.433333 0
0.233333 0.466667 0
0.233333 0.5 0
0.233333 0.533333 0
0.233333 0.566667 0
0.233333 0.6 0
0.233333 0.633333 0
0.233333 0.666667 0
0.233333 0.7 0
0.233333 0.733333 0
0.233333 0.766667 0
0.233333 0.8 0
0.233333 0.833333 0
0.233333 0.866667 0
0.233333 0.9 0
0.233333 0.933333 0
0.233333 0.966667 0
0.266667 0.0333333 0
0.266667 0.0666667 0
0.266667 0.1 0
0.266667 0.133333 0
0.266667 0.166667 0
0.266667 0.2 0
0.266667 0.233333 0
0.266667 0.266667 0
0.266667 0.3 0
0.266667 0.333333 0
0.266667 0.366667 0
0.266667 0.4 0
0.266667 0.433333 0
0.266667 0.466667 0
0.266667 0.5 0
0.266667 0.533333 0
0.266667 0.566667 0
0.266667 0.6 0
0.266667 0.633333 0
0.266667 0.666667 0
0.266667 0.7 0
0.266667 0.733333 0
0.266667 0.766667 0
0.266667 0.8 0
0.266667 0.833333 0
0.266667 0.866667 0
0.266667 0.9 0
0.266667 0.933333 0
0.266667 0.966667 0
0.3 0.0333333 0
0.3 0.0666667 0
0.3 0.1 0
0.3 0.133333 0
0.3 0.166667 0
0.3 0.2 0
0.3 0.233333 0
0.3 0.266667 0
0.3 0.3 0
0.3 0.333333 0
0.3 0.366667 0
0.3 0.4 0
0.3 0.433333 0
0.3 0.466667 0
0.3 0.5 0
0.3 0.533333 0
0.3 0.566667 0
0.3 0.6 0
0.3 0.633333 0
0.3 0.666667 0
0.3 0.7 0
0.3 0.733333 0
0.3 0.766667 0
0.3 0.8 0
0.3 0.833333 0
0.3 0.866667 0
0.3 0.9 0
0.3 0.933333 0
0.3 0.966667 0
0.333333 0.0333333 0
0.333333 0.0666667 0
0.333333 0.1 0
0.333333 0.133333 0
0.333333 0.166667 0
0.333333 0.2 0
0.333333 0.233333 0
0.333333 0.266667 0
0.333333 0.3 0
0.333333 0.333333 0
0.333333 0.366667 0
0.333333 0.4 0
0.333333 0.433333 0
0.333333 0.466667 0
0.333333 0.5 0
0.333333 0.533333 0
0.333333 0.566667 0
0.333333 0.6 0
0.333333 0.633333 0
0.333333 0.666667 0
0.333333 0.7 0
0.333333 0.733333 0
0.333333 0.766667 0
0.333333 0.8 0
0.333333 0.833333 0
0.333333 0.866667 0
0.333333 0.9 0
0.333333 0.933333 0
0.333333 0.966667 0
0.366667 0.0333333 0
0.366667 0.0666667 0
0.366667 0.1 0
0.366667 0.133333 0
0.366667 0.166667 0
0.366667 0.2 0
0.366667 0.233333 0
0.366667 0.266667 0
0.366667 0.3 0
0.366667 0.333333 0
0.366667 0.366667 0
0.366667 0.4 0
0.366667 0.433333 0
0.366667 0.466667 0
0.366667 0.5 0
0.366667 0.533333 0
0.366667 0.566667 0
0.366667 0.6 0
0.366667 0.633333 0
0.366667 0.666667 0
0.366667 0.7 0
0.366667 0.733333 0
0.366667 0.766667 0
0.366667 0.8 0
0.366667 0.833333 0
0.366667 0.866667 0
0.366667 0.9 0
0.366667 0.933333 0
0.366667 0.966667 0
0.4 0.0333333 0
0.4 0.0666667 0
0.4 0.1 0
0.4 0.133333 0
0.4 0.166667 0
0.4 0.2 0
0.4 0.233333 0
0.4 0.266667 0
0.4 0.3 0
0.4 0.333333 0
0.4 0.366667 0
0.4 0.4 0
0.4 0.433333 0
0.4 0.466667 0
0.4 0.5 0
0.4 0.533333 0
0.4 0.566667 0
0.4 0.6 0
0.4 0.633333 0
0.4 0.666667 0
0.4 0.7 0
0.4 0.733333 0
0.4 0.766667 0
0.4 0.8 0
0.4 0.833333 0
0.4 0.866667 0
0.4 0.9 0
0.4 0.933333 0
0.4 0.966667 0
0.433333 0.0333333 0
0.433333 0.0666667 0
0.433333 0.1 0
0.433333 0.133333 0
0.433333 0.166667 0
0.433333 0.2 0
0.433333 0.233333 0
0.433333 0.266667 0
0.433333 0.3 0
0.433333 0.333333 0
0.433333 0.366667 0
0.433333 0.4 0
0.433333 0.433333 0
0.433333 0.466667 0
0.433333 0.5 0
0.433333 0.533333 0
0.433333 0.566667 0
0.433333 0.6 0
0.433333 0.633333 0
0.433333 0.666667 0
0.433333 0.7 0
0.433333 0.733333 0
0.433333 0.766667 0
0.433333 0.8 0
0.433333 0.833333 0
0.433333 0.866667 0
0.433333 0.9 0
0.433333 0.933333 0
0.433333 0.966667 0
0.466667 0.0333333 0
0.466667 0.0666667 0
0.466667 0.1 0
0.466667 0.133333 0
0.466667 0.166667 0
0.466667 0.2 0
0.466667 0.233333 0
0.466667 0.266667 0
0.466667 0.3 0
0.466667 0.333333 0
0.466667 0.366667 0
0.466667 0.4 0
0.466667 0.433333 0
0.466667 0.466667 0
0.466667 0.5 0
0.466667 0.533333 0
0.466667 0.566667 0
0.466667 0.6 0
0.466667 0.633333 0
0.466667 0.666667 0
0.466667 0.7 0
0.466667 0.733333 0
0.466667 0.766667 0
0.466667 0.8 0
0.466667 0.833333 0
0.466667 0.866667 0
0.466667 0.9 0
0.466667 0.933333 0
0.466667 0.966667 0
0.5 0.0333333 0
0.5 0.0666667 0
0.5 0.1 0
0.5 0.133333 0
0.5 0.166667 0
0.5 0.2 0
0.5 0.233333 0
0.5 0.266667 0
0.5 0.3 0
0.5 0.333333 0
0.5 0.366667 0
0.5 0.4 0
0.5 0.433333 0
0.5 0.466667 0
0.5 0.5 0
0.5 0.533333 0
0.5 0.566667 0
0.5 0.6 0
0.5 0.633333 0
0.5 0.666667 0
0.5 0.7 0
0.5 0.733333 0
0.5 0.766667 0
0.5 0.8 0
0.5 0.833333 0
0.5 0.866667 0
0.5 0.9 0
0.5 0.933333 0
0.5 0.966667 0
0.533333 0.0333333 0
0.533333 0.0666667 0
0.533333 0.1 0
0.533333 0.133333 0
0.533333 0.166667 0
0.533333 0.2 0
0.533333 0.233333 0
0.533333 0.266667 0
0.533333 0.3 0
0.533333 0.333333 0
0.533333 0.366667 0
0.533333 0.4 0
0.533333 0.433333 0
0.533333 0.466667 0
0.533333 0.5 0
0.533333 0.533333 0
0.533333 0.566667 0
0.533333 0.6 0
0.533333 0.633333 0
0.533333 0.666667 0
0.533333 0.7 0
0.533333 0.733333 0
0.533333 0.766667 0
0.533333 0.8 0
0.533333 0.833333 0
0.533333 0.866667 0
0.533333 0.9 0
0.533333 0.933333 0
0.533333 0.966667 0
0.566667 0.0333333 0
0.566667 0.0666667 0
0.566667 0.1 0
0.566667 0.133333 0
0.566667 0.166667 0
0.566667 0.2 0
0.566667 0.233333 0
0.566667 0.266667 0
0.566667 0.3 0
0.566667 0.333333 0
0.566667 0.366667 0
0.566667 0.4 0
0.566667 0.433333 0
0.566667 0.466667 0
0.566667 0.5 0
0.566667 0.533333 0
0.566667 0.566667 0
0.566667 0.6 0
0.566667 0.633333 0
0.566667 0.666667 0
0.566667 0.7 0
0.566667 0.733333 0
0.566667 0.766667 0
0.566667 0.8 0
0.566667 0.833333 0
0.566667 0.866667 0
0.566667 0.9 0
0.566667 0.933333 0
0.566667 0.966667 0
0.6 0.0333333 0
0.6 0.0666667 0
0.6 0.1 0
0.6 0.133333 0
[...]
CELL_DATA 900
VECTORS velocity double
1.14952e-05 -1.05679e-05 0.0
-0.000114329 0.000266348 0.0
-0.000176532 0.000873166 0.0
-0.000203923 0.00156847 0.0
-0.000214307 0.00233247 0.0
-0.00022326 0.00313077 0.0
-0.000234676 0.00397364 0.0
-0.000250032 0.00486923 0.0
-0.000269509 0.0058316 0.0
-0.000293405 0.00687511 0.0
-0.000322171 0.00801632 0.0
-0.000356523 0.00927405 0.0
-0.000397473 0.0106704 0.0
-0.000446432 0.012232 0.0
-0.000505382 0.0139915 0.0
-0.000577194 0.0159901 0.0
-0.000666215 0.0182817 0.0
-0.000779455 0.0209383 0.0
-0.000929166 0.0240609 0.0
-0.00113869 0.0277972 0.0
-0.00145617 0.0323773 0.0
-0.00198565 0.0381768 0.0
-0.00295413 0.0458621 0.0
-0.00484067 0.0566015 0.0
-0.00855422 0.0726032 0.0
-0.0155617 0.0971515 0.0
-0.0268187 0.136337 0.0
-0.0390544 0.188165 0.0
-0.0129404 0.265086 0.0
0.218817 0.176285 0.0
-0.00026813 0.000116976 0.0
-0.000853405 0.00085119 0.0
-0.00116513 0.00213982 0.0
-0.0013221 0.00358901 0.0
-0.00140981 0.00517956 0.0
-0.00148734 0.00685583 0.0
-0.00157648 0.00863355 0.0
-0.00168646 0.0105277 0.0
-0.00182112 0.0125649 0.0
-0.00198378 0.0147741 0.0
-0.00217835 0.017189 0.0
-0.00241005 0.0198483 0.0
-0.00268595 0.0227976 0.0
-0.0030157 0.0260914 0.0
-0.00341275 0.0297964 0.0
-0.0038962 0.0339963 0.0
-0.00449402 0.0387986 0.0
-0.0052485 0.044345 0.0
-0.00622622 0.0508278 0.0
-0.00753655 0.0585135 0.0
-0.00936696 0.0677828 0.0
-0.0120485 0.0791803 0.0
-0.0161627 0.0934975 0.0
-0.022683 0.111778 0.0
-0.0329408 0.1353 0.0
-0.0480775 0.164518 0.0
-0.0656044 0.197722 0.0
-0.073346 0.222599 0.0
-0.00741389 0.212873 0.0
0.307685 0.117071 0.0
-0.000872271 0.000175593 0.0
-0.00213516 0.00113248 0.0
-0.0028151 0.00274784 0.0
-0.00316743 0.0045394 0.0
-0.00338383 0.00649621 0.0
-0.00357822 0.00855695 0.0
-0.00379884 0.010742 0.0
-0.00406645 0.0130699 0.0
-0.00439125 0.0155722 0.0
-0.00478158 0.0182831 0.0
-0.00524691 0.0212425 0.0
-0.00579945 0.0244956 0.0
-0.00645539 0.0280949 0.0
-0.00723662 0.0321025 0.0
-0.00817313 0.036593 0.0
-0.00930695 0.0416574 0.0
-0.0106981 0.0474096 0.0
-0.0124345 0.0539939 0.0
-0.0146479 0.0615967 0.0
-0.0175411 0.0704606 0.0
-0.0214301 0.0809042 0.0
-0.0268087 0.0933328 0.0
-0.0344067 0.108241 0.0
-0.0451608 0.126105 0.0
-0.0596513 0.147077 0.0
-0.0763629 0.170074 0.0
-0.08591 0.190287 0.0
-0.0614482 0.197175 0.0
0.0740899 0.159198 0.0
0.473565 0.0757112 0.0
-0.00153958 0.000194891 0.0
-0.0035215 0.00122821 0.0
-0.00457411 0.0029499 0.0
-0.00511854 0.00484333 0.0
-0.00546353 0.00690537 0.0
-0.00577787 0.00907393 0.0
-0.00613507 0.011372 0.0
-0.00656646 0.0138186 0.0
-0.00708806 0.016446 0.0
-0.00771285 0.0192889 0.0
-0.00845537 0.0223866 0.0
-0.00933399 0.0257837 0.0
-0.0103728 0.0295307 0.0
-0.0116037 0.0336862 0.0
-0.0130698 0.0383184 0.0
-0.0148301 0.0435078 0.0
-0.0169667 0.0493503 0.0
-0.0195958 0.0559608 0.0
-0.0228846 0.0634762 0.0
-0.0270769 0.072057 0.0
-0.0325283 0.0818835 0.0
-0.0397473 0.0931337 0.0
-0.0493912 0.105927 0.0
-0.0620828 0.12018 0.0
-0.0775184 0.135221 0.0
-0.0920135 0.149276 0.0
-0.0920345 0.157108 0.0
-0.0431462 0.151465 0.0
0.13105 0.109557 0.0
0.562876 0.0466149 0.0
-0.00223331 0.000191694 0.0
-0.00495679 0.00121982 0.0
-0.00638475 0.00293123 0.0
-0.00712068 0.00480549 0.0
-0.00759414 0.00684298 0.0
-0.00802934 0.00898234 0.0
-0.00852447 0.0112471 0.0
-0.00912087 0.0136555 0.0
-0.0098399 0.0162385 0.0
-0.0106986 0.0190281 0.0
-0.0117157 0.0220607 0.0
-0.0129147 0.0253762 0.0
-0.0143255 0.029019 0.0
-0.0159876 0.0330385 0.0
-0.0179528 0.03749 0.0
-0.0202906 0.0424352 0.0
-0.0230947 0.0479428 0.0
-0.0264937 0.0540872 0.0
-0.0306646 0.0609459 0.0
-0.0358523 0.0685913 0.0
-0.0423912 0.0770748 0.0
-0.0507159 0.0863914 0.0
-0.0612969 0.0964073 0.0
-0.0743311 0.106741 0.0
-0.0886309 0.116418 0.0
-0.0987097 0.123673 0.0
-0.0881138 0.12402 0.0
-0.0182852 0.112798 0.0
0.18313 0.0744245 0.0
0.623253 0.0278838 0.0
-0.00289901 0.000181904 0.0
-0.00634316 0.00116713 0.0
-0.00813073 0.00280779 0.0
-0.00904771 0.00460098 0.0
-0.00964132 0.00654826 0.0
-0.0101897 0.00859023 0.0
-0.0108141 0.0107495 0.0
-0.0115651 0.0130427 0.0
-0.0124681 0.0154981 0.0
-0.0135435 0.0181444 0.0
-0.0148127 0.0210134 0.0
-0.0163025 0.0241389 0.0
-0.0180465 0.0275574 0.0
-0.0200875 0.0313075 0.0
-0.0224812 0.0354297 0.0
-0.0252999 0.0399656 0.0
-0.0286385 0.0449559 0.0
-0.0326222 0.0504361 0.0
-0.0374168 0.0564305 0.0
-0.04324 0.062939 0.0
-0.0503698 0.0699164 0.0
-0.0591319 0.077237 0.0
-0.0697951 0.0846275 0.0
-0.0821838 0.0915871 0.0
-0.0944533 0.09712 0.0
-0.099928 0.0997287 0.0
-0.0804288 0.0959836 0.0
0.00444222 0.0830103 0.0
0.222869 0.051038 0.0
0.662418 0.0167273 0.0
-0.00352834 0.000169169 0.0
-0.0076572 0.00109095 0.0
-0.00978411 0.00262655 0.0
-0.010871 0.00430311 0.0
-0.0115763 0.00612235 0.0
-0.0122295 0.00802797 0.0
-0.0129734 0.0100408 0.0
-0.0138665 0.0121756 0.0
-0.014938 0.0144573 0.0
-0.01621 0.0169107 0.0
-0.017706 0.0195628 0.0
-0.019454 0.022441 0.0
-0.0214888 0.0255736 0.0
-0.023854 0.0289886 0.0
-0.0266043 0.0327126 0.0
-0.0298091 0.036769 0.0
-0.0335564 0.0411741 0.0
-0.0379582 0.0459323 0.0
-0.043156 0.0510274 0.0
-0.0493257 0.0564095 0.0
-0.0566757 0.0619746 0.0
-0.0654169 0.0675353 0.0
-0.0756345 0.072768 0.0
-0.0868543 0.0771674 0.0
-0.0967566 0.0798525 0.0
-0.0978899 0.0796481 0.0
-0.0710445 0.07404 0.0
0.024684 0.0613665 0.0
0.253743 0.0355399 0.0
0.688433 0.0101478 0.0
-0.00410965 0.000154906 0.0
-0.00887278 0.000999911 0.0
-0.0113127 0.00240711 0.0
-0.0125555 0.00394225 0.0
-0.0133624 0.005607 0.0
-0.0141103 0.00734921 0.0
-0.0149618 0.0091876 0.0
-0.0159824 0.0111347 0.0
-0.0172039 0.0132122 0.0
-0.0186498 0.015441 0.0
-0.0203439 0.0178431 0.0
-0.0223144 0.0204401 0.0
-0.0245953 0.0232528 0.0
-0.027228 0.0262999 0.0
-0.0302634 0.0295963 0.0
-0.0337635 0.0331504 0.0
-0.0378045 0.0369604 0.0
-0.0424789 0.0410083 0.0
-0.0478984 0.0452514 0.0
-0.0541931 0.0496108 0.0
-0.0615027 0.0539539 0.0
-0.069937 0.0580734 0.0
-0.0794346 0.0616494 0.0
-0.0893059 0.0642292 0.0
-0.0969128 0.0650902 0.0
-0.0943251 0.0633587 0.0
-0.0617536 0.0572191 0.0
0.0416196 0.0458478 0.0
0.277403 0.025272 0.0
0.706146 0.00632149 0.0
-0.0046371 0.000139096 0.0
-0.00997515 0.00089664 0.0
-0.0126978 0.0021571 0.0
-0.014081 0.00353113 0.0
-0.0149787 0.00502032 0.0
-0.0158109 0.00657766 0.0
-0.0167576 0.00821956 0.0
-0.0178905 0.0099565 0.0
-0.0192434 0.0118069 0.0
-0.0208401 0.013788 0.0
-0.0227042 0.0159174 0.0
-0.0248627 0.0182114 0.0
-0.0273476 0.0206846 0.0
-0.0301963 0.0233483 0.0
-0.0334537 0.0262084 0.0
-0.0371721 0.0292628 0.0
-0.0414132 0.0324974 0.0
-0.0462483 0.0358806 0.0
-0.0517579 0.0393558 0.0
-0.0580285 0.0428317 0.0
-0.0651391 0.0461694 0.0
-0.0731173 0.0491682 0.0
-0.0817921 0.0515407 0.0
-0.0903248 0.0529081 0.0
-0.0958701 0.0527037 0.0
-0.0902055 0.050297 0.0
-0.0532291 0.044387 0.0
0.0556113 0.0346119 0.0
0.295617 0.0183404 0.0
0.718563 0.00408101 0.0
-0.00510418 0.000121789 0.0
-0.0109501 0.000782733 0.0
-0.0139217 0.00188104 0.0
-0.0154281 0.00307739 0.0
-0.0164051 0.00437335 0.0
-0.0173106 0.00572792 0.0
-0.01834 0.00715517 0.0
-0.0195697 0.00866378 0.0
-0.0210352 0.010269 0.0
-0.0227601 0.0119849 0.0
-0.0247671 0.0138252 0.0
-0.0270816 0.015802 0.0
-0.0297322 0.0179251 0.0
-0.0327519 0.0202003 0.0
-0.0361781 0.0226278 0.0
-0.0400529 0.0251989 0.0
-0.0444229 0.0278929 0.0
-0.0493384 0.0306721 0.0
-0.0548511 0.0334758 0.0
-0.0610093 0.0362128 0.0
-0.0678422 0.0387519 0.0
-0.0753146 0.040914 0.0
-0.0831772 0.0424558 0.0
-0.0904928 0.0430737 0.0
-0.0942841 0.0423357 0.0
-0.0861493 0.0397918 0.0
-0.0458163 0.0345075 0.0
0.0669527 0.0263538 0.0
0.309647 0.0135562 0.0
0.727496 0.00274467 0.0
-0.00550553 0.000103051 0.0
-0.0117861 0.000659466 0.0
-0.0149701 0.00158252 0.0
-0.0165814 0.00258714 0.0
-0.0176258 0.00367499 0.0
-0.0185935 0.00481179 0.0
-0.0196927 0.00600935 0.0
-0.0210042 0.00727475 0.0
-0.0225641 0.0086205 0.0
-0.0243959 0.0100577 0.0
-0.0265209 0.011597 0.0
-0.0289623 0.0132475 0.0
-0.0317457 0.0150156 0.0
-0.0348988 0.0169037 0.0
-0.0384521 0.0189088 0.0
-0.0424372 0.0210195 0.0
-0.0468867 0.0232134 0.0
-0.0518319 0.0254529 0.0
-0.0572997 0.0276804 0.0
-0.0633065 0.029813 0.0
-0.0698426 0.0317361 0.0
-0.0768262 0.0332987 0.0
-0.0839541 0.0343036 0.0
-0.0902245 0.0345151 0.0
-0.092575 0.0336082 0.0
-0.0824899 0.03126 0.0
-0.0395981 0.0267888 0.0
0.0760381 0.0201639 0.0
0.320472 0.0101599 0.0
0.73407 0.00191991 0.0
-0.00583629 8.30364e-05 0.0
-0.0124732 0.0005282 0.0
-0.0158307 0.00126503 0.0
-0.0175274 0.00206623 0.0
-0.0186269 0.00293364 0.0
-0.0196457 0.0038403 0.0
-0.0208024 0.00479585 0.0
-0.0221808 0.00580606 0.0
-0.0238179 0.0068809 0.0
-0.0257364 0.00802911 0.0
-0.0279568 0.00925904 0.0
-0.0304999 0.0105774 0.0
-0.0333882 0.0119888 0.0
-0.036645 0.0134941 0.0
-0.040294 0.0150896 0.0
-0.0443578 0.0167643 0.0
-0.0488569 0.0184981 0.0
-0.0538062 0.0202579 0.0
-0.0592125 0.0219948 0.0
-0.0650669 0.0236395 0.0
-0.0713301 0.0250985 0.0
-0.0778865 0.0262511 0.0
-0.0843956 0.0269439 0.0
-0.089813 0.0269975 0.0
-0.0910181 0.0261687 0.0
-0.0794159 0.0242193 0.0
-0.0345695 0.0206377 0.0
0.0832023 0.0154147 0.0
0.328809 0.00767332 0.0
0.738984 0.0013868 0.0
-0.00609238 6.19379e-05 0.0
-0.013003 0.000390347 0.0
-0.0164932 0.000932064 0.0
-0.0182554 0.00152043 0.0
-0.0193975 0.0021575 0.0
-0.0204563 0.00282412 0.0
-0.021658 0.00352786 0.0
-0.0230891 0.00427336 0.0
-0.0247869 0.00506834 0.0
-0.0267738 0.00591962 0.0
-0.029069 0.00683375 0.0
-0.0316919 0.00781612 0.0
-0.0346622 0.00887046 0.0
-0.0379996 0.00999792 0.0
-0.0417224 0.0111959 0.0
-0.0458459 0.0124565 0.0
-0.0503808 0.0137646 0.0
-0.0553294 0.0150957 0.0
-0.0606824 0.0164129 0.0
-0.0664118 0.0176641 0.0
-0.0724561 0.0187792 0.0
-0.0786753 0.0196681 0.0
-0.0847023 0.0202165 0.0
-0.0894618 0.0202908 0.0
-0.089789 0.0197077 0.0
-0.0770252 0.0182819 0.0
-0.0306788 0.0156125 0.0
0.0887255 0.0116678 0.0
0.335183 0.00578943 0.0
0.742684 0.00102257 0.0
-0.00627053 3.99739e-05 0.0
-0.013369 0.000247379 0.0
-0.0169497 0.000587178 0.0
-0.0187568 0.000955518 0.0
-0.0199289 0.00135471 0.0
-0.0210165 0.00177376 0.0
-0.0222512 0.00221817 0.0
-0.0237211 0.00269162 0.0
-0.0254639 0.00319978 0.0
-0.0275016 0.00374786 0.0
-0.0298531 0.00434111 0.0
-0.0325364 0.0049842 0.0
-0.0355698 0.00568099 0.0
-0.0389703 0.0064339 0.0
-0.0427525 0.00724318 0.0
-0.0469267 0.00810583 0.0
-0.0514964 0.00901431 0.0
-0.0564551 0.00995486 0.0
-0.0617818 0.0109055 0.0
-0.0674347 0.0118337 0.0
-0.0733358 0.0126944 0.0
-0.0793268 0.0134274 0.0
-0.0850201 0.0139535 0.0
-0.0893141 0.0141761 0.0
-0.0890041 0.0139546 0.0
-0.0753712 0.0131331 0.0
-0.0278683 0.0113784 0.0
0.0928241 0.00861035 0.0
0.339965 0.00430585 0.0
0.745459 0.00075809 0.0
-0.00636827 1.73828e-05 0.0
-0.0135665 0.000100815 0.0
-0.0171943 0.00023398 0.0
-0.0190254 0.000377327 0.0
-0.0202147 0.00053342 0.0
-0.0213199 0.000699607 0.0
-0.0225756 0.000879313 0.0
-0.0240706 0.00107534 0.0
-0.025843 0.00129138 0.0
-0.0279149 0.00153123 0.0
-0.0303051 0.00179909 0.0
-0.0330316 0.00209934 0.0
-0.0361118 0.00243655 0.0
-0.0395617 0.00281521 0.0
-0.0433943 0.00323945 0.0
-0.0476172 0.00371251 0.0
-0.0522301 0.00423603 0.0
-0.0572211 0.00480899 0.0
-0.0625621 0.00542634 0.0
-0.068202 0.00607739 0.0
-0.0740511 0.00674323 0.0
-0.0799369 0.00739394 0.0
-0.0854527 0.00798338 0.0
-0.0894709 0.00844538 0.0
-0.0887437 0.00866946 0.0
-0.0744878 0.00851051 0.0
-0.0260919 0.00767132 0.0
0.0956543 0.00600742 0.0
0.343415 0.003081 0.0
0.747494 0.000552732 0.0
-0.00638398 -5.59883e-06 0.0
-0.0135922 -4.78193e-05 0.0
-0.0172234 -0.000123878 0.0
-0.0190572 -0.000208236 0.0
-0.0202507 -0.000298136 0.0
-0.0213623 -0.000387858 0.0
-0.0226267 -0.000476136 0.0
-0.024133 -0.000561089 0.0
-0.0259195 -0.000641029 0.0
-0.0280091 -0.000713537 0.0
-0.0304209 -0.000775433 0.0
-0.0331736 -0.00082248 0.0
-0.0362853 -0.000849207 0.0
-0.0397728 -0.000848694 0.0
-0.0436494 -0.000812404 0.0
-0.0479229 -0.000730091 0.0
-0.0525926 -0.000589871 0.0
-0.0576453 -0.000378552 0.0
-0.0630504 -8.241e-05 0.0
-0.0687524 0.000311433 0.0
-0.0746538 0.000812395 0.0
-0.0805695 0.00142263 0.0
-0.086074 0.00212929 0.0
-0.0900072 0.00289414 0.0
-0.0890685 0.00362772 0.0
-0.0743998 0.00418177 0.0
-0.0253185 0.00427017 0.0
0.0973153 0.00367081 0.0
0.345694 0.00200719 0.0
0.748903 0.000380111 0.0
-0.00631695 -2.87774e-05 0.0
-0.013445 -0.00019708 0.0
-0.0170354 -0.000482727 0.0
-0.0188505 -0.000795114 0.0
-0.0200352 -0.00113147 0.0
-0.0211417 -0.00147787 0.0
-0.0224023 -0.00183531 0.0
-0.0239056 -0.00220297 0.0
-0.0256904 -0.00258129 0.0
-0.0277804 -0.00296945 0.0
-0.030196 -0.00336541 0.0
-0.0329576 -0.00376533 0.0
-0.0360853 -0.00416298 0.0
-0.0395982 -0.00454918 0.0
-0.0435126 -0.00491102 0.0
-0.0478394 -0.00523113 0.0
-0.0525813 -0.00548698 0.0
-0.0577283 -0.00565032 0.0
-0.063252 -0.00568723 0.0
-0.069097 -0.00555906 0.0
-0.075163 -0.00522478 0.0
-0.0812555 -0.00464601 0.0
-0.086927 -0.00379777 0.0
-0.0909764 -0.00268745 0.0
-0.0900363 -0.00138774 0.0
-0.0751556 -6.96223e-05 0.0
-0.0255507 0.000967633 0.0
0.0978637 0.00142378 0.0
0.346896 0.000989332 0.0
0.749747 0.000221548 0.0
-0.00616709 -5.19167e-05 0.0
-0.0131252 -0.00034537 0.0
-0.0166311 -0.000838682 0.0
-0.0184062 -0.00137699 0.0
-0.0195687 -0.00195779 0.0
-0.0206581 -0.00255923 0.0
-0.0219017 -0.00318476 0.0
-0.0233869 -0.00383486 0.0
-0.025153 -0.00451238 0.0
-0.0272248 -0.00521841 0.0
-0.0296248 -0.00595256 0.0
-0.0323758 -0.00671185 0.0
-0.0355012 -0.00748996 0.0
-0.0390245 -0.00827612 0.0
-0.0429671 -0.00905376 0.0
-0.0473466 -0.00979905 0.0
-0.0521731 -0.0104792 0.0
-0.0574447 -0.0110508 0.0
-0.0631415 -0.0114589 0.0
-0.0692147 -0.0116366 0.0
-0.075567 -0.0115068 0.0
-0.0819976 -0.0109888 0.0
-0.0880349 -0.0100114 0.0
-0.0924226 -0.00854153 0.0
-0.0916931 -0.00662859 0.0
-0.07677 -0.00447114 0.0
-0.0268007 -0.00241002 0.0
0.0972678 -0.000865556 0.0
0.347003 -6.19565e-05 0.0
0.750039 5.07923e-05 0.0
-0.00593542 -7.47176e-05 0.0
-0.0126353 -0.00049091 0.0
-0.0160137 -0.00118762 0.0
-0.0177276 -0.00194727 0.0
-0.0188544 -0.0027679 0.0
-0.0199142 -0.0036202 0.0
-0.0211268 -0.0045103 0.0
-0.0225778 -0.00544031 0.0
-0.0243067 -0.00641588 0.0
-0.02634 -0.00744056 0.0
-0.0287023 -0.00851626 0.0
-0.0314198 -0.00964178 0.0
-0.0345205 -0.0108118 0.0
-0.0380338 -0.0120152 0.0
-0.0419888 -0.0132333 0.0
-0.046413 -0.0144372 0.0
-0.0513285 -0.0155855 0.0
-0.0567474 -0.0166205 0.0
-0.0626652 -0.017466 0.0
-0.0690483 -0.0180249 0.0
-0.0758106 -0.0181798 0.0
-0.0827517 -0.0177988 0.0
-0.089377 -0.0167517 0.0
-0.0943642 -0.0149482 0.0
-0.0941161 -0.0123965 0.0
-0.0793767 -0.00930765 0.0
-0.029154 -0.00607981 0.0
0.0955396 -0.00331683 0.0
0.345994 -0.00119258 0.0
0.749703 -0.000142412 0.0
-0.0056239 -9.68782e-05 0.0
-0.0119798 -0.00063186 0.0
-0.0151888 -0.00152522 0.0
-0.0168206 -0.00249901 0.0
-0.0178979 -0.00355209 0.0
-0.018915 -0.00464827 0.0
-0.0200819 -0.00579665 0.0
-0.0214812 -0.00700133 0.0
-0.0231527 -0.0082713 0.0
-0.0251243 -0.00961322 0.0
-0.0274234 -0.0110322 0.0
-0.03008 -0.0125301 0.0
-0.0331274 -0.014104 0.0
-0.0366024 -0.0157445 0.0
-0.0405442 -0.0174331 0.0
-0.0449933 -0.0191388 0.0
-0.0499884 -0.020814 0.0
-0.0555626 -0.0223896 0.0
-0.0617353 -0.0237695 0.0
-0.0684991 -0.024826 0.0
-0.0757918 -0.0253963 0.0
-0.0834253 -0.0252868 0.0
-0.0908883 -0.0242896 0.0
-0.0967837 -0.02223 0.0
-0.0973506 -0.0190461 0.0
-0.0830911 -0.0149398 0.0
-0.0328047 -0.010367 0.0
0.0924669 -0.00615377 0.0
0.343755 -0.00248752 0.0
0.748712 -0.000366469 0.0
-0.00523555 -0.000118101 0.0
-0.0111652 -0.000766331 0.0
-0.0141646 -0.001847 0.0
-0.015694 -0.00302496 0.0
-0.0167078 -0.00430011 0.0
-0.0176688 -0.00563012 0.0
-0.0187741 -0.0070273 0.0
-0.020103 -0.00849824 0.0
-0.0216949 -0.0100557 0.0
-0.023579 -0.0117103 0.0
-0.0257853 -0.0134715 0.0
-0.0283477 -0.0153454 0.0
-0.0313056 -0.0173339 0.0
-0.0347039 -0.0194317 0.0
-0.0385935 -0.0216238 0.0
-0.0430307 -0.0238812 0.0
-0.0480759 -0.0261548 0.0
-0.0537896 -0.0283691 0.0
-0.060226 -0.0304128 0.0
-0.0674184 -0.0321295 0.0
-0.0753469 -0.0333088 0.0
-0.0838567 -0.0336842 0.0
-0.0924362 -0.0329463 0.0
-0.099614 -0.0307968 0.0
-0.10143 -0.0270535 0.0
-0.0880593 -0.0218638 0.0
-0.0379802 -0.0157302 0.0
0.0877928 -0.00975044 0.0
0.340033 -0.00416475 0.0
0.746911 -0.000672214 0.0
-0.0047745 -0.000138103 0.0
-0.0102003 -0.000892391 0.0
-0.0129522 -0.0021483 0.0
-0.0143595 -0.00351747 0.0
-0.015296 -0.00500107 0.0
-0.0161869 -0.00655147 0.0
-0.0172144 -0.00818438 0.0
-0.0184528 -0.00990929 0.0
-0.0199408 -0.0117433 0.0
-0.0217086 -0.0137017 0.0
-0.0237883 -0.0157994 0.0
-0.0262175 -0.0180488 0.0
-0.0290408 -0.0204583 0.0
-0.0323119 -0.0230303 0.0
-0.0360938 -0.0257576 0.0
-0.0404609 -0.0286185 0.0
-0.0454984 -0.0315701 0.0
-0.0513017 -0.0345385 0.0
-0.0579711 -0.0374062 0.0
-0.0655984 -0.0399963 0.0
-0.0742319 -0.0420544 0.0
-0.0837834 -0.043234 0.0
-0.0937756 -0.0430997 0.0
-0.102682 -0.0411786 0.0
-0.106312 -0.0370917 0.0
-0.0944159 -0.0308421 0.0
-0.0449784 -0.022928 0.0
0.0811151 -0.0147375 0.0
0.334381 -0.00660797 0.0
0.743992 -0.00116172 0.0
-0.00424574 -0.000156675 0.0
-0.00909612 -0.0010081 0.0
-0.011565 -0.00242415 0.0
-0.0128318 -0.00396831 0.0
-0.0136775 -0.00564317 0.0
-0.0144842 -0.00739669 0.0
-0.0154169 -0.00924808 0.0
-0.016544 -0.0112101 0.0
-0.0179025 -0.0133045 0.0
-0.0195227 -0.015552 0.0
-0.0214381 -0.0179741 0.0
-0.0236886 -0.0205908 0.0
-0.0263236 -0.02342 0.0
-0.0294037 -0.0264751 0.0
-0.033004 -0.0297617 0.0
-0.0372163 -0.0332728 0.0
-0.0421532 -0.0369808 0.0
-0.0479495 -0.0408264 0.0
-0.0547627 -0.0447017 0.0
-0.0627632 -0.0484265 0.0
-0.0721007 -0.0517179 0.0
-0.0828028 -0.0541563 0.0
-0.0944882 -0.0551646 0.0
-0.105628 -0.0540402 0.0
-0.111807 -0.0501022 0.0
-0.10224 -0.0430512 0.0
-0.0541934 -0.0332381 0.0
0.0717696 -0.0222419 0.0
0.325973 -0.0105524 0.0
0.739306 -0.00205184 0.0
-0.00365579 -0.000173605 0.0
-0.0078668 -0.00111113 0.0
-0.0100209 -0.00266849 0.0
-0.0111303 -0.00436746 0.0
-0.0118723 -0.00621202 0.0
-0.0125812 -0.00814672 0.0
-0.0134022 -0.0101942 0.0
-0.0143969 -0.0123704 0.0
-0.0155996 -0.0147023 0.0
-0.0170397 -0.0172163 0.0
-0.0187503 -0.0199412 0.0
-0.0207723 -0.0229062 0.0
-0.0231572 -0.0261407 0.0
-0.0259707 -0.0296725 0.0
-0.0292964 -0.0335256 0.0
-0.0332415 -0.0377156 0.0
-0.0379436 -0.0422422 0.0
-0.0435783 -0.0470779 0.0
-0.0503665 -0.0521479 0.0
-0.0585748 -0.0572998 0.0
-0.0684911 -0.0622588 0.0
-0.0803223 -0.0665661 0.0
-0.0938782 -0.0695186 0.0
-0.107738 -0.07015 0.0
-0.117334 -0.0673583 0.0
-0.11129 -0.0602948 0.0
-0.065903 -0.0488445 0.0
0.058921 -0.0343379 0.0
0.313514 -0.0174402 0.0
0.731645 -0.00380493 0.0
-0.003011 -0.000188724 0.0
-0.00652798 -0.00119798 0.0
-0.0083395 -0.00287184 0.0
-0.0092762 -0.00469938 0.0
-0.00990214 -0.00668556 0.0
-0.0105 -0.00877257 0.0
-0.0111932 -0.0109859 0.0
-0.012035 -0.0133449 0.0
-0.013056 -0.015881 0.0
-0.014283 -0.0186267 0.0
-0.0157472 -0.0216183 0.0
-0.0174879 -0.0248951 0.0
-0.0195558 -0.0284991 0.0
-0.0220169 -0.0324755 0.0
-0.0249584 -0.0368708 0.0
-0.0284962 -0.0417308 0.0
-0.0327859 -0.0470953 0.0
-0.0380368 -0.0529882 0.0
-0.0445306 -0.0593991 0.0
-0.0526376 -0.0662498 0.0
-0.0628139 -0.0733382 0.0
-0.0755172 -0.0802478 0.0
-0.0908786 -0.0862304 0.0
-0.10778 -0.0900958 0.0
-0.121719 -0.0902424 0.0
-0.120858 -0.0849636 0.0
-0.0804383 -0.0731049 0.0
0.0408648 -0.0546715 0.0
0.294235 -0.0301354 0.0
0.718221 -0.00746221 0.0
-0.0023241 -0.000200369 0.0
-0.00510758 -0.00125892 0.0
-0.00655495 -0.00301236 0.0
-0.0073067 -0.00493019 0.0
-0.00780637 -0.0070171 0.0
-0.00828207 -0.00921391 0.0
-0.00883371 -0.0115479 0.0
-0.0095051 -0.0140412 0.0
-0.0103217 -0.0167293 0.0
-0.0113065 -0.0196497 0.0
-0.0124865 -0.0228459 0.0
-0.0138967 -0.0263664 0.0
-0.0155827 -0.0302661 0.0
-0.0176057 -0.0346078 0.0
-0.0200485 -0.0394628 0.0
-0.0230252 -0.0449117 0.0
-0.0266951 -0.0510437 0.0
-0.0312839 -0.0579524 0.0
-0.0371135 -0.0657253 0.0
-0.0446414 -0.0744168 0.0
-0.0544917 -0.0839942 0.0
-0.0674159 -0.0942302 0.0
-0.0839965 -0.104528 0.0
-0.103677 -0.113679 0.0
-0.122423 -0.119675 0.0
-0.128412 -0.11972 0.0
-0.0962067 -0.110728 0.0