# vtk DataFile Version 3.0
Malha 2D com triângulos e temperatura
ASCII
DATASET UNSTRUCTURED_GRID

POINTS 2500 double
0 0 0
1 0 0
1 1 0
0 1 0
0.0204082 0 0
0.0408163 0 0
0.0612245 0 0
0.0816327 0 0
0.102041 0 0
0.122449 0 0
0.142857 0 0
0.163265 0 0
0.183673 0 0
0.204082 0 0
0.22449 0 0
0.244898 0 0
0.265306 0 0
0.285714 0 0
0.306122 0 0
0.326531 0 0
0.346939 0 0
0.367347 0 0
0.387755 0 0
0.408163 0 0
0.428571 0 0
0.44898 0 0
0.469388 0 0
0.489796 0 0
0.510204 0 0
0.530612 0 0
0.55102 0 0
0.571429 0 0
0.591837 0 0
0.612245 0 0
0.632653 0 0
0.653061 0 0
0.673469 0 0
0.693878 0 0
0.714286 0 0
0.734694 0 0
0.755102 0 0
0.77551 0 0
0.795918 0 0
0.816327 0 0
0.836735 0 0
0.857143 0 0
0.877551 0 0
0.897959 0 0
0.918367 0 0
0.938776 0 0
0.959184 0 0
0.979592 0 0
1 0.0204082 0
1 0.0408163 0
1 0.0612245 0
1 0.0816327 0
1 0.102041 0
1 0.122449 0
1 0.142857 0
1 0.163265 0
1 0.183673 0
1 0.204082 0
1 0.22449 0
1 0.244898 0
1 0.265306 0
1 0.285714 0
1 0.306122 0
1 0.326531 0
1 0.346939 0
1 0.367347 0
1 0.387755 0
1 0.408163 0
1 0.428571 0
1 0.44898 0
1 0.469388 0
1 0.489796 0
1 0.510204 0
1 0.530612 0
1 0.55102 0
1 0.571429 0
1 0.591837 0
1 0.612245 0
1 0.632653 0
1 0.653061 0
1 0.673469 0
1 0.693878 0
1 0.714286 0
1 0.734694 0
1 0.755102 0
1 0.77551 0
1 0.795918 0
1 0.816327 0
1 0.836735 0
1 0.857143 0
1 0.877551 0
1 0.897959 0
1 0.918367 0
1 0.938776 0
1 0.959184 0
1 0.979592 0
0.979592 1 0
0.959184 1 0
0.938776 1 0
0.918367 1 0
0.897959 1 0
0.877551 1 0
0.857143 1 0
0.836735 1 0
0.816327 1 0
0.795918 1 0
0.77551 1 0
0.755102 1 0
0.734694 1 0
0.714286 1 0
0.693878 1 0
0.673469 1 0
0.653061 1 0
0.632653 1 0
0.612245 1 0
0.591837 1 0
0.571429 1 0
0.55102 1 0
0.530612 1 0
0.510204 1 0
0.489796 1 0
0.469388 1 0
0.44898 1 0
0.428571 1 0
0.408163 1 0
0.387755 1 0
0.367347 1 0
0.346939 1 0
0.326531 1 0
0.306122 1 0
0.285714 1 0
0.265306 1 0
0.244898 1 0
0.22449 1 0
0.204082 1 0
0.183673 1 0
0.163265 1 0
0.142857 1 0
0.122449 1 0
0.102041 1 0
0.0816327 1 0
0.0612245 1 0
0.0408163 1 0
0.0204082 1 0
0 0.979592 0
0 0.959184 0
0 0.938776 0
0 0.918367 0
0 0.897959 0
0 0.877551 0
0 0.857143 0
0 0.836735 0
0 0.816327 0
0 0.795918 0
0 0.77551 0
0 0.755102 0
0 0.734694 0
0 0.714286 0
0 0.693878 0
0 0.673469 0
0 0.653061 0
0 0.632653 0
0 0.612245 0
0 0.591837 0
0 0.571429 0
0 0.55102 0
0 0.530612 0
0 0.510204 0
0 0.489796 0
0 0.469388 0
0 0.44898 0
0 0.428571 0
0 0.408163 0
0 0.387755 0
0 0.367347 0
0 0.346939 0
0 0.326531 0
0 0.306122 0
0 0.285714 0
0 0.265306 0
0 0.244898 0
0 0.22449 0
0 0.204082 0
0 0.183673 0
0 0.163265 0
0 0.142857 0
0 0.122449 0
0 0.102041 0
0 0.0816327 0
0 0.0612245 0
0 0.0408163 0
0 0.0204082 0
0.0204082 0.979592 0
0.0204082 0.959184 0
0.0204082 0.938776 0
0.0204082 0.918367 0
0.0204082 0.897959 0
0.0204082 0.877551 0
0.0204082 0.857143 0
0.0204082 0.836735 0
0.0204082 0.816327 0
0.0204082 0.795918 0
0.0204082 0.77551 0
0.0204082 0.755102 0
0.0204082 0.734694 0
0.0204082 0.714286 0
0.0204082 0.693878 0
0.0204082 0.673469 0
0.0204082 0.653061 0
0.0204082 0.632653 0
0.0204082 0.612245 0
0.0204082 0.591837 0
0.0204082 0.571429 0
0.0204082 0.55102 0
0.0204082 0.530612 0
0.0204082 0.510204 0
0.0204082 0.489796 0
0.0204082 0.469388 0
0.0204082 0.44898 0
0.0204082 0.428571 0
0.0204082 0.408163 0
0.0204082 0.387755 0
0.0204082 0.367347 0
0.0204082 0.346939 0
0.0204082 0.326531 0
0.0204082 0.306122 0
0.0204082 0.285714 0
0.0204082 0.265306 0
0.0204082 0.244898 0
0.0204082 0.22449 0
0.0204082 0.204082 0
0.0204082 0.183673 0
0.0204082 0.163265 0
0.0204082 0.142857 0
0.0204082 0.122449 0
0.0204082 0.102041 0
0.0204082 0.0816327 0
0.0204082 0.0612245 0
0.0204082 0.0408163 0
0.0204082 0.0204082 0
0.0408163 0.979592 0
0.0408163 0.959184 0
0.0408163 0.938776 0
0.0408163 0.918367 0
0.0408163 0.897959 0
0.0408163 0.877551 0
0.0408163 0.857143 0
0.0408163 0.836735 0
0.0408163 0.816327 0
0.0408163 0.795918 0
0.0408163 0.77551 0
0.0408163 0.755102 0
0.0408163 0.734694 0
0.0408163 0.714286 0
0.0408163 0.693878 0
0.0408163 0.673469 0
0.0408163 0.653061 0
0.0408163 0.632653 0
0.0408163 0.612245 0
0.0408163 0.591837 0
0.0408163 0.571429 0
0.0408163 0.55102 0
0.0408163 0.530612 0
0.0408163 0.510204 0
0.0408163 0.489796 0
0.0408163 0.469388 0
0.0408163 0.44898 0
0.0408163 0.428571 0
0.0408163 0.408163 0
0.0408163 0.387755 0
0.0408163 0.367347 0
0.0408163 0.346939 0
0.0408163 0.326531 0
0.0408163 0.306122 0
0.0408163 0.285714 0
0.0408163 0.265306 0
0.0408163 0.244898 0
0.0408163 0.22449 0
0.0408163 0.204082 0
0.0408163 0.183673 0
0.0408163 0.163265 0
0.0408163 0.142857 0
0.0408163 0.122449 0
0.0408163 0.102041 0
0.0408163 0.0816327 0
0.0408163 0.0612245 0
0.0408163 0.0408163 0
0.0408163 0.0204082 0
0.0612245 0.979592 0
0.0612245 0.959184 0
0.0612245 0.938776 0
0.0612245 0.918367 0
0.0612245 0.897959 0
0.0612245 0.877551 0
0.0612245 0.857143 0
0.0612245 0.836735 0
0.0612245 0.816327 0
0.0612245 0.795918 0
0.0612245 0.77551 0
0.0612245 0.755102 0
0.0612245 0.734694 0
0.0612245 0.714286 0
0.0612245 0.693878 0
0.0612245 0.673469 0
0.0612245 0.653061 0
0.0612245 0.632653 0
0.0612245 0.612245 0
0.0612245 0.591837 0
0.0612245 0.571429 0
0.0612245 0.55102 0
0.0612245 0.530612 0
0.0612245 0.510204 0
0.0612245 0.489796 0
0.0612245 0.469388 0
0.0612245 0.44898 0
0.0612245 0.428571 0
0.0612245 0.408163 0
0.0612245 0.387755 0
0.0612245 0.367347 0
0.0612245 0.346939 0
0.0612245 0.326531 0
0.0612245 0.306122 0
0.0612245 0.285714 0
0.0612245 0.265306 0
0.0612245 0.244898 0
0.0612245 0.22449 0
0.0612245 0.204082 0
0.0612245 0.183673 0
0.0612245 0.163265 0
0.0612245 0.142857 0
0.0612245 0.122449 0
0.0612245 0.102041 0
0.0612245 0.0816327 0
0.0612245 0.0612245 0
0.0612245 0.0408163 0
0.0612245 0.0204082 0
0.0816327 0.979592 0
0.0816327 0.959184 0
0.0816327 0.938776 0
0.0816327 0.918367 0
0.0816327 0.897959 0
0.0816327 0.877551 0
0.0816327 0.857143 0
0.0816327 0.836735 0
0.0816327 0.816327 0
0.0816327 0.795918 0
0.0816327 0.77551 0
0.0816327 0.755102 0
0.0816327 0.734694 0
0.0816327 0.714286 0
0.0816327 0.693878 0
0.0816327 0.673469 0
0.0816327 0.653061 0
0.0816327 0.632653 0
0.0816327 0.612245 0
0.0816327 0.591837 0
0.0816327 0.571429 0
0.0816327 0.55102 0
0.0816327 0.530612 0
0.0816327 0.510204 0
0.0816327 0.489796 0
0.0816327 0.469388 0
0.0816327 0.44898 0
0.0816327 0.428571 0
0.0816327 0.408163 0
0.0816327 0.387755 0
0.0816327 0.367347 0
0.0816327 0.346939 0
0.0816327 0.326531 0
0.0816327 0.306122 0
0.0816327 0.285714 0
0.0816327 0.265306 0
0.0816327 0.244898 0
0.0816327 0.22449 0
0.0816327 0.204082 0
0.0816327 0.183673 0
0.0816327 0.163265 0
0.0816327 0.142857 0
0.0816327 0.122449 0
0.0816327 0.102041 0
0.0816327 0.0816327 0
0.0816327 0.0612245 0
0.0816327 0.0408163 0
0.0816327 0.0204082 0
0.102041 0.979592 0
0.102041 0.959184 0
0.102041 0.938776 0
0.102041 0.918367 0
0.102041 0.897959 0
0.102041 0.877551 0
0.102041 0.857143 0
0.102041 0.836735 0
0.102041 0.816327 0
0.102041 0.795918 0
0.102041 0.77551 0
0.102041 0.755102 0
0.102041 0.734694 0
0.102041 0.714286 0
0.102041 0.693878 0
0.102041 0.673469 0
0.102041 0.653061 0
0.102041 0.632653 0
0.102041 0.612245 0
0.102041 0.591837 0
0.102041 0.571429 0
0.102041 0.55102 0
0.102041 0.530612 0
0.102041 0.510204 0
0.102041 0.489796 0
0.102041 0.469388 0
0.102041 0.44898 0
0.102041 0.428571 0
0.102041 0.408163 0
0.102041 0.387755 0
0.102041 0.367347 0
0.102041 0.346939 0
0.102041 0.326531 0
0.102041 0.306122 0
0.102041 0.285714 0
0.102041 0.265306 0
0.102041 0.244898 0
0.102041 0.22449 0
0.102041 0.204082 0
0.102041 0.183673 0
0.102041 0.163265 0
0.102041 0.142857 0
0.102041 0.122449 0
0.102041 0.102041 0
0.102041 0.0816327 0
0.102041 0.0612245 0
0.102041 0.0408163 0
0.102041 0.0204082 0
0.122449 0.979592 0
0.122449 0.959184 0
0.122449 0.938776 0
0.122449 0.918367 0
0.122449 0.897959 0
0.122449 0.877551 0
0.122449 0.857143 0
0.122449 0.836735 0
0.122449 0.816327 0
0.122449 0.795918 0
0.122449 0.77551 0
0.122449 0.755102 0
0.122449 0.734694 0
0.122449 0.714286 0
0.122449 0.693878 0
0.122449 0.673469 0
0.122449 0.653061 0
0.122449 0.632653 0
0.122449 0.612245 0
0.122449 0.591837 0
0.122449 0.571429 0
0.122449 0.55102 0
0.122449 0.530612 0
0.122449 0.510204 0
0.122449 0.489796 0
0.122449 0.469388 0
0.122449 0.44898 0
0.122449 0.428571 0
0.122449 0.408163 0
0.122449 0.387755 0
0.122449 0.367347 0
0.122449 0.346939 0
0.122449 0.326531 0
0.122449 0.306122 0
0.122449 0.285714 0
0.122449 0.265306 0
0.122449 0.244898 0
0.122449 0.22449 0
0.122449 0.204082 0
0.122449 0.183673 0
0.122449 0.163265 0
0.122449 0.142857 0
0.122449 0.122449 0
0.122449 0.102041 0
0.122449 0.0816327 0
0.122449 0.0612245 0
0.122449 0.0408163 0
0.122449 0.0204082 0
0.142857 0.979592 0
0.142857 0.959184 0
0.142857 0.938776 0
0.142857 0.918367 0
0.142857 0.897959 0
0.142857 0.877551 0
0.142857 0.857143 0
0.142857 0.836735 0
0.142857 0.816327 0
0.142857 0.795918 0
0.142857 0.77551 0
0.142857 0.755102 0
0.142857 0.734694 0
0.142857 0.714286 0
0.142857 0.693878 0
0.142857 0.673469 0
0.142857 0.653061 0
0.142857 0.632653 0
0.142857 0.612245 0
0.142857 0.591837 0
0.142857 0.571429 0
0.142857 0.55102 0
0.142857 0.530612 0
0.142857 0.510204 0
0.142857 0.489796 0
0.142857 0.469388 0
0.142857 0.44898 0
0.142857 0.428571 0
0.142857 0.408163 0
0.142857 0.387755 0
0.142857 0.367347 0
0.142857 0.346939 0
0.142857 0.326531 0
0.142857 0.306122 0
0.142857 0.285714 0
0.142857 0.265306 0
0.142857 0.244898 0
0.142857 0.22449 0
0.142857 0.204082 0
0.142857 0.183673 0
0.142857 0.163265 0
0.142857 0.142857 0
0.142857 0.122449 0
0.142857 0.102041 0
0.142857 0.0816327 0
0.142857 0.0612245 0
0.142857 0.0408163 0
0.142857 0.0204082 0
0.163265 0.979592 0
0.163265 0.959184 0
0.163265 0.938776 0
0.163265 0.918367 0
0.163265 0.897959 0
0.163265 0.877551 0
0.163265 0.857143 0
0.163265 0.836735 0
0.163265 0.816327 0
0.163265 0.795918 0
0.163265 0.77551 0
0.163265 0.755102 0
0.163265 0.734694 0
0.163265 0.714286 0
0.163265 0.693878 0
0.163265 0.673469 0
0.163265 0.653061 0
0.163265 0.632653 0
0.163265 0.612245 0
0.163265 0.591837 0
0.163265 0.571429 0
0.163265 0.55102 0
[...]
CELL_DATA 4802
SCALARS Temperatura double 1
LOOKUP_TABLE default
0.00311661
0.0152035
0.0158391
0.0414379
0.0287565
0.0665591
0.0411111
0.0905651
0.0529015
0.113454
0.0641271
0.135226
0.0747874
0.155879
0.0848823
0.175413
0.0944115
0.193828
0.103375
0.211124
0.111773
0.227301
0.119604
0.242358
0.12687
0.256295
0.133569
0.269112
0.139703
0.28081
0.14527
0.291387
0.150272
0.300845
0.154707
0.309182
0.158575
0.316399
0.161878
0.322497
0.164614
0.327474
0.166784
0.331331
0.168388
0.334067
0.169426
0.335684
0.169897
0.33618
0.169802
0.335556
0.169141
0.333812
0.167914
0.330948
0.16612
0.326963
0.16376
0.321859
0.160833
0.315634
0.157341
0.308289
0.153282
0.299824
0.148657
0.290239
0.143466
0.279533
0.137709
0.267708
0.131385
0.254763
0.124496
0.240699
0.11704
0.225514
0.109019
0.20921
0.100431
0.191786
0.0912776
0.173242
0.081558
0.153579
0.0712724
0.132796
0.06042
0.110891
0.048999
0.0878589
0.0370008
0.0636756
0.0243871
0.038231
0.010965
0.010965
0.0158391
0.0414379
0.0673855
0.105387
0.117479
0.16661
0.165377
0.225106
0.211074
0.280871
0.254571
0.333904
0.295864
0.384203
0.334954
0.431767
0.371841
0.476596
0.406522
0.518689
0.438999
0.558046
0.46927
0.594667
0.497336
0.62855
0.523197
0.659696
0.546851
0.688105
0.5683
0.713777
0.587542
0.736711
0.604578
0.756907
0.619409
0.774366
0.632032
0.789086
0.64245
0.801069
0.650661
0.810314
0.656665
0.81682
0.660463
0.820589
0.662055
0.82162
0.66144
0.819912
0.658619
0.815466
0.653591
0.808283
0.646356
0.798361
0.636916
0.785701
0.625268
0.770304
0.611415
0.752168
0.595355
0.731295
0.577089
0.707684
0.556617
0.681335
0.533938
0.652249
0.509054
0.620426
0.481964
0.585865
0.452669
0.548568
0.421167
0.508534
0.387461
0.465763
0.351549
0.420256
0.313432
0.372012
0.27311
0.321031
0.230581
0.267312
0.185841
0.210851
0.138881
0.151637
0.0896687
0.0896687
0.038231
0.0243871
0.0287565
0.0665591
0.117479
0.16661
0.203168
0.262391
0.285092
0.353899
0.363249
0.441131
0.437636
0.524084
0.508251
0.602758
0.575093
0.67715
0.638161
0.74726
0.697454
0.813087
0.752972
0.87463
0.804714
0.931888
0.852679
0.984862
0.896868
1.03355
0.93728
1.07796
0.973914
1.11807
1.00677
1.15391
1.03585
1.18545
1.06115
1.21271
1.08268
1.23569
1.10042
1.25437
1.11439
1.26877
1.12458
1.27889
1.13099
1.28472
1.13363
1.28626
1.13248
1.28351
1.12756
1.27648
1.11886
1.26516
1.10638
1.24956
1.09013
1.22967
1.07009
1.20549
1.04628
1.17703
1.01869
1.14428
0.987324
1.10724
0.952179
1.06592
0.913257
1.02031
0.870558
0.97042
0.824082
0.916242
0.773829
0.85778
0.719799
0.795033
0.661994
0.728002
0.600413
0.656688
0.535056
0.58109
0.465924
0.501209
0.393017
0.417045
0.316333
0.328598
0.235872
0.235872
0.151637
0.138881
0.0636756
0.0370008
0.0411111
0.0905651
0.165377
0.225106
0.285092
0.353899
0.399544
0.476942
0.508729
0.594232
0.612643
0.705767
0.711286
0.811544
0.804655
0.911563
0.892749
1.00582
0.975567
1.09432
1.05311
1.17705
1.12537
1.25403
1.19236
1.32523
1.25407
1.39068
1.3105
1.45036
1.36165
1.50428
1.40752
1.55243
1.44811
1.59482
1.48342
1.63144
1.51345
1.6623
1.5382
1.68739
1.55767
1.70672
1.57187
1.72028
1.58078
1.72807
1.58441
1.7301
1.58276
1.72637
1.57583
1.71686
1.56362
1.7016
1.54613
1.68056
1.52335
1.65376
1.4953
1.6212
1.46197
1.58287
1.42336
1.53878
1.37947
1.48892
1.3303
1.43329
1.27585
1.3719
1.21612
1.30475
1.15111
1.23184
1.08083
1.15316
1.00527
1.06871
0.924425
0.978509
0.838308
0.882543
0.746914
0.780817
0.650245
0.67333
0.548301
0.560085
0.441085
0.441085
0.328598
0.316333
0.210851
0.185841
0.0878589
0.048999
0.0529015
0.113454
0.211074
0.280871
0.363249
0.441131
0.508729
0.594232
0.64751
0.740172
0.77959
0.878949
0.904966
1.01056
1.02364
1.135
1.1356
1.25228
1.24086
1.36238
1.33941
1.46531
1.43125
1.56108
1.51638
1.64966
1.59479
1.73108
1.6665
1.80532
1.7315
1.87239
1.78978
1.93229
1.84135
1.98501
1.88621
2.03055
1.92435
2.06892
1.95579
2.10012
1.98051
2.12414
1.99851
2.14098
2.00981
2.15065
2.01439
2.15315
2.01226
2.14847
2.00341
2.13661
1.98785
2.11758
1.96558
2.09137
1.93659
2.05799
1.90089
2.01743
1.85848
1.9697
1.80936
1.91479
1.75352
1.85271
1.69098
1.78345
1.62172
1.70702
1.54574
1.62342
1.46306
1.53264
1.37367
1.43469
1.27756
1.32957
1.17475
1.21728
1.06523
1.09782
0.949003
0.97119
0.826068
0.837392
0.696428
0.696428
0.560085
0.548301
0.417045
0.393017
0.267312
0.230581
0.110891
0.06042
0.0641271
0.135226
0.254571
0.333904
0.437636
0.524084
0.612643
0.705767
0.77959
0.878949
0.938472
1.04363
1.08929
1.1998
1.23204
1.34747
1.36672
1.48663
1.49333
1.61727
1.61187
1.73941
1.72233
1.85304
1.82473
1.95815
1.91904
2.05475
2.00529
2.14284
2.08346
2.22241
2.15355
2.29347
2.21557
2.35602
2.26952
2.41005
2.31538
2.45556
2.35317
2.49256
2.38289
2.52104
2.40453
2.54101
2.41809
2.55246
2.42357
2.5554
2.42098
2.54982
2.41031
2.53572
2.39156
2.51311
2.36474
2.48198
2.32984
2.44234
2.28687
2.39418
2.23582
2.33751
2.17669
2.27232
2.10948
2.19861
2.03421
2.1164
1.95085
2.02566
1.85942
1.92642
1.75992
1.81866
1.65234
1.70239
1.5367
1.57761
1.41297
1.44432
1.28118
1.30252
1.14132
1.15221
0.993389
0.993389
0.837392
0.826068
0.67333
0.650245
0.501209
0.465924
0.321031
0.27311
0.132796
0.0712724
0.0747874
0.155879
0.295864
0.384203
0.508251
0.602758
0.711286
0.811544
0.904966
1.01056
1.08929
1.1998
1.26425
1.37927
1.42986
1.54896
1.5861
1.70886
1.73297
1.85899
1.87048
1.99934
1.99863
2.12991
2.11741
2.25069
2.22682
2.36169
2.32686
2.46291
2.41754
2.55434
2.49884
2.63598
2.57078
2.70784
2.63334
2.76992
2.68654
2.82221
2.73036
2.86471
2.76482
2.89742
2.7899
2.92035
2.80561
2.93349
2.81196
2.93684
2.80893
2.93041
2.79653
2.91419
2.77476
2.88819
2.74362
2.85239
2.7031
2.80681
2.65322
2.75145
2.59397
2.68629
2.52534
2.61136
2.44735
2.52663
2.35999
2.43212
2.26326
2.32783
2.15716
2.21375
2.04169
2.08989
1.91686
1.95625
1.78265
1.81282
1.63909
1.65961
1.48616
1.49663
1.32386
1.32386
1.15221
1.14132
0.97119
0.949003
0.780817
0.746914
0.58109
0.535056
0.372012
0.313432
0.153579
0.081558
0.0848823
0.175413
0.334954
0.431767
0.575093
0.67715
0.804655
0.911563
1.02364
1.135
1.23204
1.34747
1.42986
1.54896
1.61709
1.73946
1.79373
1.91899
1.95979
2.08754
2.11526
2.24511
2.26014
2.39169
2.39442
2.52729
2.51812
2.6519
2.63122
2.76553
2.73373
2.86817
2.82564
2.95982
2.90696
3.04049
2.97769
3.11017
3.03782
3.16886
3.08735
3.21656
3.12629
3.25328
3.15464
3.27901
3.17239
3.29374
3.17954
3.29749
3.1761
3.29025
3.16206
3.27203
3.13743
3.24281
3.1022
3.20261
3.05637
3.15141
2.99995
3.08923
2.93294
3.01606
2.85533
2.93191
2.76712
2.83676
2.66832
2.73063
2.55893
2.61352
2.43895
2.48542
2.30837
2.34633
2.1672
2.19626
2.01544
2.03521
1.85309
1.86317
1.68015
1.68015
1.49663
1.48616
1.30252
1.28118
1.09782
1.06523
0.882543
0.838308
0.656688
0.600413
0.420256
0.351549
0.173242
0.0912776
0.0944115
0.193828
0.371841
0.476596
0.638161
0.74726
0.892749
1.00582
1.1356
1.25228
1.36672
1.48663
1.5861
1.70886
1.79373
1.91899
1.98963
2.11701
2.17378
2.30291
2.34619
2.4767
2.50685
2.63838
2.65577
2.78794
2.79294
2.92538
2.91836
3.0507
3.03203
3.1639
3.13395
3.26499
3.22413
3.35395
3.30255
3.4308
3.36922
3.49552
3.42415
3.54813
3.46732
3.58861
3.49874
3.61698
3.51841
3.63322
3.52633
3.63734
3.52249
3.62934
3.50691
3.60922
3.47957
3.57698
3.44049
3.53262
3.38965
3.47614
3.32706
3.40753
3.25272
3.32681
3.16664
3.23397
3.0688
3.12901
2.95921
3.01193
2.83787
2.88273
2.70479
2.74141
2.55996
2.58798
2.40338
2.42243
2.23505
2.24476
2.05498
2.05498
1.86317
1.85309
1.65961
1.63909
1.44432
1.41297
1.21728
1.17475
0.978509
0.924425
0.728002
0.661994
0.465763
0.387461
0.191786
0.100431
0.103375
0.211124
0.406522
0.518689
0.697454
0.813087
0.975567
1.09432
1.24086
1.36238
1.49333
1.61727
1.73297
1.85899
1.95979
2.08754
2.17378
2.30291
2.37494
2.50511
2.56327
2.69413
2.73877
2.86997
2.90144
3.03263
3.05128
3.18212
3.18828
3.31842
3.31244
3.44154
3.42377
3.55147
3.52227
3.64823
3.60793
3.7318
3.68075
3.80219
3.74073
3.8594
3.78788
3.90342
3.8222
3.93426
3.84367
3.95192
3.85231
3.95639
3.84811
3.94767
3.83107
3.92578
3.8012
3.8907
3.75848
3.84243
3.70293
3.78098
3.63455
3.70635
3.55333
3.61854
3.45927
3.51754
3.35237
3.40336
3.23264
3.276
3.10008
3.13546
2.95468
2.98173
2.79645
2.81483
2.62539
2.63475
2.44149
2.44149
2.24476
2.23505
2.03521
2.01544
1.81282
1.78265
1.57761
1.5367
1.32957
1.27756
1.06871
1.00527
0.795033
0.719799
0.508534
0.421167
0.20921
0.109019
0.111773
0.227301
0.438999
0.558046
0.752972
0.87463
1.05311
1.17705
1.33941
1.46531
1.61187
1.73941
1.87048
1.99934
2.11526
2.24511
2.34619
2.4767
2.56327
2.69413
2.76651
2.89739
2.9559
3.08647
3.13144
3.26138
3.29313
3.42212
3.44097
3.56868
3.57496
3.70107
3.6951
3.81929
3.80139
3.92332
3.89382
4.01318
3.9724
4.08887
4.03712
4.15037
4.08799
4.1977
4.12501
4.23086
4.14818
4.24983
4.15749
4.25463
4.15294
4.24525
4.13454
4.22169
4.10229
4.18395
4.05619
4.13204
3.99623
4.06595
3.92241
3.98568
3.83475
3.89124
3.73323
3.78262
3.61785
3.65982
3.48863
3.52285
3.34555
3.3717
3.18863
3.20638
3.01785
3.02689
2.83322
2.83322
2.63475
2.62539
2.42243
2.40338
2.19626
2.1672
1.95625
1.91686
1.70239
1.65234
1.43469
1.37367
1.15316
1.08083
0.85778
0.773829
0.548568
0.452669
0.225514
0.11704
0.119604
0.242358
0.46927
0.594667
0.804714
0.931888
1.12537
1.25403
1.43125
1.56108
1.72233
1.85304
1.99863
2.12991
2.26014
2.39169
2.50685
2.63838
2.73877
2.86997
2.9559
3.08647
3.15823
3.28787
3.34577
3.47418
3.51851
3.64539
3.67645
3.8015
3.81959
3.94251
3.94794
4.06842
4.06148
4.17923
4.16022
4.27494
4.24417
4.35555
4.31331
4.42106
4.36765
4.47146
4.40719
4.50676
4.43193
4.52697
4.44186
4.53207
4.437
4.52206
4.41733
4.49696
4.38286
4.45675
4.33359
4.40145
4.26952
4.33104
4.19065
4.24553
4.09698
4.14492
3.9885
4.0292
3.86523
3.89839
3.72716
3.75248
3.57429
3.59147
3.40662
3.41536
3.22415
3.22415
3.02689
3.01785
2.81483
2.79645
2.58798
2.55996
2.34633
2.30837
2.08989
2.04169
1.81866
1.75992
1.53264
1.46306
1.23184
1.15111
0.916242
0.824082
0.585865
0.481964
0.240699
0.124496
0.12687
0.256295
0.497336
0.62855
0.852679
0.984862
1.19236
1.32523
1.51638
1.64966
1.82473
1.95815
2.11741
2.25069
2.39442
2.52729
2.65577
2.78794
2.90144
3.03263
3.13144
3.26138
3.34577
3.47418
3.54442
3.67103
3.7274
3.85192
3.8947
4.01686
4.04633
4.16584
4.18228
4.29887
4.30255
4.41595
4.40714
4.51707
4.49605
4.60223
4.56929
4.67144
4.62685
4.72469
4.66872
4.76198
4.69492
4.78332
4.70543
4.7887
4.70027
4.77812
4.67943
4.75159
4.64291
4.7091
4.5907
4.65065
4.52282
4.57624
4.43926
4.48588
4.34002
4.37957
4.22511
4.2573
4.09451
4.11907
3.94824
3.96489
3.78629
3.79475
3.60866
3.60866
3.41536
3.40662
3.20638
3.18863
2.98173
2.95468
2.74141
2.70479
2.48542
2.43895
2.21375
2.15716
1.92642
1.85942
1.62342
1.54574
1.30475
1.21612
0.97042
0.870558
0.620426
0.509054
0.254763
0.131385
0.133569
0.269112
0.523197
0.659696
0.896868
1.03355
1.25407
1.39068
1.59479
1.73108
1.91904
2.05475
2.22682
2.36169
2.51812
2.6519
2.79294
2.92538
3.05128
3.18212
3.29313
3.42212
3.51851
3.64539
3.7274
3.85192
3.91981
4.04171
4.09573
4.21476
4.25517
4.37108
4.39813
4.51065
4.52459
4.63348
4.63457
4.73957
4.72806
4.82892
4.80507
4.90153
4.86558
4.95739
4.90961
4.99651
4.93715
5.01889
4.9482
5.02453
4.94276
5.01342
4.92084
4.98557
4.88242
4.94098
4.82752
4.87965
4.75613
4.80157
4.66825
4.70675
4.56388
4.59519
4.44303
4.46689
4.30569
4.32185
4.15186
4.16007
3.98155
3.98155
3.79475
3.78629
3.59147
3.57429
3.3717
3.34555
3.13546
3.10008
2.88273
2.83787
2.61352
2.55893
2.32783
2.26326
2.02566
1.95085
1.70702
1.62172
1.3719
1.27585
1.02031
0.913257
0.652249
0.533938
0.267708
0.137709
0.139703
0.28081
0.546851
0.688105
0.93728
1.07796
1.3105
1.45036
1.6665
1.80532
2.00529
2.14284
2.32686
2.46291
2.63122
2.76553
2.91836
3.0507
3.18828
3.31842
3.44097
3.56868
3.67645
3.8015
3.8947
4.01686
4.09573
4.21476
4.27954
4.39521
4.44612
4.55821
4.59548
4.70374
4.72761
4.83182
4.84251
4.94245
4.94019
5.03561
5.02064
5.11132
5.08386
5.16956
5.12986
5.21035
5.15862
5.23368
5.17016
5.23955
5.16447
5.22796
5.14155
5.19891
5.10141
5.15241
5.04403
5.08844
4.96943
5.00702
4.87761
4.90813
4.76855
4.79179
4.64227
4.65799
4.49876
4.50674
4.33803
4.33803
4.16007
4.15186
3.96489
3.94824
3.75248
3.72716
3.52285
3.48863
3.276
3.23264
3.01193
2.95921
2.73063
2.66832
2.43212
2.35999
2.1164
2.03421
1.78345
1.69098
1.43329
1.3303
1.06592
0.952179
0.681335
0.556617
0.279533
0.143466
0.14527
0.291387
0.5683
0.713777
0.973914
1.11807
1.36165
1.50428
1.7315
1.87239
2.08346
2.22241
2.41754
2.55434
2.73373
2.86817
3.03203
3.1639
3.31244
3.44154
3.57496
3.70107
3.81959
3.94251
4.04633
4.16584
4.25517
4.37108
4.44612
4.55821
4.61918
4.72723
4.77434
4.87816
4.9116
5.01098
5.03096
5.12569
5.13243
5.2223
5.21601
5.30081
5.28168
5.36121
5.32946
5.4035
5.35933
5.42768
5.37131
5.43377
5.3654
5.42174
5.34158
5.39161
5.29987
5.34337
5.24025
5.27703
5.16274
5.19258
5.06734
5.09002
4.95403
4.96936
4.82283
4.8306
4.67373
4.67373
4.50674
4.49876
4.32185
4.30569
4.11907
4.09451
3.89839
3.86523
3.65982
3.61785
3.40336
3.35237
3.12901
3.0688
2.83676
2.76712
2.52663
2.44735
2.19861
2.10948
1.85271
1.75352
1.48892
1.37947
1.10724
0.987324
0.707684
0.577089
0.290239
0.148657
0.150272
0.300845
0.587542
0.736711
1.00677
1.15391
1.40752
1.55243
1.78978
1.93229
2.15355
2.29347
2.49884
2.63598
2.82564
2.95982
3.13395
3.26499
3.42377
3.55147
3.6951
3.81929
3.94794
4.06842
4.18228
4.29887
4.39813
4.51065
4.59548
4.70374
4.77434
4.87816
4.9347
5.03389
5.07656
5.17094
5.19993
5.28931
5.30479
5.389
5.39117
5.47
5.45904
5.53232
5.50841
5.57595
5.53928
5.6009
5.55166
5.60717
5.54554
5.59476
5.52091
5.56366
5.47779
5.51387
5.41617
5.44541
5.33605
5.35826
5.23744
5.25242
5.12032
5.12791
4.98471
4.98471
4.8306
4.82283
4.65799
4.64227
4.46689
4.44303
4.2573
4.22511
4.0292
3.9885
3.78262
3.73323
3.51754
3.45927
3.23397
3.16664
2.93191
2.85533
2.61136
2.52534
2.27232
2.17669
1.91479
1.80936
1.53878
1.42336
1.14428
1.01869
0.731295
0.595355
0.299824
0.153282
0.154707
0.309182
0.604578
0.756907
1.03585
1.18545
1.44811
1.59482
1.84135
1.98501
2.21557
2.35602
2.57078
2.70784
2.90696
3.04049
3.22413
3.35395
3.52227
3.64823
3.80139
3.92332
4.06148
4.17923
4.30255
4.41595
4.52459
4.63348
4.72761
4.83182
4.9116
5.01098
5.07656
5.17094
5.22249
5.31172
5.3494
5.4333
5.45727
5.53569
5.54612
5.61889
5.61593
5.6829
5.66672
5.72772
5.69847
5.75334
5.7112
5.75977
5.70489
5.74701
5.67956
5.71506
5.63519
5.66392
5.57179
5.59358
5.48937
5.50405
5.38791
5.39533
5.26742
5.26742
5.12791
5.12032
4.96936
4.95403
4.79179
4.76855
4.59519
4.56388
4.37957
4.34002
4.14492
4.09698
3.89124
3.83475
3.61854
3.55333
3.32681
3.25272
3.01606
2.93294
2.68629
2.59397
2.33751
2.23582
1.9697
1.85848
1.58287
1.46197
1.17703
1.04628
0.752168
0.611415
0.308289
0.157341
0.158575
0.316399
0.619409
0.774366
1.06115
1.21271
1.48342
1.63144
1.88621
2.03055
2.26952
2.41005
2.63334
2.76992
2.97769
3.11017
3.30255
3.4308
3.60793
3.7318
3.89382
4.01318
4.16022
4.27494
4.40714
4.51707
4.63457
4.73957
4.84251
4.94245
5.03096
5.12569
5.19993
5.28931
5.3494
5.4333
5.47938
5.55766
5.58987
5.66239
5.68086
5.74748
5.75237
5.81295
5.80438
5.85879
5.8369
5.88499
5.84993
5.89156
5.84346
5.87851
5.81751
5.84582
5.77206
5.7935
5.70711
5.72155
5.62268
5.62996
5.51875
5.51875
5.39533
5.38791
5.25242
5.23744
5.09002
5.06734
4.90813
4.87761
4.70675
4.66825
4.48588
4.43926
4.24553
4.19065
3.98568
3.92241
3.70635
3.63455
3.40753
3.32706
3.08923
2.99995
2.75145
2.65322
2.39418
2.28687
2.01743
1.90089
1.6212
1.4953
1.20549
1.07009
0.770304
0.625268
0.315634
0.160833
0.161878
0.322497
0.632032
0.789086
1.08268
1.23569
1.51345
1.6623
1.92435
2.06892
2.31538
2.45556
2.68654
2.82221
3.03782
3.16886
3.36922
3.49552
3.68075
3.80219
3.9724
4.08887
4.24417
4.35555
4.49605
4.60223
4.72806
4.82892
4.94019
5.03561
5.13243
5.2223
5.30479
5.389
5.45727
5.53569
5.58987
5.66239
5.70258
5.76908
5.7954
5.85578
5.86834
5.92247
5.9214
5.96916
5.95457
5.99586
5.96785
6.00255
5.96125
5.98924
5.93476
5.95593
5.88839
5.90262
5.82213
5.8293
5.73599
5.73599
5.62996
5.62268
5.50405
5.48937
5.35826
5.33605
5.19258
5.16274
5.00702
4.96943
4.80157
4.75613
4.57624
4.52282
4.33104
4.26952
4.06595
3.99623
3.78098
3.70293
3.47614
3.38965
3.15141
3.05637
2.80681
2.7031
2.44234
2.32984
2.05799
1.93659
1.65376
1.52335
1.22967
1.09013
0.785701
0.636916
0.321859
0.16376
0.164614
0.327474
0.64245
0.801069
1.10042
1.25437
1.5382
1.68739
1.95579
2.10012
2.35317
2.49256
2.73036
2.86471
3.08735
3.21656
3.42415
3.54813
3.74073
3.8594
4.03712
4.15037
4.31331
4.42106
4.56929
4.67144
4.80507
4.90153
5.02064
5.11132
5.21601
5.30081
5.39117
5.47
5.54612
5.61889
5.68086
5.74748
5.7954
5.85578
5.88973
5.94377
5.96385
6.01146
6.01776
6.05885
6.05147
6.08593
6.06496
6.09272
6.05825
6.07921
6.03133
6.04539
5.98419
5.99127
5.91685
5.91685
5.8293
5.82213
5.72155
5.70711
5.59358
5.57179
5.44541
5.41617
5.27703
5.24025
5.08844
5.04403
4.87965
4.82752
4.65065
4.5907
4.40145
4.33359
4.13204
4.05619
3.84243
3.75848
3.53262
3.44049
3.20261
3.1022
2.85239
2.74362
2.48198
2.36474
2.09137
1.96558
1.68056
1.54613
1.24956
1.10638
0.798361
0.646356
0.326963
0.16612
0.166784
0.331331
0.650661
0.810314
1.11439
1.26877
1.55767
1.70672
1.98051
2.12414
2.38289
2.52104
2.76482
2.89742
3.12629
3.25328
3.46732
3.58861
3.78788
3.90342
4.08799
4.1977
4.36765
4.47146
4.62685
4.72469
4.86558
4.95739
5.08386
5.16956
5.28168
5.36121
5.45904
5.53232
5.61593
5.6829
5.75237
5.81295
5.86834
5.92247
5.96385
6.01146
6.0389
6.07991
6.09349
6.12784
6.12761
6.15523
6.14127
6.16208
6.13446
6.14841
6.1072
6.1142
6.05946
6.05946
5.99127
5.98419
5.90262
5.88839
5.7935
5.77206
5.66392
5.63519
5.51387
5.47779
5.34337
5.29987
5.15241
5.10141
4.94098
4.88242
4.7091
4.64291
4.45675
4.38286
4.18395
4.10229
3.8907
3.8012
3.57698
3.47957
3.24281
3.13743
2.88819
2.77476
2.51311
2.39156
2.11758
1.98785
1.7016
1.56362
1.26516
1.11886
0.808283
0.653591
0.330948
0.167914
0.168388
0.334067
0.656665
0.81682
1.12458
1.27889
1.57187
1.72028
1.99851
2.14098
2.40453
2.54101
2.7899
2.92035
3.15464
3.27901
3.49874
3.61698
3.8222
3.93426
4.12501
4.23086
4.40719
4.50676
4.66872
4.76198
4.90961
4.99651
5.12986
5.21035
5.32946
5.4035
5.50841
5.57595
5.66672
5.72772
5.80438
5.85879
5.9214
5.96916
6.01776
6.05885
6.09349
6.12784
6.14856
6.17613
6.18298
6.20373
6.19676
6.21064
6.18989
6.19685
6.16237
6.16237
6.1142
6.1072
6.04539
6.03133
5.95593
5.93476
5.84582
5.81751
5.71506
5.67956
5.56366
5.52091
5.39161
5.34158
5.19891
5.14155
4.98557
4.92084
4.75159
4.67943
4.49696
4.41733
4.22169
4.13454
3.92578
3.83107
3.60922
3.50691
3.27203
3.16206
2.91419
2.79653
2.53572
2.41031
2.13661
2.00341
1.71686
1.57583
1.27648
1.12756
0.815466
0.658619
0.333812
0.169141
0.169426
0.335684
0.660463
0.820589
1.13099
1.28472
1.58078
1.72807
2.00981
2.15065
2.41809
2.55246
2.80561
2.93349
3.17239
3.29374
3.51841
3.63322
3.84367
3.95192
4.14818
4.24983
4.43193
4.52697
4.69492
4.78332
4.93715
5.01889
5.15862
5.23368
5.35933
5.42768
5.53928
5.6009
5.69847
5.75334
5.8369
5.88499
5.95457
5.99586
6.05147
6.08593
6.12761
6.15523
6.18298
6.20373
6.2176
6.23145
6.23144
6.23838
6.22453
6.22453
6.19685
6.18989
6.14841
6.13446
6.07921
6.05825
5.98924
5.96125
5.87851
5.84346
5.74701
5.70489
5.59476
5.54554
5.42174
5.3654
5.22796
5.16447
5.01342
4.94276
4.77812
4.70027
4.52206
4.437
4.24525
4.15294
3.94767
3.84811
3.62934
3.52249
3.29025
3.1761
2.93041
2.80893
2.54982
2.42098
2.14847
2.01226
1.72637
1.58276
1.28351
1.13248
0.819912
0.66144
0.335556
0.169802
0.169897
0.33618
0.662055
0.82162
1.13363
1.28626
1.58441
1.7301
2.01439
2.15315
2.42357
2.5554
2.81196
2.93684
3.17954
3.29749
3.52633
3.63734
3.85231
3.95639
4.15749
4.25463
4.44186
4.53207
4.70543
4.7887
4.9482
5.02453
5.17016
5.23955
5.37131
5.43377
5.55166
5.60717
5.7112
5.75977
5.84993
5.89156
5.96785
6.00255
6.06496
6.09272
6.14127
6.16208
6.19676
6.21064
6.23144
6.23838
6.24532
6.24532
6.23838
6.23144
6.21064
6.19676
6.16208
6.14127
6.09272
6.06496
6.00255
5.96785
5.89156
5.84993
5.75977
5.7112
5.60717
5.55166
5.43377
5.37131
5.23955
5.17016
5.02453
4.9482
4.7887
4.70543
4.53207
4.44186
4.25463
4.15749
3.95639
3.85231
3.63734
3.52633
3.29749
3.17954
2.93684
2.81196
2.5554
2.42357
2.15315
2.01439
1.7301
1.58441
1.28626
1.13363
0.82162