# vtk DataFile Version 3.0
Malha 2D com triângulos e temperatura
ASCII
DATASET UNSTRUCTURED_GRID

POINTS 10000 double
0 0 0
1 0 0
1 1 0
0 1 0
0.010101 0 0
0.020202 0 0
0.030303 0 0
0.040404 0 0
0.0505051 0 0
0.0606061 0 0
0.0707071 0 0
0.0808081 0 0
0.0909091 0 0
0.10101 0 0
0.111111 0 0
0.121212 0 0
0.131313 0 0
0.141414 0 0
0.151515 0 0
0.161616 0 0
0.171717 0 0
0.181818 0 0
0.191919 0 0
0.20202 0 0
0.212121 0 0
0.222222 0 0
0.232323 0 0
0.242424 0 0
0.252525 0 0
0.262626 0 0
0.272727 0 0
0.282828 0 0
0.292929 0 0
0.30303 0 0
0.313131 0 0
0.323232 0 0
0.333333 0 0
0.343434 0 0
0.353535 0 0
0.363636 0 0
0.373737 0 0
0.383838 0 0
0.393939 0 0
0.40404 0 0
0.414141 0 0
0.424242 0 0
0.434343 0 0
0.444444 0 0
0.454545 0 0
0.464646 0 0
0.474747 0 0
0.484848 0 0
0.494949 0 0
0.505051 0 0
0.515152 0 0
0.525253 0 0
0.535354 0 0
0.545455 0 0
0.555556 0 0
0.565657 0 0
0.575758 0 0
0.585859 0 0
0.59596 0 0
0.606061 0 0
0.616162 0 0
0.626263 0 0
0.636364 0 0
0.646465 0 0
0.656566 0 0
0.666667 0 0
0.676768 0 0
0.686869 0 0
0.69697 0 0
0.707071 0 0
0.717172 0 0
0.727273 0 0
0.737374 0 0
0.747475 0 0
0.757576 0 0
0.767677 0 0
0.777778 0 0
0.787879 0 0
0.79798 0 0
0.808081 0 0
0.818182 0 0
0.828283 0 0
0.838384 0 0
0.848485 0 0
0.858586 0 0
0.868687 0 0
0.878788 0 0
0.888889 0 0
0.89899 0 0
0.909091 0 0
0.919192 0 0
0.929293 0 0
0.939394 0 0
0.949495 0 0
0.959596 0 0
0.969697 0 0
0.979798 0 0
0.989899 0 0
1 0.010101 0
1 0.020202 0
1 0.030303 0
1 0.040404 0
1 0.0505051 0
1 0.0606061 0
1 0.0707071 0
1 0.0808081 0
1 0.0909091 0
1 0.10101 0
1 0.111111 0
1 0.121212 0
1 0.131313 0
1 0.141414 0
1 0.151515 0
1 0.161616 0
1 0.171717 0
1 0.181818 0
1 0.191919 0
1 0.20202 0
1 0.212121 0
1 0.222222 0
1 0.232323 0
1 0.242424 0
1 0.252525 0
1 0.262626 0
1 0.272727 0
1 0.282828 0
1 0.292929 0
1 0.30303 0
1 0.313131 0
1 0.323232 0
1 0.333333 0
1 0.343434 0
1 0.353535 0
1 0.363636 0
1 0.373737 0
1 0.383838 0
1 0.393939 0
1 0.40404 0
1 0.414141 0
1 0.424242 0
1 0.434343 0
1 0.444444 0
1 0.454545 0
1 0.464646 0
1 0.474747 0
1 0.484848 0
1 0.494949 0
1 0.505051 0
1 0.515152 0
1 0.525253 0
1 0.535354 0
1 0.545455 0
1 0.555556 0
1 0.565657 0
1 0.575758 0
1 0.585859 0
1 0.59596 0
1 0.606061 0
1 0.616162 0
1 0.626263 0
1 0.636364 0
1 0.646465 0
1 0.656566 0
1 0.666667 0
1 0.676768 0
1 0.686869 0
1 0.69697 0
1 0.707071 0
1 0.717172 0
1 0.727273 0
1 0.737374 0
1 0.747475 0
1 0.757576 0
1 0.767677 0
1 0.777778 0
1 0.787879 0
1 0.79798 0
1 0.808081 0
1 0.818182 0
1 0.828283 0
1 0.838384 0
1 0.848485 0
1 0.858586 0
1 0.868687 0
1 0.878788 0
1 0.888889 0
1 0.89899 0
1 0.909091 0
1 0.919192 0
1 0.929293 0
1 0.939394 0
1 0.949495 0
1 0.959596 0
1 0.969697 0
1 0.979798 0
1 0.989899 0
0.989899 1 0
0.979798 1 0
0.969697 1 0
0.959596 1 0
0.949495 1 0
0.939394 1 0
0.929293 1 0
0.919192 1 0
0.909091 1 0
0.89899 1 0
0.888889 1 0
0.878788 1 0
0.868687 1 0
0.858586 1 0
0.848485 1 0
0.838384 1 0
0.828283 1 0
0.818182 1 0
0.808081 1 0
0.79798 1 0
0.787879 1 0
0.777778 1 0
0.767677 1 0
0.757576 1 0
0.747475 1 0
0.737374 1 0
0.727273 1 0
0.717172 1 0
0.707071 1 0
0.69697 1 0
0.686869 1 0
0.676768 1 0
0.666667 1 0
0.656566 1 0
0.646465 1 0
0.636364 1 0
0.626263 1 0
0.616162 1 0
0.606061 1 0
0.59596 1 0
0.585859 1 0
0.575758 1 0
0.565657 1 0
0.555556 1 0
0.545455 1 0
0.535354 1 0
0.525253 1 0
0.515152 1 0
0.505051 1 0
0.494949 1 0
0.484848 1 0
0.474747 1 0
0.464646 1 0
0.454545 1 0
0.444444 1 0
0.434343 1 0
0.424242 1 0
0.414141 1 0
0.40404 1 0
0.393939 1 0
0.383838 1 0
0.373737 1 0
0.363636 1 0
0.353535 1 0
0.343434 1 0
0.333333 1 0
0.323232 1 0
0.313131 1 0
0.30303 1 0
0.292929 1 0
0.282828 1 0
0.272727 1 0
0.262626 1 0
0.252525 1 0
0.242424 1 0
0.232323 1 0
0.222222 1 0
0.212121 1 0
0.20202 1 0
0.191919 1 0
0.181818 1 0
0.171717 1 0
0.161616 1 0
0.151515 1 0
0.141414 1 0
0.131313 1 0
0.121212 1 0
0.111111 1 0
0.10101 1 0
0.0909091 1 0
0.0808081 1 0
0.0707071 1 0
0.0606061 1 0
0.0505051 1 0
0.040404 1 0
0.030303 1 0
0.020202 1 0
0.010101 1 0
0 0.989899 0
0 0.979798 0
0 0.969697 0
0 0.959596 0
0 0.949495 0
0 0.939394 0
0 0.929293 0
0 0.919192 0
0 0.909091 0
0 0.89899 0
0 0.888889 0
0 0.878788 0
0 0.868687 0
0 0.858586 0
0 0.848485 0
0 0.838384 0
0 0.828283 0
0 0.818182 0
0 0.808081 0
0 0.79798 0
0 0.787879 0
0 0.777778 0
0 0.767677 0
0 0.757576 0
0 0.747475 0
0 0.737374 0
0 0.727273 0
0 0.717172 0
0 0.707071 0
0 0.69697 0
0 0.686869 0
0 0.676768 0
0 0.666667 0
0 0.656566 0
0 0.646465 0
0 0.636364 0
0 0.626263 0
0 0.616162 0
0 0.606061 0
0 0.59596 0
0 0.585859 0
0 0.575758 0
0 0.565657 0
0 0.555556 0
0 0.545455 0
0 0.535354 0
0 0.525253 0
0 0.515152 0
0 0.505051 0
0 0.494949 0
0 0.484848 0
0 0.474747 0
0 0.464646 0
0 0.454545 0
0 0.444444 0
0 0.434343 0
0 0.424242 0
0 0.414141 0
0 0.40404 0
0 0.393939 0
0 0.383838 0
0 0.373737 0
0 0.363636 0
0 0.353535 0
0 0.343434 0
0 0.333333 0
0 0.323232 0
0 0.313131 0
0 0.30303 0
0 0.292929 0
0 0.282828 0
0 0.272727 0
0 0.262626 0
0 0.252525 0
0 0.242424 0
0 0.232323 0
0 0.222222 0
0 0.212121 0
0 0.20202 0
0 0.191919 0
0 0.181818 0
0 0.171717 0
0 0.161616 0
0 0.151515 0
0 0.141414 0
0 0.131313 0
0 0.121212 0
0 0.111111 0
0 0.10101 0
0 0.0909091 0
0 0.0808081 0
0 0.0707071 0
0 0.0606061 0
0 0.0505051 0
0 0.040404 0
0 0.030303 0
0 0.020202 0
0 0.010101 0
0.010101 0.989899 0
0.010101 0.979798 0
0.010101 0.969697 0
0.010101 0.959596 0
0.010101 0.949495 0
0.010101 0.939394 0
0.010101 0.929293 0
0.010101 0.919192 0
0.010101 0.909091 0
0.010101 0.89899 0
0.010101 0.888889 0
0.010101 0.878788 0
0.010101 0.868687 0
0.010101 0.858586 0
0.010101 0.848485 0
0.010101 0.838384 0
0.010101 0.828283 0
0.010101 0.818182 0
0.010101 0.808081 0
0.010101 0.79798 0
0.010101 0.787879 0
0.010101 0.777778 0
0.010101 0.767677 0
0.010101 0.757576 0
0.010101 0.747475 0
0.010101 0.737374 0
0.010101 0.727273 0
0.010101 0.717172 0
0.010101 0.707071 0
0.010101 0.69697 0
0.010101 0.686869 0
0.010101 0.676768 0
0.010101 0.666667 0
0.010101 0.656566 0
0.010101 0.646465 0
0.010101 0.636364 0
0.010101 0.626263 0
0.010101 0.616162 0
0.010101 0.606061 0
0.010101 0.59596 0
0.010101 0.585859 0
0.010101 0.575758 0
0.010101 0.565657 0
0.010101 0.555556 0
0.010101 0.545455 0
0.010101 0.535354 0
0.010101 0.525253 0
0.010101 0.515152 0
0.010101 0.505051 0
0.010101 0.494949 0
0.010101 0.484848 0
0.010101 0.474747 0
0.010101 0.464646 0
0.010101 0.454545 0
0.010101 0.444444 0
0.010101 0.434343 0
0.010101 0.424242 0
0.010101 0.414141 0
0.010101 0.40404 0
0.010101 0.393939 0
0.010101 0.383838 0
0.010101 0.373737 0
0.010101 0.363636 0
0.010101 0.353535 0
0.010101 0.343434 0
0.010101 0.333333 0
0.010101 0.323232 0
0.010101 0.313131 0
0.010101 0.30303 0
0.010101 0.292929 0
0.010101 0.282828 0
0.010101 0.272727 0
0.010101 0.262626 0
0.010101 0.252525 0
0.010101 0.242424 0
0.010101 0.232323 0
0.010101 0.222222 0
0.010101 0.212121 0
0.010101 0.20202 0
0.010101 0.191919 0
0.010101 0.181818 0
0.010101 0.171717 0
0.010101 0.161616 0
0.010101 0.151515 0
0.010101 0.141414 0
0.010101 0.131313 0
0.010101 0.121212 0
0.010101 0.111111 0
0.010101 0.10101 0
0.010101 0.0909091 0
0.010101 0.0808081 0
0.010101 0.0707071 0
0.010101 0.0606061 0
0.010101 0.0505051 0
0.010101 0.040404 0
0.010101 0.030303 0
0.010101 0.020202 0
0.010101 0.010101 0
0.020202 0.989899 0
0.020202 0.979798 0
0.020202 0.969697 0
0.020202 0.959596 0
0.020202 0.949495 0
0.020202 0.939394 0
0.020202 0.929293 0
0.020202 0.919192 0
0.020202 0.909091 0
0.020202 0.89899 0
0.020202 0.888889 0
0.020202 0.878788 0
0.020202 0.868687 0
0.020202 0.858586 0
0.020202 0.848485 0
0.020202 0.838384 0
0.020202 0.828283 0
0.020202 0.818182 0
0.020202 0.808081 0
0.020202 0.79798 0
0.020202 0.787879 0
0.020202 0.777778 0
0.020202 0.767677 0
0.020202 0.757576 0
0.020202 0.747475 0
0.020202 0.737374 0
0.020202 0.727273 0
0.020202 0.717172 0
0.020202 0.707071 0
0.020202 0.69697 0
0.020202 0.686869 0
0.020202 0.676768 0
0.020202 0.666667 0
0.020202 0.656566 0
0.020202 0.646465 0
0.020202 0.636364 0
0.020202 0.626263 0
0.020202 0.616162 0
0.020202 0.606061 0
0.020202 0.59596 0
0.020202 0.585859 0
0.020202 0.575758 0
0.020202 0.565657 0
0.020202 0.555556 0
0.020202 0.545455 0
0.020202 0.535354 0
0.020202 0.525253 0
0.020202 0.515152 0
0.020202 0.505051 0
0.020202 0.494949 0
0.020202 0.484848 0
0.020202 0.474747 0
0.020202 0.464646 0
0.020202 0.454545 0
0.020202 0.444444 0
0.020202 0.434343 0
0.020202 0.424242 0
0.020202 0.414141 0
0.020202 0.40404 0
0.020202 0.393939 0
0.020202 0.383838 0
0.020202 0.373737 0
0.020202 0.363636 0
0.020202 0.353535 0
0.020202 0.343434 0
0.020202 0.333333 0
0.020202 0.323232 0
0.020202 0.313131 0
0.020202 0.30303 0
0.020202 0.292929 0
0.020202 0.282828 0
0.020202 0.272727 0
0.020202 0.262626 0
0.020202 0.252525 0
0.020202 0.242424 0
0.020202 0.232323 0
0.020202 0.222222 0
0.020202 0.212121 0
0.020202 0.20202 0
0.020202 0.191919 0
0.020202 0.181818 0
0.020202 0.171717 0
0.020202 0.161616 0
0.020202 0.151515 0
0.020202 0.141414 0
0.020202 0.131313 0
0.020202 0.121212 0
0.020202 0.111111 0
0.020202 0.10101 0
0.020202 0.0909091 0
0.020202 0.0808081 0
0.020202 0.0707071 0
0.020202 0.0606061 0
0.020202 0.0505051 0
0.020202 0.040404 0
0.020202 0.030303 0
0.020202 0.020202 0
0.020202 0.010101 0
0.030303 0.989899 0
0.030303 0.979798 0
0.030303 0.969697 0
0.030303 0.959596 0
0.030303 0.949495 0
0.030303 0.939394 0
0.030303 0.929293 0
0.030303 0.919192 0
0.030303 0.909091 0
0.030303 0.89899 0
0.030303 0.888889 0
0.030303 0.878788 0
0.030303 0.868687 0
0.030303 0.858586 0
0.030303 0.848485 0
0.030303 0.838384 0
0.030303 0.828283 0
0.030303 0.818182 0
0.030303 0.808081 0
0.030303 0.79798 0
0.030303 0.787879 0
0.030303 0.777778 0
0.030303 0.767677 0
0.030303 0.757576 0
0.030303 0.747475 0
0.030303 0.737374 0
0.030303 0.727273 0
0.030303 0.717172 0
0.030303 0.707071 0
0.030303 0.69697 0
0.030303 0.686869 0
0.030303 0.676768 0
0.030303 0.666667 0
0.030303 0.656566 0
0.030303 0.646465 0
0.030303 0.636364 0
0.030303 0.626263 0
0.030303 0.616162 0
0.030303 0.606061 0
0.030303 0.59596 0
0.030303 0.585859 0
0.030303 0.575758 0
0.030303 0.565657 0
[...]
CELL_DATA 19602
SCALARS Temperatura double 1
LOOKUP_TABLE default
0.000760039
0.00375369
0.00392617
0.0103714
0.00721105
0.0168529
0.0104275
0.0231981
0.0135754
0.0294069
0.0166547
0.0354792
0.0196653
0.0414149
0.0226074
0.0472142
0.0254807
0.0528768
0.0282855
0.0584029
0.0310215
0.0637924
0.0336889
0.0690454
0.0362877
0.0741617
0.0388177
0.0791414
0.0412791
0.0839845
0.0436718
0.088691
0.0459959
0.0932608
0.0482512
0.0976941
0.0504379
0.101991
0.0525559
0.106151
0.0546052
0.110174
0.0565858
0.114061
0.0584977
0.117811
0.060341
0.121424
0.0621155
0.124901
0.0638214
0.128241
0.0654586
0.131445
0.0670271
0.134512
0.0685269
0.137442
0.069958
0.140236
0.0713204
0.142893
0.0726141
0.145413
0.0738391
0.147797
0.0749955
0.150044
0.0760831
0.152154
0.077102
0.154128
0.0780523
0.155965
0.0789338
0.157665
0.0797467
0.159229
0.0804909
0.160656
0.0811663
0.161947
0.0817731
0.163101
0.0823112
0.164118
0.0827806
0.164998
0.0831813
0.165742
0.0835133
0.16635
0.0837766
0.16682
0.0839712
0.167154
0.0840971
0.167351
0.0841543
0.167412
0.0841428
0.167336
0.0840626
0.167123
0.0839138
0.166774
0.0836962
0.166288
0.0834099
0.165666
0.083055
0.164906
0.0826313
0.16401
0.082139
0.162978
0.0815779
0.161809
0.0809482
0.160503
0.0802497
0.15906
0.0794826
0.157481
0.0786468
0.155765
0.0777422
0.153913
0.076769
0.151924
0.0757271
0.149798
0.0746165
0.147535
0.0734372
0.145136
0.0721892
0.142601
0.0708725
0.139928
0.0694871
0.137119
0.0680331
0.134174
0.0665103
0.131091
0.0649189
0.127873
0.0632587
0.124517
0.0615299
0.121025
0.0597324
0.117396
0.0578662
0.11363
0.0559313
0.109728
0.0539277
0.10569
0.0518554
0.101514
0.0497144
0.0972023
0.0475048
0.0927537
0.0452265
0.0881684
0.0428795
0.0834465
0.0404638
0.0785881
0.0379794
0.073593
0.0354264
0.0684612
0.0328047
0.0631929
0.0301143
0.057788
0.0273552
0.0522464
0.0245274
0.0465681
0.021631
0.0407532
0.0186657
0.0348014
0.0156315
0.0287123
0.0125278
0.0224843
0.00935249
0.0161115
0.00609596
0.00956642
0.00271046
0.00271046
0.00392617
0.0103714
0.0169531
0.0267124
0.0298949
0.0427161
0.042566
0.0583827
0.0549664
0.0737118
0.0670958
0.0887035
0.0789543
0.103358
0.0905417
0.117674
0.101858
0.131653
0.112903
0.145294
0.123677
0.158598
0.13418
0.171563
0.144412
0.184191
0.154373
0.196481
0.164062
0.208434
0.17348
0.220048
0.182627
0.231325
0.191503
0.242264
0.200108
0.252866
0.208441
0.263129
0.216504
0.273054
0.224295
0.282642
0.231814
0.291892
0.239063
0.300804
0.24604
0.309378
0.252746
0.317615
0.259181
0.325513
0.265344
0.333074
0.271237
0.340296
0.276858
0.347181
0.282208
0.353728
0.287286
0.359938
0.292093
0.365809
0.296629
0.371342
0.300894
0.376538
0.304888
0.381396
0.30861
0.385916
0.312061
0.390097
0.315241
0.393942
0.318149
0.397448
0.320786
0.400616
0.323152
0.403447
0.325247
0.405939
0.32707
0.408094
0.328622
0.409911
0.329903
0.41139
0.330913
0.412531
0.331651
0.413334
0.332118
0.413799
0.332314
0.413927
0.332239
0.413716
0.331892
0.413168
0.331274
0.412282
0.330385
0.411057
0.329224
0.409495
0.327792
0.407596
0.326089
0.405358
0.324115
0.402782
0.321869
0.399869
0.319352
0.396617
0.316564
0.393028
0.313505
0.389101
0.310174
0.384836
0.306572
0.380233
0.302699
0.375292
0.298555
0.370014
0.294139
0.364397
0.289452
0.358443
0.284494
0.352151
0.279264
0.34552
0.273764
0.338552
0.267992
0.331247
0.261948
0.323603
0.255634
0.315621
0.249048
0.307302
0.242191
0.298645
0.235063
0.28965
0.227664
0.280317
0.219993
0.270646
0.212051
0.260637
0.203838
0.250291
0.195354
0.239607
0.186598
0.228585
0.177571
0.217225
0.168273
0.205527
0.158704
0.193492
0.148864
0.181118
0.138752
0.168407
0.128369
0.155358
0.117715
0.141972
0.10679
0.128247
0.0955937
0.114185
0.084126
0.0997848
0.0723868
0.0850463
0.0603757
0.0699691
0.0480916
0.0545518
0.0355315
0.0387918
0.0226877
0.0226877
0.00956642
0.00609596
0.00721105
0.0168529
0.0298949
0.0427161
0.0522937
0.0680453
0.0742238
0.0928404
0.0956848
0.117101
0.116677
0.140828
0.137199
0.16402
0.157253
0.186677
0.176837
0.2088
0.195951
0.230389
0.214596
0.251442
0.232771
0.271961
0.250477
0.291945
0.267714
0.311395
0.284481
0.330309
0.300778
0.348689
0.316605
0.366534
0.331963
0.383844
0.346852
0.400619
0.36127
0.41686
0.37522
0.432565
0.388699
0.447736
0.401709
0.462372
0.414249
0.476473
0.426319
0.490039
0.43792
0.50307
0.449051
0.515566
0.459713
0.527528
0.469904
0.538954
0.479626
0.549846
0.488879
0.560202
0.497661
0.570024
0.505974
0.579311
0.513817
0.588063
0.521191
0.59628
0.528095
0.603962
0.534529
0.611109
0.540493
0.617721
0.545988
0.623798
0.551013
0.62934
0.555568
0.634347
0.559654
0.63882
0.56327
0.642757
0.566416
0.64616
0.569092
0.649027
0.571299
0.65136
0.573036
0.653157
0.574303
0.65442
0.5751
0.655148
0.575428
0.655341
0.575286
0.654999
0.574675
0.654121
0.573593
0.652709
0.572042
0.650762
0.570021
0.64828
0.567531
0.645264
0.564571
0.641712
0.561141
0.637625
0.557241
0.633003
0.552871
0.627847
0.548032
0.622155
0.542724
0.615928
0.536945
0.609167
0.530697
0.601871
0.523979
0.594039
0.516791
0.585673
0.509134
0.576772
0.501007
0.567336
0.49241
0.557365
0.483343
0.546859
0.473807
0.535818
0.463801
0.524242
0.453326
0.512131
0.442381
0.499486
0.430966
0.486305
0.419081
0.47259
0.406727
0.458339
0.393903
0.443554
0.380609
0.428234
0.366846
0.412379
0.352613
0.395989
0.33791
0.379065
0.322738
0.361605
0.307096
0.343611
0.290985
0.325082
0.274404
0.306018
0.257353
0.286419
0.239833
0.266286
0.221843
0.245617
0.203384
0.224414
0.184455
0.202676
0.165056
0.180403
0.145188
0.157596
0.12485
0.134253
0.104041
0.110375
0.0827626
0.0859615
0.0610126
0.0610126
0.0387918
0.0355315
0.0161115
0.00935249
0.0104275
0.0231981
0.042566
0.0583827
0.0742238
0.0928404
0.105219
0.126571
0.13555
0.159575
0.165219
0.191852
0.194224
0.223402
0.222565
0.254224
0.250243
0.284319
0.277258
0.313687
0.303609
0.342327
0.329296
0.370239
0.354319
0.397424
0.378678
0.423881
0.402374
0.449611
0.425406
0.474613
0.447774
0.498887
0.469478
0.522434
0.490518
0.545253
0.510894
0.567344
0.530607
0.588708
0.549655
0.609343
0.56804
0.629251
0.585761
0.648432
0.602817
0.666884
0.61921
0.684609
0.634939
0.701606
0.650004
0.717875
0.664405
0.733416
0.678142
0.748229
0.691215
0.762315
0.703624
0.775673
0.715369
0.788303
0.72645
0.800205
0.736867
0.81138
0.74662
0.821826
0.755709
0.831545
0.764134
0.840536
0.771895
0.848799
0.778992
0.856334
0.785425
0.863142
0.791194
0.869221
0.796299
0.874573
0.80074
0.879197
0.804518
0.883093
0.807631
0.886261
0.81008
0.888701
0.811865
0.890414
0.812986
0.891398
0.813443
0.891655
0.813236
0.891184
0.812365
0.889985
0.81083
0.888058
0.808631
0.885404
0.805768
0.882021
0.802241
0.877911
0.798049
0.873073
0.793194
0.867507
0.787675
0.861213
0.781492
0.854191
0.774645
0.846442
0.767134
0.837964
0.758959
0.828759
0.75012
0.818826
0.740617
0.808165
0.73045
0.796777
0.719619
0.78466
0.708124
0.771816
0.695965
0.758244
0.683142
0.743944
0.669655
0.728916
0.655504
0.713161
0.640689
0.696677
0.62521
0.679466
0.609067
0.661527
0.59226
0.64286
0.57479
0.623466
0.556655
0.603344
0.537856
0.582494
0.518394
0.560916
0.498268
0.538611
0.477477
0.515577
0.456023
0.491816
0.433905
0.467328
0.411123
0.442112
0.387677
0.416168
0.363568
0.389496
0.338794
0.362097
0.313357
0.33397
0.287256
0.305115
0.260491
0.275533
0.233062
0.245224
0.20497
0.214186
0.176213
0.182421
0.146793
0.149929
0.116709
0.116709
0.0859615
0.0827626
0.0545518
0.0480916
0.0224843
0.0125278
0.0135754
0.0294069
0.0549664
0.0737118
0.0956848
0.117101
0.13555
0.159575
0.174563
0.201134
0.212722
0.241777
0.250028
0.281504
0.28648
0.320315
0.322079
0.358209
0.356824
0.395188
0.390715
0.431251
0.423752
0.466397
0.455936
0.500628
0.487266
0.533942
0.517742
0.566339
0.547364
0.59782
0.576132
0.628385
0.604046
0.658034
0.631107
0.686766
0.657313
0.714582
0.682665
0.741481
0.707164
0.767464
0.730808
0.79253
0.753598
0.81668
0.775534
0.839913
0.796616
0.86223
0.816844
0.88363
0.836218
0.904114
0.854738
0.923681
0.872404
0.942332
0.889216
0.960066
0.905174
0.976884
0.920277
0.992785
0.934527
1.00777
0.947922
1.02184
0.960463
1.03499
0.97215
1.04722
0.982983
1.05854
0.992962
1.06894
1.00209
1.07843
1.01036
1.087
1.01777
1.09465
1.02434
1.10139
1.03004
1.1072
1.0349
1.11211
1.0389
1.11609
1.04204
1.11916
1.04434
1.12131
1.04577
1.12255
1.04636
1.12287
1.04609
1.12227
1.04496
1.12076
1.04298
1.11833
1.04015
1.11498
1.03646
1.11072
1.03192
1.10554
1.02653
1.09944
1.02028
1.09243
1.01317
1.0845
1.00521
1.07565
0.996402
1.06589
0.986736
1.05521
0.976216
1.04361
0.964842
1.0311
0.952613
1.01767
0.939531
1.00332
0.925594
0.988062
0.910803
0.971884
0.895158
0.954788
0.878659
0.936776
0.861306
0.917847
0.843099
0.898002
0.824038
0.877241
0.804122
0.855563
0.783353
0.832968
0.761729
0.809457
0.739252
0.785029
0.71592
0.759685
0.691735
0.733425
0.666695
0.706247
0.640802
0.678154
0.614054
0.649144
0.586452
0.619218
0.557997
0.588375
0.528687
0.556616
0.498524
0.523941
0.467507
0.490349
0.435635
0.455841
0.40291
0.420416
0.369331
0.384076
0.334899
0.346819
0.299612
0.308646
0.263472
0.269557
0.226478
0.229551
0.18863
0.18863
0.149929
0.146793
0.110375
0.104041
0.0699691
0.0603757
0.0287123
0.0156315
0.0166547
0.0354792
0.0670958
0.0887035
0.116677
0.140828
0.165219
0.191852
0.212722
0.241777
0.259186
0.290601
0.304611
0.338325
0.348996
0.384948
0.392342
0.430471
0.434648
0.474893
0.475915
0.518215
0.516142
0.560436
0.555329
0.601556
0.593477
0.641575
0.630585
0.680493
0.666653
0.718311
0.701681
0.755028
0.73567
0.790643
0.768618
0.825158
0.800526
0.858572
0.831395
0.890885
0.861224
0.922097
0.890012
0.952208
0.917761
0.981217
0.94447
1.00913
0.970139
1.03593
0.994767
1.06164
1.01836
1.08625
1.0409
1.10975
1.06241
1.13215
1.08288
1.15346
1.10231
1.17366
1.1207
1.19276
1.13805
1.21076
1.15436
1.22765
1.16962
1.24345
1.18385
1.25815
1.19704
1.27174
1.20919
1.28423
1.2203
1.29563
1.23036
1.30592
1.23939
1.31511
1.24738
1.3232
1.25433
1.33018
1.26024
1.33607
1.2651
1.34086
1.26893
1.34454
1.27172
1.34712
1.27347
1.3486
1.27417
1.34898
1.27384
1.34826
1.27247
1.34644
1.27005
1.34352
1.2666
1.3395
1.26211
1.33437
1.25657
1.32814
1.25
1.32082
1.24239
1.31239
1.23373
1.30286
1.22404
1.29223
1.2133
1.28049
1.20153
1.26766
1.18872
1.25373
1.17486
1.23869
1.15997
1.22256
1.14403
1.20532
1.12706
1.18698
1.10904
1.16754
1.08999
1.147
1.0699
1.12536
1.04876
1.10261
1.02659
1.07877
1.00337
1.05382
0.979117
1.02778
0.953823
1.00063
0.927488
0.972379
0.900113
0.943029
0.871699
0.912578
0.842244
0.881027
0.81175
0.848374
0.780215
0.81462
0.747641
0.779765
0.714026
0.74381
0.679372
0.706753
0.643678
0.668595
0.606944
0.629337
0.56917
0.588978
0.530357
0.547518
0.490504
0.504957
0.449611
0.461295
0.407678
0.416533
0.364705
0.37067
0.320693
0.323706
0.275642
0.275642
0.229551
0.226478
0.182421
0.176213
0.134253
0.12485
0.0850463
0.0723868
0.0348014
0.0186657
0.0196653
0.0414149
0.0789543
0.103358
0.137199
0.16402
0.194224
0.223402
0.250028
0.281504
0.304611
0.338325
0.357973
0.393865
0.410114
0.448125
0.461033
0.501103
0.510732
0.552801
0.559209
0.603218
0.606464
0.652354
0.652499
0.700208
0.697311
0.746782
0.740903
0.792074
0.783272
0.836085
0.82442
0.878815
0.864347
0.920263
0.903052
0.96043
0.940535
0.999316
0.976796
1.03692
1.01184
1.07324
1.04565
1.10828
1.07825
1.14204
1.10962
1.17452
1.13978
1.20572
1.16871
1.23564
1.19642
1.26427
1.2229
1.29162
1.24817
1.31769
1.27221
1.34248
1.29503
1.36599
1.31663
1.38822
1.33701
1.40917
1.35617
1.42883
1.3741
1.44721
1.39082
1.46431
1.40631
1.48013
1.42058
1.49467
1.43362
1.50792
1.44545
1.5199
1.45605
1.53059
1.46543
1.54
1.47359
1.54813
1.48053
1.55498
1.48624
1.56055
1.49074
1.56483
1.49401
1.56784
1.49606
1.56956
1.49689
1.57
1.49649
1.56916
1.49488
1.56704
1.49204
1.56363
1.48798
1.55895
1.4827
1.55298
1.4762
1.54573
1.46847
1.5372
1.45952
1.52739
1.44935
1.51629
1.43796
1.50392
1.42535
1.49026
1.41152
1.47532
1.39646
1.4591
1.38018
1.4416
1.36268
1.42282
1.34396
1.40275
1.32401
1.38141
1.30285
1.35878
1.28046
1.33487
1.25685
1.30968
1.23202
1.28321
1.20597
1.25546
1.17869
1.22642
1.1502
1.1961
1.12048
1.16451
1.08954
1.13163
1.05737
1.09747
1.02399
1.06202
0.989384
1.0253
0.953557
0.987295
0.916508
0.948008
0.878237
0.907441
0.838745
0.865591
0.798031
0.822461
0.756095
0.778049
0.712938
0.732356
0.668559
0.685382
0.622958
0.637127
0.576136
0.587591
0.528093
0.536773
0.478828
0.484674
0.428342
0.431295
0.376635
0.376635
0.323706
0.320693
0.269557
0.263472
0.214186
0.20497
0.157596
0.145188
0.0997848
0.084126
0.0407532
0.021631
0.0226074
0.0472142
0.0905417
0.117674
0.157253
0.186677
0.222565
0.254224
0.28648
0.320315
0.348996
0.384948
0.410114
0.448125
0.469832
0.509844
0.528152
0.570107
0.585074
0.628912
0.640596
0.686261
0.694719
0.742151
0.747444
0.796585
0.798769
0.849561
0.848695
0.90108
0.897222
0.951142
0.94435
0.999746
0.990078
1.04689
1.03441
1.09258
1.07734
1.13681
1.11887
1.17959
1.159
1.2209
1.19773
1.26076
1.23506
1.29916
1.271
1.3361
1.30553
1.37159
1.33867
1.40562
1.3704
1.43819
1.40074
1.4693
1.42967
1.49895
1.45721
1.52715
1.48335
1.55389
1.50808
1.57917
1.53142
1.603
1.55336
1.62536
1.5739
1.64627
1.59304
1.66572
1.61078
1.68371
1.62712
1.70025
1.64206
1.71532
1.65561
1.72894
1.66775
1.74111
1.67849
1.75181
1.68783
1.76105
1.69578
1.76884
1.70232
1.77517
1.70747
1.78004
1.71121
1.78346
1.71356
1.78542
1.7145
1.78592
1.71405
1.78496
1.7122
1.78254
1.70894
1.77866
1.70429
1.77333
1.69824
1.76654
1.69079
1.75829
1.68194
1.74859
1.67169
1.73742
1.66004
1.7248
1.64699
1.71072
1.63254
1.69519
1.61669
1.67819
1.59945
1.65974
1.5808
1.63983
1.56075
1.61846
1.53931
1.59563
1.51646
1.57135
1.49221
1.54561
1.46657
1.51841
1.43953
1.48975
1.41108
1.45964
1.38124
1.42807
1.35
1.39504
1.31736
1.36055
1.28331
1.3246
1.24787
1.2872
1.21103
1.24834
1.17279
1.20802
1.13316
1.16624
1.09212
1.12301
1.04968
1.07832
1.00584
1.03217
0.960607
0.984563
0.913972
0.9355
0.865938
0.884978
0.816504
0.832999
0.765671
0.779563
0.713439
0.724669
0.659808
0.668318
0.604778
0.61051
0.548349
0.551244
0.490522
0.490522
0.431295
0.428342
0.37067
0.364705
0.308646
0.299612
0.245224
0.233062
0.180403
0.165056
0.114185
0.0955937
0.0465681
0.0245274
0.0254807
0.0528768
0.101858
0.131653
0.176837
0.2088
0.250243
0.284319
0.322079
0.358209
0.392342
0.430471
0.461033
0.501103
0.528152
0.570107
0.593699
0.637481
0.657674
0.703226
0.720077
0.767342
0.780907
0.829829
0.840164
0.890686
0.897849
0.949914
0.953962
1.00751
1.0085
1.06348
1.06147
1.11782
1.11286
1.17053
1.16269
1.22161
1.21093
1.27106
1.25761
1.31888
1.30271
1.36507
1.34625
1.40964
1.3882
1.45257
1.42859
1.49387
1.4674
1.53354
1.50464
1.57158
1.54031
1.608
1.5744
1.64278
1.60692
1.67593
1.63787
1.70746
1.66725
1.73735
1.69505
1.76561
1.72128
1.79225
1.74593
1.81725
1.76902
1.84063
1.79053
1.86237
1.81046
1.88249
1.82883
1.90097
1.84562
1.91783
1.86084
1.93305
1.87448
1.94665
1.88656
1.95861
1.89705
1.96895
1.90598
1.97765
1.91333
1.98473
1.91912
1.99017
1.92332
1.99399
1.92596
1.99617
1.92702
1.99673
1.92651
1.99566
1.92442
1.99295
1.92076
1.98862
1.91553
1.98266
1.90873
1.97506
1.90035
1.96584
1.8904
1.95498
1.87888
1.9425
1.86579
1.92839
1.85112
1.91265
1.83488
1.89527
1.81706
1.87627
1.79767
1.85564
1.77671
1.83337
1.75418
1.80948
1.73007
1.78396
1.7044
1.75681
1.67714
1.72803
1.64832
1.69761
1.61792
1.66557
1.58595
1.6319
1.55241
1.5966
1.51729
1.55967
1.4806
1.52111
1.44234
1.48092
1.4025
1.4391
1.36109
1.39565
1.31811
1.35057
1.27356
1.30386
1.22743
1.25552
1.17973
1.20555
1.13046
1.15395
1.07961
1.10073
1.0272
1.04587
0.973207
0.989381
0.917644
0.931265
0.860508
0.871519
0.8018
0.810144
0.74152
0.747139
0.679667
0.682505
0.616242
0.616242
0.551244
0.548349
0.484674
0.478828
0.416533
0.407678
0.346819
0.334899
0.275533
0.260491
0.202676
0.184455
0.128247
0.10679
0.0522464
0.0273552
0.0282855
0.0584029
0.112903
0.145294
0.195951
0.230389
0.277258
0.313687
0.356824
0.395188
0.434648
0.474893
0.510732
0.552801
0.585074
0.628912
0.657674
0.703226
0.728533
0.775744
0.797651
0.846464
0.865027
0.915386
0.930661
0.982512
0.994553
1.04784
1.0567
1.11137
1.11711
1.1731
1.17578
1.23304
1.2327
1.29118
1.28789
1.34752
1.34133
1.40206
1.39303
1.45481
1.44298
1.50576
1.4912
1.55491
1.53767
1.60226
1.5824
1.64782
1.62539
1.69158
1.66663
1.73354
1.70614
1.7737
1.7439
1.81206
1.77992
1.84863
1.8142
1.8834
1.84673
1.91637
1.87752
1.94755
1.90657
1.97692
1.93388
2.0045
1.95945
2.03028
1.98327
2.05427
2.00535
2.07645
2.02569
2.09684
2.04429
2.11543
2.06115
2.13222
2.07626
2.14721
2.08963
2.16041
2.10126
2.17181
2.11114
2.18141
2.11928
2.18921
2.12569
2.19522
2.13034
2.19942
2.13326
2.20183
2.13443
2.20245
2.13387
2.20126
2.13156
2.19828
2.1275
2.19349
2.12171
2.18691
2.11417
2.17854
2.10489
2.16836
2.09387
2.15639
2.0811
2.14262
2.0666
2.12705
2.05035
2.10968
2.03236
2.09052
2.01262
2.06956
1.99115
2.0468
1.96793
2.02224
1.94297
1.99588
1.91627
1.96773
1.88782
1.93778
1.85763
1.90603
1.8257
1.87248
1.79203
1.83714
1.75662
1.8
1.71946
1.76106
1.68056
1.72032
1.63992
1.67779
1.59754
1.63345
1.55342
1.58732
1.50755
1.53939
1.45994
1.48967
1.41059
1.43815
1.3595
1.38482
1.30666
1.32971
1.25208
1.27279
1.19577
1.21408
1.1377
1.15357
1.0779
1.09126
1.01636
1.02715
0.95307
0.961251
0.888041
0.893551
0.821271
0.824053
0.752759
0.752759
0.682505
0.679667
0.61051
0.604778
0.536773
0.528093
0.461295
0.449611
0.384076
0.369331
0.305115
0.287256
0.224414
0.203384
0.141972
0.117715
0.057788
0.0301143
0.0310215
0.0637924
0.123677
0.158598
0.214596
0.251442
0.303609
0.342327
0.390715
0.431251
0.475915
0.518215
0.559209
0.603218
0.640596
0.686261
0.720077
0.767342
0.797651
0.846464
0.873318
0.923624
0.947079
0.998823
1.01893
1.07206
1.08888
1.14334
1.15692
1.21266
1.22305
1.28001
1.28728
1.3454
1.3496
1.40884
1.41001
1.47031
1.46851
1.52982
1.52511
1.58737
1.5798
1.64296
1.63258
1.69658
1.68346
1.74825
1.73243
1.79795
1.77949
1.84569
1.82464
1.89147
1.86789
1.93529
1.90923
1.97715
1.94866
2.01705
1.98619
2.05498
2.0218
2.09096
2.05551
2.12497
2.08732
2.15702
2.11721
2.18711
2.1452
2.21524
2.17128
2.2414
2.19545
2.26561
2.21772
2.28785
2.23808
2.30813
2.25653
2.32645
2.27307
2.34281
2.28771
2.35721
2.30044
2.36964
2.31126
2.38012
2.32017
2.38863
2.32718
2.39518
2.33227
2.39977
2.33547
2.4024
2.33675
2.40306
2.33613
2.40177
2.3336
2.39851
2.32916
2.39329
2.32281
2.38611
2.31456
2.37697
2.3044
2.36586
2.29233
2.3528
2.27835
2.33777
2.26247
2.32078
2.24468
2.30183
2.22498
2.28092
2.20337
2.25805
2.17986
2.23322
2.15444
2.20642
2.12711
2.17766
2.09788
2.14694
2.06674
2.11426
2.03369
2.07962
1.99873
2.04302
1.96186
2.00445
1.92309
1.96393
1.88241
1.92144
1.83983
1.87699
1.79533
1.83058
1.74893
1.78221
1.70062
1.73187
1.65041
1.67958
1.59828
1.62532
1.54425
1.5691
1.48832
1.51092
1.43047
1.45078
1.37072
1.38868
1.30906
1.32462
1.2455
1.2586
1.18002
1.19061
1.11264
1.12067
1.04336
1.04876
0.972161
0.97489
0.899061
0.899061
0.824053
0.821271
0.747139
0.74152
0.668318
0.659808
0.587591
0.576136
0.504957
0.490504
0.420416
0.40291
0.33397
0.313357
0.245617
0.221843
0.155358
0.128369
0.0631929
0.0328047
0.0336889
0.0690454
0.13418
0.171563
0.232771
0.271961
0.329296
0.370239
0.423752
0.466397
0.516142
0.560436
0.606464
0.652354
0.694719
0.742151
0.780907
0.829829
0.865027
0.915386
0.947079
0.998823
1.02706
1.08014
1.10498
1.15934
1.18083
1.23641
1.25461
1.31137
1.32632
1.3842
1.39597
1.45491
1.46354
1.5235
1.52905
1.58998
1.59249
1.65433
1.65387
1.71656
1.71317
1.77667
1.77041
1.83465
1.82558
1.89052
1.87868
1.94427
1.92971
1.99589
1.97867
2.0454
2.02557
2.09278
2.07039
2.13804
2.11315
2.18118
2.15384
2.2222
2.19246
2.2611
2.22902
2.29788
2.2635
2.33254
2.29592
2.36507
2.32627
2.39549
2.35455
2.42378
2.38076
2.44996
2.4049
2.47401
2.42698
2.49594
2.44699
2.51575
2.46492
2.53343
2.48079
2.549
2.49459
2.56245
2.50633
2.57377
2.51599
2.58298
2.52359
2.59006
2.52912
2.59502
2.53257
2.59786
2.53397
2.59858
2.53329
2.59717
2.53054
2.59365
2.52573
2.58801
2.51884
2.58024
2.50989
2.57035
2.49887
2.55835
2.48579
2.54422
2.47063
2.52797
2.4534
2.50959
2.43411
2.4891
2.41275
2.46649
2.38932
2.44175
2.36382
2.4149
2.33625
2.38592
2.30662
2.35482
2.27491
2.3216
2.24114
2.28626
2.2053
2.2488
2.16739
2.20921
2.12741
2.16751