# vtk DataFile Version 3.0
Malha 2D com triângulos e temperatura
ASCII
DATASET UNSTRUCTURED_GRID

POINTS 900 double
0 0 0
1 0 0
1 1 0
0 1 0
0.0344828 0 0
0.0689655 0 0
0.103448 0 0
0.137931 0 0
0.172414 0 0
0.206897 0 0
0.241379 0 0
0.275862 0 0
0.310345 0 0
0.344828 0 0
0.37931 0 0
0.413793 0 0
0.448276 0 0
0.482759 0 0
0.517241 0 0
0.551724 0 0
0.586207 0 0
0.62069 0 0
0.655172 0 0
0.689655 0 0
0.724138 0 0
0.758621 0 0
0.793103 0 0
0.827586 0 0
0.862069 0 0
0.896552 0 0
0.931034 0 0
0.965517 0 0
1 0.0344828 0
1 0.0689655 0
1 0.103448 0
1 0.137931 0
1 0.172414 0
1 0.206897 0
1 0.241379 0
1 0.275862 0
1 0.310345 0
1 0.344828 0
1 0.37931 0
1 0.413793 0
1 0.448276 0
1 0.482759 0
1 0.517241 0
1 0.551724 0
1 0.586207 0
1 0.62069 0
1 0.655172 0
1 0.689655 0
1 0.724138 0
1 0.758621 0
1 0.793103 0
1 0.827586 0
1 0.862069 0
1 0.896552 0
1 0.931034 0
1 0.965517 0
0.965517 1 0
0.931034 1 0
0.896552 1 0
0.862069 1 0
0.827586 1 0
0.793103 1 0
0.758621 1 0
0.724138 1 0
0.689655 1 0
0.655172 1 0
0.62069 1 0
0.586207 1 0
0.551724 1 0
0.517241 1 0
0.482759 1 0
0.448276 1 0
0.413793 1 0
0.37931 1 0
0.344828 1 0
0.310345 1 0
0.275862 1 0
0.241379 1 0
0.206897 1 0
0.172414 1 0
0.137931 1 0
0.103448 1 0
0.0689655 1 0
0.0344828 1 0
0 0.965517 0
0 0.931034 0
0 0.896552 0
0 0.862069 0
0 0.827586 0
0 0.793103 0
0 0.758621 0
0 0.724138 0
0 0.689655 0
0 0.655172 0
0 0.62069 0
0 0.586207 0
0 0.551724 0
0 0.517241 0
0 0.482759 0
0 0.448276 0
0 0.413793 0
0 0.37931 0
0 0.344828 0
0 0.310345 0
0 0.275862 0
0 0.241379 0
0 0.206897 0
0 0.172414 0
0 0.137931 0
0 0.103448 0
0 0.0689655 0
0 0.0344828 0
0.0344828 0.965517 0
0.0344828 0.931034 0
0.0344828 0.896552 0
0.0344828 0.862069 0
0.0344828 0.827586 0
0.0344828 0.793103 0
0.0344828 0.758621 0
0.0344828 0.724138 0
0.0344828 0.689655 0
0.0344828 0.655172 0
0.0344828 0.62069 0
0.0344828 0.586207 0
0.0344828 0.551724 0
0.0344828 0.517241 0
0.0344828 0.482759 0
0.0344828 0.448276 0
0.0344828 0.413793 0
0.0344828 0.37931 0
0.0344828 0.344828 0
0.0344828 0.310345 0
0.0344828 0.275862 0
0.0344828 0.241379 0
0.0344828 0.206897 0
0.0344828 0.172414 0
0.0344828 0.137931 0
0.0344828 0.103448 0
0.0344828 0.0689655 0
0.0344828 0.0344828 0
0.0689655 0.965517 0
0.0689655 0.931034 0
0.0689655 0.896552 0
0.0689655 0.862069 0
0.0689655 0.827586 0
0.0689655 0.793103 0
0.0689655 0.758621 0
0.0689655 0.724138 0
0.0689655 0.689655 0
0.0689655 0.655172 0
0.0689655 0.62069 0
0.0689655 0.586207 0
0.0689655 0.551724 0
0.0689655 0.517241 0
0.0689655 0.482759 0
0.0689655 0.448276 0
0.0689655 0.413793 0
0.0689655 0.37931 0
0.0689655 0.344828 0
0.0689655 0.310345 0
0.0689655 0.275862 0
0.0689655 0.241379 0
0.0689655 0.206897 0
0.0689655 0.172414 0
0.0689655 0.137931 0
0.0689655 0.103448 0
0.0689655 0.0689655 0
0.0689655 0.0344828 0
0.103448 0.965517 0
0.103448 0.931034 0
0.103448 0.896552 0
0.103448 0.862069 0
0.103448 0.827586 0
0.103448 0.793103 0
0.103448 0.758621 0
0.103448 0.724138 0
0.103448 0.689655 0
0.103448 0.655172 0
0.103448 0.62069 0
0.103448 0.586207 0
0.103448 0.551724 0
0.103448 0.517241 0
0.103448 0.482759 0
0.103448 0.448276 0
0.103448 0.413793 0
0.103448 0.37931 0
0.103448 0.344828 0
0.103448 0.310345 0
0.103448 0.275862 0
0.103448 0.241379 0
0.103448 0.206897 0
0.103448 0.172414 0
0.103448 0.137931 0
0.103448 0.103448 0
0.103448 0.0689655 0
0.103448 0.0344828 0
0.137931 0.965517 0
0.137931 0.931034 0
0.137931 0.896552 0
0.137931 0.862069 0
0.137931 0.827586 0
0.137931 0.793103 0
0.137931 0.758621 0
0.137931 0.724138 0
0.137931 0.689655 0
0.137931 0.655172 0
0.137931 0.62069 0
0.137931 0.586207 0
0.137931 0.551724 0
0.137931 0.517241 0
0.137931 0.482759 0
0.137931 0.448276 0
0.137931 0.413793 0
0.137931 0.37931 0
0.137931 0.344828 0
0.137931 0.310345 0
0.137931 0.275862 0
0.137931 0.241379 0
0.137931 0.206897 0
0.137931 0.172414 0
0.137931 0.137931 0
0.137931 0.103448 0
0.137931 0.0689655 0
0.137931 0.0344828 0
0.172414 0.965517 0
0.172414 0.931034 0
0.172414 0.896552 0
0.172414 0.862069 0
0.172414 0.827586 0
0.172414 0.793103 0
0.172414 0.758621 0
0.172414 0.724138 0
0.172414 0.689655 0
0.172414 0.655172 0
0.172414 0.62069 0
0.172414 0.586207 0
0.172414 0.551724 0
0.172414 0.517241 0
0.172414 0.482759 0
0.172414 0.448276 0
0.172414 0.413793 0
0.172414 0.37931 0
0.172414 0.344828 0
0.172414 0.310345 0
0.172414 0.275862 0
0.172414 0.241379 0
0.172414 0.206897 0
0.172414 0.172414 0
0.172414 0.137931 0
0.172414 0.103448 0
0.172414 0.0689655 0
0.172414 0.0344828 0
0.206897 0.965517 0
0.206897 0.931034 0
0.206897 0.896552 0
0.206897 0.862069 0
0.206897 0.827586 0
0.206897 0.793103 0
0.206897 0.758621 0
0.206897 0.724138 0
0.206897 0.689655 0
0.206897 0.655172 0
0.206897 0.62069 0
0.206897 0.586207 0
0.206897 0.551724 0
0.206897 0.517241 0
0.206897 0.482759 0
0.206897 0.448276 0
0.206897 0.413793 0
0.206897 0.37931 0
0.206897 0.344828 0
0.206897 0.310345 0
0.206897 0.275862 0
0.206897 0.241379 0
0.206897 0.206897 0
0.206897 0.172414 0
0.206897 0.137931 0
0.206897 0.103448 0
0.206897 0.0689655 0
0.206897 0.0344828 0
0.241379 0.965517 0
0.241379 0.931034 0
0.241379 0.896552 0
0.241379 0.862069 0
0.241379 0.827586 0
0.241379 0.793103 0
0.241379 0.758621 0
0.241379 0.724138 0
0.241379 0.689655 0
0.241379 0.655172 0
0.241379 0.62069 0
0.241379 0.586207 0
0.241379 0.551724 0
0.241379 0.517241 0
0.241379 0.482759 0
0.241379 0.448276 0
0.241379 0.413793 0
0.241379 0.37931 0
0.241379 0.344828 0
0.241379 0.310345 0
0.241379 0.275862 0
0.241379 0.241379 0
0.241379 0.206897 0
0.241379 0.172414 0
0.241379 0.137931 0
0.241379 0.103448 0
0.241379 0.0689655 0
0.241379 0.0344828 0
0.275862 0.965517 0
0.275862 0.931034 0
0.275862 0.896552 0
0.275862 0.862069 0
0.275862 0.827586 0
0.275862 0.793103 0
0.275862 0.758621 0
0.275862 0.724138 0
0.275862 0.689655 0
0.275862 0.655172 0
0.275862 0.62069 0
0.275862 0.586207 0
0.275862 0.551724 0
0.275862 0.517241 0
0.275862 0.482759 0
0.275862 0.448276 0
0.275862 0.413793 0
0.275862 0.37931 0
0.275862 0.344828 0
0.275862 0.310345 0
0.275862 0.275862 0
0.275862 0.241379 0
0.275862 0.206897 0
0.275862 0.172414 0
0.275862 0.137931 0
0.275862 0.103448 0
0.275862 0.0689655 0
0.275862 0.0344828 0
0.310345 0.965517 0
0.310345 0.931034 0
0.310345 0.896552 0
0.310345 0.862069 0
0.310345 0.827586 0
0.310345 0.793103 0
0.310345 0.758621 0
0.310345 0.724138 0
0.310345 0.689655 0
0.310345 0.655172 0
0.310345 0.62069 0
0.310345 0.586207 0
0.310345 0.551724 0
0.310345 0.517241 0
0.310345 0.482759 0
0.310345 0.448276 0
0.310345 0.413793 0
0.310345 0.37931 0
0.310345 0.344828 0
0.310345 0.310345 0
0.310345 0.275862 0
0.310345 0.241379 0
0.310345 0.206897 0
0.310345 0.172414 0
0.310345 0.137931 0
0.310345 0.103448 0
0.310345 0.0689655 0
0.310345 0.0344828 0
0.344828 0.965517 0
0.344828 0.931034 0
0.344828 0.896552 0
0.344828 0.862069 0
0.344828 0.827586 0
0.344828 0.793103 0
0.344828 0.758621 0
0.344828 0.724138 0
0.344828 0.689655 0
0.344828 0.655172 0
0.344828 0.62069 0
0.344828 0.586207 0
0.344828 0.551724 0
0.344828 0.517241 0
0.344828 0.482759 0
0.344828 0.448276 0
0.344828 0.413793 0
0.344828 0.37931 0
0.344828 0.344828 0
0.344828 0.310345 0
0.344828 0.275862 0
0.344828 0.241379 0
0.344828 0.206897 0
0.344828 0.172414 0
0.344828 0.137931 0
0.344828 0.103448 0
0.344828 0.0689655 0
0.344828 0.0344828 0
0.37931 0.965517 0
0.37931 0.931034 0
0.37931 0.896552 0
0.37931 0.862069 0
0.37931 0.827586 0
0.37931 0.793103 0
0.37931 0.758621 0
0.37931 0.724138 0
0.37931 0.689655 0
0.37931 0.655172 0
0.37931 0.62069 0
0.37931 0.586207 0
0.37931 0.551724 0
0.37931 0.517241 0
0.37931 0.482759 0
0.37931 0.448276 0
0.37931 0.413793 0
0.37931 0.37931 0
0.37931 0.344828 0
0.37931 0.310345 0
0.37931 0.275862 0
0.37931 0.241379 0
0.37931 0.206897 0
0.37931 0.172414 0
0.37931 0.137931 0
0.37931 0.103448 0
0.37931 0.0689655 0
0.37931 0.0344828 0
0.413793 0.965517 0
0.413793 0.931034 0
0.413793 0.896552 0
0.413793 0.862069 0
0.413793 0.827586 0
0.413793 0.793103 0
0.413793 0.758621 0
0.413793 0.724138 0
0.413793 0.689655 0
0.413793 0.655172 0
0.413793 0.62069 0
0.413793 0.586207 0
0.413793 0.551724 0
0.413793 0.517241 0
0.413793 0.482759 0
0.413793 0.448276 0
0.413793 0.413793 0
0.413793 0.37931 0
0.413793 0.344828 0
0.413793 0.310345 0
0.413793 0.275862 0
0.413793 0.241379 0
0.413793 0.206897 0
0.413793 0.172414 0
0.413793 0.137931 0
0.413793 0.103448 0
0.413793 0.0689655 0
0.413793 0.0344828 0
0.448276 0.965517 0
0.448276 0.931034 0
0.448276 0.896552 0
0.448276 0.862069 0
0.448276 0.827586 0
0.448276 0.793103 0
0.448276 0.758621 0
0.448276 0.724138 0
0.448276 0.689655 0
0.448276 0.655172 0
0.448276 0.62069 0
0.448276 0.586207 0
0.448276 0.551724 0
0.448276 0.517241 0
0.448276 0.482759 0
0.448276 0.448276 0
0.448276 0.413793 0
0.448276 0.37931 0
0.448276 0.344828 0
0.448276 0.310345 0
0.448276 0.275862 0
0.448276 0.241379 0
0.448276 0.206897 0
0.448276 0.172414 0
0.448276 0.137931 0
0.448276 0.103448 0
0.448276 0.0689655 0
0.448276 0.0344828 0
0.482759 0.965517 0
0.482759 0.931034 0
0.482759 0.896552 0
0.482759 0.862069 0
0.482759 0.827586 0
0.482759 0.793103 0
0.482759 0.758621 0
0.482759 0.724138 0
0.482759 0.689655 0
0.482759 0.655172 0
0.482759 0.62069 0
0.482759 0.586207 0
0.482759 0.551724 0
0.482759 0.517241 0
0.482759 0.482759 0
0.482759 0.448276 0
0.482759 0.413793 0
0.482759 0.37931 0
0.482759 0.344828 0
0.482759 0.310345 0
0.482759 0.275862 0
0.482759 0.241379 0
0.482759 0.206897 0
0.482759 0.172414 0
0.482759 0.137931 0
0.482759 0.103448 0
0.482759 0.0689655 0
0.482759 0.0344828 0
0.517241 0.965517 0
0.517241 0.931034 0
0.517241 0.896552 0
0.517241 0.862069 0
0.517241 0.827586 0
0.517241 0.793103 0
0.517241 0.758621 0
0.517241 0.724138 0
0.517241 0.689655 0
0.517241 0.655172 0
0.517241 0.62069 0
0.517241 0.586207 0
0.517241 0.551724 0
0.517241 0.517241 0
0.517241 0.482759 0
0.517241 0.448276 0
0.517241 0.413793 0
0.517241 0.37931 0
0.517241 0.344828 0
0.517241 0.310345 0
0.517241 0.275862 0
0.517241 0.241379 0
0.517241 0.206897 0
0.517241 0.172414 0
0.517241 0.137931 0
0.517241 0.103448 0
[...]
CELL_DATA 1682
SCALARS Temperatura double 1
LOOKUP_TABLE default
0.00893882
0.0428895
0.044439
0.114721
0.0793774
0.181251
0.111613
0.242461
0.141135
0.298339
0.167938
0.348876
0.192019
0.394069
0.213376
0.433913
0.232008
0.468406
0.247915
0.497548
0.261094
0.521335
0.271546
0.539769
0.279271
0.552847
0.284268
0.560571
0.286536
0.562938
0.286077
0.559949
0.282889
0.551605
0.276973
0.537905
0.268329
0.51885
0.256958
0.494441
0.242859
0.464677
0.226033
0.429561
0.206481
0.389093
0.184203
0.343273
0.159198
0.292099
0.131462
0.235558
0.100972
0.173587
0.0676247
0.105883
0.0308807
0.0308807
0.044439
0.114721
0.18524
0.28667
0.317758
0.445837
0.439912
0.592197
0.55168
0.725727
0.653046
0.846411
0.743999
0.954239
0.824534
1.04921
0.894645
1.1313
0.954329
1.20053
1.00358
1.25688
1.0424
1.30035
1.07079
1.33095
1.08875
1.34866
1.09627
1.35349
1.09335
1.34545
1.08
1.32452
1.05622
1.29071
1.022
1.24403
0.977343
1.18446
0.922259
1.11202
0.856745
1.02671
0.780803
0.928529
0.694435
0.817478
0.597641
0.69356
0.490416
0.556768
0.372738
0.40709
0.244532
0.244532
0.105883
0.0676247
0.0793774
0.181251
0.317758
0.445837
0.54066
0.690703
0.746079
0.915825
0.933987
1.12118
1.10436
1.30674
1.25719
1.4725
1.39247
1.61844
1.51018
1.74456
1.61032
1.85086
1.69288
1.93732
1.75787
2.00395
1.80527
2.05074
1.8351
2.07769
1.84734
2.0848
1.842
2.07207
1.81908
2.0395
1.77857
1.9871
1.72048
1.91485
1.64481
1.82277
1.55157
1.71085
1.44075
1.57911
1.31236
1.42755
1.16641
1.25617
1.0029
1.06497
0.82183
0.853985
0.623219
0.623219
0.40709
0.372738
0.173587
0.100972
0.111613
0.242461
0.439912
0.592197
0.746079
0.915825
1.0282
1.21333
1.28623
1.48468
1.52017
1.72985
1.72998
1.94884
1.91567
2.14162
2.07721
2.30819
2.2146
2.44854
2.32784
2.56267
2.41692
2.65057
2.48184
2.71224
2.5226
2.74768
2.53919
2.75688
2.53161
2.73984
2.49986
2.69657
2.44395
2.62707
2.36388
2.53133
2.25965
2.40937
2.13125
2.26118
1.97871
2.08678
1.80202
1.88616
1.60119
1.65934
1.37623
1.40633
1.12715
1.12715
0.853985
0.82183
0.556768
0.490416
0.235558
0.131462
0.141135
0.298339
0.55168
0.725727
0.933987
1.12118
1.28623
1.48468
1.60839
1.8162
1.90043
2.11572
2.16234
2.38323
2.39411
2.61872
2.59572
2.82216
2.76717
2.99357
2.90845
3.13291
3.01956
3.2402
3.10048
3.31543
3.15123
3.3586
3.17178
3.3697
3.16216
3.34874
3.12234
3.29571
3.05235
3.21061
2.95217
3.09346
2.82182
2.94425
2.66129
2.76299
2.4706
2.54968
2.24974
2.30434
1.99874
2.02697
1.71759
1.71759
1.40633
1.37623
1.06497
1.0029
0.69356
0.597641
0.292099
0.159198
0.167938
0.348876
0.653046
0.846411
1.10436
1.30674
1.52017
1.72985
1.90043
2.11572
2.24513
2.46434
2.55425
2.77567
2.82778
3.04972
3.0657
3.28647
3.26801
3.48591
3.4347
3.64803
3.56576
3.77283
3.66118
3.8603
3.72097
3.91045
3.74512
3.92326
3.73363
3.89874
3.68651
3.8369
3.60375
3.73772
3.48535
3.60122
3.33132
3.42739
3.14167
3.21625
2.9164
2.96781
2.65552
2.68207
2.35904
2.35904
2.02697
1.99874
1.65934
1.60119
1.25617
1.16641
0.817478
0.694435
0.343273
0.184203
0.192019
0.394069
0.743999
0.954239
1.25719
1.4725
1.72998
1.94884
2.16234
2.38323
2.55425
2.77567
2.9057
3.12614
3.21666
3.43461
3.48713
3.70109
3.7171
3.92556
3.90656
4.10801
4.0555
4.24844
4.16392
4.34684
4.23182
4.40321
4.25919
4.41754
4.24603
4.38985
4.19234
4.32012
4.09813
4.20837
3.96339
4.05459
3.78814
3.85878
3.57237
3.62097
3.31609
3.34114
3.01932
3.01932
2.68207
2.65552
2.30434
2.24974
1.88616
1.80202
1.42755
1.31236
0.928529
0.780803
0.389093
0.206481
0.213376
0.433913
0.824534
1.04921
1.39247
1.61844
1.91567
2.14162
2.39411
2.61872
2.82778
3.04972
3.21666
3.43461
3.56074
3.77338
3.86
4.06602
4.11443
4.3125
4.32403
4.51284
4.48879
4.66701
4.6087
4.77502
4.68376
4.83687
4.71397
4.85254
4.69933
4.82205
4.63983
4.74538
4.53548
4.62255
4.38629
4.45356
4.19225
4.23841
3.95337
3.97711
3.66967
3.66967
3.34114
3.31609
2.96781
2.9164
2.54968
2.4706
2.08678
1.97871
1.57911
1.44075
1.02671
0.856745
0.429561
0.226033
0.232008
0.468406
0.894645
1.1313
1.51018
1.74456
2.07721
2.30819
2.59572
2.82216
3.0657
3.28647
3.48713
3.70109
3.86
4.06602
4.18429
4.38123
4.45999
4.64673
4.68709
4.8625
4.8656
5.02854
4.9955
5.14485
5.07678
5.21141
5.10946
5.22824
5.09352
5.19532
5.02896
5.11266
4.9158
4.98026
4.75403
4.79813
4.54365
4.56626
4.28468
4.28468
3.97711
3.95337
3.62097
3.57237
3.21625
3.14167
2.76299
2.66129
2.26118
2.13125
1.71085
1.55157
1.11202
0.922259
0.464677
0.242859
0.247915
0.497548
0.954329
1.20053
1.61032
1.85086
2.2146
2.44854
2.76717
2.99357
3.26801
3.48591
3.7171
3.92556
4.11443
4.3125
4.45999
4.64673
4.75376
4.92823
4.99574
5.157
5.18592
5.33303
5.3243
5.45631
5.41088
5.52684
5.44564
5.54463
5.42859
5.50966
5.35973
5.42194
5.23907
5.28148
5.0666
5.08827
4.84233
4.84233
4.56626
4.54365
4.23841
4.19225
3.85878
3.78814
3.42739
3.33132
2.94425
2.82182
2.40937
2.25965
1.82277
1.64481
1.18446
0.977343
0.494441
0.256958
0.261094
0.521335
1.00358
1.25688
1.69288
1.93732
2.32784
2.56267
2.90845
3.13291
3.4347
3.64803
3.90656
4.10801
4.32403
4.51284
4.68709
4.8625
4.99574
5.157
5.24996
5.39632
5.44976
5.58045
5.59512
5.70939
5.68603
5.78315
5.72251
5.8017
5.70454
5.76506
5.63213
5.67323
5.50528
5.52621
5.32399
5.32399
5.08827
5.0666
4.79813
4.75403
4.45356
4.38629
4.05459
3.96339
3.60122
3.48535
3.09346
2.95217
2.53133
2.36388
1.91485
1.72048
1.24403
1.022
0.51885
0.268329
0.271546
0.539769
1.0424
1.30035
1.75787
2.00395
2.41692
2.65057
3.01956
3.2402
3.56576
3.77283
4.0555
4.24844
4.48879
4.66701
4.8656
5.02854
5.18592
5.33303
5.44976
5.58045
5.65709
5.77081
5.80792
5.9041
5.90225
5.98031
5.94006
5.99946
5.92136
5.96152
5.84615
5.86651
5.71443
5.71443
5.52621
5.50528
5.28148
5.23907
4.98026
4.9158
4.62255
4.53548
4.20837
4.09813
3.73772
3.60375
3.21061
3.05235
2.62707
2.44395
1.9871
1.77857
1.29071
1.05622
0.537905
0.276973
0.279271
0.552847
1.07079
1.33095
1.80527
2.05074
2.48184
2.71224
3.10048
3.31543
3.66118
3.8603
4.16392
4.34684
4.6087
4.77502
4.9955
5.14485
5.3243
5.45631
5.59512
5.70939
5.80792
5.9041
5.96272
6.04042
6.05951
6.11835
6.09828
6.13788
6.07904
6.09903
6.00178
6.00178
5.86651
5.84615
5.67323
5.63213
5.42194
5.35973
5.11266
5.02896
4.74538
4.63983
4.32012
4.19234
3.8369
3.68651
3.29571
3.12234
2.69657
2.49986
2.0395
1.81908
1.32452
1.08
0.551605
0.282889
0.284268
0.560571
1.08875
1.34866
1.8351
2.07769
2.5226
2.74768
3.15123
3.3586
3.72097
3.91045
4.23182
4.40321
4.68376
4.83687
5.07678
5.21141
5.41088
5.52684
5.68603
5.78315
5.90225
5.98031
6.05951
6.11835
6.15782
6.19723
6.19718
6.21698
6.17758
6.17758
6.09903
6.07904
5.96152
5.92136
5.76506
5.70454
5.50966
5.42859
5.19532
5.09352
4.82205
4.69933
4.38985
4.24603
3.89874
3.73363
3.34874
3.16216
2.73984
2.53161
2.07207
1.842
1.34545
1.09335
0.559949
0.286077
0.286536
0.562938
1.09627
1.35349
1.84734
2.0848
2.53919
2.75688
3.17178
3.3697
3.74512
3.92326
4.25919
4.41754
4.71397
4.85254
5.10946
5.22824
5.44564
5.54463
5.72251
5.8017
5.94006
5.99946
6.09828
6.13788
6.19718
6.21698
6.23675
6.23675
6.21698
6.19718
6.13788
6.09828
5.99946
5.94006
5.8017
5.72251
5.54463
5.44564
5.22824
5.10946
4.85254
4.71397
4.41754
4.25919
3.92326
3.74512
3.3697
3.17178
2.75688
2.53919
2.0848
1.84734
1.35349
1.09627
0.562938
0.286536
0.286077
0.559949
1.09335
1.34545
1.842
2.07207
2.53161
2.73984
3.16216
3.34874
3.73363
3.89874
4.24603
4.38985
4.69933
4.82205
5.09352
5.19532
5.42859
5.50966
5.70454
5.76506
5.92136
5.96152
6.07904
6.09903
6.17758
6.17758
6.21698
6.19718
6.19723
6.15782
6.11835
6.05951
5.98031
5.90225
5.78315
5.68603
5.52684
5.41088
5.21141
5.07678
4.83687
4.68376
4.40321
4.23182
3.91045
3.72097
3.3586
3.15123
2.74768
2.5226
2.07769
1.8351
1.34866
1.08875
0.560571
0.284268
0.282889
0.551605
1.08
1.32452
1.81908
2.0395
2.49986
2.69657
3.12234
3.29571
3.68651
3.8369
4.19234
4.32012
4.63983
4.74538
5.02896
5.11266
5.35973
5.42194
5.63213
5.67323
5.84615
5.86651
6.00178
6.00178
6.09903
6.07904
6.13788
6.09828
6.11835
6.05951
6.04042
5.96272
5.9041
5.80792
5.70939
5.59512
5.45631
5.3243
5.14485
4.9955
4.77502
4.6087
4.34684
4.16392
3.8603
3.66118
3.31543
3.10048
2.71224
2.48184
2.05074
1.80527
1.33095
1.07079
0.552847
0.279271
0.276973
0.537905
1.05622
1.29071
1.77857
1.9871
2.44395
2.62707
3.05235
3.21061
3.60375
3.73772
4.09813
4.20837
4.53548
4.62255
4.9158
4.98026
5.23907
5.28148
5.50528
5.52621
5.71443
5.71443
5.86651
5.84615
5.96152
5.92136
5.99946
5.94006
5.98031
5.90225
5.9041
5.80792
5.77081
5.65709
5.58045
5.44976
5.33303
5.18592
5.02854
4.8656
4.66701
4.48879
4.24844
4.0555
3.77283
3.56576
3.2402
3.01956
2.65057
2.41692
2.00395
1.75787
1.30035
1.0424
0.539769
0.271546
0.268329
0.51885
1.022
1.24403
1.72048
1.91485
2.36388
2.53133
2.95217
3.09346
3.48535
3.60122
3.96339
4.05459
4.38629
4.45356
4.75403
4.79813
5.0666
5.08827
5.32399
5.32399
5.52621
5.50528
5.67323
5.63213
5.76506
5.70454
5.8017
5.72251
5.78315
5.68603
5.70939
5.59512
5.58045
5.44976
5.39632
5.24996
5.157
4.99574
4.8625
4.68709
4.51284
4.32403
4.10801
3.90656
3.64803
3.4347
3.13291
2.90845
2.56267
2.32784
1.93732
1.69288
1.25688
1.00358
0.521335
0.261094
0.256958
0.494441
0.977343
1.18446
1.64481
1.82277
2.25965
2.40937
2.82182
2.94425
3.33132
3.42739
3.78814
3.85878
4.19225
4.23841
4.54365
4.56626
4.84233
4.84233
5.08827
5.0666
5.28148
5.23907
5.42194
5.35973
5.50966
5.42859
5.54463
5.44564
5.52684
5.41088
5.45631
5.3243
5.33303
5.18592
5.157
4.99574
4.92823
4.75376
4.64673
4.45999
4.3125
4.11443
3.92556
3.7171
3.48591
3.26801
2.99357
2.76717
2.44854
2.2146
1.85086
1.61032
1.20053
0.954329
0.497548
0.247915
0.242859
0.464677
0.922259
1.11202
1.55157
1.71085
2.13125
2.26118
2.66129
2.76299
3.14167
3.21625
3.57237
3.62097
3.95337
3.97711
4.28468
4.28468
4.56626
4.54365
4.79813
4.75403
4.98026
4.9158
5.11266
5.02896
5.19532
5.09352
5.22824
5.10946
5.21141
5.07678
5.14485
4.9955
5.02854
4.8656
4.8625
4.68709
4.64673
4.45999
4.38123
4.18429
4.06602
3.86
3.70109
3.48713
3.28647
3.0657
2.82216
2.59572
2.30819
2.07721
1.74456
1.51018
1.1313
0.894645
0.468406
0.232008
0.226033
0.429561
0.856745
1.02671
1.44075
1.57911
1.97871
2.08678
2.4706
2.54968
2.9164
2.96781
3.31609
3.34114
3.66967
3.66967
3.97711
3.95337
4.23841
4.19225
4.45356
4.38629
4.62255
4.53548
4.74538
4.63983
4.82205
4.69933
4.85254
4.71397
4.83687
4.68376
4.77502
4.6087
4.66701
4.48879
4.51284
4.32403
4.3125
4.11443
4.06602
3.86
3.77338
3.56074
3.43461
3.21666
3.04972
2.82778
2.61872
2.39411
2.14162
1.91567
1.61844
1.39247
1.04921
0.824534
0.433913
0.213376
0.206481
0.389093
0.780803
0.928529
1.31236
1.42755
1.80202
1.88616
2.24974
2.30434
2.65552
2.68207
3.01932
3.01932
3.34114
3.31609
3.62097
3.57237
3.85878
3.78814
4.05459
3.96339
4.20837
4.09813
4.32012
4.19234
4.38985
4.24603
4.41754
4.25919
4.40321
4.23182
4.34684
4.16392
4.24844
4.0555
4.10801
3.90656
3.92556
3.7171
3.70109
3.48713
3.43461
3.21666
3.12614
2.9057
2.77567
2.55425
2.38323
2.16234
1.94884
1.72998
1.4725
1.25719
0.954239
0.743999
0.394069
0.192019
0.184203
0.343273
0.694435
0.817478
1.16641
1.25617
1.60119
1.65934
1.99874
2.02697
2.35904
2.35904
2.68207
2.65552
2.96781
2.9164
3.21625
3.14167
3.42739
3.33132
3.60122
3.48535
3.73772
3.60375
3.8369
3.68651
3.89874
3.73363
3.92326
3.74512
3.91045
3.72097
3.8603
3.66118
3.77283
3.56576
3.64803
3.4347
3.48591
3.26801
3.28647
3.0657
3.04972
2.82778
2.77567
2.55425
2.46434
2.24513
2.11572
1.90043
1.72985
1.52017
1.30674
1.10436
0.846411
0.653046
0.348876
0.167938
0.159198
0.292099
0.597641
0.69356
1.0029
1.06497
1.37623
1.40633
1.71759
1.71759
2.02697
1.99874
2.30434
2.24974
2.54968
2.4706
2.76299
2.66129
2.94425
2.82182
3.09346
2.95217
3.21061
3.05235
3.29571
3.12234
3.34874
3.16216
3.3697
3.17178
3.3586
3.15123
3.31543
3.10048
3.2402
3.01956
3.13291
2.90845
2.99357
2.76717
2.82216
2.59572
2.61872
2.39411
2.38323
2.16234
2.11572
1.90043
1.8162
1.60839
1.48468
1.28623
1.12118
0.933987
0.725727
0.55168
0.298339
0.141135
0.131462
0.235558
0.490416
0.556768
0.82183
0.853985
1.12715
1.12715
1.40633
1.37623
1.65934
1.60119
1.88616
1.80202
2.08678
1.97871
2.26118
2.13125
2.40937
2.25965
2.53133
2.36388
2.62707
2.44395
2.69657
2.49986
2.73984
2.53161
2.75688
2.53919
2.74768
2.5226
2.71224
2.48184
2.65057
2.41692
2.56267
2.32784
2.44854
2.2146
2.30819
2.07721
2.14162
1.91567
1.94884
1.72998
1.72985
1.52017
1.48468
1.28623
1.21333
1.0282
0.915825
0.746079
0.592197
0.439912
0.242461
0.111613
0.100972
0.173587
0.372738
0.40709
0.623219
0.623219
0.853985
0.82183
1.06497
1.0029
1.25617
1.16641
1.42755
1.31236
1.57911
1.44075
1.71085
1.55157
1.82277
1.64481
1.91485
1.72048
1.9871
1.77857
2.0395
1.81908
2.07207
1.842
2.0848
1.84734
2.07769
1.8351
2.05074
1.80527
2.00395
1.75787
1.93732
1.69288
1.85086
1.61032
1.74456
1.51018
1.61844
1.39247
1.4725
1.25719
1.30674
1.10436
1.12118
0.933987
0.915825
0.746079
0.690703
0.54066
0.445837
0.317758
0.181251
0.0793774
0.0676247
0.105883
0.244532
0.244532
0.40709
0.372738
0.556768
0.490416
0.69356
0.597641
0.817478
0.694435
0.928529
0.780803
1.02671
0.856745
1.11202
0.922259
1.18446
0.977343
1.24403
1.022
1.29071
1.05622
1.32452
1.08
1.34545
1.09335
1.35349
1.09627
1.34866
1.08875
1.33095
1.07079
1.30035
1.0424
1.25688
1.00358
1.20053
0.954329
1.1313
0.894645
1.04921
0.824534
0.954239
0.743999
0.846411
0.653046
0.725727
0.55168
0.592197
0.439912
0.445837
0.317758
0.28667
0.18524
0.114721
0.044439
0.0308807
0.0308807
0.105883
0.0676247
0.173587
0.100972
0.235558
0.131462
0.292099
0.159198
0.343273
0.184203
0.389093
0.206481
0.429561
0.226033
0.464677
0.242859
0.494441
0.256958
0.51885
0.268329
0.537905
0.276973
0.551605
0.282889
0.559949
0.286077
0.562938
0.286536
0.560571
0.284268
0.552847
0.279271
0.539769
0.271546
0.521335
0.261094
0.497548
0.247915
0.468406
0.232008
0.433913
0.213376
0.394069
0.192019
0.348876
0.167938
0.298339
0.141135
0.242461
0.111613
0.181251
0.0793774
0.114721
0.044439
0.0428895
0.00893882
