# vtk DataFile Version 3.0
Malha 2D com triângulos e temperatura
ASCII
DATASET UNSTRUCTURED_GRID

POINTS 1600 double
0 0 0
1 0 0
1 1 0
0 1 0
0.025641 0 0
0.0512821 0 0
0.0769231 0 0
0.102564 0 0
0.128205 0 0
0.153846 0 0
0.179487 0 0
0.205128 0 0
0.230769 0 0
0.25641 0 0
0.282051 0 0
0.307692 0 0
0.333333 0 0
0.358974 0 0
0.384615 0 0
0.410256 0 0
0.435897 0 0
0.461538 0 0
0.487179 0 0
0.512821 0 0
0.538462 0 0
0.564103 0 0
0.589744 0 0
0.615385 0 0
0.641026 0 0
0.666667 0 0
0.692308 0 0
0.717949 0 0
0.74359 0 0
0.769231 0 0
0.794872 0 0
0.820513 0 0
0.846154 0 0
0.871795 0 0
0.897436 0 0
0.923077 0 0
0.948718 0 0
0.974359 0 0
1 0.025641 0
1 0.0512821 0
1 0.0769231 0
1 0.102564 0
1 0.128205 0
1 0.153846 0
1 0.179487 0
1 0.205128 0
1 0.230769 0
1 0.25641 0
1 0.282051 0
1 0.307692 0
1 0.333333 0
1 0.358974 0
1 0.384615 0
1 0.410256 0
1 0.435897 0
1 0.461538 0
1 0.487179 0
1 0.512821 0
1 0.538462 0
1 0.564103 0
1 0.589744 0
1 0.615385 0
1 0.641026 0
1 0.666667 0
1 0.692308 0
1 0.717949 0
1 0.74359 0
1 0.769231 0
1 0.794872 0
1 0.820513 0
1 0.846154 0
1 0.871795 0
1 0.897436 0
1 0.923077 0
1 0.948718 0
1 0.974359 0
0.974359 1 0
0.948718 1 0
0.923077 1 0
0.897436 1 0
0.871795 1 0
0.846154 1 0
0.820513 1 0
0.794872 1 0
0.769231 1 0
0.74359 1 0
0.717949 1 0
0.692308 1 0
0.666667 1 0
0.641026 1 0
0.615385 1 0
0.589744 1 0
0.564103 1 0
0.538462 1 0
0.512821 1 0
0.487179 1 0
0.461538 1 0
0.435897 1 0
0.410256 1 0
0.384615 1 0
0.358974 1 0
0.333333 1 0
0.307692 1 0
0.282051 1 0
0.25641 1 0
0.230769 1 0
0.205128 1 0
0.179487 1 0
0.153846 1 0
0.128205 1 0
0.102564 1 0
0.0769231 1 0
0.0512821 1 0
0.025641 1 0
0 0.974359 0
0 0.948718 0
0 0.923077 0
0 0.897436 0
0 0.871795 0
0 0.846154 0
0 0.820513 0
0 0.794872 0
0 0.769231 0
0 0.74359 0
0 0.717949 0
0 0.692308 0
0 0.666667 0
0 0.641026 0
0 0.615385 0
0 0.589744 0
0 0.564103 0
0 0.538462 0
0 0.512821 0
0 0.487179 0
0 0.461538 0
0 0.435897 0
0 0.410256 0
0 0.384615 0
0 0.358974 0
0 0.333333 0
0 0.307692 0
0 0.282051 0
0 0.25641 0
0 0.230769 0
0 0.205128 0
0 0.179487 0
0 0.153846 0
0 0.128205 0
0 0.102564 0
0 0.0769231 0
0 0.0512821 0
0 0.025641 0
0.025641 0.974359 0
0.025641 0.948718 0
0.025641 0.923077 0
0.025641 0.897436 0
0.025641 0.871795 0
0.025641 0.846154 0
0.025641 0.820513 0
0.025641 0.794872 0
0.025641 0.769231 0
0.025641 0.74359 0
0.025641 0.717949 0
0.025641 0.692308 0
0.025641 0.666667 0
0.025641 0.641026 0
0.025641 0.615385 0
0.025641 0.589744 0
0.025641 0.564103 0
0.025641 0.538462 0
0.025641 0.512821 0
0.025641 0.487179 0
0.025641 0.461538 0
0.025641 0.435897 0
0.025641 0.410256 0
0.025641 0.384615 0
0.025641 0.358974 0
0.025641 0.333333 0
0.025641 0.307692 0
0.025641 0.282051 0
0.025641 0.25641 0
0.025641 0.230769 0
0.025641 0.205128 0
0.025641 0.179487 0
0.025641 0.153846 0
0.025641 0.128205 0
0.025641 0.102564 0
0.025641 0.0769231 0
0.025641 0.0512821 0
0.025641 0.025641 0
0.0512821 0.974359 0
0.0512821 0.948718 0
0.0512821 0.923077 0
0.0512821 0.897436 0
0.0512821 0.871795 0
0.0512821 0.846154 0
0.0512821 0.820513 0
0.0512821 0.794872 0
0.0512821 0.769231 0
0.0512821 0.74359 0
0.0512821 0.717949 0
0.0512821 0.692308 0
0.0512821 0.666667 0
0.0512821 0.641026 0
0.0512821 0.615385 0
0.0512821 0.589744 0
0.0512821 0.564103 0
0.0512821 0.538462 0
0.0512821 0.512821 0
0.0512821 0.487179 0
0.0512821 0.461538 0
0.0512821 0.435897 0
0.0512821 0.410256 0
0.0512821 0.384615 0
0.0512821 0.358974 0
0.0512821 0.333333 0
0.0512821 0.307692 0
0.0512821 0.282051 0
0.0512821 0.25641 0
0.0512821 0.230769 0
0.0512821 0.205128 0
0.0512821 0.179487 0
0.0512821 0.153846 0
0.0512821 0.128205 0
0.0512821 0.102564 0
0.0512821 0.0769231 0
0.0512821 0.0512821 0
0.0512821 0.025641 0
0.0769231 0.974359 0
0.0769231 0.948718 0
0.0769231 0.923077 0
0.0769231 0.897436 0
0.0769231 0.871795 0
0.0769231 0.846154 0
0.0769231 0.820513 0
0.0769231 0.794872 0
0.0769231 0.769231 0
0.0769231 0.74359 0
0.0769231 0.717949 0
0.0769231 0.692308 0
0.0769231 0.666667 0
0.0769231 0.641026 0
0.0769231 0.615385 0
0.0769231 0.589744 0
0.0769231 0.564103 0
0.0769231 0.538462 0
0.0769231 0.512821 0
0.0769231 0.487179 0
0.0769231 0.461538 0
0.0769231 0.435897 0
0.0769231 0.410256 0
0.0769231 0.384615 0
0.0769231 0.358974 0
0.0769231 0.333333 0
0.0769231 0.307692 0
0.0769231 0.282051 0
0.0769231 0.25641 0
0.0769231 0.230769 0
0.0769231 0.205128 0
0.0769231 0.179487 0
0.0769231 0.153846 0
0.0769231 0.128205 0
0.0769231 0.102564 0
0.0769231 0.0769231 0
0.0769231 0.0512821 0
0.0769231 0.025641 0
0.102564 0.974359 0
0.102564 0.948718 0
0.102564 0.923077 0
0.102564 0.897436 0
0.102564 0.871795 0
0.102564 0.846154 0
0.102564 0.820513 0
0.102564 0.794872 0
0.102564 0.769231 0
0.102564 0.74359 0
0.102564 0.717949 0
0.102564 0.692308 0
0.102564 0.666667 0
0.102564 0.641026 0
0.102564 0.615385 0
0.102564 0.589744 0
0.102564 0.564103 0
0.102564 0.538462 0
0.102564 0.512821 0
0.102564 0.487179 0
0.102564 0.461538 0
0.102564 0.435897 0
0.102564 0.410256 0
0.102564 0.384615 0
0.102564 0.358974 0
0.102564 0.333333 0
0.102564 0.307692 0
0.102564 0.282051 0
0.102564 0.25641 0
0.102564 0.230769 0
0.102564 0.205128 0
0.102564 0.179487 0
0.102564 0.153846 0
0.102564 0.128205 0
0.102564 0.102564 0
0.102564 0.0769231 0
0.102564 0.0512821 0
0.102564 0.025641 0
0.128205 0.974359 0
0.128205 0.948718 0
0.128205 0.923077 0
0.128205 0.897436 0
0.128205 0.871795 0
0.128205 0.846154 0
0.128205 0.820513 0
0.128205 0.794872 0
0.128205 0.769231 0
0.128205 0.74359 0
0.128205 0.717949 0
0.128205 0.692308 0
0.128205 0.666667 0
0.128205 0.641026 0
0.128205 0.615385 0
0.128205 0.589744 0
0.128205 0.564103 0
0.128205 0.538462 0
0.128205 0.512821 0
0.128205 0.487179 0
0.128205 0.461538 0
0.128205 0.435897 0
0.128205 0.410256 0
0.128205 0.384615 0
0.128205 0.358974 0
0.128205 0.333333 0
0.128205 0.307692 0
0.128205 0.282051 0
0.128205 0.25641 0
0.128205 0.230769 0
0.128205 0.205128 0
0.128205 0.179487 0
0.128205 0.153846 0
0.128205 0.128205 0
0.128205 0.102564 0
0.128205 0.0769231 0
0.128205 0.0512821 0
0.128205 0.025641 0
0.153846 0.974359 0
0.153846 0.948718 0
0.153846 0.923077 0
0.153846 0.897436 0
0.153846 0.871795 0
0.153846 0.846154 0
0.153846 0.820513 0
0.153846 0.794872 0
0.153846 0.769231 0
0.153846 0.74359 0
0.153846 0.717949 0
0.153846 0.692308 0
0.153846 0.666667 0
0.153846 0.641026 0
0.153846 0.615385 0
0.153846 0.589744 0
0.153846 0.564103 0
0.153846 0.538462 0
0.153846 0.512821 0
0.153846 0.487179 0
0.153846 0.461538 0
0.153846 0.435897 0
0.153846 0.410256 0
0.153846 0.384615 0
0.153846 0.358974 0
0.153846 0.333333 0
0.153846 0.307692 0
0.153846 0.282051 0
0.153846 0.25641 0
0.153846 0.230769 0
0.153846 0.205128 0
0.153846 0.179487 0
0.153846 0.153846 0
0.153846 0.128205 0
0.153846 0.102564 0
0.153846 0.0769231 0
0.153846 0.0512821 0
0.153846 0.025641 0
0.179487 0.974359 0
0.179487 0.948718 0
0.179487 0.923077 0
0.179487 0.897436 0
0.179487 0.871795 0
0.179487 0.846154 0
0.179487 0.820513 0
0.179487 0.794872 0
0.179487 0.769231 0
0.179487 0.74359 0
0.179487 0.717949 0
0.179487 0.692308 0
0.179487 0.666667 0
0.179487 0.641026 0
0.179487 0.615385 0
0.179487 0.589744 0
0.179487 0.564103 0
0.179487 0.538462 0
0.179487 0.512821 0
0.179487 0.487179 0
0.179487 0.461538 0
0.179487 0.435897 0
0.179487 0.410256 0
0.179487 0.384615 0
0.179487 0.358974 0
0.179487 0.333333 0
0.179487 0.307692 0
0.179487 0.282051 0
0.179487 0.25641 0
0.179487 0.230769 0
0.179487 0.205128 0
0.179487 0.179487 0
0.179487 0.153846 0
0.179487 0.128205 0
0.179487 0.102564 0
0.179487 0.0769231 0
0.179487 0.0512821 0
0.179487 0.025641 0
0.205128 0.974359 0
0.205128 0.948718 0
0.205128 0.923077 0
0.205128 0.897436 0
0.205128 0.871795 0
0.205128 0.846154 0
0.205128 0.820513 0
0.205128 0.794872 0
0.205128 0.769231 0
0.205128 0.74359 0
0.205128 0.717949 0
0.205128 0.692308 0
0.205128 0.666667 0
0.205128 0.641026 0
0.205128 0.615385 0
0.205128 0.589744 0
0.205128 0.564103 0
0.205128 0.538462 0
0.205128 0.512821 0
0.205128 0.487179 0
0.205128 0.461538 0
0.205128 0.435897 0
0.205128 0.410256 0
0.205128 0.384615 0
0.205128 0.358974 0
0.205128 0.333333 0
0.205128 0.307692 0
0.205128 0.282051 0
0.205128 0.25641 0
0.205128 0.230769 0
0.205128 0.205128 0
0.205128 0.179487 0
0.205128 0.153846 0
0.205128 0.128205 0
0.205128 0.102564 0
0.205128 0.0769231 0
0.205128 0.0512821 0
0.205128 0.025641 0
0.230769 0.974359 0
0.230769 0.948718 0
0.230769 0.923077 0
0.230769 0.897436 0
0.230769 0.871795 0
0.230769 0.846154 0
0.230769 0.820513 0
0.230769 0.794872 0
0.230769 0.769231 0
0.230769 0.74359 0
0.230769 0.717949 0
0.230769 0.692308 0
0.230769 0.666667 0
0.230769 0.641026 0
0.230769 0.615385 0
0.230769 0.589744 0
0.230769 0.564103 0
0.230769 0.538462 0
0.230769 0.512821 0
0.230769 0.487179 0
0.230769 0.461538 0
0.230769 0.435897 0
0.230769 0.410256 0
0.230769 0.384615 0
0.230769 0.358974 0
0.230769 0.333333 0
0.230769 0.307692 0
0.230769 0.282051 0
0.230769 0.25641 0
0.230769 0.230769 0
0.230769 0.205128 0
0.230769 0.179487 0
0.230769 0.153846 0
0.230769 0.128205 0
0.230769 0.102564 0
0.230769 0.0769231 0
0.230769 0.0512821 0
0.230769 0.025641 0
0.25641 0.974359 0
0.25641 0.948718 0
0.25641 0.923077 0
0.25641 0.897436 0
0.25641 0.871795 0
0.25641 0.846154 0
0.25641 0.820513 0
0.25641 0.794872 0
0.25641 0.769231 0
0.25641 0.74359 0
0.25641 0.717949 0
0.25641 0.692308 0
0.25641 0.666667 0
0.25641 0.641026 0
0.25641 0.615385 0
0.25641 0.589744 0
0.25641 0.564103 0
0.25641 0.538462 0
0.25641 0.512821 0
0.25641 0.487179 0
0.25641 0.461538 0
0.25641 0.435897 0
0.25641 0.410256 0
0.25641 0.384615 0
0.25641 0.358974 0
0.25641 0.333333 0
0.25641 0.307692 0
0.25641 0.282051 0
0.25641 0.25641 0
0.25641 0.230769 0
0.25641 0.205128 0
0.25641 0.179487 0
0.25641 0.153846 0
0.25641 0.128205 0
0.25641 0.102564 0
0.25641 0.0769231 0
0.25641 0.0512821 0
0.25641 0.025641 0
0.282051 0.974359 0
0.282051 0.948718 0
0.282051 0.923077 0
0.282051 0.897436 0
0.282051 0.871795 0
0.282051 0.846154 0
0.282051 0.820513 0
0.282051 0.794872 0
0.282051 0.769231 0
0.282051 0.74359 0
0.282051 0.717949 0
0.282051 0.692308 0
[...]
CELL_DATA 3042
SCALARS Temperatura double 1
LOOKUP_TABLE default
0.00492919
0.0238972
0.0248459
0.064681
0.0448395
0.103267
0.0637187
0.139651
0.0814802
0.173829
0.0981223
0.205797
0.113644
0.235555
0.128045
0.263101
0.141324
0.288435
0.153482
0.311556
0.164518
0.332464
0.174432
0.351159
0.183224
0.367639
0.190893
0.381906
0.19744
0.393959
0.202865
0.403797
0.207167
0.411421
0.210346
0.416831
0.212403
0.420026
0.213337
0.421006
0.213148
0.419772
0.211837
0.416323
0.209403
0.410659
0.205847
0.402781
0.201168
0.392689
0.195366
0.380383
0.188442
0.365862
0.180395
0.349127
0.171226
0.330178
0.160935
0.309016
0.149522
0.28564
0.136987
0.260051
0.12333
0.232249
0.10855
0.202234
0.0926485
0.170003
0.0756208
0.135548
0.0574545
0.0988318
0.0380898
0.0596835
0.0172243
0.0172243
0.0248459
0.064681
0.104907
0.163435
0.181812
0.256839
0.254396
0.344887
0.322652
0.427571
0.386575
0.504887
0.446161
0.576832
0.50141
0.643404
0.55232
0.7046
0.598888
0.76042
0.641115
0.810862
0.678999
0.855926
0.712541
0.895612
0.741739
0.929918
0.766594
0.958844
0.787104
0.982389
0.803271
1.00055
0.815093
1.01334
0.82257
1.02074
0.825703
1.02277
0.824491
1.01941
0.818934
1.01067
0.809033
0.996551
0.794788
0.977051
0.776198
0.95217
0.753263
0.92191
0.725985
0.886269
0.694363
0.845249
0.658398
0.79885
0.618091
0.747073
0.57344
0.689917
0.524448
0.627385
0.471114
0.559475
0.413439
0.486189
0.351421
0.407525
0.285055
0.323476
0.214326
0.234031
0.139188
0.139188
0.0596835
0.0380898
0.0448395
0.103267
0.181812
0.256839
0.312558
0.402075
0.435941
0.538969
0.551954
0.667514
0.660589
0.787702
0.761843
0.899531
0.855712
1.003
0.942194
1.0981
1.02129
1.18483
1.09299
1.26319
1.1573
1.33319
1.21422
1.39481
1.26374
1.44806
1.30587
1.49294
1.3406
1.52944
1.36795
1.55757
1.38789
1.57733
1.40044
1.58871
1.40559
1.59172
1.40335
1.58635
1.39371
1.57261
1.37668
1.55049
1.35225
1.52001
1.32043
1.48114
1.28121
1.43391
1.2346
1.3783
1.18059
1.31432
1.11919
1.24197
1.0504
1.16124
0.974211
1.07215
0.890636
0.974694
0.799671
0.868867
0.701317
0.754675
0.595574
0.632118
0.482444
0.5012
0.361927
0.361927
0.234031
0.214326
0.0988318
0.0574545
0.0637187
0.139651
0.254396
0.344887
0.435941
0.538969
0.607251
0.721894
0.768318
0.893653
0.919135
1.05424
1.0597
1.20365
1.19
1.34188
1.31004
1.46893
1.41981
1.58479
1.51932
1.68946
1.60855
1.78294
1.68752
1.86523
1.75622
1.93633
1.81465
1.99624
1.8628
2.04495
1.90068
2.08247
1.92829
2.1088
1.94562
2.12393
1.95268
2.12786
1.94947
2.1206
1.93598
2.10215
1.91222
2.0725
1.87818
2.03165
1.83387
1.97962
1.77929
1.91639
1.71444
1.84196
1.63931
1.75635
1.55392
1.65954
1.45825
1.55154
1.35232
1.43236
1.23612
1.30199
1.10965
1.16043
0.972925
1.00769
0.825937
0.84378
0.668693
0.668693
0.5012
0.482444
0.323476
0.285055
0.135548
0.0756208
0.0814802
0.173829
0.322652
0.427571
0.551954
0.667514
0.768318
0.893653
0.971737
1.10598
1.1622
1.3045
1.33971
1.48919
1.50426
1.66005
1.65584
1.81709
1.79445
1.96029
1.9201
2.08966
2.03277
2.20519
2.13246
2.30688
2.21918
2.39474
2.29292
2.46875
2.35369
2.52893
2.40147
2.57526
2.43628
2.60775
2.45811
2.6264
2.46696
2.6312
2.46283
2.62216
2.44573
2.59928
2.41564
2.56256
2.37257
2.51199
2.31653
2.44759
2.2475
2.36934
2.1655
2.27725
2.07053
2.17132
1.96258
2.05156
1.84165
1.91796
1.70776
1.77052
1.56089
1.60926
1.40105
1.43416
1.22825
1.24524
1.04249
1.04249
0.84378
0.825937
0.632118
0.595574
0.407525
0.351421
0.170003
0.0926485
0.0981223
0.205797
0.386575
0.504887
0.660589
0.787702
0.919135
1.05424
1.1622
1.3045
1.38979
1.53846
1.60189
1.75613
1.7985
1.9575
1.9796
2.14257
2.14521
2.31133
2.29532
2.46378
2.42992
2.59992
2.54902
2.71975
2.65261
2.82327
2.74069
2.91047
2.81326
2.98136
2.87032
3.03593
2.91187
3.07418
2.93791
3.09611
2.94844
3.10173
2.94345
3.09103
2.92295
3.06401
2.88694
3.02067
2.83542
2.96102
2.76839
2.88505
2.68585
2.79277
2.58779
2.68417
2.47423
2.55925
2.34517
2.41803
2.20059
2.26049
2.04052
2.08665
1.86494
1.8965
1.67387
1.69005
1.4673
1.4673
1.24524
1.22825
1.00769
0.972925
0.754675
0.701317
0.486189
0.413439
0.202234
0.10855
0.113644
0.235555
0.446161
0.576832
0.761843
0.899531
1.0597
1.20365
1.33971
1.48919
1.60189
1.75613
1.84622
2.00448
2.0727
2.23422
2.28132
2.44537
2.47209
2.6379
2.64499
2.81183
2.80003
2.96714
2.93721
3.10384
3.05651
3.22193
3.15795
3.32139
3.24152
3.40224
3.30722
3.46447
3.35505
3.50808
3.38501
3.53307
3.3971
3.53945
3.39131
3.5272
3.36765
3.49633
3.32612
3.44684
3.26672
3.37873
3.18945
3.29201
3.09431
3.18666
2.9813
3.0627
2.85042
2.92012
2.70168
2.75893
2.53507
2.57913
2.3506
2.38072
2.14827
2.16371
1.92809
1.92809
1.69005
1.67387
1.43416
1.40105
1.16043
1.10965
0.868867
0.799671
0.559475
0.471114
0.232249
0.12333
0.128045
0.263101
0.50141
0.643404
0.855712
1.003
1.19
1.34188
1.50426
1.66005
1.7985
1.9575
2.0727
2.23422
2.32686
2.49022
2.56098
2.72548
2.77506
2.94001
2.96909
3.13379
3.14308
3.30684
3.29701
3.45914
3.43088
3.5907
3.5447
3.70151
3.63847
3.79158
3.71217
3.86089
3.76582
3.90946
3.79941
3.93728
3.81294
3.94435
3.80641
3.93066
3.77983
3.89623
3.73318
3.84105
3.66648
3.76512
3.57972
3.66845
3.4729
3.55102
3.34602
3.41285
3.1991
3.25394
3.03211
3.07428
2.84508
2.87388
2.638
2.65275
2.41088
2.41088
2.16371
2.14827
1.8965
1.86494
1.60926
1.56089
1.30199
1.23612
0.974694
0.890636
0.627385
0.524448
0.260051
0.136987
0.141324
0.288435
0.55232
0.7046
0.942194
1.0981
1.31004
1.46893
1.65584
1.81709
1.9796
2.14257
2.28132
2.44537
2.56098
2.72548
2.81859
2.9829
3.05415
3.21764
3.26763
3.42967
3.45906
3.61901
3.62842
3.78565
3.77571
3.92959
3.90093
4.05083
4.00409
4.14936
4.08517
4.22518
4.14417
4.2783
4.18111
4.30872
4.19597
4.31643
4.18876
4.30143
4.15947
4.26372
4.10811
4.20331
4.03468
4.12019
3.93918
4.01437
3.8216
3.88584
3.68196
3.73462
3.52024
3.56069
3.33646
3.36406
3.13062
3.14473
2.90271
2.90271
2.65275
2.638
2.38072
2.3506
2.08665
2.04052
1.77052
1.70776
1.43236
1.35232
1.07215
0.974211
0.689917
0.57344
0.28564
0.149522
0.153482
0.311556
0.598888
0.76042
1.02129
1.18483
1.41981
1.58479
1.79445
1.96029
2.14521
2.31133
2.47209
2.6379
2.77506
2.94001
3.05415
3.21764
3.30933
3.47079
3.54061
3.69947
3.74798
3.90366
3.93145
4.08337
4.091
4.2386
4.22665
4.36933
4.33838
4.47558
4.4262
4.55734
4.49011
4.61461
4.5301
4.64739
4.54618
4.65568
4.53834
4.63948
4.50658
4.59879
4.45091
4.53361
4.37133
4.44394
4.26783
4.32977
4.14042
4.19113
3.9891
4.02799
3.81387
3.84037
3.61473
3.62827
3.39168
3.39168
3.14473
3.13062
2.87388
2.84508
2.57913
2.53507
2.26049
2.20059
1.91796
1.84165
1.55154
1.45825
1.16124
1.0504
0.747073
0.618091
0.309016
0.160935
0.164518
0.332464
0.641115
0.810862
1.09299
1.26319
1.51932
1.68946
1.9201
2.08966
2.29532
2.46378
2.64499
2.81183
2.96909
3.13379
3.26763
3.42967
3.54061
3.69947
3.78801
3.94317
4.00983
4.16078
4.20608
4.35229
4.37675
4.51771
4.52184
4.65703
4.64135
4.77025
4.73528
4.85737
4.80362
4.91839
4.84638
4.9533
4.86356
4.96212
4.85515
4.94483
4.82116
4.90144
4.76158
4.83195
4.67642
4.73635
4.56568
4.61466
4.42935
4.46686
4.26745
4.29297
4.07996
4.09298
3.8669
3.8669
3.62827
3.61473
3.36406
3.33646
3.07428
3.03211
2.75893
2.70168
2.41803
2.34517
2.05156
1.96258
1.65954
1.55392
1.24197
1.11919
0.79885
0.658398
0.330178
0.171226
0.174432
0.351159
0.678999
0.855926
1.1573
1.33319
1.60855
1.78294
2.03277
2.20519
2.42992
2.59992
2.80003
2.96714
3.14308
3.30684
3.45906
3.61901
3.74798
3.90366
4.00983
4.16078
4.24461
4.39037
4.45232
4.59242
4.63295
4.76694
4.78651
4.91392
4.91299
5.03336
5.01239
5.12526
5.08471
5.18962
5.12995
5.22644
5.14811
5.23573
5.13919
5.21746
5.10319
5.17166
5.04011
5.09832
4.94995
4.99744
4.83271
4.86902
4.68839
4.71306
4.517
4.52956
4.31853
4.31853
4.09298
4.07996
3.84037
3.81387
3.56069
3.52024
3.25394
3.1991
2.92012
2.85042
2.55925
2.47423
2.17132
2.07053
1.75635
1.63931
1.31432
1.18059
0.845249
0.694363
0.349127
0.180395
0.183224
0.367639
0.712541
0.895612
1.21422
1.39481
1.68752
1.86523
2.13246
2.30688
2.54902
2.71975
2.93721
3.10384
3.29701
3.45914
3.62842
3.78565
3.93145
4.08337
4.20608
4.35229
4.45232
4.59242
4.67016
4.80374
4.85961
4.98627
5.02065
5.13999
5.1533
5.2649
5.25754
5.36101
5.33338
5.42832
5.38081
5.46681
5.39984
5.4765
5.39047
5.45739
5.35269
5.40946
5.28651
5.33273
5.19192
5.22719
5.06893
5.09285
4.91754
4.9297
4.73775
4.73775
4.52956
4.517
4.29297
4.26745
4.02799
3.9891
3.73462
3.68196
3.41285
3.34602
3.0627
2.9813
2.68417
2.58779
2.27725
2.1655
1.84196
1.71444
1.3783
1.2346
0.886269
0.725985
0.365862
0.188442
0.190893
0.381906
0.741739
0.929918
1.26374
1.44806
1.75622
1.93633
2.21918
2.39474
2.65261
2.82327
3.05651
3.22193
3.43088
3.5907
3.77571
3.92959
4.091
4.2386
4.37675
4.51771
4.63295
4.76694
4.85961
4.98627
5.05671
5.1757
5.22427
5.33524
5.36227
5.46488
5.47072
5.56463
5.54962
5.63447
5.59896
5.67441
5.61874
5.68445
5.60897
5.66459
5.56964
5.61483
5.50076
5.53517
5.40233
5.42561
5.27434
5.28615
5.11679
5.11679
4.9297
4.91754
4.71306
4.68839
4.46686
4.42935
4.19113
4.14042
3.88584
3.8216
3.55102
3.4729
3.18666
3.09431
2.79277
2.68585
2.36934
2.2475
1.91639
1.77929
1.43391
1.28121
0.92191
0.753263
0.380383
0.195366
0.19744
0.393959
0.766594
0.958844
1.30587
1.49294
1.81465
1.99624
2.29292
2.46875
2.74069
2.91047
3.15795
3.32139
3.5447
3.70151
3.90093
4.05083
4.22665
4.36933
4.52184
4.65703
4.78651
4.91392
5.02065
5.13999
5.22427
5.33524
5.39736
5.49968
5.53991
5.6333
5.65194
5.7361
5.73343
5.80808
5.78439
5.84923
5.80481
5.85957
5.7947
5.83908
5.75406
5.78777
5.68288
5.70564
5.58117
5.59269
5.44892
5.44892
5.28615
5.27434
5.09285
5.06893
4.86902
4.83271
4.61466
4.56568
4.32977
4.26783
4.01437
3.93918
3.66845
3.57972
3.29201
3.18945
2.88505
2.76839
2.44759
2.31653
1.97962
1.83387
1.48114
1.32043
0.95217
0.776198
0.392689
0.201168
0.202865
0.403797
0.787104
0.982389
1.3406
1.52944
1.8628
2.04495
2.35369
2.52893
2.81326
2.98136
3.24152
3.40224
3.63847
3.79158
4.00409
4.14936
4.33838
4.47558
4.64135
4.77025
4.91299
5.03336
5.1533
5.2649
5.36227
5.46488
5.53991
5.6333
5.68622
5.77015
5.80118
5.87543
5.88481
5.94914
5.9371
5.99128
5.95804
6.00185
5.94765
5.98085
5.90592
5.92829
5.83285
5.84415
5.72844
5.72844
5.59269
5.58117
5.42561
5.40233
5.22719
5.19192
4.99744
4.94995
4.73635
4.67642
4.44394
4.37133
4.12019
4.03468
3.76512
3.66648
3.37873
3.26672
2.96102
2.83542
2.51199
2.37257
2.03165
1.87818
1.52001
1.35225
0.977051
0.794788
0.402781
0.205847
0.207167
0.411421
0.803271
1.00055
1.36795
1.55757
1.90068
2.08247
2.40147
2.57526
2.87032
3.03593
3.30722
3.46447
3.71217
3.86089
4.08517
4.22518
4.4262
4.55734
4.73528
4.85737
5.01239
5.12526
5.25754
5.36101
5.47072
5.56463
5.65194
5.7361
5.80118
5.87543
5.91845
5.98261
6.00376
6.05765
6.05709
6.10055
6.07844
6.1113
6.06783
6.08991
6.02524
6.03637
5.95068
5.95068
5.84415
5.83285
5.70564
5.68288
5.53517
5.50076
5.33273
5.28651
5.09832
5.04011
4.83195
4.76158
4.53361
4.45091
4.20331
4.10811
3.84105
3.73318
3.44684
3.32612
3.02067
2.88694
2.56256
2.41564
2.0725
1.91222
1.55049
1.37668
0.996551
0.809033
0.410659
0.209403
0.210346
0.416831
0.815093
1.01334
1.38789
1.57733
1.92829
2.1088
2.43628
2.60775
2.91187
3.07418
3.35505
3.50808
3.76582
3.90946
4.14417
4.2783
4.49011
4.61461
4.80362
4.91839
5.08471
5.18962
5.33338
5.42832
5.54962
5.63447
5.73343
5.80808
5.88481
5.94914
6.00376
6.05765
6.09027
6.13362
6.14436
6.17704
6.16601
6.18791
6.15523
6.16624
6.11201
6.11201
6.03637
6.02524
5.92829
5.90592
5.78777
5.75406
5.61483
5.56964
5.40946
5.35269
5.17166
5.10319
4.90144
4.82116
4.59879
4.50658
4.26372
4.15947
3.89623
3.77983
3.49633
3.36765
3.06401
2.92295
2.59928
2.44573
2.10215
1.93598
1.57261
1.39371
1.01067
0.818934
0.416323
0.211837
0.212403
0.420026
0.82257
1.02074
1.40044
1.58871
1.94562
2.12393
2.45811
2.6264
2.93791
3.09611
3.38501
3.53307
3.79941
3.93728
4.18111
4.30872
4.5301
4.64739
4.84638
4.9533
5.12995
5.22644
5.38081
5.46681
5.59896
5.67441
5.78439
5.84923
5.9371
5.99128
6.05709
6.10055
6.14436
6.17704
6.19891
6.22076
6.22074
6.23169
6.20985
6.20985
6.16624
6.15523
6.08991
6.06783
5.98085
5.94765
5.83908
5.7947
5.66459
5.60897
5.45739
5.39047
5.21746
5.13919
4.94483
4.85515
4.63948
4.53834
4.30143
4.18876
3.93066
3.80641
3.5272
3.39131
3.09103
2.94345
2.62216
2.46283
2.1206
1.94947
1.58635
1.40335
1.01941
0.824491
0.419772
0.213148
0.213337
0.421006
0.825703
1.02277
1.40559
1.59172
1.95268
2.12786
2.46696
2.6312
2.94844
3.10173
3.3971
3.53945
3.81294
3.94435
4.19597
4.31643
4.54618
4.65568
4.86356
4.96212
5.14811
5.23573
5.39984
5.4765
5.61874
5.68445
5.80481
5.85957
5.95804
6.00185
6.07844
6.1113
6.16601
6.18791
6.22074
6.23169
6.24263
6.24263
6.23169
6.22074
6.18791
6.16601
6.1113
6.07844
6.00185
5.95804
5.85957
5.80481
5.68445
5.61874
5.4765
5.39984
5.23573
5.14811
4.96212
4.86356
4.65568
4.54618
4.31643
4.19597
3.94435
3.81294
3.53945
3.3971
3.10173
2.94844
2.6312
2.46696
2.12786
1.95268
1.59172
1.40559
1.02277
0.825703
0.421006
0.213337
0.213148
0.419772
0.824491
1.01941
1.40335
1.58635
1.94947
2.1206
2.46283
2.62216
2.94345
3.09103
3.39131
3.5272
3.80641
3.93066
4.18876
4.30143
4.53834
4.63948
4.85515
4.94483
5.13919
5.21746
5.39047
5.45739
5.60897
5.66459
5.7947
5.83908
5.94765
5.98085
6.06783
6.08991
6.15523
6.16624
6.20985
6.20985
6.23169
6.22074
6.22076
6.19891
6.17704
6.14436
6.10055
6.05709
5.99128
5.9371
5.84923
5.78439
5.67441
5.59896
5.46681
5.38081
5.22644
5.12995
4.9533
4.84638
4.64739
4.5301
4.30872
4.18111
3.93728
3.79941
3.53307
3.38501
3.09611
2.93791
2.6264
2.45811
2.12393
1.94562
1.58871
1.40044
1.02074
0.82257
0.420026
0.212403
0.211837
0.416323
0.818934
1.01067
1.39371
1.57261
1.93598
2.10215
2.44573
2.59928
2.92295
3.06401
3.36765
3.49633
3.77983
3.89623
4.15947
4.26372
4.50658
4.59879
4.82116
4.90144
5.10319
5.17166
5.35269
5.40946
5.56964
5.61483
5.75406
5.78777
5.90592
5.92829
6.02524
6.03637
6.11201
6.11201
6.16624
6.15523
6.18791
6.16601
6.17704
6.14436
6.13362
6.09027
6.05765
6.00376
5.94914
5.88481
5.80808
5.73343
5.63447
5.54962
5.42832
5.33338
5.18962
5.08471
4.91839
4.80362
4.61461
4.49011
4.2783
4.14417
3.90946
3.76582
3.50808
3.35505
3.07418
2.91187
2.60775
2.43628
2.1088
1.92829
1.57733
1.38789
1.01334
0.815093
0.416831
0.210346
0.209403
0.410659
0.809033
0.996551
1.37668
1.55049
1.91222
2.0725
2.41564
2.56256
2.88694
3.02067
3.32612
3.44684
3.73318
3.84105
4.10811
4.20331
4.45091
4.53361
4.76158
4.83195
5.04011
5.09832
5.28651
5.33273
5.50076
5.53517
5.68288
5.70564
5.83285
5.84415
5.95068
5.95068
6.03637
6.02524
6.08991
6.06783
6.1113
6.07844
6.10055
6.05709
6.05765
6.00376
5.98261
5.91845
5.87543
5.80118
5.7361
5.65194
5.56463
5.47072
5.36101
5.25754
5.12526
5.01239
4.85737
4.73528
4.55734
4.4262
4.22518
4.08517
3.86089
3.71217
3.46447
3.30722
3.03593
2.87032
2.57526
2.40147
2.08247
1.90068
1.55757
1.36795
1.00055
0.803271
0.411421
0.207167
0.205847
0.402781
0.794788
0.977051
1.35225
1.52001
1.87818
2.03165
2.37257
2.51199
2.83542
2.96102
3.26672
3.37873
3.66648
3.76512
4.03468
4.12019
4.37133
4.44394
4.67642
4.73635
4.94995
4.99744
5.19192
5.22719
5.40233
5.42561
5.58117
5.59269
5.72844
5.72844
5.84415
5.83285
5.92829
5.90592
5.98085
5.94765
6.00185
5.95804
5.99128
5.9371
5.94914
5.88481
5.87543
5.80118
5.77015
5.68622
5.6333
5.53991
5.46488
5.36227
5.2649
5.1533
5.03336
4.91299
4.77025
4.64135
4.47558
4.33838
4.14936
4.00409
3.79158
3.63847
3.40224
3.24152
2.98136
2.81326
2.52893
2.35369
2.04495
1.8628
1.52944
1.3406
0.982389
0.787104
0.403797
0.202865
0.201168
0.392689
0.776198
0.95217
1.32043
1.48114
1.83387
1.97962
2.31653
2.44759
2.76839
2.88505
3.18945
3.29201
3.57972
3.66845
3.93918
4.01437
4.26783
4.32977
4.56568
4.61466
4.83271
4.86902
5.06893
5.09285
5.27434
5.28615
5.44892
5.44892
5.59269
5.58117
5.70564
5.68288
5.78777
5.75406
5.83908
5.7947
5.85957
5.80481
5.84923
5.78439
5.80808
5.73343
5.7361
5.65194
5.6333
5.53991
5.49968
5.39736
5.33524
5.22427
5.13999
5.02065
4.91392
4.78651
4.65703
4.52184
4.36933
4.22665
4.05083
3.90093
3.70151
3.5447
3.32139
3.15795
2.91047
2.74069
2.46875
2.29292
1.99624
1.81465
1.49294
1.30587
0.958844
0.766594
0.393959
0.19744
0.195366
0.380383
0.753263
0.92191
1.28121
1.43391
1.77929
1.91639
2.2475
2.36934
2.68585
2.79277
3.09431
3.18666
3.4729
3.55102
3.8216
3.88584
4.14042
4.19113
4.42935
4.46686
4.68839
4.71306
4.91754
4.9297
5.11679
5.11679
5.28615
5.27434
5.42561
5.40233
5.53517
5.50076
5.61483
5.56964
5.66459
5.60897
5.68445
5.61874
5.67441
5.59896
5.63447
5.54962
5.56463
5.47072
5.46488
5.36227
5.33524
5.22427
5.1757
5.05671
4.98627
4.85961
4.76694
4.63295
4.51771
4.37675
4.2386
4.091
3.92959
3.77571
3.5907
3.43088
3.22193
3.05651
2.82327
2.65261
2.39474
2.21918
1.93633
1.75622
1.44806
1.26374
0.929918
0.741739
0.381906
0.190893
0.188442
0.365862
0.725985
0.886269
1.2346
1.3783
1.71444
1.84196
2.1655
2.27725
2.58779
2.68417
2.9813
3.0627
3.34602
3.41285
3.68196
3.73462
3.9891
4.02799
4.26745
4.29297
4.517
4.52956
4.73775
4.73775
4.9297
4.91754
5.09285
5.06893
5.22719
5.19192
5.33273
5.28651
5.40946
5.35269
5.45739
5.39047
5.4765
5.39984
5.46681
5.38081
5.42832
5.33338
5.36101
5.25754
5.2649
5.1533
5.13999
5.02065
4.98627
4.85961
4.80374
4.67016
4.59242
4.45232
4.35229
4.20608
4.08337
3.93145
3.78565
3.62842
3.45914
3.29701
3.10384
2.93721
2.71975
2.54902
2.30688
2.13246
1.86523
1.68752
1.39481
1.21422
0.895612
0.712541
0.367639
0.183224
0.180395
0.349127
0.694363
0.845249
1.18059
1.31432
1.63931
1.75635
2.07053
2.17132
2.47423
2.55925
2.85042
2.92012
3.1991
3.25394
3.52024
3.56069
3.81387
3.84037
4.07996
4.09298
4.31853
4.31853
4.52956
4.517
4.71306
4.68839
4.86902
4.83271
4.99744
4.94995
5.09832
5.04011
5.17166
5.10319
5.21746
5.13919
5.23573
5.14811
5.22644
5.12995
5.18962
5.08471
5.12526
5.01239
5.03336
4.91299
4.91392
4.78651
4.76694
4.63295
4.59242
4.45232
4.39037
4.24461
4.16078
4.00983
3.90366
3.74798
3.61901
3.45906
3.30684
3.14308
2.96714
2.80003
2.59992
2.42992
2.20519
2.03277
1.78294
1.60855
1.33319
1.1573
0.855926
0.678999
0.351159
0.174432
0.171226
0.330178
0.658398
0.79885
1.11919
1.24197
1.55392
1.65954
1.96258
2.05156
2.34517
2.41803
2.70168
2.75893
3.03211
3.07428
3.33646
3.36406
3.61473
3.62827
3.8669
3.8669
4.09298
4.07996
4.29297
4.26745
4.46686
4.42935
4.61466
4.56568
4.73635
4.67642
4.83195
4.76158
4.90144
4.82116
4.94483
4.85515
4.96212
4.86356
4.9533
4.84638
4.91839
4.80362
4.85737
4.73528
4.77025
4.64135
4.65703
4.52184
4.51771
4.37675
4.35229
4.20608
4.16078
4.00983
3.94317
3.78801
3.69947
3.54061
3.42967
3.26763
3.13379
2.96909
2.81183
2.64499
2.46378
2.29532
2.08966
1.9201
1.68946
1.51932
1.26319
1.09299
0.810862
0.641115
0.332464
0.164518
0.160935
0.309016
0.618091
0.747073
1.0504
1.16124
1.45825
1.55154
1.84165
1.91796
2.20059
2.26049
2.53507
2.57913
2.84508
2.87388
3.13062
3.14473
3.39168
3.39168
3.62827
3.61473
3.84037
3.81387
4.02799
3.9891
4.19113
4.14042
4.32977
4.26783
4.44394
4.37133
4.53361
4.45091
4.59879
4.50658
4.63948
4.53834
4.65568
4.54618
4.64739
4.5301
4.61461
4.49011
4.55734
4.4262
4.47558
4.33838
4.36933
4.22665
4.2386
4.091
4.08337
3.93145
3.90366
3.74798
3.69947
3.54061
3.47079
3.30933
3.21764
3.05415
2.94001
2.77506
2.6379
2.47209
2.31133
2.14521
1.96029
1.79445
1.58479
1.41981
1.18483
1.02129
0.76042
0.598888
0.311556
0.153482
0.149522
0.28564
0.57344
0.689917
0.974211
1.07215
1.35232
1.43236
1.70776
1.77052
2.04052
2.08665
2.3506
2.38072
2.638
2.65275
2.90271
2.90271
3.14473
3.13062
3.36406
3.33646
3.56069
3.52024
3.73462
3.68196
3.88584
3.8216
4.01437
3.93918
4.12019
4.03468
4.20331
4.10811
4.26372
4.15947
4.30143
4.18876
4.31643
4.19597
4.30872
4.18111
4.2783
4.14417
4.22518
4.08517
4.14936
4.00409
4.05083
3.90093
3.92959
3.77571
3.78565
3.62842
3.61901
3.45906
3.42967
3.26763
3.21764
3.05415
2.9829
2.81859
2.72548
2.56098
2.44537
2.28132
2.14257
1.9796
1.81709
1.65584
1.46893
1.31004
1.0981
0.942194
0.7046
0.55232
0.288435
0.141324
0.136987
0.260051
0.524448
0.627385
0.890636
0.974694
1.23612
1.30199
1.56089
1.60926
1.86494
1.8965
2.14827
2.16371
2.41088
2.41088
2.65275
2.638
2.87388
2.84508
3.07428
3.03211
3.25394
3.1991
3.41285
3.34602
3.55102
3.4729
3.66845
3.57972
3.76512
3.66648
3.84105
3.73318
3.89623
3.77983
3.93066
3.80641
3.94435
3.81294
3.93728
3.79941
3.90946
3.76582
3.86089
3.71217