# vtk DataFile Version 3.0
Malha 2D com triângulos e temperatura
ASCII
DATASET UNSTRUCTURED_GRID

POINTS 100 double
0 0 0
1 0 0
1 1 0
0 1 0
0.111111 0 0
0.222222 0 0
0.333333 0 0
0.444444 0 0
0.555556 0 0
0.666667 0 0
0.777778 0 0
0.888889 0 0
1 0.111111 0
1 0.222222 0
1 0.333333 0
1 0.444444 0
1 0.555556 0
1 0.666667 0
1 0.777778 0
1 0.888889 0
0.888889 1 0
0.777778 1 0
0.666667 1 0
0.555556 1 0
0.444444 1 0
0.333333 1 0
0.222222 1 0
0.111111 1 0
0 0.888889 0
0 0.777778 0
0 0.666667 0
0 0.555556 0
0 0.444444 0
0 0.333333 0
0 0.222222 0
0 0.111111 0
0.111111 0.888889 0
0.111111 0.777778 0
0.111111 0.666667 0
0.111111 0.555556 0
0.111111 0.444444 0
0.111111 0.333333 0
0.111111 0.222222 0
0.111111 0.111111 0
0.222222 0.888889 0
0.222222 0.777778 0
0.222222 0.666667 0
0.222222 0.555556 0
0.222222 0.444444 0
0.222222 0.333333 0
0.222222 0.222222 0
0.222222 0.111111 0
0.333333 0.888889 0
0.333333 0.777778 0
0.333333 0.666667 0
0.333333 0.555556 0
0.333333 0.444444 0
0.333333 0.333333 0
0.333333 0.222222 0
0.333333 0.111111 0
0.444444 0.888889 0
0.444444 0.777778 0
0.444444 0.666667 0
0.444444 0.555556 0
0.444444 0.444444 0
0.444444 0.333333 0
0.444444 0.222222 0
0.444444 0.111111 0
0.555556 0.888889 0
0.555556 0.777778 0
0.555556 0.666667 0
0.555556 0.555556 0
0.555556 0.444444 0
0.555556 0.333333 0
0.555556 0.222222 0
0.555556 0.111111 0
0.666667 0.888889 0
0.666667 0.777778 0
0.666667 0.666667 0
0.666667 0.555556 0
0.666667 0.444444 0
0.666667 0.333333 0
0.666667 0.222222 0
0.666667 0.111111 0
0.777778 0.888889 0
0.777778 0.777778 0
0.777778 0.666667 0
0.777778 0.555556 0
0.777778 0.444444 0
0.777778 0.333333 0
0.777778 0.222222 0
0.777778 0.111111 0
0.888889 0.888889 0
0.888889 0.777778 0
0.888889 0.666667 0
0.888889 0.555556 0
0.888889 0.444444 0
0.888889 0.333333 0
0.888889 0.222222 0
0.888889 0.111111 0

CELLS 162 648
3 3 28 27
3 28 36 27
3 28 29 36
3 29 37 36
3 29 30 37
3 30 38 37
3 30 31 38
3 31 39 38
3 31 32 39
3 32 40 39
3 32 33 40
3 33 41 40
3 33 34 41
3 34 42 41
3 34 35 42
3 35 43 42
3 35 0 43
3 0 4 43
3 27 36 26
3 36 44 26
3 36 37 44
3 37 45 44
3 37 38 45
3 38 46 45
3 38 39 46
3 39 47 46
3 39 40 47
3 40 48 47
3 40 41 48
3 41 49 48
3 41 42 49
3 42 50 49
3 42 43 50
3 43 51 50
3 43 4 51
3 4 5 51
3 26 44 25
3 44 52 25
3 44 45 52
3 45 53 52
3 45 46 53
3 46 54 53
3 46 47 54
3 47 55 54
3 47 48 55
3 48 56 55
3 48 49 56
3 49 57 56
3 49 50 57
3 50 58 57
3 50 51 58
3 51 59 58
3 51 5 59
3 5 6 59
3 25 52 24
3 52 60 24
3 52 53 60
3 53 61 60
3 53 54 61
3 54 62 61
3 54 55 62
3 55 63 62
3 55 56 63
3 56 64 63
3 56 57 64
3 57 65 64
3 57 58 65
3 58 66 65
3 58 59 66
3 59 67 66
3 59 6 67
3 6 7 67
3 24 60 23
3 60 68 23
3 60 61 68
3 61 69 68
3 61 62 69
3 62 70 69
3 62 63 70
3 63 71 70
3 63 64 71
3 64 72 71
3 64 65 72
3 65 73 72
3 65 66 73
3 66 74 73
3 66 67 74
3 67 75 74
3 67 7 75
3 7 8 75
3 23 68 22
3 68 76 22
3 68 69 76
3 69 77 76
3 69 70 77
3 70 78 77
3 70 71 78
3 71 79 78
3 71 72 79
3 72 80 79
3 72 73 80
3 73 81 80
3 73 74 81
3 74 82 81
3 74 75 82
3 75 83 82
3 75 8 83
3 8 9 83
3 22 76 21
3 76 84 21
3 76 77 84
3 77 85 84
3 77 78 85
3 78 86 85
3 78 79 86
3 79 87 86
3 79 80 87
3 80 88 87
3 80 81 88
3 81 89 88
3 81 82 89
3 82 90 89
3 82 83 90
3 83 91 90
3 83 9 91
3 9 10 91
3 21 84 20
3 84 92 20
3 84 85 92
3 85 93 92
3 85 86 93
3 86 94 93
3 86 87 94
3 87 95 94
3 87 88 95
3 88 96 95
3 88 89 96
3 89 97 96
3 89 90 97
3 90 98 97
3 90 91 98
3 91 99 98
3 91 10 99
3 10 11 99
3 20 92 2
3 92 19 2
3 92 93 19
3 93 18 19
3 93 94 18
3 94 17 18
3 94 95 17
3 95 16 17
3 95 96 16
3 96 15 16
3 96 97 15
3 97 14 15
3 97 98 14
3 98 13 14
3 98 99 13
3 99 12 13
3 99 11 12
3 11 1 12

CELL_TYPES 162
5
5
5
5
5
5
5
5
5
5
5
5
5
5
5
5
5
5
5
5
5
5
5
5
5
5
5
5
5
5
5
5
5
5
5
5
5
5
5
5
5
5
5
5
5
5
5
5
5
5
5
5
5
5
5
5
5
5
5
5
5
5
5
5
5
5
5
5
5
5
5
5
5
5
5
5
5
5
5
5
5
5
5
5
5
5
5
5
5
5
5
5
5
5
5
5
5
5
5
5
5
5
5
5
5
5
5
5
5
5
5
5
5
5
5
5
5
5
5
5
5
5
5
5
5
5
5
5
5
5
5
5
5
5
5
5
5
5
5
5
5
5
5
5
5
5
5
5
5
5
5
5
5
5
5
5
5
5
5
5
5
5

CELL_DATA 162
SCALARS Temperatura double 1
LOOKUP_TABLE default
0.0929318
0.409076
0.41069
0.982084
0.662141
1.39043
0.825345
1.63178
0.899309
1.70496
0.883634
1.6095
0.778122
1.34506
0.582154
0.909846
0.291636
0.291636
0.41069
0.982084
1.52432
2.20841
2.3545
3.07366
2.88054
3.57458
3.10016
3.70919
3.01238
3.47687
2.61717
2.87814
1.9152
1.9152
0.909846
0.582154
0.662141
1.39043
2.3545
3.07366
3.60189
4.25738
4.38722
4.93846
4.70785
5.11472
4.56268
4.7856
3.95209
3.95209
2.87814
2.61717
1.34506
0.778122
0.825345
1.63178
2.88054
3.57458
4.38722
4.93846
5.33292
5.72056
5.71501
5.91872
5.5324
5.5324
4.7856
4.56268
3.47687
3.01238
1.6095
0.883634
0.899309
1.70496
3.10016
3.70919
4.70785
5.11472
5.71501
5.91872
6.119
6.119
5.91872
5.71501
5.11472
4.70785
3.70919
3.10016
1.70496
0.899309
0.883634
1.6095
3.01238
3.47687
4.56268
4.7856
5.5324
5.5324
5.91872
5.71501
5.72056
5.33292
4.93846
4.38722
3.57458
2.88054
1.63178
0.825345
0.778122
1.34506
2.61717
2.87814
3.95209
3.95209
4.7856
4.56268
5.11472
4.70785
4.93846
4.38722
4.25738
3.60189
3.07366
2.3545
1.39043
0.662141
0.582154
0.909846
1.9152
1.9152
2.87814
2.61717
3.47687
3.01238
3.70919
3.10016
3.57458
2.88054
3.07366
2.3545
2.20841
1.52432
0.982084
0.41069
0.291636
0.291636
0.909846
0.582154
1.34506
0.778122
1.6095
0.883634
1.70496
0.899309
1.63178
0.825345
1.39043
0.662141
0.982084
0.41069
0.409076
0.0929318
