# vtk DataFile Version 3.0
Malha 2D com triângulos e temperatura
ASCII
DATASET UNSTRUCTURED_GRID

POINTS 40000 double
0 0 0
1 0 0
1 1 0
0 1 0
0.00502513 0 0
0.0100503 0 0
0.0150754 0 0
0.0201005 0 0
0.0251256 0 0
0.0301508 0 0
0.0351759 0 0
0.040201 0 0
0.0452261 0 0
0.0502513 0 0
0.0552764 0 0
0.0603015 0 0
0.0653266 0 0
0.0703518 0 0
0.0753769 0 0
0.080402 0 0
0.0854271 0 0
0.0904523 0 0
0.0954774 0 0
0.100503 0 0
0.105528 0 0
0.110553 0 0
0.115578 0 0
0.120603 0 0
0.125628 0 0
0.130653 0 0
0.135678 0 0
0.140704 0 0
0.145729 0 0
0.150754 0 0
0.155779 0 0
0.160804 0 0
0.165829 0 0
0.170854 0 0
0.175879 0 0
0.180905 0 0
0.18593 0 0
0.190955 0 0
0.19598 0 0
0.201005 0 0
0.20603 0 0
0.211055 0 0
0.21608 0 0
0.221106 0 0
0.226131 0 0
0.231156 0 0
0.236181 0 0
0.241206 0 0
0.246231 0 0
0.251256 0 0
0.256281 0 0
0.261307 0 0
0.266332 0 0
0.271357 0 0
0.276382 0 0
0.281407 0 0
0.286432 0 0
0.291457 0 0
0.296482 0 0
0.301508 0 0
0.306533 0 0
0.311558 0 0
0.316583 0 0
0.321608 0 0
0.326633 0 0
0.331658 0 0
0.336683 0 0
0.341709 0 0
0.346734 0 0
0.351759 0 0
0.356784 0 0
0.361809 0 0
0.366834 0 0
0.371859 0 0
0.376884 0 0
0.38191 0 0
0.386935 0 0
0.39196 0 0
0.396985 0 0
0.40201 0 0
0.407035 0 0
0.41206 0 0
0.417085 0 0
0.422111 0 0
0.427136 0 0
0.432161 0 0
0.437186 0 0
0.442211 0 0
0.447236 0 0
0.452261 0 0
0.457286 0 0
0.462312 0 0
0.467337 0 0
0.472362 0 0
0.477387 0 0
0.482412 0 0
0.487437 0 0
0.492462 0 0
0.497487 0 0
0.502513 0 0
0.507538 0 0
0.512563 0 0
0.517588 0 0
0.522613 0 0
0.527638 0 0
0.532663 0 0
0.537688 0 0
0.542714 0 0
0.547739 0 0
0.552764 0 0
0.557789 0 0
0.562814 0 0
0.567839 0 0
0.572864 0 0
0.577889 0 0
0.582915 0 0
0.58794 0 0
0.592965 0 0
0.59799 0 0
0.603015 0 0
0.60804 0 0
0.613065 0 0
0.61809 0 0
0.623116 0 0
0.628141 0 0
0.633166 0 0
0.638191 0 0
0.643216 0 0
0.648241 0 0
0.653266 0 0
0.658291 0 0
0.663317 0 0
0.668342 0 0
0.673367 0 0
0.678392 0 0
0.683417 0 0
0.688442 0 0
0.693467 0 0
0.698492 0 0
0.703518 0 0
0.708543 0 0
0.713568 0 0
0.718593 0 0
0.723618 0 0
0.728643 0 0
0.733668 0 0
0.738693 0 0
0.743719 0 0
0.748744 0 0
0.753769 0 0
0.758794 0 0
0.763819 0 0
0.768844 0 0
0.773869 0 0
0.778894 0 0
0.78392 0 0
0.788945 0 0
0.79397 0 0
0.798995 0 0
0.80402 0 0
0.809045 0 0
0.81407 0 0
0.819095 0 0
0.824121 0 0
0.829146 0 0
0.834171 0 0
0.839196 0 0
0.844221 0 0
0.849246 0 0
0.854271 0 0
0.859296 0 0
0.864322 0 0
0.869347 0 0
0.874372 0 0
0.879397 0 0
0.884422 0 0
0.889447 0 0
0.894472 0 0
0.899497 0 0
0.904523 0 0
0.909548 0 0
0.914573 0 0
0.919598 0 0
0.924623 0 0
0.929648 0 0
0.934673 0 0
0.939698 0 0
0.944724 0 0
0.949749 0 0
0.954774 0 0
0.959799 0 0
0.964824 0 0
0.969849 0 0
0.974874 0 0
0.979899 0 0
0.984925 0 0
0.98995 0 0
0.994975 0 0
1 0.00502513 0
1 0.0100503 0
1 0.0150754 0
1 0.0201005 0
1 0.0251256 0
1 0.0301508 0
1 0.0351759 0
1 0.040201 0
1 0.0452261 0
1 0.0502513 0
1 0.0552764 0
1 0.0603015 0
1 0.0653266 0
1 0.0703518 0
1 0.0753769 0
1 0.080402 0
1 0.0854271 0
1 0.0904523 0
1 0.0954774 0
1 0.100503 0
1 0.105528 0
1 0.110553 0
1 0.115578 0
1 0.120603 0
1 0.125628 0
1 0.130653 0
1 0.135678 0
1 0.140704 0
1 0.145729 0
1 0.150754 0
1 0.155779 0
1 0.160804 0
1 0.165829 0
1 0.170854 0
1 0.175879 0
1 0.180905 0
1 0.18593 0
1 0.190955 0
1 0.19598 0
1 0.201005 0
1 0.20603 0
1 0.211055 0
1 0.21608 0
1 0.221106 0
1 0.226131 0
1 0.231156 0
1 0.236181 0
1 0.241206 0
1 0.246231 0
1 0.251256 0
1 0.256281 0
1 0.261307 0
1 0.266332 0
1 0.271357 0
1 0.276382 0
1 0.281407 0
1 0.286432 0
1 0.291457 0
1 0.296482 0
1 0.301508 0
1 0.306533 0
1 0.311558 0
1 0.316583 0
1 0.321608 0
1 0.326633 0
1 0.331658 0
1 0.336683 0
1 0.341709 0
1 0.346734 0
1 0.351759 0
1 0.356784 0
1 0.361809 0
1 0.366834 0
1 0.371859 0
1 0.376884 0
1 0.38191 0
1 0.386935 0
1 0.39196 0
1 0.396985 0
1 0.40201 0
1 0.407035 0
1 0.41206 0
1 0.417085 0
1 0.422111 0
1 0.427136 0
1 0.432161 0
1 0.437186 0
1 0.442211 0
1 0.447236 0
1 0.452261 0
1 0.457286 0
1 0.462312 0
1 0.467337 0
1 0.472362 0
1 0.477387 0
1 0.482412 0
1 0.487437 0
1 0.492462 0
1 0.497487 0
1 0.502513 0
1 0.507538 0
1 0.512563 0
1 0.517588 0
1 0.522613 0
1 0.527638 0
1 0.532663 0
1 0.537688 0
1 0.542714 0
1 0.547739 0
1 0.552764 0
1 0.557789 0
1 0.562814 0
1 0.567839 0
1 0.572864 0
1 0.577889 0
1 0.582915 0
1 0.58794 0
1 0.592965 0
1 0.59799 0
1 0.603015 0
1 0.60804 0
1 0.613065 0
1 0.61809 0
1 0.623116 0
1 0.628141 0
1 0.633166 0
1 0.638191 0
1 0.643216 0
1 0.648241 0
1 0.653266 0
1 0.658291 0
1 0.663317 0
1 0.668342 0
1 0.673367 0
1 0.678392 0
1 0.683417 0
1 0.688442 0
1 0.693467 0
1 0.698492 0
1 0.703518 0
1 0.708543 0
1 0.713568 0
1 0.718593 0
1 0.723618 0
1 0.728643 0
1 0.733668 0
1 0.738693 0
1 0.743719 0
1 0.748744 0
1 0.753769 0
1 0.758794 0
1 0.763819 0
1 0.768844 0
1 0.773869 0
1 0.778894 0
1 0.78392 0
1 0.788945 0
1 0.79397 0
1 0.798995 0
1 0.80402 0
1 0.809045 0
1 0.81407 0
1 0.819095 0
1 0.824121 0
1 0.829146 0
1 0.834171 0
1 0.839196 0
1 0.844221 0
1 0.849246 0
1 0.854271 0
1 0.859296 0
1 0.864322 0
1 0.869347 0
1 0.874372 0
1 0.879397 0
1 0.884422 0
1 0.889447 0
1 0.894472 0
1 0.899497 0
1 0.904523 0
1 0.909548 0
1 0.914573 0
1 0.919598 0
1 0.924623 0
1 0.929648 0
1 0.934673 0
1 0.939698 0
1 0.944724 0
1 0.949749 0
1 0.954774 0
1 0.959799 0
1 0.964824 0
1 0.969849 0
1 0.974874 0
1 0.979899 0
1 0.984925 0
1 0.98995 0
1 0.994975 0
0.994975 1 0
0.98995 1 0
0.984925 1 0
0.979899 1 0
0.974874 1 0
0.969849 1 0
0.964824 1 0
0.959799 1 0
0.954774 1 0
0.949749 1 0
0.944724 1 0
0.939698 1 0
0.934673 1 0
0.929648 1 0
0.924623 1 0
0.919598 1 0
0.914573 1 0
0.909548 1 0
0.904523 1 0
0.899497 1 0
0.894472 1 0
0.889447 1 0
0.884422 1 0
0.879397 1 0
0.874372 1 0
0.869347 1 0
0.864322 1 0
0.859296 1 0
0.854271 1 0
0.849246 1 0
0.844221 1 0
0.839196 1 0
0.834171 1 0
0.829146 1 0
0.824121 1 0
0.819095 1 0
0.81407 1 0
0.809045 1 0
0.80402 1 0
0.798995 1 0
0.79397 1 0
0.788945 1 0
0.78392 1 0
0.778894 1 0
0.773869 1 0
0.768844 1 0
0.763819 1 0
0.758794 1 0
0.753769 1 0
0.748744 1 0
0.743719 1 0
0.738693 1 0
0.733668 1 0
0.728643 1 0
0.723618 1 0
0.718593 1 0
0.713568 1 0
0.708543 1 0
0.703518 1 0
0.698492 1 0
0.693467 1 0
0.688442 1 0
0.683417 1 0
0.678392 1 0
0.673367 1 0
0.668342 1 0
0.663317 1 0
0.658291 1 0
0.653266 1 0
0.648241 1 0
0.643216 1 0
0.638191 1 0
0.633166 1 0
0.628141 1 0
0.623116 1 0
0.61809 1 0
0.613065 1 0
0.60804 1 0
0.603015 1 0
0.59799 1 0
0.592965 1 0
0.58794 1 0
0.582915 1 0
0.577889 1 0
0.572864 1 0
0.567839 1 0
0.562814 1 0
0.557789 1 0
0.552764 1 0
0.547739 1 0
0.542714 1 0
0.537688 1 0
0.532663 1 0
0.527638 1 0
0.522613 1 0
0.517588 1 0
0.512563 1 0
0.507538 1 0
0.502513 1 0
0.497487 1 0
0.492462 1 0
0.487437 1 0
0.482412 1 0
0.477387 1 0
0.472362 1 0
0.467337 1 0
0.462312 1 0
0.457286 1 0
0.452261 1 0
0.447236 1 0
0.442211 1 0
0.437186 1 0
0.432161 1 0
0.427136 1 0
0.422111 1 0
0.417085 1 0
0.41206 1 0
0.407035 1 0
0.40201 1 0
0.396985 1 0
0.39196 1 0
0.386935 1 0
0.38191 1 0
0.376884 1 0
0.371859 1 0
0.366834 1 0
0.361809 1 0
0.356784 1 0
0.351759 1 0
0.346734 1 0
0.341709 1 0
0.336683 1 0
0.331658 1 0
0.326633 1 0
0.321608 1 0
0.316583 1 0
0.311558 1 0
0.306533 1 0
0.301508 1 0
0.296482 1 0
0.291457 1 0
0.286432 1 0
0.281407 1 0
0.276382 1 0
0.271357 1 0
0.266332 1 0
0.261307 1 0
0.256281 1 0
0.251256 1 0
0.246231 1 0
0.241206 1 0
0.236181 1 0
0.231156 1 0
0.226131 1 0
0.221106 1 0
0.21608 1 0
0.211055 1 0
0.20603 1 0
0.201005 1 0
0.19598 1 0
0.190955 1 0
0.18593 1 0
0.180905 1 0
0.175879 1 0
0.170854 1 0
0.165829 1 0
0.160804 1 0
0.155779 1 0
0.150754 1 0
0.145729 1 0
0.140704 1 0
0.135678 1 0
0.130653 1 0
0.125628 1 0
0.120603 1 0
0.115578 1 0
0.110553 1 0
0.105528 1 0
0.100503 1 0
0.0954774 1 0
0.0904523 1 0
0.0854271 1 0
0.080402 1 0
0.0753769 1 0
0.0703518 1 0
0.0653266 1 0
0.0603015 1 0
0.0552764 1 0
0.0502513 1 0
0.0452261 1 0
0.040201 1 0
0.0351759 1 0
0.0301508 1 0
0.0251256 1 0
0.0201005 1 0
0.0150754 1 0
0.0100503 1 0
0.00502513 1 0
0 0.994975 0
0 0.98995 0
0 0.984925 0
0 0.979899 0
0 0.974874 0
0 0.969849 0
0 0.964824 0
0 0.959799 0
0 0.954774 0
0 0.949749 0
0 0.944724 0
0 0.939698 0
0 0.934673 0
0 0.929648 0
0 0.924623 0
0 0.919598 0
0 0.914573 0
0 0.909548 0
0 0.904523 0
0 0.899497 0
0 0.894472 0
0 0.889447 0
0 0.884422 0
0 0.879397 0
0 0.874372 0
0 0.869347 0
0 0.864322 0
0 0.859296 0
0 0.854271 0
0 0.849246 0
0 0.844221 0
0 0.839196 0
0 0.834171 0
0 0.829146 0
0 0.824121 0
0 0.819095 0
0 0.81407 0
0 0.809045 0
0 0.80402 0
0 0.798995 0
0 0.79397 0
0 0.788945 0
0 0.78392 0
0 0.778894 0
0 0.773869 0
0 0.768844 0
0 0.763819 0
0 0.758794 0
0 0.753769 0
0 0.748744 0
0 0.743719 0
0 0.738693 0
0 0.733668 0
0 0.728643 0
0 0.723618 0
0 0.718593 0
0 0.713568 0
0 0.708543 0
0 0.703518 0
0 0.698492 0
0 0.693467 0
0 0.688442 0
0 0.683417 0
0 0.678392 0
0 0.673367 0
0 0.668342 0
0 0.663317 0
0 0.658291 0
0 0.653266 0
0 0.648241 0
0 0.643216 0
0 0.638191 0
0 0.633166 0
0 0.628141 0
0 0.623116 0
0 0.61809 0
0 0.613065 0
0 0.60804 0
0 0.603015 0
0 0.59799 0
0 0.592965 0
0 0.58794 0
0 0.582915 0
0 0.577889 0
0 0.572864 0
0 0.567839 0
0 0.562814 0
0 0.557789 0
0 0.552764 0
0 0.547739 0
0 0.542714 0
0 0.537688 0
0 0.532663 0
0 0.527638 0
0 0.522613 0
0 0.517588 0
0 0.512563 0
0 0.507538 0
0 0.502513 0
0 0.497487 0
0 0.492462 0
0 0.487437 0
0 0.482412 0
0 0.477387 0
0 0.472362 0
0 0.467337 0
0 0.462312 0
0 0.457286 0
0 0.452261 0
0 0.447236 0
0 0.442211 0
0 0.437186 0
0 0.432161 0
0 0.427136 0
0 0.422111 0
0 0.417085 0
0 0.41206 0
0 0.407035 0
0 0.40201 0
0 0.396985 0
0 0.39196 0
0 0.386935 0
0 0.38191 0
0 0.376884 0
0 0.371859 0
0 0.366834 0
0 0.361809 0
0 0.356784 0
0 0.351759 0
0 0.346734 0
0 0.341709 0
0 0.336683 0
0 0.331658 0
0 0.326633 0
0 0.321608 0
0 0.316583 0
0 0.311558 0
0 0.306533 0
0 0.301508 0
0 0.296482 0
0 0.291457 0
0 0.286432 0
0 0.281407 0
0 0.276382 0
0 0.271357 0
0 0.266332 0
0 0.261307 0
0 0.256281 0
0 0.251256 0
0 0.246231 0
0 0.241206 0
0 0.236181 0
0 0.231156 0
0 0.226131 0
0 0.221106 0
0 0.21608 0
0 0.211055 0
0 0.20603 0
0 0.201005 0
0 0.19598 0
0 0.190955 0
0 0.18593 0
0 0.180905 0
0 0.175879 0
0 0.170854 0
[...]
CELL_DATA 79202
SCALARS Temperatura double 1
LOOKUP_TABLE default
0.000187606
0.000932276
0.000977011
0.00259317
0.00180452
0.00423721
0.00262359
0.00586441
0.00343421
0.00747474
0.00423637
0.00906821
0.00503008
0.0106448
0.00581534
0.0122046
0.00659214
0.0137474
0.00736048
0.0152735
0.00812037
0.0167826
0.0088718
0.0182749
0.00961478
0.0197503
0.0103493
0.0212088
0.0110754
0.0226505
0.011793
0.0240753
0.0125021
0.0254832
0.0132028
0.0268742
0.013895
0.0282484
0.0145788
0.0296057
0.0152541
0.0309462
0.0159209
0.0322697
0.0165793
0.0335764
0.0172293
0.0348662
0.0178707
0.0361392
0.0185038
0.0373953
0.0191283
0.0386345
0.0197444
0.0398568
0.0203521
0.0410623
0.0209513
0.0422509
0.021542
0.0434226
0.0221242
0.0445775
0.0226981
0.0457154
0.0232634
0.0468365
0.0238203
0.0479408
0.0243687
0.0490281
0.0249087
0.0500986
0.0254402
0.0511522
0.0259633
0.052189
0.0264779
0.0532089
0.026984
0.0542118
0.0274817
0.055198
0.0279709
0.0561672
0.0284517
0.0571196
0.028924
0.0580551
0.0293878
0.0589738
0.0298432
0.0598755
0.0302901
0.0607604
0.0307286
0.0616284
0.0311586
0.0624796
0.0315801
0.0633138
0.0319932
0.0641312
0.0323978
0.0649318
0.032794
0.0657154
0.0331817
0.0664822
0.033561
0.0672321
0.0339318
0.0679651
0.0342941
0.0686813
0.034648
0.0693806
0.0349934
0.070063
0.0353304
0.0707286
0.0356588
0.0713772
0.0359789
0.072009
0.0362905
0.0726239
0.0365936
0.073222
0.0368882
0.0738032
0.0371744
0.0743675
0.0374522
0.0749149
0.0377215
0.0754455
0.0379823
0.0759592
0.0382347
0.076456
0.0384786
0.0769359
0.038714
0.077399
0.038941
0.0778452
0.0391595
0.0782745
0.0393696
0.0786869
0.0395712
0.0790825
0.0397644
0.0794612
0.0399491
0.0798231
0.0401253
0.080168
0.0402931
0.0804961
0.0404524
0.0808073
0.0406032
0.0811016
0.0407456
0.0813791
0.0408796
0.0816397
0.041005
0.0818834
0.041122
0.0821103
0.0412306
0.0823202
0.0413307
0.0825133
0.0414223
0.0826896
0.0415055
0.0828489
0.0415802
0.0829914
0.0416465
0.083117
0.0417043
0.0832257
0.0417537
0.0833176
0.0417945
0.0833926
0.041827
0.0834507
0.0418509
0.0834919
0.0418664
0.0835163
0.0418735
0.0835238
0.0418721
0.0835144
0.0418622
0.0834881
0.0418439
0.083445
0.0418171
0.083385
0.0417818
0.0833081
0.0417381
0.0832144
0.041686
0.0831038
0.0416253
0.0829763
0.0415562
0.0828319
0.0414787
0.0826707
0.0413927
0.0824926
0.0412982
0.0822976
0.0411953
0.0820857
0.0410839
0.081857
0.0409641
0.0816114
0.0408358
0.0813489
0.040699
0.0810696
0.0405538
0.0807734
0.0404001
0.0804603
0.040238
0.0801303
0.0400674
0.0797834
0.0398883
0.0794197
0.0397008
0.0790391
0.0395048
0.0786417
0.0393004
0.0782273
0.0390875
0.0777961
0.0388662
0.0773481
0.0386364
0.0768831
0.0383981
0.0764013
0.0381514
0.0759026
0.0378962
0.075387
0.0376325
0.0748546
0.0373604
0.0743052
0.0370798
0.0737391
0.0367908
0.073156
0.0364933
0.072556
0.0361874
0.0719392
0.035873
0.0713056
0.0355501
0.070655
0.0352188
0.0699876
0.034879
0.0693033
0.0345308
0.0686021
0.0341741
0.067884
0.0338089
0.0671491
0.0334353
0.0663973
0.0330532
0.0656287
0.0326627
0.0648431
0.0322637
0.0640407
0.0318563
0.0632214
0.0314403
0.0623853
0.031016
0.0615322
0.0305831
0.0606623
0.0301419
0.0597756
0.0296921
0.0588719
0.0292339
0.0579514
0.0287672
0.057014
0.0282921
0.0560597
0.0278085
0.0550886
0.0273165
0.0541006
0.026816
0.0530957
0.026307
0.0520739
0.0257896
0.0510353
0.0252637
0.0499798
0.0247294
0.0489074
0.0241866
0.0478182
0.0236353
0.0467121
0.0230756
0.0455891
0.0225074
0.0444492
0.0219308
0.0432925
0.0213457
0.0421189
0.0207522
0.0409284
0.0201502
0.039721
0.0195397
0.0384968
0.0189208
0.0372557
0.0182934
0.0359977
0.0176575
0.0347229
0.0170132
0.0334312
0.0163605
0.0321226
0.0156993
0.0307972
0.0150296
0.0294548
0.0143515
0.0280956
0.0136649
0.0267196
0.0129698
0.0253266
0.0122663
0.0239168
0.0115543
0.0224901
0.0108339
0.0210466
0.010105
0.0195862
0.00936767
0.0181089
0.00862187
0.0166147
0.00786761
0.0151036
0.00710488
0.0135757
0.0063337
0.0120309
0.00555404
0.0104692
0.00476589
0.00889053
0.00396921
0.0072948
0.00316386
0.00568163
0.0023493
0.00404951
0.00152316
0.00239162
0.00067357
0.00067357
0.000977011
0.00259317
0.00424954
0.00672006
0.00753482
0.010805
0.0107865
0.0148481
0.0140046
0.0188492
0.0171891
0.0228084
0.02034
0.0267257
0.0234573
0.030601
0.026541
0.0344345
0.0295911
0.0382259
0.0326076
0.0419754
0.0355904
0.045683
0.0385397
0.0493487
0.0414553
0.0529724
0.0443373
0.0565541
0.0471857
0.0600939
0.0500005
0.0635918
0.0527817
0.0670477
0.0555292
0.0704616
0.0582431
0.0738336
0.0609234
0.0771637
0.0635701
0.0804518
0.0661832
0.083698
0.0687627
0.0869022
0.0713085
0.0900645
0.0738207
0.0931848
0.0762993
0.0962631
0.0787443
0.0992996
0.0811557
0.102294
0.0835334
0.105247
0.0858776
0.108157
0.0881881
0.111026
0.090465
0.113852
0.0927082
0.116637
0.0949179
0.11938
0.0970939
0.122081
0.0992363
0.12474
0.101345
0.127356
0.10342
0.129931
0.105462
0.132464
0.10747
0.134955
0.109444
0.137405
0.111385
0.139812
0.113292
0.142177
0.115165
0.1445
0.117005
0.146781
0.118811
0.149021
0.120584
0.151218
0.122323
0.153374
0.124028
0.155487
0.1257
0.157559
0.127338
0.159588
0.128942
0.161576
0.130513
0.163522
0.132051
0.165425
0.133554
0.167287
0.135024
0.169107
0.136461
0.170885
0.137863
0.172621
0.139232
0.174315
0.140568
0.175967
0.14187
0.177577
0.143138
0.179145
0.144373
0.180671
0.145574
0.182155
0.146741
0.183597
0.147875
0.184998
0.148975
0.186356
0.150042
0.187672
0.151075
0.188947
0.152074
0.190179
0.15304
0.19137
0.153972
0.192518
0.15487
0.193625
0.155735
0.19469
0.156566
0.195712
0.157364
0.196693
0.158128
0.197632
0.158858
0.198529
0.159555
0.199384
0.160218
0.200197
0.160847
0.200968
0.161443
0.201697
0.162005
0.202384
0.162534
0.203029
0.163029
0.203632
0.16349
0.204193
0.163918
0.204713
0.164312
0.20519
0.164673
0.205625
0.164999
0.206019
0.165293
0.20637
0.165552
0.20668
0.165778
0.206947
0.165971
0.207173
0.166129
0.207356
0.166255
0.207498
0.166346
0.207598
0.166404
0.207656
0.166428
0.207671
0.166419
0.207645
0.166376
0.207577
0.166299
0.207467
0.166189
0.207315
0.166045
0.207121
0.165868
0.206885
0.165657
0.206608
0.165412
0.206288
0.165134
0.205926
0.164822
0.205522
0.164476
0.205077
0.164097
0.204589
0.163684
0.20406
0.163238
0.203488
0.162758
0.202875
0.162244
0.202219
0.161697
0.201522
0.161116
0.200783
0.160501
0.200001
0.159853
0.199178
0.159171
0.198313
0.158456
0.197406
0.157707
0.196457
0.156924
0.195466
0.156108
0.194433
0.155258
0.193358
0.154375
0.192241
0.153458
0.191082
0.152507
0.189881
0.151522
0.188638
0.150504
0.187354
0.149453
0.186027
0.148368
0.184658
0.147249
0.183248
0.146096
0.181795
0.14491
0.180301
0.14369
0.178764
0.142437
0.177186
0.14115
0.175566
0.13983
0.173903
0.138475
0.172199
0.137088
0.170453
0.135666
0.168665
0.134211
0.166835
0.132722
0.164963
0.1312
0.163049
0.129644
0.161093
0.128055
0.159095
0.126431
0.157055
0.124775
0.154973
0.123084
0.152849
0.12136
0.150683
0.119602
0.148476
0.117811
0.146226
0.115986
0.143935
0.114128
0.141601
0.112236
0.139226
0.11031
0.136808
0.108351
0.134349
0.106358
0.131847
0.104331
0.129304
0.102271
0.126719
0.100177
0.124092
0.0980493
0.121423
0.0958882
0.118711
0.0936935
0.115958
0.0914652
0.113163
0.0892032
0.110326
0.0869076
0.107448
0.0845784
0.104527
0.0822156
0.101564
0.0798192
0.0985592
0.0773891
0.0955125
0.0749254
0.0924238
0.0724281
0.0892932
0.0698972
0.0861207
0.0673327
0.0829062
0.0647345
0.0796497
0.0621028
0.0763513
0.0594374
0.073011
0.0567384
0.0696287
0.0540057
0.0662044
0.0512395
0.0627383
0.0484396
0.0592301
0.0456062
0.05568
0.0427391
0.052088
0.0398384
0.048454
0.036904
0.0447781
0.0339361
0.0410602
0.0309345
0.0373003
0.0278993
0.0334985
0.0248304
0.0296547
0.0217279
0.0257689
0.0185917
0.021841
0.0154217
0.0178709
0.0122175
0.0138582
0.00897848
0.00980221
0.00570265
0.00570265
0.00239162
0.00152316
0.00180452
0.00423721
0.00753482
0.010805
0.0132528
0.0173061
0.0189123
0.0237405
0.0245133
0.0301081
0.0300558
0.036409
0.0355398
0.0426431
0.0409653
0.0488105
0.0463323
0.0549112
0.0516407
0.060945
0.0568907
0.0669122
0.0620821
0.0728125
0.0672151
0.0786461
0.0722895
0.0844129
0.0773054
0.090113
0.0822627
0.0957463
0.0871616
0.101313
0.0920019
0.106813
0.0967837
0.112246
0.101507
0.117612
0.106172
0.122911
0.110778
0.128144
0.115326
0.13331
0.119815
0.138409
0.124245
0.143441
0.128618
0.148407
0.132931
0.153306
0.137186
0.158138
0.141383
0.162903
0.145521
0.167602
0.1496
0.172233
0.153621
0.176798
0.157584
0.181296
0.161488
0.185728
0.165333
0.190092
0.16912
0.19439
0.172848
0.198621
0.176518
0.202786
0.180129
0.206883
0.183682
0.210914
0.187176
0.214878
0.190612
0.218775
0.193989
0.222606
0.197307
0.226369
0.200568
0.230066
0.203769
0.233696
0.206912
0.23726
0.209997
0.240756
0.213023
0.244186
0.21599
0.247549
0.218899
0.250845
0.221749
0.254074
0.224541
0.257237
0.227274
0.260333
0.229949
0.263362
0.232565
0.266324
0.235123
0.26922
0.237622
0.272049
0.240063
0.274811
0.242445
0.277506
0.244769
0.280134
0.247034
0.282696
0.24924
0.285191
0.251388
0.287619
0.253478
0.28998
0.255509
0.292275
0.257481
0.294503
0.259395
0.296664
0.26125
0.298758
0.263047
0.300785
0.264785
0.302746
0.266465
0.30464
0.268086
0.306467
0.269649
0.308227
0.271153
0.309921
0.272599
0.311548
0.273986
0.313108
0.275314
0.314601
0.276584
0.316027
0.277796
0.317387
0.278949
0.31868
0.280043
0.319906
0.281079
0.321065
0.282057
0.322158
0.282975
0.323184
0.283836
0.324143
0.284638
0.325035
0.285381
0.32586
0.286065
0.326619
0.286692
0.327311
0.287259
0.327936
0.287768
0.328494
0.288219
0.328986
0.288611
0.32941
0.288945
0.329768
0.28922
0.33006
0.289436
0.330284
0.289594
0.330442
0.289693
0.330533
0.289734
0.330557
0.289717
0.330514
0.28964
0.330404
0.289506
0.330228
0.289312
0.329985
0.289061
0.329675
0.28875
0.329299
0.288381
0.328855
0.287954
0.328345
0.287468
0.327768
0.286924
0.327125
0.286321
0.326414
0.285659
0.325637
0.284939
0.324793
0.28416
0.323882
0.283323
0.322905
0.282428
0.32186
0.281474
0.320749
0.280461
0.319571
0.27939
0.318326
0.27826
0.317015
0.277072
0.315637
0.275825
0.314192
0.274519
0.31268
0.273155
0.311101
0.271733
0.309456
0.270252
0.307744
0.268713
0.305965
0.267115
0.304119
0.265458
0.302207
0.263743
0.300227
0.261969
0.298181
0.260137
0.296069
0.258246
0.293889
0.256297
0.291643
0.25429
0.28933
0.252223
0.28695
0.250098
0.284503
0.247915
0.281989
0.245673
0.279409
0.243373
0.276762
0.241014
0.274048
0.238596
0.271268
0.23612
0.26842
0.233586
0.265506
0.230993
0.262525
0.228341
0.259478
0.225631
0.256363
0.222863
0.253182
0.220035
0.249934
0.21715
0.246619
0.214205
0.243237
0.211203
0.239789
0.208141
0.236274
0.205022
0.232692
0.201843
0.229043
0.198606
0.225328
0.195311
0.221546
0.191957
0.217697
0.188544
0.213781
0.185073
0.209798
0.181544
0.205749
0.177956
0.201633
0.174309
0.19745
0.170604
0.1932
0.166841
0.188884
0.163018
0.184501
0.159138
0.180051
0.155198
0.175534
0.151201
0.17095
0.147144
0.1663
0.14303
0.161583
0.138856
0.156799
0.134624
0.151948
0.130334
0.147031
0.125985
0.142047
0.121578
0.136996
0.117112
0.131878
0.112587
0.126693
0.108004
0.121442
0.103362
0.116124
0.0986623
0.110739
0.0939037
0.105288
0.0890866
0.0997694
0.0842109
0.0941842
0.0792767
0.0885323
0.074284
0.0828137
0.0692328
0.0770282
0.064123
0.071176
0.0589547
0.065257
0.0537279
0.0592712
0.0484425
0.0532186
0.0430986
0.0470993
0.0376961
0.0409131
0.032235
0.03466
0.0267152
0.02834
0.0211365
0.0219529
0.0154989
0.0154989
0.00980221
0.00897848
0.00404951
0.0023493
0.00262359
0.00586441
0.0107865
0.0148481
0.0189123
0.0237405
0.0269549
0.0325416
0.0349144
0.0412514
0.0427908
0.0498699
0.050584
0.0583971
0.058294
0.066833
0.0659209
0.0751776
0.0734647
0.0834308
0.0809253
0.0915928
0.0883027
0.0996634
0.095597
0.107643
0.102808
0.115531
0.109936
0.123327
0.116981
0.131033
0.123942
0.138646
0.130821
0.146169
0.137616
0.1536
0.144328
0.16094
0.150957
0.168189
0.157502
0.175346
0.163965
0.182412
0.170344
0.189387
0.17664
0.19627
0.182853
0.203062
0.188983
0.209762
0.19503
0.216372
0.200993
0.22289
0.206874
0.229316
0.212671
0.235651
0.218385
0.241895
0.224015
0.248048
0.229563
0.254109
0.235027
0.260079
0.240408
0.265957
0.245706
0.271744
0.250921
0.27744
0.256053
0.283045
0.261101
0.288558
0.266066
0.293979
0.270948
0.29931
0.275747
0.304549
0.280463
0.309697
0.285095
0.314753
0.289645
0.319718
0.294111
0.324592
0.298494
0.329374
0.302794
0.334065
0.30701
0.338665
0.311144
0.343173
0.315194
0.34759
0.319161
0.351916
0.323045
0.35615
0.326845
0.360293
0.330563
0.364344
0.334197
0.368305
0.337748
0.372173
0.341216
0.375951
0.344601
0.379637
0.347903
0.383232
0.351121
0.386736
0.354256
0.390148
0.357308
0.393468
0.360277
0.396698
0.363162
0.399836
0.365965
0.402883
0.368684
0.405838
0.37132
0.408702
0.373873
0.411475
0.376343
0.414156
0.378729
0.416746
0.381033
0.419245
0.383253
0.421652
0.38539
0.423968
0.387443
0.426193
0.389414
0.428326
0.391301
0.430368
0.393106
0.432319
0.394827
0.434178
0.396464
0.435946
0.398019
0.437622
0.399491
0.439207
0.400879
0.440701
0.402184
0.442104
0.403406
0.443415
0.404545
0.444635
0.4056
0.445763
0.406572
0.4468
0.407462
0.447746
0.408267
0.4486
0.40899
0.449363
0.40963
0.450035
0.410186
0.450616
0.410659
0.451105
0.411049
0.451502
0.411356
0.451808
0.41158
0.452023
0.41172
0.452147
0.411778
0.452179
0.411752
0.45212
0.411643
0.45197
0.41145
0.451728
0.411175
0.451395
0.410816
0.45097
0.410375
0.450455
0.409849
0.449847
0.409241
0.449149
0.40855
0.448359
0.407775
0.447478
0.406918
0.446505
0.405977
0.445441
0.404952
0.444286
0.403845
0.443039
0.402655
0.441701
0.401381
0.440272
0.400024
0.438751
0.398584
0.437139
0.397061
0.435436
0.395454
0.433641
0.393765
0.431755
0.391992
0.429778
0.390136
0.427709
0.388196
0.425549
0.386174
0.423298
0.384069
0.420955
0.38188
0.418521
0.379608
0.415995
0.377253
0.413378
0.374814
0.41067
0.372293
0.407871
0.369688
0.40498
0.367
0.401998
0.364229
0.398924
0.361375
0.395759
0.358438
0.392503
0.355417
0.389155
0.352313
0.385716
0.349126
0.382186
0.345856
0.378564
0.342503
0.374851
0.339066
0.371047
0.335546
0.367151
0.331943
0.363164
0.328257
0.359086
0.324488
0.354916
0.320636
0.350655
0.3167
0.346302
0.312681
0.341859
0.308579
0.337324
0.304394
0.332697
0.300125
0.327979
0.295774
0.32317
0.291339
0.31827
0.286821
0.313278
0.28222
0.308195
0.277536
0.30302
0.272768
0.297754
0.267917
0.292397
0.262984
0.286948
0.257966
0.281408
0.252866
0.275777
0.247683
0.270054
0.242416
0.26424
0.237066
0.258335
0.231633
0.252338
0.226117
0.246251
0.220518
0.240071
0.214835
0.2338
0.20907
0.227438
0.203221
0.220985
0.197289
0.21444
0.191274
0.207804
0.185175
0.201077
0.178994
0.194258
0.172729
0.187348
0.166381
0.180347
0.15995
0.173254
0.153435
0.16607
0.146838
0.158794
0.140157
0.151428
0.133393
0.14397
0.126546
0.13642
0.119616
0.128779
0.112603
0.121047
0.105506
0.113224
0.0983263
0.105309
0.0910634
0.0973028
0.0837173
0.0892053
0.076288
0.0810165
0.0687755
0.0727363
0.0611799
0.0643648
0.053501
0.0559019
0.0457389
0.0473476
0.0378935
0.0387019
0.0299648
0.0299648
0.0219529
0.0211365
0.0138582
0.0122175
0.00568163
0.00316386
0.00343421
0.00747474
0.0140046
0.0188492
0.0245133
0.0301081
0.0349144
0.0412514
0.045208
0.0522791
0.0553941
0.0631912
0.0654726
0.0739876
0.0754436
0.0846685
0.0853071
0.0952337
0.095063
0.105683
0.104711
0.116017
0.114252
0.126236
0.123685
0.136338
0.133011
0.146325
0.142229
0.156197
0.15134
0.165953
0.160343
0.175593
0.169238
0.185117
0.178026
0.194526
0.186706
0.203819
0.195279
0.212997
0.203744
0.222059
0.212101
0.231005
0.220351
0.239835
0.228494
0.24855
0.236528
0.25715
0.244456
0.265633
0.252275
0.274001
0.259987
0.282253
0.267592
0.29039
0.275089
0.298411
0.282478
0.306316
0.28976
0.314106
0.296934
0.32178
0.304
0.329338
0.310959
0.336781
0.317811
0.344108
0.324555
0.35132
0.331191
0.358415
0.337719
0.365395
0.344141
0.37226
0.350454
0.379009
0.35666
0.385642
0.362758
0.392159
0.368749
0.398561
0.374632
0.404847
0.380408
0.411017
0.386076
0.417072
0.391636
0.423011
0.397089
0.428835
0.402434
0.434543
0.407672
0.440135
0.412802
0.445611
0.417824
0.450972
0.422739
0.456217
0.427547
0.461347
0.432246
0.466361
0.436839
0.471259
0.441323
0.476041
0.4457
0.480708
0.44997
0.48526
0.454131
0.489695
0.458186
0.494015
0.462132
0.498219
0.465971
0.502308
0.469703
0.506281
0.473327
0.510138
0.476843
0.513879
0.480252
0.517505
0.483553
0.521016
0.486746
0.52441
0.489832
0.527689
0.492811
0.530852
0.495681
0.5339
0.498445
0.536832
0.5011
0.539648
0.503648
0.542349
0.506089
0.544934
0.508421
0.547403
0.510647
0.549757
0.512764
0.551994
0.514774
0.554117
0.516677
0.556123
0.518472
0.558014
0.520159
0.55979
0.521739
0.561449
0.523211
0.562993
0.524576
0.564422
0.525833
0.565734
0.526982
0.566931
0.528024
0.568012
0.528958
0.568978
0.529785
0.569828
0.530504
0.570562
0.531115
0.571181
0.531619
0.571684
0.532015
0.572071
0.532304
0.572343
0.532485
0.572499
0.532559
0.57254
0.532525
0.572464
0.532383
0.572273
0.532134
0.571967
0.531777
0.571544
0.531313
0.571006
0.530741
0.570353
0.530061
0.569583
0.529274
0.568698
0.528379
0.567698
0.527377
0.566582
0.526267
0.56535
0.525049
0.564002
0.523724
0.562539
0.522292
0.56096
0.520751
0.559265
0.519103
0.557455
0.517348
0.555529
0.515485
0.553487
0.513514
0.55133
0.511436
0.549057
0.50925
0.546669
0.506957
0.544164
0.504556
0.541544
0.502047
0.538809
0.499431
0.535958
0.496708
0.532991
0.493876
0.529908
0.490937
0.52671
0.487891
0.523396
0.484737
0.519967
0.481475
0.516421
0.478106
0.51276
0.474629
0.508984
0.471045
0.505092
0.467353
0.501084
0.463553
0.49696
0.459646
0.492721
0.455631
0.488366
0.451509
0.483896
0.447279
0.47931
0.442941
0.474608
0.438496
0.46979
0.433944
0.464857
0.429283
0.459808
0.424516
0.454644
0.41964
0.449364
0.414657
0.443968
0.409566
0.438456
0.404368
0.432829
0.399063
0.427087
0.393649
0.421228
0.388128
0.415254
0.3825
0.409164
0.376764
0.402959
0.37092
0.396638
0.364969
0.390201
0.35891
0.383649
0.352743
0.376981
0.346469
0.370197
0.340088
0.363297
0.333598
0.356282
0.327002
0.349152
0.320297
0.341905
0.313485
0.334543
0.306566
0.327066
0.299539
0.319472
0.292404
0.311763
0.285162
0.303939
0.277812
0.295998
0.270355
0.287942
0.26279
0.279771
0.255117
0.271484
0.247337
0.263081
0.239449
0.254562
0.231454
0.245928
0.223351
0.237178
0.21514
0.228312
0.206822
0.219331
0.198397
0.210234
0.189863
0.201022
0.181223
0.191694
0.172474
0.18225
0.163618
0.17269
0.154655
0.163015
0.145584
0.153225
0.136405
0.143318
0.127119
0.133296
0.117725
0.123158
0.108224
0.112905
0.0986148
0.102536
0.0888983
0.0920515
0.0790742
0.0814511
0.0691425
0.0707352
0.0591032
0.0599036
0.0489563
0.0489563
0.0387019
0.0378935
0.02834
0.0267152
0.0178709
0.0154217
0.0072948
0.00396921
0.00423637
0.00906821
0.0171891
0.0228084
0.0300558
0.036409
0.0427908
0.0498699
0.0553941
0.0631912
0.0678657
0.0763728
0.0802057
0.0894147
0.092414
0.102317
0.104491
0.11508
0.116436
0.127702
0.128249
0.140186
0.13993
0.152529
0.15148
0.164733
0.162898
0.176797
0.174185
0.188722
0.185339
0.200506
0.196362
0.212151
0.207254
0.223657
0.218013
0.235022
0.228641
0.246248
0.239137
0.257334
0.249502
0.268281
0.259734
0.279088
0.269835
0.289755
0.279805
0.300282
0.289642
0.31067
0.299348
0.320918
0.308922
0.331026
0.318365
0.340995
0.327675
0.350823
0.336854
0.360513
0.345901
0.370062
0.354817
0.379472
0.363601
0.388742
0.372253
0.397872
0.380773
0.406862
0.389162
0.415713
0.397419
0.424424
0.405544
0.432996
0.413537
0.441427
0.421399
0.449719
0.429129
0.457871
0.436727
0.465884
0.444193
0.473757
0.451528
0.48149
0.458731
0.489083
0.465803
0.496537
0.472742
0.503851
0.47955
0.511025
0.486226
0.518059
0.492771
0.524954
0.499183
0.531709
0.505464
0.538324
0.511614
0.5448
0.517631
0.551136
0.523517
0.557332
0.529271
0.563388
0.534893
0.569305
0.540384
0.575082
0.545743
0.580719
0.55097
0.586217
0.556065
0.591575
0.561029
0.596793
0.565861
0.601871
0.570561
0.60681
0.575129
0.611609
0.579566
0.616268
0.583871
0.620787
0.588044
0.625167
0.592086
0.629407
0.595996
0.633507
0.599774
0.637468
0.60342
0.641289
0.606935
0.64497
0.610318
0.648512
0.613569
0.651913
0.616688
0.655175
0.619676
0.658297
0.622532
0.66128
0.625256
0.664123
0.627849
0.666826
0.630309
0.669389
0.632639
0.671813
0.634836