# vtk DataFile Version 3.0
Malha 2D com triângulos e temperatura
ASCII
DATASET UNSTRUCTURED_GRID

POINTS 688 double
0 0 0
2.2 0 0
2.2 0.41 0
0 0.41 0
0.25 0.2 0
0.05 0 0
0.1 0 0
0.15 0 0
0.2 0 0
0.25 0 0
0.3 0 0
0.35 0 0
0.4 0 0
0.45 0 0
0.5 0 0
0.55 0 0
0.6 0 0
0.65 0 0
0.7 0 0
0.75 0 0
0.8 0 0
0.85 0 0
0.9 0 0
0.95 0 0
1 0 0
1.05 0 0
1.1 0 0
1.15 0 0
1.2 0 0
1.25 0 0
1.3 0 0
1.35 0 0
1.4 0 0
1.45 0 0
1.5 0 0
1.55 0 0
1.6 0 0
1.65 0 0
1.7 0 0
1.75 0 0
1.8 0 0
1.85 0 0
1.9 0 0
1.95 0 0
2 0 0
2.05 0 0
2.1 0 0
2.15 0 0
2.2 0.0455556 0
2.2 0.0911111 0
2.2 0.136667 0
2.2 0.182222 0
2.2 0.227778 0
2.2 0.273333 0
2.2 0.318889 0
2.2 0.364444 0
2.15 0.41 0
2.1 0.41 0
2.05 0.41 0
2 0.41 0
1.95 0.41 0
1.9 0.41 0
1.85 0.41 0
1.8 0.41 0
1.75 0.41 0
1.7 0.41 0
1.65 0.41 0
1.6 0.41 0
1.55 0.41 0
1.5 0.41 0
1.45 0.41 0
1.4 0.41 0
1.35 0.41 0
1.3 0.41 0
1.25 0.41 0
1.2 0.41 0
1.15 0.41 0
1.1 0.41 0
1.05 0.41 0
1 0.41 0
0.95 0.41 0
0.9 0.41 0
0.85 0.41 0
0.8 0.41 0
0.75 0.41 0
0.7 0.41 0
0.65 0.41 0
0.6 0.41 0
0.55 0.41 0
0.5 0.41 0
0.45 0.41 0
0.4 0.41 0
0.35 0.41 0
0.3 0.41 0
0.25 0.41 0
0.2 0.41 0
0.15 0.41 0
0.1 0.41 0
0.05 0.41 0
0 0.364444 0
0 0.318889 0
0 0.273333 0
0 0.227778 0
0 0.182222 0
0 0.136667 0
0 0.0911111 0
0 0.0455556 0
0.248831 0.210749 0
0.245379 0.220994 0
0.239805 0.230259 0
0.232369 0.238108 0
0.22342 0.244176 0
0.213376 0.248177 0
0.202707 0.249927 0
0.191911 0.249341 0
0.181493 0.246449 0
0.171941 0.241384 0
0.1637 0.234385 0
0.157157 0.225778 0
0.152617 0.215965 0
0.150293 0.205406 0
0.150293 0.194594 0
0.152617 0.184035 0
0.157157 0.174222 0
0.1637 0.165615 0
0.171941 0.158616 0
0.181493 0.153551 0
0.191911 0.150659 0
0.202707 0.150073 0
0.213376 0.151823 0
0.22342 0.155824 0
0.232369 0.161892 0
0.239805 0.169741 0
0.245379 0.179006 0
0.248831 0.189251 0
0.421316 0.36725 0
0.426705 0.0366526 0
2.16065 0.209201 0
1.52286 0.0417259 0
0.626017 0.37111 0
1.3257 0.0414552 0
1.02471 0.0432237 0
1.17293 0.0421053 0
0.82501 0.36678 0
1.6757 0.370064 0
1.91628 0.0358195 0
1.82501 0.366432 0
0.723429 0.0421499 0
1.425 0.366699 0
1.97461 0.366224 0
1.12167 0.370137 0
0.975 0.368691 0
0.877672 0.0412714 0
1.27686 0.36884 0
1.725 0.0433013 0
0.579174 0.0416211 0
0.325589 0.363848 0
0.319111 0.0378151 0
0.0394523 0.296111 0
0.0329929 0.11602 0
0.142108 0.187428 0
1.57555 0.364352 0
2.02603 0.0412138 0
0.725007 0.36763 0
0.528647 0.366595 0
1.62699 0.0400272 0
1.82929 0.0421255 0
1.425 0.0418325 0
2.07474 0.364233 0
0.125 0.0433013 0
0.161245 0.155011 0
0.225 0.366699 0
0.210027 0.258536 0
2.16034 0.115449 0
0.0371627 0.204103 0
0.142311 0.212698 0
0.220283 0.0418538 0
0.221965 0.145099 0
0.196802 0.141016 0
0.119851 0.373394 0
0.161112 0.245979 0
0.184892 0.258024 0
2.16342 0.30039 0
2.12627 0.047699 0
0.183325 0.0412617 0
0.152317 0.0762976 0
0.203864 0.0745802 0
0.234384 0.0774346 0
0.215969 0.103585 0
0.245651 0.104548 0
0.186562 0.100216 0
0.268213 0.0793029 0
0.272149 0.109155 0
0.242885 0.159377 0
0.253088 0.128261 0
0.278718 0.13214 0
0.295917 0.115997 0
0.301728 0.138858 0
0.321266 0.12205 0
0.324642 0.151724 0
0.255978 0.181139 0
0.350123 0.129049 0
0.357539 0.159885 0
0.333541 0.181416 0
0.36451 0.19182 0
0.250573 0.230419 0
0.391277 0.169722 0
0.339477 0.212308 0
0.39836 0.205386 0
0.427326 0.18117 0
0.258724 0.206387 0
0.434392 0.219501 0
0.466446 0.193907 0
0.472865 0.243064 0
0.507358 0.209962 0
0.40073 0.238916 0
0.499135 0.1652 0
0.5419 0.179224 0
0.550176 0.22496 0
0.585844 0.194129 0
0.594095 0.240176 0
0.630701 0.209517 0
0.621901 0.162424 0
0.667731 0.178095 0
0.676485 0.226008 0
0.713906 0.194492 0
0.722681 0.242872 0
0.760442 0.211047 0
0.751547 0.162356 0
0.798298 0.179 0
0.807147 0.227866 0
0.845136 0.195775 0
0.854541 0.243285 0
0.892163 0.212344 0
0.902461 0.257947 0
0.93935 0.228684 0
0.930236 0.180167 0
0.977229 0.197066 0
0.986264 0.245777 0
1.02423 0.213991 0
1.0331 0.263172 0
1.07123 0.230975 0
1.06234 0.181814 0
1.10938 0.198721 0
1.09996 0.151012 0
1.14691 0.168161 0
1.15631 0.215921 0
1.19446 0.183678 0
1.20343 0.232645 0
1.2416 0.200322 0
1.23272 0.151117 0
1.2798 0.167954 0
1.28868 0.217167 0
1.32685 0.184862 0
1.33573 0.234064 0
1.3739 0.201768 0
0.789327 0.130094 0
1.38279 0.25097 0
1.42096 0.218674 0
1.41207 0.169471 0
1.45912 0.186378 0
1.46801 0.235581 0
1.50618 0.203285 0
1.51506 0.252489 0
1.55323 0.220192 0
1.54435 0.170989 0
1.5914 0.187896 0
1.60029 0.2371 0
1.63846 0.204803 0
1.64734 0.254007 0
1.68551 0.221711 0
1.67663 0.172507 0
1.72368 0.189415 0
1.73831 0.241548 0
1.77074 0.206322 0
1.76185 0.157121 0
1.8091 0.17428 0
1.81866 0.220885 0
1.85608 0.190621 0
1.86521 0.238879 0
1.90289 0.207671 0
1.91264 0.253772 0
1.94955 0.224093 0
1.94067 0.17593 0
1.98705 0.192828 0
1.99572 0.240997 0
2.0329 0.209382 0
2.02422 0.16161 0
2.04166 0.257286 0
0.419739 0.142889 0
0.968291 0.148058 0
0.310035 0.202211 0
0.316128 0.230863 0
0.658501 0.130052 0
0.685107 0.27445 0
1.34462 0.283266 0
1.16528 0.264896 0
1.84735 0.142081 0
0.557687 0.270604 0
1.21234 0.281769 0
1.58252 0.138692 0
0.533563 0.131933 0
0.489835 0.120004 0
1.45024 0.137174 0
2.06974 0.17785 0
2.06113 0.130713 0
0.283221 0.152215 0
0.921299 0.131169 0
0.343836 0.24295 0
0.319203 0.260002 0
0.235529 0.249617 0
0.347029 0.274099 0
0.291856 0.246297 0
0.295938 0.27548 0
0.272836 0.264931 0
0.27461 0.290522 0
0.251228 0.280224 0
0.253903 0.305808 0
0.232795 0.296709 0
0.298805 0.304058 0
1.0801 0.280176 0
1.47689 0.284785 0
1.05315 0.133468 0
1.09741 0.0970974 0
1.82427 0.272867 0
1.2701 0.118911 0
0.816337 0.277695 0
1.40432 0.121101 0
1.04244 0.320388 0
0.959305 0.103028 0
1.60923 0.286151 0
0.601674 0.286775 0
2.00739 0.280923 0
0.342592 0.0992796 0
0.375237 0.105729 0
1.52511 0.298716 0
1.53114 0.119823 0
0.733824 0.287256 0
0.613372 0.114719 0
0.645558 0.0838585 0
2.015 0.115858 0
1.22718 0.0994086 0
1.39166 0.29817 0
1.3564 0.329754 0
0.744134 0.11556 0
0.782853 0.0841771 0
0.826899 0.10047 0
1.17418 0.314034 0
0.520902 0.0906676 0
1.4967 0.329429 0
1.26048 0.0740437 0
0.365514 0.0716355 0
0.229836 0.121666 0
1.57453 0.09137 0
1.61938 0.110761 0
0.481716 0.0753791 0
0.14093 0.2 0
0.130041 0.192847 0
0.131507 0.178608 0
0.117165 0.184444 0
0.120761 0.164701 0
0.1156 0.199931 0
0.100804 0.174136 0
0.102545 0.153034 0
0.12169 0.143342 0
0.104604 0.13008 0
0.0809304 0.161171 0
0.128077 0.121858 0
0.106825 0.102278 0
0.082498 0.188728 0
0.0314738 0.158621 0
2.04625 0.310891 0
2.08475 0.27479 0
2.11394 0.138117 0
0.233149 0.151108 0
0.258724 0.193613 0
0.268522 0.184917 0
1.65397 0.301059 0
0.145962 0.224912 0
0.132503 0.222267 0
0.13746 0.236947 0
0.120111 0.233525 0
0.126593 0.25219 0
0.105294 0.247497 0
0.113343 0.26868 0
0.133997 0.271734 0
0.121622 0.292031 0
0.147069 0.292141 0
0.0896563 0.267464 0
0.0813699 0.243294 0
0.163574 0.276939 0
0.172694 0.298517 0
0.1583 0.321483 0
0.186823 0.322499 0
0.173113 0.348195 0
0.0322087 0.250839 0
0.211694 0.124337 0
0.250615 0.169546 0
0.256243 0.157787 0
0.170796 0.14736 0
0.156755 0.141654 0
0.17187 0.131161 0
0.147502 0.152323 0
0.198129 0.260662 0
0.206368 0.271663 0
0.220945 0.26864 0
0.190489 0.270628 0
0.198813 0.286731 0
0.55749 0.322277 0
0.520166 0.299321 0
0.235199 0.330709 0
0.267109 0.337524 0
0.172324 0.25256 0
0.255974 0.218859 0
0.268327 0.214994 0
0.184197 0.143083 0
0.188721 0.129954 0
0.209694 0.139146 0
0.269223 0.244007 0
0.252374 0.255244 0
0.282229 0.0410487 0
1.21977 0.330016 0
1.25733 0.296346 0
2.09358 0.0890819 0
0.244373 0.240984 0
0.0838116 0.115786 0
0.0797544 0.0817835 0
0.237449 0.264854 0
0.247178 0.146225 0
0.270136 0.2 0
0.28023 0.191334 0
0.263476 0.170737 0
0.371486 0.368728 0
0.396124 0.330051 0
0.440314 0.325693 0
0.357693 0.329668 0
0.476576 0.362035 0
0.29587 0.222914 0
0.307627 0.175476 0
0.079599 0.0406461 0
0.146062 0.252571 0
0.15162 0.125025 0
0.417223 0.294608 0
0.457089 0.286958 0
0.036619 0.338729 0
0.0713014 0.322193 0
0.0735823 0.36704 0
0.041143 0.0722223 0
0.693501 0.32349 0
0.145406 0.175484 0
0.138777 0.164467 0
0.300367 0.0698839 0
0.167025 0.112083 0
0.146978 0.105544 0
0.151909 0.236762 0
0.444611 0.106436 0
0.909355 0.0817561 0
0.282901 0.370713 0
1.61474 0.330739 0
0.578053 0.368179 0
0.824695 0.0487848 0
2.09634 0.3213 0
2.02276 0.364865 0
2.12532 0.363702 0
1.09789 0.328757 0
0.161137 0.260089 0
2.07793 0.225752 0
2.12079 0.240944 0
2.0747 0.0437362 0
1.89402 0.158846 0
1.93154 0.128738 0
1.8848 0.111477 0
1.8384 0.0926484 0
1.87744 0.0655304 0
1.7913 0.0793874 0
1.9712 0.046671 0
1.92502 0.366682 0
1.94563 0.325156 0
1.89941 0.326645 0
1.87499 0.367178 0
1.84989 0.323491 0
1.7997 0.321303 0
1.77183 0.280326 0
1.75031 0.321965 0
1.77491 0.365615 0
2.11727 0.191885 0
0.883187 0.163467 0
1.71449 0.140266 0
1.667 0.125342 0
1.70591 0.0884759 0
1.67732 0.042286 0
1.52278 0.370513 0
1.37512 0.04128 0
1.34848 0.0834574 0
0.776093 0.367587 0
1.125 0.0433013 0
1.15 0.0866019 0
1.07442 0.0496847 0
0.974527 0.0370837 0
1.47464 0.0427918 0
1.44953 0.0873752 0
1.17595 0.362984 0
1.025 0.366699 0
0.925007 0.367031 0
0.95 0.323404 0
0.897321 0.326356 0
0.874563 0.367261 0
0.846552 0.324465 0
1.62923 0.156667 0
1.32319 0.13033 0
1.69342 0.270472 0
1.49568 0.156227 0
1.56237 0.268721 0
1.44 0.319169 0
1.43005 0.267892 0
1.36502 0.152565 0
0.993446 0.294003 0
1.30179 0.321101 0
1.18235 0.127964 0
1.25016 0.2491 0
1.29638 0.266841 0
1.11824 0.247967 0
1.12945 0.294699 0
1.01527 0.165035 0
0.836192 0.147197 0
1.4998 0.0831488 0
1.00655 0.118664 0
0.872896 0.117126 0
0.70523 0.146383 0
1.96013 0.276645 0
0.769406 0.257102 0
0.699552 0.0908977 0
2.1587 0.162257 0
1.97813 0.145326 0
0.646036 0.302035 0
0.799423 0.326603 0
0.515621 0.255445 0
1.72538 0.366474 0
1.97009 0.0998346 0
1.57108 0.313772 0
0.577925 0.14549 0
0.638911 0.256447 0
0.407352 0.0771641 0
0.525103 0.042511 0
0.674231 0.370698 0
1.69802 0.321701 0
0.56947 0.0908728 0
1.75459 0.110239 0
1.80084 0.126127 0
0.673535 0.0431435 0
1.57391 0.0465733 0
2.04571 0.0828469 0
0.10002 0.225545 0
0.0788152 0.21577 0
0.369719 0.224393 0
0.210352 0.308739 0
1.22342 0.0432967 0
[...]
CELL_DATA 1241
VECTORS velocity double
1.01823 -0.00414967 0.0
1.21633 0.0669096 0.0
0.460512 -0.000825352 0.0
0.95083 0.00227142 0.0
1.04091 0.00589904 0.0
1.42273 0.103007 0.0
1.13311 0.000186891 0.0
0.984861 -0.000839677 0.0
0.363493 0.0157363 0.0
1.17387 0.00164576 0.0
1.31247 -0.119986 0.0
1.31627 0.126532 0.0
0.865764 -0.160591 0.0
1.01398 0.00790325 0.0
0.98941 0.00712417 0.0
1.46616 -0.0326981 0.0
0.977896 0.00124538 0.0
0.479592 0.0603718 0.0
1.17168 0.0627565 0.0
1.64768 -0.254077 0.0
1.02356 0.00563053 0.0
1.0593 -0.0662605 0.0
1.03475 0.000160191 0.0
1.25312 0.904889 0.0
1.07126 -0.002138 0.0
1.02684 0.00375402 0.0
1.29894 -0.199365 0.0
1.0762 -0.0253339 0.0
1.32175 -0.083666 0.0
1.46225 -0.0647475 0.0
1.33199 0.0902469 0.0
0.86703 -0.037031 0.0
1.52016 0.0024501 0.0
1.01266 0.00626104 0.0
1.25577 -0.0569179 0.0
1.3588 0.15685 0.0
1.21158 -0.0557031 0.0
1.05042 -0.16783 0.0
0.359555 0.0204997 0.0
1.38209 0.141238 0.0
1.7646 -0.179652 0.0
1.4135 -0.0452919 0.0
1.05282 -0.237164 0.0
0.516421 0.007129 0.0
1.39915 -0.167125 0.0
0.510568 -0.00573737 0.0
1.20196 0.0993797 0.0
1.11386 0.0262699 0.0
1.61304 -0.313009 0.0
1.23994 -0.0106665 0.0
1.20656 0.00118594 0.0
1.29085 -0.417484 0.0
0.869792 -0.00372985 0.0
1.40808 -0.0826219 0.0
1.77534 -0.27949 0.0
1.5187 -0.0289637 0.0
1.14927 -0.0405272 0.0
1.12551 -0.00020812 0.0
1.65858 -0.0989308 0.0
1.68775 -0.199207 0.0
1.15856 0.847288 0.0
0.998475 -1.66301e-05 0.0
0.195991 0.0355418 0.0
1.02917 0.00789555 0.0
-0.240221 0.0713802 0.0
1.33192 0.22756 0.0
-0.279274 0.086441 0.0
1.16196 -0.000289783 0.0
0.86219 -0.0259893 0.0
0.218645 0.0245926 0.0
1.16285 -0.00388875 0.0
0.793706 0.0140198 0.0
1.16188 -0.0033755 0.0
0.792095 -0.0139664 0.0
1.19819 0.00768969 0.0
0.881286 0.15707 0.0
0.942621 0.00600234 0.0
1.6316 -0.0462998 0.0
0.97904 -0.0347202 0.0
0.610275 0.00107635 0.0
1.75201 -0.382917 0.0
1.15969 -0.246691 0.0
0.654678 0.0120234 0.0
1.26144 -0.227301 0.0
1.34581 0.170053 0.0
0.919338 -0.0667038 0.0
1.20747 0.178381 0.0
0.0867521 0.0987225 0.0
1.8389 0.530312 0.0
1.18468 0.00387718 0.0
1.27236 0.0100489 0.0
-0.189333 -0.0110744 0.0
-0.347864 0.0784659 0.0
1.44271 -0.0648943 0.0
1.18231 -0.0413389 0.0
0.989802 0.00123103 0.0
0.849642 -0.0260216 0.0
-0.184503 0.0906253 0.0
1.01554 -0.0103859 0.0
-0.243787 0.112936 0.0
1.08214 -0.0985566 0.0
1.15476 -0.0132209 0.0
0.947052 0.00142652 0.0
1.63936 -0.16116 0.0
1.74246 -0.670631 0.0
1.27317 -0.397893 0.0
1.07165 -0.0622416 0.0
0.498667 -0.0234821 0.0
1.78808 0.649625 0.0
1.2156 0.00345483 0.0
1.48513 -0.109557 0.0
1.23143 0.18999 0.0
0.131836 0.0758651 0.0
1.44146 -0.0270063 0.0
1.07983 0.0149533 0.0
1.44262 0.0400824 0.0
1.41381 0.00494192 0.0
1.39172 0.0527728 0.0
1.06344 -0.00135228 0.0
0.255885 0.0399966 0.0
1.19033 0.0420808 0.0
1.51968 0.581761 0.0
1.25169 0.108638 0.0
0.919878 -0.0634561 0.0
0.72732 -0.0995603 0.0
1.20521 0.0863968 0.0
1.4466 -0.0431614 0.0
1.11733 0.0249693 0.0
1.74968 0.501361 0.0
0.549905 -0.0713138 0.0
1.16136 -0.0135599 0.0
0.618518 -0.00153809 0.0
0.885802 0.0638489 0.0
1.60316 -0.0213539 0.0
1.02008 -0.153553 0.0
-0.275944 0.0745834 0.0
0.12333 0.0622546 0.0
1.22571 0.0825221 0.0
1.04818 -0.025322 0.0
1.66392 -0.761315 0.0
1.50088 0.00356979 0.0
1.03441 0.00478393 0.0
1.07835 -0.245029 0.0
1.0046 0.0070624 0.0
1.52376 0.007438 0.0
0.0229768 0.0313515 0.0
-0.25442 0.0379394 0.0
-0.182251 0.00611026 0.0
0.63938 0.0150956 0.0
0.650333 -0.0120138 0.0
0.555337 -0.101526 0.0
1.0345 -0.00717998 0.0
1.79643 -0.33251 0.0
1.04845 -0.1537 0.0
1.20282 -0.0491846 0.0
1.20456 0.0544185 0.0
0.498927 -0.000445513 0.0
1.64352 0.0736124 0.0
0.857528 0.0305603 0.0
1.24736 -0.0572623 0.0
-0.230549 0.0472115 0.0
1.7405 0.446411 0.0
1.14246 0.006596 0.0
1.22204 -0.204903 0.0
1.14186 0.0345933 0.0
1.05422 0.130234 0.0
0.985854 -0.00134754 0.0
0.987068 0.109836 0.0
0.567138 -0.00309093 0.0
1.17178 -0.0346972 0.0
0.928183 -0.0248234 0.0
1.22463 0.00391414 0.0
1.36544 0.265467 0.0
1.18998 0.0868931 0.0
1.10494 0.00462141 0.0
1.11613 0.00555956 0.0
1.18254 0.198642 0.0
1.1201 -0.287593 0.0
1.11366 0.0105031 0.0
1.166 -0.225234 0.0
1.11957 0.00823008 0.0
0.363474 0.110058 0.0
1.0877 -0.644391 0.0
0.730563 -0.127082 0.0
1.02236 -0.00764774 0.0
0.765677 -0.078979 0.0
0.762183 -0.0636524 0.0
1.02669 0.00654492 0.0
1.05545 0.0959164 0.0
0.461028 0.0470079 0.0
0.889622 -0.829933 0.0
1.77865 0.344972 0.0
1.02813 -0.00202848 0.0
0.981284 0.00731164 0.0
0.667301 0.0602114 0.0
0.853366 0.0571417 0.0
0.397732 0.0590037 0.0
1.00296 -0.0147312 0.0
1.42771 -0.0322287 0.0
1.44966 0.581408 0.0
1.15458 0.1931 0.0
1.06884 -0.0136496 0.0
1.42685 0.0383995 0.0
1.04194 -0.0925952 0.0
1.40044 -0.0917762 0.0
1.43601 -0.0446995 0.0
0.483581 0.0245229 0.0
0.660031 0.0128383 0.0
0.899203 -0.0228714 0.0
0.856952 0.0335851 0.0
0.53184 0.0169253 0.0
0.520836 -0.00256466 0.0
1.79013 0.286379 0.0
1.11131 0.00998671 0.0
1.44089 -0.0037841 0.0
1.12091 0.010658 0.0
0.73303 -0.0776403 0.0
1.51104 -0.0910185 0.0
1.17623 -0.0311631 0.0
1.15907 -0.0114556 0.0
0.833097 -0.0495825 0.0
1.67136 -0.070304 0.0
1.01005 0.0552883 0.0
0.996493 0.0115435 0.0
0.958226 -0.0262506 0.0
1.22331 0.00298283 0.0
1.43526 -0.137701 0.0
1.72988 -0.600832 0.0
1.1809 -0.00616097 0.0
1.19741 -0.0100043 0.0
0.994626 -0.00104405 0.0
1.06355 -0.132776 0.0
1.02644 -0.00931589 0.0
0.995089 -0.0059452 0.0
1.25803 0.310854 0.0
1.03831 -0.256607 0.0
1.09482 0.171914 0.0
1.31856 0.132732 0.0
0.744853 -0.106956 0.0
0.355084 -0.0454539 0.0
0.958628 0.0158863 0.0
1.43871 0.0570167 0.0
1.42206 0.91831 0.0
0.682938 -0.0851863 0.0
1.14784 -0.0157839 0.0
1.7043 0.14015 0.0
1.09695 -0.898588 0.0
0.868427 -0.17761 0.0
1.13955 -0.0379974 0.0
0.566968 -0.00783932 0.0
1.02601 0.0270129 0.0
0.552251 -0.00927873 0.0
1.0302 -0.00396247 0.0
1.21634 0.00376958 0.0
0.627756 -0.0118102 0.0
0.774461 -0.033785 0.0
1.09485 -0.285464 0.0
1.32573 -0.105045 0.0
1.21436 0.00162417 0.0
1.01797 -0.00151527 0.0
1.00598 0.00926688 0.0
0.515627 -0.00546853 0.0
1.21694 0.00612358 0.0
0.735113 -0.0262056 0.0
1.12661 0.0439165 0.0
0.999154 -0.00973974 0.0
0.573001 0.00381768 0.0
1.24103 -0.110299 0.0
1.22761 -0.17137 0.0
0.787981 -0.0267596 0.0
1.14035 -0.0657464 0.0
0.594488 0.00151363 0.0
0.983863 -0.014135 0.0
0.116829 0.067668 0.0
1.19532 0.000220346 0.0
1.19236 -0.00948082 0.0
0.604699 -0.00399563 0.0
0.942954 -0.194491 0.0
0.986882 -0.0141612 0.0
1.42979 0.154848 0.0
1.19087 0.00206243 0.0
1.2247 -0.00049215 0.0
1.22356 -0.170783 0.0
1.2265 -0.00210498 0.0
1.22484 0.00129261 0.0
1.17212 -0.017155 0.0
0.93591 -0.11482 0.0
0.835802 0.0428651 0.0
1.22704 -0.00442916 0.0
1.22335 -0.000161964 0.0
1.2194 -0.00148189 0.0
0.634859 0.0704822 0.0
0.472334 0.00515856 0.0
0.99612 0.0100649 0.0
0.555775 -0.00742386 0.0
1.22547 -0.00464691 0.0
1.00234 -0.016744 0.0
1.15726 0.0108489 0.0
-0.260967 -0.0269547 0.0
0.970888 -0.0103831 0.0
0.511378 -0.00399986 0.0
1.31897 -0.604743 0.0
1.122 -0.00753908 0.0
0.972583 -0.0146588 0.0
0.534072 -0.00965789 0.0
1.22494 -0.0024309 0.0
0.867484 0.0408427 0.0
0.54289 0.00159139 0.0
0.993701 -0.0139518 0.0
1.22588 -0.00499635 0.0
1.21858 -0.00221088 0.0
1.22285 -0.00226663 0.0
0.630552 -0.00679958 0.0
0.457028 0.000790316 0.0
1.22373 -0.00602434 0.0
1.14218 -0.0738764 0.0
1.1999 -0.00693657 0.0
0.612841 0.00984596 0.0
1.18149 -0.00797128 0.0
1.21622 -0.00447802 0.0
1.20387 0.00121979 0.0
1.22854 -0.00653725 0.0
0.47581 -0.00635043 0.0
1.2223 -0.00595004 0.0
1.22311 -0.00563643 0.0
1.21481 -0.00662063 0.0
0.466379 -0.00349514 0.0
1.20897 -0.00176501 0.0
1.17984 -0.00595184 0.0
1.19518 -0.000881822 0.0
1.22631 -0.00668667 0.0
1.17073 -0.158163 0.0
1.1278 0.00139188 0.0
1.22787 -0.00700966 0.0
1.3509 0.668507 0.0
1.21253 -0.00629219 0.0
0.519131 -0.00663207 0.0
1.09466 -0.0223844 0.0
0.573747 0.00801408 0.0
0.591282 -0.00943745 0.0
1.12106 0.00693952 0.0
1.09426 -0.0125617 0.0
1.0679 -0.0078849 0.0
0.529476 -0.00812521 0.0
1.1004 -0.0220913 0.0
1.12809 0.0055411 0.0
1.2254 -0.00743068 0.0
1.07469 0.139334 0.0
1.15512 -0.696843 0.0
0.559682 -0.00472913 0.0
0.517788 -0.00543356 0.0
1.2212 -0.00577552 0.0
1.22303 -0.00774867 0.0
0.616353 -0.0186922 0.0
0.505797 -0.00944923 0.0
1.2188 -0.00508046 0.0
0.990881 0.0157317 0.0
1.1638 0.011078 0.0
1.15485 -0.00676372 0.0
0.56315 0.00719153 0.0
0.514643 -0.00218973 0.0
1.14585 0.0173724 0.0
0.601274 0.0136706 0.0
0.566886 0.0144002 0.0
1.17529 0.00825876 0.0
0.617244 0.0207704 0.0
0.56927 -0.000672634 0.0
1.21006 -0.00462625 0.0
1.19822 -0.00402836 0.0
0.962663 0.015045 0.0
1.20752 -0.00277884 0.0
1.1802 -0.00302823 0.0
1.21486 -0.00374481 0.0
0.984544 0.0108997 0.0
1.1504 -0.00350811 0.0
0.610761 0.00608245 0.0
0.504769 0.0140383 0.0
0.554912 0.0134368 0.0
0.473975 -0.00837872 0.0
0.53918 0.000276876 0.0
0.560242 -0.00497095 0.0
0.526515 -0.00242928 0.0
0.637227 -0.013915 0.0
0.551823 -0.00474929 0.0
0.576865 0.0128021 0.0
0.495701 -0.00706994 0.0
0.572685 0.0156283 0.0
0.505789 -7.12139e-05 0.0
0.677324 0.0214349 0.0
0.575578 0.0102242 0.0
0.569246 -0.0116076 0.0
0.49456 0.00237586 0.0
0.52962 -0.00197935 0.0
0.512543 0.00743523 0.0
0.608924 -0.00985826 0.0
0.543095 -0.00141863 0.0
0.59878 -0.00776025 0.0
0.555718 -0.0125501 0.0
0.543618 0.00629167 0.0
0.524794 -0.000226078 0.0
0.543631 0.00325116 0.0
0.488765 -0.0166528 0.0
0.48957 0.0198997 0.0
0.490412 0.000535768 0.0
0.553503 -0.00727501 0.0
0.500197 0.00337298 0.0
0.644327 -0.0211817 0.0
0.496591 0.00558298 0.0
0.473949 0.00499435 0.0
0.51698 0.000666714 0.0
0.493452 -0.00296924 0.0
1.17873 -0.00230076 0.0
1.15948 -0.00573633 0.0
1.22145 -0.00709271 0.0
1.21998 -0.00526046 0.0
1.22274 -0.00540844 0.0
1.11664 -0.00693606 0.0
1.19435 -0.00652436 0.0
1.17516 -0.00592158 0.0
1.18163 0.00336237 0.0
1.15318 -0.00268197 0.0
1.20589 -0.00742496 0.0
1.20814 -0.00805087 0.0
1.17131 -0.00588313 0.0
1.21636 -0.0039524 0.0
1.19341 -0.00162291 0.0
1.21677 -0.00591586 0.0
1.19073 -0.00679477 0.0
1.15124 0.000278481 0.0
1.21348 -0.00608319 0.0
1.21901 -0.00445658 0.0
1.20506 -0.00193037 0.0
1.21726 -0.00418451 0.0
1.2123 -0.00540032 0.0
1.15471 -0.00835604 0.0
1.21778 -0.00244266 0.0
1.19562 -0.0031629 0.0
1.21513 -0.00186042 0.0
1.11851 -0.000881406 0.0
1.19613 -0.00350561 0.0
1.1899 0.000505234 0.0
1.21128 -0.00193023 0.0
1.17341 -0.00112364 0.0
1.21042 -0.00256916 0.0
1.21327 -0.00260537 0.0
1.18473 0.00300275 0.0
1.21437 -0.00188556 0.0
1.20509 -0.00400664 0.0
1.20881 -0.000317521 0.0
1.15204 -0.00776588 0.0
1.17497 -0.00208708 0.0
1.21153 -0.000541392 0.0
1.20285 -0.0033314 0.0
1.20076 0.000980974 0.0
1.19794 0.00240335 0.0
1.16266 -0.0126157 0.0
1.20992 -0.00032962 0.0
1.20674 4.83797e-05 0.0
1.13616 -0.00526232 0.0
1.19175 -0.00410845 0.0
1.1199 0.00371097 0.0
1.1782 -0.00394916 0.0
1.18924 -0.00368726 0.0
1.20069 -0.00363632 0.0
1.20719 -0.00150876 0.0
1.17424 -0.00403696 0.0
1.20403 -0.00349202 0.0
1.20364 -0.00122403 0.0
1.20603 6.55494e-05 0.0
1.20151 0.00208726 0.0
1.19836 0.00242996 0.0
1.19672 0.00309978 0.0
1.18464 0.00488068 0.0
1.13496 -0.00565811 0.0
1.09353 0.00643991 0.0
1.18048 0.00629482 0.0
1.20224 0.000499331 0.0
0.573077 -0.00624511 0.0
1.18794 0.00478506 0.0
1.14879 0.00641022 0.0
1.17093 0.00669238 0.0
1.20039 0.00243412 0.0
1.16876 0.00647714 0.0
1.18126 0.00533147 0.0
1.17442 0.000268217 0.0
1.19183 0.0047149 0.0
1.18045 -0.000721223 0.0
1.13219 -0.00448548 0.0
1.13255 -0.00733218 0.0
1.15704 -0.0043729 0.0
1.18847 0.00598802 0.0
1.17629 -0.00386749 0.0
1.1877 0.00320288 0.0
1.16863 -0.00348945 0.0
1.18502 -0.0036204 0.0
1.19151 0.00259238 0.0
1.1852 0.00556838 0.0
0.982318 -0.0122633 0.0
1.17291 -0.00313429 0.0
1.17795 0.00740748 0.0
1.14613 0.00797747 0.0
1.19106 -0.00224811 0.0
1.19554 0.000101972 0.0
1.07938 -0.0179174 0.0
1.16791 0.01061 0.0
1.18019 -0.00329358 0.0
1.14805 0.0143576 0.0
1.19136 -8.67198e-05 0.0
1.15116 0.0179312 0.0
1.17016 -0.00421474 0.0
1.19441 -0.00226848 0.0
1.17717 -0.000936951 0.0
1.11937 0.176555 0.0
1.15317 -0.00687247 0.0
1.21625 -0.00845048 0.0
1.17385 0.00915769 0.0
1.17848 0.00118193 0.0
1.15827 -0.0132225 0.0
1.16269 -0.00317411 0.0
1.13917 -0.00261756 0.0
1.16202 -0.00929661 0.0
1.17127 0.00259773 0.0
1.1408 -0.000781575 0.0
1.16623 0.00227792 0.0
1.1663 -0.00654806 0.0
1.1651 -0.00245882 0.0
1.15216 0.0120279 0.0
1.16332 -0.00518424 0.0
0.716977 -0.0206146 0.0
0.974715 0.00369093 0.0
1.14754 0.0143004 0.0
1.15083 0.00940994 0.0
1.15803 -0.00764224 0.0
1.1417 0.0119505 0.0
1.1492 0.0142603 0.0
1.14862 -0.00240366 0.0
1.13103 0.000863607 0.0
1.14341 -0.00318701 0.0
1.13714 0.000939638 0.0
1.12444 0.0121789 0.0
1.16164 0.00558256 0.0
1.15556 0.00850505 0.0
0.996865 0.00734099 0.0
1.15701 0.00578247 0.0
1.15959 0.011437 0.0
1.1516 0.0120039 0.0
1.11763 0.0152609 0.0
1.13642 0.0157712 0.0
1.15649 0.0124041 0.0
1.73554 0.181513 0.0
1.12303 -0.010643 0.0
1.1298 0.0194844 0.0
1.10214 -0.0225496 0.0
1.14989 0.0222187 0.0
1.14981 0.0162749 0.0
1.11653 -0.0129924 0.0
1.14772 0.022244 0.0
1.21566 -0.00511873 0.0
1.0721 -0.00937187 0.0
1.09779 0.0155064 0.0
1.1004 -0.00696753 0.0
1.30702 0.126389 0.0
1.21183 -0.00514933 0.0
1.08103 -0.00186334 0.0
1.15346 -0.00757779 0.0
1.1418 0.0284822 0.0
1.1471 0.0228066 0.0
1.09275 -0.00856091 0.0
1.09617 -0.0275713 0.0
0.982762 -0.0142473 0.0
1.18765 -0.000422493 0.0
1.07009 0.000651133 0.0
1.07991 0.000180976 0.0
1.12302 0.024887 0.0
1.11763 -0.0270711 0.0
1.02987 0.198335 0.0
0.964209 -0.0144958 0.0
1.13785 0.0340787 0.0
0.442647 -0.164498 0.0
1.38178 0.131752 0.0
1.18161 -0.0526394 0.0
1.06764 0.0103792 0.0
1.0683 0.0258985 0.0
1.05636 0.0365106 0.0
1.21138 -0.00100292 0.0
1.05499 0.0143828 0.0
1.03937 -0.0443835 0.0
1.30216 0.175938 0.0
1.00387 -0.14271 0.0
1.03433 -0.05807 0.0
1.15198 -0.133648 0.0
1.1459 -0.0119226 0.0
1.09655 -0.048431 0.0
1.17704 -0.00335441 0.0
0.938953 0.00177291 0.0
1.18126 0.054428 0.0
1.01085 -0.0139968 0.0
1.23806 -0.102184 0.0
1.21067 -0.00529024 0.0
1.19964 -0.00631341 0.0
1.058 -0.0201851 0.0
1.39841 -0.56746 0.0
1.13337 0.0837221 0.0
0.997384 -0.0203133 0.0
1.13368 0.0671989 0.0
0.959654 0.00148436 0.0
0.756851 0.0282283 0.0
1.09135 0.0452129 0.0
1.32725 -0.160593 0.0
0.934306 -0.0910692 0.0
1.10018 -0.0400164 0.0
0.63264 -0.55655 0.0
1.1081 -0.0283875 0.0
1.11416 -0.00647875 0.0
1.15168 -0.00722165 0.0
1.391 -0.139716 0.0
1.08187 0.0602328 0.0
1.17688 -0.00263905 0.0
1.04965 -0.0263878 0.0
1.1644 0.036576 0.0
0.989258 -0.0169235 0.0
1.34999 -0.771801 0.0
1.2186 0.004721 0.0
1.17993 0.0519298 0.0
1.19585 0.00297627 0.0
1.12514 -0.000501555 0.0
1.18066 -0.0569978 0.0
1.06623 0.0203116 0.0
1.20982 0.0816672 0.0
1.12198 -0.00799199 0.0
1.15978 0.04453 0.0
0.960759 0.00162365 0.0
1.14809 0.0110564 0.0
1.18052 -0.531651 0.0
0.657224 -0.00623081 0.0
0.679265 -0.0233854 0.0
0.92724 0.0272063 0.0
1.26638 0.120006 0.0
1.1513 -0.00614195 0.0
1.17912 -0.0053686 0.0
0.605095 0.0102859 0.0
1.19804 -0.00586988 0.0
0.328812 -0.123589 0.0
1.07409 -0.0995429 0.0
0.558203 0.00853691 0.0
0.563498 -0.0114821 0.0
0.901617 0.0403364 0.0
1.15551 -0.00568493 0.0
0.863952 -0.174339 0.0
0.8533 -0.0249289 0.0
1.68892 -0.124899 0.0
0.941096 0.0374568 0.0
1.15012 -0.0105822 0.0
1.15081 -0.0120779 0.0
1.0522 0.00811439 0.0
1.2163 0.00363332 0.0
1.17461 0.00138037 0.0
1.18512 0.348312 0.0
0.618903 0.0175217 0.0
1.01776 0.00233484 0.0
1.36885 -0.0981586 0.0
0.537802 0.00735976 0.0
1.58078 0.560895 0.0
0.935864 -0.0419849 0.0
0.798505 -0.0268119 0.0
1.34073 0.0884235 0.0
0.783774 -0.0538728 0.0
0.955523 -0.000573129 0.0
0.668891 -0.116459 0.0
1.15761 -0.0169049 0.0
0.88091 0.0996116 0.0
1.13841 -0.0146559 0.0
0.660889 -0.00414769 0.0
1.0288 0.00571422 0.0
0.981628 0.136497 0.0
1.4096 -0.0328976 0.0
0.522134 -0.00331531 0.0
0.638312 -0.0245173 0.0
0.918752 0.805428 0.0
1.10998 -0.00105385 0.0
1.05139 0.0116653 0.0
1.39228 0.0134602 0.0
0.600465 -0.0106716 0.0
1.13202 0.0179026 0.0
1.16666 -0.44862 0.0
0.186483 0.0223929 0.0
0.926893 -0.0634303 0.0
1.07113 -0.0836464 0.0
0.734232 0.0240269 0.0
0.520648 0.017964 0.0
1.64891 0.0361518 0.0
1.15354 -0.00582039 0.0
0.311487 0.0152311 0.0
0.573336 0.025071 0.0
1.14397 -0.00580584 0.0
1.19964 -0.00619166 0.0
1.00211 -0.0175564 0.0
0.939843 0.0625687 0.0
1.2092 0.172527 0.0
0.638222 0.0109775 0.0
1.19858 0.00788427 0.0
0.921131 0.0929632 0.0
1.20343 -0.00760941 0.0
1.38802 -0.593457 0.0
0.518947 0.000694403 0.0
1.45913 -0.13024 0.0
1.11008 0.00742014 0.0
0.954375 -0.0137794 0.0
0.621565 0.0903222 0.0
0.992536 0.102125 0.0
0.897472 0.139862 0.0
1.11244 0.00854737 0.0
1.21683 -0.058332 0.0
1.39921 -0.0369435 0.0
0.583619 0.0049035 0.0
0.607716 0.0150434 0.0
1.07459 -0.00347233 0.0
0.404541 -0.0728914 0.0
1.04356 0.0366514 0.0
0.494426 0.00367796 0.0
0.966894 -0.0111454 0.0
1.11079 -0.00442477 0.0
0.94544 -0.00944377 0.0
0.554986 -0.00643003 0.0
0.554566 0.0192758 0.0
0.568563 0.00901208 0.0
0.525282 0.0072511 0.0
0.58693 0.0108684 0.0
1.21072 0.669576 0.0
1.36073 0.0694592 0.0
0.964686 -0.00262299 0.0
0.547817 0.00770522 0.0
0.559596 -0.0125288 0.0
0.698129 0.0251566 0.0
1.15547 -0.047788 0.0
0.616824 0.00128784 0.0
1.60396 -0.193032 0.0
1.29539 0.095692 0.0
0.538018 -0.140663 0.0
1.34479 -0.0939466 0.0
1.52684 -0.466811 0.0
1.00891 0.00491751 0.0
1.09052 0.018205 0.0
1.1432 -0.0123908 0.0
0.962756 0.00213373 0.0
0.837067 -0.689235 0.0
1.02473 -0.0012577 0.0
0.979012 -0.00513346 0.0
1.19876 -0.0118775 0.0
1.12055 -0.0345061 0.0
1.64817 -0.000410835 0.0
-0.120346 0.098045 0.0
0.507791 -0.0688382 0.0
1.33617 0.518157 0.0
1.07447 -0.0119394 0.0
0.606618 -0.0115332 0.0
0.578905 -0.00514441 0.0
0.574596 -0.00551707 0.0
1.21677 0.00578387 0.0
0.634493 0.211595 0.0
1.17463 -0.0249465 0.0
0.977348 0.0114179 0.0
0.752005 0.163449 0.0
1.1249 -0.00257827 0.0
0.139964 -0.00999862 0.0
1.18507 0.00598223 0.0
0.568773 0.0208456 0.0
0.565953 -0.0100034 0.0
1.3403 0.0857452 0.0
0.84543 -0.0110463 0.0
1.50649 0.0322313 0.0
0.975281 0.014146 0.0
0.991635 0.0103177 0.0
0.112733 -0.166218 0.0
0.975106 0.0284485 0.0
1.17075 0.0127869 0.0
1.1532 0.0128796 0.0
0.356507 -0.136426 0.0
1.61648 -0.273176 0.0
1.09296 -2.3439e-05 0.0
1.28777 0.195392 0.0
0.593418 -0.0135205 0.0
0.56165 -0.00712681 0.0
1.12342 -0.0167937 0.0
0.532161 0.0898414 0.0
1.12685 -0.0274846 0.0
0.808456 0.021909 0.0
0.935014 -0.00929769 0.0
1.13137 0.0118144 0.0
0.998833 -0.003765 0.0
0.201883 -0.020901 0.0
1.1465 -0.012322 0.0
0.310062 0.0603668 0.0
1.01239 -0.00141718 0.0
1.00415 -0.00379468 0.0
0.577718 -0.0159071 0.0
1.06968 -0.00929572 0.0
1.17471 -0.0250346 0.0
0.951697 -1.92313e-05 0.0
0.991376 -0.0125484 0.0
1.20025 -0.964636 0.0
1.13201 0.0225081 0.0
1.69271 0.486876 0.0
0.561981 -0.016037 0.0
0.55223 0.00643166 0.0
1.16659 0.00504156 0.0
1.22247 -0.0061359 0.0
1.11291 -0.00760762 0.0
1.12243 -0.00103195 0.0
1.17946 0.0048961 0.0
1.13063 0.00440068 0.0
1.21318 -0.00844454 0.0
1.15069 0.0260852 0.0
-0.1977 0.0188005 0.0
1.10268 0.0151949 0.0
-0.0239102 0.0296501 0.0
0.661342 -0.0255087 0.0
1.20464 -0.177783 0.0
1.1446 -0.0105737 0.0
1.36826 -0.138319 0.0
1.64633 -0.502385 0.0
0.314249 -0.0181106 0.0
1.20662 -0.00749508 0.0
1.12899 0.27199 0.0
1.3507 -0.0985757 0.0
1.07137 0.305679 0.0
1.70954 0.0866922 0.0
0.975253 -0.542462 0.0
1.37208 0.132326 0.0
1.12235 -0.0163846 0.0
1.28965 -0.480971 0.0
-0.0865948 -0.108462 0.0
1.0582 0.000695217 0.0
1.31866 -0.394836 0.0
0.504877 -0.00477935 0.0
1.41858 -0.149863 0.0
1.68462 0.198328 0.0
1.09094 0.0122532 0.0
0.40817 0.0151985 0.0
0.717037 0.00181329 0.0
0.267873 -0.228473 0.0
0.956403 0.0460341 0.0
-0.117967 -0.0301599 0.0
1.14678 -0.162705 0.0
1.49616 0.144098 0.0
0.533443 0.00908406 0.0
1.22912 -0.069201 0.0
0.970017 0.000366568 0.0
1.20831 0.00506 0.0
0.435157 -0.615534 0.0
1.22864 0.264364 0.0
0.73001 -0.162748 0.0
0.19134 -0.330946 0.0
0.518589 0.160725 0.0
1.3026 0.238486 0.0
0.598602 0.152471 0.0
0.966604 -0.0120128 0.0
1.13784 -0.0152892 0.0
1.08189 0.010991 0.0
1.07473 0.0091701 0.0
0.573391 0.00756163 0.0
0.024525 0.0821427 0.0
1.3083 0.299775 0.0
0.46484 -0.00189466 0.0
1.10107 0.00870357 0.0
0.264439 0.216265 0.0
0.977047 -0.00371743 0.0
1.39751 0.501205 0.0