# vtk DataFile Version 3.0
Malha 2D com triângulos e temperatura
ASCII
DATASET UNSTRUCTURED_GRID

POINTS 688 double
0 0 0
2.2 0 0
2.2 0.41 0
0 0.41 0
0.25 0.2 0
0.05 0 0
0.1 0 0
0.15 0 0
0.2 0 0
0.25 0 0
0.3 0 0
0.35 0 0
0.4 0 0
0.45 0 0
0.5 0 0
0.55 0 0
0.6 0 0
0.65 0 0
0.7 0 0
0.75 0 0
0.8 0 0
0.85 0 0
0.9 0 0
0.95 0 0
1 0 0
1.05 0 0
1.1 0 0
1.15 0 0
1.2 0 0
1.25 0 0
1.3 0 0
1.35 0 0
1.4 0 0
1.45 0 0
1.5 0 0
1.55 0 0
1.6 0 0
1.65 0 0
1.7 0 0
1.75 0 0
1.8 0 0
1.85 0 0
1.9 0 0
1.95 0 0
2 0 0
2.05 0 0
2.1 0 0
2.15 0 0
2.2 0.0455556 0
2.2 0.0911111 0
2.2 0.136667 0
2.2 0.182222 0
2.2 0.227778 0
2.2 0.273333 0
2.2 0.318889 0
2.2 0.364444 0
2.15 0.41 0
2.1 0.41 0
2.05 0.41 0
2 0.41 0
1.95 0.41 0
1.9 0.41 0
1.85 0.41 0
1.8 0.41 0
1.75 0.41 0
1.7 0.41 0
1.65 0.41 0
1.6 0.41 0
1.55 0.41 0
1.5 0.41 0
1.45 0.41 0
1.4 0.41 0
1.35 0.41 0
1.3 0.41 0
1.25 0.41 0
1.2 0.41 0
1.15 0.41 0
1.1 0.41 0
1.05 0.41 0
1 0.41 0
0.95 0.41 0
0.9 0.41 0
0.85 0.41 0
0.8 0.41 0
0.75 0.41 0
0.7 0.41 0
0.65 0.41 0
0.6 0.41 0
0.55 0.41 0
0.5 0.41 0
0.45 0.41 0
0.4 0.41 0
0.35 0.41 0
0.3 0.41 0
0.25 0.41 0
0.2 0.41 0
0.15 0.41 0
0.1 0.41 0
0.05 0.41 0
0 0.364444 0
0 0.318889 0
0 0.273333 0
0 0.227778 0
0 0.182222 0
0 0.136667 0
0 0.0911111 0
0 0.0455556 0
0.248831 0.210749 0
0.245379 0.220994 0
0.239805 0.230259 0
0.232369 0.238108 0
0.22342 0.244176 0
0.213376 0.248177 0
0.202707 0.249927 0
0.191911 0.249341 0
0.181493 0.246449 0
0.171941 0.241384 0
0.1637 0.234385 0
0.157157 0.225778 0
0.152617 0.215965 0
0.150293 0.205406 0
0.150293 0.194594 0
0.152617 0.184035 0
0.157157 0.174222 0
0.1637 0.165615 0
0.171941 0.158616 0
0.181493 0.153551 0
0.191911 0.150659 0
0.202707 0.150073 0
0.213376 0.151823 0
0.22342 0.155824 0
0.232369 0.161892 0
0.239805 0.169741 0
0.245379 0.179006 0
0.248831 0.189251 0
0.421316 0.36725 0
0.426705 0.0366526 0
2.16065 0.209201 0
1.52286 0.0417259 0
0.626017 0.37111 0
1.3257 0.0414552 0
1.02471 0.0432237 0
1.17293 0.0421053 0
0.82501 0.36678 0
1.6757 0.370064 0
1.91628 0.0358195 0
1.82501 0.366432 0
0.723429 0.0421499 0
1.425 0.366699 0
1.97461 0.366224 0
1.12167 0.370137 0
0.975 0.368691 0
0.877672 0.0412714 0
1.27686 0.36884 0
1.725 0.0433013 0
0.579174 0.0416211 0
0.325589 0.363848 0
0.319111 0.0378151 0
0.0394523 0.296111 0
0.0329929 0.11602 0
0.142108 0.187428 0
1.57555 0.364352 0
2.02603 0.0412138 0
0.725007 0.36763 0
0.528647 0.366595 0
1.62699 0.0400272 0
1.82929 0.0421255 0
1.425 0.0418325 0
2.07474 0.364233 0
0.125 0.0433013 0
0.161245 0.155011 0
0.225 0.366699 0
0.210027 0.258536 0
2.16034 0.115449 0
0.0371627 0.204103 0
0.142311 0.212698 0
0.220283 0.0418538 0
0.221965 0.145099 0
0.196802 0.141016 0
0.119851 0.373394 0
0.161112 0.245979 0
0.184892 0.258024 0
2.16342 0.30039 0
2.12627 0.047699 0
0.183325 0.0412617 0
0.152317 0.0762976 0
0.203864 0.0745802 0
0.234384 0.0774346 0
0.215969 0.103585 0
0.245651 0.104548 0
0.186562 0.100216 0
0.268213 0.0793029 0
0.272149 0.109155 0
0.242885 0.159377 0
0.253088 0.128261 0
0.278718 0.13214 0
0.295917 0.115997 0
0.301728 0.138858 0
0.321266 0.12205 0
0.324642 0.151724 0
0.255978 0.181139 0
0.350123 0.129049 0
0.357539 0.159885 0
0.333541 0.181416 0
0.36451 0.19182 0
0.250573 0.230419 0
0.391277 0.169722 0
0.339477 0.212308 0
0.39836 0.205386 0
0.427326 0.18117 0
0.258724 0.206387 0
0.434392 0.219501 0
0.466446 0.193907 0
0.472865 0.243064 0
0.507358 0.209962 0
0.40073 0.238916 0
0.499135 0.1652 0
0.5419 0.179224 0
0.550176 0.22496 0
0.585844 0.194129 0
0.594095 0.240176 0
0.630701 0.209517 0
0.621901 0.162424 0
0.667731 0.178095 0
0.676485 0.226008 0
0.713906 0.194492 0
0.722681 0.242872 0
0.760442 0.211047 0
0.751547 0.162356 0
0.798298 0.179 0
0.807147 0.227866 0
0.845136 0.195775 0
0.854541 0.243285 0
0.892163 0.212344 0
0.902461 0.257947 0
0.93935 0.228684 0
0.930236 0.180167 0
0.977229 0.197066 0
0.986264 0.245777 0
1.02423 0.213991 0
1.0331 0.263172 0
1.07123 0.230975 0
1.06234 0.181814 0
1.10938 0.198721 0
1.09996 0.151012 0
1.14691 0.168161 0
1.15631 0.215921 0
1.19446 0.183678 0
1.20343 0.232645 0
1.2416 0.200322 0
1.23272 0.151117 0
1.2798 0.167954 0
1.28868 0.217167 0
1.32685 0.184862 0
1.33573 0.234064 0
1.3739 0.201768 0
0.789327 0.130094 0
1.38279 0.25097 0
1.42096 0.218674 0
1.41207 0.169471 0
1.45912 0.186378 0
1.46801 0.235581 0
1.50618 0.203285 0
1.51506 0.252489 0
1.55323 0.220192 0
1.54435 0.170989 0
1.5914 0.187896 0
1.60029 0.2371 0
1.63846 0.204803 0
1.64734 0.254007 0
1.68551 0.221711 0
1.67663 0.172507 0
1.72368 0.189415 0
1.73831 0.241548 0
1.77074 0.206322 0
1.76185 0.157121 0
1.8091 0.17428 0
1.81866 0.220885 0
1.85608 0.190621 0
1.86521 0.238879 0
1.90289 0.207671 0
1.91264 0.253772 0
1.94955 0.224093 0
1.94067 0.17593 0
1.98705 0.192828 0
1.99572 0.240997 0
2.0329 0.209382 0
2.02422 0.16161 0
2.04166 0.257286 0
0.419739 0.142889 0
0.968291 0.148058 0
0.310035 0.202211 0
0.316128 0.230863 0
0.658501 0.130052 0
0.685107 0.27445 0
1.34462 0.283266 0
1.16528 0.264896 0
1.84735 0.142081 0
0.557687 0.270604 0
1.21234 0.281769 0
1.58252 0.138692 0
0.533563 0.131933 0
0.489835 0.120004 0
1.45024 0.137174 0
2.06974 0.17785 0
2.06113 0.130713 0
0.283221 0.152215 0
0.921299 0.131169 0
0.343836 0.24295 0
0.319203 0.260002 0
0.235529 0.249617 0
0.347029 0.274099 0
0.291856 0.246297 0
0.295938 0.27548 0
0.272836 0.264931 0
0.27461 0.290522 0
0.251228 0.280224 0
0.253903 0.305808 0
0.232795 0.296709 0
0.298805 0.304058 0
1.0801 0.280176 0
1.47689 0.284785 0
1.05315 0.133468 0
1.09741 0.0970974 0
1.82427 0.272867 0
1.2701 0.118911 0
0.816337 0.277695 0
1.40432 0.121101 0
1.04244 0.320388 0
0.959305 0.103028 0
1.60923 0.286151 0
0.601674 0.286775 0
2.00739 0.280923 0
0.342592 0.0992796 0
0.375237 0.105729 0
1.52511 0.298716 0
1.53114 0.119823 0
0.733824 0.287256 0
0.613372 0.114719 0
0.645558 0.0838585 0
2.015 0.115858 0
1.22718 0.0994086 0
1.39166 0.29817 0
1.3564 0.329754 0
0.744134 0.11556 0
0.782853 0.0841771 0
0.826899 0.10047 0
1.17418 0.314034 0
0.520902 0.0906676 0
1.4967 0.329429 0
1.26048 0.0740437 0
0.365514 0.0716355 0
0.229836 0.121666 0
1.57453 0.09137 0
1.61938 0.110761 0
0.481716 0.0753791 0
0.14093 0.2 0
0.130041 0.192847 0
0.131507 0.178608 0
0.117165 0.184444 0
0.120761 0.164701 0
0.1156 0.199931 0
0.100804 0.174136 0
0.102545 0.153034 0
0.12169 0.143342 0
0.104604 0.13008 0
0.0809304 0.161171 0
0.128077 0.121858 0
0.106825 0.102278 0
0.082498 0.188728 0
0.0314738 0.158621 0
2.04625 0.310891 0
2.08475 0.27479 0
2.11394 0.138117 0
0.233149 0.151108 0
0.258724 0.193613 0
0.268522 0.184917 0
1.65397 0.301059 0
0.145962 0.224912 0
0.132503 0.222267 0
0.13746 0.236947 0
0.120111 0.233525 0
0.126593 0.25219 0
0.105294 0.247497 0
0.113343 0.26868 0
0.133997 0.271734 0
0.121622 0.292031 0
0.147069 0.292141 0
0.0896563 0.267464 0
0.0813699 0.243294 0
0.163574 0.276939 0
0.172694 0.298517 0
0.1583 0.321483 0
0.186823 0.322499 0
0.173113 0.348195 0
0.0322087 0.250839 0
0.211694 0.124337 0
0.250615 0.169546 0
0.256243 0.157787 0
0.170796 0.14736 0
0.156755 0.141654 0
0.17187 0.131161 0
0.147502 0.152323 0
0.198129 0.260662 0
0.206368 0.271663 0
0.220945 0.26864 0
0.190489 0.270628 0
0.198813 0.286731 0
0.55749 0.322277 0
0.520166 0.299321 0
0.235199 0.330709 0
0.267109 0.337524 0
0.172324 0.25256 0
0.255974 0.218859 0
0.268327 0.214994 0
0.184197 0.143083 0
0.188721 0.129954 0
0.209694 0.139146 0
0.269223 0.244007 0
0.252374 0.255244 0
0.282229 0.0410487 0
1.21977 0.330016 0
1.25733 0.296346 0
2.09358 0.0890819 0
0.244373 0.240984 0
0.0838116 0.115786 0
0.0797544 0.0817835 0
0.237449 0.264854 0
0.247178 0.146225 0
0.270136 0.2 0
0.28023 0.191334 0
0.263476 0.170737 0
0.371486 0.368728 0
0.396124 0.330051 0
0.440314 0.325693 0
0.357693 0.329668 0
0.476576 0.362035 0
0.29587 0.222914 0
0.307627 0.175476 0
0.079599 0.0406461 0
0.146062 0.252571 0
0.15162 0.125025 0
0.417223 0.294608 0
0.457089 0.286958 0
0.036619 0.338729 0
0.0713014 0.322193 0
0.0735823 0.36704 0
0.041143 0.0722223 0
0.693501 0.32349 0
0.145406 0.175484 0
0.138777 0.164467 0
0.300367 0.0698839 0
0.167025 0.112083 0
0.146978 0.105544 0
0.151909 0.236762 0
0.444611 0.106436 0
0.909355 0.0817561 0
0.282901 0.370713 0
1.61474 0.330739 0
0.578053 0.368179 0
0.824695 0.0487848 0
2.09634 0.3213 0
2.02276 0.364865 0
2.12532 0.363702 0
1.09789 0.328757 0
0.161137 0.260089 0
2.07793 0.225752 0
2.12079 0.240944 0
2.0747 0.0437362 0
1.89402 0.158846 0
1.93154 0.128738 0
1.8848 0.111477 0
1.8384 0.0926484 0
1.87744 0.0655304 0
1.7913 0.0793874 0
1.9712 0.046671 0
1.92502 0.366682 0
1.94563 0.325156 0
1.89941 0.326645 0
1.87499 0.367178 0
1.84989 0.323491 0
1.7997 0.321303 0
1.77183 0.280326 0
1.75031 0.321965 0
1.77491 0.365615 0
2.11727 0.191885 0
0.883187 0.163467 0
1.71449 0.140266 0
1.667 0.125342 0
1.70591 0.0884759 0
1.67732 0.042286 0
1.52278 0.370513 0
1.37512 0.04128 0
1.34848 0.0834574 0
0.776093 0.367587 0
1.125 0.0433013 0
1.15 0.0866019 0
1.07442 0.0496847 0
0.974527 0.0370837 0
1.47464 0.0427918 0
1.44953 0.0873752 0
1.17595 0.362984 0
1.025 0.366699 0
0.925007 0.367031 0
0.95 0.323404 0
0.897321 0.326356 0
0.874563 0.367261 0
0.846552 0.324465 0
1.62923 0.156667 0
1.32319 0.13033 0
1.69342 0.270472 0
1.49568 0.156227 0
1.56237 0.268721 0
1.44 0.319169 0
1.43005 0.267892 0
1.36502 0.152565 0
0.993446 0.294003 0
1.30179 0.321101 0
1.18235 0.127964 0
1.25016 0.2491 0
1.29638 0.266841 0
1.11824 0.247967 0
1.12945 0.294699 0
1.01527 0.165035 0
0.836192 0.147197 0
1.4998 0.0831488 0
1.00655 0.118664 0
0.872896 0.117126 0
0.70523 0.146383 0
1.96013 0.276645 0
0.769406 0.257102 0
0.699552 0.0908977 0
2.1587 0.162257 0
1.97813 0.145326 0
0.646036 0.302035 0
0.799423 0.326603 0
0.515621 0.255445 0
1.72538 0.366474 0
1.97009 0.0998346 0
1.57108 0.313772 0
0.577925 0.14549 0
0.638911 0.256447 0
0.407352 0.0771641 0
0.525103 0.042511 0
0.674231 0.370698 0
1.69802 0.321701 0
0.56947 0.0908728 0
1.75459 0.110239 0
1.80084 0.126127 0
0.673535 0.0431435 0
1.57391 0.0465733 0
2.04571 0.0828469 0
0.10002 0.225545 0
0.0788152 0.21577 0
0.369719 0.224393 0
0.210352 0.308739 0
1.22342 0.0432967 0
[...]
CELL_DATA 1241
VECTORS velocity double
1.4869 -0.044324 0.0
1.06061 0.0159887 0.0
0.786611 -0.00355459 0.0
1.26328 0.258369 0.0
1.03028 -0.000338196 0.0
1.33709 0.0336784 0.0
1.03767 0.0310867 0.0
1.19943 -0.0409806 0.0
0.643985 -0.172974 0.0
0.98624 0.0303562 0.0
1.3084 -0.13717 0.0
1.31037 0.145624 0.0
0.858761 -0.21508 0.0
1.03143 -0.00137965 0.0
1.02408 -0.00219341 0.0
1.32004 0.0475148 0.0
1.02211 -0.00237756 0.0
0.588475 0.0989238 0.0
1.04718 0.00793483 0.0
1.5428 -0.155316 0.0
0.959695 -0.00813979 0.0
1.12153 -0.0298593 0.0
1.0306 -0.000965879 0.0
1.20339 0.875112 0.0
1.18853 0.193932 0.0
0.95911 -0.0103583 0.0
1.28195 -0.159891 0.0
1.12887 -0.00165344 0.0
1.32056 -0.0930275 0.0
1.33056 0.019421 0.0
1.32753 0.101553 0.0
0.928086 -0.012379 0.0
1.27549 -0.0807577 0.0
1.03036 -0.00212538 0.0
1.05754 -0.016198 0.0
1.30884 0.0940632 0.0
1.04499 -0.0157276 0.0
1.0345 -0.210485 0.0
0.43026 0.056444 0.0
1.32738 0.0726249 0.0
1.65411 -0.0209284 0.0
1.43163 0.144764 0.0
1.03941 -0.267752 0.0
0.820876 -0.000270115 0.0
1.34404 -0.0988515 0.0
0.824521 0.000117821 0.0
1.05353 0.0199331 0.0
1.03652 -0.00276005 0.0
1.52171 -0.228508 0.0
1.27095 -0.248331 0.0
0.932796 0.00980098 0.0
1.24912 -0.439171 0.0
1.03959 -0.15084 0.0
1.14945 -0.0615005 0.0
1.69036 -0.137013 0.0
1.26071 -0.0929258 0.0
1.04292 -0.00371925 0.0
1.05237 0.0267531 0.0
1.57745 0.0812589 0.0
1.55 -0.0648277 0.0
1.11319 0.820783 0.0
1.17097 0.00577717 0.0
0.578654 -0.271408 0.0
0.968147 -0.010581 0.0
0.133078 -0.105025 0.0
1.31237 0.246823 0.0
0.156088 0.102408 0.0
0.975109 -0.0220868 0.0
0.90692 -0.00879663 0.0
0.508453 0.263272 0.0
0.985141 -0.0250577 0.0
0.953568 -0.196708 0.0
0.990206 -0.0238939 0.0
0.931112 -0.316203 0.0
0.953809 -0.0121039 0.0
0.873823 0.210836 0.0
1.01953 0.00342735 0.0
1.51795 0.148983 0.0
0.982148 -0.0203509 0.0
0.864753 -0.00271783 0.0
1.66596 -0.289842 0.0
1.14715 -0.258115 0.0
0.89412 0.00332475 0.0
1.24497 -0.198084 0.0
1.33212 0.186548 0.0
1.03731 -0.052739 0.0
1.05255 0.0695523 0.0
0.570795 0.226267 0.0
1.76269 0.449173 0.0
0.955181 -0.00881975 0.0
1.33077 -0.196852 0.0
0.0625601 0.125014 0.0
0.33903 -0.00175323 0.0
1.17987 -0.0674648 0.0
1.04733 -0.0015749 0.0
1.23783 -0.0398517 0.0
1.0316 -0.296968 0.0
0.332231 -0.157869 0.0
1.03173 -0.00180219 0.0
0.266246 0.104011 0.0
1.07742 -0.11847 0.0
1.02758 -0.0184815 0.0
1.01823 0.000326376 0.0
1.62703 -0.026572 0.0
1.68799 -0.617603 0.0
1.23482 -0.428824 0.0
1.09275 -0.299481 0.0
0.725302 0.251406 0.0
1.73753 0.593864 0.0
0.944683 0.000828502 0.0
1.17191 -0.114915 0.0
1.05336 0.0907602 0.0
0.521278 -0.253661 0.0
1.43865 -0.0315226 0.0
1.09513 0.0261289 0.0
1.43923 0.0432353 0.0
1.26128 0.0654524 0.0
1.28209 -0.0224502 0.0
1.04294 -0.000247928 0.0
0.60066 0.245784 0.0
1.28658 -0.103111 0.0
1.44998 0.565235 0.0
1.05855 0.0246103 0.0
1.03986 -0.0424562 0.0
0.862801 -0.305568 0.0
1.05507 0.0139095 0.0
1.20333 -0.0709855 0.0
1.03985 -0.00172764 0.0
1.71899 0.446733 0.0
0.678373 -0.0841429 0.0
1.03223 -0.0168383 0.0
0.862751 -0.00384732 0.0
1.0177 0.0427112 0.0
1.36682 0.0952727 0.0
1.01598 -0.0628057 0.0
0.0463218 -0.0235083 0.0
0.495506 -0.262991 0.0
1.06518 0.0264249 0.0
1.04432 -0.027247 0.0
1.60617 -0.717317 0.0
1.49767 0.00322296 0.0
1.04052 0.000233859 0.0
1.0703 -0.270376 0.0
1.01025 0.0261683 0.0
1.44242 0.214777 0.0
0.443114 0.243666 0.0
-0.049339 0.0145345 0.0
0.248653 0.176911 0.0
0.894915 0.00224813 0.0
0.893131 -0.00775364 0.0
0.64065 -0.128431 0.0
1.0385 -0.0206537 0.0
1.71143 -0.21923 0.0
1.01475 -0.0728212 0.0
1.19915 -0.052614 0.0
1.19744 0.0602592 0.0
0.780716 0.000355623 0.0
1.40193 -0.048802 0.0
1.00881 0.275296 0.0
1.05859 -0.0196875 0.0
0.336958 -0.110056 0.0
1.64327 0.367746 0.0
1.05002 -0.000169706 0.0
1.20864 -0.238298 0.0
1.04291 0.000698076 0.0
1.04134 0.16785 0.0
1.04325 -0.00728395 0.0
0.960909 0.106277 0.0
0.871195 -0.00137294 0.0
1.04995 -0.00028051 0.0
0.95145 -0.0084846 0.0
0.949076 -0.00915123 0.0
1.31186 0.236337 0.0
1.05852 0.0253965 0.0
1.04231 -0.00237772 0.0
1.04451 -0.000606618 0.0
1.18471 0.16982 0.0
1.09511 -0.332559 0.0
1.04993 -0.00278798 0.0
1.1651 -0.225288 0.0
1.04382 -0.000744242 0.0
0.643774 -0.198075 0.0
1.04687 -0.634511 0.0
0.840783 -0.131214 0.0
1.03333 -0.00118761 0.0
0.888251 -0.0907411 0.0
0.907596 -0.0629345 0.0
1.03447 0.0019138 0.0
1.05033 0.120807 0.0
0.608884 0.0607426 0.0
0.853869 -0.806696 0.0
1.65907 0.229155 0.0
1.06893 0.0150255 0.0
1.01628 0.00267703 0.0
0.830121 0.0676134 0.0
0.949203 0.291271 0.0
0.437303 0.102699 0.0
1.08471 -0.0239598 0.0
1.42632 -0.0338874 0.0
1.38433 0.573504 0.0
1.13616 0.237728 0.0
1.08929 -0.0243054 0.0
1.4253 0.0397331 0.0
1.03118 -0.302341 0.0
1.13235 -0.0567992 0.0
1.43218 -0.0507056 0.0
0.757349 0.241892 0.0
0.871349 -0.00283482 0.0
0.92234 -0.0156238 0.0
0.871488 0.0180675 0.0
0.817935 0.000639728 0.0
0.824158 -0.000882746 0.0
1.65556 0.156476 0.0
1.05096 -0.0012645 0.0
1.35789 -0.218186 0.0
1.05211 -0.00150042 0.0
0.998127 -0.0216957 0.0
1.20357 -0.125958 0.0
1.05031 -0.000350163 0.0
1.02178 -0.020326 0.0
0.822043 -0.0595217 0.0
1.47179 0.0853128 0.0
1.08794 0.0237183 0.0
1.11016 0.232495 0.0
0.96411 -0.0266766 0.0
0.947493 -0.0116126 0.0
1.1284 -0.0927246 0.0
1.66573 -0.539195 0.0
1.06154 -0.0201524 0.0
1.0415 -0.0169429 0.0
1.0442 -0.0047266 0.0
1.05649 -0.164391 0.0
1.03636 -0.000945011 0.0
1.02783 0.000185167 0.0
1.25255 0.281501 0.0
1.02698 -0.296874 0.0
1.03201 0.0536722 0.0
1.07488 0.0509436 0.0
0.986777 -0.0307463 0.0
0.434523 -0.0645994 0.0
1.0347 -0.00553752 0.0
1.43485 0.0614133 0.0
1.36617 0.88356 0.0
0.675527 -0.137673 0.0
1.03476 -0.0133218 0.0
1.54424 -0.0421361 0.0
1.05246 -0.872463 0.0
0.851426 -0.229563 0.0
1.03809 -0.00328541 0.0
0.862199 -0.00129581 0.0
1.09725 0.00495928 0.0
0.856283 -0.0027662 0.0
1.03795 -0.0026203 0.0
0.953531 -0.0205708 0.0
0.901056 -0.0511441 0.0
0.873771 -0.00969888 0.0
1.07484 -0.332774 0.0
1.07157 -0.0314369 0.0
0.955444 -0.0238352 0.0
1.01652 -0.000481477 0.0
0.950274 -0.0077906 0.0
0.82255 -0.00273101 0.0
0.954384 -0.00591399 0.0
0.887868 -0.007928 0.0
1.03771 0.00194273 0.0
1.0665 -0.0156011 0.0
0.863705 0.000858823 0.0
1.05787 -0.0280034 0.0
1.06194 -0.180373 0.0
0.902382 -0.00805927 0.0
1.04833 -0.00749028 0.0
0.875038 -0.0211844 0.0
1.0124 -0.00821719 0.0
0.625011 0.195523 0.0
0.909022 0.00252935 0.0
1.04319 -0.0137638 0.0
0.798302 -0.114326 0.0
0.970633 -0.124219 0.0
1.02193 -0.00518518 0.0
1.11939 0.0873773 0.0
0.966499 -0.0227214 0.0
0.950277 -0.0333381 0.0
1.2167 -0.198894 0.0
0.961551 -0.0534382 0.0
0.936586 -0.0212134 0.0
1.05104 -0.000500111 0.0
1.02188 -0.0253533 0.0
0.828872 0.0524689 0.0
0.984438 -0.0677932 0.0
0.937681 -0.027808 0.0
0.927466 -0.0477936 0.0
0.82921 0.056455 0.0
0.785427 -0.00176961 0.0
1.01516 0.00307647 0.0
0.773361 -0.0457789 0.0
1.0055 -0.0483904 0.0
1.02047 -0.00781425 0.0
0.959996 -0.0136389 0.0
0.437142 0.0100548 0.0
0.980151 -0.0133964 0.0
0.83001 -0.00150389 0.0
1.27655 -0.572465 0.0
1.06389 -0.0200837 0.0
1.00178 -0.0106787 0.0
0.847848 -0.00336985 0.0
0.972255 -0.0574204 0.0
0.902671 0.0169978 0.0
0.621167 -0.0812778 0.0
1.01178 -0.00904621 0.0
1.00018 -0.0741418 0.0
0.938674 -0.0613629 0.0
0.956206 -0.0393929 0.0
0.732339 0.190989 0.0
0.788549 -0.00331532 0.0
1.02668 -0.0736702 0.0
1.04817 -0.0103216 0.0
1.04011 -0.114512 0.0
0.588734 -0.0615109 0.0
1.07407 -0.111211 0.0
0.984352 -0.0426092 0.0
0.928507 0.000849564 0.0
1.03173 -0.047727 0.0
0.803818 -0.00450734 0.0
1.04101 -0.0655134 0.0
1.01683 -0.0478925 0.0
1.05441 -0.058523 0.0
0.796228 -0.00463674 0.0
0.977256 -0.0355966 0.0
1.07341 -0.0650116 0.0
0.901917 -0.0364563 0.0
1.03841 -0.0409735 0.0
1.04021 -0.108389 0.0
1.0486 0.0191044 0.0
1.0465 -0.0363348 0.0
1.29711 0.658023 0.0
1.056 -0.0429134 0.0
0.838523 -0.00311106 0.0
1.03842 0.00034699 0.0
0.554236 0.137405 0.0
0.874327 2.39821e-05 0.0
1.0506 -0.000180763 0.0
1.04166 -2.42065e-05 0.0
1.03465 0.000967973 0.0
0.8341 -8.31309e-05 0.0
1.0409 -0.000185315 0.0
1.05084 -0.000240732 0.0
1.04827 -0.0290431 0.0
1.03679 0.0387098 0.0
1.10582 -0.663747 0.0
0.874026 -0.000347215 0.0
0.83528 7.78959e-05 0.0
1.05224 -0.0237602 0.0
1.04814 -0.0176228 0.0
0.877169 -0.00711522 0.0
0.809546 -0.00136677 0.0
1.05158 -0.0190198 0.0
1.02549 0.00152009 0.0
1.05002 -0.000451326 0.0
1.04948 -0.000846673 0.0
0.875609 0.00139158 0.0
0.837392 -0.000309823 0.0
1.04915 -0.000333655 0.0
0.885339 0.00319413 0.0
0.849 0.00243598 0.0
1.05172 0.000262927 0.0
0.885359 0.00633842 0.0
0.852379 0.00254803 0.0
1.05345 -0.0128991 0.0
1.054 -0.0105579 0.0
1.03208 0.00259123 0.0
1.05334 -0.00529653 0.0
1.05329 -0.00705058 0.0
1.05246 -0.00638205 0.0
1.03904 -0.00289222 0.0
1.05763 -0.00895778 0.0
0.877382 0.00434869 0.0
0.815916 0.0022102 0.0
0.870873 0.000388892 0.0
0.834579 -0.0031295 0.0
0.876432 -0.0029825 0.0
0.84139 0.000964116 0.0
0.830198 -0.00101763 0.0
0.874844 -0.000699852 0.0
0.891871 -0.00238261 0.0
0.873205 0.00263959 0.0
0.814179 -0.00370426 0.0
0.840049 0.00395468 0.0
0.856591 -0.00272036 0.0
0.832166 0.00250468 0.0
0.832865 0.000183 0.0
0.83248 -8.89175e-05 0.0
0.835525 -0.00132179 0.0
0.834359 -0.000468197 0.0
0.827916 0.00100775 0.0
0.873828 0.000959358 0.0
0.887475 -0.000133492 0.0
0.833838 0.000336507 0.0
0.837932 -0.00522454 0.0
0.842915 0.00179806 0.0
0.831421 -0.000298384 0.0
0.873229 -0.00191191 0.0
0.766545 0.00796277 0.0
0.821956 0.00271578 0.0
0.828745 0.000379305 0.0
0.835325 0.00010869 0.0
0.813046 -0.000309907 0.0
0.831513 -0.00542247 0.0
0.828694 -0.000578085 0.0
0.838623 0.00105448 0.0
0.865252 -0.00714113 0.0
0.847659 -0.00221659 0.0
1.05281 -0.00601444 0.0
1.04836 -0.00184971 0.0
1.04844 -0.0139054 0.0
1.05103 -0.0090434 0.0
1.0513 -0.0109648 0.0
1.04524 -0.00516816 0.0
1.04762 -0.00569661 0.0
1.04619 -0.00690084 0.0
1.04911 -0.0018118 0.0
1.05181 -0.00471179 0.0
1.04882 -0.00964282 0.0
1.04672 -0.011361 0.0
1.04641 -0.0061888 0.0
1.05078 -0.00488385 0.0
1.05373 -0.00394724 0.0
1.04938 -0.00784938 0.0
1.04809 -0.00453841 0.0
1.05138 -0.00418994 0.0
1.04955 -0.00673348 0.0
1.05074 -0.00561458 0.0
1.05312 -0.00456318 0.0
1.05265 -0.00784392 0.0
1.05374 -0.0158211 0.0
1.04718 -0.00212466 0.0
1.05181 -0.0040821 0.0
1.05045 -0.00250129 0.0
1.05178 -0.00357365 0.0
1.04231 -0.00208082 0.0
1.05307 -0.00878677 0.0
1.05326 -0.00256175 0.0
1.05178 -0.00273668 0.0
1.04758 -0.00147846 0.0
1.05138 -0.00293119 0.0
1.05153 -0.00324335 0.0
1.04984 -0.00230589 0.0
1.05186 -0.00264259 0.0
1.0494 -0.00389827 0.0
1.05145 -0.00309805 0.0
1.04973 -0.00130456 0.0
1.04742 -0.00221805 0.0
1.05164 -0.00326201 0.0
1.04988 -0.00322508 0.0
1.05113 -0.00217841 0.0
1.05123 -0.00257603 0.0
1.05056 -0.00100183 0.0
1.05204 -0.00238071 0.0
1.052 -0.00177 0.0
1.04737 -0.000631788 0.0
1.0505 -0.00246199 0.0
1.04194 0.000143524 0.0
1.04932 -0.00127533 0.0
1.05112 -0.0014817 0.0
1.0516 -0.00209319 0.0
1.05248 -0.00157232 0.0
1.04955 -0.000751566 0.0
1.05149 -0.00225211 0.0
1.05202 -0.00116722 0.0
1.05206 -0.000801557 0.0
1.05127 -0.00138266 0.0
1.0509 -0.00150375 0.0
1.05148 -0.000229898 0.0
1.05051 0.000101541 0.0
1.05048 -0.00151858 0.0
1.04711 0.0014889 0.0
1.05229 -0.000507054 0.0
1.05215 -0.000897337 0.0
0.874585 0.000459319 0.0
1.05096 -6.64349e-05 0.0
1.04811 -0.000789409 0.0
1.04931 -0.000409841 0.0
1.0519 -0.000975877 0.0
1.05008 -0.0012788 0.0
1.05133 -0.000698163 0.0
1.05139 -0.0010164 0.0
1.05216 -0.000279544 0.0
1.05048 -0.000181908 0.0
1.04685 -0.000145494 0.0
1.04957 -0.00292418 0.0
1.04916 -0.000153608 0.0
1.0523 -0.000164663 0.0
1.05019 -0.00024747 0.0
1.05144 3.29243e-05 0.0
1.05029 -0.000495597 0.0
1.05088 -0.00127907 0.0
1.05138 -0.000130632 0.0
1.05148 -0.000267292 0.0
0.989748 -0.0134532 0.0
1.05093 -0.000409036 0.0
1.05146 -0.000661356 0.0
1.04782 -0.000493935 0.0
1.05137 -0.000644523 0.0
1.05122 -0.000261517 0.0
1.03747 -7.98605e-05 0.0
1.05046 -0.000867348 0.0
1.05007 -0.00061766 0.0
1.04787 0.000762846 0.0
1.05102 -0.00041266 0.0
1.04801 -0.000176768 0.0
1.05106 -0.000837269 0.0
1.05144 -0.00074269 0.0
1.05062 -4.89596e-05 0.0
1.09254 0.175477 0.0
1.04879 -0.00086399 0.0
1.03387 -0.0297683 0.0
1.05162 -0.000568904 0.0
1.05142 -0.000618235 0.0
1.04905 -0.00122033 0.0
1.04913 -2.2401e-05 0.0
1.04588 -0.000567119 0.0
1.04976 -0.00115999 0.0
1.05153 -0.000931712 0.0
1.04586 0.00086602 0.0
1.05116 -0.000742587 0.0
1.05092 -0.00116202 0.0
1.04936 -9.34466e-05 0.0
1.05043 8.9285e-05 0.0
1.05117 -0.00121114 0.0
0.854701 -0.00455429 0.0
1.03457 -0.00479384 0.0
1.05027 6.24104e-05 0.0
1.05067 -5.38139e-05 0.0
1.05077 -0.00118457 0.0
1.04986 0.000522083 0.0
1.05077 0.000736179 0.0
1.05019 -0.000210803 0.0
1.05043 -4.35372e-05 0.0
1.05009 -9.99597e-05 0.0
1.0504 -0.000159628 0.0
1.05048 -0.000284267 0.0
1.05056 -0.000246476 0.0
1.05072 -0.0001033 0.0
1.04287 -0.00188754 0.0
1.05055 -0.000316511 0.0
1.05067 -0.00083362 0.0
1.0511 -0.000623345 0.0
1.05043 -0.000510966 0.0
1.04894 0.000857359 0.0
1.05065 -0.000411652 0.0
1.60683 -0.0154103 0.0
1.04955 -1.73529e-05 0.0
1.05005 -0.000539404 0.0
1.0496 -0.000455401 0.0
1.04507 -0.000656373 0.0
1.04934 -8.20912e-05 0.0
1.04965 0.000378797 0.0
1.04779 -0.000291132 0.0
0.991469 -0.0440211 0.0
1.08921 -0.0394145 0.0
1.03719 0.00228224 0.0
1.05044 -0.000423556 0.0
1.07149 0.0392017 0.0
0.939806 -0.0975325 0.0
1.04308 0.000528141 0.0
1.07953 -0.0479844 0.0
1.04904 0.000126278 0.0
1.0443 -0.000412191 0.0
1.05041 -0.000335594 0.0
1.0495 -0.000549092 0.0
1.0003 -0.0119859 0.0
0.969072 -0.0260663 0.0
1.05068 -0.00037157 0.0
1.05078 -0.000415986 0.0
1.04988 -0.00014604 0.0
1.04234 -0.000150439 0.0
1.04714 0.176347 0.0
0.990865 -0.0130557 0.0
1.04858 0.000313856 0.0
0.796258 -0.0975448 0.0
1.1051 0.0696125 0.0
1.04957 -0.00425363 0.0
1.05084 -0.000226838 0.0
1.0499 0.000743998 0.0
1.04914 0.00120904 0.0
0.967108 -0.032767 0.0
1.05017 2.7745e-05 0.0
1.04793 -0.00339382 0.0
1.28813 0.203603 0.0
1.01559 -0.0502306 0.0
1.04663 -0.00519398 0.0
1.04499 -0.0363229 0.0
1.04128 -0.00800771 0.0
1.04937 -0.00313166 0.0
0.911445 -0.0829832 0.0
1.04471 -0.000223019 0.0
1.04947 0.00362611 0.0
1.04901 -0.0011783 0.0
1.05755 -0.0219439 0.0
0.952368 -0.10626 0.0
1.0013 -0.111061 0.0
1.04992 -0.000597872 0.0
1.34685 -0.566825 0.0
1.04921 0.00966358 0.0
1.04812 -0.00127086 0.0
1.05017 0.00659184 0.0
1.04692 -0.00040718 0.0
0.879537 0.00524904 0.0
1.04933 0.00216223 0.0
1.31513 -0.180946 0.0
1.02778 -0.0184114 0.0
1.04976 -0.00235168 0.0
0.609944 -0.543422 0.0
1.03805 -0.00102828 0.0
1.0452 -0.00606207 0.0
1.04586 -0.00350687 0.0
1.10209 -0.0810465 0.0
1.04807 0.00433359 0.0
0.886247 -0.0380447 0.0
1.04937 -0.00069609 0.0
1.04871 0.00121248 0.0
1.01958 -0.00768174 0.0
1.29669 -0.752246 0.0
0.957439 -0.00214237 0.0
1.0479 0.00273524 0.0
0.981002 0.015002 0.0
1.05325 0.033281 0.0
1.04934 -0.00628079 0.0
1.14561 0.251611 0.0
1.07414 0.0371774 0.0
1.07029 -0.0256339 0.0
1.04839 0.00213012 0.0
1.29076 -0.109226 0.0
0.957308 -0.0101901 0.0
1.14128 -0.534409 0.0
0.874093 0.00160848 0.0
0.873652 -0.00496292 0.0
1.04283 0.00242322 0.0
1.06129 0.0313212 0.0
1.07158 -0.0341304 0.0
1.05854 -0.0162228 0.0
0.833127 -0.000629917 0.0
1.0589 -0.0261821 0.0
0.831844 -0.0727079 0.0
1.04172 -0.0182104 0.0
0.89309 0.00153367 0.0
0.889136 -0.00754102 0.0
1.039 0.00348095 0.0
1.04615 -0.00356298 0.0
0.85935 -0.220291 0.0
1.04918 -0.00950751 0.0
1.51322 0.0128259 0.0
0.928101 0.0264522 0.0
0.87354 -0.135205 0.0
0.943467 -0.233137 0.0
1.04284 -0.00194572 0.0
0.951115 0.00187472 0.0
0.992783 0.0261665 0.0
1.15424 0.35196 0.0
0.82312 -7.75116e-05 0.0
1.02864 -0.000685974 0.0
1.10721 -0.0456652 0.0
0.84327 0.00110057 0.0
1.50563 0.532585 0.0
1.04293 -0.00474512 0.0
1.03155 -0.00401773 0.0
1.14316 0.0704131 0.0
1.0252 -0.00571863 0.0
1.01166 -0.000127611 0.0
0.808828 -0.270056 0.0
1.05029 -0.00107121 0.0
1.00932 0.0670604 0.0
1.04928 -2.62546e-05 0.0
1.01549 0.000136221 0.0
1.02367 -0.00131242 0.0
1.0281 0.0266454 0.0
1.29099 -0.245547 0.0
0.830465 -0.000474183 0.0
1.0049 2.84055e-05 0.0
0.882496 0.779354 0.0
1.09395 0.00456792 0.0
1.02417 0.0264799 0.0
1.25495 -0.0423447 0.0
0.822682 -0.00144671 0.0
1.04724 0.000688203 0.0
1.13002 -0.456431 0.0
0.218752 0.0358423 0.0
1.03928 -0.00688219 0.0
1.04352 -0.0135852 0.0
0.839659 0.00338888 0.0
0.975453 0.0137537 0.0
1.37781 -0.0982607 0.0
1.05952 -0.0115306 0.0
0.306048 0.0225629 0.0
0.994551 0.0116524 0.0
1.04746 0.000960059 0.0
1.0614 -0.0346623 0.0
1.02518 -0.00755364 0.0
1.0386 0.0087057 0.0
1.21398 0.136411 0.0
0.87353 -0.000189747 0.0
0.955385 -0.0131216 0.0
1.03367 0.0117982 0.0
1.02367 -0.0309954 0.0
1.33595 -0.592135 0.0
0.858105 -0.00311814 0.0
1.1492 -0.111708 0.0
1.0442 -0.00139244 0.0
1.16302 -0.0124694 0.0
0.764546 0.0958067 0.0
1.03566 0.0187968 0.0
0.889112 0.19991 0.0
1.04917 0.000102853 0.0
1.04787 -0.0131805 0.0
1.39129 -0.0438067 0.0
0.866881 0.00277595 0.0
0.87748 0.00710886 0.0
1.09809 0.0289348 0.0
0.442714 -0.107155 0.0
1.01188 0.0336235 0.0
0.821428 0.00104245 0.0
1.07805 0.0075004 0.0
1.10104 -0.0110123 0.0
1.05244 -0.00775975 0.0
0.873388 -0.0028168 0.0
0.86819 0.00197588 0.0
0.878712 0.00555839 0.0
0.811943 -0.00460562 0.0
0.883443 0.00151047 0.0
1.16567 0.653616 0.0
1.28036 0.00171632 0.0
1.02214 -0.00286198 0.0
0.896064 0.000579577 0.0
0.904308 -0.00525256 0.0
0.868949 0.000741803 0.0
1.03371 -0.0104285 0.0
0.873623 -0.0025515 0.0
1.60798 -0.0852245 0.0
1.11048 0.063701 0.0
0.93392 -0.0339905 0.0
1.0893 -0.0359259 0.0
1.46437 -0.431385 0.0
1.03255 -0.00213204 0.0
0.955915 -0.00968077 0.0
1.04943 -0.000339445 0.0
1.03415 -0.00298159 0.0
0.804817 -0.67288 0.0
1.0329 -0.00245316 0.0
1.0288 -0.00485197 0.0
1.03545 -0.0203577 0.0
1.03917 -0.00173465 0.0
1.35167 -0.121159 0.0
0.610037 0.136487 0.0
0.954253 -0.0225061 0.0
1.28785 0.5207 0.0
1.12256 -0.0675386 0.0
0.885372 -0.00378677 0.0
0.873925 -0.00265701 0.0
0.872135 -0.00165974 0.0
0.955945 -0.00630081 0.0
0.916949 0.106821 0.0
1.0497 0.000346961 0.0
1.03389 0.00246298 0.0
0.938022 0.136821 0.0
1.05575 -0.00754984 0.0
0.874832 0.000228222 0.0
0.955043 -0.00930006 0.0
0.863769 0.00290383 0.0
0.87005 -0.0043731 0.0
1.27938 0.275187 0.0
1.07844 0.0442373 0.0
1.37547 0.23825 0.0
1.0358 0.000143983 0.0
1.04056 -0.00222239 0.0
0.831339 -0.0106962 0.0
0.933637 -0.0064263 0.0
1.0518 0.000710936 0.0
1.04992 0.000666459 0.0
0.662305 -0.218077 0.0
1.61603 -0.178551 0.0
1.04077 -0.00223435 0.0
1.07024 0.104423 0.0
0.875056 -0.00461878 0.0
0.861289 -0.00243515 0.0
1.13275 -0.363112 0.0
0.96685 0.0389717 0.0
1.04888 5.64625e-05 0.0
0.886335 -0.000602565 0.0
1.01146 0.000207813 0.0
1.04831 -0.00113255 0.0
1.05199 -0.00899787 0.0
0.233989 -0.0366918 0.0
1.04111 -0.00955156 0.0
0.585274 -0.171899 0.0
1.04076 -0.00192378 0.0
1.35854 -0.0762909 0.0
0.872816 -0.00200069 0.0
1.03654 -0.00059691 0.0
1.05065 -0.00019618 0.0
1.03288 -0.00101628 0.0
1.02292 -0.0049955 0.0
1.1509 -0.932886 0.0
1.04803 0.00208694 0.0
1.60123 0.430005 0.0
0.868205 0.0329735 0.0
0.907814 0.0101601 0.0
1.04982 -0.00163043 0.0
1.04665 -0.0197707 0.0
1.04586 0.000195219 0.0
1.04483 -0.00021541 0.0
1.05304 -0.00152644 0.0
1.05009 -0.0021058 0.0
1.0369 -0.0260106 0.0
1.0444 -0.00116466 0.0
0.711559 0.0393006 0.0
1.04126 0.00133065 0.0
0.775676 0.0403038 0.0
0.891147 -0.00954953 0.0
1.05378 -0.164425 0.0
1.01349 -0.0205324 0.0
1.09039 -0.0649402 0.0
1.56943 -0.449714 0.0
0.309271 -0.0256361 0.0
1.01658 -0.0331417 0.0
1.09965 0.313575 0.0
1.09321 -0.0428746 0.0
1.04082 0.302339 0.0
1.52284 -0.103988 0.0
0.94006 -0.53484 0.0
1.36219 0.145956 0.0
1.22138 0.0696562 0.0
1.24998 -0.497457 0.0
0.597223 -0.0878691 0.0
1.03981 -0.00234218 0.0
1.27775 -0.409248 0.0
0.828268 -0.00163376 0.0
1.35402 -0.075591 0.0
1.52018 0.0671485 0.0
1.04825 0.0018105 0.0
0.725047 -0.00366937 0.0
0.695905 -0.000707013 0.0
0.259066 -0.223337 0.0
0.947673 0.0247452 0.0
0.659248 -0.0544247 0.0
1.03533 -0.0968955 0.0
1.16348 0.116552 0.0
0.821403 0.00365742 0.0
1.05325 -0.0118585 0.0
1.32714 -0.0978143 0.0
0.957665 -0.00601307 0.0
0.418723 -0.596973 0.0
1.20232 0.271118 0.0
0.950091 -0.071064 0.0
0.184582 -0.320571 0.0
0.941941 0.0524152 0.0
1.27778 0.270283 0.0
0.943486 0.0818196 0.0