# vtk DataFile Version 3.0
Malha 2D com triângulos e temperatura
ASCII
DATASET UNSTRUCTURED_GRID

POINTS 688 double
0 0 0
2.2 0 0
2.2 0.41 0
0 0.41 0
0.25 0.2 0
0.05 0 0
0.1 0 0
0.15 0 0
0.2 0 0
0.25 0 0
0.3 0 0
0.35 0 0
0.4 0 0
0.45 0 0
0.5 0 0
0.55 0 0
0.6 0 0
0.65 0 0
0.7 0 0
0.75 0 0
0.8 0 0
0.85 0 0
0.9 0 0
0.95 0 0
1 0 0
1.05 0 0
1.1 0 0
1.15 0 0
1.2 0 0
1.25 0 0
1.3 0 0
1.35 0 0
1.4 0 0
1.45 0 0
1.5 0 0
1.55 0 0
1.6 0 0
1.65 0 0
1.7 0 0
1.75 0 0
1.8 0 0
1.85 0 0
1.9 0 0
1.95 0 0
2 0 0
2.05 0 0
2.1 0 0
2.15 0 0
2.2 0.0455556 0
2.2 0.0911111 0
2.2 0.136667 0
2.2 0.182222 0
2.2 0.227778 0
2.2 0.273333 0
2.2 0.318889 0
2.2 0.364444 0
2.15 0.41 0
2.1 0.41 0
2.05 0.41 0
2 0.41 0
1.95 0.41 0
1.9 0.41 0
1.85 0.41 0
1.8 0.41 0
1.75 0.41 0
1.7 0.41 0
1.65 0.41 0
1.6 0.41 0
1.55 0.41 0
1.5 0.41 0
1.45 0.41 0
1.4 0.41 0
1.35 0.41 0
1.3 0.41 0
1.25 0.41 0
1.2 0.41 0
1.15 0.41 0
1.1 0.41 0
1.05 0.41 0
1 0.41 0
0.95 0.41 0
0.9 0.41 0
0.85 0.41 0
0.8 0.41 0
0.75 0.41 0
0.7 0.41 0
0.65 0.41 0
0.6 0.41 0
0.55 0.41 0
0.5 0.41 0
0.45 0.41 0
0.4 0.41 0
0.35 0.41 0
0.3 0.41 0
0.25 0.41 0
0.2 0.41 0
0.15 0.41 0
0.1 0.41 0
0.05 0.41 0
0 0.364444 0
0 0.318889 0
0 0.273333 0
0 0.227778 0
0 0.182222 0
0 0.136667 0
0 0.0911111 0
0 0.0455556 0
0.248831 0.210749 0
0.245379 0.220994 0
0.239805 0.230259 0
0.232369 0.238108 0
0.22342 0.244176 0
0.213376 0.248177 0
0.202707 0.249927 0
0.191911 0.249341 0
0.181493 0.246449 0
0.171941 0.241384 0
0.1637 0.234385 0
0.157157 0.225778 0
0.152617 0.215965 0
0.150293 0.205406 0
0.150293 0.194594 0
0.152617 0.184035 0
0.157157 0.174222 0
0.1637 0.165615 0
0.171941 0.158616 0
0.181493 0.153551 0
0.191911 0.150659 0
0.202707 0.150073 0
0.213376 0.151823 0
0.22342 0.155824 0
0.232369 0.161892 0
0.239805 0.169741 0
0.245379 0.179006 0
0.248831 0.189251 0
0.421316 0.36725 0
0.426705 0.0366526 0
2.16065 0.209201 0
1.52286 0.0417259 0
0.626017 0.37111 0
1.3257 0.0414552 0
1.02471 0.0432237 0
1.17293 0.0421053 0
0.82501 0.36678 0
1.6757 0.370064 0
1.91628 0.0358195 0
1.82501 0.366432 0
0.723429 0.0421499 0
1.425 0.366699 0
1.97461 0.366224 0
1.12167 0.370137 0
0.975 0.368691 0
0.877672 0.0412714 0
1.27686 0.36884 0
1.725 0.0433013 0
0.579174 0.0416211 0
0.325589 0.363848 0
0.319111 0.0378151 0
0.0394523 0.296111 0
0.0329929 0.11602 0
0.142108 0.187428 0
1.57555 0.364352 0
2.02603 0.0412138 0
0.725007 0.36763 0
0.528647 0.366595 0
1.62699 0.0400272 0
1.82929 0.0421255 0
1.425 0.0418325 0
2.07474 0.364233 0
0.125 0.0433013 0
0.161245 0.155011 0
0.225 0.366699 0
0.210027 0.258536 0
2.16034 0.115449 0
0.0371627 0.204103 0
0.142311 0.212698 0
0.220283 0.0418538 0
0.221965 0.145099 0
0.196802 0.141016 0
0.119851 0.373394 0
0.161112 0.245979 0
0.184892 0.258024 0
2.16342 0.30039 0
2.12627 0.047699 0
0.183325 0.0412617 0
0.152317 0.0762976 0
0.203864 0.0745802 0
0.234384 0.0774346 0
0.215969 0.103585 0
0.245651 0.104548 0
0.186562 0.100216 0
0.268213 0.0793029 0
0.272149 0.109155 0
0.242885 0.159377 0
0.253088 0.128261 0
0.278718 0.13214 0
0.295917 0.115997 0
0.301728 0.138858 0
0.321266 0.12205 0
0.324642 0.151724 0
0.255978 0.181139 0
0.350123 0.129049 0
0.357539 0.159885 0
0.333541 0.181416 0
0.36451 0.19182 0
0.250573 0.230419 0
0.391277 0.169722 0
0.339477 0.212308 0
0.39836 0.205386 0
0.427326 0.18117 0
0.258724 0.206387 0
0.434392 0.219501 0
0.466446 0.193907 0
0.472865 0.243064 0
0.507358 0.209962 0
0.40073 0.238916 0
0.499135 0.1652 0
0.5419 0.179224 0
0.550176 0.22496 0
0.585844 0.194129 0
0.594095 0.240176 0
0.630701 0.209517 0
0.621901 0.162424 0
0.667731 0.178095 0
0.676485 0.226008 0
0.713906 0.194492 0
0.722681 0.242872 0
0.760442 0.211047 0
0.751547 0.162356 0
0.798298 0.179 0
0.807147 0.227866 0
0.845136 0.195775 0
0.854541 0.243285 0
0.892163 0.212344 0
0.902461 0.257947 0
0.93935 0.228684 0
0.930236 0.180167 0
0.977229 0.197066 0
0.986264 0.245777 0
1.02423 0.213991 0
1.0331 0.263172 0
1.07123 0.230975 0
1.06234 0.181814 0
1.10938 0.198721 0
1.09996 0.151012 0
1.14691 0.168161 0
1.15631 0.215921 0
1.19446 0.183678 0
1.20343 0.232645 0
1.2416 0.200322 0
1.23272 0.151117 0
1.2798 0.167954 0
1.28868 0.217167 0
1.32685 0.184862 0
1.33573 0.234064 0
1.3739 0.201768 0
0.789327 0.130094 0
1.38279 0.25097 0
1.42096 0.218674 0
1.41207 0.169471 0
1.45912 0.186378 0
1.46801 0.235581 0
1.50618 0.203285 0
1.51506 0.252489 0
1.55323 0.220192 0
1.54435 0.170989 0
1.5914 0.187896 0
1.60029 0.2371 0
1.63846 0.204803 0
1.64734 0.254007 0
1.68551 0.221711 0
1.67663 0.172507 0
1.72368 0.189415 0
1.73831 0.241548 0
1.77074 0.206322 0
1.76185 0.157121 0
1.8091 0.17428 0
1.81866 0.220885 0
1.85608 0.190621 0
1.86521 0.238879 0
1.90289 0.207671 0
1.91264 0.253772 0
1.94955 0.224093 0
1.94067 0.17593 0
1.98705 0.192828 0
1.99572 0.240997 0
2.0329 0.209382 0
2.02422 0.16161 0
2.04166 0.257286 0
0.419739 0.142889 0
0.968291 0.148058 0
0.310035 0.202211 0
0.316128 0.230863 0
0.658501 0.130052 0
0.685107 0.27445 0
1.34462 0.283266 0
1.16528 0.264896 0
1.84735 0.142081 0
0.557687 0.270604 0
1.21234 0.281769 0
1.58252 0.138692 0
0.533563 0.131933 0
0.489835 0.120004 0
1.45024 0.137174 0
2.06974 0.17785 0
2.06113 0.130713 0
0.283221 0.152215 0
0.921299 0.131169 0
0.343836 0.24295 0
0.319203 0.260002 0
0.235529 0.249617 0
0.347029 0.274099 0
0.291856 0.246297 0
0.295938 0.27548 0
0.272836 0.264931 0
0.27461 0.290522 0
0.251228 0.280224 0
0.253903 0.305808 0
0.232795 0.296709 0
0.298805 0.304058 0
1.0801 0.280176 0
1.47689 0.284785 0
1.05315 0.133468 0
1.09741 0.0970974 0
1.82427 0.272867 0
1.2701 0.118911 0
0.816337 0.277695 0
1.40432 0.121101 0
1.04244 0.320388 0
0.959305 0.103028 0
1.60923 0.286151 0
0.601674 0.286775 0
2.00739 0.280923 0
0.342592 0.0992796 0
0.375237 0.105729 0
1.52511 0.298716 0
1.53114 0.119823 0
0.733824 0.287256 0
0.613372 0.114719 0
0.645558 0.0838585 0
2.015 0.115858 0
1.22718 0.0994086 0
1.39166 0.29817 0
1.3564 0.329754 0
0.744134 0.11556 0
0.782853 0.0841771 0
0.826899 0.10047 0
1.17418 0.314034 0
0.520902 0.0906676 0
1.4967 0.329429 0
1.26048 0.0740437 0
0.365514 0.0716355 0
0.229836 0.121666 0
1.57453 0.09137 0
1.61938 0.110761 0
0.481716 0.0753791 0
0.14093 0.2 0
0.130041 0.192847 0
0.131507 0.178608 0
0.117165 0.184444 0
0.120761 0.164701 0
0.1156 0.199931 0
0.100804 0.174136 0
0.102545 0.153034 0
0.12169 0.143342 0
0.104604 0.13008 0
0.0809304 0.161171 0
0.128077 0.121858 0
0.106825 0.102278 0
0.082498 0.188728 0
0.0314738 0.158621 0
2.04625 0.310891 0
2.08475 0.27479 0
2.11394 0.138117 0
0.233149 0.151108 0
0.258724 0.193613 0
0.268522 0.184917 0
1.65397 0.301059 0
0.145962 0.224912 0
0.132503 0.222267 0
0.13746 0.236947 0
0.120111 0.233525 0
0.126593 0.25219 0
0.105294 0.247497 0
0.113343 0.26868 0
0.133997 0.271734 0
0.121622 0.292031 0
0.147069 0.292141 0
0.0896563 0.267464 0
0.0813699 0.243294 0
0.163574 0.276939 0
0.172694 0.298517 0
0.1583 0.321483 0
0.186823 0.322499 0
0.173113 0.348195 0
0.0322087 0.250839 0
0.211694 0.124337 0
0.250615 0.169546 0
0.256243 0.157787 0
0.170796 0.14736 0
0.156755 0.141654 0
0.17187 0.131161 0
0.147502 0.152323 0
0.198129 0.260662 0
0.206368 0.271663 0
0.220945 0.26864 0
0.190489 0.270628 0
0.198813 0.286731 0
0.55749 0.322277 0
0.520166 0.299321 0
0.235199 0.330709 0
0.267109 0.337524 0
0.172324 0.25256 0
0.255974 0.218859 0
0.268327 0.214994 0
0.184197 0.143083 0
0.188721 0.129954 0
0.209694 0.139146 0
0.269223 0.244007 0
0.252374 0.255244 0
0.282229 0.0410487 0
1.21977 0.330016 0
1.25733 0.296346 0
2.09358 0.0890819 0
0.244373 0.240984 0
0.0838116 0.115786 0
0.0797544 0.0817835 0
0.237449 0.264854 0
0.247178 0.146225 0
0.270136 0.2 0
0.28023 0.191334 0
0.263476 0.170737 0
0.371486 0.368728 0
0.396124 0.330051 0
0.440314 0.325693 0
0.357693 0.329668 0
0.476576 0.362035 0
0.29587 0.222914 0
0.307627 0.175476 0
0.079599 0.0406461 0
0.146062 0.252571 0
0.15162 0.125025 0
0.417223 0.294608 0
0.457089 0.286958 0
0.036619 0.338729 0
0.0713014 0.322193 0
0.0735823 0.36704 0
0.041143 0.0722223 0
0.693501 0.32349 0
0.145406 0.175484 0
0.138777 0.164467 0
0.300367 0.0698839 0
0.167025 0.112083 0
0.146978 0.105544 0
0.151909 0.236762 0
0.444611 0.106436 0
0.909355 0.0817561 0
0.282901 0.370713 0
1.61474 0.330739 0
0.578053 0.368179 0
0.824695 0.0487848 0
2.09634 0.3213 0
2.02276 0.364865 0
2.12532 0.363702 0
1.09789 0.328757 0
0.161137 0.260089 0
2.07793 0.225752 0
2.12079 0.240944 0
2.0747 0.0437362 0
1.89402 0.158846 0
1.93154 0.128738 0
1.8848 0.111477 0
1.8384 0.0926484 0
1.87744 0.0655304 0
1.7913 0.0793874 0
1.9712 0.046671 0
1.92502 0.366682 0
1.94563 0.325156 0
1.89941 0.326645 0
1.87499 0.367178 0
1.84989 0.323491 0
1.7997 0.321303 0
1.77183 0.280326 0
1.75031 0.321965 0
1.77491 0.365615 0
2.11727 0.191885 0
0.883187 0.163467 0
1.71449 0.140266 0
1.667 0.125342 0
1.70591 0.0884759 0
1.67732 0.042286 0
1.52278 0.370513 0
1.37512 0.04128 0
1.34848 0.0834574 0
0.776093 0.367587 0
1.125 0.0433013 0
1.15 0.0866019 0
1.07442 0.0496847 0
0.974527 0.0370837 0
1.47464 0.0427918 0
1.44953 0.0873752 0
1.17595 0.362984 0
1.025 0.366699 0
0.925007 0.367031 0
0.95 0.323404 0
0.897321 0.326356 0
0.874563 0.367261 0
0.846552 0.324465 0
1.62923 0.156667 0
1.32319 0.13033 0
1.69342 0.270472 0
1.49568 0.156227 0
1.56237 0.268721 0
1.44 0.319169 0
1.43005 0.267892 0
1.36502 0.152565 0
0.993446 0.294003 0
1.30179 0.321101 0
1.18235 0.127964 0
1.25016 0.2491 0
1.29638 0.266841 0
1.11824 0.247967 0
1.12945 0.294699 0
1.01527 0.165035 0
0.836192 0.147197 0
1.4998 0.0831488 0
1.00655 0.118664 0
0.872896 0.117126 0
0.70523 0.146383 0
1.96013 0.276645 0
0.769406 0.257102 0
0.699552 0.0908977 0
2.1587 0.162257 0
1.97813 0.145326 0
0.646036 0.302035 0
0.799423 0.326603 0
0.515621 0.255445 0
1.72538 0.366474 0
1.97009 0.0998346 0
1.57108 0.313772 0
0.577925 0.14549 0
0.638911 0.256447 0
0.407352 0.0771641 0
0.525103 0.042511 0
0.674231 0.370698 0
1.69802 0.321701 0
0.56947 0.0908728 0
1.75459 0.110239 0
1.80084 0.126127 0
0.673535 0.0431435 0
1.57391 0.0465733 0
2.04571 0.0828469 0
0.10002 0.225545 0
0.0788152 0.21577 0
0.369719 0.224393 0
0.210352 0.308739 0
1.22342 0.0432967 0
[...]
CELL_DATA 1241
VECTORS velocity double
1.03001 -0.00319884 0.0
1.20757 0.0684164 0.0
0.505923 7.98337e-05 0.0
0.968278 0.0052198 0.0
1.03366 0.0087452 0.0
1.42154 0.101706 0.0
1.12693 -0.000679215 0.0
0.998288 -0.00118428 0.0
0.366387 0.0149858 0.0
1.1582 0.00102966 0.0
1.31249 -0.120014 0.0
1.31627 0.126429 0.0
0.865775 -0.16056 0.0
1.01452 0.00445185 0.0
0.991465 0.00740513 0.0
1.4644 -0.0310041 0.0
0.981208 0.00214439 0.0
0.479417 0.0602845 0.0
1.1621 0.0637534 0.0
1.64789 -0.252951 0.0
1.03411 0.00605565 0.0
1.058 -0.065789 0.0
1.0277 0.00282638 0.0
1.25322 0.904696 0.0
1.07391 -0.00080838 0.0
1.03769 0.0040028 0.0
1.29858 -0.198722 0.0
1.07466 -0.024761 0.0
1.32176 -0.0836859 0.0
1.46075 -0.0632752 0.0
1.33199 0.0901753 0.0
0.857396 -0.0377393 0.0
1.51753 0.000432178 0.0
1.01306 0.00303721 0.0
1.24773 -0.0583808 0.0
1.35795 0.155848 0.0
1.20291 -0.0567393 0.0
1.05044 -0.167812 0.0
0.359489 0.0204507 0.0
1.38114 0.14016 0.0
1.76558 -0.178196 0.0
1.41559 -0.0438771 0.0
1.05284 -0.236957 0.0
0.560384 0.0064779 0.0
1.39862 -0.166104 0.0
0.553535 -0.00264927 0.0
1.20327 0.100473 0.0
1.10407 0.0244344 0.0
1.61328 -0.312102 0.0
1.24221 -0.0124931 0.0
1.18256 0.000328969 0.0
1.29103 -0.417383 0.0
0.872133 -0.00449272 0.0
1.40265 -0.0846754 0.0
1.77632 -0.278367 0.0
1.51599 -0.0312172 0.0
1.13854 -0.0387693 0.0
1.11985 -0.000887125 0.0
1.66012 -0.0974352 0.0
1.68796 -0.197709 0.0
1.15864 0.847068 0.0
1.01008 -9.4735e-05 0.0
0.19911 0.0328796 0.0
1.03897 0.00791693 0.0
-0.242856 0.0707087 0.0
1.33193 0.227381 0.0
-0.275348 0.0889807 0.0
1.14785 0.00126516 0.0
0.853266 -0.0266383 0.0
0.223513 0.0256972 0.0
1.14864 -0.00175227 0.0
0.796158 0.0128657 0.0
1.14801 -0.00102657 0.0
0.795339 -0.0163783 0.0
1.17414 0.00602492 0.0
0.881202 0.156908 0.0
0.952005 0.00446131 0.0
1.63311 -0.0443645 0.0
0.972842 -0.0355013 0.0
0.623405 -0.000244186 0.0
1.75266 -0.382076 0.0
1.15963 -0.24633 0.0
0.652754 0.0100805 0.0
1.26121 -0.226675 0.0
1.34582 0.169906 0.0
0.91871 -0.0663415 0.0
1.21236 0.181451 0.0
0.0938944 0.101249 0.0
1.83941 0.529591 0.0
1.16368 0.00258224 0.0
1.27465 0.00864081 0.0
-0.185288 -0.0121767 0.0
-0.346679 0.0810262 0.0
1.43838 -0.0669958 0.0
1.17811 -0.0400081 0.0
1.00243 0.000906959 0.0
0.853235 -0.0277936 0.0
-0.186062 0.0913295 0.0
1.01339 -0.00824575 0.0
-0.23852 0.116881 0.0
1.08215 -0.0985553 0.0
1.14262 -0.00956581 0.0
0.9552 -0.000755641 0.0
1.64119 -0.160219 0.0
1.74345 -0.67056 0.0
1.27335 -0.39783 0.0
1.07437 -0.0648413 0.0
0.502336 -0.0219569 0.0
1.78882 0.64933 0.0
1.18872 0.00211566 0.0
1.4828 -0.112531 0.0
1.23607 0.192973 0.0
0.132355 0.0749023 0.0
1.44148 -0.0270559 0.0
1.07708 0.0156295 0.0
1.44263 0.040017 0.0
1.41118 0.00668795 0.0
1.38964 0.0511974 0.0
1.05682 0.000715613 0.0
0.261706 0.0424947 0.0
1.19232 0.0411677 0.0
1.5198 0.581359 0.0
1.25082 0.110313 0.0
0.918953 -0.0632128 0.0
0.731298 -0.101533 0.0
1.20669 0.0871922 0.0
1.44264 -0.0450847 0.0
1.10707 0.0226708 0.0
1.75068 0.501072 0.0
0.549791 -0.0712806 0.0
1.14798 -0.0101022 0.0
0.615011 -0.00277475 0.0
0.884508 0.0635394 0.0
1.60196 -0.0190675 0.0
1.02448 -0.155687 0.0
-0.274355 0.0744064 0.0
0.123717 0.0592305 0.0
1.21687 0.084112 0.0
1.04369 -0.0260056 0.0
1.66477 -0.761373 0.0
1.50088 0.00353497 0.0
1.03612 0.00178415 0.0
1.07832 -0.244811 0.0
1.00104 0.00775196 0.0
1.52605 0.00949257 0.0
0.02987 0.0326499 0.0
-0.253244 0.0361449 0.0
-0.176457 0.00654887 0.0
0.653596 0.0130075 0.0
0.661803 -0.0133275 0.0
0.555271 -0.101468 0.0
1.03077 -0.00788407 0.0
1.79732 -0.33161 0.0
1.05252 -0.155979 0.0
1.20282 -0.0491869 0.0
1.20456 0.0543789 0.0
0.542334 0.000224431 0.0
1.64229 0.0716392 0.0
0.861285 0.0322569 0.0
1.23872 -0.0586629 0.0
-0.231792 0.0502674 0.0
1.74067 0.445534 0.0
1.13626 0.00377014 0.0
1.22209 -0.204924 0.0
1.13153 0.0331022 0.0
1.0542 0.13014 0.0
0.999845 -0.00169358 0.0
0.987104 0.109614 0.0
0.591431 -0.00262758 0.0
1.16686 -0.0318083 0.0
0.919847 -0.0257639 0.0
1.19471 0.00270981 0.0
1.36512 0.264745 0.0
1.17978 0.0887047 0.0
1.10174 0.00108865 0.0
1.11232 0.00174661 0.0
1.18192 0.197986 0.0
1.12017 -0.287485 0.0
1.11023 0.00689932 0.0
1.16582 -0.224865 0.0
1.11546 0.00446827 0.0
0.3668 0.108485 0.0
1.08796 -0.644627 0.0
0.730393 -0.126992 0.0
1.01935 -0.00545947 0.0
0.765448 -0.0788292 0.0
0.761802 -0.0634903 0.0
1.02865 0.00337257 0.0
1.05543 0.0958525 0.0
0.460787 0.0469616 0.0
0.889906 -0.830252 0.0
1.77882 0.34383 0.0
1.02598 -0.00148147 0.0
0.979327 0.00862866 0.0
0.666847 0.0600257 0.0
0.856964 0.0591435 0.0
0.397677 0.0589468 0.0
1.01567 -0.0127379 0.0
1.42771 -0.0322444 0.0
1.44975 0.581044 0.0
1.15454 0.19295 0.0
1.06568 -0.0145576 0.0
1.42685 0.0383677 0.0
1.04464 -0.0954133 0.0
1.39477 -0.0940086 0.0
1.43602 -0.0447683 0.0
0.486764 0.025579 0.0
0.64839 0.011875 0.0
0.892228 -0.0237586 0.0
0.849167 0.0343359 0.0
0.574203 0.0151904 0.0
0.552378 -0.00183503 0.0
1.79031 0.285059 0.0
1.10901 0.00648725 0.0
1.44261 -0.0058407 0.0
1.11694 0.00725366 0.0
0.744985 -0.0792797 0.0
1.50923 -0.0939544 0.0
1.17054 -0.0282862 0.0
1.14625 -0.00808302 0.0
0.8331 -0.0495762 0.0
1.6715 -0.0681936 0.0
1.00836 0.0547655 0.0
0.999237 0.0130821 0.0
0.952848 -0.0269421 0.0
1.19391 0.00217307 0.0
1.43253 -0.140624 0.0
1.73068 -0.600517 0.0
1.16655 -0.0053304 0.0
1.17676 -0.00728401 0.0
1.00775 -0.00151163 0.0
1.06356 -0.13277 0.0
1.02412 -0.00711661 0.0
0.995485 -0.00429777 0.0
1.25908 0.3108 0.0
1.03831 -0.256488 0.0
1.10222 0.175215 0.0
1.3158 0.135285 0.0
0.75456 -0.108591 0.0
0.355044 -0.0454433 0.0
0.956211 0.0154044 0.0
1.43871 0.0569282 0.0
1.42224 0.91811 0.0
0.682942 -0.0851606 0.0
1.13665 -0.0120633 0.0
1.70479 0.138446 0.0
1.0973 -0.898878 0.0
0.868446 -0.177558 0.0
1.12944 -0.0363707 0.0
0.5985 -0.00695229 0.0
1.02411 0.0264797 0.0
0.585388 -0.00851437 0.0
1.03239 -0.00237031 0.0
1.18866 0.00318886 0.0
0.655145 -0.0116243 0.0
0.764087 -0.0343281 0.0
1.09491 -0.285412 0.0
1.32179 -0.107011 0.0
1.18728 0.00151701 0.0
1.01192 -0.00482596 0.0
1.01986 0.00905295 0.0
0.548611 -0.00488413 0.0
1.1885 0.00429448 0.0
0.723756 -0.0262191 0.0
1.11578 0.0426335 0.0
1.01065 -0.00763687 0.0
0.602988 0.00374377 0.0
1.24056 -0.111811 0.0
1.22928 -0.174621 0.0
0.777141 -0.0270412 0.0
1.14306 -0.0659404 0.0
0.622424 0.00083443 0.0
0.995086 -0.0116897 0.0
0.121429 0.0705471 0.0
1.17444 -0.000313197 0.0
1.17278 -0.00680377 0.0
0.632662 -0.00408266 0.0
0.946135 -0.19682 0.0
0.994147 -0.0119484 0.0
1.42771 0.158709 0.0
1.16994 0.00249487 0.0
1.19515 2.93088e-05 0.0
1.2236 -0.170804 0.0
1.19739 -0.00136698 0.0
1.19539 0.000844181 0.0
1.16377 -0.0133094 0.0
0.944112 -0.116032 0.0
0.835801 0.0428402 0.0
1.19894 -0.00334415 0.0
1.19457 -6.72515e-05 0.0
1.19219 -0.0013723 0.0
0.634162 0.070327 0.0
0.517918 0.0046376 0.0
0.992342 0.00648921 0.0
0.584912 -0.00720002 0.0
1.19763 -0.00299354 0.0
1.01103 -0.0135346 0.0
1.14261 0.00970743 0.0
-0.257372 -0.0272663 0.0
0.989309 -0.0071488 0.0
0.551488 -0.00237029 0.0
1.31987 -0.604968 0.0
1.11787 -0.00648121 0.0
0.986813 -0.0119802 0.0
0.56933 -0.00871235 0.0
1.19662 -0.00153936 0.0
0.858791 0.0416187 0.0
0.571978 0.00143317 0.0
1.00487 -0.0108797 0.0
1.19849 -0.00375961 0.0
1.19192 -0.0019045 0.0
1.19409 -0.0012723 0.0
0.657771 -0.00510575 0.0
0.499574 0.00160005 0.0
1.19781 -0.00480119 0.0
1.14466 -0.0742255 0.0
1.18059 -0.00590737 0.0
0.640107 0.00946057 0.0
1.16698 -0.00691184 0.0
1.18978 -0.00258284 0.0
1.18048 0.00062988 0.0
1.20092 -0.00470507 0.0
0.513383 -0.00549953 0.0
1.19702 -0.00450904 0.0
1.19621 -0.00375842 0.0
1.19203 -0.00530023 0.0
0.505963 -0.00249236 0.0
1.18395 -0.000425127 0.0
1.16545 -0.00460302 0.0
1.17439 -0.0010371 0.0
1.19951 -0.00479418 0.0
1.1729 -0.160693 0.0
1.12182 0.000630718 0.0
1.2013 -0.00532642 0.0
1.35098 0.668227 0.0
1.19033 -0.00482007 0.0
0.556604 -0.00570408 0.0
1.08536 -0.0187005 0.0
0.601967 0.00820345 0.0
0.589525 -0.00724331 0.0
1.13115 0.00528025 0.0
1.0848 -0.00876166 0.0
1.05999 -0.00359966 0.0
0.529995 -0.00651708 0.0
1.09043 -0.018104 0.0
1.13748 0.00400557 0.0
1.19962 -0.00566109 0.0
1.08303 0.142258 0.0
1.15582 -0.697187 0.0
0.566058 -0.00190249 0.0
0.522493 -0.00376082 0.0
1.19691 -0.00465625 0.0
1.19801 -0.00603317 0.0
0.625715 -0.0202671 0.0
0.514666 -0.0104714 0.0
1.19524 -0.00413592 0.0
0.993659 0.0120819 0.0
1.16226 0.00766099 0.0
1.14409 -0.00447067 0.0
0.574295 0.00957287 0.0
0.527743 -0.0007728 0.0
1.14802 0.0138485 0.0
0.619591 0.0116848 0.0
0.584024 0.0127244 0.0
1.16882 0.00519072 0.0
0.632507 0.0203638 0.0
0.587055 0.000409814 0.0
1.18921 -0.00422072 0.0
1.18039 -0.00417984 0.0
0.973411 0.0128827 0.0
1.18844 -0.00343673 0.0
1.1665 -0.00374741 0.0
1.1937 -0.00377982 0.0
0.996882 0.00814194 0.0
1.14198 -0.0036026 0.0
0.63487 0.00672411 0.0
0.532876 0.0134296 0.0
0.584056 0.0118352 0.0
0.510234 -0.00845019 0.0
0.572579 -0.000438664 0.0
0.586397 -0.00382951 0.0
0.549159 -0.00175397 0.0
0.629732 -0.0124357 0.0
0.589928 -0.00424743 0.0
0.603473 0.0116834 0.0
0.530984 -0.0062392 0.0
0.573172 0.0140143 0.0
0.54525 -0.00019363 0.0
0.664775 0.021561 0.0
0.566361 0.00931837 0.0
0.563131 -0.0104927 0.0
0.527837 0.0018148 0.0
0.555667 -0.00123037 0.0
0.541306 0.0066476 0.0
0.604046 -0.00807482 0.0
0.581512 -0.00161685 0.0
0.589957 -0.00699553 0.0
0.567384 -0.0134261 0.0
0.564049 0.00475528 0.0
0.552106 -0.000743622 0.0
0.575568 0.00218013 0.0
0.523157 -0.0152396 0.0
0.509653 0.0192116 0.0
0.49981 0.00244555 0.0
0.550268 -0.00597502 0.0
0.531689 0.00340153 0.0
0.632765 -0.0211334 0.0
0.527729 0.00442006 0.0
0.514106 0.00437081 0.0
0.554589 0.00016129 0.0
0.533466 -0.00291484 0.0
1.16539 -0.00316818 0.0
1.14758 -0.00383111 0.0
1.197 -0.00563155 0.0
1.19682 -0.00454929 0.0
1.19868 -0.00459298 0.0
1.10934 -0.00480224 0.0
1.17587 -0.00472658 0.0
1.15934 -0.00382143 0.0
1.17002 0.00105085 0.0
1.14485 -0.00396222 0.0
1.18469 -0.00562341 0.0
1.18611 -0.00598656 0.0
1.15609 -0.00406056 0.0
1.19509 -0.00349565 0.0
1.17785 -0.00300487 0.0
1.19401 -0.00463012 0.0
1.17306 -0.00510547 0.0
1.14313 -0.00128759 0.0
1.19169 -0.00488318 0.0
1.19678 -0.00385426 0.0
1.18679 -0.00277253 0.0
1.19526 -0.00408287 0.0
1.1908 -0.00482019 0.0
1.14336 -0.00636058 0.0
1.19702 -0.00264385 0.0
1.17925 -0.00188909 0.0
1.19533 -0.00216547 0.0
1.11017 0.000652371 0.0
1.17883 -0.00373858 0.0
1.17518 -0.00112007 0.0
1.19386 -0.00201807 0.0
1.15912 0.000182182 0.0
1.19185 -0.00210744 0.0
1.19378 -0.00206669 0.0
1.17237 0.000627741 0.0
1.19595 -0.00194734 0.0
1.18561 -0.0028477 0.0
1.19124 -0.00129817 0.0
1.14191 -0.00541073 0.0
1.16017 -0.000610475 0.0
1.19301 -0.00148816 0.0
1.18419 -0.00231835 0.0
1.18511 -0.000663221 0.0
1.18315 0.000548046 0.0
1.15939 -0.00994428 0.0
1.1935 -0.00108093 0.0
1.19135 -0.000737077 0.0
1.12643 -0.0030953 0.0
1.17617 -0.00286084 0.0
1.11144 0.00495879 0.0
1.16488 -0.0022657 0.0
1.17606 -0.00225445 0.0
1.18515 -0.0027205 0.0
1.19176 -0.00119852 0.0
1.16167 -0.00235526 0.0
1.18755 -0.00256571 0.0
1.18925 -0.000928888 0.0
1.19241 -0.000309218 0.0
1.18756 0.000550239 0.0
1.18537 0.000878028 0.0
1.18632 0.00185766 0.0
1.17427 0.00260883 0.0
1.12563 -0.0033071 0.0
1.09138 0.00337382 0.0
1.17306 0.0034643 0.0
1.1897 8.63518e-05 0.0
0.57522 -0.00384491 0.0
1.17678 0.0024669 0.0
1.14252 0.00314495 0.0
1.16223 0.00378942 0.0
1.18896 0.00125838 0.0
1.16074 0.00367119 0.0
1.1771 0.00369516 0.0
1.17195 0.000428315 0.0
1.18255 0.00271953 0.0
1.17398 -4.56137e-06 0.0
1.12285 -0.00227113 0.0
1.12365 -0.0048659 0.0
1.1478 -0.00221883 0.0
1.18016 0.00382327 0.0
1.16811 -0.00236973 0.0
1.18118 0.00245391 0.0
1.15893 -0.00165633 0.0
1.17272 -0.00217222 0.0
1.18398 0.00186041 0.0
1.17997 0.00398953 0.0
0.998859 -0.00875365 0.0
1.16245 -0.00131916 0.0
1.17459 0.00490254 0.0
1.14032 0.0045879 0.0
1.18008 -0.00132647 0.0
1.18558 0.000213612 0.0
1.07069 -0.0136753 0.0
1.16551 0.00731009 0.0
1.17119 -0.00188785 0.0
1.14338 0.0100301 0.0
1.18245 6.62321e-05 0.0
1.15037 0.0143007 0.0
1.16572 -0.00259173 0.0
1.18249 -0.00138312 0.0
1.17158 -0.000109483 0.0
1.11942 0.17633 0.0
1.14462 -0.00457275 0.0
1.19134 -0.00588368 0.0
1.17145 0.00649849 0.0
1.17499 0.00116947 0.0
1.15099 -0.00978595 0.0
1.1561 -0.00121588 0.0
1.13021 -0.000237971 0.0
1.15384 -0.00627333 0.0
1.17105 0.00172342 0.0
1.13221 0.00161605 0.0
1.167 0.00143106 0.0
1.16275 -0.00452324 0.0
1.15789 -0.000659682 0.0
1.15479 0.0088211 0.0
1.16346 -0.00418251 0.0
0.705772 -0.0208042 0.0
0.989194 0.00137998 0.0
1.15091 0.0109561 0.0
1.1547 0.00673934 0.0
1.15914 -0.00633024 0.0
1.13643 0.00765724 0.0
1.14632 0.00993334 0.0
1.15343 -0.00238767 0.0
1.13961 8.73785e-05 0.0
1.14899 -0.00307387 0.0
1.14497 0.000118533 0.0
1.13374 0.00997538 0.0
1.16383 0.0037729 0.0
1.15861 0.00591768 0.0
1.00894 0.00487508 0.0
1.16006 0.0039028 0.0
1.15705 0.00764828 0.0
1.14805 0.00783835 0.0
1.12744 0.0128958 0.0
1.13202 0.0113183 0.0
1.15473 0.00845568 0.0
1.73636 0.179913 0.0
1.13138 -0.00973336 0.0
1.13707 0.0170329 0.0
1.11074 -0.0214575 0.0
1.14664 0.0187129 0.0
1.1512 0.0126822 0.0
1.12547 -0.0117698 0.0
1.14756 0.0186657 0.0
1.18965 -0.003117 0.0
1.07559 -0.00709081 0.0
1.09049 0.0115538 0.0
1.11304 -0.00686677 0.0
1.30434 0.12892 0.0
1.18762 -0.00478224 0.0
1.07177 0.00141908 0.0
1.14469 -0.00625699 0.0
1.1462 0.0261219 0.0
1.14453 0.019769 0.0
1.10576 -0.00821803 0.0
1.10487 -0.0262534 0.0
0.996803 -0.0109279 0.0
1.16746 0.000470582 0.0
1.08571 6.53257e-05 0.0
1.09535 -0.000472069 0.0
1.13073 0.0222461 0.0
1.10709 -0.0236195 0.0
1.03106 0.198297 0.0
0.981853 -0.0115822 0.0
1.14256 0.0318551 0.0
0.448173 -0.166137 0.0
1.37763 0.135049 0.0
1.17973 -0.0519513 0.0
1.0836 0.00945788 0.0
1.08266 0.0249093 0.0
1.07052 0.0352347 0.0
1.18547 0.00010429 0.0
1.07103 0.013353 0.0
1.0502 -0.0443363 0.0
1.30216 0.175798 0.0
1.00906 -0.144751 0.0
1.04446 -0.0577365 0.0
1.15488 -0.135431 0.0
1.1343 -0.00926024 0.0
1.10263 -0.0476321 0.0
1.16109 -0.00305983 0.0
0.958732 0.00209374 0.0
1.17988 0.0540065 0.0
1.02906 -0.0139118 0.0
1.23777 -0.103484 0.0
1.18696 -0.00466327 0.0
1.17989 -0.00565153 0.0
1.0723 -0.0197129 0.0
1.39872 -0.567375 0.0
1.13935 0.083925 0.0
1.01501 -0.0196466 0.0
1.14007 0.0672148 0.0
0.980254 0.00153032 0.0
0.744662 0.0285465 0.0
1.10202 0.0446697 0.0
1.3273 -0.160667 0.0
0.943771 -0.0922345 0.0
1.10643 -0.0392374 0.0
0.632798 -0.55687 0.0
1.09791 -0.0254492 0.0
1.1069 -0.00473535 0.0
1.13969 -0.00527312 0.0
1.38909 -0.142335 0.0
1.09222 0.0594266 0.0
1.16077 -0.0027181 0.0
1.06366 -0.0254283 0.0
1.165 0.0346594 0.0
0.998208 -0.0144341 0.0
1.35041 -0.771933 0.0
1.19027 0.00274982 0.0
1.17787 0.0506262 0.0
1.17474 0.00161252 0.0
1.11986 -0.000874494 0.0
1.17898 -0.0567362 0.0
1.06906 0.0220751 0.0
1.20048 0.0837161 0.0
1.11842 -0.00678914 0.0
1.16058 0.0429005 0.0
0.975913 0.00127478 0.0
1.13534 0.00728371 0.0
1.18075 -0.531812 0.0
0.647809 -0.00468961 0.0
0.668035 -0.0230217 0.0
0.947368 0.0276077 0.0
1.2664 0.122191 0.0
1.14246 -0.00469672 0.0
1.16504 -0.00468209 0.0
0.593897 0.00964606 0.0
1.17954 -0.00470682 0.0
0.336467 -0.124179 0.0
1.0796 -0.100287 0.0
0.594913 0.00714834 0.0
0.597674 -0.012574 0.0
0.920715 0.040542 0.0
1.14302 -0.00370134 0.0
0.863949 -0.174269 0.0
0.873853 -0.0220867 0.0
1.68892 -0.123097 0.0
0.935213 0.0381356 0.0
1.13958 -0.0103088 0.0
1.14046 -0.011966 0.0
1.05023 0.00455315 0.0
1.18918 0.00207598 0.0
1.15896 0.000563772 0.0
1.18514 0.348073 0.0
0.60627 0.0171174 0.0
1.01167 0.00457242 0.0
1.36242 -0.100401 0.0
0.561478 0.00609104 0.0
1.58094 0.560406 0.0
0.951562 -0.0422103 0.0
0.817987 -0.0270455 0.0
1.33463 0.0909709 0.0
0.800975 -0.0531207 0.0
0.962948 0.000945814 0.0
0.672764 -0.119184 0.0
1.15532 -0.0137288 0.0
0.879935 0.0991565 0.0
1.1422 -0.0126818 0.0
0.681657 -0.00356692 0.0
1.02314 0.00223539 0.0
0.992626 0.138371 0.0
1.41119 -0.0352042 0.0
0.54649 -0.00283494 0.0
0.656543 -0.0233056 0.0
0.918776 0.805221 0.0
1.1071 -0.00145338 0.0
1.04693 0.0124781 0.0
1.38973 0.0119508 0.0
0.589531 -0.0100015 0.0
1.12691 0.0131899 0.0
1.16685 -0.448774 0.0
0.186465 0.0223813 0.0
0.941089 -0.0630135 0.0
1.0774 -0.0843188 0.0
0.722642 0.0245067 0.0
0.537664 0.0196041 0.0
1.64771 0.0339014 0.0
1.14483 -0.00562736 0.0
0.311486 0.0152219 0.0
0.591782 0.0268903 0.0
1.13483 -0.00243217 0.0
1.18087 -0.00508905 0.0
1.00914 -0.0146834 0.0
0.956501 0.0636406 0.0
1.20845 0.171842 0.0
0.628024 0.00986807 0.0
1.17462 0.00638458 0.0
0.936353 0.0935521 0.0
1.18108 -0.00507126 0.0
1.38835 -0.593457 0.0
0.555441 -0.000625164 0.0
1.45687 -0.133238 0.0
1.10664 0.00373195 0.0
0.969706 -0.0114012 0.0
0.621203 0.0901982 0.0
1.0048 0.104084 0.0
0.897426 0.139753 0.0
1.10891 0.00542091 0.0
1.20787 -0.0591141 0.0
1.39923 -0.0370401 0.0
0.589712 0.00294219 0.0
0.609855 0.0130336 0.0
1.07834 -0.0037755 0.0
0.404521 -0.0728667 0.0
1.03854 0.0373765 0.0
0.521627 0.00363229 0.0
0.979643 -0.0114217 0.0
1.10735 -0.00432658 0.0
0.962983 -0.0077232 0.0
0.569572 -0.00429543 0.0
0.571693 0.0191899 0.0
0.593724 0.00781008 0.0
0.568846 0.00673037 0.0
0.609174 0.00855623 0.0
1.21077 0.669325 0.0
1.35897 0.0682073 0.0
0.969945 -0.00189928 0.0
0.586432 0.00698509 0.0
0.596526 -0.0112465 0.0
0.685566 0.0250176 0.0
1.1456 -0.048234 0.0
0.608887 -0.000359363 0.0
1.60572 -0.192358 0.0
1.28828 0.0979998 0.0
0.547977 -0.140086 0.0
1.33826 -0.0958845 0.0
1.52719 -0.466384 0.0
1.00779 0.00133794 0.0
1.08999 0.0138916 0.0
1.14628 -0.0106831 0.0
0.979406 0.000133322 0.0
0.837287 -0.689542 0.0
1.01883 0.000906732 0.0
0.984234 -0.00425323 0.0
1.17754 -0.00859437 0.0
1.10994 -0.0322442 0.0
1.6468 -0.00291104 0.0
-0.114753 0.101431 0.0
0.521044 -0.0697213 0.0
1.33622 0.517882 0.0
1.0788 -0.0103924 0.0
0.6245 -0.00969668 0.0
0.600321 -0.00412334 0.0
0.597611 -0.00465416 0.0
1.18822 0.00379008 0.0
0.643935 0.215375 0.0
1.16745 -0.0215182 0.0
0.986108 0.00909778 0.0
0.761305 0.167785 0.0
1.12104 -0.00331706 0.0
0.158709 -0.0131668 0.0
1.16399 0.00397025 0.0
0.594293 0.0190162 0.0
0.592185 -0.00906936 0.0
1.34348 0.0882919 0.0
0.868264 -0.00801398 0.0
1.50861 0.0346289 0.0
0.985735 0.0113361 0.0
1.00278 0.00748383 0.0
0.125213 -0.165826 0.0
0.986102 0.0240466 0.0
1.16463 0.00906122 0.0
1.14778 0.00873775 0.0
0.361741 -0.139063 0.0
1.61815 -0.272629 0.0
1.08737 0.0013443 0.0
1.2909 0.199494 0.0
0.620103 -0.0121379 0.0
0.591427 -0.00599027 0.0
1.12019 -0.017168 0.0
0.548367 0.0919239 0.0
1.13093 -0.0252821 0.0
0.797337 0.022856 0.0
0.943013 -0.0107341 0.0
1.12666 0.00755195 0.0
1.01269 -0.00386809 0.0
0.201874 -0.0208972 0.0
1.1347 -0.00945571 0.0
0.312921 0.0595258 0.0
1.02359 -0.00273719 0.0
1.01551 -0.00333471 0.0
0.603178 -0.0150092 0.0
1.06115 -0.00508055 0.0
1.16692 -0.0212805 0.0
0.968418 -0.000623695 0.0
0.997573 -0.0101383 0.0
1.20068 -0.964919 0.0
1.12582 0.0177764 0.0
1.69284 0.486163 0.0
0.594678 -0.0133504 0.0
0.58982 0.00672512 0.0
1.15746 0.00222864 0.0
1.1972 -0.00448656 0.0
1.10452 -0.00492669 0.0
1.11365 0.00121056 0.0
1.16696 0.00234511 0.0
1.12632 0.00160351 0.0
1.18918 -0.0060231 0.0
1.14631 0.023104 0.0
-0.190861 0.0182944 0.0
1.09462 0.0111425 0.0
-0.00942417 0.0392813 0.0
0.656841 -0.0272506 0.0
1.20623 -0.180912 0.0
1.13439 -0.00679453 0.0
1.36627 -0.140881 0.0
1.64679 -0.501919 0.0
0.31425 -0.0181048 0.0
1.18344 -0.0048798 0.0
1.12885 0.271667 0.0
1.34429 -0.100703 0.0
1.07141 0.305452 0.0
1.71 0.0847231 0.0
0.975474 -0.542722 0.0
1.37208 0.132201 0.0
1.12437 -0.0158368 0.0
1.28986 -0.481022 0.0
-0.0792398 -0.112142 0.0
1.05186 0.00245892 0.0
1.31884 -0.394623 0.0
0.536139 -0.00456474 0.0
1.41789 -0.148811 0.0
1.6843 0.196813 0.0
1.08917 0.00871987 0.0
0.455553 0.0134401 0.0
0.717089 0.00155297 0.0
0.267953 -0.228809 0.0
0.94966 0.0468145 0.0
-0.110592 -0.0335434 0.0
1.14909 -0.165328 0.0
1.4937 0.147905 0.0
0.53785 0.00774366 0.0
1.22605 -0.0697679 0.0
0.984142 -0.000515165 0.0
1.18163 0.00292133 0.0
0.435285 -0.615888 0.0
1.22866 0.264156 0.0
0.736716 -0.164434 0.0
0.191421 -0.331248 0.0
0.529479 0.161154 0.0
1.30261 0.238299 0.0
0.605533 0.155464 0.0
0.966255 -0.00977249 0.0
1.12779 -0.0117602 0.0
1.0769 0.00663229 0.0
1.06459 0.00635237 0.0
0.59796 0.00753525 0.0
0.032772 0.0831093 0.0
1.30833 0.29957 0.0
0.483511 -0.000855283 0.0