# vtk DataFile Version 3.0
Malha 2D com triângulos e temperatura
ASCII
DATASET UNSTRUCTURED_GRID

POINTS 688 double
0 0 0
2.2 0 0
2.2 0.41 0
0 0.41 0
0.25 0.2 0
0.05 0 0
0.1 0 0
0.15 0 0
0.2 0 0
0.25 0 0
0.3 0 0
0.35 0 0
0.4 0 0
0.45 0 0
0.5 0 0
0.55 0 0
0.6 0 0
0.65 0 0
0.7 0 0
0.75 0 0
0.8 0 0
0.85 0 0
0.9 0 0
0.95 0 0
1 0 0
1.05 0 0
1.1 0 0
1.15 0 0
1.2 0 0
1.25 0 0
1.3 0 0
1.35 0 0
1.4 0 0
1.45 0 0
1.5 0 0
1.55 0 0
1.6 0 0
1.65 0 0
1.7 0 0
1.75 0 0
1.8 0 0
1.85 0 0
1.9 0 0
1.95 0 0
2 0 0
2.05 0 0
2.1 0 0
2.15 0 0
2.2 0.0455556 0
2.2 0.0911111 0
2.2 0.136667 0
2.2 0.182222 0
2.2 0.227778 0
2.2 0.273333 0
2.2 0.318889 0
2.2 0.364444 0
2.15 0.41 0
2.1 0.41 0
2.05 0.41 0
2 0.41 0
1.95 0.41 0
1.9 0.41 0
1.85 0.41 0
1.8 0.41 0
1.75 0.41 0
1.7 0.41 0
1.65 0.41 0
1.6 0.41 0
1.55 0.41 0
1.5 0.41 0
1.45 0.41 0
1.4 0.41 0
1.35 0.41 0
1.3 0.41 0
1.25 0.41 0
1.2 0.41 0
1.15 0.41 0
1.1 0.41 0
1.05 0.41 0
1 0.41 0
0.95 0.41 0
0.9 0.41 0
0.85 0.41 0
0.8 0.41 0
0.75 0.41 0
0.7 0.41 0
0.65 0.41 0
0.6 0.41 0
0.55 0.41 0
0.5 0.41 0
0.45 0.41 0
0.4 0.41 0
0.35 0.41 0
0.3 0.41 0
0.25 0.41 0
0.2 0.41 0
0.15 0.41 0
0.1 0.41 0
0.05 0.41 0
0 0.364444 0
0 0.318889 0
0 0.273333 0
0 0.227778 0
0 0.182222 0
0 0.136667 0
0 0.0911111 0
0 0.0455556 0
0.248831 0.210749 0
0.245379 0.220994 0
0.239805 0.230259 0
0.232369 0.238108 0
0.22342 0.244176 0
0.213376 0.248177 0
0.202707 0.249927 0
0.191911 0.249341 0
0.181493 0.246449 0
0.171941 0.241384 0
0.1637 0.234385 0
0.157157 0.225778 0
0.152617 0.215965 0
0.150293 0.205406 0
0.150293 0.194594 0
0.152617 0.184035 0
0.157157 0.174222 0
0.1637 0.165615 0
0.171941 0.158616 0
0.181493 0.153551 0
0.191911 0.150659 0
0.202707 0.150073 0
0.213376 0.151823 0
0.22342 0.155824 0
0.232369 0.161892 0
0.239805 0.169741 0
0.245379 0.179006 0
0.248831 0.189251 0
0.421316 0.36725 0
0.426705 0.0366526 0
2.16065 0.209201 0
1.52286 0.0417259 0
0.626017 0.37111 0
1.3257 0.0414552 0
1.02471 0.0432237 0
1.17293 0.0421053 0
0.82501 0.36678 0
1.6757 0.370064 0
1.91628 0.0358195 0
1.82501 0.366432 0
0.723429 0.0421499 0
1.425 0.366699 0
1.97461 0.366224 0
1.12167 0.370137 0
0.975 0.368691 0
0.877672 0.0412714 0
1.27686 0.36884 0
1.725 0.0433013 0
0.579174 0.0416211 0
0.325589 0.363848 0
0.319111 0.0378151 0
0.0394523 0.296111 0
0.0329929 0.11602 0
0.142108 0.187428 0
1.57555 0.364352 0
2.02603 0.0412138 0
0.725007 0.36763 0
0.528647 0.366595 0
1.62699 0.0400272 0
1.82929 0.0421255 0
1.425 0.0418325 0
2.07474 0.364233 0
0.125 0.0433013 0
0.161245 0.155011 0
0.225 0.366699 0
0.210027 0.258536 0
2.16034 0.115449 0
0.0371627 0.204103 0
0.142311 0.212698 0
0.220283 0.0418538 0
0.221965 0.145099 0
0.196802 0.141016 0
0.119851 0.373394 0
0.161112 0.245979 0
0.184892 0.258024 0
2.16342 0.30039 0
2.12627 0.047699 0
0.183325 0.0412617 0
0.152317 0.0762976 0
0.203864 0.0745802 0
0.234384 0.0774346 0
0.215969 0.103585 0
0.245651 0.104548 0
0.186562 0.100216 0
0.268213 0.0793029 0
0.272149 0.109155 0
0.242885 0.159377 0
0.253088 0.128261 0
0.278718 0.13214 0
0.295917 0.115997 0
0.301728 0.138858 0
0.321266 0.12205 0
0.324642 0.151724 0
0.255978 0.181139 0
0.350123 0.129049 0
0.357539 0.159885 0
0.333541 0.181416 0
0.36451 0.19182 0
0.250573 0.230419 0
0.391277 0.169722 0
0.339477 0.212308 0
0.39836 0.205386 0
0.427326 0.18117 0
0.258724 0.206387 0
0.434392 0.219501 0
0.466446 0.193907 0
0.472865 0.243064 0
0.507358 0.209962 0
0.40073 0.238916 0
0.499135 0.1652 0
0.5419 0.179224 0
0.550176 0.22496 0
0.585844 0.194129 0
0.594095 0.240176 0
0.630701 0.209517 0
0.621901 0.162424 0
0.667731 0.178095 0
0.676485 0.226008 0
0.713906 0.194492 0
0.722681 0.242872 0
0.760442 0.211047 0
0.751547 0.162356 0
0.798298 0.179 0
0.807147 0.227866 0
0.845136 0.195775 0
0.854541 0.243285 0
0.892163 0.212344 0
0.902461 0.257947 0
0.93935 0.228684 0
0.930236 0.180167 0
0.977229 0.197066 0
0.986264 0.245777 0
1.02423 0.213991 0
1.0331 0.263172 0
1.07123 0.230975 0
1.06234 0.181814 0
1.10938 0.198721 0
1.09996 0.151012 0
1.14691 0.168161 0
1.15631 0.215921 0
1.19446 0.183678 0
1.20343 0.232645 0
1.2416 0.200322 0
1.23272 0.151117 0
1.2798 0.167954 0
1.28868 0.217167 0
1.32685 0.184862 0
1.33573 0.234064 0
1.3739 0.201768 0
0.789327 0.130094 0
1.38279 0.25097 0
1.42096 0.218674 0
1.41207 0.169471 0
1.45912 0.186378 0
1.46801 0.235581 0
1.50618 0.203285 0
1.51506 0.252489 0
1.55323 0.220192 0
1.54435 0.170989 0
1.5914 0.187896 0
1.60029 0.2371 0
1.63846 0.204803 0
1.64734 0.254007 0
1.68551 0.221711 0
1.67663 0.172507 0
1.72368 0.189415 0
1.73831 0.241548 0
1.77074 0.206322 0
1.76185 0.157121 0
1.8091 0.17428 0
1.81866 0.220885 0
1.85608 0.190621 0
1.86521 0.238879 0
1.90289 0.207671 0
1.91264 0.253772 0
1.94955 0.224093 0
1.94067 0.17593 0
1.98705 0.192828 0
1.99572 0.240997 0
2.0329 0.209382 0
2.02422 0.16161 0
2.04166 0.257286 0
0.419739 0.142889 0
0.968291 0.148058 0
0.310035 0.202211 0
0.316128 0.230863 0
0.658501 0.130052 0
0.685107 0.27445 0
1.34462 0.283266 0
1.16528 0.264896 0
1.84735 0.142081 0
0.557687 0.270604 0
1.21234 0.281769 0
1.58252 0.138692 0
0.533563 0.131933 0
0.489835 0.120004 0
1.45024 0.137174 0
2.06974 0.17785 0
2.06113 0.130713 0
0.283221 0.152215 0
0.921299 0.131169 0
0.343836 0.24295 0
0.319203 0.260002 0
0.235529 0.249617 0
0.347029 0.274099 0
0.291856 0.246297 0
0.295938 0.27548 0
0.272836 0.264931 0
0.27461 0.290522 0
0.251228 0.280224 0
0.253903 0.305808 0
0.232795 0.296709 0
0.298805 0.304058 0
1.0801 0.280176 0
1.47689 0.284785 0
1.05315 0.133468 0
1.09741 0.0970974 0
1.82427 0.272867 0
1.2701 0.118911 0
0.816337 0.277695 0
1.40432 0.121101 0
1.04244 0.320388 0
0.959305 0.103028 0
1.60923 0.286151 0
0.601674 0.286775 0
2.00739 0.280923 0
0.342592 0.0992796 0
0.375237 0.105729 0
1.52511 0.298716 0
1.53114 0.119823 0
0.733824 0.287256 0
0.613372 0.114719 0
0.645558 0.0838585 0
2.015 0.115858 0
1.22718 0.0994086 0
1.39166 0.29817 0
1.3564 0.329754 0
0.744134 0.11556 0
0.782853 0.0841771 0
0.826899 0.10047 0
1.17418 0.314034 0
0.520902 0.0906676 0
1.4967 0.329429 0
1.26048 0.0740437 0
0.365514 0.0716355 0
0.229836 0.121666 0
1.57453 0.09137 0
1.61938 0.110761 0
0.481716 0.0753791 0
0.14093 0.2 0
0.130041 0.192847 0
0.131507 0.178608 0
0.117165 0.184444 0
0.120761 0.164701 0
0.1156 0.199931 0
0.100804 0.174136 0
0.102545 0.153034 0
0.12169 0.143342 0
0.104604 0.13008 0
0.0809304 0.161171 0
0.128077 0.121858 0
0.106825 0.102278 0
0.082498 0.188728 0
0.0314738 0.158621 0
2.04625 0.310891 0
2.08475 0.27479 0
2.11394 0.138117 0
0.233149 0.151108 0
0.258724 0.193613 0
0.268522 0.184917 0
1.65397 0.301059 0
0.145962 0.224912 0
0.132503 0.222267 0
0.13746 0.236947 0
0.120111 0.233525 0
0.126593 0.25219 0
0.105294 0.247497 0
0.113343 0.26868 0
0.133997 0.271734 0
0.121622 0.292031 0
0.147069 0.292141 0
0.0896563 0.267464 0
0.0813699 0.243294 0
0.163574 0.276939 0
0.172694 0.298517 0
0.1583 0.321483 0
0.186823 0.322499 0
0.173113 0.348195 0
0.0322087 0.250839 0
0.211694 0.124337 0
0.250615 0.169546 0
0.256243 0.157787 0
0.170796 0.14736 0
0.156755 0.141654 0
0.17187 0.131161 0
0.147502 0.152323 0
0.198129 0.260662 0
0.206368 0.271663 0
0.220945 0.26864 0
0.190489 0.270628 0
0.198813 0.286731 0
0.55749 0.322277 0
0.520166 0.299321 0
0.235199 0.330709 0
0.267109 0.337524 0
0.172324 0.25256 0
0.255974 0.218859 0
0.268327 0.214994 0
0.184197 0.143083 0
0.188721 0.129954 0
0.209694 0.139146 0
0.269223 0.244007 0
0.252374 0.255244 0
0.282229 0.0410487 0
1.21977 0.330016 0
1.25733 0.296346 0
2.09358 0.0890819 0
0.244373 0.240984 0
0.0838116 0.115786 0
0.0797544 0.0817835 0
0.237449 0.264854 0
0.247178 0.146225 0
0.270136 0.2 0
0.28023 0.191334 0
0.263476 0.170737 0
0.371486 0.368728 0
0.396124 0.330051 0
0.440314 0.325693 0
0.357693 0.329668 0
0.476576 0.362035 0
0.29587 0.222914 0
0.307627 0.175476 0
0.079599 0.0406461 0
0.146062 0.252571 0
0.15162 0.125025 0
0.417223 0.294608 0
0.457089 0.286958 0
0.036619 0.338729 0
0.0713014 0.322193 0
0.0735823 0.36704 0
0.041143 0.0722223 0
0.693501 0.32349 0
0.145406 0.175484 0
0.138777 0.164467 0
0.300367 0.0698839 0
0.167025 0.112083 0
0.146978 0.105544 0
0.151909 0.236762 0
0.444611 0.106436 0
0.909355 0.0817561 0
0.282901 0.370713 0
1.61474 0.330739 0
0.578053 0.368179 0
0.824695 0.0487848 0
2.09634 0.3213 0
2.02276 0.364865 0
2.12532 0.363702 0
1.09789 0.328757 0
0.161137 0.260089 0
2.07793 0.225752 0
2.12079 0.240944 0
2.0747 0.0437362 0
1.89402 0.158846 0
1.93154 0.128738 0
1.8848 0.111477 0
1.8384 0.0926484 0
1.87744 0.0655304 0
1.7913 0.0793874 0
1.9712 0.046671 0
1.92502 0.366682 0
1.94563 0.325156 0
1.89941 0.326645 0
1.87499 0.367178 0
1.84989 0.323491 0
1.7997 0.321303 0
1.77183 0.280326 0
1.75031 0.321965 0
1.77491 0.365615 0
2.11727 0.191885 0
0.883187 0.163467 0
1.71449 0.140266 0
1.667 0.125342 0
1.70591 0.0884759 0
1.67732 0.042286 0
1.52278 0.370513 0
1.37512 0.04128 0
1.34848 0.0834574 0
0.776093 0.367587 0
1.125 0.0433013 0
1.15 0.0866019 0
1.07442 0.0496847 0
0.974527 0.0370837 0
1.47464 0.0427918 0
1.44953 0.0873752 0
1.17595 0.362984 0
1.025 0.366699 0
0.925007 0.367031 0
0.95 0.323404 0
0.897321 0.326356 0
0.874563 0.367261 0
0.846552 0.324465 0
1.62923 0.156667 0
1.32319 0.13033 0
1.69342 0.270472 0
1.49568 0.156227 0
1.56237 0.268721 0
1.44 0.319169 0
1.43005 0.267892 0
1.36502 0.152565 0
0.993446 0.294003 0
1.30179 0.321101 0
1.18235 0.127964 0
1.25016 0.2491 0
1.29638 0.266841 0
1.11824 0.247967 0
1.12945 0.294699 0
1.01527 0.165035 0
0.836192 0.147197 0
1.4998 0.0831488 0
1.00655 0.118664 0
0.872896 0.117126 0
0.70523 0.146383 0
1.96013 0.276645 0
0.769406 0.257102 0
0.699552 0.0908977 0
2.1587 0.162257 0
1.97813 0.145326 0
0.646036 0.302035 0
0.799423 0.326603 0
0.515621 0.255445 0
1.72538 0.366474 0
1.97009 0.0998346 0
1.57108 0.313772 0
0.577925 0.14549 0
0.638911 0.256447 0
0.407352 0.0771641 0
0.525103 0.042511 0
0.674231 0.370698 0
1.69802 0.321701 0
0.56947 0.0908728 0
1.75459 0.110239 0
1.80084 0.126127 0
0.673535 0.0431435 0
1.57391 0.0465733 0
2.04571 0.0828469 0
0.10002 0.225545 0
0.0788152 0.21577 0
0.369719 0.224393 0
0.210352 0.308739 0
1.22342 0.0432967 0
[...]
CELL_DATA 1241
VECTORS velocity double
1.02208 -0.00385862 0.0
1.2146 0.0675786 0.0
0.474891 -0.000413572 0.0
0.956497 0.00315469 0.0
1.0385 0.00713689 0.0
1.4225 0.102729 0.0
1.13112 0.000106708 0.0
0.989219 -0.00085762 0.0
0.364084 0.0155857 0.0
1.16875 0.00171367 0.0
1.31247 -0.119986 0.0
1.31627 0.126516 0.0
0.865763 -0.160581 0.0
1.01341 0.00659481 0.0
0.989104 0.00734411 0.0
1.46579 -0.0323677 0.0
0.97792 0.00163394 0.0
0.479561 0.0603555 0.0
1.16964 0.0633471 0.0
1.64771 -0.253849 0.0
1.02702 0.00607235 0.0
1.05903 -0.0661672 0.0
1.03227 0.00131717 0.0
1.25316 0.904869 0.0
1.07178 -0.00186388 0.0
1.03043 0.00412131 0.0
1.29885 -0.199234 0.0
1.07588 -0.0252208 0.0
1.32175 -0.0836666 0.0
1.46194 -0.0644584 0.0
1.33199 0.0902357 0.0
0.864782 -0.0372449 0.0
1.51962 0.00200212 0.0
1.01205 0.00501673 0.0
1.25393 -0.0574008 0.0
1.35864 0.15664 0.0
1.20954 -0.056117 0.0
1.05042 -0.167822 0.0
0.359543 0.0204909 0.0
1.38191 0.14101 0.0
1.76478 -0.179358 0.0
1.4139 -0.0450027 0.0
1.05282 -0.237117 0.0
0.530599 0.00707761 0.0
1.39903 -0.16692 0.0
0.52413 -0.00448292 0.0
1.20266 0.0999717 0.0
1.11132 0.0265166 0.0
1.61307 -0.312823 0.0
1.24044 -0.0110353 0.0
1.19876 0.00116313 0.0
1.29087 -0.417453 0.0
0.870284 -0.00388509 0.0
1.4069 -0.0831102 0.0
1.77552 -0.27926 0.0
1.51814 -0.0294712 0.0
1.14659 -0.0407399 0.0
1.12371 -0.000261698 0.0
1.65887 -0.0986273 0.0
1.68778 -0.198906 0.0
1.15859 0.847265 0.0
1.00221 7.88093e-05 0.0
0.196754 0.0350793 0.0
1.03236 0.00818009 0.0
-0.240605 0.0712869 0.0
1.33193 0.227534 0.0
-0.278655 0.0869314 0.0
1.1574 0.000488714 0.0
0.860138 -0.0261652 0.0
0.21949 0.0248963 0.0
1.15829 -0.00294026 0.0
0.794221 0.0137893 0.0
1.15741 -0.00235491 0.0
0.792822 -0.0144308 0.0
1.19036 0.00750048 0.0
0.881272 0.15704 0.0
0.944903 0.00519948 0.0
1.63188 -0.04591 0.0
0.977679 -0.034914 0.0
0.611718 0.000600152 0.0
1.75212 -0.382743 0.0
1.15967 -0.246614 0.0
0.651372 0.0117192 0.0
1.26138 -0.227172 0.0
1.34581 0.170032 0.0
0.919199 -0.0666304 0.0
1.20853 0.178998 0.0
0.0879823 0.0992462 0.0
1.83903 0.53017 0.0
1.17787 0.00382776 0.0
1.27285 0.00976201 0.0
-0.188701 -0.0111433 0.0
-0.347607 0.0788596 0.0
1.44179 -0.0653843 0.0
1.18184 -0.0416323 0.0
0.993921 0.00120578 0.0
0.850401 -0.0263566 0.0
-0.184598 0.0907009 0.0
1.01413 -0.00961426 0.0
-0.242885 0.113674 0.0
1.08214 -0.0985538 0.0
1.15088 -0.011834 0.0
0.948953 0.00045261 0.0
1.63971 -0.160968 0.0
1.74264 -0.670608 0.0
1.2732 -0.39787 0.0
1.07229 -0.0627626 0.0
0.499372 -0.023137 0.0
1.78825 0.649572 0.0
1.20683 0.00334586 0.0
1.48467 -0.110246 0.0
1.23237 0.190542 0.0
0.13223 0.0756472 0.0
1.44146 -0.0270117 0.0
1.07928 0.0150843 0.0
1.44262 0.0400737 0.0
1.41328 0.00527956 0.0
1.39129 0.0524294 0.0
1.06107 -0.000462354 0.0
0.25692 0.0405249 0.0
1.19075 0.0418945 0.0
1.51972 0.58169 0.0
1.25187 0.109344 0.0
0.919679 -0.0634074 0.0
0.728264 -0.0999885 0.0
1.20604 0.0870021 0.0
1.44576 -0.0436006 0.0
1.11466 0.0250999 0.0
1.7499 0.501308 0.0
0.549875 -0.0713056 0.0
1.15708 -0.0122459 0.0
0.614905 -0.00165752 0.0
0.885543 0.0637839 0.0
1.60291 -0.0209083 0.0
1.02108 -0.154108 0.0
-0.275725 0.0746334 0.0
0.123611 0.0617317 0.0
1.22393 0.0830795 0.0
1.04722 -0.0254798 0.0
1.66407 -0.761317 0.0
1.50088 0.00356549 0.0
1.03445 0.00350811 0.0
1.07833 -0.24498 0.0
1.00389 0.00719418 0.0
1.52419 0.00785524 0.0
0.0241587 0.0316956 0.0
-0.25429 0.0377313 0.0
-0.181286 0.00629292 0.0
0.64131 0.0144002 0.0
0.651327 -0.01264 0.0
0.555318 -0.101512 0.0
1.03371 -0.00733675 0.0
1.79659 -0.332325 0.0
1.0494 -0.154282 0.0
1.20282 -0.0491838 0.0
1.20456 0.0544119 0.0
0.513243 -0.000126295 0.0
1.64328 0.0731859 0.0
0.858249 0.0309274 0.0
1.24537 -0.0576795 0.0
-0.230644 0.0476968 0.0
1.74055 0.446236 0.0
1.14103 0.00546431 0.0
1.22205 -0.2049 0.0
1.13947 0.0349577 0.0
1.05422 0.130219 0.0
0.990307 -0.00159081 0.0
0.987078 0.10981 0.0
0.573022 -0.00286531 0.0
1.17161 -0.034556 0.0
0.92629 -0.0250751 0.0
1.21487 0.00384103 0.0
1.36539 0.26532 0.0
1.18794 0.0874327 0.0
1.1042 0.00319866 0.0
1.11532 0.00407064 0.0
1.18243 0.198507 0.0
1.12011 -0.287565 0.0
1.11283 0.00909242 0.0
1.16595 -0.225156 0.0
1.11869 0.0067843 0.0
0.364162 0.109774 0.0
1.08775 -0.644417 0.0
0.73052 -0.127062 0.0
1.02077 -0.00688053 0.0
0.765621 -0.0789471 0.0
0.762095 -0.0636189 0.0
1.02686 0.00520417 0.0
1.05544 0.0959056 0.0
0.460984 0.0469994 0.0
0.889668 -0.829975 0.0
1.77871 0.344739 0.0
1.02769 -0.00192193 0.0
0.980036 0.00795506 0.0
0.667216 0.0601734 0.0
0.854034 0.0575708 0.0
0.397722 0.0589935 0.0
1.00712 -0.014173 0.0
1.42771 -0.0322301 0.0
1.44969 0.581347 0.0
1.15457 0.193075 0.0
1.06818 -0.0138516 0.0
1.42685 0.0383948 0.0
1.04258 -0.0931749 0.0
1.39921 -0.0923204 0.0
1.43601 -0.0447069 0.0
0.484231 0.0247546 0.0
0.656158 0.0130281 0.0
0.897651 -0.0230873 0.0
0.855401 0.0337437 0.0
0.545715 0.0164902 0.0
0.530143 -0.00225226 0.0
1.79019 0.286107 0.0
1.11082 0.00867111 0.0
1.44129 -0.00420482 0.0
1.11993 0.00932017 0.0
0.73554 -0.0780854 0.0
1.51069 -0.0916894 0.0
1.17602 -0.030934 0.0
1.15497 -0.0101658 0.0
0.833098 -0.0495802 0.0
1.67136 -0.0698848 0.0
1.0097 0.0551762 0.0
0.99703 0.0118661 0.0
0.957059 -0.0264088 0.0
1.21375 0.00300341 0.0
1.43471 -0.138401 0.0
1.73003 -0.60076 0.0
1.17667 -0.00597311 0.0
1.19104 -0.00892561 0.0
0.998794 -0.00133625 0.0
1.06355 -0.132771 0.0
1.02493 -0.00858906 0.0
0.99427 -0.00537881 0.0
1.25826 0.310846 0.0
1.0383 -0.256577 0.0
1.09641 0.172574 0.0
1.31816 0.13335 0.0
0.746926 -0.107418 0.0
0.355073 -0.0454507 0.0
0.958129 0.0157812 0.0
1.43871 0.0570051 0.0
1.42211 0.918286 0.0
0.682938 -0.0851788 0.0
1.14423 -0.0143759 0.0
1.70442 0.139796 0.0
1.097 -0.898626 0.0
0.868428 -0.177595 0.0
1.13695 -0.0382202 0.0
0.576419 -0.00746647 0.0
1.02562 0.0268973 0.0
0.562308 -0.00901249 0.0
1.03003 -0.00326418 0.0
1.20734 0.00387746 0.0
0.63644 -0.0117157 0.0
0.771978 -0.0339604 0.0
1.09486 -0.285446 0.0
1.32494 -0.105677 0.0
1.20558 0.00186492 0.0
1.01557 -0.00213721 0.0
1.01061 0.00948708 0.0
0.525571 -0.00523752 0.0
1.20766 0.00589248 0.0
0.732135 -0.0263581 0.0
1.12402 0.0443276 0.0
1.00292 -0.0091597 0.0
0.581775 0.0039197 0.0
1.24104 -0.11082 0.0
1.22804 -0.172104 0.0
0.785332 -0.0269204 0.0
1.14132 -0.0661284 0.0
0.603326 0.00132429 0.0
0.986822 -0.0132267 0.0
0.117634 0.0681628 0.0
1.1886 0.000208106 0.0
1.18633 -0.00840143 0.0
0.613626 -0.00399388 0.0
0.943746 -0.195056 0.0
0.988412 -0.0132348 0.0
1.42943 0.155603 0.0
1.18409 0.00249296 0.0
1.21515 -9.33407e-05 0.0
1.22357 -0.170781 0.0
1.21717 -0.00169743 0.0
1.21529 0.00138084 0.0
1.17138 -0.016184 0.0
0.937737 -0.115224 0.0
0.835802 0.0428606 0.0
1.21813 -0.00396736 0.0
1.21405 7.1474e-05 0.0
1.21065 -0.001295 0.0
0.634724 0.0704504 0.0
0.487081 0.00508854 0.0
0.994133 0.00921006 0.0
0.565071 -0.00732591 0.0
1.21669 -0.00395966 0.0
1.00441 -0.0155549 0.0
1.15254 0.0107867 0.0
-0.260251 -0.0271048 0.0
0.976837 -0.00921679 0.0
0.523662 -0.00349413 0.0
1.31914 -0.604782 0.0
1.12089 -0.00730651 0.0
0.976631 -0.0137048 0.0
0.544873 -0.00934677 0.0
1.21591 -0.00198409 0.0
0.86573 0.0410391 0.0
0.552206 0.00156035 0.0
0.996697 -0.0128212 0.0
1.21723 -0.00449229 0.0
1.21004 -0.00197768 0.0
1.21359 -0.00173407 0.0
0.639263 -0.00629849 0.0
0.47026 0.00118923 0.0
1.21561 -0.00556936 0.0
1.14301 -0.0742644 0.0
1.19387 -0.00658307 0.0
0.621596 0.00973187 0.0
1.17702 -0.00764801 0.0
1.20779 -0.00366405 0.0
1.19629 0.00124296 0.0
1.21994 -0.00583039 0.0
0.487382 -0.00605352 0.0
1.21443 -0.00543078 0.0
1.21467 -0.00487743 0.0
1.20778 -0.00618767 0.0
0.478648 -0.00323417 0.0
1.20096 -0.00110436 0.0
1.17543 -0.00554856 0.0
1.18852 -0.000801439 0.0
1.21802 -0.00595873 0.0
1.17128 -0.158779 0.0
1.12591 0.00128323 0.0
1.21974 -0.00640084 0.0
1.35093 0.668467 0.0
1.20573 -0.00581683 0.0
0.530664 -0.00639978 0.0
1.0916 -0.0219538 0.0
0.582808 0.00804994 0.0
0.588133 -0.00914067 0.0
1.12528 0.0067026 0.0
1.09121 -0.0117433 0.0
1.06516 -0.00683562 0.0
0.526569 -0.00788216 0.0
1.09726 -0.0215055 0.0
1.13224 0.00528585 0.0
1.21757 -0.00679752 0.0
1.07656 0.139986 0.0
1.15525 -0.696904 0.0
0.558009 -0.00402111 0.0
0.515646 -0.00509128 0.0
1.21389 -0.00538087 0.0
1.21557 -0.00708107 0.0
0.616266 -0.019494 0.0
0.504823 -0.00995122 0.0
1.21178 -0.0047361 0.0
0.990922 0.0143598 0.0
1.16473 0.00996521 0.0
1.15193 -0.00612983 0.0
0.562963 0.00800144 0.0
0.514866 -0.00177991 0.0
1.14774 0.0168103 0.0
0.60457 0.012919 0.0
0.569665 0.0138479 0.0
1.17446 0.00702887 0.0
0.619731 0.0209148 0.0
0.572436 -0.000303661 0.0
1.20401 -0.00451576 0.0
1.19314 -0.00414339 0.0
0.965532 0.0141458 0.0
1.20231 -0.00306259 0.0
1.17644 -0.00337626 0.0
1.20896 -0.00377217 0.0
0.988112 0.00985157 0.0
1.14807 -0.00366566 0.0
0.617141 0.00631781 0.0
0.512251 0.0139135 0.0
0.562932 0.0128579 0.0
0.484599 -0.0084834 0.0
0.548881 -2.1348e-05 0.0
0.567284 -0.0045874 0.0
0.531583 -0.00214335 0.0
0.633646 -0.0138224 0.0
0.563602 -0.00465786 0.0
0.583928 0.0123728 0.0
0.506484 -0.00677417 0.0
0.569667 0.01536 0.0
0.518033 -0.000146448 0.0
0.674182 0.0216218 0.0
0.5714 0.0102505 0.0
0.565653 -0.0115507 0.0
0.504111 0.00215218 0.0
0.536182 -0.00173157 0.0
0.520329 0.00712028 0.0
0.605464 -0.00967887 0.0
0.554834 -0.00157682 0.0
0.595155 -0.00775534 0.0
0.556112 -0.0129902 0.0
0.547601 0.0056696 0.0
0.531868 -0.000464507 0.0
0.552745 0.00279121 0.0
0.499729 -0.01623 0.0
0.492575 0.0199613 0.0
0.489275 0.00115141 0.0
0.550129 -0.00714007 0.0
0.509266 0.00345483 0.0
0.641105 -0.021295 0.0
0.505271 0.00513181 0.0
0.486092 0.00473673 0.0
0.528842 0.00046629 0.0
0.505724 -0.00300654 0.0
1.17512 -0.00270244 0.0
1.1559 -0.00513886 0.0
1.21421 -0.00650781 0.0
1.21332 -0.00498116 0.0
1.21575 -0.00508751 0.0
1.114 -0.00602968 0.0
1.18892 -0.00578563 0.0
1.17029 -0.00501987 0.0
1.17893 0.00236624 0.0
1.15105 -0.00325728 0.0
1.19962 -0.00666965 0.0
1.20156 -0.00720963 0.0
1.16666 -0.00507864 0.0
1.21049 -0.00377154 0.0
1.18931 -0.00220406 0.0
1.21019 -0.00537749 0.0
1.18559 -0.00611435 0.0
1.14921 -0.000391898 0.0
1.20725 -0.00558624 0.0
1.2128 -0.00421277 0.0
1.20014 -0.00228765 0.0
1.21106 -0.00415641 0.0
1.20599 -0.00523205 0.0
1.15135 -0.00775536 0.0
1.2122 -0.00253401 0.0
1.19111 -0.00275652 0.0
1.20988 -0.00200609 0.0
1.1157 -0.000311816 0.0
1.19126 -0.00365429 0.0
1.18609 -0.000168329 0.0
1.20691 -0.00209189 0.0
1.16927 -0.000638023 0.0
1.2055 -0.00245163 0.0
1.20804 -0.0024368 0.0
1.18179 0.0020111 0.0
1.20968 -0.00200926 0.0
1.19962 -0.00355055 0.0
1.20434 -0.000765903 0.0
1.14935 -0.00709876 0.0
1.17064 -0.0015205 0.0
1.20675 -0.00095015 0.0
1.19766 -0.00294366 0.0
1.19688 0.000270799 0.0
1.19434 0.00161432 0.0
1.16347 -0.0118834 0.0
1.20596 -0.000755416 0.0
1.2031 -0.000416172 0.0
1.13318 -0.00462125 0.0
1.1875 -0.00373443 0.0
1.1171 0.00417542 0.0
1.17459 -0.00350137 0.0
1.186 -0.00338879 0.0
1.19676 -0.00346971 0.0
1.20351 -0.00159168 0.0
1.17089 -0.00360313 0.0
1.19979 -0.00329997 0.0
1.2003 -0.00132579 0.0
1.20308 -0.000295853 0.0
1.19833 0.00135045 0.0
1.19548 0.00166569 0.0
1.19483 0.00243199 0.0
1.18249 0.00385279 0.0
1.13246 -0.00486451 0.0
1.09291 0.00509305 0.0
1.17937 0.0051257 0.0
1.19963 0.000120217 0.0
0.570515 -0.00579989 0.0
1.18554 0.0037603 0.0
1.14752 0.00505518 0.0
1.16914 0.00547044 0.0
1.19818 0.00179179 0.0
1.1672 0.00527904 0.0
1.18155 0.00465697 0.0
1.17536 0.000260497 0.0
1.19026 0.00380337 0.0
1.17993 -0.000593793 0.0
1.12939 -0.00382134 0.0
1.13028 -0.00644869 0.0
1.15511 -0.00364537 0.0
1.1872 0.00503365 0.0
1.17501 -0.00347921 0.0
1.18721 0.00278911 0.0
1.16653 -0.00297463 0.0
1.18209 -0.00331372 0.0
1.19069 0.00215475 0.0
1.18515 0.00489211 0.0
0.987423 -0.0109759 0.0
1.17051 -0.00266878 0.0
1.17844 0.00646189 0.0
1.14502 0.00658101 0.0
1.18883 -0.00214664 0.0
1.19384 -7.71414e-05 0.0
1.07632 -0.0171775 0.0
1.16857 0.00949138 0.0
1.17862 -0.00296211 0.0
1.14741 0.0128188 0.0
1.19 -0.000233772 0.0
1.15207 0.0174392 0.0
1.17043 -0.00370245 0.0
1.19187 -0.00219179 0.0
1.17696 -0.000740427 0.0
1.11939 0.176528 0.0
1.15153 -0.00608057 0.0
1.2085 -0.00744813 0.0
1.17465 0.00821484 0.0
1.17909 0.00109306 0.0
1.15758 -0.0121355 0.0
1.16205 -0.00248456 0.0
1.13745 -0.0016604 0.0
1.16101 -0.00828178 0.0
1.17296 0.00225262 0.0
1.13931 0.00018621 0.0
1.16821 0.0019695 0.0
1.16688 -0.0059115 0.0
1.16419 -0.00184596 0.0
1.15441 0.0112841 0.0
1.16516 -0.0049237 0.0
0.714138 -0.0207432 0.0
0.979007 0.00280653 0.0
1.14994 0.0136006 0.0
1.15354 0.00873767 0.0
1.16013 -0.00730106 0.0
1.1409 0.0108701 0.0
1.14937 0.0130999 0.0
1.15179 -0.00242938 0.0
1.13505 0.000715055 0.0
1.14674 -0.0031729 0.0
1.14105 0.00074644 0.0
1.12835 0.0119262 0.0
1.16401 0.00500665 0.0
1.15808 0.00779421 0.0
1.00037 0.00638835 0.0
1.1596 0.00522882 0.0
1.16005 0.0102468 0.0
1.15156 0.0108085 0.0
1.12155 0.0150321 0.0
1.13587 0.0147655 0.0
1.1572 0.0112208 0.0
1.73573 0.181184 0.0
1.1269 -0.0104802 0.0
1.13297 0.0193582 0.0
1.10549 -0.0225201 0.0
1.14987 0.0219442 0.0
1.15153 0.015606 0.0
1.12042 -0.0127639 0.0
1.14875 0.0218618 0.0
1.20739 -0.0042788 0.0
1.07335 -0.00870775 0.0
1.09572 0.0149303 0.0
1.10512 -0.00693533 0.0
1.30667 0.127085 0.0
1.20413 -0.00494156 0.0
1.07816 -0.000628227 0.0
1.15085 -0.00721789 0.0
1.14404 0.0285382 0.0
1.14722 0.0226827 0.0
1.09739 -0.00845601 0.0
1.0994 -0.0275179 0.0
0.986821 -0.0130388 0.0
1.18114 0.000142168 0.0
1.07507 0.000687219 0.0
1.08503 0.00017635 0.0
1.12617 0.0247685 0.0
1.11449 -0.0267675 0.0
1.03012 0.19833 0.0
0.969529 -0.013512 0.0
1.14006 0.0341952 0.0
0.443961 -0.164871 0.0
1.38104 0.132437 0.0
1.18167 -0.0529769 0.0
1.0726 0.0104826 0.0
1.07262 0.0261255 0.0
1.06048 0.0366803 0.0
1.20305 -0.000402806 0.0
1.05978 0.0144805 0.0
1.04228 -0.0445992 0.0
1.30217 0.175916 0.0
1.00505 -0.143257 0.0
1.03697 -0.0582415 0.0
1.1527 -0.13418 0.0
1.14215 -0.0108401 0.0
1.09856 -0.0486014 0.0
1.172 -0.00319332 0.0
0.943714 0.00196866 0.0
1.18156 0.0549648 0.0
1.01576 -0.0139529 0.0
1.23815 -0.102702 0.0
1.20317 -0.00500983 0.0
1.19344 -0.00606706 0.0
1.06238 -0.0201665 0.0
1.39846 -0.56743 0.0
1.13527 0.0842007 0.0
1.00197 -0.0201576 0.0
1.13577 0.0676995 0.0
0.964768 0.00164005 0.0
0.754008 0.0284686 0.0
1.0946 0.0456093 0.0
1.32726 -0.160599 0.0
0.936414 -0.0914564 0.0
1.10237 -0.0401863 0.0
0.632666 -0.556591 0.0
1.10494 -0.0282408 0.0
1.11158 -0.00568431 0.0
1.14797 -0.00647184 0.0
1.39064 -0.140357 0.0
1.08491 0.0605302 0.0
1.17178 -0.0025806 0.0
1.05377 -0.0262865 0.0
1.16548 0.0368393 0.0
0.991378 -0.01595 0.0
1.35006 -0.771811 0.0
1.20932 0.00450998 0.0
1.18013 0.0524112 0.0
1.1889 0.00291968 0.0
1.1233 -0.000309663 0.0
1.18065 -0.0573928 0.0
1.06677 0.0206794 0.0
1.20797 0.0821395 0.0
1.12103 -0.00770572 0.0
1.1608 0.0448691 0.0
0.965707 0.00156362 0.0
1.14406 0.0102323 0.0
1.18056 -0.531665 0.0
0.653627 -0.00622617 0.0
0.675927 -0.0235989 0.0
0.932014 0.0274954 0.0
1.26669 0.120665 0.0
1.14868 -0.00575168 0.0
1.17501 -0.00523216 0.0
0.601132 0.0103546 0.0
1.19248 -0.00553511 0.0
0.330572 -0.123857 0.0
1.07546 -0.099918 0.0
0.569232 0.00803563 0.0
0.573638 -0.0119068 0.0
0.906031 0.0405524 0.0
1.15162 -0.00488809 0.0
0.863947 -0.17432 0.0
0.859891 -0.0240972 0.0
1.6889 -0.124541 0.0
0.939934 0.0375899 0.0
1.14687 -0.0104613 0.0
1.14763 -0.0120083 0.0
1.05098 0.00676484 0.0
1.20743 0.00349858 0.0
1.16948 0.0014295 0.0
1.18513 0.348282 0.0
0.615275 0.0177411 0.0
1.01535 0.003478 0.0
1.36744 -0.0987244 0.0
0.543095 0.00690991 0.0
1.58083 0.560804 0.0
0.939504 -0.0421417 0.0
0.802669 -0.0269237 0.0
1.33955 0.0889203 0.0
0.787414 -0.0538263 0.0
0.956963 6.688e-05 0.0
0.669844 -0.117074 0.0
1.15866 -0.016102 0.0
0.880718 0.0995161 0.0
1.14111 -0.0142442 0.0
0.665157 -0.00410848 0.0
1.02654 0.00500213 0.0
0.984085 0.13694 0.0
1.40997 -0.0333791 0.0
0.527935 -0.00312948 0.0
0.642038 -0.0243721 0.0
0.918769 0.805409 0.0
1.10912 -0.00108645 0.0
1.05051 0.0118212 0.0
1.39175 0.0131271 0.0
0.596936 -0.0107833 0.0
1.13096 0.0162779 0.0
1.16669 -0.448633 0.0
0.18648 0.0223909 0.0
0.930123 -0.0634936 0.0
1.07271 -0.0840164 0.0
0.73166 0.0242091 0.0
0.524057 0.0181728 0.0
1.64868 0.0356638 0.0
1.15109 -0.00587694 0.0
0.311487 0.0152294 0.0
0.577066 0.0253258 0.0
1.14239 -0.00469094 0.0
1.19396 -0.00587209 0.0
1.0036 -0.0164512 0.0
0.94372 0.0629839 0.0
1.20906 0.172385 0.0
0.634176 0.0110126 0.0
1.19079 0.00772394 0.0
0.924605 0.0932324 0.0
1.19642 -0.00659429 0.0
1.38807 -0.593443 0.0
0.529831 0.000241289 0.0
1.45868 -0.130943 0.0
1.10928 0.00593683 0.0
0.959362 -0.0130624 0.0
0.621498 0.0902976 0.0
0.995351 0.102665 0.0
0.897464 0.139843 0.0
1.11159 0.00724885 0.0
1.21473 -0.0587675 0.0
1.39921 -0.0369541 0.0
0.582012 0.00426187 0.0
0.605081 0.0145939 0.0
1.07573 -0.00334666 0.0
0.404535 -0.0728847 0.0
1.04257 0.0367953 0.0
0.501188 0.0037232 0.0
0.970792 -0.0110516 0.0
1.10975 -0.00432556 0.0
0.951089 -0.0089958 0.0
0.555864 -0.00564637 0.0
0.556863 0.0197896 0.0
0.574457 0.00849777 0.0
0.539732 0.00718173 0.0
0.591757 0.0100332 0.0
1.21074 0.669544 0.0
1.36037 0.0691893 0.0
0.965221 -0.00226544 0.0
0.559839 0.00743153 0.0
0.571188 -0.0121757 0.0
0.694781 0.0254364 0.0
1.15298 -0.0481818 0.0
0.612735 0.0011898 0.0
1.6043 -0.192893 0.0
1.29401 0.0961552 0.0
0.540123 -0.140701 0.0
1.34335 -0.0944823 0.0
1.5269 -0.466716 0.0
1.00759 0.00352534 0.0
1.09054 0.0171477 0.0
1.14577 -0.0120181 0.0
0.967729 0.0013378 0.0
0.837103 -0.689274 0.0
1.02234 -0.000163151 0.0
0.979549 -0.00470094 0.0
1.19214 -0.0106199 0.0
1.11756 -0.0345505 0.0
1.64791 -0.000960107 0.0
-0.11929 0.0986241 0.0
0.51048 -0.0691418 0.0
1.33619 0.518116 0.0
1.07599 -0.0114999 0.0
0.609986 -0.010864 0.0
0.58359 -0.00466295 0.0
0.579987 -0.00512335 0.0
1.20743 0.0055375 0.0
0.636289 0.212249 0.0
1.17398 -0.0244774 0.0
0.979571 0.0104231 0.0
0.753767 0.164192 0.0
1.12395 -0.00296268 0.0
0.143544 -0.0107451 0.0
1.17824 0.00572953 0.0
0.575435 0.0204122 0.0
0.572623 -0.00963919 0.0
1.34089 0.0862618 0.0
0.852775 -0.0101356 0.0
1.50688 0.0327136 0.0
0.978115 0.0130761 0.0
0.994831 0.00925384 0.0
0.115317 -0.166277 0.0
0.979065 0.0273046 0.0
1.16993 0.0114003 0.0
1.15231 0.0113843 0.0
0.357782 -0.137002 0.0
1.61681 -0.273062 0.0
1.09082 0.000546125 0.0
1.28841 0.196167 0.0
0.600688 -0.0129914 0.0
0.570141 -0.00665502 0.0
1.12251 -0.0168958 0.0
0.535396 0.090142 0.0
1.12924 -0.0272494 0.0
0.806052 0.0222096 0.0
0.936772 -0.0100861 0.0
1.13048 0.0103653 0.0
1.00326 -0.00392246 0.0
0.201881 -0.0208997 0.0
1.14266 -0.0111711 0.0
0.310642 0.0602017 0.0
1.01587 -0.00202669 0.0
1.0079 -0.00364998 0.0
0.584207 -0.0158786 0.0
1.06678 -0.00810039 0.0
1.17398 -0.0244059 0.0
0.956927 -0.000374202 0.0
0.992563 -0.0115719 0.0
1.20032 -0.964675 0.0
1.13074 0.021563 0.0
1.69275 0.486736 0.0
0.572358 -0.0152029 0.0
0.564115 0.00649267 0.0
1.16454 0.00383998 0.0
1.21486 -0.005466 0.0
1.11039 -0.00678759 0.0
1.12046 -6.51136e-05 0.0
1.17629 0.00391331 0.0
1.12968 0.00333881 0.0
1.20576 -0.00748091 0.0
1.15015 0.0260541 0.0
-0.196304 0.0186662 0.0
1.10042 0.0145572 0.0
-0.0213372 0.0312358 0.0
0.657758 -0.0257832 0.0
1.20505 -0.178497 0.0
1.14133 -0.00914241 0.0
1.36788 -0.138969 0.0
1.64641 -0.502282 0.0
0.314249 -0.0181092 0.0
1.19932 -0.00645681 0.0
1.12897 0.27193 0.0
1.34929 -0.0991335 0.0
1.07139 0.305652 0.0
1.70966 0.0862792 0.0
0.975288 -0.542493 0.0
1.37208 0.132308 0.0
1.12275 -0.0162722 0.0
1.28968 -0.480966 0.0
-0.08497 -0.109279 0.0
1.05603 0.00160776 0.0
1.31868 -0.394784 0.0
0.514688 -0.00468211 0.0
1.41843 -0.149653 0.0
1.68457 0.198011 0.0
1.09041 0.0108167 0.0
0.424013 0.0146766 0.0
0.717048 0.00178292 0.0
0.267885 -0.228515 0.0
0.955072 0.0462014 0.0
-0.116435 -0.0308135 0.0
1.14735 -0.163349 0.0
1.49569 0.144823 0.0
0.531249 0.00874425 0.0
1.22862 -0.0696728 0.0
0.974637 0.00011298 0.0
1.19961 0.00480227 0.0
0.435178 -0.615582 0.0
1.22865 0.264337 0.0
0.731499 -0.163223 0.0
0.191351 -0.330985 0.0
0.520723 0.160707 0.0
1.30261 0.238457 0.0
0.6 0.152958 0.0
0.965618 -0.0111129 0.0
1.13453 -0.0139577 0.0
1.08033 0.00969108 0.0
1.0716 0.00909216 0.0
0.579489 0.00761252 0.0
0.0259455 0.0821807 0.0
1.30831 0.299746 0.0
0.46676 -0.00136159 0.0
1.10074 0.00740377 0.0
0.264437 0.216232 0.0