# vtk DataFile Version 3.0
Malha 2D com triângulos e temperatura
ASCII
DATASET UNSTRUCTURED_GRID

POINTS 688 double
0 0 0
2.2 0 0
2.2 0.41 0
0 0.41 0
0.25 0.2 0
0.05 0 0
0.1 0 0
0.15 0 0
0.2 0 0
0.25 0 0
0.3 0 0
0.35 0 0
0.4 0 0
0.45 0 0
0.5 0 0
0.55 0 0
0.6 0 0
0.65 0 0
0.7 0 0
0.75 0 0
0.8 0 0
0.85 0 0
0.9 0 0
0.95 0 0
1 0 0
1.05 0 0
1.1 0 0
1.15 0 0
1.2 0 0
1.25 0 0
1.3 0 0
1.35 0 0
1.4 0 0
1.45 0 0
1.5 0 0
1.55 0 0
1.6 0 0
1.65 0 0
1.7 0 0
1.75 0 0
1.8 0 0
1.85 0 0
1.9 0 0
1.95 0 0
2 0 0
2.05 0 0
2.1 0 0
2.15 0 0
2.2 0.0455556 0
2.2 0.0911111 0
2.2 0.136667 0
2.2 0.182222 0
2.2 0.227778 0
2.2 0.273333 0
2.2 0.318889 0
2.2 0.364444 0
2.15 0.41 0
2.1 0.41 0
2.05 0.41 0
2 0.41 0
1.95 0.41 0
1.9 0.41 0
1.85 0.41 0
1.8 0.41 0
1.75 0.41 0
1.7 0.41 0
1.65 0.41 0
1.6 0.41 0
1.55 0.41 0
1.5 0.41 0
1.45 0.41 0
1.4 0.41 0
1.35 0.41 0
1.3 0.41 0
1.25 0.41 0
1.2 0.41 0
1.15 0.41 0
1.1 0.41 0
1.05 0.41 0
1 0.41 0
0.95 0.41 0
0.9 0.41 0
0.85 0.41 0
0.8 0.41 0
0.75 0.41 0
0.7 0.41 0
0.65 0.41 0
0.6 0.41 0
0.55 0.41 0
0.5 0.41 0
0.45 0.41 0
0.4 0.41 0
0.35 0.41 0
0.3 0.41 0
0.25 0.41 0
0.2 0.41 0
0.15 0.41 0
0.1 0.41 0
0.05 0.41 0
0 0.364444 0
0 0.318889 0
0 0.273333 0
0 0.227778 0
0 0.182222 0
0 0.136667 0
0 0.0911111 0
0 0.0455556 0
0.248831 0.210749 0
0.245379 0.220994 0
0.239805 0.230259 0
0.232369 0.238108 0
0.22342 0.244176 0
0.213376 0.248177 0
0.202707 0.249927 0
0.191911 0.249341 0
0.181493 0.246449 0
0.171941 0.241384 0
0.1637 0.234385 0
0.157157 0.225778 0
0.152617 0.215965 0
0.150293 0.205406 0
0.150293 0.194594 0
0.152617 0.184035 0
0.157157 0.174222 0
0.1637 0.165615 0
0.171941 0.158616 0
0.181493 0.153551 0
0.191911 0.150659 0
0.202707 0.150073 0
0.213376 0.151823 0
0.22342 0.155824 0
0.232369 0.161892 0
0.239805 0.169741 0
0.245379 0.179006 0
0.248831 0.189251 0
0.421316 0.36725 0
0.426705 0.0366526 0
2.16065 0.209201 0
1.52286 0.0417259 0
0.626017 0.37111 0
1.3257 0.0414552 0
1.02471 0.0432237 0
1.17293 0.0421053 0
0.82501 0.36678 0
1.6757 0.370064 0
1.91628 0.0358195 0
1.82501 0.366432 0
0.723429 0.0421499 0
1.425 0.366699 0
1.97461 0.366224 0
1.12167 0.370137 0
0.975 0.368691 0
0.877672 0.0412714 0
1.27686 0.36884 0
1.725 0.0433013 0
0.579174 0.0416211 0
0.325589 0.363848 0
0.319111 0.0378151 0
0.0394523 0.296111 0
0.0329929 0.11602 0
0.142108 0.187428 0
1.57555 0.364352 0
2.02603 0.0412138 0
0.725007 0.36763 0
0.528647 0.366595 0
1.62699 0.0400272 0
1.82929 0.0421255 0
1.425 0.0418325 0
2.07474 0.364233 0
0.125 0.0433013 0
0.161245 0.155011 0
0.225 0.366699 0
0.210027 0.258536 0
2.16034 0.115449 0
0.0371627 0.204103 0
0.142311 0.212698 0
0.220283 0.0418538 0
0.221965 0.145099 0
0.196802 0.141016 0
0.119851 0.373394 0
0.161112 0.245979 0
0.184892 0.258024 0
2.16342 0.30039 0
2.12627 0.047699 0
0.183325 0.0412617 0
0.152317 0.0762976 0
0.203864 0.0745802 0
0.234384 0.0774346 0
0.215969 0.103585 0
0.245651 0.104548 0
0.186562 0.100216 0
0.268213 0.0793029 0
0.272149 0.109155 0
0.242885 0.159377 0
0.253088 0.128261 0
0.278718 0.13214 0
0.295917 0.115997 0
0.301728 0.138858 0
0.321266 0.12205 0
0.324642 0.151724 0
0.255978 0.181139 0
0.350123 0.129049 0
0.357539 0.159885 0
0.333541 0.181416 0
0.36451 0.19182 0
0.250573 0.230419 0
0.391277 0.169722 0
0.339477 0.212308 0
0.39836 0.205386 0
0.427326 0.18117 0
0.258724 0.206387 0
0.434392 0.219501 0
0.466446 0.193907 0
0.472865 0.243064 0
0.507358 0.209962 0
0.40073 0.238916 0
0.499135 0.1652 0
0.5419 0.179224 0
0.550176 0.22496 0
0.585844 0.194129 0
0.594095 0.240176 0
0.630701 0.209517 0
0.621901 0.162424 0
0.667731 0.178095 0
0.676485 0.226008 0
0.713906 0.194492 0
0.722681 0.242872 0
0.760442 0.211047 0
0.751547 0.162356 0
0.798298 0.179 0
0.807147 0.227866 0
0.845136 0.195775 0
0.854541 0.243285 0
0.892163 0.212344 0
0.902461 0.257947 0
0.93935 0.228684 0
0.930236 0.180167 0
0.977229 0.197066 0
0.986264 0.245777 0
1.02423 0.213991 0
1.0331 0.263172 0
1.07123 0.230975 0
1.06234 0.181814 0
1.10938 0.198721 0
1.09996 0.151012 0
1.14691 0.168161 0
1.15631 0.215921 0
1.19446 0.183678 0
1.20343 0.232645 0
1.2416 0.200322 0
1.23272 0.151117 0
1.2798 0.167954 0
1.28868 0.217167 0
1.32685 0.184862 0
1.33573 0.234064 0
1.3739 0.201768 0
0.789327 0.130094 0
1.38279 0.25097 0
1.42096 0.218674 0
1.41207 0.169471 0
1.45912 0.186378 0
1.46801 0.235581 0
1.50618 0.203285 0
1.51506 0.252489 0
1.55323 0.220192 0
1.54435 0.170989 0
1.5914 0.187896 0
1.60029 0.2371 0
1.63846 0.204803 0
1.64734 0.254007 0
1.68551 0.221711 0
1.67663 0.172507 0
1.72368 0.189415 0
1.73831 0.241548 0
1.77074 0.206322 0
1.76185 0.157121 0
1.8091 0.17428 0
1.81866 0.220885 0
1.85608 0.190621 0
1.86521 0.238879 0
1.90289 0.207671 0
1.91264 0.253772 0
1.94955 0.224093 0
1.94067 0.17593 0
1.98705 0.192828 0
1.99572 0.240997 0
2.0329 0.209382 0
2.02422 0.16161 0
2.04166 0.257286 0
0.419739 0.142889 0
0.968291 0.148058 0
0.310035 0.202211 0
0.316128 0.230863 0
0.658501 0.130052 0
0.685107 0.27445 0
1.34462 0.283266 0
1.16528 0.264896 0
1.84735 0.142081 0
0.557687 0.270604 0
1.21234 0.281769 0
1.58252 0.138692 0
0.533563 0.131933 0
0.489835 0.120004 0
1.45024 0.137174 0
2.06974 0.17785 0
2.06113 0.130713 0
0.283221 0.152215 0
0.921299 0.131169 0
0.343836 0.24295 0
0.319203 0.260002 0
0.235529 0.249617 0
0.347029 0.274099 0
0.291856 0.246297 0
0.295938 0.27548 0
0.272836 0.264931 0
0.27461 0.290522 0
0.251228 0.280224 0
0.253903 0.305808 0
0.232795 0.296709 0
0.298805 0.304058 0
1.0801 0.280176 0
1.47689 0.284785 0
1.05315 0.133468 0
1.09741 0.0970974 0
1.82427 0.272867 0
1.2701 0.118911 0
0.816337 0.277695 0
1.40432 0.121101 0
1.04244 0.320388 0
0.959305 0.103028 0
1.60923 0.286151 0
0.601674 0.286775 0
2.00739 0.280923 0
0.342592 0.0992796 0
0.375237 0.105729 0
1.52511 0.298716 0
1.53114 0.119823 0
0.733824 0.287256 0
0.613372 0.114719 0
0.645558 0.0838585 0
2.015 0.115858 0
1.22718 0.0994086 0
1.39166 0.29817 0
1.3564 0.329754 0
0.744134 0.11556 0
0.782853 0.0841771 0
0.826899 0.10047 0
1.17418 0.314034 0
0.520902 0.0906676 0
1.4967 0.329429 0
1.26048 0.0740437 0
0.365514 0.0716355 0
0.229836 0.121666 0
1.57453 0.09137 0
1.61938 0.110761 0
0.481716 0.0753791 0
0.14093 0.2 0
0.130041 0.192847 0
0.131507 0.178608 0
0.117165 0.184444 0
0.120761 0.164701 0
0.1156 0.199931 0
0.100804 0.174136 0
0.102545 0.153034 0
0.12169 0.143342 0
0.104604 0.13008 0
0.0809304 0.161171 0
0.128077 0.121858 0
0.106825 0.102278 0
0.082498 0.188728 0
0.0314738 0.158621 0
2.04625 0.310891 0
2.08475 0.27479 0
2.11394 0.138117 0
0.233149 0.151108 0
0.258724 0.193613 0
0.268522 0.184917 0
1.65397 0.301059 0
0.145962 0.224912 0
0.132503 0.222267 0
0.13746 0.236947 0
0.120111 0.233525 0
0.126593 0.25219 0
0.105294 0.247497 0
0.113343 0.26868 0
0.133997 0.271734 0
0.121622 0.292031 0
0.147069 0.292141 0
0.0896563 0.267464 0
0.0813699 0.243294 0
0.163574 0.276939 0
0.172694 0.298517 0
0.1583 0.321483 0
0.186823 0.322499 0
0.173113 0.348195 0
0.0322087 0.250839 0
0.211694 0.124337 0
0.250615 0.169546 0
0.256243 0.157787 0
0.170796 0.14736 0
0.156755 0.141654 0
0.17187 0.131161 0
0.147502 0.152323 0
0.198129 0.260662 0
0.206368 0.271663 0
0.220945 0.26864 0
0.190489 0.270628 0
0.198813 0.286731 0
0.55749 0.322277 0
0.520166 0.299321 0
0.235199 0.330709 0
0.267109 0.337524 0
0.172324 0.25256 0
0.255974 0.218859 0
0.268327 0.214994 0
0.184197 0.143083 0
0.188721 0.129954 0
0.209694 0.139146 0
0.269223 0.244007 0
0.252374 0.255244 0
0.282229 0.0410487 0
1.21977 0.330016 0
1.25733 0.296346 0
2.09358 0.0890819 0
0.244373 0.240984 0
0.0838116 0.115786 0
0.0797544 0.0817835 0
0.237449 0.264854 0
0.247178 0.146225 0
0.270136 0.2 0
0.28023 0.191334 0
0.263476 0.170737 0
0.371486 0.368728 0
0.396124 0.330051 0
0.440314 0.325693 0
0.357693 0.329668 0
0.476576 0.362035 0
0.29587 0.222914 0
0.307627 0.175476 0
0.079599 0.0406461 0
0.146062 0.252571 0
0.15162 0.125025 0
0.417223 0.294608 0
0.457089 0.286958 0
0.036619 0.338729 0
0.0713014 0.322193 0
0.0735823 0.36704 0
0.041143 0.0722223 0
0.693501 0.32349 0
0.145406 0.175484 0
0.138777 0.164467 0
0.300367 0.0698839 0
0.167025 0.112083 0
0.146978 0.105544 0
0.151909 0.236762 0
0.444611 0.106436 0
0.909355 0.0817561 0
0.282901 0.370713 0
1.61474 0.330739 0
0.578053 0.368179 0
0.824695 0.0487848 0
2.09634 0.3213 0
2.02276 0.364865 0
2.12532 0.363702 0
1.09789 0.328757 0
0.161137 0.260089 0
2.07793 0.225752 0
2.12079 0.240944 0
2.0747 0.0437362 0
1.89402 0.158846 0
1.93154 0.128738 0
1.8848 0.111477 0
1.8384 0.0926484 0
1.87744 0.0655304 0
1.7913 0.0793874 0
1.9712 0.046671 0
1.92502 0.366682 0
1.94563 0.325156 0
1.89941 0.326645 0
1.87499 0.367178 0
1.84989 0.323491 0
1.7997 0.321303 0
1.77183 0.280326 0
1.75031 0.321965 0
1.77491 0.365615 0
2.11727 0.191885 0
0.883187 0.163467 0
1.71449 0.140266 0
1.667 0.125342 0
1.70591 0.0884759 0
1.67732 0.042286 0
1.52278 0.370513 0
1.37512 0.04128 0
1.34848 0.0834574 0
0.776093 0.367587 0
1.125 0.0433013 0
1.15 0.0866019 0
1.07442 0.0496847 0
0.974527 0.0370837 0
1.47464 0.0427918 0
1.44953 0.0873752 0
1.17595 0.362984 0
1.025 0.366699 0
0.925007 0.367031 0
0.95 0.323404 0
0.897321 0.326356 0
0.874563 0.367261 0
0.846552 0.324465 0
1.62923 0.156667 0
1.32319 0.13033 0
1.69342 0.270472 0
1.49568 0.156227 0
1.56237 0.268721 0
1.44 0.319169 0
1.43005 0.267892 0
1.36502 0.152565 0
0.993446 0.294003 0
1.30179 0.321101 0
1.18235 0.127964 0
1.25016 0.2491 0
1.29638 0.266841 0
1.11824 0.247967 0
1.12945 0.294699 0
1.01527 0.165035 0
0.836192 0.147197 0
1.4998 0.0831488 0
1.00655 0.118664 0
0.872896 0.117126 0
0.70523 0.146383 0
1.96013 0.276645 0
0.769406 0.257102 0
0.699552 0.0908977 0
2.1587 0.162257 0
1.97813 0.145326 0
0.646036 0.302035 0
0.799423 0.326603 0
0.515621 0.255445 0
1.72538 0.366474 0
1.97009 0.0998346 0
1.57108 0.313772 0
0.577925 0.14549 0
0.638911 0.256447 0
0.407352 0.0771641 0
0.525103 0.042511 0
0.674231 0.370698 0
1.69802 0.321701 0
0.56947 0.0908728 0
1.75459 0.110239 0
1.80084 0.126127 0
0.673535 0.0431435 0
1.57391 0.0465733 0
2.04571 0.0828469 0
0.10002 0.225545 0
0.0788152 0.21577 0
0.369719 0.224393 0
0.210352 0.308739 0
1.22342 0.0432967 0
[...]
CELL_DATA 1241
VECTORS velocity double
1.01365 -0.00416194 0.0
1.21731 0.066502 0.0
0.445189 -0.00167551 0.0
0.944255 0.00181696 0.0
1.04419 0.00554662 0.0
1.42286 0.103159 0.0
1.13508 0.000244809 0.0
0.979318 -0.000765261 0.0
0.363165 0.0158256 0.0
1.17955 0.00143039 0.0
1.31247 -0.119983 0.0
1.31627 0.126543 0.0
0.865763 -0.160595 0.0
1.01573 0.00857623 0.0
0.991442 0.00645314 0.0
1.46636 -0.0328877 0.0
0.979825 0.000541603 0.0
0.479612 0.0603816 0.0
1.17285 0.0623783 0.0
1.64766 -0.254204 0.0
1.0213 0.00414581 0.0
1.05945 -0.0663136 0.0
1.03819 -0.000225018 0.0
1.25311 0.904907 0.0
1.07096 -0.00228793 0.0
1.02443 0.0024281 0.0
1.29898 -0.199438 0.0
1.07638 -0.0253987 0.0
1.32175 -0.0836642 0.0
1.46242 -0.0649124 0.0
1.33199 0.0902546 0.0
0.868346 -0.0368822 0.0
1.52046 0.00269328 0.0
1.01435 0.00684261 0.0
1.25684 -0.0565455 0.0
1.35889 0.156966 0.0
1.21281 -0.055363 0.0
1.05041 -0.167832 0.0
0.359562 0.020505 0.0
1.3822 0.141363 0.0
1.7645 -0.179816 0.0
1.41326 -0.045452 0.0
1.05282 -0.237188 0.0
0.500486 0.00661351 0.0
1.39921 -0.167241 0.0
0.496253 -0.00774672 0.0
1.20156 0.0990223 0.0
1.11541 0.0257846 0.0
1.61301 -0.313113 0.0
1.23968 -0.0104603 0.0
1.21523 0.000971948 0.0
1.29083 -0.417497 0.0
0.869522 -0.00364132 0.0
1.40873 -0.0823425 0.0
1.77523 -0.279617 0.0
1.51901 -0.0286864 0.0
1.15112 -0.0399467 0.0
1.12723 -0.000140568 0.0
1.65841 -0.0990997 0.0
1.68774 -0.199376 0.0
1.15855 0.847309 0.0
0.99367 -9.00491e-05 0.0
0.195569 0.0358024 0.0
1.02726 0.00663107 0.0
-0.240024 0.0714462 0.0
1.33192 0.227579 0.0
-0.279599 0.0861838 0.0
1.16796 -0.00208203 0.0
0.86337 -0.0258729 0.0
0.218172 0.0244252 0.0
1.16866 -0.00580631 0.0
0.793425 0.0141526 0.0
1.16756 -0.00536658 0.0
0.791707 -0.0137057 0.0
1.20762 0.0070516 0.0
0.881296 0.157088 0.0
0.94289 0.00728932 0.0
1.63144 -0.0465185 0.0
0.979797 -0.0346049 0.0
0.613482 0.00123645 0.0
1.75194 -0.383013 0.0
1.1597 -0.246733 0.0
0.658604 0.0118649 0.0
1.26146 -0.227373 0.0
1.34581 0.170068 0.0
0.919411 -0.066745 0.0
1.2069 0.178023 0.0
0.0860516 0.0984444 0.0
1.83884 0.530393 0.0
1.19308 0.00307167 0.0
1.2721 0.0102106 0.0
-0.189661 -0.0110337 0.0
-0.348004 0.0782875 0.0
1.44322 -0.0646193 0.0
1.18242 -0.0406547 0.0
0.984566 0.0013589 0.0
0.849231 -0.0258312 0.0
-0.184464 0.0905961 0.0
1.01843 -0.0114028 0.0
-0.244272 0.112554 0.0
1.08214 -0.0985571 0.0
1.1593 -0.0151212 0.0
0.947521 0.0026536 0.0
1.63916 -0.161267 0.0
1.74235 -0.670641 0.0
1.27316 -0.397902 0.0
1.07131 -0.0619556 0.0
0.498262 -0.023665 0.0
1.78799 0.649657 0.0
1.22559 0.00317693 0.0
1.48538 -0.109177 0.0
1.23092 0.189662 0.0
0.131615 0.0759938 0.0
1.44146 -0.0270014 0.0
1.08015 0.0148773 0.0
1.44262 0.0400892 0.0
1.41411 0.00474705 0.0
1.39195 0.0529595 0.0
1.06643 -0.00215089 0.0
0.255295 0.0396998 0.0
1.1901 0.042186 0.0
1.51966 0.581805 0.0
1.25161 0.108211 0.0
0.919985 -0.0634835 0.0
0.726819 -0.0993278 0.0
1.20473 0.0860168 0.0
1.44707 -0.0429199 0.0
1.11891 0.0244908 0.0
1.74956 0.501392 0.0
0.549919 -0.0713178 0.0
1.16614 -0.0152433 0.0
0.622331 -0.00176208 0.0
0.885949 0.0638846 0.0
1.6033 -0.0216098 0.0
1.01943 -0.153223 0.0
-0.276055 0.074568 0.0
0.123168 0.062545 0.0
1.22673 0.082199 0.0
1.04871 -0.0252344 0.0
1.66382 -0.761311 0.0
1.50088 0.00357333 0.0
1.03561 0.00604352 0.0
1.07835 -0.245055 0.0
1.005 0.00698626 0.0
1.5235 0.00720409 0.0
0.0223252 0.031162 0.0
-0.254477 0.0380623 0.0
-0.182764 0.00601745 0.0
0.642333 0.0153555 0.0
0.653584 -0.0117048 0.0
0.555345 -0.101533 0.0
1.03494 -0.00709446 0.0
1.79633 -0.332612 0.0
1.04785 -0.153376 0.0
1.20282 -0.0491844 0.0
1.20456 0.0544229 0.0
0.481921 -0.00107497 0.0
1.64365 0.0738445 0.0
0.85711 0.0303586 0.0
1.24852 -0.0569661 0.0
-0.230503 0.0469712 0.0
1.74047 0.44651 0.0
1.1429 0.00840315 0.0
1.22204 -0.204902 0.0
1.1432 0.0340895 0.0
1.05422 0.130245 0.0
0.981756 -0.00030091 0.0
0.987063 0.109857 0.0
0.566738 -0.00355775 0.0
1.17138 -0.0339956 0.0
0.929261 -0.0246602 0.0
1.23579 0.00342236 0.0
1.36547 0.265549 0.0
1.19114 0.086584 0.0
1.1048 0.00561947 0.0
1.11573 0.00640446 0.0
1.18261 0.198717 0.0
1.12009 -0.287607 0.0
1.11399 0.0121122 0.0
1.16602 -0.225277 0.0
1.11916 0.00905186 0.0
0.363098 0.110227 0.0
1.08768 -0.644368 0.0
0.730583 -0.127093 0.0
1.02527 -0.00857985 0.0
0.765704 -0.0789964 0.0
0.762228 -0.0636709 0.0
1.02768 0.00776396 0.0
1.05545 0.0959234 0.0
0.461055 0.047013 0.0
0.889593 -0.829901 0.0
1.77863 0.345103 0.0
1.02837 -0.00208956 0.0
0.984212 0.00664303 0.0
0.667352 0.0602328 0.0
0.852972 0.0569017 0.0
0.397738 0.05901 0.0
0.998317 -0.0148456 0.0
1.42771 -0.0322272 0.0
1.44964 0.581447 0.0
1.15458 0.193116 0.0
1.06921 -0.0135391 0.0
1.42685 0.038403 0.0
1.0416 -0.0922815 0.0
1.40112 -0.0914546 0.0
1.436 -0.0446928 0.0
0.483215 0.0244022 0.0
0.662558 0.0125631 0.0
0.900072 -0.0227423 0.0
0.85784 0.0334954 0.0
0.515571 0.0170737 0.0
0.514042 -0.00306946 0.0
1.79011 0.28653 0.0
1.1117 0.0118186 0.0
1.44069 -0.00355151 0.0
1.12137 0.0122567 0.0
0.731495 -0.0773577 0.0
1.51123 -0.0906556 0.0
1.1757 -0.0305257 0.0
1.16395 -0.0132981 0.0
0.833097 -0.0495833 0.0
1.67135 -0.0705417 0.0
1.01024 0.0553495 0.0
0.996184 0.0113679 0.0
0.958872 -0.0261629 0.0
1.23411 0.00240519 0.0
1.43555 -0.137301 0.0
1.7298 -0.600869 0.0
1.18423 -0.00562285 0.0
1.2031 -0.0111669 0.0
0.99092 0.000104354 0.0
1.06355 -0.132777 0.0
1.02946 -0.0102252 0.0
0.997808 -0.00674236 0.0
1.25791 0.310859 0.0
1.03831 -0.256621 0.0
1.09396 0.171524 0.0
1.31881 0.132384 0.0
0.74359 -0.10668 0.0
0.355088 -0.0454554 0.0
0.958907 0.0159435 0.0
1.4387 0.0570258 0.0
1.42203 0.918329 0.0
0.682938 -0.0851896 0.0
1.15196 -0.0175783 0.0
1.70423 0.140346 0.0
1.09691 -0.89856 0.0
0.868425 -0.177616 0.0
1.14135 -0.0374843 0.0
0.559649 -0.00851671 0.0
1.02623 0.0270763 0.0
0.543933 -0.00980448 0.0
1.03218 -0.0049157 0.0
1.22672 0.00288531 0.0
0.616903 -0.0119207 0.0
0.775943 -0.0336572 0.0
1.09484 -0.285471 0.0
1.32612 -0.104563 0.0
1.22435 0.000594194 0.0
1.0201 -0.00176691 0.0
1.0023 0.0081928 0.0
0.507659 -0.00587639 0.0
1.22781 0.0056892 0.0
0.737023 -0.0260475 0.0
1.12812 0.0434477 0.0
0.994927 -0.00978615 0.0
0.566813 0.00330674 0.0
1.24092 -0.109879 0.0
1.22738 -0.170982 0.0
0.789593 -0.0266214 0.0
1.13956 -0.0652542 0.0
0.583417 0.00175602 0.0
0.983319 -0.0155155 0.0
0.116337 0.0673556 0.0
1.20248 0.000149588 0.0
1.19767 -0.010622 0.0
0.593587 -0.00396963 0.0
0.942504 -0.194215 0.0
0.987713 -0.0155485 0.0
1.43 0.154413 0.0
1.19904 0.000671721 0.0
1.23516 -0.00150875 0.0
1.22356 -0.170782 0.0
1.23629 -0.00295288 0.0
1.23534 0.000779382 0.0
1.17134 -0.0169607 0.0
0.934723 -0.114508 0.0
0.835802 0.042868 0.0
1.23591 -0.005099 0.0
1.23344 -0.000798065 0.0
1.22864 -0.00192006 0.0
0.634938 0.0705 0.0
0.455626 0.00491829 0.0
0.998388 0.00991164 0.0
0.544181 -0.00752752 0.0
1.23416 -0.005699 0.0
1.0028 -0.01839 0.0
1.16334 0.00997756 0.0
-0.261355 -0.0268148 0.0
0.966401 -0.0123272 0.0
0.499393 -0.00482563 0.0
1.31887 -0.604719 0.0
1.12259 -0.00705846 0.0
0.970805 -0.0161273 0.0
0.52455 -0.0102427 0.0
1.23426 -0.00329805 0.0
0.868487 0.0407294 0.0
0.531374 0.00167425 0.0
0.993141 -0.0156194 0.0
1.23431 -0.00566732 0.0
1.22745 -0.00267463 0.0
1.23286 -0.00339003 0.0
0.62013 -0.00706565 0.0
0.443749 -2.47113e-05 0.0
1.23139 -0.00644723 0.0
1.1415 -0.0734234 0.0
1.20556 -0.00711894 0.0
0.602034 0.0100782 0.0
1.18549 -0.00797448 0.0
1.22511 -0.00591403 0.0
1.21217 0.000994224 0.0
1.2365 -0.00734822 0.0
0.465246 -0.00686101 0.0
1.22956 -0.00637828 0.0
1.23129 -0.00672034 0.0
1.22106 -0.00675737 0.0
0.454615 -0.00392362 0.0
1.21767 -0.00317175 0.0
1.18369 -0.00596546 0.0
1.20216 -0.00103821 0.0
1.2338 -0.00745925 0.0
1.1704 -0.157837 0.0
1.12958 0.0015552 0.0
1.23486 -0.00741259 0.0
1.35089 0.668536 0.0
1.21845 -0.00640053 0.0
0.508388 -0.00707132 0.0
1.09774 -0.0219831 0.0
0.562725 0.00817145 0.0
0.59513 -0.00930899 0.0
1.11701 0.00694658 0.0
1.09768 -0.0122397 0.0
1.07149 -0.00764727 0.0
0.533551 -0.00801107 0.0
1.10352 -0.0216536 0.0
1.12383 0.00553612 0.0
1.23197 -0.00778166 0.0
1.0737 0.138967 0.0
1.15505 -0.696806 0.0
0.564007 -0.00467676 0.0
0.522095 -0.00536272 0.0
1.22711 -0.00574502 0.0
1.22883 -0.008139 0.0
0.620145 -0.0183482 0.0
0.51028 -0.00924489 0.0
1.22429 -0.00496248 0.0
0.992582 0.0165083 0.0
1.16053 0.0113862 0.0
1.15566 -0.0074504 0.0
0.567542 0.00726178 0.0
0.519114 -0.00215558 0.0
1.14343 0.017173 0.0
0.603664 0.0141524 0.0
0.569638 0.0146159 0.0
1.17293 0.00902189 0.0
0.620289 0.0206544 0.0
0.572186 -0.000777353 0.0
1.21441 -0.00402831 0.0
1.20171 -0.00308108 0.0
0.962201 0.0163518 0.0
1.21042 -0.00167262 0.0
1.18255 -0.00172906 0.0
1.21835 -0.00298918 0.0
0.983064 0.0125882 0.0
1.15197 -0.00241714 0.0
0.608015 0.00579724 0.0
0.501583 0.0139819 0.0
0.551648 0.0142413 0.0
0.466729 -0.00789384 0.0
0.532967 0.000929602 0.0
0.556912 -0.00533274 0.0
0.52771 -0.00283844 0.0
0.640399 -0.0137806 0.0
0.540397 -0.00443583 0.0
0.574918 0.0133849 0.0
0.486412 -0.00756124 0.0
0.576906 0.0154937 0.0
0.493729 0.000204837 0.0
0.679167 0.0213035 0.0
0.578728 0.0100553 0.0
0.572669 -0.0114602 0.0
0.488988 0.00281318 0.0
0.528089 -0.00224663 0.0
0.509862 0.00791162 0.0
0.612451 -0.00974074 0.0
0.5325 -0.00071332 0.0
0.601775 -0.00763968 0.0
0.559648 -0.0123386 0.0
0.545702 0.00676638 0.0
0.523404 0.000127658 0.0
0.538558 0.00419483 0.0
0.476097 -0.0170091 0.0
0.493124 0.0196902 0.0
0.494942 0.000523331 0.0
0.55727 -0.00714838 0.0
0.494248 0.00309258 0.0
0.646475 -0.0210551 0.0
0.492621 0.00632658 0.0
0.463756 0.00562779 0.0
0.504154 0.00102203 0.0
0.482207 -0.00261876 0.0
1.18084 -0.000944681 0.0
1.16146 -0.00638057 0.0
1.2269 -0.00735249 0.0
1.22445 -0.00496555 0.0
1.22764 -0.00519782 0.0
1.11961 -0.00799551 0.0
1.19799 -0.00708556 0.0
1.17918 -0.00683733 0.0
1.18173 0.00484243 0.0
1.15435 -0.00110919 0.0
1.21052 -0.00798936 0.0
1.21322 -0.00874367 0.0
1.17497 -0.00669674 0.0
1.21947 -0.00361454 0.0
1.1954 -0.000172507 0.0
1.22116 -0.00609367 0.0
1.19401 -0.00728333 0.0
1.15222 0.00192534 0.0
1.21743 -0.00619482 0.0
1.22253 -0.00417489 0.0
1.20759 -0.000751821 0.0
1.22116 -0.00350424 0.0
1.217 -0.00490686 0.0
1.15641 -0.00902192 0.0
1.22038 -0.00173906 0.0
1.19746 -0.00343075 0.0
1.21734 -0.00112463 0.0
1.12077 -0.00156973 0.0
1.19932 -0.00248861 0.0
1.19154 0.00201224 0.0
1.21207 -0.00139376 0.0
1.17563 -0.00157483 0.0
1.21215 -0.00234779 0.0
1.21539 -0.00239897 0.0
1.18511 0.0045323 0.0
1.21553 -0.00134141 0.0
1.20805 -0.00415765 0.0
1.21012 0.000738587 0.0
1.15261 -0.00847249 0.0
1.17747 -0.00258236 0.0
1.21323 0.000507226 0.0
1.20543 -0.00344039 0.0
1.20169 0.00231865 0.0
1.19856 0.00373505 0.0
1.16002 -0.0125557 0.0
1.21021 0.000488684 0.0
1.20668 0.00085288 0.0
1.13787 -0.00605819 0.0
1.19326 -0.00439219 0.0
1.122 0.00307214 0.0
1.1792 -0.00442267 0.0
1.18913 -0.00398883 0.0
1.2012 -0.0036766 0.0
1.20698 -0.00126467 0.0
1.17496 -0.00453397 0.0
1.20486 -0.00349979 0.0
1.2031 -0.00102455 0.0
1.20483 0.000537827 0.0
1.20111 0.00313336 0.0
1.19764 0.00344944 0.0
1.19458 0.00369719 0.0
1.18361 0.00604177 0.0
1.13598 -0.00642672 0.0
1.09395 0.00789871 0.0
1.17825 0.00709713 0.0
1.20076 0.000919905 0.0
0.577207 -0.00616453 0.0
1.18712 0.00600916 0.0
1.14803 0.00760496 0.0
1.16999 0.00792953 0.0
1.1985 0.00306473 0.0
1.16757 0.00759396 0.0
1.17753 0.005648 0.0
1.17046 0.000251115 0.0
1.18958 0.00546173 0.0
1.17743 -0.000832877 0.0
1.13364 -0.00534005 0.0
1.13329 -0.00817831 0.0
1.15652 -0.00489797 0.0
1.18601 0.00668496 0.0
1.17425 -0.00418327 0.0
1.18436 0.00341164 0.0
1.16783 -0.00405831 0.0
1.18465 -0.0039777 0.0
1.18831 0.00285428 0.0
1.18158 0.00590084 0.0
0.978992 -0.0143229 0.0
1.17234 -0.00364002 0.0
1.17426 0.00781712 0.0
1.14521 0.00913108 0.0
1.18949 -0.00238582 0.0
1.19312 0.000213313 0.0
1.08295 -0.0175976 0.0
1.16465 0.0109402 0.0
1.1783 -0.00358958 0.0
1.14666 0.014946 0.0
1.18876 -2.66797e-05 0.0
1.1496 0.0176133 0.0
1.16719 -0.00436064 0.0
1.1931 -0.00234581 0.0
1.17405 -0.00108508 0.0
1.11937 0.176577 0.0
1.15251 -0.00735036 0.0
1.22341 -0.00967992 0.0
1.17013 0.00950736 0.0
1.17457 0.00120425 0.0
1.15718 -0.0133599 0.0
1.16078 -0.00351064 0.0
1.1392 -0.00300062 0.0
1.16103 -0.00947304 0.0
1.16678 0.00274431 0.0
1.14071 -0.00111641 0.0
1.16179 0.00242072 0.0
1.1633 -0.00673476 0.0
1.16325 -0.00279245 0.0
1.1488 0.0119854 0.0
1.15926 -0.00512608 0.0
0.718752 -0.0204978 0.0
0.972374 0.00525512 0.0
1.1443 0.0142465 0.0
1.14688 0.00948387 0.0
1.15405 -0.00757897 0.0
1.14116 0.0118847 0.0
1.14756 0.0143205 0.0
1.14401 -0.00225454 0.0
1.12663 0.000958996 0.0
1.13898 -0.0030257 0.0
1.13253 0.00104136 0.0
1.12078 0.012056 0.0
1.15715 0.00574747 0.0
1.15149 0.00859652 0.0
0.995397 0.00897121 0.0
1.15262 0.00594396 0.0
1.15705 0.0116612 0.0
1.14998 0.0120995 0.0
1.11418 0.0151609 0.0
1.13584 0.0156339 0.0
1.15394 0.0126108 0.0
1.73544 0.181695 0.0
1.11899 -0.0104119 0.0
1.12699 0.0192257 0.0
1.09926 -0.0221133 0.0
1.14931 0.0217691 0.0
1.1473 0.0160869 0.0
1.11272 -0.012777 0.0
1.14624 0.0218975 0.0
1.22423 -0.00652733 0.0
1.0703 -0.00959605 0.0
1.09907 0.0152012 0.0
1.09628 -0.00679279 0.0
1.30724 0.12599 0.0
1.21958 -0.00542898 0.0
1.0843 -0.00207273 0.0
1.15555 -0.00742707 0.0
1.13987 0.0281073 0.0
1.14654 0.0223694 0.0
1.08889 -0.00842324 0.0
1.09348 -0.0271714 0.0
0.98094 -0.0160973 0.0
1.19543 -0.00195339 0.0
1.06638 0.00071336 0.0
1.07594 0.000247903 0.0
1.12039 0.0246713 0.0
1.12042 -0.0265699 0.0
1.02973 0.198339 0.0
0.960892 -0.0160652 0.0
1.13607 0.0337325 0.0
0.441973 -0.164341 0.0
1.38221 0.131362 0.0
1.18137 -0.0520468 0.0
1.0641 0.0102958 0.0
1.06542 0.0257021 0.0
1.05372 0.0363799 0.0
1.22059 -0.00238338 0.0
1.05171 0.0143336 0.0
1.03732 -0.0439873 0.0
1.30216 0.175953 0.0
1.0031 -0.142371 0.0
1.03249 -0.0577217 0.0
1.15146 -0.133255 0.0
1.1496 -0.0131328 0.0
1.09497 -0.0479738 0.0
1.18199 -0.00344701 0.0
0.93606 0.00179487 0.0
1.18097 0.0539788 0.0
1.00757 -0.01383 0.0
1.2379 -0.101732 0.0
1.21809 -0.0056136 0.0
1.20556 -0.00643453 0.0
1.05476 -0.0199157 0.0
1.39837 -0.567472 0.0
1.13226 0.0834185 0.0
0.99438 -0.0202032 0.0
1.13242 0.0668638 0.0
0.95649 0.00151528 0.0
0.758486 0.0280678 0.0
1.08931 0.0449189 0.0
1.32725 -0.160587 0.0
0.932936 -0.0907463 0.0
1.09843 -0.0395233 0.0
0.632624 -0.556518 0.0
1.11089 -0.0279142 0.0
1.11691 -0.00747839 0.0
1.15435 -0.00794225 0.0
1.39116 -0.139339 0.0
1.08002 0.0600234 0.0
1.182 -0.00264443 0.0
1.0467 -0.0261616 0.0
1.1634 0.0361161 0.0
0.989646 -0.0183486 0.0
1.34995 -0.771789 0.0
1.22957 0.00438011 0.0
1.17962 0.0513804 0.0
1.20394 0.00272007 0.0
1.12711 -0.000877842 0.0
1.1805 -0.0564322 0.0
1.06591 0.0201089 0.0
1.21088 0.0813984 0.0
1.12247 -0.00761775 0.0
1.15892 0.0440787 0.0
0.954579 0.00181195 0.0
1.1535 0.0110788 0.0
1.1805 -0.531636 0.0
0.660097 -0.00601038 0.0
0.681582 -0.0231076 0.0
0.924463 0.0271129 0.0
1.26622 0.119634 0.0
1.15333 -0.00595862 0.0
1.18224 -0.00471686 0.0
0.607756 0.0101509 0.0
1.20259 -0.00561767 0.0
0.327833 -0.123519 0.0
1.07311 -0.0991736 0.0
0.549332 0.00938677 0.0
0.555973 -0.0106929 0.0
0.899095 0.0402905 0.0
1.15847 -0.00647344 0.0
0.863952 -0.174347 0.0
0.845886 -0.0254849 0.0
1.68893 -0.125102 0.0
0.941758 0.0373796 0.0
1.15304 -0.0105467 0.0
1.15361 -0.0120053 0.0
1.0539 0.00865867 0.0
1.22653 0.0033524 0.0
1.1804 0.00114112 0.0
1.18511 0.348336 0.0
0.621125 0.0173009 0.0
1.02151 0.00180588 0.0
1.36963 -0.0978107 0.0
0.538864 0.00767889 0.0
1.58076 0.560949 0.0
0.933519 -0.0417222 0.0
0.796 -0.0266511 0.0
1.34141 0.0881358 0.0
0.781585 -0.0538053 0.0
0.956294 -0.00144434 0.0
0.668385 -0.116129 0.0
1.15507 -0.016805 0.0
0.881021 0.0996642 0.0
1.13497 -0.0143928 0.0
0.658457 -0.00413415 0.0
1.03083 0.00541207 0.0
0.980321 0.136237 0.0
1.4094 -0.0326338 0.0
0.522176 -0.00360806 0.0
0.636191 -0.0245603 0.0
0.918747 0.805446 0.0
1.11053 -0.000908857 0.0
1.05189 0.0115744 0.0
1.39257 0.0136418 0.0
0.603023 -0.01045 0.0
1.1315 0.0184024 0.0
1.16664 -0.448606 0.0
0.186485 0.0223942 0.0
0.924819 -0.063233 0.0
1.07 -0.0832535 0.0
0.735705 0.0239213 0.0
0.518787 0.0178365 0.0
1.64904 0.0364167 0.0
1.15531 -0.00489577 0.0
0.311488 0.0152322 0.0
0.571303 0.0249188 0.0
1.14462 -0.00591828 0.0
1.20444 -0.00599073 0.0
1.00305 -0.0190408 0.0
0.937693 0.0623706 0.0
1.20929 0.172606 0.0
0.641079 0.0107771 0.0
1.20786 0.00721452 0.0
0.919233 0.0928315 0.0
1.21036 -0.00908188 0.0
1.38798 -0.59346 0.0
0.51064 0.00132251 0.0
1.45936 -0.12985 0.0
1.11 0.00854966 0.0
0.94854 -0.014225 0.0
0.621606 0.0903363 0.0
0.99103 0.101833 0.0
0.897476 0.139874 0.0
1.11269 0.0100142 0.0
1.2181 -0.0579328 0.0
1.39921 -0.0369341 0.0
0.587979 0.00498892 0.0
0.611991 0.0149568 0.0
1.07292 -0.0036887 0.0
0.404543 -0.0728945 0.0
1.04412 0.0365671 0.0
0.493383 0.00338876 0.0
0.961936 -0.0113255 0.0
1.11149 -0.00439765 0.0
0.939488 -0.0093337 0.0
0.559333 -0.0066806 0.0
0.558126 0.018741 0.0
0.569069 0.00958774 0.0
0.507854 0.00708004 0.0
0.588252 0.0113945 0.0
1.21071 0.6696 0.0
1.36093 0.0696064 0.0
0.966463 -0.00333085 0.0
0.535659 0.00824409 0.0
0.54723 -0.0126348 0.0
0.700127 0.0249157 0.0
1.15707 -0.0474015 0.0
0.6201 0.00105872 0.0
1.60376 -0.193109 0.0
1.29618 0.0954255 0.0
0.536805 -0.14069 0.0
1.34558 -0.0935834 0.0
1.5268 -0.466861 0.0
1.0112 0.00545814 0.0
1.09149 0.0185311 0.0
1.13961 -0.0121389 0.0
0.959731 0.00371823 0.0
0.837044 -0.689205 0.0
1.02849 -0.00192882 0.0
0.980797 -0.00591594 0.0
1.20493 -0.0133236 0.0
1.12288 -0.0340331 0.0
1.64832 -0.000112896 0.0
-0.120962 0.097715 0.0
0.506221 -0.0687012 0.0
1.33616 0.518186 0.0
1.07241 -0.0119831 0.0
0.609291 -0.0120206 0.0
0.580341 -0.00577456 0.0
0.57498 -0.00617099 0.0
1.22781 0.00534471 0.0
0.63352 0.211188 0.0
1.17447 -0.0243488 0.0
0.977427 0.0128281 0.0
0.751039 0.162994 0.0
1.12546 -0.00123065 0.0
0.137921 -0.00965388 0.0
1.19356 0.00537857 0.0
0.566222 0.0207549 0.0
0.564112 -0.0105173 0.0
1.33995 0.0854518 0.0
0.83708 -0.0116635 0.0
1.50626 0.0319582 0.0
0.974743 0.0155912 0.0
0.990454 0.0119031 0.0
0.111286 -0.166267 0.0
0.970986 0.0291587 0.0
1.16865 0.0134899 0.0
1.15189 0.0134889 0.0
0.355839 -0.136114 0.0
1.6163 -0.273238 0.0
1.09518 -0.000783697 0.0
1.28742 0.194941 0.0
0.58976 -0.0142163 0.0
0.556321 -0.00788988 0.0
1.12386 -0.0165125 0.0
0.530437 0.0896476 0.0
1.12439 -0.0270276 0.0
0.80983 0.0217354 0.0
0.935727 -0.00820874 0.0
1.13073 0.0121937 0.0
0.994693 -0.00286924 0.0
0.201884 -0.0209015 0.0
1.15041 -0.013635 0.0
0.309743 0.0604676 0.0
1.00998 0.000131946 0.0
0.999486 -0.00368258 0.0
0.576726 -0.0153022 0.0
1.07332 -0.00924182 0.0
1.17448 -0.0245606 0.0
0.947231 0.00127712 0.0
0.992422 -0.0138449 0.0
1.2002 -0.964608 0.0
1.13217 0.0222222 0.0
1.69269 0.486956 0.0
0.550158 -0.016769 0.0
0.539197 0.00655259 0.0
1.1664 0.00662982 0.0
1.22862 -0.00665268 0.0
1.11451 -0.00841187 0.0
1.12314 -0.00158616 0.0
1.18077 0.00664813 0.0
1.13105 0.0062443 0.0
1.21992 -0.00958708 0.0
1.15073 0.0256681 0.0
-0.198486 0.0188095 0.0
1.10401 0.0148662 0.0
-0.0254302 0.0286457 0.0
0.664891 -0.025714 0.0
1.2044 -0.177408 0.0
1.14882 -0.0127006 0.0
1.36843 -0.137917 0.0
1.64629 -0.502439 0.0
0.314249 -0.0181113 0.0
1.21399 -0.00903455 0.0
1.12901 0.272026 0.0
1.35148 -0.0982156 0.0
1.07137 0.305701 0.0
1.70948 0.0869191 0.0
0.97523 -0.542437 0.0
1.37208 0.132339 0.0
1.12212 -0.0164465 0.0
1.28962 -0.480968 0.0
-0.087433 -0.108034 0.0
1.06093 -0.000167768 0.0
1.31864 -0.394862 0.0
0.492602 -0.00490495 0.0
1.41867 -0.149981 0.0
1.68465 0.198503 0.0
1.09144 0.0137673 0.0
0.388453 0.0157674 0.0
0.71703 0.00183816 0.0
0.267865 -0.228441 0.0
0.957165 0.0459376 0.0
-0.118762 -0.0298984 0.0
1.14641 -0.162347 0.0
1.49643 0.143675 0.0
0.53791 0.0090484 0.0
1.22933 -0.0687041 0.0
0.964268 0.000811249 0.0
1.21884 0.00454995 0.0
0.435143 -0.615499 0.0
1.22864 0.264385 0.0
0.729137 -0.162518 0.0
0.191332 -0.330916 0.0
0.517454 0.160694 0.0
1.3026 0.238506 0.0
0.597882 0.152169 0.0
0.969767 -0.0130895 0.0
1.14153 -0.0168281 0.0
1.08282 0.0110801 0.0
1.07689 0.00873415 0.0
0.572244 0.00726095 0.0
0.0235481 0.0820009 0.0
1.3083 0.299796 0.0
0.469064 -0.00217697 0.0
1.10142 0.0104397 0.0
0.264443 0.216294 0.0
0.972359 -0.00581417 0.0