# vtk DataFile Version 3.0
Malha 2D com triângulos e temperatura
ASCII
DATASET UNSTRUCTURED_GRID

POINTS 688 double
0 0 0
2.2 0 0
2.2 0.41 0
0 0.41 0
0.25 0.2 0
0.05 0 0
0.1 0 0
0.15 0 0
0.2 0 0
0.25 0 0
0.3 0 0
0.35 0 0
0.4 0 0
0.45 0 0
0.5 0 0
0.55 0 0
0.6 0 0
0.65 0 0
0.7 0 0
0.75 0 0
0.8 0 0
0.85 0 0
0.9 0 0
0.95 0 0
1 0 0
1.05 0 0
1.1 0 0
1.15 0 0
1.2 0 0
1.25 0 0
1.3 0 0
1.35 0 0
1.4 0 0
1.45 0 0
1.5 0 0
1.55 0 0
1.6 0 0
1.65 0 0
1.7 0 0
1.75 0 0
1.8 0 0
1.85 0 0
1.9 0 0
1.95 0 0
2 0 0
2.05 0 0
2.1 0 0
2.15 0 0
2.2 0.0455556 0
2.2 0.0911111 0
2.2 0.136667 0
2.2 0.182222 0
2.2 0.227778 0
2.2 0.273333 0
2.2 0.318889 0
2.2 0.364444 0
2.15 0.41 0
2.1 0.41 0
2.05 0.41 0
2 0.41 0
1.95 0.41 0
1.9 0.41 0
1.85 0.41 0
1.8 0.41 0
1.75 0.41 0
1.7 0.41 0
1.65 0.41 0
1.6 0.41 0
1.55 0.41 0
1.5 0.41 0
1.45 0.41 0
1.4 0.41 0
1.35 0.41 0
1.3 0.41 0
1.25 0.41 0
1.2 0.41 0
1.15 0.41 0
1.1 0.41 0
1.05 0.41 0
1 0.41 0
0.95 0.41 0
0.9 0.41 0
0.85 0.41 0
0.8 0.41 0
0.75 0.41 0
0.7 0.41 0
0.65 0.41 0
0.6 0.41 0
0.55 0.41 0
0.5 0.41 0
0.45 0.41 0
0.4 0.41 0
0.35 0.41 0
0.3 0.41 0
0.25 0.41 0
0.2 0.41 0
0.15 0.41 0
0.1 0.41 0
0.05 0.41 0
0 0.364444 0
0 0.318889 0
0 0.273333 0
0 0.227778 0
0 0.182222 0
0 0.136667 0
0 0.0911111 0
0 0.0455556 0
0.248831 0.210749 0
0.245379 0.220994 0
0.239805 0.230259 0
0.232369 0.238108 0
0.22342 0.244176 0
0.213376 0.248177 0
0.202707 0.249927 0
0.191911 0.249341 0
0.181493 0.246449 0
0.171941 0.241384 0
0.1637 0.234385 0
0.157157 0.225778 0
0.152617 0.215965 0
0.150293 0.205406 0
0.150293 0.194594 0
0.152617 0.184035 0
0.157157 0.174222 0
0.1637 0.165615 0
0.171941 0.158616 0
0.181493 0.153551 0
0.191911 0.150659 0
0.202707 0.150073 0
0.213376 0.151823 0
0.22342 0.155824 0
0.232369 0.161892 0
0.239805 0.169741 0
0.245379 0.179006 0
0.248831 0.189251 0
0.421316 0.36725 0
0.426705 0.0366526 0
2.16065 0.209201 0
1.52286 0.0417259 0
0.626017 0.37111 0
1.3257 0.0414552 0
1.02471 0.0432237 0
1.17293 0.0421053 0
0.82501 0.36678 0
1.6757 0.370064 0
1.91628 0.0358195 0
1.82501 0.366432 0
0.723429 0.0421499 0
1.425 0.366699 0
1.97461 0.366224 0
1.12167 0.370137 0
0.975 0.368691 0
0.877672 0.0412714 0
1.27686 0.36884 0
1.725 0.0433013 0
0.579174 0.0416211 0
0.325589 0.363848 0
0.319111 0.0378151 0
0.0394523 0.296111 0
0.0329929 0.11602 0
0.142108 0.187428 0
1.57555 0.364352 0
2.02603 0.0412138 0
0.725007 0.36763 0
0.528647 0.366595 0
1.62699 0.0400272 0
1.82929 0.0421255 0
1.425 0.0418325 0
2.07474 0.364233 0
0.125 0.0433013 0
0.161245 0.155011 0
0.225 0.366699 0
0.210027 0.258536 0
2.16034 0.115449 0
0.0371627 0.204103 0
0.142311 0.212698 0
0.220283 0.0418538 0
0.221965 0.145099 0
0.196802 0.141016 0
0.119851 0.373394 0
0.161112 0.245979 0
0.184892 0.258024 0
2.16342 0.30039 0
2.12627 0.047699 0
0.183325 0.0412617 0
0.152317 0.0762976 0
0.203864 0.0745802 0
0.234384 0.0774346 0
0.215969 0.103585 0
0.245651 0.104548 0
0.186562 0.100216 0
0.268213 0.0793029 0
0.272149 0.109155 0
0.242885 0.159377 0
0.253088 0.128261 0
0.278718 0.13214 0
0.295917 0.115997 0
0.301728 0.138858 0
0.321266 0.12205 0
0.324642 0.151724 0
0.255978 0.181139 0
0.350123 0.129049 0
0.357539 0.159885 0
0.333541 0.181416 0
0.36451 0.19182 0
0.250573 0.230419 0
0.391277 0.169722 0
0.339477 0.212308 0
0.39836 0.205386 0
0.427326 0.18117 0
0.258724 0.206387 0
0.434392 0.219501 0
0.466446 0.193907 0
0.472865 0.243064 0
0.507358 0.209962 0
0.40073 0.238916 0
0.499135 0.1652 0
0.5419 0.179224 0
0.550176 0.22496 0
0.585844 0.194129 0
0.594095 0.240176 0
0.630701 0.209517 0
0.621901 0.162424 0
0.667731 0.178095 0
0.676485 0.226008 0
0.713906 0.194492 0
0.722681 0.242872 0
0.760442 0.211047 0
0.751547 0.162356 0
0.798298 0.179 0
0.807147 0.227866 0
0.845136 0.195775 0
0.854541 0.243285 0
0.892163 0.212344 0
0.902461 0.257947 0
0.93935 0.228684 0
0.930236 0.180167 0
0.977229 0.197066 0
0.986264 0.245777 0
1.02423 0.213991 0
1.0331 0.263172 0
1.07123 0.230975 0
1.06234 0.181814 0
1.10938 0.198721 0
1.09996 0.151012 0
1.14691 0.168161 0
1.15631 0.215921 0
1.19446 0.183678 0
1.20343 0.232645 0
1.2416 0.200322 0
1.23272 0.151117 0
1.2798 0.167954 0
1.28868 0.217167 0
1.32685 0.184862 0
1.33573 0.234064 0
1.3739 0.201768 0
0.789327 0.130094 0
1.38279 0.25097 0
1.42096 0.218674 0
1.41207 0.169471 0
1.45912 0.186378 0
1.46801 0.235581 0
1.50618 0.203285 0
1.51506 0.252489 0
1.55323 0.220192 0
1.54435 0.170989 0
1.5914 0.187896 0
1.60029 0.2371 0
1.63846 0.204803 0
1.64734 0.254007 0
1.68551 0.221711 0
1.67663 0.172507 0
1.72368 0.189415 0
1.73831 0.241548 0
1.77074 0.206322 0
1.76185 0.157121 0
1.8091 0.17428 0
1.81866 0.220885 0
1.85608 0.190621 0
1.86521 0.238879 0
1.90289 0.207671 0
1.91264 0.253772 0
1.94955 0.224093 0
1.94067 0.17593 0
1.98705 0.192828 0
1.99572 0.240997 0
2.0329 0.209382 0
2.02422 0.16161 0
2.04166 0.257286 0
0.419739 0.142889 0
0.968291 0.148058 0
0.310035 0.202211 0
0.316128 0.230863 0
0.658501 0.130052 0
0.685107 0.27445 0
1.34462 0.283266 0
1.16528 0.264896 0
1.84735 0.142081 0
0.557687 0.270604 0
1.21234 0.281769 0
1.58252 0.138692 0
0.533563 0.131933 0
0.489835 0.120004 0
1.45024 0.137174 0
2.06974 0.17785 0
2.06113 0.130713 0
0.283221 0.152215 0
0.921299 0.131169 0
0.343836 0.24295 0
0.319203 0.260002 0
0.235529 0.249617 0
0.347029 0.274099 0
0.291856 0.246297 0
0.295938 0.27548 0
0.272836 0.264931 0
0.27461 0.290522 0
0.251228 0.280224 0
0.253903 0.305808 0
0.232795 0.296709 0
0.298805 0.304058 0
1.0801 0.280176 0
1.47689 0.284785 0
1.05315 0.133468 0
1.09741 0.0970974 0
1.82427 0.272867 0
1.2701 0.118911 0
0.816337 0.277695 0
1.40432 0.121101 0
1.04244 0.320388 0
0.959305 0.103028 0
1.60923 0.286151 0
0.601674 0.286775 0
2.00739 0.280923 0
0.342592 0.0992796 0
0.375237 0.105729 0
1.52511 0.298716 0
1.53114 0.119823 0
0.733824 0.287256 0
0.613372 0.114719 0
0.645558 0.0838585 0
2.015 0.115858 0
1.22718 0.0994086 0
1.39166 0.29817 0
1.3564 0.329754 0
0.744134 0.11556 0
0.782853 0.0841771 0
0.826899 0.10047 0
1.17418 0.314034 0
0.520902 0.0906676 0
1.4967 0.329429 0
1.26048 0.0740437 0
0.365514 0.0716355 0
0.229836 0.121666 0
1.57453 0.09137 0
1.61938 0.110761 0
0.481716 0.0753791 0
0.14093 0.2 0
0.130041 0.192847 0
0.131507 0.178608 0
0.117165 0.184444 0
0.120761 0.164701 0
0.1156 0.199931 0
0.100804 0.174136 0
0.102545 0.153034 0
0.12169 0.143342 0
0.104604 0.13008 0
0.0809304 0.161171 0
0.128077 0.121858 0
0.106825 0.102278 0
0.082498 0.188728 0
0.0314738 0.158621 0
2.04625 0.310891 0
2.08475 0.27479 0
2.11394 0.138117 0
0.233149 0.151108 0
0.258724 0.193613 0
0.268522 0.184917 0
1.65397 0.301059 0
0.145962 0.224912 0
0.132503 0.222267 0
0.13746 0.236947 0
0.120111 0.233525 0
0.126593 0.25219 0
0.105294 0.247497 0
0.113343 0.26868 0
0.133997 0.271734 0
0.121622 0.292031 0
0.147069 0.292141 0
0.0896563 0.267464 0
0.0813699 0.243294 0
0.163574 0.276939 0
0.172694 0.298517 0
0.1583 0.321483 0
0.186823 0.322499 0
0.173113 0.348195 0
0.0322087 0.250839 0
0.211694 0.124337 0
0.250615 0.169546 0
0.256243 0.157787 0
0.170796 0.14736 0
0.156755 0.141654 0
0.17187 0.131161 0
0.147502 0.152323 0
0.198129 0.260662 0
0.206368 0.271663 0
0.220945 0.26864 0
0.190489 0.270628 0
0.198813 0.286731 0
0.55749 0.322277 0
0.520166 0.299321 0
0.235199 0.330709 0
0.267109 0.337524 0
0.172324 0.25256 0
0.255974 0.218859 0
0.268327 0.214994 0
0.184197 0.143083 0
0.188721 0.129954 0
0.209694 0.139146 0
0.269223 0.244007 0
0.252374 0.255244 0
0.282229 0.0410487 0
1.21977 0.330016 0
1.25733 0.296346 0
2.09358 0.0890819 0
0.244373 0.240984 0
0.0838116 0.115786 0
0.0797544 0.0817835 0
0.237449 0.264854 0
0.247178 0.146225 0
0.270136 0.2 0
0.28023 0.191334 0
0.263476 0.170737 0
0.371486 0.368728 0
0.396124 0.330051 0
0.440314 0.325693 0
0.357693 0.329668 0
0.476576 0.362035 0
0.29587 0.222914 0
0.307627 0.175476 0
0.079599 0.0406461 0
0.146062 0.252571 0
0.15162 0.125025 0
0.417223 0.294608 0
0.457089 0.286958 0
0.036619 0.338729 0
0.0713014 0.322193 0
0.0735823 0.36704 0
0.041143 0.0722223 0
0.693501 0.32349 0
0.145406 0.175484 0
0.138777 0.164467 0
0.300367 0.0698839 0
0.167025 0.112083 0
0.146978 0.105544 0
0.151909 0.236762 0
0.444611 0.106436 0
0.909355 0.0817561 0
0.282901 0.370713 0
1.61474 0.330739 0
0.578053 0.368179 0
0.824695 0.0487848 0
2.09634 0.3213 0
2.02276 0.364865 0
2.12532 0.363702 0
1.09789 0.328757 0
0.161137 0.260089 0
2.07793 0.225752 0
2.12079 0.240944 0
2.0747 0.0437362 0
1.89402 0.158846 0
1.93154 0.128738 0
1.8848 0.111477 0
1.8384 0.0926484 0
1.87744 0.0655304 0
1.7913 0.0793874 0
1.9712 0.046671 0
1.92502 0.366682 0
1.94563 0.325156 0
1.89941 0.326645 0
1.87499 0.367178 0
1.84989 0.323491 0
1.7997 0.321303 0
1.77183 0.280326 0
1.75031 0.321965 0
1.77491 0.365615 0
2.11727 0.191885 0
0.883187 0.163467 0
1.71449 0.140266 0
1.667 0.125342 0
1.70591 0.0884759 0
1.67732 0.042286 0
1.52278 0.370513 0
1.37512 0.04128 0
1.34848 0.0834574 0
0.776093 0.367587 0
1.125 0.0433013 0
1.15 0.0866019 0
1.07442 0.0496847 0
0.974527 0.0370837 0
1.47464 0.0427918 0
1.44953 0.0873752 0
1.17595 0.362984 0
1.025 0.366699 0
0.925007 0.367031 0
0.95 0.323404 0
0.897321 0.326356 0
0.874563 0.367261 0
0.846552 0.324465 0
1.62923 0.156667 0
1.32319 0.13033 0
1.69342 0.270472 0
1.49568 0.156227 0
1.56237 0.268721 0
1.44 0.319169 0
1.43005 0.267892 0
1.36502 0.152565 0
0.993446 0.294003 0
1.30179 0.321101 0
1.18235 0.127964 0
1.25016 0.2491 0
1.29638 0.266841 0
1.11824 0.247967 0
1.12945 0.294699 0
1.01527 0.165035 0
0.836192 0.147197 0
1.4998 0.0831488 0
1.00655 0.118664 0
0.872896 0.117126 0
0.70523 0.146383 0
1.96013 0.276645 0
0.769406 0.257102 0
0.699552 0.0908977 0
2.1587 0.162257 0
1.97813 0.145326 0
0.646036 0.302035 0
0.799423 0.326603 0
0.515621 0.255445 0
1.72538 0.366474 0
1.97009 0.0998346 0
1.57108 0.313772 0
0.577925 0.14549 0
0.638911 0.256447 0
0.407352 0.0771641 0
0.525103 0.042511 0
0.674231 0.370698 0
1.69802 0.321701 0
0.56947 0.0908728 0
1.75459 0.110239 0
1.80084 0.126127 0
0.673535 0.0431435 0
1.57391 0.0465733 0
2.04571 0.0828469 0
0.10002 0.225545 0
0.0788152 0.21577 0
0.369719 0.224393 0
0.210352 0.308739 0
1.22342 0.0432967 0
[...]
CELL_DATA 1241
VECTORS velocity double
1.02838 -0.00332651 0.0
1.20941 0.0684441 0.0
0.499365 1.22633e-06 0.0
0.965844 0.00478655 0.0
1.03469 0.00856108 0.0
1.42179 0.101963 0.0
1.12779 -0.000405629 0.0
0.996368 -0.00106792 0.0
0.365818 0.015135 0.0
1.16039 0.00131186 0.0
1.31248 -0.120003 0.0
1.31627 0.126456 0.0
0.86577 -0.160563 0.0
1.01415 0.00483843 0.0
0.990692 0.00745253 0.0
1.46479 -0.0313858 0.0
0.980236 0.00209445 0.0
0.479458 0.0603039 0.0
1.16397 0.0638897 0.0
1.64783 -0.253204 0.0
1.03268 0.00613607 0.0
1.05828 -0.0658953 0.0
1.02862 0.00261794 0.0
1.25321 0.904749 0.0
1.0733 -0.0011058 0.0
1.03625 0.00410844 0.0
1.29866 -0.198865 0.0
1.07499 -0.0248891 0.0
1.32176 -0.0836779 0.0
1.46108 -0.0636077 0.0
1.33199 0.0901942 0.0
0.859222 -0.0376516 0.0
1.51806 0.000828379 0.0
1.01271 0.00337849 0.0
1.24933 -0.0582296 0.0
1.35813 0.156046 0.0
1.20458 -0.0567013 0.0
1.05043 -0.167812 0.0
0.359505 0.0204617 0.0
1.38134 0.140373 0.0
1.76536 -0.178525 0.0
1.41511 -0.0441957 0.0
1.05283 -0.236999 0.0
0.554141 0.00663504 0.0
1.39873 -0.166333 0.0
0.547313 -0.00298769 0.0
1.2034 0.100611 0.0
1.10565 0.0251482 0.0
1.61322 -0.312305 0.0
1.24178 -0.0121322 0.0
1.18594 0.000632565 0.0
1.29099 -0.417399 0.0
0.871678 -0.00434237 0.0
1.40373 -0.0842776 0.0
1.77609 -0.27862 0.0
1.51654 -0.0307743 0.0
1.14048 -0.0394825 0.0
1.12066 -0.000662849 0.0
1.65977 -0.0977723 0.0
1.6879 -0.198048 0.0
1.15863 0.847128 0.0
1.00839 3.53443e-06 0.0
0.198608 0.0334347 0.0
1.03763 0.00804287 0.0
-0.242168 0.070839 0.0
1.33193 0.227427 0.0
-0.276347 0.0882924 0.0
1.14987 0.00118176 0.0
0.854984 -0.0265358 0.0
0.222376 0.0254468 0.0
1.15068 -0.00193298 0.0
0.795681 0.0130951 0.0
1.14999 -0.00123919 0.0
0.794731 -0.0159033 0.0
1.17753 0.00646776 0.0
0.881223 0.156945 0.0
0.950373 0.00456111 0.0
1.63276 -0.0448021 0.0
0.974074 -0.0353584 0.0
0.620321 -9.26784e-05 0.0
1.75251 -0.382264 0.0
1.15964 -0.246407 0.0
0.651467 0.0104671 0.0
1.26125 -0.226814 0.0
1.34582 0.169945 0.0
0.91884 -0.066422 0.0
1.21152 0.180894 0.0
0.0923107 0.100605 0.0
1.83932 0.529738 0.0
1.16667 0.00298361 0.0
1.27421 0.00891884 0.0
-0.186287 -0.0118906 0.0
-0.346926 0.0802384 0.0
1.43925 -0.0665833 0.0
1.17936 -0.0406176 0.0
1.00065 0.00101533 0.0
0.852542 -0.0274338 0.0
-0.185553 0.0910074 0.0
1.01327 -0.00851482 0.0
-0.239836 0.115809 0.0
1.08214 -0.0985526 0.0
1.14438 -0.0100054 0.0
0.953754 -0.000551349 0.0
1.64077 -0.160431 0.0
1.74322 -0.670573 0.0
1.2733 -0.397837 0.0
1.07387 -0.0643339 0.0
0.501483 -0.0222852 0.0
1.78868 0.649393 0.0
1.19249 0.00252814 0.0
1.48327 -0.11194 0.0
1.23522 0.192361 0.0
0.132494 0.0749724 0.0
1.44147 -0.0270405 0.0
1.07769 0.0154791 0.0
1.44263 0.0400356 0.0
1.41177 0.00629562 0.0
1.39006 0.051507 0.0
1.05758 0.000480726 0.0
0.260384 0.0419002 0.0
1.19194 0.0413476 0.0
1.51979 0.581448 0.0
1.25133 0.110334 0.0
0.919148 -0.0632675 0.0
0.730558 -0.101212 0.0
1.20683 0.0874318 0.0
1.44343 -0.0447062 0.0
1.10872 0.0234374 0.0
1.7505 0.501133 0.0
0.549809 -0.0712869 0.0
1.14992 -0.0105232 0.0
0.613977 -0.00250059 0.0
0.884778 0.0636012 0.0
1.60223 -0.0195854 0.0
1.02358 -0.155269 0.0
-0.274763 0.0744541 0.0
0.123805 0.0598708 0.0
1.21871 0.0840358 0.0
1.04459 -0.0258728 0.0
1.66457 -0.761356 0.0
1.50088 0.00354537 0.0
1.03569 0.00208422 0.0
1.07832 -0.244856 0.0
1.00183 0.00759786 0.0
1.52552 0.00902833 0.0
0.0282873 0.0323205 0.0
-0.253547 0.0366073 0.0
-0.17789 0.00642292 0.0
0.650432 0.0132839 0.0
0.658983 -0.013258 0.0
0.55528 -0.101478 0.0
1.03152 -0.00774431 0.0
1.79711 -0.331812 0.0
1.05169 -0.155526 0.0
1.20282 -0.0491847 0.0
1.20456 0.0543892 0.0
0.536328 0.000181907 0.0
1.64254 0.0720263 0.0
0.860414 0.0318801 0.0
1.24041 -0.0584781 0.0
-0.231337 0.0493127 0.0
1.74065 0.445712 0.0
1.13742 0.00409182 0.0
1.22207 -0.204913 0.0
1.13337 0.033802 0.0
1.05421 0.130164 0.0
0.997852 -0.00170462 0.0
0.987098 0.109675 0.0
0.587072 -0.00265433 0.0
1.16847 -0.0325589 0.0
0.92147 -0.0256112 0.0
1.1989 0.00308625 0.0
1.36519 0.264891 0.0
1.18191 0.0885295 0.0
1.10237 0.00146246 0.0
1.11309 0.002154 0.0
1.18205 0.198118 0.0
1.12015 -0.287504 0.0
1.11088 0.00732308 0.0
1.16585 -0.224945 0.0
1.11629 0.00489003 0.0
0.366154 0.108811 0.0
1.0879 -0.644563 0.0
0.730423 -0.127011 0.0
1.01939 -0.0057547 0.0
0.76549 -0.0788611 0.0
0.761877 -0.0635259 0.0
1.02821 0.00369012 0.0
1.05544 0.0958688 0.0
0.460843 0.0469718 0.0
0.889838 -0.83017 0.0
1.7788 0.344057 0.0
1.02645 -0.00160421 0.0
0.979242 0.008512 0.0
0.666948 0.0600639 0.0
0.85612 0.0586901 0.0
0.39769 0.0589604 0.0
1.01392 -0.0130569 0.0
1.42771 -0.0322389 0.0
1.44974 0.581127 0.0
1.15455 0.192987 0.0
1.06631 -0.0143787 0.0
1.42685 0.0383766 0.0
1.04413 -0.0948689 0.0
1.39591 -0.093583 0.0
1.43602 -0.0447473 0.0
0.48604 0.0253526 0.0
0.649578 0.0123121 0.0
0.893603 -0.0235924 0.0
0.850828 0.034197 0.0
0.56829 0.0154965 0.0
0.547538 -0.00191135 0.0
1.79029 0.28532 0.0
1.10947 0.00691656 0.0
1.44229 -0.00543607 0.0
1.11768 0.0076537 0.0
0.74243 -0.0789423 0.0
1.50959 -0.0933694 0.0
1.17235 -0.0289825 0.0
1.14811 -0.00848648 0.0
0.833099 -0.0495761 0.0
1.67146 -0.0686719 0.0
1.00871 0.0548685 0.0
0.998607 0.0127406 0.0
0.95392 -0.0268046 0.0
1.19804 0.00246983 0.0
1.4331 -0.140047 0.0
1.73049 -0.600585 0.0
1.16874 -0.00549659 0.0
1.1798 -0.0075962 0.0
1.00587 -0.00151133 0.0
1.06356 -0.132767 0.0
1.024 -0.00741237 0.0
0.994903 -0.00450083 0.0
1.25888 0.310813 0.0
1.03831 -0.25651 0.0
1.1009 0.174605 0.0
1.31657 0.13492 0.0
0.752481 -0.108276 0.0
0.35505 -0.0454449 0.0
0.956703 0.0154995 0.0
1.43871 0.0569532 0.0
1.42221 0.918162 0.0
0.682941 -0.0851638 0.0
1.13828 -0.0125191 0.0
1.7047 0.138781 0.0
1.09721 -0.898803 0.0
0.868439 -0.177565 0.0
1.13122 -0.0370743 0.0
0.593715 -0.00704634 0.0
1.0245 0.0265847 0.0
0.580401 -0.00862578 0.0
1.03172 -0.00249155 0.0
1.19255 0.00344552 0.0
0.651124 -0.011629 0.0
0.765994 -0.0342734 0.0
1.09489 -0.285418 0.0
1.32269 -0.106784 0.0
1.1911 0.0016898 0.0
1.0125 -0.00425801 0.0
1.01803 0.00923001 0.0
0.543626 -0.00495348 0.0
1.19249 0.00478208 0.0
0.725603 -0.0263484 0.0
1.11765 0.0433378 0.0
1.00907 -0.00797766 0.0
0.598357 0.00379739 0.0
1.24079 -0.11166 0.0
1.22894 -0.173968 0.0
0.779082 -0.0270792 0.0
1.1429 -0.0661494 0.0
0.618308 0.000951594 0.0
0.993265 -0.0120003 0.0
0.120479 0.0697993 0.0
1.17741 -0.00011549 0.0
1.17568 -0.00709822 0.0
0.628599 -0.0040519 0.0
0.94549 -0.19635 0.0
0.992824 -0.0121816 0.0
1.42827 0.157937 0.0
1.1729 0.00258681 0.0
1.19931 8.99838e-05 0.0
1.22359 -0.170794 0.0
1.20153 -0.00137847 0.0
1.19953 0.00106203 0.0
1.16592 -0.0139011 0.0
0.94247 -0.115857 0.0
0.835801 0.0428465 0.0
1.20296 -0.00344292 0.0
1.19863 5.09011e-05 0.0
1.19605 -0.00128643 0.0
0.634313 0.0703584 0.0
0.51147 0.00475825 0.0
0.992502 0.00702373 0.0
0.580674 -0.0072147 0.0
1.20164 -0.00316772 0.0
1.00953 -0.0139402 0.0
1.14471 0.0100329 0.0
-0.258164 -0.0274183 0.0
0.986715 -0.00754005 0.0
0.545539 -0.00258668 0.0
1.31966 -0.604915 0.0
1.11856 -0.00668635 0.0
0.984618 -0.0123304 0.0
0.564053 -0.00884988 0.0
1.20066 -0.00158466 0.0
0.860608 0.0415087 0.0
0.567775 0.00147085 0.0
1.00308 -0.0112634 0.0
1.20243 -0.00388911 0.0
1.19572 -0.00186165 0.0
1.19815 -0.00129452 0.0
0.653853 -0.00535819 0.0
0.493313 0.00153381 0.0
1.20157 -0.00495218 0.0
1.14448 -0.0743927 0.0
1.18341 -0.00603947 0.0
0.636181 0.00952619 0.0
1.16913 -0.00706893 0.0
1.19355 -0.00275817 0.0
1.18378 0.000868336 0.0
1.20493 -0.00492924 0.0
0.507783 -0.00561405 0.0
1.2007 -0.00469793 0.0
1.20009 -0.00396982 0.0
1.19538 -0.00549459 0.0
0.500093 -0.00263728 0.0
1.18751 -0.000505207 0.0
1.1676 -0.00481022 0.0
1.17736 -0.000915994 0.0
1.20343 -0.00502926 0.0
1.17247 -0.160183 0.0
1.12268 0.000848299 0.0
1.20522 -0.00555475 0.0
1.35097 0.668296 0.0
1.19361 -0.00504134 0.0
0.551021 -0.00585245 0.0
1.08671 -0.0195278 0.0
0.597913 0.00817206 0.0
0.588126 -0.00772159 0.0
1.1303 0.00558612 0.0
1.08625 -0.00936222 0.0
1.06115 -0.00421652 0.0
0.528053 -0.00684538 0.0
1.09194 -0.0189069 0.0
1.13679 0.00426044 0.0
1.20345 -0.00590346 0.0
1.08156 0.14181 0.0
1.15566 -0.697105 0.0
0.563162 -0.00230489 0.0
0.519788 -0.0040449 0.0
1.20055 -0.00481961 0.0
1.20178 -0.00624193 0.0
0.622948 -0.0202366 0.0
0.511546 -0.0104497 0.0
1.1988 -0.00427121 0.0
0.992933 0.0125055 0.0
1.16314 0.0080693 0.0
1.1458 -0.00483134 0.0
0.57089 0.00936679 0.0
0.523983 -0.000959558 0.0
1.14833 0.0145112 0.0
0.615876 0.0119149 0.0
0.580412 0.0129521 0.0
1.17034 0.00550499 0.0
0.629242 0.0205411 0.0
0.58338 0.000264649 0.0
1.19243 -0.0043005 0.0
1.18318 -0.00419868 0.0
0.971646 0.0131144 0.0
1.19154 -0.00336755 0.0
1.16871 -0.00370197 0.0
1.19708 -0.00377586 0.0
0.994959 0.00847103 0.0
1.14332 -0.00365529 0.0
0.630856 0.00665121 0.0
0.528209 0.0135545 0.0
0.579306 0.0120394 0.0
0.504597 -0.0084758 0.0
0.567348 -0.000365627 0.0
0.582102 -0.00397921 0.0
0.544907 -0.00182153 0.0
0.629822 -0.0128435 0.0
0.584279 -0.00434716 0.0
0.599031 0.0118155 0.0
0.525697 -0.00635176 0.0
0.571341 0.01433 0.0
0.539424 -0.000192303 0.0
0.666794 0.0216655 0.0
0.566602 0.00960581 0.0
0.562768 -0.0108022 0.0
0.522578 0.00187736 0.0
0.551135 -0.00132491 0.0
0.536566 0.00673632 0.0
0.603398 -0.00851886 0.0
0.575757 -0.00162859 0.0
0.590438 -0.00723998 0.0
0.564188 -0.0133991 0.0
0.560039 0.00491737 0.0
0.547479 -0.000700543 0.0
0.570498 0.00228528 0.0
0.518196 -0.0154554 0.0
0.505269 0.0194323 0.0
0.496324 0.00224817 0.0
0.549165 -0.00628409 0.0
0.526772 0.00342504 0.0
0.634482 -0.0212483 0.0
0.522699 0.00455497 0.0
0.508037 0.00443535 0.0
0.54912 0.000214735 0.0
0.527496 -0.00294671 0.0
1.16757 -0.00309999 0.0
1.14936 -0.00404915 0.0
1.20072 -0.00580152 0.0
1.20042 -0.00463168 0.0
1.20239 -0.0046922 0.0
1.11028 -0.00498888 0.0
1.17873 -0.00488674 0.0
1.16169 -0.00401165 0.0
1.17217 0.00130004 0.0
1.14626 -0.00385319 0.0
1.18792 -0.00580148 0.0
1.18945 -0.0062077 0.0
1.15837 -0.00420793 0.0
1.19853 -0.00351916 0.0
1.18045 -0.00285627 0.0
1.19755 -0.00475155 0.0
1.17581 -0.00525295 0.0
1.14453 -0.00113563 0.0
1.19511 -0.00499113 0.0
1.20034 -0.00389902 0.0
1.18979 -0.00267766 0.0
1.19874 -0.00409962 0.0
1.19408 -0.00492667 0.0
1.14508 -0.00660597 0.0
1.20044 -0.00259833 0.0
1.18192 -0.0020083 0.0
1.19863 -0.00210752 0.0
1.11129 0.000520045 0.0
1.18156 -0.00374498 0.0
1.17767 -0.000937486 0.0
1.19692 -0.00200869 0.0
1.16136 8.33212e-05 0.0
1.19497 -0.0021312 0.0
1.19702 -0.00209485 0.0
1.17462 0.000895808 0.0
1.19913 -0.00193078 0.0
1.18873 -0.00293576 0.0
1.19428 -0.00117841 0.0
1.14354 -0.0057881 0.0
1.16247 -0.000726196 0.0
1.19617 -0.00136525 0.0
1.18721 -0.00238805 0.0
1.18787 -0.000475759 0.0
1.1858 0.000763946 0.0
1.1607 -0.0103771 0.0
1.19646 -0.00100527 0.0
1.19417 -0.000669345 0.0
1.12781 -0.00339574 0.0
1.17873 -0.00298464 0.0
1.11259 0.00486243 0.0
1.16706 -0.00248979 0.0
1.17838 -0.00248926 0.0
1.18785 -0.00284589 0.0
1.19456 -0.00126913 0.0
1.16375 -0.00259373 0.0
1.19038 -0.00268074 0.0
1.1919 -0.00100913 0.0
1.19503 -0.00032315 0.0
1.19018 0.000703503 0.0
1.18785 0.00102038 0.0
1.1885 0.00193028 0.0
1.17633 0.00282838 0.0
1.12709 -0.00366229 0.0
1.09177 0.00366651 0.0
1.17474 0.00374831 0.0
1.19217 6.77312e-05 0.0
0.573026 -0.00428094 0.0
1.17896 0.00270387 0.0
1.1438 0.00348736 0.0
1.16398 0.00409779 0.0
1.1913 0.00133221 0.0
1.16239 0.00395658 0.0
1.17843 0.0038235 0.0
1.17306 0.000330517 0.0
1.18456 0.00289285 0.0
1.17557 -0.00019327 0.0
1.12421 -0.00258571 0.0
1.12509 -0.00522398 0.0
1.14949 -0.00255811 0.0
1.18202 0.00401669 0.0
1.16983 -0.00266147 0.0
1.18284 0.00245773 0.0
1.16072 -0.00197335 0.0
1.17492 -0.00241779 0.0
1.18579 0.00185874 0.0
1.18146 0.00411008 0.0
0.996466 -0.00917709 0.0
1.16432 -0.00164064 0.0
1.17579 0.00515405 0.0
1.14155 0.00494163 0.0
1.18223 -0.00153657 0.0
1.18769 0.000102716 0.0
1.0719 -0.0144676 0.0
1.16652 0.0076941 0.0
1.17302 -0.00217095 0.0
1.14446 0.0105325 0.0
1.1844 -5.32339e-05 0.0
1.15108 0.0150287 0.0
1.16706 -0.00286773 0.0
1.18477 -0.0015819 0.0
1.17305 -0.0003037 0.0
1.11941 0.176391 0.0
1.14625 -0.00492418 0.0
1.19497 -0.00619171 0.0
1.17251 0.00678541 0.0
1.17624 0.00108678 0.0
1.15275 -0.0102573 0.0
1.15763 -0.00151102 0.0
1.13193 -0.000512468 0.0
1.15568 -0.00667792 0.0
1.17187 0.00176599 0.0
1.13395 0.00135555 0.0
1.16767 0.00148032 0.0
1.16399 -0.00485089 0.0
1.15947 -0.000948975 0.0
1.15512 0.00930446 0.0
1.16423 -0.00439081 0.0
0.707684 -0.0208468 0.0
0.986979 0.00164963 0.0
1.1511 0.0114995 0.0
1.15487 0.00711515 0.0
1.15977 -0.00658427 0.0
1.13758 0.00828085 0.0
1.14725 0.0105357 0.0
1.15351 -0.00244928 0.0
1.13907 0.000186013 0.0
1.14895 -0.0031396 0.0
1.14457 0.000206338 0.0
1.13298 0.0104281 0.0
1.16429 0.00396691 0.0
1.15892 0.00625551 0.0
1.00706 0.00516044 0.0
1.16038 0.00412324 0.0
1.158 0.00811744 0.0
1.14906 0.00838929 0.0
1.12655 0.013423 0.0
1.13304 0.0120168 0.0
1.15557 0.008961 0.0
1.73621 0.180229 0.0
1.13086 -0.00994538 0.0
1.13657 0.0176428 0.0
1.11 -0.0217778 0.0
1.14762 0.0195388 0.0
1.15165 0.0133052 0.0
1.12482 -0.0120359 0.0
1.14816 0.0194488 0.0
1.19337 -0.00331834 0.0
1.07517 -0.00744293 0.0
1.09159 0.0123345 0.0
1.11172 -0.00691761 0.0
1.30511 0.12863 0.0
1.19109 -0.00477434 0.0
1.07318 0.00111997 0.0
1.14604 -0.00647664 0.0
1.14611 0.026839 0.0
1.1454 0.0205574 0.0
1.10431 -0.00830005 0.0
1.10405 -0.026637 0.0
0.994666 -0.0113428 0.0
1.17033 0.000484234 0.0
1.08366 0.000234488 0.0
1.09341 -0.000316323 0.0
1.1301 0.022941 0.0
1.10874 -0.0244504 0.0
1.03083 0.198306 0.0
0.979245 -0.0119677 0.0
1.14237 0.0325965 0.0
0.447045 -0.165824 0.0
1.37865 0.134434 0.0
1.18055 -0.0524065 0.0
1.08143 0.00977587 0.0
1.08064 0.025363 0.0
1.06845 0.0357818 0.0
1.18914 7.18654e-05 0.0
1.06875 0.0137252 0.0
1.04853 -0.044493 0.0
1.30216 0.175834 0.0
1.00802 -0.144363 0.0
1.04284 -0.0579681 0.0
1.15438 -0.135159 0.0
1.13596 -0.00953912 0.0
1.102 -0.0480057 0.0
1.16341 -0.00304527 0.0
0.955194 0.00216651 0.0
1.18055 0.0545334 0.0
1.02617 -0.0139155 0.0
1.23801 -0.103415 0.0
1.19038 -0.00470347 0.0
1.18276 -0.00572174 0.0
1.07037 -0.0198663 0.0
1.39864 -0.567387 0.0
1.13867 0.084275 0.0
1.01212 -0.019762 0.0
1.13935 0.0676157 0.0
0.976681 0.00164661 0.0
0.746793 0.0286312 0.0
1.10058 0.0451374 0.0
1.32729 -0.160643 0.0
0.941901 -0.0920656 0.0
1.10585 -0.0395935 0.0
0.63276 -0.556786 0.0
1.09943 -0.0262487 0.0
1.10785 -0.00485246 0.0
1.14147 -0.00545122 0.0
1.3895 -0.141821 0.0
1.09077 0.0599554 0.0
1.1631 -0.00263583 0.0
1.06168 -0.0256847 0.0
1.16547 0.0354064 0.0
0.996672 -0.0147307 0.0
1.35031 -0.771895 0.0
1.19424 0.00331107 0.0
1.1787 0.0513612 0.0
1.17767 0.00207326 0.0
1.1205 -0.000600278 0.0
1.17969 -0.0571042 0.0
1.06841 0.0216808 0.0
1.20247 0.0833798 0.0
1.11902 -0.00701002 0.0
1.16097 0.0436327 0.0
0.973782 0.00136625 0.0
1.13725 0.00804735 0.0
1.18069 -0.531766 0.0
0.64851 -0.00519732 0.0
0.669539 -0.0233164 0.0
0.943721 0.0277452 0.0
1.26672 0.122007 0.0
1.14382 -0.00494061 0.0
1.1672 -0.00482967 0.0
0.594882 0.00989244 0.0
1.18232 -0.00490429 0.0
0.334837 -0.12412 0.0
1.07867 -0.100294 0.0
0.589332 0.00732182 0.0
0.592417 -0.0124545 0.0
0.91717 0.0407325 0.0
1.14486 -0.00387477 0.0
0.863946 -0.174281 0.0
0.870934 -0.0225293 0.0
1.68892 -0.123505 0.0
0.936504 0.0379945 0.0
1.14116 -0.010313 0.0
1.14201 -0.0119527 0.0
1.05028 0.00493118 0.0
1.19297 0.00254856 0.0
1.16113 0.000904066 0.0
1.18514 0.348136 0.0
0.607946 0.0174056 0.0
1.01233 0.00446513 0.0
1.36372 -0.0999948 0.0
0.557121 0.00625616 0.0
1.58092 0.560511 0.0
0.948643 -0.0422161 0.0
0.814021 -0.0269783 0.0
1.33599 0.0904436 0.0
0.797419 -0.0532984 0.0
0.961512 0.000806038 0.0
0.672015 -0.118692 0.0
1.15649 -0.0142602 0.0
0.880141 0.0992471 0.0
1.14243 -0.0130575 0.0
0.677248 -0.00365096 0.0
1.02369 0.00280697 0.0
0.990639 0.138161 0.0
1.41089 -0.0347566 0.0
0.542074 -0.00288622 0.0
0.652628 -0.0235406 0.0
0.918779 0.805279 0.0
1.10754 -0.00131392 0.0
1.04792 0.0123007 0.0
1.39024 0.0122472 0.0
0.590778 -0.0103096 0.0
1.12791 0.0137555 0.0
1.1668 -0.448729 0.0
0.186469 0.0223842 0.0
0.938391 -0.0631848 0.0
1.07637 -0.0843476 0.0
0.72479 0.0244941 0.0
0.533986 0.0192884 0.0
1.64796 0.0343418 0.0
1.14621 -0.00571736 0.0
0.311486 0.0152243 0.0
0.587826 0.0265219 0.0
1.13681 -0.00281332 0.0
1.18368 -0.00527488 0.0
1.00787 -0.0150279 0.0
0.953462 0.0636786 0.0
1.20861 0.171979 0.0
0.628646 0.0102288 0.0
1.178 0.00678627 0.0
0.933546 0.093686 0.0
1.18432 -0.00536376 0.0
1.38827 -0.593449 0.0
0.549856 -0.000452754 0.0
1.45733 -0.132639 0.0
1.10731 0.00413028 0.0
0.967572 -0.0117549 0.0
0.621284 0.0902241 0.0
1.0026 0.103915 0.0
0.897438 0.139779 0.0
1.10959 0.00575809 0.0
1.20961 -0.0591868 0.0
1.39923 -0.0370114 0.0
0.587061 0.00315706 0.0
0.607771 0.0133606 0.0
1.07773 -0.0035719 0.0
0.404523 -0.0728702 0.0
1.03965 0.0372255 0.0
0.516842 0.00367198 0.0
0.977641 -0.0112519 0.0
1.10788 -0.00427716 0.0
0.960519 -0.00801398 0.0
0.565744 -0.00451122 0.0
0.567818 0.0194589 0.0
0.589205 0.00792919 0.0
0.562858 0.00685493 0.0
0.60502 0.00884593 0.0
1.21077 0.66939 0.0
1.35933 0.0684536 0.0
0.96866 -0.0019204 0.0
0.580746 0.00706968 0.0
0.591127 -0.0114558 0.0
0.687429 0.0252719 0.0
1.14737 -0.0483981 0.0
0.60881 5.84694e-05 0.0
1.60531 -0.19251 0.0
1.28985 0.0975412 0.0
0.545779 -0.140276 0.0
1.3396 -0.0955802 0.0
1.5271 -0.466476 0.0
1.00754 0.00168236 0.0
1.09023 0.0146903 0.0
1.14663 -0.0110092 0.0
0.976875 0.00034996 0.0
0.837234 -0.689462 0.0
1.01944 0.00077062 0.0
0.982973 -0.00428382 0.0
1.18063 -0.00899266 0.0
1.11167 -0.0329935 0.0
1.64708 -0.00242075 0.0
-0.115823 0.100524 0.0
0.518095 -0.0695397 0.0
1.33622 0.51795 0.0
1.07827 -0.0106339 0.0
0.620875 -0.00992934 0.0
0.59625 -0.00421069 0.0
0.593391 -0.00472329 0.0
1.19222 0.00432553 0.0
0.641972 0.214474 0.0
1.16946 -0.0222146 0.0
0.984628 0.00933419 0.0
0.759346 0.166755 0.0
1.12171 -0.00328527 0.0
0.1545 -0.0125291 0.0
1.16701 0.00449092 0.0
0.589986 0.0193479 0.0
0.587658 -0.00916538 0.0
1.34274 0.087709 0.0
0.865031 -0.0084695 0.0
1.50812 0.0340835 0.0
0.984033 0.011674 0.0
1.00104 0.00782837 0.0
0.122423 -0.166003 0.0
0.984823 0.024828 0.0
1.16606 0.0094893 0.0
1.14896 0.00921799 0.0
0.360696 -0.138609 0.0
1.61777 -0.272752 0.0
1.08802 0.00125436 0.0
1.29036 0.198639 0.0
0.615762 -0.0122962 0.0
0.586744 -0.0061111 0.0
1.12073 -0.0170986 0.0
0.54493 0.0914682 0.0
1.13105 -0.0258074 0.0
0.799463 0.0227779 0.0
0.941547 -0.0106636 0.0
1.12763 0.00804947 0.0
1.01073 -0.00391165 0.0
0.201875 -0.0208975 0.0
1.13638 -0.0097673 0.0
0.312357 0.0596941 0.0
1.02195 -0.00263332 0.0
1.01396 -0.00338571 0.0
0.598816 -0.0152424 0.0
1.06239 -0.00562351 0.0
1.16904 -0.022 0.0
0.965985 -0.000609223 0.0
0.996395 -0.010396 0.0
1.20058 -0.964847 0.0
1.127 0.018583 0.0
1.69283 0.486309 0.0
0.589942 -0.0137432 0.0
0.584364 0.00667022 0.0
1.15921 0.00252568 0.0
1.20098 -0.00467847 0.0
1.10569 -0.0053465 0.0
1.11521 0.000965707 0.0
1.16912 0.00265343 0.0
1.12713 0.00193672 0.0
1.1927 -0.00630938 0.0
1.14738 0.0239651 0.0
-0.192294 0.0185105 0.0
1.09584 0.0119165 0.0
-0.0127338 0.0369857 0.0
0.656121 -0.026949 0.0
1.20591 -0.18028 0.0
1.13587 -0.00724313 0.0
1.36671 -0.140401 0.0
1.64668 -0.502021 0.0
0.31425 -0.0181055 0.0
1.18679 -0.00517968 0.0
1.12888 0.271738 0.0
1.34559 -0.100337 0.0
1.07141 0.305513 0.0
1.70992 0.0851084 0.0
0.97542 -0.542653 0.0
1.37208 0.132234 0.0
1.12391 -0.0159607 0.0
1.28981 -0.481001 0.0
-0.0808968 -0.111425 0.0
1.05264 0.00231887 0.0
1.31879 -0.394665 0.0
0.531486 -0.00457553 0.0
1.41803 -0.149048 0.0
1.68437 0.197112 0.0
1.08949 0.00910853 0.0
0.449092 0.013718 0.0
0.717078 0.00162307 0.0
0.267934 -0.22872 0.0
0.951127 0.0466717 0.0
-0.112268 -0.0328083 0.0
1.14863 -0.164801 0.0
1.49431 0.14709 0.0
0.535353 0.00794149 0.0
1.22688 -0.0699344 0.0
0.982168 -0.000357476 0.0
1.1854 0.0034933 0.0
0.435254 -0.615797 0.0
1.22866 0.264212 0.0
0.735279 -0.164098 0.0
0.1914 -0.331169 0.0
0.527196 0.161081 0.0
1.30261 0.238346 0.0
0.604155 0.154761 0.0
0.965811 -0.0100293 0.0
1.12922 -0.0121875 0.0
1.07762 0.0071898 0.0
1.06595 0.00712542 0.0
0.593633 0.00757061 0.0
0.030976 0.0827375 0.0
1.30833 0.299623 0.0
0.479013 -0.000899403 0.0
1.09984 0.00576706 0.0