# vtk DataFile Version 3.0
Malha 2D com triângulos e temperatura
ASCII
DATASET UNSTRUCTURED_GRID

POINTS 688 double
0 0 0
2.2 0 0
2.2 0.41 0
0 0.41 0
0.25 0.2 0
0.05 0 0
0.1 0 0
0.15 0 0
0.2 0 0
0.25 0 0
0.3 0 0
0.35 0 0
0.4 0 0
0.45 0 0
0.5 0 0
0.55 0 0
0.6 0 0
0.65 0 0
0.7 0 0
0.75 0 0
0.8 0 0
0.85 0 0
0.9 0 0
0.95 0 0
1 0 0
1.05 0 0
1.1 0 0
1.15 0 0
1.2 0 0
1.25 0 0
1.3 0 0
1.35 0 0
1.4 0 0
1.45 0 0
1.5 0 0
1.55 0 0
1.6 0 0
1.65 0 0
1.7 0 0
1.75 0 0
1.8 0 0
1.85 0 0
1.9 0 0
1.95 0 0
2 0 0
2.05 0 0
2.1 0 0
2.15 0 0
2.2 0.0455556 0
2.2 0.0911111 0
2.2 0.136667 0
2.2 0.182222 0
2.2 0.227778 0
2.2 0.273333 0
2.2 0.318889 0
2.2 0.364444 0
2.15 0.41 0
2.1 0.41 0
2.05 0.41 0
2 0.41 0
1.95 0.41 0
1.9 0.41 0
1.85 0.41 0
1.8 0.41 0
1.75 0.41 0
1.7 0.41 0
1.65 0.41 0
1.6 0.41 0
1.55 0.41 0
1.5 0.41 0
1.45 0.41 0
1.4 0.41 0
1.35 0.41 0
1.3 0.41 0
1.25 0.41 0
1.2 0.41 0
1.15 0.41 0
1.1 0.41 0
1.05 0.41 0
1 0.41 0
0.95 0.41 0
0.9 0.41 0
0.85 0.41 0
0.8 0.41 0
0.75 0.41 0
0.7 0.41 0
0.65 0.41 0
0.6 0.41 0
0.55 0.41 0
0.5 0.41 0
0.45 0.41 0
0.4 0.41 0
0.35 0.41 0
0.3 0.41 0
0.25 0.41 0
0.2 0.41 0
0.15 0.41 0
0.1 0.41 0
0.05 0.41 0
0 0.364444 0
0 0.318889 0
0 0.273333 0
0 0.227778 0
0 0.182222 0
0 0.136667 0
0 0.0911111 0
0 0.0455556 0
0.248831 0.210749 0
0.245379 0.220994 0
0.239805 0.230259 0
0.232369 0.238108 0
0.22342 0.244176 0
0.213376 0.248177 0
0.202707 0.249927 0
0.191911 0.249341 0
0.181493 0.246449 0
0.171941 0.241384 0
0.1637 0.234385 0
0.157157 0.225778 0
0.152617 0.215965 0
0.150293 0.205406 0
0.150293 0.194594 0
0.152617 0.184035 0
0.157157 0.174222 0
0.1637 0.165615 0
0.171941 0.158616 0
0.181493 0.153551 0
0.191911 0.150659 0
0.202707 0.150073 0
0.213376 0.151823 0
0.22342 0.155824 0
0.232369 0.161892 0
0.239805 0.169741 0
0.245379 0.179006 0
0.248831 0.189251 0
0.421316 0.36725 0
0.426705 0.0366526 0
2.16065 0.209201 0
1.52286 0.0417259 0
0.626017 0.37111 0
1.3257 0.0414552 0
1.02471 0.0432237 0
1.17293 0.0421053 0
0.82501 0.36678 0
1.6757 0.370064 0
1.91628 0.0358195 0
1.82501 0.366432 0
0.723429 0.0421499 0
1.425 0.366699 0
1.97461 0.366224 0
1.12167 0.370137 0
0.975 0.368691 0
0.877672 0.0412714 0
1.27686 0.36884 0
1.725 0.0433013 0
0.579174 0.0416211 0
0.325589 0.363848 0
0.319111 0.0378151 0
0.0394523 0.296111 0
0.0329929 0.11602 0
0.142108 0.187428 0
1.57555 0.364352 0
2.02603 0.0412138 0
0.725007 0.36763 0
0.528647 0.366595 0
1.62699 0.0400272 0
1.82929 0.0421255 0
1.425 0.0418325 0
2.07474 0.364233 0
0.125 0.0433013 0
0.161245 0.155011 0
0.225 0.366699 0
0.210027 0.258536 0
2.16034 0.115449 0
0.0371627 0.204103 0
0.142311 0.212698 0
0.220283 0.0418538 0
0.221965 0.145099 0
0.196802 0.141016 0
0.119851 0.373394 0
0.161112 0.245979 0
0.184892 0.258024 0
2.16342 0.30039 0
2.12627 0.047699 0
0.183325 0.0412617 0
0.152317 0.0762976 0
0.203864 0.0745802 0
0.234384 0.0774346 0
0.215969 0.103585 0
0.245651 0.104548 0
0.186562 0.100216 0
0.268213 0.0793029 0
0.272149 0.109155 0
0.242885 0.159377 0
0.253088 0.128261 0
0.278718 0.13214 0
0.295917 0.115997 0
0.301728 0.138858 0
0.321266 0.12205 0
0.324642 0.151724 0
0.255978 0.181139 0
0.350123 0.129049 0
0.357539 0.159885 0
0.333541 0.181416 0
0.36451 0.19182 0
0.250573 0.230419 0
0.391277 0.169722 0
0.339477 0.212308 0
0.39836 0.205386 0
0.427326 0.18117 0
0.258724 0.206387 0
0.434392 0.219501 0
0.466446 0.193907 0
0.472865 0.243064 0
0.507358 0.209962 0
0.40073 0.238916 0
0.499135 0.1652 0
0.5419 0.179224 0
0.550176 0.22496 0
0.585844 0.194129 0
0.594095 0.240176 0
0.630701 0.209517 0
0.621901 0.162424 0
0.667731 0.178095 0
0.676485 0.226008 0
0.713906 0.194492 0
0.722681 0.242872 0
0.760442 0.211047 0
0.751547 0.162356 0
0.798298 0.179 0
0.807147 0.227866 0
0.845136 0.195775 0
0.854541 0.243285 0
0.892163 0.212344 0
0.902461 0.257947 0
0.93935 0.228684 0
0.930236 0.180167 0
0.977229 0.197066 0
0.986264 0.245777 0
1.02423 0.213991 0
1.0331 0.263172 0
1.07123 0.230975 0
1.06234 0.181814 0
1.10938 0.198721 0
1.09996 0.151012 0
1.14691 0.168161 0
1.15631 0.215921 0
1.19446 0.183678 0
1.20343 0.232645 0
1.2416 0.200322 0
1.23272 0.151117 0
1.2798 0.167954 0
1.28868 0.217167 0
1.32685 0.184862 0
1.33573 0.234064 0
1.3739 0.201768 0
0.789327 0.130094 0
1.38279 0.25097 0
1.42096 0.218674 0
1.41207 0.169471 0
1.45912 0.186378 0
1.46801 0.235581 0
1.50618 0.203285 0
1.51506 0.252489 0
1.55323 0.220192 0
1.54435 0.170989 0
1.5914 0.187896 0
1.60029 0.2371 0
1.63846 0.204803 0
1.64734 0.254007 0
1.68551 0.221711 0
1.67663 0.172507 0
1.72368 0.189415 0
1.73831 0.241548 0
1.77074 0.206322 0
1.76185 0.157121 0
1.8091 0.17428 0
1.81866 0.220885 0
1.85608 0.190621 0
1.86521 0.238879 0
1.90289 0.207671 0
1.91264 0.253772 0
1.94955 0.224093 0
1.94067 0.17593 0
1.98705 0.192828 0
1.99572 0.240997 0
2.0329 0.209382 0
2.02422 0.16161 0
2.04166 0.257286 0
0.419739 0.142889 0
0.968291 0.148058 0
0.310035 0.202211 0
0.316128 0.230863 0
0.658501 0.130052 0
0.685107 0.27445 0
1.34462 0.283266 0
1.16528 0.264896 0
1.84735 0.142081 0
0.557687 0.270604 0
1.21234 0.281769 0
1.58252 0.138692 0
0.533563 0.131933 0
0.489835 0.120004 0
1.45024 0.137174 0
2.06974 0.17785 0
2.06113 0.130713 0
0.283221 0.152215 0
0.921299 0.131169 0
0.343836 0.24295 0
0.319203 0.260002 0
0.235529 0.249617 0
0.347029 0.274099 0
0.291856 0.246297 0
0.295938 0.27548 0
0.272836 0.264931 0
0.27461 0.290522 0
0.251228 0.280224 0
0.253903 0.305808 0
0.232795 0.296709 0
0.298805 0.304058 0
1.0801 0.280176 0
1.47689 0.284785 0
1.05315 0.133468 0
1.09741 0.0970974 0
1.82427 0.272867 0
1.2701 0.118911 0
0.816337 0.277695 0
1.40432 0.121101 0
1.04244 0.320388 0
0.959305 0.103028 0
1.60923 0.286151 0
0.601674 0.286775 0
2.00739 0.280923 0
0.342592 0.0992796 0
0.375237 0.105729 0
1.52511 0.298716 0
1.53114 0.119823 0
0.733824 0.287256 0
0.613372 0.114719 0
0.645558 0.0838585 0
2.015 0.115858 0
1.22718 0.0994086 0
1.39166 0.29817 0
1.3564 0.329754 0
0.744134 0.11556 0
0.782853 0.0841771 0
0.826899 0.10047 0
1.17418 0.314034 0
0.520902 0.0906676 0
1.4967 0.329429 0
1.26048 0.0740437 0
0.365514 0.0716355 0
0.229836 0.121666 0
1.57453 0.09137 0
1.61938 0.110761 0
0.481716 0.0753791 0
0.14093 0.2 0
0.130041 0.192847 0
0.131507 0.178608 0
0.117165 0.184444 0
0.120761 0.164701 0
0.1156 0.199931 0
0.100804 0.174136 0
0.102545 0.153034 0
0.12169 0.143342 0
0.104604 0.13008 0
0.0809304 0.161171 0
0.128077 0.121858 0
0.106825 0.102278 0
0.082498 0.188728 0
0.0314738 0.158621 0
2.04625 0.310891 0
2.08475 0.27479 0
2.11394 0.138117 0
0.233149 0.151108 0
0.258724 0.193613 0
0.268522 0.184917 0
1.65397 0.301059 0
0.145962 0.224912 0
0.132503 0.222267 0
0.13746 0.236947 0
0.120111 0.233525 0
0.126593 0.25219 0
0.105294 0.247497 0
0.113343 0.26868 0
0.133997 0.271734 0
0.121622 0.292031 0
0.147069 0.292141 0
0.0896563 0.267464 0
0.0813699 0.243294 0
0.163574 0.276939 0
0.172694 0.298517 0
0.1583 0.321483 0
0.186823 0.322499 0
0.173113 0.348195 0
0.0322087 0.250839 0
0.211694 0.124337 0
0.250615 0.169546 0
0.256243 0.157787 0
0.170796 0.14736 0
0.156755 0.141654 0
0.17187 0.131161 0
0.147502 0.152323 0
0.198129 0.260662 0
0.206368 0.271663 0
0.220945 0.26864 0
0.190489 0.270628 0
0.198813 0.286731 0
0.55749 0.322277 0
0.520166 0.299321 0
0.235199 0.330709 0
0.267109 0.337524 0
0.172324 0.25256 0
0.255974 0.218859 0
0.268327 0.214994 0
0.184197 0.143083 0
0.188721 0.129954 0
0.209694 0.139146 0
0.269223 0.244007 0
0.252374 0.255244 0
0.282229 0.0410487 0
1.21977 0.330016 0
1.25733 0.296346 0
2.09358 0.0890819 0
0.244373 0.240984 0
0.0838116 0.115786 0
0.0797544 0.0817835 0
0.237449 0.264854 0
0.247178 0.146225 0
0.270136 0.2 0
0.28023 0.191334 0
0.263476 0.170737 0
0.371486 0.368728 0
0.396124 0.330051 0
0.440314 0.325693 0
0.357693 0.329668 0
0.476576 0.362035 0
0.29587 0.222914 0
0.307627 0.175476 0
0.079599 0.0406461 0
0.146062 0.252571 0
0.15162 0.125025 0
0.417223 0.294608 0
0.457089 0.286958 0
0.036619 0.338729 0
0.0713014 0.322193 0
0.0735823 0.36704 0
0.041143 0.0722223 0
0.693501 0.32349 0
0.145406 0.175484 0
0.138777 0.164467 0
0.300367 0.0698839 0
0.167025 0.112083 0
0.146978 0.105544 0
0.151909 0.236762 0
0.444611 0.106436 0
0.909355 0.0817561 0
0.282901 0.370713 0
1.61474 0.330739 0
0.578053 0.368179 0
0.824695 0.0487848 0
2.09634 0.3213 0
2.02276 0.364865 0
2.12532 0.363702 0
1.09789 0.328757 0
0.161137 0.260089 0
2.07793 0.225752 0
2.12079 0.240944 0
2.0747 0.0437362 0
1.89402 0.158846 0
1.93154 0.128738 0
1.8848 0.111477 0
1.8384 0.0926484 0
1.87744 0.0655304 0
1.7913 0.0793874 0
1.9712 0.046671 0
1.92502 0.366682 0
1.94563 0.325156 0
1.89941 0.326645 0
1.87499 0.367178 0
1.84989 0.323491 0
1.7997 0.321303 0
1.77183 0.280326 0
1.75031 0.321965 0
1.77491 0.365615 0
2.11727 0.191885 0
0.883187 0.163467 0
1.71449 0.140266 0
1.667 0.125342 0
1.70591 0.0884759 0
1.67732 0.042286 0
1.52278 0.370513 0
1.37512 0.04128 0
1.34848 0.0834574 0
0.776093 0.367587 0
1.125 0.0433013 0
1.15 0.0866019 0
1.07442 0.0496847 0
0.974527 0.0370837 0
1.47464 0.0427918 0
1.44953 0.0873752 0
1.17595 0.362984 0
1.025 0.366699 0
0.925007 0.367031 0
0.95 0.323404 0
0.897321 0.326356 0
0.874563 0.367261 0
0.846552 0.324465 0
1.62923 0.156667 0
1.32319 0.13033 0
1.69342 0.270472 0
1.49568 0.156227 0
1.56237 0.268721 0
1.44 0.319169 0
1.43005 0.267892 0
1.36502 0.152565 0
0.993446 0.294003 0
1.30179 0.321101 0
1.18235 0.127964 0
1.25016 0.2491 0
1.29638 0.266841 0
1.11824 0.247967 0
1.12945 0.294699 0
1.01527 0.165035 0
0.836192 0.147197 0
1.4998 0.0831488 0
1.00655 0.118664 0
0.872896 0.117126 0
0.70523 0.146383 0
1.96013 0.276645 0
0.769406 0.257102 0
0.699552 0.0908977 0
2.1587 0.162257 0
1.97813 0.145326 0
0.646036 0.302035 0
0.799423 0.326603 0
0.515621 0.255445 0
1.72538 0.366474 0
1.97009 0.0998346 0
1.57108 0.313772 0
0.577925 0.14549 0
0.638911 0.256447 0
0.407352 0.0771641 0
0.525103 0.042511 0
0.674231 0.370698 0
1.69802 0.321701 0
0.56947 0.0908728 0
1.75459 0.110239 0
1.80084 0.126127 0
0.673535 0.0431435 0
1.57391 0.0465733 0
2.04571 0.0828469 0
0.10002 0.225545 0
0.0788152 0.21577 0
0.369719 0.224393 0
0.210352 0.308739 0
1.22342 0.0432967 0
[...]
CELL_DATA 1241
VECTORS velocity double
1.01371 -0.00419115 0.0
1.2173 0.0665052 0.0
0.445373 -0.00164387 0.0
0.94434 0.00178322 0.0
1.04413 0.00553053 0.0
1.42286 0.103158 0.0
1.13506 0.000221401 0.0
0.979436 -0.000784952 0.0
0.363168 0.0158249 0.0
1.17946 0.00141275 0.0
1.31247 -0.119983 0.0
1.31627 0.126543 0.0
0.865763 -0.160595 0.0
1.0157 0.008587 0.0
0.991355 0.00646244 0.0
1.46635 -0.0328864 0.0
0.979731 0.000549034 0.0
0.479612 0.0603815 0.0
1.17284 0.0623813 0.0
1.64766 -0.254203 0.0
1.02126 0.00420996 0.0
1.05945 -0.0663132 0.0
1.03814 -0.000241654 0.0
1.25311 0.904907 0.0
1.07096 -0.00228689 0.0
1.02438 0.00248355 0.0
1.29898 -0.199438 0.0
1.07638 -0.0253982 0.0
1.32175 -0.0836643 0.0
1.46242 -0.0649113 0.0
1.33199 0.0902546 0.0
0.868335 -0.0368834 0.0
1.52046 0.00269138 0.0
1.01432 0.00685304 0.0
1.25683 -0.0565487 0.0
1.35889 0.156965 0.0
1.2128 -0.055366 0.0
1.05041 -0.167832 0.0
0.359562 0.0205049 0.0
1.3822 0.141362 0.0
1.7645 -0.179815 0.0
1.41327 -0.0454508 0.0
1.05282 -0.237188 0.0
0.50072 0.0066508 0.0
1.39921 -0.16724 0.0
0.496417 -0.00768658 0.0
1.20157 0.0990252 0.0
1.11539 0.0257893 0.0
1.61301 -0.313112 0.0
1.23968 -0.0104619 0.0
1.2151 0.000958651 0.0
1.29083 -0.417497 0.0
0.869524 -0.00364202 0.0
1.40873 -0.0823447 0.0
1.77523 -0.279616 0.0
1.51901 -0.0286885 0.0
1.15111 -0.0399545 0.0
1.12721 -0.000165339 0.0
1.65841 -0.0990985 0.0
1.68774 -0.199374 0.0
1.15855 0.847309 0.0
0.99378 -0.000107572 0.0
0.195573 0.0358006 0.0
1.02721 0.00668843 0.0
-0.240025 0.0714455 0.0
1.33192 0.227579 0.0
-0.279597 0.0861853 0.0
1.16784 -0.00202562 0.0
0.863361 -0.0258738 0.0
0.218175 0.0244265 0.0
1.16856 -0.00575058 0.0
0.793427 0.0141515 0.0
1.16746 -0.00531006 0.0
0.79171 -0.0137077 0.0
1.20745 0.0070788 0.0
0.881296 0.157087 0.0
0.942843 0.00728865 0.0
1.63144 -0.046517 0.0
0.979791 -0.0346058 0.0
0.613408 0.00124121 0.0
1.75194 -0.383012 0.0
1.1597 -0.246733 0.0
0.658566 0.0118682 0.0
1.26146 -0.227372 0.0
1.34581 0.170068 0.0
0.919411 -0.0667447 0.0
1.20691 0.178026 0.0
0.0860563 0.0984461 0.0
1.83884 0.530392 0.0
1.19291 0.00310298 0.0
1.2721 0.0102093 0.0
-0.189659 -0.0110338 0.0
-0.348003 0.0782879 0.0
1.44321 -0.0646215 0.0
1.18242 -0.0406639 0.0
0.984674 0.00133563 0.0
0.849234 -0.0258326 0.0
-0.184464 0.0905957 0.0
1.01836 -0.0114121 0.0
-0.244269 0.112556 0.0
1.08214 -0.0985571 0.0
1.15925 -0.0150841 0.0
0.947478 0.00265767 0.0
1.63916 -0.161266 0.0
1.74235 -0.670641 0.0
1.27316 -0.397902 0.0
1.07131 -0.0619578 0.0
0.498265 -0.0236637 0.0
1.78799 0.649656 0.0
1.22543 0.0031709 0.0
1.48538 -0.10918 0.0
1.23092 0.189664 0.0
0.131617 0.0759925 0.0
1.44146 -0.0270015 0.0
1.08014 0.0148779 0.0
1.44262 0.0400892 0.0
1.4141 0.00474844 0.0
1.39195 0.0529581 0.0
1.06638 -0.00216557 0.0
0.255299 0.0397018 0.0
1.1901 0.0421851 0.0
1.51966 0.581804 0.0
1.25161 0.108215 0.0
0.919984 -0.0634833 0.0
0.726823 -0.0993298 0.0
1.20473 0.0860198 0.0
1.44706 -0.0429218 0.0
1.1189 0.0244957 0.0
1.74956 0.501392 0.0
0.549919 -0.0713178 0.0
1.1661 -0.015214 0.0
0.622296 -0.00175866 0.0
0.885948 0.0638843 0.0
1.6033 -0.021608 0.0
1.01944 -0.153226 0.0
-0.276054 0.0745681 0.0
0.12317 0.062543 0.0
1.22672 0.0822015 0.0
1.04871 -0.0252351 0.0
1.66382 -0.761311 0.0
1.50088 0.00357331 0.0
1.03559 0.00605071 0.0
1.07835 -0.245055 0.0
1.005 0.0069868 0.0
1.52351 0.00720573 0.0
0.0223294 0.0311633 0.0
-0.254477 0.0380616 0.0
-0.182761 0.00601807 0.0
0.642255 0.015363 0.0
0.653515 -0.0116998 0.0
0.555345 -0.101533 0.0
1.03494 -0.00709512 0.0
1.79633 -0.332611 0.0
1.04785 -0.153379 0.0
1.20282 -0.0491844 0.0
1.20456 0.0544228 0.0
0.482208 -0.00105516 0.0
1.64365 0.0738427 0.0
0.857113 0.0303601 0.0
1.24851 -0.0569685 0.0
-0.230503 0.0469721 0.0
1.74047 0.446509 0.0
1.14295 0.00839227 0.0
1.22204 -0.204902 0.0
1.14319 0.034094 0.0
1.05422 0.130245 0.0
0.981757 -0.000346261 0.0
0.987063 0.109857 0.0
0.566565 -0.00355607 0.0
1.17138 -0.0340088 0.0
0.929253 -0.0246616 0.0
1.23561 0.00342949 0.0
1.36547 0.265548 0.0
1.19113 0.0865863 0.0
1.10482 0.00562781 0.0
1.11576 0.00641369 0.0
1.18261 0.198716 0.0
1.12009 -0.287607 0.0
1.11402 0.0121162 0.0
1.16602 -0.225276 0.0
1.11919 0.00906268 0.0
0.363101 0.110226 0.0
1.08768 -0.644368 0.0
0.730583 -0.127093 0.0
1.0252 -0.0085915 0.0
0.765704 -0.0789963 0.0
0.762228 -0.0636708 0.0
1.02766 0.00777235 0.0
1.05545 0.0959234 0.0
0.461055 0.047013 0.0
0.889593 -0.829902 0.0
1.77863 0.345102 0.0
1.02837 -0.00208913 0.0
0.984138 0.00662905 0.0
0.667351 0.0602326 0.0
0.852975 0.0569034 0.0
0.397738 0.05901 0.0
0.998355 -0.0148758 0.0
1.42771 -0.0322272 0.0
1.44964 0.581447 0.0
1.15458 0.193116 0.0
1.06921 -0.01354 0.0
1.42685 0.0384029 0.0
1.0416 -0.0922839 0.0
1.40111 -0.0914571 0.0
1.436 -0.0446928 0.0
0.483217 0.0244031 0.0
0.662539 0.0125656 0.0
0.900065 -0.0227433 0.0
0.857833 0.033496 0.0
0.515839 0.0170874 0.0
0.513981 -0.00306039 0.0
1.79011 0.286529 0.0
1.11173 0.0118133 0.0
1.44069 -0.0035533 0.0
1.1214 0.0122589 0.0
0.731507 -0.0773599 0.0
1.51123 -0.0906585 0.0
1.17571 -0.0305389 0.0
1.1639 -0.0132601 0.0
0.833097 -0.0495833 0.0
1.67135 -0.07054 0.0
1.01024 0.055349 0.0
0.996186 0.0113692 0.0
0.958867 -0.0261636 0.0
1.23394 0.00241348 0.0
1.43554 -0.137304 0.0
1.7298 -0.600869 0.0
1.18424 -0.00566128 0.0
1.2031 -0.0111519 0.0
0.990917 5.98288e-05 0.0
1.06355 -0.132777 0.0
1.02939 -0.0102336 0.0
0.997718 -0.00674729 0.0
1.25791 0.310859 0.0
1.03831 -0.256621 0.0
1.09397 0.171527 0.0
1.31881 0.132386 0.0
0.7436 -0.106682 0.0
0.355088 -0.0454553 0.0
0.958905 0.015943 0.0
1.4387 0.0570257 0.0
1.42203 0.918329 0.0
0.682938 -0.0851896 0.0
1.15192 -0.0175467 0.0
1.70423 0.140344 0.0
1.09691 -0.89856 0.0
0.868425 -0.177616 0.0
1.14134 -0.0374909 0.0
0.559603 -0.0085024 0.0
1.02623 0.0270758 0.0
0.543912 -0.00978833 0.0
1.03209 -0.00489967 0.0
1.22656 0.00291145 0.0
0.617157 -0.0119242 0.0
0.775932 -0.0336583 0.0
1.09484 -0.285471 0.0
1.32612 -0.104567 0.0
1.2242 0.000623069 0.0
1.02008 -0.00176057 0.0
1.00227 0.00824071 0.0
0.507626 -0.0058653 0.0
1.22762 0.0057018 0.0
0.737008 -0.0260491 0.0
1.1281 0.0434518 0.0
0.994963 -0.00982095 0.0
0.566744 0.00332584 0.0
1.24093 -0.109882 0.0
1.22738 -0.170985 0.0
0.78958 -0.0266226 0.0
1.13956 -0.0652596 0.0
0.583681 0.00174617 0.0
0.98324 -0.0154844 0.0
0.116341 0.0673577 0.0
1.20238 0.000128813 0.0
1.19767 -0.0106073 0.0
0.593833 -0.00397822 0.0
0.942507 -0.194218 0.0
0.987618 -0.0155201 0.0
1.43 0.154416 0.0
1.1989 0.000718021 0.0
1.23502 -0.00148926 0.0
1.22356 -0.170782 0.0
1.23618 -0.00294253 0.0
1.2352 0.000780416 0.0
1.17136 -0.0169771 0.0
0.934732 -0.11451 0.0
0.835802 0.042868 0.0
1.23583 -0.00509932 0.0
1.2333 -0.000795731 0.0
1.22852 -0.00192671 0.0
0.634937 0.0704998 0.0
0.455875 0.00493631 0.0
0.998364 0.00991937 0.0
0.544442 -0.00753088 0.0
1.23409 -0.00568372 0.0
1.00271 -0.0183585 0.0
1.16322 0.0100198 0.0
-0.261353 -0.0268167 0.0
0.966387 -0.0122684 0.0
0.499478 -0.00479483 0.0
1.31888 -0.604719 0.0
1.1226 -0.00710054 0.0
0.970741 -0.0160917 0.0
0.524559 -0.0102244 0.0
1.23416 -0.00328698 0.0
0.86848 0.0407303 0.0
0.531617 0.0016649 0.0
0.99306 -0.0155824 0.0
1.23425 -0.00566775 0.0
1.22735 -0.00268083 0.0
1.23273 -0.00336953 0.0
0.620319 -0.00708299 0.0
0.443863 6.11869e-06 0.0
1.23134 -0.00645821 0.0
1.1415 -0.0734281 0.0
1.20552 -0.00714141 0.0
0.602256 0.0100636 0.0
1.18546 -0.00800395 0.0
1.22502 -0.00588394 0.0
1.21205 0.000979963 0.0
1.23646 -0.00734428 0.0
0.465276 -0.00684663 0.0
1.22952 -0.0063899 0.0
1.23124 -0.0067047 0.0
1.22103 -0.00677942 0.0
0.454683 -0.003909 0.0
1.21757 -0.0031365 0.0
1.18367 -0.00599637 0.0
1.20207 -0.00105741 0.0
1.23378 -0.00745646 0.0
1.1704 -0.15784 0.0
1.12956 0.00152742 0.0
1.23486 -0.00742218 0.0
1.35089 0.668536 0.0
1.21843 -0.00642349 0.0
0.508432 -0.00705372 0.0
1.0977 -0.0219926 0.0
0.562937 0.00815462 0.0
0.595086 -0.00931271 0.0
1.11705 0.00694536 0.0
1.09764 -0.012254 0.0
1.07144 -0.00766324 0.0
0.533501 -0.00801459 0.0
1.10348 -0.0216659 0.0
1.12388 0.00553516 0.0
1.23197 -0.00779248 0.0
1.07371 0.13897 0.0
1.15505 -0.696806 0.0
0.563943 -0.00468494 0.0
0.522036 -0.00536674 0.0
1.22712 -0.00576347 0.0
1.22887 -0.00814281 0.0
0.620083 -0.0183433 0.0
0.510218 -0.00924273 0.0
1.22432 -0.00498066 0.0
0.992548 0.0165215 0.0
1.16059 0.0113895 0.0
1.1557 -0.00746256 0.0
0.567457 0.00724861 0.0
0.519023 -0.00216224 0.0
1.14346 0.0171773 0.0
0.603571 0.0141598 0.0
0.56955 0.0146218 0.0
1.17301 0.00902472 0.0
0.620163 0.0206444 0.0
0.572049 -0.000786912 0.0
1.21445 -0.00405532 0.0
1.20176 -0.00311347 0.0
0.962155 0.0163509 0.0
1.21051 -0.00169564 0.0
1.1826 -0.00176357 0.0
1.21843 -0.00300853 0.0
0.983022 0.0125768 0.0
1.15199 -0.00246049 0.0
0.607882 0.0058 0.0
0.501429 0.013988 0.0
0.551537 0.0142398 0.0
0.466646 -0.00790592 0.0
0.532881 0.000918799 0.0
0.556779 -0.00533187 0.0
0.527541 -0.00284216 0.0
0.640367 -0.013783 0.0
0.540453 -0.00446025 0.0
0.574806 0.0133853 0.0
0.486408 -0.00754858 0.0
0.576863 0.0154968 0.0
0.493797 0.000192171 0.0
0.679154 0.0213046 0.0
0.578702 0.0100571 0.0
0.572634 -0.0114628 0.0
0.488889 0.00280799 0.0
0.527916 -0.00224845 0.0
0.509746 0.00791074 0.0
0.612414 -0.00974337 0.0
0.532513 -0.000743723 0.0
0.601746 -0.00764149 0.0
0.559577 -0.012336 0.0
0.545601 0.00677205 0.0
0.523284 0.00012786 0.0
0.538459 0.00418436 0.0
0.476298 -0.0170115 0.0
0.492996 0.019688 0.0
0.494869 0.000515638 0.0
0.557228 -0.00715115 0.0
0.494155 0.00310324 0.0
0.646457 -0.0210564 0.0
0.492509 0.006322 0.0
0.46373 0.00560877 0.0
0.504298 0.00100983 0.0
0.482228 -0.00263661 0.0
1.18089 -0.000976904 0.0
1.16149 -0.00638252 0.0
1.22694 -0.00735744 0.0
1.22451 -0.00498 0.0
1.2277 -0.005212 0.0
1.11957 -0.00797907 0.0
1.19803 -0.00708082 0.0
1.17919 -0.00682411 0.0
1.18183 0.00483568 0.0
1.15439 -0.00114268 0.0
1.21056 -0.00798504 0.0
1.21325 -0.00873793 0.0
1.17499 -0.00668448 0.0
1.21956 -0.0036234 0.0
1.19548 -0.000195314 0.0
1.22122 -0.00609662 0.0
1.19406 -0.00727992 0.0
1.15226 0.00189502 0.0
1.2175 -0.00619836 0.0
1.22262 -0.00418422 0.0
1.20768 -0.000773298 0.0
1.22124 -0.00352436 0.0
1.21704 -0.00493408 0.0
1.15644 -0.00902537 0.0
1.22048 -0.00175148 0.0
1.19754 -0.00343273 0.0
1.21744 -0.00113608 0.0
1.12076 -0.00156508 0.0
1.19937 -0.00252003 0.0
1.19162 0.00199223 0.0
1.21218 -0.00140162 0.0
1.17567 -0.00157223 0.0
1.21225 -0.00235295 0.0
1.21549 -0.0024044 0.0
1.1852 0.00452425 0.0
1.21564 -0.00134963 0.0
1.20812 -0.00415915 0.0
1.21023 0.00072671 0.0
1.15264 -0.00848533 0.0
1.17752 -0.00257914 0.0
1.21334 0.000494142 0.0
1.20551 -0.0034419 0.0
1.2018 0.00230684 0.0
1.19867 0.00372571 0.0
1.16006 -0.01257 0.0
1.21033 0.000480597 0.0
1.2068 0.000845271 0.0
1.13788 -0.00606583 0.0
1.19333 -0.00439431 0.0
1.12199 0.00307633 0.0
1.17926 -0.00442852 0.0
1.18922 -0.00399774 0.0
1.20129 -0.00368271 0.0
1.20709 -0.00127191 0.0
1.17502 -0.00454051 0.0
1.20496 -0.00350593 0.0
1.20321 -0.00103145 0.0
1.20495 0.000530915 0.0
1.20123 0.00312748 0.0
1.19775 0.00344394 0.0
1.19469 0.00369281 0.0
1.18371 0.00603961 0.0
1.13599 -0.00644175 0.0
1.09397 0.00790201 0.0
1.17834 0.00709992 0.0
1.20088 0.000913332 0.0
0.577154 -0.00616897 0.0
1.18722 0.00600695 0.0
1.14809 0.00760993 0.0
1.17007 0.00793147 0.0
1.19861 0.00306031 0.0
1.16765 0.00759598 0.0
1.17762 0.00564525 0.0
1.17053 0.000243298 0.0
1.18968 0.00546056 0.0
1.17751 -0.000843842 0.0
1.13365 -0.00534853 0.0
1.1333 -0.00819237 0.0
1.15656 -0.00491434 0.0
1.18611 0.0066843 0.0
1.17432 -0.00419623 0.0
1.18446 0.003406 0.0
1.16789 -0.00406989 0.0
1.18473 -0.00398627 0.0
1.18841 0.0028486 0.0
1.18168 0.00589854 0.0
0.978955 -0.0142686 0.0
1.1724 -0.0036523 0.0
1.17434 0.00781783 0.0
1.14526 0.00913586 0.0
1.18958 -0.00239551 0.0
1.19323 0.000205109 0.0
1.0829 -0.0176091 0.0
1.16471 0.0109445 0.0
1.17837 -0.00360265 0.0
1.1467 0.014955 0.0
1.18885 -3.49024e-05 0.0
1.14961 0.0176189 0.0
1.16725 -0.00437384 0.0
1.1932 -0.00235572 0.0
1.17412 -0.00109572 0.0
1.11937 0.176577 0.0
1.15254 -0.00736732 0.0
1.22339 -0.00966256 0.0
1.1702 0.00950808 0.0
1.17465 0.00119635 0.0
1.1572 -0.0133761 0.0
1.16083 -0.00352462 0.0
1.13921 -0.00301798 0.0
1.16106 -0.00949 0.0
1.16686 0.00273908 0.0
1.14072 -0.0011322 0.0
1.16186 0.00241505 0.0
1.16336 -0.00674703 0.0
1.1633 -0.00280706 0.0
1.14885 0.0119891 0.0
1.15932 -0.00513715 0.0
0.718738 -0.0204989 0.0
0.972333 0.00523738 0.0
1.14433 0.0142495 0.0
1.14693 0.00948457 0.0
1.15411 -0.00759002 0.0
1.14117 0.0118927 0.0
1.14759 0.014327 0.0
1.14408 -0.00226218 0.0
1.12668 0.000955022 0.0
1.13904 -0.00303346 0.0
1.13259 0.00103739 0.0
1.12082 0.0120573 0.0
1.15722 0.00574561 0.0
1.15155 0.0085977 0.0
0.995355 0.00895658 0.0
1.15268 0.00594155 0.0
1.1571 0.0116674 0.0
1.15001 0.012107 0.0
1.11421 0.0151617 0.0
1.13586 0.0156415 0.0
1.15398 0.0126159 0.0
1.73544 0.181694 0.0
1.11903 -0.01042 0.0
1.12701 0.0192286 0.0
1.09929 -0.0221216 0.0
1.14932 0.0217753 0.0
1.14732 0.0160921 0.0
1.11276 -0.0127845 0.0
1.14626 0.0219028 0.0
1.22415 -0.00649864 0.0
1.07032 -0.00962768 0.0
1.09906 0.0152071 0.0
1.09632 -0.00679781 0.0
1.30724 0.125993 0.0
1.2195 -0.00544347 0.0
1.08425 -0.00208866 0.0
1.15554 -0.00746356 0.0
1.13989 0.0281112 0.0
1.14654 0.0223747 0.0
1.08892 -0.00842766 0.0
1.09351 -0.0271787 0.0
0.980876 -0.0160526 0.0
1.1953 -0.00190496 0.0
1.06641 0.000711139 0.0
1.07598 0.000245561 0.0
1.12041 0.0246736 0.0
1.12039 -0.0265802 0.0
1.02973 0.198339 0.0
0.96085 -0.0160227 0.0
1.13608 0.0337358 0.0
0.441978 -0.164343 0.0
1.3822 0.131364 0.0
1.18137 -0.0520542 0.0
1.06413 0.0102957 0.0
1.06544 0.0257034 0.0
1.05374 0.0363807 0.0
1.22047 -0.00234841 0.0
1.05174 0.0143332 0.0
1.03734 -0.0439921 0.0
1.30216 0.175953 0.0
1.00311 -0.142373 0.0
1.0325 -0.0577258 0.0
1.15146 -0.133258 0.0
1.14958 -0.0131147 0.0
1.09499 -0.0479799 0.0
1.18194 -0.00347134 0.0
0.936083 0.00179411 0.0
1.18097 0.0539825 0.0
1.0076 -0.0138328 0.0
1.2379 -0.101736 0.0
1.21802 -0.00562744 0.0
1.20551 -0.00645706 0.0
1.05479 -0.0199204 0.0
1.39837 -0.567472 0.0
1.13226 0.0834209 0.0
0.994405 -0.0202054 0.0
1.13243 0.0668665 0.0
0.956515 0.00151443 0.0
0.758474 0.0280691 0.0
1.08932 0.0449212 0.0
1.32725 -0.160587 0.0
0.932946 -0.0907491 0.0
1.09845 -0.0395302 0.0
0.632624 -0.556518 0.0
1.11086 -0.0279225 0.0
1.11688 -0.00746106 0.0
1.15436 -0.0079363 0.0
1.39116 -0.139342 0.0
1.08004 0.0600251 0.0
1.18194 -0.00267016 0.0
1.04672 -0.0261658 0.0
1.16341 0.0361204 0.0
0.989554 -0.0183208 0.0
1.34995 -0.77179 0.0
1.22937 0.0043828 0.0
1.17963 0.0513853 0.0
1.2038 0.00270948 0.0
1.12709 -0.000889571 0.0
1.1805 -0.0564388 0.0
1.06592 0.0201103 0.0
1.21087 0.0814004 0.0
1.12247 -0.00765928 0.0
1.15892 0.0440828 0.0
0.954699 0.00178823 0.0
1.15336 0.0111018 0.0
1.1805 -0.531636 0.0
0.66007 -0.00601359 0.0
0.681563 -0.0231106 0.0
0.924484 0.0271134 0.0
1.26622 0.119637 0.0
1.15333 -0.00599627 0.0
1.18226 -0.00475581 0.0
0.607735 0.0101521 0.0
1.2026 -0.00564929 0.0
0.32784 -0.123519 0.0
1.07312 -0.0991771 0.0
0.549293 0.0093695 0.0
0.555915 -0.0107065 0.0
0.899114 0.0402907 0.0
1.15848 -0.00646509 0.0
0.863952 -0.174347 0.0
0.845974 -0.0255014 0.0
1.68893 -0.1251 0.0
0.941754 0.0373802 0.0
1.15301 -0.0105741 0.0
1.15359 -0.0120304 0.0
1.05389 0.00866912 0.0
1.22636 0.00334726 0.0
1.18031 0.00112545 0.0
1.18511 0.348336 0.0
0.621108 0.0173028 0.0
1.02144 0.00178788 0.0
1.36962 -0.0978134 0.0
0.53875 0.00768444 0.0
1.58076 0.560948 0.0
0.933538 -0.0417249 0.0
0.79602 -0.0266525 0.0
1.34141 0.0881379 0.0
0.781602 -0.053806 0.0
0.956199 -0.00142913 0.0
0.668389 -0.116132 0.0
1.15511 -0.016819 0.0
0.88102 0.0996638 0.0
1.13501 -0.0144043 0.0
0.658475 -0.00413423 0.0
1.03081 0.00542066 0.0
0.980331 0.136239 0.0
1.4094 -0.0326359 0.0
0.522001 -0.00360864 0.0
0.636207 -0.02456 0.0
0.918747 0.805446 0.0
1.11053 -0.000937935 0.0
1.05189 0.0115751 0.0
1.39257 0.0136404 0.0
0.603 -0.0104527 0.0
1.13153 0.0184147 0.0
1.16664 -0.448606 0.0
0.186485 0.0223942 0.0
0.924836 -0.0632352 0.0
1.07001 -0.0832573 0.0
0.735694 0.0239221 0.0
0.5188 0.0178374 0.0
1.64904 0.0364146 0.0
1.15533 -0.00493886 0.0
0.311488 0.0152322 0.0
0.571318 0.02492 0.0
1.14462 -0.00593181 0.0
1.20443 -0.00602168 0.0
1.00295 -0.0190138 0.0
0.937709 0.0623721 0.0
1.20929 0.172605 0.0
0.641057 0.0107791 0.0
1.20769 0.00724292 0.0
0.919247 0.0928326 0.0
1.21032 -0.00905296 0.0
1.38798 -0.59346 0.0
0.510584 0.00131494 0.0
1.45936 -0.129853 0.0
1.11002 0.00855849 0.0
0.948616 -0.0142463 0.0
0.621605 0.0903362 0.0
0.991041 0.101835 0.0
0.897476 0.139874 0.0
1.11272 0.0100172 0.0
1.21809 -0.0579366 0.0
1.39921 -0.0369341 0.0
0.587924 0.00499349 0.0
0.611945 0.0149609 0.0
1.07297 -0.00370218 0.0
0.404543 -0.0728944 0.0
1.04412 0.0365677 0.0
0.4932 0.00339159 0.0
0.962067 -0.0113336 0.0
1.11149 -0.00442552 0.0
0.939528 -0.00936987 0.0
0.559233 -0.00668912 0.0
0.558009 0.0187351 0.0
0.568948 0.00959099 0.0
0.508159 0.0070927 0.0
0.588144 0.0114064 0.0
1.21071 0.6696 0.0
1.36093 0.0696053 0.0
0.966357 -0.00331957 0.0
0.535747 0.0082241 0.0
0.54736 -0.0126515 0.0
0.700112 0.0249177 0.0
1.15706 -0.0474053 0.0
0.620073 0.00106165 0.0
1.60377 -0.193108 0.0
1.29618 0.0954275 0.0
0.536815 -0.140689 0.0
1.34558 -0.0935864 0.0
1.52681 -0.46686 0.0
1.01118 0.00546785 0.0
1.09141 0.0185526 0.0
1.13965 -0.0121509 0.0
0.959687 0.00369166 0.0
0.837044 -0.689205 0.0
1.02843 -0.00194405 0.0
0.98069 -0.00590248 0.0
1.20492 -0.0133031 0.0
1.12286 -0.0340401 0.0
1.64832 -0.000115234 0.0
-0.120957 0.0977171 0.0
0.506233 -0.0687022 0.0
1.33616 0.518185 0.0
1.07243 -0.012015 0.0
0.609147 -0.0120302 0.0
0.580177 -0.00578244 0.0
0.574808 -0.00617205 0.0
1.22762 0.00535778 0.0
0.633527 0.211191 0.0
1.17447 -0.0243641 0.0
0.977385 0.0128282 0.0
0.751046 0.162997 0.0
1.12547 -0.0012752 0.0
0.137936 -0.00965655 0.0
1.19339 0.00540754 0.0
0.566074 0.0207721 0.0
0.563942 -0.0105136 0.0
1.33995 0.0854539 0.0
0.837187 -0.0116834 0.0
1.50626 0.0319601 0.0
0.974699 0.0155905 0.0
0.990415 0.0118965 0.0
0.111297 -0.166267 0.0
0.971002 0.0291635 0.0
1.16872 0.0134979 0.0
1.15193 0.0134987 0.0
0.355845 -0.136116 0.0
1.6163 -0.273238 0.0
1.09516 -0.000774611 0.0
1.28742 0.194944 0.0
0.589633 -0.014206 0.0
0.556222 -0.00787328 0.0
1.12385 -0.0165381 0.0
0.53045 0.0896489 0.0
1.12442 -0.0270381 0.0
0.80982 0.0217368 0.0
0.93568 -0.00820602 0.0
1.13075 0.012203 0.0
0.994694 -0.00291177 0.0
0.201884 -0.0209015 0.0
1.15039 -0.0136151 0.0
0.309745 0.0604669 0.0
1.00996 9.9147e-05 0.0
0.999558 -0.003712 0.0
0.576612 -0.0153098 0.0
1.07327 -0.00925752 0.0
1.17448 -0.0245754 0.0
0.947223 0.00122977 0.0
0.992328 -0.0138214 0.0
1.2002 -0.964608 0.0
1.13218 0.0222314 0.0
1.69269 0.486955 0.0
0.550335 -0.0167741 0.0
0.539356 0.00653861 0.0
1.16648 0.00662659 0.0
1.22865 -0.00665236 0.0
1.1145 -0.00842826 0.0
1.12314 -0.00160224 0.0
1.18084 0.00663075 0.0
1.13108 0.00622549 0.0
1.21991 -0.00957128 0.0
1.15073 0.0256727 0.0
-0.198481 0.0188095 0.0
1.104 0.0148731 0.0
-0.0254187 0.0286532 0.0
0.664859 -0.0257103 0.0
1.20441 -0.177411 0.0
1.14876 -0.0126533 0.0
1.36842 -0.13792 0.0
1.64629 -0.502438 0.0
0.314249 -0.0181113 0.0
1.21394 -0.00900412 0.0
1.12901 0.272025 0.0
1.35148 -0.0982185 0.0
1.07137 0.305701 0.0
1.70948 0.0869173 0.0
0.97523 -0.542437 0.0
1.37208 0.132338 0.0
1.12212 -0.016446 0.0
1.28962 -0.480968 0.0
-0.0874269 -0.108037 0.0
1.06088 -0.000179975 0.0
1.31864 -0.394861 0.0
0.492905 -0.00490471 0.0
1.41867 -0.149981 0.0
1.68465 0.198502 0.0
1.09145 0.0137728 0.0
0.388826 0.0157577 0.0
0.71703 0.00183802 0.0
0.267865 -0.228441 0.0
0.95716 0.0459383 0.0
-0.118757 -0.0299004 0.0
1.14642 -0.16235 0.0
1.49643 0.143678 0.0
0.537858 0.00905132 0.0
1.22933 -0.0687091 0.0
0.964375 0.000782869 0.0
1.21864 0.00456925 0.0
0.435144 -0.6155 0.0
1.22864 0.264385 0.0
0.729143 -0.16252 0.0
0.191332 -0.330916 0.0
0.517462 0.160694 0.0
1.3026 0.238506 0.0
0.597887 0.152171 0.0
0.96968 -0.0131018 0.0
1.1415 -0.0168044 0.0
1.08282 0.0110903 0.0
1.07687 0.0087393 0.0
0.572074 0.0072624 0.0
0.0235558 0.082002 0.0
1.3083 0.299796 0.0
0.468952 -0.0021832 0.0
1.10144 0.0104377 0.0
0.264443 0.216293 0.0
0.972344 -0.00573826 0.0
1.3975 0.501243 0.0