# vtk DataFile Version 3.0
Malha 2D com triângulos e temperatura
ASCII
DATASET UNSTRUCTURED_GRID

POINTS 688 double
0 0 0
2.2 0 0
2.2 0.41 0
0 0.41 0
0.25 0.2 0
0.05 0 0
0.1 0 0
0.15 0 0
0.2 0 0
0.25 0 0
0.3 0 0
0.35 0 0
0.4 0 0
0.45 0 0
0.5 0 0
0.55 0 0
0.6 0 0
0.65 0 0
0.7 0 0
0.75 0 0
0.8 0 0
0.85 0 0
0.9 0 0
0.95 0 0
1 0 0
1.05 0 0
1.1 0 0
1.15 0 0
1.2 0 0
1.25 0 0
1.3 0 0
1.35 0 0
1.4 0 0
1.45 0 0
1.5 0 0
1.55 0 0
1.6 0 0
1.65 0 0
1.7 0 0
1.75 0 0
1.8 0 0
1.85 0 0
1.9 0 0
1.95 0 0
2 0 0
2.05 0 0
2.1 0 0
2.15 0 0
2.2 0.0455556 0
2.2 0.0911111 0
2.2 0.136667 0
2.2 0.182222 0
2.2 0.227778 0
2.2 0.273333 0
2.2 0.318889 0
2.2 0.364444 0
2.15 0.41 0
2.1 0.41 0
2.05 0.41 0
2 0.41 0
1.95 0.41 0
1.9 0.41 0
1.85 0.41 0
1.8 0.41 0
1.75 0.41 0
1.7 0.41 0
1.65 0.41 0
1.6 0.41 0
1.55 0.41 0
1.5 0.41 0
1.45 0.41 0
1.4 0.41 0
1.35 0.41 0
1.3 0.41 0
1.25 0.41 0
1.2 0.41 0
1.15 0.41 0
1.1 0.41 0
1.05 0.41 0
1 0.41 0
0.95 0.41 0
0.9 0.41 0
0.85 0.41 0
0.8 0.41 0
0.75 0.41 0
0.7 0.41 0
0.65 0.41 0
0.6 0.41 0
0.55 0.41 0
0.5 0.41 0
0.45 0.41 0
0.4 0.41 0
0.35 0.41 0
0.3 0.41 0
0.25 0.41 0
0.2 0.41 0
0.15 0.41 0
0.1 0.41 0
0.05 0.41 0
0 0.364444 0
0 0.318889 0
0 0.273333 0
0 0.227778 0
0 0.182222 0
0 0.136667 0
0 0.0911111 0
0 0.0455556 0
0.248831 0.210749 0
0.245379 0.220994 0
0.239805 0.230259 0
0.232369 0.238108 0
0.22342 0.244176 0
0.213376 0.248177 0
0.202707 0.249927 0
0.191911 0.249341 0
0.181493 0.246449 0
0.171941 0.241384 0
0.1637 0.234385 0
0.157157 0.225778 0
0.152617 0.215965 0
0.150293 0.205406 0
0.150293 0.194594 0
0.152617 0.184035 0
0.157157 0.174222 0
0.1637 0.165615 0
0.171941 0.158616 0
0.181493 0.153551 0
0.191911 0.150659 0
0.202707 0.150073 0
0.213376 0.151823 0
0.22342 0.155824 0
0.232369 0.161892 0
0.239805 0.169741 0
0.245379 0.179006 0
0.248831 0.189251 0
0.421316 0.36725 0
0.426705 0.0366526 0
2.16065 0.209201 0
1.52286 0.0417259 0
0.626017 0.37111 0
1.3257 0.0414552 0
1.02471 0.0432237 0
1.17293 0.0421053 0
0.82501 0.36678 0
1.6757 0.370064 0
1.91628 0.0358195 0
1.82501 0.366432 0
0.723429 0.0421499 0
1.425 0.366699 0
1.97461 0.366224 0
1.12167 0.370137 0
0.975 0.368691 0
0.877672 0.0412714 0
1.27686 0.36884 0
1.725 0.0433013 0
0.579174 0.0416211 0
0.325589 0.363848 0
0.319111 0.0378151 0
0.0394523 0.296111 0
0.0329929 0.11602 0
0.142108 0.187428 0
1.57555 0.364352 0
2.02603 0.0412138 0
0.725007 0.36763 0
0.528647 0.366595 0
1.62699 0.0400272 0
1.82929 0.0421255 0
1.425 0.0418325 0
2.07474 0.364233 0
0.125 0.0433013 0
0.161245 0.155011 0
0.225 0.366699 0
0.210027 0.258536 0
2.16034 0.115449 0
0.0371627 0.204103 0
0.142311 0.212698 0
0.220283 0.0418538 0
0.221965 0.145099 0
0.196802 0.141016 0
0.119851 0.373394 0
0.161112 0.245979 0
0.184892 0.258024 0
2.16342 0.30039 0
2.12627 0.047699 0
0.183325 0.0412617 0
0.152317 0.0762976 0
0.203864 0.0745802 0
0.234384 0.0774346 0
0.215969 0.103585 0
0.245651 0.104548 0
0.186562 0.100216 0
0.268213 0.0793029 0
0.272149 0.109155 0
0.242885 0.159377 0
0.253088 0.128261 0
0.278718 0.13214 0
0.295917 0.115997 0
0.301728 0.138858 0
0.321266 0.12205 0
0.324642 0.151724 0
0.255978 0.181139 0
0.350123 0.129049 0
0.357539 0.159885 0
0.333541 0.181416 0
0.36451 0.19182 0
0.250573 0.230419 0
0.391277 0.169722 0
0.339477 0.212308 0
0.39836 0.205386 0
0.427326 0.18117 0
0.258724 0.206387 0
0.434392 0.219501 0
0.466446 0.193907 0
0.472865 0.243064 0
0.507358 0.209962 0
0.40073 0.238916 0
0.499135 0.1652 0
0.5419 0.179224 0
0.550176 0.22496 0
0.585844 0.194129 0
0.594095 0.240176 0
0.630701 0.209517 0
0.621901 0.162424 0
0.667731 0.178095 0
0.676485 0.226008 0
0.713906 0.194492 0
0.722681 0.242872 0
0.760442 0.211047 0
0.751547 0.162356 0
0.798298 0.179 0
0.807147 0.227866 0
0.845136 0.195775 0
0.854541 0.243285 0
0.892163 0.212344 0
0.902461 0.257947 0
0.93935 0.228684 0
0.930236 0.180167 0
0.977229 0.197066 0
0.986264 0.245777 0
1.02423 0.213991 0
1.0331 0.263172 0
1.07123 0.230975 0
1.06234 0.181814 0
1.10938 0.198721 0
1.09996 0.151012 0
1.14691 0.168161 0
1.15631 0.215921 0
1.19446 0.183678 0
1.20343 0.232645 0
1.2416 0.200322 0
1.23272 0.151117 0
1.2798 0.167954 0
1.28868 0.217167 0
1.32685 0.184862 0
1.33573 0.234064 0
1.3739 0.201768 0
0.789327 0.130094 0
1.38279 0.25097 0
1.42096 0.218674 0
1.41207 0.169471 0
1.45912 0.186378 0
1.46801 0.235581 0
1.50618 0.203285 0
1.51506 0.252489 0
1.55323 0.220192 0
1.54435 0.170989 0
1.5914 0.187896 0
1.60029 0.2371 0
1.63846 0.204803 0
1.64734 0.254007 0
1.68551 0.221711 0
1.67663 0.172507 0
1.72368 0.189415 0
1.73831 0.241548 0
1.77074 0.206322 0
1.76185 0.157121 0
1.8091 0.17428 0
1.81866 0.220885 0
1.85608 0.190621 0
1.86521 0.238879 0
1.90289 0.207671 0
1.91264 0.253772 0
1.94955 0.224093 0
1.94067 0.17593 0
1.98705 0.192828 0
1.99572 0.240997 0
2.0329 0.209382 0
2.02422 0.16161 0
2.04166 0.257286 0
0.419739 0.142889 0
0.968291 0.148058 0
0.310035 0.202211 0
0.316128 0.230863 0
0.658501 0.130052 0
0.685107 0.27445 0
1.34462 0.283266 0
1.16528 0.264896 0
1.84735 0.142081 0
0.557687 0.270604 0
1.21234 0.281769 0
1.58252 0.138692 0
0.533563 0.131933 0
0.489835 0.120004 0
1.45024 0.137174 0
2.06974 0.17785 0
2.06113 0.130713 0
0.283221 0.152215 0
0.921299 0.131169 0
0.343836 0.24295 0
0.319203 0.260002 0
0.235529 0.249617 0
0.347029 0.274099 0
0.291856 0.246297 0
0.295938 0.27548 0
0.272836 0.264931 0
0.27461 0.290522 0
0.251228 0.280224 0
0.253903 0.305808 0
0.232795 0.296709 0
0.298805 0.304058 0
1.0801 0.280176 0
1.47689 0.284785 0
1.05315 0.133468 0
1.09741 0.0970974 0
1.82427 0.272867 0
1.2701 0.118911 0
0.816337 0.277695 0
1.40432 0.121101 0
1.04244 0.320388 0
0.959305 0.103028 0
1.60923 0.286151 0
0.601674 0.286775 0
2.00739 0.280923 0
0.342592 0.0992796 0
0.375237 0.105729 0
1.52511 0.298716 0
1.53114 0.119823 0
0.733824 0.287256 0
0.613372 0.114719 0
0.645558 0.0838585 0
2.015 0.115858 0
1.22718 0.0994086 0
1.39166 0.29817 0
1.3564 0.329754 0
0.744134 0.11556 0
0.782853 0.0841771 0
0.826899 0.10047 0
1.17418 0.314034 0
0.520902 0.0906676 0
1.4967 0.329429 0
1.26048 0.0740437 0
0.365514 0.0716355 0
0.229836 0.121666 0
1.57453 0.09137 0
1.61938 0.110761 0
0.481716 0.0753791 0
0.14093 0.2 0
0.130041 0.192847 0
0.131507 0.178608 0
0.117165 0.184444 0
0.120761 0.164701 0
0.1156 0.199931 0
0.100804 0.174136 0
0.102545 0.153034 0
0.12169 0.143342 0
0.104604 0.13008 0
0.0809304 0.161171 0
0.128077 0.121858 0
0.106825 0.102278 0
0.082498 0.188728 0
0.0314738 0.158621 0
2.04625 0.310891 0
2.08475 0.27479 0
2.11394 0.138117 0
0.233149 0.151108 0
0.258724 0.193613 0
0.268522 0.184917 0
1.65397 0.301059 0
0.145962 0.224912 0
0.132503 0.222267 0
0.13746 0.236947 0
0.120111 0.233525 0
0.126593 0.25219 0
0.105294 0.247497 0
0.113343 0.26868 0
0.133997 0.271734 0
0.121622 0.292031 0
0.147069 0.292141 0
0.0896563 0.267464 0
0.0813699 0.243294 0
0.163574 0.276939 0
0.172694 0.298517 0
0.1583 0.321483 0
0.186823 0.322499 0
0.173113 0.348195 0
0.0322087 0.250839 0
0.211694 0.124337 0
0.250615 0.169546 0
0.256243 0.157787 0
0.170796 0.14736 0
0.156755 0.141654 0
0.17187 0.131161 0
0.147502 0.152323 0
0.198129 0.260662 0
0.206368 0.271663 0
0.220945 0.26864 0
0.190489 0.270628 0
0.198813 0.286731 0
0.55749 0.322277 0
0.520166 0.299321 0
0.235199 0.330709 0
0.267109 0.337524 0
0.172324 0.25256 0
0.255974 0.218859 0
0.268327 0.214994 0
0.184197 0.143083 0
0.188721 0.129954 0
0.209694 0.139146 0
0.269223 0.244007 0
0.252374 0.255244 0
0.282229 0.0410487 0
1.21977 0.330016 0
1.25733 0.296346 0
2.09358 0.0890819 0
0.244373 0.240984 0
0.0838116 0.115786 0
0.0797544 0.0817835 0
0.237449 0.264854 0
0.247178 0.146225 0
0.270136 0.2 0
0.28023 0.191334 0
0.263476 0.170737 0
0.371486 0.368728 0
0.396124 0.330051 0
0.440314 0.325693 0
0.357693 0.329668 0
0.476576 0.362035 0
0.29587 0.222914 0
0.307627 0.175476 0
0.079599 0.0406461 0
0.146062 0.252571 0
0.15162 0.125025 0
0.417223 0.294608 0
0.457089 0.286958 0
0.036619 0.338729 0
0.0713014 0.322193 0
0.0735823 0.36704 0
0.041143 0.0722223 0
0.693501 0.32349 0
0.145406 0.175484 0
0.138777 0.164467 0
0.300367 0.0698839 0
0.167025 0.112083 0
0.146978 0.105544 0
0.151909 0.236762 0
0.444611 0.106436 0
0.909355 0.0817561 0
0.282901 0.370713 0
1.61474 0.330739 0
0.578053 0.368179 0
0.824695 0.0487848 0
2.09634 0.3213 0
2.02276 0.364865 0
2.12532 0.363702 0
1.09789 0.328757 0
0.161137 0.260089 0
2.07793 0.225752 0
2.12079 0.240944 0
2.0747 0.0437362 0
1.89402 0.158846 0
1.93154 0.128738 0
1.8848 0.111477 0
1.8384 0.0926484 0
1.87744 0.0655304 0
1.7913 0.0793874 0
1.9712 0.046671 0
1.92502 0.366682 0
1.94563 0.325156 0
1.89941 0.326645 0
1.87499 0.367178 0
1.84989 0.323491 0
1.7997 0.321303 0
1.77183 0.280326 0
1.75031 0.321965 0
1.77491 0.365615 0
2.11727 0.191885 0
0.883187 0.163467 0
1.71449 0.140266 0
1.667 0.125342 0
1.70591 0.0884759 0
1.67732 0.042286 0
1.52278 0.370513 0
1.37512 0.04128 0
1.34848 0.0834574 0
0.776093 0.367587 0
1.125 0.0433013 0
1.15 0.0866019 0
1.07442 0.0496847 0
0.974527 0.0370837 0
1.47464 0.0427918 0
1.44953 0.0873752 0
1.17595 0.362984 0
1.025 0.366699 0
0.925007 0.367031 0
0.95 0.323404 0
0.897321 0.326356 0
0.874563 0.367261 0
0.846552 0.324465 0
1.62923 0.156667 0
1.32319 0.13033 0
1.69342 0.270472 0
1.49568 0.156227 0
1.56237 0.268721 0
1.44 0.319169 0
1.43005 0.267892 0
1.36502 0.152565 0
0.993446 0.294003 0
1.30179 0.321101 0
1.18235 0.127964 0
1.25016 0.2491 0
1.29638 0.266841 0
1.11824 0.247967 0
1.12945 0.294699 0
1.01527 0.165035 0
0.836192 0.147197 0
1.4998 0.0831488 0
1.00655 0.118664 0
0.872896 0.117126 0
0.70523 0.146383 0
1.96013 0.276645 0
0.769406 0.257102 0
0.699552 0.0908977 0
2.1587 0.162257 0
1.97813 0.145326 0
0.646036 0.302035 0
0.799423 0.326603 0
0.515621 0.255445 0
1.72538 0.366474 0
1.97009 0.0998346 0
1.57108 0.313772 0
0.577925 0.14549 0
0.638911 0.256447 0
0.407352 0.0771641 0
0.525103 0.042511 0
0.674231 0.370698 0
1.69802 0.321701 0
0.56947 0.0908728 0
1.75459 0.110239 0
1.80084 0.126127 0
0.673535 0.0431435 0
1.57391 0.0465733 0
2.04571 0.0828469 0
0.10002 0.225545 0
0.0788152 0.21577 0
0.369719 0.224393 0
0.210352 0.308739 0
1.22342 0.0432967 0
[...]
CELL_DATA 1241
VECTORS velocity double
1.02114 -0.00393389 0.0
1.21511 0.0673969 0.0
0.471346 -0.000497622 0.0
0.955114 0.00292703 0.0
1.03906 0.0068327 0.0
1.42256 0.102811 0.0
1.1316 0.0001353 0.0
0.988163 -0.000849145 0.0
0.363906 0.0156307 0.0
1.16999 0.00171084 0.0
1.31247 -0.119987 0.0
1.31627 0.126521 0.0
0.865764 -0.160584 0.0
1.01345 0.00690541 0.0
0.989089 0.00729912 0.0
1.4659 -0.0324616 0.0
0.977812 0.00154192 0.0
0.47957 0.0603602 0.0
1.17024 0.0631931 0.0
1.6477 -0.253913 0.0
1.02617 0.00600352 0.0
1.05911 -0.0661936 0.0
1.03284 0.00104156 0.0
1.25315 0.904874 0.0
1.07163 -0.00194073 0.0
1.02955 0.0040672 0.0
1.29888 -0.199271 0.0
1.07597 -0.0252529 0.0
1.32175 -0.0836668 0.0
1.46203 -0.0645403 0.0
1.33199 0.0902386 0.0
0.865412 -0.0371892 0.0
1.51978 0.00213281 0.0
1.0121 0.00531398 0.0
1.25445 -0.057279 0.0
1.35868 0.156702 0.0
1.2101 -0.0560147 0.0
1.05042 -0.167824 0.0
0.359546 0.0204934 0.0
1.38196 0.141077 0.0
1.76473 -0.17944 0.0
1.41379 -0.0450836 0.0
1.05282 -0.237131 0.0
0.52714 0.00711221 0.0
1.39906 -0.166978 0.0
0.520783 -0.00476011 0.0
1.20247 0.0998084 0.0
1.11203 0.0265165 0.0
1.61306 -0.312875 0.0
1.24029 -0.0109239 0.0
1.20066 0.00118387 0.0
1.29087 -0.417462 0.0
0.870136 -0.00383846 0.0
1.40725 -0.0829749 0.0
1.77547 -0.279325 0.0
1.51831 -0.0293246 0.0
1.14732 -0.0407388 0.0
1.12415 -0.000241579 0.0
1.65879 -0.0987124 0.0
1.68777 -0.19899 0.0
1.15858 0.847271 0.0
1.0013 6.09795e-05 0.0
0.196522 0.0352245 0.0
1.03158 0.00814587 0.0
-0.24049 0.0713228 0.0
1.33193 0.227541 0.0
-0.278833 0.0868082 0.0
1.15851 0.000335035 0.0
0.860717 -0.0261189 0.0
0.219241 0.0248218 0.0
1.1594 -0.00313541 0.0
0.794066 0.0138586 0.0
1.1585 -0.00256523 0.0
0.792605 -0.014287 0.0
1.19226 0.00757855 0.0
0.881276 0.157049 0.0
0.944235 0.00535154 0.0
1.6318 -0.0460194 0.0
0.978072 -0.0348611 0.0
0.611027 0.000718379 0.0
1.75209 -0.382792 0.0
1.15967 -0.246636 0.0
0.651998 0.0118378 0.0
1.2614 -0.227209 0.0
1.34581 0.170038 0.0
0.919239 -0.0666512 0.0
1.2082 0.178808 0.0
0.0876075 0.0991107 0.0
1.83899 0.530212 0.0
1.17952 0.00387281 0.0
1.27271 0.00984823 0.0
-0.188888 -0.0111093 0.0
-0.347678 0.0787623 0.0
1.44206 -0.0652468 0.0
1.18199 -0.0416107 0.0
0.992923 0.00121444 0.0
0.850172 -0.0262542 0.0
-0.184566 0.090698 0.0
1.01442 -0.00978384 0.0
-0.243139 0.113485 0.0
1.08214 -0.0985549 0.0
1.15182 -0.0121421 0.0
0.94838 0.000652435 0.0
1.63962 -0.161021 0.0
1.74259 -0.670614 0.0
1.27319 -0.397877 0.0
1.0721 -0.0626027 0.0
0.499174 -0.0232321 0.0
1.7882 0.649588 0.0
1.20896 0.00339332 0.0
1.48481 -0.110052 0.0
1.23208 0.190374 0.0
0.132113 0.0757297 0.0
1.44146 -0.0270106 0.0
1.07943 0.0150468 0.0
1.44262 0.0400758 0.0
1.41343 0.00518319 0.0
1.39142 0.0525304 0.0
1.06163 -0.000643479 0.0
0.256614 0.0403849 0.0
1.19063 0.0419505 0.0
1.51971 0.581711 0.0
1.25183 0.109148 0.0
0.919736 -0.0634212 0.0
0.727987 -0.0998508 0.0
1.20583 0.086842 0.0
1.44601 -0.0434751 0.0
1.11541 0.0251383 0.0
1.74984 0.501323 0.0
0.549884 -0.0713079 0.0
1.15812 -0.0125381 0.0
0.615644 -0.00159171 0.0
0.885619 0.0638031 0.0
1.60298 -0.0210345 0.0
1.02082 -0.153965 0.0
-0.27579 0.0746298 0.0
0.123527 0.0618968 0.0
1.22445 0.0829207 0.0
1.0475 -0.025435 0.0
1.66403 -0.761316 0.0
1.50088 0.00356647 0.0
1.03436 0.00378137 0.0
1.07834 -0.244994 0.0
1.00409 0.00715623 0.0
1.52407 0.00773865 0.0
0.0238046 0.0316151 0.0
-0.254332 0.0378012 0.0
-0.181563 0.00625798 0.0
0.640508 0.0145743 0.0
0.650761 -0.012497 0.0
0.555324 -0.101516 0.0
1.03394 -0.00729145 0.0
1.79655 -0.332376 0.0
1.04915 -0.154128 0.0
1.20282 -0.0491842 0.0
1.20456 0.0544136 0.0
0.509788 -0.000192808 0.0
1.64335 0.0733119 0.0
0.858047 0.0308265 0.0
1.24593 -0.0575719 0.0
-0.230624 0.0475837 0.0
1.74053 0.446288 0.0
1.14143 0.00570321 0.0
1.22205 -0.204901 0.0
1.14016 0.0349207 0.0
1.05422 0.130223 0.0
0.989214 -0.00154753 0.0
0.987075 0.109817 0.0
0.571361 -0.00291063 0.0
1.17173 -0.0346727 0.0
0.926827 -0.0250084 0.0
1.21724 0.0038834 0.0
1.3654 0.265364 0.0
1.18853 0.0872764 0.0
1.10441 0.00352111 0.0
1.11556 0.00442041 0.0
1.18246 0.198547 0.0
1.12011 -0.287573 0.0
1.11304 0.00939889 0.0
1.16597 -0.225178 0.0
1.11895 0.00712276 0.0
0.363954 0.109861 0.0
1.08773 -0.64441 0.0
0.730533 -0.127067 0.0
1.02111 -0.00704818 0.0
0.765637 -0.0789562 0.0
0.76212 -0.0636284 0.0
1.02675 0.00549444 0.0
1.05544 0.0959085 0.0
0.460997 0.0470019 0.0
0.889655 -0.829964 0.0
1.77869 0.344808 0.0
1.02781 -0.0019523 0.0
0.98028 0.00783233 0.0
0.66724 0.0601846 0.0
0.853845 0.057454 0.0
0.397725 0.0589963 0.0
1.00611 -0.0143189 0.0
1.42771 -0.0322299 0.0
1.44968 0.581365 0.0
1.15457 0.193082 0.0
1.06837 -0.013793 0.0
1.42685 0.0383959 0.0
1.0424 -0.0929972 0.0
1.39957 -0.0921724 0.0
1.43601 -0.0447053 0.0
0.484051 0.0246895 0.0
0.657191 0.0130116 0.0
0.898096 -0.0230285 0.0
0.85585 0.0336963 0.0
0.542356 0.0166118 0.0
0.527752 -0.00231741 0.0
1.79017 0.286188 0.0
1.11095 0.00896025 0.0
1.44117 -0.00407784 0.0
1.12018 0.00960907 0.0
0.73484 -0.0779797 0.0
1.5108 -0.0914974 0.0
1.17617 -0.0310683 0.0
1.15596 -0.0104503 0.0
0.833098 -0.049581 0.0
1.67136 -0.0700028 0.0
1.00981 0.0552093 0.0
0.99688 0.011776 0.0
0.957399 -0.0263641 0.0
1.21608 0.00302197 0.0
1.43488 -0.138209 0.0
1.72999 -0.60078 0.0
1.17776 -0.00602569 0.0
1.19263 -0.00916406 0.0
0.997769 -0.00128221 0.0
1.06355 -0.132773 0.0
1.02524 -0.00875809 0.0
0.994389 -0.00551078 0.0
1.25819 0.310849 0.0
1.0383 -0.256586 0.0
1.09593 0.172372 0.0
1.31828 0.133163 0.0
0.746355 -0.107305 0.0
0.355076 -0.0454516 0.0
0.958276 0.015812 0.0
1.43871 0.057008 0.0
1.42209 0.918293 0.0
0.682938 -0.0851812 0.0
1.1451 -0.0146905 0.0
1.70438 0.139902 0.0
1.09699 -0.898616 0.0
0.868428 -0.1776 0.0
1.13764 -0.0382092 0.0
0.574015 -0.00754452 0.0
1.02574 0.0269312 0.0
0.55977 -0.00907126 0.0
1.02996 -0.00342437 0.0
1.20953 0.00388085 0.0
0.634323 -0.0117366 0.0
0.77267 -0.0339152 0.0
1.09485 -0.285451 0.0
1.32517 -0.105518 0.0
1.20772 0.00183635 0.0
1.01614 -0.00190848 0.0
1.00948 0.00946729 0.0
0.523051 -0.00528729 0.0
1.20991 0.0059771 0.0
0.732946 -0.0263247 0.0
1.12476 0.0442687 0.0
1.00201 -0.00931268 0.0
0.579511 0.00391358 0.0
1.24104 -0.110694 0.0
1.22793 -0.171891 0.0
0.786065 -0.0268815 0.0
1.14106 -0.0660535 0.0
0.601171 0.00137173 0.0
0.985995 -0.0134282 0.0
0.117383 0.0680297 0.0
1.19024 0.00022036 0.0
1.18784 -0.00864078 0.0
0.611453 -0.00399254 0.0
0.943536 -0.194896 0.0
0.987919 -0.0134345 0.0
1.42953 0.155376 0.0
1.18574 0.00242298 0.0
1.21749 -0.000164921 0.0
1.22357 -0.170782 0.0
1.21947 -0.0017745 0.0
1.21762 0.00137891 0.0
1.17174 -0.0164811 0.0
0.937236 -0.115132 0.0
0.835802 0.0428618 0.0
1.22033 -0.00406216 0.0
1.21632 3.34733e-05 0.0
1.2128 -0.00132592 0.0
0.634764 0.0704599 0.0
0.483487 0.00511789 0.0
0.994554 0.00948692 0.0
0.562808 -0.00734837 0.0
1.21886 -0.00410157 0.0
1.00379 -0.0158216 0.0
1.15369 0.0108366 0.0
-0.260458 -0.0270444 0.0
0.975356 -0.00948922 0.0
0.520593 -0.00362654 0.0
1.31909 -0.604771 0.0
1.12119 -0.00737414 0.0
0.975552 -0.0139209 0.0
0.542168 -0.00941808 0.0
1.21813 -0.00207004 0.0
0.866239 0.0409816 0.0
0.54994 0.00156863 0.0
0.995867 -0.0130752 0.0
1.21938 -0.00459701 0.0
1.21214 -0.00201969 0.0
1.21586 -0.00183827 0.0
0.637138 -0.00642876 0.0
0.466972 0.0011058 0.0
1.21764 -0.00566737 0.0
1.14279 -0.0741845 0.0
1.19537 -0.00666357 0.0
0.619467 0.00975912 0.0
1.17814 -0.00772605 0.0
1.20987 -0.0038329 0.0
1.19813 0.00125058 0.0
1.22209 -0.00598147 0.0
0.484494 -0.00612096 0.0
1.21639 -0.00554476 0.0
1.21677 -0.00503659 0.0
1.20955 -0.00628689 0.0
0.475597 -0.00330579 0.0
1.20292 -0.00123322 0.0
1.17654 -0.00564737 0.0
1.19015 -0.000812208 0.0
1.2201 -0.00611505 0.0
1.17114 -0.158609 0.0
1.12637 0.00131509 0.0
1.2218 -0.00653563 0.0
1.35092 0.668478 0.0
1.20744 -0.00592747 0.0
0.527788 -0.00646238 0.0
1.09234 -0.0221431 0.0
0.580603 0.00803621 0.0
0.588753 -0.00925844 0.0
1.1243 0.00680492 0.0
1.09193 -0.0120221 0.0
1.06578 -0.00717118 0.0
0.52708 -0.00797559 0.0
1.09802 -0.0217396 0.0
1.13131 0.00539081 0.0
1.21955 -0.00694004 0.0
1.076 0.139783 0.0
1.15522 -0.696887 0.0
0.558105 -0.00424244 0.0
0.515885 -0.00520722 0.0
1.21576 -0.00546934 0.0
1.21747 -0.0072307 0.0
0.615948 -0.0193057 0.0
0.504678 -0.00982969 0.0
1.21358 -0.00481297 0.0
0.990792 0.0146816 0.0
1.16467 0.0102685 0.0
1.15274 -0.00628831 0.0
0.562625 0.00776971 0.0
0.514396 -0.00189894 0.0
1.14738 0.017033 0.0
0.603428 0.0130927 0.0
0.568637 0.0139858 0.0
1.17481 0.00731587 0.0
0.618822 0.020908 0.0
0.571341 -0.000393391 0.0
1.20558 -0.00454637 0.0
1.19447 -0.00412541 0.0
0.964742 0.0143339 0.0
1.2037 -0.00301268 0.0
1.17745 -0.00330983 0.0
1.21052 -0.00377825 0.0
0.98718 0.0100818 0.0
1.14869 -0.00364252 0.0
0.615409 0.00626123 0.0
0.51023 0.01395 0.0
0.560799 0.0129888 0.0
0.481879 -0.00846899 0.0
0.546385 4.1857e-05 0.0
0.565388 -0.0046819 0.0
0.530076 -0.00220183 0.0
0.634502 -0.0138752 0.0
0.560672 -0.00468948 0.0
0.582006 0.012467 0.0
0.503777 -0.00684017 0.0
0.570164 0.0154615 0.0
0.514993 -0.000132335 0.0
0.675075 0.0215771 0.0
0.57243 0.0102709 0.0
0.566478 -0.0115901 0.0
0.501636 0.00220007 0.0
0.534368 -0.00179316 0.0
0.518236 0.0071875 0.0
0.60623 -0.00975879 0.0
0.551896 -0.0015504 0.0
0.59605 -0.0077735 0.0
0.55564 -0.0128886 0.0
0.546288 0.00580824 0.0
0.529912 -0.0004161 0.0
0.550374 0.00288666 0.0
0.497047 -0.0163368 0.0
0.49142 0.0199767 0.0
0.489181 0.000975529 0.0
0.550835 -0.00720191 0.0
0.506905 0.00344433 0.0
0.641971 -0.0212713 0.0
0.502981 0.00523005 0.0
0.483036 0.00479198 0.0
0.525921 0.0005113 0.0
0.502658 -0.0030043 0.0
1.17609 -0.00262544 0.0
1.15682 -0.0053013 0.0
1.21607 -0.0066395 0.0
1.21505 -0.0050506 0.0
1.21756 -0.0051635 0.0
1.11461 -0.00623828 0.0
1.19031 -0.00596397 0.0
1.17151 -0.00522453 0.0
1.1797 0.00256709 0.0
1.15164 -0.00314211 0.0
1.20122 -0.00684217 0.0
1.20323 -0.00739986 0.0
1.16783 -0.00526286 0.0
1.21205 -0.00382932 0.0
1.19042 -0.00209002 0.0
1.2119 -0.00550554 0.0
1.18691 -0.00628312 0.0
1.14978 -0.000255332 0.0
1.20887 -0.00570846 0.0
1.21444 -0.00428189 0.0
1.20146 -0.00222338 0.0
1.21269 -0.00417219 0.0
1.20762 -0.00527464 0.0
1.15223 -0.00791849 0.0
1.21369 -0.00253259 0.0
1.19231 -0.00287731 0.0
1.21129 -0.00199525 0.0
1.11639 -0.000458634 0.0
1.19255 -0.00363109 0.0
1.18712 -3.49275e-05 0.0
1.20812 -0.00208713 0.0
1.17035 -0.000769746 0.0
1.20683 -0.00250592 0.0
1.20944 -0.00250048 0.0
1.18261 0.0022129 0.0
1.21096 -0.00201149 0.0
1.20105 -0.0036729 0.0
1.20557 -0.000690235 0.0
1.15011 -0.00726006 0.0
1.17175 -0.00166958 0.0
1.20805 -0.00088051 0.0
1.19903 -0.0030529 0.0
1.19795 0.000407003 0.0
1.19534 0.00176868 0.0
1.16346 -0.0120876 0.0
1.20707 -0.000689655 0.0
1.20414 -0.00034227 0.0
1.13395 -0.00478361 0.0
1.18864 -0.00384861 0.0
1.11779 0.00405456 0.0
1.17556 -0.00363129 0.0
1.18693 -0.00348261 0.0
1.19785 -0.00353988 0.0
1.20456 -0.00160442 0.0
1.17181 -0.00372672 0.0
1.20095 -0.00337673 0.0
1.20127 -0.00133193 0.0
1.20396 -0.000241036 0.0
1.19925 0.00148982 0.0
1.19633 0.00181156 0.0
1.19546 0.00256797 0.0
1.18314 0.00406358 0.0
1.13316 -0.00503696 0.0
1.09305 0.00537602 0.0
1.17979 0.00539163 0.0
1.20044 0.000182577 0.0
0.570909 -0.00595553 0.0
1.18626 0.0039701 0.0
1.14791 0.0053514 0.0
1.16968 0.00573118 0.0
1.19889 0.00191836 0.0
1.16769 0.0055368 0.0
1.18168 0.00482539 0.0
1.17535 0.000272549 0.0
1.19081 0.00400008 0.0
1.18026 -0.000619372 0.0
1.13013 -0.00398381 0.0
1.13093 -0.00663658 0.0
1.15574 -0.00380422 0.0
1.18768 0.00524605 0.0
1.17551 -0.00356786 0.0
1.18754 0.00288709 0.0
1.16719 -0.00309229 0.0
1.18294 -0.0034049 0.0
1.19109 0.00225269 0.0
1.18536 0.00505638 0.0
0.986126 -0.0112693 0.0
1.17124 -0.00278164 0.0
1.17852 0.00670035 0.0
1.14538 0.00689032 0.0
1.18954 -0.00218496 0.0
1.19444 -4.79773e-05 0.0
1.07703 -0.0174475 0.0
1.16858 0.00978846 0.0
1.17919 -0.00304017 0.0
1.14767 0.0132067 0.0
1.19053 -0.00020734 0.0
1.15195 0.017653 0.0
1.17058 -0.00382202 0.0
1.19266 -0.00222949 0.0
1.17722 -0.000779812 0.0
1.11938 0.176535 0.0
1.15209 -0.0062568 0.0
1.21044 -0.00766509 0.0
1.17464 0.00846137 0.0
1.17916 0.00112309 0.0
1.15793 -0.0124246 0.0
1.1624 -0.00263952 0.0
1.13801 -0.00187875 0.0
1.16144 -0.00854076 0.0
1.17276 0.00235024 0.0
1.13982 -4.04127e-05 0.0
1.16792 0.00206056 0.0
1.16694 -0.00606586 0.0
1.1646 -0.00198078 0.0
1.154 0.011531 0.0
1.16491 -0.00498705 0.0
0.714917 -0.0207126 0.0
0.977907 0.00300102 0.0
1.14948 0.0138431 0.0
1.15303 0.00895216 0.0
1.15981 -0.00738927 0.0
1.14121 0.0112101 0.0
1.14946 0.0134522 0.0
1.15118 -0.002415 0.0
1.13416 0.000775827 0.0
1.14607 -0.00317001 0.0
1.14021 0.000817636 0.0
1.12745 0.0120482 0.0
1.16362 0.00517363 0.0
1.15763 0.00801228 0.0
0.999461 0.00659622 0.0
1.15914 0.00539487 0.0
1.16009 0.0105781 0.0
1.1517 0.0111592 0.0
1.12062 0.015149 0.0
1.13611 0.0150991 0.0
1.15717 0.011559 0.0
1.73567 0.181283 0.0
1.12603 -0.0105323 0.0
1.13224 0.0194587 0.0
1.10466 -0.0225603 0.0
1.14997 0.0221093 0.0
1.15123 0.0158529 0.0
1.11952 -0.0128378 0.0
1.14859 0.0220498 0.0
1.20943 -0.0044542 0.0
1.07305 -0.00887764 0.0
1.09629 0.0151672 0.0
1.10397 -0.00693981 0.0
1.30677 0.12688 0.0
1.20603 -0.00498157 0.0
1.07886 -0.000951058 0.0
1.15152 -0.0073108 0.0
1.14353 0.0285938 0.0
1.14727 0.0228007 0.0
1.09624 -0.00848157 0.0
1.09859 -0.0275667 0.0
0.985748 -0.0133126 0.0
1.18272 3.97417e-05 0.0
1.07379 0.000694859 0.0
1.08373 0.000197204 0.0
1.12542 0.0248652 0.0
1.11528 -0.0269258 0.0
1.03005 0.198331 0.0
0.968159 -0.013742 0.0
1.13954 0.0342278 0.0
0.443592 -0.164753 0.0
1.38125 0.132231 0.0
1.18168 -0.0529289 0.0
1.07131 0.0104844 0.0
1.07148 0.026096 0.0
1.05938 0.0366602 0.0
1.20509 -0.000517169 0.0
1.05852 0.0144795 0.0
1.04148 -0.0445672 0.0
1.30216 0.175922 0.0
1.00473 -0.143119 0.0
1.03625 -0.0582227 0.0
1.15251 -0.13405 0.0
1.14306 -0.0110848 0.0
1.09803 -0.0485921 0.0
1.17325 -0.0032279 0.0
0.942378 0.00190118 0.0
1.18152 0.0548546 0.0
1.01442 -0.0139733 0.0
1.23814 -0.102579 0.0
1.20502 -0.00506723 0.0
1.19498 -0.00612105 0.0
1.06123 -0.0201866 0.0
1.39844 -0.567439 0.0
1.13475 0.084077 0.0
1.00071 -0.0202147 0.0
1.13521 0.0675781 0.0
0.963343 0.00159059 0.0
0.754828 0.028408 0.0
1.09373 0.0455271 0.0
1.32726 -0.160598 0.0
0.935831 -0.0913705 0.0
1.1018 -0.0401784 0.0
0.632659 -0.556579 0.0
1.10573 -0.0283489 0.0
1.11218 -0.00586632 0.0
1.1489 -0.00666004 0.0
1.39075 -0.140185 0.0
1.08409 0.0604668 0.0
1.17303 -0.00259 0.0
1.05267 -0.0263346 0.0
1.16526 0.0368345 0.0
0.990741 -0.0161629 0.0
1.35004 -0.771808 0.0
1.21156 0.00458989 0.0
1.18013 0.0523405 0.0
1.19058 0.00295561 0.0
1.12374 -0.000339735 0.0
1.18067 -0.0573224 0.0
1.06662 0.020577 0.0
1.20851 0.0819994 0.0
1.12129 -0.00778554 0.0
1.16058 0.0448361 0.0
0.964506 0.00157967 0.0
1.14504 0.0104673 0.0
1.18055 -0.531662 0.0
0.654529 -0.00625937 0.0
0.676813 -0.0235606 0.0
0.930662 0.0274046 0.0
1.2666 0.12047 0.0
1.14936 -0.00585306 0.0
1.17608 -0.00527384 0.0
0.602172 0.0103562 0.0
1.1939 -0.00561761 0.0
0.330088 -0.123778 0.0
1.07509 -0.0998372 0.0
0.566447 0.00815103 0.0
0.57106 -0.0118121 0.0
0.904771 0.0404752 0.0
1.15258 -0.00508285 0.0
0.863948 -0.174326 0.0
0.858278 -0.0243095 0.0
1.68891 -0.124642 0.0
0.940268 0.0375507 0.0
1.14768 -0.0104887 0.0
1.14842 -0.0120212 0.0
1.05121 0.00709465 0.0
1.20958 0.0035547 0.0
1.17072 0.00143411 0.0
1.18512 0.34829 0.0
0.616278 0.0177031 0.0
1.01588 0.00322539 0.0
1.36785 -0.0985726 0.0
0.541491 0.00701459 0.0
1.58081 0.560831 0.0
0.938485 -0.042121 0.0
0.801485 -0.0269163 0.0
1.33989 0.0887732 0.0
0.786382 -0.0538664 0.0
0.95649 -7.7942e-05 0.0
0.669574 -0.116887 0.0
1.15858 -0.0163369 0.0
0.880775 0.0995444 0.0
1.14057 -0.0143764 0.0
0.663929 -0.00414511 0.0
1.02707 0.00525418 0.0
0.983353 0.136797 0.0
1.40986 -0.0332337 0.0
0.52628 -0.00317003 0.0
0.640968 -0.024441 0.0
0.918763 0.805414 0.0
1.10933 -0.00107571 0.0
1.05076 0.011776 0.0
1.39191 0.0132243 0.0
0.597857 -0.0107738 0.0
1.13129 0.0166949 0.0
1.16668 -0.44863 0.0
0.186481 0.0223915 0.0
0.929218 -0.0635019 0.0
1.07228 -0.0839382 0.0
0.732406 0.0241581 0.0
0.52306 0.018087 0.0
1.64875 0.0358082 0.0
1.15174 -0.00587655 0.0
0.311487 0.0152298 0.0
0.575977 0.0252297 0.0
1.1429 -0.00499745 0.0
1.1954 -0.00594973 0.0
1.00312 -0.0166978 0.0
0.942605 0.0628522 0.0
1.2091 0.172427 0.0
0.635208 0.0110358 0.0
1.19268 0.00779469 0.0
0.923596 0.0931382 0.0
1.19816 -0.00681059 0.0
1.38806 -0.593447 0.0
0.527071 0.000348617 0.0
1.45882 -0.130747 0.0
1.1095 0.00626938 0.0
0.958147 -0.013244 0.0
0.621517 0.0903049 0.0
0.994526 0.102495 0.0
0.897466 0.139848 0.0
1.11181 0.0075246 0.0
1.21531 -0.0586645 0.0
1.39921 -0.0369516 0.0
0.582068 0.00443965 0.0
0.605452 0.0147413 0.0
1.07545 -0.00336591 0.0
0.404537 -0.0728868 0.0
1.04285 0.0367534 0.0
0.499304 0.00371943 0.0
0.969836 -0.0110648 0.0
1.11001 -0.00434835 0.0
0.949707 -0.00911804 0.0
0.555228 -0.00584626 0.0
0.555918 0.0197129 0.0
0.572722 0.0086065 0.0
0.536254 0.00720962 0.0
0.590268 0.010228 0.0
1.21074 0.669552 0.0
1.36048 0.069269 0.0
0.96497 -0.0023468 0.0
0.55686 0.00749318 0.0
0.568329 -0.012269 0.0
0.695721 0.0253786 0.0
1.15366 -0.0480918 0.0
0.613711 0.00125917 0.0
1.6042 -0.192932 0.0
1.29441 0.0960174 0.0
0.539539 -0.1407 0.0
1.34377 -0.0943429 0.0
1.52688 -0.466743 0.0
1.0078 0.00386774 0.0
1.09054 0.0174369 0.0
1.14528 -0.0121337 0.0
0.966464 0.00151103 0.0
0.837093 -0.689263 0.0
1.02286 -0.000396117 0.0
0.979295 -0.00479923 0.0
1.19379 -0.0108995 0.0
1.11833 -0.0345962 0.0
1.64799 -0.000798789 0.0
-0.11962 0.0984675 0.0
0.509723 -0.0690705 0.0
1.33619 0.518128 0.0
1.07563 -0.0116135 0.0
0.608864 -0.0110172 0.0
0.582178 -0.00475707 0.0
0.578434 -0.005203 0.0
1.20969 0.00562765 0.0
0.635738 0.212062 0.0
1.17425 -0.0246785 0.0
0.978935 0.0106286 0.0
0.753232 0.163976 0.0
1.12422 -0.00288697 0.0
0.1425 -0.0105299 0.0
1.1799 0.00582532 0.0
0.57362 0.0205353 0.0
0.570787 -0.00972353 0.0
1.34072 0.0861188 0.0
0.850979 -0.0103669 0.0
1.50677 0.0325789 0.0
0.977342 0.0133107 0.0
0.99399 0.00948869 0.0
0.114586 -0.166258 0.0
0.978128 0.0276081 0.0
1.17027 0.0117344 0.0
1.15263 0.0117555 0.0
0.357423 -0.136819 0.0
1.61671 -0.273093 0.0
1.09131 0.000405538 0.0
1.28821 0.195934 0.0
0.598741 -0.0131127 0.0
0.567918 -0.00675682 0.0
1.12275 -0.0168674 0.0
0.534434 0.0900405 0.0
1.12871 -0.0273601 0.0
0.806751 0.0221238 0.0
0.936223 -0.00993627 0.0
1.13078 0.0107474 0.0
1.00218 -0.00389863 0.0
0.201881 -0.0209001 0.0
1.14358 -0.0114298 0.0
0.310466 0.0602508 0.0
1.015 -0.00190304 0.0
1.00699 -0.00368857 0.0
0.582396 -0.015922 0.0
1.06745 -0.00845514 0.0
1.17429 -0.024643 0.0
0.955631 -0.000308119 0.0
0.992158 -0.0117897 0.0
1.2003 -0.964664 0.0
1.13114 0.0218958 0.0
1.69274 0.486777 0.0
0.569813 -0.0154111 0.0
0.561192 0.00647333 0.0
1.16513 0.00408812 0.0
1.2168 -0.00561123 0.0
1.11106 -0.00697737 0.0
1.12106 -0.000273914 0.0
1.17716 0.00412181 0.0
1.12996 0.00357053 0.0
1.20761 -0.00768812 0.0
1.15037 0.0261432 0.0
-0.196714 0.0187001 0.0
1.10104 0.0148107 0.0
-0.0221005 0.0307708 0.0
0.658523 -0.025668 0.0
1.20495 -0.178291 0.0
1.14211 -0.00946124 0.0
1.368 -0.138797 0.0
1.64639 -0.502311 0.0
0.314249 -0.0181097 0.0
1.20112 -0.00667935 0.0
1.12897 0.271947 0.0
1.34969 -0.0989865 0.0
1.07138 0.305659 0.0
1.70962 0.086403 0.0
0.975278 -0.542484 0.0
1.37208 0.132312 0.0
1.12263 -0.0163036 0.0
1.28967 -0.480968 0.0
-0.0854227 -0.109035 0.0
1.05655 0.00143198 0.0
1.31868 -0.394799 0.0
0.512291 -0.00470423 0.0
1.41847 -0.149712 0.0
1.68459 0.198105 0.0
1.09053 0.0111269 0.0
0.420215 0.0148076 0.0
0.717045 0.00179113 0.0
0.267882 -0.228503 0.0
0.955456 0.0461519 0.0
-0.116869 -0.0306062 0.0
1.14721 -0.163175 0.0
1.49582 0.144609 0.0
0.531467 0.00884972 0.0
1.22877 -0.0695684 0.0
0.973515 0.000174266 0.0
1.20171 0.00489856 0.0
0.435172 -0.615569 0.0
1.22865 0.264344 0.0
0.731093 -0.163098 0.0
0.191348 -0.330974 0.0
0.520076 0.160701 0.0
1.30261 0.238465 0.0
0.59957 0.152811 0.0
0.965773 -0.0113005 0.0
1.13532 -0.014261 0.0
1.08073 0.0100639 0.0
1.07242 0.00919129 0.0
0.577793 0.00760738 0.0
0.0255188 0.0821844 0.0
1.30831 0.299754 0.0
0.465823 -0.00148 0.0
1.10082 0.00768469 0.0
0.264437 0.216241 0.0