# vtk DataFile Version 3.0
Malha 2D com triângulos e temperatura
ASCII
DATASET UNSTRUCTURED_GRID

POINTS 688 double
0 0 0
2.2 0 0
2.2 0.41 0
0 0.41 0
0.25 0.2 0
0.05 0 0
0.1 0 0
0.15 0 0
0.2 0 0
0.25 0 0
0.3 0 0
0.35 0 0
0.4 0 0
0.45 0 0
0.5 0 0
0.55 0 0
0.6 0 0
0.65 0 0
0.7 0 0
0.75 0 0
0.8 0 0
0.85 0 0
0.9 0 0
0.95 0 0
1 0 0
1.05 0 0
1.1 0 0
1.15 0 0
1.2 0 0
1.25 0 0
1.3 0 0
1.35 0 0
1.4 0 0
1.45 0 0
1.5 0 0
1.55 0 0
1.6 0 0
1.65 0 0
1.7 0 0
1.75 0 0
1.8 0 0
1.85 0 0
1.9 0 0
1.95 0 0
2 0 0
2.05 0 0
2.1 0 0
2.15 0 0
2.2 0.0455556 0
2.2 0.0911111 0
2.2 0.136667 0
2.2 0.182222 0
2.2 0.227778 0
2.2 0.273333 0
2.2 0.318889 0
2.2 0.364444 0
2.15 0.41 0
2.1 0.41 0
2.05 0.41 0
2 0.41 0
1.95 0.41 0
1.9 0.41 0
1.85 0.41 0
1.8 0.41 0
1.75 0.41 0
1.7 0.41 0
1.65 0.41 0
1.6 0.41 0
1.55 0.41 0
1.5 0.41 0
1.45 0.41 0
1.4 0.41 0
1.35 0.41 0
1.3 0.41 0
1.25 0.41 0
1.2 0.41 0
1.15 0.41 0
1.1 0.41 0
1.05 0.41 0
1 0.41 0
0.95 0.41 0
0.9 0.41 0
0.85 0.41 0
0.8 0.41 0
0.75 0.41 0
0.7 0.41 0
0.65 0.41 0
0.6 0.41 0
0.55 0.41 0
0.5 0.41 0
0.45 0.41 0
0.4 0.41 0
0.35 0.41 0
0.3 0.41 0
0.25 0.41 0
0.2 0.41 0
0.15 0.41 0
0.1 0.41 0
0.05 0.41 0
0 0.364444 0
0 0.318889 0
0 0.273333 0
0 0.227778 0
0 0.182222 0
0 0.136667 0
0 0.0911111 0
0 0.0455556 0
0.248831 0.210749 0
0.245379 0.220994 0
0.239805 0.230259 0
0.232369 0.238108 0
0.22342 0.244176 0
0.213376 0.248177 0
0.202707 0.249927 0
0.191911 0.249341 0
0.181493 0.246449 0
0.171941 0.241384 0
0.1637 0.234385 0
0.157157 0.225778 0
0.152617 0.215965 0
0.150293 0.205406 0
0.150293 0.194594 0
0.152617 0.184035 0
0.157157 0.174222 0
0.1637 0.165615 0
0.171941 0.158616 0
0.181493 0.153551 0
0.191911 0.150659 0
0.202707 0.150073 0
0.213376 0.151823 0
0.22342 0.155824 0
0.232369 0.161892 0
0.239805 0.169741 0
0.245379 0.179006 0
0.248831 0.189251 0
0.421316 0.36725 0
0.426705 0.0366526 0
2.16065 0.209201 0
1.52286 0.0417259 0
0.626017 0.37111 0
1.3257 0.0414552 0
1.02471 0.0432237 0
1.17293 0.0421053 0
0.82501 0.36678 0
1.6757 0.370064 0
1.91628 0.0358195 0
1.82501 0.366432 0
0.723429 0.0421499 0
1.425 0.366699 0
1.97461 0.366224 0
1.12167 0.370137 0
0.975 0.368691 0
0.877672 0.0412714 0
1.27686 0.36884 0
1.725 0.0433013 0
0.579174 0.0416211 0
0.325589 0.363848 0
0.319111 0.0378151 0
0.0394523 0.296111 0
0.0329929 0.11602 0
0.142108 0.187428 0
1.57555 0.364352 0
2.02603 0.0412138 0
0.725007 0.36763 0
0.528647 0.366595 0
1.62699 0.0400272 0
1.82929 0.0421255 0
1.425 0.0418325 0
2.07474 0.364233 0
0.125 0.0433013 0
0.161245 0.155011 0
0.225 0.366699 0
0.210027 0.258536 0
2.16034 0.115449 0
0.0371627 0.204103 0
0.142311 0.212698 0
0.220283 0.0418538 0
0.221965 0.145099 0
0.196802 0.141016 0
0.119851 0.373394 0
0.161112 0.245979 0
0.184892 0.258024 0
2.16342 0.30039 0
2.12627 0.047699 0
0.183325 0.0412617 0
0.152317 0.0762976 0
0.203864 0.0745802 0
0.234384 0.0774346 0
0.215969 0.103585 0
0.245651 0.104548 0
0.186562 0.100216 0
0.268213 0.0793029 0
0.272149 0.109155 0
0.242885 0.159377 0
0.253088 0.128261 0
0.278718 0.13214 0
0.295917 0.115997 0
0.301728 0.138858 0
0.321266 0.12205 0
0.324642 0.151724 0
0.255978 0.181139 0
0.350123 0.129049 0
0.357539 0.159885 0
0.333541 0.181416 0
0.36451 0.19182 0
0.250573 0.230419 0
0.391277 0.169722 0
0.339477 0.212308 0
0.39836 0.205386 0
0.427326 0.18117 0
0.258724 0.206387 0
0.434392 0.219501 0
0.466446 0.193907 0
0.472865 0.243064 0
0.507358 0.209962 0
0.40073 0.238916 0
0.499135 0.1652 0
0.5419 0.179224 0
0.550176 0.22496 0
0.585844 0.194129 0
0.594095 0.240176 0
0.630701 0.209517 0
0.621901 0.162424 0
0.667731 0.178095 0
0.676485 0.226008 0
0.713906 0.194492 0
0.722681 0.242872 0
0.760442 0.211047 0
0.751547 0.162356 0
0.798298 0.179 0
0.807147 0.227866 0
0.845136 0.195775 0
0.854541 0.243285 0
0.892163 0.212344 0
0.902461 0.257947 0
0.93935 0.228684 0
0.930236 0.180167 0
0.977229 0.197066 0
0.986264 0.245777 0
1.02423 0.213991 0
1.0331 0.263172 0
1.07123 0.230975 0
1.06234 0.181814 0
1.10938 0.198721 0
1.09996 0.151012 0
1.14691 0.168161 0
1.15631 0.215921 0
1.19446 0.183678 0
1.20343 0.232645 0
1.2416 0.200322 0
1.23272 0.151117 0
1.2798 0.167954 0
1.28868 0.217167 0
1.32685 0.184862 0
1.33573 0.234064 0
1.3739 0.201768 0
0.789327 0.130094 0
1.38279 0.25097 0
1.42096 0.218674 0
1.41207 0.169471 0
1.45912 0.186378 0
1.46801 0.235581 0
1.50618 0.203285 0
1.51506 0.252489 0
1.55323 0.220192 0
1.54435 0.170989 0
1.5914 0.187896 0
1.60029 0.2371 0
1.63846 0.204803 0
1.64734 0.254007 0
1.68551 0.221711 0
1.67663 0.172507 0
1.72368 0.189415 0
1.73831 0.241548 0
1.77074 0.206322 0
1.76185 0.157121 0
1.8091 0.17428 0
1.81866 0.220885 0
1.85608 0.190621 0
1.86521 0.238879 0
1.90289 0.207671 0
1.91264 0.253772 0
1.94955 0.224093 0
1.94067 0.17593 0
1.98705 0.192828 0
1.99572 0.240997 0
2.0329 0.209382 0
2.02422 0.16161 0
2.04166 0.257286 0
0.419739 0.142889 0
0.968291 0.148058 0
0.310035 0.202211 0
0.316128 0.230863 0
0.658501 0.130052 0
0.685107 0.27445 0
1.34462 0.283266 0
1.16528 0.264896 0
1.84735 0.142081 0
0.557687 0.270604 0
1.21234 0.281769 0
1.58252 0.138692 0
0.533563 0.131933 0
0.489835 0.120004 0
1.45024 0.137174 0
2.06974 0.17785 0
2.06113 0.130713 0
0.283221 0.152215 0
0.921299 0.131169 0
0.343836 0.24295 0
0.319203 0.260002 0
0.235529 0.249617 0
0.347029 0.274099 0
0.291856 0.246297 0
0.295938 0.27548 0
0.272836 0.264931 0
0.27461 0.290522 0
0.251228 0.280224 0
0.253903 0.305808 0
0.232795 0.296709 0
0.298805 0.304058 0
1.0801 0.280176 0
1.47689 0.284785 0
1.05315 0.133468 0
1.09741 0.0970974 0
1.82427 0.272867 0
1.2701 0.118911 0
0.816337 0.277695 0
1.40432 0.121101 0
1.04244 0.320388 0
0.959305 0.103028 0
1.60923 0.286151 0
0.601674 0.286775 0
2.00739 0.280923 0
0.342592 0.0992796 0
0.375237 0.105729 0
1.52511 0.298716 0
1.53114 0.119823 0
0.733824 0.287256 0
0.613372 0.114719 0
0.645558 0.0838585 0
2.015 0.115858 0
1.22718 0.0994086 0
1.39166 0.29817 0
1.3564 0.329754 0
0.744134 0.11556 0
0.782853 0.0841771 0
0.826899 0.10047 0
1.17418 0.314034 0
0.520902 0.0906676 0
1.4967 0.329429 0
1.26048 0.0740437 0
0.365514 0.0716355 0
0.229836 0.121666 0
1.57453 0.09137 0
1.61938 0.110761 0
0.481716 0.0753791 0
0.14093 0.2 0
0.130041 0.192847 0
0.131507 0.178608 0
0.117165 0.184444 0
0.120761 0.164701 0
0.1156 0.199931 0
0.100804 0.174136 0
0.102545 0.153034 0
0.12169 0.143342 0
0.104604 0.13008 0
0.0809304 0.161171 0
0.128077 0.121858 0
0.106825 0.102278 0
0.082498 0.188728 0
0.0314738 0.158621 0
2.04625 0.310891 0
2.08475 0.27479 0
2.11394 0.138117 0
0.233149 0.151108 0
0.258724 0.193613 0
0.268522 0.184917 0
1.65397 0.301059 0
0.145962 0.224912 0
0.132503 0.222267 0
0.13746 0.236947 0
0.120111 0.233525 0
0.126593 0.25219 0
0.105294 0.247497 0
0.113343 0.26868 0
0.133997 0.271734 0
0.121622 0.292031 0
0.147069 0.292141 0
0.0896563 0.267464 0
0.0813699 0.243294 0
0.163574 0.276939 0
0.172694 0.298517 0
0.1583 0.321483 0
0.186823 0.322499 0
0.173113 0.348195 0
0.0322087 0.250839 0
0.211694 0.124337 0
0.250615 0.169546 0
0.256243 0.157787 0
0.170796 0.14736 0
0.156755 0.141654 0
0.17187 0.131161 0
0.147502 0.152323 0
0.198129 0.260662 0
0.206368 0.271663 0
0.220945 0.26864 0
0.190489 0.270628 0
0.198813 0.286731 0
0.55749 0.322277 0
0.520166 0.299321 0
0.235199 0.330709 0
0.267109 0.337524 0
0.172324 0.25256 0
0.255974 0.218859 0
0.268327 0.214994 0
0.184197 0.143083 0
0.188721 0.129954 0
0.209694 0.139146 0
0.269223 0.244007 0
0.252374 0.255244 0
0.282229 0.0410487 0
1.21977 0.330016 0
1.25733 0.296346 0
2.09358 0.0890819 0
0.244373 0.240984 0
0.0838116 0.115786 0
0.0797544 0.0817835 0
0.237449 0.264854 0
0.247178 0.146225 0
0.270136 0.2 0
0.28023 0.191334 0
0.263476 0.170737 0
0.371486 0.368728 0
0.396124 0.330051 0
0.440314 0.325693 0
0.357693 0.329668 0
0.476576 0.362035 0
0.29587 0.222914 0
0.307627 0.175476 0
0.079599 0.0406461 0
0.146062 0.252571 0
0.15162 0.125025 0
0.417223 0.294608 0
0.457089 0.286958 0
0.036619 0.338729 0
0.0713014 0.322193 0
0.0735823 0.36704 0
0.041143 0.0722223 0
0.693501 0.32349 0
0.145406 0.175484 0
0.138777 0.164467 0
0.300367 0.0698839 0
0.167025 0.112083 0
0.146978 0.105544 0
0.151909 0.236762 0
0.444611 0.106436 0
0.909355 0.0817561 0
0.282901 0.370713 0
1.61474 0.330739 0
0.578053 0.368179 0
0.824695 0.0487848 0
2.09634 0.3213 0
2.02276 0.364865 0
2.12532 0.363702 0
1.09789 0.328757 0
0.161137 0.260089 0
2.07793 0.225752 0
2.12079 0.240944 0
2.0747 0.0437362 0
1.89402 0.158846 0
1.93154 0.128738 0
1.8848 0.111477 0
1.8384 0.0926484 0
1.87744 0.0655304 0
1.7913 0.0793874 0
1.9712 0.046671 0
1.92502 0.366682 0
1.94563 0.325156 0
1.89941 0.326645 0
1.87499 0.367178 0
1.84989 0.323491 0
1.7997 0.321303 0
1.77183 0.280326 0
1.75031 0.321965 0
1.77491 0.365615 0
2.11727 0.191885 0
0.883187 0.163467 0
1.71449 0.140266 0
1.667 0.125342 0
1.70591 0.0884759 0
1.67732 0.042286 0
1.52278 0.370513 0
1.37512 0.04128 0
1.34848 0.0834574 0
0.776093 0.367587 0
1.125 0.0433013 0
1.15 0.0866019 0
1.07442 0.0496847 0
0.974527 0.0370837 0
1.47464 0.0427918 0
1.44953 0.0873752 0
1.17595 0.362984 0
1.025 0.366699 0
0.925007 0.367031 0
0.95 0.323404 0
0.897321 0.326356 0
0.874563 0.367261 0
0.846552 0.324465 0
1.62923 0.156667 0
1.32319 0.13033 0
1.69342 0.270472 0
1.49568 0.156227 0
1.56237 0.268721 0
1.44 0.319169 0
1.43005 0.267892 0
1.36502 0.152565 0
0.993446 0.294003 0
1.30179 0.321101 0
1.18235 0.127964 0
1.25016 0.2491 0
1.29638 0.266841 0
1.11824 0.247967 0
1.12945 0.294699 0
1.01527 0.165035 0
0.836192 0.147197 0
1.4998 0.0831488 0
1.00655 0.118664 0
0.872896 0.117126 0
0.70523 0.146383 0
1.96013 0.276645 0
0.769406 0.257102 0
0.699552 0.0908977 0
2.1587 0.162257 0
1.97813 0.145326 0
0.646036 0.302035 0
0.799423 0.326603 0
0.515621 0.255445 0
1.72538 0.366474 0
1.97009 0.0998346 0
1.57108 0.313772 0
0.577925 0.14549 0
0.638911 0.256447 0
0.407352 0.0771641 0
0.525103 0.042511 0
0.674231 0.370698 0
1.69802 0.321701 0
0.56947 0.0908728 0
1.75459 0.110239 0
1.80084 0.126127 0
0.673535 0.0431435 0
1.57391 0.0465733 0
2.04571 0.0828469 0
0.10002 0.225545 0
0.0788152 0.21577 0
0.369719 0.224393 0
0.210352 0.308739 0
1.22342 0.0432967 0
[...]
CELL_DATA 1241
VECTORS velocity double
1.01358 -0.00407044 0.0
1.21732 0.0664965 0.0
0.445081 -0.00175815 0.0
0.944165 0.00194651 0.0
1.0443 0.00558486 0.0
1.42286 0.103162 0.0
1.1351 0.000322409 0.0
0.979105 -0.000696755 0.0
0.363161 0.0158269 0.0
1.17965 0.00149596 0.0
1.31247 -0.119983 0.0
1.31627 0.126544 0.0
0.865763 -0.160595 0.0
1.01577 0.00855108 0.0
0.991655 0.00645755 0.0
1.46636 -0.0328901 0.0
0.980059 0.000551514 0.0
0.479612 0.0603817 0.0
1.17286 0.0623731 0.0
1.64766 -0.254206 0.0
1.02155 0.00396779 0.0
1.05945 -0.0663143 0.0
1.03831 -0.000184715 0.0
1.25311 0.904907 0.0
1.07096 -0.00228983 0.0
1.02468 0.00227287 0.0
1.29898 -0.199439 0.0
1.07638 -0.0253995 0.0
1.32175 -0.0836642 0.0
1.46243 -0.0649146 0.0
1.33199 0.0902547 0.0
0.868365 -0.0368799 0.0
1.52046 0.00269679 0.0
1.01439 0.00681906 0.0
1.25685 -0.0565394 0.0
1.35889 0.156967 0.0
1.21282 -0.0553572 0.0
1.05041 -0.167832 0.0
0.359562 0.020505 0.0
1.3822 0.141364 0.0
1.76449 -0.179818 0.0
1.41326 -0.045454 0.0
1.05282 -0.237189 0.0
0.500223 0.0064971 0.0
1.39921 -0.167242 0.0
0.496175 -0.00788391 0.0
1.20156 0.0990176 0.0
1.11543 0.0257765 0.0
1.61301 -0.313114 0.0
1.23968 -0.0104574 0.0
1.21539 0.0010148 0.0
1.29083 -0.417497 0.0
0.869518 -0.00364008 0.0
1.40874 -0.0823384 0.0
1.77523 -0.279619 0.0
1.51901 -0.0286823 0.0
1.15115 -0.0399315 0.0
1.12723 -6.03139e-05 0.0
1.65841 -0.0991018 0.0
1.68773 -0.199378 0.0
1.15855 0.847309 0.0
0.993461 -2.25524e-05 0.0
0.195562 0.0358055 0.0
1.0275 0.00647306 0.0
-0.240022 0.0714472 0.0
1.33192 0.227579 0.0
-0.279601 0.086181 0.0
1.16817 -0.00222184 0.0
0.863388 -0.0258711 0.0
0.218167 0.0244229 0.0
1.16883 -0.00593693 0.0
0.793421 0.0141544 0.0
1.16771 -0.00549436 0.0
0.791701 -0.0137022 0.0
1.2079 0.00696289 0.0
0.881296 0.157088 0.0
0.942989 0.00727446 0.0
1.63144 -0.0465213 0.0
0.979807 -0.0346032 0.0
0.613622 0.00122623 0.0
1.75194 -0.383014 0.0
1.1597 -0.246734 0.0
0.658672 0.0118588 0.0
1.26147 -0.227374 0.0
1.34581 0.170069 0.0
0.919412 -0.0667456 0.0
1.2069 0.178018 0.0
0.0860434 0.098441 0.0
1.83884 0.530394 0.0
1.19338 0.00297529 0.0
1.2721 0.0102128 0.0
-0.189664 -0.0110338 0.0
-0.348006 0.0782865 0.0
1.44322 -0.0646153 0.0
1.18242 -0.0406368 0.0
0.984375 0.0014355 0.0
0.849225 -0.0258287 0.0
-0.184465 0.0905965 0.0
1.01859 -0.011358 0.0
-0.244277 0.112549 0.0
1.08214 -0.0985571 0.0
1.15936 -0.0151737 0.0
0.947608 0.00263004 0.0
1.63916 -0.161268 0.0
1.74235 -0.670641 0.0
1.27316 -0.397902 0.0
1.0713 -0.0619516 0.0
0.498257 -0.0236674 0.0
1.78799 0.649657 0.0
1.2258 0.00319626 0.0
1.48539 -0.109172 0.0
1.23091 0.189658 0.0
0.13161 0.075996 0.0
1.44146 -0.0270014 0.0
1.08015 0.0148764 0.0
1.44262 0.0400893 0.0
1.41411 0.00474455 0.0
1.39196 0.0529622 0.0
1.06653 -0.00210626 0.0
0.255288 0.0396959 0.0
1.1901 0.0421874 0.0
1.51966 0.581805 0.0
1.2516 0.108205 0.0
0.919986 -0.0634838 0.0
0.726812 -0.0993244 0.0
1.20472 0.0860117 0.0
1.44707 -0.0429164 0.0
1.11893 0.0244822 0.0
1.74956 0.501393 0.0
0.549919 -0.0713179 0.0
1.16618 -0.0152763 0.0
0.622393 -0.00176819 0.0
0.885951 0.0638851 0.0
1.6033 -0.0216131 0.0
1.01943 -0.153218 0.0
-0.276055 0.0745676 0.0
0.123164 0.0625486 0.0
1.22674 0.0821947 0.0
1.04872 -0.0252331 0.0
1.66382 -0.761311 0.0
1.50088 0.00357337 0.0
1.03563 0.00601702 0.0
1.07835 -0.245055 0.0
1.00501 0.00698528 0.0
1.5235 0.00720109 0.0
0.0223179 0.0311594 0.0
-0.254476 0.0380632 0.0
-0.182769 0.00601607 0.0
0.642481 0.0153386 0.0
0.653713 -0.0117162 0.0
0.555345 -0.101533 0.0
1.03495 -0.00709323 0.0
1.79633 -0.332613 0.0
1.04784 -0.153371 0.0
1.20282 -0.0491844 0.0
1.20456 0.0544229 0.0
0.481497 -0.0011249 0.0
1.64365 0.0738479 0.0
0.857104 0.030356 0.0
1.24854 -0.0569614 0.0
-0.230504 0.0469695 0.0
1.74047 0.446512 0.0
1.14275 0.00839865 0.0
1.22204 -0.204902 0.0
1.14322 0.0340814 0.0
1.05422 0.130245 0.0
0.9818 -0.000216285 0.0
0.987063 0.109857 0.0
0.567195 -0.00354876 0.0
1.17136 -0.0339689 0.0
0.929277 -0.0246578 0.0
1.23602 0.00339876 0.0
1.36547 0.26555 0.0
1.19115 0.0865799 0.0
1.10475 0.00559694 0.0
1.11568 0.00638233 0.0
1.18261 0.198718 0.0
1.12009 -0.287607 0.0
1.1139 0.0120838 0.0
1.16602 -0.225277 0.0
1.11909 0.00902574 0.0
0.363093 0.11023 0.0
1.08768 -0.644368 0.0
0.730584 -0.127093 0.0
1.02541 -0.00853292 0.0
0.765705 -0.0789966 0.0
0.762229 -0.0636711 0.0
1.0277 0.00773651 0.0
1.05545 0.0959235 0.0
0.461056 0.0470131 0.0
0.889592 -0.829901 0.0
1.77863 0.345104 0.0
1.02838 -0.00209034 0.0
0.984376 0.00668694 0.0
0.667352 0.0602331 0.0
0.852967 0.0568986 0.0
0.397738 0.0590101 0.0
0.998288 -0.0147594 0.0
1.42771 -0.0322272 0.0
1.44964 0.581448 0.0
1.15458 0.193116 0.0
1.06922 -0.0135376 0.0
1.42685 0.038403 0.0
1.0416 -0.0922771 0.0
1.40113 -0.0914498 0.0
1.436 -0.0446927 0.0
0.48321 0.0244007 0.0
0.662592 0.0125588 0.0
0.900085 -0.0227404 0.0
0.857851 0.0334942 0.0
0.515189 0.0170156 0.0
0.514443 -0.00308403 0.0
1.79011 0.286532 0.0
1.11162 0.0117996 0.0
1.44069 -0.00354829 0.0
1.12127 0.0122318 0.0
0.731473 -0.0773532 0.0
1.51123 -0.0906503 0.0
1.17569 -0.0304989 0.0
1.16403 -0.0133577 0.0
0.833097 -0.0495833 0.0
1.67135 -0.0705447 0.0
1.01024 0.0553504 0.0
0.99618 0.0113657 0.0
0.958881 -0.0261617 0.0
1.23431 0.00237901 0.0
1.43555 -0.137295 0.0
1.7298 -0.60087 0.0
1.18408 -0.00553952 0.0
1.20299 -0.0111717 0.0
0.990967 0.000183012 0.0
1.06355 -0.132777 0.0
1.02962 -0.0101828 0.0
0.998014 -0.00670711 0.0
1.25791 0.310859 0.0
1.03831 -0.256621 0.0
1.09395 0.171519 0.0
1.31881 0.132379 0.0
0.743572 -0.106675 0.0
0.355088 -0.0454554 0.0
0.958911 0.0159443 0.0
1.4387 0.0570259 0.0
1.42203 0.918329 0.0
0.682938 -0.0851896 0.0
1.152 -0.0176123 0.0
1.70423 0.140349 0.0
1.09691 -0.89856 0.0
0.868425 -0.177617 0.0
1.14138 -0.0374717 0.0
0.560015 -0.00854357 0.0
1.02623 0.0270772 0.0
0.544257 -0.00983517 0.0
1.0324 -0.00491901 0.0
1.22695 0.00280787 0.0
0.616381 -0.0119023 0.0
0.775965 -0.0336552 0.0
1.09484 -0.285471 0.0
1.32612 -0.104555 0.0
1.22454 0.000512461 0.0
1.02013 -0.00177829 0.0
1.00254 0.00805289 0.0
0.50801 -0.00589529 0.0
1.22809 0.00564538 0.0
0.737053 -0.0260445 0.0
1.12814 0.0434406 0.0
0.99489 -0.00969132 0.0
0.567215 0.00326606 0.0
1.24092 -0.109872 0.0
1.22737 -0.170976 0.0
0.789617 -0.026619 0.0
1.13954 -0.0652437 0.0
0.582866 0.00178429 0.0
0.983622 -0.0155642 0.0
0.116331 0.0673517 0.0
1.20256 0.000210025 0.0
1.19756 -0.0106243 0.0
0.593103 -0.00393853 0.0
0.942497 -0.194211 0.0
0.988006 -0.0155842 0.0
1.43 0.154407 0.0
1.19926 0.00054638 0.0
1.23529 -0.00155896 0.0
1.22356 -0.170782 0.0
1.23633 -0.00297805 0.0
1.2355 0.00077534 0.0
1.17131 -0.016925 0.0
0.934706 -0.114502 0.0
0.835802 0.042868 0.0
1.23587 -0.00509454 0.0
1.23356 -0.000803355 0.0
1.22871 -0.00190209 0.0
0.634939 0.0705002 0.0
0.455332 0.0048597 0.0
0.99843 0.00989739 0.0
0.54366 -0.00751111 0.0
1.23411 -0.00572709 0.0
1.00311 -0.0184312 0.0
1.16358 0.00984925 0.0
-0.26136 -0.0268114 0.0
0.966619 -0.0124565 0.0
0.499504 -0.00489875 0.0
1.31887 -0.604719 0.0
1.12252 -0.0069631 0.0
0.971099 -0.0161895 0.0
0.524821 -0.0102797 0.0
1.23427 -0.00332431 0.0
0.8685 0.0407279 0.0
0.530916 0.00170349 0.0
0.993448 -0.0156781 0.0
1.23426 -0.00566191 0.0
1.22749 -0.00265824 0.0
1.23295 -0.00343933 0.0
0.61982 -0.00699251 0.0
0.443807 -0.000100971 0.0
1.2313 -0.00641665 0.0
1.14149 -0.0734143 0.0
1.2055 -0.00706088 0.0
0.601624 0.0101216 0.0
1.18542 -0.00789971 0.0
1.22514 -0.00597913 0.0
1.2123 0.00103804 0.0
1.23637 -0.00734636 0.0
0.465487 -0.00688946 0.0
1.22945 -0.00634471 0.0
1.23121 -0.00674625 0.0
1.22093 -0.00670097 0.0
0.454777 -0.00395626 0.0
1.21775 -0.00325553 0.0
1.18361 -0.00588623 0.0
1.20221 -0.000983633 0.0
1.23366 -0.00745336 0.0
1.17039 -0.157833 0.0
1.12958 0.00163994 0.0
1.23467 -0.00738038 0.0
1.35089 0.668536 0.0
1.2183 -0.0063415 0.0
0.508591 -0.00711152 0.0
1.09781 -0.0219639 0.0
0.562354 0.00822607 0.0
0.595215 -0.00930139 0.0
1.11693 0.00695064 0.0
1.09777 -0.0122096 0.0
1.07159 -0.0076132 0.0
0.533647 -0.00800387 0.0
1.10359 -0.0216283 0.0
1.12375 0.00553986 0.0
1.23176 -0.00774525 0.0
1.07369 0.138963 0.0
1.15505 -0.696806 0.0
0.564134 -0.00465916 0.0
0.522212 -0.0053543 0.0
1.22689 -0.00569907 0.0
1.22859 -0.00811434 0.0
0.62026 -0.0183587 0.0
0.510393 -0.00924939 0.0
1.22406 -0.00491864 0.0
0.992644 0.0164762 0.0
1.16042 0.0113816 0.0
1.15558 -0.00740336 0.0
0.567714 0.00729057 0.0
0.519301 -0.00214102 0.0
1.14338 0.0171663 0.0
0.603845 0.0141333 0.0
0.56981 0.0146027 0.0
1.17276 0.00901513 0.0
0.620566 0.0206806 0.0
0.572492 -0.000753191 0.0
1.21416 -0.00397243 0.0
1.20147 -0.00302118 0.0
0.962304 0.0163339 0.0
1.21013 -0.00163472 0.0
1.18233 -0.00167341 0.0
1.21805 -0.00295052 0.0
0.983168 0.012578 0.0
1.15184 -0.00233697 0.0
0.608472 0.00580514 0.0
0.502094 0.013973 0.0
0.55194 0.0142278 0.0
0.467047 -0.00787926 0.0
0.533269 0.000936701 0.0
0.557389 -0.00532104 0.0
0.52812 -0.00282043 0.0
0.640458 -0.0137759 0.0
0.540498 -0.0043838 0.0
0.575189 0.013374 0.0
0.486714 -0.00758384 0.0
0.576983 0.015488 0.0
0.493815 0.000229617 0.0
0.679192 0.0213017 0.0
0.578773 0.0100522 0.0
0.572736 -0.0114552 0.0
0.489301 0.00281479 0.0
0.528585 -0.00223248 0.0
0.510153 0.00790543 0.0
0.612523 -0.00973547 0.0
0.532686 -0.000659955 0.0
0.601829 -0.00763613 0.0
0.559777 -0.0123444 0.0
0.545903 0.00675085 0.0
0.523683 0.000122048 0.0
0.538864 0.004196 0.0
0.475825 -0.0169899 0.0
0.4934 0.0196976 0.0
0.495088 0.000540235 0.0
0.55735 -0.00714281 0.0
0.494708 0.00307317 0.0
0.646509 -0.0210526 0.0
0.492931 0.00632069 0.0
0.46402 0.005656 0.0
0.504061 0.0010466 0.0
0.482389 -0.00258435 0.0
1.18062 -0.000895335 0.0
1.16137 -0.0063478 0.0
1.22665 -0.00732677 0.0
1.22416 -0.00492836 0.0
1.22735 -0.00516063 0.0
1.11966 -0.00799625 0.0
1.1978 -0.00706804 0.0
1.17908 -0.00683471 0.0
1.1815 0.00484082 0.0
1.15418 -0.0010642 0.0
1.21031 -0.00797477 0.0
1.21302 -0.00873082 0.0
1.17487 -0.0066934 0.0
1.21916 -0.00358672 0.0
1.19513 -0.000143795 0.0
1.22089 -0.00606976 0.0
1.19382 -0.00726381 0.0
1.15204 0.00196217 0.0
1.21717 -0.00616999 0.0
1.22222 -0.00414536 0.0
1.2073 -0.000718341 0.0
1.22086 -0.00346296 0.0
1.21676 -0.00484874 0.0
1.15632 -0.008987 0.0
1.22006 -0.00171185 0.0
1.19725 -0.0034038 0.0
1.21702 -0.00109983 0.0
1.12076 -0.00154977 0.0
1.19907 -0.00243212 0.0
1.19128 0.00203458 0.0
1.21177 -0.00137129 0.0
1.17548 -0.00155466 0.0
1.21186 -0.00232436 0.0
1.2151 -0.00237431 0.0
1.18486 0.00453135 0.0
1.21522 -0.00131827 0.0
1.2078 -0.00413389 0.0
1.20981 0.000757072 0.0
1.15253 -0.00842581 0.0
1.17732 -0.0025618 0.0
1.21292 0.000528141 0.0
1.20518 -0.00341759 0.0
1.2014 0.00232989 0.0
1.19828 0.00374173 0.0
1.15993 -0.0125228 0.0
1.20991 0.000505213 0.0
1.20639 0.000868882 0.0
1.13784 -0.00601565 0.0
1.19305 -0.00436572 0.0
1.12199 0.00309021 0.0
1.17904 -0.00438717 0.0
1.18894 -0.00395217 0.0
1.20095 -0.0036475 0.0
1.2067 -0.00123925 0.0
1.17481 -0.00449831 0.0
1.20461 -0.0034702 0.0
1.20284 -0.00100003 0.0
1.20456 0.000557329 0.0
1.20083 0.0031403 0.0
1.19738 0.00345647 0.0
1.19434 0.00370837 0.0
1.18339 0.00603925 0.0
1.13595 -0.00637865 0.0
1.0939 0.00787938 0.0
1.17807 0.00708951 0.0
1.20051 0.000939075 0.0
0.577311 -0.00615529 0.0
1.18688 0.00600449 0.0
1.1479 0.00758667 0.0
1.1698 0.00791612 0.0
1.19825 0.00307545 0.0
1.16739 0.00758325 0.0
1.17735 0.00565692 0.0
1.1703 0.00027234 0.0
1.18936 0.00546344 0.0
1.17726 -0.000802432 0.0
1.1336 -0.00529649 0.0
1.13327 -0.00813345 0.0
1.15644 -0.00485192 0.0
1.18581 0.0066864 0.0
1.1741 -0.00414583 0.0
1.18417 0.0034283 0.0
1.16771 -0.00401951 0.0
1.18447 -0.0039428 0.0
1.1881 0.00287084 0.0
1.1814 0.00590864 0.0
0.979244 -0.0144317 0.0
1.1722 -0.00359867 0.0
1.1741 0.0078176 0.0
1.14508 0.00911472 0.0
1.18929 -0.00235376 0.0
1.19289 0.000238202 0.0
1.08304 -0.0175738 0.0
1.16453 0.010933 0.0
1.17813 -0.00355096 0.0
1.14658 0.0149272 0.0
1.18855 -1.83837e-06 0.0
1.14956 0.0176036 0.0
1.16707 -0.00432754 0.0
1.19288 -0.00231282 0.0
1.17389 -0.00105582 0.0
1.11937 0.176577 0.0
1.15244 -0.00730442 0.0
1.2233 -0.0096984 0.0
1.16998 0.00950823 0.0
1.1744 0.0012258 0.0
1.15713 -0.0133224 0.0
1.16068 -0.00347424 0.0
1.13918 -0.0029571 0.0
1.16098 -0.00943293 0.0
1.16663 0.00275876 0.0
1.14069 -0.00107763 0.0
1.16165 0.00243596 0.0
1.16319 -0.00670413 0.0
1.16314 -0.00275383 0.0
1.14873 0.01198 0.0
1.15913 -0.00509936 0.0
0.718779 -0.0204958 0.0
0.972489 0.00525934 0.0
1.14423 0.0142423 0.0
1.14678 0.00948475 0.0
1.15394 -0.00755267 0.0
1.14113 0.0118704 0.0
1.14751 0.0143092 0.0
1.1439 -0.00223613 0.0
1.12653 0.000969047 0.0
1.13887 -0.00300734 0.0
1.13243 0.00105161 0.0
1.12072 0.012055 0.0
1.15702 0.00575408 0.0
1.15139 0.00859649 0.0
0.995498 0.00896947 0.0
1.1525 0.00595162 0.0
1.15697 0.0116504 0.0
1.14992 0.0120861 0.0
1.11412 0.0151606 0.0
1.13582 0.0156206 0.0
1.15386 0.0126022 0.0
1.73544 0.181698 0.0
1.1189 -0.0103941 0.0
1.12694 0.0192214 0.0
1.09921 -0.0220962 0.0
1.1493 0.0217582 0.0
1.14724 0.0160785 0.0
1.11265 -0.0127604 0.0
1.14621 0.0218886 0.0
1.22424 -0.00658647 0.0
1.07025 -0.00950416 0.0
1.09909 0.0151908 0.0
1.0962 -0.00678155 0.0
1.30725 0.125985 0.0
1.21958 -0.00539171 0.0
1.08439 -0.00203611 0.0
1.15548 -0.00733587 0.0
1.13984 0.0281009 0.0
1.14653 0.0223602 0.0
1.08882 -0.00841335 0.0
1.09343 -0.0271564 0.0
0.981235 -0.0161777 0.0
1.19562 -0.00207929 0.0
1.06632 0.000718562 0.0
1.07587 0.000253469 0.0
1.12035 0.024668 0.0
1.12047 -0.0265489 0.0
1.02973 0.198339 0.0
0.961163 -0.0161491 0.0
1.13604 0.033727 0.0
0.441963 -0.164339 0.0
1.38221 0.131356 0.0
1.18136 -0.0520325 0.0
1.06405 0.0102968 0.0
1.06537 0.0257002 0.0
1.05368 0.0363789 0.0
1.2207 -0.00246959 0.0
1.05166 0.014335 0.0
1.03729 -0.043978 0.0
1.30216 0.175953 0.0
1.00309 -0.142365 0.0
1.03246 -0.0577135 0.0
1.15145 -0.133248 0.0
1.14959 -0.013137 0.0
1.09494 -0.0479617 0.0
1.18199 -0.00337904 0.0
0.936019 0.00179685 0.0
1.18097 0.0539723 0.0
1.00752 -0.0138243 0.0
1.2379 -0.101724 0.0
1.21807 -0.00557802 0.0
1.20552 -0.00637728 0.0
1.0547 -0.0199059 0.0
1.39837 -0.567472 0.0
1.13224 0.0834144 0.0
0.994334 -0.0201985 0.0
1.1324 0.0668593 0.0
0.956444 0.00151737 0.0
0.758508 0.0280656 0.0
1.08928 0.0449151 0.0
1.32725 -0.160587 0.0
0.932915 -0.0907408 0.0
1.0984 -0.0395098 0.0
0.632624 -0.556518 0.0
1.11095 -0.0278976 0.0
1.11695 -0.00748228 0.0
1.15427 -0.00792298 0.0
1.39117 -0.139333 0.0
1.08 0.0600208 0.0
1.18201 -0.00257247 0.0
1.04665 -0.026153 0.0
1.16339 0.0361086 0.0
0.989955 -0.018387 0.0
1.34994 -0.771789 0.0
1.22988 0.00437382 0.0
1.17962 0.0513719 0.0
1.20414 0.00276433 0.0
1.12712 -0.000818759 0.0
1.18049 -0.0564195 0.0
1.06591 0.0201063 0.0
1.21089 0.0813949 0.0
1.12241 -0.00751973 0.0
1.1589 0.0440717 0.0
0.954376 0.00188756 0.0
1.1538 0.0109845 0.0
1.1805 -0.531636 0.0
0.660148 -0.00600409 0.0
0.68162 -0.0231017 0.0
0.924424 0.0271123 0.0
1.26622 0.119629 0.0
1.15325 -0.00586614 0.0
1.18208 -0.00463529 0.0
0.607792 0.0101487 0.0
1.20243 -0.00554487 0.0
0.327819 -0.123517 0.0
1.0731 -0.0991668 0.0
0.549594 0.00940444 0.0
0.556245 -0.0106837 0.0
0.89906 0.0402907 0.0
1.1584 -0.00645843 0.0
0.863952 -0.174347 0.0
0.845795 -0.0254207 0.0
1.68893 -0.125104 0.0
0.941767 0.0373786 0.0
1.153 -0.0104729 0.0
1.15357 -0.0119447 0.0
1.05393 0.00863598 0.0
1.22677 0.00337132 0.0
1.18052 0.0012033 0.0
1.18511 0.348336 0.0
0.621155 0.0172976 0.0
1.02164 0.00185121 0.0
1.36964 -0.0978054 0.0
0.539102 0.00766367 0.0
1.58076 0.560949 0.0
0.933483 -0.0417166 0.0
0.795965 -0.026648 0.0
1.34142 0.0881321 0.0
0.781554 -0.0538034 0.0
0.956574 -0.00144985 0.0
0.668377 -0.116125 0.0
1.155 -0.0167735 0.0
0.881022 0.099665 0.0
1.13489 -0.0143676 0.0
0.658423 -0.00413353 0.0
1.03086 0.00539643 0.0
0.980304 0.136233 0.0
1.4094 -0.0326301 0.0
0.522627 -0.00359968 0.0
0.636161 -0.0245602 0.0
0.918747 0.805446 0.0
1.1105 -0.000820273 0.0
1.0519 0.0115733 0.0
1.39257 0.0136444 0.0
0.603065 -0.0104448 0.0
1.13145 0.0183768 0.0
1.16664 -0.448606 0.0
0.186485 0.0223942 0.0
0.924789 -0.0632285 0.0
1.06999 -0.083246 0.0
0.735724 0.0239199 0.0
0.518761 0.0178355 0.0
1.64904 0.0364205 0.0
1.15519 -0.00481163 0.0
0.311488 0.0152322 0.0
0.571275 0.0249171 0.0
1.14463 -0.00588758 0.0
1.20429 -0.0059183 0.0
1.00335 -0.0190698 0.0
0.937664 0.0623683 0.0
1.20929 0.172607 0.0
0.641119 0.0107734 0.0
1.20811 0.00712266 0.0
0.919207 0.0928301 0.0
1.21031 -0.00912892 0.0
1.38798 -0.59346 0.0
0.510924 0.00132408 0.0
1.45936 -0.129844 0.0
1.10994 0.00852401 0.0
0.94845 -0.0141482 0.0
0.621606 0.0903365 0.0
0.99101 0.10183 0.0
0.897477 0.139874 0.0
1.1126 0.00999267 0.0
1.21812 -0.0579256 0.0
1.39921 -0.036934 0.0
0.588078 0.00497991 0.0
0.612073 0.0149493 0.0
1.07281 -0.003629 0.0
0.404543 -0.0728945 0.0
1.04413 0.036566 0.0
0.493881 0.00339215 0.0
0.961661 -0.0112848 0.0
1.11146 -0.00431202 0.0
0.939481 -0.00923948 0.0
0.559539 -0.00666003 0.0
0.558376 0.0187589 0.0
0.569325 0.00957454 0.0
0.507377 0.00703858 0.0
0.588476 0.0113638 0.0
1.21071 0.669601 0.0
1.36093 0.0696085 0.0
0.966733 -0.0033276 0.0
0.5357 0.00828195 0.0
0.547163 -0.0125852 0.0
0.700154 0.0249122 0.0
1.1571 -0.0473943 0.0
0.620148 0.00105352 0.0
1.60376 -0.19311 0.0
1.29619 0.0954221 0.0
0.536788 -0.14069 0.0
1.3456 -0.0935778 0.0
1.5268 -0.466861 0.0
1.01125 0.00543735 0.0
1.09174 0.0184322 0.0
1.13952 -0.0121123 0.0
0.959863 0.00373935 0.0
0.837044 -0.689204 0.0
1.02863 -0.00188825 0.0
0.981069 -0.00591736 0.0
1.20484 -0.0133382 0.0
1.12292 -0.0340195 0.0
1.64832 -0.000108613 0.0
-0.120969 0.0977111 0.0
0.506199 -0.0686989 0.0
1.33616 0.518186 0.0
1.07236 -0.0118944 0.0
0.609616 -0.0119912 0.0
0.580731 -0.00574293 0.0
0.575414 -0.00615388 0.0
1.22812 0.00530089 0.0
0.633508 0.211183 0.0
1.17446 -0.0243175 0.0
0.977513 0.0128085 0.0
0.751026 0.162988 0.0
1.12536 -0.0011551 0.0
0.137892 -0.00964885 0.0
1.19388 0.00528387 0.0
0.566701 0.0207228 0.0
0.564613 -0.0105089 0.0
1.33995 0.085448 0.0
0.836964 -0.0115825 0.0
1.50626 0.0319547 0.0
0.97484 0.0155685 0.0
0.990548 0.0118873 0.0
0.111265 -0.166267 0.0
0.971062 0.0291078 0.0
1.16851 0.0134719 0.0
1.1518 0.0134679 0.0
0.355829 -0.136109 0.0
1.6163 -0.273239 0.0
1.09524 -0.000772838 0.0
1.28741 0.194935 0.0
0.590236 -0.0142197 0.0
0.556777 -0.0079098 0.0
1.12382 -0.016459 0.0
0.530415 0.0896454 0.0
1.12434 -0.0270057 0.0
0.809848 0.0217331 0.0
0.935822 -0.00822628 0.0
1.13068 0.0121754 0.0
0.994737 -0.00278607 0.0
0.201884 -0.0209015 0.0
1.15041 -0.013643 0.0
0.309738 0.0604691 0.0
1.01004 0.000169788 0.0
0.99938 -0.0035937 0.0
0.576985 -0.0152944 0.0
1.07343 -0.00920747 0.0
1.17446 -0.0245298 0.0
0.947307 0.00135637 0.0
0.992698 -0.0138642 0.0
1.2002 -0.964608 0.0
1.13216 0.0222058 0.0
1.69269 0.486957 0.0
0.549937 -0.0167278 0.0
0.539067 0.00658978 0.0
1.16621 0.00661986 0.0
1.2284 -0.00663702 0.0
1.11452 -0.00835616 0.0
1.12314 -0.00154377 0.0
1.18053 0.00665801 0.0
1.13092 0.00625051 0.0
1.21979 -0.00960122 0.0
1.15072 0.02566 0.0
-0.198497 0.0188097 0.0
1.10402 0.0148539 0.0
-0.0254509 0.0286319 0.0
0.664948 -0.0257206 0.0
1.2044 -0.177403 0.0
1.14893 -0.0127829 0.0
1.36843 -0.137911 0.0
1.64629 -0.50244 0.0
0.314249 -0.0181113 0.0
1.21396 -0.00908701 0.0
1.12901 0.272026 0.0
1.35149 -0.0982101 0.0
1.07137 0.305701 0.0
1.70947 0.0869223 0.0
0.975229 -0.542437 0.0
1.37208 0.132339 0.0
1.12212 -0.0164473 0.0
1.28962 -0.480968 0.0
-0.0874445 -0.108027 0.0
1.06103 -0.000130264 0.0
1.31864 -0.394862 0.0
0.491946 -0.00490028 0.0
1.41867 -0.149983 0.0
1.68465 0.198505 0.0
1.09139 0.0137404 0.0
0.387814 0.0157794 0.0
0.71703 0.00183843 0.0
0.267865 -0.22844 0.0
0.957175 0.0459363 0.0
-0.118773 -0.0298949 0.0
1.14641 -0.162342 0.0
1.49643 0.143669 0.0
0.538003 0.00904292 0.0
1.22934 -0.0686944 0.0
0.964093 0.000890869 0.0
1.21919 0.00448754 0.0
0.435143 -0.615499 0.0
1.22864 0.264385 0.0
0.729124 -0.162515 0.0
0.191332 -0.330916 0.0
0.51744 0.160694 0.0
1.3026 0.238506 0.0
0.597874 0.152165 0.0
0.96996 -0.0130408 0.0
1.14157 -0.0168401 0.0
1.08282 0.0110608 0.0
1.07692 0.00872506 0.0
0.572717 0.00727178 0.0
0.0235344 0.0819989 0.0
1.3083 0.299797 0.0
0.469299 -0.00216094 0.0
1.10135 0.0104177 0.0
0.264443 0.216294 0.0
0.972578 -0.00600299 0.0
1.3975 0.501244 0.0