# vtk DataFile Version 3.0
Malha 2D com triângulos e temperatura
ASCII
DATASET UNSTRUCTURED_GRID

POINTS 688 double
0 0 0
2.2 0 0
2.2 0.41 0
0 0.41 0
0.25 0.2 0
0.05 0 0
0.1 0 0
0.15 0 0
0.2 0 0
0.25 0 0
0.3 0 0
0.35 0 0
0.4 0 0
0.45 0 0
0.5 0 0
0.55 0 0
0.6 0 0
0.65 0 0
0.7 0 0
0.75 0 0
0.8 0 0
0.85 0 0
0.9 0 0
0.95 0 0
1 0 0
1.05 0 0
1.1 0 0
1.15 0 0
1.2 0 0
1.25 0 0
1.3 0 0
1.35 0 0
1.4 0 0
1.45 0 0
1.5 0 0
1.55 0 0
1.6 0 0
1.65 0 0
1.7 0 0
1.75 0 0
1.8 0 0
1.85 0 0
1.9 0 0
1.95 0 0
2 0 0
2.05 0 0
2.1 0 0
2.15 0 0
2.2 0.0455556 0
2.2 0.0911111 0
2.2 0.136667 0
2.2 0.182222 0
2.2 0.227778 0
2.2 0.273333 0
2.2 0.318889 0
2.2 0.364444 0
2.15 0.41 0
2.1 0.41 0
2.05 0.41 0
2 0.41 0
1.95 0.41 0
1.9 0.41 0
1.85 0.41 0
1.8 0.41 0
1.75 0.41 0
1.7 0.41 0
1.65 0.41 0
1.6 0.41 0
1.55 0.41 0
1.5 0.41 0
1.45 0.41 0
1.4 0.41 0
1.35 0.41 0
1.3 0.41 0
1.25 0.41 0
1.2 0.41 0
1.15 0.41 0
1.1 0.41 0
1.05 0.41 0
1 0.41 0
0.95 0.41 0
0.9 0.41 0
0.85 0.41 0
0.8 0.41 0
0.75 0.41 0
0.7 0.41 0
0.65 0.41 0
0.6 0.41 0
0.55 0.41 0
0.5 0.41 0
0.45 0.41 0
0.4 0.41 0
0.35 0.41 0
0.3 0.41 0
0.25 0.41 0
0.2 0.41 0
0.15 0.41 0
0.1 0.41 0
0.05 0.41 0
0 0.364444 0
0 0.318889 0
0 0.273333 0
0 0.227778 0
0 0.182222 0
0 0.136667 0
0 0.0911111 0
0 0.0455556 0
0.248831 0.210749 0
0.245379 0.220994 0
0.239805 0.230259 0
0.232369 0.238108 0
0.22342 0.244176 0
0.213376 0.248177 0
0.202707 0.249927 0
0.191911 0.249341 0
0.181493 0.246449 0
0.171941 0.241384 0
0.1637 0.234385 0
0.157157 0.225778 0
0.152617 0.215965 0
0.150293 0.205406 0
0.150293 0.194594 0
0.152617 0.184035 0
0.157157 0.174222 0
0.1637 0.165615 0
0.171941 0.158616 0
0.181493 0.153551 0
0.191911 0.150659 0
0.202707 0.150073 0
0.213376 0.151823 0
0.22342 0.155824 0
0.232369 0.161892 0
0.239805 0.169741 0
0.245379 0.179006 0
0.248831 0.189251 0
0.421316 0.36725 0
0.426705 0.0366526 0
2.16065 0.209201 0
1.52286 0.0417259 0
0.626017 0.37111 0
1.3257 0.0414552 0
1.02471 0.0432237 0
1.17293 0.0421053 0
0.82501 0.36678 0
1.6757 0.370064 0
1.91628 0.0358195 0
1.82501 0.366432 0
0.723429 0.0421499 0
1.425 0.366699 0
1.97461 0.366224 0
1.12167 0.370137 0
0.975 0.368691 0
0.877672 0.0412714 0
1.27686 0.36884 0
1.725 0.0433013 0
0.579174 0.0416211 0
0.325589 0.363848 0
0.319111 0.0378151 0
0.0394523 0.296111 0
0.0329929 0.11602 0
0.142108 0.187428 0
1.57555 0.364352 0
2.02603 0.0412138 0
0.725007 0.36763 0
0.528647 0.366595 0
1.62699 0.0400272 0
1.82929 0.0421255 0
1.425 0.0418325 0
2.07474 0.364233 0
0.125 0.0433013 0
0.161245 0.155011 0
0.225 0.366699 0
0.210027 0.258536 0
2.16034 0.115449 0
0.0371627 0.204103 0
0.142311 0.212698 0
0.220283 0.0418538 0
0.221965 0.145099 0
0.196802 0.141016 0
0.119851 0.373394 0
0.161112 0.245979 0
0.184892 0.258024 0
2.16342 0.30039 0
2.12627 0.047699 0
0.183325 0.0412617 0
0.152317 0.0762976 0
0.203864 0.0745802 0
0.234384 0.0774346 0
0.215969 0.103585 0
0.245651 0.104548 0
0.186562 0.100216 0
0.268213 0.0793029 0
0.272149 0.109155 0
0.242885 0.159377 0
0.253088 0.128261 0
0.278718 0.13214 0
0.295917 0.115997 0
0.301728 0.138858 0
0.321266 0.12205 0
0.324642 0.151724 0
0.255978 0.181139 0
0.350123 0.129049 0
0.357539 0.159885 0
0.333541 0.181416 0
0.36451 0.19182 0
0.250573 0.230419 0
0.391277 0.169722 0
0.339477 0.212308 0
0.39836 0.205386 0
0.427326 0.18117 0
0.258724 0.206387 0
0.434392 0.219501 0
0.466446 0.193907 0
0.472865 0.243064 0
0.507358 0.209962 0
0.40073 0.238916 0
0.499135 0.1652 0
0.5419 0.179224 0
0.550176 0.22496 0
0.585844 0.194129 0
0.594095 0.240176 0
0.630701 0.209517 0
0.621901 0.162424 0
0.667731 0.178095 0
0.676485 0.226008 0
0.713906 0.194492 0
0.722681 0.242872 0
0.760442 0.211047 0
0.751547 0.162356 0
0.798298 0.179 0
0.807147 0.227866 0
0.845136 0.195775 0
0.854541 0.243285 0
0.892163 0.212344 0
0.902461 0.257947 0
0.93935 0.228684 0
0.930236 0.180167 0
0.977229 0.197066 0
0.986264 0.245777 0
1.02423 0.213991 0
1.0331 0.263172 0
1.07123 0.230975 0
1.06234 0.181814 0
1.10938 0.198721 0
1.09996 0.151012 0
1.14691 0.168161 0
1.15631 0.215921 0
1.19446 0.183678 0
1.20343 0.232645 0
1.2416 0.200322 0
1.23272 0.151117 0
1.2798 0.167954 0
1.28868 0.217167 0
1.32685 0.184862 0
1.33573 0.234064 0
1.3739 0.201768 0
0.789327 0.130094 0
1.38279 0.25097 0
1.42096 0.218674 0
1.41207 0.169471 0
1.45912 0.186378 0
1.46801 0.235581 0
1.50618 0.203285 0
1.51506 0.252489 0
1.55323 0.220192 0
1.54435 0.170989 0
1.5914 0.187896 0
1.60029 0.2371 0
1.63846 0.204803 0
1.64734 0.254007 0
1.68551 0.221711 0
1.67663 0.172507 0
1.72368 0.189415 0
1.73831 0.241548 0
1.77074 0.206322 0
1.76185 0.157121 0
1.8091 0.17428 0
1.81866 0.220885 0
1.85608 0.190621 0
1.86521 0.238879 0
1.90289 0.207671 0
1.91264 0.253772 0
1.94955 0.224093 0
1.94067 0.17593 0
1.98705 0.192828 0
1.99572 0.240997 0
2.0329 0.209382 0
2.02422 0.16161 0
2.04166 0.257286 0
0.419739 0.142889 0
0.968291 0.148058 0
0.310035 0.202211 0
0.316128 0.230863 0
0.658501 0.130052 0
0.685107 0.27445 0
1.34462 0.283266 0
1.16528 0.264896 0
1.84735 0.142081 0
0.557687 0.270604 0
1.21234 0.281769 0
1.58252 0.138692 0
0.533563 0.131933 0
0.489835 0.120004 0
1.45024 0.137174 0
2.06974 0.17785 0
2.06113 0.130713 0
0.283221 0.152215 0
0.921299 0.131169 0
0.343836 0.24295 0
0.319203 0.260002 0
0.235529 0.249617 0
0.347029 0.274099 0
0.291856 0.246297 0
0.295938 0.27548 0
0.272836 0.264931 0
0.27461 0.290522 0
0.251228 0.280224 0
0.253903 0.305808 0
0.232795 0.296709 0
0.298805 0.304058 0
1.0801 0.280176 0
1.47689 0.284785 0
1.05315 0.133468 0
1.09741 0.0970974 0
1.82427 0.272867 0
1.2701 0.118911 0
0.816337 0.277695 0
1.40432 0.121101 0
1.04244 0.320388 0
0.959305 0.103028 0
1.60923 0.286151 0
0.601674 0.286775 0
2.00739 0.280923 0
0.342592 0.0992796 0
0.375237 0.105729 0
1.52511 0.298716 0
1.53114 0.119823 0
0.733824 0.287256 0
0.613372 0.114719 0
0.645558 0.0838585 0
2.015 0.115858 0
1.22718 0.0994086 0
1.39166 0.29817 0
1.3564 0.329754 0
0.744134 0.11556 0
0.782853 0.0841771 0
0.826899 0.10047 0
1.17418 0.314034 0
0.520902 0.0906676 0
1.4967 0.329429 0
1.26048 0.0740437 0
0.365514 0.0716355 0
0.229836 0.121666 0
1.57453 0.09137 0
1.61938 0.110761 0
0.481716 0.0753791 0
0.14093 0.2 0
0.130041 0.192847 0
0.131507 0.178608 0
0.117165 0.184444 0
0.120761 0.164701 0
0.1156 0.199931 0
0.100804 0.174136 0
0.102545 0.153034 0
0.12169 0.143342 0
0.104604 0.13008 0
0.0809304 0.161171 0
0.128077 0.121858 0
0.106825 0.102278 0
0.082498 0.188728 0
0.0314738 0.158621 0
2.04625 0.310891 0
2.08475 0.27479 0
2.11394 0.138117 0
0.233149 0.151108 0
0.258724 0.193613 0
0.268522 0.184917 0
1.65397 0.301059 0
0.145962 0.224912 0
0.132503 0.222267 0
0.13746 0.236947 0
0.120111 0.233525 0
0.126593 0.25219 0
0.105294 0.247497 0
0.113343 0.26868 0
0.133997 0.271734 0
0.121622 0.292031 0
0.147069 0.292141 0
0.0896563 0.267464 0
0.0813699 0.243294 0
0.163574 0.276939 0
0.172694 0.298517 0
0.1583 0.321483 0
0.186823 0.322499 0
0.173113 0.348195 0
0.0322087 0.250839 0
0.211694 0.124337 0
0.250615 0.169546 0
0.256243 0.157787 0
0.170796 0.14736 0
0.156755 0.141654 0
0.17187 0.131161 0
0.147502 0.152323 0
0.198129 0.260662 0
0.206368 0.271663 0
0.220945 0.26864 0
0.190489 0.270628 0
0.198813 0.286731 0
0.55749 0.322277 0
0.520166 0.299321 0
0.235199 0.330709 0
0.267109 0.337524 0
0.172324 0.25256 0
0.255974 0.218859 0
0.268327 0.214994 0
0.184197 0.143083 0
0.188721 0.129954 0
0.209694 0.139146 0
0.269223 0.244007 0
0.252374 0.255244 0
0.282229 0.0410487 0
1.21977 0.330016 0
1.25733 0.296346 0
2.09358 0.0890819 0
0.244373 0.240984 0
0.0838116 0.115786 0
0.0797544 0.0817835 0
0.237449 0.264854 0
0.247178 0.146225 0
0.270136 0.2 0
0.28023 0.191334 0
0.263476 0.170737 0
0.371486 0.368728 0
0.396124 0.330051 0
0.440314 0.325693 0
0.357693 0.329668 0
0.476576 0.362035 0
0.29587 0.222914 0
0.307627 0.175476 0
0.079599 0.0406461 0
0.146062 0.252571 0
0.15162 0.125025 0
0.417223 0.294608 0
0.457089 0.286958 0
0.036619 0.338729 0
0.0713014 0.322193 0
0.0735823 0.36704 0
0.041143 0.0722223 0
0.693501 0.32349 0
0.145406 0.175484 0
0.138777 0.164467 0
0.300367 0.0698839 0
0.167025 0.112083 0
0.146978 0.105544 0
0.151909 0.236762 0
0.444611 0.106436 0
0.909355 0.0817561 0
0.282901 0.370713 0
1.61474 0.330739 0
0.578053 0.368179 0
0.824695 0.0487848 0
2.09634 0.3213 0
2.02276 0.364865 0
2.12532 0.363702 0
1.09789 0.328757 0
0.161137 0.260089 0
2.07793 0.225752 0
2.12079 0.240944 0
2.0747 0.0437362 0
1.89402 0.158846 0
1.93154 0.128738 0
1.8848 0.111477 0
1.8384 0.0926484 0
1.87744 0.0655304 0
1.7913 0.0793874 0
1.9712 0.046671 0
1.92502 0.366682 0
1.94563 0.325156 0
1.89941 0.326645 0
1.87499 0.367178 0
1.84989 0.323491 0
1.7997 0.321303 0
1.77183 0.280326 0
1.75031 0.321965 0
1.77491 0.365615 0
2.11727 0.191885 0
0.883187 0.163467 0
1.71449 0.140266 0
1.667 0.125342 0
1.70591 0.0884759 0
1.67732 0.042286 0
1.52278 0.370513 0
1.37512 0.04128 0
1.34848 0.0834574 0
0.776093 0.367587 0
1.125 0.0433013 0
1.15 0.0866019 0
1.07442 0.0496847 0
0.974527 0.0370837 0
1.47464 0.0427918 0
1.44953 0.0873752 0
1.17595 0.362984 0
1.025 0.366699 0
0.925007 0.367031 0
0.95 0.323404 0
0.897321 0.326356 0
0.874563 0.367261 0
0.846552 0.324465 0
1.62923 0.156667 0
1.32319 0.13033 0
1.69342 0.270472 0
1.49568 0.156227 0
1.56237 0.268721 0
1.44 0.319169 0
1.43005 0.267892 0
1.36502 0.152565 0
0.993446 0.294003 0
1.30179 0.321101 0
1.18235 0.127964 0
1.25016 0.2491 0
1.29638 0.266841 0
1.11824 0.247967 0
1.12945 0.294699 0
1.01527 0.165035 0
0.836192 0.147197 0
1.4998 0.0831488 0
1.00655 0.118664 0
0.872896 0.117126 0
0.70523 0.146383 0
1.96013 0.276645 0
0.769406 0.257102 0
0.699552 0.0908977 0
2.1587 0.162257 0
1.97813 0.145326 0
0.646036 0.302035 0
0.799423 0.326603 0
0.515621 0.255445 0
1.72538 0.366474 0
1.97009 0.0998346 0
1.57108 0.313772 0
0.577925 0.14549 0
0.638911 0.256447 0
0.407352 0.0771641 0
0.525103 0.042511 0
0.674231 0.370698 0
1.69802 0.321701 0
0.56947 0.0908728 0
1.75459 0.110239 0
1.80084 0.126127 0
0.673535 0.0431435 0
1.57391 0.0465733 0
2.04571 0.0828469 0
0.10002 0.225545 0
0.0788152 0.21577 0
0.369719 0.224393 0
0.210352 0.308739 0
1.22342 0.0432967 0
[...]
CELL_DATA 1241
VECTORS velocity double
1.06042 -0.00387666 0.0
1.15782 0.0504838 0.0
0.622992 -5.39721e-05 0.0
1.0113 0.0121135 0.0
1.02856 0.00792015 0.0
1.41076 0.0915655 0.0
1.1258 -0.0250148 0.0
1.05842 -0.0120242 0.0
0.39334 0.00708112 0.0
1.12399 -0.0240042 0.0
1.31251 -0.119385 0.0
1.31644 0.126404 0.0
0.865332 -0.1598 0.0
1.02607 -3.5036e-05 0.0
1.00969 0.00446446 0.0
1.44501 -0.019359 0.0
1.0027 0.00113569 0.0
0.479164 0.0605142 0.0
1.12079 0.0446709 0.0
1.64542 -0.243603 0.0
1.04199 -2.45998e-05 0.0
1.04803 -0.062802 0.0
1.02614 0.00403503 0.0
1.25674 0.906437 0.0
1.09423 0.0108302 0.0
1.04378 -0.00265897 0.0
1.29263 -0.194086 0.0
1.06263 -0.0217006 0.0
1.32175 -0.0832626 0.0
1.44403 -0.0526481 0.0
1.3321 0.0901581 0.0
0.839837 -0.0298846 0.0
1.48921 -0.0150282 0.0
1.02403 -0.000484276 0.0
1.18902 -0.0462221 0.0
1.3511 0.148281 0.0
1.15001 -0.0424157 0.0
1.05037 -0.166977 0.0
0.359369 0.0205562 0.0
1.37328 0.132036 0.0
1.76956 -0.165454 0.0
1.42996 -0.0312169 0.0
1.05137 -0.234885 0.0
0.669277 0.00278534 0.0
1.39067 -0.158442 0.0
0.665388 0.000247465 0.0
1.16691 0.079124 0.0
1.07469 0.00962596 0.0
1.61157 -0.304195 0.0
1.26439 -0.0314811 0.0
1.11937 -0.0242134 0.0
1.29078 -0.415084 0.0
0.894427 -0.0123824 0.0
1.35386 -0.087476 0.0
1.78061 -0.268367 0.0
1.48502 -0.0465029 0.0
1.0914 -0.0229128 0.0
1.11803 -0.022586 0.0
1.66903 -0.0842305 0.0
1.68488 -0.185064 0.0
1.16155 0.848875 0.0
1.06862 -0.0132497 0.0
0.260414 0.00746756 0.0
1.04706 0.000853671 0.0
-0.262161 0.0345575 0.0
1.33255 0.2276 0.0
-0.249122 0.090379 0.0
1.10493 -0.0041084 0.0
0.830686 -0.0226681 0.0
0.257357 0.0444533 0.0
1.10716 -0.0051157 0.0
0.819049 0.00135803 0.0
1.10806 -0.00349604 0.0
0.833012 -0.0462501 0.0
1.10486 -0.0119226 0.0
0.880487 0.156598 0.0
0.984989 0.00457958 0.0
1.64121 -0.0269168 0.0
0.943463 -0.0327856 0.0
0.701717 -0.00186002 0.0
1.75433 -0.374313 0.0
1.157 -0.24319 0.0
0.722187 0.00520449 0.0
1.25657 -0.221751 0.0
1.34626 0.170186 0.0
0.913377 -0.0642182 0.0
1.19761 0.173445 0.0
0.161153 0.133164 0.0
1.84668 0.524563 0.0
1.09819 -0.0135708 0.0
1.2971 -0.00565169 0.0
-0.176381 -0.0198517 0.0
-0.324479 0.101541 0.0
1.39519 -0.0739494 0.0
1.12463 -0.0244804 0.0
1.05517 -0.00851717 0.0
0.891009 -0.0450297 0.0
-0.188889 0.0634122 0.0
1.02634 -0.00672773 0.0
-0.195909 0.134416 0.0
1.08211 -0.0981 0.0
1.10932 -0.00461686 0.0
0.985197 -0.00207367 0.0
1.65284 -0.151793 0.0
1.74821 -0.668394 0.0
1.27308 -0.395754 0.0
1.10449 -0.096265 0.0
0.535067 -0.00552864 0.0
1.79826 0.648259 0.0
1.11554 -0.0238307 0.0
1.44238 -0.128945 0.0
1.21858 0.193221 0.0
0.182106 0.0320991 0.0
1.44152 -0.0266667 0.0
1.05811 0.0186952 0.0
1.44276 0.0402529 0.0
1.38609 0.0178044 0.0
1.37095 0.0392281 0.0
1.0561 0.00172523 0.0
0.322688 0.0795133 0.0
1.21196 0.0323433 0.0
1.52301 0.579968 0.0
1.20391 0.088219 0.0
0.912118 -0.0615708 0.0
0.780946 -0.136493 0.0
1.16829 0.0651026 0.0
1.40481 -0.0552202 0.0
1.07702 0.0086754 0.0
1.7623 0.49963 0.0
0.54846 -0.0709842 0.0
1.11227 -0.00499897 0.0
0.684796 -0.00565341 0.0
0.878552 0.0615573 0.0
1.58399 -0.00133532 0.0
1.0318 -0.153864 0.0
-0.270735 0.0483564 0.0
0.16597 0.0231166 0.0
1.16874 0.0670032 0.0
1.01732 -0.0271306 0.0
1.66843 -0.759988 0.0
1.50091 0.00373312 0.0
1.04607 -0.000829711 0.0
1.0763 -0.242747 0.0
0.978303 0.0116649 0.0
1.54108 0.029046 0.0
0.0829095 0.0498552 0.0
-0.263842 0.00981557 0.0
-0.14351 0.00581502 0.0
0.732029 0.00882883 0.0
0.735617 -0.0119634 0.0
0.554113 -0.100902 0.0
1.00855 -0.0118601 0.0
1.80084 -0.323435 0.0
1.05598 -0.157903 0.0
1.20285 -0.0489834 0.0
1.20459 0.0543021 0.0
0.641978 -0.000488265 0.0
1.62852 0.0547815 0.0
0.893438 0.0503862 0.0
1.1848 -0.0472381 0.0
-0.218202 0.0503051 0.0
1.74461 0.439068 0.0
1.11049 0.000704848 0.0
1.22206 -0.203893 0.0
1.09457 0.0165315 0.0
1.05428 0.12984 0.0
1.02694 -0.000778053 0.0
0.987908 0.111005 0.0
0.685292 -0.00289504 0.0
1.11776 -0.0160647 0.0
0.893916 -0.0199722 0.0
1.11537 -0.0188123 0.0
1.36325 0.259924 0.0
1.13201 0.0726849 0.0
1.08487 -0.00279081 0.0
1.09165 -0.00261575 0.0
1.17739 0.193668 0.0
1.11959 -0.285702 0.0
1.09437 0.00177416 0.0
1.16198 -0.221952 0.0
1.09354 -0.000810237 0.0
0.404169 0.093789 0.0
1.08833 -0.64296 0.0
0.728342 -0.126353 0.0
1.02987 -0.00388357 0.0
0.762719 -0.0780518 0.0
0.75851 -0.0624881 0.0
1.03853 0.000626529 0.0
1.05549 0.095678 0.0
0.460666 0.0469107 0.0
0.890102 -0.829038 0.0
1.78241 0.334402 0.0
1.01081 0.00173588 0.0
0.995832 0.00763579 0.0
0.665741 0.059143 0.0
0.886575 0.0831204 0.0
0.397399 0.0588291 0.0
1.03966 -0.00828556 0.0
1.42773 -0.0320467 0.0
1.45251 0.580192 0.0
1.15474 0.192619 0.0
1.04628 -0.0193331 0.0
1.42688 0.0384087 0.0
1.07027 -0.131521 0.0
1.34104 -0.093911 0.0
1.43609 -0.0442228 0.0
0.515643 0.0344473 0.0
0.689387 0.00122139 0.0
0.864411 -0.0227764 0.0
0.818571 0.0329903 0.0
0.674586 0.00841397 0.0
0.647475 -0.000755816 0.0
1.79384 0.273675 0.0
1.0964 0.00152545 0.0
1.45959 -0.0274677 0.0
1.09945 0.00250426 0.0
0.826168 -0.0784445 0.0
1.47606 -0.115267 0.0
1.11978 -0.0132437 0.0
1.11101 -0.00425873 0.0
0.833104 -0.0493225 0.0
1.66618 -0.0501547 0.0
0.998943 0.0514467 0.0
1.02101 0.0269365 0.0
0.924776 -0.0290443 0.0
1.11758 -0.0174848 0.0
1.3821 -0.148443 0.0
1.73376 -0.596451 0.0
1.12415 -0.00273355 0.0
1.12435 -0.0035223 0.0
1.03298 -0.00062594 0.0
1.06354 -0.132137 0.0
1.03595 -0.00504491 0.0
1.01491 -0.00299516 0.0
1.27018 0.310891 0.0
1.03703 -0.254971 0.0
1.10313 0.165512 0.0
1.2662 0.122566 0.0
0.820581 -0.105975 0.0
0.354558 -0.0452348 0.0
0.942962 0.0122084 0.0
1.43886 0.0572671 0.0
1.42665 0.919481 0.0
0.682729 -0.0847255 0.0
1.10632 -0.00589936 0.0
1.71004 0.122128 0.0
1.09782 -0.897621 0.0
0.867892 -0.176682 0.0
1.08496 -0.0200461 0.0
0.692134 -0.00485484 0.0
1.01276 0.0236991 0.0
0.682983 -0.00608011 0.0
1.0447 -0.00124399 0.0
1.11604 -0.0123429 0.0
0.736044 -0.0155301 0.0
0.756449 -0.0273778 0.0
1.09444 -0.283993 0.0
1.25625 -0.0913443 0.0
1.11732 -0.0120032 0.0
1.0079 -0.00847112 0.0
1.03005 0.00108187 0.0
0.64624 -0.00346535 0.0
1.10945 -0.0177206 0.0
0.738036 -0.0168577 0.0
1.08178 0.0218155 0.0
1.03207 -0.00255311 0.0
0.694174 0.00275592 0.0
1.19248 -0.095387 0.0
1.22311 -0.204666 0.0
0.775479 -0.0179006 0.0
1.11243 -0.0489614 0.0
0.707648 -0.0042572 0.0
1.02355 -0.00677369 0.0
0.196798 0.123719 0.0
1.12157 -0.0215604 0.0
1.12266 -0.0030877 0.0
0.708716 -0.00423799 0.0
0.959753 -0.212327 0.0
1.01726 -0.00817438 0.0
1.37992 0.159728 0.0
1.11193 -0.00723664 0.0
1.12221 -0.0120874 0.0
1.22354 -0.169991 0.0
1.1272 -0.0106831 0.0
1.1214 -0.0177121 0.0
1.11854 -0.00223716 0.0
0.973143 -0.103139 0.0
0.835807 0.0427111 0.0
1.13134 -0.00913854 0.0
1.1233 -0.0154902 0.0
1.12541 -0.015433 0.0
0.632698 0.0691515 0.0
0.629337 0.00144691 0.0
0.996802 0.00240672 0.0
0.66352 -0.00892179 0.0
1.13058 -0.00575857 0.0
1.03441 -0.00742071 0.0
1.09544 -0.00328694 0.0
-0.20186 0.00500117 0.0
1.02161 -0.004249 0.0
0.662871 -0.000592228 0.0
1.3246 -0.60554 0.0
1.09957 -0.0033328 0.0
1.01935 -0.00667427 0.0
0.67216 -0.00572479 0.0
1.12832 -0.00911484 0.0
0.831123 0.0365014 0.0
0.649234 0.00111064 0.0
1.03159 -0.00554581 0.0
1.13223 -0.00800075 0.0
1.12691 -0.0137943 0.0
1.12352 -0.0110833 0.0
0.732767 -4.71699e-05 0.0
0.616184 0.00122051 0.0
1.13416 -0.00751085 0.0
1.11454 -0.0569046 0.0
1.13082 -0.00941165 0.0
0.714049 0.0105136 0.0
1.12668 -0.00850048 0.0
1.12503 -0.0068881 0.0
1.12088 -0.021725 0.0
1.13381 -0.00491083 0.0
0.621834 -0.00329378 0.0
1.13434 -0.00571092 0.0
1.13093 -0.00498892 0.0
1.1337 -0.00523002 0.0
0.618645 -0.00123994 0.0
1.12139 -0.00683257 0.0
1.12523 -0.00465654 0.0
1.12202 -0.0179078 0.0
1.13368 -0.00406678 0.0
1.16238 -0.173626 0.0
1.11707 -0.0196421 0.0
1.13502 -0.00377312 0.0
1.35356 0.66878 0.0
1.13286 -0.00365255 0.0
0.664904 -0.00292962 0.0
1.0566 -0.00753784 0.0
0.678181 0.0095058 0.0
0.672112 -0.00284176 0.0
1.12072 0.00249308 0.0
1.06054 -0.0013848 0.0
1.04357 0.00212912 0.0
0.621686 -0.00251515 0.0
1.0612 -0.00696121 0.0
1.12322 0.00199242 0.0
1.1345 -0.00326977 0.0
1.09203 0.130237 0.0
1.15899 -0.698284 0.0
0.664349 0.000245353 0.0
0.621405 -0.000963983 0.0
1.13402 -0.00268662 0.0
1.13346 -0.00303755 0.0
0.704736 -0.0159084 0.0
0.608952 -0.00747289 0.0
1.13335 -0.00218764 0.0
1.01233 0.00652512 0.0
1.1255 0.00247448 0.0
1.11089 -0.00246105 0.0
0.673275 0.00806628 0.0
0.632313 0.00108483 0.0
1.12043 0.00499531 0.0
0.706997 0.00856436 0.0
0.670728 0.00899019 0.0
1.1253 0.000941472 0.0
0.717178 0.0158895 0.0
0.678022 0.00202861 0.0
1.13164 -0.00217512 0.0
1.12874 -0.00253097 0.0
1.00632 0.0100946 0.0
1.13161 -0.00270032 0.0
1.12343 -0.00259784 0.0
1.13299 -0.00242703 0.0
1.02859 0.00373895 0.0
1.11256 -0.00164955 0.0
0.716499 0.00735937 0.0
0.627436 0.0103784 0.0
0.681051 0.00828752 0.0
0.621086 -0.00722682 0.0
0.676159 -0.00146115 0.0
0.672879 -0.00145194 0.0
0.64541 -0.00172036 0.0
0.689909 -0.00566592 0.0
0.695907 -0.00233128 0.0
0.695696 0.00962286 0.0
0.634027 -0.00424812 0.0
0.653582 0.00902672 0.0
0.653988 -4.58209e-05 0.0
0.675793 0.0143428 0.0
0.629689 0.00398184 0.0
0.63368 -0.00457336 0.0
0.632616 0.000876313 0.0
0.649708 -0.0001722 0.0
0.638772 0.00536017 0.0
0.677974 -0.00213882 0.0
0.690275 -0.000946983 0.0
0.646439 -0.00287397 0.0
0.654304 -0.0113381 0.0
0.65643 0.00297574 0.0
0.648633 -0.000613421 0.0
0.676971 0.000739588 0.0
0.616224 -0.0113134 0.0
0.617149 0.0136337 0.0
0.608038 0.0027656 0.0
0.631045 -0.00245272 0.0
0.628837 0.0027386 0.0
0.659823 -0.014309 0.0
0.629719 0.00250612 0.0
0.629465 0.00332858 0.0
0.656164 -0.00036282 0.0
0.645564 -0.00199245 0.0
1.12288 -0.0023918 0.0
1.11317 -0.00263561 0.0
1.13309 -0.0028716 0.0
1.13355 -0.00236773 0.0
1.13415 -0.00234277 0.0
1.09162 -0.00252531 0.0
1.12444 -0.00234926 0.0
1.11716 -0.00134456 0.0
1.1247 -0.0013332 0.0
1.11438 -0.00355765 0.0
1.12808 -0.00279095 0.0
1.12839 -0.00274654 0.0
1.11495 -0.00211246 0.0
1.13307 -0.00230583 0.0
1.1282 -0.00321909 0.0
1.13199 -0.00231069 0.0
1.12304 -0.00287053 0.0
1.11306 -0.00170107 0.0
1.13114 -0.00264752 0.0
1.13344 -0.00229253 0.0
1.13113 -0.00246514 0.0
1.13342 -0.00246621 0.0
1.13225 -0.00261158 0.0
1.10989 -0.00491981 0.0
1.13447 -0.00221863 0.0
1.12809 -0.0013784 0.0
1.13407 -0.00209044 0.0
1.08882 0.000941306 0.0
1.12796 -0.00216961 0.0
1.12697 -0.0020137 0.0
1.13403 -0.00237306 0.0
1.11657 0.000355608 0.0
1.13283 -0.00199062 0.0
1.13349 -0.00166933 0.0
1.12596 -0.00186858 0.0
1.13469 -0.00216077 0.0
1.12879 -0.00153544 0.0
1.13298 -0.0020765 0.0
1.10982 -0.00317585 0.0
1.11687 6.48799e-05 0.0
1.13347 -0.00210509 0.0
1.12852 -0.0014445 0.0
1.13095 -0.00208987 0.0
1.13028 -0.00157172 0.0
1.12393 -0.000962556 0.0
1.13414 -0.00210483 0.0
1.13348 -0.00187998 0.0
1.10109 -0.0017872 0.0
1.12637 -0.00255758 0.0
1.08949 0.00416647 0.0
1.12119 -0.00173518 0.0
1.12703 -0.00173766 0.0
1.13056 -0.0026458 0.0
1.1336 -0.00170574 0.0
1.11945 -0.00180857 0.0
1.13151 -0.00231622 0.0
1.13268 -0.00157929 0.0
1.13427 -0.00137875 0.0
1.13218 -0.00144335 0.0
1.13134 -0.00112814 0.0
1.13242 -0.000156971 0.0
1.12673 -5.95527e-05 0.0
1.10107 -0.00120122 0.0
1.08157 0.00117883 0.0
1.12727 -0.000371653 0.0
1.13339 -0.00112892 0.0
0.666955 -0.000480938 0.0
1.12787 -0.000398896 0.0
1.11034 -0.000629387 0.0
1.12069 9.80717e-05 0.0
1.13329 -0.000738702 0.0
1.11994 0.000164137 0.0
1.13137 0.00141422 0.0
1.13051 0.00140678 0.0
1.13103 -0.000136599 0.0
1.12848 0.0010389 0.0
1.09818 -0.0011378 0.0
1.09906 -0.00266573 0.0
1.11333 0.000528786 0.0
1.1304 0.000599134 0.0
1.12475 -0.000408497 0.0
1.1319 0.00106644 0.0
1.11933 -0.000483354 0.0
1.12537 -0.00176021 0.0
1.13256 0.000474455 0.0
1.13198 0.00146823 0.0
1.02894 -0.00496187 0.0
1.12146 -0.000145882 0.0
1.13077 0.00141299 0.0
1.10877 0.000613029 0.0
1.1295 -0.00104668 0.0
1.13233 -0.000336504 0.0
1.04873 -0.00403647 0.0
1.12666 0.00215046 0.0
1.12606 -0.000358017 0.0
1.112 0.00365006 0.0
1.1313 -0.000278249 0.0
1.11785 0.00460976 0.0
1.12674 0.00145586 0.0
1.1303 -0.00115723 0.0
1.12797 0.00132663 0.0
1.12018 0.177615 0.0
1.11128 -0.000970324 0.0
1.13003 -0.00365894 0.0
1.12998 0.00249351 0.0
1.13116 0.0016031 0.0
1.11453 -0.00156331 0.0
1.11899 0.00226664 0.0
1.10015 0.00311127 0.0
1.11636 0.00043224 0.0
1.13146 0.00134371 0.0
1.10108 0.00522481 0.0
1.13034 0.00130358 0.0
1.12558 0.000671311 0.0
1.11979 0.00226144 0.0
1.1252 0.00283199 0.0
1.12891 0.000216837 0.0
0.71312 -0.0142857 0.0
1.02435 -0.00190439 0.0
1.12385 0.00406973 0.0
1.12649 0.00249101 0.0
1.12752 -0.00072737 0.0
1.10558 0.000793483 0.0
1.11472 0.00293678 0.0
1.12741 0.000475768 0.0
1.12377 0.000944831 0.0
1.12592 0.000126653 0.0
1.12564 0.000926669 0.0
1.12103 0.00413954 0.0
1.12952 0.00172774 0.0
1.12761 0.00204516 0.0
1.03875 0.00150281 0.0
1.12853 0.00177817 0.0
1.12181 0.0017369 0.0
1.11541 0.00130304 0.0
1.11828 0.00545826 0.0
1.10276 0.00317328 0.0
1.12105 0.0023555 0.0
1.74525 0.164624 0.0
1.11977 -0.00245233 0.0
1.12032 0.00741707 0.0
1.10686 -0.0101504 0.0
1.11152 0.00685382 0.0
1.12139 0.00445372 0.0
1.11697 -0.00341843 0.0
1.11678 0.00744246 0.0
1.12589 -0.00609471 0.0
1.07746 -0.00342741 0.0
1.06849 0.0036258 0.0
1.11432 -0.00214058 0.0
1.25372 0.112309 0.0
1.128 -0.0148382 0.0
1.05729 0.00401991 0.0
1.11621 -0.00486912 0.0
1.12176 0.0127284 0.0
1.11077 0.00800757 0.0
1.11053 -0.00283053 0.0
1.10295 -0.0132298 0.0
1.02698 -0.00583428 0.0
1.11179 -0.00755526 0.0
1.10231 0.000207184 0.0
1.10774 5.91574e-05 0.0
1.11733 0.0102906 0.0
1.07066 -0.0108334 0.0
1.04317 0.198381 0.0
1.01733 -0.00665336 0.0
1.12034 0.0164087 0.0
0.500906 -0.181792 0.0
1.32458 0.131639 0.0
1.12949 -0.0347124 0.0
1.10146 0.00513639 0.0
1.09845 0.0145558 0.0
1.09023 0.0207454 0.0
1.12036 -0.00802944 0.0
1.09383 0.00718502 0.0
1.06775 -0.0307243 0.0
1.30246 0.175675 0.0
1.01895 -0.140943 0.0
1.06121 -0.0403959 0.0
1.1326 -0.122671 0.0
1.10408 -0.0051729 0.0
1.09326 -0.0309546 0.0
1.12048 -0.0139179 0.0
1.02666 0.00197469 0.0
1.13954 0.0347214 0.0
1.07132 -0.00823439 0.0
1.1878 -0.0856292 0.0
1.12835 -0.0124283 0.0
1.12937 -0.0113159 0.0
1.09212 -0.0104462 0.0
1.39895 -0.564714 0.0
1.12382 0.0612142 0.0
1.06038 -0.0112857 0.0
1.12454 0.0471884 0.0
1.0438 0.00137549 0.0
0.744684 0.0193029 0.0
1.10501 0.0289262 0.0
1.32737 -0.15968 0.0
0.978715 -0.0807732 0.0
1.09669 -0.0244208 0.0
0.632908 -0.555372 0.0
1.06283 -0.0122895 0.0
1.08912 -0.00372437 0.0
1.1062 -0.00322375 0.0
1.33961 -0.145127 0.0
1.09772 0.0392687 0.0
1.12013 -0.0174336 0.0
1.0855 -0.0137635 0.0
1.12891 0.0181315 0.0
1.0236 -0.00943123 0.0
1.35125 -0.770176 0.0
1.10729 -0.02352 0.0
1.13541 0.0297083 0.0
1.11918 -0.0258216 0.0
1.12755 -0.0238689 0.0
1.13042 -0.0399956 0.0
1.09156 0.0391607 0.0
1.15314 0.0766224 0.0
1.1013 -0.00389965 0.0
1.12701 0.0244968 0.0
1.0307 -0.00306331 0.0
1.08156 -0.0125052 0.0
1.18104 -0.530092 0.0
0.697359 0.00231361 0.0
0.701324 -0.012455 0.0
1.01935 0.0205169 0.0
1.22168 0.104541 0.0
1.1138 -0.00233622 0.0
1.12306 -0.00204817 0.0
0.641704 0.00388017 0.0
1.12885 -0.00240455 0.0
0.441199 -0.146897 0.0
1.07297 -0.0824947 0.0
0.701137 0.00433406 0.0
0.699341 -0.0131625 0.0
0.996692 0.0287695 0.0
1.10858 -0.00172718 0.0
0.862828 -0.17345 0.0
0.924388 -0.013948 0.0
1.68325 -0.108596 0.0
0.903664 0.0389579 0.0
1.11055 -0.0188295 0.0
1.1115 -0.0194248 0.0
1.05281 0.000599907 0.0
1.1133 -0.024812 0.0
1.12477 -0.025607 0.0
1.18631 0.349089 0.0
0.637216 0.00773272 0.0
1.0169 0.00347228 0.0
1.30367 -0.0945793 0.0
0.657626 0.00348167 0.0
1.58457 0.55804 0.0
1.01068 -0.0317249 0.0
0.924552 -0.0220417 0.0
1.2877 0.0952348 0.0
0.901245 -0.0381151 0.0
0.989934 0.0024781 0.0
0.714701 -0.163643 0.0
1.12199 -0.00275215 0.0
0.875239 0.095937 0.0
1.12094 -0.00317737 0.0
0.824693 -0.000988182 0.0
1.01886 -0.00316232 0.0
1.0229 0.118245 0.0
1.42554 -0.0613877 0.0
0.642553 -0.00265656 0.0
0.791019 -0.013119 0.0
0.921014 0.807501 0.0
1.10901 -0.0176351 0.0
1.01886 0.015774 0.0
1.36561 0.00272978 0.0
0.634756 -0.00356409 0.0
1.10102 0.00579471 0.0
1.16717 -0.44711 0.0
0.18648 0.0223247 0.0
0.997065 -0.0455812 0.0
1.07271 -0.0674922 0.0
0.714906 0.0183566 0.0
0.684126 0.0267944 0.0
1.63287 0.0130876 0.0
1.11467 -0.00329944 0.0
0.311435 0.0151625 0.0
0.740372 0.0324098 0.0
1.09822 0.00344375 0.0
1.12992 -0.00347791 0.0
1.03036 -0.00923796 0.0
1.01582 0.0505129 0.0
1.20268 0.167489 0.0
0.681953 0.00316327 0.0
1.10721 -0.0106388 0.0
0.994684 0.0716527 0.0
1.1253 -0.00372765 0.0
1.38885 -0.591208 0.0
0.6625 -0.00294125 0.0
1.41337 -0.147538 0.0
1.08906 -0.000641581 0.0
1.00591 -0.00695014 0.0
0.620414 0.0897108 0.0
1.03942 0.0886274 0.0
0.897294 0.139472 0.0
1.09257 0.00187239 0.0
1.15175 -0.043066 0.0
1.39939 -0.0363263 0.0
0.676787 0.00278387 0.0
0.691979 0.00968607 0.0
1.1183 -0.0245368 0.0
0.404074 -0.072516 0.0
1.0074 0.0379947 0.0
0.622339 0.00218414 0.0
1.05366 -0.0292552 0.0
1.10497 -0.0164438 0.0
0.99951 -0.00265156 0.0
0.672532 -0.00316832 0.0
0.671284 0.0115671 0.0
0.691897 0.00653568 0.0
0.667718 0.00287014 0.0
0.70185 0.00435322 0.0
1.21327 0.670454 0.0
1.34372 0.0589055 0.0
0.996701 -0.00255956 0.0
0.692776 0.00571412 0.0
0.697729 -0.00708963 0.0
0.704447 0.0133978 0.0
1.101 -0.0323562 0.0
0.674646 -0.00460925 0.0
1.61705 -0.186127 0.0
1.23839 0.0987659 0.0
0.637608 -0.127166 0.0
1.27526 -0.0848359 0.0
1.52704 -0.461671 0.0
1.01984 -0.00091193 0.0
1.06285 -0.00476405 0.0
1.12266 -0.00215329 0.0
1.01884 -0.0021893 0.0
0.837514 -0.688067 0.0
1.02476 0.000642987 0.0
1.00947 -0.00478709 0.0
1.12438 -0.00415308 0.0
1.07112 -0.0172638 0.0
1.62873 -0.0250282 0.0
-0.0218547 0.148664 0.0
0.643527 -0.0721247 0.0
1.33823 0.518113 0.0
1.08271 -0.00931496 0.0
0.713635 -0.00711682 0.0
0.693969 -0.00399079 0.0
0.690943 -0.00470962 0.0
1.10695 -0.0189984 0.0
0.711113 0.217978 0.0
1.11674 -0.00866653 0.0
1.01429 0.00676876 0.0
0.805753 0.193548 0.0
1.10251 -0.00241852 0.0
0.340059 -0.0217713 0.0
1.09642 -0.0139624 0.0
0.683161 0.0126767 0.0
0.685734 -0.00764738 0.0
1.36556 0.115692 0.0
0.924941 -0.000259898 0.0
1.52082 0.0582602 0.0
1.01672 0.0069541 0.0
1.03198 0.00317699 0.0
0.290937 -0.120161 0.0
0.984716 0.00639062 0.0
1.1237 0.00290983 0.0
1.11486 0.0024345 0.0
0.428824 -0.181131 0.0
1.62877 -0.26736 0.0
1.0752 0.00106596 0.0
1.26721 0.203889 0.0
0.707126 -0.00937396 0.0
0.684257 -0.00411267 0.0
1.10704 -0.0242341 0.0
0.683735 0.0960211 0.0
1.1127 -0.0108722 0.0
0.782814 0.0145836 0.0
0.974583 -0.0092434 0.0
1.10078 0.00183268 0.0
1.03842 -0.00244695 0.0
0.201799 -0.0208189 0.0
1.10427 -0.00502456 0.0
0.339892 0.0509492 0.0
1.04643 -0.0026527 0.0
1.04662 -0.00571977 0.0
0.695805 -0.00953174 0.0
1.04573 0.000723788 0.0
1.11673 -0.0076367 0.0
1.00441 8.40725e-05 0.0
1.01847 -0.00631267 0.0
1.20146 -0.963948 0.0
1.09694 0.00749357 0.0
1.69638 0.481399 0.0
0.6846 -0.00653062 0.0
0.691472 0.00769542 0.0
1.11891 -0.00061735 0.0
1.1329 -0.00226091 0.0
1.08681 -0.00167136 0.0
1.08954 0.00345216 0.0
1.12416 -0.000495914 0.0
1.10621 -0.00159531 0.0
1.12944 -0.00351514 0.0
1.11025 0.00942827 0.0
-0.0120908 0.000781245 0.0
1.07189 0.00275274 0.0
0.119401 0.0463637 0.0
0.719217 -0.0244785 0.0
1.19835 -0.207607 0.0
1.10431 -0.00331683 0.0
1.31384 -0.137977 0.0
1.64723 -0.496856 0.0
0.314173 -0.0180264 0.0
1.12593 -0.00416801 0.0
1.12854 0.270247 0.0
1.28431 -0.0918764 0.0
1.07249 0.306747 0.0
1.71447 0.0650635 0.0
0.975576 -0.541094 0.0
1.37241 0.132433 0.0
1.13911 -0.0109654 0.0
1.29001 -0.479097 0.0
0.035231 -0.157166 0.0
1.05041 0.00172588 0.0
1.31818 -0.39172 0.0
0.635179 -0.00811022 0.0
1.40834 -0.141163 0.0
1.68195 0.183565 0.0
1.08087 0.00435391 0.0
0.563389 0.00724071 0.0
0.717665 0.00323964 0.0
0.267928 -0.226906 0.0
0.917077 0.0442971 0.0
0.0258052 -0.0632105 0.0
1.13757 -0.173975 0.0
1.44787 0.160942 0.0
0.626387 0.00576661 0.0
1.16834 -0.0524884 0.0
1.03176 -0.00695411 0.0
1.10051 -0.0183767 0.0
0.435396 -0.614549 0.0
1.22959 0.264921 0.0
0.788079 -0.168276 0.0
0.191241 -0.329893 0.0
0.641211 0.143739 0.0
1.30315 0.238197 0.0
0.691782 0.163372 0.0
0.989419 -0.00859356 0.0
1.10118 -0.00555812 0.0
1.06333 0.000904752 0.0
1.04502 -0.00371622 0.0
0.68922 0.00620666 0.0
0.10617 0.0980542 0.0