# vtk DataFile Version 3.0
Malha 2D com triângulos e temperatura
ASCII
DATASET UNSTRUCTURED_GRID

POINTS 688 double
0 0 0
2.2 0 0
2.2 0.41 0
0 0.41 0
0.25 0.2 0
0.05 0 0
0.1 0 0
0.15 0 0
0.2 0 0
0.25 0 0
0.3 0 0
0.35 0 0
0.4 0 0
0.45 0 0
0.5 0 0
0.55 0 0
0.6 0 0
0.65 0 0
0.7 0 0
0.75 0 0
0.8 0 0
0.85 0 0
0.9 0 0
0.95 0 0
1 0 0
1.05 0 0
1.1 0 0
1.15 0 0
1.2 0 0
1.25 0 0
1.3 0 0
1.35 0 0
1.4 0 0
1.45 0 0
1.5 0 0
1.55 0 0
1.6 0 0
1.65 0 0
1.7 0 0
1.75 0 0
1.8 0 0
1.85 0 0
1.9 0 0
1.95 0 0
2 0 0
2.05 0 0
2.1 0 0
2.15 0 0
2.2 0.0455556 0
2.2 0.0911111 0
2.2 0.136667 0
2.2 0.182222 0
2.2 0.227778 0
2.2 0.273333 0
2.2 0.318889 0
2.2 0.364444 0
2.15 0.41 0
2.1 0.41 0
2.05 0.41 0
2 0.41 0
1.95 0.41 0
1.9 0.41 0
1.85 0.41 0
1.8 0.41 0
1.75 0.41 0
1.7 0.41 0
1.65 0.41 0
1.6 0.41 0
1.55 0.41 0
1.5 0.41 0
1.45 0.41 0
1.4 0.41 0
1.35 0.41 0
1.3 0.41 0
1.25 0.41 0
1.2 0.41 0
1.15 0.41 0
1.1 0.41 0
1.05 0.41 0
1 0.41 0
0.95 0.41 0
0.9 0.41 0
0.85 0.41 0
0.8 0.41 0
0.75 0.41 0
0.7 0.41 0
0.65 0.41 0
0.6 0.41 0
0.55 0.41 0
0.5 0.41 0
0.45 0.41 0
0.4 0.41 0
0.35 0.41 0
0.3 0.41 0
0.25 0.41 0
0.2 0.41 0
0.15 0.41 0
0.1 0.41 0
0.05 0.41 0
0 0.364444 0
0 0.318889 0
0 0.273333 0
0 0.227778 0
0 0.182222 0
0 0.136667 0
0 0.0911111 0
0 0.0455556 0
0.248831 0.210749 0
0.245379 0.220994 0
0.239805 0.230259 0
0.232369 0.238108 0
0.22342 0.244176 0
0.213376 0.248177 0
0.202707 0.249927 0
0.191911 0.249341 0
0.181493 0.246449 0
0.171941 0.241384 0
0.1637 0.234385 0
0.157157 0.225778 0
0.152617 0.215965 0
0.150293 0.205406 0
0.150293 0.194594 0
0.152617 0.184035 0
0.157157 0.174222 0
0.1637 0.165615 0
0.171941 0.158616 0
0.181493 0.153551 0
0.191911 0.150659 0
0.202707 0.150073 0
0.213376 0.151823 0
0.22342 0.155824 0
0.232369 0.161892 0
0.239805 0.169741 0
0.245379 0.179006 0
0.248831 0.189251 0
0.421316 0.36725 0
0.426705 0.0366526 0
2.16065 0.209201 0
1.52286 0.0417259 0
0.626017 0.37111 0
1.3257 0.0414552 0
1.02471 0.0432237 0
1.17293 0.0421053 0
0.82501 0.36678 0
1.6757 0.370064 0
1.91628 0.0358195 0
1.82501 0.366432 0
0.723429 0.0421499 0
1.425 0.366699 0
1.97461 0.366224 0
1.12167 0.370137 0
0.975 0.368691 0
0.877672 0.0412714 0
1.27686 0.36884 0
1.725 0.0433013 0
0.579174 0.0416211 0
0.325589 0.363848 0
0.319111 0.0378151 0
0.0394523 0.296111 0
0.0329929 0.11602 0
0.142108 0.187428 0
1.57555 0.364352 0
2.02603 0.0412138 0
0.725007 0.36763 0
0.528647 0.366595 0
1.62699 0.0400272 0
1.82929 0.0421255 0
1.425 0.0418325 0
2.07474 0.364233 0
0.125 0.0433013 0
0.161245 0.155011 0
0.225 0.366699 0
0.210027 0.258536 0
2.16034 0.115449 0
0.0371627 0.204103 0
0.142311 0.212698 0
0.220283 0.0418538 0
0.221965 0.145099 0
0.196802 0.141016 0
0.119851 0.373394 0
0.161112 0.245979 0
0.184892 0.258024 0
2.16342 0.30039 0
2.12627 0.047699 0
0.183325 0.0412617 0
0.152317 0.0762976 0
0.203864 0.0745802 0
0.234384 0.0774346 0
0.215969 0.103585 0
0.245651 0.104548 0
0.186562 0.100216 0
0.268213 0.0793029 0
0.272149 0.109155 0
0.242885 0.159377 0
0.253088 0.128261 0
0.278718 0.13214 0
0.295917 0.115997 0
0.301728 0.138858 0
0.321266 0.12205 0
0.324642 0.151724 0
0.255978 0.181139 0
0.350123 0.129049 0
0.357539 0.159885 0
0.333541 0.181416 0
0.36451 0.19182 0
0.250573 0.230419 0
0.391277 0.169722 0
0.339477 0.212308 0
0.39836 0.205386 0
0.427326 0.18117 0
0.258724 0.206387 0
0.434392 0.219501 0
0.466446 0.193907 0
0.472865 0.243064 0
0.507358 0.209962 0
0.40073 0.238916 0
0.499135 0.1652 0
0.5419 0.179224 0
0.550176 0.22496 0
0.585844 0.194129 0
0.594095 0.240176 0
0.630701 0.209517 0
0.621901 0.162424 0
0.667731 0.178095 0
0.676485 0.226008 0
0.713906 0.194492 0
0.722681 0.242872 0
0.760442 0.211047 0
0.751547 0.162356 0
0.798298 0.179 0
0.807147 0.227866 0
0.845136 0.195775 0
0.854541 0.243285 0
0.892163 0.212344 0
0.902461 0.257947 0
0.93935 0.228684 0
0.930236 0.180167 0
0.977229 0.197066 0
0.986264 0.245777 0
1.02423 0.213991 0
1.0331 0.263172 0
1.07123 0.230975 0
1.06234 0.181814 0
1.10938 0.198721 0
1.09996 0.151012 0
1.14691 0.168161 0
1.15631 0.215921 0
1.19446 0.183678 0
1.20343 0.232645 0
1.2416 0.200322 0
1.23272 0.151117 0
1.2798 0.167954 0
1.28868 0.217167 0
1.32685 0.184862 0
1.33573 0.234064 0
1.3739 0.201768 0
0.789327 0.130094 0
1.38279 0.25097 0
1.42096 0.218674 0
1.41207 0.169471 0
1.45912 0.186378 0
1.46801 0.235581 0
1.50618 0.203285 0
1.51506 0.252489 0
1.55323 0.220192 0
1.54435 0.170989 0
1.5914 0.187896 0
1.60029 0.2371 0
1.63846 0.204803 0
1.64734 0.254007 0
1.68551 0.221711 0
1.67663 0.172507 0
1.72368 0.189415 0
1.73831 0.241548 0
1.77074 0.206322 0
1.76185 0.157121 0
1.8091 0.17428 0
1.81866 0.220885 0
1.85608 0.190621 0
1.86521 0.238879 0
1.90289 0.207671 0
1.91264 0.253772 0
1.94955 0.224093 0
1.94067 0.17593 0
1.98705 0.192828 0
1.99572 0.240997 0
2.0329 0.209382 0
2.02422 0.16161 0
2.04166 0.257286 0
0.419739 0.142889 0
0.968291 0.148058 0
0.310035 0.202211 0
0.316128 0.230863 0
0.658501 0.130052 0
0.685107 0.27445 0
1.34462 0.283266 0
1.16528 0.264896 0
1.84735 0.142081 0
0.557687 0.270604 0
1.21234 0.281769 0
1.58252 0.138692 0
0.533563 0.131933 0
0.489835 0.120004 0
1.45024 0.137174 0
2.06974 0.17785 0
2.06113 0.130713 0
0.283221 0.152215 0
0.921299 0.131169 0
0.343836 0.24295 0
0.319203 0.260002 0
0.235529 0.249617 0
0.347029 0.274099 0
0.291856 0.246297 0
0.295938 0.27548 0
0.272836 0.264931 0
0.27461 0.290522 0
0.251228 0.280224 0
0.253903 0.305808 0
0.232795 0.296709 0
0.298805 0.304058 0
1.0801 0.280176 0
1.47689 0.284785 0
1.05315 0.133468 0
1.09741 0.0970974 0
1.82427 0.272867 0
1.2701 0.118911 0
0.816337 0.277695 0
1.40432 0.121101 0
1.04244 0.320388 0
0.959305 0.103028 0
1.60923 0.286151 0
0.601674 0.286775 0
2.00739 0.280923 0
0.342592 0.0992796 0
0.375237 0.105729 0
1.52511 0.298716 0
1.53114 0.119823 0
0.733824 0.287256 0
0.613372 0.114719 0
0.645558 0.0838585 0
2.015 0.115858 0
1.22718 0.0994086 0
1.39166 0.29817 0
1.3564 0.329754 0
0.744134 0.11556 0
0.782853 0.0841771 0
0.826899 0.10047 0
1.17418 0.314034 0
0.520902 0.0906676 0
1.4967 0.329429 0
1.26048 0.0740437 0
0.365514 0.0716355 0
0.229836 0.121666 0
1.57453 0.09137 0
1.61938 0.110761 0
0.481716 0.0753791 0
0.14093 0.2 0
0.130041 0.192847 0
0.131507 0.178608 0
0.117165 0.184444 0
0.120761 0.164701 0
0.1156 0.199931 0
0.100804 0.174136 0
0.102545 0.153034 0
0.12169 0.143342 0
0.104604 0.13008 0
0.0809304 0.161171 0
0.128077 0.121858 0
0.106825 0.102278 0
0.082498 0.188728 0
0.0314738 0.158621 0
2.04625 0.310891 0
2.08475 0.27479 0
2.11394 0.138117 0
0.233149 0.151108 0
0.258724 0.193613 0
0.268522 0.184917 0
1.65397 0.301059 0
0.145962 0.224912 0
0.132503 0.222267 0
0.13746 0.236947 0
0.120111 0.233525 0
0.126593 0.25219 0
0.105294 0.247497 0
0.113343 0.26868 0
0.133997 0.271734 0
0.121622 0.292031 0
0.147069 0.292141 0
0.0896563 0.267464 0
0.0813699 0.243294 0
0.163574 0.276939 0
0.172694 0.298517 0
0.1583 0.321483 0
0.186823 0.322499 0
0.173113 0.348195 0
0.0322087 0.250839 0
0.211694 0.124337 0
0.250615 0.169546 0
0.256243 0.157787 0
0.170796 0.14736 0
0.156755 0.141654 0
0.17187 0.131161 0
0.147502 0.152323 0
0.198129 0.260662 0
0.206368 0.271663 0
0.220945 0.26864 0
0.190489 0.270628 0
0.198813 0.286731 0
0.55749 0.322277 0
0.520166 0.299321 0
0.235199 0.330709 0
0.267109 0.337524 0
0.172324 0.25256 0
0.255974 0.218859 0
0.268327 0.214994 0
0.184197 0.143083 0
0.188721 0.129954 0
0.209694 0.139146 0
0.269223 0.244007 0
0.252374 0.255244 0
0.282229 0.0410487 0
1.21977 0.330016 0
1.25733 0.296346 0
2.09358 0.0890819 0
0.244373 0.240984 0
0.0838116 0.115786 0
0.0797544 0.0817835 0
0.237449 0.264854 0
0.247178 0.146225 0
0.270136 0.2 0
0.28023 0.191334 0
0.263476 0.170737 0
0.371486 0.368728 0
0.396124 0.330051 0
0.440314 0.325693 0
0.357693 0.329668 0
0.476576 0.362035 0
0.29587 0.222914 0
0.307627 0.175476 0
0.079599 0.0406461 0
0.146062 0.252571 0
0.15162 0.125025 0
0.417223 0.294608 0
0.457089 0.286958 0
0.036619 0.338729 0
0.0713014 0.322193 0
0.0735823 0.36704 0
0.041143 0.0722223 0
0.693501 0.32349 0
0.145406 0.175484 0
0.138777 0.164467 0
0.300367 0.0698839 0
0.167025 0.112083 0
0.146978 0.105544 0
0.151909 0.236762 0
0.444611 0.106436 0
0.909355 0.0817561 0
0.282901 0.370713 0
1.61474 0.330739 0
0.578053 0.368179 0
0.824695 0.0487848 0
2.09634 0.3213 0
2.02276 0.364865 0
2.12532 0.363702 0
1.09789 0.328757 0
0.161137 0.260089 0
2.07793 0.225752 0
2.12079 0.240944 0
2.0747 0.0437362 0
1.89402 0.158846 0
1.93154 0.128738 0
1.8848 0.111477 0
1.8384 0.0926484 0
1.87744 0.0655304 0
1.7913 0.0793874 0
1.9712 0.046671 0
1.92502 0.366682 0
1.94563 0.325156 0
1.89941 0.326645 0
1.87499 0.367178 0
1.84989 0.323491 0
1.7997 0.321303 0
1.77183 0.280326 0
1.75031 0.321965 0
1.77491 0.365615 0
2.11727 0.191885 0
0.883187 0.163467 0
1.71449 0.140266 0
1.667 0.125342 0
1.70591 0.0884759 0
1.67732 0.042286 0
1.52278 0.370513 0
1.37512 0.04128 0
1.34848 0.0834574 0
0.776093 0.367587 0
1.125 0.0433013 0
1.15 0.0866019 0
1.07442 0.0496847 0
0.974527 0.0370837 0
1.47464 0.0427918 0
1.44953 0.0873752 0
1.17595 0.362984 0
1.025 0.366699 0
0.925007 0.367031 0
0.95 0.323404 0
0.897321 0.326356 0
0.874563 0.367261 0
0.846552 0.324465 0
1.62923 0.156667 0
1.32319 0.13033 0
1.69342 0.270472 0
1.49568 0.156227 0
1.56237 0.268721 0
1.44 0.319169 0
1.43005 0.267892 0
1.36502 0.152565 0
0.993446 0.294003 0
1.30179 0.321101 0
1.18235 0.127964 0
1.25016 0.2491 0
1.29638 0.266841 0
1.11824 0.247967 0
1.12945 0.294699 0
1.01527 0.165035 0
0.836192 0.147197 0
1.4998 0.0831488 0
1.00655 0.118664 0
0.872896 0.117126 0
0.70523 0.146383 0
1.96013 0.276645 0
0.769406 0.257102 0
0.699552 0.0908977 0
2.1587 0.162257 0
1.97813 0.145326 0
0.646036 0.302035 0
0.799423 0.326603 0
0.515621 0.255445 0
1.72538 0.366474 0
1.97009 0.0998346 0
1.57108 0.313772 0
0.577925 0.14549 0
0.638911 0.256447 0
0.407352 0.0771641 0
0.525103 0.042511 0
0.674231 0.370698 0
1.69802 0.321701 0
0.56947 0.0908728 0
1.75459 0.110239 0
1.80084 0.126127 0
0.673535 0.0431435 0
1.57391 0.0465733 0
2.04571 0.0828469 0
0.10002 0.225545 0
0.0788152 0.21577 0
0.369719 0.224393 0
0.210352 0.308739 0
1.22342 0.0432967 0
[...]
CELL_DATA 1241
VECTORS velocity double
1.01718 -0.00421926 0.0
1.21665 0.0667789 0.0
0.456681 -0.000968642 0.0
0.949286 0.00206302 0.0
1.04164 0.00563687 0.0
1.42277 0.103057 0.0
1.13365 0.000191865 0.0
0.983661 -0.000840955 0.0
0.363387 0.0157651 0.0
1.17527 0.00160048 0.0
1.31247 -0.119985 0.0
1.31627 0.126536 0.0
0.865763 -0.160592 0.0
1.01434 0.00822587 0.0
0.989659 0.00703374 0.0
1.46623 -0.0327635 0.0
0.978084 0.0011264 0.0
0.479599 0.0603751 0.0
1.17206 0.0626352 0.0
1.64767 -0.254121 0.0
1.02268 0.00542375 0.0
1.05935 -0.0662789 0.0
1.03552 -0.00010311 0.0
1.25312 0.904895 0.0
1.07115 -0.00219073 0.0
1.02592 0.00357071 0.0
1.29895 -0.19939 0.0
1.07627 -0.0253562 0.0
1.32175 -0.0836652 0.0
1.46231 -0.0648045 0.0
1.33199 0.0902497 0.0
0.86747 -0.0369823 0.0
1.52026 0.00253061 0.0
1.01301 0.00655908 0.0
1.25613 -0.0567996 0.0
1.35883 0.156888 0.0
1.21199 -0.0555976 0.0
1.05041 -0.16783 0.0
0.359557 0.0205015 0.0
1.38213 0.141279 0.0
1.76457 -0.179709 0.0
1.41342 -0.0453481 0.0
1.05282 -0.237172 0.0
0.512574 0.00709828 0.0
1.39917 -0.167165 0.0
0.506965 -0.00612458 0.0
1.20183 0.0992685 0.0
1.11436 0.0261354 0.0
1.61303 -0.313045 0.0
1.23986 -0.0105995 0.0
1.20868 0.00115593 0.0
1.29084 -0.417488 0.0
0.869705 -0.00370122 0.0
1.4083 -0.0825273 0.0
1.7753 -0.279534 0.0
1.5188 -0.0288713 0.0
1.14986 -0.0403965 0.0
1.126 -0.000207393 0.0
1.65852 -0.0989899 0.0
1.68775 -0.199266 0.0
1.15856 0.847296 0.0
0.99745 -5.02738e-05 0.0
0.195863 0.0356273 0.0
1.02838 0.00773444 0.0
-0.240147 0.071396 0.0
1.33192 0.227567 0.0
-0.279399 0.0863377 0.0
1.16324 -0.000595757 0.0
0.862585 -0.0259505 0.0
0.21848 0.0245309 0.0
1.16412 -0.00423829 0.0
0.793615 0.0140628 0.0
1.16313 -0.00374695 0.0
0.79197 -0.0138828 0.0
1.20034 0.00765758 0.0
0.88129 0.157076 0.0
0.942302 0.00631771 0.0
1.63155 -0.0463762 0.0
0.979292 -0.0346812 0.0
0.610601 0.00118035 0.0
1.75199 -0.38295 0.0
1.15969 -0.246706 0.0
0.655769 0.0120187 0.0
1.26145 -0.227326 0.0
1.34581 0.170059 0.0
0.919363 -0.0667181 0.0
1.20729 0.178268 0.0
0.0865161 0.0986166 0.0
1.83888 0.530339 0.0
1.18656 0.00380729 0.0
1.27228 0.0101014 0.0
-0.189458 -0.011062 0.0
-0.347915 0.0783816 0.0
1.44288 -0.0648014 0.0
1.18237 -0.0411831 0.0
0.988667 0.00123457 0.0
0.849509 -0.0259594 0.0
-0.184479 0.0905966 0.0
1.01605 -0.0106525 0.0
-0.243969 0.112783 0.0
1.08214 -0.0985566 0.0
1.15586 -0.0136575 0.0
0.946825 0.00176741 0.0
1.63929 -0.161197 0.0
1.74242 -0.670634 0.0
1.27317 -0.397896 0.0
1.07154 -0.0621495 0.0
0.498526 -0.023547 0.0
1.78805 0.649635 0.0
1.218 0.00343562 0.0
1.48521 -0.109429 0.0
1.23127 0.189884 0.0
0.13178 0.0758933 0.0
1.44146 -0.0270044 0.0
1.07994 0.0149274 0.0
1.44262 0.040085 0.0
1.41391 0.00487505 0.0
1.39179 0.0528343 0.0
1.06413 -0.00164794 0.0
0.255683 0.0398889 0.0
1.19026 0.0421149 0.0
1.51967 0.581776 0.0
1.25167 0.108504 0.0
0.919914 -0.0634656 0.0
0.727158 -0.0994915 0.0
1.20505 0.0862781 0.0
1.44675 -0.0430805 0.0
1.11785 0.0248449 0.0
1.74964 0.501371 0.0
0.54991 -0.0713151 0.0
1.16256 -0.0139658 0.0
0.619613 -0.00157349 0.0
0.885851 0.0638607 0.0
1.60321 -0.0214423 0.0
1.01986 -0.153437 0.0
-0.275989 0.0745732 0.0
0.12329 0.0623493 0.0
1.22605 0.0824188 0.0
1.04836 -0.0252926 0.0
1.66388 -0.761314 0.0
1.50088 0.00357118 0.0
1.03459 0.00518864 0.0
1.07835 -0.245038 0.0
1.00474 0.00703644 0.0
1.52367 0.00735612 0.0
0.0227499 0.0312789 0.0
-0.254446 0.0379819 0.0
-0.182443 0.00607055 0.0
0.639582 0.0152513 0.0
0.650733 -0.0118566 0.0
0.555339 -0.101528 0.0
1.03465 -0.00715143 0.0
1.7964 -0.332546 0.0
1.04824 -0.153586 0.0
1.20282 -0.0491844 0.0
1.20456 0.0544201 0.0
0.494959 -0.00055718 0.0
1.64356 0.0736887 0.0
0.857382 0.0304889 0.0
1.24775 -0.0571654 0.0
-0.230519 0.0471 0.0
1.74049 0.446444 0.0
1.14276 0.00700011 0.0
1.22204 -0.204902 0.0
1.1423 0.0344467 0.0
1.05422 0.130238 0.0
0.984666 -0.00123599 0.0
0.987066 0.109844 0.0
0.566087 -0.00318112 0.0
1.17171 -0.0345894 0.0
0.928544 -0.0247688 0.0
1.22729 0.00387065 0.0
1.36545 0.265494 0.0
1.19036 0.0867935 0.0
1.10507 0.00501223 0.0
1.11622 0.00593333 0.0
1.18257 0.198667 0.0
1.1201 -0.287598 0.0
1.11387 0.0109607 0.0
1.16601 -0.225249 0.0
1.11968 0.00859791 0.0
0.363353 0.110114 0.0
1.08769 -0.644383 0.0
0.73057 -0.127086 0.0
1.0229 -0.00791194 0.0
0.765686 -0.078985 0.0
0.762198 -0.0636588 0.0
1.02683 0.00695789 0.0
1.05545 0.0959189 0.0
0.461038 0.0470097 0.0
0.889612 -0.829922 0.0
1.77865 0.345015 0.0
1.02821 -0.00204949 0.0
0.981775 0.00707676 0.0
0.667318 0.0602185 0.0
0.85323 0.0570567 0.0
0.397734 0.0590059 0.0
1.00181 -0.0148583 0.0
1.42771 -0.0322281 0.0
1.44965 0.581422 0.0
1.15458 0.193106 0.0
1.06897 -0.0136129 0.0
1.42685 0.0384008 0.0
1.04183 -0.0924947 0.0
1.40067 -0.0916669 0.0
1.43601 -0.0446969 0.0
0.483452 0.0244801 0.0
0.66085 0.0127582 0.0
0.899493 -0.0228276 0.0
0.857252 0.0335558 0.0
0.528015 0.0170116 0.0
0.518623 -0.00267253 0.0
1.79012 0.286428 0.0
1.11144 0.0104256 0.0
1.44083 -0.00370846 0.0
1.12116 0.0110989 0.0
0.732516 -0.0775368 0.0
1.5111 -0.0908969 0.0
1.17614 -0.0310794 0.0
1.16023 -0.0118701 0.0
0.833097 -0.0495827 0.0
1.67135 -0.0703867 0.0
1.01011 0.0553084 0.0
0.996385 0.0114816 0.0
0.958441 -0.026221 0.0
1.22591 0.00291368 0.0
1.43536 -0.137565 0.0
1.72985 -0.600845 0.0
1.18189 -0.00618238 0.0
1.19905 -0.0103266 0.0
0.99352 -0.000914226 0.0
1.06355 -0.132776 0.0
1.02698 -0.00955044 0.0
0.995478 -0.00613022 0.0
1.25799 0.310856 0.0
1.03831 -0.256612 0.0
1.09454 0.17179 0.0
1.31865 0.132621 0.0
0.744426 -0.106856 0.0
0.355085 -0.0454544 0.0
0.95872 0.0159052 0.0
1.4387 0.0570202 0.0
1.42205 0.918317 0.0
0.682938 -0.0851873 0.0
1.14886 -0.0162131 0.0
1.70428 0.140214 0.0
1.09693 -0.898578 0.0
0.868426 -0.177612 0.0
1.14012 -0.0378769 0.0
0.564667 -0.00797184 0.0
1.02608 0.0270338 0.0
0.549753 -0.00936915 0.0
1.03046 -0.00415966 0.0
1.21879 0.00365938 0.0
0.625377 -0.0118395 0.0
0.774955 -0.0337438 0.0
1.09485 -0.285466 0.0
1.32586 -0.104891 0.0
1.21674 0.00147594 0.0
1.01859 -0.00150659 0.0
1.00476 0.00912949 0.0
0.513184 -0.00554627 0.0
1.21948 0.00611528 0.0
0.735737 -0.0261607 0.0
1.1271 0.0437759 0.0
0.99811 -0.00986765 0.0
0.570936 0.00374723 0.0
1.241 -0.110165 0.0
1.22753 -0.171241 0.0
0.788516 -0.0267177 0.0
1.14011 -0.0656131 0.0
0.592066 0.00156391 0.0
0.98334 -0.0144253 0.0
0.116674 0.0675566 0.0
1.19712 0.00019781 0.0
1.19391 -0.00979815 0.0
0.602247 -0.00399896 0.0
0.942796 -0.194397 0.0
0.986746 -0.0144586 0.0
1.42986 0.154706 0.0
1.19272 0.00185276 0.0
1.22726 -0.000672074 0.0
1.22356 -0.170782 0.0
1.22898 -0.00227868 0.0
1.22742 0.00121413 0.0
1.17204 -0.0172619 0.0
0.935517 -0.114713 0.0
0.835802 0.0428661 0.0
1.22937 -0.0046035 0.0
1.22584 -0.000279289 0.0
1.22173 -0.0015767 0.0
0.634886 0.0704881 0.0
0.468322 0.00515016 0.0
0.99673 0.010132 0.0
0.553222 -0.00745289 0.0
1.22776 -0.00489684 0.0
1.00207 -0.0171119 0.0
1.15857 0.0107746 0.0
-0.261101 -0.0269316 0.0
0.969427 -0.0107474 0.0
0.508188 -0.00414019 0.0
1.31894 -0.604734 0.0
1.12221 -0.00756911 0.0
0.971741 -0.0149608 0.0
0.531336 -0.00975984 0.0
1.22733 -0.00261585 0.0
0.867821 0.040806 0.0
0.54033 0.00159881 0.0
0.993161 -0.014308 0.0
1.22812 -0.00518089 0.0
1.22084 -0.00231894 0.0
1.22533 -0.00248216 0.0
0.628174 -0.00691465 0.0
0.453563 0.000655892 0.0
1.22581 -0.00618063 0.0
1.14198 -0.0737487 0.0
1.20144 -0.00704995 0.0
0.610432 0.00987963 0.0
1.1826 -0.00806279 0.0
1.21846 -0.00477516 0.0
1.20592 0.00117918 0.0
1.23074 -0.00677433 0.0
0.472848 -0.00644703 0.0
1.2243 -0.00611981 0.0
1.2253 -0.00590293 0.0
1.21656 -0.00674935 0.0
0.463197 -0.00356995 0.0
1.21111 -0.00202873 0.0
1.18093 -0.00605979 0.0
1.19696 -0.000930607 0.0
1.22841 -0.0069249 0.0
1.17061 -0.158051 0.0
1.12831 0.00140946 0.0
1.2299 -0.00719364 0.0
1.3509 0.668517 0.0
1.21422 -0.0064261 0.0
0.516163 -0.00669997 0.0
1.09549 -0.0223528 0.0
0.571261 0.00801724 0.0
0.592301 -0.00943935 0.0
1.11991 0.00693683 0.0
1.09512 -0.0126083 0.0
1.06875 -0.00797948 0.0
0.530515 -0.00812816 0.0
1.10124 -0.022077 0.0
1.12691 0.00553937 0.0
1.22733 -0.00761235 0.0
1.07437 0.139221 0.0
1.1551 -0.69683 0.0
0.560628 -0.00480622 0.0
0.518788 -0.00545859 0.0
1.22297 -0.00588078 0.0
1.22484 -0.00793002 0.0
0.617017 -0.0185069 0.0
0.506724 -0.00934038 0.0
1.22049 -0.00516657 0.0
0.991135 0.0160856 0.0
1.16319 0.0112661 0.0
1.15539 -0.00695432 0.0
0.563898 0.00708239 0.0
0.515352 -0.00224469 0.0
1.1452 0.0173688 0.0
0.601163 0.0138743 0.0
0.566921 0.0145251 0.0
1.17514 0.00856896 0.0
0.61727 0.020694 0.0
0.569171 -0.000760047 0.0
1.21148 -0.00461971 0.0
1.19938 -0.0039466 0.0
0.962145 0.0153639 0.0
1.20868 -0.00262563 0.0
1.18103 -0.00286396 0.0
1.21619 -0.00367299 0.0
0.983769 0.0112567 0.0
1.1509 -0.00341109 0.0
0.609429 0.00601941 0.0
0.503192 0.014059 0.0
0.553207 0.013623 0.0
0.471422 -0.00831854 0.0
0.536885 0.000386058 0.0
0.558743 -0.00506872 0.0
0.525812 -0.00253571 0.0
0.638154 -0.0138953 0.0
0.548753 -0.00474973 0.0
0.575478 0.0129453 0.0
0.492988 -0.00716622 0.0
0.573809 0.0156276 0.0
0.502586 -3.9805e-05 0.0
0.677932 0.0213927 0.0
0.576568 0.0101812 0.0
0.570225 -0.0115838 0.0
0.492352 0.00245657 0.0
0.528338 -0.00204654 0.0
0.510946 0.00754563 0.0
0.60991 -0.00984958 0.0
0.540084 -0.00134307 0.0
0.599676 -0.00773686 0.0
0.55634 -0.0124436 0.0
0.543345 0.00647254 0.0
0.523481 -0.000138934 0.0
0.541547 0.00342359 0.0
0.485795 -0.0167593 0.0
0.489672 0.0198349 0.0
0.491332 0.000447541 0.0
0.554528 -0.00726315 0.0
0.498107 0.00333172 0.0
0.645019 -0.0211466 0.0
0.494697 0.00573872 0.0
0.470884 0.00508655 0.0
0.513814 0.000729383 0.0
0.490292 -0.00294053 0.0
1.17952 -0.00211547 0.0
1.16029 -0.00587386 0.0
1.22319 -0.00724331 0.0
1.22153 -0.00529674 0.0
1.22438 -0.00546612 0.0
1.11741 -0.00718332 0.0
1.19564 -0.00669446 0.0
1.1764 -0.00616533 0.0
1.18212 0.00372695 0.0
1.15363 -0.00244341 0.0
1.20742 -0.00761857 0.0
1.20976 -0.00827726 0.0
1.17248 -0.00609442 0.0
1.21767 -0.00393714 0.0
1.19429 -0.00137488 0.0
1.21832 -0.00603081 0.0
1.19194 -0.00694186 0.0
1.15165 0.000547084 0.0
1.21494 -0.00617779 0.0
1.22041 -0.00446484 0.0
1.20613 -0.00175018 0.0
1.21868 -0.0041367 0.0
1.21379 -0.00541762 0.0
1.15546 -0.00850043 0.0
1.21899 -0.00234079 0.0
1.19659 -0.00322201 0.0
1.21625 -0.00173916 0.0
1.11923 -0.00101839 0.0
1.19724 -0.00340582 0.0
1.1907 0.00078314 0.0
1.21212 -0.0018074 0.0
1.17436 -0.00121803 0.0
1.21144 -0.0025308 0.0
1.21439 -0.00258144 0.0
1.18529 0.00336708 0.0
1.2153 -0.00177127 0.0
1.20633 -0.00407683 0.0
1.20971 -0.000103401 0.0
1.1525 -0.00797356 0.0
1.17597 -0.00220179 0.0
1.21252 -0.000340914 0.0
1.204 -0.0033803 0.0
1.20152 0.00127002 0.0
1.19863 0.00271077 0.0
1.16212 -0.0127308 0.0
1.21064 -0.00013128 0.0
1.20737 0.000253661 0.0
1.13681 -0.00545082 0.0
1.19263 -0.00416309 0.0
1.1206 0.00359523 0.0
1.17891 -0.00404838 0.0
1.18976 -0.00375214 0.0
1.20142 -0.00363213 0.0
1.2078 -0.0014326 0.0
1.17487 -0.00414302 0.0
1.20484 -0.00348695 0.0
1.20415 -0.00115273 0.0
1.2064 0.000210518 0.0
1.20203 0.00236573 0.0
1.19879 0.0027106 0.0
1.19679 0.00330328 0.0
1.18492 0.00522399 0.0
1.13543 -0.00592123 0.0
1.09372 0.00688089 0.0
1.18041 0.00660635 0.0
1.20252 0.000637467 0.0
0.574089 -0.0062745 0.0
1.18828 0.00513415 0.0
1.14894 0.00681649 0.0
1.17115 0.00707942 0.0
1.20056 0.00264134 0.0
1.16891 0.00684444 0.0
1.18073 0.00546833 0.0
1.17373 0.000239584 0.0
1.19184 0.00497868 0.0
1.18011 -0.000781176 0.0
1.13278 -0.00469366 0.0
1.13294 -0.00762519 0.0
1.15721 -0.00459943 0.0
1.18839 0.006248 0.0
1.17619 -0.00399668 0.0
1.18735 0.00328803 0.0
1.16884 -0.00366528 0.0
1.18546 -0.00369968 0.0
1.19124 0.00269467 0.0
1.18475 0.00571366 0.0
0.981118 -0.0126724 0.0
1.17319 -0.00328674 0.0
1.17738 0.00760128 0.0
1.14623 0.00838295 0.0
1.19123 -0.00227814 0.0
1.19552 0.000148543 0.0
1.08028 -0.017941 0.0
1.16735 0.0108115 0.0
1.18018 -0.00340674 0.0
1.14796 0.0146813 0.0
1.19126 -5.81348e-05 0.0
1.15075 0.0178984 0.0
1.16967 -0.00434672 0.0
1.19468 -0.00228022 0.0
1.17676 -0.00101576 0.0
1.11937 0.176563 0.0
1.15327 -0.0071037 0.0
1.21824 -0.00877337 0.0
1.17322 0.00933451 0.0
1.17785 0.00117353 0.0
1.15814 -0.0134206 0.0
1.16247 -0.00336486 0.0
1.13934 -0.00286117 0.0
1.16196 -0.00950064 0.0
1.17039 0.00264397 0.0
1.14093 -0.00101259 0.0
1.16531 0.00231442 0.0
1.16575 -0.00669962 0.0
1.16493 -0.00263914 0.0
1.15133 0.0120839 0.0
1.16246 -0.0052439 0.0
0.717562 -0.0205799 0.0
0.973718 0.0039943 0.0
1.1467 0.014343 0.0
1.14986 0.00947637 0.0
1.15715 -0.00770947 0.0
1.14168 0.012056 0.0
1.1489 0.0143971 0.0
1.14751 -0.00240795 0.0
1.12984 0.000866526 0.0
1.1423 -0.003194 0.0
1.13593 0.000949366 0.0
1.12338 0.0121553 0.0
1.16066 0.00566102 0.0
1.15461 0.00858504 0.0
0.996094 0.00767075 0.0
1.156 0.00585204 0.0
1.15914 0.0116238 0.0
1.15133 0.0121614 0.0
1.11661 0.0152383 0.0
1.13636 0.0158454 0.0
1.156 0.0125776 0.0
1.73551 0.181572 0.0
1.12193 -0.0106462 0.0
1.12896 0.0194237 0.0
1.10131 -0.0224848 0.0
1.14975 0.0221362 0.0
1.14916 0.0162904 0.0
1.11547 -0.013001 0.0
1.14732 0.0221914 0.0
1.21784 -0.00542015 0.0
1.07171 -0.00953295 0.0
1.09821 0.0154864 0.0
1.0992 -0.00696181 0.0
1.3071 0.126262 0.0
1.21384 -0.00523931 0.0
1.08183 -0.00209054 0.0
1.15408 -0.00766136 0.0
1.14121 0.0283845 0.0
1.14696 0.0227115 0.0
1.09161 -0.00856561 0.0
1.09538 -0.0275103 0.0
0.981903 -0.0146296 0.0
1.18943 -0.000669424 0.0
1.06894 0.000643885 0.0
1.0787 0.00017524 0.0
1.12221 0.0248344 0.0
1.11842 -0.0270092 0.0
1.02982 0.198336 0.0
0.96299 -0.0148044 0.0
1.13729 0.0339836 0.0
0.442414 -0.164449 0.0
1.38192 0.131625 0.0
1.18156 -0.0524951 0.0
1.06652 0.0103408 0.0
1.06736 0.0258336 0.0
1.0555 0.0364677 0.0
1.21361 -0.00125174 0.0
1.05395 0.0143551 0.0
1.03874 -0.0442829 0.0
1.30216 0.175944 0.0
1.00361 -0.142591 0.0
1.03376 -0.0579803 0.0
1.15181 -0.133517 0.0
1.14692 -0.0122289 0.0
1.09608 -0.0483269 0.0
1.17835 -0.00341531 0.0
0.938005 0.00177333 0.0
1.18117 0.0542889 0.0
1.00981 -0.0139683 0.0
1.23802 -0.102044 0.0
1.21262 -0.0053997 0.0
1.20123 -0.00640034 0.0
1.05701 -0.0201429 0.0
1.39839 -0.567464 0.0
1.13299 0.0836292 0.0
0.996428 -0.0203006 0.0
1.13326 0.0670949 0.0
0.958623 0.0014855 0.0
0.757392 0.0281766 0.0
1.09067 0.0451208 0.0
1.32725 -0.160591 0.0
0.933857 -0.0909606 0.0
1.09967 -0.0399081 0.0
0.632635 -0.556538 0.0
1.10889 -0.0283112 0.0
1.1149 -0.00669598 0.0
1.1526 -0.00739473 0.0
1.39105 -0.139586 0.0
1.08125 0.0601697 0.0
1.17822 -0.00267206 0.0
1.04874 -0.0263563 0.0
1.16408 0.0364463 0.0
0.98898 -0.0172351 0.0
1.34997 -0.771797 0.0
1.22116 0.00471625 0.0
1.17983 0.0517676 0.0
1.19777 0.00294925 0.0
1.12566 -0.000581407 0.0
1.18063 -0.0568521 0.0
1.06612 0.0202403 0.0
1.21018 0.08158 0.0
1.12216 -0.00804092 0.0
1.1595 0.0443986 0.0
0.959397 0.00163815 0.0
1.1492 0.0111975 0.0
1.18051 -0.531645 0.0
0.658093 -0.00618677 0.0
0.680001 -0.0233118 0.0
0.926316 0.0271784 0.0
1.26633 0.119889 0.0
1.15191 -0.00622898 0.0
1.18008 -0.00536902 0.0
0.605952 0.0102476 0.0
1.19939 -0.00594568 0.0
0.328474 -0.123564 0.0
1.07378 -0.0994286 0.0
0.555446 0.00869287 0.0
0.56101 -0.0113409 0.0
0.900776 0.0403274 0.0
1.15649 -0.00587653 0.0
0.863952 -0.174341 0.0
0.851513 -0.0251325 0.0
1.68893 -0.12497 0.0
0.941322 0.0374311 0.0
1.15095 -0.0106248 0.0
1.15161 -0.0121115 0.0
1.05265 0.00841756 0.0
1.21873 0.00361884 0.0
1.17602 0.00133633 0.0
1.18512 0.348321 0.0
0.619631 0.0174541 0.0
1.01856 0.00203652 0.0
1.36911 -0.0980408 0.0
0.537145 0.0074851 0.0
1.58078 0.560913 0.0
0.935111 -0.0419079 0.0
0.797677 -0.0267541 0.0
1.34096 0.0883282 0.0
0.783047 -0.0538464 0.0
0.955389 -0.000759259 0.0
0.668722 -0.116356 0.0
1.15706 -0.0170138 0.0
0.880947 0.0996289 0.0
1.13754 -0.0146841 0.0
0.660071 -0.00413177 0.0
1.02939 0.00573264 0.0
0.981197 0.136421 0.0
1.40953 -0.0328123 0.0
0.521151 -0.00338141 0.0
0.637597 -0.0245213 0.0
0.918751 0.805435 0.0
1.1102 -0.00105189 0.0
1.05156 0.0116347 0.0
1.39237 0.0135204 0.0
0.601265 -0.0106178 0.0
1.13211 0.0182276 0.0
1.16665 -0.448615 0.0
0.186484 0.0223933 0.0
0.926223 -0.0633729 0.0
1.07077 -0.0835284 0.0
0.734721 0.0239927 0.0
0.520021 0.0179337 0.0
1.64895 0.0362387 0.0
1.15408 -0.0057581 0.0
0.311487 0.0152315 0.0
0.572649 0.0250319 0.0
1.14421 -0.00598841 0.0
1.20103 -0.00626979 0.0
1.00199 -0.0178937 0.0
0.939123 0.0625122 0.0
1.20923 0.172553 0.0
0.639134 0.0109261 0.0
1.20071 0.00784314 0.0
0.920497 0.0929321 0.0
1.20527 -0.00795179 0.0
1.388 -0.593458 0.0
0.516259 0.000827669 0.0
1.4592 -0.130108 0.0
1.11023 0.00784143 0.0
0.953009 -0.0139583 0.0
0.621579 0.0903269 0.0
0.992033 0.102039 0.0
0.897473 0.139866 0.0
1.11265 0.00897488 0.0
1.21725 -0.0582134 0.0
1.39921 -0.0369399 0.0
0.584605 0.00500463 0.0
0.60881 0.015077 0.0
1.07428 -0.00352453 0.0
0.404542 -0.0728924 0.0
1.04375 0.0366232 0.0
0.493157 0.00364125 0.0
0.965839 -0.0111859 0.0
1.11105 -0.00445709 0.0
0.94391 -0.00953205 0.0
0.55557 -0.00659104 0.0
0.55477 0.0190785 0.0
0.567717 0.00918335 0.0
0.521254 0.00724594 0.0
0.586388 0.0110958 0.0
1.21072 0.669585 0.0
1.36079 0.0695077 0.0
0.964776 -0.00273508 0.0
0.544655 0.00779208 0.0
0.556514 -0.0126074 0.0
0.698787 0.0250814 0.0
1.15599 -0.0476763 0.0
0.61784 0.00124214 0.0
1.60389 -0.193059 0.0
1.29566 0.0956043 0.0
0.537602 -0.140665 0.0
1.34506 -0.093826 0.0
1.52683 -0.466828 0.0
1.00946 0.00522309 0.0
1.09053 0.0184136 0.0
1.14231 -0.0124218 0.0
0.961568 0.00241209 0.0
0.837059 -0.689224 0.0
1.02553 -0.00156918 0.0
0.979107 -0.00526515 0.0
1.20048 -0.0122591 0.0
1.12125 -0.0344102 0.0
1.64822 -0.000312634 0.0
-0.120542 0.0979229 0.0
0.507259 -0.0687819 0.0
1.33617 0.518167 0.0
1.07402 -0.0120445 0.0
0.606427 -0.0117231 0.0
0.5783 -0.00532525 0.0
0.573722 -0.0056672 0.0
1.21933 0.00577859 0.0
0.634174 0.211456 0.0
1.17465 -0.0249014 0.0
0.977007 0.0117732 0.0
0.751686 0.163296 0.0
1.12506 -0.00241461 0.0
0.13928 -0.0098785 0.0
1.18696 0.00596669 0.0
0.567398 0.0209205 0.0
0.564627 -0.0101125 0.0
1.34018 0.0856422 0.0
0.843437 -0.0112705 0.0
1.50641 0.0321358 0.0
0.974753 0.0145026 0.0
0.99096 0.0106747 0.0
0.11224 -0.166233 0.0
0.973989 0.0287014 0.0
1.17063 0.0131152 0.0
1.15317 0.0132066 0.0
0.356282 -0.136332 0.0
1.61642 -0.273197 0.0
1.09356 -0.000169082 0.0
1.28766 0.195244 0.0
0.591853 -0.0136755 0.0
0.559718 -0.00728056 0.0
1.12361 -0.0167785 0.0
0.531585 0.0897831 0.0
1.12619 -0.0274391 0.0
0.808914 0.0218529 0.0
0.934844 -0.00899996 0.0
1.1314 0.0120816 0.0
0.997647 -0.00368119 0.0
0.201883 -0.0209012 0.0
1.14756 -0.0126544 0.0
0.309958 0.0603993 0.0
1.01152 -0.00117724 0.0
1.0031 -0.00382709 0.0
0.576555 -0.0158256 0.0
1.07055 -0.00944896 0.0
1.17472 -0.0250316 0.0
0.950337 0.000135793 0.0
0.991316 -0.012841 0.0
1.20023 -0.964626 0.0
1.13215 0.0225459 0.0
1.69271 0.486902 0.0
0.559184 -0.016251 0.0
0.549049 0.0064259 0.0
1.16694 0.00546047 0.0
1.22434 -0.0063328 0.0
1.11345 -0.00786697 0.0
1.12273 -0.00130634 0.0
1.18013 0.00525485 0.0
1.13082 0.00477147 0.0
1.21508 -0.0087529 0.0
1.15072 0.0259851 0.0
-0.19796 0.0188097 0.0
1.10313 0.015181 0.0
-0.0244129 0.0293159 0.0
0.662379 -0.0255277 0.0
1.20455 -0.177658 0.0
1.14554 -0.0110333 0.0
1.36831 -0.138182 0.0
1.64632 -0.502403 0.0
0.314249 -0.0181108 0.0
1.20854 -0.00784621 0.0
1.129 0.272002 0.0
1.35096 -0.0984545 0.0
1.07137 0.305687 0.0
1.70952 0.0867661 0.0
0.975244 -0.542453 0.0
1.37208 0.13233 0.0
1.12227 -0.0164063 0.0
1.28964 -0.480969 0.0
-0.08689 -0.108325 0.0
1.05881 0.00038173 0.0
1.31865 -0.394844 0.0
0.502193 -0.00480835 0.0
1.41861 -0.149904 0.0
1.68463 0.198385 0.0
1.09113 0.0127122 0.0
0.403713 0.0153333 0.0
0.717034 0.00182243 0.0
0.26787 -0.228461 0.0
0.956662 0.0460025 0.0
-0.118248 -0.0300715 0.0
1.14665 -0.162581 0.0
1.49626 0.143957 0.0
0.534522 0.00911802 0.0
1.22921 -0.0690593 0.0
0.968746 0.000436682 0.0
1.21071 0.00505188 0.0
0.435152 -0.615522 0.0
1.22864 0.264372 0.0
0.729709 -0.162665 0.0
0.191337 -0.330935 0.0
0.518214 0.160721 0.0
1.3026 0.238493 0.0
0.598365 0.152371 0.0
0.967079 -0.0123286 0.0
1.13878 -0.0156735 0.0
1.08223 0.0111742 0.0
1.07541 0.00907297 0.0
0.572227 0.00752323 0.0
0.0242187 0.0820942 0.0
1.3083 0.299783 0.0
0.465261 -0.00203402 0.0
1.10119 0.00914084 0.0
0.264441 0.216276 0.0