# vtk DataFile Version 3.0
Malha 2D com triângulos e temperatura
ASCII
DATASET UNSTRUCTURED_GRID

POINTS 688 double
0 0 0
2.2 0 0
2.2 0.41 0
0 0.41 0
0.25 0.2 0
0.05 0 0
0.1 0 0
0.15 0 0
0.2 0 0
0.25 0 0
0.3 0 0
0.35 0 0
0.4 0 0
0.45 0 0
0.5 0 0
0.55 0 0
0.6 0 0
0.65 0 0
0.7 0 0
0.75 0 0
0.8 0 0
0.85 0 0
0.9 0 0
0.95 0 0
1 0 0
1.05 0 0
1.1 0 0
1.15 0 0
1.2 0 0
1.25 0 0
1.3 0 0
1.35 0 0
1.4 0 0
1.45 0 0
1.5 0 0
1.55 0 0
1.6 0 0
1.65 0 0
1.7 0 0
1.75 0 0
1.8 0 0
1.85 0 0
1.9 0 0
1.95 0 0
2 0 0
2.05 0 0
2.1 0 0
2.15 0 0
2.2 0.0455556 0
2.2 0.0911111 0
2.2 0.136667 0
2.2 0.182222 0
2.2 0.227778 0
2.2 0.273333 0
2.2 0.318889 0
2.2 0.364444 0
2.15 0.41 0
2.1 0.41 0
2.05 0.41 0
2 0.41 0
1.95 0.41 0
1.9 0.41 0
1.85 0.41 0
1.8 0.41 0
1.75 0.41 0
1.7 0.41 0
1.65 0.41 0
1.6 0.41 0
1.55 0.41 0
1.5 0.41 0
1.45 0.41 0
1.4 0.41 0
1.35 0.41 0
1.3 0.41 0
1.25 0.41 0
1.2 0.41 0
1.15 0.41 0
1.1 0.41 0
1.05 0.41 0
1 0.41 0
0.95 0.41 0
0.9 0.41 0
0.85 0.41 0
0.8 0.41 0
0.75 0.41 0
0.7 0.41 0
0.65 0.41 0
0.6 0.41 0
0.55 0.41 0
0.5 0.41 0
0.45 0.41 0
0.4 0.41 0
0.35 0.41 0
0.3 0.41 0
0.25 0.41 0
0.2 0.41 0
0.15 0.41 0
0.1 0.41 0
0.05 0.41 0
0 0.364444 0
0 0.318889 0
0 0.273333 0
0 0.227778 0
0 0.182222 0
0 0.136667 0
0 0.0911111 0
0 0.0455556 0
0.248831 0.210749 0
0.245379 0.220994 0
0.239805 0.230259 0
0.232369 0.238108 0
0.22342 0.244176 0
0.213376 0.248177 0
0.202707 0.249927 0
0.191911 0.249341 0
0.181493 0.246449 0
0.171941 0.241384 0
0.1637 0.234385 0
0.157157 0.225778 0
0.152617 0.215965 0
0.150293 0.205406 0
0.150293 0.194594 0
0.152617 0.184035 0
0.157157 0.174222 0
0.1637 0.165615 0
0.171941 0.158616 0
0.181493 0.153551 0
0.191911 0.150659 0
0.202707 0.150073 0
0.213376 0.151823 0
0.22342 0.155824 0
0.232369 0.161892 0
0.239805 0.169741 0
0.245379 0.179006 0
0.248831 0.189251 0
0.421316 0.36725 0
0.426705 0.0366526 0
2.16065 0.209201 0
1.52286 0.0417259 0
0.626017 0.37111 0
1.3257 0.0414552 0
1.02471 0.0432237 0
1.17293 0.0421053 0
0.82501 0.36678 0
1.6757 0.370064 0
1.91628 0.0358195 0
1.82501 0.366432 0
0.723429 0.0421499 0
1.425 0.366699 0
1.97461 0.366224 0
1.12167 0.370137 0
0.975 0.368691 0
0.877672 0.0412714 0
1.27686 0.36884 0
1.725 0.0433013 0
0.579174 0.0416211 0
0.325589 0.363848 0
0.319111 0.0378151 0
0.0394523 0.296111 0
0.0329929 0.11602 0
0.142108 0.187428 0
1.57555 0.364352 0
2.02603 0.0412138 0
0.725007 0.36763 0
0.528647 0.366595 0
1.62699 0.0400272 0
1.82929 0.0421255 0
1.425 0.0418325 0
2.07474 0.364233 0
0.125 0.0433013 0
0.161245 0.155011 0
0.225 0.366699 0
0.210027 0.258536 0
2.16034 0.115449 0
0.0371627 0.204103 0
0.142311 0.212698 0
0.220283 0.0418538 0
0.221965 0.145099 0
0.196802 0.141016 0
0.119851 0.373394 0
0.161112 0.245979 0
0.184892 0.258024 0
2.16342 0.30039 0
2.12627 0.047699 0
0.183325 0.0412617 0
0.152317 0.0762976 0
0.203864 0.0745802 0
0.234384 0.0774346 0
0.215969 0.103585 0
0.245651 0.104548 0
0.186562 0.100216 0
0.268213 0.0793029 0
0.272149 0.109155 0
0.242885 0.159377 0
0.253088 0.128261 0
0.278718 0.13214 0
0.295917 0.115997 0
0.301728 0.138858 0
0.321266 0.12205 0
0.324642 0.151724 0
0.255978 0.181139 0
0.350123 0.129049 0
0.357539 0.159885 0
0.333541 0.181416 0
0.36451 0.19182 0
0.250573 0.230419 0
0.391277 0.169722 0
0.339477 0.212308 0
0.39836 0.205386 0
0.427326 0.18117 0
0.258724 0.206387 0
0.434392 0.219501 0
0.466446 0.193907 0
0.472865 0.243064 0
0.507358 0.209962 0
0.40073 0.238916 0
0.499135 0.1652 0
0.5419 0.179224 0
0.550176 0.22496 0
0.585844 0.194129 0
0.594095 0.240176 0
0.630701 0.209517 0
0.621901 0.162424 0
0.667731 0.178095 0
0.676485 0.226008 0
0.713906 0.194492 0
0.722681 0.242872 0
0.760442 0.211047 0
0.751547 0.162356 0
0.798298 0.179 0
0.807147 0.227866 0
0.845136 0.195775 0
0.854541 0.243285 0
0.892163 0.212344 0
0.902461 0.257947 0
0.93935 0.228684 0
0.930236 0.180167 0
0.977229 0.197066 0
0.986264 0.245777 0
1.02423 0.213991 0
1.0331 0.263172 0
1.07123 0.230975 0
1.06234 0.181814 0
1.10938 0.198721 0
1.09996 0.151012 0
1.14691 0.168161 0
1.15631 0.215921 0
1.19446 0.183678 0
1.20343 0.232645 0
1.2416 0.200322 0
1.23272 0.151117 0
1.2798 0.167954 0
1.28868 0.217167 0
1.32685 0.184862 0
1.33573 0.234064 0
1.3739 0.201768 0
0.789327 0.130094 0
1.38279 0.25097 0
1.42096 0.218674 0
1.41207 0.169471 0
1.45912 0.186378 0
1.46801 0.235581 0
1.50618 0.203285 0
1.51506 0.252489 0
1.55323 0.220192 0
1.54435 0.170989 0
1.5914 0.187896 0
1.60029 0.2371 0
1.63846 0.204803 0
1.64734 0.254007 0
1.68551 0.221711 0
1.67663 0.172507 0
1.72368 0.189415 0
1.73831 0.241548 0
1.77074 0.206322 0
1.76185 0.157121 0
1.8091 0.17428 0
1.81866 0.220885 0
1.85608 0.190621 0
1.86521 0.238879 0
1.90289 0.207671 0
1.91264 0.253772 0
1.94955 0.224093 0
1.94067 0.17593 0
1.98705 0.192828 0
1.99572 0.240997 0
2.0329 0.209382 0
2.02422 0.16161 0
2.04166 0.257286 0
0.419739 0.142889 0
0.968291 0.148058 0
0.310035 0.202211 0
0.316128 0.230863 0
0.658501 0.130052 0
0.685107 0.27445 0
1.34462 0.283266 0
1.16528 0.264896 0
1.84735 0.142081 0
0.557687 0.270604 0
1.21234 0.281769 0
1.58252 0.138692 0
0.533563 0.131933 0
0.489835 0.120004 0
1.45024 0.137174 0
2.06974 0.17785 0
2.06113 0.130713 0
0.283221 0.152215 0
0.921299 0.131169 0
0.343836 0.24295 0
0.319203 0.260002 0
0.235529 0.249617 0
0.347029 0.274099 0
0.291856 0.246297 0
0.295938 0.27548 0
0.272836 0.264931 0
0.27461 0.290522 0
0.251228 0.280224 0
0.253903 0.305808 0
0.232795 0.296709 0
0.298805 0.304058 0
1.0801 0.280176 0
1.47689 0.284785 0
1.05315 0.133468 0
1.09741 0.0970974 0
1.82427 0.272867 0
1.2701 0.118911 0
0.816337 0.277695 0
1.40432 0.121101 0
1.04244 0.320388 0
0.959305 0.103028 0
1.60923 0.286151 0
0.601674 0.286775 0
2.00739 0.280923 0
0.342592 0.0992796 0
0.375237 0.105729 0
1.52511 0.298716 0
1.53114 0.119823 0
0.733824 0.287256 0
0.613372 0.114719 0
0.645558 0.0838585 0
2.015 0.115858 0
1.22718 0.0994086 0
1.39166 0.29817 0
1.3564 0.329754 0
0.744134 0.11556 0
0.782853 0.0841771 0
0.826899 0.10047 0
1.17418 0.314034 0
0.520902 0.0906676 0
1.4967 0.329429 0
1.26048 0.0740437 0
0.365514 0.0716355 0
0.229836 0.121666 0
1.57453 0.09137 0
1.61938 0.110761 0
0.481716 0.0753791 0
0.14093 0.2 0
0.130041 0.192847 0
0.131507 0.178608 0
0.117165 0.184444 0
0.120761 0.164701 0
0.1156 0.199931 0
0.100804 0.174136 0
0.102545 0.153034 0
0.12169 0.143342 0
0.104604 0.13008 0
0.0809304 0.161171 0
0.128077 0.121858 0
0.106825 0.102278 0
0.082498 0.188728 0
0.0314738 0.158621 0
2.04625 0.310891 0
2.08475 0.27479 0
2.11394 0.138117 0
0.233149 0.151108 0
0.258724 0.193613 0
0.268522 0.184917 0
1.65397 0.301059 0
0.145962 0.224912 0
0.132503 0.222267 0
0.13746 0.236947 0
0.120111 0.233525 0
0.126593 0.25219 0
0.105294 0.247497 0
0.113343 0.26868 0
0.133997 0.271734 0
0.121622 0.292031 0
0.147069 0.292141 0
0.0896563 0.267464 0
0.0813699 0.243294 0
0.163574 0.276939 0
0.172694 0.298517 0
0.1583 0.321483 0
0.186823 0.322499 0
0.173113 0.348195 0
0.0322087 0.250839 0
0.211694 0.124337 0
0.250615 0.169546 0
0.256243 0.157787 0
0.170796 0.14736 0
0.156755 0.141654 0
0.17187 0.131161 0
0.147502 0.152323 0
0.198129 0.260662 0
0.206368 0.271663 0
0.220945 0.26864 0
0.190489 0.270628 0
0.198813 0.286731 0
0.55749 0.322277 0
0.520166 0.299321 0
0.235199 0.330709 0
0.267109 0.337524 0
0.172324 0.25256 0
0.255974 0.218859 0
0.268327 0.214994 0
0.184197 0.143083 0
0.188721 0.129954 0
0.209694 0.139146 0
0.269223 0.244007 0
0.252374 0.255244 0
0.282229 0.0410487 0
1.21977 0.330016 0
1.25733 0.296346 0
2.09358 0.0890819 0
0.244373 0.240984 0
0.0838116 0.115786 0
0.0797544 0.0817835 0
0.237449 0.264854 0
0.247178 0.146225 0
0.270136 0.2 0
0.28023 0.191334 0
0.263476 0.170737 0
0.371486 0.368728 0
0.396124 0.330051 0
0.440314 0.325693 0
0.357693 0.329668 0
0.476576 0.362035 0
0.29587 0.222914 0
0.307627 0.175476 0
0.079599 0.0406461 0
0.146062 0.252571 0
0.15162 0.125025 0
0.417223 0.294608 0
0.457089 0.286958 0
0.036619 0.338729 0
0.0713014 0.322193 0
0.0735823 0.36704 0
0.041143 0.0722223 0
0.693501 0.32349 0
0.145406 0.175484 0
0.138777 0.164467 0
0.300367 0.0698839 0
0.167025 0.112083 0
0.146978 0.105544 0
0.151909 0.236762 0
0.444611 0.106436 0
0.909355 0.0817561 0
0.282901 0.370713 0
1.61474 0.330739 0
0.578053 0.368179 0
0.824695 0.0487848 0
2.09634 0.3213 0
2.02276 0.364865 0
2.12532 0.363702 0
1.09789 0.328757 0
0.161137 0.260089 0
2.07793 0.225752 0
2.12079 0.240944 0
2.0747 0.0437362 0
1.89402 0.158846 0
1.93154 0.128738 0
1.8848 0.111477 0
1.8384 0.0926484 0
1.87744 0.0655304 0
1.7913 0.0793874 0
1.9712 0.046671 0
1.92502 0.366682 0
1.94563 0.325156 0
1.89941 0.326645 0
1.87499 0.367178 0
1.84989 0.323491 0
1.7997 0.321303 0
1.77183 0.280326 0
1.75031 0.321965 0
1.77491 0.365615 0
2.11727 0.191885 0
0.883187 0.163467 0
1.71449 0.140266 0
1.667 0.125342 0
1.70591 0.0884759 0
1.67732 0.042286 0
1.52278 0.370513 0
1.37512 0.04128 0
1.34848 0.0834574 0
0.776093 0.367587 0
1.125 0.0433013 0
1.15 0.0866019 0
1.07442 0.0496847 0
0.974527 0.0370837 0
1.47464 0.0427918 0
1.44953 0.0873752 0
1.17595 0.362984 0
1.025 0.366699 0
0.925007 0.367031 0
0.95 0.323404 0
0.897321 0.326356 0
0.874563 0.367261 0
0.846552 0.324465 0
1.62923 0.156667 0
1.32319 0.13033 0
1.69342 0.270472 0
1.49568 0.156227 0
1.56237 0.268721 0
1.44 0.319169 0
1.43005 0.267892 0
1.36502 0.152565 0
0.993446 0.294003 0
1.30179 0.321101 0
1.18235 0.127964 0
1.25016 0.2491 0
1.29638 0.266841 0
1.11824 0.247967 0
1.12945 0.294699 0
1.01527 0.165035 0
0.836192 0.147197 0
1.4998 0.0831488 0
1.00655 0.118664 0
0.872896 0.117126 0
0.70523 0.146383 0
1.96013 0.276645 0
0.769406 0.257102 0
0.699552 0.0908977 0
2.1587 0.162257 0
1.97813 0.145326 0
0.646036 0.302035 0
0.799423 0.326603 0
0.515621 0.255445 0
1.72538 0.366474 0
1.97009 0.0998346 0
1.57108 0.313772 0
0.577925 0.14549 0
0.638911 0.256447 0
0.407352 0.0771641 0
0.525103 0.042511 0
0.674231 0.370698 0
1.69802 0.321701 0
0.56947 0.0908728 0
1.75459 0.110239 0
1.80084 0.126127 0
0.673535 0.0431435 0
1.57391 0.0465733 0
2.04571 0.0828469 0
0.10002 0.225545 0
0.0788152 0.21577 0
0.369719 0.224393 0
0.210352 0.308739 0
1.22342 0.0432967 0
[...]
CELL_DATA 1241
VECTORS velocity double
1.01485 -0.0043145 0.0
1.21716 0.0665679 0.0
0.448774 -0.00135646 0.0
0.945921 0.00172514 0.0
1.04334 0.00540935 0.0
1.42284 0.103136 0.0
1.13471 0.000160775 0.0
0.980976 -0.000851216 0.0
0.363215 0.015812 0.0
1.17818 0.00143456 0.0
1.31247 -0.119983 0.0
1.31627 0.126542 0.0
0.865763 -0.160594 0.0
1.01528 0.00862912 0.0
0.990532 0.00669525 0.0
1.46633 -0.0328598 0.0
0.978881 0.000768734 0.0
0.479609 0.0603802 0.0
1.17267 0.0624401 0.0
1.64766 -0.254185 0.0
1.0213 0.00476042 0.0
1.05943 -0.0663058 0.0
1.0373 -0.000357175 0.0
1.25311 0.904905 0.0
1.071 -0.0022658 0.0
1.02444 0.00297108 0.0
1.29897 -0.199427 0.0
1.07636 -0.0253891 0.0
1.32175 -0.0836644 0.0
1.4624 -0.0648881 0.0
1.33199 0.0902536 0.0
0.868139 -0.0369061 0.0
1.52041 0.00265513 0.0
1.01392 0.00690678 0.0
1.25667 -0.056607 0.0
1.35888 0.156948 0.0
1.21261 -0.0554201 0.0
1.05041 -0.167832 0.0
0.359561 0.0205042 0.0
1.38218 0.141343 0.0
1.76451 -0.179792 0.0
1.4133 -0.0454283 0.0
1.05282 -0.237185 0.0
0.504449 0.0069091 0.0
1.3992 -0.167224 0.0
0.499561 -0.00707344 0.0
1.20163 0.0990815 0.0
1.11516 0.0258784 0.0
1.61302 -0.313097 0.0
1.23972 -0.0104914 0.0
1.21309 0.000992033 0.0
1.29083 -0.417495 0.0
0.869564 -0.00365485 0.0
1.40863 -0.0823867 0.0
1.77524 -0.279598 0.0
1.51896 -0.02873 0.0
1.15081 -0.0400819 0.0
1.12693 -0.000239227 0.0
1.65843 -0.0990747 0.0
1.68774 -0.199351 0.0
1.15855 0.847307 0.0
0.995147 -0.000133517 0.0
0.19564 0.0357664 0.0
1.0272 0.00717057 0.0
-0.240047 0.0714358 0.0
1.33192 0.227576 0.0
-0.279561 0.0862189 0.0
1.16621 -0.00146382 0.0
0.863185 -0.0258913 0.0
0.218237 0.0244522 0.0
1.16703 -0.00517789 0.0
0.793468 0.0141325 0.0
1.166 -0.00472436 0.0
0.791769 -0.0137443 0.0
1.20503 0.00735671 0.0
0.881294 0.157085 0.0
0.942367 0.00706783 0.0
1.63146 -0.0464862 0.0
0.979679 -0.0346232 0.0
0.612313 0.00127831 0.0
1.75195 -0.382999 0.0
1.15969 -0.246727 0.0
0.657855 0.0119229 0.0
1.26146 -0.227362 0.0
1.34581 0.170067 0.0
0.9194 -0.0667389 0.0
1.20699 0.178076 0.0
0.086148 0.0984848 0.0
1.83885 0.530381 0.0
1.19069 0.00342944 0.0
1.27214 0.010186 0.0
-0.189623 -0.0110347 0.0
-0.347985 0.0783051 0.0
1.44314 -0.0646628 0.0
1.18242 -0.0408122 0.0
0.98612 0.00124212 0.0
0.849295 -0.025859 0.0
-0.18446 0.0905946 0.0
1.01745 -0.0112736 0.0
-0.24421 0.112605 0.0
1.08214 -0.0985569 0.0
1.15825 -0.0146133 0.0
0.947014 0.00249584 0.0
1.63919 -0.161251 0.0
1.74236 -0.670639 0.0
1.27316 -0.3979 0.0
1.07136 -0.0619987 0.0
0.498321 -0.0236374 0.0
1.788 0.649652 0.0
1.22305 0.00325668 0.0
1.48534 -0.109237 0.0
1.23099 0.18971 0.0
0.131663 0.0759713 0.0
1.44146 -0.027002 0.0
1.0801 0.0148885 0.0
1.44262 0.0400883 0.0
1.41406 0.00477572 0.0
1.39192 0.0529304 0.0
1.06566 -0.00216226 0.0
0.255378 0.039744 0.0
1.19014 0.0421699 0.0
1.51967 0.581799 0.0
1.25162 0.10828 0.0
0.919969 -0.0634794 0.0
0.726901 -0.099365 0.0
1.20481 0.0860806 0.0
1.44699 -0.042958 0.0
1.11866 0.0245887 0.0
1.74958 0.501388 0.0
0.549917 -0.0713172 0.0
1.16509 -0.0148178 0.0
0.621629 -0.00170048 0.0
0.885927 0.0638791 0.0
1.60328 -0.0215721 0.0
1.01953 -0.153276 0.0
-0.276045 0.0745719 0.0
0.123204 0.0625046 0.0
1.22658 0.0822502 0.0
1.04863 -0.0252482 0.0
1.66384 -0.761311 0.0
1.50088 0.00357291 0.0
1.03526 0.00594089 0.0
1.07835 -0.245051 0.0
1.00495 0.00699745 0.0
1.52354 0.00723871 0.0
0.022413 0.0311922 0.0
-0.254476 0.0380493 0.0
-0.1827 0.00603322 0.0
0.641144 0.0154147 0.0
0.652477 -0.0116726 0.0
0.555344 -0.101532 0.0
1.03487 -0.00710785 0.0
1.79635 -0.332597 0.0
1.04794 -0.153428 0.0
1.20282 -0.0491844 0.0
1.20456 0.0544223 0.0
0.486375 -0.000852806 0.0
1.64363 0.0738085 0.0
0.857171 0.0303889 0.0
1.24834 -0.0570138 0.0
-0.230503 0.0469976 0.0
1.74048 0.446495 0.0
1.14316 0.00800286 0.0
1.22204 -0.204902 0.0
1.143 0.0341833 0.0
1.05422 0.130243 0.0
0.98236 -0.00080444 0.0
0.987064 0.109855 0.0
0.565389 -0.00344173 0.0
1.17149 -0.0342082 0.0
0.929093 -0.0246862 0.0
1.23292 0.00359975 0.0
1.36547 0.265536 0.0
1.19096 0.0866321 0.0
1.10505 0.00559986 0.0
1.11604 0.00642557 0.0
1.1826 0.198705 0.0
1.12009 -0.287604 0.0
1.11418 0.0119027 0.0
1.16602 -0.22527 0.0
1.11952 0.00908527 0.0
0.363156 0.110203 0.0
1.08768 -0.644371 0.0
0.73058 -0.127091 0.0
1.02433 -0.00849568 0.0
0.7657 -0.0789938 0.0
0.762221 -0.0636681 0.0
1.02737 0.00768848 0.0
1.05545 0.0959225 0.0
0.461051 0.0470123 0.0
0.889597 -0.829905 0.0
1.77864 0.345083 0.0
1.02834 -0.00208057 0.0
0.983207 0.0066363 0.0
0.667344 0.0602295 0.0
0.853029 0.0569378 0.0
0.397737 0.0590091 0.0
0.999338 -0.0150161 0.0
1.42771 -0.0322274 0.0
1.44965 0.581442 0.0
1.15458 0.193114 0.0
1.06916 -0.0135565 0.0
1.42685 0.0384025 0.0
1.04166 -0.0923295 0.0
1.40101 -0.0915055 0.0
1.436 -0.0446936 0.0
0.483269 0.0244201 0.0
0.662157 0.0126136 0.0
0.899936 -0.0227626 0.0
0.857708 0.0335088 0.0
0.519789 0.0171245 0.0
0.514776 -0.00293557 0.0
1.79011 0.286507 0.0
1.11176 0.0114569 0.0
1.44072 -0.00358682 0.0
1.12155 0.0120292 0.0
0.731732 -0.0774025 0.0
1.5112 -0.0907133 0.0
1.17586 -0.030733 0.0
1.16278 -0.0127973 0.0
0.833097 -0.0495831 0.0
1.67135 -0.0705066 0.0
1.01021 0.05534 0.0
0.996229 0.0113939 0.0
0.958772 -0.0261767 0.0
1.23138 0.00259362 0.0
1.4355 -0.137365 0.0
1.72981 -0.600863 0.0
1.18369 -0.00601484 0.0
1.20218 -0.0109248 0.0
0.991417 -0.000423877 0.0
1.06355 -0.132776 0.0
1.02844 -0.0101024 0.0
0.996729 -0.00660101 0.0
1.25793 0.310859 0.0
1.03831 -0.256619 0.0
1.09409 0.171582 0.0
1.31877 0.132437 0.0
0.743785 -0.106724 0.0
0.355088 -0.0454551 0.0
0.958864 0.0159346 0.0
1.4387 0.0570247 0.0
1.42204 0.918327 0.0
0.682938 -0.085189 0.0
1.15105 -0.017113 0.0
1.70424 0.140316 0.0
1.09691 -0.898563 0.0
0.868426 -0.177615 0.0
1.14105 -0.0375984 0.0
0.560543 -0.00831524 0.0
1.02619 0.0270664 0.0
0.545161 -0.00960664 0.0
1.03132 -0.00461533 0.0
1.22402 0.00321237 0.0
0.620127 -0.011908 0.0
0.77571 -0.0336779 0.0
1.09485 -0.28547 0.0
1.32606 -0.104643 0.0
1.22179 0.000952321 0.0
1.0197 -0.00166048 0.0
1.00263 0.00865148 0.0
0.508758 -0.00573568 0.0
1.22493 0.00589334 0.0
0.736717 -0.0260765 0.0
1.12788 0.0435321 0.0
0.995856 -0.0100031 0.0
0.567394 0.00351046 0.0
1.24094 -0.109948 0.0
1.22742 -0.171044 0.0
0.789338 -0.026645 0.0
1.13969 -0.0653489 0.0
0.586722 0.00167203 0.0
0.982908 -0.0150967 0.0
0.116409 0.0674 0.0
1.20079 8.58833e-05 0.0
1.19685 -0.0103792 0.0
0.596835 -0.00400712 0.0
0.942575 -0.194261 0.0
0.986998 -0.0151413 0.0
1.42997 0.154477 0.0
1.19682 0.00117827 0.0
1.23261 -0.00121638 0.0
1.22356 -0.170782 0.0
1.23403 -0.00275967 0.0
1.23277 0.000907366 0.0
1.17162 -0.017169 0.0
0.934908 -0.114559 0.0
0.835802 0.0428676 0.0
1.23399 -0.00501621 0.0
1.231 -0.000654543 0.0
1.22647 -0.00186896 0.0
0.634926 0.0704973 0.0
0.459816 0.00506166 0.0
0.997926 0.0100304 0.0
0.547584 -0.00751818 0.0
1.23234 -0.00547596 0.0
1.00216 -0.0179311 0.0
1.16154 0.0103809 0.0
-0.261299 -0.0268446 0.0
0.966947 -0.0116726 0.0
0.501866 -0.00451194 0.0
1.31889 -0.604722 0.0
1.12249 -0.00744299 0.0
0.970658 -0.0156736 0.0
0.52617 -0.0100284 0.0
1.23216 -0.00310713 0.0
0.868338 0.0407467 0.0
0.534687 0.00161814 0.0
0.992708 -0.0151274 0.0
1.23254 -0.00559456 0.0
1.22541 -0.00262773 0.0
1.23046 -0.0030849 0.0
0.622985 -0.00710063 0.0
0.446605 0.000285096 0.0
1.22984 -0.00648412 0.0
1.14161 -0.0735072 0.0
1.20439 -0.00724861 0.0
0.605118 0.00996757 0.0
1.18468 -0.00817788 0.0
1.22307 -0.00552581 0.0
1.21015 0.00100141 0.0
1.23499 -0.00724571 0.0
0.467163 -0.00669026 0.0
1.22815 -0.0064261 0.0
1.22963 -0.00649522 0.0
1.21989 -0.00691975 0.0
0.456952 -0.00376839 0.0
1.21559 -0.00274907 0.0
1.18294 -0.00618376 0.0
1.20054 -0.00109159 0.0
1.23245 -0.00737413 0.0
1.17045 -0.15789 0.0
1.12926 0.00141862 0.0
1.23369 -0.00746823 0.0
1.35089 0.668532 0.0
1.21739 -0.00658013 0.0
0.510418 -0.00689123 0.0
1.09711 -0.0221318 0.0
0.565804 0.00806115 0.0
0.594336 -0.00936651 0.0
1.11778 0.00693793 0.0
1.09692 -0.0124376 0.0
1.07063 -0.00785702 0.0
0.532675 -0.00806439 0.0
1.10287 -0.0218388 0.0
1.12467 0.005531 0.0
1.23093 -0.0078554 0.0
1.07385 0.139023 0.0
1.15506 -0.696811 0.0
0.562927 -0.00477917 0.0
0.521078 -0.00541868 0.0
1.22623 -0.00593319 0.0
1.22812 -0.00815487 0.0
0.619069 -0.0183128 0.0
0.509157 -0.00923034 0.0
1.22355 -0.00516482 0.0
0.992037 0.0165628 0.0
1.16146 0.0114134 0.0
1.1559 -0.00739562 0.0
0.566218 0.00710654 0.0
0.517709 -0.00223379 0.0
1.14391 0.0172495 0.0
0.602373 0.0141732 0.0
0.56835 0.0146602 0.0
1.17399 0.00899116 0.0
0.618714 0.0205884 0.0
0.570517 -0.000848459 0.0
1.21396 -0.00436933 0.0
1.20139 -0.00351762 0.0
0.961792 0.0161164 0.0
1.2105 -0.00205848 0.0
1.18243 -0.00224165 0.0
1.21833 -0.00328834 0.0
0.982834 0.0121747 0.0
1.15176 -0.00294532 0.0
0.607574 0.00587831 0.0
0.50102 0.0140511 0.0
0.55108 0.0140733 0.0
0.467152 -0.00808758 0.0
0.533176 0.000712676 0.0
0.556569 -0.00525937 0.0
0.526055 -0.00278628 0.0
0.639816 -0.0138206 0.0
0.542622 -0.00465477 0.0
0.574102 0.0132811 0.0
0.487911 -0.00740104 0.0
0.576066 0.0155464 0.0
0.496145 7.19817e-05 0.0
0.678885 0.0213253 0.0
0.578206 0.0100899 0.0
0.572024 -0.0115027 0.0
0.488964 0.00268509 0.0
0.527002 -0.00219925 0.0
0.50914 0.0078165 0.0
0.611768 -0.00978327 0.0
0.534271 -0.00105369 0.0
0.601241 -0.00767064 0.0
0.558466 -0.0123229 0.0
0.54436 0.00676441 0.0
0.522411 6.71412e-05 0.0
0.538434 0.00391947 0.0
0.479415 -0.016961 0.0
0.491437 0.0197007 0.0
0.493741 0.000434678 0.0
0.556517 -0.00719292 0.0
0.494631 0.00320849 0.0
0.646125 -0.0210788 0.0
0.492165 0.00614415 0.0
0.465171 0.00537362 0.0
0.507184 0.000888438 0.0
0.484149 -0.00280462 0.0
1.18081 -0.00145031 0.0
1.16145 -0.00622332 0.0
1.22629 -0.00739321 0.0
1.22416 -0.00515894 0.0
1.22723 -0.00538014 0.0
1.11898 -0.00769087 0.0
1.1978 -0.00695453 0.0
1.17867 -0.00660427 0.0
1.18245 0.0045639 0.0
1.15437 -0.00166424 0.0
1.21009 -0.00789392 0.0
1.21265 -0.0086253 0.0
1.17457 -0.00647659 0.0
1.21964 -0.00373972 0.0
1.19562 -0.00061404 0.0
1.22092 -0.00611017 0.0
1.19391 -0.00716422 0.0
1.15231 0.0013813 0.0
1.21731 -0.00621799 0.0
1.2226 -0.00430276 0.0
1.20777 -0.00113421 0.0
1.22102 -0.00380122 0.0
1.21644 -0.00523107 0.0
1.15646 -0.00887329 0.0
1.22072 -0.00195135 0.0
1.19781 -0.00334647 0.0
1.21777 -0.00132734 0.0
1.12045 -0.00136318 0.0
1.19911 -0.00293019 0.0
1.19185 0.00158809 0.0
1.21288 -0.0015006 0.0
1.17571 -0.00142929 0.0
1.21268 -0.00238641 0.0
1.21584 -0.00244421 0.0
1.18578 0.00422789 0.0
1.21627 -0.00145835 0.0
1.20818 -0.00412512 0.0
1.21076 0.000484065 0.0
1.15287 -0.00843193 0.0
1.17748 -0.00243173 0.0
1.21378 0.000238479 0.0
1.20566 -0.00340582 0.0
1.20236 0.0020127 0.0
1.19929 0.00345779 0.0
1.16073 -0.0127223 0.0
1.21114 0.000330303 0.0
1.20766 0.000705865 0.0
1.13777 -0.00593003 0.0
1.19367 -0.00430187 0.0
1.12174 0.0032704 0.0
1.17961 -0.0043256 0.0
1.18989 -0.00395301 0.0
1.20195 -0.00365657 0.0
1.20798 -0.00130399 0.0
1.17541 -0.00444263 0.0
1.20557 -0.00348722 0.0
1.20413 -0.00105398 0.0
1.20604 0.000461184 0.0
1.20213 0.00295743 0.0
1.19869 0.00328516 0.0
1.19586 0.00362123 0.0
1.1846 0.00588548 0.0
1.13598 -0.0064252 0.0
1.09404 0.00773483 0.0
1.17935 0.00705646 0.0
1.20198 0.00085453 0.0
0.576282 -0.00622726 0.0
1.1881 0.0058341 0.0
1.14868 0.00751388 0.0
1.17085 0.00779584 0.0
1.19979 0.00298252 0.0
1.16845 0.00748787 0.0
1.17881 0.00561245 0.0
1.17166 0.000187423 0.0
1.19083 0.00539041 0.0
1.17859 -0.000899582 0.0
1.13358 -0.00521502 0.0
1.13334 -0.00816942 0.0
1.15697 -0.00496483 0.0
1.18724 0.00662783 0.0
1.17519 -0.00423628 0.0
1.18568 0.00336561 0.0
1.16849 -0.00404611 0.0
1.18543 -0.0039368 0.0
1.18967 0.00280477 0.0
1.18291 0.00586951 0.0
0.979227 -0.0136748 0.0
1.17299 -0.0036323 0.0
1.17547 0.00780587 0.0
1.14585 0.00905181 0.0
1.19056 -0.00240142 0.0
1.1944 0.000169778 0.0
1.08215 -0.017765 0.0
1.16563 0.0109756 0.0
1.17926 -0.00363657 0.0
1.14725 0.015008 0.0
1.19001 -6.88416e-05 0.0
1.14991 0.0177157 0.0
1.16812 -0.00447492 0.0
1.19417 -0.00236566 0.0
1.17516 -0.0011518 0.0
1.11937 0.176574 0.0
1.15294 -0.00743929 0.0
1.22211 -0.00942501 0.0
1.17128 0.00950245 0.0
1.17582 0.00114079 0.0
1.15756 -0.0135258 0.0
1.16148 -0.00360531 0.0
1.13936 -0.00312905 0.0
1.16143 -0.00963691 0.0
1.16804 0.00268898 0.0
1.14087 -0.00124273 0.0
1.16297 0.00235843 0.0
1.16418 -0.00684223 0.0
1.16399 -0.00288502 0.0
1.14954 0.0120438 0.0
1.16032 -0.00524686 0.0
0.718469 -0.0205181 0.0
0.972292 0.00481376 0.0
1.14498 0.0142981 0.0
1.14776 0.0094968 0.0
1.15505 -0.00770392 0.0
1.14136 0.0120006 0.0
1.148 0.0144088 0.0
1.14508 -0.00234947 0.0
1.12753 0.00090936 0.0
1.13997 -0.00312451 0.0
1.13351 0.000991629 0.0
1.12146 0.012088 0.0
1.15828 0.00572417 0.0
1.15244 0.00861379 0.0
0.995157 0.00854358 0.0
1.15368 0.00591406 0.0
1.15779 0.0117293 0.0
1.15045 0.0121953 0.0
1.1148 0.0151857 0.0
1.13603 0.01575 0.0
1.15463 0.0126697 0.0
1.73546 0.181667 0.0
1.11982 -0.0105235 0.0
1.12748 0.019287 0.0
1.0998 -0.0222424 0.0
1.14944 0.0218868 0.0
1.14782 0.0161745 0.0
1.11348 -0.0128823 0.0
1.14653 0.0219966 0.0
1.22231 -0.00615834 0.0
1.07075 -0.00976126 0.0
1.09886 0.0153054 0.0
1.09705 -0.00686258 0.0
1.30721 0.126052 0.0
1.21785 -0.00546909 0.0
1.08353 -0.00223045 0.0
1.15515 -0.00770583 0.0
1.1402 0.0281882 0.0
1.14665 0.0224732 0.0
1.08959 -0.00848281 0.0
1.09398 -0.0272859 0.0
0.980789 -0.0155359 0.0
1.19334 -0.0014178 0.0
1.06702 0.000688567 0.0
1.07664 0.000220697 0.0
1.12084 0.0247223 0.0
1.11988 -0.0267357 0.0
1.02975 0.198338 0.0
0.961103 -0.015561 0.0
1.13637 0.0338043 0.0
0.442081 -0.164369 0.0
1.38214 0.13142 0.0
1.18142 -0.0521741 0.0
1.06469 0.0103078 0.0
1.06588 0.0257393 0.0
1.05415 0.0364064 0.0
1.21832 -0.00195835 0.0
1.05225 0.0143402 0.0
1.03766 -0.0440665 0.0
1.30216 0.175951 0.0
1.00322 -0.142425 0.0
1.03279 -0.0577908 0.0
1.15154 -0.133319 0.0
1.14894 -0.0128226 0.0
1.09525 -0.0480758 0.0
1.18092 -0.00355819 0.0
0.936517 0.00178998 0.0
1.18102 0.0540581 0.0
1.00811 -0.0138684 0.0
1.23793 -0.101809 0.0
1.21648 -0.0056542 0.0
1.20431 -0.00656478 0.0
1.05533 -0.019987 0.0
1.39838 -0.56747 0.0
1.13243 0.0834713 0.0
0.994872 -0.0202313 0.0
1.13262 0.0669228 0.0
0.956994 0.0015092 0.0
0.758238 0.0280941 0.0
1.08963 0.044973 0.0
1.32725 -0.160587 0.0
0.93315 -0.0907989 0.0
1.09875 -0.0396368 0.0
0.632626 -0.556522 0.0
1.11036 -0.0280522 0.0
1.11636 -0.00716596 0.0
1.15412 -0.00774161 0.0
1.39114 -0.139399 0.0
1.08031 0.0600633 0.0
1.18086 -0.00276709 0.0
1.0472 -0.0262231 0.0
1.16357 0.0362066 0.0
0.989029 -0.0179463 0.0
1.34995 -0.771791 0.0
1.22666 0.00453163 0.0
1.17968 0.0514823 0.0
1.20187 0.00278282 0.0
1.12673 -0.000811599 0.0
1.18053 -0.056547 0.0
1.06596 0.020139 0.0
1.21072 0.0814392 0.0
1.12237 -0.00797252 0.0
1.15906 0.044165 0.0
0.956362 0.00167591 0.0
1.15176 0.0112594 0.0
1.1805 -0.531638 0.0
0.659592 -0.00606569 0.0
0.681199 -0.0231629 0.0
0.924894 0.0271305 0.0
1.26625 0.119692 0.0
1.15296 -0.00625828 0.0
1.18178 -0.00513709 0.0
0.607329 0.0101763 0.0
1.20184 -0.00591952 0.0
0.327986 -0.123534 0.0
1.07327 -0.099237 0.0
0.550417 0.00910381 0.0
0.556661 -0.0109499 0.0
0.899485 0.0403 0.0
1.15817 -0.00625259 0.0
0.863952 -0.174346 0.0
0.847682 -0.0254862 0.0
1.68893 -0.125072 0.0
0.94166 0.0373911 0.0
1.15247 -0.0107042 0.0
1.15307 -0.0121697 0.0
1.05357 0.00873522 0.0
1.22389 0.00344506 0.0
1.17899 0.00116579 0.0
1.18511 0.348333 0.0
0.620779 0.0173396 0.0
1.0205 0.00168801 0.0
1.36951 -0.0978658 0.0
0.537524 0.00768733 0.0
1.58076 0.560941 0.0
0.933894 -0.0417682 0.0
0.796389 -0.026676 0.0
1.34131 0.0881784 0.0
0.781924 -0.0538173 0.0
0.95558 -0.00117853 0.0
0.668468 -0.116183 0.0
1.15572 -0.0169756 0.0
0.881004 0.0996561 0.0
1.13573 -0.0145488 0.0
0.658828 -0.00413604 0.0
1.03045 0.00555133 0.0
0.980521 0.136277 0.0
1.40943 -0.0326743 0.0
0.520703 -0.00355161 0.0
0.636515 -0.0245552 0.0
0.918748 0.805444 0.0
1.11053 -0.00105816 0.0
1.05182 0.0115878 0.0
1.39253 0.0136134 0.0
0.602591 -0.0104979 0.0
1.13184 0.0185108 0.0
1.16664 -0.448607 0.0
0.186485 0.022394 0.0
0.925149 -0.0632689 0.0
1.07018 -0.0833223 0.0
0.735483 0.023938 0.0
0.519069 0.0178525 0.0
1.64902 0.0363754 0.0
1.15503 -0.00538591 0.0
0.311487 0.0152321 0.0
0.571611 0.0249404 0.0
1.14454 -0.00606498 0.0
1.2036 -0.00627301 0.0
1.0023 -0.0186303 0.0
0.938024 0.0624042 0.0
1.20927 0.172594 0.0
0.640615 0.0108178 0.0
1.20534 0.00752448 0.0
0.919524 0.0928541 0.0
1.20896 -0.00870985 0.0
1.38799 -0.593459 0.0
0.511487 0.00114966 0.0
1.45932 -0.129912 0.0
1.11026 0.00850996 0.0
0.950013 -0.0142681 0.0
0.6216 0.0903342 0.0
0.99126 0.10188 0.0
0.897476 0.139872 0.0
1.11291 0.00983318 0.0
1.2179 -0.0580029 0.0
1.39921 -0.0369352 0.0
0.586964 0.00504524 0.0
0.611106 0.0150195 0.0
1.07354 -0.0036728 0.0
0.404543 -0.072894 0.0
1.04404 0.0365796 0.0
0.492069 0.00348563 0.0
0.963504 -0.0113 0.0
1.11145 -0.00452849 0.0
0.94072 -0.00958252 0.0
0.557844 -0.00674548 0.0
0.556556 0.0187507 0.0
0.567753 0.00952998 0.0
0.512484 0.00718248 0.0
0.586934 0.0114376 0.0
1.21071 0.669597 0.0
1.3609 0.0695836 0.0
0.965459 -0.00307718 0.0
0.538221 0.00802648 0.0
0.550096 -0.0127146 0.0
0.699819 0.0249568 0.0
1.15681 -0.0474712 0.0
0.619548 0.00111373 0.0
1.60379 -0.193097 0.0
1.29607 0.0954652 0.0
0.536993 -0.140689 0.0
1.34546 -0.0936416 0.0
1.52681 -0.466853 0.0
1.01069 0.00553284 0.0
1.0908 0.0186364 0.0
1.14042 -0.0122982 0.0
0.959743 0.00320685 0.0
0.837047 -0.689208 0.0
1.02748 -0.00199635 0.0
0.979793 -0.0056402 0.0
1.20384 -0.0130056 0.0
1.12246 -0.0341522 0.0
1.6483 -0.000159522 0.0
-0.120873 0.0977608 0.0
0.506463 -0.0687247 0.0
1.33617 0.518182 0.0
1.07292 -0.0121749 0.0
0.607605 -0.0120329 0.0
0.578699 -0.00571948 0.0
0.57348 -0.00604819 0.0
1.22486 0.00555953 0.0
0.633663 0.211247 0.0
1.17455 -0.0245789 0.0
0.976976 0.0125916 0.0
0.751181 0.16306 0.0
1.12535 -0.00181005 0.0
0.138232 -0.00970997 0.0
1.19112 0.00569697 0.0
0.565588 0.0209286 0.0
0.563129 -0.0103819 0.0
1.34 0.0854954 0.0
0.839151 -0.0116641 0.0
1.50629 0.0319986 0.0
0.974358 0.0153298 0.0
0.990205 0.0115547 0.0
0.111509 -0.166264 0.0
0.971723 0.0290939 0.0
1.16959 0.0135156 0.0
1.15251 0.0135523 0.0
0.355948 -0.136164 0.0
1.61632 -0.273229 0.0
1.09471 -0.000537984 0.0
1.28747 0.195007 0.0
0.589523 -0.0140224 0.0
0.556566 -0.00765078 0.0
1.12383 -0.0167236 0.0
0.530698 0.0896737 0.0
1.12489 -0.0271877 0.0
0.809624 0.0217626 0.0
0.935161 -0.00835259 0.0
1.13106 0.0122842 0.0
0.995319 -0.00332333 0.0
0.201884 -0.0209014 0.0
1.14968 -0.0133046 0.0
0.309791 0.0604524 0.0
1.01011 -0.000419568 0.0
1.00076 -0.00385429 0.0
0.57573 -0.0154893 0.0
1.07246 -0.0094305 0.0
1.17459 -0.0247761 0.0
0.947807 0.000698364 0.0
0.991682 -0.0134746 0.0
1.20021 -0.964611 0.0
1.13221 0.0223701 0.0
1.6927 0.486944 0.0
0.553201 -0.0166641 0.0
0.542351 0.00645187 0.0
1.16708 0.0063696 0.0
1.22778 -0.00662149 0.0
1.11429 -0.00839354 0.0
1.12309 -0.00167363 0.0
1.18108 0.00620291 0.0
1.13115 0.00575613 0.0
1.21874 -0.00935535 0.0
1.15073 0.0257604 0.0
-0.198368 0.018806 0.0
1.1038 0.0149856 0.0
-0.0252028 0.0287937 0.0
0.664249 -0.0256485 0.0
1.20444 -0.177468 0.0
1.14772 -0.0120965 0.0
1.3684 -0.137981 0.0
1.64629 -0.502431 0.0
0.314249 -0.0181112 0.0
1.21245 -0.00864169 0.0
1.129 0.27202 0.0
1.35136 -0.0982728 0.0
1.07137 0.305698 0.0
1.70949 0.0868842 0.0
0.975233 -0.54244 0.0
1.37208 0.132337 0.0
1.12215 -0.0164373 0.0
1.28963 -0.480968 0.0
-0.0873037 -0.108103 0.0
1.0602 -0.000160582 0.0
1.31864 -0.394857 0.0
0.496285 -0.00487545 0.0
1.41865 -0.149964 0.0
1.68465 0.198476 0.0
1.09149 0.0136045 0.0
0.393869 0.0156162 0.0
0.717031 0.00183527 0.0
0.267866 -0.228445 0.0
0.957052 0.045952 0.0
-0.118644 -0.0299391 0.0
1.14647 -0.162405 0.0
1.49639 0.143737 0.0
0.536931 0.00909192 0.0
1.2293 -0.0687951 0.0
0.96591 0.000599638 0.0
1.21593 0.00481289 0.0
0.435145 -0.615504 0.0
1.22864 0.264382 0.0
0.729272 -0.162557 0.0
0.191333 -0.33092 0.0
0.517623 0.160695 0.0
1.3026 0.238504 0.0
0.597988 0.152211 0.0
0.968607 -0.0129975 0.0
1.14076 -0.0164371 0.0
1.0827 0.01121 0.0
1.07653 0.00883331 0.0
0.571116 0.00735938 0.0
0.0236954 0.0820203 0.0
1.3083 0.299794 0.0
0.467452 -0.00220922 0.0
1.10148 0.0101328 0.0
0.264443 0.21629 0.0
0.972934 -0.0050348 0.0