# vtk DataFile Version 3.0
Malha 2D com triângulos e temperatura
ASCII
DATASET UNSTRUCTURED_GRID

POINTS 688 double
0 0 0
2.2 0 0
2.2 0.41 0
0 0.41 0
0.25 0.2 0
0.05 0 0
0.1 0 0
0.15 0 0
0.2 0 0
0.25 0 0
0.3 0 0
0.35 0 0
0.4 0 0
0.45 0 0
0.5 0 0
0.55 0 0
0.6 0 0
0.65 0 0
0.7 0 0
0.75 0 0
0.8 0 0
0.85 0 0
0.9 0 0
0.95 0 0
1 0 0
1.05 0 0
1.1 0 0
1.15 0 0
1.2 0 0
1.25 0 0
1.3 0 0
1.35 0 0
1.4 0 0
1.45 0 0
1.5 0 0
1.55 0 0
1.6 0 0
1.65 0 0
1.7 0 0
1.75 0 0
1.8 0 0
1.85 0 0
1.9 0 0
1.95 0 0
2 0 0
2.05 0 0
2.1 0 0
2.15 0 0
2.2 0.0455556 0
2.2 0.0911111 0
2.2 0.136667 0
2.2 0.182222 0
2.2 0.227778 0
2.2 0.273333 0
2.2 0.318889 0
2.2 0.364444 0
2.15 0.41 0
2.1 0.41 0
2.05 0.41 0
2 0.41 0
1.95 0.41 0
1.9 0.41 0
1.85 0.41 0
1.8 0.41 0
1.75 0.41 0
1.7 0.41 0
1.65 0.41 0
1.6 0.41 0
1.55 0.41 0
1.5 0.41 0
1.45 0.41 0
1.4 0.41 0
1.35 0.41 0
1.3 0.41 0
1.25 0.41 0
1.2 0.41 0
1.15 0.41 0
1.1 0.41 0
1.05 0.41 0
1 0.41 0
0.95 0.41 0
0.9 0.41 0
0.85 0.41 0
0.8 0.41 0
0.75 0.41 0
0.7 0.41 0
0.65 0.41 0
0.6 0.41 0
0.55 0.41 0
0.5 0.41 0
0.45 0.41 0
0.4 0.41 0
0.35 0.41 0
0.3 0.41 0
0.25 0.41 0
0.2 0.41 0
0.15 0.41 0
0.1 0.41 0
0.05 0.41 0
0 0.364444 0
0 0.318889 0
0 0.273333 0
0 0.227778 0
0 0.182222 0
0 0.136667 0
0 0.0911111 0
0 0.0455556 0
0.248831 0.210749 0
0.245379 0.220994 0
0.239805 0.230259 0
0.232369 0.238108 0
0.22342 0.244176 0
0.213376 0.248177 0
0.202707 0.249927 0
0.191911 0.249341 0
0.181493 0.246449 0
0.171941 0.241384 0
0.1637 0.234385 0
0.157157 0.225778 0
0.152617 0.215965 0
0.150293 0.205406 0
0.150293 0.194594 0
0.152617 0.184035 0
0.157157 0.174222 0
0.1637 0.165615 0
0.171941 0.158616 0
0.181493 0.153551 0
0.191911 0.150659 0
0.202707 0.150073 0
0.213376 0.151823 0
0.22342 0.155824 0
0.232369 0.161892 0
0.239805 0.169741 0
0.245379 0.179006 0
0.248831 0.189251 0
0.421316 0.36725 0
0.426705 0.0366526 0
2.16065 0.209201 0
1.52286 0.0417259 0
0.626017 0.37111 0
1.3257 0.0414552 0
1.02471 0.0432237 0
1.17293 0.0421053 0
0.82501 0.36678 0
1.6757 0.370064 0
1.91628 0.0358195 0
1.82501 0.366432 0
0.723429 0.0421499 0
1.425 0.366699 0
1.97461 0.366224 0
1.12167 0.370137 0
0.975 0.368691 0
0.877672 0.0412714 0
1.27686 0.36884 0
1.725 0.0433013 0
0.579174 0.0416211 0
0.325589 0.363848 0
0.319111 0.0378151 0
0.0394523 0.296111 0
0.0329929 0.11602 0
0.142108 0.187428 0
1.57555 0.364352 0
2.02603 0.0412138 0
0.725007 0.36763 0
0.528647 0.366595 0
1.62699 0.0400272 0
1.82929 0.0421255 0
1.425 0.0418325 0
2.07474 0.364233 0
0.125 0.0433013 0
0.161245 0.155011 0
0.225 0.366699 0
0.210027 0.258536 0
2.16034 0.115449 0
0.0371627 0.204103 0
0.142311 0.212698 0
0.220283 0.0418538 0
0.221965 0.145099 0
0.196802 0.141016 0
0.119851 0.373394 0
0.161112 0.245979 0
0.184892 0.258024 0
2.16342 0.30039 0
2.12627 0.047699 0
0.183325 0.0412617 0
0.152317 0.0762976 0
0.203864 0.0745802 0
0.234384 0.0774346 0
0.215969 0.103585 0
0.245651 0.104548 0
0.186562 0.100216 0
0.268213 0.0793029 0
0.272149 0.109155 0
0.242885 0.159377 0
0.253088 0.128261 0
0.278718 0.13214 0
0.295917 0.115997 0
0.301728 0.138858 0
0.321266 0.12205 0
0.324642 0.151724 0
0.255978 0.181139 0
0.350123 0.129049 0
0.357539 0.159885 0
0.333541 0.181416 0
0.36451 0.19182 0
0.250573 0.230419 0
0.391277 0.169722 0
0.339477 0.212308 0
0.39836 0.205386 0
0.427326 0.18117 0
0.258724 0.206387 0
0.434392 0.219501 0
0.466446 0.193907 0
0.472865 0.243064 0
0.507358 0.209962 0
0.40073 0.238916 0
0.499135 0.1652 0
0.5419 0.179224 0
0.550176 0.22496 0
0.585844 0.194129 0
0.594095 0.240176 0
0.630701 0.209517 0
0.621901 0.162424 0
0.667731 0.178095 0
0.676485 0.226008 0
0.713906 0.194492 0
0.722681 0.242872 0
0.760442 0.211047 0
0.751547 0.162356 0
0.798298 0.179 0
0.807147 0.227866 0
0.845136 0.195775 0
0.854541 0.243285 0
0.892163 0.212344 0
0.902461 0.257947 0
0.93935 0.228684 0
0.930236 0.180167 0
0.977229 0.197066 0
0.986264 0.245777 0
1.02423 0.213991 0
1.0331 0.263172 0
1.07123 0.230975 0
1.06234 0.181814 0
1.10938 0.198721 0
1.09996 0.151012 0
1.14691 0.168161 0
1.15631 0.215921 0
1.19446 0.183678 0
1.20343 0.232645 0
1.2416 0.200322 0
1.23272 0.151117 0
1.2798 0.167954 0
1.28868 0.217167 0
1.32685 0.184862 0
1.33573 0.234064 0
1.3739 0.201768 0
0.789327 0.130094 0
1.38279 0.25097 0
1.42096 0.218674 0
1.41207 0.169471 0
1.45912 0.186378 0
1.46801 0.235581 0
1.50618 0.203285 0
1.51506 0.252489 0
1.55323 0.220192 0
1.54435 0.170989 0
1.5914 0.187896 0
1.60029 0.2371 0
1.63846 0.204803 0
1.64734 0.254007 0
1.68551 0.221711 0
1.67663 0.172507 0
1.72368 0.189415 0
1.73831 0.241548 0
1.77074 0.206322 0
1.76185 0.157121 0
1.8091 0.17428 0
1.81866 0.220885 0
1.85608 0.190621 0
1.86521 0.238879 0
1.90289 0.207671 0
1.91264 0.253772 0
1.94955 0.224093 0
1.94067 0.17593 0
1.98705 0.192828 0
1.99572 0.240997 0
2.0329 0.209382 0
2.02422 0.16161 0
2.04166 0.257286 0
0.419739 0.142889 0
0.968291 0.148058 0
0.310035 0.202211 0
0.316128 0.230863 0
0.658501 0.130052 0
0.685107 0.27445 0
1.34462 0.283266 0
1.16528 0.264896 0
1.84735 0.142081 0
0.557687 0.270604 0
1.21234 0.281769 0
1.58252 0.138692 0
0.533563 0.131933 0
0.489835 0.120004 0
1.45024 0.137174 0
2.06974 0.17785 0
2.06113 0.130713 0
0.283221 0.152215 0
0.921299 0.131169 0
0.343836 0.24295 0
0.319203 0.260002 0
0.235529 0.249617 0
0.347029 0.274099 0
0.291856 0.246297 0
0.295938 0.27548 0
0.272836 0.264931 0
0.27461 0.290522 0
0.251228 0.280224 0
0.253903 0.305808 0
0.232795 0.296709 0
0.298805 0.304058 0
1.0801 0.280176 0
1.47689 0.284785 0
1.05315 0.133468 0
1.09741 0.0970974 0
1.82427 0.272867 0
1.2701 0.118911 0
0.816337 0.277695 0
1.40432 0.121101 0
1.04244 0.320388 0
0.959305 0.103028 0
1.60923 0.286151 0
0.601674 0.286775 0
2.00739 0.280923 0
0.342592 0.0992796 0
0.375237 0.105729 0
1.52511 0.298716 0
1.53114 0.119823 0
0.733824 0.287256 0
0.613372 0.114719 0
0.645558 0.0838585 0
2.015 0.115858 0
1.22718 0.0994086 0
1.39166 0.29817 0
1.3564 0.329754 0
0.744134 0.11556 0
0.782853 0.0841771 0
0.826899 0.10047 0
1.17418 0.314034 0
0.520902 0.0906676 0
1.4967 0.329429 0
1.26048 0.0740437 0
0.365514 0.0716355 0
0.229836 0.121666 0
1.57453 0.09137 0
1.61938 0.110761 0
0.481716 0.0753791 0
0.14093 0.2 0
0.130041 0.192847 0
0.131507 0.178608 0
0.117165 0.184444 0
0.120761 0.164701 0
0.1156 0.199931 0
0.100804 0.174136 0
0.102545 0.153034 0
0.12169 0.143342 0
0.104604 0.13008 0
0.0809304 0.161171 0
0.128077 0.121858 0
0.106825 0.102278 0
0.082498 0.188728 0
0.0314738 0.158621 0
2.04625 0.310891 0
2.08475 0.27479 0
2.11394 0.138117 0
0.233149 0.151108 0
0.258724 0.193613 0
0.268522 0.184917 0
1.65397 0.301059 0
0.145962 0.224912 0
0.132503 0.222267 0
0.13746 0.236947 0
0.120111 0.233525 0
0.126593 0.25219 0
0.105294 0.247497 0
0.113343 0.26868 0
0.133997 0.271734 0
0.121622 0.292031 0
0.147069 0.292141 0
0.0896563 0.267464 0
0.0813699 0.243294 0
0.163574 0.276939 0
0.172694 0.298517 0
0.1583 0.321483 0
0.186823 0.322499 0
0.173113 0.348195 0
0.0322087 0.250839 0
0.211694 0.124337 0
0.250615 0.169546 0
0.256243 0.157787 0
0.170796 0.14736 0
0.156755 0.141654 0
0.17187 0.131161 0
0.147502 0.152323 0
0.198129 0.260662 0
0.206368 0.271663 0
0.220945 0.26864 0
0.190489 0.270628 0
0.198813 0.286731 0
0.55749 0.322277 0
0.520166 0.299321 0
0.235199 0.330709 0
0.267109 0.337524 0
0.172324 0.25256 0
0.255974 0.218859 0
0.268327 0.214994 0
0.184197 0.143083 0
0.188721 0.129954 0
0.209694 0.139146 0
0.269223 0.244007 0
0.252374 0.255244 0
0.282229 0.0410487 0
1.21977 0.330016 0
1.25733 0.296346 0
2.09358 0.0890819 0
0.244373 0.240984 0
0.0838116 0.115786 0
0.0797544 0.0817835 0
0.237449 0.264854 0
0.247178 0.146225 0
0.270136 0.2 0
0.28023 0.191334 0
0.263476 0.170737 0
0.371486 0.368728 0
0.396124 0.330051 0
0.440314 0.325693 0
0.357693 0.329668 0
0.476576 0.362035 0
0.29587 0.222914 0
0.307627 0.175476 0
0.079599 0.0406461 0
0.146062 0.252571 0
0.15162 0.125025 0
0.417223 0.294608 0
0.457089 0.286958 0
0.036619 0.338729 0
0.0713014 0.322193 0
0.0735823 0.36704 0
0.041143 0.0722223 0
0.693501 0.32349 0
0.145406 0.175484 0
0.138777 0.164467 0
0.300367 0.0698839 0
0.167025 0.112083 0
0.146978 0.105544 0
0.151909 0.236762 0
0.444611 0.106436 0
0.909355 0.0817561 0
0.282901 0.370713 0
1.61474 0.330739 0
0.578053 0.368179 0
0.824695 0.0487848 0
2.09634 0.3213 0
2.02276 0.364865 0
2.12532 0.363702 0
1.09789 0.328757 0
0.161137 0.260089 0
2.07793 0.225752 0
2.12079 0.240944 0
2.0747 0.0437362 0
1.89402 0.158846 0
1.93154 0.128738 0
1.8848 0.111477 0
1.8384 0.0926484 0
1.87744 0.0655304 0
1.7913 0.0793874 0
1.9712 0.046671 0
1.92502 0.366682 0
1.94563 0.325156 0
1.89941 0.326645 0
1.87499 0.367178 0
1.84989 0.323491 0
1.7997 0.321303 0
1.77183 0.280326 0
1.75031 0.321965 0
1.77491 0.365615 0
2.11727 0.191885 0
0.883187 0.163467 0
1.71449 0.140266 0
1.667 0.125342 0
1.70591 0.0884759 0
1.67732 0.042286 0
1.52278 0.370513 0
1.37512 0.04128 0
1.34848 0.0834574 0
0.776093 0.367587 0
1.125 0.0433013 0
1.15 0.0866019 0
1.07442 0.0496847 0
0.974527 0.0370837 0
1.47464 0.0427918 0
1.44953 0.0873752 0
1.17595 0.362984 0
1.025 0.366699 0
0.925007 0.367031 0
0.95 0.323404 0
0.897321 0.326356 0
0.874563 0.367261 0
0.846552 0.324465 0
1.62923 0.156667 0
1.32319 0.13033 0
1.69342 0.270472 0
1.49568 0.156227 0
1.56237 0.268721 0
1.44 0.319169 0
1.43005 0.267892 0
1.36502 0.152565 0
0.993446 0.294003 0
1.30179 0.321101 0
1.18235 0.127964 0
1.25016 0.2491 0
1.29638 0.266841 0
1.11824 0.247967 0
1.12945 0.294699 0
1.01527 0.165035 0
0.836192 0.147197 0
1.4998 0.0831488 0
1.00655 0.118664 0
0.872896 0.117126 0
0.70523 0.146383 0
1.96013 0.276645 0
0.769406 0.257102 0
0.699552 0.0908977 0
2.1587 0.162257 0
1.97813 0.145326 0
0.646036 0.302035 0
0.799423 0.326603 0
0.515621 0.255445 0
1.72538 0.366474 0
1.97009 0.0998346 0
1.57108 0.313772 0
0.577925 0.14549 0
0.638911 0.256447 0
0.407352 0.0771641 0
0.525103 0.042511 0
0.674231 0.370698 0
1.69802 0.321701 0
0.56947 0.0908728 0
1.75459 0.110239 0
1.80084 0.126127 0
0.673535 0.0431435 0
1.57391 0.0465733 0
2.04571 0.0828469 0
0.10002 0.225545 0
0.0788152 0.21577 0
0.369719 0.224393 0
0.210352 0.308739 0
1.22342 0.0432967 0
[...]
CELL_DATA 1241
VECTORS velocity double
1.10154 -0.00488729 0.0
1.12186 0.0376634 0.0
0.686138 -0.000587175 0.0
1.04907 0.0277045 0.0
1.03185 0.00495287 0.0
1.39326 0.0846213 0.0
1.13492 -0.0398356 0.0
1.14023 -0.0334066 0.0
0.432961 -0.0100356 0.0
1.09585 -0.0323443 0.0
1.31258 -0.118836 0.0
1.31658 0.1264 0.0
0.863999 -0.160945 0.0
1.0321 -0.00124714 0.0
1.01785 0.00262443 0.0
1.42006 -0.00960962 0.0
1.01274 0.000437594 0.0
0.484377 0.064833 0.0
1.09337 0.0314958 0.0
1.6355 -0.236436 0.0
1.02816 -0.00392781 0.0
1.05331 -0.0609905 0.0
1.03078 0.00224741 0.0
1.2578 0.906845 0.0
1.11263 0.0303743 0.0
1.02807 -0.00660804 0.0
1.28476 -0.194265 0.0
1.06696 -0.0213384 0.0
1.32181 -0.0828324 0.0
1.42254 -0.0433026 0.0
1.33217 0.0901031 0.0
0.860513 -0.0231077 0.0
1.44275 -0.0292352 0.0
1.03007 -0.00139034 0.0
1.13919 -0.0362869 0.0
1.33935 0.143564 0.0
1.10789 -0.0330229 0.0
1.05014 -0.166749 0.0
0.36132 0.0233113 0.0
1.36078 0.126493 0.0
1.7646 -0.149691 0.0
1.4383 -0.011476 0.0
1.0469 -0.237119 0.0
0.727958 0.00140273 0.0
1.3798 -0.15453 0.0
0.726294 0.000617535 0.0
1.12331 0.0588233 0.0
1.05956 0.00404851 0.0
1.60389 -0.29874 0.0
1.27925 -0.0662891 0.0
1.06347 -0.0379632 0.0
1.28887 -0.415658 0.0
0.91882 -0.0264711 0.0
1.29745 -0.0822134 0.0
1.77793 -0.256582 0.0
1.43447 -0.058608 0.0
1.06847 -0.0150939 0.0
1.13122 -0.0406673 0.0
1.66859 -0.064794 0.0
1.67183 -0.171583 0.0
1.1624 0.849306 0.0
1.14399 -0.0304496 0.0
0.343464 -0.0507522 0.0
1.03438 -0.00427934 0.0
-0.216609 -0.0213937 0.0
1.33284 0.227757 0.0
-0.213702 0.0726321 0.0
1.0708 -0.0101429 0.0
0.846639 -0.0182782 0.0
0.289624 0.0874238 0.0
1.07533 -0.0107518 0.0
0.843537 -0.0220526 0.0
1.07786 -0.00890894 0.0
0.867685 -0.104096 0.0
1.05562 -0.0195262 0.0
0.876739 0.160409 0.0
1.00081 0.00515351 0.0
1.63701 -0.00134356 0.0
0.947627 -0.0274801 0.0
0.753745 -0.00234262 0.0
1.75069 -0.3679 0.0
1.15118 -0.245197 0.0
0.777627 0.0039724 0.0
1.24974 -0.221907 0.0
1.34652 0.17035 0.0
0.921079 -0.0654194 0.0
1.15423 0.150368 0.0
0.253447 0.161741 0.0
1.84782 0.51874 0.0
1.05092 -0.0185369 0.0
1.31608 -0.0317267 0.0
-0.168709 0.00289713 0.0
-0.228863 0.0643583 0.0
1.33944 -0.0735135 0.0
1.09404 -0.0145457 0.0
1.13079 -0.0270753 0.0
0.934679 -0.084989 0.0
-0.0997866 -0.00526616 0.0
1.03198 -0.0059251 0.0
-0.124724 0.111996 0.0
1.08212 -0.0975055 0.0
1.0869 -0.00531873 0.0
0.999836 -0.00147082 0.0
1.65839 -0.140425 0.0
1.74914 -0.66663 0.0
1.27157 -0.39634 0.0
1.12124 -0.148893 0.0
0.572476 0.0322926 0.0
1.80239 0.645915 0.0
1.05571 -0.034468 0.0
1.37095 -0.134647 0.0
1.17029 0.17696 0.0
0.260987 -0.0560375 0.0
1.44159 -0.0263655 0.0
1.05981 0.0191144 0.0
1.44288 0.0403968 0.0
1.35873 0.0266452 0.0
1.34803 0.0299605 0.0
1.05576 0.000752186 0.0
0.386948 0.131493 0.0
1.2295 0.0175932 0.0
1.52247 0.579319 0.0
1.14898 0.0667372 0.0
0.922717 -0.0610023 0.0
0.817586 -0.199408 0.0
1.12415 0.0461198 0.0
1.35505 -0.0603255 0.0
1.0622 0.00347144 0.0
1.7684 0.496857 0.0
0.553813 -0.0722796 0.0
1.08943 -0.00522263 0.0
0.741902 -0.00567504 0.0
0.891493 0.0608077 0.0
1.54855 0.0176052 0.0
1.02329 -0.134688 0.0
-0.250156 0.0167348 0.0
0.2383 -0.0458472 0.0
1.132 0.0525226 0.0
1.01757 -0.0248358 0.0
1.66893 -0.759094 0.0
1.50092 0.00388557 0.0
1.04869 -0.000870623 0.0
1.07131 -0.245331 0.0
0.979635 0.0147211 0.0
1.54375 0.0598498 0.0
0.146362 0.0867422 0.0
-0.269859 -0.00984689 0.0
-0.0925338 0.0268527 0.0
0.783932 0.00654626 0.0
0.785525 -0.0106049 0.0
0.555897 -0.102758 0.0
1.01001 -0.0132463 0.0
1.79809 -0.315125 0.0
1.03887 -0.14224 0.0
1.20289 -0.0487353 0.0
1.20458 0.0541988 0.0
0.695334 -0.000808486 0.0
1.59327 0.0374994 0.0
0.922392 0.0869065 0.0
1.13973 -0.0371486 0.0
-0.128595 -0.00300018 0.0
1.74137 0.432883 0.0
1.09223 -8.00058e-05 0.0
1.22202 -0.203373 0.0
1.07424 0.00958657 0.0
1.05415 0.12969 0.0
1.03491 -0.000627197 0.0
0.988255 0.111394 0.0
0.74396 -0.00261725 0.0
1.09301 -0.00721575 0.0
0.904865 -0.0144784 0.0
1.05812 -0.0290288 0.0
1.35448 0.259303 0.0
1.10471 0.0566114 0.0
1.07299 -0.00301697 0.0
1.07762 -0.0031733 0.0
1.17105 0.193475 0.0
1.11733 -0.2866 0.0
1.08204 0.000487151 0.0
1.15622 -0.224474 0.0
1.07872 -0.00188335 0.0
0.458181 0.0512051 0.0
1.08834 -0.642795 0.0
0.732785 -0.128204 0.0
1.03456 -0.00357276 0.0
0.767623 -0.0807761 0.0
0.767599 -0.063903 0.0
1.04158 0.000620549 0.0
1.05565 0.0955277 0.0
0.469341 0.0481851 0.0
0.890115 -0.828922 0.0
1.77674 0.323699 0.0
1.01535 0.00314981 0.0
1.00598 0.00580494 0.0
0.67656 0.06118 0.0
0.905805 0.125571 0.0
0.397835 0.0606083 0.0
1.05028 -0.00888916 0.0
1.42775 -0.0318469 0.0
1.45197 0.580039 0.0
1.15453 0.192913 0.0
1.04848 -0.0194202 0.0
1.42691 0.038437 0.0
1.07489 -0.18541 0.0
1.28008 -0.0852959 0.0
1.43618 -0.043843 0.0
0.557382 0.0550471 0.0
0.742818 -0.00140116 0.0
0.873608 -0.0202049 0.0
0.823519 0.0292859 0.0
0.729237 0.00509196 0.0
0.705505 -0.000436904 0.0
1.78652 0.260301 0.0
1.08433 -3.24822e-05 0.0
1.46003 -0.064045 0.0
1.08599 0.00131534 0.0
0.89577 -0.0631515 0.0
1.41022 -0.128223 0.0
1.0945 -0.00544574 0.0
1.08691 -0.00579186 0.0
0.832988 -0.04882 0.0
1.64411 -0.027864 0.0
1.00579 0.049784 0.0
1.0401 0.0526782 0.0
0.928301 -0.0282896 0.0
1.06243 -0.0298708 0.0
1.3057 -0.141629 0.0
1.73313 -0.593796 0.0
1.1002 -0.00395469 0.0
1.09684 -0.00435334 0.0
1.03955 -0.000426356 0.0
1.06376 -0.131701 0.0
1.04031 -0.00399089 0.0
1.02361 -0.00210273 0.0
1.27703 0.309794 0.0
1.03344 -0.257356 0.0
1.07962 0.138789 0.0
1.20323 0.102435 0.0
0.88023 -0.0859659 0.0
0.35669 -0.045992 0.0
0.952985 0.0102487 0.0
1.43899 0.0574418 0.0
1.42797 0.919616 0.0
0.68169 -0.0860148 0.0
1.0863 -0.00507011 0.0
1.69908 0.0982477 0.0
1.0978 -0.89752 0.0
0.865457 -0.178259 0.0
1.06172 -0.013972 0.0
0.748806 -0.00337184 0.0
1.01884 0.0236266 0.0
0.741956 -0.00441326 0.0
1.04793 -0.000982494 0.0
1.06613 -0.0225395 0.0
0.790426 -0.0298061 0.0
0.787443 -0.0210181 0.0
1.093 -0.284894 0.0
1.18719 -0.0737637 0.0
1.06957 -0.0225092 0.0
1.01064 -0.00742683 0.0
1.01584 -0.00319576 0.0
0.705429 -0.0026128 0.0
1.05375 -0.0251983 0.0
0.781221 -0.0134052 0.0
1.06364 0.0128841 0.0
1.04091 -0.00239712 0.0
0.749873 0.00222499 0.0
1.13998 -0.0750406 0.0
1.18203 -0.22128 0.0
0.810154 -0.0135447 0.0
1.08877 -0.0327996 0.0
0.767953 -0.0122407 0.0
1.03062 -0.00505567 0.0
0.318309 0.172844 0.0
1.07648 -0.0446706 0.0
1.09624 -0.00365394 0.0
0.740979 -0.0137364 0.0
0.955175 -0.205226 0.0
1.02563 -0.00656104 0.0
1.30439 0.144818 0.0
1.07046 -0.0149486 0.0
1.07478 -0.0244561 0.0
1.22356 -0.169484 0.0
1.08511 -0.0241493 0.0
1.06776 -0.0331808 0.0
1.09493 0.000358115 0.0
0.992856 -0.0788619 0.0
0.835684 0.0425173 0.0
1.09463 -0.0213582 0.0
1.07307 -0.0318537 0.0
1.07943 -0.034258 0.0
0.650138 0.0680932 0.0
0.689061 9.40358e-05 0.0
1.0042 0.00266459 0.0
0.698712 -0.0181878 0.0
1.09506 -0.0138844 0.0
1.03961 -0.0054195 0.0
1.05744 -0.0108949 0.0
-0.0890056 0.0360369 0.0
1.02331 -0.00523929 0.0
0.725497 -0.00048987 0.0
1.32578 -0.60522 0.0
1.08641 -0.00418695 0.0
1.02617 -0.00540586 0.0
0.733608 -0.00413786 0.0
1.08892 -0.0216494 0.0
0.841193 0.0303388 0.0
0.672352 -0.0011958 0.0
1.03653 -0.00436457 0.0
1.09761 -0.0190279 0.0
1.08499 -0.0323187 0.0
1.07879 -0.0232596 0.0
0.772802 0.0135404 0.0
0.681245 0.000283242 0.0
1.10224 -0.0172065 0.0
1.08927 -0.0399654 0.0
1.10564 -0.0212788 0.0
0.738015 0.0189746 0.0
1.10532 -0.0174239 0.0
1.08702 -0.0155174 0.0
1.06966 -0.0401751 0.0
1.10065 -0.0108724 0.0
0.686172 -0.0026552 0.0
1.10334 -0.0132764 0.0
1.0971 -0.0117774 0.0
1.1046 -0.0110589 0.0
0.683723 -0.00137433 0.0
1.08252 -0.0158034 0.0
1.10371 -0.0111599 0.0
1.08064 -0.0425036 0.0
1.10131 -0.0086998 0.0
1.12365 -0.168049 0.0
1.12804 -0.0415026 0.0
1.10304 -0.00742432 0.0
1.35391 0.668974 0.0
1.10401 -0.00805131 0.0
0.727878 -0.00205004 0.0
1.0495 -0.003035 0.0
0.709412 0.0209428 0.0
0.736717 -0.0015573 0.0
1.09857 0.00117534 0.0
1.05585 0.000849688 0.0
1.0429 0.00289099 0.0
0.690375 -0.00107888 0.0
1.05425 -0.0024502 0.0
1.09946 0.000901194 0.0
1.10289 -0.00586711 0.0
1.07637 0.106367 0.0
1.15951 -0.698415 0.0
0.733878 0.000229402 0.0
0.69204 -0.000226358 0.0
1.10314 -0.00466747 0.0
1.10216 -0.00386108 0.0
0.759445 -0.0125725 0.0
0.673533 -0.0050819 0.0
1.10272 -0.00363079 0.0
1.02191 0.00435512 0.0
1.09888 0.000887408 0.0
1.09071 -0.00191942 0.0
0.740808 0.00608449 0.0
0.701445 0.00106133 0.0
1.0961 0.00181205 0.0
0.763875 0.00683812 0.0
0.727473 0.00689074 0.0
1.09855 -0.000112606 0.0
0.772148 0.0128709 0.0
0.735248 0.00216646 0.0
1.10218 -0.00267063 0.0
1.10099 -0.00262976 0.0
1.02015 0.00847423 0.0
1.10198 -0.00222782 0.0
1.09829 -0.00218347 0.0
1.10238 -0.00210839 0.0
1.03845 0.0014972 0.0
1.09316 -0.00171189 0.0
0.767954 0.00701009 0.0
0.68704 0.00817625 0.0
0.741236 0.00567199 0.0
0.689172 -0.00622699 0.0
0.739929 -0.00205434 0.0
0.72696 -0.000423079 0.0
0.704839 -0.00173655 0.0
0.746243 -0.00387016 0.0
0.758497 -0.00137638 0.0
0.752275 0.00802687 0.0
0.695957 -0.00327933 0.0
0.714606 0.00699999 0.0
0.718023 -0.000111783 0.0
0.717284 0.0100902 0.0
0.692272 0.00206958 0.0
0.695273 -0.00246222 0.0
0.69719 0.000225693 0.0
0.708457 0.000282963 0.0
0.698595 0.00419322 0.0
0.739377 -0.000734316 0.0
0.754653 -0.000297244 0.0
0.7034 -0.00177308 0.0
0.712719 -0.00933619 0.0
0.715987 0.0022864 0.0
0.707575 -9.5766e-05 0.0
0.739467 -0.000189501 0.0
0.669704 -0.00881292 0.0
0.684604 0.0100041 0.0
0.68179 0.00205889 0.0
0.69579 -0.00115589 0.0
0.688698 0.00208445 0.0
0.710986 -0.0110369 0.0
0.692768 0.00144494 0.0
0.697976 0.00270102 0.0
0.717799 -0.000883632 0.0
0.711395 -0.00137182 0.0
1.09796 -0.00200636 0.0
1.09246 -0.00187259 0.0
1.10194 -0.00333711 0.0
1.10245 -0.00233157 0.0
1.10275 -0.00257668 0.0
1.07933 -0.00217361 0.0
1.09753 -0.0019806 0.0
1.09396 -0.00145437 0.0
1.09892 -0.00138835 0.0
1.09363 -0.00291481 0.0
1.09949 -0.00274256 0.0
1.0994 -0.00291903 0.0
1.0924 -0.00206524 0.0
1.1021 -0.00191849 0.0
1.10061 -0.00269775 0.0
1.10137 -0.00221004 0.0
1.09676 -0.00223815 0.0
1.09262 -0.00153671 0.0
1.10098 -0.00228504 0.0
1.10217 -0.00196342 0.0
1.10177 -0.00206876 0.0
1.10259 -0.00224819 0.0
1.10255 -0.00337194 0.0
1.08988 -0.00383035 0.0
1.10303 -0.00187906 0.0
1.1006 -0.00101536 0.0
1.10293 -0.00178121 0.0
1.07525 0.000820516 0.0
1.10043 -0.00207026 0.0
1.09994 -0.00184019 0.0
1.10322 -0.00192361 0.0
1.09313 0.000352882 0.0
1.10257 -0.00160457 0.0
1.10286 -0.00135374 0.0
1.09965 -0.00191928 0.0
1.1035 -0.00173702 0.0
1.09983 -0.00125324 0.0
1.10256 -0.00185059 0.0
1.09016 -0.00269391 0.0
1.09315 8.42922e-05 0.0
1.10268 -0.00183711 0.0
1.09987 -0.00112633 0.0
1.10178 -0.00191141 0.0
1.10158 -0.00165323 0.0
1.0985 0.000168167 0.0
1.10333 -0.00175381 0.0
1.10308 -0.00159572 0.0
1.0848 -0.00127951 0.0
1.09949 -0.00203728 0.0
1.07558 0.00347332 0.0
1.09648 -0.00138047 0.0
1.09979 -0.00144595 0.0
1.10161 -0.00212205 0.0
1.10313 -0.00140749 0.0
1.09542 -0.00142574 0.0
1.10212 -0.00180516 0.0
1.10262 -0.00135141 0.0
1.10341 -0.00121827 0.0
1.1025 -0.00133669 0.0
1.10208 -0.00112677 0.0
1.10238 -0.000495185 0.0
1.09982 -0.000191019 0.0
1.08552 -0.00165326 0.0
1.073 0.00150355 0.0
1.09981 -0.00105762 0.0
1.10297 -0.0011228 0.0
0.734854 0.000305988 0.0
1.10052 -0.000584448 0.0
1.0901 -0.000887712 0.0
1.09627 -0.000261048 0.0
1.10289 -0.000920323 0.0
1.09573 -0.000239444 0.0
1.10169 0.000191267 0.0
1.10135 0.000349872 0.0
1.10171 -0.000586337 0.0
1.09994 7.39827e-05 0.0
1.08248 -0.000903737 0.0
1.08371 -0.00334404 0.0
1.09195 -0.000231621 0.0
1.10138 -0.000183959 0.0
1.09812 -0.000924457 0.0
1.10187 3.77394e-05 0.0
1.09548 -0.00108521 0.0
1.09875 -0.00157735 0.0
1.10216 -0.00033899 0.0
1.10196 0.000245847 0.0
1.03052 -0.00572209 0.0
1.09705 -0.000561099 0.0
1.10159 0.000185082 0.0
1.0888 8.51559e-05 0.0
1.10089 -0.00116434 0.0
1.10211 -0.000757933 0.0
1.04569 -0.000796233 0.0
1.09953 0.000581832 0.0
1.09888 -0.000872836 0.0
1.09131 0.0018649 0.0
1.10156 -0.000786157 0.0
1.09363 0.00115602 0.0
1.09973 0.000710584 0.0
1.10131 -0.00113415 0.0
1.09978 0.000308099 0.0
1.12056 0.178052 0.0
1.09045 -0.00142901 0.0
1.09869 -0.00673162 0.0
1.10129 0.000920871 0.0
1.1016 0.000461021 0.0
1.09257 -0.000847476 0.0
1.09481 0.00117246 0.0
1.08292 0.00186628 0.0
1.09405 0.000420524 0.0
1.10185 0.000332469 0.0
1.08339 0.0038578 0.0
1.10139 0.000363064 0.0
1.09906 0.000232195 0.0
1.09526 0.00106138 0.0
1.09901 0.000875517 0.0
1.10095 7.7161e-05 0.0
0.753283 -0.0107861 0.0
1.03522 -0.0032214 0.0
1.09843 0.00166746 0.0
1.09986 0.000919842 0.0
1.10038 -0.000368072 0.0
1.0865 -0.000541665 0.0
1.09264 0.00127021 0.0
1.10046 0.000394024 0.0
1.09961 0.0007042 0.0
1.10001 0.000318243 0.0
1.10016 0.000573515 0.0
1.09848 0.00161255 0.0
1.10095 0.000579662 0.0
1.10022 0.0006441 0.0
1.04689 -1.32817e-05 0.0
1.10065 0.000613545 0.0
1.09699 0.000244571 0.0
1.09325 -0.00012698 0.0
1.09742 0.00222198 0.0
1.08415 0.00106183 0.0
1.09651 0.000773299 0.0
1.74067 0.140359 0.0
1.09815 -0.000311134 0.0
1.0976 0.00291364 0.0
1.09274 -0.00403029 0.0
1.08827 0.00216127 0.0
1.09647 0.0016124 0.0
1.09714 -0.000600637 0.0
1.09297 0.00296242 0.0
1.08931 -0.0139973 0.0
1.07667 -0.00625114 0.0
1.05793 0.001639 0.0
1.09668 -0.000436659 0.0
1.19114 0.0902459 0.0
1.09147 -0.0344461 0.0
1.05551 0.00284767 0.0
1.09943 -0.00912816 0.0
1.09718 0.00578791 0.0
1.0875 0.00308196 0.0
1.09511 -0.000748657 0.0
1.09078 -0.00584507 0.0
1.03137 -0.00537365 0.0
1.07209 -0.0151947 0.0
1.09181 0.000220764 0.0
1.09431 0.000183667 0.0
1.09625 0.00450131 0.0
1.05898 -0.00502077 0.0
1.05159 0.197537 0.0
1.02293 -0.00618534 0.0
1.09648 0.00802131 0.0
0.563788 -0.176433 0.0
1.25723 0.117052 0.0
1.09761 -0.0217171 0.0
1.0913 0.00242518 0.0
1.08886 0.00761878 0.0
1.08408 0.0112524 0.0
1.07882 -0.0174712 0.0
1.08735 0.00352033 0.0
1.07081 -0.0184595 0.0
1.30256 0.175662 0.0
1.01497 -0.119792 0.0
1.06543 -0.0248526 0.0
1.09884 -0.0983485 0.0
1.08584 -0.00431539 0.0
1.08293 -0.0177406 0.0
1.09385 -0.0366864 0.0
1.05107 0.00137 0.0
1.10473 0.0224594 0.0
1.07707 -0.00435702 0.0
1.13643 -0.0651423 0.0
1.09448 -0.0295659 0.0
1.10236 -0.0263741 0.0
1.08696 -0.00480701 0.0
1.39757 -0.564921 0.0
1.09739 0.0412056 0.0
1.07044 -0.00601573 0.0
1.09865 0.0307371 0.0
1.06208 0.000866304 0.0
0.778789 0.0137644 0.0
1.09023 0.0170108 0.0
1.32753 -0.159152 0.0
1.0022 -0.0604077 0.0
1.08562 -0.0133571 0.0
0.633015 -0.555147 0.0
1.05128 -0.00658699 0.0
1.07717 -0.0036968 0.0
1.0869 -0.00246175 0.0
1.26456 -0.134154 0.0
1.08533 0.0239724 0.0
1.09036 -0.0437074 0.0
1.08319 -0.00668023 0.0
1.09952 0.00928335 0.0
1.03122 -0.00720004 0.0
1.35104 -0.769972 0.0
1.04658 -0.0271053 0.0
1.10183 0.0178302 0.0
1.0736 -0.0263165 0.0
1.13632 -0.0204885 0.0
1.09793 -0.0267861 0.0
1.10675 0.0696947 0.0
1.12551 0.0651241 0.0
1.08884 -0.00550589 0.0
1.0983 0.0139387 0.0
1.10997 -0.0171043 0.0
1.04063 -0.0163036 0.0
1.18102 -0.529959 0.0
0.75074 0.00183572 0.0
0.752765 -0.00968421 0.0
1.04573 0.0132876 0.0
1.16359 0.0829458 0.0
1.09669 -0.00528896 0.0
1.09911 -0.00286416 0.0
0.699035 0.00167658 0.0
1.10216 -0.00462368 0.0
0.553257 -0.139376 0.0
1.06215 -0.0603329 0.0
0.764117 0.00302515 0.0
0.760682 -0.012226 0.0
1.03003 0.0185591 0.0
1.08867 -0.00130416 0.0
0.859111 -0.176325 0.0
0.955698 -0.0102339 0.0
1.66437 -0.0934266 0.0
0.901879 0.0368705 0.0
1.0913 -0.0412073 0.0
1.09456 -0.0402138 0.0
1.05395 -0.000345544 0.0
1.0518 -0.0309797 0.0
1.09569 -0.0287391 0.0
1.18677 0.349497 0.0
0.690295 0.00401491 0.0
1.02463 0.00117944 0.0
1.24208 -0.0813977 0.0
0.718082 0.00232099 0.0
1.58347 0.556578 0.0
1.03921 -0.0202588 0.0
0.987249 -0.0145183 0.0
1.24582 0.0912047 0.0
0.966838 -0.0235381 0.0
1.0024 0.00246197 0.0
0.738389 -0.221611 0.0
1.09752 -0.000616349 0.0
0.884685 0.0939708 0.0
1.09796 -0.000526551 0.0
0.920869 0.00157943 0.0
1.02112 -0.00373718 0.0
1.02984 0.0900041 0.0
1.41796 -0.102671 0.0
0.702083 -0.00233978 0.0
0.890237 -0.00439599 0.0
0.921693 0.8081 0.0
1.13137 -0.0411617 0.0
1.01388 0.0179595 0.0
1.33672 -0.00225873 0.0
0.691909 -0.00254233 0.0
1.08456 0.0035199 0.0
1.16721 -0.446876 0.0
0.187455 0.0225852 0.0
1.02759 -0.0288226 0.0
1.06423 -0.0477285 0.0
0.744434 0.0129325 0.0
0.805495 0.0302583 0.0
1.59236 -0.0105554 0.0
1.09486 -0.00335319 0.0
0.310977 0.0150995 0.0
0.853906 0.0317757 0.0
1.08144 0.00347113 0.0
1.10327 -0.00660164 0.0
1.03652 -0.00715439 0.0
1.03801 0.0353899 0.0
1.19579 0.167184 0.0
0.740063 0.0012957 0.0
1.05905 -0.0192405 0.0
1.02112 0.0495109 0.0
1.09475 -0.00744538 0.0
1.38827 -0.591223 0.0
0.726316 -0.00359268 0.0
1.33974 -0.148665 0.0
1.07639 -0.00111826 0.0
1.03312 -0.00657505 0.0
0.629169 0.0914205 0.0
1.04589 0.0669058 0.0
0.896256 0.141176 0.0
1.0803 0.0014259 0.0
1.10921 -0.0327318 0.0
1.39959 -0.035908 0.0
0.738294 0.00364823 0.0
0.752772 0.00895371 0.0
1.16321 -0.0284777 0.0
0.404296 -0.0735467 0.0
1.00128 0.0363816 0.0
0.685092 0.00161148 0.0
1.11826 -0.033264 0.0
1.12297 -0.0381136 0.0
1.01578 -0.0013912 0.0
0.74011 -0.0034103 0.0
0.735912 0.00731312 0.0
0.753089 0.00608506 0.0
0.721628 0.000376149 0.0
0.760632 0.00268511 0.0
1.21395 0.670692 0.0
1.32576 0.0522666 0.0
1.00938 -0.00277739 0.0
0.755992 0.00488573 0.0
0.759459 -0.00517711 0.0
0.749503 0.00813675 0.0
1.07083 -0.0243721 0.0
0.736511 -0.00449172 0.0
1.6231 -0.178189 0.0
1.1977 0.0918205 0.0
0.733883 -0.0979241 0.0
1.21218 -0.0703994 0.0
1.52351 -0.46006 0.0
1.02811 -0.00113507 0.0
1.03234 -0.0102154 0.0
1.09852 -0.000197129 0.0
1.03129 -0.00297837 0.0
0.837586 -0.687906 0.0
1.03161 -0.0012346 0.0
1.02068 -0.00487482 0.0
1.0961 -0.00522665 0.0
1.05494 -0.0106355 0.0
1.58184 -0.0483121 0.0
0.157484 0.170934 0.0
0.75931 -0.0588219 0.0
1.33851 0.518304 0.0
1.0844 -0.0157369 0.0
0.769717 -0.0061684 0.0
0.752086 -0.0038677 0.0
0.748834 -0.00433957 0.0
1.05049 -0.0242325 0.0
0.770082 0.198953 0.0
1.09248 -0.00277154 0.0
1.02594 0.00602955 0.0
0.837477 0.201294 0.0
1.08714 -0.0023913 0.0
0.532031 -0.0144905 0.0
1.04848 -0.0180939 0.0
0.739947 0.00918217 0.0
0.74451 -0.00666202 0.0
1.37157 0.156487 0.0
0.961728 0.00608713 0.0
1.51517 0.0939764 0.0
1.02882 0.00488056 0.0
1.041 0.00123785 0.0
0.467274 -0.0702121 0.0
0.972829 -0.000163981 0.0
1.09803 0.0010939 0.0
1.09353 0.000660673 0.0
0.490646 -0.222351 0.0
1.63423 -0.260988 0.0
1.06639 0.000593301 0.0
1.21372 0.187232 0.0
0.76129 -0.00775 0.0
0.741606 -0.00331094 0.0
1.10061 -0.0459338 0.0
0.79746 0.08912 0.0
1.09435 -0.00387436 0.0
0.805245 0.00781717 0.0
0.990641 -0.00681667 0.0
1.08426 0.000613907 0.0
1.04531 -0.00231136 0.0
0.202499 -0.0212636 0.0
1.08582 -0.00426642 0.0
0.380131 0.0284883 0.0
1.05036 -0.00216483 0.0
1.09183 -0.00961896 0.0
0.753188 -0.0062602 0.0
1.04542 0.00127552 0.0
1.09284 -0.00217032 0.0
1.01693 0.000595691 0.0
1.02615 -0.00509287 0.0
1.20145 -0.963845 0.0
1.08028 0.00410827 0.0
1.69357 0.477508 0.0
0.740579 -0.000985781 0.0
0.753979 0.00832366 0.0
1.09601 -0.000759914 0.0
1.10168 -0.0038819 0.0
1.07501 -0.00106454 0.0
1.07605 0.00179472 0.0
1.09893 -0.000984131 0.0
1.08966 -0.00225852 0.0
1.09887 -0.00580254 0.0
1.0861 0.00396246 0.0
0.224579 0.0143552 0.0
1.06154 0.00052124 0.0
0.328823 0.0455348 0.0
0.77333 -0.0198534 0.0
1.15804 -0.218116 0.0
1.0813 -0.00545503 0.0
1.24009 -0.122274 0.0
1.64404 -0.494567 0.0
0.313644 -0.0179743 0.0
1.09398 -0.00875161 0.0
1.12505 0.272627 0.0
1.22203 -0.0777009 0.0
1.07292 0.307169 0.0
1.69924 0.036728 0.0
0.975655 -0.540875 0.0
1.37263 0.132554 0.0
1.15089 -0.00432257 0.0
1.2898 -0.478994 0.0
0.182709 -0.177484 0.0
1.05036 -0.000348074 0.0
1.31548 -0.392682 0.0
0.707402 -0.0123477 0.0
1.39576 -0.136553 0.0
1.66484 0.168978 0.0
1.07287 0.00333353 0.0
0.623848 0.00367863 0.0
0.717946 0.00361744 0.0
0.268057 -0.226506 0.0
0.916355 0.0389505 0.0
0.201836 -0.0871885 0.0
1.10251 -0.163554 0.0
1.37387 0.159991 0.0
0.689839 0.00535112 0.0
1.12076 -0.0384669 0.0
1.10183 -0.0182268 0.0
1.04672 -0.0211926 0.0
0.435464 -0.614378 0.0
1.23001 0.265229 0.0
0.836002 -0.148738 0.0
0.191236 -0.329636 0.0
0.751184 0.120776 0.0
1.30327 0.238371 0.0
0.782835 0.15452 0.0
1.00248 -0.00824057 0.0
1.08361 -0.00420632 0.0
1.05714 3.78066e-05 0.0
1.03789 -0.00557025 0.0
0.746748 0.00537016 0.0