# vtk DataFile Version 3.0
Malha 2D com triângulos e temperatura
ASCII
DATASET UNSTRUCTURED_GRID

POINTS 688 double
0 0 0
2.2 0 0
2.2 0.41 0
0 0.41 0
0.25 0.2 0
0.05 0 0
0.1 0 0
0.15 0 0
0.2 0 0
0.25 0 0
0.3 0 0
0.35 0 0
0.4 0 0
0.45 0 0
0.5 0 0
0.55 0 0
0.6 0 0
0.65 0 0
0.7 0 0
0.75 0 0
0.8 0 0
0.85 0 0
0.9 0 0
0.95 0 0
1 0 0
1.05 0 0
1.1 0 0
1.15 0 0
1.2 0 0
1.25 0 0
1.3 0 0
1.35 0 0
1.4 0 0
1.45 0 0
1.5 0 0
1.55 0 0
1.6 0 0
1.65 0 0
1.7 0 0
1.75 0 0
1.8 0 0
1.85 0 0
1.9 0 0
1.95 0 0
2 0 0
2.05 0 0
2.1 0 0
2.15 0 0
2.2 0.0455556 0
2.2 0.0911111 0
2.2 0.136667 0
2.2 0.182222 0
2.2 0.227778 0
2.2 0.273333 0
2.2 0.318889 0
2.2 0.364444 0
2.15 0.41 0
2.1 0.41 0
2.05 0.41 0
2 0.41 0
1.95 0.41 0
1.9 0.41 0
1.85 0.41 0
1.8 0.41 0
1.75 0.41 0
1.7 0.41 0
1.65 0.41 0
1.6 0.41 0
1.55 0.41 0
1.5 0.41 0
1.45 0.41 0
1.4 0.41 0
1.35 0.41 0
1.3 0.41 0
1.25 0.41 0
1.2 0.41 0
1.15 0.41 0
1.1 0.41 0
1.05 0.41 0
1 0.41 0
0.95 0.41 0
0.9 0.41 0
0.85 0.41 0
0.8 0.41 0
0.75 0.41 0
0.7 0.41 0
0.65 0.41 0
0.6 0.41 0
0.55 0.41 0
0.5 0.41 0
0.45 0.41 0
0.4 0.41 0
0.35 0.41 0
0.3 0.41 0
0.25 0.41 0
0.2 0.41 0
0.15 0.41 0
0.1 0.41 0
0.05 0.41 0
0 0.364444 0
0 0.318889 0
0 0.273333 0
0 0.227778 0
0 0.182222 0
0 0.136667 0
0 0.0911111 0
0 0.0455556 0
0.248831 0.210749 0
0.245379 0.220994 0
0.239805 0.230259 0
0.232369 0.238108 0
0.22342 0.244176 0
0.213376 0.248177 0
0.202707 0.249927 0
0.191911 0.249341 0
0.181493 0.246449 0
0.171941 0.241384 0
0.1637 0.234385 0
0.157157 0.225778 0
0.152617 0.215965 0
0.150293 0.205406 0
0.150293 0.194594 0
0.152617 0.184035 0
0.157157 0.174222 0
0.1637 0.165615 0
0.171941 0.158616 0
0.181493 0.153551 0
0.191911 0.150659 0
0.202707 0.150073 0
0.213376 0.151823 0
0.22342 0.155824 0
0.232369 0.161892 0
0.239805 0.169741 0
0.245379 0.179006 0
0.248831 0.189251 0
0.421316 0.36725 0
0.426705 0.0366526 0
2.16065 0.209201 0
1.52286 0.0417259 0
0.626017 0.37111 0
1.3257 0.0414552 0
1.02471 0.0432237 0
1.17293 0.0421053 0
0.82501 0.36678 0
1.6757 0.370064 0
1.91628 0.0358195 0
1.82501 0.366432 0
0.723429 0.0421499 0
1.425 0.366699 0
1.97461 0.366224 0
1.12167 0.370137 0
0.975 0.368691 0
0.877672 0.0412714 0
1.27686 0.36884 0
1.725 0.0433013 0
0.579174 0.0416211 0
0.325589 0.363848 0
0.319111 0.0378151 0
0.0394523 0.296111 0
0.0329929 0.11602 0
0.142108 0.187428 0
1.57555 0.364352 0
2.02603 0.0412138 0
0.725007 0.36763 0
0.528647 0.366595 0
1.62699 0.0400272 0
1.82929 0.0421255 0
1.425 0.0418325 0
2.07474 0.364233 0
0.125 0.0433013 0
0.161245 0.155011 0
0.225 0.366699 0
0.210027 0.258536 0
2.16034 0.115449 0
0.0371627 0.204103 0
0.142311 0.212698 0
0.220283 0.0418538 0
0.221965 0.145099 0
0.196802 0.141016 0
0.119851 0.373394 0
0.161112 0.245979 0
0.184892 0.258024 0
2.16342 0.30039 0
2.12627 0.047699 0
0.183325 0.0412617 0
0.152317 0.0762976 0
0.203864 0.0745802 0
0.234384 0.0774346 0
0.215969 0.103585 0
0.245651 0.104548 0
0.186562 0.100216 0
0.268213 0.0793029 0
0.272149 0.109155 0
0.242885 0.159377 0
0.253088 0.128261 0
0.278718 0.13214 0
0.295917 0.115997 0
0.301728 0.138858 0
0.321266 0.12205 0
0.324642 0.151724 0
0.255978 0.181139 0
0.350123 0.129049 0
0.357539 0.159885 0
0.333541 0.181416 0
0.36451 0.19182 0
0.250573 0.230419 0
0.391277 0.169722 0
0.339477 0.212308 0
0.39836 0.205386 0
0.427326 0.18117 0
0.258724 0.206387 0
0.434392 0.219501 0
0.466446 0.193907 0
0.472865 0.243064 0
0.507358 0.209962 0
0.40073 0.238916 0
0.499135 0.1652 0
0.5419 0.179224 0
0.550176 0.22496 0
0.585844 0.194129 0
0.594095 0.240176 0
0.630701 0.209517 0
0.621901 0.162424 0
0.667731 0.178095 0
0.676485 0.226008 0
0.713906 0.194492 0
0.722681 0.242872 0
0.760442 0.211047 0
0.751547 0.162356 0
0.798298 0.179 0
0.807147 0.227866 0
0.845136 0.195775 0
0.854541 0.243285 0
0.892163 0.212344 0
0.902461 0.257947 0
0.93935 0.228684 0
0.930236 0.180167 0
0.977229 0.197066 0
0.986264 0.245777 0
1.02423 0.213991 0
1.0331 0.263172 0
1.07123 0.230975 0
1.06234 0.181814 0
1.10938 0.198721 0
1.09996 0.151012 0
1.14691 0.168161 0
1.15631 0.215921 0
1.19446 0.183678 0
1.20343 0.232645 0
1.2416 0.200322 0
1.23272 0.151117 0
1.2798 0.167954 0
1.28868 0.217167 0
1.32685 0.184862 0
1.33573 0.234064 0
1.3739 0.201768 0
0.789327 0.130094 0
1.38279 0.25097 0
1.42096 0.218674 0
1.41207 0.169471 0
1.45912 0.186378 0
1.46801 0.235581 0
1.50618 0.203285 0
1.51506 0.252489 0
1.55323 0.220192 0
1.54435 0.170989 0
1.5914 0.187896 0
1.60029 0.2371 0
1.63846 0.204803 0
1.64734 0.254007 0
1.68551 0.221711 0
1.67663 0.172507 0
1.72368 0.189415 0
1.73831 0.241548 0
1.77074 0.206322 0
1.76185 0.157121 0
1.8091 0.17428 0
1.81866 0.220885 0
1.85608 0.190621 0
1.86521 0.238879 0
1.90289 0.207671 0
1.91264 0.253772 0
1.94955 0.224093 0
1.94067 0.17593 0
1.98705 0.192828 0
1.99572 0.240997 0
2.0329 0.209382 0
2.02422 0.16161 0
2.04166 0.257286 0
0.419739 0.142889 0
0.968291 0.148058 0
0.310035 0.202211 0
0.316128 0.230863 0
0.658501 0.130052 0
0.685107 0.27445 0
1.34462 0.283266 0
1.16528 0.264896 0
1.84735 0.142081 0
0.557687 0.270604 0
1.21234 0.281769 0
1.58252 0.138692 0
0.533563 0.131933 0
0.489835 0.120004 0
1.45024 0.137174 0
2.06974 0.17785 0
2.06113 0.130713 0
0.283221 0.152215 0
0.921299 0.131169 0
0.343836 0.24295 0
0.319203 0.260002 0
0.235529 0.249617 0
0.347029 0.274099 0
0.291856 0.246297 0
0.295938 0.27548 0
0.272836 0.264931 0
0.27461 0.290522 0
0.251228 0.280224 0
0.253903 0.305808 0
0.232795 0.296709 0
0.298805 0.304058 0
1.0801 0.280176 0
1.47689 0.284785 0
1.05315 0.133468 0
1.09741 0.0970974 0
1.82427 0.272867 0
1.2701 0.118911 0
0.816337 0.277695 0
1.40432 0.121101 0
1.04244 0.320388 0
0.959305 0.103028 0
1.60923 0.286151 0
0.601674 0.286775 0
2.00739 0.280923 0
0.342592 0.0992796 0
0.375237 0.105729 0
1.52511 0.298716 0
1.53114 0.119823 0
0.733824 0.287256 0
0.613372 0.114719 0
0.645558 0.0838585 0
2.015 0.115858 0
1.22718 0.0994086 0
1.39166 0.29817 0
1.3564 0.329754 0
0.744134 0.11556 0
0.782853 0.0841771 0
0.826899 0.10047 0
1.17418 0.314034 0
0.520902 0.0906676 0
1.4967 0.329429 0
1.26048 0.0740437 0
0.365514 0.0716355 0
0.229836 0.121666 0
1.57453 0.09137 0
1.61938 0.110761 0
0.481716 0.0753791 0
0.14093 0.2 0
0.130041 0.192847 0
0.131507 0.178608 0
0.117165 0.184444 0
0.120761 0.164701 0
0.1156 0.199931 0
0.100804 0.174136 0
0.102545 0.153034 0
0.12169 0.143342 0
0.104604 0.13008 0
0.0809304 0.161171 0
0.128077 0.121858 0
0.106825 0.102278 0
0.082498 0.188728 0
0.0314738 0.158621 0
2.04625 0.310891 0
2.08475 0.27479 0
2.11394 0.138117 0
0.233149 0.151108 0
0.258724 0.193613 0
0.268522 0.184917 0
1.65397 0.301059 0
0.145962 0.224912 0
0.132503 0.222267 0
0.13746 0.236947 0
0.120111 0.233525 0
0.126593 0.25219 0
0.105294 0.247497 0
0.113343 0.26868 0
0.133997 0.271734 0
0.121622 0.292031 0
0.147069 0.292141 0
0.0896563 0.267464 0
0.0813699 0.243294 0
0.163574 0.276939 0
0.172694 0.298517 0
0.1583 0.321483 0
0.186823 0.322499 0
0.173113 0.348195 0
0.0322087 0.250839 0
0.211694 0.124337 0
0.250615 0.169546 0
0.256243 0.157787 0
0.170796 0.14736 0
0.156755 0.141654 0
0.17187 0.131161 0
0.147502 0.152323 0
0.198129 0.260662 0
0.206368 0.271663 0
0.220945 0.26864 0
0.190489 0.270628 0
0.198813 0.286731 0
0.55749 0.322277 0
0.520166 0.299321 0
0.235199 0.330709 0
0.267109 0.337524 0
0.172324 0.25256 0
0.255974 0.218859 0
0.268327 0.214994 0
0.184197 0.143083 0
0.188721 0.129954 0
0.209694 0.139146 0
0.269223 0.244007 0
0.252374 0.255244 0
0.282229 0.0410487 0
1.21977 0.330016 0
1.25733 0.296346 0
2.09358 0.0890819 0
0.244373 0.240984 0
0.0838116 0.115786 0
0.0797544 0.0817835 0
0.237449 0.264854 0
0.247178 0.146225 0
0.270136 0.2 0
0.28023 0.191334 0
0.263476 0.170737 0
0.371486 0.368728 0
0.396124 0.330051 0
0.440314 0.325693 0
0.357693 0.329668 0
0.476576 0.362035 0
0.29587 0.222914 0
0.307627 0.175476 0
0.079599 0.0406461 0
0.146062 0.252571 0
0.15162 0.125025 0
0.417223 0.294608 0
0.457089 0.286958 0
0.036619 0.338729 0
0.0713014 0.322193 0
0.0735823 0.36704 0
0.041143 0.0722223 0
0.693501 0.32349 0
0.145406 0.175484 0
0.138777 0.164467 0
0.300367 0.0698839 0
0.167025 0.112083 0
0.146978 0.105544 0
0.151909 0.236762 0
0.444611 0.106436 0
0.909355 0.0817561 0
0.282901 0.370713 0
1.61474 0.330739 0
0.578053 0.368179 0
0.824695 0.0487848 0
2.09634 0.3213 0
2.02276 0.364865 0
2.12532 0.363702 0
1.09789 0.328757 0
0.161137 0.260089 0
2.07793 0.225752 0
2.12079 0.240944 0
2.0747 0.0437362 0
1.89402 0.158846 0
1.93154 0.128738 0
1.8848 0.111477 0
1.8384 0.0926484 0
1.87744 0.0655304 0
1.7913 0.0793874 0
1.9712 0.046671 0
1.92502 0.366682 0
1.94563 0.325156 0
1.89941 0.326645 0
1.87499 0.367178 0
1.84989 0.323491 0
1.7997 0.321303 0
1.77183 0.280326 0
1.75031 0.321965 0
1.77491 0.365615 0
2.11727 0.191885 0
0.883187 0.163467 0
1.71449 0.140266 0
1.667 0.125342 0
1.70591 0.0884759 0
1.67732 0.042286 0
1.52278 0.370513 0
1.37512 0.04128 0
1.34848 0.0834574 0
0.776093 0.367587 0
1.125 0.0433013 0
1.15 0.0866019 0
1.07442 0.0496847 0
0.974527 0.0370837 0
1.47464 0.0427918 0
1.44953 0.0873752 0
1.17595 0.362984 0
1.025 0.366699 0
0.925007 0.367031 0
0.95 0.323404 0
0.897321 0.326356 0
0.874563 0.367261 0
0.846552 0.324465 0
1.62923 0.156667 0
1.32319 0.13033 0
1.69342 0.270472 0
1.49568 0.156227 0
1.56237 0.268721 0
1.44 0.319169 0
1.43005 0.267892 0
1.36502 0.152565 0
0.993446 0.294003 0
1.30179 0.321101 0
1.18235 0.127964 0
1.25016 0.2491 0
1.29638 0.266841 0
1.11824 0.247967 0
1.12945 0.294699 0
1.01527 0.165035 0
0.836192 0.147197 0
1.4998 0.0831488 0
1.00655 0.118664 0
0.872896 0.117126 0
0.70523 0.146383 0
1.96013 0.276645 0
0.769406 0.257102 0
0.699552 0.0908977 0
2.1587 0.162257 0
1.97813 0.145326 0
0.646036 0.302035 0
0.799423 0.326603 0
0.515621 0.255445 0
1.72538 0.366474 0
1.97009 0.0998346 0
1.57108 0.313772 0
0.577925 0.14549 0
0.638911 0.256447 0
0.407352 0.0771641 0
0.525103 0.042511 0
0.674231 0.370698 0
1.69802 0.321701 0
0.56947 0.0908728 0
1.75459 0.110239 0
1.80084 0.126127 0
0.673535 0.0431435 0
1.57391 0.0465733 0
2.04571 0.0828469 0
0.10002 0.225545 0
0.0788152 0.21577 0
0.369719 0.224393 0
0.210352 0.308739 0
1.22342 0.0432967 0
[...]
CELL_DATA 1241
VECTORS velocity double
1.01768 -0.00418708 0.0
1.21651 0.0668376 0.0
0.458485 -0.000898927 0.0
0.950016 0.00215907 0.0
1.04129 0.00575185 0.0
1.42275 0.103035 0.0
1.1334 0.000190728 0.0
0.98423 -0.000839996 0.0
0.363435 0.015752 0.0
1.17461 0.00162379 0.0
1.31247 -0.119985 0.0
1.31627 0.126535 0.0
0.865764 -0.160592 0.0
1.01416 0.00807953 0.0
0.989532 0.00707973 0.0
1.46619 -0.0327341 0.0
0.977984 0.00118453 0.0
0.479596 0.0603736 0.0
1.17189 0.0626898 0.0
1.64768 -0.254101 0.0
1.02309 0.0055274 0.0
1.05933 -0.0662707 0.0
1.03515 1.37695e-05 0.0
1.25312 0.904892 0.0
1.0712 -0.00216723 0.0
1.02634 0.0036631 0.0
1.29895 -0.199379 0.0
1.07624 -0.0253462 0.0
1.32175 -0.0836656 0.0
1.46228 -0.0647789 0.0
1.33199 0.0902484 0.0
0.867273 -0.0370045 0.0
1.52021 0.00249462 0.0
1.01284 0.00642479 0.0
1.25597 -0.0568541 0.0
1.35881 0.156871 0.0
1.2118 -0.0556464 0.0
1.05041 -0.16783 0.0
0.359556 0.0205006 0.0
1.38211 0.14126 0.0
1.76458 -0.179683 0.0
1.41345 -0.045323 0.0
1.05282 -0.237169 0.0
0.51439 0.00711572 0.0
1.39916 -0.167147 0.0
0.508661 -0.00593873 0.0
1.20188 0.0993184 0.0
1.11414 0.0261994 0.0
1.61303 -0.313029 0.0
1.2399 -0.0106299 0.0
1.20768 0.001173 0.0
1.29084 -0.417486 0.0
0.869744 -0.00371422 0.0
1.4082 -0.0825695 0.0
1.77532 -0.279514 0.0
1.51876 -0.0289126 0.0
1.14959 -0.0404608 0.0
1.12577 -0.000206669 0.0
1.65855 -0.0989635 0.0
1.68775 -0.199239 0.0
1.15856 0.847292 0.0
0.997935 -3.39798e-05 0.0
0.195921 0.035588 0.0
1.02874 0.00781665 0.0
-0.24018 0.0713881 0.0
1.33192 0.227564 0.0
-0.279343 0.0863828 0.0
1.16263 -0.000444369 0.0
0.862408 -0.0259681 0.0
0.218555 0.0245577 0.0
1.16351 -0.00406665 0.0
0.793656 0.0140432 0.0
1.16254 -0.00356503 0.0
0.792026 -0.0139209 0.0
1.19933 0.00767928 0.0
0.881288 0.157073 0.0
0.94243 0.00616325 0.0
1.63157 -0.046342 0.0
0.979179 -0.0346987 0.0
0.610406 0.00113431 0.0
1.752 -0.382936 0.0
1.15969 -0.246699 0.0
0.655254 0.0120253 0.0
1.26144 -0.227315 0.0
1.34581 0.170056 0.0
0.919352 -0.0667117 0.0
1.20737 0.17832 0.0
0.086624 0.098663 0.0
1.83889 0.530326 0.0
1.18567 0.00384667 0.0
1.27232 0.0100776 0.0
-0.189401 -0.0110686 0.0
-0.347892 0.078418 0.0
1.4428 -0.0648429 0.0
1.18234 -0.0412597 0.0
0.989205 0.00123311 0.0
0.849569 -0.0259878 0.0
-0.18449 0.0906084 0.0
1.0158 -0.0105226 0.0
-0.243888 0.11285 0.0
1.08214 -0.0985566 0.0
1.15534 -0.0134486 0.0
0.946911 0.00160285 0.0
1.63932 -0.161181 0.0
1.74243 -0.670633 0.0
1.27317 -0.397895 0.0
1.07159 -0.0621913 0.0
0.498589 -0.0235183 0.0
1.78806 0.64963 0.0
1.21687 0.0034485 0.0
1.48518 -0.109486 0.0
1.23134 0.189933 0.0
0.131805 0.0758795 0.0
1.44146 -0.0270053 0.0
1.07989 0.0149391 0.0
1.44262 0.0400838 0.0
1.41387 0.0049052 0.0
1.39176 0.0528067 0.0
1.0638 -0.00150772 0.0
0.255775 0.0399367 0.0
1.19029 0.0420995 0.0
1.51968 0.581769 0.0
1.25168 0.108564 0.0
0.919898 -0.0634614 0.0
0.72723 -0.0995229 0.0
1.20512 0.0863313 0.0
1.44669 -0.0431166 0.0
1.11761 0.0249053 0.0
1.74966 0.501367 0.0
0.549908 -0.0713145 0.0
1.16199 -0.0137725 0.0
0.619101 -0.00155369 0.0
0.885829 0.0638554 0.0
1.60319 -0.0214025 0.0
1.01996 -0.153488 0.0
-0.275969 0.0745768 0.0
0.123308 0.0623059 0.0
1.2259 0.0824653 0.0
1.04828 -0.0253057 0.0
1.6639 -0.761315 0.0
1.50088 0.00357054 0.0
1.03449 0.00499655 0.0
1.07835 -0.245034 0.0
1.00468 0.00704817 0.0
1.52371 0.00739273 0.0
0.0228528 0.0313103 0.0
-0.254434 0.0379618 0.0
-0.182357 0.00608709 0.0
0.639442 0.0151817 0.0
0.650507 -0.0119276 0.0
0.555338 -0.101527 0.0
1.03458 -0.00716418 0.0
1.79641 -0.33253 0.0
1.04833 -0.153636 0.0
1.20282 -0.0491845 0.0
1.20456 0.0544194 0.0
0.496838 -0.000502821 0.0
1.64354 0.0736545 0.0
0.857448 0.0305206 0.0
1.24757 -0.0572097 0.0
-0.230533 0.0471483 0.0
1.74049 0.446429 0.0
1.14262 0.00680266 0.0
1.22204 -0.204903 0.0
1.14211 0.0345153 0.0
1.05422 0.130236 0.0
0.985224 -0.00129268 0.0
0.987067 0.10984 0.0
0.566543 -0.00313617 0.0
1.17175 -0.0346473 0.0
0.928382 -0.0247935 0.0
1.22603 0.00389627 0.0
1.36545 0.265482 0.0
1.19019 0.0868384 0.0
1.10502 0.00483152 0.0
1.11618 0.00576326 0.0
1.18256 0.198655 0.0
1.1201 -0.287596 0.0
1.11377 0.0107415 0.0
1.16601 -0.225242 0.0
1.11964 0.00843016 0.0
0.363408 0.110088 0.0
1.0877 -0.644386 0.0
0.730567 -0.127084 0.0
1.02263 -0.00778365 0.0
0.765682 -0.0789823 0.0
0.762191 -0.0636559 0.0
1.02675 0.00676297 0.0
1.05545 0.0959178 0.0
0.461033 0.0470089 0.0
0.889617 -0.829927 0.0
1.77865 0.344996 0.0
1.02818 -0.00204002 0.0
0.981532 0.00718948 0.0
0.66731 0.0602153 0.0
0.853291 0.0570945 0.0
0.397733 0.0590049 0.0
1.00235 -0.0148003 0.0
1.42771 -0.0322284 0.0
1.44965 0.581416 0.0
1.15458 0.193103 0.0
1.06891 -0.0136293 0.0
1.42685 0.0384002 0.0
1.04188 -0.0925401 0.0
1.40057 -0.0917158 0.0
1.43601 -0.0446981 0.0
0.48351 0.024499 0.0
0.660479 0.0127958 0.0
0.899363 -0.0228473 0.0
0.857117 0.033569 0.0
0.529825 0.0169727 0.0
0.519645 -0.00262033 0.0
1.79013 0.286406 0.0
1.11138 0.0102129 0.0
1.44086 -0.00374267 0.0
1.12104 0.0108871 0.0
0.732749 -0.0775828 0.0
1.51107 -0.090951 0.0
1.17619 -0.0311263 0.0
1.15968 -0.0116711 0.0
0.833097 -0.0495826 0.0
1.67136 -0.0703496 0.0
1.01008 0.0552994 0.0
0.996434 0.0115092 0.0
0.958345 -0.0262342 0.0
1.22469 0.00295148 0.0
1.43531 -0.137626 0.0
1.72987 -0.600839 0.0
1.18143 -0.00617591 0.0
1.19828 -0.0101749 0.0
0.994039 -0.00098007 0.0
1.06355 -0.132776 0.0
1.02672 -0.00943647 0.0
0.995283 -0.00603978 0.0
1.25801 0.310855 0.0
1.03831 -0.256609 0.0
1.09467 0.171847 0.0
1.31861 0.132671 0.0
0.744619 -0.1069 0.0
0.355084 -0.0454542 0.0
0.958679 0.0158967 0.0
1.4387 0.0570186 0.0
1.42205 0.918313 0.0
0.682938 -0.0851869 0.0
1.14838 -0.0160091 0.0
1.70428 0.140185 0.0
1.09694 -0.898583 0.0
0.868427 -0.177611 0.0
1.13986 -0.0379358 0.0
0.565733 -0.00790721 0.0
1.02605 0.0270244 0.0
0.550914 -0.00932506 0.0
1.03033 -0.00406653 0.0
1.21763 0.0037178 0.0
0.626503 -0.0118255 0.0
0.774733 -0.0337627 0.0
1.09485 -0.285465 0.0
1.32581 -0.104962 0.0
1.21561 0.00155242 0.0
1.0183 -0.00150222 0.0
1.00533 0.00919958 0.0
0.514317 -0.00550865 0.0
1.21828 0.00612481 0.0
0.735454 -0.0261818 0.0
1.12688 0.043841 0.0
0.998605 -0.00980975 0.0
0.571887 0.0037832 0.0
1.24101 -0.110227 0.0
1.22757 -0.171298 0.0
0.788275 -0.0267372 0.0
1.14022 -0.065677 0.0
0.593213 0.00154018 0.0
0.983566 -0.0142858 0.0
0.116746 0.0676071 0.0
1.19627 0.0002107 0.0
1.19318 -0.00964926 0.0
0.603408 -0.00399724 0.0
0.942866 -0.194438 0.0
0.986792 -0.0143162 0.0
1.42983 0.15477 0.0
1.19184 0.00195877 0.0
1.22606 -0.000581548 0.0
1.22356 -0.170783 0.0
1.22782 -0.00219192 0.0
1.2262 0.00125565 0.0
1.17209 -0.0172223 0.0
0.935696 -0.114762 0.0
0.835802 0.0428657 0.0
1.22828 -0.00451784 0.0
1.22467 -0.000219531 0.0
1.22063 -0.00152833 0.0
0.634874 0.0704855 0.0
0.470217 0.00515597 0.0
0.996442 0.0101106 0.0
0.554431 -0.00743903 0.0
1.22669 -0.00477496 0.0
1.00218 -0.0169362 0.0
1.15795 0.0108165 0.0
-0.261041 -0.0269439 0.0
0.970102 -0.010571 0.0
0.509683 -0.00407238 0.0
1.31895 -0.604738 0.0
1.12211 -0.00755826 0.0
0.972119 -0.0148154 0.0
0.532612 -0.00971019 0.0
1.22621 -0.00252391 0.0
0.867669 0.0408226 0.0
0.541542 0.00159535 0.0
0.993395 -0.014137 0.0
1.22707 -0.00509075 0.0
1.21978 -0.00226435 0.0
1.22416 -0.00237502 0.0
0.629299 -0.00686185 0.0
0.45519 0.00072144 0.0
1.22484 -0.0061051 0.0
1.14207 -0.0738094 0.0
1.20072 -0.00699546 0.0
0.611573 0.00986347 0.0
1.18209 -0.00801971 0.0
1.21741 -0.00462961 0.0
1.20495 0.00120121 0.0
1.22971 -0.00666045 0.0
0.474232 -0.00640017 0.0
1.22336 -0.00603848 0.0
1.22427 -0.00577373 0.0
1.21575 -0.00668881 0.0
0.464687 -0.00353354 0.0
1.2101 -0.00189816 0.0
1.18043 -0.00600953 0.0
1.19613 -0.000905227 0.0
1.22743 -0.00681112 0.0
1.17067 -0.1581 0.0
1.12807 0.00140218 0.0
1.22896 -0.00710724 0.0
1.3509 0.668513 0.0
1.21343 -0.00636383 0.0
0.517551 -0.00666679 0.0
1.0951 -0.0223746 0.0
0.572438 0.00801481 0.0
0.591819 -0.00944198 0.0
1.12045 0.00693962 0.0
1.09471 -0.0125967 0.0
1.06834 -0.00794686 0.0
0.530019 -0.00812983 0.0
1.10085 -0.0220926 0.0
1.12747 0.00554231 0.0
1.22643 -0.00752793 0.0
1.07451 0.139272 0.0
1.15511 -0.696836 0.0
0.560162 -0.00477702 0.0
0.518301 -0.00545055 0.0
1.22215 -0.00583335 0.0
1.224 -0.00784702 0.0
0.616672 -0.0185893 0.0
0.506258 -0.00938833 0.0
1.2197 -0.00512876 0.0
0.990999 0.0159235 0.0
1.1635 0.0111865 0.0
1.15516 -0.00686181 0.0
0.563511 0.00712535 0.0
0.514979 -0.00222297 0.0
1.14551 0.0173772 0.0
0.601165 0.0137801 0.0
0.566855 0.0144691 0.0
1.17523 0.0084278 0.0
0.617211 0.0207304 0.0
0.569167 -0.000720708 0.0
1.21082 -0.0046277 0.0
1.19885 -0.00399091 0.0
0.962369 0.0152087 0.0
1.20815 -0.0027051 0.0
1.18065 -0.00294835 0.0
1.21558 -0.00371351 0.0
0.984118 0.0110825 0.0
1.15067 -0.00346239 0.0
0.610031 0.00604907 0.0
0.503905 0.0140503 0.0
0.553974 0.0135329 0.0
0.472601 -0.0083496 0.0
0.537942 0.000332079 0.0
0.559423 -0.00502317 0.0
0.526094 -0.00248364 0.0
0.637724 -0.0139063 0.0
0.550194 -0.00475151 0.0
0.576092 0.0128759 0.0
0.494252 -0.00711967 0.0
0.573273 0.0156318 0.0
0.50409 -5.55449e-05 0.0
0.677658 0.0214117 0.0
0.576115 0.0102023 0.0
0.569768 -0.0115966 0.0
0.493364 0.00241679 0.0
0.528907 -0.00201457 0.0
0.511659 0.00749179 0.0
0.609448 -0.00985599 0.0
0.541493 -0.00138146 0.0
0.599262 -0.00774882 0.0
0.556009 -0.0124914 0.0
0.54342 0.00638796 0.0
0.524054 -0.000181429 0.0
0.5425 0.00333833 0.0
0.487198 -0.0167096 0.0
0.489568 0.019867 0.0
0.490873 0.000483272 0.0
0.554046 -0.00727086 0.0
0.499067 0.00335226 0.0
0.644705 -0.0211632 0.0
0.495554 0.0056626 0.0
0.472314 0.00504104 0.0
0.515306 0.000699235 0.0
0.491771 -0.00295565 0.0
1.17916 -0.00221013 0.0
1.15992 -0.00580886 0.0
1.22238 -0.00717546 0.0
1.22082 -0.00528491 0.0
1.22362 -0.00544355 0.0
1.11704 -0.00706785 0.0
1.19504 -0.00661796 0.0
1.17582 -0.00605254 0.0
1.18191 0.00354962 0.0
1.15342 -0.0025634 0.0
1.20671 -0.00753053 0.0
1.20901 -0.00817317 0.0
1.17194 -0.00599708 0.0
1.21707 -0.00395029 0.0
1.19389 -0.00149955 0.0
1.21761 -0.00598112 0.0
1.19138 -0.00687631 0.0
1.15147 0.000412744 0.0
1.21427 -0.00613808 0.0
1.21977 -0.00446682 0.0
1.20564 -0.00184263 0.0
1.21803 -0.00416544 0.0
1.2131 -0.00541368 0.0
1.15512 -0.00843157 0.0
1.21844 -0.00239537 0.0
1.19615 -0.00319653 0.0
1.21575 -0.00180279 0.0
1.1189 -0.000953956 0.0
1.19673 -0.00345926 0.0
1.19034 0.000644367 0.0
1.21175 -0.00186957 0.0
1.17393 -0.00117538 0.0
1.21098 -0.0025533 0.0
1.21388 -0.00259758 0.0
1.18504 0.00318938 0.0
1.21489 -0.00183001 0.0
1.20576 -0.00404832 0.0
1.2093 -0.000210819 0.0
1.1523 -0.00787295 0.0
1.17551 -0.00215015 0.0
1.21208 -0.000442158 0.0
1.20348 -0.00336153 0.0
1.20118 0.00112718 0.0
1.19832 0.00255991 0.0
1.16239 -0.0126836 0.0
1.21033 -0.000229127 0.0
1.2071 0.000153193 0.0
1.13652 -0.00535905 0.0
1.19224 -0.00413899 0.0
1.12027 0.00365049 0.0
1.17859 -0.0040008 0.0
1.18954 -0.00372026 0.0
1.2011 -0.00363532 0.0
1.20754 -0.00146988 0.0
1.1746 -0.00409147 0.0
1.20448 -0.00349142 0.0
1.20394 -0.00118685 0.0
1.20626 0.000141539 0.0
1.20181 0.00223094 0.0
1.19861 0.00257546 0.0
1.19679 0.00320871 0.0
1.18481 0.00506035 0.0
1.13522 -0.00579508 0.0
1.09363 0.00667067 0.0
1.18047 0.00646333 0.0
1.20242 0.000572618 0.0
0.573603 -0.00626531 0.0
1.18814 0.00496696 0.0
1.14889 0.0066257 0.0
1.17106 0.00689597 0.0
1.20051 0.00254423 0.0
1.16886 0.00667153 0.0
1.18101 0.00540872 0.0
1.17408 0.000254831 0.0
1.19187 0.00485631 0.0
1.1803 -0.000751152 0.0
1.13251 -0.00459193 0.0
1.13277 -0.00748525 0.0
1.15715 -0.00449253 0.0
1.18846 0.00612853 0.0
1.17626 -0.00393436 0.0
1.18755 0.00325143 0.0
1.16877 -0.00357962 0.0
1.18528 -0.00366031 0.0
1.1914 0.00264962 0.0
1.18499 0.00564986 0.0
0.981668 -0.0124747 0.0
1.17308 -0.00321219 0.0
1.17767 0.00751638 0.0
1.1462 0.00819357 0.0
1.19118 -0.00226186 0.0
1.19556 0.000128826 0.0
1.07986 -0.0179392 0.0
1.16763 0.0107253 0.0
1.18022 -0.00335152 0.0
1.14802 0.0145386 0.0
1.19134 -6.90686e-05 0.0
1.15095 0.0179208 0.0
1.16993 -0.00428678 0.0
1.19458 -0.00227308 0.0
1.17698 -0.000977304 0.0
1.11937 0.176559 0.0
1.15325 -0.00699589 0.0
1.21731 -0.00861919 0.0
1.17354 0.00925826 0.0
1.17818 0.00117976 0.0
1.15822 -0.0133359 0.0
1.1626 -0.00327703 0.0
1.13928 -0.00275095 0.0
1.16201 -0.00941196 0.0
1.17083 0.00262553 0.0
1.14088 -0.000909237 0.0
1.16576 0.00230014 0.0
1.16603 -0.00663151 0.0
1.16503 -0.00255523 0.0
1.15173 0.0120655 0.0
1.16288 -0.00521781 0.0
0.717297 -0.0205961 0.0
0.974173 0.00384582 0.0
1.1471 0.0143302 0.0
1.15033 0.00945143 0.0
1.15758 -0.00768082 0.0
1.14171 0.0120179 0.0
1.14905 0.014344 0.0
1.14804 -0.00240638 0.0
1.1304 0.000865639 0.0
1.14283 -0.00319188 0.0
1.1365 0.00094592 0.0
1.12387 0.012169 0.0
1.16114 0.0056292 0.0
1.15507 0.00855416 0.0
0.996441 0.00750938 0.0
1.15649 0.00582407 0.0
1.15937 0.0115463 0.0
1.15147 0.0120987 0.0
1.11708 0.0152508 0.0
1.1364 0.0158218 0.0
1.15625 0.0125064 0.0
1.73552 0.181545 0.0
1.12245 -0.0106485 0.0
1.12935 0.0194544 0.0
1.1017 -0.02252 0.0
1.14982 0.0221807 0.0
1.14947 0.0162911 0.0
1.11596 -0.0130014 0.0
1.14751 0.022222 0.0
1.21681 -0.00527297 0.0
1.0719 -0.00945859 0.0
1.09802 0.0155037 0.0
1.09976 -0.0069671 0.0
1.30706 0.126319 0.0
1.2129 -0.0051942 0.0
1.08145 -0.00199343 0.0
1.15379 -0.00762355 0.0
1.14148 0.0284316 0.0
1.14703 0.0227601 0.0
1.09213 -0.00856653 0.0
1.09575 -0.0275436 0.0
0.982289 -0.0144454 0.0
1.18859 -0.000545788 0.0
1.06947 0.000644966 0.0
1.07926 0.000176099 0.0
1.12258 0.0248605 0.0
1.11806 -0.0270449 0.0
1.02984 0.198336 0.0
0.963547 -0.0146553 0.0
1.13755 0.0340286 0.0
0.442516 -0.16447 0.0
1.38186 0.131683 0.0
1.18159 -0.0525652 0.0
1.06703 0.010357 0.0
1.06779 0.0258621 0.0
1.05589 0.0364859 0.0
1.21256 -0.00112791 0.0
1.05442 0.014366 0.0
1.03903 -0.0443322 0.0
1.30216 0.175941 0.0
1.00373 -0.142644 0.0
1.03402 -0.0580243 0.0
1.15189 -0.133577 0.0
1.14644 -0.0120855 0.0
1.0963 -0.0483787 0.0
1.17774 -0.00338506 0.0
0.938434 0.00177054 0.0
1.18121 0.0543521 0.0
1.01028 -0.0139847 0.0
1.23804 -0.102109 0.0
1.21171 -0.00534558 0.0
1.20048 -0.00635794 0.0
1.05746 -0.0201663 0.0
1.3984 -0.567462 0.0
1.13316 0.0836707 0.0
0.996863 -0.0203099 0.0
1.13344 0.0671413 0.0
0.959089 0.00148237 0.0
0.757148 0.0281999 0.0
1.09098 0.0451617 0.0
1.32725 -0.160592 0.0
0.934062 -0.0910105 0.0
1.09991 -0.0399623 0.0
0.632637 -0.556544 0.0
1.10852 -0.0283521 0.0
1.11455 -0.00659434 0.0
1.15217 -0.00731536 0.0
1.39103 -0.139644 0.0
1.08153 0.0601974 0.0
1.17759 -0.0026549 0.0
1.04916 -0.0263749 0.0
1.16423 0.0365073 0.0
0.989091 -0.0170857 0.0
1.34998 -0.771799 0.0
1.21995 0.00472306 0.0
1.17988 0.0518427 0.0
1.19686 0.00296487 0.0
1.12542 -0.000542095 0.0
1.18064 -0.0569222 0.0
1.06617 0.020272 0.0
1.21002 0.0816195 0.0
1.12208 -0.00802067 0.0
1.15963 0.0444596 0.0
0.960042 0.00163141 0.0
1.14868 0.0111371 0.0
1.18052 -0.531648 0.0
0.657692 -0.00620917 0.0
0.679665 -0.0233469 0.0
0.926732 0.0271894 0.0
1.26635 0.119942 0.0
1.15163 -0.00619007 0.0
1.17964 -0.00537313 0.0
0.605563 0.0102658 0.0
1.19876 -0.00591257 0.0
0.328624 -0.123573 0.0
1.07392 -0.0994821 0.0
0.556729 0.00861747 0.0
0.562164 -0.0114098 0.0
0.901154 0.0403302 0.0
1.15603 -0.00578849 0.0
0.863952 -0.17434 0.0
0.852357 -0.025038 0.0
1.68893 -0.124938 0.0
0.94122 0.0374428 0.0
1.15056 -0.0106038 0.0
1.15124 -0.0120945 0.0
1.05243 0.00828265 0.0
1.21758 0.0036295 0.0
1.17536 0.00135919 0.0
1.18512 0.348317 0.0
0.619302 0.0174852 0.0
1.01817 0.00217172 0.0
1.369 -0.0980938 0.0
0.5374 0.00742656 0.0
1.58078 0.560905 0.0
0.935454 -0.0419452 0.0
0.798052 -0.0267812 0.0
1.34086 0.0883715 0.0
0.783376 -0.0538591 0.0
0.955437 -0.000671177 0.0
0.668797 -0.116403 0.0
1.15733 -0.0169707 0.0
0.88093 0.0996211 0.0
1.13795 -0.014677 0.0
0.660439 -0.00413847 0.0
1.02911 0.00573399 0.0
0.98139 0.136456 0.0
1.40956 -0.0328508 0.0
0.521571 -0.00334893 0.0
0.637918 -0.0245189 0.0
0.918751 0.805431 0.0
1.1101 -0.00105215 0.0
1.05149 0.0116486 0.0
1.39233 0.0134935 0.0
0.600899 -0.0106439 0.0
1.13208 0.0180859 0.0
1.16665 -0.448617 0.0
0.186483 0.0223931 0.0
0.926528 -0.063401 0.0
1.07094 -0.083584 0.0
0.7345 0.024008 0.0
0.520302 0.0179491 0.0
1.64893 0.0361997 0.0
1.15383 -0.00579233 0.0
0.311487 0.0152313 0.0
0.572957 0.025051 0.0
1.14411 -0.00591202 0.0
1.20039 -0.00623487 0.0
1.00202 -0.0177332 0.0
0.939445 0.0625372 0.0
1.20922 0.172541 0.0
0.638719 0.0109513 0.0
1.1997 0.0078692 0.0
0.920781 0.0929463 0.0
1.2044 -0.00778678 0.0
1.38801 -0.593458 0.0
0.517507 0.000763786 0.0
1.45917 -0.130166 0.0
1.11017 0.00764535 0.0
0.953656 -0.013875 0.0
0.621573 0.0903248 0.0
0.992258 0.102078 0.0
0.897473 0.139864 0.0
1.11255 0.00877035 0.0
1.21706 -0.0582688 0.0
1.39921 -0.0369416 0.0
0.584118 0.0049628 0.0
0.608284 0.0150666 0.0
1.07442 -0.00349887 0.0
0.404541 -0.072892 0.0
1.04367 0.036636 0.0
0.493714 0.00366081 0.0
0.966337 -0.011166 0.0
1.11093 -0.00444122 0.0
0.944632 -0.00949309 0.0
0.555251 -0.00652025 0.0
0.554624 0.0191717 0.0
0.568061 0.00910123 0.0
0.523163 0.00724988 0.0
0.58659 0.0109902 0.0
1.21072 0.66958 0.0
1.36076 0.069486 0.0
0.96472 -0.00268043 0.0
0.546141 0.00775008 0.0
0.557966 -0.0125716 0.0
0.69849 0.0251158 0.0
1.15575 -0.0477288 0.0
0.617373 0.00126627 0.0
1.60392 -0.193047 0.0
1.29554 0.0956441 0.0
0.537788 -0.140662 0.0
1.34494 -0.0938807 0.0
1.52683 -0.46682 0.0
1.0092 0.00508772 0.0
1.09052 0.018321 0.0
1.14273 -0.0124128 0.0
0.962114 0.00227532 0.0
0.837063 -0.689229 0.0
1.02515 -0.00142577 0.0
0.979049 -0.00520152 0.0
1.19967 -0.0120784 0.0
1.12093 -0.0344586 0.0
1.64819 -0.00035659 0.0
-0.120451 0.0979775 0.0
0.507499 -0.0688054 0.0
1.33617 0.518163 0.0
1.07424 -0.0119961 0.0
0.606467 -0.0116344 0.0
0.578537 -0.00523733 0.0
0.574091 -0.00559332 0.0
1.21812 0.00578666 0.0
0.634318 0.21152 0.0
1.17465 -0.024932 0.0
0.977147 0.0116005 0.0
0.751831 0.163366 0.0
1.12499 -0.00249756 0.0
0.139589 -0.00993043 0.0
1.18607 0.00598045 0.0
0.568018 0.0208885 0.0
0.565219 -0.0100601 0.0
1.34023 0.0856882 0.0
0.844379 -0.0111664 0.0
1.50645 0.0321785 0.0
0.974982 0.0143299 0.0
0.991262 0.0105011 0.0
0.11246 -0.166224 0.0
0.974517 0.0285861 0.0
1.17071 0.0129674 0.0
1.1532 0.0130615 0.0
0.356381 -0.136375 0.0
1.61645 -0.273188 0.0
1.09328 -0.000100365 0.0
1.28771 0.195312 0.0
0.592564 -0.0136019 0.0
0.560603 -0.00720661 0.0
1.12352 -0.0167848 0.0
0.531844 0.0898109 0.0
1.1265 -0.0274669 0.0
0.808707 0.0218781 0.0
0.934902 -0.00914442 0.0
1.1314 0.011967 0.0
0.998205 -0.00372441 0.0
0.201883 -0.0209011 0.0
1.14706 -0.0124983 0.0
0.310005 0.0603844 0.0
1.01192 -0.00129693 0.0
1.0036 -0.00381225 0.0
0.577058 -0.0158701 0.0
1.07013 -0.00938859 0.0
1.17472 -0.0250428 0.0
0.950973 5.74863e-05 0.0
0.991328 -0.0127023 0.0
1.20024 -0.964631 0.0
1.1321 0.02254 0.0
1.69271 0.48689 0.0
0.560504 -0.0161509 0.0
0.550549 0.00642781 0.0
1.16679 0.00525821 0.0
1.22347 -0.00624132 0.0
1.11321 -0.00774225 0.0
1.1226 -0.00117992 0.0
1.17982 0.00507842 0.0
1.13073 0.00458974 0.0
1.21419 -0.00860617 0.0
1.15071 0.0260348 0.0
-0.197843 0.0188076 0.0
1.10293 0.0151964 0.0
-0.0241839 0.0294694 0.0
0.661895 -0.0255143 0.0
1.20459 -0.177713 0.0
1.14509 -0.010812 0.0
1.36829 -0.138243 0.0
1.64633 -0.502395 0.0
0.314249 -0.0181107 0.0
1.20764 -0.00767658 0.0
1.12899 0.271996 0.0
1.35085 -0.0985093 0.0
1.07137 0.305683 0.0
1.70952 0.0867328 0.0
0.975248 -0.542457 0.0
1.37208 0.132328 0.0
1.1223 -0.0163966 0.0
1.28964 -0.48097 0.0
-0.0867602 -0.108386 0.0
1.05852 0.000530325 0.0
1.31866 -0.394841 0.0
0.503463 -0.00479451 0.0
1.4186 -0.149886 0.0
1.68462 0.19836 0.0
1.09104 0.0124935 0.0
0.405828 0.01527 0.0
0.717035 0.00181812 0.0
0.267872 -0.228467 0.0
0.956545 0.0460169 0.0
-0.118124 -0.0301095 0.0
1.14671 -0.162636 0.0
1.49621 0.144021 0.0
0.533997 0.00910588 0.0
1.22917 -0.0691262 0.0
0.969348 0.000403548 0.0
1.20958 0.0050616 0.0
0.435154 -0.615528 0.0
1.22864 0.264368 0.0
0.729844 -0.162701 0.0
0.191338 -0.33094 0.0
0.518383 0.160724 0.0
1.3026 0.23849 0.0
0.598472 0.152417 0.0
0.96684 -0.0121759 0.0
1.13834 -0.0154926 0.0
1.08208 0.0111005 0.0
1.0751 0.00912238 0.0
0.572742 0.00754364 0.0
0.0243617 0.0821182 0.0
1.3083 0.299779 0.0
0.46501 -0.00197067 0.0
1.10113 0.0089294 0.0
0.26444 0.216271 0.0