# vtk DataFile Version 3.0
Malha 2D com triângulos e temperatura
ASCII
DATASET UNSTRUCTURED_GRID

POINTS 688 double
0 0 0
2.2 0 0
2.2 0.41 0
0 0.41 0
0.25 0.2 0
0.05 0 0
0.1 0 0
0.15 0 0
0.2 0 0
0.25 0 0
0.3 0 0
0.35 0 0
0.4 0 0
0.45 0 0
0.5 0 0
0.55 0 0
0.6 0 0
0.65 0 0
0.7 0 0
0.75 0 0
0.8 0 0
0.85 0 0
0.9 0 0
0.95 0 0
1 0 0
1.05 0 0
1.1 0 0
1.15 0 0
1.2 0 0
1.25 0 0
1.3 0 0
1.35 0 0
1.4 0 0
1.45 0 0
1.5 0 0
1.55 0 0
1.6 0 0
1.65 0 0
1.7 0 0
1.75 0 0
1.8 0 0
1.85 0 0
1.9 0 0
1.95 0 0
2 0 0
2.05 0 0
2.1 0 0
2.15 0 0
2.2 0.0455556 0
2.2 0.0911111 0
2.2 0.136667 0
2.2 0.182222 0
2.2 0.227778 0
2.2 0.273333 0
2.2 0.318889 0
2.2 0.364444 0
2.15 0.41 0
2.1 0.41 0
2.05 0.41 0
2 0.41 0
1.95 0.41 0
1.9 0.41 0
1.85 0.41 0
1.8 0.41 0
1.75 0.41 0
1.7 0.41 0
1.65 0.41 0
1.6 0.41 0
1.55 0.41 0
1.5 0.41 0
1.45 0.41 0
1.4 0.41 0
1.35 0.41 0
1.3 0.41 0
1.25 0.41 0
1.2 0.41 0
1.15 0.41 0
1.1 0.41 0
1.05 0.41 0
1 0.41 0
0.95 0.41 0
0.9 0.41 0
0.85 0.41 0
0.8 0.41 0
0.75 0.41 0
0.7 0.41 0
0.65 0.41 0
0.6 0.41 0
0.55 0.41 0
0.5 0.41 0
0.45 0.41 0
0.4 0.41 0
0.35 0.41 0
0.3 0.41 0
0.25 0.41 0
0.2 0.41 0
0.15 0.41 0
0.1 0.41 0
0.05 0.41 0
0 0.364444 0
0 0.318889 0
0 0.273333 0
0 0.227778 0
0 0.182222 0
0 0.136667 0
0 0.0911111 0
0 0.0455556 0
0.248831 0.210749 0
0.245379 0.220994 0
0.239805 0.230259 0
0.232369 0.238108 0
0.22342 0.244176 0
0.213376 0.248177 0
0.202707 0.249927 0
0.191911 0.249341 0
0.181493 0.246449 0
0.171941 0.241384 0
0.1637 0.234385 0
0.157157 0.225778 0
0.152617 0.215965 0
0.150293 0.205406 0
0.150293 0.194594 0
0.152617 0.184035 0
0.157157 0.174222 0
0.1637 0.165615 0
0.171941 0.158616 0
0.181493 0.153551 0
0.191911 0.150659 0
0.202707 0.150073 0
0.213376 0.151823 0
0.22342 0.155824 0
0.232369 0.161892 0
0.239805 0.169741 0
0.245379 0.179006 0
0.248831 0.189251 0
0.421316 0.36725 0
0.426705 0.0366526 0
2.16065 0.209201 0
1.52286 0.0417259 0
0.626017 0.37111 0
1.3257 0.0414552 0
1.02471 0.0432237 0
1.17293 0.0421053 0
0.82501 0.36678 0
1.6757 0.370064 0
1.91628 0.0358195 0
1.82501 0.366432 0
0.723429 0.0421499 0
1.425 0.366699 0
1.97461 0.366224 0
1.12167 0.370137 0
0.975 0.368691 0
0.877672 0.0412714 0
1.27686 0.36884 0
1.725 0.0433013 0
0.579174 0.0416211 0
0.325589 0.363848 0
0.319111 0.0378151 0
0.0394523 0.296111 0
0.0329929 0.11602 0
0.142108 0.187428 0
1.57555 0.364352 0
2.02603 0.0412138 0
0.725007 0.36763 0
0.528647 0.366595 0
1.62699 0.0400272 0
1.82929 0.0421255 0
1.425 0.0418325 0
2.07474 0.364233 0
0.125 0.0433013 0
0.161245 0.155011 0
0.225 0.366699 0
0.210027 0.258536 0
2.16034 0.115449 0
0.0371627 0.204103 0
0.142311 0.212698 0
0.220283 0.0418538 0
0.221965 0.145099 0
0.196802 0.141016 0
0.119851 0.373394 0
0.161112 0.245979 0
0.184892 0.258024 0
2.16342 0.30039 0
2.12627 0.047699 0
0.183325 0.0412617 0
0.152317 0.0762976 0
0.203864 0.0745802 0
0.234384 0.0774346 0
0.215969 0.103585 0
0.245651 0.104548 0
0.186562 0.100216 0
0.268213 0.0793029 0
0.272149 0.109155 0
0.242885 0.159377 0
0.253088 0.128261 0
0.278718 0.13214 0
0.295917 0.115997 0
0.301728 0.138858 0
0.321266 0.12205 0
0.324642 0.151724 0
0.255978 0.181139 0
0.350123 0.129049 0
0.357539 0.159885 0
0.333541 0.181416 0
0.36451 0.19182 0
0.250573 0.230419 0
0.391277 0.169722 0
0.339477 0.212308 0
0.39836 0.205386 0
0.427326 0.18117 0
0.258724 0.206387 0
0.434392 0.219501 0
0.466446 0.193907 0
0.472865 0.243064 0
0.507358 0.209962 0
0.40073 0.238916 0
0.499135 0.1652 0
0.5419 0.179224 0
0.550176 0.22496 0
0.585844 0.194129 0
0.594095 0.240176 0
0.630701 0.209517 0
0.621901 0.162424 0
0.667731 0.178095 0
0.676485 0.226008 0
0.713906 0.194492 0
0.722681 0.242872 0
0.760442 0.211047 0
0.751547 0.162356 0
0.798298 0.179 0
0.807147 0.227866 0
0.845136 0.195775 0
0.854541 0.243285 0
0.892163 0.212344 0
0.902461 0.257947 0
0.93935 0.228684 0
0.930236 0.180167 0
0.977229 0.197066 0
0.986264 0.245777 0
1.02423 0.213991 0
1.0331 0.263172 0
1.07123 0.230975 0
1.06234 0.181814 0
1.10938 0.198721 0
1.09996 0.151012 0
1.14691 0.168161 0
1.15631 0.215921 0
1.19446 0.183678 0
1.20343 0.232645 0
1.2416 0.200322 0
1.23272 0.151117 0
1.2798 0.167954 0
1.28868 0.217167 0
1.32685 0.184862 0
1.33573 0.234064 0
1.3739 0.201768 0
0.789327 0.130094 0
1.38279 0.25097 0
1.42096 0.218674 0
1.41207 0.169471 0
1.45912 0.186378 0
1.46801 0.235581 0
1.50618 0.203285 0
1.51506 0.252489 0
1.55323 0.220192 0
1.54435 0.170989 0
1.5914 0.187896 0
1.60029 0.2371 0
1.63846 0.204803 0
1.64734 0.254007 0
1.68551 0.221711 0
1.67663 0.172507 0
1.72368 0.189415 0
1.73831 0.241548 0
1.77074 0.206322 0
1.76185 0.157121 0
1.8091 0.17428 0
1.81866 0.220885 0
1.85608 0.190621 0
1.86521 0.238879 0
1.90289 0.207671 0
1.91264 0.253772 0
1.94955 0.224093 0
1.94067 0.17593 0
1.98705 0.192828 0
1.99572 0.240997 0
2.0329 0.209382 0
2.02422 0.16161 0
2.04166 0.257286 0
0.419739 0.142889 0
0.968291 0.148058 0
0.310035 0.202211 0
0.316128 0.230863 0
0.658501 0.130052 0
0.685107 0.27445 0
1.34462 0.283266 0
1.16528 0.264896 0
1.84735 0.142081 0
0.557687 0.270604 0
1.21234 0.281769 0
1.58252 0.138692 0
0.533563 0.131933 0
0.489835 0.120004 0
1.45024 0.137174 0
2.06974 0.17785 0
2.06113 0.130713 0
0.283221 0.152215 0
0.921299 0.131169 0
0.343836 0.24295 0
0.319203 0.260002 0
0.235529 0.249617 0
0.347029 0.274099 0
0.291856 0.246297 0
0.295938 0.27548 0
0.272836 0.264931 0
0.27461 0.290522 0
0.251228 0.280224 0
0.253903 0.305808 0
0.232795 0.296709 0
0.298805 0.304058 0
1.0801 0.280176 0
1.47689 0.284785 0
1.05315 0.133468 0
1.09741 0.0970974 0
1.82427 0.272867 0
1.2701 0.118911 0
0.816337 0.277695 0
1.40432 0.121101 0
1.04244 0.320388 0
0.959305 0.103028 0
1.60923 0.286151 0
0.601674 0.286775 0
2.00739 0.280923 0
0.342592 0.0992796 0
0.375237 0.105729 0
1.52511 0.298716 0
1.53114 0.119823 0
0.733824 0.287256 0
0.613372 0.114719 0
0.645558 0.0838585 0
2.015 0.115858 0
1.22718 0.0994086 0
1.39166 0.29817 0
1.3564 0.329754 0
0.744134 0.11556 0
0.782853 0.0841771 0
0.826899 0.10047 0
1.17418 0.314034 0
0.520902 0.0906676 0
1.4967 0.329429 0
1.26048 0.0740437 0
0.365514 0.0716355 0
0.229836 0.121666 0
1.57453 0.09137 0
1.61938 0.110761 0
0.481716 0.0753791 0
0.14093 0.2 0
0.130041 0.192847 0
0.131507 0.178608 0
0.117165 0.184444 0
0.120761 0.164701 0
0.1156 0.199931 0
0.100804 0.174136 0
0.102545 0.153034 0
0.12169 0.143342 0
0.104604 0.13008 0
0.0809304 0.161171 0
0.128077 0.121858 0
0.106825 0.102278 0
0.082498 0.188728 0
0.0314738 0.158621 0
2.04625 0.310891 0
2.08475 0.27479 0
2.11394 0.138117 0
0.233149 0.151108 0
0.258724 0.193613 0
0.268522 0.184917 0
1.65397 0.301059 0
0.145962 0.224912 0
0.132503 0.222267 0
0.13746 0.236947 0
0.120111 0.233525 0
0.126593 0.25219 0
0.105294 0.247497 0
0.113343 0.26868 0
0.133997 0.271734 0
0.121622 0.292031 0
0.147069 0.292141 0
0.0896563 0.267464 0
0.0813699 0.243294 0
0.163574 0.276939 0
0.172694 0.298517 0
0.1583 0.321483 0
0.186823 0.322499 0
0.173113 0.348195 0
0.0322087 0.250839 0
0.211694 0.124337 0
0.250615 0.169546 0
0.256243 0.157787 0
0.170796 0.14736 0
0.156755 0.141654 0
0.17187 0.131161 0
0.147502 0.152323 0
0.198129 0.260662 0
0.206368 0.271663 0
0.220945 0.26864 0
0.190489 0.270628 0
0.198813 0.286731 0
0.55749 0.322277 0
0.520166 0.299321 0
0.235199 0.330709 0
0.267109 0.337524 0
0.172324 0.25256 0
0.255974 0.218859 0
0.268327 0.214994 0
0.184197 0.143083 0
0.188721 0.129954 0
0.209694 0.139146 0
0.269223 0.244007 0
0.252374 0.255244 0
0.282229 0.0410487 0
1.21977 0.330016 0
1.25733 0.296346 0
2.09358 0.0890819 0
0.244373 0.240984 0
0.0838116 0.115786 0
0.0797544 0.0817835 0
0.237449 0.264854 0
0.247178 0.146225 0
0.270136 0.2 0
0.28023 0.191334 0
0.263476 0.170737 0
0.371486 0.368728 0
0.396124 0.330051 0
0.440314 0.325693 0
0.357693 0.329668 0
0.476576 0.362035 0
0.29587 0.222914 0
0.307627 0.175476 0
0.079599 0.0406461 0
0.146062 0.252571 0
0.15162 0.125025 0
0.417223 0.294608 0
0.457089 0.286958 0
0.036619 0.338729 0
0.0713014 0.322193 0
0.0735823 0.36704 0
0.041143 0.0722223 0
0.693501 0.32349 0
0.145406 0.175484 0
0.138777 0.164467 0
0.300367 0.0698839 0
0.167025 0.112083 0
0.146978 0.105544 0
0.151909 0.236762 0
0.444611 0.106436 0
0.909355 0.0817561 0
0.282901 0.370713 0
1.61474 0.330739 0
0.578053 0.368179 0
0.824695 0.0487848 0
2.09634 0.3213 0
2.02276 0.364865 0
2.12532 0.363702 0
1.09789 0.328757 0
0.161137 0.260089 0
2.07793 0.225752 0
2.12079 0.240944 0
2.0747 0.0437362 0
1.89402 0.158846 0
1.93154 0.128738 0
1.8848 0.111477 0
1.8384 0.0926484 0
1.87744 0.0655304 0
1.7913 0.0793874 0
1.9712 0.046671 0
1.92502 0.366682 0
1.94563 0.325156 0
1.89941 0.326645 0
1.87499 0.367178 0
1.84989 0.323491 0
1.7997 0.321303 0
1.77183 0.280326 0
1.75031 0.321965 0
1.77491 0.365615 0
2.11727 0.191885 0
0.883187 0.163467 0
1.71449 0.140266 0
1.667 0.125342 0
1.70591 0.0884759 0
1.67732 0.042286 0
1.52278 0.370513 0
1.37512 0.04128 0
1.34848 0.0834574 0
0.776093 0.367587 0
1.125 0.0433013 0
1.15 0.0866019 0
1.07442 0.0496847 0
0.974527 0.0370837 0
1.47464 0.0427918 0
1.44953 0.0873752 0
1.17595 0.362984 0
1.025 0.366699 0
0.925007 0.367031 0
0.95 0.323404 0
0.897321 0.326356 0
0.874563 0.367261 0
0.846552 0.324465 0
1.62923 0.156667 0
1.32319 0.13033 0
1.69342 0.270472 0
1.49568 0.156227 0
1.56237 0.268721 0
1.44 0.319169 0
1.43005 0.267892 0
1.36502 0.152565 0
0.993446 0.294003 0
1.30179 0.321101 0
1.18235 0.127964 0
1.25016 0.2491 0
1.29638 0.266841 0
1.11824 0.247967 0
1.12945 0.294699 0
1.01527 0.165035 0
0.836192 0.147197 0
1.4998 0.0831488 0
1.00655 0.118664 0
0.872896 0.117126 0
0.70523 0.146383 0
1.96013 0.276645 0
0.769406 0.257102 0
0.699552 0.0908977 0
2.1587 0.162257 0
1.97813 0.145326 0
0.646036 0.302035 0
0.799423 0.326603 0
0.515621 0.255445 0
1.72538 0.366474 0
1.97009 0.0998346 0
1.57108 0.313772 0
0.577925 0.14549 0
0.638911 0.256447 0
0.407352 0.0771641 0
0.525103 0.042511 0
0.674231 0.370698 0
1.69802 0.321701 0
0.56947 0.0908728 0
1.75459 0.110239 0
1.80084 0.126127 0
0.673535 0.0431435 0
1.57391 0.0465733 0
2.04571 0.0828469 0
0.10002 0.225545 0
0.0788152 0.21577 0
0.369719 0.224393 0
0.210352 0.308739 0
1.22342 0.0432967 0
[...]
CELL_DATA 1241
VECTORS velocity double
1.01381 -0.00422277 0.0
1.21729 0.0665098 0.0
0.445665 -0.00160522 0.0
0.944476 0.00175081 0.0
1.04406 0.00551009 0.0
1.42286 0.103156 0.0
1.13503 0.000197936 0.0
0.979603 -0.00080491 0.0
0.363172 0.0158239 0.0
1.17934 0.00139743 0.0
1.31247 -0.119983 0.0
1.31627 0.126543 0.0
0.865763 -0.160595 0.0
1.01567 0.00860006 0.0
0.991245 0.0064803 0.0
1.46635 -0.0328843 0.0
0.979613 0.000564692 0.0
0.479611 0.0603814 0.0
1.17282 0.0623856 0.0
1.64766 -0.254202 0.0
1.02122 0.00428654 0.0
1.05945 -0.0663127 0.0
1.03806 -0.000262514 0.0
1.25311 0.904906 0.0
1.07097 -0.00228532 0.0
1.02434 0.00254982 0.0
1.29898 -0.199437 0.0
1.07638 -0.0253975 0.0
1.32175 -0.0836643 0.0
1.46242 -0.0649095 0.0
1.33199 0.0902545 0.0
0.86832 -0.0368852 0.0
1.52045 0.00268858 0.0
1.01429 0.00686603 0.0
1.25682 -0.0565535 0.0
1.35889 0.156963 0.0
1.21278 -0.0553705 0.0
1.05041 -0.167832 0.0
0.359562 0.0205049 0.0
1.38219 0.14136 0.0
1.7645 -0.179813 0.0
1.41327 -0.0454492 0.0
1.05282 -0.237188 0.0
0.501067 0.00669321 0.0
1.39921 -0.167239 0.0
0.496682 -0.00760978 0.0
1.20157 0.0990293 0.0
1.11538 0.0257963 0.0
1.61301 -0.313111 0.0
1.23969 -0.0104642 0.0
1.21491 0.000946737 0.0
1.29083 -0.417497 0.0
0.869527 -0.00364304 0.0
1.40872 -0.0823479 0.0
1.77523 -0.279615 0.0
1.519 -0.0286917 0.0
1.15108 -0.0399657 0.0
1.12719 -0.00019071 0.0
1.65841 -0.0990967 0.0
1.68774 -0.199373 0.0
1.15855 0.847309 0.0
0.993933 -0.000123909 0.0
0.195578 0.0357978 0.0
1.02717 0.00675651 0.0
-0.240027 0.0714446 0.0
1.33192 0.227578 0.0
-0.279594 0.0861875 0.0
1.16767 -0.00195601 0.0
0.863347 -0.0258752 0.0
0.21818 0.0244282 0.0
1.16841 -0.0056808 0.0
0.79343 0.01415 0.0
1.16732 -0.00523879 0.0
0.791715 -0.0137106 0.0
1.2072 0.00711131 0.0
0.881295 0.157087 0.0
0.942781 0.00728201 0.0
1.63144 -0.0465147 0.0
0.979782 -0.0346072 0.0
0.613302 0.00124741 0.0
1.75194 -0.383011 0.0
1.1597 -0.246732 0.0
0.65851 0.0118732 0.0
1.26146 -0.227371 0.0
1.34581 0.170068 0.0
0.91941 -0.0667443 0.0
1.20691 0.17803 0.0
0.0860636 0.0984488 0.0
1.83884 0.530391 0.0
1.19267 0.00314124 0.0
1.27211 0.0102075 0.0
-0.189657 -0.011034 0.0
-0.348002 0.0782888 0.0
1.44321 -0.0646246 0.0
1.18242 -0.040677 0.0
0.984827 0.00131125 0.0
0.849239 -0.0258347 0.0
-0.184463 0.0905953 0.0
1.01826 -0.0114172 0.0
-0.244265 0.112559 0.0
1.08214 -0.0985571 0.0
1.15917 -0.0150324 0.0
0.94742 0.00265774 0.0
1.63916 -0.161265 0.0
1.74235 -0.670641 0.0
1.27316 -0.397902 0.0
1.07132 -0.061961 0.0
0.498269 -0.0236618 0.0
1.78799 0.649656 0.0
1.22519 0.00316743 0.0
1.48538 -0.109184 0.0
1.23093 0.189668 0.0
0.131621 0.0759905 0.0
1.44146 -0.0270015 0.0
1.08014 0.0148787 0.0
1.44262 0.0400891 0.0
1.4141 0.00475053 0.0
1.39195 0.0529559 0.0
1.06632 -0.00218103 0.0
0.255305 0.0397049 0.0
1.1901 0.0421839 0.0
1.51966 0.581804 0.0
1.25161 0.108219 0.0
0.919983 -0.063483 0.0
0.726829 -0.0993327 0.0
1.20474 0.0860243 0.0
1.44706 -0.0429246 0.0
1.11888 0.0245032 0.0
1.74956 0.501392 0.0
0.549919 -0.0713178 0.0
1.16602 -0.0151721 0.0
0.622243 -0.00175361 0.0
0.885946 0.0638839 0.0
1.6033 -0.0216053 0.0
1.01945 -0.153229 0.0
-0.276054 0.0745682 0.0
0.123173 0.0625399 0.0
1.22671 0.0822051 0.0
1.0487 -0.0252361 0.0
1.66382 -0.761311 0.0
1.50088 0.00357328 0.0
1.03556 0.00605588 0.0
1.07835 -0.245054 0.0
1.005 0.00698762 0.0
1.52351 0.0072082 0.0
0.0223359 0.0311653 0.0
-0.254477 0.0380605 0.0
-0.182756 0.00601897 0.0
0.642144 0.0153726 0.0
0.653416 -0.0116934 0.0
0.555345 -0.101533 0.0
1.03493 -0.0070961 0.0
1.79633 -0.33261 0.0
1.04786 -0.153382 0.0
1.20282 -0.0491844 0.0
1.20456 0.0544228 0.0
0.482619 -0.00103016 0.0
1.64365 0.0738401 0.0
0.857117 0.0303622 0.0
1.2485 -0.0569722 0.0
-0.230503 0.0469735 0.0
1.74047 0.446508 0.0
1.14301 0.00836959 0.0
1.22204 -0.204902 0.0
1.14318 0.0341009 0.0
1.05422 0.130245 0.0
0.981774 -0.000406646 0.0
0.987063 0.109857 0.0
0.566356 -0.00355052 0.0
1.17139 -0.0340274 0.0
0.929241 -0.0246635 0.0
1.23535 0.00344023 0.0
1.36547 0.265547 0.0
1.19112 0.0865898 0.0
1.10486 0.00563651 0.0
1.11579 0.00642441 0.0
1.18261 0.198715 0.0
1.12009 -0.287606 0.0
1.11406 0.0121147 0.0
1.16602 -0.225276 0.0
1.11923 0.00907529 0.0
0.363105 0.110224 0.0
1.08768 -0.644369 0.0
0.730583 -0.127092 0.0
1.02511 -0.00860057 0.0
0.765704 -0.0789961 0.0
0.762227 -0.0636706 0.0
1.02763 0.0077796 0.0
1.05545 0.0959233 0.0
0.461055 0.0470129 0.0
0.889593 -0.829902 0.0
1.77863 0.3451 0.0
1.02837 -0.00208847 0.0
0.984036 0.00661468 0.0
0.667351 0.0602324 0.0
0.852979 0.056906 0.0
0.397738 0.0590099 0.0
0.998422 -0.0149096 0.0
1.42771 -0.0322272 0.0
1.44964 0.581447 0.0
1.15458 0.193116 0.0
1.06921 -0.0135413 0.0
1.42685 0.0384029 0.0
1.04161 -0.0922875 0.0
1.40111 -0.0914609 0.0
1.436 -0.0446929 0.0
0.483221 0.0244043 0.0
0.66251 0.0125693 0.0
0.900055 -0.0227448 0.0
0.857824 0.033497 0.0
0.516225 0.0171005 0.0
0.513954 -0.00304804 0.0
1.79011 0.286527 0.0
1.11175 0.0117972 0.0
1.44069 -0.00355595 0.0
1.12144 0.012255 0.0
0.731525 -0.0773632 0.0
1.51123 -0.0906626 0.0
1.17572 -0.0305573 0.0
1.1638 -0.0132083 0.0
0.833097 -0.0495833 0.0
1.67135 -0.0705375 0.0
1.01023 0.0553483 0.0
0.996189 0.011371 0.0
0.95886 -0.0261646 0.0
1.2337 0.00242533 0.0
1.43554 -0.137309 0.0
1.7298 -0.600868 0.0
1.18422 -0.00571113 0.0
1.20307 -0.0111291 0.0
0.990926 -7.50327e-07 0.0
1.06355 -0.132777 0.0
1.02928 -0.0102379 0.0
0.9976 -0.00674721 0.0
1.25791 0.310859 0.0
1.03831 -0.256621 0.0
1.09398 0.171532 0.0
1.3188 0.13239 0.0
0.743615 -0.106685 0.0
0.355088 -0.0454553 0.0
0.958902 0.0159424 0.0
1.4387 0.0570256 0.0
1.42203 0.918329 0.0
0.682938 -0.0851895 0.0
1.15185 -0.0175008 0.0
1.70424 0.140342 0.0
1.09691 -0.89856 0.0
0.868425 -0.177616 0.0
1.14131 -0.0375002 0.0
0.559593 -0.00848337 0.0
1.02622 0.0270751 0.0
0.543937 -0.00976668 0.0
1.03198 -0.00487292 0.0
1.22631 0.0029435 0.0
0.617496 -0.0119265 0.0
0.775914 -0.0336599 0.0
1.09484 -0.285471 0.0
1.32611 -0.104573 0.0
1.22397 0.000658531 0.0
1.02005 -0.00175128 0.0
1.00226 0.00829745 0.0
0.507637 -0.00585026 0.0
1.22735 0.0057184 0.0
0.736985 -0.0260514 0.0
1.12809 0.0434579 0.0
0.995025 -0.00986076 0.0
0.566705 0.00334992 0.0
1.24093 -0.109888 0.0
1.22738 -0.17099 0.0
0.789561 -0.0266245 0.0
1.13957 -0.0652675 0.0
0.584031 0.00173475 0.0
0.98316 -0.0154413 0.0
0.116347 0.067361 0.0
1.20223 0.000106946 0.0
1.19765 -0.0105844 0.0
0.594166 -0.00398685 0.0
0.942512 -0.194221 0.0
0.987508 -0.0154797 0.0
1.43 0.154421 0.0
1.1987 0.000774253 0.0
1.2348 -0.00146434 0.0
1.22356 -0.170782 0.0
1.236 -0.00292912 0.0
1.23497 0.000783688 0.0
1.17138 -0.0169992 0.0
0.934746 -0.114514 0.0
0.835802 0.0428679 0.0
1.23569 -0.00509902 0.0
1.23309 -0.000790937 0.0
1.22834 -0.00193309 0.0
0.634936 0.0704996 0.0
0.456245 0.00495662 0.0
0.998329 0.00993047 0.0
0.544793 -0.00753335 0.0
1.23397 -0.00566401 0.0
1.00261 -0.0183136 0.0
1.16304 0.0100689 0.0
-0.261349 -0.0268194 0.0
0.966396 -0.0121932 0.0
0.499644 -0.00475604 0.0
1.31888 -0.604719 0.0
1.12259 -0.00715344 0.0
0.970683 -0.0160432 0.0
0.524626 -0.0102002 0.0
1.234 -0.00327293 0.0
0.868469 0.0407315 0.0
0.53195 0.00165473 0.0
0.992978 -0.0155314 0.0
1.23413 -0.00566776 0.0
1.22718 -0.00268708 0.0
1.23253 -0.00334321 0.0
0.620588 -0.00709874 0.0
0.444068 4.42092e-05 0.0
1.23124 -0.00647136 0.0
1.14151 -0.073435 0.0
1.20543 -0.00716809 0.0
0.602562 0.0100469 0.0
1.1854 -0.00803929 0.0
1.22486 -0.0058456 0.0
1.21187 0.000966387 0.0
1.23638 -0.00733849 0.0
0.465372 -0.00682756 0.0
1.22944 -0.00640383 0.0
1.23113 -0.00668422 0.0
1.22097 -0.00680661 0.0
0.454827 -0.00389032 0.0
1.2174 -0.0030926 0.0
1.18362 -0.00603347 0.0
1.20193 -0.00107791 0.0
1.23372 -0.007452 0.0
1.1704 -0.157844 0.0
1.12953 0.00149774 0.0
1.23481 -0.00743369 0.0
1.35089 0.668535 0.0
1.21838 -0.00645192 0.0
0.508545 -0.00703113 0.0
1.09765 -0.0220059 0.0
0.563235 0.00813623 0.0
0.595022 -0.00931794 0.0
1.11711 0.00694419 0.0
1.09757 -0.0122736 0.0
1.07136 -0.00768504 0.0
0.53343 -0.00801951 0.0
1.10343 -0.021683 0.0
1.12394 0.00553438 0.0
1.23194 -0.00780543 0.0
1.07372 0.138974 0.0
1.15505 -0.696807 0.0
0.563851 -0.00469604 0.0
0.521951 -0.0053723 0.0
1.22711 -0.00578744 0.0
1.22887 -0.00814635 0.0
0.619991 -0.018337 0.0
0.510126 -0.00923997 0.0
1.22431 -0.00500467 0.0
0.992499 0.0165371 0.0
1.16067 0.0113939 0.0
1.15574 -0.00747284 0.0
0.567338 0.00723095 0.0
0.518894 -0.00217116 0.0
1.14349 0.0171838 0.0
0.603442 0.0141685 0.0
0.569425 0.0146292 0.0
1.17312 0.00902729 0.0
0.619994 0.0206323 0.0
0.571866 -0.000798581 0.0
1.21448 -0.00409211 0.0
1.20179 -0.00315866 0.0
0.962097 0.0163433 0.0
1.21058 -0.00172955 0.0
1.18264 -0.0018134 0.0
1.2185 -0.00303585 0.0
0.982973 0.0125524 0.0
1.152 -0.00251963 0.0
0.607746 0.00580604 0.0
0.501268 0.0139966 0.0
0.551408 0.0142329 0.0
0.466578 -0.00792428 0.0
0.532802 0.000900797 0.0
0.556646 -0.00532809 0.0
0.527326 -0.0028442 0.0
0.640322 -0.0137864 0.0
0.54058 -0.00449093 0.0
0.574668 0.0133826 0.0
0.486458 -0.00753142 0.0
0.576799 0.0155013 0.0
0.493943 0.000175637 0.0
0.679133 0.0213061 0.0
0.578664 0.0100597 0.0
0.572583 -0.0114664 0.0
0.488791 0.00279866 0.0
0.527716 -0.00224836 0.0
0.509608 0.00790703 0.0
0.61236 -0.00974707 0.0
0.532582 -0.000784607 0.0
0.601705 -0.00764407 0.0
0.559476 -0.0123326 0.0
0.545462 0.00677818 0.0
0.523134 0.000126373 0.0
0.538355 0.00416492 0.0
0.476596 -0.0170119 0.0
0.492822 0.0196859 0.0
0.494765 0.000505346 0.0
0.557168 -0.00715506 0.0
0.494086 0.00311719 0.0
0.64643 -0.0210583 0.0
0.492381 0.00631159 0.0
0.463751 0.00558173 0.0
0.504534 0.000993969 0.0
0.482312 -0.00265998 0.0
1.18094 -0.00102423 0.0
1.16152 -0.00637818 0.0
1.22695 -0.00736269 0.0
1.22456 -0.00499917 0.0
1.22773 -0.00523072 0.0
1.11952 -0.00795156 0.0
1.19807 -0.00707002 0.0
1.17919 -0.00680209 0.0
1.18194 0.00482134 0.0
1.15443 -0.00119314 0.0
1.21059 -0.00797626 0.0
1.21326 -0.00872723 0.0
1.17499 -0.00666372 0.0
1.21965 -0.00363436 0.0
1.19556 -0.000231012 0.0
1.22127 -0.00609843 0.0
1.1941 -0.00727079 0.0
1.15231 0.00184807 0.0
1.21756 -0.00620084 0.0
1.2227 -0.00419575 0.0
1.20777 -0.000805526 0.0
1.2213 -0.00355247 0.0
1.21705 -0.00497067 0.0
1.15647 -0.00902302 0.0
1.22059 -0.00176886 0.0
1.19762 -0.00343037 0.0
1.21755 -0.00115222 0.0
1.12074 -0.00155237 0.0
1.19941 -0.00256435 0.0
1.19171 0.00195994 0.0
1.21232 -0.00141132 0.0
1.17572 -0.00156332 0.0
1.21236 -0.00235757 0.0
1.21559 -0.00240939 0.0
1.18532 0.00450774 0.0
1.21577 -0.0013599 0.0
1.2082 -0.00415761 0.0
1.21036 0.000708287 0.0
1.15268 -0.00849693 0.0
1.17756 -0.00256929 0.0
1.21346 0.000474111 0.0
1.20559 -0.00344038 0.0
1.20192 0.00228665 0.0
1.19879 0.00370888 0.0
1.16012 -0.012589 0.0
1.21047 0.000468879 0.0
1.20694 0.000834309 0.0
1.13789 -0.0060689 0.0
1.19341 -0.00439209 0.0
1.12198 0.00308808 0.0
1.17934 -0.0044304 0.0
1.18932 -0.00400497 0.0
1.20141 -0.00368703 0.0
1.20723 -0.00127936 0.0
1.17509 -0.00454351 0.0
1.20507 -0.00351029 0.0
1.20335 -0.00103844 0.0
1.2051 0.000522413 0.0
1.20137 0.00311724 0.0
1.19789 0.00343439 0.0
1.19483 0.00368669 0.0
1.18383 0.00603362 0.0
1.136 -0.00645705 0.0
1.09399 0.00790155 0.0
1.17845 0.00710215 0.0
1.20102 0.00090539 0.0
0.577078 -0.00617512 0.0
1.18735 0.00600031 0.0
1.14817 0.00761314 0.0
1.17018 0.00793028 0.0
1.19876 0.003054 0.0
1.16775 0.00759569 0.0
1.17774 0.00564173 0.0
1.17064 0.000233669 0.0
1.18982 0.00545784 0.0
1.17763 -0.000856885 0.0
1.13366 -0.00535276 0.0
1.13332 -0.00820664 0.0
1.15661 -0.00493304 0.0
1.18624 0.00668249 0.0
1.17442 -0.00421097 0.0
1.18459 0.00339913 0.0
1.16797 -0.00408136 0.0
1.18483 -0.00399324 0.0
1.18855 0.00284163 0.0
1.18181 0.00589556 0.0
0.978935 -0.0141974 0.0
1.17248 -0.00366446 0.0
1.17445 0.00781862 0.0
1.14534 0.00913924 0.0
1.18971 -0.00240553 0.0
1.19337 0.000195765 0.0
1.08283 -0.0176251 0.0
1.1648 0.0109503 0.0
1.17848 -0.00361729 0.0
1.14676 0.0149665 0.0
1.18899 -4.42988e-05 0.0
1.14964 0.0176275 0.0
1.16734 -0.00439044 0.0
1.19332 -0.00236594 0.0
1.17423 -0.00110844 0.0
1.11937 0.176576 0.0
1.15259 -0.00738724 0.0
1.22333 -0.00963829 0.0
1.17031 0.00950906 0.0
1.17477 0.00118664 0.0
1.15724 -0.0133971 0.0
1.16089 -0.00354163 0.0
1.13923 -0.00303941 0.0
1.1611 -0.00951182 0.0
1.16697 0.00273249 0.0
1.14074 -0.00115195 0.0
1.16196 0.00240787 0.0
1.16344 -0.00676248 0.0
1.16338 -0.00282465 0.0
1.14891 0.0119948 0.0
1.15941 -0.00515149 0.0
0.718716 -0.0205006 0.0
0.972289 0.0052054 0.0
1.14439 0.0142543 0.0
1.147 0.00948603 0.0
1.1542 -0.00760441 0.0
1.14119 0.0119041 0.0
1.14763 0.0143364 0.0
1.14417 -0.00227215 0.0
1.12675 0.000950045 0.0
1.13912 -0.00304362 0.0
1.13267 0.00103243 0.0
1.12087 0.0120596 0.0
1.15731 0.00574346 0.0
1.15163 0.00859977 0.0
0.995305 0.00892839 0.0
1.15277 0.0059387 0.0
1.15716 0.011676 0.0
1.15005 0.0121175 0.0
1.11426 0.0151633 0.0
1.13587 0.0156524 0.0
1.15404 0.0126232 0.0
1.73544 0.181692 0.0
1.1191 -0.0104307 0.0
1.12705 0.0192331 0.0
1.09933 -0.0221331 0.0
1.14933 0.0217848 0.0
1.14737 0.0160999 0.0
1.11282 -0.0127947 0.0
1.14628 0.0219108 0.0
1.22401 -0.00646189 0.0
1.07035 -0.00966287 0.0
1.09905 0.0152158 0.0
1.09638 -0.00680445 0.0
1.30724 0.125998 0.0
1.21936 -0.00546003 0.0
1.08418 -0.00210938 0.0
1.15551 -0.00750765 0.0
1.13991 0.0281171 0.0
1.14655 0.0223828 0.0
1.08898 -0.00843348 0.0
1.09355 -0.0271889 0.0
0.980819 -0.0159926 0.0
1.19511 -0.00184571 0.0
1.06646 0.000708312 0.0
1.07603 0.000242617 0.0
1.12045 0.0246772 0.0
1.12034 -0.0265948 0.0
1.02973 0.198339 0.0
0.960825 -0.0159666 0.0
1.13611 0.0337409 0.0
0.441986 -0.164345 0.0
1.3822 0.131369 0.0
1.18138 -0.0520648 0.0
1.06418 0.0102959 0.0
1.06547 0.0257056 0.0
1.05377 0.036382 0.0
1.22028 -0.00230494 0.0
1.05178 0.0143329 0.0
1.03736 -0.0439989 0.0
1.30216 0.175953 0.0
1.00312 -0.142377 0.0
1.03253 -0.0577318 0.0
1.15147 -0.133263 0.0
1.14954 -0.0130858 0.0
1.09501 -0.0479886 0.0
1.18185 -0.00349849 0.0
0.936117 0.00179298 0.0
1.18098 0.053988 0.0
1.00764 -0.0138366 0.0
1.2379 -0.101742 0.0
1.2179 -0.00564351 0.0
1.20542 -0.00648384 0.0
1.05483 -0.019927 0.0
1.39837 -0.567472 0.0
1.13228 0.0834245 0.0
0.994442 -0.0202084 0.0
1.13244 0.0668704 0.0
0.956553 0.0015132 0.0
0.758456 0.0280709 0.0
1.08934 0.0449247 0.0
1.32725 -0.160587 0.0
0.932963 -0.0907533 0.0
1.09847 -0.0395399 0.0
0.632624 -0.556519 0.0
1.11082 -0.0279344 0.0
1.11684 -0.00743238 0.0
1.15437 -0.00792212 0.0
1.39116 -0.139346 0.0
1.08006 0.0600276 0.0
1.18184 -0.00269877 0.0
1.04676 -0.0261716 0.0
1.16342 0.036127 0.0
0.989454 -0.0182816 0.0
1.34995 -0.77179 0.0
1.2291 0.00438992 0.0
1.17963 0.0513926 0.0
1.20361 0.00270265 0.0
1.12707 -0.000896601 0.0
1.1805 -0.0564482 0.0
1.06592 0.0201124 0.0
1.21086 0.0814035 0.0
1.12246 -0.00771058 0.0
1.15893 0.0440889 0.0
0.95487 0.00176267 0.0
1.15317 0.0111269 0.0
1.1805 -0.531637 0.0
0.660031 -0.00601818 0.0
0.681533 -0.0231151 0.0
0.924516 0.0271142 0.0
1.26622 0.119641 0.0
1.15331 -0.00604217 0.0
1.18225 -0.00480705 0.0
0.607704 0.010154 0.0
1.20257 -0.00568977 0.0
0.327851 -0.12352 0.0
1.07313 -0.0991823 0.0
0.54929 0.00934299 0.0
0.555879 -0.0107286 0.0
0.899143 0.040291 0.0
1.15848 -0.00644788 0.0
0.863952 -0.174347 0.0
0.846116 -0.0255163 0.0
1.68893 -0.125098 0.0
0.941747 0.0373811 0.0
1.15297 -0.0106055 0.0
1.15355 -0.0120603 0.0
1.05386 0.00868244 0.0
1.22611 0.00334541 0.0
1.18018 0.00111289 0.0
1.18511 0.348336 0.0
0.621083 0.0173056 0.0
1.02135 0.00176597 0.0
1.36962 -0.0978175 0.0
0.538596 0.00769055 0.0
1.58076 0.560948 0.0
0.933566 -0.041729 0.0
0.796049 -0.0266547 0.0
1.3414 0.0881411 0.0
0.781627 -0.0538072 0.0
0.956089 -0.00140463 0.0
0.668395 -0.116136 0.0
1.15517 -0.0168377 0.0
0.881019 0.0996632 0.0
1.13508 -0.0144198 0.0
0.658502 -0.00413438 0.0
1.03078 0.00543314 0.0
0.980345 0.136242 0.0
1.4094 -0.0326389 0.0
0.521785 -0.00360738 0.0
0.63623 -0.0245596 0.0
0.918747 0.805446 0.0
1.11054 -0.000969289 0.0
1.05189 0.0115761 0.0
1.39256 0.0136383 0.0
0.602967 -0.0104566 0.0
1.13156 0.0184308 0.0
1.16664 -0.448606 0.0
0.186485 0.0223941 0.0
0.924861 -0.0632384 0.0
1.07003 -0.083263 0.0
0.735678 0.0239233 0.0
0.518821 0.0178388 0.0
1.64904 0.0364116 0.0
1.15532 -0.00499645 0.0
0.311488 0.0152322 0.0
0.57134 0.0249217 0.0
1.14461 -0.00594965 0.0
1.20439 -0.00606094 0.0
1.00284 -0.0189742 0.0
0.937733 0.0623743 0.0
1.20929 0.172604 0.0
0.641023 0.0107822 0.0
1.20745 0.00727648 0.0
0.919268 0.0928342 0.0
1.21023 -0.00901437 0.0
1.38798 -0.59346 0.0
0.510557 0.00130165 0.0
1.45935 -0.129858 0.0
1.11006 0.00856714 0.0
0.948735 -0.014267 0.0
0.621605 0.090336 0.0
0.991057 0.101839 0.0
0.897476 0.139874 0.0
1.11276 0.0100158 0.0
1.21808 -0.0579422 0.0
1.39921 -0.0369342 0.0
0.587843 0.00499976 0.0
0.611877 0.0149666 0.0
1.07304 -0.00371263 0.0
0.404543 -0.0728944 0.0
1.04411 0.0365686 0.0
0.492982 0.00339771 0.0
0.96224 -0.011339 0.0
1.11149 -0.00445543 0.0
0.939605 -0.00941198 0.0
0.559093 -0.00669976 0.0
0.55785 0.018729 0.0
0.568789 0.00959297 0.0
0.508591 0.00710707 0.0
0.587997 0.0114201 0.0
1.21071 0.6696 0.0
1.36092 0.0696036 0.0
0.966225 -0.00329902 0.0
0.535915 0.00819788 0.0
0.547578 -0.0126695 0.0
0.70009 0.0249206 0.0
1.15704 -0.0474109 0.0
0.620033 0.00106602 0.0
1.60377 -0.193107 0.0
1.29617 0.0954304 0.0
0.536828 -0.140689 0.0
1.34557 -0.0935908 0.0
1.52681 -0.46686 0.0
1.01114 0.00548035 0.0
1.09131 0.0185735 0.0
1.13972 -0.012167 0.0
0.959643 0.00364846 0.0
0.837044 -0.689205 0.0
1.02834 -0.00196183 0.0
0.980558 -0.00587915 0.0
1.20486 -0.0132729 0.0
1.12283 -0.03405 0.0
1.64832 -0.000118658 0.0
-0.12095 0.0977203 0.0
0.506251 -0.0687036 0.0
1.33616 0.518185 0.0
1.07246 -0.0120514 0.0
0.608957 -0.0120404 0.0
0.579969 -0.00578858 0.0
0.574596 -0.00616919 0.0
1.22734 0.00537549 0.0
0.633538 0.211195 0.0
1.17448 -0.0243852 0.0
0.97733 0.0128217 0.0
0.751056 0.163002 0.0
1.12547 -0.00133734 0.0
0.13796 -0.00966035 0.0
1.19314 0.00544258 0.0
0.565915 0.020795 0.0
0.563748 -0.0105051 0.0
1.33996 0.085457 0.0
0.837356 -0.0117008 0.0
1.50626 0.031963 0.0
0.974644 0.0155821 0.0
0.990368 0.011879 0.0
0.111313 -0.166266 0.0
0.97104 0.0291643 0.0
1.16882 0.0135072 0.0
1.15199 0.013511 0.0
0.355852 -0.13612 0.0
1.6163 -0.273237 0.0
1.09511 -0.000756241 0.0
1.28743 0.194949 0.0
0.58951 -0.0141893 0.0
0.556143 -0.00784935 0.0
1.12385 -0.0165703 0.0
0.530469 0.0896511 0.0
1.12446 -0.0270527 0.0
0.809805 0.0217387 0.0
0.935617 -0.0082068 0.0
1.13078 0.0122154 0.0
0.994713 -0.00296762 0.0
0.201884 -0.0209015 0.0
1.15034 -0.0135841 0.0
0.309749 0.0604657 0.0
1.00995 4.87552e-05 0.0
0.999669 -0.00374449 0.0
0.576469 -0.0153227 0.0
1.0732 -0.00927864 0.0
1.17449 -0.0245958 0.0
0.947232 0.00116454 0.0
0.992219 -0.0137858 0.0
1.2002 -0.964608 0.0
1.13218 0.0222448 0.0
1.69269 0.486955 0.0
0.550602 -0.0167745 0.0
0.539611 0.00652243 0.0
1.16658 0.00661641 0.0
1.22864 -0.00665065 0.0
1.11449 -0.00844409 0.0
1.12314 -0.00162134 0.0
1.18092 0.00660017 0.0
1.13112 0.00619158 0.0
1.21986 -0.0095489 0.0
1.15073 0.0256797 0.0
-0.198472 0.0188096 0.0
1.10398 0.0148833 0.0
-0.0254014 0.0286648 0.0
0.664811 -0.0257048 0.0
1.20441 -0.177415 0.0
1.14867 -0.0125897 0.0
1.36842 -0.137925 0.0
1.64629 -0.502438 0.0
0.314249 -0.0181113 0.0
1.21384 -0.00896382 0.0
1.129 0.272025 0.0
1.35147 -0.0982228 0.0
1.07137 0.305701 0.0
1.70948 0.0869147 0.0
0.97523 -0.542438 0.0
1.37208 0.132338 0.0
1.12212 -0.0164454 0.0
1.28963 -0.480968 0.0
-0.0874179 -0.108042 0.0
1.06082 -0.000192596 0.0
1.31864 -0.394861 0.0
0.493302 -0.00490329 0.0
1.41866 -0.149979 0.0
1.68465 0.1985 0.0
1.09147 0.0137745 0.0
0.389346 0.0157435 0.0
0.717031 0.00183778 0.0
0.267865 -0.228441 0.0
0.957151 0.0459393 0.0
-0.118749 -0.0299032 0.0
1.14642 -0.162354 0.0
1.49643 0.143682 0.0
0.537781 0.00905548 0.0
1.22933 -0.0687165 0.0
0.96453 0.000750182 0.0
1.21836 0.00459429 0.0
0.435144 -0.6155 0.0
1.22864 0.264384 0.0
0.729153 -0.162522 0.0
0.191332 -0.330917 0.0
0.517475 0.160695 0.0
1.3026 0.238506 0.0
0.597895 0.152174 0.0
0.969561 -0.0131114 0.0
1.14144 -0.0167678 0.0
1.08281 0.0111044 0.0
1.07685 0.00874704 0.0
0.571877 0.00726757 0.0
0.0235676 0.0820038 0.0
1.3083 0.299796 0.0
0.468796 -0.00219064 0.0
1.10146 0.0104269 0.0
0.264443 0.216293 0.0