# vtk DataFile Version 3.0
Malha 2D com triângulos e temperatura
ASCII
DATASET UNSTRUCTURED_GRID

POINTS 688 double
0 0 0
2.2 0 0
2.2 0.41 0
0 0.41 0
0.25 0.2 0
0.05 0 0
0.1 0 0
0.15 0 0
0.2 0 0
0.25 0 0
0.3 0 0
0.35 0 0
0.4 0 0
0.45 0 0
0.5 0 0
0.55 0 0
0.6 0 0
0.65 0 0
0.7 0 0
0.75 0 0
0.8 0 0
0.85 0 0
0.9 0 0
0.95 0 0
1 0 0
1.05 0 0
1.1 0 0
1.15 0 0
1.2 0 0
1.25 0 0
1.3 0 0
1.35 0 0
1.4 0 0
1.45 0 0
1.5 0 0
1.55 0 0
1.6 0 0
1.65 0 0
1.7 0 0
1.75 0 0
1.8 0 0
1.85 0 0
1.9 0 0
1.95 0 0
2 0 0
2.05 0 0
2.1 0 0
2.15 0 0
2.2 0.0455556 0
2.2 0.0911111 0
2.2 0.136667 0
2.2 0.182222 0
2.2 0.227778 0
2.2 0.273333 0
2.2 0.318889 0
2.2 0.364444 0
2.15 0.41 0
2.1 0.41 0
2.05 0.41 0
2 0.41 0
1.95 0.41 0
1.9 0.41 0
1.85 0.41 0
1.8 0.41 0
1.75 0.41 0
1.7 0.41 0
1.65 0.41 0
1.6 0.41 0
1.55 0.41 0
1.5 0.41 0
1.45 0.41 0
1.4 0.41 0
1.35 0.41 0
1.3 0.41 0
1.25 0.41 0
1.2 0.41 0
1.15 0.41 0
1.1 0.41 0
1.05 0.41 0
1 0.41 0
0.95 0.41 0
0.9 0.41 0
0.85 0.41 0
0.8 0.41 0
0.75 0.41 0
0.7 0.41 0
0.65 0.41 0
0.6 0.41 0
0.55 0.41 0
0.5 0.41 0
0.45 0.41 0
0.4 0.41 0
0.35 0.41 0
0.3 0.41 0
0.25 0.41 0
0.2 0.41 0
0.15 0.41 0
0.1 0.41 0
0.05 0.41 0
0 0.364444 0
0 0.318889 0
0 0.273333 0
0 0.227778 0
0 0.182222 0
0 0.136667 0
0 0.0911111 0
0 0.0455556 0
0.248831 0.210749 0
0.245379 0.220994 0
0.239805 0.230259 0
0.232369 0.238108 0
0.22342 0.244176 0
0.213376 0.248177 0
0.202707 0.249927 0
0.191911 0.249341 0
0.181493 0.246449 0
0.171941 0.241384 0
0.1637 0.234385 0
0.157157 0.225778 0
0.152617 0.215965 0
0.150293 0.205406 0
0.150293 0.194594 0
0.152617 0.184035 0
0.157157 0.174222 0
0.1637 0.165615 0
0.171941 0.158616 0
0.181493 0.153551 0
0.191911 0.150659 0
0.202707 0.150073 0
0.213376 0.151823 0
0.22342 0.155824 0
0.232369 0.161892 0
0.239805 0.169741 0
0.245379 0.179006 0
0.248831 0.189251 0
0.421316 0.36725 0
0.426705 0.0366526 0
2.16065 0.209201 0
1.52286 0.0417259 0
0.626017 0.37111 0
1.3257 0.0414552 0
1.02471 0.0432237 0
1.17293 0.0421053 0
0.82501 0.36678 0
1.6757 0.370064 0
1.91628 0.0358195 0
1.82501 0.366432 0
0.723429 0.0421499 0
1.425 0.366699 0
1.97461 0.366224 0
1.12167 0.370137 0
0.975 0.368691 0
0.877672 0.0412714 0
1.27686 0.36884 0
1.725 0.0433013 0
0.579174 0.0416211 0
0.325589 0.363848 0
0.319111 0.0378151 0
0.0394523 0.296111 0
0.0329929 0.11602 0
0.142108 0.187428 0
1.57555 0.364352 0
2.02603 0.0412138 0
0.725007 0.36763 0
0.528647 0.366595 0
1.62699 0.0400272 0
1.82929 0.0421255 0
1.425 0.0418325 0
2.07474 0.364233 0
0.125 0.0433013 0
0.161245 0.155011 0
0.225 0.366699 0
0.210027 0.258536 0
2.16034 0.115449 0
0.0371627 0.204103 0
0.142311 0.212698 0
0.220283 0.0418538 0
0.221965 0.145099 0
0.196802 0.141016 0
0.119851 0.373394 0
0.161112 0.245979 0
0.184892 0.258024 0
2.16342 0.30039 0
2.12627 0.047699 0
0.183325 0.0412617 0
0.152317 0.0762976 0
0.203864 0.0745802 0
0.234384 0.0774346 0
0.215969 0.103585 0
0.245651 0.104548 0
0.186562 0.100216 0
0.268213 0.0793029 0
0.272149 0.109155 0
0.242885 0.159377 0
0.253088 0.128261 0
0.278718 0.13214 0
0.295917 0.115997 0
0.301728 0.138858 0
0.321266 0.12205 0
0.324642 0.151724 0
0.255978 0.181139 0
0.350123 0.129049 0
0.357539 0.159885 0
0.333541 0.181416 0
0.36451 0.19182 0
0.250573 0.230419 0
0.391277 0.169722 0
0.339477 0.212308 0
0.39836 0.205386 0
0.427326 0.18117 0
0.258724 0.206387 0
0.434392 0.219501 0
0.466446 0.193907 0
0.472865 0.243064 0
0.507358 0.209962 0
0.40073 0.238916 0
0.499135 0.1652 0
0.5419 0.179224 0
0.550176 0.22496 0
0.585844 0.194129 0
0.594095 0.240176 0
0.630701 0.209517 0
0.621901 0.162424 0
0.667731 0.178095 0
0.676485 0.226008 0
0.713906 0.194492 0
0.722681 0.242872 0
0.760442 0.211047 0
0.751547 0.162356 0
0.798298 0.179 0
0.807147 0.227866 0
0.845136 0.195775 0
0.854541 0.243285 0
0.892163 0.212344 0
0.902461 0.257947 0
0.93935 0.228684 0
0.930236 0.180167 0
0.977229 0.197066 0
0.986264 0.245777 0
1.02423 0.213991 0
1.0331 0.263172 0
1.07123 0.230975 0
1.06234 0.181814 0
1.10938 0.198721 0
1.09996 0.151012 0
1.14691 0.168161 0
1.15631 0.215921 0
1.19446 0.183678 0
1.20343 0.232645 0
1.2416 0.200322 0
1.23272 0.151117 0
1.2798 0.167954 0
1.28868 0.217167 0
1.32685 0.184862 0
1.33573 0.234064 0
1.3739 0.201768 0
0.789327 0.130094 0
1.38279 0.25097 0
1.42096 0.218674 0
1.41207 0.169471 0
1.45912 0.186378 0
1.46801 0.235581 0
1.50618 0.203285 0
1.51506 0.252489 0
1.55323 0.220192 0
1.54435 0.170989 0
1.5914 0.187896 0
1.60029 0.2371 0
1.63846 0.204803 0
1.64734 0.254007 0
1.68551 0.221711 0
1.67663 0.172507 0
1.72368 0.189415 0
1.73831 0.241548 0
1.77074 0.206322 0
1.76185 0.157121 0
1.8091 0.17428 0
1.81866 0.220885 0
1.85608 0.190621 0
1.86521 0.238879 0
1.90289 0.207671 0
1.91264 0.253772 0
1.94955 0.224093 0
1.94067 0.17593 0
1.98705 0.192828 0
1.99572 0.240997 0
2.0329 0.209382 0
2.02422 0.16161 0
2.04166 0.257286 0
0.419739 0.142889 0
0.968291 0.148058 0
0.310035 0.202211 0
0.316128 0.230863 0
0.658501 0.130052 0
0.685107 0.27445 0
1.34462 0.283266 0
1.16528 0.264896 0
1.84735 0.142081 0
0.557687 0.270604 0
1.21234 0.281769 0
1.58252 0.138692 0
0.533563 0.131933 0
0.489835 0.120004 0
1.45024 0.137174 0
2.06974 0.17785 0
2.06113 0.130713 0
0.283221 0.152215 0
0.921299 0.131169 0
0.343836 0.24295 0
0.319203 0.260002 0
0.235529 0.249617 0
0.347029 0.274099 0
0.291856 0.246297 0
0.295938 0.27548 0
0.272836 0.264931 0
0.27461 0.290522 0
0.251228 0.280224 0
0.253903 0.305808 0
0.232795 0.296709 0
0.298805 0.304058 0
1.0801 0.280176 0
1.47689 0.284785 0
1.05315 0.133468 0
1.09741 0.0970974 0
1.82427 0.272867 0
1.2701 0.118911 0
0.816337 0.277695 0
1.40432 0.121101 0
1.04244 0.320388 0
0.959305 0.103028 0
1.60923 0.286151 0
0.601674 0.286775 0
2.00739 0.280923 0
0.342592 0.0992796 0
0.375237 0.105729 0
1.52511 0.298716 0
1.53114 0.119823 0
0.733824 0.287256 0
0.613372 0.114719 0
0.645558 0.0838585 0
2.015 0.115858 0
1.22718 0.0994086 0
1.39166 0.29817 0
1.3564 0.329754 0
0.744134 0.11556 0
0.782853 0.0841771 0
0.826899 0.10047 0
1.17418 0.314034 0
0.520902 0.0906676 0
1.4967 0.329429 0
1.26048 0.0740437 0
0.365514 0.0716355 0
0.229836 0.121666 0
1.57453 0.09137 0
1.61938 0.110761 0
0.481716 0.0753791 0
0.14093 0.2 0
0.130041 0.192847 0
0.131507 0.178608 0
0.117165 0.184444 0
0.120761 0.164701 0
0.1156 0.199931 0
0.100804 0.174136 0
0.102545 0.153034 0
0.12169 0.143342 0
0.104604 0.13008 0
0.0809304 0.161171 0
0.128077 0.121858 0
0.106825 0.102278 0
0.082498 0.188728 0
0.0314738 0.158621 0
2.04625 0.310891 0
2.08475 0.27479 0
2.11394 0.138117 0
0.233149 0.151108 0
0.258724 0.193613 0
0.268522 0.184917 0
1.65397 0.301059 0
0.145962 0.224912 0
0.132503 0.222267 0
0.13746 0.236947 0
0.120111 0.233525 0
0.126593 0.25219 0
0.105294 0.247497 0
0.113343 0.26868 0
0.133997 0.271734 0
0.121622 0.292031 0
0.147069 0.292141 0
0.0896563 0.267464 0
0.0813699 0.243294 0
0.163574 0.276939 0
0.172694 0.298517 0
0.1583 0.321483 0
0.186823 0.322499 0
0.173113 0.348195 0
0.0322087 0.250839 0
0.211694 0.124337 0
0.250615 0.169546 0
0.256243 0.157787 0
0.170796 0.14736 0
0.156755 0.141654 0
0.17187 0.131161 0
0.147502 0.152323 0
0.198129 0.260662 0
0.206368 0.271663 0
0.220945 0.26864 0
0.190489 0.270628 0
0.198813 0.286731 0
0.55749 0.322277 0
0.520166 0.299321 0
0.235199 0.330709 0
0.267109 0.337524 0
0.172324 0.25256 0
0.255974 0.218859 0
0.268327 0.214994 0
0.184197 0.143083 0
0.188721 0.129954 0
0.209694 0.139146 0
0.269223 0.244007 0
0.252374 0.255244 0
0.282229 0.0410487 0
1.21977 0.330016 0
1.25733 0.296346 0
2.09358 0.0890819 0
0.244373 0.240984 0
0.0838116 0.115786 0
0.0797544 0.0817835 0
0.237449 0.264854 0
0.247178 0.146225 0
0.270136 0.2 0
0.28023 0.191334 0
0.263476 0.170737 0
0.371486 0.368728 0
0.396124 0.330051 0
0.440314 0.325693 0
0.357693 0.329668 0
0.476576 0.362035 0
0.29587 0.222914 0
0.307627 0.175476 0
0.079599 0.0406461 0
0.146062 0.252571 0
0.15162 0.125025 0
0.417223 0.294608 0
0.457089 0.286958 0
0.036619 0.338729 0
0.0713014 0.322193 0
0.0735823 0.36704 0
0.041143 0.0722223 0
0.693501 0.32349 0
0.145406 0.175484 0
0.138777 0.164467 0
0.300367 0.0698839 0
0.167025 0.112083 0
0.146978 0.105544 0
0.151909 0.236762 0
0.444611 0.106436 0
0.909355 0.0817561 0
0.282901 0.370713 0
1.61474 0.330739 0
0.578053 0.368179 0
0.824695 0.0487848 0
2.09634 0.3213 0
2.02276 0.364865 0
2.12532 0.363702 0
1.09789 0.328757 0
0.161137 0.260089 0
2.07793 0.225752 0
2.12079 0.240944 0
2.0747 0.0437362 0
1.89402 0.158846 0
1.93154 0.128738 0
1.8848 0.111477 0
1.8384 0.0926484 0
1.87744 0.0655304 0
1.7913 0.0793874 0
1.9712 0.046671 0
1.92502 0.366682 0
1.94563 0.325156 0
1.89941 0.326645 0
1.87499 0.367178 0
1.84989 0.323491 0
1.7997 0.321303 0
1.77183 0.280326 0
1.75031 0.321965 0
1.77491 0.365615 0
2.11727 0.191885 0
0.883187 0.163467 0
1.71449 0.140266 0
1.667 0.125342 0
1.70591 0.0884759 0
1.67732 0.042286 0
1.52278 0.370513 0
1.37512 0.04128 0
1.34848 0.0834574 0
0.776093 0.367587 0
1.125 0.0433013 0
1.15 0.0866019 0
1.07442 0.0496847 0
0.974527 0.0370837 0
1.47464 0.0427918 0
1.44953 0.0873752 0
1.17595 0.362984 0
1.025 0.366699 0
0.925007 0.367031 0
0.95 0.323404 0
0.897321 0.326356 0
0.874563 0.367261 0
0.846552 0.324465 0
1.62923 0.156667 0
1.32319 0.13033 0
1.69342 0.270472 0
1.49568 0.156227 0
1.56237 0.268721 0
1.44 0.319169 0
1.43005 0.267892 0
1.36502 0.152565 0
0.993446 0.294003 0
1.30179 0.321101 0
1.18235 0.127964 0
1.25016 0.2491 0
1.29638 0.266841 0
1.11824 0.247967 0
1.12945 0.294699 0
1.01527 0.165035 0
0.836192 0.147197 0
1.4998 0.0831488 0
1.00655 0.118664 0
0.872896 0.117126 0
0.70523 0.146383 0
1.96013 0.276645 0
0.769406 0.257102 0
0.699552 0.0908977 0
2.1587 0.162257 0
1.97813 0.145326 0
0.646036 0.302035 0
0.799423 0.326603 0
0.515621 0.255445 0
1.72538 0.366474 0
1.97009 0.0998346 0
1.57108 0.313772 0
0.577925 0.14549 0
0.638911 0.256447 0
0.407352 0.0771641 0
0.525103 0.042511 0
0.674231 0.370698 0
1.69802 0.321701 0
0.56947 0.0908728 0
1.75459 0.110239 0
1.80084 0.126127 0
0.673535 0.0431435 0
1.57391 0.0465733 0
2.04571 0.0828469 0
0.10002 0.225545 0
0.0788152 0.21577 0
0.369719 0.224393 0
0.210352 0.308739 0
1.22342 0.0432967 0
[...]
CELL_DATA 1241
VECTORS velocity double
1.05001 -0.0031722 0.0
1.17478 0.0573704 0.0
0.589757 0.000158417 0.0
0.998033 0.00977272 0.0
1.02732 0.00882798 0.0
1.41594 0.0953113 0.0
1.12215 -0.0138809 0.0
1.03248 -0.00623379 0.0
0.380832 0.0112007 0.0
1.13368 -0.0134062 0.0
1.31251 -0.119757 0.0
1.31635 0.126299 0.0
0.865605 -0.16013 0.0
1.0222 0.000837758 0.0
1.00465 0.00537396 0.0
1.4532 -0.0230788 0.0
0.996722 0.00146733 0.0
0.47892 0.0601201 0.0
1.13411 0.0517297 0.0
1.64709 -0.246819 0.0
1.04388 0.00223077 0.0
1.05085 -0.0635907 0.0
1.02393 0.0043408 0.0
1.25512 0.905496 0.0
1.08701 0.00627509 0.0
1.04658 -0.000250821 0.0
1.29541 -0.195362 0.0
1.06616 -0.0223205 0.0
1.32177 -0.0835218 0.0
1.45105 -0.0561225 0.0
1.33204 0.0900781 0.0
0.837503 -0.0337006 0.0
1.50287 -0.00947303 0.0
1.02029 0.000142727 0.0
1.21125 -0.051531 0.0
1.35436 0.151098 0.0
1.16933 -0.0479576 0.0
1.05043 -0.167406 0.0
0.359284 0.0203599 0.0
1.37698 0.135023 0.0
1.76879 -0.170241 0.0
1.42519 -0.0361922 0.0
1.05226 -0.235559 0.0
0.638562 0.00378614 0.0
1.39427 -0.160842 0.0
0.633494 -0.000191849 0.0
1.18442 0.0875236 0.0
1.08348 0.01317 0.0
1.61282 -0.306944 0.0
1.25524 -0.0220626 0.0
1.13981 -0.0135744 0.0
1.29111 -0.416025 0.0
0.884526 -0.00849228 0.0
1.37433 -0.0889084 0.0
1.77963 -0.272064 0.0
1.50014 -0.0414683 0.0
1.10587 -0.0269086 0.0
1.11462 -0.0122428 0.0
1.66643 -0.0893554 0.0
1.68694 -0.189661 0.0
1.16021 0.847882 0.0
1.04295 -0.00641675 0.0
0.227717 0.0212532 0.0
1.04855 0.00352493 0.0
-0.258709 0.0559737 0.0
1.33225 0.227324 0.0
-0.258246 0.0977289 0.0
1.11929 -0.00145854 0.0
0.831019 -0.0249229 0.0
0.245575 0.0349328 0.0
1.12066 -0.00299212 0.0
0.809014 0.00717173 0.0
1.12094 -0.00163682 0.0
0.816507 -0.0300094 0.0
1.12741 -0.00574167 0.0
0.880904 0.156459 0.0
0.975614 0.00433219 0.0
1.6391 -0.0338501 0.0
0.949738 -0.0352069 0.0
0.676499 -0.00155994 0.0
1.75424 -0.377109 0.0
1.15844 -0.244166 0.0
0.696707 0.0061914 0.0
1.2588 -0.223246 0.0
1.34604 0.169899 0.0
0.914878 -0.0646374 0.0
1.20903 0.179578 0.0
0.129729 0.12099 0.0
1.84358 0.526674 0.0
1.12015 -0.00831931 0.0
1.2875 0.00133702 0.0
-0.17537 -0.0178607 0.0
-0.338959 0.0996008 0.0
1.41436 -0.0733821 0.0
1.14253 -0.0291309 0.0
1.03264 -0.00372202 0.0
0.873825 -0.035951 0.0
-0.193707 0.0849594 0.0
1.02234 -0.00688391 0.0
-0.211968 0.137819 0.0
1.08213 -0.098364 0.0
1.11947 -0.00530757 0.0
0.976561 -0.00206097 0.0
1.64912 -0.154969 0.0
1.74689 -0.669281 0.0
1.27338 -0.396646 0.0
1.09244 -0.0801647 0.0
0.522215 -0.0130975 0.0
1.79416 0.64867 0.0
1.13967 -0.0135694 0.0
1.46367 -0.124676 0.0
1.23199 0.195962 0.0
0.15083 0.0601369 0.0
1.44151 -0.0269319 0.0
1.06337 0.0181749 0.0
1.4427 0.0400514 0.0
1.39601 0.0144213 0.0
1.37925 0.0434972 0.0
1.05516 0.00216624 0.0
0.294453 0.0611487 0.0
1.2034 0.0365643 0.0
1.52158 0.580383 0.0
1.22555 0.0973238 0.0
0.913768 -0.0620046 0.0
0.759877 -0.116892 0.0
1.18659 0.0734032 0.0
1.42156 -0.0526791 0.0
1.08579 0.0119429 0.0
1.75728 0.500236 0.0
0.548852 -0.0710287 0.0
1.1229 -0.00582043 0.0
0.658636 -0.00525293 0.0
0.879556 0.0621784 0.0
1.59258 -0.00768994 0.0
1.03379 -0.158004 0.0
-0.271625 0.0642143 0.0
0.140532 0.0418078 0.0
1.18513 0.0742291 0.0
1.02462 -0.027723 0.0
1.66749 -0.760621 0.0
1.5009 0.00358439 0.0
1.0433 -0.000501592 0.0
1.07744 -0.243376 0.0
0.984249 0.0105648 0.0
1.53637 0.0209172 0.0
0.0612817 0.0429547 0.0
-0.257219 0.0220671 0.0
-0.153544 0.00792914 0.0
0.70691 0.00993143 0.0
0.711576 -0.0126316 0.0
0.554605 -0.101051 0.0
1.01485 -0.0108559 0.0
1.80011 -0.326408 0.0
1.06022 -0.160521 0.0
1.20284 -0.0491054 0.0
1.20458 0.0542889 0.0
0.614396 -0.000174588 0.0
1.63608 0.0614712 0.0
0.881301 0.0421697 0.0
1.20434 -0.0527911 0.0
-0.23358 0.0625529 0.0
1.74302 0.441742 0.0
1.11874 0.00117849 0.0
1.22211 -0.204446 0.0
1.10581 0.0207289 0.0
1.05423 0.129892 0.0
1.02104 -0.00105386 0.0
0.987555 0.110173 0.0
0.656704 -0.00285401 0.0
1.13217 -0.0211372 0.0
0.896375 -0.0233641 0.0
1.1405 -0.0104952 0.0
1.36433 0.261612 0.0
1.14616 0.0802034 0.0
1.09026 -0.00220836 0.0
1.09826 -0.00189989 0.0
1.17941 0.195113 0.0
1.12 -0.286431 0.0
1.09957 0.00276117 0.0
1.16386 -0.222742 0.0
1.10053 0.000228873 0.0
0.386332 0.102106 0.0
1.08835 -0.643894 0.0
0.729024 -0.126446 0.0
1.02641 -0.00389272 0.0
0.763663 -0.0781078 0.0
0.759335 -0.062668 0.0
1.03573 0.000962124 0.0
1.05544 0.0956903 0.0
0.460147 0.0468459 0.0
0.890224 -0.82982 0.0
1.78111 0.338448 0.0
1.01495 0.000906496 0.0
0.989864 0.00847545 0.0
0.66543 0.0592716 0.0
0.875931 0.0719522 0.0
0.397468 0.0587706 0.0
1.03392 -0.0090822 0.0
1.42772 -0.032178 0.0
1.45127 0.580363 0.0
1.15461 0.192628 0.0
1.05196 -0.0182812 0.0
1.42687 0.0383424 0.0
1.06172 -0.113717 0.0
1.36371 -0.0967901 0.0
1.43607 -0.0445822 0.0
0.504092 0.0309051 0.0
0.667696 0.00358243 0.0
0.868841 -0.024191 0.0
0.823694 0.0343086 0.0
0.646444 0.0103905 0.0
0.618859 -0.00100078 0.0
1.79268 0.278614 0.0
1.10103 0.00248918 0.0
1.45332 -0.0169593 0.0
1.10517 0.00339295 0.0
0.79695 -0.0818386 0.0
1.49428 -0.108326 0.0
1.13437 -0.0180731 0.0
1.12182 -0.00455097 0.0
0.833104 -0.0494737 0.0
1.66967 -0.0570122 0.0
1.00147 0.0524588 0.0
1.01313 0.0212627 0.0
0.931502 -0.0290544 0.0
1.14133 -0.00942968 0.0
1.40753 -0.148572 0.0
1.73306 -0.597977 0.0
1.13668 -0.00307962 0.0
1.13884 -0.00402315 0.0
1.02764 -0.000898344 0.0
1.06355 -0.132482 0.0
1.03247 -0.0053804 0.0
1.00929 -0.00325868 0.0
1.26536 0.310858 0.0
1.03779 -0.255487 0.0
1.10816 0.172635 0.0
1.2886 0.129679 0.0
0.797084 -0.110358 0.0
0.354728 -0.0453054 0.0
0.946239 0.0132052 0.0
1.43879 0.0569947 0.0
1.42465 0.918719 0.0
0.682876 -0.0848989 0.0
1.11544 -0.00713312 0.0
1.70862 0.129558 0.0
1.09785 -0.898393 0.0
0.868264 -0.177025 0.0
1.09915 -0.0236533 0.0
0.664054 -0.00553324 0.0
1.01605 0.0243191 0.0
0.653723 -0.00686185 0.0
1.04169 -0.00152223 0.0
1.13847 -0.00623027 0.0
0.711348 -0.0128092 0.0
0.749236 -0.0306039 0.0
1.09476 -0.284608 0.0
1.28531 -0.0988574 0.0
1.13862 -0.00638989 0.0
1.00786 -0.0083156 0.0
1.0321 0.00380444 0.0
0.616939 -0.00389763 0.0
1.13502 -0.00995693 0.0
0.722867 -0.0196478 0.0
1.09181 0.0274324 0.0
1.02706 -0.00359301 0.0
0.666714 0.00303999 0.0
1.21533 -0.10332 0.0
1.23138 -0.193972 0.0
0.765867 -0.0211843 0.0
1.1253 -0.0557257 0.0
0.680884 -0.00181057 0.0
1.01688 -0.00799348 0.0
0.149912 0.0987779 0.0
1.13754 -0.0111455 0.0
1.13655 -0.00364357 0.0
0.687516 -0.00415704 0.0
0.95822 -0.208982 0.0
1.01124 -0.00915858 0.0
1.40328 0.162946 0.0
1.13031 -0.00322511 0.0
1.14357 -0.00651112 0.0
1.2236 -0.170445 0.0
1.14694 -0.0059206 0.0
1.14377 -0.00952831 0.0
1.13108 -0.00508918 0.0
0.965548 -0.110995 0.0
0.835806 0.0427464 0.0
1.14982 -0.00564986 0.0
1.14436 -0.00826217 0.0
1.14469 -0.00847666 0.0
0.63196 0.0696114 0.0
0.598066 0.00238474 0.0
0.994124 0.0028777 0.0
0.641766 -0.00764548 0.0
1.14892 -0.00358017 0.0
1.029 -0.00888166 0.0
1.11159 0.00133102 0.0
-0.229475 -0.012172 0.0
1.01572 -0.00438417 0.0
0.630509 -0.000838195 0.0
1.32323 -0.605467 0.0
1.10582 -0.00385141 0.0
1.01209 -0.00788387 0.0
0.641453 -0.00660931 0.0
1.14733 -0.00505289 0.0
0.834171 0.0393173 0.0
0.628129 0.000921204 0.0
1.02568 -0.00670688 0.0
1.15026 -0.00516369 0.0
1.1453 -0.00771549 0.0
1.1439 -0.00621206 0.0
0.710321 -0.00208775 0.0
0.582414 0.00154289 0.0
1.15145 -0.00530284 0.0
1.12785 -0.0638569 0.0
1.14463 -0.00683192 0.0
0.693029 0.00906814 0.0
1.13823 -0.00679759 0.0
1.14337 -0.00409448 0.0
1.13947 -0.0114425 0.0
1.1519 -0.00373584 0.0
0.589549 -0.00383695 0.0
1.1514 -0.00412752 0.0
1.14874 -0.00341906 0.0
1.14977 -0.00422726 0.0
0.585442 -0.00139034 0.0
1.13955 -0.00345208 0.0
1.13681 -0.00354013 0.0
1.13741 -0.0093197 0.0
1.15146 -0.00330919 0.0
1.17267 -0.171426 0.0
1.11492 -0.00972973 0.0
1.1529 -0.00339428 0.0
1.35237 0.66833 0.0
1.14875 -0.00308705 0.0
0.632881 -0.00361916 0.0
1.06342 -0.0103388 0.0
0.656124 0.00847498 0.0
0.64225 -0.00363307 0.0
1.12845 0.00319898 0.0
1.06525 -0.00333896 0.0
1.04578 0.000987103 0.0
0.58948 -0.00353589 0.0
1.06775 -0.00996008 0.0
1.13214 0.00253659 0.0
1.15214 -0.00324573 0.0
1.0939 0.137215 0.0
1.15815 -0.698069 0.0
0.630945 0.000124642 0.0
0.58762 -0.0015119 0.0
1.15123 -0.00274001 0.0
1.15096 -0.00347445 0.0
0.678495 -0.0176087 0.0
0.577636 -0.00864609 0.0
1.15035 -0.00234483 0.0
1.00647 0.00780833 0.0
1.13876 0.00370313 0.0
1.12088 -0.00256958 0.0
0.640404 0.00889544 0.0
0.598146 0.000802862 0.0
1.13151 0.00726292 0.0
0.679432 0.00937739 0.0
0.643239 0.010013 0.0
1.13923 0.00188238 0.0
0.689984 0.0173525 0.0
0.649379 0.00180713 0.0
1.14777 -0.00257711 0.0
1.14358 -0.0029678 0.0
0.997465 0.0107531 0.0
1.14768 -0.00310417 0.0
1.1363 -0.00304754 0.0
1.14989 -0.00289441 0.0
1.02094 0.00487197 0.0
1.12195 -0.00212605 0.0
0.69159 0.00731757 0.0
0.598635 0.0113622 0.0
0.651725 0.00938277 0.0
0.587807 -0.0076665 0.0
0.645022 -0.00115979 0.0
0.646584 -0.0020821 0.0
0.615945 -0.00163479 0.0
0.664839 -0.0068552 0.0
0.664703 -0.0028809 0.0
0.667748 0.010232 0.0
0.603208 -0.00480506 0.0
0.624972 0.0102948 0.0
0.622049 -9.18238e-05 0.0
0.662343 0.0167926 0.0
0.602276 0.0052187 0.0
0.605788 -0.00586397 0.0
0.60109 0.00116345 0.0
0.621195 -0.000435994 0.0
0.609288 0.00574137 0.0
0.649913 -0.0030533 0.0
0.658176 -0.00119895 0.0
0.621296 -0.00362651 0.0
0.62596 -0.0122447 0.0
0.627496 0.00335979 0.0
0.619378 -0.000791079 0.0
0.646448 0.00118615 0.0
0.588671 -0.0124175 0.0
0.583318 0.0154516 0.0
0.57205 0.002955 0.0
0.601241 -0.00317236 0.0
0.599488 0.00298447 0.0
0.640138 -0.016378 0.0
0.598917 0.00303683 0.0
0.595354 0.00364726 0.0
0.626194 -0.00024108 0.0
0.612602 -0.00229782 0.0
1.13557 -0.00275714 0.0
1.12343 -0.00295685 0.0
1.15047 -0.00335178 0.0
1.15092 -0.00289391 0.0
1.15177 -0.00281773 0.0
1.09703 -0.00304406 0.0
1.1388 -0.00294487 0.0
1.12908 -0.00181502 0.0
1.13803 -0.00109618 0.0
1.12415 -0.00389678 0.0
1.14365 -0.00338361 0.0
1.1442 -0.00334278 0.0
1.12658 -0.00253795 0.0
1.15021 -0.00276208 0.0
1.14261 -0.00346928 0.0
1.14897 -0.00285473 0.0
1.13705 -0.00350549 0.0
1.12266 -0.00180091 0.0
1.1478 -0.00324676 0.0
1.15085 -0.00279422 0.0
1.14693 -0.00278162 0.0
1.15055 -0.00295633 0.0
1.1486 -0.00298723 0.0
1.11987 -0.0053037 0.0
1.15183 -0.00255199 0.0
1.14271 -0.00160408 0.0
1.15117 -0.00235563 0.0
1.09527 0.000892746 0.0
1.14261 -0.00262521 0.0
1.14099 -0.00208532 0.0
1.15093 -0.00251776 0.0
1.12879 0.000259486 0.0
1.14939 -0.00222223 0.0
1.15031 -0.0019521 0.0
1.13954 -0.00163026 0.0
1.15188 -0.00235074 0.0
1.14459 -0.00196025 0.0
1.14945 -0.00217888 0.0
1.11953 -0.00325479 0.0
1.12925 -0.000142096 0.0
1.15021 -0.00225442 0.0
1.14408 -0.00179774 0.0
1.14645 -0.00208079 0.0
1.14549 -0.00137879 0.0
1.13589 -0.0029034 0.0
1.151 -0.00211893 0.0
1.15005 -0.00183088 0.0
1.10881 -0.00188131 0.0
1.14065 -0.00274351 0.0
1.09612 0.0044569 0.0
1.13404 -0.00177132 0.0
1.1415 -0.00167175 0.0
1.14624 -0.00273627 0.0
1.15031 -0.00164582 0.0
1.13192 -0.00179952 0.0
1.14749 -0.00248151 0.0
1.14909 -0.00142906 0.0
1.15124 -0.00115982 0.0
1.1482 -0.00122472 0.0
1.14711 -0.000859274 0.0
1.14874 0.000366029 0.0
1.14092 0.000339601 0.0
1.10828 -0.00097622 0.0
1.08485 0.0013176 0.0
1.14169 0.000430161 0.0
1.15003 -0.000806782 0.0
0.634796 -0.00110754 0.0
1.14234 2.744e-05 0.0
1.12035 -3.14057e-05 0.0
1.13328 0.000703697 0.0
1.14991 -0.000277834 0.0
1.13243 0.000782294 0.0
1.14686 0.00221298 0.0
1.14525 0.00171878 0.0
1.14683 0.000500039 0.0
1.14341 0.00143598 0.0
1.10567 -0.00107787 0.0
1.10627 -0.00236452 0.0
1.1239 0.000692292 0.0
1.14591 0.00138468 0.0
1.13855 -0.000191821 0.0
1.14789 0.00176561 0.0
1.13153 -7.05277e-05 0.0
1.13945 -0.00158999 0.0
1.14892 0.0011131 0.0
1.14786 0.00232154 0.0
1.0234 -0.00531416 0.0
1.13399 0.000189819 0.0
1.14585 0.0023302 0.0
1.11866 0.00129799 0.0
1.14483 -0.000742372 0.0
1.14869 0.000124803 0.0
1.05308 -0.00645112 0.0
1.14035 0.00338612 0.0
1.14025 -7.50283e-05 0.0
1.12227 0.00500105 0.0
1.14728 0.000193407 0.0
1.12967 0.00705789 0.0
1.14009 0.0011692 0.0
1.14592 -0.000925388 0.0
1.14254 0.00165921 0.0
1.11984 0.176815 0.0
1.12156 -0.00105763 0.0
1.14675 -0.00341932 0.0
1.1446 0.00357734 0.0
1.14637 0.002044 0.0
1.12538 -0.00316606 0.0
1.13103 0.00223975 0.0
1.10862 0.00304341 0.0
1.12747 -0.000652798 0.0
1.14623 0.00177486 0.0
1.10986 0.0050328 0.0
1.14444 0.00164007 0.0
1.13849 7.87512e-05 0.0
1.13209 0.00240455 0.0
1.13724 0.00433079 0.0
1.14214 -0.00043188 0.0
0.700141 -0.0165444 0.0
1.01604 -0.00112526 0.0
1.13524 0.00580849 0.0
1.13854 0.00356368 0.0
1.13997 -0.00176059 0.0
1.11542 0.0022402 0.0
1.12566 0.00448026 0.0
1.13917 -4.45114e-05 0.0
1.13301 0.000727222 0.0
1.1368 -0.000568568 0.0
1.13594 0.000781295 0.0
1.12928 0.00573887 0.0
1.14322 0.00238858 0.0
1.14037 0.00303967 0.0
1.03186 0.00229857 0.0
1.14155 0.00241798 0.0
1.13419 0.00306356 0.0
1.12649 0.00272633 0.0
1.1254 0.00748191 0.0
1.1123 0.00501697 0.0
1.13314 0.0037238 0.0
1.74197 0.171722 0.0
1.12715 -0.00454391 0.0
1.1293 0.0101535 0.0
1.11035 -0.0140652 0.0
1.12362 0.00983605 0.0
1.133 0.00656009 0.0
1.12321 -0.00588639 0.0
1.12827 0.0103591 0.0
1.14383 -0.00380978 0.0
1.07773 -0.00366318 0.0
1.07483 0.00511132 0.0
1.11849 -0.00365571 0.0
1.27666 0.120686 0.0
1.14463 -0.00938734 0.0
1.05881 0.00382378 0.0
1.12492 -0.00443126 0.0
1.1327 0.0166196 0.0
1.12276 0.0109646 0.0
1.11339 -0.00456066 0.0
1.1056 -0.0177201 0.0
1.02065 -0.0067692 0.0
1.12931 -0.00397318 0.0
1.10188 -4.30089e-05 0.0
1.10892 -0.000265527 0.0
1.12529 0.0137037 0.0
1.08005 -0.0141789 0.0
1.0379 0.198352 0.0
1.00998 -0.00757438 0.0
1.13074 0.0209672 0.0
0.48003 -0.177222 0.0
1.34774 0.135991 0.0
1.14749 -0.0406173 0.0
1.1009 0.00640636 0.0
1.09828 0.0178839 0.0
1.08846 0.0254092 0.0
1.1395 -0.00407472 0.0
1.09138 0.00897546 0.0
1.06386 -0.036415 0.0
1.3023 0.175593 0.0
1.01985 -0.145836 0.0
1.05753 -0.0475423 0.0
1.14654 -0.13046 0.0
1.11286 -0.00609941 0.0
1.09762 -0.0372665 0.0
1.13182 -0.00793699 0.0
1.00798 0.00161644 0.0
1.15604 0.0407921 0.0
1.06178 -0.0105818 0.0
1.21097 -0.0937328 0.0
1.14457 -0.00801821 0.0
1.14339 -0.00782348 0.0
1.08925 -0.0138732 0.0
1.39913 -0.565812 0.0
1.13383 0.0697167 0.0
1.04927 -0.0145104 0.0
1.13455 0.0543574 0.0
1.02737 0.00107101 0.0
0.735254 0.0226166 0.0
1.10873 0.0343246 0.0
1.32738 -0.160256 0.0
0.968762 -0.0876789 0.0
1.10102 -0.0299354 0.0
0.632971 -0.556298 0.0
1.07229 -0.0154527 0.0
1.09449 -0.00395998 0.0
1.1159 -0.0038166 0.0
1.36521 -0.147252 0.0
1.10036 0.0462416 0.0
1.13156 -0.00956948 0.0
1.0816 -0.0179536 0.0
1.14333 0.022872 0.0
1.01733 -0.0107591 0.0
1.35119 -0.771047 0.0
1.13537 -0.0147773 0.0
1.15205 0.0359215 0.0
1.13768 -0.016164 0.0
1.12155 -0.0153643 0.0
1.14845 -0.0457683 0.0
1.08354 0.0319145 0.0
1.16728 0.0812823 0.0
1.10723 -0.00422468 0.0
1.14081 0.0299454 0.0
1.00851 -0.00110737 0.0
1.1011 -0.00710574 0.0
1.18108 -0.531006 0.0
0.674228 0.00182373 0.0
0.680637 -0.014905 0.0
0.999542 0.0229695 0.0
1.24318 0.112746 0.0
1.12259 -0.00229422 0.0
1.1355 -0.00248327 0.0
0.617885 0.00532163 0.0
1.14326 -0.00247993 0.0
0.396327 -0.138604 0.0
1.07886 -0.0909023 0.0
0.669773 0.00511435 0.0
0.669097 -0.0132786 0.0
0.974516 0.0327955 0.0
1.11856 -0.00223857 0.0
0.863521 -0.173676 0.0
0.909831 -0.0161926 0.0
1.68656 -0.113763 0.0
0.911147 0.0393934 0.0
1.11874 -0.0139242 0.0
1.11974 -0.0152241 0.0
1.05155 0.00129534 0.0
1.13884 -0.0149147 0.0
1.13472 -0.0153546 0.0
1.18576 0.348412 0.0
0.617135 0.0102565 0.0
1.01278 0.00437528 0.0
1.32779 -0.0998257 0.0
0.627943 0.00416776 0.0
1.583 0.558884 0.0
0.992939 -0.0368424 0.0
0.889612 -0.0253637 0.0
1.30474 0.0958434 0.0
0.867394 -0.0451222 0.0
0.982464 0.00219092 0.0
0.698837 -0.1415 0.0
1.13329 -0.00534958 0.0
0.876196 0.0970683 0.0
1.13005 -0.00578108 0.0
0.774794 -0.00282937 0.0
1.0189 -0.00222188 0.0
1.01597 0.127869 0.0
1.42109 -0.0486891 0.0
0.613334 -0.00269004 0.0
0.742731 -0.0179426 0.0
0.919958 0.806288 0.0
1.10469 -0.00933459 0.0
1.02655 0.0151126 0.0
1.37634 0.00538994 0.0
0.610536 -0.00461302 0.0
1.10917 0.00740693 0.0
1.16717 -0.448009 0.0
0.186414 0.022339 0.0
0.979908 -0.0533103 0.0
1.07752 -0.0752671 0.0
0.708333 0.0209839 0.0
0.628609 0.0235957 0.0
1.64132 0.0217275 0.0
1.1243 -0.00383691 0.0
0.311474 0.0151778 0.0
0.685576 0.0305027 0.0
1.1075 0.00215806 0.0
1.14436 -0.00325864 0.0
1.02511 -0.0106084 0.0
0.999621 0.0558125 0.0
1.20525 0.168859 0.0
0.657129 0.00456882 0.0
1.12889 -0.00454626 0.0
0.977748 0.0803612 0.0
1.14089 -0.00317288 0.0
1.38889 -0.592206 0.0
0.630802 -0.00241261 0.0
1.43619 -0.144548 0.0
1.09471 8.1764e-05 0.0
0.995222 -0.00773521 0.0
0.620101 0.0897465 0.0
1.0317 0.0957852 0.0
0.89734 0.139451 0.0
1.09785 0.00241737 0.0
1.17204 -0.0487521 0.0
1.39933 -0.0367905 0.0
0.647269 0.00243525 0.0
0.663234 0.0102889 0.0
1.09913 -0.0156983 0.0
0.404298 -0.0726501 0.0
1.01592 0.0386379 0.0
0.591798 0.00258707 0.0
1.02319 -0.0216552 0.0
1.10269 -0.00992088 0.0
0.990387 -0.00391567 0.0
0.639062 -0.00316432 0.0
0.639285 0.0139377 0.0
0.661745 0.00682258 0.0
0.640244 0.00416091 0.0
0.673114 0.00540132 0.0
1.2121 0.669754 0.0
1.35044 0.0622013 0.0
0.989262 -0.00242169 0.0
0.661454 0.00605324 0.0
0.667734 -0.00828745 0.0
0.688634 0.0168823 0.0
1.11616 -0.0374005 0.0
0.647285 -0.00424196 0.0
1.61341 -0.188453 0.0
1.25583 0.100686 0.0
0.602682 -0.134588 0.0
1.30113 -0.0912554 0.0
1.52751 -0.463382 0.0
1.0153 -0.000733681 0.0
1.07534 0.000378565 0.0
1.13258 -0.00437194 0.0
1.00955 -0.00167289 0.0
0.837567 -0.688965 0.0
1.02074 0.00137688 0.0
1.0026 -0.00469222 0.0
1.13912 -0.00468326 0.0
1.08254 -0.0208629 0.0
1.63896 -0.0161908 0.0
-0.0813929 0.131851 0.0
0.595821 -0.0738082 0.0
1.33729 0.517805 0.0
1.0823 -0.00859804 0.0
0.685651 -0.00759679 0.0
0.665143 -0.00392125 0.0
0.662448 -0.00468165 0.0
1.13356 -0.0114141 0.0
0.686434 0.224487 0.0
1.13084 -0.0125969 0.0
1.00667 0.00718685 0.0
0.795733 0.187252 0.0
1.10921 -0.00271729 0.0
0.265696 -0.0223504 0.0
1.11923 -0.00851706 0.0
0.655907 0.0144708 0.0
0.6573 -0.00810825 0.0
1.35858 0.103664 0.0
0.908387 -0.00245988 0.0
1.51768 0.0483311 0.0
1.00859 0.00798632 0.0
1.02489 0.00417567 0.0
0.220173 -0.144831 0.0
0.989278 0.0113159 0.0
1.13688 0.00432607 0.0
1.12547 0.00379203 0.0
0.401781 -0.160087 0.0
1.62538 -0.269329 0.0
1.07903 0.00117965 0.0
1.28263 0.206224 0.0
0.680712 -0.0101918 0.0
0.656175 -0.00459696 0.0
1.11108 -0.0203775 0.0
0.632344 0.0955869 0.0
1.11968 -0.0156063 0.0
0.779356 0.0182371 0.0
0.965304 -0.0100749 0.0
1.10903 0.00295713 0.0
1.03302 -0.00283 0.0
0.201817 -0.0208456 0.0
1.11311 -0.00597221 0.0
0.327375 0.0557249 0.0
1.04181 -0.00284703 0.0
1.03526 -0.00442315 0.0
0.6675 -0.0112035 0.0
1.04745 -0.000461422 0.0
1.13047 -0.0116809 0.0
0.995934 -0.000182948 0.0
1.01299 -0.00723691 0.0
1.20144 -0.964582 0.0
1.10583 0.00997288 0.0
1.69491 0.483296 0.0
0.657585 -0.00850904 0.0
0.661353 0.00743326 0.0
1.13047 -0.000290955 0.0
1.15029 -0.00238833 0.0
1.09204 -0.00194433 0.0
1.09602 0.00374956 0.0
1.13686 -9.29008e-05 0.0
1.1132 -0.0010592 0.0
1.14578 -0.00349241 0.0
1.12294 0.0126448 0.0
-0.115618 -0.00320219 0.0
1.07817 0.00445909 0.0
0.0669528 0.055326 0.0
0.695078 -0.0264428 0.0
1.20726 -0.198783 0.0
1.11404 -0.0033675 0.0
1.34028 -0.142418 0.0
1.6475 -0.498682 0.0
0.314233 -0.0180702 0.0
1.14205 -0.00329408 0.0
1.1287 0.270596 0.0
1.30906 -0.0979285 0.0
1.072 0.305952 0.0
1.7137 0.0740539 0.0
0.975683 -0.542034 0.0
1.37225 0.132184 0.0
1.13409 -0.0127873 0.0
1.29011 -0.480032 0.0
-0.0135298 -0.140129 0.0
1.04957 0.00271776 0.0
1.31872 -0.392796 0.0
0.603338 -0.00610162 0.0
1.41259 -0.143521 0.0
1.68375 0.189155 0.0
1.08376 0.00515934 0.0
0.532969 0.00914833 0.0
0.71743 0.00226101 0.0
0.267981 -0.228042 0.0
0.924161 0.0463412 0.0
-0.0381631 -0.0527083 0.0
1.14795 -0.173864 0.0
1.46989 0.158691 0.0
0.596026 0.00612794 0.0
1.19188 -0.0587216 0.0
1.01295 -0.00429674 0.0
1.12742 -0.0119369 0.0
0.435444 -0.615428 0.0
1.22915 0.264377 0.0
0.76971 -0.17038 0.0
0.191384 -0.330755 0.0
0.594569 0.151721 0.0
1.30288 0.23807 0.0
0.652952 0.164073 0.0
0.981807 -0.00854905 0.0
1.10918 -0.00692661 0.0
1.06685 0.00198378 0.0
1.0501 -0.00201553 0.0
0.661408 0.00661516 0.0
0.0764723 0.0940067 0.0