# vtk DataFile Version 3.0
Malha 2D com triângulos e temperatura
ASCII
DATASET UNSTRUCTURED_GRID

POINTS 688 double
0 0 0
2.2 0 0
2.2 0.41 0
0 0.41 0
0.25 0.2 0
0.05 0 0
0.1 0 0
0.15 0 0
0.2 0 0
0.25 0 0
0.3 0 0
0.35 0 0
0.4 0 0
0.45 0 0
0.5 0 0
0.55 0 0
0.6 0 0
0.65 0 0
0.7 0 0
0.75 0 0
0.8 0 0
0.85 0 0
0.9 0 0
0.95 0 0
1 0 0
1.05 0 0
1.1 0 0
1.15 0 0
1.2 0 0
1.25 0 0
1.3 0 0
1.35 0 0
1.4 0 0
1.45 0 0
1.5 0 0
1.55 0 0
1.6 0 0
1.65 0 0
1.7 0 0
1.75 0 0
1.8 0 0
1.85 0 0
1.9 0 0
1.95 0 0
2 0 0
2.05 0 0
2.1 0 0
2.15 0 0
2.2 0.0455556 0
2.2 0.0911111 0
2.2 0.136667 0
2.2 0.182222 0
2.2 0.227778 0
2.2 0.273333 0
2.2 0.318889 0
2.2 0.364444 0
2.15 0.41 0
2.1 0.41 0
2.05 0.41 0
2 0.41 0
1.95 0.41 0
1.9 0.41 0
1.85 0.41 0
1.8 0.41 0
1.75 0.41 0
1.7 0.41 0
1.65 0.41 0
1.6 0.41 0
1.55 0.41 0
1.5 0.41 0
1.45 0.41 0
1.4 0.41 0
1.35 0.41 0
1.3 0.41 0
1.25 0.41 0
1.2 0.41 0
1.15 0.41 0
1.1 0.41 0
1.05 0.41 0
1 0.41 0
0.95 0.41 0
0.9 0.41 0
0.85 0.41 0
0.8 0.41 0
0.75 0.41 0
0.7 0.41 0
0.65 0.41 0
0.6 0.41 0
0.55 0.41 0
0.5 0.41 0
0.45 0.41 0
0.4 0.41 0
0.35 0.41 0
0.3 0.41 0
0.25 0.41 0
0.2 0.41 0
0.15 0.41 0
0.1 0.41 0
0.05 0.41 0
0 0.364444 0
0 0.318889 0
0 0.273333 0
0 0.227778 0
0 0.182222 0
0 0.136667 0
0 0.0911111 0
0 0.0455556 0
0.248831 0.210749 0
0.245379 0.220994 0
0.239805 0.230259 0
0.232369 0.238108 0
0.22342 0.244176 0
0.213376 0.248177 0
0.202707 0.249927 0
0.191911 0.249341 0
0.181493 0.246449 0
0.171941 0.241384 0
0.1637 0.234385 0
0.157157 0.225778 0
0.152617 0.215965 0
0.150293 0.205406 0
0.150293 0.194594 0
0.152617 0.184035 0
0.157157 0.174222 0
0.1637 0.165615 0
0.171941 0.158616 0
0.181493 0.153551 0
0.191911 0.150659 0
0.202707 0.150073 0
0.213376 0.151823 0
0.22342 0.155824 0
0.232369 0.161892 0
0.239805 0.169741 0
0.245379 0.179006 0
0.248831 0.189251 0
0.421316 0.36725 0
0.426705 0.0366526 0
2.16065 0.209201 0
1.52286 0.0417259 0
0.626017 0.37111 0
1.3257 0.0414552 0
1.02471 0.0432237 0
1.17293 0.0421053 0
0.82501 0.36678 0
1.6757 0.370064 0
1.91628 0.0358195 0
1.82501 0.366432 0
0.723429 0.0421499 0
1.425 0.366699 0
1.97461 0.366224 0
1.12167 0.370137 0
0.975 0.368691 0
0.877672 0.0412714 0
1.27686 0.36884 0
1.725 0.0433013 0
0.579174 0.0416211 0
0.325589 0.363848 0
0.319111 0.0378151 0
0.0394523 0.296111 0
0.0329929 0.11602 0
0.142108 0.187428 0
1.57555 0.364352 0
2.02603 0.0412138 0
0.725007 0.36763 0
0.528647 0.366595 0
1.62699 0.0400272 0
1.82929 0.0421255 0
1.425 0.0418325 0
2.07474 0.364233 0
0.125 0.0433013 0
0.161245 0.155011 0
0.225 0.366699 0
0.210027 0.258536 0
2.16034 0.115449 0
0.0371627 0.204103 0
0.142311 0.212698 0
0.220283 0.0418538 0
0.221965 0.145099 0
0.196802 0.141016 0
0.119851 0.373394 0
0.161112 0.245979 0
0.184892 0.258024 0
2.16342 0.30039 0
2.12627 0.047699 0
0.183325 0.0412617 0
0.152317 0.0762976 0
0.203864 0.0745802 0
0.234384 0.0774346 0
0.215969 0.103585 0
0.245651 0.104548 0
0.186562 0.100216 0
0.268213 0.0793029 0
0.272149 0.109155 0
0.242885 0.159377 0
0.253088 0.128261 0
0.278718 0.13214 0
0.295917 0.115997 0
0.301728 0.138858 0
0.321266 0.12205 0
0.324642 0.151724 0
0.255978 0.181139 0
0.350123 0.129049 0
0.357539 0.159885 0
0.333541 0.181416 0
0.36451 0.19182 0
0.250573 0.230419 0
0.391277 0.169722 0
0.339477 0.212308 0
0.39836 0.205386 0
0.427326 0.18117 0
0.258724 0.206387 0
0.434392 0.219501 0
0.466446 0.193907 0
0.472865 0.243064 0
0.507358 0.209962 0
0.40073 0.238916 0
0.499135 0.1652 0
0.5419 0.179224 0
0.550176 0.22496 0
0.585844 0.194129 0
0.594095 0.240176 0
0.630701 0.209517 0
0.621901 0.162424 0
0.667731 0.178095 0
0.676485 0.226008 0
0.713906 0.194492 0
0.722681 0.242872 0
0.760442 0.211047 0
0.751547 0.162356 0
0.798298 0.179 0
0.807147 0.227866 0
0.845136 0.195775 0
0.854541 0.243285 0
0.892163 0.212344 0
0.902461 0.257947 0
0.93935 0.228684 0
0.930236 0.180167 0
0.977229 0.197066 0
0.986264 0.245777 0
1.02423 0.213991 0
1.0331 0.263172 0
1.07123 0.230975 0
1.06234 0.181814 0
1.10938 0.198721 0
1.09996 0.151012 0
1.14691 0.168161 0
1.15631 0.215921 0
1.19446 0.183678 0
1.20343 0.232645 0
1.2416 0.200322 0
1.23272 0.151117 0
1.2798 0.167954 0
1.28868 0.217167 0
1.32685 0.184862 0
1.33573 0.234064 0
1.3739 0.201768 0
0.789327 0.130094 0
1.38279 0.25097 0
1.42096 0.218674 0
1.41207 0.169471 0
1.45912 0.186378 0
1.46801 0.235581 0
1.50618 0.203285 0
1.51506 0.252489 0
1.55323 0.220192 0
1.54435 0.170989 0
1.5914 0.187896 0
1.60029 0.2371 0
1.63846 0.204803 0
1.64734 0.254007 0
1.68551 0.221711 0
1.67663 0.172507 0
1.72368 0.189415 0
1.73831 0.241548 0
1.77074 0.206322 0
1.76185 0.157121 0
1.8091 0.17428 0
1.81866 0.220885 0
1.85608 0.190621 0
1.86521 0.238879 0
1.90289 0.207671 0
1.91264 0.253772 0
1.94955 0.224093 0
1.94067 0.17593 0
1.98705 0.192828 0
1.99572 0.240997 0
2.0329 0.209382 0
2.02422 0.16161 0
2.04166 0.257286 0
0.419739 0.142889 0
0.968291 0.148058 0
0.310035 0.202211 0
0.316128 0.230863 0
0.658501 0.130052 0
0.685107 0.27445 0
1.34462 0.283266 0
1.16528 0.264896 0
1.84735 0.142081 0
0.557687 0.270604 0
1.21234 0.281769 0
1.58252 0.138692 0
0.533563 0.131933 0
0.489835 0.120004 0
1.45024 0.137174 0
2.06974 0.17785 0
2.06113 0.130713 0
0.283221 0.152215 0
0.921299 0.131169 0
0.343836 0.24295 0
0.319203 0.260002 0
0.235529 0.249617 0
0.347029 0.274099 0
0.291856 0.246297 0
0.295938 0.27548 0
0.272836 0.264931 0
0.27461 0.290522 0
0.251228 0.280224 0
0.253903 0.305808 0
0.232795 0.296709 0
0.298805 0.304058 0
1.0801 0.280176 0
1.47689 0.284785 0
1.05315 0.133468 0
1.09741 0.0970974 0
1.82427 0.272867 0
1.2701 0.118911 0
0.816337 0.277695 0
1.40432 0.121101 0
1.04244 0.320388 0
0.959305 0.103028 0
1.60923 0.286151 0
0.601674 0.286775 0
2.00739 0.280923 0
0.342592 0.0992796 0
0.375237 0.105729 0
1.52511 0.298716 0
1.53114 0.119823 0
0.733824 0.287256 0
0.613372 0.114719 0
0.645558 0.0838585 0
2.015 0.115858 0
1.22718 0.0994086 0
1.39166 0.29817 0
1.3564 0.329754 0
0.744134 0.11556 0
0.782853 0.0841771 0
0.826899 0.10047 0
1.17418 0.314034 0
0.520902 0.0906676 0
1.4967 0.329429 0
1.26048 0.0740437 0
0.365514 0.0716355 0
0.229836 0.121666 0
1.57453 0.09137 0
1.61938 0.110761 0
0.481716 0.0753791 0
0.14093 0.2 0
0.130041 0.192847 0
0.131507 0.178608 0
0.117165 0.184444 0
0.120761 0.164701 0
0.1156 0.199931 0
0.100804 0.174136 0
0.102545 0.153034 0
0.12169 0.143342 0
0.104604 0.13008 0
0.0809304 0.161171 0
0.128077 0.121858 0
0.106825 0.102278 0
0.082498 0.188728 0
0.0314738 0.158621 0
2.04625 0.310891 0
2.08475 0.27479 0
2.11394 0.138117 0
0.233149 0.151108 0
0.258724 0.193613 0
0.268522 0.184917 0
1.65397 0.301059 0
0.145962 0.224912 0
0.132503 0.222267 0
0.13746 0.236947 0
0.120111 0.233525 0
0.126593 0.25219 0
0.105294 0.247497 0
0.113343 0.26868 0
0.133997 0.271734 0
0.121622 0.292031 0
0.147069 0.292141 0
0.0896563 0.267464 0
0.0813699 0.243294 0
0.163574 0.276939 0
0.172694 0.298517 0
0.1583 0.321483 0
0.186823 0.322499 0
0.173113 0.348195 0
0.0322087 0.250839 0
0.211694 0.124337 0
0.250615 0.169546 0
0.256243 0.157787 0
0.170796 0.14736 0
0.156755 0.141654 0
0.17187 0.131161 0
0.147502 0.152323 0
0.198129 0.260662 0
0.206368 0.271663 0
0.220945 0.26864 0
0.190489 0.270628 0
0.198813 0.286731 0
0.55749 0.322277 0
0.520166 0.299321 0
0.235199 0.330709 0
0.267109 0.337524 0
0.172324 0.25256 0
0.255974 0.218859 0
0.268327 0.214994 0
0.184197 0.143083 0
0.188721 0.129954 0
0.209694 0.139146 0
0.269223 0.244007 0
0.252374 0.255244 0
0.282229 0.0410487 0
1.21977 0.330016 0
1.25733 0.296346 0
2.09358 0.0890819 0
0.244373 0.240984 0
0.0838116 0.115786 0
0.0797544 0.0817835 0
0.237449 0.264854 0
0.247178 0.146225 0
0.270136 0.2 0
0.28023 0.191334 0
0.263476 0.170737 0
0.371486 0.368728 0
0.396124 0.330051 0
0.440314 0.325693 0
0.357693 0.329668 0
0.476576 0.362035 0
0.29587 0.222914 0
0.307627 0.175476 0
0.079599 0.0406461 0
0.146062 0.252571 0
0.15162 0.125025 0
0.417223 0.294608 0
0.457089 0.286958 0
0.036619 0.338729 0
0.0713014 0.322193 0
0.0735823 0.36704 0
0.041143 0.0722223 0
0.693501 0.32349 0
0.145406 0.175484 0
0.138777 0.164467 0
0.300367 0.0698839 0
0.167025 0.112083 0
0.146978 0.105544 0
0.151909 0.236762 0
0.444611 0.106436 0
0.909355 0.0817561 0
0.282901 0.370713 0
1.61474 0.330739 0
0.578053 0.368179 0
0.824695 0.0487848 0
2.09634 0.3213 0
2.02276 0.364865 0
2.12532 0.363702 0
1.09789 0.328757 0
0.161137 0.260089 0
2.07793 0.225752 0
2.12079 0.240944 0
2.0747 0.0437362 0
1.89402 0.158846 0
1.93154 0.128738 0
1.8848 0.111477 0
1.8384 0.0926484 0
1.87744 0.0655304 0
1.7913 0.0793874 0
1.9712 0.046671 0
1.92502 0.366682 0
1.94563 0.325156 0
1.89941 0.326645 0
1.87499 0.367178 0
1.84989 0.323491 0
1.7997 0.321303 0
1.77183 0.280326 0
1.75031 0.321965 0
1.77491 0.365615 0
2.11727 0.191885 0
0.883187 0.163467 0
1.71449 0.140266 0
1.667 0.125342 0
1.70591 0.0884759 0
1.67732 0.042286 0
1.52278 0.370513 0
1.37512 0.04128 0
1.34848 0.0834574 0
0.776093 0.367587 0
1.125 0.0433013 0
1.15 0.0866019 0
1.07442 0.0496847 0
0.974527 0.0370837 0
1.47464 0.0427918 0
1.44953 0.0873752 0
1.17595 0.362984 0
1.025 0.366699 0
0.925007 0.367031 0
0.95 0.323404 0
0.897321 0.326356 0
0.874563 0.367261 0
0.846552 0.324465 0
1.62923 0.156667 0
1.32319 0.13033 0
1.69342 0.270472 0
1.49568 0.156227 0
1.56237 0.268721 0
1.44 0.319169 0
1.43005 0.267892 0
1.36502 0.152565 0
0.993446 0.294003 0
1.30179 0.321101 0
1.18235 0.127964 0
1.25016 0.2491 0
1.29638 0.266841 0
1.11824 0.247967 0
1.12945 0.294699 0
1.01527 0.165035 0
0.836192 0.147197 0
1.4998 0.0831488 0
1.00655 0.118664 0
0.872896 0.117126 0
0.70523 0.146383 0
1.96013 0.276645 0
0.769406 0.257102 0
0.699552 0.0908977 0
2.1587 0.162257 0
1.97813 0.145326 0
0.646036 0.302035 0
0.799423 0.326603 0
0.515621 0.255445 0
1.72538 0.366474 0
1.97009 0.0998346 0
1.57108 0.313772 0
0.577925 0.14549 0
0.638911 0.256447 0
0.407352 0.0771641 0
0.525103 0.042511 0
0.674231 0.370698 0
1.69802 0.321701 0
0.56947 0.0908728 0
1.75459 0.110239 0
1.80084 0.126127 0
0.673535 0.0431435 0
1.57391 0.0465733 0
2.04571 0.0828469 0
0.10002 0.225545 0
0.0788152 0.21577 0
0.369719 0.224393 0
0.210352 0.308739 0
1.22342 0.0432967 0
[...]
CELL_DATA 1241
VECTORS velocity double
1.77105 -0.149547 0.0
1.04412 0.00681808 0.0
0.794124 -0.00712139 0.0
1.38743 0.450881 0.0
1.02653 -0.0012564 0.0
1.30276 0.00261668 0.0
0.933845 0.0320851 0.0
1.04616 -0.0207737 0.0
0.773378 -0.296834 0.0
0.903558 0.0232082 0.0
1.29756 -0.174734 0.0
1.29578 0.181788 0.0
0.865725 -0.257512 0.0
1.02682 -1.44351e-05 0.0
1.02145 -0.00470673 0.0
1.27136 0.0682679 0.0
1.01987 -0.0056376 0.0
0.681 0.108346 0.0
1.02988 -0.00228466 0.0
1.48382 -0.0913585 0.0
0.908583 -0.0118225 0.0
1.14359 -0.00828133 0.0
1.02642 -0.00325577 0.0
1.1552 0.83456 0.0
1.22458 0.289267 0.0
0.90959 -0.0163494 0.0
1.28272 -0.120042 0.0
1.14646 0.0102612 0.0
1.3157 -0.12252 0.0
1.2825 0.0457965 0.0
1.31749 0.132527 0.0
0.955675 -0.00966696 0.0
1.21063 -0.0897598 0.0
1.02633 -0.00251064 0.0
1.04112 -0.00902888 0.0
1.29037 0.0547143 0.0
1.03198 -0.0101607 0.0
1.01904 -0.265102 0.0
0.510789 0.0718567 0.0
1.3037 0.0369927 0.0
1.57699 0.0558463 0.0
1.42263 0.232955 0.0
1.05601 -0.260381 0.0
0.823225 -0.00249561 0.0
1.32154 -0.0558053 0.0
0.832914 -0.0010521 0.0
1.03747 0.0152042 0.0
1.02691 -0.00629696 0.0
1.46755 -0.163333 0.0
1.25365 -0.323818 0.0
0.874913 0.00727816 0.0
1.21931 -0.4276 0.0
1.13787 -0.249996 0.0
1.10253 -0.0475536 0.0
1.63054 -0.0522629 0.0
1.19461 -0.0924252 0.0
1.03409 -0.00395456 0.0
0.944651 0.024531 0.0
1.50557 0.156913 0.0
1.47559 -0.00398732 0.0
1.06681 0.783513 0.0
1.02772 0.029372 0.0
0.656418 -0.329854 0.0
0.919067 -0.0147184 0.0
0.328565 -0.109491 0.0
1.27825 0.268908 0.0
0.365879 0.0965421 0.0
0.91844 -0.0321673 0.0
0.934575 -0.00427481 0.0
0.607267 0.296752 0.0
0.936068 -0.0386964 0.0
1.04086 -0.310247 0.0
0.940053 -0.0342933 0.0
0.949995 -0.368306 0.0
0.893748 -0.0144084 0.0
0.897927 0.228085 0.0
1.01985 0.000633692 0.0
1.43363 0.209089 0.0
0.997441 -0.0177731 0.0
0.903565 -0.0023339 0.0
1.60424 -0.219525 0.0
1.16146 -0.239477 0.0
0.932157 0.00313834 0.0
1.25085 -0.159216 0.0
1.30448 0.209624 0.0
1.09626 -0.039653 0.0
1.03226 0.0440894 0.0
0.698113 0.210016 0.0
1.70018 0.377459 0.0
0.895752 -0.00816552 0.0
1.32136 -0.28182 0.0
0.243511 0.163031 0.0
0.538714 -0.00181797 0.0
1.12815 -0.0558356 0.0
1.03017 0.00128244 0.0
1.09753 -0.0148929 0.0
1.05454 -0.374555 0.0
0.501246 -0.157609 0.0
1.02687 0.000481926 0.0
0.444655 0.0926856 0.0
1.07102 -0.1675 0.0
0.998268 -0.0293822 0.0
1.02225 -0.00170015 0.0
1.60344 0.0540868 0.0
1.65131 -0.564558 0.0
1.20373 -0.426643 0.0
1.06518 -0.31793 0.0
0.8 0.333208 0.0
1.6986 0.539047 0.0
0.887417 0.000188914 0.0
1.11362 -0.0945801 0.0
1.03154 0.0607187 0.0
0.638904 -0.267102 0.0
1.42808 -0.045003 0.0
1.10449 0.0247019 0.0
1.42807 0.0548337 0.0
1.217 0.0729674 0.0
1.24889 -0.0438996 0.0
1.0348 -0.000765497 0.0
0.702263 0.24587 0.0
1.3458 -0.193378 0.0
1.39333 0.527192 0.0
1.03877 0.0201275 0.0
1.08474 -0.0279243 0.0
0.87972 -0.286312 0.0
1.04 0.00980218 0.0
1.14802 -0.0644102 0.0
1.03393 -0.000366011 0.0
1.69945 0.395958 0.0
0.77328 -0.0848162 0.0
1.00577 -0.0274158 0.0
0.903646 -0.00408419 0.0
1.06581 0.0291943 0.0
1.28378 0.115642 0.0
1.01473 -0.0374263 0.0
0.240075 -0.0112464 0.0
0.600505 -0.304347 0.0
1.04789 0.0220551 0.0
1.05232 -0.0267811 0.0
1.56546 -0.667569 0.0
1.48234 0.00289207 0.0
1.03687 0.000426551 0.0
1.09129 -0.261318 0.0
1.01742 0.0267447 0.0
1.35797 0.264829 0.0
0.574244 0.262543 0.0
0.148379 0.0407576 0.0
0.397755 0.194724 0.0
0.933152 0.00108 0.0
0.93124 -0.00698303 0.0
0.724089 -0.134084 0.0
1.04117 -0.0197856 0.0
1.65072 -0.141162 0.0
1.00911 -0.0469982 0.0
1.18755 -0.0697461 0.0
1.17609 0.0816048 0.0
0.777269 0.00188814 0.0
1.3105 -0.0815527 0.0
1.0347 0.331932 0.0
1.03963 -0.0164878 0.0
0.528253 -0.112294 0.0
1.5757 0.29869 0.0
1.03298 0.00177961 0.0
1.18802 -0.282749 0.0
1.03256 -0.00165202 0.0
1.02756 0.227693 0.0
1.04571 -0.015575 0.0
0.922631 0.101947 0.0
0.915645 -0.00181321 0.0
1.03654 0.000377969 0.0
0.971003 -0.00661836 0.0
0.889237 -0.0117692 0.0
1.29338 0.19532 0.0
1.04419 0.0183975 0.0
1.02986 -0.00693485 0.0
1.03205 0.00158364 0.0
1.20025 0.134267 0.0
1.08934 -0.347644 0.0
1.03645 -0.00642435 0.0
1.1826 -0.196075 0.0
1.02997 -0.00219133 0.0
0.744273 -0.32156 0.0
1.00112 -0.607448 0.0
0.919406 -0.114122 0.0
1.03001 0.00199804 0.0
0.969132 -0.0829081 0.0
0.983233 -0.0556758 0.0
1.02861 0.00241178 0.0
1.0417 0.176944 0.0
0.713499 0.0622128 0.0
0.815979 -0.771762 0.0
1.58089 0.150329 0.0
1.08108 0.0166036 0.0
1.01347 0.00399672 0.0
0.924785 0.0621617 0.0
0.966012 0.324144 0.0
0.49203 0.138472 0.0
1.10885 -0.0367286 0.0
1.41894 -0.0417019 0.0
1.32903 0.540908 0.0
1.11462 0.288304 0.0
1.09811 -0.0234943 0.0
1.41812 0.0477047 0.0
1.0099 -0.298654 0.0
1.09222 -0.0431071 0.0
1.42002 -0.0667752 0.0
0.850241 0.344261 0.0
0.917782 -0.00295429 0.0
0.94662 -0.0151105 0.0
0.899504 0.0133901 0.0
0.817582 -0.000625604 0.0
0.861481 -0.00144355 0.0
1.5714 0.079167 0.0
1.03741 0.000975197 0.0
1.29118 -0.264736 0.0
1.04126 -0.00137544 0.0
1.00617 -0.0113371 0.0
1.14003 -0.106425 0.0
1.03666 -0.0013251 0.0
0.988903 -0.0340643 0.0
0.796818 -0.087891 0.0
1.37729 0.124259 0.0
1.11834 0.00658683 0.0
1.14442 0.323756 0.0
0.978381 -0.0247938 0.0
0.888688 -0.0120652 0.0
1.08118 -0.0689082 0.0
1.61705 -0.475178 0.0
1.05434 -0.0349721 0.0
1.02018 -0.0301475 0.0
1.04538 -0.0107705 0.0
1.04369 -0.218209 0.0
1.03024 -0.00129953 0.0
1.02324 0.00089639 0.0
1.27712 0.261387 0.0
1.04417 -0.296782 0.0
1.02422 0.031571 0.0
1.04358 0.0340525 0.0
0.999202 -0.0161376 0.0
0.519289 -0.0762788 0.0
1.05618 -0.0105905 0.0
1.42321 0.0753473 0.0
1.31415 0.838051 0.0
0.682156 -0.185094 0.0
1.01203 -0.0226291 0.0
1.45107 -0.110667 0.0
1.00779 -0.831985 0.0
0.864133 -0.260356 0.0
1.03146 -0.00114233 0.0
0.895196 -0.00247898 0.0
1.12223 -0.00598771 0.0
0.885607 -0.00440417 0.0
1.02823 -0.00470947 0.0
0.893571 -0.026091 0.0
0.869198 -0.0350367 0.0
0.907337 -0.00565483 0.0
1.06666 -0.355167 0.0
1.04629 -0.0212227 0.0
0.89638 -0.0297424 0.0
1.0156 0.00331942 0.0
0.89771 -0.0121167 0.0
0.85555 -0.00430135 0.0
0.894916 -0.00645811 0.0
0.928512 -0.00637305 0.0
1.03077 0.00235837 0.0
1.08552 -0.0283599 0.0
0.899076 -0.000178074 0.0
1.04117 -0.0172462 0.0
1.02844 -0.144288 0.0
0.937089 -0.00564555 0.0
1.03439 -0.00290373 0.0
0.837625 -0.0195514 0.0
0.991795 -0.0134044 0.0
0.743077 0.168383 0.0
0.83691 0.0134909 0.0
1.02289 -0.0232445 0.0
0.794595 -0.107028 0.0
0.979159 -0.0882399 0.0
1.01127 -0.00657659 0.0
1.07249 0.0642633 0.0
0.910107 -0.0304517 0.0
0.885647 -0.0413374 0.0
1.20365 -0.245026 0.0
0.895677 -0.0713071 0.0
0.872712 -0.0241013 0.0
1.03696 -0.000503833 0.0
1.02021 -0.0155439 0.0
0.812013 0.0782877 0.0
0.924862 -0.101253 0.0
0.874027 -0.0295561 0.0
0.853214 -0.0532334 0.0
0.919801 0.048265 0.0
0.790008 -0.00361317 0.0
1.01239 -0.00144447 0.0
0.774426 -0.0360665 0.0
0.960473 -0.0750609 0.0
1.00075 -0.0126293 0.0
0.901387 -0.0156897 0.0
0.622984 0.00866169 0.0
0.940267 -0.0214364 0.0
0.843727 -0.0030789 0.0
1.26369 -0.548947 0.0
1.06179 -0.0354689 0.0
0.976345 -0.0172312 0.0
0.873302 -0.00542807 0.0
0.909286 -0.0818254 0.0
0.935902 0.0125875 0.0
0.612719 -0.0993398 0.0
0.988009 -0.0157462 0.0
0.946552 -0.112952 0.0
0.865249 -0.0738039 0.0
0.892835 -0.0509566 0.0
0.679956 0.33428 0.0
0.801994 -0.00589871 0.0
0.987756 -0.116387 0.0
1.03487 -0.00459141 0.0
0.986334 -0.188174 0.0
0.521551 -0.182406 0.0
1.07048 -0.200519 0.0
0.930432 -0.0636074 0.0
0.866743 0.00725351 0.0
1.00176 -0.0770958 0.0
0.829385 -0.00674527 0.0
1.01068 -0.10684 0.0
0.976603 -0.0741152 0.0
1.03843 -0.10107 0.0
0.815411 -0.0073473 0.0
0.920707 -0.0482011 0.0
1.0732 -0.111723 0.0
0.82397 -0.0252671 0.0
1.01269 -0.0672001 0.0
1.02243 -0.0786125 0.0
0.931509 0.0338714 0.0
1.02705 -0.0616837 0.0
1.24181 0.629499 0.0
1.04224 -0.0722163 0.0
0.858371 -0.00570221 0.0
1.03172 0.000212999 0.0
0.387264 0.172247 0.0
0.919897 0.000776158 0.0
1.03604 -0.000152181 0.0
1.03238 -0.000852427 0.0
1.02723 0.00128256 0.0
0.882349 -0.000193195 0.0
1.03292 -0.000779721 0.0
1.03643 -0.000260923 0.0
1.02991 -0.048292 0.0
1.02652 0.0216873 0.0
1.08007 -0.639325 0.0
0.919469 -0.000600473 0.0
0.88237 0.000205101 0.0
1.03813 -0.0407703 0.0
1.03033 -0.0321956 0.0
0.919249 -0.00578397 0.0
0.858968 0.000112409 0.0
1.03679 -0.0317154 0.0
1.0196 -0.000119113 0.0
1.03447 -0.000676678 0.0
1.03512 -0.000881602 0.0
0.919331 -0.000149036 0.0
0.882299 -0.000927921 0.0
1.03467 -0.00100832 0.0
0.927723 0.00238937 0.0
0.891648 0.000610258 0.0
1.03769 0.0010192 0.0
0.922614 0.00408717 0.0
0.892861 0.00418851 0.0
1.04094 -0.0220187 0.0
1.04172 -0.0182512 0.0
1.03099 0.00117423 0.0
1.03977 -0.00891449 0.0
1.04041 -0.0116553 0.0
1.03831 -0.0111047 0.0
1.03363 -0.00524231 0.0
1.04937 -0.0146563 0.0
0.913665 0.00308753 0.0
0.862612 -0.0015539 0.0
0.91709 -0.000651941 0.0
0.886708 -0.000331498 0.0
0.924701 -0.00240317 0.0
0.880623 0.00209188 0.0
0.874667 -6.62255e-05 0.0
0.919829 -0.000249049 0.0
0.943827 -0.00409302 0.0
0.917565 0.000214107 0.0
0.844164 -0.00527841 0.0
0.881989 0.00190043 0.0
0.912315 -0.00426106 0.0
0.87915 -0.000592453 0.0
0.882394 0.000767359 0.0
0.880275 0.000550111 0.0
0.884702 -0.00191638 0.0
0.877571 -0.00185172 0.0
0.875823 0.000141246 0.0
0.919377 0.00135783 0.0
0.934796 -0.00217985 0.0
0.881572 0.00109464 0.0
0.883492 -0.00393608 0.0
0.887771 0.00321392 0.0
0.877367 -0.00141544 0.0
0.920158 -0.00204343 0.0
0.81974 0.0132792 0.0
0.870851 -0.00177819 0.0
0.87775 -0.000134957 0.0
0.882547 8.13838e-05 0.0
0.853713 -0.00154962 0.0
0.876721 -0.00382997 0.0
0.877241 -0.00104587 0.0
0.888811 -0.000586456 0.0
0.932585 -0.0158011 0.0
0.898061 -0.00512061 0.0
1.03984 -0.0107496 0.0
1.0336 -0.00278936 0.0
1.03032 -0.0242785 0.0
1.03574 -0.0154263 0.0
1.03685 -0.0184569 0.0
1.02935 -0.00914116 0.0
1.03092 -0.00999027 0.0
1.02827 -0.0117901 0.0
1.03214 -0.0028682 0.0
1.03912 -0.0064528 0.0
1.03372 -0.0168219 0.0
1.02732 -0.0201002 0.0
1.02953 -0.00999789 0.0
1.03566 -0.00829502 0.0
1.0407 -0.00697953 0.0
1.03338 -0.0138215 0.0
1.03202 -0.00751996 0.0
1.03847 -0.00760035 0.0
1.03376 -0.0114995 0.0
1.03565 -0.00963927 0.0
1.03984 -0.0075986 0.0
1.0386 -0.0137652 0.0
1.04095 -0.0277713 0.0
1.03077 -0.00211261 0.0
1.03737 -0.00672159 0.0
1.03471 -0.00400335 0.0
1.03742 -0.00534307 0.0
1.02875 -0.0058167 0.0
1.03983 -0.0149457 0.0
1.0403 -0.00409858 0.0
1.0369 -0.00397588 0.0
1.03176 -0.00175003 0.0
1.03623 -0.00454349 0.0
1.03653 -0.00524855 0.0
1.03566 -0.0043367 0.0
1.03681 -0.00359197 0.0
1.03375 -0.0067677 0.0
1.03686 -0.00511943 0.0
1.0355 -0.0017313 0.0
1.03218 -0.00407242 0.0
1.03682 -0.00494301 0.0
1.03446 -0.00545186 0.0
1.03701 -0.00233441 0.0
1.03783 -0.00369026 0.0
1.03637 -0.000941069 0.0
1.03759 -0.00365373 0.0
1.03789 -0.00231553 0.0
1.03316 -0.0014844 0.0
1.03533 -0.00329808 0.0
1.02673 -0.000946573 0.0
1.03394 -0.00138008 0.0
1.0364 -0.00215701 0.0
1.03673 -0.00301444 0.0
1.03796 -0.00229961 0.0
1.03433 -0.0002892 0.0
1.03615 -0.00350056 0.0
1.03737 -0.00160353 0.0
1.03719 -0.000879408 0.0
1.03655 -0.00218999 0.0
1.03549 -0.00290694 0.0
1.03596 -0.000569581 0.0
1.0344 0.00187082 0.0
1.03768 -0.00249861 0.0
1.03723 3.97835e-05 0.0
1.03847 -0.00116387 0.0
1.03789 -0.0014113 0.0
0.92002 0.000600256 0.0
1.0369 0.00120782 0.0
1.03381 -0.000517778 0.0
1.03283 0.000700765 0.0
1.03724 -0.00244129 0.0
1.03596 -0.00320861 0.0
1.03634 -0.000951068 0.0
1.03689 -0.00129532 0.0
1.03755 -0.000450879 0.0
1.0357 7.88441e-05 0.0
1.03235 0.000511395 0.0
1.03833 -0.00338638 0.0
1.03492 -4.77483e-05 0.0
1.03829 -0.000386076 0.0
1.0355 9.21432e-05 0.0
1.03689 0.000614583 0.0
1.03568 0.000271278 0.0
1.03614 -0.0021296 0.0
1.03671 -6.56208e-06 0.0
1.0364 0.000312779 0.0
0.954424 -0.0217014 0.0
1.036 -0.00045922 0.0
1.03685 -0.000356365 0.0
1.03283 -0.00135391 0.0
1.03689 -0.00104271 0.0
1.03637 -0.000320748 0.0
1.03134 -0.00139462 0.0
1.03612 -0.00226059 0.0
1.03513 -0.000946859 0.0
1.03131 0.00312285 0.0
1.03613 -0.00057081 0.0
1.03416 0.000748498 0.0
1.03672 -0.000667814 0.0
1.03673 -0.000862262 0.0
1.03575 0.000569386 0.0
1.05144 0.17222 0.0
1.03532 -0.000413423 0.0
1.00739 -0.0487519 0.0
1.03802 -0.000975982 0.0
1.03669 -0.000374959 0.0
1.03345 -0.000977516 0.0
1.03398 0.0010879 0.0
1.03223 -0.00226561 0.0
1.03557 -0.00187212 0.0
1.03731 -0.00118125 0.0
1.03145 0.0012419 0.0
1.03696 -0.000944322 0.0
1.03665 -0.00110392 0.0
1.03505 -5.20071e-05 0.0
1.03609 0.000351855 0.0
1.03685 -0.00191493 0.0
0.893509 -0.00111865 0.0
1.02617 -0.00649778 0.0
1.03606 0.000360761 0.0
1.03617 -1.55791e-05 0.0
1.03663 -0.00187334 0.0
1.03674 0.00236157 0.0
1.03722 0.000625689 0.0
1.03562 -0.000294704 0.0
1.03577 -3.22868e-05 0.0
1.03536 6.80525e-05 0.0
1.03579 -0.00019053 0.0
1.03588 -0.000113537 0.0
1.03594 -0.000419761 0.0
1.03631 -0.000326156 0.0
1.03642 -0.00234228 0.0
1.03596 -0.000397338 0.0
1.03607 -0.000935235 0.0
1.03711 -0.000713536 0.0
1.03608 -0.000883941 0.0
1.03754 0.00140075 0.0
1.03592 -0.000824099 0.0
1.52273 -0.0973068 0.0
1.03447 -6.26984e-05 0.0
1.03583 -0.00100189 0.0
1.03496 -0.000669635 0.0
1.03166 -0.000999612 0.0
1.03466 -0.000121484 0.0
1.03432 0.00137615 0.0
1.03461 -0.000913114 0.0
0.939457 -0.0669144 0.0
1.11113 -0.0695595 0.0
1.02657 0.00508078 0.0
1.03587 -0.000544655 0.0
1.04561 0.0231066 0.0
0.853567 -0.129104 0.0
1.03727 0.00250452 0.0
1.08494 -0.0829594 0.0
1.03495 -0.000406432 0.0
1.02925 -0.000415182 0.0
1.03584 -0.000424826 0.0
1.03397 -0.000439981 0.0
0.971498 -0.020518 0.0
0.914137 -0.0374685 0.0
1.03651 -0.000720801 0.0
1.03625 -0.00069008 0.0
1.03594 -0.000653957 0.0
1.0342 0.00117905 0.0
1.09159 0.161226 0.0
0.958835 -0.0206176 0.0
1.03339 -0.000500192 0.0
0.872335 -0.0653935 0.0
1.06389 0.0486936 0.0
1.03555 -0.00169288 0.0
1.03688 -0.000537842 0.0
1.03596 0.000354774 0.0
1.03573 0.000336181 0.0
0.90635 -0.0446444 0.0
1.03648 -0.000375327 0.0
1.03554 -0.00124734 0.0
1.26553 0.245781 0.0
1.01296 -0.030516 0.0
1.03488 -0.00294874 0.0
1.03127 -0.021942 0.0
1.02052 -0.0132073 0.0
1.03627 -0.00222777 0.0
0.791118 -0.0866171 0.0
1.03397 -0.000330439 0.0
1.03471 -0.00080513 0.0
1.03534 -0.000970948 0.0
1.03986 -0.0122289 0.0
0.868345 -0.150935 0.0
0.931343 -0.174783 0.0
1.03571 -9.50485e-05 0.0
1.30336 -0.535101 0.0
1.03533 0.00439086 0.0
1.03537 -0.000760227 0.0
1.03563 0.00338981 0.0
1.03492 -0.000559717 0.0
0.92004 0.00577541 0.0
1.03522 -0.000366604 0.0
1.28745 -0.206383 0.0
1.02453 -0.0107603 0.0
1.03566 -0.00253975 0.0
0.58214 -0.521451 0.0
1.03068 -0.00110731 0.0
1.03205 -0.00836233 0.0
1.0308 -0.00497415 0.0
1.06246 -0.0579844 0.0
1.03395 0.00179739 0.0
0.767254 -0.013873 0.0
1.03485 0.000457103 0.0
1.03408 0.00256146 0.0
1.00358 -0.0122309 0.0
1.24543 -0.713118 0.0
0.897515 -0.0041595 0.0
1.03086 0.00244356 0.0
0.909687 0.00680476 0.0
0.951844 0.0213149 0.0
1.03421 -0.00362353 0.0
1.15557 0.321722 0.0
1.05656 0.0286554 0.0
1.0718 -0.044176 0.0
1.03311 0.00277898 0.0
1.1488 -0.101945 0.0
0.899363 -0.0107822 0.0
1.09442 -0.517711 0.0
0.91785 0.00237874 0.0
0.917989 -0.00341157 0.0
1.03256 0.0011842 0.0
1.04206 0.0153534 0.0
1.07259 -0.0594901 0.0
1.04951 -0.0284287 0.0
0.880361 -0.000474734 0.0
1.04946 -0.0450883 0.0
0.900453 -0.0482173 0.0
1.0328 -0.011787 0.0
0.936628 0.000389329 0.0
0.932801 -0.00661602 0.0
1.03037 0.00152785 0.0
1.0304 -0.00649545 0.0
0.884703 -0.232672 0.0
1.09957 -0.0186612 0.0
1.42634 0.0648236 0.0
0.942565 0.0179435 0.0
0.659248 -0.138922 0.0
0.739662 -0.379069 0.0
1.0335 -0.0033141 0.0
0.893257 -0.0035872 0.0
0.91294 0.0156214 0.0
1.10937 0.347796 0.0
0.872279 -0.000148616 0.0
1.02541 0.000124516 0.0
1.06943 -0.0327157 0.0
0.886122 0.000803971 0.0
1.44823 0.486142 0.0
1.03363 -0.00236631 0.0
1.02667 -0.00227864 0.0
1.10912 0.0586436 0.0
1.02317 -0.00330915 0.0
1.00523 -0.000701973 0.0
0.84982 -0.238752 0.0
1.03657 -0.00165869 0.0
1.07219 0.0488002 0.0
1.034 0.00029065 0.0
1.01741 -0.000164817 0.0
1.02146 -0.00292378 0.0
1.02154 0.0138266 0.0
1.22127 -0.27522 0.0
0.877441 0.000393426 0.0
1.01208 0.000342367 0.0
0.844739 0.746862 0.0
0.969379 0.0318796 0.0
1.03029 0.0295441 0.0
1.21366 -0.0556908 0.0
0.870427 -0.00198028 0.0
1.03266 0.00164793 0.0
1.08409 -0.447086 0.0
0.264052 0.0492276 0.0
1.03132 -0.00402626 0.0
1.03328 -0.00834058 0.0
0.880253 0.00035608 0.0
0.995669 0.00699038 0.0
1.28284 -0.120481 0.0
1.05178 -0.0193429 0.0
0.302374 0.0425803 0.0
1.00698 0.00639558 0.0
1.03544 0.00263404 0.0
1.05299 -0.0602741 0.0
1.01039 -0.0126405 0.0
1.02982 0.00559551 0.0
1.22516 0.101253 0.0
0.919946 0.000907547 0.0
0.896823 -0.0138962 0.0
1.0274 0.00701584 0.0
0.988931 -0.0486162 0.0
1.28678 -0.563808 0.0
0.904236 -0.00269228 0.0
1.09672 -0.0870004 0.0
1.03247 -0.00242143 0.0
1.25449 -0.0260029 0.0
0.858114 0.0836787 0.0
1.02663 0.00974831 0.0
0.893165 0.249982 0.0
1.03636 -0.00222987 0.0
1.03473 -0.00946497 0.0
1.36961 -0.0545469 0.0
0.912841 0.000447571 0.0
0.919718 0.00624362 0.0
0.977296 0.0218456 0.0
0.494627 -0.136334 0.0
1.01951 0.0294784 0.0
0.870189 0.0018479 0.0
0.966951 0.00637824 0.0
0.972177 0.0244811 0.0
1.07033 -0.0149023 0.0
0.917012 -0.000450798 0.0
0.914834 0.000871769 0.0
0.920667 0.00555664 0.0
0.813571 -0.00823659 0.0
0.92453 0.000705044 0.0
1.11545 0.625129 0.0
1.25313 -0.0262209 0.0
1.0202 -0.00245671 0.0
0.952747 -0.00206378 0.0
0.96602 -0.0102074 0.0
0.915332 -0.000720034 0.0
1.02591 -0.00543304 0.0
0.920068 -0.00180163 0.0
1.60736 -0.0122254 0.0
1.08234 0.0493211 0.0
0.970883 -0.0214756 0.0
1.062 -0.0266089 0.0
1.42168 -0.380248 0.0
1.02984 -0.000349814 0.0
0.900902 -0.0105542 0.0
1.03481 -0.000749612 0.0
1.02974 -0.00159071 0.0
0.768464 -0.643701 0.0
1.03067 -0.00306763 0.0
1.0267 -0.00603978 0.0
1.00844 -0.0357488 0.0
1.03343 -0.000928224 0.0
1.25581 -0.132389 0.0
0.745664 0.109166 0.0
0.983059 -0.0146729 0.0
1.23408 0.506191 0.0
1.16381 -0.102182 0.0
0.925223 -0.00430806 0.0
0.916168 -0.00230636 0.0
0.915545 -0.000151688 0.0
0.895483 -0.00834196 0.0
0.950218 0.0690225 0.0
1.03588 0.000903977 0.0
1.03144 0.000933283 0.0
0.959516 0.0962394 0.0
1.04697 -0.0115207 0.0
0.937253 0.000878596 0.0
0.895104 -0.0105848 0.0
0.908264 0.00112614 0.0
0.912305 -0.00135684 0.0
1.20277 0.282106 0.0
1.13933 0.0576477 0.0
1.28338 0.268806 0.0
1.03198 -0.000748591 0.0
1.03477 -0.00554156 0.0
0.908404 -0.00476899 0.0
0.887545 -0.00725563 0.0
1.03881 0.00262806 0.0
1.03796 0.00290304 0.0
0.748366 -0.177595 0.0
1.61414 -0.109562 0.0
1.02976 -0.00264862 0.0
1.03957 0.0754017 0.0
0.912977 -0.00489059 0.0
0.900564 -0.00266564 0.0
1.17933 -0.665238 0.0
0.989207 0.0227762 0.0
1.03262 0.000878155 0.0
0.922491 -0.0025406 0.0
1.01294 0.00230695 0.0
1.03674 -0.00137517 0.0
1.05697 -0.0148559 0.0
0.2807 -0.0512966 0.0
1.02306 -0.0175616 0.0
0.710455 -0.304761 0.0
1.03441 -0.00197739 0.0
1.33311 -0.158163 0.0
0.914788 -0.00232027 0.0
1.02997 -0.00199768 0.0
1.03927 -0.00141917 0.0
1.03886 -0.00360066 0.0
1.01444 -0.00522906 0.0
1.10439 -0.888877 0.0
1.03677 0.0031449 0.0
1.53746 0.369589 0.0
0.937412 0.0472979 0.0
0.98328 0.00843991 0.0
1.03323 -0.00399455 0.0
1.02793 -0.0314557 0.0
1.03232 -0.00144537 0.0
1.03384 0.00138142 0.0
1.04064 -0.00152171 0.0
1.03545 -0.00428363 0.0
1.01258 -0.0439222 0.0
1.02963 -0.0036589 0.0
0.82884 0.031337 0.0
1.03493 0.00363609 0.0
0.873982 0.0289597 0.0
0.929229 -0.00799146 0.0
1.02855 -0.127451 0.0
0.976923 -0.0321165 0.0
1.05443 -0.041448 0.0
1.51323 -0.387407 0.0
0.305974 -0.0440364 0.0
0.979358 -0.0533508 0.0
1.09587 0.314666 0.0
1.05961 -0.0352859 0.0
0.998313 0.294489 0.0
1.42301 -0.160916 0.0
0.896808 -0.513746 0.0
1.33936 0.170272 0.0
1.29468 0.130684 0.0
1.20479 -0.490532 0.0
0.734813 -0.0588796 0.0
1.03479 -0.00363782 0.0
1.2509 -0.386327 0.0
0.794041 0.00688607 0.0
1.32685 -0.036463 0.0
1.43834 0.00412555 0.0
1.03941 0.00392715 0.0
0.727411 -0.0078224 0.0
0.668302 -0.000716156 0.0
0.24911 -0.21419 0.0
0.969088 0.0160912 0.0
0.786635 -0.0373081 0.0
1.02063 -0.06997 0.0
1.10197 0.0931361 0.0
0.869211 0.00222575 0.0
1.0371 -0.00694517 0.0
1.2198 -0.107991 0.0
0.896373 -0.00632089 0.0
0.400547 -0.57264 0.0
1.15975 0.273968 0.0
0.973089 -0.0448792 0.0
0.176585 -0.307584 0.0
0.973635 0.0319434 0.0
1.24298 0.303834 0.0
0.970281 0.0536734 0.0
1.01762 -0.005094 0.0