# vtk DataFile Version 3.0
Malha 2D com triângulos e temperatura
ASCII
DATASET UNSTRUCTURED_GRID

POINTS 688 double
0 0 0
2.2 0 0
2.2 0.41 0
0 0.41 0
0.25 0.2 0
0.05 0 0
0.1 0 0
0.15 0 0
0.2 0 0
0.25 0 0
0.3 0 0
0.35 0 0
0.4 0 0
0.45 0 0
0.5 0 0
0.55 0 0
0.6 0 0
0.65 0 0
0.7 0 0
0.75 0 0
0.8 0 0
0.85 0 0
0.9 0 0
0.95 0 0
1 0 0
1.05 0 0
1.1 0 0
1.15 0 0
1.2 0 0
1.25 0 0
1.3 0 0
1.35 0 0
1.4 0 0
1.45 0 0
1.5 0 0
1.55 0 0
1.6 0 0
1.65 0 0
1.7 0 0
1.75 0 0
1.8 0 0
1.85 0 0
1.9 0 0
1.95 0 0
2 0 0
2.05 0 0
2.1 0 0
2.15 0 0
2.2 0.0455556 0
2.2 0.0911111 0
2.2 0.136667 0
2.2 0.182222 0
2.2 0.227778 0
2.2 0.273333 0
2.2 0.318889 0
2.2 0.364444 0
2.15 0.41 0
2.1 0.41 0
2.05 0.41 0
2 0.41 0
1.95 0.41 0
1.9 0.41 0
1.85 0.41 0
1.8 0.41 0
1.75 0.41 0
1.7 0.41 0
1.65 0.41 0
1.6 0.41 0
1.55 0.41 0
1.5 0.41 0
1.45 0.41 0
1.4 0.41 0
1.35 0.41 0
1.3 0.41 0
1.25 0.41 0
1.2 0.41 0
1.15 0.41 0
1.1 0.41 0
1.05 0.41 0
1 0.41 0
0.95 0.41 0
0.9 0.41 0
0.85 0.41 0
0.8 0.41 0
0.75 0.41 0
0.7 0.41 0
0.65 0.41 0
0.6 0.41 0
0.55 0.41 0
0.5 0.41 0
0.45 0.41 0
0.4 0.41 0
0.35 0.41 0
0.3 0.41 0
0.25 0.41 0
0.2 0.41 0
0.15 0.41 0
0.1 0.41 0
0.05 0.41 0
0 0.364444 0
0 0.318889 0
0 0.273333 0
0 0.227778 0
0 0.182222 0
0 0.136667 0
0 0.0911111 0
0 0.0455556 0
0.248831 0.210749 0
0.245379 0.220994 0
0.239805 0.230259 0
0.232369 0.238108 0
0.22342 0.244176 0
0.213376 0.248177 0
0.202707 0.249927 0
0.191911 0.249341 0
0.181493 0.246449 0
0.171941 0.241384 0
0.1637 0.234385 0
0.157157 0.225778 0
0.152617 0.215965 0
0.150293 0.205406 0
0.150293 0.194594 0
0.152617 0.184035 0
0.157157 0.174222 0
0.1637 0.165615 0
0.171941 0.158616 0
0.181493 0.153551 0
0.191911 0.150659 0
0.202707 0.150073 0
0.213376 0.151823 0
0.22342 0.155824 0
0.232369 0.161892 0
0.239805 0.169741 0
0.245379 0.179006 0
0.248831 0.189251 0
0.421316 0.36725 0
0.426705 0.0366526 0
2.16065 0.209201 0
1.52286 0.0417259 0
0.626017 0.37111 0
1.3257 0.0414552 0
1.02471 0.0432237 0
1.17293 0.0421053 0
0.82501 0.36678 0
1.6757 0.370064 0
1.91628 0.0358195 0
1.82501 0.366432 0
0.723429 0.0421499 0
1.425 0.366699 0
1.97461 0.366224 0
1.12167 0.370137 0
0.975 0.368691 0
0.877672 0.0412714 0
1.27686 0.36884 0
1.725 0.0433013 0
0.579174 0.0416211 0
0.325589 0.363848 0
0.319111 0.0378151 0
0.0394523 0.296111 0
0.0329929 0.11602 0
0.142108 0.187428 0
1.57555 0.364352 0
2.02603 0.0412138 0
0.725007 0.36763 0
0.528647 0.366595 0
1.62699 0.0400272 0
1.82929 0.0421255 0
1.425 0.0418325 0
2.07474 0.364233 0
0.125 0.0433013 0
0.161245 0.155011 0
0.225 0.366699 0
0.210027 0.258536 0
2.16034 0.115449 0
0.0371627 0.204103 0
0.142311 0.212698 0
0.220283 0.0418538 0
0.221965 0.145099 0
0.196802 0.141016 0
0.119851 0.373394 0
0.161112 0.245979 0
0.184892 0.258024 0
2.16342 0.30039 0
2.12627 0.047699 0
0.183325 0.0412617 0
0.152317 0.0762976 0
0.203864 0.0745802 0
0.234384 0.0774346 0
0.215969 0.103585 0
0.245651 0.104548 0
0.186562 0.100216 0
0.268213 0.0793029 0
0.272149 0.109155 0
0.242885 0.159377 0
0.253088 0.128261 0
0.278718 0.13214 0
0.295917 0.115997 0
0.301728 0.138858 0
0.321266 0.12205 0
0.324642 0.151724 0
0.255978 0.181139 0
0.350123 0.129049 0
0.357539 0.159885 0
0.333541 0.181416 0
0.36451 0.19182 0
0.250573 0.230419 0
0.391277 0.169722 0
0.339477 0.212308 0
0.39836 0.205386 0
0.427326 0.18117 0
0.258724 0.206387 0
0.434392 0.219501 0
0.466446 0.193907 0
0.472865 0.243064 0
0.507358 0.209962 0
0.40073 0.238916 0
0.499135 0.1652 0
0.5419 0.179224 0
0.550176 0.22496 0
0.585844 0.194129 0
0.594095 0.240176 0
0.630701 0.209517 0
0.621901 0.162424 0
0.667731 0.178095 0
0.676485 0.226008 0
0.713906 0.194492 0
0.722681 0.242872 0
0.760442 0.211047 0
0.751547 0.162356 0
0.798298 0.179 0
0.807147 0.227866 0
0.845136 0.195775 0
0.854541 0.243285 0
0.892163 0.212344 0
0.902461 0.257947 0
0.93935 0.228684 0
0.930236 0.180167 0
0.977229 0.197066 0
0.986264 0.245777 0
1.02423 0.213991 0
1.0331 0.263172 0
1.07123 0.230975 0
1.06234 0.181814 0
1.10938 0.198721 0
1.09996 0.151012 0
1.14691 0.168161 0
1.15631 0.215921 0
1.19446 0.183678 0
1.20343 0.232645 0
1.2416 0.200322 0
1.23272 0.151117 0
1.2798 0.167954 0
1.28868 0.217167 0
1.32685 0.184862 0
1.33573 0.234064 0
1.3739 0.201768 0
0.789327 0.130094 0
1.38279 0.25097 0
1.42096 0.218674 0
1.41207 0.169471 0
1.45912 0.186378 0
1.46801 0.235581 0
1.50618 0.203285 0
1.51506 0.252489 0
1.55323 0.220192 0
1.54435 0.170989 0
1.5914 0.187896 0
1.60029 0.2371 0
1.63846 0.204803 0
1.64734 0.254007 0
1.68551 0.221711 0
1.67663 0.172507 0
1.72368 0.189415 0
1.73831 0.241548 0
1.77074 0.206322 0
1.76185 0.157121 0
1.8091 0.17428 0
1.81866 0.220885 0
1.85608 0.190621 0
1.86521 0.238879 0
1.90289 0.207671 0
1.91264 0.253772 0
1.94955 0.224093 0
1.94067 0.17593 0
1.98705 0.192828 0
1.99572 0.240997 0
2.0329 0.209382 0
2.02422 0.16161 0
2.04166 0.257286 0
0.419739 0.142889 0
0.968291 0.148058 0
0.310035 0.202211 0
0.316128 0.230863 0
0.658501 0.130052 0
0.685107 0.27445 0
1.34462 0.283266 0
1.16528 0.264896 0
1.84735 0.142081 0
0.557687 0.270604 0
1.21234 0.281769 0
1.58252 0.138692 0
0.533563 0.131933 0
0.489835 0.120004 0
1.45024 0.137174 0
2.06974 0.17785 0
2.06113 0.130713 0
0.283221 0.152215 0
0.921299 0.131169 0
0.343836 0.24295 0
0.319203 0.260002 0
0.235529 0.249617 0
0.347029 0.274099 0
0.291856 0.246297 0
0.295938 0.27548 0
0.272836 0.264931 0
0.27461 0.290522 0
0.251228 0.280224 0
0.253903 0.305808 0
0.232795 0.296709 0
0.298805 0.304058 0
1.0801 0.280176 0
1.47689 0.284785 0
1.05315 0.133468 0
1.09741 0.0970974 0
1.82427 0.272867 0
1.2701 0.118911 0
0.816337 0.277695 0
1.40432 0.121101 0
1.04244 0.320388 0
0.959305 0.103028 0
1.60923 0.286151 0
0.601674 0.286775 0
2.00739 0.280923 0
0.342592 0.0992796 0
0.375237 0.105729 0
1.52511 0.298716 0
1.53114 0.119823 0
0.733824 0.287256 0
0.613372 0.114719 0
0.645558 0.0838585 0
2.015 0.115858 0
1.22718 0.0994086 0
1.39166 0.29817 0
1.3564 0.329754 0
0.744134 0.11556 0
0.782853 0.0841771 0
0.826899 0.10047 0
1.17418 0.314034 0
0.520902 0.0906676 0
1.4967 0.329429 0
1.26048 0.0740437 0
0.365514 0.0716355 0
0.229836 0.121666 0
1.57453 0.09137 0
1.61938 0.110761 0
0.481716 0.0753791 0
0.14093 0.2 0
0.130041 0.192847 0
0.131507 0.178608 0
0.117165 0.184444 0
0.120761 0.164701 0
0.1156 0.199931 0
0.100804 0.174136 0
0.102545 0.153034 0
0.12169 0.143342 0
0.104604 0.13008 0
0.0809304 0.161171 0
0.128077 0.121858 0
0.106825 0.102278 0
0.082498 0.188728 0
0.0314738 0.158621 0
2.04625 0.310891 0
2.08475 0.27479 0
2.11394 0.138117 0
0.233149 0.151108 0
0.258724 0.193613 0
0.268522 0.184917 0
1.65397 0.301059 0
0.145962 0.224912 0
0.132503 0.222267 0
0.13746 0.236947 0
0.120111 0.233525 0
0.126593 0.25219 0
0.105294 0.247497 0
0.113343 0.26868 0
0.133997 0.271734 0
0.121622 0.292031 0
0.147069 0.292141 0
0.0896563 0.267464 0
0.0813699 0.243294 0
0.163574 0.276939 0
0.172694 0.298517 0
0.1583 0.321483 0
0.186823 0.322499 0
0.173113 0.348195 0
0.0322087 0.250839 0
0.211694 0.124337 0
0.250615 0.169546 0
0.256243 0.157787 0
0.170796 0.14736 0
0.156755 0.141654 0
0.17187 0.131161 0
0.147502 0.152323 0
0.198129 0.260662 0
0.206368 0.271663 0
0.220945 0.26864 0
0.190489 0.270628 0
0.198813 0.286731 0
0.55749 0.322277 0
0.520166 0.299321 0
0.235199 0.330709 0
0.267109 0.337524 0
0.172324 0.25256 0
0.255974 0.218859 0
0.268327 0.214994 0
0.184197 0.143083 0
0.188721 0.129954 0
0.209694 0.139146 0
0.269223 0.244007 0
0.252374 0.255244 0
0.282229 0.0410487 0
1.21977 0.330016 0
1.25733 0.296346 0
2.09358 0.0890819 0
0.244373 0.240984 0
0.0838116 0.115786 0
0.0797544 0.0817835 0
0.237449 0.264854 0
0.247178 0.146225 0
0.270136 0.2 0
0.28023 0.191334 0
0.263476 0.170737 0
0.371486 0.368728 0
0.396124 0.330051 0
0.440314 0.325693 0
0.357693 0.329668 0
0.476576 0.362035 0
0.29587 0.222914 0
0.307627 0.175476 0
0.079599 0.0406461 0
0.146062 0.252571 0
0.15162 0.125025 0
0.417223 0.294608 0
0.457089 0.286958 0
0.036619 0.338729 0
0.0713014 0.322193 0
0.0735823 0.36704 0
0.041143 0.0722223 0
0.693501 0.32349 0
0.145406 0.175484 0
0.138777 0.164467 0
0.300367 0.0698839 0
0.167025 0.112083 0
0.146978 0.105544 0
0.151909 0.236762 0
0.444611 0.106436 0
0.909355 0.0817561 0
0.282901 0.370713 0
1.61474 0.330739 0
0.578053 0.368179 0
0.824695 0.0487848 0
2.09634 0.3213 0
2.02276 0.364865 0
2.12532 0.363702 0
1.09789 0.328757 0
0.161137 0.260089 0
2.07793 0.225752 0
2.12079 0.240944 0
2.0747 0.0437362 0
1.89402 0.158846 0
1.93154 0.128738 0
1.8848 0.111477 0
1.8384 0.0926484 0
1.87744 0.0655304 0
1.7913 0.0793874 0
1.9712 0.046671 0
1.92502 0.366682 0
1.94563 0.325156 0
1.89941 0.326645 0
1.87499 0.367178 0
1.84989 0.323491 0
1.7997 0.321303 0
1.77183 0.280326 0
1.75031 0.321965 0
1.77491 0.365615 0
2.11727 0.191885 0
0.883187 0.163467 0
1.71449 0.140266 0
1.667 0.125342 0
1.70591 0.0884759 0
1.67732 0.042286 0
1.52278 0.370513 0
1.37512 0.04128 0
1.34848 0.0834574 0
0.776093 0.367587 0
1.125 0.0433013 0
1.15 0.0866019 0
1.07442 0.0496847 0
0.974527 0.0370837 0
1.47464 0.0427918 0
1.44953 0.0873752 0
1.17595 0.362984 0
1.025 0.366699 0
0.925007 0.367031 0
0.95 0.323404 0
0.897321 0.326356 0
0.874563 0.367261 0
0.846552 0.324465 0
1.62923 0.156667 0
1.32319 0.13033 0
1.69342 0.270472 0
1.49568 0.156227 0
1.56237 0.268721 0
1.44 0.319169 0
1.43005 0.267892 0
1.36502 0.152565 0
0.993446 0.294003 0
1.30179 0.321101 0
1.18235 0.127964 0
1.25016 0.2491 0
1.29638 0.266841 0
1.11824 0.247967 0
1.12945 0.294699 0
1.01527 0.165035 0
0.836192 0.147197 0
1.4998 0.0831488 0
1.00655 0.118664 0
0.872896 0.117126 0
0.70523 0.146383 0
1.96013 0.276645 0
0.769406 0.257102 0
0.699552 0.0908977 0
2.1587 0.162257 0
1.97813 0.145326 0
0.646036 0.302035 0
0.799423 0.326603 0
0.515621 0.255445 0
1.72538 0.366474 0
1.97009 0.0998346 0
1.57108 0.313772 0
0.577925 0.14549 0
0.638911 0.256447 0
0.407352 0.0771641 0
0.525103 0.042511 0
0.674231 0.370698 0
1.69802 0.321701 0
0.56947 0.0908728 0
1.75459 0.110239 0
1.80084 0.126127 0
0.673535 0.0431435 0
1.57391 0.0465733 0
2.04571 0.0828469 0
0.10002 0.225545 0
0.0788152 0.21577 0
0.369719 0.224393 0
0.210352 0.308739 0
1.22342 0.0432967 0
[...]
CELL_DATA 1241
VECTORS velocity double
1.01358 -0.00405662 0.0
1.21732 0.0664961 0.0
0.445184 -0.00176661 0.0
0.944172 0.00197085 0.0
1.04431 0.00558972 0.0
1.42286 0.103162 0.0
1.13507 0.000334771 0.0
0.97909 -0.000685058 0.0
0.36316 0.015827 0.0
1.17962 0.00150755 0.0
1.31247 -0.119983 0.0
1.31627 0.126544 0.0
0.865763 -0.160595 0.0
1.01577 0.00854861 0.0
0.991685 0.00646366 0.0
1.46636 -0.0328903 0.0
0.980092 0.000558661 0.0
0.479612 0.0603817 0.0
1.17286 0.0623728 0.0
1.64766 -0.254206 0.0
1.02162 0.00394718 0.0
1.05945 -0.0663143 0.0
1.03832 -0.000179495 0.0
1.25311 0.904907 0.0
1.07096 -0.00228999 0.0
1.02476 0.00225469 0.0
1.29898 -0.199439 0.0
1.07638 -0.0253996 0.0
1.32175 -0.0836642 0.0
1.46243 -0.0649147 0.0
1.33199 0.0902547 0.0
0.868367 -0.0368796 0.0
1.52046 0.00269711 0.0
1.01439 0.00681683 0.0
1.25685 -0.0565388 0.0
1.35889 0.156967 0.0
1.21283 -0.0553567 0.0
1.05041 -0.167832 0.0
0.359562 0.0205051 0.0
1.3822 0.141365 0.0
1.76449 -0.179818 0.0
1.41326 -0.0454542 0.0
1.05282 -0.237189 0.0
0.500302 0.00647917 0.0
1.39921 -0.167242 0.0
0.496276 -0.00789221 0.0
1.20156 0.0990172 0.0
1.11543 0.0257759 0.0
1.61301 -0.313114 0.0
1.23968 -0.0104572 0.0
1.21535 0.00102171 0.0
1.29083 -0.417497 0.0
0.869518 -0.00363996 0.0
1.40874 -0.082338 0.0
1.77523 -0.279619 0.0
1.51902 -0.028682 0.0
1.15116 -0.0399299 0.0
1.1272 -4.77371e-05 0.0
1.65841 -0.099102 0.0
1.68773 -0.199378 0.0
1.15855 0.847309 0.0
0.993443 -9.92338e-06 0.0
0.195562 0.0358058 0.0
1.02757 0.00645585 0.0
-0.240022 0.0714473 0.0
1.33192 0.227579 0.0
-0.279602 0.0861807 0.0
1.16818 -0.00223142 0.0
0.863389 -0.0258709 0.0
0.218166 0.0244227 0.0
1.16883 -0.00594336 0.0
0.79342 0.0141546 0.0
1.16772 -0.00549899 0.0
0.791701 -0.0137019 0.0
1.2079 0.0069497 0.0
0.881296 0.157088 0.0
0.942996 0.00727107 0.0
1.63144 -0.0465215 0.0
0.979808 -0.034603 0.0
0.613633 0.00122529 0.0
1.75194 -0.383014 0.0
1.1597 -0.246734 0.0
0.658677 0.0118583 0.0
1.26147 -0.227374 0.0
1.34581 0.170069 0.0
0.919412 -0.0667456 0.0
1.20689 0.178018 0.0
0.0860427 0.0984407 0.0
1.83884 0.530394 0.0
1.19338 0.00296168 0.0
1.2721 0.010213 0.0
-0.189664 -0.0110338 0.0
-0.348006 0.0782864 0.0
1.44322 -0.0646149 0.0
1.18242 -0.0406349 0.0
0.984362 0.00144766 0.0
0.849225 -0.0258285 0.0
-0.184465 0.0905966 0.0
1.01861 -0.0113487 0.0
-0.244277 0.112549 0.0
1.08214 -0.0985571 0.0
1.15936 -0.0151647 0.0
0.947615 0.00262602 0.0
1.63916 -0.161268 0.0
1.74234 -0.670641 0.0
1.27316 -0.397902 0.0
1.0713 -0.0619513 0.0
0.498257 -0.0236676 0.0
1.78799 0.649657 0.0
1.22576 0.00319917 0.0
1.48539 -0.109171 0.0
1.23091 0.189658 0.0
0.131609 0.0759962 0.0
1.44146 -0.0270014 0.0
1.08015 0.0148763 0.0
1.44262 0.0400893 0.0
1.41411 0.00474434 0.0
1.39196 0.0529624 0.0
1.06654 -0.0020992 0.0
0.255287 0.0396956 0.0
1.1901 0.0421876 0.0
1.51966 0.581805 0.0
1.2516 0.108205 0.0
0.919986 -0.0634839 0.0
0.726811 -0.0993241 0.0
1.20472 0.0860113 0.0
1.44707 -0.0429161 0.0
1.11894 0.0244815 0.0
1.74956 0.501393 0.0
0.549919 -0.0713179 0.0
1.16617 -0.0152657 0.0
0.622398 -0.00176867 0.0
0.885951 0.0638851 0.0
1.6033 -0.0216134 0.0
1.01942 -0.153217 0.0
-0.276055 0.0745676 0.0
0.123164 0.0625489 0.0
1.22675 0.0821944 0.0
1.04872 -0.025233 0.0
1.66382 -0.761311 0.0
1.50088 0.00357337 0.0
1.03563 0.00601336 0.0
1.07835 -0.245055 0.0
1.00501 0.0069852 0.0
1.5235 0.00720083 0.0
0.0223173 0.0311591 0.0
-0.254476 0.0380633 0.0
-0.182769 0.00601594 0.0
0.642494 0.0153369 0.0
0.653723 -0.0117173 0.0
0.555345 -0.101533 0.0
1.03495 -0.00709311 0.0
1.79633 -0.332614 0.0
1.04784 -0.153371 0.0
1.20282 -0.0491844 0.0
1.20456 0.0544229 0.0
0.481554 -0.00112989 0.0
1.64366 0.0738482 0.0
0.857104 0.0303558 0.0
1.24854 -0.056961 0.0
-0.230504 0.0469693 0.0
1.74047 0.446512 0.0
1.14272 0.00839429 0.0
1.22204 -0.204902 0.0
1.14322 0.0340808 0.0
1.05422 0.130245 0.0
0.981807 -0.000214115 0.0
0.987063 0.109857 0.0
0.56726 -0.00354538 0.0
1.17136 -0.033966 0.0
0.929279 -0.0246575 0.0
1.23599 0.00339574 0.0
1.36547 0.26555 0.0
1.19115 0.0865796 0.0
1.10474 0.00559465 0.0
1.11567 0.00638031 0.0
1.18261 0.198718 0.0
1.12009 -0.287607 0.0
1.11389 0.0120789 0.0
1.16602 -0.225277 0.0
1.11908 0.0090233 0.0
0.363092 0.11023 0.0
1.08768 -0.644368 0.0
0.730584 -0.127093 0.0
1.02543 -0.00852397 0.0
0.765705 -0.0789966 0.0
0.762229 -0.0636712 0.0
1.0277 0.007733 0.0
1.05545 0.0959235 0.0
0.461056 0.0470131 0.0
0.889592 -0.829901 0.0
1.77863 0.345105 0.0
1.02838 -0.00209041 0.0
0.984396 0.00669405 0.0
0.667353 0.0602331 0.0
0.852967 0.0568983 0.0
0.397738 0.0590101 0.0
0.998288 -0.0147486 0.0
1.42771 -0.0322272 0.0
1.44964 0.581448 0.0
1.15458 0.193116 0.0
1.06922 -0.0135374 0.0
1.42685 0.038403 0.0
1.0416 -0.0922767 0.0
1.40113 -0.0914494 0.0
1.436 -0.0446927 0.0
0.48321 0.0244006 0.0
0.662595 0.0125584 0.0
0.900086 -0.0227402 0.0
0.857852 0.0334941 0.0
0.515248 0.0170029 0.0
0.514558 -0.0030829 0.0
1.79011 0.286532 0.0
1.1116 0.0117933 0.0
1.44069 -0.003548 0.0
1.12125 0.012227 0.0
0.731471 -0.0773528 0.0
1.51123 -0.0906498 0.0
1.17569 -0.030496 0.0
1.16402 -0.0133506 0.0
0.833097 -0.0495833 0.0
1.67135 -0.070545 0.0
1.01024 0.0553505 0.0
0.99618 0.0113655 0.0
0.958882 -0.0261616 0.0
1.23427 0.00237643 0.0
1.43555 -0.137295 0.0
1.7298 -0.60087 0.0
1.18403 -0.00553207 0.0
1.20295 -0.0111605 0.0
0.990972 0.000184324 0.0
1.06355 -0.132777 0.0
1.02964 -0.0101737 0.0
0.998041 -0.00669858 0.0
1.25791 0.310859 0.0
1.03831 -0.256621 0.0
1.09395 0.171519 0.0
1.31881 0.132379 0.0
0.743571 -0.106675 0.0
0.355088 -0.0454554 0.0
0.958911 0.0159443 0.0
1.4387 0.0570259 0.0
1.42203 0.918329 0.0
0.682938 -0.0851896 0.0
1.152 -0.017601 0.0
1.70423 0.140349 0.0
1.09691 -0.89856 0.0
0.868425 -0.177617 0.0
1.14139 -0.0374704 0.0
0.560128 -0.00854333 0.0
1.02623 0.0270773 0.0
0.544373 -0.00983493 0.0
1.03243 -0.0049102 0.0
1.22692 0.00279933 0.0
0.616346 -0.0118979 0.0
0.775967 -0.033655 0.0
1.09484 -0.285471 0.0
1.32613 -0.104554 0.0
1.22451 0.000504666 0.0
1.02013 -0.00177914 0.0
1.00263 0.00803452 0.0
0.508127 -0.00589424 0.0
1.22807 0.0056381 0.0
0.737056 -0.0260442 0.0
1.12814 0.04344 0.0
0.994887 -0.00968048 0.0
0.567326 0.00326449 0.0
1.24092 -0.109871 0.0
1.22737 -0.170976 0.0
0.789619 -0.0266187 0.0
1.13954 -0.0652426 0.0
0.582828 0.00178808 0.0
0.983692 -0.0155594 0.0
0.116331 0.0673514 0.0
1.20251 0.000218874 0.0
1.19752 -0.0106126 0.0
0.593077 -0.00393301 0.0
0.942497 -0.194211 0.0
0.988059 -0.0155773 0.0
1.43 0.154407 0.0
1.19925 0.000534635 0.0
1.23524 -0.00156098 0.0
1.22356 -0.170782 0.0
1.23628 -0.00297676 0.0
1.23545 0.000776356 0.0
1.17131 -0.0169207 0.0
0.934704 -0.114502 0.0
0.835802 0.042868 0.0
1.23581 -0.00508952 0.0
1.23351 -0.000801394 0.0
1.22865 -0.00189771 0.0
0.634939 0.0705002 0.0
0.455412 0.00485017 0.0
0.998433 0.00989628 0.0
0.543631 -0.00750738 0.0
1.23405 -0.0057229 0.0
1.00317 -0.0184234 0.0
1.16359 0.00983267 0.0
-0.261361 -0.0268111 0.0
0.966707 -0.0124618 0.0
0.499618 -0.00490421 0.0
1.31887 -0.604719 0.0
1.12249 -0.00695493 0.0
0.971178 -0.0161862 0.0
0.524939 -0.0102803 0.0
1.23422 -0.00332279 0.0
0.868501 0.0407278 0.0
0.530896 0.00170776 0.0
0.993519 -0.0156726 0.0
1.23419 -0.00565653 0.0
1.22744 -0.00265389 0.0
1.23291 -0.00343991 0.0
0.619819 -0.00697737 0.0
0.443922 -0.000107246 0.0
1.23123 -0.00640949 0.0
1.14149 -0.0734133 0.0
1.20544 -0.00705251 0.0
0.601608 0.0101275 0.0
1.18537 -0.00789043 0.0
1.2251 -0.00597838 0.0
1.21226 0.00104509 0.0
1.2363 -0.00733903 0.0
0.465609 -0.00688952 0.0
1.22938 -0.00633683 0.0
1.23115 -0.00674105 0.0
1.22086 -0.00669208 0.0
0.454896 -0.00395779 0.0
1.21772 -0.0032583 0.0
1.18356 -0.00587615 0.0
1.20217 -0.00097542 0.0
1.23359 -0.00744543 0.0
1.17039 -0.157832 0.0
1.12955 0.00165234 0.0
1.2346 -0.00737129 0.0
1.35089 0.668536 0.0
1.21823 -0.00633215 0.0
0.508709 -0.00711408 0.0
1.09781 -0.0219618 0.0
0.562347 0.00823489 0.0
0.595224 -0.00930057 0.0
1.11693 0.00695151 0.0
1.09778 -0.0122062 0.0
1.0716 -0.00760935 0.0
0.533656 -0.00800309 0.0
1.10359 -0.0216256 0.0
1.12374 0.00554074 0.0
1.23169 -0.00773549 0.0
1.07369 0.138962 0.0
1.15505 -0.696806 0.0
0.564147 -0.00465716 0.0
0.522224 -0.00535337 0.0
1.22682 -0.00569118 0.0
1.22853 -0.00810466 0.0
0.620269 -0.0183596 0.0
0.510402 -0.00924977 0.0
1.22399 -0.00491139 0.0
0.992647 0.0164728 0.0
1.16041 0.0113819 0.0
1.15557 -0.0073942 0.0
0.567732 0.00729389 0.0
0.519321 -0.00213934 0.0
1.14338 0.0171661 0.0
0.603861 0.0141312 0.0
0.569824 0.0146013 0.0
1.17275 0.00901519 0.0
0.620599 0.0206842 0.0
0.572528 -0.000749942 0.0
1.2141 -0.00396646 0.0
1.20142 -0.00301708 0.0
0.962313 0.0163295 0.0
1.21007 -0.00163227 0.0
1.18228 -0.0016718 0.0
1.21799 -0.00294581 0.0
0.983178 0.0125713 0.0
1.1518 -0.00233327 0.0
0.608559 0.00581 0.0
0.502187 0.0139736 0.0
0.551976 0.0142237 0.0
0.4671 -0.0078803 0.0
0.533316 0.000934105 0.0
0.557483 -0.0053162 0.0
0.528173 -0.00281675 0.0
0.640464 -0.0137754 0.0
0.540555 -0.00438114 0.0
0.575219 0.0133715 0.0
0.486834 -0.00758298 0.0
0.576989 0.0154876 0.0
0.493875 0.000230401 0.0
0.679194 0.0213016 0.0
0.578776 0.010052 0.0
0.572743 -0.0114547 0.0
0.489346 0.00281323 0.0
0.528662 -0.00222886 0.0
0.510187 0.00790368 0.0
0.61253 -0.00973491 0.0
0.532746 -0.000659817 0.0
0.601834 -0.00763577 0.0
0.559788 -0.0123449 0.0
0.54592 0.00674902 0.0
0.523713 0.000120842 0.0
0.538907 0.00419233 0.0
0.475846 -0.0169847 0.0
0.493432 0.0196988 0.0
0.495103 0.000542204 0.0
0.557358 -0.00714222 0.0
0.494822 0.00307356 0.0
0.646512 -0.0210524 0.0
0.49297 0.0063175 0.0
0.464084 0.00565489 0.0
0.504107 0.00104737 0.0
0.482452 -0.0025833 0.0
1.18057 -0.000894357 0.0
1.16136 -0.00633783 0.0
1.22659 -0.00731769 0.0
1.2241 -0.00492129 0.0
1.22729 -0.00515331 0.0
1.11966 -0.00798555 0.0
1.19776 -0.00705757 0.0
1.17906 -0.00682388 0.0
1.18146 0.0048392 0.0
1.15415 -0.00106533 0.0
1.21027 -0.00796459 0.0
1.21297 -0.00872003 0.0
1.17484 -0.00668331 0.0
1.21911 -0.00358018 0.0
1.19508 -0.00014405 0.0
1.22084 -0.00606082 0.0
1.19378 -0.0072537 0.0
1.15201 0.00196034 0.0
1.21712 -0.00616129 0.0
1.22217 -0.00413837 0.0
1.20725 -0.000716408 0.0
1.2208 -0.00345781 0.0
1.2167 -0.0048422 0.0
1.15631 -0.00897726 0.0
1.22 -0.00170737 0.0
1.19722 -0.00339513 0.0
1.21697 -0.00109567 0.0
1.12076 -0.00154029 0.0
1.19902 -0.00242848 0.0
1.19123 0.00203389 0.0
1.21173 -0.00136647 0.0
1.17546 -0.00154583 0.0
1.21182 -0.00231794 0.0
1.21505 -0.00236752 0.0
1.18483 0.00452933 0.0
1.21517 -0.00131335 0.0
1.20776 -0.00412515 0.0
1.20977 0.000759088 0.0
1.15252 -0.00841709 0.0
1.1773 -0.00255228 0.0
1.21287 0.00053031 0.0
1.20514 -0.00340939 0.0
1.20136 0.00232977 0.0
1.19824 0.00374138 0.0
1.15993 -0.0125186 0.0
1.20987 0.000508186 0.0
1.20636 0.000871883 0.0
1.13783 -0.00600587 0.0
1.19302 -0.00435744 0.0
1.12198 0.00309858 0.0
1.17902 -0.0043783 0.0
1.18891 -0.00394432 0.0
1.20092 -0.00364032 0.0
1.20667 -0.00123361 0.0
1.17479 -0.00448981 0.0
1.20457 -0.00346278 0.0
1.20281 -0.000994582 0.0
1.20452 0.000561375 0.0
1.2008 0.00314141 0.0
1.19734 0.00345774 0.0
1.19431 0.00371095 0.0
1.18336 0.00603908 0.0
1.13595 -0.00637057 0.0
1.0939 0.00787647 0.0
1.17805 0.00708939 0.0
1.20048 0.000943101 0.0
0.577321 -0.00615427 0.0
1.18685 0.00600373 0.0
1.14788 0.0075846 0.0
1.16978 0.00791443 0.0
1.19822 0.00307794 0.0
1.16737 0.00758225 0.0
1.17734 0.00565902 0.0
1.17029 0.000275806 0.0
1.18934 0.00546457 0.0
1.17724 -0.000797476 0.0
1.1336 -0.00528686 0.0
1.13327 -0.00812597 0.0
1.15644 -0.00484483 0.0
1.18579 0.00668757 0.0
1.17408 -0.00413971 0.0
1.18415 0.00343157 0.0
1.16769 -0.00401253 0.0
1.18444 -0.00393541 0.0
1.18807 0.00287415 0.0
1.18138 0.00591068 0.0
0.979329 -0.014432 0.0
1.17219 -0.00359115 0.0
1.17409 0.0078186 0.0
1.14507 0.00911304 0.0
1.18926 -0.00234764 0.0
1.19287 0.000242933 0.0
1.08305 -0.0175712 0.0
1.16452 0.0109331 0.0
1.17812 -0.00354451 0.0
1.14657 0.0149259 0.0
1.18852 2.80268e-06 0.0
1.14956 0.0176031 0.0
1.16706 -0.00432284 0.0
1.19286 -0.00230643 0.0
1.17387 -0.00105113 0.0
1.11937 0.176577 0.0
1.15243 -0.00729761 0.0
1.22324 -0.00968969 0.0
1.16997 0.00950927 0.0
1.17438 0.00122939 0.0
1.15713 -0.0133176 0.0
1.16067 -0.00346896 0.0
1.13918 -0.00295117 0.0
1.16098 -0.00942773 0.0
1.16661 0.00276129 0.0
1.14069 -0.00107244 0.0
1.16163 0.00243851 0.0
1.16318 -0.00669981 0.0
1.16313 -0.00274812 0.0
1.14872 0.0119801 0.0
1.15912 -0.00509564 0.0
0.718781 -0.0204956 0.0
0.972502 0.00525343 0.0
1.14422 0.0142425 0.0
1.14678 0.00948549 0.0
1.15392 -0.00754909 0.0
1.14113 0.0118694 0.0
1.14751 0.0143086 0.0
1.14389 -0.0022335 0.0
1.12653 0.00097062 0.0
1.13886 -0.00300479 0.0
1.13242 0.00105325 0.0
1.12071 0.0120553 0.0
1.157 0.0057556 0.0
1.15138 0.00859717 0.0
0.995507 0.00896356 0.0
1.15249 0.00595318 0.0
1.15696 0.01165 0.0
1.14992 0.0120854 0.0
1.11412 0.015161 0.0
1.13582 0.0156198 0.0
1.15385 0.012602 0.0
1.73544 0.181698 0.0
1.1189 -0.0103919 0.0
1.12694 0.0192213 0.0
1.0992 -0.0220943 0.0
1.1493 0.0217575 0.0
1.14724 0.0160781 0.0
1.11264 -0.0127583 0.0
1.14621 0.0218881 0.0
1.2242 -0.00658448 0.0
1.07023 -0.00949185 0.0
1.09909 0.01519 0.0
1.0962 -0.00678003 0.0
1.30725 0.125985 0.0
1.21952 -0.00538549 0.0
1.0844 -0.0020316 0.0
1.15544 -0.00732572 0.0
1.13984 0.0281006 0.0
1.14652 0.0223596 0.0
1.08881 -0.008412 0.0
1.09343 -0.0271546 0.0
0.981314 -0.0161745 0.0
1.19561 -0.00208936 0.0
1.06631 0.000719384 0.0
1.07587 0.000254351 0.0
1.12034 0.024668 0.0
1.12048 -0.0265467 0.0
1.02973 0.198339 0.0
0.961251 -0.0161491 0.0
1.13604 0.0337267 0.0
0.441962 -0.164338 0.0
1.38221 0.131356 0.0
1.18136 -0.052031 0.0
1.06404 0.0102972 0.0
1.06537 0.0257002 0.0
1.05368 0.036379 0.0
1.22067 -0.00247358 0.0
1.05166 0.0143354 0.0
1.03728 -0.0439769 0.0
1.30216 0.175953 0.0
1.00309 -0.142365 0.0
1.03246 -0.0577126 0.0
1.15145 -0.133248 0.0
1.14958 -0.0131254 0.0
1.09494 -0.0479604 0.0
1.18194 -0.00336934 0.0
0.936015 0.00179721 0.0
1.18096 0.0539719 0.0
1.00751 -0.0138235 0.0
1.23789 -0.101723 0.0
1.21801 -0.00557177 0.0
1.20546 -0.00636938 0.0
1.0547 -0.0199046 0.0
1.39837 -0.567472 0.0
1.13224 0.0834142 0.0
0.99433 -0.0201978 0.0
1.1324 0.0668591 0.0
0.95644 0.00151774 0.0
0.758509 0.0280654 0.0
1.08927 0.0449149 0.0
1.32725 -0.160587 0.0
0.932914 -0.0907402 0.0
1.0984 -0.0395083 0.0
0.632624 -0.556518 0.0
1.11095 -0.0278958 0.0
1.11695 -0.00747259 0.0
1.15426 -0.00791226 0.0
1.39117 -0.139332 0.0
1.07999 0.0600207 0.0
1.18197 -0.00256245 0.0
1.04664 -0.0261519 0.0
1.16338 0.0361082 0.0
0.990017 -0.0183812 0.0
1.34994 -0.771789 0.0
1.22986 0.00437228 0.0
1.17962 0.0513713 0.0
1.20412 0.00277241 0.0
1.12709 -0.000805875 0.0
1.18049 -0.0564182 0.0
1.06591 0.0201061 0.0
1.21089 0.0813947 0.0
1.12238 -0.0075106 0.0
1.1589 0.0440713 0.0
0.954366 0.00189918 0.0
1.15383 0.0109639 0.0
1.1805 -0.531636 0.0
0.660153 -0.00600344 0.0
0.681624 -0.0231011 0.0
0.924421 0.0271124 0.0
1.26622 0.119629 0.0
1.15321 -0.00585613 0.0
1.18203 -0.00462855 0.0
0.607795 0.0101485 0.0
1.20237 -0.00553655 0.0
0.327818 -0.123517 0.0
1.0731 -0.0991661 0.0
0.54965 0.00940113 0.0
0.556296 -0.0106873 0.0
0.899057 0.0402908 0.0
1.15838 -0.00644754 0.0
0.863952 -0.174347 0.0
0.845805 -0.0254093 0.0
1.68893 -0.125105 0.0
0.941768 0.0373786 0.0
1.15296 -0.0104635 0.0
1.15353 -0.0119385 0.0
1.05393 0.00863396 0.0
1.22674 0.00337422 0.0
1.18049 0.00121473 0.0
1.18511 0.348336 0.0
0.621157 0.0172974 0.0
1.02166 0.00185728 0.0
1.36964 -0.0978049 0.0
0.539124 0.00766181 0.0
1.58076 0.56095 0.0
0.93348 -0.041716 0.0
0.795961 -0.0266476 0.0
1.34142 0.0881318 0.0
0.781551 -0.0538031 0.0
0.956623 -0.00144171 0.0
0.668377 -0.116124 0.0
1.15499 -0.0167696 0.0
0.881022 0.099665 0.0
1.13488 -0.0143645 0.0
0.65842 -0.00413342 0.0
1.03086 0.00539524 0.0
0.980302 0.136233 0.0
1.4094 -0.0326297 0.0
0.52269 -0.00359749 0.0
0.636159 -0.0245601 0.0
0.918747 0.805446 0.0
1.11048 -0.000807332 0.0
1.0519 0.0115732 0.0
1.39257 0.0136447 0.0
0.603069 -0.0104443 0.0
1.13144 0.0183748 0.0
1.16664 -0.448606 0.0
0.186485 0.0223942 0.0
0.924786 -0.063228 0.0
1.06998 -0.0832452 0.0
0.735726 0.0239198 0.0
0.518759 0.0178354 0.0
1.64904 0.0364208 0.0
1.15515 -0.00480686 0.0
0.311488 0.0152322 0.0
0.571273 0.024917 0.0
1.14463 -0.00588382 0.0
1.20423 -0.00590975 0.0
1.0034 -0.0190612 0.0
0.937662 0.0623682 0.0
1.20929 0.172607 0.0
0.641122 0.0107731 0.0
1.2081 0.00710959 0.0
0.919205 0.0928301 0.0
1.21027 -0.00912278 0.0
1.38798 -0.59346 0.0
0.510979 0.00132102 0.0
1.45936 -0.129844 0.0
1.10993 0.00852117 0.0
0.948452 -0.014135 0.0
0.621606 0.0903365 0.0
0.991008 0.101829 0.0
0.897477 0.139874 0.0
1.11259 0.00998918 0.0
1.21812 -0.0579249 0.0
1.39921 -0.036934 0.0
0.588086 0.00497914 0.0
0.61208 0.0149487 0.0
1.07279 -0.00361669 0.0
0.404543 -0.0728945 0.0
1.04413 0.0365659 0.0
0.493954 0.00339445 0.0
0.961632 -0.0112756 0.0
1.11144 -0.00429912 0.0
0.939491 -0.0092301 0.0
0.559562 -0.0066574 0.0
0.558404 0.0187616 0.0
0.56935 0.00957252 0.0
0.507427 0.00703152 0.0
0.588496 0.0113601 0.0
1.21071 0.669601 0.0
1.36093 0.0696087 0.0
0.966773 -0.00332025 0.0
0.535756 0.00828233 0.0
0.547208 -0.0125793 0.0
0.700156 0.0249119 0.0
1.1571 -0.0473936 0.0
0.620152 0.00105313 0.0
1.60376 -0.19311 0.0
1.29619 0.0954218 0.0
0.536786 -0.14069 0.0
1.3456 -0.0935772 0.0
1.5268 -0.466861 0.0
1.01125 0.00543549 0.0
1.0918 0.0184091 0.0
1.13951 -0.0121089 0.0
0.959879 0.00373378 0.0
0.837044 -0.689204 0.0
1.02864 -0.00188252 0.0
0.981109 -0.00591031 0.0
1.2048 -0.0133265 0.0
1.12293 -0.034018 0.0
1.64832 -0.000108221 0.0
-0.12097 0.0977108 0.0
0.506197 -0.0686987 0.0
1.33616 0.518186 0.0
1.07235 -0.0118834 0.0
0.609655 -0.0119867 0.0
0.580782 -0.00573703 0.0
0.575473 -0.00614942 0.0
1.2281 0.00529337 0.0
0.633507 0.211182 0.0
1.17446 -0.024314 0.0
0.977519 0.0128041 0.0
0.751025 0.162987 0.0
1.12533 -0.00115371 0.0
0.13789 -0.0096484 0.0
1.19389 0.00526852 0.0
0.566786 0.0207216 0.0
0.564694 -0.0105043 0.0
1.33995 0.0854477 0.0
0.836977 -0.0115674 0.0
1.50626 0.0319544 0.0
0.974848 0.0155629 0.0
0.990557 0.011881 0.0
0.111264 -0.166267 0.0
0.971123 0.0290912 0.0
1.16849 0.0134706 0.0
1.15179 0.0134663 0.0
0.355828 -0.136108 0.0
1.6163 -0.273239 0.0
1.09525 -0.000763882 0.0
1.28741 0.194934 0.0
0.590333 -0.0142144 0.0
0.556887 -0.00790556 0.0
1.12379 -0.0164562 0.0
0.530413 0.0896453 0.0
1.12433 -0.0270033 0.0
0.80985 0.021733 0.0
0.93583 -0.00822927 0.0
1.13067 0.0121741 0.0
0.994744 -0.00278285 0.0
0.201884 -0.0209015 0.0
1.1504 -0.0136312 0.0
0.309738 0.0604692 0.0
1.01004 0.000166301 0.0
0.999374 -0.00358096 0.0
0.577012 -0.0152947 0.0
1.07344 -0.00920347 0.0
1.17446 -0.0245264 0.0
0.947321 0.00135631 0.0
0.992746 -0.0138549 0.0
1.2002 -0.964608 0.0
1.13216 0.0222046 0.0
1.69269 0.486957 0.0
0.54996 -0.016717 0.0
0.539109 0.00659346 0.0
1.16618 0.00661733 0.0
1.22834 -0.00662779 0.0
1.11452 -0.00834639 0.0
1.12314 -0.00153773 0.0
1.18049 0.00665475 0.0
1.1309 0.00624524 0.0
1.21974 -0.00959226 0.0
1.15072 0.0256595 0.0
-0.198498 0.0188097 0.0
1.10402 0.014853 0.0
-0.0254528 0.0286306 0.0
0.664952 -0.0257211 0.0
1.2044 -0.177402 0.0
1.14893 -0.0127774 0.0
1.36843 -0.137911 0.0
1.64629 -0.50244 0.0
0.314249 -0.0181113 0.0
1.21392 -0.0090816 0.0
1.12901 0.272026 0.0
1.3515 -0.0982096 0.0
1.07137 0.305701 0.0
1.70947 0.0869226 0.0
0.975229 -0.542437 0.0
1.37208 0.132339 0.0
1.12212 -0.0164473 0.0
1.28962 -0.480968 0.0
-0.0874455 -0.108026 0.0
1.06104 -0.000124321 0.0
1.31864 -0.394862 0.0
0.491896 -0.00489839 0.0
1.41867 -0.149983 0.0
1.68465 0.198506 0.0
1.09138 0.0137362 0.0
0.387848 0.0157773 0.0
0.71703 0.00183845 0.0
0.267865 -0.22844 0.0
0.957176 0.0459362 0.0
-0.118774 -0.0298946 0.0
1.14641 -0.162341 0.0
1.49643 0.143669 0.0
0.53801 0.00904248 0.0
1.22934 -0.0686935 0.0
0.964084 0.000900973 0.0
1.21919 0.00447696 0.0
0.435143 -0.615499 0.0
1.22864 0.264385 0.0
0.729123 -0.162514 0.0
0.191331 -0.330916 0.0
0.517438 0.160695 0.0
1.3026 0.238506 0.0
0.597873 0.152165 0.0
0.969983 -0.0130317 0.0
1.14156 -0.016827 0.0
1.08282 0.0110593 0.0
1.07692 0.00872438 0.0
0.572789 0.00727594 0.0
0.0235331 0.0819987 0.0
1.3083 0.299797 0.0
0.469325 -0.00215877 0.0
1.10134 0.0104121 0.0
0.264443 0.216294 0.0
0.97267 -0.00601886 0.0