# vtk DataFile Version 3.0
Malha 2D com triângulos e temperatura
ASCII
DATASET UNSTRUCTURED_GRID

POINTS 688 double
0 0 0
2.2 0 0
2.2 0.41 0
0 0.41 0
0.25 0.2 0
0.05 0 0
0.1 0 0
0.15 0 0
0.2 0 0
0.25 0 0
0.3 0 0
0.35 0 0
0.4 0 0
0.45 0 0
0.5 0 0
0.55 0 0
0.6 0 0
0.65 0 0
0.7 0 0
0.75 0 0
0.8 0 0
0.85 0 0
0.9 0 0
0.95 0 0
1 0 0
1.05 0 0
1.1 0 0
1.15 0 0
1.2 0 0
1.25 0 0
1.3 0 0
1.35 0 0
1.4 0 0
1.45 0 0
1.5 0 0
1.55 0 0
1.6 0 0
1.65 0 0
1.7 0 0
1.75 0 0
1.8 0 0
1.85 0 0
1.9 0 0
1.95 0 0
2 0 0
2.05 0 0
2.1 0 0
2.15 0 0
2.2 0.0455556 0
2.2 0.0911111 0
2.2 0.136667 0
2.2 0.182222 0
2.2 0.227778 0
2.2 0.273333 0
2.2 0.318889 0
2.2 0.364444 0
2.15 0.41 0
2.1 0.41 0
2.05 0.41 0
2 0.41 0
1.95 0.41 0
1.9 0.41 0
1.85 0.41 0
1.8 0.41 0
1.75 0.41 0
1.7 0.41 0
1.65 0.41 0
1.6 0.41 0
1.55 0.41 0
1.5 0.41 0
1.45 0.41 0
1.4 0.41 0
1.35 0.41 0
1.3 0.41 0
1.25 0.41 0
1.2 0.41 0
1.15 0.41 0
1.1 0.41 0
1.05 0.41 0
1 0.41 0
0.95 0.41 0
0.9 0.41 0
0.85 0.41 0
0.8 0.41 0
0.75 0.41 0
0.7 0.41 0
0.65 0.41 0
0.6 0.41 0
0.55 0.41 0
0.5 0.41 0
0.45 0.41 0
0.4 0.41 0
0.35 0.41 0
0.3 0.41 0
0.25 0.41 0
0.2 0.41 0
0.15 0.41 0
0.1 0.41 0
0.05 0.41 0
0 0.364444 0
0 0.318889 0
0 0.273333 0
0 0.227778 0
0 0.182222 0
0 0.136667 0
0 0.0911111 0
0 0.0455556 0
0.248831 0.210749 0
0.245379 0.220994 0
0.239805 0.230259 0
0.232369 0.238108 0
0.22342 0.244176 0
0.213376 0.248177 0
0.202707 0.249927 0
0.191911 0.249341 0
0.181493 0.246449 0
0.171941 0.241384 0
0.1637 0.234385 0
0.157157 0.225778 0
0.152617 0.215965 0
0.150293 0.205406 0
0.150293 0.194594 0
0.152617 0.184035 0
0.157157 0.174222 0
0.1637 0.165615 0
0.171941 0.158616 0
0.181493 0.153551 0
0.191911 0.150659 0
0.202707 0.150073 0
0.213376 0.151823 0
0.22342 0.155824 0
0.232369 0.161892 0
0.239805 0.169741 0
0.245379 0.179006 0
0.248831 0.189251 0
0.421316 0.36725 0
0.426705 0.0366526 0
2.16065 0.209201 0
1.52286 0.0417259 0
0.626017 0.37111 0
1.3257 0.0414552 0
1.02471 0.0432237 0
1.17293 0.0421053 0
0.82501 0.36678 0
1.6757 0.370064 0
1.91628 0.0358195 0
1.82501 0.366432 0
0.723429 0.0421499 0
1.425 0.366699 0
1.97461 0.366224 0
1.12167 0.370137 0
0.975 0.368691 0
0.877672 0.0412714 0
1.27686 0.36884 0
1.725 0.0433013 0
0.579174 0.0416211 0
0.325589 0.363848 0
0.319111 0.0378151 0
0.0394523 0.296111 0
0.0329929 0.11602 0
0.142108 0.187428 0
1.57555 0.364352 0
2.02603 0.0412138 0
0.725007 0.36763 0
0.528647 0.366595 0
1.62699 0.0400272 0
1.82929 0.0421255 0
1.425 0.0418325 0
2.07474 0.364233 0
0.125 0.0433013 0
0.161245 0.155011 0
0.225 0.366699 0
0.210027 0.258536 0
2.16034 0.115449 0
0.0371627 0.204103 0
0.142311 0.212698 0
0.220283 0.0418538 0
0.221965 0.145099 0
0.196802 0.141016 0
0.119851 0.373394 0
0.161112 0.245979 0
0.184892 0.258024 0
2.16342 0.30039 0
2.12627 0.047699 0
0.183325 0.0412617 0
0.152317 0.0762976 0
0.203864 0.0745802 0
0.234384 0.0774346 0
0.215969 0.103585 0
0.245651 0.104548 0
0.186562 0.100216 0
0.268213 0.0793029 0
0.272149 0.109155 0
0.242885 0.159377 0
0.253088 0.128261 0
0.278718 0.13214 0
0.295917 0.115997 0
0.301728 0.138858 0
0.321266 0.12205 0
0.324642 0.151724 0
0.255978 0.181139 0
0.350123 0.129049 0
0.357539 0.159885 0
0.333541 0.181416 0
0.36451 0.19182 0
0.250573 0.230419 0
0.391277 0.169722 0
0.339477 0.212308 0
0.39836 0.205386 0
0.427326 0.18117 0
0.258724 0.206387 0
0.434392 0.219501 0
0.466446 0.193907 0
0.472865 0.243064 0
0.507358 0.209962 0
0.40073 0.238916 0
0.499135 0.1652 0
0.5419 0.179224 0
0.550176 0.22496 0
0.585844 0.194129 0
0.594095 0.240176 0
0.630701 0.209517 0
0.621901 0.162424 0
0.667731 0.178095 0
0.676485 0.226008 0
0.713906 0.194492 0
0.722681 0.242872 0
0.760442 0.211047 0
0.751547 0.162356 0
0.798298 0.179 0
0.807147 0.227866 0
0.845136 0.195775 0
0.854541 0.243285 0
0.892163 0.212344 0
0.902461 0.257947 0
0.93935 0.228684 0
0.930236 0.180167 0
0.977229 0.197066 0
0.986264 0.245777 0
1.02423 0.213991 0
1.0331 0.263172 0
1.07123 0.230975 0
1.06234 0.181814 0
1.10938 0.198721 0
1.09996 0.151012 0
1.14691 0.168161 0
1.15631 0.215921 0
1.19446 0.183678 0
1.20343 0.232645 0
1.2416 0.200322 0
1.23272 0.151117 0
1.2798 0.167954 0
1.28868 0.217167 0
1.32685 0.184862 0
1.33573 0.234064 0
1.3739 0.201768 0
0.789327 0.130094 0
1.38279 0.25097 0
1.42096 0.218674 0
1.41207 0.169471 0
1.45912 0.186378 0
1.46801 0.235581 0
1.50618 0.203285 0
1.51506 0.252489 0
1.55323 0.220192 0
1.54435 0.170989 0
1.5914 0.187896 0
1.60029 0.2371 0
1.63846 0.204803 0
1.64734 0.254007 0
1.68551 0.221711 0
1.67663 0.172507 0
1.72368 0.189415 0
1.73831 0.241548 0
1.77074 0.206322 0
1.76185 0.157121 0
1.8091 0.17428 0
1.81866 0.220885 0
1.85608 0.190621 0
1.86521 0.238879 0
1.90289 0.207671 0
1.91264 0.253772 0
1.94955 0.224093 0
1.94067 0.17593 0
1.98705 0.192828 0
1.99572 0.240997 0
2.0329 0.209382 0
2.02422 0.16161 0
2.04166 0.257286 0
0.419739 0.142889 0
0.968291 0.148058 0
0.310035 0.202211 0
0.316128 0.230863 0
0.658501 0.130052 0
0.685107 0.27445 0
1.34462 0.283266 0
1.16528 0.264896 0
1.84735 0.142081 0
0.557687 0.270604 0
1.21234 0.281769 0
1.58252 0.138692 0
0.533563 0.131933 0
0.489835 0.120004 0
1.45024 0.137174 0
2.06974 0.17785 0
2.06113 0.130713 0
0.283221 0.152215 0
0.921299 0.131169 0
0.343836 0.24295 0
0.319203 0.260002 0
0.235529 0.249617 0
0.347029 0.274099 0
0.291856 0.246297 0
0.295938 0.27548 0
0.272836 0.264931 0
0.27461 0.290522 0
0.251228 0.280224 0
0.253903 0.305808 0
0.232795 0.296709 0
0.298805 0.304058 0
1.0801 0.280176 0
1.47689 0.284785 0
1.05315 0.133468 0
1.09741 0.0970974 0
1.82427 0.272867 0
1.2701 0.118911 0
0.816337 0.277695 0
1.40432 0.121101 0
1.04244 0.320388 0
0.959305 0.103028 0
1.60923 0.286151 0
0.601674 0.286775 0
2.00739 0.280923 0
0.342592 0.0992796 0
0.375237 0.105729 0
1.52511 0.298716 0
1.53114 0.119823 0
0.733824 0.287256 0
0.613372 0.114719 0
0.645558 0.0838585 0
2.015 0.115858 0
1.22718 0.0994086 0
1.39166 0.29817 0
1.3564 0.329754 0
0.744134 0.11556 0
0.782853 0.0841771 0
0.826899 0.10047 0
1.17418 0.314034 0
0.520902 0.0906676 0
1.4967 0.329429 0
1.26048 0.0740437 0
0.365514 0.0716355 0
0.229836 0.121666 0
1.57453 0.09137 0
1.61938 0.110761 0
0.481716 0.0753791 0
0.14093 0.2 0
0.130041 0.192847 0
0.131507 0.178608 0
0.117165 0.184444 0
0.120761 0.164701 0
0.1156 0.199931 0
0.100804 0.174136 0
0.102545 0.153034 0
0.12169 0.143342 0
0.104604 0.13008 0
0.0809304 0.161171 0
0.128077 0.121858 0
0.106825 0.102278 0
0.082498 0.188728 0
0.0314738 0.158621 0
2.04625 0.310891 0
2.08475 0.27479 0
2.11394 0.138117 0
0.233149 0.151108 0
0.258724 0.193613 0
0.268522 0.184917 0
1.65397 0.301059 0
0.145962 0.224912 0
0.132503 0.222267 0
0.13746 0.236947 0
0.120111 0.233525 0
0.126593 0.25219 0
0.105294 0.247497 0
0.113343 0.26868 0
0.133997 0.271734 0
0.121622 0.292031 0
0.147069 0.292141 0
0.0896563 0.267464 0
0.0813699 0.243294 0
0.163574 0.276939 0
0.172694 0.298517 0
0.1583 0.321483 0
0.186823 0.322499 0
0.173113 0.348195 0
0.0322087 0.250839 0
0.211694 0.124337 0
0.250615 0.169546 0
0.256243 0.157787 0
0.170796 0.14736 0
0.156755 0.141654 0
0.17187 0.131161 0
0.147502 0.152323 0
0.198129 0.260662 0
0.206368 0.271663 0
0.220945 0.26864 0
0.190489 0.270628 0
0.198813 0.286731 0
0.55749 0.322277 0
0.520166 0.299321 0
0.235199 0.330709 0
0.267109 0.337524 0
0.172324 0.25256 0
0.255974 0.218859 0
0.268327 0.214994 0
0.184197 0.143083 0
0.188721 0.129954 0
0.209694 0.139146 0
0.269223 0.244007 0
0.252374 0.255244 0
0.282229 0.0410487 0
1.21977 0.330016 0
1.25733 0.296346 0
2.09358 0.0890819 0
0.244373 0.240984 0
0.0838116 0.115786 0
0.0797544 0.0817835 0
0.237449 0.264854 0
0.247178 0.146225 0
0.270136 0.2 0
0.28023 0.191334 0
0.263476 0.170737 0
0.371486 0.368728 0
0.396124 0.330051 0
0.440314 0.325693 0
0.357693 0.329668 0
0.476576 0.362035 0
0.29587 0.222914 0
0.307627 0.175476 0
0.079599 0.0406461 0
0.146062 0.252571 0
0.15162 0.125025 0
0.417223 0.294608 0
0.457089 0.286958 0
0.036619 0.338729 0
0.0713014 0.322193 0
0.0735823 0.36704 0
0.041143 0.0722223 0
0.693501 0.32349 0
0.145406 0.175484 0
0.138777 0.164467 0
0.300367 0.0698839 0
0.167025 0.112083 0
0.146978 0.105544 0
0.151909 0.236762 0
0.444611 0.106436 0
0.909355 0.0817561 0
0.282901 0.370713 0
1.61474 0.330739 0
0.578053 0.368179 0
0.824695 0.0487848 0
2.09634 0.3213 0
2.02276 0.364865 0
2.12532 0.363702 0
1.09789 0.328757 0
0.161137 0.260089 0
2.07793 0.225752 0
2.12079 0.240944 0
2.0747 0.0437362 0
1.89402 0.158846 0
1.93154 0.128738 0
1.8848 0.111477 0
1.8384 0.0926484 0
1.87744 0.0655304 0
1.7913 0.0793874 0
1.9712 0.046671 0
1.92502 0.366682 0
1.94563 0.325156 0
1.89941 0.326645 0
1.87499 0.367178 0
1.84989 0.323491 0
1.7997 0.321303 0
1.77183 0.280326 0
1.75031 0.321965 0
1.77491 0.365615 0
2.11727 0.191885 0
0.883187 0.163467 0
1.71449 0.140266 0
1.667 0.125342 0
1.70591 0.0884759 0
1.67732 0.042286 0
1.52278 0.370513 0
1.37512 0.04128 0
1.34848 0.0834574 0
0.776093 0.367587 0
1.125 0.0433013 0
1.15 0.0866019 0
1.07442 0.0496847 0
0.974527 0.0370837 0
1.47464 0.0427918 0
1.44953 0.0873752 0
1.17595 0.362984 0
1.025 0.366699 0
0.925007 0.367031 0
0.95 0.323404 0
0.897321 0.326356 0
0.874563 0.367261 0
0.846552 0.324465 0
1.62923 0.156667 0
1.32319 0.13033 0
1.69342 0.270472 0
1.49568 0.156227 0
1.56237 0.268721 0
1.44 0.319169 0
1.43005 0.267892 0
1.36502 0.152565 0
0.993446 0.294003 0
1.30179 0.321101 0
1.18235 0.127964 0
1.25016 0.2491 0
1.29638 0.266841 0
1.11824 0.247967 0
1.12945 0.294699 0
1.01527 0.165035 0
0.836192 0.147197 0
1.4998 0.0831488 0
1.00655 0.118664 0
0.872896 0.117126 0
0.70523 0.146383 0
1.96013 0.276645 0
0.769406 0.257102 0
0.699552 0.0908977 0
2.1587 0.162257 0
1.97813 0.145326 0
0.646036 0.302035 0
0.799423 0.326603 0
0.515621 0.255445 0
1.72538 0.366474 0
1.97009 0.0998346 0
1.57108 0.313772 0
0.577925 0.14549 0
0.638911 0.256447 0
0.407352 0.0771641 0
0.525103 0.042511 0
0.674231 0.370698 0
1.69802 0.321701 0
0.56947 0.0908728 0
1.75459 0.110239 0
1.80084 0.126127 0
0.673535 0.0431435 0
1.57391 0.0465733 0
2.04571 0.0828469 0
0.10002 0.225545 0
0.0788152 0.21577 0
0.369719 0.224393 0
0.210352 0.308739 0
1.22342 0.0432967 0
[...]
CELL_DATA 1241
VECTORS velocity double
1.13615 -0.00504412 0.0
1.1074 0.0328089 0.0
0.710975 -0.000853903 0.0
1.07381 0.0446594 0.0
1.03257 0.00357873 0.0
1.38383 0.0803189 0.0
1.13282 -0.0348956 0.0
1.18068 -0.0435729 0.0
0.458383 -0.0238276 0.0
1.07932 -0.0245556 0.0
1.31261 -0.118957 0.0
1.31656 0.126514 0.0
0.862781 -0.163815 0.0
1.03349 -0.00158161 0.0
1.02037 0.0017533 0.0
1.40518 -0.00236643 0.0
1.01601 5.61645e-05 0.0
0.4914 0.0691242 0.0
1.08265 0.0264274 0.0
1.62606 -0.230965 0.0
1.01887 -0.00507102 0.0
1.06228 -0.0587042 0.0
1.03192 0.0014145 0.0
1.25552 0.905727 0.0
1.12272 0.0475268 0.0
1.0182 -0.00766178 0.0
1.28146 -0.194349 0.0
1.07562 -0.020264 0.0
1.32188 -0.0828127 0.0
1.40945 -0.0360233 0.0
1.33212 0.0900264 0.0
0.872461 -0.0207268 0.0
1.41505 -0.0382717 0.0
1.03157 -0.00169448 0.0
1.11876 -0.0321093 0.0
1.33314 0.140659 0.0
1.09133 -0.0293669 0.0
1.04958 -0.167939 0.0
0.364453 0.0265199 0.0
1.35448 0.122649 0.0
1.75583 -0.137014 0.0
1.43981 0.00502547 0.0
1.04346 -0.241218 0.0
0.751204 0.00103702 0.0
1.37383 -0.151382 0.0
0.750363 0.000623769 0.0
1.10545 0.0495486 0.0
1.05433 0.00217979 0.0
1.59609 -0.294872 0.0
1.28196 -0.0902092 0.0
1.03485 -0.0348097 0.0
1.28621 -0.418407 0.0
0.931334 -0.037105 0.0
1.26856 -0.0798518 0.0
1.77149 -0.246587 0.0
1.40504 -0.0659076 0.0
1.06164 -0.0119852 0.0
1.13352 -0.0390336 0.0
1.66255 -0.0488242 0.0
1.65929 -0.161138 0.0
1.16044 0.848241 0.0
1.17784 -0.0339246 0.0
0.386082 -0.0885002 0.0
1.02555 -0.00600821 0.0
-0.176934 -0.0424028 0.0
1.33243 0.228025 0.0
-0.183959 0.0719825 0.0
1.05446 -0.0125313 0.0
0.856906 -0.0165522 0.0
0.315593 0.117012 0.0
1.05995 -0.0132834 0.0
0.855878 -0.0402071 0.0
1.06322 -0.0115214 0.0
0.882381 -0.140529 0.0
1.03501 -0.0197361 0.0
0.873594 0.165311 0.0
1.00618 0.00530412 0.0
1.62753 0.0180432 0.0
0.953756 -0.0259584 0.0
0.776054 -0.00253289 0.0
1.74458 -0.363126 0.0
1.14754 -0.248855 0.0
0.801667 0.00370986 0.0
1.24638 -0.222956 0.0
1.34633 0.170468 0.0
0.932865 -0.0660043 0.0
1.13085 0.135881 0.0
0.305347 0.177939 0.0
1.84265 0.51467 0.0
1.03166 -0.0178156 0.0
1.32234 -0.0508062 0.0
-0.150753 0.0256076 0.0
-0.15103 0.0338839 0.0
1.30972 -0.0737813 0.0
1.08336 -0.0107622 0.0
1.17228 -0.0372593 0.0
0.956008 -0.113823 0.0
-0.0232308 -0.0427848 0.0
1.03331 -0.00536841 0.0
-0.0667528 0.106516 0.0
1.08207 -0.0975048 0.0
1.07645 -0.00653152 0.0
1.0048 -0.00103528 0.0
1.65791 -0.130462 0.0
1.74615 -0.664763 0.0
1.2694 -0.399238 0.0
1.12308 -0.179234 0.0
0.59339 0.0620066 0.0
1.79904 0.643239 0.0
1.02907 -0.0312428 0.0
1.33186 -0.135347 0.0
1.14393 0.163874 0.0
0.297861 -0.101521 0.0
1.44165 -0.0264472 0.0
1.06592 0.0199415 0.0
1.4429 0.0402832 0.0
1.34333 0.032868 0.0
1.33669 0.0237108 0.0
1.05442 0.000513578 0.0
0.418625 0.158741 0.0
1.23585 0.00677511 0.0
1.51826 0.579538 0.0
1.12591 0.0570579 0.0
0.936847 -0.0601121 0.0
0.828415 -0.231916 0.0
1.10643 0.0379405 0.0
1.32781 -0.0636047 0.0
1.05707 0.00177631 0.0
1.76594 0.494015 0.0
0.562521 -0.0738658 0.0
1.079 -0.00613941 0.0
0.766726 -0.00540603 0.0
0.907123 0.0599705 0.0
1.52293 0.0302141 0.0
1.02048 -0.122501 0.0
-0.226001 0.00881048 0.0
0.278662 -0.0862127 0.0
1.11653 0.0467246 0.0
1.0228 -0.0247102 0.0
1.66599 -0.757937 0.0
1.50091 0.00382774 0.0
1.04837 -0.000714883 0.0
1.06795 -0.249471 0.0
0.98518 0.016892 0.0
1.53843 0.0820962 0.0
0.189367 0.11446 0.0
-0.260702 -0.0141953 0.0
-0.0444403 0.0529887 0.0
0.806245 0.00555489 0.0
0.80699 -0.0100767 0.0
0.560294 -0.105489 0.0
1.016 -0.0143486 0.0
1.79192 -0.308213 0.0
1.0318 -0.131355 0.0
1.20287 -0.0486574 0.0
1.20446 0.0540826 0.0
0.716906 -0.000788184 0.0
1.56746 0.0261937 0.0
0.936002 0.114483 0.0
1.12035 -0.0332771 0.0
-0.0629972 -0.0306134 0.0
1.73386 0.429288 0.0
1.08397 -0.000380704 0.0
1.22177 -0.204158 0.0
1.06694 0.00707696 0.0
1.05367 0.130238 0.0
1.03717 -0.000914498 0.0
0.987699 0.110831 0.0
0.76928 -0.00236577 0.0
1.08362 -0.00467954 0.0
0.912883 -0.0130502 0.0
1.03374 -0.0281274 0.0
1.34734 0.260206 0.0
1.09409 0.0499103 0.0
1.0674 -0.00279746 0.0
1.07125 -0.00312514 0.0
1.169 0.194175 0.0
1.11488 -0.289873 0.0
1.07611 3.6879e-05 0.0
1.1537 -0.227772 0.0
1.07204 -0.00196065 0.0
0.490567 0.0178512 0.0
1.08726 -0.643599 0.0
0.740573 -0.130108 0.0
1.03553 -0.00329322 0.0
0.776728 -0.0834862 0.0
0.780733 -0.0651308 0.0
1.04157 0.000820735 0.0
1.05563 0.0956802 0.0
0.480138 0.0496754 0.0
0.889242 -0.829109 0.0
1.76693 0.316625 0.0
1.02377 0.00443135 0.0
1.00933 0.00505923 0.0
0.69022 0.0632139 0.0
0.911625 0.153735 0.0
0.399154 0.0632525 0.0
1.05509 -0.010246 0.0
1.42775 -0.0318331 0.0
1.44816 0.580623 0.0
1.15376 0.194178 0.0
1.05559 -0.0196894 0.0
1.4269 0.0383586 0.0
1.07081 -0.214233 0.0
1.24989 -0.0812055 0.0
1.43622 -0.0439701 0.0
0.585857 0.0756837 0.0
0.767584 -0.00206192 0.0
0.881899 -0.0194746 0.0
0.829996 0.0274472 0.0
0.751324 0.00395895 0.0
0.730074 -0.000378633 0.0
1.77503 0.251626 0.0
1.07823 -0.000601862 0.0
1.45153 -0.0876541 0.0
1.07956 0.000853681 0.0
0.924775 -0.0545404 0.0
1.37203 -0.132595 0.0
1.08481 -0.00338245 0.0
1.07558 -0.00732024 0.0
0.83271 -0.0486456 0.0
1.62424 -0.0119278 0.0
1.01632 0.0479534 0.0
1.04957 0.0734915 0.0
0.934891 -0.0282653 0.0
1.03774 -0.0305436 0.0
1.26777 -0.135743 0.0
1.72937 -0.59183 0.0
1.09083 -0.00542569 0.0
1.08561 -0.00550099 0.0
1.04109 -0.000609587 0.0
1.06386 -0.132226 0.0
1.04099 -0.00340314 0.0
1.02611 -0.00161913 0.0
1.2759 0.308032 0.0
1.03064 -0.261625 0.0
1.06732 0.12233 0.0
1.17361 0.0923677 0.0
0.907451 -0.0746063 0.0
0.360641 -0.0473172 0.0
0.965874 0.00859764 0.0
1.439 0.0572948 0.0
1.42521 0.918361 0.0
0.680637 -0.0886797 0.0
1.07698 -0.00545485 0.0
1.68384 0.0817053 0.0
1.09649 -0.897695 0.0
0.862983 -0.181613 0.0
1.05484 -0.0114994 0.0
0.772665 -0.00273716 0.0
1.0294 0.0228121 0.0
0.76666 -0.00375071 0.0
1.04787 -0.0010149 0.0
1.04396 -0.0244445 0.0
0.816548 -0.0383679 0.0
0.803579 -0.0185016 0.0
1.09139 -0.28794 0.0
1.15835 -0.0652271 0.0
1.04775 -0.0250834 0.0
1.01221 -0.00647959 0.0
1.00678 -0.00433392 0.0
0.730328 -0.00231335 0.0
1.03149 -0.0234305 0.0
0.801627 -0.0123422 0.0
1.05723 0.00972185 0.0
1.04467 -0.00330316 0.0
0.773453 0.00201077 0.0
1.119 -0.0650179 0.0
1.15775 -0.222851 0.0
0.827578 -0.0123343 0.0
1.07998 -0.0260157 0.0
0.79593 -0.0158323 0.0
1.03076 -0.00475558 0.0
0.374868 0.188695 0.0
1.0489 -0.0482027 0.0
1.08544 -0.00460947 0.0
0.751345 -0.0264567 0.0
0.95494 -0.195253 0.0
1.02737 -0.00601222 0.0
1.26466 0.135086 0.0
1.05147 -0.0173229 0.0
1.0524 -0.0285688 0.0
1.22353 -0.17 0.0
1.06481 -0.0304537 0.0
1.04176 -0.0359113 0.0
1.08538 0.000536462 0.0
1.00186 -0.0667448 0.0
0.835466 0.0424661 0.0
1.07755 -0.0284609 0.0
1.04776 -0.0364619 0.0
1.05466 -0.0416083 0.0
0.669466 0.0673234 0.0
0.712809 -0.000261923 0.0
1.0074 0.00310755 0.0
0.711612 -0.0252659 0.0
1.0796 -0.0187942 0.0
1.03924 -0.00502224 0.0
1.03989 -0.0127497 0.0
-0.00961581 0.0375818 0.0
1.01996 -0.00609319 0.0
0.750508 -0.000582959 0.0
1.32328 -0.603789 0.0
1.08094 -0.00551999 0.0
1.02566 -0.00545269 0.0
0.759049 -0.0036184 0.0
1.07016 -0.0281355 0.0
0.850011 0.0277473 0.0
0.670316 -0.00715901 0.0
1.03556 -0.00441407 0.0
1.08227 -0.0262537 0.0
1.06248 -0.0411142 0.0
1.0574 -0.0280392 0.0
0.783202 0.0277241 0.0
0.707105 -0.000210439 0.0
1.08913 -0.0240908 0.0
1.07997 -0.0324874 0.0
1.09574 -0.0305281 0.0
0.732862 0.022528 0.0
1.09724 -0.0249835 0.0
1.06955 -0.0199532 0.0
1.04177 -0.041074 0.0
1.08731 -0.0151695 0.0
0.712648 -0.00260957 0.0
1.09121 -0.0188688 0.0
1.08282 -0.0163412 0.0
1.09347 -0.0156531 0.0
0.710008 -0.00163321 0.0
1.06441 -0.0198048 0.0
1.09556 -0.0163456 0.0
1.0547 -0.0516342 0.0
1.08855 -0.0122054 0.0
1.10441 -0.161169 0.0
1.13016 -0.0440193 0.0
1.09079 -0.0104096 0.0
1.35147 0.668878 0.0
1.09301 -0.0115913 0.0
0.75345 -0.00191245 0.0
1.04774 -0.00177418 0.0
0.710216 0.033289 0.0
0.764891 -0.00111962 0.0
1.08827 0.000737648 0.0
1.05411 0.00109909 0.0
1.04251 0.00267368 0.0
0.719985 -0.000701299 0.0
1.05225 -0.00134437 0.0
1.08882 0.000525837 0.0
1.09083 -0.00820487 0.0
1.06718 0.0927298 0.0
1.15704 -0.697147 0.0
0.763224 0.00014098 0.0
0.721972 -6.69912e-05 0.0
1.09142 -0.00653751 0.0
1.09022 -0.0050093 0.0
0.782902 -0.0113357 0.0
0.700888 -0.00417535 0.0
1.09107 -0.0051122 0.0
1.02462 0.00361121 0.0
1.08821 0.000482076 0.0
1.08221 -0.00159856 0.0
0.769065 0.00515146 0.0
0.730064 0.000885609 0.0
1.08585 0.00104153 0.0
0.788332 0.00608408 0.0
0.751893 0.00598545 0.0
1.08797 -0.000282867 0.0
0.795306 0.0116102 0.0
0.759211 0.00216923 0.0
1.09092 -0.00355222 0.0
1.09022 -0.00323889 0.0
1.02438 0.00757046 0.0
1.09069 -0.00227806 0.0
1.08823 -0.00239033 0.0
1.09083 -0.00231532 0.0
1.04065 0.000546598 0.0
1.08511 -0.00231225 0.0
0.790091 0.00669566 0.0
0.712757 0.00716048 0.0
0.767015 0.00448138 0.0
0.718348 -0.00576052 0.0
0.767309 -0.00230734 0.0
0.750139 -8.595e-05 0.0
0.73009 -0.00167749 0.0
0.771533 -0.00311644 0.0
0.784961 -0.00112987 0.0
0.776308 0.00718726 0.0
0.721767 -0.0030021 0.0
0.740713 0.00633686 0.0
0.745173 -0.000292344 0.0
0.738124 0.00848716 0.0
0.720254 0.00143603 0.0
0.722618 -0.00173477 0.0
0.724911 -7.6871e-05 0.0
0.733801 0.000396023 0.0
0.724149 0.00359164 0.0
0.766476 -0.00022036 0.0
0.781729 -7.52768e-06 0.0
0.728911 -0.00133585 0.0
0.737668 -0.00850376 0.0
0.741544 0.00203343 0.0
0.732446 0.000108142 0.0
0.766278 -0.000629395 0.0
0.690347 -0.0071421 0.0
0.712677 0.00856308 0.0
0.712607 0.00169125 0.0
0.724162 -0.000714252 0.0
0.71418 0.00173776 0.0
0.734426 -0.00981503 0.0
0.719849 0.00096314 0.0
0.726786 0.00244712 0.0
0.744925 -0.00132471 0.0
0.739022 -0.00116744 0.0
1.08792 -0.00212354 0.0
1.0836 -0.00162921 0.0
1.09009 -0.00420368 0.0
1.09073 -0.00281415 0.0
1.09095 -0.00325432 0.0
1.07337 -0.00230878 0.0
1.08681 -0.00217642 0.0
1.08428 -0.00192753 0.0
1.08838 -0.00140656 0.0
1.08474 -0.00278123 0.0
1.08832 -0.00322198 0.0
1.08807 -0.00357818 0.0
1.08304 -0.00237913 0.0
1.09036 -0.00203778 0.0
1.08975 -0.00254329 0.0
1.08967 -0.00260176 0.0
1.08629 -0.00226672 0.0
1.08382 -0.00155578 0.0
1.08943 -0.00251905 0.0
1.09037 -0.00215437 0.0
1.09049 -0.00208507 0.0
1.09101 -0.00257612 0.0
1.09123 -0.00446194 0.0
1.08138 -0.0033656 0.0
1.09113 -0.0019544 0.0
1.08967 -0.00102873 0.0
1.09109 -0.00184024 0.0
1.06913 0.000586519 0.0
1.0897 -0.00252125 0.0
1.0892 -0.00180102 0.0
1.09143 -0.00183046 0.0
1.08357 0.000168572 0.0
1.09095 -0.00160291 0.0
1.09114 -0.00143149 0.0
1.08891 -0.00190922 0.0
1.09162 -0.00169118 0.0
1.08861 -0.00141659 0.0
1.09081 -0.00186392 0.0
1.08186 -0.00235396 0.0
1.08348 -0.000142127 0.0
1.09087 -0.00185352 0.0
1.08873 -0.00123272 0.0
1.09029 -0.00187166 0.0
1.09021 -0.00170057 0.0
1.08791 4.93976e-05 0.0
1.09151 -0.00164742 0.0
1.09137 -0.00149048 0.0
1.07761 -0.0010212 0.0
1.08881 -0.00190149 0.0
1.06934 0.0030332 0.0
1.08646 -0.001252 0.0
1.08903 -0.00128038 0.0
1.09037 -0.00192624 0.0
1.09148 -0.00128179 0.0
1.08568 -0.00123309 0.0
1.09075 -0.0016727 0.0
1.09108 -0.0012039 0.0
1.09165 -0.00106322 0.0
1.09094 -0.00124508 0.0
1.09065 -0.00108689 0.0
1.09088 -0.000442852 0.0
1.08912 -0.000171526 0.0
1.07855 -0.00167121 0.0
1.06846 0.00170424 0.0
1.08901 -0.00104821 0.0
1.09134 -0.000991198 0.0
0.763877 0.000464152 0.0
1.08964 -0.000580309 0.0
1.08153 -0.000781586 0.0
1.08634 -0.000282011 0.0
1.09128 -0.000828176 0.0
1.08592 -0.000248614 0.0
1.0902 -0.000139327 0.0
1.08994 -3.14268e-05 0.0
1.09043 -0.00054544 0.0
1.08883 -0.000192287 0.0
1.07559 -0.000717319 0.0
1.07688 -0.00340748 0.0
1.08299 -0.000417947 0.0
1.09017 -0.000258806 0.0
1.08755 -0.000967111 0.0
1.09034 -0.00018428 0.0
1.08579 -0.00112043 0.0
1.08822 -0.00138876 0.0
1.09054 -0.000461939 0.0
1.0904 -6.25885e-05 0.0
1.02728 -0.00653066 0.0
1.08713 -0.000565903 0.0
1.09019 -0.000128187 0.0
1.08036 7.55995e-05 0.0
1.08975 -0.00103391 0.0
1.09053 -0.000728028 0.0
1.04498 -0.000116736 0.0
1.08871 0.000193606 0.0
1.08812 -0.000911786 0.0
1.08255 0.00131175 0.0
1.09012 -0.000784339 0.0
1.08369 0.000380386 0.0
1.08889 0.000289016 0.0
1.09007 -0.000989825 0.0
1.08874 -1.15657e-05 0.0
1.12006 0.177635 0.0
1.08173 -0.00152453 0.0
1.08591 -0.00922635 0.0
1.08999 0.000479951 0.0
1.09013 7.22042e-05 0.0
1.08343 -0.000992071 0.0
1.08497 0.00068302 0.0
1.07553 0.0012603 0.0
1.08475 8.09071e-05 0.0
1.09025 2.60377e-06 0.0
1.07586 0.00309636 0.0
1.0899 4.34163e-05 0.0
1.08834 -0.000126048 0.0
1.0853 0.000581612 0.0
1.0882 0.000430156 0.0
1.08964 -0.00016883 0.0
0.772656 -0.00955615 0.0
1.03764 -0.00364703 0.0
1.08777 0.00105203 0.0
1.08886 0.000500639 0.0
1.08922 -0.000491172 0.0
1.07875 -0.000611632 0.0
1.08363 0.00098222 0.0
1.0892 0.000198781 0.0
1.08886 0.00047941 0.0
1.08895 0.00018216 0.0
1.08915 0.000334586 0.0
1.08814 0.000926516 0.0
1.08953 0.000265689 0.0
1.08908 0.000304761 0.0
1.04823 -0.000577035 0.0
1.08935 0.000269591 0.0
1.08696 -7.06515e-05 0.0
1.08423 -0.000332752 0.0
1.08748 0.00132885 0.0
1.07658 0.00071888 0.0
1.08656 0.000430739 0.0
1.72874 0.122626 0.0
1.08791 -4.77115e-05 0.0
1.08737 0.00168922 0.0
1.08464 -0.00247403 0.0
1.07905 0.000919647 0.0
1.08611 0.000946137 0.0
1.08735 -0.000146714 0.0
1.08314 0.00178553 0.0
1.0727 -0.018465 0.0
1.07672 -0.0092152 0.0
1.05397 0.00124411 0.0
1.0873 -0.000195342 0.0
1.16266 0.0797008 0.0
1.07146 -0.0459191 0.0
1.0541 0.00210999 0.0
1.09306 -0.0127945 0.0
1.08673 0.00370174 0.0
1.07831 0.00167116 0.0
1.08634 -0.000381533 0.0
1.08334 -0.00381874 0.0
1.02967 -0.00576452 0.0
1.05362 -0.0178728 0.0
1.08431 0.00013179 0.0
1.08596 0.000112697 0.0
1.08647 0.00284043 0.0
1.05575 -0.00328342 0.0
1.05176 0.196176 0.0
1.02145 -0.00657443 0.0
1.08626 0.00535341 0.0
0.602527 -0.165827 0.0
1.224 0.108858 0.0
1.08631 -0.0166642 0.0
1.08395 0.00154654 0.0
1.08201 0.00527552 0.0
1.07847 0.00799956 0.0
1.05947 -0.0212147 0.0
1.08117 0.00232874 0.0
1.069 -0.0139499 0.0
1.30222 0.176041 0.0
1.01446 -0.107027 0.0
1.06454 -0.0190223 0.0
1.08541 -0.0854791 0.0
1.07769 -0.00436488 0.0
1.07727 -0.0130621 0.0
1.07641 -0.0500154 0.0
1.05501 0.00086989 0.0
1.09146 0.0176059 0.0
1.07437 -0.0032081 0.0
1.11632 -0.0553635 0.0
1.07669 -0.0408481 0.0
1.08991 -0.0372082 0.0
1.08109 -0.00324207 0.0
1.39491 -0.566941 0.0
1.08621 0.0327868 0.0
1.06945 -0.00444473 0.0
1.08766 0.0240433 0.0
1.06347 0.000485292 0.0
0.796779 0.0117724 0.0
1.08238 0.012572 0.0
1.32755 -0.15969 0.0
1.01154 -0.0505567 0.0
1.07945 -0.00962621 0.0
0.6326 -0.555608 0.0
1.04847 -0.00466338 0.0
1.07146 -0.00387438 0.0
1.07868 -0.00237047 0.0
1.22842 -0.126674 0.0
1.07848 0.0181518 0.0
1.0693 -0.0555068 0.0
1.0784 -0.00461175 0.0
1.08804 0.00631236 0.0
1.0321 -0.00649907 0.0
1.34914 -0.770533 0.0
1.02422 -0.022245 0.0
1.08923 0.013425 0.0
1.05425 -0.0170552 0.0
1.1342 -0.00803461 0.0
1.08642 -0.0212784 0.0
1.11177 0.0933049 0.0
1.11438 0.0598291 0.0
1.08376 -0.00733699 0.0
1.08704 0.0101625 0.0
1.15919 -0.0308972 0.0
1.02464 -0.0153629 0.0
1.18006 -0.531164 0.0
0.774829 0.00163311 0.0
0.776217 -0.00876708 0.0
1.05052 0.0101046 0.0
1.13792 0.0724424 0.0
1.08997 -0.00802236 0.0
1.08964 -0.00405013 0.0
0.725298 0.000937019 0.0
1.09188 -0.00672638 0.0
0.610363 -0.129336 0.0
1.05834 -0.0500507 0.0
0.790627 0.00261641 0.0
0.786785 -0.0115494 0.0
1.03799 0.0142101 0.0
1.08016 -0.00139857 0.0
0.856298 -0.180642 0.0
0.970648 -0.00904095 0.0
1.64751 -0.0818664 0.0
0.905195 0.0356115 0.0
1.07738 -0.0576375 0.0
1.08499 -0.0582159 0.0
1.05332 -0.000723029 0.0
1.02622 -0.0255726 0.0
1.07929 -0.0187085 0.0
1.18599 0.349403 0.0
0.715483 0.0027921 0.0
1.02687 0.000360583 0.0
1.21312 -0.0752989 0.0
0.743723 0.00194505 0.0
1.57837 0.556319 0.0
1.04581 -0.0158512 0.0
1.00615 -0.0116828 0.0
1.22567 0.0886493 0.0
0.988589 -0.0183675 0.0
1.00636 0.00220024 0.0
0.7459 -0.244872 0.0
1.08718 -0.000469138 0.0
0.897663 0.09235 0.0
1.08759 -0.000171339 0.0
0.953389 0.00165173 0.0
1.02231 -0.00347481 0.0
1.03088 0.075592 0.0
1.40446 -0.127613 0.0
0.727622 -0.00209327 0.0
0.926296 -0.00223995 0.0
0.920194 0.80686 0.0
1.14261 -0.0481822 0.0
1.01522 0.0197703 0.0
1.32264 -0.00671477 0.0
0.717512 -0.00219886 0.0
1.07737 0.00272893 0.0
1.16635 -0.44806 0.0
0.188828 0.0231798 0.0
1.03598 -0.0224975 0.0
1.06092 -0.0389504 0.0
0.760941 0.0107647 0.0
0.853212 0.0291457 0.0
1.56251 -0.0249288 0.0
1.08669 -0.00398731 0.0
0.310464 0.0151189 0.0
0.89619 0.0288071 0.0
1.07451 0.0028605 0.0
1.09309 -0.00930008 0.0
1.03707 -0.00655519 0.0
1.04264 0.0283064 0.0
1.19432 0.167089 0.0
0.766404 0.000704833 0.0
1.03829 -0.0201598 0.0
1.02831 0.0395953 0.0
1.08168 -0.0101955 0.0
1.38622 -0.592811 0.0
0.753246 -0.00368747 0.0
1.30094 -0.14636 0.0
1.07039 -0.00103103 0.0
1.04917 -0.00676796 0.0
0.640303 0.093174 0.0
1.04577 0.0558039 0.0
0.895047 0.144214 0.0
1.07445 0.00130017 0.0
1.09299 -0.0284192 0.0
1.39963 -0.0361496 0.0
0.764375 0.00390081 0.0
0.778634 0.00873694 0.0
1.17504 -0.0193419 0.0
0.405615 -0.0755535 0.0
1.00227 0.0361122 0.0
0.712198 0.00143992 0.0
1.13592 -0.0268566 0.0
1.13403 -0.0472338 0.0
1.02239 -0.00153354 0.0
0.768099 -0.00351269 0.0
0.762952 0.0058284 0.0
0.778948 0.00596115 0.0
0.743723 -0.000595584 0.0
0.78569 0.002199 0.0
1.21213 0.670102 0.0
1.31761 0.0474881 0.0
1.01363 -0.00287762 0.0
0.783056 0.0043622 0.0
0.786553 -0.00464645 0.0
0.77157 0.00634201 0.0
1.06016 -0.0213535 0.0
0.764058 -0.00426098 0.0
1.62348 -0.17102 0.0
1.1793 0.0878491 0.0
0.780318 -0.0830711 0.0
1.18408 -0.0637656 0.0
1.51897 -0.460175 0.0
1.03058 -0.00138223 0.0
1.01886 -0.0106504 0.0
1.08788 -3.09073e-05 0.0
1.03419 -0.00318104 0.0
0.836848 -0.688374 0.0
1.03331 -0.00182573 0.0
1.02414 -0.00489146 0.0
1.08435 -0.00659033 0.0
1.05069 -0.00812751 0.0
1.54842 -0.061826 0.0
0.248691 0.171952 0.0
0.809159 -0.0509184 0.0
1.33651 0.518637 0.0
1.08656 -0.0214137 0.0
0.793299 -0.00571345 0.0
0.776735 -0.00370913 0.0
0.773574 -0.00400859 0.0
1.02897 -0.0214822 0.0
0.801528 0.186921 0.0
1.08318 -0.00139114 0.0
1.02931 0.00561479 0.0
0.858346 0.198823 0.0
1.0803 -0.00277443 0.0
0.615297 -0.00984762 0.0
1.02957 -0.0169059 0.0
0.76458 0.00776072 0.0
0.769881 -0.00626999 0.0
1.36734 0.181503 0.0
0.979964 0.0106853 0.0
1.50358 0.118135 0.0
1.03222 0.00391157 0.0
1.04292 0.00044266 0.0
0.549302 -0.0522778 0.0
0.967794 -0.00182214 0.0
1.08767 0.000681843 0.0
1.0845 0.000180031 0.0
0.517729 -0.233801 0.0
1.63426 -0.255204 0.0
1.06204 0.000224783 0.0
1.18376 0.174526 0.0
0.784442 -0.00706751 0.0
0.766048 -0.00303393 0.0
1.09961 -0.0675398 0.0
0.843547 0.0818804 0.0
1.08535 -0.00220347 0.0
0.818704 0.00545713 0.0
0.996201 -0.00551934 0.0
1.07718 0.000263764 0.0
1.04709 -0.00270003 0.0
0.203743 -0.0220874 0.0
1.07755 -0.00441618 0.0
0.406423 0.00989351 0.0
1.05007 -0.00194859 0.0
1.12717 -0.0128716 0.0
0.777467 -0.00497989 0.0
1.04496 0.000990125 0.0
1.08357 -0.00103283 0.0
1.02082 0.000707366 0.0
1.02776 -0.00481239 0.0
1.19985 -0.963687 0.0
1.07354 0.00329216 0.0
1.68671 0.475584 0.0
0.764725 0.00288555 0.0
0.781739 0.00872801 0.0
1.08647 -0.000812674 0.0
1.0897 -0.00545958 0.0
1.06954 -0.000734634 0.0
1.07003 0.00112644 0.0
1.08859 -0.00108641 0.0
1.08192 -0.00233453 0.0
1.08649 -0.00781805 0.0
1.07693 0.0022196 0.0
0.32997 0.0232857 0.0
1.05761 9.55893e-05 0.0
0.429338 0.0480011 0.0
0.79732 -0.0177515 0.0
1.1357 -0.216433 0.0
1.07002 -0.00723212 0.0
1.20586 -0.113024 0.0
1.63904 -0.493657 0.0
0.313112 -0.0180798 0.0
1.08008 -0.0118584 0.0
1.12129 0.276957 0.0
1.19347 -0.0712129 0.0
1.07216 0.30675 0.0
1.68058 0.0180257 0.0
0.97497 -0.541612 0.0
1.37251 0.132568 0.0
1.15721 0.00167546 0.0
1.28868 -0.480753 0.0
0.260917 -0.169311 0.0
1.0493 -0.000958201 0.0
1.31244 -0.395834 0.0
0.739773 -0.0128124 0.0
1.38901 -0.132375 0.0
1.64864 0.15925 0.0
1.06854 0.00297699 0.0
0.64869 0.00229131 0.0
0.717507 0.00290739 0.0
0.267988 -0.227191 0.0
0.920029 0.0366048 0.0
0.291845 -0.0881188 0.0
1.08634 -0.154467 0.0
1.33245 0.156067 0.0
0.716705 0.00521043 0.0
1.10327 -0.0321416 0.0
1.14896 -0.0280443 0.0
1.02737 -0.0183161 0.0
0.435138 -0.614666 0.0
1.22944 0.265177 0.0
0.860204 -0.135531 0.0
0.191206 -0.330035 0.0
0.799109 0.108838 0.0
1.30258 0.239128 0.0
0.82294 0.145863 0.0
1.00694 -0.00786643 0.0
1.07538 -0.00423135 0.0