# vtk DataFile Version 3.0
Malha 2D com triângulos e temperatura
ASCII
DATASET UNSTRUCTURED_GRID

POINTS 688 double
0 0 0
2.2 0 0
2.2 0.41 0
0 0.41 0
0.25 0.2 0
0.05 0 0
0.1 0 0
0.15 0 0
0.2 0 0
0.25 0 0
0.3 0 0
0.35 0 0
0.4 0 0
0.45 0 0
0.5 0 0
0.55 0 0
0.6 0 0
0.65 0 0
0.7 0 0
0.75 0 0
0.8 0 0
0.85 0 0
0.9 0 0
0.95 0 0
1 0 0
1.05 0 0
1.1 0 0
1.15 0 0
1.2 0 0
1.25 0 0
1.3 0 0
1.35 0 0
1.4 0 0
1.45 0 0
1.5 0 0
1.55 0 0
1.6 0 0
1.65 0 0
1.7 0 0
1.75 0 0
1.8 0 0
1.85 0 0
1.9 0 0
1.95 0 0
2 0 0
2.05 0 0
2.1 0 0
2.15 0 0
2.2 0.0455556 0
2.2 0.0911111 0
2.2 0.136667 0
2.2 0.182222 0
2.2 0.227778 0
2.2 0.273333 0
2.2 0.318889 0
2.2 0.364444 0
2.15 0.41 0
2.1 0.41 0
2.05 0.41 0
2 0.41 0
1.95 0.41 0
1.9 0.41 0
1.85 0.41 0
1.8 0.41 0
1.75 0.41 0
1.7 0.41 0
1.65 0.41 0
1.6 0.41 0
1.55 0.41 0
1.5 0.41 0
1.45 0.41 0
1.4 0.41 0
1.35 0.41 0
1.3 0.41 0
1.25 0.41 0
1.2 0.41 0
1.15 0.41 0
1.1 0.41 0
1.05 0.41 0
1 0.41 0
0.95 0.41 0
0.9 0.41 0
0.85 0.41 0
0.8 0.41 0
0.75 0.41 0
0.7 0.41 0
0.65 0.41 0
0.6 0.41 0
0.55 0.41 0
0.5 0.41 0
0.45 0.41 0
0.4 0.41 0
0.35 0.41 0
0.3 0.41 0
0.25 0.41 0
0.2 0.41 0
0.15 0.41 0
0.1 0.41 0
0.05 0.41 0
0 0.364444 0
0 0.318889 0
0 0.273333 0
0 0.227778 0
0 0.182222 0
0 0.136667 0
0 0.0911111 0
0 0.0455556 0
0.248831 0.210749 0
0.245379 0.220994 0
0.239805 0.230259 0
0.232369 0.238108 0
0.22342 0.244176 0
0.213376 0.248177 0
0.202707 0.249927 0
0.191911 0.249341 0
0.181493 0.246449 0
0.171941 0.241384 0
0.1637 0.234385 0
0.157157 0.225778 0
0.152617 0.215965 0
0.150293 0.205406 0
0.150293 0.194594 0
0.152617 0.184035 0
0.157157 0.174222 0
0.1637 0.165615 0
0.171941 0.158616 0
0.181493 0.153551 0
0.191911 0.150659 0
0.202707 0.150073 0
0.213376 0.151823 0
0.22342 0.155824 0
0.232369 0.161892 0
0.239805 0.169741 0
0.245379 0.179006 0
0.248831 0.189251 0
0.421316 0.36725 0
0.426705 0.0366526 0
2.16065 0.209201 0
1.52286 0.0417259 0
0.626017 0.37111 0
1.3257 0.0414552 0
1.02471 0.0432237 0
1.17293 0.0421053 0
0.82501 0.36678 0
1.6757 0.370064 0
1.91628 0.0358195 0
1.82501 0.366432 0
0.723429 0.0421499 0
1.425 0.366699 0
1.97461 0.366224 0
1.12167 0.370137 0
0.975 0.368691 0
0.877672 0.0412714 0
1.27686 0.36884 0
1.725 0.0433013 0
0.579174 0.0416211 0
0.325589 0.363848 0
0.319111 0.0378151 0
0.0394523 0.296111 0
0.0329929 0.11602 0
0.142108 0.187428 0
1.57555 0.364352 0
2.02603 0.0412138 0
0.725007 0.36763 0
0.528647 0.366595 0
1.62699 0.0400272 0
1.82929 0.0421255 0
1.425 0.0418325 0
2.07474 0.364233 0
0.125 0.0433013 0
0.161245 0.155011 0
0.225 0.366699 0
0.210027 0.258536 0
2.16034 0.115449 0
0.0371627 0.204103 0
0.142311 0.212698 0
0.220283 0.0418538 0
0.221965 0.145099 0
0.196802 0.141016 0
0.119851 0.373394 0
0.161112 0.245979 0
0.184892 0.258024 0
2.16342 0.30039 0
2.12627 0.047699 0
0.183325 0.0412617 0
0.152317 0.0762976 0
0.203864 0.0745802 0
0.234384 0.0774346 0
0.215969 0.103585 0
0.245651 0.104548 0
0.186562 0.100216 0
0.268213 0.0793029 0
0.272149 0.109155 0
0.242885 0.159377 0
0.253088 0.128261 0
0.278718 0.13214 0
0.295917 0.115997 0
0.301728 0.138858 0
0.321266 0.12205 0
0.324642 0.151724 0
0.255978 0.181139 0
0.350123 0.129049 0
0.357539 0.159885 0
0.333541 0.181416 0
0.36451 0.19182 0
0.250573 0.230419 0
0.391277 0.169722 0
0.339477 0.212308 0
0.39836 0.205386 0
0.427326 0.18117 0
0.258724 0.206387 0
0.434392 0.219501 0
0.466446 0.193907 0
0.472865 0.243064 0
0.507358 0.209962 0
0.40073 0.238916 0
0.499135 0.1652 0
0.5419 0.179224 0
0.550176 0.22496 0
0.585844 0.194129 0
0.594095 0.240176 0
0.630701 0.209517 0
0.621901 0.162424 0
0.667731 0.178095 0
0.676485 0.226008 0
0.713906 0.194492 0
0.722681 0.242872 0
0.760442 0.211047 0
0.751547 0.162356 0
0.798298 0.179 0
0.807147 0.227866 0
0.845136 0.195775 0
0.854541 0.243285 0
0.892163 0.212344 0
0.902461 0.257947 0
0.93935 0.228684 0
0.930236 0.180167 0
0.977229 0.197066 0
0.986264 0.245777 0
1.02423 0.213991 0
1.0331 0.263172 0
1.07123 0.230975 0
1.06234 0.181814 0
1.10938 0.198721 0
1.09996 0.151012 0
1.14691 0.168161 0
1.15631 0.215921 0
1.19446 0.183678 0
1.20343 0.232645 0
1.2416 0.200322 0
1.23272 0.151117 0
1.2798 0.167954 0
1.28868 0.217167 0
1.32685 0.184862 0
1.33573 0.234064 0
1.3739 0.201768 0
0.789327 0.130094 0
1.38279 0.25097 0
1.42096 0.218674 0
1.41207 0.169471 0
1.45912 0.186378 0
1.46801 0.235581 0
1.50618 0.203285 0
1.51506 0.252489 0
1.55323 0.220192 0
1.54435 0.170989 0
1.5914 0.187896 0
1.60029 0.2371 0
1.63846 0.204803 0
1.64734 0.254007 0
1.68551 0.221711 0
1.67663 0.172507 0
1.72368 0.189415 0
1.73831 0.241548 0
1.77074 0.206322 0
1.76185 0.157121 0
1.8091 0.17428 0
1.81866 0.220885 0
1.85608 0.190621 0
1.86521 0.238879 0
1.90289 0.207671 0
1.91264 0.253772 0
1.94955 0.224093 0
1.94067 0.17593 0
1.98705 0.192828 0
1.99572 0.240997 0
2.0329 0.209382 0
2.02422 0.16161 0
2.04166 0.257286 0
0.419739 0.142889 0
0.968291 0.148058 0
0.310035 0.202211 0
0.316128 0.230863 0
0.658501 0.130052 0
0.685107 0.27445 0
1.34462 0.283266 0
1.16528 0.264896 0
1.84735 0.142081 0
0.557687 0.270604 0
1.21234 0.281769 0
1.58252 0.138692 0
0.533563 0.131933 0
0.489835 0.120004 0
1.45024 0.137174 0
2.06974 0.17785 0
2.06113 0.130713 0
0.283221 0.152215 0
0.921299 0.131169 0
0.343836 0.24295 0
0.319203 0.260002 0
0.235529 0.249617 0
0.347029 0.274099 0
0.291856 0.246297 0
0.295938 0.27548 0
0.272836 0.264931 0
0.27461 0.290522 0
0.251228 0.280224 0
0.253903 0.305808 0
0.232795 0.296709 0
0.298805 0.304058 0
1.0801 0.280176 0
1.47689 0.284785 0
1.05315 0.133468 0
1.09741 0.0970974 0
1.82427 0.272867 0
1.2701 0.118911 0
0.816337 0.277695 0
1.40432 0.121101 0
1.04244 0.320388 0
0.959305 0.103028 0
1.60923 0.286151 0
0.601674 0.286775 0
2.00739 0.280923 0
0.342592 0.0992796 0
0.375237 0.105729 0
1.52511 0.298716 0
1.53114 0.119823 0
0.733824 0.287256 0
0.613372 0.114719 0
0.645558 0.0838585 0
2.015 0.115858 0
1.22718 0.0994086 0
1.39166 0.29817 0
1.3564 0.329754 0
0.744134 0.11556 0
0.782853 0.0841771 0
0.826899 0.10047 0
1.17418 0.314034 0
0.520902 0.0906676 0
1.4967 0.329429 0
1.26048 0.0740437 0
0.365514 0.0716355 0
0.229836 0.121666 0
1.57453 0.09137 0
1.61938 0.110761 0
0.481716 0.0753791 0
0.14093 0.2 0
0.130041 0.192847 0
0.131507 0.178608 0
0.117165 0.184444 0
0.120761 0.164701 0
0.1156 0.199931 0
0.100804 0.174136 0
0.102545 0.153034 0
0.12169 0.143342 0
0.104604 0.13008 0
0.0809304 0.161171 0
0.128077 0.121858 0
0.106825 0.102278 0
0.082498 0.188728 0
0.0314738 0.158621 0
2.04625 0.310891 0
2.08475 0.27479 0
2.11394 0.138117 0
0.233149 0.151108 0
0.258724 0.193613 0
0.268522 0.184917 0
1.65397 0.301059 0
0.145962 0.224912 0
0.132503 0.222267 0
0.13746 0.236947 0
0.120111 0.233525 0
0.126593 0.25219 0
0.105294 0.247497 0
0.113343 0.26868 0
0.133997 0.271734 0
0.121622 0.292031 0
0.147069 0.292141 0
0.0896563 0.267464 0
0.0813699 0.243294 0
0.163574 0.276939 0
0.172694 0.298517 0
0.1583 0.321483 0
0.186823 0.322499 0
0.173113 0.348195 0
0.0322087 0.250839 0
0.211694 0.124337 0
0.250615 0.169546 0
0.256243 0.157787 0
0.170796 0.14736 0
0.156755 0.141654 0
0.17187 0.131161 0
0.147502 0.152323 0
0.198129 0.260662 0
0.206368 0.271663 0
0.220945 0.26864 0
0.190489 0.270628 0
0.198813 0.286731 0
0.55749 0.322277 0
0.520166 0.299321 0
0.235199 0.330709 0
0.267109 0.337524 0
0.172324 0.25256 0
0.255974 0.218859 0
0.268327 0.214994 0
0.184197 0.143083 0
0.188721 0.129954 0
0.209694 0.139146 0
0.269223 0.244007 0
0.252374 0.255244 0
0.282229 0.0410487 0
1.21977 0.330016 0
1.25733 0.296346 0
2.09358 0.0890819 0
0.244373 0.240984 0
0.0838116 0.115786 0
0.0797544 0.0817835 0
0.237449 0.264854 0
0.247178 0.146225 0
0.270136 0.2 0
0.28023 0.191334 0
0.263476 0.170737 0
0.371486 0.368728 0
0.396124 0.330051 0
0.440314 0.325693 0
0.357693 0.329668 0
0.476576 0.362035 0
0.29587 0.222914 0
0.307627 0.175476 0
0.079599 0.0406461 0
0.146062 0.252571 0
0.15162 0.125025 0
0.417223 0.294608 0
0.457089 0.286958 0
0.036619 0.338729 0
0.0713014 0.322193 0
0.0735823 0.36704 0
0.041143 0.0722223 0
0.693501 0.32349 0
0.145406 0.175484 0
0.138777 0.164467 0
0.300367 0.0698839 0
0.167025 0.112083 0
0.146978 0.105544 0
0.151909 0.236762 0
0.444611 0.106436 0
0.909355 0.0817561 0
0.282901 0.370713 0
1.61474 0.330739 0
0.578053 0.368179 0
0.824695 0.0487848 0
2.09634 0.3213 0
2.02276 0.364865 0
2.12532 0.363702 0
1.09789 0.328757 0
0.161137 0.260089 0
2.07793 0.225752 0
2.12079 0.240944 0
2.0747 0.0437362 0
1.89402 0.158846 0
1.93154 0.128738 0
1.8848 0.111477 0
1.8384 0.0926484 0
1.87744 0.0655304 0
1.7913 0.0793874 0
1.9712 0.046671 0
1.92502 0.366682 0
1.94563 0.325156 0
1.89941 0.326645 0
1.87499 0.367178 0
1.84989 0.323491 0
1.7997 0.321303 0
1.77183 0.280326 0
1.75031 0.321965 0
1.77491 0.365615 0
2.11727 0.191885 0
0.883187 0.163467 0
1.71449 0.140266 0
1.667 0.125342 0
1.70591 0.0884759 0
1.67732 0.042286 0
1.52278 0.370513 0
1.37512 0.04128 0
1.34848 0.0834574 0
0.776093 0.367587 0
1.125 0.0433013 0
1.15 0.0866019 0
1.07442 0.0496847 0
0.974527 0.0370837 0
1.47464 0.0427918 0
1.44953 0.0873752 0
1.17595 0.362984 0
1.025 0.366699 0
0.925007 0.367031 0
0.95 0.323404 0
0.897321 0.326356 0
0.874563 0.367261 0
0.846552 0.324465 0
1.62923 0.156667 0
1.32319 0.13033 0
1.69342 0.270472 0
1.49568 0.156227 0
1.56237 0.268721 0
1.44 0.319169 0
1.43005 0.267892 0
1.36502 0.152565 0
0.993446 0.294003 0
1.30179 0.321101 0
1.18235 0.127964 0
1.25016 0.2491 0
1.29638 0.266841 0
1.11824 0.247967 0
1.12945 0.294699 0
1.01527 0.165035 0
0.836192 0.147197 0
1.4998 0.0831488 0
1.00655 0.118664 0
0.872896 0.117126 0
0.70523 0.146383 0
1.96013 0.276645 0
0.769406 0.257102 0
0.699552 0.0908977 0
2.1587 0.162257 0
1.97813 0.145326 0
0.646036 0.302035 0
0.799423 0.326603 0
0.515621 0.255445 0
1.72538 0.366474 0
1.97009 0.0998346 0
1.57108 0.313772 0
0.577925 0.14549 0
0.638911 0.256447 0
0.407352 0.0771641 0
0.525103 0.042511 0
0.674231 0.370698 0
1.69802 0.321701 0
0.56947 0.0908728 0
1.75459 0.110239 0
1.80084 0.126127 0
0.673535 0.0431435 0
1.57391 0.0465733 0
2.04571 0.0828469 0
0.10002 0.225545 0
0.0788152 0.21577 0
0.369719 0.224393 0
0.210352 0.308739 0
1.22342 0.0432967 0
[...]
CELL_DATA 1241
VECTORS velocity double
1.03177 -0.00307374 0.0
1.20535 0.0682134 0.0
0.513171 0.000150912 0.0
0.970929 0.00568758 0.0
1.03255 0.00888624 0.0
1.42125 0.101394 0.0
1.126 -0.00106887 0.0
1.00044 -0.00134651 0.0
0.367057 0.0148126 0.0
1.15583 0.000608903 0.0
1.31249 -0.120027 0.0
1.31627 0.126396 0.0
0.86578 -0.160555 0.0
1.01497 0.00404898 0.0
0.992431 0.00731642 0.0
1.4639 -0.030524 0.0
0.982389 0.00216436 0.0
0.479367 0.0602611 0.0
1.15994 0.0634296 0.0
1.64794 -0.252625 0.0
1.0356 0.00592027 0.0
1.05764 -0.0656542 0.0
1.02673 0.00302628 0.0
1.25324 0.90464 0.0
1.07468 -0.000425481 0.0
1.0392 0.00383719 0.0
1.29849 -0.198538 0.0
1.07422 -0.0245999 0.0
1.32177 -0.0836958 0.0
1.46031 -0.0628546 0.0
1.33199 0.090152 0.0
0.855249 -0.0378006 0.0
1.51689 -5.79449e-05 0.0
1.01348 0.00269021 0.0
1.24576 -0.058461 0.0
1.35774 0.155608 0.0
1.2009 -0.0566704 0.0
1.05045 -0.167813 0.0
0.359468 0.0204375 0.0
1.3809 0.139902 0.0
1.76586 -0.177773 0.0
1.41619 -0.0434669 0.0
1.05285 -0.236902 0.0
0.567253 0.0062875 0.0
1.39847 -0.16581 0.0
0.560418 -0.00230514 0.0
1.20294 0.100123 0.0
1.10234 0.0235354 0.0
1.61335 -0.311838 0.0
1.24274 -0.0129168 0.0
1.17886 -0.000107356 0.0
1.29109 -0.417358 0.0
0.872676 -0.00466906 0.0
1.40131 -0.0851584 0.0
1.7766 -0.27804 0.0
1.51534 -0.0317663 0.0
1.13626 -0.0378457 0.0
1.11898 -0.00121023 0.0
1.66056 -0.0970022 0.0
1.68801 -0.197276 0.0
1.15865 0.847004 0.0
1.012 -0.000248915 0.0
0.199713 0.0322535 0.0
1.04038 0.00773534 0.0
-0.243741 0.0705612 0.0
1.33193 0.227326 0.0
-0.274093 0.0899318 0.0
1.14562 0.00130499 0.0
0.851217 -0.026738 0.0
0.224914 0.0260639 0.0
1.14639 -0.00159873 0.0
0.796727 0.0125987 0.0
1.14581 -0.000834449 0.0
0.796089 -0.0169224 0.0
1.17039 0.00544737 0.0
0.881176 0.156865 0.0
0.953867 0.0043736 0.0
1.63354 -0.0438038 0.0
0.971341 -0.0356652 0.0
0.627074 -0.000399657 0.0
1.75285 -0.381831 0.0
1.15962 -0.246229 0.0
0.654702 0.00965622 0.0
1.26114 -0.226497 0.0
1.34582 0.16986 0.0
0.918542 -0.066239 0.0
1.21321 0.182018 0.0
0.0957713 0.102148 0.0
1.83952 0.529418 0.0
1.16035 0.00204843 0.0
1.27519 0.00831335 0.0
-0.184069 -0.0124909 0.0
-0.346379 0.0821383 0.0
1.43732 -0.0675042 0.0
1.17641 -0.039215 0.0
1.00443 0.000753264 0.0
0.854067 -0.0282066 0.0
-0.186718 0.0918057 0.0
1.0137 -0.00797518 0.0
-0.236839 0.118366 0.0
1.08215 -0.0985588 0.0
1.14067 -0.00909294 0.0
0.956856 -0.000960097 0.0
1.64171 -0.159944 0.0
1.74373 -0.670537 0.0
1.2734 -0.397817 0.0
1.075 -0.0654358 0.0
0.503424 -0.0215263 0.0
1.78898 0.649257 0.0
1.18459 0.00154364 0.0
1.48223 -0.113273 0.0
1.23695 0.193658 0.0
0.132184 0.0748899 0.0
1.44148 -0.0270743 0.0
1.07631 0.0158155 0.0
1.44263 0.0399945 0.0
1.41043 0.00717806 0.0
1.38913 0.0508177 0.0
1.05609 0.000975609 0.0
0.263326 0.0432935 0.0
1.19278 0.0409561 0.0
1.51982 0.581256 0.0
1.25005 0.110091 0.0
0.918701 -0.063143 0.0
0.732244 -0.101886 0.0
1.20632 0.0867219 0.0
1.44168 -0.0455544 0.0
1.10526 0.0217367 0.0
1.75091 0.501003 0.0
0.549767 -0.0712719 0.0
1.14583 -0.00964715 0.0
0.616719 -0.00307553 0.0
0.884182 0.0634649 0.0
1.60161 -0.0184133 0.0
1.02555 -0.1562 0.0
-0.273872 0.0743714 0.0
0.123624 0.0584855 0.0
1.21467 0.0840524 0.0
1.04259 -0.0261677 0.0
1.66501 -0.761387 0.0
1.50088 0.00352236 0.0
1.03662 0.00147783 0.0
1.07831 -0.244752 0.0
1.00004 0.00794273 0.0
1.52671 0.0100889 0.0
0.0317896 0.0331471 0.0
-0.252912 0.0355852 0.0
-0.174659 0.00677877 0.0
0.657335 0.01271 0.0
0.66518 -0.01337 0.0
0.555259 -0.101453 0.0
1.02985 -0.00805732 0.0
1.79757 -0.331346 0.0
1.05353 -0.156552 0.0
1.20282 -0.0491897 0.0
1.20456 0.0543661 0.0
0.548887 0.000253531 0.0
1.642 0.0711666 0.0
0.862395 0.0327486 0.0
1.23667 -0.0588083 0.0
-0.232413 0.0516106 0.0
1.74071 0.445324 0.0
1.13493 0.00343422 0.0
1.2221 -0.204936 0.0
1.12946 0.0321921 0.0
1.0542 0.130112 0.0
1.00201 -0.00166733 0.0
0.987112 0.109547 0.0
0.596457 -0.00261237 0.0
1.16474 -0.0309434 0.0
0.917898 -0.0259177 0.0
1.19011 0.00219251 0.0
1.36503 0.26457 0.0
1.17724 0.0887825 0.0
1.10096 0.000699841 0.0
1.11139 0.00132591 0.0
1.18176 0.197827 0.0
1.1202 -0.28746 0.0
1.10945 0.00644633 0.0
1.16577 -0.224761 0.0
1.11446 0.00402301 0.0
0.36757 0.108118 0.0
1.08803 -0.644696 0.0
0.730354 -0.126967 0.0
1.01947 -0.00515324 0.0
0.765392 -0.0787887 0.0
0.761705 -0.0634448 0.0
1.02915 0.0030487 0.0
1.05543 0.0958323 0.0
0.46072 0.0469495 0.0
0.889987 -0.830343 0.0
1.77885 0.34356 0.0
1.02538 -0.0013277 0.0
0.979583 0.00874671 0.0
0.666724 0.0599794 0.0
0.858032 0.0597396 0.0
0.39766 0.05893 0.0
1.01754 -0.0123828 0.0
1.42771 -0.0322513 0.0
1.44977 0.580949 0.0
1.15453 0.192906 0.0
1.0649 -0.0147782 0.0
1.42685 0.0383568 0.0
1.0453 -0.0960628 0.0
1.39335 -0.0945153 0.0
1.43603 -0.044793 0.0
0.487697 0.0258713 0.0
0.647511 0.0112951 0.0
0.890559 -0.0239511 0.0
0.847151 0.034485 0.0
0.580674 0.0148341 0.0
0.55779 -0.00175331 0.0
1.79035 0.284748 0.0
1.10846 0.00603101 0.0
1.44302 -0.00631982 0.0
1.11607 0.0068259 0.0
0.74815 -0.0797021 0.0
1.5088 -0.0946956 0.0
1.16821 -0.0274905 0.0
1.14419 -0.00765263 0.0
0.8331 -0.0495766 0.0
1.67153 -0.0675836 0.0
1.00795 0.0546406 0.0
1.00004 0.0135223 0.0
0.951541 -0.0271123 0.0
1.18939 0.00175441 0.0
1.4318 -0.141338 0.0
1.7309 -0.600424 0.0
1.16411 -0.00513162 0.0
1.1734 -0.00694412 0.0
1.00979 -0.00149513 0.0
1.06356 -0.132773 0.0
1.02443 -0.00681735 0.0
0.996297 -0.00410068 0.0
1.25932 0.310786 0.0
1.03832 -0.256459 0.0
1.10362 0.175842 0.0
1.31475 0.135593 0.0
0.75715 -0.108982 0.0
0.355038 -0.045441 0.0
0.955617 0.0152877 0.0
1.43871 0.0568984 0.0
1.42227 0.918053 0.0
0.682945 -0.0851566 0.0
1.13484 -0.0115701 0.0
1.7049 0.138046 0.0
1.0974 -0.898961 0.0
0.868455 -0.177547 0.0
1.12736 -0.0354297 0.0
0.603848 -0.00684621 0.0
1.02364 0.026352 0.0
0.590962 -0.00838908 0.0
1.03319 -0.00226304 0.0
1.18439 0.00282619 0.0
0.659647 -0.0116279 0.0
0.761896 -0.0343512 0.0
1.09493 -0.285402 0.0
1.32057 -0.107164 0.0
1.1831 0.00125459 0.0
1.01136 -0.00540391 0.0
1.02178 0.00880562 0.0
0.554181 -0.00480631 0.0
1.18411 0.00364947 0.0
0.721804 -0.0259913 0.0
1.11369 0.0416737 0.0
1.01234 -0.00725601 0.0
0.608169 0.00368259 0.0
1.24012 -0.111884 0.0
1.22972 -0.175463 0.0
0.774955 -0.026932 0.0
1.14299 -0.0655827 0.0
0.62704 0.000695717 0.0
0.9971 -0.0113496 0.0
0.122498 0.0715411 0.0
1.17118 -0.000605458 0.0
1.16958 -0.00648413 0.0
0.637191 -0.00412168 0.0
0.946965 -0.197452 0.0
0.995632 -0.0116984 0.0
1.42691 0.159575 0.0
1.16667 0.00233078 0.0
1.19058 -0.000103872 0.0
1.22361 -0.170816 0.0
1.19287 -0.0014027 0.0
1.19085 0.000521802 0.0
1.16118 -0.0126678 0.0
0.946049 -0.116195 0.0
0.8358 0.0428321 0.0
1.19451 -0.00326661 0.0
1.19012 -0.000268516 0.0
1.18796 -0.00152613 0.0
0.633979 0.0702893 0.0
0.525004 0.00448967 0.0
0.992244 0.00595335 0.0
0.589639 -0.00719106 0.0
1.19324 -0.00282526 0.0
1.01269 -0.0130937 0.0
1.14027 0.00928528 0.0
-0.25636 -0.0269283 0.0
0.992119 -0.00674269 0.0
0.558104 -0.00214431 0.0
1.32013 -0.605032 0.0
1.11707 -0.00624236 0.0
0.989228 -0.0115982 0.0
0.575223 -0.00855819 0.0
1.1922 -0.00153034 0.0
0.856618 0.0417125 0.0
0.576653 0.00138456 0.0
1.00684 -0.0104639 0.0
1.19415 -0.00364178 0.0
1.18775 -0.00200281 0.0
1.18963 -0.00130618 0.0
0.662113 -0.00483078 0.0
0.506533 0.00166094 0.0
1.19368 -0.00465048 0.0
1.14467 -0.0739102 0.0
1.17747 -0.00577977 0.0
0.644467 0.00938245 0.0
1.16458 -0.00674813 0.0
1.18564 -0.00242924 0.0
1.17687 0.000278756 0.0
1.1965 -0.0044684 0.0
0.519634 -0.00537292 0.0
1.19297 -0.00431141 0.0
1.19194 -0.00354347 0.0
1.18833 -0.00508828 0.0
0.512511 -0.00233917 0.0
1.18004 -0.000383197 0.0
1.16307 -0.00437957 0.0
1.17112 -0.00123223 0.0
1.1952 -0.00454113 0.0
1.17344 -0.161359 0.0
1.12087 0.000324066 0.0
1.19698 -0.00507316 0.0
1.35099 0.668148 0.0
1.1867 -0.00457433 0.0
0.562833 -0.00553799 0.0
1.0838 -0.0177748 0.0
0.606462 0.00823416 0.0
0.591732 -0.00671209 0.0
1.13188 0.00497537 0.0
1.08312 -0.00815831 0.0
1.05864 -0.00299772 0.0
0.532832 -0.00615938 0.0
1.08867 -0.0172358 0.0
1.13803 0.00376273 0.0
1.1954 -0.00538931 0.0
1.08462 0.142651 0.0
1.15602 -0.697285 0.0
0.569843 -0.0015175 0.0
0.526125 -0.00346887 0.0
1.19289 -0.00446583 0.0
1.19383 -0.00579767 0.0
0.629111 -0.0202335 0.0
0.518584 -0.0104488 0.0
1.19131 -0.00397509 0.0
0.994521 0.0116346 0.0
1.1611 0.00724906 0.0
1.14218 -0.00409908 0.0
0.578507 0.00971638 0.0
0.532353 -0.000584891 0.0
1.14747 0.0131484 0.0
0.623931 0.0114429 0.0
0.588264 0.012476 0.0
1.16695 0.00486507 0.0
0.636396 0.02015 0.0
0.591402 0.000568381 0.0
1.18565 -0.00411558 0.0
1.17728 -0.0041379 0.0
0.975408 0.0126418 0.0
1.18498 -0.00349834 0.0
1.16403 -0.00377388 0.0
1.18993 -0.0037738 0.0
0.999032 0.00779525 0.0
1.14045 -0.0035224 0.0
0.639404 0.00679848 0.0
0.538148 0.0132811 0.0
0.589435 0.0116147 0.0
0.516559 -0.00841282 0.0
0.578459 -0.0005127 0.0
0.591238 -0.00366872 0.0
0.554118 -0.00169046 0.0
0.630187 -0.0119387 0.0
0.596206 -0.00413346 0.0
0.608523 0.0115435 0.0
0.536888 -0.00611509 0.0
0.575751 0.0136645 0.0
0.551719 -0.000191695 0.0
0.662694 0.0213816 0.0
0.566691 0.00896868 0.0
0.564162 -0.0101186 0.0
0.533759 0.00174981 0.0
0.560843 -0.00113483 0.0
0.546683 0.00655457 0.0
0.605396 -0.00755339 0.0
0.58792 -0.00159655 0.0
0.589943 -0.00669126 0.0
0.571269 -0.0134243 0.0
0.568713 0.00458881 0.0
0.557375 -0.000783187 0.0
0.581282 0.00207441 0.0
0.52865 -0.0149986 0.0
0.514838 0.0189478 0.0
0.504254 0.00261206 0.0
0.552162 -0.00562244 0.0
0.537194 0.0033728 0.0
0.631058 -0.0209432 0.0
0.533415 0.00427843 0.0
0.520873 0.00430435 0.0
0.560644 0.000107619 0.0
0.540107 -0.00287457 0.0
1.16295 -0.00322124 0.0
1.1456 -0.00363783 0.0
1.19289 -0.00543864 0.0
1.19281 -0.00444962 0.0
1.19456 -0.0044734 0.0
1.10831 -0.00462081 0.0
1.17269 -0.00456895 0.0
1.15672 -0.00362767 0.0
1.16752 0.000783934 0.0
1.14325 -0.00405718 0.0
1.18109 -0.00543268 0.0
1.18241 -0.00574636 0.0
1.15355 -0.00391705 0.0
1.19124 -0.00347683 0.0
1.17492 -0.00315163 0.0
1.19008 -0.00449945 0.0
1.16998 -0.00496502 0.0
1.14155 -0.00143146 0.0
1.18788 -0.00477023 0.0
1.19281 -0.00380825 0.0
1.18342 -0.00286464 0.0
1.19139 -0.0040518 0.0
1.18715 -0.00468599 0.0
1.14145 -0.00613672 0.0
1.19317 -0.00269725 0.0
1.17624 -0.00179905 0.0
1.1916 -0.00223629 0.0
1.10894 0.000755819 0.0
1.17578 -0.00371111 0.0
1.17235 -0.00130691 0.0
1.19037 -0.00205145 0.0
1.1566 0.000249683 0.0
1.18832 -0.00210896 0.0
1.19013 -0.00205994 0.0
1.16977 0.000340517 0.0
1.19232 -0.00198677 0.0
1.18211 -0.00277326 0.0
1.18778 -0.00143424 0.0
1.14009 -0.00501318 0.0
1.15758 -0.000521199 0.0
1.18943 -0.00162524 0.0
1.1808 -0.0022684 0.0
1.18196 -0.000866318 0.0
1.18012 0.000310744 0.0
1.15779 -0.00943668 0.0
1.19009 -0.00117952 0.0
1.18809 -0.000827039 0.0
1.12492 -0.00280381 0.0
1.17327 -0.00276876 0.0
1.11017 0.0050194 0.0
1.16242 -0.00206508 0.0
1.17339 -0.00203101 0.0
1.18205 -0.00262156 0.0
1.18852 -0.0011511 0.0
1.15931 -0.00213543 0.0
1.18432 -0.00247741 0.0
1.18617 -0.000869469 0.0
1.18933 -0.000311283 0.0
1.18451 0.000374836 0.0
1.18246 0.000716229 0.0
1.1837 0.00177754 0.0
1.17183 0.00237251 0.0
1.12404 -0.00291417 0.0
1.09091 0.00307701 0.0
1.17102 0.00316753 0.0
1.1868 9.2387e-05 0.0
0.578289 -0.00339398 0.0
1.17421 0.00220989 0.0
1.14097 0.00278496 0.0
1.16015 0.00345927 0.0
1.18618 0.0011721 0.0
1.15875 0.00336829 0.0
1.1754 0.00358062 0.0
1.17053 0.000570399 0.0
1.18012 0.00253551 0.0
1.17206 0.000226846 0.0
1.12138 -0.00196085 0.0
1.12207 -0.00446396 0.0
1.1459 -0.00182531 0.0
1.1779 0.00362093 0.0
1.16608 -0.0020323 0.0
1.17914 0.00246647 0.0
1.15689 -0.00131077 0.0
1.17019 -0.00193344 0.0
1.18176 0.00187379 0.0
1.1781 0.00387724 0.0
1.00146 -0.00830978 0.0
1.1603 -0.00097511 0.0
1.17304 0.00465447 0.0
1.13885 0.00421789 0.0
1.17755 -0.00110755 0.0
1.18306 0.000333269 0.0
1.06927 -0.0128366 0.0
1.16421 0.00691928 0.0
1.16903 -0.00156646 0.0
1.14207 0.00950816 0.0
1.18011 0.000201601 0.0
1.14939 0.0135227 0.0
1.1641 -0.00225065 0.0
1.17981 -0.00118236 0.0
1.1698 0.000132519 0.0
1.11943 0.176261 0.0
1.14279 -0.0041609 0.0
1.18734 -0.00555248 0.0
1.17007 0.00621404 0.0
1.17341 0.00129227 0.0
1.14894 -0.00925647 0.0
1.15432 -0.000860076 0.0
1.12827 8.00188e-05 0.0
1.1517 -0.00581118 0.0
1.16993 0.00171367 0.0
1.13025 0.0019145 0.0
1.16605 0.00141551 0.0
1.16124 -0.00412621 0.0
1.15605 -0.000310569 0.0
1.15422 0.00833196 0.0
1.16243 -0.00391113 0.0
0.703685 -0.0207032 0.0
0.99166 0.00109947 0.0
1.15049 0.0103979 0.0
1.1543 0.00636757 0.0
1.15827 -0.00600919 0.0
1.13505 0.00702542 0.0
1.14516 0.00932341 0.0
1.15314 -0.00227812 0.0
1.14 1.83801e-05 0.0
1.14884 -0.0029631 0.0
1.1452 6.39473e-05 0.0
1.13435 0.0095002 0.0
1.1631 0.00359857 0.0
1.15806 0.0055876 0.0
1.01103 0.00457879 0.0
1.15949 0.00370058 0.0
1.15583 0.00717152 0.0
1.14679 0.00728092 0.0
1.12823 0.0123247 0.0
1.13078 0.0106012 0.0
1.15363 0.00794518 0.0
1.73655 0.179539 0.0
1.13176 -0.00945863 0.0
1.13741 0.0163556 0.0
1.11132 -0.0210536 0.0
1.14538 0.0177959 0.0
1.1505 0.0120338 0.0
1.12599 -0.0114373 0.0
1.14672 0.01781 0.0
1.18556 -0.00292749 0.0
1.07601 -0.00670451 0.0
1.08926 0.010724 0.0
1.11431 -0.00676975 0.0
1.30328 0.129109 0.0
1.1838 -0.0048311 0.0
1.07021 0.00169618 0.0
1.14317 -0.00601323 0.0
1.14608 0.025281 0.0
1.14342 0.0188759 0.0
1.10717 -0.00808792 0.0
1.10555 -0.0257686 0.0
0.999145 -0.0104829 0.0
1.1643 0.000398716 0.0
1.08783 -0.000104336 0.0
1.09731 -0.000617561 0.0
1.13122 0.0214528 0.0
1.10517 -0.0226751 0.0
1.03133 0.198287 0.0
0.984702 -0.0111664 0.0
1.14256 0.0309586 0.0
0.449666 -0.16656 0.0
1.37629 0.135711 0.0
1.1785 -0.0513138 0.0
1.08585 0.00909715 0.0
1.08476 0.024341 0.0
1.07271 0.0345273 0.0
1.18145 8.53892e-05 0.0
1.07344 0.0129114 0.0
1.05195 -0.0440847 0.0
1.30216 0.175755 0.0
1.01029 -0.145215 0.0
1.04617 -0.0573834 0.0
1.15537 -0.135691 0.0
1.13246 -0.00896556 0.0
1.10311 -0.0471199 0.0
1.15852 -0.00311713 0.0
0.962764 0.00196917 0.0
1.17893 0.0532481 0.0
1.03221 -0.0138826 0.0
1.23729 -0.103442 0.0
1.1832 -0.00465266 0.0
1.17671 -0.00559752 0.0
1.0743 -0.0194924 0.0
1.39881 -0.567353 0.0
1.13994 0.083339 0.0
1.0182 -0.0194907 0.0
1.14069 0.0665904 0.0
0.984282 0.00137082 0.0
0.742364 0.0283748 0.0
1.10347 0.0440226 0.0
1.32732 -0.160695 0.0
0.945961 -0.0923898 0.0
1.10683 -0.0387575 0.0
0.632843 -0.556963 0.0
1.09616 -0.0245054 0.0
1.10586 -0.00463667 0.0
1.1377 -0.00511045 0.0
1.38854 -0.142963 0.0
1.0937 0.0586782 0.0
1.15819 -0.00285815 0.0
1.06572 -0.0250871 0.0
1.16425 0.033729 0.0
0.999918 -0.0141096 0.0
1.35053 -0.771971 0.0
1.1859 0.00199255 0.0
1.17676 0.0496453 0.0
1.17156 0.000962786 0.0
1.11924 -0.00129789 0.0
1.1779 -0.0561862 0.0
1.0699 0.0225842 0.0
1.19809 0.0840462 0.0
1.11771 -0.00653604 0.0
1.15995 0.0419581 0.0
0.978268 0.00115253 0.0
1.13315 0.00635332 0.0
1.18082 -0.531861 0.0
0.647501 -0.00404796 0.0
0.666644 -0.0225813 0.0
0.951553 0.0273575 0.0
1.26585 0.122239 0.0
1.14092 -0.0044227 0.0
1.16262 -0.00450199 0.0
0.593289 0.0093302 0.0
1.17646 -0.00447801 0.0
0.338641 -0.124334 0.0
1.08056 -0.100182 0.0
0.601144 0.00696256 0.0
0.603559 -0.0126935 0.0
0.924823 0.0401976 0.0
1.14096 -0.00354142 0.0
0.863952 -0.174252 0.0
0.877051 -0.0215905 0.0
1.68891 -0.122578 0.0
0.933611 0.0383005 0.0
1.13782 -0.0103344 0.0
1.13873 -0.0120062 0.0
1.0502 0.0041704 0.0
1.18501 0.00142439 0.0
1.15661 6.45873e-05 0.0
1.18514 0.348 0.0
0.60474 0.016712 0.0
1.01103 0.00465545 0.0
1.3608 -0.100861 0.0
0.5665 0.00591126 0.0
1.58097 0.560284 0.0
0.954913 -0.0421669 0.0
0.822762 -0.0271377 0.0
1.33292 0.0915841 0.0
0.805291 -0.0528938 0.0
0.964583 0.00108393 0.0
0.673756 -0.119788 0.0
1.15386 -0.0131166 0.0
0.879686 0.0990473 0.0
1.14176 -0.0122377 0.0
0.687112 -0.00351475 0.0
1.02259 0.00165027 0.0
0.994848 0.138455 0.0
1.41157 -0.0357383 0.0
0.551598 -0.00278763 0.0
0.661424 -0.0230537 0.0
0.918775 0.805158 0.0
1.10661 -0.00166048 0.0
1.04569 0.0126931 0.0
1.3891 0.0115871 0.0
0.588531 -0.0095846 0.0
1.12572 0.0125994 0.0
1.1669 -0.448822 0.0
0.186459 0.0223778 0.0
0.944211 -0.062754 0.0
1.07845 -0.0841884 0.0
0.720251 0.0244723 0.0
0.542299 0.0199167 0.0
1.64743 0.0333623 0.0
1.14328 -0.00550815 0.0
0.311485 0.0152187 0.0
0.596744 0.0272785 0.0
1.13249 -0.00204921 0.0
1.17777 -0.00487598 0.0
1.01056 -0.0143106 0.0
0.959988 0.0634513 0.0
1.20826 0.171678 0.0
0.627871 0.00942292 0.0
1.17089 0.00586001 0.0
0.939584 0.0932157 0.0
1.17751 -0.00476315 0.0
1.38844 -0.593459 0.0
0.561684 -0.000808939 0.0
1.4563 -0.133994 0.0
1.10582 0.00331399 0.0
0.972027 -0.0110153 0.0
0.621104 0.0901671 0.0
1.00729 0.104119 0.0
0.897412 0.139721 0.0
1.10811 0.00506563 0.0
1.20575 -0.0588931 0.0
1.39924 -0.0370737 0.0
0.593116 0.00274824 0.0
0.612687 0.0126919 0.0
1.0791 -0.0040897 0.0
0.404519 -0.0728623 0.0
1.03715 0.0375534 0.0
0.527114 0.00357529 0.0
0.981987 -0.0116832 0.0
1.10676 -0.00442509 0.0
0.965656 -0.00739459 0.0
0.574203 -0.00409316 0.0
0.576311 0.0188429 0.0
0.598915 0.00768949 0.0
0.575367 0.00657584 0.0
0.613971 0.00824508 0.0
1.21078 0.669253 0.0
1.35854 0.0679073 0.0
0.971469 -0.00190405 0.0
0.592743 0.0068952 0.0
0.602511 -0.0110098 0.0
0.683733 0.0246318 0.0
1.14354 -0.0479012 0.0
0.609575 -0.000835702 0.0
1.60622 -0.19216 0.0
1.28632 0.0985186 0.0
0.550804 -0.139868 0.0
1.33657 -0.096183 0.0
1.52729 -0.466261 0.0
1.00814 0.00101031 0.0
1.08961 0.0129438 0.0
1.14573 -0.0102892 0.0
0.982214 -8.61919e-05 0.0
0.837349 -0.689631 0.0
1.01826 0.00103921 0.0
0.98572 -0.0042499 0.0
1.17412 -0.00816312 0.0
1.10797 -0.0313089 0.0
1.64648 -0.00351575 0.0
-0.113601 0.102674 0.0
0.524811 -0.0699951 0.0
1.33623 0.517805 0.0
1.07934 -0.0101304 0.0
0.628785 -0.00944697 0.0
0.60508 -0.00404105 0.0
0.602508 -0.00459677 0.0
1.1838 0.00308205 0.0
0.646292 0.216492 0.0
1.16493 -0.0207607 0.0
0.987788 0.00885538 0.0
0.763654 0.169073 0.0
1.12028 -0.00332848 0.0
0.164032 -0.0139972 0.0
1.16063 0.00329887 0.0
0.599179 0.0186365 0.0
0.597344 -0.00897454 0.0
1.3444 0.0890458 0.0
0.871807 -0.00751128 0.0
1.50922 0.0353297 0.0
0.987658 0.0109776 0.0
1.00474 0.00711965 0.0
0.128897 -0.165616 0.0
0.987357 0.0231285 0.0
1.16288 0.0086074 0.0
1.14635 0.00823498 0.0
0.363148 -0.139595 0.0
1.61863 -0.272467 0.0
1.08668 0.00140209 0.0
1.29144 0.20048 0.0
0.624988 -0.0119695 0.0
0.596676 -0.00586145 0.0
1.11955 -0.0172617 0.0
0.552656 0.0924267 0.0
1.13055 -0.0246606 0.0
0.794925 0.0228765 0.0
0.944701 -0.0107844 0.0
1.12551 0.00704672 0.0
1.01481 -0.00380595 0.0
0.201873 -0.0208967 0.0
1.13284 -0.00912317 0.0
0.313585 0.0593346 0.0
1.02541 -0.00282727 0.0
1.01719 -0.00329651 0.0
0.608159 -0.014732 0.0
1.05973 -0.00455134 0.0
1.16429 -0.0204944 0.0
0.971084 -0.000623068 0.0
0.998901 -0.00986576 0.0
1.2008 -0.964999 0.0
1.12443 0.0169307 0.0
1.69287 0.48599 0.0
0.599926 -0.0129179 0.0
0.595859 0.00678718 0.0
1.15542 0.00191505 0.0
1.19302 -0.00427179 0.0
1.10328 -0.00447234 0.0
1.11194 0.00149555 0.0
1.16451 0.00202105 0.0
1.12538 0.00125759 0.0
1.1853 -0.00571288 0.0
1.145 0.0220921 0.0
-0.189052 0.0178145 0.0
1.09327 0.0103226 0.0
-0.00532498 0.0420717 0.0
0.658161 -0.0275328 0.0
1.20665 -0.181732 0.0
1.13275 -0.00632137 0.0
1.36565 -0.141443 0.0
1.64692 -0.501783 0.0
0.31425 -0.0181043 0.0
1.17976 -0.00456812 0.0
1.12881 0.271583 0.0
1.34266 -0.101094 0.0
1.07142 0.305383 0.0
1.71012 0.0842613 0.0
0.975536 -0.542799 0.0
1.37208 0.132161 0.0
1.12496 -0.0156762 0.0
1.28992 -0.481041 0.0
-0.0769423 -0.113062 0.0
1.05111 0.00261123 0.0
1.31889 -0.394565 0.0
0.541371 -0.00456435 0.0
1.41769 -0.148509 0.0
1.68422 0.196455 0.0
1.08878 0.00831077 0.0
0.462582 0.0131218 0.0
0.717102 0.0014758 0.0
0.267974 -0.228908 0.0
0.947854 0.0469662 0.0
-0.108334 -0.0345 0.0
1.14963 -0.166003 0.0
1.49287 0.148875 0.0
0.541136 0.00754105 0.0
1.22487 -0.069428 0.0
0.986315 -0.000710792 0.0
1.17745 0.00217184 0.0
0.435322 -0.615991 0.0
1.22866 0.264093 0.0
0.738547 -0.164901 0.0
0.191444 -0.331337 0.0
0.53231 0.161136 0.0
1.3026 0.238243 0.0
0.607209 0.156322 0.0
0.966939 -0.00951088 0.0
1.12621 -0.0112986 0.0
1.07608 0.00607451 0.0
1.06317 0.00545487 0.0
0.602918 0.00748482 0.0
0.0348616 0.0835878 0.0
1.30833 0.299508 0.0
0.488888 -0.00082784 0.0
1.09912 0.00496326 0.0