# vtk DataFile Version 3.0
Malha 2D com triângulos e temperatura
ASCII
DATASET UNSTRUCTURED_GRID

POINTS 688 double
0 0 0
2.2 0 0
2.2 0.41 0
0 0.41 0
0.25 0.2 0
0.05 0 0
0.1 0 0
0.15 0 0
0.2 0 0
0.25 0 0
0.3 0 0
0.35 0 0
0.4 0 0
0.45 0 0
0.5 0 0
0.55 0 0
0.6 0 0
0.65 0 0
0.7 0 0
0.75 0 0
0.8 0 0
0.85 0 0
0.9 0 0
0.95 0 0
1 0 0
1.05 0 0
1.1 0 0
1.15 0 0
1.2 0 0
1.25 0 0
1.3 0 0
1.35 0 0
1.4 0 0
1.45 0 0
1.5 0 0
1.55 0 0
1.6 0 0
1.65 0 0
1.7 0 0
1.75 0 0
1.8 0 0
1.85 0 0
1.9 0 0
1.95 0 0
2 0 0
2.05 0 0
2.1 0 0
2.15 0 0
2.2 0.0455556 0
2.2 0.0911111 0
2.2 0.136667 0
2.2 0.182222 0
2.2 0.227778 0
2.2 0.273333 0
2.2 0.318889 0
2.2 0.364444 0
2.15 0.41 0
2.1 0.41 0
2.05 0.41 0
2 0.41 0
1.95 0.41 0
1.9 0.41 0
1.85 0.41 0
1.8 0.41 0
1.75 0.41 0
1.7 0.41 0
1.65 0.41 0
1.6 0.41 0
1.55 0.41 0
1.5 0.41 0
1.45 0.41 0
1.4 0.41 0
1.35 0.41 0
1.3 0.41 0
1.25 0.41 0
1.2 0.41 0
1.15 0.41 0
1.1 0.41 0
1.05 0.41 0
1 0.41 0
0.95 0.41 0
0.9 0.41 0
0.85 0.41 0
0.8 0.41 0
0.75 0.41 0
0.7 0.41 0
0.65 0.41 0
0.6 0.41 0
0.55 0.41 0
0.5 0.41 0
0.45 0.41 0
0.4 0.41 0
0.35 0.41 0
0.3 0.41 0
0.25 0.41 0
0.2 0.41 0
0.15 0.41 0
0.1 0.41 0
0.05 0.41 0
0 0.364444 0
0 0.318889 0
0 0.273333 0
0 0.227778 0
0 0.182222 0
0 0.136667 0
0 0.0911111 0
0 0.0455556 0
0.248831 0.210749 0
0.245379 0.220994 0
0.239805 0.230259 0
0.232369 0.238108 0
0.22342 0.244176 0
0.213376 0.248177 0
0.202707 0.249927 0
0.191911 0.249341 0
0.181493 0.246449 0
0.171941 0.241384 0
0.1637 0.234385 0
0.157157 0.225778 0
0.152617 0.215965 0
0.150293 0.205406 0
0.150293 0.194594 0
0.152617 0.184035 0
0.157157 0.174222 0
0.1637 0.165615 0
0.171941 0.158616 0
0.181493 0.153551 0
0.191911 0.150659 0
0.202707 0.150073 0
0.213376 0.151823 0
0.22342 0.155824 0
0.232369 0.161892 0
0.239805 0.169741 0
0.245379 0.179006 0
0.248831 0.189251 0
0.421316 0.36725 0
0.426705 0.0366526 0
2.16065 0.209201 0
1.52286 0.0417259 0
0.626017 0.37111 0
1.3257 0.0414552 0
1.02471 0.0432237 0
1.17293 0.0421053 0
0.82501 0.36678 0
1.6757 0.370064 0
1.91628 0.0358195 0
1.82501 0.366432 0
0.723429 0.0421499 0
1.425 0.366699 0
1.97461 0.366224 0
1.12167 0.370137 0
0.975 0.368691 0
0.877672 0.0412714 0
1.27686 0.36884 0
1.725 0.0433013 0
0.579174 0.0416211 0
0.325589 0.363848 0
0.319111 0.0378151 0
0.0394523 0.296111 0
0.0329929 0.11602 0
0.142108 0.187428 0
1.57555 0.364352 0
2.02603 0.0412138 0
0.725007 0.36763 0
0.528647 0.366595 0
1.62699 0.0400272 0
1.82929 0.0421255 0
1.425 0.0418325 0
2.07474 0.364233 0
0.125 0.0433013 0
0.161245 0.155011 0
0.225 0.366699 0
0.210027 0.258536 0
2.16034 0.115449 0
0.0371627 0.204103 0
0.142311 0.212698 0
0.220283 0.0418538 0
0.221965 0.145099 0
0.196802 0.141016 0
0.119851 0.373394 0
0.161112 0.245979 0
0.184892 0.258024 0
2.16342 0.30039 0
2.12627 0.047699 0
0.183325 0.0412617 0
0.152317 0.0762976 0
0.203864 0.0745802 0
0.234384 0.0774346 0
0.215969 0.103585 0
0.245651 0.104548 0
0.186562 0.100216 0
0.268213 0.0793029 0
0.272149 0.109155 0
0.242885 0.159377 0
0.253088 0.128261 0
0.278718 0.13214 0
0.295917 0.115997 0
0.301728 0.138858 0
0.321266 0.12205 0
0.324642 0.151724 0
0.255978 0.181139 0
0.350123 0.129049 0
0.357539 0.159885 0
0.333541 0.181416 0
0.36451 0.19182 0
0.250573 0.230419 0
0.391277 0.169722 0
0.339477 0.212308 0
0.39836 0.205386 0
0.427326 0.18117 0
0.258724 0.206387 0
0.434392 0.219501 0
0.466446 0.193907 0
0.472865 0.243064 0
0.507358 0.209962 0
0.40073 0.238916 0
0.499135 0.1652 0
0.5419 0.179224 0
0.550176 0.22496 0
0.585844 0.194129 0
0.594095 0.240176 0
0.630701 0.209517 0
0.621901 0.162424 0
0.667731 0.178095 0
0.676485 0.226008 0
0.713906 0.194492 0
0.722681 0.242872 0
0.760442 0.211047 0
0.751547 0.162356 0
0.798298 0.179 0
0.807147 0.227866 0
0.845136 0.195775 0
0.854541 0.243285 0
0.892163 0.212344 0
0.902461 0.257947 0
0.93935 0.228684 0
0.930236 0.180167 0
0.977229 0.197066 0
0.986264 0.245777 0
1.02423 0.213991 0
1.0331 0.263172 0
1.07123 0.230975 0
1.06234 0.181814 0
1.10938 0.198721 0
1.09996 0.151012 0
1.14691 0.168161 0
1.15631 0.215921 0
1.19446 0.183678 0
1.20343 0.232645 0
1.2416 0.200322 0
1.23272 0.151117 0
1.2798 0.167954 0
1.28868 0.217167 0
1.32685 0.184862 0
1.33573 0.234064 0
1.3739 0.201768 0
0.789327 0.130094 0
1.38279 0.25097 0
1.42096 0.218674 0
1.41207 0.169471 0
1.45912 0.186378 0
1.46801 0.235581 0
1.50618 0.203285 0
1.51506 0.252489 0
1.55323 0.220192 0
1.54435 0.170989 0
1.5914 0.187896 0
1.60029 0.2371 0
1.63846 0.204803 0
1.64734 0.254007 0
1.68551 0.221711 0
1.67663 0.172507 0
1.72368 0.189415 0
1.73831 0.241548 0
1.77074 0.206322 0
1.76185 0.157121 0
1.8091 0.17428 0
1.81866 0.220885 0
1.85608 0.190621 0
1.86521 0.238879 0
1.90289 0.207671 0
1.91264 0.253772 0
1.94955 0.224093 0
1.94067 0.17593 0
1.98705 0.192828 0
1.99572 0.240997 0
2.0329 0.209382 0
2.02422 0.16161 0
2.04166 0.257286 0
0.419739 0.142889 0
0.968291 0.148058 0
0.310035 0.202211 0
0.316128 0.230863 0
0.658501 0.130052 0
0.685107 0.27445 0
1.34462 0.283266 0
1.16528 0.264896 0
1.84735 0.142081 0
0.557687 0.270604 0
1.21234 0.281769 0
1.58252 0.138692 0
0.533563 0.131933 0
0.489835 0.120004 0
1.45024 0.137174 0
2.06974 0.17785 0
2.06113 0.130713 0
0.283221 0.152215 0
0.921299 0.131169 0
0.343836 0.24295 0
0.319203 0.260002 0
0.235529 0.249617 0
0.347029 0.274099 0
0.291856 0.246297 0
0.295938 0.27548 0
0.272836 0.264931 0
0.27461 0.290522 0
0.251228 0.280224 0
0.253903 0.305808 0
0.232795 0.296709 0
0.298805 0.304058 0
1.0801 0.280176 0
1.47689 0.284785 0
1.05315 0.133468 0
1.09741 0.0970974 0
1.82427 0.272867 0
1.2701 0.118911 0
0.816337 0.277695 0
1.40432 0.121101 0
1.04244 0.320388 0
0.959305 0.103028 0
1.60923 0.286151 0
0.601674 0.286775 0
2.00739 0.280923 0
0.342592 0.0992796 0
0.375237 0.105729 0
1.52511 0.298716 0
1.53114 0.119823 0
0.733824 0.287256 0
0.613372 0.114719 0
0.645558 0.0838585 0
2.015 0.115858 0
1.22718 0.0994086 0
1.39166 0.29817 0
1.3564 0.329754 0
0.744134 0.11556 0
0.782853 0.0841771 0
0.826899 0.10047 0
1.17418 0.314034 0
0.520902 0.0906676 0
1.4967 0.329429 0
1.26048 0.0740437 0
0.365514 0.0716355 0
0.229836 0.121666 0
1.57453 0.09137 0
1.61938 0.110761 0
0.481716 0.0753791 0
0.14093 0.2 0
0.130041 0.192847 0
0.131507 0.178608 0
0.117165 0.184444 0
0.120761 0.164701 0
0.1156 0.199931 0
0.100804 0.174136 0
0.102545 0.153034 0
0.12169 0.143342 0
0.104604 0.13008 0
0.0809304 0.161171 0
0.128077 0.121858 0
0.106825 0.102278 0
0.082498 0.188728 0
0.0314738 0.158621 0
2.04625 0.310891 0
2.08475 0.27479 0
2.11394 0.138117 0
0.233149 0.151108 0
0.258724 0.193613 0
0.268522 0.184917 0
1.65397 0.301059 0
0.145962 0.224912 0
0.132503 0.222267 0
0.13746 0.236947 0
0.120111 0.233525 0
0.126593 0.25219 0
0.105294 0.247497 0
0.113343 0.26868 0
0.133997 0.271734 0
0.121622 0.292031 0
0.147069 0.292141 0
0.0896563 0.267464 0
0.0813699 0.243294 0
0.163574 0.276939 0
0.172694 0.298517 0
0.1583 0.321483 0
0.186823 0.322499 0
0.173113 0.348195 0
0.0322087 0.250839 0
0.211694 0.124337 0
0.250615 0.169546 0
0.256243 0.157787 0
0.170796 0.14736 0
0.156755 0.141654 0
0.17187 0.131161 0
0.147502 0.152323 0
0.198129 0.260662 0
0.206368 0.271663 0
0.220945 0.26864 0
0.190489 0.270628 0
0.198813 0.286731 0
0.55749 0.322277 0
0.520166 0.299321 0
0.235199 0.330709 0
0.267109 0.337524 0
0.172324 0.25256 0
0.255974 0.218859 0
0.268327 0.214994 0
0.184197 0.143083 0
0.188721 0.129954 0
0.209694 0.139146 0
0.269223 0.244007 0
0.252374 0.255244 0
0.282229 0.0410487 0
1.21977 0.330016 0
1.25733 0.296346 0
2.09358 0.0890819 0
0.244373 0.240984 0
0.0838116 0.115786 0
0.0797544 0.0817835 0
0.237449 0.264854 0
0.247178 0.146225 0
0.270136 0.2 0
0.28023 0.191334 0
0.263476 0.170737 0
0.371486 0.368728 0
0.396124 0.330051 0
0.440314 0.325693 0
0.357693 0.329668 0
0.476576 0.362035 0
0.29587 0.222914 0
0.307627 0.175476 0
0.079599 0.0406461 0
0.146062 0.252571 0
0.15162 0.125025 0
0.417223 0.294608 0
0.457089 0.286958 0
0.036619 0.338729 0
0.0713014 0.322193 0
0.0735823 0.36704 0
0.041143 0.0722223 0
0.693501 0.32349 0
0.145406 0.175484 0
0.138777 0.164467 0
0.300367 0.0698839 0
0.167025 0.112083 0
0.146978 0.105544 0
0.151909 0.236762 0
0.444611 0.106436 0
0.909355 0.0817561 0
0.282901 0.370713 0
1.61474 0.330739 0
0.578053 0.368179 0
0.824695 0.0487848 0
2.09634 0.3213 0
2.02276 0.364865 0
2.12532 0.363702 0
1.09789 0.328757 0
0.161137 0.260089 0
2.07793 0.225752 0
2.12079 0.240944 0
2.0747 0.0437362 0
1.89402 0.158846 0
1.93154 0.128738 0
1.8848 0.111477 0
1.8384 0.0926484 0
1.87744 0.0655304 0
1.7913 0.0793874 0
1.9712 0.046671 0
1.92502 0.366682 0
1.94563 0.325156 0
1.89941 0.326645 0
1.87499 0.367178 0
1.84989 0.323491 0
1.7997 0.321303 0
1.77183 0.280326 0
1.75031 0.321965 0
1.77491 0.365615 0
2.11727 0.191885 0
0.883187 0.163467 0
1.71449 0.140266 0
1.667 0.125342 0
1.70591 0.0884759 0
1.67732 0.042286 0
1.52278 0.370513 0
1.37512 0.04128 0
1.34848 0.0834574 0
0.776093 0.367587 0
1.125 0.0433013 0
1.15 0.0866019 0
1.07442 0.0496847 0
0.974527 0.0370837 0
1.47464 0.0427918 0
1.44953 0.0873752 0
1.17595 0.362984 0
1.025 0.366699 0
0.925007 0.367031 0
0.95 0.323404 0
0.897321 0.326356 0
0.874563 0.367261 0
0.846552 0.324465 0
1.62923 0.156667 0
1.32319 0.13033 0
1.69342 0.270472 0
1.49568 0.156227 0
1.56237 0.268721 0
1.44 0.319169 0
1.43005 0.267892 0
1.36502 0.152565 0
0.993446 0.294003 0
1.30179 0.321101 0
1.18235 0.127964 0
1.25016 0.2491 0
1.29638 0.266841 0
1.11824 0.247967 0
1.12945 0.294699 0
1.01527 0.165035 0
0.836192 0.147197 0
1.4998 0.0831488 0
1.00655 0.118664 0
0.872896 0.117126 0
0.70523 0.146383 0
1.96013 0.276645 0
0.769406 0.257102 0
0.699552 0.0908977 0
2.1587 0.162257 0
1.97813 0.145326 0
0.646036 0.302035 0
0.799423 0.326603 0
0.515621 0.255445 0
1.72538 0.366474 0
1.97009 0.0998346 0
1.57108 0.313772 0
0.577925 0.14549 0
0.638911 0.256447 0
0.407352 0.0771641 0
0.525103 0.042511 0
0.674231 0.370698 0
1.69802 0.321701 0
0.56947 0.0908728 0
1.75459 0.110239 0
1.80084 0.126127 0
0.673535 0.0431435 0
1.57391 0.0465733 0
2.04571 0.0828469 0
0.10002 0.225545 0
0.0788152 0.21577 0
0.369719 0.224393 0
0.210352 0.308739 0
1.22342 0.0432967 0
[...]
CELL_DATA 1241
VECTORS velocity double
1.01357 -0.00405058 0.0
1.21732 0.066496 0.0
0.445303 -0.00176538 0.0
0.944171 0.0019818 0.0
1.04432 0.00559213 0.0
1.42286 0.103162 0.0
1.13503 0.000341513 0.0
0.979076 -0.000679591 0.0
0.36316 0.0158271 0.0
1.17957 0.00151505 0.0
1.31247 -0.119983 0.0
1.31627 0.126544 0.0
0.865763 -0.160595 0.0
1.01577 0.00854792 0.0
0.991702 0.00646835 0.0
1.46636 -0.0328904 0.0
0.980111 0.000564024 0.0
0.479612 0.0603817 0.0
1.17286 0.0623726 0.0
1.64766 -0.254206 0.0
1.02169 0.00394797 0.0
1.05945 -0.0663144 0.0
1.03833 -0.000176875 0.0
1.25311 0.904907 0.0
1.07096 -0.00229006 0.0
1.02483 0.00225548 0.0
1.29898 -0.199439 0.0
1.07638 -0.0253996 0.0
1.32175 -0.0836642 0.0
1.46243 -0.0649148 0.0
1.33199 0.0902547 0.0
0.868367 -0.0368795 0.0
1.52046 0.00269725 0.0
1.01439 0.00681621 0.0
1.25685 -0.0565385 0.0
1.35889 0.156968 0.0
1.21283 -0.0553564 0.0
1.05041 -0.167832 0.0
0.359562 0.0205051 0.0
1.3822 0.141365 0.0
1.76449 -0.179818 0.0
1.41326 -0.0454542 0.0
1.05282 -0.237189 0.0
0.500417 0.00647517 0.0
1.39921 -0.167242 0.0
0.49639 -0.0078849 0.0
1.20156 0.0990171 0.0
1.11543 0.0257757 0.0
1.61301 -0.313114 0.0
1.23968 -0.0104571 0.0
1.21529 0.00102803 0.0
1.29083 -0.417497 0.0
0.869518 -0.00363992 0.0
1.40874 -0.0823378 0.0
1.77523 -0.279619 0.0
1.51902 -0.0286818 0.0
1.15116 -0.0399292 0.0
1.12717 -4.10274e-05 0.0
1.65841 -0.0991021 0.0
1.68773 -0.199378 0.0
1.15855 0.847309 0.0
0.993425 -3.63184e-06 0.0
0.195561 0.0358059 0.0
1.02764 0.00645732 0.0
-0.240022 0.0714473 0.0
1.33192 0.227579 0.0
-0.279602 0.0861806 0.0
1.16818 -0.002224 0.0
0.86339 -0.0258709 0.0
0.218166 0.0244226 0.0
1.16883 -0.00593413 0.0
0.79342 0.0141546 0.0
1.16772 -0.0054886 0.0
0.791701 -0.0137018 0.0
1.20787 0.00695045 0.0
0.881296 0.157088 0.0
0.942997 0.00726976 0.0
1.63144 -0.0465216 0.0
0.979809 -0.034603 0.0
0.613637 0.001225 0.0
1.75194 -0.383014 0.0
1.1597 -0.246734 0.0
0.658678 0.0118582 0.0
1.26147 -0.227374 0.0
1.34581 0.170069 0.0
0.919412 -0.0667456 0.0
1.20689 0.178018 0.0
0.0860424 0.0984405 0.0
1.83884 0.530394 0.0
1.19337 0.00296276 0.0
1.2721 0.0102131 0.0
-0.189664 -0.0110338 0.0
-0.348006 0.0782864 0.0
1.44322 -0.0646147 0.0
1.18242 -0.0406341 0.0
0.984348 0.00145297 0.0
0.849225 -0.0258284 0.0
-0.184465 0.0905966 0.0
1.01862 -0.0113433 0.0
-0.244277 0.112549 0.0
1.08214 -0.0985571 0.0
1.15935 -0.0151504 0.0
0.947616 0.00262455 0.0
1.63916 -0.161268 0.0
1.74234 -0.670641 0.0
1.27316 -0.397902 0.0
1.0713 -0.0619511 0.0
0.498257 -0.0236677 0.0
1.78799 0.649657 0.0
1.22571 0.00320438 0.0
1.48539 -0.109171 0.0
1.23091 0.189658 0.0
0.131609 0.0759963 0.0
1.44146 -0.0270014 0.0
1.08015 0.0148762 0.0
1.44262 0.0400893 0.0
1.41411 0.00474426 0.0
1.39196 0.0529625 0.0
1.06655 -0.0020954 0.0
0.255287 0.0396955 0.0
1.1901 0.0421876 0.0
1.51966 0.581805 0.0
1.2516 0.108205 0.0
0.919986 -0.0634839 0.0
0.726811 -0.0993239 0.0
1.20472 0.0860113 0.0
1.44707 -0.0429159 0.0
1.11894 0.0244813 0.0
1.74956 0.501393 0.0
0.549919 -0.0713179 0.0
1.16616 -0.0152518 0.0
0.622399 -0.00176881 0.0
0.885951 0.0638852 0.0
1.6033 -0.0216135 0.0
1.01942 -0.153217 0.0
-0.276055 0.0745676 0.0
0.123164 0.062549 0.0
1.22675 0.0821943 0.0
1.04872 -0.0252329 0.0
1.66382 -0.761311 0.0
1.50088 0.00357338 0.0
1.03563 0.00601219 0.0
1.07835 -0.245055 0.0
1.00501 0.00698517 0.0
1.5235 0.00720073 0.0
0.022317 0.031159 0.0
-0.254476 0.0380633 0.0
-0.182769 0.00601589 0.0
0.642497 0.0153363 0.0
0.653726 -0.0117176 0.0
0.555345 -0.101533 0.0
1.03495 -0.00709307 0.0
1.79633 -0.332614 0.0
1.04784 -0.15337 0.0
1.20282 -0.0491844 0.0
1.20456 0.0544229 0.0
0.481667 -0.00112881 0.0
1.64366 0.0738483 0.0
0.857104 0.0303557 0.0
1.24854 -0.0569608 0.0
-0.230504 0.0469693 0.0
1.74047 0.446512 0.0
1.14271 0.00839273 0.0
1.22204 -0.204902 0.0
1.14322 0.0340807 0.0
1.05422 0.130245 0.0
0.981804 -0.000215678 0.0
0.987063 0.109857 0.0
0.567294 -0.00354321 0.0
1.17136 -0.0339647 0.0
0.929279 -0.0246574 0.0
1.23594 0.00339995 0.0
1.36547 0.26555 0.0
1.19115 0.0865795 0.0
1.10474 0.0055942 0.0
1.11567 0.00637995 0.0
1.18261 0.198718 0.0
1.12009 -0.287607 0.0
1.11388 0.0120773 0.0
1.16602 -0.225277 0.0
1.11908 0.00902283 0.0
0.363092 0.11023 0.0
1.08768 -0.644368 0.0
0.730584 -0.127093 0.0
1.02544 -0.00851886 0.0
0.765705 -0.0789966 0.0
0.762229 -0.0636712 0.0
1.0277 0.00773191 0.0
1.05545 0.0959235 0.0
0.461056 0.0470131 0.0
0.889592 -0.829901 0.0
1.77863 0.345105 0.0
1.02838 -0.00209044 0.0
0.984406 0.00669788 0.0
0.667353 0.0602331 0.0
0.852966 0.0568982 0.0
0.397738 0.0590101 0.0
0.998281 -0.0147445 0.0
1.42771 -0.0322272 0.0
1.44964 0.581448 0.0
1.15458 0.193116 0.0
1.06922 -0.0135373 0.0
1.42685 0.038403 0.0
1.0416 -0.0922765 0.0
1.40113 -0.0914492 0.0
1.436 -0.0446927 0.0
0.483209 0.0244005 0.0
0.662596 0.0125583 0.0
0.900086 -0.0227401 0.0
0.857853 0.0334941 0.0
0.515358 0.0169978 0.0
0.514639 -0.00308073 0.0
1.79011 0.286532 0.0
1.11159 0.0117907 0.0
1.44069 -0.00354788 0.0
1.12125 0.0122255 0.0
0.73147 -0.0773526 0.0
1.51123 -0.0906496 0.0
1.17569 -0.0304946 0.0
1.16402 -0.0133371 0.0
0.833097 -0.0495833 0.0
1.67135 -0.0705451 0.0
1.01024 0.0553505 0.0
0.99618 0.0113654 0.0
0.958882 -0.0261615 0.0
1.23422 0.00238127 0.0
1.43555 -0.137294 0.0
1.7298 -0.60087 0.0
1.184 -0.00552827 0.0
1.20292 -0.011148 0.0
0.990969 0.000182717 0.0
1.06355 -0.132777 0.0
1.02965 -0.0101683 0.0
0.998055 -0.00669339 0.0
1.25791 0.310859 0.0
1.03831 -0.256621 0.0
1.09395 0.171519 0.0
1.31881 0.132379 0.0
0.74357 -0.106675 0.0
0.355088 -0.0454554 0.0
0.958911 0.0159444 0.0
1.4387 0.0570259 0.0
1.42203 0.918329 0.0
0.682938 -0.0851896 0.0
1.152 -0.017587 0.0
1.70423 0.140349 0.0
1.09691 -0.89856 0.0
0.868425 -0.177617 0.0
1.14139 -0.0374698 0.0
0.560209 -0.00854102 0.0
1.02623 0.0270773 0.0
0.54446 -0.00983211 0.0
1.03245 -0.00490229 0.0
1.22688 0.00280335 0.0
0.616341 -0.0118953 0.0
0.775968 -0.0336549 0.0
1.09484 -0.285471 0.0
1.32613 -0.104554 0.0
1.22447 0.000509653 0.0
1.02013 -0.00177936 0.0
1.00271 0.0080339 0.0
0.508214 -0.00589169 0.0
1.22802 0.00564026 0.0
0.737057 -0.0260441 0.0
1.12814 0.0434399 0.0
0.994878 -0.00967666 0.0
0.567402 0.00326607 0.0
1.24092 -0.109871 0.0
1.22737 -0.170976 0.0
0.78962 -0.0266186 0.0
1.13954 -0.0652421 0.0
0.582821 0.00178937 0.0
0.983742 -0.0155505 0.0
0.11633 0.0673512 0.0
1.20246 0.000225299 0.0
1.1975 -0.0106 0.0
0.593076 -0.00393061 0.0
0.942496 -0.194211 0.0
0.988092 -0.0155683 0.0
1.43001 0.154407 0.0
1.19924 0.000539479 0.0
1.23519 -0.00155355 0.0
1.22356 -0.170782 0.0
1.23623 -0.00296886 0.0
1.23539 0.000782429 0.0
1.17131 -0.0169186 0.0
0.934703 -0.114502 0.0
0.835802 0.042868 0.0
1.23576 -0.00508107 0.0
1.23345 -0.000794414 0.0
1.22859 -0.00189084 0.0
0.634939 0.0705003 0.0
0.45553 0.00484793 0.0
0.998434 0.00989598 0.0
0.54363 -0.00750528 0.0
1.234 -0.00571292 0.0
1.00322 -0.0184126 0.0
1.1636 0.009833 0.0
-0.261361 -0.0268109 0.0
0.966786 -0.0124531 0.0
0.499724 -0.00490179 0.0
1.31887 -0.604719 0.0
1.12246 -0.00695198 0.0
0.971237 -0.016177 0.0
0.525033 -0.0102776 0.0
1.23417 -0.00331479 0.0
0.868501 0.0407278 0.0
0.530901 0.00170935 0.0
0.993569 -0.0156618 0.0
1.23414 -0.00564795 0.0
1.22738 -0.00264696 0.0
1.23286 -0.00343136 0.0
0.619828 -0.00697031 0.0
0.444034 -0.000104905 0.0
1.23118 -0.00640152 0.0
1.14148 -0.0734129 0.0
1.2054 -0.00704598 0.0
0.601611 0.0101293 0.0
1.18533 -0.00788475 0.0
1.22506 -0.00596798 0.0
1.2122 0.00105155 0.0
1.23625 -0.00732892 0.0
0.465709 -0.00688685 0.0
1.22933 -0.00632856 0.0
1.23111 -0.00673057 0.0
1.22081 -0.00668482 0.0
0.455002 -0.00395596 0.0
1.21768 -0.00324937 0.0
1.18352 -0.0058701 0.0
1.20211 -0.000968896 0.0
1.23355 -0.00743529 0.0
1.17039 -0.157832 0.0
1.12951 0.00165872 0.0
1.23456 -0.00736211 0.0
1.35089 0.668536 0.0
1.21819 -0.00632471 0.0
0.50881 -0.00711272 0.0
1.09782 -0.0219609 0.0
0.562354 0.00823829 0.0
0.595228 -0.00930019 0.0
1.11693 0.00695212 0.0
1.09779 -0.0122046 0.0
1.07161 -0.00760751 0.0
0.533661 -0.00800273 0.0
1.1036 -0.0216243 0.0
1.12374 0.00554138 0.0
1.23165 -0.00772614 0.0
1.07369 0.138962 0.0
1.15505 -0.696806 0.0
0.564153 -0.00465621 0.0
0.52223 -0.00535293 0.0
1.22678 -0.00568427 0.0
1.22849 -0.00809516 0.0
0.620272 -0.0183599 0.0
0.510405 -0.00924986 0.0
1.22395 -0.00490501 0.0
0.992648 0.0164718 0.0
1.16041 0.0113825 0.0
1.15556 -0.0073887 0.0
0.567741 0.00729546 0.0
0.51933 -0.00213854 0.0
1.14337 0.0171662 0.0
0.603866 0.0141304 0.0
0.569828 0.0146009 0.0
1.17274 0.00901598 0.0
0.620615 0.0206861 0.0
0.572546 -0.000748314 0.0
1.21406 -0.00396196 0.0
1.20138 -0.00301438 0.0
0.962314 0.0163277 0.0
1.21004 -0.00162991 0.0
1.18225 -0.00167096 0.0
1.21796 -0.00294166 0.0
0.983179 0.012568 0.0
1.15177 -0.0023323 0.0
0.608611 0.00581379 0.0
0.502241 0.0139745 0.0
0.551988 0.0142218 0.0
0.467122 -0.00788121 0.0
0.533334 0.000932397 0.0
0.557539 -0.00531269 0.0
0.5282 -0.00281466 0.0
0.640467 -0.0137751 0.0
0.540586 -0.00438155 0.0
0.575229 0.0133704 0.0
0.486927 -0.00758013 0.0
0.576991 0.0154875 0.0
0.493908 0.000229924 0.0
0.679194 0.0213015 0.0
0.578777 0.0100519 0.0
0.572746 -0.0114545 0.0
0.489364 0.00281236 0.0
0.528704 -0.00222662 0.0
0.510198 0.00790291 0.0
0.612533 -0.00973466 0.0
0.532776 -0.000661861 0.0
0.601836 -0.0076356 0.0
0.559791 -0.012345 0.0
0.545926 0.00674838 0.0
0.523723 0.000120357 0.0
0.538923 0.00419025 0.0
0.475869 -0.0169817 0.0
0.493447 0.0196995 0.0
0.49511 0.000543148 0.0
0.557361 -0.00714195 0.0
0.494898 0.00307535 0.0
0.646513 -0.0210523 0.0
0.492985 0.00631589 0.0
0.464115 0.0056532 0.0
0.504139 0.00104668 0.0
0.482485 -0.00258393 0.0
1.18054 -0.000893715 0.0
1.16136 -0.00633091 0.0
1.22655 -0.00730897 0.0
1.22406 -0.00491504 0.0
1.22725 -0.00514677 0.0
1.11967 -0.00797566 0.0
1.19775 -0.00704839 0.0
1.17904 -0.0068134 0.0
1.18145 0.00483939 0.0
1.15413 -0.00106624 0.0
1.21024 -0.00795489 0.0
1.21294 -0.0087095 0.0
1.17483 -0.00667373 0.0
1.21908 -0.00357442 0.0
1.19506 -0.000143502 0.0
1.22081 -0.00605267 0.0
1.19377 -0.00724509 0.0
1.15199 0.00195928 0.0
1.21709 -0.00615352 0.0
1.22214 -0.00413222 0.0
1.20722 -0.000714302 0.0
1.22077 -0.00345338 0.0
1.21666 -0.00483733 0.0
1.1563 -0.00897068 0.0
1.21998 -0.00170321 0.0
1.19721 -0.00338856 0.0
1.21694 -0.00109176 0.0
1.12076 -0.00153315 0.0
1.19898 -0.00242599 0.0
1.19121 0.00203435 0.0
1.21171 -0.00136242 0.0
1.17545 -0.00153889 0.0
1.2118 -0.00231264 0.0
1.21503 -0.00236187 0.0
1.18481 0.00452931 0.0
1.21515 -0.00130916 0.0
1.20774 -0.00411783 0.0
1.20974 0.000761512 0.0
1.15252 -0.00841194 0.0
1.17729 -0.00254469 0.0
1.21284 0.000532853 0.0
1.20512 -0.00340257 0.0
1.20134 0.00233082 0.0
1.19822 0.00374238 0.0
1.15992 -0.0125165 0.0
1.20985 0.000511074 0.0
1.20634 0.000874719 0.0
1.13783 -0.00599976 0.0
1.19301 -0.00435125 0.0
1.12199 0.00310483 0.0
1.17901 -0.00437231 0.0
1.1889 -0.00393916 0.0
1.20091 -0.00363511 0.0
1.20665 -0.00122938 0.0
1.17478 -0.00448419 0.0
1.20456 -0.00345731 0.0
1.2028 -0.000990551 0.0
1.20451 0.000564563 0.0
1.20078 0.00314315 0.0
1.19733 0.0034595 0.0
1.1943 0.00371318 0.0
1.18335 0.00603999 0.0
1.13595 -0.00636602 0.0
1.09389 0.00787575 0.0
1.17804 0.00709013 0.0
1.20046 0.00094621 0.0
0.577326 -0.0061538 0.0
1.18684 0.00600437 0.0
1.14788 0.00758441 0.0
1.16977 0.00791455 0.0
1.1982 0.00308019 0.0
1.16736 0.00758265 0.0
1.17733 0.00566068 0.0
1.17028 0.00027796 0.0
1.18933 0.00546602 0.0
1.17723 -0.000794472 0.0
1.1336 -0.00528095 0.0
1.13327 -0.00812177 0.0
1.15643 -0.00484091 0.0
1.18578 0.00668901 0.0
1.17408 -0.0041361 0.0
1.18414 0.00343389 0.0
1.16769 -0.00400835 0.0
1.18444 -0.0039306 0.0
1.18806 0.00287654 0.0
1.18137 0.00591237 0.0
0.9794 -0.0144207 0.0
1.17218 -0.00358662 0.0
1.17408 0.00781969 0.0
1.14506 0.009113 0.0
1.18925 -0.00234366 0.0
1.19286 0.000246147 0.0
1.08305 -0.0175699 0.0
1.16451 0.0109337 0.0
1.17811 -0.00354066 0.0
1.14656 0.0149259 0.0
1.18851 5.89749e-06 0.0
1.14956 0.0176031 0.0
1.16705 -0.00432022 0.0
1.19285 -0.00230225 0.0
1.17387 -0.00104831 0.0
1.11937 0.176577 0.0
1.15243 -0.00729389 0.0
1.22321 -0.0096775 0.0
1.16996 0.00951035 0.0
1.17437 0.00123165 0.0
1.15713 -0.0133151 0.0
1.16067 -0.00346605 0.0
1.13918 -0.00294807 0.0
1.16098 -0.00942505 0.0
1.16661 0.00276298 0.0
1.14069 -0.00106973 0.0
1.16163 0.00244016 0.0
1.16317 -0.00669741 0.0
1.16313 -0.00274494 0.0
1.14872 0.0119804 0.0
1.15911 -0.00509355 0.0
0.718782 -0.0204955 0.0
0.972504 0.00525012 0.0
1.14422 0.0142428 0.0
1.14677 0.00948617 0.0
1.15392 -0.0075471 0.0
1.14112 0.0118693 0.0
1.14751 0.0143087 0.0
1.14388 -0.00223197 0.0
1.12652 0.000971592 0.0
1.13886 -0.00300333 0.0
1.13242 0.00105429 0.0
1.12071 0.0120557 0.0
1.157 0.00575674 0.0
1.15138 0.00859787 0.0
0.995507 0.00896052 0.0
1.15248 0.0059543 0.0
1.15695 0.0116502 0.0
1.14991 0.0120854 0.0
1.11411 0.0151614 0.0
1.13582 0.0156197 0.0
1.15384 0.0126023 0.0
1.73544 0.181698 0.0
1.11889 -0.0103906 0.0
1.12693 0.0192215 0.0
1.0992 -0.0220933 0.0
1.1493 0.0217574 0.0
1.14723 0.0160783 0.0
1.11264 -0.0127571 0.0
1.14621 0.0218881 0.0
1.22416 -0.00657378 0.0
1.07021 -0.00948633 0.0
1.09909 0.0151898 0.0
1.09619 -0.00677918 0.0
1.30725 0.125984 0.0
1.21946 -0.00537885 0.0
1.08441 -0.00202936 0.0
1.15541 -0.00732088 0.0
1.13984 0.0281006 0.0
1.14652 0.0223595 0.0
1.08881 -0.00841124 0.0
1.09343 -0.0271538 0.0
0.981374 -0.0161633 0.0
1.1956 -0.00208316 0.0
1.06631 0.000719885 0.0
1.07587 0.000254892 0.0
1.12034 0.0246682 0.0
1.12048 -0.0265457 0.0
1.02973 0.198339 0.0
0.961322 -0.0161405 0.0
1.13604 0.0337267 0.0
0.441962 -0.164338 0.0
1.38221 0.131356 0.0
1.18136 -0.0520303 0.0
1.06404 0.0102975 0.0
1.06537 0.0257004 0.0
1.05368 0.0363791 0.0
1.22063 -0.00246522 0.0
1.05165 0.0143357 0.0
1.03728 -0.0439764 0.0
1.30216 0.175953 0.0
1.00309 -0.142365 0.0
1.03245 -0.0577122 0.0
1.15145 -0.133248 0.0
1.14957 -0.013114 0.0
1.09494 -0.0479597 0.0
1.18189 -0.00336294 0.0
0.936013 0.00179744 0.0
1.18096 0.0539718 0.0
1.00751 -0.0138231 0.0
1.23789 -0.101723 0.0
1.21796 -0.00556494 0.0
1.20541 -0.00636319 0.0
1.0547 -0.019904 0.0
1.39837 -0.567472 0.0
1.13224 0.0834141 0.0
0.994328 -0.0201974 0.0
1.1324 0.066859 0.0
0.956438 0.00151799 0.0
0.75851 0.0280654 0.0
1.08927 0.0449149 0.0
1.32725 -0.160587 0.0
0.932913 -0.0907399 0.0
1.0984 -0.0395076 0.0
0.632624 -0.556518 0.0
1.11096 -0.027895 0.0
1.11695 -0.00746357 0.0
1.15425 -0.00790366 0.0
1.39117 -0.139332 0.0
1.07999 0.0600208 0.0
1.18192 -0.00255613 0.0
1.04664 -0.0261514 0.0
1.16338 0.0361081 0.0
0.990058 -0.0183725 0.0
1.34994 -0.771789 0.0
1.22981 0.00437585 0.0
1.17962 0.0513711 0.0
1.20407 0.00277915 0.0
1.12706 -0.000797594 0.0
1.18049 -0.0564176 0.0
1.06591 0.020106 0.0
1.21089 0.0813946 0.0
1.12235 -0.00750721 0.0
1.1589 0.0440712 0.0
0.954355 0.00190399 0.0
1.15385 0.0109578 0.0
1.1805 -0.531636 0.0
0.660155 -0.00600314 0.0
0.681625 -0.0231008 0.0
0.924419 0.0271125 0.0
1.26622 0.119628 0.0
1.15318 -0.00585138 0.0
1.182 -0.00462515 0.0
0.607796 0.0101485 0.0
1.20233 -0.00553118 0.0
0.327817 -0.123517 0.0
1.0731 -0.0991658 0.0
0.549676 0.00939836 0.0
0.556318 -0.0106898 0.0
0.899056 0.0402909 0.0
1.15838 -0.00643845 0.0
0.863952 -0.174347 0.0
0.845809 -0.025404 0.0
1.68893 -0.125105 0.0
0.941768 0.0373785 0.0
1.15292 -0.0104582 0.0
1.15348 -0.0119346 0.0
1.05393 0.00863346 0.0
1.22668 0.00337937 0.0
1.18044 0.00122233 0.0
1.18511 0.348336 0.0
0.621158 0.0172973 0.0
1.02166 0.00186036 0.0
1.36964 -0.0978047 0.0
0.539132 0.00766112 0.0
1.58076 0.56095 0.0
0.933479 -0.0417156 0.0
0.79596 -0.0266474 0.0
1.34142 0.0881317 0.0
0.78155 -0.0538029 0.0
0.956653 -0.00143412 0.0
0.668376 -0.116124 0.0
1.15499 -0.0167676 0.0
0.881022 0.0996651 0.0
1.13488 -0.0143629 0.0
0.658419 -0.00413333 0.0
1.03086 0.00539492 0.0
0.980302 0.136233 0.0
1.4094 -0.0326296 0.0
0.522722 -0.00359617 0.0
0.636158 -0.02456 0.0
0.918747 0.805446 0.0
1.11045 -0.000801043 0.0
1.0519 0.0115731 0.0
1.39257 0.0136448 0.0
0.603071 -0.0104441 0.0
1.13144 0.0183744 0.0
1.16664 -0.448606 0.0
0.186485 0.0223942 0.0
0.924784 -0.0632277 0.0
1.06998 -0.0832448 0.0
0.735727 0.0239197 0.0
0.518758 0.0178355 0.0
1.64904 0.036421 0.0
1.15512 -0.00480546 0.0
0.311488 0.0152322 0.0
0.571272 0.024917 0.0
1.14463 -0.00588194 0.0
1.20419 -0.00590417 0.0
1.00343 -0.0190508 0.0
0.937661 0.0623682 0.0
1.20929 0.172607 0.0
0.641123 0.010773 0.0
1.20808 0.00711061 0.0
0.919204 0.0928301 0.0
1.21024 -0.00911059 0.0
1.38798 -0.59346 0.0
0.511003 0.00131911 0.0
1.45936 -0.129844 0.0
1.10993 0.00852053 0.0
0.948447 -0.0141289 0.0
0.621606 0.0903365 0.0
0.991007 0.101829 0.0
0.897477 0.139874 0.0
1.11258 0.00998827 0.0
1.21813 -0.0579245 0.0
1.39921 -0.036934 0.0
0.588088 0.00497891 0.0
0.612082 0.0149485 0.0
1.07277 -0.00360946 0.0
0.404543 -0.0728945 0.0
1.04413 0.0365659 0.0
0.493993 0.00339607 0.0
0.961609 -0.0112698 0.0
1.1114 -0.0042925 0.0
0.939491 -0.00922769 0.0
0.559572 -0.0066561 0.0
0.558418 0.018763 0.0
0.569358 0.00957172 0.0
0.507539 0.00702975 0.0
0.588502 0.0113588 0.0
1.21071 0.669601 0.0
1.36093 0.0696088 0.0
0.966795 -0.00331433 0.0
0.535789 0.00828069 0.0
0.547239 -0.0125775 0.0
0.700157 0.0249118 0.0
1.1571 -0.0473933 0.0
0.620153 0.001053 0.0
1.60376 -0.19311 0.0
1.29619 0.0954217 0.0
0.536786 -0.14069 0.0
1.3456 -0.093577 0.0
1.5268 -0.466861 0.0
1.01125 0.005435 0.0
1.09185 0.0184002 0.0
1.1395 -0.0121072 0.0
0.959882 0.00373003 0.0
0.837044 -0.689204 0.0
1.02865 -0.00187957 0.0
0.981131 -0.00590438 0.0
1.20478 -0.0133124 0.0
1.12293 -0.0340174 0.0
1.64832 -0.000108059 0.0
-0.12097 0.0977106 0.0
0.506196 -0.0686986 0.0
1.33616 0.518186 0.0
1.07233 -0.0118787 0.0
0.609674 -0.0119843 0.0
0.580807 -0.00573379 0.0
0.575503 -0.00614676 0.0
1.22806 0.00529534 0.0
0.633507 0.211182 0.0
1.17446 -0.0243124 0.0
0.977519 0.0128024 0.0
0.751025 0.162987 0.0
1.12531 -0.00115445 0.0
0.137889 -0.00964821 0.0
1.19388 0.00526782 0.0
0.566834 0.0207221 0.0
0.564738 -0.010501 0.0
1.33995 0.0854476 0.0
0.836984 -0.0115606 0.0
1.50626 0.0319543 0.0
0.974849 0.0155605 0.0
0.990557 0.0118781 0.0
0.111263 -0.166267 0.0
0.971194 0.0290832 0.0
1.16849 0.0134708 0.0
1.15178 0.0134662 0.0
0.355828 -0.136108 0.0
1.6163 -0.273239 0.0
1.09525 -0.000756713 0.0
1.28741 0.194934 0.0
0.590393 -0.0142096 0.0
0.556958 -0.0079004 0.0
1.12376 -0.0164549 0.0
0.530412 0.0896452 0.0
1.12433 -0.027002 0.0
0.80985 0.0217329 0.0
0.935831 -0.00823033 0.0
1.13067 0.012174 0.0
0.99474 -0.00278362 0.0
0.201884 -0.0209015 0.0
1.15039 -0.0136191 0.0
0.309738 0.0604692 0.0
1.01004 0.000163519 0.0
0.999362 -0.00357562 0.0
0.577021 -0.0152949 0.0
1.07344 -0.00920154 0.0
1.17446 -0.0245247 0.0
0.947323 0.00135361 0.0
0.992776 -0.0138449 0.0
1.2002 -0.964608 0.0
1.13216 0.0222043 0.0
1.69269 0.486957 0.0
0.549982 -0.0167113 0.0
0.539141 0.00659406 0.0
1.16617 0.00661702 0.0
1.2283 -0.006618 0.0
1.11452 -0.00834086 0.0
1.12314 -0.00153454 0.0
1.18047 0.00665375 0.0
1.13089 0.00624279 0.0
1.21971 -0.00958048 0.0
1.15072 0.0256594 0.0
-0.198498 0.0188097 0.0
1.10402 0.0148528 0.0
-0.0254535 0.0286301 0.0
0.664953 -0.0257213 0.0
1.2044 -0.177402 0.0
1.14894 -0.0127631 0.0
1.36843 -0.13791 0.0
1.64629 -0.50244 0.0
0.314249 -0.0181113 0.0
1.21389 -0.00906931 0.0
1.12901 0.272026 0.0
1.3515 -0.0982094 0.0
1.07137 0.305701 0.0
1.70947 0.0869227 0.0
0.975229 -0.542437 0.0
1.37208 0.132339 0.0
1.12212 -0.0164474 0.0
1.28962 -0.480968 0.0
-0.0874459 -0.108026 0.0
1.06105 -0.000121109 0.0
1.31864 -0.394862 0.0
0.491888 -0.00489694 0.0
1.41867 -0.149983 0.0
1.68465 0.198506 0.0
1.09137 0.013735 0.0
0.387961 0.0157748 0.0
0.71703 0.00183847 0.0
0.267865 -0.22844 0.0
0.957176 0.0459362 0.0
-0.118774 -0.0298944 0.0
1.14641 -0.162341 0.0
1.49643 0.143669 0.0
0.538013 0.00904235 0.0
1.22934 -0.068693 0.0
0.964073 0.000904568 0.0
1.21916 0.00447787 0.0
0.435143 -0.615499 0.0
1.22864 0.264385 0.0
0.729123 -0.162514 0.0
0.191331 -0.330916 0.0
0.517438 0.160695 0.0
1.3026 0.238506 0.0
0.597873 0.152165 0.0
0.969995 -0.0130267 0.0
1.14156 -0.0168132 0.0
1.08282 0.011059 0.0
1.07692 0.00872419 0.0
0.572828 0.0072787 0.0
0.0235327 0.0819986 0.0
1.3083 0.299797 0.0
0.469337 -0.00215767 0.0
1.10133 0.01041 0.0
0.264443 0.216294 0.0