# vtk DataFile Version 3.0
Malha 2D com triângulos e temperatura
ASCII
DATASET UNSTRUCTURED_GRID

POINTS 688 double
0 0 0
2.2 0 0
2.2 0.41 0
0 0.41 0
0.25 0.2 0
0.05 0 0
0.1 0 0
0.15 0 0
0.2 0 0
0.25 0 0
0.3 0 0
0.35 0 0
0.4 0 0
0.45 0 0
0.5 0 0
0.55 0 0
0.6 0 0
0.65 0 0
0.7 0 0
0.75 0 0
0.8 0 0
0.85 0 0
0.9 0 0
0.95 0 0
1 0 0
1.05 0 0
1.1 0 0
1.15 0 0
1.2 0 0
1.25 0 0
1.3 0 0
1.35 0 0
1.4 0 0
1.45 0 0
1.5 0 0
1.55 0 0
1.6 0 0
1.65 0 0
1.7 0 0
1.75 0 0
1.8 0 0
1.85 0 0
1.9 0 0
1.95 0 0
2 0 0
2.05 0 0
2.1 0 0
2.15 0 0
2.2 0.0455556 0
2.2 0.0911111 0
2.2 0.136667 0
2.2 0.182222 0
2.2 0.227778 0
2.2 0.273333 0
2.2 0.318889 0
2.2 0.364444 0
2.15 0.41 0
2.1 0.41 0
2.05 0.41 0
2 0.41 0
1.95 0.41 0
1.9 0.41 0
1.85 0.41 0
1.8 0.41 0
1.75 0.41 0
1.7 0.41 0
1.65 0.41 0
1.6 0.41 0
1.55 0.41 0
1.5 0.41 0
1.45 0.41 0
1.4 0.41 0
1.35 0.41 0
1.3 0.41 0
1.25 0.41 0
1.2 0.41 0
1.15 0.41 0
1.1 0.41 0
1.05 0.41 0
1 0.41 0
0.95 0.41 0
0.9 0.41 0
0.85 0.41 0
0.8 0.41 0
0.75 0.41 0
0.7 0.41 0
0.65 0.41 0
0.6 0.41 0
0.55 0.41 0
0.5 0.41 0
0.45 0.41 0
0.4 0.41 0
0.35 0.41 0
0.3 0.41 0
0.25 0.41 0
0.2 0.41 0
0.15 0.41 0
0.1 0.41 0
0.05 0.41 0
0 0.364444 0
0 0.318889 0
0 0.273333 0
0 0.227778 0
0 0.182222 0
0 0.136667 0
0 0.0911111 0
0 0.0455556 0
0.248831 0.210749 0
0.245379 0.220994 0
0.239805 0.230259 0
0.232369 0.238108 0
0.22342 0.244176 0
0.213376 0.248177 0
0.202707 0.249927 0
0.191911 0.249341 0
0.181493 0.246449 0
0.171941 0.241384 0
0.1637 0.234385 0
0.157157 0.225778 0
0.152617 0.215965 0
0.150293 0.205406 0
0.150293 0.194594 0
0.152617 0.184035 0
0.157157 0.174222 0
0.1637 0.165615 0
0.171941 0.158616 0
0.181493 0.153551 0
0.191911 0.150659 0
0.202707 0.150073 0
0.213376 0.151823 0
0.22342 0.155824 0
0.232369 0.161892 0
0.239805 0.169741 0
0.245379 0.179006 0
0.248831 0.189251 0
0.421316 0.36725 0
0.426705 0.0366526 0
2.16065 0.209201 0
1.52286 0.0417259 0
0.626017 0.37111 0
1.3257 0.0414552 0
1.02471 0.0432237 0
1.17293 0.0421053 0
0.82501 0.36678 0
1.6757 0.370064 0
1.91628 0.0358195 0
1.82501 0.366432 0
0.723429 0.0421499 0
1.425 0.366699 0
1.97461 0.366224 0
1.12167 0.370137 0
0.975 0.368691 0
0.877672 0.0412714 0
1.27686 0.36884 0
1.725 0.0433013 0
0.579174 0.0416211 0
0.325589 0.363848 0
0.319111 0.0378151 0
0.0394523 0.296111 0
0.0329929 0.11602 0
0.142108 0.187428 0
1.57555 0.364352 0
2.02603 0.0412138 0
0.725007 0.36763 0
0.528647 0.366595 0
1.62699 0.0400272 0
1.82929 0.0421255 0
1.425 0.0418325 0
2.07474 0.364233 0
0.125 0.0433013 0
0.161245 0.155011 0
0.225 0.366699 0
0.210027 0.258536 0
2.16034 0.115449 0
0.0371627 0.204103 0
0.142311 0.212698 0
0.220283 0.0418538 0
0.221965 0.145099 0
0.196802 0.141016 0
0.119851 0.373394 0
0.161112 0.245979 0
0.184892 0.258024 0
2.16342 0.30039 0
2.12627 0.047699 0
0.183325 0.0412617 0
0.152317 0.0762976 0
0.203864 0.0745802 0
0.234384 0.0774346 0
0.215969 0.103585 0
0.245651 0.104548 0
0.186562 0.100216 0
0.268213 0.0793029 0
0.272149 0.109155 0
0.242885 0.159377 0
0.253088 0.128261 0
0.278718 0.13214 0
0.295917 0.115997 0
0.301728 0.138858 0
0.321266 0.12205 0
0.324642 0.151724 0
0.255978 0.181139 0
0.350123 0.129049 0
0.357539 0.159885 0
0.333541 0.181416 0
0.36451 0.19182 0
0.250573 0.230419 0
0.391277 0.169722 0
0.339477 0.212308 0
0.39836 0.205386 0
0.427326 0.18117 0
0.258724 0.206387 0
0.434392 0.219501 0
0.466446 0.193907 0
0.472865 0.243064 0
0.507358 0.209962 0
0.40073 0.238916 0
0.499135 0.1652 0
0.5419 0.179224 0
0.550176 0.22496 0
0.585844 0.194129 0
0.594095 0.240176 0
0.630701 0.209517 0
0.621901 0.162424 0
0.667731 0.178095 0
0.676485 0.226008 0
0.713906 0.194492 0
0.722681 0.242872 0
0.760442 0.211047 0
0.751547 0.162356 0
0.798298 0.179 0
0.807147 0.227866 0
0.845136 0.195775 0
0.854541 0.243285 0
0.892163 0.212344 0
0.902461 0.257947 0
0.93935 0.228684 0
0.930236 0.180167 0
0.977229 0.197066 0
0.986264 0.245777 0
1.02423 0.213991 0
1.0331 0.263172 0
1.07123 0.230975 0
1.06234 0.181814 0
1.10938 0.198721 0
1.09996 0.151012 0
1.14691 0.168161 0
1.15631 0.215921 0
1.19446 0.183678 0
1.20343 0.232645 0
1.2416 0.200322 0
1.23272 0.151117 0
1.2798 0.167954 0
1.28868 0.217167 0
1.32685 0.184862 0
1.33573 0.234064 0
1.3739 0.201768 0
0.789327 0.130094 0
1.38279 0.25097 0
1.42096 0.218674 0
1.41207 0.169471 0
1.45912 0.186378 0
1.46801 0.235581 0
1.50618 0.203285 0
1.51506 0.252489 0
1.55323 0.220192 0
1.54435 0.170989 0
1.5914 0.187896 0
1.60029 0.2371 0
1.63846 0.204803 0
1.64734 0.254007 0
1.68551 0.221711 0
1.67663 0.172507 0
1.72368 0.189415 0
1.73831 0.241548 0
1.77074 0.206322 0
1.76185 0.157121 0
1.8091 0.17428 0
1.81866 0.220885 0
1.85608 0.190621 0
1.86521 0.238879 0
1.90289 0.207671 0
1.91264 0.253772 0
1.94955 0.224093 0
1.94067 0.17593 0
1.98705 0.192828 0
1.99572 0.240997 0
2.0329 0.209382 0
2.02422 0.16161 0
2.04166 0.257286 0
0.419739 0.142889 0
0.968291 0.148058 0
0.310035 0.202211 0
0.316128 0.230863 0
0.658501 0.130052 0
0.685107 0.27445 0
1.34462 0.283266 0
1.16528 0.264896 0
1.84735 0.142081 0
0.557687 0.270604 0
1.21234 0.281769 0
1.58252 0.138692 0
0.533563 0.131933 0
0.489835 0.120004 0
1.45024 0.137174 0
2.06974 0.17785 0
2.06113 0.130713 0
0.283221 0.152215 0
0.921299 0.131169 0
0.343836 0.24295 0
0.319203 0.260002 0
0.235529 0.249617 0
0.347029 0.274099 0
0.291856 0.246297 0
0.295938 0.27548 0
0.272836 0.264931 0
0.27461 0.290522 0
0.251228 0.280224 0
0.253903 0.305808 0
0.232795 0.296709 0
0.298805 0.304058 0
1.0801 0.280176 0
1.47689 0.284785 0
1.05315 0.133468 0
1.09741 0.0970974 0
1.82427 0.272867 0
1.2701 0.118911 0
0.816337 0.277695 0
1.40432 0.121101 0
1.04244 0.320388 0
0.959305 0.103028 0
1.60923 0.286151 0
0.601674 0.286775 0
2.00739 0.280923 0
0.342592 0.0992796 0
0.375237 0.105729 0
1.52511 0.298716 0
1.53114 0.119823 0
0.733824 0.287256 0
0.613372 0.114719 0
0.645558 0.0838585 0
2.015 0.115858 0
1.22718 0.0994086 0
1.39166 0.29817 0
1.3564 0.329754 0
0.744134 0.11556 0
0.782853 0.0841771 0
0.826899 0.10047 0
1.17418 0.314034 0
0.520902 0.0906676 0
1.4967 0.329429 0
1.26048 0.0740437 0
0.365514 0.0716355 0
0.229836 0.121666 0
1.57453 0.09137 0
1.61938 0.110761 0
0.481716 0.0753791 0
0.14093 0.2 0
0.130041 0.192847 0
0.131507 0.178608 0
0.117165 0.184444 0
0.120761 0.164701 0
0.1156 0.199931 0
0.100804 0.174136 0
0.102545 0.153034 0
0.12169 0.143342 0
0.104604 0.13008 0
0.0809304 0.161171 0
0.128077 0.121858 0
0.106825 0.102278 0
0.082498 0.188728 0
0.0314738 0.158621 0
2.04625 0.310891 0
2.08475 0.27479 0
2.11394 0.138117 0
0.233149 0.151108 0
0.258724 0.193613 0
0.268522 0.184917 0
1.65397 0.301059 0
0.145962 0.224912 0
0.132503 0.222267 0
0.13746 0.236947 0
0.120111 0.233525 0
0.126593 0.25219 0
0.105294 0.247497 0
0.113343 0.26868 0
0.133997 0.271734 0
0.121622 0.292031 0
0.147069 0.292141 0
0.0896563 0.267464 0
0.0813699 0.243294 0
0.163574 0.276939 0
0.172694 0.298517 0
0.1583 0.321483 0
0.186823 0.322499 0
0.173113 0.348195 0
0.0322087 0.250839 0
0.211694 0.124337 0
0.250615 0.169546 0
0.256243 0.157787 0
0.170796 0.14736 0
0.156755 0.141654 0
0.17187 0.131161 0
0.147502 0.152323 0
0.198129 0.260662 0
0.206368 0.271663 0
0.220945 0.26864 0
0.190489 0.270628 0
0.198813 0.286731 0
0.55749 0.322277 0
0.520166 0.299321 0
0.235199 0.330709 0
0.267109 0.337524 0
0.172324 0.25256 0
0.255974 0.218859 0
0.268327 0.214994 0
0.184197 0.143083 0
0.188721 0.129954 0
0.209694 0.139146 0
0.269223 0.244007 0
0.252374 0.255244 0
0.282229 0.0410487 0
1.21977 0.330016 0
1.25733 0.296346 0
2.09358 0.0890819 0
0.244373 0.240984 0
0.0838116 0.115786 0
0.0797544 0.0817835 0
0.237449 0.264854 0
0.247178 0.146225 0
0.270136 0.2 0
0.28023 0.191334 0
0.263476 0.170737 0
0.371486 0.368728 0
0.396124 0.330051 0
0.440314 0.325693 0
0.357693 0.329668 0
0.476576 0.362035 0
0.29587 0.222914 0
0.307627 0.175476 0
0.079599 0.0406461 0
0.146062 0.252571 0
0.15162 0.125025 0
0.417223 0.294608 0
0.457089 0.286958 0
0.036619 0.338729 0
0.0713014 0.322193 0
0.0735823 0.36704 0
0.041143 0.0722223 0
0.693501 0.32349 0
0.145406 0.175484 0
0.138777 0.164467 0
0.300367 0.0698839 0
0.167025 0.112083 0
0.146978 0.105544 0
0.151909 0.236762 0
0.444611 0.106436 0
0.909355 0.0817561 0
0.282901 0.370713 0
1.61474 0.330739 0
0.578053 0.368179 0
0.824695 0.0487848 0
2.09634 0.3213 0
2.02276 0.364865 0
2.12532 0.363702 0
1.09789 0.328757 0
0.161137 0.260089 0
2.07793 0.225752 0
2.12079 0.240944 0
2.0747 0.0437362 0
1.89402 0.158846 0
1.93154 0.128738 0
1.8848 0.111477 0
1.8384 0.0926484 0
1.87744 0.0655304 0
1.7913 0.0793874 0
1.9712 0.046671 0
1.92502 0.366682 0
1.94563 0.325156 0
1.89941 0.326645 0
1.87499 0.367178 0
1.84989 0.323491 0
1.7997 0.321303 0
1.77183 0.280326 0
1.75031 0.321965 0
1.77491 0.365615 0
2.11727 0.191885 0
0.883187 0.163467 0
1.71449 0.140266 0
1.667 0.125342 0
1.70591 0.0884759 0
1.67732 0.042286 0
1.52278 0.370513 0
1.37512 0.04128 0
1.34848 0.0834574 0
0.776093 0.367587 0
1.125 0.0433013 0
1.15 0.0866019 0
1.07442 0.0496847 0
0.974527 0.0370837 0
1.47464 0.0427918 0
1.44953 0.0873752 0
1.17595 0.362984 0
1.025 0.366699 0
0.925007 0.367031 0
0.95 0.323404 0
0.897321 0.326356 0
0.874563 0.367261 0
0.846552 0.324465 0
1.62923 0.156667 0
1.32319 0.13033 0
1.69342 0.270472 0
1.49568 0.156227 0
1.56237 0.268721 0
1.44 0.319169 0
1.43005 0.267892 0
1.36502 0.152565 0
0.993446 0.294003 0
1.30179 0.321101 0
1.18235 0.127964 0
1.25016 0.2491 0
1.29638 0.266841 0
1.11824 0.247967 0
1.12945 0.294699 0
1.01527 0.165035 0
0.836192 0.147197 0
1.4998 0.0831488 0
1.00655 0.118664 0
0.872896 0.117126 0
0.70523 0.146383 0
1.96013 0.276645 0
0.769406 0.257102 0
0.699552 0.0908977 0
2.1587 0.162257 0
1.97813 0.145326 0
0.646036 0.302035 0
0.799423 0.326603 0
0.515621 0.255445 0
1.72538 0.366474 0
1.97009 0.0998346 0
1.57108 0.313772 0
0.577925 0.14549 0
0.638911 0.256447 0
0.407352 0.0771641 0
0.525103 0.042511 0
0.674231 0.370698 0
1.69802 0.321701 0
0.56947 0.0908728 0
1.75459 0.110239 0
1.80084 0.126127 0
0.673535 0.0431435 0
1.57391 0.0465733 0
2.04571 0.0828469 0
0.10002 0.225545 0
0.0788152 0.21577 0
0.369719 0.224393 0
0.210352 0.308739 0
1.22342 0.0432967 0
[...]
CELL_DATA 1241
VECTORS velocity double
1.0143 -0.0042951 0.0
1.21724 0.0665345 0.0
0.447126 -0.00147092 0.0
0.945161 0.00170334 0.0
1.04371 0.00544314 0.0
1.42285 0.103148 0.0
1.13489 0.000159156 0.0
0.980303 -0.000843418 0.0
0.36319 0.0158187 0.0
1.17879 0.00139552 0.0
1.31247 -0.119983 0.0
1.31627 0.126543 0.0
0.865763 -0.160595 0.0
1.01549 0.0086332 0.0
0.990849 0.00658351 0.0
1.46634 -0.0328736 0.0
0.979199 0.000661014 0.0
0.47961 0.0603809 0.0
1.17276 0.0624088 0.0
1.64766 -0.254195 0.0
1.02119 0.00454516 0.0
1.05944 -0.0663096 0.0
1.0377 -0.000328164 0.0
1.25311 0.904906 0.0
1.07098 -0.00227684 0.0
1.02431 0.00277751 0.0
1.29898 -0.199433 0.0
1.07637 -0.0253939 0.0
1.32175 -0.0836644 0.0
1.46241 -0.0649001 0.0
1.33199 0.0902541 0.0
0.868241 -0.0368946 0.0
1.52043 0.0026742 0.0
1.01412 0.00690269 0.0
1.25675 -0.0565777 0.0
1.35888 0.156957 0.0
1.21271 -0.055393 0.0
1.05041 -0.167832 0.0
0.359562 0.0205046 0.0
1.38219 0.141353 0.0
1.7645 -0.179804 0.0
1.41328 -0.0454401 0.0
1.05282 -0.237186 0.0
0.502691 0.00682037 0.0
1.39921 -0.167232 0.0
0.498029 -0.00732684 0.0
1.2016 0.0990511 0.0
1.11528 0.025833 0.0
1.61302 -0.313105 0.0
1.2397 -0.010476 0.0
1.21403 0.000949781 0.0
1.29083 -0.417496 0.0
0.869543 -0.00364817 0.0
1.40868 -0.0823648 0.0
1.77524 -0.279608 0.0
1.51899 -0.0287082 0.0
1.15096 -0.0400189 0.0
1.12708 -0.000236563 0.0
1.65842 -0.0990871 0.0
1.68774 -0.199363 0.0
1.15855 0.847308 0.0
0.994559 -0.000144281 0.0
0.195604 0.035784 0.0
1.02712 0.00698305 0.0
-0.240036 0.0714408 0.0
1.33192 0.227577 0.0
-0.279579 0.0862015 0.0
1.16694 -0.00170162 0.0
0.863277 -0.0258824 0.0
0.218205 0.0244386 0.0
1.16773 -0.00542264 0.0
0.793446 0.0141424 0.0
1.16668 -0.00497472 0.0
0.791738 -0.0137252 0.0
1.20612 0.00723735 0.0
0.881295 0.157086 0.0
0.942547 0.00720242 0.0
1.63145 -0.0465022 0.0
0.979737 -0.0346142 0.0
0.612818 0.00126827 0.0
1.75194 -0.383006 0.0
1.1597 -0.24673 0.0
0.658218 0.0118967 0.0
1.26146 -0.227367 0.0
1.34581 0.170067 0.0
0.919406 -0.066742 0.0
1.20695 0.17805 0.0
0.0861008 0.0984646 0.0
1.83885 0.530387 0.0
1.19167 0.00329029 0.0
1.27212 0.0101982 0.0
-0.189642 -0.0110345 0.0
-0.347995 0.0782962 0.0
1.44318 -0.0646412 0.0
1.18242 -0.040739 0.0
0.985483 0.00125877 0.0
0.849263 -0.0258453 0.0
-0.184462 0.0905955 0.0
1.01785 -0.0113761 0.0
-0.24424 0.112579 0.0
1.08214 -0.098557 0.0
1.15875 -0.0148212 0.0
0.947197 0.0026064 0.0
1.63918 -0.161259 0.0
1.74235 -0.67064 0.0
1.27316 -0.397901 0.0
1.07134 -0.0619772 0.0
0.498292 -0.0236513 0.0
1.788 0.649654 0.0
1.22415 0.00319704 0.0
1.48536 -0.109207 0.0
1.23096 0.189686 0.0
0.131638 0.0759826 0.0
1.44146 -0.0270018 0.0
1.08012 0.014883 0.0
1.44262 0.0400887 0.0
1.41408 0.0047616 0.0
1.39194 0.052945 0.0
1.06601 -0.00220063 0.0
0.255337 0.0397221 0.0
1.19012 0.0421779 0.0
1.51966 0.581802 0.0
1.25161 0.108245 0.0
0.919977 -0.0634814 0.0
0.72686 -0.0993463 0.0
1.20477 0.0860479 0.0
1.44703 -0.042939 0.0
1.11879 0.0245418 0.0
1.74957 0.50139 0.0
0.549918 -0.0713175 0.0
1.16561 -0.014995 0.0
0.621971 -0.00172893 0.0
0.885938 0.0638818 0.0
1.60329 -0.0215907 0.0
1.01949 -0.15325 0.0
-0.27605 0.0745697 0.0
0.123185 0.0625245 0.0
1.22665 0.0822242 0.0
1.04867 -0.0252413 0.0
1.66383 -0.761311 0.0
1.50088 0.00357309 0.0
1.03542 0.00602954 0.0
1.07835 -0.245053 0.0
1.00497 0.00699194 0.0
1.52352 0.00722153 0.0
0.0223698 0.0311771 0.0
-0.254476 0.0380553 0.0
-0.182731 0.00602516 0.0
0.641648 0.0154031 0.0
0.652961 -0.0116749 0.0
0.555344 -0.101532 0.0
1.03491 -0.00710116 0.0
1.79634 -0.332604 0.0
1.0479 -0.153402 0.0
1.20282 -0.0491844 0.0
1.20456 0.0544225 0.0
0.484451 -0.000936709 0.0
1.64364 0.0738265 0.0
0.857141 0.0303738 0.0
1.24843 -0.0569909 0.0
-0.230504 0.0469847 0.0
1.74047 0.446503 0.0
1.14314 0.00821362 0.0
1.22204 -0.204902 0.0
1.1431 0.0341374 0.0
1.05422 0.130244 0.0
0.981989 -0.000629306 0.0
0.987064 0.109856 0.0
0.565723 -0.00350438 0.0
1.17144 -0.0341131 0.0
0.929176 -0.0246736 0.0
1.23417 0.00351001 0.0
1.36547 0.265543 0.0
1.19105 0.0866078 0.0
1.10497 0.00564173 0.0
1.11592 0.00644499 0.0
1.18261 0.198711 0.0
1.12009 -0.287606 0.0
1.11416 0.0120447 0.0
1.16602 -0.225273 0.0
1.11938 0.00910155 0.0
0.363127 0.110215 0.0
1.08768 -0.64437 0.0
0.730582 -0.127092 0.0
1.02472 -0.00857927 0.0
0.765702 -0.0789951 0.0
0.762224 -0.0636695 0.0
1.02751 0.00776479 0.0
1.05545 0.0959229 0.0
0.461053 0.0470126 0.0
0.889595 -0.829904 0.0
1.77863 0.345093 0.0
1.02836 -0.00208501 0.0
0.983615 0.00659884 0.0
0.667348 0.0602311 0.0
0.853001 0.0569199 0.0
0.397738 0.0590095 0.0
0.998827 -0.014992 0.0
1.42771 -0.0322273 0.0
1.44964 0.581445 0.0
1.15458 0.193115 0.0
1.06918 -0.0135478 0.0
1.42685 0.0384027 0.0
1.04163 -0.0923055 0.0
1.40107 -0.0914805 0.0
1.436 -0.0446933 0.0
0.483242 0.0244111 0.0
0.662357 0.0125889 0.0
0.900004 -0.0227526 0.0
0.857773 0.0335021 0.0
0.517958 0.0171242 0.0
0.514209 -0.00299775 0.0
1.79011 0.286518 0.0
1.11179 0.0116595 0.0
1.4407 -0.00356927 0.0
1.12154 0.0121764 0.0
0.731616 -0.0773812 0.0
1.51121 -0.0906844 0.0
1.17579 -0.0306413 0.0
1.16333 -0.0130005 0.0
0.833097 -0.0495832 0.0
1.67135 -0.070524 0.0
1.01022 0.0553448 0.0
0.996207 0.0113809 0.0
0.958822 -0.0261699 0.0
1.23257 0.0024982 0.0
1.43552 -0.137333 0.0
1.7298 -0.600866 0.0
1.18401 -0.00588793 0.0
1.20272 -0.0110288 0.0
0.991098 -0.000233235 0.0
1.06355 -0.132777 0.0
1.02885 -0.0101975 0.0
0.997138 -0.00669561 0.0
1.25792 0.310859 0.0
1.03831 -0.25662 0.0
1.09403 0.171554 0.0
1.31879 0.13241 0.0
0.74369 -0.106703 0.0
0.355088 -0.0454552 0.0
0.958886 0.015939 0.0
1.4387 0.0570252 0.0
1.42203 0.918328 0.0
0.682938 -0.0851893 0.0
1.15149 -0.0173055 0.0
1.70424 0.140331 0.0
1.09691 -0.898562 0.0
0.868426 -0.177616 0.0
1.1412 -0.0375449 0.0
0.559903 -0.00840462 0.0
1.02621 0.0270713 0.0
0.544393 -0.00967786 0.0
1.03161 -0.00474275 0.0
1.2252 0.00307515 0.0
0.618847 -0.0119218 0.0
0.775825 -0.0336679 0.0
1.09484 -0.28547 0.0
1.32609 -0.104605 0.0
1.22292 0.000802093 0.0
1.01989 -0.00170762 0.0
1.00236 0.00849041 0.0
0.50804 -0.00578833 0.0
1.22616 0.00580169 0.0
0.736866 -0.0260627 0.0
1.128 0.0434905 0.0
0.995392 -0.00996417 0.0
0.566895 0.00343374 0.0
1.24093 -0.109916 0.0
1.2274 -0.171013 0.0
0.789463 -0.0266338 0.0
1.13963 -0.0653049 0.0
0.585417 0.00169945 0.0
0.982985 -0.0152622 0.0
0.116374 0.0673787 0.0
1.20154 7.21795e-05 0.0
1.19734 -0.0104828 0.0
0.595525 -0.00400363 0.0
0.94254 -0.194238 0.0
0.987197 -0.0153104 0.0
1.42999 0.154445 0.0
1.19777 0.000981796 0.0
1.23376 -0.00135093 0.0
1.22356 -0.170782 0.0
1.23508 -0.00285922 0.0
1.23391 0.000829286 0.0
1.1715 -0.0170893 0.0
0.934818 -0.114535 0.0
0.835802 0.0428678 0.0
1.23492 -0.00507683 0.0
1.2321 -0.000740314 0.0
1.22746 -0.00192246 0.0
0.634932 0.0704986 0.0
0.457963 0.00501802 0.0
0.998146 0.00998024 0.0
0.546217 -0.00753027 0.0
1.23324 -0.0055805 0.0
1.00234 -0.0181218 0.0
1.16228 0.0102365 0.0
-0.261327 -0.0268303 0.0
0.9666 -0.0119177 0.0
0.500638 -0.00462113 0.0
1.31888 -0.604721 0.0
1.12254 -0.00732825 0.0
0.970612 -0.0158487 0.0
0.525254 -0.0101053 0.0
1.23315 -0.00320414 0.0
0.868412 0.0407381 0.0
0.533333 0.00162972 0.0
0.992791 -0.0153228 0.0
1.23341 -0.00564967 0.0
1.22635 -0.00267905 0.0
1.23155 -0.00322533 0.0
0.621774 -0.00711686 0.0
0.445223 0.000175421 0.0
1.23062 -0.00649994 0.0
1.14156 -0.0734682 0.0
1.20496 -0.0072365 0.0
0.603848 0.00999896 0.0
1.18507 -0.00813859 0.0
1.22403 -0.00569226 0.0
1.21105 0.000962422 0.0
1.23579 -0.00730551 0.0
0.466124 -0.00675401 0.0
1.22887 -0.00643673 0.0
1.23047 -0.00659898 0.0
1.2205 -0.00688793 0.0
0.455761 -0.00382367 0.0
1.21655 -0.00292362 0.0
1.18332 -0.00613937 0.0
1.20127 -0.00111004 0.0
1.23318 -0.0074254 0.0
1.17042 -0.157864 0.0
1.12941 0.00143491 0.0
1.23436 -0.00746657 0.0
1.35089 0.668534 0.0
1.21796 -0.00653996 0.0
0.50935 -0.00695089 0.0
1.0974 -0.0220666 0.0
0.564516 0.00808797 0.0
0.59471 -0.00934166 0.0
1.11741 0.00694167 0.0
1.09727 -0.0123576 0.0
1.07102 -0.00777543 0.0
0.533085 -0.00804162 0.0
1.10317 -0.0217596 0.0
1.12427 0.00553325 0.0
1.23154 -0.00784476 0.0
1.07378 0.138995 0.0
1.15505 -0.696809 0.0
0.563419 -0.0047409 0.0
0.521546 -0.00539614 0.0
1.22678 -0.00587469 0.0
1.22862 -0.00815591 0.0
0.619557 -0.0183175 0.0
0.509678 -0.00923157 0.0
1.22404 -0.00509643 0.0
0.992274 0.0165735 0.0
1.16105 0.0114084 0.0
1.15586 -0.00746164 0.0
0.566797 0.00716214 0.0
0.518319 -0.00220588 0.0
1.14368 0.0172159 0.0
0.602892 0.0141857 0.0
0.568882 0.0146523 0.0
1.17356 0.00902187 0.0
0.619318 0.020599 0.0
0.571144 -0.00083336 0.0
1.21432 -0.00424091 0.0
1.20168 -0.00334729 0.0
0.961904 0.0162569 0.0
1.21066 -0.00188951 0.0
1.18261 -0.00203224 0.0
1.21854 -0.00315993 0.0
0.982846 0.0123868 0.0
1.15192 -0.00275135 0.0
0.607505 0.00584111 0.0
0.500961 0.0140289 0.0
0.551095 0.0141679 0.0
0.466665 -0.008008 0.0
0.532805 0.000808693 0.0
0.556443 -0.00529797 0.0
0.52658 -0.00282756 0.0
0.640095 -0.0138023 0.0
0.541457 -0.00459023 0.0
0.574262 0.0133445 0.0
0.487029 -0.00746179 0.0
0.57647 0.0155228 0.0
0.4949 0.000116808 0.0
0.679026 0.0213144 0.0
0.578464 0.0100734 0.0
0.572332 -0.0114833 0.0
0.488695 0.00274561 0.0
0.527186 -0.00223033 0.0
0.509233 0.00787108 0.0
0.612093 -0.00976427 0.0
0.533256 -0.000935785 0.0
0.601497 -0.00765628 0.0
0.558996 -0.0123231 0.0
0.544884 0.00678512 0.0
0.522656 0.000104638 0.0
0.53822 0.00405109 0.0
0.477969 -0.0169942 0.0
0.492105 0.0196868 0.0
0.494282 0.000465606 0.0
0.556873 -0.00717312 0.0
0.494189 0.0031673 0.0
0.646295 -0.0210676 0.0
0.492109 0.00623858 0.0
0.464262 0.00547084 0.0
0.50577 0.000936242 0.0
0.483056 -0.00274288 0.0
1.18096 -0.00123846 0.0
1.16154 -0.00631428 0.0
1.22675 -0.0073813 0.0
1.22449 -0.00508063 0.0
1.22761 -0.00530881 0.0
1.11927 -0.00781942 0.0
1.19804 -0.00701077 0.0
1.17901 -0.00670037 0.0
1.18228 0.00471679 0.0
1.15445 -0.00142792 0.0
1.21045 -0.00793392 0.0
1.21307 -0.00867643 0.0
1.17486 -0.00656669 0.0
1.21977 -0.0036822 0.0
1.1957 -0.000412133 0.0
1.22123 -0.00610277 0.0
1.1941 -0.00721643 0.0
1.15237 0.00162015 0.0
1.21756 -0.00620722 0.0
1.22278 -0.00424557 0.0
1.20789 -0.000962504 0.0
1.22129 -0.00367705 0.0
1.21685 -0.00511388 0.0
1.15651 -0.00896449 0.0
1.22078 -0.00185241 0.0
1.1978 -0.00339254 0.0
1.21779 -0.00123103 0.0
1.12063 -0.00146407 0.0
1.19935 -0.00275369 0.0
1.19188 0.00178813 0.0
1.21271 -0.00145065 0.0
1.17579 -0.00149893 0.0
1.21263 -0.00236852 0.0
1.21584 -0.00242296 0.0
1.18564 0.00439211 0.0
1.21614 -0.0014031 0.0
1.20831 -0.00413904 0.0
1.21067 0.000609293 0.0
1.15281 -0.00849278 0.0
1.1776 -0.00250223 0.0
1.21375 0.000368688 0.0
1.20573 -0.00342083 0.0
1.20225 0.00216761 0.0
1.19914 0.00360291 0.0
1.16041 -0.0126626 0.0
1.21091 0.000409468 0.0
1.2074 0.000779353 0.0
1.13786 -0.00602428 0.0
1.19362 -0.00435267 0.0
1.12189 0.00317219 0.0
1.17954 -0.00439385 0.0
1.18967 -0.00399568 0.0
1.20176 -0.00367842 0.0
1.20769 -0.00129449 0.0
1.1753 -0.00451081 0.0
1.20541 -0.00350371 0.0
1.20382 -0.0010504 0.0
1.20564 0.000492562 0.0
1.20184 0.00305247 0.0
1.19837 0.00337409 0.0
1.19539 0.00365812 0.0
1.18428 0.00597898 0.0
1.13601 -0.00647145 0.0
1.09404 0.00784967 0.0
1.17892 0.00709318 0.0
1.20156 0.000879355 0.0
0.576712 -0.00620175 0.0
1.18779 0.00593849 0.0
1.14845 0.00758908 0.0
1.17056 0.00788749 0.0
1.19933 0.00302346 0.0
1.16814 0.00756314 0.0
1.17827 0.00562708 0.0
1.17114 0.000202526 0.0
1.19036 0.00543393 0.0
1.17811 -0.000892248 0.0
1.13365 -0.00531113 0.0
1.13335 -0.00821842 0.0
1.15681 -0.00497438 0.0
1.18677 0.00666397 0.0
1.17481 -0.00424338 0.0
1.18514 0.00337766 0.0
1.16826 -0.00408822 0.0
1.18518 -0.00398298 0.0
1.18912 0.00281928 0.0
1.18236 0.00588289 0.0
0.979013 -0.0139262 0.0
1.17277 -0.00367261 0.0
1.17495 0.00781662 0.0
1.14562 0.00911946 0.0
1.19017 -0.00241855 0.0
1.19392 0.000173732 0.0
1.08252 -0.0176951 0.0
1.1652 0.0109687 0.0
1.17889 -0.00364708 0.0
1.147 0.0150005 0.0
1.18952 -6.64879e-05 0.0
1.14976 0.0176697 0.0
1.16772 -0.00444551 0.0
1.19379 -0.00237975 0.0
1.1747 -0.00114378 0.0
1.11937 0.176575 0.0
1.15277 -0.00743733 0.0
1.22282 -0.00953698 0.0
1.17078 0.0095092 0.0
1.17529 0.00115559 0.0
1.1574 -0.0134735 0.0
1.16119 -0.00359103 0.0
1.1393 -0.00310435 0.0
1.16127 -0.00958846 0.0
1.16748 0.0027077 0.0
1.14081 -0.00121453 0.0
1.16244 0.00238036 0.0
1.1638 -0.00681425 0.0
1.16369 -0.0028738 0.0
1.1492 0.0120203 0.0
1.15985 -0.00520562 0.0
0.718607 -0.0205085 0.0
0.972216 0.00502326 0.0
1.14466 0.014277 0.0
1.14735 0.00949269 0.0
1.1546 -0.00765972 0.0
1.14127 0.011954 0.0
1.1478 0.0143755 0.0
1.14459 -0.00231253 0.0
1.1271 0.000930208 0.0
1.13951 -0.00308518 0.0
1.13305 0.00101237 0.0
1.12113 0.0120735 0.0
1.15777 0.00573413 0.0
1.15201 0.00860828 0.0
0.995173 0.00875482 0.0
1.15319 0.00592673 0.0
1.15746 0.0117079 0.0
1.15024 0.0121603 0.0
1.1145 0.0151741 0.0
1.13595 0.0157017 0.0
1.15431 0.0126509 0.0
1.73545 0.181681 0.0
1.11942 -0.0104763 0.0
1.12724 0.0192582 0.0
1.09954 -0.0221844 0.0
1.14938 0.0218323 0.0
1.14757 0.0161369 0.0
1.11312 -0.0128375 0.0
1.14639 0.0219513 0.0
1.22323 -0.00631616 0.0
1.07053 -0.00974524 0.0
1.09897 0.0152584 0.0
1.09668 -0.00683201 0.0
1.30723 0.126021 0.0
1.21866 -0.00548933 0.0
1.08388 -0.00218306 0.0
1.15534 -0.00763869 0.0
1.14004 0.0281493 0.0
1.1466 0.0224244 0.0
1.08925 -0.00845699 0.0
1.09374 -0.0272344 0.0
0.980742 -0.0157557 0.0
1.19424 -0.00162673 0.0
1.06671 0.000698806 0.0
1.0763 0.000232369 0.0
1.12062 0.024698 0.0
1.12013 -0.0266621 0.0
1.02974 0.198339 0.0
0.960895 -0.0157523 0.0
1.13622 0.0337692 0.0
0.442026 -0.164354 0.0
1.38217 0.131391 0.0
1.1814 -0.0521148 0.0
1.06441 0.0103008 0.0
1.06565 0.0257198 0.0
1.05394 0.0363917 0.0
1.21935 -0.00213511 0.0
1.05199 0.0143354 0.0
1.0375 -0.0440304 0.0
1.30216 0.175952 0.0
1.00317 -0.142399 0.0
1.03264 -0.0577595 0.0
1.1515 -0.133289 0.0
1.1493 -0.012953 0.0
1.09511 -0.048029 0.0
1.18141 -0.00355647 0.0
0.936292 0.00178963 0.0
1.181 0.0540182 0.0
1.00785 -0.0138521 0.0
1.23791 -0.101773 0.0
1.21725 -0.00567363 0.0
1.20491 -0.00655198 0.0
1.05505 -0.0199551 0.0
1.39837 -0.567471 0.0
1.13234 0.0834438 0.0
0.99463 -0.0202203 0.0
1.13252 0.0668922 0.0
0.956746 0.00150973 0.0
0.758362 0.0280808 0.0
1.08947 0.0449449 0.0
1.32725 -0.160587 0.0
0.933046 -0.0907746 0.0
1.09859 -0.0395847 0.0
0.632625 -0.55652 0.0
1.11061 -0.0279896 0.0
1.11662 -0.00729589 0.0
1.15431 -0.00783452 0.0
1.39115 -0.139369 0.0
1.08017 0.0600421 0.0
1.18138 -0.00276048 0.0
1.04696 -0.0261961 0.0
1.16349 0.0361624 0.0
0.989194 -0.0181163 0.0
1.34995 -0.77179 0.0
1.2279 0.00445288 0.0
1.17965 0.051432 0.0
1.20276 0.00272776 0.0
1.12693 -0.000869785 0.0
1.18052 -0.0564933 0.0
1.06594 0.020124 0.0
1.2108 0.0814188 0.0
1.12241 -0.00787324 0.0
1.15899 0.0441224 0.0
0.955619 0.00170188 0.0
1.15243 0.0112066 0.0
1.1805 -0.531637 0.0
0.659835 -0.00603996 0.0
0.681385 -0.0231367 0.0
0.92468 0.0271195 0.0
1.26623 0.119663 0.0
1.15315 -0.00618221 0.0
1.18207 -0.00499484 0.0
0.607542 0.010164 0.0
1.20228 -0.00582872 0.0
0.32791 -0.123525 0.0
1.07319 -0.0992077 0.0
0.549665 0.00922168 0.0
0.556087 -0.0108381 0.0
0.899291 0.040293 0.0
1.15839 -0.00635115 0.0
0.863952 -0.174347 0.0
0.846848 -0.0255247 0.0
1.68893 -0.125087 0.0
0.941709 0.0373854 0.0
1.15274 -0.0106827 0.0
1.15333 -0.012141 0.0
1.05373 0.00872335 0.0
1.22503 0.00338186 0.0
1.17961 0.00112085 0.0
1.18511 0.348334 0.0
0.620952 0.0173205 0.0
1.02094 0.00170389 0.0
1.36957 -0.0978389 0.0
0.538002 0.00770005 0.0
1.58076 0.560945 0.0
0.933711 -0.041748 0.0
0.796199 -0.0266657 0.0
1.34136 0.0881574 0.0
0.781758 -0.0538132 0.0
0.95577 -0.00129003 0.0
0.668426 -0.116156 0.0
1.15543 -0.016912 0.0
0.881012 0.0996602 0.0
1.13538 -0.0144851 0.0
0.658645 -0.00413624 0.0
1.03063 0.00549066 0.0
0.98042 0.136256 0.0
1.40942 -0.0326541 0.0
0.521103 -0.00358633 0.0
0.636355 -0.0245588 0.0
0.918747 0.805445 0.0
1.11054 -0.00103842 0.0
1.05186 0.0115812 0.0
1.39255 0.0136276 0.0
0.6028 -0.0104753 0.0
1.1317 0.0184847 0.0
1.16664 -0.448607 0.0
0.186485 0.0223941 0.0
0.924988 -0.0632535 0.0
1.0701 -0.0832906 0.0
0.735594 0.0239295 0.0
0.518928 0.0178443 0.0
1.64903 0.0363961 0.0
1.1552 -0.00521326 0.0
0.311488 0.0152321 0.0
0.571457 0.0249294 0.0
1.14458 -0.00601643 0.0
1.20406 -0.00619217 0.0
1.00251 -0.0188025 0.0
0.937858 0.0623858 0.0
1.20928 0.1726 0.0
0.640846 0.0107983 0.0
1.20641 0.00740369 0.0
0.919378 0.0928415 0.0
1.20968 -0.00886319 0.0
1.38798 -0.59346 0.0
0.510828 0.0012296 0.0
1.45934 -0.129881 0.0
1.11017 0.00856565 0.0
0.949338 -0.0142939 0.0
0.621602 0.0903352 0.0
0.991144 0.101855 0.0
0.897476 0.139873 0.0
1.11287 0.00995635 0.0
1.218 -0.0579697 0.0
1.39921 -0.0369347 0.0
0.587441 0.00502496 0.0
0.611529 0.0149927 0.0
1.07332 -0.00370706 0.0
0.404543 -0.0728942 0.0
1.04408 0.0365734 0.0
0.492355 0.00343788 0.0
0.962906 -0.0113283 0.0
1.11148 -0.0045182 0.0
0.94009 -0.00952782 0.0
0.558478 -0.00673252 0.0
0.557186 0.0187248 0.0
0.568196 0.0095766 0.0
0.510498 0.00715116 0.0
0.587416 0.0114492 0.0
1.21071 0.669599 0.0
1.36091 0.069595 0.0
0.965782 -0.00318906 0.0
0.53694 0.00810284 0.0
0.548744 -0.0127085 0.0
0.699973 0.0249364 0.0
1.15694 -0.0474382 0.0
0.619821 0.00108794 0.0
1.60378 -0.193103 0.0
1.29612 0.0954455 0.0
0.536901 -0.140688 0.0
1.34552 -0.0936136 0.0
1.52681 -0.466857 0.0
1.01093 0.00551995 0.0
1.09099 0.0186222 0.0
1.14005 -0.0122342 0.0
0.959602 0.00343221 0.0
0.837046 -0.689207 0.0
1.02793 -0.00200339 0.0
0.980114 -0.00575959 0.0
1.20444 -0.013142 0.0
1.12266 -0.0340971 0.0
1.64831 -0.000136208 0.0
-0.120916 0.0977384 0.0
0.506344 -0.0687128 0.0
1.33616 0.518184 0.0
1.07267 -0.0121439 0.0
0.608223 -0.0120543 0.0
0.579233 -0.00577467 0.0
0.573907 -0.00612363 0.0
1.22611 0.00546451 0.0
0.633591 0.211219 0.0
1.17452 -0.0244798 0.0
0.977127 0.0127368 0.0
0.75111 0.163028 0.0
1.12542 -0.00158953 0.0
0.138079 -0.00968107 0.0
1.19212 0.00557678 0.0
0.565584 0.020876 0.0
0.563263 -0.0104489 0.0
1.33998 0.0854738 0.0
0.838204 -0.0117091 0.0
1.50628 0.0319786 0.0
0.974461 0.0154854 0.0
0.990237 0.0117429 0.0
0.111398 -0.166264 0.0
0.97132 0.0291408 0.0
1.16921 0.0135269 0.0
1.15225 0.0135463 0.0
0.355893 -0.136139 0.0
1.61631 -0.273233 0.0
1.09493 -0.000649928 0.0
1.28744 0.194974 0.0
0.589353 -0.0141074 0.0
0.556191 -0.00774836 0.0
1.12384 -0.0166696 0.0
0.530567 0.089661 0.0
1.12465 -0.0271174 0.0
0.809727 0.0217489 0.0
0.93537 -0.00825388 0.0
1.13092 0.0122592 0.0
0.994938 -0.00316902 0.0
0.201884 -0.0209015 0.0
1.15006 -0.0134439 0.0
0.309767 0.0604598 0.0
1.00997 -0.000186647 0.0
1.0002 -0.00382409 0.0
0.575997 -0.0153979 0.0
1.07285 -0.00936206 0.0
1.17454 -0.0246852 0.0
0.94743 0.000910117 0.0
0.991896 -0.0136285 0.0
1.20021 -0.96461 0.0
1.1322 0.0223064 0.0
1.69269 0.48695 0.0
0.551858 -0.0167349 0.0
0.540903 0.00647696 0.0
1.16689 0.00652206 0.0
1.22833 -0.00664073 0.0
1.11441 -0.00845163 0.0
1.12313 -0.00167067 0.0
1.18109 0.00642194 0.0
1.13118 0.00599358 0.0
1.2194 -0.00945587 0.0
1.15073 0.0257165 0.0
-0.198427 0.018809 0.0
1.10391 0.0149322 0.0
-0.0253136 0.0287231 0.0
0.664563 -0.0256783 0.0
1.20442 -0.177438 0.0
1.14822 -0.0123394 0.0
1.36841 -0.13795 0.0
1.64629 -0.502435 0.0
0.314249 -0.0181112 0.0
1.21322 -0.00880523 0.0
1.129 0.272023 0.0
1.35142 -0.0982451 0.0
1.07137 0.3057 0.0
1.70948 0.0869016 0.0
0.975231 -0.542439 0.0
1.37208 0.132338 0.0
1.12214 -0.0164419 0.0
1.28963 -0.480968 0.0
-0.0873691 -0.108068 0.0
1.06052 -0.000204171 0.0
1.31864 -0.39486 0.0
0.494844 -0.00489108 0.0
1.41866 -0.149973 0.0
1.68465 0.198489 0.0
1.0915 0.0137243 0.0
0.391584 0.0156804 0.0
0.717031 0.00183651 0.0
0.267866 -0.228443 0.0
0.957108 0.0459448 0.0
-0.118704 -0.0299175 0.0
1.14644 -0.162376 0.0
1.49641 0.143706 0.0
0.537395 0.00907384 0.0
1.22932 -0.0687523 0.0
0.965218 0.000657173 0.0
1.21715 0.00470513 0.0
0.435144 -0.615502 0.0
1.22864 0.264383 0.0
0.729206 -0.162537 0.0
0.191332 -0.330918 0.0
0.517538 0.160695 0.0
1.3026 0.238505 0.0
0.597934 0.152191 0.0
0.969071 -0.0130885 0.0
1.14114 -0.0166006 0.0
1.08277 0.0111619 0.0
1.07671 0.00878646 0.0
0.571335 0.00730861 0.0
0.0236253 0.0820129 0.0
1.3083 0.299795 0.0
0.468124 -0.00220951 0.0
1.1015 0.0103136 0.0
0.264443 0.216292 0.0