# vtk DataFile Version 3.0
Malha 2D com triângulos e temperatura
ASCII
DATASET UNSTRUCTURED_GRID

POINTS 688 double
0 0 0
2.2 0 0
2.2 0.41 0
0 0.41 0
0.25 0.2 0
0.05 0 0
0.1 0 0
0.15 0 0
0.2 0 0
0.25 0 0
0.3 0 0
0.35 0 0
0.4 0 0
0.45 0 0
0.5 0 0
0.55 0 0
0.6 0 0
0.65 0 0
0.7 0 0
0.75 0 0
0.8 0 0
0.85 0 0
0.9 0 0
0.95 0 0
1 0 0
1.05 0 0
1.1 0 0
1.15 0 0
1.2 0 0
1.25 0 0
1.3 0 0
1.35 0 0
1.4 0 0
1.45 0 0
1.5 0 0
1.55 0 0
1.6 0 0
1.65 0 0
1.7 0 0
1.75 0 0
1.8 0 0
1.85 0 0
1.9 0 0
1.95 0 0
2 0 0
2.05 0 0
2.1 0 0
2.15 0 0
2.2 0.0455556 0
2.2 0.0911111 0
2.2 0.136667 0
2.2 0.182222 0
2.2 0.227778 0
2.2 0.273333 0
2.2 0.318889 0
2.2 0.364444 0
2.15 0.41 0
2.1 0.41 0
2.05 0.41 0
2 0.41 0
1.95 0.41 0
1.9 0.41 0
1.85 0.41 0
1.8 0.41 0
1.75 0.41 0
1.7 0.41 0
1.65 0.41 0
1.6 0.41 0
1.55 0.41 0
1.5 0.41 0
1.45 0.41 0
1.4 0.41 0
1.35 0.41 0
1.3 0.41 0
1.25 0.41 0
1.2 0.41 0
1.15 0.41 0
1.1 0.41 0
1.05 0.41 0
1 0.41 0
0.95 0.41 0
0.9 0.41 0
0.85 0.41 0
0.8 0.41 0
0.75 0.41 0
0.7 0.41 0
0.65 0.41 0
0.6 0.41 0
0.55 0.41 0
0.5 0.41 0
0.45 0.41 0
0.4 0.41 0
0.35 0.41 0
0.3 0.41 0
0.25 0.41 0
0.2 0.41 0
0.15 0.41 0
0.1 0.41 0
0.05 0.41 0
0 0.364444 0
0 0.318889 0
0 0.273333 0
0 0.227778 0
0 0.182222 0
0 0.136667 0
0 0.0911111 0
0 0.0455556 0
0.248831 0.210749 0
0.245379 0.220994 0
0.239805 0.230259 0
0.232369 0.238108 0
0.22342 0.244176 0
0.213376 0.248177 0
0.202707 0.249927 0
0.191911 0.249341 0
0.181493 0.246449 0
0.171941 0.241384 0
0.1637 0.234385 0
0.157157 0.225778 0
0.152617 0.215965 0
0.150293 0.205406 0
0.150293 0.194594 0
0.152617 0.184035 0
0.157157 0.174222 0
0.1637 0.165615 0
0.171941 0.158616 0
0.181493 0.153551 0
0.191911 0.150659 0
0.202707 0.150073 0
0.213376 0.151823 0
0.22342 0.155824 0
0.232369 0.161892 0
0.239805 0.169741 0
0.245379 0.179006 0
0.248831 0.189251 0
0.421316 0.36725 0
0.426705 0.0366526 0
2.16065 0.209201 0
1.52286 0.0417259 0
0.626017 0.37111 0
1.3257 0.0414552 0
1.02471 0.0432237 0
1.17293 0.0421053 0
0.82501 0.36678 0
1.6757 0.370064 0
1.91628 0.0358195 0
1.82501 0.366432 0
0.723429 0.0421499 0
1.425 0.366699 0
1.97461 0.366224 0
1.12167 0.370137 0
0.975 0.368691 0
0.877672 0.0412714 0
1.27686 0.36884 0
1.725 0.0433013 0
0.579174 0.0416211 0
0.325589 0.363848 0
0.319111 0.0378151 0
0.0394523 0.296111 0
0.0329929 0.11602 0
0.142108 0.187428 0
1.57555 0.364352 0
2.02603 0.0412138 0
0.725007 0.36763 0
0.528647 0.366595 0
1.62699 0.0400272 0
1.82929 0.0421255 0
1.425 0.0418325 0
2.07474 0.364233 0
0.125 0.0433013 0
0.161245 0.155011 0
0.225 0.366699 0
0.210027 0.258536 0
2.16034 0.115449 0
0.0371627 0.204103 0
0.142311 0.212698 0
0.220283 0.0418538 0
0.221965 0.145099 0
0.196802 0.141016 0
0.119851 0.373394 0
0.161112 0.245979 0
0.184892 0.258024 0
2.16342 0.30039 0
2.12627 0.047699 0
0.183325 0.0412617 0
0.152317 0.0762976 0
0.203864 0.0745802 0
0.234384 0.0774346 0
0.215969 0.103585 0
0.245651 0.104548 0
0.186562 0.100216 0
0.268213 0.0793029 0
0.272149 0.109155 0
0.242885 0.159377 0
0.253088 0.128261 0
0.278718 0.13214 0
0.295917 0.115997 0
0.301728 0.138858 0
0.321266 0.12205 0
0.324642 0.151724 0
0.255978 0.181139 0
0.350123 0.129049 0
0.357539 0.159885 0
0.333541 0.181416 0
0.36451 0.19182 0
0.250573 0.230419 0
0.391277 0.169722 0
0.339477 0.212308 0
0.39836 0.205386 0
0.427326 0.18117 0
0.258724 0.206387 0
0.434392 0.219501 0
0.466446 0.193907 0
0.472865 0.243064 0
0.507358 0.209962 0
0.40073 0.238916 0
0.499135 0.1652 0
0.5419 0.179224 0
0.550176 0.22496 0
0.585844 0.194129 0
0.594095 0.240176 0
0.630701 0.209517 0
0.621901 0.162424 0
0.667731 0.178095 0
0.676485 0.226008 0
0.713906 0.194492 0
0.722681 0.242872 0
0.760442 0.211047 0
0.751547 0.162356 0
0.798298 0.179 0
0.807147 0.227866 0
0.845136 0.195775 0
0.854541 0.243285 0
0.892163 0.212344 0
0.902461 0.257947 0
0.93935 0.228684 0
0.930236 0.180167 0
0.977229 0.197066 0
0.986264 0.245777 0
1.02423 0.213991 0
1.0331 0.263172 0
1.07123 0.230975 0
1.06234 0.181814 0
1.10938 0.198721 0
1.09996 0.151012 0
1.14691 0.168161 0
1.15631 0.215921 0
1.19446 0.183678 0
1.20343 0.232645 0
1.2416 0.200322 0
1.23272 0.151117 0
1.2798 0.167954 0
1.28868 0.217167 0
1.32685 0.184862 0
1.33573 0.234064 0
1.3739 0.201768 0
0.789327 0.130094 0
1.38279 0.25097 0
1.42096 0.218674 0
1.41207 0.169471 0
1.45912 0.186378 0
1.46801 0.235581 0
1.50618 0.203285 0
1.51506 0.252489 0
1.55323 0.220192 0
1.54435 0.170989 0
1.5914 0.187896 0
1.60029 0.2371 0
1.63846 0.204803 0
1.64734 0.254007 0
1.68551 0.221711 0
1.67663 0.172507 0
1.72368 0.189415 0
1.73831 0.241548 0
1.77074 0.206322 0
1.76185 0.157121 0
1.8091 0.17428 0
1.81866 0.220885 0
1.85608 0.190621 0
1.86521 0.238879 0
1.90289 0.207671 0
1.91264 0.253772 0
1.94955 0.224093 0
1.94067 0.17593 0
1.98705 0.192828 0
1.99572 0.240997 0
2.0329 0.209382 0
2.02422 0.16161 0
2.04166 0.257286 0
0.419739 0.142889 0
0.968291 0.148058 0
0.310035 0.202211 0
0.316128 0.230863 0
0.658501 0.130052 0
0.685107 0.27445 0
1.34462 0.283266 0
1.16528 0.264896 0
1.84735 0.142081 0
0.557687 0.270604 0
1.21234 0.281769 0
1.58252 0.138692 0
0.533563 0.131933 0
0.489835 0.120004 0
1.45024 0.137174 0
2.06974 0.17785 0
2.06113 0.130713 0
0.283221 0.152215 0
0.921299 0.131169 0
0.343836 0.24295 0
0.319203 0.260002 0
0.235529 0.249617 0
0.347029 0.274099 0
0.291856 0.246297 0
0.295938 0.27548 0
0.272836 0.264931 0
0.27461 0.290522 0
0.251228 0.280224 0
0.253903 0.305808 0
0.232795 0.296709 0
0.298805 0.304058 0
1.0801 0.280176 0
1.47689 0.284785 0
1.05315 0.133468 0
1.09741 0.0970974 0
1.82427 0.272867 0
1.2701 0.118911 0
0.816337 0.277695 0
1.40432 0.121101 0
1.04244 0.320388 0
0.959305 0.103028 0
1.60923 0.286151 0
0.601674 0.286775 0
2.00739 0.280923 0
0.342592 0.0992796 0
0.375237 0.105729 0
1.52511 0.298716 0
1.53114 0.119823 0
0.733824 0.287256 0
0.613372 0.114719 0
0.645558 0.0838585 0
2.015 0.115858 0
1.22718 0.0994086 0
1.39166 0.29817 0
1.3564 0.329754 0
0.744134 0.11556 0
0.782853 0.0841771 0
0.826899 0.10047 0
1.17418 0.314034 0
0.520902 0.0906676 0
1.4967 0.329429 0
1.26048 0.0740437 0
0.365514 0.0716355 0
0.229836 0.121666 0
1.57453 0.09137 0
1.61938 0.110761 0
0.481716 0.0753791 0
0.14093 0.2 0
0.130041 0.192847 0
0.131507 0.178608 0
0.117165 0.184444 0
0.120761 0.164701 0
0.1156 0.199931 0
0.100804 0.174136 0
0.102545 0.153034 0
0.12169 0.143342 0
0.104604 0.13008 0
0.0809304 0.161171 0
0.128077 0.121858 0
0.106825 0.102278 0
0.082498 0.188728 0
0.0314738 0.158621 0
2.04625 0.310891 0
2.08475 0.27479 0
2.11394 0.138117 0
0.233149 0.151108 0
0.258724 0.193613 0
0.268522 0.184917 0
1.65397 0.301059 0
0.145962 0.224912 0
0.132503 0.222267 0
0.13746 0.236947 0
0.120111 0.233525 0
0.126593 0.25219 0
0.105294 0.247497 0
0.113343 0.26868 0
0.133997 0.271734 0
0.121622 0.292031 0
0.147069 0.292141 0
0.0896563 0.267464 0
0.0813699 0.243294 0
0.163574 0.276939 0
0.172694 0.298517 0
0.1583 0.321483 0
0.186823 0.322499 0
0.173113 0.348195 0
0.0322087 0.250839 0
0.211694 0.124337 0
0.250615 0.169546 0
0.256243 0.157787 0
0.170796 0.14736 0
0.156755 0.141654 0
0.17187 0.131161 0
0.147502 0.152323 0
0.198129 0.260662 0
0.206368 0.271663 0
0.220945 0.26864 0
0.190489 0.270628 0
0.198813 0.286731 0
0.55749 0.322277 0
0.520166 0.299321 0
0.235199 0.330709 0
0.267109 0.337524 0
0.172324 0.25256 0
0.255974 0.218859 0
0.268327 0.214994 0
0.184197 0.143083 0
0.188721 0.129954 0
0.209694 0.139146 0
0.269223 0.244007 0
0.252374 0.255244 0
0.282229 0.0410487 0
1.21977 0.330016 0
1.25733 0.296346 0
2.09358 0.0890819 0
0.244373 0.240984 0
0.0838116 0.115786 0
0.0797544 0.0817835 0
0.237449 0.264854 0
0.247178 0.146225 0
0.270136 0.2 0
0.28023 0.191334 0
0.263476 0.170737 0
0.371486 0.368728 0
0.396124 0.330051 0
0.440314 0.325693 0
0.357693 0.329668 0
0.476576 0.362035 0
0.29587 0.222914 0
0.307627 0.175476 0
0.079599 0.0406461 0
0.146062 0.252571 0
0.15162 0.125025 0
0.417223 0.294608 0
0.457089 0.286958 0
0.036619 0.338729 0
0.0713014 0.322193 0
0.0735823 0.36704 0
0.041143 0.0722223 0
0.693501 0.32349 0
0.145406 0.175484 0
0.138777 0.164467 0
0.300367 0.0698839 0
0.167025 0.112083 0
0.146978 0.105544 0
0.151909 0.236762 0
0.444611 0.106436 0
0.909355 0.0817561 0
0.282901 0.370713 0
1.61474 0.330739 0
0.578053 0.368179 0
0.824695 0.0487848 0
2.09634 0.3213 0
2.02276 0.364865 0
2.12532 0.363702 0
1.09789 0.328757 0
0.161137 0.260089 0
2.07793 0.225752 0
2.12079 0.240944 0
2.0747 0.0437362 0
1.89402 0.158846 0
1.93154 0.128738 0
1.8848 0.111477 0
1.8384 0.0926484 0
1.87744 0.0655304 0
1.7913 0.0793874 0
1.9712 0.046671 0
1.92502 0.366682 0
1.94563 0.325156 0
1.89941 0.326645 0
1.87499 0.367178 0
1.84989 0.323491 0
1.7997 0.321303 0
1.77183 0.280326 0
1.75031 0.321965 0
1.77491 0.365615 0
2.11727 0.191885 0
0.883187 0.163467 0
1.71449 0.140266 0
1.667 0.125342 0
1.70591 0.0884759 0
1.67732 0.042286 0
1.52278 0.370513 0
1.37512 0.04128 0
1.34848 0.0834574 0
0.776093 0.367587 0
1.125 0.0433013 0
1.15 0.0866019 0
1.07442 0.0496847 0
0.974527 0.0370837 0
1.47464 0.0427918 0
1.44953 0.0873752 0
1.17595 0.362984 0
1.025 0.366699 0
0.925007 0.367031 0
0.95 0.323404 0
0.897321 0.326356 0
0.874563 0.367261 0
0.846552 0.324465 0
1.62923 0.156667 0
1.32319 0.13033 0
1.69342 0.270472 0
1.49568 0.156227 0
1.56237 0.268721 0
1.44 0.319169 0
1.43005 0.267892 0
1.36502 0.152565 0
0.993446 0.294003 0
1.30179 0.321101 0
1.18235 0.127964 0
1.25016 0.2491 0
1.29638 0.266841 0
1.11824 0.247967 0
1.12945 0.294699 0
1.01527 0.165035 0
0.836192 0.147197 0
1.4998 0.0831488 0
1.00655 0.118664 0
0.872896 0.117126 0
0.70523 0.146383 0
1.96013 0.276645 0
0.769406 0.257102 0
0.699552 0.0908977 0
2.1587 0.162257 0
1.97813 0.145326 0
0.646036 0.302035 0
0.799423 0.326603 0
0.515621 0.255445 0
1.72538 0.366474 0
1.97009 0.0998346 0
1.57108 0.313772 0
0.577925 0.14549 0
0.638911 0.256447 0
0.407352 0.0771641 0
0.525103 0.042511 0
0.674231 0.370698 0
1.69802 0.321701 0
0.56947 0.0908728 0
1.75459 0.110239 0
1.80084 0.126127 0
0.673535 0.0431435 0
1.57391 0.0465733 0
2.04571 0.0828469 0
0.10002 0.225545 0
0.0788152 0.21577 0
0.369719 0.224393 0
0.210352 0.308739 0
1.22342 0.0432967 0
[...]
CELL_DATA 1241
VECTORS velocity double
1.01953 -0.00405676 0.0
1.21584 0.0671072 0.0
0.465327 -0.000666764 0.0
0.952745 0.00255326 0.0
1.04005 0.00629877 0.0
1.42266 0.102931 0.0
1.13243 0.000169881 0.0
0.986343 -0.000841479 0.0
0.363653 0.0156946 0.0
1.17213 0.00168457 0.0
1.31247 -0.119987 0.0
1.31627 0.126527 0.0
0.865764 -0.160588 0.0
1.01366 0.00745966 0.0
0.989199 0.0072108 0.0
1.46605 -0.032602 0.0
0.97778 0.0013804 0.0
0.479583 0.0603671 0.0
1.1711 0.0629371 0.0
1.64769 -0.25401 0.0
1.02471 0.00582965 0.0
1.05922 -0.0662333 0.0
1.03386 0.00054564 0.0
1.25313 0.904882 0.0
1.07141 -0.00205795 0.0
1.02804 0.00392506 0.0
1.29891 -0.199327 0.0
1.07611 -0.025301 0.0
1.32175 -0.0836667 0.0
1.46216 -0.0646631 0.0
1.33199 0.0902432 0.0
0.866374 -0.0370986 0.0
1.52001 0.00232552 0.0
1.01233 0.00584287 0.0
1.25523 -0.0570759 0.0
1.35875 0.156792 0.0
1.21097 -0.055841 0.0
1.05042 -0.167828 0.0
0.359551 0.0204971 0.0
1.38204 0.141175 0.0
1.76466 -0.179566 0.0
1.41362 -0.0452071 0.0
1.05282 -0.237151 0.0
0.521213 0.00713866 0.0
1.39912 -0.167065 0.0
0.515105 -0.00528314 0.0
1.20216 0.0995506 0.0
1.11312 0.0264159 0.0
1.61305 -0.312955 0.0
1.24008 -0.0107666 0.0
1.20392 0.00119731 0.0
1.29085 -0.417476 0.0
0.869926 -0.0037723 0.0
1.40775 -0.0827654 0.0
1.77539 -0.279423 0.0
1.51855 -0.0291063 0.0
1.14845 -0.0406547 0.0
1.1249 -0.000218296 0.0
1.65866 -0.0988419 0.0
1.68776 -0.199119 0.0
1.15857 0.84728 0.0
0.999742 2.12451e-05 0.0
0.196192 0.0354194 0.0
1.03023 0.0080377 0.0
-0.240329 0.0713613 0.0
1.33192 0.227552 0.0
-0.279092 0.0865991 0.0
1.16041 2.36697e-05 0.0
0.861595 -0.0260442 0.0
0.218885 0.0246902 0.0
1.1613 -0.00351851 0.0
0.793846 0.0139566 0.0
1.16036 -0.00297837 0.0
0.79229 -0.0140896 0.0
1.19553 0.00766879 0.0
0.881282 0.157061 0.0
0.943237 0.00567283 0.0
1.63169 -0.0461855 0.0
0.978656 -0.0347782 0.0
0.610327 0.000922254 0.0
1.75204 -0.382866 0.0
1.15968 -0.246669 0.0
0.653374 0.0119768 0.0
1.26142 -0.227264 0.0
1.34581 0.170046 0.0
0.919299 -0.0666825 0.0
1.20775 0.178546 0.0
0.0870897 0.0988861 0.0
1.83893 0.530273 0.0
1.18237 0.00390433 0.0
1.2725 0.00997061 0.0
-0.189152 -0.0110841 0.0
-0.347788 0.0785959 0.0
1.44245 -0.0650363 0.0
1.18219 -0.0414941 0.0
0.991202 0.00122486 0.0
0.849846 -0.0261123 0.0
-0.18453 0.0906677 0.0
1.01499 -0.0100964 0.0
-0.243519 0.113171 0.0
1.08214 -0.0985562 0.0
1.15343 -0.012713 0.0
0.947543 0.00104833 0.0
1.63947 -0.161104 0.0
1.74251 -0.670625 0.0
1.27318 -0.397887 0.0
1.07182 -0.0623802 0.0
0.498875 -0.0233807 0.0
1.78812 0.64961 0.0
1.21262 0.00344421 0.0
1.48501 -0.109755 0.0
1.23168 0.190141 0.0
0.131936 0.0758234 0.0
1.44146 -0.0270085 0.0
1.07967 0.0149913 0.0
1.44262 0.0400793 0.0
1.41366 0.00503994 0.0
1.3916 0.0526779 0.0
1.06262 -0.00100771 0.0
0.256177 0.0401592 0.0
1.19045 0.04203 0.0
1.51969 0.581741 0.0
1.25175 0.108842 0.0
0.919821 -0.0634419 0.0
0.727578 -0.0996665 0.0
1.20546 0.0865779 0.0
1.44637 -0.0432862 0.0
1.11655 0.0250896 0.0
1.74974 0.501346 0.0
0.549897 -0.0713115 0.0
1.1599 -0.0130804 0.0
0.617159 -0.00153292 0.0
0.885729 0.063831 0.0
1.60309 -0.0212238 0.0
1.02039 -0.153727 0.0
-0.27588 0.0746059 0.0
0.123401 0.0621176 0.0
1.22521 0.0826797 0.0
1.04791 -0.0253672 0.0
1.66396 -0.761316 0.0
1.50088 0.00356814 0.0
1.03431 0.00430683 0.0
1.07834 -0.245015 0.0
1.0044 0.00710036 0.0
1.52388 0.00756071 0.0
0.0233062 0.0314661 0.0
-0.254384 0.0378855 0.0
-0.181969 0.00617727 0.0
0.639601 0.0148707 0.0
0.650256 -0.0122311 0.0
0.555332 -0.101522 0.0
1.03428 -0.00722404 0.0
1.79648 -0.332456 0.0
1.04874 -0.153877 0.0
1.20282 -0.0491846 0.0
1.20456 0.0544163 0.0
0.503813 -0.000322999 0.0
1.64345 0.0734951 0.0
0.857741 0.0306692 0.0
1.24678 -0.0573956 0.0
-0.230588 0.0473794 0.0
1.74051 0.446363 0.0
1.14204 0.00616133 0.0
1.22204 -0.204903 0.0
1.14119 0.0347675 0.0
1.05422 0.130229 0.0
0.98735 -0.00145178 0.0
0.987071 0.109827 0.0
0.568829 -0.00300064 0.0
1.1718 -0.0347481 0.0
0.927638 -0.0249014 0.0
1.22132 0.00392193 0.0
1.36542 0.265426 0.0
1.1894 0.087044 0.0
1.10472 0.00411738 0.0
1.11592 0.00505047 0.0
1.18251 0.198605 0.0
1.1201 -0.287586 0.0
1.11339 0.00997736 0.0
1.16599 -0.225211 0.0
1.11933 0.0077334 0.0
0.363659 0.10998 0.0
1.08772 -0.6444 0.0
0.730551 -0.127076 0.0
1.02176 -0.00735872 0.0
0.765661 -0.0789699 0.0
0.762158 -0.0636427 0.0
1.02665 0.00604874 0.0
1.05545 0.0959129 0.0
0.461015 0.0470055 0.0
0.889636 -0.829947 0.0
1.77867 0.344908 0.0
1.028 -0.00199755 0.0
0.980781 0.00757236 0.0
0.667276 0.0602008 0.0
0.853563 0.0572705 0.0
0.397729 0.0590006 0.0
1.00437 -0.0145553 0.0
1.42771 -0.0322294 0.0
1.44966 0.58139 0.0
1.15458 0.193092 0.0
1.06866 -0.0137062 0.0
1.42685 0.0383979 0.0
1.04212 -0.0927488 0.0
1.4001 -0.0919394 0.0
1.43601 -0.0447025 0.0
0.483774 0.0245898 0.0
0.658849 0.0129321 0.0
0.898762 -0.0229363 0.0
0.856509 0.0336287 0.0
0.536563 0.0167979 0.0
0.523817 -0.00244479 0.0
1.79015 0.286304 0.0
1.11115 0.00949747 0.0
1.441 -0.00389804 0.0
1.12059 0.0101565 0.0
0.733775 -0.0777906 0.0
1.51095 -0.0912082 0.0
1.17626 -0.0311815 0.0
1.15767 -0.0109798 0.0
0.833097 -0.049582 0.0
1.67136 -0.0701812 0.0
1.00995 0.0552574 0.0
0.996652 0.0116379 0.0
0.957899 -0.0262961 0.0
1.22007 0.00302179 0.0
1.43512 -0.137909 0.0
1.72993 -0.600811 0.0
1.17955 -0.0061077 0.0
1.19531 -0.00961145 0.0
0.996024 -0.00116674 0.0
1.06355 -0.132775 0.0
1.02586 -0.00905485 0.0
0.994713 -0.00574207 0.0
1.25809 0.310852 0.0
1.03831 -0.256599 0.0
1.09524 0.172092 0.0
1.31844 0.132898 0.0
0.745474 -0.107107 0.0
0.355081 -0.0454531 0.0
0.958489 0.0158572 0.0
1.43871 0.0570126 0.0
1.42207 0.918302 0.0
0.682938 -0.0851845 0.0
1.1466 -0.0152728 0.0
1.70433 0.140054 0.0
1.09696 -0.898601 0.0
0.868428 -0.177606 0.0
1.13875 -0.0381193 0.0
0.570026 -0.00769574 0.0
1.0259 0.0269808 0.0
0.555532 -0.00917965 0.0
1.03001 -0.00371751 0.0
1.21329 0.0038471 0.0
0.630697 -0.0117759 0.0
0.77373 -0.0338411 0.0
1.09485 -0.285459 0.0
1.32551 -0.105252 0.0
1.21139 0.00174761 0.0
1.01716 -0.00162533 0.0
1.00754 0.00938575 0.0
0.518856 -0.00538164 0.0
1.21378 0.00608249 0.0
0.734215 -0.0262607 0.0
1.12587 0.0440932 0.0
1.00044 -0.00955882 0.0
0.575797 0.00387701 0.0
1.24105 -0.110476 0.0
1.22774 -0.171574 0.0
0.787195 -0.0268139 0.0
1.14065 -0.0658972 0.0
0.597481 0.0014508 0.0
0.984716 -0.0138014 0.0
0.117045 0.067823 0.0
1.19305 0.000228609 0.0
1.19037 -0.00908962 0.0
0.607726 -0.00399307 0.0
0.943195 -0.194649 0.0
0.987239 -0.0138161 0.0
1.42968 0.155055 0.0
1.18857 0.00225641 0.0
1.22148 -0.000321127 0.0
1.22356 -0.170783 0.0
1.22338 -0.00193518 0.0
1.22161 0.00134943 0.0
1.17208 -0.0169114 0.0
0.936464 -0.114963 0.0
0.835802 0.0428637 0.0
1.22408 -0.00424728 0.0
1.22021 -5.64408e-05 0.0
1.21646 -0.00139754 0.0
0.634821 0.0704734 0.0
0.477323 0.00515075 0.0
0.995381 0.00987009 0.0
0.558927 -0.00738915 0.0
1.22255 -0.00437884 0.0
1.00288 -0.0163124 0.0
1.15566 0.0108758 0.0
-0.260764 -0.0269806 0.0
0.972839 -0.00996897 0.0
0.515446 -0.00383535 0.0
1.31902 -0.604755 0.0
1.12167 -0.00747526 0.0
0.973821 -0.0143127 0.0
0.537625 -0.00954496 0.0
1.22192 -0.00224692 0.0
0.866985 0.0408974 0.0
0.54605 0.00158162 0.0
0.994573 -0.0135403 0.0
1.22301 -0.00479988 0.0
1.21572 -0.00211032 0.0
1.21974 -0.00205027 0.0
0.633498 -0.00664136 0.0
0.461427 0.000939779 0.0
1.22105 -0.00585174 0.0
1.14244 -0.074025 0.0
1.19791 -0.00680786 0.0
0.615812 0.00980632 0.0
1.18002 -0.00785967 0.0
1.2134 -0.00416173 0.0
1.2013 0.00124492 0.0
1.22571 -0.0062695 0.0
0.479632 -0.00624229 0.0
1.21971 -0.00575659 0.0
1.22031 -0.00534431 0.0
1.21251 -0.00646517 0.0
0.470449 -0.00341072 0.0
1.20628 -0.00149683 0.0
1.1784 -0.00581515 0.0
1.19294 -0.000842137 0.0
1.22359 -0.00641267 0.0
1.1709 -0.158342 0.0
1.12716 0.00136137 0.0
1.22522 -0.00678671 0.0
1.35091 0.668495 0.0
1.21031 -0.00612446 0.0
0.522947 -0.00655613 0.0
1.09362 -0.0223402 0.0
0.576819 0.0080193 0.0
0.590066 -0.00939146 0.0
1.12253 0.0069123 0.0
1.0932 -0.0123898 0.0
1.06691 -0.00763899 0.0
0.528282 -0.00808497 0.0
1.09934 -0.0220064 0.0
1.12957 0.0055074 0.0
1.22285 -0.00720285 0.0
1.0752 0.139504 0.0
1.15516 -0.696861 0.0
0.558756 -0.00455604 0.0
0.516745 -0.00535983 0.0
1.21884 -0.00563418 0.0
1.22062 -0.00751043 0.0
0.615904 -0.0189619 0.0
0.505008 -0.00961325 0.0
1.21654 -0.00495787 0.0
0.990737 0.0152596 0.0
1.16433 0.0107543 0.0
1.154 -0.00654797 0.0
0.562621 0.00741154 0.0
0.514211 -0.00207959 0.0
1.14661 0.017289 0.0
0.601941 0.0134076 0.0
0.567366 0.0142209 0.0
1.17521 0.0078365 0.0
0.617685 0.0208514 0.0
0.569912 -0.000549863 0.0
1.20814 -0.0045981 0.0
1.19662 -0.00408486 0.0
0.963504 0.0146985 0.0
1.20592 -0.00290658 0.0
1.17904 -0.00317483 0.0
1.21302 -0.00377786 0.0
0.985661 0.010509 0.0
1.14969 -0.00358404 0.0
0.612689 0.00616225 0.0
0.507041 0.0140035 0.0
0.557381 0.0132264 0.0
0.477393 -0.0084297 0.0
0.542284 0.00016255 0.0
0.562388 -0.00484359 0.0
0.527865 -0.00231672 0.0
0.636015 -0.0139174 0.0
0.555732 -0.00473094 0.0
0.578979 0.0126425 0.0
0.499239 -0.0069613 0.0
0.571404 0.0155839 0.0
0.509859 -0.00010228 0.0
0.67642 0.0214961 0.0
0.574212 0.0102628 0.0
0.567994 -0.0116173 0.0
0.497591 0.00229063 0.0
0.53156 -0.00189683 0.0
0.514909 0.00731538 0.0
0.607685 -0.00983929 0.0
0.546966 -0.00148858 0.0
0.597585 -0.00777728 0.0
0.555382 -0.0127008 0.0
0.544509 0.00606706 0.0
0.526869 -0.00031972 0.0
0.546511 0.00307207 0.0
0.492462 -0.0165146 0.0
0.490039 0.0199565 0.0
0.489593 0.000704474 0.0
0.552248 -0.00726349 0.0
0.50306 0.00341261 0.0
0.643343 -0.0212238 0.0
0.499289 0.00541371 0.0
0.477929 0.00489666 0.0
0.520955 0.00059411 0.0
0.497505 -0.00299115 0.0
1.17763 -0.00246918 0.0
1.15834 -0.00555546 0.0
1.21912 -0.00688625 0.0
1.21787 -0.00517459 0.0
1.22052 -0.00530307 0.0
1.1157 -0.00661985 0.0
1.1926 -0.00628032 0.0
1.17355 -0.00560435 0.0
1.18086 0.00296909 0.0
1.15255 -0.0029139 0.0
1.20387 -0.00716182 0.0
1.20601 -0.00775362 0.0
1.16978 -0.00560317 0.0
1.21454 -0.00391697 0.0
1.19216 -0.00186146 0.0
1.21468 -0.00573749 0.0
1.18908 -0.00657621 0.0
1.15064 1.18102e-05 0.0
1.21151 -0.00592469 0.0
1.21707 -0.00439477 0.0
1.20355 -0.00208773 0.0
1.21532 -0.0041934 0.0
1.21029 -0.00534903 0.0
1.15366 -0.00817246 0.0
1.21607 -0.00250801 0.0
1.19423 -0.00305672 0.0
1.21353 -0.00194865 0.0
1.11757 -0.000701208 0.0
1.19461 -0.00357805 0.0
1.18875 0.000231442 0.0
1.20999 -0.0020325 0.0
1.1721 -0.000980692 0.0
1.20892 -0.00256768 0.0
1.21167 -0.00258377 0.0
1.18387 0.00261263 0.0
1.21297 -0.00197339 0.0
1.20337 -0.00387447 0.0
1.20747 -0.000518069 0.0
1.15127 -0.00753223 0.0
1.17358 -0.00191498 0.0
1.21009 -0.000724666 0.0
1.20123 -0.00322621 0.0
1.19961 0.000688468 0.0
1.19688 0.00208368 0.0
1.16316 -0.012407 0.0
1.20878 -0.000524722 0.0
1.20571 -0.000160169 0.0
1.13522 -0.00504785 0.0
1.19045 -0.00401338 0.0
1.11897 0.00385747 0.0
1.17711 -0.00382127 0.0
1.18833 -0.00360803 0.0
1.19954 -0.00361702 0.0
1.20615 -0.00157738 0.0
1.17325 -0.00390864 0.0
1.20277 -0.00346626 0.0
1.20272 -0.00129497 0.0
1.20526 -9.57146e-05 0.0
1.20063 0.00178612 0.0
1.19757 0.00212054 0.0
1.19631 0.00284599 0.0
1.18408 0.00448453 0.0
1.13424 -0.00535971 0.0
1.0933 0.0059287 0.0
1.18031 0.00588378 0.0
1.20159 0.000337503 0.0
0.571957 -0.0061537 0.0
1.1873 0.00438837 0.0
1.14847 0.00591351 0.0
1.17046 0.00623457 0.0
1.19988 0.00218375 0.0
1.16838 0.00603271 0.0
1.18163 0.00511734 0.0
1.17502 0.000282225 0.0
1.19153 0.00438085 0.0
1.18055 -0.000666538 0.0
1.13132 -0.00425521 0.0
1.13191 -0.00699661 0.0
1.15659 -0.00410294 0.0
1.18827 0.00564738 0.0
1.1761 -0.00372427 0.0
1.18781 0.00306702 0.0
1.16813 -0.00329939 0.0
1.18422 -0.0035315 0.0
1.1915 0.00244099 0.0
1.18545 0.00534785 0.0
0.983962 -0.011798 0.0
1.17229 -0.0029694 0.0
1.17837 0.00710845 0.0
1.14587 0.00747194 0.0
1.19054 -0.00222422 0.0
1.19522 2.9992e-05 0.0
1.0783 -0.0177803 0.0
1.16836 0.0102751 0.0
1.17991 -0.00317258 0.0
1.14798 0.0138681 0.0
1.19117 -0.000141295 0.0
1.15159 0.0178801 0.0
1.17052 -0.00403711 0.0
1.19378 -0.00226038 0.0
1.17737 -0.000856269 0.0
1.11938 0.176545 0.0
1.15282 -0.00658504 0.0
1.21369 -0.00807637 0.0
1.17437 0.00887073 0.0
1.17897 0.00116729 0.0
1.15825 -0.012896 0.0
1.16272 -0.00292757 0.0
1.13877 -0.00228381 0.0
1.16191 -0.00897811 0.0
1.17211 0.00250399 0.0
1.14048 -0.00045285 0.0
1.16715 0.00219866 0.0
1.16675 -0.00633538 0.0
1.16504 -0.00223454 0.0
1.15308 0.0118648 0.0
1.16419 -0.00509699 0.0
0.716128 -0.0206587 0.0
0.976089 0.00336139 0.0
1.14849 0.0141576 0.0
1.15192 0.00925204 0.0
1.15897 -0.00753522 0.0
1.14158 0.0116917 0.0
1.14942 0.0139665 0.0
1.14988 -0.00240156 0.0
1.13249 0.000843584 0.0
1.1447 -0.00317476 0.0
1.13859 0.000905445 0.0
1.1258 0.0121647 0.0
1.16267 0.00542856 0.0
1.15661 0.00832854 0.0
0.997968 0.00698381 0.0
1.1581 0.00564051 0.0
1.15994 0.0110998 0.0
1.15175 0.0116872 0.0
1.11897 0.015253 0.0
1.13637 0.0155499 0.0
1.15692 0.0120793 0.0
1.73559 0.181423 0.0
1.12441 -0.010606 0.0
1.1309 0.0195201 0.0
1.10325 -0.0225822 0.0
1.14999 0.0222417 0.0
1.15053 0.0161564 0.0
1.11788 -0.0129409 0.0
1.14817 0.0222281 0.0
1.2129 -0.0047944 0.0
1.07254 -0.00915737 0.0
1.09718 0.0154311 0.0
1.10197 -0.0069561 0.0
1.30692 0.12658 0.0
1.20926 -0.00506301 0.0
1.08006 -0.0014884 0.0
1.15262 -0.00746232 0.0
1.14259 0.0285751 0.0
1.14724 0.0228652 0.0
1.09428 -0.00853 0.0
1.09722 -0.0275987 0.0
0.984014 -0.0138092 0.0
1.18545 -0.000182725 0.0
1.07167 0.00067585 0.0
1.08156 0.000197291 0.0
1.12409 0.0249206 0.0
1.1166 -0.0270684 0.0
1.02994 0.198334 0.0
0.9659 -0.0141447 0.0
1.1386 0.0341802 0.0
0.443022 -0.164589 0.0
1.38156 0.13194 0.0
1.18165 -0.052792 0.0
1.0692 0.0104374 0.0
1.06963 0.0259945 0.0
1.05762 0.0365813 0.0
1.20857 -0.000755201 0.0
1.05648 0.0144329 0.0
1.04025 -0.0444834 0.0
1.30216 0.175931 0.0
1.00423 -0.142885 0.0
1.03513 -0.0581571 0.0
1.15221 -0.133826 0.0
1.14462 -0.0115377 0.0
1.09718 -0.0485274 0.0
1.17536 -0.00329253 0.0
0.940345 0.00180781 0.0
1.18139 0.0546217 0.0
1.01233 -0.0140003 0.0
1.2381 -0.102363 0.0
1.20817 -0.00517891 0.0
1.19758 -0.00622029 0.0
1.05936 -0.0202021 0.0
1.39842 -0.567452 0.0
1.13393 0.0838664 0.0
0.998756 -0.0202902 0.0
1.13431 0.0673578 0.0
0.961159 0.0015151 0.0
0.756043 0.028304 0.0
1.09234 0.0453518 0.0
1.32725 -0.160596 0.0
0.934939 -0.0912097 0.0
1.10087 -0.0401146 0.0
0.632648 -0.556563 0.0
1.10705 -0.0284214 0.0
1.11325 -0.00620133 0.0
1.15046 -0.00698083 0.0
1.39091 -0.13991 0.0
1.08278 0.060333 0.0
1.17517 -0.00261197 0.0
1.05092 -0.026386 0.0
1.1648 0.0367244 0.0
0.989812 -0.0165634 0.0
1.35001 -0.771805 0.0
1.21544 0.00468459 0.0
1.18004 0.0521348 0.0
1.19348 0.00298288 0.0
1.12451 -0.000418133 0.0
1.18067 -0.0571602 0.0
1.06639 0.0204197 0.0
1.2093 0.0817974 0.0
1.1217 -0.00790846 0.0
1.16015 0.0446913 0.0
0.96244 0.00160464 0.0
1.14672 0.010822 0.0
1.18053 -0.531656 0.0
0.656053 -0.00626411 0.0
0.678232 -0.0234713 0.0
0.928619 0.0272727 0.0
1.26646 0.120185 0.0
1.15047 -0.00601795 0.0
1.17782 -0.00533554 0.0
0.603868 0.010328 0.0
1.19625 -0.00575888 0.0
0.329331 -0.123654 0.0
1.07451 -0.0996826 0.0
0.561805 0.00835795 0.0
0.566786 -0.0116382 0.0
0.902881 0.0403746 0.0
1.15422 -0.00542267 0.0
0.863951 -0.174334 0.0
0.855522 -0.02466 0.0
1.68892 -0.124795 0.0
0.940762 0.0374942 0.0
1.14905 -0.0105375 0.0
1.14976 -0.0120477 0.0
1.0517 0.00767181 0.0
1.21328 0.00361627 0.0
1.17286 0.00141591 0.0
1.18512 0.348302 0.0
0.617832 0.0176092 0.0
1.01686 0.00274094 0.0
1.36846 -0.0983311 0.0
0.539168 0.00720219 0.0
1.58079 0.560869 0.0
0.936938 -0.042062 0.0
0.799714 -0.0268744 0.0
1.34039 0.0885624 0.0
0.784835 -0.053891 0.0
0.955853 -0.000345288 0.0
0.669161 -0.116621 0.0
1.15817 -0.0166892 0.0
0.880856 0.0995852 0.0
1.13945 -0.0145606 0.0
0.662108 -0.00416376 0.0
1.02802 0.0055782 0.0
0.982297 0.136607 0.0
1.4097 -0.0330274 0.0
0.523775 -0.00324517 0.0
0.639379 -0.0245044 0.0
0.918756 0.80542 0.0
1.10969 -0.00106166 0.0
1.05114 0.0117099 0.0
1.39213 0.0133675 0.0
0.599356 -0.0107281 0.0
1.13177 0.0173956 0.0
1.16667 -0.448625 0.0
0.186482 0.0223923 0.0
0.927848 -0.0634817 0.0
1.07161 -0.0837866 0.0
0.733504 0.0240792 0.0
0.521601 0.0180009 0.0
1.64885 0.0360178 0.0
1.15278 -0.00585909 0.0
0.311487 0.0152305 0.0
0.574381 0.0251232 0.0
1.14358 -0.00548487 0.0
1.1978 -0.00608357 0.0
1.00245 -0.0171553 0.0
0.940942 0.0626687 0.0
1.20916 0.172488 0.0
0.636938 0.0110242 0.0
1.19594 0.0078734 0.0
0.922104 0.0930189 0.0
1.2011 -0.00722473 0.0
1.38803 -0.593454 0.0
0.522486 0.000536646 0.0
1.45901 -0.130444 0.0
1.10984 0.00688848 0.0
0.956063 -0.0135457 0.0
0.621545 0.0903154 0.0
0.993315 0.102261 0.0
0.897469 0.139856 0.0
1.11217 0.0080565 0.0
1.21621 -0.0584821 0.0
1.39921 -0.0369476 0.0
0.58268 0.00472073 0.0
0.606521 0.0149426 0.0
1.07497 -0.00341744 0.0
0.40454 -0.0728898 0.0
1.04327 0.0366924 0.0
0.496402 0.0037041 0.0
0.968207 -0.0111031 0.0
1.11044 -0.00438934 0.0
0.947345 -0.00930961 0.0
0.554757 -0.00618387 0.0
0.554846 0.0195027 0.0
0.570151 0.00881692 0.0
0.530226 0.00724187 0.0
0.588141 0.0105773 0.0
1.21073 0.669565 0.0
1.36063 0.0693848 0.0
0.964718 -0.00249553 0.0
0.551821 0.007606 0.0
0.563474 -0.0124188 0.0
0.697155 0.0252583 0.0
1.15472 -0.0479269 0.0
0.615451 0.00130802 0.0
1.60406 -0.192991 0.0
1.295 0.0958206 0.0
0.538641 -0.140678 0.0
1.34438 -0.0941159 0.0
1.52686 -0.466784 0.0
1.00833 0.00446472 0.0
1.09053 0.0178891 0.0
1.14422 -0.0122998 0.0
0.964362 0.00183491 0.0
0.837078 -0.689248 0.0
1.02384 -0.000855307 0.0
0.979042 -0.00497973 0.0
1.19657 -0.0114197 0.0
1.1196 -0.034584 0.0
1.6481 -0.000562598 0.0
-0.120066 0.0982232 0.0
0.508578 -0.0689366 0.0
1.33618 0.518144 0.0
1.075 -0.0117987 0.0
0.607355 -0.0112959 0.0
0.580127 -0.00495062 0.0
0.576101 -0.00536094 0.0
1.21359 0.00573915 0.0
0.634972 0.211788 0.0
1.17453 -0.0248971 0.0
0.977967 0.0110316 0.0
0.752482 0.163665 0.0
1.12463 -0.00273439 0.0
0.140977 -0.0102038 0.0
1.18275 0.00594154 0.0
0.570778 0.0207218 0.0
0.567935 -0.00987483 0.0
1.34047 0.0858987 0.0
0.847908 -0.0107508 0.0
1.50661 0.0323735 0.0
0.976121 0.0137477 0.0
0.992626 0.00992299 0.0
0.11348 -0.166224 0.0
0.976478 0.0280937 0.0
1.17066 0.0123242 0.0
1.15304 0.012396 0.0
0.35687 -0.136571 0.0
1.61658 -0.273142 0.0
1.0922 0.000163825 0.0
1.28793 0.195606 0.0
0.595645 -0.0133329 0.0
0.564315 -0.00695078 0.0
1.12313 -0.0168223 0.0
0.533048 0.0899165 0.0
1.1277 -0.0274723 0.0
0.807777 0.0219941 0.0
0.935443 -0.00961855 0.0
1.13118 0.0113765 0.0
1.00032 -0.0038381 0.0
0.201882 -0.0209007 0.0
1.14519 -0.0119099 0.0
0.310218 0.0603205 0.0
1.01354 -0.00165881 0.0
1.00542 -0.00374996 0.0
0.579599 -0.0159468 0.0
1.06864 -0.00898278 0.0
1.17461 -0.0249292 0.0
0.953438 -0.000167613 0.0
0.991624 -0.0121954 0.0
1.20027 -0.964648 0.0
1.13171 0.0223231 0.0
1.69272 0.486837 0.0
0.565473 -0.0157615 0.0
0.556218 0.00644639 0.0
1.16601 0.00457656 0.0
1.22 -0.0058895 0.0
1.11213 -0.00731208 0.0
1.12191 -0.000678548 0.0
1.17851 0.00451806 0.0
1.13036 0.00400169 0.0
1.21073 -0.00808402 0.0
1.1506 0.0261645 0.0
-0.19731 0.0187642 0.0
1.10201 0.0151026 0.0
-0.023187 0.0301092 0.0
0.660031 -0.0255402 0.0
1.20477 -0.177983 0.0
1.14347 -0.0100487 0.0
1.36817 -0.13852 0.0
1.64636 -0.502355 0.0
0.314249 -0.0181103 0.0
1.20418 -0.00710276 0.0
1.12898 0.271973 0.0
1.3503 -0.0987494 0.0
1.07138 0.30567 0.0
1.70957 0.0865798 0.0
0.975263 -0.542472 0.0
1.37208 0.13232 0.0
1.12246 -0.0163516 0.0
1.28966 -0.480971 0.0
-0.0861249 -0.108681 0.0
1.05745 0.00105885 0.0
1.31867 -0.394821 0.0
0.508194 -0.00474471 0.0
1.41854 -0.149801 0.0
1.6846 0.198241 0.0
1.09074 0.0117175 0.0
0.413613 0.0150267 0.0
0.71704 0.00180288 0.0
0.267877 -0.228487 0.0
0.956022 0.0460806 0.0
-0.117528 -0.0303202 0.0
1.14696 -0.162897 0.0
1.49602 0.144302 0.0
0.532336 0.00900106 0.0
1.22898 -0.0693723 0.0
0.971585 0.000279901 0.0
1.20535 0.0050154 0.0
0.435163 -0.61555 0.0
1.22864 0.264355 0.0
0.730458 -0.16289 0.0
0.191343 -0.330959 0.0
0.519163 0.160714 0.0
1.3026 0.238477 0.0
0.598969 0.152608 0.0
0.966159 -0.011665 0.0
1.13669 -0.0148156 0.0
1.0814 0.0106363 0.0
1.07376 0.00923529 0.0
0.57518 0.00758966 0.0
0.0249289 0.0821793 0.0
1.30831 0.299766 0.0
0.464899 -0.00170588 0.0
1.10095 0.00821512 0.0
0.264438 0.216254 0.0