# vtk DataFile Version 3.0
Malha 2D com triângulos e temperatura
ASCII
DATASET UNSTRUCTURED_GRID

POINTS 688 double
0 0 0
2.2 0 0
2.2 0.41 0
0 0.41 0
0.25 0.2 0
0.05 0 0
0.1 0 0
0.15 0 0
0.2 0 0
0.25 0 0
0.3 0 0
0.35 0 0
0.4 0 0
0.45 0 0
0.5 0 0
0.55 0 0
0.6 0 0
0.65 0 0
0.7 0 0
0.75 0 0
0.8 0 0
0.85 0 0
0.9 0 0
0.95 0 0
1 0 0
1.05 0 0
1.1 0 0
1.15 0 0
1.2 0 0
1.25 0 0
1.3 0 0
1.35 0 0
1.4 0 0
1.45 0 0
1.5 0 0
1.55 0 0
1.6 0 0
1.65 0 0
1.7 0 0
1.75 0 0
1.8 0 0
1.85 0 0
1.9 0 0
1.95 0 0
2 0 0
2.05 0 0
2.1 0 0
2.15 0 0
2.2 0.0455556 0
2.2 0.0911111 0
2.2 0.136667 0
2.2 0.182222 0
2.2 0.227778 0
2.2 0.273333 0
2.2 0.318889 0
2.2 0.364444 0
2.15 0.41 0
2.1 0.41 0
2.05 0.41 0
2 0.41 0
1.95 0.41 0
1.9 0.41 0
1.85 0.41 0
1.8 0.41 0
1.75 0.41 0
1.7 0.41 0
1.65 0.41 0
1.6 0.41 0
1.55 0.41 0
1.5 0.41 0
1.45 0.41 0
1.4 0.41 0
1.35 0.41 0
1.3 0.41 0
1.25 0.41 0
1.2 0.41 0
1.15 0.41 0
1.1 0.41 0
1.05 0.41 0
1 0.41 0
0.95 0.41 0
0.9 0.41 0
0.85 0.41 0
0.8 0.41 0
0.75 0.41 0
0.7 0.41 0
0.65 0.41 0
0.6 0.41 0
0.55 0.41 0
0.5 0.41 0
0.45 0.41 0
0.4 0.41 0
0.35 0.41 0
0.3 0.41 0
0.25 0.41 0
0.2 0.41 0
0.15 0.41 0
0.1 0.41 0
0.05 0.41 0
0 0.364444 0
0 0.318889 0
0 0.273333 0
0 0.227778 0
0 0.182222 0
0 0.136667 0
0 0.0911111 0
0 0.0455556 0
0.248831 0.210749 0
0.245379 0.220994 0
0.239805 0.230259 0
0.232369 0.238108 0
0.22342 0.244176 0
0.213376 0.248177 0
0.202707 0.249927 0
0.191911 0.249341 0
0.181493 0.246449 0
0.171941 0.241384 0
0.1637 0.234385 0
0.157157 0.225778 0
0.152617 0.215965 0
0.150293 0.205406 0
0.150293 0.194594 0
0.152617 0.184035 0
0.157157 0.174222 0
0.1637 0.165615 0
0.171941 0.158616 0
0.181493 0.153551 0
0.191911 0.150659 0
0.202707 0.150073 0
0.213376 0.151823 0
0.22342 0.155824 0
0.232369 0.161892 0
0.239805 0.169741 0
0.245379 0.179006 0
0.248831 0.189251 0
0.421316 0.36725 0
0.426705 0.0366526 0
2.16065 0.209201 0
1.52286 0.0417259 0
0.626017 0.37111 0
1.3257 0.0414552 0
1.02471 0.0432237 0
1.17293 0.0421053 0
0.82501 0.36678 0
1.6757 0.370064 0
1.91628 0.0358195 0
1.82501 0.366432 0
0.723429 0.0421499 0
1.425 0.366699 0
1.97461 0.366224 0
1.12167 0.370137 0
0.975 0.368691 0
0.877672 0.0412714 0
1.27686 0.36884 0
1.725 0.0433013 0
0.579174 0.0416211 0
0.325589 0.363848 0
0.319111 0.0378151 0
0.0394523 0.296111 0
0.0329929 0.11602 0
0.142108 0.187428 0
1.57555 0.364352 0
2.02603 0.0412138 0
0.725007 0.36763 0
0.528647 0.366595 0
1.62699 0.0400272 0
1.82929 0.0421255 0
1.425 0.0418325 0
2.07474 0.364233 0
0.125 0.0433013 0
0.161245 0.155011 0
0.225 0.366699 0
0.210027 0.258536 0
2.16034 0.115449 0
0.0371627 0.204103 0
0.142311 0.212698 0
0.220283 0.0418538 0
0.221965 0.145099 0
0.196802 0.141016 0
0.119851 0.373394 0
0.161112 0.245979 0
0.184892 0.258024 0
2.16342 0.30039 0
2.12627 0.047699 0
0.183325 0.0412617 0
0.152317 0.0762976 0
0.203864 0.0745802 0
0.234384 0.0774346 0
0.215969 0.103585 0
0.245651 0.104548 0
0.186562 0.100216 0
0.268213 0.0793029 0
0.272149 0.109155 0
0.242885 0.159377 0
0.253088 0.128261 0
0.278718 0.13214 0
0.295917 0.115997 0
0.301728 0.138858 0
0.321266 0.12205 0
0.324642 0.151724 0
0.255978 0.181139 0
0.350123 0.129049 0
0.357539 0.159885 0
0.333541 0.181416 0
0.36451 0.19182 0
0.250573 0.230419 0
0.391277 0.169722 0
0.339477 0.212308 0
0.39836 0.205386 0
0.427326 0.18117 0
0.258724 0.206387 0
0.434392 0.219501 0
0.466446 0.193907 0
0.472865 0.243064 0
0.507358 0.209962 0
0.40073 0.238916 0
0.499135 0.1652 0
0.5419 0.179224 0
0.550176 0.22496 0
0.585844 0.194129 0
0.594095 0.240176 0
0.630701 0.209517 0
0.621901 0.162424 0
0.667731 0.178095 0
0.676485 0.226008 0
0.713906 0.194492 0
0.722681 0.242872 0
0.760442 0.211047 0
0.751547 0.162356 0
0.798298 0.179 0
0.807147 0.227866 0
0.845136 0.195775 0
0.854541 0.243285 0
0.892163 0.212344 0
0.902461 0.257947 0
0.93935 0.228684 0
0.930236 0.180167 0
0.977229 0.197066 0
0.986264 0.245777 0
1.02423 0.213991 0
1.0331 0.263172 0
1.07123 0.230975 0
1.06234 0.181814 0
1.10938 0.198721 0
1.09996 0.151012 0
1.14691 0.168161 0
1.15631 0.215921 0
1.19446 0.183678 0
1.20343 0.232645 0
1.2416 0.200322 0
1.23272 0.151117 0
1.2798 0.167954 0
1.28868 0.217167 0
1.32685 0.184862 0
1.33573 0.234064 0
1.3739 0.201768 0
0.789327 0.130094 0
1.38279 0.25097 0
1.42096 0.218674 0
1.41207 0.169471 0
1.45912 0.186378 0
1.46801 0.235581 0
1.50618 0.203285 0
1.51506 0.252489 0
1.55323 0.220192 0
1.54435 0.170989 0
1.5914 0.187896 0
1.60029 0.2371 0
1.63846 0.204803 0
1.64734 0.254007 0
1.68551 0.221711 0
1.67663 0.172507 0
1.72368 0.189415 0
1.73831 0.241548 0
1.77074 0.206322 0
1.76185 0.157121 0
1.8091 0.17428 0
1.81866 0.220885 0
1.85608 0.190621 0
1.86521 0.238879 0
1.90289 0.207671 0
1.91264 0.253772 0
1.94955 0.224093 0
1.94067 0.17593 0
1.98705 0.192828 0
1.99572 0.240997 0
2.0329 0.209382 0
2.02422 0.16161 0
2.04166 0.257286 0
0.419739 0.142889 0
0.968291 0.148058 0
0.310035 0.202211 0
0.316128 0.230863 0
0.658501 0.130052 0
0.685107 0.27445 0
1.34462 0.283266 0
1.16528 0.264896 0
1.84735 0.142081 0
0.557687 0.270604 0
1.21234 0.281769 0
1.58252 0.138692 0
0.533563 0.131933 0
0.489835 0.120004 0
1.45024 0.137174 0
2.06974 0.17785 0
2.06113 0.130713 0
0.283221 0.152215 0
0.921299 0.131169 0
0.343836 0.24295 0
0.319203 0.260002 0
0.235529 0.249617 0
0.347029 0.274099 0
0.291856 0.246297 0
0.295938 0.27548 0
0.272836 0.264931 0
0.27461 0.290522 0
0.251228 0.280224 0
0.253903 0.305808 0
0.232795 0.296709 0
0.298805 0.304058 0
1.0801 0.280176 0
1.47689 0.284785 0
1.05315 0.133468 0
1.09741 0.0970974 0
1.82427 0.272867 0
1.2701 0.118911 0
0.816337 0.277695 0
1.40432 0.121101 0
1.04244 0.320388 0
0.959305 0.103028 0
1.60923 0.286151 0
0.601674 0.286775 0
2.00739 0.280923 0
0.342592 0.0992796 0
0.375237 0.105729 0
1.52511 0.298716 0
1.53114 0.119823 0
0.733824 0.287256 0
0.613372 0.114719 0
0.645558 0.0838585 0
2.015 0.115858 0
1.22718 0.0994086 0
1.39166 0.29817 0
1.3564 0.329754 0
0.744134 0.11556 0
0.782853 0.0841771 0
0.826899 0.10047 0
1.17418 0.314034 0
0.520902 0.0906676 0
1.4967 0.329429 0
1.26048 0.0740437 0
0.365514 0.0716355 0
0.229836 0.121666 0
1.57453 0.09137 0
1.61938 0.110761 0
0.481716 0.0753791 0
0.14093 0.2 0
0.130041 0.192847 0
0.131507 0.178608 0
0.117165 0.184444 0
0.120761 0.164701 0
0.1156 0.199931 0
0.100804 0.174136 0
0.102545 0.153034 0
0.12169 0.143342 0
0.104604 0.13008 0
0.0809304 0.161171 0
0.128077 0.121858 0
0.106825 0.102278 0
0.082498 0.188728 0
0.0314738 0.158621 0
2.04625 0.310891 0
2.08475 0.27479 0
2.11394 0.138117 0
0.233149 0.151108 0
0.258724 0.193613 0
0.268522 0.184917 0
1.65397 0.301059 0
0.145962 0.224912 0
0.132503 0.222267 0
0.13746 0.236947 0
0.120111 0.233525 0
0.126593 0.25219 0
0.105294 0.247497 0
0.113343 0.26868 0
0.133997 0.271734 0
0.121622 0.292031 0
0.147069 0.292141 0
0.0896563 0.267464 0
0.0813699 0.243294 0
0.163574 0.276939 0
0.172694 0.298517 0
0.1583 0.321483 0
0.186823 0.322499 0
0.173113 0.348195 0
0.0322087 0.250839 0
0.211694 0.124337 0
0.250615 0.169546 0
0.256243 0.157787 0
0.170796 0.14736 0
0.156755 0.141654 0
0.17187 0.131161 0
0.147502 0.152323 0
0.198129 0.260662 0
0.206368 0.271663 0
0.220945 0.26864 0
0.190489 0.270628 0
0.198813 0.286731 0
0.55749 0.322277 0
0.520166 0.299321 0
0.235199 0.330709 0
0.267109 0.337524 0
0.172324 0.25256 0
0.255974 0.218859 0
0.268327 0.214994 0
0.184197 0.143083 0
0.188721 0.129954 0
0.209694 0.139146 0
0.269223 0.244007 0
0.252374 0.255244 0
0.282229 0.0410487 0
1.21977 0.330016 0
1.25733 0.296346 0
2.09358 0.0890819 0
0.244373 0.240984 0
0.0838116 0.115786 0
0.0797544 0.0817835 0
0.237449 0.264854 0
0.247178 0.146225 0
0.270136 0.2 0
0.28023 0.191334 0
0.263476 0.170737 0
0.371486 0.368728 0
0.396124 0.330051 0
0.440314 0.325693 0
0.357693 0.329668 0
0.476576 0.362035 0
0.29587 0.222914 0
0.307627 0.175476 0
0.079599 0.0406461 0
0.146062 0.252571 0
0.15162 0.125025 0
0.417223 0.294608 0
0.457089 0.286958 0
0.036619 0.338729 0
0.0713014 0.322193 0
0.0735823 0.36704 0
0.041143 0.0722223 0
0.693501 0.32349 0
0.145406 0.175484 0
0.138777 0.164467 0
0.300367 0.0698839 0
0.167025 0.112083 0
0.146978 0.105544 0
0.151909 0.236762 0
0.444611 0.106436 0
0.909355 0.0817561 0
0.282901 0.370713 0
1.61474 0.330739 0
0.578053 0.368179 0
0.824695 0.0487848 0
2.09634 0.3213 0
2.02276 0.364865 0
2.12532 0.363702 0
1.09789 0.328757 0
0.161137 0.260089 0
2.07793 0.225752 0
2.12079 0.240944 0
2.0747 0.0437362 0
1.89402 0.158846 0
1.93154 0.128738 0
1.8848 0.111477 0
1.8384 0.0926484 0
1.87744 0.0655304 0
1.7913 0.0793874 0
1.9712 0.046671 0
1.92502 0.366682 0
1.94563 0.325156 0
1.89941 0.326645 0
1.87499 0.367178 0
1.84989 0.323491 0
1.7997 0.321303 0
1.77183 0.280326 0
1.75031 0.321965 0
1.77491 0.365615 0
2.11727 0.191885 0
0.883187 0.163467 0
1.71449 0.140266 0
1.667 0.125342 0
1.70591 0.0884759 0
1.67732 0.042286 0
1.52278 0.370513 0
1.37512 0.04128 0
1.34848 0.0834574 0
0.776093 0.367587 0
1.125 0.0433013 0
1.15 0.0866019 0
1.07442 0.0496847 0
0.974527 0.0370837 0
1.47464 0.0427918 0
1.44953 0.0873752 0
1.17595 0.362984 0
1.025 0.366699 0
0.925007 0.367031 0
0.95 0.323404 0
0.897321 0.326356 0
0.874563 0.367261 0
0.846552 0.324465 0
1.62923 0.156667 0
1.32319 0.13033 0
1.69342 0.270472 0
1.49568 0.156227 0
1.56237 0.268721 0
1.44 0.319169 0
1.43005 0.267892 0
1.36502 0.152565 0
0.993446 0.294003 0
1.30179 0.321101 0
1.18235 0.127964 0
1.25016 0.2491 0
1.29638 0.266841 0
1.11824 0.247967 0
1.12945 0.294699 0
1.01527 0.165035 0
0.836192 0.147197 0
1.4998 0.0831488 0
1.00655 0.118664 0
0.872896 0.117126 0
0.70523 0.146383 0
1.96013 0.276645 0
0.769406 0.257102 0
0.699552 0.0908977 0
2.1587 0.162257 0
1.97813 0.145326 0
0.646036 0.302035 0
0.799423 0.326603 0
0.515621 0.255445 0
1.72538 0.366474 0
1.97009 0.0998346 0
1.57108 0.313772 0
0.577925 0.14549 0
0.638911 0.256447 0
0.407352 0.0771641 0
0.525103 0.042511 0
0.674231 0.370698 0
1.69802 0.321701 0
0.56947 0.0908728 0
1.75459 0.110239 0
1.80084 0.126127 0
0.673535 0.0431435 0
1.57391 0.0465733 0
2.04571 0.0828469 0
0.10002 0.225545 0
0.0788152 0.21577 0
0.369719 0.224393 0
0.210352 0.308739 0
1.22342 0.0432967 0
[...]
CELL_DATA 1241
VECTORS velocity double
1.01395 -0.00425457 0.0
1.21728 0.0665168 0.0
0.446101 -0.00155864 0.0
0.94468 0.00172359 0.0
1.04395 0.00548529 0.0
1.42286 0.103154 0.0
1.13499 0.000177419 0.0
0.979828 -0.000823259 0.0
0.363177 0.0158224 0.0
1.17917 0.00138835 0.0
1.31247 -0.119983 0.0
1.31627 0.126543 0.0
0.865763 -0.160595 0.0
1.01561 0.00861454 0.0
0.991108 0.00651004 0.0
1.46635 -0.0328813 0.0
0.979468 0.000591874 0.0
0.479611 0.0603813 0.0
1.17281 0.0623921 0.0
1.64766 -0.2542 0.0
1.02119 0.00437711 0.0
1.05945 -0.0663118 0.0
1.03795 -0.000287382 0.0
1.25311 0.904906 0.0
1.07097 -0.00228294 0.0
1.02431 0.00262873 0.0
1.29898 -0.199436 0.0
1.07638 -0.0253965 0.0
1.32175 -0.0836643 0.0
1.46242 -0.0649068 0.0
1.33199 0.0902544 0.0
0.868297 -0.036888 0.0
1.52045 0.00268448 0.0
1.01424 0.00688102 0.0
1.2568 -0.0565606 0.0
1.35889 0.156962 0.0
1.21276 -0.0553772 0.0
1.05041 -0.167832 0.0
0.359562 0.0205048 0.0
1.38219 0.141358 0.0
1.7645 -0.179811 0.0
1.41327 -0.0454466 0.0
1.05282 -0.237187 0.0
0.501565 0.00674053 0.0
1.39921 -0.167237 0.0
0.497083 -0.00751378 0.0
1.20158 0.0990354 0.0
1.11535 0.0258068 0.0
1.61301 -0.313109 0.0
1.23969 -0.0104676 0.0
1.21464 0.000940042 0.0
1.29083 -0.417497 0.0
0.869532 -0.00364454 0.0
1.40871 -0.0823527 0.0
1.77523 -0.279613 0.0
1.519 -0.0286964 0.0
1.15105 -0.0399816 0.0
1.12716 -0.000213734 0.0
1.65841 -0.099094 0.0
1.68774 -0.19937 0.0
1.15855 0.847308 0.0
0.994137 -0.000136746 0.0
0.195586 0.0357937 0.0
1.02714 0.00683632 0.0
-0.24003 0.0714434 0.0
1.33192 0.227578 0.0
-0.27959 0.0861913 0.0
1.16744 -0.00187055 0.0
0.863327 -0.0258773 0.0
0.218187 0.024431 0.0
1.1682 -0.00559436 0.0
0.793435 0.0141478 0.0
1.16712 -0.00515027 0.0
0.791721 -0.0137149 0.0
1.20686 0.00715214 0.0
0.881295 0.157087 0.0
0.942701 0.0072646 0.0
1.63144 -0.0465112 0.0
0.979769 -0.0346092 0.0
0.613152 0.00125507 0.0
1.75194 -0.38301 0.0
1.1597 -0.246732 0.0
0.658425 0.0118803 0.0
1.26146 -0.22737 0.0
1.34581 0.170068 0.0
0.919409 -0.0667436 0.0
1.20692 0.178035 0.0
0.0860745 0.0984531 0.0
1.83884 0.53039 0.0
1.19235 0.00318976 0.0
1.27211 0.0102048 0.0
-0.189653 -0.0110344 0.0
-0.348 0.0782906 0.0
1.4432 -0.0646293 0.0
1.18242 -0.0406956 0.0
0.985037 0.0012877 0.0
0.849246 -0.0258378 0.0
-0.184463 0.0905951 0.0
1.01813 -0.0114134 0.0
-0.244258 0.112564 0.0
1.08214 -0.098557 0.0
1.15905 -0.0149635 0.0
0.947345 0.00264951 0.0
1.63917 -0.161263 0.0
1.74235 -0.67064 0.0
1.27316 -0.397902 0.0
1.07132 -0.0619657 0.0
0.498276 -0.0236589 0.0
1.78799 0.649655 0.0
1.22487 0.00317049 0.0
1.48537 -0.109191 0.0
1.23094 0.189673 0.0
0.131626 0.075988 0.0
1.44146 -0.0270016 0.0
1.08014 0.0148799 0.0
1.44262 0.040089 0.0
1.4141 0.0047537 0.0
1.39195 0.0529528 0.0
1.06622 -0.00219469 0.0
0.255314 0.0397096 0.0
1.19011 0.0421822 0.0
1.51966 0.581803 0.0
1.25161 0.108227 0.0
0.919981 -0.0634826 0.0
0.726838 -0.0993367 0.0
1.20475 0.0860308 0.0
1.44705 -0.0429287 0.0
1.11886 0.0245143 0.0
1.74956 0.501391 0.0
0.549919 -0.0713177 0.0
1.1659 -0.015115 0.0
0.622164 -0.00174624 0.0
0.885944 0.0638833 0.0
1.6033 -0.0216011 0.0
1.01946 -0.153235 0.0
-0.276053 0.0745685 0.0
0.123176 0.0625353 0.0
1.2267 0.0822105 0.0
1.0487 -0.0252376 0.0
1.66383 -0.761311 0.0
1.50088 0.00357322 0.0
1.03552 0.00605535 0.0
1.07835 -0.245054 0.0
1.00499 0.00698886 0.0
1.52351 0.00721196 0.0
0.0223457 0.0311684 0.0
-0.254477 0.0380589 0.0
-0.182749 0.0060205 0.0
0.64199 0.0153842 0.0
0.653277 -0.0116859 0.0
0.555345 -0.101533 0.0
1.03492 -0.00709754 0.0
1.79634 -0.332609 0.0
1.04787 -0.153388 0.0
1.20282 -0.0491844 0.0
1.20456 0.0544227 0.0
0.48319 -0.000998773 0.0
1.64365 0.0738362 0.0
0.857124 0.0303654 0.0
1.24848 -0.0569777 0.0
-0.230503 0.0469763 0.0
1.74047 0.446507 0.0
1.14306 0.00832859 0.0
1.22204 -0.204902 0.0
1.14316 0.0341113 0.0
1.05422 0.130244 0.0
0.98182 -0.000483491 0.0
0.987063 0.109856 0.0
0.566115 -0.00353891 0.0
1.1714 -0.0340535 0.0
0.929222 -0.0246664 0.0
1.23498 0.00345839 0.0
1.36547 0.265546 0.0
1.1911 0.0865949 0.0
1.10489 0.00564355 0.0
1.11583 0.0064353 0.0
1.18261 0.198714 0.0
1.12009 -0.287606 0.0
1.1141 0.0121023 0.0
1.16602 -0.225275 0.0
1.11928 0.00908835 0.0
0.363112 0.110221 0.0
1.08768 -0.644369 0.0
0.730583 -0.127092 0.0
1.02499 -0.00860289 0.0
0.765703 -0.0789958 0.0
0.762226 -0.0636703 0.0
1.02759 0.00778241 0.0
1.05545 0.0959232 0.0
0.461054 0.0470128 0.0
0.889594 -0.829902 0.0
1.77863 0.345098 0.0
1.02837 -0.00208748 0.0
0.983901 0.0066025 0.0
0.66735 0.060232 0.0
0.852985 0.0569098 0.0
0.397738 0.0590098 0.0
0.998534 -0.0149447 0.0
1.42771 -0.0322272 0.0
1.44964 0.581446 0.0
1.15458 0.193115 0.0
1.0692 -0.0135431 0.0
1.42685 0.0384028 0.0
1.04161 -0.0922928 0.0
1.4011 -0.0914665 0.0
1.436 -0.044693 0.0
0.483227 0.0244062 0.0
0.662466 0.0125749 0.0
0.900041 -0.022747 0.0
0.857809 0.0334985 0.0
0.516764 0.0171121 0.0
0.513985 -0.00303186 0.0
1.79011 0.286525 0.0
1.11178 0.0117634 0.0
1.4407 -0.00355982 0.0
1.12148 0.0122395 0.0
0.731551 -0.0773683 0.0
1.51122 -0.0906688 0.0
1.17574 -0.0305831 0.0
1.16367 -0.0131401 0.0
0.833097 -0.0495832 0.0
1.67135 -0.0705336 0.0
1.01023 0.0553473 0.0
0.996194 0.0113738 0.0
0.958849 -0.0261661 0.0
1.23335 0.00244449 0.0
1.43554 -0.137316 0.0
1.7298 -0.600868 0.0
1.18417 -0.00577335 0.0
1.20298 -0.0110972 0.0
0.99096 -7.95337e-05 0.0
1.06355 -0.132777 0.0
1.02915 -0.0102336 0.0
0.997446 -0.00673807 0.0
1.25792 0.310859 0.0
1.03831 -0.256621 0.0
1.09399 0.171538 0.0
1.3188 0.132396 0.0
0.743636 -0.10669 0.0
0.355088 -0.0454553 0.0
0.958897 0.0159414 0.0
1.4387 0.0570255 0.0
1.42203 0.918328 0.0
0.682938 -0.0851895 0.0
1.15175 -0.0174379 0.0
1.70424 0.140339 0.0
1.09691 -0.898561 0.0
0.868425 -0.177616 0.0
1.14128 -0.0375136 0.0
0.559644 -0.0084585 0.0
1.02622 0.027074 0.0
0.544034 -0.00973799 0.0
1.03185 -0.00483269 0.0
1.22597 0.00298481 0.0
0.617939 -0.0119269 0.0
0.775888 -0.0336622 0.0
1.09484 -0.285471 0.0
1.32611 -0.104583 0.0
1.22365 0.00070387 0.0
1.02 -0.00173796 0.0
1.00226 0.00836465 0.0
0.507716 -0.00583035 0.0
1.22698 0.00574252 0.0
0.73695 -0.0260548 0.0
1.12806 0.0434671 0.0
0.995127 -0.00990341 0.0
0.566716 0.00337919 0.0
1.24093 -0.109896 0.0
1.22739 -0.170996 0.0
0.789533 -0.0266272 0.0
1.13959 -0.0652788 0.0
0.584488 0.00172182 0.0
0.983083 -0.0153836 0.0
0.116355 0.067366 0.0
1.20202 8.73237e-05 0.0
1.19758 -0.0105521 0.0
0.594608 -0.00399479 0.0
0.94252 -0.194225 0.0
0.987389 -0.0154249 0.0
1.42999 0.154428 0.0
1.19841 0.000843295 0.0
1.23449 -0.00143063 0.0
1.22356 -0.170782 0.0
1.23572 -0.00291004 0.0
1.23465 0.000792837 0.0
1.17142 -0.0170286 0.0
0.934767 -0.11452 0.0
0.835802 0.0428679 0.0
1.23547 -0.00509615 0.0
1.23279 -0.000780139 0.0
1.22808 -0.00193606 0.0
0.634935 0.0704993 0.0
0.456773 0.00497928 0.0
0.998275 0.00994602 0.0
0.545257 -0.00753413 0.0
1.23377 -0.00563839 0.0
1.0025 -0.0182524 0.0
1.1628 0.0101267 0.0
-0.261342 -0.0268229 0.0
0.966441 -0.0120993 0.0
0.499922 -0.00470858 0.0
1.31888 -0.60472 0.0
1.12258 -0.00721709 0.0
0.97064 -0.0159791 0.0
0.524779 -0.0101685 0.0
1.23375 -0.00325366 0.0
0.868452 0.0407334 0.0
0.532396 0.0016443 0.0
0.992899 -0.0154635 0.0
1.23393 -0.00566574 0.0
1.22693 -0.00269056 0.0
1.23224 -0.00330791 0.0
0.620961 -0.00711083 0.0
0.444399 9.0159e-05 0.0
1.23107 -0.00648542 0.0
1.14153 -0.073445 0.0
1.2053 -0.00719728 0.0
0.602974 0.0100286 0.0
1.18531 -0.00807904 0.0
1.22462 -0.00579664 0.0
1.21162 0.000957238 0.0
1.23622 -0.00732993 0.0
0.465564 -0.00680286 0.0
1.22928 -0.00641903 0.0
1.23095 -0.00665764 0.0
1.22084 -0.00683831 0.0
0.455082 -0.00386712 0.0
1.21715 -0.00303765 0.0
1.18354 -0.00607542 0.0
1.20173 -0.00109651 0.0
1.23358 -0.00744522 0.0
1.17041 -0.157849 0.0
1.1295 0.00146897 0.0
1.23471 -0.00744704 0.0
1.35089 0.668535 0.0
1.21827 -0.00648547 0.0
0.508758 -0.00700287 0.0
1.09758 -0.0220245 0.0
0.563642 0.00811692 0.0
0.594929 -0.00932524 0.0
1.1172 0.00694322 0.0
1.09748 -0.0123004 0.0
1.07126 -0.00771433 0.0
0.533327 -0.00802636 0.0
1.10335 -0.0217068 0.0
1.12404 0.00553391 0.0
1.23185 -0.00782062 0.0
1.07374 0.13898 0.0
1.15505 -0.696807 0.0
0.563721 -0.0047108 0.0
0.52183 -0.00537989 0.0
1.22704 -0.00581786 0.0
1.22883 -0.00815005 0.0
0.61986 -0.0183294 0.0
0.509993 -0.00923665 0.0
1.22426 -0.00503582 0.0
0.992429 0.0165539 0.0
1.16079 0.0113995 0.0
1.15579 -0.00747757 0.0
0.567171 0.00720787 0.0
0.518716 -0.00218282 0.0
1.14355 0.0171935 0.0
0.603266 0.0141773 0.0
0.569253 0.0146381 0.0
1.17326 0.00902834 0.0
0.619772 0.0206189 0.0
0.571626 -0.000812071 0.0
1.21446 -0.00414106 0.0
1.20178 -0.00321985 0.0
0.962026 0.016324 0.0
1.21064 -0.00177831 0.0
1.18265 -0.00188279 0.0
1.21855 -0.00307413 0.0
0.982919 0.0125081 0.0
1.15199 -0.00259727 0.0
0.607621 0.00581629 0.0
0.501115 0.0140078 0.0
0.551271 0.0142172 0.0
0.466548 -0.00795063 0.0
0.532751 0.000873161 0.0
0.55653 -0.00532021 0.0
0.527061 -0.00284266 0.0
0.640255 -0.0137912 0.0
0.540813 -0.00452748 0.0
0.57451 0.0133744 0.0
0.486591 -0.00750866 0.0
0.576703 0.0155078 0.0
0.494201 0.00015501 0.0
0.679103 0.0213084 0.0
0.578607 0.0100637 0.0
0.572509 -0.0114715 0.0
0.48871 0.00278346 0.0
0.527499 -0.00224501 0.0
0.509454 0.00789855 0.0
0.612281 -0.00975228 0.0
0.532743 -0.000836848 0.0
0.601644 -0.00764772 0.0
0.55933 -0.0123287 0.0
0.545275 0.00678361 0.0
0.522955 0.000121797 0.0
0.538265 0.00413266 0.0
0.47702 -0.0170088 0.0
0.49259 0.0196845 0.0
0.494619 0.000491934 0.0
0.557081 -0.00716055 0.0
0.494064 0.00313461 0.0
0.646391 -0.0210611 0.0
0.492252 0.00629228 0.0
0.463853 0.00554521 0.0
0.504898 0.000974082 0.0
0.482494 -0.00268916 0.0
1.18097 -0.0010912 0.0
1.16154 -0.00636374 0.0
1.22693 -0.00736891 0.0
1.22458 -0.00502494 0.0
1.22774 -0.00525573 0.0
1.11945 -0.00791043 0.0
1.19809 -0.00705196 0.0
1.17915 -0.00676977 0.0
1.18207 0.00479474 0.0
1.15446 -0.00126582 0.0
1.21058 -0.00796271 0.0
1.21324 -0.00871113 0.0
1.17497 -0.00663292 0.0
1.21973 -0.00364875 0.0
1.19564 -0.00028466 0.0
1.2213 -0.00609959 0.0
1.19413 -0.0072546 0.0
1.15235 0.00177886 0.0
1.2176 -0.00620271 0.0
1.22276 -0.00421089 0.0
1.20784 -0.00085266 0.0
1.22133 -0.00359141 0.0
1.21702 -0.0050186 0.0
1.15649 -0.00901092 0.0
1.22069 -0.00179357 0.0
1.1977 -0.00342148 0.0
1.21766 -0.0011753 0.0
1.12071 -0.00152822 0.0
1.19942 -0.00262506 0.0
1.1918 0.00191013 0.0
1.21247 -0.00142356 0.0
1.17577 -0.00154564 0.0
1.21248 -0.00236153 0.0
1.2157 -0.00241399 0.0
1.18544 0.00447783 0.0
1.21592 -0.00137311 0.0
1.20827 -0.00415243 0.0
1.21049 0.000680159 0.0
1.15273 -0.00850383 0.0
1.17759 -0.00255047 0.0
1.21359 0.000443859 0.0
1.20567 -0.00343505 0.0
1.20205 0.00225383 0.0
1.19893 0.00368049 0.0
1.16021 -0.0126136 0.0
1.21064 0.000451818 0.0
1.20711 0.000818453 0.0
1.13789 -0.00606301 0.0
1.1935 -0.00438313 0.0
1.12196 0.00311078 0.0
1.17942 -0.0044249 0.0
1.18944 -0.00400781 0.0
1.20154 -0.00368775 0.0
1.20739 -0.00128626 0.0
1.17517 -0.00453952 0.0
1.20521 -0.00351128 0.0
1.20351 -0.0010446 0.0
1.20529 0.000512185 0.0
1.20154 0.00310012 0.0
1.19806 0.00341844 0.0
1.19502 0.00367811 0.0
1.18399 0.00602093 0.0
1.13601 -0.00646968 0.0
1.09401 0.00789307 0.0
1.1786 0.00710239 0.0
1.20121 0.000896096 0.0
0.576969 -0.00618355 0.0
1.1875 0.00598598 0.0
1.14826 0.00761165 0.0
1.17031 0.00792271 0.0
1.19895 0.00304499 0.0
1.16788 0.00759044 0.0
1.1779 0.00563704 0.0
1.1708 0.000222114 0.0
1.19 0.00545229 0.0
1.17778 -0.000871488 0.0
1.13366 -0.00534826 0.0
1.13333 -0.00821824 0.0
1.15667 -0.00495245 0.0
1.18641 0.00667842 0.0
1.17455 -0.00422624 0.0
1.18477 0.00339102 0.0
1.16806 -0.00409019 0.0
1.18495 -0.00399589 0.0
1.18873 0.00283333 0.0
1.18198 0.00589154 0.0
0.978939 -0.0141065 0.0
1.17258 -0.00367388 0.0
1.17461 0.00781895 0.0
1.14543 0.0091386 0.0
1.18987 -0.00241425 0.0
1.19355 0.000185973 0.0
1.08274 -0.0176471 0.0
1.16492 0.0109573 0.0
1.17861 -0.00363202 0.0
1.14683 0.01498 0.0
1.18916 -5.41985e-05 0.0
1.14968 0.0176402 0.0
1.16746 -0.0044106 0.0
1.19349 -0.00237482 0.0
1.17438 -0.00112283 0.0
1.11937 0.176576 0.0
1.15265 -0.00740892 0.0
1.2232 -0.00960591 0.0
1.17045 0.00950987 0.0
1.17493 0.00117503 0.0
1.15729 -0.0134237 0.0
1.16099 -0.00356122 0.0
1.13926 -0.00306453 0.0
1.16115 -0.00953902 0.0
1.16713 0.0027241 0.0
1.14076 -0.00117554 0.0
1.16211 0.00239868 0.0
1.16355 -0.00678133 0.0
1.16348 -0.00284459 0.0
1.14899 0.0120029 0.0
1.15955 -0.00516984 0.0
0.718685 -0.0205029 0.0
0.972247 0.00515331 0.0
1.14447 0.0142615 0.0
1.14711 0.00948832 0.0
1.15432 -0.00762294 0.0
1.14121 0.01192 0.0
1.14768 0.0143492 0.0
1.14429 -0.00228519 0.0
1.12685 0.000943742 0.0
1.13924 -0.00305696 0.0
1.13278 0.00102609 0.0
1.12095 0.0120636 0.0
1.15745 0.00574066 0.0
1.15174 0.00860275 0.0
0.995249 0.00888034 0.0
1.1529 0.00593504 0.0
1.15725 0.0116871 0.0
1.1501 0.0121317 0.0
1.11433 0.0151662 0.0
1.13589 0.0156679 0.0
1.15412 0.0126328 0.0
1.73544 0.181689 0.0
1.1192 -0.0104451 0.0
1.12711 0.0192403 0.0
1.09939 -0.0221489 0.0
1.14935 0.0217988 0.0
1.14743 0.0161113 0.0
1.11291 -0.0128082 0.0
1.14631 0.0219228 0.0
1.22378 -0.00641505 0.0
1.0704 -0.00969904 0.0
1.09902 0.0152286 0.0
1.09647 -0.00681314 0.0
1.30724 0.126004 0.0
1.21915 -0.00547626 0.0
1.08409 -0.00213541 0.0
1.15546 -0.00755817 0.0
1.13995 0.0281262 0.0
1.14657 0.0223949 0.0
1.08906 -0.00844101 0.0
1.0936 -0.0272029 0.0
0.980774 -0.0159141 0.0
1.19484 -0.00177283 0.0
1.06653 0.000704962 0.0
1.07611 0.000239118 0.0
1.1205 0.024683 0.0
1.12028 -0.0266153 0.0
1.02973 0.198339 0.0
0.960826 -0.0158944 0.0
1.13614 0.0337488 0.0
0.441997 -0.164347 0.0
1.38219 0.131375 0.0
1.18138 -0.0520798 0.0
1.06424 0.0102968 0.0
1.06553 0.0257092 0.0
1.05382 0.0363843 0.0
1.22 -0.00225021 0.0
1.05184 0.0143331 0.0
1.0374 -0.0440086 0.0
1.30216 0.175953 0.0
1.00313 -0.142383 0.0
1.03256 -0.0577403 0.0
1.15148 -0.133271 0.0
1.14948 -0.0130439 0.0
1.09504 -0.0480009 0.0
1.18172 -0.00352573 0.0
0.936167 0.0017915 0.0
1.18098 0.0539964 0.0
1.0077 -0.0138417 0.0
1.23791 -0.101751 0.0
1.21771 -0.00565963 0.0
1.20527 -0.00651303 0.0
1.0549 -0.0199358 0.0
1.39837 -0.567472 0.0
1.1323 0.0834298 0.0
0.994496 -0.0202125 0.0
1.13246 0.0668764 0.0
0.956608 0.00151166 0.0
0.758429 0.0280737 0.0
1.08938 0.0449301 0.0
1.32725 -0.160587 0.0
0.932987 -0.0907596 0.0
1.09851 -0.0395536 0.0
0.632624 -0.556519 0.0
1.11076 -0.0279511 0.0
1.11678 -0.00738969 0.0
1.15437 -0.00789699 0.0
1.39116 -0.139352 0.0
1.08009 0.0600314 0.0
1.1817 -0.0027274 0.0
1.04682 -0.0261794 0.0
1.16344 0.036137 0.0
0.98935 -0.0182288 0.0
1.34995 -0.77179 0.0
1.22872 0.00440546 0.0
1.17964 0.0514037 0.0
1.20334 0.00270359 0.0
1.12703 -0.000895211 0.0
1.18051 -0.0564618 0.0
1.06593 0.0201157 0.0
1.21084 0.0814079 0.0
1.12245 -0.00777106 0.0
1.15895 0.0440983 0.0
0.955108 0.00173685 0.0
1.15292 0.0111556 0.0
1.1805 -0.531637 0.0
0.659974 -0.0060247 0.0
0.68149 -0.0231215 0.0
0.924563 0.0271154 0.0
1.26623 0.119647 0.0
1.15326 -0.00609542 0.0
1.18221 -0.00487204 0.0
0.607658 0.0101569 0.0
1.2025 -0.00573959 0.0
0.327868 -0.123521 0.0
1.07315 -0.0991899 0.0
0.549353 0.0093049 0.0
0.555892 -0.010762 0.0
0.899185 0.0402913 0.0
1.15847 -0.00641922 0.0
0.863952 -0.174347 0.0
0.846332 -0.0255266 0.0
1.68893 -0.125095 0.0
0.941736 0.0373823 0.0
1.1529 -0.0106387 0.0
1.15349 -0.0120935 0.0
1.05382 0.00869832 0.0
1.22577 0.00335086 0.0
1.18 0.00110737 0.0
1.18511 0.348335 0.0
0.621046 0.0173098 0.0
1.02123 0.00174095 0.0
1.3696 -0.0978236 0.0
0.538396 0.00769629 0.0
1.58076 0.560947 0.0
0.933608 -0.0417349 0.0
0.796092 -0.026658 0.0
1.34139 0.0881458 0.0
0.781665 -0.053809 0.0
0.955967 -0.00136873 0.0
0.668404 -0.116142 0.0
1.15525 -0.0168622 0.0
0.881017 0.0996623 0.0
1.13517 -0.0144406 0.0
0.658543 -0.00413486 0.0
1.03074 0.00545084 0.0
0.980366 0.136246 0.0
1.40941 -0.0326433 0.0
0.521531 -0.00360294 0.0
0.636266 -0.0245593 0.0
0.918747 0.805446 0.0
1.11054 -0.00100026 0.0
1.05188 0.0115776 0.0
1.39256 0.0136353 0.0
0.602918 -0.0104622 0.0
1.13161 0.0184506 0.0
1.16664 -0.448606 0.0
0.186485 0.0223941 0.0
0.924898 -0.0632431 0.0
1.07005 -0.0832713 0.0
0.735654 0.023925 0.0
0.518852 0.0178406 0.0
1.64904 0.0364071 0.0
1.1553 -0.0050705 0.0
0.311488 0.0152322 0.0
0.571374 0.0249242 0.0
1.1446 -0.00597254 0.0
1.20431 -0.00610871 0.0
1.00271 -0.0189195 0.0
0.937769 0.0623775 0.0
1.20928 0.172603 0.0
0.640972 0.0107869 0.0
1.20713 0.00731798 0.0
0.919299 0.0928363 0.0
1.21008 -0.00896462 0.0
1.38798 -0.59346 0.0
0.510586 0.00128058 0.0
1.45935 -0.129864 0.0
1.1101 0.00857304 0.0
0.948914 -0.0142841 0.0
0.621604 0.0903358 0.0
0.991082 0.101844 0.0
0.897476 0.139874 0.0
1.1128 0.0100053 0.0
1.21806 -0.0579503 0.0
1.39921 -0.0369344 0.0
0.587724 0.00500812 0.0
0.611775 0.0149747 0.0
1.07314 -0.00371719 0.0
0.404543 -0.0728944 0.0
1.0441 0.03657 0.0
0.492736 0.00340869 0.0
0.962463 -0.0113397 0.0
1.11149 -0.00448455 0.0
0.939737 -0.0094582 0.0
0.558901 -0.00671235 0.0
0.557636 0.018724 0.0
0.568585 0.00959175 0.0
0.509189 0.00712326 0.0
0.587803 0.0114342 0.0
1.21071 0.6696 0.0
1.36092 0.0696011 0.0
0.966067 -0.00326624 0.0
0.536199 0.00816494 0.0
0.547917 -0.0126873 0.0
0.700057 0.0249251 0.0
1.15701 -0.047419 0.0
0.619972 0.00107249 0.0
1.60377 -0.193106 0.0
1.29616 0.0954348 0.0
0.536849 -0.140689 0.0
1.34556 -0.0935974 0.0
1.52681 -0.466859 0.0
1.01107 0.00549547 0.0
1.09119 0.0185939 0.0
1.13982 -0.0121885 0.0
0.959607 0.00358316 0.0
0.837045 -0.689206 0.0
1.02821 -0.00198074 0.0
0.980399 -0.00584296 0.0
1.20476 -0.0132312 0.0
1.12278 -0.0340641 0.0
1.64831 -0.000123683 0.0
-0.12094 0.0977254 0.0
0.506278 -0.068706 0.0
1.33616 0.518185 0.0
1.07252 -0.0120901 0.0
0.60871 -0.0120495 0.0
0.57971 -0.00579019 0.0
0.574343 -0.00615952 0.0
1.22695 0.0054015 0.0
0.633553 0.211202 0.0
1.17449 -0.0244146 0.0
0.97726 0.0128034 0.0
0.751072 0.16301 0.0
1.12546 -0.0014205 0.0
0.137994 -0.00966601 0.0
1.19282 0.0054867 0.0
0.565759 0.0208239 0.0
0.563543 -0.0104897 0.0
1.33996 0.0854617 0.0
0.837609 -0.0117125 0.0
1.50627 0.0319674 0.0
0.974577 0.0155604 0.0
0.990315 0.0118444 0.0
0.111337 -0.166265 0.0
0.971112 0.0291601 0.0
1.16894 0.0135169 0.0
1.15208 0.0135253 0.0
0.355864 -0.136126 0.0
1.6163 -0.273236 0.0
1.09506 -0.000725352 0.0
1.28743 0.194956 0.0
0.589408 -0.0141643 0.0
0.556106 -0.00781672 0.0
1.12385 -0.0166082 0.0
0.530497 0.0896541 0.0
1.12451 -0.0270727 0.0
0.809783 0.0217416 0.0
0.935534 -0.00821483 0.0
1.13082 0.0122311 0.0
0.994762 -0.00303783 0.0
0.201884 -0.0209015 0.0
1.15027 -0.0135398 0.0
0.309754 0.060464 0.0
1.00994 -2.43396e-05 0.0
0.999829 -0.0037781 0.0
0.576295 -0.0153438 0.0
1.07309 -0.00930641 0.0
1.17451 -0.0246238 0.0
0.94727 0.00107888 0.0
0.992098 -0.0137357 0.0
1.2002 -0.964609 0.0
1.13219 0.0222639 0.0
1.69269 0.486953 0.0
0.550987 -0.0167673 0.0
0.539995 0.00650462 0.0
1.1667 0.00659428 0.0
1.22858 -0.0066478 0.0
1.11447 -0.00845574 0.0
1.12314 -0.00164239 0.0
1.181 0.00655026 0.0
1.13115 0.00613584 0.0
1.21974 -0.00951896 0.0
1.15073 0.0256903 0.0
-0.198459 0.0188097 0.0
1.10396 0.0148981 0.0
-0.0253757 0.028682 0.0
0.66474 -0.0256968 0.0
1.20441 -0.177422 0.0
1.14853 -0.0125071 0.0
1.36842 -0.137932 0.0
1.64629 -0.502437 0.0
0.314249 -0.0181113 0.0
1.21367 -0.00891194 0.0
1.129 0.272024 0.0
1.35145 -0.0982292 0.0
1.07137 0.3057 0.0
1.70948 0.0869109 0.0
0.97523 -0.542438 0.0
1.37208 0.132338 0.0
1.12213 -0.0164444 0.0
1.28963 -0.480968 0.0
-0.0874044 -0.10805 0.0
1.06073 -0.000203144 0.0
1.31864 -0.394861 0.0
0.493813 -0.00490016 0.0
1.41866 -0.149977 0.0
1.68465 0.198497 0.0
1.09149 0.0137676 0.0
0.390054 0.0157236 0.0
0.717031 0.00183739 0.0
0.267865 -0.228442 0.0
0.957139 0.0459409 0.0
-0.118736 -0.0299071 0.0
1.14643 -0.16236 0.0
1.49642 0.143689 0.0
0.537668 0.00906126 0.0
1.22933 -0.0687272 0.0
0.964747 0.0007142 0.0
1.21797 0.00462864 0.0
0.435144 -0.6155 0.0
1.22864 0.264384 0.0
0.729168 -0.162526 0.0
0.191332 -0.330917 0.0
0.517493 0.160695 0.0
1.3026 0.238506 0.0
0.597906 0.152179 0.0
0.969402 -0.0131138 0.0
1.14136 -0.0167153 0.0
1.0828 0.0111234 0.0
1.07681 0.00875857 0.0
0.571659 0.00727826 0.0
0.023585 0.0820066 0.0
1.3083 0.299796 0.0
0.468583 -0.00219882 0.0
1.10148 0.0104009 0.0
0.264443 0.216293 0.0
0.972399 -0.00553084 0.0