# vtk DataFile Version 3.0
Malha 2D com triângulos e temperatura
ASCII
DATASET UNSTRUCTURED_GRID

POINTS 688 double
0 0 0
2.2 0 0
2.2 0.41 0
0 0.41 0
0.25 0.2 0
0.05 0 0
0.1 0 0
0.15 0 0
0.2 0 0
0.25 0 0
0.3 0 0
0.35 0 0
0.4 0 0
0.45 0 0
0.5 0 0
0.55 0 0
0.6 0 0
0.65 0 0
0.7 0 0
0.75 0 0
0.8 0 0
0.85 0 0
0.9 0 0
0.95 0 0
1 0 0
1.05 0 0
1.1 0 0
1.15 0 0
1.2 0 0
1.25 0 0
1.3 0 0
1.35 0 0
1.4 0 0
1.45 0 0
1.5 0 0
1.55 0 0
1.6 0 0
1.65 0 0
1.7 0 0
1.75 0 0
1.8 0 0
1.85 0 0
1.9 0 0
1.95 0 0
2 0 0
2.05 0 0
2.1 0 0
2.15 0 0
2.2 0.0455556 0
2.2 0.0911111 0
2.2 0.136667 0
2.2 0.182222 0
2.2 0.227778 0
2.2 0.273333 0
2.2 0.318889 0
2.2 0.364444 0
2.15 0.41 0
2.1 0.41 0
2.05 0.41 0
2 0.41 0
1.95 0.41 0
1.9 0.41 0
1.85 0.41 0
1.8 0.41 0
1.75 0.41 0
1.7 0.41 0
1.65 0.41 0
1.6 0.41 0
1.55 0.41 0
1.5 0.41 0
1.45 0.41 0
1.4 0.41 0
1.35 0.41 0
1.3 0.41 0
1.25 0.41 0
1.2 0.41 0
1.15 0.41 0
1.1 0.41 0
1.05 0.41 0
1 0.41 0
0.95 0.41 0
0.9 0.41 0
0.85 0.41 0
0.8 0.41 0
0.75 0.41 0
0.7 0.41 0
0.65 0.41 0
0.6 0.41 0
0.55 0.41 0
0.5 0.41 0
0.45 0.41 0
0.4 0.41 0
0.35 0.41 0
0.3 0.41 0
0.25 0.41 0
0.2 0.41 0
0.15 0.41 0
0.1 0.41 0
0.05 0.41 0
0 0.364444 0
0 0.318889 0
0 0.273333 0
0 0.227778 0
0 0.182222 0
0 0.136667 0
0 0.0911111 0
0 0.0455556 0
0.248831 0.210749 0
0.245379 0.220994 0
0.239805 0.230259 0
0.232369 0.238108 0
0.22342 0.244176 0
0.213376 0.248177 0
0.202707 0.249927 0
0.191911 0.249341 0
0.181493 0.246449 0
0.171941 0.241384 0
0.1637 0.234385 0
0.157157 0.225778 0
0.152617 0.215965 0
0.150293 0.205406 0
0.150293 0.194594 0
0.152617 0.184035 0
0.157157 0.174222 0
0.1637 0.165615 0
0.171941 0.158616 0
0.181493 0.153551 0
0.191911 0.150659 0
0.202707 0.150073 0
0.213376 0.151823 0
0.22342 0.155824 0
0.232369 0.161892 0
0.239805 0.169741 0
0.245379 0.179006 0
0.248831 0.189251 0
0.421316 0.36725 0
0.426705 0.0366526 0
2.16065 0.209201 0
1.52286 0.0417259 0
0.626017 0.37111 0
1.3257 0.0414552 0
1.02471 0.0432237 0
1.17293 0.0421053 0
0.82501 0.36678 0
1.6757 0.370064 0
1.91628 0.0358195 0
1.82501 0.366432 0
0.723429 0.0421499 0
1.425 0.366699 0
1.97461 0.366224 0
1.12167 0.370137 0
0.975 0.368691 0
0.877672 0.0412714 0
1.27686 0.36884 0
1.725 0.0433013 0
0.579174 0.0416211 0
0.325589 0.363848 0
0.319111 0.0378151 0
0.0394523 0.296111 0
0.0329929 0.11602 0
0.142108 0.187428 0
1.57555 0.364352 0
2.02603 0.0412138 0
0.725007 0.36763 0
0.528647 0.366595 0
1.62699 0.0400272 0
1.82929 0.0421255 0
1.425 0.0418325 0
2.07474 0.364233 0
0.125 0.0433013 0
0.161245 0.155011 0
0.225 0.366699 0
0.210027 0.258536 0
2.16034 0.115449 0
0.0371627 0.204103 0
0.142311 0.212698 0
0.220283 0.0418538 0
0.221965 0.145099 0
0.196802 0.141016 0
0.119851 0.373394 0
0.161112 0.245979 0
0.184892 0.258024 0
2.16342 0.30039 0
2.12627 0.047699 0
0.183325 0.0412617 0
0.152317 0.0762976 0
0.203864 0.0745802 0
0.234384 0.0774346 0
0.215969 0.103585 0
0.245651 0.104548 0
0.186562 0.100216 0
0.268213 0.0793029 0
0.272149 0.109155 0
0.242885 0.159377 0
0.253088 0.128261 0
0.278718 0.13214 0
0.295917 0.115997 0
0.301728 0.138858 0
0.321266 0.12205 0
0.324642 0.151724 0
0.255978 0.181139 0
0.350123 0.129049 0
0.357539 0.159885 0
0.333541 0.181416 0
0.36451 0.19182 0
0.250573 0.230419 0
0.391277 0.169722 0
0.339477 0.212308 0
0.39836 0.205386 0
0.427326 0.18117 0
0.258724 0.206387 0
0.434392 0.219501 0
0.466446 0.193907 0
0.472865 0.243064 0
0.507358 0.209962 0
0.40073 0.238916 0
0.499135 0.1652 0
0.5419 0.179224 0
0.550176 0.22496 0
0.585844 0.194129 0
0.594095 0.240176 0
0.630701 0.209517 0
0.621901 0.162424 0
0.667731 0.178095 0
0.676485 0.226008 0
0.713906 0.194492 0
0.722681 0.242872 0
0.760442 0.211047 0
0.751547 0.162356 0
0.798298 0.179 0
0.807147 0.227866 0
0.845136 0.195775 0
0.854541 0.243285 0
0.892163 0.212344 0
0.902461 0.257947 0
0.93935 0.228684 0
0.930236 0.180167 0
0.977229 0.197066 0
0.986264 0.245777 0
1.02423 0.213991 0
1.0331 0.263172 0
1.07123 0.230975 0
1.06234 0.181814 0
1.10938 0.198721 0
1.09996 0.151012 0
1.14691 0.168161 0
1.15631 0.215921 0
1.19446 0.183678 0
1.20343 0.232645 0
1.2416 0.200322 0
1.23272 0.151117 0
1.2798 0.167954 0
1.28868 0.217167 0
1.32685 0.184862 0
1.33573 0.234064 0
1.3739 0.201768 0
0.789327 0.130094 0
1.38279 0.25097 0
1.42096 0.218674 0
1.41207 0.169471 0
1.45912 0.186378 0
1.46801 0.235581 0
1.50618 0.203285 0
1.51506 0.252489 0
1.55323 0.220192 0
1.54435 0.170989 0
1.5914 0.187896 0
1.60029 0.2371 0
1.63846 0.204803 0
1.64734 0.254007 0
1.68551 0.221711 0
1.67663 0.172507 0
1.72368 0.189415 0
1.73831 0.241548 0
1.77074 0.206322 0
1.76185 0.157121 0
1.8091 0.17428 0
1.81866 0.220885 0
1.85608 0.190621 0
1.86521 0.238879 0
1.90289 0.207671 0
1.91264 0.253772 0
1.94955 0.224093 0
1.94067 0.17593 0
1.98705 0.192828 0
1.99572 0.240997 0
2.0329 0.209382 0
2.02422 0.16161 0
2.04166 0.257286 0
0.419739 0.142889 0
0.968291 0.148058 0
0.310035 0.202211 0
0.316128 0.230863 0
0.658501 0.130052 0
0.685107 0.27445 0
1.34462 0.283266 0
1.16528 0.264896 0
1.84735 0.142081 0
0.557687 0.270604 0
1.21234 0.281769 0
1.58252 0.138692 0
0.533563 0.131933 0
0.489835 0.120004 0
1.45024 0.137174 0
2.06974 0.17785 0
2.06113 0.130713 0
0.283221 0.152215 0
0.921299 0.131169 0
0.343836 0.24295 0
0.319203 0.260002 0
0.235529 0.249617 0
0.347029 0.274099 0
0.291856 0.246297 0
0.295938 0.27548 0
0.272836 0.264931 0
0.27461 0.290522 0
0.251228 0.280224 0
0.253903 0.305808 0
0.232795 0.296709 0
0.298805 0.304058 0
1.0801 0.280176 0
1.47689 0.284785 0
1.05315 0.133468 0
1.09741 0.0970974 0
1.82427 0.272867 0
1.2701 0.118911 0
0.816337 0.277695 0
1.40432 0.121101 0
1.04244 0.320388 0
0.959305 0.103028 0
1.60923 0.286151 0
0.601674 0.286775 0
2.00739 0.280923 0
0.342592 0.0992796 0
0.375237 0.105729 0
1.52511 0.298716 0
1.53114 0.119823 0
0.733824 0.287256 0
0.613372 0.114719 0
0.645558 0.0838585 0
2.015 0.115858 0
1.22718 0.0994086 0
1.39166 0.29817 0
1.3564 0.329754 0
0.744134 0.11556 0
0.782853 0.0841771 0
0.826899 0.10047 0
1.17418 0.314034 0
0.520902 0.0906676 0
1.4967 0.329429 0
1.26048 0.0740437 0
0.365514 0.0716355 0
0.229836 0.121666 0
1.57453 0.09137 0
1.61938 0.110761 0
0.481716 0.0753791 0
0.14093 0.2 0
0.130041 0.192847 0
0.131507 0.178608 0
0.117165 0.184444 0
0.120761 0.164701 0
0.1156 0.199931 0
0.100804 0.174136 0
0.102545 0.153034 0
0.12169 0.143342 0
0.104604 0.13008 0
0.0809304 0.161171 0
0.128077 0.121858 0
0.106825 0.102278 0
0.082498 0.188728 0
0.0314738 0.158621 0
2.04625 0.310891 0
2.08475 0.27479 0
2.11394 0.138117 0
0.233149 0.151108 0
0.258724 0.193613 0
0.268522 0.184917 0
1.65397 0.301059 0
0.145962 0.224912 0
0.132503 0.222267 0
0.13746 0.236947 0
0.120111 0.233525 0
0.126593 0.25219 0
0.105294 0.247497 0
0.113343 0.26868 0
0.133997 0.271734 0
0.121622 0.292031 0
0.147069 0.292141 0
0.0896563 0.267464 0
0.0813699 0.243294 0
0.163574 0.276939 0
0.172694 0.298517 0
0.1583 0.321483 0
0.186823 0.322499 0
0.173113 0.348195 0
0.0322087 0.250839 0
0.211694 0.124337 0
0.250615 0.169546 0
0.256243 0.157787 0
0.170796 0.14736 0
0.156755 0.141654 0
0.17187 0.131161 0
0.147502 0.152323 0
0.198129 0.260662 0
0.206368 0.271663 0
0.220945 0.26864 0
0.190489 0.270628 0
0.198813 0.286731 0
0.55749 0.322277 0
0.520166 0.299321 0
0.235199 0.330709 0
0.267109 0.337524 0
0.172324 0.25256 0
0.255974 0.218859 0
0.268327 0.214994 0
0.184197 0.143083 0
0.188721 0.129954 0
0.209694 0.139146 0
0.269223 0.244007 0
0.252374 0.255244 0
0.282229 0.0410487 0
1.21977 0.330016 0
1.25733 0.296346 0
2.09358 0.0890819 0
0.244373 0.240984 0
0.0838116 0.115786 0
0.0797544 0.0817835 0
0.237449 0.264854 0
0.247178 0.146225 0
0.270136 0.2 0
0.28023 0.191334 0
0.263476 0.170737 0
0.371486 0.368728 0
0.396124 0.330051 0
0.440314 0.325693 0
0.357693 0.329668 0
0.476576 0.362035 0
0.29587 0.222914 0
0.307627 0.175476 0
0.079599 0.0406461 0
0.146062 0.252571 0
0.15162 0.125025 0
0.417223 0.294608 0
0.457089 0.286958 0
0.036619 0.338729 0
0.0713014 0.322193 0
0.0735823 0.36704 0
0.041143 0.0722223 0
0.693501 0.32349 0
0.145406 0.175484 0
0.138777 0.164467 0
0.300367 0.0698839 0
0.167025 0.112083 0
0.146978 0.105544 0
0.151909 0.236762 0
0.444611 0.106436 0
0.909355 0.0817561 0
0.282901 0.370713 0
1.61474 0.330739 0
0.578053 0.368179 0
0.824695 0.0487848 0
2.09634 0.3213 0
2.02276 0.364865 0
2.12532 0.363702 0
1.09789 0.328757 0
0.161137 0.260089 0
2.07793 0.225752 0
2.12079 0.240944 0
2.0747 0.0437362 0
1.89402 0.158846 0
1.93154 0.128738 0
1.8848 0.111477 0
1.8384 0.0926484 0
1.87744 0.0655304 0
1.7913 0.0793874 0
1.9712 0.046671 0
1.92502 0.366682 0
1.94563 0.325156 0
1.89941 0.326645 0
1.87499 0.367178 0
1.84989 0.323491 0
1.7997 0.321303 0
1.77183 0.280326 0
1.75031 0.321965 0
1.77491 0.365615 0
2.11727 0.191885 0
0.883187 0.163467 0
1.71449 0.140266 0
1.667 0.125342 0
1.70591 0.0884759 0
1.67732 0.042286 0
1.52278 0.370513 0
1.37512 0.04128 0
1.34848 0.0834574 0
0.776093 0.367587 0
1.125 0.0433013 0
1.15 0.0866019 0
1.07442 0.0496847 0
0.974527 0.0370837 0
1.47464 0.0427918 0
1.44953 0.0873752 0
1.17595 0.362984 0
1.025 0.366699 0
0.925007 0.367031 0
0.95 0.323404 0
0.897321 0.326356 0
0.874563 0.367261 0
0.846552 0.324465 0
1.62923 0.156667 0
1.32319 0.13033 0
1.69342 0.270472 0
1.49568 0.156227 0
1.56237 0.268721 0
1.44 0.319169 0
1.43005 0.267892 0
1.36502 0.152565 0
0.993446 0.294003 0
1.30179 0.321101 0
1.18235 0.127964 0
1.25016 0.2491 0
1.29638 0.266841 0
1.11824 0.247967 0
1.12945 0.294699 0
1.01527 0.165035 0
0.836192 0.147197 0
1.4998 0.0831488 0
1.00655 0.118664 0
0.872896 0.117126 0
0.70523 0.146383 0
1.96013 0.276645 0
0.769406 0.257102 0
0.699552 0.0908977 0
2.1587 0.162257 0
1.97813 0.145326 0
0.646036 0.302035 0
0.799423 0.326603 0
0.515621 0.255445 0
1.72538 0.366474 0
1.97009 0.0998346 0
1.57108 0.313772 0
0.577925 0.14549 0
0.638911 0.256447 0
0.407352 0.0771641 0
0.525103 0.042511 0
0.674231 0.370698 0
1.69802 0.321701 0
0.56947 0.0908728 0
1.75459 0.110239 0
1.80084 0.126127 0
0.673535 0.0431435 0
1.57391 0.0465733 0
2.04571 0.0828469 0
0.10002 0.225545 0
0.0788152 0.21577 0
0.369719 0.224393 0
0.210352 0.308739 0
1.22342 0.0432967 0
[...]
CELL_DATA 1241
VECTORS velocity double
1.03575 -0.0028642 0.0
1.19964 0.0670315 0.0
0.530018 0.000254365 0.0
0.976954 0.00671422 0.0
1.03024 0.00906757 0.0
1.42049 0.100525 0.0
1.12407 -0.0023948 0.0
1.00571 -0.00186897 0.0
0.368841 0.0143688 0.0
1.15051 -0.000880058 0.0
1.31251 -0.120048 0.0
1.31627 0.126322 0.0
0.865787 -0.160531 0.0
1.01618 0.00318553 0.0
0.994966 0.00699407 0.0
1.4624 -0.0291986 0.0
0.985404 0.00210042 0.0
0.47924 0.0602026 0.0
1.15467 0.0619878 0.0
1.64802 -0.251686 0.0
1.0387 0.00542713 0.0
1.05659 -0.065277 0.0
1.02486 0.00344401 0.0
1.25334 0.904565 0.0
1.07682 0.000674248 0.0
1.04226 0.00326743 0.0
1.29817 -0.198008 0.0
1.07296 -0.0241568 0.0
1.32178 -0.0837126 0.0
1.45902 -0.0616823 0.0
1.33199 0.090098 0.0
0.849984 -0.0377096 0.0
1.51515 -0.00145909 0.0
1.01463 0.00197156 0.0
1.2403 -0.0581592 0.0
1.35721 0.154955 0.0
1.19554 -0.0559499 0.0
1.05046 -0.1678 0.0
0.359415 0.0204058 0.0
1.3803 0.139194 0.0
1.76655 -0.176559 0.0
1.41784 -0.0422885 0.0
1.05285 -0.236727 0.0
0.583104 0.00578701 0.0
1.39798 -0.164974 0.0
0.576437 -0.00162674 0.0
1.2013 0.0985393 0.0
1.09837 0.0211935 0.0
1.61347 -0.311069 0.0
1.24428 -0.0140393 0.0
1.17037 -0.00159094 0.0
1.2912 -0.417247 0.0
0.874172 -0.00513378 0.0
1.39752 -0.0863978 0.0
1.77731 -0.277089 0.0
1.51352 -0.0333243 0.0
1.13048 -0.035369 0.0
1.1171 -0.00232201 0.0
1.66173 -0.0957629 0.0
1.68807 -0.196037 0.0
1.15873 0.846913 0.0
1.0168 -0.000814888 0.0
0.201694 0.0307746 0.0
1.04332 0.00714497 0.0
-0.246249 0.0700266 0.0
1.33194 0.227211 0.0
-0.270799 0.092717 0.0
1.14035 0.00118248 0.0
0.846027 -0.0268513 0.0
0.228625 0.027287 0.0
1.14111 -0.00143808 0.0
0.798298 0.0119106 0.0
1.14068 -0.000570779 0.0
0.798348 -0.0183211 0.0
1.16161 0.00374536 0.0
0.881113 0.156756 0.0
0.9584 0.00424498 0.0
1.63466 -0.042206 0.0
0.96727 -0.0360212 0.0
0.636468 -0.000723853 0.0
1.75329 -0.381107 0.0
1.15956 -0.245928 0.0
0.661025 0.00872173 0.0
1.26092 -0.225977 0.0
1.34583 0.169763 0.0
0.918031 -0.0659495 0.0
1.21458 0.182948 0.0
0.10055 0.104974 0.0
1.8399 0.528983 0.0
1.15245 0.000448601 0.0
1.27671 0.0074436 0.0
-0.18108 -0.0131886 0.0
-0.3456 0.0855228 0.0
1.43431 -0.0688751 0.0
1.17115 -0.0370769 0.0
1.00923 0.000249106 0.0
0.856407 -0.0292277 0.0
-0.18846 0.0930727 0.0
1.01499 -0.00748103 0.0
-0.232232 0.122836 0.0
1.08215 -0.0985614 0.0
1.13612 -0.00804973 0.0
0.960911 -0.00135834 0.0
1.64312 -0.159147 0.0
1.74446 -0.670428 0.0
1.2735 -0.397739 0.0
1.07697 -0.067042 0.0
0.506481 -0.0202462 0.0
1.78951 0.649098 0.0
1.17508 -0.000311514 0.0
1.48049 -0.115376 0.0
1.23849 0.195152 0.0
0.132215 0.0748405 0.0
1.44149 -0.0271101 0.0
1.07413 0.0163124 0.0
1.44263 0.0399472 0.0
1.40826 0.00851401 0.0
1.38777 0.0497447 0.0
1.05494 0.00153875 0.0
0.267665 0.0457001 0.0
1.19408 0.040397 0.0
1.51993 0.58102 0.0
1.24731 0.108742 0.0
0.917953 -0.0629442 0.0
0.735258 -0.102895 0.0
1.20455 0.0848693 0.0
1.43899 -0.046868 0.0
1.10111 0.0194066 0.0
1.7516 0.500842 0.0
0.549681 -0.0712421 0.0
1.14085 -0.00863078 0.0
0.622669 -0.00372679 0.0
0.883325 0.063262 0.0
1.60049 -0.0165944 0.0
1.02818 -0.157456 0.0
-0.272791 0.0742379 0.0
0.123837 0.0565604 0.0
1.20903 0.0832534 0.0
1.03958 -0.0265991 0.0
1.66562 -0.761378 0.0
1.50089 0.00349642 0.0
1.0379 0.000855297 0.0
1.07828 -0.244568 0.0
0.99726 0.00845451 0.0
1.52848 0.0117941 0.0
0.0367638 0.0348183 0.0
-0.252382 0.0340863 0.0
-0.169933 0.00761899 0.0
0.666838 0.0120455 0.0
0.673888 -0.0133624 0.0
0.555211 -0.101407 0.0
1.02737 -0.00854519 0.0
1.7982 -0.330574 0.0
1.05603 -0.15806 0.0
1.20282 -0.0491943 0.0
1.20456 0.0543348 0.0
0.563805 0.000256942 0.0
1.64127 0.0698314 0.0
0.865497 0.0341871 0.0
1.23116 -0.0587558 0.0
-0.234107 0.0555406 0.0
1.74087 0.444782 0.0
1.13168 0.00273837 0.0
1.22213 -0.204944 0.0
1.12456 0.0297296 0.0
1.05419 0.130041 0.0
1.00684 -0.00156658 0.0
0.987148 0.109436 0.0
0.608785 -0.0026256 0.0
1.15869 -0.0289171 0.0
0.912857 -0.0261218 0.0
1.17951 0.00054689 0.0
1.36484 0.264108 0.0
1.1708 0.0883771 0.0
1.09893 -0.00012795 0.0
1.10895 0.000432468 0.0
1.18135 0.197405 0.0
1.12024 -0.287364 0.0
1.10749 0.00545674 0.0
1.1656 -0.224452 0.0
1.11183 0.00304453 0.0
0.369713 0.107272 0.0
1.08819 -0.6448 0.0
0.730219 -0.126889 0.0
1.02032 -0.00456825 0.0
0.765206 -0.0786716 0.0
0.7614 -0.0633129 0.0
1.03043 0.00239035 0.0
1.05542 0.0957824 0.0
0.460548 0.0469201 0.0
0.89016 -0.830504 0.0
1.77902 0.342844 0.0
1.02365 -0.000906421 0.0
0.980818 0.00894956 0.0
0.666413 0.0598545 0.0
0.860993 0.0615013 0.0
0.397615 0.058887 0.0
1.02166 -0.0115633 0.0
1.42772 -0.0322649 0.0
1.44985 0.580739 0.0
1.1545 0.192801 0.0
1.06279 -0.0153956 0.0
1.42686 0.0383315 0.0
1.04738 -0.0979073 0.0
1.38928 -0.0957395 0.0
1.43604 -0.0448393 0.0
0.490368 0.0267202 0.0
0.647408 0.00966921 0.0
0.886104 -0.0243823 0.0
0.841923 0.0347735 0.0
0.595482 0.0139414 0.0
0.570613 -0.00156988 0.0
1.79053 0.283913 0.0
1.10709 0.0050513 0.0
1.44426 -0.00761466 0.0
1.1139 0.00589275 0.0
0.756722 -0.0807501 0.0
1.50752 -0.096863 0.0
1.16172 -0.0256138 0.0
1.13941 -0.00672227 0.0
0.833102 -0.0495754 0.0
1.67151 -0.0658592 0.0
1.00683 0.0542961 0.0
1.00227 0.0147882 0.0
0.947971 -0.027575 0.0
1.17898 0.000381552 0.0
1.42946 -0.14324 0.0
1.73146 -0.600114 0.0
1.15833 -0.00463308 0.0
1.16564 -0.00617142 0.0
1.01435 -0.00140728 0.0
1.06357 -0.132771 0.0
1.02568 -0.00625833 0.0
0.998699 -0.00375736 0.0
1.26001 0.310764 0.0
1.03832 -0.256355 0.0
1.10641 0.176864 0.0
1.31143 0.135761 0.0
0.764207 -0.109939 0.0
0.355016 -0.0454304 0.0
0.954019 0.01496 0.0
1.43872 0.0568375 0.0
1.42244 0.917971 0.0
0.682948 -0.0851395 0.0
1.13065 -0.0104581 0.0
1.7053 0.136957 0.0
1.09762 -0.899101 0.0
0.868467 -0.177505 0.0
1.1221 -0.0327961 0.0
0.616514 -0.00658791 0.0
1.02238 0.0260009 0.0
0.604162 -0.00808682 0.0
1.03512 -0.00207596 0.0
1.17454 0.00164844 0.0
0.670369 -0.0116719 0.0
0.756808 -0.0341848 0.0
1.09496 -0.28535 0.0
1.31657 -0.106943 0.0
1.17345 0.000339605 0.0
1.01026 -0.00650827 0.0
1.02569 0.00803745 0.0
0.567375 -0.00461927 0.0
1.17391 0.00169895 0.0
0.718097 -0.0251051 0.0
1.10891 0.0388996 0.0
1.01607 -0.00637164 0.0
0.620453 0.00353992 0.0
1.23813 -0.111505 0.0
1.23096 -0.17804 0.0
0.770105 -0.0263505 0.0
1.14169 -0.0642624 0.0
0.638064 0.000332967 0.0
1.00174 -0.0105687 0.0
0.125079 0.0745549 0.0
1.16368 -0.00163853 0.0
1.16217 -0.00575445 0.0
0.647906 -0.00421646 0.0
0.94933 -0.199442 0.0
0.999122 -0.0111273 0.0
1.42429 0.161458 0.0
1.15906 0.00169233 0.0
1.18012 -0.000706742 0.0
1.22363 -0.17083 0.0
1.18249 -0.00171216 0.0
1.18045 -0.000596825 0.0
1.1547 -0.0111547 0.0
0.950778 -0.116295 0.0
0.8358 0.0428107 0.0
1.18436 -0.00324804 0.0
1.17992 -0.0010576 0.0
1.17824 -0.00215977 0.0
0.633509 0.0701883 0.0
0.541321 0.00409399 0.0
0.992229 0.00492517 0.0
0.600813 -0.00719655 0.0
1.18317 -0.00256106 0.0
1.01652 -0.0120912 0.0
1.13469 0.00805607 0.0
-0.253355 -0.0255303 0.0
0.998341 -0.00591515 0.0
0.573658 -0.0016832 0.0
1.3208 -0.605182 0.0
1.11504 -0.00566259 0.0
0.994748 -0.0107266 0.0
0.589171 -0.00818348 0.0
1.18205 -0.00170517 0.0
0.851135 0.041764 0.0
0.587671 0.00125008 0.0
1.01136 -0.00953006 0.0
1.1842 -0.00350332 0.0
1.17818 -0.00247293 0.0
1.17941 -0.00164732 0.0
0.672295 -0.00421444 0.0
0.522884 0.00174745 0.0
1.18414 -0.0043993 0.0
1.14362 -0.0726465 0.0
1.17021 -0.00559142 0.0
0.654735 0.00918685 0.0
1.15892 -0.00643926 0.0
1.17615 -0.0022595 0.0
1.16859 -0.000946772 0.0
1.18635 -0.00399077 0.0
0.534416 -0.00506842 0.0
1.18361 -0.00392989 0.0
1.18214 -0.0031462 0.0
1.17975 -0.00463907 0.0
0.527985 -0.00201558 0.0
1.17106 -0.000494318 0.0
1.15743 -0.00391469 0.0
1.16358 -0.00197724 0.0
1.18527 -0.00400483 0.0
1.17473 -0.163333 0.0
1.11878 -0.000705747 0.0
1.18702 -0.00450504 0.0
1.35107 0.668001 0.0
1.17828 -0.0040289 0.0
0.577574 -0.00513135 0.0
1.07972 -0.015733 0.0
0.617006 0.00828478 0.0
0.59925 -0.00559241 0.0
1.13285 0.00441555 0.0
1.07889 -0.00697992 0.0
1.05528 -0.00188451 0.0
0.541835 -0.00541016 0.0
1.08419 -0.0153925 0.0
1.13855 0.00335135 0.0
1.18565 -0.00476194 0.0
1.08801 0.142969 0.0
1.15653 -0.697522 0.0
0.580516 -0.000866062 0.0
0.53667 -0.00290081 0.0
1.18358 -0.00400108 0.0
1.18417 -0.00523038 0.0
0.63811 -0.0199417 0.0
0.529206 -0.0102475 0.0
1.18218 -0.0035681 0.0
0.996734 0.0106598 0.0
1.15768 0.00639168 0.0
1.13769 -0.0034022 0.0
0.589748 0.00978423 0.0
0.544508 -0.000203861 0.0
1.14546 0.0116768 0.0
0.634801 0.0109225 0.0
0.598944 0.0119091 0.0
1.16192 0.00415064 0.0
0.646441 0.0196096 0.0
0.602511 0.000922654 0.0
1.17732 -0.00380994 0.0
1.17 -0.00396218 0.0
0.98019 0.0121353 0.0
1.17682 -0.00356536 0.0
1.15819 -0.00374385 0.0
1.18109 -0.00369817 0.0
1.00408 0.00705268 0.0
1.13679 -0.00326635 0.0
0.650253 0.00695209 0.0
0.550755 0.0129044 0.0
0.602371 0.0111184 0.0
0.53158 -0.00829534 0.0
0.592456 -0.000665377 0.0
0.602784 -0.00330707 0.0
0.566497 -0.00159214 0.0
0.633507 -0.0106795 0.0
0.610918 -0.00386106 0.0
0.620734 0.0112377 0.0
0.550862 -0.0058266 0.0
0.583606 0.0128674 0.0
0.566858 -0.000178017 0.0
0.658874 0.0207244 0.0
0.569837 0.00809118 0.0
0.569019 -0.00915993 0.0
0.547885 0.0016121 0.0
0.57337 -0.00094471 0.0
0.559644 0.00635536 0.0
0.610985 -0.00628796 0.0
0.602971 -0.00153035 0.0
0.59215 -0.00591427 0.0
0.58144 -0.0133198 0.0
0.580329 0.00424458 0.0
0.57014 -0.000845217 0.0
0.594932 0.00186005 0.0
0.54149 -0.0144322 0.0
0.528035 0.0182798 0.0
0.516446 0.00283704 0.0
0.559055 -0.00483401 0.0
0.55025 0.00330054 0.0
0.62836 -0.0202526 0.0
0.547056 0.00397467 0.0
0.536797 0.00416137 0.0
0.574774 1.41285e-06 0.0
0.555682 -0.00276657 0.0
1.15717 -0.00325531 0.0
1.14092 -0.00335114 0.0
1.18335 -0.00496207 0.0
1.18347 -0.00416805 0.0
1.18499 -0.00414655 0.0
1.10591 -0.00424994 0.0
1.16521 -0.00423036 0.0
1.15062 -0.00320247 0.0
1.16137 0.000205938 0.0
1.13942 -0.00417948 0.0
1.17272 -0.00498334 0.0
1.17384 -0.00518348 0.0
1.14761 -0.00361302 0.0
1.18217 -0.00341981 0.0
1.16797 -0.00340829 0.0
1.18089 -0.00417771 0.0
1.16275 -0.00467525 0.0
1.13775 -0.00167071 0.0
1.17896 -0.00449462 0.0
1.18349 -0.00367772 0.0
1.17547 -0.00300761 0.0
1.18235 -0.0039145 0.0
1.17866 -0.00431942 0.0
1.13691 -0.0057887 0.0
1.18408 -0.00279595 0.0
1.16905 -0.00171053 0.0
1.18275 -0.00238858 0.0
1.10606 0.00086915 0.0
1.16862 -0.00356778 0.0
1.16563 -0.00166452 0.0
1.18193 -0.00219083 0.0
1.15063 0.000292314 0.0
1.17988 -0.00217656 0.0
1.18144 -0.00209255 0.0
1.16342 -0.000277342 0.0
1.18359 -0.0021267 0.0
1.17386 -0.00263851 0.0
1.1795 -0.00173526 0.0
1.13579 -0.00423957 0.0
1.15147 -0.00041207 0.0
1.18091 -0.00191626 0.0
1.17277 -0.00220581 0.0
1.17435 -0.00130044 0.0
1.17276 -0.000215167 0.0
1.15367 -0.00810984 0.0
1.18179 -0.00144798 0.0
1.18009 -0.00108419 0.0
1.12148 -0.00231182 0.0
1.16631 -0.00269351 0.0
1.10721 0.00501435 0.0
1.15647 -0.00178489 0.0
1.16684 -0.00168559 0.0
1.1745 -0.00253523 0.0
1.18055 -0.00116127 0.0
1.15361 -0.0018121 0.0
1.17649 -0.00240197 0.0
1.17852 -0.000858531 0.0
1.18159 -0.000405111 0.0
1.17696 -5.12691e-05 0.0
1.1752 0.000319001 0.0
1.17693 0.00154913 0.0
1.16563 0.00183655 0.0
1.12047 -0.00208295 0.0
1.08971 0.00248128 0.0
1.16559 0.00250822 0.0
1.17943 1.74013e-05 0.0
0.587593 -0.00255084 0.0
1.16775 0.00162672 0.0
1.13698 0.00200634 0.0
1.15483 0.00272467 0.0
1.17903 0.000920012 0.0
1.15362 0.00269565 0.0
1.17066 0.00335733 0.0
1.16652 0.000973396 0.0
1.17378 0.00209967 0.0
1.16696 0.000769863 0.0
1.11801 -0.00142795 0.0
1.11851 -0.00358903 0.0
1.14135 -0.000917931 0.0
1.17192 0.00315099 0.0
1.16091 -0.00128076 0.0
1.17361 0.0024889 0.0
1.15185 -0.000618231 0.0
1.16394 -0.00155258 0.0
1.17582 0.00188047 0.0
1.17292 0.00363436 0.0
1.00722 -0.00737889 0.0
1.15503 -0.000307126 0.0
1.16862 0.00413854 0.0
1.135 0.00342062 0.0
1.17114 -0.000720758 0.0
1.17652 0.000530811 0.0
1.06562 -0.0111231 0.0
1.16044 0.00608825 0.0
1.16356 -0.000879148 0.0
1.13854 0.00837874 0.0
1.17397 0.000453228 0.0
1.14641 0.011875 0.0
1.15987 -0.00135303 0.0
1.17307 -0.00084808 0.0
1.16503 0.000724623 0.0
1.11946 0.176141 0.0
1.13841 -0.00317763 0.0
1.17814 -0.00483562 0.0
1.16606 0.00562506 0.0
1.169 0.00163198 0.0
1.14394 -0.00793856 0.0
1.14986 4.09979e-05 0.0
1.1238 0.000883432 0.0
1.14653 -0.0046424 0.0
1.16651 0.00178318 0.0
1.12564 0.00268367 0.0
1.16307 0.00148681 0.0
1.15727 -0.00308839 0.0
1.15147 0.000555077 0.0
1.15214 0.00734186 0.0
1.15943 -0.00313924 0.0
0.699391 -0.0202238 0.0
0.997391 0.000511479 0.0
1.14876 0.00925377 0.0
1.1526 0.00564368 0.0
1.15566 -0.00511343 0.0
1.13145 0.00575069 0.0
1.14192 0.00807989 0.0
1.15179 -0.00187452 0.0
1.14019 1.35426e-05 0.0
1.14783 -0.00255931 0.0
1.14499 9.12791e-05 0.0
1.13501 0.00853125 0.0
1.1606 0.00330469 0.0
1.15597 0.00494847 0.0
1.01592 0.00396163 0.0
1.15738 0.00335588 0.0
1.15234 0.00617015 0.0
1.14333 0.00613339 0.0
1.12929 0.0111069 0.0
1.12749 0.00913715 0.0
1.15042 0.00689206 0.0
1.73716 0.178533 0.0
1.13205 -0.00864886 0.0
1.13738 0.0148621 0.0
1.11198 -0.0199318 0.0
1.14184 0.0157688 0.0
1.14814 0.0106858 0.0
1.12658 -0.0105027 0.0
1.14406 0.0159475 0.0
1.17618 -0.00264643 0.0
1.07679 -0.00584176 0.0
1.08635 0.00901673 0.0
1.11662 -0.00636775 0.0
1.29996 0.128872 0.0
1.17498 -0.00514301 0.0
1.06672 0.00223989 0.0
1.13948 -0.00547138 0.0
1.14496 0.0232924 0.0
1.14019 0.0168604 0.0
1.10983 -0.00760918 0.0
1.10642 -0.0244297 0.0
1.00446 -0.00950388 0.0
1.15694 -5.50454e-06 0.0
1.09218 -0.000363256 0.0
1.10128 -0.00080088 0.0
1.13161 0.0196354 0.0
1.10022 -0.0205242 0.0
1.03211 0.198273 0.0
0.991123 -0.0102382 0.0
1.14177 0.0287491 0.0
0.454286 -0.168002 0.0
1.37231 0.137008 0.0
1.17426 -0.0494144 0.0
1.09054 0.00832693 0.0
1.08914 0.0229132 0.0
1.07737 0.0326497 0.0
1.17219 -0.000198976 0.0
1.07858 0.0118923 0.0
1.05548 -0.0431696 0.0
1.30216 0.175658 0.0
1.01327 -0.146271 0.0
1.04965 -0.056155 0.0
1.15601 -0.135948 0.0
1.12817 -0.00830141 0.0
1.1033 -0.0455854 0.0
1.15256 -0.00345213 0.0
0.972431 0.00161759 0.0
1.17593 0.0509606 0.0
1.03927 -0.013641 0.0
1.2351 -0.10274 0.0
1.17452 -0.00479935 0.0
1.16932 -0.00560145 0.0
1.07839 -0.018752 0.0
1.399 -0.567236 0.0
1.14058 0.0812815 0.0
1.02543 -0.0189426 0.0
1.14138 0.0645601 0.0
0.993786 0.000996097 0.0
0.737675 0.0276573 0.0
1.10625 0.0421772 0.0
1.32735 -0.160738 0.0
0.951283 -0.0924838 0.0
1.10683 -0.0373509 0.0
0.632939 -0.557122 0.0
1.09172 -0.0222334 0.0
1.10344 -0.00447305 0.0
1.133 -0.00481365 0.0
1.3866 -0.144554 0.0
1.09661 0.0564499 0.0
1.1522 -0.00342414 0.0
1.06999 -0.0240471 0.0
1.16162 0.0313538 0.0
1.0039 -0.0133576 0.0
1.3508 -0.772004 0.0
1.17571 -0.000361337 0.0
1.17334 0.0469133 0.0
1.1643 -0.00118494 0.0
1.11823 -0.00284248 0.0
1.1741 -0.0544308 0.0
1.07221 0.0240533 0.0
1.19188 0.0845259 0.0
1.11587 -0.00593698 0.0
1.15766 0.039451 0.0
0.983834 0.000790051 0.0
1.12763 0.00386341 0.0
1.18096 -0.531922 0.0
0.648852 -0.00239161 0.0
0.66495 -0.0211598 0.0
0.96169 0.0264965 0.0
1.26361 0.121624 0.0
1.13721 -0.00379626 0.0
1.15691 -0.00403709 0.0
0.593971 0.00847982 0.0
1.16924 -0.00393007 0.0
0.345545 -0.125342 0.0
1.08223 -0.0994414 0.0
0.615823 0.00654669 0.0
0.617482 -0.0129238 0.0
0.93494 0.0389458 0.0
1.13613 -0.00324074 0.0
0.863946 -0.174194 0.0
0.884376 -0.0204171 0.0
1.68879 -0.121111 0.0
0.92927 0.0386939 0.0
1.13365 -0.010547 0.0
1.13463 -0.0122307 0.0
1.05022 0.00337654 0.0
1.1754 -0.00066966 0.0
1.15136 -0.00166901 0.0
1.18517 0.34787 0.0
0.60283 0.0154969 0.0
1.01004 0.00477224 0.0
1.35614 -0.101817 0.0
0.57886 0.00550366 0.0
1.58111 0.559993 0.0
0.962967 -0.0418364 0.0
0.835193 -0.0273334 0.0
1.32818 0.0930371 0.0
0.816648 -0.0521492 0.0
0.968483 0.00136673 0.0
0.676949 -0.121694 0.0
1.15001 -0.0115587 0.0
0.879037 0.098749 0.0
1.14019 -0.011066 0.0
0.702033 -0.00352772 0.0
1.02147 0.000486585 0.0
0.999951 0.137879 0.0
1.41277 -0.0372248 0.0
0.564181 -0.00271584 0.0
0.67494 -0.0224345 0.0
0.918822 0.805081 0.0
1.10551 -0.00239546 0.0
1.04226 0.0132448 0.0
1.38739 0.0105689 0.0
0.588144 -0.00840779 0.0
1.1226 0.0113142 0.0
1.16703 -0.448885 0.0
0.186444 0.0223689 0.0
0.951771 -0.0617882 0.0
1.08024 -0.0834103 0.0
0.715038 0.0241738 0.0
0.555559 0.0205408 0.0
1.64673 0.0318241 0.0
1.13952 -0.00517156 0.0
0.311484 0.0152097 0.0
0.610771 0.0280707 0.0
1.12676 -0.00119659 0.0
1.17049 -0.00437814 0.0
1.01388 -0.0134587 0.0
0.968428 0.0624589 0.0
1.20776 0.171235 0.0
0.629722 0.00828323 0.0
1.1622 0.00430908 0.0
0.947463 0.0916464 0.0
1.16929 -0.0041238 0.0
1.38865 -0.593406 0.0
0.576425 -0.00121065 0.0
1.45449 -0.136117 0.0
1.10369 0.00241488 0.0
0.977278 -0.0101531 0.0
0.620852 0.090086 0.0
1.01311 0.103513 0.0
0.89738 0.139641 0.0
1.10608 0.00430578 0.0
1.20008 -0.057748 0.0
1.39926 -0.0371351 0.0
0.602574 0.0024506 0.0
0.621023 0.0119872 0.0
1.08131 -0.00524707 0.0
0.404507 -0.0728459 0.0
1.03331 0.0379758 0.0
0.54047 0.00339805 0.0
0.988141 -0.012654 0.0
1.1054 -0.00486425 0.0
0.971641 -0.00661507 0.0
0.586272 -0.00373302 0.0
0.588186 0.0179084 0.0
0.611637 0.00744629 0.0
0.59017 0.00615481 0.0
0.625812 0.00755401 0.0
1.21084 0.669131 0.0
1.35739 0.0670682 0.0
0.975267 -0.00199098 0.0
0.607513 0.00669627 0.0
0.61651 -0.0104412 0.0
0.680759 0.023365 0.0
1.13839 -0.0464963 0.0
0.613499 -0.0019087 0.0
1.60759 -0.191578 0.0
1.28098 0.0996709 0.0
0.558981 -0.139297 0.0
1.33164 -0.0965405 0.0
1.5275 -0.465874 0.0
1.00918 0.000404147 0.0
1.08819 0.0105027 0.0
1.14391 -0.00921567 0.0
0.988704 -0.000528262 0.0
0.837483 -0.68978 0.0
1.01747 0.00130953 0.0
0.989384 -0.00432205 0.0
1.16625 -0.00720065 0.0
1.10307 -0.028891 0.0
1.64566 -0.00525217 0.0
-0.111026 0.106574 0.0
0.535642 -0.0708724 0.0
1.33628 0.51765 0.0
1.08039 -0.00956459 0.0
0.639725 -0.00890865 0.0
0.617013 -0.00390954 0.0
0.614634 -0.00453396 0.0
1.17352 0.000946709 0.0
0.652674 0.219412 0.0
1.1581 -0.0190776 0.0
0.991837 0.00836062 0.0
0.769877 0.17262 0.0
1.11834 -0.00327708 0.0
0.179191 -0.0163969 0.0
1.15262 0.00136069 0.0
0.610918 0.0177256 0.0
0.609795 -0.00878298 0.0
1.34689 0.091222 0.0
0.87993 -0.00635499 0.0
1.51084 0.0373344 0.0
0.99225 0.0102031 0.0
1.00935 0.0063399 0.0
0.140367 -0.165016 0.0
0.989577 0.0207953 0.0
1.15819 0.00759149 0.0
1.14255 0.00713415 0.0
0.367781 -0.141241 0.0
1.61993 -0.271988 0.0
1.08509 0.00142024 0.0
1.29212 0.202779 0.0
0.636625 -0.0115887 0.0
0.609133 -0.00557109 0.0
1.11793 -0.0175716 0.0
0.564874 0.0934994 0.0
1.12894 -0.0230742 0.0
0.789446 0.0226032 0.0
0.948866 -0.0108062 0.0
1.12247 0.00598986 0.0
1.01951 -0.00362174 0.0
0.201869 -0.0208937 0.0
1.12851 -0.00837133 0.0
0.315356 0.0588745 0.0
1.02953 -0.00295111 0.0
1.02099 -0.00329641 0.0
0.620276 -0.0140285 0.0
1.05632 -0.00352388 0.0
1.15733 -0.0187081 0.0
0.977127 -0.000573375 0.0
1.00203 -0.00925525 0.0
1.20108 -0.965141 0.0
1.1209 0.0151567 0.0
1.693 0.485553 0.0
0.612207 -0.0119228 0.0
0.609953 0.00693341 0.0
1.15032 0.00124612 0.0
1.18337 -0.00376487 0.0
1.10063 -0.00353298 0.0
1.10809 0.00220451 0.0
1.15865 0.00135018 0.0
1.12308 0.000549017 0.0
1.17637 -0.00502706 0.0
1.14141 0.0197008 0.0
-0.183509 0.0152927 0.0
1.09009 0.00862629 0.0
0.00587641 0.0490302 0.0
0.663091 -0.0279202 0.0
1.2078 -0.184247 0.0
1.12889 -0.00532693 0.0
1.36345 -0.142717 0.0
1.64722 -0.501358 0.0
0.314251 -0.0181028 0.0
1.1713 -0.00394354 0.0
1.12872 0.271373 0.0
1.33795 -0.10177 0.0
1.07146 0.305267 0.0
1.71052 0.0829855 0.0
0.975668 -0.542919 0.0
1.37208 0.132076 0.0
1.12659 -0.0152092 0.0
1.29006 -0.481036 0.0
-0.069261 -0.116013 0.0
1.04983 0.00293059 0.0
1.31899 -0.394365 0.0
0.553912 -0.00462367 0.0
1.41706 -0.147655 0.0
1.68408 0.195473 0.0
1.0878 0.00743579 0.0
0.478531 0.0123373 0.0
0.717144 0.00135412 0.0
0.268016 -0.22907 0.0
0.943037 0.0472491 0.0
-0.101038 -0.0373534 0.0
1.15085 -0.167896 0.0
1.49026 0.1513 0.0
0.5505 0.00713131 0.0
1.2209 -0.068007 0.0
0.991395 -0.00125886 0.0
1.16756 -4.78354e-05 0.0
0.435402 -0.616173 0.0
1.22868 0.263975 0.0
0.743726 -0.166359 0.0
0.191488 -0.331492 0.0
0.540505 0.160523 0.0
1.30261 0.23812 0.0
0.612091 0.158567 0.0
0.969234 -0.00902236 0.0
1.12253 -0.01025 0.0
1.0741 0.00495699 0.0
1.06013 0.0033718 0.0
0.614978 0.00733036 0.0
0.0402026 0.0848408 0.0
1.30836 0.299383 0.0