# vtk DataFile Version 3.0
Malha 2D com triângulos e temperatura
ASCII
DATASET UNSTRUCTURED_GRID

POINTS 688 double
0 0 0
2.2 0 0
2.2 0.41 0
0 0.41 0
0.25 0.2 0
0.05 0 0
0.1 0 0
0.15 0 0
0.2 0 0
0.25 0 0
0.3 0 0
0.35 0 0
0.4 0 0
0.45 0 0
0.5 0 0
0.55 0 0
0.6 0 0
0.65 0 0
0.7 0 0
0.75 0 0
0.8 0 0
0.85 0 0
0.9 0 0
0.95 0 0
1 0 0
1.05 0 0
1.1 0 0
1.15 0 0
1.2 0 0
1.25 0 0
1.3 0 0
1.35 0 0
1.4 0 0
1.45 0 0
1.5 0 0
1.55 0 0
1.6 0 0
1.65 0 0
1.7 0 0
1.75 0 0
1.8 0 0
1.85 0 0
1.9 0 0
1.95 0 0
2 0 0
2.05 0 0
2.1 0 0
2.15 0 0
2.2 0.0455556 0
2.2 0.0911111 0
2.2 0.136667 0
2.2 0.182222 0
2.2 0.227778 0
2.2 0.273333 0
2.2 0.318889 0
2.2 0.364444 0
2.15 0.41 0
2.1 0.41 0
2.05 0.41 0
2 0.41 0
1.95 0.41 0
1.9 0.41 0
1.85 0.41 0
1.8 0.41 0
1.75 0.41 0
1.7 0.41 0
1.65 0.41 0
1.6 0.41 0
1.55 0.41 0
1.5 0.41 0
1.45 0.41 0
1.4 0.41 0
1.35 0.41 0
1.3 0.41 0
1.25 0.41 0
1.2 0.41 0
1.15 0.41 0
1.1 0.41 0
1.05 0.41 0
1 0.41 0
0.95 0.41 0
0.9 0.41 0
0.85 0.41 0
0.8 0.41 0
0.75 0.41 0
0.7 0.41 0
0.65 0.41 0
0.6 0.41 0
0.55 0.41 0
0.5 0.41 0
0.45 0.41 0
0.4 0.41 0
0.35 0.41 0
0.3 0.41 0
0.25 0.41 0
0.2 0.41 0
0.15 0.41 0
0.1 0.41 0
0.05 0.41 0
0 0.364444 0
0 0.318889 0
0 0.273333 0
0 0.227778 0
0 0.182222 0
0 0.136667 0
0 0.0911111 0
0 0.0455556 0
0.248831 0.210749 0
0.245379 0.220994 0
0.239805 0.230259 0
0.232369 0.238108 0
0.22342 0.244176 0
0.213376 0.248177 0
0.202707 0.249927 0
0.191911 0.249341 0
0.181493 0.246449 0
0.171941 0.241384 0
0.1637 0.234385 0
0.157157 0.225778 0
0.152617 0.215965 0
0.150293 0.205406 0
0.150293 0.194594 0
0.152617 0.184035 0
0.157157 0.174222 0
0.1637 0.165615 0
0.171941 0.158616 0
0.181493 0.153551 0
0.191911 0.150659 0
0.202707 0.150073 0
0.213376 0.151823 0
0.22342 0.155824 0
0.232369 0.161892 0
0.239805 0.169741 0
0.245379 0.179006 0
0.248831 0.189251 0
0.421316 0.36725 0
0.426705 0.0366526 0
2.16065 0.209201 0
1.52286 0.0417259 0
0.626017 0.37111 0
1.3257 0.0414552 0
1.02471 0.0432237 0
1.17293 0.0421053 0
0.82501 0.36678 0
1.6757 0.370064 0
1.91628 0.0358195 0
1.82501 0.366432 0
0.723429 0.0421499 0
1.425 0.366699 0
1.97461 0.366224 0
1.12167 0.370137 0
0.975 0.368691 0
0.877672 0.0412714 0
1.27686 0.36884 0
1.725 0.0433013 0
0.579174 0.0416211 0
0.325589 0.363848 0
0.319111 0.0378151 0
0.0394523 0.296111 0
0.0329929 0.11602 0
0.142108 0.187428 0
1.57555 0.364352 0
2.02603 0.0412138 0
0.725007 0.36763 0
0.528647 0.366595 0
1.62699 0.0400272 0
1.82929 0.0421255 0
1.425 0.0418325 0
2.07474 0.364233 0
0.125 0.0433013 0
0.161245 0.155011 0
0.225 0.366699 0
0.210027 0.258536 0
2.16034 0.115449 0
0.0371627 0.204103 0
0.142311 0.212698 0
0.220283 0.0418538 0
0.221965 0.145099 0
0.196802 0.141016 0
0.119851 0.373394 0
0.161112 0.245979 0
0.184892 0.258024 0
2.16342 0.30039 0
2.12627 0.047699 0
0.183325 0.0412617 0
0.152317 0.0762976 0
0.203864 0.0745802 0
0.234384 0.0774346 0
0.215969 0.103585 0
0.245651 0.104548 0
0.186562 0.100216 0
0.268213 0.0793029 0
0.272149 0.109155 0
0.242885 0.159377 0
0.253088 0.128261 0
0.278718 0.13214 0
0.295917 0.115997 0
0.301728 0.138858 0
0.321266 0.12205 0
0.324642 0.151724 0
0.255978 0.181139 0
0.350123 0.129049 0
0.357539 0.159885 0
0.333541 0.181416 0
0.36451 0.19182 0
0.250573 0.230419 0
0.391277 0.169722 0
0.339477 0.212308 0
0.39836 0.205386 0
0.427326 0.18117 0
0.258724 0.206387 0
0.434392 0.219501 0
0.466446 0.193907 0
0.472865 0.243064 0
0.507358 0.209962 0
0.40073 0.238916 0
0.499135 0.1652 0
0.5419 0.179224 0
0.550176 0.22496 0
0.585844 0.194129 0
0.594095 0.240176 0
0.630701 0.209517 0
0.621901 0.162424 0
0.667731 0.178095 0
0.676485 0.226008 0
0.713906 0.194492 0
0.722681 0.242872 0
0.760442 0.211047 0
0.751547 0.162356 0
0.798298 0.179 0
0.807147 0.227866 0
0.845136 0.195775 0
0.854541 0.243285 0
0.892163 0.212344 0
0.902461 0.257947 0
0.93935 0.228684 0
0.930236 0.180167 0
0.977229 0.197066 0
0.986264 0.245777 0
1.02423 0.213991 0
1.0331 0.263172 0
1.07123 0.230975 0
1.06234 0.181814 0
1.10938 0.198721 0
1.09996 0.151012 0
1.14691 0.168161 0
1.15631 0.215921 0
1.19446 0.183678 0
1.20343 0.232645 0
1.2416 0.200322 0
1.23272 0.151117 0
1.2798 0.167954 0
1.28868 0.217167 0
1.32685 0.184862 0
1.33573 0.234064 0
1.3739 0.201768 0
0.789327 0.130094 0
1.38279 0.25097 0
1.42096 0.218674 0
1.41207 0.169471 0
1.45912 0.186378 0
1.46801 0.235581 0
1.50618 0.203285 0
1.51506 0.252489 0
1.55323 0.220192 0
1.54435 0.170989 0
1.5914 0.187896 0
1.60029 0.2371 0
1.63846 0.204803 0
1.64734 0.254007 0
1.68551 0.221711 0
1.67663 0.172507 0
1.72368 0.189415 0
1.73831 0.241548 0
1.77074 0.206322 0
1.76185 0.157121 0
1.8091 0.17428 0
1.81866 0.220885 0
1.85608 0.190621 0
1.86521 0.238879 0
1.90289 0.207671 0
1.91264 0.253772 0
1.94955 0.224093 0
1.94067 0.17593 0
1.98705 0.192828 0
1.99572 0.240997 0
2.0329 0.209382 0
2.02422 0.16161 0
2.04166 0.257286 0
0.419739 0.142889 0
0.968291 0.148058 0
0.310035 0.202211 0
0.316128 0.230863 0
0.658501 0.130052 0
0.685107 0.27445 0
1.34462 0.283266 0
1.16528 0.264896 0
1.84735 0.142081 0
0.557687 0.270604 0
1.21234 0.281769 0
1.58252 0.138692 0
0.533563 0.131933 0
0.489835 0.120004 0
1.45024 0.137174 0
2.06974 0.17785 0
2.06113 0.130713 0
0.283221 0.152215 0
0.921299 0.131169 0
0.343836 0.24295 0
0.319203 0.260002 0
0.235529 0.249617 0
0.347029 0.274099 0
0.291856 0.246297 0
0.295938 0.27548 0
0.272836 0.264931 0
0.27461 0.290522 0
0.251228 0.280224 0
0.253903 0.305808 0
0.232795 0.296709 0
0.298805 0.304058 0
1.0801 0.280176 0
1.47689 0.284785 0
1.05315 0.133468 0
1.09741 0.0970974 0
1.82427 0.272867 0
1.2701 0.118911 0
0.816337 0.277695 0
1.40432 0.121101 0
1.04244 0.320388 0
0.959305 0.103028 0
1.60923 0.286151 0
0.601674 0.286775 0
2.00739 0.280923 0
0.342592 0.0992796 0
0.375237 0.105729 0
1.52511 0.298716 0
1.53114 0.119823 0
0.733824 0.287256 0
0.613372 0.114719 0
0.645558 0.0838585 0
2.015 0.115858 0
1.22718 0.0994086 0
1.39166 0.29817 0
1.3564 0.329754 0
0.744134 0.11556 0
0.782853 0.0841771 0
0.826899 0.10047 0
1.17418 0.314034 0
0.520902 0.0906676 0
1.4967 0.329429 0
1.26048 0.0740437 0
0.365514 0.0716355 0
0.229836 0.121666 0
1.57453 0.09137 0
1.61938 0.110761 0
0.481716 0.0753791 0
0.14093 0.2 0
0.130041 0.192847 0
0.131507 0.178608 0
0.117165 0.184444 0
0.120761 0.164701 0
0.1156 0.199931 0
0.100804 0.174136 0
0.102545 0.153034 0
0.12169 0.143342 0
0.104604 0.13008 0
0.0809304 0.161171 0
0.128077 0.121858 0
0.106825 0.102278 0
0.082498 0.188728 0
0.0314738 0.158621 0
2.04625 0.310891 0
2.08475 0.27479 0
2.11394 0.138117 0
0.233149 0.151108 0
0.258724 0.193613 0
0.268522 0.184917 0
1.65397 0.301059 0
0.145962 0.224912 0
0.132503 0.222267 0
0.13746 0.236947 0
0.120111 0.233525 0
0.126593 0.25219 0
0.105294 0.247497 0
0.113343 0.26868 0
0.133997 0.271734 0
0.121622 0.292031 0
0.147069 0.292141 0
0.0896563 0.267464 0
0.0813699 0.243294 0
0.163574 0.276939 0
0.172694 0.298517 0
0.1583 0.321483 0
0.186823 0.322499 0
0.173113 0.348195 0
0.0322087 0.250839 0
0.211694 0.124337 0
0.250615 0.169546 0
0.256243 0.157787 0
0.170796 0.14736 0
0.156755 0.141654 0
0.17187 0.131161 0
0.147502 0.152323 0
0.198129 0.260662 0
0.206368 0.271663 0
0.220945 0.26864 0
0.190489 0.270628 0
0.198813 0.286731 0
0.55749 0.322277 0
0.520166 0.299321 0
0.235199 0.330709 0
0.267109 0.337524 0
0.172324 0.25256 0
0.255974 0.218859 0
0.268327 0.214994 0
0.184197 0.143083 0
0.188721 0.129954 0
0.209694 0.139146 0
0.269223 0.244007 0
0.252374 0.255244 0
0.282229 0.0410487 0
1.21977 0.330016 0
1.25733 0.296346 0
2.09358 0.0890819 0
0.244373 0.240984 0
0.0838116 0.115786 0
0.0797544 0.0817835 0
0.237449 0.264854 0
0.247178 0.146225 0
0.270136 0.2 0
0.28023 0.191334 0
0.263476 0.170737 0
0.371486 0.368728 0
0.396124 0.330051 0
0.440314 0.325693 0
0.357693 0.329668 0
0.476576 0.362035 0
0.29587 0.222914 0
0.307627 0.175476 0
0.079599 0.0406461 0
0.146062 0.252571 0
0.15162 0.125025 0
0.417223 0.294608 0
0.457089 0.286958 0
0.036619 0.338729 0
0.0713014 0.322193 0
0.0735823 0.36704 0
0.041143 0.0722223 0
0.693501 0.32349 0
0.145406 0.175484 0
0.138777 0.164467 0
0.300367 0.0698839 0
0.167025 0.112083 0
0.146978 0.105544 0
0.151909 0.236762 0
0.444611 0.106436 0
0.909355 0.0817561 0
0.282901 0.370713 0
1.61474 0.330739 0
0.578053 0.368179 0
0.824695 0.0487848 0
2.09634 0.3213 0
2.02276 0.364865 0
2.12532 0.363702 0
1.09789 0.328757 0
0.161137 0.260089 0
2.07793 0.225752 0
2.12079 0.240944 0
2.0747 0.0437362 0
1.89402 0.158846 0
1.93154 0.128738 0
1.8848 0.111477 0
1.8384 0.0926484 0
1.87744 0.0655304 0
1.7913 0.0793874 0
1.9712 0.046671 0
1.92502 0.366682 0
1.94563 0.325156 0
1.89941 0.326645 0
1.87499 0.367178 0
1.84989 0.323491 0
1.7997 0.321303 0
1.77183 0.280326 0
1.75031 0.321965 0
1.77491 0.365615 0
2.11727 0.191885 0
0.883187 0.163467 0
1.71449 0.140266 0
1.667 0.125342 0
1.70591 0.0884759 0
1.67732 0.042286 0
1.52278 0.370513 0
1.37512 0.04128 0
1.34848 0.0834574 0
0.776093 0.367587 0
1.125 0.0433013 0
1.15 0.0866019 0
1.07442 0.0496847 0
0.974527 0.0370837 0
1.47464 0.0427918 0
1.44953 0.0873752 0
1.17595 0.362984 0
1.025 0.366699 0
0.925007 0.367031 0
0.95 0.323404 0
0.897321 0.326356 0
0.874563 0.367261 0
0.846552 0.324465 0
1.62923 0.156667 0
1.32319 0.13033 0
1.69342 0.270472 0
1.49568 0.156227 0
1.56237 0.268721 0
1.44 0.319169 0
1.43005 0.267892 0
1.36502 0.152565 0
0.993446 0.294003 0
1.30179 0.321101 0
1.18235 0.127964 0
1.25016 0.2491 0
1.29638 0.266841 0
1.11824 0.247967 0
1.12945 0.294699 0
1.01527 0.165035 0
0.836192 0.147197 0
1.4998 0.0831488 0
1.00655 0.118664 0
0.872896 0.117126 0
0.70523 0.146383 0
1.96013 0.276645 0
0.769406 0.257102 0
0.699552 0.0908977 0
2.1587 0.162257 0
1.97813 0.145326 0
0.646036 0.302035 0
0.799423 0.326603 0
0.515621 0.255445 0
1.72538 0.366474 0
1.97009 0.0998346 0
1.57108 0.313772 0
0.577925 0.14549 0
0.638911 0.256447 0
0.407352 0.0771641 0
0.525103 0.042511 0
0.674231 0.370698 0
1.69802 0.321701 0
0.56947 0.0908728 0
1.75459 0.110239 0
1.80084 0.126127 0
0.673535 0.0431435 0
1.57391 0.0465733 0
2.04571 0.0828469 0
0.10002 0.225545 0
0.0788152 0.21577 0
0.369719 0.224393 0
0.210352 0.308739 0
1.22342 0.0432967 0
[...]
CELL_DATA 1241
VECTORS velocity double
1.02552 -0.00356833 0.0
1.21217 0.0681889 0.0
0.48807 -0.000165916 0.0
0.961575 0.0040285 0.0
1.03646 0.00806419 0.0
1.42216 0.102355 0.0
1.12932 -8.44451e-05 0.0
0.993082 -0.000931212 0.0
0.364926 0.0153694 0.0
1.16421 0.00160758 0.0
1.31248 -0.119989 0.0
1.31627 0.126492 0.0
0.865764 -0.160569 0.0
1.01365 0.00557399 0.0
0.989664 0.00745489 0.0
1.46533 -0.0319217 0.0
0.978863 0.00193116 0.0
0.479516 0.0603321 0.0
1.1669 0.0638067 0.0
1.64776 -0.253554 0.0
1.03012 0.00617968 0.0
1.05868 -0.0660435 0.0
1.03027 0.0021449 0.0
1.2532 0.904824 0.0
1.07247 -0.00151566 0.0
1.03362 0.00418993 0.0
1.29876 -0.199064 0.0
1.07547 -0.0250695 0.0
1.32175 -0.0836688 0.0
1.46154 -0.064072 0.0
1.33199 0.0902193 0.0
0.862048 -0.0374654 0.0
1.51886 0.00142556 0.0
1.01224 0.0040502 0.0
1.2517 -0.057866 0.0
1.3584 0.156352 0.0
1.20711 -0.0564814 0.0
1.05042 -0.167813 0.0
0.359527 0.0204779 0.0
1.38164 0.1407 0.0
1.76503 -0.178978 0.0
1.41445 -0.0446337 0.0
1.05282 -0.23706 0.0
0.543326 0.00686929 0.0
1.39888 -0.166652 0.0
0.536605 -0.00363025 0.0
1.20325 0.100492 0.0
1.10836 0.0260688 0.0
1.61313 -0.312585 0.0
1.2411 -0.011566 0.0
1.19182 0.000978975 0.0
1.29092 -0.417422 0.0
0.870967 -0.0041064 0.0
1.40536 -0.0836823 0.0
1.77577 -0.278967 0.0
1.51737 -0.0301108 0.0
1.14354 -0.040352 0.0
1.12207 -0.000405814 0.0
1.65927 -0.0982369 0.0
1.68783 -0.198514 0.0
1.15862 0.847214 0.0
1.00553 8.93941e-05 0.0
0.197744 0.0343136 0.0
1.03523 0.00817418 0.0
-0.241255 0.0710701 0.0
1.33193 0.227491 0.0
-0.277691 0.0874812 0.0
1.15334 0.000936598 0.0
0.857614 -0.0263553 0.0
0.220769 0.0251543 0.0
1.15419 -0.00233211 0.0
0.794937 0.0134555 0.0
1.15342 -0.00168853 0.0
0.793782 -0.0151407 0.0
1.18341 0.00705919 0.0
0.881252 0.156998 0.0
0.947704 0.00479049 0.0
1.63227 -0.0454056 0.0
0.975927 -0.0351348 0.0
0.615669 0.00019927 0.0
1.75229 -0.382522 0.0
1.15965 -0.246516 0.0
0.650454 0.0111082 0.0
1.26131 -0.227007 0.0
1.34582 0.169999 0.0
0.919025 -0.0665346 0.0
1.21004 0.17993 0.0
0.0899466 0.0998275 0.0
1.83918 0.529965 0.0
1.17182 0.00349602 0.0
1.27352 0.00935388 0.0
-0.187676 -0.0114484 0.0
-0.347287 0.079358 0.0
1.44055 -0.065971 0.0
1.18088 -0.0413482 0.0
0.997565 0.00113954 0.0
0.851455 -0.0268672 0.0
-0.184923 0.0907308 0.0
1.01341 -0.00901214 0.0
-0.241588 0.114538 0.0
1.08214 -0.0985508 0.0
1.14741 -0.0108027 0.0
0.951397 -0.000147154 0.0
1.64019 -0.160722 0.0
1.74289 -0.670588 0.0
1.27324 -0.397848 0.0
1.0731 -0.0635279 0.0
0.500314 -0.0227345 0.0
1.78847 0.649491 0.0
1.19906 0.0030303 0.0
1.48399 -0.111075 0.0
1.23378 0.191397 0.0
0.132542 0.0752441 0.0
1.44147 -0.0270212 0.0
1.07854 0.0152645 0.0
1.44263 0.0400597 0.0
1.41258 0.0057412 0.0
1.3907 0.0519775 0.0
1.05909 7.68487e-05 0.0
0.258478 0.0411355 0.0
1.19134 0.0416297 0.0
1.51976 0.581582 0.0
1.25181 0.110029 0.0
0.919426 -0.0633434 0.0
0.729432 -0.100629 0.0
1.20668 0.0874497 0.0
1.44463 -0.0441427 0.0
1.11156 0.0244857 0.0
1.7502 0.501227 0.0
0.549839 -0.0712961 0.0
1.15325 -0.011277 0.0
0.613451 -0.00205312 0.0
0.885183 0.0636954 0.0
1.60259 -0.0203089 0.0
1.02226 -0.154671 0.0
-0.27533 0.0745619 0.0
0.123835 0.0608647 0.0
1.22147 0.083678 0.0
1.04595 -0.0256729 0.0
1.66429 -0.76133 0.0
1.50088 0.00355853 0.0
1.03503 0.00266611 0.0
1.07832 -0.24492 0.0
1.00294 0.00737792 0.0
1.52478 0.00838985 0.0
0.0260017 0.0319674 0.0
-0.253991 0.0372656 0.0
-0.179837 0.00634469 0.0
0.645591 0.0137803 0.0
0.654778 -0.0130512 0.0
0.555296 -0.101495 0.0
1.03265 -0.0075358 0.0
1.79682 -0.33209 0.0
1.05049 -0.154888 0.0
1.20282 -0.0491829 0.0
1.20456 0.0544027 0.0
0.525808 6.99333e-05 0.0
1.64293 0.0726177 0.0
0.859215 0.0313678 0.0
1.24295 -0.0581064 0.0
-0.230841 0.0482629 0.0
1.74061 0.445985 0.0
1.13924 0.00468528 0.0
1.22206 -0.2049 0.0
1.1364 0.0346473 0.0
1.05421 0.130196 0.0
0.994374 -0.00168705 0.0
0.987089 0.109759 0.0
0.580088 -0.00273048 0.0
1.17047 -0.0336965 0.0
0.923937 -0.0253485 0.0
1.20621 0.00354887 0.0
1.3653 0.265115 0.0
1.1851 0.0880644 0.0
1.10332 0.00217791 0.0
1.11424 0.00294283 0.0
1.18226 0.19832 0.0
1.12013 -0.287532 0.0
1.11189 0.00809047 0.0
1.1659 -0.225057 0.0
1.11753 0.0056834 0.0
0.365138 0.109325 0.0
1.08781 -0.644472 0.0
0.730468 -0.127037 0.0
1.0198 -0.00627755 0.0
0.765553 -0.0789065 0.0
0.761986 -0.0635757 0.0
1.02751 0.00430762 0.0
1.05544 0.0958905 0.0
0.460921 0.0469868 0.0
0.889739 -0.830053 0.0
1.77876 0.34441 0.0
1.02711 -0.00177733 0.0
0.979407 0.00829087 0.0
0.667094 0.0601213 0.0
0.854958 0.0580823 0.0
0.397709 0.0589791 0.0
1.01083 -0.0135919 0.0
1.42771 -0.0322324 0.0
1.44972 0.58125 0.0
1.15456 0.193038 0.0
1.06728 -0.0141097 0.0
1.42685 0.0383879 0.0
1.04337 -0.0940084 0.0
1.39761 -0.09294 0.0
1.43601 -0.0447204 0.0
0.485053 0.0250371 0.0
0.652332 0.012831 0.0
0.89568 -0.0233357 0.0
0.85327 0.0339664 0.0
0.557973 0.0159846 0.0
0.539351 -0.00205278 0.0
1.79025 0.285726 0.0
1.11019 0.00769161 0.0
1.4418 -0.00480302 0.0
1.11883 0.00837714 0.0
0.738749 -0.0784845 0.0
1.51016 -0.0925128 0.0
1.17465 -0.0300602 0.0
1.1513 -0.00921844 0.0
0.833098 -0.0495772 0.0
1.6714 -0.069334 0.0
1.00923 0.0550261 0.0
0.997739 0.0122698 0.0
0.955536 -0.0266015 0.0
1.20523 0.00281606 0.0
1.43393 -0.139204 0.0
1.73023 -0.600676 0.0
1.17246 -0.00574492 0.0
1.18503 -0.00816154 0.0
1.00261 -0.0014687 0.0
1.06355 -0.132766 0.0
1.02415 -0.00795459 0.0
0.994293 -0.00489299 0.0
1.25857 0.310832 0.0
1.0383 -0.256543 0.0
1.09866 0.173566 0.0
1.31753 0.134182 0.0
0.749511 -0.107836 0.0
0.35506 -0.0454472 0.0
0.957446 0.0156435 0.0
1.43871 0.056986 0.0
1.42217 0.918239 0.0
0.682938 -0.0851699 0.0
1.14105 -0.013333 0.0
1.70457 0.139302 0.0
1.09709 -0.898696 0.0
0.868431 -0.177578 0.0
1.13406 -0.0378955 0.0
0.585604 -0.00721976 0.0
1.02509 0.0267447 0.0
0.571938 -0.00880707 0.0
1.03072 -0.00277657 0.0
1.19933 0.00373952 0.0
0.644297 -0.0116556 0.0
0.769009 -0.0341361 0.0
1.09487 -0.285428 0.0
1.3239 -0.106286 0.0
1.19773 0.00185479 0.0
1.01372 -0.00322885 0.0
1.01469 0.0094279 0.0
0.53517 -0.00507564 0.0
1.19943 0.00542223 0.0
0.728771 -0.0264251 0.0
1.12079 0.0441235 0.0
1.00627 -0.00854649 0.0
0.590536 0.00387762 0.0
1.24097 -0.111291 0.0
1.22848 -0.17302 0.0
0.782206 -0.0270448 0.0
1.14228 -0.0662724 0.0
0.611334 0.00113545 0.0
0.990181 -0.0125461 0.0
0.118963 0.0688416 0.0
1.18256 0.000100281 0.0
1.18064 -0.00764258 0.0
0.621663 -0.00401344 0.0
0.94459 -0.195698 0.0
0.990637 -0.0126163 0.0
1.42896 0.156715 0.0
1.17804 0.0026254 0.0
1.20657 7.64968e-05 0.0
1.22358 -0.170782 0.0
1.20871 -0.00147956 0.0
1.20675 0.00129283 0.0
1.16904 -0.0149586 0.0
0.939989 -0.115552 0.0
0.835801 0.0428547 0.0
1.20995 -0.00366058 0.0
1.2057 0.000130726 0.0
1.20276 -0.0012378 0.0
0.634534 0.0704063 0.0
0.50028 0.00493484 0.0
0.99301 0.00803181 0.0
0.573443 -0.00725538 0.0
1.20858 -0.0035056 0.0
1.00704 -0.0146565 0.0
1.14832 0.0104693 0.0
-0.259283 -0.0273782 0.0
0.98217 -0.00826805 0.0
0.535372 -0.00298583 0.0
1.31937 -0.604839 0.0
1.11968 -0.00700493 0.0
0.980855 -0.0129475 0.0
0.555093 -0.00908173 0.0
1.20767 -0.00173018 0.0
0.863323 0.0412888 0.0
0.560577 0.00152118 0.0
1.00004 -0.0119522 0.0
1.20926 -0.0041483 0.0
1.2023 -0.0018719 0.0
1.20524 -0.00143557 0.0
0.647117 -0.00579641 0.0
0.482612 0.00139587 0.0
1.20806 -0.00523035 0.0
1.14387 -0.074451 0.0
1.18825 -0.00628765 0.0
0.629447 0.00962749 0.0
1.17281 -0.00734427 0.0
1.2001 -0.0031295 0.0
1.18952 0.00112684 0.0
1.21187 -0.00532961 0.0
0.498265 -0.00581322 0.0
1.20705 -0.00503274 0.0
1.20682 -0.00436314 0.0
1.20113 -0.00582283 0.0
0.490103 -0.00290208 0.0
1.19369 -0.000726132 0.0
1.17125 -0.00516364 0.0
1.1825 -0.000810202 0.0
1.21019 -0.00544267 0.0
1.17185 -0.159467 0.0
1.12418 0.00111006 0.0
1.21197 -0.00594146 0.0
1.35096 0.668397 0.0
1.19924 -0.0054096 0.0
0.541527 -0.00610664 0.0
1.08895 -0.0208382 0.0
0.590944 0.00811367 0.0
0.587121 -0.00848066 0.0
1.12836 0.00614435 0.0
1.08859 -0.0104857 0.0
1.06302 -0.00541272 0.0
0.526225 -0.00738512 0.0
1.09443 -0.0202511 0.0
1.1351 0.00475275 0.0
1.21002 -0.00631138 0.0
1.07909 0.140933 0.0
1.15543 -0.696991 0.0
0.559573 -0.00308924 0.0
0.516632 -0.00455337 0.0
1.20678 -0.00508115 0.0
1.20824 -0.006604 0.0
0.619028 -0.0200234 0.0
0.507337 -0.0103032 0.0
1.20488 -0.00448496 0.0
0.991829 0.0132945 0.0
1.16424 0.00887382 0.0
1.1487 -0.00546442 0.0
0.566154 0.00883381 0.0
0.518655 -0.00132085 0.0
1.14844 0.0156641 0.0
0.610058 0.0123437 0.0
0.57481 0.0133542 0.0
1.17257 0.00612086 0.0
0.624258 0.0207876 0.0
0.577711 1.0162e-05 0.0
1.19789 -0.00440868 0.0
1.18789 -0.00419232 0.0
0.968713 0.0135498 0.0
1.19671 -0.00323068 0.0
1.17241 -0.0035791 0.0
1.20276 -0.00376368 0.0
0.991722 0.00907461 0.0
1.14559 -0.00369686 0.0
0.624215 0.00651028 0.0
0.520487 0.0137432 0.0
0.57144 0.0124041 0.0
0.495129 -0.00849873 0.0
0.558583 -0.000222954 0.0
0.574961 -0.00424951 0.0
0.538198 -0.00195688 0.0
0.631004 -0.0134228 0.0
0.574638 -0.00450633 0.0
0.591723 0.0120578 0.0
0.51672 -0.00654496 0.0
0.569483 0.0148526 0.0
0.529464 -0.000180671 0.0
0.670359 0.0217201 0.0
0.568155 0.0100036 0.0
0.563356 -0.0112434 0.0
0.513789 0.00199493 0.0
0.543776 -0.0015048 0.0
0.52874 0.00690109 0.0
0.603537 -0.0091719 0.0
0.565968 -0.00162772 0.0
0.592163 -0.00756388 0.0
0.559572 -0.0132756 0.0
0.553707 0.00522913 0.0
0.539892 -0.000608416 0.0
0.562037 0.00249271 0.0
0.509665 -0.0158203 0.0
0.498561 0.0197508 0.0
0.491769 0.00179913 0.0
0.548657 -0.00675711 0.0
0.518485 0.00345485 0.0
0.637604 -0.021331 0.0
0.514349 0.00480463 0.0
0.49774 0.00456026 0.0
0.539727 0.000319476 0.0
0.517323 -0.0029881 0.0
1.1712 -0.00294191 0.0
1.15241 -0.0045159 0.0
1.20706 -0.00609917 0.0
1.20653 -0.00477267 0.0
1.20869 -0.0048574 0.0
1.11193 -0.00538807 0.0
1.18355 -0.00523004 0.0
1.16571 -0.00440099 0.0
1.17558 0.00175176 0.0
1.14859 -0.00361501 0.0
1.19343 -0.00614522 0.0
1.19513 -0.00661872 0.0
1.16225 -0.00453066 0.0
1.20427 -0.00359622 0.0
1.18476 -0.00257344 0.0
1.20354 -0.00499197 0.0
1.18045 -0.00557993 0.0
1.14682 -0.000827237 0.0
1.20088 -0.00521501 0.0
1.2063 -0.00400552 0.0
1.19479 -0.00250097 0.0
1.2046 -0.00411758 0.0
1.19968 -0.00507911 0.0
1.14801 -0.00711199 0.0
1.20613 -0.0025444 0.0
1.18633 -0.00230558 0.0
1.20409 -0.00203775 0.0
1.11327 0.000195694 0.0
1.18617 -0.00372024 0.0
1.18178 -0.000600633 0.0
1.20185 -0.00203905 0.0
1.16511 -0.000185951 0.0
1.20009 -0.00224063 0.0
1.20235 -0.00220915 0.0
1.17821 0.00137718 0.0
1.20431 -0.00195058 0.0
1.19393 -0.00315802 0.0
1.19923 -0.00098754 0.0
1.14631 -0.00643306 0.0
1.16633 -0.00102296 0.0
1.20134 -0.00116776 0.0
1.19222 -0.00258477 0.0
1.19233 -0.000148341 0.0
1.19005 0.00113726 0.0
1.16249 -0.0110867 0.0
1.20119 -0.000900513 0.0
1.19864 -0.000572843 0.0
1.13026 -0.00396507 0.0
1.18296 -0.00328997 0.0
1.11463 0.00459934 0.0
1.17067 -0.00294894 0.0
1.18213 -0.00293028 0.0
1.19223 -0.00312757 0.0
1.19902 -0.00143256 0.0
1.16719 -0.00306418 0.0
1.19498 -0.00295005 0.0
1.19611 -0.00118007 0.0
1.19912 -0.000353748 0.0
1.19431 0.000967538 0.0
1.19173 0.00127373 0.0
1.1918 0.00209094 0.0
1.17951 0.00323923 0.0
1.12963 -0.00424243 0.0
1.09235 0.00424069 0.0
1.17721 0.00430153 0.0
1.19598 3.98032e-05 0.0
0.570711 -0.00504028 0.0
1.18234 0.00313783 0.0
1.14574 0.00413427 0.0
1.16665 0.00466803 0.0
1.19487 0.00148208 0.0
1.1649 0.00449538 0.0
1.18028 0.00412981 0.0
1.17454 0.000245364 0.0
1.18757 0.00323818 0.0
1.17794 -0.000441348 0.0
1.12659 -0.00316754 0.0
1.12756 -0.00580448 0.0
1.15228 -0.00308632 0.0
1.18478 0.00440627 0.0
1.17251 -0.00309795 0.0
1.18525 0.00253471 0.0
1.1636 -0.00248498 0.0
1.17846 -0.00286534 0.0
1.18845 0.00191809 0.0
1.18357 0.00439315 0.0
0.992285 -0.00995943 0.0
1.16737 -0.002169 0.0
1.17741 0.00567643 0.0
1.14337 0.00561544 0.0
1.18558 -0.00187876 0.0
1.1909 -5.02503e-05 0.0
1.0739 -0.0158307 0.0
1.16783 0.00844913 0.0
1.17589 -0.00259976 0.0
1.14604 0.0114958 0.0
1.18735 -0.000208992 0.0
1.1519 0.016267 0.0
1.16902 -0.00327592 0.0
1.18836 -0.00191826 0.0
1.17522 -0.000559886 0.0
1.1194 0.176477 0.0
1.1489 -0.00547416 0.0
1.20124 -0.00674104 0.0
1.17389 0.00737078 0.0
1.17797 0.001029 0.0
1.15542 -0.0110889 0.0
1.16 -0.00196629 0.0
1.13473 -0.000989027 0.0
1.15855 -0.007381 0.0
1.17282 0.00193002 0.0
1.13673 0.000883992 0.0
1.16837 0.00165335 0.0
1.16575 -0.00535648 0.0
1.16195 -0.00138361 0.0
1.15521 0.010217 0.0
1.16513 -0.00467304 0.0
0.710862 -0.020835 0.0
0.983226 0.00215162 0.0
1.15098 0.0124963 0.0
1.15469 0.00784573 0.0
1.16042 -0.00694995 0.0
1.13933 0.00946018 0.0
1.14852 0.0116856 0.0
1.15319 -0.0024771 0.0
1.13765 0.000421249 0.0
1.1484 -0.00318437 0.0
1.1434 0.000433754 0.0
1.13121 0.0112065 0.0
1.16461 0.00439341 0.0
1.15897 0.00692933 0.0
1.0039 0.00569235 0.0
1.16047 0.00459137 0.0
1.15928 0.00903151 0.0
1.15049 0.00945323 0.0
1.12457 0.0142887 0.0
1.13456 0.0133046 0.0
1.15666 0.00994358 0.0
1.73597 0.180721 0.0
1.12947 -0.0102363 0.0
1.13525 0.018604 0.0
1.10825 -0.0222157 0.0
1.14897 0.0208543 0.0
1.15199 0.0144226 0.0
1.1232 -0.0124208 0.0
1.14877 0.0207319 0.0
1.19983 -0.00372124 0.0
1.07437 -0.00804305 0.0
1.09351 0.0136638 0.0
1.109 -0.00694149 0.0
1.30606 0.127948 0.0
1.1971 -0.00482314 0.0
1.07554 0.000444916 0.0
1.1483 -0.00683966 0.0
1.14549 0.027873 0.0
1.14653 0.0217667 0.0
1.1014 -0.00838347 0.0
1.10219 -0.0271577 0.0
0.990986 -0.0120916 0.0
1.17529 0.000400278 0.0
1.07983 0.000510181 0.0
1.08974 -3.91365e-05 0.0
1.12859 0.0239935 0.0
1.11147 -0.0257381 0.0
1.03047 0.19832 0.0
0.974726 -0.0126567 0.0
1.1416 0.0336131 0.0
0.445473 -0.165363 0.0
1.38 0.133414 0.0
1.18138 -0.0528875 0.0
1.07744 0.0102343 0.0
1.07698 0.0259278 0.0
1.06477 0.0364406 0.0
1.19553 -8.2816e-05 0.0
1.06464 0.0142316 0.0
1.04555 -0.0446219 0.0
1.30217 0.175882 0.0
1.00647 -0.143796 0.0
1.04001 -0.0581932 0.0
1.15353 -0.134683 0.0
1.13882 -0.0100712 0.0
1.10054 -0.0484345 0.0
1.16739 -0.00308518 0.0
0.949475 0.00216576 0.0
1.18131 0.0550313 0.0
1.02121 -0.013911 0.0
1.23816 -0.103136 0.0
1.19628 -0.00482315 0.0
1.1877 -0.00587312 0.0
1.06677 -0.0200464 0.0
1.39853 -0.567403 0.0
1.13722 0.0844763 0.0
1.00721 -0.0199392 0.0
1.13784 0.0679115 0.0
0.970815 0.00173765 0.0
0.750378 0.0286338 0.0
1.09789 0.0456131 0.0
1.32727 -0.160612 0.0
0.939043 -0.0917682 0.0
1.10443 -0.0400137 0.0
0.632705 -0.556667 0.0
1.102 -0.0274111 0.0
1.10951 -0.00514618 0.0
1.1445 -0.00584944 0.0
1.39009 -0.141069 0.0
1.08811 0.0604875 0.0
1.16711 -0.00257336 0.0
1.05805 -0.0260243 0.0
1.16582 0.0363768 0.0
0.994097 -0.0152586 0.0
1.35017 -0.771841 0.0
1.20114 0.00402405 0.0
1.17968 0.0521991 0.0
1.18279 0.00261547 0.0
1.12173 -0.000339831 0.0
1.18039 -0.0574346 0.0
1.0675 0.0211396 0.0
1.2054 0.0827733 0.0
1.11999 -0.00736105 0.0
1.1612 0.0445283 0.0
0.970089 0.00148209 0.0
1.14043 0.00918445 0.0
1.18062 -0.531701 0.0
0.650503 -0.00585403 0.0
0.672455 -0.0235912 0.0
0.937869 0.0277618 0.0
1.26689 0.121455 0.0
1.14611 -0.00533912 0.0
1.17088 -0.00504389 0.0
0.597396 0.010204 0.0
1.18707 -0.00521547 0.0
0.332605 -0.124058 0.0
1.07707 -0.10017 0.0
0.579882 0.00763629 0.0
0.583554 -0.0122223 0.0
0.911555 0.0407907 0.0
1.148 -0.0042635 0.0
0.863943 -0.174299 0.0
0.865858 -0.0232729 0.0
1.6889 -0.12407 0.0
0.938354 0.0377797 0.0
1.14382 -0.0103652 0.0
1.14464 -0.0119663 0.0
1.05047 0.0056814 0.0
1.19958 0.00312895 0.0
1.16494 0.00127385 0.0
1.18514 0.348225 0.0
0.611266 0.0177051 0.0
1.01363 0.00415611 0.0
1.36564 -0.099355 0.0
0.550127 0.00654786 0.0
1.58088 0.56067 0.0
0.944008 -0.0421889 0.0
0.808077 -0.026922 0.0
1.33792 0.0896363 0.0
0.792147 -0.053572 0.0
0.959199 0.000516185 0.0
0.670937 -0.117902 0.0
1.15802 -0.0151402 0.0
0.880448 0.0993857 0.0
1.14231 -0.0136519 0.0
0.670835 -0.00386389 0.0
1.02483 0.0038519 0.0
0.987371 0.137612 0.0
1.41044 -0.0340547 0.0
0.535025 -0.00299047 0.0
0.646987 -0.0239604 0.0
0.918782 0.805363 0.0
1.10829 -0.00116302 0.0
1.04932 0.0120414 0.0
1.39103 0.0126958 0.0
0.593462 -0.0106597 0.0
1.12946 0.01483 0.0
1.16674 -0.448667 0.0
0.186475 0.0223881 0.0
0.934159 -0.063378 0.0
1.07458 -0.0842523 0.0
0.728275 0.0243941 0.0
0.528706 0.0187098 0.0
1.64834 0.0350146 0.0
1.14853 -0.00582647 0.0
0.311487 0.0152273 0.0
0.582118 0.0258931 0.0
1.13981 -0.00359192 0.0
1.18847 -0.00556992 0.0
1.00576 -0.0156448 0.0
0.948587 0.0634748 0.0
1.20885 0.172189 0.0
0.630687 0.0107181 0.0
1.18386 0.00732259 0.0
0.929058 0.0935992 0.0
1.18992 -0.0058964 0.0
1.38815 -0.593438 0.0
0.540421 -0.000142017 0.0
1.45802 -0.13177 0.0
1.10833 0.00488192 0.0
0.963824 -0.0123662 0.0
0.621401 0.090263 0.0
0.99899 0.103394 0.0
0.897454 0.139816 0.0
1.11062 0.00638493 0.0
1.21223 -0.0590886 0.0
1.39922 -0.0369739 0.0
0.583659 0.00361694 0.0
0.60544 0.0139468 0.0
1.07677 -0.00337638 0.0
0.404528 -0.0728765 0.0
1.04123 0.0369968 0.0
0.509112 0.0037133 0.0
0.974391 -0.0110856 0.0
1.10877 -0.00426467 0.0
0.956197 -0.00849246 0.0
0.560166 -0.00497001 0.0
0.561957 0.0197737 0.0
0.581907 0.00816185 0.0
0.552342 0.00703339 0.0
0.598376 0.00936788 0.0
1.21076 0.669483 0.0
1.35988 0.0688295 0.0
0.96675 -0.0020264 0.0
0.571021 0.0072256 0.0
0.581875 -0.0118023 0.0
0.69088 0.0254923 0.0
1.15016 -0.0484225 0.0
0.609872 0.000696081 0.0
1.60475 -0.192717 0.0
1.29211 0.0968175 0.0
0.542738 -0.140556 0.0
1.34154 -0.0950464 0.0
1.52698 -0.466602 0.0
1.00732 0.00241308 0.0
1.09046 0.0159281 0.0
1.14673 -0.0115143 0.0
0.972576 0.000767815 0.0
0.837158 -0.689347 0.0
1.02066 0.000456868 0.0
0.981083 -0.00441415 0.0
1.18597 -0.00970148 0.0
1.1145 -0.0339816 0.0
1.64751 -0.00167769 0.0
-0.117616 0.0994042 0.0
0.513979 -0.0693416 0.0
1.33621 0.518047 0.0
1.07727 -0.0110472 0.0
0.615267 -0.0103436 0.0
0.589851 -0.00438996 0.0
0.586685 -0.00488015 0.0
1.19918 0.00502741 0.0
0.638983 0.213219 0.0
1.17215 -0.0233836 0.0
0.982184 0.00978642 0.0
0.756391 0.165316 0.0
1.1228 -0.00317753 0.0
0.148557 -0.011627 0.0
1.17217 0.00519581 0.0
0.582903 0.0198805 0.0
0.580279 -0.00935994 0.0
1.34171 0.0869164 0.0
0.859404 -0.0092496 0.0
1.50743 0.033335 0.0
0.981201 0.0122884 0.0
0.9981 0.00845573 0.0
0.11861 -0.166229 0.0
0.982335 0.0260578 0.0
1.16814 0.0102935 0.0
1.15072 0.010131 0.0
0.359233 -0.137835 0.0
1.61724 -0.272919 0.0
1.08921 0.000999147 0.0
1.28938 0.197324 0.0
0.608523 -0.012591 0.0
0.578865 -0.00633684 0.0
1.1216 -0.0170006 0.0
0.539905 0.0907431 0.0
1.13067 -0.0265969 0.0
0.802844 0.0225457 0.0
0.939179 -0.0104728 0.0
1.12909 0.00902518 0.0
1.0073 -0.0039505 0.0
0.201877 -0.0208983 0.0
1.13927 -0.0103505 0.0
0.311474 0.0599602 0.0
1.01912 -0.00239946 0.0
1.01122 -0.00350028 0.0
0.59169 -0.0155925 0.0
1.06443 -0.00670821 0.0
1.17194 -0.023215 0.0
0.961783 -0.000541639 0.0
0.994469 -0.0108827 0.0
1.20043 -0.964744 0.0
1.12888 0.0200215 0.0
1.6928 0.486534 0.0
0.581807 -0.0144203 0.0
0.574991 0.00658097 0.0
1.16193 0.00307625 0.0
1.20747 -0.00501429 0.0
1.10783 -0.0060491 0.0
1.11781 0.000544653 0.0
1.17264 0.00321168 0.0
1.12843 0.00255203 0.0
1.19876 -0.00681754 0.0
1.14892 0.0252113 0.0
-0.194397 0.0186119 0.0
1.09798 0.0132496 0.0
-0.017464 0.0337346 0.0
0.656027 -0.0263775 0.0
1.20547 -0.179372 0.0
1.13841 -0.00806775 0.0
1.36732 -0.139672 0.0
1.64653 -0.502159 0.0
0.31425 -0.0181071 0.0
1.19258 -0.00573236 0.0
1.12893 0.271843 0.0
1.3475 -0.0997376 0.0
1.0714 0.305599 0.0
1.7098 0.0857072 0.0
0.975344 -0.542554 0.0
1.37208 0.132279 0.0
1.12327 -0.0161298 0.0
1.28973 -0.480974 0.0
-0.0830611 -0.110351 0.0
1.05414 0.00205666 0.0
1.31873 -0.394724 0.0
0.523637 -0.00461336 0.0
1.41824 -0.149377 0.0
1.68449 0.197573 0.0
1.08997 0.0098308 0.0
0.437718 0.0141747 0.0
0.717063 0.0017224 0.0
0.267906 -0.228593 0.0
0.953249 0.046433 0.0
-0.114509 -0.0317675 0.0
1.14796 -0.164056 0.0
1.49509 0.145873 0.0
0.532324 0.00830949 0.0
1.22789 -0.0699487 0.0
0.978729 -0.000122769 0.0
1.19192 0.0042502 0.0
0.43521 -0.615667 0.0
1.22866 0.264288 0.0
0.733269 -0.163664 0.0
0.191371 -0.331057 0.0
0.523801 0.160868 0.0
1.30261 0.238412 0.0
0.602024 0.153752 0.0
0.965443 -0.0105031 0.0
1.13167 -0.0129554 0.0
1.07886 0.00827885 0.0
1.06848 0.00826991 0.0
0.586643 0.0076071 0.0
0.028232 0.0823093 0.0
1.30832 0.299697 0.0
0.4723 -0.00104162 0.0
1.10033 0.00647848 0.0
0.264426 0.216163 0.0