# vtk DataFile Version 3.0
Malha 2D com triângulos e temperatura
ASCII
DATASET UNSTRUCTURED_GRID

POINTS 688 double
0 0 0
2.2 0 0
2.2 0.41 0
0 0.41 0
0.25 0.2 0
0.05 0 0
0.1 0 0
0.15 0 0
0.2 0 0
0.25 0 0
0.3 0 0
0.35 0 0
0.4 0 0
0.45 0 0
0.5 0 0
0.55 0 0
0.6 0 0
0.65 0 0
0.7 0 0
0.75 0 0
0.8 0 0
0.85 0 0
0.9 0 0
0.95 0 0
1 0 0
1.05 0 0
1.1 0 0
1.15 0 0
1.2 0 0
1.25 0 0
1.3 0 0
1.35 0 0
1.4 0 0
1.45 0 0
1.5 0 0
1.55 0 0
1.6 0 0
1.65 0 0
1.7 0 0
1.75 0 0
1.8 0 0
1.85 0 0
1.9 0 0
1.95 0 0
2 0 0
2.05 0 0
2.1 0 0
2.15 0 0
2.2 0.0455556 0
2.2 0.0911111 0
2.2 0.136667 0
2.2 0.182222 0
2.2 0.227778 0
2.2 0.273333 0
2.2 0.318889 0
2.2 0.364444 0
2.15 0.41 0
2.1 0.41 0
2.05 0.41 0
2 0.41 0
1.95 0.41 0
1.9 0.41 0
1.85 0.41 0
1.8 0.41 0
1.75 0.41 0
1.7 0.41 0
1.65 0.41 0
1.6 0.41 0
1.55 0.41 0
1.5 0.41 0
1.45 0.41 0
1.4 0.41 0
1.35 0.41 0
1.3 0.41 0
1.25 0.41 0
1.2 0.41 0
1.15 0.41 0
1.1 0.41 0
1.05 0.41 0
1 0.41 0
0.95 0.41 0
0.9 0.41 0
0.85 0.41 0
0.8 0.41 0
0.75 0.41 0
0.7 0.41 0
0.65 0.41 0
0.6 0.41 0
0.55 0.41 0
0.5 0.41 0
0.45 0.41 0
0.4 0.41 0
0.35 0.41 0
0.3 0.41 0
0.25 0.41 0
0.2 0.41 0
0.15 0.41 0
0.1 0.41 0
0.05 0.41 0
0 0.364444 0
0 0.318889 0
0 0.273333 0
0 0.227778 0
0 0.182222 0
0 0.136667 0
0 0.0911111 0
0 0.0455556 0
0.248831 0.210749 0
0.245379 0.220994 0
0.239805 0.230259 0
0.232369 0.238108 0
0.22342 0.244176 0
0.213376 0.248177 0
0.202707 0.249927 0
0.191911 0.249341 0
0.181493 0.246449 0
0.171941 0.241384 0
0.1637 0.234385 0
0.157157 0.225778 0
0.152617 0.215965 0
0.150293 0.205406 0
0.150293 0.194594 0
0.152617 0.184035 0
0.157157 0.174222 0
0.1637 0.165615 0
0.171941 0.158616 0
0.181493 0.153551 0
0.191911 0.150659 0
0.202707 0.150073 0
0.213376 0.151823 0
0.22342 0.155824 0
0.232369 0.161892 0
0.239805 0.169741 0
0.245379 0.179006 0
0.248831 0.189251 0
0.421316 0.36725 0
0.426705 0.0366526 0
2.16065 0.209201 0
1.52286 0.0417259 0
0.626017 0.37111 0
1.3257 0.0414552 0
1.02471 0.0432237 0
1.17293 0.0421053 0
0.82501 0.36678 0
1.6757 0.370064 0
1.91628 0.0358195 0
1.82501 0.366432 0
0.723429 0.0421499 0
1.425 0.366699 0
1.97461 0.366224 0
1.12167 0.370137 0
0.975 0.368691 0
0.877672 0.0412714 0
1.27686 0.36884 0
1.725 0.0433013 0
0.579174 0.0416211 0
0.325589 0.363848 0
0.319111 0.0378151 0
0.0394523 0.296111 0
0.0329929 0.11602 0
0.142108 0.187428 0
1.57555 0.364352 0
2.02603 0.0412138 0
0.725007 0.36763 0
0.528647 0.366595 0
1.62699 0.0400272 0
1.82929 0.0421255 0
1.425 0.0418325 0
2.07474 0.364233 0
0.125 0.0433013 0
0.161245 0.155011 0
0.225 0.366699 0
0.210027 0.258536 0
2.16034 0.115449 0
0.0371627 0.204103 0
0.142311 0.212698 0
0.220283 0.0418538 0
0.221965 0.145099 0
0.196802 0.141016 0
0.119851 0.373394 0
0.161112 0.245979 0
0.184892 0.258024 0
2.16342 0.30039 0
2.12627 0.047699 0
0.183325 0.0412617 0
0.152317 0.0762976 0
0.203864 0.0745802 0
0.234384 0.0774346 0
0.215969 0.103585 0
0.245651 0.104548 0
0.186562 0.100216 0
0.268213 0.0793029 0
0.272149 0.109155 0
0.242885 0.159377 0
0.253088 0.128261 0
0.278718 0.13214 0
0.295917 0.115997 0
0.301728 0.138858 0
0.321266 0.12205 0
0.324642 0.151724 0
0.255978 0.181139 0
0.350123 0.129049 0
0.357539 0.159885 0
0.333541 0.181416 0
0.36451 0.19182 0
0.250573 0.230419 0
0.391277 0.169722 0
0.339477 0.212308 0
0.39836 0.205386 0
0.427326 0.18117 0
0.258724 0.206387 0
0.434392 0.219501 0
0.466446 0.193907 0
0.472865 0.243064 0
0.507358 0.209962 0
0.40073 0.238916 0
0.499135 0.1652 0
0.5419 0.179224 0
0.550176 0.22496 0
0.585844 0.194129 0
0.594095 0.240176 0
0.630701 0.209517 0
0.621901 0.162424 0
0.667731 0.178095 0
0.676485 0.226008 0
0.713906 0.194492 0
0.722681 0.242872 0
0.760442 0.211047 0
0.751547 0.162356 0
0.798298 0.179 0
0.807147 0.227866 0
0.845136 0.195775 0
0.854541 0.243285 0
0.892163 0.212344 0
0.902461 0.257947 0
0.93935 0.228684 0
0.930236 0.180167 0
0.977229 0.197066 0
0.986264 0.245777 0
1.02423 0.213991 0
1.0331 0.263172 0
1.07123 0.230975 0
1.06234 0.181814 0
1.10938 0.198721 0
1.09996 0.151012 0
1.14691 0.168161 0
1.15631 0.215921 0
1.19446 0.183678 0
1.20343 0.232645 0
1.2416 0.200322 0
1.23272 0.151117 0
1.2798 0.167954 0
1.28868 0.217167 0
1.32685 0.184862 0
1.33573 0.234064 0
1.3739 0.201768 0
0.789327 0.130094 0
1.38279 0.25097 0
1.42096 0.218674 0
1.41207 0.169471 0
1.45912 0.186378 0
1.46801 0.235581 0
1.50618 0.203285 0
1.51506 0.252489 0
1.55323 0.220192 0
1.54435 0.170989 0
1.5914 0.187896 0
1.60029 0.2371 0
1.63846 0.204803 0
1.64734 0.254007 0
1.68551 0.221711 0
1.67663 0.172507 0
1.72368 0.189415 0
1.73831 0.241548 0
1.77074 0.206322 0
1.76185 0.157121 0
1.8091 0.17428 0
1.81866 0.220885 0
1.85608 0.190621 0
1.86521 0.238879 0
1.90289 0.207671 0
1.91264 0.253772 0
1.94955 0.224093 0
1.94067 0.17593 0
1.98705 0.192828 0
1.99572 0.240997 0
2.0329 0.209382 0
2.02422 0.16161 0
2.04166 0.257286 0
0.419739 0.142889 0
0.968291 0.148058 0
0.310035 0.202211 0
0.316128 0.230863 0
0.658501 0.130052 0
0.685107 0.27445 0
1.34462 0.283266 0
1.16528 0.264896 0
1.84735 0.142081 0
0.557687 0.270604 0
1.21234 0.281769 0
1.58252 0.138692 0
0.533563 0.131933 0
0.489835 0.120004 0
1.45024 0.137174 0
2.06974 0.17785 0
2.06113 0.130713 0
0.283221 0.152215 0
0.921299 0.131169 0
0.343836 0.24295 0
0.319203 0.260002 0
0.235529 0.249617 0
0.347029 0.274099 0
0.291856 0.246297 0
0.295938 0.27548 0
0.272836 0.264931 0
0.27461 0.290522 0
0.251228 0.280224 0
0.253903 0.305808 0
0.232795 0.296709 0
0.298805 0.304058 0
1.0801 0.280176 0
1.47689 0.284785 0
1.05315 0.133468 0
1.09741 0.0970974 0
1.82427 0.272867 0
1.2701 0.118911 0
0.816337 0.277695 0
1.40432 0.121101 0
1.04244 0.320388 0
0.959305 0.103028 0
1.60923 0.286151 0
0.601674 0.286775 0
2.00739 0.280923 0
0.342592 0.0992796 0
0.375237 0.105729 0
1.52511 0.298716 0
1.53114 0.119823 0
0.733824 0.287256 0
0.613372 0.114719 0
0.645558 0.0838585 0
2.015 0.115858 0
1.22718 0.0994086 0
1.39166 0.29817 0
1.3564 0.329754 0
0.744134 0.11556 0
0.782853 0.0841771 0
0.826899 0.10047 0
1.17418 0.314034 0
0.520902 0.0906676 0
1.4967 0.329429 0
1.26048 0.0740437 0
0.365514 0.0716355 0
0.229836 0.121666 0
1.57453 0.09137 0
1.61938 0.110761 0
0.481716 0.0753791 0
0.14093 0.2 0
0.130041 0.192847 0
0.131507 0.178608 0
0.117165 0.184444 0
0.120761 0.164701 0
0.1156 0.199931 0
0.100804 0.174136 0
0.102545 0.153034 0
0.12169 0.143342 0
0.104604 0.13008 0
0.0809304 0.161171 0
0.128077 0.121858 0
0.106825 0.102278 0
0.082498 0.188728 0
0.0314738 0.158621 0
2.04625 0.310891 0
2.08475 0.27479 0
2.11394 0.138117 0
0.233149 0.151108 0
0.258724 0.193613 0
0.268522 0.184917 0
1.65397 0.301059 0
0.145962 0.224912 0
0.132503 0.222267 0
0.13746 0.236947 0
0.120111 0.233525 0
0.126593 0.25219 0
0.105294 0.247497 0
0.113343 0.26868 0
0.133997 0.271734 0
0.121622 0.292031 0
0.147069 0.292141 0
0.0896563 0.267464 0
0.0813699 0.243294 0
0.163574 0.276939 0
0.172694 0.298517 0
0.1583 0.321483 0
0.186823 0.322499 0
0.173113 0.348195 0
0.0322087 0.250839 0
0.211694 0.124337 0
0.250615 0.169546 0
0.256243 0.157787 0
0.170796 0.14736 0
0.156755 0.141654 0
0.17187 0.131161 0
0.147502 0.152323 0
0.198129 0.260662 0
0.206368 0.271663 0
0.220945 0.26864 0
0.190489 0.270628 0
0.198813 0.286731 0
0.55749 0.322277 0
0.520166 0.299321 0
0.235199 0.330709 0
0.267109 0.337524 0
0.172324 0.25256 0
0.255974 0.218859 0
0.268327 0.214994 0
0.184197 0.143083 0
0.188721 0.129954 0
0.209694 0.139146 0
0.269223 0.244007 0
0.252374 0.255244 0
0.282229 0.0410487 0
1.21977 0.330016 0
1.25733 0.296346 0
2.09358 0.0890819 0
0.244373 0.240984 0
0.0838116 0.115786 0
0.0797544 0.0817835 0
0.237449 0.264854 0
0.247178 0.146225 0
0.270136 0.2 0
0.28023 0.191334 0
0.263476 0.170737 0
0.371486 0.368728 0
0.396124 0.330051 0
0.440314 0.325693 0
0.357693 0.329668 0
0.476576 0.362035 0
0.29587 0.222914 0
0.307627 0.175476 0
0.079599 0.0406461 0
0.146062 0.252571 0
0.15162 0.125025 0
0.417223 0.294608 0
0.457089 0.286958 0
0.036619 0.338729 0
0.0713014 0.322193 0
0.0735823 0.36704 0
0.041143 0.0722223 0
0.693501 0.32349 0
0.145406 0.175484 0
0.138777 0.164467 0
0.300367 0.0698839 0
0.167025 0.112083 0
0.146978 0.105544 0
0.151909 0.236762 0
0.444611 0.106436 0
0.909355 0.0817561 0
0.282901 0.370713 0
1.61474 0.330739 0
0.578053 0.368179 0
0.824695 0.0487848 0
2.09634 0.3213 0
2.02276 0.364865 0
2.12532 0.363702 0
1.09789 0.328757 0
0.161137 0.260089 0
2.07793 0.225752 0
2.12079 0.240944 0
2.0747 0.0437362 0
1.89402 0.158846 0
1.93154 0.128738 0
1.8848 0.111477 0
1.8384 0.0926484 0
1.87744 0.0655304 0
1.7913 0.0793874 0
1.9712 0.046671 0
1.92502 0.366682 0
1.94563 0.325156 0
1.89941 0.326645 0
1.87499 0.367178 0
1.84989 0.323491 0
1.7997 0.321303 0
1.77183 0.280326 0
1.75031 0.321965 0
1.77491 0.365615 0
2.11727 0.191885 0
0.883187 0.163467 0
1.71449 0.140266 0
1.667 0.125342 0
1.70591 0.0884759 0
1.67732 0.042286 0
1.52278 0.370513 0
1.37512 0.04128 0
1.34848 0.0834574 0
0.776093 0.367587 0
1.125 0.0433013 0
1.15 0.0866019 0
1.07442 0.0496847 0
0.974527 0.0370837 0
1.47464 0.0427918 0
1.44953 0.0873752 0
1.17595 0.362984 0
1.025 0.366699 0
0.925007 0.367031 0
0.95 0.323404 0
0.897321 0.326356 0
0.874563 0.367261 0
0.846552 0.324465 0
1.62923 0.156667 0
1.32319 0.13033 0
1.69342 0.270472 0
1.49568 0.156227 0
1.56237 0.268721 0
1.44 0.319169 0
1.43005 0.267892 0
1.36502 0.152565 0
0.993446 0.294003 0
1.30179 0.321101 0
1.18235 0.127964 0
1.25016 0.2491 0
1.29638 0.266841 0
1.11824 0.247967 0
1.12945 0.294699 0
1.01527 0.165035 0
0.836192 0.147197 0
1.4998 0.0831488 0
1.00655 0.118664 0
0.872896 0.117126 0
0.70523 0.146383 0
1.96013 0.276645 0
0.769406 0.257102 0
0.699552 0.0908977 0
2.1587 0.162257 0
1.97813 0.145326 0
0.646036 0.302035 0
0.799423 0.326603 0
0.515621 0.255445 0
1.72538 0.366474 0
1.97009 0.0998346 0
1.57108 0.313772 0
0.577925 0.14549 0
0.638911 0.256447 0
0.407352 0.0771641 0
0.525103 0.042511 0
0.674231 0.370698 0
1.69802 0.321701 0
0.56947 0.0908728 0
1.75459 0.110239 0
1.80084 0.126127 0
0.673535 0.0431435 0
1.57391 0.0465733 0
2.04571 0.0828469 0
0.10002 0.225545 0
0.0788152 0.21577 0
0.369719 0.224393 0
0.210352 0.308739 0
1.22342 0.0432967 0
[...]
CELL_DATA 1241
VECTORS velocity double
1.01597 -0.00428705 0.0
1.21696 0.0666565 0.0
0.452411 -0.00115588 0.0
0.947515 0.0018562 0.0
1.04253 0.0054468 0.0
1.42281 0.103104 0.0
1.13424 0.000182377 0.0
0.982273 -0.000846485 0.0
0.363285 0.015793 0.0
1.17684 0.00152543 0.0
1.31247 -0.119984 0.0
1.31627 0.12654 0.0
0.865763 -0.160593 0.0
1.01483 0.00850665 0.0
0.990045 0.00688679 0.0
1.46629 -0.0328222 0.0
0.978418 0.000961599 0.0
0.479605 0.0603782 0.0
1.17242 0.062522 0.0
1.64767 -0.25416 0.0
1.02183 0.00511947 0.0
1.0594 -0.0662953 0.0
1.03645 -0.000305572 0.0
1.25312 0.904902 0.0
1.07106 -0.0022365 0.0
1.02501 0.0032963 0.0
1.29896 -0.199413 0.0
1.07632 -0.0253763 0.0
1.32175 -0.0836645 0.0
1.46236 -0.0648556 0.0
1.33199 0.0902522 0.0
0.86787 -0.0369365 0.0
1.52035 0.00260402 0.0
1.01349 0.00680903 0.0
1.25645 -0.0566844 0.0
1.35886 0.156923 0.0
1.21236 -0.0554922 0.0
1.05041 -0.167831 0.0
0.35956 0.0205031 0.0
1.38216 0.141317 0.0
1.76453 -0.17976 0.0
1.41334 -0.045397 0.0
1.05282 -0.23718 0.0
0.50823 0.00702728 0.0
1.39919 -0.167201 0.0
0.502958 -0.00660052 0.0
1.20171 0.0991621 0.0
1.11483 0.0259892 0.0
1.61302 -0.313077 0.0
1.23978 -0.0105353 0.0
1.21106 0.00108709 0.0
1.29083 -0.417492 0.0
0.869621 -0.00367372 0.0
1.4085 -0.0824433 0.0
1.77526 -0.279573 0.0
1.5189 -0.0287878 0.0
1.15042 -0.0402294 0.0
1.12653 -0.000219679 0.0
1.65847 -0.0990416 0.0
1.68774 -0.199317 0.0
1.15856 0.847303 0.0
0.996263 -9.33055e-05 0.0
0.195737 0.0357116 0.0
1.02763 0.00748097 0.0
-0.240083 0.0714184 0.0
1.33192 0.227573 0.0
-0.279505 0.0862602 0.0
1.16476 -0.00101721 0.0
0.862943 -0.0259148 0.0
0.218329 0.024483 0.0
1.16562 -0.00470375 0.0
0.793528 0.0141043 0.0
1.16461 -0.00423509 0.0
0.791853 -0.0138005 0.0
1.20281 0.00754495 0.0
0.881293 0.157081 0.0
0.942193 0.00671884 0.0
1.63149 -0.0464434 0.0
0.979522 -0.0346464 0.0
0.611362 0.00125906 0.0
1.75196 -0.38298 0.0
1.15969 -0.246718 0.0
0.65695 0.0119769 0.0
1.26145 -0.227348 0.0
1.34581 0.170064 0.0
0.919385 -0.0667308 0.0
1.20711 0.178154 0.0
0.0862904 0.0985338 0.0
1.83886 0.530364 0.0
1.18872 0.00365376 0.0
1.2722 0.0101516 0.0
-0.189566 -0.0110434 0.0
-0.347959 0.0783259 0.0
1.44303 -0.0647189 0.0
1.18241 -0.0409852 0.0
0.987352 0.0012363 0.0
0.849383 -0.0258991 0.0
-0.184461 0.0905874 0.0
1.01672 -0.0109873 0.0
-0.244123 0.112667 0.0
1.08214 -0.0985566 0.0
1.15713 -0.0141688 0.0
0.946799 0.00217332 0.0
1.63923 -0.16123 0.0
1.74238 -0.670637 0.0
1.27316 -0.397898 0.0
1.07144 -0.0620604 0.0
0.4984 -0.0236017 0.0
1.78802 0.649646 0.0
1.2207 0.00336786 0.0
1.48529 -0.109315 0.0
1.23111 0.189779 0.0
0.131722 0.0759343 0.0
1.44146 -0.0270027 0.0
1.08004 0.0149037 0.0
1.44262 0.0400873 0.0
1.414 0.00481446 0.0
1.39187 0.052891 0.0
1.06493 -0.00196417 0.0
0.255496 0.0397993 0.0
1.19019 0.0421476 0.0
1.51967 0.58179 0.0
1.25164 0.108375 0.0
0.919947 -0.063474 0.0
0.727009 -0.0994197 0.0
1.20491 0.0861658 0.0
1.4469 -0.043008 0.0
1.11833 0.0247014 0.0
1.74961 0.501381 0.0
0.549914 -0.0713163 0.0
1.16392 -0.0144293 0.0
0.620766 -0.0016372 0.0
0.885897 0.0638716 0.0
1.60325 -0.0215216 0.0
1.01966 -0.153339 0.0
-0.276028 0.0745722 0.0
0.123248 0.0624431 0.0
1.22637 0.082321 0.0
1.04852 -0.0252663 0.0
1.66385 -0.761312 0.0
1.50088 0.00357238 0.0
1.03492 0.00563178 0.0
1.07835 -0.245046 0.0
1.00486 0.00701269 0.0
1.52359 0.00728441 0.0
0.022541 0.0312251 0.0
-0.254469 0.0380256 0.0
-0.182608 0.00604684 0.0
0.640236 0.015376 0.0
0.651535 -0.011724 0.0
0.555342 -0.10153 0.0
1.03478 -0.00712563 0.0
1.79637 -0.332577 0.0
1.04806 -0.153491 0.0
1.20282 -0.0491843 0.0
1.20456 0.0544215 0.0
0.490415 -0.000701874 0.0
1.6436 0.0737593 0.0
0.857252 0.030428 0.0
1.2481 -0.0570741 0.0
-0.230502 0.0470259 0.0
1.74048 0.446474 0.0
1.14303 0.00751962 0.0
1.22204 -0.204902 0.0
1.14271 0.0342955 0.0
1.05422 0.130241 0.0
0.983368 -0.00105569 0.0
0.987065 0.109851 0.0
0.565374 -0.00330874 0.0
1.17161 -0.0344056 0.0
0.928871 -0.0247189 0.0
1.23029 0.0037615 0.0
1.36546 0.265519 0.0
1.19073 0.0866991 0.0
1.10513 0.00538837 0.0
1.1162 0.00626562 0.0
1.18259 0.19869 0.0
1.1201 -0.287601 0.0
1.11409 0.0114902 0.0
1.16602 -0.225262 0.0
1.11967 0.00892762 0.0
0.363237 0.110168 0.0
1.08769 -0.644375 0.0
0.730576 -0.127089 0.0
1.0236 -0.00823527 0.0
0.765694 -0.0789903 0.0
0.762211 -0.0636645 0.0
1.02708 0.00739729 0.0
1.05545 0.0959212 0.0
0.461046 0.0470113 0.0
0.889602 -0.829911 0.0
1.77864 0.345055 0.0
1.02829 -0.00206844 0.0
0.98246 0.00681252 0.0
0.667334 0.060225 0.0
0.853106 0.0569841 0.0
0.397736 0.0590079 0.0
1.00049 -0.0149736 0.0
1.42771 -0.0322275 0.0
1.44965 0.581434 0.0
1.15458 0.193111 0.0
1.06908 -0.0135795 0.0
1.42685 0.0384019 0.0
1.04173 -0.0923979 0.0
1.40087 -0.09157 0.0
1.43601 -0.0446945 0.0
0.48334 0.0244438 0.0
0.661622 0.0126748 0.0
0.899757 -0.0227885 0.0
0.857528 0.0335278 0.0
0.52365 0.0170877 0.0
0.516389 -0.00280643 0.0
1.79012 0.286475 0.0
1.11162 0.0109703 0.0
1.44077 -0.00363644 0.0
1.12141 0.0116164 0.0
0.732042 -0.0774525 0.0
1.51116 -0.0907885 0.0
1.17601 -0.0309177 0.0
1.16158 -0.0123632 0.0
0.833097 -0.0495829 0.0
1.67135 -0.0704599 0.0
1.01017 0.0553271 0.0
0.996289 0.0114282 0.0
0.958637 -0.0261947 0.0
1.22883 0.00277584 0.0
1.43544 -0.137445 0.0
1.72983 -0.600856 0.0
1.18291 -0.00615038 0.0
1.2008 -0.0106704 0.0
0.992324 -0.000706578 0.0
1.06355 -0.132776 0.0
1.02769 -0.00984493 0.0
0.99605 -0.00637205 0.0
1.25796 0.310858 0.0
1.03831 -0.256616 0.0
1.09428 0.171667 0.0
1.31873 0.132513 0.0
0.744037 -0.106775 0.0
0.355086 -0.0454548 0.0
0.958806 0.0159226 0.0
1.4387 0.0570232 0.0
1.42204 0.918323 0.0
0.682938 -0.0851882 0.0
1.15004 -0.0167005 0.0
1.70426 0.140274 0.0
1.09692 -0.898568 0.0
0.868426 -0.177614 0.0
1.14067 -0.0377269 0.0
0.562303 -0.00814289 0.0
1.02615 0.0270531 0.0
0.547148 -0.00948665 0.0
1.03085 -0.00438804 0.0
1.22157 0.003462 0.0
0.622638 -0.011875 0.0
0.775407 -0.0337042 0.0
1.09485 -0.285468 0.0
1.32598 -0.104742 0.0
1.21943 0.00123564 0.0
1.01922 -0.00156866 0.0
1.00351 0.00891491 0.0
0.510659 -0.00564289 0.0
1.22237 0.00603909 0.0
0.736321 -0.0261123 0.0
1.12756 0.0436352 0.0
0.996907 -0.00997714 0.0
0.568867 0.00363927 0.0
1.24096 -0.110035 0.0
1.22746 -0.171126 0.0
0.789008 -0.0266749 0.0
1.13987 -0.0654623 0.0
0.589279 0.00162079 0.0
0.982974 -0.0147748 0.0
0.116514 0.0674578 0.0
1.19911 0.00014666 0.0
1.19556 -0.0101323 0.0
0.599423 -0.00400404 0.0
0.942662 -0.194318 0.0
0.986777 -0.0148117 0.0
1.42993 0.154569 0.0
1.19487 0.00153744 0.0
1.23013 -0.000935661 0.0
1.22356 -0.170782 0.0
1.23171 -0.00252227 0.0
1.23029 0.00107476 0.0
1.17185 -0.0172693 0.0
0.935149 -0.114618 0.0
0.835802 0.042867 0.0
1.2319 -0.00482803 0.0
1.22862 -0.000459718 0.0
1.2243 -0.0017218 0.0
0.63491 0.0704936 0.0
0.463782 0.00511908 0.0
0.997397 0.0101122 0.0
0.55028 -0.00748738 0.0
1.23026 -0.00520937 0.0
1.00199 -0.0175438 0.0
1.1601 0.0106126 0.0
-0.261221 -0.026888 0.0
0.967964 -0.0112096 0.0
0.504712 -0.00432053 0.0
1.31891 -0.604727 0.0
1.12238 -0.00755357 0.0
0.971018 -0.0153293 0.0
0.528438 -0.00989227 0.0
1.22995 -0.0028689 0.0
0.868133 0.040771 0.0
0.537382 0.00160714 0.0
0.992779 -0.0147357 0.0
1.23055 -0.00541116 0.0
1.22332 -0.00247673 0.0
1.22809 -0.00278187 0.0
0.625449 -0.00702724 0.0
0.449759 0.000477693 0.0
1.22804 -0.00636335 0.0
1.14176 -0.0736088 0.0
1.20308 -0.00717833 0.0
0.607656 0.0099215 0.0
1.18377 -0.00815401 0.0
1.22095 -0.00516132 0.0
1.2082 0.00109983 0.0
1.2331 -0.00704722 0.0
0.46968 -0.0065695 0.0
1.22643 -0.00630981 0.0
1.22768 -0.00622716 0.0
1.21842 -0.00687685 0.0
0.459749 -0.00366748 0.0
1.21351 -0.00238846 0.0
1.18206 -0.00616172 0.0
1.19891 -0.00101102 0.0
1.23066 -0.00719083 0.0
1.17051 -0.157956 0.0
1.12885 0.00141707 0.0
1.23203 -0.0073783 0.0
1.3509 0.668527 0.0
1.21599 -0.00655036 0.0
0.512973 -0.00679108 0.0
1.0964 -0.0222562 0.0
0.568402 0.00803169 0.0
0.593432 -0.00941106 0.0
1.1187 0.00693145 0.0
1.0961 -0.0125609 0.0
1.06975 -0.00796809 0.0
0.531702 -0.00810423 0.0
1.10215 -0.0219808 0.0
1.12564 0.00552961 0.0
1.22936 -0.00778445 0.0
1.07406 0.139106 0.0
1.15507 -0.696818 0.0
0.561836 -0.00482329 0.0
0.520012 -0.00545171 0.0
1.22482 -0.00595662 0.0
1.22672 -0.00809024 0.0
0.618039 -0.0183617 0.0
0.50799 -0.00925804 0.0
1.22223 -0.00521483 0.0
0.991565 0.0164085 0.0
1.16233 0.011385 0.0
1.15579 -0.00719302 0.0
0.56504 0.00704908 0.0
0.516492 -0.00226214 0.0
1.14448 0.017315 0.0
0.601558 0.0140698 0.0
0.567458 0.0146266 0.0
1.17468 0.00884662 0.0
0.617785 0.0206174 0.0
0.569598 -0.000831165 0.0
1.21291 -0.00454297 0.0
1.20055 -0.00377741 0.0
0.961802 0.0157638 0.0
1.20979 -0.00236965 0.0
1.18185 -0.00259237 0.0
1.21748 -0.00351324 0.0
0.98311 0.0117205 0.0
1.15139 -0.00322656 0.0
0.608225 0.00594761 0.0
0.501769 0.0140681 0.0
0.551735 0.0138563 0.0
0.468867 -0.00821822 0.0
0.534627 0.0005394 0.0
0.557362 -0.00517301 0.0
0.525579 -0.00267076 0.0
0.639108 -0.0138592 0.0
0.545388 -0.00472405 0.0
0.574402 0.0131231 0.0
0.490129 -0.00728599 0.0
0.575071 0.0155935 0.0
0.499064 7.97158e-06 0.0
0.678499 0.0213534 0.0
0.577528 0.01013 0.0
0.57125 -0.011544 0.0
0.490237 0.00256718 0.0
0.527309 -0.00212637 0.0
0.50963 0.0076867 0.0
0.610961 -0.00982038 0.0
0.53684 -0.00122176 0.0
0.600582 -0.00770301 0.0
0.557374 -0.0123564 0.0
0.543601 0.00665575 0.0
0.522544 -2.91234e-05 0.0
0.539579 0.00366275 0.0
0.48242 -0.0168728 0.0
0.490347 0.0197558 0.0
0.492573 0.000409475 0.0
0.555643 -0.00723167 0.0
0.496046 0.00327409 0.0
0.645676 -0.021108 0.0
0.493004 0.00594264 0.0
0.46764 0.00521696 0.0
0.510261 0.000807306 0.0
0.486876 -0.00288728 0.0
1.18029 -0.00181837 0.0
1.16103 -0.00604283 0.0
1.22498 -0.00736337 0.0
1.22308 -0.00526891 0.0
1.22604 -0.00546707 0.0
1.11827 -0.0074507 0.0
1.19694 -0.00684614 0.0
1.17771 -0.00641149 0.0
1.18246 0.00417806 0.0
1.15406 -0.00208529 0.0
1.20898 -0.00779214 0.0
1.21143 -0.00849151 0.0
1.1737 -0.00630568 0.0
1.21891 -0.00385702 0.0
1.19513 -0.00101098 0.0
1.21987 -0.00610416 0.0
1.19314 -0.00706961 0.0
1.15205 0.000938801 0.0
1.21637 -0.00622714 0.0
1.22176 -0.00440871 0.0
1.20715 -0.00146399 0.0
1.22008 -0.00400612 0.0
1.21531 -0.00537413 0.0
1.15611 -0.00868247 0.0
1.22011 -0.00215872 0.0
1.19743 -0.00327725 0.0
1.21726 -0.00153952 0.0
1.11995 -0.00118285 0.0
1.19833 -0.0032113 0.0
1.19144 0.00117728 0.0
1.21276 -0.00163933 0.0
1.17523 -0.00131733 0.0
1.21232 -0.00245328 0.0
1.21538 -0.00251302 0.0
1.18571 0.00382526 0.0
1.21605 -0.00160482 0.0
1.2075 -0.00411234 0.0
1.21047 0.000196506 0.0
1.15282 -0.00822779 0.0
1.17693 -0.00231579 0.0
1.21339 -5.08474e-05 0.0
1.20507 -0.00339797 0.0
1.20215 0.00165429 0.0
1.19917 0.0031058 0.0
1.1614 -0.0127775 0.0
1.21114 0.00012135 0.0
1.20776 0.000505886 0.0
1.13741 -0.00569635 0.0
1.19337 -0.00422205 0.0
1.12128 0.00344525 0.0
1.17945 -0.00417999 0.0
1.19003 -0.00384723 0.0
1.20193 -0.00362988 0.0
1.20814 -0.00134831 0.0
1.17532 -0.0042878 0.0
1.20545 -0.00347468 0.0
1.20438 -0.00108232 0.0
1.20645 0.000364031 0.0
1.20231 0.00269694 0.0
1.19896 0.00303637 0.0
1.19651 0.00350191 0.0
1.18494 0.00560657 0.0
1.1358 -0.00621985 0.0
1.09392 0.00737445 0.0
1.18001 0.00689648 0.0
1.20247 0.000774869 0.0
0.57528 -0.00626551 0.0
1.18839 0.00553277 0.0
1.14893 0.00723896 0.0
1.17116 0.00750043 0.0
1.20038 0.00285118 0.0
1.16883 0.00723063 0.0
1.17983 0.00556861 0.0
1.17271 0.000199402 0.0
1.19151 0.00523603 0.0
1.17944 -0.000857632 0.0
1.13329 -0.00496493 0.0
1.13322 -0.00795102 0.0
1.15719 -0.0048345 0.0
1.18797 0.00649093 0.0
1.1758 -0.00414483 0.0
1.18662 0.00334448 0.0
1.16879 -0.00388136 0.0
1.18563 -0.00381562 0.0
1.19058 0.00277139 0.0
1.18392 0.00582306 0.0
0.979965 -0.0131823 0.0
1.17324 -0.00347921 0.0
1.17647 0.00774676 0.0
1.14615 0.0087939 0.0
1.19107 -0.00233713 0.0
1.19513 0.000172228 0.0
1.08131 -0.0178814 0.0
1.16651 0.0109437 0.0
1.17985 -0.00354412 0.0
1.14767 0.0149269 0.0
1.19078 -5.48921e-05 0.0
1.15028 0.0178104 0.0
1.16892 -0.0044556 0.0
1.19462 -0.00231632 0.0
1.17603 -0.00110654 0.0
1.11937 0.17657 0.0
1.15319 -0.00732963 0.0
1.22039 -0.00914015 0.0
1.17227 0.00945804 0.0
1.17687 0.00114869 0.0
1.15788 -0.0135409 0.0
1.16202 -0.00353847 0.0
1.13941 -0.00306512 0.0
1.16173 -0.00963715 0.0
1.1692 0.00266876 0.0
1.14094 -0.00119562 0.0
1.1641 0.00233455 0.0
1.16497 -0.00682001 0.0
1.16453 -0.00281156 0.0
1.15035 0.0120806 0.0
1.16135 -0.00527745 0.0
0.718103 -0.0205438 0.0
0.972794 0.00439748 0.0
1.14575 0.0143329 0.0
1.14872 0.00949922 0.0
1.15604 -0.00774169 0.0
1.14154 0.0120662 0.0
1.14844 0.0144437 0.0
1.1462 -0.00239662 0.0
1.12855 0.000877116 0.0
1.14103 -0.00317865 0.0
1.13459 0.000961169 0.0
1.12228 0.0121173 0.0
1.15941 0.00570464 0.0
1.15345 0.00861631 0.0
0.995433 0.008106 0.0
1.15477 0.00589135 0.0
1.15847 0.0117272 0.0
1.1509 0.0122255 0.0
1.11557 0.0152075 0.0
1.1362 0.0158278 0.0
1.1553 0.0126691 0.0
1.73548 0.181629 0.0
1.12075 -0.0106047 0.0
1.1281 0.0193481 0.0
1.10046 -0.0223682 0.0
1.14958 0.0220065 0.0
1.14842 0.0162441 0.0
1.11435 -0.0129612 0.0
1.14687 0.0220928 0.0
1.22026 -0.00580498 0.0
1.07122 -0.00968835 0.0
1.0986 0.0154028 0.0
1.09797 -0.00692351 0.0
1.30717 0.12614 0.0
1.21604 -0.00536464 0.0
1.08275 -0.00223246 0.0
1.15469 -0.0077258 0.0
1.14062 0.0282751 0.0
1.14678 0.0225832 0.0
1.09045 -0.0085355 0.0
1.09458 -0.0274008 0.0
0.981161 -0.0150972 0.0
1.19148 -0.00102632 0.0
1.06782 0.000661136 0.0
1.0775 0.000191717 0.0
1.12141 0.0247725 0.0
1.11925 -0.0268825 0.0
1.02978 0.198338 0.0
0.961832 -0.0151893 0.0
1.13675 0.0338831 0.0
0.442218 -0.164406 0.0
1.38206 0.131503 0.0
1.18149 -0.0523196 0.0
1.06545 0.0103184 0.0
1.06648 0.0257801 0.0
1.0547 0.0364351 0.0
1.21613 -0.00159954 0.0
1.05295 0.0143446 0.0
1.03811 -0.0441603 0.0
1.30216 0.175948 0.0
1.00337 -0.142489 0.0
1.03319 -0.0578721 0.0
1.15164 -0.133396 0.0
1.14805 -0.0125551 0.0
1.09561 -0.0481908 0.0
1.17977 -0.00349733 0.0
0.937121 0.00178693 0.0
1.18108 0.0541565 0.0
1.00881 -0.013914 0.0
1.23796 -0.101904 0.0
1.21474 -0.00554297 0.0
1.20293 -0.00650493 0.0
1.05604 -0.0200645 0.0
1.39838 -0.567467 0.0
1.13266 0.0835412 0.0
0.995512 -0.0202628 0.0
1.13288 0.0669984 0.0
0.957657 0.00150196 0.0
0.757897 0.0281285 0.0
1.09005 0.0450381 0.0
1.32725 -0.160588 0.0
0.933432 -0.0908603 0.0
1.09914 -0.039763 0.0
0.632629 -0.556527 0.0
1.10973 -0.0281846 0.0
1.11571 -0.00693612 0.0
1.15351 -0.00757383 0.0
1.3911 -0.139473 0.0
1.08069 0.0601125 0.0
1.17968 -0.00272488 0.0
1.04785 -0.0262893 0.0
1.16378 0.0363107 0.0
0.988882 -0.017606 0.0
1.34996 -0.771792 0.0
1.22408 0.0046552 0.0
1.17974 0.0516046 0.0
1.19996 0.00288358 0.0
1.12625 -0.000691324 0.0
1.18058 -0.0566821 0.0
1.06602 0.0201785 0.0
1.21051 0.0814967 0.0
1.12229 -0.00805261 0.0
1.15924 0.0442659 0.0
0.957823 0.00165401 0.0
1.15051 0.0112822 0.0
1.1805 -0.53164 0.0
0.658964 -0.00612436 0.0
0.680709 -0.0232287 0.0
0.925469 0.0271564 0.0
1.26628 0.119776 0.0
1.15251 -0.00629036 0.0
1.18104 -0.00530587 0.0
0.606764 0.0102067 0.0
1.20077 -0.00598472 0.0
0.328181 -0.123551 0.0
1.07347 -0.0993134 0.0
0.552559 0.00889244 0.0
0.558462 -0.0111531 0.0
0.900007 0.0403186 0.0
1.15748 -0.00607365 0.0
0.863952 -0.174344 0.0
0.849478 -0.0253416 0.0
1.68893 -0.125032 0.0
0.941527 0.037407 0.0
1.15181 -0.0106784 0.0
1.15244 -0.0121555 0.0
1.05316 0.00865632 0.0
1.22149 0.00355583 0.0
1.17762 0.00126105 0.0
1.18512 0.348329 0.0
0.620311 0.0173876 0.0
1.01956 0.00178223 0.0
1.36935 -0.0979353 0.0
0.537005 0.00761212 0.0
1.58077 0.56093 0.0
0.93439 -0.0418229 0.0
0.796906 -0.0267017 0.0
1.34117 0.088238 0.0
0.782373 -0.0538242 0.0
0.955395 -0.00097357 0.0
0.668574 -0.116257 0.0
1.15636 -0.0170449 0.0
0.880981 0.099645 0.0
1.13655 -0.0146476 0.0
0.659325 -0.00412861 0.0
1.02999 0.00566426 0.0
0.980798 0.136339 0.0
1.40947 -0.0327311 0.0
0.520553 -0.00346883 0.0
0.636946 -0.0245367 0.0
0.91875 0.805441 0.0
1.11041 -0.00105708 0.0
1.05172 0.0116062 0.0
1.39246 0.0135753 0.0
0.602045 -0.0105526 0.0
1.13205 0.0184584 0.0
1.16664 -0.448609 0.0
0.186484 0.0223937 0.0
0.925583 -0.0633091 0.0
1.07042 -0.0834056 0.0
0.735177 0.0239608 0.0
0.519452 0.0178877 0.0
1.649 0.0363192 0.0
1.15461 -0.00562031 0.0
0.311487 0.0152319 0.0
0.572028 0.0249802 0.0
1.14442 -0.00608801 0.0
1.20247 -0.00631987 0.0
1.00204 -0.018283 0.0
0.938468 0.062455 0.0
1.20926 0.172577 0.0
0.640006 0.0108653 0.0
1.20315 0.00771988 0.0
0.91992 0.0928928 0.0
1.20729 -0.0083611 0.0
1.38799 -0.593458 0.0
0.513483 0.000990639 0.0
1.45927 -0.129991 0.0
1.11031 0.00826031 0.0
0.951434 -0.0141438 0.0
0.621592 0.0903313 0.0
0.991576 0.101949 0.0
0.897475 0.13987 0.0
1.11284 0.00946341 0.0
1.21764 -0.0580904 0.0
1.39921 -0.0369366 0.0
0.585863 0.00505642 0.0
0.610079 0.0150644 0.0
1.07392 -0.00359598 0.0
0.404542 -0.0728932 0.0
1.04393 0.0365968 0.0
0.492216 0.00357344 0.0
0.964629 -0.0112407 0.0
1.1113 -0.0044996 0.0
0.942185 -0.00959527 0.0
0.55663 -0.00671179 0.0
0.555493 0.018874 0.0
0.567372 0.00938095 0.0
0.516624 0.00722357 0.0
0.586358 0.0113182 0.0
1.21072 0.669593 0.0
1.36086 0.0695525 0.0
0.965031 -0.00288982 0.0
0.541158 0.00790354 0.0
0.553066 -0.0126801 0.0
0.699399 0.0250088 0.0
1.15648 -0.0475577 0.0
0.618838 0.00117394 0.0
1.60383 -0.193082 0.0
1.29591 0.0955209 0.0
0.537234 -0.140681 0.0
1.3453 -0.0937147 0.0
1.52682 -0.466843 0.0
1.01013 0.00545867 0.0
1.0906 0.01858 0.0
1.14129 -0.0123924 0.0
0.960423 0.00279181 0.0
0.837051 -0.689214 0.0
1.02654 -0.00185786 0.0
0.979365 -0.0054387 0.0
1.20234 -0.0126794 0.0
1.12196 -0.0342769 0.0
1.64826 -0.000222453 0.0
-0.12074 0.09782 0.0
0.506778 -0.0687465 0.0
1.33617 0.518177 0.0
1.07346 -0.0121429 0.0
0.606751 -0.0119163 0.0
0.578165 -0.00554537 0.0
0.573243 -0.00586489 0.0
1.22226 0.00570563 0.0
0.63387 0.211327 0.0
1.17462 -0.0247634 0.0
0.976854 0.0122136 0.0
0.751384 0.163151 0.0
1.12521 -0.00215429 0.0
0.13865 -0.00978058 0.0
1.18913 0.0058733 0.0
0.566183 0.0209614 0.0
0.563527 -0.0102477 0.0
1.34007 0.0855523 0.0
0.841166 -0.0115017 0.0
1.50634 0.0320519 0.0
0.97439 0.0149427 0.0
0.990407 0.0111286 0.0
0.111801 -0.166256 0.0
0.972738 0.0289409 0.0
1.17022 0.0133931 0.0
1.15292 0.0134625 0.0
0.356087 -0.136237 0.0
1.61636 -0.273216 0.0
1.09421 -0.000344585 0.0
1.28755 0.195102 0.0
0.590394 -0.0138554 0.0
0.557832 -0.00746812 0.0
1.12377 -0.0167641 0.0
0.531057 0.0897174 0.0
1.12547 -0.0273272 0.0
0.809339 0.0218001 0.0
0.934888 -0.00864005 0.0
1.13128 0.0122564 0.0
0.996344 -0.0035368 0.0
0.201884 -0.0209013 0.0
1.14873 -0.0130126 0.0
0.309859 0.0604312 0.0
1.01066 -0.000827707 0.0
1.00189 -0.00385587 0.0
0.575768 -0.015672 0.0
1.07157 -0.00949961 0.0
1.17468 -0.0249343 0.0
0.948888 0.000378072 0.0
0.991417 -0.0131744 0.0
1.20022 -0.964616 0.0
1.13221 0.0224845 0.0
1.6927 0.486927 0.0
0.556012 -0.0164816 0.0
0.54547 0.00642968 0.0
1.16716 0.00596129 0.0
1.2263 -0.00652222 0.0
1.11395 -0.0081699 0.0
1.12297 -0.00155973 0.0
1.18074 0.00573277 0.0
1.13101 0.00526297 0.0
1.21712 -0.00909635 0.0
1.15073 0.0258617 0.0
-0.198203 0.0188054 0.0
1.10353 0.0150939 0.0
-0.0248903 0.0289952 0.0
0.663453 -0.0255847 0.0
1.20449 -0.177547 0.0
1.14667 -0.0115902 0.0
1.36836 -0.13806 0.0
1.6463 -0.50242 0.0
0.314249 -0.018111 0.0
1.21067 -0.00827187 0.0
1.129 0.272013 0.0
1.3512 -0.0983447 0.0
1.07137 0.305695 0.0
1.7095 0.0868359 0.0
0.975237 -0.542444 0.0
1.37208 0.132335 0.0
1.1222 -0.0164252 0.0
1.28963 -0.480968 0.0
-0.0871377 -0.108197 0.0
1.05954 4.82289e-05 0.0
1.31865 -0.394852 0.0
0.499109 -0.00484292 0.0
1.41864 -0.14994 0.0
1.68464 0.198439 0.0
1.09135 0.0132267 0.0
0.398549 0.0154836 0.0
0.717033 0.00183116 0.0
0.267868 -0.22845 0.0
0.956899 0.0459724 0.0
-0.118488 -0.0299964 0.0
1.14654 -0.162476 0.0
1.49634 0.143824 0.0
0.535831 0.00911882 0.0
1.22927 -0.0689067 0.0
0.967275 0.000517185 0.0
1.21346 0.00497212 0.0
0.435148 -0.61551 0.0
1.22864 0.264379 0.0
0.729444 -0.162601 0.0
0.191334 -0.330925 0.0
0.517864 0.160704 0.0
1.3026 0.2385 0.0
0.598143 0.152273 0.0
0.967788 -0.0127052 0.0
1.13986 -0.0160932 0.0
1.08252 0.0112517 0.0
1.07607 0.00894307 0.0
0.571325 0.00745233 0.0
0.0239031 0.0820431 0.0
1.3083 0.29979 0.0
0.466228 -0.00215604 0.0
1.10135 0.00967439 0.0
0.264442 0.216286 0.0
0.974016 -0.00453424 0.0