# vtk DataFile Version 3.0
Malha 2D com triângulos e temperatura
ASCII
DATASET UNSTRUCTURED_GRID

POINTS 688 double
0 0 0
2.2 0 0
2.2 0.41 0
0 0.41 0
0.25 0.2 0
0.05 0 0
0.1 0 0
0.15 0 0
0.2 0 0
0.25 0 0
0.3 0 0
0.35 0 0
0.4 0 0
0.45 0 0
0.5 0 0
0.55 0 0
0.6 0 0
0.65 0 0
0.7 0 0
0.75 0 0
0.8 0 0
0.85 0 0
0.9 0 0
0.95 0 0
1 0 0
1.05 0 0
1.1 0 0
1.15 0 0
1.2 0 0
1.25 0 0
1.3 0 0
1.35 0 0
1.4 0 0
1.45 0 0
1.5 0 0
1.55 0 0
1.6 0 0
1.65 0 0
1.7 0 0
1.75 0 0
1.8 0 0
1.85 0 0
1.9 0 0
1.95 0 0
2 0 0
2.05 0 0
2.1 0 0
2.15 0 0
2.2 0.0455556 0
2.2 0.0911111 0
2.2 0.136667 0
2.2 0.182222 0
2.2 0.227778 0
2.2 0.273333 0
2.2 0.318889 0
2.2 0.364444 0
2.15 0.41 0
2.1 0.41 0
2.05 0.41 0
2 0.41 0
1.95 0.41 0
1.9 0.41 0
1.85 0.41 0
1.8 0.41 0
1.75 0.41 0
1.7 0.41 0
1.65 0.41 0
1.6 0.41 0
1.55 0.41 0
1.5 0.41 0
1.45 0.41 0
1.4 0.41 0
1.35 0.41 0
1.3 0.41 0
1.25 0.41 0
1.2 0.41 0
1.15 0.41 0
1.1 0.41 0
1.05 0.41 0
1 0.41 0
0.95 0.41 0
0.9 0.41 0
0.85 0.41 0
0.8 0.41 0
0.75 0.41 0
0.7 0.41 0
0.65 0.41 0
0.6 0.41 0
0.55 0.41 0
0.5 0.41 0
0.45 0.41 0
0.4 0.41 0
0.35 0.41 0
0.3 0.41 0
0.25 0.41 0
0.2 0.41 0
0.15 0.41 0
0.1 0.41 0
0.05 0.41 0
0 0.364444 0
0 0.318889 0
0 0.273333 0
0 0.227778 0
0 0.182222 0
0 0.136667 0
0 0.0911111 0
0 0.0455556 0
0.248831 0.210749 0
0.245379 0.220994 0
0.239805 0.230259 0
0.232369 0.238108 0
0.22342 0.244176 0
0.213376 0.248177 0
0.202707 0.249927 0
0.191911 0.249341 0
0.181493 0.246449 0
0.171941 0.241384 0
0.1637 0.234385 0
0.157157 0.225778 0
0.152617 0.215965 0
0.150293 0.205406 0
0.150293 0.194594 0
0.152617 0.184035 0
0.157157 0.174222 0
0.1637 0.165615 0
0.171941 0.158616 0
0.181493 0.153551 0
0.191911 0.150659 0
0.202707 0.150073 0
0.213376 0.151823 0
0.22342 0.155824 0
0.232369 0.161892 0
0.239805 0.169741 0
0.245379 0.179006 0
0.248831 0.189251 0
0.421316 0.36725 0
0.426705 0.0366526 0
2.16065 0.209201 0
1.52286 0.0417259 0
0.626017 0.37111 0
1.3257 0.0414552 0
1.02471 0.0432237 0
1.17293 0.0421053 0
0.82501 0.36678 0
1.6757 0.370064 0
1.91628 0.0358195 0
1.82501 0.366432 0
0.723429 0.0421499 0
1.425 0.366699 0
1.97461 0.366224 0
1.12167 0.370137 0
0.975 0.368691 0
0.877672 0.0412714 0
1.27686 0.36884 0
1.725 0.0433013 0
0.579174 0.0416211 0
0.325589 0.363848 0
0.319111 0.0378151 0
0.0394523 0.296111 0
0.0329929 0.11602 0
0.142108 0.187428 0
1.57555 0.364352 0
2.02603 0.0412138 0
0.725007 0.36763 0
0.528647 0.366595 0
1.62699 0.0400272 0
1.82929 0.0421255 0
1.425 0.0418325 0
2.07474 0.364233 0
0.125 0.0433013 0
0.161245 0.155011 0
0.225 0.366699 0
0.210027 0.258536 0
2.16034 0.115449 0
0.0371627 0.204103 0
0.142311 0.212698 0
0.220283 0.0418538 0
0.221965 0.145099 0
0.196802 0.141016 0
0.119851 0.373394 0
0.161112 0.245979 0
0.184892 0.258024 0
2.16342 0.30039 0
2.12627 0.047699 0
0.183325 0.0412617 0
0.152317 0.0762976 0
0.203864 0.0745802 0
0.234384 0.0774346 0
0.215969 0.103585 0
0.245651 0.104548 0
0.186562 0.100216 0
0.268213 0.0793029 0
0.272149 0.109155 0
0.242885 0.159377 0
0.253088 0.128261 0
0.278718 0.13214 0
0.295917 0.115997 0
0.301728 0.138858 0
0.321266 0.12205 0
0.324642 0.151724 0
0.255978 0.181139 0
0.350123 0.129049 0
0.357539 0.159885 0
0.333541 0.181416 0
0.36451 0.19182 0
0.250573 0.230419 0
0.391277 0.169722 0
0.339477 0.212308 0
0.39836 0.205386 0
0.427326 0.18117 0
0.258724 0.206387 0
0.434392 0.219501 0
0.466446 0.193907 0
0.472865 0.243064 0
0.507358 0.209962 0
0.40073 0.238916 0
0.499135 0.1652 0
0.5419 0.179224 0
0.550176 0.22496 0
0.585844 0.194129 0
0.594095 0.240176 0
0.630701 0.209517 0
0.621901 0.162424 0
0.667731 0.178095 0
0.676485 0.226008 0
0.713906 0.194492 0
0.722681 0.242872 0
0.760442 0.211047 0
0.751547 0.162356 0
0.798298 0.179 0
0.807147 0.227866 0
0.845136 0.195775 0
0.854541 0.243285 0
0.892163 0.212344 0
0.902461 0.257947 0
0.93935 0.228684 0
0.930236 0.180167 0
0.977229 0.197066 0
0.986264 0.245777 0
1.02423 0.213991 0
1.0331 0.263172 0
1.07123 0.230975 0
1.06234 0.181814 0
1.10938 0.198721 0
1.09996 0.151012 0
1.14691 0.168161 0
1.15631 0.215921 0
1.19446 0.183678 0
1.20343 0.232645 0
1.2416 0.200322 0
1.23272 0.151117 0
1.2798 0.167954 0
1.28868 0.217167 0
1.32685 0.184862 0
1.33573 0.234064 0
1.3739 0.201768 0
0.789327 0.130094 0
1.38279 0.25097 0
1.42096 0.218674 0
1.41207 0.169471 0
1.45912 0.186378 0
1.46801 0.235581 0
1.50618 0.203285 0
1.51506 0.252489 0
1.55323 0.220192 0
1.54435 0.170989 0
1.5914 0.187896 0
1.60029 0.2371 0
1.63846 0.204803 0
1.64734 0.254007 0
1.68551 0.221711 0
1.67663 0.172507 0
1.72368 0.189415 0
1.73831 0.241548 0
1.77074 0.206322 0
1.76185 0.157121 0
1.8091 0.17428 0
1.81866 0.220885 0
1.85608 0.190621 0
1.86521 0.238879 0
1.90289 0.207671 0
1.91264 0.253772 0
1.94955 0.224093 0
1.94067 0.17593 0
1.98705 0.192828 0
1.99572 0.240997 0
2.0329 0.209382 0
2.02422 0.16161 0
2.04166 0.257286 0
0.419739 0.142889 0
0.968291 0.148058 0
0.310035 0.202211 0
0.316128 0.230863 0
0.658501 0.130052 0
0.685107 0.27445 0
1.34462 0.283266 0
1.16528 0.264896 0
1.84735 0.142081 0
0.557687 0.270604 0
1.21234 0.281769 0
1.58252 0.138692 0
0.533563 0.131933 0
0.489835 0.120004 0
1.45024 0.137174 0
2.06974 0.17785 0
2.06113 0.130713 0
0.283221 0.152215 0
0.921299 0.131169 0
0.343836 0.24295 0
0.319203 0.260002 0
0.235529 0.249617 0
0.347029 0.274099 0
0.291856 0.246297 0
0.295938 0.27548 0
0.272836 0.264931 0
0.27461 0.290522 0
0.251228 0.280224 0
0.253903 0.305808 0
0.232795 0.296709 0
0.298805 0.304058 0
1.0801 0.280176 0
1.47689 0.284785 0
1.05315 0.133468 0
1.09741 0.0970974 0
1.82427 0.272867 0
1.2701 0.118911 0
0.816337 0.277695 0
1.40432 0.121101 0
1.04244 0.320388 0
0.959305 0.103028 0
1.60923 0.286151 0
0.601674 0.286775 0
2.00739 0.280923 0
0.342592 0.0992796 0
0.375237 0.105729 0
1.52511 0.298716 0
1.53114 0.119823 0
0.733824 0.287256 0
0.613372 0.114719 0
0.645558 0.0838585 0
2.015 0.115858 0
1.22718 0.0994086 0
1.39166 0.29817 0
1.3564 0.329754 0
0.744134 0.11556 0
0.782853 0.0841771 0
0.826899 0.10047 0
1.17418 0.314034 0
0.520902 0.0906676 0
1.4967 0.329429 0
1.26048 0.0740437 0
0.365514 0.0716355 0
0.229836 0.121666 0
1.57453 0.09137 0
1.61938 0.110761 0
0.481716 0.0753791 0
0.14093 0.2 0
0.130041 0.192847 0
0.131507 0.178608 0
0.117165 0.184444 0
0.120761 0.164701 0
0.1156 0.199931 0
0.100804 0.174136 0
0.102545 0.153034 0
0.12169 0.143342 0
0.104604 0.13008 0
0.0809304 0.161171 0
0.128077 0.121858 0
0.106825 0.102278 0
0.082498 0.188728 0
0.0314738 0.158621 0
2.04625 0.310891 0
2.08475 0.27479 0
2.11394 0.138117 0
0.233149 0.151108 0
0.258724 0.193613 0
0.268522 0.184917 0
1.65397 0.301059 0
0.145962 0.224912 0
0.132503 0.222267 0
0.13746 0.236947 0
0.120111 0.233525 0
0.126593 0.25219 0
0.105294 0.247497 0
0.113343 0.26868 0
0.133997 0.271734 0
0.121622 0.292031 0
0.147069 0.292141 0
0.0896563 0.267464 0
0.0813699 0.243294 0
0.163574 0.276939 0
0.172694 0.298517 0
0.1583 0.321483 0
0.186823 0.322499 0
0.173113 0.348195 0
0.0322087 0.250839 0
0.211694 0.124337 0
0.250615 0.169546 0
0.256243 0.157787 0
0.170796 0.14736 0
0.156755 0.141654 0
0.17187 0.131161 0
0.147502 0.152323 0
0.198129 0.260662 0
0.206368 0.271663 0
0.220945 0.26864 0
0.190489 0.270628 0
0.198813 0.286731 0
0.55749 0.322277 0
0.520166 0.299321 0
0.235199 0.330709 0
0.267109 0.337524 0
0.172324 0.25256 0
0.255974 0.218859 0
0.268327 0.214994 0
0.184197 0.143083 0
0.188721 0.129954 0
0.209694 0.139146 0
0.269223 0.244007 0
0.252374 0.255244 0
0.282229 0.0410487 0
1.21977 0.330016 0
1.25733 0.296346 0
2.09358 0.0890819 0
0.244373 0.240984 0
0.0838116 0.115786 0
0.0797544 0.0817835 0
0.237449 0.264854 0
0.247178 0.146225 0
0.270136 0.2 0
0.28023 0.191334 0
0.263476 0.170737 0
0.371486 0.368728 0
0.396124 0.330051 0
0.440314 0.325693 0
0.357693 0.329668 0
0.476576 0.362035 0
0.29587 0.222914 0
0.307627 0.175476 0
0.079599 0.0406461 0
0.146062 0.252571 0
0.15162 0.125025 0
0.417223 0.294608 0
0.457089 0.286958 0
0.036619 0.338729 0
0.0713014 0.322193 0
0.0735823 0.36704 0
0.041143 0.0722223 0
0.693501 0.32349 0
0.145406 0.175484 0
0.138777 0.164467 0
0.300367 0.0698839 0
0.167025 0.112083 0
0.146978 0.105544 0
0.151909 0.236762 0
0.444611 0.106436 0
0.909355 0.0817561 0
0.282901 0.370713 0
1.61474 0.330739 0
0.578053 0.368179 0
0.824695 0.0487848 0
2.09634 0.3213 0
2.02276 0.364865 0
2.12532 0.363702 0
1.09789 0.328757 0
0.161137 0.260089 0
2.07793 0.225752 0
2.12079 0.240944 0
2.0747 0.0437362 0
1.89402 0.158846 0
1.93154 0.128738 0
1.8848 0.111477 0
1.8384 0.0926484 0
1.87744 0.0655304 0
1.7913 0.0793874 0
1.9712 0.046671 0
1.92502 0.366682 0
1.94563 0.325156 0
1.89941 0.326645 0
1.87499 0.367178 0
1.84989 0.323491 0
1.7997 0.321303 0
1.77183 0.280326 0
1.75031 0.321965 0
1.77491 0.365615 0
2.11727 0.191885 0
0.883187 0.163467 0
1.71449 0.140266 0
1.667 0.125342 0
1.70591 0.0884759 0
1.67732 0.042286 0
1.52278 0.370513 0
1.37512 0.04128 0
1.34848 0.0834574 0
0.776093 0.367587 0
1.125 0.0433013 0
1.15 0.0866019 0
1.07442 0.0496847 0
0.974527 0.0370837 0
1.47464 0.0427918 0
1.44953 0.0873752 0
1.17595 0.362984 0
1.025 0.366699 0
0.925007 0.367031 0
0.95 0.323404 0
0.897321 0.326356 0
0.874563 0.367261 0
0.846552 0.324465 0
1.62923 0.156667 0
1.32319 0.13033 0
1.69342 0.270472 0
1.49568 0.156227 0
1.56237 0.268721 0
1.44 0.319169 0
1.43005 0.267892 0
1.36502 0.152565 0
0.993446 0.294003 0
1.30179 0.321101 0
1.18235 0.127964 0
1.25016 0.2491 0
1.29638 0.266841 0
1.11824 0.247967 0
1.12945 0.294699 0
1.01527 0.165035 0
0.836192 0.147197 0
1.4998 0.0831488 0
1.00655 0.118664 0
0.872896 0.117126 0
0.70523 0.146383 0
1.96013 0.276645 0
0.769406 0.257102 0
0.699552 0.0908977 0
2.1587 0.162257 0
1.97813 0.145326 0
0.646036 0.302035 0
0.799423 0.326603 0
0.515621 0.255445 0
1.72538 0.366474 0
1.97009 0.0998346 0
1.57108 0.313772 0
0.577925 0.14549 0
0.638911 0.256447 0
0.407352 0.0771641 0
0.525103 0.042511 0
0.674231 0.370698 0
1.69802 0.321701 0
0.56947 0.0908728 0
1.75459 0.110239 0
1.80084 0.126127 0
0.673535 0.0431435 0
1.57391 0.0465733 0
2.04571 0.0828469 0
0.10002 0.225545 0
0.0788152 0.21577 0
0.369719 0.224393 0
0.210352 0.308739 0
1.22342 0.0432967 0
[...]
CELL_DATA 1241
VECTORS velocity double
1.0136 -0.00412523 0.0
1.21732 0.0664991 0.0
0.445055 -0.00171148 0.0
0.94419 0.00186425 0.0
1.04424 0.00556387 0.0
1.42286 0.10316 0.0
1.1351 0.000275563 0.0
0.979206 -0.000739027 0.0
0.363163 0.0158263 0.0
1.17962 0.00145542 0.0
1.31247 -0.119983 0.0
1.31627 0.126544 0.0
0.865763 -0.160595 0.0
1.01575 0.00856453 0.0
0.991536 0.00644913 0.0
1.46636 -0.0328889 0.0
0.979928 0.000539793 0.0
0.479612 0.0603817 0.0
1.17285 0.0623756 0.0
1.64766 -0.254205 0.0
1.02138 0.00407064 0.0
1.05945 -0.0663139 0.0
1.03825 -0.000206985 0.0
1.25311 0.904907 0.0
1.07096 -0.00228889 0.0
1.0245 0.00236289 0.0
1.29898 -0.199439 0.0
1.07638 -0.0253991 0.0
1.32175 -0.0836642 0.0
1.46242 -0.0649135 0.0
1.33199 0.0902547 0.0
0.868355 -0.036881 0.0
1.52046 0.00269506 0.0
1.01437 0.00683149 0.0
1.25684 -0.0565425 0.0
1.35889 0.156967 0.0
1.21282 -0.0553602 0.0
1.05041 -0.167832 0.0
0.359562 0.020505 0.0
1.3822 0.141364 0.0
1.76449 -0.179817 0.0
1.41326 -0.045453 0.0
1.05282 -0.237188 0.0
0.50029 0.00656744 0.0
1.39921 -0.167241 0.0
0.496136 -0.00781113 0.0
1.20156 0.0990198 0.0
1.11542 0.0257804 0.0
1.61301 -0.313113 0.0
1.23968 -0.0104588 0.0
1.21534 0.00098964 0.0
1.29083 -0.417497 0.0
0.86952 -0.00364069 0.0
1.40874 -0.0823404 0.0
1.77523 -0.279618 0.0
1.51901 -0.0286843 0.0
1.15114 -0.0399392 0.0
1.12724 -0.000108516 0.0
1.65841 -0.0991008 0.0
1.68774 -0.199377 0.0
1.15855 0.847309 0.0
0.993564 -6.52543e-05 0.0
0.195566 0.035804 0.0
1.02733 0.00656381 0.0
-0.240023 0.0714467 0.0
1.33192 0.227579 0.0
-0.2796 0.0861824 0.0
1.16807 -0.00214533 0.0
0.863379 -0.025872 0.0
0.218169 0.024424 0.0
1.16875 -0.00586744 0.0
0.793423 0.0141535 0.0
1.16764 -0.00542772 0.0
0.791704 -0.0137039 0.0
1.20778 0.0070177 0.0
0.881296 0.157088 0.0
0.942938 0.00728557 0.0
1.63144 -0.0465199 0.0
0.979802 -0.0346041 0.0
0.613553 0.00123154 0.0
1.75194 -0.383014 0.0
1.1597 -0.246733 0.0
0.658639 0.0118618 0.0
1.26146 -0.227373 0.0
1.34581 0.170069 0.0
0.919412 -0.0667453 0.0
1.2069 0.178021 0.0
0.0860474 0.0984427 0.0
1.83884 0.530393 0.0
1.19324 0.00303386 0.0
1.2721 0.0102117 0.0
-0.189662 -0.0110337 0.0
-0.348005 0.078287 0.0
1.44322 -0.0646173 0.0
1.18242 -0.040646 0.0
0.984465 0.00138899 0.0
0.849228 -0.02583 0.0
-0.184465 0.0905964 0.0
1.0185 -0.0113872 0.0
-0.244274 0.112552 0.0
1.08214 -0.0985571 0.0
1.15934 -0.0151553 0.0
0.947564 0.00264537 0.0
1.63916 -0.161267 0.0
1.74235 -0.670641 0.0
1.27316 -0.397902 0.0
1.07131 -0.0619536 0.0
0.49826 -0.0236662 0.0
1.78799 0.649657 0.0
1.22573 0.00318561 0.0
1.48538 -0.109174 0.0
1.23091 0.18966 0.0
0.131612 0.075995 0.0
1.44146 -0.0270014 0.0
1.08015 0.0148768 0.0
1.44262 0.0400892 0.0
1.41411 0.00474579 0.0
1.39196 0.0529609 0.0
1.06648 -0.00213265 0.0
0.255291 0.0396978 0.0
1.1901 0.0421867 0.0
1.51966 0.581805 0.0
1.2516 0.108208 0.0
0.919986 -0.0634837 0.0
0.726815 -0.0993261 0.0
1.20472 0.0860141 0.0
1.44707 -0.0429182 0.0
1.11892 0.0244863 0.0
1.74956 0.501393 0.0
0.549919 -0.0713179 0.0
1.16617 -0.0152686 0.0
0.622363 -0.00176522 0.0
0.88595 0.0638848 0.0
1.6033 -0.0216115 0.0
1.01943 -0.15322 0.0
-0.276055 0.0745678 0.0
0.123166 0.0625468 0.0
1.22674 0.0821967 0.0
1.04872 -0.0252337 0.0
1.66382 -0.761311 0.0
1.50088 0.00357335 0.0
1.03562 0.006033 0.0
1.07835 -0.245055 0.0
1.00501 0.00698576 0.0
1.5235 0.00720257 0.0
0.0223215 0.0311607 0.0
-0.254477 0.0380627 0.0
-0.182766 0.00601678 0.0
0.642408 0.0153475 0.0
0.653649 -0.0117102 0.0
0.555345 -0.101533 0.0
1.03494 -0.00709383 0.0
1.79633 -0.332613 0.0
1.04785 -0.153374 0.0
1.20282 -0.0491844 0.0
1.20456 0.0544229 0.0
0.48166 -0.00109695 0.0
1.64365 0.0738462 0.0
0.857107 0.0303573 0.0
1.24853 -0.0569638 0.0
-0.230504 0.0469704 0.0
1.74047 0.446511 0.0
1.14284 0.00840718 0.0
1.22204 -0.204902 0.0
1.14321 0.0340853 0.0
1.05422 0.130245 0.0
0.981768 -0.000256103 0.0
0.987063 0.109857 0.0
0.566935 -0.00355644 0.0
1.17137 -0.0339827 0.0
0.929269 -0.024659 0.0
1.23594 0.00341406 0.0
1.36547 0.265549 0.0
1.19114 0.0865818 0.0
1.10478 0.00560944 0.0
1.11571 0.00639416 0.0
1.18261 0.198717 0.0
1.12009 -0.287607 0.0
1.11395 0.0121027 0.0
1.16602 -0.225277 0.0
1.11913 0.00903977 0.0
0.363095 0.110228 0.0
1.08768 -0.644368 0.0
0.730584 -0.127093 0.0
1.02534 -0.00856254 0.0
0.765704 -0.0789965 0.0
0.762228 -0.063671 0.0
1.02769 0.00775262 0.0
1.05545 0.0959235 0.0
0.461055 0.0470131 0.0
0.889593 -0.829901 0.0
1.77863 0.345103 0.0
1.02838 -0.00208996 0.0
0.984288 0.00666076 0.0
0.667352 0.0602329 0.0
0.852969 0.0569001 0.0
0.397738 0.0590101 0.0
0.998293 -0.0148092 0.0
1.42771 -0.0322272 0.0
1.44964 0.581448 0.0
1.15458 0.193116 0.0
1.06921 -0.0135383 0.0
1.42685 0.038403 0.0
1.0416 -0.0922792 0.0
1.40113 -0.0914522 0.0
1.436 -0.0446928 0.0
0.483212 0.0244015 0.0
0.662576 0.0125609 0.0
0.900078 -0.0227413 0.0
0.857846 0.0334948 0.0
0.51533 0.0170539 0.0
0.514161 -0.00307808 0.0
1.79011 0.286531 0.0
1.11167 0.0118163 0.0
1.44069 -0.00354988 0.0
1.12133 0.012249 0.0
0.731484 -0.0773556 0.0
1.51123 -0.0906529 0.0
1.1757 -0.0305128 0.0
1.164 -0.0133342 0.0
0.833097 -0.0495833 0.0
1.67135 -0.0705432 0.0
1.01024 0.0553499 0.0
0.996182 0.0113668 0.0
0.958877 -0.0261623 0.0
1.23425 0.00239543 0.0
1.43555 -0.137298 0.0
1.7298 -0.600869 0.0
1.1842 -0.00558291 0.0
1.20308 -0.0111777 0.0
0.990935 0.00014718 0.0
1.06355 -0.132777 0.0
1.02953 -0.0102107 0.0
0.997902 -0.00673141 0.0
1.25791 0.310859 0.0
1.03831 -0.256621 0.0
1.09396 0.171522 0.0
1.31881 0.132381 0.0
0.743581 -0.106677 0.0
0.355088 -0.0454554 0.0
0.958909 0.0159439 0.0
1.4387 0.0570258 0.0
1.42203 0.918329 0.0
0.682938 -0.0851896 0.0
1.15199 -0.0176051 0.0
1.70423 0.140347 0.0
1.09691 -0.89856 0.0
0.868425 -0.177616 0.0
1.14137 -0.0374782 0.0
0.559752 -0.00853103 0.0
1.02623 0.0270767 0.0
0.544011 -0.00982068 0.0
1.03228 -0.00492577 0.0
1.22687 0.00285393 0.0
0.616646 -0.0119147 0.0
0.775954 -0.0336562 0.0
1.09484 -0.285471 0.0
1.32612 -0.104559 0.0
1.22448 0.000560067 0.0
1.02011 -0.00177275 0.0
1.00237 0.00813553 0.0
0.507751 -0.00588713 0.0
1.22798 0.00567364 0.0
0.737038 -0.0260461 0.0
1.12813 0.043444 0.0
0.994901 -0.00974508 0.0
0.566937 0.00328655 0.0
1.24092 -0.109875 0.0
1.22738 -0.170979 0.0
0.789605 -0.0266202 0.0
1.13955 -0.0652491 0.0
0.583148 0.0017678 0.0
0.983428 -0.0155448 0.0
0.116334 0.0673537 0.0
1.20255 0.000175119 0.0
1.19765 -0.0106321 0.0
0.593342 -0.00395799 0.0
0.9425 -0.194213 0.0
0.98783 -0.0155733 0.0
1.43 0.15441 0.0
1.19917 0.000617883 0.0
1.23527 -0.00153096 0.0
1.22356 -0.170782 0.0
1.23636 -0.00296468 0.0
1.23546 0.000778365 0.0
1.17133 -0.016944 0.0
0.934714 -0.114505 0.0
0.835802 0.042868 0.0
1.23594 -0.00509842 0.0
1.23354 -0.000800357 0.0
1.22872 -0.00191223 0.0
0.634938 0.0705001 0.0
0.455413 0.0048956 0.0
0.99841 0.00990439 0.0
0.54392 -0.00752204 0.0
1.23418 -0.0057149 0.0
1.00292 -0.018418 0.0
1.16346 0.00992577 0.0
-0.261358 -0.0268131 0.0
0.966451 -0.0123895 0.0
0.499363 -0.00485918 0.0
1.31887 -0.604719 0.0
1.12258 -0.00701342 0.0
0.970902 -0.0161621 0.0
0.524599 -0.0102614 0.0
1.23432 -0.00331064 0.0
0.868493 0.0407287 0.0
0.531137 0.00168599 0.0
0.993251 -0.0156543 0.0
1.23434 -0.00566658 0.0
1.22752 -0.00266754 0.0
1.23295 -0.00341287 0.0
0.619956 -0.00704012 0.0
0.44369 -5.90294e-05 0.0
1.2314 -0.00643487 0.0
1.14149 -0.073419 0.0
1.20557 -0.0070936 0.0
0.60182 0.010096 0.0
1.18549 -0.00794135 0.0
1.22517 -0.00594637 0.0
1.21227 0.00101254 0.0
1.23649 -0.00735112 0.0
0.465277 -0.00687564 0.0
1.22956 -0.00636497 0.0
1.2313 -0.00673605 0.0
1.22104 -0.00673297 0.0
0.454607 -0.00393921 0.0
1.21775 -0.00321094 0.0
1.18369 -0.00593059 0.0
1.20222 -0.00101499 0.0
1.23378 -0.00746065 0.0
1.1704 -0.157835 0.0
1.12959 0.00158994 0.0
1.23482 -0.00740104 0.0
1.35089 0.668536 0.0
1.21842 -0.00637509 0.0
0.508402 -0.00709016 0.0
1.09777 -0.0219739 0.0
0.562525 0.00819283 0.0
0.595172 -0.00930533 0.0
1.11697 0.00694817 0.0
1.09773 -0.0122254 0.0
1.07154 -0.00763122 0.0
0.533598 -0.00800761 0.0
1.10355 -0.0216415 0.0
1.12379 0.0055375 0.0
1.23192 -0.00776849 0.0
1.0737 0.138965 0.0
1.15505 -0.696806 0.0
0.564069 -0.00466849 0.0
0.522152 -0.00535872 0.0
1.22705 -0.00572522 0.0
1.22876 -0.00813245 0.0
0.620204 -0.0183532 0.0
0.510338 -0.00924709 0.0
1.22422 -0.00494329 0.0
0.992614 0.0164936 0.0
1.16048 0.0113833 0.0
1.15562 -0.00743296 0.0
0.567625 0.00727522 0.0
0.519204 -0.00214878 0.0
1.14341 0.0171693 0.0
0.603754 0.0141438 0.0
0.569724 0.0146097 0.0
1.17285 0.00901846 0.0
0.620418 0.0206658 0.0
0.572328 -0.000766727 0.0
1.21433 -0.00400132 0.0
1.20163 -0.00305007 0.0
0.962249 0.0163474 0.0
1.21031 -0.00165194 0.0
1.18247 -0.00169781 0.0
1.21824 -0.0029704 0.0
0.983111 0.0125913 0.0
1.15193 -0.00237507 0.0
0.608189 0.00579719 0.0
0.501782 0.0139764 0.0
0.551776 0.0142387 0.0
0.466849 -0.00788399 0.0
0.533085 0.000936975 0.0
0.55709 -0.00533078 0.0
0.527893 -0.00283216 0.0
0.640428 -0.0137783 0.0
0.54039 -0.00441006 0.0
0.575041 0.0133819 0.0
0.486475 -0.00757367 0.0
0.576946 0.0154908 0.0
0.493712 0.000217655 0.0
0.67918 0.0213026 0.0
0.578751 0.0100537 0.0
0.572702 -0.0114578 0.0
0.489115 0.00281621 0.0
0.528295 -0.00224239 0.0
0.509992 0.00791042 0.0
0.612487 -0.00973819 0.0
0.532537 -0.000683916 0.0
0.601802 -0.00763795 0.0
0.559713 -0.0123414 0.0
0.545801 0.0067596 0.0
0.523533 0.000126063 0.0
0.538684 0.00420041 0.0
0.475923 -0.0170036 0.0
0.493254 0.0196932 0.0
0.495013 0.000531203 0.0
0.557309 -0.00714569 0.0
0.494399 0.00308198 0.0
0.646492 -0.0210539 0.0
0.492755 0.00632738 0.0
0.463832 0.00564487 0.0
0.504053 0.00103454 0.0
0.482239 -0.00260082 0.0
1.18076 -0.00091618 0.0
1.16143 -0.00637203 0.0
1.22682 -0.00734497 0.0
1.22435 -0.00494992 0.0
1.22754 -0.0051824 0.0
1.11964 -0.00800549 0.0
1.19792 -0.0070849 0.0
1.17915 -0.00684499 0.0
1.18163 0.00484495 0.0
1.15429 -0.00108095 0.0
1.21045 -0.00798944 0.0
1.21315 -0.00874507 0.0
1.17494 -0.00670356 0.0
1.21935 -0.00360395 0.0
1.19529 -0.000154077 0.0
1.22107 -0.00608747 0.0
1.19394 -0.00728136 0.0
1.15215 0.00194987 0.0
1.21734 -0.00618799 0.0
1.22241 -0.00416371 0.0
1.20748 -0.000733022 0.0
1.22105 -0.00348444 0.0
1.21693 -0.00487924 0.0
1.15637 -0.00901201 0.0
1.22025 -0.00172664 0.0
1.19738 -0.00342371 0.0
1.21721 -0.00111326 0.0
1.12077 -0.00156785 0.0
1.19923 -0.00245894 0.0
1.19144 0.00202761 0.0
1.21194 -0.00138476 0.0
1.17557 -0.00157187 0.0
1.21203 -0.00233999 0.0
1.21527 -0.00239078 0.0
1.185 0.00453569 0.0
1.2154 -0.00133207 0.0
1.20795 -0.00415192 0.0
1.20999 0.000748695 0.0
1.15258 -0.00845477 0.0
1.17741 -0.00257974 0.0
1.2131 0.000518563 0.0
1.20533 -0.00343479 0.0
1.20157 0.00232698 0.0
1.19844 0.00374098 0.0
1.15998 -0.0125407 0.0
1.21008 0.00049637 0.0
1.20656 0.000860181 0.0
1.13786 -0.00604414 0.0
1.19317 -0.00438512 0.0
1.12199 0.00307394 0.0
1.17913 -0.00441136 0.0
1.18904 -0.00397566 0.0
1.20109 -0.00366678 0.0
1.20685 -0.00125518 0.0
1.17489 -0.00452223 0.0
1.20475 -0.00348988 0.0
1.20298 -0.00101545 0.0
1.20471 0.000545668 0.0
1.20099 0.00313756 0.0
1.19752 0.00345345 0.0
1.19447 0.00370169 0.0
1.18351 0.00604173 0.0
1.13596 -0.00640752 0.0
1.09393 0.00789179 0.0
1.17817 0.00709347 0.0
1.20064 0.000927497 0.0
0.577258 -0.00616013 0.0
1.18701 0.00600863 0.0
1.14797 0.00759752 0.0
1.1699 0.00792477 0.0
1.19838 0.00306915 0.0
1.16749 0.00758984 0.0
1.17744 0.00565128 0.0
1.17038 0.000260009 0.0
1.18948 0.00546231 0.0
1.17735 -0.000820197 0.0
1.13362 -0.00532529 0.0
1.13328 -0.00816036 0.0
1.15648 -0.00487868 0.0
1.18592 0.00668523 0.0
1.17417 -0.00416785 0.0
1.18427 0.00341823 0.0
1.16777 -0.00404317 0.0
1.18457 -0.0039651 0.0
1.18821 0.00286084 0.0
1.18149 0.0059036 0.0
0.979062 -0.0143785 0.0
1.17227 -0.00362394 0.0
1.17418 0.00781664 0.0
1.14515 0.00912424 0.0
1.1894 -0.0023734 0.0
1.19301 0.000223184 0.0
1.08299 -0.0175863 0.0
1.16459 0.0109361 0.0
1.17822 -0.00357382 0.0
1.14662 0.0149367 0.0
1.18866 -1.67976e-05 0.0
1.14958 0.0176082 0.0
1.16713 -0.00434615 0.0
1.193 -0.00233306 0.0
1.17397 -0.00107284 0.0
1.11937 0.176577 0.0
1.15247 -0.00733081 0.0
1.2234 -0.00969519 0.0
1.17006 0.00950701 0.0
1.17448 0.00121323 0.0
1.15716 -0.0133429 0.0
1.16073 -0.00349492 0.0
1.13919 -0.00298146 0.0
1.16101 -0.00945496 0.0
1.16671 0.00275026 0.0
1.1407 -0.0010992 0.0
1.16172 0.00242711 0.0
1.16325 -0.00672131 0.0
1.1632 -0.00277589 0.0
1.14877 0.0119823 0.0
1.15919 -0.00511421 0.0
0.718765 -0.0204968 0.0
0.972423 0.00526528 0.0
1.14426 0.014244 0.0
1.14683 0.00948372 0.0
1.15399 -0.0075672 0.0
1.14114 0.0118773 0.0
1.14754 0.0143146 0.0
1.14396 -0.00224636 0.0
1.12658 0.000963384 0.0
1.13893 -0.00301746 0.0
1.13248 0.00104579 0.0
1.12075 0.0120552 0.0
1.15708 0.0057499 0.0
1.15144 0.00859589 0.0
0.995444 0.00897814 0.0
1.15256 0.00594694 0.0
1.15701 0.0116554 0.0
1.14995 0.0120925 0.0
1.11415 0.0151604 0.0
1.13583 0.015627 0.0
1.1539 0.0126061 0.0
1.73544 0.181697 0.0
1.11895 -0.0104037 0.0
1.12696 0.0192233 0.0
1.09923 -0.0221052 0.0
1.14931 0.0217634 0.0
1.14727 0.0160824 0.0
1.11268 -0.0127693 0.0
1.14623 0.0218928 0.0
1.22428 -0.00655768 0.0
1.07028 -0.00955763 0.0
1.09908 0.0151958 0.0
1.09624 -0.00678762 0.0
1.30724 0.125987 0.0
1.21963 -0.00541261 0.0
1.08434 -0.002056 0.0
1.15555 -0.00738622 0.0
1.13986 0.0281039 0.0
1.14653 0.0223646 0.0
1.08885 -0.0084187 0.0
1.09346 -0.0271642 0.0
0.981037 -0.0161413 0.0
1.19554 -0.00200884 0.0
1.06635 0.000715658 0.0
1.07591 0.000250364 0.0
1.12037 0.0246694 0.0
1.12045 -0.0265597 0.0
1.02973 0.198339 0.0
0.960971 -0.0161085 0.0
1.13605 0.0337295 0.0
0.441968 -0.16434 0.0
1.38221 0.131359 0.0
1.18137 -0.0520398 0.0
1.06407 0.0102961 0.0
1.06539 0.0257009 0.0
1.0537 0.0363791 0.0
1.22068 -0.00242276 0.0
1.05168 0.0143341 0.0
1.0373 -0.0439828 0.0
1.30216 0.175953 0.0
1.0031 -0.142368 0.0
1.03247 -0.0577178 0.0
1.15145 -0.133252 0.0
1.1496 -0.0131448 0.0
1.09496 -0.0479679 0.0
1.18202 -0.00341809 0.0
0.936039 0.00179563 0.0
1.18097 0.0539754 0.0
1.00754 -0.0138274 0.0
1.2379 -0.101728 0.0
1.21813 -0.00559809 0.0
1.20558 -0.00640924 0.0
1.05473 -0.019911 0.0
1.39837 -0.567472 0.0
1.13225 0.0834163 0.0
0.994357 -0.0202011 0.0
1.13241 0.0668614 0.0
0.956467 0.00151611 0.0
0.758497 0.0280667 0.0
1.08929 0.0449167 0.0
1.32725 -0.160587 0.0
0.932926 -0.0907437 0.0
1.09842 -0.0395168 0.0
0.632624 -0.556518 0.0
1.11092 -0.0279061 0.0
1.11693 -0.00748941 0.0
1.15432 -0.00794153 0.0
1.39116 -0.139336 0.0
1.08001 0.0600219 0.0
1.18204 -0.00261375 0.0
1.04667 -0.0261576 0.0
1.16339 0.0361122 0.0
0.989763 -0.0183737 0.0
1.34994 -0.771789 0.0
1.22975 0.00437865 0.0
1.17962 0.0513759 0.0
1.20406 0.00273675 0.0
1.12712 -0.000857782 0.0
1.1805 -0.056426 0.0
1.06591 0.0201076 0.0
1.21089 0.0813966 0.0
1.12246 -0.00757239 0.0
1.15891 0.044075 0.0
0.954468 0.00184202 0.0
1.15364 0.0110469 0.0
1.1805 -0.531636 0.0
0.660122 -0.0060073 0.0
0.681601 -0.0231047 0.0
0.924443 0.0271124 0.0
1.26622 0.119631 0.0
1.15332 -0.00591684 0.0
1.1822 -0.00467705 0.0
0.607774 0.0101498 0.0
1.20256 -0.00558409 0.0
0.327826 -0.123518 0.0
1.07311 -0.0991703 0.0
0.549415 0.00940042 0.0
0.556069 -0.0106834 0.0
0.899077 0.0402904 0.0
1.15845 -0.00647512 0.0
0.863952 -0.174347 0.0
0.845818 -0.0254612 0.0
1.68893 -0.125103 0.0
0.941763 0.0373791 0.0
1.15305 -0.0105147 0.0
1.15362 -0.0119775 0.0
1.05392 0.00864778 0.0
1.22668 0.00336062 0.0
1.18048 0.00116435 0.0
1.18511 0.348336 0.0
0.62114 0.0172992 0.0
1.02157 0.00182585 0.0
1.36964 -0.0978081 0.0
0.538979 0.00767228 0.0
1.58076 0.560949 0.0
0.933501 -0.0417196 0.0
0.795982 -0.0266497 0.0
1.34141 0.0881339 0.0
0.78157 -0.0538045 0.0
0.956408 -0.00145464 0.0
0.668381 -0.116127 0.0
1.15504 -0.0167905 0.0
0.881021 0.0996646 0.0
1.13493 -0.0143811 0.0
0.65844 -0.00413397 0.0
1.03085 0.00540408 0.0
0.980312 0.136235 0.0
1.4094 -0.0326319 0.0
0.522373 -0.00360572 0.0
0.636176 -0.0245604 0.0
0.918747 0.805446 0.0
1.11053 -0.00087263 0.0
1.0519 0.0115739 0.0
1.39257 0.0136431 0.0
0.603044 -0.0104475 0.0
1.13148 0.0183899 0.0
1.16664 -0.448606 0.0
0.186485 0.0223942 0.0
0.924804 -0.0632309 0.0
1.06999 -0.0832499 0.0
0.735715 0.0239205 0.0
0.518774 0.0178359 0.0
1.64904 0.0364186 0.0
1.15528 -0.00485286 0.0
0.311488 0.0152322 0.0
0.571289 0.0249179 0.0
1.14463 -0.00590418 0.0
1.20441 -0.0059576 0.0
1.00317 -0.0190635 0.0
0.937678 0.0623692 0.0
1.20929 0.172606 0.0
0.6411 0.0107752 0.0
1.208 0.00717902 0.0
0.91922 0.0928307 0.0
1.21037 -0.00911003 0.0
1.38798 -0.59346 0.0
0.510737 0.00132698 0.0
1.45936 -0.129847 0.0
1.10997 0.00853856 0.0
0.948481 -0.014196 0.0
0.621606 0.0903364 0.0
0.991019 0.101831 0.0
0.897477 0.139874 0.0
1.11265 0.0100068 0.0
1.21811 -0.0579293 0.0
1.39921 -0.036934 0.0
0.58803 0.00498445 0.0
0.612033 0.014953 0.0
1.07287 -0.00366773 0.0
0.404543 -0.0728945 0.0
1.04413 0.0365666 0.0
0.493595 0.00338811 0.0
0.961803 -0.0113118 0.0
1.11149 -0.00436282 0.0
0.939466 -0.00929182 0.0
0.559432 -0.00667138 0.0
0.558244 0.0187484 0.0
0.569191 0.00958269 0.0
0.507571 0.00706413 0.0
0.588361 0.0113809 0.0
1.21071 0.6696 0.0
1.36093 0.0696075 0.0
0.96658 -0.00333646 0.0
0.535621 0.00826415 0.0
0.547143 -0.012614 0.0
0.700141 0.0249139 0.0
1.15709 -0.047398 0.0
0.620125 0.00105606 0.0
1.60376 -0.193109 0.0
1.29619 0.0954238 0.0
0.536797 -0.14069 0.0
1.34559 -0.0935806 0.0
1.5268 -0.466861 0.0
1.01123 0.00544811 0.0
1.09159 0.0184989 0.0
1.13956 -0.0121266 0.0
0.959786 0.00373734 0.0
0.837044 -0.689205 0.0
1.02856 -0.00191133 0.0
0.980915 -0.00592382 0.0
1.20492 -0.0133398 0.0
1.1229 -0.0340265 0.0
1.64832 -0.000110729 0.0
-0.120966 0.097713 0.0
0.50621 -0.0687001 0.0
1.33616 0.518186 0.0
1.07239 -0.0119451 0.0
0.609441 -0.0120085 0.0
0.580516 -0.00576284 0.0
0.57517 -0.00616625 0.0
1.228 0.00532908 0.0
0.633514 0.211185 0.0
1.17447 -0.0243338 0.0
0.977469 0.0128228 0.0
0.751032 0.162991 0.0
1.12543 -0.00118887 0.0
0.137906 -0.00965132 0.0
1.19373 0.00534277 0.0
0.56641 0.0207381 0.0
0.564318 -0.0105173 0.0
1.33995 0.0854499 0.0
0.836996 -0.0116343 0.0
1.50626 0.0319564 0.0
0.974789 0.0155856 0.0
0.990498 0.0119024 0.0
0.111276 -0.166267 0.0
0.970989 0.0291461 0.0
1.16858 0.0134812 0.0
1.15184 0.0134787 0.0
0.355834 -0.136111 0.0
1.6163 -0.273238 0.0
1.09521 -0.000786394 0.0
1.28742 0.194938 0.0
0.589935 -0.0142231 0.0
0.556474 -0.00790419 0.0
1.12385 -0.0164858 0.0
0.530426 0.0896464 0.0
1.12436 -0.0270172 0.0
0.809839 0.0217342 0.0
0.935774 -0.00821479 0.0
1.1307 0.0121845 0.0
0.994705 -0.00282638 0.0
0.201884 -0.0209015 0.0
1.15042 -0.013649 0.0
0.309741 0.0604683 0.0
1.01 0.00015833 0.0
0.999424 -0.00364628 0.0
0.576846 -0.0152968 0.0
1.07337 -0.00922579 0.0
1.17447 -0.024546 0.0
0.947255 0.00132172 0.0
0.992534 -0.0138633 0.0
1.2002 -0.964608 0.0
1.13217 0.0222138 0.0
1.69269 0.486957 0.0
0.55001 -0.0167571 0.0
0.539079 0.00656894 0.0
1.16632 0.00662846 0.0
1.22856 -0.00665053 0.0
1.11451 -0.00839014 0.0
1.12314 -0.00156787 0.0
1.18067 0.00665918 0.0
1.131 0.00625533 0.0
1.2199 -0.00960048 0.0
1.15073 0.0256639 0.0
-0.198492 0.0188096 0.0
1.10402 0.0148599 0.0
-0.0254406 0.0286388 0.0
0.66492 -0.0257174 0.0
1.2044 -0.177405 0.0
1.14888 -0.012747 0.0
1.36843 -0.137914 0.0
1.64629 -0.502439 0.0
0.314249 -0.0181113 0.0
1.21402 -0.00906472 0.0
1.12901 0.272026 0.0
1.35149 -0.0982129 0.0
1.07137 0.305701 0.0
1.70947 0.0869207 0.0
0.975229 -0.542437 0.0
1.37208 0.132339 0.0
1.12212 -0.0164469 0.0
1.28962 -0.480968 0.0
-0.0874388 -0.10803 0.0
1.06098 -0.000152466 0.0
1.31864 -0.394862 0.0
0.492288 -0.00490408 0.0
1.41867 -0.149982 0.0
1.68465 0.198504 0.0
1.09142 0.0137574 0.0
0.388097 0.0157757 0.0
0.71703 0.00183829 0.0
0.267865 -0.228441 0.0
0.95717 0.0459369 0.0
-0.118768 -0.0298966 0.0
1.14641 -0.162344 0.0
1.49643 0.143672 0.0
0.537958 0.00904563 0.0
1.22933 -0.0686994 0.0
0.964171 0.000844941 0.0
1.21904 0.0045269 0.0
0.435143 -0.615499 0.0
1.22864 0.264385 0.0
0.729131 -0.162516 0.0
0.191332 -0.330916 0.0
0.517447 0.160694 0.0
1.3026 0.238506 0.0
0.597878 0.152167 0.0
0.969857 -0.0130714 0.0
1.14156 -0.0168453 0.0
1.08282 0.0110704 0.0
1.0769 0.00872947 0.0
0.572442 0.00726266 0.0
0.0235412 0.082 0.0
1.3083 0.299796 0.0
0.469176 -0.00216996 0.0
1.10139 0.0104348 0.0
0.264443 0.216294 0.0
0.972408 -0.00589889 0.0