# vtk DataFile Version 3.0
Malha 2D com triângulos e temperatura
ASCII
DATASET UNSTRUCTURED_GRID

POINTS 688 double
0 0 0
2.2 0 0
2.2 0.41 0
0 0.41 0
0.25 0.2 0
0.05 0 0
0.1 0 0
0.15 0 0
0.2 0 0
0.25 0 0
0.3 0 0
0.35 0 0
0.4 0 0
0.45 0 0
0.5 0 0
0.55 0 0
0.6 0 0
0.65 0 0
0.7 0 0
0.75 0 0
0.8 0 0
0.85 0 0
0.9 0 0
0.95 0 0
1 0 0
1.05 0 0
1.1 0 0
1.15 0 0
1.2 0 0
1.25 0 0
1.3 0 0
1.35 0 0
1.4 0 0
1.45 0 0
1.5 0 0
1.55 0 0
1.6 0 0
1.65 0 0
1.7 0 0
1.75 0 0
1.8 0 0
1.85 0 0
1.9 0 0
1.95 0 0
2 0 0
2.05 0 0
2.1 0 0
2.15 0 0
2.2 0.0455556 0
2.2 0.0911111 0
2.2 0.136667 0
2.2 0.182222 0
2.2 0.227778 0
2.2 0.273333 0
2.2 0.318889 0
2.2 0.364444 0
2.15 0.41 0
2.1 0.41 0
2.05 0.41 0
2 0.41 0
1.95 0.41 0
1.9 0.41 0
1.85 0.41 0
1.8 0.41 0
1.75 0.41 0
1.7 0.41 0
1.65 0.41 0
1.6 0.41 0
1.55 0.41 0
1.5 0.41 0
1.45 0.41 0
1.4 0.41 0
1.35 0.41 0
1.3 0.41 0
1.25 0.41 0
1.2 0.41 0
1.15 0.41 0
1.1 0.41 0
1.05 0.41 0
1 0.41 0
0.95 0.41 0
0.9 0.41 0
0.85 0.41 0
0.8 0.41 0
0.75 0.41 0
0.7 0.41 0
0.65 0.41 0
0.6 0.41 0
0.55 0.41 0
0.5 0.41 0
0.45 0.41 0
0.4 0.41 0
0.35 0.41 0
0.3 0.41 0
0.25 0.41 0
0.2 0.41 0
0.15 0.41 0
0.1 0.41 0
0.05 0.41 0
0 0.364444 0
0 0.318889 0
0 0.273333 0
0 0.227778 0
0 0.182222 0
0 0.136667 0
0 0.0911111 0
0 0.0455556 0
0.248831 0.210749 0
0.245379 0.220994 0
0.239805 0.230259 0
0.232369 0.238108 0
0.22342 0.244176 0
0.213376 0.248177 0
0.202707 0.249927 0
0.191911 0.249341 0
0.181493 0.246449 0
0.171941 0.241384 0
0.1637 0.234385 0
0.157157 0.225778 0
0.152617 0.215965 0
0.150293 0.205406 0
0.150293 0.194594 0
0.152617 0.184035 0
0.157157 0.174222 0
0.1637 0.165615 0
0.171941 0.158616 0
0.181493 0.153551 0
0.191911 0.150659 0
0.202707 0.150073 0
0.213376 0.151823 0
0.22342 0.155824 0
0.232369 0.161892 0
0.239805 0.169741 0
0.245379 0.179006 0
0.248831 0.189251 0
0.421316 0.36725 0
0.426705 0.0366526 0
2.16065 0.209201 0
1.52286 0.0417259 0
0.626017 0.37111 0
1.3257 0.0414552 0
1.02471 0.0432237 0
1.17293 0.0421053 0
0.82501 0.36678 0
1.6757 0.370064 0
1.91628 0.0358195 0
1.82501 0.366432 0
0.723429 0.0421499 0
1.425 0.366699 0
1.97461 0.366224 0
1.12167 0.370137 0
0.975 0.368691 0
0.877672 0.0412714 0
1.27686 0.36884 0
1.725 0.0433013 0
0.579174 0.0416211 0
0.325589 0.363848 0
0.319111 0.0378151 0
0.0394523 0.296111 0
0.0329929 0.11602 0
0.142108 0.187428 0
1.57555 0.364352 0
2.02603 0.0412138 0
0.725007 0.36763 0
0.528647 0.366595 0
1.62699 0.0400272 0
1.82929 0.0421255 0
1.425 0.0418325 0
2.07474 0.364233 0
0.125 0.0433013 0
0.161245 0.155011 0
0.225 0.366699 0
0.210027 0.258536 0
2.16034 0.115449 0
0.0371627 0.204103 0
0.142311 0.212698 0
0.220283 0.0418538 0
0.221965 0.145099 0
0.196802 0.141016 0
0.119851 0.373394 0
0.161112 0.245979 0
0.184892 0.258024 0
2.16342 0.30039 0
2.12627 0.047699 0
0.183325 0.0412617 0
0.152317 0.0762976 0
0.203864 0.0745802 0
0.234384 0.0774346 0
0.215969 0.103585 0
0.245651 0.104548 0
0.186562 0.100216 0
0.268213 0.0793029 0
0.272149 0.109155 0
0.242885 0.159377 0
0.253088 0.128261 0
0.278718 0.13214 0
0.295917 0.115997 0
0.301728 0.138858 0
0.321266 0.12205 0
0.324642 0.151724 0
0.255978 0.181139 0
0.350123 0.129049 0
0.357539 0.159885 0
0.333541 0.181416 0
0.36451 0.19182 0
0.250573 0.230419 0
0.391277 0.169722 0
0.339477 0.212308 0
0.39836 0.205386 0
0.427326 0.18117 0
0.258724 0.206387 0
0.434392 0.219501 0
0.466446 0.193907 0
0.472865 0.243064 0
0.507358 0.209962 0
0.40073 0.238916 0
0.499135 0.1652 0
0.5419 0.179224 0
0.550176 0.22496 0
0.585844 0.194129 0
0.594095 0.240176 0
0.630701 0.209517 0
0.621901 0.162424 0
0.667731 0.178095 0
0.676485 0.226008 0
0.713906 0.194492 0
0.722681 0.242872 0
0.760442 0.211047 0
0.751547 0.162356 0
0.798298 0.179 0
0.807147 0.227866 0
0.845136 0.195775 0
0.854541 0.243285 0
0.892163 0.212344 0
0.902461 0.257947 0
0.93935 0.228684 0
0.930236 0.180167 0
0.977229 0.197066 0
0.986264 0.245777 0
1.02423 0.213991 0
1.0331 0.263172 0
1.07123 0.230975 0
1.06234 0.181814 0
1.10938 0.198721 0
1.09996 0.151012 0
1.14691 0.168161 0
1.15631 0.215921 0
1.19446 0.183678 0
1.20343 0.232645 0
1.2416 0.200322 0
1.23272 0.151117 0
1.2798 0.167954 0
1.28868 0.217167 0
1.32685 0.184862 0
1.33573 0.234064 0
1.3739 0.201768 0
0.789327 0.130094 0
1.38279 0.25097 0
1.42096 0.218674 0
1.41207 0.169471 0
1.45912 0.186378 0
1.46801 0.235581 0
1.50618 0.203285 0
1.51506 0.252489 0
1.55323 0.220192 0
1.54435 0.170989 0
1.5914 0.187896 0
1.60029 0.2371 0
1.63846 0.204803 0
1.64734 0.254007 0
1.68551 0.221711 0
1.67663 0.172507 0
1.72368 0.189415 0
1.73831 0.241548 0
1.77074 0.206322 0
1.76185 0.157121 0
1.8091 0.17428 0
1.81866 0.220885 0
1.85608 0.190621 0
1.86521 0.238879 0
1.90289 0.207671 0
1.91264 0.253772 0
1.94955 0.224093 0
1.94067 0.17593 0
1.98705 0.192828 0
1.99572 0.240997 0
2.0329 0.209382 0
2.02422 0.16161 0
2.04166 0.257286 0
0.419739 0.142889 0
0.968291 0.148058 0
0.310035 0.202211 0
0.316128 0.230863 0
0.658501 0.130052 0
0.685107 0.27445 0
1.34462 0.283266 0
1.16528 0.264896 0
1.84735 0.142081 0
0.557687 0.270604 0
1.21234 0.281769 0
1.58252 0.138692 0
0.533563 0.131933 0
0.489835 0.120004 0
1.45024 0.137174 0
2.06974 0.17785 0
2.06113 0.130713 0
0.283221 0.152215 0
0.921299 0.131169 0
0.343836 0.24295 0
0.319203 0.260002 0
0.235529 0.249617 0
0.347029 0.274099 0
0.291856 0.246297 0
0.295938 0.27548 0
0.272836 0.264931 0
0.27461 0.290522 0
0.251228 0.280224 0
0.253903 0.305808 0
0.232795 0.296709 0
0.298805 0.304058 0
1.0801 0.280176 0
1.47689 0.284785 0
1.05315 0.133468 0
1.09741 0.0970974 0
1.82427 0.272867 0
1.2701 0.118911 0
0.816337 0.277695 0
1.40432 0.121101 0
1.04244 0.320388 0
0.959305 0.103028 0
1.60923 0.286151 0
0.601674 0.286775 0
2.00739 0.280923 0
0.342592 0.0992796 0
0.375237 0.105729 0
1.52511 0.298716 0
1.53114 0.119823 0
0.733824 0.287256 0
0.613372 0.114719 0
0.645558 0.0838585 0
2.015 0.115858 0
1.22718 0.0994086 0
1.39166 0.29817 0
1.3564 0.329754 0
0.744134 0.11556 0
0.782853 0.0841771 0
0.826899 0.10047 0
1.17418 0.314034 0
0.520902 0.0906676 0
1.4967 0.329429 0
1.26048 0.0740437 0
0.365514 0.0716355 0
0.229836 0.121666 0
1.57453 0.09137 0
1.61938 0.110761 0
0.481716 0.0753791 0
0.14093 0.2 0
0.130041 0.192847 0
0.131507 0.178608 0
0.117165 0.184444 0
0.120761 0.164701 0
0.1156 0.199931 0
0.100804 0.174136 0
0.102545 0.153034 0
0.12169 0.143342 0
0.104604 0.13008 0
0.0809304 0.161171 0
0.128077 0.121858 0
0.106825 0.102278 0
0.082498 0.188728 0
0.0314738 0.158621 0
2.04625 0.310891 0
2.08475 0.27479 0
2.11394 0.138117 0
0.233149 0.151108 0
0.258724 0.193613 0
0.268522 0.184917 0
1.65397 0.301059 0
0.145962 0.224912 0
0.132503 0.222267 0
0.13746 0.236947 0
0.120111 0.233525 0
0.126593 0.25219 0
0.105294 0.247497 0
0.113343 0.26868 0
0.133997 0.271734 0
0.121622 0.292031 0
0.147069 0.292141 0
0.0896563 0.267464 0
0.0813699 0.243294 0
0.163574 0.276939 0
0.172694 0.298517 0
0.1583 0.321483 0
0.186823 0.322499 0
0.173113 0.348195 0
0.0322087 0.250839 0
0.211694 0.124337 0
0.250615 0.169546 0
0.256243 0.157787 0
0.170796 0.14736 0
0.156755 0.141654 0
0.17187 0.131161 0
0.147502 0.152323 0
0.198129 0.260662 0
0.206368 0.271663 0
0.220945 0.26864 0
0.190489 0.270628 0
0.198813 0.286731 0
0.55749 0.322277 0
0.520166 0.299321 0
0.235199 0.330709 0
0.267109 0.337524 0
0.172324 0.25256 0
0.255974 0.218859 0
0.268327 0.214994 0
0.184197 0.143083 0
0.188721 0.129954 0
0.209694 0.139146 0
0.269223 0.244007 0
0.252374 0.255244 0
0.282229 0.0410487 0
1.21977 0.330016 0
1.25733 0.296346 0
2.09358 0.0890819 0
0.244373 0.240984 0
0.0838116 0.115786 0
0.0797544 0.0817835 0
0.237449 0.264854 0
0.247178 0.146225 0
0.270136 0.2 0
0.28023 0.191334 0
0.263476 0.170737 0
0.371486 0.368728 0
0.396124 0.330051 0
0.440314 0.325693 0
0.357693 0.329668 0
0.476576 0.362035 0
0.29587 0.222914 0
0.307627 0.175476 0
0.079599 0.0406461 0
0.146062 0.252571 0
0.15162 0.125025 0
0.417223 0.294608 0
0.457089 0.286958 0
0.036619 0.338729 0
0.0713014 0.322193 0
0.0735823 0.36704 0
0.041143 0.0722223 0
0.693501 0.32349 0
0.145406 0.175484 0
0.138777 0.164467 0
0.300367 0.0698839 0
0.167025 0.112083 0
0.146978 0.105544 0
0.151909 0.236762 0
0.444611 0.106436 0
0.909355 0.0817561 0
0.282901 0.370713 0
1.61474 0.330739 0
0.578053 0.368179 0
0.824695 0.0487848 0
2.09634 0.3213 0
2.02276 0.364865 0
2.12532 0.363702 0
1.09789 0.328757 0
0.161137 0.260089 0
2.07793 0.225752 0
2.12079 0.240944 0
2.0747 0.0437362 0
1.89402 0.158846 0
1.93154 0.128738 0
1.8848 0.111477 0
1.8384 0.0926484 0
1.87744 0.0655304 0
1.7913 0.0793874 0
1.9712 0.046671 0
1.92502 0.366682 0
1.94563 0.325156 0
1.89941 0.326645 0
1.87499 0.367178 0
1.84989 0.323491 0
1.7997 0.321303 0
1.77183 0.280326 0
1.75031 0.321965 0
1.77491 0.365615 0
2.11727 0.191885 0
0.883187 0.163467 0
1.71449 0.140266 0
1.667 0.125342 0
1.70591 0.0884759 0
1.67732 0.042286 0
1.52278 0.370513 0
1.37512 0.04128 0
1.34848 0.0834574 0
0.776093 0.367587 0
1.125 0.0433013 0
1.15 0.0866019 0
1.07442 0.0496847 0
0.974527 0.0370837 0
1.47464 0.0427918 0
1.44953 0.0873752 0
1.17595 0.362984 0
1.025 0.366699 0
0.925007 0.367031 0
0.95 0.323404 0
0.897321 0.326356 0
0.874563 0.367261 0
0.846552 0.324465 0
1.62923 0.156667 0
1.32319 0.13033 0
1.69342 0.270472 0
1.49568 0.156227 0
1.56237 0.268721 0
1.44 0.319169 0
1.43005 0.267892 0
1.36502 0.152565 0
0.993446 0.294003 0
1.30179 0.321101 0
1.18235 0.127964 0
1.25016 0.2491 0
1.29638 0.266841 0
1.11824 0.247967 0
1.12945 0.294699 0
1.01527 0.165035 0
0.836192 0.147197 0
1.4998 0.0831488 0
1.00655 0.118664 0
0.872896 0.117126 0
0.70523 0.146383 0
1.96013 0.276645 0
0.769406 0.257102 0
0.699552 0.0908977 0
2.1587 0.162257 0
1.97813 0.145326 0
0.646036 0.302035 0
0.799423 0.326603 0
0.515621 0.255445 0
1.72538 0.366474 0
1.97009 0.0998346 0
1.57108 0.313772 0
0.577925 0.14549 0
0.638911 0.256447 0
0.407352 0.0771641 0
0.525103 0.042511 0
0.674231 0.370698 0
1.69802 0.321701 0
0.56947 0.0908728 0
1.75459 0.110239 0
1.80084 0.126127 0
0.673535 0.0431435 0
1.57391 0.0465733 0
2.04571 0.0828469 0
0.10002 0.225545 0
0.0788152 0.21577 0
0.369719 0.224393 0
0.210352 0.308739 0
1.22342 0.0432967 0
[...]
CELL_DATA 1241
VECTORS velocity double
1.30451 -0.0134608 0.0
1.07649 0.0220616 0.0
0.763794 -0.00196951 0.0
1.17279 0.141256 0.0
1.0321 0.000751698 0.0
1.35776 0.0573349 0.0
1.09258 0.00665325 0.0
1.23822 -0.0525635 0.0
0.55373 -0.0948258 0.0
1.02893 0.0138876 0.0
1.31166 -0.123862 0.0
1.31504 0.131805 0.0
0.858771 -0.186128 0.0
1.03364 -0.00175601 0.0
1.02394 -0.00063823 0.0
1.35711 0.0263273 0.0
1.02122 -0.00117768 0.0
0.534841 0.086463 0.0
1.05991 0.0149427 0.0
1.58339 -0.196921 0.0
0.9878 -0.00683412 0.0
1.09767 -0.0445389 0.0
1.0322 -0.000150506 0.0
1.23355 0.894413 0.0
1.15729 0.123164 0.0
0.986661 -0.00902713 0.0
1.27911 -0.182445 0.0
1.10848 -0.0112732 0.0
1.32176 -0.0850619 0.0
1.36569 -0.00515176 0.0
1.33084 0.0925122 0.0
0.90547 -0.0153522 0.0
1.33202 -0.0659674 0.0
1.03215 -0.0020706 0.0
1.07678 -0.0219364 0.0
1.31865 0.120158 0.0
1.05911 -0.0207225 0.0
1.04361 -0.183258 0.0
0.390262 0.0421902 0.0
1.33938 0.0990808 0.0
1.70599 -0.0780544 0.0
1.4367 0.0771441 0.0
1.03599 -0.25925 0.0
0.80056 0.000381867 0.0
1.35708 -0.127963 0.0
0.801863 0.000410056 0.0
1.06992 0.0289327 0.0
1.04329 -0.00108606 0.0
1.55859 -0.267075 0.0
1.27844 -0.178957 0.0
0.968288 -0.00627318 0.0
1.26894 -0.432719 0.0
0.981784 -0.090469 0.0
1.1937 -0.0708304 0.0
1.73188 -0.194266 0.0
1.31865 -0.0854568 0.0
1.04944 -0.00590106 0.0
1.10538 -0.000978664 0.0
1.62297 0.019629 0.0
1.60289 -0.111942 0.0
1.14093 0.83808 0.0
1.21535 -0.0180917 0.0
0.50751 -0.201071 0.0
0.99541 -0.00892712 0.0
-0.0257357 -0.081237 0.0
1.32592 0.234478 0.0
-0.0148381 0.0899539 0.0
1.00951 -0.017805 0.0
0.886047 -0.0119842 0.0
0.428619 0.210647 0.0
1.01717 -0.019601 0.0
0.902044 -0.119095 0.0
1.02194 -0.0184093 0.0
0.912518 -0.250561 0.0
0.98723 -0.0148601 0.0
0.867752 0.190046 0.0
1.01607 0.00480048 0.0
1.57448 0.0919962 0.0
0.970867 -0.0227879 0.0
0.830987 -0.00280495 0.0
1.70696 -0.33175 0.0
1.14222 -0.259852 0.0
0.859665 0.00345719 0.0
1.24226 -0.216914 0.0
1.34216 0.175423 0.0
0.98887 -0.0615295 0.0
1.07708 0.0945386 0.0
0.459206 0.220001 0.0
1.805 0.488031 0.0
0.987246 -0.0120636 0.0
1.3305 -0.128573 0.0
-0.050465 0.0913277 0.0
0.148178 -0.00396509 0.0
1.22928 -0.0725048 0.0
1.06063 -0.00408189 0.0
1.25254 -0.0507103 0.0
1.00404 -0.219544 0.0
0.198106 -0.13054 0.0
1.03374 -0.0034482 0.0
0.126773 0.105481 0.0
1.08056 -0.102794 0.0
1.04809 -0.0123128 0.0
1.01414 0.000102683 0.0
1.64455 -0.0801925 0.0
1.71873 -0.646515 0.0
1.25396 -0.41672 0.0
1.11016 -0.260606 0.0
0.666082 0.171793 0.0
1.76921 0.623171 0.0
0.97443 -0.0100944 0.0
1.23017 -0.127604 0.0
1.08172 0.120058 0.0
0.424839 -0.21158 0.0
1.44119 -0.0277999 0.0
1.08534 0.0241247 0.0
1.44215 0.0405475 0.0
1.29588 0.0536343 0.0
1.30524 -0.00212828 0.0
1.04839 0.000133984 0.0
0.51962 0.221923 0.0
1.25715 -0.04567 0.0
1.48722 0.577487 0.0
1.07952 0.0349744 0.0
0.995746 -0.0522683 0.0
0.848602 -0.29526 0.0
1.07125 0.0208974 0.0
1.25187 -0.0709437 0.0
1.04613 -0.000967404 0.0
1.74149 0.474319 0.0
0.616331 -0.0803145 0.0
1.05137 -0.0110813 0.0
0.826799 -0.0043541 0.0
0.970546 0.0523606 0.0
1.43388 0.0707977 0.0
1.01711 -0.0862263 0.0
-0.0923575 -0.0135719 0.0
0.408999 -0.199334 0.0
1.08266 0.0333985 0.0
1.03736 -0.0265834 0.0
1.63838 -0.743072 0.0
1.5003 0.00349425 0.0
1.04438 -0.000169552 0.0
1.06326 -0.265266 0.0
1.00183 0.0233478 0.0
1.49768 0.159508 0.0
0.33751 0.200484 0.0
-0.166707 -0.00920554 0.0
0.128885 0.140363 0.0
0.861202 0.00334265 0.0
0.860122 -0.0087088 0.0
0.594206 -0.118668 0.0
1.03238 -0.0186524 0.0
1.75304 -0.267837 0.0
1.01958 -0.0965406 0.0
1.20189 -0.0491879 0.0
1.20257 0.055067 0.0
0.763021 -0.000340561 0.0
1.47532 -0.0167264 0.0
0.975294 0.210205 0.0
1.07863 -0.0242282 0.0
0.168459 -0.0893542 0.0
1.68982 0.405009 0.0
1.0632 -0.00067024 0.0
1.21738 -0.216014 0.0
1.05156 0.00245135 0.0
1.04895 0.142061 0.0
1.04127 -0.00345579 0.0
0.978562 0.108376 0.0
0.832152 -0.00161171 0.0
1.06219 -0.00126179 0.0
0.935586 -0.0101877 0.0
0.981431 -0.0158793 0.0
1.3255 0.254787 0.0
1.07105 0.0341045 0.0
1.05244 -0.00197826 0.0
1.05485 -0.00206961 0.0
1.17366 0.187513 0.0
1.10338 -0.311885 0.0
1.06039 -0.00129182 0.0
1.15498 -0.233463 0.0
1.05491 -0.00126956 0.0
0.574643 -0.100167 0.0
1.072 -0.643165 0.0
0.787916 -0.134285 0.0
1.0353 -0.00226454 0.0
0.830843 -0.0906555 0.0
0.846746 -0.0661545 0.0
1.03837 0.00149011 0.0
1.05406 0.102323 0.0
0.540952 0.0562251 0.0
0.875805 -0.822605 0.0
1.71348 0.277554 0.0
1.05265 0.0106227 0.0
1.01503 0.00331486 0.0
0.760658 0.0681121 0.0
0.92855 0.24067 0.0
0.413047 0.080822 0.0
1.07052 -0.0169271 0.0
1.42748 -0.0322244 0.0
1.41955 0.581583 0.0
1.14685 0.210206 0.0
1.07816 -0.0225947 0.0
1.42653 0.0383452 0.0
1.04797 -0.280119 0.0
1.17452 -0.0678194 0.0
1.43543 -0.0458672 0.0
0.68231 0.164828 0.0
0.831119 -0.00285727 0.0
0.905453 -0.0172577 0.0
0.852653 0.0220152 0.0
0.79879 0.00173103 0.0
0.78924 -0.000526981 0.0
1.71509 0.207195 0.0
1.06177 -0.00147232 0.0
1.40415 -0.165953 0.0
1.06273 -0.000520283 0.0
0.979548 -0.0330993 0.0
1.26692 -0.13415 0.0
1.06278 -0.000790793 0.0
1.04452 -0.0136665 0.0
0.829443 -0.0510195 0.0
1.54234 0.0458307 0.0
1.05831 0.0360499 0.0
1.08111 0.159158 0.0
0.95322 -0.0279932 0.0
0.981767 -0.0199638 0.0
1.17698 -0.112163 0.0
1.69983 -0.572311 0.0
1.07093 -0.0123645 0.0
1.05856 -0.0108662 0.0
1.04328 -0.00225143 0.0
1.06196 -0.142256 0.0
1.03957 -0.00178162 0.0
1.02887 -0.000416892 0.0
1.26044 0.29601 0.0
1.02417 -0.28288 0.0
1.04199 0.0780423 0.0
1.10761 0.0667033 0.0
0.964356 -0.0460732 0.0
0.39081 -0.055586 0.0
1.00922 0.000755801 0.0
1.43807 0.0577924 0.0
1.39964 0.905524 0.0
0.676591 -0.109278 0.0
1.05196 -0.00882571 0.0
1.61167 0.0150942 0.0
1.07912 -0.890446 0.0
0.853716 -0.204309 0.0
1.04345 -0.00603318 0.0
0.829504 -0.00148381 0.0
1.07029 0.014459 0.0
0.824481 -0.00267897 0.0
1.04363 -0.00162447 0.0
0.989965 -0.0225023 0.0
0.880067 -0.0534782 0.0
0.846056 -0.0128298 0.0
1.08262 -0.309697 0.0
1.09884 -0.0434289 0.0
0.992752 -0.0251197 0.0
1.0155 -0.00314271 0.0
0.977391 -0.00613939 0.0
0.789242 -0.00212847 0.0
0.984963 -0.0117814 0.0
0.854025 -0.00968574 0.0
1.04436 0.00378167 0.0
1.05605 -0.00885319 0.0
0.830236 0.00140216 0.0
1.07693 -0.0405887 0.0
1.09584 -0.205131 0.0
0.873037 -0.00978849 0.0
1.06019 -0.0128467 0.0
0.858406 -0.0211637 0.0
1.0233 -0.00580895 0.0
0.521486 0.204485 0.0
0.964221 -0.0245372 0.0
1.05948 -0.0090735 0.0
0.779591 -0.0825121 0.0
0.962799 -0.155378 0.0
1.02654 -0.00513126 0.0
1.1692 0.10625 0.0
1.00198 -0.020566 0.0
0.992616 -0.0328189 0.0
1.22152 -0.179243 0.0
1.00606 -0.0446824 0.0
0.977194 -0.0289554 0.0
1.06348 1.47212e-05 0.0
1.01824 -0.0386696 0.0
0.833397 0.0448146 0.0
1.02587 -0.0499326 0.0
0.980837 -0.0347197 0.0
0.980455 -0.0493559 0.0
0.755245 0.0624717 0.0
0.763751 -0.000971749 0.0
1.01364 0.00393982 0.0
0.748088 -0.0427217 0.0
1.03719 -0.034527 0.0
1.0312 -0.00574276 0.0
0.994084 -0.0138492 0.0
0.256065 0.0124724 0.0
1.00119 -0.00953177 0.0
0.804823 -0.00103934 0.0
1.29972 -0.590146 0.0
1.06912 -0.0122416 0.0
1.01538 -0.00751961 0.0
0.817275 -0.00300852 0.0
1.01491 -0.0449871 0.0
0.879217 0.0211146 0.0
0.639858 -0.0469599 0.0
1.02492 -0.00625755 0.0
1.03693 -0.0515482 0.0
0.991675 -0.0568129 0.0
0.998501 -0.0357951 0.0
0.770276 0.103813 0.0
0.762933 -0.00179368 0.0
1.05391 -0.0498444 0.0
1.05978 -0.0170429 0.0
1.06812 -0.071272 0.0
0.662305 0.001108 0.0
1.08089 -0.0635047 0.0
1.02087 -0.032282 0.0
0.969932 -0.0189807 0.0
1.0542 -0.0316471 0.0
0.772705 -0.00329858 0.0
1.06176 -0.0418474 0.0
1.0448 -0.0327536 0.0
1.06867 -0.0359169 0.0
0.768019 -0.00300955 0.0
1.01439 -0.0290554 0.0
1.07936 -0.0394108 0.0
0.966163 -0.0523354 0.0
1.0581 -0.0263849 0.0
1.06131 -0.132344 0.0
1.10325 -0.0142143 0.0
1.06298 -0.0229759 0.0
1.32895 0.666692 0.0
1.06905 -0.0267097 0.0
0.810373 -0.00224695 0.0
1.04284 -8.80299e-05 0.0
0.650352 0.0904298 0.0
0.833372 -0.000347612 0.0
1.06414 5.18413e-06 0.0
1.04767 0.00066218 0.0
1.03902 0.00154214 0.0
0.791412 -0.00018935 0.0
1.04624 -0.000172097 0.0
1.06436 -8.73269e-05 0.0
1.06385 -0.0183179 0.0
1.04655 0.0576671 0.0
1.13302 -0.682782 0.0
0.832954 -0.000156319 0.0
0.793235 6.38399e-05 0.0
1.06589 -0.0147934 0.0
1.06353 -0.010723 0.0
0.840901 -0.00868431 0.0
0.767793 -0.0023717 0.0
1.06552 -0.011809 0.0
1.02722 0.00228237 0.0
1.06394 -0.000172362 0.0
1.06183 -0.000961491 0.0
0.836079 0.00281767 0.0
0.797554 0.000224303 0.0
1.06236 2.84954e-05 0.0
0.848438 0.00424361 0.0
0.812032 0.00381423 0.0
1.06452 -0.00014707 0.0
0.851478 0.00845519 0.0
0.817186 0.00218863 0.0
1.06638 -0.00796354 0.0
1.06658 -0.00664114 0.0
1.03084 0.00461213 0.0
1.06636 -0.00348976 0.0
1.06566 -0.00444663 0.0
1.06591 -0.0040573 0.0
1.0415 -0.00155163 0.0
1.06702 -0.00553749 0.0
0.844416 0.00547113 0.0
0.776321 0.00440219 0.0
0.830949 0.00171301 0.0
0.790107 -0.00440869 0.0
0.834762 -0.00285555 0.0
0.806866 0.000536345 0.0
0.791991 -0.00137445 0.0
0.835232 -0.00141348 0.0
0.850212 -0.00140082 0.0
0.835729 0.00457693 0.0
0.781636 -0.0030027 0.0
0.803127 0.00496778 0.0
0.812726 -0.00145159 0.0
0.79427 0.00476704 0.0
0.789906 0.000383871 0.0
0.790668 -0.000505322 0.0
0.793273 -0.000818271 0.0
0.796212 0.000202163 0.0
0.787707 0.00195361 0.0
0.833293 0.000660879 0.0
0.847286 0.000351611 0.0
0.793288 -0.00029619 0.0
0.799321 -0.00649439 0.0
0.804274 0.00162472 0.0
0.7933 0.000176884 0.0
0.83242 -0.00156024 0.0
0.735638 0.00118099 0.0
0.780407 0.00518141 0.0
0.785554 0.00083215 0.0
0.793531 -3.47437e-05 0.0
0.776012 0.000633869 0.0
0.793705 -0.0069958 0.0
0.786985 -9.95458e-05 0.0
0.796285 0.00175705 0.0
0.815949 -0.00365389 0.0
0.806075 -0.00124984 0.0
1.06531 -0.00371675 0.0
1.06177 -0.00147842 0.0
1.06366 -0.00866647 0.0
1.06515 -0.00566146 0.0
1.06526 -0.00686074 0.0
1.05688 -0.00348154 0.0
1.0621 -0.00368218 0.0
1.06082 -0.00431248 0.0
1.0637 -0.00155121 0.0
1.06382 -0.00345662 0.0
1.06305 -0.00607335 0.0
1.06215 -0.00711275 0.0
1.06043 -0.00413932 0.0
1.06478 -0.00322903 0.0
1.06615 -0.00282178 0.0
1.06382 -0.00494129 0.0
1.06217 -0.00316262 0.0
1.06313 -0.00249707 0.0
1.06385 -0.00433864 0.0
1.06473 -0.00365056 0.0
1.06611 -0.00301375 0.0
1.06606 -0.00488804 0.0
1.06667 -0.00976291 0.0
1.06043 -0.00245282 0.0
1.06551 -0.00283884 0.0
1.06471 -0.00164494 0.0
1.06548 -0.00259458 0.0
1.05309 -0.000612754 0.0
1.066 -0.00539534 0.0
1.06567 -0.0019865 0.0
1.06572 -0.00210324 0.0
1.06103 -0.000767538 0.0
1.06539 -0.00214504 0.0
1.06549 -0.0022338 0.0
1.06396 -0.00193754 0.0
1.06583 -0.00207886 0.0
1.06353 -0.00253385 0.0
1.06519 -0.00232898 0.0
1.06191 -0.00154747 0.0
1.06079 -0.00122247 0.0
1.06531 -0.00241815 0.0
1.06384 -0.00213205 0.0
1.06482 -0.00197981 0.0
1.06481 -0.00204625 0.0
1.06388 -0.000613141 0.0
1.0658 -0.00181091 0.0
1.06572 -0.00150436 0.0
1.05928 -0.000582186 0.0
1.0644 -0.00200421 0.0
1.05303 0.00144429 0.0
1.06307 -0.00118556 0.0
1.06476 -0.00119211 0.0
1.0654 -0.001797 0.0
1.06612 -0.0012795 0.0
1.06295 -0.000930662 0.0
1.06551 -0.00177799 0.0
1.06577 -0.00105387 0.0
1.06597 -0.000819051 0.0
1.06526 -0.001169 0.0
1.0651 -0.00116255 0.0
1.06557 -0.000226101 0.0
1.06464 -0.000181202 0.0
1.06117 -0.00147199 0.0
1.05564 0.00181612 0.0
1.0652 -0.000647104 0.0
1.06587 -0.000784599 0.0
0.833426 0.000524699 0.0
1.06486 -0.000487846 0.0
1.06078 -0.000641569 0.0
1.06312 -0.000438257 0.0
1.06582 -0.00067708 0.0
1.0632 -0.000535985 0.0
1.06505 -0.000587774 0.0
1.06495 -0.000717898 0.0
1.06572 -0.000317114 0.0
1.06417 -0.000359358 0.0
1.05817 -0.000318252 0.0
1.05987 -0.00310164 0.0
1.06172 -0.000384085 0.0
1.06563 -0.000160256 0.0
1.06366 -0.000618017 0.0
1.06514 -0.000242883 0.0
1.06334 -0.00083677 0.0
1.06436 -0.00111113 0.0
1.06518 -0.000341225 0.0
1.06522 -0.000391398 0.0
1.00929 -0.00980886 0.0
1.06419 -0.000436065 0.0
1.06509 -0.000588324 0.0
1.0601 -2.77581e-05 0.0
1.065 -0.000663277 0.0
1.0651 -0.000418 0.0
1.04147 0.000319379 0.0
1.0642 -0.000428577 0.0
1.06379 -0.000695444 0.0
1.06118 0.000473431 0.0
1.06491 -0.000510779 0.0
1.06086 -0.000324863 0.0
1.06457 -0.000552696 0.0
1.06514 -0.000713603 0.0
1.06424 -0.000292585 0.0
1.11098 0.176345 0.0
1.061 -0.00127221 0.0
1.05445 -0.0193696 0.0
1.06502 -0.000254668 0.0
1.06507 -0.000539475 0.0
1.06194 -0.00130719 0.0
1.0623 -8.62023e-05 0.0
1.0573 9.55917e-05 0.0
1.06279 -0.000707494 0.0
1.06502 -0.000609174 0.0
1.05743 0.00151592 0.0
1.0647 -0.000494784 0.0
1.06426 -0.000868971 0.0
1.06243 -9.3102e-05 0.0
1.06388 4.65991e-06 0.0
1.06467 -0.000773657 0.0
0.82254 -0.00664504 0.0
1.03818 -0.00430097 0.0
1.06364 0.000202724 0.0
1.06422 -7.8936e-06 0.0
1.0643 -0.0008591 0.0
1.06064 -0.000151686 0.0
1.06284 0.000760653 0.0
1.06397 -0.000139366 0.0
1.06415 4.42066e-05 0.0
1.0639 -8.66998e-05 0.0
1.06417 -7.73023e-05 0.0
1.064 -6.06821e-05 0.0
1.06431 -0.00012496 0.0
1.06429 -4.03543e-05 0.0
1.04674 -0.00150205 0.0
1.06427 -0.000187448 0.0
1.06394 -0.00056855 0.0
1.06333 -0.000482518 0.0
1.06382 -9.71768e-06 0.0
1.05905 0.000635693 0.0
1.0638 -8.1819e-05 0.0
1.66674 0.049701 0.0
1.0635 -9.48191e-07 0.0
1.06343 1.97103e-05 0.0
1.06297 -0.000668781 0.0
1.05764 -0.000472962 0.0
1.06255 0.000106522 0.0
1.06351 0.00015695 0.0
1.06047 0.000214169 0.0
1.02638 -0.0320674 0.0
1.08073 -0.0233393 0.0
1.04418 0.00134376 0.0
1.06399 -0.000237503 0.0
1.10105 0.0539875 0.0
1.00058 -0.0771753 0.0
1.04814 0.000696306 0.0
1.08161 -0.0294088 0.0
1.06256 0.000844596 0.0
1.05706 -0.000106518 0.0
1.06379 -0.000212726 0.0
1.0627 -0.00116762 0.0
1.01616 -0.00842292 0.0
1.00452 -0.0224986 0.0
1.0635 -0.000150173 0.0
1.06397 -0.000190403 0.0
1.0631 0.000530926 0.0
1.04815 -0.0009071 0.0
1.04428 0.187061 0.0
1.00773 -0.00936368 0.0
1.06235 0.00141107 0.0
0.720201 -0.126574 0.0
1.14627 0.0854618 0.0
1.06259 -0.00755539 0.0
1.06344 0.000215698 0.0
1.06238 0.00171279 0.0
1.06091 0.00282905 0.0
1.00649 -0.0283866 0.0
1.06235 0.000554391 0.0
1.05776 -0.0061734 0.0
1.2975 0.184792 0.0
1.01548 -0.0714186 0.0
1.0555 -0.00879175 0.0
1.05817 -0.0532045 0.0
1.05627 -0.0057718 0.0
1.06061 -0.00544366 0.0
0.995829 -0.078187 0.0
1.052 -9.52813e-07 0.0
1.0639 0.00795865 0.0
1.06022 -0.00156562 0.0
1.07614 -0.0328203 0.0
1.01161 -0.0778757 0.0
1.04609 -0.0765665 0.0
1.06239 -0.001163 0.0
1.37376 -0.572916 0.0
1.06211 0.0162747 0.0
1.05825 -0.00203457 0.0
1.06344 0.0114063 0.0
1.05588 -0.00017713 0.0
0.84613 0.00730238 0.0
1.06195 0.00495419 0.0
1.32443 -0.167209 0.0
1.02595 -0.0284928 0.0
1.06162 -0.00385167 0.0
0.624568 -0.552834 0.0
1.04264 -0.00169434 0.0
1.05584 -0.00484973 0.0
1.05845 -0.00275631 0.0
1.14493 -0.100661 0.0
1.06003 0.00794138 0.0
0.975635 -0.0606054 0.0
1.06144 -0.00165936 0.0
1.0627 0.00187356 0.0
1.02768 -0.00613359 0.0
1.32775 -0.766933 0.0
0.983745 -0.00662265 0.0
1.06258 0.00542004 0.0
1.01275 0.00978221 0.0
1.10168 0.0269639 0.0
1.06254 -0.0105352 0.0
1.12491 0.18223 0.0
1.08898 0.0459179 0.0
1.07355 -0.015947 0.0
1.06224 0.00383526 0.0
1.27998 -0.0827619 0.0
0.98706 -0.011388 0.0
1.16583 -0.535815 0.0
0.835834 0.00147462 0.0
0.835771 -0.00642786 0.0
1.04937 0.0043634 0.0
1.08484 0.0463909 0.0
1.0764 -0.0203978 0.0
1.06899 -0.00976505 0.0
0.791806 -0.000305801 0.0
1.06987 -0.016029 0.0
0.753981 -0.0955322 0.0
1.04872 -0.0278058 0.0
0.854563 0.00195442 0.0
0.850437 -0.00921393 0.0
1.04312 0.00625119 0.0
1.05921 -0.00231519 0.0
0.851898 -0.202572 0.0
1.01463 -0.00769612 0.0
1.57648 -0.0313365 0.0
0.917875 0.0309467 0.0
0.992767 -0.110201 0.0
1.03163 -0.143294 0.0
1.0484 -0.00152164 0.0
0.977934 -0.00455307 0.0
1.03219 0.0166417 0.0
1.17498 0.350703 0.0
0.780987 0.000581711 0.0
1.02935 -0.000724923 0.0
1.14441 -0.0576932 0.0
0.805789 0.00133815 0.0
1.54414 0.550387 0.0
1.04816 -0.0078007 0.0
1.02966 -0.00626594 0.0
1.17426 0.0788947 0.0
1.01967 -0.0092069 0.0
1.01197 0.000916879 0.0
0.776396 -0.275639 0.0
1.06349 -0.00073627 0.0
0.957806 0.0807625 0.0
1.0632 -2.66797e-05 0.0
1.0033 0.000666914 0.0
1.02407 -0.00203279 0.0
1.03069 0.0424054 0.0
1.34366 -0.202552 0.0
0.790863 -0.0011956 0.0
0.986807 -0.000279815 0.0
0.904871 0.795988 0.0
1.14126 -0.030917 0.0
1.02066 0.0245723 0.0
1.28371 -0.0271424 0.0
0.781998 -0.00151875 0.0
1.05903 0.00111589 0.0
1.15323 -0.454213 0.0
0.199851 0.0283185 0.0
1.04267 -0.0110727 0.0
1.05118 -0.0209382 0.0
0.807465 0.00598921 0.0
0.942403 0.020385 0.0
1.4577 -0.0705374 0.0
1.06861 -0.00750251 0.0
0.308106 0.0169006 0.0
0.970089 0.0179338 0.0
1.05769 0.00126916 0.0
1.07168 -0.0212745 0.0
1.03262 -0.00621384 0.0
1.04355 0.0140579 0.0
1.20217 0.15621 0.0
0.832615 -0.000204006 0.0
0.989119 -0.0163605 0.0
1.03551 0.0196137 0.0
1.04773 -0.0207547 0.0
1.36537 -0.597532 0.0
0.818432 -0.00347244 0.0
1.20337 -0.129553 0.0
1.05447 -0.000821968 0.0
1.10795 -0.00842374 0.0
0.700723 0.0974528 0.0
1.04112 0.0305102 0.0
0.89053 0.167986 0.0
1.05914 0.000772794 0.0
1.06175 -0.0183647 0.0
1.39777 -0.0387738 0.0
0.827711 0.00370081 0.0
0.840491 0.00796626 0.0
1.15525 0.0168236 0.0
0.419299 -0.0895606 0.0
1.00755 0.0352484 0.0
0.779505 0.00110856 0.0
1.12732 -0.00192908 0.0
1.14125 -0.0428304 0.0
1.0397 -0.00407678 0.0
0.834271 -0.00346047 0.0
0.828218 0.00312077 0.0
0.841297 0.0057424 0.0
0.791889 -0.00288762 0.0
0.846639 0.00161279 0.0
1.19356 0.664706 0.0
1.29691 0.0237471 0.0
1.02067 -0.0029973 0.0
0.851279 0.00235353 0.0
0.856796 -0.00425107 0.0
0.83023 0.00255893 0.0
1.04141 -0.0144258 0.0
0.832202 -0.00332514 0.0
1.61646 -0.131222 0.0
1.13566 0.0744976 0.0
0.885493 -0.0498007 0.0
1.12095 -0.0461508 0.0
1.49265 -0.45289 0.0
1.03325 -0.0021566 0.0
0.98422 -0.00981607 0.0
1.06322 -0.00015929 0.0
1.03599 -0.00330342 0.0
0.824967 -0.684776 0.0
1.0343 -0.00244289 0.0
1.02882 -0.00483475 0.0
1.05507 -0.0129572 0.0
1.04339 -0.00341453 0.0
1.43506 -0.10091 0.0
0.478257 0.154982 0.0
0.911791 -0.0320156 0.0
1.31705 0.521414 0.0
1.10158 -0.0455196 0.0
0.850524 -0.00447493 0.0
0.836984 -0.00311048 0.0
0.834481 -0.0027555 0.0
0.985554 -0.0101428 0.0
0.877686 0.141034 0.0
1.06194 6.05565e-05 0.0
1.03381 0.00394455 0.0
0.911097 0.168557 0.0
1.06434 -0.005054 0.0
0.794098 -0.00174645 0.0
0.986675 -0.0112779 0.0
0.825674 0.00460898 0.0
0.832194 -0.00534685 0.0
1.32963 0.247365 0.0
1.03526 0.0296374 0.0
1.44161 0.193862 0.0
1.03634 0.00140234 0.0
1.04327 -0.00117438 0.0
0.738619 -0.0209058 0.0
0.952339 -0.00486341 0.0
1.06436 0.000420248 0.0
1.06266 -0.00014436 0.0
0.595633 -0.237749 0.0
1.62555 -0.221154 0.0
1.04964 -0.00115078 0.0
1.10809 0.132779 0.0
0.840909 -0.00543248 0.0
0.82551 -0.00254279 0.0
1.10962 -0.195099 0.0
0.932251 0.0557818 0.0
1.06267 -0.000322576 0.0
0.85809 0.00109334 0.0
1.00691 -0.00197311 0.0
1.05936 -0.000620999 0.0
1.0501 -0.00549353 0.0
0.214642 -0.0282498 0.0
1.05583 -0.00637139 0.0
0.500294 -0.0796921 0.0
1.04549 -0.00174566 0.0
1.26632 -0.0370255 0.0
0.836554 -0.00259444 0.0
1.04104 -4.21651e-05 0.0
1.06243 -6.08764e-05 0.0
1.02847 0.000212666 0.0
1.02701 -0.00467908 0.0
1.18003 -0.953835 0.0
1.05755 0.00227922 0.0
1.64536 0.459448 0.0
0.825044 0.0191301 0.0
0.855279 0.0100306 0.0
1.06365 -0.00112335 0.0
1.06258 -0.012448 0.0
1.05539 2.79222e-05 0.0
1.05463 -3.73166e-07 0.0
1.06536 -0.0012267 0.0
1.0623 -0.00205864 0.0
1.05638 -0.0165281 0.0
1.05646 -0.000314862 0.0
0.581388 0.041151 0.0
1.04775 0.000273086 0.0
0.660701 0.047613 0.0
0.856091 -0.0124687 0.0
1.08189 -0.191677 0.0
1.03789 -0.0139785 0.0
1.12898 -0.0845971 0.0
1.60648 -0.47928 0.0
0.310944 -0.0201559 0.0
1.04314 -0.0227992 0.0
1.10738 0.29901 0.0
1.12766 -0.0534984 0.0
1.0611 0.304946 0.0
1.59738 -0.0508453 0.0
0.962497 -0.54154 0.0
1.36962 0.136233 0.0
1.18498 0.0339975 0.0
1.27397 -0.491186 0.0
0.46552 -0.117269 0.0
1.04427 -0.00185281 0.0
1.29562 -0.40852 0.0
0.809228 -0.00807008 0.0
1.36986 -0.105418 0.0
1.58053 0.113445 0.0
1.05629 0.00204156 0.0
0.702619 -0.001126 0.0
0.709915 0.000334809 0.0
0.264927 -0.227246 0.0
0.934613 0.0300679 0.0
0.524499 -0.0690069 0.0
1.05182 -0.121429 0.0
1.22463 0.135202 0.0
0.781481 0.00452177 0.0
1.06931 -0.0182487 0.0
1.28599 -0.0691821 0.0
0.987503 -0.00900055 0.0
0.429158 -0.609506 0.0
1.22047 0.267378 0.0
0.919865 -0.096203 0.0
0.188986 -0.327664 0.0
0.898737 0.0737519 0.0
1.2938 0.250529 0.0
0.906614 0.109218 0.0
1.01495 -0.0065065 0.0