# vtk DataFile Version 3.0
Malha 2D com triângulos e temperatura
ASCII
DATASET UNSTRUCTURED_GRID

POINTS 688 double
0 0 0
2.2 0 0
2.2 0.41 0
0 0.41 0
0.25 0.2 0
0.05 0 0
0.1 0 0
0.15 0 0
0.2 0 0
0.25 0 0
0.3 0 0
0.35 0 0
0.4 0 0
0.45 0 0
0.5 0 0
0.55 0 0
0.6 0 0
0.65 0 0
0.7 0 0
0.75 0 0
0.8 0 0
0.85 0 0
0.9 0 0
0.95 0 0
1 0 0
1.05 0 0
1.1 0 0
1.15 0 0
1.2 0 0
1.25 0 0
1.3 0 0
1.35 0 0
1.4 0 0
1.45 0 0
1.5 0 0
1.55 0 0
1.6 0 0
1.65 0 0
1.7 0 0
1.75 0 0
1.8 0 0
1.85 0 0
1.9 0 0
1.95 0 0
2 0 0
2.05 0 0
2.1 0 0
2.15 0 0
2.2 0.0455556 0
2.2 0.0911111 0
2.2 0.136667 0
2.2 0.182222 0
2.2 0.227778 0
2.2 0.273333 0
2.2 0.318889 0
2.2 0.364444 0
2.15 0.41 0
2.1 0.41 0
2.05 0.41 0
2 0.41 0
1.95 0.41 0
1.9 0.41 0
1.85 0.41 0
1.8 0.41 0
1.75 0.41 0
1.7 0.41 0
1.65 0.41 0
1.6 0.41 0
1.55 0.41 0
1.5 0.41 0
1.45 0.41 0
1.4 0.41 0
1.35 0.41 0
1.3 0.41 0
1.25 0.41 0
1.2 0.41 0
1.15 0.41 0
1.1 0.41 0
1.05 0.41 0
1 0.41 0
0.95 0.41 0
0.9 0.41 0
0.85 0.41 0
0.8 0.41 0
0.75 0.41 0
0.7 0.41 0
0.65 0.41 0
0.6 0.41 0
0.55 0.41 0
0.5 0.41 0
0.45 0.41 0
0.4 0.41 0
0.35 0.41 0
0.3 0.41 0
0.25 0.41 0
0.2 0.41 0
0.15 0.41 0
0.1 0.41 0
0.05 0.41 0
0 0.364444 0
0 0.318889 0
0 0.273333 0
0 0.227778 0
0 0.182222 0
0 0.136667 0
0 0.0911111 0
0 0.0455556 0
0.248831 0.210749 0
0.245379 0.220994 0
0.239805 0.230259 0
0.232369 0.238108 0
0.22342 0.244176 0
0.213376 0.248177 0
0.202707 0.249927 0
0.191911 0.249341 0
0.181493 0.246449 0
0.171941 0.241384 0
0.1637 0.234385 0
0.157157 0.225778 0
0.152617 0.215965 0
0.150293 0.205406 0
0.150293 0.194594 0
0.152617 0.184035 0
0.157157 0.174222 0
0.1637 0.165615 0
0.171941 0.158616 0
0.181493 0.153551 0
0.191911 0.150659 0
0.202707 0.150073 0
0.213376 0.151823 0
0.22342 0.155824 0
0.232369 0.161892 0
0.239805 0.169741 0
0.245379 0.179006 0
0.248831 0.189251 0
0.421316 0.36725 0
0.426705 0.0366526 0
2.16065 0.209201 0
1.52286 0.0417259 0
0.626017 0.37111 0
1.3257 0.0414552 0
1.02471 0.0432237 0
1.17293 0.0421053 0
0.82501 0.36678 0
1.6757 0.370064 0
1.91628 0.0358195 0
1.82501 0.366432 0
0.723429 0.0421499 0
1.425 0.366699 0
1.97461 0.366224 0
1.12167 0.370137 0
0.975 0.368691 0
0.877672 0.0412714 0
1.27686 0.36884 0
1.725 0.0433013 0
0.579174 0.0416211 0
0.325589 0.363848 0
0.319111 0.0378151 0
0.0394523 0.296111 0
0.0329929 0.11602 0
0.142108 0.187428 0
1.57555 0.364352 0
2.02603 0.0412138 0
0.725007 0.36763 0
0.528647 0.366595 0
1.62699 0.0400272 0
1.82929 0.0421255 0
1.425 0.0418325 0
2.07474 0.364233 0
0.125 0.0433013 0
0.161245 0.155011 0
0.225 0.366699 0
0.210027 0.258536 0
2.16034 0.115449 0
0.0371627 0.204103 0
0.142311 0.212698 0
0.220283 0.0418538 0
0.221965 0.145099 0
0.196802 0.141016 0
0.119851 0.373394 0
0.161112 0.245979 0
0.184892 0.258024 0
2.16342 0.30039 0
2.12627 0.047699 0
0.183325 0.0412617 0
0.152317 0.0762976 0
0.203864 0.0745802 0
0.234384 0.0774346 0
0.215969 0.103585 0
0.245651 0.104548 0
0.186562 0.100216 0
0.268213 0.0793029 0
0.272149 0.109155 0
0.242885 0.159377 0
0.253088 0.128261 0
0.278718 0.13214 0
0.295917 0.115997 0
0.301728 0.138858 0
0.321266 0.12205 0
0.324642 0.151724 0
0.255978 0.181139 0
0.350123 0.129049 0
0.357539 0.159885 0
0.333541 0.181416 0
0.36451 0.19182 0
0.250573 0.230419 0
0.391277 0.169722 0
0.339477 0.212308 0
0.39836 0.205386 0
0.427326 0.18117 0
0.258724 0.206387 0
0.434392 0.219501 0
0.466446 0.193907 0
0.472865 0.243064 0
0.507358 0.209962 0
0.40073 0.238916 0
0.499135 0.1652 0
0.5419 0.179224 0
0.550176 0.22496 0
0.585844 0.194129 0
0.594095 0.240176 0
0.630701 0.209517 0
0.621901 0.162424 0
0.667731 0.178095 0
0.676485 0.226008 0
0.713906 0.194492 0
0.722681 0.242872 0
0.760442 0.211047 0
0.751547 0.162356 0
0.798298 0.179 0
0.807147 0.227866 0
0.845136 0.195775 0
0.854541 0.243285 0
0.892163 0.212344 0
0.902461 0.257947 0
0.93935 0.228684 0
0.930236 0.180167 0
0.977229 0.197066 0
0.986264 0.245777 0
1.02423 0.213991 0
1.0331 0.263172 0
1.07123 0.230975 0
1.06234 0.181814 0
1.10938 0.198721 0
1.09996 0.151012 0
1.14691 0.168161 0
1.15631 0.215921 0
1.19446 0.183678 0
1.20343 0.232645 0
1.2416 0.200322 0
1.23272 0.151117 0
1.2798 0.167954 0
1.28868 0.217167 0
1.32685 0.184862 0
1.33573 0.234064 0
1.3739 0.201768 0
0.789327 0.130094 0
1.38279 0.25097 0
1.42096 0.218674 0
1.41207 0.169471 0
1.45912 0.186378 0
1.46801 0.235581 0
1.50618 0.203285 0
1.51506 0.252489 0
1.55323 0.220192 0
1.54435 0.170989 0
1.5914 0.187896 0
1.60029 0.2371 0
1.63846 0.204803 0
1.64734 0.254007 0
1.68551 0.221711 0
1.67663 0.172507 0
1.72368 0.189415 0
1.73831 0.241548 0
1.77074 0.206322 0
1.76185 0.157121 0
1.8091 0.17428 0
1.81866 0.220885 0
1.85608 0.190621 0
1.86521 0.238879 0
1.90289 0.207671 0
1.91264 0.253772 0
1.94955 0.224093 0
1.94067 0.17593 0
1.98705 0.192828 0
1.99572 0.240997 0
2.0329 0.209382 0
2.02422 0.16161 0
2.04166 0.257286 0
0.419739 0.142889 0
0.968291 0.148058 0
0.310035 0.202211 0
0.316128 0.230863 0
0.658501 0.130052 0
0.685107 0.27445 0
1.34462 0.283266 0
1.16528 0.264896 0
1.84735 0.142081 0
0.557687 0.270604 0
1.21234 0.281769 0
1.58252 0.138692 0
0.533563 0.131933 0
0.489835 0.120004 0
1.45024 0.137174 0
2.06974 0.17785 0
2.06113 0.130713 0
0.283221 0.152215 0
0.921299 0.131169 0
0.343836 0.24295 0
0.319203 0.260002 0
0.235529 0.249617 0
0.347029 0.274099 0
0.291856 0.246297 0
0.295938 0.27548 0
0.272836 0.264931 0
0.27461 0.290522 0
0.251228 0.280224 0
0.253903 0.305808 0
0.232795 0.296709 0
0.298805 0.304058 0
1.0801 0.280176 0
1.47689 0.284785 0
1.05315 0.133468 0
1.09741 0.0970974 0
1.82427 0.272867 0
1.2701 0.118911 0
0.816337 0.277695 0
1.40432 0.121101 0
1.04244 0.320388 0
0.959305 0.103028 0
1.60923 0.286151 0
0.601674 0.286775 0
2.00739 0.280923 0
0.342592 0.0992796 0
0.375237 0.105729 0
1.52511 0.298716 0
1.53114 0.119823 0
0.733824 0.287256 0
0.613372 0.114719 0
0.645558 0.0838585 0
2.015 0.115858 0
1.22718 0.0994086 0
1.39166 0.29817 0
1.3564 0.329754 0
0.744134 0.11556 0
0.782853 0.0841771 0
0.826899 0.10047 0
1.17418 0.314034 0
0.520902 0.0906676 0
1.4967 0.329429 0
1.26048 0.0740437 0
0.365514 0.0716355 0
0.229836 0.121666 0
1.57453 0.09137 0
1.61938 0.110761 0
0.481716 0.0753791 0
0.14093 0.2 0
0.130041 0.192847 0
0.131507 0.178608 0
0.117165 0.184444 0
0.120761 0.164701 0
0.1156 0.199931 0
0.100804 0.174136 0
0.102545 0.153034 0
0.12169 0.143342 0
0.104604 0.13008 0
0.0809304 0.161171 0
0.128077 0.121858 0
0.106825 0.102278 0
0.082498 0.188728 0
0.0314738 0.158621 0
2.04625 0.310891 0
2.08475 0.27479 0
2.11394 0.138117 0
0.233149 0.151108 0
0.258724 0.193613 0
0.268522 0.184917 0
1.65397 0.301059 0
0.145962 0.224912 0
0.132503 0.222267 0
0.13746 0.236947 0
0.120111 0.233525 0
0.126593 0.25219 0
0.105294 0.247497 0
0.113343 0.26868 0
0.133997 0.271734 0
0.121622 0.292031 0
0.147069 0.292141 0
0.0896563 0.267464 0
0.0813699 0.243294 0
0.163574 0.276939 0
0.172694 0.298517 0
0.1583 0.321483 0
0.186823 0.322499 0
0.173113 0.348195 0
0.0322087 0.250839 0
0.211694 0.124337 0
0.250615 0.169546 0
0.256243 0.157787 0
0.170796 0.14736 0
0.156755 0.141654 0
0.17187 0.131161 0
0.147502 0.152323 0
0.198129 0.260662 0
0.206368 0.271663 0
0.220945 0.26864 0
0.190489 0.270628 0
0.198813 0.286731 0
0.55749 0.322277 0
0.520166 0.299321 0
0.235199 0.330709 0
0.267109 0.337524 0
0.172324 0.25256 0
0.255974 0.218859 0
0.268327 0.214994 0
0.184197 0.143083 0
0.188721 0.129954 0
0.209694 0.139146 0
0.269223 0.244007 0
0.252374 0.255244 0
0.282229 0.0410487 0
1.21977 0.330016 0
1.25733 0.296346 0
2.09358 0.0890819 0
0.244373 0.240984 0
0.0838116 0.115786 0
0.0797544 0.0817835 0
0.237449 0.264854 0
0.247178 0.146225 0
0.270136 0.2 0
0.28023 0.191334 0
0.263476 0.170737 0
0.371486 0.368728 0
0.396124 0.330051 0
0.440314 0.325693 0
0.357693 0.329668 0
0.476576 0.362035 0
0.29587 0.222914 0
0.307627 0.175476 0
0.079599 0.0406461 0
0.146062 0.252571 0
0.15162 0.125025 0
0.417223 0.294608 0
0.457089 0.286958 0
0.036619 0.338729 0
0.0713014 0.322193 0
0.0735823 0.36704 0
0.041143 0.0722223 0
0.693501 0.32349 0
0.145406 0.175484 0
0.138777 0.164467 0
0.300367 0.0698839 0
0.167025 0.112083 0
0.146978 0.105544 0
0.151909 0.236762 0
0.444611 0.106436 0
0.909355 0.0817561 0
0.282901 0.370713 0
1.61474 0.330739 0
0.578053 0.368179 0
0.824695 0.0487848 0
2.09634 0.3213 0
2.02276 0.364865 0
2.12532 0.363702 0
1.09789 0.328757 0
0.161137 0.260089 0
2.07793 0.225752 0
2.12079 0.240944 0
2.0747 0.0437362 0
1.89402 0.158846 0
1.93154 0.128738 0
1.8848 0.111477 0
1.8384 0.0926484 0
1.87744 0.0655304 0
1.7913 0.0793874 0
1.9712 0.046671 0
1.92502 0.366682 0
1.94563 0.325156 0
1.89941 0.326645 0
1.87499 0.367178 0
1.84989 0.323491 0
1.7997 0.321303 0
1.77183 0.280326 0
1.75031 0.321965 0
1.77491 0.365615 0
2.11727 0.191885 0
0.883187 0.163467 0
1.71449 0.140266 0
1.667 0.125342 0
1.70591 0.0884759 0
1.67732 0.042286 0
1.52278 0.370513 0
1.37512 0.04128 0
1.34848 0.0834574 0
0.776093 0.367587 0
1.125 0.0433013 0
1.15 0.0866019 0
1.07442 0.0496847 0
0.974527 0.0370837 0
1.47464 0.0427918 0
1.44953 0.0873752 0
1.17595 0.362984 0
1.025 0.366699 0
0.925007 0.367031 0
0.95 0.323404 0
0.897321 0.326356 0
0.874563 0.367261 0
0.846552 0.324465 0
1.62923 0.156667 0
1.32319 0.13033 0
1.69342 0.270472 0
1.49568 0.156227 0
1.56237 0.268721 0
1.44 0.319169 0
1.43005 0.267892 0
1.36502 0.152565 0
0.993446 0.294003 0
1.30179 0.321101 0
1.18235 0.127964 0
1.25016 0.2491 0
1.29638 0.266841 0
1.11824 0.247967 0
1.12945 0.294699 0
1.01527 0.165035 0
0.836192 0.147197 0
1.4998 0.0831488 0
1.00655 0.118664 0
0.872896 0.117126 0
0.70523 0.146383 0
1.96013 0.276645 0
0.769406 0.257102 0
0.699552 0.0908977 0
2.1587 0.162257 0
1.97813 0.145326 0
0.646036 0.302035 0
0.799423 0.326603 0
0.515621 0.255445 0
1.72538 0.366474 0
1.97009 0.0998346 0
1.57108 0.313772 0
0.577925 0.14549 0
0.638911 0.256447 0
0.407352 0.0771641 0
0.525103 0.042511 0
0.674231 0.370698 0
1.69802 0.321701 0
0.56947 0.0908728 0
1.75459 0.110239 0
1.80084 0.126127 0
0.673535 0.0431435 0
1.57391 0.0465733 0
2.04571 0.0828469 0
0.10002 0.225545 0
0.0788152 0.21577 0
0.369719 0.224393 0
0.210352 0.308739 0
1.22342 0.0432967 0
[...]
CELL_DATA 1241
VECTORS velocity double
1.01535 -0.00430938 0.0
1.21708 0.0666043 0.0
0.450347 -0.00126315 0.0
0.946624 0.00177333 0.0
1.04298 0.00540868 0.0
1.42283 0.103123 0.0
1.13452 0.000170614 0.0
0.981559 -0.000850212 0.0
0.363243 0.0158045 0.0
1.1776 0.00147635 0.0
1.31247 -0.119983 0.0
1.31627 0.126541 0.0
0.865763 -0.160594 0.0
1.01509 0.00859304 0.0
0.990295 0.00678739 0.0
1.46631 -0.0328449 0.0
0.978651 0.000859783 0.0
0.479608 0.0603794 0.0
1.17257 0.0624738 0.0
1.64766 -0.254175 0.0
1.0215 0.00493087 0.0
1.05942 -0.0663016 0.0
1.03692 -0.000351887 0.0
1.25311 0.904904 0.0
1.07103 -0.00225403 0.0
1.02466 0.00312536 0.0
1.29897 -0.199421 0.0
1.07634 -0.025384 0.0
1.32175 -0.0836644 0.0
1.46238 -0.0648752 0.0
1.33199 0.0902531 0.0
0.86803 -0.0369183 0.0
1.52039 0.00263435 0.0
1.01373 0.00688072 0.0
1.25658 -0.056638 0.0
1.35887 0.156938 0.0
1.21251 -0.0554491 0.0
1.05041 -0.167831 0.0
0.35956 0.0205038 0.0
1.38217 0.141333 0.0
1.76452 -0.179779 0.0
1.41332 -0.0454158 0.0
1.05282 -0.237182 0.0
0.506097 0.00696975 0.0
1.3992 -0.167215 0.0
0.501028 -0.0068581 0.0
1.20166 0.0991149 0.0
1.11503 0.0259246 0.0
1.61302 -0.313089 0.0
1.23975 -0.0105089 0.0
1.21221 0.00103646 0.0
1.29083 -0.417493 0.0
0.869587 -0.00366236 0.0
1.40858 -0.0824097 0.0
1.77525 -0.279588 0.0
1.51894 -0.0287536 0.0
1.15066 -0.0401451 0.0
1.12676 -0.000231143 0.0
1.65845 -0.0990615 0.0
1.68774 -0.199337 0.0
1.15856 0.847305 0.0
0.99565 -0.000116483 0.0
0.19568 0.0357453 0.0
1.02735 0.00731863 0.0
-0.24006 0.0714292 0.0
1.33192 0.227575 0.0
-0.27954 0.0862355 0.0
1.16556 -0.00125925 0.0
0.863087 -0.0259008 0.0
0.218273 0.0244652 0.0
1.1664 -0.00496313 0.0
0.793492 0.0141213 0.0
1.16538 -0.00450364 0.0
0.791803 -0.0137664 0.0
1.20404 0.00745039 0.0
0.881294 0.157084 0.0
0.942257 0.00692054 0.0
1.63147 -0.0464691 0.0
0.979615 -0.0346326 0.0
0.611871 0.00127646 0.0
1.75195 -0.382991 0.0
1.15969 -0.246723 0.0
0.657479 0.0119474 0.0
1.26146 -0.227356 0.0
1.34581 0.170066 0.0
0.919394 -0.0667357 0.0
1.20704 0.178107 0.0
0.0862028 0.0985048 0.0
1.83886 0.530374 0.0
1.18981 0.00353932 0.0
1.27216 0.0101723 0.0
-0.189602 -0.0110369 0.0
-0.347975 0.0783127 0.0
1.44309 -0.0646856 0.0
1.18242 -0.040886 0.0
0.986674 0.00123765 0.0
0.84933 -0.0258747 0.0
-0.184459 0.0905913 0.0
1.01711 -0.0111542 0.0
-0.244177 0.11263 0.0
1.08214 -0.0985568 0.0
1.15776 -0.0144203 0.0
0.946891 0.00236419 0.0
1.63921 -0.161242 0.0
1.74237 -0.670638 0.0
1.27316 -0.397899 0.0
1.07139 -0.0620232 0.0
0.498353 -0.0236228 0.0
1.78801 0.64965 0.0
1.22203 0.00331089 0.0
1.48532 -0.109269 0.0
1.23104 0.189737 0.0
0.131689 0.0759565 0.0
1.44146 -0.0270022 0.0
1.08007 0.0148945 0.0
1.44262 0.040088 0.0
1.41404 0.00479107 0.0
1.3919 0.0529145 0.0
1.06534 -0.00209047 0.0
0.255424 0.0397664 0.0
1.19016 0.042161 0.0
1.51967 0.581795 0.0
1.25163 0.108319 0.0
0.91996 -0.0634773 0.0
0.726946 -0.099387 0.0
1.20485 0.0861161 0.0
1.44695 -0.0429784 0.0
1.11853 0.024636 0.0
1.74959 0.501385 0.0
0.549916 -0.0713168 0.0
1.16459 -0.0146509 0.0
0.621272 -0.00167287 0.0
0.885915 0.0638761 0.0
1.60327 -0.021552 0.0
1.01958 -0.153302 0.0
-0.27604 0.0745727 0.0
0.123223 0.0624809 0.0
1.2265 0.0822791 0.0
1.04859 -0.0252556 0.0
1.66384 -0.761311 0.0
1.50088 0.00357273 0.0
1.03511 0.00582101 0.0
1.07835 -0.245049 0.0
1.00491 0.00700347 0.0
1.52356 0.007257 0.0
0.0224622 0.0312062 0.0
-0.254475 0.0380411 0.0
-0.182665 0.00603957 0.0
0.640714 0.0154076 0.0
0.652044 -0.0116862 0.0
0.555343 -0.101531 0.0
1.03484 -0.00711508 0.0
1.79635 -0.332589 0.0
1.04799 -0.153454 0.0
1.20282 -0.0491844 0.0
1.20456 0.054422 0.0
0.488149 -0.000783172 0.0
1.64362 0.0737886 0.0
0.857203 0.0304047 0.0
1.24824 -0.057038 0.0
-0.230502 0.0470082 0.0
1.74048 0.446487 0.0
1.14313 0.00779244 0.0
1.22204 -0.204902 0.0
1.14288 0.03423 0.0
1.05422 0.130243 0.0
0.982775 -0.000929819 0.0
0.987064 0.109853 0.0
0.565287 -0.00338197 0.0
1.17155 -0.0342969 0.0
0.929003 -0.0246994 0.0
1.23177 0.00367784 0.0
1.36547 0.26553 0.0
1.19087 0.0866592 0.0
1.1051 0.00552534 0.0
1.11612 0.00637396 0.0
1.1826 0.198699 0.0
1.12009 -0.287603 0.0
1.11416 0.0117348 0.0
1.16602 -0.225267 0.0
1.1196 0.00903508 0.0
0.363189 0.11019 0.0
1.08768 -0.644372 0.0
0.730578 -0.12709 0.0
1.024 -0.00838986 0.0
0.765697 -0.0789924 0.0
0.762217 -0.0636667 0.0
1.02724 0.00757811 0.0
1.05545 0.095922 0.0
0.461049 0.0470119 0.0
0.889599 -0.829907 0.0
1.77864 0.345072 0.0
1.02832 -0.00207576 0.0
0.982861 0.00670177 0.0
0.66734 0.0602277 0.0
0.85306 0.0569565 0.0
0.397737 0.0590086 0.0
0.999838 -0.0150083 0.0
1.42771 -0.0322274 0.0
1.44965 0.581439 0.0
1.15458 0.193113 0.0
1.06912 -0.0135658 0.0
1.42685 0.0384023 0.0
1.04169 -0.0923569 0.0
1.40096 -0.0915317 0.0
1.43601 -0.0446939 0.0
0.483297 0.0244297 0.0
0.66194 0.0126389 0.0
0.899864 -0.0227731 0.0
0.857637 0.0335164 0.0
0.521481 0.0171132 0.0
0.515429 -0.00287729 0.0
1.79011 0.286494 0.0
1.11171 0.0112478 0.0
1.44074 -0.00360662 0.0
1.12151 0.0118596 0.0
0.731856 -0.0774229 0.0
1.51118 -0.0907441 0.0
1.17593 -0.030817 0.0
1.16226 -0.0126085 0.0
0.833097 -0.049583 0.0
1.67135 -0.070488 0.0
1.01019 0.0553348 0.0
0.996253 0.0114077 0.0
0.958717 -0.026184 0.0
1.23027 0.00267962 0.0
1.43548 -0.137398 0.0
1.72982 -0.60086 0.0
1.18336 -0.00609201 0.0
1.20161 -0.0108202 0.0
0.991787 -0.000563768 0.0
1.06355 -0.132776 0.0
1.02809 -0.0099939 0.0
0.996406 -0.00650153 0.0
1.25794 0.310858 0.0
1.03831 -0.256618 0.0
1.09417 0.171616 0.0
1.31876 0.132468 0.0
0.743886 -0.106745 0.0
0.355087 -0.045455 0.0
0.958841 0.0159297 0.0
1.4387 0.0570241 0.0
1.42204 0.918326 0.0
0.682938 -0.0851887 0.0
1.15062 -0.0169345 0.0
1.70425 0.140299 0.0
1.09692 -0.898565 0.0
0.868426 -0.177615 0.0
1.1409 -0.0376529 0.0
0.561266 -0.00823668 0.0
1.02618 0.027061 0.0
0.545986 -0.00955182 0.0
1.0311 -0.00451032 0.0
1.22295 0.00333018 0.0
0.621247 -0.0118936 0.0
0.775587 -0.0336884 0.0
1.09485 -0.285469 0.0
1.32603 -0.104682 0.0
1.22075 0.00108402 0.0
1.0195 -0.00161799 0.0
1.00298 0.0087776 0.0
0.509543 -0.00569396 0.0
1.22381 0.00596678 0.0
0.736557 -0.0260911 0.0
1.12775 0.0435749 0.0
0.996311 -0.0100044 0.0
0.567987 0.00357213 0.0
1.24095 -0.109983 0.0
1.22743 -0.171078 0.0
0.789205 -0.0266571 0.0
1.13976 -0.0653952 0.0
0.587863 0.00164917 0.0
0.982902 -0.0149539 0.0
0.116449 0.0674224 0.0
1.20007 0.000111959 0.0
1.19632 -0.0102772 0.0
0.597988 -0.00400645 0.0
0.942611 -0.194285 0.0
0.986874 -0.0149932 0.0
1.42995 0.154513 0.0
1.19595 0.00134523 0.0
1.23153 -0.00108974 0.0
1.22356 -0.170782 0.0
1.23303 -0.00265628 0.0
1.23169 0.000984108 0.0
1.17173 -0.017225 0.0
0.935004 -0.114582 0.0
0.835802 0.0428674 0.0
1.2331 -0.00493929 0.0
1.22997 -0.000567366 0.0
1.22553 -0.00180538 0.0
0.63492 0.0704958 0.0
0.461547 0.00509142 0.0
0.997703 0.0100716 0.0
0.548786 -0.00750492 0.0
1.23145 -0.00536401 0.0
1.00205 -0.0177603 0.0
1.16089 0.0104939 0.0
-0.261268 -0.0268623 0.0
0.967353 -0.0114624 0.0
0.503079 -0.00442314 0.0
1.3189 -0.604724 0.0
1.12244 -0.00750813 0.0
0.970778 -0.0155205 0.0
0.52712 -0.0099661 0.0
1.2312 -0.00300452 0.0
0.868256 0.0407565 0.0
0.535886 0.00161224 0.0
0.992703 -0.0149541 0.0
1.23169 -0.00552109 0.0
1.22451 -0.00256375 0.0
1.22943 -0.00295004 0.0
0.624076 -0.00707279 0.0
0.447956 0.000374679 0.0
1.22908 -0.00644103 0.0
1.14167 -0.0735483 0.0
1.20383 -0.00722809 0.0
0.606247 0.00994544 0.0
1.1843 -0.0081794 0.0
1.22215 -0.00536603 0.0
1.20931 0.00104607 0.0
1.23419 -0.00716797 0.0
0.468224 -0.00663574 0.0
1.22742 -0.00638632 0.0
1.2288 -0.00638358 0.0
1.21926 -0.00691453 0.0
0.45814 -0.00372216 0.0
1.21468 -0.00258797 0.0
1.18257 -0.00618762 0.0
1.19984 -0.00105812 0.0
1.23169 -0.00730395 0.0
1.17048 -0.157917 0.0
1.12909 0.00141664 0.0
1.23299 -0.00744173 0.0
1.35089 0.66853 0.0
1.2168 -0.00658177 0.0
0.511498 -0.0068444 0.0
1.09681 -0.0221896 0.0
0.566956 0.00804532 0.0
0.593956 -0.00938777 0.0
1.11816 0.00693399 0.0
1.09657 -0.0125002 0.0
1.07025 -0.00791666 0.0
0.532263 -0.00808359 0.0
1.10257 -0.0219063 0.0
1.12507 0.00552907 0.0
1.23027 -0.00783775 0.0
1.07394 0.139056 0.0
1.15506 -0.696814 0.0
0.562453 -0.00480494 0.0
0.520619 -0.00543589 0.0
1.22565 -0.00595801 0.0
1.22755 -0.0081373 0.0
0.618612 -0.0183243 0.0
0.508651 -0.00923718 0.0
1.22301 -0.00520101 0.0
0.991823 0.0165146 0.0
1.16185 0.0114083 0.0
1.15588 -0.00731206 0.0
0.565689 0.00707125 0.0
0.517159 -0.00225136 0.0
1.14415 0.0172791 0.0
0.601965 0.0141388 0.0
0.567915 0.0146533 0.0
1.17432 0.00894094 0.0
0.61825 0.0205943 0.0
0.570048 -0.000847805 0.0
1.21353 -0.00446065 0.0
1.20105 -0.0036471 0.0
0.961758 0.0159663 0.0
1.21023 -0.00220427 0.0
1.1822 -0.00241027 0.0
1.218 -0.00339629 0.0
0.982911 0.0119727 0.0
1.15161 -0.00308676 0.0
0.607795 0.00590996 0.0
0.501269 0.0140627 0.0
0.551271 0.0139785 0.0
0.467816 -0.0081507 0.0
0.533726 0.000631656 0.0
0.55685 -0.00522213 0.0
0.525753 -0.00273812 0.0
0.639525 -0.0138378 0.0
0.5438 -0.00469322 0.0
0.574141 0.0132135 0.0
0.488838 -0.00734945 0.0
0.57565 0.015568 0.0
0.497391 4.01619e-05 0.0
0.67873 0.0213369 0.0
0.57793 0.0101066 0.0
0.571703 -0.011521 0.0
0.489429 0.00263114 0.0
0.527044 -0.0021675 0.0
0.509257 0.00776033 0.0
0.611432 -0.0098004 0.0
0.535347 -0.00113759 0.0
0.60097 -0.00768475 0.0
0.557976 -0.012332 0.0
0.543966 0.00672571 0.0
0.522373 2.63403e-05 0.0
0.538844 0.0038019 0.0
0.480738 -0.0169244 0.0
0.490904 0.0197216 0.0
0.493229 0.000416826 0.0
0.556152 -0.00721076 0.0
0.495191 0.0032398 0.0
0.645943 -0.0210907 0.0
0.492434 0.00605433 0.0
0.466187 0.00529835 0.0
0.508523 0.00085063 0.0
0.485294 -0.00284684 0.0
1.18061 -0.00162519 0.0
1.1613 -0.00614019 0.0
1.22576 -0.00739018 0.0
1.22373 -0.00521755 0.0
1.22675 -0.00542959 0.0
1.11868 -0.00758261 0.0
1.19747 -0.00690762 0.0
1.17828 -0.00652074 0.0
1.18251 0.00440106 0.0
1.15424 -0.0018622 0.0
1.20965 -0.00785442 0.0
1.21216 -0.00857288 0.0
1.17422 -0.00640111 0.0
1.21938 -0.00379428 0.0
1.19544 -0.000795451 0.0
1.22051 -0.00611332 0.0
1.19362 -0.00712226 0.0
1.15221 0.00117576 0.0
1.21695 -0.00622656 0.0
1.22229 -0.004354 0.0
1.20755 -0.00128651 0.0
1.22065 -0.00390177 0.0
1.21597 -0.00530946 0.0
1.15634 -0.00878655 0.0
1.22051 -0.00204516 0.0
1.1977 -0.00331151 0.0
1.21761 -0.0014216 0.0
1.12025 -0.00127832 0.0
1.1988 -0.00306824 0.0
1.19171 0.00140295 0.0
1.21289 -0.00155725 0.0
1.17554 -0.00137489 0.0
1.21259 -0.00241245 0.0
1.2157 -0.00247227 0.0
1.1858 0.00405634 0.0
1.21624 -0.00151933 0.0
1.20794 -0.00411886 0.0
1.21069 0.000358838 0.0
1.15287 -0.00834967 0.0
1.17728 -0.00237641 0.0
1.21367 0.000110991 0.0
1.20546 -0.00340029 0.0
1.20232 0.0018572 0.0
1.19929 0.00330738 0.0
1.16103 -0.0127586 0.0
1.21121 0.000243769 0.0
1.20777 0.000624106 0.0
1.13763 -0.00582863 0.0
1.19359 -0.00426181 0.0
1.12156 0.0033533 0.0
1.17959 -0.00425902 0.0
1.19 -0.00390573 0.0
1.202 -0.00364042 0.0
1.20811 -0.00131858 0.0
1.17541 -0.00437305 0.0
1.20558 -0.00347737 0.0
1.2043 -0.00106167 0.0
1.20628 0.000424361 0.0
1.20227 0.00285085 0.0
1.19887 0.00318427 0.0
1.1962 0.00357644 0.0
1.1848 0.00577426 0.0
1.13592 -0.00634786 0.0
1.094 0.0075918 0.0
1.17968 0.00699954 0.0
1.20225 0.000825211 0.0
0.575855 -0.00624701 0.0
1.18828 0.00571242 0.0
1.14882 0.00740965 0.0
1.17103 0.0076801 0.0
1.2001 0.00293269 0.0
1.16866 0.00738904 0.0
1.17928 0.00559688 0.0
1.17213 0.000187081 0.0
1.19118 0.00533297 0.0
1.17899 -0.000887778 0.0
1.13348 -0.005108 0.0
1.13331 -0.00808778 0.0
1.15709 -0.00492193 0.0
1.1876 0.0065781 0.0
1.17548 -0.00420513 0.0
1.18613 0.00335777 0.0
1.16866 -0.00398176 0.0
1.18556 -0.00388376 0.0
1.19011 0.00279265 0.0
1.18338 0.00585371 0.0
0.97951 -0.0134539 0.0
1.17314 -0.00357167 0.0
1.17593 0.00778704 0.0
1.14602 0.00895536 0.0
1.19083 -0.00237436 0.0
1.19477 0.000171781 0.0
1.08179 -0.0178222 0.0
1.16603 0.0109703 0.0
1.17955 -0.00360369 0.0
1.14745 0.0149888 0.0
1.19039 -6.30284e-05 0.0
1.15007 0.0177579 0.0
1.16848 -0.00447843 0.0
1.19442 -0.00234397 0.0
1.17556 -0.00113963 0.0
1.11937 0.176573 0.0
1.15307 -0.00740657 0.0
1.22138 -0.00930757 0.0
1.17173 0.00948909 0.0
1.1763 0.00113972 0.0
1.15771 -0.013548 0.0
1.16173 -0.00358985 0.0
1.13939 -0.00311817 0.0
1.16157 -0.00965318 0.0
1.16855 0.00267805 0.0
1.14091 -0.00123829 0.0
1.16347 0.00234509 0.0
1.16454 -0.0068449 0.0
1.16424 -0.00286617 0.0
1.14988 0.0120622 0.0
1.16077 -0.00526921 0.0
0.718322 -0.0205285 0.0
0.972464 0.00462479 0.0
1.1453 0.014315 0.0
1.14817 0.00949899 0.0
1.15548 -0.00772967 0.0
1.14144 0.0120359 0.0
1.1482 0.0144309 0.0
1.14556 -0.00237556 0.0
1.12796 0.000892397 0.0
1.14042 -0.00315364 0.0
1.13396 0.000975386 0.0
1.12179 0.0121004 0.0
1.15877 0.00571595 0.0
1.15287 0.00861672 0.0
0.995233 0.00834715 0.0
1.15415 0.00590377 0.0
1.15809 0.0117372 0.0
1.15065 0.0122168 0.0
1.11512 0.015195 0.0
1.13611 0.0157891 0.0
1.15492 0.0126771 0.0
1.73547 0.181652 0.0
1.12021 -0.0105635 0.0
1.12774 0.0193134 0.0
1.10008 -0.0222983 0.0
1.14949 0.0219387 0.0
1.14807 0.0162069 0.0
1.11384 -0.0129208 0.0
1.14667 0.0220388 0.0
1.22142 -0.00600479 0.0
1.07096 -0.00974151 0.0
1.09875 0.015349 0.0
1.09743 -0.00689117 0.0
1.3072 0.126087 0.0
1.21708 -0.00542821 0.0
1.08319 -0.00224725 0.0
1.15496 -0.00772907 0.0
1.14037 0.0282254 0.0
1.1467 0.0225204 0.0
1.08995 -0.00850741 0.0
1.09423 -0.0273364 0.0
0.980912 -0.0153408 0.0
1.19252 -0.00123754 0.0
1.06735 0.000676766 0.0
1.07699 0.000207798 0.0
1.12108 0.0247443 0.0
1.11962 -0.0268027 0.0
1.02976 0.198338 0.0
0.961381 -0.0153943 0.0
1.13652 0.0338381 0.0
0.442138 -0.164385 0.0
1.38211 0.131453 0.0
1.18145 -0.0522352 0.0
1.065 0.0103128 0.0
1.06613 0.0257575 0.0
1.05437 0.0364199 0.0
1.21737 -0.00179681 0.0
1.05253 0.014343 0.0
1.03785 -0.0441046 0.0
1.30216 0.17595 0.0
1.00328 -0.142451 0.0
1.03295 -0.0578237 0.0
1.15158 -0.13335 0.0
1.14857 -0.0127063 0.0
1.0954 -0.048124 0.0
1.18043 -0.00353669 0.0
0.936761 0.00179021 0.0
1.18105 0.0540994 0.0
1.0084 -0.0138865 0.0
1.23794 -0.101847 0.0
1.21574 -0.00561177 0.0
1.20372 -0.0065473 0.0
1.05562 -0.02002 0.0
1.39838 -0.567469 0.0
1.13253 0.0835009 0.0
0.995131 -0.0202435 0.0
1.13272 0.0669549 0.0
0.957262 0.00150773 0.0
0.758101 0.0281082 0.0
1.0898 0.0450012 0.0
1.32725 -0.160588 0.0
0.933263 -0.0908232 0.0
1.09891 -0.0396901 0.0
0.632627 -0.556524 0.0
1.1101 -0.0281113 0.0
1.11609 -0.00706013 0.0
1.15389 -0.00766442 0.0
1.39112 -0.139429 0.0
1.08047 0.060085 0.0
1.18036 -0.00275252 0.0
1.04747 -0.0262512 0.0
1.16366 0.0362506 0.0
0.988933 -0.0177949 0.0
1.34995 -0.771791 0.0
1.22553 0.00459459 0.0
1.17971 0.0515336 0.0
1.20103 0.00283198 0.0
1.12653 -0.000756335 0.0
1.18055 -0.0566031 0.0
1.06599 0.0201549 0.0
1.21064 0.0814621 0.0
1.12234 -0.00802361 0.0
1.15913 0.0442076 0.0
0.957016 0.0016638 0.0
1.15119 0.011283 0.0
1.1805 -0.531639 0.0
0.659335 -0.00609114 0.0
0.681 -0.0231903 0.0
0.925126 0.0271425 0.0
1.26626 0.119726 0.0
1.15277 -0.00628805 0.0
1.18147 -0.00522918 0.0
0.6071 0.0101889 0.0
1.2014 -0.00596502 0.0
0.328065 -0.123543 0.0
1.07335 -0.0992675 0.0
0.551288 0.00900575 0.0
0.557377 -0.0110442 0.0
0.899696 0.0403089 0.0
1.1579 -0.0061709 0.0
0.863952 -0.174345 0.0
0.848467 -0.02543 0.0
1.68893 -0.125056 0.0
0.941607 0.0373974 0.0
1.15219 -0.0106993 0.0
1.15281 -0.0121706 0.0
1.0534 0.00871766 0.0
1.22284 0.00349996 0.0
1.17839 0.00121039 0.0
1.18511 0.348332 0.0
0.62059 0.0173594 0.0
1.02008 0.00171041 0.0
1.36944 -0.0978939 0.0
0.537217 0.00766077 0.0
1.58077 0.560937 0.0
0.934094 -0.0417894 0.0
0.796597 -0.0266856 0.0
1.34126 0.088202 0.0
0.782103 -0.0538196 0.0
0.955472 -0.00108509 0.0
0.668512 -0.116213 0.0
1.156 -0.0170174 0.0
0.880995 0.0996517 0.0
1.13608 -0.0145992 0.0
0.659028 -0.00413299 0.0
1.03026 0.00560461 0.0
0.980633 0.136301 0.0
1.40945 -0.0326971 0.0
0.520539 -0.00351562 0.0
0.636688 -0.024548 0.0
0.918749 0.805443 0.0
1.11049 -0.00106039 0.0
1.05178 0.0115951 0.0
1.3925 0.013598 0.0
0.602369 -0.010521 0.0
1.13195 0.0185061 0.0
1.16664 -0.448608 0.0
0.186485 0.0223939 0.0
0.925323 -0.0632845 0.0
1.07028 -0.0833555 0.0
0.735361 0.0239473 0.0
0.519223 0.0178655 0.0
1.64901 0.0363527 0.0
1.15485 -0.00550652 0.0
0.311487 0.015232 0.0
0.571779 0.0249556 0.0
1.1445 -0.00608845 0.0
1.20312 -0.00630963 0.0
1.00216 -0.0184767 0.0
0.938203 0.0624257 0.0
1.20927 0.172587 0.0
0.640367 0.0108376 0.0
1.20437 0.00762075 0.0
0.919684 0.0928702 0.0
1.20825 -0.00856084 0.0
1.38799 -0.593459 0.0
0.512286 0.00107801 0.0
1.4593 -0.129945 0.0
1.1103 0.00841947 0.0
0.950639 -0.0142212 0.0
0.621596 0.090333 0.0
0.991388 0.101908 0.0
0.897475 0.139872 0.0
1.1129 0.00968437 0.0
1.21779 -0.0580383 0.0
1.39921 -0.0369356 0.0
0.586492 0.00505614 0.0
0.610674 0.0150419 0.0
1.07372 -0.00363789 0.0
0.404543 -0.0728937 0.0
1.04399 0.0365864 0.0
0.492031 0.00352718 0.0
0.96401 -0.0112728 0.0
1.1114 -0.00451954 0.0
0.941349 -0.00960021 0.0
0.557287 -0.00674023 0.0
0.556044 0.0187952 0.0
0.567498 0.0094705 0.0
0.514306 0.00720374 0.0
0.586608 0.0113981 0.0
1.21072 0.669596 0.0
1.36088 0.0695711 0.0
0.965239 -0.00298725 0.0
0.539482 0.00796815 0.0
0.551385 -0.0127048 0.0
0.69965 0.0249783 0.0
1.15668 -0.0475064 0.0
0.619258 0.00113937 0.0
1.60381 -0.193091 0.0
1.296 0.0954872 0.0
0.53709 -0.140687 0.0
1.34539 -0.093671 0.0
1.52681 -0.466849 0.0
1.01045 0.00551722 0.0
1.09068 0.0186244 0.0
1.1408 -0.0123473 0.0
0.959989 0.00301442 0.0
0.837049 -0.68921 0.0
1.02706 -0.00195341 0.0
0.979574 -0.00554413 0.0
1.20321 -0.0128696 0.0
1.12226 -0.0342063 0.0
1.64828 -0.000185061 0.0
-0.120821 0.097784 0.0
0.506589 -0.0687346 0.0
1.33617 0.51818 0.0
1.07316 -0.0121717 0.0
0.607159 -0.0119911 0.0
0.578376 -0.00564914 0.0
0.573281 -0.00596908 0.0
1.22371 0.0056339 0.0
0.633745 0.211278 0.0
1.17459 -0.0246654 0.0
0.97689 0.0124324 0.0
0.751261 0.163095 0.0
1.12529 -0.00197828 0.0
0.138399 -0.00973988 0.0
1.19024 0.00578681 0.0
0.565774 0.0209537 0.0
0.563215 -0.0103213 0.0
1.34003 0.0855182 0.0
0.840035 -0.0116004 0.0
1.50631 0.0320199 0.0
0.974334 0.0151647 0.0
0.990253 0.0113682 0.0
0.111627 -0.166262 0.0
0.972149 0.0290349 0.0
1.1699 0.0134779 0.0
1.15271 0.0135299 0.0
0.356006 -0.136194 0.0
1.61634 -0.273224 0.0
1.0945 -0.000446469 0.0
1.2875 0.195044 0.0
0.589841 -0.0139476 0.0
0.557061 -0.00756776 0.0
1.12381 -0.0167486 0.0
0.530842 0.0896901 0.0
1.12513 -0.0272518 0.0
0.80951 0.0217778 0.0
0.935013 -0.00846996 0.0
1.13117 0.0122863 0.0
0.995744 -0.00343125 0.0
0.201884 -0.0209014 0.0
1.14928 -0.0131786 0.0
0.309818 0.0604441 0.0
1.01032 -0.000612 0.0
1.00126 -0.00386103 0.0
0.575656 -0.0155733 0.0
1.07208 -0.00947378 0.0
1.17463 -0.0248524 0.0
0.948246 0.000541002 0.0
0.991542 -0.0133408 0.0
1.20021 -0.964613 0.0
1.13221 0.0224247 0.0
1.6927 0.486937 0.0
0.554436 -0.0165878 0.0
0.543712 0.00643872 0.0
1.16716 0.00620022 0.0
1.22717 -0.00658797 0.0
1.11416 -0.00830645 0.0
1.12305 -0.00164084 0.0
1.18097 0.00599419 0.0
1.1311 0.00553507 0.0
1.21806 -0.00924949 0.0
1.15073 0.0258036 0.0
-0.198302 0.0188044 0.0
1.10369 0.0150346 0.0
-0.0250798 0.0288718 0.0
0.663921 -0.0256202 0.0
1.20446 -0.177501 0.0
1.14726 -0.011874 0.0
1.36838 -0.138013 0.0
1.6463 -0.502426 0.0
0.314249 -0.0181111 0.0
1.21168 -0.0084829 0.0
1.129 0.272018 0.0
1.3513 -0.0983018 0.0
1.07137 0.305697 0.0
1.70949 0.0868648 0.0
0.975234 -0.542441 0.0
1.37208 0.132336 0.0
1.12217 -0.0164325 0.0
1.28963 -0.480967 0.0
-0.0872353 -0.108142 0.0
1.05991 -8.44544e-05 0.0
1.31865 -0.394855 0.0
0.497544 -0.00486095 0.0
1.41865 -0.149955 0.0
1.68464 0.198461 0.0
1.09144 0.0134544 0.0
0.395938 0.0155578 0.0
0.717032 0.00183388 0.0
0.267867 -0.228446 0.0
0.956991 0.0459601 0.0
-0.118581 -0.0299631 0.0
1.1465 -0.162434 0.0
1.49637 0.143771 0.0
0.536464 0.00910615 0.0
1.22929 -0.0688404 0.0
0.96652 0.00056028 0.0
1.21484 0.00489444 0.0
0.435146 -0.615506 0.0
1.22864 0.264381 0.0
0.729341 -0.162576 0.0
0.191333 -0.330921 0.0
0.517719 0.160697 0.0
1.3026 0.238502 0.0
0.59805 0.152235 0.0
0.968223 -0.0128802 0.0
1.14037 -0.0162891 0.0
1.08263 0.0112395 0.0
1.07634 0.00887987 0.0
0.571118 0.00740352 0.0
0.0237757 0.0820278 0.0
1.3083 0.299792 0.0
0.466878 -0.00219373 0.0
1.10143 0.0099388 0.0
0.264443 0.216289 0.0
0.973367 -0.00480268 0.0
1.3975 0.501235 0.0