# vtk DataFile Version 3.0
Malha 2D com triângulos e temperatura
ASCII
DATASET UNSTRUCTURED_GRID

POINTS 688 double
0 0 0
2.2 0 0
2.2 0.41 0
0 0.41 0
0.25 0.2 0
0.05 0 0
0.1 0 0
0.15 0 0
0.2 0 0
0.25 0 0
0.3 0 0
0.35 0 0
0.4 0 0
0.45 0 0
0.5 0 0
0.55 0 0
0.6 0 0
0.65 0 0
0.7 0 0
0.75 0 0
0.8 0 0
0.85 0 0
0.9 0 0
0.95 0 0
1 0 0
1.05 0 0
1.1 0 0
1.15 0 0
1.2 0 0
1.25 0 0
1.3 0 0
1.35 0 0
1.4 0 0
1.45 0 0
1.5 0 0
1.55 0 0
1.6 0 0
1.65 0 0
1.7 0 0
1.75 0 0
1.8 0 0
1.85 0 0
1.9 0 0
1.95 0 0
2 0 0
2.05 0 0
2.1 0 0
2.15 0 0
2.2 0.0455556 0
2.2 0.0911111 0
2.2 0.136667 0
2.2 0.182222 0
2.2 0.227778 0
2.2 0.273333 0
2.2 0.318889 0
2.2 0.364444 0
2.15 0.41 0
2.1 0.41 0
2.05 0.41 0
2 0.41 0
1.95 0.41 0
1.9 0.41 0
1.85 0.41 0
1.8 0.41 0
1.75 0.41 0
1.7 0.41 0
1.65 0.41 0
1.6 0.41 0
1.55 0.41 0
1.5 0.41 0
1.45 0.41 0
1.4 0.41 0
1.35 0.41 0
1.3 0.41 0
1.25 0.41 0
1.2 0.41 0
1.15 0.41 0
1.1 0.41 0
1.05 0.41 0
1 0.41 0
0.95 0.41 0
0.9 0.41 0
0.85 0.41 0
0.8 0.41 0
0.75 0.41 0
0.7 0.41 0
0.65 0.41 0
0.6 0.41 0
0.55 0.41 0
0.5 0.41 0
0.45 0.41 0
0.4 0.41 0
0.35 0.41 0
0.3 0.41 0
0.25 0.41 0
0.2 0.41 0
0.15 0.41 0
0.1 0.41 0
0.05 0.41 0
0 0.364444 0
0 0.318889 0
0 0.273333 0
0 0.227778 0
0 0.182222 0
0 0.136667 0
0 0.0911111 0
0 0.0455556 0
0.248831 0.210749 0
0.245379 0.220994 0
0.239805 0.230259 0
0.232369 0.238108 0
0.22342 0.244176 0
0.213376 0.248177 0
0.202707 0.249927 0
0.191911 0.249341 0
0.181493 0.246449 0
0.171941 0.241384 0
0.1637 0.234385 0
0.157157 0.225778 0
0.152617 0.215965 0
0.150293 0.205406 0
0.150293 0.194594 0
0.152617 0.184035 0
0.157157 0.174222 0
0.1637 0.165615 0
0.171941 0.158616 0
0.181493 0.153551 0
0.191911 0.150659 0
0.202707 0.150073 0
0.213376 0.151823 0
0.22342 0.155824 0
0.232369 0.161892 0
0.239805 0.169741 0
0.245379 0.179006 0
0.248831 0.189251 0
0.421316 0.36725 0
0.426705 0.0366526 0
2.16065 0.209201 0
1.52286 0.0417259 0
0.626017 0.37111 0
1.3257 0.0414552 0
1.02471 0.0432237 0
1.17293 0.0421053 0
0.82501 0.36678 0
1.6757 0.370064 0
1.91628 0.0358195 0
1.82501 0.366432 0
0.723429 0.0421499 0
1.425 0.366699 0
1.97461 0.366224 0
1.12167 0.370137 0
0.975 0.368691 0
0.877672 0.0412714 0
1.27686 0.36884 0
1.725 0.0433013 0
0.579174 0.0416211 0
0.325589 0.363848 0
0.319111 0.0378151 0
0.0394523 0.296111 0
0.0329929 0.11602 0
0.142108 0.187428 0
1.57555 0.364352 0
2.02603 0.0412138 0
0.725007 0.36763 0
0.528647 0.366595 0
1.62699 0.0400272 0
1.82929 0.0421255 0
1.425 0.0418325 0
2.07474 0.364233 0
0.125 0.0433013 0
0.161245 0.155011 0
0.225 0.366699 0
0.210027 0.258536 0
2.16034 0.115449 0
0.0371627 0.204103 0
0.142311 0.212698 0
0.220283 0.0418538 0
0.221965 0.145099 0
0.196802 0.141016 0
0.119851 0.373394 0
0.161112 0.245979 0
0.184892 0.258024 0
2.16342 0.30039 0
2.12627 0.047699 0
0.183325 0.0412617 0
0.152317 0.0762976 0
0.203864 0.0745802 0
0.234384 0.0774346 0
0.215969 0.103585 0
0.245651 0.104548 0
0.186562 0.100216 0
0.268213 0.0793029 0
0.272149 0.109155 0
0.242885 0.159377 0
0.253088 0.128261 0
0.278718 0.13214 0
0.295917 0.115997 0
0.301728 0.138858 0
0.321266 0.12205 0
0.324642 0.151724 0
0.255978 0.181139 0
0.350123 0.129049 0
0.357539 0.159885 0
0.333541 0.181416 0
0.36451 0.19182 0
0.250573 0.230419 0
0.391277 0.169722 0
0.339477 0.212308 0
0.39836 0.205386 0
0.427326 0.18117 0
0.258724 0.206387 0
0.434392 0.219501 0
0.466446 0.193907 0
0.472865 0.243064 0
0.507358 0.209962 0
0.40073 0.238916 0
0.499135 0.1652 0
0.5419 0.179224 0
0.550176 0.22496 0
0.585844 0.194129 0
0.594095 0.240176 0
0.630701 0.209517 0
0.621901 0.162424 0
0.667731 0.178095 0
0.676485 0.226008 0
0.713906 0.194492 0
0.722681 0.242872 0
0.760442 0.211047 0
0.751547 0.162356 0
0.798298 0.179 0
0.807147 0.227866 0
0.845136 0.195775 0
0.854541 0.243285 0
0.892163 0.212344 0
0.902461 0.257947 0
0.93935 0.228684 0
0.930236 0.180167 0
0.977229 0.197066 0
0.986264 0.245777 0
1.02423 0.213991 0
1.0331 0.263172 0
1.07123 0.230975 0
1.06234 0.181814 0
1.10938 0.198721 0
1.09996 0.151012 0
1.14691 0.168161 0
1.15631 0.215921 0
1.19446 0.183678 0
1.20343 0.232645 0
1.2416 0.200322 0
1.23272 0.151117 0
1.2798 0.167954 0
1.28868 0.217167 0
1.32685 0.184862 0
1.33573 0.234064 0
1.3739 0.201768 0
0.789327 0.130094 0
1.38279 0.25097 0
1.42096 0.218674 0
1.41207 0.169471 0
1.45912 0.186378 0
1.46801 0.235581 0
1.50618 0.203285 0
1.51506 0.252489 0
1.55323 0.220192 0
1.54435 0.170989 0
1.5914 0.187896 0
1.60029 0.2371 0
1.63846 0.204803 0
1.64734 0.254007 0
1.68551 0.221711 0
1.67663 0.172507 0
1.72368 0.189415 0
1.73831 0.241548 0
1.77074 0.206322 0
1.76185 0.157121 0
1.8091 0.17428 0
1.81866 0.220885 0
1.85608 0.190621 0
1.86521 0.238879 0
1.90289 0.207671 0
1.91264 0.253772 0
1.94955 0.224093 0
1.94067 0.17593 0
1.98705 0.192828 0
1.99572 0.240997 0
2.0329 0.209382 0
2.02422 0.16161 0
2.04166 0.257286 0
0.419739 0.142889 0
0.968291 0.148058 0
0.310035 0.202211 0
0.316128 0.230863 0
0.658501 0.130052 0
0.685107 0.27445 0
1.34462 0.283266 0
1.16528 0.264896 0
1.84735 0.142081 0
0.557687 0.270604 0
1.21234 0.281769 0
1.58252 0.138692 0
0.533563 0.131933 0
0.489835 0.120004 0
1.45024 0.137174 0
2.06974 0.17785 0
2.06113 0.130713 0
0.283221 0.152215 0
0.921299 0.131169 0
0.343836 0.24295 0
0.319203 0.260002 0
0.235529 0.249617 0
0.347029 0.274099 0
0.291856 0.246297 0
0.295938 0.27548 0
0.272836 0.264931 0
0.27461 0.290522 0
0.251228 0.280224 0
0.253903 0.305808 0
0.232795 0.296709 0
0.298805 0.304058 0
1.0801 0.280176 0
1.47689 0.284785 0
1.05315 0.133468 0
1.09741 0.0970974 0
1.82427 0.272867 0
1.2701 0.118911 0
0.816337 0.277695 0
1.40432 0.121101 0
1.04244 0.320388 0
0.959305 0.103028 0
1.60923 0.286151 0
0.601674 0.286775 0
2.00739 0.280923 0
0.342592 0.0992796 0
0.375237 0.105729 0
1.52511 0.298716 0
1.53114 0.119823 0
0.733824 0.287256 0
0.613372 0.114719 0
0.645558 0.0838585 0
2.015 0.115858 0
1.22718 0.0994086 0
1.39166 0.29817 0
1.3564 0.329754 0
0.744134 0.11556 0
0.782853 0.0841771 0
0.826899 0.10047 0
1.17418 0.314034 0
0.520902 0.0906676 0
1.4967 0.329429 0
1.26048 0.0740437 0
0.365514 0.0716355 0
0.229836 0.121666 0
1.57453 0.09137 0
1.61938 0.110761 0
0.481716 0.0753791 0
0.14093 0.2 0
0.130041 0.192847 0
0.131507 0.178608 0
0.117165 0.184444 0
0.120761 0.164701 0
0.1156 0.199931 0
0.100804 0.174136 0
0.102545 0.153034 0
0.12169 0.143342 0
0.104604 0.13008 0
0.0809304 0.161171 0
0.128077 0.121858 0
0.106825 0.102278 0
0.082498 0.188728 0
0.0314738 0.158621 0
2.04625 0.310891 0
2.08475 0.27479 0
2.11394 0.138117 0
0.233149 0.151108 0
0.258724 0.193613 0
0.268522 0.184917 0
1.65397 0.301059 0
0.145962 0.224912 0
0.132503 0.222267 0
0.13746 0.236947 0
0.120111 0.233525 0
0.126593 0.25219 0
0.105294 0.247497 0
0.113343 0.26868 0
0.133997 0.271734 0
0.121622 0.292031 0
0.147069 0.292141 0
0.0896563 0.267464 0
0.0813699 0.243294 0
0.163574 0.276939 0
0.172694 0.298517 0
0.1583 0.321483 0
0.186823 0.322499 0
0.173113 0.348195 0
0.0322087 0.250839 0
0.211694 0.124337 0
0.250615 0.169546 0
0.256243 0.157787 0
0.170796 0.14736 0
0.156755 0.141654 0
0.17187 0.131161 0
0.147502 0.152323 0
0.198129 0.260662 0
0.206368 0.271663 0
0.220945 0.26864 0
0.190489 0.270628 0
0.198813 0.286731 0
0.55749 0.322277 0
0.520166 0.299321 0
0.235199 0.330709 0
0.267109 0.337524 0
0.172324 0.25256 0
0.255974 0.218859 0
0.268327 0.214994 0
0.184197 0.143083 0
0.188721 0.129954 0
0.209694 0.139146 0
0.269223 0.244007 0
0.252374 0.255244 0
0.282229 0.0410487 0
1.21977 0.330016 0
1.25733 0.296346 0
2.09358 0.0890819 0
0.244373 0.240984 0
0.0838116 0.115786 0
0.0797544 0.0817835 0
0.237449 0.264854 0
0.247178 0.146225 0
0.270136 0.2 0
0.28023 0.191334 0
0.263476 0.170737 0
0.371486 0.368728 0
0.396124 0.330051 0
0.440314 0.325693 0
0.357693 0.329668 0
0.476576 0.362035 0
0.29587 0.222914 0
0.307627 0.175476 0
0.079599 0.0406461 0
0.146062 0.252571 0
0.15162 0.125025 0
0.417223 0.294608 0
0.457089 0.286958 0
0.036619 0.338729 0
0.0713014 0.322193 0
0.0735823 0.36704 0
0.041143 0.0722223 0
0.693501 0.32349 0
0.145406 0.175484 0
0.138777 0.164467 0
0.300367 0.0698839 0
0.167025 0.112083 0
0.146978 0.105544 0
0.151909 0.236762 0
0.444611 0.106436 0
0.909355 0.0817561 0
0.282901 0.370713 0
1.61474 0.330739 0
0.578053 0.368179 0
0.824695 0.0487848 0
2.09634 0.3213 0
2.02276 0.364865 0
2.12532 0.363702 0
1.09789 0.328757 0
0.161137 0.260089 0
2.07793 0.225752 0
2.12079 0.240944 0
2.0747 0.0437362 0
1.89402 0.158846 0
1.93154 0.128738 0
1.8848 0.111477 0
1.8384 0.0926484 0
1.87744 0.0655304 0
1.7913 0.0793874 0
1.9712 0.046671 0
1.92502 0.366682 0
1.94563 0.325156 0
1.89941 0.326645 0
1.87499 0.367178 0
1.84989 0.323491 0
1.7997 0.321303 0
1.77183 0.280326 0
1.75031 0.321965 0
1.77491 0.365615 0
2.11727 0.191885 0
0.883187 0.163467 0
1.71449 0.140266 0
1.667 0.125342 0
1.70591 0.0884759 0
1.67732 0.042286 0
1.52278 0.370513 0
1.37512 0.04128 0
1.34848 0.0834574 0
0.776093 0.367587 0
1.125 0.0433013 0
1.15 0.0866019 0
1.07442 0.0496847 0
0.974527 0.0370837 0
1.47464 0.0427918 0
1.44953 0.0873752 0
1.17595 0.362984 0
1.025 0.366699 0
0.925007 0.367031 0
0.95 0.323404 0
0.897321 0.326356 0
0.874563 0.367261 0
0.846552 0.324465 0
1.62923 0.156667 0
1.32319 0.13033 0
1.69342 0.270472 0
1.49568 0.156227 0
1.56237 0.268721 0
1.44 0.319169 0
1.43005 0.267892 0
1.36502 0.152565 0
0.993446 0.294003 0
1.30179 0.321101 0
1.18235 0.127964 0
1.25016 0.2491 0
1.29638 0.266841 0
1.11824 0.247967 0
1.12945 0.294699 0
1.01527 0.165035 0
0.836192 0.147197 0
1.4998 0.0831488 0
1.00655 0.118664 0
0.872896 0.117126 0
0.70523 0.146383 0
1.96013 0.276645 0
0.769406 0.257102 0
0.699552 0.0908977 0
2.1587 0.162257 0
1.97813 0.145326 0
0.646036 0.302035 0
0.799423 0.326603 0
0.515621 0.255445 0
1.72538 0.366474 0
1.97009 0.0998346 0
1.57108 0.313772 0
0.577925 0.14549 0
0.638911 0.256447 0
0.407352 0.0771641 0
0.525103 0.042511 0
0.674231 0.370698 0
1.69802 0.321701 0
0.56947 0.0908728 0
1.75459 0.110239 0
1.80084 0.126127 0
0.673535 0.0431435 0
1.57391 0.0465733 0
2.04571 0.0828469 0
0.10002 0.225545 0
0.0788152 0.21577 0
0.369719 0.224393 0
0.210352 0.308739 0
1.22342 0.0432967 0
[...]
CELL_DATA 1241
VECTORS velocity double
1.01446 -0.00430461 0.0
1.21722 0.0665434 0.0
0.447595 -0.00143603 0.0
0.945379 0.00170493 0.0
1.04361 0.00542968 0.0
1.42285 0.103144 0.0
1.13484 0.000157491 0.0
0.980503 -0.000847441 0.0
0.363197 0.0158169 0.0
1.17861 0.00140493 0.0
1.31247 -0.119983 0.0
1.31627 0.126542 0.0
0.865763 -0.160595 0.0
1.01543 0.00863595 0.0
0.990749 0.0066166 0.0
1.46634 -0.0328698 0.0
0.979098 0.000692636 0.0
0.47961 0.0603807 0.0
1.17273 0.0624172 0.0
1.64766 -0.254192 0.0
1.02121 0.00461137 0.0
1.05944 -0.0663086 0.0
1.03758 -0.00034051 0.0
1.25311 0.904905 0.0
1.07099 -0.00227384 0.0
1.02434 0.00283681 0.0
1.29897 -0.199431 0.0
1.07637 -0.0253926 0.0
1.32175 -0.0836644 0.0
1.46241 -0.0648969 0.0
1.33199 0.0902539 0.0
0.868213 -0.0368977 0.0
1.52043 0.0026691 0.0
1.01406 0.00690743 0.0
1.25673 -0.0565857 0.0
1.35888 0.156954 0.0
1.21268 -0.0554004 0.0
1.05041 -0.167832 0.0
0.359561 0.0205045 0.0
1.38219 0.14135 0.0
1.76451 -0.179801 0.0
1.41329 -0.0454369 0.0
1.05282 -0.237186 0.0
0.503195 0.00684917 0.0
1.39921 -0.16723 0.0
0.498464 -0.00725077 0.0
1.2016 0.0990591 0.0
1.11525 0.0258456 0.0
1.61302 -0.313103 0.0
1.23971 -0.0104801 0.0
1.21376 0.000960112 0.0
1.29083 -0.417496 0.0
0.869548 -0.00364995 0.0
1.40867 -0.0823708 0.0
1.77524 -0.279605 0.0
1.51898 -0.0287141 0.0
1.15092 -0.0400364 0.0
1.12704 -0.000239778 0.0
1.65842 -0.0990837 0.0
1.68774 -0.19936 0.0
1.15855 0.847307 0.0
0.994735 -0.000142807 0.0
0.195614 0.0357794 0.0
1.02713 0.00704074 0.0
-0.240039 0.0714396 0.0
1.33192 0.227577 0.0
-0.279574 0.0862065 0.0
1.16673 -0.00163101 0.0
0.863252 -0.0258849 0.0
0.218214 0.0244424 0.0
1.16753 -0.00535045 0.0
0.793452 0.0141397 0.0
1.16648 -0.00490097 0.0
0.791746 -0.0137302 0.0
1.2058 0.00727346 0.0
0.881295 0.157086 0.0
0.942488 0.00716739 0.0
1.63145 -0.0464979 0.0
0.979722 -0.0346167 0.0
0.612671 0.00127245 0.0
1.75195 -0.383004 0.0
1.15969 -0.246729 0.0
0.658118 0.0119042 0.0
1.26146 -0.227366 0.0
1.34581 0.170067 0.0
0.919404 -0.0667411 0.0
1.20696 0.178056 0.0
0.0861134 0.0984703 0.0
1.83885 0.530385 0.0
1.19138 0.00333248 0.0
1.27213 0.0101949 0.0
-0.189637 -0.0110345 0.0
-0.347992 0.0782989 0.0
1.44317 -0.064647 0.0
1.18242 -0.0407593 0.0
0.985672 0.00125175 0.0
0.849271 -0.0258489 0.0
-0.184462 0.0905956 0.0
1.01773 -0.0113507 0.0
-0.244232 0.112587 0.0
1.08214 -0.098557 0.0
1.15861 -0.0147609 0.0
0.947139 0.00257902 0.0
1.63918 -0.161256 0.0
1.74236 -0.67064 0.0
1.27316 -0.397901 0.0
1.07134 -0.0619829 0.0
0.4983 -0.0236476 0.0
1.788 0.649654 0.0
1.22383 0.00321328 0.0
1.48536 -0.109215 0.0
1.23097 0.189692 0.0
0.131644 0.0759799 0.0
1.44146 -0.0270018 0.0
1.08012 0.0148845 0.0
1.44262 0.0400886 0.0
1.41408 0.00476543 0.0
1.39193 0.0529411 0.0
1.06591 -0.00219468 0.0
0.255348 0.0397281 0.0
1.19012 0.0421758 0.0
1.51966 0.581801 0.0
1.25162 0.108255 0.0
0.919975 -0.0634809 0.0
0.726871 -0.0993511 0.0
1.20478 0.0860566 0.0
1.44702 -0.0429442 0.0
1.11876 0.0245548 0.0
1.74957 0.50139 0.0
0.549918 -0.0713174 0.0
1.16546 -0.0149438 0.0
0.621877 -0.00172092 0.0
0.885935 0.0638811 0.0
1.60329 -0.0215856 0.0
1.0195 -0.153257 0.0
-0.276049 0.0745704 0.0
0.12319 0.0625193 0.0
1.22663 0.0822311 0.0
1.04866 -0.0252432 0.0
1.66383 -0.761311 0.0
1.50088 0.00357303 0.0
1.03538 0.00600928 0.0
1.07835 -0.245052 0.0
1.00497 0.00699343 0.0
1.52353 0.00722621 0.0
0.0223814 0.0311814 0.0
-0.254476 0.0380537 0.0
-0.182722 0.00602752 0.0
0.6415 0.0154085 0.0
0.652821 -0.0116724 0.0
0.555344 -0.101532 0.0
1.0349 -0.00710296 0.0
1.79634 -0.332602 0.0
1.04791 -0.15341 0.0
1.20282 -0.0491844 0.0
1.20456 0.0544225 0.0
0.485007 -0.000911351 0.0
1.64364 0.0738217 0.0
0.857149 0.0303779 0.0
1.2484 -0.0569972 0.0
-0.230504 0.0469886 0.0
1.74047 0.446501 0.0
1.14316 0.00815583 0.0
1.22204 -0.204902 0.0
1.14307 0.0341501 0.0
1.05422 0.130244 0.0
0.982085 -0.000685074 0.0
0.987064 0.109855 0.0
0.565598 -0.00348697 0.0
1.17145 -0.0341402 0.0
0.929154 -0.0246771 0.0
1.23381 0.0035356 0.0
1.36547 0.265541 0.0
1.19103 0.0866142 0.0
1.105 0.00563419 0.0
1.11596 0.00644348 0.0
1.18261 0.19871 0.0
1.12009 -0.287605 0.0
1.11417 0.0120092 0.0
1.16602 -0.225273 0.0
1.11943 0.00910118 0.0
0.363135 0.110212 0.0
1.08768 -0.64437 0.0
0.730581 -0.127092 0.0
1.0246 -0.00855978 0.0
0.765702 -0.0789947 0.0
0.762224 -0.0636691 0.0
1.02747 0.00774822 0.0
1.05545 0.0959228 0.0
0.461053 0.0470125 0.0
0.889595 -0.829904 0.0
1.77863 0.34509 0.0
1.02835 -0.0020838 0.0
0.983494 0.00660514 0.0
0.667347 0.0602307 0.0
0.853009 0.0569248 0.0
0.397737 0.0590094 0.0
0.998969 -0.0150037 0.0
1.42771 -0.0322273 0.0
1.44964 0.581444 0.0
1.15458 0.193114 0.0
1.06918 -0.0135501 0.0
1.42685 0.0384027 0.0
1.04164 -0.0923118 0.0
1.40105 -0.0914873 0.0
1.436 -0.0446934 0.0
0.483249 0.0244135 0.0
0.662303 0.0125957 0.0
0.899986 -0.0227554 0.0
0.857756 0.0335039 0.0
0.518486 0.017126 0.0
0.514352 -0.00298169 0.0
1.79011 0.286515 0.0
1.11179 0.0116049 0.0
1.44071 -0.00357392 0.0
1.12155 0.0121391 0.0
0.731648 -0.0773873 0.0
1.51121 -0.0906922 0.0
1.17581 -0.0306676 0.0
1.16318 -0.0129415 0.0
0.833097 -0.0495832 0.0
1.67135 -0.0705192 0.0
1.01022 0.0553435 0.0
0.996213 0.0113845 0.0
0.958808 -0.0261717 0.0
1.23223 0.00252507 0.0
1.43552 -0.137342 0.0
1.72981 -0.600865 0.0
1.18392 -0.00593003 0.0
1.20257 -0.0109991 0.0
0.991179 -0.000293281 0.0
1.06355 -0.132777 0.0
1.02873 -0.0101737 0.0
0.997013 -0.00667079 0.0
1.25792 0.310859 0.0
1.03831 -0.25662 0.0
1.09404 0.171561 0.0
1.31879 0.132417 0.0
0.743716 -0.106709 0.0
0.355088 -0.0454552 0.0
0.95888 0.0159378 0.0
1.4387 0.057025 0.0
1.42204 0.918327 0.0
0.682938 -0.0851893 0.0
1.15137 -0.0172495 0.0
1.70424 0.140327 0.0
1.09691 -0.898562 0.0
0.868426 -0.177616 0.0
1.14116 -0.0375597 0.0
0.560062 -0.00837948 0.0
1.02621 0.02707 0.0
0.544594 -0.0096539 0.0
1.03152 -0.00470442 0.0
1.22486 0.00311529 0.0
0.619227 -0.0119182 0.0
0.775793 -0.0336707 0.0
1.09484 -0.28547 0.0
1.32608 -0.104615 0.0
1.22259 0.000845782 0.0
1.01984 -0.00169401 0.0
1.00242 0.00854008 0.0
0.508226 -0.00577095 0.0
1.2258 0.0058288 0.0
0.736826 -0.0260665 0.0
1.12797 0.0435019 0.0
0.995521 -0.00998075 0.0
0.567017 0.0034559 0.0
1.24094 -0.109925 0.0
1.2274 -0.171021 0.0
0.789429 -0.0266368 0.0
1.13964 -0.065317 0.0
0.585805 0.00169101 0.0
0.982956 -0.0152115 0.0
0.116383 0.0673846 0.0
1.20133 7.31542e-05 0.0
1.19721 -0.010453 0.0
0.595912 -0.00400544 0.0
0.942549 -0.194244 0.0
0.987131 -0.0152615 0.0
1.42998 0.154454 0.0
1.1975 0.00104017 0.0
1.23343 -0.00131312 0.0
1.22356 -0.170782 0.0
1.23478 -0.00283267 0.0
1.23358 0.000850181 0.0
1.17153 -0.0171141 0.0
0.934843 -0.114542 0.0
0.835802 0.0428677 0.0
1.23466 -0.00506268 0.0
1.23178 -0.000717592 0.0
1.22718 -0.00190992 0.0
0.63493 0.0704983 0.0
0.458496 0.00503216 0.0
0.998085 0.00999511 0.0
0.546622 -0.00752724 0.0
1.23299 -0.00555247 0.0
1.00228 -0.0180657 0.0
1.16206 0.0102808 0.0
-0.261319 -0.0268339 0.0
0.966689 -0.0118442 0.0
0.500981 -0.00458751 0.0
1.31888 -0.604721 0.0
1.12253 -0.00736728 0.0
0.970616 -0.0157957 0.0
0.525501 -0.0100809 0.0
1.23286 -0.00317842 0.0
0.868392 0.0407404 0.0
0.533732 0.00162546 0.0
0.992759 -0.0152644 0.0
1.23317 -0.0056372 0.0
1.22608 -0.00266739 0.0
1.23124 -0.00318611 0.0
0.622128 -0.00711436 0.0
0.445611 0.00020891 0.0
1.2304 -0.0064996 0.0
1.14157 -0.073479 0.0
1.2048 -0.00724496 0.0
0.604221 0.00998867 0.0
1.18496 -0.00815529 0.0
1.22376 -0.00564522 0.0
1.21079 0.000971355 0.0
1.23557 -0.00729119 0.0
0.466408 -0.0067346 0.0
1.22867 -0.00643796 0.0
1.23024 -0.00657109 0.0
1.22033 -0.00690205 0.0
0.456091 -0.0038068 0.0
1.21627 -0.00287346 0.0
1.18321 -0.00615778 0.0
1.20106 -0.00110806 0.0
1.23298 -0.00741345 0.0
1.17043 -0.157871 0.0
1.12937 0.00142737 0.0
1.23418 -0.0074706 0.0
1.35089 0.668533 0.0
1.2178 -0.00655647 0.0
0.509644 -0.00693187 0.0
1.09732 -0.0220855 0.0
0.564893 0.0080787 0.0
0.594606 -0.00934894 0.0
1.11751 0.00694078 0.0
1.09717 -0.0123818 0.0
1.07091 -0.00780063 0.0
0.532971 -0.00804833 0.0
1.10309 -0.0217829 0.0
1.12438 0.00553275 0.0
1.23138 -0.0078512 0.0
1.0738 0.139002 0.0
1.15505 -0.696809 0.0
0.56328 -0.00475298 0.0
0.521415 -0.005403 0.0
1.22663 -0.00589516 0.0
1.22849 -0.00815717 0.0
0.619418 -0.0183144 0.0
0.509532 -0.00923036 0.0
1.22391 -0.00511934 0.0
0.992205 0.0165752 0.0
1.16117 0.0114109 0.0
1.15588 -0.0074465 0.0
0.56663 0.00714426 0.0
0.518142 -0.00221487 0.0
1.14375 0.0172258 0.0
0.602735 0.0141851 0.0
0.568723 0.0146563 0.0
1.17369 0.00901553 0.0
0.619133 0.0205938 0.0
0.57095 -0.000839671 0.0
1.21423 -0.00428115 0.0
1.20161 -0.00339971 0.0
0.961863 0.0162199 0.0
1.21063 -0.00193897 0.0
1.18257 -0.00209544 0.0
1.2185 -0.00319776 0.0
0.982831 0.0123274 0.0
1.15187 -0.00281227 0.0
0.607501 0.00585212 0.0
0.500949 0.0140365 0.0
0.551063 0.0141421 0.0
0.466774 -0.00803216 0.0
0.532882 0.000780264 0.0
0.556454 -0.00528714 0.0
0.526405 -0.00281735 0.0
0.640019 -0.0138075 0.0
0.541777 -0.00461207 0.0
0.574191 0.0133278 0.0
0.487264 -0.00744297 0.0
0.576359 0.0155295 0.0
0.495244 0.00010244 0.0
0.678988 0.0213173 0.0
0.578394 0.0100779 0.0
0.572247 -0.0114888 0.0
0.488742 0.00272814 0.0
0.527102 -0.00222203 0.0
0.509179 0.00785643 0.0
0.612004 -0.00976973 0.0
0.533528 -0.000973445 0.0
0.601427 -0.00766028 0.0
0.558844 -0.012322 0.0
0.544723 0.00678175 0.0
0.522561 9.48748e-05 0.0
0.538252 0.00401317 0.0
0.478388 -0.0169856 0.0
0.491903 0.0196897 0.0
0.494128 0.000455472 0.0
0.556775 -0.00717882 0.0
0.494293 0.00318005 0.0
0.646249 -0.0210706 0.0
0.492095 0.00621217 0.0
0.464497 0.00544081 0.0
0.506173 0.000921437 0.0
0.48335 -0.00276287 0.0
1.18093 -0.00130176 0.0
1.16152 -0.00628876 0.0
1.22663 -0.00738592 0.0
1.22441 -0.00510441 0.0
1.22752 -0.00533095 0.0
1.11919 -0.00778083 0.0
1.19798 -0.0069936 0.0
1.17892 -0.00667147 0.0
1.18234 0.00467604 0.0
1.15443 -0.00149818 0.0
1.21036 -0.0079221 0.0
1.21297 -0.00866169 0.0
1.17479 -0.00653933 0.0
1.21976 -0.00369819 0.0
1.19569 -0.000470323 0.0
1.22116 -0.00610482 0.0
1.19406 -0.00720039 0.0
1.15236 0.00154995 0.0
1.21751 -0.00621002 0.0
1.22275 -0.00426178 0.0
1.20787 -0.00101221 0.0
1.22123 -0.00371413 0.0
1.21674 -0.00515131 0.0
1.1565 -0.00893942 0.0
1.22079 -0.00188017 0.0
1.19782 -0.00337871 0.0
1.21781 -0.00125773 0.0
1.12058 -0.00143443 0.0
1.19929 -0.00280743 0.0
1.19189 0.00173122 0.0
1.21278 -0.0014638 0.0
1.17578 -0.00147792 0.0
1.21267 -0.00237251 0.0
1.21586 -0.00242795 0.0
1.1857 0.00434794 0.0
1.2162 -0.00141775 0.0
1.20829 -0.00413402 0.0
1.21072 0.000574824 0.0
1.15283 -0.0084795 0.0
1.17758 -0.00248087 0.0
1.21378 0.000332545 0.0
1.20573 -0.00341538 0.0
1.2023 0.00212508 0.0
1.1992 0.00356367 0.0
1.1605 -0.0126819 0.0
1.211 0.000388382 0.0
1.20749 0.000759878 0.0
1.13784 -0.00600003 0.0
1.19365 -0.00433769 0.0
1.12185 0.00320091 0.0
1.17957 -0.00437554 0.0
1.18974 -0.00398529 0.0
1.20184 -0.00367223 0.0
1.20779 -0.00129701 0.0
1.17534 -0.00449296 0.0
1.20548 -0.00349881 0.0
1.20392 -0.00105146 0.0
1.20577 0.000484072 0.0
1.20194 0.00302757 0.0
1.19848 0.00335087 0.0
1.19553 0.00364846 0.0
1.18438 0.00595529 0.0
1.13601 -0.00646323 0.0
1.09404 0.00782173 0.0
1.17905 0.0070853 0.0
1.2017 0.000872516 0.0
0.576592 -0.00620948 0.0
1.1879 0.00591184 0.0
1.14852 0.00757195 0.0
1.17066 0.00786522 0.0
1.19947 0.00301283 0.0
1.16824 0.00754522 0.0
1.17843 0.00562285 0.0
1.17129 0.000196371 0.0
1.19051 0.0054233 0.0
1.17826 -0.000897067 0.0
1.13364 -0.00528687 0.0
1.13335 -0.00820954 0.0
1.15686 -0.00497638 0.0
1.18691 0.00665532 0.0
1.17493 -0.00424493 0.0
1.1853 0.00337337 0.0
1.16833 -0.00408005 0.0
1.18526 -0.0039719 0.0
1.18929 0.0028145 0.0
1.18252 0.00587915 0.0
0.979064 -0.0138517 0.0
1.17284 -0.0036648 0.0
1.1751 0.0078144 0.0
1.14569 0.00910431 0.0
1.1903 -0.00241578 0.0
1.19407 0.000171277 0.0
1.08242 -0.0177159 0.0
1.16532 0.0109719 0.0
1.17901 -0.00364758 0.0
1.14707 0.0150056 0.0
1.18967 -6.87344e-05 0.0
1.14981 0.017683 0.0
1.16784 -0.00445693 0.0
1.19391 -0.00237756 0.0
1.17484 -0.00114883 0.0
1.11937 0.176575 0.0
1.15283 -0.00744257 0.0
1.22263 -0.00950606 0.0
1.17092 0.00950795 0.0
1.17544 0.00114956 0.0
1.15745 -0.0134916 0.0
1.16127 -0.00359884 0.0
1.13932 -0.00311574 0.0
1.16131 -0.00960582 0.0
1.16764 0.00270147 0.0
1.14083 -0.00122644 0.0
1.16259 0.0023732 0.0
1.16391 -0.00682511 0.0
1.16378 -0.0028809 0.0
1.14929 0.0120275 0.0
1.15998 -0.0052193 0.0
0.71857 -0.0205111 0.0
0.972224 0.00496301 0.0
1.14475 0.0142834 0.0
1.14747 0.00949414 0.0
1.15473 -0.00767412 0.0
1.1413 0.0119682 0.0
1.14786 0.014386 0.0
1.14473 -0.00232395 0.0
1.12722 0.000924133 0.0
1.13964 -0.00309715 0.0
1.13318 0.00100625 0.0
1.12122 0.0120779 0.0
1.15791 0.00573116 0.0
1.15213 0.00861017 0.0
0.995156 0.00869498 0.0
1.15333 0.00592298 0.0
1.15755 0.0117153 0.0
1.1503 0.0121716 0.0
1.11458 0.0151776 0.0
1.13597 0.0157162 0.0
1.1544 0.0126574 0.0
1.73545 0.181678 0.0
1.11953 -0.0104901 0.0
1.12731 0.0192665 0.0
1.09961 -0.0222007 0.0
1.1494 0.0218478 0.0
1.14764 0.0161481 0.0
1.11322 -0.0128505 0.0
1.14643 0.0219643 0.0
1.22297 -0.00627173 0.0
1.07059 -0.00975526 0.0
1.09894 0.0152719 0.0
1.09678 -0.00684061 0.0
1.30722 0.126029 0.0
1.21843 -0.00548739 0.0
1.08378 -0.00219991 0.0
1.15529 -0.0076639 0.0
1.14009 0.0281603 0.0
1.14661 0.0224382 0.0
1.08935 -0.00846422 0.0
1.0938 -0.0272488 0.0
0.980745 -0.0156904 0.0
1.19398 -0.00156495 0.0
1.06679 0.00069611 0.0
1.07639 0.000229291 0.0
1.12068 0.024705 0.0
1.12006 -0.0266832 0.0
1.02974 0.198339 0.0
0.960944 -0.0156949 0.0
1.13626 0.033779 0.0
0.442041 -0.164358 0.0
1.38217 0.131399 0.0
1.1814 -0.0521311 0.0
1.06448 0.0103029 0.0
1.06572 0.0257252 0.0
1.05399 0.0363957 0.0
1.21906 -0.00208422 0.0
1.05206 0.0143368 0.0
1.03754 -0.0440404 0.0
1.30216 0.175952 0.0
1.00318 -0.142406 0.0
1.03268 -0.0577682 0.0
1.15151 -0.133297 0.0
1.1492 -0.0129144 0.0
1.09515 -0.0480419 0.0
1.18127 -0.00356113 0.0
0.936353 0.00178948 0.0
1.181 0.0540291 0.0
1.00792 -0.0138566 0.0
1.23792 -0.101783 0.0
1.21703 -0.00567212 0.0
1.20474 -0.00656041 0.0
1.05513 -0.0199639 0.0
1.39838 -0.567471 0.0
1.13237 0.0834511 0.0
0.994696 -0.0202234 0.0
1.13254 0.0669004 0.0
0.956813 0.00150945 0.0
0.758329 0.0280844 0.0
1.08951 0.0449525 0.0
1.32725 -0.160587 0.0
0.933074 -0.0907815 0.0
1.09864 -0.0395991 0.0
0.632625 -0.556521 0.0
1.11054 -0.0280074 0.0
1.11655 -0.0072565 0.0
1.15426 -0.0078068 0.0
1.39115 -0.139377 0.0
1.08021 0.0600477 0.0
1.18124 -0.0027663 0.0
1.04702 -0.0262036 0.0
1.16351 0.0361747 0.0
0.989143 -0.0180671 0.0
1.34995 -0.77179 0.0
1.22754 0.00447598 0.0
1.17966 0.0514458 0.0
1.2025 0.00274287 0.0
1.12687 -0.000854029 0.0
1.18052 -0.0565081 0.0
1.06594 0.0201281 0.0
1.21078 0.0814242 0.0
1.1224 -0.00790788 0.0
1.15901 0.0441341 0.0
0.955838 0.00169209 0.0
1.15223 0.0112249 0.0
1.1805 -0.531637 0.0
0.659768 -0.00604712 0.0
0.681334 -0.0231439 0.0
0.924738 0.0271222 0.0
1.26624 0.11967 0.0
1.1531 -0.00621014 0.0
1.18199 -0.00504115 0.0
0.607484 0.0101674 0.0
1.20216 -0.00586013 0.0
0.32793 -0.123527 0.0
1.07321 -0.0992159 0.0
0.549855 0.00918633 0.0
0.556225 -0.0108713 0.0
0.899344 0.0402945 0.0
1.15833 -0.00632156 0.0
0.863952 -0.174346 0.0
0.847085 -0.0255169 0.0
1.68893 -0.125083 0.0
0.941696 0.0373869 0.0
1.15266 -0.0106932 0.0
1.15326 -0.0121536 0.0
1.05369 0.00873007 0.0
1.2247 0.00339951 0.0
1.17943 0.00113237 0.0
1.18511 0.348334 0.0
0.620906 0.0173257 0.0
1.02081 0.00169457 0.0
1.36955 -0.0978462 0.0
0.537848 0.00769842 0.0
1.58076 0.560944 0.0
0.933761 -0.0417538 0.0
0.79625 -0.0266689 0.0
1.34135 0.088163 0.0
0.781803 -0.0538147 0.0
0.955705 -0.00125663 0.0
0.668438 -0.116163 0.0
1.15551 -0.0169321 0.0
0.88101 0.0996591 0.0
1.13548 -0.0145042 0.0
0.658694 -0.00413658 0.0
1.03058 0.00550832 0.0
0.980447 0.136261 0.0
1.40942 -0.0326595 0.0
0.520959 -0.0035771 0.0
0.636398 -0.0245582 0.0
0.918748 0.805445 0.0
1.11054 -0.00104732 0.0
1.05185 0.011583 0.0
1.39254 0.0136238 0.0
0.602743 -0.0104815 0.0
1.13174 0.0184955 0.0
1.16664 -0.448607 0.0
0.186485 0.022394 0.0
0.925032 -0.063258 0.0
1.07012 -0.0832995 0.0
0.735564 0.0239318 0.0
0.518966 0.0178462 0.0
1.64903 0.0363906 0.0
1.15516 -0.00526833 0.0
0.311487 0.0152321 0.0
0.571499 0.024932 0.0
1.14457 -0.00603284 0.0
1.20393 -0.00622079 0.0
1.00244 -0.0187522 0.0
0.937903 0.0623904 0.0
1.20928 0.172598 0.0
0.640783 0.0108037 0.0
1.2061 0.00744006 0.0
0.919417 0.0928445 0.0
1.20948 -0.00881948 0.0
1.38798 -0.59346 0.0
0.510989 0.00120644 0.0
1.45934 -0.12989 0.0
1.1102 0.00855465 0.0
0.949532 -0.0142902 0.0
0.621602 0.0903349 0.0
0.991175 0.101862 0.0
0.897476 0.139873 0.0
1.11289 0.00992588 0.0
1.21797 -0.0579788 0.0
1.39921 -0.0369349 0.0
0.587308 0.00503158 0.0
0.611412 0.0150006 0.0
1.07339 -0.00369832 0.0
0.404543 -0.0728942 0.0
1.04407 0.0365751 0.0
0.492241 0.00345166 0.0
0.963086 -0.0113207 0.0
1.11148 -0.0045247 0.0
0.940264 -0.00954871 0.0
0.558293 -0.00673839 0.0
0.556997 0.0187295 0.0
0.56805 0.00956559 0.0
0.511073 0.00716133 0.0
0.587263 0.0114497 0.0
1.21071 0.669598 0.0
1.36091 0.069592 0.0
0.965677 -0.00315542 0.0
0.537297 0.0080789 0.0
0.549127 -0.0127128 0.0
0.699932 0.024942 0.0
1.1569 -0.0474472 0.0
0.619747 0.00109515 0.0
1.60378 -0.193102 0.0
1.29611 0.0954508 0.0
0.536926 -0.140688 0.0
1.3455 -0.0936213 0.0
1.52681 -0.466856 0.0
1.01086 0.00552679 0.0
1.09093 0.0186295 0.0
1.14015 -0.0122535 0.0
0.959626 0.00336568 0.0
0.837046 -0.689207 0.0
1.0278 -0.00200612 0.0
0.98001 -0.00572361 0.0
1.20428 -0.0131033 0.0
1.12261 -0.0341125 0.0
1.6483 -0.000142434 0.0
-0.120905 0.0977447 0.0
0.506376 -0.0687162 0.0
1.33616 0.518183 0.0
1.07274 -0.0121579 0.0
0.608029 -0.0120512 0.0
0.579057 -0.00576182 0.0
0.573757 -0.00610365 0.0
1.22575 0.00549291 0.0
0.63361 0.211226 0.0
1.17453 -0.0245087 0.0
0.977077 0.012699 0.0
0.751129 0.163037 0.0
1.1254 -0.00165777 0.0
0.13812 -0.00968884 0.0
1.19183 0.00561385 0.0
0.565558 0.0208943 0.0
0.563194 -0.0104297 0.0
1.33998 0.0854797 0.0
0.838475 -0.0116997 0.0
1.50628 0.0319841 0.0
0.974423 0.0154443 0.0
0.990218 0.0116912 0.0
0.111428 -0.166264 0.0
0.971428 0.0291293 0.0
1.16933 0.0135269 0.0
1.15233 0.0135512 0.0
0.355908 -0.136145 0.0
1.61632 -0.273232 0.0
1.09487 -0.000616492 0.0
1.28745 0.194983 0.0
0.589378 -0.0140825 0.0
0.556276 -0.00771948 0.0
1.12384 -0.0166892 0.0
0.530602 0.0896643 0.0
1.12472 -0.0271376 0.0
0.809699 0.0217525 0.0
0.935304 -0.00827838 0.0
1.13096 0.0122687 0.0
0.995037 -0.00321856 0.0
0.201884 -0.0209015 0.0
1.14996 -0.0134029 0.0
0.309773 0.0604578 0.0
1.01 -0.000256359 0.0
1.00036 -0.00383646 0.0
0.575898 -0.0154238 0.0
1.07274 -0.00938401 0.0
1.17455 -0.0247121 0.0
0.947525 0.000843712 0.0
0.991825 -0.013583 0.0
1.20021 -0.96461 0.0
1.1322 0.0223251 0.0
1.69269 0.486948 0.0
0.552246 -0.0167163 0.0
0.541317 0.00646809 0.0
1.16696 0.00648236 0.0
1.22818 -0.00663664 0.0
1.11438 -0.00844007 0.0
1.12312 -0.00167616 0.0
1.1811 0.00636045 0.0
1.13117 0.00592625 0.0
1.21922 -0.009428 0.0
1.15073 0.0257288 0.0
-0.198411 0.0188082 0.0
1.10388 0.0149476 0.0
-0.0252837 0.0287424 0.0
0.664477 -0.0256698 0.0
1.20443 -0.177446 0.0
1.14808 -0.0122687 0.0
1.36841 -0.137959 0.0
1.64629 -0.502434 0.0
0.314249 -0.0181112 0.0
1.213 -0.00875875 0.0
1.129 0.272022 0.0
1.35141 -0.0982527 0.0
1.07137 0.305699 0.0
1.70948 0.086897 0.0
0.975232 -0.542439 0.0
1.37208 0.132337 0.0
1.12214 -0.0164406 0.0
1.28963 -0.480968 0.0
-0.0873514 -0.108077 0.0
1.06043 -0.000196545 0.0
1.31864 -0.394859 0.0
0.495273 -0.00488665 0.0
1.41866 -0.14997 0.0
1.68465 0.198486 0.0
1.0915 0.0136954 0.0
0.39225 0.0156617 0.0
0.717031 0.00183615 0.0
0.267866 -0.228443 0.0
0.957093 0.0459468 0.0
-0.118688 -0.0299231 0.0
1.14645 -0.162384 0.0
1.4964 0.143715 0.0
0.537266 0.00907926 0.0
1.22931 -0.068764 0.0
0.965422 0.000637991 0.0
1.21679 0.00473797 0.0
0.435145 -0.615502 0.0
1.22864 0.264383 0.0
0.729224 -0.162542 0.0
0.191332 -0.330919 0.0
0.51756 0.160695 0.0
1.3026 0.238504 0.0
0.597948 0.152196 0.0
0.968932 -0.0130675 0.0
1.14103 -0.0165515 0.0
1.08275 0.0111773 0.0
1.07666 0.00879956 0.0
0.571242 0.00732322 0.0
0.0236442 0.0820152 0.0
1.3083 0.299794 0.0
0.467925 -0.00221136 0.0
1.1015 0.0102659 0.0
0.264443 0.216291 0.0