# vtk DataFile Version 3.0
Malha 2D com triângulos e temperatura
ASCII
DATASET UNSTRUCTURED_GRID

POINTS 688 double
0 0 0
2.2 0 0
2.2 0.41 0
0 0.41 0
0.25 0.2 0
0.05 0 0
0.1 0 0
0.15 0 0
0.2 0 0
0.25 0 0
0.3 0 0
0.35 0 0
0.4 0 0
0.45 0 0
0.5 0 0
0.55 0 0
0.6 0 0
0.65 0 0
0.7 0 0
0.75 0 0
0.8 0 0
0.85 0 0
0.9 0 0
0.95 0 0
1 0 0
1.05 0 0
1.1 0 0
1.15 0 0
1.2 0 0
1.25 0 0
1.3 0 0
1.35 0 0
1.4 0 0
1.45 0 0
1.5 0 0
1.55 0 0
1.6 0 0
1.65 0 0
1.7 0 0
1.75 0 0
1.8 0 0
1.85 0 0
1.9 0 0
1.95 0 0
2 0 0
2.05 0 0
2.1 0 0
2.15 0 0
2.2 0.0455556 0
2.2 0.0911111 0
2.2 0.136667 0
2.2 0.182222 0
2.2 0.227778 0
2.2 0.273333 0
2.2 0.318889 0
2.2 0.364444 0
2.15 0.41 0
2.1 0.41 0
2.05 0.41 0
2 0.41 0
1.95 0.41 0
1.9 0.41 0
1.85 0.41 0
1.8 0.41 0
1.75 0.41 0
1.7 0.41 0
1.65 0.41 0
1.6 0.41 0
1.55 0.41 0
1.5 0.41 0
1.45 0.41 0
1.4 0.41 0
1.35 0.41 0
1.3 0.41 0
1.25 0.41 0
1.2 0.41 0
1.15 0.41 0
1.1 0.41 0
1.05 0.41 0
1 0.41 0
0.95 0.41 0
0.9 0.41 0
0.85 0.41 0
0.8 0.41 0
0.75 0.41 0
0.7 0.41 0
0.65 0.41 0
0.6 0.41 0
0.55 0.41 0
0.5 0.41 0
0.45 0.41 0
0.4 0.41 0
0.35 0.41 0
0.3 0.41 0
0.25 0.41 0
0.2 0.41 0
0.15 0.41 0
0.1 0.41 0
0.05 0.41 0
0 0.364444 0
0 0.318889 0
0 0.273333 0
0 0.227778 0
0 0.182222 0
0 0.136667 0
0 0.0911111 0
0 0.0455556 0
0.248831 0.210749 0
0.245379 0.220994 0
0.239805 0.230259 0
0.232369 0.238108 0
0.22342 0.244176 0
0.213376 0.248177 0
0.202707 0.249927 0
0.191911 0.249341 0
0.181493 0.246449 0
0.171941 0.241384 0
0.1637 0.234385 0
0.157157 0.225778 0
0.152617 0.215965 0
0.150293 0.205406 0
0.150293 0.194594 0
0.152617 0.184035 0
0.157157 0.174222 0
0.1637 0.165615 0
0.171941 0.158616 0
0.181493 0.153551 0
0.191911 0.150659 0
0.202707 0.150073 0
0.213376 0.151823 0
0.22342 0.155824 0
0.232369 0.161892 0
0.239805 0.169741 0
0.245379 0.179006 0
0.248831 0.189251 0
0.421316 0.36725 0
0.426705 0.0366526 0
2.16065 0.209201 0
1.52286 0.0417259 0
0.626017 0.37111 0
1.3257 0.0414552 0
1.02471 0.0432237 0
1.17293 0.0421053 0
0.82501 0.36678 0
1.6757 0.370064 0
1.91628 0.0358195 0
1.82501 0.366432 0
0.723429 0.0421499 0
1.425 0.366699 0
1.97461 0.366224 0
1.12167 0.370137 0
0.975 0.368691 0
0.877672 0.0412714 0
1.27686 0.36884 0
1.725 0.0433013 0
0.579174 0.0416211 0
0.325589 0.363848 0
0.319111 0.0378151 0
0.0394523 0.296111 0
0.0329929 0.11602 0
0.142108 0.187428 0
1.57555 0.364352 0
2.02603 0.0412138 0
0.725007 0.36763 0
0.528647 0.366595 0
1.62699 0.0400272 0
1.82929 0.0421255 0
1.425 0.0418325 0
2.07474 0.364233 0
0.125 0.0433013 0
0.161245 0.155011 0
0.225 0.366699 0
0.210027 0.258536 0
2.16034 0.115449 0
0.0371627 0.204103 0
0.142311 0.212698 0
0.220283 0.0418538 0
0.221965 0.145099 0
0.196802 0.141016 0
0.119851 0.373394 0
0.161112 0.245979 0
0.184892 0.258024 0
2.16342 0.30039 0
2.12627 0.047699 0
0.183325 0.0412617 0
0.152317 0.0762976 0
0.203864 0.0745802 0
0.234384 0.0774346 0
0.215969 0.103585 0
0.245651 0.104548 0
0.186562 0.100216 0
0.268213 0.0793029 0
0.272149 0.109155 0
0.242885 0.159377 0
0.253088 0.128261 0
0.278718 0.13214 0
0.295917 0.115997 0
0.301728 0.138858 0
0.321266 0.12205 0
0.324642 0.151724 0
0.255978 0.181139 0
0.350123 0.129049 0
0.357539 0.159885 0
0.333541 0.181416 0
0.36451 0.19182 0
0.250573 0.230419 0
0.391277 0.169722 0
0.339477 0.212308 0
0.39836 0.205386 0
0.427326 0.18117 0
0.258724 0.206387 0
0.434392 0.219501 0
0.466446 0.193907 0
0.472865 0.243064 0
0.507358 0.209962 0
0.40073 0.238916 0
0.499135 0.1652 0
0.5419 0.179224 0
0.550176 0.22496 0
0.585844 0.194129 0
0.594095 0.240176 0
0.630701 0.209517 0
0.621901 0.162424 0
0.667731 0.178095 0
0.676485 0.226008 0
0.713906 0.194492 0
0.722681 0.242872 0
0.760442 0.211047 0
0.751547 0.162356 0
0.798298 0.179 0
0.807147 0.227866 0
0.845136 0.195775 0
0.854541 0.243285 0
0.892163 0.212344 0
0.902461 0.257947 0
0.93935 0.228684 0
0.930236 0.180167 0
0.977229 0.197066 0
0.986264 0.245777 0
1.02423 0.213991 0
1.0331 0.263172 0
1.07123 0.230975 0
1.06234 0.181814 0
1.10938 0.198721 0
1.09996 0.151012 0
1.14691 0.168161 0
1.15631 0.215921 0
1.19446 0.183678 0
1.20343 0.232645 0
1.2416 0.200322 0
1.23272 0.151117 0
1.2798 0.167954 0
1.28868 0.217167 0
1.32685 0.184862 0
1.33573 0.234064 0
1.3739 0.201768 0
0.789327 0.130094 0
1.38279 0.25097 0
1.42096 0.218674 0
1.41207 0.169471 0
1.45912 0.186378 0
1.46801 0.235581 0
1.50618 0.203285 0
1.51506 0.252489 0
1.55323 0.220192 0
1.54435 0.170989 0
1.5914 0.187896 0
1.60029 0.2371 0
1.63846 0.204803 0
1.64734 0.254007 0
1.68551 0.221711 0
1.67663 0.172507 0
1.72368 0.189415 0
1.73831 0.241548 0
1.77074 0.206322 0
1.76185 0.157121 0
1.8091 0.17428 0
1.81866 0.220885 0
1.85608 0.190621 0
1.86521 0.238879 0
1.90289 0.207671 0
1.91264 0.253772 0
1.94955 0.224093 0
1.94067 0.17593 0
1.98705 0.192828 0
1.99572 0.240997 0
2.0329 0.209382 0
2.02422 0.16161 0
2.04166 0.257286 0
0.419739 0.142889 0
0.968291 0.148058 0
0.310035 0.202211 0
0.316128 0.230863 0
0.658501 0.130052 0
0.685107 0.27445 0
1.34462 0.283266 0
1.16528 0.264896 0
1.84735 0.142081 0
0.557687 0.270604 0
1.21234 0.281769 0
1.58252 0.138692 0
0.533563 0.131933 0
0.489835 0.120004 0
1.45024 0.137174 0
2.06974 0.17785 0
2.06113 0.130713 0
0.283221 0.152215 0
0.921299 0.131169 0
0.343836 0.24295 0
0.319203 0.260002 0
0.235529 0.249617 0
0.347029 0.274099 0
0.291856 0.246297 0
0.295938 0.27548 0
0.272836 0.264931 0
0.27461 0.290522 0
0.251228 0.280224 0
0.253903 0.305808 0
0.232795 0.296709 0
0.298805 0.304058 0
1.0801 0.280176 0
1.47689 0.284785 0
1.05315 0.133468 0
1.09741 0.0970974 0
1.82427 0.272867 0
1.2701 0.118911 0
0.816337 0.277695 0
1.40432 0.121101 0
1.04244 0.320388 0
0.959305 0.103028 0
1.60923 0.286151 0
0.601674 0.286775 0
2.00739 0.280923 0
0.342592 0.0992796 0
0.375237 0.105729 0
1.52511 0.298716 0
1.53114 0.119823 0
0.733824 0.287256 0
0.613372 0.114719 0
0.645558 0.0838585 0
2.015 0.115858 0
1.22718 0.0994086 0
1.39166 0.29817 0
1.3564 0.329754 0
0.744134 0.11556 0
0.782853 0.0841771 0
0.826899 0.10047 0
1.17418 0.314034 0
0.520902 0.0906676 0
1.4967 0.329429 0
1.26048 0.0740437 0
0.365514 0.0716355 0
0.229836 0.121666 0
1.57453 0.09137 0
1.61938 0.110761 0
0.481716 0.0753791 0
0.14093 0.2 0
0.130041 0.192847 0
0.131507 0.178608 0
0.117165 0.184444 0
0.120761 0.164701 0
0.1156 0.199931 0
0.100804 0.174136 0
0.102545 0.153034 0
0.12169 0.143342 0
0.104604 0.13008 0
0.0809304 0.161171 0
0.128077 0.121858 0
0.106825 0.102278 0
0.082498 0.188728 0
0.0314738 0.158621 0
2.04625 0.310891 0
2.08475 0.27479 0
2.11394 0.138117 0
0.233149 0.151108 0
0.258724 0.193613 0
0.268522 0.184917 0
1.65397 0.301059 0
0.145962 0.224912 0
0.132503 0.222267 0
0.13746 0.236947 0
0.120111 0.233525 0
0.126593 0.25219 0
0.105294 0.247497 0
0.113343 0.26868 0
0.133997 0.271734 0
0.121622 0.292031 0
0.147069 0.292141 0
0.0896563 0.267464 0
0.0813699 0.243294 0
0.163574 0.276939 0
0.172694 0.298517 0
0.1583 0.321483 0
0.186823 0.322499 0
0.173113 0.348195 0
0.0322087 0.250839 0
0.211694 0.124337 0
0.250615 0.169546 0
0.256243 0.157787 0
0.170796 0.14736 0
0.156755 0.141654 0
0.17187 0.131161 0
0.147502 0.152323 0
0.198129 0.260662 0
0.206368 0.271663 0
0.220945 0.26864 0
0.190489 0.270628 0
0.198813 0.286731 0
0.55749 0.322277 0
0.520166 0.299321 0
0.235199 0.330709 0
0.267109 0.337524 0
0.172324 0.25256 0
0.255974 0.218859 0
0.268327 0.214994 0
0.184197 0.143083 0
0.188721 0.129954 0
0.209694 0.139146 0
0.269223 0.244007 0
0.252374 0.255244 0
0.282229 0.0410487 0
1.21977 0.330016 0
1.25733 0.296346 0
2.09358 0.0890819 0
0.244373 0.240984 0
0.0838116 0.115786 0
0.0797544 0.0817835 0
0.237449 0.264854 0
0.247178 0.146225 0
0.270136 0.2 0
0.28023 0.191334 0
0.263476 0.170737 0
0.371486 0.368728 0
0.396124 0.330051 0
0.440314 0.325693 0
0.357693 0.329668 0
0.476576 0.362035 0
0.29587 0.222914 0
0.307627 0.175476 0
0.079599 0.0406461 0
0.146062 0.252571 0
0.15162 0.125025 0
0.417223 0.294608 0
0.457089 0.286958 0
0.036619 0.338729 0
0.0713014 0.322193 0
0.0735823 0.36704 0
0.041143 0.0722223 0
0.693501 0.32349 0
0.145406 0.175484 0
0.138777 0.164467 0
0.300367 0.0698839 0
0.167025 0.112083 0
0.146978 0.105544 0
0.151909 0.236762 0
0.444611 0.106436 0
0.909355 0.0817561 0
0.282901 0.370713 0
1.61474 0.330739 0
0.578053 0.368179 0
0.824695 0.0487848 0
2.09634 0.3213 0
2.02276 0.364865 0
2.12532 0.363702 0
1.09789 0.328757 0
0.161137 0.260089 0
2.07793 0.225752 0
2.12079 0.240944 0
2.0747 0.0437362 0
1.89402 0.158846 0
1.93154 0.128738 0
1.8848 0.111477 0
1.8384 0.0926484 0
1.87744 0.0655304 0
1.7913 0.0793874 0
1.9712 0.046671 0
1.92502 0.366682 0
1.94563 0.325156 0
1.89941 0.326645 0
1.87499 0.367178 0
1.84989 0.323491 0
1.7997 0.321303 0
1.77183 0.280326 0
1.75031 0.321965 0
1.77491 0.365615 0
2.11727 0.191885 0
0.883187 0.163467 0
1.71449 0.140266 0
1.667 0.125342 0
1.70591 0.0884759 0
1.67732 0.042286 0
1.52278 0.370513 0
1.37512 0.04128 0
1.34848 0.0834574 0
0.776093 0.367587 0
1.125 0.0433013 0
1.15 0.0866019 0
1.07442 0.0496847 0
0.974527 0.0370837 0
1.47464 0.0427918 0
1.44953 0.0873752 0
1.17595 0.362984 0
1.025 0.366699 0
0.925007 0.367031 0
0.95 0.323404 0
0.897321 0.326356 0
0.874563 0.367261 0
0.846552 0.324465 0
1.62923 0.156667 0
1.32319 0.13033 0
1.69342 0.270472 0
1.49568 0.156227 0
1.56237 0.268721 0
1.44 0.319169 0
1.43005 0.267892 0
1.36502 0.152565 0
0.993446 0.294003 0
1.30179 0.321101 0
1.18235 0.127964 0
1.25016 0.2491 0
1.29638 0.266841 0
1.11824 0.247967 0
1.12945 0.294699 0
1.01527 0.165035 0
0.836192 0.147197 0
1.4998 0.0831488 0
1.00655 0.118664 0
0.872896 0.117126 0
0.70523 0.146383 0
1.96013 0.276645 0
0.769406 0.257102 0
0.699552 0.0908977 0
2.1587 0.162257 0
1.97813 0.145326 0
0.646036 0.302035 0
0.799423 0.326603 0
0.515621 0.255445 0
1.72538 0.366474 0
1.97009 0.0998346 0
1.57108 0.313772 0
0.577925 0.14549 0
0.638911 0.256447 0
0.407352 0.0771641 0
0.525103 0.042511 0
0.674231 0.370698 0
1.69802 0.321701 0
0.56947 0.0908728 0
1.75459 0.110239 0
1.80084 0.126127 0
0.673535 0.0431435 0
1.57391 0.0465733 0
2.04571 0.0828469 0
0.10002 0.225545 0
0.0788152 0.21577 0
0.369719 0.224393 0
0.210352 0.308739 0
1.22342 0.0432967 0
[...]
CELL_DATA 1241
VECTORS velocity double
1.01564 -0.00430045 0.0
1.21703 0.0666282 0.0
0.451311 -0.00121126 0.0
0.947044 0.00180998 0.0
1.04277 0.00542139 0.0
1.42282 0.103114 0.0
1.13439 0.0001766 0.0
0.981898 -0.000848534 0.0
0.363262 0.0157993 0.0
1.17725 0.00150034 0.0
1.31247 -0.119984 0.0
1.31627 0.126541 0.0
0.865763 -0.160594 0.0
1.01497 0.00855768 0.0
0.990172 0.00683665 0.0
1.4663 -0.0328348 0.0
0.978535 0.000909638 0.0
0.479607 0.0603789 0.0
1.17251 0.0624958 0.0
1.64767 -0.254168 0.0
1.02164 0.00502321 0.0
1.05941 -0.0662988 0.0
1.0367 -0.000335306 0.0
1.25311 0.904903 0.0
1.07104 -0.00224617 0.0
1.02481 0.00320906 0.0
1.29897 -0.199418 0.0
1.07633 -0.0253806 0.0
1.32175 -0.0836644 0.0
1.46237 -0.0648664 0.0
1.33199 0.0902527 0.0
0.867958 -0.0369265 0.0
1.52037 0.00262059 0.0
1.01362 0.0068521 0.0
1.25652 -0.0566588 0.0
1.35886 0.156931 0.0
1.21244 -0.0554685 0.0
1.05041 -0.167831 0.0
0.35956 0.0205035 0.0
1.38217 0.141326 0.0
1.76452 -0.17977 0.0
1.41333 -0.0454074 0.0
1.05282 -0.237181 0.0
0.507097 0.00699917 0.0
1.39919 -0.167208 0.0
0.501929 -0.00673486 0.0
1.20169 0.0991366 0.0
1.11494 0.0259542 0.0
1.61302 -0.313084 0.0
1.23976 -0.0105208 0.0
1.21167 0.00106151 0.0
1.29083 -0.417493 0.0
0.869602 -0.00366747 0.0
1.40854 -0.0824249 0.0
1.77526 -0.279581 0.0
1.51892 -0.0287691 0.0
1.15055 -0.0401845 0.0
1.12665 -0.00022551 0.0
1.65845 -0.0990526 0.0
1.68774 -0.199328 0.0
1.15856 0.847305 0.0
0.995941 -0.00010555 0.0
0.195706 0.0357304 0.0
1.02747 0.0073984 0.0
-0.24007 0.0714244 0.0
1.33192 0.227574 0.0
-0.279525 0.0862463 0.0
1.16518 -0.00114272 0.0
0.863022 -0.025907 0.0
0.218298 0.0244733 0.0
1.16603 -0.00483898 0.0
0.793508 0.0141137 0.0
1.16502 -0.00437539 0.0
0.791826 -0.0137817 0.0
1.20346 0.00749834 0.0
0.881293 0.157083 0.0
0.942216 0.00682667 0.0
1.63148 -0.0464576 0.0
0.979573 -0.0346388 0.0
0.611622 0.00127031 0.0
1.75196 -0.382986 0.0
1.15969 -0.246721 0.0
0.657237 0.0119617 0.0
1.26146 -0.227353 0.0
1.34581 0.170065 0.0
0.91939 -0.0667335 0.0
1.20707 0.178128 0.0
0.0862416 0.0985177 0.0
1.83886 0.53037 0.0
1.18929 0.00359665 0.0
1.27218 0.010163 0.0
-0.189586 -0.0110395 0.0
-0.347968 0.0783181 0.0
1.44307 -0.0647007 0.0
1.18241 -0.0409322 0.0
0.986996 0.00123675 0.0
0.849354 -0.0258856 0.0
-0.184459 0.0905891 0.0
1.01692 -0.0110768 0.0
-0.244153 0.112646 0.0
1.08214 -0.0985567 0.0
1.15747 -0.0143027 0.0
0.946838 0.00227665 0.0
1.63922 -0.161237 0.0
1.74238 -0.670637 0.0
1.27316 -0.397899 0.0
1.07141 -0.06204 0.0
0.498374 -0.0236133 0.0
1.78802 0.649648 0.0
1.2214 0.00333966 0.0
1.48531 -0.10929 0.0
1.23107 0.189756 0.0
0.131705 0.0759463 0.0
1.44146 -0.0270024 0.0
1.08006 0.0148986 0.0
1.44262 0.0400877 0.0
1.41402 0.00480151 0.0
1.39188 0.0529038 0.0
1.06515 -0.00203503 0.0
0.255456 0.0397811 0.0
1.19017 0.042155 0.0
1.51967 0.581793 0.0
1.25164 0.108345 0.0
0.919954 -0.0634758 0.0
0.726975 -0.0994019 0.0
1.20488 0.086139 0.0
1.44693 -0.0429918 0.0
1.11844 0.024666 0.0
1.7496 0.501384 0.0
0.549915 -0.0713166 0.0
1.16428 -0.0145478 0.0
0.621041 -0.00165604 0.0
0.885907 0.0638741 0.0
1.60326 -0.0215384 0.0
1.01962 -0.153319 0.0
-0.276035 0.0745726 0.0
0.123235 0.0624641 0.0
1.22644 0.0822982 0.0
1.04856 -0.0252604 0.0
1.66385 -0.761311 0.0
1.50088 0.00357258 0.0
1.03502 0.00573611 0.0
1.07835 -0.245047 0.0
1.00489 0.00700759 0.0
1.52357 0.00726927 0.0
0.022497 0.0312148 0.0
-0.254473 0.0380345 0.0
-0.18264 0.00604295 0.0
0.640478 0.0153957 0.0
0.651798 -0.0117013 0.0
0.555342 -0.101531 0.0
1.03481 -0.00711986 0.0
1.79636 -0.332583 0.0
1.04802 -0.153471 0.0
1.20282 -0.0491843 0.0
1.20456 0.0544218 0.0
0.489214 -0.00074401 0.0
1.64361 0.0737753 0.0
0.857225 0.0304152 0.0
1.24818 -0.0570542 0.0
-0.230501 0.0470155 0.0
1.74048 0.446481 0.0
1.14309 0.00766388 0.0
1.22204 -0.204902 0.0
1.14281 0.03426 0.0
1.05422 0.130242 0.0
0.983047 -0.000993016 0.0
0.987065 0.109852 0.0
0.565301 -0.00334689 0.0
1.17158 -0.034349 0.0
0.928944 -0.0247081 0.0
1.23108 0.00371967 0.0
1.36546 0.265525 0.0
1.1908 0.0866773 0.0
1.10512 0.00546622 0.0
1.11616 0.0063286 0.0
1.18259 0.198695 0.0
1.1201 -0.287602 0.0
1.11413 0.0116228 0.0
1.16602 -0.225264 0.0
1.11964 0.00899019 0.0
0.363211 0.11018 0.0
1.08768 -0.644373 0.0
0.730577 -0.127089 0.0
1.02381 -0.0083189 0.0
0.765696 -0.0789914 0.0
0.762214 -0.0636657 0.0
1.02716 0.00749772 0.0
1.05545 0.0959216 0.0
0.461048 0.0470116 0.0
0.8896 -0.829909 0.0
1.77864 0.345064 0.0
1.0283 -0.00207249 0.0
0.982667 0.0067509 0.0
0.667338 0.0602265 0.0
0.85308 0.0569689 0.0
0.397736 0.0590083 0.0
1.00014 -0.0149947 0.0
1.42771 -0.0322274 0.0
1.44965 0.581437 0.0
1.15458 0.193112 0.0
1.0691 -0.013572 0.0
1.42685 0.0384022 0.0
1.04171 -0.0923755 0.0
1.40092 -0.091549 0.0
1.43601 -0.0446941 0.0
0.483316 0.0244361 0.0
0.661796 0.0126553 0.0
0.899815 -0.02278 0.0
0.857588 0.0335215 0.0
0.5225 0.0171025 0.0
0.515865 -0.00284357 0.0
1.79011 0.286486 0.0
1.11167 0.0111178 0.0
1.44075 -0.00362006 0.0
1.12147 0.0117478 0.0
0.731939 -0.0774361 0.0
1.51117 -0.0907643 0.0
1.17596 -0.0308656 0.0
1.16194 -0.0124936 0.0
0.833097 -0.0495829 0.0
1.67135 -0.0704754 0.0
1.01018 0.0553313 0.0
0.996269 0.0114169 0.0
0.958681 -0.0261888 0.0
1.22959 0.0027271 0.0
1.43546 -0.137419 0.0
1.72982 -0.600858 0.0
1.18315 -0.00612423 0.0
1.20124 -0.010752 0.0
0.992033 -0.000635203 0.0
1.06355 -0.132776 0.0
1.0279 -0.0099245 0.0
0.996231 -0.0064404 0.0
1.25795 0.310858 0.0
1.03831 -0.256617 0.0
1.09422 0.171639 0.0
1.31874 0.132488 0.0
0.743954 -0.106758 0.0
0.355087 -0.0454549 0.0
0.958825 0.0159265 0.0
1.4387 0.0570238 0.0
1.42204 0.918325 0.0
0.682938 -0.0851885 0.0
1.15035 -0.0168254 0.0
1.70425 0.140288 0.0
1.09692 -0.898566 0.0
0.868426 -0.177614 0.0
1.1408 -0.0376873 0.0
0.56174 -0.00819178 0.0
1.02616 0.0270574 0.0
0.546519 -0.00952056 0.0
1.03098 -0.00445155 0.0
1.2223 0.00339497 0.0
0.621905 -0.0118848 0.0
0.775506 -0.0336955 0.0
1.09485 -0.285468 0.0
1.326 -0.104709 0.0
1.22013 0.0011579 0.0
1.01937 -0.00159383 0.0
1.00322 0.00884515 0.0
0.510053 -0.00566969 0.0
1.22313 0.00600388 0.0
0.73645 -0.0261008 0.0
1.12767 0.0436025 0.0
0.99659 -0.00999481 0.0
0.568386 0.00360505 0.0
1.24096 -0.110006 0.0
1.22745 -0.1711 0.0
0.789116 -0.0266651 0.0
1.13981 -0.0654257 0.0
0.588533 0.00163578 0.0
0.982926 -0.0148693 0.0
0.116478 0.067438 0.0
1.19962 0.000128668 0.0
1.19597 -0.0102112 0.0
0.598667 -0.00400541 0.0
0.942634 -0.1943 0.0
0.986821 -0.0149071 0.0
1.42994 0.154538 0.0
1.19544 0.00143862 0.0
1.23088 -0.00101574 0.0
1.22356 -0.170782 0.0
1.23241 -0.00259287 0.0
1.23104 0.00102825 0.0
1.17179 -0.0172498 0.0
0.935069 -0.114598 0.0
0.835802 0.0428672 0.0
1.23254 -0.00488797 0.0
1.22934 -0.000515664 0.0
1.22496 -0.00176571 0.0
0.634916 0.0704948 0.0
0.462595 0.00510568 0.0
0.997562 0.0100927 0.0
0.549493 -0.00749668 0.0
1.2309 -0.00529228 0.0
1.00201 -0.0176584 0.0
1.16051 0.0105532 0.0
-0.261247 -0.0268742 0.0
0.967629 -0.0113415 0.0
0.503837 -0.00437357 0.0
1.3189 -0.604725 0.0
1.12242 -0.00753384 0.0
0.97088 -0.01543 0.0
0.527727 -0.00993065 0.0
1.23062 -0.0029407 0.0
0.868201 0.0407631 0.0
0.536593 0.00160964 0.0
0.992729 -0.0148511 0.0
1.23116 -0.00547082 0.0
1.22396 -0.00252282 0.0
1.2288 -0.00286986 0.0
0.624723 -0.0070525 0.0
0.448794 0.000424542 0.0
1.2286 -0.00640676 0.0
1.14171 -0.0735757 0.0
1.20348 -0.007207 0.0
0.606913 0.00993376 0.0
1.18405 -0.00817029 0.0
1.22159 -0.00526936 0.0
1.20879 0.0010723 0.0
1.23368 -0.00711351 0.0
0.468896 -0.00660415 0.0
1.22696 -0.00635305 0.0
1.22828 -0.00631137 0.0
1.21887 -0.00690021 0.0
0.458885 -0.00369589 0.0
1.21413 -0.00249289 0.0
1.18234 -0.00617874 0.0
1.19941 -0.0010359 0.0
1.23121 -0.00725342 0.0
1.17049 -0.157935 0.0
1.12898 0.00141691 0.0
1.23255 -0.00741538 0.0
1.3509 0.668529 0.0
1.21643 -0.0065708 0.0
0.51218 -0.00681853 0.0
1.09662 -0.0222221 0.0
0.567639 0.00803819 0.0
0.593714 -0.00939935 0.0
1.11841 0.00693231 0.0
1.09635 -0.0125316 0.0
1.07002 -0.00794445 0.0
0.532003 -0.00809391 0.0
1.10238 -0.0219432 0.0
1.12534 0.00552881 0.0
1.22985 -0.00781642 0.0
1.074 0.139079 0.0
1.15507 -0.696816 0.0
0.562163 -0.00481568 0.0
0.520335 -0.00544425 0.0
1.22527 -0.00596141 0.0
1.22717 -0.00811847 0.0
0.618339 -0.0183387 0.0
0.508341 -0.00924526 0.0
1.22265 -0.00521158 0.0
0.991699 0.0164704 0.0
1.16207 0.0114 0.0
1.15585 -0.00725695 0.0
0.565379 0.0070576 0.0
0.516839 -0.00225806 0.0
1.1443 0.0172963 0.0
0.601757 0.0141095 0.0
0.567686 0.0146431 0.0
1.1745 0.0089007 0.0
0.618014 0.0206033 0.0
0.569816 -0.000841941 0.0
1.21325 -0.00450381 0.0
1.20082 -0.00371295 0.0
0.961767 0.0158718 0.0
1.21004 -0.00228518 0.0
1.18204 -0.00250036 0.0
1.21777 -0.00345442 0.0
0.982991 0.0118527 0.0
1.15151 -0.00315754 0.0
0.60798 0.00592797 0.0
0.501483 0.0140663 0.0
0.551462 0.0139208 0.0
0.468286 -0.00818416 0.0
0.534126 0.000586759 0.0
0.557073 -0.00519925 0.0
0.525644 -0.00270688 0.0
0.639335 -0.0138481 0.0
0.544537 -0.00470978 0.0
0.574236 0.0131712 0.0
0.489432 -0.0073193 0.0
0.575384 0.0155804 0.0
0.498168 2.40637e-05 0.0
0.678626 0.0213445 0.0
0.577747 0.0101173 0.0
0.571496 -0.011532 0.0
0.489784 0.00260031 0.0
0.527143 -0.00214812 0.0
0.509405 0.0077257 0.0
0.611216 -0.00981014 0.0
0.536036 -0.00117983 0.0
0.600793 -0.00769336 0.0
0.557688 -0.0123417 0.0
0.543775 0.00669526 0.0
0.522425 4.79769e-07 0.0
0.539164 0.00373478 0.0
0.48153 -0.0169007 0.0
0.490625 0.0197369 0.0
0.49292 0.000411186 0.0
0.555918 -0.00722092 0.0
0.495576 0.00325654 0.0
0.645822 -0.0210986 0.0
0.492674 0.00600114 0.0
0.466852 0.0052583 0.0
0.509337 0.000829719 0.0
0.486025 -0.00286741 0.0
1.18046 -0.00172018 0.0
1.16118 -0.00609306 0.0
1.2254 -0.00738075 0.0
1.22344 -0.00524506 0.0
1.22643 -0.00545078 0.0
1.11849 -0.00752016 0.0
1.19723 -0.00687939 0.0
1.17802 -0.00647015 0.0
1.1825 0.00429747 0.0
1.15416 -0.0019712 0.0
1.20934 -0.00782708 0.0
1.21183 -0.00853683 0.0
1.17398 -0.00635659 0.0
1.21918 -0.00382522 0.0
1.1953 -0.000899434 0.0
1.22022 -0.00611117 0.0
1.19341 -0.00709785 0.0
1.15214 0.00106067 0.0
1.21669 -0.00622866 0.0
1.22206 -0.00438163 0.0
1.20737 -0.00137269 0.0
1.22039 -0.00395431 0.0
1.21567 -0.00534436 0.0
1.15624 -0.00873641 0.0
1.22034 -0.00209994 0.0
1.19759 -0.0032942 0.0
1.21746 -0.00147794 0.0
1.12011 -0.00123178 0.0
1.19859 -0.00313994 0.0
1.1916 0.00129482 0.0
1.21285 -0.00159492 0.0
1.17541 -0.00134647 0.0
1.21248 -0.00243106 0.0
1.21557 -0.00249124 0.0
1.18577 0.00394852 0.0
1.21617 -0.00155895 0.0
1.20775 -0.00411608 0.0
1.2106 0.000282218 0.0
1.15286 -0.00829379 0.0
1.17713 -0.00234689 0.0
1.21356 3.41518e-05 0.0
1.20529 -0.00339903 0.0
1.20226 0.00176169 0.0
1.19925 0.00321317 0.0
1.1612 -0.0127712 0.0
1.2112 0.000187355 0.0
1.20778 0.000569982 0.0
1.13754 -0.00576614 0.0
1.1935 -0.00424168 0.0
1.12144 0.00339841 0.0
1.17954 -0.00422071 0.0
1.19003 -0.00387751 0.0
1.20198 -0.00363408 0.0
1.20814 -0.00133108 0.0
1.17538 -0.00433203 0.0
1.20554 -0.00347485 0.0
1.20436 -0.00106984 0.0
1.20638 0.000397779 0.0
1.20231 0.00278038 0.0
1.19893 0.00311686 0.0
1.19636 0.00354379 0.0
1.18489 0.00569838 0.0
1.13587 -0.00629076 0.0
1.09397 0.00749346 0.0
1.17985 0.00695512 0.0
1.20237 0.000803365 0.0
0.575588 -0.00625673 0.0
1.18835 0.00563064 0.0
1.14888 0.00733393 0.0
1.1711 0.00759934 0.0
1.20025 0.00289675 0.0
1.16875 0.00731846 0.0
1.17955 0.00558507 0.0
1.17241 0.000191525 0.0
1.19135 0.00529053 0.0
1.17921 -0.000875097 0.0
1.1334 -0.0050408 0.0
1.13327 -0.00802702 0.0
1.15714 -0.00488454 0.0
1.18779 0.00654034 0.0
1.17564 -0.0041789 0.0
1.18637 0.00335237 0.0
1.16873 -0.00393622 0.0
1.18561 -0.00385122 0.0
1.19034 0.00278381 0.0
1.18364 0.00584105 0.0
0.979712 -0.0133247 0.0
1.1732 -0.00352944 0.0
1.17619 0.00777059 0.0
1.14609 0.00888418 0.0
1.19096 -0.00235667 0.0
1.19495 0.000172706 0.0
1.08157 -0.0178522 0.0
1.16626 0.0109608 0.0
1.1797 -0.00357737 0.0
1.14756 0.014965 0.0
1.19059 -5.88248e-05 0.0
1.15017 0.0177828 0.0
1.16869 -0.0044711 0.0
1.19453 -0.00233048 0.0
1.17579 -0.00112594 0.0
1.11937 0.176572 0.0
1.15313 -0.00737455 0.0
1.22092 -0.00923091 0.0
1.17199 0.00947671 0.0
1.17657 0.00114296 0.0
1.15779 -0.0135495 0.0
1.16187 -0.00356956 0.0
1.1394 -0.00309819 0.0
1.16165 -0.00965054 0.0
1.16886 0.00267336 0.0
1.14093 -0.00122301 0.0
1.16377 0.00233952 0.0
1.16474 -0.00683681 0.0
1.16438 -0.00284413 0.0
1.1501 0.0120718 0.0
1.16105 -0.00527571 0.0
0.718223 -0.0205354 0.0
0.972606 0.00451571 0.0
1.14551 0.0143241 0.0
1.14843 0.0094996 0.0
1.15575 -0.0077381 0.0
1.14149 0.0120525 0.0
1.14831 0.0144394 0.0
1.14586 -0.00238711 0.0
1.12823 0.000884225 0.0
1.14071 -0.00316711 0.0
1.13425 0.000967757 0.0
1.12201 0.0121081 0.0
1.15907 0.00571099 0.0
1.15314 0.0086173 0.0
0.995314 0.00823197 0.0
1.15444 0.00589802 0.0
1.15827 0.0117355 0.0
1.15077 0.0122238 0.0
1.11532 0.0152007 0.0
1.13615 0.0158092 0.0
1.1551 0.012676 0.0
1.73547 0.181641 0.0
1.12046 -0.0105845 0.0
1.1279 0.0193295 0.0
1.10025 -0.0223317 0.0
1.14953 0.0219705 0.0
1.14823 0.0162251 0.0
1.11408 -0.0129413 0.0
1.14676 0.0220643 0.0
1.22088 -0.00591084 0.0
1.07109 -0.00971953 0.0
1.09868 0.0153748 0.0
1.09768 -0.00690724 0.0
1.30719 0.126111 0.0
1.21659 -0.00539906 0.0
1.08298 -0.00224524 0.0
1.15483 -0.00773115 0.0
1.14048 0.0282484 0.0
1.14674 0.0225496 0.0
1.09018 -0.00852138 0.0
1.09439 -0.027367 0.0
0.981018 -0.0152255 0.0
1.19203 -0.00113544 0.0
1.06756 0.000669231 0.0
1.07722 0.000199915 0.0
1.12123 0.0247574 0.0
1.11945 -0.0268413 0.0
1.02977 0.198338 0.0
0.961581 -0.0152968 0.0
1.13662 0.0338589 0.0
0.442174 -0.164395 0.0
1.38209 0.131476 0.0
1.18147 -0.0522742 0.0
1.0652 0.0103153 0.0
1.06629 0.0257681 0.0
1.05452 0.0364273 0.0
1.21679 -0.0017024 0.0
1.05272 0.0143439 0.0
1.03797 -0.0441299 0.0
1.30216 0.175949 0.0
1.00332 -0.142468 0.0
1.03306 -0.0578457 0.0
1.15161 -0.133371 0.0
1.14833 -0.0126359 0.0
1.09549 -0.0481549 0.0
1.18012 -0.00351904 0.0
0.936923 0.00178923 0.0
1.18106 0.0541256 0.0
1.00859 -0.013899 0.0
1.23795 -0.101872 0.0
1.21527 -0.00558057 0.0
1.20336 -0.00652923 0.0
1.05581 -0.0200409 0.0
1.39838 -0.567468 0.0
1.13259 0.0835196 0.0
0.995303 -0.0202522 0.0
1.13279 0.0669751 0.0
0.95744 0.00150555 0.0
0.758009 0.0281175 0.0
1.08991 0.0450184 0.0
1.32725 -0.160588 0.0
0.933339 -0.0908397 0.0
1.09902 -0.0397239 0.0
0.632628 -0.556525 0.0
1.10993 -0.0281463 0.0
1.11591 -0.00700078 0.0
1.15372 -0.00762108 0.0
1.39111 -0.139449 0.0
1.08057 0.060098 0.0
1.18004 -0.00274004 0.0
1.04764 -0.026269 0.0
1.16371 0.0362783 0.0
0.9889 -0.0177057 0.0
1.34996 -0.771792 0.0
1.22485 0.0046259 0.0
1.17972 0.0515662 0.0
1.20053 0.00285795 0.0
1.1264 -0.000724845 0.0
1.18056 -0.0566393 0.0
1.066 0.0201655 0.0
1.21058 0.0814777 0.0
1.12232 -0.00804136 0.0
1.15918 0.0442345 0.0
0.957398 0.00165876 0.0
1.15087 0.0112866 0.0
1.1805 -0.531639 0.0
0.659166 -0.00610677 0.0
0.680868 -0.023208 0.0
0.925281 0.0271494 0.0
1.26627 0.119749 0.0
1.15265 -0.00629313 0.0
1.18128 -0.00527019 0.0
0.606948 0.0101971 0.0
1.20111 -0.0059788 0.0
0.328118 -0.123547 0.0
1.07341 -0.0992881 0.0
0.551867 0.00895099 0.0
0.557867 -0.011097 0.0
0.899836 0.0403139 0.0
1.15771 -0.00612461 0.0
0.863952 -0.174345 0.0
0.848942 -0.0253903 0.0
1.68893 -0.125045 0.0
0.941572 0.0374017 0.0
1.15202 -0.0106907 0.0
1.15264 -0.0121649 0.0
1.05329 0.00869411 0.0
1.22221 0.00352841 0.0
1.17803 0.00123533 0.0
1.18511 0.348331 0.0
0.620464 0.0173723 0.0
1.01983 0.00173866 0.0
1.3694 -0.0979126 0.0
0.537092 0.00763961 0.0
1.58077 0.560934 0.0
0.934227 -0.0418042 0.0
0.796736 -0.0266924 0.0
1.34122 0.0882181 0.0
0.782224 -0.0538213 0.0
0.955428 -0.00103187 0.0
0.668541 -0.116233 0.0
1.15617 -0.017034 0.0
0.880989 0.0996487 0.0
1.1363 -0.0146244 0.0
0.659162 -0.00413073 0.0
1.03014 0.00563417 0.0
0.980708 0.136318 0.0
1.40946 -0.0327124 0.0
0.520518 -0.00349354 0.0
0.636804 -0.0245427 0.0
0.918749 0.805443 0.0
1.11046 -0.00105916 0.0
1.05175 0.0116 0.0
1.39248 0.0135877 0.0
0.602222 -0.0105357 0.0
1.132 0.0184895 0.0
1.16664 -0.448609 0.0
0.186485 0.0223938 0.0
0.92544 -0.0632953 0.0
1.07034 -0.083378 0.0
0.735278 0.0239534 0.0
0.519326 0.0178754 0.0
1.649 0.0363375 0.0
1.15474 -0.0055649 0.0
0.311487 0.0152319 0.0
0.571891 0.0249667 0.0
1.14446 -0.00609248 0.0
1.20282 -0.00631865 0.0
1.0021 -0.0183855 0.0
0.938323 0.0624394 0.0
1.20926 0.172583 0.0
0.640203 0.0108503 0.0
1.20379 0.00767073 0.0
0.919791 0.0928808 0.0
1.2078 -0.00846793 0.0
1.38799 -0.593458 0.0
0.512829 0.00103634 0.0
1.45929 -0.129966 0.0
1.11031 0.00835002 0.0
0.951014 -0.0141867 0.0
0.621594 0.0903322 0.0
0.991473 0.101927 0.0
0.897475 0.139871 0.0
1.11288 0.00958378 0.0
1.21772 -0.0580618 0.0
1.39921 -0.036936 0.0
0.586198 0.00505832 0.0
0.610399 0.0150535 0.0
1.07381 -0.00361765 0.0
0.404543 -0.0728935 0.0
1.04396 0.0365911 0.0
0.492089 0.00354998 0.0
0.964304 -0.0112573 0.0
1.11136 -0.00451075 0.0
0.941739 -0.00960096 0.0
0.556969 -0.00672976 0.0
0.55577 0.0188296 0.0
0.567412 0.0094298 0.0
0.515397 0.00721395 0.0
0.586467 0.0113641 0.0
1.21072 0.669595 0.0
1.36087 0.0695627 0.0
0.965133 -0.00293923 0.0
0.540263 0.00793668 0.0
0.552171 -0.0126946 0.0
0.699537 0.0249922 0.0
1.15659 -0.0475297 0.0
0.619067 0.00115544 0.0
1.60382 -0.193087 0.0
1.29596 0.0955023 0.0
0.537155 -0.140684 0.0
1.34535 -0.0936906 0.0
1.52681 -0.466846 0.0
1.0103 0.005495 0.0
1.09063 0.0186072 0.0
1.14102 -0.0123711 0.0
0.960179 0.00290659 0.0
0.83705 -0.689212 0.0
1.02681 -0.00191356 0.0
0.979468 -0.00549242 0.0
1.20281 -0.0127823 0.0
1.12212 -0.0342395 0.0
1.64827 -0.000202019 0.0
-0.120785 0.0977999 0.0
0.506674 -0.0687402 0.0
1.33617 0.518179 0.0
1.0733 -0.0121608 0.0
0.606946 -0.0119584 0.0
0.578251 -0.00560165 0.0
0.573236 -0.00592008 0.0
1.22303 0.00567089 0.0
0.633801 0.2113 0.0
1.1746 -0.0247135 0.0
0.976863 0.0123308 0.0
0.751316 0.16312 0.0
1.12525 -0.00206587 0.0
0.138512 -0.00975866 0.0
1.18971 0.00583126 0.0
0.565946 0.0209603 0.0
0.563337 -0.0102861 0.0
1.34005 0.0855334 0.0
0.840567 -0.0115559 0.0
1.50632 0.0320342 0.0
0.974349 0.0150611 0.0
0.990314 0.011255 0.0
0.111706 -0.16626 0.0
0.972421 0.0289931 0.0
1.17006 0.013443 0.0
1.15282 0.0135036 0.0
0.356043 -0.136214 0.0
1.61635 -0.27322 0.0
1.09437 -0.000396743 0.0
1.28752 0.19507 0.0
0.590083 -0.0139039 0.0
0.557407 -0.00752021 0.0
1.1238 -0.0167574 0.0
0.530939 0.0897021 0.0
1.12529 -0.0272885 0.0
0.809434 0.0217879 0.0
0.934945 -0.00854799 0.0
1.13123 0.0122769 0.0
0.99602 -0.00348465 0.0
0.201884 -0.0209013 0.0
1.14903 -0.0131015 0.0
0.309837 0.0604383 0.0
1.01047 -0.000717423 0.0
1.00156 -0.00385993 0.0
0.575682 -0.0156212 0.0
1.07184 -0.00949012 0.0
1.17465 -0.0248933 0.0
0.948538 0.00045983 0.0
0.991476 -0.0132623 0.0
1.20021 -0.964614 0.0
1.13221 0.0224545 0.0
1.6927 0.486933 0.0
0.555177 -0.0165388 0.0
0.544536 0.00643362 0.0
1.16717 0.00609008 0.0
1.22677 -0.00656006 0.0
1.11407 -0.00824474 0.0
1.12301 -0.00160755 0.0
1.18087 0.00586991 0.0
1.13106 0.00540519 0.0
1.21762 -0.0091797 0.0
1.15073 0.0258305 0.0
-0.198258 0.0188045 0.0
1.10362 0.0150632 0.0
-0.0249951 0.0289264 0.0
0.663707 -0.0256033 0.0
1.20447 -0.177522 0.0
1.14698 -0.0117404 0.0
1.36837 -0.138035 0.0
1.6463 -0.502423 0.0
0.314249 -0.0181111 0.0
1.21121 -0.00838445 0.0
1.129 0.272016 0.0
1.35125 -0.098321 0.0
1.07137 0.305696 0.0
1.70949 0.0868517 0.0
0.975235 -0.542443 0.0
1.37208 0.132335 0.0
1.12218 -0.0164292 0.0
1.28963 -0.480967 0.0
-0.087191 -0.108167 0.0
1.05973 -2.61815e-05 0.0
1.31865 -0.394854 0.0
0.498284 -0.0048524 0.0
1.41864 -0.149948 0.0
1.68464 0.198451 0.0
1.0914 0.0133512 0.0
0.39717 0.0155229 0.0
0.717032 0.00183275 0.0
0.267867 -0.228448 0.0
0.95695 0.0459656 0.0
-0.118539 -0.0299785 0.0
1.14652 -0.162453 0.0
1.49636 0.143795 0.0
0.536171 0.009113 0.0
1.22928 -0.0688705 0.0
0.966878 0.00053943 0.0
1.21419 0.00493456 0.0
0.435147 -0.615507 0.0
1.22864 0.26438 0.0
0.729388 -0.162587 0.0
0.191334 -0.330923 0.0
0.517784 0.1607 0.0
1.3026 0.238501 0.0
0.598092 0.152252 0.0
0.968011 -0.0128004 0.0
1.14013 -0.0161981 0.0
1.08259 0.0112491 0.0
1.07622 0.00890916 0.0
0.571191 0.00742763 0.0
0.0238323 0.0820341 0.0
1.3083 0.299791 0.0
0.46656 -0.00217831 0.0
1.10139 0.00981578 0.0
0.264442 0.216288 0.0
0.97366 -0.00467292 0.0