# vtk DataFile Version 3.0
Malha 2D com triângulos e temperatura
ASCII
DATASET UNSTRUCTURED_GRID

POINTS 688 double
0 0 0
2.2 0 0
2.2 0.41 0
0 0.41 0
0.25 0.2 0
0.05 0 0
0.1 0 0
0.15 0 0
0.2 0 0
0.25 0 0
0.3 0 0
0.35 0 0
0.4 0 0
0.45 0 0
0.5 0 0
0.55 0 0
0.6 0 0
0.65 0 0
0.7 0 0
0.75 0 0
0.8 0 0
0.85 0 0
0.9 0 0
0.95 0 0
1 0 0
1.05 0 0
1.1 0 0
1.15 0 0
1.2 0 0
1.25 0 0
1.3 0 0
1.35 0 0
1.4 0 0
1.45 0 0
1.5 0 0
1.55 0 0
1.6 0 0
1.65 0 0
1.7 0 0
1.75 0 0
1.8 0 0
1.85 0 0
1.9 0 0
1.95 0 0
2 0 0
2.05 0 0
2.1 0 0
2.15 0 0
2.2 0.0455556 0
2.2 0.0911111 0
2.2 0.136667 0
2.2 0.182222 0
2.2 0.227778 0
2.2 0.273333 0
2.2 0.318889 0
2.2 0.364444 0
2.15 0.41 0
2.1 0.41 0
2.05 0.41 0
2 0.41 0
1.95 0.41 0
1.9 0.41 0
1.85 0.41 0
1.8 0.41 0
1.75 0.41 0
1.7 0.41 0
1.65 0.41 0
1.6 0.41 0
1.55 0.41 0
1.5 0.41 0
1.45 0.41 0
1.4 0.41 0
1.35 0.41 0
1.3 0.41 0
1.25 0.41 0
1.2 0.41 0
1.15 0.41 0
1.1 0.41 0
1.05 0.41 0
1 0.41 0
0.95 0.41 0
0.9 0.41 0
0.85 0.41 0
0.8 0.41 0
0.75 0.41 0
0.7 0.41 0
0.65 0.41 0
0.6 0.41 0
0.55 0.41 0
0.5 0.41 0
0.45 0.41 0
0.4 0.41 0
0.35 0.41 0
0.3 0.41 0
0.25 0.41 0
0.2 0.41 0
0.15 0.41 0
0.1 0.41 0
0.05 0.41 0
0 0.364444 0
0 0.318889 0
0 0.273333 0
0 0.227778 0
0 0.182222 0
0 0.136667 0
0 0.0911111 0
0 0.0455556 0
0.248831 0.210749 0
0.245379 0.220994 0
0.239805 0.230259 0
0.232369 0.238108 0
0.22342 0.244176 0
0.213376 0.248177 0
0.202707 0.249927 0
0.191911 0.249341 0
0.181493 0.246449 0
0.171941 0.241384 0
0.1637 0.234385 0
0.157157 0.225778 0
0.152617 0.215965 0
0.150293 0.205406 0
0.150293 0.194594 0
0.152617 0.184035 0
0.157157 0.174222 0
0.1637 0.165615 0
0.171941 0.158616 0
0.181493 0.153551 0
0.191911 0.150659 0
0.202707 0.150073 0
0.213376 0.151823 0
0.22342 0.155824 0
0.232369 0.161892 0
0.239805 0.169741 0
0.245379 0.179006 0
0.248831 0.189251 0
0.421316 0.36725 0
0.426705 0.0366526 0
2.16065 0.209201 0
1.52286 0.0417259 0
0.626017 0.37111 0
1.3257 0.0414552 0
1.02471 0.0432237 0
1.17293 0.0421053 0
0.82501 0.36678 0
1.6757 0.370064 0
1.91628 0.0358195 0
1.82501 0.366432 0
0.723429 0.0421499 0
1.425 0.366699 0
1.97461 0.366224 0
1.12167 0.370137 0
0.975 0.368691 0
0.877672 0.0412714 0
1.27686 0.36884 0
1.725 0.0433013 0
0.579174 0.0416211 0
0.325589 0.363848 0
0.319111 0.0378151 0
0.0394523 0.296111 0
0.0329929 0.11602 0
0.142108 0.187428 0
1.57555 0.364352 0
2.02603 0.0412138 0
0.725007 0.36763 0
0.528647 0.366595 0
1.62699 0.0400272 0
1.82929 0.0421255 0
1.425 0.0418325 0
2.07474 0.364233 0
0.125 0.0433013 0
0.161245 0.155011 0
0.225 0.366699 0
0.210027 0.258536 0
2.16034 0.115449 0
0.0371627 0.204103 0
0.142311 0.212698 0
0.220283 0.0418538 0
0.221965 0.145099 0
0.196802 0.141016 0
0.119851 0.373394 0
0.161112 0.245979 0
0.184892 0.258024 0
2.16342 0.30039 0
2.12627 0.047699 0
0.183325 0.0412617 0
0.152317 0.0762976 0
0.203864 0.0745802 0
0.234384 0.0774346 0
0.215969 0.103585 0
0.245651 0.104548 0
0.186562 0.100216 0
0.268213 0.0793029 0
0.272149 0.109155 0
0.242885 0.159377 0
0.253088 0.128261 0
0.278718 0.13214 0
0.295917 0.115997 0
0.301728 0.138858 0
0.321266 0.12205 0
0.324642 0.151724 0
0.255978 0.181139 0
0.350123 0.129049 0
0.357539 0.159885 0
0.333541 0.181416 0
0.36451 0.19182 0
0.250573 0.230419 0
0.391277 0.169722 0
0.339477 0.212308 0
0.39836 0.205386 0
0.427326 0.18117 0
0.258724 0.206387 0
0.434392 0.219501 0
0.466446 0.193907 0
0.472865 0.243064 0
0.507358 0.209962 0
0.40073 0.238916 0
0.499135 0.1652 0
0.5419 0.179224 0
0.550176 0.22496 0
0.585844 0.194129 0
0.594095 0.240176 0
0.630701 0.209517 0
0.621901 0.162424 0
0.667731 0.178095 0
0.676485 0.226008 0
0.713906 0.194492 0
0.722681 0.242872 0
0.760442 0.211047 0
0.751547 0.162356 0
0.798298 0.179 0
0.807147 0.227866 0
0.845136 0.195775 0
0.854541 0.243285 0
0.892163 0.212344 0
0.902461 0.257947 0
0.93935 0.228684 0
0.930236 0.180167 0
0.977229 0.197066 0
0.986264 0.245777 0
1.02423 0.213991 0
1.0331 0.263172 0
1.07123 0.230975 0
1.06234 0.181814 0
1.10938 0.198721 0
1.09996 0.151012 0
1.14691 0.168161 0
1.15631 0.215921 0
1.19446 0.183678 0
1.20343 0.232645 0
1.2416 0.200322 0
1.23272 0.151117 0
1.2798 0.167954 0
1.28868 0.217167 0
1.32685 0.184862 0
1.33573 0.234064 0
1.3739 0.201768 0
0.789327 0.130094 0
1.38279 0.25097 0
1.42096 0.218674 0
1.41207 0.169471 0
1.45912 0.186378 0
1.46801 0.235581 0
1.50618 0.203285 0
1.51506 0.252489 0
1.55323 0.220192 0
1.54435 0.170989 0
1.5914 0.187896 0
1.60029 0.2371 0
1.63846 0.204803 0
1.64734 0.254007 0
1.68551 0.221711 0
1.67663 0.172507 0
1.72368 0.189415 0
1.73831 0.241548 0
1.77074 0.206322 0
1.76185 0.157121 0
1.8091 0.17428 0
1.81866 0.220885 0
1.85608 0.190621 0
1.86521 0.238879 0
1.90289 0.207671 0
1.91264 0.253772 0
1.94955 0.224093 0
1.94067 0.17593 0
1.98705 0.192828 0
1.99572 0.240997 0
2.0329 0.209382 0
2.02422 0.16161 0
2.04166 0.257286 0
0.419739 0.142889 0
0.968291 0.148058 0
0.310035 0.202211 0
0.316128 0.230863 0
0.658501 0.130052 0
0.685107 0.27445 0
1.34462 0.283266 0
1.16528 0.264896 0
1.84735 0.142081 0
0.557687 0.270604 0
1.21234 0.281769 0
1.58252 0.138692 0
0.533563 0.131933 0
0.489835 0.120004 0
1.45024 0.137174 0
2.06974 0.17785 0
2.06113 0.130713 0
0.283221 0.152215 0
0.921299 0.131169 0
0.343836 0.24295 0
0.319203 0.260002 0
0.235529 0.249617 0
0.347029 0.274099 0
0.291856 0.246297 0
0.295938 0.27548 0
0.272836 0.264931 0
0.27461 0.290522 0
0.251228 0.280224 0
0.253903 0.305808 0
0.232795 0.296709 0
0.298805 0.304058 0
1.0801 0.280176 0
1.47689 0.284785 0
1.05315 0.133468 0
1.09741 0.0970974 0
1.82427 0.272867 0
1.2701 0.118911 0
0.816337 0.277695 0
1.40432 0.121101 0
1.04244 0.320388 0
0.959305 0.103028 0
1.60923 0.286151 0
0.601674 0.286775 0
2.00739 0.280923 0
0.342592 0.0992796 0
0.375237 0.105729 0
1.52511 0.298716 0
1.53114 0.119823 0
0.733824 0.287256 0
0.613372 0.114719 0
0.645558 0.0838585 0
2.015 0.115858 0
1.22718 0.0994086 0
1.39166 0.29817 0
1.3564 0.329754 0
0.744134 0.11556 0
0.782853 0.0841771 0
0.826899 0.10047 0
1.17418 0.314034 0
0.520902 0.0906676 0
1.4967 0.329429 0
1.26048 0.0740437 0
0.365514 0.0716355 0
0.229836 0.121666 0
1.57453 0.09137 0
1.61938 0.110761 0
0.481716 0.0753791 0
0.14093 0.2 0
0.130041 0.192847 0
0.131507 0.178608 0
0.117165 0.184444 0
0.120761 0.164701 0
0.1156 0.199931 0
0.100804 0.174136 0
0.102545 0.153034 0
0.12169 0.143342 0
0.104604 0.13008 0
0.0809304 0.161171 0
0.128077 0.121858 0
0.106825 0.102278 0
0.082498 0.188728 0
0.0314738 0.158621 0
2.04625 0.310891 0
2.08475 0.27479 0
2.11394 0.138117 0
0.233149 0.151108 0
0.258724 0.193613 0
0.268522 0.184917 0
1.65397 0.301059 0
0.145962 0.224912 0
0.132503 0.222267 0
0.13746 0.236947 0
0.120111 0.233525 0
0.126593 0.25219 0
0.105294 0.247497 0
0.113343 0.26868 0
0.133997 0.271734 0
0.121622 0.292031 0
0.147069 0.292141 0
0.0896563 0.267464 0
0.0813699 0.243294 0
0.163574 0.276939 0
0.172694 0.298517 0
0.1583 0.321483 0
0.186823 0.322499 0
0.173113 0.348195 0
0.0322087 0.250839 0
0.211694 0.124337 0
0.250615 0.169546 0
0.256243 0.157787 0
0.170796 0.14736 0
0.156755 0.141654 0
0.17187 0.131161 0
0.147502 0.152323 0
0.198129 0.260662 0
0.206368 0.271663 0
0.220945 0.26864 0
0.190489 0.270628 0
0.198813 0.286731 0
0.55749 0.322277 0
0.520166 0.299321 0
0.235199 0.330709 0
0.267109 0.337524 0
0.172324 0.25256 0
0.255974 0.218859 0
0.268327 0.214994 0
0.184197 0.143083 0
0.188721 0.129954 0
0.209694 0.139146 0
0.269223 0.244007 0
0.252374 0.255244 0
0.282229 0.0410487 0
1.21977 0.330016 0
1.25733 0.296346 0
2.09358 0.0890819 0
0.244373 0.240984 0
0.0838116 0.115786 0
0.0797544 0.0817835 0
0.237449 0.264854 0
0.247178 0.146225 0
0.270136 0.2 0
0.28023 0.191334 0
0.263476 0.170737 0
0.371486 0.368728 0
0.396124 0.330051 0
0.440314 0.325693 0
0.357693 0.329668 0
0.476576 0.362035 0
0.29587 0.222914 0
0.307627 0.175476 0
0.079599 0.0406461 0
0.146062 0.252571 0
0.15162 0.125025 0
0.417223 0.294608 0
0.457089 0.286958 0
0.036619 0.338729 0
0.0713014 0.322193 0
0.0735823 0.36704 0
0.041143 0.0722223 0
0.693501 0.32349 0
0.145406 0.175484 0
0.138777 0.164467 0
0.300367 0.0698839 0
0.167025 0.112083 0
0.146978 0.105544 0
0.151909 0.236762 0
0.444611 0.106436 0
0.909355 0.0817561 0
0.282901 0.370713 0
1.61474 0.330739 0
0.578053 0.368179 0
0.824695 0.0487848 0
2.09634 0.3213 0
2.02276 0.364865 0
2.12532 0.363702 0
1.09789 0.328757 0
0.161137 0.260089 0
2.07793 0.225752 0
2.12079 0.240944 0
2.0747 0.0437362 0
1.89402 0.158846 0
1.93154 0.128738 0
1.8848 0.111477 0
1.8384 0.0926484 0
1.87744 0.0655304 0
1.7913 0.0793874 0
1.9712 0.046671 0
1.92502 0.366682 0
1.94563 0.325156 0
1.89941 0.326645 0
1.87499 0.367178 0
1.84989 0.323491 0
1.7997 0.321303 0
1.77183 0.280326 0
1.75031 0.321965 0
1.77491 0.365615 0
2.11727 0.191885 0
0.883187 0.163467 0
1.71449 0.140266 0
1.667 0.125342 0
1.70591 0.0884759 0
1.67732 0.042286 0
1.52278 0.370513 0
1.37512 0.04128 0
1.34848 0.0834574 0
0.776093 0.367587 0
1.125 0.0433013 0
1.15 0.0866019 0
1.07442 0.0496847 0
0.974527 0.0370837 0
1.47464 0.0427918 0
1.44953 0.0873752 0
1.17595 0.362984 0
1.025 0.366699 0
0.925007 0.367031 0
0.95 0.323404 0
0.897321 0.326356 0
0.874563 0.367261 0
0.846552 0.324465 0
1.62923 0.156667 0
1.32319 0.13033 0
1.69342 0.270472 0
1.49568 0.156227 0
1.56237 0.268721 0
1.44 0.319169 0
1.43005 0.267892 0
1.36502 0.152565 0
0.993446 0.294003 0
1.30179 0.321101 0
1.18235 0.127964 0
1.25016 0.2491 0
1.29638 0.266841 0
1.11824 0.247967 0
1.12945 0.294699 0
1.01527 0.165035 0
0.836192 0.147197 0
1.4998 0.0831488 0
1.00655 0.118664 0
0.872896 0.117126 0
0.70523 0.146383 0
1.96013 0.276645 0
0.769406 0.257102 0
0.699552 0.0908977 0
2.1587 0.162257 0
1.97813 0.145326 0
0.646036 0.302035 0
0.799423 0.326603 0
0.515621 0.255445 0
1.72538 0.366474 0
1.97009 0.0998346 0
1.57108 0.313772 0
0.577925 0.14549 0
0.638911 0.256447 0
0.407352 0.0771641 0
0.525103 0.042511 0
0.674231 0.370698 0
1.69802 0.321701 0
0.56947 0.0908728 0
1.75459 0.110239 0
1.80084 0.126127 0
0.673535 0.0431435 0
1.57391 0.0465733 0
2.04571 0.0828469 0
0.10002 0.225545 0
0.0788152 0.21577 0
0.369719 0.224393 0
0.210352 0.308739 0
1.22342 0.0432967 0
[...]
CELL_DATA 1241
VECTORS velocity double
1.01387 -0.00423883 0.0
1.21728 0.066513 0.0
0.445862 -0.00158299 0.0
0.944568 0.00173627 0.0
1.04401 0.0054982 0.0
1.42286 0.103155 0.0
1.13501 0.000187098 0.0
0.979707 -0.000814415 0.0
0.363174 0.0158232 0.0
1.17926 0.00139183 0.0
1.31247 -0.119983 0.0
1.31627 0.126543 0.0
0.865763 -0.160595 0.0
1.01564 0.00860722 0.0
0.99118 0.00649348 0.0
1.46635 -0.032883 0.0
0.979544 0.000576631 0.0
0.479611 0.0603813 0.0
1.17282 0.0623886 0.0
1.64766 -0.254201 0.0
1.0212 0.00432994 0.0
1.05945 -0.0663123 0.0
1.03801 -0.000274503 0.0
1.25311 0.904906 0.0
1.07097 -0.00228426 0.0
1.02432 0.00258753 0.0
1.29898 -0.199436 0.0
1.07638 -0.0253971 0.0
1.32175 -0.0836643 0.0
1.46242 -0.0649083 0.0
1.33199 0.0902544 0.0
0.86831 -0.0368865 0.0
1.52045 0.00268673 0.0
1.01426 0.00687335 0.0
1.25681 -0.0565568 0.0
1.35889 0.156963 0.0
1.21277 -0.0553735 0.0
1.05041 -0.167832 0.0
0.359562 0.0205048 0.0
1.38219 0.141359 0.0
1.7645 -0.179812 0.0
1.41327 -0.045448 0.0
1.05282 -0.237188 0.0
0.501295 0.00671627 0.0
1.39921 -0.167238 0.0
0.496863 -0.00756434 0.0
1.20158 0.0990321 0.0
1.11536 0.025801 0.0
1.61301 -0.31311 0.0
1.23969 -0.0104658 0.0
1.21478 0.000942452 0.0
1.29083 -0.417497 0.0
0.869529 -0.00364372 0.0
1.40872 -0.0823501 0.0
1.77523 -0.279614 0.0
1.519 -0.0286938 0.0
1.15107 -0.0399729 0.0
1.12717 -0.000202728 0.0
1.65841 -0.0990955 0.0
1.68774 -0.199371 0.0
1.15855 0.847308 0.0
0.994028 -0.000130921 0.0
0.195582 0.0357959 0.0
1.02715 0.00679485 0.0
-0.240028 0.071444 0.0
1.33192 0.227578 0.0
-0.279593 0.0861892 0.0
1.16757 -0.0019155 0.0
0.863338 -0.0258761 0.0
0.218183 0.0244295 0.0
1.16831 -0.00563989 0.0
0.793432 0.014149 0.0
1.16723 -0.00519689 0.0
0.791718 -0.0137126 0.0
1.20704 0.00713045 0.0
0.881295 0.157087 0.0
0.942743 0.00727504 0.0
1.63144 -0.0465131 0.0
0.979776 -0.0346081 0.0
0.613233 0.00125107 0.0
1.75194 -0.383011 0.0
1.1597 -0.246732 0.0
0.658472 0.0118764 0.0
1.26146 -0.227371 0.0
1.34581 0.170068 0.0
0.919409 -0.066744 0.0
1.20692 0.178032 0.0
0.0860685 0.0984507 0.0
1.83884 0.530391 0.0
1.19253 0.00316397 0.0
1.27211 0.0102063 0.0
-0.189655 -0.0110342 0.0
-0.348001 0.0782895 0.0
1.4432 -0.0646267 0.0
1.18242 -0.0406855 0.0
0.984925 0.00129923 0.0
0.849242 -0.0258362 0.0
-0.184463 0.0905951 0.0
1.0182 -0.0114168 0.0
-0.244262 0.112561 0.0
1.08214 -0.098557 0.0
1.15912 -0.0150002 0.0
0.947385 0.00265502 0.0
1.63917 -0.161264 0.0
1.74235 -0.67064 0.0
1.27316 -0.397902 0.0
1.07132 -0.0619632 0.0
0.498272 -0.0236605 0.0
1.78799 0.649656 0.0
1.22504 0.00316786 0.0
1.48538 -0.109187 0.0
1.23093 0.18967 0.0
0.131623 0.0759894 0.0
1.44146 -0.0270015 0.0
1.08014 0.0148793 0.0
1.44262 0.040089 0.0
1.4141 0.00475195 0.0
1.39195 0.0529545 0.0
1.06627 -0.00218832 0.0
0.255309 0.039707 0.0
1.19011 0.0421831 0.0
1.51966 0.581804 0.0
1.25161 0.108223 0.0
0.919982 -0.0634828 0.0
0.726833 -0.0993345 0.0
1.20474 0.0860272 0.0
1.44705 -0.0429264 0.0
1.11887 0.0245082 0.0
1.74956 0.501392 0.0
0.549919 -0.0713177 0.0
1.16597 -0.0151456 0.0
0.622208 -0.00175026 0.0
0.885945 0.0638836 0.0
1.6033 -0.0216034 0.0
1.01945 -0.153232 0.0
-0.276053 0.0745683 0.0
0.123174 0.0625378 0.0
1.2267 0.0822076 0.0
1.0487 -0.0252368 0.0
1.66383 -0.761311 0.0
1.50088 0.00357325 0.0
1.03554 0.00605664 0.0
1.07835 -0.245054 0.0
1.00499 0.00698818 0.0
1.52351 0.00720988 0.0
0.0223403 0.0311667 0.0
-0.254477 0.0380598 0.0
-0.182753 0.00601962 0.0
0.642073 0.0153782 0.0
0.653352 -0.0116897 0.0
0.555345 -0.101533 0.0
1.03493 -0.00709675 0.0
1.79634 -0.33261 0.0
1.04787 -0.153385 0.0
1.20282 -0.0491844 0.0
1.20456 0.0544228 0.0
0.482882 -0.00101534 0.0
1.64365 0.0738383 0.0
0.85712 0.0303636 0.0
1.24849 -0.0569747 0.0
-0.230503 0.0469747 0.0
1.74047 0.446508 0.0
1.14304 0.00835187 0.0
1.22204 -0.204902 0.0
1.14317 0.0341056 0.0
1.05422 0.130245 0.0
0.981792 -0.000442968 0.0
0.987063 0.109857 0.0
0.566239 -0.00354563 0.0
1.1714 -0.0340394 0.0
0.929232 -0.0246648 0.0
1.23518 0.00344808 0.0
1.36547 0.265547 0.0
1.19111 0.0865921 0.0
1.10487 0.00564042 0.0
1.11581 0.00642997 0.0
1.18261 0.198715 0.0
1.12009 -0.287606 0.0
1.11408 0.0121103 0.0
1.16602 -0.225276 0.0
1.11925 0.0090819 0.0
0.363108 0.110223 0.0
1.08768 -0.644369 0.0
0.730583 -0.127092 0.0
1.02505 -0.00860292 0.0
0.765704 -0.078996 0.0
0.762227 -0.0636704 0.0
1.02761 0.00778185 0.0
1.05545 0.0959233 0.0
0.461054 0.0470129 0.0
0.889593 -0.829902 0.0
1.77863 0.345099 0.0
1.02837 -0.00208803 0.0
0.983974 0.00660808 0.0
0.66735 0.0602322 0.0
0.852982 0.0569077 0.0
0.397738 0.0590099 0.0
0.998472 -0.0149272 0.0
1.42771 -0.0322272 0.0
1.44964 0.581446 0.0
1.15458 0.193116 0.0
1.0692 -0.0135421 0.0
1.42685 0.0384029 0.0
1.04161 -0.0922899 0.0
1.4011 -0.0914634 0.0
1.436 -0.044693 0.0
0.483224 0.0244052 0.0
0.66249 0.0125718 0.0
0.900049 -0.0227458 0.0
0.857817 0.0334977 0.0
0.516472 0.0171065 0.0
0.51396 -0.00304047 0.0
1.79011 0.286526 0.0
1.11176 0.011783 0.0
1.44069 -0.0035577 0.0
1.12146 0.0122491 0.0
0.731537 -0.0773655 0.0
1.51122 -0.0906654 0.0
1.17573 -0.0305691 0.0
1.16374 -0.0131764 0.0
0.833097 -0.0495833 0.0
1.67135 -0.0705358 0.0
1.01023 0.0553479 0.0
0.996192 0.0113722 0.0
0.958855 -0.0261653 0.0
1.23354 0.0024337 0.0
1.43554 -0.137312 0.0
1.7298 -0.600868 0.0
1.1842 -0.00574068 0.0
1.20303 -0.0111144 0.0
0.990939 -3.77742e-05 0.0
1.06355 -0.132777 0.0
1.02922 -0.0102371 0.0
0.997528 -0.00674408 0.0
1.25792 0.310859 0.0
1.03831 -0.256621 0.0
1.09399 0.171535 0.0
1.3188 0.132393 0.0
0.743624 -0.106687 0.0
0.355088 -0.0454553 0.0
0.9589 0.0159419 0.0
1.4387 0.0570256 0.0
1.42203 0.918328 0.0
0.682938 -0.0851895 0.0
1.15181 -0.0174717 0.0
1.70424 0.140341 0.0
1.09691 -0.898561 0.0
0.868425 -0.177616 0.0
1.1413 -0.0375063 0.0
0.559609 -0.00847177 0.0
1.02622 0.0270746 0.0
0.543975 -0.00975334 0.0
1.03192 -0.00485464 0.0
1.22616 0.00296272 0.0
0.617703 -0.011927 0.0
0.775903 -0.0336609 0.0
1.09484 -0.285471 0.0
1.32611 -0.104578 0.0
1.22382 0.000679679 0.0
1.02003 -0.0017452 0.0
1.00226 0.0083296 0.0
0.507666 -0.00584099 0.0
1.22718 0.00572925 0.0
0.736969 -0.026053 0.0
1.12808 0.043462 0.0
0.99507 -0.00988192 0.0
0.566703 0.0033639 0.0
1.24093 -0.109892 0.0
1.22738 -0.170993 0.0
0.789548 -0.0266257 0.0
1.13958 -0.0652726 0.0
0.584245 0.00172847 0.0
0.983121 -0.0154145 0.0
0.11635 0.0673632 0.0
1.20214 9.65874e-05 0.0
1.19762 -0.0105695 0.0
0.594372 -0.00399096 0.0
0.942516 -0.194223 0.0
0.98745 -0.0154542 0.0
1.43 0.154424 0.0
1.19857 0.000806916 0.0
1.23466 -0.00144888 0.0
1.22356 -0.170782 0.0
1.23587 -0.00292053 0.0
1.23482 0.000787226 0.0
1.1714 -0.0170129 0.0
0.934756 -0.114517 0.0
0.835802 0.0428679 0.0
1.23559 -0.00509811 0.0
1.23296 -0.000786592 0.0
1.22822 -0.00193528 0.0
0.634936 0.0704995 0.0
0.456487 0.00496764 0.0
0.998305 0.00993762 0.0
0.54501 -0.007534 0.0
1.23388 -0.00565209 0.0
1.00256 -0.0182853 0.0
1.16293 0.0100966 0.0
-0.261346 -0.0268211 0.0
0.966414 -0.0121487 0.0
0.499767 -0.00473341 0.0
1.31888 -0.604719 0.0
1.12259 -0.00718398 0.0
0.970659 -0.0160133 0.0
0.52469 -0.0101854 0.0
1.23389 -0.00326417 0.0
0.868461 0.0407324 0.0
0.532157 0.0016495 0.0
0.992938 -0.0154998 0.0
1.23404 -0.00566718 0.0
1.22707 -0.00268943 0.0
1.2324 -0.00332697 0.0
0.62076 -0.00710538 0.0
0.444215 6.61676e-05 0.0
1.23116 -0.00647843 0.0
1.14152 -0.0734396 0.0
1.20537 -0.00718255 0.0
0.602753 0.010038 0.0
1.18536 -0.00805878 0.0
1.22475 -0.00582267 0.0
1.21176 0.000960969 0.0
1.23631 -0.00733466 0.0
0.465454 -0.00681597 0.0
1.22937 -0.0064114 0.0
1.23105 -0.00667182 0.0
1.22092 -0.00682199 0.0
0.454938 -0.0038793 0.0
1.21729 -0.00306673 0.0
1.18359 -0.00605399 0.0
1.20184 -0.00108772 0.0
1.23366 -0.00744898 0.0
1.17041 -0.157846 0.0
1.12952 0.00148304 0.0
1.23477 -0.00744018 0.0
1.35089 0.668535 0.0
1.21834 -0.00646813 0.0
0.508637 -0.00701773 0.0
1.09762 -0.0220145 0.0
0.563423 0.00812664 0.0
0.59498 -0.00932129 0.0
1.11715 0.00694368 0.0
1.09753 -0.012286 0.0
1.07132 -0.00769865 0.0
0.533383 -0.00802266 0.0
1.10339 -0.021694 0.0
1.12399 0.00553411 0.0
1.2319 -0.00781277 0.0
1.07373 0.138977 0.0
1.15505 -0.696807 0.0
0.563791 -0.00470292 0.0
0.521896 -0.00537581 0.0
1.22708 -0.00580182 0.0
1.22886 -0.00814816 0.0
0.619932 -0.0183333 0.0
0.510065 -0.00923836 0.0
1.22429 -0.00501929 0.0
0.992467 0.0165455 0.0
1.16073 0.0113966 0.0
1.15576 -0.0074762 0.0
0.567261 0.00722014 0.0
0.518812 -0.00217662 0.0
1.14352 0.0171882 0.0
0.603361 0.014173 0.0
0.569346 0.0146335 0.0
1.17318 0.00902812 0.0
0.61989 0.0206257 0.0
0.571754 -0.000805139 0.0
1.21448 -0.00411493 0.0
1.20179 -0.00318706 0.0
0.962063 0.0163355 0.0
1.21062 -0.00175179 0.0
1.18265 -0.00184538 0.0
1.21853 -0.0030534 0.0
0.982946 0.0125332 0.0
1.15199 -0.002556 0.0
0.607681 0.00581058 0.0
0.501189 0.0140019 0.0
0.55134 0.0142264 0.0
0.466556 -0.00793636 0.0
0.532771 0.000888337 0.0
0.556584 -0.00532474 0.0
0.5272 -0.00284403 0.0
0.640291 -0.0137886 0.0
0.540681 -0.00450852 0.0
0.574591 0.0133794 0.0
0.486512 -0.00752082 0.0
0.576756 0.0155043 0.0
0.494055 0.000165836 0.0
0.679119 0.0213072 0.0
0.578638 0.0100615 0.0
0.57255 -0.0114687 0.0
0.488747 0.00279191 0.0
0.527608 -0.00224719 0.0
0.509532 0.00790354 0.0
0.612324 -0.00974945 0.0
0.532649 -0.00080929 0.0
0.601677 -0.00764574 0.0
0.559409 -0.0123307 0.0
0.545375 0.00678109 0.0
0.523048 0.000124581 0.0
0.538307 0.00415066 0.0
0.47679 -0.0170109 0.0
0.492714 0.019685 0.0
0.494698 0.000499056 0.0
0.557128 -0.00715757 0.0
0.494068 0.00312547 0.0
0.646413 -0.0210596 0.0
0.492316 0.00630327 0.0
0.463789 0.00556473 0.0
0.504698 0.000984546 0.0
0.482388 -0.00267385 0.0
1.18096 -0.00105496 0.0
1.16153 -0.00637248 0.0
1.22695 -0.00736563 0.0
1.22457 -0.00501109 0.0
1.22774 -0.00524232 0.0
1.11949 -0.00793283 0.0
1.19809 -0.00706194 0.0
1.17917 -0.00678729 0.0
1.182 0.00480994 0.0
1.15445 -0.00122636 0.0
1.21059 -0.00797008 0.0
1.21325 -0.00871987 0.0
1.17499 -0.00664964 0.0
1.21969 -0.00364101 0.0
1.1956 -0.000255234 0.0
1.22129 -0.00609903 0.0
1.19412 -0.00726363 0.0
1.15233 0.00181663 0.0
1.21758 -0.00620179 0.0
1.22274 -0.00420275 0.0
1.20781 -0.000826931 0.0
1.22132 -0.00357039 0.0
1.21704 -0.00499311 0.0
1.15648 -0.00901847 0.0
1.22064 -0.00178011 0.0
1.19766 -0.00342687 0.0
1.21761 -0.00116271 0.0
1.12073 -0.00154194 0.0
1.19942 -0.00259244 0.0
1.19176 0.0019376 0.0
1.21239 -0.00141705 0.0
1.17574 -0.00155572 0.0
1.21242 -0.00235961 0.0
1.21565 -0.0024117 0.0
1.18538 0.00449484 0.0
1.21585 -0.00136605 0.0
1.20823 -0.00415548 0.0
1.21042 0.000695685 0.0
1.15271 -0.00850126 0.0
1.17758 -0.00256113 0.0
1.21353 0.000460518 0.0
1.20563 -0.00343821 0.0
1.20199 0.00227214 0.0
1.19886 0.00369645 0.0
1.16016 -0.0126005 0.0
1.21055 0.00046116 0.0
1.20702 0.000827122 0.0
1.13789 -0.00606741 0.0
1.19346 -0.0043886 0.0
1.12198 0.00309784 0.0
1.17937 -0.00442882 0.0
1.18938 -0.00400715 0.0
1.20147 -0.00368796 0.0
1.20731 -0.00128293 0.0
1.17513 -0.00454264 0.0
1.20514 -0.00351131 0.0
1.20343 -0.00104169 0.0
1.20519 0.000517526 0.0
1.20145 0.00310974 0.0
1.19797 0.0034274 0.0
1.19492 0.00368276 0.0
1.1839 0.00602835 0.0
1.136 -0.00646396 0.0
1.094 0.00789866 0.0
1.17852 0.00710264 0.0
1.20111 0.000900908 0.0
0.577028 -0.00617901 0.0
1.18742 0.00599437 0.0
1.14821 0.00761323 0.0
1.17024 0.00792756 0.0
1.19885 0.00304989 0.0
1.16781 0.0075939 0.0
1.17781 0.00563956 0.0
1.17071 0.000228124 0.0
1.1899 0.00545552 0.0
1.1777 -0.000864061 0.0
1.13366 -0.00535195 0.0
1.13332 -0.00821304 0.0
1.15664 -0.00494282 0.0
1.18632 0.00668082 0.0
1.17448 -0.00421867 0.0
1.18467 0.00339522 0.0
1.16801 -0.00408633 0.0
1.18489 -0.00399532 0.0
1.18863 0.00283763 0.0
1.18189 0.00589371 0.0
0.978934 -0.0141546 0.0
1.17252 -0.00366974 0.0
1.17452 0.00781889 0.0
1.14538 0.00913965 0.0
1.18978 -0.0024102 0.0
1.19345 0.000190854 0.0
1.08279 -0.0176352 0.0
1.16486 0.0109537 0.0
1.17854 -0.00362479 0.0
1.14679 0.014973 0.0
1.18907 -4.92575e-05 0.0
1.14966 0.0176332 0.0
1.16739 -0.00440009 0.0
1.1934 -0.00237068 0.0
1.1743 -0.00111548 0.0
1.11937 0.176576 0.0
1.15262 -0.007398 0.0
1.22327 -0.00962321 0.0
1.17037 0.00950952 0.0
1.17484 0.00118106 0.0
1.15726 -0.0134097 0.0
1.16094 -0.00355117 0.0
1.13924 -0.00305158 0.0
1.16112 -0.00952474 0.0
1.16705 0.00272855 0.0
1.14075 -0.00116331 0.0
1.16203 0.00240356 0.0
1.16349 -0.00677149 0.0
1.16342 -0.00283441 0.0
1.14894 0.0119985 0.0
1.15947 -0.00516013 0.0
0.718702 -0.0205016 0.0
0.972267 0.00518227 0.0
1.14442 0.0142576 0.0
1.14705 0.00948708 0.0
1.15425 -0.0076131 0.0
1.1412 0.0119115 0.0
1.14765 0.0143423 0.0
1.14422 -0.00227823 0.0
1.12679 0.000947092 0.0
1.13917 -0.00304983 0.0
1.13272 0.00102947 0.0
1.1209 0.0120614 0.0
1.15737 0.00574217 0.0
1.15168 0.00860116 0.0
0.995278 0.00890729 0.0
1.15283 0.005937 0.0
1.1572 0.0116812 0.0
1.15007 0.0121241 0.0
1.11429 0.0151645 0.0
1.13588 0.0156595 0.0
1.15408 0.0126277 0.0
1.73544 0.18169 0.0
1.11914 -0.0104374 0.0
1.12708 0.0192363 0.0
1.09936 -0.0221404 0.0
1.14934 0.0217911 0.0
1.14739 0.0161051 0.0
1.11286 -0.0128009 0.0
1.14629 0.0219162 0.0
1.22391 -0.00643992 0.0
1.07037 -0.00968105 0.0
1.09904 0.0152217 0.0
1.09642 -0.0068085 0.0
1.30724 0.126001 0.0
1.21927 -0.00546842 0.0
1.08414 -0.00212172 0.0
1.15549 -0.00753224 0.0
1.13993 0.0281212 0.0
1.14656 0.0223883 0.0
1.08901 -0.00843701 0.0
1.09357 -0.0271954 0.0
0.980794 -0.0159558 0.0
1.19499 -0.00181122 0.0
1.06649 0.000706696 0.0
1.07606 0.000240937 0.0
1.12047 0.0246797 0.0
1.12032 -0.0266042 0.0
1.02973 0.198339 0.0
0.960822 -0.0159326 0.0
1.13612 0.0337444 0.0
0.441991 -0.164346 0.0
1.38219 0.131372 0.0
1.18138 -0.0520716 0.0
1.06421 0.0102962 0.0
1.0655 0.0257072 0.0
1.0538 0.036383 0.0
1.22015 -0.00227925 0.0
1.0518 0.0143329 0.0
1.03738 -0.0440033 0.0
1.30216 0.175953 0.0
1.00313 -0.14238 0.0
1.03254 -0.0577357 0.0
1.15147 -0.133266 0.0
1.14952 -0.0130666 0.0
1.09502 -0.0479943 0.0
1.18179 -0.00351235 0.0
0.93614 0.00179227 0.0
1.18098 0.0539918 0.0
1.00767 -0.013839 0.0
1.2379 -0.101746 0.0
1.21782 -0.00565178 0.0
1.20535 -0.00649833 0.0
1.05486 -0.0199311 0.0
1.39837 -0.567472 0.0
1.13228 0.0834269 0.0
0.994466 -0.0202103 0.0
1.13245 0.0668731 0.0
0.956578 0.00151245 0.0
0.758444 0.0280722 0.0
1.08936 0.044927 0.0
1.32725 -0.160587 0.0
0.932974 -0.0907561 0.0
1.09849 -0.0395462 0.0
0.632624 -0.556519 0.0
1.11079 -0.027942 0.0
1.11681 -0.00741292 0.0
1.15437 -0.00791108 0.0
1.39116 -0.139349 0.0
1.08007 0.0600293 0.0
1.18178 -0.00271332 0.0
1.04679 -0.0261752 0.0
1.16343 0.0361314 0.0
0.989402 -0.0182571 0.0
1.34995 -0.77179 0.0
1.22892 0.00439637 0.0
1.17963 0.0513976 0.0
1.20349 0.00270188 0.0
1.12705 -0.000897199 0.0
1.1805 -0.0564544 0.0
1.06592 0.0201139 0.0
1.21085 0.0814055 0.0
1.12245 -0.00773977 0.0
1.15894 0.0440931 0.0
0.95498 0.00174967 0.0
1.15305 0.0111407 0.0
1.1805 -0.531637 0.0
0.660005 -0.00602115 0.0
0.681514 -0.023118 0.0
0.924537 0.0271147 0.0
1.26623 0.119644 0.0
1.15329 -0.006068 0.0
1.18224 -0.00483778 0.0
0.607683 0.0101553 0.0
1.20254 -0.00571353 0.0
0.327859 -0.123521 0.0
1.07314 -0.0991857 0.0
0.549311 0.00932553 0.0
0.555877 -0.0107437 0.0
0.899162 0.0402911 0.0
1.15848 -0.00643512 0.0
0.863952 -0.174347 0.0
0.846213 -0.0255222 0.0
1.68893 -0.125097 0.0
0.941742 0.0373816 0.0
1.15294 -0.0106221 0.0
1.15352 -0.0120767 0.0
1.05385 0.00869011 0.0
1.22596 0.00334694 0.0
1.1801 0.00110899 0.0
1.18511 0.348336 0.0
0.621067 0.0173075 0.0
1.0213 0.00175374 0.0
1.36961 -0.0978202 0.0
0.538502 0.00769355 0.0
1.58076 0.560947 0.0
0.933585 -0.0417317 0.0
0.796068 -0.0266562 0.0
1.34139 0.0881432 0.0
0.781644 -0.053808 0.0
0.956029 -0.00138822 0.0
0.668399 -0.116139 0.0
1.1552 -0.0168491 0.0
0.881018 0.0996628 0.0
1.13512 -0.0144295 0.0
0.658521 -0.00413457 0.0
1.03076 0.00544124 0.0
0.980355 0.136244 0.0
1.40941 -0.0326409 0.0
0.521662 -0.00360566 0.0
0.636246 -0.0245595 0.0
0.918747 0.805446 0.0
1.11054 -0.000985027 0.0
1.05188 0.0115768 0.0
1.39256 0.0136369 0.0
0.602945 -0.0104592 0.0
1.13158 0.0184403 0.0
1.16664 -0.448606 0.0
0.186485 0.0223941 0.0
0.924878 -0.0632406 0.0
1.07004 -0.0832668 0.0
0.735667 0.0239241 0.0
0.518835 0.0178396 0.0
1.64904 0.0364096 0.0
1.15531 -0.00503134 0.0
0.311488 0.0152322 0.0
0.571355 0.0249229 0.0
1.14461 -0.00596043 0.0
1.20436 -0.00608381 0.0
1.00278 -0.0189489 0.0
0.937749 0.0623758 0.0
1.20929 0.172604 0.0
0.641 0.0107843 0.0
1.2073 0.00729601 0.0
0.919282 0.0928351 0.0
1.21017 -0.00899101 0.0
1.38798 -0.59346 0.0
0.510562 0.00129222 0.0
1.45935 -0.129861 0.0
1.11008 0.00857067 0.0
0.948816 -0.0142762 0.0
0.621605 0.0903359 0.0
0.991068 0.101841 0.0
0.897476 0.139874 0.0
1.11278 0.010012 0.0
1.21807 -0.0579459 0.0
1.39921 -0.0369343 0.0
0.587789 0.00500366 0.0
0.611831 0.0149703 0.0
1.07309 -0.00371583 0.0
0.404543 -0.0728944 0.0
1.04411 0.0365693 0.0
0.492862 0.00340249 0.0
0.962345 -0.0113401 0.0
1.11149 -0.00447031 0.0
0.939663 -0.00943475 0.0
0.559005 -0.00670584 0.0
0.557751 0.0187262 0.0
0.568693 0.00959292 0.0
0.508867 0.00711493 0.0
0.587906 0.0114272 0.0
1.21071 0.6696 0.0
1.36092 0.0696025 0.0
0.96615 -0.00328433 0.0
0.53604 0.00818227 0.0
0.54773 -0.0126786 0.0
0.700075 0.0249226 0.0
1.15703 -0.0474146 0.0
0.620006 0.00106895 0.0
1.60377 -0.193107 0.0
1.29616 0.0954324 0.0
0.536838 -0.140689 0.0
1.34556 -0.0935938 0.0
1.52681 -0.46686 0.0
1.01111 0.00548763 0.0
1.09125 0.0185838 0.0
1.13976 -0.012177 0.0
0.959623 0.00361892 0.0
0.837045 -0.689205 0.0
1.02828 -0.00197129 0.0
0.980482 -0.00586284 0.0
1.20482 -0.0132536 0.0
1.1228 -0.0340565 0.0
1.64831 -0.000120927 0.0
-0.120946 0.0977225 0.0
0.506263 -0.0687046 0.0
1.33616 0.518185 0.0
1.07249 -0.0120707 0.0
0.608841 -0.0120452 0.0
0.579846 -0.00579017 0.0
0.574474 -0.00616543 0.0
1.22716 0.00538719 0.0
0.633545 0.211198 0.0
1.17449 -0.0243987 0.0
0.977297 0.0128145 0.0
0.751063 0.163005 0.0
1.12547 -0.00137611 0.0
0.137975 -0.00966288 0.0
1.19299 0.00546329 0.0
0.565835 0.0208087 0.0
0.563646 -0.0104984 0.0
1.33996 0.0854591 0.0
0.83747 -0.0117076 0.0
1.50627 0.031965 0.0
0.974612 0.0155734 0.0
0.990342 0.0118643 0.0
0.111324 -0.166266 0.0
0.971071 0.0291629 0.0
1.16888 0.0135121 0.0
1.15203 0.013518 0.0
0.355857 -0.136123 0.0
1.6163 -0.273236 0.0
1.09509 -0.000742554 0.0
1.28743 0.194952 0.0
0.589455 -0.0141779 0.0
0.556118 -0.00783421 0.0
1.12385 -0.0165887 0.0
0.530482 0.0896525 0.0
1.12448 -0.0270619 0.0
0.809795 0.02174 0.0
0.935578 -0.0082096 0.0
1.1308 0.0122228 0.0
0.994732 -0.00300091 0.0
0.201884 -0.0209015 0.0
1.15031 -0.0135638 0.0
0.309751 0.0604649 0.0
1.00994 1.53626e-05 0.0
0.999742 -0.00376132 0.0
0.576386 -0.015332 0.0
1.07315 -0.00929162 0.0
1.1745 -0.0246087 0.0
0.947246 0.00112438 0.0
0.99216 -0.0137627 0.0
1.2002 -0.964609 0.0
1.13218 0.0222535 0.0
1.69269 0.486954 0.0
0.550778 -0.016772 0.0
0.539784 0.00651368 0.0
1.16664 0.00660723 0.0
1.22861 -0.00664935 0.0
1.11448 -0.00845075 0.0
1.12314 -0.00163175 0.0
1.18096 0.00657808 0.0
1.13114 0.00616692 0.0
1.21981 -0.00953495 0.0
1.15073 0.0256845 0.0
-0.198466 0.0188097 0.0
1.10397 0.01489 0.0
-0.0253898 0.0286726 0.0
0.664779 -0.0257012 0.0
1.20441 -0.177418 0.0
1.14861 -0.012551 0.0
1.36842 -0.137928 0.0
1.64629 -0.502437 0.0
0.314249 -0.0181113 0.0
1.21376 -0.00893947 0.0
1.129 0.272025 0.0
1.35146 -0.0982257 0.0
1.07137 0.305701 0.0
1.70948 0.086913 0.0
0.97523 -0.542438 0.0
1.37208 0.132338 0.0
1.12213 -0.016445 0.0
1.28963 -0.480968 0.0
-0.0874119 -0.108046 0.0
1.06078 -0.000198358 0.0
1.31864 -0.394861 0.0
0.493542 -0.00490197 0.0
1.41866 -0.149978 0.0
1.68465 0.198498 0.0
1.09148 0.0137725 0.0
0.389673 0.0157343 0.0
0.717031 0.0018376 0.0
0.267865 -0.228441 0.0
0.957146 0.0459401 0.0
-0.118743 -0.0299049 0.0
1.14642 -0.162357 0.0
1.49642 0.143685 0.0
0.53773 0.00905814 0.0
1.22933 -0.0687214 0.0
0.96463 0.00073252 0.0
1.21818 0.00461006 0.0
0.435144 -0.6155 0.0
1.22864 0.264384 0.0
0.72916 -0.162524 0.0
0.191332 -0.330917 0.0
0.517483 0.160695 0.0
1.3026 0.238506 0.0
0.5979 0.152176 0.0
0.969487 -0.0131139 0.0
1.1414 -0.0167437 0.0
1.0828 0.0111132 0.0
1.07683 0.00875224 0.0
0.57177 0.00727211 0.0
0.0235755 0.0820051 0.0
1.3083 0.299796 0.0
0.468698 -0.00219469 0.0
1.10147 0.0104163 0.0
0.264443 0.216293 0.0
0.972371 -0.00559029 0.0