# vtk DataFile Version 3.0
Malha 2D com triângulos e temperatura
ASCII
DATASET UNSTRUCTURED_GRID

POINTS 688 double
0 0 0
2.2 0 0
2.2 0.41 0
0 0.41 0
0.25 0.2 0
0.05 0 0
0.1 0 0
0.15 0 0
0.2 0 0
0.25 0 0
0.3 0 0
0.35 0 0
0.4 0 0
0.45 0 0
0.5 0 0
0.55 0 0
0.6 0 0
0.65 0 0
0.7 0 0
0.75 0 0
0.8 0 0
0.85 0 0
0.9 0 0
0.95 0 0
1 0 0
1.05 0 0
1.1 0 0
1.15 0 0
1.2 0 0
1.25 0 0
1.3 0 0
1.35 0 0
1.4 0 0
1.45 0 0
1.5 0 0
1.55 0 0
1.6 0 0
1.65 0 0
1.7 0 0
1.75 0 0
1.8 0 0
1.85 0 0
1.9 0 0
1.95 0 0
2 0 0
2.05 0 0
2.1 0 0
2.15 0 0
2.2 0.0455556 0
2.2 0.0911111 0
2.2 0.136667 0
2.2 0.182222 0
2.2 0.227778 0
2.2 0.273333 0
2.2 0.318889 0
2.2 0.364444 0
2.15 0.41 0
2.1 0.41 0
2.05 0.41 0
2 0.41 0
1.95 0.41 0
1.9 0.41 0
1.85 0.41 0
1.8 0.41 0
1.75 0.41 0
1.7 0.41 0
1.65 0.41 0
1.6 0.41 0
1.55 0.41 0
1.5 0.41 0
1.45 0.41 0
1.4 0.41 0
1.35 0.41 0
1.3 0.41 0
1.25 0.41 0
1.2 0.41 0
1.15 0.41 0
1.1 0.41 0
1.05 0.41 0
1 0.41 0
0.95 0.41 0
0.9 0.41 0
0.85 0.41 0
0.8 0.41 0
0.75 0.41 0
0.7 0.41 0
0.65 0.41 0
0.6 0.41 0
0.55 0.41 0
0.5 0.41 0
0.45 0.41 0
0.4 0.41 0
0.35 0.41 0
0.3 0.41 0
0.25 0.41 0
0.2 0.41 0
0.15 0.41 0
0.1 0.41 0
0.05 0.41 0
0 0.364444 0
0 0.318889 0
0 0.273333 0
0 0.227778 0
0 0.182222 0
0 0.136667 0
0 0.0911111 0
0 0.0455556 0
0.248831 0.210749 0
0.245379 0.220994 0
0.239805 0.230259 0
0.232369 0.238108 0
0.22342 0.244176 0
0.213376 0.248177 0
0.202707 0.249927 0
0.191911 0.249341 0
0.181493 0.246449 0
0.171941 0.241384 0
0.1637 0.234385 0
0.157157 0.225778 0
0.152617 0.215965 0
0.150293 0.205406 0
0.150293 0.194594 0
0.152617 0.184035 0
0.157157 0.174222 0
0.1637 0.165615 0
0.171941 0.158616 0
0.181493 0.153551 0
0.191911 0.150659 0
0.202707 0.150073 0
0.213376 0.151823 0
0.22342 0.155824 0
0.232369 0.161892 0
0.239805 0.169741 0
0.245379 0.179006 0
0.248831 0.189251 0
0.421316 0.36725 0
0.426705 0.0366526 0
2.16065 0.209201 0
1.52286 0.0417259 0
0.626017 0.37111 0
1.3257 0.0414552 0
1.02471 0.0432237 0
1.17293 0.0421053 0
0.82501 0.36678 0
1.6757 0.370064 0
1.91628 0.0358195 0
1.82501 0.366432 0
0.723429 0.0421499 0
1.425 0.366699 0
1.97461 0.366224 0
1.12167 0.370137 0
0.975 0.368691 0
0.877672 0.0412714 0
1.27686 0.36884 0
1.725 0.0433013 0
0.579174 0.0416211 0
0.325589 0.363848 0
0.319111 0.0378151 0
0.0394523 0.296111 0
0.0329929 0.11602 0
0.142108 0.187428 0
1.57555 0.364352 0
2.02603 0.0412138 0
0.725007 0.36763 0
0.528647 0.366595 0
1.62699 0.0400272 0
1.82929 0.0421255 0
1.425 0.0418325 0
2.07474 0.364233 0
0.125 0.0433013 0
0.161245 0.155011 0
0.225 0.366699 0
0.210027 0.258536 0
2.16034 0.115449 0
0.0371627 0.204103 0
0.142311 0.212698 0
0.220283 0.0418538 0
0.221965 0.145099 0
0.196802 0.141016 0
0.119851 0.373394 0
0.161112 0.245979 0
0.184892 0.258024 0
2.16342 0.30039 0
2.12627 0.047699 0
0.183325 0.0412617 0
0.152317 0.0762976 0
0.203864 0.0745802 0
0.234384 0.0774346 0
0.215969 0.103585 0
0.245651 0.104548 0
0.186562 0.100216 0
0.268213 0.0793029 0
0.272149 0.109155 0
0.242885 0.159377 0
0.253088 0.128261 0
0.278718 0.13214 0
0.295917 0.115997 0
0.301728 0.138858 0
0.321266 0.12205 0
0.324642 0.151724 0
0.255978 0.181139 0
0.350123 0.129049 0
0.357539 0.159885 0
0.333541 0.181416 0
0.36451 0.19182 0
0.250573 0.230419 0
0.391277 0.169722 0
0.339477 0.212308 0
0.39836 0.205386 0
0.427326 0.18117 0
0.258724 0.206387 0
0.434392 0.219501 0
0.466446 0.193907 0
0.472865 0.243064 0
0.507358 0.209962 0
0.40073 0.238916 0
0.499135 0.1652 0
0.5419 0.179224 0
0.550176 0.22496 0
0.585844 0.194129 0
0.594095 0.240176 0
0.630701 0.209517 0
0.621901 0.162424 0
0.667731 0.178095 0
0.676485 0.226008 0
0.713906 0.194492 0
0.722681 0.242872 0
0.760442 0.211047 0
0.751547 0.162356 0
0.798298 0.179 0
0.807147 0.227866 0
0.845136 0.195775 0
0.854541 0.243285 0
0.892163 0.212344 0
0.902461 0.257947 0
0.93935 0.228684 0
0.930236 0.180167 0
0.977229 0.197066 0
0.986264 0.245777 0
1.02423 0.213991 0
1.0331 0.263172 0
1.07123 0.230975 0
1.06234 0.181814 0
1.10938 0.198721 0
1.09996 0.151012 0
1.14691 0.168161 0
1.15631 0.215921 0
1.19446 0.183678 0
1.20343 0.232645 0
1.2416 0.200322 0
1.23272 0.151117 0
1.2798 0.167954 0
1.28868 0.217167 0
1.32685 0.184862 0
1.33573 0.234064 0
1.3739 0.201768 0
0.789327 0.130094 0
1.38279 0.25097 0
1.42096 0.218674 0
1.41207 0.169471 0
1.45912 0.186378 0
1.46801 0.235581 0
1.50618 0.203285 0
1.51506 0.252489 0
1.55323 0.220192 0
1.54435 0.170989 0
1.5914 0.187896 0
1.60029 0.2371 0
1.63846 0.204803 0
1.64734 0.254007 0
1.68551 0.221711 0
1.67663 0.172507 0
1.72368 0.189415 0
1.73831 0.241548 0
1.77074 0.206322 0
1.76185 0.157121 0
1.8091 0.17428 0
1.81866 0.220885 0
1.85608 0.190621 0
1.86521 0.238879 0
1.90289 0.207671 0
1.91264 0.253772 0
1.94955 0.224093 0
1.94067 0.17593 0
1.98705 0.192828 0
1.99572 0.240997 0
2.0329 0.209382 0
2.02422 0.16161 0
2.04166 0.257286 0
0.419739 0.142889 0
0.968291 0.148058 0
0.310035 0.202211 0
0.316128 0.230863 0
0.658501 0.130052 0
0.685107 0.27445 0
1.34462 0.283266 0
1.16528 0.264896 0
1.84735 0.142081 0
0.557687 0.270604 0
1.21234 0.281769 0
1.58252 0.138692 0
0.533563 0.131933 0
0.489835 0.120004 0
1.45024 0.137174 0
2.06974 0.17785 0
2.06113 0.130713 0
0.283221 0.152215 0
0.921299 0.131169 0
0.343836 0.24295 0
0.319203 0.260002 0
0.235529 0.249617 0
0.347029 0.274099 0
0.291856 0.246297 0
0.295938 0.27548 0
0.272836 0.264931 0
0.27461 0.290522 0
0.251228 0.280224 0
0.253903 0.305808 0
0.232795 0.296709 0
0.298805 0.304058 0
1.0801 0.280176 0
1.47689 0.284785 0
1.05315 0.133468 0
1.09741 0.0970974 0
1.82427 0.272867 0
1.2701 0.118911 0
0.816337 0.277695 0
1.40432 0.121101 0
1.04244 0.320388 0
0.959305 0.103028 0
1.60923 0.286151 0
0.601674 0.286775 0
2.00739 0.280923 0
0.342592 0.0992796 0
0.375237 0.105729 0
1.52511 0.298716 0
1.53114 0.119823 0
0.733824 0.287256 0
0.613372 0.114719 0
0.645558 0.0838585 0
2.015 0.115858 0
1.22718 0.0994086 0
1.39166 0.29817 0
1.3564 0.329754 0
0.744134 0.11556 0
0.782853 0.0841771 0
0.826899 0.10047 0
1.17418 0.314034 0
0.520902 0.0906676 0
1.4967 0.329429 0
1.26048 0.0740437 0
0.365514 0.0716355 0
0.229836 0.121666 0
1.57453 0.09137 0
1.61938 0.110761 0
0.481716 0.0753791 0
0.14093 0.2 0
0.130041 0.192847 0
0.131507 0.178608 0
0.117165 0.184444 0
0.120761 0.164701 0
0.1156 0.199931 0
0.100804 0.174136 0
0.102545 0.153034 0
0.12169 0.143342 0
0.104604 0.13008 0
0.0809304 0.161171 0
0.128077 0.121858 0
0.106825 0.102278 0
0.082498 0.188728 0
0.0314738 0.158621 0
2.04625 0.310891 0
2.08475 0.27479 0
2.11394 0.138117 0
0.233149 0.151108 0
0.258724 0.193613 0
0.268522 0.184917 0
1.65397 0.301059 0
0.145962 0.224912 0
0.132503 0.222267 0
0.13746 0.236947 0
0.120111 0.233525 0
0.126593 0.25219 0
0.105294 0.247497 0
0.113343 0.26868 0
0.133997 0.271734 0
0.121622 0.292031 0
0.147069 0.292141 0
0.0896563 0.267464 0
0.0813699 0.243294 0
0.163574 0.276939 0
0.172694 0.298517 0
0.1583 0.321483 0
0.186823 0.322499 0
0.173113 0.348195 0
0.0322087 0.250839 0
0.211694 0.124337 0
0.250615 0.169546 0
0.256243 0.157787 0
0.170796 0.14736 0
0.156755 0.141654 0
0.17187 0.131161 0
0.147502 0.152323 0
0.198129 0.260662 0
0.206368 0.271663 0
0.220945 0.26864 0
0.190489 0.270628 0
0.198813 0.286731 0
0.55749 0.322277 0
0.520166 0.299321 0
0.235199 0.330709 0
0.267109 0.337524 0
0.172324 0.25256 0
0.255974 0.218859 0
0.268327 0.214994 0
0.184197 0.143083 0
0.188721 0.129954 0
0.209694 0.139146 0
0.269223 0.244007 0
0.252374 0.255244 0
0.282229 0.0410487 0
1.21977 0.330016 0
1.25733 0.296346 0
2.09358 0.0890819 0
0.244373 0.240984 0
0.0838116 0.115786 0
0.0797544 0.0817835 0
0.237449 0.264854 0
0.247178 0.146225 0
0.270136 0.2 0
0.28023 0.191334 0
0.263476 0.170737 0
0.371486 0.368728 0
0.396124 0.330051 0
0.440314 0.325693 0
0.357693 0.329668 0
0.476576 0.362035 0
0.29587 0.222914 0
0.307627 0.175476 0
0.079599 0.0406461 0
0.146062 0.252571 0
0.15162 0.125025 0
0.417223 0.294608 0
0.457089 0.286958 0
0.036619 0.338729 0
0.0713014 0.322193 0
0.0735823 0.36704 0
0.041143 0.0722223 0
0.693501 0.32349 0
0.145406 0.175484 0
0.138777 0.164467 0
0.300367 0.0698839 0
0.167025 0.112083 0
0.146978 0.105544 0
0.151909 0.236762 0
0.444611 0.106436 0
0.909355 0.0817561 0
0.282901 0.370713 0
1.61474 0.330739 0
0.578053 0.368179 0
0.824695 0.0487848 0
2.09634 0.3213 0
2.02276 0.364865 0
2.12532 0.363702 0
1.09789 0.328757 0
0.161137 0.260089 0
2.07793 0.225752 0
2.12079 0.240944 0
2.0747 0.0437362 0
1.89402 0.158846 0
1.93154 0.128738 0
1.8848 0.111477 0
1.8384 0.0926484 0
1.87744 0.0655304 0
1.7913 0.0793874 0
1.9712 0.046671 0
1.92502 0.366682 0
1.94563 0.325156 0
1.89941 0.326645 0
1.87499 0.367178 0
1.84989 0.323491 0
1.7997 0.321303 0
1.77183 0.280326 0
1.75031 0.321965 0
1.77491 0.365615 0
2.11727 0.191885 0
0.883187 0.163467 0
1.71449 0.140266 0
1.667 0.125342 0
1.70591 0.0884759 0
1.67732 0.042286 0
1.52278 0.370513 0
1.37512 0.04128 0
1.34848 0.0834574 0
0.776093 0.367587 0
1.125 0.0433013 0
1.15 0.0866019 0
1.07442 0.0496847 0
0.974527 0.0370837 0
1.47464 0.0427918 0
1.44953 0.0873752 0
1.17595 0.362984 0
1.025 0.366699 0
0.925007 0.367031 0
0.95 0.323404 0
0.897321 0.326356 0
0.874563 0.367261 0
0.846552 0.324465 0
1.62923 0.156667 0
1.32319 0.13033 0
1.69342 0.270472 0
1.49568 0.156227 0
1.56237 0.268721 0
1.44 0.319169 0
1.43005 0.267892 0
1.36502 0.152565 0
0.993446 0.294003 0
1.30179 0.321101 0
1.18235 0.127964 0
1.25016 0.2491 0
1.29638 0.266841 0
1.11824 0.247967 0
1.12945 0.294699 0
1.01527 0.165035 0
0.836192 0.147197 0
1.4998 0.0831488 0
1.00655 0.118664 0
0.872896 0.117126 0
0.70523 0.146383 0
1.96013 0.276645 0
0.769406 0.257102 0
0.699552 0.0908977 0
2.1587 0.162257 0
1.97813 0.145326 0
0.646036 0.302035 0
0.799423 0.326603 0
0.515621 0.255445 0
1.72538 0.366474 0
1.97009 0.0998346 0
1.57108 0.313772 0
0.577925 0.14549 0
0.638911 0.256447 0
0.407352 0.0771641 0
0.525103 0.042511 0
0.674231 0.370698 0
1.69802 0.321701 0
0.56947 0.0908728 0
1.75459 0.110239 0
1.80084 0.126127 0
0.673535 0.0431435 0
1.57391 0.0465733 0
2.04571 0.0828469 0
0.10002 0.225545 0
0.0788152 0.21577 0
0.369719 0.224393 0
0.210352 0.308739 0
1.22342 0.0432967 0
[...]
CELL_DATA 1241
VECTORS velocity double
1.05452 -0.00348413 0.0
1.16697 0.0541321 0.0
0.605575 6.5881e-05 0.0
1.00406 0.0107057 0.0
1.02776 0.00846722 0.0
1.41379 0.0935312 0.0
1.12348 -0.0189056 0.0
1.04349 -0.00855874 0.0
0.386205 0.00951717 0.0
1.12928 -0.0183931 0.0
1.31251 -0.119589 0.0
1.31639 0.126348 0.0
0.865493 -0.159963 0.0
1.02405 0.000393058 0.0
1.0071 0.00493864 0.0
1.44961 -0.0213191 0.0
0.999614 0.0013056 0.0
0.478959 0.0602298 0.0
1.12794 0.0483987 0.0
1.64644 -0.245294 0.0
1.04344 0.00116912 0.0
1.0493 -0.0631823 0.0
1.02485 0.00427208 0.0
1.25589 0.905952 0.0
1.09031 0.00824792 0.0
1.04573 -0.0013931 0.0
1.29421 -0.194672 0.0
1.06427 -0.0219563 0.0
1.32176 -0.0834056 0.0
1.44797 -0.0544829 0.0
1.33207 0.0901148 0.0
0.837707 -0.0319252 0.0
1.49713 -0.0120613 0.0
1.02207 -0.000180078 0.0
1.20116 -0.049018 0.0
1.35303 0.149758 0.0
1.16052 -0.0452809 0.0
1.0504 -0.16721 0.0
0.359298 0.0204114 0.0
1.37545 0.1336 0.0
1.76924 -0.16809 0.0
1.42743 -0.0340244 0.0
1.05191 -0.235194 0.0
0.653177 0.00328973 0.0
1.39271 -0.159654 0.0
0.64866 4.18595e-05 0.0
1.17678 0.0837249 0.0
1.07928 0.0114093 0.0
1.61233 -0.305635 0.0
1.25948 -0.0259892 0.0
1.13064 -0.0184613 0.0
1.29097 -0.415561 0.0
0.888912 -0.0101288 0.0
1.36532 -0.0884579 0.0
1.78015 -0.270384 0.0
1.49379 -0.0438576 0.0
1.0989 -0.0249907 0.0
1.11576 -0.0167971 0.0
1.66772 -0.0871049 0.0
1.68615 -0.187559 0.0
1.16084 0.848363 0.0
1.05392 -0.00929214 0.0
0.241724 0.0157926 0.0
1.04827 0.0022861 0.0
-0.261425 0.0468429 0.0
1.33239 0.227457 0.0
-0.254383 0.0948836 0.0
1.11274 -0.00264094 0.0
0.829987 -0.0238948 0.0
0.251113 0.0387007 0.0
1.11447 -0.00390651 0.0
0.813473 0.004775 0.0
1.11502 -0.00241923 0.0
0.82399 -0.0366281 0.0
1.11703 -0.00872794 0.0
0.88077 0.156467 0.0
0.980142 0.00443888 0.0
1.64022 -0.0308261 0.0
0.946107 -0.0341918 0.0
0.688305 -0.00171267 0.0
1.75433 -0.375798 0.0
1.15785 -0.243643 0.0
0.708455 0.00569108 0.0
1.25784 -0.222468 0.0
1.34614 0.170035 0.0
0.913997 -0.0643666 0.0
1.2045 0.177074 0.0
0.143484 0.12661 0.0
1.84505 0.525745 0.0
1.11005 -0.0109203 0.0
1.29185 -0.0015924 0.0
-0.175673 -0.0194104 0.0
-0.333962 0.101576 0.0
1.40604 -0.0738349 0.0
1.13395 -0.0269804 0.0
1.04216 -0.00567097 0.0
0.881392 -0.0395791 0.0
-0.193 0.076245 0.0
1.02431 -0.0068227 0.0
-0.205299 0.137099 0.0
1.08212 -0.0982496 0.0
1.11475 -0.00489767 0.0
0.980726 -0.002097 0.0
1.65088 -0.153548 0.0
1.74752 -0.668855 0.0
1.27325 -0.39621 0.0
1.09816 -0.0868957 0.0
0.52791 -0.0100446 0.0
1.79607 0.648509 0.0
1.12879 -0.0184372 0.0
1.45484 -0.126831 0.0
1.22658 0.195014 0.0
0.163553 0.0487813 0.0
1.44151 -0.0268109 0.0
1.06056 0.0184894 0.0
1.44273 0.0401438 0.0
1.39158 0.0160322 0.0
1.37565 0.0414677 0.0
1.05565 0.00199323 0.0
0.307309 0.0691489 0.0
1.20726 0.0347752 0.0
1.52227 0.580201 0.0
1.21611 0.0932026 0.0
0.912726 -0.0617729 0.0
0.769522 -0.125087 0.0
1.17855 0.0696134 0.0
1.4143 -0.0539791 0.0
1.08158 0.010327 0.0
1.7596 0.499987 0.0
0.548594 -0.0709832 0.0
1.11793 -0.00535658 0.0
0.670685 -0.00547753 0.0
0.878788 0.0618611 0.0
1.58901 -0.00480908 0.0
1.03329 -0.1565 0.0
-0.271544 0.0572835 0.0
0.151088 0.0340784 0.0
1.17765 0.0708865 0.0
1.02073 -0.027571 0.0
1.66793 -0.760311 0.0
1.5009 0.00365199 0.0
1.0447 -0.000687565 0.0
1.07698 -0.243023 0.0
0.981036 0.0110919 0.0
1.53868 0.0244051 0.0
0.0710509 0.0455994 0.0
-0.260229 0.0164482 0.0
-0.149285 0.00651868 0.0
0.718672 0.00940838 0.0
0.722811 -0.0123263 0.0
0.554356 -0.100951 0.0
1.01149 -0.0113899 0.0
1.8005 -0.325035 0.0
1.05884 -0.159702 0.0
1.20284 -0.0490515 0.0
1.20459 0.0542945 0.0
0.62752 -0.000329268 0.0
1.63311 0.058418 0.0
0.886815 0.0455453 0.0
1.19546 -0.0501949 0.0
-0.228361 0.0583243 0.0
1.74383 0.440544 0.0
1.11492 0.00093477 0.0
1.22208 -0.204192 0.0
1.10047 0.0186596 0.0
1.05426 0.129871 0.0
1.02402 -0.000916565 0.0
0.98772 0.110575 0.0
0.670145 -0.00288773 0.0
1.12517 -0.0187607 0.0
0.89441 -0.0218085 0.0
1.12898 -0.0144299 0.0
1.36398 0.260781 0.0
1.13948 0.0767797 0.0
1.08775 -0.00253037 0.0
1.09516 -0.00228602 0.0
1.17858 0.194383 0.0
1.11983 -0.286073 0.0
1.09718 0.00225289 0.0
1.16305 -0.222288 0.0
1.09725 -0.000310444 0.0
0.394012 0.0989183 0.0
1.08833 -0.643436 0.0
0.728632 -0.126358 0.0
1.02812 -0.00388902 0.0
0.763143 -0.0780183 0.0
0.758783 -0.0625364 0.0
1.03713 0.00077069 0.0
1.05546 0.0956859 0.0
0.460258 0.0468565 0.0
0.890155 -0.829432 0.0
1.78183 0.336652 0.0
1.01269 0.00133695 0.0
0.992719 0.00810217 0.0
0.665404 0.0591593 0.0
0.880906 0.0766309 0.0
0.397434 0.058775 0.0
1.03671 -0.00863147 0.0
1.42772 -0.0321192 0.0
1.45187 0.580293 0.0
1.15467 0.192623 0.0
1.04896 -0.0188893 0.0
1.42688 0.0383719 0.0
1.06609 -0.121342 0.0
1.35371 -0.0956783 0.0
1.43608 -0.0444167 0.0
0.509085 0.0323802 0.0
0.677323 0.0023475 0.0
0.865957 -0.0235811 0.0
0.820612 0.0337549 0.0
0.659814 0.00943673 0.0
0.632326 -0.000877638 0.0
1.79337 0.276429 0.0
1.09896 0.00200269 0.0
1.45644 -0.0213853 0.0
1.10255 0.00293393 0.0
0.810128 -0.0806675 0.0
1.48685 -0.111639 0.0
1.12729 -0.0157826 0.0
1.1168 -0.00432539 0.0
0.833104 -0.0494112 0.0
1.66836 -0.053955 0.0
1.00005 0.0519412 0.0
1.01672 0.0236539 0.0
0.927728 -0.029134 0.0
1.13042 -0.0131506 0.0
1.39677 -0.148809 0.0
1.7334 -0.597246 0.0
1.13074 -0.0028502 0.0
1.13192 -0.00371246 0.0
1.03036 -0.000762641 0.0
1.06354 -0.132327 0.0
1.03421 -0.00523291 0.0
1.01204 -0.00314858 0.0
1.26756 0.310889 0.0
1.03748 -0.255202 0.0
1.10639 0.169726 0.0
1.27895 0.126609 0.0
0.807661 -0.108823 0.0
0.354624 -0.0452629 0.0
0.944312 0.0127078 0.0
1.43883 0.0571211 0.0
1.42559 0.919091 0.0
0.682821 -0.0848042 0.0
1.11119 -0.00648431 0.0
1.70952 0.126341 0.0
1.09782 -0.898008 0.0
0.86812 -0.176844 0.0
1.09238 -0.0218406 0.0
0.67728 -0.00521918 0.0
1.01427 0.0239528 0.0
0.667506 -0.00649971 0.0
1.0432 -0.00138175 0.0
1.12809 -0.00907034 0.0
0.722908 -0.0137917 0.0
0.751656 -0.0291109 0.0
1.09462 -0.284305 0.0
1.27238 -0.0954344 0.0
1.12875 -0.00895567 0.0
1.00774 -0.00844821 0.0
1.03163 0.00250044 0.0
0.630737 -0.00369457 0.0
1.12327 -0.0137339 0.0
0.729182 -0.0182268 0.0
1.08705 0.0246562 0.0
1.02951 -0.00303604 0.0
0.679636 0.00290488 0.0
1.20516 -0.0997807 0.0
1.2285 -0.19903 0.0
0.769454 -0.019559 0.0
1.11925 -0.0526841 0.0
0.693303 -0.00281813 0.0
1.02026 -0.00739192 0.0
0.170769 0.110683 0.0
1.13026 -0.0156456 0.0
1.12992 -0.00331288 0.0
0.697848 -0.00409198 0.0
0.959468 -0.210942 0.0
1.01421 -0.00867775 0.0
1.39347 0.161747 0.0
1.12183 -0.00506763 0.0
1.13359 -0.00899215 0.0
1.22357 -0.170238 0.0
1.13762 -0.0079624 0.0
1.13346 -0.0132091 0.0
1.12507 -0.00361762 0.0
0.969025 -0.107725 0.0
0.835808 0.0427317 0.0
1.141 -0.00708743 0.0
1.1346 -0.0114391 0.0
1.1357 -0.0114583 0.0
0.631993 0.0694 0.0
0.612954 0.00192566 0.0
0.995254 0.00260082 0.0
0.652352 -0.00807639 0.0
1.14015 -0.00445658 0.0
1.03176 -0.00815491 0.0
1.10424 -0.000849198 0.0
-0.218199 -0.00421451 0.0
1.01891 -0.00426114 0.0
0.645855 -0.000704673 0.0
1.32388 -0.6055 0.0
1.10292 -0.00354291 0.0
1.01581 -0.00727076 0.0
0.655931 -0.00618787 0.0
1.13831 -0.0067712 0.0
0.83199 0.0380559 0.0
0.638543 0.0009826 0.0
1.02873 -0.00611499 0.0
1.14162 -0.00631128 0.0
1.13665 -0.0102851 0.0
1.13434 -0.00833716 0.0
0.720935 -0.00129577 0.0
0.598438 0.00140532 0.0
1.14314 -0.00616715 0.0
1.12166 -0.0607251 0.0
1.13801 -0.00784457 0.0
0.703265 0.00953575 0.0
1.13272 -0.00743578 0.0
1.1347 -0.00526397 0.0
1.13106 -0.0160234 0.0
1.1432 -0.00415859 0.0
0.60478 -0.00356372 0.0
1.1432 -0.00472322 0.0
1.14021 -0.00402291 0.0
1.14205 -0.00456944 0.0
0.601147 -0.00130213 0.0
1.13102 -0.00491576 0.0
1.13128 -0.00392389 0.0
1.1303 -0.0129417 0.0
1.14291 -0.00355157 0.0
1.16877 -0.172815 0.0
1.11548 -0.0140011 0.0
1.14428 -0.00346732 0.0
1.35293 0.668554 0.0
1.14113 -0.00323699 0.0
0.648023 -0.00327529 0.0
1.05987 -0.00898874 0.0
0.666732 0.0087804 0.0
0.65607 -0.00323916 0.0
1.1252 0.00287107 0.0
1.0627 -0.00237012 0.0
1.04444 0.00157905 0.0
0.604428 -0.00302881 0.0
1.06432 -0.00851322 0.0
1.12832 0.00228912 0.0
1.14365 -0.00316255 0.0
1.09356 0.134285 0.0
1.15855 -0.698166 0.0
0.646514 0.000192926 0.0
0.603357 -0.00124155 0.0
1.14295 -0.00263959 0.0
1.14253 -0.0032037 0.0
0.690732 -0.0168177 0.0
0.592265 -0.00810285 0.0
1.14218 -0.00220752 0.0
1.00928 0.00718046 0.0
1.13258 0.00308476 0.0
1.11618 -0.00252342 0.0
0.65576 0.00851588 0.0
0.614157 0.000963111 0.0
1.12645 0.00615334 0.0
0.692355 0.00899523 0.0
0.656122 0.00952876 0.0
1.13263 0.00140005 0.0
0.70276 0.016671 0.0
0.662876 0.00193174 0.0
1.14005 -0.00234395 0.0
1.13651 -0.00273352 0.0
1.00179 0.0104417 0.0
1.14 -0.00290815 0.0
1.13022 -0.00282537 0.0
1.14178 -0.00265614 0.0
1.02478 0.00433526 0.0
1.11757 -0.00187142 0.0
0.703273 0.00735502 0.0
0.612142 0.0109069 0.0
0.665517 0.00888295 0.0
0.603455 -0.00746455 0.0
0.659662 -0.00130163 0.0
0.658926 -0.00177565 0.0
0.629836 -0.00167926 0.0
0.676312 -0.00623622 0.0
0.679431 -0.00261925 0.0
0.680909 0.00995347 0.0
0.617731 -0.00453885 0.0
0.638221 0.00967556 0.0
0.637129 -6.7895e-05 0.0
0.667852 0.0156157 0.0
0.614733 0.00460226 0.0
0.618616 -0.00522348 0.0
0.615913 0.00103134 0.0
0.634588 -0.000310393 0.0
0.623168 0.00557218 0.0
0.662864 -0.00258041 0.0
0.673321 -0.00108671 0.0
0.632741 -0.0032361 0.0
0.639219 -0.0118333 0.0
0.641069 0.00317351 0.0
0.63316 -0.000717796 0.0
0.660801 0.000980904 0.0
0.601681 -0.0118925 0.0
0.599255 0.0146013 0.0
0.588879 0.00288068 0.0
0.615019 -0.002826 0.0
0.613286 0.00287498 0.0
0.648621 -0.0153542 0.0
0.613402 0.00278827 0.0
0.611443 0.00349773 0.0
0.640307 -0.000294248 0.0
0.628167 -0.00215627 0.0
1.12958 -0.00257765 0.0
1.11859 -0.00281997 0.0
1.1421 -0.00307133 0.0
1.14257 -0.00261022 0.0
1.14329 -0.00255157 0.0
1.09451 -0.00277363 0.0
1.13194 -0.00263507 0.0
1.12341 -0.00155118 0.0
1.1317 -0.00124187 0.0
1.11961 -0.00374015 0.0
1.13618 -0.00306009 0.0
1.13661 -0.00300688 0.0
1.12105 -0.00230697 0.0
1.14198 -0.00253465 0.0
1.13577 -0.00335912 0.0
1.14081 -0.0025617 0.0
1.13036 -0.00318682 0.0
1.11819 -0.00175585 0.0
1.1398 -0.00293562 0.0
1.14248 -0.00253764 0.0
1.13939 -0.0026305 0.0
1.14233 -0.00270188 0.0
1.14076 -0.00275868 0.0
1.11516 -0.00514383 0.0
1.1435 -0.00239244 0.0
1.13573 -0.00150715 0.0
1.14297 -0.00223391 0.0
1.09225 0.000915046 0.0
1.13563 -0.0023869 0.0
1.13434 -0.00206103 0.0
1.14283 -0.0024716 0.0
1.12298 0.000301254 0.0
1.14146 -0.00212414 0.0
1.14224 -0.00182195 0.0
1.13309 -0.00177699 0.0
1.14363 -0.00227846 0.0
1.13702 -0.00174612 0.0
1.14157 -0.00214582 0.0
1.11496 -0.00321718 0.0
1.12335 -3.88901e-05 0.0
1.1422 -0.0021964 0.0
1.13662 -0.00162665 0.0
1.13905 -0.00210796 0.0
1.13824 -0.00149839 0.0
1.13036 -0.00184847 0.0
1.14292 -0.00214132 0.0
1.14212 -0.00188471 0.0
1.1052 -0.00185013 0.0
1.13384 -0.00267482 0.0
1.093 0.00431522 0.0
1.12794 -0.00177355 0.0
1.13461 -0.00172267 0.0
1.13874 -0.00271962 0.0
1.1423 -0.00170256 0.0
1.126 -0.00182512 0.0
1.13984 -0.00242422 0.0
1.14123 -0.00153034 0.0
1.14311 -0.00129549 0.0
1.14054 -0.00136514 0.0
1.13958 -0.00102204 0.0
1.14095 8.86215e-05 0.0
1.13417 0.00011078 0.0
1.10492 -0.00105278 0.0
1.08337 0.00121575 0.0
1.13486 1.01938e-05 0.0
1.14207 -0.000989997 0.0
0.649751 -0.000789412 0.0
1.13545 -0.000215313 0.0
1.11564 -0.000361469 0.0
1.12731 0.000369756 0.0
1.14197 -0.00053026 0.0
1.12651 0.00044696 0.0
1.13956 0.00183007 0.0
1.13837 0.00161784 0.0
1.1393 0.000162578 0.0
1.13636 0.00128358 0.0
1.10217 -0.00111653 0.0
1.1029 -0.00246636 0.0
1.11893 0.000671753 0.0
1.13853 0.000980552 0.0
1.13203 -0.000260834 0.0
1.14031 0.00143353 0.0
1.12576 -0.000249639 0.0
1.13275 -0.00168993 0.0
1.14115 0.000802602 0.0
1.14035 0.00190672 0.0
1.0264 -0.00507902 0.0
1.12806 4.01909e-05 0.0
1.13876 0.00187417 0.0
1.114 0.000931523 0.0
1.13753 -0.000896542 0.0
1.14089 -0.000104177 0.0
1.05068 -0.00526218 0.0
1.13394 0.00276306 0.0
1.13353 -0.000185026 0.0
1.11744 0.00431044 0.0
1.13968 -3.40567e-05 0.0
1.12417 0.00586388 0.0
1.13387 0.0013992 0.0
1.13847 -0.00104997 0.0
1.13568 0.00154836 0.0
1.12 0.1772 0.0
1.11673 -0.000949119 0.0
1.13874 -0.00343112 0.0
1.13775 0.00304499 0.0
1.13924 0.00187248 0.0
1.12028 -0.00227484 0.0
1.1254 0.0023437 0.0
1.10462 0.00317431 0.0
1.12223 -1.30523e-05 0.0
1.13937 0.00159682 0.0
1.10571 0.00523546 0.0
1.13793 0.00151154 0.0
1.1325 0.000467187 0.0
1.12632 0.00241719 0.0
1.13174 0.00358621 0.0
1.13607 -3.57251e-05 0.0
0.705355 -0.0154367 0.0
1.02022 -0.00150304 0.0
1.13008 0.00495096 0.0
1.13308 0.00303861 0.0
1.1343 -0.00117449 0.0
1.11076 0.00149331 0.0
1.12055 0.00369014 0.0
1.1339 0.000264863 0.0
1.12902 0.000864096 0.0
1.13198 -0.000178186 0.0
1.13143 0.000885433 0.0
1.12575 0.00497567 0.0
1.13692 0.0020809 0.0
1.13455 0.00255121 0.0
1.03536 0.00191779 0.0
1.1356 0.00212109 0.0
1.12841 0.00238341 0.0
1.1213 0.00199113 0.0
1.12241 0.00651528 0.0
1.1078 0.00408685 0.0
1.12751 0.00302521 0.0
1.74364 0.168679 0.0
1.12406 -0.00347967 0.0
1.12536 0.0088562 0.0
1.109 -0.0121993 0.0
1.11793 0.00839688 0.0
1.12767 0.00552239 0.0
1.12065 -0.00464805 0.0
1.12294 0.00895073 0.0
1.13533 -0.00474237 0.0
1.07765 -0.00343923 0.0
1.07175 0.00437012 0.0
1.11701 -0.00289512 0.0
1.26674 0.11701 0.0
1.13675 -0.011635 0.0
1.05792 0.00399878 0.0
1.12081 -0.00452326 0.0
1.12775 0.0147889 0.0
1.11714 0.00954619 0.0
1.11252 -0.00369777 0.0
1.1046 -0.0155929 0.0
1.02396 -0.00626997 0.0
1.12122 -0.00558846 0.0
1.10261 9.87348e-05 0.0
1.1089 -8.72866e-05 0.0
1.12184 0.0120873 0.0
1.0753 -0.0125897 0.0
1.0403 0.198378 0.0
1.01381 -0.00708385 0.0
1.12607 0.0188264 0.0
0.489311 -0.179606 0.0
1.33777 0.1342 0.0
1.13894 -0.0379147 0.0
1.10169 0.00584047 0.0
1.09883 0.0163706 0.0
1.08974 0.0232659 0.0
1.13054 -0.00582021 0.0
1.09304 0.0081616 0.0
1.06577 -0.0338383 0.0
1.30237 0.175633 0.0
1.01976 -0.144013 0.0
1.05929 -0.0443056 0.0
1.14051 -0.127184 0.0
1.10873 -0.00562169 0.0
1.09557 -0.0343897 0.0
1.12644 -0.0103736 0.0
1.01716 0.0018283 0.0
1.14854 0.0379386 0.0
1.06675 -0.00946531 0.0
1.20057 -0.0901027 0.0
1.13685 -0.00982052 0.0
1.13668 -0.00922177 0.0
1.09102 -0.0122484 0.0
1.39905 -0.56527 0.0
1.12957 0.0658713 0.0
1.0549 -0.0129726 0.0
1.13026 0.0511016 0.0
1.03559 0.00125804 0.0
0.738861 0.0210254 0.0
1.10738 0.0318758 0.0
1.32737 -0.159989 0.0
0.973303 -0.0847731 0.0
1.09901 -0.0274068 0.0
0.632934 -0.555843 0.0
1.06752 -0.0139352 0.0
1.09199 -0.0038343 0.0
1.11131 -0.00352788 0.0
1.35437 -0.146566 0.0
1.09951 0.043061 0.0
1.12619 -0.0128067 0.0
1.08379 -0.0159703 0.0
1.13669 0.0206327 0.0
1.02046 -0.0101151 0.0
1.35121 -0.770617 0.0
1.12257 -0.0192021 0.0
1.1444 0.0329756 0.0
1.12938 -0.0210608 0.0
1.12419 -0.0196973 0.0
1.13993 -0.0431257 0.0
1.08726 0.0349777 0.0
1.1606 0.0792395 0.0
1.10448 -0.00399386 0.0
1.1345 0.0273811 0.0
1.01791 -0.00186105 0.0
1.09214 -0.00988218 0.0
1.18105 -0.530561 0.0
0.684697 0.00218264 0.0
0.689716 -0.0136135 0.0
1.00929 0.0219172 0.0
1.23391 0.109122 0.0
1.11844 -0.00221357 0.0
1.12961 -0.00222057 0.0
0.628531 0.00460297 0.0
1.13638 -0.00235937 0.0
0.416627 -0.143221 0.0
1.07617 -0.08721 0.0
0.68457 0.00473905 0.0
0.683344 -0.0132535 0.0
0.985253 0.0309892 0.0
1.11383 -0.00197932 0.0
0.863251 -0.173524 0.0
0.916673 -0.0151059 0.0
1.68527 -0.111393 0.0
0.907107 0.0392564 0.0
1.11484 -0.015876 0.0
1.11581 -0.0168952 0.0
1.05215 0.000930898 0.0
1.12733 -0.0197663 0.0
1.13024 -0.0203635 0.0
1.18602 0.348739 0.0
0.625831 0.00899676 0.0
1.01464 0.00399657 0.0
1.31706 -0.0975939 0.0
0.641894 0.00383662 0.0
1.58377 0.558505 0.0
1.00137 -0.0345552 0.0
0.906024 -0.0239184 0.0
1.29702 0.0957151 0.0
0.883113 -0.0419778 0.0
0.986071 0.00234889 0.0
0.706239 -0.151048 0.0
1.12808 -0.00398082 0.0
0.875553 0.0965198 0.0
1.12603 -0.00445145 0.0
0.79799 -0.00202538 0.0
1.01874 -0.00271717 0.0
1.01953 0.12369 0.0
1.42352 -0.054087 0.0
0.627089 -0.00268277 0.0
0.764952 -0.0157989 0.0
0.920457 0.806873 0.0
1.10615 -0.0128122 0.0
1.02256 0.0154504 0.0
1.37166 0.00403303 0.0
0.621357 -0.00403257 0.0
1.10532 0.00658869 0.0
1.16716 -0.447575 0.0
0.186431 0.022331 0.0
0.987954 -0.0498242 0.0
1.07529 -0.071833 0.0
0.710565 0.0197752 0.0
0.653864 0.0249924 0.0
1.63803 0.0178529 0.0
1.1198 -0.00354875 0.0
0.311462 0.0151709 0.0
0.710734 0.03142 0.0
1.10298 0.00287652 0.0
1.13746 -0.003267 0.0
1.02774 -0.00993346 0.0
1.00759 0.0535013 0.0
1.20416 0.168149 0.0
0.668329 0.00384449 0.0
1.11891 -0.00744562 0.0
0.985939 0.0764639 0.0
1.13347 -0.00333179 0.0
1.38887 -0.591716 0.0
0.64575 -0.00267795 0.0
1.42667 -0.146165 0.0
1.09209 -0.00030783 0.0
1.00015 -0.0073078 0.0
0.620109 0.0896928 0.0
1.03571 0.0926971 0.0
0.897332 0.139441 0.0
1.09542 0.00211978 0.0
1.16273 -0.0460064 0.0
1.39936 -0.0365746 0.0
0.661018 0.00258152 0.0
0.676571 0.00997895 0.0
1.10743 -0.0199075 0.0
0.404195 -0.0725757 0.0
1.01152 0.0384059 0.0
0.606155 0.00238641 0.0
1.0368 -0.0252839 0.0
1.10327 -0.0126034 0.0
0.994817 -0.00327927 0.0
0.654756 -0.00314888 0.0
0.654308 0.0128084 0.0
0.675926 0.00668332 0.0
0.653287 0.00355401 0.0
0.68661 0.00489084 0.0
1.21265 0.670097 0.0
1.34752 0.0606204 0.0
0.992852 -0.00249477 0.0
0.676231 0.00589282 0.0
0.68185 -0.00770968 0.0
0.695311 0.0151608 0.0
1.10915 -0.0349042 0.0
0.659764 -0.00447426 0.0
1.61513 -0.187401 0.0
1.24788 0.0999518 0.0
0.618122 -0.131764 0.0
1.28957 -0.0883723 0.0
1.52733 -0.462551 0.0
1.01742 -0.000845007 0.0
1.06981 -0.00220709 0.0
1.12817 -0.00321772 0.0
1.0142 -0.00192575 0.0
0.837533 -0.688521 0.0
1.02259 0.00108124 0.0
1.00593 -0.00474577 0.0
1.13209 -0.00434481 0.0
1.07694 -0.0191184 0.0
1.63495 -0.0201894 0.0
-0.0577727 0.140453 0.0
0.617235 -0.073519 0.0
1.33773 0.51796 0.0
1.08251 -0.00878508 0.0
0.698837 -0.00736013 0.0
0.678729 -0.00396153 0.0
0.675866 -0.0047108 0.0
1.12133 -0.0151952 0.0
0.697318 0.221726 0.0
1.12397 -0.0107164 0.0
1.0104 0.00697561 0.0
0.800377 0.190324 0.0
1.10615 -0.00256339 0.0
0.29846 -0.022459 0.0
1.10872 -0.0112679 0.0
0.668673 0.0136179 0.0
0.670645 -0.00789657 0.0
1.36199 0.108827 0.0
0.916133 -0.00144122 0.0
1.51937 0.0526022 0.0
1.01259 0.00748813 0.0
1.02845 0.003695 0.0
0.252036 -0.133492 0.0
0.987379 0.00887285 0.0
1.13065 0.00361074 0.0
1.12047 0.00310033 0.0
0.413927 -0.169331 0.0
1.62698 -0.268432 0.0
1.07726 0.00112789 0.0
1.27632 0.20548 0.0
0.693116 -0.00980526 0.0
0.669374 -0.00436063 0.0
1.10915 -0.0218907 0.0
0.655628 0.0958911 0.0
1.11656 -0.0133291 0.0
0.780186 0.0165362 0.0
0.969761 -0.00971454 0.0
1.10513 0.00236731 0.0
1.03577 -0.00263446 0.0
0.201801 -0.0208285 0.0
1.10895 -0.00547762 0.0
0.332751 0.0538434 0.0
1.04422 -0.00275977 0.0
1.04011 -0.00499138 0.0
0.680816 -0.0104139 0.0
1.04636 0.000171547 0.0
1.12379 -0.00970853 0.0
1.00014 -5.9165e-05 0.0
1.01568 -0.00677396 0.0
1.20144 -0.964264 0.0
1.10159 0.00874708 0.0
1.69566 0.48244 0.0
0.67026 -0.00759485 0.0
0.675516 0.00755817 0.0
1.125 -0.000483369 0.0
1.14192 -0.00225679 0.0
1.08962 -0.00180058 0.0
1.09296 0.00369783 0.0
1.13087 -0.000304233 0.0
1.11002 -0.0013328 0.0
1.13795 -0.00341529 0.0
1.11699 0.0110832 0.0
-0.0700089 -0.00175881 0.0
1.0751 0.00360868 0.0
0.087545 0.0509629 0.0
0.706133 -0.0255652 0.0
1.20407 -0.203055 0.0
1.10958 -0.00324829 0.0
1.32896 -0.140656 0.0
1.6474 -0.497798 0.0
0.314213 -0.0180512 0.0
1.13439 -0.00359127 0.0
1.12868 0.2704 0.0
1.29806 -0.0952681 0.0
1.07223 0.306336 0.0
1.71439 0.0701592 0.0
0.975622 -0.541573 0.0
1.37232 0.132301 0.0
1.13642 -0.0119714 0.0
1.29006 -0.479582 0.0
0.00760189 -0.147775 0.0
1.04999 0.00229111 0.0
1.31849 -0.392254 0.0
0.618021 -0.00695849 0.0
1.41074 -0.142357 0.0
1.6832 0.186647 0.0
1.08247 0.00474317 0.0
0.547362 0.0082428 0.0
0.717538 0.00273738 0.0
0.26795 -0.227488 0.0
0.920262 0.0454779 0.0
-0.0092827 -0.0577712 0.0
1.14391 -0.174313 0.0
1.46062 0.159912 0.0
0.610153 0.00594081 0.0
1.18107 -0.0558238 0.0
1.02092 -0.00543527 0.0
1.11497 -0.0152482 0.0
0.435416 -0.614994 0.0
1.22936 0.26464 0.0
0.778067 -0.169988 0.0
0.191312 -0.330333 0.0
0.615378 0.148014 0.0
1.303 0.238132 0.0
0.670186 0.163906 0.0
0.985465 -0.00857539 0.0
1.10545 -0.00622374 0.0
1.06512 0.00141096 0.0
1.04759 -0.00290685 0.0
0.674464 0.00642046 0.0
0.0896061 0.0949482 0.0
1.30899 0.299729 0.0