# vtk DataFile Version 3.0
Malha 2D com triângulos e temperatura
ASCII
DATASET UNSTRUCTURED_GRID

POINTS 688 double
0 0 0
2.2 0 0
2.2 0.41 0
0 0.41 0
0.25 0.2 0
0.05 0 0
0.1 0 0
0.15 0 0
0.2 0 0
0.25 0 0
0.3 0 0
0.35 0 0
0.4 0 0
0.45 0 0
0.5 0 0
0.55 0 0
0.6 0 0
0.65 0 0
0.7 0 0
0.75 0 0
0.8 0 0
0.85 0 0
0.9 0 0
0.95 0 0
1 0 0
1.05 0 0
1.1 0 0
1.15 0 0
1.2 0 0
1.25 0 0
1.3 0 0
1.35 0 0
1.4 0 0
1.45 0 0
1.5 0 0
1.55 0 0
1.6 0 0
1.65 0 0
1.7 0 0
1.75 0 0
1.8 0 0
1.85 0 0
1.9 0 0
1.95 0 0
2 0 0
2.05 0 0
2.1 0 0
2.15 0 0
2.2 0.0455556 0
2.2 0.0911111 0
2.2 0.136667 0
2.2 0.182222 0
2.2 0.227778 0
2.2 0.273333 0
2.2 0.318889 0
2.2 0.364444 0
2.15 0.41 0
2.1 0.41 0
2.05 0.41 0
2 0.41 0
1.95 0.41 0
1.9 0.41 0
1.85 0.41 0
1.8 0.41 0
1.75 0.41 0
1.7 0.41 0
1.65 0.41 0
1.6 0.41 0
1.55 0.41 0
1.5 0.41 0
1.45 0.41 0
1.4 0.41 0
1.35 0.41 0
1.3 0.41 0
1.25 0.41 0
1.2 0.41 0
1.15 0.41 0
1.1 0.41 0
1.05 0.41 0
1 0.41 0
0.95 0.41 0
0.9 0.41 0
0.85 0.41 0
0.8 0.41 0
0.75 0.41 0
0.7 0.41 0
0.65 0.41 0
0.6 0.41 0
0.55 0.41 0
0.5 0.41 0
0.45 0.41 0
0.4 0.41 0
0.35 0.41 0
0.3 0.41 0
0.25 0.41 0
0.2 0.41 0
0.15 0.41 0
0.1 0.41 0
0.05 0.41 0
0 0.364444 0
0 0.318889 0
0 0.273333 0
0 0.227778 0
0 0.182222 0
0 0.136667 0
0 0.0911111 0
0 0.0455556 0
0.248831 0.210749 0
0.245379 0.220994 0
0.239805 0.230259 0
0.232369 0.238108 0
0.22342 0.244176 0
0.213376 0.248177 0
0.202707 0.249927 0
0.191911 0.249341 0
0.181493 0.246449 0
0.171941 0.241384 0
0.1637 0.234385 0
0.157157 0.225778 0
0.152617 0.215965 0
0.150293 0.205406 0
0.150293 0.194594 0
0.152617 0.184035 0
0.157157 0.174222 0
0.1637 0.165615 0
0.171941 0.158616 0
0.181493 0.153551 0
0.191911 0.150659 0
0.202707 0.150073 0
0.213376 0.151823 0
0.22342 0.155824 0
0.232369 0.161892 0
0.239805 0.169741 0
0.245379 0.179006 0
0.248831 0.189251 0
0.421316 0.36725 0
0.426705 0.0366526 0
2.16065 0.209201 0
1.52286 0.0417259 0
0.626017 0.37111 0
1.3257 0.0414552 0
1.02471 0.0432237 0
1.17293 0.0421053 0
0.82501 0.36678 0
1.6757 0.370064 0
1.91628 0.0358195 0
1.82501 0.366432 0
0.723429 0.0421499 0
1.425 0.366699 0
1.97461 0.366224 0
1.12167 0.370137 0
0.975 0.368691 0
0.877672 0.0412714 0
1.27686 0.36884 0
1.725 0.0433013 0
0.579174 0.0416211 0
0.325589 0.363848 0
0.319111 0.0378151 0
0.0394523 0.296111 0
0.0329929 0.11602 0
0.142108 0.187428 0
1.57555 0.364352 0
2.02603 0.0412138 0
0.725007 0.36763 0
0.528647 0.366595 0
1.62699 0.0400272 0
1.82929 0.0421255 0
1.425 0.0418325 0
2.07474 0.364233 0
0.125 0.0433013 0
0.161245 0.155011 0
0.225 0.366699 0
0.210027 0.258536 0
2.16034 0.115449 0
0.0371627 0.204103 0
0.142311 0.212698 0
0.220283 0.0418538 0
0.221965 0.145099 0
0.196802 0.141016 0
0.119851 0.373394 0
0.161112 0.245979 0
0.184892 0.258024 0
2.16342 0.30039 0
2.12627 0.047699 0
0.183325 0.0412617 0
0.152317 0.0762976 0
0.203864 0.0745802 0
0.234384 0.0774346 0
0.215969 0.103585 0
0.245651 0.104548 0
0.186562 0.100216 0
0.268213 0.0793029 0
0.272149 0.109155 0
0.242885 0.159377 0
0.253088 0.128261 0
0.278718 0.13214 0
0.295917 0.115997 0
0.301728 0.138858 0
0.321266 0.12205 0
0.324642 0.151724 0
0.255978 0.181139 0
0.350123 0.129049 0
0.357539 0.159885 0
0.333541 0.181416 0
0.36451 0.19182 0
0.250573 0.230419 0
0.391277 0.169722 0
0.339477 0.212308 0
0.39836 0.205386 0
0.427326 0.18117 0
0.258724 0.206387 0
0.434392 0.219501 0
0.466446 0.193907 0
0.472865 0.243064 0
0.507358 0.209962 0
0.40073 0.238916 0
0.499135 0.1652 0
0.5419 0.179224 0
0.550176 0.22496 0
0.585844 0.194129 0
0.594095 0.240176 0
0.630701 0.209517 0
0.621901 0.162424 0
0.667731 0.178095 0
0.676485 0.226008 0
0.713906 0.194492 0
0.722681 0.242872 0
0.760442 0.211047 0
0.751547 0.162356 0
0.798298 0.179 0
0.807147 0.227866 0
0.845136 0.195775 0
0.854541 0.243285 0
0.892163 0.212344 0
0.902461 0.257947 0
0.93935 0.228684 0
0.930236 0.180167 0
0.977229 0.197066 0
0.986264 0.245777 0
1.02423 0.213991 0
1.0331 0.263172 0
1.07123 0.230975 0
1.06234 0.181814 0
1.10938 0.198721 0
1.09996 0.151012 0
1.14691 0.168161 0
1.15631 0.215921 0
1.19446 0.183678 0
1.20343 0.232645 0
1.2416 0.200322 0
1.23272 0.151117 0
1.2798 0.167954 0
1.28868 0.217167 0
1.32685 0.184862 0
1.33573 0.234064 0
1.3739 0.201768 0
0.789327 0.130094 0
1.38279 0.25097 0
1.42096 0.218674 0
1.41207 0.169471 0
1.45912 0.186378 0
1.46801 0.235581 0
1.50618 0.203285 0
1.51506 0.252489 0
1.55323 0.220192 0
1.54435 0.170989 0
1.5914 0.187896 0
1.60029 0.2371 0
1.63846 0.204803 0
1.64734 0.254007 0
1.68551 0.221711 0
1.67663 0.172507 0
1.72368 0.189415 0
1.73831 0.241548 0
1.77074 0.206322 0
1.76185 0.157121 0
1.8091 0.17428 0
1.81866 0.220885 0
1.85608 0.190621 0
1.86521 0.238879 0
1.90289 0.207671 0
1.91264 0.253772 0
1.94955 0.224093 0
1.94067 0.17593 0
1.98705 0.192828 0
1.99572 0.240997 0
2.0329 0.209382 0
2.02422 0.16161 0
2.04166 0.257286 0
0.419739 0.142889 0
0.968291 0.148058 0
0.310035 0.202211 0
0.316128 0.230863 0
0.658501 0.130052 0
0.685107 0.27445 0
1.34462 0.283266 0
1.16528 0.264896 0
1.84735 0.142081 0
0.557687 0.270604 0
1.21234 0.281769 0
1.58252 0.138692 0
0.533563 0.131933 0
0.489835 0.120004 0
1.45024 0.137174 0
2.06974 0.17785 0
2.06113 0.130713 0
0.283221 0.152215 0
0.921299 0.131169 0
0.343836 0.24295 0
0.319203 0.260002 0
0.235529 0.249617 0
0.347029 0.274099 0
0.291856 0.246297 0
0.295938 0.27548 0
0.272836 0.264931 0
0.27461 0.290522 0
0.251228 0.280224 0
0.253903 0.305808 0
0.232795 0.296709 0
0.298805 0.304058 0
1.0801 0.280176 0
1.47689 0.284785 0
1.05315 0.133468 0
1.09741 0.0970974 0
1.82427 0.272867 0
1.2701 0.118911 0
0.816337 0.277695 0
1.40432 0.121101 0
1.04244 0.320388 0
0.959305 0.103028 0
1.60923 0.286151 0
0.601674 0.286775 0
2.00739 0.280923 0
0.342592 0.0992796 0
0.375237 0.105729 0
1.52511 0.298716 0
1.53114 0.119823 0
0.733824 0.287256 0
0.613372 0.114719 0
0.645558 0.0838585 0
2.015 0.115858 0
1.22718 0.0994086 0
1.39166 0.29817 0
1.3564 0.329754 0
0.744134 0.11556 0
0.782853 0.0841771 0
0.826899 0.10047 0
1.17418 0.314034 0
0.520902 0.0906676 0
1.4967 0.329429 0
1.26048 0.0740437 0
0.365514 0.0716355 0
0.229836 0.121666 0
1.57453 0.09137 0
1.61938 0.110761 0
0.481716 0.0753791 0
0.14093 0.2 0
0.130041 0.192847 0
0.131507 0.178608 0
0.117165 0.184444 0
0.120761 0.164701 0
0.1156 0.199931 0
0.100804 0.174136 0
0.102545 0.153034 0
0.12169 0.143342 0
0.104604 0.13008 0
0.0809304 0.161171 0
0.128077 0.121858 0
0.106825 0.102278 0
0.082498 0.188728 0
0.0314738 0.158621 0
2.04625 0.310891 0
2.08475 0.27479 0
2.11394 0.138117 0
0.233149 0.151108 0
0.258724 0.193613 0
0.268522 0.184917 0
1.65397 0.301059 0
0.145962 0.224912 0
0.132503 0.222267 0
0.13746 0.236947 0
0.120111 0.233525 0
0.126593 0.25219 0
0.105294 0.247497 0
0.113343 0.26868 0
0.133997 0.271734 0
0.121622 0.292031 0
0.147069 0.292141 0
0.0896563 0.267464 0
0.0813699 0.243294 0
0.163574 0.276939 0
0.172694 0.298517 0
0.1583 0.321483 0
0.186823 0.322499 0
0.173113 0.348195 0
0.0322087 0.250839 0
0.211694 0.124337 0
0.250615 0.169546 0
0.256243 0.157787 0
0.170796 0.14736 0
0.156755 0.141654 0
0.17187 0.131161 0
0.147502 0.152323 0
0.198129 0.260662 0
0.206368 0.271663 0
0.220945 0.26864 0
0.190489 0.270628 0
0.198813 0.286731 0
0.55749 0.322277 0
0.520166 0.299321 0
0.235199 0.330709 0
0.267109 0.337524 0
0.172324 0.25256 0
0.255974 0.218859 0
0.268327 0.214994 0
0.184197 0.143083 0
0.188721 0.129954 0
0.209694 0.139146 0
0.269223 0.244007 0
0.252374 0.255244 0
0.282229 0.0410487 0
1.21977 0.330016 0
1.25733 0.296346 0
2.09358 0.0890819 0
0.244373 0.240984 0
0.0838116 0.115786 0
0.0797544 0.0817835 0
0.237449 0.264854 0
0.247178 0.146225 0
0.270136 0.2 0
0.28023 0.191334 0
0.263476 0.170737 0
0.371486 0.368728 0
0.396124 0.330051 0
0.440314 0.325693 0
0.357693 0.329668 0
0.476576 0.362035 0
0.29587 0.222914 0
0.307627 0.175476 0
0.079599 0.0406461 0
0.146062 0.252571 0
0.15162 0.125025 0
0.417223 0.294608 0
0.457089 0.286958 0
0.036619 0.338729 0
0.0713014 0.322193 0
0.0735823 0.36704 0
0.041143 0.0722223 0
0.693501 0.32349 0
0.145406 0.175484 0
0.138777 0.164467 0
0.300367 0.0698839 0
0.167025 0.112083 0
0.146978 0.105544 0
0.151909 0.236762 0
0.444611 0.106436 0
0.909355 0.0817561 0
0.282901 0.370713 0
1.61474 0.330739 0
0.578053 0.368179 0
0.824695 0.0487848 0
2.09634 0.3213 0
2.02276 0.364865 0
2.12532 0.363702 0
1.09789 0.328757 0
0.161137 0.260089 0
2.07793 0.225752 0
2.12079 0.240944 0
2.0747 0.0437362 0
1.89402 0.158846 0
1.93154 0.128738 0
1.8848 0.111477 0
1.8384 0.0926484 0
1.87744 0.0655304 0
1.7913 0.0793874 0
1.9712 0.046671 0
1.92502 0.366682 0
1.94563 0.325156 0
1.89941 0.326645 0
1.87499 0.367178 0
1.84989 0.323491 0
1.7997 0.321303 0
1.77183 0.280326 0
1.75031 0.321965 0
1.77491 0.365615 0
2.11727 0.191885 0
0.883187 0.163467 0
1.71449 0.140266 0
1.667 0.125342 0
1.70591 0.0884759 0
1.67732 0.042286 0
1.52278 0.370513 0
1.37512 0.04128 0
1.34848 0.0834574 0
0.776093 0.367587 0
1.125 0.0433013 0
1.15 0.0866019 0
1.07442 0.0496847 0
0.974527 0.0370837 0
1.47464 0.0427918 0
1.44953 0.0873752 0
1.17595 0.362984 0
1.025 0.366699 0
0.925007 0.367031 0
0.95 0.323404 0
0.897321 0.326356 0
0.874563 0.367261 0
0.846552 0.324465 0
1.62923 0.156667 0
1.32319 0.13033 0
1.69342 0.270472 0
1.49568 0.156227 0
1.56237 0.268721 0
1.44 0.319169 0
1.43005 0.267892 0
1.36502 0.152565 0
0.993446 0.294003 0
1.30179 0.321101 0
1.18235 0.127964 0
1.25016 0.2491 0
1.29638 0.266841 0
1.11824 0.247967 0
1.12945 0.294699 0
1.01527 0.165035 0
0.836192 0.147197 0
1.4998 0.0831488 0
1.00655 0.118664 0
0.872896 0.117126 0
0.70523 0.146383 0
1.96013 0.276645 0
0.769406 0.257102 0
0.699552 0.0908977 0
2.1587 0.162257 0
1.97813 0.145326 0
0.646036 0.302035 0
0.799423 0.326603 0
0.515621 0.255445 0
1.72538 0.366474 0
1.97009 0.0998346 0
1.57108 0.313772 0
0.577925 0.14549 0
0.638911 0.256447 0
0.407352 0.0771641 0
0.525103 0.042511 0
0.674231 0.370698 0
1.69802 0.321701 0
0.56947 0.0908728 0
1.75459 0.110239 0
1.80084 0.126127 0
0.673535 0.0431435 0
1.57391 0.0465733 0
2.04571 0.0828469 0
0.10002 0.225545 0
0.0788152 0.21577 0
0.369719 0.224393 0
0.210352 0.308739 0
1.22342 0.0432967 0
[...]
CELL_DATA 1241
VECTORS velocity double
1.0203 -0.00399958 0.0
1.21552 0.0672395 0.0
0.46817 -0.000582801 0.0
0.953867 0.0027274 0.0
1.03958 0.00655078 0.0
1.42262 0.102878 0.0
1.13204 0.000155467 0.0
0.987207 -0.000844224 0.0
0.363765 0.0156663 0.0
1.17111 0.00170007 0.0
1.31247 -0.119987 0.0
1.31627 0.126524 0.0
0.865764 -0.160586 0.0
1.01353 0.00719497 0.0
0.989126 0.00725452 0.0
1.46598 -0.0325385 0.0
0.977771 0.00145736 0.0
0.479577 0.060364 0.0
1.17071 0.0630555 0.0
1.64769 -0.253966 0.0
1.0254 0.00592134 0.0
1.05917 -0.0662153 0.0
1.03336 0.000781937 0.0
1.25314 0.904878 0.0
1.07151 -0.00200472 0.0
1.02875 0.00400099 0.0
1.2989 -0.199301 0.0
1.07605 -0.0252792 0.0
1.32175 -0.0836669 0.0
1.4621 -0.0646075 0.0
1.33199 0.090241 0.0
0.865938 -0.0371407 0.0
1.51991 0.00223939 0.0
1.0122 0.0055908 0.0
1.25488 -0.0571713 0.0
1.35872 0.156752 0.0
1.21058 -0.055923 0.0
1.05042 -0.167826 0.0
0.359549 0.0204955 0.0
1.382 0.141132 0.0
1.76469 -0.179509 0.0
1.4137 -0.045151 0.0
1.05282 -0.237142 0.0
0.524021 0.00713137 0.0
1.39909 -0.167026 0.0
0.517786 -0.00502927 0.0
1.2023 0.0996676 0.0
1.11263 0.0264775 0.0
1.61306 -0.312919 0.0
1.24017 -0.010836 0.0
1.20237 0.00119436 0.0
1.29086 -0.41747 0.0
0.870019 -0.00380157 0.0
1.40753 -0.0828608 0.0
1.77543 -0.279378 0.0
1.51844 -0.0292043 0.0
1.14793 -0.0407062 0.0
1.12455 -0.000227809 0.0
1.65872 -0.0987831 0.0
1.68777 -0.19906 0.0
1.15858 0.847276 0.0
1.00048 4.12623e-05 0.0
0.196337 0.0353346 0.0
1.03086 0.00809731 0.0
-0.2404 0.0713462 0.0
1.33192 0.227547 0.0
-0.278975 0.0866978 0.0
1.1595 0.000180064 0.0
0.861198 -0.0260788 0.0
0.219044 0.0247524 0.0
1.1604 -0.00332815 0.0
0.793943 0.0139133 0.0
1.15948 -0.00277317 0.0
0.792429 -0.0141759 0.0
1.19398 0.00763351 0.0
0.881279 0.157056 0.0
0.943683 0.00550993 0.0
1.63174 -0.04611 0.0
0.978394 -0.0348162 0.0
0.610577 0.000826183 0.0
1.75207 -0.382832 0.0
1.15968 -0.246654 0.0
0.65268 0.0119217 0.0
1.26141 -0.227239 0.0
1.34581 0.170042 0.0
0.919272 -0.0666683 0.0
1.20795 0.178661 0.0
0.0873181 0.0989909 0.0
1.83896 0.530246 0.0
1.18102 0.0038971 0.0
1.27259 0.00991648 0.0
-0.189034 -0.0110923 0.0
-0.347738 0.0786751 0.0
1.44228 -0.0651317 0.0
1.18211 -0.0415609 0.0
0.992019 0.00122043 0.0
0.84999 -0.0261747 0.0
-0.184546 0.0906863 0.0
1.01471 -0.00994365 0.0
-0.243346 0.113319 0.0
1.08214 -0.0985557 0.0
1.15267 -0.0124351 0.0
0.947914 0.000851504 0.0
1.63953 -0.161066 0.0
1.74255 -0.67062 0.0
1.27319 -0.397883 0.0
1.07194 -0.0624778 0.0
0.499011 -0.0233129 0.0
1.78816 0.6496 0.0
1.21088 0.00342484 0.0
1.48492 -0.109889 0.0
1.23186 0.190243 0.0
0.132014 0.0757863 0.0
1.44146 -0.0270096 0.0
1.07956 0.0150163 0.0
1.44262 0.0400776 0.0
1.41355 0.00510464 0.0
1.39152 0.0526122 0.0
1.06215 -0.000826157 0.0
0.256372 0.0402637 0.0
1.19053 0.0419948 0.0
1.5197 0.581727 0.0
1.25178 0.10898 0.0
0.919783 -0.0634325 0.0
0.72776 -0.0997456 0.0
1.20563 0.0866993 0.0
1.44621 -0.0433713 0.0
1.11604 0.0251292 0.0
1.74978 0.501336 0.0
0.549892 -0.0713099 0.0
1.15905 -0.0128165 0.0
0.616409 -0.00155188 0.0
0.88568 0.0638186 0.0
1.60304 -0.0211381 0.0
1.02059 -0.153838 0.0
-0.27584 0.0746192 0.0
0.123456 0.0620217 0.0
1.22487 0.082788 0.0
1.04773 -0.0253978 0.0
1.66399 -0.761316 0.0
1.50088 0.00356731 0.0
1.03431 0.00404853 0.0
1.07834 -0.245006 0.0
1.00426 0.00712551 0.0
1.52397 0.00764164 0.0
0.0235276 0.0315376 0.0
-0.254362 0.0378496 0.0
-0.181786 0.00621778 0.0
0.63995 0.0147313 0.0
0.650417 -0.0123594 0.0
0.555329 -0.101519 0.0
1.03413 -0.00725428 0.0
1.79651 -0.33242 0.0
1.04893 -0.153993 0.0
1.20282 -0.0491845 0.0
1.20456 0.0544151 0.0
0.506653 -0.000258591 0.0
1.64341 0.0734136 0.0
0.85788 0.0307411 0.0
1.2464 -0.0574778 0.0
-0.230606 0.0474784 0.0
1.74052 0.446329 0.0
1.14176 0.00593519 0.0
1.22204 -0.204902 0.0
1.14073 0.0348519 0.0
1.05422 0.130226 0.0
0.988231 -0.00150092 0.0
0.987073 0.109822 0.0
0.569976 -0.00295568 0.0
1.17179 -0.034732 0.0
0.927272 -0.0249509 0.0
1.21938 0.00390934 0.0
1.36541 0.265398 0.0
1.18901 0.087148 0.0
1.10458 0.00382882 0.0
1.11576 0.00474871 0.0
1.18249 0.198579 0.0
1.12011 -0.28758 0.0
1.11323 0.00969399 0.0
1.16598 -0.225196 0.0
1.11916 0.00744059 0.0
0.363789 0.109928 0.0
1.08773 -0.644405 0.0
0.730543 -0.127072 0.0
1.02144 -0.00720663 0.0
0.765651 -0.0789637 0.0
0.762141 -0.0636362 0.0
1.02668 0.00577707 0.0
1.05545 0.0959109 0.0
0.461007 0.0470039 0.0
0.889645 -0.829955 0.0
1.77868 0.344864 0.0
1.02792 -0.00197711 0.0
0.98053 0.00770404 0.0
0.66726 0.0601936 0.0
0.853691 0.0573547 0.0
0.397727 0.0589986 0.0
1.00519 -0.0144456 0.0
1.42771 -0.0322297 0.0
1.44967 0.581379 0.0
1.15457 0.193087 0.0
1.06853 -0.0137451 0.0
1.42685 0.038397 0.0
1.04224 -0.0928577 0.0
1.39986 -0.0920462 0.0
1.43601 -0.0447039 0.0
0.4839 0.024635 0.0
0.658086 0.0129766 0.0
0.898462 -0.0229785 0.0
0.856213 0.0336587 0.0
0.539314 0.0167135 0.0
0.525653 -0.00238174 0.0
1.79016 0.286253 0.0
1.11106 0.00923515 0.0
1.44108 -0.00397742 0.0
1.1204 0.00988789 0.0
0.73426 -0.0778812 0.0
1.51088 -0.0913384 0.0
1.17624 -0.0311466 0.0
1.15686 -0.0107215 0.0
0.833098 -0.0495816 0.0
1.67136 -0.0701003 0.0
1.00989 0.055236 0.0
0.996755 0.0117007 0.0
0.957675 -0.0263268 0.0
1.21818 0.00302736 0.0
1.43501 -0.138046 0.0
1.72995 -0.600797 0.0
1.17872 -0.00607028 0.0
1.19405 -0.00939337 0.0
0.99685 -0.00122549 0.0
1.06355 -0.132774 0.0
1.02555 -0.00891215 0.0
0.994541 -0.005631 0.0
1.25814 0.31085 0.0
1.03831 -0.256593 0.0
1.09554 0.172215 0.0
1.31837 0.133015 0.0
0.745877 -0.107201 0.0
0.355079 -0.0454524 0.0
0.958394 0.015837 0.0
1.43871 0.0570104 0.0
1.42208 0.918298 0.0
0.682938 -0.0851831 0.0
1.14588 -0.0149898 0.0
1.70435 0.139987 0.0
1.09698 -0.898608 0.0
0.868428 -0.177603 0.0
1.13824 -0.0381718 0.0
0.571892 -0.00762094 0.0
1.02583 0.0269587 0.0
0.55752 -0.00912676 0.0
1.02996 -0.00357638 0.0
1.21151 0.00387012 0.0
0.632416 -0.0117568 0.0
0.773248 -0.0338756 0.0
1.09485 -0.285456 0.0
1.32536 -0.105377 0.0
1.20965 0.00179685 0.0
1.01667 -0.00174059 0.0
1.00846 0.00943257 0.0
0.520821 -0.00533532 0.0
1.21194 0.00603908 0.0
0.733634 -0.0262918 0.0
1.12537 0.0441856 0.0
1.00118 -0.00944489 0.0
0.577527 0.0038989 0.0
1.24105 -0.110579 0.0
1.22783 -0.171716 0.0
0.78668 -0.0268459 0.0
1.14084 -0.0659755 0.0
0.59923 0.00141361 0.0
0.985296 -0.0136197 0.0
0.117193 0.0679186 0.0
1.19172 0.000226779 0.0
1.18918 -0.00887105 0.0
0.609493 -0.00399242 0.0
0.943352 -0.194761 0.0
0.987532 -0.0136289 0.0
1.42961 0.155197 0.0
1.18723 0.00234377 0.0
1.21959 -0.000240963 0.0
1.22357 -0.170783 0.0
1.22153 -0.00185364 0.0
1.21972 0.00136797 0.0
1.17196 -0.0167223 0.0
0.936817 -0.115045 0.0
0.835802 0.0428628 0.0
1.22231 -0.0041552 0.0
1.21837 -9.3718e-06 0.0
1.21473 -0.00136014 0.0
0.634795 0.0704674 0.0
0.480244 0.00513813 0.0
0.994974 0.00970543 0.0
0.560768 -0.00736951 0.0
1.22081 -0.00424115 0.0
1.00329 -0.0160741 0.0
1.15473 0.0108655 0.0
-0.260627 -0.0270047 0.0
0.974023 -0.00973881 0.0
0.517869 -0.00373849 0.0
1.31906 -0.604762 0.0
1.12145 -0.00742983 0.0
0.974619 -0.0141229 0.0
0.539761 -0.00948365 0.0
1.22013 -0.0021575 0.0
0.866651 0.040935 0.0
0.547895 0.00157561 0.0
0.995162 -0.0133145 0.0
1.2213 -0.00469927 0.0
1.21402 -0.00206382 0.0
1.2179 -0.00194362 0.0
0.635223 -0.00654258 0.0
0.46404 0.00102109 0.0
1.21944 -0.00576113 0.0
1.1426 -0.0741041 0.0
1.19671 -0.00673803 0.0
0.617546 0.0097838 0.0
1.17914 -0.00779607 0.0
1.21173 -0.00399871 0.0
1.1998 0.0012506 0.0
1.224 -0.0061277 0.0
0.48192 -0.00618353 0.0
1.21815 -0.00565301 0.0
1.21864 -0.00519211 0.0
1.21112 -0.00637899 0.0
0.472875 -0.00336232 0.0
1.20469 -0.00136408 0.0
1.17753 -0.00573564 0.0
1.19162 -0.000825936 0.0
1.22195 -0.00626633 0.0
1.17101 -0.158464 0.0
1.12679 0.00134057 0.0
1.22362 -0.00666423 0.0
1.35091 0.668487 0.0
1.20897 -0.00602965 0.0
0.525227 -0.0065127 0.0
1.09301 -0.0222669 0.0
0.578613 0.0080261 0.0
0.58941 -0.00933929 0.0
1.12338 0.00687238 0.0
1.09259 -0.012235 0.0
1.06636 -0.007437 0.0
0.527667 -0.00804137 0.0
1.09872 -0.021902 0.0
1.13041 0.00546275 0.0
1.22131 -0.00707524 0.0
1.07555 0.139626 0.0
1.15519 -0.696873 0.0
0.558374 -0.00441946 0.0
0.516271 -0.00529544 0.0
1.2174 -0.00555398 0.0
1.21915 -0.00737454 0.0
0.615843 -0.0191263 0.0
0.50476 -0.00971582 0.0
1.21516 -0.00488729 0.0
0.990734 0.0149825 0.0
1.16453 0.0105322 0.0
1.15342 -0.00642572 0.0
0.562531 0.00757255 0.0
0.514199 -0.00199874 0.0
1.147 0.0171886 0.0
0.602564 0.013256 0.0
0.567884 0.0141103 0.0
1.17506 0.00758671 0.0
0.618151 0.0208851 0.0
0.570512 -0.000475615 0.0
1.20695 -0.0045743 0.0
1.19563 -0.00410635 0.0
0.964069 0.0145181 0.0
1.20489 -0.00296152 0.0
1.17831 -0.00324314 0.0
1.21186 -0.00378113 0.0
0.986366 0.0103005 0.0
1.14923 -0.00361527 0.0
0.613936 0.0062093 0.0
0.508505 0.0139795 0.0
0.558958 0.0131113 0.0
0.479488 -0.00845096 0.0
0.544197 0.000103101 0.0
0.563767 -0.00476724 0.0
0.528848 -0.00225951 0.0
0.635295 -0.0139045 0.0
0.558059 -0.00471351 0.0
0.580366 0.0125568 0.0
0.501371 -0.00690239 0.0
0.57076 0.0155347 0.0
0.512279 -0.000117519 0.0
0.675814 0.0215345 0.0
0.573372 0.010273 0.0
0.567265 -0.0116104 0.0
0.499473 0.00224612 0.0
0.53284 -0.00184803 0.0
0.516439 0.00725246 0.0
0.606979 -0.00980968 0.0
0.549285 -0.00152075 0.0
0.596861 -0.00777939 0.0
0.555413 -0.012791 0.0
0.54527 0.0059412 0.0
0.528256 -0.000367755 0.0
0.548307 0.00298022 0.0
0.494632 -0.0164312 0.0
0.490592 0.0199734 0.0
0.48931 0.000826397 0.0
0.551552 -0.00724119 0.0
0.504846 0.00342993 0.0
0.642712 -0.0212471 0.0
0.500997 0.00532385 0.0
0.480326 0.00484527 0.0
0.523302 0.000553954 0.0
0.49993 -0.002999 0.0
1.17692 -0.0025482 0.0
1.15763 -0.00543937 0.0
1.2177 -0.00676656 0.0
1.21656 -0.0051161 0.0
1.21914 -0.00523628 0.0
1.11518 -0.00643622 0.0
1.19153 -0.00613017 0.0
1.17259 -0.00542078 0.0
1.18033 0.00276825 0.0
1.15213 -0.00302802 0.0
1.20263 -0.00700754 0.0
1.20471 -0.00758234 0.0
1.16886 -0.00543917 0.0
1.21339 -0.00387891 0.0
1.19136 -0.00197649 0.0
1.21339 -0.00562683 0.0
1.18807 -0.00643825 0.0
1.15025 -0.000121219 0.0
1.21028 -0.00582258 0.0
1.21585 -0.00434374 0.0
1.20259 -0.00215758 0.0
1.2141 -0.00418546 0.0
1.20905 -0.00531397 0.0
1.15299 -0.00805639 0.0
1.21497 -0.00252487 0.0
1.19334 -0.00297732 0.0
1.2125 -0.00197692 0.0
1.11701 -0.00058851 0.0
1.19366 -0.00360621 0.0
1.188 9.76906e-05 0.0
1.20914 -0.00206707 0.0
1.17128 -0.000884322 0.0
1.20796 -0.00254495 0.0
1.21064 -0.00255008 0.0
1.1833 0.00241336 0.0
1.21205 -0.00199958 0.0
1.2023 -0.00378192 0.0
1.2066 -0.000608013 0.0
1.15074 -0.00740269 0.0
1.17273 -0.00180169 0.0
1.20916 -0.000805974 0.0
1.20021 -0.00314795 0.0
1.19886 0.000545968 0.0
1.19618 0.00192501 0.0
1.16335 -0.0122619 0.0
1.208 -0.000612349 0.0
1.205 -0.000256233 0.0
1.13463 -0.00492412 0.0
1.18962 -0.00394122 0.0
1.11841 0.0039487 0.0
1.1764 -0.00373647 0.0
1.1877 -0.00355374 0.0
1.19877 -0.00358789 0.0
1.20544 -0.00159839 0.0
1.17259 -0.00382687 0.0
1.20194 -0.00343139 0.0
1.20207 -0.00132014 0.0
1.20468 -0.00017277 0.0
1.20001 0.00163575 0.0
1.19702 0.00196414 0.0
1.19595 0.00270773 0.0
1.18367 0.00427525 0.0
1.13375 -0.0052013 0.0
1.09318 0.00565564 0.0
1.1801 0.00564592 0.0
1.20108 0.000256729 0.0
0.571407 -0.00607121 0.0
1.18683 0.00418029 0.0
1.14822 0.00563872 0.0
1.17012 0.00598685 0.0
1.19945 0.00205065 0.0
1.16808 0.00578926 0.0
1.1817 0.00498018 0.0
1.17522 0.000280376 0.0
1.19123 0.00419419 0.0
1.18046 -0.00064256 0.0
1.13077 -0.00412667 0.0
1.13147 -0.00681896 0.0
1.15623 -0.00395655 0.0
1.18803 0.00545229 0.0
1.17587 -0.00364837 0.0
1.18773 0.00298125 0.0
1.16772 -0.00319903 0.0
1.18365 -0.00347547 0.0
1.19136 0.0023498 0.0
1.18546 0.00520976 0.0
0.984975 -0.0115424 0.0
1.17182 -0.00288 0.0
1.17849 0.0069172 0.0
1.14565 0.00718866 0.0
1.19011 -0.00220876 0.0
1.1949 -1.03367e-05 0.0
1.07768 -0.0176443 0.0
1.1685 0.0100507 0.0
1.17961 -0.00310885 0.0
1.14786 0.013558 0.0
1.19091 -0.000174691 0.0
1.15179 0.0177954 0.0
1.1706 -0.00393371 0.0
1.19329 -0.00225027 0.0
1.17735 -0.00081768 0.0
1.11938 0.176541 0.0
1.15251 -0.00642513 0.0
1.21216 -0.00787466 0.0
1.17454 0.00868105 0.0
1.17911 0.00114864 0.0
1.15814 -0.0126786 0.0
1.16261 -0.00278769 0.0
1.13845 -0.00208821 0.0
1.16173 -0.00877376 0.0
1.17247 0.00243469 0.0
1.14021 -0.000255231 0.0
1.16756 0.00213736 0.0
1.16689 -0.00620731 0.0
1.16488 -0.0021105 0.0
1.15355 0.011723 0.0
1.16458 -0.00504466 0.0
0.715574 -0.0206844 0.0
0.976938 0.00318555 0.0
1.14899 0.0140263 0.0
1.15248 0.00912259 0.0
1.15941 -0.00746712 0.0
1.14143 0.0114825 0.0
1.14947 0.0137401 0.0
1.15053 -0.00240572 0.0
1.1333 0.000817679 0.0
1.14538 -0.00317075 0.0
1.13938 0.000869965 0.0
1.12659 0.0121242 0.0
1.16316 0.00531455 0.0
1.15713 0.00818993 0.0
0.998663 0.00679427 0.0
1.15863 0.005532 0.0
1.16005 0.0108629 0.0
1.15176 0.0114518 0.0
1.11976 0.0152185 0.0
1.13627 0.0153581 0.0
1.15708 0.0118453 0.0
1.73563 0.181361 0.0
1.12519 -0.0105739 0.0
1.13154 0.0195077 0.0
1.10392 -0.0225796 0.0
1.15 0.0222026 0.0
1.15089 0.0160332 0.0
1.11867 -0.0128963 0.0
1.14839 0.0221666 0.0
1.21126 -0.00462608 0.0
1.07279 -0.00902666 0.0
1.09677 0.0153295 0.0
1.10292 -0.00694744 0.0
1.30685 0.126713 0.0
1.20773 -0.00502184 0.0
1.07949 -0.00123949 0.0
1.15211 -0.00739164 0.0
1.14304 0.0286003 0.0
1.14727 0.0228556 0.0
1.0952 -0.00850697 0.0
1.09786 -0.027592 0.0
0.984815 -0.0135687 0.0
1.18416 -6.88029e-05 0.0
1.07265 0.000688684 0.0
1.08257 0.000201975 0.0
1.12472 0.0249104 0.0
1.11598 -0.0270209 0.0
1.02998 0.198333 0.0
0.966953 -0.013951 0.0
1.13905 0.0342169 0.0
0.44328 -0.16466 0.0
1.38142 0.132069 0.0
1.18167 -0.0528647 0.0
1.07018 0.0104659 0.0
1.07048 0.0260482 0.0
1.05843 0.036623 0.0
1.20692 -0.000634654 0.0
1.05742 0.01446 0.0
1.04081 -0.0445281 0.0
1.30216 0.175927 0.0
1.00446 -0.142995 0.0
1.03564 -0.0581937 0.0
1.15235 -0.133932 0.0
1.14388 -0.0113185 0.0
1.09757 -0.0485656 0.0
1.17436 -0.00326082 0.0
0.941266 0.00184666 0.0
1.18146 0.0547362 0.0
1.01328 -0.0139901 0.0
1.23812 -0.102466 0.0
1.20668 -0.00512331 0.0
1.19635 -0.00617174 0.0
1.06023 -0.0201985 0.0
1.39843 -0.567446 0.0
1.13431 0.0839637 0.0
0.999649 -0.0202593 0.0
1.13472 0.0674615 0.0
0.962151 0.00154753 0.0
0.755498 0.0283526 0.0
1.09298 0.0454375 0.0
1.32726 -0.160597 0.0
0.935346 -0.0912883 0.0
1.10131 -0.0401528 0.0
0.632653 -0.556571 0.0
1.10643 -0.0284041 0.0
1.11273 -0.00604 0.0
1.14972 -0.00683043 0.0
1.39084 -0.140037 0.0
1.08338 0.0603977 0.0
1.17416 -0.00260047 0.0
1.05173 -0.0263673 0.0
1.16503 0.0367903 0.0
0.990223 -0.0163677 0.0
1.35002 -0.771807 0.0
1.2136 0.0046462 0.0
1.1801 0.0522427 0.0
1.1921 0.00297495 0.0
1.12414 -0.000377225 0.0
1.18067 -0.0572429 0.0
1.0665 0.0204913 0.0
1.20895 0.0818871 0.0
1.12151 -0.00785249 0.0
1.16036 0.0447711 0.0
0.96342 0.00159309 0.0
1.14592 0.0106618 0.0
1.18054 -0.531659 0.0
0.655338 -0.0062692 0.0
0.677577 -0.0235166 0.0
0.929542 0.0273296 0.0
1.26652 0.120312 0.0
1.14995 -0.00594117 0.0
1.17701 -0.00530814 0.0
0.603084 0.0103456 0.0
1.19515 -0.00569195 0.0
0.329677 -0.123709 0.0
1.07477 -0.0997586 0.0
0.563982 0.00825829 0.0
0.568787 -0.0117227 0.0
0.903733 0.0404156 0.0
1.15345 -0.00526204 0.0
0.86395 -0.17433 0.0
0.856826 -0.0244962 0.0
1.68891 -0.124725 0.0
0.940539 0.0375194 0.0
1.1484 -0.0105139 0.0
1.14913 -0.0120341 0.0
1.05145 0.00739862 0.0
1.21152 0.00359237 0.0
1.17184 0.00142824 0.0
1.18512 0.348296 0.0
0.617125 0.0176571 0.0
1.01638 0.00297665 0.0
1.36818 -0.0984423 0.0
0.540194 0.00711202 0.0
1.5808 0.560852 0.0
0.93764 -0.0420945 0.0
0.800514 -0.0268995 0.0
1.34017 0.0886563 0.0
0.785535 -0.0538866 0.0
0.956126 -0.000215994 0.0
0.669348 -0.116738 0.0
1.1584 -0.0165317 0.0
0.88082 0.0995671 0.0
1.14001 -0.014481 0.0
0.662927 -0.00416168 0.0
1.02757 0.00544397 0.0
0.982766 0.136688 0.0
1.40977 -0.0331184 0.0
0.524905 -0.00320841 0.0
0.640095 -0.0244826 0.0
0.918759 0.805417 0.0
1.10952 -0.00106777 0.0
1.05097 0.0117396 0.0
1.39203 0.0133035 0.0
0.59866 -0.0107538 0.0
1.13156 0.0170689 0.0
1.16667 -0.448628 0.0
0.186481 0.0223919 0.0
0.92847 -0.0634972 0.0
1.07192 -0.0838615 0.0
0.733012 0.0241149 0.0
0.522253 0.0180334 0.0
1.64881 0.0359246 0.0
1.1523 -0.00587043 0.0
0.311487 0.0152302 0.0
0.575095 0.0251656 0.0
1.14328 -0.00526271 0.0
1.19668 -0.00601988 0.0
1.00274 -0.016933 0.0
0.941689 0.0627477 0.0
1.20913 0.172461 0.0
0.636131 0.0110372 0.0
1.19439 0.00784357 0.0
0.922772 0.093068 0.0
1.19971 -0.00702078 0.0
1.38804 -0.593451 0.0
0.524634 0.00044681 0.0
1.45893 -0.130582 0.0
1.10969 0.00658793 0.0
0.957051 -0.0134043 0.0
0.621533 0.0903107 0.0
0.993855 0.102362 0.0
0.897468 0.139853 0.0
1.112 0.00779438 0.0
1.2158 -0.0585693 0.0
1.39921 -0.0369496 0.0
0.58231 0.00459291 0.0
0.605951 0.0148565 0.0
1.0752 -0.00339047 0.0
0.404538 -0.0728885 0.0
1.04308 0.0367197 0.0
0.497722 0.00371306 0.0
0.968978 -0.0110828 0.0
1.11024 -0.00436967 0.0
0.948463 -0.0092219 0.0
0.554879 -0.0060262 0.0
0.555261 0.0196139 0.0
0.571298 0.00871312 0.0
0.533094 0.00722923 0.0
0.589073 0.0104096 0.0
1.21073 0.669559 0.0
1.36056 0.0693333 0.0
0.964809 -0.00242387 0.0
0.554198 0.00755133 0.0
0.565766 -0.0123496 0.0
0.696506 0.0253175 0.0
1.15423 -0.0480064 0.0
0.614623 0.00129576 0.0
1.60412 -0.192964 0.0
1.29473 0.095908 0.0
0.53905 -0.14069 0.0
1.34411 -0.0942215 0.0
1.52687 -0.466765 0.0
1.00806 0.00418276 0.0
1.09054 0.0176821 0.0
1.14476 -0.012227 0.0
0.965346 0.00167649 0.0
0.837085 -0.689255 0.0
1.02336 -0.000629543 0.0
0.979133 -0.0048927 0.0
1.19526 -0.0111665 0.0
1.11901 -0.0346029 0.0
1.64805 -0.000667894 0.0
-0.119871 0.0983359 0.0
0.509097 -0.0690006 0.0
1.33618 0.518137 0.0
1.0753 -0.0117124 0.0
0.607998 -0.0111613 0.0
0.581035 -0.00485316 0.0
0.57715 -0.00528213 0.0
1.21174 0.00569323 0.0
0.635308 0.211912 0.0
1.17442 -0.0248144 0.0
0.978403 0.0108315 0.0
0.752812 0.163805 0.0
1.12445 -0.00281088 0.0
0.14166 -0.01035 0.0
1.18139 0.00589441 0.0
0.57208 0.0206375 0.0
0.569237 -0.00980213 0.0
1.34058 0.0859992 0.0
0.849362 -0.0105711 0.0
1.50668 0.032467 0.0
0.97668 0.0135342 0.0
0.993258 0.00971123 0.0
0.11398 -0.166238 0.0
0.977266 0.0278693 0.0
1.17051 0.0120438 0.0
1.15287 0.0120943 0.0
0.35712 -0.136678 0.0
1.61664 -0.27312 0.0
1.09177 0.000277619 0.0
1.28805 0.195752 0.0
0.59707 -0.0132267 0.0
0.565986 -0.00685566 0.0
1.12295 -0.0168428 0.0
0.533663 0.0899688 0.0
1.12819 -0.0274319 0.0
0.807318 0.0220524 0.0
0.935784 -0.00977945 0.0
1.13101 0.0110857 0.0
1.0012 -0.0038702 0.0
0.201882 -0.0209004 0.0
1.14443 -0.0116771 0.0
0.310327 0.0602896 0.0
1.01423 -0.00178046 0.0
1.00617 -0.00372168 0.0
0.58087 -0.0159438 0.0
1.06807 -0.00874853 0.0
1.17448 -0.0248139 0.0
0.954472 -0.000239021 0.0
0.991848 -0.0119983 0.0
1.20028 -0.964655 0.0
1.13146 0.0221457 0.0
1.69273 0.48681 0.0
0.567526 -0.0155966 0.0
0.558569 0.00645809 0.0
1.16561 0.00433408 0.0
1.2185 -0.00575309 0.0
1.11164 -0.00715068 0.0
1.12153 -0.00048018 0.0
1.17789 0.00432269 0.0
1.13018 0.0037908 0.0
1.20927 -0.00788951 0.0
1.15051 0.0261737 0.0
-0.197044 0.0187345 0.0
1.10157 0.0149881 0.0
-0.0227031 0.0304057 0.0
0.659292 -0.025589 0.0
1.20485 -0.178121 0.0
1.14282 -0.00976293 0.0
1.36809 -0.138648 0.0
1.64637 -0.502335 0.0
0.314249 -0.0181101 0.0
1.20274 -0.0068946 0.0
1.12898 0.271961 0.0
1.35003 -0.0988593 0.0
1.07138 0.305665 0.0
1.70959 0.0865015 0.0
0.97527 -0.542478 0.0
1.37208 0.132316 0.0
1.12254 -0.0163298 0.0
1.28966 -0.48097 0.0
-0.0858058 -0.108837 0.0
1.05702 0.00124719 0.0
1.31867 -0.394811 0.0
0.510135 -0.00472517 0.0
1.41851 -0.149761 0.0
1.6846 0.198181 0.0
1.09064 0.0114277 0.0
0.416757 0.0149237 0.0
0.717042 0.00179738 0.0
0.267879 -0.228495 0.0
0.955767 0.0461123 0.0
-0.11723 -0.030444 0.0
1.14708 -0.163025 0.0
1.49593 0.144439 0.0
0.531849 0.00893493 0.0
1.22889 -0.0694677 0.0
0.972501 0.000229658 0.0
1.20362 0.00496773 0.0
0.435167 -0.615559 0.0
1.22864 0.26435 0.0
0.730749 -0.162986 0.0
0.191346 -0.330966 0.0
0.519565 0.160706 0.0
1.3026 0.238472 0.0
0.599232 0.152698 0.0
0.965956 -0.0114843 0.0
1.13603 -0.0145476 0.0
1.08109 0.010379 0.0
1.07314 0.00923352 0.0
0.576368 0.00759975 0.0
0.0251905 0.0821858 0.0
1.30831 0.29976 0.0
0.465224 -0.00159614 0.0
1.10089 0.00795494 0.0
0.264438 0.216248 0.0
0.980196 -0.00312919 0.0