# vtk DataFile Version 3.0
Malha 2D com triângulos e temperatura
ASCII
DATASET UNSTRUCTURED_GRID

POINTS 688 double
0 0 0
2.2 0 0
2.2 0.41 0
0 0.41 0
0.25 0.2 0
0.05 0 0
0.1 0 0
0.15 0 0
0.2 0 0
0.25 0 0
0.3 0 0
0.35 0 0
0.4 0 0
0.45 0 0
0.5 0 0
0.55 0 0
0.6 0 0
0.65 0 0
0.7 0 0
0.75 0 0
0.8 0 0
0.85 0 0
0.9 0 0
0.95 0 0
1 0 0
1.05 0 0
1.1 0 0
1.15 0 0
1.2 0 0
1.25 0 0
1.3 0 0
1.35 0 0
1.4 0 0
1.45 0 0
1.5 0 0
1.55 0 0
1.6 0 0
1.65 0 0
1.7 0 0
1.75 0 0
1.8 0 0
1.85 0 0
1.9 0 0
1.95 0 0
2 0 0
2.05 0 0
2.1 0 0
2.15 0 0
2.2 0.0455556 0
2.2 0.0911111 0
2.2 0.136667 0
2.2 0.182222 0
2.2 0.227778 0
2.2 0.273333 0
2.2 0.318889 0
2.2 0.364444 0
2.15 0.41 0
2.1 0.41 0
2.05 0.41 0
2 0.41 0
1.95 0.41 0
1.9 0.41 0
1.85 0.41 0
1.8 0.41 0
1.75 0.41 0
1.7 0.41 0
1.65 0.41 0
1.6 0.41 0
1.55 0.41 0
1.5 0.41 0
1.45 0.41 0
1.4 0.41 0
1.35 0.41 0
1.3 0.41 0
1.25 0.41 0
1.2 0.41 0
1.15 0.41 0
1.1 0.41 0
1.05 0.41 0
1 0.41 0
0.95 0.41 0
0.9 0.41 0
0.85 0.41 0
0.8 0.41 0
0.75 0.41 0
0.7 0.41 0
0.65 0.41 0
0.6 0.41 0
0.55 0.41 0
0.5 0.41 0
0.45 0.41 0
0.4 0.41 0
0.35 0.41 0
0.3 0.41 0
0.25 0.41 0
0.2 0.41 0
0.15 0.41 0
0.1 0.41 0
0.05 0.41 0
0 0.364444 0
0 0.318889 0
0 0.273333 0
0 0.227778 0
0 0.182222 0
0 0.136667 0
0 0.0911111 0
0 0.0455556 0
0.248831 0.210749 0
0.245379 0.220994 0
0.239805 0.230259 0
0.232369 0.238108 0
0.22342 0.244176 0
0.213376 0.248177 0
0.202707 0.249927 0
0.191911 0.249341 0
0.181493 0.246449 0
0.171941 0.241384 0
0.1637 0.234385 0
0.157157 0.225778 0
0.152617 0.215965 0
0.150293 0.205406 0
0.150293 0.194594 0
0.152617 0.184035 0
0.157157 0.174222 0
0.1637 0.165615 0
0.171941 0.158616 0
0.181493 0.153551 0
0.191911 0.150659 0
0.202707 0.150073 0
0.213376 0.151823 0
0.22342 0.155824 0
0.232369 0.161892 0
0.239805 0.169741 0
0.245379 0.179006 0
0.248831 0.189251 0
0.421316 0.36725 0
0.426705 0.0366526 0
2.16065 0.209201 0
1.52286 0.0417259 0
0.626017 0.37111 0
1.3257 0.0414552 0
1.02471 0.0432237 0
1.17293 0.0421053 0
0.82501 0.36678 0
1.6757 0.370064 0
1.91628 0.0358195 0
1.82501 0.366432 0
0.723429 0.0421499 0
1.425 0.366699 0
1.97461 0.366224 0
1.12167 0.370137 0
0.975 0.368691 0
0.877672 0.0412714 0
1.27686 0.36884 0
1.725 0.0433013 0
0.579174 0.0416211 0
0.325589 0.363848 0
0.319111 0.0378151 0
0.0394523 0.296111 0
0.0329929 0.11602 0
0.142108 0.187428 0
1.57555 0.364352 0
2.02603 0.0412138 0
0.725007 0.36763 0
0.528647 0.366595 0
1.62699 0.0400272 0
1.82929 0.0421255 0
1.425 0.0418325 0
2.07474 0.364233 0
0.125 0.0433013 0
0.161245 0.155011 0
0.225 0.366699 0
0.210027 0.258536 0
2.16034 0.115449 0
0.0371627 0.204103 0
0.142311 0.212698 0
0.220283 0.0418538 0
0.221965 0.145099 0
0.196802 0.141016 0
0.119851 0.373394 0
0.161112 0.245979 0
0.184892 0.258024 0
2.16342 0.30039 0
2.12627 0.047699 0
0.183325 0.0412617 0
0.152317 0.0762976 0
0.203864 0.0745802 0
0.234384 0.0774346 0
0.215969 0.103585 0
0.245651 0.104548 0
0.186562 0.100216 0
0.268213 0.0793029 0
0.272149 0.109155 0
0.242885 0.159377 0
0.253088 0.128261 0
0.278718 0.13214 0
0.295917 0.115997 0
0.301728 0.138858 0
0.321266 0.12205 0
0.324642 0.151724 0
0.255978 0.181139 0
0.350123 0.129049 0
0.357539 0.159885 0
0.333541 0.181416 0
0.36451 0.19182 0
0.250573 0.230419 0
0.391277 0.169722 0
0.339477 0.212308 0
0.39836 0.205386 0
0.427326 0.18117 0
0.258724 0.206387 0
0.434392 0.219501 0
0.466446 0.193907 0
0.472865 0.243064 0
0.507358 0.209962 0
0.40073 0.238916 0
0.499135 0.1652 0
0.5419 0.179224 0
0.550176 0.22496 0
0.585844 0.194129 0
0.594095 0.240176 0
0.630701 0.209517 0
0.621901 0.162424 0
0.667731 0.178095 0
0.676485 0.226008 0
0.713906 0.194492 0
0.722681 0.242872 0
0.760442 0.211047 0
0.751547 0.162356 0
0.798298 0.179 0
0.807147 0.227866 0
0.845136 0.195775 0
0.854541 0.243285 0
0.892163 0.212344 0
0.902461 0.257947 0
0.93935 0.228684 0
0.930236 0.180167 0
0.977229 0.197066 0
0.986264 0.245777 0
1.02423 0.213991 0
1.0331 0.263172 0
1.07123 0.230975 0
1.06234 0.181814 0
1.10938 0.198721 0
1.09996 0.151012 0
1.14691 0.168161 0
1.15631 0.215921 0
1.19446 0.183678 0
1.20343 0.232645 0
1.2416 0.200322 0
1.23272 0.151117 0
1.2798 0.167954 0
1.28868 0.217167 0
1.32685 0.184862 0
1.33573 0.234064 0
1.3739 0.201768 0
0.789327 0.130094 0
1.38279 0.25097 0
1.42096 0.218674 0
1.41207 0.169471 0
1.45912 0.186378 0
1.46801 0.235581 0
1.50618 0.203285 0
1.51506 0.252489 0
1.55323 0.220192 0
1.54435 0.170989 0
1.5914 0.187896 0
1.60029 0.2371 0
1.63846 0.204803 0
1.64734 0.254007 0
1.68551 0.221711 0
1.67663 0.172507 0
1.72368 0.189415 0
1.73831 0.241548 0
1.77074 0.206322 0
1.76185 0.157121 0
1.8091 0.17428 0
1.81866 0.220885 0
1.85608 0.190621 0
1.86521 0.238879 0
1.90289 0.207671 0
1.91264 0.253772 0
1.94955 0.224093 0
1.94067 0.17593 0
1.98705 0.192828 0
1.99572 0.240997 0
2.0329 0.209382 0
2.02422 0.16161 0
2.04166 0.257286 0
0.419739 0.142889 0
0.968291 0.148058 0
0.310035 0.202211 0
0.316128 0.230863 0
0.658501 0.130052 0
0.685107 0.27445 0
1.34462 0.283266 0
1.16528 0.264896 0
1.84735 0.142081 0
0.557687 0.270604 0
1.21234 0.281769 0
1.58252 0.138692 0
0.533563 0.131933 0
0.489835 0.120004 0
1.45024 0.137174 0
2.06974 0.17785 0
2.06113 0.130713 0
0.283221 0.152215 0
0.921299 0.131169 0
0.343836 0.24295 0
0.319203 0.260002 0
0.235529 0.249617 0
0.347029 0.274099 0
0.291856 0.246297 0
0.295938 0.27548 0
0.272836 0.264931 0
0.27461 0.290522 0
0.251228 0.280224 0
0.253903 0.305808 0
0.232795 0.296709 0
0.298805 0.304058 0
1.0801 0.280176 0
1.47689 0.284785 0
1.05315 0.133468 0
1.09741 0.0970974 0
1.82427 0.272867 0
1.2701 0.118911 0
0.816337 0.277695 0
1.40432 0.121101 0
1.04244 0.320388 0
0.959305 0.103028 0
1.60923 0.286151 0
0.601674 0.286775 0
2.00739 0.280923 0
0.342592 0.0992796 0
0.375237 0.105729 0
1.52511 0.298716 0
1.53114 0.119823 0
0.733824 0.287256 0
0.613372 0.114719 0
0.645558 0.0838585 0
2.015 0.115858 0
1.22718 0.0994086 0
1.39166 0.29817 0
1.3564 0.329754 0
0.744134 0.11556 0
0.782853 0.0841771 0
0.826899 0.10047 0
1.17418 0.314034 0
0.520902 0.0906676 0
1.4967 0.329429 0
1.26048 0.0740437 0
0.365514 0.0716355 0
0.229836 0.121666 0
1.57453 0.09137 0
1.61938 0.110761 0
0.481716 0.0753791 0
0.14093 0.2 0
0.130041 0.192847 0
0.131507 0.178608 0
0.117165 0.184444 0
0.120761 0.164701 0
0.1156 0.199931 0
0.100804 0.174136 0
0.102545 0.153034 0
0.12169 0.143342 0
0.104604 0.13008 0
0.0809304 0.161171 0
0.128077 0.121858 0
0.106825 0.102278 0
0.082498 0.188728 0
0.0314738 0.158621 0
2.04625 0.310891 0
2.08475 0.27479 0
2.11394 0.138117 0
0.233149 0.151108 0
0.258724 0.193613 0
0.268522 0.184917 0
1.65397 0.301059 0
0.145962 0.224912 0
0.132503 0.222267 0
0.13746 0.236947 0
0.120111 0.233525 0
0.126593 0.25219 0
0.105294 0.247497 0
0.113343 0.26868 0
0.133997 0.271734 0
0.121622 0.292031 0
0.147069 0.292141 0
0.0896563 0.267464 0
0.0813699 0.243294 0
0.163574 0.276939 0
0.172694 0.298517 0
0.1583 0.321483 0
0.186823 0.322499 0
0.173113 0.348195 0
0.0322087 0.250839 0
0.211694 0.124337 0
0.250615 0.169546 0
0.256243 0.157787 0
0.170796 0.14736 0
0.156755 0.141654 0
0.17187 0.131161 0
0.147502 0.152323 0
0.198129 0.260662 0
0.206368 0.271663 0
0.220945 0.26864 0
0.190489 0.270628 0
0.198813 0.286731 0
0.55749 0.322277 0
0.520166 0.299321 0
0.235199 0.330709 0
0.267109 0.337524 0
0.172324 0.25256 0
0.255974 0.218859 0
0.268327 0.214994 0
0.184197 0.143083 0
0.188721 0.129954 0
0.209694 0.139146 0
0.269223 0.244007 0
0.252374 0.255244 0
0.282229 0.0410487 0
1.21977 0.330016 0
1.25733 0.296346 0
2.09358 0.0890819 0
0.244373 0.240984 0
0.0838116 0.115786 0
0.0797544 0.0817835 0
0.237449 0.264854 0
0.247178 0.146225 0
0.270136 0.2 0
0.28023 0.191334 0
0.263476 0.170737 0
0.371486 0.368728 0
0.396124 0.330051 0
0.440314 0.325693 0
0.357693 0.329668 0
0.476576 0.362035 0
0.29587 0.222914 0
0.307627 0.175476 0
0.079599 0.0406461 0
0.146062 0.252571 0
0.15162 0.125025 0
0.417223 0.294608 0
0.457089 0.286958 0
0.036619 0.338729 0
0.0713014 0.322193 0
0.0735823 0.36704 0
0.041143 0.0722223 0
0.693501 0.32349 0
0.145406 0.175484 0
0.138777 0.164467 0
0.300367 0.0698839 0
0.167025 0.112083 0
0.146978 0.105544 0
0.151909 0.236762 0
0.444611 0.106436 0
0.909355 0.0817561 0
0.282901 0.370713 0
1.61474 0.330739 0
0.578053 0.368179 0
0.824695 0.0487848 0
2.09634 0.3213 0
2.02276 0.364865 0
2.12532 0.363702 0
1.09789 0.328757 0
0.161137 0.260089 0
2.07793 0.225752 0
2.12079 0.240944 0
2.0747 0.0437362 0
1.89402 0.158846 0
1.93154 0.128738 0
1.8848 0.111477 0
1.8384 0.0926484 0
1.87744 0.0655304 0
1.7913 0.0793874 0
1.9712 0.046671 0
1.92502 0.366682 0
1.94563 0.325156 0
1.89941 0.326645 0
1.87499 0.367178 0
1.84989 0.323491 0
1.7997 0.321303 0
1.77183 0.280326 0
1.75031 0.321965 0
1.77491 0.365615 0
2.11727 0.191885 0
0.883187 0.163467 0
1.71449 0.140266 0
1.667 0.125342 0
1.70591 0.0884759 0
1.67732 0.042286 0
1.52278 0.370513 0
1.37512 0.04128 0
1.34848 0.0834574 0
0.776093 0.367587 0
1.125 0.0433013 0
1.15 0.0866019 0
1.07442 0.0496847 0
0.974527 0.0370837 0
1.47464 0.0427918 0
1.44953 0.0873752 0
1.17595 0.362984 0
1.025 0.366699 0
0.925007 0.367031 0
0.95 0.323404 0
0.897321 0.326356 0
0.874563 0.367261 0
0.846552 0.324465 0
1.62923 0.156667 0
1.32319 0.13033 0
1.69342 0.270472 0
1.49568 0.156227 0
1.56237 0.268721 0
1.44 0.319169 0
1.43005 0.267892 0
1.36502 0.152565 0
0.993446 0.294003 0
1.30179 0.321101 0
1.18235 0.127964 0
1.25016 0.2491 0
1.29638 0.266841 0
1.11824 0.247967 0
1.12945 0.294699 0
1.01527 0.165035 0
0.836192 0.147197 0
1.4998 0.0831488 0
1.00655 0.118664 0
0.872896 0.117126 0
0.70523 0.146383 0
1.96013 0.276645 0
0.769406 0.257102 0
0.699552 0.0908977 0
2.1587 0.162257 0
1.97813 0.145326 0
0.646036 0.302035 0
0.799423 0.326603 0
0.515621 0.255445 0
1.72538 0.366474 0
1.97009 0.0998346 0
1.57108 0.313772 0
0.577925 0.14549 0
0.638911 0.256447 0
0.407352 0.0771641 0
0.525103 0.042511 0
0.674231 0.370698 0
1.69802 0.321701 0
0.56947 0.0908728 0
1.75459 0.110239 0
1.80084 0.126127 0
0.673535 0.0431435 0
1.57391 0.0465733 0
2.04571 0.0828469 0
0.10002 0.225545 0
0.0788152 0.21577 0
0.369719 0.224393 0
0.210352 0.308739 0
1.22342 0.0432967 0
[...]
CELL_DATA 1241
VECTORS velocity double
1.04047 -0.00278548 0.0
1.1919 0.0644453 0.0
0.550521 0.000281942 0.0
0.98412 0.00783277 0.0
1.02826 0.00914753 0.0
1.41936 0.0991147 0.0
1.12234 -0.00499913 0.0
1.01301 -0.00282537 0.0
0.37172 0.0136711 0.0
1.14443 -0.0038361 0.0
1.31252 -0.120021 0.0
1.31628 0.126264 0.0
0.865766 -0.160453 0.0
1.01798 0.00225255 0.0
0.998293 0.00647156 0.0
1.45994 -0.0272766 0.0
0.989292 0.00190525 0.0
0.47909 0.0601356 0.0
1.148 0.0591461 0.0
1.64794 -0.250241 0.0
1.04159 0.00453823 0.0
1.05489 -0.0647264 0.0
1.02354 0.00390423 0.0
1.25369 0.904669 0.0
1.07993 0.00233892 0.0
1.04499 0.00227664 0.0
1.29752 -0.197192 0.0
1.07096 -0.0235269 0.0
1.32178 -0.0836984 0.0
1.45689 -0.0599602 0.0
1.332 0.0900546 0.0
0.843918 -0.0369868 0.0
1.51226 -0.00372831 0.0
1.01631 0.00122368 0.0
1.23201 -0.0567312 0.0
1.35647 0.153917 0.0
1.1878 -0.0539678 0.0
1.05047 -0.167735 0.0
0.359351 0.0203712 0.0
1.37944 0.138063 0.0
1.76739 -0.174704 0.0
1.42015 -0.0404981 0.0
1.05276 -0.236415 0.0
0.602224 0.00510646 0.0
1.39707 -0.163711 0.0
0.595979 -0.00101069 0.0
1.19755 0.0954721 0.0
1.09349 0.0182419 0.0
1.61345 -0.309861 0.0
1.24699 -0.0158675 0.0
1.16016 -0.00444048 0.0
1.29127 -0.416972 0.0
0.876686 -0.00588621 0.0
1.3914 -0.0878449 0.0
1.77817 -0.275616 0.0
1.51044 -0.0357642 0.0
1.12263 -0.0322198 0.0
1.1153 -0.0045261 0.0
1.66328 -0.093882 0.0
1.68795 -0.194151 0.0
1.15902 0.847013 0.0
1.02372 -0.00198499 0.0
0.206417 0.0286978 0.0
1.04612 0.00613991 0.0
-0.250057 0.0681749 0.0
1.332 0.22715 0.0
-0.266561 0.0962475 0.0
1.13365 0.000645485 0.0
0.839603 -0.0266269 0.0
0.23379 0.0293275 0.0
1.1345 -0.00160864 0.0
0.800931 0.01083 0.0
1.13426 -0.000586703 0.0
0.802593 -0.0206679 0.0
1.15059 0.00102051 0.0
0.881046 0.156627 0.0
0.964201 0.00419919 0.0
1.63615 -0.0397848 0.0
0.961383 -0.0362337 0.0
0.649199 -0.00106269 0.0
1.75374 -0.379954 0.0
1.15935 -0.245428 0.0
0.671353 0.00771997 0.0
1.26045 -0.225162 0.0
1.34587 0.169716 0.0
0.91715 -0.0655187 0.0
1.21451 0.18293 0.0
0.107544 0.109536 0.0
1.84072 0.528364 0.0
1.14229 -0.00212219 0.0
1.27934 0.00603269 0.0
-0.177886 -0.0142106 0.0
-0.344435 0.0904647 0.0
1.42931 -0.0707097 0.0
1.16263 -0.0343047 0.0
1.01574 -0.000671359 0.0
0.860492 -0.0307399 0.0
-0.190685 0.0936344 0.0
1.01727 -0.00712743 0.0
-0.225849 0.129196 0.0
1.08215 -0.0985369 0.0
1.13055 -0.00691545 0.0
0.966144 -0.00171295 0.0
1.64506 -0.157918 0.0
1.74534 -0.67016 0.0
1.27356 -0.397509 0.0
1.08074 -0.0698345 0.0
0.51103 -0.0182393 0.0
1.79057 0.648942 0.0
1.16348 -0.00368107 0.0
1.47708 -0.118496 0.0
1.23845 0.196272 0.0
0.134399 0.073518 0.0
1.4415 -0.0271106 0.0
1.0708 0.0169873 0.0
1.44264 0.0399274 0.0
1.40484 0.0104149 0.0
1.38562 0.0480047 0.0
1.05444 0.00202672 0.0
0.274231 0.0495574 0.0
1.19632 0.0394997 0.0
1.52026 0.580775 0.0
1.24213 0.105746 0.0
0.916721 -0.0626454 0.0
0.741121 -0.105241 0.0
1.20055 0.081556 0.0
1.43459 -0.0488153 0.0
1.09603 0.0166029 0.0
1.75292 0.500657 0.0
0.549488 -0.0711835 0.0
1.13478 -0.00750012 0.0
0.632868 -0.00438737 0.0
0.882107 0.0629486 0.0
1.59853 -0.0139141 0.0
1.03111 -0.158595 0.0
-0.27189 0.0732384 0.0
0.126028 0.0534125 0.0
1.20149 0.0810667 0.0
1.035 -0.0271575 0.0
1.66634 -0.761241 0.0
1.50089 0.00348969 0.0
1.03966 0.000252006 0.0
1.07813 -0.244243 0.0
0.993125 0.00916381 0.0
1.53096 0.0143903 0.0
0.0436701 0.037473 0.0
-0.252682 0.0315395 0.0
-0.163938 0.00868027 0.0
0.679633 0.0112818 0.0
0.68579 -0.0132104 0.0
0.555086 -0.101315 0.0
1.02359 -0.0092895 0.0
1.79894 -0.329361 0.0
1.05873 -0.159721 0.0
1.20283 -0.049186 0.0
1.20457 0.054304 0.0
0.581472 0.000165142 0.0
1.64015 0.0676257 0.0
0.870096 0.0364104 0.0
1.22316 -0.057695 0.0
-0.235862 0.0604234 0.0
1.74133 0.443978 0.0
1.12748 0.00205622 0.0
1.22214 -0.204876 0.0
1.11843 0.0265054 0.0
1.05419 0.129968 0.0
1.01225 -0.00140285 0.0
0.987238 0.109481 0.0
0.624643 -0.00269838 0.0
1.14999 -0.0264275 0.0
0.906329 -0.0258561 0.0
1.16659 -0.00234964 0.0
1.36467 0.263414 0.0
1.16246 0.0866658 0.0
1.09613 -0.000999791 0.0
1.10554 -0.00052221 0.0
1.18081 0.196761 0.0
1.12024 -0.28715 0.0
1.10493 0.00438504 0.0
1.16522 -0.223948 0.0
1.10821 0.00194875 0.0
0.373469 0.106151 0.0
1.08832 -0.64472 0.0
0.729931 -0.126756 0.0
1.0221 -0.00413126 0.0
0.76483 -0.078489 0.0
0.760841 -0.0631083 0.0
1.03215 0.00175222 0.0
1.05541 0.0957314 0.0
0.460344 0.0468859 0.0
0.890284 -0.830496 0.0
1.77947 0.341727 0.0
1.02099 -0.000305944 0.0
0.983328 0.00899965 0.0
0.666022 0.0596694 0.0
0.865363 0.0642816 0.0
0.397561 0.0588353 0.0
1.02624 -0.0106122 0.0
1.42772 -0.0322632 0.0
1.45014 0.580549 0.0
1.1545 0.1927 0.0
1.05958 -0.0163351 0.0
1.42686 0.0383135 0.0
1.05123 -0.101306 0.0
1.38258 -0.0969414 0.0
1.43605 -0.0448348 0.0
0.494387 0.0280052 0.0
0.650989 0.00745786 0.0
0.87991 -0.0247112 0.0
0.835109 0.0349174 0.0
0.613157 0.0127644 0.0
0.586682 -0.00135783 0.0
1.79102 0.282583 0.0
1.10526 0.00401938 0.0
1.44655 -0.00976722 0.0
1.11108 0.00488837 0.0
0.768983 -0.0818015 0.0
1.50498 -0.10032 0.0
1.15259 -0.0232454 0.0
1.13354 -0.00575621 0.0
0.833103 -0.0495619 0.0
1.67125 -0.0632655 0.0
1.00521 0.0537576 0.0
1.00554 0.0167009 0.0
0.942677 -0.0281984 0.0
1.16638 -0.00210776 0.0
1.42479 -0.145644 0.0
1.7321 -0.599546 0.0
1.15109 -0.00402147 0.0
1.15631 -0.00529502 0.0
1.01945 -0.00124737 0.0
1.06357 -0.13273 0.0
1.02784 -0.00582025 0.0
1.0022 -0.00351338 0.0
1.26127 0.31077 0.0
1.03824 -0.25614 0.0
1.1084 0.176718 0.0
1.30567 0.134783 0.0
0.774311 -0.110829 0.0
0.354956 -0.0454027 0.0
0.951638 0.0144422 0.0
1.43874 0.0568167 0.0
1.42289 0.918043 0.0
0.682942 -0.0850912 0.0
1.12552 -0.00918389 0.0
1.70615 0.135166 0.0
1.0978 -0.899075 0.0
0.868449 -0.177401 0.0
1.11493 -0.0293213 0.0
0.632372 -0.00624885 0.0
1.02051 0.025467 0.0
0.620698 -0.00769022 0.0
1.03748 -0.00188721 0.0
1.16251 -0.000429407 0.0
0.68393 -0.0118152 0.0
0.751663 -0.0334602 0.0
1.09495 -0.285198 0.0
1.30903 -0.105349 0.0
1.16174 -0.00136684 0.0
1.00918 -0.00743199 0.0
1.02929 0.00679512 0.0
0.583904 -0.00438031 0.0
1.16127 -0.0015424 0.0
0.716192 -0.0234584 0.0
1.10316 0.0349797 0.0
1.0202 -0.00533212 0.0
0.635854 0.00336949 0.0
1.23326 -0.10982 0.0
1.23239 -0.182486 0.0
0.765735 -0.0250043 0.0
1.13785 -0.0619015 0.0
0.652083 -0.00020621 0.0
1.00725 -0.00963816 0.0
0.129229 0.0798992 0.0
1.1547 -0.00372275 0.0
1.15327 -0.00491269 0.0
0.661308 -0.00428932 0.0
0.952674 -0.202672 0.0
1.00337 -0.0104351 0.0
1.41941 0.163056 0.0
1.14964 0.000443867 0.0
1.16759 -0.00203709 0.0
1.22364 -0.170783 0.0
1.17012 -0.0025719 0.0
1.16796 -0.00274223 0.0
1.14649 -0.009147 0.0
0.956373 -0.115597 0.0
0.835801 0.0427848 0.0
1.17226 -0.00359545 0.0
1.16771 -0.00270132 0.0
1.16662 -0.00353793 0.0
0.632891 0.0700329 0.0
0.56094 0.00353945 0.0
0.992507 0.00400336 0.0
0.614749 -0.00725029 0.0
1.17118 -0.00253767 0.0
1.02107 -0.0109168 0.0
1.12747 0.00612237 0.0
-0.248035 -0.0229434 0.0
1.00515 -0.00517665 0.0
0.592937 -0.00130684 0.0
1.32166 -0.605329 0.0
1.11223 -0.00496505 0.0
1.00116 -0.00967304 0.0
0.60665 -0.00765622 0.0
1.16994 -0.00233996 0.0
0.844335 0.0414074 0.0
0.6014 0.00107648 0.0
1.01666 -0.00846349 0.0
1.17231 -0.00365506 0.0
1.16674 -0.00357711 0.0
1.16717 -0.00260059 0.0
0.684956 -0.00350846 0.0
0.543105 0.00174398 0.0
1.17271 -0.00435064 0.0
1.14013 -0.0702534 0.0
1.16137 -0.00563428 0.0
0.667568 0.00897015 0.0
1.1519 -0.00626316 0.0
1.1648 -0.00244345 0.0
1.15869 -0.00335875 0.0
1.17425 -0.00361328 0.0
0.552884 -0.00462642 0.0
1.17237 -0.00368371 0.0
1.17044 -0.00291537 0.0
1.16936 -0.00424643 0.0
0.547328 -0.00173457 0.0
1.16026 -0.00104849 0.0
1.15044 -0.00351916 0.0
1.15455 -0.00355029 0.0
1.17341 -0.00351607 0.0
1.17573 -0.166279 0.0
1.11664 -0.00270718 0.0
1.17507 -0.00392125 0.0
1.35133 0.667962 0.0
1.16806 -0.00348665 0.0
0.596146 -0.00458331 0.0
1.07395 -0.0136921 0.0
0.630116 0.00831091 0.0
0.611929 -0.00471077 0.0
1.13273 0.00394401 0.0
1.07363 -0.00575504 0.0
1.05129 -0.000829574 0.0
0.556182 -0.00470497 0.0
1.07822 -0.0134738 0.0
1.13782 0.00304228 0.0
1.17394 -0.0040722 0.0
1.09115 0.14203 0.0
1.15714 -0.697772 0.0
0.596043 -0.000397362 0.0
0.552318 -0.00237281 0.0
1.17233 -0.003456 0.0
1.17256 -0.00454133 0.0
0.650701 -0.0193075 0.0
0.544283 -0.00981004 0.0
1.17113 -0.00306622 0.0
0.999794 0.00957944 0.0
1.15224 0.00542831 0.0
1.1321 -0.00289173 0.0
0.605522 0.00959054 0.0
0.561367 0.000198677 0.0
1.14177 0.010099 0.0
0.64921 0.0103526 0.0
0.613189 0.0112386 0.0
1.15478 0.00331633 0.0
0.660244 0.0188946 0.0
0.617557 0.00130252 0.0
1.16716 -0.0033701 0.0
1.16102 -0.00364549 0.0
0.98616 0.0116028 0.0
1.16683 -0.00350261 0.0
1.15088 -0.00357142 0.0
1.17032 -0.00348745 0.0
1.01016 0.00624705 0.0
1.13203 -0.00287893 0.0
0.663943 0.00711043 0.0
0.566637 0.0124058 0.0
0.618768 0.0105308 0.0
0.55037 -0.00810874 0.0
0.610006 -0.000832839 0.0
0.617314 -0.00287835 0.0
0.582736 -0.00155718 0.0
0.641444 -0.00908823 0.0
0.629065 -0.00352565 0.0
0.636306 0.0108887 0.0
0.568351 -0.00547305 0.0
0.595863 0.0119418 0.0
0.585503 -0.000151988 0.0
0.65686 0.0195686 0.0
0.577713 0.00701901 0.0
0.578874 -0.00785071 0.0
0.565636 0.00145939 0.0
0.589269 -0.000754479 0.0
0.576116 0.00613608 0.0
0.621949 -0.00483305 0.0
0.621575 -0.00143031 0.0
0.598903 -0.00498377 0.0
0.595478 -0.0130534 0.0
0.595628 0.00389259 0.0
0.586443 -0.000870569 0.0
0.61211 0.0016316 0.0
0.557342 -0.0137376 0.0
0.545803 0.0173871 0.0
0.533781 0.00294602 0.0
0.571228 -0.00413785 0.0
0.566623 0.00320539 0.0
0.628421 -0.0190508 0.0
0.564305 0.00363954 0.0
0.556513 0.00399272 0.0
0.592139 -9.97242e-05 0.0
0.574897 -0.00261788 0.0
1.14996 -0.00315797 0.0
1.13507 -0.00318661 0.0
1.17187 -0.00435632 0.0
1.17216 -0.00374352 0.0
1.17342 -0.00368114 0.0
1.10294 -0.00382405 0.0
1.15609 -0.00380335 0.0
1.14319 -0.00269211 0.0
1.15353 -0.000384796 0.0
1.1345 -0.0041751 0.0
1.16261 -0.00441003 0.0
1.16351 -0.00449293 0.0
1.14037 -0.00323968 0.0
1.1711 -0.00326947 0.0
1.15937 -0.00355654 0.0
1.16978 -0.00373148 0.0
1.15389 -0.00430839 0.0
1.13287 -0.00180922 0.0
1.16813 -0.00409743 0.0
1.17216 -0.00343434 0.0
1.1657 -0.00303644 0.0
1.17135 -0.0036347 0.0
1.16831 -0.00382442 0.0
1.13122 -0.0055774 0.0
1.17293 -0.00281396 0.0
1.16008 -0.00170019 0.0
1.17186 -0.00248454 0.0
1.10247 0.000886795 0.0
1.15979 -0.00328116 0.0
1.15728 -0.00194116 0.0
1.17133 -0.00238039 0.0
1.1432 0.00025852 0.0
1.16941 -0.00226822 0.0
1.17072 -0.00212022 0.0
1.15537 -0.000899006 0.0
1.17271 -0.00229142 0.0
1.16375 -0.00245605 0.0
1.1692 -0.00201066 0.0
1.1304 -0.00364168 0.0
1.14389 -0.000342182 0.0
1.17036 -0.00216065 0.0
1.16288 -0.00212554 0.0
1.16484 -0.00171067 0.0
1.16349 -0.000754432 0.0
1.14811 -0.00627497 0.0
1.1713 -0.00177025 0.0
1.1699 -0.00141598 0.0
1.11727 -0.00201463 0.0
1.15759 -0.0027297 0.0
1.10352 0.00485217 0.0
1.14895 -0.00169831 0.0
1.15839 -0.00154999 0.0
1.16493 -0.00259508 0.0
1.17033 -0.00132013 0.0
1.14636 -0.00169829 0.0
1.16663 -0.002441 0.0
1.16864 -0.00102043 0.0
1.17145 -0.000648678 0.0
1.16726 -0.000550983 0.0
1.16578 -0.000162947 0.0
1.16774 0.00117321 0.0
1.15745 0.00122703 0.0
1.11629 -0.00137115 0.0
1.08814 0.00192335 0.0
1.15798 0.00173382 0.0
1.16968 -0.000223245 0.0
0.601882 -0.00192786 0.0
1.15928 0.000970144 0.0
1.13158 0.00116926 0.0
1.14774 0.00190815 0.0
1.16944 0.000519328 0.0
1.14671 0.00193833 0.0
1.1635 0.00304828 0.0
1.16033 0.00142589 0.0
1.16505 0.00153365 0.0
1.15968 0.00126323 0.0
1.1139 -0.00111459 0.0
1.11432 -0.00280889 0.0
1.13561 -2.34005e-05 0.0
1.16359 0.00254224 0.0
1.15383 -0.000601492 0.0
1.16562 0.00238831 0.0
1.14524 -0.000110294 0.0
1.15581 -0.0014 0.0
1.16736 0.00174877 0.0
1.16525 0.00327063 0.0
1.01354 -0.00645203 0.0
1.14815 0.000159756 0.0
1.16185 0.00352784 0.0
1.12973 0.00256077 0.0
1.16255 -0.000531024 0.0
1.16754 0.000553773 0.0
1.06083 -0.00943829 0.0
1.15456 0.00512793 0.0
1.15611 -0.000307362 0.0
1.13348 0.00710287 0.0
1.16545 0.000548142 0.0
1.14161 0.0101244 0.0
1.15388 -0.000249156 0.0
1.16413 -0.000710902 0.0
1.15816 0.00131234 0.0
1.11955 0.176169 0.0
1.13288 -0.00213003 0.0
1.16715 -0.00411786 0.0
1.15979 0.00493698 0.0
1.1623 0.00197507 0.0
1.13768 -0.00619649 0.0
1.14391 0.00108374 0.0
1.11849 0.00185771 0.0
1.14009 -0.00311693 0.0
1.16085 0.00189069 0.0
1.12013 0.00367537 0.0
1.158 0.00163092 0.0
1.15163 -0.00177856 0.0
1.14534 0.00150309 0.0
1.14826 0.00628045 0.0
1.15465 -0.00208233 0.0
0.696314 -0.0192083 0.0
1.0042 -0.000108009 0.0
1.14535 0.00803107 0.0
1.14913 0.00490425 0.0
1.1514 -0.00386796 0.0
1.1264 0.00442782 0.0
1.13707 0.00675183 0.0
1.14886 -0.00121459 0.0
1.13915 0.000216432 0.0
1.14539 -0.00187818 0.0
1.14337 0.000311968 0.0
1.13444 0.00754394 0.0
1.15604 0.00302542 0.0
1.15198 0.00428322 0.0
1.02176 0.00332192 0.0
1.15335 0.0030474 0.0
1.147 0.00504151 0.0
1.13823 0.00488119 0.0
1.12929 0.00981591 0.0
1.12277 0.00760702 0.0
1.14541 0.00573521 0.0
1.73834 0.176899 0.0
1.13146 -0.00736913 0.0
1.13594 0.0132192 0.0
1.11195 -0.0182312 0.0
1.13645 0.013571 0.0
1.14402 0.00922883 0.0
1.12641 -0.0090723 0.0
1.13963 0.0139257 0.0
1.16496 -0.00264721 0.0
1.0774 -0.00490597 0.0
1.08257 0.00737655 0.0
1.11842 -0.00558326 0.0
1.29416 0.127233 0.0
1.1644 -0.0059752 0.0
1.0631 0.00286615 0.0
1.13472 -0.00491994 0.0
1.14211 0.0209705 0.0
1.13515 0.0146568 0.0
1.1121 -0.00672282 0.0
1.10662 -0.0224533 0.0
1.01055 -0.00841969 0.0
1.14784 -0.000938469 0.0
1.09655 -0.000400371 0.0
1.10508 -0.000745155 0.0
1.13073 0.0175654 0.0
1.09329 -0.0181691 0.0
1.03348 0.19828 0.0
0.998285 -0.00918516 0.0
1.13935 0.0260663 0.0
0.46188 -0.170694 0.0
1.36582 0.137767 0.0
1.16672 -0.046636 0.0
1.09525 0.00759529 0.0
1.09344 0.0211986 0.0
1.08218 0.0302324 0.0
1.16104 -0.001021 0.0
1.08396 0.0108105 0.0
1.05881 -0.0414449 0.0
1.30218 0.17558 0.0
1.01656 -0.147063 0.0
1.05289 -0.0539136 0.0
1.15514 -0.135268 0.0
1.12294 -0.00750459 0.0
1.10209 -0.0431994 0.0
1.14535 -0.00432405 0.0
0.984503 0.00133957 0.0
1.17075 0.0476417 0.0
1.04743 -0.0129358 0.0
1.22981 -0.100673 0.0
1.16409 -0.0053713 0.0
1.16034 -0.0059204 0.0
1.08267 -0.0174236 0.0
1.39916 -0.566921 0.0
1.1399 0.0778694 0.0
1.0339 -0.0178246 0.0
1.14073 0.0614228 0.0
1.00543 0.000760929 0.0
0.73402 0.02626 0.0
1.10844 0.0396467 0.0
1.32738 -0.160695 0.0
0.957636 -0.0918462 0.0
1.10547 -0.0352073 0.0
0.633007 -0.557091 0.0
1.08522 -0.0195983 0.0
1.10044 -0.00430439 0.0
1.1272 -0.00449542 0.0
1.38229 -0.146295 0.0
1.0991 0.0532277 0.0
1.145 -0.00467932 0.0
1.07446 -0.0223288 0.0
1.15683 0.0283946 0.0
1.00869 -0.0124442 0.0
1.35104 -0.771865 0.0
1.16294 -0.00437898 0.0
1.16762 0.0432033 0.0
1.15557 -0.00512146 0.0
1.11806 -0.00593765 0.0
1.16709 -0.0517205 0.0
1.07558 0.0262996 0.0
1.18363 0.0843306 0.0
1.11327 -0.00524266 0.0
1.15336 0.0361977 0.0
0.991074 0.000234281 0.0
1.11987 0.000319164 0.0
1.18107 -0.531813 0.0
0.654355 -0.000456225 0.0
0.666496 -0.0189741 0.0
0.974503 0.0252571 0.0
1.25894 0.119577 0.0
1.13243 -0.00311566 0.0
1.14975 -0.00344626 0.0
0.598704 0.00735584 0.0
1.16037 -0.00330188 0.0
0.358109 -0.128234 0.0
1.08271 -0.0975208 0.0
0.634003 0.00605385 0.0
0.634811 -0.0131234 0.0
0.948018 0.0369324 0.0
1.13015 -0.00290881 0.0
0.863885 -0.174067 0.0
0.89314 -0.0189664 0.0
1.68838 -0.11891 0.0
0.923154 0.0391141 0.0
1.12852 -0.0111667 0.0
1.12954 -0.0128104 0.0
1.05046 0.00253639 0.0
1.1636 -0.00441332 0.0
1.14539 -0.00503265 0.0
1.18528 0.347871 0.0
0.604057 0.013723 0.0
1.00995 0.00480671 0.0
1.34855 -0.102314 0.0
0.594928 0.00502729 0.0
1.5815 0.55964 0.0
0.972967 -0.0408433 0.0
0.85228 -0.0272804 0.0
1.32118 0.0945703 0.0
0.83243 -0.0506225 0.0
0.973297 0.00167767 0.0
0.68278 -0.125737 0.0
1.14478 -0.00942598 0.0
0.878129 0.0982819 0.0
1.13753 -0.0093666 0.0
0.723913 -0.00361773 0.0
1.02032 -0.000629768 0.0
1.0058 0.135602 0.0
1.415 -0.039815 0.0
0.580438 -0.00268545 0.0
0.695058 -0.0214353 0.0
0.919033 0.805227 0.0
1.10448 -0.00388436 0.0
1.03724 0.0139463 0.0
1.38464 0.00898616 0.0
0.591825 -0.00687663 0.0
1.1183 0.00985143 0.0
1.16713 -0.448785 0.0
0.186426 0.0223583 0.0
0.961172 -0.0597998 0.0
1.08082 -0.0815269 0.0
0.710231 0.0234064 0.0
0.576416 0.0213414 0.0
1.64563 0.0292319 0.0
1.13465 -0.00470397 0.0
0.311482 0.0151977 0.0
0.632429 0.0288345 0.0
1.11978 -6.42244e-05 0.0
1.16157 -0.00383704 0.0
1.01788 -0.0124403 0.0
0.979033 0.0605226 0.0
1.20708 0.170555 0.0
0.635868 0.00686985 0.0
1.15137 0.00180786 0.0
0.957514 0.0884883 0.0
1.15944 -0.00354138 0.0
1.38883 -0.593171 0.0
0.594722 -0.00165858 0.0
1.45079 -0.139152 0.0
1.10079 0.00145611 0.0
0.983469 -0.00919548 0.0
0.620539 0.0899725 0.0
1.01991 0.101607 0.0
0.897352 0.139553 0.0
1.10341 0.00351309 0.0
1.19181 -0.0552645 0.0
1.39928 -0.0371269 0.0
0.6163 0.00230673 0.0
0.633691 0.011286 0.0
1.08532 -0.00764318 0.0
0.404471 -0.0728049 0.0
1.02772 0.038424 0.0
0.557515 0.00312917 0.0
0.997469 -0.014697 0.0
1.10392 -0.00588355 0.0
0.978485 -0.0056615 0.0
0.602903 -0.00343307 0.0
0.6044 0.0166303 0.0
0.628094 0.00720295 0.0
0.607655 0.005544 0.0
0.641256 0.00676804 0.0
1.21108 0.669155 0.0
1.35562 0.0657172 0.0
0.980085 -0.00215434 0.0
0.625715 0.00646642 0.0
0.633763 -0.00972057 0.0
0.680132 0.021324 0.0
1.1315 -0.0437951 0.0
0.622103 -0.00300182 0.0
1.60947 -0.190666 0.0
1.27325 0.100698 0.0
0.571621 -0.138219 0.0
1.32353 -0.0959502 0.0
1.52765 -0.465196 0.0
1.01087 -0.000135388 0.0
1.08524 0.00717226 0.0
1.14091 -0.00763151 0.0
0.996345 -0.000972489 0.0
0.837585 -0.689744 0.0
1.01763 0.00153558 0.0
0.993977 -0.00446739 0.0
1.15681 -0.00614524 0.0
1.09645 -0.0258343 0.0
1.64432 -0.00814976 0.0
-0.106947 0.113284 0.0
0.552608 -0.0721011 0.0
1.33648 0.517576 0.0
1.08132 -0.00900843 0.0
0.654507 -0.00835681 0.0
0.632756 -0.00385268 0.0
0.630396 -0.00455441 0.0
1.16067 -0.00257074 0.0
0.662807 0.222914 0.0
1.14882 -0.0170237 0.0
0.996938 0.00787086 0.0
0.779366 0.177874 0.0
1.11564 -0.00311839 0.0
0.202901 -0.0194725 0.0
1.1422 -0.00163672 0.0
0.625788 0.0166019 0.0
0.625572 -0.00856709 0.0
1.35046 0.0945984 0.0
0.889678 -0.00498368 0.0
1.51306 0.0404079 0.0
0.997951 0.00936156 0.0
1.01493 0.00550726 0.0
0.160793 -0.163013 0.0
0.990881 0.0176587 0.0
1.15149 0.00639637 0.0
1.13718 0.00587751 0.0
0.376472 -0.144918 0.0
1.6217 -0.271221 0.0
1.08311 0.00134178 0.0
1.29106 0.205105 0.0
0.651259 -0.0111224 0.0
0.624766 -0.00522562 0.0
1.11573 -0.0181738 0.0
0.584254 0.0944405 0.0
1.12619 -0.0208361 0.0
0.783882 0.021634 0.0
0.954303 -0.0106813 0.0
1.11821 0.00483031 0.0
1.02472 -0.00335712 0.0
0.201859 -0.0208841 0.0
1.12325 -0.00748233 0.0
0.318224 0.0582108 0.0
1.03424 -0.00298185 0.0
1.02556 -0.00348404 0.0
0.635839 -0.013099 0.0
1.05245 -0.00242268 0.0
1.14809 -0.0164698 0.0
0.984084 -0.000460418 0.0
1.00586 -0.00853068 0.0
1.20132 -0.96514 0.0
1.11607 0.013258 0.0
1.69339 0.484932 0.0
0.627394 -0.0107353 0.0
0.627284 0.00710989 0.0
1.14371 0.000564079 0.0
1.17179 -0.0031773 0.0
1.09766 -0.00270596 0.0
1.10373 0.00300791 0.0
1.15133 0.000703806 0.0
1.12002 -0.000140525 0.0
1.16569 -0.00430795 0.0
1.13602 0.0169992 0.0
-0.17229 0.00906227 0.0
1.08608 0.00694682 0.0
0.0226926 0.0565792 0.0
0.671933 -0.0278561 0.0
1.209 -0.188498 0.0
1.12407 -0.00438446 0.0
1.35863 -0.143713 0.0
1.64746 -0.500622 0.0
0.31425 -0.0180981 0.0
1.16115 -0.00342444 0.0
1.12866 0.27111 0.0
1.33026 -0.101703 0.0
1.07157 0.305299 0.0
1.71138 0.0808436 0.0
0.975755 -0.542852 0.0
1.37211 0.132032 0.0
1.12893 -0.014491 0.0
1.29015 -0.48087 0.0
-0.054924 -0.121851 0.0
1.04915 0.00313867 0.0
1.31902 -0.39397 0.0
0.569941 -0.00485919 0.0
1.41594 -0.146376 0.0
1.68401 0.193874 0.0
1.08651 0.00651352 0.0
0.497417 0.0113046 0.0
0.717217 0.00142182 0.0
0.268036 -0.22901 0.0
0.93644 0.0473452 0.0
-0.0872036 -0.0417217 0.0
1.1516 -0.170432 0.0
1.48552 0.154269 0.0
0.564363 0.00672394 0.0
1.21349 -0.0653174 0.0
0.997872 -0.00210648 0.0
1.1549 -0.00359048 0.0
0.435462 -0.616171 0.0
1.22877 0.263958 0.0
0.75144 -0.168369 0.0
0.191501 -0.331476 0.0
0.554584 0.158532 0.0
1.30265 0.238027 0.0
0.621416 0.16131 0.0
0.97304 -0.00867625 0.0
1.11803 -0.00901839 0.0
1.07156 0.00380316 0.0
1.05665 0.00111457 0.0
0.630366 0.00709846 0.0
0.0489959 0.086746 0.0
1.30844 0.299326 0.0