# vtk DataFile Version 3.0
Malha 2D com triângulos e temperatura
ASCII
DATASET UNSTRUCTURED_GRID

POINTS 688 double
0 0 0
2.2 0 0
2.2 0.41 0
0 0.41 0
0.25 0.2 0
0.05 0 0
0.1 0 0
0.15 0 0
0.2 0 0
0.25 0 0
0.3 0 0
0.35 0 0
0.4 0 0
0.45 0 0
0.5 0 0
0.55 0 0
0.6 0 0
0.65 0 0
0.7 0 0
0.75 0 0
0.8 0 0
0.85 0 0
0.9 0 0
0.95 0 0
1 0 0
1.05 0 0
1.1 0 0
1.15 0 0
1.2 0 0
1.25 0 0
1.3 0 0
1.35 0 0
1.4 0 0
1.45 0 0
1.5 0 0
1.55 0 0
1.6 0 0
1.65 0 0
1.7 0 0
1.75 0 0
1.8 0 0
1.85 0 0
1.9 0 0
1.95 0 0
2 0 0
2.05 0 0
2.1 0 0
2.15 0 0
2.2 0.0455556 0
2.2 0.0911111 0
2.2 0.136667 0
2.2 0.182222 0
2.2 0.227778 0
2.2 0.273333 0
2.2 0.318889 0
2.2 0.364444 0
2.15 0.41 0
2.1 0.41 0
2.05 0.41 0
2 0.41 0
1.95 0.41 0
1.9 0.41 0
1.85 0.41 0
1.8 0.41 0
1.75 0.41 0
1.7 0.41 0
1.65 0.41 0
1.6 0.41 0
1.55 0.41 0
1.5 0.41 0
1.45 0.41 0
1.4 0.41 0
1.35 0.41 0
1.3 0.41 0
1.25 0.41 0
1.2 0.41 0
1.15 0.41 0
1.1 0.41 0
1.05 0.41 0
1 0.41 0
0.95 0.41 0
0.9 0.41 0
0.85 0.41 0
0.8 0.41 0
0.75 0.41 0
0.7 0.41 0
0.65 0.41 0
0.6 0.41 0
0.55 0.41 0
0.5 0.41 0
0.45 0.41 0
0.4 0.41 0
0.35 0.41 0
0.3 0.41 0
0.25 0.41 0
0.2 0.41 0
0.15 0.41 0
0.1 0.41 0
0.05 0.41 0
0 0.364444 0
0 0.318889 0
0 0.273333 0
0 0.227778 0
0 0.182222 0
0 0.136667 0
0 0.0911111 0
0 0.0455556 0
0.248831 0.210749 0
0.245379 0.220994 0
0.239805 0.230259 0
0.232369 0.238108 0
0.22342 0.244176 0
0.213376 0.248177 0
0.202707 0.249927 0
0.191911 0.249341 0
0.181493 0.246449 0
0.171941 0.241384 0
0.1637 0.234385 0
0.157157 0.225778 0
0.152617 0.215965 0
0.150293 0.205406 0
0.150293 0.194594 0
0.152617 0.184035 0
0.157157 0.174222 0
0.1637 0.165615 0
0.171941 0.158616 0
0.181493 0.153551 0
0.191911 0.150659 0
0.202707 0.150073 0
0.213376 0.151823 0
0.22342 0.155824 0
0.232369 0.161892 0
0.239805 0.169741 0
0.245379 0.179006 0
0.248831 0.189251 0
0.421316 0.36725 0
0.426705 0.0366526 0
2.16065 0.209201 0
1.52286 0.0417259 0
0.626017 0.37111 0
1.3257 0.0414552 0
1.02471 0.0432237 0
1.17293 0.0421053 0
0.82501 0.36678 0
1.6757 0.370064 0
1.91628 0.0358195 0
1.82501 0.366432 0
0.723429 0.0421499 0
1.425 0.366699 0
1.97461 0.366224 0
1.12167 0.370137 0
0.975 0.368691 0
0.877672 0.0412714 0
1.27686 0.36884 0
1.725 0.0433013 0
0.579174 0.0416211 0
0.325589 0.363848 0
0.319111 0.0378151 0
0.0394523 0.296111 0
0.0329929 0.11602 0
0.142108 0.187428 0
1.57555 0.364352 0
2.02603 0.0412138 0
0.725007 0.36763 0
0.528647 0.366595 0
1.62699 0.0400272 0
1.82929 0.0421255 0
1.425 0.0418325 0
2.07474 0.364233 0
0.125 0.0433013 0
0.161245 0.155011 0
0.225 0.366699 0
0.210027 0.258536 0
2.16034 0.115449 0
0.0371627 0.204103 0
0.142311 0.212698 0
0.220283 0.0418538 0
0.221965 0.145099 0
0.196802 0.141016 0
0.119851 0.373394 0
0.161112 0.245979 0
0.184892 0.258024 0
2.16342 0.30039 0
2.12627 0.047699 0
0.183325 0.0412617 0
0.152317 0.0762976 0
0.203864 0.0745802 0
0.234384 0.0774346 0
0.215969 0.103585 0
0.245651 0.104548 0
0.186562 0.100216 0
0.268213 0.0793029 0
0.272149 0.109155 0
0.242885 0.159377 0
0.253088 0.128261 0
0.278718 0.13214 0
0.295917 0.115997 0
0.301728 0.138858 0
0.321266 0.12205 0
0.324642 0.151724 0
0.255978 0.181139 0
0.350123 0.129049 0
0.357539 0.159885 0
0.333541 0.181416 0
0.36451 0.19182 0
0.250573 0.230419 0
0.391277 0.169722 0
0.339477 0.212308 0
0.39836 0.205386 0
0.427326 0.18117 0
0.258724 0.206387 0
0.434392 0.219501 0
0.466446 0.193907 0
0.472865 0.243064 0
0.507358 0.209962 0
0.40073 0.238916 0
0.499135 0.1652 0
0.5419 0.179224 0
0.550176 0.22496 0
0.585844 0.194129 0
0.594095 0.240176 0
0.630701 0.209517 0
0.621901 0.162424 0
0.667731 0.178095 0
0.676485 0.226008 0
0.713906 0.194492 0
0.722681 0.242872 0
0.760442 0.211047 0
0.751547 0.162356 0
0.798298 0.179 0
0.807147 0.227866 0
0.845136 0.195775 0
0.854541 0.243285 0
0.892163 0.212344 0
0.902461 0.257947 0
0.93935 0.228684 0
0.930236 0.180167 0
0.977229 0.197066 0
0.986264 0.245777 0
1.02423 0.213991 0
1.0331 0.263172 0
1.07123 0.230975 0
1.06234 0.181814 0
1.10938 0.198721 0
1.09996 0.151012 0
1.14691 0.168161 0
1.15631 0.215921 0
1.19446 0.183678 0
1.20343 0.232645 0
1.2416 0.200322 0
1.23272 0.151117 0
1.2798 0.167954 0
1.28868 0.217167 0
1.32685 0.184862 0
1.33573 0.234064 0
1.3739 0.201768 0
0.789327 0.130094 0
1.38279 0.25097 0
1.42096 0.218674 0
1.41207 0.169471 0
1.45912 0.186378 0
1.46801 0.235581 0
1.50618 0.203285 0
1.51506 0.252489 0
1.55323 0.220192 0
1.54435 0.170989 0
1.5914 0.187896 0
1.60029 0.2371 0
1.63846 0.204803 0
1.64734 0.254007 0
1.68551 0.221711 0
1.67663 0.172507 0
1.72368 0.189415 0
1.73831 0.241548 0
1.77074 0.206322 0
1.76185 0.157121 0
1.8091 0.17428 0
1.81866 0.220885 0
1.85608 0.190621 0
1.86521 0.238879 0
1.90289 0.207671 0
1.91264 0.253772 0
1.94955 0.224093 0
1.94067 0.17593 0
1.98705 0.192828 0
1.99572 0.240997 0
2.0329 0.209382 0
2.02422 0.16161 0
2.04166 0.257286 0
0.419739 0.142889 0
0.968291 0.148058 0
0.310035 0.202211 0
0.316128 0.230863 0
0.658501 0.130052 0
0.685107 0.27445 0
1.34462 0.283266 0
1.16528 0.264896 0
1.84735 0.142081 0
0.557687 0.270604 0
1.21234 0.281769 0
1.58252 0.138692 0
0.533563 0.131933 0
0.489835 0.120004 0
1.45024 0.137174 0
2.06974 0.17785 0
2.06113 0.130713 0
0.283221 0.152215 0
0.921299 0.131169 0
0.343836 0.24295 0
0.319203 0.260002 0
0.235529 0.249617 0
0.347029 0.274099 0
0.291856 0.246297 0
0.295938 0.27548 0
0.272836 0.264931 0
0.27461 0.290522 0
0.251228 0.280224 0
0.253903 0.305808 0
0.232795 0.296709 0
0.298805 0.304058 0
1.0801 0.280176 0
1.47689 0.284785 0
1.05315 0.133468 0
1.09741 0.0970974 0
1.82427 0.272867 0
1.2701 0.118911 0
0.816337 0.277695 0
1.40432 0.121101 0
1.04244 0.320388 0
0.959305 0.103028 0
1.60923 0.286151 0
0.601674 0.286775 0
2.00739 0.280923 0
0.342592 0.0992796 0
0.375237 0.105729 0
1.52511 0.298716 0
1.53114 0.119823 0
0.733824 0.287256 0
0.613372 0.114719 0
0.645558 0.0838585 0
2.015 0.115858 0
1.22718 0.0994086 0
1.39166 0.29817 0
1.3564 0.329754 0
0.744134 0.11556 0
0.782853 0.0841771 0
0.826899 0.10047 0
1.17418 0.314034 0
0.520902 0.0906676 0
1.4967 0.329429 0
1.26048 0.0740437 0
0.365514 0.0716355 0
0.229836 0.121666 0
1.57453 0.09137 0
1.61938 0.110761 0
0.481716 0.0753791 0
0.14093 0.2 0
0.130041 0.192847 0
0.131507 0.178608 0
0.117165 0.184444 0
0.120761 0.164701 0
0.1156 0.199931 0
0.100804 0.174136 0
0.102545 0.153034 0
0.12169 0.143342 0
0.104604 0.13008 0
0.0809304 0.161171 0
0.128077 0.121858 0
0.106825 0.102278 0
0.082498 0.188728 0
0.0314738 0.158621 0
2.04625 0.310891 0
2.08475 0.27479 0
2.11394 0.138117 0
0.233149 0.151108 0
0.258724 0.193613 0
0.268522 0.184917 0
1.65397 0.301059 0
0.145962 0.224912 0
0.132503 0.222267 0
0.13746 0.236947 0
0.120111 0.233525 0
0.126593 0.25219 0
0.105294 0.247497 0
0.113343 0.26868 0
0.133997 0.271734 0
0.121622 0.292031 0
0.147069 0.292141 0
0.0896563 0.267464 0
0.0813699 0.243294 0
0.163574 0.276939 0
0.172694 0.298517 0
0.1583 0.321483 0
0.186823 0.322499 0
0.173113 0.348195 0
0.0322087 0.250839 0
0.211694 0.124337 0
0.250615 0.169546 0
0.256243 0.157787 0
0.170796 0.14736 0
0.156755 0.141654 0
0.17187 0.131161 0
0.147502 0.152323 0
0.198129 0.260662 0
0.206368 0.271663 0
0.220945 0.26864 0
0.190489 0.270628 0
0.198813 0.286731 0
0.55749 0.322277 0
0.520166 0.299321 0
0.235199 0.330709 0
0.267109 0.337524 0
0.172324 0.25256 0
0.255974 0.218859 0
0.268327 0.214994 0
0.184197 0.143083 0
0.188721 0.129954 0
0.209694 0.139146 0
0.269223 0.244007 0
0.252374 0.255244 0
0.282229 0.0410487 0
1.21977 0.330016 0
1.25733 0.296346 0
2.09358 0.0890819 0
0.244373 0.240984 0
0.0838116 0.115786 0
0.0797544 0.0817835 0
0.237449 0.264854 0
0.247178 0.146225 0
0.270136 0.2 0
0.28023 0.191334 0
0.263476 0.170737 0
0.371486 0.368728 0
0.396124 0.330051 0
0.440314 0.325693 0
0.357693 0.329668 0
0.476576 0.362035 0
0.29587 0.222914 0
0.307627 0.175476 0
0.079599 0.0406461 0
0.146062 0.252571 0
0.15162 0.125025 0
0.417223 0.294608 0
0.457089 0.286958 0
0.036619 0.338729 0
0.0713014 0.322193 0
0.0735823 0.36704 0
0.041143 0.0722223 0
0.693501 0.32349 0
0.145406 0.175484 0
0.138777 0.164467 0
0.300367 0.0698839 0
0.167025 0.112083 0
0.146978 0.105544 0
0.151909 0.236762 0
0.444611 0.106436 0
0.909355 0.0817561 0
0.282901 0.370713 0
1.61474 0.330739 0
0.578053 0.368179 0
0.824695 0.0487848 0
2.09634 0.3213 0
2.02276 0.364865 0
2.12532 0.363702 0
1.09789 0.328757 0
0.161137 0.260089 0
2.07793 0.225752 0
2.12079 0.240944 0
2.0747 0.0437362 0
1.89402 0.158846 0
1.93154 0.128738 0
1.8848 0.111477 0
1.8384 0.0926484 0
1.87744 0.0655304 0
1.7913 0.0793874 0
1.9712 0.046671 0
1.92502 0.366682 0
1.94563 0.325156 0
1.89941 0.326645 0
1.87499 0.367178 0
1.84989 0.323491 0
1.7997 0.321303 0
1.77183 0.280326 0
1.75031 0.321965 0
1.77491 0.365615 0
2.11727 0.191885 0
0.883187 0.163467 0
1.71449 0.140266 0
1.667 0.125342 0
1.70591 0.0884759 0
1.67732 0.042286 0
1.52278 0.370513 0
1.37512 0.04128 0
1.34848 0.0834574 0
0.776093 0.367587 0
1.125 0.0433013 0
1.15 0.0866019 0
1.07442 0.0496847 0
0.974527 0.0370837 0
1.47464 0.0427918 0
1.44953 0.0873752 0
1.17595 0.362984 0
1.025 0.366699 0
0.925007 0.367031 0
0.95 0.323404 0
0.897321 0.326356 0
0.874563 0.367261 0
0.846552 0.324465 0
1.62923 0.156667 0
1.32319 0.13033 0
1.69342 0.270472 0
1.49568 0.156227 0
1.56237 0.268721 0
1.44 0.319169 0
1.43005 0.267892 0
1.36502 0.152565 0
0.993446 0.294003 0
1.30179 0.321101 0
1.18235 0.127964 0
1.25016 0.2491 0
1.29638 0.266841 0
1.11824 0.247967 0
1.12945 0.294699 0
1.01527 0.165035 0
0.836192 0.147197 0
1.4998 0.0831488 0
1.00655 0.118664 0
0.872896 0.117126 0
0.70523 0.146383 0
1.96013 0.276645 0
0.769406 0.257102 0
0.699552 0.0908977 0
2.1587 0.162257 0
1.97813 0.145326 0
0.646036 0.302035 0
0.799423 0.326603 0
0.515621 0.255445 0
1.72538 0.366474 0
1.97009 0.0998346 0
1.57108 0.313772 0
0.577925 0.14549 0
0.638911 0.256447 0
0.407352 0.0771641 0
0.525103 0.042511 0
0.674231 0.370698 0
1.69802 0.321701 0
0.56947 0.0908728 0
1.75459 0.110239 0
1.80084 0.126127 0
0.673535 0.0431435 0
1.57391 0.0465733 0
2.04571 0.0828469 0
0.10002 0.225545 0
0.0788152 0.21577 0
0.369719 0.224393 0
0.210352 0.308739 0
1.22342 0.0432967 0
[...]
CELL_DATA 1241
VECTORS velocity double
1.02689 -0.00345101 0.0
1.21093 0.0683527 0.0
0.493433 -8.15582e-05 0.0
0.963614 0.00438934 0.0
1.03563 0.00833246 0.0
1.42199 0.102176 0.0
1.12859 -0.000215365 0.0
0.994642 -0.000986511 0.0
0.365334 0.0152624 0.0
1.16238 0.0014948 0.0
1.31248 -0.119994 0.0
1.31627 0.126477 0.0
0.865766 -0.160566 0.0
1.01386 0.00521171 0.0
0.990098 0.00746631 0.0
1.46509 -0.0316863 0.0
0.97946 0.00202089 0.0
0.479491 0.0603197 0.0
1.16556 0.0638922 0.0
1.64779 -0.253401 0.0
1.03135 0.00617403 0.0
1.0585 -0.0659785 0.0
1.02948 0.00239202 0.0
1.25321 0.904792 0.0
1.07283 -0.00133619 0.0
1.03489 0.00416716 0.0
1.29871 -0.198977 0.0
1.07526 -0.0249902 0.0
1.32176 -0.0836722 0.0
1.46134 -0.0638684 0.0
1.33199 0.0902088 0.0
0.86076 -0.0375568 0.0
1.5185 0.00115418 0.0
1.01244 0.00371591 0.0
1.25063 -0.0580492 0.0
1.35828 0.156213 0.0
1.20596 -0.0566043 0.0
1.05043 -0.167812 0.0
0.359518 0.0204707 0.0
1.38151 0.140551 0.0
1.76518 -0.17878 0.0
1.41474 -0.0444422 0.0
1.05282 -0.237033 0.0
0.548471 0.00676397 0.0
1.39881 -0.166512 0.0
0.541688 -0.00331577 0.0
1.20337 0.1006 0.0
1.10708 0.025687 0.0
1.61317 -0.312462 0.0
1.24141 -0.011825 0.0
1.18902 0.000840081 0.0
1.29095 -0.417411 0.0
0.871293 -0.00421432 0.0
1.40463 -0.0839513 0.0
1.77591 -0.278816 0.0
1.51699 -0.0304117 0.0
1.14214 -0.0399999 0.0
1.1214 -0.000509312 0.0
1.65949 -0.0980337 0.0
1.68786 -0.19831 0.0
1.15863 0.847177 0.0
1.00688 6.10568e-05 0.0
0.198158 0.0339137 0.0
1.03638 0.0081255 0.0
-0.241644 0.0709604 0.0
1.33193 0.227464 0.0
-0.277116 0.0878121 0.0
1.15169 0.0010688 0.0
0.856419 -0.0264402 0.0
0.221473 0.0252762 0.0
1.15252 -0.00212896 0.0
0.795278 0.0132909 0.0
1.15179 -0.00146196 0.0
0.79422 -0.0154912 0.0
1.18061 0.00680461 0.0
0.88124 0.156974 0.0
0.948947 0.00467119 0.0
1.63249 -0.0451417 0.0
0.975088 -0.035237 0.0
0.617761 5.51729e-05 0.0
1.75239 -0.382409 0.0
1.15964 -0.246468 0.0
0.650735 0.0108108 0.0
1.26128 -0.226922 0.0
1.34582 0.169976 0.0
0.918942 -0.0664851 0.0
1.21074 0.18038 0.0
0.091002 0.100151 0.0
1.83925 0.529862 0.0
1.16938 0.00328042 0.0
1.27384 0.00915503 0.0
-0.187075 -0.0116449 0.0
-0.347126 0.079706 0.0
1.43996 -0.0662474 0.0
1.18025 -0.0410558 0.0
0.99903 0.00108979 0.0
0.851954 -0.0271254 0.0
-0.18518 0.0908201 0.0
1.01328 -0.00877239 0.0
-0.240838 0.115058 0.0
1.08214 -0.0985511 0.0
1.14598 -0.0104157 0.0
0.952493 -0.000348456 0.0
1.64044 -0.160595 0.0
1.74304 -0.670581 0.0
1.27327 -0.397843 0.0
1.07345 -0.0638984 0.0
0.500822 -0.0225371 0.0
1.78857 0.649447 0.0
1.19593 0.00282249 0.0
1.48366 -0.111464 0.0
1.23445 0.191835 0.0
0.132557 0.075094 0.0
1.44147 -0.027029 0.0
1.07817 0.0153592 0.0
1.44263 0.0400497 0.0
1.41222 0.00598514 0.0
1.39041 0.0517634 0.0
1.05834 0.000269724 0.0
0.25932 0.0414616 0.0
1.19161 0.0415007 0.0
1.51977 0.581522 0.0
1.25164 0.110221 0.0
0.919303 -0.0633101 0.0
0.72995 -0.100909 0.0
1.20681 0.0874997 0.0
1.44409 -0.0443976 0.0
1.11021 0.0240386 0.0
1.75034 0.501185 0.0
0.549825 -0.0712919 0.0
1.15168 -0.0109135 0.0
0.613496 -0.00225881 0.0
0.885001 0.0636526 0.0
1.60244 -0.0199917 0.0
1.02285 -0.154936 0.0
-0.275086 0.0745094 0.0
0.123847 0.0604142 0.0
1.22023 0.0838775 0.0
1.04533 -0.0257635 0.0
1.66441 -0.761341 0.0
1.50088 0.00355316 0.0
1.03533 0.0023779 0.0
1.07832 -0.244891 0.0
1.00245 0.00747498 0.0
1.5251 0.00866886 0.0
0.0270104 0.032108 0.0
-0.253798 0.0369787 0.0
-0.178999 0.00636599 0.0
0.647782 0.013541 0.0
0.656659 -0.0131645 0.0
0.555288 -0.101487 0.0
1.03214 -0.00763015 0.0
1.79695 -0.331968 0.0
1.05103 -0.155171 0.0
1.20282 -0.0491834 0.0
1.20456 0.054397 0.0
0.530831 0.000129384 0.0
1.64276 0.0723482 0.0
0.859737 0.0315914 0.0
1.2418 -0.0582867 0.0
-0.231031 0.0486731 0.0
1.74063 0.445861 0.0
1.1384 0.00439699 0.0
1.22206 -0.204905 0.0
1.13499 0.0343085 0.0
1.05421 0.130182 0.0
0.99603 -0.00170184 0.0
0.987093 0.109723 0.0
0.583313 -0.00268961 0.0
1.16965 -0.0331897 0.0
0.922817 -0.0254713 0.0
1.20272 0.0033568 0.0
1.36525 0.265013 0.0
1.18366 0.0883048 0.0
1.10289 0.00182449 0.0
1.11372 0.00255185 0.0
1.18217 0.198228 0.0
1.12014 -0.287519 0.0
1.11144 0.00771914 0.0
1.16588 -0.225007 0.0
1.11697 0.0052936 0.0
0.365604 0.109092 0.0
1.08785 -0.644511 0.0
0.730447 -0.127025 0.0
1.01955 -0.006029 0.0
0.765524 -0.0788864 0.0
0.761937 -0.0635538 0.0
1.02783 0.00400145 0.0
1.05544 0.0958813 0.0
0.460887 0.0469801 0.0
0.889782 -0.830103 0.0
1.77878 0.344249 0.0
1.02682 -0.00170117 0.0
0.979282 0.00839969 0.0
0.667029 0.0600954 0.0
0.855464 0.058346 0.0
0.397701 0.058971 0.0
1.01231 -0.0133409 0.0
1.42771 -0.0322349 0.0
1.44973 0.581196 0.0
1.15456 0.193016 0.0
1.06684 -0.0142317 0.0
1.42685 0.0383832 0.0
1.04371 -0.0944045 0.0
1.39684 -0.0932309 0.0
1.43602 -0.0447314 0.0
0.485483 0.0251764 0.0
0.650929 0.012624 0.0
0.894739 -0.0234524 0.0
0.85218 0.0340732 0.0
0.562893 0.0157591 0.0
0.543213 -0.00198351 0.0
1.79027 0.285541 0.0
1.10986 0.00731783 0.0
1.44202 -0.0050927 0.0
1.11831 0.00802727 0.0
0.740383 -0.0786827 0.0
1.5099 -0.092899 0.0
1.17369 -0.0295745 0.0
1.14979 -0.00886393 0.0
0.833099 -0.0495764 0.0
1.67143 -0.0690443 0.0
1.009 0.0549543 0.0
0.998118 0.0124761 0.0
0.954804 -0.026693 0.0
1.2018 0.00267602 0.0
1.43355 -0.139582 0.0
1.73035 -0.600636 0.0
1.1707 -0.00563333 0.0
1.18255 -0.00788636 0.0
1.00416 -0.00149621 0.0
1.06355 -0.132766 0.0
1.02402 -0.00769411 0.0
0.994517 -0.00470151 0.0
1.25871 0.310824 0.0
1.0383 -0.256528 0.0
1.09971 0.174049 0.0
1.31713 0.134542 0.0
0.750826 -0.10803 0.0
0.355055 -0.0454461 0.0
0.95711 0.0155781 0.0
1.43871 0.0569723 0.0
1.42219 0.918206 0.0
0.682939 -0.0851668 0.0
1.13975 -0.0129415 0.0
1.70463 0.139064 0.0
1.09715 -0.898742 0.0
0.868434 -0.177572 0.0
1.13275 -0.03757 0.0
0.589434 -0.00713314 0.0
1.02482 0.0266719 0.0
0.575937 -0.00872368 0.0
1.03116 -0.00262751 0.0
1.1961 0.00362216 0.0
0.647524 -0.01164 0.0
0.767626 -0.0342056 0.0
1.09488 -0.285423 0.0
1.32337 -0.106533 0.0
1.19457 0.00179625 0.0
1.0131 -0.00371996 0.0
1.0163 0.00935091 0.0
0.539165 -0.00501638 0.0
1.19613 0.00514837 0.0
0.727283 -0.0264091 0.0
1.11932 0.0438212 0.0
1.00761 -0.00828007 0.0
0.594222 0.00384243 0.0
1.24091 -0.111477 0.0
1.22868 -0.173447 0.0
0.780765 -0.0270738 0.0
1.14262 -0.0662486 0.0
0.614629 0.00105091 0.0
0.99163 -0.0122848 0.0
0.119654 0.0692458 0.0
1.18011 1.54754e-05 0.0
1.17829 -0.00737484 0.0
0.624948 -0.00402919 0.0
0.944989 -0.195989 0.0
0.991655 -0.0124028 0.0
1.42867 0.157273 0.0
1.17559 0.00262535 0.0
1.20311 0.000100132 0.0
1.22358 -0.170787 0.0
1.20529 -0.00142011 0.0
1.20331 0.00120422 0.0
1.16767 -0.0144508 0.0
0.941106 -0.115694 0.0
0.835801 0.0428512 0.0
1.20663 -0.003551 0.0
1.20233 0.00011064 0.0
1.19957 -0.00124695 0.0
0.634436 0.0703846 0.0
0.505607 0.00485601 0.0
0.992726 0.00754267 0.0
0.576867 -0.00723362 0.0
1.20527 -0.00333985 0.0
1.0082 -0.0143137 0.0
1.14661 0.0102814 0.0
-0.258788 -0.0274378 0.0
0.984336 -0.0079134 0.0
0.540187 -0.00279206 0.0
1.3195 -0.604872 0.0
1.11915 -0.00685987 0.0
0.982633 -0.0126518 0.0
0.559326 -0.00897274 0.0
1.20433 -0.00165167 0.0
0.862104 0.0413959 0.0
0.56399 0.00149953 0.0
1.00147 -0.0116192 0.0
1.20601 -0.00402063 0.0
1.19917 -0.00185541 0.0
1.20186 -0.00135369 0.0
0.650315 -0.00558824 0.0
0.48768 0.00146513 0.0
1.20497 -0.00509645 0.0
1.14419 -0.0744556 0.0
1.18595 -0.00616787 0.0
0.632642 0.00958115 0.0
1.17107 -0.00721398 0.0
1.19698 -0.00294305 0.0
1.18678 0.00102602 0.0
1.20858 -0.00513757 0.0
0.502764 -0.00571823 0.0
1.20404 -0.00487312 0.0
1.20362 -0.00417215 0.0
1.1984 -0.00566878 0.0
0.494827 -0.00277378 0.0
1.19075 -0.000608968 0.0
1.16952 -0.00499749 0.0
1.18006 -0.000846038 0.0
1.20698 -0.005245 0.0
1.17212 -0.159786 0.0
1.12347 0.00100187 0.0
1.20877 -0.00575885 0.0
1.35097 0.668353 0.0
1.19657 -0.00523735 0.0
0.546016 -0.00598609 0.0
1.08789 -0.0202427 0.0
0.594252 0.00814172 0.0
0.587374 -0.00813519 0.0
1.12936 0.00587862 0.0
1.08749 -0.00994326 0.0
1.06215 -0.00482814 0.0
0.526847 -0.00713617 0.0
1.09326 -0.0196275 0.0
1.13598 0.004514 0.0
1.20691 -0.00611886 0.0
1.08025 0.141357 0.0
1.15553 -0.697041 0.0
0.561039 -0.00270603 0.0
0.517878 -0.0043116 0.0
1.20383 -0.00495959 0.0
1.20519 -0.00643006 0.0
0.62074 -0.0201517 0.0
0.509132 -0.0103909 0.0
1.202 -0.00438568 0.0
0.992326 0.0129087 0.0
1.16378 0.00847466 0.0
1.14733 -0.00516581 0.0
0.568205 0.00911415 0.0
0.520982 -0.0011433 0.0
1.14846 0.0151212 0.0
0.612718 0.0121342 0.0
0.577361 0.0131613 0.0
1.17158 0.00581381 0.0
0.626516 0.0206821 0.0
0.580291 0.000131949 0.0
1.19531 -0.00436112 0.0
1.18567 -0.00420084 0.0
0.970086 0.0133366 0.0
1.19429 -0.00329739 0.0
1.17067 -0.00364402 0.0
1.20009 -0.00376888 0.0
0.993246 0.00878194 0.0
1.14452 -0.00368508 0.0
0.627318 0.00657984 0.0
0.524095 0.0136582 0.0
0.57512 0.0122287 0.0
0.499583 -0.00849144 0.0
0.562702 -0.000293644 0.0
0.578304 -0.00411898 0.0
0.541279 -0.0018899 0.0
0.630292 -0.013171 0.0
0.5792 -0.00443321 0.0
0.595133 0.0119402 0.0
0.520962 -0.00645363 0.0
0.570147 0.0146098 0.0
0.534179 -0.000187884 0.0
0.668671 0.0217131 0.0
0.567248 0.00983273 0.0
0.562893 -0.011051 0.0
0.517915 0.00193743 0.0
0.54719 -0.00141693 0.0
0.532397 0.00682077 0.0
0.603278 -0.00888239 0.0
0.570594 -0.00163202 0.0
0.591218 -0.00742729 0.0
0.561607 -0.0133474 0.0
0.556612 0.0050752 0.0
0.543428 -0.000655179 0.0
0.566007 0.0023896 0.0
0.513714 -0.0156483 0.0
0.501598 0.0196114 0.0
0.493682 0.002029 0.0
0.54868 -0.00654481 0.0
0.522387 0.00344291 0.0
0.636113 -0.0213083 0.0
0.51826 0.00468314 0.0
0.502601 0.00449845 0.0
0.544182 0.000267579 0.0
0.522133 -0.00297087 0.0
1.1695 -0.00302289 0.0
1.15096 -0.0042813 0.0
1.20406 -0.00595531 0.0
1.20365 -0.00470417 0.0
1.20572 -0.00477825 0.0
1.11114 -0.00518398 0.0
1.18128 -0.00505407 0.0
1.16381 -0.00420378 0.0
1.17402 0.00153267 0.0
1.1475 -0.00373589 0.0
1.19083 -0.00597376 0.0
1.19244 -0.00641656 0.0
1.16042 -0.00436396 0.0
1.20158 -0.00355216 0.0
1.18275 -0.00271138 0.0
1.20072 -0.00487063 0.0
1.17827 -0.00541107 0.0
1.14576 -0.000980847 0.0
1.19817 -0.00510051 0.0
1.2035 -0.00394845 0.0
1.19245 -0.00258598 0.0
1.20184 -0.00410933 0.0
1.19703 -0.00501101 0.0
1.14663 -0.00686059 0.0
1.20347 -0.00256487 0.0
1.18427 -0.00215019 0.0
1.20155 -0.00206516 0.0
1.11232 0.000365028 0.0
1.184 -0.00373693 0.0
1.17987 -0.000763652 0.0
1.19956 -0.00201818 0.0
1.16335 -4.20157e-05 0.0
1.1977 -0.00217758 0.0
1.19986 -0.00214373 0.0
1.17656 0.00114485 0.0
1.20191 -0.00193389 0.0
1.19149 -0.00303965 0.0
1.19693 -0.00107562 0.0
1.145 -0.00613134 0.0
1.16452 -0.000865686 0.0
1.19893 -0.00125875 0.0
1.18987 -0.00247793 0.0
1.19027 -0.000304728 0.0
1.18809 0.00095927 0.0
1.16173 -0.0107537 0.0
1.19901 -0.000947464 0.0
1.19658 -0.000617246 0.0
1.12909 -0.00368975 0.0
1.18098 -0.00313134 0.0
1.11365 0.00473916 0.0
1.16898 -0.00272225 0.0
1.18039 -0.00271898 0.0
1.1902 -0.00298573 0.0
1.19697 -0.00135105 0.0
1.16558 -0.0028347 0.0
1.19284 -0.0028126 0.0
1.19417 -0.0010969 0.0
1.19725 -0.000341422 0.0
1.19242 0.000840327 0.0
1.18996 0.0011499 0.0
1.19031 0.00200556 0.0
1.17806 0.00303663 0.0
1.12843 -0.00397364 0.0
1.09209 0.00395506 0.0
1.1761 0.00402589 0.0
1.19424 4.88615e-05 0.0
0.571569 -0.00468337 0.0
1.1808 0.00292568 0.0
1.14486 0.00381582 0.0
1.16544 0.00438897 0.0
1.19325 0.001404 0.0
1.16377 0.00422964 0.0
1.17948 0.00396875 0.0
1.17391 0.000272281 0.0
1.18621 0.0030637 0.0
1.17688 -0.000337466 0.0
1.12545 -0.00288843 0.0
1.12639 -0.00553535 0.0
1.15098 -0.00284469 0.0
1.18354 0.00420923 0.0
1.17129 -0.00290329 0.0
1.18418 0.00248427 0.0
1.16226 -0.00225068 0.0
1.17682 -0.00265308 0.0
1.18726 0.00187691 0.0
1.18264 0.00424427 0.0
0.994276 -0.00957867 0.0
1.16596 -0.00192596 0.0
1.17672 0.00541216 0.0
1.14255 0.00528287 0.0
1.18404 -0.00172354 0.0
1.18944 1.25383e-05 0.0
1.07295 -0.0151916 0.0
1.16727 0.00807413 0.0
1.17458 -0.00240832 0.0
1.14533 0.0110205 0.0
1.18602 -0.000146491 0.0
1.15158 0.0156892 0.0
1.16816 -0.00309124 0.0
1.18671 -0.00176369 0.0
1.17426 -0.000451589 0.0
1.1194 0.176441 0.0
1.14767 -0.00522109 0.0
1.19827 -0.0064768 0.0
1.17331 0.00707676 0.0
1.17722 0.0010421 0.0
1.15422 -0.010688 0.0
1.15893 -0.00175671 0.0
1.13344 -0.000758316 0.0
1.15725 -0.00704282 0.0
1.17245 0.00183725 0.0
1.13545 0.00111595 0.0
1.16812 0.00155721 0.0
1.16498 -0.00512387 0.0
1.16082 -0.00118635 0.0
1.15525 0.00977359 0.0
1.16478 -0.00454992 0.0
0.709383 -0.0208519 0.0
0.984996 0.00190713 0.0
1.15111 0.0120172 0.0
1.15486 0.00748736 0.0
1.16019 -0.0067864 0.0
1.13854 0.00888619 0.0
1.14797 0.0111234 0.0
1.15342 -0.00247521 0.0
1.13841 0.000301456 0.0
1.14874 -0.0031727 0.0
1.14404 0.000315458 0.0
1.13213 0.010843 0.0
1.16454 0.00417617 0.0
1.15903 0.00659563 0.0
1.00539 0.00543321 0.0
1.16051 0.00435562 0.0
1.15873 0.00857975 0.0
1.14986 0.00893025 0.0
1.12558 0.0138911 0.0
1.13388 0.012684 0.0
1.15621 0.00945911 0.0
1.73608 0.180496 0.0
1.13022 -0.0101091 0.0
1.13595 0.0181698 0.0
1.10916 -0.0220267 0.0
1.14839 0.0202562 0.0
1.15191 0.01389 0.0
1.12405 -0.0122492 0.0
1.14855 0.0201418 0.0
1.19675 -0.0035217 0.0
1.07477 -0.00776012 0.0
1.0926 0.0130435 0.0
1.11037 -0.00693801 0.0
1.30567 0.128292 0.0
1.19425 -0.00479171 0.0
1.07443 0.000794042 0.0
1.14724 -0.00667071 0.0
1.14586 0.0274228 0.0
1.14605 0.0212256 0.0
1.10285 -0.00835062 0.0
1.10314 -0.0269336 0.0
0.992729 -0.0117295 0.0
1.17293 0.000456473 0.0
1.08169 0.000386495 0.0
1.09153 -0.00016767 0.0
1.12937 0.0235252 0.0
1.11019 -0.0251591 0.0
1.03064 0.198314 0.0
0.976872 -0.012325 0.0
1.14203 0.03318 0.0
0.446173 -0.165574 0.0
1.37942 0.133886 0.0
1.18107 -0.0527082 0.0
1.07937 0.0100369 0.0
1.07875 0.0257 0.0
1.06653 0.0361777 0.0
1.19248 5.26136e-06 0.0
1.06661 0.0140184 0.0
1.04697 -0.044581 0.0
1.30217 0.175862 0.0
1.00717 -0.144049 0.0
1.04134 -0.0581114 0.0
1.15393 -0.134906 0.0
1.13746 -0.00980812 0.0
1.10128 -0.0482653 0.0
1.1655 -0.00305757 0.0
0.95212 0.00218787 0.0
1.18102 0.054862 0.0
1.02355 -0.0139117 0.0
1.23812 -0.103287 0.0
1.19347 -0.00475985 0.0
1.18536 -0.00579785 0.0
1.06851 -0.0199724 0.0
1.39858 -0.567395 0.0
1.13795 0.0844417 0.0
1.00952 -0.0198558 0.0
1.1386 0.0678334 0.0
0.973543 0.00171457 0.0
0.748706 0.0286534 0.0
1.0992 0.0454432 0.0
1.32728 -0.160625 0.0
0.940336 -0.0919068 0.0
1.10516 -0.0398459 0.0
0.632729 -0.556718 0.0
1.10079 -0.026901 0.0
1.10871 -0.00498982 0.0
1.14307 -0.00564452 0.0
1.38983 -0.141406 0.0
1.0894 0.0602964 0.0
1.16521 -0.00259225 0.0
1.0598 -0.025878 0.0
1.16573 0.035974 0.0
0.995303 -0.0150042 0.0
1.35023 -0.771864 0.0
1.19785 0.00372348 0.0
1.17928 0.0518745 0.0
1.18034 0.00239499 0.0
1.12113 -0.000432531 0.0
1.18013 -0.057325 0.0
1.0679 0.0213763 0.0
1.20409 0.083061 0.0
1.11954 -0.00719986 0.0
1.16116 0.0441676 0.0
0.971848 0.00143338 0.0
1.13894 0.00867267 0.0
1.18065 -0.531728 0.0
0.649449 -0.00557985 0.0
0.671037 -0.0234962 0.0
0.94057 0.0277886 0.0
1.26686 0.121746 0.0
1.14503 -0.00515422 0.0
1.16914 -0.00494866 0.0
0.596089 0.0100756 0.0
1.18482 -0.00507259 0.0
0.333589 -0.124092 0.0
1.07782 -0.100245 0.0
0.584339 0.0074842 0.0
0.587728 -0.0123368 0.0
0.914135 0.0408035 0.0
1.14652 -0.00406288 0.0
0.863943 -0.174291 0.0
0.868275 -0.0229233 0.0
1.68891 -0.123822 0.0
0.937535 0.0378765 0.0
1.14256 -0.0103348 0.0
1.1434 -0.0119554 0.0
1.05036 0.00530709 0.0
1.19643 0.00288787 0.0
1.16312 0.0011298 0.0
1.18514 0.348187 0.0
0.609641 0.0175949 0.0
1.01299 0.00432732 0.0
1.36478 -0.0996475 0.0
0.553359 0.00640794 0.0
1.5809 0.560599 0.0
0.946135 -0.0422049 0.0
0.810753 -0.0269386 0.0
1.33707 0.0900007 0.0
0.794511 -0.0534459 0.0
0.960265 0.000662931 0.0
0.671424 -0.118271 0.0
1.15739 -0.0147271 0.0
0.880311 0.0993227 0.0
1.14246 -0.013378 0.0
0.673696 -0.0037547 0.0
1.02426 0.00335053 0.0
0.988889 0.137892 0.0
1.41065 -0.0343768 0.0
0.538275 -0.00293879 0.0
0.649495 -0.0237607 0.0
0.918782 0.805328 0.0
1.10794 -0.00122211 0.0
1.0487 0.0121567 0.0
1.39067 0.0124919 0.0
0.592123 -0.010523 0.0
1.12875 0.0143016 0.0
1.16677 -0.448693 0.0
0.186473 0.0223864 0.0
0.936092 -0.0632993 0.0
1.07542 -0.0843157 0.0
0.726668 0.024452 0.0
0.531054 0.0189841 0.0
1.64816 0.0347078 0.0
1.14744 -0.00578221 0.0
0.311487 0.015226 0.0
0.58466 0.0261857 0.0
1.13846 -0.00320062 0.0
1.1862 -0.00543429 0.0
1.00675 -0.0153479 0.0
0.950836 0.0636096 0.0
1.20874 0.172094 0.0
0.629577 0.0105095 0.0
1.18107 0.00709168 0.0
0.931127 0.0936832 0.0
1.18726 -0.00563878 0.0
1.3882 -0.593442 0.0
0.544868 -0.000291718 0.0
1.45771 -0.13216 0.0
1.10787 0.00451237 0.0
0.965615 -0.0120764 0.0
0.62135 0.0902455 0.0
1.00066 0.10367 0.0
0.897447 0.1398 0.0
1.11015 0.00607854 0.0
1.21104 -0.0591647 0.0
1.39922 -0.0369894 0.0
0.585073 0.0033848 0.0
0.606333 0.0136668 0.0
1.07721 -0.00344665 0.0
0.404525 -0.0728734 0.0
1.04053 0.0370997 0.0
0.512692 0.00369784 0.0
0.975908 -0.0111464 0.0
1.10835 -0.00426057 0.0
0.95826 -0.00826947 0.0
0.562635 -0.00473759 0.0
0.564598 0.019652 0.0
0.585288 0.00804648 0.0
0.557368 0.00695446 0.0
0.601441 0.00911585 0.0
1.21077 0.669443 0.0
1.35963 0.0686583 0.0
0.967601 -0.00196437 0.0
0.575626 0.00714969 0.0
0.58626 -0.0116402 0.0
0.689222 0.0254216 0.0
1.14888 -0.0484467 0.0
0.609185 0.000410868 0.0
1.605 -0.192627 0.0
1.29111 0.0971473 0.0
0.544073 -0.140435 0.0
1.34067 -0.0952971 0.0
1.52704 -0.466547 0.0
1.00739 0.00204202 0.0
1.09037 0.0153625 0.0
1.14677 -0.0112827 0.0
0.974605 0.000561994 0.0
0.837191 -0.689396 0.0
1.02006 0.0006229 0.0
0.981928 -0.00433902 0.0
1.18344 -0.00936059 0.0
1.11317 -0.0335657 0.0
1.64731 -0.00201592 0.0
-0.116785 0.099871 0.0
0.515789 -0.0694224 0.0
1.33622 0.518005 0.0
1.07776 -0.0108524 0.0
0.617822 -0.0101446 0.0
0.592786 -0.00430008 0.0
0.589772 -0.00479983 0.0
1.19587 0.0047275 0.0
0.640336 0.213765 0.0
1.171 -0.0228404 0.0
0.983326 0.00956372 0.0
0.757723 0.165944 0.0
1.12229 -0.00323732 0.0
0.151178 -0.0120306 0.0
1.16972 0.00489097 0.0
0.586205 0.0196348 0.0
0.583707 -0.00926255 0.0
1.34216 0.0872612 0.0
0.862084 -0.00888045 0.0
1.50773 0.0336616 0.0
0.982528 0.0119912 0.0
0.999482 0.00815234 0.0
0.120282 -0.166139 0.0
0.983558 0.0254924 0.0
1.16721 0.00989849 0.0
1.14993 0.00968137 0.0
0.359888 -0.138202 0.0
1.61747 -0.272846 0.0
1.08862 0.00113693 0.0
1.28984 0.197918 0.0
0.611916 -0.0124467 0.0
0.582572 -0.00622604 0.0
1.12119 -0.0170448 0.0
0.542156 0.0910721 0.0
1.13095 -0.0262431 0.0
0.801296 0.0226681 0.0
0.940276 -0.0105758 0.0
1.12843 0.00854121 0.0
1.00893 -0.00393838 0.0
0.201876 -0.0208979 0.0
1.1379 -0.0100639 0.0
0.311878 0.0598389 0.0
1.02046 -0.00251956 0.0
1.01253 -0.0034426 0.0
0.595006 -0.0154356 0.0
1.06347 -0.00617107 0.0
1.17069 -0.0226474 0.0
0.963778 -0.000581216 0.0
0.995362 -0.0106431 0.0
1.20049 -0.964788 0.0
1.12802 0.0193364 0.0
1.69282 0.486432 0.0
0.585667 -0.014099 0.0
0.579438 0.00662227 0.0
1.16069 0.0028073 0.0
1.2044 -0.00485246 0.0
1.1068 -0.00572167 0.0
1.11659 0.000748198 0.0
1.171 0.00294264 0.0
1.12783 0.00225357 0.0
1.19588 -0.00657329 0.0
1.14824 0.0246667 0.0
-0.193453 0.0185895 0.0
1.09696 0.0126243 0.0
-0.0153774 0.0351551 0.0
0.655887 -0.0266519 0.0
1.20566 -0.17978 0.0
1.13721 -0.00766657 0.0
1.36705 -0.140002 0.0
1.6466 -0.502098 0.0
0.31425 -0.0181063 0.0
1.18983 -0.00546414 0.0
1.12891 0.271796 0.0
1.34664 -0.100014 0.0
1.0714 0.305563 0.0
1.70986 0.0854333 0.0
0.975377 -0.542596 0.0
1.37208 0.13226 0.0
1.12355 -0.016056 0.0
1.28977 -0.480985 0.0
-0.0821213 -0.110841 0.0
1.0534 0.00218723 0.0
1.31875 -0.394697 0.0
0.52734 -0.00459262 0.0
1.41815 -0.149232 0.0
1.68444 0.197362 0.0
1.08975 0.009478 0.0
0.44316 0.0139612 0.0
0.71707 0.00168004 0.0
0.267918 -0.228647 0.0
0.952307 0.0465438 0.0
-0.113532 -0.0322317 0.0
1.14826 -0.164388 0.0
1.49476 0.146417 0.0
0.533544 0.00813128 0.0
1.22747 -0.06998 0.0
0.980369 -0.00022905 0.0
1.18882 0.00392583 0.0
0.435229 -0.615723 0.0
1.22866 0.264256 0.0
0.734155 -0.163854 0.0
0.191384 -0.331105 0.0
0.52533 0.160974 0.0
1.30261 0.238384 0.0
0.602998 0.154196 0.0
0.965556 -0.0102738 0.0
1.13051 -0.0125851 0.0
1.07827 0.00774169 0.0
1.06725 0.00776457 0.0
0.58988 0.00759364 0.0
0.0294648 0.0824744 0.0
1.30833 0.299666 0.0
0.475303 -0.000961578 0.0
1.10012 0.00613387 0.0
0.264418 0.216114 0.0