# vtk DataFile Version 3.0
Malha 2D com triângulos e temperatura
ASCII
DATASET UNSTRUCTURED_GRID

POINTS 688 double
0 0 0
2.2 0 0
2.2 0.41 0
0 0.41 0
0.25 0.2 0
0.05 0 0
0.1 0 0
0.15 0 0
0.2 0 0
0.25 0 0
0.3 0 0
0.35 0 0
0.4 0 0
0.45 0 0
0.5 0 0
0.55 0 0
0.6 0 0
0.65 0 0
0.7 0 0
0.75 0 0
0.8 0 0
0.85 0 0
0.9 0 0
0.95 0 0
1 0 0
1.05 0 0
1.1 0 0
1.15 0 0
1.2 0 0
1.25 0 0
1.3 0 0
1.35 0 0
1.4 0 0
1.45 0 0
1.5 0 0
1.55 0 0
1.6 0 0
1.65 0 0
1.7 0 0
1.75 0 0
1.8 0 0
1.85 0 0
1.9 0 0
1.95 0 0
2 0 0
2.05 0 0
2.1 0 0
2.15 0 0
2.2 0.0455556 0
2.2 0.0911111 0
2.2 0.136667 0
2.2 0.182222 0
2.2 0.227778 0
2.2 0.273333 0
2.2 0.318889 0
2.2 0.364444 0
2.15 0.41 0
2.1 0.41 0
2.05 0.41 0
2 0.41 0
1.95 0.41 0
1.9 0.41 0
1.85 0.41 0
1.8 0.41 0
1.75 0.41 0
1.7 0.41 0
1.65 0.41 0
1.6 0.41 0
1.55 0.41 0
1.5 0.41 0
1.45 0.41 0
1.4 0.41 0
1.35 0.41 0
1.3 0.41 0
1.25 0.41 0
1.2 0.41 0
1.15 0.41 0
1.1 0.41 0
1.05 0.41 0
1 0.41 0
0.95 0.41 0
0.9 0.41 0
0.85 0.41 0
0.8 0.41 0
0.75 0.41 0
0.7 0.41 0
0.65 0.41 0
0.6 0.41 0
0.55 0.41 0
0.5 0.41 0
0.45 0.41 0
0.4 0.41 0
0.35 0.41 0
0.3 0.41 0
0.25 0.41 0
0.2 0.41 0
0.15 0.41 0
0.1 0.41 0
0.05 0.41 0
0 0.364444 0
0 0.318889 0
0 0.273333 0
0 0.227778 0
0 0.182222 0
0 0.136667 0
0 0.0911111 0
0 0.0455556 0
0.248831 0.210749 0
0.245379 0.220994 0
0.239805 0.230259 0
0.232369 0.238108 0
0.22342 0.244176 0
0.213376 0.248177 0
0.202707 0.249927 0
0.191911 0.249341 0
0.181493 0.246449 0
0.171941 0.241384 0
0.1637 0.234385 0
0.157157 0.225778 0
0.152617 0.215965 0
0.150293 0.205406 0
0.150293 0.194594 0
0.152617 0.184035 0
0.157157 0.174222 0
0.1637 0.165615 0
0.171941 0.158616 0
0.181493 0.153551 0
0.191911 0.150659 0
0.202707 0.150073 0
0.213376 0.151823 0
0.22342 0.155824 0
0.232369 0.161892 0
0.239805 0.169741 0
0.245379 0.179006 0
0.248831 0.189251 0
0.421316 0.36725 0
0.426705 0.0366526 0
2.16065 0.209201 0
1.52286 0.0417259 0
0.626017 0.37111 0
1.3257 0.0414552 0
1.02471 0.0432237 0
1.17293 0.0421053 0
0.82501 0.36678 0
1.6757 0.370064 0
1.91628 0.0358195 0
1.82501 0.366432 0
0.723429 0.0421499 0
1.425 0.366699 0
1.97461 0.366224 0
1.12167 0.370137 0
0.975 0.368691 0
0.877672 0.0412714 0
1.27686 0.36884 0
1.725 0.0433013 0
0.579174 0.0416211 0
0.325589 0.363848 0
0.319111 0.0378151 0
0.0394523 0.296111 0
0.0329929 0.11602 0
0.142108 0.187428 0
1.57555 0.364352 0
2.02603 0.0412138 0
0.725007 0.36763 0
0.528647 0.366595 0
1.62699 0.0400272 0
1.82929 0.0421255 0
1.425 0.0418325 0
2.07474 0.364233 0
0.125 0.0433013 0
0.161245 0.155011 0
0.225 0.366699 0
0.210027 0.258536 0
2.16034 0.115449 0
0.0371627 0.204103 0
0.142311 0.212698 0
0.220283 0.0418538 0
0.221965 0.145099 0
0.196802 0.141016 0
0.119851 0.373394 0
0.161112 0.245979 0
0.184892 0.258024 0
2.16342 0.30039 0
2.12627 0.047699 0
0.183325 0.0412617 0
0.152317 0.0762976 0
0.203864 0.0745802 0
0.234384 0.0774346 0
0.215969 0.103585 0
0.245651 0.104548 0
0.186562 0.100216 0
0.268213 0.0793029 0
0.272149 0.109155 0
0.242885 0.159377 0
0.253088 0.128261 0
0.278718 0.13214 0
0.295917 0.115997 0
0.301728 0.138858 0
0.321266 0.12205 0
0.324642 0.151724 0
0.255978 0.181139 0
0.350123 0.129049 0
0.357539 0.159885 0
0.333541 0.181416 0
0.36451 0.19182 0
0.250573 0.230419 0
0.391277 0.169722 0
0.339477 0.212308 0
0.39836 0.205386 0
0.427326 0.18117 0
0.258724 0.206387 0
0.434392 0.219501 0
0.466446 0.193907 0
0.472865 0.243064 0
0.507358 0.209962 0
0.40073 0.238916 0
0.499135 0.1652 0
0.5419 0.179224 0
0.550176 0.22496 0
0.585844 0.194129 0
0.594095 0.240176 0
0.630701 0.209517 0
0.621901 0.162424 0
0.667731 0.178095 0
0.676485 0.226008 0
0.713906 0.194492 0
0.722681 0.242872 0
0.760442 0.211047 0
0.751547 0.162356 0
0.798298 0.179 0
0.807147 0.227866 0
0.845136 0.195775 0
0.854541 0.243285 0
0.892163 0.212344 0
0.902461 0.257947 0
0.93935 0.228684 0
0.930236 0.180167 0
0.977229 0.197066 0
0.986264 0.245777 0
1.02423 0.213991 0
1.0331 0.263172 0
1.07123 0.230975 0
1.06234 0.181814 0
1.10938 0.198721 0
1.09996 0.151012 0
1.14691 0.168161 0
1.15631 0.215921 0
1.19446 0.183678 0
1.20343 0.232645 0
1.2416 0.200322 0
1.23272 0.151117 0
1.2798 0.167954 0
1.28868 0.217167 0
1.32685 0.184862 0
1.33573 0.234064 0
1.3739 0.201768 0
0.789327 0.130094 0
1.38279 0.25097 0
1.42096 0.218674 0
1.41207 0.169471 0
1.45912 0.186378 0
1.46801 0.235581 0
1.50618 0.203285 0
1.51506 0.252489 0
1.55323 0.220192 0
1.54435 0.170989 0
1.5914 0.187896 0
1.60029 0.2371 0
1.63846 0.204803 0
1.64734 0.254007 0
1.68551 0.221711 0
1.67663 0.172507 0
1.72368 0.189415 0
1.73831 0.241548 0
1.77074 0.206322 0
1.76185 0.157121 0
1.8091 0.17428 0
1.81866 0.220885 0
1.85608 0.190621 0
1.86521 0.238879 0
1.90289 0.207671 0
1.91264 0.253772 0
1.94955 0.224093 0
1.94067 0.17593 0
1.98705 0.192828 0
1.99572 0.240997 0
2.0329 0.209382 0
2.02422 0.16161 0
2.04166 0.257286 0
0.419739 0.142889 0
0.968291 0.148058 0
0.310035 0.202211 0
0.316128 0.230863 0
0.658501 0.130052 0
0.685107 0.27445 0
1.34462 0.283266 0
1.16528 0.264896 0
1.84735 0.142081 0
0.557687 0.270604 0
1.21234 0.281769 0
1.58252 0.138692 0
0.533563 0.131933 0
0.489835 0.120004 0
1.45024 0.137174 0
2.06974 0.17785 0
2.06113 0.130713 0
0.283221 0.152215 0
0.921299 0.131169 0
0.343836 0.24295 0
0.319203 0.260002 0
0.235529 0.249617 0
0.347029 0.274099 0
0.291856 0.246297 0
0.295938 0.27548 0
0.272836 0.264931 0
0.27461 0.290522 0
0.251228 0.280224 0
0.253903 0.305808 0
0.232795 0.296709 0
0.298805 0.304058 0
1.0801 0.280176 0
1.47689 0.284785 0
1.05315 0.133468 0
1.09741 0.0970974 0
1.82427 0.272867 0
1.2701 0.118911 0
0.816337 0.277695 0
1.40432 0.121101 0
1.04244 0.320388 0
0.959305 0.103028 0
1.60923 0.286151 0
0.601674 0.286775 0
2.00739 0.280923 0
0.342592 0.0992796 0
0.375237 0.105729 0
1.52511 0.298716 0
1.53114 0.119823 0
0.733824 0.287256 0
0.613372 0.114719 0
0.645558 0.0838585 0
2.015 0.115858 0
1.22718 0.0994086 0
1.39166 0.29817 0
1.3564 0.329754 0
0.744134 0.11556 0
0.782853 0.0841771 0
0.826899 0.10047 0
1.17418 0.314034 0
0.520902 0.0906676 0
1.4967 0.329429 0
1.26048 0.0740437 0
0.365514 0.0716355 0
0.229836 0.121666 0
1.57453 0.09137 0
1.61938 0.110761 0
0.481716 0.0753791 0
0.14093 0.2 0
0.130041 0.192847 0
0.131507 0.178608 0
0.117165 0.184444 0
0.120761 0.164701 0
0.1156 0.199931 0
0.100804 0.174136 0
0.102545 0.153034 0
0.12169 0.143342 0
0.104604 0.13008 0
0.0809304 0.161171 0
0.128077 0.121858 0
0.106825 0.102278 0
0.082498 0.188728 0
0.0314738 0.158621 0
2.04625 0.310891 0
2.08475 0.27479 0
2.11394 0.138117 0
0.233149 0.151108 0
0.258724 0.193613 0
0.268522 0.184917 0
1.65397 0.301059 0
0.145962 0.224912 0
0.132503 0.222267 0
0.13746 0.236947 0
0.120111 0.233525 0
0.126593 0.25219 0
0.105294 0.247497 0
0.113343 0.26868 0
0.133997 0.271734 0
0.121622 0.292031 0
0.147069 0.292141 0
0.0896563 0.267464 0
0.0813699 0.243294 0
0.163574 0.276939 0
0.172694 0.298517 0
0.1583 0.321483 0
0.186823 0.322499 0
0.173113 0.348195 0
0.0322087 0.250839 0
0.211694 0.124337 0
0.250615 0.169546 0
0.256243 0.157787 0
0.170796 0.14736 0
0.156755 0.141654 0
0.17187 0.131161 0
0.147502 0.152323 0
0.198129 0.260662 0
0.206368 0.271663 0
0.220945 0.26864 0
0.190489 0.270628 0
0.198813 0.286731 0
0.55749 0.322277 0
0.520166 0.299321 0
0.235199 0.330709 0
0.267109 0.337524 0
0.172324 0.25256 0
0.255974 0.218859 0
0.268327 0.214994 0
0.184197 0.143083 0
0.188721 0.129954 0
0.209694 0.139146 0
0.269223 0.244007 0
0.252374 0.255244 0
0.282229 0.0410487 0
1.21977 0.330016 0
1.25733 0.296346 0
2.09358 0.0890819 0
0.244373 0.240984 0
0.0838116 0.115786 0
0.0797544 0.0817835 0
0.237449 0.264854 0
0.247178 0.146225 0
0.270136 0.2 0
0.28023 0.191334 0
0.263476 0.170737 0
0.371486 0.368728 0
0.396124 0.330051 0
0.440314 0.325693 0
0.357693 0.329668 0
0.476576 0.362035 0
0.29587 0.222914 0
0.307627 0.175476 0
0.079599 0.0406461 0
0.146062 0.252571 0
0.15162 0.125025 0
0.417223 0.294608 0
0.457089 0.286958 0
0.036619 0.338729 0
0.0713014 0.322193 0
0.0735823 0.36704 0
0.041143 0.0722223 0
0.693501 0.32349 0
0.145406 0.175484 0
0.138777 0.164467 0
0.300367 0.0698839 0
0.167025 0.112083 0
0.146978 0.105544 0
0.151909 0.236762 0
0.444611 0.106436 0
0.909355 0.0817561 0
0.282901 0.370713 0
1.61474 0.330739 0
0.578053 0.368179 0
0.824695 0.0487848 0
2.09634 0.3213 0
2.02276 0.364865 0
2.12532 0.363702 0
1.09789 0.328757 0
0.161137 0.260089 0
2.07793 0.225752 0
2.12079 0.240944 0
2.0747 0.0437362 0
1.89402 0.158846 0
1.93154 0.128738 0
1.8848 0.111477 0
1.8384 0.0926484 0
1.87744 0.0655304 0
1.7913 0.0793874 0
1.9712 0.046671 0
1.92502 0.366682 0
1.94563 0.325156 0
1.89941 0.326645 0
1.87499 0.367178 0
1.84989 0.323491 0
1.7997 0.321303 0
1.77183 0.280326 0
1.75031 0.321965 0
1.77491 0.365615 0
2.11727 0.191885 0
0.883187 0.163467 0
1.71449 0.140266 0
1.667 0.125342 0
1.70591 0.0884759 0
1.67732 0.042286 0
1.52278 0.370513 0
1.37512 0.04128 0
1.34848 0.0834574 0
0.776093 0.367587 0
1.125 0.0433013 0
1.15 0.0866019 0
1.07442 0.0496847 0
0.974527 0.0370837 0
1.47464 0.0427918 0
1.44953 0.0873752 0
1.17595 0.362984 0
1.025 0.366699 0
0.925007 0.367031 0
0.95 0.323404 0
0.897321 0.326356 0
0.874563 0.367261 0
0.846552 0.324465 0
1.62923 0.156667 0
1.32319 0.13033 0
1.69342 0.270472 0
1.49568 0.156227 0
1.56237 0.268721 0
1.44 0.319169 0
1.43005 0.267892 0
1.36502 0.152565 0
0.993446 0.294003 0
1.30179 0.321101 0
1.18235 0.127964 0
1.25016 0.2491 0
1.29638 0.266841 0
1.11824 0.247967 0
1.12945 0.294699 0
1.01527 0.165035 0
0.836192 0.147197 0
1.4998 0.0831488 0
1.00655 0.118664 0
0.872896 0.117126 0
0.70523 0.146383 0
1.96013 0.276645 0
0.769406 0.257102 0
0.699552 0.0908977 0
2.1587 0.162257 0
1.97813 0.145326 0
0.646036 0.302035 0
0.799423 0.326603 0
0.515621 0.255445 0
1.72538 0.366474 0
1.97009 0.0998346 0
1.57108 0.313772 0
0.577925 0.14549 0
0.638911 0.256447 0
0.407352 0.0771641 0
0.525103 0.042511 0
0.674231 0.370698 0
1.69802 0.321701 0
0.56947 0.0908728 0
1.75459 0.110239 0
1.80084 0.126127 0
0.673535 0.0431435 0
1.57391 0.0465733 0
2.04571 0.0828469 0
0.10002 0.225545 0
0.0788152 0.21577 0
0.369719 0.224393 0
0.210352 0.308739 0
1.22342 0.0432967 0
[...]
CELL_DATA 1241
VECTORS velocity double
1.02426 -0.00367602 0.0
1.21317 0.0679889 0.0
0.483222 -0.00024991 0.0
0.959717 0.00370342 0.0
1.03721 0.00776643 0.0
1.4223 0.102504 0.0
1.12998 4.80768e-06 0.0
0.991668 -0.000894875 0.0
0.364586 0.0154575 0.0
1.16587 0.00167179 0.0
1.31247 -0.119987 0.0
1.31627 0.126503 0.0
0.865763 -0.160573 0.0
1.0135 0.00592611 0.0
0.98937 0.00742637 0.0
1.46552 -0.0321061 0.0
0.978423 0.00183267 0.0
0.479535 0.0603419 0.0
1.168 0.0636702 0.0
1.64773 -0.253674 0.0
1.02899 0.00616109 0.0
1.05882 -0.0660944 0.0
1.03099 0.00187855 0.0
1.25318 0.904846 0.0
1.07218 -0.00165728 0.0
1.03246 0.00418566 0.0
1.29879 -0.199133 0.0
1.07563 -0.0251318 0.0
1.32175 -0.0836671 0.0
1.4617 -0.0642315 0.0
1.33199 0.0902268 0.0
0.863125 -0.0373823 0.0
1.51917 0.00165304 0.0
1.01211 0.00438043 0.0
1.25259 -0.0576939 0.0
1.3585 0.156467 0.0
1.20806 -0.0563531 0.0
1.05042 -0.167816 0.0
0.359534 0.0204834 0.0
1.38175 0.140824 0.0
1.76493 -0.179133 0.0
1.41422 -0.0447842 0.0
1.05282 -0.237082 0.0
0.538658 0.00695495 0.0
1.39894 -0.166762 0.0
0.532013 -0.00392896 0.0
1.20307 0.100331 0.0
1.10949 0.0263172 0.0
1.6131 -0.312682 0.0
1.24084 -0.0113511 0.0
1.19436 0.00106976 0.0
1.2909 -0.417433 0.0
0.870694 -0.00401683 0.0
1.40598 -0.0834583 0.0
1.77566 -0.279087 0.0
1.51768 -0.029859 0.0
1.14473 -0.040572 0.0
1.12268 -0.000337023 0.0
1.6591 -0.0983965 0.0
1.6878 -0.198675 0.0
1.15861 0.847239 0.0
1.00431 9.74866e-05 0.0
0.197369 0.0346355 0.0
1.03418 0.00819617 0.0
-0.240968 0.0711622 0.0
1.33193 0.227511 0.0
-0.278114 0.087248 0.0
1.15483 0.000792649 0.0
0.858611 -0.0262819 0.0
0.220225 0.0250584 0.0
1.15569 -0.00253704 0.0
0.794651 0.0135914 0.0
1.15489 -0.00191462 0.0
0.793407 -0.0148503 0.0
1.18596 0.00725062 0.0
0.881261 0.157016 0.0
0.946625 0.00491848 0.0
1.63211 -0.0456124 0.0
0.976623 -0.0350488 0.0
0.613995 0.000338974 0.0
1.75222 -0.382611 0.0
1.15965 -0.246555 0.0
0.650525 0.0113579 0.0
1.26134 -0.227074 0.0
1.34582 0.170014 0.0
0.919094 -0.0665738 0.0
1.20944 0.179551 0.0
0.0891153 0.0995889 0.0
1.83912 0.530049 0.0
1.17404 0.00364954 0.0
1.27326 0.0095189 0.0
-0.188124 -0.011303 0.0
-0.347417 0.0791311 0.0
1.44105 -0.0657409 0.0
1.18132 -0.0415236 0.0
0.996233 0.0011719 0.0
0.851035 -0.0266565 0.0
-0.184756 0.0907009 0.0
1.01361 -0.00923159 0.0
-0.242146 0.11417 0.0
1.08214 -0.0985515 0.0
1.14869 -0.0111664 0.0
0.950451 5.30317e-05 0.0
1.63999 -0.160822 0.0
1.74279 -0.670594 0.0
1.27322 -0.397855 0.0
1.07279 -0.0632184 0.0
0.499922 -0.0228935 0.0
1.78839 0.649526 0.0
1.2019 0.00317559 0.0
1.48426 -0.11075 0.0
1.23321 0.191041 0.0
0.132466 0.0753978 0.0
1.44147 -0.0270163 0.0
1.07884 0.0151899 0.0
1.44263 0.0400664 0.0
1.41287 0.00554991 0.0
1.39094 0.0521567 0.0
1.0598 -0.000105338 0.0
0.257821 0.0408866 0.0
1.1911 0.0417368 0.0
1.51975 0.581628 0.0
1.25188 0.1098 0.0
0.919527 -0.0633696 0.0
0.728983 -0.100378 0.0
1.20649 0.0873277 0.0
1.44508 -0.0439297 0.0
1.11274 0.0247966 0.0
1.75009 0.501261 0.0
0.549852 -0.0712996 0.0
1.15467 -0.0116176 0.0
0.613732 -0.00188506 0.0
0.88533 0.0637309 0.0
1.60272 -0.0205569 0.0
1.02179 -0.154453 0.0
-0.275509 0.0746016 0.0
0.12378 0.0612283 0.0
1.22248 0.0834667 0.0
1.04646 -0.0255971 0.0
1.6642 -0.761322 0.0
1.50088 0.00356199 0.0
1.03478 0.00295007 0.0
1.07832 -0.244944 0.0
1.00333 0.00730164 0.0
1.52453 0.00817107 0.0
0.0252189 0.0318646 0.0
-0.25413 0.0374779 0.0
-0.180463 0.00633381 0.0
0.643811 0.014003 0.0
0.653293 -0.0129225 0.0
0.555304 -0.101501 0.0
1.03308 -0.00745717 0.0
1.79672 -0.332185 0.0
1.05006 -0.154655 0.0
1.20282 -0.0491829 0.0
1.20456 0.0544068 0.0
0.521224 6.18134e-06 0.0
1.64308 0.0728434 0.0
0.858813 0.0311908 0.0
1.24391 -0.0579447 0.0
-0.230733 0.0480024 0.0
1.74059 0.446087 0.0
1.13995 0.0049578 0.0
1.22205 -0.204898 0.0
1.1376 0.0348482 0.0
1.05421 0.130206 0.0
0.992875 -0.00166229 0.0
0.987085 0.109784 0.0
0.577335 -0.00277447 0.0
1.17103 -0.0340843 0.0
0.924868 -0.0252429 0.0
1.20937 0.00368364 0.0
1.36534 0.265198 0.0
1.18626 0.087831 0.0
1.10367 0.0025248 0.0
1.11467 0.00332765 0.0
1.18233 0.198396 0.0
1.12012 -0.287544 0.0
1.11226 0.00844077 0.0
1.16592 -0.225096 0.0
1.11799 0.00606196 0.0
0.364747 0.109513 0.0
1.08778 -0.644446 0.0
0.730488 -0.127047 0.0
1.0201 -0.00650005 0.0
0.765579 -0.0789228 0.0
0.762028 -0.0635932 0.0
1.02724 0.00460986 0.0
1.05544 0.0958972 0.0
0.460948 0.0469921 0.0
0.889708 -0.830017 0.0
1.77874 0.344543 0.0
1.02735 -0.00183711 0.0
0.979588 0.00818259 0.0
0.667145 0.0601424 0.0
0.85457 0.0578757 0.0
0.397714 0.0589853 0.0
1.00947 -0.0138123 0.0
1.42771 -0.032231 0.0
1.44971 0.581292 0.0
1.15457 0.193054 0.0
1.06764 -0.0140078 0.0
1.42685 0.0383911 0.0
1.04307 -0.0936745 0.0
1.39825 -0.0926978 0.0
1.43601 -0.0447135 0.0
0.484717 0.0249246 0.0
0.653704 0.0129543 0.0
0.896462 -0.0232383 0.0
0.854144 0.0338767 0.0
0.553493 0.0161787 0.0
0.53591 -0.00212018 0.0
1.79023 0.285879 0.0
1.11045 0.00803984 0.0
1.4416 -0.00456184 0.0
1.11927 0.00870688 0.0
0.737443 -0.078329 0.0
1.51037 -0.0921903 0.0
1.17531 -0.0304426 0.0
1.15265 -0.00955194 0.0
0.833098 -0.0495782 0.0
1.67138 -0.0695608 0.0
1.00942 0.0550859 0.0
0.997445 0.0121064 0.0
0.956143 -0.0265256 0.0
1.20835 0.00290868 0.0
1.43424 -0.13889 0.0
1.73014 -0.600709 0.0
1.17403 -0.00583596 0.0
1.18726 -0.00842497 0.0
1.0012 -0.00143133 0.0
1.06355 -0.132767 0.0
1.02437 -0.00819029 0.0
0.994197 -0.00507074 0.0
1.25845 0.310839 0.0
1.0383 -0.256555 0.0
1.09777 0.173161 0.0
1.31781 0.133858 0.0
0.748462 -0.107678 0.0
0.355064 -0.0454484 0.0
0.957722 0.0156981 0.0
1.43871 0.0569951 0.0
1.42215 0.918262 0.0
0.682938 -0.085173 0.0
1.14223 -0.0136994 0.0
1.70451 0.1395 0.0
1.09705 -0.898663 0.0
0.868429 -0.177584 0.0
1.13518 -0.0380897 0.0
0.582182 -0.00730433 0.0
1.02531 0.0268054 0.0
0.56836 -0.00888136 0.0
1.03039 -0.00293545 0.0
1.20226 0.00381376 0.0
0.641397 -0.0116743 0.0
0.770174 -0.0340708 0.0
1.09486 -0.285434 0.0
1.32431 -0.106059 0.0
1.20061 0.00187951 0.0
1.01435 -0.00279729 0.0
1.01321 0.00947123 0.0
0.531598 -0.005132 0.0
1.20244 0.00562649 0.0
0.730066 -0.0264145 0.0
1.12205 0.0442846 0.0
1.00504 -0.00877979 0.0
0.587256 0.00390226 0.0
1.241 -0.111118 0.0
1.22832 -0.172662 0.0
0.783428 -0.027005 0.0
1.14194 -0.0662483 0.0
0.608377 0.00120779 0.0
0.988905 -0.0127877 0.0
0.118405 0.068547 0.0
1.18478 0.000154029 0.0
1.18276 -0.00790211 0.0
0.618703 -0.00400323 0.0
0.944263 -0.195454 0.0
0.989762 -0.0128253 0.0
1.42916 0.156259 0.0
1.18026 0.00259834 0.0
1.20971 3.13115e-05 0.0
1.22357 -0.170781 0.0
1.21182 -0.0015485 0.0
1.20988 0.00134444 0.0
1.17008 -0.01542 0.0
0.939081 -0.115429 0.0
0.835802 0.0428573 0.0
1.21296 -0.00376734 0.0
1.20876 0.000124993 0.0
1.20566 -0.00124743 0.0
0.634613 0.0704241 0.0
0.495444 0.00499815 0.0
0.993347 0.00847856 0.0
0.570359 -0.00727869 0.0
1.21156 -0.00366359 0.0
1.00603 -0.0149746 0.0
1.14987 0.0106098 0.0
-0.259678 -0.027284 0.0
0.980208 -0.00860363 0.0
0.531041 -0.00316785 0.0
1.31927 -0.604814 0.0
1.12014 -0.00712522 0.0
0.97927 -0.0132197 0.0
0.551301 -0.00917906 0.0
1.2107 -0.00181371 0.0
0.864306 0.0411925 0.0
0.557497 0.00153759 0.0
0.998774 -0.0122619 0.0
1.21219 -0.00426946 0.0
1.20514 -0.00190145 0.0
1.2083 -0.00153013 0.0
0.644228 -0.00598348 0.0
0.47805 0.00132727 0.0
1.21084 -0.00535302 0.0
1.14356 -0.0744064 0.0
1.19032 -0.00639667 0.0
0.626561 0.00966707 0.0
1.17437 -0.00745925 0.0
1.20293 -0.00331288 0.0
1.192 0.0011886 0.0
1.21485 -0.0055072 0.0
0.494232 -0.00590011 0.0
1.20978 -0.00517744 0.0
1.20972 -0.0045431 0.0
1.20359 -0.00595868 0.0
0.485863 -0.00302249 0.0
1.19636 -0.000849962 0.0
1.1728 -0.00530943 0.0
1.18471 -0.000796081 0.0
1.21308 -0.00562529 0.0
1.17163 -0.159202 0.0
1.12482 0.00118673 0.0
1.21485 -0.00610671 0.0
1.35095 0.668429 0.0
1.20164 -0.00556119 0.0
0.537502 -0.00621563 0.0
1.08992 -0.0213155 0.0
0.587953 0.00808876 0.0
0.587235 -0.00875966 0.0
1.12733 0.00637325 0.0
1.08955 -0.010973 0.0
1.0638 -0.00595084 0.0
0.526049 -0.0075911 0.0
1.09547 -0.0207704 0.0
1.13416 0.00496536 0.0
1.21282 -0.00648592 0.0
1.07809 0.140558 0.0
1.15535 -0.696953 0.0
0.55865 -0.00344145 0.0
0.515921 -0.00476517 0.0
1.20943 -0.00518924 0.0
1.21097 -0.00676852 0.0
0.61775 -0.0198633 0.0
0.506075 -0.0101951 0.0
1.20745 -0.004574 0.0
0.991433 0.0136648 0.0
1.16453 0.00926054 0.0
1.14992 -0.00572332 0.0
0.56465 0.00854449 0.0
0.516915 -0.00148843 0.0
1.14829 0.0161291 0.0
0.607843 0.0125441 0.0
0.572709 0.0135323 0.0
1.17336 0.00642711 0.0
0.622408 0.0208593 0.0
0.575577 -0.000102304 0.0
1.20018 -0.00444816 0.0
1.18987 -0.00417792 0.0
0.967506 0.0137549 0.0
1.19884 -0.00316954 0.0
1.17394 -0.00351136 0.0
1.20511 -0.00376268 0.0
0.990369 0.00934961 0.0
1.14652 -0.00369516 0.0
0.621509 0.006443 0.0
0.517339 0.0138124 0.0
0.568213 0.0125667 0.0
0.49118 -0.00849908 0.0
0.554938 -0.000153851 0.0
0.572035 -0.00437109 0.0
0.535595 -0.00202144 0.0
0.631851 -0.0136076 0.0
0.570546 -0.00456743 0.0
0.588748 0.0121688 0.0
0.512922 -0.00662767 0.0
0.569244 0.015058 0.0
0.52523 -0.000171059 0.0
0.671839 0.0217004 0.0
0.569205 0.0101249 0.0
0.564031 -0.0113855 0.0
0.510145 0.00204982 0.0
0.540838 -0.00158712 0.0
0.525541 0.00697751 0.0
0.604051 -0.00939513 0.0
0.561829 -0.00161645 0.0
0.593177 -0.00765824 0.0
0.558019 -0.0131886 0.0
0.551268 0.0053795 0.0
0.536818 -0.000560841 0.0
0.558535 0.00259418 0.0
0.506008 -0.0159734 0.0
0.496087 0.019853 0.0
0.49047 0.00156987 0.0
0.548962 -0.00692378 0.0
0.515023 0.00346068 0.0
0.638933 -0.0213303 0.0
0.510913 0.00491964 0.0
0.493401 0.00462071 0.0
0.53571 0.0003701 0.0
0.513015 -0.00299922 0.0
1.17269 -0.00286052 0.0
1.1537 -0.00474221 0.0
1.20973 -0.00623763 0.0
1.20909 -0.00484095 0.0
1.21134 -0.00493404 0.0
1.11267 -0.00559962 0.0
1.18556 -0.00541331 0.0
1.16741 -0.00460409 0.0
1.1769 0.00196122 0.0
1.14954 -0.00349389 0.0
1.19574 -0.00631854 0.0
1.19753 -0.00681764 0.0
1.16389 -0.00470755 0.0
1.20664 -0.00365003 0.0
1.18651 -0.00244357 0.0
1.20604 -0.00511755 0.0
1.18238 -0.00575683 0.0
1.14775 -0.000677336 0.0
1.20328 -0.00533552 0.0
1.20876 -0.00407036 0.0
1.19683 -0.00242376 0.0
1.20704 -0.0041277 0.0
1.20204 -0.00513618 0.0
1.14925 -0.00734949 0.0
1.20844 -0.00253511 0.0
1.18815 -0.00246438 0.0
1.20631 -0.0020221 0.0
1.11415 2.10843e-05 0.0
1.18809 -0.00369933 0.0
1.18344 -0.000448366 0.0
1.20381 -0.00206306 0.0
1.16667 -0.00033921 0.0
1.20216 -0.00231261 0.0
1.20453 -0.00228468 0.0
1.17962 0.0015964 0.0
1.20638 -0.00197346 0.0
1.19608 -0.00328671 0.0
1.2012 -0.000909961 0.0
1.14746 -0.00669208 0.0
1.16795 -0.0011901 0.0
1.20343 -0.00108909 0.0
1.19429 -0.00270279 0.0
1.1941 -3.11159e-06 0.0
1.19172 0.00130252 0.0
1.16302 -0.0113839 0.0
1.20305 -0.000856984 0.0
1.20039 -0.000528407 0.0
1.13133 -0.00421376 0.0
1.18469 -0.00344941 0.0
1.11552 0.00445321 0.0
1.17216 -0.00315861 0.0
1.18363 -0.00311435 0.0
1.19397 -0.00326042 0.0
1.20078 -0.00150383 0.0
1.1686 -0.00327193 0.0
1.19683 -0.00308239 0.0
1.19775 -0.00124922 0.0
1.20069 -0.000352559 0.0
1.1959 0.00109172 0.0
1.19322 0.00139823 0.0
1.19303 0.00219044 0.0
1.1807 0.00344096 0.0
1.1307 -0.00447488 0.0
1.09257 0.00452496 0.0
1.1781 0.00457735 0.0
1.19743 4.72303e-05 0.0
0.570324 -0.00534567 0.0
1.18361 0.00334539 0.0
1.14646 0.00444599 0.0
1.16765 0.00493946 0.0
1.1962 0.0015718 0.0
1.16583 0.00475772 0.0
1.18087 0.00430244 0.0
1.17498 0.00024025 0.0
1.18867 0.00341966 0.0
1.17879 -0.000512702 0.0
1.12762 -0.00341653 0.0
1.1286 -0.00604007 0.0
1.1534 -0.0032936 0.0
1.18578 0.00461011 0.0
1.17353 -0.00325269 0.0
1.18609 0.00260619 0.0
1.16475 -0.00267905 0.0
1.17986 -0.00304709 0.0
1.18939 0.00198121 0.0
1.18427 0.00455424 0.0
0.990487 -0.0103193 0.0
1.16859 -0.00237012 0.0
1.17791 0.00594337 0.0
1.14404 0.00594214 0.0
1.18687 -0.00199931 0.0
1.19209 -8.40472e-05 0.0
1.07477 -0.0163753 0.0
1.16822 0.00881476 0.0
1.17699 -0.00275038 0.0
1.1466 0.011957 0.0
1.18844 -0.000241237 0.0
1.15207 0.0167522 0.0
1.16968 -0.00343384 0.0
1.18974 -0.00204067 0.0
1.17598 -0.000637903 0.0
1.11939 0.176501 0.0
1.14995 -0.00569526 0.0
1.20393 -0.00698855 0.0
1.17429 0.00766284 0.0
1.17851 0.00103891 0.0
1.15636 -0.0114645 0.0
1.16087 -0.00215194 0.0
1.13582 -0.00121403 0.0
1.15959 -0.00769951 0.0
1.17301 0.00203574 0.0
1.13778 0.000652202 0.0
1.16845 0.00175962 0.0
1.1663 -0.00556038 0.0
1.16288 -0.00155297 0.0
1.15504 0.0106226 0.0
1.16529 -0.00477125 0.0
0.712133 -0.0208073 0.0
0.981651 0.00238276 0.0
1.15072 0.0129251 0.0
1.1544 0.00817943 0.0
1.16046 -0.00708553 0.0
1.13997 0.00998931 0.0
1.14892 0.0122097 0.0
1.15282 -0.0024651 0.0
1.13682 0.000534767 0.0
1.14793 -0.00318391 0.0
1.14267 0.000550284 0.0
1.13026 0.0115096 0.0
1.16453 0.0046099 0.0
1.15878 0.00724646 0.0
1.00258 0.00593756 0.0
1.16029 0.0048211 0.0
1.15967 0.00946572 0.0
1.15097 0.00994764 0.0
1.12354 0.01461 0.0
1.13511 0.0138648 0.0
1.15696 0.0104052 0.0
1.73588 0.180907 0.0
1.12865 -0.0103363 0.0
1.1345 0.0189429 0.0
1.10731 -0.022355 0.0
1.14939 0.0213304 0.0
1.15194 0.0148906 0.0
1.12229 -0.0125596 0.0
1.14886 0.0212132 0.0
1.20261 -0.00391408 0.0
1.07401 -0.00829352 0.0
1.09434 0.0141854 0.0
1.10765 -0.00693828 0.0
1.30634 0.127623 0.0
1.19969 -0.00486116 0.0
1.07652 8.25542e-05 0.0
1.14925 -0.00698533 0.0
1.14505 0.0281981 0.0
1.14687 0.0221824 0.0
1.09999 -0.00840847 0.0
1.10122 -0.0273224 0.0
0.989428 -0.0124296 0.0
1.17744 0.000325218 0.0
1.0781 0.00060056 0.0
1.08804 6.17797e-05 0.0
1.12777 0.0243491 0.0
1.1126 -0.0261907 0.0
1.03033 0.198325 0.0
0.972796 -0.0129646 0.0
1.14111 0.0339118 0.0
0.44489 -0.165177 0.0
1.38045 0.133019 0.0
1.18155 -0.052975 0.0
1.07567 0.0103692 0.0
1.07537 0.0260616 0.0
1.06317 0.0365944 0.0
1.19829 -0.000183509 0.0
1.06284 0.0143714 0.0
1.0443 -0.0446319 0.0
1.30217 0.175897 0.0
1.0059 -0.143588 0.0
1.03883 -0.0582337 0.0
1.1532 -0.134491 0.0
1.14004 -0.010331 0.0
1.09983 -0.0485353 0.0
1.16909 -0.00312004 0.0
0.947221 0.00211266 0.0
1.18148 0.0550813 0.0
1.01913 -0.0139182 0.0
1.23817 -0.102983 0.0
1.19881 -0.00488759 0.0
1.18982 -0.00594379 0.0
1.06515 -0.0200993 0.0
1.3985 -0.567412 0.0
1.13652 0.0844243 0.0
1.0052 -0.0200173 0.0
1.1371 0.067892 0.0
0.968466 0.00172494 0.0
0.751808 0.0285888 0.0
1.09669 0.0456776 0.0
1.32727 -0.160605 0.0
0.937985 -0.0916502 0.0
1.1037 -0.0401158 0.0
0.632688 -0.556631 0.0
1.10309 -0.027792 0.0
1.11025 -0.00531787 0.0
1.14578 -0.00606021 0.0
1.39031 -0.140791 0.0
1.08693 0.0605673 0.0
1.16883 -0.00256919 0.0
1.05646 -0.0261358 0.0
1.16579 0.0366373 0.0
0.993047 -0.015499 0.0
1.35012 -0.771825 0.0
1.20413 0.0042415 0.0
1.17993 0.0523723 0.0
1.18502 0.00276316 0.0
1.1223 -0.000299041 0.0
1.18054 -0.0574659 0.0
1.0672 0.0209528 0.0
1.20646 0.0825234 0.0
1.12039 -0.00749676 0.0
1.16113 0.0447443 0.0
0.968487 0.00151745 0.0
1.14177 0.00960379 0.0
1.18059 -0.531683 0.0
0.651587 -0.00604003 0.0
0.673751 -0.0236271 0.0
0.935574 0.0276896 0.0
1.26685 0.121165 0.0
1.14707 -0.00549807 0.0
1.17242 -0.00512013 0.0
0.598712 0.010287 0.0
1.18908 -0.00533737 0.0
0.331806 -0.124006 0.0
1.07644 -0.100086 0.0
0.575908 0.00777863 0.0
0.579845 -0.0121121 0.0
0.909378 0.0407272 0.0
1.14934 -0.00447207 0.0
0.863943 -0.174307 0.0
0.863665 -0.0235825 0.0
1.6889 -0.124264 0.0
0.939004 0.0377016 0.0
1.14495 -0.0103985 0.0
1.14574 -0.0119803 0.0
1.05061 0.00605218 0.0
1.20245 0.00329852 0.0
1.1666 0.0013606 0.0
1.18513 0.348252 0.0
0.612765 0.0177551 0.0
1.01423 0.00395306 0.0
1.36636 -0.0991093 0.0
0.547371 0.00667735 0.0
1.58086 0.560726 0.0
0.942222 -0.0421732 0.0
0.805895 -0.02692 0.0
1.33859 0.0893416 0.0
0.790231 -0.0536784 0.0
0.958302 0.000366581 0.0
0.67052 -0.11758 0.0
1.15842 -0.0155053 0.0
0.880559 0.099438 0.0
1.14202 -0.013885 0.0
0.668529 -0.00396511 0.0
1.02541 0.00429912 0.0
0.986074 0.13735 0.0
1.41026 -0.0337843 0.0
0.532258 -0.00303984 0.0
0.644974 -0.0241321 0.0
0.918779 0.805386 0.0
1.1086 -0.00112562 0.0
1.0498 0.0119501 0.0
1.39132 0.0128664 0.0
0.594731 -0.0107382 0.0
1.13005 0.0153389 0.0
1.16672 -0.44865 0.0
0.186477 0.0223893 0.0
0.93255 -0.0634333 0.0
1.07385 -0.0841759 0.0
0.729625 0.0243302 0.0
0.526816 0.0184798 0.0
1.64848 0.0352721 0.0
1.14949 -0.00585454 0.0
0.311487 0.0152282 0.0
0.580068 0.0256517 0.0
1.14088 -0.00397836 0.0
1.19051 -0.00568551 0.0
1.00492 -0.0159255 0.0
0.946676 0.0633092 0.0
1.20894 0.172268 0.0
0.631872 0.0108642 0.0
1.1864 0.00749649 0.0
0.927304 0.0934773 0.0
1.19232 -0.00613947 0.0
1.38812 -0.593437 0.0
0.536464 -3.50301e-06 0.0
1.45829 -0.131447 0.0
1.10871 0.00524187 0.0
0.962191 -0.0126259 0.0
0.621442 0.0902772 0.0
0.997561 0.103122 0.0
0.897458 0.139828 0.0
1.111 0.00668036 0.0
1.21322 -0.0589867 0.0
1.39922 -0.0369639 0.0
0.582731 0.00384523 0.0
0.604994 0.0141963 0.0
1.07638 -0.00334407 0.0
0.40453 -0.0728795 0.0
1.04178 0.036914 0.0
0.50604 0.00372129 0.0
0.97305 -0.0110558 0.0
1.10914 -0.00428062 0.0
0.954321 -0.00868587 0.0
0.558263 -0.00520289 0.0
0.559828 0.019831 0.0
0.579008 0.00827542 0.0
0.547747 0.00709556 0.0
0.595771 0.00960386 0.0
1.21076 0.669512 0.0
1.36008 0.0689726 0.0
0.966086 -0.00210088 0.0
0.566882 0.00729778 0.0
0.577927 -0.0119442 0.0
0.692366 0.0255064 0.0
1.15126 -0.0483574 0.0
0.610753 0.000916712 0.0
1.60456 -0.192789 0.0
1.29289 0.096547 0.0
0.541679 -0.140637 0.0
1.34226 -0.0948294 0.0
1.52694 -0.466647 0.0
1.00734 0.00278938 0.0
1.09051 0.0164046 0.0
1.14653 -0.0117111 0.0
0.970767 0.000966159 0.0
0.837134 -0.689313 0.0
1.02125 0.00026927 0.0
0.980419 -0.00450344 0.0
1.18826 -0.0100225 0.0
1.11566 -0.0342668 0.0
1.64767 -0.00139398 0.0
-0.118307 0.0990672 0.0
0.512549 -0.0692753 0.0
1.3362 0.518078 0.0
1.07681 -0.011219 0.0
0.613144 -0.0105285 0.0
0.587379 -0.00448003 0.0
0.584063 -0.00496166 0.0
1.2022 0.0052502 0.0
0.637879 0.212804 0.0
1.17298 -0.023837 0.0
0.981186 0.0100031 0.0
0.755311 0.164836 0.0
1.12324 -0.00310983 0.0
0.146486 -0.0112882 0.0
1.1744 0.00542648 0.0
0.580036 0.020089 0.0
0.577323 -0.00945618 0.0
1.34136 0.0866479 0.0
0.856971 -0.00957985 0.0
1.5072 0.0330798 0.0
0.980033 0.012567 0.0
0.996874 0.00873937 0.0
0.117279 -0.166275 0.0
0.981172 0.0265396 0.0
1.16889 0.0106763 0.0
1.15137 0.0105668 0.0
0.358679 -0.13751 0.0
1.61706 -0.272977 0.0
1.08977 0.000849362 0.0
1.28899 0.196845 0.0
0.605545 -0.01273 0.0
0.575582 -0.0064449 0.0
1.12194 -0.0169622 0.0
0.538077 0.0904825 0.0
1.13026 -0.0268768 0.0
0.804131 0.0224236 0.0
0.938238 -0.010356 0.0
1.12965 0.00949587 0.0
1.00581 -0.00395036 0.0
0.201879 -0.0208987 0.0
1.14051 -0.01063 0.0
0.311137 0.0600595 0.0
1.01792 -0.00227595 0.0
1.01001 -0.0035553 0.0
0.588815 -0.0157167 0.0
1.06529 -0.00721818 0.0
1.17286 -0.0236973 0.0
0.959987 -0.000492609 0.0
0.99371 -0.0111171 0.0
1.20038 -0.964712 0.0
1.12962 0.0206256 0.0
1.69279 0.486617 0.0
0.578325 -0.0147098 0.0
0.57098 0.00654593 0.0
1.16297 0.00333594 0.0
1.21022 -0.00516852 0.0
1.10877 -0.00633138 0.0
1.11885 0.000344525 0.0
1.17405 0.00346145 0.0
1.12893 0.00283164 0.0
1.20135 -0.00704765 0.0
1.14945 0.025611 0.0
-0.195168 0.018622 0.0
1.09889 0.0137817 0.0
-0.0190938 0.0326553 0.0
0.656442 -0.0261378 0.0
1.20531 -0.179031 0.0
1.13949 -0.00844674 0.0
1.36754 -0.139398 0.0
1.64648 -0.502208 0.0
0.314249 -0.0181079 0.0
1.19507 -0.00598565 0.0
1.12895 0.271879 0.0
1.34821 -0.0995031 0.0
1.07139 0.305625 0.0
1.70975 0.0859362 0.0
0.975319 -0.542524 0.0
1.37208 0.132293 0.0
1.12305 -0.0161878 0.0
1.28971 -0.480968 0.0
-0.083814 -0.109933 0.0
1.05482 0.00191962 0.0
1.31871 -0.394747 0.0
0.520324 -0.00463595 0.0
1.41832 -0.14949 0.0
1.68452 0.197748 0.0
1.09014 0.0101699 0.0
0.432734 0.0143628 0.0
0.717057 0.00175162 0.0
0.267897 -0.228556 0.0
0.953999 0.0463399 0.0
-0.115284 -0.0313863 0.0
1.14772 -0.163783 0.0
1.49534 0.145438 0.0
0.531595 0.00847276 0.0
1.2282 -0.0698736 0.0
0.977234 -3.29942e-05 0.0
1.19473 0.00449175 0.0
0.435196 -0.615627 0.0
1.22865 0.264311 0.0
0.73256 -0.163503 0.0
0.191362 -0.331023 0.0
0.522551 0.160786 0.0
1.30261 0.238432 0.0
0.601211 0.15341 0.0
0.965434 -0.0107174 0.0
1.13271 -0.0133053 0.0
1.07939 0.00879012 0.0
1.06962 0.00864965 0.0
0.583867 0.00761349 0.0
0.0272584 0.0822219 0.0
1.30832 0.299719 0.0
0.469925 -0.00113754 0.0
1.1005 0.00680316 0.0
0.264432 0.216197 0.0