# vtk DataFile Version 3.0
Malha 2D com triângulos e temperatura
ASCII
DATASET UNSTRUCTURED_GRID

POINTS 688 double
0 0 0
2.2 0 0
2.2 0.41 0
0 0.41 0
0.25 0.2 0
0.05 0 0
0.1 0 0
0.15 0 0
0.2 0 0
0.25 0 0
0.3 0 0
0.35 0 0
0.4 0 0
0.45 0 0
0.5 0 0
0.55 0 0
0.6 0 0
0.65 0 0
0.7 0 0
0.75 0 0
0.8 0 0
0.85 0 0
0.9 0 0
0.95 0 0
1 0 0
1.05 0 0
1.1 0 0
1.15 0 0
1.2 0 0
1.25 0 0
1.3 0 0
1.35 0 0
1.4 0 0
1.45 0 0
1.5 0 0
1.55 0 0
1.6 0 0
1.65 0 0
1.7 0 0
1.75 0 0
1.8 0 0
1.85 0 0
1.9 0 0
1.95 0 0
2 0 0
2.05 0 0
2.1 0 0
2.15 0 0
2.2 0.0455556 0
2.2 0.0911111 0
2.2 0.136667 0
2.2 0.182222 0
2.2 0.227778 0
2.2 0.273333 0
2.2 0.318889 0
2.2 0.364444 0
2.15 0.41 0
2.1 0.41 0
2.05 0.41 0
2 0.41 0
1.95 0.41 0
1.9 0.41 0
1.85 0.41 0
1.8 0.41 0
1.75 0.41 0
1.7 0.41 0
1.65 0.41 0
1.6 0.41 0
1.55 0.41 0
1.5 0.41 0
1.45 0.41 0
1.4 0.41 0
1.35 0.41 0
1.3 0.41 0
1.25 0.41 0
1.2 0.41 0
1.15 0.41 0
1.1 0.41 0
1.05 0.41 0
1 0.41 0
0.95 0.41 0
0.9 0.41 0
0.85 0.41 0
0.8 0.41 0
0.75 0.41 0
0.7 0.41 0
0.65 0.41 0
0.6 0.41 0
0.55 0.41 0
0.5 0.41 0
0.45 0.41 0
0.4 0.41 0
0.35 0.41 0
0.3 0.41 0
0.25 0.41 0
0.2 0.41 0
0.15 0.41 0
0.1 0.41 0
0.05 0.41 0
0 0.364444 0
0 0.318889 0
0 0.273333 0
0 0.227778 0
0 0.182222 0
0 0.136667 0
0 0.0911111 0
0 0.0455556 0
0.248831 0.210749 0
0.245379 0.220994 0
0.239805 0.230259 0
0.232369 0.238108 0
0.22342 0.244176 0
0.213376 0.248177 0
0.202707 0.249927 0
0.191911 0.249341 0
0.181493 0.246449 0
0.171941 0.241384 0
0.1637 0.234385 0
0.157157 0.225778 0
0.152617 0.215965 0
0.150293 0.205406 0
0.150293 0.194594 0
0.152617 0.184035 0
0.157157 0.174222 0
0.1637 0.165615 0
0.171941 0.158616 0
0.181493 0.153551 0
0.191911 0.150659 0
0.202707 0.150073 0
0.213376 0.151823 0
0.22342 0.155824 0
0.232369 0.161892 0
0.239805 0.169741 0
0.245379 0.179006 0
0.248831 0.189251 0
0.421316 0.36725 0
0.426705 0.0366526 0
2.16065 0.209201 0
1.52286 0.0417259 0
0.626017 0.37111 0
1.3257 0.0414552 0
1.02471 0.0432237 0
1.17293 0.0421053 0
0.82501 0.36678 0
1.6757 0.370064 0
1.91628 0.0358195 0
1.82501 0.366432 0
0.723429 0.0421499 0
1.425 0.366699 0
1.97461 0.366224 0
1.12167 0.370137 0
0.975 0.368691 0
0.877672 0.0412714 0
1.27686 0.36884 0
1.725 0.0433013 0
0.579174 0.0416211 0
0.325589 0.363848 0
0.319111 0.0378151 0
0.0394523 0.296111 0
0.0329929 0.11602 0
0.142108 0.187428 0
1.57555 0.364352 0
2.02603 0.0412138 0
0.725007 0.36763 0
0.528647 0.366595 0
1.62699 0.0400272 0
1.82929 0.0421255 0
1.425 0.0418325 0
2.07474 0.364233 0
0.125 0.0433013 0
0.161245 0.155011 0
0.225 0.366699 0
0.210027 0.258536 0
2.16034 0.115449 0
0.0371627 0.204103 0
0.142311 0.212698 0
0.220283 0.0418538 0
0.221965 0.145099 0
0.196802 0.141016 0
0.119851 0.373394 0
0.161112 0.245979 0
0.184892 0.258024 0
2.16342 0.30039 0
2.12627 0.047699 0
0.183325 0.0412617 0
0.152317 0.0762976 0
0.203864 0.0745802 0
0.234384 0.0774346 0
0.215969 0.103585 0
0.245651 0.104548 0
0.186562 0.100216 0
0.268213 0.0793029 0
0.272149 0.109155 0
0.242885 0.159377 0
0.253088 0.128261 0
0.278718 0.13214 0
0.295917 0.115997 0
0.301728 0.138858 0
0.321266 0.12205 0
0.324642 0.151724 0
0.255978 0.181139 0
0.350123 0.129049 0
0.357539 0.159885 0
0.333541 0.181416 0
0.36451 0.19182 0
0.250573 0.230419 0
0.391277 0.169722 0
0.339477 0.212308 0
0.39836 0.205386 0
0.427326 0.18117 0
0.258724 0.206387 0
0.434392 0.219501 0
0.466446 0.193907 0
0.472865 0.243064 0
0.507358 0.209962 0
0.40073 0.238916 0
0.499135 0.1652 0
0.5419 0.179224 0
0.550176 0.22496 0
0.585844 0.194129 0
0.594095 0.240176 0
0.630701 0.209517 0
0.621901 0.162424 0
0.667731 0.178095 0
0.676485 0.226008 0
0.713906 0.194492 0
0.722681 0.242872 0
0.760442 0.211047 0
0.751547 0.162356 0
0.798298 0.179 0
0.807147 0.227866 0
0.845136 0.195775 0
0.854541 0.243285 0
0.892163 0.212344 0
0.902461 0.257947 0
0.93935 0.228684 0
0.930236 0.180167 0
0.977229 0.197066 0
0.986264 0.245777 0
1.02423 0.213991 0
1.0331 0.263172 0
1.07123 0.230975 0
1.06234 0.181814 0
1.10938 0.198721 0
1.09996 0.151012 0
1.14691 0.168161 0
1.15631 0.215921 0
1.19446 0.183678 0
1.20343 0.232645 0
1.2416 0.200322 0
1.23272 0.151117 0
1.2798 0.167954 0
1.28868 0.217167 0
1.32685 0.184862 0
1.33573 0.234064 0
1.3739 0.201768 0
0.789327 0.130094 0
1.38279 0.25097 0
1.42096 0.218674 0
1.41207 0.169471 0
1.45912 0.186378 0
1.46801 0.235581 0
1.50618 0.203285 0
1.51506 0.252489 0
1.55323 0.220192 0
1.54435 0.170989 0
1.5914 0.187896 0
1.60029 0.2371 0
1.63846 0.204803 0
1.64734 0.254007 0
1.68551 0.221711 0
1.67663 0.172507 0
1.72368 0.189415 0
1.73831 0.241548 0
1.77074 0.206322 0
1.76185 0.157121 0
1.8091 0.17428 0
1.81866 0.220885 0
1.85608 0.190621 0
1.86521 0.238879 0
1.90289 0.207671 0
1.91264 0.253772 0
1.94955 0.224093 0
1.94067 0.17593 0
1.98705 0.192828 0
1.99572 0.240997 0
2.0329 0.209382 0
2.02422 0.16161 0
2.04166 0.257286 0
0.419739 0.142889 0
0.968291 0.148058 0
0.310035 0.202211 0
0.316128 0.230863 0
0.658501 0.130052 0
0.685107 0.27445 0
1.34462 0.283266 0
1.16528 0.264896 0
1.84735 0.142081 0
0.557687 0.270604 0
1.21234 0.281769 0
1.58252 0.138692 0
0.533563 0.131933 0
0.489835 0.120004 0
1.45024 0.137174 0
2.06974 0.17785 0
2.06113 0.130713 0
0.283221 0.152215 0
0.921299 0.131169 0
0.343836 0.24295 0
0.319203 0.260002 0
0.235529 0.249617 0
0.347029 0.274099 0
0.291856 0.246297 0
0.295938 0.27548 0
0.272836 0.264931 0
0.27461 0.290522 0
0.251228 0.280224 0
0.253903 0.305808 0
0.232795 0.296709 0
0.298805 0.304058 0
1.0801 0.280176 0
1.47689 0.284785 0
1.05315 0.133468 0
1.09741 0.0970974 0
1.82427 0.272867 0
1.2701 0.118911 0
0.816337 0.277695 0
1.40432 0.121101 0
1.04244 0.320388 0
0.959305 0.103028 0
1.60923 0.286151 0
0.601674 0.286775 0
2.00739 0.280923 0
0.342592 0.0992796 0
0.375237 0.105729 0
1.52511 0.298716 0
1.53114 0.119823 0
0.733824 0.287256 0
0.613372 0.114719 0
0.645558 0.0838585 0
2.015 0.115858 0
1.22718 0.0994086 0
1.39166 0.29817 0
1.3564 0.329754 0
0.744134 0.11556 0
0.782853 0.0841771 0
0.826899 0.10047 0
1.17418 0.314034 0
0.520902 0.0906676 0
1.4967 0.329429 0
1.26048 0.0740437 0
0.365514 0.0716355 0
0.229836 0.121666 0
1.57453 0.09137 0
1.61938 0.110761 0
0.481716 0.0753791 0
0.14093 0.2 0
0.130041 0.192847 0
0.131507 0.178608 0
0.117165 0.184444 0
0.120761 0.164701 0
0.1156 0.199931 0
0.100804 0.174136 0
0.102545 0.153034 0
0.12169 0.143342 0
0.104604 0.13008 0
0.0809304 0.161171 0
0.128077 0.121858 0
0.106825 0.102278 0
0.082498 0.188728 0
0.0314738 0.158621 0
2.04625 0.310891 0
2.08475 0.27479 0
2.11394 0.138117 0
0.233149 0.151108 0
0.258724 0.193613 0
0.268522 0.184917 0
1.65397 0.301059 0
0.145962 0.224912 0
0.132503 0.222267 0
0.13746 0.236947 0
0.120111 0.233525 0
0.126593 0.25219 0
0.105294 0.247497 0
0.113343 0.26868 0
0.133997 0.271734 0
0.121622 0.292031 0
0.147069 0.292141 0
0.0896563 0.267464 0
0.0813699 0.243294 0
0.163574 0.276939 0
0.172694 0.298517 0
0.1583 0.321483 0
0.186823 0.322499 0
0.173113 0.348195 0
0.0322087 0.250839 0
0.211694 0.124337 0
0.250615 0.169546 0
0.256243 0.157787 0
0.170796 0.14736 0
0.156755 0.141654 0
0.17187 0.131161 0
0.147502 0.152323 0
0.198129 0.260662 0
0.206368 0.271663 0
0.220945 0.26864 0
0.190489 0.270628 0
0.198813 0.286731 0
0.55749 0.322277 0
0.520166 0.299321 0
0.235199 0.330709 0
0.267109 0.337524 0
0.172324 0.25256 0
0.255974 0.218859 0
0.268327 0.214994 0
0.184197 0.143083 0
0.188721 0.129954 0
0.209694 0.139146 0
0.269223 0.244007 0
0.252374 0.255244 0
0.282229 0.0410487 0
1.21977 0.330016 0
1.25733 0.296346 0
2.09358 0.0890819 0
0.244373 0.240984 0
0.0838116 0.115786 0
0.0797544 0.0817835 0
0.237449 0.264854 0
0.247178 0.146225 0
0.270136 0.2 0
0.28023 0.191334 0
0.263476 0.170737 0
0.371486 0.368728 0
0.396124 0.330051 0
0.440314 0.325693 0
0.357693 0.329668 0
0.476576 0.362035 0
0.29587 0.222914 0
0.307627 0.175476 0
0.079599 0.0406461 0
0.146062 0.252571 0
0.15162 0.125025 0
0.417223 0.294608 0
0.457089 0.286958 0
0.036619 0.338729 0
0.0713014 0.322193 0
0.0735823 0.36704 0
0.041143 0.0722223 0
0.693501 0.32349 0
0.145406 0.175484 0
0.138777 0.164467 0
0.300367 0.0698839 0
0.167025 0.112083 0
0.146978 0.105544 0
0.151909 0.236762 0
0.444611 0.106436 0
0.909355 0.0817561 0
0.282901 0.370713 0
1.61474 0.330739 0
0.578053 0.368179 0
0.824695 0.0487848 0
2.09634 0.3213 0
2.02276 0.364865 0
2.12532 0.363702 0
1.09789 0.328757 0
0.161137 0.260089 0
2.07793 0.225752 0
2.12079 0.240944 0
2.0747 0.0437362 0
1.89402 0.158846 0
1.93154 0.128738 0
1.8848 0.111477 0
1.8384 0.0926484 0
1.87744 0.0655304 0
1.7913 0.0793874 0
1.9712 0.046671 0
1.92502 0.366682 0
1.94563 0.325156 0
1.89941 0.326645 0
1.87499 0.367178 0
1.84989 0.323491 0
1.7997 0.321303 0
1.77183 0.280326 0
1.75031 0.321965 0
1.77491 0.365615 0
2.11727 0.191885 0
0.883187 0.163467 0
1.71449 0.140266 0
1.667 0.125342 0
1.70591 0.0884759 0
1.67732 0.042286 0
1.52278 0.370513 0
1.37512 0.04128 0
1.34848 0.0834574 0
0.776093 0.367587 0
1.125 0.0433013 0
1.15 0.0866019 0
1.07442 0.0496847 0
0.974527 0.0370837 0
1.47464 0.0427918 0
1.44953 0.0873752 0
1.17595 0.362984 0
1.025 0.366699 0
0.925007 0.367031 0
0.95 0.323404 0
0.897321 0.326356 0
0.874563 0.367261 0
0.846552 0.324465 0
1.62923 0.156667 0
1.32319 0.13033 0
1.69342 0.270472 0
1.49568 0.156227 0
1.56237 0.268721 0
1.44 0.319169 0
1.43005 0.267892 0
1.36502 0.152565 0
0.993446 0.294003 0
1.30179 0.321101 0
1.18235 0.127964 0
1.25016 0.2491 0
1.29638 0.266841 0
1.11824 0.247967 0
1.12945 0.294699 0
1.01527 0.165035 0
0.836192 0.147197 0
1.4998 0.0831488 0
1.00655 0.118664 0
0.872896 0.117126 0
0.70523 0.146383 0
1.96013 0.276645 0
0.769406 0.257102 0
0.699552 0.0908977 0
2.1587 0.162257 0
1.97813 0.145326 0
0.646036 0.302035 0
0.799423 0.326603 0
0.515621 0.255445 0
1.72538 0.366474 0
1.97009 0.0998346 0
1.57108 0.313772 0
0.577925 0.14549 0
0.638911 0.256447 0
0.407352 0.0771641 0
0.525103 0.042511 0
0.674231 0.370698 0
1.69802 0.321701 0
0.56947 0.0908728 0
1.75459 0.110239 0
1.80084 0.126127 0
0.673535 0.0431435 0
1.57391 0.0465733 0
2.04571 0.0828469 0
0.10002 0.225545 0
0.0788152 0.21577 0
0.369719 0.224393 0
0.210352 0.308739 0
1.22342 0.0432967 0
[...]
CELL_DATA 1241
VECTORS velocity double
1.02312 -0.00377285 0.0
1.21397 0.0677795 0.0
0.478841 -0.00033219 0.0
0.958028 0.00341277 0.0
1.03789 0.00745255 0.0
1.42241 0.102628 0.0
1.13058 6.53907e-05 0.0
0.990385 -0.000871805 0.0
0.364308 0.0155289 0.0
1.16738 0.00170332 0.0
1.31247 -0.119986 0.0
1.31627 0.126511 0.0
0.865763 -0.160577 0.0
1.01342 0.0062672 0.0
0.989191 0.00738768 0.0
1.46567 -0.0322516 0.0
0.978116 0.00173194 0.0
0.479549 0.0603495 0.0
1.16891 0.0635104 0.0
1.64772 -0.253771 0.0
1.02795 0.00612444 0.0
1.05893 -0.0661348 0.0
1.03166 0.00159953 0.0
1.25317 0.90486 0.0
1.07196 -0.00177099 0.0
1.03139 0.0041613 0.0
1.29883 -0.199189 0.0
1.07577 -0.0251812 0.0
1.32175 -0.0836666 0.0
1.46183 -0.0643576 0.0
1.33199 0.090232 0.0
0.864027 -0.037309 0.0
1.51941 0.00184356 0.0
1.01205 0.00470394 0.0
1.25332 -0.0575386 0.0
1.35858 0.156562 0.0
1.20886 -0.0562301 0.0
1.05042 -0.167819 0.0
0.359539 0.0204876 0.0
1.38184 0.140926 0.0
1.76484 -0.179257 0.0
1.41404 -0.0449046 0.0
1.05282 -0.237101 0.0
0.534428 0.00702427 0.0
1.39899 -0.166849 0.0
0.527866 -0.00421069 0.0
1.20287 0.100151 0.0
1.11048 0.026458 0.0
1.61308 -0.312759 0.0
1.24062 -0.0111759 0.0
1.19667 0.00112753 0.0
1.29088 -0.417443 0.0
0.870468 -0.00394377 0.0
1.40648 -0.0832698 0.0
1.77558 -0.279182 0.0
1.51794 -0.0296478 0.0
1.14574 -0.0406919 0.0
1.12322 -0.000291679 0.0
1.65897 -0.0985239 0.0
1.68779 -0.198802 0.0
1.1586 0.847255 0.0
1.00321 9.22252e-05 0.0
0.197037 0.034887 0.0
1.03323 0.00819705 0.0
-0.240759 0.0712343 0.0
1.33193 0.227524 0.0
-0.278424 0.0870733 0.0
1.15618 0.000642073 0.0
0.859443 -0.0262191 0.0
0.219809 0.0249747 0.0
1.15706 -0.00274049 0.0
0.794414 0.0137015 0.0
1.15621 -0.00213762 0.0
0.793088 -0.0146158 0.0
1.18826 0.00739392 0.0
0.881267 0.157029 0.0
0.945696 0.00505491 0.0
1.63198 -0.0457769 0.0
0.977201 -0.034976 0.0
0.612693 0.000473116 0.0
1.75217 -0.382684 0.0
1.15966 -0.246587 0.0
0.650858 0.0115607 0.0
1.26136 -0.227128 0.0
1.34582 0.170025 0.0
0.919151 -0.0666051 0.0
1.20894 0.179242 0.0
0.088473 0.0994021 0.0
1.83907 0.530116 0.0
1.17605 0.00375621 0.0
1.27304 0.00965364 0.0
-0.188455 -0.0112042 0.0
-0.347521 0.0789761 0.0
1.44145 -0.0655475 0.0
1.18162 -0.04161 0.0
0.995022 0.00119257 0.0
0.850686 -0.0264884 0.0
-0.184656 0.0906981 0.0
1.01385 -0.00943138 0.0
-0.242564 0.113895 0.0
1.08214 -0.0985526 0.0
1.14984 -0.0115093 0.0
0.94964 0.000252792 0.0
1.63984 -0.160902 0.0
1.7427 -0.670601 0.0
1.27321 -0.397862 0.0
1.07252 -0.0629654 0.0
0.499615 -0.0230254 0.0
1.78831 0.649552 0.0
1.20449 0.00327637 0.0
1.48449 -0.110477 0.0
1.23274 0.19076 0.0
0.132353 0.0755358 0.0
1.44147 -0.0270134 0.0
1.07908 0.0151311 0.0
1.44263 0.0400708 0.0
1.41309 0.00539928 0.0
1.39114 0.052306 0.0
1.06046 -0.000283563 0.0
0.257313 0.0406888 0.0
1.19091 0.0418242 0.0
1.51973 0.581663 0.0
1.25189 0.109566 0.0
0.91961 -0.0633905 0.0
0.728595 -0.100164 0.0
1.20627 0.0871698 0.0
1.44546 -0.0437508 0.0
1.11378 0.0249935 0.0
1.74999 0.501287 0.0
0.549864 -0.0713028 0.0
1.15594 -0.0119395 0.0
0.614245 -0.00175401 0.0
0.885448 0.0637601 0.0
1.60282 -0.0207523 0.0
1.0214 -0.154269 0.0
-0.275635 0.0746252 0.0
0.1237 0.0615134 0.0
1.22329 0.0832633 0.0
1.04688 -0.0255334 0.0
1.66413 -0.761318 0.0
1.50088 0.00356413 0.0
1.03459 0.0032307 0.0
1.07833 -0.244963 0.0
1.00364 0.00724165 0.0
1.52434 0.00799672 0.0
0.0246182 0.0317777 0.0
-0.254227 0.0376283 0.0
-0.180931 0.00631844 0.0
0.642398 0.0142096 0.0
0.652157 -0.0127836 0.0
0.555312 -0.101507 0.0
1.03343 -0.00739148 0.0
1.79665 -0.332262 0.0
1.0497 -0.154456 0.0
1.20282 -0.0491833 0.0
1.20456 0.0544097 0.0
0.517046 -5.9729e-05 0.0
1.64319 0.0730312 0.0
0.858498 0.031047 0.0
1.2447 -0.0578029 0.0
-0.230675 0.0478281 0.0
1.74057 0.44617 0.0
1.14054 0.00521664 0.0
1.22205 -0.204899 0.0
1.13862 0.034942 0.0
1.05422 0.130213 0.0
0.991524 -0.00162959 0.0
0.987082 0.1098 0.0
0.574998 -0.00281977 0.0
1.17139 -0.0343656 0.0
0.925644 -0.0251525 0.0
1.21226 0.00377713 0.0
1.36537 0.265266 0.0
1.18719 0.0876181 0.0
1.10396 0.00286554 0.0
1.11502 0.00370476 0.0
1.18238 0.198458 0.0
1.12011 -0.287555 0.0
1.11257 0.00877373 0.0
1.16594 -0.225129 0.0
1.11837 0.00642954 0.0
0.364424 0.109661 0.0
1.08776 -0.644428 0.0
0.730505 -0.127055 0.0
1.02043 -0.00669948 0.0
0.765601 -0.0789362 0.0
0.762064 -0.0636073 0.0
1.02703 0.00490882 0.0
1.05544 0.095902 0.0
0.460968 0.0469962 0.0
0.889685 -0.829992 0.0
1.77872 0.344651 0.0
1.02753 -0.00188431 0.0
0.979802 0.00807149 0.0
0.667185 0.0601596 0.0
0.854269 0.057709 0.0
0.397719 0.0589899 0.0
1.00824 -0.0140051 0.0
1.42771 -0.0322304 0.0
1.4497 0.581323 0.0
1.15457 0.193066 0.0
1.06794 -0.0139226 0.0
1.42685 0.0383933 0.0
1.04281 -0.0933984 0.0
1.39877 -0.0924938 0.0
1.43601 -0.0447093 0.0
0.484449 0.024832 0.0
0.654991 0.013014 0.0
0.897112 -0.0231565 0.0
0.854842 0.0338031 0.0
0.549418 0.0163462 0.0
0.532852 -0.00218653 0.0
1.79021 0.286005 0.0
1.11066 0.0083653 0.0
1.44143 -0.00436422 0.0
1.11963 0.00902018 0.0
0.736393 -0.0781998 0.0
1.51055 -0.0919185 0.0
1.17575 -0.0307299 0.0
1.15387 -0.00986691 0.0
0.833098 -0.0495792 0.0
1.67137 -0.0697404 0.0
1.00958 0.0551355 0.0
0.997214 0.0119745 0.0
0.956645 -0.0264621 0.0
1.21118 0.00296782 0.0
1.4345 -0.138626 0.0
1.73008 -0.600736 0.0
1.17543 -0.00591079 0.0
1.18925 -0.0086792 0.0
0.999933 -0.00138649 0.0
1.06355 -0.132769 0.0
1.02463 -0.00840101 0.0
0.994199 -0.00523266 0.0
1.25835 0.310843 0.0
1.0383 -0.256567 0.0
1.09702 0.172833 0.0
1.31801 0.13358 0.0
0.747617 -0.107541 0.0
0.355069 -0.0454496 0.0
0.957946 0.0157436 0.0
1.43871 0.0570011 0.0
1.42213 0.918277 0.0
0.682938 -0.0851761 0.0
1.14328 -0.0140459 0.0
1.70447 0.139664 0.0
1.09703 -0.898641 0.0
0.868428 -0.17759 0.0
1.13613 -0.038188 0.0
0.579132 -0.00738649 0.0
1.02548 0.0268558 0.0
0.565161 -0.00894939 0.0
1.03016 -0.00309964 0.0
1.20493 0.00385691 0.0
0.638789 -0.0116947 0.0
0.771155 -0.0340121 0.0
1.09486 -0.28544 0.0
1.32466 -0.105856 0.0
1.20322 0.0018806 0.0
1.01497 -0.00243269 0.0
1.01185 0.00948914 0.0
0.52841 -0.00518584 0.0
1.20517 0.00577881 0.0
0.731182 -0.0263895 0.0
1.12312 0.0443418 0.0
1.00393 -0.00898312 0.0
0.584347 0.00391619 0.0
1.24102 -0.110961 0.0
1.22817 -0.172359 0.0
0.784461 -0.0269622 0.0
1.14161 -0.066196 0.0
0.605719 0.00127013 0.0
0.987789 -0.0130137 0.0
0.117968 0.0683292 0.0
1.18679 0.000187516 0.0
1.18464 -0.00815488 0.0
0.616034 -0.00399713 0.0
0.943986 -0.195241 0.0
0.989023 -0.0130314 0.0
1.42931 0.155893 0.0
1.18227 0.00255237 0.0
1.21257 -2.70515e-05 0.0
1.22357 -0.170781 0.0
1.21463 -0.00162195 0.0
1.21272 0.00137103 0.0
1.17085 -0.0158298 0.0
0.938342 -0.115322 0.0
0.835802 0.0428592 0.0
1.21568 -0.00386954 0.0
1.21154 0.000103139 0.0
1.20828 -0.00126808 0.0
0.634675 0.0704387 0.0
0.491056 0.00504878 0.0
0.993726 0.00887328 0.0
0.567579 -0.00730248 0.0
1.21426 -0.00381437 0.0
1.00515 -0.015273 0.0
1.15127 0.010713 0.0
-0.259995 -0.0271869 0.0
0.978441 -0.00892031 0.0
0.527144 -0.00333841 0.0
1.3192 -0.604796 0.0
1.12054 -0.00722456 0.0
0.977866 -0.0134714 0.0
0.547907 -0.00926707 0.0
1.21344 -0.00189877 0.0
0.865096 0.0411091 0.0
0.554717 0.00155026 0.0
0.997663 -0.0125507 0.0
1.21485 -0.00438376 0.0
1.20772 -0.00193786 0.0
1.21108 -0.00163088 0.0
0.641619 -0.00615046 0.0
0.473945 0.00126011 0.0
1.21335 -0.00546537 0.0
1.14327 -0.0743404 0.0
1.19219 -0.00649476 0.0
0.623952 0.00970146 0.0
1.17577 -0.00755986 0.0
1.20548 -0.00349113 0.0
1.19425 0.00122427 0.0
1.21753 -0.00567314 0.0
0.490617 -0.00597997 0.0
1.21223 -0.00530923 0.0
1.21232 -0.00471372 0.0
1.2058 -0.00607924 0.0
0.482058 -0.00313545 0.0
1.19878 -0.000976624 0.0
1.17419 -0.00543685 0.0
1.18672 -0.000795028 0.0
1.21569 -0.00579627 0.0
1.17144 -0.158975 0.0
1.12539 0.00124205 0.0
1.21743 -0.00625868 0.0
1.35094 0.668451 0.0
1.2038 -0.00569575 0.0
0.533893 -0.0063147 0.0
1.0908 -0.021683 0.0
0.58525 0.00806745 0.0
0.587603 -0.00897724 0.0
1.12629 0.00655968 0.0
1.09042 -0.0113939 0.0
1.06451 -0.00642797 0.0
0.526198 -0.0077556 0.0
1.09641 -0.0211862 0.0
1.1332 0.00514421 0.0
1.21533 -0.00664685 0.0
1.07725 0.140242 0.0
1.1553 -0.696925 0.0
0.558162 -0.00375371 0.0
0.515628 -0.00494452 0.0
1.21179 -0.0052881 0.0
1.21341 -0.006927 0.0
0.616848 -0.0196831 0.0
0.505263 -0.0100752 0.0
1.20974 -0.00465682 0.0
0.991133 0.0140202 0.0
1.16469 0.00962698 0.0
1.15099 -0.00594361 0.0
0.563613 0.0082627 0.0
0.515679 -0.00164243 0.0
1.14805 0.0165109 0.0
0.606028 0.0127359 0.0
0.571008 0.0136967 0.0
1.17398 0.00673099 0.0
0.620913 0.0209003 0.0
0.573834 -0.000206682 0.0
1.20222 -0.00448318 0.0
1.19161 -0.00416101 0.0
0.96645 0.0139531 0.0
1.2007 -0.00311403 0.0
1.17528 -0.00344338 0.0
1.20717 -0.00376605 0.0
0.989171 0.00960809 0.0
1.14735 -0.00368381 0.0
0.619162 0.00637861 0.0
0.514607 0.0138684 0.0
0.565391 0.0127176 0.0
0.487685 -0.00849366 0.0
0.551719 -8.65957e-05 0.0
0.569488 -0.00448376 0.0
0.533407 -0.00208344 0.0
0.63275 -0.0137369 0.0
0.566881 -0.00461756 0.0
0.586163 0.0122736 0.0
0.509522 -0.00670362 0.0
0.569335 0.0152265 0.0
0.521433 -0.000159499 0.0
0.673109 0.0216649 0.0
0.57031 0.0102045 0.0
0.56482 -0.0114852 0.0
0.506934 0.00210218 0.0
0.538323 -0.00166288 0.0
0.522751 0.00705043 0.0
0.604719 -0.0095609 0.0
0.558131 -0.00159915 0.0
0.594189 -0.00771929 0.0
0.556886 -0.0130918 0.0
0.549247 0.00552643 0.0
0.534158 -0.000512804 0.0
0.555452 0.00269373 0.0
0.502707 -0.0161094 0.0
0.494111 0.0199217 0.0
0.489673 0.00135131 0.0
0.549482 -0.00704948 0.0
0.511961 0.00346053 0.0
0.640097 -0.0213161 0.0
0.507902 0.00502854 0.0
0.489533 0.0046796 0.0
0.532094 0.000419135 0.0
0.509163 -0.0030051 0.0
1.174 -0.00278056 0.0
1.15486 -0.00495169 0.0
1.21211 -0.00637356 0.0
1.21134 -0.0049106 0.0
1.21368 -0.0050106 0.0
1.11336 -0.00581508 0.0
1.18735 -0.00560022 0.0
1.16893 -0.00481153 0.0
1.17801 0.00216497 0.0
1.15035 -0.00337443 0.0
1.1978 -0.00649397 0.0
1.19966 -0.0070148 0.0
1.16535 -0.00489174 0.0
1.2087 -0.00371007 0.0
1.18802 -0.00232108 0.0
1.20825 -0.00524689 0.0
1.18408 -0.00593694 0.0
1.14854 -0.000532254 0.0
1.20539 -0.00546043 0.0
1.21092 -0.00414074 0.0
1.19861 -0.00235343 0.0
1.20918 -0.00414088 0.0
1.20414 -0.00518628 0.0
1.15036 -0.00756537 0.0
1.21046 -0.00253324 0.0
1.18973 -0.00261721 0.0
1.20823 -0.00201335 0.0
1.11496 -0.000150362 0.0
1.18978 -0.00367696 0.0
1.18487 -0.000305154 0.0
1.20549 -0.00208265 0.0
1.16806 -0.000492555 0.0
1.20396 -0.00238536 0.0
1.20641 -0.00236293 0.0
1.1808 0.00180649 0.0
1.20816 -0.00199511 0.0
1.19797 -0.00341976 0.0
1.2029 -0.000837761 0.0
1.14848 -0.00691187 0.0
1.16938 -0.00135858 0.0
1.20522 -0.0010182 0.0
1.19609 -0.00282485 0.0
1.19561 0.000135217 0.0
1.19314 0.00146005 0.0
1.16333 -0.011649 0.0
1.20463 -0.00081026 0.0
1.20186 -0.000477594 0.0
1.1323 -0.00443235 0.0
1.18619 -0.00359996 0.0
1.11635 0.00430968 0.0
1.17346 -0.00334387 0.0
1.18491 -0.00326713 0.0
1.19548 -0.00337607 0.0
1.20226 -0.00155803 0.0
1.16983 -0.00345212 0.0
1.19842 -0.00320096 0.0
1.19913 -0.00129853 0.0
1.202 -0.000333596 0.0
1.19723 0.00121821 0.0
1.19446 0.00152804 0.0
1.19403 0.00230481 0.0
1.18168 0.00364506 0.0
1.13164 -0.00467943 0.0
1.09275 0.00480902 0.0
1.17881 0.00485292 0.0
1.19864 7.41428e-05 0.0
0.570293 -0.00559816 0.0
1.18467 0.00355217 0.0
1.14704 0.00475289 0.0
1.16847 0.00520644 0.0
1.19729 0.00167529 0.0
1.16658 0.00501885 0.0
1.18129 0.00448045 0.0
1.17525 0.00024784 0.0
1.18955 0.00360868 0.0
1.17944 -0.000560627 0.0
1.12856 -0.00363375 0.0
1.1295 -0.00625192 0.0
1.15434 -0.00347708 0.0
1.18658 0.0048202 0.0
1.17435 -0.00337673 0.0
1.18674 0.00269322 0.0
1.16572 -0.00283953 0.0
1.18107 -0.00319596 0.0
1.19013 0.00206208 0.0
1.18479 0.00472261 0.0
0.988871 -0.0106585 0.0
1.16963 -0.00253425 0.0
1.17825 0.00620738 0.0
1.14458 0.0062642 0.0
1.18794 -0.00208695 0.0
1.19306 -9.1302e-05 0.0
1.07557 -0.0168229 0.0
1.16846 0.00916459 0.0
1.17789 -0.00286821 0.0
1.14706 0.0124 0.0
1.18931 -0.0002474 0.0
1.15212 0.0171418 0.0
1.17014 -0.00357406 0.0
1.1909 -0.00213072 0.0
1.17656 -0.000695272 0.0
1.11939 0.176518 0.0
1.15082 -0.00589485 0.0
1.20634 -0.00722323 0.0
1.17454 0.00794652 0.0
1.17888 0.00106291 0.0
1.15707 -0.0118143 0.0
1.16155 -0.00232283 0.0
1.13672 -0.00143781 0.0
1.1604 -0.00800029 0.0
1.17305 0.0021458 0.0
1.13864 0.000418765 0.0
1.16839 0.00186742 0.0
1.16667 -0.00574376 0.0
1.16362 -0.00170469 0.0
1.15477 0.0109805 0.0
1.16529 -0.00485291 0.0
0.713217 -0.0207754 0.0
0.98025 0.00260081 0.0
1.15036 0.0132947 0.0
1.15401 0.00847899 0.0
1.16036 -0.00720085 0.0
1.14049 0.010462 0.0
1.1492 0.0126841 0.0
1.15234 -0.00244727 0.0
1.13595 0.00063422 0.0
1.14737 -0.00317846 0.0
1.14188 0.000656418 0.0
1.1293 0.0117488 0.0
1.16432 0.00481685 0.0
1.15848 0.00753733 0.0
1.00141 0.00616924 0.0
1.15999 0.00503597 0.0
1.15992 0.0098737 0.0
1.15132 0.0104025 0.0
1.12253 0.0148558 0.0
1.13554 0.0143538 0.0
1.15713 0.0108339 0.0
1.7358 0.18106 0.0
1.12778 -0.010416 0.0
1.13374 0.0191909 0.0
1.10638 -0.0224539 0.0
1.14968 0.0216899 0.0
1.15177 0.015286 0.0
1.12135 -0.0126723 0.0
1.14885 0.0215872 0.0
1.20513 -0.00409954 0.0
1.07366 -0.0085141 0.0
1.09508 0.0146062 0.0
1.10635 -0.00693508 0.0
1.30653 0.127333 0.0
1.20202 -0.00490133 0.0
1.07739 -0.000279731 0.0
1.1501 -0.0071104 0.0
1.14455 0.0284133 0.0
1.14709 0.0224827 0.0
1.09865 -0.00843172 0.0
1.10028 -0.0274392 0.0
0.988044 -0.0127448 0.0
1.17938 0.000237851 0.0
1.07651 0.00065808 0.0
1.08647 0.000132897 0.0
1.12696 0.0246024 0.0
1.1136 -0.0265284 0.0
1.03022 0.198328 0.0
0.971069 -0.0132507 0.0
1.14059 0.0340978 0.0
0.444391 -0.165012 0.0
1.38078 0.132696 0.0
1.18164 -0.0529977 0.0
1.07405 0.0104483 0.0
1.07391 0.0261206 0.0
1.06174 0.0366658 0.0
1.20079 -0.000291222 0.0
1.06122 0.0144495 0.0
1.04321 -0.0446221 0.0
1.30217 0.175908 0.0
1.00544 -0.143411 0.0
1.03783 -0.0582469 0.0
1.15293 -0.134325 0.0
1.14115 -0.0105878 0.0
1.09916 -0.0485861 0.0
1.17062 -0.00315703 0.0
0.945315 0.00204259 0.0
1.18155 0.0550487 0.0
1.01732 -0.0139331 0.0
1.23816 -0.102837 0.0
1.2011 -0.00495013 0.0
1.19172 -0.00600839 0.0
1.06369 -0.020138 0.0
1.39847 -0.567421 0.0
1.13587 0.084323 0.0
1.00346 -0.0200908 0.0
1.1364 0.0678115 0.0
0.966463 0.00168834 0.0
0.753011 0.0285308 0.0
1.09559 0.0456671 0.0
1.32726 -0.160601 0.0
0.937121 -0.0915482 0.0
1.103 -0.0401689 0.0
0.632675 -0.556607 0.0
1.10407 -0.0280618 0.0
1.11093 -0.00549938 0.0
1.14693 -0.00626996 0.0
1.39049 -0.140557 0.0
1.08586 0.0605715 0.0
1.17038 -0.00257298 0.0
1.05503 -0.0262214 0.0
1.16566 0.0367823 0.0
0.992143 -0.0157288 0.0
1.35009 -0.771816 0.0
1.20685 0.00439792 0.0
1.18007 0.0524315 0.0
1.18706 0.00285931 0.0
1.12282 -0.000293133 0.0
1.18061 -0.0574453 0.0
1.06696 0.0208026 0.0
1.2073 0.0823128 0.0
1.12073 -0.0076105 0.0
1.16099 0.0448476 0.0
0.96703 0.00154358 0.0
1.14297 0.0099483 0.0
1.18057 -0.531672 0.0
0.65264 -0.00615804 0.0
0.674909 -0.0236246 0.0
0.933637 0.0275946 0.0
1.26677 0.120898 0.0
1.14792 -0.00563443 0.0
1.1738 -0.00518173 0.0
0.599971 0.0103342 0.0
1.19088 -0.00544265 0.0
0.331138 -0.123936 0.0
1.0759 -0.100001 0.0
0.572372 0.00791163 0.0
0.576553 -0.0120068 0.0
0.907552 0.0406408 0.0
1.15054 -0.00468247 0.0
0.863945 -0.174314 0.0
0.861682 -0.023856 0.0
1.6889 -0.124418 0.0
0.939521 0.0376393 0.0
1.14596 -0.0104311 0.0
1.14674 -0.0119947 0.0
1.05078 0.00641523 0.0
1.20506 0.00341675 0.0
1.16811 0.0014081 0.0
1.18513 0.34827 0.0
0.614105 0.0177623 0.0
1.01481 0.00372404 0.0
1.36695 -0.0989015 0.0
0.545042 0.00679771 0.0
1.58085 0.56077 0.0
0.940736 -0.0421582 0.0
0.804118 -0.0269233 0.0
1.33912 0.0891065 0.0
0.788678 -0.0537637 0.0
0.957562 0.000215971 0.0
0.670158 -0.117304 0.0
1.15862 -0.0158253 0.0
0.880648 0.099481 0.0
1.14161 -0.0140813 0.0
0.666666 -0.00404837 0.0
1.02598 0.00468386 0.0
0.984985 0.137124 0.0
1.4101 -0.0335608 0.0
0.529912 -0.0030862 0.0
0.643352 -0.02427 0.0
0.918774 0.805401 0.0
1.10888 -0.00110193 0.0
1.05019 0.0118781 0.0
1.39156 0.0130089 0.0
0.595894 -0.0107749 0.0
1.13055 0.0158236 0.0
1.1667 -0.448639 0.0
0.186479 0.0223902 0.0
0.931219 -0.063471 0.0
1.07323 -0.084096 0.0
0.730743 0.0242672 0.0
0.52529 0.0183012 0.0
1.6486 0.0354867 0.0
1.15034 -0.00587033 0.0
0.311487 0.0152288 0.0
0.57841 0.0254638 0.0
1.14173 -0.00434839 0.0
1.19233 -0.00578501 0.0
1.0042 -0.0161938 0.0
0.945065 0.0631396 0.0
1.20901 0.172333 0.0
0.633053 0.0109588 0.0
1.1887 0.00762691 0.0
0.925831 0.0933486 0.0
1.19448 -0.00637119 0.0
1.38809 -0.59344 0.0
0.532948 0.000124115 0.0
1.4585 -0.131174 0.0
1.10902 0.00559363 0.0
0.960707 -0.0128572 0.0
0.621473 0.0902885 0.0
0.996355 0.102875 0.0
0.897462 0.139837 0.0
1.11132 0.00696769 0.0
1.21404 -0.0588764 0.0
1.39922 -0.0369578 0.0
0.582209 0.00406225 0.0
0.604902 0.0144124 0.0
1.07604 -0.00333721 0.0
0.404533 -0.0728823 0.0
1.04222 0.0368479 0.0
0.503417 0.00372409 0.0
0.971858 -0.0110468 0.0
1.10946 -0.00430226 0.0
0.952623 -0.00885267 0.0
0.556853 -0.00543027 0.0
0.558149 0.0198327 0.0
0.576539 0.00838737 0.0
0.543554 0.00714419 0.0
0.593579 0.0098253 0.0
1.21075 0.669531 0.0
1.36024 0.0690914 0.0
0.965585 -0.0021822 0.0
0.563168 0.0073664 0.0
0.574377 -0.012068 0.0
0.693666 0.0254827 0.0
1.15219 -0.0482728 0.0
0.611732 0.00107863 0.0
1.60442 -0.192846 0.0
1.29352 0.096329 0.0
0.540824 -0.140683 0.0
1.34286 -0.094643 0.0
1.52692 -0.466685 0.0
1.00743 0.00316304 0.0
1.09053 0.016807 0.0
1.1462 -0.011878 0.0
0.969158 0.00115624 0.0
0.837116 -0.689289 0.0
1.02181 6.10436e-05 0.0
0.979915 -0.00460087 0.0
1.19031 -0.0103278 0.0
1.11667 -0.034448 0.0
1.6478 -0.00115678 0.0
-0.11886 0.0988173 0.0
0.511405 -0.0692104 0.0
1.3362 0.5181 0.0
1.07638 -0.0113692 0.0
0.611399 -0.0107014 0.0
0.585309 -0.00457078 0.0
0.581848 -0.00504291 0.0
1.20494 0.0054153 0.0
0.636991 0.21249 0.0
1.17357 -0.0242 0.0
0.980318 0.0102149 0.0
0.754449 0.164471 0.0
1.12363 -0.00303743 0.0
0.144847 -0.0109969 0.0
1.17641 0.00559994 0.0
0.57756 0.0202648 0.0
0.574787 -0.00954972 0.0
1.34109 0.0864347 0.0
0.854767 -0.00987417 0.0
1.50702 0.0328773 0.0
0.979008 0.0128288 0.0
0.995788 0.00900475 0.0
0.116201 -0.166287 0.0
0.980081 0.0269514 0.0
1.16948 0.0110462 0.0
1.15189 0.0109862 0.0
0.358199 -0.137231 0.0
1.61692 -0.273023 0.0
1.0903 0.000695919 0.0
1.28866 0.196465 0.0
0.602945 -0.0128636 0.0
0.572685 -0.00655093 0.0
1.12225 -0.0169275 0.0
0.536594 0.0902853 0.0
1.12977 -0.0270913 0.0
0.80519 0.0223101 0.0
0.93744 -0.0102266 0.0
1.13011 0.00994546 0.0
1.00447 -0.0039403 0.0
0.20188 -0.0208992 0.0
1.14164 -0.0109038 0.0
0.310863 0.060139 0.0
1.01684 -0.00215122 0.0
1.00891 -0.00360553 0.0
0.586334 -0.0158111 0.0
1.06607 -0.00768595 0.0
1.17352 -0.0240931 0.0
0.958374 -0.000436188 0.0
0.993077 -0.0113471 0.0
1.20035 -0.96469 0.0
1.13023 0.0211404 0.0
1.69277 0.486683 0.0
0.575186 -0.0149699 0.0
0.567366 0.00651667 0.0
1.16383 0.00358969 0.0
1.21268 -0.00531849 0.0
1.10963 -0.00657488 0.0
1.11973 0.000141761 0.0
1.17526 0.00369428 0.0
1.12934 0.00309329 0.0
1.20368 -0.00726784 0.0
1.14986 0.0258844 0.0
-0.195796 0.0186389 0.0
1.09971 0.0142167 0.0
-0.0203578 0.0318448 0.0
0.657044 -0.0259391 0.0
1.20517 -0.178742 0.0
1.14046 -0.00880453 0.0
1.36772 -0.139167 0.0
1.64644 -0.502248 0.0
0.314249 -0.0181086 0.0
1.19731 -0.00622628 0.0
1.12896 0.271908 0.0
1.3488 -0.0993039 0.0
1.07139 0.305641 0.0
1.7097 0.0861253 0.0
0.975301 -0.542505 0.0
1.37208 0.132302 0.0
1.12288 -0.0162343 0.0
1.28969 -0.480966 0.0
-0.0844393 -0.109577 0.0
1.05545 0.00177071 0.0
1.31869 -0.394767 0.0
0.517355 -0.00465915 0.0
1.41838 -0.14958 0.0
1.68455 0.197893 0.0
1.09029 0.0104979 0.0
0.428176 0.0145291 0.0
0.717052 0.0017707 0.0
0.26789 -0.228531 0.0
0.954595 0.0462633 0.0
-0.115914 -0.0310714 0.0
1.14752 -0.16355 0.0
1.49554 0.145094 0.0
0.531265 0.00861831 0.0
1.22843 -0.069777 0.0
0.975873 4.45619e-05 0.0
1.19729 0.00467057 0.0
0.435185 -0.6156 0.0
1.22865 0.264327 0.0
0.731981 -0.163358 0.0
0.191356 -0.331 0.0
0.521537 0.160733 0.0
1.30261 0.238447 0.0
0.600541 0.153152 0.0
0.965499 -0.0109195 0.0
1.13366 -0.013639 0.0
1.07988 0.00926414 0.0
1.07066 0.00891788 0.0
0.581499 0.00761483 0.0
0.0265105 0.0821869 0.0
1.30832 0.299735 0.0
0.468103 -0.00124575 0.0
1.10063 0.00711069 0.0
0.264435 0.216219 0.0