# vtk DataFile Version 3.0
Malha 2D com triângulos e temperatura
ASCII
DATASET UNSTRUCTURED_GRID

POINTS 688 double
0 0 0
2.2 0 0
2.2 0.41 0
0 0.41 0
0.25 0.2 0
0.05 0 0
0.1 0 0
0.15 0 0
0.2 0 0
0.25 0 0
0.3 0 0
0.35 0 0
0.4 0 0
0.45 0 0
0.5 0 0
0.55 0 0
0.6 0 0
0.65 0 0
0.7 0 0
0.75 0 0
0.8 0 0
0.85 0 0
0.9 0 0
0.95 0 0
1 0 0
1.05 0 0
1.1 0 0
1.15 0 0
1.2 0 0
1.25 0 0
1.3 0 0
1.35 0 0
1.4 0 0
1.45 0 0
1.5 0 0
1.55 0 0
1.6 0 0
1.65 0 0
1.7 0 0
1.75 0 0
1.8 0 0
1.85 0 0
1.9 0 0
1.95 0 0
2 0 0
2.05 0 0
2.1 0 0
2.15 0 0
2.2 0.0455556 0
2.2 0.0911111 0
2.2 0.136667 0
2.2 0.182222 0
2.2 0.227778 0
2.2 0.273333 0
2.2 0.318889 0
2.2 0.364444 0
2.15 0.41 0
2.1 0.41 0
2.05 0.41 0
2 0.41 0
1.95 0.41 0
1.9 0.41 0
1.85 0.41 0
1.8 0.41 0
1.75 0.41 0
1.7 0.41 0
1.65 0.41 0
1.6 0.41 0
1.55 0.41 0
1.5 0.41 0
1.45 0.41 0
1.4 0.41 0
1.35 0.41 0
1.3 0.41 0
1.25 0.41 0
1.2 0.41 0
1.15 0.41 0
1.1 0.41 0
1.05 0.41 0
1 0.41 0
0.95 0.41 0
0.9 0.41 0
0.85 0.41 0
0.8 0.41 0
0.75 0.41 0
0.7 0.41 0
0.65 0.41 0
0.6 0.41 0
0.55 0.41 0
0.5 0.41 0
0.45 0.41 0
0.4 0.41 0
0.35 0.41 0
0.3 0.41 0
0.25 0.41 0
0.2 0.41 0
0.15 0.41 0
0.1 0.41 0
0.05 0.41 0
0 0.364444 0
0 0.318889 0
0 0.273333 0
0 0.227778 0
0 0.182222 0
0 0.136667 0
0 0.0911111 0
0 0.0455556 0
0.248831 0.210749 0
0.245379 0.220994 0
0.239805 0.230259 0
0.232369 0.238108 0
0.22342 0.244176 0
0.213376 0.248177 0
0.202707 0.249927 0
0.191911 0.249341 0
0.181493 0.246449 0
0.171941 0.241384 0
0.1637 0.234385 0
0.157157 0.225778 0
0.152617 0.215965 0
0.150293 0.205406 0
0.150293 0.194594 0
0.152617 0.184035 0
0.157157 0.174222 0
0.1637 0.165615 0
0.171941 0.158616 0
0.181493 0.153551 0
0.191911 0.150659 0
0.202707 0.150073 0
0.213376 0.151823 0
0.22342 0.155824 0
0.232369 0.161892 0
0.239805 0.169741 0
0.245379 0.179006 0
0.248831 0.189251 0
0.421316 0.36725 0
0.426705 0.0366526 0
2.16065 0.209201 0
1.52286 0.0417259 0
0.626017 0.37111 0
1.3257 0.0414552 0
1.02471 0.0432237 0
1.17293 0.0421053 0
0.82501 0.36678 0
1.6757 0.370064 0
1.91628 0.0358195 0
1.82501 0.366432 0
0.723429 0.0421499 0
1.425 0.366699 0
1.97461 0.366224 0
1.12167 0.370137 0
0.975 0.368691 0
0.877672 0.0412714 0
1.27686 0.36884 0
1.725 0.0433013 0
0.579174 0.0416211 0
0.325589 0.363848 0
0.319111 0.0378151 0
0.0394523 0.296111 0
0.0329929 0.11602 0
0.142108 0.187428 0
1.57555 0.364352 0
2.02603 0.0412138 0
0.725007 0.36763 0
0.528647 0.366595 0
1.62699 0.0400272 0
1.82929 0.0421255 0
1.425 0.0418325 0
2.07474 0.364233 0
0.125 0.0433013 0
0.161245 0.155011 0
0.225 0.366699 0
0.210027 0.258536 0
2.16034 0.115449 0
0.0371627 0.204103 0
0.142311 0.212698 0
0.220283 0.0418538 0
0.221965 0.145099 0
0.196802 0.141016 0
0.119851 0.373394 0
0.161112 0.245979 0
0.184892 0.258024 0
2.16342 0.30039 0
2.12627 0.047699 0
0.183325 0.0412617 0
0.152317 0.0762976 0
0.203864 0.0745802 0
0.234384 0.0774346 0
0.215969 0.103585 0
0.245651 0.104548 0
0.186562 0.100216 0
0.268213 0.0793029 0
0.272149 0.109155 0
0.242885 0.159377 0
0.253088 0.128261 0
0.278718 0.13214 0
0.295917 0.115997 0
0.301728 0.138858 0
0.321266 0.12205 0
0.324642 0.151724 0
0.255978 0.181139 0
0.350123 0.129049 0
0.357539 0.159885 0
0.333541 0.181416 0
0.36451 0.19182 0
0.250573 0.230419 0
0.391277 0.169722 0
0.339477 0.212308 0
0.39836 0.205386 0
0.427326 0.18117 0
0.258724 0.206387 0
0.434392 0.219501 0
0.466446 0.193907 0
0.472865 0.243064 0
0.507358 0.209962 0
0.40073 0.238916 0
0.499135 0.1652 0
0.5419 0.179224 0
0.550176 0.22496 0
0.585844 0.194129 0
0.594095 0.240176 0
0.630701 0.209517 0
0.621901 0.162424 0
0.667731 0.178095 0
0.676485 0.226008 0
0.713906 0.194492 0
0.722681 0.242872 0
0.760442 0.211047 0
0.751547 0.162356 0
0.798298 0.179 0
0.807147 0.227866 0
0.845136 0.195775 0
0.854541 0.243285 0
0.892163 0.212344 0
0.902461 0.257947 0
0.93935 0.228684 0
0.930236 0.180167 0
0.977229 0.197066 0
0.986264 0.245777 0
1.02423 0.213991 0
1.0331 0.263172 0
1.07123 0.230975 0
1.06234 0.181814 0
1.10938 0.198721 0
1.09996 0.151012 0
1.14691 0.168161 0
1.15631 0.215921 0
1.19446 0.183678 0
1.20343 0.232645 0
1.2416 0.200322 0
1.23272 0.151117 0
1.2798 0.167954 0
1.28868 0.217167 0
1.32685 0.184862 0
1.33573 0.234064 0
1.3739 0.201768 0
0.789327 0.130094 0
1.38279 0.25097 0
1.42096 0.218674 0
1.41207 0.169471 0
1.45912 0.186378 0
1.46801 0.235581 0
1.50618 0.203285 0
1.51506 0.252489 0
1.55323 0.220192 0
1.54435 0.170989 0
1.5914 0.187896 0
1.60029 0.2371 0
1.63846 0.204803 0
1.64734 0.254007 0
1.68551 0.221711 0
1.67663 0.172507 0
1.72368 0.189415 0
1.73831 0.241548 0
1.77074 0.206322 0
1.76185 0.157121 0
1.8091 0.17428 0
1.81866 0.220885 0
1.85608 0.190621 0
1.86521 0.238879 0
1.90289 0.207671 0
1.91264 0.253772 0
1.94955 0.224093 0
1.94067 0.17593 0
1.98705 0.192828 0
1.99572 0.240997 0
2.0329 0.209382 0
2.02422 0.16161 0
2.04166 0.257286 0
0.419739 0.142889 0
0.968291 0.148058 0
0.310035 0.202211 0
0.316128 0.230863 0
0.658501 0.130052 0
0.685107 0.27445 0
1.34462 0.283266 0
1.16528 0.264896 0
1.84735 0.142081 0
0.557687 0.270604 0
1.21234 0.281769 0
1.58252 0.138692 0
0.533563 0.131933 0
0.489835 0.120004 0
1.45024 0.137174 0
2.06974 0.17785 0
2.06113 0.130713 0
0.283221 0.152215 0
0.921299 0.131169 0
0.343836 0.24295 0
0.319203 0.260002 0
0.235529 0.249617 0
0.347029 0.274099 0
0.291856 0.246297 0
0.295938 0.27548 0
0.272836 0.264931 0
0.27461 0.290522 0
0.251228 0.280224 0
0.253903 0.305808 0
0.232795 0.296709 0
0.298805 0.304058 0
1.0801 0.280176 0
1.47689 0.284785 0
1.05315 0.133468 0
1.09741 0.0970974 0
1.82427 0.272867 0
1.2701 0.118911 0
0.816337 0.277695 0
1.40432 0.121101 0
1.04244 0.320388 0
0.959305 0.103028 0
1.60923 0.286151 0
0.601674 0.286775 0
2.00739 0.280923 0
0.342592 0.0992796 0
0.375237 0.105729 0
1.52511 0.298716 0
1.53114 0.119823 0
0.733824 0.287256 0
0.613372 0.114719 0
0.645558 0.0838585 0
2.015 0.115858 0
1.22718 0.0994086 0
1.39166 0.29817 0
1.3564 0.329754 0
0.744134 0.11556 0
0.782853 0.0841771 0
0.826899 0.10047 0
1.17418 0.314034 0
0.520902 0.0906676 0
1.4967 0.329429 0
1.26048 0.0740437 0
0.365514 0.0716355 0
0.229836 0.121666 0
1.57453 0.09137 0
1.61938 0.110761 0
0.481716 0.0753791 0
0.14093 0.2 0
0.130041 0.192847 0
0.131507 0.178608 0
0.117165 0.184444 0
0.120761 0.164701 0
0.1156 0.199931 0
0.100804 0.174136 0
0.102545 0.153034 0
0.12169 0.143342 0
0.104604 0.13008 0
0.0809304 0.161171 0
0.128077 0.121858 0
0.106825 0.102278 0
0.082498 0.188728 0
0.0314738 0.158621 0
2.04625 0.310891 0
2.08475 0.27479 0
2.11394 0.138117 0
0.233149 0.151108 0
0.258724 0.193613 0
0.268522 0.184917 0
1.65397 0.301059 0
0.145962 0.224912 0
0.132503 0.222267 0
0.13746 0.236947 0
0.120111 0.233525 0
0.126593 0.25219 0
0.105294 0.247497 0
0.113343 0.26868 0
0.133997 0.271734 0
0.121622 0.292031 0
0.147069 0.292141 0
0.0896563 0.267464 0
0.0813699 0.243294 0
0.163574 0.276939 0
0.172694 0.298517 0
0.1583 0.321483 0
0.186823 0.322499 0
0.173113 0.348195 0
0.0322087 0.250839 0
0.211694 0.124337 0
0.250615 0.169546 0
0.256243 0.157787 0
0.170796 0.14736 0
0.156755 0.141654 0
0.17187 0.131161 0
0.147502 0.152323 0
0.198129 0.260662 0
0.206368 0.271663 0
0.220945 0.26864 0
0.190489 0.270628 0
0.198813 0.286731 0
0.55749 0.322277 0
0.520166 0.299321 0
0.235199 0.330709 0
0.267109 0.337524 0
0.172324 0.25256 0
0.255974 0.218859 0
0.268327 0.214994 0
0.184197 0.143083 0
0.188721 0.129954 0
0.209694 0.139146 0
0.269223 0.244007 0
0.252374 0.255244 0
0.282229 0.0410487 0
1.21977 0.330016 0
1.25733 0.296346 0
2.09358 0.0890819 0
0.244373 0.240984 0
0.0838116 0.115786 0
0.0797544 0.0817835 0
0.237449 0.264854 0
0.247178 0.146225 0
0.270136 0.2 0
0.28023 0.191334 0
0.263476 0.170737 0
0.371486 0.368728 0
0.396124 0.330051 0
0.440314 0.325693 0
0.357693 0.329668 0
0.476576 0.362035 0
0.29587 0.222914 0
0.307627 0.175476 0
0.079599 0.0406461 0
0.146062 0.252571 0
0.15162 0.125025 0
0.417223 0.294608 0
0.457089 0.286958 0
0.036619 0.338729 0
0.0713014 0.322193 0
0.0735823 0.36704 0
0.041143 0.0722223 0
0.693501 0.32349 0
0.145406 0.175484 0
0.138777 0.164467 0
0.300367 0.0698839 0
0.167025 0.112083 0
0.146978 0.105544 0
0.151909 0.236762 0
0.444611 0.106436 0
0.909355 0.0817561 0
0.282901 0.370713 0
1.61474 0.330739 0
0.578053 0.368179 0
0.824695 0.0487848 0
2.09634 0.3213 0
2.02276 0.364865 0
2.12532 0.363702 0
1.09789 0.328757 0
0.161137 0.260089 0
2.07793 0.225752 0
2.12079 0.240944 0
2.0747 0.0437362 0
1.89402 0.158846 0
1.93154 0.128738 0
1.8848 0.111477 0
1.8384 0.0926484 0
1.87744 0.0655304 0
1.7913 0.0793874 0
1.9712 0.046671 0
1.92502 0.366682 0
1.94563 0.325156 0
1.89941 0.326645 0
1.87499 0.367178 0
1.84989 0.323491 0
1.7997 0.321303 0
1.77183 0.280326 0
1.75031 0.321965 0
1.77491 0.365615 0
2.11727 0.191885 0
0.883187 0.163467 0
1.71449 0.140266 0
1.667 0.125342 0
1.70591 0.0884759 0
1.67732 0.042286 0
1.52278 0.370513 0
1.37512 0.04128 0
1.34848 0.0834574 0
0.776093 0.367587 0
1.125 0.0433013 0
1.15 0.0866019 0
1.07442 0.0496847 0
0.974527 0.0370837 0
1.47464 0.0427918 0
1.44953 0.0873752 0
1.17595 0.362984 0
1.025 0.366699 0
0.925007 0.367031 0
0.95 0.323404 0
0.897321 0.326356 0
0.874563 0.367261 0
0.846552 0.324465 0
1.62923 0.156667 0
1.32319 0.13033 0
1.69342 0.270472 0
1.49568 0.156227 0
1.56237 0.268721 0
1.44 0.319169 0
1.43005 0.267892 0
1.36502 0.152565 0
0.993446 0.294003 0
1.30179 0.321101 0
1.18235 0.127964 0
1.25016 0.2491 0
1.29638 0.266841 0
1.11824 0.247967 0
1.12945 0.294699 0
1.01527 0.165035 0
0.836192 0.147197 0
1.4998 0.0831488 0
1.00655 0.118664 0
0.872896 0.117126 0
0.70523 0.146383 0
1.96013 0.276645 0
0.769406 0.257102 0
0.699552 0.0908977 0
2.1587 0.162257 0
1.97813 0.145326 0
0.646036 0.302035 0
0.799423 0.326603 0
0.515621 0.255445 0
1.72538 0.366474 0
1.97009 0.0998346 0
1.57108 0.313772 0
0.577925 0.14549 0
0.638911 0.256447 0
0.407352 0.0771641 0
0.525103 0.042511 0
0.674231 0.370698 0
1.69802 0.321701 0
0.56947 0.0908728 0
1.75459 0.110239 0
1.80084 0.126127 0
0.673535 0.0431435 0
1.57391 0.0465733 0
2.04571 0.0828469 0
0.10002 0.225545 0
0.0788152 0.21577 0
0.369719 0.224393 0
0.210352 0.308739 0
1.22342 0.0432967 0
[...]
CELL_DATA 1241
VECTORS velocity double
1.01885 -0.00410647 0.0
1.21611 0.0669983 0.0
0.462784 -0.000747882 0.0
0.951736 0.00240207 0.0
1.0405 0.00608104 0.0
1.4227 0.102973 0.0
1.13279 0.000180083 0.0
0.985563 -0.000840105 0.0
0.363565 0.0157175 0.0
1.17304 0.00166616 0.0
1.31247 -0.119986 0.0
1.31627 0.12653 0.0
0.865764 -0.16059 0.0
1.01381 0.00769641 0.0
0.989296 0.0071676 0.0
1.46611 -0.0326546 0.0
0.977826 0.00131019 0.0
0.479588 0.0603697 0.0
1.17142 0.0628381 0.0
1.64769 -0.254047 0.0
1.0241 0.00573187 0.0
1.05927 -0.0662482 0.0
1.03432 0.000337574 0.0
1.25313 0.904885 0.0
1.07133 -0.00210196 0.0
1.0274 0.00384197 0.0
1.29893 -0.199348 0.0
1.07616 -0.025319 0.0
1.32175 -0.0836664 0.0
1.46221 -0.0647093 0.0
1.33199 0.0902451 0.0
0.866734 -0.0370622 0.0
1.52009 0.00239468 0.0
1.01249 0.00606691 0.0
1.25553 -0.0569917 0.0
1.35878 0.156824 0.0
1.2113 -0.0557678 0.0
1.05042 -0.167829 0.0
0.359553 0.0204985 0.0
1.38207 0.14121 0.0
1.76463 -0.179613 0.0
1.41355 -0.0452537 0.0
1.05282 -0.237158 0.0
0.518688 0.00713714 0.0
1.39913 -0.167098 0.0
0.512708 -0.00551918 0.0
1.20205 0.0994558 0.0
1.11353 0.0263439 0.0
1.61304 -0.312985 0.0
1.24 -0.0107112 0.0
1.20531 0.00119423 0.0
1.29085 -0.41748 0.0
0.869852 -0.00374886 0.0
1.40794 -0.0826865 0.0
1.77536 -0.27946 0.0
1.51863 -0.0290273 0.0
1.1489 -0.0405931 0.0
1.12523 -0.000211913 0.0
1.65862 -0.0988907 0.0
1.68776 -0.199167 0.0
1.15857 0.847284 0.0
0.999075 1.81368e-06 0.0
0.196079 0.0354867 0.0
1.02966 0.00796977 0.0
-0.24027 0.0713717 0.0
1.33192 0.227556 0.0
-0.279191 0.0865132 0.0
1.16122 -0.00013334 0.0
0.861922 -0.0260146 0.0
0.218754 0.0246367 0.0
1.16211 -0.0037057 0.0
0.793768 0.0139914 0.0
1.16116 -0.00317956 0.0
0.792181 -0.0140214 0.0
1.19693 0.00768684 0.0
0.881284 0.157066 0.0
0.942887 0.00583789 0.0
1.63164 -0.0462481 0.0
0.978868 -0.0347465 0.0
0.610238 0.00100575 0.0
1.75203 -0.382894 0.0
1.15969 -0.246681 0.0
0.654047 0.0120088 0.0
1.26143 -0.227285 0.0
1.34581 0.17005 0.0
0.919321 -0.0666942 0.0
1.20759 0.178455 0.0
0.0869049 0.0987966 0.0
1.83892 0.530294 0.0
1.18359 0.00389702 0.0
1.27242 0.0100139 0.0
-0.189251 -0.0110792 0.0
-0.34783 0.0785256 0.0
1.44259 -0.064958 0.0
1.18226 -0.0414183 0.0
0.990466 0.00122831 0.0
0.849732 -0.0260624 0.0
-0.184516 0.090646 0.0
1.01527 -0.0102437 0.0
-0.243665 0.113043 0.0
1.08214 -0.0985565 0.0
1.15413 -0.0129753 0.0
0.94726 0.00124082 0.0
1.63941 -0.161135 0.0
1.74248 -0.670628 0.0
1.27318 -0.397891 0.0
1.07172 -0.0623032 0.0
0.498762 -0.0234367 0.0
1.7881 0.649618 0.0
1.21419 0.00345374 0.0
1.48508 -0.109645 0.0
1.23155 0.190058 0.0
0.131878 0.0758477 0.0
1.44146 -0.0270074 0.0
1.07976 0.0149705 0.0
1.44262 0.0400809 0.0
1.41374 0.00498635 0.0
1.39166 0.0527305 0.0
1.06305 -0.00118441 0.0
0.256017 0.0400704 0.0
1.19038 0.0420581 0.0
1.51968 0.581752 0.0
1.25172 0.108729 0.0
0.919853 -0.0634497 0.0
0.727434 -0.0996067 0.0
1.20533 0.0864779 0.0
1.4465 -0.0432171 0.0
1.11698 0.025033 0.0
1.74971 0.501354 0.0
0.549902 -0.0713128 0.0
1.16067 -0.0133287 0.0
0.617868 -0.00152985 0.0
0.885769 0.0638409 0.0
1.60313 -0.0212949 0.0
1.02022 -0.153632 0.0
-0.275914 0.0745934 0.0
0.12336 0.0621931 0.0
1.22549 0.0825923 0.0
1.04806 -0.0253422 0.0
1.66394 -0.761316 0.0
1.50088 0.00356898 0.0
1.03434 0.00455305 0.0
1.07834 -0.245023 0.0
1.00451 0.0070796 0.0
1.52382 0.00749345 0.0
0.0231259 0.0314035 0.0
-0.254403 0.0379144 0.0
-0.182123 0.0061406 0.0
0.639422 0.0149922 0.0
0.650239 -0.0121153 0.0
0.555335 -0.101524 0.0
1.0344 -0.00719962 0.0
1.79645 -0.332485 0.0
1.04858 -0.15378 0.0
1.20282 -0.0491846 0.0
1.20456 0.0544175 0.0
0.501245 -0.00038546 0.0
1.64349 0.0735602 0.0
0.857625 0.0306093 0.0
1.2471 -0.057324 0.0
-0.230568 0.0472892 0.0
1.7405 0.446389 0.0
1.14227 0.0063818 0.0
1.22204 -0.204903 0.0
1.14156 0.0346788 0.0
1.05422 0.130232 0.0
0.98656 -0.00140059 0.0
0.987069 0.109831 0.0
0.567892 -0.00304571 0.0
1.1718 -0.0347333 0.0
0.927938 -0.0248591 0.0
1.22306 0.00392308 0.0
1.36543 0.265449 0.0
1.18972 0.0869604 0.0
1.10484 0.00438267 0.0
1.11604 0.00532163 0.0
1.18253 0.198625 0.0
1.1201 -0.28759 0.0
1.11353 0.0102477 0.0
1.166 -0.225224 0.0
1.11947 0.00799743 0.0
0.363556 0.110023 0.0
1.08771 -0.644395 0.0
0.730558 -0.127079 0.0
1.02207 -0.00750576 0.0
0.76567 -0.0789749 0.0
0.762172 -0.0636481 0.0
1.02666 0.00630586 0.0
1.05545 0.0959148 0.0
0.461022 0.0470068 0.0
0.889629 -0.82994 0.0
1.77866 0.344944 0.0
1.02807 -0.00201447 0.0
0.981033 0.00744039 0.0
0.66729 0.0602066 0.0
0.853456 0.0571999 0.0
0.39773 0.0590023 0.0
1.00363 -0.0146499 0.0
1.42771 -0.0322291 0.0
1.44966 0.5814 0.0
1.15458 0.193096 0.0
1.06876 -0.0136748 0.0
1.42685 0.0383987 0.0
1.04202 -0.0926632 0.0
1.40029 -0.0918501 0.0
1.43601 -0.044701 0.0
0.483668 0.0245528 0.0
0.659493 0.0128846 0.0
0.899005 -0.0229008 0.0
0.856752 0.0336046 0.0
0.534079 0.0168677 0.0
0.522219 -0.00250597 0.0
1.79014 0.286346 0.0
1.11123 0.009748 0.0
1.44094 -0.0038349 0.0
1.12076 0.0104138 0.0
0.733369 -0.0777098 0.0
1.511 -0.091103 0.0
1.17625 -0.0311839 0.0
1.15841 -0.0112248 0.0
0.833097 -0.0495823 0.0
1.67136 -0.0702485 0.0
1.01 0.0552745 0.0
0.996565 0.011586 0.0
0.95808 -0.026271 0.0
1.22178 0.0030066 0.0
1.4352 -0.137795 0.0
1.7299 -0.600823 0.0
1.18027 -0.00613805 0.0
1.19642 -0.00981586 0.0
0.995286 -0.00110625 0.0
1.06355 -0.132775 0.0
1.02616 -0.00918888 0.0
0.994898 -0.00584626 0.0
1.25806 0.310853 0.0
1.03831 -0.256603 0.0
1.09501 0.171994 0.0
1.31851 0.132806 0.0
0.745136 -0.107025 0.0
0.355083 -0.0454536 0.0
0.958566 0.0158733 0.0
1.43871 0.0570147 0.0
1.42206 0.918306 0.0
0.682938 -0.0851856 0.0
1.14725 -0.015538 0.0
1.70431 0.140107 0.0
1.09695 -0.898594 0.0
0.868428 -0.177608 0.0
1.13918 -0.0380596 0.0
0.568392 -0.00776868 0.0
1.02596 0.0269986 0.0
0.553783 -0.00923026 0.0
1.0301 -0.00384632 0.0
1.2149 0.00381315 0.0
0.62915 -0.0117937 0.0
0.774131 -0.033811 0.0
1.09485 -0.285462 0.0
1.32563 -0.105142 0.0
1.21296 0.00168967 0.0
1.01759 -0.00155337 0.0
1.00671 0.00932965 0.0
0.517132 -0.00542611 0.0
1.21544 0.00611001 0.0
0.734704 -0.0262319 0.0
1.12628 0.0440016 0.0
0.999762 -0.00965654 0.0
0.574296 0.00384942 0.0
1.24104 -0.110382 0.0
1.22767 -0.17146 0.0
0.787625 -0.0267852 0.0
1.14049 -0.0658203 0.0
0.595906 0.00148397 0.0
0.984242 -0.0139734 0.0
0.116927 0.0677398 0.0
1.19425 0.000226386 0.0
1.19143 -0.00929369 0.0
0.606133 -0.0039942 0.0
0.943063 -0.194561 0.0
0.987027 -0.0139941 0.0
1.42974 0.154941 0.0
1.18978 0.00216216 0.0
1.22318 -0.000405051 0.0
1.22356 -0.170783 0.0
1.22503 -0.00201911 0.0
1.22332 0.0013241 0.0
1.17212 -0.0170535 0.0
0.936164 -0.114887 0.0
0.835802 0.0428644 0.0
1.22565 -0.0043387 0.0
1.22187 -0.000107419 0.0
1.21801 -0.00143816 0.0
0.634842 0.0704783 0.0
0.474695 0.00515715 0.0
0.995765 0.00998739 0.0
0.557269 -0.00740726 0.0
1.2241 -0.00451439 0.0
1.00257 -0.0165359 0.0
1.1565 0.0108694 0.0
-0.260876 -0.0269657 0.0
0.971797 -0.0101829 0.0
0.513291 -0.00392148 0.0
1.319 -0.604748 0.0
1.12185 -0.00751149 0.0
0.973146 -0.0144912 0.0
0.535736 -0.00960289 0.0
1.22352 -0.00233823 0.0
0.867259 0.0408672 0.0
0.544387 0.00158684 0.0
0.99409 -0.0137528 0.0
1.22453 -0.00489905 0.0
1.21723 -0.00215937 0.0
1.22138 -0.0021581 0.0
0.631947 -0.00672655 0.0
0.459099 0.000862928 0.0
1.22247 -0.00593959 0.0
1.1423 -0.0739487 0.0
1.19897 -0.00687395 0.0
0.614249 0.00982697 0.0
1.1808 -0.00791792 0.0
1.21489 -0.00432171 0.0
1.20265 0.00123448 0.0
1.22721 -0.0064064 0.0
0.477603 -0.00629783 0.0
1.22108 -0.00585575 0.0
1.2218 -0.00549278 0.0
1.21373 -0.00654582 0.0
0.468292 -0.00345445 0.0
1.2077 -0.0016308 0.0
1.17917 -0.00588705 0.0
1.19413 -0.000860756 0.0
1.22504 -0.00655327 0.0
1.17081 -0.158243 0.0
1.1275 0.00137834 0.0
1.22664 -0.0069023 0.0
1.3509 0.668501 0.0
1.2115 -0.00621212 0.0
0.520923 -0.00659544 0.0
1.09417 -0.0223758 0.0
0.575202 0.00801544 0.0
0.590695 -0.00942218 0.0
1.12176 0.00693233 0.0
1.09375 -0.0124956 0.0
1.06742 -0.00778528 0.0
0.528892 -0.00811146 0.0
1.0999 -0.0220657 0.0
1.1288 0.00553135 0.0
1.22421 -0.00732182 0.0
1.07491 0.13941 0.0
1.15514 -0.696852 0.0
0.559205 -0.00465736 0.0
0.517261 -0.00540453 0.0
1.2201 -0.00570859 0.0
1.22191 -0.0076359 0.0
0.616086 -0.0188166 0.0
0.505369 -0.00952412 0.0
1.21775 -0.00502291 0.0
0.99079 0.01551 0.0
1.16408 0.0109354 0.0
1.15447 -0.00665963 0.0
0.562841 0.00728555 0.0
0.514374 -0.00214265 0.0
1.14622 0.0173464 0.0
0.601522 0.0135462 0.0
0.567045 0.0143175 0.0
1.17528 0.00806135 0.0
0.617393 0.0208118 0.0
0.569509 -0.000615651 0.0
1.20917 -0.00461597 0.0
1.19748 -0.00405934 0.0
0.963038 0.0148745 0.0
1.20678 -0.002846 0.0
1.17967 -0.00310355 0.0
1.21401 -0.00376618 0.0
0.985056 0.0107086 0.0
1.15007 -0.0035485 0.0
0.611639 0.00612004 0.0
0.505805 0.0140229 0.0
0.55604 0.0133347 0.0
0.475564 -0.00840552 0.0
0.54062 0.000220411 0.0
0.561223 -0.00491132 0.0
0.527096 -0.00237343 0.0
0.636659 -0.0139197 0.0
0.553661 -0.00474263 0.0
0.57782 0.0127243 0.0
0.497357 -0.00701713 0.0
0.572056 0.0156137 0.0
0.507704 -8.68077e-05 0.0
0.676917 0.0214629 0.0
0.574946 0.0102453 0.0
0.568655 -0.0116153 0.0
0.495962 0.00233383 0.0
0.530496 -0.00194034 0.0
0.513619 0.00737635 0.0
0.608336 -0.00985387 0.0
0.544912 -0.00145441 0.0
0.598223 -0.0077702 0.0
0.555497 -0.01262 0.0
0.54397 0.00618434 0.0
0.525724 -0.000272346 0.0
0.544961 0.00316237 0.0
0.490513 -0.0165881 0.0
0.489714 0.0199306 0.0
0.489975 0.00060844 0.0
0.552903 -0.00727351 0.0
0.50152 0.00339334 0.0
0.643877 -0.0212019 0.0
0.497829 0.00550002 0.0
0.475812 0.00494629 0.0
0.518856 0.000631696 0.0
0.495355 -0.00298113 0.0
1.17823 -0.00238701 0.0
1.15895 -0.00565312 0.0
1.22036 -0.00699576 0.0
1.219 -0.00522336 0.0
1.22171 -0.00536117 0.0
1.11619 -0.0067868 0.0
1.19354 -0.006412 0.0
1.17441 -0.00577196 0.0
1.18128 0.00316793 0.0
1.15289 -0.00279876 0.0
1.20495 -0.00730171 0.0
1.20715 -0.00791058 0.0
1.17059 -0.00575173 0.0
1.21552 -0.00394159 0.0
1.19284 -0.00174371 0.0
1.2158 -0.00583445 0.0
1.18996 -0.00669512 0.0
1.15097 0.000144844 0.0
1.21257 -0.00601203 0.0
1.21812 -0.00443269 0.0
1.20437 -0.0020122 0.0
1.21637 -0.00419361 0.0
1.21137 -0.00537834 0.0
1.15423 -0.00827092 0.0
1.217 -0.00248061 0.0
1.19499 -0.00311752 0.0
1.2144 -0.00190962 0.0
1.11807 -0.000798066 0.0
1.19543 -0.00354496 0.0
1.18937 0.000367295 0.0
1.2107 -0.00198577 0.0
1.17281 -0.00105973 0.0
1.20974 -0.00257499 0.0
1.21254 -0.00260165 0.0
1.18434 0.00280971 0.0
1.21374 -0.00193447 0.0
1.2043 -0.00394925 0.0
1.2082 -0.000420726 0.0
1.1517 -0.00765256 0.0
1.17433 -0.00200956 0.0
1.21088 -0.000636178 0.0
1.2021 -0.00328702 0.0
1.20024 0.000833987 0.0
1.19746 0.00224377 0.0
1.16292 -0.0125243 0.0
1.20941 -0.000429356 0.0
1.20628 -5.73543e-05 0.0
1.13573 -0.00515939 0.0
1.19116 -0.00406789 0.0
1.11947 0.00377907 0.0
1.17771 -0.00389061 0.0
1.18884 -0.00365099 0.0
1.20018 -0.00363163 0.0
1.20673 -0.00154596 0.0
1.1738 -0.00397717 0.0
1.20346 -0.00348504 0.0
1.20324 -0.00126138 0.0
1.2057 -1.47704e-05 0.0
1.20112 0.00193781 0.0
1.19802 0.00227711 0.0
1.19656 0.00297797 0.0
1.18441 0.00468761 0.0
1.13464 -0.00551236 0.0
1.09342 0.00619141 0.0
1.18043 0.00610108 0.0
1.20197 0.000419834 0.0
0.572523 -0.00620964 0.0
1.18766 0.00459111 0.0
1.14866 0.00617187 0.0
1.17073 0.0064709 0.0
1.20019 0.00231293 0.0
1.1686 0.00626322 0.0
1.18148 0.00523464 0.0
1.17474 0.000277875 0.0
1.19172 0.00455561 0.0
1.18054 -0.000692736 0.0
1.13179 -0.0043738 0.0
1.13227 -0.00716843 0.0
1.15686 -0.00424235 0.0
1.18841 0.00582702 0.0
1.17624 -0.00379723 0.0
1.18779 0.00314138 0.0
1.16843 -0.00339591 0.0
1.18467 -0.00357841 0.0
1.19155 0.00252258 0.0
1.18536 0.00546779 0.0
0.983079 -0.0120379 0.0
1.17265 -0.00305352 0.0
1.17818 0.00727196 0.0
1.14602 0.00773606 0.0
1.19085 -0.00223621 0.0
1.19543 6.84628e-05 0.0
1.07886 -0.0178676 0.0
1.16815 0.010461 0.0
1.1801 -0.00323385 0.0
1.14804 0.0141347 0.0
1.19131 -0.000111151 0.0
1.15138 0.0179212 0.0
1.17037 -0.00413119 0.0
1.19415 -0.00226512 0.0
1.1773 -0.000896202 0.0
1.11938 0.17655 0.0
1.15304 -0.00673487 0.0
1.21505 -0.0082689 0.0
1.17413 0.00902933 0.0
1.17875 0.00117822 0.0
1.15829 -0.0130767 0.0
1.16274 -0.00305707 0.0
1.139 -0.00246129 0.0
1.162 -0.00915241 0.0
1.1717 0.00255794 0.0
1.14068 -0.000629139 0.0
1.1667 0.00224493 0.0
1.16654 -0.00644921 0.0
1.1651 -0.00235132 0.0
1.15262 0.0119638 0.0
1.16376 -0.00514373 0.0
0.716591 -0.0206355 0.0
0.975351 0.00352959 0.0
1.148 0.0142458 0.0
1.15137 0.0093457 0.0
1.1585 -0.00759366 0.0
1.14167 0.0118448 0.0
1.14933 0.0141373 0.0
1.14924 -0.00240144 0.0
1.13173 0.000857505 0.0
1.14404 -0.00318075 0.0
1.13783 0.000927388 0.0
1.12509 0.0121799 0.0
1.16216 0.00551695 0.0
1.15608 0.00843182 0.0
0.997372 0.00716585 0.0
1.15755 0.00572276 0.0
1.15979 0.0112899 0.0
1.1517 0.0118692 0.0
1.11826 0.015264 0.0
1.13641 0.0156841 0.0
1.15672 0.0122639 0.0
1.73556 0.181473 0.0
1.12369 -0.010629 0.0
1.13032 0.0195089 0.0
1.10266 -0.0225712 0.0
1.14995 0.0222426 0.0
1.15017 0.0162333 0.0
1.11717 -0.0129726 0.0
1.14795 0.0222495 0.0
1.21436 -0.00495884 0.0
1.07231 -0.00927188 0.0
1.09751 0.0154858 0.0
1.10113 -0.00696346 0.0
1.30697 0.126474 0.0
1.21062 -0.00510548 0.0
1.08057 -0.001696 0.0
1.15307 -0.00752413 0.0
1.14217 0.0285323 0.0
1.14718 0.0228447 0.0
1.09346 -0.00854851 0.0
1.09665 -0.0275906 0.0
0.983333 -0.0140352 0.0
1.18661 -0.000301022 0.0
1.07082 0.000662063 0.0
1.08067 0.000188883 0.0
1.12352 0.0249094 0.0
1.11715 -0.0270816 0.0
1.0299 0.198334 0.0
0.96499 -0.0143258 0.0
1.1382 0.0341311 0.0
0.442813 -0.164536 0.0
1.38168 0.131836 0.0
1.18163 -0.0527158 0.0
1.06836 0.0104069 0.0
1.06891 0.0259432 0.0
1.05693 0.0365426 0.0
1.21005 -0.000878266 0.0
1.05567 0.0144057 0.0
1.03977 -0.0444345 0.0
1.30216 0.175935 0.0
1.00403 -0.14279 0.0
1.03469 -0.058115 0.0
1.15209 -0.133731 0.0
1.14529 -0.0117397 0.0
1.09684 -0.0484815 0.0
1.17625 -0.0033236 0.0
0.939583 0.00178411 0.0
1.18132 0.054518 0.0
1.01152 -0.0140025 0.0
1.23809 -0.102269 0.0
1.2095 -0.00523454 0.0
1.19867 -0.00626743 0.0
1.05863 -0.0201974 0.0
1.39841 -0.567457 0.0
1.13362 0.0837864 0.0
0.998009 -0.0203076 0.0
1.13396 0.0672704 0.0
0.960336 0.00149443 0.0
0.756488 0.0282627 0.0
1.0918 0.0452762 0.0
1.32725 -0.160595 0.0
0.934596 -0.0911361 0.0
1.1005 -0.0400681 0.0
0.632644 -0.556556 0.0
1.10761 -0.0284128 0.0
1.11372 -0.00634787 0.0
1.15111 -0.00711086 0.0
1.39096 -0.139804 0.0
1.08228 0.0602776 0.0
1.17608 -0.00262475 0.0
1.05023 -0.0263923 0.0
1.16459 0.03665 0.0
0.989494 -0.0167491 0.0
1.35 -0.771803 0.0
1.2171 0.00470872 0.0
1.17999 0.0520283 0.0
1.19473 0.00298266 0.0
1.12484 -0.000460023 0.0
1.18067 -0.0570777 0.0
1.0663 0.0203603 0.0
1.20959 0.0817255 0.0
1.12185 -0.0079547 0.0
1.15995 0.0446085 0.0
0.961555 0.00161477 0.0
1.14744 0.0109524 0.0
1.18053 -0.531654 0.0
0.65668 -0.00624999 0.0
0.678791 -0.0234271 0.0
0.927861 0.0272327 0.0
1.26641 0.120085 0.0
1.15091 -0.00608466 0.0
1.17852 -0.00535587 0.0
0.604535 0.0103072 0.0
1.19721 -0.00581838 0.0
0.329045 -0.123615 0.0
1.07428 -0.0996102 0.0
0.559887 0.00845061 0.0
0.565031 -0.0115581 0.0
0.902185 0.0403496 0.0
1.1549 -0.00556351 0.0
0.863951 -0.174336 0.0
0.854351 -0.0248035 0.0
1.68892 -0.124852 0.0
0.940945 0.0374737 0.0
1.14962 -0.0105601 0.0
1.15032 -0.0120622 0.0
1.05196 0.00791089 0.0
1.21487 0.00362932 0.0
1.17378 0.00139951 0.0
1.18512 0.348307 0.0
0.618419 0.0175633 0.0
1.01732 0.00252541 0.0
1.36868 -0.0982371 0.0
0.538382 0.00728488 0.0
1.58079 0.560883 0.0
0.936353 -0.0420247 0.0
0.799053 -0.026844 0.0
1.34058 0.0884862 0.0
0.784255 -0.0538848 0.0
0.955657 -0.000464526 0.0
0.669011 -0.11653 0.0
1.1579 -0.0168123 0.0
0.880886 0.0995998 0.0
1.13891 -0.0146179 0.0
0.661438 -0.00415736 0.0
1.02843 0.00566526 0.0
0.981925 0.136546 0.0
1.40964 -0.0329553 0.0
0.52286 -0.00328073 0.0
0.638792 -0.0245139 0.0
0.918753 0.805424 0.0
1.10985 -0.00105703 0.0
1.05128 0.0116855 0.0
1.39221 0.0134189 0.0
0.599954 -0.0107 0.0
1.13192 0.0176733 0.0
1.16666 -0.448623 0.0
0.186483 0.0223926 0.0
0.927328 -0.0634583 0.0
1.07135 -0.0837144 0.0
0.733904 0.0240503 0.0
0.521074 0.01798 0.0
1.64888 0.0360922 0.0
1.15319 -0.00584252 0.0
0.311487 0.0152309 0.0
0.573803 0.0250937 0.0
1.1438 -0.0056649 0.0
1.19878 -0.00614097 0.0
1.00225 -0.0173635 0.0
0.940335 0.0626109 0.0
1.20918 0.17251 0.0
0.637632 0.0110029 0.0
1.19733 0.00788632 0.0
0.921565 0.0929858 0.0
1.20233 -0.00742145 0.0
1.38802 -0.593456 0.0
0.520599 0.000618921 0.0
1.45908 -0.130331 0.0
1.10997 0.00716703 0.0
0.955175 -0.0136701 0.0
0.621556 0.0903191 0.0
0.992883 0.102185 0.0
0.89747 0.139859 0.0
1.11231 0.00830847 0.0
1.21655 -0.0584031 0.0
1.39921 -0.0369456 0.0
0.583129 0.00482367 0.0
0.60712 0.0150035 0.0
1.07477 -0.00344504 0.0
0.40454 -0.0728907 0.0
1.04343 0.03667 0.0
0.495313 0.00369242 0.0
0.967515 -0.0111243 0.0
1.11063 -0.00440758 0.0
0.946341 -0.00938304 0.0
0.554809 -0.00631836 0.0
0.554628 0.0193877 0.0
0.569249 0.00891694 0.0
0.527629 0.00724877 0.0
0.587437 0.0107305 0.0
1.21072 0.669571 0.0
1.36068 0.0694261 0.0
0.964682 -0.00256169 0.0
0.549703 0.00765726 0.0
0.561425 -0.0124782 0.0
0.69769 0.0252042 0.0
1.15513 -0.0478541 0.0
0.616185 0.00130335 0.0
1.604 -0.193014 0.0
1.29521 0.0957499 0.0
0.5383 -0.140668 0.0
1.34461 -0.0940246 0.0
1.52685 -0.466799 0.0
1.00862 0.00471008 0.0
1.09053 0.0180622 0.0
1.1437 -0.0123537 0.0
0.963502 0.00198709 0.0
0.837072 -0.689241 0.0
1.0243 -0.00106644 0.0
0.979007 -0.00505984 0.0
1.19773 -0.0116574 0.0
1.12011 -0.0345495 0.0
1.64814 -0.000478305 0.0
-0.12022 0.0981266 0.0
0.508148 -0.0688819 0.0
1.33617 0.518151 0.0
1.07473 -0.0118739 0.0
0.606905 -0.0114201 0.0
0.579427 -0.00504824 0.0
0.575258 -0.00543938 0.0
1.21526 0.00576862 0.0
0.634706 0.211683 0.0
1.1746 -0.0249377 0.0
0.977618 0.0112276 0.0
0.752218 0.163548 0.0
1.12478 -0.00265704 0.0
0.14042 -0.0100881 0.0
1.18397 0.00596998 0.0
0.569685 0.0207905 0.0
0.56685 -0.00994177 0.0
1.34038 0.0858147 0.0
0.846602 -0.0109085 0.0
1.50654 0.0322956 0.0
0.975658 0.0139517 0.0
0.992088 0.010125 0.0
0.113068 -0.166217 0.0
0.975759 0.0282855 0.0
1.17074 0.0125725 0.0
1.15315 0.0126581 0.0
0.356668 -0.136489 0.0
1.61653 -0.273161 0.0
1.0926 6.39388e-05 0.0
1.28784 0.195489 0.0
0.594437 -0.0134309 0.0
0.562879 -0.00704138 0.0
1.12329 -0.016806 0.0
0.532556 0.0898757 0.0
1.12726 -0.027488 0.0
0.808151 0.021947 0.0
0.93519 -0.00945683 0.0
1.1313 0.0116188 0.0
0.999537 -0.00380294 0.0
0.201883 -0.0209009 0.0
1.14588 -0.0121255 0.0
0.310132 0.0603458 0.0
1.01293 -0.00153779 0.0
1.00475 -0.00377408 0.0
0.578557 -0.0159336 0.0
1.06918 -0.00916293 0.0
1.17468 -0.0249996 0.0
0.952516 -9.42897e-05 0.0
0.99147 -0.0123792 0.0
1.20026 -0.964642 0.0
1.13188 0.0224397 0.0
1.69272 0.486858 0.0
0.563631 -0.0159077 0.0
0.554113 0.00643773 0.0
1.16633 0.00481334 0.0
1.22132 -0.00601794 0.0
1.11256 -0.00746411 0.0
1.1222 -0.00086387 0.0
1.17903 0.00470912 0.0
1.13051 0.00420471 0.0
1.21203 -0.00826977 0.0
1.15066 0.0261311 0.0
-0.197525 0.0187864 0.0
1.10238 0.0151673 0.0
-0.0235825 0.0298613 0.0
0.660719 -0.0255155 0.0
1.20469 -0.177871 0.0
1.14406 -0.010319 0.0
1.36822 -0.13841 0.0
1.64635 -0.502371 0.0
0.314249 -0.0181105 0.0
1.20547 -0.0073033 0.0
1.12899 0.271982 0.0
1.35052 -0.0986554 0.0
1.07137 0.305674 0.0
1.70955 0.0866422 0.0
0.975258 -0.542467 0.0
1.37208 0.132323 0.0
1.1224 -0.0163697 0.0
1.28965 -0.480971 0.0
-0.0863857 -0.108558 0.0
1.05784 0.000872967 0.0
1.31866 -0.394829 0.0
0.506448 -0.00476276 0.0
1.41857 -0.149835 0.0
1.68461 0.198289 0.0
1.09084 0.0119936 0.0
0.410758 0.0151178 0.0
0.717038 0.00180816 0.0
0.267875 -0.22848 0.0
0.956231 0.046055 0.0
-0.117771 -0.0302279 0.0
1.14686 -0.162791 0.0
1.4961 0.14419 0.0
0.53288 0.00904998 0.0
1.22906 -0.0692832 0.0
0.97076 0.000325439 0.0
1.20691 0.00504528 0.0
0.43516 -0.615542 0.0
1.22864 0.26436 0.0
0.730213 -0.162811 0.0
0.191342 -0.330952 0.0
0.518844 0.160721 0.0
1.3026 0.238482 0.0
0.598764 0.152534 0.0
0.966376 -0.0118418 0.0
1.13729 -0.0150633 0.0
1.08166 0.0108385 0.0
1.07428 0.00921048 0.0
0.574196 0.00757698 0.0
0.0247116 0.0821642 0.0
1.30831 0.299771 0.0
0.464788 -0.00180606 0.0
1.10101 0.00846499 0.0
0.264439 0.216259 0.0
0.97797 -0.00352998 0.0
1.39751 0.501197 0.0