# vtk DataFile Version 3.0
Malha 2D com triângulos e temperatura
ASCII
DATASET UNSTRUCTURED_GRID

POINTS 688 double
0 0 0
2.2 0 0
2.2 0.41 0
0 0.41 0
0.25 0.2 0
0.05 0 0
0.1 0 0
0.15 0 0
0.2 0 0
0.25 0 0
0.3 0 0
0.35 0 0
0.4 0 0
0.45 0 0
0.5 0 0
0.55 0 0
0.6 0 0
0.65 0 0
0.7 0 0
0.75 0 0
0.8 0 0
0.85 0 0
0.9 0 0
0.95 0 0
1 0 0
1.05 0 0
1.1 0 0
1.15 0 0
1.2 0 0
1.25 0 0
1.3 0 0
1.35 0 0
1.4 0 0
1.45 0 0
1.5 0 0
1.55 0 0
1.6 0 0
1.65 0 0
1.7 0 0
1.75 0 0
1.8 0 0
1.85 0 0
1.9 0 0
1.95 0 0
2 0 0
2.05 0 0
2.1 0 0
2.15 0 0
2.2 0.0455556 0
2.2 0.0911111 0
2.2 0.136667 0
2.2 0.182222 0
2.2 0.227778 0
2.2 0.273333 0
2.2 0.318889 0
2.2 0.364444 0
2.15 0.41 0
2.1 0.41 0
2.05 0.41 0
2 0.41 0
1.95 0.41 0
1.9 0.41 0
1.85 0.41 0
1.8 0.41 0
1.75 0.41 0
1.7 0.41 0
1.65 0.41 0
1.6 0.41 0
1.55 0.41 0
1.5 0.41 0
1.45 0.41 0
1.4 0.41 0
1.35 0.41 0
1.3 0.41 0
1.25 0.41 0
1.2 0.41 0
1.15 0.41 0
1.1 0.41 0
1.05 0.41 0
1 0.41 0
0.95 0.41 0
0.9 0.41 0
0.85 0.41 0
0.8 0.41 0
0.75 0.41 0
0.7 0.41 0
0.65 0.41 0
0.6 0.41 0
0.55 0.41 0
0.5 0.41 0
0.45 0.41 0
0.4 0.41 0
0.35 0.41 0
0.3 0.41 0
0.25 0.41 0
0.2 0.41 0
0.15 0.41 0
0.1 0.41 0
0.05 0.41 0
0 0.364444 0
0 0.318889 0
0 0.273333 0
0 0.227778 0
0 0.182222 0
0 0.136667 0
0 0.0911111 0
0 0.0455556 0
0.248831 0.210749 0
0.245379 0.220994 0
0.239805 0.230259 0
0.232369 0.238108 0
0.22342 0.244176 0
0.213376 0.248177 0
0.202707 0.249927 0
0.191911 0.249341 0
0.181493 0.246449 0
0.171941 0.241384 0
0.1637 0.234385 0
0.157157 0.225778 0
0.152617 0.215965 0
0.150293 0.205406 0
0.150293 0.194594 0
0.152617 0.184035 0
0.157157 0.174222 0
0.1637 0.165615 0
0.171941 0.158616 0
0.181493 0.153551 0
0.191911 0.150659 0
0.202707 0.150073 0
0.213376 0.151823 0
0.22342 0.155824 0
0.232369 0.161892 0
0.239805 0.169741 0
0.245379 0.179006 0
0.248831 0.189251 0
0.421316 0.36725 0
0.426705 0.0366526 0
2.16065 0.209201 0
1.52286 0.0417259 0
0.626017 0.37111 0
1.3257 0.0414552 0
1.02471 0.0432237 0
1.17293 0.0421053 0
0.82501 0.36678 0
1.6757 0.370064 0
1.91628 0.0358195 0
1.82501 0.366432 0
0.723429 0.0421499 0
1.425 0.366699 0
1.97461 0.366224 0
1.12167 0.370137 0
0.975 0.368691 0
0.877672 0.0412714 0
1.27686 0.36884 0
1.725 0.0433013 0
0.579174 0.0416211 0
0.325589 0.363848 0
0.319111 0.0378151 0
0.0394523 0.296111 0
0.0329929 0.11602 0
0.142108 0.187428 0
1.57555 0.364352 0
2.02603 0.0412138 0
0.725007 0.36763 0
0.528647 0.366595 0
1.62699 0.0400272 0
1.82929 0.0421255 0
1.425 0.0418325 0
2.07474 0.364233 0
0.125 0.0433013 0
0.161245 0.155011 0
0.225 0.366699 0
0.210027 0.258536 0
2.16034 0.115449 0
0.0371627 0.204103 0
0.142311 0.212698 0
0.220283 0.0418538 0
0.221965 0.145099 0
0.196802 0.141016 0
0.119851 0.373394 0
0.161112 0.245979 0
0.184892 0.258024 0
2.16342 0.30039 0
2.12627 0.047699 0
0.183325 0.0412617 0
0.152317 0.0762976 0
0.203864 0.0745802 0
0.234384 0.0774346 0
0.215969 0.103585 0
0.245651 0.104548 0
0.186562 0.100216 0
0.268213 0.0793029 0
0.272149 0.109155 0
0.242885 0.159377 0
0.253088 0.128261 0
0.278718 0.13214 0
0.295917 0.115997 0
0.301728 0.138858 0
0.321266 0.12205 0
0.324642 0.151724 0
0.255978 0.181139 0
0.350123 0.129049 0
0.357539 0.159885 0
0.333541 0.181416 0
0.36451 0.19182 0
0.250573 0.230419 0
0.391277 0.169722 0
0.339477 0.212308 0
0.39836 0.205386 0
0.427326 0.18117 0
0.258724 0.206387 0
0.434392 0.219501 0
0.466446 0.193907 0
0.472865 0.243064 0
0.507358 0.209962 0
0.40073 0.238916 0
0.499135 0.1652 0
0.5419 0.179224 0
0.550176 0.22496 0
0.585844 0.194129 0
0.594095 0.240176 0
0.630701 0.209517 0
0.621901 0.162424 0
0.667731 0.178095 0
0.676485 0.226008 0
0.713906 0.194492 0
0.722681 0.242872 0
0.760442 0.211047 0
0.751547 0.162356 0
0.798298 0.179 0
0.807147 0.227866 0
0.845136 0.195775 0
0.854541 0.243285 0
0.892163 0.212344 0
0.902461 0.257947 0
0.93935 0.228684 0
0.930236 0.180167 0
0.977229 0.197066 0
0.986264 0.245777 0
1.02423 0.213991 0
1.0331 0.263172 0
1.07123 0.230975 0
1.06234 0.181814 0
1.10938 0.198721 0
1.09996 0.151012 0
1.14691 0.168161 0
1.15631 0.215921 0
1.19446 0.183678 0
1.20343 0.232645 0
1.2416 0.200322 0
1.23272 0.151117 0
1.2798 0.167954 0
1.28868 0.217167 0
1.32685 0.184862 0
1.33573 0.234064 0
1.3739 0.201768 0
0.789327 0.130094 0
1.38279 0.25097 0
1.42096 0.218674 0
1.41207 0.169471 0
1.45912 0.186378 0
1.46801 0.235581 0
1.50618 0.203285 0
1.51506 0.252489 0
1.55323 0.220192 0
1.54435 0.170989 0
1.5914 0.187896 0
1.60029 0.2371 0
1.63846 0.204803 0
1.64734 0.254007 0
1.68551 0.221711 0
1.67663 0.172507 0
1.72368 0.189415 0
1.73831 0.241548 0
1.77074 0.206322 0
1.76185 0.157121 0
1.8091 0.17428 0
1.81866 0.220885 0
1.85608 0.190621 0
1.86521 0.238879 0
1.90289 0.207671 0
1.91264 0.253772 0
1.94955 0.224093 0
1.94067 0.17593 0
1.98705 0.192828 0
1.99572 0.240997 0
2.0329 0.209382 0
2.02422 0.16161 0
2.04166 0.257286 0
0.419739 0.142889 0
0.968291 0.148058 0
0.310035 0.202211 0
0.316128 0.230863 0
0.658501 0.130052 0
0.685107 0.27445 0
1.34462 0.283266 0
1.16528 0.264896 0
1.84735 0.142081 0
0.557687 0.270604 0
1.21234 0.281769 0
1.58252 0.138692 0
0.533563 0.131933 0
0.489835 0.120004 0
1.45024 0.137174 0
2.06974 0.17785 0
2.06113 0.130713 0
0.283221 0.152215 0
0.921299 0.131169 0
0.343836 0.24295 0
0.319203 0.260002 0
0.235529 0.249617 0
0.347029 0.274099 0
0.291856 0.246297 0
0.295938 0.27548 0
0.272836 0.264931 0
0.27461 0.290522 0
0.251228 0.280224 0
0.253903 0.305808 0
0.232795 0.296709 0
0.298805 0.304058 0
1.0801 0.280176 0
1.47689 0.284785 0
1.05315 0.133468 0
1.09741 0.0970974 0
1.82427 0.272867 0
1.2701 0.118911 0
0.816337 0.277695 0
1.40432 0.121101 0
1.04244 0.320388 0
0.959305 0.103028 0
1.60923 0.286151 0
0.601674 0.286775 0
2.00739 0.280923 0
0.342592 0.0992796 0
0.375237 0.105729 0
1.52511 0.298716 0
1.53114 0.119823 0
0.733824 0.287256 0
0.613372 0.114719 0
0.645558 0.0838585 0
2.015 0.115858 0
1.22718 0.0994086 0
1.39166 0.29817 0
1.3564 0.329754 0
0.744134 0.11556 0
0.782853 0.0841771 0
0.826899 0.10047 0
1.17418 0.314034 0
0.520902 0.0906676 0
1.4967 0.329429 0
1.26048 0.0740437 0
0.365514 0.0716355 0
0.229836 0.121666 0
1.57453 0.09137 0
1.61938 0.110761 0
0.481716 0.0753791 0
0.14093 0.2 0
0.130041 0.192847 0
0.131507 0.178608 0
0.117165 0.184444 0
0.120761 0.164701 0
0.1156 0.199931 0
0.100804 0.174136 0
0.102545 0.153034 0
0.12169 0.143342 0
0.104604 0.13008 0
0.0809304 0.161171 0
0.128077 0.121858 0
0.106825 0.102278 0
0.082498 0.188728 0
0.0314738 0.158621 0
2.04625 0.310891 0
2.08475 0.27479 0
2.11394 0.138117 0
0.233149 0.151108 0
0.258724 0.193613 0
0.268522 0.184917 0
1.65397 0.301059 0
0.145962 0.224912 0
0.132503 0.222267 0
0.13746 0.236947 0
0.120111 0.233525 0
0.126593 0.25219 0
0.105294 0.247497 0
0.113343 0.26868 0
0.133997 0.271734 0
0.121622 0.292031 0
0.147069 0.292141 0
0.0896563 0.267464 0
0.0813699 0.243294 0
0.163574 0.276939 0
0.172694 0.298517 0
0.1583 0.321483 0
0.186823 0.322499 0
0.173113 0.348195 0
0.0322087 0.250839 0
0.211694 0.124337 0
0.250615 0.169546 0
0.256243 0.157787 0
0.170796 0.14736 0
0.156755 0.141654 0
0.17187 0.131161 0
0.147502 0.152323 0
0.198129 0.260662 0
0.206368 0.271663 0
0.220945 0.26864 0
0.190489 0.270628 0
0.198813 0.286731 0
0.55749 0.322277 0
0.520166 0.299321 0
0.235199 0.330709 0
0.267109 0.337524 0
0.172324 0.25256 0
0.255974 0.218859 0
0.268327 0.214994 0
0.184197 0.143083 0
0.188721 0.129954 0
0.209694 0.139146 0
0.269223 0.244007 0
0.252374 0.255244 0
0.282229 0.0410487 0
1.21977 0.330016 0
1.25733 0.296346 0
2.09358 0.0890819 0
0.244373 0.240984 0
0.0838116 0.115786 0
0.0797544 0.0817835 0
0.237449 0.264854 0
0.247178 0.146225 0
0.270136 0.2 0
0.28023 0.191334 0
0.263476 0.170737 0
0.371486 0.368728 0
0.396124 0.330051 0
0.440314 0.325693 0
0.357693 0.329668 0
0.476576 0.362035 0
0.29587 0.222914 0
0.307627 0.175476 0
0.079599 0.0406461 0
0.146062 0.252571 0
0.15162 0.125025 0
0.417223 0.294608 0
0.457089 0.286958 0
0.036619 0.338729 0
0.0713014 0.322193 0
0.0735823 0.36704 0
0.041143 0.0722223 0
0.693501 0.32349 0
0.145406 0.175484 0
0.138777 0.164467 0
0.300367 0.0698839 0
0.167025 0.112083 0
0.146978 0.105544 0
0.151909 0.236762 0
0.444611 0.106436 0
0.909355 0.0817561 0
0.282901 0.370713 0
1.61474 0.330739 0
0.578053 0.368179 0
0.824695 0.0487848 0
2.09634 0.3213 0
2.02276 0.364865 0
2.12532 0.363702 0
1.09789 0.328757 0
0.161137 0.260089 0
2.07793 0.225752 0
2.12079 0.240944 0
2.0747 0.0437362 0
1.89402 0.158846 0
1.93154 0.128738 0
1.8848 0.111477 0
1.8384 0.0926484 0
1.87744 0.0655304 0
1.7913 0.0793874 0
1.9712 0.046671 0
1.92502 0.366682 0
1.94563 0.325156 0
1.89941 0.326645 0
1.87499 0.367178 0
1.84989 0.323491 0
1.7997 0.321303 0
1.77183 0.280326 0
1.75031 0.321965 0
1.77491 0.365615 0
2.11727 0.191885 0
0.883187 0.163467 0
1.71449 0.140266 0
1.667 0.125342 0
1.70591 0.0884759 0
1.67732 0.042286 0
1.52278 0.370513 0
1.37512 0.04128 0
1.34848 0.0834574 0
0.776093 0.367587 0
1.125 0.0433013 0
1.15 0.0866019 0
1.07442 0.0496847 0
0.974527 0.0370837 0
1.47464 0.0427918 0
1.44953 0.0873752 0
1.17595 0.362984 0
1.025 0.366699 0
0.925007 0.367031 0
0.95 0.323404 0
0.897321 0.326356 0
0.874563 0.367261 0
0.846552 0.324465 0
1.62923 0.156667 0
1.32319 0.13033 0
1.69342 0.270472 0
1.49568 0.156227 0
1.56237 0.268721 0
1.44 0.319169 0
1.43005 0.267892 0
1.36502 0.152565 0
0.993446 0.294003 0
1.30179 0.321101 0
1.18235 0.127964 0
1.25016 0.2491 0
1.29638 0.266841 0
1.11824 0.247967 0
1.12945 0.294699 0
1.01527 0.165035 0
0.836192 0.147197 0
1.4998 0.0831488 0
1.00655 0.118664 0
0.872896 0.117126 0
0.70523 0.146383 0
1.96013 0.276645 0
0.769406 0.257102 0
0.699552 0.0908977 0
2.1587 0.162257 0
1.97813 0.145326 0
0.646036 0.302035 0
0.799423 0.326603 0
0.515621 0.255445 0
1.72538 0.366474 0
1.97009 0.0998346 0
1.57108 0.313772 0
0.577925 0.14549 0
0.638911 0.256447 0
0.407352 0.0771641 0
0.525103 0.042511 0
0.674231 0.370698 0
1.69802 0.321701 0
0.56947 0.0908728 0
1.75459 0.110239 0
1.80084 0.126127 0
0.673535 0.0431435 0
1.57391 0.0465733 0
2.04571 0.0828469 0
0.10002 0.225545 0
0.0788152 0.21577 0
0.369719 0.224393 0
0.210352 0.308739 0
1.22342 0.0432967 0
[...]
CELL_DATA 1241
VECTORS velocity double
2.081 -0.400628 0.0
1.02623 -0.0306636 0.0
0.754603 -0.0134716 0.0
1.53442 0.68015 0.0
1.02913 -0.00913312 0.0
1.24345 -0.0353546 0.0
0.702535 0.000452309 0.0
0.710503 -0.0192799 0.0
0.938929 -0.472907 0.0
0.702301 -0.0228148 0.0
1.27576 -0.246826 0.0
1.27273 0.243039 0.0
0.884014 -0.28136 0.0
1.02181 0.0133453 0.0
1.02089 -0.0189192 0.0
1.21519 0.0849397 0.0
1.00799 -0.0251053 0.0
0.819605 0.0998238 0.0
1.00673 -0.0307364 0.0
1.40187 -0.0135084 0.0
0.801391 -0.0239951 0.0
1.16416 0.0351307 0.0
1.0172 -0.0198999 0.0
1.10312 0.765941 0.0
1.24333 0.399923 0.0
0.802968 -0.0445345 0.0
1.26269 -0.0694171 0.0
1.16438 0.00656033 0.0
1.29565 -0.216458 0.0
1.22242 0.071102 0.0
1.28563 0.221164 0.0
0.988999 -0.0102751 0.0
1.15542 -0.09465 0.0
1.02665 -0.00154868 0.0
1.03462 0.0182179 0.0
1.26009 0.0121634 0.0
1.02427 -0.000452205 0.0
1.00109 -0.350022 0.0
0.656599 0.0710196 0.0
1.26528 0.00836983 0.0
1.45531 0.134859 0.0
1.38536 0.319529 0.0
1.09493 -0.223517 0.0
0.767918 -0.0123467 0.0
1.28205 -0.00890345 0.0
0.794801 -0.009021 0.0
1.02629 0.0231436 0.0
1.01754 -0.014005 0.0
1.39147 -0.0742182 0.0
1.20976 -0.367863 0.0
0.715443 -0.0298419 0.0
1.19116 -0.365909 0.0
1.27327 -0.399071 0.0
1.05141 -0.0288666 0.0
1.55535 0.0514887 0.0
1.13421 -0.0682344 0.0
1.01447 -0.0154735 0.0
0.719315 -0.0371797 0.0
1.39416 0.226026 0.0
1.37884 0.0632242 0.0
1.01356 0.70808 0.0
0.724767 0.022216 0.0
0.742431 -0.35195 0.0
0.812285 -0.029875 0.0
0.549288 -0.0869081 0.0
1.20055 0.288782 0.0
0.623483 0.0707135 0.0
0.794909 -0.0605823 0.0
0.977312 0.00425969 0.0
0.728311 0.284187 0.0
0.843889 -0.0890256 0.0
1.15695 -0.450738 0.0
0.852909 -0.0632518 0.0
0.956627 -0.362343 0.0
0.753521 -0.0273134 0.0
0.939433 0.221195 0.0
1.0122 -0.00349393 0.0
1.31496 0.241892 0.0
1.01708 -0.0201217 0.0
0.950298 -0.00124153 0.0
1.50513 -0.124245 0.0
1.18002 -0.210237 0.0
0.973622 0.00893963 0.0
1.25419 -0.109441 0.0
1.24543 0.232396 0.0
1.15988 -0.0294136 0.0
1.01256 0.0160899 0.0
0.825658 0.150498 0.0
1.61755 0.264124 0.0
0.753797 -0.0129592 0.0
1.2947 -0.361729 0.0
0.486292 0.168953 0.0
0.734652 -0.00144809 0.0
1.08637 -0.0293726 0.0
0.999086 0.0108363 0.0
0.73366 -0.0238767 0.0
1.05294 -0.423745 0.0
0.696204 -0.134626 0.0
1.02484 0.00405649 0.0
0.653836 0.0810126 0.0
1.0577 -0.29833 0.0
0.955461 -0.0500209 0.0
1.02911 -0.0188037 0.0
1.5606 0.164592 0.0
1.62646 -0.486968 0.0
1.16588 -0.375952 0.0
1.0272 -0.295934 0.0
0.867586 0.377532 0.0
1.66401 0.448271 0.0
0.724745 -0.0248158 0.0
1.06252 -0.0673737 0.0
1.02309 0.0329603 0.0
0.756217 -0.219208 0.0
1.38952 -0.088607 0.0
1.12075 0.0177877 0.0
1.38795 0.0988335 0.0
1.15585 0.0719164 0.0
1.20768 -0.0561994 0.0
1.02651 0.00709874 0.0
0.815231 0.221243 0.0
1.43336 -0.316671 0.0
1.32787 0.447147 0.0
1.01247 0.0448656 0.0
1.11143 -0.00745299 0.0
0.896104 -0.230542 0.0
1.03109 0.00710078 0.0
1.0826 -0.0438831 0.0
1.0388 0.0227971 0.0
1.69748 0.308215 0.0
0.893276 -0.0734267 0.0
0.960857 -0.0437967 0.0
0.958568 -0.0052188 0.0
1.09734 0.0182461 0.0
1.17547 0.1293 0.0
1.02267 -0.00646992 0.0
0.478794 -0.00282111 0.0
0.734204 -0.303715 0.0
1.02604 0.0347769 0.0
1.06887 -0.0332149 0.0
1.54069 -0.585501 0.0
1.37036 0.00423625 0.0
1.0468 -0.00667579 0.0
1.12781 -0.247003 0.0
1.01964 0.0282374 0.0
1.24018 0.286875 0.0
0.717748 0.239835 0.0
0.414923 0.0523988 0.0
0.574638 0.171827 0.0
0.975153 -0.00104493 0.0
0.972765 -0.00954936 0.0
0.853352 -0.130675 0.0
1.04766 -0.0104147 0.0
1.56846 -0.0198765 0.0
0.998679 -0.0143679 0.0
1.10932 -0.147124 0.0
1.06012 0.16484 0.0
0.711418 0.00360183 0.0
1.19787 -0.107675 0.0
1.03079 0.348056 0.0
1.00714 -0.0141362 0.0
0.714784 -0.0874365 0.0
1.48674 0.193077 0.0
1.01059 0.0143983 0.0
1.14581 -0.326044 0.0
1.01613 -0.0133618 0.0
1.02031 0.320757 0.0
1.05985 -0.0352271 0.0
0.848005 0.0823055 0.0
0.957551 -0.00308022 0.0
1.02974 -0.0052828 0.0
0.991881 -0.000641257 0.0
0.736831 -0.0339129 0.0
1.25093 0.125892 0.0
1.01799 0.0237952 0.0
1.02328 -0.0330659 0.0
1.00357 0.00296252 0.0
1.21267 0.0870525 0.0
1.08741 -0.319563 0.0
1.02433 -0.0121271 0.0
1.1933 -0.129591 0.0
1.01148 -0.0222075 0.0
0.865061 -0.431978 0.0
0.934755 -0.543431 0.0
1.02769 -0.0546926 0.0
1.03168 0.0259739 0.0
1.0711 -0.0793442 0.0
1.05339 -0.0525006 0.0
1.0294 0.00313997 0.0
1.02724 0.326923 0.0
0.846875 0.0438363 0.0
0.769976 -0.713474 0.0
1.48788 0.0365824 0.0
1.08088 0.00138256 0.0
0.998231 0.0195019 0.0
1.03733 0.0759164 0.0
0.96048 0.305543 0.0
0.607904 0.195492 0.0
1.15447 -0.0701114 0.0
1.34714 -0.0779585 0.0
1.26131 0.445773 0.0
1.07148 0.337788 0.0
1.11258 -0.00595871 0.0
1.34473 0.089304 0.0
0.982456 -0.25141 0.0
1.06084 -0.0285571 0.0
1.39711 -0.112021 0.0
0.941124 0.448059 0.0
0.967708 -0.00507034 0.0
0.982305 -0.0209219 0.0
0.937626 0.00565557 0.0
0.753811 -0.0057933 0.0
0.895319 -0.00117863 0.0
1.46602 -0.0137605 0.0
1.01447 0.0191711 0.0
1.1976 -0.282201 0.0
1.03868 0.0186877 0.0
1.00064 -0.00273845 0.0
1.09551 -0.0539034 0.0
1.01926 -0.0140535 0.0
0.933439 -0.0750925 0.0
0.695726 -0.186204 0.0
1.26313 0.160776 0.0
1.15765 -0.0227745 0.0
1.17187 0.402242 0.0
1.00017 -0.0274443 0.0
0.740701 -0.0409624 0.0
1.03317 -0.0394263 0.0
1.55297 -0.370616 0.0
1.05026 -0.0661802 0.0
0.990991 -0.0765398 0.0
1.04687 -0.03369 0.0
1.04115 -0.302396 0.0
1.01611 -0.0107854 0.0
1.00698 0.00257103 0.0
1.42446 0.242472 0.0
1.09921 -0.247323 0.0
1.01565 0.0146119 0.0
1.00917 0.0198096 0.0
0.998026 0.00140831 0.0
0.669444 -0.0837231 0.0
1.06656 -5.03104e-05 0.0
1.4034 0.117313 0.0
1.25142 0.757281 0.0
0.709845 -0.230546 0.0
0.976372 -0.0428647 0.0
1.33675 -0.167265 0.0
0.95659 -0.755993 0.0
0.922491 -0.273119 0.0
1.02509 -0.00512225 0.0
0.918038 -0.00803712 0.0
1.15018 0.0072545 0.0
0.898218 -0.011692 0.0
1.01642 -0.00519544 0.0
0.760121 -0.053591 0.0
0.664939 -0.0229586 0.0
0.950965 0.00436275 0.0
1.0564 -0.342992 0.0
1.00932 -0.0211375 0.0
0.76651 -0.0630601 0.0
0.997095 0.00949427 0.0
0.775225 -0.0253137 0.0
0.879697 -0.00602448 0.0
0.742951 -0.0201804 0.0
0.973347 -0.00626763 0.0
1.02249 0.00762774 0.0
1.12819 -0.0520841 0.0
0.927509 -0.00207654 0.0
1.0335 -0.0125366 0.0
1.00197 -0.107258 0.0
0.976663 -0.00140638 0.0
1.01628 0.00236866 0.0
0.642498 -0.0183947 0.0
0.951051 -0.0237969 0.0
0.849464 0.115178 0.0
0.676388 -0.0368188 0.0
1.00309 -0.0598228 0.0
0.629136 -0.0581282 0.0
0.979726 -0.0603184 0.0
0.990944 -0.0119597 0.0
1.02971 0.0144398 0.0
0.797933 -0.0539192 0.0
0.757231 -0.0834832 0.0
1.17022 -0.327708 0.0
0.7784 -0.130378 0.0
0.724659 -0.0637989 0.0
1.02319 0.00647251 0.0
1.01357 -0.0113264 0.0
0.730424 0.167326 0.0
0.835013 -0.190514 0.0
0.732297 -0.0777182 0.0
0.71302 -0.104725 0.0
1.00941 0.0543169 0.0
0.739233 -0.006325 0.0
1.00486 -0.0169733 0.0
0.612669 -0.0153389 0.0
0.890892 -0.146088 0.0
0.962235 -0.0249062 0.0
0.769752 -0.0269457 0.0
0.792578 0.00819137 0.0
0.855937 -0.0401902 0.0
0.817412 -0.0112841 0.0
1.33658 -0.540182 0.0
1.06975 -0.0677266 0.0
0.924585 -0.0308292 0.0
0.874964 -0.0147648 0.0
0.795769 -0.147689 0.0
0.975481 0.00446356 0.0
0.517735 -0.0734448 0.0
0.940474 -0.0358605 0.0
0.862182 -0.193312 0.0
0.727353 -0.140734 0.0
0.766152 -0.0989523 0.0
0.601211 0.542489 0.0
0.775684 -0.0086056 0.0
0.936167 -0.218862 0.0
1.01972 0.00142009 0.0
0.910503 -0.312526 0.0
0.38566 -0.207177 0.0
1.07311 -0.358558 0.0
0.84164 -0.119609 0.0
0.70624 -0.033139 0.0
0.959069 -0.14403 0.0
0.831976 -0.00886024 0.0
0.965634 -0.18154 0.0
0.910691 -0.128385 0.0
1.02024 -0.187515 0.0
0.802794 -0.00954085 0.0
0.807712 -0.0772282 0.0
1.08671 -0.196985 0.0
0.678603 -0.0829567 0.0
0.975396 -0.117612 0.0
1.01706 -0.0395392 0.0
0.68137 -0.0303532 0.0
1.00069 -0.118559 0.0
1.16321 0.557863 0.0
1.02805 -0.126883 0.0
0.8458 -0.0156939 0.0
1.02116 -0.00475878 0.0
0.226336 0.156863 0.0
0.966938 0.00248813 0.0
1.0175 0.000682464 0.0
1.01583 0.00238433 0.0
1.01892 0.00252501 0.0
0.936356 -0.00105612 0.0
1.01885 -0.00444584 0.0
1.01783 0.000437563 0.0
1.00402 -0.0858012 0.0
1.01065 0.0122684 0.0
1.12445 -0.646617 0.0
0.966212 -0.00174152 0.0
0.935738 0.000547533 0.0
1.02122 -0.0778088 0.0
1.0144 -0.067188 0.0
0.960462 -0.00871906 0.0
0.912631 0.00249569 0.0
1.02064 -0.0545329 0.0
1.00972 -0.00202693 0.0
1.01807 0.00034929 0.0
1.02202 0.00329145 0.0
0.964078 3.97594e-05 0.0
0.933666 -0.000857031 0.0
1.01572 -0.00400785 0.0
0.97703 0.00438778 0.0
0.943876 -0.00138711 0.0
1.02627 0.0028779 0.0
0.962088 0.0078934 0.0
0.949108 0.00872143 0.0
1.03109 -0.0402332 0.0
1.03059 -0.0354173 0.0
1.02324 0.0033604 0.0
1.02436 -0.0180583 0.0
1.02446 -0.0195494 0.0
1.02198 -0.0221658 0.0
1.03077 -0.00891984 0.0
1.04965 -0.0227364 0.0
0.949902 0.00728394 0.0
0.917635 -0.00894643 0.0
0.967536 -0.00304083 0.0
0.947332 0.00697259 0.0
0.97978 0.00136006 0.0
0.930589 0.00521881 0.0
0.926651 0.00425114 0.0
0.964756 0.000937855 0.0
1.01231 -0.00770269 0.0
0.966373 -0.00347208 0.0
0.859303 -0.00682256 0.0
0.932767 -0.00387305 0.0
0.986931 -0.0046971 0.0
0.935968 -0.00883632 0.0
0.937793 0.00455005 0.0
0.933531 0.00329905 0.0
0.943632 -0.00148389 0.0
0.923372 -0.00254527 0.0
0.932586 -0.000803488 0.0
0.96726 0.00301345 0.0
0.990935 -0.0109119 0.0
0.936411 0.00179445 0.0
0.935156 -0.00299016 0.0
0.940675 0.00864696 0.0
0.932495 -0.00348828 0.0
0.97273 -0.00175402 0.0
0.932711 0.032731 0.0
0.931604 -0.0123123 0.0
0.932951 -0.000762801 0.0
0.935245 0.000144984 0.0
0.893423 -0.00132761 0.0
0.927067 -0.00102012 0.0
0.935714 -0.00165278 0.0
0.952012 -0.00513312 0.0
1.04212 -0.0361157 0.0
0.965188 -0.0128836 0.0
1.02521 -0.0227912 0.0
1.02423 -0.00252138 0.0
1.0064 -0.0526611 0.0
1.01897 -0.029678 0.0
1.02178 -0.0355743 0.0
1.00202 -0.0179501 0.0
1.00708 -0.0217258 0.0
1.00106 -0.0255878 0.0
1.00977 -0.00706906 0.0
1.02485 -0.0110019 0.0
1.01525 -0.0331169 0.0
0.993658 -0.0433595 0.0
1.00597 -0.0181204 0.0
1.01662 -0.0157152 0.0
1.02476 -0.0201911 0.0
1.01235 -0.0293429 0.0
1.00967 -0.0148535 0.0
1.01652 -0.0174015 0.0
1.01334 -0.0225342 0.0
1.01633 -0.0198873 0.0
1.02501 -0.0141587 0.0
1.02167 -0.02725 0.0
1.02956 -0.0545441 0.0
1.01316 -0.00933767 0.0
1.01964 -0.0132539 0.0
1.01527 -0.00515767 0.0
1.02021 -0.00826832 0.0
1.00903 -0.0204025 0.0
1.02761 -0.0270875 0.0
1.02766 -0.00805829 0.0
1.0186 -0.00602306 0.0
1.00773 0.000925109 0.0
1.01659 -0.0069277 0.0
1.01658 -0.00925802 0.0
1.02082 -0.0103031 0.0
1.01784 -0.00556782 0.0
1.01259 -0.0145077 0.0
1.01843 -0.0114094 0.0
1.02502 -0.00782218 0.0
1.00918 -0.00960231 0.0
1.01597 -0.00867305 0.0
1.01336 -0.010077 0.0
1.02078 -0.00355983 0.0
1.02125 -0.00672608 0.0
1.02056 0.000525316 0.0
1.02014 -0.00667209 0.0
1.0212 -0.00474621 0.0
1.01497 -0.00599363 0.0
1.01713 -0.00241879 0.0
0.997677 0.00157273 0.0
1.01579 -0.00269747 0.0
1.02089 -0.00395558 0.0
1.01935 -0.00592695 0.0
1.02082 -0.00482208 0.0
1.01645 0.000151883 0.0
1.01851 -0.00614145 0.0
1.02058 -0.00428722 0.0
1.02148 -0.0038502 0.0
1.01936 -0.00666641 0.0
1.01738 -0.0100766 0.0
1.02003 -0.00259985 0.0
1.01891 0.0115965 0.0
1.02026 -0.00610425 0.0
1.01842 -0.0114818 0.0
1.0246 -0.00811776 0.0
1.02329 -0.00406918 0.0
0.966054 0.00164125 0.0
1.03228 -0.0002059 0.0
1.02015 0.003275 0.0
1.00805 0.00893325 0.0
1.0229 -0.00742073 0.0
1.02062 -0.00802202 0.0
1.01837 -0.00148137 0.0
1.01999 -5.55797e-05 0.0
1.02222 -0.00208904 0.0
1.01827 0.000198323 0.0
1.00807 0.00796717 0.0
1.02447 -0.00450152 0.0
1.01609 -0.00164326 0.0
1.02373 -0.0016041 0.0
1.01831 -9.6156e-05 0.0
1.02132 0.00188614 0.0
1.02006 0.00123002 0.0
1.01929 -0.00455221 0.0
1.02091 -0.000792133 0.0
1.01788 0.00273032 0.0
0.881603 -0.0462651 0.0
1.0181 -0.00206118 0.0
1.01966 0.000385204 0.0
1.00807 -0.00276152 0.0
1.02239 -0.00305177 0.0
1.02 -0.00197622 0.0
1.01959 -0.0061203 0.0
1.02238 -0.00589318 0.0
1.01819 -0.00318798 0.0
1.01375 0.0169522 0.0
1.02039 -0.00157031 0.0
1.01715 0.00152363 0.0
1.02163 0.00226106 0.0
1.02107 -0.00125121 0.0
1.01802 0.00189884 0.0
0.976463 0.154216 0.0
1.02054 -0.00103269 0.0
0.973098 -0.0873485 0.0
1.02281 -0.00168056 0.0
1.01935 0.00103796 0.0
1.01802 -0.00786147 0.0
1.0128 0.00513464 0.0
1.01437 -0.00988074 0.0
1.02856 -0.00075926 0.0
1.02113 -0.000274 0.0
1.00875 0.00779185 0.0
1.02117 -0.000179981 0.0
1.0214 0.00163473 0.0
1.017 -0.00263266 0.0
1.01835 0.00104509 0.0
1.02172 -0.00191376 0.0
0.940944 0.00732075 0.0
1.01247 -0.00948459 0.0
1.01851 0.00194505 0.0
1.01815 0.000169864 0.0
1.02173 -0.00397878 0.0
1.01792 0.000305144 0.0
1.01849 -0.000200093 0.0
1.0186 -0.000872739 0.0
1.0171 0.000251564 0.0
1.01787 -0.000455478 0.0
1.01763 -0.000369217 0.0
1.01767 0.000708849 0.0
1.01951 8.06685e-05 0.0
1.01876 0.000165721 0.0
1.02875 0.00494026 0.0
1.01932 -9.21853e-05 0.0
1.01932 0.00242346 0.0
1.01712 0.00241739 0.0
1.01858 -0.00118868 0.0
1.02352 0.00315728 0.0
1.01772 0.000776031 0.0
1.41341 -0.168365 0.0
1.01431 -0.00162115 0.0
1.01863 -0.00192992 0.0
1.02426 0.0011038 0.0
1.0183 -0.0011712 0.0
1.014 8.39494e-05 0.0
1.01341 0.00502638 0.0
1.01799 -0.00340934 0.0
0.851654 -0.124429 0.0
1.16861 -0.128326 0.0
1.014 0.0179852 0.0
1.01885 0.000446817 0.0
1.0262 0.00175994 0.0
0.717136 -0.208329 0.0
1.03845 0.0192358 0.0
1.10458 -0.155354 0.0
1.02012 -0.00157237 0.0
1.01094 0.000783164 0.0
1.01844 0.000690338 0.0
1.01907 -0.00754505 0.0
0.911926 -0.0462514 0.0
0.808636 -0.0776816 0.0
1.02003 -0.00235303 0.0
1.01963 -0.000835158 0.0
1.01935 -0.00226563 0.0
1.02357 0.00256389 0.0
1.27969 0.139572 0.0
0.889622 -0.036218 0.0
1.01563 -0.00266443 0.0
0.935508 -0.0328547 0.0
1.02158 0.0037391 0.0
1.02241 0.00456913 0.0
1.01983 -0.00159861 0.0
1.02081 -0.00107421 0.0
1.02129 0.000553162 0.0
0.78731 -0.0940491 0.0
1.02007 -0.00186699 0.0
1.02041 0.000677889 0.0
1.21705 0.320249 0.0
0.998684 -0.0259789 0.0
1.01968 -0.00225416 0.0
1.011 -0.0114172 0.0
0.992069 -0.0287904 0.0
1.0176 -0.00329864 0.0
0.626474 -0.168812 0.0
1.02003 -0.000136731 0.0
1.02184 -0.00682151 0.0
1.01845 -0.00125493 0.0
1.02446 0.00569514 0.0
0.738043 -0.258332 0.0
0.850659 -0.339042 0.0
1.01836 -0.00120713 0.0
1.23847 -0.456581 0.0
1.02123 0.000322275 0.0
1.01958 -0.000413103 0.0
1.01927 0.00440617 0.0
1.01969 -0.000539252 0.0
0.966625 0.0168229 0.0
1.01989 -0.00277217 0.0
1.23021 -0.224414 0.0
1.01531 -0.00528201 0.0
1.01664 -0.00808801 0.0
0.541502 -0.486003 0.0
1.01726 -0.00263629 0.0
1.01143 -0.0103313 0.0
1.00791 -0.00810932 0.0
1.03175 -0.0297632 0.0
1.01887 0.000879051 0.0
0.604881 -0.0777491 0.0
1.0165 0.00109326 0.0
1.02559 0.00242138 0.0
0.970131 -0.021363 0.0
1.1807 -0.637694 0.0
0.735511 -0.0122173 0.0
1.00594 0.0119797 0.0
0.722951 -0.0113149 0.0
0.72361 -0.00462326 0.0
1.01797 -0.00788759 0.0
1.11838 0.354233 0.0
1.02109 0.0262912 0.0
1.08169 -0.0819091 0.0
1.02018 0.0123 0.0
0.740731 -0.0594278 0.0
0.758975 -0.0119272 0.0
1.03234 -0.464758 0.0
0.961442 0.00515902 0.0
0.963908 -0.000799891 0.0
1.01834 0.00121286 0.0
1.01698 -0.00228126 0.0
1.08968 -0.107851 0.0
1.04373 -0.0525113 0.0
0.934501 0.00218087 0.0
1.04355 -0.0815929 0.0
0.942048 -0.0250625 0.0
1.02231 -0.00945001 0.0
0.984749 0.00174357 0.0
0.981194 -0.0120717 0.0
1.01828 0.000310885 0.0
1.0057 -0.0152186 0.0
0.919834 -0.222588 0.0
1.16736 -0.0571543 0.0
1.31139 0.111777 0.0
0.962566 -0.0107201 0.0
0.40333 -0.194219 0.0
0.430052 -0.633229 0.0
1.01756 -0.0107782 0.0
0.727719 -0.0201183 0.0
0.713709 -0.00983223 0.0
1.03357 0.319491 0.0
0.926219 -0.000855364 0.0
1.01988 -0.000223037 0.0
1.02446 -0.0228051 0.0
0.942842 0.00205883 0.0
1.36428 0.390289 0.0
1.01955 0.000177172 0.0
1.01579 -0.000227177 0.0
1.07207 0.036531 0.0
1.01516 -0.00171854 0.0
0.980955 0.00424649 0.0
0.889522 -0.173649 0.0
1.02365 -0.00398286 0.0
1.14509 0.0447797 0.0
1.01447 -0.000719975 0.0
1.00961 0.00130621 0.0
1.01326 -0.0222045 0.0
1.00978 0.00775242 0.0
1.1364 -0.265864 0.0
0.932322 0.00237149 0.0
1.00912 0.00162091 0.0
0.798117 0.69489 0.0
0.689537 -0.0162449 0.0
1.0504 0.0515864 0.0
1.14437 -0.0601508 0.0
0.923627 -0.00355135 0.0
1.0098 0.0115612 0.0
1.01308 -0.403178 0.0
0.360923 0.0618762 0.0
1.01944 -0.00193175 0.0
1.02037 -0.00362728 0.0
0.94226 -0.0042935 0.0
1.00297 0.00213811 0.0
1.18619 -0.129827 0.0
1.05075 -0.0424587 0.0
0.280711 0.111651 0.0
1.00638 0.00514745 0.0
1.01215 0.0146554 0.0
1.04699 -0.113424 0.0
0.978286 -0.0309341 0.0
1.01865 0.00597483 0.0
1.21716 0.0543864 0.0
0.968339 0.00560943 0.0
0.760241 -0.0275227 0.0
1.01772 0.00803658 0.0
0.925661 -0.0821317 0.0
1.21793 -0.498742 0.0
0.964605 -0.00127758 0.0
1.05224 -0.0551974 0.0
1.0174 0.00947664 0.0
1.42511 -0.0607473 0.0
0.981812 0.0396403 0.0
1.01212 0.00855981 0.0
0.913826 0.294638 0.0
1.01602 -0.0146665 0.0
1.0188 -0.0139015 0.0
1.31277 -0.0462906 0.0
0.960303 -0.00297097 0.0
0.965197 0.00732261 0.0
0.722258 -0.000389353 0.0
0.60087 -0.191535 0.0
1.04005 -0.000716569 0.0
0.922342 0.00772059 0.0
0.716893 -0.00635081 0.0
0.670193 -0.044722 0.0
1.09169 -0.0252275 0.0
0.964048 0.0066229 0.0
0.971586 -0.0021392 0.0
0.96728 0.0133503 0.0
0.754248 -0.0272668 0.0
0.970457 -0.00512545 0.0
1.04011 0.562775 0.0
1.2157 -0.0650516 0.0
1.00901 -0.0058109 0.0
1.02549 -0.00865575 0.0
1.04988 -0.0353623 0.0
0.96867 -0.00213783 0.0
1.01329 0.00586891 0.0
0.969305 0.000429806 0.0
1.62918 0.0910895 0.0
1.05489 0.0321305 0.0
0.996196 -0.0198884 0.0
1.05338 -0.00897235 0.0
1.35506 -0.278763 0.0
1.02259 0.00854556 0.0
0.766569 -0.0105348 0.0
1.01618 -0.00409271 0.0
1.01032 0.00461926 0.0
0.725681 -0.583757 0.0
1.03207 -0.0134975 0.0
1.02332 -0.0219635 0.0
0.956185 -0.0733541 0.0
1.01968 -0.00170499 0.0
1.15779 -0.124683 0.0
0.865384 0.0685271 0.0
0.998642 -0.00684821 0.0
1.15017 0.453298 0.0
1.241 -0.178837 0.0
0.972313 -0.0134989 0.0
0.961903 -0.000760221 0.0
0.962503 0.00232102 0.0
0.741758 -0.0153145 0.0
0.970766 0.0351696 0.0
1.01576 -0.000354381 0.0
1.02355 0.00055707 0.0
0.969575 0.0588704 0.0
1.03305 -0.0147927 0.0
0.970196 -0.000279197 0.0
0.751493 -0.0154815 0.0
0.958042 -0.00165019 0.0
0.953891 0.00814283 0.0
1.10486 0.251221 0.0
1.22596 0.0886544 0.0
1.16774 0.259023 0.0
1.02018 -0.00172444 0.0
1.0256 -0.0205812 0.0
0.959575 -0.00620665 0.0
0.760357 -0.00646291 0.0
1.02151 0.0208143 0.0
1.04272 0.00215259 0.0
0.843803 -0.119215 0.0
1.63569 -0.0105955 0.0
1.01254 0.00416116 0.0
1.01934 0.0678595 0.0
0.951562 -0.0138863 0.0
0.936642 -0.00314543 0.0
1.20199 -1.07045 0.0
0.996189 0.0111119 0.0
1.00744 0.00722004 0.0
0.970384 -0.0160101 0.0
0.991853 0.00273557 0.0
1.02679 0.0014292 0.0
1.07587 -0.0167067 0.0
0.379358 -0.0663106 0.0
1.00703 -0.0358568 0.0
0.88856 -0.475786 0.0
1.03539 0.00290956 0.0
0.674116 -0.270243 0.0
0.960198 -0.00331872 0.0
1.02096 -0.0174102 0.0
1.028 -0.0140225 0.0
1.04475 -0.0102155 0.0
1.00015 0.00544381 0.0
1.05302 -0.815845 0.0
1.01529 0.0167492 0.0
1.45525 0.271896 0.0
1.05178 0.0539249 0.0
1.10333 0.0167883 0.0
1.00599 -0.0178573 0.0
1.00174 -0.0429941 0.0
1.003 -0.0168476 0.0
1.02028 0.016709 0.0
1.02304 0.011328 0.0
1.01557 -0.024011 0.0
0.989114 -0.0844969 0.0
1.00246 -0.0202661 0.0
0.916153 0.0167905 0.0
1.04433 0.00308793 0.0
0.938123 0.0164926 0.0
0.969185 -0.0147735 0.0
1.01976 -0.0841307 0.0
0.910535 -0.054055 0.0
1.02217 -0.00663959 0.0
1.43735 -0.268647 0.0
0.282946 -0.109865 0.0
0.91998 -0.107396 0.0
1.09127 0.275935 0.0
1.03388 -0.0449716 0.0
0.92116 0.273442 0.0
1.30333 -0.199425 0.0
0.831405 -0.471062 0.0
1.27354 0.213194 0.0
1.42342 0.22841 0.0
1.13426 -0.43378 0.0
0.859694 -0.0327114 0.0
1.04175 -0.0102581 0.0
1.21298 -0.309136 0.0
0.610046 0.0156492 0.0
1.28163 -0.0105699 0.0
1.34859 -0.0643502 0.0
1.0292 0.021239 0.0
0.662692 -0.0199582 0.0
0.626347 -0.00284359 0.0
0.249326 -0.202426 0.0
1.00582 -0.0048558 0.0
0.885533 -0.01988 0.0
1.00574 -0.0456723 0.0
1.0361 0.0729076 0.0
0.923703 -0.00117057 0.0
1.01842 -0.00327989 0.0
0.794778 -0.0753236 0.0
0.745137 -0.0087894 0.0
0.388809 -0.545109 0.0
1.07421 0.262765 0.0
0.972864 -0.0208359 0.0
0.165214 -0.305611 0.0
0.990994 0.0144475 0.0
1.17855 0.321535 0.0
0.98153 0.0351222 0.0
1.00262 -0.00158232 0.0
0.96862 -0.025491 0.0
1.0076 -0.00155207 0.0
1.00637 0.00954351 0.0
0.960994 0.00304306 0.0
0.895845 0.0534967 0.0
1.16009 0.318549 0.0
0.924269 0.00319241 0.0