# vtk DataFile Version 3.0
Malha 2D com triângulos e temperatura
ASCII
DATASET UNSTRUCTURED_GRID

POINTS 688 double
0 0 0
2.2 0 0
2.2 0.41 0
0 0.41 0
0.25 0.2 0
0.05 0 0
0.1 0 0
0.15 0 0
0.2 0 0
0.25 0 0
0.3 0 0
0.35 0 0
0.4 0 0
0.45 0 0
0.5 0 0
0.55 0 0
0.6 0 0
0.65 0 0
0.7 0 0
0.75 0 0
0.8 0 0
0.85 0 0
0.9 0 0
0.95 0 0
1 0 0
1.05 0 0
1.1 0 0
1.15 0 0
1.2 0 0
1.25 0 0
1.3 0 0
1.35 0 0
1.4 0 0
1.45 0 0
1.5 0 0
1.55 0 0
1.6 0 0
1.65 0 0
1.7 0 0
1.75 0 0
1.8 0 0
1.85 0 0
1.9 0 0
1.95 0 0
2 0 0
2.05 0 0
2.1 0 0
2.15 0 0
2.2 0.0455556 0
2.2 0.0911111 0
2.2 0.136667 0
2.2 0.182222 0
2.2 0.227778 0
2.2 0.273333 0
2.2 0.318889 0
2.2 0.364444 0
2.15 0.41 0
2.1 0.41 0
2.05 0.41 0
2 0.41 0
1.95 0.41 0
1.9 0.41 0
1.85 0.41 0
1.8 0.41 0
1.75 0.41 0
1.7 0.41 0
1.65 0.41 0
1.6 0.41 0
1.55 0.41 0
1.5 0.41 0
1.45 0.41 0
1.4 0.41 0
1.35 0.41 0
1.3 0.41 0
1.25 0.41 0
1.2 0.41 0
1.15 0.41 0
1.1 0.41 0
1.05 0.41 0
1 0.41 0
0.95 0.41 0
0.9 0.41 0
0.85 0.41 0
0.8 0.41 0
0.75 0.41 0
0.7 0.41 0
0.65 0.41 0
0.6 0.41 0
0.55 0.41 0
0.5 0.41 0
0.45 0.41 0
0.4 0.41 0
0.35 0.41 0
0.3 0.41 0
0.25 0.41 0
0.2 0.41 0
0.15 0.41 0
0.1 0.41 0
0.05 0.41 0
0 0.364444 0
0 0.318889 0
0 0.273333 0
0 0.227778 0
0 0.182222 0
0 0.136667 0
0 0.0911111 0
0 0.0455556 0
0.248831 0.210749 0
0.245379 0.220994 0
0.239805 0.230259 0
0.232369 0.238108 0
0.22342 0.244176 0
0.213376 0.248177 0
0.202707 0.249927 0
0.191911 0.249341 0
0.181493 0.246449 0
0.171941 0.241384 0
0.1637 0.234385 0
0.157157 0.225778 0
0.152617 0.215965 0
0.150293 0.205406 0
0.150293 0.194594 0
0.152617 0.184035 0
0.157157 0.174222 0
0.1637 0.165615 0
0.171941 0.158616 0
0.181493 0.153551 0
0.191911 0.150659 0
0.202707 0.150073 0
0.213376 0.151823 0
0.22342 0.155824 0
0.232369 0.161892 0
0.239805 0.169741 0
0.245379 0.179006 0
0.248831 0.189251 0
0.421316 0.36725 0
0.426705 0.0366526 0
2.16065 0.209201 0
1.52286 0.0417259 0
0.626017 0.37111 0
1.3257 0.0414552 0
1.02471 0.0432237 0
1.17293 0.0421053 0
0.82501 0.36678 0
1.6757 0.370064 0
1.91628 0.0358195 0
1.82501 0.366432 0
0.723429 0.0421499 0
1.425 0.366699 0
1.97461 0.366224 0
1.12167 0.370137 0
0.975 0.368691 0
0.877672 0.0412714 0
1.27686 0.36884 0
1.725 0.0433013 0
0.579174 0.0416211 0
0.325589 0.363848 0
0.319111 0.0378151 0
0.0394523 0.296111 0
0.0329929 0.11602 0
0.142108 0.187428 0
1.57555 0.364352 0
2.02603 0.0412138 0
0.725007 0.36763 0
0.528647 0.366595 0
1.62699 0.0400272 0
1.82929 0.0421255 0
1.425 0.0418325 0
2.07474 0.364233 0
0.125 0.0433013 0
0.161245 0.155011 0
0.225 0.366699 0
0.210027 0.258536 0
2.16034 0.115449 0
0.0371627 0.204103 0
0.142311 0.212698 0
0.220283 0.0418538 0
0.221965 0.145099 0
0.196802 0.141016 0
0.119851 0.373394 0
0.161112 0.245979 0
0.184892 0.258024 0
2.16342 0.30039 0
2.12627 0.047699 0
0.183325 0.0412617 0
0.152317 0.0762976 0
0.203864 0.0745802 0
0.234384 0.0774346 0
0.215969 0.103585 0
0.245651 0.104548 0
0.186562 0.100216 0
0.268213 0.0793029 0
0.272149 0.109155 0
0.242885 0.159377 0
0.253088 0.128261 0
0.278718 0.13214 0
0.295917 0.115997 0
0.301728 0.138858 0
0.321266 0.12205 0
0.324642 0.151724 0
0.255978 0.181139 0
0.350123 0.129049 0
0.357539 0.159885 0
0.333541 0.181416 0
0.36451 0.19182 0
0.250573 0.230419 0
0.391277 0.169722 0
0.339477 0.212308 0
0.39836 0.205386 0
0.427326 0.18117 0
0.258724 0.206387 0
0.434392 0.219501 0
0.466446 0.193907 0
0.472865 0.243064 0
0.507358 0.209962 0
0.40073 0.238916 0
0.499135 0.1652 0
0.5419 0.179224 0
0.550176 0.22496 0
0.585844 0.194129 0
0.594095 0.240176 0
0.630701 0.209517 0
0.621901 0.162424 0
0.667731 0.178095 0
0.676485 0.226008 0
0.713906 0.194492 0
0.722681 0.242872 0
0.760442 0.211047 0
0.751547 0.162356 0
0.798298 0.179 0
0.807147 0.227866 0
0.845136 0.195775 0
0.854541 0.243285 0
0.892163 0.212344 0
0.902461 0.257947 0
0.93935 0.228684 0
0.930236 0.180167 0
0.977229 0.197066 0
0.986264 0.245777 0
1.02423 0.213991 0
1.0331 0.263172 0
1.07123 0.230975 0
1.06234 0.181814 0
1.10938 0.198721 0
1.09996 0.151012 0
1.14691 0.168161 0
1.15631 0.215921 0
1.19446 0.183678 0
1.20343 0.232645 0
1.2416 0.200322 0
1.23272 0.151117 0
1.2798 0.167954 0
1.28868 0.217167 0
1.32685 0.184862 0
1.33573 0.234064 0
1.3739 0.201768 0
0.789327 0.130094 0
1.38279 0.25097 0
1.42096 0.218674 0
1.41207 0.169471 0
1.45912 0.186378 0
1.46801 0.235581 0
1.50618 0.203285 0
1.51506 0.252489 0
1.55323 0.220192 0
1.54435 0.170989 0
1.5914 0.187896 0
1.60029 0.2371 0
1.63846 0.204803 0
1.64734 0.254007 0
1.68551 0.221711 0
1.67663 0.172507 0
1.72368 0.189415 0
1.73831 0.241548 0
1.77074 0.206322 0
1.76185 0.157121 0
1.8091 0.17428 0
1.81866 0.220885 0
1.85608 0.190621 0
1.86521 0.238879 0
1.90289 0.207671 0
1.91264 0.253772 0
1.94955 0.224093 0
1.94067 0.17593 0
1.98705 0.192828 0
1.99572 0.240997 0
2.0329 0.209382 0
2.02422 0.16161 0
2.04166 0.257286 0
0.419739 0.142889 0
0.968291 0.148058 0
0.310035 0.202211 0
0.316128 0.230863 0
0.658501 0.130052 0
0.685107 0.27445 0
1.34462 0.283266 0
1.16528 0.264896 0
1.84735 0.142081 0
0.557687 0.270604 0
1.21234 0.281769 0
1.58252 0.138692 0
0.533563 0.131933 0
0.489835 0.120004 0
1.45024 0.137174 0
2.06974 0.17785 0
2.06113 0.130713 0
0.283221 0.152215 0
0.921299 0.131169 0
0.343836 0.24295 0
0.319203 0.260002 0
0.235529 0.249617 0
0.347029 0.274099 0
0.291856 0.246297 0
0.295938 0.27548 0
0.272836 0.264931 0
0.27461 0.290522 0
0.251228 0.280224 0
0.253903 0.305808 0
0.232795 0.296709 0
0.298805 0.304058 0
1.0801 0.280176 0
1.47689 0.284785 0
1.05315 0.133468 0
1.09741 0.0970974 0
1.82427 0.272867 0
1.2701 0.118911 0
0.816337 0.277695 0
1.40432 0.121101 0
1.04244 0.320388 0
0.959305 0.103028 0
1.60923 0.286151 0
0.601674 0.286775 0
2.00739 0.280923 0
0.342592 0.0992796 0
0.375237 0.105729 0
1.52511 0.298716 0
1.53114 0.119823 0
0.733824 0.287256 0
0.613372 0.114719 0
0.645558 0.0838585 0
2.015 0.115858 0
1.22718 0.0994086 0
1.39166 0.29817 0
1.3564 0.329754 0
0.744134 0.11556 0
0.782853 0.0841771 0
0.826899 0.10047 0
1.17418 0.314034 0
0.520902 0.0906676 0
1.4967 0.329429 0
1.26048 0.0740437 0
0.365514 0.0716355 0
0.229836 0.121666 0
1.57453 0.09137 0
1.61938 0.110761 0
0.481716 0.0753791 0
0.14093 0.2 0
0.130041 0.192847 0
0.131507 0.178608 0
0.117165 0.184444 0
0.120761 0.164701 0
0.1156 0.199931 0
0.100804 0.174136 0
0.102545 0.153034 0
0.12169 0.143342 0
0.104604 0.13008 0
0.0809304 0.161171 0
0.128077 0.121858 0
0.106825 0.102278 0
0.082498 0.188728 0
0.0314738 0.158621 0
2.04625 0.310891 0
2.08475 0.27479 0
2.11394 0.138117 0
0.233149 0.151108 0
0.258724 0.193613 0
0.268522 0.184917 0
1.65397 0.301059 0
0.145962 0.224912 0
0.132503 0.222267 0
0.13746 0.236947 0
0.120111 0.233525 0
0.126593 0.25219 0
0.105294 0.247497 0
0.113343 0.26868 0
0.133997 0.271734 0
0.121622 0.292031 0
0.147069 0.292141 0
0.0896563 0.267464 0
0.0813699 0.243294 0
0.163574 0.276939 0
0.172694 0.298517 0
0.1583 0.321483 0
0.186823 0.322499 0
0.173113 0.348195 0
0.0322087 0.250839 0
0.211694 0.124337 0
0.250615 0.169546 0
0.256243 0.157787 0
0.170796 0.14736 0
0.156755 0.141654 0
0.17187 0.131161 0
0.147502 0.152323 0
0.198129 0.260662 0
0.206368 0.271663 0
0.220945 0.26864 0
0.190489 0.270628 0
0.198813 0.286731 0
0.55749 0.322277 0
0.520166 0.299321 0
0.235199 0.330709 0
0.267109 0.337524 0
0.172324 0.25256 0
0.255974 0.218859 0
0.268327 0.214994 0
0.184197 0.143083 0
0.188721 0.129954 0
0.209694 0.139146 0
0.269223 0.244007 0
0.252374 0.255244 0
0.282229 0.0410487 0
1.21977 0.330016 0
1.25733 0.296346 0
2.09358 0.0890819 0
0.244373 0.240984 0
0.0838116 0.115786 0
0.0797544 0.0817835 0
0.237449 0.264854 0
0.247178 0.146225 0
0.270136 0.2 0
0.28023 0.191334 0
0.263476 0.170737 0
0.371486 0.368728 0
0.396124 0.330051 0
0.440314 0.325693 0
0.357693 0.329668 0
0.476576 0.362035 0
0.29587 0.222914 0
0.307627 0.175476 0
0.079599 0.0406461 0
0.146062 0.252571 0
0.15162 0.125025 0
0.417223 0.294608 0
0.457089 0.286958 0
0.036619 0.338729 0
0.0713014 0.322193 0
0.0735823 0.36704 0
0.041143 0.0722223 0
0.693501 0.32349 0
0.145406 0.175484 0
0.138777 0.164467 0
0.300367 0.0698839 0
0.167025 0.112083 0
0.146978 0.105544 0
0.151909 0.236762 0
0.444611 0.106436 0
0.909355 0.0817561 0
0.282901 0.370713 0
1.61474 0.330739 0
0.578053 0.368179 0
0.824695 0.0487848 0
2.09634 0.3213 0
2.02276 0.364865 0
2.12532 0.363702 0
1.09789 0.328757 0
0.161137 0.260089 0
2.07793 0.225752 0
2.12079 0.240944 0
2.0747 0.0437362 0
1.89402 0.158846 0
1.93154 0.128738 0
1.8848 0.111477 0
1.8384 0.0926484 0
1.87744 0.0655304 0
1.7913 0.0793874 0
1.9712 0.046671 0
1.92502 0.366682 0
1.94563 0.325156 0
1.89941 0.326645 0
1.87499 0.367178 0
1.84989 0.323491 0
1.7997 0.321303 0
1.77183 0.280326 0
1.75031 0.321965 0
1.77491 0.365615 0
2.11727 0.191885 0
0.883187 0.163467 0
1.71449 0.140266 0
1.667 0.125342 0
1.70591 0.0884759 0
1.67732 0.042286 0
1.52278 0.370513 0
1.37512 0.04128 0
1.34848 0.0834574 0
0.776093 0.367587 0
1.125 0.0433013 0
1.15 0.0866019 0
1.07442 0.0496847 0
0.974527 0.0370837 0
1.47464 0.0427918 0
1.44953 0.0873752 0
1.17595 0.362984 0
1.025 0.366699 0
0.925007 0.367031 0
0.95 0.323404 0
0.897321 0.326356 0
0.874563 0.367261 0
0.846552 0.324465 0
1.62923 0.156667 0
1.32319 0.13033 0
1.69342 0.270472 0
1.49568 0.156227 0
1.56237 0.268721 0
1.44 0.319169 0
1.43005 0.267892 0
1.36502 0.152565 0
0.993446 0.294003 0
1.30179 0.321101 0
1.18235 0.127964 0
1.25016 0.2491 0
1.29638 0.266841 0
1.11824 0.247967 0
1.12945 0.294699 0
1.01527 0.165035 0
0.836192 0.147197 0
1.4998 0.0831488 0
1.00655 0.118664 0
0.872896 0.117126 0
0.70523 0.146383 0
1.96013 0.276645 0
0.769406 0.257102 0
0.699552 0.0908977 0
2.1587 0.162257 0
1.97813 0.145326 0
0.646036 0.302035 0
0.799423 0.326603 0
0.515621 0.255445 0
1.72538 0.366474 0
1.97009 0.0998346 0
1.57108 0.313772 0
0.577925 0.14549 0
0.638911 0.256447 0
0.407352 0.0771641 0
0.525103 0.042511 0
0.674231 0.370698 0
1.69802 0.321701 0
0.56947 0.0908728 0
1.75459 0.110239 0
1.80084 0.126127 0
0.673535 0.0431435 0
1.57391 0.0465733 0
2.04571 0.0828469 0
0.10002 0.225545 0
0.0788152 0.21577 0
0.369719 0.224393 0
0.210352 0.308739 0
1.22342 0.0432967 0
[...]
CELL_DATA 1241
VECTORS velocity double
1.01673 -0.00424653 0.0
1.21678 0.0667305 0.0
0.45508 -0.00103463 0.0
0.94863 0.0019815 0.0
1.04197 0.00555046 0.0
1.42279 0.103076 0.0
1.13388 0.000190578 0.0
0.98315 -0.00084246 0.0
0.363346 0.0157761 0.0
1.17586 0.00157606 0.0
1.31247 -0.119984 0.0
1.31627 0.126538 0.0
0.865763 -0.160593 0.0
1.01452 0.00834402 0.0
0.989788 0.00698604 0.0
1.46625 -0.0327874 0.0
0.978191 0.0010701 0.0
0.479602 0.0603764 0.0
1.17221 0.0625904 0.0
1.64767 -0.254137 0.0
1.02234 0.00532061 0.0
1.05937 -0.0662856 0.0
1.03586 -0.000193048 0.0
1.25312 0.904898 0.0
1.07112 -0.00220951 0.0
1.02556 0.00347807 0.0
1.29896 -0.199399 0.0
1.07629 -0.0253644 0.0
1.32175 -0.0836649 0.0
1.46233 -0.0648253 0.0
1.33199 0.0902508 0.0
0.867631 -0.0369639 0.0
1.52029 0.00255995 0.0
1.01318 0.00666591 0.0
1.25626 -0.0567538 0.0
1.35884 0.156902 0.0
1.21214 -0.055556 0.0
1.05041 -0.167831 0.0
0.359558 0.0205021 0.0
1.38214 0.141294 0.0
1.76455 -0.17973 0.0
1.41339 -0.0453681 0.0
1.05282 -0.237175 0.0
0.510953 0.00707736 0.0
1.39918 -0.16718 0.0
0.505461 -0.00629616 0.0
1.20178 0.099227 0.0
1.11455 0.0260791 0.0
1.61303 -0.313058 0.0
1.23983 -0.0105742 0.0
1.20957 0.00113534 0.0
1.29084 -0.417489 0.0
0.869672 -0.00369036 0.0
1.40838 -0.0824932 0.0
1.77529 -0.27955 0.0
1.51884 -0.0288379 0.0
1.15008 -0.0403359 0.0
1.1262 -0.000210064 0.0
1.6585 -0.0990111 0.0
1.68775 -0.199287 0.0
1.15856 0.847299 0.0
0.997012 -6.55837e-05 0.0
0.195815 0.0356606 0.0
1.02808 0.00765022 0.0
-0.24012 0.0714039 0.0
1.33192 0.227569 0.0
-0.279444 0.0863037 0.0
1.16379 -0.000742577 0.0
0.862729 -0.0259361 0.0
0.218419 0.0245105 0.0
1.16467 -0.00440246 0.0
0.79358 0.0140792 0.0
1.16367 -0.00392002 0.0
0.791924 -0.0138505 0.0
1.20126 0.00762659 0.0
0.881291 0.157078 0.0
0.942227 0.00646313 0.0
1.63152 -0.0464037 0.0
0.979384 -0.0346671 0.0
0.610838 0.00121556 0.0
1.75198 -0.382962 0.0
1.15969 -0.246711 0.0
0.656221 0.0120069 0.0
1.26145 -0.227335 0.0
1.34581 0.170061 0.0
0.919372 -0.0667233 0.0
1.20722 0.178223 0.0
0.0864258 0.0985812 0.0
1.83888 0.530349 0.0
1.18736 0.00376082 0.0
1.27225 0.0101213 0.0
-0.189503 -0.0110551 0.0
-0.347933 0.0783555 0.0
1.44294 -0.064768 0.0
1.18239 -0.0411111 0.0
0.988183 0.00123548 0.0
0.849459 -0.0259356 0.0
-0.18447 0.0905898 0.0
1.01628 -0.0107742 0.0
-0.244034 0.112732 0.0
1.08214 -0.0985566 0.0
1.15633 -0.013847 0.0
0.946784 0.00191821 0.0
1.63927 -0.161211 0.0
1.7424 -0.670635 0.0
1.27316 -0.397897 0.0
1.0715 -0.0621145 0.0
0.498474 -0.0235696 0.0
1.78804 0.649639 0.0
1.21901 0.00341714 0.0
1.48524 -0.109383 0.0
1.23121 0.189843 0.0
0.131759 0.0759072 0.0
1.44146 -0.0270036 0.0
1.07998 0.0149178 0.0
1.44262 0.040086 0.0
1.41395 0.00485046 0.0
1.39182 0.0528569 0.0
1.06442 -0.00177113 0.0
0.255608 0.0398515 0.0
1.19023 0.0421278 0.0
1.51967 0.581782 0.0
1.25166 0.108453 0.0
0.919928 -0.063469 0.0
0.727099 -0.0994642 0.0
1.20499 0.0862341 0.0
1.44681 -0.0430513 0.0
1.11804 0.0247905 0.0
1.74963 0.501375 0.0
0.549911 -0.0713156 0.0
1.16306 -0.0141394 0.0
0.620058 -0.00159505 0.0
0.885869 0.063865 0.0
1.60323 -0.0214746 0.0
1.01978 -0.153396 0.0
-0.276006 0.0745718 0.0
0.123275 0.0623862 0.0
1.22618 0.0823803 0.0
1.04842 -0.025282 0.0
1.66387 -0.761313 0.0
1.50088 0.0035717 0.0
1.0347 0.00535875 0.0
1.07835 -0.245041 0.0
1.00479 0.00702683 0.0
1.52364 0.00732673 0.0
0.0226652 0.0312555 0.0
-0.254456 0.0379994 0.0
-0.182512 0.00605936 0.0
0.639773 0.0153057 0.0
0.650991 -0.0117999 0.0
0.55534 -0.101529 0.0
1.0347 -0.00714107 0.0
1.79638 -0.332558 0.0
1.04817 -0.153547 0.0
1.20282 -0.0491844 0.0
1.20456 0.0544207 0.0
0.493273 -0.000608486 0.0
1.64358 0.0737168 0.0
0.857329 0.0304638 0.0
1.24789 -0.0571287 0.0
-0.23051 0.0470653 0.0
1.74049 0.446456 0.0
1.14287 0.00718652 0.0
1.22204 -0.204902 0.0
1.14247 0.0343877 0.0
1.05422 0.130239 0.0
0.984173 -0.0011775 0.0
0.987066 0.109847 0.0
0.565752 -0.00322526 0.0
1.17168 -0.0345278 0.0
0.928676 -0.0247486 0.0
1.22841 0.00383863 0.0
1.36546 0.265504 0.0
1.19051 0.0867563 0.0
1.1051 0.00516406 0.0
1.11623 0.00607168 0.0
1.18258 0.198676 0.0
1.1201 -0.287599 0.0
1.11396 0.0111591 0.0
1.16601 -0.225254 0.0
1.11969 0.00873491 0.0
0.363307 0.110135 0.0
1.08769 -0.644379 0.0
0.730572 -0.127087 0.0
1.02315 -0.00803092 0.0
0.765689 -0.0789871 0.0
0.762203 -0.0636611 0.0
1.02691 0.00712852 0.0
1.05545 0.0959199 0.0
0.461041 0.0470103 0.0
0.889608 -0.829917 0.0
1.77864 0.345031 0.0
1.02824 -0.00205719 0.0
0.982012 0.00697562 0.0
0.667325 0.0602211 0.0
0.853179 0.0570267 0.0
0.397735 0.0590067 0.0
1.00132 -0.0149061 0.0
1.42771 -0.0322278 0.0
1.44965 0.581427 0.0
1.15458 0.193108 0.0
1.06901 -0.0135995 0.0
1.42685 0.0384013 0.0
1.04179 -0.0924567 0.0
1.40075 -0.0916275 0.0
1.43601 -0.0446959 0.0
0.483406 0.0244652 0.0
0.661157 0.0127257 0.0
0.899599 -0.0228117 0.0
0.857363 0.0335447 0.0
0.526393 0.017043 0.0
0.517752 -0.002721 0.0
1.79012 0.286447 0.0
1.11151 0.0106235 0.0
1.4408 -0.00367999 0.0
1.12126 0.0112917 0.0
0.732325 -0.077501 0.0
1.51112 -0.0908533 0.0
1.1761 -0.0310268 0.0
1.16073 -0.0120519 0.0
0.833097 -0.0495827 0.0
1.67135 -0.0704166 0.0
1.01013 0.0553159 0.0
0.996346 0.0114597 0.0
0.95852 -0.0262103 0.0
1.227 0.00287078 0.0
1.43539 -0.137516 0.0
1.72984 -0.600849 0.0
1.18229 -0.00618014 0.0
1.19972 -0.0104592 0.0
0.993064 -0.000846543 0.0
1.06355 -0.132776 0.0
1.02723 -0.00965711 0.0
0.995672 -0.0062162 0.0
1.25798 0.310857 0.0
1.03831 -0.256613 0.0
1.09444 0.171742 0.0
1.31868 0.132579 0.0
0.744268 -0.106822 0.0
0.355086 -0.0454546 0.0
0.958755 0.0159121 0.0
1.4387 0.0570214 0.0
1.42205 0.918319 0.0
0.682938 -0.0851877 0.0
1.1493 -0.0163957 0.0
1.70427 0.140238 0.0
1.09693 -0.898574 0.0
0.868426 -0.177613 0.0
1.14034 -0.037822 0.0
0.563751 -0.00803283 0.0
1.02611 0.0270415 0.0
0.54875 -0.00941086 0.0
1.03059 -0.00424331 0.0
1.21982 0.00359604 0.0
0.624364 -0.0118524 0.0
0.775137 -0.033728 0.0
1.09485 -0.285467 0.0
1.32591 -0.104831 0.0
1.21774 0.00139645 0.0
1.01883 -0.00152211 0.0
1.00428 0.00905797 0.0
0.512209 -0.00558123 0.0
1.22056 0.00609664 0.0
0.735971 -0.0261421 0.0
1.12729 0.0437206 0.0
0.997664 -0.00991433 0.0
0.570127 0.00371079 0.0
1.24099 -0.110113 0.0
1.2275 -0.171195 0.0
0.788714 -0.0267009 0.0
1.14002 -0.0655558 0.0
0.591036 0.00158509 0.0
0.983173 -0.0145532 0.0
0.116611 0.0675157 0.0
1.19787 0.000182265 0.0
1.19454 -0.00992758 0.0
0.601203 -0.00400072 0.0
0.942741 -0.194364 0.0
0.986733 -0.0145883 0.0
1.42989 0.154652 0.0
1.19352 0.00174608 0.0
1.22834 -0.000762313 0.0
1.22356 -0.170782 0.0
1.23001 -0.00236373 0.0
1.22849 0.0011692 0.0
1.17198 -0.0172795 0.0
0.935369 -0.114674 0.0
0.835802 0.0428665 0.0
1.23032 -0.0046847 0.0
1.22689 -0.000340133 0.0
1.2227 -0.00162595 0.0
0.634896 0.0704903 0.0
0.46663 0.00514175 0.0
0.996984 0.0101358 0.0
0.552135 -0.00746553 0.0
1.22871 -0.0050108 0.0
1.00201 -0.0172714 0.0
1.15913 0.0107252 0.0
-0.26115 -0.0269177 0.0
0.968853 -0.0109126 0.0
0.506872 -0.00420395 0.0
1.31893 -0.604731 0.0
1.12228 -0.00757176 0.0
0.97144 -0.0150949 0.0
0.530226 -0.00980679 0.0
1.22831 -0.00270509 0.0
0.867947 0.0407922 0.0
0.53924 0.00160185 0.0
0.992987 -0.0144646 0.0
1.22904 -0.00526525 0.0
1.22178 -0.00237345 0.0
1.22636 -0.00258666 0.0
0.627164 -0.00695915 0.0
0.452127 0.000593442 0.0
1.22666 -0.0062496 0.0
1.14189 -0.0736949 0.0
1.20206 -0.00709918 0.0
0.609406 0.00989459 0.0
1.18305 -0.00809991 0.0
1.2194 -0.0049132 0.0
1.20677 0.00115435 0.0
1.23163 -0.00687737 0.0
0.47164 -0.00649091 0.0
1.22511 -0.00619277 0.0
1.2262 -0.00602237 0.0
1.21727 -0.00680129 0.0
0.461889 -0.00360445 0.0
1.21201 -0.00215505 0.0
1.18137 -0.00610215 0.0
1.1977 -0.000957317 0.0
1.22927 -0.0070266 0.0
1.17057 -0.158012 0.0
1.12851 0.00141403 0.0
1.23071 -0.00726783 0.0
1.3509 0.668521 0.0
1.2149 -0.00647819 0.0
0.514949 -0.00673174 0.0
1.09584 -0.0223236 0.0
0.570203 0.00802103 0.0
0.592729 -0.00943216 0.0
1.11944 0.0069338 0.0
1.09549 -0.0126029 0.0
1.06912 -0.00799002 0.0
0.53096 -0.00812235 0.0
1.10159 -0.0220505 0.0
1.12642 0.00553528 0.0
1.22811 -0.0076832 0.0
1.07425 0.139176 0.0
1.15509 -0.696825 0.0
0.561066 -0.00482127 0.0
0.519237 -0.00546021 0.0
1.22369 -0.00591709 0.0
1.22557 -0.00799763 0.0
0.617369 -0.0184432 0.0
0.507176 -0.00930386 0.0
1.22116 -0.00519334 0.0
0.991278 0.016219 0.0
1.16289 0.0113223 0.0
1.15557 -0.0070409 0.0
0.564291 0.00705809 0.0
0.515739 -0.00225712 0.0
1.14493 0.0173532 0.0
0.601243 0.0139534 0.0
0.567059 0.0145691 0.0
1.175 0.00868398 0.0
0.617398 0.0206626 0.0
0.569258 -0.000791096 0.0
1.21203 -0.00460235 0.0
1.19984 -0.00389563 0.0
0.961983 0.015509 0.0
1.20912 -0.00254193 0.0
1.18135 -0.00277571 0.0
1.2167 -0.00362474 0.0
0.98349 0.0114217 0.0
1.15109 -0.00335431 0.0
0.608938 0.00599294 0.0
0.50261 0.0140647 0.0
0.55259 0.0137071 0.0
0.470419 -0.00828596 0.0
0.535991 0.000438742 0.0
0.558184 -0.00510839 0.0
0.525645 -0.00258471 0.0
0.638524 -0.0138833 0.0
0.547482 -0.00474434 0.0
0.575005 0.0130099 0.0
0.491891 -0.00720949 0.0
0.574287 0.0156184 0.0
0.501258 -2.39791e-05 0.0
0.678159 0.0213771 0.0
0.576947 0.0101619 0.0
0.57062 -0.0115703 0.0
0.491505 0.00249504 0.0
0.527892 -0.00207569 0.0
0.510383 0.00759634 0.0
0.610313 -0.00984077 0.0
0.53885 -0.00130357 0.0
0.60003 -0.00772498 0.0
0.556689 -0.012406 0.0
0.543366 0.00654515 0.0
0.523053 -9.91065e-05 0.0
0.540754 0.00350648 0.0
0.484541 -0.0168026 0.0
0.489853 0.0198051 0.0
0.491775 0.000425268 0.0
0.554953 -0.0072534 0.0
0.497296 0.00331172 0.0
0.645281 -0.0211319 0.0
0.493998 0.00581103 0.0
0.469641 0.00513101 0.0
0.512486 0.000757321 0.0
0.488994 -0.00292401 0.0
1.17982 -0.00201767 0.0
1.16059 -0.00593366 0.0
1.22388 -0.00729646 0.0
1.22214 -0.00529687 0.0
1.22503 -0.00547665 0.0
1.11773 -0.00728424 0.0
1.19615 -0.0067562 0.0
1.17691 -0.00626136 0.0
1.18228 0.00389194 0.0
1.1538 -0.00232288 0.0
1.20802 -0.00769021 0.0
1.21041 -0.0083639 0.0
1.17295 -0.00617684 0.0
1.21817 -0.00391543 0.0
1.19463 -0.00125058 0.0
1.21893 -0.00606641 0.0
1.19242 -0.00699408 0.0
1.15181 0.000680475 0.0
1.2155 -0.00620423 0.0
1.22095 -0.0044528 0.0
1.20654 -0.00165484 0.0
1.21923 -0.00409939 0.0
1.21438 -0.00541195 0.0
1.15573 -0.00856459 0.0
1.21945 -0.00228142 0.0
1.19694 -0.00324245 0.0
1.21667 -0.00167231 0.0
1.11951 -0.00107697 0.0
1.19766 -0.00334587 0.0
1.191 0.000919595 0.0
1.2124 -0.00174682 0.0
1.17471 -0.00125447 0.0
1.21181 -0.00250491 0.0
1.2148 -0.00256014 0.0
1.18548 0.00353349 0.0
1.21563 -0.00171254 0.0
1.2068 -0.0040951 0.0
1.21003 1.91461e-06 0.0
1.15265 -0.00806689 0.0
1.17636 -0.00224497 0.0
1.21289 -0.000240314 0.0
1.20444 -0.00339077 0.0
1.20179 0.00140693 0.0
1.19887 0.00285336 0.0
1.16186 -0.0127601 0.0
1.21088 -3.89513e-05 0.0
1.20756 0.000347057 0.0
1.13706 -0.00553792 0.0
1.19295 -0.00418369 0.0
1.12087 0.00354331 0.0
1.17915 -0.00409367 0.0
1.1899 -0.00378393 0.0
1.20165 -0.00362926 0.0
1.20798 -0.00139918 0.0
1.17508 -0.00419281 0.0
1.20512 -0.00348149 0.0
1.20429 -0.00112351 0.0
1.20648 0.000270876 0.0
1.20218 0.00248925 0.0
1.1989 0.00283319 0.0
1.19674 0.00338316 0.0
1.18497 0.00536991 0.0
1.13559 -0.0060348 0.0
1.0938 0.00706869 0.0
1.1803 0.00672482 0.0
1.20256 0.000692767 0.0
0.574532 -0.00627602 0.0
1.18836 0.00528472 0.0
1.14897 0.00698189 0.0
1.17119 0.00724139 0.0
1.20055 0.00272464 0.0
1.16891 0.006995 0.0
1.18043 0.00551293 0.0
1.17337 0.000224305 0.0
1.19177 0.005082 0.0
1.1799 -0.000809797 0.0
1.13299 -0.00479034 0.0
1.13306 -0.0077501 0.0
1.15723 -0.00469233 0.0
1.18828 0.00634709 0.0
1.17608 -0.00405319 0.0
1.18712 0.00331435 0.0
1.16886 -0.003745 0.0
1.18557 -0.00373897 0.0
1.19104 0.00272877 0.0
1.18448 0.00576201 0.0
0.980658 -0.0128562 0.0
1.17325 -0.00335689 0.0
1.17707 0.00766553 0.0
1.14623 0.00854538 0.0
1.19122 -0.00229672 0.0
1.19543 0.000161578 0.0
1.08067 -0.017929 0.0
1.16706 0.0108733 0.0
1.18009 -0.00345802 0.0
1.14788 0.0147901 0.0
1.19113 -5.3052e-05 0.0
1.15058 0.01787 0.0
1.16941 -0.00439447 0.0
1.1947 -0.00229019 0.0
1.17652 -0.00105086 0.0
1.11937 0.176566 0.0
1.15327 -0.00719514 0.0
1.21905 -0.00891183 0.0
1.1729 0.00939052 0.0
1.17752 0.00116516 0.0
1.15806 -0.0134803 0.0
1.16233 -0.00343733 0.0
1.13938 -0.00294904 0.0
1.16189 -0.00956555 0.0
1.16997 0.00265577 0.0
1.14094 -0.00109319 0.0
1.16487 0.00232346 0.0
1.16548 -0.00675298 0.0
1.16481 -0.0027098 0.0
1.15097 0.0120896 0.0
1.16206 -0.00526232 0.0
0.717779 -0.0205658 0.0
0.973342 0.00413611 0.0
1.14635 0.0143449 0.0
1.14944 0.00949008 0.0
1.15674 -0.00772859 0.0
1.14164 0.0120725 0.0
1.14874 0.0144272 0.0
1.14702 -0.00240717 0.0
1.12935 0.000868208 0.0
1.14183 -0.00319257 0.0
1.13542 0.000952264 0.0
1.12295 0.0121412 0.0
1.16021 0.00568201 0.0
1.15418 0.00860298 0.0
0.995815 0.00782453 0.0
1.15555 0.00587047 0.0
1.15891 0.011676 0.0
1.15119 0.0121992 0.0
1.1162 0.0152263 0.0
1.13631 0.0158501 0.0
1.15575 0.0126245 0.0
1.7355 0.181595 0.0
1.12148 -0.0106371 0.0
1.12862 0.0193952 0.0
1.10098 -0.0224464 0.0
1.14969 0.0220905 0.0
1.14888 0.0162794 0.0
1.11504 -0.0129929 0.0
1.14715 0.0221577 0.0
1.21875 -0.00555875 0.0
1.07154 -0.00959565 0.0
1.09836 0.015461 0.0
1.09872 -0.00695207 0.0
1.30713 0.126214 0.0
1.21467 -0.00528359 0.0
1.08217 -0.00215952 0.0
1.15432 -0.00769106 0.0
1.14097 0.0283426 0.0
1.14689 0.0226646 0.0
1.09116 -0.00855915 0.0
1.09507 -0.027474 0.0
0.981594 -0.0147996 0.0
1.19019 -0.000791808 0.0
1.0685 0.000647124 0.0
1.07823 0.000178209 0.0
1.1219 0.0248107 0.0
1.11874 -0.0269683 0.0
1.02981 0.198337 0.0
0.962526 -0.0149432 0.0
1.13707 0.0339446 0.0
0.442334 -0.164432 0.0
1.38198 0.131577 0.0
1.18154 -0.0524303 0.0
1.0661 0.0103299 0.0
1.06701 0.0258115 0.0
1.05518 0.0364542 0.0
1.21455 -0.00137274 0.0
1.05355 0.014349 0.0
1.03849 -0.0442371 0.0
1.30216 0.175946 0.0
1.00351 -0.142549 0.0
1.03354 -0.0579397 0.0
1.15174 -0.133468 0.0
1.14735 -0.0123537 0.0
1.0959 -0.0482775 0.0
1.17889 -0.00344462 0.0
0.937652 0.00177823 0.0
1.18113 0.0542366 0.0
1.00942 -0.0139498 0.0
1.238 -0.101989 0.0
1.21343 -0.00545145 0.0
1.20188 -0.00643965 0.0
1.05663 -0.0201169 0.0
1.39839 -0.567465 0.0
1.13286 0.083595 0.0
0.996065 -0.0202883 0.0
1.1331 0.067057 0.0
0.958237 0.00149104 0.0
0.757594 0.0281575 0.0
1.09042 0.0450879 0.0
1.32725 -0.16059 0.0
0.933687 -0.0909195 0.0
1.09947 -0.0398559 0.0
0.632632 -0.556534 0.0
1.10922 -0.0282683 0.0
1.11521 -0.00678549 0.0
1.15296 -0.00746258 0.0
1.39107 -0.13954 0.0
1.08103 0.0601474 0.0
1.17878 -0.00268997 0.0
1.04839 -0.0263344 0.0
1.16396 0.0363937 0.0
0.988915 -0.0173714 0.0
1.34997 -0.771795 0.0
1.22225 0.0047018 0.0
1.17979 0.0517038 0.0
1.19859 0.00293004 0.0
1.12588 -0.000619427 0.0
1.18061 -0.0567884 0.0
1.06608 0.0202149 0.0
1.21031 0.081547 0.0
1.12221 -0.00805284 0.0
1.1594 0.0443468 0.0
0.958816 0.001644 0.0
1.14968 0.01124 0.0
1.18051 -0.531643 0.0
0.658434 -0.00616473 0.0
0.680282 -0.0232805 0.0
0.925976 0.0271703 0.0
1.26631 0.119845 0.0
1.15214 -0.00625862 0.0
1.18045 -0.00535617 0.0
0.606275 0.0102317 0.0
1.19992 -0.00596874 0.0
0.328354 -0.123559 0.0
1.07366 -0.0993829 0.0
0.554333 0.00876359 0.0
0.560019 -0.0112752 0.0
0.900468 0.0403253 0.0
1.15688 -0.0059517 0.0
0.863952 -0.174342 0.0
0.850756 -0.0252138 0.0
1.68893 -0.124995 0.0
0.941405 0.0374215 0.0
1.15128 -0.0106447 0.0
1.15193 -0.0121279 0.0
1.05284 0.0085222 0.0
1.21976 0.00360228 0.0
1.17662 0.0013121 0.0
1.18512 0.348324 0.0
0.619902 0.0174279 0.0
1.01892 0.00192812 0.0
1.36921 -0.097998 0.0
0.53701 0.00753536 0.0
1.58077 0.56092 0.0
0.934825 -0.0418746 0.0
0.797369 -0.0267319 0.0
1.34105 0.0882922 0.0
0.782776 -0.0538362 0.0
0.95537 -0.000838297 0.0
0.668663 -0.116318 0.0
1.15681 -0.0170381 0.0
0.880961 0.0996353 0.0
1.13716 -0.0146798 0.0
0.659771 -0.00412821 0.0
1.02962 0.0057171 0.0
0.981038 0.13639 0.0
1.40951 -0.0327803 0.0
0.520853 -0.00341245 0.0
0.637334 -0.0245253 0.0
0.91875 0.805438 0.0
1.11029 -0.00105289 0.0
1.05163 0.0116232 0.0
1.39241 0.0135423 0.0
0.601573 -0.0105938 0.0
1.13211 0.0183331 0.0
1.16665 -0.448612 0.0
0.186484 0.0223935 0.0
0.925969 -0.0633477 0.0
1.07064 -0.0834801 0.0
0.734903 0.02398 0.0
0.519792 0.0179177 0.0
1.64897 0.0362707 0.0
1.15429 -0.00571773 0.0
0.311487 0.0152317 0.0
0.572399 0.0250135 0.0
1.1443 -0.00604007 0.0
1.20158 -0.00629574 0.0
1.00198 -0.0180383 0.0
0.93886 0.062491 0.0
1.20924 0.172563 0.0
0.63948 0.0109031 0.0
1.20162 0.00780816 0.0
0.920265 0.0929187 0.0
1.20603 -0.00810302 0.0
1.388 -0.593458 0.0
0.515183 0.000886538 0.0
1.45923 -0.13006 0.0
1.11027 0.00800837 0.0
0.952426 -0.0140303 0.0
0.621584 0.0903286 0.0
0.99185 0.102005 0.0
0.897474 0.139868 0.0
1.11273 0.00915913 0.0
1.21741 -0.0581655 0.0
1.39921 -0.0369385 0.0
0.585063 0.00503217 0.0
0.609286 0.0150782 0.0
1.07415 -0.0035493 0.0
0.404542 -0.0728927 0.0
1.04382 0.0366127 0.0
0.492734 0.00361976 0.0
0.965391 -0.011205 0.0
1.11115 -0.00447231 0.0
0.943265 -0.00956155 0.0
0.555918 -0.00664486 0.0
0.554977 0.0189977 0.0
0.567503 0.00925765 0.0
0.519539 0.00723992 0.0
0.586298 0.0111852 0.0
1.21072 0.669588 0.0
1.36082 0.0695256 0.0
0.96485 -0.00278785 0.0
0.54334 0.00783148 0.0
0.555224 -0.0126371 0.0
0.699031 0.0250527 0.0
1.15619 -0.0476305 0.0
0.618233 0.00121784 0.0
1.60387 -0.193069 0.0
1.29576 0.0955711 0.0
0.537452 -0.14067 0.0
1.34515 -0.093781 0.0
1.52682 -0.466834 0.0
1.00971 0.00532716 0.0
1.09054 0.0184857 0.0
1.14193 -0.0124199 0.0
0.96111 0.002544 0.0
0.837056 -0.68922 0.0
1.0259 -0.001688 0.0
0.979182 -0.0053254 0.0
1.20119 -0.0124191 0.0
1.12153 -0.0343629 0.0
1.64824 -0.000276686 0.0
-0.120619 0.0978796 0.0
0.507064 -0.0687657 0.0
1.33617 0.518171 0.0
1.07382 -0.012085 0.0
0.606475 -0.0117995 0.0
0.578173 -0.00540662 0.0
0.57347 -0.00573771 0.0
1.22042 0.00576126 0.0
0.634054 0.211404 0.0
1.17464 -0.0248603 0.0
0.976917 0.0119339 0.0
0.751566 0.163237 0.0
1.12512 -0.00232946 0.0
0.139027 -0.0098384 0.0
1.18776 0.00594293 0.0
0.566896 0.0209425 0.0
0.564158 -0.0101611 0.0
1.34014 0.0856053 0.0
0.842594 -0.0113601 0.0
1.50638 0.0321014 0.0
0.974583 0.0146629 0.0
0.990723 0.0108377 0.0
0.112062 -0.166242 0.0
0.973518 0.0287973 0.0
1.17051 0.0132331 0.0
1.1531 0.0133187 0.0
0.356203 -0.136296 0.0
1.61639 -0.273205 0.0
1.09381 -0.000231663 0.0
1.28761 0.195188 0.0
0.591265 -0.0137418 0.0
0.558973 -0.00734865 0.0
1.12368 -0.0167737 0.0
0.531374 0.0897581 0.0
1.12591 -0.0274047 0.0
0.809084 0.021832 0.0
0.934829 -0.00886671 0.0
1.13138 0.0121641 0.0
0.997153 -0.00363541 0.0
0.201883 -0.0209012 0.0
1.148 -0.0127911 0.0
0.309919 0.0604119 0.0
1.01118 -0.00105861 0.0
1.00266 -0.00383933 0.0
0.576185 -0.0157762 0.0
1.07093 -0.00948371 0.0
1.17471 -0.0250067 0.0
0.949781 0.000215539 0.0
0.991332 -0.0129651 0.0
1.20023 -0.964622 0.0
1.13218 0.0225344 0.0
1.6927 0.486912 0.0
0.558004 -0.0163387 0.0
0.547713 0.00642568 0.0
1.16705 0.00564603 0.0
1.22509 -0.00640982 0.0
1.11365 -0.0079805 0.0
1.12283 -0.00141105 0.0
1.18038 0.00542382 0.0
1.13089 0.004945 0.0
1.21585 -0.00888363 0.0
1.15073 0.025939 0.0
-0.198057 0.018809 0.0
1.10329 0.0151556 0.0
-0.0246036 0.0291872 0.0
0.662795 -0.0255455 0.0
1.20453 -0.177613 0.0
1.14595 -0.0112369 0.0
1.36833 -0.138132 0.0
1.64631 -0.50241 0.0
0.314249 -0.0181109 0.0
1.20934 -0.00800255 0.0
1.129 0.272006 0.0
1.35106 -0.0984099 0.0
1.07137 0.30569 0.0
1.70951 0.0867937 0.0
0.975241 -0.542449 0.0
1.37208 0.132332 0.0
1.12224 -0.0164141 0.0
1.28964 -0.480968 0.0
-0.0869919 -0.108274 0.0
1.05908 0.000251499 0.0
1.31865 -0.394848 0.0
0.501053 -0.00482097 0.0
1.41862 -0.149919 0.0
1.68463 0.198407 0.0
1.09121 0.0129077 0.0
0.401806 0.0153894 0.0
0.717034 0.00182607 0.0
0.267869 -0.228457 0.0
0.956758 0.0459906 0.0
-0.118346 -0.0300416 0.0
1.14661 -0.162538 0.0
1.49629 0.143904 0.0
0.535007 0.00912288 0.0
1.22923 -0.0690006 0.0
0.968204 0.000466348 0.0
1.21173 0.00503256 0.0
0.43515 -0.615517 0.0
1.22864 0.264375 0.0
0.729601 -0.162638 0.0
0.191336 -0.330931 0.0
0.518075 0.160715 0.0
1.3026 0.238496 0.0
0.598278 0.152332 0.0
0.967319 -0.0124687 0.0
1.13918 -0.0158329 0.0
1.08235 0.0112197 0.0
1.07567 0.00902548 0.0
0.57183 0.00750081 0.0
0.0240951 0.0820731 0.0
1.3083 0.299786 0.0
0.465562 -0.00208528 0.0
1.10125 0.00933629 0.0
0.264441 0.21628 0.0
0.974949 -0.00423141 0.0