# vtk DataFile Version 3.0
Malha 2D com triângulos e temperatura
ASCII
DATASET UNSTRUCTURED_GRID

POINTS 688 double
0 0 0
2.2 0 0
2.2 0.41 0
0 0.41 0
0.25 0.2 0
0.05 0 0
0.1 0 0
0.15 0 0
0.2 0 0
0.25 0 0
0.3 0 0
0.35 0 0
0.4 0 0
0.45 0 0
0.5 0 0
0.55 0 0
0.6 0 0
0.65 0 0
0.7 0 0
0.75 0 0
0.8 0 0
0.85 0 0
0.9 0 0
0.95 0 0
1 0 0
1.05 0 0
1.1 0 0
1.15 0 0
1.2 0 0
1.25 0 0
1.3 0 0
1.35 0 0
1.4 0 0
1.45 0 0
1.5 0 0
1.55 0 0
1.6 0 0
1.65 0 0
1.7 0 0
1.75 0 0
1.8 0 0
1.85 0 0
1.9 0 0
1.95 0 0
2 0 0
2.05 0 0
2.1 0 0
2.15 0 0
2.2 0.0455556 0
2.2 0.0911111 0
2.2 0.136667 0
2.2 0.182222 0
2.2 0.227778 0
2.2 0.273333 0
2.2 0.318889 0
2.2 0.364444 0
2.15 0.41 0
2.1 0.41 0
2.05 0.41 0
2 0.41 0
1.95 0.41 0
1.9 0.41 0
1.85 0.41 0
1.8 0.41 0
1.75 0.41 0
1.7 0.41 0
1.65 0.41 0
1.6 0.41 0
1.55 0.41 0
1.5 0.41 0
1.45 0.41 0
1.4 0.41 0
1.35 0.41 0
1.3 0.41 0
1.25 0.41 0
1.2 0.41 0
1.15 0.41 0
1.1 0.41 0
1.05 0.41 0
1 0.41 0
0.95 0.41 0
0.9 0.41 0
0.85 0.41 0
0.8 0.41 0
0.75 0.41 0
0.7 0.41 0
0.65 0.41 0
0.6 0.41 0
0.55 0.41 0
0.5 0.41 0
0.45 0.41 0
0.4 0.41 0
0.35 0.41 0
0.3 0.41 0
0.25 0.41 0
0.2 0.41 0
0.15 0.41 0
0.1 0.41 0
0.05 0.41 0
0 0.364444 0
0 0.318889 0
0 0.273333 0
0 0.227778 0
0 0.182222 0
0 0.136667 0
0 0.0911111 0
0 0.0455556 0
0.248831 0.210749 0
0.245379 0.220994 0
0.239805 0.230259 0
0.232369 0.238108 0
0.22342 0.244176 0
0.213376 0.248177 0
0.202707 0.249927 0
0.191911 0.249341 0
0.181493 0.246449 0
0.171941 0.241384 0
0.1637 0.234385 0
0.157157 0.225778 0
0.152617 0.215965 0
0.150293 0.205406 0
0.150293 0.194594 0
0.152617 0.184035 0
0.157157 0.174222 0
0.1637 0.165615 0
0.171941 0.158616 0
0.181493 0.153551 0
0.191911 0.150659 0
0.202707 0.150073 0
0.213376 0.151823 0
0.22342 0.155824 0
0.232369 0.161892 0
0.239805 0.169741 0
0.245379 0.179006 0
0.248831 0.189251 0
0.421316 0.36725 0
0.426705 0.0366526 0
2.16065 0.209201 0
1.52286 0.0417259 0
0.626017 0.37111 0
1.3257 0.0414552 0
1.02471 0.0432237 0
1.17293 0.0421053 0
0.82501 0.36678 0
1.6757 0.370064 0
1.91628 0.0358195 0
1.82501 0.366432 0
0.723429 0.0421499 0
1.425 0.366699 0
1.97461 0.366224 0
1.12167 0.370137 0
0.975 0.368691 0
0.877672 0.0412714 0
1.27686 0.36884 0
1.725 0.0433013 0
0.579174 0.0416211 0
0.325589 0.363848 0
0.319111 0.0378151 0
0.0394523 0.296111 0
0.0329929 0.11602 0
0.142108 0.187428 0
1.57555 0.364352 0
2.02603 0.0412138 0
0.725007 0.36763 0
0.528647 0.366595 0
1.62699 0.0400272 0
1.82929 0.0421255 0
1.425 0.0418325 0
2.07474 0.364233 0
0.125 0.0433013 0
0.161245 0.155011 0
0.225 0.366699 0
0.210027 0.258536 0
2.16034 0.115449 0
0.0371627 0.204103 0
0.142311 0.212698 0
0.220283 0.0418538 0
0.221965 0.145099 0
0.196802 0.141016 0
0.119851 0.373394 0
0.161112 0.245979 0
0.184892 0.258024 0
2.16342 0.30039 0
2.12627 0.047699 0
0.183325 0.0412617 0
0.152317 0.0762976 0
0.203864 0.0745802 0
0.234384 0.0774346 0
0.215969 0.103585 0
0.245651 0.104548 0
0.186562 0.100216 0
0.268213 0.0793029 0
0.272149 0.109155 0
0.242885 0.159377 0
0.253088 0.128261 0
0.278718 0.13214 0
0.295917 0.115997 0
0.301728 0.138858 0
0.321266 0.12205 0
0.324642 0.151724 0
0.255978 0.181139 0
0.350123 0.129049 0
0.357539 0.159885 0
0.333541 0.181416 0
0.36451 0.19182 0
0.250573 0.230419 0
0.391277 0.169722 0
0.339477 0.212308 0
0.39836 0.205386 0
0.427326 0.18117 0
0.258724 0.206387 0
0.434392 0.219501 0
0.466446 0.193907 0
0.472865 0.243064 0
0.507358 0.209962 0
0.40073 0.238916 0
0.499135 0.1652 0
0.5419 0.179224 0
0.550176 0.22496 0
0.585844 0.194129 0
0.594095 0.240176 0
0.630701 0.209517 0
0.621901 0.162424 0
0.667731 0.178095 0
0.676485 0.226008 0
0.713906 0.194492 0
0.722681 0.242872 0
0.760442 0.211047 0
0.751547 0.162356 0
0.798298 0.179 0
0.807147 0.227866 0
0.845136 0.195775 0
0.854541 0.243285 0
0.892163 0.212344 0
0.902461 0.257947 0
0.93935 0.228684 0
0.930236 0.180167 0
0.977229 0.197066 0
0.986264 0.245777 0
1.02423 0.213991 0
1.0331 0.263172 0
1.07123 0.230975 0
1.06234 0.181814 0
1.10938 0.198721 0
1.09996 0.151012 0
1.14691 0.168161 0
1.15631 0.215921 0
1.19446 0.183678 0
1.20343 0.232645 0
1.2416 0.200322 0
1.23272 0.151117 0
1.2798 0.167954 0
1.28868 0.217167 0
1.32685 0.184862 0
1.33573 0.234064 0
1.3739 0.201768 0
0.789327 0.130094 0
1.38279 0.25097 0
1.42096 0.218674 0
1.41207 0.169471 0
1.45912 0.186378 0
1.46801 0.235581 0
1.50618 0.203285 0
1.51506 0.252489 0
1.55323 0.220192 0
1.54435 0.170989 0
1.5914 0.187896 0
1.60029 0.2371 0
1.63846 0.204803 0
1.64734 0.254007 0
1.68551 0.221711 0
1.67663 0.172507 0
1.72368 0.189415 0
1.73831 0.241548 0
1.77074 0.206322 0
1.76185 0.157121 0
1.8091 0.17428 0
1.81866 0.220885 0
1.85608 0.190621 0
1.86521 0.238879 0
1.90289 0.207671 0
1.91264 0.253772 0
1.94955 0.224093 0
1.94067 0.17593 0
1.98705 0.192828 0
1.99572 0.240997 0
2.0329 0.209382 0
2.02422 0.16161 0
2.04166 0.257286 0
0.419739 0.142889 0
0.968291 0.148058 0
0.310035 0.202211 0
0.316128 0.230863 0
0.658501 0.130052 0
0.685107 0.27445 0
1.34462 0.283266 0
1.16528 0.264896 0
1.84735 0.142081 0
0.557687 0.270604 0
1.21234 0.281769 0
1.58252 0.138692 0
0.533563 0.131933 0
0.489835 0.120004 0
1.45024 0.137174 0
2.06974 0.17785 0
2.06113 0.130713 0
0.283221 0.152215 0
0.921299 0.131169 0
0.343836 0.24295 0
0.319203 0.260002 0
0.235529 0.249617 0
0.347029 0.274099 0
0.291856 0.246297 0
0.295938 0.27548 0
0.272836 0.264931 0
0.27461 0.290522 0
0.251228 0.280224 0
0.253903 0.305808 0
0.232795 0.296709 0
0.298805 0.304058 0
1.0801 0.280176 0
1.47689 0.284785 0
1.05315 0.133468 0
1.09741 0.0970974 0
1.82427 0.272867 0
1.2701 0.118911 0
0.816337 0.277695 0
1.40432 0.121101 0
1.04244 0.320388 0
0.959305 0.103028 0
1.60923 0.286151 0
0.601674 0.286775 0
2.00739 0.280923 0
0.342592 0.0992796 0
0.375237 0.105729 0
1.52511 0.298716 0
1.53114 0.119823 0
0.733824 0.287256 0
0.613372 0.114719 0
0.645558 0.0838585 0
2.015 0.115858 0
1.22718 0.0994086 0
1.39166 0.29817 0
1.3564 0.329754 0
0.744134 0.11556 0
0.782853 0.0841771 0
0.826899 0.10047 0
1.17418 0.314034 0
0.520902 0.0906676 0
1.4967 0.329429 0
1.26048 0.0740437 0
0.365514 0.0716355 0
0.229836 0.121666 0
1.57453 0.09137 0
1.61938 0.110761 0
0.481716 0.0753791 0
0.14093 0.2 0
0.130041 0.192847 0
0.131507 0.178608 0
0.117165 0.184444 0
0.120761 0.164701 0
0.1156 0.199931 0
0.100804 0.174136 0
0.102545 0.153034 0
0.12169 0.143342 0
0.104604 0.13008 0
0.0809304 0.161171 0
0.128077 0.121858 0
0.106825 0.102278 0
0.082498 0.188728 0
0.0314738 0.158621 0
2.04625 0.310891 0
2.08475 0.27479 0
2.11394 0.138117 0
0.233149 0.151108 0
0.258724 0.193613 0
0.268522 0.184917 0
1.65397 0.301059 0
0.145962 0.224912 0
0.132503 0.222267 0
0.13746 0.236947 0
0.120111 0.233525 0
0.126593 0.25219 0
0.105294 0.247497 0
0.113343 0.26868 0
0.133997 0.271734 0
0.121622 0.292031 0
0.147069 0.292141 0
0.0896563 0.267464 0
0.0813699 0.243294 0
0.163574 0.276939 0
0.172694 0.298517 0
0.1583 0.321483 0
0.186823 0.322499 0
0.173113 0.348195 0
0.0322087 0.250839 0
0.211694 0.124337 0
0.250615 0.169546 0
0.256243 0.157787 0
0.170796 0.14736 0
0.156755 0.141654 0
0.17187 0.131161 0
0.147502 0.152323 0
0.198129 0.260662 0
0.206368 0.271663 0
0.220945 0.26864 0
0.190489 0.270628 0
0.198813 0.286731 0
0.55749 0.322277 0
0.520166 0.299321 0
0.235199 0.330709 0
0.267109 0.337524 0
0.172324 0.25256 0
0.255974 0.218859 0
0.268327 0.214994 0
0.184197 0.143083 0
0.188721 0.129954 0
0.209694 0.139146 0
0.269223 0.244007 0
0.252374 0.255244 0
0.282229 0.0410487 0
1.21977 0.330016 0
1.25733 0.296346 0
2.09358 0.0890819 0
0.244373 0.240984 0
0.0838116 0.115786 0
0.0797544 0.0817835 0
0.237449 0.264854 0
0.247178 0.146225 0
0.270136 0.2 0
0.28023 0.191334 0
0.263476 0.170737 0
0.371486 0.368728 0
0.396124 0.330051 0
0.440314 0.325693 0
0.357693 0.329668 0
0.476576 0.362035 0
0.29587 0.222914 0
0.307627 0.175476 0
0.079599 0.0406461 0
0.146062 0.252571 0
0.15162 0.125025 0
0.417223 0.294608 0
0.457089 0.286958 0
0.036619 0.338729 0
0.0713014 0.322193 0
0.0735823 0.36704 0
0.041143 0.0722223 0
0.693501 0.32349 0
0.145406 0.175484 0
0.138777 0.164467 0
0.300367 0.0698839 0
0.167025 0.112083 0
0.146978 0.105544 0
0.151909 0.236762 0
0.444611 0.106436 0
0.909355 0.0817561 0
0.282901 0.370713 0
1.61474 0.330739 0
0.578053 0.368179 0
0.824695 0.0487848 0
2.09634 0.3213 0
2.02276 0.364865 0
2.12532 0.363702 0
1.09789 0.328757 0
0.161137 0.260089 0
2.07793 0.225752 0
2.12079 0.240944 0
2.0747 0.0437362 0
1.89402 0.158846 0
1.93154 0.128738 0
1.8848 0.111477 0
1.8384 0.0926484 0
1.87744 0.0655304 0
1.7913 0.0793874 0
1.9712 0.046671 0
1.92502 0.366682 0
1.94563 0.325156 0
1.89941 0.326645 0
1.87499 0.367178 0
1.84989 0.323491 0
1.7997 0.321303 0
1.77183 0.280326 0
1.75031 0.321965 0
1.77491 0.365615 0
2.11727 0.191885 0
0.883187 0.163467 0
1.71449 0.140266 0
1.667 0.125342 0
1.70591 0.0884759 0
1.67732 0.042286 0
1.52278 0.370513 0
1.37512 0.04128 0
1.34848 0.0834574 0
0.776093 0.367587 0
1.125 0.0433013 0
1.15 0.0866019 0
1.07442 0.0496847 0
0.974527 0.0370837 0
1.47464 0.0427918 0
1.44953 0.0873752 0
1.17595 0.362984 0
1.025 0.366699 0
0.925007 0.367031 0
0.95 0.323404 0
0.897321 0.326356 0
0.874563 0.367261 0
0.846552 0.324465 0
1.62923 0.156667 0
1.32319 0.13033 0
1.69342 0.270472 0
1.49568 0.156227 0
1.56237 0.268721 0
1.44 0.319169 0
1.43005 0.267892 0
1.36502 0.152565 0
0.993446 0.294003 0
1.30179 0.321101 0
1.18235 0.127964 0
1.25016 0.2491 0
1.29638 0.266841 0
1.11824 0.247967 0
1.12945 0.294699 0
1.01527 0.165035 0
0.836192 0.147197 0
1.4998 0.0831488 0
1.00655 0.118664 0
0.872896 0.117126 0
0.70523 0.146383 0
1.96013 0.276645 0
0.769406 0.257102 0
0.699552 0.0908977 0
2.1587 0.162257 0
1.97813 0.145326 0
0.646036 0.302035 0
0.799423 0.326603 0
0.515621 0.255445 0
1.72538 0.366474 0
1.97009 0.0998346 0
1.57108 0.313772 0
0.577925 0.14549 0
0.638911 0.256447 0
0.407352 0.0771641 0
0.525103 0.042511 0
0.674231 0.370698 0
1.69802 0.321701 0
0.56947 0.0908728 0
1.75459 0.110239 0
1.80084 0.126127 0
0.673535 0.0431435 0
1.57391 0.0465733 0
2.04571 0.0828469 0
0.10002 0.225545 0
0.0788152 0.21577 0
0.369719 0.224393 0
0.210352 0.308739 0
1.22342 0.0432967 0
[...]
CELL_DATA 1241
VECTORS velocity double
1.01464 -0.00431124 0.0
1.21719 0.0665544 0.0
0.448141 -0.00139792 0.0
0.945632 0.00171194 0.0
1.04348 0.00541797 0.0
1.42285 0.103141 0.0
1.13478 0.000158103 0.0
0.980727 -0.000850016 0.0
0.363205 0.0158147 0.0
1.17841 0.00141801 0.0
1.31247 -0.119983 0.0
1.31627 0.126542 0.0
0.865763 -0.160594 0.0
1.01536 0.00863513 0.0
0.990643 0.00665395 0.0
1.46633 -0.0328653 0.0
0.978991 0.000728614 0.0
0.47961 0.0603804 0.0
1.17271 0.0624275 0.0
1.64766 -0.254189 0.0
1.02125 0.00468312 0.0
1.05943 -0.0663073 0.0
1.03745 -0.000350649 0.0
1.25311 0.904905 0.0
1.071 -0.0022702 0.0
1.02438 0.00290134 0.0
1.29897 -0.199429 0.0
1.07636 -0.025391 0.0
1.32175 -0.0836644 0.0
1.4624 -0.0648929 0.0
1.33199 0.0902538 0.0
0.86818 -0.0369015 0.0
1.52042 0.00266282 0.0
1.014 0.00690929 0.0
1.2567 -0.0565954 0.0
1.35888 0.156951 0.0
1.21265 -0.0554094 0.0
1.05041 -0.167832 0.0
0.359561 0.0205044 0.0
1.38218 0.141347 0.0
1.76451 -0.179797 0.0
1.41329 -0.045433 0.0
1.05282 -0.237185 0.0
0.503778 0.00687884 0.0
1.3992 -0.167227 0.0
0.498971 -0.00716656 0.0
1.20162 0.0990691 0.0
1.11521 0.0258606 0.0
1.61302 -0.3131 0.0
1.23971 -0.0104851 0.0
1.21345 0.000974259 0.0
1.29083 -0.417495 0.0
0.869555 -0.00365214 0.0
1.40865 -0.082378 0.0
1.77524 -0.279602 0.0
1.51897 -0.0287212 0.0
1.15087 -0.0400572 0.0
1.12699 -0.000240618 0.0
1.65843 -0.0990796 0.0
1.68774 -0.199356 0.0
1.15855 0.847307 0.0
0.99493 -0.000139202 0.0
0.195626 0.0357736 0.0
1.02715 0.00710326 0.0
-0.240043 0.071438 0.0
1.33192 0.227577 0.0
-0.279568 0.0862122 0.0
1.16648 -0.00155192 0.0
0.863222 -0.0258878 0.0
0.218224 0.0244469 0.0
1.1673 -0.00526914 0.0
0.793459 0.0141365 0.0
1.16625 -0.00481781 0.0
0.791756 -0.0137365 0.0
1.20544 0.00731339 0.0
0.881295 0.157085 0.0
0.942428 0.00712298 0.0
1.63146 -0.0464926 0.0
0.979702 -0.0346196 0.0
0.612503 0.00127597 0.0
1.75195 -0.383001 0.0
1.15969 -0.246728 0.0
0.657999 0.0119129 0.0
1.26146 -0.227364 0.0
1.34581 0.170067 0.0
0.919402 -0.0667401 0.0
1.20697 0.178065 0.0
0.0861288 0.098477 0.0
1.83885 0.530383 0.0
1.19106 0.00337899 0.0
1.27213 0.0101909 0.0
-0.189631 -0.0110345 0.0
-0.347989 0.0783019 0.0
1.44315 -0.0646542 0.0
1.18242 -0.0407835 0.0
0.985884 0.00124621 0.0
0.849282 -0.0258534 0.0
-0.184461 0.0905953 0.0
1.0176 -0.011317 0.0
-0.244222 0.112595 0.0
1.08214 -0.098557 0.0
1.15844 -0.0146921 0.0
0.947077 0.00254271 0.0
1.63918 -0.161254 0.0
1.74236 -0.670639 0.0
1.27316 -0.397901 0.0
1.07135 -0.0619899 0.0
0.49831 -0.023643 0.0
1.788 0.649653 0.0
1.22347 0.00323328 0.0
1.48535 -0.109225 0.0
1.23098 0.1897 0.0
0.131653 0.0759762 0.0
1.44146 -0.0270019 0.0
1.08011 0.0148863 0.0
1.44262 0.0400885 0.0
1.41407 0.00477008 0.0
1.39192 0.0529363 0.0
1.06579 -0.00218246 0.0
0.255361 0.0397354 0.0
1.19013 0.0421732 0.0
1.51966 0.5818 0.0
1.25162 0.108266 0.0
0.919972 -0.0634802 0.0
0.726884 -0.0993572 0.0
1.20479 0.0860674 0.0
1.44701 -0.0429504 0.0
1.11871 0.0245704 0.0
1.74958 0.501389 0.0
0.549917 -0.0713173 0.0
1.16529 -0.0148852 0.0
0.621765 -0.0017115 0.0
0.885931 0.0638802 0.0
1.60328 -0.0215795 0.0
1.01951 -0.153266 0.0
-0.276047 0.0745712 0.0
0.123196 0.0625128 0.0
1.22661 0.0822396 0.0
1.04865 -0.0252455 0.0
1.66383 -0.761311 0.0
1.50088 0.00357297 0.0
1.03532 0.00598041 0.0
1.07835 -0.245052 0.0
1.00496 0.00699524 0.0
1.52353 0.00723187 0.0
0.0223955 0.0311864 0.0
-0.254476 0.0380518 0.0
-0.182712 0.00603024 0.0
0.641331 0.0154127 0.0
0.652659 -0.0116714 0.0
0.555344 -0.101532 0.0
1.03489 -0.00710516 0.0
1.79634 -0.3326 0.0
1.04792 -0.153418 0.0
1.20282 -0.0491844 0.0
1.20456 0.0544224 0.0
0.485646 -0.00088342 0.0
1.64364 0.0738158 0.0
0.857159 0.0303829 0.0
1.24837 -0.0570047 0.0
-0.230503 0.046993 0.0
1.74047 0.446498 0.0
1.14317 0.008086 0.0
1.22204 -0.204902 0.0
1.14304 0.0341652 0.0
1.05422 0.130244 0.0
0.982207 -0.00074366 0.0
0.987064 0.109855 0.0
0.565485 -0.00346614 0.0
1.17147 -0.0341717 0.0
0.929126 -0.0246812 0.0
1.23339 0.0035656 0.0
1.36547 0.265539 0.0
1.191 0.0866222 0.0
1.10503 0.00562087 0.0
1.116 0.00643758 0.0
1.1826 0.198708 0.0
1.12009 -0.287605 0.0
1.11418 0.0119626 0.0
1.16602 -0.225272 0.0
1.11947 0.00909634 0.0
0.363144 0.110208 0.0
1.08768 -0.64437 0.0
0.730581 -0.127091 0.0
1.02447 -0.00853235 0.0
0.765701 -0.0789943 0.0
0.762222 -0.0636687 0.0
1.02742 0.00772349 0.0
1.05545 0.0959226 0.0
0.461052 0.0470124 0.0
0.889596 -0.829905 0.0
1.77863 0.345087 0.0
1.02835 -0.00208234 0.0
0.983358 0.00661716 0.0
0.667346 0.0602302 0.0
0.853018 0.0569307 0.0
0.397737 0.0590093 0.0
0.999138 -0.015012 0.0
1.42771 -0.0322273 0.0
1.44964 0.581443 0.0
1.15458 0.193114 0.0
1.06917 -0.013553 0.0
1.42685 0.0384026 0.0
1.04165 -0.0923197 0.0
1.40104 -0.0914956 0.0
1.436 -0.0446935 0.0
0.483258 0.0244165 0.0
0.662237 0.0126038 0.0
0.899963 -0.0227586 0.0
0.857734 0.0335061 0.0
0.519094 0.0171263 0.0
0.514539 -0.00296071 0.0
1.79011 0.286512 0.0
1.11178 0.0115379 0.0
1.44071 -0.00357968 0.0
1.12155 0.0120907 0.0
0.731686 -0.0773944 0.0
1.51121 -0.0907017 0.0
1.17583 -0.030698 0.0
1.163 -0.0128742 0.0
0.833097 -0.0495832 0.0
1.67135 -0.0705135 0.0
1.01022 0.0553419 0.0
0.99622 0.0113887 0.0
0.958792 -0.026174 0.0
1.23183 0.00255691 0.0
1.43551 -0.137352 0.0
1.72981 -0.600865 0.0
1.18381 -0.00597272 0.0
1.2024 -0.0109649 0.0
0.991284 -0.000357039 0.0
1.06355 -0.132776 0.0
1.02859 -0.0101423 0.0
0.996876 -0.00663944 0.0
1.25793 0.310859 0.0
1.03831 -0.256619 0.0
1.09407 0.171571 0.0
1.31878 0.132426 0.0
0.743748 -0.106716 0.0
0.355088 -0.0454552 0.0
0.958873 0.0159364 0.0
1.4387 0.0570248 0.0
1.42204 0.918327 0.0
0.682938 -0.0851892 0.0
1.15122 -0.0171859 0.0
1.70424 0.140322 0.0
1.09691 -0.898563 0.0
0.868426 -0.177616 0.0
1.14111 -0.0375773 0.0
0.560274 -0.0083494 0.0
1.0262 0.0270684 0.0
0.544848 -0.00963045 0.0
1.03142 -0.0046619 0.0
1.22447 0.00316104 0.0
0.619652 -0.0119136 0.0
0.775756 -0.0336739 0.0
1.09484 -0.28547 0.0
1.32607 -0.104628 0.0
1.22222 0.000895804 0.0
1.01978 -0.00167835 0.0
1.00251 0.00859381 0.0
0.508464 -0.00575354 0.0
1.2254 0.00585952 0.0
0.736776 -0.026071 0.0
1.12793 0.0435157 0.0
0.995675 -0.00999405 0.0
0.567182 0.00348174 0.0
1.24094 -0.109936 0.0
1.22741 -0.171032 0.0
0.789388 -0.0266406 0.0
1.13967 -0.0653315 0.0
0.586239 0.00168192 0.0
0.982929 -0.0151567 0.0
0.116394 0.0673916 0.0
1.20108 7.77119e-05 0.0
1.19705 -0.0104189 0.0
0.596348 -0.0040066 0.0
0.942561 -0.194252 0.0
0.987064 -0.0152051 0.0
1.42998 0.154464 0.0
1.19718 0.00110558 0.0
1.23305 -0.00126842 0.0
1.22356 -0.170782 0.0
1.23443 -0.00279974 0.0
1.2332 0.000876182 0.0
1.17157 -0.0171409 0.0
0.934872 -0.114549 0.0
0.835802 0.0428676 0.0
1.23435 -0.00504283 0.0
1.23142 -0.000689104 0.0
1.22685 -0.00189223 0.0
0.634929 0.0704978 0.0
0.45911 0.00504676 0.0
0.998012 0.0100118 0.0
0.547076 -0.00752323 0.0
1.23269 -0.00551805 0.0
1.00222 -0.0180023 0.0
1.16182 0.010329 0.0
-0.26131 -0.0268385 0.0
0.966803 -0.0117628 0.0
0.501387 -0.00455127 0.0
1.31889 -0.604722 0.0
1.12251 -0.00740588 0.0
0.97063 -0.0157378 0.0
0.525804 -0.0100555 0.0
1.23254 -0.00314638 0.0
0.868367 0.0407432 0.0
0.534182 0.0016216 0.0
0.99273 -0.0151997 0.0
1.23288 -0.00561922 0.0
1.22577 -0.00265048 0.0
1.23088 -0.00313953 0.0
0.62253 -0.00710907 0.0
0.446068 0.00024538 0.0
1.23015 -0.00649475 0.0
1.14159 -0.0734918 0.0
1.20461 -0.00724935 0.0
0.604643 0.00997821 0.0
1.18483 -0.00816874 0.0
1.22344 -0.00559011 0.0
1.2105 0.00098437 0.0
1.2353 -0.00727174 0.0
0.466752 -0.00671352 0.0
1.22843 -0.00643487 0.0
1.22996 -0.00653696 0.0
1.22013 -0.0069131 0.0
0.456486 -0.00378848 0.0
1.21596 -0.00281555 0.0
1.18309 -0.00617298 0.0
1.20082 -0.00110199 0.0
1.23274 -0.00739686 0.0
1.17044 -0.15788 0.0
1.12932 0.00142198 0.0
1.23396 -0.00747164 0.0
1.35089 0.668533 0.0
1.21761 -0.00657032 0.0
0.509997 -0.00691217 0.0
1.09722 -0.0221072 0.0
0.565321 0.00806974 0.0
0.594483 -0.00935722 0.0
1.11764 0.00693955 0.0
1.09705 -0.0124086 0.0
1.07078 -0.00782798 0.0
0.532836 -0.00805592 0.0
1.10299 -0.0218093 0.0
1.12451 0.00553199 0.0
1.23117 -0.00785521 0.0
1.07382 0.139012 0.0
1.15506 -0.69681 0.0
0.563117 -0.00476585 0.0
0.52126 -0.00541055 0.0
1.22645 -0.00591508 0.0
1.22832 -0.00815719 0.0
0.619256 -0.0183125 0.0
0.509359 -0.00922981 0.0
1.22375 -0.00514252 0.0
0.992126 0.0165723 0.0
1.1613 0.0114127 0.0
1.15589 -0.0074248 0.0
0.566438 0.00712554 0.0
0.517939 -0.00222427 0.0
1.14382 0.0172369 0.0
0.602561 0.0141813 0.0
0.568545 0.0146591 0.0
1.17383 0.00900571 0.0
0.618931 0.0205901 0.0
0.57074 -0.000844894 0.0
1.21411 -0.00432424 0.0
1.20152 -0.0034567 0.0
0.961824 0.0161735 0.0
1.21058 -0.00199527 0.0
1.18251 -0.00216537 0.0
1.21843 -0.0032406 0.0
0.982825 0.012257 0.0
1.15183 -0.0028772 0.0
0.607522 0.00586452 0.0
0.500966 0.014044 0.0
0.551055 0.0141107 0.0
0.466933 -0.00805875 0.0
0.533003 0.000748239 0.0
0.556494 -0.00527433 0.0
0.526228 -0.00280375 0.0
0.639927 -0.0138135 0.0
0.542163 -0.00463373 0.0
0.574135 0.0133068 0.0
0.487556 -0.00742293 0.0
0.576225 0.0155373 0.0
0.495656 8.74514e-05 0.0
0.678942 0.0213209 0.0
0.578309 0.0100834 0.0
0.572146 -0.0114952 0.0
0.488828 0.00270799 0.0
0.527038 -0.00221172 0.0
0.509145 0.00783836 0.0
0.611896 -0.00977605 0.0
0.533863 -0.00101289 0.0
0.601343 -0.00766503 0.0
0.558668 -0.0123218 0.0
0.544547 0.00677518 0.0
0.522477 8.24926e-05 0.0
0.53832 0.00396934 0.0
0.478868 -0.0169746 0.0
0.49168 0.0196942 0.0
0.493949 0.000445026 0.0
0.556657 -0.0071854 0.0
0.494438 0.00319385 0.0
0.646193 -0.0210743 0.0
0.492111 0.0061808 0.0
0.464796 0.00540835 0.0
0.506641 0.000905511 0.0
0.483711 -0.00278354 0.0
1.18088 -0.00137244 0.0
1.16149 -0.0062584 0.0
1.22648 -0.00739019 0.0
1.2243 -0.00513068 0.0
1.22739 -0.00535495 0.0
1.11909 -0.007738 0.0
1.19791 -0.00697486 0.0
1.17881 -0.00663955 0.0
1.1824 0.00462558 0.0
1.15441 -0.00157698 0.0
1.21024 -0.00790894 0.0
1.21283 -0.0086449 0.0
1.17469 -0.00650933 0.0
1.21972 -0.00371728 0.0
1.19567 -0.000537487 0.0
1.22106 -0.00610739 0.0
1.194 -0.00718295 0.0
1.15234 0.00147037 0.0
1.21743 -0.00621365 0.0
1.22269 -0.00428083 0.0
1.20783 -0.00106936 0.0
1.22114 -0.00375562 0.0
1.21661 -0.0051907 0.0
1.15649 -0.00890904 0.0
1.22077 -0.001913 0.0
1.19783 -0.0033632 0.0
1.2178 -0.00128963 0.0
1.12052 -0.0014007 0.0
1.19921 -0.00286644 0.0
1.19188 0.00166475 0.0
1.21284 -0.00148017 0.0
1.17576 -0.00145456 0.0
1.21269 -0.00237825 0.0
1.21586 -0.00243484 0.0
1.18574 0.00429368 0.0
1.21624 -0.00143589 0.0
1.20825 -0.00412928 0.0
1.21075 0.000533389 0.0
1.15285 -0.00845959 0.0
1.17754 -0.00245724 0.0
1.21379 0.000289411 0.0
1.20571 -0.00341024 0.0
1.20233 0.00207382 0.0
1.19925 0.00351572 0.0
1.16061 -0.012702 0.0
1.21108 0.00036235 0.0
1.20758 0.000735747 0.0
1.13781 -0.00596881 0.0
1.19367 -0.00432061 0.0
1.1218 0.00323374 0.0
1.1796 -0.00435279 0.0
1.18982 -0.00397111 0.0
1.2019 -0.0036648 0.0
1.20788 -0.00129997 0.0
1.17538 -0.00447028 0.0
1.20553 -0.00349314 0.0
1.20403 -0.00105247 0.0
1.2059 0.000473862 0.0
1.20204 0.00299633 0.0
1.19859 0.00332167 0.0
1.19569 0.00363644 0.0
1.18449 0.00592465 0.0
1.136 -0.00644833 0.0
1.09404 0.00778416 0.0
1.17919 0.0070735 0.0
1.20184 0.000864461 0.0
0.57645 -0.00621801 0.0
1.188 0.00587758 0.0
1.1486 0.00754753 0.0
1.17075 0.00783528 0.0
1.19963 0.00299949 0.0
1.16834 0.00752071 0.0
1.17861 0.00561804 0.0
1.17146 0.000191138 0.0
1.19066 0.00540917 0.0
1.17841 -0.000899761 0.0
1.13361 -0.00525509 0.0
1.13335 -0.00819377 0.0
1.15691 -0.0049737 0.0
1.18707 0.00664363 0.0
1.17505 -0.00424291 0.0
1.18548 0.00336936 0.0
1.16841 -0.00406639 0.0
1.18535 -0.0039566 0.0
1.18947 0.00280972 0.0
1.18271 0.00587479 0.0
0.979134 -0.0137683 0.0
1.17292 -0.00365167 0.0
1.17527 0.00781099 0.0
1.14577 0.0090824 0.0
1.19043 -0.00241018 0.0
1.19423 0.000169956 0.0
1.0823 -0.0177393 0.0
1.16547 0.0109744 0.0
1.17913 -0.00364438 0.0
1.14716 0.0150085 0.0
1.18983 -6.95724e-05 0.0
1.14985 0.0176983 0.0
1.16797 -0.00446708 0.0
1.19404 -0.00237291 0.0
1.17499 -0.00115178 0.0
1.11937 0.176574 0.0
1.15288 -0.00744373 0.0
1.22239 -0.00946926 0.0
1.17109 0.00950583 0.0
1.17562 0.00114446 0.0
1.1575 -0.0135094 0.0
1.16137 -0.00360403 0.0
1.13934 -0.00312447 0.0
1.16137 -0.00962237 0.0
1.16783 0.00269514 0.0
1.14085 -0.00123629 0.0
1.16277 0.00236579 0.0
1.16404 -0.00683479 0.0
1.16388 -0.00288507 0.0
1.14941 0.0120353 0.0
1.16014 -0.00523327 0.0
0.718524 -0.0205143 0.0
0.972248 0.0048933 0.0
1.14485 0.0142905 0.0
1.1476 0.00949551 0.0
1.15488 -0.00768906 0.0
1.14133 0.0119838 0.0
1.14793 0.0143972 0.0
1.14489 -0.00233637 0.0
1.12736 0.000917159 0.0
1.13979 -0.00311035 0.0
1.13333 0.000999293 0.0
1.12133 0.0120827 0.0
1.15808 0.00572782 0.0
1.15227 0.00861202 0.0
0.99515 0.00862476 0.0
1.15349 0.00591873 0.0
1.15766 0.0117227 0.0
1.15037 0.0121834 0.0
1.11468 0.0151815 0.0
1.136 0.0157323 0.0
1.15451 0.0126638 0.0
1.73545 0.181673 0.0
1.11966 -0.0105058 0.0
1.12739 0.0192761 0.0
1.0997 -0.0222199 0.0
1.14941 0.0218658 0.0
1.14772 0.0161606 0.0
1.11334 -0.0128654 0.0
1.14647 0.0219794 0.0
1.22266 -0.00621952 0.0
1.07067 -0.00976096 0.0
1.09891 0.0152875 0.0
1.0969 -0.00685075 0.0
1.30722 0.126039 0.0
1.21816 -0.00548086 0.0
1.08367 -0.00221609 0.0
1.15522 -0.00768665 0.0
1.14014 0.0281732 0.0
1.14663 0.0224544 0.0
1.08946 -0.00847277 0.0
1.09388 -0.0272659 0.0
0.980759 -0.0156176 0.0
1.19368 -0.00149545 0.0
1.06689 0.000692779 0.0
1.0765 0.000225473 0.0
1.12076 0.0247131 0.0
1.11998 -0.0267077 0.0
1.02975 0.198339 0.0
0.961012 -0.0156316 0.0
1.13631 0.0337907 0.0
0.442059 -0.164363 0.0
1.38215 0.131408 0.0
1.18141 -0.0521507 0.0
1.06458 0.0103053 0.0
1.06579 0.0257317 0.0
1.05406 0.0364007 0.0
1.21872 -0.00202553 0.0
1.05215 0.0143385 0.0
1.0376 -0.0440522 0.0
1.30216 0.175952 0.0
1.0032 -0.142415 0.0
1.03273 -0.0577785 0.0
1.15152 -0.133307 0.0
1.14908 -0.0128711 0.0
1.0952 -0.0480574 0.0
1.18111 -0.00356186 0.0
0.936427 0.00178962 0.0
1.18101 0.0540423 0.0
1.00801 -0.0138619 0.0
1.23792 -0.101795 0.0
1.21678 -0.00566593 0.0
1.20454 -0.00656498 0.0
1.05522 -0.0199744 0.0
1.39838 -0.56747 0.0
1.1324 0.0834601 0.0
0.994775 -0.020227 0.0
1.13258 0.0669105 0.0
0.956894 0.00150932 0.0
0.758288 0.0280888 0.0
1.08957 0.0449618 0.0
1.32725 -0.160587 0.0
0.933109 -0.0907895 0.0
1.09869 -0.0396163 0.0
0.632626 -0.556521 0.0
1.11046 -0.0280281 0.0
1.11646 -0.00721313 0.0
1.1542 -0.00777576 0.0
1.39114 -0.139387 0.0
1.08025 0.0600548 0.0
1.18107 -0.0027686 0.0
1.0471 -0.0262125 0.0
1.16354 0.0361893 0.0
0.989087 -0.0180104 0.0
1.34995 -0.77179 0.0
1.22713 0.00450243 0.0
1.17967 0.0514624 0.0
1.20221 0.00276136 0.0
1.12681 -0.000834575 0.0
1.18053 -0.0565258 0.0
1.06595 0.020133 0.0
1.21075 0.0814309 0.0
1.12238 -0.00794134 0.0
1.15903 0.0441482 0.0
0.956085 0.00168343 0.0
1.15201 0.0112428 0.0
1.1805 -0.531638 0.0
0.659688 -0.00605563 0.0
0.681273 -0.0231525 0.0
0.924808 0.0271258 0.0
1.26624 0.11968 0.0
1.15303 -0.0062359 0.0
1.1819 -0.00508893 0.0
0.607414 0.0101715 0.0
1.20202 -0.00589084 0.0
0.327955 -0.12353 0.0
1.07324 -0.0992256 0.0
0.550102 0.00914703 0.0
0.556414 -0.0109085 0.0
0.899407 0.0402968 0.0
1.15826 -0.00628866 0.0
0.863952 -0.174346 0.0
0.847362 -0.0255043 0.0
1.68893 -0.125078 0.0
0.94168 0.0373888 0.0
1.15257 -0.0107006 0.0
1.15318 -0.0121634 0.0
1.05363 0.0087345 0.0
1.22433 0.00342073 0.0
1.17922 0.00114744 0.0
1.18511 0.348334 0.0
0.620849 0.017332 0.0
1.02067 0.00168873 0.0
1.36953 -0.0978551 0.0
0.537688 0.00769442 0.0
1.58076 0.560942 0.0
0.933821 -0.0417604 0.0
0.796313 -0.0266723 0.0
1.34133 0.0881699 0.0
0.781857 -0.0538161 0.0
0.955641 -0.00121945 0.0
0.668451 -0.116172 0.0
1.15561 -0.0169535 0.0
0.881007 0.0996578 0.0
1.13559 -0.0145255 0.0
0.658755 -0.00413657 0.0
1.03052 0.0055285 0.0
0.98048 0.136268 0.0
1.40943 -0.0326661 0.0
0.520824 -0.00356559 0.0
0.63645 -0.0245571 0.0
0.918748 0.805445 0.0
1.11054 -0.00105391 0.0
1.05184 0.0115852 0.0
1.39253 0.0136191 0.0
0.602674 -0.010489 0.0
1.13179 0.0185046 0.0
1.16664 -0.448607 0.0
0.186485 0.022394 0.0
0.925084 -0.0632631 0.0
1.07015 -0.0833099 0.0
0.735528 0.0239345 0.0
0.519012 0.0178488 0.0
1.64903 0.0363838 0.0
1.1551 -0.00532619 0.0
0.311487 0.0152321 0.0
0.571549 0.0249356 0.0
1.14456 -0.00604932 0.0
1.20378 -0.00624816 0.0
1.00237 -0.0186949 0.0
0.937957 0.0623965 0.0
1.20928 0.172596 0.0
0.640707 0.0108101 0.0
1.20574 0.00748043 0.0
0.919465 0.0928486 0.0
1.20924 -0.00876885 0.0
1.38799 -0.593459 0.0
0.511206 0.00117985 0.0
1.45933 -0.1299 0.0
1.11023 0.00853677 0.0
0.949756 -0.0142819 0.0
0.621601 0.0903346 0.0
0.991213 0.101869 0.0
0.897476 0.139873 0.0
1.1129 0.00988549 0.0
1.21794 -0.0579897 0.0
1.39921 -0.036935 0.0
0.58715 0.00503845 0.0
0.611272 0.0150095 0.0
1.07346 -0.00368686 0.0
0.404543 -0.0728941 0.0
1.04406 0.0365771 0.0
0.492143 0.00346759 0.0
0.963285 -0.0113112 0.0
1.11147 -0.00452819 0.0
0.940473 -0.00956722 0.0
0.558082 -0.00674296 0.0
0.556787 0.0187378 0.0
0.567901 0.00955034 0.0
0.511733 0.00717181 0.0
0.587101 0.0114463 0.0
1.21071 0.669598 0.0
1.3609 0.0695882 0.0
0.965569 -0.00311801 0.0
0.537721 0.00805343 0.0
0.549575 -0.0127149 0.0
0.699881 0.0249487 0.0
1.15686 -0.0474581 0.0
0.619657 0.00110368 0.0
1.60379 -0.1931 0.0
1.29609 0.0954572 0.0
0.536956 -0.140689 0.0
1.34548 -0.0936305 0.0
1.52681 -0.466855 0.0
1.01078 0.00553154 0.0
1.09086 0.0186346 0.0
1.14028 -0.012275 0.0
0.959671 0.00329057 0.0
0.837047 -0.689208 0.0
1.02765 -0.00200434 0.0
0.979902 -0.0056837 0.0
1.20408 -0.0130584 0.0
1.12254 -0.0341307 0.0
1.6483 -0.000150101 0.0
-0.120891 0.0977521 0.0
0.506415 -0.0687202 0.0
1.33617 0.518183 0.0
1.07282 -0.0121685 0.0
0.607822 -0.0120444 0.0
0.578877 -0.00574372 0.0
0.573613 -0.00607868 0.0
1.22533 0.00552478 0.0
0.633634 0.211236 0.0
1.17454 -0.0245417 0.0
0.977026 0.0126511 0.0
0.751152 0.163047 0.0
1.12538 -0.00173149 0.0
0.138171 -0.0096984 0.0
1.19149 0.00565411 0.0
0.565557 0.0209121 0.0
0.563147 -0.0104074 0.0
1.33999 0.0854868 0.0
0.83879 -0.011685 0.0
1.50629 0.0319907 0.0
0.974388 0.0153928 0.0
0.990206 0.0116288 0.0
0.111465 -0.166264 0.0
0.971561 0.0291139 0.0
1.16945 0.0135235 0.0
1.15241 0.0135537 0.0
0.355926 -0.136154 0.0
1.61632 -0.27323 0.0
1.0948 -0.000579067 0.0
1.28746 0.194994 0.0
0.589432 -0.0140542 0.0
0.556398 -0.00768693 0.0
1.12383 -0.0167074 0.0
0.530645 0.0896684 0.0
1.1248 -0.0271609 0.0
0.809665 0.021757 0.0
0.935234 -0.0083108 0.0
1.131 0.0122774 0.0
0.995163 -0.0032702 0.0
0.201884 -0.0209015 0.0
1.14983 -0.0133567 0.0
0.309781 0.0604554 0.0
1.01005 -0.000334066 0.0
1.00055 -0.00384664 0.0
0.575806 -0.0154542 0.0
1.07261 -0.00940707 0.0
1.17457 -0.0247424 0.0
0.947649 0.000772918 0.0
0.991754 -0.0135317 0.0
1.20021 -0.964611 0.0
1.1322 0.0223463 0.0
1.69269 0.486946 0.0
0.552692 -0.0166929 0.0
0.541797 0.00645967 0.0
1.16702 0.00643214 0.0
1.228 -0.00663062 0.0
1.11434 -0.00842119 0.0
1.12311 -0.00167769 0.0
1.1811 0.00628776 0.0
1.13117 0.00584735 0.0
1.219 -0.009395 0.0
1.15073 0.0257434 0.0
-0.198392 0.0188072 0.0
1.10384 0.0149653 0.0
-0.0252474 0.0287655 0.0
0.664374 -0.02566 0.0
1.20443 -0.177456 0.0
1.14791 -0.0121882 0.0
1.36841 -0.137969 0.0
1.64629 -0.502432 0.0
0.314249 -0.0181112 0.0
1.21275 -0.00870472 0.0
1.129 0.272021 0.0
1.35139 -0.0982619 0.0
1.07137 0.305699 0.0
1.70948 0.0868913 0.0
0.975232 -0.54244 0.0
1.37208 0.132337 0.0
1.12215 -0.0164391 0.0
1.28963 -0.480968 0.0
-0.0873298 -0.108089 0.0
1.06032 -0.000182598 0.0
1.31864 -0.394858 0.0
0.495752 -0.00488145 0.0
1.41866 -0.149967 0.0
1.68465 0.198482 0.0
1.0915 0.0136562 0.0
0.393008 0.0156404 0.0
0.717031 0.00183575 0.0
0.267866 -0.228444 0.0
0.957075 0.0459491 0.0
-0.118668 -0.0299302 0.0
1.14646 -0.162393 0.0
1.4964 0.143725 0.0
0.537113 0.0090853 0.0
1.22931 -0.0687781 0.0
0.965651 0.000618836 0.0
1.21639 0.0047741 0.0
0.435145 -0.615503 0.0
1.22864 0.264383 0.0
0.729246 -0.162549 0.0
0.191332 -0.330919 0.0
0.517588 0.160695 0.0
1.3026 0.238504 0.0
0.597966 0.152203 0.0
0.968777 -0.0130377 0.0
1.14091 -0.0164974 0.0
1.08273 0.0111935 0.0
1.0766 0.00881505 0.0
0.571167 0.00734018 0.0
0.0236671 0.0820176 0.0
1.3083 0.299794 0.0
0.467701 -0.0022115 0.0
1.10149 0.0102062 0.0
0.264443 0.216291 0.0
0.97278 -0.00513724 0.0