# vtk DataFile Version 3.0
Malha 2D com triângulos e temperatura
ASCII
DATASET UNSTRUCTURED_GRID

POINTS 688 double
0 0 0
2.2 0 0
2.2 0.41 0
0 0.41 0
0.25 0.2 0
0.05 0 0
0.1 0 0
0.15 0 0
0.2 0 0
0.25 0 0
0.3 0 0
0.35 0 0
0.4 0 0
0.45 0 0
0.5 0 0
0.55 0 0
0.6 0 0
0.65 0 0
0.7 0 0
0.75 0 0
0.8 0 0
0.85 0 0
0.9 0 0
0.95 0 0
1 0 0
1.05 0 0
1.1 0 0
1.15 0 0
1.2 0 0
1.25 0 0
1.3 0 0
1.35 0 0
1.4 0 0
1.45 0 0
1.5 0 0
1.55 0 0
1.6 0 0
1.65 0 0
1.7 0 0
1.75 0 0
1.8 0 0
1.85 0 0
1.9 0 0
1.95 0 0
2 0 0
2.05 0 0
2.1 0 0
2.15 0 0
2.2 0.0455556 0
2.2 0.0911111 0
2.2 0.136667 0
2.2 0.182222 0
2.2 0.227778 0
2.2 0.273333 0
2.2 0.318889 0
2.2 0.364444 0
2.15 0.41 0
2.1 0.41 0
2.05 0.41 0
2 0.41 0
1.95 0.41 0
1.9 0.41 0
1.85 0.41 0
1.8 0.41 0
1.75 0.41 0
1.7 0.41 0
1.65 0.41 0
1.6 0.41 0
1.55 0.41 0
1.5 0.41 0
1.45 0.41 0
1.4 0.41 0
1.35 0.41 0
1.3 0.41 0
1.25 0.41 0
1.2 0.41 0
1.15 0.41 0
1.1 0.41 0
1.05 0.41 0
1 0.41 0
0.95 0.41 0
0.9 0.41 0
0.85 0.41 0
0.8 0.41 0
0.75 0.41 0
0.7 0.41 0
0.65 0.41 0
0.6 0.41 0
0.55 0.41 0
0.5 0.41 0
0.45 0.41 0
0.4 0.41 0
0.35 0.41 0
0.3 0.41 0
0.25 0.41 0
0.2 0.41 0
0.15 0.41 0
0.1 0.41 0
0.05 0.41 0
0 0.364444 0
0 0.318889 0
0 0.273333 0
0 0.227778 0
0 0.182222 0
0 0.136667 0
0 0.0911111 0
0 0.0455556 0
0.248831 0.210749 0
0.245379 0.220994 0
0.239805 0.230259 0
0.232369 0.238108 0
0.22342 0.244176 0
0.213376 0.248177 0
0.202707 0.249927 0
0.191911 0.249341 0
0.181493 0.246449 0
0.171941 0.241384 0
0.1637 0.234385 0
0.157157 0.225778 0
0.152617 0.215965 0
0.150293 0.205406 0
0.150293 0.194594 0
0.152617 0.184035 0
0.157157 0.174222 0
0.1637 0.165615 0
0.171941 0.158616 0
0.181493 0.153551 0
0.191911 0.150659 0
0.202707 0.150073 0
0.213376 0.151823 0
0.22342 0.155824 0
0.232369 0.161892 0
0.239805 0.169741 0
0.245379 0.179006 0
0.248831 0.189251 0
0.421316 0.36725 0
0.426705 0.0366526 0
2.16065 0.209201 0
1.52286 0.0417259 0
0.626017 0.37111 0
1.3257 0.0414552 0
1.02471 0.0432237 0
1.17293 0.0421053 0
0.82501 0.36678 0
1.6757 0.370064 0
1.91628 0.0358195 0
1.82501 0.366432 0
0.723429 0.0421499 0
1.425 0.366699 0
1.97461 0.366224 0
1.12167 0.370137 0
0.975 0.368691 0
0.877672 0.0412714 0
1.27686 0.36884 0
1.725 0.0433013 0
0.579174 0.0416211 0
0.325589 0.363848 0
0.319111 0.0378151 0
0.0394523 0.296111 0
0.0329929 0.11602 0
0.142108 0.187428 0
1.57555 0.364352 0
2.02603 0.0412138 0
0.725007 0.36763 0
0.528647 0.366595 0
1.62699 0.0400272 0
1.82929 0.0421255 0
1.425 0.0418325 0
2.07474 0.364233 0
0.125 0.0433013 0
0.161245 0.155011 0
0.225 0.366699 0
0.210027 0.258536 0
2.16034 0.115449 0
0.0371627 0.204103 0
0.142311 0.212698 0
0.220283 0.0418538 0
0.221965 0.145099 0
0.196802 0.141016 0
0.119851 0.373394 0
0.161112 0.245979 0
0.184892 0.258024 0
2.16342 0.30039 0
2.12627 0.047699 0
0.183325 0.0412617 0
0.152317 0.0762976 0
0.203864 0.0745802 0
0.234384 0.0774346 0
0.215969 0.103585 0
0.245651 0.104548 0
0.186562 0.100216 0
0.268213 0.0793029 0
0.272149 0.109155 0
0.242885 0.159377 0
0.253088 0.128261 0
0.278718 0.13214 0
0.295917 0.115997 0
0.301728 0.138858 0
0.321266 0.12205 0
0.324642 0.151724 0
0.255978 0.181139 0
0.350123 0.129049 0
0.357539 0.159885 0
0.333541 0.181416 0
0.36451 0.19182 0
0.250573 0.230419 0
0.391277 0.169722 0
0.339477 0.212308 0
0.39836 0.205386 0
0.427326 0.18117 0
0.258724 0.206387 0
0.434392 0.219501 0
0.466446 0.193907 0
0.472865 0.243064 0
0.507358 0.209962 0
0.40073 0.238916 0
0.499135 0.1652 0
0.5419 0.179224 0
0.550176 0.22496 0
0.585844 0.194129 0
0.594095 0.240176 0
0.630701 0.209517 0
0.621901 0.162424 0
0.667731 0.178095 0
0.676485 0.226008 0
0.713906 0.194492 0
0.722681 0.242872 0
0.760442 0.211047 0
0.751547 0.162356 0
0.798298 0.179 0
0.807147 0.227866 0
0.845136 0.195775 0
0.854541 0.243285 0
0.892163 0.212344 0
0.902461 0.257947 0
0.93935 0.228684 0
0.930236 0.180167 0
0.977229 0.197066 0
0.986264 0.245777 0
1.02423 0.213991 0
1.0331 0.263172 0
1.07123 0.230975 0
1.06234 0.181814 0
1.10938 0.198721 0
1.09996 0.151012 0
1.14691 0.168161 0
1.15631 0.215921 0
1.19446 0.183678 0
1.20343 0.232645 0
1.2416 0.200322 0
1.23272 0.151117 0
1.2798 0.167954 0
1.28868 0.217167 0
1.32685 0.184862 0
1.33573 0.234064 0
1.3739 0.201768 0
0.789327 0.130094 0
1.38279 0.25097 0
1.42096 0.218674 0
1.41207 0.169471 0
1.45912 0.186378 0
1.46801 0.235581 0
1.50618 0.203285 0
1.51506 0.252489 0
1.55323 0.220192 0
1.54435 0.170989 0
1.5914 0.187896 0
1.60029 0.2371 0
1.63846 0.204803 0
1.64734 0.254007 0
1.68551 0.221711 0
1.67663 0.172507 0
1.72368 0.189415 0
1.73831 0.241548 0
1.77074 0.206322 0
1.76185 0.157121 0
1.8091 0.17428 0
1.81866 0.220885 0
1.85608 0.190621 0
1.86521 0.238879 0
1.90289 0.207671 0
1.91264 0.253772 0
1.94955 0.224093 0
1.94067 0.17593 0
1.98705 0.192828 0
1.99572 0.240997 0
2.0329 0.209382 0
2.02422 0.16161 0
2.04166 0.257286 0
0.419739 0.142889 0
0.968291 0.148058 0
0.310035 0.202211 0
0.316128 0.230863 0
0.658501 0.130052 0
0.685107 0.27445 0
1.34462 0.283266 0
1.16528 0.264896 0
1.84735 0.142081 0
0.557687 0.270604 0
1.21234 0.281769 0
1.58252 0.138692 0
0.533563 0.131933 0
0.489835 0.120004 0
1.45024 0.137174 0
2.06974 0.17785 0
2.06113 0.130713 0
0.283221 0.152215 0
0.921299 0.131169 0
0.343836 0.24295 0
0.319203 0.260002 0
0.235529 0.249617 0
0.347029 0.274099 0
0.291856 0.246297 0
0.295938 0.27548 0
0.272836 0.264931 0
0.27461 0.290522 0
0.251228 0.280224 0
0.253903 0.305808 0
0.232795 0.296709 0
0.298805 0.304058 0
1.0801 0.280176 0
1.47689 0.284785 0
1.05315 0.133468 0
1.09741 0.0970974 0
1.82427 0.272867 0
1.2701 0.118911 0
0.816337 0.277695 0
1.40432 0.121101 0
1.04244 0.320388 0
0.959305 0.103028 0
1.60923 0.286151 0
0.601674 0.286775 0
2.00739 0.280923 0
0.342592 0.0992796 0
0.375237 0.105729 0
1.52511 0.298716 0
1.53114 0.119823 0
0.733824 0.287256 0
0.613372 0.114719 0
0.645558 0.0838585 0
2.015 0.115858 0
1.22718 0.0994086 0
1.39166 0.29817 0
1.3564 0.329754 0
0.744134 0.11556 0
0.782853 0.0841771 0
0.826899 0.10047 0
1.17418 0.314034 0
0.520902 0.0906676 0
1.4967 0.329429 0
1.26048 0.0740437 0
0.365514 0.0716355 0
0.229836 0.121666 0
1.57453 0.09137 0
1.61938 0.110761 0
0.481716 0.0753791 0
0.14093 0.2 0
0.130041 0.192847 0
0.131507 0.178608 0
0.117165 0.184444 0
0.120761 0.164701 0
0.1156 0.199931 0
0.100804 0.174136 0
0.102545 0.153034 0
0.12169 0.143342 0
0.104604 0.13008 0
0.0809304 0.161171 0
0.128077 0.121858 0
0.106825 0.102278 0
0.082498 0.188728 0
0.0314738 0.158621 0
2.04625 0.310891 0
2.08475 0.27479 0
2.11394 0.138117 0
0.233149 0.151108 0
0.258724 0.193613 0
0.268522 0.184917 0
1.65397 0.301059 0
0.145962 0.224912 0
0.132503 0.222267 0
0.13746 0.236947 0
0.120111 0.233525 0
0.126593 0.25219 0
0.105294 0.247497 0
0.113343 0.26868 0
0.133997 0.271734 0
0.121622 0.292031 0
0.147069 0.292141 0
0.0896563 0.267464 0
0.0813699 0.243294 0
0.163574 0.276939 0
0.172694 0.298517 0
0.1583 0.321483 0
0.186823 0.322499 0
0.173113 0.348195 0
0.0322087 0.250839 0
0.211694 0.124337 0
0.250615 0.169546 0
0.256243 0.157787 0
0.170796 0.14736 0
0.156755 0.141654 0
0.17187 0.131161 0
0.147502 0.152323 0
0.198129 0.260662 0
0.206368 0.271663 0
0.220945 0.26864 0
0.190489 0.270628 0
0.198813 0.286731 0
0.55749 0.322277 0
0.520166 0.299321 0
0.235199 0.330709 0
0.267109 0.337524 0
0.172324 0.25256 0
0.255974 0.218859 0
0.268327 0.214994 0
0.184197 0.143083 0
0.188721 0.129954 0
0.209694 0.139146 0
0.269223 0.244007 0
0.252374 0.255244 0
0.282229 0.0410487 0
1.21977 0.330016 0
1.25733 0.296346 0
2.09358 0.0890819 0
0.244373 0.240984 0
0.0838116 0.115786 0
0.0797544 0.0817835 0
0.237449 0.264854 0
0.247178 0.146225 0
0.270136 0.2 0
0.28023 0.191334 0
0.263476 0.170737 0
0.371486 0.368728 0
0.396124 0.330051 0
0.440314 0.325693 0
0.357693 0.329668 0
0.476576 0.362035 0
0.29587 0.222914 0
0.307627 0.175476 0
0.079599 0.0406461 0
0.146062 0.252571 0
0.15162 0.125025 0
0.417223 0.294608 0
0.457089 0.286958 0
0.036619 0.338729 0
0.0713014 0.322193 0
0.0735823 0.36704 0
0.041143 0.0722223 0
0.693501 0.32349 0
0.145406 0.175484 0
0.138777 0.164467 0
0.300367 0.0698839 0
0.167025 0.112083 0
0.146978 0.105544 0
0.151909 0.236762 0
0.444611 0.106436 0
0.909355 0.0817561 0
0.282901 0.370713 0
1.61474 0.330739 0
0.578053 0.368179 0
0.824695 0.0487848 0
2.09634 0.3213 0
2.02276 0.364865 0
2.12532 0.363702 0
1.09789 0.328757 0
0.161137 0.260089 0
2.07793 0.225752 0
2.12079 0.240944 0
2.0747 0.0437362 0
1.89402 0.158846 0
1.93154 0.128738 0
1.8848 0.111477 0
1.8384 0.0926484 0
1.87744 0.0655304 0
1.7913 0.0793874 0
1.9712 0.046671 0
1.92502 0.366682 0
1.94563 0.325156 0
1.89941 0.326645 0
1.87499 0.367178 0
1.84989 0.323491 0
1.7997 0.321303 0
1.77183 0.280326 0
1.75031 0.321965 0
1.77491 0.365615 0
2.11727 0.191885 0
0.883187 0.163467 0
1.71449 0.140266 0
1.667 0.125342 0
1.70591 0.0884759 0
1.67732 0.042286 0
1.52278 0.370513 0
1.37512 0.04128 0
1.34848 0.0834574 0
0.776093 0.367587 0
1.125 0.0433013 0
1.15 0.0866019 0
1.07442 0.0496847 0
0.974527 0.0370837 0
1.47464 0.0427918 0
1.44953 0.0873752 0
1.17595 0.362984 0
1.025 0.366699 0
0.925007 0.367031 0
0.95 0.323404 0
0.897321 0.326356 0
0.874563 0.367261 0
0.846552 0.324465 0
1.62923 0.156667 0
1.32319 0.13033 0
1.69342 0.270472 0
1.49568 0.156227 0
1.56237 0.268721 0
1.44 0.319169 0
1.43005 0.267892 0
1.36502 0.152565 0
0.993446 0.294003 0
1.30179 0.321101 0
1.18235 0.127964 0
1.25016 0.2491 0
1.29638 0.266841 0
1.11824 0.247967 0
1.12945 0.294699 0
1.01527 0.165035 0
0.836192 0.147197 0
1.4998 0.0831488 0
1.00655 0.118664 0
0.872896 0.117126 0
0.70523 0.146383 0
1.96013 0.276645 0
0.769406 0.257102 0
0.699552 0.0908977 0
2.1587 0.162257 0
1.97813 0.145326 0
0.646036 0.302035 0
0.799423 0.326603 0
0.515621 0.255445 0
1.72538 0.366474 0
1.97009 0.0998346 0
1.57108 0.313772 0
0.577925 0.14549 0
0.638911 0.256447 0
0.407352 0.0771641 0
0.525103 0.042511 0
0.674231 0.370698 0
1.69802 0.321701 0
0.56947 0.0908728 0
1.75459 0.110239 0
1.80084 0.126127 0
0.673535 0.0431435 0
1.57391 0.0465733 0
2.04571 0.0828469 0
0.10002 0.225545 0
0.0788152 0.21577 0
0.369719 0.224393 0
0.210352 0.308739 0
1.22342 0.0432967 0
[...]
CELL_DATA 1241
VECTORS velocity double
1.01405 -0.00426953 0.0
1.21726 0.0665215 0.0
0.446387 -0.00153199 0.0
0.944814 0.00171342 0.0
1.04389 0.00547156 0.0
1.42285 0.103152 0.0
1.13496 0.000169312 0.0
0.979967 -0.000831185 0.0
0.363181 0.0158214 0.0
1.17906 0.0013875 0.0
1.31247 -0.119983 0.0
1.31627 0.126543 0.0
0.865763 -0.160595 0.0
1.01558 0.00862167 0.0
0.991029 0.00653038 0.0
1.46635 -0.0328792 0.0
0.979385 0.000610812 0.0
0.479611 0.0603811 0.0
1.17279 0.0623966 0.0
1.64766 -0.254198 0.0
1.02118 0.00442841 0.0
1.05944 -0.0663112 0.0
1.03788 -0.000300909 0.0
1.25311 0.904906 0.0
1.07097 -0.00228131 0.0
1.0243 0.00267383 0.0
1.29898 -0.199435 0.0
1.07637 -0.0253958 0.0
1.32175 -0.0836643 0.0
1.46242 -0.064905 0.0
1.33199 0.0902543 0.0
0.868282 -0.0368898 0.0
1.52044 0.00268172 0.0
1.0142 0.00688877 0.0
1.25678 -0.0565653 0.0
1.35889 0.15696 0.0
1.21275 -0.0553815 0.0
1.05041 -0.167832 0.0
0.359562 0.0205047 0.0
1.38219 0.141357 0.0
1.7645 -0.179809 0.0
1.41327 -0.0454449 0.0
1.05282 -0.237187 0.0
0.501883 0.00676598 0.0
1.39921 -0.167236 0.0
0.497346 -0.00745768 0.0
1.20158 0.0990396 0.0
1.11533 0.0258139 0.0
1.61301 -0.313108 0.0
1.23969 -0.0104699 0.0
1.21447 0.000940108 0.0
1.29083 -0.417496 0.0
0.869535 -0.00364552 0.0
1.4087 -0.082356 0.0
1.77523 -0.279611 0.0
1.519 -0.0286996 0.0
1.15102 -0.0399919 0.0
1.12713 -0.000223292 0.0
1.65842 -0.0990921 0.0
1.68774 -0.199368 0.0
1.15855 0.847308 0.0
0.994261 -0.000141082 0.0
0.195591 0.035791 0.0
1.02712 0.00688124 0.0
-0.240031 0.0714426 0.0
1.33192 0.227578 0.0
-0.279587 0.086194 0.0
1.1673 -0.00182049 0.0
0.863314 -0.0258787 0.0
0.218192 0.024433 0.0
1.16807 -0.00554357 0.0
0.793438 0.0141463 0.0
1.167 -0.00509828 0.0
0.791726 -0.0137177 0.0
1.20664 0.00717691 0.0
0.881295 0.157087 0.0
0.942654 0.00724976 0.0
1.63145 -0.0465088 0.0
0.979761 -0.0346105 0.0
0.613057 0.00125935 0.0
1.75194 -0.383009 0.0
1.1597 -0.246731 0.0
0.658369 0.0118849 0.0
1.26146 -0.22737 0.0
1.34581 0.170068 0.0
0.919408 -0.0667432 0.0
1.20693 0.178039 0.0
0.0860817 0.0984561 0.0
1.83884 0.530389 0.0
1.19216 0.00321914 0.0
1.27211 0.010203 0.0
-0.18965 -0.0110345 0.0
-0.347999 0.078292 0.0
1.44319 -0.0646325 0.0
1.18242 -0.0407077 0.0
0.985167 0.00127693 0.0
0.84925 -0.0258399 0.0
-0.184463 0.0905952 0.0
1.01805 -0.0114062 0.0
-0.244253 0.112568 0.0
1.08214 -0.098557 0.0
1.15897 -0.0149217 0.0
0.947301 0.00264032 0.0
1.63917 -0.161262 0.0
1.74235 -0.67064 0.0
1.27316 -0.397902 0.0
1.07133 -0.0619688 0.0
0.49828 -0.0236569 0.0
1.78799 0.649655 0.0
1.22467 0.00317591 0.0
1.48537 -0.109195 0.0
1.23094 0.189677 0.0
0.131629 0.0759865 0.0
1.44146 -0.0270016 0.0
1.08013 0.0148808 0.0
1.44262 0.0400889 0.0
1.41409 0.00475584 0.0
1.39194 0.0529507 0.0
1.06616 -0.00219947 0.0
0.25532 0.039713 0.0
1.19011 0.042181 0.0
1.51966 0.581803 0.0
1.25161 0.108232 0.0
0.91998 -0.0634823 0.0
0.726844 -0.0993393 0.0
1.20475 0.0860353 0.0
1.44704 -0.0429315 0.0
1.11884 0.0245218 0.0
1.74957 0.501391 0.0
0.549919 -0.0713176 0.0
1.16582 -0.01508 0.0
0.622112 -0.00174144 0.0
0.885942 0.0638829 0.0
1.60329 -0.0215983 0.0
1.01947 -0.153239 0.0
-0.276052 0.0745687 0.0
0.123179 0.0625323 0.0
1.22668 0.0822142 0.0
1.04869 -0.0252386 0.0
1.66383 -0.761311 0.0
1.50088 0.00357319 0.0
1.03549 0.00605115 0.0
1.07835 -0.245054 0.0
1.00499 0.0069897 0.0
1.52352 0.00721453 0.0
0.0223523 0.0311707 0.0
-0.254476 0.0380579 0.0
-0.182744 0.00602167 0.0
0.641892 0.0153905 0.0
0.653187 -0.011682 0.0
0.555345 -0.101532 0.0
1.03492 -0.00709851 0.0
1.79634 -0.332608 0.0
1.04788 -0.153392 0.0
1.20282 -0.0491844 0.0
1.20456 0.0544227 0.0
0.48355 -0.00098026 0.0
1.64365 0.0738336 0.0
0.857129 0.0303676 0.0
1.24846 -0.0569813 0.0
-0.230503 0.0469785 0.0
1.74047 0.446506 0.0
1.14309 0.00829864 0.0
1.22204 -0.204902 0.0
1.14314 0.0341183 0.0
1.05422 0.130244 0.0
0.98186 -0.000528177 0.0
0.987063 0.109856 0.0
0.565986 -0.00353002 0.0
1.17141 -0.0340702 0.0
0.92921 -0.0246684 0.0
1.23475 0.00347177 0.0
1.36547 0.265545 0.0
1.19108 0.0865984 0.0
1.10492 0.00564533 0.0
1.11586 0.00644 0.0
1.18261 0.198713 0.0
1.12009 -0.287606 0.0
1.11412 0.0120896 0.0
1.16602 -0.225275 0.0
1.11931 0.0090942 0.0
0.363116 0.11022 0.0
1.08768 -0.644369 0.0
0.730583 -0.127092 0.0
1.02491 -0.00859964 0.0
0.765703 -0.0789956 0.0
0.762226 -0.0636701 0.0
1.02757 0.00778048 0.0
1.05545 0.0959231 0.0
0.461054 0.0470128 0.0
0.889594 -0.829903 0.0
1.77863 0.345096 0.0
1.02836 -0.00208681 0.0
0.983818 0.00659855 0.0
0.667349 0.0602318 0.0
0.85299 0.0569125 0.0
0.397738 0.0590097 0.0
0.998612 -0.0149618 0.0
1.42771 -0.0322273 0.0
1.44964 0.581446 0.0
1.15458 0.193115 0.0
1.06919 -0.0135444 0.0
1.42685 0.0384028 0.0
1.04162 -0.0922962 0.0
1.40109 -0.0914702 0.0
1.436 -0.0446931 0.0
0.483231 0.0244075 0.0
0.662437 0.0125787 0.0
0.900031 -0.0227485 0.0
0.8578 0.0334995 0.0
0.517104 0.017117 0.0
0.514031 -0.00302207 0.0
1.79011 0.286523 0.0
1.11178 0.0117372 0.0
1.4407 -0.00356238 0.0
1.1215 0.0122251 0.0
0.731569 -0.0773718 0.0
1.51122 -0.090673 0.0
1.17575 -0.0305994 0.0
1.16358 -0.013099 0.0
0.833097 -0.0495832 0.0
1.67135 -0.070531 0.0
1.01023 0.0553466 0.0
0.996198 0.0113757 0.0
0.958841 -0.0261671 0.0
1.23313 0.00245841 0.0
1.43553 -0.137321 0.0
1.7298 -0.600867 0.0
1.18413 -0.005809 0.0
1.20292 -0.0110774 0.0
0.990992 -0.000126092 0.0
1.06355 -0.132777 0.0
1.02906 -0.0102265 0.0
0.997354 -0.00672849 0.0
1.25792 0.310859 0.0
1.03831 -0.256621 0.0
1.094 0.171542 0.0
1.3188 0.1324 0.0
0.743651 -0.106693 0.0
0.355088 -0.0454553 0.0
0.958894 0.0159408 0.0
1.4387 0.0570254 0.0
1.42203 0.918328 0.0
0.682938 -0.0851894 0.0
1.15168 -0.0173992 0.0
1.70424 0.140337 0.0
1.09691 -0.898561 0.0
0.868425 -0.177616 0.0
1.14126 -0.0375222 0.0
0.559701 -0.00844326 0.0
1.02622 0.0270733 0.0
0.54412 -0.00972038 0.0
1.03178 -0.00480683 0.0
1.22575 0.00301046 0.0
0.618206 -0.011926 0.0
0.775871 -0.0336638 0.0
1.09484 -0.28547 0.0
1.3261 -0.104589 0.0
1.22344 0.000731824 0.0
1.01997 -0.0017294 0.0
1.00228 0.00840292 0.0
0.507791 -0.00581816 0.0
1.22674 0.00575873 0.0
0.736928 -0.026057 0.0
1.12805 0.0434734 0.0
0.995198 -0.00992472 0.0
0.56675 0.00339582 0.0
1.24093 -0.109901 0.0
1.22739 -0.171001 0.0
0.789514 -0.026629 0.0
1.1396 -0.0652861 0.0
0.584762 0.00171479 0.0
0.983048 -0.0153482 0.0
0.11636 0.0673695 0.0
1.20189 7.97654e-05 0.0
1.19752 -0.010532 0.0
0.594876 -0.00399824 0.0
0.942525 -0.194229 0.0
0.987326 -0.0153914 0.0
1.42999 0.154433 0.0
1.19823 0.000884063 0.0
1.23428 -0.00140881 0.0
1.22356 -0.170782 0.0
1.23554 -0.00289691 0.0
1.23444 0.000801233 0.0
1.17144 -0.0170465 0.0
0.934781 -0.114524 0.0
0.835802 0.0428678 0.0
1.23532 -0.00509252 0.0
1.2326 -0.00077082 0.0
1.2279 -0.00193473 0.0
0.634934 0.0704992 0.0
0.45711 0.00499155 0.0
0.99824 0.00995582 0.0
0.545539 -0.00753362 0.0
1.23362 -0.0056224 0.0
1.00245 -0.0182146 0.0
1.16265 0.0101598 0.0
-0.261338 -0.026825 0.0
0.966479 -0.0120446 0.0
0.500116 -0.00468158 0.0
1.31888 -0.60472 0.0
1.12257 -0.00725248 0.0
0.970625 -0.0159404 0.0
0.524899 -0.0101495 0.0
1.23358 -0.00324074 0.0
0.868441 0.0407347 0.0
0.532669 0.00163921 0.0
0.992861 -0.0154221 0.0
1.23379 -0.00566289 0.0
1.22677 -0.00268976 0.0
1.23205 -0.00328524 0.0
0.621195 -0.00711477 0.0
0.444623 0.000116269 0.0
1.23095 -0.00649184 0.0
1.14153 -0.0734515 0.0
1.20521 -0.00721169 0.0
0.603228 0.010019 0.0
1.18524 -0.00809957 0.0
1.22446 -0.00576683 0.0
1.21146 0.000955832 0.0
1.23611 -0.00732392 0.0
0.465709 -0.00678817 0.0
1.22918 -0.00642627 0.0
1.23082 -0.00664124 0.0
1.22075 -0.00685515 0.0
0.455263 -0.00385379 0.0
1.21698 -0.0030047 0.0
1.18348 -0.00609726 0.0
1.2016 -0.00110362 0.0
1.23348 -0.00744041 0.0
1.17041 -0.157853 0.0
1.12948 0.001456 0.0
1.23462 -0.00745403 0.0
1.35089 0.668534 0.0
1.21819 -0.0065036 0.0
0.508913 -0.00698664 0.0
1.09753 -0.0220364 0.0
0.563894 0.00810717 0.0
0.594869 -0.00932989 0.0
1.11726 0.00694278 0.0
1.09742 -0.012317 0.0
1.07119 -0.00773228 0.0
0.533261 -0.0080307 0.0
1.1033 -0.0217218 0.0
1.1241 0.00553375 0.0
1.23177 -0.00782882 0.0
1.07375 0.138984 0.0
1.15505 -0.696808 0.0
0.563636 -0.00471975 0.0
0.521751 -0.00538461 0.0
1.22697 -0.00583552 0.0
1.22878 -0.00815205 0.0
0.619776 -0.0183254 0.0
0.509906 -0.00923488 0.0
1.22421 -0.00505428 0.0
0.992385 0.0165618 0.0
1.16086 0.0114025 0.0
1.15581 -0.00747619 0.0
0.567065 0.0071941 0.0
0.518603 -0.00218977 0.0
1.14359 0.0171998 0.0
0.603158 0.0141812 0.0
0.569146 0.0146429 0.0
1.17335 0.00902766 0.0
0.619638 0.0206119 0.0
0.571483 -0.000819235 0.0
1.21443 -0.00417071 0.0
1.20177 -0.00325735 0.0
0.961987 0.0163077 0.0
1.21066 -0.00180971 0.0
1.18265 -0.00192614 0.0
1.21857 -0.00309848 0.0
0.982892 0.0124761 0.0
1.15197 -0.0026436 0.0
0.607569 0.00582323 0.0
0.501049 0.0140144 0.0
0.551204 0.0142048 0.0
0.46656 -0.00796726 0.0
0.532746 0.000854985 0.0
0.556485 -0.00531434 0.0
0.526911 -0.00283974 0.0
0.640211 -0.0137943 0.0
0.540982 -0.00454759 0.0
0.574426 0.0133673 0.0
0.486699 -0.0074948 0.0
0.57664 0.015512 0.0
0.494386 0.000143188 0.0
0.679082 0.02131 0.0
0.578569 0.0100663 0.0
0.572461 -0.0114748 0.0
0.488686 0.00277308 0.0
0.527389 -0.00224162 0.0
0.509375 0.00789174 0.0
0.61223 -0.00975564 0.0
0.532872 -0.000867223 0.0
0.601604 -0.00765009 0.0
0.559236 -0.0123267 0.0
0.54516 0.00678543 0.0
0.522857 0.000117753 0.0
0.538233 0.00411041 0.0
0.47729 -0.0170055 0.0
0.492448 0.0196845 0.0
0.494524 0.00048396 0.0
0.557024 -0.00716408 0.0
0.49408 0.00314463 0.0
0.646365 -0.0210629 0.0
0.492193 0.00627817 0.0
0.463948 0.00552308 0.0
0.505139 0.000962553 0.0
0.482636 -0.00270584 0.0
1.18098 -0.00113353 0.0
1.16154 -0.00635144 0.0
1.22689 -0.00737263 0.0
1.22457 -0.005041 0.0
1.22771 -0.00527119 0.0
1.1194 -0.00788414 0.0
1.19809 -0.00704006 0.0
1.17912 -0.00674947 0.0
1.18214 0.00477488 0.0
1.15446 -0.00131217 0.0
1.21055 -0.0079542 0.0
1.2132 -0.008701 0.0
1.17495 -0.00661352 0.0
1.21975 -0.00365792 0.0
1.19567 -0.000320077 0.0
1.22129 -0.00610028 0.0
1.19413 -0.00724368 0.0
1.15236 0.00173401 0.0
1.2176 -0.00620377 0.0
1.22279 -0.00422049 0.0
1.20787 -0.000883375 0.0
1.22134 -0.00361594 0.0
1.21698 -0.00504725 0.0
1.1565 -0.00899978 0.0
1.22073 -0.00180973 0.0
1.19774 -0.00341401 0.0
1.21771 -0.0011905 0.0
1.12069 -0.00151085 0.0
1.19941 -0.00266261 0.0
1.19183 0.00187667 0.0
1.21255 -0.00143108 0.0
1.17578 -0.00153287 0.0
1.21253 -0.00236347 0.0
1.21576 -0.00241642 0.0
1.18551 0.00445578 0.0
1.216 -0.00138136 0.0
1.20829 -0.00414854 0.0
1.21056 0.000661088 0.0
1.15276 -0.00850389 0.0
1.1776 -0.00253713 0.0
1.21365 0.000423502 0.0
1.2057 -0.00343098 0.0
1.20212 0.00223092 0.0
1.199 0.00366021 0.0
1.16027 -0.0126283 0.0
1.21073 0.000440455 0.0
1.2072 0.000807943 0.0
1.13789 -0.00605492 0.0
1.19355 -0.00437541 0.0
1.12195 0.00312727 0.0
1.17946 -0.00441811 0.0
1.18951 -0.00400646 0.0
1.20162 -0.00368619 0.0
1.20749 -0.00128928 0.0
1.17522 -0.00453357 0.0
1.20528 -0.00351004 0.0
1.20361 -0.00104705 0.0
1.2054 0.000506337 0.0
1.20163 0.00308783 0.0
1.19816 0.00340701 0.0
1.19513 0.00367259 0.0
1.18408 0.00601077 0.0
1.13601 -0.00647348 0.0
1.09402 0.00788383 0.0
1.1787 0.00710105 0.0
1.20132 0.000890948 0.0
0.576898 -0.00618882 0.0
1.18759 0.00597445 0.0
1.14832 0.00760771 0.0
1.17039 0.00791504 0.0
1.19907 0.00303913 0.0
1.16796 0.00758469 0.0
1.17801 0.00563414 0.0
1.17089 0.000215721 0.0
1.19011 0.00544787 0.0
1.17788 -0.00087892 0.0
1.13366 -0.00534084 0.0
1.13334 -0.00822153 0.0
1.15671 -0.00496142 0.0
1.18652 0.00667503 0.0
1.17462 -0.00423327 0.0
1.18488 0.00338662 0.0
1.16812 -0.00409233 0.0
1.18503 -0.0039944 0.0
1.18885 0.00282878 0.0
1.18209 0.00588904 0.0
0.978954 -0.0140528 0.0
1.17264 -0.00367625 0.0
1.17471 0.00781869 0.0
1.14549 0.00913545 0.0
1.18996 -0.00241729 0.0
1.19366 0.000181328 0.0
1.08268 -0.0176609 0.0
1.165 0.0109611 0.0
1.1787 -0.00363854 0.0
1.14688 0.0149871 0.0
1.18927 -5.89053e-05 0.0
1.1497 0.0176484 0.0
1.16753 -0.00442186 0.0
1.19358 -0.00237798 0.0
1.17447 -0.00113024 0.0
1.11937 0.176576 0.0
1.15269 -0.00741956 0.0
1.2231 -0.0095861 0.0
1.17054 0.00951001 0.0
1.17503 0.00116864 0.0
1.15732 -0.0134392 0.0
1.16104 -0.00357152 0.0
1.13927 -0.00307797 0.0
1.16118 -0.00955456 0.0
1.16723 0.00271913 0.0
1.14077 -0.00118842 0.0
1.1622 0.00239319 0.0
1.16362 -0.0067919 0.0
1.16354 -0.00285489 0.0
1.14905 0.012008 0.0
1.15963 -0.00518069 0.0
0.718664 -0.0205044 0.0
0.97223 0.00511769 0.0
1.14452 0.014266 0.0
1.14717 0.00948971 0.0
1.1544 -0.00763399 0.0
1.14123 0.0119299 0.0
1.14772 0.014357 0.0
1.14438 -0.00229317 0.0
1.12692 0.000939894 0.0
1.13931 -0.00306514 0.0
1.13285 0.00102219 0.0
1.121 0.0120664 0.0
1.15754 0.00573886 0.0
1.15181 0.00860451 0.0
0.995221 0.00884659 0.0
1.15298 0.00593272 0.0
1.15731 0.0116936 0.0
1.15014 0.0121403 0.0
1.11438 0.0151684 0.0
1.13591 0.0156776 0.0
1.15418 0.0126384 0.0
1.73545 0.181687 0.0
1.11926 -0.010454 0.0
1.12714 0.0192452 0.0
1.09943 -0.0221589 0.0
1.14935 0.0218081 0.0
1.14747 0.0161186 0.0
1.11297 -0.0128165 0.0
1.14633 0.0219307 0.0
1.22363 -0.0063867 0.0
1.07044 -0.00971623 0.0
1.09901 0.015237 0.0
1.09653 -0.00681849 0.0
1.30723 0.126009 0.0
1.21902 -0.00548289 0.0
1.08403 -0.00215035 0.0
1.15543 -0.00758498 0.0
1.13998 0.0281325 0.0
1.14658 0.0224031 0.0
1.08911 -0.00844558 0.0
1.09364 -0.0272118 0.0
0.980757 -0.0158671 0.0
1.19467 -0.00172983 0.0
1.06658 0.000703105 0.0
1.07616 0.000237136 0.0
1.12053 0.024687 0.0
1.12024 -0.0266285 0.0
1.02974 0.198339 0.0
0.960838 -0.0158518 0.0
1.13616 0.0337543 0.0
0.442005 -0.164349 0.0
1.38219 0.131379 0.0
1.18139 -0.0520895 0.0
1.06429 0.0102977 0.0
1.06556 0.0257119 0.0
1.05385 0.0363861 0.0
1.21982 -0.00221712 0.0
1.05188 0.0143335 0.0
1.03743 -0.0440147 0.0
1.30216 0.175953 0.0
1.00314 -0.142387 0.0
1.03258 -0.0577457 0.0
1.15148 -0.133276 0.0
1.14943 -0.0130175 0.0
1.09506 -0.0480088 0.0
1.18164 -0.00353803 0.0
0.936201 0.00179073 0.0
1.18099 0.0540022 0.0
1.00774 -0.0138448 0.0
1.23791 -0.101757 0.0
1.21758 -0.00566644 0.0
1.20517 -0.00652738 0.0
1.05494 -0.0199413 0.0
1.39837 -0.567472 0.0
1.13231 0.0834334 0.0
0.994533 -0.0202149 0.0
1.13248 0.0668805 0.0
0.956645 0.0015109 0.0
0.758411 0.0280756 0.0
1.0894 0.0449339 0.0
1.32725 -0.160587 0.0
0.933003 -0.0907638 0.0
1.09853 -0.0395623 0.0
0.632625 -0.55652 0.0
1.11072 -0.0279618 0.0
1.11673 -0.0073625 0.0
1.15435 -0.00787961 0.0
1.39116 -0.139357 0.0
1.08011 0.0600341 0.0
1.18161 -0.0027404 0.0
1.04685 -0.0261842 0.0
1.16346 0.0361438 0.0
0.989297 -0.0181964 0.0
1.34995 -0.77179 0.0
1.22848 0.00441769 0.0
1.17964 0.0514113 0.0
1.20318 0.00270824 0.0
1.127 -0.000890199 0.0
1.18051 -0.0564705 0.0
1.06593 0.0201179 0.0
1.21083 0.0814108 0.0
1.12243 -0.00780409 0.0
1.15896 0.0441047 0.0
0.955256 0.00172445 0.0
1.15278 0.0111716 0.0
1.1805 -0.531637 0.0
0.659936 -0.00602892 0.0
0.681461 -0.0231257 0.0
0.924594 0.0271163 0.0
1.26623 0.119651 0.0
1.15323 -0.00612401 0.0
1.18218 -0.0049098 0.0
0.607627 0.0101588 0.0
1.20244 -0.00576776 0.0
0.327879 -0.123522 0.0
1.07316 -0.0991948 0.0
0.549421 0.00928084 0.0
0.555927 -0.0107836 0.0
0.899214 0.0402915 0.0
1.15845 -0.00639999 0.0
0.863952 -0.174347 0.0
0.846474 -0.0255289 0.0
1.68893 -0.125093 0.0
0.941729 0.0373832 0.0
1.15286 -0.0106547 0.0
1.15345 -0.0121102 0.0
1.0538 0.00870685 0.0
1.22556 0.00335772 0.0
1.17989 0.00110856 0.0
1.18511 0.348335 0.0
0.621021 0.0173126 0.0
1.02115 0.00172798 0.0
1.36959 -0.0978277 0.0
0.538277 0.00769853 0.0
1.58076 0.560946 0.0
0.933636 -0.0417387 0.0
0.796121 -0.0266603 0.0
1.34138 0.088149 0.0
0.78169 -0.0538103 0.0
0.955902 -0.00134597 0.0
0.66841 -0.116146 0.0
1.1553 -0.016877 0.0
0.881016 0.0996618 0.0
1.13522 -0.0144535 0.0
0.658571 -0.00413527 0.0
1.03071 0.00546213 0.0
0.980381 0.136249 0.0
1.40941 -0.0326462 0.0
0.521392 -0.00359898 0.0
0.63629 -0.0245592 0.0
0.918747 0.805445 0.0
1.11054 -0.00101453 0.0
1.05187 0.0115786 0.0
1.39256 0.0136332 0.0
0.602886 -0.0104658 0.0
1.13163 0.0184617 0.0
1.16664 -0.448606 0.0
0.186485 0.0223941 0.0
0.924923 -0.0632461 0.0
1.07006 -0.0832767 0.0
0.735638 0.0239262 0.0
0.518872 0.0178417 0.0
1.64904 0.0364041 0.0
1.15527 -0.00511397 0.0
0.311488 0.0152322 0.0
0.571396 0.0249256 0.0
1.1446 -0.00598599 0.0
1.20424 -0.00613539 0.0
1.00265 -0.0188856 0.0
0.937793 0.0623796 0.0
1.20928 0.172602 0.0
0.640938 0.01079 0.0
1.20692 0.00734294 0.0
0.91932 0.0928376 0.0
1.20997 -0.00893488 0.0
1.38798 -0.59346 0.0
0.510634 0.00126643 0.0
1.45935 -0.129869 0.0
1.11012 0.00857361 0.0
0.949032 -0.0142901 0.0
0.621604 0.0903356 0.0
0.991099 0.101847 0.0
0.897476 0.139874 0.0
1.11282 0.00999455 0.0
1.21804 -0.0579557 0.0
1.39921 -0.0369345 0.0
0.587646 0.00501316 0.0
0.611708 0.0149798 0.0
1.07319 -0.00371635 0.0
0.404543 -0.0728943 0.0
1.0441 0.036571 0.0
0.492608 0.00341653 0.0
0.962596 -0.0113378 0.0
1.11149 -0.00449764 0.0
0.939831 -0.0094819 0.0
0.55878 -0.00671912 0.0
0.557505 0.0187227 0.0
0.568466 0.009589 0.0
0.509563 0.00713209 0.0
0.587687 0.0114406 0.0
1.21071 0.669599 0.0
1.36092 0.0695995 0.0
0.965978 -0.00324444 0.0
0.536398 0.00814591 0.0
0.548145 -0.0126954 0.0
0.700034 0.0249281 0.0
1.15699 -0.0474243 0.0
0.619931 0.00107675 0.0
1.60377 -0.193105 0.0
1.29615 0.0954377 0.0
0.536863 -0.140688 0.0
1.34555 -0.0936018 0.0
1.52681 -0.466859 0.0
1.01103 0.00550371 0.0
1.09113 0.0186039 0.0
1.13988 -0.0122018 0.0
0.959596 0.00354051 0.0
0.837045 -0.689206 0.0
1.02813 -0.00198971 0.0
0.98031 -0.00581924 0.0
1.20468 -0.0132054 0.0
1.12275 -0.0340733 0.0
1.64831 -0.000127041 0.0
-0.120934 0.0977289 0.0
0.506296 -0.0687077 0.0
1.33616 0.518184 0.0
1.07256 -0.0121093 0.0
0.608564 -0.0120528 0.0
0.579562 -0.00578806 0.0
0.574203 -0.00615097 0.0
1.22671 0.00541892 0.0
0.633564 0.211207 0.0
1.1745 -0.0244331 0.0
0.97722 0.0127876 0.0
0.751082 0.163015 0.0
1.12545 -0.00147079 0.0
0.138017 -0.00966993 0.0
1.19261 0.00551324 0.0
0.565689 0.0208403 0.0
0.563443 -0.0104787 0.0
1.33997 0.085465 0.0
0.837775 -0.0117148 0.0
1.50627 0.0319704 0.0
0.97454 0.0155422 0.0
0.990288 0.0118183 0.0
0.111354 -0.166265 0.0
0.971165 0.0291557 0.0
1.16902 0.0135213 0.0
1.15213 0.0135327 0.0
0.355871 -0.136129 0.0
1.61631 -0.273235 0.0
1.09502 -0.000704313 0.0
1.28743 0.194961 0.0
0.589373 -0.0141481 0.0
0.556111 -0.00779672 0.0
1.12384 -0.0166285 0.0
0.530516 0.0896561 0.0
1.12455 -0.0270853 0.0
0.809768 0.0217435 0.0
0.935485 -0.0082233 0.0
1.13085 0.01224 0.0
0.994804 -0.0030783 0.0
0.201884 -0.0209015 0.0
1.15021 -0.013512 0.0
0.309758 0.0604628 0.0
1.00995 -7.09316e-05 0.0
0.999933 -0.00379445 0.0
0.576199 -0.0153583 0.0
1.07302 -0.00932309 0.0
1.17451 -0.0246414 0.0
0.947306 0.00102796 0.0
0.992033 -0.0137046 0.0
1.2002 -0.964609 0.0
1.13219 0.022276 0.0
1.69269 0.486952 0.0
0.551234 -0.0167599 0.0
0.540248 0.00649539 0.0
1.16676 0.00657658 0.0
1.22852 -0.00664594 0.0
1.11446 -0.00845824 0.0
1.12313 -0.00165285 0.0
1.18104 0.0065157 0.0
1.13116 0.00609732 0.0
1.21966 -0.0095007 0.0
1.15073 0.0256975 0.0
-0.19845 0.0188097 0.0
1.10395 0.0149077 0.0
-0.0253587 0.0286934 0.0
0.664692 -0.0256916 0.0
1.20442 -0.177426 0.0
1.14845 -0.0124576 0.0
1.36842 -0.137937 0.0
1.64629 -0.502436 0.0
0.314249 -0.0181112 0.0
1.21355 -0.00888083 0.0
1.129 0.272024 0.0
1.35145 -0.0982335 0.0
1.07137 0.3057 0.0
1.70948 0.0869084 0.0
0.975231 -0.542438 0.0
1.37208 0.132338 0.0
1.12213 -0.0164437 0.0
1.28963 -0.480968 0.0
-0.0873951 -0.108054 0.0
1.06067 -0.000206303 0.0
1.31864 -0.39486 0.0
0.494118 -0.00489778 0.0
1.41866 -0.149976 0.0
1.68465 0.198495 0.0
1.0915 0.0137588 0.0
0.390494 0.0157112 0.0
0.717031 0.00183713 0.0
0.267865 -0.228442 0.0
0.957131 0.045942 0.0
-0.118728 -0.0299098 0.0
1.14643 -0.162364 0.0
1.49642 0.143694 0.0
0.537593 0.00906488 0.0
1.22932 -0.0687342 0.0
0.964882 0.000695414 0.0
1.21773 0.00465049 0.0
0.435144 -0.615501 0.0
1.22864 0.264384 0.0
0.729178 -0.162529 0.0
0.191332 -0.330917 0.0
0.517505 0.160695 0.0
1.3026 0.238505 0.0
0.597914 0.152182 0.0
0.969305 -0.0131104 0.0
1.1413 -0.0166823 0.0
1.08279 0.0111349 0.0
1.07678 0.00876622 0.0
0.571547 0.00728627 0.0
0.0235962 0.0820085 0.0
1.3083 0.299795 0.0
0.468451 -0.00220285 0.0
1.10149 0.0103796 0.0
0.264443 0.216292 0.0
0.972438 -0.00546575 0.0