# vtk DataFile Version 3.0
Malha 2D com triângulos e temperatura
ASCII
DATASET UNSTRUCTURED_GRID

POINTS 688 double
0 0 0
2.2 0 0
2.2 0.41 0
0 0.41 0
0.25 0.2 0
0.05 0 0
0.1 0 0
0.15 0 0
0.2 0 0
0.25 0 0
0.3 0 0
0.35 0 0
0.4 0 0
0.45 0 0
0.5 0 0
0.55 0 0
0.6 0 0
0.65 0 0
0.7 0 0
0.75 0 0
0.8 0 0
0.85 0 0
0.9 0 0
0.95 0 0
1 0 0
1.05 0 0
1.1 0 0
1.15 0 0
1.2 0 0
1.25 0 0
1.3 0 0
1.35 0 0
1.4 0 0
1.45 0 0
1.5 0 0
1.55 0 0
1.6 0 0
1.65 0 0
1.7 0 0
1.75 0 0
1.8 0 0
1.85 0 0
1.9 0 0
1.95 0 0
2 0 0
2.05 0 0
2.1 0 0
2.15 0 0
2.2 0.0455556 0
2.2 0.0911111 0
2.2 0.136667 0
2.2 0.182222 0
2.2 0.227778 0
2.2 0.273333 0
2.2 0.318889 0
2.2 0.364444 0
2.15 0.41 0
2.1 0.41 0
2.05 0.41 0
2 0.41 0
1.95 0.41 0
1.9 0.41 0
1.85 0.41 0
1.8 0.41 0
1.75 0.41 0
1.7 0.41 0
1.65 0.41 0
1.6 0.41 0
1.55 0.41 0
1.5 0.41 0
1.45 0.41 0
1.4 0.41 0
1.35 0.41 0
1.3 0.41 0
1.25 0.41 0
1.2 0.41 0
1.15 0.41 0
1.1 0.41 0
1.05 0.41 0
1 0.41 0
0.95 0.41 0
0.9 0.41 0
0.85 0.41 0
0.8 0.41 0
0.75 0.41 0
0.7 0.41 0
0.65 0.41 0
0.6 0.41 0
0.55 0.41 0
0.5 0.41 0
0.45 0.41 0
0.4 0.41 0
0.35 0.41 0
0.3 0.41 0
0.25 0.41 0
0.2 0.41 0
0.15 0.41 0
0.1 0.41 0
0.05 0.41 0
0 0.364444 0
0 0.318889 0
0 0.273333 0
0 0.227778 0
0 0.182222 0
0 0.136667 0
0 0.0911111 0
0 0.0455556 0
0.248831 0.210749 0
0.245379 0.220994 0
0.239805 0.230259 0
0.232369 0.238108 0
0.22342 0.244176 0
0.213376 0.248177 0
0.202707 0.249927 0
0.191911 0.249341 0
0.181493 0.246449 0
0.171941 0.241384 0
0.1637 0.234385 0
0.157157 0.225778 0
0.152617 0.215965 0
0.150293 0.205406 0
0.150293 0.194594 0
0.152617 0.184035 0
0.157157 0.174222 0
0.1637 0.165615 0
0.171941 0.158616 0
0.181493 0.153551 0
0.191911 0.150659 0
0.202707 0.150073 0
0.213376 0.151823 0
0.22342 0.155824 0
0.232369 0.161892 0
0.239805 0.169741 0
0.245379 0.179006 0
0.248831 0.189251 0
0.421316 0.36725 0
0.426705 0.0366526 0
2.16065 0.209201 0
1.52286 0.0417259 0
0.626017 0.37111 0
1.3257 0.0414552 0
1.02471 0.0432237 0
1.17293 0.0421053 0
0.82501 0.36678 0
1.6757 0.370064 0
1.91628 0.0358195 0
1.82501 0.366432 0
0.723429 0.0421499 0
1.425 0.366699 0
1.97461 0.366224 0
1.12167 0.370137 0
0.975 0.368691 0
0.877672 0.0412714 0
1.27686 0.36884 0
1.725 0.0433013 0
0.579174 0.0416211 0
0.325589 0.363848 0
0.319111 0.0378151 0
0.0394523 0.296111 0
0.0329929 0.11602 0
0.142108 0.187428 0
1.57555 0.364352 0
2.02603 0.0412138 0
0.725007 0.36763 0
0.528647 0.366595 0
1.62699 0.0400272 0
1.82929 0.0421255 0
1.425 0.0418325 0
2.07474 0.364233 0
0.125 0.0433013 0
0.161245 0.155011 0
0.225 0.366699 0
0.210027 0.258536 0
2.16034 0.115449 0
0.0371627 0.204103 0
0.142311 0.212698 0
0.220283 0.0418538 0
0.221965 0.145099 0
0.196802 0.141016 0
0.119851 0.373394 0
0.161112 0.245979 0
0.184892 0.258024 0
2.16342 0.30039 0
2.12627 0.047699 0
0.183325 0.0412617 0
0.152317 0.0762976 0
0.203864 0.0745802 0
0.234384 0.0774346 0
0.215969 0.103585 0
0.245651 0.104548 0
0.186562 0.100216 0
0.268213 0.0793029 0
0.272149 0.109155 0
0.242885 0.159377 0
0.253088 0.128261 0
0.278718 0.13214 0
0.295917 0.115997 0
0.301728 0.138858 0
0.321266 0.12205 0
0.324642 0.151724 0
0.255978 0.181139 0
0.350123 0.129049 0
0.357539 0.159885 0
0.333541 0.181416 0
0.36451 0.19182 0
0.250573 0.230419 0
0.391277 0.169722 0
0.339477 0.212308 0
0.39836 0.205386 0
0.427326 0.18117 0
0.258724 0.206387 0
0.434392 0.219501 0
0.466446 0.193907 0
0.472865 0.243064 0
0.507358 0.209962 0
0.40073 0.238916 0
0.499135 0.1652 0
0.5419 0.179224 0
0.550176 0.22496 0
0.585844 0.194129 0
0.594095 0.240176 0
0.630701 0.209517 0
0.621901 0.162424 0
0.667731 0.178095 0
0.676485 0.226008 0
0.713906 0.194492 0
0.722681 0.242872 0
0.760442 0.211047 0
0.751547 0.162356 0
0.798298 0.179 0
0.807147 0.227866 0
0.845136 0.195775 0
0.854541 0.243285 0
0.892163 0.212344 0
0.902461 0.257947 0
0.93935 0.228684 0
0.930236 0.180167 0
0.977229 0.197066 0
0.986264 0.245777 0
1.02423 0.213991 0
1.0331 0.263172 0
1.07123 0.230975 0
1.06234 0.181814 0
1.10938 0.198721 0
1.09996 0.151012 0
1.14691 0.168161 0
1.15631 0.215921 0
1.19446 0.183678 0
1.20343 0.232645 0
1.2416 0.200322 0
1.23272 0.151117 0
1.2798 0.167954 0
1.28868 0.217167 0
1.32685 0.184862 0
1.33573 0.234064 0
1.3739 0.201768 0
0.789327 0.130094 0
1.38279 0.25097 0
1.42096 0.218674 0
1.41207 0.169471 0
1.45912 0.186378 0
1.46801 0.235581 0
1.50618 0.203285 0
1.51506 0.252489 0
1.55323 0.220192 0
1.54435 0.170989 0
1.5914 0.187896 0
1.60029 0.2371 0
1.63846 0.204803 0
1.64734 0.254007 0
1.68551 0.221711 0
1.67663 0.172507 0
1.72368 0.189415 0
1.73831 0.241548 0
1.77074 0.206322 0
1.76185 0.157121 0
1.8091 0.17428 0
1.81866 0.220885 0
1.85608 0.190621 0
1.86521 0.238879 0
1.90289 0.207671 0
1.91264 0.253772 0
1.94955 0.224093 0
1.94067 0.17593 0
1.98705 0.192828 0
1.99572 0.240997 0
2.0329 0.209382 0
2.02422 0.16161 0
2.04166 0.257286 0
0.419739 0.142889 0
0.968291 0.148058 0
0.310035 0.202211 0
0.316128 0.230863 0
0.658501 0.130052 0
0.685107 0.27445 0
1.34462 0.283266 0
1.16528 0.264896 0
1.84735 0.142081 0
0.557687 0.270604 0
1.21234 0.281769 0
1.58252 0.138692 0
0.533563 0.131933 0
0.489835 0.120004 0
1.45024 0.137174 0
2.06974 0.17785 0
2.06113 0.130713 0
0.283221 0.152215 0
0.921299 0.131169 0
0.343836 0.24295 0
0.319203 0.260002 0
0.235529 0.249617 0
0.347029 0.274099 0
0.291856 0.246297 0
0.295938 0.27548 0
0.272836 0.264931 0
0.27461 0.290522 0
0.251228 0.280224 0
0.253903 0.305808 0
0.232795 0.296709 0
0.298805 0.304058 0
1.0801 0.280176 0
1.47689 0.284785 0
1.05315 0.133468 0
1.09741 0.0970974 0
1.82427 0.272867 0
1.2701 0.118911 0
0.816337 0.277695 0
1.40432 0.121101 0
1.04244 0.320388 0
0.959305 0.103028 0
1.60923 0.286151 0
0.601674 0.286775 0
2.00739 0.280923 0
0.342592 0.0992796 0
0.375237 0.105729 0
1.52511 0.298716 0
1.53114 0.119823 0
0.733824 0.287256 0
0.613372 0.114719 0
0.645558 0.0838585 0
2.015 0.115858 0
1.22718 0.0994086 0
1.39166 0.29817 0
1.3564 0.329754 0
0.744134 0.11556 0
0.782853 0.0841771 0
0.826899 0.10047 0
1.17418 0.314034 0
0.520902 0.0906676 0
1.4967 0.329429 0
1.26048 0.0740437 0
0.365514 0.0716355 0
0.229836 0.121666 0
1.57453 0.09137 0
1.61938 0.110761 0
0.481716 0.0753791 0
0.14093 0.2 0
0.130041 0.192847 0
0.131507 0.178608 0
0.117165 0.184444 0
0.120761 0.164701 0
0.1156 0.199931 0
0.100804 0.174136 0
0.102545 0.153034 0
0.12169 0.143342 0
0.104604 0.13008 0
0.0809304 0.161171 0
0.128077 0.121858 0
0.106825 0.102278 0
0.082498 0.188728 0
0.0314738 0.158621 0
2.04625 0.310891 0
2.08475 0.27479 0
2.11394 0.138117 0
0.233149 0.151108 0
0.258724 0.193613 0
0.268522 0.184917 0
1.65397 0.301059 0
0.145962 0.224912 0
0.132503 0.222267 0
0.13746 0.236947 0
0.120111 0.233525 0
0.126593 0.25219 0
0.105294 0.247497 0
0.113343 0.26868 0
0.133997 0.271734 0
0.121622 0.292031 0
0.147069 0.292141 0
0.0896563 0.267464 0
0.0813699 0.243294 0
0.163574 0.276939 0
0.172694 0.298517 0
0.1583 0.321483 0
0.186823 0.322499 0
0.173113 0.348195 0
0.0322087 0.250839 0
0.211694 0.124337 0
0.250615 0.169546 0
0.256243 0.157787 0
0.170796 0.14736 0
0.156755 0.141654 0
0.17187 0.131161 0
0.147502 0.152323 0
0.198129 0.260662 0
0.206368 0.271663 0
0.220945 0.26864 0
0.190489 0.270628 0
0.198813 0.286731 0
0.55749 0.322277 0
0.520166 0.299321 0
0.235199 0.330709 0
0.267109 0.337524 0
0.172324 0.25256 0
0.255974 0.218859 0
0.268327 0.214994 0
0.184197 0.143083 0
0.188721 0.129954 0
0.209694 0.139146 0
0.269223 0.244007 0
0.252374 0.255244 0
0.282229 0.0410487 0
1.21977 0.330016 0
1.25733 0.296346 0
2.09358 0.0890819 0
0.244373 0.240984 0
0.0838116 0.115786 0
0.0797544 0.0817835 0
0.237449 0.264854 0
0.247178 0.146225 0
0.270136 0.2 0
0.28023 0.191334 0
0.263476 0.170737 0
0.371486 0.368728 0
0.396124 0.330051 0
0.440314 0.325693 0
0.357693 0.329668 0
0.476576 0.362035 0
0.29587 0.222914 0
0.307627 0.175476 0
0.079599 0.0406461 0
0.146062 0.252571 0
0.15162 0.125025 0
0.417223 0.294608 0
0.457089 0.286958 0
0.036619 0.338729 0
0.0713014 0.322193 0
0.0735823 0.36704 0
0.041143 0.0722223 0
0.693501 0.32349 0
0.145406 0.175484 0
0.138777 0.164467 0
0.300367 0.0698839 0
0.167025 0.112083 0
0.146978 0.105544 0
0.151909 0.236762 0
0.444611 0.106436 0
0.909355 0.0817561 0
0.282901 0.370713 0
1.61474 0.330739 0
0.578053 0.368179 0
0.824695 0.0487848 0
2.09634 0.3213 0
2.02276 0.364865 0
2.12532 0.363702 0
1.09789 0.328757 0
0.161137 0.260089 0
2.07793 0.225752 0
2.12079 0.240944 0
2.0747 0.0437362 0
1.89402 0.158846 0
1.93154 0.128738 0
1.8848 0.111477 0
1.8384 0.0926484 0
1.87744 0.0655304 0
1.7913 0.0793874 0
1.9712 0.046671 0
1.92502 0.366682 0
1.94563 0.325156 0
1.89941 0.326645 0
1.87499 0.367178 0
1.84989 0.323491 0
1.7997 0.321303 0
1.77183 0.280326 0
1.75031 0.321965 0
1.77491 0.365615 0
2.11727 0.191885 0
0.883187 0.163467 0
1.71449 0.140266 0
1.667 0.125342 0
1.70591 0.0884759 0
1.67732 0.042286 0
1.52278 0.370513 0
1.37512 0.04128 0
1.34848 0.0834574 0
0.776093 0.367587 0
1.125 0.0433013 0
1.15 0.0866019 0
1.07442 0.0496847 0
0.974527 0.0370837 0
1.47464 0.0427918 0
1.44953 0.0873752 0
1.17595 0.362984 0
1.025 0.366699 0
0.925007 0.367031 0
0.95 0.323404 0
0.897321 0.326356 0
0.874563 0.367261 0
0.846552 0.324465 0
1.62923 0.156667 0
1.32319 0.13033 0
1.69342 0.270472 0
1.49568 0.156227 0
1.56237 0.268721 0
1.44 0.319169 0
1.43005 0.267892 0
1.36502 0.152565 0
0.993446 0.294003 0
1.30179 0.321101 0
1.18235 0.127964 0
1.25016 0.2491 0
1.29638 0.266841 0
1.11824 0.247967 0
1.12945 0.294699 0
1.01527 0.165035 0
0.836192 0.147197 0
1.4998 0.0831488 0
1.00655 0.118664 0
0.872896 0.117126 0
0.70523 0.146383 0
1.96013 0.276645 0
0.769406 0.257102 0
0.699552 0.0908977 0
2.1587 0.162257 0
1.97813 0.145326 0
0.646036 0.302035 0
0.799423 0.326603 0
0.515621 0.255445 0
1.72538 0.366474 0
1.97009 0.0998346 0
1.57108 0.313772 0
0.577925 0.14549 0
0.638911 0.256447 0
0.407352 0.0771641 0
0.525103 0.042511 0
0.674231 0.370698 0
1.69802 0.321701 0
0.56947 0.0908728 0
1.75459 0.110239 0
1.80084 0.126127 0
0.673535 0.0431435 0
1.57391 0.0465733 0
2.04571 0.0828469 0
0.10002 0.225545 0
0.0788152 0.21577 0
0.369719 0.224393 0
0.210352 0.308739 0
1.22342 0.0432967 0
[...]
CELL_DATA 1241
VECTORS velocity double
1.04634 -0.00295591 0.0
1.18141 0.0601726 0.0
0.575397 0.000224205 0.0
0.992834 0.0090522 0.0
1.02727 0.00903504 0.0
1.41745 0.0968423 0.0
1.12166 -0.00999797 0.0
1.02424 -0.00466575 0.0
0.376843 0.0123422 0.0
1.13755 -0.00933781 0.0
1.31252 -0.119884 0.0
1.31632 0.126267 0.0
0.865683 -0.160271 0.0
1.02057 0.00129966 0.0
1.00236 0.0057755 0.0
1.45599 -0.0246579 0.0
0.994034 0.00162356 0.0
0.478953 0.0600944 0.0
1.13942 0.0546376 0.0
1.64751 -0.248146 0.0
1.04358 0.00314512 0.0
1.05238 -0.0639984 0.0
1.02341 0.00427506 0.0
1.2545 0.905119 0.0
1.08425 0.00471705 0.0
1.0466 0.00074398 0.0
1.29633 -0.196041 0.0
1.06798 -0.022732 0.0
1.32178 -0.0836081 0.0
1.45347 -0.0575793 0.0
1.33202 0.0900548 0.0
0.838782 -0.0351439 0.0
1.50703 -0.00721956 0.0
1.01874 0.000487285 0.0
1.21958 -0.0536874 0.0
1.35529 0.152242 0.0
1.17666 -0.0503486 0.0
1.05045 -0.167556 0.0
0.359296 0.0203495 0.0
1.37806 0.136247 0.0
1.76831 -0.172006 0.0
1.42326 -0.0379075 0.0
1.0525 -0.235898 0.0
0.625285 0.00426042 0.0
1.39546 -0.161928 0.0
0.619746 -0.000448235 0.0
1.19019 0.0906806 0.0
1.08724 0.0149075 0.0
1.61314 -0.308081 0.0
1.25178 -0.0192759 0.0
1.14753 -0.00967395 0.0
1.2912 -0.416422 0.0
0.881148 -0.00732073 0.0
1.38143 -0.0888727 0.0
1.77912 -0.273462 0.0
1.50473 -0.0393033 0.0
1.11217 -0.0287332 0.0
1.11435 -0.00882419 0.0
1.66526 -0.0911558 0.0
1.68744 -0.191423 0.0
1.15969 0.847484 0.0
1.03475 -0.00438701 0.0
0.217741 0.0247852 0.0
1.04816 0.0045708 0.0
-0.255544 0.0621091 0.0
1.33214 0.227223 0.0
-0.261363 0.0984708 0.0
1.12483 -0.000538369 0.0
0.833283 -0.0257187 0.0
0.240953 0.0324971 0.0
1.12595 -0.00233191 0.0
0.805553 0.00883547 0.0
1.12601 -0.00110021 0.0
0.810549 -0.0255843 0.0
1.13629 -0.00309798 0.0
0.880971 0.1565 0.0
0.971439 0.00425806 0.0
1.63802 -0.0362361 0.0
0.953762 -0.0358382 0.0
0.666138 -0.00139967 0.0
1.7541 -0.378228 0.0
1.15886 -0.244655 0.0
0.686732 0.00669887 0.0
1.25952 -0.223975 0.0
1.34597 0.169796 0.0
0.915753 -0.0649456 0.0
1.21191 0.181285 0.0
0.119774 0.116381 0.0
1.84236 0.527388 0.0
1.12872 -0.00593953 0.0
1.28403 0.00343533 0.0
-0.175654 -0.0162967 0.0
-0.341848 0.0965742 0.0
1.42073 -0.072634 0.0
1.15022 -0.0310215 0.0
1.02553 -0.00235972 0.0
0.868031 -0.0335345 0.0
-0.193037 0.0901237 0.0
1.02048 -0.00694038 0.0
-0.217347 0.135863 0.0
1.08214 -0.0984468 0.0
1.12361 -0.00580166 0.0
0.972735 -0.00197869 0.0
1.64759 -0.156132 0.0
1.74634 -0.669644 0.0
1.27348 -0.397014 0.0
1.08759 -0.0754304 0.0
0.517694 -0.0152399 0.0
1.79262 0.64878 0.0
1.1488 -0.00948542 0.0
1.46986 -0.122509 0.0
1.23545 0.196413 0.0
0.142518 0.067241 0.0
1.44151 -0.0270224 0.0
1.06613 0.0177872 0.0
1.44267 0.0399838 0.0
1.39959 0.0129385 0.0
1.38198 0.0452774 0.0
1.05476 0.00222669 0.0
0.285439 0.0559516 0.0
1.20037 0.0378642 0.0
1.52101 0.580528 0.0
1.23273 0.100726 0.0
0.914869 -0.0622376 0.0
0.751974 -0.11128 0.0
1.1927 0.076599 0.0
1.42711 -0.0513352 0.0
1.0896 0.0135308 0.0
1.75542 0.500414 0.0
0.54911 -0.0710859 0.0
1.12731 -0.00635136 0.0
0.64844 -0.00499103 0.0
0.880462 0.0624754 0.0
1.59516 -0.0101169 0.0
1.03342 -0.158713 0.0
-0.271568 0.0688905 0.0
0.133373 0.0471622 0.0
1.19145 0.0770304 0.0
1.02847 -0.0276487 0.0
1.66709 -0.760888 0.0
1.50089 0.00353463 0.0
1.04197 -0.000279111 0.0
1.07776 -0.243715 0.0
0.987484 0.0100635 0.0
1.53431 0.0182509 0.0
0.05392 0.0409112 0.0
-0.254963 0.0263452 0.0
-0.157181 0.00877112 0.0
0.696575 0.0104127 0.0
0.701754 -0.0128784 0.0
0.554814 -0.101155 0.0
1.01813 -0.0103001 0.0
1.79971 -0.327568 0.0
1.06043 -0.160673 0.0
1.20283 -0.0491447 0.0
1.20458 0.054288 0.0
0.602436 -3.62922e-05 0.0
1.638 0.0639917 0.0
0.876807 0.0397587 0.0
1.21175 -0.0549287 0.0
-0.235769 0.063516 0.0
1.7423 0.442682 0.0
1.12206 0.00144568 0.0
1.22213 -0.204645 0.0
1.11056 0.0227393 0.0
1.05421 0.129912 0.0
1.01806 -0.00118243 0.0
0.98742 0.109846 0.0
0.644751 -0.002805 0.0
1.13868 -0.0231799 0.0
0.899316 -0.0245553 0.0
1.15038 -0.0071715 0.0
1.3645 0.262336 0.0
1.15215 0.0829682 0.0
1.09246 -0.00183702 0.0
1.101 -0.00146758 0.0
1.18001 0.195767 0.0
1.12012 -0.286734 0.0
1.10161 0.00329211 0.0
1.16445 -0.223197 0.0
1.10342 0.000794663 0.0
0.380632 0.104067 0.0
1.08836 -0.644275 0.0
0.729393 -0.126556 0.0
1.0248 -0.00392209 0.0
0.764139 -0.0782374 0.0
0.759914 -0.0628238 0.0
1.03441 0.00119358 0.0
1.05542 0.0956977 0.0
0.460168 0.0468537 0.0
0.890279 -0.830144 0.0
1.78043 0.339843 0.0
1.01719 0.000473928 0.0
0.987324 0.0087477 0.0
0.665596 0.0594119 0.0
0.871732 0.0686655 0.0
0.3975 0.0587859 0.0
1.03125 -0.00958393 0.0
1.42772 -0.0322211 0.0
1.45078 0.580418 0.0
1.15456 0.192639 0.0
1.05486 -0.0176032 0.0
1.42687 0.0383227 0.0
1.05762 -0.108134 0.0
1.37158 -0.0972902 0.0
1.43606 -0.0447079 0.0
0.500191 0.0297763 0.0
0.660266 0.00488287 0.0
0.872441 -0.0245683 0.0
0.827377 0.0346689 0.0
0.634305 0.0112654 0.0
0.606873 -0.00112307 0.0
1.79201 0.280307 0.0
1.10271 0.00298913 0.0
1.45056 -0.013758 0.0
1.10742 0.00387721 0.0
0.785995 -0.0822446 0.0
1.49933 -0.105304 0.0
1.14098 -0.0200717 0.0
1.12622 -0.00488762 0.0
0.833103 -0.0495166 0.0
1.67046 -0.0594979 0.0
1.00288 0.0529524 0.0
1.01014 0.0194366 0.0
0.935492 -0.0288363 0.0
1.15075 -0.0063855 0.0
1.41531 -0.147868 0.0
1.73274 -0.598606 0.0
1.14202 -0.00337221 0.0
1.14518 -0.00441177 0.0
1.02489 -0.00102644 0.0
1.06356 -0.132598 0.0
1.0308 -0.00551323 0.0
1.00672 -0.00334455 0.0
1.2636 0.310821 0.0
1.03801 -0.255751 0.0
1.1089 0.174646 0.0
1.2959 0.131987 0.0
0.788232 -0.110997 0.0
0.354825 -0.0453458 0.0
0.948237 0.0136738 0.0
1.43877 0.0569002 0.0
1.42389 0.918409 0.0
0.68291 -0.084982 0.0
1.11919 -0.00781445 0.0
1.70766 0.131987 0.0
1.09787 -0.898716 0.0
0.868357 -0.177184 0.0
1.10517 -0.0255185 0.0
0.652266 -0.00580525 0.0
1.01776 0.0247257 0.0
0.641438 -0.00717574 0.0
1.04021 -0.00165624 0.0
1.1475 -0.00386237 0.0
0.701107 -0.0122698 0.0
0.748758 -0.0318284 0.0
1.09485 -0.284862 0.0
1.29542 -0.10164 0.0
1.14727 -0.00430299 0.0
1.0082 -0.00809549 0.0
1.03173 0.00496129 0.0
0.604645 -0.00407775 0.0
1.14505 -0.00662608 0.0
0.718836 -0.0210426 0.0
1.09605 0.0301105 0.0
1.02469 -0.004179 0.0
0.655216 0.0031617 0.0
1.22319 -0.10612 0.0
1.23261 -0.189481 0.0
0.764353 -0.0226782 0.0
1.13046 -0.0582123 0.0
0.670032 -0.00110162 0.0
1.01353 -0.00857097 0.0
0.139091 0.0903096 0.0
1.14389 -0.00783214 0.0
1.14262 -0.00404032 0.0
0.677933 -0.00424159 0.0
0.956505 -0.206837 0.0
1.00843 -0.0096137 0.0
1.41042 0.163496 0.0
1.13764 -0.00171051 0.0
1.15243 -0.00458201 0.0
1.22362 -0.170604 0.0
1.15538 -0.00441833 0.0
1.15277 -0.00663241 0.0
1.13664 -0.00654622 0.0
0.962378 -0.113235 0.0
0.835804 0.042759 0.0
1.15793 -0.00466359 0.0
1.15298 -0.00584016 0.0
1.15272 -0.00628059 0.0
0.632204 0.0697847 0.0
0.584523 0.00281114 0.0
0.993341 0.00321258 0.0
0.631925 -0.0074267 0.0
1.15697 -0.00301972 0.0
1.02625 -0.00958946 0.0
1.11777 0.00321684 0.0
-0.237789 -0.0176207 0.0
1.01227 -0.00459146 0.0
0.616671 -0.000986013 0.0
1.32266 -0.605432 0.0
1.1083 -0.00421051 0.0
1.00834 -0.00849536 0.0
0.628526 -0.00699174 0.0
1.15554 -0.00381423 0.0
0.837213 0.0402827 0.0
0.618382 0.000932615 0.0
1.02259 -0.00730317 0.0
1.15823 -0.00440533 0.0
1.15311 -0.00585501 0.0
1.15244 -0.00461192 0.0
0.700861 -0.00265461 0.0
0.567949 0.00164093 0.0
1.15913 -0.00477322 0.0
1.133 -0.0664309 0.0
1.15072 -0.00619725 0.0
0.683636 0.00890074 0.0
1.14325 -0.00644599 0.0
1.1512 -0.00328543 0.0
1.14666 -0.00792229 0.0
1.15995 -0.00354688 0.0
0.57594 -0.0041072 0.0
1.15898 -0.00380664 0.0
1.15658 -0.0030782 0.0
1.15687 -0.00410298 0.0
0.571347 -0.00149562 0.0
1.14717 -0.00236618 0.0
1.14182 -0.00339273 0.0
1.1437 -0.00671806 0.0
1.15937 -0.0032591 0.0
1.17478 -0.169764 0.0
1.11508 -0.00659585 0.0
1.16089 -0.00347933 0.0
1.35192 0.668146 0.0
1.15577 -0.00311679 0.0
0.619294 -0.00395388 0.0
1.06704 -0.0115436 0.0
0.646499 0.00836026 0.0
0.630436 -0.00398743 0.0
1.13065 0.00347771 0.0
1.06798 -0.00424154 0.0
1.04742 0.000355161 0.0
0.576597 -0.00396454 0.0
1.07131 -0.0112592 0.0
1.13487 0.00273602 0.0
1.16001 -0.00345465 0.0
1.09344 0.139375 0.0
1.1578 -0.69798 0.0
0.617499 -1.81948e-05 0.0
0.574022 -0.00180876 0.0
1.15886 -0.00293386 0.0
1.15875 -0.00380787 0.0
0.667851 -0.0182834 0.0
0.564879 -0.00910785 0.0
1.15789 -0.00255435 0.0
1.00394 0.00841585 0.0
1.14406 0.00430974 0.0
1.12506 -0.00263038 0.0
0.627038 0.00919166 0.0
0.584124 0.000613527 0.0
1.13569 0.00829241 0.0
0.668038 0.00972461 0.0
0.63189 0.0104548 0.0
1.1451 0.00237213 0.0
0.678717 0.0179431 0.0
0.6374 0.00165712 0.0
1.15485 -0.00284087 0.0
1.14999 -0.00320856 0.0
0.993396 0.0110459 0.0
1.15468 -0.00327454 0.0
1.14172 -0.00325164 0.0
1.15732 -0.00312153 0.0
1.01718 0.00536163 0.0
1.12578 -0.00238864 0.0
0.681251 0.00725882 0.0
0.586678 0.0117575 0.0
0.639449 0.00981314 0.0
0.573881 -0.00783865 0.0
0.631995 -0.00103605 0.0
0.635649 -0.00236872 0.0
0.603555 -0.00159535 0.0
0.655307 -0.00753851 0.0
0.651515 -0.00311754 0.0
0.656027 0.010475 0.0
0.590252 -0.00504809 0.0
0.613622 0.0108796 0.0
0.608534 -0.000114449 0.0
0.658918 0.0178528 0.0
0.592096 0.00583098 0.0
0.594997 -0.00650926 0.0
0.587899 0.00127587 0.0
0.609297 -0.000550203 0.0
0.596928 0.00588628 0.0
0.6389 -0.00357536 0.0
0.644623 -0.00129038 0.0
0.611946 -0.00405184 0.0
0.614354 -0.0125794 0.0
0.615506 0.00353939 0.0
0.607101 -0.000837967 0.0
0.633671 0.00135766 0.0
0.577045 -0.0128977 0.0
0.569187 0.0161921 0.0
0.557397 0.00298202 0.0
0.58948 -0.0034992 0.0
0.587231 0.00307293 0.0
0.63416 -0.0173559 0.0
0.586028 0.00325702 0.0
0.580965 0.00377825 0.0
0.613586 -0.000193793 0.0
0.598655 -0.00242005 0.0
1.14092 -0.00291922 0.0
1.12775 -0.00305367 0.0
1.1582 -0.00367696 0.0
1.15862 -0.00319068 0.0
1.1596 -0.00310969 0.0
1.09924 -0.00331747 0.0
1.14509 -0.00325344 0.0
1.13423 -0.0021072 0.0
1.14374 -0.00089875 0.0
1.12808 -0.00402396 0.0
1.15052 -0.00373125 0.0
1.15118 -0.00371977 0.0
1.13161 -0.00278139 0.0
1.15779 -0.00296774 0.0
1.14878 -0.00354175 0.0
1.1565 -0.00316099 0.0
1.14318 -0.003806 0.0
1.12653 -0.00182907 0.0
1.15516 -0.00355541 0.0
1.15857 -0.00303883 0.0
1.1538 -0.0029051 0.0
1.15811 -0.00320692 0.0
1.15578 -0.0032581 0.0
1.12408 -0.00541534 0.0
1.1595 -0.00268052 0.0
1.14907 -0.00166444 0.0
1.15869 -0.00244116 0.0
1.09795 0.000881999 0.0
1.14893 -0.00286321 0.0
1.14699 -0.00207651 0.0
1.15837 -0.00251154 0.0
1.13407 0.000239479 0.0
1.15668 -0.00227698 0.0
1.15773 -0.00204646 0.0
1.14537 -0.00142957 0.0
1.15946 -0.0023731 0.0
1.15155 -0.00215665 0.0
1.15665 -0.00216688 0.0
1.12359 -0.00332271 0.0
1.13461 -0.000229526 0.0
1.15755 -0.00226872 0.0
1.15092 -0.00194142 0.0
1.15318 -0.00200323 0.0
1.15208 -0.00121075 0.0
1.14061 -0.00404334 0.0
1.15841 -0.0020416 0.0
1.15731 -0.00172541 0.0
1.11198 -0.00190389 0.0
1.14686 -0.00276709 0.0
1.09888 0.00459643 0.0
1.13954 -0.0017442 0.0
1.14774 -0.00160962 0.0
1.15308 -0.00270823 0.0
1.15764 -0.00155004 0.0
1.13726 -0.00175377 0.0
1.15448 -0.00249375 0.0
1.15627 -0.00129527 0.0
1.15866 -0.000992335 0.0
1.15518 -0.00103194 0.0
1.15397 -0.000651291 0.0
1.1558 0.000652234 0.0
1.14704 0.000612701 0.0
1.11125 -0.0009991 0.0
1.0861 0.0014756 0.0
1.14781 0.000868561 0.0
1.15728 -0.00060297 0.0
0.622037 -0.00139471 0.0
1.14859 0.000316457 0.0
1.12455 0.000343903 0.0
1.13865 0.00108289 0.0
1.15714 -4.71e-06 0.0
1.13775 0.0011532 0.0
1.15327 0.00254758 0.0
1.15116 0.00170929 0.0
1.15362 0.000853512 0.0
1.14962 0.00148108 0.0
1.10875 -0.00104886 0.0
1.10926 -0.0023869 0.0
1.12829 0.000576412 0.0
1.15253 0.00179076 0.0
1.14433 -0.000223974 0.0
1.15463 0.00204175 0.0
1.13667 2.19389e-05 0.0
1.14551 -0.00149065 0.0
1.15588 0.00138313 0.0
1.15451 0.00269374 0.0
1.02016 -0.00563696 0.0
1.13928 0.000271408 0.0
1.15204 0.00276479 0.0
1.12281 0.0016999 0.0
1.15142 -0.000615255 0.0
1.15573 0.000323174 0.0
1.0556 -0.00754356 0.0
1.1459 0.00399874 0.0
1.14623 -5.35053e-05 0.0
1.12654 0.0057084 0.0
1.1541 0.00037697 0.0
1.13438 0.00816406 0.0
1.14545 0.000789701 0.0
1.15267 -0.000812025 0.0
1.14854 0.00164978 0.0
1.11972 0.176505 0.0
1.12581 -0.00130266 0.0
1.15413 -0.00355992 0.0
1.15053 0.00407561 0.0
1.15257 0.00211131 0.0
1.12994 -0.00416466 0.0
1.13595 0.00197011 0.0
1.11222 0.00274869 0.0
1.13214 -0.00142751 0.0
1.15206 0.0018761 0.0
1.1136 0.00466556 0.0
1.1499 0.00169298 0.0
1.14362 -0.000458956 0.0
1.13714 0.00222883 0.0
1.14176 0.00503641 0.0
1.14718 -0.000935362 0.0
0.697169 -0.0175664 0.0
1.01193 -0.000769564 0.0
1.13943 0.00661376 0.0
1.14296 0.00405217 0.0
1.14463 -0.00243888 0.0
1.11957 0.0029933 0.0
1.13008 0.00526955 0.0
1.14332 -0.000418325 0.0
1.1359 0.000557234 0.0
1.14054 -0.00100645 0.0
1.13932 0.000635276 0.0
1.13178 0.00641443 0.0
1.14845 0.00264595 0.0
1.14516 0.00349512 0.0
1.02838 0.00265416 0.0
1.14642 0.0026673 0.0
1.13919 0.00374856 0.0
1.13102 0.00347079 0.0
1.12741 0.00834513 0.0
1.11629 0.00592478 0.0
1.13796 0.0044225 0.0
1.74049 0.173984 0.0
1.12927 -0.00557858 0.0
1.13228 0.0112982 0.0
1.11119 -0.015698 0.0
1.1286 0.0111663 0.0
1.13744 0.00753035 0.0
1.12487 -0.00706653 0.0
1.13278 0.0116498 0.0
1.15153 -0.00319862 0.0
1.07771 -0.00401666 0.0
1.07769 0.00585146 0.0
1.11905 -0.00437881 0.0
1.28417 0.123532 0.0
1.15181 -0.00781621 0.0
1.06 0.00354375 0.0
1.12859 -0.00450433 0.0
1.13667 0.0182334 0.0
1.12762 0.0122724 0.0
1.11345 -0.00537434 0.0
1.10617 -0.0195709 0.0
1.01724 -0.00730551 0.0
1.13632 -0.00268645 0.0
1.10046 -0.00019276 0.0
1.10811 -0.000452684 0.0
1.12782 0.0151364 0.0
1.08473 -0.0156123 0.0
1.03601 0.198321 0.0
1.00603 -0.00809907 0.0
1.13444 0.0228567 0.0
0.472764 -0.174797 0.0
1.35535 0.137117 0.0
1.155 -0.0429193 0.0
1.0994 0.00685917 0.0
1.09707 0.0191478 0.0
1.08665 0.0272358 0.0
1.14746 -0.00273616 0.0
1.08916 0.00965757 0.0
1.06209 -0.0384999 0.0
1.30225 0.175567 0.0
1.01923 -0.146786 0.0
1.05593 -0.050169 0.0
1.1508 -0.132766 0.0
1.11657 -0.00658356 0.0
1.09942 -0.0396428 0.0
1.13672 -0.00626085 0.0
0.999415 0.00142898 0.0
1.16213 0.0433367 0.0
1.05678 -0.0115461 0.0
1.21913 -0.0966492 0.0
1.15165 -0.00677732 0.0
1.14955 -0.00689649 0.0
1.08713 -0.0152834 0.0
1.39918 -0.566277 0.0
1.1368 0.072917 0.0
1.04381 -0.0158478 0.0
1.13757 0.0570925 0.0
1.01949 0.000890138 0.0
0.733494 0.0240359 0.0
1.10923 0.0363721 0.0
1.32738 -0.160465 0.0
0.964767 -0.0896962 0.0
1.10277 -0.0320393 0.0
0.633002 -0.556675 0.0
1.07692 -0.0168739 0.0
1.09671 -0.00408601 0.0
1.12006 -0.0040766 0.0
1.373 -0.147342 0.0
1.10046 0.0489275 0.0
1.13643 -0.00732002 0.0
1.07921 -0.0196775 0.0
1.14884 0.0248853 0.0
1.01428 -0.0113623 0.0
1.35117 -0.771411 0.0
1.14609 -0.010714 0.0
1.1584 0.0385878 0.0
1.14457 -0.011744 0.0
1.1197 -0.011507 0.0
1.15583 -0.0480351 0.0
1.0804 0.0296195 0.0
1.17328 0.0827778 0.0
1.10958 -0.00453382 0.0
1.14599 0.0322394 0.0
1.00135 -0.000563264 0.0
1.10857 -0.00439847 0.0
1.1811 -0.531374 0.0
0.665791 0.00123725 0.0
0.673912 -0.0162784 0.0
0.990417 0.0238158 0.0
1.25009 0.115616 0.0
1.12627 -0.00250344 0.0
1.14079 -0.00279317 0.0
0.609531 0.00602851 0.0
1.14952 -0.00270433 0.0
0.380197 -0.134359 0.0
1.08087 -0.0937541 0.0
0.656531 0.00545794 0.0
0.656378 -0.0132565 0.0
0.964698 0.0343342 0.0
1.12282 -0.002486 0.0
0.863698 -0.173831 0.0
0.903701 -0.0171999 0.0
1.68741 -0.115769 0.0
0.915365 0.039392 0.0
1.1223 -0.0126211 0.0
1.12332 -0.0140979 0.0
1.05107 0.0016914 0.0
1.14841 -0.0106725 0.0
1.13861 -0.0110733 0.0
1.18555 0.348148 0.0
0.610827 0.011485 0.0
1.01137 0.00461994 0.0
1.33635 -0.101288 0.0
0.615574 0.0044755 0.0
1.58235 0.559186 0.0
0.985457 -0.0386133 0.0
0.875313 -0.0263674 0.0
1.31118 0.0956452 0.0
0.853901 -0.0475471 0.0
0.979134 0.00201961 0.0
0.692421 -0.134402 0.0
1.13773 -0.00676489 0.0
0.876899 0.0975506 0.0
1.13319 -0.00708171 0.0
0.754951 -0.00332863 0.0
1.01926 -0.00170212 0.0
1.01243 0.13113 0.0
1.41872 -0.0447415 0.0
0.601079 -0.00268792 0.0
0.723984 -0.0195209 0.0
0.919551 0.805806 0.0
1.10414 -0.00686435 0.0
1.03047 0.0147229 0.0
1.3799 0.00671862 0.0
0.60215 -0.00530142 0.0
1.11259 0.00823598 0.0
1.16717 -0.448365 0.0
0.186412 0.0223461 0.0
0.972868 -0.0560778 0.0
1.07923 -0.0779429 0.0
0.707799 0.021985 0.0
0.607727 0.0226232 0.0
1.6434 0.0248473 0.0
1.12823 -0.0041362 0.0
0.311479 0.0151844 0.0
0.664498 0.0297978 0.0
1.1118 0.00138576 0.0
1.15066 -0.00338192 0.0
1.02256 -0.0112551 0.0
0.992138 0.0576687 0.0
1.20603 0.169519 0.0
0.648132 0.00532797 0.0
1.13746 -0.00203211 0.0
0.97026 0.0835791 0.0
1.14764 -0.00318567 0.0
1.3889 -0.59262 0.0
0.617435 -0.00215192 0.0
1.44291 -0.142766 0.0
1.097 0.000514168 0.0
0.990883 -0.00820618 0.0
0.620215 0.0898233 0.0
1.02764 0.098195 0.0
0.897341 0.139477 0.0
1.09996 0.002756 0.0
1.17986 -0.0512537 0.0
1.39931 -0.0369564 0.0
0.635352 0.0023428 0.0
0.651766 0.0106116 0.0
1.09299 -0.0122504 0.0
0.404377 -0.0727163 0.0
1.02023 0.0386918 0.0
0.579028 0.00278105 0.0
1.01244 -0.0186737 0.0
1.10278 -0.00805992 0.0
0.986196 -0.00453372 0.0
0.625296 -0.00321998 0.0
0.626057 0.0149493 0.0
0.649155 0.00695409 0.0
0.628391 0.0046922 0.0
0.661162 0.00588352 0.0
1.21166 0.66947 0.0
1.35266 0.0635928 0.0
0.985938 -0.00233851 0.0
0.648227 0.00620099 0.0
0.655139 -0.00881578 0.0
0.684101 0.0185132 0.0
1.12212 -0.0397725 0.0
0.636986 -0.00391155 0.0
1.61192 -0.189325 0.0
1.26257 0.10101 0.0
0.59019 -0.136346 0.0
1.31038 -0.0934587 0.0
1.52762 -0.464105 0.0
1.01352 -0.000573903 0.0
1.07962 0.00285418 0.0
1.13605 -0.00553357 0.0
1.00497 -0.00143115 0.0
0.837596 -0.689332 0.0
1.01928 0.00153558 0.0
0.999498 -0.00462566 0.0
1.14554 -0.0051202 0.0
1.08771 -0.0225461 0.0
1.64153 -0.0129037 0.0
-0.0953595 0.124392 0.0
0.578349 -0.0734442 0.0
1.33693 0.51768 0.0
1.08203 -0.00862355 0.0
0.67394 -0.00783858 0.0
0.65304 -0.00388326 0.0
0.650496 -0.00463744 0.0
1.14397 -0.00797288 0.0
0.677296 0.225246 0.0
1.13731 -0.0142907 0.0
1.00316 0.00740621 0.0
0.790424 0.183976 0.0
1.11176 -0.00286639 0.0
0.239701 -0.0216965 0.0
1.12815 -0.00592669 0.0
0.644631 0.015247 0.0
0.645463 -0.00828691 0.0
1.35545 0.09985 0.0
0.901489 -0.00337411 0.0
1.51598 0.0450661 0.0
1.00479 0.00846114 0.0
1.02141 0.00463299 0.0
0.195024 -0.153601 0.0
0.990437 0.0136293 0.0
1.14241 0.00503899 0.0
1.1299 0.00449636 0.0
0.391454 -0.153203 0.0
1.624 -0.270076 0.0
1.08057 0.00123169 0.0
1.28685 0.206327 0.0
0.669713 -0.0105378 0.0
0.644456 -0.00482058 0.0
1.11282 -0.0193636 0.0
0.613155 0.0952733 0.0
1.12224 -0.0176306 0.0
0.779942 0.0196582 0.0
0.961238 -0.0103465 0.0
1.11249 0.00357987 0.0
1.03023 -0.00301973 0.0
0.201834 -0.0208619 0.0
1.11684 -0.00648369 0.0
0.323372 0.0569184 0.0
1.03929 -0.00291434 0.0
1.03144 -0.00399563 0.0
0.655668 -0.0119093 0.0
1.04888 -0.00113512 0.0
1.13678 -0.013488 0.0
0.99183 -0.000289917 0.0
1.01043 -0.00768979 0.0
1.20143 -0.96485 0.0
1.10966 0.0111389 0.0
1.69427 0.483976 0.0
0.646341 -0.00932246 0.0
0.648724 0.00731745 0.0
1.13538 -4.51652e-05 0.0
1.15804 -0.00260833 0.0
1.09414 -0.00213207 0.0
1.09879 0.00362523 0.0
1.14222 0.000144346 0.0
1.11586 -0.000770678 0.0
1.15298 -0.00369272 0.0
1.12808 0.0141381 0.0
-0.144472 -0.00073961 0.0
1.08105 0.00529515 0.0
0.0493921 0.0575767 0.0
0.685824 -0.0271129 0.0
1.20878 -0.194871 0.0
1.11787 -0.00362204 0.0
1.34855 -0.14342 0.0
1.64754 -0.499452 0.0
0.314243 -0.0180837 0.0
1.14901 -0.00320246 0.0
1.12868 0.270785 0.0
1.31783 -0.099846 0.0
1.07181 0.305641 0.0
1.71285 0.0769984 0.0
0.975735 -0.542415 0.0
1.37219 0.132097 0.0
1.13212 -0.0134557 0.0
1.29015 -0.480404 0.0
-0.030531 -0.132816 0.0
1.04926 0.00299319 0.0
1.31888 -0.393273 0.0
0.590656 -0.0055043 0.0
1.41401 -0.144595 0.0
1.68395 0.191144 0.0
1.08483 0.00559732 0.0
0.519973 0.0099577 0.0
0.717342 0.00186923 0.0
0.26801 -0.228498 0.0
0.928366 0.0469099 0.0
-0.0601939 -0.0482163 0.0
1.15027 -0.172945 0.0
1.47678 0.157314 0.0
0.583807 0.00632297 0.0
1.20078 -0.0612573 0.0
1.00682 -0.00340336 0.0
1.13805 -0.00878379 0.0
0.435465 -0.615786 0.0
1.22898 0.264169 0.0
0.762591 -0.170053 0.0
0.191443 -0.331101 0.0
0.578048 0.154759 0.0
1.30278 0.238027 0.0
0.639611 0.163613 0.0
0.978494 -0.00854455 0.0
1.11247 -0.00763985 0.0
1.06852 0.00258976 0.0
1.05248 -0.00104111 0.0
0.649825 0.00679302 0.0
0.0659662 0.0917766 0.0
1.30864 0.299433 0.0