# vtk DataFile Version 3.0
Malha 2D com triângulos e temperatura
ASCII
DATASET UNSTRUCTURED_GRID

POINTS 688 double
0 0 0
2.2 0 0
2.2 0.41 0
0 0.41 0
0.25 0.2 0
0.05 0 0
0.1 0 0
0.15 0 0
0.2 0 0
0.25 0 0
0.3 0 0
0.35 0 0
0.4 0 0
0.45 0 0
0.5 0 0
0.55 0 0
0.6 0 0
0.65 0 0
0.7 0 0
0.75 0 0
0.8 0 0
0.85 0 0
0.9 0 0
0.95 0 0
1 0 0
1.05 0 0
1.1 0 0
1.15 0 0
1.2 0 0
1.25 0 0
1.3 0 0
1.35 0 0
1.4 0 0
1.45 0 0
1.5 0 0
1.55 0 0
1.6 0 0
1.65 0 0
1.7 0 0
1.75 0 0
1.8 0 0
1.85 0 0
1.9 0 0
1.95 0 0
2 0 0
2.05 0 0
2.1 0 0
2.15 0 0
2.2 0.0455556 0
2.2 0.0911111 0
2.2 0.136667 0
2.2 0.182222 0
2.2 0.227778 0
2.2 0.273333 0
2.2 0.318889 0
2.2 0.364444 0
2.15 0.41 0
2.1 0.41 0
2.05 0.41 0
2 0.41 0
1.95 0.41 0
1.9 0.41 0
1.85 0.41 0
1.8 0.41 0
1.75 0.41 0
1.7 0.41 0
1.65 0.41 0
1.6 0.41 0
1.55 0.41 0
1.5 0.41 0
1.45 0.41 0
1.4 0.41 0
1.35 0.41 0
1.3 0.41 0
1.25 0.41 0
1.2 0.41 0
1.15 0.41 0
1.1 0.41 0
1.05 0.41 0
1 0.41 0
0.95 0.41 0
0.9 0.41 0
0.85 0.41 0
0.8 0.41 0
0.75 0.41 0
0.7 0.41 0
0.65 0.41 0
0.6 0.41 0
0.55 0.41 0
0.5 0.41 0
0.45 0.41 0
0.4 0.41 0
0.35 0.41 0
0.3 0.41 0
0.25 0.41 0
0.2 0.41 0
0.15 0.41 0
0.1 0.41 0
0.05 0.41 0
0 0.364444 0
0 0.318889 0
0 0.273333 0
0 0.227778 0
0 0.182222 0
0 0.136667 0
0 0.0911111 0
0 0.0455556 0
0.248831 0.210749 0
0.245379 0.220994 0
0.239805 0.230259 0
0.232369 0.238108 0
0.22342 0.244176 0
0.213376 0.248177 0
0.202707 0.249927 0
0.191911 0.249341 0
0.181493 0.246449 0
0.171941 0.241384 0
0.1637 0.234385 0
0.157157 0.225778 0
0.152617 0.215965 0
0.150293 0.205406 0
0.150293 0.194594 0
0.152617 0.184035 0
0.157157 0.174222 0
0.1637 0.165615 0
0.171941 0.158616 0
0.181493 0.153551 0
0.191911 0.150659 0
0.202707 0.150073 0
0.213376 0.151823 0
0.22342 0.155824 0
0.232369 0.161892 0
0.239805 0.169741 0
0.245379 0.179006 0
0.248831 0.189251 0
0.421316 0.36725 0
0.426705 0.0366526 0
2.16065 0.209201 0
1.52286 0.0417259 0
0.626017 0.37111 0
1.3257 0.0414552 0
1.02471 0.0432237 0
1.17293 0.0421053 0
0.82501 0.36678 0
1.6757 0.370064 0
1.91628 0.0358195 0
1.82501 0.366432 0
0.723429 0.0421499 0
1.425 0.366699 0
1.97461 0.366224 0
1.12167 0.370137 0
0.975 0.368691 0
0.877672 0.0412714 0
1.27686 0.36884 0
1.725 0.0433013 0
0.579174 0.0416211 0
0.325589 0.363848 0
0.319111 0.0378151 0
0.0394523 0.296111 0
0.0329929 0.11602 0
0.142108 0.187428 0
1.57555 0.364352 0
2.02603 0.0412138 0
0.725007 0.36763 0
0.528647 0.366595 0
1.62699 0.0400272 0
1.82929 0.0421255 0
1.425 0.0418325 0
2.07474 0.364233 0
0.125 0.0433013 0
0.161245 0.155011 0
0.225 0.366699 0
0.210027 0.258536 0
2.16034 0.115449 0
0.0371627 0.204103 0
0.142311 0.212698 0
0.220283 0.0418538 0
0.221965 0.145099 0
0.196802 0.141016 0
0.119851 0.373394 0
0.161112 0.245979 0
0.184892 0.258024 0
2.16342 0.30039 0
2.12627 0.047699 0
0.183325 0.0412617 0
0.152317 0.0762976 0
0.203864 0.0745802 0
0.234384 0.0774346 0
0.215969 0.103585 0
0.245651 0.104548 0
0.186562 0.100216 0
0.268213 0.0793029 0
0.272149 0.109155 0
0.242885 0.159377 0
0.253088 0.128261 0
0.278718 0.13214 0
0.295917 0.115997 0
0.301728 0.138858 0
0.321266 0.12205 0
0.324642 0.151724 0
0.255978 0.181139 0
0.350123 0.129049 0
0.357539 0.159885 0
0.333541 0.181416 0
0.36451 0.19182 0
0.250573 0.230419 0
0.391277 0.169722 0
0.339477 0.212308 0
0.39836 0.205386 0
0.427326 0.18117 0
0.258724 0.206387 0
0.434392 0.219501 0
0.466446 0.193907 0
0.472865 0.243064 0
0.507358 0.209962 0
0.40073 0.238916 0
0.499135 0.1652 0
0.5419 0.179224 0
0.550176 0.22496 0
0.585844 0.194129 0
0.594095 0.240176 0
0.630701 0.209517 0
0.621901 0.162424 0
0.667731 0.178095 0
0.676485 0.226008 0
0.713906 0.194492 0
0.722681 0.242872 0
0.760442 0.211047 0
0.751547 0.162356 0
0.798298 0.179 0
0.807147 0.227866 0
0.845136 0.195775 0
0.854541 0.243285 0
0.892163 0.212344 0
0.902461 0.257947 0
0.93935 0.228684 0
0.930236 0.180167 0
0.977229 0.197066 0
0.986264 0.245777 0
1.02423 0.213991 0
1.0331 0.263172 0
1.07123 0.230975 0
1.06234 0.181814 0
1.10938 0.198721 0
1.09996 0.151012 0
1.14691 0.168161 0
1.15631 0.215921 0
1.19446 0.183678 0
1.20343 0.232645 0
1.2416 0.200322 0
1.23272 0.151117 0
1.2798 0.167954 0
1.28868 0.217167 0
1.32685 0.184862 0
1.33573 0.234064 0
1.3739 0.201768 0
0.789327 0.130094 0
1.38279 0.25097 0
1.42096 0.218674 0
1.41207 0.169471 0
1.45912 0.186378 0
1.46801 0.235581 0
1.50618 0.203285 0
1.51506 0.252489 0
1.55323 0.220192 0
1.54435 0.170989 0
1.5914 0.187896 0
1.60029 0.2371 0
1.63846 0.204803 0
1.64734 0.254007 0
1.68551 0.221711 0
1.67663 0.172507 0
1.72368 0.189415 0
1.73831 0.241548 0
1.77074 0.206322 0
1.76185 0.157121 0
1.8091 0.17428 0
1.81866 0.220885 0
1.85608 0.190621 0
1.86521 0.238879 0
1.90289 0.207671 0
1.91264 0.253772 0
1.94955 0.224093 0
1.94067 0.17593 0
1.98705 0.192828 0
1.99572 0.240997 0
2.0329 0.209382 0
2.02422 0.16161 0
2.04166 0.257286 0
0.419739 0.142889 0
0.968291 0.148058 0
0.310035 0.202211 0
0.316128 0.230863 0
0.658501 0.130052 0
0.685107 0.27445 0
1.34462 0.283266 0
1.16528 0.264896 0
1.84735 0.142081 0
0.557687 0.270604 0
1.21234 0.281769 0
1.58252 0.138692 0
0.533563 0.131933 0
0.489835 0.120004 0
1.45024 0.137174 0
2.06974 0.17785 0
2.06113 0.130713 0
0.283221 0.152215 0
0.921299 0.131169 0
0.343836 0.24295 0
0.319203 0.260002 0
0.235529 0.249617 0
0.347029 0.274099 0
0.291856 0.246297 0
0.295938 0.27548 0
0.272836 0.264931 0
0.27461 0.290522 0
0.251228 0.280224 0
0.253903 0.305808 0
0.232795 0.296709 0
0.298805 0.304058 0
1.0801 0.280176 0
1.47689 0.284785 0
1.05315 0.133468 0
1.09741 0.0970974 0
1.82427 0.272867 0
1.2701 0.118911 0
0.816337 0.277695 0
1.40432 0.121101 0
1.04244 0.320388 0
0.959305 0.103028 0
1.60923 0.286151 0
0.601674 0.286775 0
2.00739 0.280923 0
0.342592 0.0992796 0
0.375237 0.105729 0
1.52511 0.298716 0
1.53114 0.119823 0
0.733824 0.287256 0
0.613372 0.114719 0
0.645558 0.0838585 0
2.015 0.115858 0
1.22718 0.0994086 0
1.39166 0.29817 0
1.3564 0.329754 0
0.744134 0.11556 0
0.782853 0.0841771 0
0.826899 0.10047 0
1.17418 0.314034 0
0.520902 0.0906676 0
1.4967 0.329429 0
1.26048 0.0740437 0
0.365514 0.0716355 0
0.229836 0.121666 0
1.57453 0.09137 0
1.61938 0.110761 0
0.481716 0.0753791 0
0.14093 0.2 0
0.130041 0.192847 0
0.131507 0.178608 0
0.117165 0.184444 0
0.120761 0.164701 0
0.1156 0.199931 0
0.100804 0.174136 0
0.102545 0.153034 0
0.12169 0.143342 0
0.104604 0.13008 0
0.0809304 0.161171 0
0.128077 0.121858 0
0.106825 0.102278 0
0.082498 0.188728 0
0.0314738 0.158621 0
2.04625 0.310891 0
2.08475 0.27479 0
2.11394 0.138117 0
0.233149 0.151108 0
0.258724 0.193613 0
0.268522 0.184917 0
1.65397 0.301059 0
0.145962 0.224912 0
0.132503 0.222267 0
0.13746 0.236947 0
0.120111 0.233525 0
0.126593 0.25219 0
0.105294 0.247497 0
0.113343 0.26868 0
0.133997 0.271734 0
0.121622 0.292031 0
0.147069 0.292141 0
0.0896563 0.267464 0
0.0813699 0.243294 0
0.163574 0.276939 0
0.172694 0.298517 0
0.1583 0.321483 0
0.186823 0.322499 0
0.173113 0.348195 0
0.0322087 0.250839 0
0.211694 0.124337 0
0.250615 0.169546 0
0.256243 0.157787 0
0.170796 0.14736 0
0.156755 0.141654 0
0.17187 0.131161 0
0.147502 0.152323 0
0.198129 0.260662 0
0.206368 0.271663 0
0.220945 0.26864 0
0.190489 0.270628 0
0.198813 0.286731 0
0.55749 0.322277 0
0.520166 0.299321 0
0.235199 0.330709 0
0.267109 0.337524 0
0.172324 0.25256 0
0.255974 0.218859 0
0.268327 0.214994 0
0.184197 0.143083 0
0.188721 0.129954 0
0.209694 0.139146 0
0.269223 0.244007 0
0.252374 0.255244 0
0.282229 0.0410487 0
1.21977 0.330016 0
1.25733 0.296346 0
2.09358 0.0890819 0
0.244373 0.240984 0
0.0838116 0.115786 0
0.0797544 0.0817835 0
0.237449 0.264854 0
0.247178 0.146225 0
0.270136 0.2 0
0.28023 0.191334 0
0.263476 0.170737 0
0.371486 0.368728 0
0.396124 0.330051 0
0.440314 0.325693 0
0.357693 0.329668 0
0.476576 0.362035 0
0.29587 0.222914 0
0.307627 0.175476 0
0.079599 0.0406461 0
0.146062 0.252571 0
0.15162 0.125025 0
0.417223 0.294608 0
0.457089 0.286958 0
0.036619 0.338729 0
0.0713014 0.322193 0
0.0735823 0.36704 0
0.041143 0.0722223 0
0.693501 0.32349 0
0.145406 0.175484 0
0.138777 0.164467 0
0.300367 0.0698839 0
0.167025 0.112083 0
0.146978 0.105544 0
0.151909 0.236762 0
0.444611 0.106436 0
0.909355 0.0817561 0
0.282901 0.370713 0
1.61474 0.330739 0
0.578053 0.368179 0
0.824695 0.0487848 0
2.09634 0.3213 0
2.02276 0.364865 0
2.12532 0.363702 0
1.09789 0.328757 0
0.161137 0.260089 0
2.07793 0.225752 0
2.12079 0.240944 0
2.0747 0.0437362 0
1.89402 0.158846 0
1.93154 0.128738 0
1.8848 0.111477 0
1.8384 0.0926484 0
1.87744 0.0655304 0
1.7913 0.0793874 0
1.9712 0.046671 0
1.92502 0.366682 0
1.94563 0.325156 0
1.89941 0.326645 0
1.87499 0.367178 0
1.84989 0.323491 0
1.7997 0.321303 0
1.77183 0.280326 0
1.75031 0.321965 0
1.77491 0.365615 0
2.11727 0.191885 0
0.883187 0.163467 0
1.71449 0.140266 0
1.667 0.125342 0
1.70591 0.0884759 0
1.67732 0.042286 0
1.52278 0.370513 0
1.37512 0.04128 0
1.34848 0.0834574 0
0.776093 0.367587 0
1.125 0.0433013 0
1.15 0.0866019 0
1.07442 0.0496847 0
0.974527 0.0370837 0
1.47464 0.0427918 0
1.44953 0.0873752 0
1.17595 0.362984 0
1.025 0.366699 0
0.925007 0.367031 0
0.95 0.323404 0
0.897321 0.326356 0
0.874563 0.367261 0
0.846552 0.324465 0
1.62923 0.156667 0
1.32319 0.13033 0
1.69342 0.270472 0
1.49568 0.156227 0
1.56237 0.268721 0
1.44 0.319169 0
1.43005 0.267892 0
1.36502 0.152565 0
0.993446 0.294003 0
1.30179 0.321101 0
1.18235 0.127964 0
1.25016 0.2491 0
1.29638 0.266841 0
1.11824 0.247967 0
1.12945 0.294699 0
1.01527 0.165035 0
0.836192 0.147197 0
1.4998 0.0831488 0
1.00655 0.118664 0
0.872896 0.117126 0
0.70523 0.146383 0
1.96013 0.276645 0
0.769406 0.257102 0
0.699552 0.0908977 0
2.1587 0.162257 0
1.97813 0.145326 0
0.646036 0.302035 0
0.799423 0.326603 0
0.515621 0.255445 0
1.72538 0.366474 0
1.97009 0.0998346 0
1.57108 0.313772 0
0.577925 0.14549 0
0.638911 0.256447 0
0.407352 0.0771641 0
0.525103 0.042511 0
0.674231 0.370698 0
1.69802 0.321701 0
0.56947 0.0908728 0
1.75459 0.110239 0
1.80084 0.126127 0
0.673535 0.0431435 0
1.57391 0.0465733 0
2.04571 0.0828469 0
0.10002 0.225545 0
0.0788152 0.21577 0
0.369719 0.224393 0
0.210352 0.308739 0
1.22342 0.0432967 0
[...]
CELL_DATA 1241
VECTORS velocity double
1.01417 -0.00428322 0.0
1.21725 0.0665273 0.0
0.446726 -0.00150283 0.0
0.944973 0.00170642 0.0
1.04381 0.00545734 0.0
1.42285 0.10315 0.0
1.13493 0.000163137 0.0
0.980124 -0.000837964 0.0
0.363185 0.0158201 0.0
1.17894 0.00138978 0.0
1.31247 -0.119983 0.0
1.31627 0.126543 0.0
0.865763 -0.160595 0.0
1.01554 0.00862812 0.0
0.990942 0.0065548 0.0
1.46634 -0.0328766 0.0
0.979295 0.000633778 0.0
0.479611 0.060381 0.0
1.17278 0.062402 0.0
1.64766 -0.254197 0.0
1.02118 0.00448429 0.0
1.05944 -0.0663105 0.0
1.03779 -0.000314695 0.0
1.25311 0.904906 0.0
1.07098 -0.0022793 0.0
1.0243 0.00272329 0.0
1.29898 -0.199434 0.0
1.07637 -0.0253949 0.0
1.32175 -0.0836643 0.0
1.46241 -0.0649028 0.0
1.33199 0.0902542 0.0
0.868263 -0.036892 0.0
1.52044 0.00267835 0.0
1.01416 0.00689619 0.0
1.25677 -0.056571 0.0
1.35888 0.156959 0.0
1.21273 -0.0553867 0.0
1.05041 -0.167832 0.0
0.359562 0.0205047 0.0
1.38219 0.141355 0.0
1.7645 -0.179807 0.0
1.41328 -0.0454427 0.0
1.05282 -0.237187 0.0
0.502256 0.0067926 0.0
1.39921 -0.167234 0.0
0.497659 -0.00739557 0.0
1.20159 0.0990447 0.0
1.11531 0.0258226 0.0
1.61302 -0.313107 0.0
1.2397 -0.0104726 0.0
1.21427 0.000943205 0.0
1.29083 -0.417496 0.0
0.869538 -0.00364672 0.0
1.40869 -0.08236 0.0
1.77524 -0.27961 0.0
1.51899 -0.0287035 0.0
1.151 -0.0400042 0.0
1.12711 -0.000231005 0.0
1.65842 -0.0990899 0.0
1.68774 -0.199366 0.0
1.15855 0.847308 0.0
0.994401 -0.000143663 0.0
0.195597 0.0357878 0.0
1.02712 0.00693 0.0
-0.240033 0.0714418 0.0
1.33192 0.227578 0.0
-0.279584 0.0861973 0.0
1.16713 -0.00176448 0.0
0.863297 -0.0258804 0.0
0.218198 0.0244355 0.0
1.16791 -0.00548666 0.0
0.793442 0.0141445 0.0
1.16685 -0.00504011 0.0
0.791731 -0.0137211 0.0
1.2064 0.00720521 0.0
0.881295 0.157086 0.0
0.942603 0.00722944 0.0
1.63145 -0.0465058 0.0
0.97975 -0.0346122 0.0
0.612947 0.00126381 0.0
1.75194 -0.383007 0.0
1.1597 -0.246731 0.0
0.658301 0.0118903 0.0
1.26146 -0.227369 0.0
1.34581 0.170068 0.0
0.919407 -0.0667426 0.0
1.20694 0.178044 0.0
0.0860904 0.0984599 0.0
1.83884 0.530388 0.0
1.19193 0.00325255 0.0
1.27212 0.0102008 0.0
-0.189646 -0.0110345 0.0
-0.347997 0.0782939 0.0
1.44319 -0.0646364 0.0
1.18242 -0.040722 0.0
0.985315 0.00126722 0.0
0.849256 -0.0258423 0.0
-0.184463 0.0905953 0.0
1.01795 -0.0113942 0.0
-0.244247 0.112573 0.0
1.08214 -0.098557 0.0
1.15887 -0.0148745 0.0
0.947251 0.00262636 0.0
1.63917 -0.16126 0.0
1.74235 -0.67064 0.0
1.27316 -0.397901 0.0
1.07133 -0.0619726 0.0
0.498286 -0.0236544 0.0
1.78799 0.649655 0.0
1.22443 0.00318464 0.0
1.48537 -0.109201 0.0
1.23095 0.189681 0.0
0.131633 0.0759848 0.0
1.44146 -0.0270017 0.0
1.08013 0.0148818 0.0
1.44262 0.0400888 0.0
1.41409 0.00475844 0.0
1.39194 0.0529481 0.0
1.06609 -0.0022018 0.0
0.255328 0.0397171 0.0
1.19011 0.0421796 0.0
1.51966 0.581802 0.0
1.25161 0.108238 0.0
0.919979 -0.0634819 0.0
0.726851 -0.0993424 0.0
1.20476 0.0860409 0.0
1.44704 -0.0429349 0.0
1.11882 0.0245308 0.0
1.74957 0.501391 0.0
0.549918 -0.0713176 0.0
1.16573 -0.0150401 0.0
0.622048 -0.00173571 0.0
0.88594 0.0638824 0.0
1.60329 -0.0215949 0.0
1.01947 -0.153244 0.0
-0.276051 0.0745692 0.0
0.123182 0.0625288 0.0
1.22667 0.0822186 0.0
1.04868 -0.0252398 0.0
1.66383 -0.761311 0.0
1.50088 0.00357314 0.0
1.03546 0.00604298 0.0
1.07835 -0.245053 0.0
1.00498 0.00699071 0.0
1.52352 0.00721768 0.0
0.0223602 0.0311735 0.0
-0.254476 0.0380567 0.0
-0.182738 0.00602321 0.0
0.641779 0.0153969 0.0
0.653083 -0.0116782 0.0
0.555345 -0.101532 0.0
1.03491 -0.0070997 0.0
1.79634 -0.332606 0.0
1.04789 -0.153397 0.0
1.20282 -0.0491844 0.0
1.20456 0.0544226 0.0
0.483968 -0.000959628 0.0
1.64365 0.0738304 0.0
0.857134 0.0303704 0.0
1.24845 -0.0569857 0.0
-0.230503 0.0469813 0.0
1.74047 0.446504 0.0
1.14312 0.00826076 0.0
1.22204 -0.204902 0.0
1.14312 0.034127 0.0
1.05422 0.130244 0.0
0.981915 -0.000576874 0.0
0.987063 0.109856 0.0
0.565854 -0.00351862 0.0
1.17142 -0.0340899 0.0
0.929195 -0.0246707 0.0
1.23448 0.00348882 0.0
1.36547 0.265544 0.0
1.19107 0.0866026 0.0
1.10494 0.00564504 0.0
1.11589 0.00644349 0.0
1.18261 0.198712 0.0
1.12009 -0.287606 0.0
1.11414 0.0120709 0.0
1.16602 -0.225274 0.0
1.11935 0.00909887 0.0
0.363121 0.110218 0.0
1.08768 -0.64437 0.0
0.730582 -0.127092 0.0
1.02482 -0.00859214 0.0
0.765703 -0.0789954 0.0
0.762225 -0.0636698 0.0
1.02754 0.00777503 0.0
1.05545 0.095923 0.0
0.461054 0.0470127 0.0
0.889594 -0.829903 0.0
1.77863 0.345095 0.0
1.02836 -0.002086 0.0
0.983723 0.00659702 0.0
0.667349 0.0602315 0.0
0.852995 0.0569158 0.0
0.397738 0.0590096 0.0
0.998709 -0.0149778 0.0
1.42771 -0.0322273 0.0
1.44964 0.581445 0.0
1.15458 0.193115 0.0
1.06919 -0.0135459 0.0
1.42685 0.0384028 0.0
1.04162 -0.0923004 0.0
1.40108 -0.0914749 0.0
1.436 -0.0446932 0.0
0.483236 0.0244091 0.0
0.662401 0.0125833 0.0
0.900019 -0.0227504 0.0
0.857788 0.0335007 0.0
0.517499 0.0171211 0.0
0.514104 -0.00301087 0.0
1.79011 0.286521 0.0
1.11179 0.011703 0.0
1.4407 -0.00356548 0.0
1.12152 0.0122046 0.0
0.73159 -0.0773761 0.0
1.51122 -0.0906781 0.0
1.17577 -0.0306187 0.0
1.16347 -0.0130527 0.0
0.833097 -0.0495832 0.0
1.67135 -0.0705278 0.0
1.01023 0.0553458 0.0
0.996202 0.011378 0.0
0.958833 -0.0261684 0.0
1.23287 0.00247611 0.0
1.43553 -0.137326 0.0
1.7298 -0.600867 0.0
1.18408 -0.00584735 0.0
1.20283 -0.0110547 0.0
0.991036 -0.000177391 0.0
1.06355 -0.132777 0.0
1.02896 -0.0102148 0.0
0.997252 -0.00671459 0.0
1.25792 0.310859 0.0
1.03831 -0.25662 0.0
1.09401 0.171547 0.0
1.31879 0.132404 0.0
0.743669 -0.106697 0.0
0.355088 -0.0454553 0.0
0.95889 0.01594 0.0
1.4387 0.0570253 0.0
1.42203 0.918328 0.0
0.682938 -0.0851894 0.0
1.15159 -0.0173552 0.0
1.70424 0.140334 0.0
1.09691 -0.898561 0.0
0.868425 -0.177616 0.0
1.14123 -0.0375325 0.0
0.559785 -0.00842555 0.0
1.02621 0.0270724 0.0
0.544238 -0.0097003 0.0
1.0317 -0.00477688 0.0
1.22549 0.00304036 0.0
0.618508 -0.0119244 0.0
0.77585 -0.0336657 0.0
1.09484 -0.28547 0.0
1.3261 -0.104596 0.0
1.2232 0.000764315 0.0
1.01994 -0.00171935 0.0
1.00231 0.00844475 0.0
0.507897 -0.00580418 0.0
1.22647 0.00577835 0.0
0.7369 -0.0260596 0.0
1.12803 0.0434811 0.0
0.995285 -0.00994521 0.0
0.566808 0.00341392 0.0
1.24093 -0.109908 0.0
1.22739 -0.171006 0.0
0.789491 -0.0266312 0.0
1.13961 -0.0652947 0.0
0.58507 0.00170736 0.0
0.983015 -0.0153078 0.0
0.116366 0.0673737 0.0
1.20173 7.453e-05 0.0
1.19744 -0.010509 0.0
0.595181 -0.00400122 0.0
0.942532 -0.194233 0.0
0.987262 -0.0153534 0.0
1.42999 0.154438 0.0
1.19802 0.000929978 0.0
1.23404 -0.00138255 0.0
1.22356 -0.170782 0.0
1.23533 -0.0028803 0.0
1.2342 0.000813154 0.0
1.17147 -0.0170667 0.0
0.934798 -0.114529 0.0
0.835802 0.0428678 0.0
1.23513 -0.00508641 0.0
1.23236 -0.000757817 0.0
1.2277 -0.00193047 0.0
0.634933 0.0704989 0.0
0.457504 0.00500447 0.0
0.998198 0.00996718 0.0
0.545858 -0.00753237 0.0
1.23345 -0.00560342 0.0
1.0024 -0.0181713 0.0
1.16248 0.0101963 0.0
-0.261333 -0.0268274 0.0
0.966532 -0.0119842 0.0
0.500352 -0.00465243 0.0
1.31888 -0.60472 0.0
1.12256 -0.00728973 0.0
0.970615 -0.0158969 0.0
0.525055 -0.0101283 0.0
1.23338 -0.00322456 0.0
0.868428 0.0407362 0.0
0.53298 0.00163432 0.0
0.992825 -0.0153753 0.0
1.23362 -0.00565786 0.0
1.22658 -0.00268622 0.0
1.23182 -0.00325805 0.0
0.621465 -0.00711689 0.0
0.444896 0.000144626 0.0
1.2308 -0.00649698 0.0
1.14154 -0.0734591 0.0
1.20509 -0.00722507 0.0
0.603518 0.0100091 0.0
1.18517 -0.0081197 0.0
1.22426 -0.0057324 0.0
1.21127 0.000957379 0.0
1.23596 -0.00731605 0.0
0.465893 -0.00677187 0.0
1.22904 -0.00643246 0.0
1.23066 -0.00662198 0.0
1.22064 -0.00687196 0.0
0.455487 -0.00383931 0.0
1.21678 -0.00296702 0.0
1.18341 -0.00611886 0.0
1.20145 -0.00110836 0.0
1.23335 -0.00743404 0.0
1.17042 -0.157858 0.0
1.12945 0.00144453 0.0
1.2345 -0.00746074 0.0
1.35089 0.668534 0.0
1.21809 -0.00652201 0.0
0.509108 -0.00696922 0.0
1.09747 -0.0220503 0.0
0.564184 0.00809749 0.0
0.594797 -0.00933534 0.0
1.11733 0.0069423 0.0
1.09735 -0.012336 0.0
1.07111 -0.00775262 0.0
0.533181 -0.00803576 0.0
1.10324 -0.0217394 0.0
1.12418 0.00553356 0.0
1.23167 -0.00783704 0.0
1.07376 0.138989 0.0
1.15505 -0.696808 0.0
0.563537 -0.00472979 0.0
0.521657 -0.00539001 0.0
1.22689 -0.0058546 0.0
1.22871 -0.00815407 0.0
0.619675 -0.0183213 0.0
0.509802 -0.00923315 0.0
1.22414 -0.00507457 0.0
0.992334 0.0165687 0.0
1.16095 0.0114055 0.0
1.15583 -0.0074712 0.0
0.566942 0.00717882 0.0
0.518471 -0.00219747 0.0
1.14363 0.0172073 0.0
0.603033 0.0141842 0.0
0.569022 0.0146478 0.0
1.17345 0.00902568 0.0
0.619487 0.0206052 0.0
0.571322 -0.000826425 0.0
1.21439 -0.00420401 0.0
1.20173 -0.0032998 0.0
0.961946 0.0162858 0.0
1.21067 -0.00184659 0.0
1.18264 -0.00197585 0.0
1.21856 -0.00312694 0.0
0.982867 0.012436 0.0
1.15195 -0.00269501 0.0
0.607529 0.00583149 0.0
0.500997 0.0140214 0.0
0.551144 0.0141886 0.0
0.466596 -0.00798636 0.0
0.532762 0.00083356 0.0
0.556455 -0.00530698 0.0
0.52675 -0.00283486 0.0
0.640159 -0.0137979 0.0
0.541194 -0.00456862 0.0
0.574342 0.0133575 0.0
0.486843 -0.00747915 0.0
0.576563 0.015517 0.0
0.494617 0.000130426 0.0
0.679057 0.021312 0.0
0.578522 0.0100695 0.0
0.572402 -0.0114787 0.0
0.488678 0.00276054 0.0
0.527284 -0.00223679 0.0
0.5093 0.00788272 0.0
0.612168 -0.00975961 0.0
0.53304 -0.000900277 0.0
0.601556 -0.00765291 0.0
0.559126 -0.0123248 0.0
0.54503 0.00678611 0.0
0.522757 0.000112145 0.0
0.538216 0.00408337 0.0
0.477605 -0.0170007 0.0
0.492286 0.0196852 0.0
0.494413 0.000475157 0.0
0.556955 -0.00716824 0.0
0.49412 0.00315551 0.0
0.646333 -0.021065 0.0
0.492144 0.00626043 0.0
0.464082 0.00549828 0.0
0.505428 0.000949944 0.0
0.482821 -0.0027238 0.0
1.18097 -0.00118247 0.0
1.16154 -0.00633508 0.0
1.22683 -0.00737679 0.0
1.22454 -0.0050595 0.0
1.22767 -0.00528885 0.0
1.11934 -0.00785384 0.0
1.19807 -0.0070263 0.0
1.17907 -0.00672635 0.0
1.18221 0.00474929 0.0
1.15446 -0.00136604 0.0
1.21051 -0.0079446 0.0
1.21315 -0.00868947 0.0
1.17491 -0.00659143 0.0
1.21977 -0.00366892 0.0
1.19569 -0.000362299 0.0
1.22127 -0.00610129 0.0
1.19412 -0.00723091 0.0
1.15237 0.00168133 0.0
1.21759 -0.0062052 0.0
1.22279 -0.00423192 0.0
1.20788 -0.000919764 0.0
1.22132 -0.00364438 0.0
1.21693 -0.00507907 0.0
1.15651 -0.00898447 0.0
1.22076 -0.00182914 0.0
1.19778 -0.00340436 0.0
1.21776 -0.00120886 0.0
1.12066 -0.00148953 0.0
1.19939 -0.00270542 0.0
1.19186 0.00183631 0.0
1.21263 -0.00143995 0.0
1.17579 -0.0015173 0.0
1.21259 -0.00236567 0.0
1.2158 -0.00241928 0.0
1.18557 0.00442761 0.0
1.21607 -0.00139118 0.0
1.2083 -0.00414399 0.0
1.21062 0.000637744 0.0
1.15278 -0.00850054 0.0
1.17761 -0.00252104 0.0
1.2137 0.000398717 0.0
1.20572 -0.00342614 0.0
1.20219 0.00220252 0.0
1.19907 0.0036347 0.0
1.16033 -0.0126447 0.0
1.21082 0.000426557 0.0
1.2073 0.000795115 0.0
1.13788 -0.0060423 0.0
1.19359 -0.00436528 0.0
1.12192 0.00314767 0.0
1.1795 -0.00440791 0.0
1.18959 -0.00400259 0.0
1.20169 -0.00368309 0.0
1.20759 -0.00129199 0.0
1.17526 -0.00452419 0.0
1.20535 -0.00350751 0.0
1.20371 -0.00104898 0.0
1.20551 0.000499866 0.0
1.20173 0.00307223 0.0
1.19826 0.00339249 0.0
1.19525 0.00366602 0.0
1.18417 0.00599709 0.0
1.13601 -0.00647444 0.0
1.09403 0.00786982 0.0
1.1788 0.00709817 0.0
1.20143 0.000885412 0.0
0.576813 -0.00619487 0.0
1.18769 0.00595896 0.0
1.14838 0.00760055 0.0
1.17047 0.00790366 0.0
1.19919 0.00303206 0.0
1.16805 0.0075759 0.0
1.17813 0.00563083 0.0
1.17101 0.000209103 0.0
1.19023 0.00544191 0.0
1.17799 -0.000886 0.0
1.13366 -0.00532879 0.0
1.13334 -0.00822197 0.0
1.15676 -0.00496902 0.0
1.18664 0.00667035 0.0
1.17471 -0.00423922 0.0
1.185 0.00338212 0.0
1.16819 -0.00409197 0.0
1.1851 -0.0039903 0.0
1.18898 0.00282406 0.0
1.18222 0.00588616 0.0
0.978977 -0.0139929 0.0
1.1727 -0.00367612 0.0
1.17482 0.00781797 0.0
1.14555 0.00912941 0.0
1.19006 -0.00241889 0.0
1.19378 0.000177161 0.0
1.08261 -0.0176768 0.0
1.16509 0.010965 0.0
1.17879 -0.0036438 0.0
1.14694 0.0149941 0.0
1.18939 -6.31056e-05 0.0
1.14973 0.0176582 0.0
1.16762 -0.00443363 0.0
1.19368 -0.00237976 0.0
1.17458 -0.00113738 0.0
1.11937 0.176575 0.0
1.15273 -0.0074293 0.0
1.22298 -0.00956333 0.0
1.17065 0.00950983 0.0
1.17515 0.00116207 0.0
1.15736 -0.0134558 0.0
1.16111 -0.00358165 0.0
1.13929 -0.00309146 0.0
1.16122 -0.00957117 0.0
1.16735 0.00271364 0.0
1.14079 -0.0012016 0.0
1.16231 0.00238707 0.0
1.1637 -0.00680299 0.0
1.16361 -0.00286484 0.0
1.14912 0.0120138 0.0
1.15973 -0.00519266 0.0
0.718638 -0.0205063 0.0
0.972219 0.0050746 0.0
1.14458 0.0142712 0.0
1.14725 0.00949119 0.0
1.15449 -0.00764628 0.0
1.14125 0.0119412 0.0
1.14776 0.0143658 0.0
1.14448 -0.00230226 0.0
1.127 0.000935426 0.0
1.1394 -0.00307452 0.0
1.13294 0.00101766 0.0
1.12106 0.0120697 0.0
1.15764 0.0057367 0.0
1.1519 0.00860637 0.0
0.995195 0.00880507 0.0
1.15308 0.00592998 0.0
1.15738 0.0117005 0.0
1.15018 0.0121499 0.0
1.11443 0.015171 0.0
1.13593 0.0156889 0.0
1.15424 0.0126445 0.0
1.73545 0.181684 0.0
1.11933 -0.0104643 0.0
1.12719 0.0192511 0.0
1.09948 -0.0221706 0.0
1.14937 0.0218192 0.0
1.14751 0.0161272 0.0
1.11304 -0.0128262 0.0
1.14636 0.0219402 0.0
1.22345 -0.00635408 0.0
1.07048 -0.00973191 0.0
1.09899 0.0152468 0.0
1.0966 -0.00682471 0.0
1.30723 0.126014 0.0
1.21885 -0.00548754 0.0
1.08396 -0.00216635 0.0
1.15539 -0.00761208 0.0
1.14001 0.0281401 0.0
1.14659 0.0224128 0.0
1.08918 -0.00845085 0.0
1.09368 -0.0272222 0.0
0.980747 -0.0158144 0.0
1.19447 -0.00168142 0.0
1.06664 0.000701085 0.0
1.07622 0.000234926 0.0
1.12057 0.024692 0.0
1.12019 -0.0266439 0.0
1.02974 0.198339 0.0
0.960861 -0.0158045 0.0
1.13619 0.033761 0.0
0.442015 -0.164351 0.0
1.38218 0.131385 0.0
1.18139 -0.052101 0.0
1.06434 0.010299 0.0
1.0656 0.0257154 0.0
1.05389 0.0363885 0.0
1.2196 -0.00217908 0.0
1.05193 0.0143343 0.0
1.03746 -0.044022 0.0
1.30216 0.175952 0.0
1.00315 -0.142393 0.0
1.03261 -0.0577521 0.0
1.15149 -0.133281 0.0
1.14937 -0.0129873 0.0
1.09508 -0.048018 0.0
1.18153 -0.00354853 0.0
0.936242 0.00179008 0.0
1.18099 0.0540094 0.0
1.00779 -0.0138482 0.0
1.23791 -0.101764 0.0
1.21743 -0.00567141 0.0
1.20505 -0.00654065 0.0
1.05499 -0.0199477 0.0
1.39837 -0.567471 0.0
1.13232 0.083438 0.0
0.994577 -0.0202175 0.0
1.13249 0.0668857 0.0
0.956691 0.00151023 0.0
0.758389 0.0280779 0.0
1.08943 0.0449387 0.0
1.32725 -0.160587 0.0
0.933023 -0.0907688 0.0
1.09856 -0.0395726 0.0
0.632625 -0.55652 0.0
1.11067 -0.0279746 0.0
1.11668 -0.00733124 0.0
1.15434 -0.00785881 0.0
1.39115 -0.139362 0.0
1.08014 0.0600376 0.0
1.18151 -0.00275165 0.0
1.0469 -0.0261897 0.0
1.16347 0.0361522 0.0
0.989246 -0.0181591 0.0
1.34995 -0.77179 0.0
1.22821 0.00443344 0.0
1.17965 0.0514206 0.0
1.20298 0.00271622 0.0
1.12697 -0.000881805 0.0
1.18051 -0.0564809 0.0
1.06593 0.0201206 0.0
1.21082 0.0814144 0.0
1.12242 -0.00783837 0.0
1.15897 0.0441127 0.0
0.955425 0.00171272 0.0
1.15261 0.0111886 0.0
1.1805 -0.531637 0.0
0.65989 -0.00603395 0.0
0.681427 -0.0231307 0.0
0.924633 0.0271176 0.0
1.26623 0.119656 0.0
1.1532 -0.00615319 0.0
1.18213 -0.00495086 0.0
0.607588 0.0101611 0.0
1.20237 -0.00579765 0.0
0.327893 -0.123523 0.0
1.07318 -0.0992008 0.0
0.549523 0.00925315 0.0
0.55599 -0.0108089 0.0
0.899249 0.040292 0.0
1.15843 -0.0063773 0.0
0.863952 -0.174347 0.0
0.846645 -0.0255284 0.0
1.68893 -0.12509 0.0
0.94172 0.0373842 0.0
1.1528 -0.0106696 0.0
1.15339 -0.0121263 0.0
1.05377 0.00871536 0.0
1.22531 0.00336796 0.0
1.17976 0.00111295 0.0
1.18511 0.348335 0.0
0.62099 0.0173162 0.0
1.02105 0.00171537 0.0
1.36958 -0.0978328 0.0
0.538145 0.00769992 0.0
1.58076 0.560946 0.0
0.93367 -0.041743 0.0
0.796156 -0.0266628 0.0
1.34137 0.0881528 0.0
0.781721 -0.0538117 0.0
0.955836 -0.00131978 0.0
0.668417 -0.11615 0.0
1.15536 -0.0168936 0.0
0.881014 0.099661 0.0
1.13529 -0.0144682 0.0
0.658604 -0.00413576 0.0
1.03067 0.00547533 0.0
0.980398 0.136252 0.0
1.40941 -0.0326498 0.0
0.521248 -0.00359353 0.0
0.636319 -0.0245591 0.0
0.918747 0.805445 0.0
1.11054 -0.00102738 0.0
1.05187 0.0115798 0.0
1.39255 0.0136307 0.0
0.602847 -0.0104701 0.0
1.13167 0.0184732 0.0
1.16664 -0.448607 0.0
0.186485 0.0223941 0.0
0.924952 -0.0632496 0.0
1.07008 -0.0832831 0.0
0.735618 0.0239277 0.0
0.518897 0.0178429 0.0
1.64903 0.0364005 0.0
1.15524 -0.00516165 0.0
0.311488 0.0152322 0.0
0.571424 0.0249273 0.0
1.14459 -0.00600068 0.0
1.20416 -0.00616342 0.0
1.00258 -0.0188468 0.0
0.937822 0.0623823 0.0
1.20928 0.172601 0.0
0.640897 0.0107938 0.0
1.20668 0.00737138 0.0
0.919346 0.0928393 0.0
1.20984 -0.00890131 0.0
1.38798 -0.59346 0.0
0.510712 0.00124952 0.0
1.45934 -0.129875 0.0
1.11015 0.00857151 0.0
0.949172 -0.0142936 0.0
0.621603 0.0903354 0.0
0.991119 0.101851 0.0
0.897476 0.139873 0.0
1.11285 0.0099787 0.0
1.21802 -0.0579621 0.0
1.39921 -0.0369346 0.0
0.587552 0.00501878 0.0
0.611627 0.0149858 0.0
1.07325 -0.00371304 0.0
0.404543 -0.0728943 0.0
1.04409 0.0365721 0.0
0.492479 0.0034262 0.0
0.962743 -0.011334 0.0
1.11149 -0.00450902 0.0
0.939947 -0.00950532 0.0
0.55864 -0.00672596 0.0
0.557356 0.0187228 0.0
0.568336 0.00958416 0.0
0.509997 0.00714139 0.0
0.587558 0.0114459 0.0
1.21071 0.669599 0.0
1.36092 0.0695975 0.0
0.965883 -0.00321875 0.0
0.536643 0.0081252 0.0
0.548418 -0.0127026 0.0
0.700007 0.0249318 0.0
1.15697 -0.0474306 0.0
0.619882 0.00108186 0.0
1.60378 -0.193104 0.0
1.29614 0.0954413 0.0
0.53688 -0.140688 0.0
1.34553 -0.0936072 0.0
1.52681 -0.466858 0.0
1.01099 0.00551202 0.0
1.09106 0.0186134 0.0
1.13996 -0.0122169 0.0
0.959593 0.00349036 0.0
0.837045 -0.689206 0.0
1.02804 -0.00199755 0.0
0.980215 -0.00579148 0.0
1.20457 -0.0131758 0.0
1.12271 -0.0340841 0.0
1.64831 -0.000131154 0.0
-0.120926 0.0977332 0.0
0.506318 -0.0687099 0.0
1.33616 0.518184 0.0
1.07261 -0.0121274 0.0
0.608401 -0.0120546 0.0
0.579403 -0.00578314 0.0
0.574057 -0.0061392 0.0
1.22643 0.00543984 0.0
0.633576 0.211212 0.0
1.17451 -0.0244547 0.0
0.977175 0.0127658 0.0
0.751095 0.163021 0.0
1.12544 -0.00152714 0.0
0.138045 -0.00967486 0.0
1.19238 0.00554322 0.0
0.565629 0.0208578 0.0
0.563348 -0.0104652 0.0
1.33997 0.085469 0.0
0.837972 -0.0117139 0.0
1.50627 0.0319741 0.0
0.974501 0.0155176 0.0
0.990261 0.0117848 0.0
0.111374 -0.166264 0.0
0.971233 0.0291495 0.0
1.16911 0.0135248 0.0
1.15219 0.0135399 0.0
0.355881 -0.136133 0.0
1.61631 -0.273234 0.0
1.09498 -0.00067921 0.0
1.28744 0.194967 0.0
0.589353 -0.0141292 0.0
0.556137 -0.00777401 0.0
1.12384 -0.0166492 0.0
0.530539 0.0896584 0.0
1.1246 -0.0271001 0.0
0.809749 0.0217459 0.0
0.93543 -0.00823594 0.0
1.13088 0.0122495 0.0
0.994861 -0.00312213 0.0
0.201884 -0.0209015 0.0
1.15014 -0.0134802 0.0
0.309762 0.0604615 0.0
1.00996 -0.000124909 0.0
1.00006 -0.00380993 0.0
0.576098 -0.0153763 0.0
1.07294 -0.00934167 0.0
1.17453 -0.0246618 0.0
0.947358 0.000971644 0.0
0.991965 -0.013669 0.0
1.2002 -0.964609 0.0
1.13219 0.0222901 0.0
1.69269 0.486951 0.0
0.551523 -0.0167492 0.0
0.540549 0.00648611 0.0
1.16683 0.00655296 0.0
1.22844 -0.00664368 0.0
1.11444 -0.00845725 0.0
1.12313 -0.00166255 0.0
1.18107 0.00647331 0.0
1.13117 0.00605025 0.0
1.21954 -0.00947984 0.0
1.15073 0.0257061 0.0
-0.19844 0.0188095 0.0
1.10393 0.014919 0.0
-0.0253382 0.028707 0.0
0.664633 -0.0256855 0.0
1.20442 -0.177431 0.0
1.14834 -0.012402 0.0
1.36842 -0.137943 0.0
1.64629 -0.502436 0.0
0.314249 -0.0181112 0.0
1.2134 -0.00884554 0.0
1.129 0.272024 0.0
1.35143 -0.0982388 0.0
1.07137 0.3057 0.0
1.70948 0.0869054 0.0
0.975231 -0.542438 0.0
1.37208 0.132338 0.0
1.12213 -0.0164429 0.0
1.28963 -0.480968 0.0
-0.0873835 -0.108061 0.0
1.0606 -0.000206996 0.0
1.31864 -0.39486 0.0
0.494461 -0.00489477 0.0
1.41866 -0.149974 0.0
1.68465 0.198492 0.0
1.0915 0.0137449 0.0
0.391001 0.0156969 0.0
0.717031 0.00183684 0.0
0.267865 -0.228442 0.0
0.95712 0.0459433 0.0
-0.118717 -0.0299132 0.0
1.14644 -0.16237 0.0
1.49641 0.1437 0.0
0.537503 0.00906906 0.0
1.22932 -0.0687424 0.0
0.965039 0.000676351 0.0
1.21746 0.00467594 0.0
0.435144 -0.615501 0.0
1.22864 0.264384 0.0
0.729191 -0.162533 0.0
0.191332 -0.330918 0.0
0.51752 0.160695 0.0
1.3026 0.238505 0.0
0.597923 0.152186 0.0
0.969195 -0.0131024 0.0
1.14123 -0.0166441 0.0
1.08278 0.0111477 0.0
1.07675 0.00877544 0.0
0.571438 0.00729633 0.0
0.0236095 0.0820106 0.0
1.3083 0.299795 0.0
0.468298 -0.00220653 0.0
1.1015 0.010351 0.0
0.264443 0.216292 0.0