# vtk DataFile Version 3.0
Malha 2D com triângulos: velocidade e pressão
ASCII
DATASET UNSTRUCTURED_GRID

POINTS 4359 double
0 0 0
2.2 0 0
2.2 0.41 0
0 0.41 0
0.2 0.25 0
0.2 0.15 0
0.0174781 0 0
0.0349562 0 0
0.0524342 0 0
0.0699123 0 0
0.0873904 0 0
0.104868 0 0
0.122347 0 0
0.139825 0 0
0.157248 0 0
0.174402 0 0
0.191396 0 0
0.208368 0 0
0.225361 0 0
0.242512 0 0
0.259933 0 0
0.277411 0 0
0.294889 0 0
0.312367 0 0
0.329845 0 0
0.347323 0 0
0.364801 0 0
0.382279 0 0
0.399757 0 0
0.417236 0 0
0.434714 0 0
0.452192 0 0
0.46967 0 0
0.487148 0 0
0.504626 0 0
0.522104 0 0
0.539582 0 0
0.55706 0 0
0.574538 0 0
0.592016 0 0
0.609494 0 0
0.626973 0 0
0.644451 0 0
0.661929 0 0
0.679407 0 0
0.696885 0 0
0.714363 0 0
0.731841 0 0
0.749319 0 0
0.766797 0 0
0.784275 0 0
0.801753 0 0
0.819231 0 0
0.83671 0 0
0.854188 0 0
0.871666 0 0
0.889144 0 0
0.906622 0 0
0.9241 0 0
0.941578 0 0
0.959056 0 0
0.976534 0 0
0.994012 0 0
1.01149 0 0
1.02897 0 0
1.04645 0 0
1.06392 0 0
1.0814 0 0
1.09888 0 0
1.11636 0 0
1.13384 0 0
1.15132 0 0
1.16879 0 0
1.18627 0 0
1.20375 0 0
1.22123 0 0
1.23871 0 0
1.25618 0 0
1.27366 0 0
1.29114 0 0
1.30862 0 0
1.3261 0 0
1.34357 0 0
1.36105 0 0
1.37853 0 0
1.39601 0 0
1.41349 0 0
1.43096 0 0
1.44844 0 0
1.46592 0 0
1.4834 0 0
1.50088 0 0
1.51835 0 0
1.53583 0 0
1.55331 0 0
1.57079 0 0
1.58827 0 0
1.60575 0 0
1.62322 0 0
1.6407 0 0
1.65818 0 0
1.67566 0 0
1.69314 0 0
1.71061 0 0
1.72809 0 0
1.74557 0 0
1.76305 0 0
1.78053 0 0
1.798 0 0
1.81548 0 0
1.83296 0 0
1.85044 0 0
1.86792 0 0
1.88539 0 0
1.90287 0 0
1.92035 0 0
1.93783 0 0
1.95531 0 0
1.97278 0 0
1.99026 0 0
2.00774 0 0
2.02522 0 0
2.0427 0 0
2.06018 0 0
2.07765 0 0
2.09513 0 0
2.11261 0 0
2.13009 0 0
2.14757 0 0
2.16504 0 0
2.18252 0 0
2.2 0.0170833 0
2.2 0.0341667 0
2.2 0.05125 0
2.2 0.0683333 0
2.2 0.0854167 0
2.2 0.1025 0
2.2 0.119583 0
2.2 0.136667 0
2.2 0.15375 0
2.2 0.170833 0
2.2 0.187917 0
2.2 0.205 0
2.2 0.222083 0
2.2 0.239167 0
2.2 0.25625 0
2.2 0.273333 0
2.2 0.290417 0
2.2 0.3075 0
2.2 0.324583 0
2.2 0.341667 0
2.2 0.35875 0
2.2 0.375833 0
2.2 0.392917 0
2.18254 0.41 0
2.16508 0.41 0
2.14762 0.41 0
2.13016 0.41 0
2.1127 0.41 0
2.09524 0.41 0
2.07778 0.41 0
2.06032 0.41 0
2.04286 0.41 0
2.0254 0.41 0
2.00794 0.41 0
1.99048 0.41 0
1.97302 0.41 0
1.95556 0.41 0
1.9381 0.41 0
1.92063 0.41 0
1.90317 0.41 0
1.88571 0.41 0
1.86825 0.41 0
1.85079 0.41 0
1.83333 0.41 0
1.81587 0.41 0
1.79841 0.41 0
1.78095 0.41 0
1.76349 0.41 0
1.74603 0.41 0
1.72857 0.41 0
1.71111 0.41 0
1.69365 0.41 0
1.67619 0.41 0
1.65873 0.41 0
1.64127 0.41 0
1.62381 0.41 0
1.60635 0.41 0
1.58889 0.41 0
1.57143 0.41 0
1.55397 0.41 0
1.53651 0.41 0
1.51905 0.41 0
1.50159 0.41 0
1.48413 0.41 0
1.46667 0.41 0
1.44921 0.41 0
1.43175 0.41 0
1.41429 0.41 0
1.39683 0.41 0
1.37937 0.41 0
1.3619 0.41 0
1.34444 0.41 0
1.32698 0.41 0
1.30952 0.41 0
1.29206 0.41 0
1.2746 0.41 0
1.25714 0.41 0
1.23968 0.41 0
1.22222 0.41 0
1.20476 0.41 0
1.1873 0.41 0
1.16984 0.41 0
1.15238 0.41 0
1.13492 0.41 0
1.11746 0.41 0
1.1 0.41 0
1.08254 0.41 0
1.06508 0.41 0
1.04762 0.41 0
1.03016 0.41 0
1.0127 0.41 0
0.995238 0.41 0
0.977778 0.41 0
0.960317 0.41 0
0.942857 0.41 0
0.925397 0.41 0
0.907937 0.41 0
0.890476 0.41 0
0.873016 0.41 0
0.855556 0.41 0
0.838095 0.41 0
0.820635 0.41 0
0.803175 0.41 0
0.785714 0.41 0
0.768254 0.41 0
0.750794 0.41 0
0.733333 0.41 0
0.715873 0.41 0
0.698413 0.41 0
0.680952 0.41 0
0.663492 0.41 0
0.646032 0.41 0
0.628571 0.41 0
0.611111 0.41 0
0.593651 0.41 0
0.57619 0.41 0
0.55873 0.41 0
0.54127 0.41 0
0.52381 0.41 0
0.506349 0.41 0
0.488889 0.41 0
0.471429 0.41 0
0.453968 0.41 0
0.436508 0.41 0
0.419048 0.41 0
0.401587 0.41 0
0.384127 0.41 0
0.366667 0.41 0
0.349206 0.41 0
0.331746 0.41 0
0.314286 0.41 0
0.296825 0.41 0
0.279365 0.41 0
0.261905 0.41 0
0.244444 0.41 0
0.226984 0.41 0
0.209524 0.41 0
0.192063 0.41 0
0.174603 0.41 0
0.157143 0.41 0
0.139683 0.41 0
0.122222 0.41 0
0.104762 0.41 0
0.0873016 0.41 0
0.0698413 0.41 0
0.052381 0.41 0
0.0349206 0.41 0
0.0174603 0.41 0
0 0.39282 0
0 0.37564 0
0 0.35846 0
0 0.34128 0
0 0.324101 0
0 0.306921 0
0 0.289741 0
0 0.272561 0
0 0.255381 0
0 0.238321 0
0 0.221506 0
0 0.204842 0
0 0.188203 0
0 0.171493 0
0 0.154585 0
0 0.137439 0
0 0.120259 0
0 0.103079 0
0 0.0858994 0
0 0.0687195 0
0 0.0515396 0
0 0.0343598 0
0 0.0171799 0
0.191318 0.24924 0
0.182899 0.246985 0
0.175 0.243301 0
0.167861 0.238302 0
0.161698 0.232139 0
0.156699 0.225 0
0.153015 0.217101 0
0.15076 0.208682 0
0.15 0.2 0
0.15076 0.191318 0
0.153015 0.182899 0
0.156699 0.175 0
0.161698 0.167861 0
0.167861 0.161698 0
0.175 0.156699 0
0.182899 0.153015 0
0.191318 0.15076 0
0.208682 0.15076 0
0.217101 0.153015 0
0.225 0.156699 0
0.232139 0.161698 0
0.238302 0.167861 0
0.243301 0.175 0
0.246985 0.182899 0
0.24924 0.191318 0
0.25 0.2 0
0.24924 0.208682 0
0.246985 0.217101 0
0.243301 0.225 0
0.238302 0.232139 0
0.232139 0.238302 0
0.225 0.243301 0
0.217101 0.246985 0
0.208682 0.24924 0
0.257154 0.205004 0
0.460843 0.0136917 0
0.445238 0.394879 0
0.532522 0.39554 0
1.98267 0.394543 0
1.89453 0.39698 0
1.80766 0.393931 0
1.72112 0.39732 0
1.63254 0.394879 0
1.5451 0.39856 0
1.45761 0.394619 0
1.3716 0.393134 0
1.28315 0.394965 0
1.1948 0.395824 0
1.10929 0.395764 0
1.023 0.392763 0
0.934127 0.394879 0
0.846826 0.394878 0
0.759522 0.3958 0
0.672374 0.394786 0
0.599694 0.016578 0
2.18565 0.196746 0
0.723018 0.013374 0
0.811925 0.015372 0
0.896742 0.0144201 0
0.984737 0.0158543 0
1.07266 0.0151365 0
1.15858 0.0166352 0
1.2459 0.0146138 0
1.33445 0.0149113 0
1.422 0.0144308 0
1.51026 0.0142947 0
1.59701 0.0148359 0
1.68351 0.0144374 0
1.77229 0.0152921 0
1.85954 0.0158619 0
1.94658 0.0151476 0
0.251984 0.17576 0
0.247203 0.233232 0
0.392478 0.0140308 0
0.602356 0.394638 0
0.530803 0.0139647 0
2.01605 0.0146961 0
0.375397 0.394879 0
2.05145 0.39498 0
0.160472 0.158369 0
0.158479 0.239466 0
2.18521 0.264792 0
0.232649 0.153005 0
0.223834 0.251538 0
2.18611 0.126222 0
0.185765 0.25593 0
0.321402 0.0177034 0
0.145237 0.185808 0
0.144723 0.214376 0
0.306261 0.395383 0
0.185155 0.144597 0
0.0136812 0.0947004 0
0.0141765 0.299474 0
0.11227 0.396104 0
0.112703 0.0162904 0
2.08419 0.0147692 0
0.253175 0.394879 0
0.265848 0.0154955 0
0.655461 0.0161752 0
2.18462 0.315639 0
0.0136444 0.147246 0
0.166507 0.394368 0
0.215002 0.145441 0
0.204416 0.255834 0
0.0144088 0.249644 0
0.01627 0.196467 0
0.164661 0.0124312 0
0.217163 0.0161977 0
2.10452 0.395195 0
2.18631 0.0767964 0
0.0611111 0.394879 0
0.0612869 0.0150855 0
2.13948 0.0146133 0
0.015461 0.349835 0
0.201153 0.393843 0
0.0152519 0.0598303 0
0.355727 0.0137145 0
0.426485 0.0155289 0
0.341455 0.39382 0
0.410315 0.395509 0
0.479268 0.39547 0
0.49573 0.0181201 0
0.564817 0.0143862 0
2.14052 0.394938 0
1.98153 0.0151338 0
2.05221 0.0145028 0
0.56746 0.394879 0
1.03872 0.0143267 0
1.89666 0.016205 0
1.80663 0.0150719 0
1.12703 0.0165953 0
1.72078 0.01494 0
1.19415 0.0146383 0
1.56207 0.0144939 0
1.38842 0.0147256 0
1.47373 0.0139581 0
1.29988 0.014782 0
0.775124 0.0146502 0
1.63196 0.0149112 0
0.862424 0.0133248 0
0.68814 0.0156249 0
0.93317 0.0149453 0
1.59762 0.395643 0
1.33571 0.394879 0
1.42302 0.394879 0
1.51032 0.394743 0
1.24871 0.39626 0
1.07117 0.396595 0
0.968858 0.394277 0
1.68446 0.394288 0
0.881746 0.394879 0
0.795033 0.39441 0
0.707145 0.39503 0
1.16111 0.394879 0
1.85774 0.393039 0
1.77222 0.394879 0
1.94726 0.395127 0
0.637381 0.395474 0
2.01721 0.395671 0
2.18589 0.164208 0
2.18561 0.230606 0
2.18808 0.351647 0
2.18449 0.042735 0
2.17173 0.394556 0
0.027262 0.0148126 0
0.0273407 0.395172 0
2.17387 0.0146858 0
0.143161 0.205319 0
0.136243 0.211227 0
0.13742 0.219995 0
0.129302 0.216654 0
0.130721 0.225265 0
0.122414 0.22192 0
0.123541 0.230591 0
0.121234 0.2133 0
0.114299 0.218545 0
0.113188 0.20985 0
0.106219 0.215186 0
0.105117 0.206435 0
0.098149 0.211804 0
0.0992243 0.220672 0
0.0972564 0.203006 0
0.0907864 0.216901 0
0.0920144 0.226296 0
0.104055 0.197649 0
0.0961038 0.194194 0
0.102946 0.188826 0
0.0947447 0.185359 0
0.101825 0.179868 0
0.0939555 0.176335 0
0.100796 0.170771 0
0.0926269 0.167184 0
0.0998079 0.161379 0
0.0908577 0.157787 0
0.0984963 0.151947 0
0.0892881 0.148033 0
0.0975309 0.141682 0
0.0877234 0.13769 0
0.096175 0.131409 0
0.105979 0.135327 0
0.104864 0.125097 0
0.0958492 0.119939 0
0.103779 0.11455 0
0.113528 0.118998 0
0.112461 0.108816 0
0.12211 0.113086 0
0.12068 0.101403 0
0.130555 0.106953 0
0.130039 0.0968044 0
0.139249 0.101238 0
0.102896 0.103648 0
0.138562 0.0901923 0
0.147875 0.0952509 0
0.0879671 0.190327 0
0.0829373 0.222308 0
0.0843793 0.232834 0
0.0824591 0.165089 0
0.147361 0.084124 0
0.156694 0.0892785 0
0.130124 0.0867798 0
0.148668 0.105579 0
0.108133 0.165118 0
0.156091 0.0786549 0
0.165681 0.0833694 0
0.0747234 0.228588 0
0.0760134 0.239187 0
0.0860396 0.243481 0
0.0775063 0.249948 0
0.0877077 0.254001 0
0.0790028 0.260888 0
0.0894685 0.265066 0
0.0805578 0.272108 0
0.0913173 0.276406 0
0.0821143 0.283672 0
0.0931388 0.287813 0
0.101908 0.281 0
0.103987 0.291809 0
0.112366 0.285204 0
0.114332 0.295579 0
0.12267 0.288767 0
0.124416 0.299158 0
0.105532 0.302749 0
0.132401 0.292526 0
0.134072 0.302619 0
0.141974 0.296206 0
0.143007 0.306565 0
0.151628 0.299773 0
0.152464 0.31028 0
0.160896 0.302404 0
0.162314 0.313023 0
0.170468 0.307007 0
0.171089 0.31695 0
0.179784 0.310403 0
0.180499 0.320801 0
0.189186 0.313862 0
0.154746 0.319269 0
0.190866 0.324053 0
0.199171 0.317305 0
0.20062 0.328361 0
0.208373 0.32063 0
0.207373 0.310617 0
0.216723 0.314071 0
0.217567 0.325158 0
0.226388 0.317409 0
0.22439 0.307499 0
0.233824 0.310565 0
0.236197 0.320517 0
0.243774 0.313432 0
0.246316 0.323772 0
0.253999 0.316184 0
0.250408 0.304861 0
0.261358 0.308416 0
0.258998 0.298344 0
0.269005 0.301261 0
0.265842 0.289795 0
0.276517 0.293546 0
0.279254 0.304226 0
0.286759 0.296453 0
0.284046 0.286081 0
0.294564 0.289362 0
0.291285 0.278854 0
0.302166 0.281875 0
0.298722 0.271151 0
0.309559 0.273307 0
0.306168 0.262643 0
0.317493 0.265211 0
0.314702 0.254455 0
0.325049 0.257074 0
[...]
CELL_DATA 8382
VECTORS velocity double
0.183999 -0.00284949 0
0.239111 -0.000182145 0
0.241961 -0.139834 0
0.115166 0.00397231 0
0.0948347 0.000237317 0
0.202241 -0.192799 0
-0.0162723 0.000661692 0
0.257583 0.00297361 0
0.265666 -0.0438165 0
0.0698422 -0.00035831 0
0.196224 -0.0026999 0
0.295632 0.0874252 0
0.277073 0.000180979 0
0.378711 -0.0311762 0
0.350262 0.00675283 0
0.359682 -0.0187276 0
0.271996 0.00111054 0
0.102769 -0.00226101 0
0.0936449 0.000422029 0
0.253105 0.00348181 0
0.203928 0.00227843 0
-0.0169177 -0.00344583 0
0.314255 -0.0359725 0
0.0907949 0.000585327 0
-0.01469 0.00285528 0
0.291229 -0.000316295 0
0.256366 -0.00373026 0
0.366629 0.0215091 0
0.103741 0.00285667 0
0.320659 0.0766615 0
0.268625 -0.0378644 0
0.276153 -0.0160252 0
0.0403393 0.0120226 0
0.131945 0.00663253 0
0.1601 0.165509 0
0.362966 0.0176068 0
0.117293 -0.0042931 0
0.114022 -0.000621694 0
0.0898313 0.000894097 0
0.175931 -0.00313168 0
0.31069 0.067335 0
0.250232 0.000108377 0
0.364732 -0.00885224 0
0.178809 -0.000651762 0
0.278463 -0.0385284 0
0.266532 0.00161554 0
0.238931 -0.00498986 0
0.146273 0.00123257 0
0.308395 -0.02931 0
0.0701022 -0.00063048 0
0.330589 0.0345094 0
0.291638 0.0831858 0
0.24133 -0.0433826 0
0.34397 0.000552112 0
-0.0106356 0.00672399 0
0.372651 -0.0326114 0
0.105082 0.000961098 0
0.0738135 -0.000826386 0
0.0856301 0.000762402 0
0.0770232 0.000393692 0
0.0601682 0.00133187 0
0.104906 4.85142e-05 0
0.307104 0.0355467 0
0.260399 -0.0198513 0
0.263249 0.00207369 0
0.0238193 -0.00161824 0
0.106735 -7.835e-05 0
0.294841 0.0595442 0
0.0797278 0.00117962 0
0.0866855 -7.69169e-05 0
0.0742334 -0.000917938 0
0.123242 0.0306694 0
0.266514 0.00698276 0
0.145271 -0.00101624 0
0.101903 -0.00406776 0
0.279653 -0.000415257 0
-0.00410173 0.010643 0
0.281586 0.00463741 0
0.369339 0.0195514 0
0.0675221 0.000872102 0
0.17115 0.00917287 0
0.292736 -0.0260409 0
0.332238 0.0482937 0
0.280197 0.0747746 0
0.0682712 -0.00015875 0
0.253624 0.00444073 0
5.15009e-05 -0.00827976 0
0.00864053 -0.00496179 0
0.11816 -0.0106482 0
0.246696 0.0612734 0
0.116191 -0.0225639 0
0.0677883 0.00108117 0
0.0787437 0.000674908 0
0.0714285 0.000771881 0
0.0605768 0.000431281 0
0.114595 -0.0123148 0
0.149262 -0.00616911 0
0.0396484 -0.000505789 0
0.00576214 -0.00316503 0
0.225525 -0.000270047 0
0.27629 -0.0121558 0
0.0768013 -0.000998254 0
0.0688862 0.000496239 0
0.28739 -0.0249869 0
0.0719121 0.104134 0
0.0450802 7.76066e-05 0
0.142723 -0.0731888 0
0.0349497 -0.00981818 0
0.326816 0.0378244 0
0.094714 4.51994e-05 0
0.162978 0.00973387 0
0.0515337 0.00303009 0
0.00736002 -0.00152882 0
0.279655 0.000748633 0
0.0688275 0.000590608 0
0.0492087 -0.00114048 0
0.291728 -0.022934 0
0.278012 0.000348657 0
0.0563411 0.00133532 0
0.259187 0.0537162 0
0.139144 0.00640188 0
0.137516 -0.00149577 0
0.206133 0.00616691 0
0.140408 0.00914297 0
0.0162063 0.00085723 0
0.364636 -0.00641076 0
0.21872 0.0114354 0
0.115239 -0.0226197 0
0.251296 -0.0229406 0
0.109266 0.000164171 0
0.0149306 0.000718182 0
0.232749 -0.000159714 0
0.0860664 0.00079382 0
0.118093 0.000779136 0
0.014629 0.00263 0
0.270112 -0.00121455 0
0.197969 0.178041 0
0.320625 0.0475425 0
0.212651 0.0382808 0
0.270284 0.101743 0
0.284895 0.0281316 0
0.14074 -0.0309756 0
0.296132 -0.00123559 0
0.259901 0.0033138 0
0.0594724 0.00424887 0
0.150495 -0.00852328 0
0.290472 -0.000337899 0
0.254622 0.00437257 0
0.14124 -0.0309105 0
0.0770958 -0.0213645 0
0.322281 -0.00205583 0
0.249877 -0.0543163 0
0.289688 -0.0363792 0
0.361083 0.0987906 0
0.131454 0.0328668 0
-0.0184541 -0.0028527 0
0.17006 -0.00258621 0
0.262409 0.00126892 0
0.063281 -0.0015349 0
0.207004 -0.158843 0
0.255091 0.0558368 0
0.300845 -0.000973485 0
0.26674 0.00125805 0
0.306517 -0.0321097 0
0.30737 0.0336208 0
0.272652 0.00226269 0
0.370792 0.0877859 0
0.374419 0.12095 0
0.197476 -0.0286891 0
0.284379 -0.0277519 0
0.305103 -0.00858838 0
0.111058 -0.000538154 0
0.101257 -0.00494448 0
0.120557 -0.00303322 0
0.370997 0.0162623 0
0.171873 -0.162023 0
0.268057 -0.0365597 0
0.0896244 -0.00139154 0
0.262996 -0.00239023 0
0.0882933 -0.00238967 0
0.30038 0.132261 0
0.0668238 -0.000823661 0
0.274435 0.030594 0
0.0716491 -0.000728592 0
0.0850063 0.0021647 0
0.138276 0.00251769 0
0.253418 0.0264433 0
0.142385 -0.00540442 0
0.186694 -0.0262373 0
0.26767 0.00134305 0
0.335484 -0.041942 0
0.217108 0.0384424 0
0.265674 0.0965717 0
0.316244 -0.0425111 0
0.0824789 -0.00091629 0
0.175351 -0.0268337 0
0.213992 0.0111075 0
0.0894493 0.000336237 0
-0.0127687 0.00476634 0
0.137394 -0.00479363 0
0.276835 0.0240431 0
0.192465 -0.00707573 0
0.117306 0.134307 0
0.0266425 0.000347781 0
0.0819018 0.00229274 0
0.284077 0.0506037 0
0.301793 -0.0169685 0
0.156012 -0.000365151 0
0.0518768 -0.00352492 0
0.0611353 -0.000509919 0
0.0933799 -0.000460146 0
0.265238 -0.0243876 0
0.300489 0.143768 0
0.217139 0.0247569 0
0.197817 0.00883467 0
0.270495 -0.0797898 0
0.26514 0.00203092 0
0.365796 0.0239555 0
0.247328 0.00657651 0
0.256104 -0.069932 0
0.334051 -0.0421734 0
0.314518 0.00113789 0
0.306218 0.00748567 0
0.0685169 0.000689484 0
0.0567028 -0.000212617 0
0.0764121 0.00153669 0
0.289238 7.04496e-05 0
0.276941 0.00963271 0
0.345534 -0.106482 0
0.298154 -0.000194357 0
0.11915 0.00450965 0
0.0590318 0.0186324 0
0.259203 0.00759687 0
0.201176 0.0524321 0
0.259778 -0.0397019 0
0.263203 0.000398385 0
0.39105 -0.0491316 0
0.276178 -0.0298022 0
0.0519198 0.000738212 0
0.27131 0.0670389 0
0.250343 0.00859981 0
0.363335 0.0231669 0
0.0832239 -0.00793279 0
0.280118 -0.0210251 0
0.145591 0.000476963 0
0.381739 -0.0307889 0
0.205037 -0.000212737 0
0.371989 0.101929 0
0.260577 0.0711912 0
0.332773 0.118814 0
0.058667 -0.00052994 0
0.115917 0.000921799 0
0.339147 -0.0973897 0
0.00127844 0.00886387 0
0.0733083 -0.000315668 0
0.290434 0.0674029 0
0.144955 0.0169484 0
0.272582 0.000989583 0
0.122261 0.00399771 0
0.145225 -0.0029031 0
0.121275 0.000469898 0
0.254808 0.0667313 0
0.206762 -0.00244525 0
0.281582 -0.00453881 0
0.258565 0.00789847 0
0.272075 -0.0217599 0
0.107946 0.00213376 0
0.093992 -0.000960445 0
0.26496 -0.0789898 0
0.248422 0.0481369 0
0.2643 0.0885207 0
0.0667317 0.000628915 0
0.0601365 -0.00265978 0
0.310691 0.0328859 0
0.0708542 0.000365367 0
0.101416 0.0280098 0
0.111501 -0.0265071 0
0.0688142 -0.032408 0
0.0473569 -0.0179028 0
0.311522 -0.0100426 0
0.284374 -0.000633301 0
0.101078 -0.0108705 0
0.251802 0.00305673 0
0.127214 -0.00124785 0
0.0546628 -0.00177997 0
0.24275 -0.0191931 0
0.243522 0.057855 0
0.242149 -0.0155366 0
0.0813542 -0.000129373 0
0.272972 0.0228327 0
0.271713 -0.0310257 0
0.255092 0.0356539 0
0.0574546 0.000905924 0
0.077318 0.00131535 0
0.196161 -0.0256529 0
0.363906 0.0767239 0
0.0631938 0.000469487 0
0.287643 0.00012866 0
0.235333 0.0527314 0
0.283274 0.00923115 0
0.0332493 -0.0153063 0
0.089125 -0.000454712 0
0.094651 -0.0010225 0
0.254021 -0.0618371 0
0.0673563 0.00132982 0
0.248496 -0.0921532 0
0.274728 0.0634241 0
0.187897 0.0429726 0
-0.00574205 -0.0100813 0
0.256243 0.00476253 0
0.250053 0.00383844 0
0.16789 -0.0344234 0
0.230358 -0.0530553 0
0.0603444 0.000274217 0
0.0516989 -0.000243882 0
0.078846 -0.00118129 0
0.145933 -0.0154692 0
0.02866 -0.0140042 0
0.0999009 8.73612e-06 0
0.255003 0.000812469 0
0.117127 0.00246407 0
0.290719 -8.60665e-05 0
-0.00094879 0.00542044 0
0.0362987 0.00523802 0
0.109504 0.00131594 0
0.196247 -0.0363149 0
0.177656 -0.00126165 0
0.129641 0.000237362 0
0.130034 0.000549837 0
0.271416 0.073182 0
0.144267 -0.00537451 0
0.196266 0.0051117 0
0.199489 -0.00248054 0
0.086622 0.00109769 0
0.166274 0.00806411 0
0.0643604 0.00118492 0
-0.0144296 -0.00394019 0
0.0594291 -0.000610054 0
0.0992648 -0.0274029 0
0.0981817 -0.025639 0
0.266664 0.000259541 0
0.37748 0.00244531 0
0.353584 -0.0120508 0
0.125093 0.0012727 0
0.166447 0.132522 0
0.282755 -0.00855863 0
0.23619 -0.190567 0
0.271099 0.000864288 0
0.261868 -0.0426501 0
-0.0180868 -0.0032284 0
0.245322 0.0856025 0
0.300712 -0.0133173 0
0.319646 -0.101748 0
0.353907 -0.00929286 0
0.0515866 0.00749039 0
0.268262 0.0264056 0
-0.00603372 -0.00908449 0
0.1268 0.00120814 0
0.091386 -0.00682878 0
0.276792 0.00122419 0
0.118124 0.00618066 0
0.160195 -0.000216512 0
0.0911721 -0.000412268 0
0.210305 -0.00437996 0
0.12374 -0.000554965 0
0.254346 -0.0263344 0
0.0783025 0.000526867 0
0.0628478 -0.00117168 0
0.30695 0.130322 0
0.281439 -0.0413005 0
0.365736 -0.0267533 0
0.0259084 -0.0128377 0
0.193962 0.00116514 0
0.34322 0.0237802 0
0.239628 -0.000120346 0
0.234324 0.182717 0
0.167939 -0.000335824 0
0.271932 0.0342601 0
0.088632 0.000681499 0
0.26944 0.000303889 0
0.234814 -0.0576553 0
0.00386303 -0.0104873 0
0.0835103 -0.000486318 0
0.168881 -0.00184298 0
0.123297 -0.000495794 0
0.131736 -0.00522288 0
0.041328 0.000832295 0
0.277195 0.000713556 0
0.305014 0.118957 0
0.272347 0.048363 0
0.323039 0.113893 0
0.155074 -0.00514675 0
0.221874 0.046043 0
0.101473 0.0131579 0
0.151065 -0.177979 0
0.342531 -0.0568662 0
0.238792 -0.0866927 0
0.0752532 -0.00103109 0
0.359907 -0.0162695 0
0.184926 -0.000138577 0
0.142074 -0.00426874 0
0.067674 0.00230013 0
0.0704213 -0.00109287 0
0.109415 -0.00293892 0
0.255436 0.174444 0
-0.0175096 -0.00380992 0
0.376455 0.00722968 0
-0.00945463 0.00161722 0
0.241265 0.0570767 0
-0.01101 -0.000574751 0
0.348002 0.0313032 0
0.263216 0.00119767 0
0.290183 0.000133849 0
0.0402979 0.000681141 0
0.042263 0.000530873 0
0.233826 -0.0221904 0
0.0107987 -0.0097425 0
0.250087 0.0440937 0
0.145617 -0.000267951 0
0.0773426 0.000832667 0
0.0845064 -0.00562352 0
0.0360423 -0.000291186 0
0.146844 -0.0126938 0
0.0849091 0.00157647 0
0.0560881 0.00919325 0
0.148113 0.0143343 0
0.233879 -0.0465665 0
0.229912 0.0458097 0
0.34055 -0.0114133 0
0.246344 0.0647892 0
0.0615672 -0.00154864 0
0.0554739 -0.000546251 0
0.0745084 -0.000278467 0
0.253407 0.00484308 0
0.10265 -0.000583649 0
0.284566 7.67771e-05 0
0.270714 0.0344795 0
0.0154397 -0.000841818 0
0.281602 0.000383391 0
0.0243969 0.000296486 0
0.339506 -0.00526148 0
0.0573938 -0.00017017 0
0.329787 0.0421304 0
0.113307 0.00186247 0
0.230605 0.0398964 0
0.300504 -0.114354 0
0.357751 0.0890096 0
0.140918 -5.5352e-05 0
0.253584 -0.0878748 0
0.241571 0.0504219 0
0.0163443 -0.0117671 0
0.0656862 -0.000727989 0
0.170212 0.0140735 0
0.072266 -0.00109403 0
0.25935 0.0683212 0
0.0754302 0.0276188 0
0.390549 0.0690954 0
0.323201 -0.0344981 0
0.0826419 -0.000290727 0
0.257517 0.00531767 0
0.196292 -0.0107456 0
0.261727 0.0852589 0
0.222929 -0.00196761 0
0.308117 -0.139157 0
0.280313 0.000197425 0
0.15645 0.0360348 0
0.117489 -0.000855793 0
0.0451788 -0.00068761 0
0.329495 -0.00501088 0
-0.00816196 0.00304057 0
0.0801526 0.000442609 0
0.25774 -0.00878244 0
0.237254 0.053308 0
0.279352 -0.127204 0
0.275754 -0.0251505 0
0.0657337 0.00116861 0
0.258717 0.00410619 0
0.00797011 0.00653096 0
0.326388 0.00207905 0
0.020289 0.00156503 0
0.277077 0.000759139 0
0.275522 0.017853 0
0.382335 0.118056 0
0.0540275 -0.00274408 0
0.331099 -0.0426672 0
0.332153 -0.00827544 0
0.108613 0.0001021 0
0.257586 0.00335034 0
0.279557 -0.140594 0
0.262246 -0.106446 0
0.183432 -0.000668075 0
0.0674167 -0.0197418 0
0.289611 -0.139823 0
0.0674356 0.00144711 0
0.187935 -0.00239098 0
0.00251361 -0.00982026 0
0.149414 0.0370007 0
0.220562 -0.0381956 0
0.224396 -0.0569799 0
0.354659 0.0298149 0
0.0304786 0.0120585 0
0.00133882 0.00422715 0
0.243236 0.0499034 0
0.268491 -0.000485028 0
0.178174 0.0127993 0
0.252408 -0.0709209 0
0.0710295 -0.000654566 0
0.075589 0.00156983 0
0.286233 -0.0199058 0
0.303991 -0.0132187 0
0.222601 -0.0562141 0
0.256849 0.00549486 0
0.0568587 0.00448062 0
0.0986283 -0.0298516 0
0.0604818 0.00161771 0
0.390715 -0.0426848 0
0.0489874 -0.00795987 0
0.0697086 -0.000543088 0
0.28001 0.1147 0
0.0788809 -0.000102365 0
0.275768 -0.129081 0
0.0962432 -0.000399349 0
0.0780104 0.00152514 0
0.163418 -0.00195745 0
0.0849524 0.00177474 0
0.23695 0.0520996 0
0.323604 -0.0175599 0
0.324555 0.0335293 0
0.0631352 0.0017638 0
0.218417 -0.031487 0
0.267305 0.00142326 0
0.0646996 0.00229092 0
0.265987 0.0440392 0
0.236588 -0.0538441 0
0.0594918 -0.00231511 0
0.0583188 0.00161908 0
0.136068 0.0318561 0
0.249806 -0.0748218 0
0.120473 -0.00609257 0
0.0146976 -0.0111266 0
0.299215 -0.144257 0
0.247057 0.0741935 0
-0.00382078 -0.00388427 0
0.300545 -0.00103996 0
0.322493 -0.0129396 0
0.215837 0.0152662 0
0.386982 0.0620248 0
0.0943794 0.00034855 0
0.379579 0.104959 0
0.259767 -0.00418601 0
0.245167 -0.08326 0
0.154209 -7.53967e-05 0
0.367778 -0.0213131 0
0.166229 -0.00621129 0
0.22264 -0.0402992 0
0.216521 0.0410345 0
0.244887 0.0471642 0
0.275896 -0.00939809 0
0.361032 0.0188621 0
0.392848 0.0557424 0
0.266014 0.00139449 0
0.0828914 -0.00126336 0
0.327185 -0.0480215 0
0.33312 -0.108665 0
0.143436 -0.000741358 0
0.261111 0.0721002 0
0.31648 -0.0283877 0
0.288949 6.90416e-05 0
0.252764 0.00911854 0
0.213282 0.0463929 0
0.0521149 1.48076e-05 0
0.183584 0.000353326 0
-0.017526 -0.00240127 0
0.27619 0.000478173 0
0.0335984 -0.00113333 0
0.238012 -0.00770809 0
0.103968 -0.00267599 0
0.10434 -0.0133787 0
0.358446 -0.0239459 0
0.124183 0.00592725 0
0.252397 0.00842268 0
0.25578 0.00499008 0
0.0536666 0.000163191 0
0.258297 0.0329276 0
0.0532116 0.0550698 0
0.134715 -0.0233838 0
0.256506 0.08805 0
0.107664 0.00840431 0
0.289319 -0.0295555 0
0.23426 0.0450008 0
0.282627 0.000331679 0
0.382675 0.0974946 0
0.259219 0.00388918 0
0.303483 -0.142234 0
0.38313 -0.071926 0
0.242122 -0.0657893 0
0.26346 -0.0978193 0
0.382118 -0.0392964 0
0.0589717 0.00121359 0
0.195469 -0.00280049 0
0.260175 -0.0340425 0
0.0350021 -0.0161676 0
-0.00515817 0.00215461 0
0.307465 -0.0421191 0
0.140817 0.00872958 0
0.278172 0.105173 0
0.140785 0.121045 0
0.0381689 -0.000674979 0
0.30043 -0.00087189 0
0.27151 -0.0697236 0
0.122424 0.0231226 0
0.279803 -0.1159 0
0.17536 0.149919 0
0.351139 -0.0154534 0
0.279578 0.000501697 0
0.291578 -9.32134e-05 0
0.210815 -0.0475098 0
0.0375399 -0.00200758 0
0.224762 0.0161499 0
0.278852 0.000946041 0
0.0160347 -0.00100462 0
0.272875 -0.000602265 0
0.000163467 -0.00220664 0
0.062846 -0.000353986 0
0.235568 -0.0643321 0
0.270155 0.000700479 0
0.259341 -0.0276064 0
0.391946 -0.0574822 0
0.268066 0.00836197 0
0.352841 -0.0368455 0
0.246322 -0.104677 0
0.191985 -0.0032273 0
0.372373 -0.0203553 0
-0.00548684 -0.00583859 0
0.310081 -0.123457 0
0.15598 0.00297602 0
0.0869191 0.000321687 0
0.234158 -0.0984436 0
0.115034 0.0012466 0
0.269098 -0.000632612 0
0.129357 -0.00189585 0
0.231346 0.0138307 0
0.26855 -0.044695 0
0.0737807 0.000293829 0
0.0392678 1.84389e-05 0
0.0374918 -0.000249868 0
0.257266 -0.037222 0
0.265108 -3.06034e-05 0
0.0766544 -0.0012097 0
0.296582 0.00164015 0
0.3706 0.131121 0
0.267401 0.0487758 0
0.268624 -0.0167536 0
0.0524945 -4.41865e-05 0
0.15346 -0.0305783 0
0.067441 -0.000535499 0
0.0623742 0.000435402 0
0.271458 -0.0264524 0
0.253941 0.000382758 0
0.318337 -0.127875 0
0.255331 -0.0162881 0
0.270354 -0.0147079 0
0.072969 -0.00117138 0
0.189451 0.0297677 0
0.0318241 0.000287672 0
0.256035 0.0669192 0
0.0615807 0.000177747 0
0.293102 -0.0003585 0
0.142463 -0.0103245 0
0.0705287 0.0247516 0
0.2598 0.0035399 0
0.249492 0.00118027 0
0.278424 -0.0147921 0
0.260158 0.00347833 0
0.137555 0.000434275 0
0.0469844 0.000754211 0
0.0545518 -0.00149201 0
0.282762 -0.0221409 0
0.220848 -0.0378568 0
-0.00820331 -0.00763138 0
0.252042 0.0020206 0
0.0955813 -0.011273 0
0.261863 0.0414318 0
0.0844045 -0.00108056 0
0.0781383 -0.000329474 0
0.0598399 0.000891094 0
0.0655258 0.000181445 0
0.325336 0.0410072 0
0.269286 0.0206353 0
0.0671347 -0.000981056 0
0.0682173 0.000432916 0
0.190173 0.167537 0
0.342381 0.033897 0
0.138975 0.00102192 0
0.065592 -0.000183154 0
0.159885 -0.00634811 0
0.310595 -0.0575701 0
0.0664421 -0.00122864 0
0.111822 0.0278901 0
0.375586 0.0725724 0
0.265778 0.00123494 0
0.278731 -0.0488371 0
0.295486 0.112234 0
-0.014034 0.00203919 0
-0.00901296 0.00584701 0
0.210128 -0.00137231 0
0.316369 -0.0277746 0
0.0678764 -0.00131344 0
0.0537517 -0.000296839 0
-0.00221305 -0.00455206 0
0.0758465 0.0679818 0
0.00111012 -0.00391338 0
-0.000449399 -0.00134627 0
0.101791 -0.0326573 0
0.00162638 0.00295836 0
0.0426675 -0.00300805 0
0.0345665 -0.0652428 0
-0.00131831 0.00411539 0
0.257497 0.0115808 0
0.246195 0.0376909 0
0.290059 -0.0217153 0
-0.00358 -0.0070273 0
0.251271 0.0897152 0
0.306351 -0.0438706 0
0.391115 -0.062805 0
0.258614 0.0388216 0
0.377291 0.00213471 0
0.27638 -0.0258388 0
0.211462 0.0425535 0
0.116818 -0.0304738 0
0.278603 0.000737392 0
0.0722634 -0.0068094 0
0.311875 -0.0437539 0
0.237866 -0.0645079 0
-0.00929189 0.00891251 0
0.0214951 0.00505371 0
0.0255306 0.0362199 0
-0.00381003 -0.00856672 0
0.0399439 0.0707543 0
0.0692076 0.0925153 0
0.152395 0.067603 0
0.0385221 0.00544174 0
0.109614 0.109801 0
0.0167513 -0.00974109 0
0.0226687 -0.0460196 0
0.12206 -0.0991278 0
0.388099 0.0601035 0
0.160013 0.000174742 0
0.10355 0.0335765 0
0.0922587 0.000164715 0
0.038459 0.00186907 0
0.23242 0.0530281 0
0.257969 -0.0135463 0
0.244291 -0.000552458 0
0.259592 0.00873513 0
-0.0136777 -0.00520294 0
0.230286 0.103952 0
0.265475 0.0312874 0
0.27652 0.0557717 0
0.0951604 0.00430014 0
0.0184501 -0.00569572 0
0.0148142 -3.45304e-05 0
0.0924667 -3.47362e-05 0
0.158619 0.0276359 0
0.270577 0.0247777 0
0.271889 -0.0189893 0
0.297536 0.00122703 0
0.366925 0.00670661 0
-0.000544633 -0.00851169 0
0.240689 0.0508435 0
0.297899 -0.025719 0
0.0447927 -0.000438811 0
0.315187 0.0260649 0
0.119979 0.000883057 0
0.108142 -0.00149767 0
0.256442 -0.0932298 0
0.0866887 -0.000917182 0
0.244461 0.000665675 0
0.219668 -0.0556824 0
0.0717084 7.49788e-05 0
0.226261 -0.00527095 0
0.323869 -0.127436 0
0.324245 -0.0354473 0
0.254835 0.0483945 0
0.26023 0.0663386 0
0.0583738 0.0225166 0
0.18558 0.0148671 0
0.261055 0.00237317 0
0.274325 -0.0366022 0
0.0636702 -0.000750563 0
0.119529 -0.0192325 0
0.294248 0.0487574 0
0.365625 -0.0175524 0
0.267502 -3.27974e-05 0
0.254496 0.0416421 0
0.0994591 -0.000329928 0
0.0748156 0.000893385 0
0.249787 -0.000104539 0
0.239042 -0.0661695 0
0.26049 -0.000309753 0
0.251269 0.0422218 0
0.0478082 -0.00143722 0
0.273677 0.0969788 0
0.152281 0.10917 0
0.271765 -0.0319301 0
0.275521 -0.0320092 0
0.282538 0.106126 0
0.390007 -0.0711645 0
0.260966 -0.17385 0
0.292836 0.0491381 0
-0.00455898 -0.000349805 0
0.396712 0.0462144 0
0.375689 0.0105655 0
0.148232 0.0357708 0
0.00315636 0.00708089 0
0.239121 -9.0536e-05 0
0.240462 0.0607354 0
0.206811 0.0413523 0
0.246649 -0.0709148 0
0.273845 -0.108541 0
0.352801 -0.00301696 0
0.309413 0.114297 0
0.114213 0.000150691 0
0.0544751 0.00126431 0
0.0359613 0.000458511 0
0.290003 0.114271 0
-0.0109335 -0.00389674 0
0.338275 -0.0257886 0
0.283374 -0.114357 0
0.104756 -0.00108167 0
0.368179 -0.0917761 0
-0.00303795 0.00559265 0
0.262771 -0.0320959 0
0.355119 0.0111833 0
0.211308 0.039618 0
0.143524 0.000213907 0
0.121219 0.0203675 0
0.140675 -0.00294955 0
0.348403 -0.0935426 0
0.243471 0.000256206 0
0.181432 -0.00449167 0
0.205654 -0.042721 0
0.213004 -0.0367068 0
0.262392 0.0744791 0
0.26958 0.0346689 0
0.232504 -0.0594914 0
0.371239 0.137696 0
0.270727 0.000775628 0
0.197742 -0.0426075 0
0.218597 0.0466964 0
0.217901 0.0372303 0
0.278876 -0.0117648 0
0.0580593 -0.0104836 0
0.256487 -0.0526106 0
0.233066 0.000491918 0
0.271074 -0.0303654 0
0.271856 -0.024195 0
0.271218 0.00198196 0
0.257558 0.0604843 0
0.29377 -0.113096 0
0.129746 -0.000490592 0
0.239028 0.0176098 0
0.217454 -0.0530346 0
-0.0061012 0.0130277 0
0.00717768 0.0087358 0
0.280294 -0.013445 0
0.257489 0.0671513 0
0.273766 -0.0114833 0
0.270208 0.000845401 0
0.311368 0.0325507 0
0.261975 0.0710896 0
0.196241 -0.0973303 0
0.0331944 0.00142179 0
-0.00554799 -0.00662178 0
0.154707 0.00142341 0
0.389628 -0.0365639 0
0.363181 0.147311 0
0.303302 -0.110384 0
0.122615 -0.156194 0
0.248121 0.0204 0
0.361501 -0.0251751 0
0.217937 0.0319259 0
0.211619 -0.0394958 0
0.112448 -0.00314595 0
0.257767 0.0494353 0
0.396867 0.061084 0
0.271428 -0.00986352 0
0.316029 -0.0933821 0
0.0798561 -0.00172416 0
0.352202 -0.0360699 0
0.349733 0.0982032 0
0.266373 -0.0993809 0
0.124234 -0.0143707 0