# vtk DataFile Version 3.0
Malha 2D com triângulos e temperatura
ASCII
DATASET UNSTRUCTURED_GRID

POINTS 1194 double
0 0 0
5 0 0
5 1 0
0 1 0
0.85 0.5 0
0.842388 0.538268 0
0.820711 0.570711 0
0.788268 0.592388 0
0.75 0.6 0
0.711732 0.592388 0
0.679289 0.570711 0
0.657612 0.538268 0
0.65 0.5 0
0.657612 0.461732 0
0.679289 0.429289 0
0.711732 0.407612 0
0.75 0.4 0
0.788268 0.407612 0
0.820711 0.429289 0
0.842388 0.461732 0
0.0793651 0 0
0.15873 0 0
0.238095 0 0
0.31746 0 0
0.396825 0 0
0.47619 0 0
0.555556 0 0
0.634921 0 0
0.714286 0 0
0.793651 0 0
0.873016 0 0
0.952381 0 0
1.03175 0 0
1.11111 0 0
1.19048 0 0
1.26984 0 0
1.34921 0 0
1.42857 0 0
1.50794 0 0
1.5873 0 0
1.66667 0 0
1.74603 0 0
1.8254 0 0
1.90476 0 0
1.98413 0 0
2.06349 0 0
2.14286 0 0
2.22222 0 0
2.30159 0 0
2.38095 0 0
2.46032 0 0
2.53968 0 0
2.61905 0 0
2.69841 0 0
2.77778 0 0
2.85714 0 0
2.93651 0 0
3.01587 0 0
3.09524 0 0
3.1746 0 0
3.25397 0 0
3.33333 0 0
3.4127 0 0
3.49206 0 0
3.57143 0 0
3.65079 0 0
3.73016 0 0
3.80952 0 0
3.88889 0 0
3.96825 0 0
4.04762 0 0
4.12698 0 0
4.20635 0 0
4.28571 0 0
4.36508 0 0
4.44444 0 0
4.52381 0 0
4.60317 0 0
4.68254 0 0
4.7619 0 0
4.84127 0 0
4.92063 0 0
5 0.0769231 0
5 0.153846 0
5 0.230769 0
5 0.307692 0
5 0.384615 0
5 0.461538 0
5 0.538462 0
5 0.615385 0
5 0.692308 0
5 0.769231 0
5 0.846154 0
5 0.923077 0
4.92063 1 0
4.84127 1 0
4.7619 1 0
4.68254 1 0
4.60317 1 0
4.52381 1 0
4.44444 1 0
4.36508 1 0
4.28571 1 0
4.20635 1 0
4.12698 1 0
4.04762 1 0
3.96825 1 0
3.88889 1 0
3.80952 1 0
3.73016 1 0
3.65079 1 0
3.57143 1 0
3.49206 1 0
3.4127 1 0
3.33333 1 0
3.25397 1 0
3.1746 1 0
3.09524 1 0
3.01587 1 0
2.93651 1 0
2.85714 1 0
2.77778 1 0
2.69841 1 0
2.61905 1 0
2.53968 1 0
2.46032 1 0
2.38095 1 0
2.30159 1 0
2.22222 1 0
2.14286 1 0
2.06349 1 0
1.98413 1 0
1.90476 1 0
1.8254 1 0
1.74603 1 0
1.66667 1 0
1.5873 1 0
1.50794 1 0
1.42857 1 0
1.34921 1 0
1.26984 1 0
1.19048 1 0
1.11111 1 0
1.03175 1 0
0.952381 1 0
0.873016 1 0
0.793651 1 0
0.714286 1 0
0.634921 1 0
0.555556 1 0
0.47619 1 0
0.396825 1 0
0.31746 1 0
0.238095 1 0
0.15873 1 0
0.0793651 1 0
0 0.923077 0
0 0.846154 0
0 0.769231 0
0 0.692308 0
0 0.615385 0
0 0.538462 0
0 0.461538 0
0 0.384615 0
0 0.307692 0
0 0.230769 0
0 0.153846 0
0 0.0769231 0
0.879698 0.466718 0
1.3085 0.931947 0
1.30532 0.0638546 0
4.93832 0.504275 0
0.620452 0.46964 0
3.99858 0.0669607 0
1.63721 0.934258 0
3.3751 0.0523709 0
4.3254 0.0687322 0
2.42354 0.0642082 0
2.97619 0.0687322 0
2.02101 0.0693621 0
3.68108 0.0581336 0
2.65899 0.932655 0
4.178 0.939994 0
3.21614 0.938179 0
2.25483 0.919987 0
3.53215 0.928998 0
3.84921 0.931268 0
1.69647 0.0674297 0
1.94349 0.930209 0
4.48413 0.931268 0
2.97813 0.942022 0
2.74097 0.0673855 0
0.859645 0.573263 0
0.639718 0.573116 0
0.0651563 0.652836 0
0.0635304 0.346121 0
4.56232 0.0679683 0
0.830393 0.392645 0
0.669618 0.39275 0
1.06185 0.0668897 0
0.440193 0.0680031 0
1.06474 0.93511 0
0.446074 0.935974 0
0.724697 0.630698 0
4.72268 0.931235 0
4.93065 0.267192 0
0.589836 0.936152 0
0.92338 0.0562425 0
0.590207 0.0623339 0
0.755872 0.0732784 0
0.838039 0.936714 0
4.92573 0.732039 0
0.281717 0.93783 0
0.28208 0.0811877 0
0.065248 0.503161 0
1.46076 0.0637037 0
4.72574 0.0661877 0
4.31028 0.937908 0
3.21429 0.0687322 0
1.46639 0.932632 0
3.6897 0.928155 0
2.42063 0.931268 0
3.5364 0.0691789 0
2.25998 0.0676208 0
1.78735 0.937047 0
4.01535 0.920637 0
1.85469 0.0674188 0
3.83991 0.0626292 0
3.37477 0.929368 0
2.58225 0.0657863 0
2.81746 0.932342 0
4.16667 0.0687322 0
2.11402 0.935574 0
0.0614266 0.197046 0
0.0612841 0.803003 0
4.88273 0.0644126 0
4.87774 0.933272 0
0.859645 0.426737 0
0.903081 0.436592 0
0.923672 0.473385 0
0.948706 0.439078 0
0.969155 0.479795 0
0.996593 0.439791 0
1.0202 0.484937 0
1.04667 0.440138 0
1.07382 0.489694 0
1.1034 0.440801 0
1.13169 0.49612 0
1.16603 0.445058 0
1.1931 0.504331 0
1.22956 0.450883 0
1.25923 0.506004 0
1.29683 0.453139 0
1.32923 0.510343 0
1.36603 0.454344 0
1.03276 0.530395 0
1.40063 0.516169 0
1.43576 0.454934 0
1.47042 0.520776 0
1.51069 0.46142 0
1.54422 0.526371 0
1.58547 0.465572 0
1.61942 0.531773 0
1.66033 0.468788 0
1.69546 0.536793 0
1.73713 0.472812 0
1.77239 0.541977 0
1.81532 0.478494 0
1.85006 0.547285 0
1.89327 0.483449 0
1.92802 0.55361 0
1.97142 0.488546 0
2.00623 0.558966 0
2.04984 0.493518 0
2.08483 0.564085 0
2.12847 0.498462 0
2.16353 0.569137 0
2.20719 0.503331 0
0.961579 0.391697 0
1.22451 0.565337 0
2.24238 0.574192 0
2.28611 0.508258 0
2.32134 0.579247 0
2.36519 0.513325 0
2.40036 0.584295 0
2.44425 0.51834 0
2.47944 0.589336 0
2.52334 0.523355 0
2.55853 0.594372 0
2.60245 0.52837 0
2.63764 0.599431 0
2.68159 0.533388 0
2.64637 0.462336 0
2.72553 0.467349 0
2.76076 0.538418 0
2.8047 0.47237 0
2.83993 0.543451 0
2.88387 0.477399 0
2.91911 0.548482 0
2.96305 0.482427 0
2.9983 0.553514 0
3.04224 0.487456 0
3.07749 0.558545 0
3.12143 0.492477 0
3.15668 0.563574 0
3.20063 0.497514 0
3.23588 0.568605 0
3.27983 0.502542 0
3.31508 0.573635 0
3.35903 0.507562 0
3.39428 0.578663 0
3.43823 0.5126 0
3.47348 0.583694 0
3.51744 0.517628 0
3.55268 0.588724 0
3.59664 0.522646 0
3.63189 0.593752 0
3.67585 0.527673 0
3.71109 0.598781 0
3.75505 0.532702 0
3.7903 0.60381 0
3.83426 0.537731 0
3.79901 0.466623 0
3.87821 0.471754 0
3.91346 0.542777 0
3.95742 0.476701 0
3.99267 0.547795 0
4.03662 0.481715 0
4.07187 0.552815 0
4.11582 0.486743 0
4.15106 0.55783 0
4.195 0.491782 0
4.23023 0.562843 0
4.27415 0.49682 0
4.30937 0.567866 0
4.35325 0.501915 0
4.38842 0.572845 0
4.43227 0.506997 0
4.46737 0.577575 0
4.51106 0.511995 0
4.54622 0.582183 0
1.13571 0.390292 0
4.47606 0.441361 0
4.55475 0.446396 0
2.32985 0.442214 0
3.5614 0.451571 0
3.08619 0.421408 0
2.09339 0.427815 0
1.42887 0.583001 0
2.84864 0.406329 0
3.32378 0.43649 0
4.23911 0.425894 0
1.54723 0.39251 0
1.77883 0.406811 0
1.33959 0.387065 0
3.92239 0.405803 0
4.08079 0.415776 0
2.48812 0.452349 0
1.57935 0.603183 0
1.93602 0.417543 0
1.72453 0.617973 0
3.11273 0.629643 0
2.69029 0.396284 0
3.94662 0.623383 0
1.88466 0.613248 0
2.79598 0.609502 0
4.10826 0.620575 0
2.04005 0.62838 0
2.95434 0.619575 0
4.51981 0.375801 0
4.59833 0.380943 0
4.63314 0.451296 0
4.26693 0.63114 0
2.19619 0.645921 0
4.4246 0.642296 0
3.27112 0.639707 0
2.35729 0.649822 0
2.51462 0.660373 0
3.42952 0.649769 0
4.67669 0.38601 0
3.58793 0.659829 0
3.74634 0.669888 0
4.64195 0.315733 0
4.44109 0.370647 0
4.48493 0.305066 0
4.40614 0.29989 0
4.71136 0.456133 0
4.72014 0.320758 0
0.8692 0.382093 0
0.841252 0.348256 0
0.886481 0.338703 0
0.853127 0.301457 0
0.902583 0.287335 0
0.801683 0.321689 0
0.818113 0.263019 0
0.764765 0.277091 0
4.44702 0.235678 0
0.946267 0.520761 0
0.78107 0.221265 0
0.726309 0.234724 0
0.848273 0.20551 0
4.68545 0.250576 0
4.37074 0.227561 0
4.76365 0.255792 0
4.79822 0.326145 0
0.713664 0.287231 0
0.672358 0.247957 0
0.68673 0.192342 0
0.630368 0.2085 0
0.616569 0.265341 0
0.574186 0.225456 0
0.557393 0.28131 0
0.52004 0.242373 0
0.504416 0.299685 0
0.462273 0.252096 0
0.44798 0.316739 0
0.404567 0.276951 0
0.390546 0.335414 0
0.434669 0.37657 0
0.377935 0.394545 0
0.421979 0.43426 0
0.365682 0.452846 0
0.409646 0.492216 0
0.353389 0.51089 0
0.397738 0.551598 0
0.339864 0.570301 0
0.385899 0.612153 0
0.325913 0.631557 0
0.344507 0.29318 0
0.320568 0.413067 0
0.373553 0.673852 0
0.434438 0.653082 0
0.311416 0.69481 0
0.449777 0.528305 0
0.293513 0.534612 0
0.421431 0.715204 0
0.480917 0.696603 0
0.54504 0.34471 0
0.262743 0.649913 0
0.246209 0.712341 0
0.468564 0.755948 0
0.526091 0.735423 0
0.538207 0.68039 0
0.581228 0.716342 0
0.408756 0.777952 0
0.36234 0.239019 0
0.297047 0.251925 0
0.572109 0.771575 0
0.624906 0.752173 0
0.474824 0.414151 0
0.534351 0.182707 0
0.633682 0.70159 0
0.674547 0.736174 0
0.66826 0.788959 0
0.721117 0.76834 0
0.714515 0.825486 0
0.769074 0.802008 0
0.775287 0.746591 0
0.821903 0.778625 0
0.826767 0.726064 0
0.873257 0.756032 0
0.872997 0.697261 0
0.92331 0.732304 0
0.930014 0.67838 0
0.976061 0.710612 0
0.92456 0.784469 0
0.982178 0.654421 0
1.03016 0.688004 0
1.02037 0.747059 0
1.08 0.723819 0
1.08651 0.661896 0
1.1397 0.698204 0
1.13262 0.763657 0
1.19424 0.736545 0
1.18556 0.80161 0
1.24839 0.771772 0
1.25723 0.706382 0
1.31432 0.745787 0
4.66801 0.521361 0
4.74602 0.526202 0
4.70285 0.591278 0
4.78076 0.596023 0
4.73763 0.661207 0
4.78904 0.460969 0
2.61113 0.391267 0
2.65506 0.325217 0
2.57588 0.320198 0
2.61982 0.254148 0
2.69899 0.259163 0
2.54065 0.249131 0
2.49672 0.315179 0
2.46148 0.244124 0
2.41757 0.310166 0
2.38233 0.239117 0
2.33843 0.30514 0
2.30297 0.237979 0
2.25928 0.300748 0
2.22079 0.221377 0
2.17969 0.293884 0
2.14114 0.224266 0
2.10047 0.289841 0
2.0653 0.219144 0
2.02202 0.284919 0
1.98701 0.214164 0
1.94336 0.279863 0
3.82315 0.673327 0
3.78135 0.738156 0
3.86451 0.735958 0
3.70234 0.735494 0
4.52513 0.244409 0
4.32717 0.294467 0
4.29217 0.221862 0
0.619934 0.539507 0
0.599432 0.577132 0
0.575955 0.542712 0
0.554504 0.58245 0
4.65962 0.656481 0
4.69438 0.726169 0
4.6161 0.721747 0
4.77259 0.731352 0
4.65076 0.791486 0
4.57153 0.788793 0
4.2482 0.289182 0
4.21307 0.218308 0
4.1691 0.284563 0
4.13394 0.21352 0
0.835918 0.606341 0
0.806475 0.6384 0
4.08995 0.279537 0
0.640355 0.426737 0
0.596214 0.435837 0
0.630358 0.379178 0
0.689967 0.627735 0
1.90832 0.209948 0
1.86468 0.27519 0
1.82968 0.20518 0
1.78607 0.269797 0
0.281841 0.313314 0
0.232117 0.268621 0
0.216861 0.334396 0
4.05473 0.209347 0
4.01077 0.2745 0
3.97554 0.204394 0
3.93159 0.269388 0
0.297409 0.759367 0
0.231645 0.782943 0
0.180008 0.73598 0
1.32151 0.676369 0
1.38055 0.718092 0
1.36901 0.793947 0
1.43945 0.766002 0
0.249902 0.198865 0
0.932364 0.624392 0
1.75117 0.201034 0
1.70771 0.264658 0
1.673 0.195402 0
1.62985 0.260294 0
1.59532 0.191927 0
1.55236 0.254233 0
3.89629 0.200227 0
3.85238 0.264494 0
3.81708 0.195303 0
3.77304 0.259453 0
2.66368 0.189084 0
2.74279 0.19534 0
2.77814 0.264556 0
2.82201 0.199823 0
2.85733 0.269552 0
2.90126 0.203886 0
2.93654 0.274416 0
2.98045 0.20868 0
3.01573 0.279376 0
3.0597 0.213193 0
[...]
CELL_DATA 2220
VECTORS velocity double
1.08261 -0.059278 0.0
1.00875 0.0822313 0.0
2.03816 0.448655 0.0
2.0832 0.209642 0.0
1.09092 -0.0900439 0.0
1.02947 -0.0676646 0.0
0.933417 0.075921 0.0
0.940512 0.000825215 0.0
1.71742 0.884702 0.0
1.01656 -0.0263058 0.0
0.956868 6.24966 0.0
0.944402 0.0865639 0.0
0.838859 0.051043 0.0
1.56178 -0.3859 0.0
1.94199 5.09744 0.0
0.603329 1.3865 0.0
1.00047 0.0593614 0.0
0.894896 0.0904056 0.0
0.948212 -0.030733 0.0
0.933288 -0.00693687 0.0
1.93959 0.299877 0.0
4.40236 -1.62059 0.0
0.935494 0.0865411 0.0
0.943571 0.0971142 0.0
0.977959 -0.056852 0.0
1.52647 -0.271318 0.0
2.0825 -0.136732 0.0
0.904063 0.105748 0.0
2.04283 0.173629 0.0
2.09985 0.152955 0.0
0.718681 -0.240488 0.0
2.54112 0.109557 0.0
0.85956 -0.0358879 0.0
2.80788 -2.72805 0.0
3.39844 0.132097 0.0
1.04703 -0.0637775 0.0
3.7459 0.276551 0.0
0.847275 -0.012448 0.0
2.11514 0.198887 0.0
2.45147 -0.110309 0.0
1.65955 -0.0743581 0.0
1.64793 0.714011 0.0
1.94297 0.206921 0.0
0.925814 0.000212078 0.0
0.906302 0.0238848 0.0
0.862405 0.00791233 0.0
0.938215 0.097712 0.0
0.865014 -0.0054173 0.0
1.03104 -0.0311268 0.0
1.00379 -0.0140095 0.0
1.73322 0.226619 0.0
0.815642 -0.00820665 0.0
0.94315 0.108264 0.0
0.880039 -0.0050567 0.0
0.917167 0.0595068 0.0
2.45333 -0.120086 0.0
2.66515 0.0402875 0.0
0.878961 0.0881224 0.0
0.899406 0.102186 0.0
1.05016 -0.0282568 0.0
0.649181 -0.0782084 0.0
1.01831 -0.0863976 0.0
0.840591 -0.314028 0.0
0.938268 0.114818 0.0
0.940592 0.0763785 0.0
2.70117 -1.74165 0.0
1.92318 -0.184224 0.0
0.907211 1.03846 0.0
0.912807 0.0873151 0.0
0.897841 0.116 0.0
0.877227 0.0446676 0.0
2.81625 2.18638 0.0
0.816347 0.0512601 0.0
1.00802 0.0285037 0.0
12.8066 -1.25931 0.0
2.69459 0.0208036 0.0
0.988848 0.247588 0.0
1.26806 -0.15223 0.0
1.34034 0.717337 0.0
0.913955 0.0336097 0.0
2.11579 0.200816 0.0
2.48325 0.168433 0.0
1.76869 -0.0719904 0.0
0.85771 0.0385391 0.0
0.938097 0.0916867 0.0
0.931925 0.0465912 0.0
1.07788 -0.0941407 0.0
0.884073 0.0500147 0.0
0.875829 0.0730992 0.0
1.89729 1.01422 0.0
19.0931 -3.83389 0.0
1.53831 0.308512 0.0
0.91668 -0.0262698 0.0
1.39377 0.305744 0.0
2.46986 0.104909 0.0
2.52675 0.148944 0.0
5.08338 1.30127 0.0
-3.34848 -10.4196 0.0
0.762567 -0.104426 0.0
2.36679 2.85499 0.0
-8.92339 -14.8105 0.0
1.29842 -0.18497 0.0
0.930274 0.104293 0.0
0.957235 0.0979009 0.0
3.75727 -1.03269 0.0
3.00221 -0.0563092 0.0
1.00918 -0.064841 0.0
1.02918 -0.0746053 0.0
0.518268 -0.0238824 0.0
0.992463 0.0943191 0.0
2.14382 0.10419 0.0
1.86428 -0.549875 0.0
0.996831 -0.0284972 0.0
1.50826 -0.0747462 0.0
1.0975 -0.118972 0.0
0.886133 0.10272 0.0
1.43861 -0.255956 0.0
1.93122 -0.124279 0.0
-2.0178 -18.016 0.0
2.01709 0.874197 0.0
1.21081 -0.151679 0.0
2.03218 -0.0590282 0.0
1.45424 0.226172 0.0
5.78808 -3.54838 0.0
2.9518 -0.0431292 0.0
-0.52236 -2.29551 0.0
3.41005 -0.241543 0.0
2.02318 0.188418 0.0
1.50228 -0.450587 0.0
-5.78406 3.62898 0.0
0.903316 -0.00460885 0.0
8.83741 2.60015 0.0
13.3071 4.78996 0.0
1.00856 0.0301734 0.0
2.14643 0.216887 0.0
1.00605 0.0116417 0.0
0.854581 -0.00370095 0.0
1.84048 -0.180318 0.0
0.0701959 -2.26275 0.0
2.43293 0.14567 0.0
1.84227 -0.288817 0.0
0.937977 -0.00998333 0.0
1.10138 -0.167216 0.0
2.79381 -0.150224 0.0
1.01398 0.0206084 0.0
1.42594 0.284586 0.0
-10.6108 5.4702 0.0
-1.20373 -11.2746 0.0
1.18449 0.100474 0.0
1.0207 -0.0911258 0.0
0.959809 0.0271503 0.0
2.0227 0.740486 0.0
2.12399 0.0147361 0.0
5.931 -5.05328 0.0
0.980846 0.0443033 0.0
1.05478 0.0363374 0.0
2.09687 -0.256796 0.0
1.04386 0.0315312 0.0
1.70949 -0.173777 0.0
1.48961 -0.207055 0.0
7.61047 4.52047 0.0
0.895968 0.00481431 0.0
-10.7764 -5.68969 0.0
2.49079 -0.0527412 0.0
0.836005 0.00541986 0.0
3.31929 -3.14592 0.0
1.30931 -2.75768 0.0
3.05527 0.0429062 0.0
1.04954 0.0210723 0.0
11.0601 8.66131 0.0
-7.82095 9.47323 0.0
0.893063 0.0308661 0.0
0.920263 -0.00932508 0.0
-6.02567 -3.87096 0.0
-1.64123 -1.02468 0.0
1.27077 0.603988 0.0
0.914488 0.275979 0.0
1.06579 0.616354 0.0
1.12703 -0.11721 0.0
0.999608 0.0205792 0.0
2.08708 -0.0248567 0.0
1.63424 -0.211708 0.0
11.6782 -15.1233 0.0
-3.74382 6.00113 0.0
0.9895 0.016983 0.0
0.910364 -0.118944 0.0
3.63706 0.0741429 0.0
0.853292 -0.00948318 0.0
4.6707 0.862109 0.0
3.06739 0.0518041 0.0
1.79169 -0.219695 0.0
0.880292 -0.0336154 0.0
1.78549 -0.64484 0.0
1.18212 0.0781422 0.0
2.11505 -0.0936568 0.0
3.64972 -0.00785351 0.0
0.984769 0.0346314 0.0
0.906254 -0.0138606 0.0
1.03935 -0.046498 0.0
1.00032 0.0225523 0.0
0.996324 -0.00478793 0.0
0.960277 0.00309894 0.0
3.49088 -2.13207 0.0
0.929914 0.0322606 0.0
1.66649 0.10268 0.0
1.2409 -0.176325 0.0
2.04245 -0.200723 0.0
0.952566 0.0345369 0.0
1.03584 -0.0259303 0.0
0.902364 -0.0696607 0.0
0.933716 0.0774333 0.0
1.76124 13.256 0.0
0.979935 -0.0159675 0.0
1.27712 0.900135 0.0
1.06834 0.290275 0.0
0.949289 -0.00619819 0.0
0.882767 0.0734814 0.0
0.975096 0.0863071 0.0
1.31258 0.117857 0.0
12.4681 0.786626 0.0
1.02084 0.00375519 0.0
0.679618 -0.0290977 0.0
0.918856 0.078692 0.0
0.686201 0.00033872 0.0
0.957824 0.00309308 0.0
0.953657 0.00111171 0.0
1.16616 -0.112788 0.0
2.48953 7.17648 0.0
2.14763 -0.342551 0.0
1.55366 0.105193 0.0
1.02799 -0.00749725 0.0
1.05196 -0.0358917 0.0
0.86352 -0.0169968 0.0
0.969386 -0.00349258 0.0
1.5567 -0.0527219 0.0
2.45203 0.0578314 0.0
-2.15111 -1.69603 0.0
0.933152 -0.0306108 0.0
0.924636 -0.0376004 0.0
0.928725 -0.0137547 0.0
2.61383 -0.186717 0.0
3.9073 2.24512 0.0
3.30439 -0.409703 0.0
0.818233 0.0179912 0.0
1.00908 0.0262235 0.0
1.01664 -0.0124476 0.0
0.94985 0.0121039 0.0
2.00523 -0.0849446 0.0
0.999892 0.0485475 0.0
2.09381 0.18977 0.0
1.04235 -0.0089549 0.0
0.82214 -0.00516562 0.0
0.983694 -2.45943 0.0
1.05743 -0.0102281 0.0
1.02571 -0.457077 0.0
0.93131 0.0583701 0.0
-10.0821 1.02825 0.0
1.01846 -0.00668222 0.0
2.19505 0.0695641 0.0
2.37772 0.0617535 0.0
0.959074 -0.0487228 0.0
2.06122 -0.0190873 0.0
1.49516 0.121874 0.0
1.64214 -0.28437 0.0
0.771336 -0.0216392 0.0
1.43713 0.0099527 0.0
0.916865 -0.00568419 0.0
-0.560371 -0.72187 0.0
1.71186 0.32392 0.0
1.01807 -0.0135713 0.0
1.03006 0.030598 0.0
1.16478 0.010333 0.0
0.878117 0.0524344 0.0
1.08433 -0.0795647 0.0
-3.33881 -3.8513 0.0
3.11275 -0.145144 0.0
8.0747 -10.4605 0.0
0.277148 -0.245714 0.0
1.26985 0.161161 0.0
1.67051 0.0106267 0.0
-1.3343 -4.66045 0.0
2.30978 -0.0232852 0.0
2.70456 0.104091 0.0
1.00697 0.0335418 0.0
1.06104 -0.0748012 0.0
0.950159 -0.00126293 0.0
2.58783 -0.143483 0.0
0.969319 0.040566 0.0
0.886328 -0.0264133 0.0
0.881762 -0.0294988 0.0
-10.0447 -1.15538 0.0
1.00935 -0.0414189 0.0
1.00813 0.116882 0.0
1.0541 -0.0253805 0.0
1.05515 -0.064118 0.0
0.976675 -0.0163461 0.0
0.964701 -0.0199896 0.0
1.95462 0.0403637 0.0
3.11494 -0.268611 0.0
1.07882 0.260379 0.0
0.87505 0.0015683 0.0
1.2956 0.497151 0.0
1.8541 -0.429813 0.0
1.37833 0.0191217 0.0
0.797537 -1.66604 0.0
1.04622 0.0216515 0.0
0.870979 0.00223597 0.0
0.877888 -0.0351874 0.0
1.76821 0.052592 0.0
0.907135 0.0861382 0.0
1.50985 0.145681 0.0
0.839823 0.0255038 0.0
-3.26168 10.6465 0.0
2.86791 0.0239319 0.0
3.19544 2.8472 0.0
0.93028 -0.0290668 0.0
1.04515 0.463935 0.0
1.61735 0.0504952 0.0
2.4558 -0.109151 0.0
1.14175 0.286248 0.0
7.54932 10.0583 0.0
1.50746 0.169932 0.0
1.01417 -0.00418881 0.0
1.65656 -0.0210761 0.0
0.852804 0.0183493 0.0
1.38905 -0.0946207 0.0
1.17952 0.0288519 0.0
1.0337 0.0353901 0.0
1.01643 0.00303123 0.0
1.25013 -0.11044 0.0
0.967904 -1.21527 0.0
2.95138 -0.121565 0.0
0.515876 -0.365903 0.0
1.5119 -0.0772846 0.0
2.42251 -1.13569 0.0
2.51652 -0.178982 0.0
2.17925 -0.173629 0.0
1.4141 0.480812 0.0
2.06062 -0.106381 0.0
0.926075 -0.0362578 0.0
1.13409 0.0536861 0.0
0.901326 -0.0404268 0.0
1.07412 0.00124752 0.0
0.957949 -0.0326292 0.0
5.59191 10.9511 0.0
1.52757 0.647605 0.0
0.922555 0.0144106 0.0
1.28457 0.348011 0.0
1.16107 0.156891 0.0
0.791776 -0.0513194 0.0
2.62633 -0.739477 0.0
0.751915 0.0331885 0.0
1.09799 0.010702 0.0
-0.0173956 1.60813 0.0
0.802315 0.0699814 0.0
2.5356 -0.0595874 0.0
2.77778 -1.08671 0.0
0.533534 -0.0172215 0.0
1.02547 0.0163477 0.0
2.33842 -0.191458 0.0
1.19907 0.14777 0.0
-1.42787 11.3804 0.0
1.7681 0.446165 0.0
1.21032 0.230309 0.0
0.99626 0.069279 0.0
1.09618 0.0137242 0.0
4.15418 1.28624 0.0
0.702781 -0.0625192 0.0
1.03843 -0.0381235 0.0
2.07449 -0.0919072 0.0
0.731507 0.0537314 0.0
4.32563 -1.11185 0.0
2.7898 1.28397 0.0
1.04389 -0.00844079 0.0
0.67147 -0.00804792 0.0
1.65998 0.087336 0.0
1.10371 0.0335372 0.0
1.01122 0.01478 0.0
2.37198 -0.00484947 0.0
0.997259 -0.012666 0.0
1.75348 0.0241968 0.0
2.49484 0.134557 0.0
2.57354 -0.132555 0.0
1.02212 -0.00310705 0.0
2.38303 0.143989 0.0
1.05064 0.00147417 0.0
3.18985 -0.49479 0.0
1.01722 -0.00362944 0.0
1.70813 -0.378892 0.0
1.17843 0.102598 0.0
1.46776 0.122846 0.0
1.10646 0.0243637 0.0
2.03345 -0.101778 0.0
0.901196 -0.456908 0.0
1.46102 -0.163583 0.0
1.11824 -0.101843 0.0
2.32214 0.06805 0.0
1.43848 0.0888973 0.0
1.02045 -3.14864e-05 0.0
2.28391 0.134803 0.0
1.38357 0.0543112 0.0
2.28169 0.325675 0.0
1.21741 0.185457 0.0
1.02025 -0.00398048 0.0
3.91833 1.38796 0.0
3.56585 0.497699 0.0
0.867706 0.0148911 0.0
0.842753 0.0703214 0.0
2.25857 0.0573795 0.0
2.01551 -1.41117 0.0
-0.119954 -3.13771 0.0
0.910558 0.0336817 0.0
2.55838 0.12902 0.0
1.04946 -0.343586 0.0
2.31992 -0.100799 0.0
1.01534 -0.00681552 0.0
1.15477 -0.031778 0.0
0.614142 0.0474371 0.0
1.77757 0.662402 0.0
1.04649 0.0430687 0.0
1.20749 0.351909 0.0
2.23768 0.116947 0.0
1.11146 0.00828503 0.0
1.04553 -0.0128427 0.0
1.19348 0.127505 0.0
1.01398 0.00376802 0.0
1.11279 0.0373024 0.0
1.06036 -0.0225853 0.0
1.02189 0.00508423 0.0
0.870649 -0.0559267 0.0
1.02224 -4.51346e-06 0.0
1.21175 0.131277 0.0
2.39584 -0.161913 0.0
1.13352 0.112255 0.0
1.46542 -0.160739 0.0
4.63796 1.19966 0.0
0.88644 -0.0393849 0.0
1.43814 0.081501 0.0
0.726819 -1.09377 0.0
1.06736 0.0893433 0.0
1.25407 0.185497 0.0
1.16711 0.111503 0.0
3.03397 0.375505 0.0
3.26999 0.191131 0.0
1.65763 -0.186099 0.0
1.87786 0.234421 0.0
2.23225 0.121346 0.0
0.569338 -0.0238191 0.0
0.532524 0.0351713 0.0
0.923933 0.00489429 0.0
1.74158 0.177937 0.0
1.01896 -0.039217 0.0
1.48605 -0.0883613 0.0
2.03583 0.0851154 0.0
1.06374 0.0597586 0.0
0.756841 0.0691475 0.0
1.69273 0.11186 0.0
1.26089 0.27733 0.0
1.41034 0.0660919 0.0
1.07876 0.0798382 0.0
1.17048 0.103484 0.0
1.01506 0.00241274 0.0
1.12587 -0.0754443 0.0
0.915644 0.0524079 0.0
1.2574 0.0513704 0.0
0.970679 0.0132564 0.0
0.877386 0.00486645 0.0
1.02602 0.00420725 0.0
1.10549 0.0253361 0.0
3.00813 -0.00119385 0.0
0.767909 0.00651876 0.0
0.54758 0.0357255 0.0
1.83448 -0.22782 0.0
1.37191 0.401131 0.0
0.81688 -0.0484372 0.0
1.01529 0.000545259 0.0
1.11529 0.0929862 0.0
2.15618 0.252131 0.0
1.02936 0.00902481 0.0
1.12169 0.0892523 0.0
1.15203 -0.119241 0.0
2.5 -0.790105 0.0
1.11996 -0.1451 0.0
1.06859 0.0690058 0.0
1.30677 -0.135166 0.0
1.34291 0.148672 0.0
2.25298 -0.00592937 0.0
0.478652 0.0377371 0.0
2.54215 -0.134522 0.0
1.01716 0.0198252 0.0
1.03713 0.0102523 0.0
0.502726 0.038694 0.0
0.590105 -0.0303059 0.0
1.05595 0.0609614 0.0
1.50652 0.544468 0.0
1.05323 -0.0340099 0.0
1.98965 -0.0864587 0.0
1.12463 0.0213885 0.0
2.01237 -0.0819873 0.0
1.04553 -0.0227105 0.0
1.01985 -0.013388 0.0
1.19135 0.115421 0.0
0.50669 -0.00552751 0.0
1.03929 0.0444027 0.0
1.03139 0.00250766 0.0
0.932787 -0.00162282 0.0
1.02152 -0.00137483 0.0
0.922276 -0.0703094 0.0
1.00583 0.0701073 0.0
1.23779 0.159797 0.0
1.02207 -0.0140459 0.0
1.03723 -0.0335511 0.0
0.952231 -0.0277399 0.0
1.02904 -0.00619371 0.0
1.0346 0.00730164 0.0
1.00251 -0.242033 0.0
0.657833 -0.00500955 0.0
1.02428 0.00835328 0.0
1.14538 -0.165669 0.0
1.09285 0.077647 0.0
1.02927 0.000790329 0.0
0.888347 -0.00519692 0.0
2.45887 -1.67516 0.0
0.936782 -0.033181 0.0
1.85927 -2.13438 0.0
1.02943 -0.041446 0.0
1.13581 0.191661 0.0
1.02573 -0.00383077 0.0
0.674688 -0.00648569 0.0
1.03035 0.0250326 0.0
1.02898 -0.00465615 0.0
1.05024 0.0632057 0.0
1.03903 0.00765639 0.0
1.14572 0.0922534 0.0
1.02589 0.0154716 0.0
2.04415 -0.142141 0.0
2.34808 -0.231546 0.0
0.947426 -0.0157982 0.0
2.30798 -0.136116 0.0
0.871288 -0.0145232 0.0
1.03971 -0.0121557 0.0
1.00083 -0.0530455 0.0
2.92874 0.928169 0.0
1.03994 0.00591555 0.0
0.826426 -0.0695335 0.0
0.836872 0.0761611 0.0
1.01984 0.00808726 0.0
2.28168 0.124928 0.0
1.0194 0.0156002 0.0
1.0383 0.00120945 0.0
0.556317 0.0111508 0.0
0.752352 -0.00154645 0.0
0.676384 0.00976007 0.0
0.656338 0.0103369 0.0
0.89213 -0.0265906 0.0
1.13674 -0.266657 0.0
1.04083 0.00712907 0.0
3.23027 0.659921 0.0
0.429034 0.0130163 0.0
1.01078 -0.0100866 0.0
1.015 -0.0103267 0.0
1.05165 -0.0193259 0.0
1.024 0.010545 0.0
0.447044 -0.0287744 0.0
0.670437 -0.0282299 0.0
1.11841 0.0426401 0.0
1.92652 0.150334 0.0
1.0338 0.0427383 0.0
0.986541 0.00497937 0.0
1.0291 0.00790229 0.0
2.76944 0.0340455 0.0
1.02667 0.00112019 0.0
1.02422 0.00351356 0.0
1.03674 0.0011247 0.0
1.14963 -0.086485 0.0
1.2296 0.418795 0.0
1.01354 0.00273241 0.0
1.01657 0.00437045 0.0
1.01416 -0.000581033 0.0
1.03697 -0.0139556 0.0
1.1297 0.0381681 0.0
1.00374 0.00802203 0.0
0.673028 0.000328997 0.0
0.993559 0.10439 0.0
0.977747 0.0186664 0.0
1.01149 0.013277 0.0
1.02412 0.0225853 0.0
1.02194 -0.00347069 0.0
1.01852 0.00163523 0.0
1.0206 -0.00204411 0.0
0.457482 0.0347354 0.0
0.699801 0.0555847 0.0
0.67407 -0.00112381 0.0
1.00198 0.0161133 0.0
1.01457 0.0043835 0.0
2.80923 -0.193323 0.0
0.659435 -0.00437935 0.0
1.02734 -0.00677466 0.0
1.02475 -0.00263011 0.0
0.993397 0.0295893 0.0
1.00755 0.0121211 0.0
0.432095 -0.0058556 0.0
0.992532 0.00361313 0.0
1.03259 -0.00242894 0.0
1.05148 -0.00551136 0.0
0.980914 -0.0176099 0.0
0.97002 -0.0187699 0.0
0.988202 -0.00488402 0.0
1.10298 -0.0331504 0.0
2.94879 -0.0323959 0.0
1.00054 0.0126105 0.0
1.02168 -0.0143364 0.0
1.01772 0.0103 0.0
1.01079 0.0121245 0.0
0.953134 0.0287475 0.0
1.0146 0.0093955 0.0
1.06684 -0.10576 0.0
1.02645 -0.000506779 0.0
0.734927 0.00180518 0.0
1.02633 0.000168825 0.0
0.45284 -0.000986739 0.0
1.00975 0.0111928 0.0
1.00248 0.0214728 0.0
1.0075 0.0143888 0.0
0.43311 -0.00393759 0.0
2.24602 -1.08382 0.0
1.03129 0.00329054 0.0
1.01905 0.00378918 0.0
0.989815 0.00246367 0.0
1.02156 -0.00654061 0.0
1.02703 0.0148793 0.0
1.00088 0.019492 0.0
1.00953 0.00760616 0.0
1.03961 0.00806877 0.0
1.01243 0.0234871 0.0
0.467459 0.00717994 0.0
0.922994 0.0171834 0.0
1.00398 0.0037972 0.0
0.888017 0.788189 0.0
0.449968 -0.00823932 0.0
0.670415 -0.00835013 0.0
1.52038 -1.32599 0.0
1.02213 -0.00330991 0.0
1.02014 0.0174299 0.0
0.866535 -0.0104001 0.0
0.999005 -0.00711519 0.0
0.998868 -0.00408726 0.0
1.02427 0.0106944 0.0
0.719597 0.0217235 0.0
0.452918 -8.91103e-05 0.0
1.07988 -0.142912 0.0
1.01795 0.0045231 0.0
1.02498 -0.0108729 0.0
1.00665 0.0156157 0.0
1.55771 -0.115089 0.0
1.03163 0.0213268 0.0
1.01067 0.0213364 0.0
1.01243 -0.00167039 0.0
0.439191 0.0005175 0.0
1.03834 0.0144728 0.0
1.01801 -0.000710166 0.0
0.445954 -0.0103059 0.0
1.02971 0.0285977 0.0
1.0416 0.00729348 0.0
1.00642 0.0238169 0.0
1.03924 -0.00352488 0.0
1.00087 -0.00744556 0.0
1.02177 0.0021218 0.0
1.0434 -0.015009 0.0
1.02685 -0.0119111 0.0
1.04676 0.00565518 0.0
1.03181 -0.00932483 0.0
1.00148 -0.00946892 0.0
0.454365 -0.00170613 0.0
1.01846 -0.00377811 0.0
1.00408 -0.0109497 0.0
0.563925 0.00847619 0.0
1.01463 0.000782785 0.0
0.762436 0.0271323 0.0
1.04519 0.0120136 0.0
1.00334 -0.00930071 0.0
1.00527 0.0245588 0.0
1.02991 -0.0103271 0.0
1.02598 -0.00519153 0.0
1.00294 0.0228363 0.0
0.931578 0.0452473 0.0
1.05174 -0.0134001 0.0
1.04008 -0.0121334 0.0
1.05864 0.00905422 0.0
0.427543 -0.00930279 0.0
1.00114 0.0182868 0.0
1.04681 -0.0049889 0.0
1.03808 -0.00699338 0.0
1.14485 -0.0992105 0.0
1.00685 0.015918 0.0
1.13749 0.0521549 0.0
1.01621 -0.00779288 0.0
1.03363 -0.0125987 0.0
1.00405 0.0204546 0.0
0.992085 -0.00531258 0.0
1.0066 -0.0116638 0.0
1.021 0.0336282 0.0
1.01286 -0.00378581 0.0
3.41885 1.89094 0.0
1.0518 0.00642525 0.0
1.01597 0.00611526 0.0
1.00857 0.0224816 0.0
1.00699 0.0183773 0.0
1.00771 0.0260935 0.0
1.00563 -0.0101883 0.0
1.01233 0.0260468 0.0
1.03896 -0.0131635 0.0
1.02062 0.0218222 0.0
0.99785 0.00033257 0.0
1.02892 -0.0149785 0.0
0.960042 0.0444819 0.0
1.0004 0.0169622 0.0
1.01664 0.0278658 0.0
1.05853 -0.000142618 0.0
1.01576 0.0206399 0.0
1.0084 -0.00990336 0.0
1.01047 -0.0109204 0.0
0.483752 0.0093444 0.0
1.02059 -0.00694987 0.0
1.00867 0.0206375 0.0
1.0225 0.0261105 0.0
0.997484 0.0186955 0.0
0.751099 0.017083 0.0
1.01716 -0.0104183 0.0
1.0245 0.0162511 0.0
1.05898 -0.0163491 0.0
0.986583 -0.00900943 0.0
1.01462 -0.00662784 0.0
1.03333 0.00859428 0.0
1.01216 -0.00763397 0.0
1.04019 -0.0200869 0.0
1.00712 0.0197173 0.0
1.01002 -0.00140744 0.0
1.02863 0.0295942 0.0
1.01551 0.00994753 0.0
0.936617 -0.00808827 0.0
1.01467 -0.00519053 0.0
1.00427 -0.0213988 0.0
0.48998 0.014848 0.0
0.697597 0.0317144 0.0
1.01464 -0.00281369 0.0
1.01571 0.0327499 0.0
1.0024 -0.0133301 0.0
1.01576 -0.000184607 0.0
1.03069 0.0162431 0.0
0.996298 -0.0093168 0.0
1.01301 -0.0075752 0.0
1.01355 0.00615495 0.0
0.987921 -0.0117564 0.0
0.992792 -0.00937487 0.0
1.03591 0.0225632 0.0
0.982479 -0.00994252 0.0
1.06975 0.0492808 0.0
1.00516 -0.0152637 0.0
1.00526 -0.00926483 0.0
0.996705 -0.0119628 0.0
0.992198 -0.0140854 0.0
1.00575 0.0216651 0.0
1.01411 0.0027138 0.0
0.589967 0.0252436 0.0
0.777015 0.0401712 0.0
1.03844 0.00505807 0.0
1.0367 -0.00224671 0.0
1.04177 0.0406462 0.0
1.01661 0.0077802 0.0
1.01294 -0.0102384 0.0
1.01199 0.0239935 0.0
1.00771 0.0111568 0.0
1.01081 0.017872 0.0
1.01762 -0.00395911 0.0
0.994477 -0.0163958 0.0
1.00608 -0.0201462 0.0
1.01911 -0.0151072 0.0
1.01068 0.00737489 0.0
1.04483 0.0246459 0.0
1.00896 -0.00339582 0.0
0.999596 -0.0139303 0.0
2.15361 0.675499 0.0
0.9863 -0.0148138 0.0
1.00201 -0.016526 0.0
0.995087 -0.022189 0.0
1.02439 -0.000400036 0.0
0.998452 0.0112183 0.0
1.00381 0.00898659 0.0
1.01112 -0.0152337 0.0
0.982087 -0.0126601 0.0
1.01864 0.00436239 0.0
1.02673 0.0356452 0.0
1.00136 -0.030815 0.0
1.01536 -0.0158426 0.0
0.990285 0.00386237 0.0
1.01164 0.032569 0.0
1.00164 0.0180312 0.0
1.01563 -0.0243403 0.0
0.951065 0.0194309 0.0
0.989304 -0.0167635 0.0
0.995761 0.00517821 0.0
1.02132 -0.00628753 0.0
1.01968 -0.00645825 0.0
0.979116 -0.0149432 0.0
0.445758 -0.00940438 0.0
0.674049 -0.0161968 0.0
0.980852 0.0582968 0.0
1.00118 -0.00797874 0.0
1.01935 -0.000770107 0.0
0.984294 -0.00556139 0.0
0.990095 -0.00264031 0.0
1.01912 0.00691045 0.0
0.753833 0.0350948 0.0
1.05128 0.0400476 0.0
0.672398 -0.0154692 0.0
1.04843 0.00934173 0.0
0.983769 -0.0158766 0.0
0.989516 -0.0206934 0.0
1.00891 0.014723 0.0
0.987989 -0.0324998 0.0
1.05619 0.00110488 0.0
0.994831 0.0170617 0.0
0.450101 -0.00681271 0.0
0.671295 -0.0136975 0.0
1.01725 -0.00912276 0.0
0.496777 0.0183123 0.0
0.985739 -0.0125109 0.0
1.00642 -0.0358131 0.0
1.01949 -0.0149784 0.0
1.0135 0.0130497 0.0
0.996411 0.00327506 0.0
1.08046 0.00903897 0.0
0.98203 0.00993406 0.0
0.974463 -0.00456323 0.0
0.675187 -0.0128563 0.0
0.464361 -0.00802307 0.0
0.928567 0.0466416 0.0
1.0169 0.00419099 0.0
1.00063 0.0205514 0.0
0.99949 -0.0115264 0.0
0.986076 0.0217544 0.0
1.01973 0.00370113 0.0
0.946826 0.0540363 0.0
0.969307 0.00562235 0.0
0.988948 -0.020452 0.0
0.976673 -0.0160147 0.0
0.717387 0.0226116 0.0
0.435656 -0.00301972 0.0
0.385115 -0.0117065 0.0
0.444199 -0.00885743 0.0
0.668465 -0.00770246 0.0
0.737649 0.0370367 0.0
0.418286 5.35483e-05 0.0
0.462792 0.00321377 0.0
0.674282 -0.0191311 0.0
0.442281 -0.010603 0.0
0.463871 -0.00553532 0.0
0.500707 0.0154207 0.0
0.668154 -0.0190137 0.0
0.487013 0.0149507 0.0
0.661615 -0.00467484 0.0
0.47309 0.0131717 0.0
0.699496 -0.0119792 0.0
0.689768 0.00876492 0.0
0.442677 0.0268332 0.0
0.760968 0.0158678 0.0
0.671795 -0.0178939 0.0
0.657183 -0.00966881 0.0
0.449343 0.0328466 0.0
0.681549 0.00147592 0.0
0.692858 0.0454508 0.0
0.449438 0.0095648 0.0
0.676322 -0.0140937 0.0
0.470653 0.0104454 0.0
0.446651 0.0197624 0.0
0.64452 -0.018752 0.0
0.456001 0.0150311 0.0
0.555002 0.0125317 0.0
0.467659 0.0374065 0.0
0.424926 0.025456 0.0
0.438027 -0.00624858 0.0
0.687088 0.00423733 0.0
0.4489 -0.0112975 0.0
0.453168 -0.00638655 0.0
0.46544 0.0138239 0.0