# vtk DataFile Version 3.0
Malha 2D com triângulos e temperatura
ASCII
DATASET UNSTRUCTURED_GRID

POINTS 1194 double
0 0 0
5 0 0
5 1 0
0 1 0
0.85 0.5 0
0.842388 0.538268 0
0.820711 0.570711 0
0.788268 0.592388 0
0.75 0.6 0
0.711732 0.592388 0
0.679289 0.570711 0
0.657612 0.538268 0
0.65 0.5 0
0.657612 0.461732 0
0.679289 0.429289 0
0.711732 0.407612 0
0.75 0.4 0
0.788268 0.407612 0
0.820711 0.429289 0
0.842388 0.461732 0
0.0793651 0 0
0.15873 0 0
0.238095 0 0
0.31746 0 0
0.396825 0 0
0.47619 0 0
0.555556 0 0
0.634921 0 0
0.714286 0 0
0.793651 0 0
0.873016 0 0
0.952381 0 0
1.03175 0 0
1.11111 0 0
1.19048 0 0
1.26984 0 0
1.34921 0 0
1.42857 0 0
1.50794 0 0
1.5873 0 0
1.66667 0 0
1.74603 0 0
1.8254 0 0
1.90476 0 0
1.98413 0 0
2.06349 0 0
2.14286 0 0
2.22222 0 0
2.30159 0 0
2.38095 0 0
2.46032 0 0
2.53968 0 0
2.61905 0 0
2.69841 0 0
2.77778 0 0
2.85714 0 0
2.93651 0 0
3.01587 0 0
3.09524 0 0
3.1746 0 0
3.25397 0 0
3.33333 0 0
3.4127 0 0
3.49206 0 0
3.57143 0 0
3.65079 0 0
3.73016 0 0
3.80952 0 0
3.88889 0 0
3.96825 0 0
4.04762 0 0
4.12698 0 0
4.20635 0 0
4.28571 0 0
4.36508 0 0
4.44444 0 0
4.52381 0 0
4.60317 0 0
4.68254 0 0
4.7619 0 0
4.84127 0 0
4.92063 0 0
5 0.0769231 0
5 0.153846 0
5 0.230769 0
5 0.307692 0
5 0.384615 0
5 0.461538 0
5 0.538462 0
5 0.615385 0
5 0.692308 0
5 0.769231 0
5 0.846154 0
5 0.923077 0
4.92063 1 0
4.84127 1 0
4.7619 1 0
4.68254 1 0
4.60317 1 0
4.52381 1 0
4.44444 1 0
4.36508 1 0
4.28571 1 0
4.20635 1 0
4.12698 1 0
4.04762 1 0
3.96825 1 0
3.88889 1 0
3.80952 1 0
3.73016 1 0
3.65079 1 0
3.57143 1 0
3.49206 1 0
3.4127 1 0
3.33333 1 0
3.25397 1 0
3.1746 1 0
3.09524 1 0
3.01587 1 0
2.93651 1 0
2.85714 1 0
2.77778 1 0
2.69841 1 0
2.61905 1 0
2.53968 1 0
2.46032 1 0
2.38095 1 0
2.30159 1 0
2.22222 1 0
2.14286 1 0
2.06349 1 0
1.98413 1 0
1.90476 1 0
1.8254 1 0
1.74603 1 0
1.66667 1 0
1.5873 1 0
1.50794 1 0
1.42857 1 0
1.34921 1 0
1.26984 1 0
1.19048 1 0
1.11111 1 0
1.03175 1 0
0.952381 1 0
0.873016 1 0
0.793651 1 0
0.714286 1 0
0.634921 1 0
0.555556 1 0
0.47619 1 0
0.396825 1 0
0.31746 1 0
0.238095 1 0
0.15873 1 0
0.0793651 1 0
0 0.923077 0
0 0.846154 0
0 0.769231 0
0 0.692308 0
0 0.615385 0
0 0.538462 0
0 0.461538 0
0 0.384615 0
0 0.307692 0
0 0.230769 0
0 0.153846 0
0 0.0769231 0
0.879698 0.466718 0
1.3085 0.931947 0
1.30532 0.0638546 0
4.93832 0.504275 0
0.620452 0.46964 0
3.99858 0.0669607 0
1.63721 0.934258 0
3.3751 0.0523709 0
4.3254 0.0687322 0
2.42354 0.0642082 0
2.97619 0.0687322 0
2.02101 0.0693621 0
3.68108 0.0581336 0
2.65899 0.932655 0
4.178 0.939994 0
3.21614 0.938179 0
2.25483 0.919987 0
3.53215 0.928998 0
3.84921 0.931268 0
1.69647 0.0674297 0
1.94349 0.930209 0
4.48413 0.931268 0
2.97813 0.942022 0
2.74097 0.0673855 0
0.859645 0.573263 0
0.639718 0.573116 0
0.0651563 0.652836 0
0.0635304 0.346121 0
4.56232 0.0679683 0
0.830393 0.392645 0
0.669618 0.39275 0
1.06185 0.0668897 0
0.440193 0.0680031 0
1.06474 0.93511 0
0.446074 0.935974 0
0.724697 0.630698 0
4.72268 0.931235 0
4.93065 0.267192 0
0.589836 0.936152 0
0.92338 0.0562425 0
0.590207 0.0623339 0
0.755872 0.0732784 0
0.838039 0.936714 0
4.92573 0.732039 0
0.281717 0.93783 0
0.28208 0.0811877 0
0.065248 0.503161 0
1.46076 0.0637037 0
4.72574 0.0661877 0
4.31028 0.937908 0
3.21429 0.0687322 0
1.46639 0.932632 0
3.6897 0.928155 0
2.42063 0.931268 0
3.5364 0.0691789 0
2.25998 0.0676208 0
1.78735 0.937047 0
4.01535 0.920637 0
1.85469 0.0674188 0
3.83991 0.0626292 0
3.37477 0.929368 0
2.58225 0.0657863 0
2.81746 0.932342 0
4.16667 0.0687322 0
2.11402 0.935574 0
0.0614266 0.197046 0
0.0612841 0.803003 0
4.88273 0.0644126 0
4.87774 0.933272 0
0.859645 0.426737 0
0.903081 0.436592 0
0.923672 0.473385 0
0.948706 0.439078 0
0.969155 0.479795 0
0.996593 0.439791 0
1.0202 0.484937 0
1.04667 0.440138 0
1.07382 0.489694 0
1.1034 0.440801 0
1.13169 0.49612 0
1.16603 0.445058 0
1.1931 0.504331 0
1.22956 0.450883 0
1.25923 0.506004 0
1.29683 0.453139 0
1.32923 0.510343 0
1.36603 0.454344 0
1.03276 0.530395 0
1.40063 0.516169 0
1.43576 0.454934 0
1.47042 0.520776 0
1.51069 0.46142 0
1.54422 0.526371 0
1.58547 0.465572 0
1.61942 0.531773 0
1.66033 0.468788 0
1.69546 0.536793 0
1.73713 0.472812 0
1.77239 0.541977 0
1.81532 0.478494 0
1.85006 0.547285 0
1.89327 0.483449 0
1.92802 0.55361 0
1.97142 0.488546 0
2.00623 0.558966 0
2.04984 0.493518 0
2.08483 0.564085 0
2.12847 0.498462 0
2.16353 0.569137 0
2.20719 0.503331 0
0.961579 0.391697 0
1.22451 0.565337 0
2.24238 0.574192 0
2.28611 0.508258 0
2.32134 0.579247 0
2.36519 0.513325 0
2.40036 0.584295 0
2.44425 0.51834 0
2.47944 0.589336 0
2.52334 0.523355 0
2.55853 0.594372 0
2.60245 0.52837 0
2.63764 0.599431 0
2.68159 0.533388 0
2.64637 0.462336 0
2.72553 0.467349 0
2.76076 0.538418 0
2.8047 0.47237 0
2.83993 0.543451 0
2.88387 0.477399 0
2.91911 0.548482 0
2.96305 0.482427 0
2.9983 0.553514 0
3.04224 0.487456 0
3.07749 0.558545 0
3.12143 0.492477 0
3.15668 0.563574 0
3.20063 0.497514 0
3.23588 0.568605 0
3.27983 0.502542 0
3.31508 0.573635 0
3.35903 0.507562 0
3.39428 0.578663 0
3.43823 0.5126 0
3.47348 0.583694 0
3.51744 0.517628 0
3.55268 0.588724 0
3.59664 0.522646 0
3.63189 0.593752 0
3.67585 0.527673 0
3.71109 0.598781 0
3.75505 0.532702 0
3.7903 0.60381 0
3.83426 0.537731 0
3.79901 0.466623 0
3.87821 0.471754 0
3.91346 0.542777 0
3.95742 0.476701 0
3.99267 0.547795 0
4.03662 0.481715 0
4.07187 0.552815 0
4.11582 0.486743 0
4.15106 0.55783 0
4.195 0.491782 0
4.23023 0.562843 0
4.27415 0.49682 0
4.30937 0.567866 0
4.35325 0.501915 0
4.38842 0.572845 0
4.43227 0.506997 0
4.46737 0.577575 0
4.51106 0.511995 0
4.54622 0.582183 0
1.13571 0.390292 0
4.47606 0.441361 0
4.55475 0.446396 0
2.32985 0.442214 0
3.5614 0.451571 0
3.08619 0.421408 0
2.09339 0.427815 0
1.42887 0.583001 0
2.84864 0.406329 0
3.32378 0.43649 0
4.23911 0.425894 0
1.54723 0.39251 0
1.77883 0.406811 0
1.33959 0.387065 0
3.92239 0.405803 0
4.08079 0.415776 0
2.48812 0.452349 0
1.57935 0.603183 0
1.93602 0.417543 0
1.72453 0.617973 0
3.11273 0.629643 0
2.69029 0.396284 0
3.94662 0.623383 0
1.88466 0.613248 0
2.79598 0.609502 0
4.10826 0.620575 0
2.04005 0.62838 0
2.95434 0.619575 0
4.51981 0.375801 0
4.59833 0.380943 0
4.63314 0.451296 0
4.26693 0.63114 0
2.19619 0.645921 0
4.4246 0.642296 0
3.27112 0.639707 0
2.35729 0.649822 0
2.51462 0.660373 0
3.42952 0.649769 0
4.67669 0.38601 0
3.58793 0.659829 0
3.74634 0.669888 0
4.64195 0.315733 0
4.44109 0.370647 0
4.48493 0.305066 0
4.40614 0.29989 0
4.71136 0.456133 0
4.72014 0.320758 0
0.8692 0.382093 0
0.841252 0.348256 0
0.886481 0.338703 0
0.853127 0.301457 0
0.902583 0.287335 0
0.801683 0.321689 0
0.818113 0.263019 0
0.764765 0.277091 0
4.44702 0.235678 0
0.946267 0.520761 0
0.78107 0.221265 0
0.726309 0.234724 0
0.848273 0.20551 0
4.68545 0.250576 0
4.37074 0.227561 0
4.76365 0.255792 0
4.79822 0.326145 0
0.713664 0.287231 0
0.672358 0.247957 0
0.68673 0.192342 0
0.630368 0.2085 0
0.616569 0.265341 0
0.574186 0.225456 0
0.557393 0.28131 0
0.52004 0.242373 0
0.504416 0.299685 0
0.462273 0.252096 0
0.44798 0.316739 0
0.404567 0.276951 0
0.390546 0.335414 0
0.434669 0.37657 0
0.377935 0.394545 0
0.421979 0.43426 0
0.365682 0.452846 0
0.409646 0.492216 0
0.353389 0.51089 0
0.397738 0.551598 0
0.339864 0.570301 0
0.385899 0.612153 0
0.325913 0.631557 0
0.344507 0.29318 0
0.320568 0.413067 0
0.373553 0.673852 0
0.434438 0.653082 0
0.311416 0.69481 0
0.449777 0.528305 0
0.293513 0.534612 0
0.421431 0.715204 0
0.480917 0.696603 0
0.54504 0.34471 0
0.262743 0.649913 0
0.246209 0.712341 0
0.468564 0.755948 0
0.526091 0.735423 0
0.538207 0.68039 0
0.581228 0.716342 0
0.408756 0.777952 0
0.36234 0.239019 0
0.297047 0.251925 0
0.572109 0.771575 0
0.624906 0.752173 0
0.474824 0.414151 0
0.534351 0.182707 0
0.633682 0.70159 0
0.674547 0.736174 0
0.66826 0.788959 0
0.721117 0.76834 0
0.714515 0.825486 0
0.769074 0.802008 0
0.775287 0.746591 0
0.821903 0.778625 0
0.826767 0.726064 0
0.873257 0.756032 0
0.872997 0.697261 0
0.92331 0.732304 0
0.930014 0.67838 0
0.976061 0.710612 0
0.92456 0.784469 0
0.982178 0.654421 0
1.03016 0.688004 0
1.02037 0.747059 0
1.08 0.723819 0
1.08651 0.661896 0
1.1397 0.698204 0
1.13262 0.763657 0
1.19424 0.736545 0
1.18556 0.80161 0
1.24839 0.771772 0
1.25723 0.706382 0
1.31432 0.745787 0
4.66801 0.521361 0
4.74602 0.526202 0
4.70285 0.591278 0
4.78076 0.596023 0
4.73763 0.661207 0
4.78904 0.460969 0
2.61113 0.391267 0
2.65506 0.325217 0
2.57588 0.320198 0
2.61982 0.254148 0
2.69899 0.259163 0
2.54065 0.249131 0
2.49672 0.315179 0
2.46148 0.244124 0
2.41757 0.310166 0
2.38233 0.239117 0
2.33843 0.30514 0
2.30297 0.237979 0
2.25928 0.300748 0
2.22079 0.221377 0
2.17969 0.293884 0
2.14114 0.224266 0
2.10047 0.289841 0
2.0653 0.219144 0
2.02202 0.284919 0
1.98701 0.214164 0
1.94336 0.279863 0
3.82315 0.673327 0
3.78135 0.738156 0
3.86451 0.735958 0
3.70234 0.735494 0
4.52513 0.244409 0
4.32717 0.294467 0
4.29217 0.221862 0
0.619934 0.539507 0
0.599432 0.577132 0
0.575955 0.542712 0
0.554504 0.58245 0
4.65962 0.656481 0
4.69438 0.726169 0
4.6161 0.721747 0
4.77259 0.731352 0
4.65076 0.791486 0
4.57153 0.788793 0
4.2482 0.289182 0
4.21307 0.218308 0
4.1691 0.284563 0
4.13394 0.21352 0
0.835918 0.606341 0
0.806475 0.6384 0
4.08995 0.279537 0
0.640355 0.426737 0
0.596214 0.435837 0
0.630358 0.379178 0
0.689967 0.627735 0
1.90832 0.209948 0
1.86468 0.27519 0
1.82968 0.20518 0
1.78607 0.269797 0
0.281841 0.313314 0
0.232117 0.268621 0
0.216861 0.334396 0
4.05473 0.209347 0
4.01077 0.2745 0
3.97554 0.204394 0
3.93159 0.269388 0
0.297409 0.759367 0
0.231645 0.782943 0
0.180008 0.73598 0
1.32151 0.676369 0
1.38055 0.718092 0
1.36901 0.793947 0
1.43945 0.766002 0
0.249902 0.198865 0
0.932364 0.624392 0
1.75117 0.201034 0
1.70771 0.264658 0
1.673 0.195402 0
1.62985 0.260294 0
1.59532 0.191927 0
1.55236 0.254233 0
3.89629 0.200227 0
3.85238 0.264494 0
3.81708 0.195303 0
3.77304 0.259453 0
2.66368 0.189084 0
2.74279 0.19534 0
2.77814 0.264556 0
2.82201 0.199823 0
2.85733 0.269552 0
2.90126 0.203886 0
2.93654 0.274416 0
2.98045 0.20868 0
3.01573 0.279376 0
3.0597 0.213193 0
[...]
CELL_DATA 2220
VECTORS velocity double
41.6003 -1.86533 0.0
30.1235 0.789426 0.0
32.5944 0.671144 0.0
25.2045 2.56431 0.0
42.205 -2.07196 0.0
56.9882 -1.55185 0.0
25.4039 0.752026 0.0
28.2798 -0.0675934 0.0
43.326 2.86234 0.0
55.8994 -1.2012 0.0
25.4193 0.434276 0.0
26.9519 0.367702 0.0
21.3492 0.275761 0.0
38.1762 -2.48885 0.0
27.9804 -0.352913 0.0
39.1449 3.22708 0.0
28.4629 1.75933 0.0
23.2098 1.138 0.0
26.3918 -0.244697 0.0
28.6131 -0.225451 0.0
27.2671 0.437284 0.0
34.4409 3.98971 0.0
26.9487 1.36238 0.0
27.9946 0.886773 0.0
55.6104 -0.628943 0.0
35.7014 -2.34011 0.0
24.9588 1.2854 0.0
24.007 0.860157 0.0
24.7565 2.42352 0.0
27.2822 1.78621 0.0
47.8851 -1.39744 0.0
33.9675 3.35924 0.0
19.451 -0.209192 0.0
35.0458 1.38937 0.0
41.7722 -4.03858 0.0
57.2466 -1.64925 0.0
40.5357 -4.41151 0.0
22.9834 -0.228687 0.0
29.0063 2.78461 0.0
30.4877 2.23454 0.0
15.1479 0.720408 0.0
43.7125 3.11041 0.0
21.2597 2.20563 0.0
25.4102 -0.0892115 0.0
23.3605 -0.112733 0.0
20.5226 -0.0797023 0.0
26.6677 1.1268 0.0
21.0269 -0.0443928 0.0
55.3724 -1.08574 0.0
61.0439 0.42177 0.0
22.2262 0.624418 0.0
21.0938 0.140331 0.0
26.5998 0.95526 0.0
26.898 0.15659 0.0
23.8085 1.36347 0.0
30.9136 2.02354 0.0
36.2803 3.5263 0.0
22.5502 0.845286 0.0
22.8998 0.96128 0.0
61.8074 0.261753 0.0
-0.445518 -10.8793 0.0
57.0363 -1.07216 0.0
49.5159 -2.03043 0.0
27.2109 0.961326 0.0
27.0403 0.998491 0.0
38.6279 1.35499 0.0
19.6939 -2.01131 0.0
42.2729 3.3983 0.0
22.8558 0.953791 0.0
23.2137 0.900934 0.0
26.6791 0.235998 0.0
36.3083 -1.82145 0.0
20.7063 0.230294 0.0
58.9218 0.988171 0.0
14.8428 0.430932 0.0
44.1515 2.99541 0.0
52.5949 2.32479 0.0
28.0615 -1.86238 0.0
45.7125 3.64618 0.0
25.0455 0.150987 0.0
26.2302 -1.14236 0.0
31.4064 -1.93976 0.0
14.5385 -0.309053 0.0
20.5273 0.140234 0.0
25.9096 0.723782 0.0
25.8481 0.356294 0.0
37.1643 -1.98719 0.0
21.5238 0.304696 0.0
21.8915 0.57417 0.0
42.4604 2.35513 0.0
7.78234 0.527648 0.0
26.6854 1.99067 0.0
26.7422 -0.299464 0.0
41.8041 3.33591 0.0
44.6621 3.18147 0.0
30.1217 -2.06162 0.0
33.8136 -4.17775 0.0
15.3 -1.062 0.0
0.284164 -8.06919 0.0
34.3843 -0.776805 0.0
7.9728 -0.805524 0.0
34.4998 -2.32025 0.0
26.3871 0.937782 0.0
22.3772 1.28526 0.0
38.2445 4.28337 0.0
43.0324 3.47399 0.0
58.5648 -1.35154 0.0
60.834 -1.15824 0.0
7.46441 -0.294821 0.0
26.8391 1.40982 0.0
30.9839 1.78384 0.0
40.1676 -1.97852 0.0
58.1663 -1.1766 0.0
11.0611 -1.02551 0.0
58.5841 -1.79771 0.0
22.3884 0.793398 0.0
37.8875 -2.57874 0.0
18.1921 -0.577722 0.0
7.82646 -0.0361461 0.0
41.7624 1.7197 0.0
28.0282 -1.88397 0.0
37.1578 -1.40409 0.0
20.5144 1.38798 0.0
27.3069 3.36197 0.0
43.9165 -4.04447 0.0
32.4485 -2.72408 0.0
40.7471 3.19312 0.0
23.2856 1.52955 0.0
42.5228 -2.90697 0.0
19.2287 1.64919 0.0
19.2404 4.23263 0.0
22.0508 -2.11956 0.0
13.2106 -1.39607 0.0
17.1593 22.1998 0.0
28.372 2.66578 0.0
12.3708 19.9243 0.0
18.9549 -0.0260944 0.0
24.2658 -0.198549 0.0
34.0398 -2.80222 0.0
34.9342 3.51041 0.0
28.0768 -0.787813 0.0
25.1069 -0.0758012 0.0
57.2754 -2.13478 0.0
44.993 -4.51308 0.0
57.66 0.993689 0.0
36.9257 2.95343 0.0
11.2744 1.07471 0.0
15.4341 -0.540568 0.0
58.022 2.03875 0.0
59.9576 -1.60371 0.0
22.4255 -0.417843 0.0
40.7763 1.70667 0.0
37.6032 -0.0428348 0.0
24.835 3.04394 0.0
6.286 12.8086 0.0
28.6361 0.413344 0.0
22.4856 -2.33495 0.0
29.9334 0.642097 0.0
10.5752 -1.05122 0.0
23.6168 -1.36112 0.0
23.0174 -3.20768 0.0
22.4025 -0.017034 0.0
10.6378 -1.05642 0.0
33.9731 -3.29848 0.0
20.4631 0.134208 0.0
33.2786 2.18176 0.0
35.1471 -1.85499 0.0
42.1919 -1.30164 0.0
28.4478 0.317475 0.0
13.3074 -2.07164 0.0
11.9898 1.38931 0.0
20.0574 0.0273942 0.0
26.3176 0.109575 0.0
18.2165 -1.59277 0.0
30.7164 -1.36145 0.0
47.2537 3.70788 0.0
50.5274 2.12265 0.0
46.9617 3.44902 0.0
12.6053 -0.694004 0.0
28.1051 0.0195221 0.0
36.4461 -0.542302 0.0
23.4068 -0.889252 0.0
7.76096 1.23197 0.0
20.4161 2.04552 0.0
28.8692 -0.0480834 0.0
53.4395 -0.96071 0.0
39.1186 0.0954561 0.0
22.3325 -1.06237 0.0
35.6237 -4.05257 0.0
42.0151 -0.481452 0.0
12.7 -1.27955 0.0
22.4893 -0.324187 0.0
42.4058 -2.48645 0.0
58.6156 1.79002 0.0
23.178 -2.20905 0.0
39.0125 0.872366 0.0
38.9472 1.74021 0.0
25.0591 -1.59281 0.0
6.54217 -0.583693 0.0
26.6623 -0.617905 0.0
24.5887 -23.3112 0.0
34.7992 -2.85622 0.0
36.1467 2.97731 0.0
27.1615 -0.18695 0.0
15.3572 -0.599127 0.0
34.4226 -2.30298 0.0
28.105 0.147863 0.0
24.7117 0.0118926 0.0
37.5365 3.70915 0.0
12.9389 -0.828707 0.0
26.7142 0.923431 0.0
13.5237 -0.542887 0.0
38.1841 -0.344102 0.0
44.0426 3.48641 0.0
52.4063 2.92581 0.0
25.1111 5.44711 0.0
22.4971 0.847331 0.0
26.7109 1.10923 0.0
12.4833 0.305773 0.0
15.3531 -0.203823 0.0
57.5518 0.678963 0.0
12.1131 -0.604729 0.0
22.3123 1.01213 0.0
11.6871 -0.281719 0.0
26.8798 -0.152262 0.0
30.3957 -3.29454 0.0
23.5135 -1.54531 0.0
23.6464 -1.04559 0.0
33.6625 0.122711 0.0
12.0271 1.17134 0.0
31.9742 3.42014 0.0
36.1706 -1.54423 0.0
17.812 -0.262279 0.0
27.0431 -0.704629 0.0
12.3032 -1.09074 0.0
44.5133 -0.0393419 0.0
28.3211 -1.76689 0.0
26.503 -0.340344 0.0
26.3119 -0.371051 0.0
22.9097 -0.386807 0.0
45.2448 -4.27635 0.0
34.779 -3.75485 0.0
41.7882 4.574 0.0
13.2276 -0.02804 0.0
16.145 16.1965 0.0
60.1502 -0.031188 0.0
28.4169 -0.958272 0.0
33.6028 -1.3494 0.0
3.70916 15.5016 0.0
21.9205 2.2478 0.0
13.9818 -18.2884 0.0
13.2323 -0.111111 0.0
35.5628 -2.3616 0.0
55.3418 -0.34528 0.0
49.6813 -3.12562 0.0
25.9147 0.503016 0.0
12.8989 0.178807 0.0
58.3221 0.264152 0.0
23.4203 2.14062 0.0
44.5682 1.512 0.0
29.858 -0.461715 0.0
38.436 -0.986545 0.0
11.7718 1.17515 0.0
27.5278 -1.44828 0.0
12.6754 -0.577892 0.0
8.10805 -0.0974211 0.0
22.8469 -2.50564 0.0
35.7332 -1.43833 0.0
25.7312 1.30269 0.0
60.8398 -0.126691 0.0
52.3649 1.26765 0.0
54.0147 -0.0677333 0.0
21.7024 0.404254 0.0
54.5897 -1.96789 0.0
22.9868 -2.07068 0.0
42.9265 4.59222 0.0
14.3964 1.99069 0.0
42.3223 -0.86257 0.0
22.4083 1.68809 0.0
13.8282 0.133582 0.0
25.7005 -2.06717 0.0
26.9857 -2.46328 0.0
44.2948 4.40309 0.0
36.6278 1.96183 0.0
54.3144 -1.85283 0.0
33.0153 -2.08409 0.0
37.0849 -3.82883 0.0
35.7184 1.49 0.0
22.6648 -0.287173 0.0
21.8734 -0.301282 0.0
12.8112 -0.318777 0.0
24.6434 -1.18261 0.0
13.086 0.978415 0.0
25.0901 -22.2508 0.0
28.7438 -1.51372 0.0
35.0023 -0.354921 0.0
35.5036 -0.324568 0.0
21.9883 0.540617 0.0
42.8166 4.54546 0.0
53.4664 3.04219 0.0
18.0262 -2.53408 0.0
48.3982 3.78666 0.0
37.0187 -1.74615 0.0
7.63748 0.087461 0.0
38.3442 -3.00674 0.0
27.0713 1.8915 0.0
20.8369 -0.466019 0.0
22.1815 -0.328868 0.0
16.6015 0.423009 0.0
12.3044 0.91361 0.0
14.2167 -0.053445 0.0
18.616 27.152 0.0
14.993 1.05668 0.0
43.9891 4.61456 0.0
33.9349 -2.42267 0.0
25.8313 -0.326235 0.0
48.9055 3.18649 0.0
12.7503 1.10079 0.0
45.0848 -2.49896 0.0
52.4409 3.40389 0.0
15.3055 -2.13092 0.0
19.5965 0.994728 0.0
57.0911 0.324685 0.0
12.9447 -1.01932 0.0
10.9203 30.5292 0.0
13.3246 -0.100552 0.0
54.0547 0.0145302 0.0
54.184 1.3337 0.0
58.8158 0.645644 0.0
13.0345 -0.451557 0.0
41.3732 -3.28809 0.0
44.7643 -4.90044 0.0
44.3087 -1.51014 0.0
11.6291 -1.09028 0.0
41.04 0.183051 0.0
45.2535 -3.72248 0.0
26.0363 -2.66355 0.0
46.9381 3.7811 0.0
37.1729 -2.19843 0.0
26.1387 -0.364017 0.0
8.83827 -0.206423 0.0
22.9584 -0.374204 0.0
7.33482 0.533021 0.0
7.4133 0.0671149 0.0
15.4897 -1.74484 0.0
45.1338 3.51469 0.0
10.4106 7.79045 0.0
48.6722 3.73307 0.0
54.4219 2.87089 0.0
7.18826 -0.297651 0.0
41.3287 1.72043 0.0
5.98987 0.16704 0.0
7.25952 -0.474441 0.0
36.195 2.98645 0.0
12.0039 0.812795 0.0
44.7299 -1.78752 0.0
40.723 2.03133 0.0
6.97909 -0.343371 0.0
54.1681 0.992673 0.0
32.533 -3.40001 0.0
51.6694 3.00256 0.0
15.2393 0.590584 0.0
32.1839 1.86409 0.0
50.2638 3.41746 0.0
6.47358 0.622784 0.0
61.4577 0.630371 0.0
37.1103 -4.54966 0.0
6.90292 -0.41492 0.0
6.7813 -0.590964 0.0
38.7162 -1.91715 0.0
7.10707 0.462408 0.0
35.6299 3.90739 0.0
39.7653 -2.04768 0.0
29.0044 -0.939981 0.0
11.517 -0.096014 0.0
13.3591 0.539778 0.0
37.3158 0.649503 0.0
37.7476 0.135175 0.0
44.7599 -0.91009 0.0
35.1773 -0.211908 0.0
14.2772 -0.92302 0.0
44.5878 3.73343 0.0
45.1602 -3.25245 0.0
58.6004 0.41995 0.0
43.7772 3.70929 0.0
53.7821 -0.287126 0.0
42.1718 4.19496 0.0
56.9476 0.249271 0.0
34.8796 -1.95337 0.0
53.0745 2.57015 0.0
11.0056 1.06058 0.0
50.8887 -0.0340111 0.0
31.2756 -0.987283 0.0
48.5947 -2.73549 0.0
9.46867 -0.981034 0.0
23.0508 -1.47384 0.0
44.538 0.675722 0.0
9.10052 0.803307 0.0
56.8486 0.236988 0.0
44.3771 2.71147 0.0
7.43481 0.288311 0.0
30.3248 -0.950305 0.0
49.3729 3.22313 0.0
57.9524 0.145374 0.0
37.5991 -4.32315 0.0
42.2678 -4.76247 0.0
5.97684 6.753 0.0
12.1512 0.858874 0.0
24.1783 -1.741 0.0
40.874 -1.45758 0.0
31.2606 -2.41212 0.0
7.1377 0.0101083 0.0
43.4109 4.25328 0.0
51.6768 -2.98865 0.0
44.6365 -2.34772 0.0
58.115 0.170075 0.0
4.16523 -0.18135 0.0
6.69924 0.480713 0.0
41.6308 2.81983 0.0
6.88248 0.605236 0.0
50.6136 3.67254 0.0
43.241 2.83838 0.0
4.30517 0.000244029 0.0
6.86467 -0.535556 0.0
50.5635 2.82641 0.0
52.1144 0.591485 0.0
4.06623 0.182685 0.0
45.0938 -0.243631 0.0
56.804 0.261984 0.0
12.742 -0.779402 0.0
57.8345 0.165398 0.0
46.0298 2.7883 0.0
44.5493 -3.45173 0.0
53.9362 2.21324 0.0
6.90128 -0.618213 0.0
35.6591 -4.50195 0.0
7.45869 -0.12345 0.0
6.72052 0.475009 0.0
41.496 -3.21825 0.0
6.88783 0.668326 0.0
45.1248 3.12349 0.0
51.8244 2.45902 0.0
42.6967 -4.00697 0.0
43.5534 -4.91701 0.0
11.0205 -1.13111 0.0
23.5141 -0.105919 0.0
44.3133 2.03196 0.0
7.00294 -0.392981 0.0
6.40201 0.430712 0.0
20.1987 -3.77162 0.0
10.5516 0.996776 0.0
57.1342 -0.966844 0.0
7.39702 -0.454261 0.0
24.5783 0.973834 0.0
57.5501 1.44356 0.0
12.0742 0.774316 0.0
12.6883 0.780986 0.0
47.9887 3.56821 0.0
7.12284 0.406898 0.0
54.0672 1.77908 0.0
46.7511 2.45576 0.0
53.9204 0.560667 0.0
6.58203 -0.617163 0.0
5.11399 0.44728 0.0
9.22674 -0.424095 0.0
37.6062 -1.71595 0.0
15.306 -3.69949 0.0
57.8016 0.203352 0.0
4.17231 0.101989 0.0
43.9011 -4.86162 0.0
13.4596 -0.455053 0.0
6.21578 0.433916 0.0
15.7231 -1.61948 0.0
46.6099 3.7455 0.0
12.6325 -0.708556 0.0
53.8497 0.458034 0.0
51.9211 2.0807 0.0
29.4239 -0.544383 0.0
56.8601 0.291744 0.0
47.1382 2.13422 0.0
27.7167 -1.72392 0.0
41.2925 0.856929 0.0
55.4096 -2.61215 0.0
47.3138 1.78964 0.0
6.77244 -0.689588 0.0
7.22028 0.711087 0.0
44.335 -0.939366 0.0
6.28247 0.386692 0.0
36.4987 -3.75856 0.0
24.586 14.7951 0.0
56.9669 0.298401 0.0
6.33249 0.414211 0.0
6.98557 -0.420853 0.0
52.2135 1.66477 0.0
45.2212 3.62413 0.0
38.9436 -0.243498 0.0
31.9537 -1.57225 0.0
47.9251 0.00937359 0.0
28.0959 -1.39044 0.0
17.9918 -20.2078 0.0
49.2467 -0.184935 0.0
43.7696 2.55988 0.0
6.93632 -0.268785 0.0
47.3835 1.4404 0.0
36.0776 17.7925 0.0
22.9077 -0.653445 0.0
57.3476 0.465078 0.0
4.50437 -0.43011 0.0
4.97074 0.439534 0.0
43.0588 2.87725 0.0
50.8466 -0.223757 0.0
48.8865 -1.24266 0.0
27.0069 -0.199259 0.0
54.0165 5.50955 0.0
57.831 0.23584 0.0
53.2721 -2.37334 0.0
5.61139 2.84472 0.0
54.0192 0.742778 0.0
54.8604 -2.74374 0.0
44.5283 1.95566 0.0
44.182 13.0486 0.0
11.6004 -5.09376 0.0
39.3067 0.290266 0.0
5.59121 -8.74173 0.0
37.897 -1.35569 0.0
52.8533 -1.36308 0.0
54.5382 2.98156 0.0
53.799 5.98907 0.0
6.01937 -2.59544 0.0
47.3984 1.13796 0.0
50.258 9.15684 0.0
44.6344 1.64564 0.0
59.1315 0.145835 0.0
44.2821 2.25505 0.0
52.2909 0.960701 0.0
27.0148 -0.965784 0.0
30.0403 1.22112 0.0
11.5679 -7.20433 0.0
44.0865 -2.85351 0.0
21.4817 -0.181125 0.0
37.8746 -12.801 0.0
7.77348 -12.0621 0.0
40.8712 -2.86098 0.0
57.9998 0.206435 0.0
3.0128 -0.287545 0.0
3.08748 0.292303 0.0
52.1364 0.74037 0.0
42.8967 3.28419 0.0
47.4483 0.91051 0.0
34.1097 19.9901 0.0
7.8886 -0.212923 0.0
12.8306 -0.341883 0.0
9.10557 1.52405 0.0
3.06073 3.46837 0.0
6.95635 -6.43009 0.0
52.8855 -3.10545 0.0
59.4072 0.107606 0.0
41.8396 -4.10278 0.0
0.883971 1.75741 0.0
41.7413 -0.117189 0.0
44.6408 -0.118636 0.0
47.0717 -11.8155 0.0
30.6227 15.6945 0.0
1.05824 -1.70494 0.0
3.50544 -3.24396 0.0
37.7924 0.61007 0.0
21.4279 1.15236 0.0
44.7698 1.33512 0.0
27.8902 -6.79684 0.0
51.1092 -0.122551 0.0
43.6756 2.34728 0.0
52.9925 -0.119782 0.0
38.1233 12.801 0.0
57.257 0.191847 0.0
3.97997 -0.297761 0.0
50.014 3.67493 0.0
58.3291 1.10978 0.0
53.8186 0.425009 0.0
58.2075 0.170084 0.0
52.4859 -6.78776 0.0
3.82135 0.216783 0.0
58.1576 -0.702548 0.0
8.02192 -1.89306 0.0
22.2523 1.40044 0.0
35.9273 -1.226 0.0
47.463 0.767838 0.0
44.8216 1.06632 0.0
56.0517 3.77878 0.0
56.965 2.70068 0.0
55.4895 4.04141 0.0
6.2843 0.322772 0.0
11.9377 0.573579 0.0
9.43744 -1.2922 0.0
58.5303 -0.0722173 0.0
52.1177 0.516795 0.0
44.5844 -4.9151 0.0
7.66587 2.11565 0.0
56.0942 1.0026 0.0
49.3789 8.49838 0.0
12.3525 13.4526 0.0
52.3672 -0.0874185 0.0
3.44457 1.20144 0.0
50.3133 -0.137409 0.0
54.7708 -1.74143 0.0
51.0609 -0.828759 0.0
37.5571 -0.393297 0.0
34.5879 -0.381416 0.0
49.6701 -0.193797 0.0
8.31081 0.282913 0.0
43.5576 4.02273 0.0
57.8352 -0.758655 0.0
54.0753 -0.259223 0.0
53.8858 0.432047 0.0
47.5567 0.684027 0.0
25.3825 -0.0362603 0.0
52.1633 0.499559 0.0
58.7764 -1.91253 0.0
57.3428 0.121607 0.0
12.3207 0.647708 0.0
44.4466 11.6381 0.0
3.75643 -1.13587 0.0
58.5596 1.07119 0.0
58.7384 0.273256 0.0
47.7064 0.648583 0.0
2.23761 1.54559 0.0
41.5083 -0.701941 0.0
58.0496 0.152016 0.0
56.202 2.84797 0.0
51.7361 -0.13605 0.0
57.124 -0.478025 0.0
54.0419 0.445124 0.0
58.2332 -0.136054 0.0
58.6607 0.51009 0.0
57.9105 0.239154 0.0
47.9881 0.649215 0.0
5.18795 0.667509 0.0
18.3676 2.04865 0.0
57.1463 -1.81788 0.0
44.2966 3.30095 0.0
2.48402 -1.47217 0.0
10.5304 -0.861843 0.0
41.603 -2.72912 0.0
48.7774 7.6129 0.0
52.3372 0.511836 0.0
20.0516 -1.67063 0.0
53.9567 -0.253598 0.0
55.331 -0.197946 0.0
28.6427 18.7965 0.0
10.026 1.10162 0.0
4.71116 -0.807008 0.0
57.2206 -2.33908 0.0
38.2953 10.6851 0.0
53.0754 -6.5296 0.0
58.8082 0.687839 0.0
14.0339 0.233754 0.0
52.5759 0.506078 0.0
44.8817 0.897329 0.0
57.388 -0.0290352 0.0
4.40328 0.895792 0.0
54.2722 0.42115 0.0
57.3817 0.0501516 0.0
5.98588 -0.371186 0.0
48.3641 0.628506 0.0
57.12 0.261744 0.0
58.8217 0.730147 0.0
54.9008 0.21758 0.0
54.9754 -0.282006 0.0
58.0527 0.0897958 0.0
48.2849 -1.03843 0.0
54.8243 -0.170415 0.0
54.6152 0.332148 0.0
53.6758 0.165251 0.0
53.59 -0.329718 0.0
5.43299 -0.547779 0.0
57.6487 1.12342 0.0
53.2534 -0.391397 0.0
7.50118 0.453874 0.0
58.0205 0.017476 0.0
11.6885 0.894682 0.0
52.932 0.424976 0.0
54.6586 -0.35324 0.0
58.8884 0.4311 0.0
56.1086 -0.140275 0.0
55.1256 0.121118 0.0
58.4986 0.198311 0.0
25.2115 0.25709 0.0
49.5968 0.305841 0.0
45.6395 3.21398 0.0
48.6847 0.500335 0.0
5.51891 -0.117745 0.0
57.1393 -0.146046 0.0
53.3417 0.283804 0.0
43.3283 -12.2084 0.0
3.60427 -0.322839 0.0
45.1872 0.721885 0.0
3.52367 0.239816 0.0
38.8473 -10.5372 0.0
47.672 3.80886 0.0
45.4736 0.699808 0.0
51.1844 -0.207908 0.0
52.9386 -0.427161 0.0
45.9369 0.698646 0.0
55.4143 -0.0443088 0.0
36.6845 -3.33307 0.0
41.4177 -14.4711 0.0
53.6541 -0.147467 0.0
58.4602 0.797181 0.0
58.5737 1.01585 0.0
58.7167 0.351871 0.0
54.3669 -0.403159 0.0
59.0289 0.462661 0.0
46.673 -0.213624 0.0
58.8417 0.494228 0.0
52.3652 -0.299334 0.0
50.0151 0.166505 0.0
23.7509 0.533216 0.0
55.8899 -0.536312 0.0
58.9158 0.381154 0.0
43.4919 -0.837901 0.0
58.4273 0.631565 0.0
54.0992 -0.418805 0.0
52.6545 -0.419433 0.0
5.7072 0.490712 0.0
53.9301 0.0728266 0.0
45.0115 0.791663 0.0
59.1543 0.402719 0.0
40.193 -0.983778 0.0
13.1485 0.347577 0.0
50.4155 0.0608371 0.0
58.3866 0.432129 0.0
46.9562 0.402983 0.0
45.7895 -0.210109 0.0
52.4077 -0.353415 0.0
58.2997 0.20572 0.0
53.8671 -0.386058 0.0
47.7684 0.234354 0.0
25.8036 11.8932 0.0
57.9683 -0.0662255 0.0
59.0755 0.319132 0.0
57.2727 2.03482 0.0
23.2647 -0.117707 0.0
54.1315 -0.0110147 0.0
43.831 -0.24185 0.0
7.02056 0.206355 0.0
12.2069 0.399135 0.0
53.6587 -0.302897 0.0
57.3023 0.222423 0.0
49.854 -0.411853 0.0
52.1772 -0.242004 0.0
58.8202 0.300804 0.0
50.6976 -0.281429 0.0
50.7535 -0.0295355 0.0
51.9023 -0.115936 0.0
44.5136 -0.281628 0.0
49.1149 -0.258965 0.0
59.2266 0.262149 0.0
45.0908 -0.237684 0.0
57.691 0.09837 0.0
49.4423 -0.45094 0.0
51.6026 -0.332854 0.0
48.6211 -0.326158 0.0
43.9494 -0.337521 0.0
57.5441 0.123225 0.0
53.4381 -0.190134 0.0
8.57313 0.234724 0.0
13.2661 0.340254 0.0
58.7237 0.0717751 0.0
58.1311 -0.0213902 0.0
46.1929 0.650608 0.0
48.149 -0.0770861 0.0
48.6941 0.00655094 0.0
58.8294 0.639663 0.0
51.5082 -0.00744314 0.0
57.2643 1.60579 0.0
55.2916 0.0383493 0.0
43.4185 -0.397982 0.0
47.2861 -0.468394 0.0
48.2423 0.106128 0.0
53.1509 -0.0782312 0.0
59.1445 0.16348 0.0
57.3756 -0.115259 0.0
48.171 -0.390553 0.0
39.1471 1.22259 0.0
41.6539 -0.311098 0.0
47.7247 -0.444831 0.0
42.9306 -0.459099 0.0
53.2035 3.79838 0.0
50.9844 0.0490849 0.0
52.7579 -0.000376194 0.0
49.0892 -0.441005 0.0
42.2745 -0.266521 0.0
46.3031 -0.130729 0.0
58.1915 0.266539 0.0
42.4023 -0.492311 0.0
46.9248 -0.414616 0.0
50.4279 0.0310864 0.0
26.5732 0.186739 0.0
56.4393 -0.114647 0.0
41.8389 -0.422778 0.0
23.0814 0.11751 0.0
41.082 -0.365703 0.0
52.292 0.0155326 0.0
41.5561 -0.258664 0.0
46.6033 -0.288121 0.0
42.9433 -0.244436 0.0
6.14209 -0.0769537 0.0
11.4435 -0.136083 0.0
26.5497 0.297309 0.0
50.1879 -0.377336 0.0
48.4934 -0.224286 0.0
49.944 -0.0406657 0.0
51.8375 -0.0319373 0.0
41.1793 -0.0809358 0.0
12.8379 0.126022 0.0
58.3398 0.174575 0.0
11.7815 -0.166423 0.0
59.2003 0.0448202 0.0
49.6035 -0.124381 0.0
40.5363 -0.427724 0.0
47.623 0.048534 0.0
39.8809 -0.489666 0.0
59.0866 -0.082231 0.0
46.9034 0.120189 0.0
6.36879 -0.0865819 0.0
11.6183 -0.162944 0.0
48.7826 -0.358091 0.0
6.80719 0.0826699 0.0
51.4711 -0.116363 0.0
39.3227 -0.475677 0.0
38.902 -0.328048 0.0
45.8488 0.0144924 0.0
50.9714 -0.267281 0.0
58.3114 -0.0768144 0.0
46.1896 0.106162 0.0
45.568 0.0247258 0.0
11.7038 -0.148698 0.0
6.61593 -0.0884299 0.0
22.0461 0.243416 0.0
38.536 -0.134363 0.0
45.0936 0.12518 0.0
50.2603 -0.351215 0.0
44.2313 0.165873 0.0
52.6061 -0.153846 0.0
22.6027 0.27934 0.0
43.47 0.101101 0.0
51.2806 -0.18988 0.0
45.1046 -0.0516172 0.0
11.7066 0.143254 0.0
5.97934 -0.0557902 0.0
5.00914 -0.0854457 0.0
6.44985 -0.081298 0.0
11.5681 -0.0571833 0.0
12.3081 0.193208 0.0
5.43385 -0.0270364 0.0
6.1587 -0.00692583 0.0
11.3824 -0.124937 0.0
6.00266 -0.0421708 0.0
6.49473 -0.0452487 0.0
6.88335 0.150517 0.0
12.6114 -0.154288 0.0
6.68905 0.0808348 0.0
11.217 -0.0972083 0.0
6.4001 0.0781754 0.0
11.9373 -0.0750432 0.0
11.6715 -0.0866165 0.0
6.23524 0.166455 0.0
12.7857 0.224033 0.0
11.3607 -0.0964718 0.0
11.1053 -0.123289 0.0
6.47165 0.268052 0.0
10.7029 -0.083845 0.0
11.5695 0.187769 0.0
5.92406 -0.0434613 0.0
11.2415 -0.04702 0.0
6.75643 -0.00220046 0.0
5.93484 0.0877472 0.0
10.8675 -0.162359 0.0
6.36993 0.218499 0.0
7.69868 0.123302 0.0
6.52002 0.313076 0.0
5.43504 0.075508 0.0
5.84926 -0.004525 0.0
11.3376 0.0507596 0.0
6.18057 -0.0739849 0.0
6.34667 -0.083874 0.0
6.48662 0.261184 0.0
6.50673 0.299132 0.0
6.47282 -0.0250077 0.0
6.35343 0.0576593 0.0
5.37039 -0.0832186 0.0
6.08803 -0.0482106 0.0
7.57055 -0.0137125 0.0
12.7344 -0.0356833 0.0
6.57471 -0.119906 0.0
7.74382 0.0654756 0.0
10.8073 0.152715 0.0
10.5635 -0.182383 0.0
6.03333 -0.0634438 0.0
6.6768 0.228011 0.0
6.09089 0.0593073 0.0
11.9902 -0.0216894 0.0
5.78542 0.106142 0.0
6.41875 0.0778201 0.0
5.96755 -0.074154 0.0
11.8402 0.530681 0.0
7.36169 -0.101127 0.0
5.21206 -0.008453 0.0
6.00016 0.00553918 0.0
5.07874 0.04613 0.0
6.54907 0.0792346 0.0
6.66653 -0.0291504 0.0
9.88331 -0.0855305 0.0
4.53099 -0.0335957 0.0
11.6042 0.451136 0.0
12.069 0.134303 0.0
50.3561 -0.220719 0.0
49.529 -0.160319 0.0
55.5035 -0.129602 0.0
42.8691 0.00986881 0.0
58.4713 -0.354141 0.0
58.5349 -0.144911 0.0
42.3329 -0.0224965 0.0
58.5781 -0.365192 0.0
58.9052 -0.302001 0.0
58.6745 -0.381016 0.0
59.0544 -0.189306 0.0
44.9106 -0.0498745 0.0
49.7357 -0.160745 0.0
58.8224 -0.336341 0.0
48.2373 -0.205274 0.0
58.327 -0.280413 0.0
51.3532 -0.217033 0.0
58.207 -0.245955 0.0
54.4533 -0.30031 0.0
55.5194 -0.32855 0.0
36.7688 0.088395 0.0
58.022 -0.394215 0.0
57.6469 -0.237975 0.0
55.6826 -0.312612 0.0
58.2133 -0.327107 0.0
41.2053 -0.163786 0.0
54.2847 -0.095679 0.0
49.7815 -0.189971 0.0
57.5352 -0.380051 0.0
57.3675 -0.375309 0.0
58.3731 -0.318787 0.0
43.573 -0.187628 0.0
38.2202 0.245617 0.0