# vtk DataFile Version 3.0
Malha 2D com triângulos e temperatura
ASCII
DATASET UNSTRUCTURED_GRID

POINTS 1194 double
0 0 0
5 0 0
5 1 0
0 1 0
0.85 0.5 0
0.842388 0.538268 0
0.820711 0.570711 0
0.788268 0.592388 0
0.75 0.6 0
0.711732 0.592388 0
0.679289 0.570711 0
0.657612 0.538268 0
0.65 0.5 0
0.657612 0.461732 0
0.679289 0.429289 0
0.711732 0.407612 0
0.75 0.4 0
0.788268 0.407612 0
0.820711 0.429289 0
0.842388 0.461732 0
0.0793651 0 0
0.15873 0 0
0.238095 0 0
0.31746 0 0
0.396825 0 0
0.47619 0 0
0.555556 0 0
0.634921 0 0
0.714286 0 0
0.793651 0 0
0.873016 0 0
0.952381 0 0
1.03175 0 0
1.11111 0 0
1.19048 0 0
1.26984 0 0
1.34921 0 0
1.42857 0 0
1.50794 0 0
1.5873 0 0
1.66667 0 0
1.74603 0 0
1.8254 0 0
1.90476 0 0
1.98413 0 0
2.06349 0 0
2.14286 0 0
2.22222 0 0
2.30159 0 0
2.38095 0 0
2.46032 0 0
2.53968 0 0
2.61905 0 0
2.69841 0 0
2.77778 0 0
2.85714 0 0
2.93651 0 0
3.01587 0 0
3.09524 0 0
3.1746 0 0
3.25397 0 0
3.33333 0 0
3.4127 0 0
3.49206 0 0
3.57143 0 0
3.65079 0 0
3.73016 0 0
3.80952 0 0
3.88889 0 0
3.96825 0 0
4.04762 0 0
4.12698 0 0
4.20635 0 0
4.28571 0 0
4.36508 0 0
4.44444 0 0
4.52381 0 0
4.60317 0 0
4.68254 0 0
4.7619 0 0
4.84127 0 0
4.92063 0 0
5 0.0769231 0
5 0.153846 0
5 0.230769 0
5 0.307692 0
5 0.384615 0
5 0.461538 0
5 0.538462 0
5 0.615385 0
5 0.692308 0
5 0.769231 0
5 0.846154 0
5 0.923077 0
4.92063 1 0
4.84127 1 0
4.7619 1 0
4.68254 1 0
4.60317 1 0
4.52381 1 0
4.44444 1 0
4.36508 1 0
4.28571 1 0
4.20635 1 0
4.12698 1 0
4.04762 1 0
3.96825 1 0
3.88889 1 0
3.80952 1 0
3.73016 1 0
3.65079 1 0
3.57143 1 0
3.49206 1 0
3.4127 1 0
3.33333 1 0
3.25397 1 0
3.1746 1 0
3.09524 1 0
3.01587 1 0
2.93651 1 0
2.85714 1 0
2.77778 1 0
2.69841 1 0
2.61905 1 0
2.53968 1 0
2.46032 1 0
2.38095 1 0
2.30159 1 0
2.22222 1 0
2.14286 1 0
2.06349 1 0
1.98413 1 0
1.90476 1 0
1.8254 1 0
1.74603 1 0
1.66667 1 0
1.5873 1 0
1.50794 1 0
1.42857 1 0
1.34921 1 0
1.26984 1 0
1.19048 1 0
1.11111 1 0
1.03175 1 0
0.952381 1 0
0.873016 1 0
0.793651 1 0
0.714286 1 0
0.634921 1 0
0.555556 1 0
0.47619 1 0
0.396825 1 0
0.31746 1 0
0.238095 1 0
0.15873 1 0
0.0793651 1 0
0 0.923077 0
0 0.846154 0
0 0.769231 0
0 0.692308 0
0 0.615385 0
0 0.538462 0
0 0.461538 0
0 0.384615 0
0 0.307692 0
0 0.230769 0
0 0.153846 0
0 0.0769231 0
0.879698 0.466718 0
1.3085 0.931947 0
1.30532 0.0638546 0
4.93832 0.504275 0
0.620452 0.46964 0
3.99858 0.0669607 0
1.63721 0.934258 0
3.3751 0.0523709 0
4.3254 0.0687322 0
2.42354 0.0642082 0
2.97619 0.0687322 0
2.02101 0.0693621 0
3.68108 0.0581336 0
2.65899 0.932655 0
4.178 0.939994 0
3.21614 0.938179 0
2.25483 0.919987 0
3.53215 0.928998 0
3.84921 0.931268 0
1.69647 0.0674297 0
1.94349 0.930209 0
4.48413 0.931268 0
2.97813 0.942022 0
2.74097 0.0673855 0
0.859645 0.573263 0
0.639718 0.573116 0
0.0651563 0.652836 0
0.0635304 0.346121 0
4.56232 0.0679683 0
0.830393 0.392645 0
0.669618 0.39275 0
1.06185 0.0668897 0
0.440193 0.0680031 0
1.06474 0.93511 0
0.446074 0.935974 0
0.724697 0.630698 0
4.72268 0.931235 0
4.93065 0.267192 0
0.589836 0.936152 0
0.92338 0.0562425 0
0.590207 0.0623339 0
0.755872 0.0732784 0
0.838039 0.936714 0
4.92573 0.732039 0
0.281717 0.93783 0
0.28208 0.0811877 0
0.065248 0.503161 0
1.46076 0.0637037 0
4.72574 0.0661877 0
4.31028 0.937908 0
3.21429 0.0687322 0
1.46639 0.932632 0
3.6897 0.928155 0
2.42063 0.931268 0
3.5364 0.0691789 0
2.25998 0.0676208 0
1.78735 0.937047 0
4.01535 0.920637 0
1.85469 0.0674188 0
3.83991 0.0626292 0
3.37477 0.929368 0
2.58225 0.0657863 0
2.81746 0.932342 0
4.16667 0.0687322 0
2.11402 0.935574 0
0.0614266 0.197046 0
0.0612841 0.803003 0
4.88273 0.0644126 0
4.87774 0.933272 0
0.859645 0.426737 0
0.903081 0.436592 0
0.923672 0.473385 0
0.948706 0.439078 0
0.969155 0.479795 0
0.996593 0.439791 0
1.0202 0.484937 0
1.04667 0.440138 0
1.07382 0.489694 0
1.1034 0.440801 0
1.13169 0.49612 0
1.16603 0.445058 0
1.1931 0.504331 0
1.22956 0.450883 0
1.25923 0.506004 0
1.29683 0.453139 0
1.32923 0.510343 0
1.36603 0.454344 0
1.03276 0.530395 0
1.40063 0.516169 0
1.43576 0.454934 0
1.47042 0.520776 0
1.51069 0.46142 0
1.54422 0.526371 0
1.58547 0.465572 0
1.61942 0.531773 0
1.66033 0.468788 0
1.69546 0.536793 0
1.73713 0.472812 0
1.77239 0.541977 0
1.81532 0.478494 0
1.85006 0.547285 0
1.89327 0.483449 0
1.92802 0.55361 0
1.97142 0.488546 0
2.00623 0.558966 0
2.04984 0.493518 0
2.08483 0.564085 0
2.12847 0.498462 0
2.16353 0.569137 0
2.20719 0.503331 0
0.961579 0.391697 0
1.22451 0.565337 0
2.24238 0.574192 0
2.28611 0.508258 0
2.32134 0.579247 0
2.36519 0.513325 0
2.40036 0.584295 0
2.44425 0.51834 0
2.47944 0.589336 0
2.52334 0.523355 0
2.55853 0.594372 0
2.60245 0.52837 0
2.63764 0.599431 0
2.68159 0.533388 0
2.64637 0.462336 0
2.72553 0.467349 0
2.76076 0.538418 0
2.8047 0.47237 0
2.83993 0.543451 0
2.88387 0.477399 0
2.91911 0.548482 0
2.96305 0.482427 0
2.9983 0.553514 0
3.04224 0.487456 0
3.07749 0.558545 0
3.12143 0.492477 0
3.15668 0.563574 0
3.20063 0.497514 0
3.23588 0.568605 0
3.27983 0.502542 0
3.31508 0.573635 0
3.35903 0.507562 0
3.39428 0.578663 0
3.43823 0.5126 0
3.47348 0.583694 0
3.51744 0.517628 0
3.55268 0.588724 0
3.59664 0.522646 0
3.63189 0.593752 0
3.67585 0.527673 0
3.71109 0.598781 0
3.75505 0.532702 0
3.7903 0.60381 0
3.83426 0.537731 0
3.79901 0.466623 0
3.87821 0.471754 0
3.91346 0.542777 0
3.95742 0.476701 0
3.99267 0.547795 0
4.03662 0.481715 0
4.07187 0.552815 0
4.11582 0.486743 0
4.15106 0.55783 0
4.195 0.491782 0
4.23023 0.562843 0
4.27415 0.49682 0
4.30937 0.567866 0
4.35325 0.501915 0
4.38842 0.572845 0
4.43227 0.506997 0
4.46737 0.577575 0
4.51106 0.511995 0
4.54622 0.582183 0
1.13571 0.390292 0
4.47606 0.441361 0
4.55475 0.446396 0
2.32985 0.442214 0
3.5614 0.451571 0
3.08619 0.421408 0
2.09339 0.427815 0
1.42887 0.583001 0
2.84864 0.406329 0
3.32378 0.43649 0
4.23911 0.425894 0
1.54723 0.39251 0
1.77883 0.406811 0
1.33959 0.387065 0
3.92239 0.405803 0
4.08079 0.415776 0
2.48812 0.452349 0
1.57935 0.603183 0
1.93602 0.417543 0
1.72453 0.617973 0
3.11273 0.629643 0
2.69029 0.396284 0
3.94662 0.623383 0
1.88466 0.613248 0
2.79598 0.609502 0
4.10826 0.620575 0
2.04005 0.62838 0
2.95434 0.619575 0
4.51981 0.375801 0
4.59833 0.380943 0
4.63314 0.451296 0
4.26693 0.63114 0
2.19619 0.645921 0
4.4246 0.642296 0
3.27112 0.639707 0
2.35729 0.649822 0
2.51462 0.660373 0
3.42952 0.649769 0
4.67669 0.38601 0
3.58793 0.659829 0
3.74634 0.669888 0
4.64195 0.315733 0
4.44109 0.370647 0
4.48493 0.305066 0
4.40614 0.29989 0
4.71136 0.456133 0
4.72014 0.320758 0
0.8692 0.382093 0
0.841252 0.348256 0
0.886481 0.338703 0
0.853127 0.301457 0
0.902583 0.287335 0
0.801683 0.321689 0
0.818113 0.263019 0
0.764765 0.277091 0
4.44702 0.235678 0
0.946267 0.520761 0
0.78107 0.221265 0
0.726309 0.234724 0
0.848273 0.20551 0
4.68545 0.250576 0
4.37074 0.227561 0
4.76365 0.255792 0
4.79822 0.326145 0
0.713664 0.287231 0
0.672358 0.247957 0
0.68673 0.192342 0
0.630368 0.2085 0
0.616569 0.265341 0
0.574186 0.225456 0
0.557393 0.28131 0
0.52004 0.242373 0
0.504416 0.299685 0
0.462273 0.252096 0
0.44798 0.316739 0
0.404567 0.276951 0
0.390546 0.335414 0
0.434669 0.37657 0
0.377935 0.394545 0
0.421979 0.43426 0
0.365682 0.452846 0
0.409646 0.492216 0
0.353389 0.51089 0
0.397738 0.551598 0
0.339864 0.570301 0
0.385899 0.612153 0
0.325913 0.631557 0
0.344507 0.29318 0
0.320568 0.413067 0
0.373553 0.673852 0
0.434438 0.653082 0
0.311416 0.69481 0
0.449777 0.528305 0
0.293513 0.534612 0
0.421431 0.715204 0
0.480917 0.696603 0
0.54504 0.34471 0
0.262743 0.649913 0
0.246209 0.712341 0
0.468564 0.755948 0
0.526091 0.735423 0
0.538207 0.68039 0
0.581228 0.716342 0
0.408756 0.777952 0
0.36234 0.239019 0
0.297047 0.251925 0
0.572109 0.771575 0
0.624906 0.752173 0
0.474824 0.414151 0
0.534351 0.182707 0
0.633682 0.70159 0
0.674547 0.736174 0
0.66826 0.788959 0
0.721117 0.76834 0
0.714515 0.825486 0
0.769074 0.802008 0
0.775287 0.746591 0
0.821903 0.778625 0
0.826767 0.726064 0
0.873257 0.756032 0
0.872997 0.697261 0
0.92331 0.732304 0
0.930014 0.67838 0
0.976061 0.710612 0
0.92456 0.784469 0
0.982178 0.654421 0
1.03016 0.688004 0
1.02037 0.747059 0
1.08 0.723819 0
1.08651 0.661896 0
1.1397 0.698204 0
1.13262 0.763657 0
1.19424 0.736545 0
1.18556 0.80161 0
1.24839 0.771772 0
1.25723 0.706382 0
1.31432 0.745787 0
4.66801 0.521361 0
4.74602 0.526202 0
4.70285 0.591278 0
4.78076 0.596023 0
4.73763 0.661207 0
4.78904 0.460969 0
2.61113 0.391267 0
2.65506 0.325217 0
2.57588 0.320198 0
2.61982 0.254148 0
2.69899 0.259163 0
2.54065 0.249131 0
2.49672 0.315179 0
2.46148 0.244124 0
2.41757 0.310166 0
2.38233 0.239117 0
2.33843 0.30514 0
2.30297 0.237979 0
2.25928 0.300748 0
2.22079 0.221377 0
2.17969 0.293884 0
2.14114 0.224266 0
2.10047 0.289841 0
2.0653 0.219144 0
2.02202 0.284919 0
1.98701 0.214164 0
1.94336 0.279863 0
3.82315 0.673327 0
3.78135 0.738156 0
3.86451 0.735958 0
3.70234 0.735494 0
4.52513 0.244409 0
4.32717 0.294467 0
4.29217 0.221862 0
0.619934 0.539507 0
0.599432 0.577132 0
0.575955 0.542712 0
0.554504 0.58245 0
4.65962 0.656481 0
4.69438 0.726169 0
4.6161 0.721747 0
4.77259 0.731352 0
4.65076 0.791486 0
4.57153 0.788793 0
4.2482 0.289182 0
4.21307 0.218308 0
4.1691 0.284563 0
4.13394 0.21352 0
0.835918 0.606341 0
0.806475 0.6384 0
4.08995 0.279537 0
0.640355 0.426737 0
0.596214 0.435837 0
0.630358 0.379178 0
0.689967 0.627735 0
1.90832 0.209948 0
1.86468 0.27519 0
1.82968 0.20518 0
1.78607 0.269797 0
0.281841 0.313314 0
0.232117 0.268621 0
0.216861 0.334396 0
4.05473 0.209347 0
4.01077 0.2745 0
3.97554 0.204394 0
3.93159 0.269388 0
0.297409 0.759367 0
0.231645 0.782943 0
0.180008 0.73598 0
1.32151 0.676369 0
1.38055 0.718092 0
1.36901 0.793947 0
1.43945 0.766002 0
0.249902 0.198865 0
0.932364 0.624392 0
1.75117 0.201034 0
1.70771 0.264658 0
1.673 0.195402 0
1.62985 0.260294 0
1.59532 0.191927 0
1.55236 0.254233 0
3.89629 0.200227 0
3.85238 0.264494 0
3.81708 0.195303 0
3.77304 0.259453 0
2.66368 0.189084 0
2.74279 0.19534 0
2.77814 0.264556 0
2.82201 0.199823 0
2.85733 0.269552 0
2.90126 0.203886 0
2.93654 0.274416 0
2.98045 0.20868 0
3.01573 0.279376 0
3.0597 0.213193 0
[...]
CELL_DATA 2220
VECTORS velocity double
23.6603 -1.96798 0.0
17.4064 0.483718 0.0
24.8973 6.08224 0.0
24.5302 1.1359 0.0
24.0634 -2.32846 0.0
31.6508 -1.27293 0.0
14.6506 0.463159 0.0
16.3198 -0.0297901 0.0
28.0814 11.2515 0.0
31.1561 -0.889765 0.0
17.9969 16.6488 0.0
15.5686 0.259488 0.0
12.3645 0.19097 0.0
24.6307 -6.68843 0.0
22.6891 15.5754 0.0
19.7467 11.2418 0.0
16.8226 0.792947 0.0
13.5824 0.610019 0.0
15.3599 -0.137115 0.0
16.6654 -0.121038 0.0
21.0226 4.6319 0.0
40.5369 -6.15768 0.0
15.8135 0.697472 0.0
16.1308 0.55634 0.0
29.1812 -1.09697 0.0
22.6496 -5.58902 0.0
21.6388 -2.29127 0.0
13.8089 0.542499 0.0
24.1879 1.20453 0.0
27.2383 1.1479 0.0
23.3722 -3.26989 0.0
32.8187 0.131872 0.0
11.3754 -0.119663 0.0
31.0523 -12.7405 0.0
47.9981 1.68468 0.0
31.768 -1.43599 0.0
46.8613 2.53431 0.0
13.3405 -0.126694 0.0
28.5292 1.39388 0.0
27.8016 -1.87313 0.0
13.1459 -1.23044 0.0
28.1612 10.2707 0.0
20.5547 0.943763 0.0
14.8432 0.00332066 0.0
13.3939 -0.065365 0.0
12.0053 0.0060527 0.0
15.5718 0.634465 0.0
12.1912 -0.0188291 0.0
30.9151 -0.767283 0.0
33.4812 0.51965 0.0
16.6398 3.65586 0.0
12.2312 0.0972156 0.0
15.2531 0.622177 0.0
15.5708 0.111141 0.0
14.0209 0.647792 0.0
27.6469 -2.45682 0.0
35.032 -0.409023 0.0
12.9014 0.552595 0.0
13.3452 0.56057 0.0
33.8455 0.397901 0.0
-0.0766281 -5.5948 0.0
30.3723 -1.73936 0.0
25.0838 -4.38236 0.0
15.6386 0.615026 0.0
15.4394 0.691215 0.0
33.5329 -11.3373 0.0
19.2494 -1.13476 0.0
22.3558 10.5352 0.0
13.0417 0.668247 0.0
13.322 0.578808 0.0
15.4209 0.162344 0.0
32.8225 11.7056 0.0
11.9889 0.155529 0.0
32.4585 1.0099 0.0
30.3091 -1.50445 0.0
48.5899 -0.320754 0.0
27.6331 4.42864 0.0
17.3752 -3.5374 0.0
26.7157 10.1358 0.0
14.5708 0.113652 0.0
22.8667 2.76358 0.0
28.3768 2.73476 0.0
14.5486 -0.248114 0.0
11.9322 0.104125 0.0
15.071 0.460039 0.0
15.0129 0.243664 0.0
21.3558 -2.34484 0.0
12.485 0.209171 0.0
12.7083 0.370332 0.0
28.8052 11.5663 0.0
24.4362 -3.71576 0.0
17.5886 4.4291 0.0
15.5327 -0.1707 0.0
25.2406 6.13495 0.0
47.8312 0.123714 0.0
27.6747 2.01043 0.0
42.0263 4.85366 0.0
4.4038 -18.1035 0.0
0.628667 -4.28352 0.0
28.7926 13.4692 0.0
-5.5939 -18.3176 0.0
21.0833 -4.48763 0.0
15.3687 0.566887 0.0
12.8595 1.14025 0.0
42.0684 -5.77668 0.0
48.1714 -1.01152 0.0
32.4543 -1.05988 0.0
33.0978 -1.36978 0.0
4.41518 -0.115353 0.0
15.3931 1.21564 0.0
31.058 1.03903 0.0
27.4869 -8.23627 0.0
32.2767 -0.879542 0.0
10.7952 -0.591442 0.0
31.8554 -2.5287 0.0
13.0213 0.491067 0.0
23.4323 -5.50618 0.0
18.215 -0.440409 0.0
2.79666 -20.6908 0.0
29.8434 10.6825 0.0
16.8547 -2.87838 0.0
37.7645 -0.668796 0.0
13.8121 3.29481 0.0
34.8381 -8.58397 0.0
48.776 0.832362 0.0
13.6074 -11.6776 0.0
47.4325 -1.59616 0.0
23.2241 1.0604 0.0
26.7643 -7.86666 0.0
-1.03637 9.15831 0.0
12.3733 1.67699 0.0
35.3157 4.5008 0.0
28.3862 5.84833 0.0
14.5424 7.97083 0.0
27.9614 1.47457 0.0
11.5745 8.03686 0.0
11.0857 -0.00491366 0.0
18.3112 -3.61063 0.0
16.3873 -12.6758 0.0
34.0652 0.527064 0.0
20.4289 -4.67496 0.0
14.6281 -0.033904 0.0
31.1565 -3.19783 0.0
48.2909 0.475975 0.0
31.8231 0.958273 0.0
22.6802 5.38685 0.0
-8.91003 9.16454 0.0
7.92938 -18.7163 0.0
32.0108 2.57739 0.0
32.7375 -1.96271 0.0
12.9114 -0.348984 0.0
29.3589 9.56406 0.0
38.3953 -0.0171722 0.0
31.1448 -10.7349 0.0
6.29992 6.14073 0.0
16.6234 0.229587 0.0
22.0703 -1.397 0.0
17.3032 0.383101 0.0
10.45 -0.819257 0.0
15.7269 -3.59591 0.0
32.9638 8.40375 0.0
13.084 0.0280039 0.0
-9.29037 -9.39851 0.0
32.8936 0.127302 0.0
11.8823 0.0911544 0.0
31.9286 -12.2355 0.0
22.9831 -14.5848 0.0
49.1549 0.387254 0.0
16.5037 0.166367 0.0
24.9765 10.8567 0.0
-3.83786 15.2785 0.0
11.6241 0.0303194 0.0
15.2711 0.078992 0.0
-1.75464 -9.45925 0.0
8.59618 -5.17343 0.0
26.8359 9.19545 0.0
25.8216 4.34221 0.0
25.2244 8.48323 0.0
8.54415 -1.78581 0.0
16.3574 0.0564706 0.0
37.0935 -0.282094 0.0
16.5216 -3.70381 0.0
17.3217 -15.5889 0.0
4.26814 14.7106 0.0
16.6659 -0.0190745 0.0
27.6004 -1.79957 0.0
47.7883 0.123834 0.0
13.1842 -0.369899 0.0
43.9054 3.77994 0.0
49.0986 0.234373 0.0
12.5652 -0.98682 0.0
13.0142 -0.195372 0.0
28.1089 -9.09555 0.0
32.3135 2.16859 0.0
22.2947 -0.445745 0.0
47.6442 -0.273603 0.0
22.5998 0.807138 0.0
14.8935 -0.569011 0.0
6.34249 -0.308047 0.0
15.3412 -0.525585 0.0
14.3172 -5.95586 0.0
20.5208 -1.00243 0.0
35.9156 -10.1056 0.0
15.574 -0.119521 0.0
13.3881 1.41682 0.0
20.414 -3.5257 0.0
21.884 -4.18268 0.0
14.307 0.0250168 0.0
22.2176 1.37326 0.0
8.01732 -1.36967 0.0
15.2755 0.615333 0.0
11.6903 18.5734 0.0
21.9625 -0.191965 0.0
25.4159 10.8994 0.0
28.2036 5.5862 0.0
15.8889 2.11474 0.0
12.8384 0.568723 0.0
15.2489 0.811056 0.0
9.46613 1.86711 0.0
31.0318 0.912431 0.0
31.8081 0.611303 0.0
7.25495 -0.230488 0.0
12.7344 0.755156 0.0
6.90565 -0.0884119 0.0
15.4549 -0.0853406 0.0
18.2045 -1.18934 0.0
14.3268 -2.6037 0.0
21.2202 15.9866 0.0
26.3096 -5.57775 0.0
11.4391 0.347918 0.0
19.1839 1.29642 0.0
20.6645 -1.58578 0.0
10.4496 -0.0775467 0.0
15.7971 -0.214533 0.0
11.7887 -0.247062 0.0
48.9719 0.122251 0.0
7.05004 -7.24343 0.0
15.3772 -0.200924 0.0
15.2398 -0.226578 0.0
13.4052 -0.111409 0.0
47.6937 -0.173567 0.0
37.023 9.25989 0.0
44.446 -3.90987 0.0
7.7455 4.01718e-05 0.0
13.2333 6.68489 0.0
33.2631 0.0236097 0.0
16.6342 -0.298736 0.0
33.9347 -0.744468 0.0
4.66829 7.45396 0.0
20.9654 0.603729 0.0
11.477 -7.08784 0.0
7.76357 -0.0551512 0.0
21.3152 -14.1462 0.0
31.2098 -0.176121 0.0
26.6271 -6.72881 0.0
15.0549 0.332038 0.0
-9.117 1.69116 0.0
32.3234 0.231181 0.0
22.0497 -0.0876074 0.0
48.2912 0.21082 0.0
17.3092 -0.278981 0.0
39.2649 -0.428294 0.0
11.3573 0.547651 0.0
18.8009 -4.5412 0.0
7.46803 -0.637732 0.0
8.10796 -0.0648121 0.0
13.8877 -0.924595 0.0
13.1144 -4.81243 0.0
18.4256 4.58663 0.0
33.5821 -0.0441276 0.0
29.1189 1.10577 0.0
30.8074 0.0224737 0.0
12.5853 0.269477 0.0
30.439 -1.91759 0.0
4.2872 -11.7192 0.0
45.9832 -2.50094 0.0
21.652 -14.2247 0.0
18.4707 -2.529 0.0
14.1377 3.10716 0.0
13.8352 0.076674 0.0
10.9033 -15.1034 0.0
25.9123 -0.0388831 0.0
46.0862 -0.5458 0.0
21.347 0.865081 0.0
30.2901 -1.69311 0.0
19.3927 -0.718937 0.0
36.3834 -0.26444 0.0
20.7104 0.732203 0.0
13.1377 -0.167213 0.0
12.6387 -0.191862 0.0
-9.11781 -2.14341 0.0
14.2702 -1.29846 0.0
8.40236 1.7509 0.0
15.9623 -6.37057 0.0
16.7167 -1.77072 0.0
20.1257 -0.204021 0.0
20.4407 -0.17963 0.0
22.0375 0.335811 0.0
43.7309 -3.76725 0.0
29.217 5.38099 0.0
11.1858 -0.952351 0.0
27.7789 8.46881 0.0
25.4802 -7.01624 0.0
7.63657 0.0596859 0.0
20.7776 -12.3647 0.0
16.0817 0.796531 0.0
12.1912 -0.137135 0.0
12.8208 -0.204005 0.0
16.6099 0.285346 0.0
7.62613 1.37184 0.0
11.5611 1.88526 0.0
10.6348 4.80056 0.0
4.44843 18.2175 0.0
45.7546 -1.4234 0.0
32.6001 11.7711 0.0
14.9481 -0.211106 0.0
25.9421 7.1259 0.0
11.9104 -0.000676909 0.0
48.5778 -0.248087 0.0
29.2416 5.97303 0.0
21.9759 14.2564 0.0
13.7361 3.17772 0.0
31.7081 0.261716 0.0
12.1582 0.112895 0.0
10.0446 7.03578 0.0
10.164 -1.78911 0.0
30.8058 0.0837869 0.0
30.0825 1.22631 0.0
32.4411 0.62 0.0
9.34057 -1.88157 0.0
22.441 -11.1657 0.0
47.5293 1.05659 0.0
20.4701 -3.9485 0.0
11.2657 -0.482827 0.0
32.7424 -10.6983 0.0
47.8572 -0.411534 0.0
25.27 -0.847711 0.0
27.9633 8.43501 0.0
37.5932 -1.03413 0.0
15.1265 -0.22889 0.0
7.36346 0.883434 0.0
13.4058 -0.227087 0.0
6.69668 -0.131723 0.0
5.7809 -0.828676 0.0
19.4501 15.833 0.0
27.8656 9.86216 0.0
8.20133 3.53737 0.0
28.2575 6.96933 0.0
30.3414 4.15333 0.0
4.95674 -0.951469 0.0
35.7267 -8.25446 0.0
4.37122 0.816017 0.0
6.66117 0.186704 0.0
16.1593 10.5726 0.0
7.14507 0.906149 0.0
49.1714 -0.0192104 0.0
36.247 -9.30547 0.0
4.09428 -0.390571 0.0
30.0861 0.843694 0.0
31.898 -0.985144 0.0
29.1832 4.32381 0.0
7.37268 18.7183 0.0
22.5817 6.18094 0.0
28.69 5.5488 0.0
6.17478 0.259722 0.0
33.6575 0.789155 0.0
41.4472 6.49656 0.0
4.51168 -0.878329 0.0
6.50598 -0.211741 0.0
39.4098 -0.84871 0.0
4.62385 0.92327 0.0
42.6279 -4.65386 0.0
35.8014 9.80153 0.0
16.6432 -0.85024 0.0
6.76163 -0.060897 0.0
13.3431 0.393139 0.0
21.4801 0.384422 0.0
21.7626 0.110242 0.0
48.6655 -0.0111751 0.0
20.2357 -0.13023 0.0
13.0266 0.629999 0.0
46.9905 0.135891 0.0
48.8363 -0.12521 0.0
32.3914 0.381008 0.0
45.2347 0.526768 0.0
30.3861 -0.141253 0.0
42.1603 -5.18884 0.0
31.7283 0.194256 0.0
23.4231 -6.2117 0.0
29.741 3.28843 0.0
10.7111 0.632214 0.0
29.0881 0.0334092 0.0
31.5402 -0.616126 0.0
25.1036 -6.09665 0.0
9.28225 -0.703954 0.0
13.7212 -2.06474 0.0
48.0264 0.20226 0.0
8.92626 0.550453 0.0
31.7789 0.178038 0.0
46.8456 0.484371 0.0
7.42381 0.214916 0.0
25.938 3.99517 0.0
28.1922 4.88899 0.0
32.3241 0.122659 0.0
40.5959 7.23474 0.0
44.7031 4.37608 0.0
5.22162 3.26132 0.0
7.34915 1.10859 0.0
22.3246 1.15959 0.0
29.2487 -12.2843 0.0
15.7689 -14.2171 0.0
5.55772 0.88271 0.0
44.3002 0.0480064 0.0
27.9905 -5.88011 0.0
47.1723 -0.465139 0.0
32.3071 0.147605 0.0
4.15615 -0.130679 0.0
4.17244 0.769498 0.0
27.8466 9.21345 0.0
6.44928 0.110296 0.0
28.6744 6.8979 0.0
44.7884 0.723396 0.0
4.30415 0.00138911 0.0
6.47105 -0.0382397 0.0
28.571 3.80092 0.0
29.1205 0.423183 0.0
4.05703 0.138542 0.0
25.7769 -0.138036 0.0
31.8587 0.188374 0.0
7.7178 -1.08993 0.0
32.3661 0.130912 0.0
26.3293 3.68776 0.0
46.4102 -0.718718 0.0
30.0772 2.472 0.0
6.86283 -0.492969 0.0
42.3257 5.33111 0.0
5.46228 -0.946224 0.0
6.68367 0.36598 0.0
20.9917 -9.86745 0.0
6.65706 0.377352 0.0
26.1695 4.68034 0.0
29.0568 2.90826 0.0
41.8412 4.57975 0.0
45.6374 3.06422 0.0
10.8657 -0.86486 0.0
18.9255 3.47471 0.0
47.0269 0.452432 0.0
4.16326 -0.505156 0.0
3.80033 0.504139 0.0
12.7472 -1.43983 0.0
10.4347 0.790469 0.0
31.8624 -0.652787 0.0
7.37159 -0.33869 0.0
24.6292 0.627391 0.0
31.7805 1.49887 0.0
7.10276 0.756695 0.0
12.6409 0.581253 0.0
27.8474 6.16274 0.0
7.09804 0.30655 0.0
30.0633 1.77855 0.0
26.492 2.86443 0.0
30.061 0.417194 0.0
6.42802 -0.410001 0.0
4.98814 0.291107 0.0
8.15668 0.599322 0.0
21.8539 -0.553173 0.0
10.0037 -1.45745 0.0
32.4509 0.150069 0.0
4.16881 0.0764953 0.0
44.6824 2.2869 0.0
7.84799 -0.462259 0.0
3.76133 0.590982 0.0
15.4884 -1.16929 0.0
27.7091 7.56567 0.0
7.53458 -0.861282 0.0
30.1084 0.325751 0.0
28.986 2.17814 0.0
24.2598 4.30948 0.0
31.9887 0.199959 0.0
26.5465 2.20289 0.0
16.3645 -2.26299 0.0
34.0325 -8.9932 0.0
30.7824 -3.6542 0.0
26.5424 1.66002 0.0
6.66948 -0.541212 0.0
7.11416 0.564143 0.0
47.134 -0.124849 0.0
3.64308 0.3465 0.0
35.9215 -0.631719 0.0
17.3441 5.68603 0.0
32.1294 0.193367 0.0
3.70812 0.418502 0.0
4.2287 -0.627517 0.0
29.0658 1.57848 0.0
27.7843 8.96303 0.0
22.3684 -0.146019 0.0
32.1352 -0.878414 0.0
27.4681 0.0564897 0.0
28.1588 -0.834278 0.0
13.6497 -7.10816 0.0
28.1177 -0.0939646 0.0
24.9931 3.15194 0.0
4.02179 -0.27893 0.0
26.5327 1.21966 0.0
22.1905 5.16517 0.0
13.1862 -0.579401 0.0
31.7645 0.39323 0.0
4.42189 -0.324078 0.0
4.88264 0.330129 0.0
24.8984 4.00544 0.0
29.0248 -0.121639 0.0
27.4953 -0.949979 0.0
15.6657 -0.126302 0.0
28.9554 1.33983 0.0
32.5583 0.162631 0.0
28.3756 -4.43226 0.0
4.21857 1.26824 0.0
30.0501 0.586847 0.0
30.4839 -4.1447 0.0
25.0756 1.89481 0.0
25.3756 3.71377 0.0
8.2709 -2.15404 0.0
31.7707 -12.0062 0.0
5.11523 -4.18166 0.0
26.923 -13.6881 0.0
29.5611 -1.05231 0.0
30.283 4.58483 0.0
29.5267 1.67679 0.0
4.38126 -1.11584 0.0
26.5399 0.891091 0.0
27.0127 2.25064 0.0
25.0567 1.43896 0.0
33.3377 0.0946699 0.0
25.073 2.45436 0.0
29.0987 0.775469 0.0
27.1408 -0.661199 0.0
25.5655 -3.46957 0.0
8.66536 -3.13027 0.0
45.925 -0.725916 0.0
12.442 -0.113866 0.0
22.7233 -4.31355 0.0
6.99262 -5.5215 0.0
38.2935 8.06431 0.0
32.7547 0.121595 0.0
2.97291 -0.235908 0.0
3.04861 0.243664 0.0
29.0628 0.558497 0.0
44.0567 0.784842 0.0
26.5955 0.667083 0.0
20.426 5.16205 0.0
4.55275 -0.208407 0.0
7.49099 -0.310344 0.0
5.85088 0.611264 0.0
2.7365 1.70579 0.0
5.74818 -2.98282 0.0
29.397 -5.45552 0.0
33.4689 0.0801267 0.0
41.9229 5.90206 0.0
0.912795 0.90169 0.0
23.9717 -0.0521912 0.0
25.6043 -0.0516976 0.0
24.5429 -3.39143 0.0
20.388 5.51916 0.0
1.0392 -0.855509 0.0
2.97331 -1.53853 0.0
21.7643 0.355609 0.0
21.4074 0.805327 0.0
25.101 1.07252 0.0
17.5382 -2.56401 0.0
29.016 -0.0684677 0.0
48.9472 -0.258569 0.0
30.0597 -0.0629362 0.0
23.5 4.32713 0.0
32.3605 0.102607 0.0
3.96435 -0.237352 0.0
28.127 7.54702 0.0
32.136 0.348544 0.0
30.1878 0.29232 0.0
31.8012 -0.00796401 0.0
27.3803 -2.11167 0.0
3.80645 0.165119 0.0
32.2243 -0.200521 0.0
5.34207 -0.755736 0.0
12.8854 1.39199 0.0
20.8387 -0.370112 0.0
26.6599 0.533373 0.0
25.137 0.798679 0.0
30.729 1.06247 0.0
31.6224 0.862315 0.0
30.8172 1.2501 0.0
3.60829 0.241234 0.0
6.91335 0.424076 0.0
5.95733 -0.491734 0.0
32.644 0.0730525 0.0
29.2101 0.355763 0.0
45.9749 0.535607 0.0
5.21363 0.875271 0.0
29.4353 0.061964 0.0
28.0387 2.59639 0.0
10.4657 5.94716 0.0
29.7051 -0.0508939 0.0
2.45768 0.513421 0.0
28.571 -0.0861304 0.0
27.949 -0.775768 0.0
28.694 -0.556872 0.0
21.5591 -0.23892 0.0
19.8649 -0.228387 0.0
28.2256 -0.12783 0.0
6.90624 -0.722456 0.0
47.6538 -1.18691 0.0
32.201 -0.190578 0.0
30.76 -0.145318 0.0
30.3248 0.288876 0.0
26.7873 0.457793 0.0
14.8199 -0.00561294 0.0
29.3309 0.334248 0.0
32.1306 -2.54261 0.0
32.4026 0.0509647 0.0
7.3645 0.297294 0.0
25.9627 3.59157 0.0
2.61692 -0.470353 0.0
32.5768 0.42366 0.0
32.8963 0.239507 0.0
26.956 0.422941 0.0
1.82601 0.723375 0.0
31.3368 -10.969 0.0
32.7884 0.077896 0.0
31.4444 0.975183 0.0
29.3608 -0.0897771 0.0
30.4955 -0.311012 0.0
30.5092 0.288034 0.0
32.5714 0.0740885 0.0
32.4643 0.193147 0.0
32.6695 0.153734 0.0
27.2074 0.413432 0.0
3.26265 0.267093 0.0
11.2586 0.813256 0.0
31.5917 -0.601439 0.0
22.8488 8.94444 0.0
1.95839 -0.668318 0.0
6.43171 -0.321151 0.0
26.3251 -12.3278 0.0
27.9952 2.46181 0.0
29.5263 0.333345 0.0
12.057 -0.610968 0.0
30.5595 -0.172527 0.0
31.3008 -0.139365 0.0
19.4778 6.26688 0.0
6.23747 0.449267 0.0
3.04609 -0.313093 0.0
31.5689 -3.08736 0.0
23.5109 3.74928 0.0
28.4864 -2.09046 0.0
32.7934 0.328078 0.0
11.4189 -1.63801 0.0
29.7517 0.318185 0.0
25.2074 0.633258 0.0
32.3955 -0.0500413 0.0
2.90151 0.362179 0.0
30.7188 0.260184 0.0
32.4087 0.00151942 0.0
3.58576 -0.139164 0.0
27.5105 0.387795 0.0
32.2666 0.15757 0.0
33.0508 0.431022 0.0
31.126 0.108572 0.0
31.1253 -0.189769 0.0
32.7797 0.0320035 0.0
27.1806 -0.758723 0.0
31.1504 -0.0743301 0.0
30.9578 0.190557 0.0
30.45 0.0686947 0.0
30.3801 -0.21622 0.0
3.35449 -0.204307 0.0
31.2298 0.24306 0.0
30.2198 -0.246451 0.0
4.48859 0.200051 0.0
32.7463 -0.0176047 0.0
7.1114 0.385494 0.0
30.017 0.25193 0.0
30.9744 -0.227653 0.0
33.0726 0.32414 0.0
31.8575 -0.0500686 0.0
31.2377 0.0425304 0.0
32.8211 0.226362 0.0
14.6507 0.182064 0.0
28.2791 0.15643 0.0
26.4049 1.20271 0.0
27.7622 0.289775 0.0
3.24335 -0.040882 0.0
32.1336 0.0968213 0.0
30.2717 0.150213 0.0
24.7168 -3.87297 0.0
3.5845 -0.265116 0.0
25.5133 0.474015 0.0
3.50511 0.189777 0.0
23.2772 -3.64859 0.0
27.512 1.3753 0.0
25.7596 0.449069 0.0
29.0719 -0.139823 0.0
30.0715 -0.256019 0.0
26.1121 0.437469 0.0
31.3556 -0.0634748 0.0
36.8911 9.53849 0.0
23.2254 -4.33526 0.0
30.5569 -0.0588513 0.0
32.9025 0.463335 0.0
32.7731 0.473135 0.0
33.0181 0.300623 0.0
30.839 -0.247766 0.0
33.2221 0.346291 0.0
26.6313 -0.126261 0.0
33.1957 0.346583 0.0
29.7535 -0.150853 0.0
28.4946 0.0632365 0.0
13.7783 0.317912 0.0
31.4465 -0.0578348 0.0
33.1935 0.314289 0.0
24.6177 -0.608451 0.0
32.9451 0.402921 0.0
30.7161 -0.242554 0.0
29.9373 -0.234876 0.0
3.47644 0.202181 0.0
30.5726 0.00783792 0.0
25.3404 0.535256 0.0
33.356 0.317018 0.0
23.1736 -0.264766 0.0
7.65745 0.212272 0.0
28.6955 -0.00420025 0.0
32.9778 0.307761 0.0
26.8042 0.219782 0.0
26.1341 -0.130147 0.0
29.8154 -0.177039 0.0
32.9803 0.181223 0.0
30.6081 -0.205321 0.0
27.2521 0.105669 0.0
17.5696 4.65062 0.0
32.7039 -0.0713455 0.0
33.3459 0.277661 0.0
32.0323 0.743493 0.0
13.4702 -0.0737366 0.0
30.6618 -0.044962 0.0
25.0431 -0.148461 0.0
4.05138 0.1263 0.0
7.11675 0.251822 0.0
30.5033 -0.138944 0.0
32.3682 0.245557 0.0
28.4089 -0.25894 0.0
29.6891 -0.0956035 0.0
33.2419 0.243258 0.0
28.8244 -0.187079 0.0
28.8571 -0.0593447 0.0
29.5226 -0.0132028 0.0
25.4488 -0.18317 0.0
27.937 -0.171726 0.0
33.4598 0.235977 0.0
25.7534 -0.152465 0.0
32.7145 0.147341 0.0
28.2077 -0.271515 0.0
29.2697 -0.221184 0.0
27.6863 -0.213431 0.0
25.1567 -0.218725 0.0
32.4138 0.209158 0.0
30.3781 -0.0606881 0.0
4.97206 0.141893 0.0
7.79335 0.206376 0.0
33.239 0.104375 0.0
32.9264 0.0392299 0.0
26.3467 0.392857 0.0
27.5013 0.0104601 0.0
27.7231 -0.0388783 0.0
33.127 0.409668 0.0
29.2812 0.049509 0.0
32.1737 0.673647 0.0
31.3092 -0.0117497 0.0
24.8848 -0.253742 0.0
27.0223 -0.275704 0.0
27.497 0.0225381 0.0
30.2044 0.00836445 0.0
33.4496 0.180776 0.0
32.3762 -0.102833 0.0
27.4618 -0.24953 0.0
29.1528 8.53985 0.0
23.8503 -0.201415 0.0
27.2409 -0.274768 0.0
24.6382 -0.284825 0.0
30.1388 1.31005 0.0
28.9759 0.0727087 0.0
29.9708 0.0479477 0.0
28.035 -0.248916 0.0
24.1782 -0.171481 0.0
26.4796 -0.0241009 0.0
32.8822 0.260305 0.0
24.3696 -0.292688 0.0
26.8382 -0.224337 0.0
28.6753 0.046428 0.0
15.484 0.140389 0.0
31.7976 0.110608 0.0
24.0692 -0.231401 0.0
13.4397 0.0963687 0.0
23.552 -0.234975 0.0
29.7106 0.0436449 0.0
23.9094 -0.113712 0.0
26.6632 -0.129951 0.0
24.5422 -0.154292 0.0
3.56489 -0.0505071 0.0
6.70863 -0.0919929 0.0
15.4496 0.208275 0.0
28.49 -0.230073 0.0
27.7149 -0.0846397 0.0
28.4354 -0.00956107 0.0
29.4772 0.000226417 0.0
23.6779 0.00345775 0.0
7.55788 0.0927888 0.0
33.0329 0.196866 0.0
6.91079 -0.101147 0.0
33.5036 0.098468 0.0
28.2885 -0.0642883 0.0
23.2698 -0.269639 0.0
27.1758 0.0835523 0.0
22.9297 -0.299355 0.0
33.4719 0.016648 0.0
26.754 0.116137 0.0
3.69707 -0.0525553 0.0
6.81078 -0.10173 0.0
27.8779 -0.180022 0.0
3.96233 0.057019 0.0
29.3089 -0.0599512 0.0
22.6386 -0.275142 0.0
22.4 -0.164965 0.0
26.1919 0.0651301 0.0
28.9973 -0.129043 0.0
33.0832 0.0262147 0.0
26.3653 0.0921335 0.0
26.0525 0.0304101 0.0
6.87901 -0.0876178 0.0
3.84619 -0.0522755 0.0
12.8097 0.170406 0.0
22.1839 -0.0336483 0.0
25.7343 0.12555 0.0
28.6072 -0.228034 0.0
25.2446 0.137078 0.0
29.9892 -0.0683712 0.0
13.1267 0.192134 0.0
24.8448 0.0823402 0.0
29.2466 -0.103547 0.0
25.8381 -0.0189444 0.0
6.89464 0.0985561 0.0
3.47999 -0.0354084 0.0
2.92774 -0.0515602 0.0
3.74988 -0.0470056 0.0
6.81616 -0.0285742 0.0
7.24974 0.109469 0.0
3.17727 -0.0131364 0.0
3.59523 0.000293399 0.0
6.67156 -0.0874137 0.0
3.48884 -0.0327498 0.0
3.77296 -0.0284617 0.0
3.98592 0.0874215 0.0
7.40731 -0.0890887 0.0
3.88167 0.0534686 0.0
6.59053 -0.0623654 0.0
3.72162 0.0525941 0.0
7.00856 -0.0478808 0.0
6.79494 -0.0606593 0.0
3.62965 0.107471 0.0
7.5093 0.128336 0.0
6.66438 -0.0719279 0.0
6.53164 -0.079446 0.0
3.71548 0.174376 0.0
6.31767 -0.0446757 0.0
6.77676 0.131874 0.0
3.4197 -0.0328906 0.0
6.60104 -0.0430254 0.0
3.88871 0.00153216 0.0
3.44629 0.0614775 0.0
6.40252 -0.103704 0.0
3.72624 0.12933 0.0
4.48175 0.0689735 0.0
3.74247 0.219494 0.0
3.15898 0.0544549 0.0
3.40197 -0.0102411 0.0
6.66917 0.0177789 0.0
3.58811 -0.0499845 0.0
3.68363 -0.0522701 0.0
3.81227 0.143358 0.0
3.84249 0.14549 0.0
3.73144 -0.0159577 0.0
3.68119 0.0382651 0.0
3.13301 -0.0517148 0.0
3.5407 -0.0303064 0.0
4.38986 -0.00678868 0.0
7.45463 -0.0198701 0.0
3.79273 -0.108812 0.0
4.51879 0.0495885 0.0
6.3304 0.110707 0.0
6.22967 -0.113665 0.0
3.50267 -0.0446725 0.0
3.85173 0.143084 0.0
3.539 0.0294246 0.0
6.96526 -0.0105108 0.0
3.36401 0.0712576 0.0
3.72606 0.0532717 0.0
3.47899 -0.0469962 0.0
7.03895 0.28096 0.0
4.29063 -0.0586904 0.0
3.05761 0.00976937 0.0
3.47536 0.00719146 0.0
2.96441 0.0328361 0.0
3.81685 0.0538091 0.0
3.85879 -0.0177998 0.0
5.82381 -0.0477043 0.0
2.6433 -0.0178583 0.0
6.86658 0.262304 0.0
7.09292 0.0920062 0.0
28.7756 -0.121346 0.0
28.2891 -0.0793182 0.0
31.3872 -0.11413 0.0
24.5522 0.0194637 0.0
33.127 -0.206875 0.0
33.168 -0.0402613 0.0
24.2893 0.00263346 0.0
33.1931 -0.208494 0.0
33.3929 -0.142432 0.0
33.2575 -0.211736 0.0
33.4596 -0.0622095 0.0
25.7716 -0.0100483 0.0
28.4372 -0.0664427 0.0
33.3386 -0.174487 0.0
27.6057 -0.110746 0.0
33.0307 -0.163085 0.0
29.3278 -0.109489 0.0
32.9644 -0.139524 0.0
30.9953 -0.160672 0.0
31.5635 -0.186486 0.0
21.1809 0.0682976 0.0
32.9193 -0.220188 0.0
32.7431 -0.0883819 0.0
31.6885 -0.159006 0.0
33.0442 -0.156717 0.0
23.6964 -0.0843186 0.0
30.7255 -0.095887 0.0
28.484 -0.0993942 0.0