# vtk DataFile Version 3.0
Malha 2D com triângulos e temperatura
ASCII
DATASET UNSTRUCTURED_GRID

POINTS 1194 double
0 0 0
5 0 0
5 1 0
0 1 0
0.85 0.5 0
0.842388 0.538268 0
0.820711 0.570711 0
0.788268 0.592388 0
0.75 0.6 0
0.711732 0.592388 0
0.679289 0.570711 0
0.657612 0.538268 0
0.65 0.5 0
0.657612 0.461732 0
0.679289 0.429289 0
0.711732 0.407612 0
0.75 0.4 0
0.788268 0.407612 0
0.820711 0.429289 0
0.842388 0.461732 0
0.0793651 0 0
0.15873 0 0
0.238095 0 0
0.31746 0 0
0.396825 0 0
0.47619 0 0
0.555556 0 0
0.634921 0 0
0.714286 0 0
0.793651 0 0
0.873016 0 0
0.952381 0 0
1.03175 0 0
1.11111 0 0
1.19048 0 0
1.26984 0 0
1.34921 0 0
1.42857 0 0
1.50794 0 0
1.5873 0 0
1.66667 0 0
1.74603 0 0
1.8254 0 0
1.90476 0 0
1.98413 0 0
2.06349 0 0
2.14286 0 0
2.22222 0 0
2.30159 0 0
2.38095 0 0
2.46032 0 0
2.53968 0 0
2.61905 0 0
2.69841 0 0
2.77778 0 0
2.85714 0 0
2.93651 0 0
3.01587 0 0
3.09524 0 0
3.1746 0 0
3.25397 0 0
3.33333 0 0
3.4127 0 0
3.49206 0 0
3.57143 0 0
3.65079 0 0
3.73016 0 0
3.80952 0 0
3.88889 0 0
3.96825 0 0
4.04762 0 0
4.12698 0 0
4.20635 0 0
4.28571 0 0
4.36508 0 0
4.44444 0 0
4.52381 0 0
4.60317 0 0
4.68254 0 0
4.7619 0 0
4.84127 0 0
4.92063 0 0
5 0.0769231 0
5 0.153846 0
5 0.230769 0
5 0.307692 0
5 0.384615 0
5 0.461538 0
5 0.538462 0
5 0.615385 0
5 0.692308 0
5 0.769231 0
5 0.846154 0
5 0.923077 0
4.92063 1 0
4.84127 1 0
4.7619 1 0
4.68254 1 0
4.60317 1 0
4.52381 1 0
4.44444 1 0
4.36508 1 0
4.28571 1 0
4.20635 1 0
4.12698 1 0
4.04762 1 0
3.96825 1 0
3.88889 1 0
3.80952 1 0
3.73016 1 0
3.65079 1 0
3.57143 1 0
3.49206 1 0
3.4127 1 0
3.33333 1 0
3.25397 1 0
3.1746 1 0
3.09524 1 0
3.01587 1 0
2.93651 1 0
2.85714 1 0
2.77778 1 0
2.69841 1 0
2.61905 1 0
2.53968 1 0
2.46032 1 0
2.38095 1 0
2.30159 1 0
2.22222 1 0
2.14286 1 0
2.06349 1 0
1.98413 1 0
1.90476 1 0
1.8254 1 0
1.74603 1 0
1.66667 1 0
1.5873 1 0
1.50794 1 0
1.42857 1 0
1.34921 1 0
1.26984 1 0
1.19048 1 0
1.11111 1 0
1.03175 1 0
0.952381 1 0
0.873016 1 0
0.793651 1 0
0.714286 1 0
0.634921 1 0
0.555556 1 0
0.47619 1 0
0.396825 1 0
0.31746 1 0
0.238095 1 0
0.15873 1 0
0.0793651 1 0
0 0.923077 0
0 0.846154 0
0 0.769231 0
0 0.692308 0
0 0.615385 0
0 0.538462 0
0 0.461538 0
0 0.384615 0
0 0.307692 0
0 0.230769 0
0 0.153846 0
0 0.0769231 0
0.879698 0.466718 0
1.3085 0.931947 0
1.30532 0.0638546 0
4.93832 0.504275 0
0.620452 0.46964 0
3.99858 0.0669607 0
1.63721 0.934258 0
3.3751 0.0523709 0
4.3254 0.0687322 0
2.42354 0.0642082 0
2.97619 0.0687322 0
2.02101 0.0693621 0
3.68108 0.0581336 0
2.65899 0.932655 0
4.178 0.939994 0
3.21614 0.938179 0
2.25483 0.919987 0
3.53215 0.928998 0
3.84921 0.931268 0
1.69647 0.0674297 0
1.94349 0.930209 0
4.48413 0.931268 0
2.97813 0.942022 0
2.74097 0.0673855 0
0.859645 0.573263 0
0.639718 0.573116 0
0.0651563 0.652836 0
0.0635304 0.346121 0
4.56232 0.0679683 0
0.830393 0.392645 0
0.669618 0.39275 0
1.06185 0.0668897 0
0.440193 0.0680031 0
1.06474 0.93511 0
0.446074 0.935974 0
0.724697 0.630698 0
4.72268 0.931235 0
4.93065 0.267192 0
0.589836 0.936152 0
0.92338 0.0562425 0
0.590207 0.0623339 0
0.755872 0.0732784 0
0.838039 0.936714 0
4.92573 0.732039 0
0.281717 0.93783 0
0.28208 0.0811877 0
0.065248 0.503161 0
1.46076 0.0637037 0
4.72574 0.0661877 0
4.31028 0.937908 0
3.21429 0.0687322 0
1.46639 0.932632 0
3.6897 0.928155 0
2.42063 0.931268 0
3.5364 0.0691789 0
2.25998 0.0676208 0
1.78735 0.937047 0
4.01535 0.920637 0
1.85469 0.0674188 0
3.83991 0.0626292 0
3.37477 0.929368 0
2.58225 0.0657863 0
2.81746 0.932342 0
4.16667 0.0687322 0
2.11402 0.935574 0
0.0614266 0.197046 0
0.0612841 0.803003 0
4.88273 0.0644126 0
4.87774 0.933272 0
0.859645 0.426737 0
0.903081 0.436592 0
0.923672 0.473385 0
0.948706 0.439078 0
0.969155 0.479795 0
0.996593 0.439791 0
1.0202 0.484937 0
1.04667 0.440138 0
1.07382 0.489694 0
1.1034 0.440801 0
1.13169 0.49612 0
1.16603 0.445058 0
1.1931 0.504331 0
1.22956 0.450883 0
1.25923 0.506004 0
1.29683 0.453139 0
1.32923 0.510343 0
1.36603 0.454344 0
1.03276 0.530395 0
1.40063 0.516169 0
1.43576 0.454934 0
1.47042 0.520776 0
1.51069 0.46142 0
1.54422 0.526371 0
1.58547 0.465572 0
1.61942 0.531773 0
1.66033 0.468788 0
1.69546 0.536793 0
1.73713 0.472812 0
1.77239 0.541977 0
1.81532 0.478494 0
1.85006 0.547285 0
1.89327 0.483449 0
1.92802 0.55361 0
1.97142 0.488546 0
2.00623 0.558966 0
2.04984 0.493518 0
2.08483 0.564085 0
2.12847 0.498462 0
2.16353 0.569137 0
2.20719 0.503331 0
0.961579 0.391697 0
1.22451 0.565337 0
2.24238 0.574192 0
2.28611 0.508258 0
2.32134 0.579247 0
2.36519 0.513325 0
2.40036 0.584295 0
2.44425 0.51834 0
2.47944 0.589336 0
2.52334 0.523355 0
2.55853 0.594372 0
2.60245 0.52837 0
2.63764 0.599431 0
2.68159 0.533388 0
2.64637 0.462336 0
2.72553 0.467349 0
2.76076 0.538418 0
2.8047 0.47237 0
2.83993 0.543451 0
2.88387 0.477399 0
2.91911 0.548482 0
2.96305 0.482427 0
2.9983 0.553514 0
3.04224 0.487456 0
3.07749 0.558545 0
3.12143 0.492477 0
3.15668 0.563574 0
3.20063 0.497514 0
3.23588 0.568605 0
3.27983 0.502542 0
3.31508 0.573635 0
3.35903 0.507562 0
3.39428 0.578663 0
3.43823 0.5126 0
3.47348 0.583694 0
3.51744 0.517628 0
3.55268 0.588724 0
3.59664 0.522646 0
3.63189 0.593752 0
3.67585 0.527673 0
3.71109 0.598781 0
3.75505 0.532702 0
3.7903 0.60381 0
3.83426 0.537731 0
3.79901 0.466623 0
3.87821 0.471754 0
3.91346 0.542777 0
3.95742 0.476701 0
3.99267 0.547795 0
4.03662 0.481715 0
4.07187 0.552815 0
4.11582 0.486743 0
4.15106 0.55783 0
4.195 0.491782 0
4.23023 0.562843 0
4.27415 0.49682 0
4.30937 0.567866 0
4.35325 0.501915 0
4.38842 0.572845 0
4.43227 0.506997 0
4.46737 0.577575 0
4.51106 0.511995 0
4.54622 0.582183 0
1.13571 0.390292 0
4.47606 0.441361 0
4.55475 0.446396 0
2.32985 0.442214 0
3.5614 0.451571 0
3.08619 0.421408 0
2.09339 0.427815 0
1.42887 0.583001 0
2.84864 0.406329 0
3.32378 0.43649 0
4.23911 0.425894 0
1.54723 0.39251 0
1.77883 0.406811 0
1.33959 0.387065 0
3.92239 0.405803 0
4.08079 0.415776 0
2.48812 0.452349 0
1.57935 0.603183 0
1.93602 0.417543 0
1.72453 0.617973 0
3.11273 0.629643 0
2.69029 0.396284 0
3.94662 0.623383 0
1.88466 0.613248 0
2.79598 0.609502 0
4.10826 0.620575 0
2.04005 0.62838 0
2.95434 0.619575 0
4.51981 0.375801 0
4.59833 0.380943 0
4.63314 0.451296 0
4.26693 0.63114 0
2.19619 0.645921 0
4.4246 0.642296 0
3.27112 0.639707 0
2.35729 0.649822 0
2.51462 0.660373 0
3.42952 0.649769 0
4.67669 0.38601 0
3.58793 0.659829 0
3.74634 0.669888 0
4.64195 0.315733 0
4.44109 0.370647 0
4.48493 0.305066 0
4.40614 0.29989 0
4.71136 0.456133 0
4.72014 0.320758 0
0.8692 0.382093 0
0.841252 0.348256 0
0.886481 0.338703 0
0.853127 0.301457 0
0.902583 0.287335 0
0.801683 0.321689 0
0.818113 0.263019 0
0.764765 0.277091 0
4.44702 0.235678 0
0.946267 0.520761 0
0.78107 0.221265 0
0.726309 0.234724 0
0.848273 0.20551 0
4.68545 0.250576 0
4.37074 0.227561 0
4.76365 0.255792 0
4.79822 0.326145 0
0.713664 0.287231 0
0.672358 0.247957 0
0.68673 0.192342 0
0.630368 0.2085 0
0.616569 0.265341 0
0.574186 0.225456 0
0.557393 0.28131 0
0.52004 0.242373 0
0.504416 0.299685 0
0.462273 0.252096 0
0.44798 0.316739 0
0.404567 0.276951 0
0.390546 0.335414 0
0.434669 0.37657 0
0.377935 0.394545 0
0.421979 0.43426 0
0.365682 0.452846 0
0.409646 0.492216 0
0.353389 0.51089 0
0.397738 0.551598 0
0.339864 0.570301 0
0.385899 0.612153 0
0.325913 0.631557 0
0.344507 0.29318 0
0.320568 0.413067 0
0.373553 0.673852 0
0.434438 0.653082 0
0.311416 0.69481 0
0.449777 0.528305 0
0.293513 0.534612 0
0.421431 0.715204 0
0.480917 0.696603 0
0.54504 0.34471 0
0.262743 0.649913 0
0.246209 0.712341 0
0.468564 0.755948 0
0.526091 0.735423 0
0.538207 0.68039 0
0.581228 0.716342 0
0.408756 0.777952 0
0.36234 0.239019 0
0.297047 0.251925 0
0.572109 0.771575 0
0.624906 0.752173 0
0.474824 0.414151 0
0.534351 0.182707 0
0.633682 0.70159 0
0.674547 0.736174 0
0.66826 0.788959 0
0.721117 0.76834 0
0.714515 0.825486 0
0.769074 0.802008 0
0.775287 0.746591 0
0.821903 0.778625 0
0.826767 0.726064 0
0.873257 0.756032 0
0.872997 0.697261 0
0.92331 0.732304 0
0.930014 0.67838 0
0.976061 0.710612 0
0.92456 0.784469 0
0.982178 0.654421 0
1.03016 0.688004 0
1.02037 0.747059 0
1.08 0.723819 0
1.08651 0.661896 0
1.1397 0.698204 0
1.13262 0.763657 0
1.19424 0.736545 0
1.18556 0.80161 0
1.24839 0.771772 0
1.25723 0.706382 0
1.31432 0.745787 0
4.66801 0.521361 0
4.74602 0.526202 0
4.70285 0.591278 0
4.78076 0.596023 0
4.73763 0.661207 0
4.78904 0.460969 0
2.61113 0.391267 0
2.65506 0.325217 0
2.57588 0.320198 0
2.61982 0.254148 0
2.69899 0.259163 0
2.54065 0.249131 0
2.49672 0.315179 0
2.46148 0.244124 0
2.41757 0.310166 0
2.38233 0.239117 0
2.33843 0.30514 0
2.30297 0.237979 0
2.25928 0.300748 0
2.22079 0.221377 0
2.17969 0.293884 0
2.14114 0.224266 0
2.10047 0.289841 0
2.0653 0.219144 0
2.02202 0.284919 0
1.98701 0.214164 0
1.94336 0.279863 0
3.82315 0.673327 0
3.78135 0.738156 0
3.86451 0.735958 0
3.70234 0.735494 0
4.52513 0.244409 0
4.32717 0.294467 0
4.29217 0.221862 0
0.619934 0.539507 0
0.599432 0.577132 0
0.575955 0.542712 0
0.554504 0.58245 0
4.65962 0.656481 0
4.69438 0.726169 0
4.6161 0.721747 0
4.77259 0.731352 0
4.65076 0.791486 0
4.57153 0.788793 0
4.2482 0.289182 0
4.21307 0.218308 0
4.1691 0.284563 0
4.13394 0.21352 0
0.835918 0.606341 0
0.806475 0.6384 0
4.08995 0.279537 0
0.640355 0.426737 0
0.596214 0.435837 0
0.630358 0.379178 0
0.689967 0.627735 0
1.90832 0.209948 0
1.86468 0.27519 0
1.82968 0.20518 0
1.78607 0.269797 0
0.281841 0.313314 0
0.232117 0.268621 0
0.216861 0.334396 0
4.05473 0.209347 0
4.01077 0.2745 0
3.97554 0.204394 0
3.93159 0.269388 0
0.297409 0.759367 0
0.231645 0.782943 0
0.180008 0.73598 0
1.32151 0.676369 0
1.38055 0.718092 0
1.36901 0.793947 0
1.43945 0.766002 0
0.249902 0.198865 0
0.932364 0.624392 0
1.75117 0.201034 0
1.70771 0.264658 0
1.673 0.195402 0
1.62985 0.260294 0
1.59532 0.191927 0
1.55236 0.254233 0
3.89629 0.200227 0
3.85238 0.264494 0
3.81708 0.195303 0
3.77304 0.259453 0
2.66368 0.189084 0
2.74279 0.19534 0
2.77814 0.264556 0
2.82201 0.199823 0
2.85733 0.269552 0
2.90126 0.203886 0
2.93654 0.274416 0
2.98045 0.20868 0
3.01573 0.279376 0
3.0597 0.213193 0
[...]
CELL_DATA 2220
VECTORS velocity double
33.902 -1.73051 0.0
24.166 0.751315 0.0
30.1837 0.725759 0.0
23.3584 2.50588 0.0
34.6108 -1.94364 0.0
44.1457 -1.41147 0.0
20.4919 0.717646 0.0
22.7797 -0.0319005 0.0
39.3259 2.89805 0.0
43.0135 -1.06035 0.0
23.5474 0.475808 0.0
21.7064 0.391312 0.0
17.3175 0.293258 0.0
34.3428 -2.50059 0.0
25.9356 -0.301438 0.0
34.9902 3.2396 0.0
23.2544 1.23795 0.0
18.9468 0.926181 0.0
21.314 -0.217875 0.0
22.9897 -0.195125 0.0
25.3297 0.482916 0.0
31.4281 3.92715 0.0
21.9025 1.06383 0.0
22.4673 0.845608 0.0
46.2514 -0.628279 0.0
31.9565 -2.33806 0.0
23.2605 1.22714 0.0
19.3715 0.822625 0.0
22.9777 2.36857 0.0
25.2946 1.75157 0.0
41.0026 -1.40008 0.0
31.2907 3.27342 0.0
15.8737 -0.19046 0.0
32.4504 1.32003 0.0
37.7012 -3.95849 0.0
44.5697 -1.5112 0.0
36.7071 -4.32917 0.0
18.6009 -0.204831 0.0
26.824 2.72128 0.0
28.2946 2.1585 0.0
14.1917 0.687023 0.0
39.5205 3.13732 0.0
19.7438 2.15613 0.0
20.6697 -0.0107737 0.0
18.9302 -0.0492309 0.0
16.8183 -0.00430496 0.0
21.6138 0.947879 0.0
17.1228 -0.0164882 0.0
42.5508 -0.946606 0.0
47.3969 0.364454 0.0
20.6555 0.655455 0.0
17.0961 0.156362 0.0
21.3754 0.902858 0.0
21.602 0.177071 0.0
19.5214 1.00646 0.0
28.7219 1.94796 0.0
33.3992 3.43417 0.0
18.2331 0.797978 0.0
18.6541 0.8357 0.0
48.1962 0.218176 0.0
-0.324711 -8.20158 0.0
47.1021 -1.05834 0.0
42.3006 -2.02754 0.0
21.8418 0.914956 0.0
21.809 0.928841 0.0
35.736 1.27581 0.0
18.3766 -1.96338 0.0
37.5968 3.40611 0.0
18.5873 0.892299 0.0
18.7448 0.858933 0.0
21.4334 0.254949 0.0
33.5844 -1.74208 0.0
16.7839 0.244051 0.0
45.9774 0.896059 0.0
13.3804 0.430321 0.0
39.6729 2.94392 0.0
44.5599 2.2904 0.0
24.881 -1.83917 0.0
40.6766 3.65156 0.0
20.2908 0.157414 0.0
24.4217 -1.07765 0.0
29.1595 -1.85747 0.0
13.6123 -0.302322 0.0
16.7485 0.147496 0.0
20.9735 0.663217 0.0
20.9109 0.341811 0.0
30.8981 -1.87881 0.0
17.5277 0.297617 0.0
17.8221 0.533982 0.0
38.7829 2.40278 0.0
7.0308 0.525055 0.0
24.245 1.99125 0.0
21.526 -0.27127 0.0
36.687 3.29544 0.0
40.17 3.12177 0.0
27.961 -1.98102 0.0
30.7681 -4.11144 0.0
14.1606 -1.08191 0.0
0.529864 -6.15412 0.0
31.8185 -0.708736 0.0
7.35666 -0.814712 0.0
30.3839 -2.2916 0.0
21.3584 0.831909 0.0
18.6593 1.21599 0.0
34.9738 4.20579 0.0
38.7559 3.41577 0.0
45.0432 -1.22736 0.0
48.6584 -1.11716 0.0
6.29678 -0.179718 0.0
22.1375 1.32582 0.0
28.5358 1.74682 0.0
36.649 -2.02102 0.0
44.5738 -1.05172 0.0
10.406 -1.00098 0.0
47.7835 -1.74833 0.0
18.2266 0.720388 0.0
33.5381 -2.5615 0.0
16.9665 -0.565328 0.0
7.3001 -0.047914 0.0
38.3215 1.77715 0.0
24.4024 -1.83742 0.0
33.7254 -1.35739 0.0
18.7869 1.39254 0.0
25.004 3.31492 0.0
39.578 -3.95696 0.0
29.1534 -2.74618 0.0
36.7011 3.14464 0.0
21.705 1.5032 0.0
38.0301 -2.91897 0.0
17.2096 1.6536 0.0
16.9583 2.6916 0.0
19.9613 -2.09024 0.0
11.9804 -1.37943 0.0
18.6218 14.7641 0.0
26.2953 2.60738 0.0
14.0254 13.7836 0.0
15.5191 -0.0136835 0.0
22.5729 -0.237335 0.0
30.7217 -2.82961 0.0
32.1067 3.42333 0.0
25.9654 -0.825248 0.0
20.3668 -0.0576851 0.0
47.147 -2.08618 0.0
40.6465 -4.41099 0.0
44.8637 0.893973 0.0
32.6297 2.91922 0.0
10.1213 1.07745 0.0
14.3457 -0.563084 0.0
46.9745 1.93989 0.0
48.0914 -1.54122 0.0
18.3815 -0.340495 0.0
37.4449 1.76221 0.0
34.09 -0.0312633 0.0
22.8449 2.99953 0.0
7.28492 9.38836 0.0
23.1387 0.387009 0.0
20.9704 -2.28136 0.0
24.0643 0.606714 0.0
10.123 -1.03532 0.0
21.5442 -1.36968 0.0
21.0525 -3.16413 0.0
18.3113 0.0342454 0.0
9.56706 -1.06227 0.0
31.2893 -3.20151 0.0
16.6212 0.147075 0.0
30.7967 2.11481 0.0
32.2742 -1.90364 0.0
37.7869 -1.26544 0.0
22.9894 0.293122 0.0
12.1996 -2.04756 0.0
10.9526 1.39834 0.0
16.3763 0.0578116 0.0
21.2043 0.126507 0.0
16.344 -1.60275 0.0
27.1159 -1.37102 0.0
41.6277 3.69981 0.0
43.0951 2.09798 0.0
41.0925 3.43775 0.0
11.5954 -0.698456 0.0
22.8096 0.074713 0.0
33.0937 -0.51917 0.0
21.6105 -0.913555 0.0
7.15792 1.21962 0.0
18.5907 2.06055 0.0
23.2615 -0.0161675 0.0
44.8641 -0.959372 0.0
35.0531 0.106195 0.0
18.4096 -0.582115 0.0
32.3165 -3.98526 0.0
37.6091 -0.4597 0.0
12.1038 -1.25937 0.0
18.2244 -0.303452 0.0
38.4723 -2.52422 0.0
47.0967 1.69077 0.0
21.4944 -2.14543 0.0
34.9701 0.869841 0.0
31.0096 1.23295 0.0
20.6677 -0.894275 0.0
6.16281 -0.569247 0.0
21.7512 -0.523681 0.0
22.1382 -13.4105 0.0
28.3324 -1.59816 0.0
33.3723 2.90121 0.0
21.8929 -0.107595 0.0
14.3846 -0.563622 0.0
29.7004 -2.24337 0.0
26.1476 0.0967369 0.0
20.0254 0.0528146 0.0
30.6607 2.23734 0.0
11.5288 -0.813507 0.0
21.4859 0.862853 0.0
12.5924 -0.518538 0.0
30.1448 -0.30165 0.0
39.38 3.49983 0.0
44.5989 2.88487 0.0
21.8287 3.42867 0.0
18.2253 0.793198 0.0
21.6731 1.03358 0.0
11.6704 0.322543 0.0
13.8378 -0.197696 0.0
44.3529 0.59197 0.0
10.1465 -0.359756 0.0
18.2666 0.946836 0.0
9.75305 -0.144247 0.0
21.6637 -0.0839371 0.0
25.1921 -1.89226 0.0
20.7531 -1.51642 0.0
21.9473 -0.999893 0.0
31.2283 0.0593885 0.0
11.2403 1.14415 0.0
26.4787 2.10195 0.0
29.6045 -1.42187 0.0
14.7046 -0.129629 0.0
22.0321 -0.348833 0.0
11.4904 -1.05936 0.0
39.8169 -0.0229182 0.0
25.1585 -1.77843 0.0
21.3464 -0.31392 0.0
21.1987 -0.347636 0.0
18.756 -0.188511 0.0
40.8519 -4.1725 0.0
32.0348 -3.6745 0.0
38.1347 4.48494 0.0
10.9612 -0.0158579 0.0
16.7828 11.1342 0.0
45.6188 -0.0516721 0.0
23.128 -0.481055 0.0
30.6717 -1.30742 0.0
4.8841 11.462 0.0
20.352 2.19486 0.0
14.9466 -12.0725 0.0
10.9569 -0.09901 0.0
32.4763 -2.40345 0.0
42.2985 -0.269888 0.0
42.7803 -3.1164 0.0
20.9648 0.469993 0.0
11.4626 0.177295 0.0
44.4184 0.210603 0.0
21.7491 2.0827 0.0
39.9245 1.49238 0.0
23.9563 -0.432763 0.0
34.7966 -0.949345 0.0
11.0128 1.1497 0.0
25.1987 -1.46768 0.0
10.7863 -0.53989 0.0
7.66296 -0.0941016 0.0
19.2351 -1.45764 0.0
31.3542 -1.4479 0.0
23.7459 1.32811 0.0
46.1981 -0.136457 0.0
41.0013 1.14609 0.0
41.7366 -0.0228986 0.0
17.6656 0.384199 0.0
43.1894 -1.82154 0.0
20.722 -2.08634 0.0
39.0227 4.50457 0.0
13.3031 1.96609 0.0
36.6495 -0.869951 0.0
20.1219 1.67154 0.0
12.9565 0.132713 0.0
23.4775 -2.0944 0.0
24.9811 -2.38793 0.0
40.1716 4.31094 0.0
29.3999 1.34466 0.0
42.7251 -1.70186 0.0
26.8307 -1.14113 0.0
34.0435 -3.72327 0.0
28.5552 1.10674 0.0
18.359 -0.264385 0.0
17.7461 -0.287945 0.0
11.3918 -0.321887 0.0
20.6777 -1.10506 0.0
11.8505 0.969527 0.0
23.4564 -13.1488 0.0
24.1538 -1.42886 0.0
27.7877 -0.318042 0.0
28.1608 -0.285044 0.0
20.4117 0.532423 0.0
39.1878 4.44721 0.0
45.2188 2.98811 0.0
15.5216 -1.50089 0.0
42.3885 3.76666 0.0
33.8357 -1.78339 0.0
7.22361 0.0870846 0.0
34.562 -3.03742 0.0
22.304 1.26256 0.0
17.1174 -0.226606 0.0
17.9829 -0.311396 0.0
15.5157 0.417487 0.0
10.9764 0.896169 0.0
13.3262 -0.0265435 0.0
18.811 14.8335 0.0
13.8785 1.07565 0.0
39.9991 4.51882 0.0
31.3822 -2.34739 0.0
20.8357 -0.312481 0.0
42.3335 3.16481 0.0
11.9176 1.07131 0.0
40.4417 -2.43159 0.0
44.5858 3.3448 0.0
14.1607 -2.10058 0.0
18.0981 1.00906 0.0
43.5012 0.265722 0.0
12.1 -0.986384 0.0
13.5369 18.5543 0.0
12.4713 -0.120482 0.0
41.7934 0.0649002 0.0
42.4848 1.2131 0.0
45.3953 0.565301 0.0
12.1176 -0.464381 0.0
36.991 -3.31305 0.0
40.5943 -4.79119 0.0
38.3043 -1.51621 0.0
10.8838 -1.06194 0.0
37.916 0.104569 0.0
40.7594 -3.62849 0.0
24.0901 -2.59189 0.0
41.3891 3.76421 0.0
33.8126 -2.13142 0.0
21.0664 -0.344895 0.0
8.31154 -0.188385 0.0
18.6264 -0.352856 0.0
6.88302 0.51678 0.0
6.97506 0.0549149 0.0
14.3741 -1.71427 0.0
40.4251 3.52599 0.0
10.5474 5.48615 0.0
42.1508 3.68568 0.0
45.1772 2.77593 0.0
6.67866 -0.302432 0.0
38.2288 1.62917 0.0
5.60953 0.173351 0.0
6.81639 -0.457097 0.0
32.2742 2.99554 0.0
10.402 0.782732 0.0
40.0564 -1.73691 0.0
37.6482 1.94223 0.0
6.02841 -0.324818 0.0
42.0598 0.883268 0.0
29.9346 -3.30884 0.0
43.1712 2.90219 0.0
14.1511 0.612596 0.0
29.5333 1.89307 0.0
42.7294 3.34083 0.0
6.07618 0.609156 0.0
48.326 0.57238 0.0
34.0058 -4.46438 0.0
6.335 -0.414839 0.0
6.3639 -0.574836 0.0
35.0923 -1.85669 0.0
6.52259 0.460568 0.0
32.3775 3.84896 0.0
36.751 -1.95578 0.0
23.7329 -0.836389 0.0
9.50125 -0.0896314 0.0
12.5574 0.532725 0.0
29.6509 0.608578 0.0
29.9711 0.162819 0.0
40.0578 -0.875344 0.0
28.0176 -0.187712 0.0
13.3631 -0.887681 0.0
40.2281 3.6581 0.0
40.5736 -3.17183 0.0
44.8762 0.352904 0.0
39.5893 3.62863 0.0
41.2692 -0.214614 0.0
38.7316 4.09734 0.0
43.2757 0.2032 0.0
31.7382 -1.97779 0.0
43.5801 2.45326 0.0
10.3503 1.03934 0.0
39.5564 0.00911076 0.0
28.6329 -0.957993 0.0
41.8422 -2.73241 0.0
8.98601 -0.963189 0.0
20.004 -1.42807 0.0
39.8789 0.675958 0.0
8.63969 0.788811 0.0
43.153 0.200681 0.0
39.901 2.66013 0.0
7.05346 0.284957 0.0
28.2027 -0.878571 0.0
41.7396 3.13357 0.0
43.9049 0.115138 0.0
34.5289 -4.23476 0.0
38.6632 -4.65762 0.0
6.41827 4.91332 0.0
10.6765 0.834042 0.0
22.4914 -1.67674 0.0
37.5534 -1.51994 0.0
28.4509 -2.4439 0.0
6.70975 0.0215748 0.0
39.4372 4.15791 0.0
44.0468 -2.96731 0.0
40.0839 -2.27972 0.0
44.1025 0.129705 0.0
3.99079 -0.17799 0.0
6.05702 0.474055 0.0
37.8261 2.85052 0.0
6.45618 0.590199 0.0
43.5535 3.62491 0.0
39.0146 2.77843 0.0
4.10311 0.00094826 0.0
6.43786 -0.518863 0.0
42.0193 2.71542 0.0
40.0709 0.511958 0.0
3.89682 0.180591 0.0
35.3229 -0.202028 0.0
43.1192 0.232258 0.0
11.181 -0.755345 0.0
43.7974 0.141971 0.0
38.5547 2.68024 0.0
40.1604 -3.3587 0.0
43.5314 2.0876 0.0
6.609 -0.609963 0.0
32.5341 -4.42619 0.0
6.98749 -0.132543 0.0
6.44717 0.468984 0.0
36.7821 -3.23586 0.0
6.48641 0.654966 0.0
38.4494 3.03795 0.0
42.3178 2.33382 0.0
39.2525 -3.89339 0.0
39.7575 -4.80619 0.0
10.5131 -1.11288 0.0
21.9208 -0.0595071 0.0
39.7722 1.99836 0.0
6.14149 -0.378226 0.0
5.62442 0.416649 0.0
17.573 -2.27671 0.0
10.1183 0.984171 0.0
43.6291 -0.843423 0.0
7.05066 -0.446404 0.0
22.7782 0.95725 0.0
45.3976 1.33379 0.0
10.3203 0.740154 0.0
11.9932 0.769858 0.0
41.3065 3.50615 0.0
6.79186 0.401606 0.0
42.9616 1.65221 0.0
38.5124 2.33204 0.0
41.3734 0.480652 0.0
6.24356 -0.604429 0.0
4.85233 0.438841 0.0
8.66958 -0.402915 0.0
30.1501 -0.888968 0.0
13.7458 -2.29267 0.0
43.7937 0.183998 0.0
3.98386 0.101098 0.0
40.124 -4.74415 0.0
11.3134 -0.410425 0.0
5.53922 0.42361 0.0
14.8691 -1.58933 0.0
40.8594 3.71445 0.0
10.9111 -0.676908 0.0
41.2022 0.391999 0.0
41.7445 1.94951 0.0
27.3724 -0.480786 0.0
43.196 0.266073 0.0
38.2311 2.00256 0.0
23.7288 -1.65878 0.0
38.191 0.771618 0.0
45.4844 -2.52228 0.0
37.8385 1.65754 0.0
6.49644 -0.679442 0.0
6.92833 0.702074 0.0
39.7384 -0.902149 0.0
5.37875 0.369014 0.0
33.4925 -3.65548 0.0
23.3023 9.72196 0.0
43.327 0.274826 0.0
5.48852 0.397833 0.0
6.21783 -0.410642 0.0
41.368 1.5351 0.0
40.2998 3.62326 0.0
30.8629 -0.21179 0.0
29.2716 -1.52481 0.0
37.5265 0.0540316 0.0
25.9039 -1.35031 0.0
18.4139 -12.837 0.0
38.1913 -0.163674 0.0
36.5043 2.44709 0.0
5.91448 -0.247622 0.0
37.4643 1.31433 0.0
32.3652 10.6326 0.0
18.8337 -0.572204 0.0
43.8963 0.392266 0.0
4.3127 -0.422975 0.0
4.76174 0.432934 0.0
36.5143 2.78358 0.0
39.2929 -0.194709 0.0
38.2523 -1.0883 0.0
21.808 -0.180168 0.0
42.9931 2.82024 0.0
43.8648 0.218174 0.0
44.9296 -2.35178 0.0
5.53593 1.9637 0.0
41.6559 0.647433 0.0
45.4553 -2.66795 0.0
36.0188 1.82585 0.0
37.3327 7.51243 0.0
11.1194 -3.34944 0.0
36.3364 0.215536 0.0
6.28748 -6.30506 0.0
34.8798 -1.41436 0.0
41.0616 -1.20953 0.0
45.5382 2.89992 0.0
42.8 3.24205 0.0
5.85843 -1.72155 0.0
37.165 1.02263 0.0
40.9178 4.86598 0.0
35.6506 1.51798 0.0
44.8015 0.140949 0.0
36.3476 2.13004 0.0
40.6025 0.851632 0.0
24.8968 -0.940817 0.0
27.9689 1.15305 0.0
11.4734 -4.86181 0.0
39.6961 -2.77254 0.0
17.4534 -0.168647 0.0
32.3426 -7.68501 0.0
8.64303 -8.53123 0.0
37.7229 -2.76054 0.0
44.0708 0.189758 0.0
2.91682 -0.283996 0.0
2.99082 0.2893 0.0
40.2482 0.6459 0.0
38.8042 3.21105 0.0
36.9757 0.808807 0.0
30.9051 11.6891 0.0
6.66586 -0.187288 0.0
10.712 -0.298385 0.0
8.06913 0.973614 0.0
3.34473 2.54627 0.0
7.35233 -4.52182 0.0
44.6821 -3.05933 0.0
44.9688 0.109788 0.0
38.4595 -3.99601 0.0
1.04295 1.31429 0.0
32.8722 -0.0968289 0.0
34.9552 -0.101601 0.0
37.9394 -6.95378 0.0
28.1247 9.94119 0.0
1.23865 -1.25164 0.0
3.77365 -2.30929 0.0
30.0352 0.57098 0.0
19.972 1.13388 0.0
35.4083 1.21514 0.0
24.1771 -4.14116 0.0
39.4608 -0.0962298 0.0
39.1718 2.31278 0.0
40.759 -0.0923153 0.0
33.0293 7.81923 0.0
43.5942 0.171476 0.0
3.82974 -0.293928 0.0
43.3304 3.64181 0.0
44.8875 0.615823 0.0
41.1274 0.370438 0.0
44.9113 0.0253037 0.0
41.4881 -4.12325 0.0
3.68222 0.214127 0.0
44.5566 -0.339895 0.0
7.31544 -1.18171 0.0
18.7944 1.33488 0.0
28.8334 -0.601209 0.0
36.8407 0.680304 0.0
35.1983 0.957892 0.0
43.9274 2.00882 0.0
44.1369 1.51077 0.0
43.4389 2.23848 0.0
5.28104 0.30517 0.0
9.91296 0.539918 0.0
8.25323 -0.771461 0.0
44.6045 0.0911377 0.0
39.9898 0.450542 0.0
40.533 -4.79826 0.0
7.07717 1.38407 0.0
43.9574 0.246348 0.0
40.1535 4.84369 0.0
13.0618 9.48747 0.0
40.2804 -0.0637754 0.0
3.31119 0.80523 0.0
38.8416 -0.113512 0.0
42.9485 -1.4084 0.0
39.5311 -0.689354 0.0
29.6836 -0.360159 0.0
27.4775 -0.348959 0.0
38.3517 -0.169221 0.0
7.82069 0.266499 0.0
39.344 3.94971 0.0
44.2318 -0.32905 0.0
41.464 -0.226042 0.0
41.1717 0.386279 0.0
36.8333 0.609595 0.0
20.5896 -0.0157509 0.0
39.996 0.443998 0.0
47.6146 -1.8459 0.0
43.6381 0.104459 0.0
10.3022 0.46435 0.0
37.3245 6.81113 0.0
3.57139 -0.73113 0.0
44.7802 0.689925 0.0
44.6257 0.332707 0.0
36.9171 0.585227 0.0
2.32992 1.09959 0.0
38.2518 -0.773275 0.0
44.1062 0.136872 0.0
43.5275 1.64864 0.0
39.7889 -0.112813 0.0
44.4759 -0.489851 0.0
41.3217 0.405483 0.0
44.3406 0.081398 0.0
44.9302 0.329128 0.0
43.9739 0.222015 0.0
37.1428 0.594604 0.0
4.58508 0.427554 0.0
15.6487 1.3028 0.0
44.0205 -1.01326 0.0
38.9682 3.29778 0.0
2.56281 -1.01507 0.0
8.96805 -0.502888 0.0
37.7981 -2.77373 0.0
39.5261 4.39636 0.0
40.1398 0.464366 0.0
16.8135 -0.959697 0.0
41.2306 -0.222638 0.0
42.1546 -0.17107 0.0
27.0417 11.8664 0.0
8.67121 0.713891 0.0
4.24635 -0.491624 0.0
46.5076 -2.25193 0.0
32.7771 6.53705 0.0
41.9314 -3.89651 0.0
44.8188 0.512004 0.0
13.1687 0.20726 0.0
40.3644 0.464355 0.0
35.066 0.80233 0.0
43.5943 -0.0328979 0.0
4.01924 0.577078 0.0
41.5447 0.3857 0.0
43.6308 0.0383983 0.0
5.10265 -0.218837 0.0
37.4747 0.580572 0.0
43.4818 0.239571 0.0
44.6379 0.608701 0.0
42.0492 0.189184 0.0
41.9046 -0.247307 0.0
44.0831 0.0781801 0.0
37.728 -0.888802 0.0
41.9977 -0.165225 0.0
41.8356 0.300224 0.0
41.2277 0.136508 0.0
40.9799 -0.290992 0.0
4.73147 -0.321559 0.0
44.751 0.497071 0.0
40.7609 -0.344562 0.0
6.3756 0.315879 0.0
44.0227 0.0119256 0.0
9.9178 0.60705 0.0
40.6795 0.387659 0.0
41.6936 -0.309858 0.0
44.6769 0.441218 0.0
42.8657 -0.141459 0.0
42.1853 0.0973924 0.0
44.4393 0.300551 0.0
20.4207 0.254983 0.0
38.4591 0.268355 0.0
36.2848 1.94523 0.0
37.7888 0.457567 0.0
4.65334 -0.065787 0.0
43.5616 0.0964469 0.0
41.0024 0.250542 0.0
35.947 -7.1936 0.0
3.4872 -0.319263 0.0
35.1433 0.652071 0.0
3.4154 0.237171 0.0
32.7714 -6.30588 0.0
37.8498 2.25811 0.0
35.3501 0.639803 0.0
39.3783 -0.182026 0.0
40.5656 -0.37296 0.0
35.7333 0.646322 0.0
42.3085 -0.0527548 0.0
33.8387 -3.24692 0.0
34.6234 -8.4885 0.0
41.1083 -0.0861871 0.0
44.3957 0.644737 0.0
44.6111 0.726978 0.0
44.5666 0.395408 0.0
41.5098 -0.351351 0.0
44.7734 0.454218 0.0
36.3956 -0.185921 0.0
44.6685 0.43359 0.0
40.1562 -0.235489 0.0
38.7422 0.134173 0.0
19.2826 0.506665 0.0
42.7742 -0.138126 0.0
44.7225 0.398621 0.0
34.2831 -0.698004 0.0
44.3805 0.528001 0.0
41.3503 -0.359878 0.0
40.3983 -0.35954 0.0
4.93638 0.323603 0.0
41.3742 0.0500176 0.0
35.0601 0.709931 0.0
44.89 0.392233 0.0
31.9276 -0.445928 0.0
10.8111 0.330656 0.0
38.9926 0.0349314 0.0
44.3794 0.367255 0.0
36.6099 0.361949 0.0
35.6902 -0.185625 0.0
40.2578 -0.290138 0.0
44.3437 0.171148 0.0
41.2197 -0.32214 0.0
37.1907 0.198627 0.0
23.7625 7.76554 0.0
43.9466 -0.063107 0.0
44.8716 0.328517 0.0
44.0347 1.22709 0.0
18.9096 -0.0994267 0.0
41.4755 -0.0259159 0.0
34.3304 -0.216404 0.0
5.82024 0.196862 0.0
10.0214 0.380797 0.0
41.1023 -0.236621 0.0
43.7197 0.298055 0.0
38.4602 -0.367783 0.0
40.1204 -0.177956 0.0
44.6852 0.265684 0.0
39.0304 -0.250563 0.0
39.194 -0.0472701 0.0
39.9369 -0.0537135 0.0
34.7239 -0.255143 0.0
37.9464 -0.231041 0.0
44.9781 0.257703 0.0
35.152 -0.213445 0.0
44.0865 0.135821 0.0
38.1956 -0.400715 0.0
39.664 -0.303669 0.0
37.5982 -0.293027 0.0
34.3188 -0.307062 0.0
43.816 0.256253 0.0
40.9658 -0.12428 0.0
7.12642 0.224803 0.0
10.954 0.325747 0.0
44.6349 0.0579795 0.0
44.2303 -0.0325207 0.0
35.9971 0.604322 0.0
37.3789 -0.0210538 0.0
37.787 -0.0161839 0.0
44.6362 0.549718 0.0
39.6506 0.0507121 0.0
43.8166 1.05574 0.0
42.2645 0.0211568 0.0
33.9463 -0.36269 0.0
36.7131 -0.418142 0.0
37.4995 0.0761616 0.0
40.7671 -0.0153708 0.0
44.9557 0.174132 0.0
43.5469 -0.108886 0.0
37.2912 -0.351305 0.0
36.0784 1.28343 0.0
32.6712 -0.284234 0.0
36.9953 -0.399561 0.0
33.6103 -0.418997 0.0
41.6665 2.20457 0.0
39.2583 0.101634 0.0
40.4784 0.0574826 0.0
37.9793 -0.386073 0.0
33.1277 -0.242359 0.0
36.0939 -0.0766898 0.0
44.3229 0.311039 0.0
33.2562 -0.448296 0.0
36.4918 -0.361023 0.0
38.8443 0.0774831 0.0
21.6243 0.216354 0.0
43.0963 0.112488 0.0
32.8858 -0.376425 0.0
18.8771 0.148294 0.0
32.2601 -0.334894 0.0
40.1318 0.0672542 0.0
32.7066 -0.21137 0.0
36.2928 -0.233242 0.0
33.6353 -0.220948 0.0
5.11282 -0.0754102 0.0
9.44049 -0.134198 0.0
21.5476 0.319334 0.0
38.678 -0.333184 0.0
37.6166 -0.166323 0.0
38.5 9.76774e-05 0.0
39.8025 0.0135467 0.0
32.4455 -0.0346332 0.0
10.6657 0.142748 0.0
44.4747 0.207299 0.0
9.70119 -0.156259 0.0
44.9794 0.0495765 0.0
38.2915 -0.0877695 0.0
31.8739 -0.392582 0.0
36.9876 0.100614 0.0
31.4152 -0.450685 0.0
44.917 -0.0662297 0.0
36.4383 0.166936 0.0
5.29323 -0.0817046 0.0
9.57045 -0.154388 0.0
37.7966 -0.30049 0.0
5.70488 0.0896284 0.0
39.5582 -0.0762028 0.0
31.0419 -0.43394 0.0
30.7645 -0.284944 0.0
35.762 0.0656087 0.0
39.2139 -0.204677 0.0
44.4696 -0.0470057 0.0
35.8945 0.147245 0.0
35.4418 0.0607782 0.0
9.63763 -0.137731 0.0
5.49727 -0.0827161 0.0
18.0294 0.263967 0.0
30.5126 -0.0914203 0.0
35.1858 0.171653 0.0
38.7295 -0.313942 0.0
34.5225 0.206881 0.0
40.4292 -0.0970052 0.0
18.4297 0.295742 0.0
33.9441 0.136917 0.0
39.4777 -0.153181 0.0
35.143 -0.0190371 0.0
9.70187 0.151238 0.0
4.97987 -0.0522216 0.0
4.18278 -0.0813634 0.0
5.35582 -0.0753872 0.0
9.5822 -0.0482821 0.0
10.1921 0.183658 0.0
4.55123 -0.0228491 0.0
5.15659 -0.00277358 0.0
9.39559 -0.12552 0.0
5.00767 -0.0442894 0.0
5.41074 -0.0409598 0.0
5.74252 0.143755 0.0
10.368 -0.142034 0.0
5.57072 0.0845801 0.0
9.25426 -0.090606 0.0
5.34325 0.08203 0.0
9.8598 -0.0660955 0.0
9.64395 -0.0529982 0.0
5.19918 0.15847 0.0
10.5781 0.212112 0.0
9.38391 -0.0994307 0.0
9.16563 -0.115969 0.0
5.36588 0.254442 0.0
8.8698 -0.0741393 0.0
9.55984 0.197542 0.0
4.95333 -0.0263563 0.0
9.29699 -0.0520967 0.0
5.61389 0.0134922 0.0
4.95887 0.0926634 0.0
8.97329 -0.154278 0.0
5.32076 0.193184 0.0
6.43088 0.116889 0.0
5.44643 0.296015 0.0
4.55157 0.0801862 0.0
4.88613 -0.00760428 0.0
9.3875 0.0437133 0.0
5.14739 -0.073711 0.0
5.27727 -0.0799101 0.0
5.42985 0.217835 0.0
5.47224 0.226588 0.0
5.38689 -0.00786016 0.0
5.27324 0.0616919 0.0
4.47703 -0.0791873 0.0
5.06867 -0.0448961 0.0
6.30849 -0.00579141 0.0
10.5075 -0.0235151 0.0
5.52921 -0.0986097 0.0
6.49111 0.0775844 0.0
8.95924 0.162306 0.0
8.72822 -0.173665 0.0
5.02821 -0.064416 0.0
5.53033 0.217493 0.0
5.09116 0.0551526 0.0
9.87575 0.00924572 0.0
4.82585 0.105332 0.0
5.34883 0.0827743 0.0
4.97175 -0.0701468 0.0
9.83263 0.425719 0.0
6.12495 -0.0944262 0.0
4.38146 0.01217 0.0
5.00921 0.0150713 0.0
4.24584 0.0480892 0.0
5.4811 0.0840769 0.0
5.55388 -0.023658 0.0
8.21294 -0.0771776 0.0
3.79273 -0.0297759 0.0
9.61379 0.389529 0.0
9.96669 0.141494 0.0
38.9558 -0.18207 0.0
38.3204 -0.1254 0.0
42.3305 -0.127203 0.0
33.5262 0.0416107 0.0
44.3054 -0.316036 0.0
44.4915 -0.141387 0.0
33.1935 0.00705453 0.0
44.4094 -0.332332 0.0
44.7383 -0.279089 0.0
44.5037 -0.350652 0.0
44.8555 -0.174775 0.0
35.0964 -0.0182489 0.0
38.5998 -0.124039 0.0
44.6371 -0.312403 0.0
37.4952 -0.164922 0.0
44.1742 -0.234416 0.0
39.6355 -0.180961 0.0
44.0971 -0.196236 0.0
41.7258 -0.263596 0.0
42.3783 -0.290987 0.0
29.0865 0.114558 0.0
44.0792 -0.360386 0.0
44.021 -0.205012 0.0
42.6168 -0.276431 0.0
44.3168 -0.29711 0.0
32.4996 -0.135028 0.0
41.5414 -0.100574 0.0
38.5538 -0.143881 0.0
43.8231 -0.346586 0.0
43.6019 -0.338223 0.0
44.2297 -0.277348 0.0
34.211 -0.152756 0.0