# vtk DataFile Version 3.0
Malha 2D com triângulos e temperatura
ASCII
DATASET UNSTRUCTURED_GRID

POINTS 1194 double
0 0 0
5 0 0
5 1 0
0 1 0
0.85 0.5 0
0.842388 0.538268 0
0.820711 0.570711 0
0.788268 0.592388 0
0.75 0.6 0
0.711732 0.592388 0
0.679289 0.570711 0
0.657612 0.538268 0
0.65 0.5 0
0.657612 0.461732 0
0.679289 0.429289 0
0.711732 0.407612 0
0.75 0.4 0
0.788268 0.407612 0
0.820711 0.429289 0
0.842388 0.461732 0
0.0793651 0 0
0.15873 0 0
0.238095 0 0
0.31746 0 0
0.396825 0 0
0.47619 0 0
0.555556 0 0
0.634921 0 0
0.714286 0 0
0.793651 0 0
0.873016 0 0
0.952381 0 0
1.03175 0 0
1.11111 0 0
1.19048 0 0
1.26984 0 0
1.34921 0 0
1.42857 0 0
1.50794 0 0
1.5873 0 0
1.66667 0 0
1.74603 0 0
1.8254 0 0
1.90476 0 0
1.98413 0 0
2.06349 0 0
2.14286 0 0
2.22222 0 0
2.30159 0 0
2.38095 0 0
2.46032 0 0
2.53968 0 0
2.61905 0 0
2.69841 0 0
2.77778 0 0
2.85714 0 0
2.93651 0 0
3.01587 0 0
3.09524 0 0
3.1746 0 0
3.25397 0 0
3.33333 0 0
3.4127 0 0
3.49206 0 0
3.57143 0 0
3.65079 0 0
3.73016 0 0
3.80952 0 0
3.88889 0 0
3.96825 0 0
4.04762 0 0
4.12698 0 0
4.20635 0 0
4.28571 0 0
4.36508 0 0
4.44444 0 0
4.52381 0 0
4.60317 0 0
4.68254 0 0
4.7619 0 0
4.84127 0 0
4.92063 0 0
5 0.0769231 0
5 0.153846 0
5 0.230769 0
5 0.307692 0
5 0.384615 0
5 0.461538 0
5 0.538462 0
5 0.615385 0
5 0.692308 0
5 0.769231 0
5 0.846154 0
5 0.923077 0
4.92063 1 0
4.84127 1 0
4.7619 1 0
4.68254 1 0
4.60317 1 0
4.52381 1 0
4.44444 1 0
4.36508 1 0
4.28571 1 0
4.20635 1 0
4.12698 1 0
4.04762 1 0
3.96825 1 0
3.88889 1 0
3.80952 1 0
3.73016 1 0
3.65079 1 0
3.57143 1 0
3.49206 1 0
3.4127 1 0
3.33333 1 0
3.25397 1 0
3.1746 1 0
3.09524 1 0
3.01587 1 0
2.93651 1 0
2.85714 1 0
2.77778 1 0
2.69841 1 0
2.61905 1 0
2.53968 1 0
2.46032 1 0
2.38095 1 0
2.30159 1 0
2.22222 1 0
2.14286 1 0
2.06349 1 0
1.98413 1 0
1.90476 1 0
1.8254 1 0
1.74603 1 0
1.66667 1 0
1.5873 1 0
1.50794 1 0
1.42857 1 0
1.34921 1 0
1.26984 1 0
1.19048 1 0
1.11111 1 0
1.03175 1 0
0.952381 1 0
0.873016 1 0
0.793651 1 0
0.714286 1 0
0.634921 1 0
0.555556 1 0
0.47619 1 0
0.396825 1 0
0.31746 1 0
0.238095 1 0
0.15873 1 0
0.0793651 1 0
0 0.923077 0
0 0.846154 0
0 0.769231 0
0 0.692308 0
0 0.615385 0
0 0.538462 0
0 0.461538 0
0 0.384615 0
0 0.307692 0
0 0.230769 0
0 0.153846 0
0 0.0769231 0
0.879698 0.466718 0
1.3085 0.931947 0
1.30532 0.0638546 0
4.93832 0.504275 0
0.620452 0.46964 0
3.99858 0.0669607 0
1.63721 0.934258 0
3.3751 0.0523709 0
4.3254 0.0687322 0
2.42354 0.0642082 0
2.97619 0.0687322 0
2.02101 0.0693621 0
3.68108 0.0581336 0
2.65899 0.932655 0
4.178 0.939994 0
3.21614 0.938179 0
2.25483 0.919987 0
3.53215 0.928998 0
3.84921 0.931268 0
1.69647 0.0674297 0
1.94349 0.930209 0
4.48413 0.931268 0
2.97813 0.942022 0
2.74097 0.0673855 0
0.859645 0.573263 0
0.639718 0.573116 0
0.0651563 0.652836 0
0.0635304 0.346121 0
4.56232 0.0679683 0
0.830393 0.392645 0
0.669618 0.39275 0
1.06185 0.0668897 0
0.440193 0.0680031 0
1.06474 0.93511 0
0.446074 0.935974 0
0.724697 0.630698 0
4.72268 0.931235 0
4.93065 0.267192 0
0.589836 0.936152 0
0.92338 0.0562425 0
0.590207 0.0623339 0
0.755872 0.0732784 0
0.838039 0.936714 0
4.92573 0.732039 0
0.281717 0.93783 0
0.28208 0.0811877 0
0.065248 0.503161 0
1.46076 0.0637037 0
4.72574 0.0661877 0
4.31028 0.937908 0
3.21429 0.0687322 0
1.46639 0.932632 0
3.6897 0.928155 0
2.42063 0.931268 0
3.5364 0.0691789 0
2.25998 0.0676208 0
1.78735 0.937047 0
4.01535 0.920637 0
1.85469 0.0674188 0
3.83991 0.0626292 0
3.37477 0.929368 0
2.58225 0.0657863 0
2.81746 0.932342 0
4.16667 0.0687322 0
2.11402 0.935574 0
0.0614266 0.197046 0
0.0612841 0.803003 0
4.88273 0.0644126 0
4.87774 0.933272 0
0.859645 0.426737 0
0.903081 0.436592 0
0.923672 0.473385 0
0.948706 0.439078 0
0.969155 0.479795 0
0.996593 0.439791 0
1.0202 0.484937 0
1.04667 0.440138 0
1.07382 0.489694 0
1.1034 0.440801 0
1.13169 0.49612 0
1.16603 0.445058 0
1.1931 0.504331 0
1.22956 0.450883 0
1.25923 0.506004 0
1.29683 0.453139 0
1.32923 0.510343 0
1.36603 0.454344 0
1.03276 0.530395 0
1.40063 0.516169 0
1.43576 0.454934 0
1.47042 0.520776 0
1.51069 0.46142 0
1.54422 0.526371 0
1.58547 0.465572 0
1.61942 0.531773 0
1.66033 0.468788 0
1.69546 0.536793 0
1.73713 0.472812 0
1.77239 0.541977 0
1.81532 0.478494 0
1.85006 0.547285 0
1.89327 0.483449 0
1.92802 0.55361 0
1.97142 0.488546 0
2.00623 0.558966 0
2.04984 0.493518 0
2.08483 0.564085 0
2.12847 0.498462 0
2.16353 0.569137 0
2.20719 0.503331 0
0.961579 0.391697 0
1.22451 0.565337 0
2.24238 0.574192 0
2.28611 0.508258 0
2.32134 0.579247 0
2.36519 0.513325 0
2.40036 0.584295 0
2.44425 0.51834 0
2.47944 0.589336 0
2.52334 0.523355 0
2.55853 0.594372 0
2.60245 0.52837 0
2.63764 0.599431 0
2.68159 0.533388 0
2.64637 0.462336 0
2.72553 0.467349 0
2.76076 0.538418 0
2.8047 0.47237 0
2.83993 0.543451 0
2.88387 0.477399 0
2.91911 0.548482 0
2.96305 0.482427 0
2.9983 0.553514 0
3.04224 0.487456 0
3.07749 0.558545 0
3.12143 0.492477 0
3.15668 0.563574 0
3.20063 0.497514 0
3.23588 0.568605 0
3.27983 0.502542 0
3.31508 0.573635 0
3.35903 0.507562 0
3.39428 0.578663 0
3.43823 0.5126 0
3.47348 0.583694 0
3.51744 0.517628 0
3.55268 0.588724 0
3.59664 0.522646 0
3.63189 0.593752 0
3.67585 0.527673 0
3.71109 0.598781 0
3.75505 0.532702 0
3.7903 0.60381 0
3.83426 0.537731 0
3.79901 0.466623 0
3.87821 0.471754 0
3.91346 0.542777 0
3.95742 0.476701 0
3.99267 0.547795 0
4.03662 0.481715 0
4.07187 0.552815 0
4.11582 0.486743 0
4.15106 0.55783 0
4.195 0.491782 0
4.23023 0.562843 0
4.27415 0.49682 0
4.30937 0.567866 0
4.35325 0.501915 0
4.38842 0.572845 0
4.43227 0.506997 0
4.46737 0.577575 0
4.51106 0.511995 0
4.54622 0.582183 0
1.13571 0.390292 0
4.47606 0.441361 0
4.55475 0.446396 0
2.32985 0.442214 0
3.5614 0.451571 0
3.08619 0.421408 0
2.09339 0.427815 0
1.42887 0.583001 0
2.84864 0.406329 0
3.32378 0.43649 0
4.23911 0.425894 0
1.54723 0.39251 0
1.77883 0.406811 0
1.33959 0.387065 0
3.92239 0.405803 0
4.08079 0.415776 0
2.48812 0.452349 0
1.57935 0.603183 0
1.93602 0.417543 0
1.72453 0.617973 0
3.11273 0.629643 0
2.69029 0.396284 0
3.94662 0.623383 0
1.88466 0.613248 0
2.79598 0.609502 0
4.10826 0.620575 0
2.04005 0.62838 0
2.95434 0.619575 0
4.51981 0.375801 0
4.59833 0.380943 0
4.63314 0.451296 0
4.26693 0.63114 0
2.19619 0.645921 0
4.4246 0.642296 0
3.27112 0.639707 0
2.35729 0.649822 0
2.51462 0.660373 0
3.42952 0.649769 0
4.67669 0.38601 0
3.58793 0.659829 0
3.74634 0.669888 0
4.64195 0.315733 0
4.44109 0.370647 0
4.48493 0.305066 0
4.40614 0.29989 0
4.71136 0.456133 0
4.72014 0.320758 0
0.8692 0.382093 0
0.841252 0.348256 0
0.886481 0.338703 0
0.853127 0.301457 0
0.902583 0.287335 0
0.801683 0.321689 0
0.818113 0.263019 0
0.764765 0.277091 0
4.44702 0.235678 0
0.946267 0.520761 0
0.78107 0.221265 0
0.726309 0.234724 0
0.848273 0.20551 0
4.68545 0.250576 0
4.37074 0.227561 0
4.76365 0.255792 0
4.79822 0.326145 0
0.713664 0.287231 0
0.672358 0.247957 0
0.68673 0.192342 0
0.630368 0.2085 0
0.616569 0.265341 0
0.574186 0.225456 0
0.557393 0.28131 0
0.52004 0.242373 0
0.504416 0.299685 0
0.462273 0.252096 0
0.44798 0.316739 0
0.404567 0.276951 0
0.390546 0.335414 0
0.434669 0.37657 0
0.377935 0.394545 0
0.421979 0.43426 0
0.365682 0.452846 0
0.409646 0.492216 0
0.353389 0.51089 0
0.397738 0.551598 0
0.339864 0.570301 0
0.385899 0.612153 0
0.325913 0.631557 0
0.344507 0.29318 0
0.320568 0.413067 0
0.373553 0.673852 0
0.434438 0.653082 0
0.311416 0.69481 0
0.449777 0.528305 0
0.293513 0.534612 0
0.421431 0.715204 0
0.480917 0.696603 0
0.54504 0.34471 0
0.262743 0.649913 0
0.246209 0.712341 0
0.468564 0.755948 0
0.526091 0.735423 0
0.538207 0.68039 0
0.581228 0.716342 0
0.408756 0.777952 0
0.36234 0.239019 0
0.297047 0.251925 0
0.572109 0.771575 0
0.624906 0.752173 0
0.474824 0.414151 0
0.534351 0.182707 0
0.633682 0.70159 0
0.674547 0.736174 0
0.66826 0.788959 0
0.721117 0.76834 0
0.714515 0.825486 0
0.769074 0.802008 0
0.775287 0.746591 0
0.821903 0.778625 0
0.826767 0.726064 0
0.873257 0.756032 0
0.872997 0.697261 0
0.92331 0.732304 0
0.930014 0.67838 0
0.976061 0.710612 0
0.92456 0.784469 0
0.982178 0.654421 0
1.03016 0.688004 0
1.02037 0.747059 0
1.08 0.723819 0
1.08651 0.661896 0
1.1397 0.698204 0
1.13262 0.763657 0
1.19424 0.736545 0
1.18556 0.80161 0
1.24839 0.771772 0
1.25723 0.706382 0
1.31432 0.745787 0
4.66801 0.521361 0
4.74602 0.526202 0
4.70285 0.591278 0
4.78076 0.596023 0
4.73763 0.661207 0
4.78904 0.460969 0
2.61113 0.391267 0
2.65506 0.325217 0
2.57588 0.320198 0
2.61982 0.254148 0
2.69899 0.259163 0
2.54065 0.249131 0
2.49672 0.315179 0
2.46148 0.244124 0
2.41757 0.310166 0
2.38233 0.239117 0
2.33843 0.30514 0
2.30297 0.237979 0
2.25928 0.300748 0
2.22079 0.221377 0
2.17969 0.293884 0
2.14114 0.224266 0
2.10047 0.289841 0
2.0653 0.219144 0
2.02202 0.284919 0
1.98701 0.214164 0
1.94336 0.279863 0
3.82315 0.673327 0
3.78135 0.738156 0
3.86451 0.735958 0
3.70234 0.735494 0
4.52513 0.244409 0
4.32717 0.294467 0
4.29217 0.221862 0
0.619934 0.539507 0
0.599432 0.577132 0
0.575955 0.542712 0
0.554504 0.58245 0
4.65962 0.656481 0
4.69438 0.726169 0
4.6161 0.721747 0
4.77259 0.731352 0
4.65076 0.791486 0
4.57153 0.788793 0
4.2482 0.289182 0
4.21307 0.218308 0
4.1691 0.284563 0
4.13394 0.21352 0
0.835918 0.606341 0
0.806475 0.6384 0
4.08995 0.279537 0
0.640355 0.426737 0
0.596214 0.435837 0
0.630358 0.379178 0
0.689967 0.627735 0
1.90832 0.209948 0
1.86468 0.27519 0
1.82968 0.20518 0
1.78607 0.269797 0
0.281841 0.313314 0
0.232117 0.268621 0
0.216861 0.334396 0
4.05473 0.209347 0
4.01077 0.2745 0
3.97554 0.204394 0
3.93159 0.269388 0
0.297409 0.759367 0
0.231645 0.782943 0
0.180008 0.73598 0
1.32151 0.676369 0
1.38055 0.718092 0
1.36901 0.793947 0
1.43945 0.766002 0
0.249902 0.198865 0
0.932364 0.624392 0
1.75117 0.201034 0
1.70771 0.264658 0
1.673 0.195402 0
1.62985 0.260294 0
1.59532 0.191927 0
1.55236 0.254233 0
3.89629 0.200227 0
3.85238 0.264494 0
3.81708 0.195303 0
3.77304 0.259453 0
2.66368 0.189084 0
2.74279 0.19534 0
2.77814 0.264556 0
2.82201 0.199823 0
2.85733 0.269552 0
2.90126 0.203886 0
2.93654 0.274416 0
2.98045 0.20868 0
3.01573 0.279376 0
3.0597 0.213193 0
[...]
CELL_DATA 2220
VECTORS velocity double
28.5446 -1.5547 0.0
20.4973 0.714315 0.0
27.8865 0.786471 0.0
21.517 2.41008 0.0
29.2239 -1.76681 0.0
35.7953 -1.25547 0.0
17.4647 0.684498 0.0
19.3735 -0.0105724 0.0
35.7104 2.91552 0.0
34.8427 -0.918652 0.0
21.7786 0.526228 0.0
18.4521 0.402023 0.0
14.8135 0.300587 0.0
30.98 -2.48081 0.0
23.9834 -0.235955 0.0
31.3796 3.23146 0.0
19.9227 0.939188 0.0
16.2548 0.805397 0.0
18.16 -0.198831 0.0
19.5007 -0.173026 0.0
23.4776 0.534329 0.0
28.496 3.82797 0.0
18.7099 0.893521 0.0
19.0626 0.806239 0.0
38.9991 -0.616181 0.0
28.7307 -2.2998 0.0
21.5909 1.14226 0.0
16.5124 0.786895 0.0
21.1992 2.27794 0.0
23.3079 1.69156 0.0
35.4137 -1.38628 0.0
28.6448 3.13602 0.0
13.6486 -0.177223 0.0
29.9456 1.22354 0.0
33.7493 -3.84204 0.0
36.2101 -1.35051 0.0
32.9902 -4.20932 0.0
15.8795 -0.186722 0.0
24.6443 2.61634 0.0
26.1334 2.04298 0.0
13.2506 0.638333 0.0
35.765 3.13869 0.0
18.2324 2.0753 0.0
17.7057 0.0283595 0.0
16.1667 0.0019385 0.0
14.5005 0.0335744 0.0
18.4344 0.844903 0.0
14.7019 0.000464049 0.0
34.4942 -0.812619 0.0
38.2788 0.293538 0.0
19.1679 0.686839 0.0
14.6127 0.162077 0.0
18.1351 0.852846 0.0
18.3161 0.183975 0.0
16.7924 0.802475 0.0
26.5649 1.83532 0.0
30.5563 3.28776 0.0
15.5453 0.752452 0.0
15.9855 0.763242 0.0
38.9924 0.162773 0.0
-0.0478119 -6.50893 0.0
39.5077 -1.02291 0.0
36.4634 -1.99902 0.0
18.528 0.87099 0.0
18.4928 0.857767 0.0
32.9428 1.16646 0.0
17.0613 -1.88977 0.0
33.5633 3.38728 0.0
15.8596 0.828066 0.0
15.9803 0.819069 0.0
18.178 0.260607 0.0
30.9522 -1.63565 0.0
14.3469 0.247845 0.0
37.3131 0.781527 0.0
11.9656 0.426776 0.0
35.3112 2.8548 0.0
38.1524 2.21871 0.0
22.2428 -1.77897 0.0
36.3172 3.62046 0.0
17.3251 0.161973 0.0
22.6493 -0.987618 0.0
26.9546 -1.74018 0.0
12.6903 -0.293637 0.0
14.3897 0.152412 0.0
17.8854 0.627451 0.0
17.8285 0.333676 0.0
26.367 -1.72266 0.0
15.0312 0.293868 0.0
15.2754 0.51025 0.0
35.4047 2.44137 0.0
6.30338 0.519782 0.0
22.0933 1.9672 0.0
18.2911 -0.24924 0.0
32.4394 3.19687 0.0
35.7849 3.01934 0.0
25.838 -1.86428 0.0
27.8142 -4.01564 0.0
13.106 -1.10514 0.0
0.958475 -4.98712 0.0
29.3583 -0.621318 0.0
6.79382 -0.824866 0.0
26.9816 -2.21668 0.0
18.2059 0.770054 0.0
16.0919 1.12701 0.0
31.7855 4.0842 0.0
34.5931 3.31731 0.0
36.3392 -1.09304 0.0
39.917 -1.05059 0.0
5.56664 -0.118838 0.0
18.9402 1.22163 0.0
26.0994 1.68211 0.0
33.4347 -2.05137 0.0
35.9303 -0.923067 0.0
9.75072 -0.963245 0.0
39.7518 -1.65855 0.0
15.6179 0.67762 0.0
29.8785 -2.49863 0.0
15.7473 -0.548215 0.0
6.80059 -0.0634635 0.0
35.1132 1.83258 0.0
21.5387 -1.7494 0.0
30.345 -1.29033 0.0
17.2446 1.38111 0.0
22.7651 3.24092 0.0
35.361 -3.82898 0.0
26.2772 -2.75907 0.0
32.7692 3.06208 0.0
20.1218 1.4573 0.0
34.117 -2.89507 0.0
15.4682 1.65261 0.0
15.3652 1.71045 0.0
17.9388 -2.0491 0.0
10.7899 -1.35617 0.0
19.1487 8.99383 0.0
24.2168 2.5101 0.0
15.316 9.08385 0.0
13.3764 -0.00563594 0.0
20.958 -0.281865 0.0
27.7935 -2.84818 0.0
29.3097 3.28257 0.0
23.9857 -0.861829 0.0
17.4147 -0.0459757 0.0
39.4922 -1.99192 0.0
36.413 -4.26023 0.0
36.4068 0.774469 0.0
29.0422 2.83419 0.0
9.12474 1.07741 0.0
13.3223 -0.591422 0.0
38.9812 1.79068 0.0
39.5461 -1.4416 0.0
15.7649 -0.262586 0.0
34.3339 1.81468 0.0
30.6344 -0.0205209 0.0
20.9103 2.93102 0.0
8.47128 6.95238 0.0
19.7387 0.361442 0.0
19.4561 -2.19901 0.0
20.4478 0.572172 0.0
9.6651 -1.01071 0.0
19.7037 -1.36118 0.0
19.1477 -3.10168 0.0
15.7547 0.0593161 0.0
8.63965 -1.06653 0.0
28.6474 -3.05613 0.0
14.2333 0.150456 0.0
28.391 2.01824 0.0
29.6181 -1.95679 0.0
33.5157 -1.21745 0.0
19.6107 0.269754 0.0
11.1261 -2.01315 0.0
10.0261 1.40553 0.0
14.0943 0.077082 0.0
18.0292 0.131177 0.0
14.7248 -1.60947 0.0
24.0723 -1.37466 0.0
36.849 3.64881 0.0
37.1011 2.04349 0.0
36.1655 3.38772 0.0
10.6955 -0.69454 0.0
19.5039 0.101583 0.0
29.7933 -0.489618 0.0
19.9504 -0.932016 0.0
6.57241 1.20053 0.0
16.963 2.0716 0.0
19.7871 0.00242552 0.0
38.1102 -0.943037 0.0
31.1142 0.115164 0.0
15.9221 -0.319696 0.0
29.1094 -3.888 0.0
33.337 -0.434283 0.0
11.5011 -1.2282 0.0
15.5788 -0.285335 0.0
34.9259 -2.54388 0.0
38.8937 1.54668 0.0
19.8294 -2.04912 0.0
31.0526 0.858244 0.0
25.9806 0.944853 0.0
17.8605 -0.504734 0.0
5.78415 -0.547074 0.0
18.551 -0.425648 0.0
19.3195 -6.15906 0.0
24.1355 -0.877712 0.0
30.6733 2.78868 0.0
18.5973 -0.0410512 0.0
13.4301 -0.514121 0.0
25.9957 -2.13197 0.0
24.2635 0.033424 0.0
17.1235 0.0794009 0.0
26.0842 1.37036 0.0
10.3829 -0.781139 0.0
18.2154 0.80361 0.0
11.6992 -0.486435 0.0
25.1795 -0.267964 0.0
35.309 3.48402 0.0
38.338 2.79574 0.0
19.4955 2.14904 0.0
15.537 0.739338 0.0
18.4209 0.951928 0.0
10.8981 0.339851 0.0
12.372 -0.19101 0.0
35.8488 0.494932 0.0
8.90724 -0.226559 0.0
15.6271 0.874343 0.0
8.54219 -0.0711585 0.0
18.422 -0.0309285 0.0
21.7793 -1.08038 0.0
18.5143 -1.45464 0.0
20.3147 -0.939431 0.0
28.8877 -0.0195313 0.0
10.4582 1.1004 0.0
22.8199 1.31733 0.0
25.0685 -1.267 0.0
12.7574 -0.060603 0.0
18.8754 -0.1581 0.0
10.6858 -1.0118 0.0
35.2509 -0.00653872 0.0
22.4609 -1.78363 0.0
18.1502 -0.2918 0.0
18.0299 -0.326569 0.0
16.1503 -0.0842527 0.0
36.5658 -4.01844 0.0
29.3684 -3.56053 0.0
34.5675 4.34415 0.0
9.55255 -0.0066916 0.0
17.2093 7.41198 0.0
36.5414 -0.0734943 0.0
19.7835 -0.221211 0.0
27.7759 -1.24675 0.0
6.33663 8.55138 0.0
18.7946 2.10959 0.0
15.5401 -7.76704 0.0
9.54298 -0.0895749 0.0
29.6683 -2.44375 0.0
34.3468 -0.218599 0.0
37.1371 -3.06645 0.0
17.872 0.450567 0.0
10.2393 0.174686 0.0
35.7223 0.155622 0.0
20.0952 1.99115 0.0
35.401 1.45208 0.0
20.3 -0.408491 0.0
31.2189 -0.897938 0.0
10.2549 1.10816 0.0
23.0926 -1.47273 0.0
9.44207 -0.488687 0.0
7.21937 -0.0897916 0.0
16.8865 -0.853161 0.0
27.6786 -1.44927 0.0
21.9049 1.34541 0.0
36.979 -0.14765 0.0
33.5603 1.00558 0.0
34.1762 -1.88365e-05 0.0
15.142 0.372524 0.0
35.4577 -1.63778 0.0
18.7437 -2.09744 0.0
35.2113 4.36374 0.0
12.2414 1.92855 0.0
31.9695 -0.86979 0.0
18.1857 1.62678 0.0
12.0878 0.129287 0.0
21.4726 -2.12053 0.0
23.0033 -2.27459 0.0
36.1342 4.16043 0.0
24.7877 0.993268 0.0
34.9867 -1.52121 0.0
22.8611 -0.611114 0.0
31.0508 -3.56453 0.0
24.0281 0.888251 0.0
15.6873 -0.245855 0.0
15.1856 -0.274153 0.0
10.1823 -0.324733 0.0
17.8596 -1.00037 0.0
10.8006 0.945114 0.0
21.3464 -6.63639 0.0
20.8322 -1.30786 0.0
23.3273 -0.287566 0.0
23.6195 -0.254513 0.0
18.8426 0.515633 0.0
35.6383 4.29355 0.0
38.6827 2.87844 0.0
13.8928 -0.896404 0.0
37.3407 3.69581 0.0
30.9264 -1.80815 0.0
6.81072 0.085512 0.0
31.221 -3.05571 0.0
19.232 0.8983 0.0
14.7795 -0.0990909 0.0
15.3787 -0.294911 0.0
14.4329 0.406088 0.0
9.89889 0.861565 0.0
12.4615 0.0075208 0.0
15.4311 5.42826 0.0
12.8459 1.09659 0.0
36.0943 4.3645 0.0
28.9101 -2.24425 0.0
17.7385 -0.297579 0.0
36.9136 3.102 0.0
11.0928 1.02476 0.0
35.9208 -2.33488 0.0
38.3237 3.22275 0.0
13.0512 -2.05778 0.0
16.7229 1.01445 0.0
35.0549 0.206626 0.0
11.2664 -0.937154 0.0
14.3607 8.20181 0.0
11.6556 -0.143435 0.0
34.2387 0.0908142 0.0
34.7342 1.06864 0.0
36.6565 0.472568 0.0
11.2674 -0.474309 0.0
33.1756 -3.31871 0.0
36.5302 -4.62968 0.0
33.3619 -1.50817 0.0
10.1425 -1.0186 0.0
34.9263 0.00374779 0.0
36.3752 -3.48968 0.0
22.1635 -2.48298 0.0
36.6795 3.69581 0.0
30.4973 -2.03174 0.0
17.9227 -0.326229 0.0
7.79637 -0.164082 0.0
15.9383 -0.334864 0.0
6.43593 0.491492 0.0
6.55096 0.0394113 0.0
13.294 -1.67169 0.0
36.2949 3.50166 0.0
10.7787 3.86795 0.0
36.8085 3.57409 0.0
38.1669 2.61436 0.0
6.21451 -0.304264 0.0
35.2178 1.5019 0.0
5.25224 0.178918 0.0
6.37937 -0.43145 0.0
28.8889 2.98738 0.0
9.20898 0.736761 0.0
35.5131 -1.66671 0.0
34.662 1.81608 0.0
5.33743 -0.298408 0.0
34.2384 0.761199 0.0
27.3676 -3.17052 0.0
36.6983 2.73098 0.0
13.1303 0.638634 0.0
27.0949 1.90893 0.0
36.7793 3.19316 0.0
5.67997 0.587049 0.0
39.3001 0.495243 0.0
30.9883 -4.34135 0.0
5.84019 -0.409051 0.0
5.94948 -0.550262 0.0
31.5257 -1.76811 0.0
6.01427 0.452024 0.0
29.2146 3.75453 0.0
33.8289 -1.83147 0.0
20.2203 -0.719782 0.0
8.24676 -0.08514 0.0
11.7555 0.519508 0.0
24.9365 0.568329 0.0
25.1506 0.173425 0.0
35.4831 -0.830135 0.0
23.5844 -0.173388 0.0
12.4629 -0.836079 0.0
35.9636 3.53177 0.0
36.1088 -3.05435 0.0
36.1383 0.280415 0.0
35.4804 3.49376 0.0
33.6313 -0.166832 0.0
35.3677 3.94747 0.0
34.873 0.157802 0.0
28.9124 -1.98277 0.0
36.6093 2.27244 0.0
9.69174 1.00426 0.0
32.5662 0.0303214 0.0
26.0197 -0.91699 0.0
36.3166 -2.69714 0.0
8.50003 -0.935621 0.0
17.647 -1.34877 0.0
35.3407 0.666794 0.0
8.17353 0.764644 0.0
34.7949 0.164084 0.0
35.5253 2.5702 0.0
6.67161 0.278666 0.0
26.1302 -0.78148 0.0
35.8069 2.97191 0.0
35.3125 0.0841817 0.0
31.5434 -4.10785 0.0
35.1525 -4.5049 0.0
7.03808 3.62904 0.0
9.5318 0.791758 0.0
20.8314 -1.58274 0.0
34.4522 -1.58917 0.0
25.9278 -2.47202 0.0
6.29717 0.0352919 0.0
35.5351 4.00195 0.0
37.9145 -2.8994 0.0
35.6415 -2.18163 0.0
35.4545 0.0892551 0.0
3.81615 -0.172976 0.0
5.5232 0.45908 0.0
34.3822 2.85929 0.0
6.03299 0.566213 0.0
37.8126 3.51511 0.0
34.8685 2.67505 0.0
3.90158 0.00161071 0.0
6.01578 -0.493716 0.0
35.6193 2.5356 0.0
32.607 0.434161 0.0
3.72666 0.176819 0.0
29.3082 -0.178587 0.0
34.7986 0.200483 0.0
9.97081 -0.71371 0.0
35.2563 0.11613 0.0
32.9327 2.50525 0.0
35.8695 -3.22079 0.0
36.1726 1.91009 0.0
6.31453 -0.597323 0.0
29.5002 -4.3165 0.0
6.54259 -0.141855 0.0
6.17031 0.458644 0.0
32.7454 -3.23234 0.0
6.08389 0.633013 0.0
33.2325 2.88306 0.0
35.4613 2.14916 0.0
35.8884 -3.72933 0.0
36.0573 -4.64371 0.0
9.99997 -1.08465 0.0
20.3778 -0.00143473 0.0
35.3378 1.93603 0.0
5.48763 -0.354458 0.0
5.03318 0.394042 0.0
15.8251 -1.38206 0.0
9.67704 0.96291 0.0
35.213 -0.728291 0.0
6.70327 -0.434532 0.0
20.9854 0.926514 0.0
37.1188 1.19139 0.0
9.06436 0.692526 0.0
11.2942 0.750329 0.0
35.9161 3.37563 0.0
6.45863 0.392308 0.0
35.3776 1.48782 0.0
32.5474 2.14977 0.0
33.5591 0.400873 0.0
5.90363 -0.584785 0.0
4.58834 0.424837 0.0
8.12148 -0.372613 0.0
25.4006 -0.427162 0.0
12.7261 -1.43761 0.0
35.2904 0.1603 0.0
3.79547 0.0992221 0.0
36.435 -4.57125 0.0
9.84272 -0.356276 0.0
5.00199 0.404822 0.0
14.0083 -1.54276 0.0
36.0459 3.62529 0.0
9.63451 -0.629131 0.0
33.4127 0.328002 0.0
34.6625 1.77216 0.0
25.379 -0.398415 0.0
34.8979 0.236603 0.0
32.0115 1.82465 0.0
20.7156 -1.55368 0.0
35.1984 0.657892 0.0
38.1 -2.36932 0.0
31.436 1.49289 0.0
6.21702 -0.663721 0.0
6.6311 0.686944 0.0
35.2562 -0.852809 0.0
4.74358 0.34544 0.0
30.5309 -3.49983 0.0
21.9422 6.14134 0.0
35.0395 0.24639 0.0
4.87275 0.374014 0.0
5.60778 -0.391299 0.0
34.0629 1.37345 0.0
36.0347 3.57925 0.0
25.8695 -0.193856 0.0
26.6155 -1.45478 0.0
31.0985 0.0756507 0.0
23.7269 -1.29084 0.0
18.3382 -7.67707 0.0
31.3711 -0.14966 0.0
31.1339 2.27313 0.0
5.20039 -0.220551 0.0
30.9504 1.16861 0.0
28.0922 5.53904 0.0
16.1393 -0.483394 0.0
35.4048 0.315908 0.0
4.11911 -0.411929 0.0
4.54951 0.421899 0.0
31.4871 2.62371 0.0
32.1764 -0.176526 0.0
31.453 -0.932204 0.0
18.5807 -0.168837 0.0
34.4361 1.32668 0.0
35.3886 0.194759 0.0
38.329 -2.29026 0.0
5.56869 1.3584 0.0
33.832 0.547504 0.0
38.3235 -2.52863 0.0
30.1666 1.6575 0.0
31.1651 3.8568 0.0
10.8731 -2.24853 0.0
33.4931 0.117852 0.0
7.13359 -4.71499 0.0
32.0571 -1.48216 0.0
33.5082 -1.0507 0.0
38.6079 2.7536 0.0
34.605 1.66591 0.0
5.82996 -1.17091 0.0
30.5998 0.898012 0.0
32.9307 2.26854 0.0
29.661 1.36488 0.0
36.0908 0.12777 0.0
30.698 1.95383 0.0
33.1249 0.733859 0.0
22.7967 -0.905545 0.0
25.9399 1.05658 0.0
11.5169 -3.35182 0.0
35.4028 -2.65348 0.0
14.9493 -0.159882 0.0
28.0229 -4.33288 0.0
9.64584 -6.18881 0.0
34.6594 -2.62084 0.0
35.5953 0.167419 0.0
2.81946 -0.278492 0.0
2.89221 0.284252 0.0
32.7801 0.549558 0.0
34.7825 3.08739 0.0
30.3799 0.705052 0.0
26.5348 5.60503 0.0
5.83956 -0.15752 0.0
9.30656 -0.250622 0.0
7.38627 0.63089 0.0
3.74327 1.90182 0.0
7.86931 -3.28904 0.0
38.2172 -2.95341 0.0
36.2007 0.101698 0.0
35.1644 -3.84269 0.0
1.2976 1.01979 0.0
27.3763 -0.0835465 0.0
28.9614 -0.0900829 0.0
30.5158 -3.4296 0.0
25.5404 5.90669 0.0
1.49829 -0.975356 0.0
4.122 -1.70909 0.0
25.2612 0.532438 0.0
18.5165 1.10084 0.0
29.3279 1.08119 0.0
21.5729 -2.50957 0.0
32.3098 -0.0814744 0.0
34.7923 2.2501 0.0
33.2623 -0.0780425 0.0
28.6791 4.50196 0.0
35.2682 0.147058 0.0
3.67866 -0.288092 0.0
37.8219 3.55367 0.0
35.9913 0.407665 0.0
33.3659 0.317602 0.0
35.955 0.0536044 0.0
33.0786 -2.11288 0.0
3.54166 0.209523 0.0
35.7629 -0.0780043 0.0
6.88371 -0.749206 0.0
16.3206 1.24336 0.0
24.3422 -0.257815 0.0
30.2405 0.594758 0.0
29.0766 0.844155 0.0
35.3588 1.06067 0.0
35.5642 0.887848 0.0
35.1331 1.24589 0.0
4.61819 0.28502 0.0
8.59132 0.502619 0.0
7.50298 -0.466433 0.0
35.7935 0.208091 0.0
32.5416 0.386942 0.0
36.5747 -4.62453 0.0
6.70271 0.905088 0.0
34.8514 0.0470115 0.0
33.1161 2.60866 0.0
13.7538 6.61165 0.0
32.8661 -0.0498374 0.0
3.26698 0.540479 0.0
31.7932 -0.0979972 0.0
33.748 -0.804863 0.0
32.338 -0.56341 0.0
24.8216 -0.329795 0.0
23.0818 -0.320117 0.0
31.3952 -0.150584 0.0
7.33986 0.243313 0.0
35.2355 3.82881 0.0
35.5467 -0.0487346 0.0
33.7189 -0.205905 0.0
33.4249 0.340799 0.0
30.2303 0.538495 0.0
17.6061 -0.00236615 0.0
32.563 0.390283 0.0
39.4368 -1.73412 0.0
35.2755 0.0848511 0.0
9.02276 0.358574 0.0
31.3794 3.68727 0.0
3.49781 -0.482026 0.0
35.9343 0.513727 0.0
35.814 0.373709 0.0
30.3083 0.52474 0.0
2.49284 0.791172 0.0
35.1709 -0.858281 0.0
35.609 0.117501 0.0
35.1842 1.00329 0.0
32.4563 -0.0964498 0.0
35.443 -0.287181 0.0
33.5801 0.364481 0.0
35.6181 0.217769 0.0
36.0188 0.28529 0.0
35.507 0.198643 0.0
30.5147 0.541535 0.0
4.19958 0.282059 0.0
13.8596 0.856288 0.0
35.4111 -0.474229 0.0
34.4573 3.26374 0.0
2.70691 -0.725762 0.0
7.97956 -0.300068 0.0
34.3572 -2.80947 0.0
32.7474 2.45283 0.0
32.7058 0.417181 0.0
14.7383 -0.558476 0.0
33.4402 -0.19562 0.0
34.0961 -0.147993 0.0
24.8262 6.82725 0.0
7.79151 0.481676 0.0
3.96991 -0.304702 0.0
38.6542 -2.10894 0.0
28.393 3.84754 0.0
33.7791 -2.03822 0.0
35.9465 0.441534 0.0
12.3257 0.171825 0.0
32.9234 0.421462 0.0
28.9213 0.707656 0.0
35.1685 -0.036022 0.0
3.78266 0.374693 0.0
33.7948 0.347736 0.0
35.2331 0.0259615 0.0
4.5514 -0.135172 0.0
30.8208 0.53283 0.0
35.1841 0.212452 0.0
35.8436 0.541606 0.0
34.2011 0.158629 0.0
33.9122 -0.216563 0.0
35.5605 0.0642055 0.0
31.0421 -0.744022 0.0
34.1141 -0.159962 0.0
34.0436 0.265474 0.0
33.6121 0.106885 0.0
33.2619 -0.256799 0.0
4.29674 -0.192427 0.0
35.7861 0.267891 0.0
33.1155 -0.303937 0.0
5.66203 0.236674 0.0
35.4782 0.00576786 0.0
8.78233 0.439288 0.0
33.2059 0.34837 0.0
33.7674 -0.271732 0.0
35.8735 0.445809 0.0
34.7327 -0.139893 0.0
34.2727 0.0728702 0.0
35.7007 0.359734 0.0
17.431 0.2544 0.0
31.6363 0.230255 0.0
30.1791 1.22124 0.0
31.1226 0.414246 0.0
4.11364 -0.0387438 0.0
35.1162 0.23145 0.0
33.4644 0.215427 0.0
30.2264 -3.84791 0.0
3.36893 -0.313758 0.0
28.9696 0.585706 0.0
3.30538 0.232658 0.0
28.2602 -3.60575 0.0
31.363 1.37031 0.0
29.1502 0.58236 0.0
32.1311 -0.161135 0.0
32.9923 -0.3276 0.0
29.4913 0.595222 0.0
34.2871 -0.0591034 0.0
31.0738 -3.12602 0.0
29.0389 -4.35599 0.0
33.4197 -0.0482661 0.0
35.6939 0.557761 0.0
35.8141 0.582487 0.0
35.8236 0.416313 0.0
33.6496 -0.307146 0.0
35.9835 0.445297 0.0
30.0665 -0.169873 0.0
35.949 0.396338 0.0
32.6805 -0.187102 0.0
31.8261 0.102102 0.0
16.5241 0.480703 0.0
34.5748 0.0875055 0.0
35.9831 0.403946 0.0
28.456 -0.565483 0.0
35.7232 0.466455 0.0
33.5547 -0.311773 0.0
32.8939 -0.311879 0.0
4.44541 0.225612 0.0
33.6848 0.027801 0.0
28.9 0.631202 0.0
36.1182 0.38247 0.0
26.7208 -0.151989 0.0
9.36852 0.314336 0.0
31.9773 0.0106357 0.0
35.7659 0.328249 0.0
30.2676 0.320659 0.0
29.4663 -0.169557 0.0
32.8148 -0.242972 0.0
35.7736 0.151138 0.0
33.4829 -0.272896 0.0
30.6971 0.163049 0.0
21.989 4.94192 0.0
35.3874 -0.0594722 0.0
36.1438 0.33066 0.0
35.4831 0.80556 0.0
16.2046 -0.0888438 0.0
33.7211 -0.0387657 0.0
28.4695 -0.200705 0.0
5.07902 0.187771 0.0
8.67194 0.363339 0.0
33.4171 -0.189149 0.0
35.3515 0.335681 0.0
31.4679 -0.329506 0.0
32.7301 -0.133993 0.0
36.004 0.244384 0.0
31.8692 -0.223884 0.0
32.0918 -0.0620339 0.0
32.5982 -0.0151256 0.0
28.6891 -0.233065 0.0
31.0818 -0.207627 0.0
36.2309 0.253213 0.0
29.0252 -0.195142 0.0
35.7305 0.155646 0.0
31.2923 -0.358504 0.0
32.346 -0.273937 0.0
30.8241 -0.264046 0.0
28.383 -0.28047 0.0
35.3261 0.325743 0.0
33.3274 -0.0811682 0.0
6.23244 0.215177 0.0
9.52485 0.311588 0.0
35.9921 0.0506512 0.0
35.7026 -0.0375514 0.0
29.7556 0.558205 0.0
30.7543 0.0135938 0.0
31.0777 -0.0363006 0.0
35.8795 0.4963 0.0
32.3744 0.0826646 0.0
35.3072 0.764435 0.0
34.2928 0.00476613 0.0
28.1086 -0.331669 0.0
30.2136 -0.376742 0.0
30.8961 0.047449 0.0
33.1788 0.0215601 0.0
36.2496 0.179032 0.0
35.1017 -0.101171 0.0
30.6057 -0.31688 0.0
33.1825 1.34722 0.0
27.1268 -0.261217 0.0
30.4016 -0.360731 0.0
27.866 -0.384427 0.0
34.0024 1.31285 0.0
32.0596 0.126816 0.0
32.9505 0.0874958 0.0
31.1576 -0.342125 0.0
27.4814 -0.223112 0.0
29.8077 -0.0413373 0.0
35.793 0.33228 0.0
27.6177 -0.411802 0.0
30.0756 -0.319335 0.0
31.7298 0.0968801 0.0
18.5397 0.229816 0.0
34.8174 0.23561 0.0
27.3635 -0.340128 0.0
16.2536 0.162634 0.0
26.8157 -0.307791 0.0
32.6737 0.0907888 0.0
27.2456 -0.177101 0.0
29.9481 -0.193677 0.0
27.89 -0.204377 0.0
4.47276 -0.0733253 0.0
8.19513 -0.131122 0.0
18.4338 0.328404 0.0
31.6202 -0.29305 0.0
30.9303 -0.126452 0.0
31.4671 0.0155269 0.0
32.4173 0.0320408 0.0
27.0526 -0.00428984 0.0
9.30942 0.150589 0.0
35.9591 0.223916 0.0
8.40916 -0.147338 0.0
36.2597 0.0522587 0.0
31.334 -0.0741357 0.0
26.5282 -0.361853 0.0
30.4427 0.128898 0.0
26.1897 -0.417567 0.0
36.2327 -0.0567554 0.0
29.9956 0.188745 0.0
4.62497 -0.0772436 0.0
8.29871 -0.146268 0.0
31.0474 -0.257352 0.0
5.0171 0.0927173 0.0
32.2429 -0.060727 0.0
25.9289 -0.400153 0.0
25.7377 -0.252305 0.0
29.5479 0.0952535 0.0
32.0052 -0.158506 0.0
35.9787 -0.0306962 0.0
29.5538 0.163587 0.0
29.2015 0.0734309 0.0
8.35396 -0.128765 0.0
4.80206 -0.0778597 0.0
15.5259 0.272799 0.0
25.5535 -0.0617085 0.0
29.0795 0.194948 0.0
31.653 -0.281146 0.0
28.5366 0.224263 0.0
32.9565 -0.0623378 0.0
15.8322 0.301836 0.0
28.0682 0.149823 0.0
32.2233 -0.138563 0.0
28.999 -0.00792809 0.0
8.45308 0.154163 0.0
4.35808 -0.0491069 0.0
3.66902 -0.0779066 0.0
4.6755 -0.0707034 0.0
8.34349 -0.0423743 0.0
8.87853 0.174621 0.0
4.00069 -0.0200163 0.0
4.53095 -3.89293e-05 0.0
8.15958 -0.124765 0.0
4.38815 -0.0458064 0.0
4.73607 -0.0383976 0.0
5.03632 0.137158 0.0
8.97289 -0.132701 0.0
4.87474 0.0855731 0.0
8.03352 -0.084956 0.0
4.68516 0.0832726 0.0
8.56774 -0.0609087 0.0
8.36758 -0.0239188 0.0
4.55026 0.153776 0.0
9.21065 0.200508 0.0
8.1536 -0.101105 0.0
7.95973 -0.109488 0.0
4.67329 0.241152 0.0
7.72856 -0.0671797 0.0
8.31041 0.202708 0.0
4.33823 -0.01095 0.0
8.08694 -0.0561164 0.0
4.90191 0.0256138 0.0
4.35179 0.0954791 0.0
7.79588 -0.147124 0.0
4.66226 0.178486 0.0
5.64432 0.110715 0.0
4.75326 0.277706 0.0
4.00205 0.0832565 0.0
4.28674 -0.0102313 0.0
8.17485 0.0374351 0.0
4.50452 -0.072761 0.0
4.61283 -0.0759678 0.0
4.76525 0.192999 0.0
4.81989 0.185145 0.0
4.70583 0.00644868 0.0
4.60135 0.0629069 0.0
3.92155 -0.0756543 0.0
4.43425 -0.0421613 0.0
5.52412 -0.00113981 0.0
9.12371 -0.0165134 0.0
4.84225 -0.0760409 0.0
5.70871 0.0833177 0.0
7.81004 0.168201 0.0
7.58753 -0.166135 0.0
4.40248 -0.0647089 0.0
4.82123 0.207506 0.0
4.46976 0.051312 0.0
8.55552 0.0340483 0.0
4.22553 0.104973 0.0
4.68337 0.0851412 0.0
4.35245 -0.0665902 0.0
8.56682 0.36533 0.0
5.35511 -0.0894352 0.0
3.86281 0.0226134 0.0
4.39413 0.0213747 0.0
3.72523 0.0493932 0.0
4.81542 0.0859712 0.0
4.86184 -0.0204978 0.0
7.17203 -0.0714217 0.0
3.33275 -0.0270834 0.0
8.36291 0.353767 0.0
8.65827 0.14363 0.0
31.9354 -0.158722 0.0
31.4193 -0.111375 0.0
34.2706 -0.122184 0.0
27.7591 0.0520103 0.0
35.6478 -0.295737 0.0
35.8847 -0.137684 0.0
27.5461 0.0170701 0.0
35.746 -0.313746 0.0
36.065 -0.265287 0.0
35.8362 -0.333355 0.0
36.1583 -0.165445 0.0
29.0365 -0.00647246 0.0
31.7352 -0.107539 0.0
35.9566 -0.297829 0.0
30.8714 -0.140337 0.0
35.53 -0.210923 0.0
32.4255 -0.165167 0.0
35.4796 -0.170363 0.0
33.9134 -0.246423 0.0
34.3239 -0.273556 0.0
24.3317 0.122471 0.0
35.5469 -0.342394 0.0
35.6627 -0.187051 0.0
34.5992 -0.258342 0.0
35.8033 -0.280398 0.0
27.1065 -0.116927 0.0
33.7345 -0.102487 0.0
31.6412 -0.115975 0.0
35.423 -0.328789 0.0
35.1782 -0.319717 0.0