# vtk DataFile Version 3.0
Malha 2D com triângulos e temperatura
ASCII
DATASET UNSTRUCTURED_GRID

POINTS 1194 double
0 0 0
5 0 0
5 1 0
0 1 0
0.85 0.5 0
0.842388 0.538268 0
0.820711 0.570711 0
0.788268 0.592388 0
0.75 0.6 0
0.711732 0.592388 0
0.679289 0.570711 0
0.657612 0.538268 0
0.65 0.5 0
0.657612 0.461732 0
0.679289 0.429289 0
0.711732 0.407612 0
0.75 0.4 0
0.788268 0.407612 0
0.820711 0.429289 0
0.842388 0.461732 0
0.0793651 0 0
0.15873 0 0
0.238095 0 0
0.31746 0 0
0.396825 0 0
0.47619 0 0
0.555556 0 0
0.634921 0 0
0.714286 0 0
0.793651 0 0
0.873016 0 0
0.952381 0 0
1.03175 0 0
1.11111 0 0
1.19048 0 0
1.26984 0 0
1.34921 0 0
1.42857 0 0
1.50794 0 0
1.5873 0 0
1.66667 0 0
1.74603 0 0
1.8254 0 0
1.90476 0 0
1.98413 0 0
2.06349 0 0
2.14286 0 0
2.22222 0 0
2.30159 0 0
2.38095 0 0
2.46032 0 0
2.53968 0 0
2.61905 0 0
2.69841 0 0
2.77778 0 0
2.85714 0 0
2.93651 0 0
3.01587 0 0
3.09524 0 0
3.1746 0 0
3.25397 0 0
3.33333 0 0
3.4127 0 0
3.49206 0 0
3.57143 0 0
3.65079 0 0
3.73016 0 0
3.80952 0 0
3.88889 0 0
3.96825 0 0
4.04762 0 0
4.12698 0 0
4.20635 0 0
4.28571 0 0
4.36508 0 0
4.44444 0 0
4.52381 0 0
4.60317 0 0
4.68254 0 0
4.7619 0 0
4.84127 0 0
4.92063 0 0
5 0.0769231 0
5 0.153846 0
5 0.230769 0
5 0.307692 0
5 0.384615 0
5 0.461538 0
5 0.538462 0
5 0.615385 0
5 0.692308 0
5 0.769231 0
5 0.846154 0
5 0.923077 0
4.92063 1 0
4.84127 1 0
4.7619 1 0
4.68254 1 0
4.60317 1 0
4.52381 1 0
4.44444 1 0
4.36508 1 0
4.28571 1 0
4.20635 1 0
4.12698 1 0
4.04762 1 0
3.96825 1 0
3.88889 1 0
3.80952 1 0
3.73016 1 0
3.65079 1 0
3.57143 1 0
3.49206 1 0
3.4127 1 0
3.33333 1 0
3.25397 1 0
3.1746 1 0
3.09524 1 0
3.01587 1 0
2.93651 1 0
2.85714 1 0
2.77778 1 0
2.69841 1 0
2.61905 1 0
2.53968 1 0
2.46032 1 0
2.38095 1 0
2.30159 1 0
2.22222 1 0
2.14286 1 0
2.06349 1 0
1.98413 1 0
1.90476 1 0
1.8254 1 0
1.74603 1 0
1.66667 1 0
1.5873 1 0
1.50794 1 0
1.42857 1 0
1.34921 1 0
1.26984 1 0
1.19048 1 0
1.11111 1 0
1.03175 1 0
0.952381 1 0
0.873016 1 0
0.793651 1 0
0.714286 1 0
0.634921 1 0
0.555556 1 0
0.47619 1 0
0.396825 1 0
0.31746 1 0
0.238095 1 0
0.15873 1 0
0.0793651 1 0
0 0.923077 0
0 0.846154 0
0 0.769231 0
0 0.692308 0
0 0.615385 0
0 0.538462 0
0 0.461538 0
0 0.384615 0
0 0.307692 0
0 0.230769 0
0 0.153846 0
0 0.0769231 0
0.879698 0.466718 0
1.3085 0.931947 0
1.30532 0.0638546 0
4.93832 0.504275 0
0.620452 0.46964 0
3.99858 0.0669607 0
1.63721 0.934258 0
3.3751 0.0523709 0
4.3254 0.0687322 0
2.42354 0.0642082 0
2.97619 0.0687322 0
2.02101 0.0693621 0
3.68108 0.0581336 0
2.65899 0.932655 0
4.178 0.939994 0
3.21614 0.938179 0
2.25483 0.919987 0
3.53215 0.928998 0
3.84921 0.931268 0
1.69647 0.0674297 0
1.94349 0.930209 0
4.48413 0.931268 0
2.97813 0.942022 0
2.74097 0.0673855 0
0.859645 0.573263 0
0.639718 0.573116 0
0.0651563 0.652836 0
0.0635304 0.346121 0
4.56232 0.0679683 0
0.830393 0.392645 0
0.669618 0.39275 0
1.06185 0.0668897 0
0.440193 0.0680031 0
1.06474 0.93511 0
0.446074 0.935974 0
0.724697 0.630698 0
4.72268 0.931235 0
4.93065 0.267192 0
0.589836 0.936152 0
0.92338 0.0562425 0
0.590207 0.0623339 0
0.755872 0.0732784 0
0.838039 0.936714 0
4.92573 0.732039 0
0.281717 0.93783 0
0.28208 0.0811877 0
0.065248 0.503161 0
1.46076 0.0637037 0
4.72574 0.0661877 0
4.31028 0.937908 0
3.21429 0.0687322 0
1.46639 0.932632 0
3.6897 0.928155 0
2.42063 0.931268 0
3.5364 0.0691789 0
2.25998 0.0676208 0
1.78735 0.937047 0
4.01535 0.920637 0
1.85469 0.0674188 0
3.83991 0.0626292 0
3.37477 0.929368 0
2.58225 0.0657863 0
2.81746 0.932342 0
4.16667 0.0687322 0
2.11402 0.935574 0
0.0614266 0.197046 0
0.0612841 0.803003 0
4.88273 0.0644126 0
4.87774 0.933272 0
0.859645 0.426737 0
0.903081 0.436592 0
0.923672 0.473385 0
0.948706 0.439078 0
0.969155 0.479795 0
0.996593 0.439791 0
1.0202 0.484937 0
1.04667 0.440138 0
1.07382 0.489694 0
1.1034 0.440801 0
1.13169 0.49612 0
1.16603 0.445058 0
1.1931 0.504331 0
1.22956 0.450883 0
1.25923 0.506004 0
1.29683 0.453139 0
1.32923 0.510343 0
1.36603 0.454344 0
1.03276 0.530395 0
1.40063 0.516169 0
1.43576 0.454934 0
1.47042 0.520776 0
1.51069 0.46142 0
1.54422 0.526371 0
1.58547 0.465572 0
1.61942 0.531773 0
1.66033 0.468788 0
1.69546 0.536793 0
1.73713 0.472812 0
1.77239 0.541977 0
1.81532 0.478494 0
1.85006 0.547285 0
1.89327 0.483449 0
1.92802 0.55361 0
1.97142 0.488546 0
2.00623 0.558966 0
2.04984 0.493518 0
2.08483 0.564085 0
2.12847 0.498462 0
2.16353 0.569137 0
2.20719 0.503331 0
0.961579 0.391697 0
1.22451 0.565337 0
2.24238 0.574192 0
2.28611 0.508258 0
2.32134 0.579247 0
2.36519 0.513325 0
2.40036 0.584295 0
2.44425 0.51834 0
2.47944 0.589336 0
2.52334 0.523355 0
2.55853 0.594372 0
2.60245 0.52837 0
2.63764 0.599431 0
2.68159 0.533388 0
2.64637 0.462336 0
2.72553 0.467349 0
2.76076 0.538418 0
2.8047 0.47237 0
2.83993 0.543451 0
2.88387 0.477399 0
2.91911 0.548482 0
2.96305 0.482427 0
2.9983 0.553514 0
3.04224 0.487456 0
3.07749 0.558545 0
3.12143 0.492477 0
3.15668 0.563574 0
3.20063 0.497514 0
3.23588 0.568605 0
3.27983 0.502542 0
3.31508 0.573635 0
3.35903 0.507562 0
3.39428 0.578663 0
3.43823 0.5126 0
3.47348 0.583694 0
3.51744 0.517628 0
3.55268 0.588724 0
3.59664 0.522646 0
3.63189 0.593752 0
3.67585 0.527673 0
3.71109 0.598781 0
3.75505 0.532702 0
3.7903 0.60381 0
3.83426 0.537731 0
3.79901 0.466623 0
3.87821 0.471754 0
3.91346 0.542777 0
3.95742 0.476701 0
3.99267 0.547795 0
4.03662 0.481715 0
4.07187 0.552815 0
4.11582 0.486743 0
4.15106 0.55783 0
4.195 0.491782 0
4.23023 0.562843 0
4.27415 0.49682 0
4.30937 0.567866 0
4.35325 0.501915 0
4.38842 0.572845 0
4.43227 0.506997 0
4.46737 0.577575 0
4.51106 0.511995 0
4.54622 0.582183 0
1.13571 0.390292 0
4.47606 0.441361 0
4.55475 0.446396 0
2.32985 0.442214 0
3.5614 0.451571 0
3.08619 0.421408 0
2.09339 0.427815 0
1.42887 0.583001 0
2.84864 0.406329 0
3.32378 0.43649 0
4.23911 0.425894 0
1.54723 0.39251 0
1.77883 0.406811 0
1.33959 0.387065 0
3.92239 0.405803 0
4.08079 0.415776 0
2.48812 0.452349 0
1.57935 0.603183 0
1.93602 0.417543 0
1.72453 0.617973 0
3.11273 0.629643 0
2.69029 0.396284 0
3.94662 0.623383 0
1.88466 0.613248 0
2.79598 0.609502 0
4.10826 0.620575 0
2.04005 0.62838 0
2.95434 0.619575 0
4.51981 0.375801 0
4.59833 0.380943 0
4.63314 0.451296 0
4.26693 0.63114 0
2.19619 0.645921 0
4.4246 0.642296 0
3.27112 0.639707 0
2.35729 0.649822 0
2.51462 0.660373 0
3.42952 0.649769 0
4.67669 0.38601 0
3.58793 0.659829 0
3.74634 0.669888 0
4.64195 0.315733 0
4.44109 0.370647 0
4.48493 0.305066 0
4.40614 0.29989 0
4.71136 0.456133 0
4.72014 0.320758 0
0.8692 0.382093 0
0.841252 0.348256 0
0.886481 0.338703 0
0.853127 0.301457 0
0.902583 0.287335 0
0.801683 0.321689 0
0.818113 0.263019 0
0.764765 0.277091 0
4.44702 0.235678 0
0.946267 0.520761 0
0.78107 0.221265 0
0.726309 0.234724 0
0.848273 0.20551 0
4.68545 0.250576 0
4.37074 0.227561 0
4.76365 0.255792 0
4.79822 0.326145 0
0.713664 0.287231 0
0.672358 0.247957 0
0.68673 0.192342 0
0.630368 0.2085 0
0.616569 0.265341 0
0.574186 0.225456 0
0.557393 0.28131 0
0.52004 0.242373 0
0.504416 0.299685 0
0.462273 0.252096 0
0.44798 0.316739 0
0.404567 0.276951 0
0.390546 0.335414 0
0.434669 0.37657 0
0.377935 0.394545 0
0.421979 0.43426 0
0.365682 0.452846 0
0.409646 0.492216 0
0.353389 0.51089 0
0.397738 0.551598 0
0.339864 0.570301 0
0.385899 0.612153 0
0.325913 0.631557 0
0.344507 0.29318 0
0.320568 0.413067 0
0.373553 0.673852 0
0.434438 0.653082 0
0.311416 0.69481 0
0.449777 0.528305 0
0.293513 0.534612 0
0.421431 0.715204 0
0.480917 0.696603 0
0.54504 0.34471 0
0.262743 0.649913 0
0.246209 0.712341 0
0.468564 0.755948 0
0.526091 0.735423 0
0.538207 0.68039 0
0.581228 0.716342 0
0.408756 0.777952 0
0.36234 0.239019 0
0.297047 0.251925 0
0.572109 0.771575 0
0.624906 0.752173 0
0.474824 0.414151 0
0.534351 0.182707 0
0.633682 0.70159 0
0.674547 0.736174 0
0.66826 0.788959 0
0.721117 0.76834 0
0.714515 0.825486 0
0.769074 0.802008 0
0.775287 0.746591 0
0.821903 0.778625 0
0.826767 0.726064 0
0.873257 0.756032 0
0.872997 0.697261 0
0.92331 0.732304 0
0.930014 0.67838 0
0.976061 0.710612 0
0.92456 0.784469 0
0.982178 0.654421 0
1.03016 0.688004 0
1.02037 0.747059 0
1.08 0.723819 0
1.08651 0.661896 0
1.1397 0.698204 0
1.13262 0.763657 0
1.19424 0.736545 0
1.18556 0.80161 0
1.24839 0.771772 0
1.25723 0.706382 0
1.31432 0.745787 0
4.66801 0.521361 0
4.74602 0.526202 0
4.70285 0.591278 0
4.78076 0.596023 0
4.73763 0.661207 0
4.78904 0.460969 0
2.61113 0.391267 0
2.65506 0.325217 0
2.57588 0.320198 0
2.61982 0.254148 0
2.69899 0.259163 0
2.54065 0.249131 0
2.49672 0.315179 0
2.46148 0.244124 0
2.41757 0.310166 0
2.38233 0.239117 0
2.33843 0.30514 0
2.30297 0.237979 0
2.25928 0.300748 0
2.22079 0.221377 0
2.17969 0.293884 0
2.14114 0.224266 0
2.10047 0.289841 0
2.0653 0.219144 0
2.02202 0.284919 0
1.98701 0.214164 0
1.94336 0.279863 0
3.82315 0.673327 0
3.78135 0.738156 0
3.86451 0.735958 0
3.70234 0.735494 0
4.52513 0.244409 0
4.32717 0.294467 0
4.29217 0.221862 0
0.619934 0.539507 0
0.599432 0.577132 0
0.575955 0.542712 0
0.554504 0.58245 0
4.65962 0.656481 0
4.69438 0.726169 0
4.6161 0.721747 0
4.77259 0.731352 0
4.65076 0.791486 0
4.57153 0.788793 0
4.2482 0.289182 0
4.21307 0.218308 0
4.1691 0.284563 0
4.13394 0.21352 0
0.835918 0.606341 0
0.806475 0.6384 0
4.08995 0.279537 0
0.640355 0.426737 0
0.596214 0.435837 0
0.630358 0.379178 0
0.689967 0.627735 0
1.90832 0.209948 0
1.86468 0.27519 0
1.82968 0.20518 0
1.78607 0.269797 0
0.281841 0.313314 0
0.232117 0.268621 0
0.216861 0.334396 0
4.05473 0.209347 0
4.01077 0.2745 0
3.97554 0.204394 0
3.93159 0.269388 0
0.297409 0.759367 0
0.231645 0.782943 0
0.180008 0.73598 0
1.32151 0.676369 0
1.38055 0.718092 0
1.36901 0.793947 0
1.43945 0.766002 0
0.249902 0.198865 0
0.932364 0.624392 0
1.75117 0.201034 0
1.70771 0.264658 0
1.673 0.195402 0
1.62985 0.260294 0
1.59532 0.191927 0
1.55236 0.254233 0
3.89629 0.200227 0
3.85238 0.264494 0
3.81708 0.195303 0
3.77304 0.259453 0
2.66368 0.189084 0
2.74279 0.19534 0
2.77814 0.264556 0
2.82201 0.199823 0
2.85733 0.269552 0
2.90126 0.203886 0
2.93654 0.274416 0
2.98045 0.20868 0
3.01573 0.279376 0
3.0597 0.213193 0
[...]
CELL_DATA 2220
VECTORS velocity double
39.255 -1.83723 0.0
28.1817 0.779705 0.0
31.9589 0.683542 0.0
24.734 2.55348 0.0
39.9112 -2.0461 0.0
52.9612 -1.51958 0.0
23.8038 0.743236 0.0
26.489 -0.0564343 0.0
42.2417 2.87212 0.0
51.8058 -1.16698 0.0
24.9254 0.443411 0.0
25.2455 0.375712 0.0
20.038 0.281793 0.0
37.1206 -2.49401 0.0
27.4446 -0.341804 0.0
37.9982 3.23159 0.0
26.7787 1.60148 0.0
21.8279 1.07292 0.0
24.7402 -0.236574 0.0
26.7835 -0.216386 0.0
26.7572 0.447591 0.0
33.6668 3.97792 0.0
25.314 1.27098 0.0
26.1953 0.876259 0.0
52.8979 -0.629739 0.0
34.6611 -2.34246 0.0
24.5213 1.27381 0.0
22.4995 0.850574 0.0
24.3035 2.41337 0.0
26.776 1.78007 0.0
45.9291 -1.39935 0.0
33.2831 3.34308 0.0
18.2877 -0.203499 0.0
34.3707 1.37527 0.0
40.7265 -4.02218 0.0
53.2987 -1.61835 0.0
39.552 -4.39468 0.0
21.5577 -0.22168 0.0
28.4503 2.77296 0.0
29.9249 2.21976 0.0
14.9017 0.713772 0.0
42.5707 3.11868 0.0
20.8733 2.19642 0.0
23.8719 -0.0643259 0.0
21.9303 -0.0955786 0.0
19.3206 -0.0558834 0.0
25.0293 1.07174 0.0
19.7562 -0.0357541 0.0
51.2783 -1.05112 0.0
56.8247 0.409763 0.0
21.8103 0.631694 0.0
19.7937 0.146028 0.0
24.9101 0.94212 0.0
25.1754 0.163955 0.0
22.4199 1.25483 0.0
30.3501 2.00869 0.0
35.5431 3.50888 0.0
21.1571 0.833505 0.0
21.5228 0.922554 0.0
57.623 0.252791 0.0
-0.407105 -10.0418 0.0
54.1404 -1.07072 0.0
47.4618 -2.03178 0.0
25.4675 0.949546 0.0
25.3711 0.981853 0.0
37.8755 1.33882 0.0
19.358 -2.00186 0.0
40.9777 3.40217 0.0
21.4993 0.939297 0.0
21.7647 0.8903 0.0
24.9731 0.242964 0.0
35.6005 -1.80471 0.0
19.431 0.235406 0.0
54.9207 0.968727 0.0
14.467 0.431103 0.0
43.003 2.98639 0.0
50.2931 2.31969 0.0
27.1626 -1.85994 0.0
44.3191 3.65024 0.0
23.5011 0.153244 0.0
25.7635 -1.12897 0.0
30.8279 -1.92291 0.0
14.3023 -0.307557 0.0
19.3 0.142692 0.0
24.3077 0.705209 0.0
24.2451 0.352036 0.0
35.2866 -1.96595 0.0
20.2264 0.302686 0.0
20.5707 0.561862 0.0
41.4719 2.36702 0.0
7.58921 0.527287 0.0
26.0146 1.99273 0.0
25.0448 -0.291294 0.0
40.3595 3.33106 0.0
43.5109 3.1709 0.0
29.5663 -2.04524 0.0
33.0305 -4.16415 0.0
14.9958 -1.06638 0.0
0.34569 -7.46266 0.0
33.7135 -0.762178 0.0
7.8071 -0.807585 0.0
33.3351 -2.31728 0.0
24.7558 0.905185 0.0
21.239 1.27074 0.0
37.4041 4.26862 0.0
41.9354 3.46357 0.0
54.3058 -1.32247 0.0
57.1889 -1.15077 0.0
7.08385 -0.25945 0.0
25.3901 1.39187 0.0
30.3598 1.77735 0.0
39.2182 -1.98931 0.0
53.8579 -1.14655 0.0
10.8941 -1.02068 0.0
55.3977 -1.78956 0.0
21.038 0.770902 0.0
36.6665 -2.57834 0.0
17.8796 -0.575081 0.0
7.68812 -0.0385991 0.0
40.8448 1.73337 0.0
26.9814 -1.87654 0.0
36.2803 -1.3944 0.0
20.0423 1.39029 0.0
26.7147 3.35307 0.0
42.8027 -4.02661 0.0
31.5412 -2.7299 0.0
39.7087 3.18452 0.0
22.8833 1.52491 0.0
41.282 -2.91252 0.0
18.6698 1.65063 0.0
18.4736 3.78703 0.0
21.5137 -2.11341 0.0
12.8943 -1.39257 0.0
17.2548 20.2859 0.0
27.8433 2.65508 0.0
12.5651 18.2759 0.0
17.8386 -0.0220815 0.0
23.8195 -0.207133 0.0
33.1309 -2.80924 0.0
34.2117 3.49412 0.0
27.5146 -0.796574 0.0
23.5664 -0.0699633 0.0
54.3072 -2.12722 0.0
43.8776 -4.4924 0.0
53.6798 0.972198 0.0
35.7157 2.94947 0.0
10.9555 1.07556 0.0
15.1462 -0.545365 0.0
54.7221 2.01996 0.0
56.4089 -1.59223 0.0
21.1479 -0.399228 0.0
39.8883 1.71997 0.0
36.7048 -0.039828 0.0
24.3227 3.03542 0.0
6.44056 11.8055 0.0
26.8444 0.406625 0.0
22.0994 -2.32438 0.0
28.02 0.633081 0.0
10.4603 -1.0481 0.0
23.0489 -1.36443 0.0
22.5118 -3.19872 0.0
21.0747 -0.000597583 0.0
10.342 -1.0579 0.0
33.2856 -3.27911 0.0
19.2141 0.139041 0.0
32.6358 2.1684 0.0
34.3787 -1.86595 0.0
41.0609 -1.29371 0.0
26.6693 0.311243 0.0
13.0223 -2.06667 0.0
11.7075 1.39158 0.0
18.8598 0.0366141 0.0
24.6551 0.115924 0.0
17.6988 -1.59533 0.0
29.7108 -1.36412 0.0
45.6838 3.7093 0.0
48.4087 2.1192 0.0
45.3161 3.44937 0.0
12.329 -0.695685 0.0
26.3862 0.0373125 0.0
35.589 -0.537127 0.0
22.9246 -0.895342 0.0
7.60568 1.22961 0.0
19.9187 2.04936 0.0
27.0433 -0.0379473 0.0
50.971 -0.961618 0.0
38.0746 0.0983815 0.0
21.0587 -0.916429 0.0
34.7736 -4.03875 0.0
40.884 -0.476318 0.0
12.5485 -1.27558 0.0
21.1015 -0.318466 0.0
41.3376 -2.49659 0.0
55.1515 1.77072 0.0
22.7474 -2.19641 0.0
37.9745 0.872712 0.0
36.3844 1.58555 0.0
23.634 -1.38234 0.0
6.44543 -0.580846 0.0
25.1169 -0.595616 0.0
23.8093 -20.8734 0.0
32.7148 -2.4831 0.0
35.4305 2.96232 0.0
25.4649 -0.165929 0.0
15.1063 -0.591785 0.0
33.0558 -2.29336 0.0
27.5922 0.136889 0.0
23.1873 0.0241538 0.0
35.3365 3.27552 0.0
12.5366 -0.826564 0.0
25.0329 0.908551 0.0
13.2808 -0.537708 0.0
35.566 -0.331919 0.0
42.7578 3.49179 0.0
50.1742 2.92004 0.0
24.0276 4.86615 0.0
21.1279 0.834179 0.0
25.1188 1.09175 0.0
12.2684 0.309678 0.0
14.9637 -0.202323 0.0
53.3957 0.659554 0.0
11.4726 -0.530048 0.0
21.0402 0.997274 0.0
11.0583 -0.23935 0.0
25.1919 -0.133448 0.0
28.7098 -2.88019 0.0
22.7254 -1.54126 0.0
23.2035 -1.03589 0.0
33.0246 0.109155 0.0
11.8263 1.16623 0.0
30.2061 3.03182 0.0
34.1627 -1.51828 0.0
16.8035 -0.221037 0.0
25.4189 -0.595511 0.0
12.0953 -1.08452 0.0
43.3086 -0.0351696 0.0
27.4413 -1.77004 0.0
24.8248 -0.332918 0.0
24.6478 -0.364678 0.0
21.5623 -0.325404 0.0
44.1182 -4.25537 0.0
34.0712 -3.73831 0.0
40.8503 4.55715 0.0
12.4904 -0.0244488 0.0
16.0882 14.8106 0.0
55.5041 -0.0354414 0.0
26.7035 -0.812856 0.0
32.8541 -1.34073 0.0
3.92331 14.3164 0.0
21.52 2.23787 0.0
14.0536 -16.5721 0.0
12.4922 -0.107589 0.0
34.73 -2.37143 0.0
51.0891 -0.322885 0.0
47.7245 -3.12667 0.0
24.3079 0.492997 0.0
12.4991 0.178541 0.0
53.8771 0.25186 0.0
22.9929 2.12962 0.0
43.3777 1.50923 0.0
27.9373 -0.453522 0.0
37.5052 -0.978621 0.0
11.5784 1.17042 0.0
26.8955 -1.45389 0.0
12.1047 -0.570133 0.0
7.99461 -0.0966862 0.0
21.6663 -2.19409 0.0
34.5063 -1.44118 0.0
25.1992 1.30928 0.0
56.1794 -0.128352 0.0
48.8104 1.2408 0.0
50.0194 -0.0526038 0.0
20.3919 0.398206 0.0
51.0832 -1.93662 0.0
22.3635 -2.07466 0.0
41.925 4.57582 0.0
14.1147 1.98594 0.0
40.7211 -0.864876 0.0
21.7679 1.68645 0.0
13.606 0.133623 0.0
25.0983 -2.07357 0.0
26.4725 -2.44826 0.0
43.2385 4.38604 0.0
34.2968 1.77465 0.0
50.7239 -1.81965 0.0
31.0177 -1.80171 0.0
36.3059 -3.80777 0.0
33.4023 1.37277 0.0
21.2638 -0.280682 0.0
20.5305 -0.297866 0.0
12.4162 -0.319518 0.0
23.4449 -1.16679 0.0
12.7404 0.977567 0.0
24.485 -19.9416 0.0
27.3681 -1.49699 0.0
32.6532 -0.344516 0.0
33.1129 -0.313082 0.0
21.5864 0.539429 0.0
41.885 4.52673 0.0
51.0962 3.03398 0.0
17.1947 -2.22801 0.0
46.7126 3.78593 0.0
36.1597 -1.75575 0.0
7.53203 0.0874874 0.0
37.3083 -3.01479 0.0
25.5297 1.70249 0.0
19.63 -0.392295 0.0
20.8153 -0.324209 0.0
16.3248 0.422216 0.0
11.9253 0.910926 0.0
13.9848 -0.0476413 0.0
18.6875 24.1688 0.0
14.6955 1.06101 0.0
42.9663 4.59667 0.0
33.2734 -2.40694 0.0
24.2058 -0.322786 0.0
47.0489 3.18461 0.0
12.5374 1.09519 0.0
43.894 -2.48499 0.0
50.1882 3.39511 0.0
15.0101 -2.12465 0.0
19.1926 0.998782 0.0
52.7294 0.310872 0.0
12.7283 -1.01274 0.0
11.3362 27.7141 0.0
13.0999 -0.104957 0.0
50.066 0.0312589 0.0
50.5462 1.30759 0.0
54.6132 0.628078 0.0
12.7887 -0.454755 0.0
40.1646 -3.29534 0.0
43.6939 -4.87835 0.0
42.6121 -1.51265 0.0
11.4388 -1.08468 0.0
40.2208 0.166472 0.0
44.1012 -3.70341 0.0
25.5388 -2.64934 0.0
45.3881 3.78116 0.0
36.3141 -2.18488 0.0
24.488 -0.358996 0.0
8.70191 -0.202635 0.0
21.549 -0.368168 0.0
7.21918 0.529908 0.0
7.29884 0.0645247 0.0
15.2013 -1.73849 0.0
43.8383 3.52008 0.0
10.3413 7.12394 0.0
46.8222 3.72708 0.0
51.7137 2.85421 0.0
7.05036 -0.298988 0.0
40.5244 1.70188 0.0
5.88866 0.168581 0.0
7.14589 -0.470955 0.0
35.1098 2.98989 0.0
11.5294 0.807119 0.0
43.5309 -1.77677 0.0
39.9261 2.01336 0.0
6.69446 -0.339708 0.0
50.357 0.968101 0.0
31.8684 -3.38191 0.0
49.1831 2.98497 0.0
14.951 0.595476 0.0
31.4707 1.8719 0.0
48.0928 3.4053 0.0
6.37226 0.620238 0.0
57.4498 0.618619 0.0
36.3114 -4.53222 0.0
6.74587 -0.415348 0.0
6.67467 -0.587773 0.0
37.7895 -1.90479 0.0
6.94531 0.462505 0.0
34.7946 3.89654 0.0
38.9833 -2.02838 0.0
27.364 -0.916509 0.0
10.8615 -0.0940012 0.0
13.1549 0.538628 0.0
34.8158 0.639146 0.0
35.2189 0.145111 0.0
43.5539 -0.90239 0.0
32.8459 -0.20396 0.0
14.0425 -0.915872 0.0
43.4711 3.71979 0.0
43.9836 -3.23593 0.0
54.2542 0.404866 0.0
42.7054 3.69463 0.0
49.7011 -0.265302 0.0
41.2875 4.17613 0.0
52.5296 0.238412 0.0
34.0248 -1.96053 0.0
50.2534 2.54826 0.0
10.8389 1.05666 0.0
47.2017 -0.0193155 0.0
30.6007 -0.981099 0.0
46.6812 -2.73729 0.0
9.34588 -0.977528 0.0
22.1631 -1.46597 0.0
43.3436 0.676779 0.0
8.98351 0.800648 0.0
52.4008 0.228543 0.0
43.2307 2.70256 0.0
7.33773 0.287764 0.0
29.7754 -0.935264 0.0
47.158 3.20811 0.0
53.4001 0.138553 0.0
36.8085 -4.30505 0.0
41.341 -4.74115 0.0
6.02136 6.20712 0.0
11.7221 0.854521 0.0
23.7452 -1.72801 0.0
39.9902 -1.47155 0.0
30.4976 -2.41977 0.0
7.02565 0.0126401 0.0
42.3938 4.23562 0.0
49.4973 -2.98737 0.0
43.4696 -2.33367 0.0
53.6006 0.160773 0.0
4.12081 -0.180671 0.0
6.51782 0.479823 0.0
40.5994 2.82871 0.0
6.7736 0.602396 0.0
48.6053 3.66632 0.0
42.1595 2.82779 0.0
4.25368 0.000425428 0.0
6.75545 -0.532233 0.0
48.0454 2.80625 0.0
48.2368 0.572263 0.0
4.02314 0.182328 0.0
41.9079 -0.230124 0.0
52.3447 0.255304 0.0
12.2875 -0.775262 0.0
53.2667 0.160394 0.0
43.8292 2.76866 0.0
43.4247 -3.4329 0.0
50.7945 2.18838 0.0
6.82695 -0.61658 0.0
34.8555 -4.48646 0.0
7.33367 -0.125547 0.0
6.65113 0.47393 0.0
40.1863 -3.22394 0.0
6.78566 0.665851 0.0
43.1913 3.10918 0.0
48.9771 2.43487 0.0
41.8104 -3.98382 0.0
42.578 -4.89455 0.0
10.8916 -1.12753 0.0
23.0985 -0.0958543 0.0
43.1499 2.02649 0.0
6.74981 -0.3903 0.0
6.17371 0.428143 0.0
19.3187 -3.33242 0.0
10.4418 0.994482 0.0
52.8044 -0.935504 0.0
7.30886 -0.45269 0.0
24.1194 0.9711 0.0
53.8222 1.42083 0.0
11.5458 0.767487 0.0
12.5116 0.779037 0.0
46.0801 3.55919 0.0
7.03871 0.405972 0.0
50.6615 1.75273 0.0
44.2859 2.43187 0.0
49.8944 0.541614 0.0
6.49586 -0.61466 0.0
5.0475 0.445727 0.0
9.08341 -0.419769 0.0
35.2015 -1.4675 0.0
14.7571 -3.28638 0.0
53.2313 0.199559 0.0
4.12432 0.101865 0.0
42.931 -4.83788 0.0
12.8001 -0.445365 0.0
6.02081 0.432204 0.0
15.5059 -1.61355 0.0
44.9934 3.7428 0.0
12.1217 -0.702543 0.0
49.7637 0.442038 0.0
48.8252 2.05407 0.0
28.8903 -0.530789 0.0
52.3987 0.286249 0.0
44.4306 2.10746 0.0
26.5434 -1.7121 0.0
40.4834 0.839208 0.0
52.4792 -2.59647 0.0
44.3907 1.76155 0.0
6.70232 -0.687598 0.0
7.14627 0.70944 0.0
43.1569 -0.931217 0.0
6.00789 0.383063 0.0
35.7292 -3.73803 0.0
24.05 13.41 0.0
52.5093 0.29356 0.0
6.08024 0.411019 0.0
6.76436 -0.419227 0.0
48.8655 1.63725 0.0
43.8592 3.62726 0.0
36.3108 -0.233104 0.0
31.2689 -1.5626 0.0
44.5432 0.0244851 0.0
27.5366 -1.3823 0.0
17.8955 -18.2355 0.0
45.6486 -0.177549 0.0
41.6142 2.53871 0.0
6.62503 -0.264327 0.0
44.2823 1.41248 0.0
34.9269 15.9567 0.0
21.6349 -0.634742 0.0
53.0675 0.448362 0.0
4.45564 -0.42871 0.0
4.91772 0.438325 0.0
41.1488 2.86085 0.0
47.0849 -0.21385 0.0
45.517 -1.20543 0.0
25.3148 -0.193015 0.0
50.8119 4.76866 0.0
53.2678 0.232638 0.0
50.874 -2.37152 0.0
5.54089 2.58822 0.0
50.0868 0.720663 0.0
52.1058 -2.73133 0.0
41.923 1.92864 0.0
42.1615 11.5962 0.0
11.3673 -4.58175 0.0
38.5286 0.274604 0.0
5.70287 -8.00805 0.0
37.0953 -1.36863 0.0
49.124 -1.32644 0.0
51.9193 2.96776 0.0
50.527 5.22644 0.0
5.92246 -2.33707 0.0
44.1619 1.11147 0.0
47.5969 8.0181 0.0
41.8446 1.61789 0.0
54.4465 0.146341 0.0
41.8898 2.23025 0.0
48.5926 0.935733 0.0
26.4743 -0.960545 0.0
29.505 1.20739 0.0
11.4306 -6.51737 0.0
42.9617 -2.83702 0.0
20.1713 -0.177187 0.0
36.1368 -11.4182 0.0
7.89704 -11.0205 0.0
40.0574 -2.84014 0.0
53.4466 0.203528 0.0
2.98843 -0.286849 0.0
3.06299 0.291755 0.0
48.3384 0.718073 0.0
41.8499 3.27102 0.0
44.1038 0.886391 0.0
33.125 17.9208 0.0
7.51031 -0.207217 0.0
12.1695 -0.331897 0.0
8.75589 1.36315 0.0
3.10095 3.19168 0.0
6.98567 -5.86074 0.0
50.5216 -3.09954 0.0
54.6864 0.110163 0.0
40.9692 -4.08095 0.0
0.916752 1.62085 0.0
38.857 -0.110289 0.0
41.4904 -0.11271 0.0
44.4774 -10.6113 0.0
29.7505 14.1551 0.0
1.09277 -1.56381 0.0
3.54024 -2.9626 0.0
35.2621 0.600192 0.0
21.0571 1.14919 0.0
41.8261 1.30802 0.0
26.6576 -6.03143 0.0
47.3096 -0.113601 0.0
42.5202 2.34156 0.0
49.0002 -0.110303 0.0
36.5206 11.4548 0.0
52.792 0.187764 0.0
3.94176 -0.296999 0.0
48.1242 3.67149 0.0
54.1636 0.953827 0.0
49.6982 0.411718 0.0
54.133 0.10999 0.0
49.3204 -6.1353 0.0
3.78601 0.216311 0.0
53.8893 -0.608727 0.0
7.76539 -1.68318 0.0
21.2103 1.38734 0.0
33.6349 -1.03673 0.0
44.0442 0.746534 0.0
41.7633 1.04097 0.0
52.3908 3.27191 0.0
52.9894 2.34901 0.0
51.7956 3.52173 0.0
5.97063 0.318832 0.0
11.301 0.565907 0.0
9.03933 -1.13745 0.0
54.1002 -0.0304934 0.0
48.1898 0.500548 0.0
43.5451 -4.89159 0.0
7.44725 1.90364 0.0
52.5739 0.761045 0.0
46.5989 7.49544 0.0
12.3744 12.3318 0.0
48.4244 -0.0793967 0.0
3.38021 1.08633 0.0
46.5727 -0.129545 0.0
51.4211 -1.71382 0.0
47.3591 -0.792978 0.0
34.993 -0.384367 0.0
32.2727 -0.372546 0.0
45.9805 -0.186174 0.0
8.18418 0.279596 0.0
42.477 4.0094 0.0
53.5304 -0.640992 0.0
49.967 -0.247849 0.0
49.7441 0.420988 0.0
44.0851 0.665585 0.0
23.8245 -0.029737 0.0
48.2064 0.485892 0.0
55.4621 -1.90077 0.0
52.866 0.11815 0.0
11.6645 0.592043 0.0
42.2983 10.3427 0.0
3.67488 -1.0162 0.0
54.2116 0.950513 0.0
54.2087 0.287657 0.0
44.199 0.632753 0.0
2.23999 1.41393 0.0
40.6479 -0.717495 0.0
53.4933 0.149335 0.0
52.2348 2.49194 0.0
47.8401 -0.128584 0.0
53.3699 -0.513137 0.0
49.8901 0.435718 0.0
53.7897 -0.0757888 0.0
54.3608 0.445708 0.0
53.3546 0.236168 0.0
44.4533 0.635587 0.0
4.98566 0.596827 0.0
17.4801 1.82823 0.0
53.058 -1.60102 0.0
42.8084 3.30257 0.0
2.4812 -1.33574 0.0
10.0173 -0.753935 0.0
40.5725 -2.74014 0.0
45.9439 6.71413 0.0
48.3601 0.500255 0.0
18.9945 -1.45739 0.0
49.8057 -0.244785 0.0
51.0322 -0.190139 0.0
28.0335 16.9855 0.0
9.58035 0.986839 0.0
4.54762 -0.713483 0.0
54.0389 -2.32343 0.0
36.5514 9.54093 0.0
49.7841 -5.85596 0.0
54.3633 0.628738 0.0
13.8091 0.228258 0.0
48.5886 0.49605 0.0
41.7346 0.874445 0.0
52.8854 -0.0296143 0.0
4.26614 0.802942 0.0
50.1142 0.412909 0.0
52.8917 0.0478129 0.0
5.6961 -0.324989 0.0
44.8102 0.616636 0.0
52.662 0.25729 0.0
54.245 0.691589 0.0
50.7025 0.211114 0.0
50.7111 -0.272303 0.0
53.4898 0.0877608 0.0
44.9222 -1.00147 0.0
50.6483 -0.167973 0.0
50.4394 0.324846 0.0
49.611 0.1585 0.0
49.4768 -0.318948 0.0
5.19873 -0.480054 0.0
53.7571 0.926715 0.0
49.1784 -0.378402 0.0
7.13384 0.412143 0.0
53.4501 0.0167053 0.0
11.1115 0.808405 0.0
48.9293 0.416142 0.0
50.4287 -0.341238 0.0
54.3009 0.432742 0.0
51.797 -0.139829 0.0
50.9001 0.115684 0.0
53.9705 0.22703 0.0
23.6557 0.256679 0.0
45.9603 0.296705 0.0
42.656 2.83609 0.0
45.127 0.489828 0.0
5.23731 -0.101641 0.0
52.7637 -0.0743607 0.0
49.3109 0.276001 0.0
41.0962 -10.8844 0.0
3.57452 -0.322134 0.0
41.9288 0.704429 0.0
3.49621 0.23934 0.0
36.9303 -9.37091 0.0
44.5581 3.3511 0.0
42.1785 0.684728 0.0
47.3352 -0.200126 0.0
48.9025 -0.411961 0.0
42.6094 0.685537 0.0
51.1378 -0.0462826 0.0
35.9496 -3.31526 0.0
39.3994 -12.9341 0.0
49.5632 -0.128026 0.0
53.9131 0.749742 0.0
54.1154 0.924465 0.0
54.1393 0.364471 0.0
50.172 -0.388741 0.0
54.4107 0.45983 0.0
43.3227 -0.20437 0.0
54.2405 0.47584 0.0
48.3825 -0.280763 0.0
46.3359 0.158598 0.0
22.2944 0.526438 0.0
51.6735 -0.418768 0.0
54.3118 0.38666 0.0
40.5543 -0.803008 0.0
53.8724 0.599771 0.0
49.9395 -0.402145 0.0
48.6566 -0.402313 0.0
5.45363 0.440834 0.0
49.8319 0.0674084 0.0
41.7991 0.77152 0.0
54.5228 0.399853 0.0
37.5224 -0.820367 0.0
12.3872 0.34324 0.0
46.6891 0.0544178 0.0
53.8361 0.412574 0.0
43.5787 0.392838 0.0
42.4984 -0.202139 0.0
48.4447 -0.334867 0.0
53.7605 0.195675 0.0
49.7408 -0.367574 0.0
44.3163 0.225539 0.0
25.0553 10.7474 0.0
53.3912 -0.0650252 0.0
54.4599 0.322576 0.0
53.097 1.79021 0.0
21.8473 -0.111749 0.0
50.0021 -0.0146268 0.0
40.7353 -0.233468 0.0
6.62993 0.203923 0.0
11.4962 0.394445 0.0
49.5625 -0.283193 0.0
52.8923 0.246228 0.0
46.1394 -0.399594 0.0
48.2451 -0.222656 0.0
54.2247 0.290533 0.0
46.894 -0.272596 0.0
46.9838 -0.0340511 0.0
48.0006 -0.0964864 0.0
41.3246 -0.273851 0.0
45.4747 -0.250787 0.0
54.5936 0.261424 0.0
41.8529 -0.230183 0.0
53.264 0.110933 0.0
45.7756 -0.436839 0.0
47.7095 -0.325332 0.0
45.0284 -0.316801 0.0
40.8123 -0.328891 0.0
53.1021 0.163418 0.0
49.3699 -0.169919 0.0
8.10182 0.232181 0.0
12.5127 0.336541 0.0
54.1388 0.0682385 0.0
53.6063 -0.024064 0.0
42.8651 0.639087 0.0
44.639 -0.0595489 0.0
45.1375 0.000779947 0.0
54.2325 0.611741 0.0
47.6424 0.0114239 0.0
52.9722 1.43681 0.0
51.0395 0.0343621 0.0
40.333 -0.388132 0.0
43.8399 -0.454167 0.0
44.7378 0.0986717 0.0
49.1122 -0.0582405 0.0
54.5285 0.167536 0.0
52.8623 -0.113406 0.0
44.6249 -0.379622 0.0
38.3339 1.23669 0.0
38.7286 -0.303359 0.0
44.2275 -0.432189 0.0
39.8945 -0.447891 0.0
49.5851 3.33027 0.0
47.1621 0.0668045 0.0
48.754 0.0187272 0.0
45.4672 -0.425298 0.0
39.2955 -0.259241 0.0
42.9765 -0.114111 0.0
53.6851 0.280903 0.0
39.4229 -0.479851 0.0
43.5244 -0.39911 0.0
46.6529 0.0473194 0.0
24.966 0.196657 0.0
52.1291 -0.0463936 0.0
38.9225 -0.409373 0.0
21.7163 0.127659 0.0
38.2091 -0.35705 0.0
48.3277 0.0332597 0.0
38.6737 -0.244596 0.0
43.2431 -0.271794 0.0
39.9113 -0.236981 0.0
5.80737 -0.076606 0.0
10.7921 -0.135706 0.0
24.9246 0.304982 0.0
46.4345 -0.365439 0.0
44.9481 -0.206767 0.0
46.2153 -0.0259758 0.0
47.9149 -0.015823 0.0
38.335 -0.0666917 0.0
12.1327 0.131526 0.0
53.8296 0.185542 0.0
11.1047 -0.163623 0.0
54.5719 0.0471114 0.0
45.9189 -0.110991 0.0
37.7152 -0.41792 0.0
44.1575 0.0654712 0.0
37.1239 -0.478713 0.0
54.4731 -0.0763337 0.0
43.494 0.136018 0.0
6.01892 -0.0852618 0.0
10.9521 -0.160667 0.0
45.2012 -0.341203 0.0
6.44927 0.0850039 0.0
47.5893 -0.101807 0.0
36.6259 -0.463745 0.0
36.252 -0.315417 0.0
42.5626 0.0308039 0.0
47.1371 -0.248843 0.0
53.8051 -0.0665319 0.0
42.8362 0.120626 0.0
42.2704 0.0378219 0.0
11.0317 -0.145579 0.0
6.25205 -0.0868321 0.0
20.7415 0.250439 0.0
35.9235 -0.121378 0.0
41.8662 0.140615 0.0
46.5012 -0.340804 0.0
41.0693 0.180066 0.0
48.6368 -0.135628 0.0
21.2468 0.285196 0.0
40.3682 0.113965 0.0
47.4359 -0.176507 0.0
41.8615 -0.0396057 0.0
11.0553 0.146107 0.0
5.65436 -0.0547716 0.0
4.74039 -0.0842917 0.0
6.09403 -0.0795924 0.0
10.9228 -0.0543769 0.0
11.6191 0.190744 0.0
5.14702 -0.0257314 0.0
5.83313 -0.00560579 0.0
10.7363 -0.125202 0.0
5.67905 -0.0427595 0.0
6.1421 -0.0438533 0.0
6.51163 0.148785 0.0
11.8818 -0.15069 0.0
6.32563 0.0822413 0.0
10.5787 -0.0952972 0.0
6.05674 0.0795843 0.0
11.2613 -0.0721301 0.0
11.0207 -0.0778593 0.0
5.89887 0.16401 0.0
12.0664 0.220981 0.0
10.7178 -0.0973326 0.0
10.4745 -0.121225 0.0
6.11593 0.264696 0.0
10.1069 -0.0809133 0.0
10.916 0.190968 0.0
5.61362 -0.0390969 0.0
10.6089 -0.0483954 0.0
6.3869 0.00212377 0.0
5.61748 0.0893234 0.0
10.2515 -0.160101 0.0
6.02919 0.210683 0.0
7.28574 0.121654 0.0
6.18048 0.309113 0.0
5.14774 0.0769509 0.0
5.5359 -0.00534356 0.0
10.7029 0.0489104 0.0
5.84461 -0.0739743 0.0
5.99882 -0.0828403 0.0
6.14322 0.247832 0.0
6.1701 0.276963 0.0
6.12327 -0.0204593 0.0
6.00228 0.0591311 0.0
5.07987 -0.0820906 0.0
5.7566 -0.0472311 0.0
7.15987 -0.011213 0.0
12.0096 -0.0317862 0.0
6.24683 -0.114921 0.0
7.33716 0.0694155 0.0
10.2063 0.155731 0.0
9.96663 -0.179936 0.0
5.70649 -0.0637496 0.0
6.30455 0.225331 0.0
5.76545 0.0582275 0.0
11.3076 -0.0133185 0.0
5.47388 0.105932 0.0
6.07086 0.0794801 0.0
5.64374 -0.0730305 0.0
11.1882 0.498494 0.0
6.95955 -0.0991379 0.0
4.94234 -0.00195811 0.0
5.67805 0.00836716 0.0
4.80825 0.0467803 0.0
6.2022 0.0809282 0.0
6.30449 -0.0273774 0.0
9.34037 -0.0829554 0.0
4.291 -0.0324316 0.0
10.9581 0.432157 0.0
11.3859 0.136973 0.0
46.6436 -0.207848 0.0
45.8793 -0.147632 0.0
51.2057 -0.12896 0.0
39.8277 0.0215547 0.0
53.8524 -0.340661 0.0
53.9617 -0.142931 0.0
39.3588 -0.0115848 0.0
53.9593 -0.353522 0.0
54.2898 -0.293733 0.0
54.0557 -0.370174 0.0
54.43 -0.183801 0.0
41.7167 -0.038322 0.0
46.1112 -0.147771 0.0
54.2 -0.327685 0.0
44.7397 -0.192016 0.0
53.711 -0.264367 0.0
47.5378 -0.204096 0.0
53.6046 -0.228848 0.0
50.3073 -0.287183 0.0
51.2371 -0.315045 0.0
34.2692 0.0980918 0.0
53.4778 -0.382154 0.0
53.2098 -0.226561 0.0
51.4267 -0.299824 0.0
53.6864 -0.316517 0.0
38.3735 -0.15431 0.0
50.1277 -0.0969173 0.0
46.1245 -0.174942 0.0
53.0676 -0.368196 0.0
52.8805 -0.362047 0.0
53.7611 -0.304275 0.0
40.5266 -0.176229 0.0