# vtk DataFile Version 3.0
Malha 2D com triângulos e temperatura
ASCII
DATASET UNSTRUCTURED_GRID

POINTS 1194 double
0 0 0
5 0 0
5 1 0
0 1 0
0.85 0.5 0
0.842388 0.538268 0
0.820711 0.570711 0
0.788268 0.592388 0
0.75 0.6 0
0.711732 0.592388 0
0.679289 0.570711 0
0.657612 0.538268 0
0.65 0.5 0
0.657612 0.461732 0
0.679289 0.429289 0
0.711732 0.407612 0
0.75 0.4 0
0.788268 0.407612 0
0.820711 0.429289 0
0.842388 0.461732 0
0.0793651 0 0
0.15873 0 0
0.238095 0 0
0.31746 0 0
0.396825 0 0
0.47619 0 0
0.555556 0 0
0.634921 0 0
0.714286 0 0
0.793651 0 0
0.873016 0 0
0.952381 0 0
1.03175 0 0
1.11111 0 0
1.19048 0 0
1.26984 0 0
1.34921 0 0
1.42857 0 0
1.50794 0 0
1.5873 0 0
1.66667 0 0
1.74603 0 0
1.8254 0 0
1.90476 0 0
1.98413 0 0
2.06349 0 0
2.14286 0 0
2.22222 0 0
2.30159 0 0
2.38095 0 0
2.46032 0 0
2.53968 0 0
2.61905 0 0
2.69841 0 0
2.77778 0 0
2.85714 0 0
2.93651 0 0
3.01587 0 0
3.09524 0 0
3.1746 0 0
3.25397 0 0
3.33333 0 0
3.4127 0 0
3.49206 0 0
3.57143 0 0
3.65079 0 0
3.73016 0 0
3.80952 0 0
3.88889 0 0
3.96825 0 0
4.04762 0 0
4.12698 0 0
4.20635 0 0
4.28571 0 0
4.36508 0 0
4.44444 0 0
4.52381 0 0
4.60317 0 0
4.68254 0 0
4.7619 0 0
4.84127 0 0
4.92063 0 0
5 0.0769231 0
5 0.153846 0
5 0.230769 0
5 0.307692 0
5 0.384615 0
5 0.461538 0
5 0.538462 0
5 0.615385 0
5 0.692308 0
5 0.769231 0
5 0.846154 0
5 0.923077 0
4.92063 1 0
4.84127 1 0
4.7619 1 0
4.68254 1 0
4.60317 1 0
4.52381 1 0
4.44444 1 0
4.36508 1 0
4.28571 1 0
4.20635 1 0
4.12698 1 0
4.04762 1 0
3.96825 1 0
3.88889 1 0
3.80952 1 0
3.73016 1 0
3.65079 1 0
3.57143 1 0
3.49206 1 0
3.4127 1 0
3.33333 1 0
3.25397 1 0
3.1746 1 0
3.09524 1 0
3.01587 1 0
2.93651 1 0
2.85714 1 0
2.77778 1 0
2.69841 1 0
2.61905 1 0
2.53968 1 0
2.46032 1 0
2.38095 1 0
2.30159 1 0
2.22222 1 0
2.14286 1 0
2.06349 1 0
1.98413 1 0
1.90476 1 0
1.8254 1 0
1.74603 1 0
1.66667 1 0
1.5873 1 0
1.50794 1 0
1.42857 1 0
1.34921 1 0
1.26984 1 0
1.19048 1 0
1.11111 1 0
1.03175 1 0
0.952381 1 0
0.873016 1 0
0.793651 1 0
0.714286 1 0
0.634921 1 0
0.555556 1 0
0.47619 1 0
0.396825 1 0
0.31746 1 0
0.238095 1 0
0.15873 1 0
0.0793651 1 0
0 0.923077 0
0 0.846154 0
0 0.769231 0
0 0.692308 0
0 0.615385 0
0 0.538462 0
0 0.461538 0
0 0.384615 0
0 0.307692 0
0 0.230769 0
0 0.153846 0
0 0.0769231 0
0.879698 0.466718 0
1.3085 0.931947 0
1.30532 0.0638546 0
4.93832 0.504275 0
0.620452 0.46964 0
3.99858 0.0669607 0
1.63721 0.934258 0
3.3751 0.0523709 0
4.3254 0.0687322 0
2.42354 0.0642082 0
2.97619 0.0687322 0
2.02101 0.0693621 0
3.68108 0.0581336 0
2.65899 0.932655 0
4.178 0.939994 0
3.21614 0.938179 0
2.25483 0.919987 0
3.53215 0.928998 0
3.84921 0.931268 0
1.69647 0.0674297 0
1.94349 0.930209 0
4.48413 0.931268 0
2.97813 0.942022 0
2.74097 0.0673855 0
0.859645 0.573263 0
0.639718 0.573116 0
0.0651563 0.652836 0
0.0635304 0.346121 0
4.56232 0.0679683 0
0.830393 0.392645 0
0.669618 0.39275 0
1.06185 0.0668897 0
0.440193 0.0680031 0
1.06474 0.93511 0
0.446074 0.935974 0
0.724697 0.630698 0
4.72268 0.931235 0
4.93065 0.267192 0
0.589836 0.936152 0
0.92338 0.0562425 0
0.590207 0.0623339 0
0.755872 0.0732784 0
0.838039 0.936714 0
4.92573 0.732039 0
0.281717 0.93783 0
0.28208 0.0811877 0
0.065248 0.503161 0
1.46076 0.0637037 0
4.72574 0.0661877 0
4.31028 0.937908 0
3.21429 0.0687322 0
1.46639 0.932632 0
3.6897 0.928155 0
2.42063 0.931268 0
3.5364 0.0691789 0
2.25998 0.0676208 0
1.78735 0.937047 0
4.01535 0.920637 0
1.85469 0.0674188 0
3.83991 0.0626292 0
3.37477 0.929368 0
2.58225 0.0657863 0
2.81746 0.932342 0
4.16667 0.0687322 0
2.11402 0.935574 0
0.0614266 0.197046 0
0.0612841 0.803003 0
4.88273 0.0644126 0
4.87774 0.933272 0
0.859645 0.426737 0
0.903081 0.436592 0
0.923672 0.473385 0
0.948706 0.439078 0
0.969155 0.479795 0
0.996593 0.439791 0
1.0202 0.484937 0
1.04667 0.440138 0
1.07382 0.489694 0
1.1034 0.440801 0
1.13169 0.49612 0
1.16603 0.445058 0
1.1931 0.504331 0
1.22956 0.450883 0
1.25923 0.506004 0
1.29683 0.453139 0
1.32923 0.510343 0
1.36603 0.454344 0
1.03276 0.530395 0
1.40063 0.516169 0
1.43576 0.454934 0
1.47042 0.520776 0
1.51069 0.46142 0
1.54422 0.526371 0
1.58547 0.465572 0
1.61942 0.531773 0
1.66033 0.468788 0
1.69546 0.536793 0
1.73713 0.472812 0
1.77239 0.541977 0
1.81532 0.478494 0
1.85006 0.547285 0
1.89327 0.483449 0
1.92802 0.55361 0
1.97142 0.488546 0
2.00623 0.558966 0
2.04984 0.493518 0
2.08483 0.564085 0
2.12847 0.498462 0
2.16353 0.569137 0
2.20719 0.503331 0
0.961579 0.391697 0
1.22451 0.565337 0
2.24238 0.574192 0
2.28611 0.508258 0
2.32134 0.579247 0
2.36519 0.513325 0
2.40036 0.584295 0
2.44425 0.51834 0
2.47944 0.589336 0
2.52334 0.523355 0
2.55853 0.594372 0
2.60245 0.52837 0
2.63764 0.599431 0
2.68159 0.533388 0
2.64637 0.462336 0
2.72553 0.467349 0
2.76076 0.538418 0
2.8047 0.47237 0
2.83993 0.543451 0
2.88387 0.477399 0
2.91911 0.548482 0
2.96305 0.482427 0
2.9983 0.553514 0
3.04224 0.487456 0
3.07749 0.558545 0
3.12143 0.492477 0
3.15668 0.563574 0
3.20063 0.497514 0
3.23588 0.568605 0
3.27983 0.502542 0
3.31508 0.573635 0
3.35903 0.507562 0
3.39428 0.578663 0
3.43823 0.5126 0
3.47348 0.583694 0
3.51744 0.517628 0
3.55268 0.588724 0
3.59664 0.522646 0
3.63189 0.593752 0
3.67585 0.527673 0
3.71109 0.598781 0
3.75505 0.532702 0
3.7903 0.60381 0
3.83426 0.537731 0
3.79901 0.466623 0
3.87821 0.471754 0
3.91346 0.542777 0
3.95742 0.476701 0
3.99267 0.547795 0
4.03662 0.481715 0
4.07187 0.552815 0
4.11582 0.486743 0
4.15106 0.55783 0
4.195 0.491782 0
4.23023 0.562843 0
4.27415 0.49682 0
4.30937 0.567866 0
4.35325 0.501915 0
4.38842 0.572845 0
4.43227 0.506997 0
4.46737 0.577575 0
4.51106 0.511995 0
4.54622 0.582183 0
1.13571 0.390292 0
4.47606 0.441361 0
4.55475 0.446396 0
2.32985 0.442214 0
3.5614 0.451571 0
3.08619 0.421408 0
2.09339 0.427815 0
1.42887 0.583001 0
2.84864 0.406329 0
3.32378 0.43649 0
4.23911 0.425894 0
1.54723 0.39251 0
1.77883 0.406811 0
1.33959 0.387065 0
3.92239 0.405803 0
4.08079 0.415776 0
2.48812 0.452349 0
1.57935 0.603183 0
1.93602 0.417543 0
1.72453 0.617973 0
3.11273 0.629643 0
2.69029 0.396284 0
3.94662 0.623383 0
1.88466 0.613248 0
2.79598 0.609502 0
4.10826 0.620575 0
2.04005 0.62838 0
2.95434 0.619575 0
4.51981 0.375801 0
4.59833 0.380943 0
4.63314 0.451296 0
4.26693 0.63114 0
2.19619 0.645921 0
4.4246 0.642296 0
3.27112 0.639707 0
2.35729 0.649822 0
2.51462 0.660373 0
3.42952 0.649769 0
4.67669 0.38601 0
3.58793 0.659829 0
3.74634 0.669888 0
4.64195 0.315733 0
4.44109 0.370647 0
4.48493 0.305066 0
4.40614 0.29989 0
4.71136 0.456133 0
4.72014 0.320758 0
0.8692 0.382093 0
0.841252 0.348256 0
0.886481 0.338703 0
0.853127 0.301457 0
0.902583 0.287335 0
0.801683 0.321689 0
0.818113 0.263019 0
0.764765 0.277091 0
4.44702 0.235678 0
0.946267 0.520761 0
0.78107 0.221265 0
0.726309 0.234724 0
0.848273 0.20551 0
4.68545 0.250576 0
4.37074 0.227561 0
4.76365 0.255792 0
4.79822 0.326145 0
0.713664 0.287231 0
0.672358 0.247957 0
0.68673 0.192342 0
0.630368 0.2085 0
0.616569 0.265341 0
0.574186 0.225456 0
0.557393 0.28131 0
0.52004 0.242373 0
0.504416 0.299685 0
0.462273 0.252096 0
0.44798 0.316739 0
0.404567 0.276951 0
0.390546 0.335414 0
0.434669 0.37657 0
0.377935 0.394545 0
0.421979 0.43426 0
0.365682 0.452846 0
0.409646 0.492216 0
0.353389 0.51089 0
0.397738 0.551598 0
0.339864 0.570301 0
0.385899 0.612153 0
0.325913 0.631557 0
0.344507 0.29318 0
0.320568 0.413067 0
0.373553 0.673852 0
0.434438 0.653082 0
0.311416 0.69481 0
0.449777 0.528305 0
0.293513 0.534612 0
0.421431 0.715204 0
0.480917 0.696603 0
0.54504 0.34471 0
0.262743 0.649913 0
0.246209 0.712341 0
0.468564 0.755948 0
0.526091 0.735423 0
0.538207 0.68039 0
0.581228 0.716342 0
0.408756 0.777952 0
0.36234 0.239019 0
0.297047 0.251925 0
0.572109 0.771575 0
0.624906 0.752173 0
0.474824 0.414151 0
0.534351 0.182707 0
0.633682 0.70159 0
0.674547 0.736174 0
0.66826 0.788959 0
0.721117 0.76834 0
0.714515 0.825486 0
0.769074 0.802008 0
0.775287 0.746591 0
0.821903 0.778625 0
0.826767 0.726064 0
0.873257 0.756032 0
0.872997 0.697261 0
0.92331 0.732304 0
0.930014 0.67838 0
0.976061 0.710612 0
0.92456 0.784469 0
0.982178 0.654421 0
1.03016 0.688004 0
1.02037 0.747059 0
1.08 0.723819 0
1.08651 0.661896 0
1.1397 0.698204 0
1.13262 0.763657 0
1.19424 0.736545 0
1.18556 0.80161 0
1.24839 0.771772 0
1.25723 0.706382 0
1.31432 0.745787 0
4.66801 0.521361 0
4.74602 0.526202 0
4.70285 0.591278 0
4.78076 0.596023 0
4.73763 0.661207 0
4.78904 0.460969 0
2.61113 0.391267 0
2.65506 0.325217 0
2.57588 0.320198 0
2.61982 0.254148 0
2.69899 0.259163 0
2.54065 0.249131 0
2.49672 0.315179 0
2.46148 0.244124 0
2.41757 0.310166 0
2.38233 0.239117 0
2.33843 0.30514 0
2.30297 0.237979 0
2.25928 0.300748 0
2.22079 0.221377 0
2.17969 0.293884 0
2.14114 0.224266 0
2.10047 0.289841 0
2.0653 0.219144 0
2.02202 0.284919 0
1.98701 0.214164 0
1.94336 0.279863 0
3.82315 0.673327 0
3.78135 0.738156 0
3.86451 0.735958 0
3.70234 0.735494 0
4.52513 0.244409 0
4.32717 0.294467 0
4.29217 0.221862 0
0.619934 0.539507 0
0.599432 0.577132 0
0.575955 0.542712 0
0.554504 0.58245 0
4.65962 0.656481 0
4.69438 0.726169 0
4.6161 0.721747 0
4.77259 0.731352 0
4.65076 0.791486 0
4.57153 0.788793 0
4.2482 0.289182 0
4.21307 0.218308 0
4.1691 0.284563 0
4.13394 0.21352 0
0.835918 0.606341 0
0.806475 0.6384 0
4.08995 0.279537 0
0.640355 0.426737 0
0.596214 0.435837 0
0.630358 0.379178 0
0.689967 0.627735 0
1.90832 0.209948 0
1.86468 0.27519 0
1.82968 0.20518 0
1.78607 0.269797 0
0.281841 0.313314 0
0.232117 0.268621 0
0.216861 0.334396 0
4.05473 0.209347 0
4.01077 0.2745 0
3.97554 0.204394 0
3.93159 0.269388 0
0.297409 0.759367 0
0.231645 0.782943 0
0.180008 0.73598 0
1.32151 0.676369 0
1.38055 0.718092 0
1.36901 0.793947 0
1.43945 0.766002 0
0.249902 0.198865 0
0.932364 0.624392 0
1.75117 0.201034 0
1.70771 0.264658 0
1.673 0.195402 0
1.62985 0.260294 0
1.59532 0.191927 0
1.55236 0.254233 0
3.89629 0.200227 0
3.85238 0.264494 0
3.81708 0.195303 0
3.77304 0.259453 0
2.66368 0.189084 0
2.74279 0.19534 0
2.77814 0.264556 0
2.82201 0.199823 0
2.85733 0.269552 0
2.90126 0.203886 0
2.93654 0.274416 0
2.98045 0.20868 0
3.01573 0.279376 0
3.0597 0.213193 0
[...]
CELL_DATA 2220
VECTORS velocity double
12.5628 -0.685658 0.0
9.95475 0.507034 0.0
16.3519 0.881801 0.0
12.4058 1.56796 0.0
12.8351 -0.818751 0.0
13.5954 -0.599815 0.0
8.71715 0.496977 0.0
9.45332 0.0228866 0.0
19.2066 2.42615 0.0
13.3387 -0.389849 0.0
13.3165 0.731023 0.0
9.03991 0.366772 0.0
7.5128 0.266145 0.0
16.2749 -1.79071 0.0
14.5714 0.103773 0.0
16.2567 2.69541 0.0
9.77703 0.42577 0.0
8.19503 0.529764 0.0
8.98263 -0.137722 0.0
9.40567 -0.0994213 0.0
14.1106 0.629839 0.0
15.4216 2.9552 0.0
9.17703 0.537564 0.0
9.29502 0.590069 0.0
15.4175 -0.406018 0.0
15.0627 -1.55262 0.0
13.1659 0.552411 0.0
8.2764 0.59251 0.0
12.2799 1.47208 0.0
13.2869 1.12177 0.0
15.3877 -1.02804 0.0
16.0143 1.96387 0.0
7.11527 -0.134307 0.0
17.8277 0.617112 0.0
16.6889 -2.85247 0.0
13.772 -0.638065 0.0
16.8094 -3.18922 0.0
7.9432 -0.120165 0.0
13.796 1.67765 0.0
15.4801 1.14804 0.0
8.47699 0.300348 0.0
18.8611 2.49568 0.0
10.7602 1.36993 0.0
8.85568 0.0284596 0.0
8.16799 0.11291 0.0
7.51344 0.0406145 0.0
9.05593 0.578918 0.0
7.58026 0.0244124 0.0
13.3111 -0.340022 0.0
14.0027 0.0190142 0.0
11.7107 0.663559 0.0
7.37504 0.122079 0.0
8.90847 0.614433 0.0
8.83085 0.134116 0.0
8.47334 0.423878 0.0
15.8268 1.0011 0.0
17.0273 2.04843 0.0
7.84816 0.538324 0.0
8.08035 0.557668 0.0
14.2914 -0.0528892 0.0
1.03556 -2.01123 0.0
15.3897 -0.624426 0.0
15.6658 -1.45064 0.0
9.0631 0.644855 0.0
9.03283 0.548407 0.0
19.3077 0.500147 0.0
10.3691 -1.25815 0.0
16.9165 2.72058 0.0
8.00746 0.54561 0.0
8.04805 0.617206 0.0
8.7751 0.211202 0.0
18.1912 -0.958133 0.0
7.24686 0.208105 0.0
13.9368 0.290101 0.0
5.99624 0.377249 0.0
16.5479 2.00594 0.0
15.9582 1.43312 0.0
11.7579 -1.07971 0.0
18.094 2.74894 0.0
8.6356 0.16314 0.0
13.7127 -0.391653 0.0
16.0089 -0.895661 0.0
8.08631 -0.22996 0.0
7.42755 0.157398 0.0
8.85436 0.489859 0.0
8.82639 0.282791 0.0
12.1002 -0.828789 0.0
7.69005 0.261232 0.0
7.7817 0.408901 0.0
19.5451 2.16242 0.0
3.22062 0.464073 0.0
12.5223 1.42758 0.0
8.92639 -0.165522 0.0
15.815 2.02214 0.0
16.7291 2.05819 0.0
15.3853 -0.986529 0.0
14.8808 -3.20345 0.0
8.1951 -1.15544 0.0
2.0806 -1.77288 0.0
17.3994 -0.15334 0.0
4.22505 -0.832605 0.0
13.6323 -1.33558 0.0
8.96248 0.573215 0.0
8.23898 0.67107 0.0
17.3354 3.0382 0.0
16.6293 2.3923 0.0
13.5509 -0.532111 0.0
14.7964 -0.579526 0.0
3.227 -0.0597 0.0
9.35587 0.710928 0.0
14.1899 1.07047 0.0
18.3467 -1.7139 0.0
13.4241 -0.414169 0.0
6.36604 -0.637528 0.0
15.2814 -0.924559 0.0
7.9259 0.528204 0.0
15.0868 -1.59465 0.0
9.69685 -0.414227 0.0
4.43205 -0.143843 0.0
19.6492 1.72092 0.0
11.0989 -1.00456 0.0
14.8869 -0.763333 0.0
10.2109 1.02345 0.0
12.7628 2.59744 0.0
17.122 -2.74567 0.0
14.1354 -2.4827 0.0
15.9035 2.27754 0.0
11.9832 1.01489 0.0
17.3363 -2.09698 0.0
8.32695 1.50313 0.0
8.41644 0.234635 0.0
9.30181 -1.70441 0.0
5.70398 -1.16219 0.0
10.0869 1.19364 0.0
13.7317 1.63014 0.0
9.35629 1.42608 0.0
7.04125 0.013911 0.0
12.7903 -0.371861 0.0
15.1394 -2.57141 0.0
16.0139 2.06623 0.0
14.2111 -0.799304 0.0
8.76046 -0.0161487 0.0
15.4647 -1.15367 0.0
17.8429 -2.98428 0.0
13.7171 0.282915 0.0
14.7423 1.8097 0.0
5.02204 0.999815 0.0
8.47902 -0.705457 0.0
15.2777 0.863645 0.0
14.7739 -0.759663 0.0
8.12811 -0.00197482 0.0
19.2498 1.6803 0.0
14.9962 0.0152375 0.0
12.14 2.35618 0.0
7.20684 1.54546 0.0
9.84417 0.236135 0.0
11.7084 -1.48886 0.0
10.0251 0.37937 0.0
7.0437 -0.782611 0.0
11.3867 -0.994485 0.0
10.7457 -2.57837 0.0
8.09551 0.0503886 0.0
4.80166 -1.01341 0.0
16.0611 -1.86247 0.0
7.26221 0.114519 0.0
16.904 1.33613 0.0
17.1521 -1.98515 0.0
15.5154 -0.849149 0.0
9.76871 0.163323 0.0
6.38934 -1.72634 0.0
5.943 1.34534 0.0
7.38196 0.102973 0.0
8.83216 0.0907232 0.0
8.04409 -1.50493 0.0
12.1406 -1.21232 0.0
17.6813 2.66138 0.0
15.8871 1.39098 0.0
16.9887 2.49238 0.0
6.59255 -0.515543 0.0
9.69854 0.086915 0.0
14.7463 -0.28752 0.0
11.9158 -0.776442 0.0
3.93817 1.03976 0.0
9.80884 1.94718 0.0
9.66961 0.0360417 0.0
15.4329 -0.650249 0.0
14.5698 0.139207 0.0
8.06382 -0.0454256 0.0
15.1796 -3.06057 0.0
15.3661 -0.269502 0.0
8.10121 -0.942136 0.0
7.87941 -0.201815 0.0
18.7095 -2.07358 0.0
15.1174 0.714582 0.0
11.7337 -1.25299 0.0
14.58 0.697638 0.0
11.4964 0.402132 0.0
8.88269 -0.0724953 0.0
3.85269 -0.357617 0.0
9.23411 -0.0791277 0.0
8.60978 -0.268999 0.0
11.0018 -0.0562681 0.0
17.8841 1.9382 0.0
9.12434 0.118498 0.0
8.58609 -0.187861 0.0
12.7507 -1.20053 0.0
14.6709 -0.196526 0.0
8.65551 0.11679 0.0
11.8533 0.154337 0.0
5.95936 -0.468002 0.0
8.91352 0.538049 0.0
7.44276 -0.289438 0.0
11.1927 -0.145222 0.0
18.0139 2.75717 0.0
16.2845 1.7893 0.0
9.99657 0.276867 0.0
7.83608 0.498937 0.0
9.06097 0.593226 0.0
7.00061 0.335201 0.0
6.19242 -0.149093 0.0
13.4833 0.141521 0.0
4.92007 -0.0866726 0.0
7.9358 0.548561 0.0
4.76422 -0.00597307 0.0
9.08334 0.0760486 0.0
10.3878 -0.102582 0.0
9.93415 -0.852364 0.0
12.4972 -0.565591 0.0
17.0367 -0.316782 0.0
6.61874 0.727183 0.0
10.9651 0.195944 0.0
11.4914 -0.536123 0.0
6.8174 -0.0136344 0.0
9.31061 0.0111808 0.0
6.74114 -0.619172 0.0
15.8916 0.0659002 0.0
11.6613 -1.60297 0.0
8.90635 -0.197693 0.0
8.86481 -0.226569 0.0
8.26132 -0.00756303 0.0
17.6962 -2.72119 0.0
16.9515 -2.67113 0.0
18.3989 3.1219 0.0
5.39167 0.0260554 0.0
10.1439 1.24034 0.0
13.4177 -0.10308 0.0
9.59878 0.0300159 0.0
14.2237 -0.764619 0.0
6.18402 1.86732 0.0
11.2017 1.38048 0.0
9.47129 -1.18233 0.0
5.37036 -0.0513896 0.0
16.8174 -2.32681 0.0
13.3907 -0.098112 0.0
16.3927 -2.19496 0.0
8.8396 0.360119 0.0
5.36705 0.147534 0.0
13.3408 -0.00650997 0.0
12.0486 1.22935 0.0
16.0567 1.02565 0.0
9.75819 -0.293491 0.0
15.0678 -0.511207 0.0
6.46702 0.745428 0.0
13.2821 -1.1413 0.0
5.17943 -0.224603 0.0
4.98068 -0.0576687 0.0
8.67763 -0.107715 0.0
13.4978 -1.23649 0.0
12.9642 1.12826 0.0
13.4873 -0.133523 0.0
13.2855 0.421229 0.0
13.8121 0.0223771 0.0
7.72458 0.309852 0.0
13.9217 -0.758255 0.0
10.397 -1.94803 0.0
18.1578 3.11357 0.0
7.40376 1.62056 0.0
14.6269 -0.69252 0.0
10.1726 1.05588 0.0
7.72231 0.0844201 0.0
12.4699 -2.03856 0.0
13.4485 -1.34674 0.0
18.0426 2.81412 0.0
11.2602 0.38553 0.0
13.7142 -0.708185 0.0
10.577 -0.0317913 0.0
16.9433 -2.24781 0.0
10.907 0.438547 0.0
7.91072 -0.169453 0.0
7.73483 -0.19305 0.0
5.35758 -0.313197 0.0
9.00244 -0.457968 0.0
6.41528 0.631326 0.0
9.97346 -0.4903 0.0
10.2213 -0.627063 0.0
10.6609 -0.166129 0.0
10.7233 -0.146333 0.0
11.0867 0.339617 0.0
19.259 2.99119 0.0
16.1336 1.757 0.0
7.56862 -0.107259 0.0
17.5214 2.57284 0.0
17.2107 -1.47946 0.0
4.71522 0.0646546 0.0
16.7278 -2.69002 0.0
9.65787 0.314311 0.0
7.63091 0.0102448 0.0
7.80106 -0.209922 0.0
8.98194 0.285277 0.0
5.75144 0.534156 0.0
8.01727 0.159248 0.0
5.30685 0.114248 0.0
8.02305 1.13145 0.0
18.4795 3.00052 0.0
17.0738 -1.52918 0.0
8.77798 -0.204992 0.0
16.6544 2.18393 0.0
7.05405 0.638974 0.0
16.5055 -1.54933 0.0
16.3134 1.96105 0.0
7.9675 -1.72136 0.0
10.1403 0.794848 0.0
13.2396 0.0224306 0.0
7.18316 -0.542683 0.0
5.72619 0.392762 0.0
7.50537 -0.191419 0.0
13.8625 0.102547 0.0
13.5589 0.447645 0.0
13.6309 0.127838 0.0
7.12069 -0.396938 0.0
17.0925 -2.80422 0.0
18.4711 -3.26329 0.0
15.1116 -1.18172 0.0
6.44395 -0.653202 0.0
20.1883 -0.446526 0.0
17.2197 -2.33044 0.0
12.8083 -1.57394 0.0
17.6693 2.56537 0.0
15.1288 -1.2174 0.0
8.83174 -0.226509 0.0
5.15871 -0.0225912 0.0
8.09747 -0.246688 0.0
4.23003 0.287322 0.0
4.37143 -0.0253688 0.0
8.27 -1.35183 0.0
18.4753 2.65278 0.0
7.44695 0.765155 0.0
16.7468 2.26179 0.0
15.5971 1.37199 0.0
4.01313 -0.236581 0.0
20.3141 0.707396 0.0
3.47542 0.155096 0.0
4.22159 -0.231474 0.0
14.9296 2.53566 0.0
5.19293 0.43737 0.0
16.1881 -1.11326 0.0
20.055 0.983444 0.0
3.08116 -0.149804 0.0
13.3035 0.285197 0.0
15.0958 -2.01387 0.0
15.4674 1.41383 0.0
8.29635 0.728213 0.0
15.4428 1.57151 0.0
15.9691 1.82269 0.0
3.71064 0.396043 0.0
14.5984 0.140522 0.0
17.2922 -3.32893 0.0
3.66978 -0.29388 0.0
3.89353 -0.345108 0.0
15.2842 -1.05655 0.0
3.79428 0.311487 0.0
15.3261 2.9007 0.0
19.5669 -1.02641 0.0
9.8822 -0.256049 0.0
4.54672 -0.0618738 0.0
7.62985 0.385143 0.0
11.5566 0.353112 0.0
11.4176 0.148688 0.0
16.0125 -0.503434 0.0
10.8955 -0.120973 0.0
7.99914 -0.445164 0.0
17.1756 2.37303 0.0
16.8626 -2.07884 0.0
13.4587 0.0435448 0.0
17.1016 2.26961 0.0
13.3033 -0.0620354 0.0
19.6081 2.72091 0.0
13.2108 0.0145134 0.0
15.9326 -1.52802 0.0
15.0619 1.09389 0.0
6.27024 0.688507 0.0
13.4626 0.0456568 0.0
13.703 -0.600686 0.0
16.0579 -1.99283 0.0
5.85974 -0.689743 0.0
9.30467 -0.751384 0.0
15.9508 0.512775 0.0
5.6266 0.538551 0.0
13.2186 0.0364811 0.0
16.4369 1.71832 0.0
4.68691 0.214322 0.0
15.6382 -0.193878 0.0
15.5495 1.61367 0.0
13.2757 -0.00974936 0.0
17.8182 -3.08356 0.0
19.1439 -3.24304 0.0
5.83998 0.82163 0.0
5.43622 0.467781 0.0
12.6632 -0.861948 0.0
19.5747 -1.66034 0.0
14.6614 -2.31671 0.0
4.18388 0.0791551 0.0
17.8292 2.61602 0.0
16.1678 -1.95118 0.0
16.384 -1.39041 0.0
13.2788 -0.0247457 0.0
2.90162 -0.129753 0.0
3.37435 0.296123 0.0
18.5163 2.30545 0.0
3.95412 0.364429 0.0
16.7326 2.23559 0.0
16.4377 1.71504 0.0
2.8784 0.00446965 0.0
3.9434 -0.289097 0.0
15.0786 1.26667 0.0
12.8897 0.15098 0.0
2.8223 0.138727 0.0
12.5613 -0.126279 0.0
13.2483 0.073143 0.0
5.65112 -0.401292 0.0
13.2927 0.0230465 0.0
14.5346 1.2708 0.0
16.9578 -2.07641 0.0
14.5815 0.919806 0.0
4.69477 -0.483475 0.0
16.0427 -3.39302 0.0
4.31206 -0.137471 0.0
4.61264 0.355112 0.0
16.3512 -2.6922 0.0
4.0206 0.438094 0.0
15.0414 1.57965 0.0
14.6747 1.03762 0.0
19.9703 -2.43874 0.0
19.2445 -3.2902 0.0
7.10265 -0.82583 0.0
12.4901 0.244995 0.0
16.1395 1.32084 0.0
3.22054 -0.193181 0.0
2.97673 0.234756 0.0
8.55691 -0.166281 0.0
7.10578 0.751608 0.0
13.3596 -0.325504 0.0
4.86026 -0.330736 0.0
12.1092 0.621819 0.0
14.216 0.517245 0.0
5.04157 0.421087 0.0
7.56142 0.556564 0.0
16.1935 2.02379 0.0
4.66101 0.299394 0.0
14.0171 0.691187 0.0
14.084 1.04764 0.0
13.0496 0.121534 0.0
4.09218 -0.411978 0.0
3.17558 0.296228 0.0
5.36505 -0.156874 0.0
11.2988 0.0430595 0.0
7.41637 -0.193162 0.0
13.338 0.0594891 0.0
2.82489 0.0789034 0.0
19.4752 -3.14108 0.0
5.35401 -0.117573 0.0
3.00249 0.245519 0.0
9.29012 -1.12417 0.0
17.0977 2.40088 0.0
5.36881 -0.335883 0.0
13.0131 0.0998791 0.0
14.1274 0.845267 0.0
15.2308 0.0183587 0.0
13.3185 0.104993 0.0
13.6191 0.884059 0.0
10.4813 -0.83958 0.0
20.3206 0.0588058 0.0
15.1634 -1.23121 0.0
13.166 0.716069 0.0
4.62332 -0.518635 0.0
4.91237 0.538861 0.0
15.9764 -0.493197 0.0
2.74519 0.218115 0.0
16.5598 -2.20206 0.0
11.2826 0.921175 0.0
13.4015 0.114311 0.0
2.84833 0.229413 0.0
3.33359 -0.227317 0.0
13.6309 0.627155 0.0
18.0311 2.59703 0.0
11.6879 -0.144686 0.0
13.9642 -0.884345 0.0
13.266 0.0777137 0.0
13.1145 -0.800559 0.0
10.0288 -0.956142 0.0
12.7707 -0.0968203 0.0
13.9035 1.13802 0.0
2.9714 -0.091136 0.0
12.8382 0.541709 0.0
11.9286 0.518965 0.0
8.19519 -0.146219 0.0
13.3408 0.0639965 0.0
3.03744 -0.311536 0.0
3.35062 0.31618 0.0
14.3678 1.39611 0.0
12.9149 -0.112275 0.0
12.9129 -0.374884 0.0
9.17608 -0.127694 0.0
13.151 0.0973429 0.0
13.4122 0.0859684 0.0
15.7874 -1.49675 0.0
4.02828 0.237747 0.0
13.1533 0.1847 0.0
15.4792 -1.3722 0.0
13.0264 0.812748 0.0
12.651 0.3512 0.0
7.09348 -0.404676 0.0
19.5767 -0.358029 0.0
6.19561 -1.20821 0.0
18.5554 -1.61612 0.0
13.2308 -0.454297 0.0
15.7931 1.52256 0.0
13.2732 0.152545 0.0
4.15702 -0.226852 0.0
12.6518 0.396108 0.0
12.7753 0.167306 0.0
12.6492 0.669512 0.0
13.5373 0.0648633 0.0
13.4685 0.956127 0.0
13.0883 0.281381 0.0
12.6777 -0.628177 0.0
15.6548 0.436461 0.0
7.77833 -0.670668 0.0
16.535 -1.67875 0.0
7.62514 -0.115319 0.0
12.4932 -0.485058 0.0
7.59045 -1.41669 0.0
19.8389 -1.62884 0.0
13.4953 0.06995 0.0
2.25372 -0.226997 0.0
2.31035 0.23411 0.0
12.9589 0.196533 0.0
16.6965 1.95916 0.0
12.5325 0.301809 0.0
10.9695 0.405558 0.0
3.33595 -0.0343998 0.0
5.11928 -0.0688765 0.0
4.46815 0.117059 0.0
3.43092 0.452084 0.0
6.22572 -0.786471 0.0
16.0174 -1.80722 0.0
13.5555 0.0540785 0.0
19.6834 -2.63584 0.0
1.60455 0.289638 0.0
11.9243 -0.0465171 0.0
12.2898 -0.0536898 0.0
12.2905 -0.263969 0.0
11.9674 0.759223 0.0
1.72695 -0.317493 0.0
3.60532 -0.454151 0.0
11.7013 0.330852 0.0
11.1071 0.777115 0.0
12.4256 0.516975 0.0
10.8051 -0.309393 0.0
12.9754 -0.0309267 0.0
16.1313 1.6294 0.0
13.1551 -0.0357573 0.0
12.5408 0.528974 0.0
13.4484 0.0473536 0.0
2.859 -0.236081 0.0
17.088 2.37641 0.0
13.3506 0.104288 0.0
13.0164 0.115124 0.0
13.3574 0.0446117 0.0
12.8699 -0.183866 0.0
2.76364 0.163335 0.0
13.244 0.0955594 0.0
4.37201 -0.108708 0.0
8.45309 0.721885 0.0
11.0289 0.0700438 0.0
12.463 0.260916 0.0
12.2857 0.386859 0.0
13.3606 0.108707 0.0
13.3513 0.139471 0.0
13.3428 0.145483 0.0
2.64836 0.191354 0.0
4.70991 0.333544 0.0
4.4543 -0.0627271 0.0
13.2103 0.180784 0.0
12.8769 0.144741 0.0
18.7125 -3.16313 0.0
4.29419 0.130966 0.0
13.1736 -0.00621212 0.0
13.1429 0.255983 0.0
9.06653 1.25968 0.0
12.9729 0.00126595 0.0
2.34044 0.0792945 0.0
12.7281 -0.0354376 0.0
12.8611 -0.0658212 0.0
13.0647 -0.171759 0.0
11.1165 -0.19001 0.0
10.591 -0.19104 0.0
12.5829 -0.069907 0.0
4.87884 0.097052 0.0
17.271 2.71848 0.0
13.1858 0.128157 0.0
13.1244 -0.130368 0.0
13.0537 0.148616 0.0
12.4564 0.247819 0.0
8.8658 0.0335566 0.0
12.8961 0.167916 0.0
15.0299 -0.915404 0.0
13.3796 0.0173408 0.0
5.0156 0.162861 0.0
12.8793 0.377292 0.0
2.47982 -0.0812949 0.0
13.2914 0.176846 0.0
13.2083 0.236625 0.0
12.4812 0.25795 0.0
2.13226 0.155814 0.0
20.1059 -1.09204 0.0
13.4476 0.0429361 0.0
13.3056 0.173329 0.0
12.7888 -0.0293281 0.0
13.3124 -0.0277495 0.0
13.1426 0.177013 0.0
13.1789 0.20262 0.0
13.3068 0.126642 0.0
13.4756 0.0897365 0.0
12.5721 0.289376 0.0
2.63487 0.0653777 0.0
7.57577 0.197309 0.0
13.2244 0.025971 0.0
16.6079 2.52191 0.0
2.25891 -0.169533 0.0
4.53757 -0.0577462 0.0
18.6859 -2.5133 0.0
13.1179 0.254555 0.0
12.9677 0.204452 0.0
7.69821 -0.0850559 0.0
12.8887 -0.0857959 0.0
12.9778 -0.0560975 0.0
11.5604 0.806737 0.0
4.60926 0.13669 0.0
2.56303 -0.041681 0.0
14.9846 -1.09808 0.0
12.5059 0.469226 0.0
13.1097 -0.190578 0.0
13.2558 0.201137 0.0
7.98804 -0.0129184 0.0
13.087 0.218014 0.0
12.1898 0.331684 0.0
13.2236 -0.0235705 0.0
2.47485 0.0587648 0.0
13.2563 0.169318 0.0
13.2961 -0.00302472 0.0
2.67521 -0.0411124 0.0
12.736 0.296366 0.0
13.459 0.0905082 0.0
13.2435 0.270418 0.0
13.3447 0.0338969 0.0
12.9566 -0.0944502 0.0
13.3649 0.0213449 0.0
12.84 -0.258294 0.0
13.21 -0.113191 0.0
13.3472 0.108089 0.0
13.2348 -0.00496512 0.0
12.8775 -0.118679 0.0
2.62067 -0.0296682 0.0
13.3694 0.0403147 0.0
12.88 -0.143064 0.0
3.34122 0.101652 0.0
13.281 0.000119543 0.0
5.04035 0.173714 0.0
13.2192 0.163304 0.0
12.9548 -0.122571 0.0
13.2433 0.264708 0.0
13.3094 -0.103359 0.0
13.2755 -0.0100691 0.0
13.2047 0.244275 0.0
8.68425 0.233712 0.0
13.0244 0.0587378 0.0
12.674 0.189572 0.0
12.9242 0.202141 0.0
2.4264 -0.0167637 0.0
13.1416 0.213954 0.0
13.28 0.0618155 0.0
12.722 -0.366343 0.0
2.70294 -0.263274 0.0
12.1877 0.296764 0.0
2.67133 0.187129 0.0
12.4903 -0.41476 0.0
12.8842 0.17149 0.0
12.2476 0.312316 0.0
12.6964 -0.0720126 0.0
12.8912 -0.155408 0.0
12.411 0.340798 0.0
13.1368 -0.0487568 0.0
17.9892 -2.2206 0.0
12.3135 -0.330998 0.0
13.0129 0.0249826 0.0
13.2494 0.266647 0.0
13.2425 0.237185 0.0
13.2682 0.266042 0.0
12.9631 -0.139633 0.0
13.3211 0.269267 0.0
12.6082 -0.112599 0.0
13.3885 0.22196 0.0
12.7925 -0.0469557 0.0
12.9722 -0.0210458 0.0
8.48237 0.334987 0.0
13.0661 0.183689 0.0
13.372 0.266403 0.0
12.3268 -0.144096 0.0
13.3164 0.236409 0.0
12.9802 -0.140126 0.0
12.9136 -0.144995 0.0
2.71609 0.0756919 0.0
13.1596 -0.0359857 0.0
12.1692 0.309645 0.0
13.4312 0.246869 0.0
11.692 0.098938 0.0
5.15216 0.219629 0.0
12.9066 -0.0586152 0.0
13.3985 0.174854 0.0
12.7939 0.121637 0.0
12.2953 -0.101116 0.0
12.9384 -0.100126 0.0
13.4637 0.0793335 0.0
13.0045 -0.115042 0.0
12.823 0.0116649 0.0
11.2466 0.756024 0.0
13.2139 -0.0253568 0.0
13.5013 0.237745 0.0
13.2908 0.194402 0.0
8.26552 -0.0568533 0.0
13.0952 -0.0529199 0.0
12.1558 -0.137511 0.0
2.91054 0.135597 0.0
4.748 0.266163 0.0
13.0217 -0.0625988 0.0
13.3764 0.266048 0.0
12.633 -0.168243 0.0
12.9447 -0.030808 0.0
13.4777 0.145104 0.0
12.6549 -0.109104 0.0
12.8611 -0.0773562 0.0
12.9163 0.041028 0.0
12.0465 -0.12927 0.0
12.5147 -0.104222 0.0
13.5493 0.179377 0.0
12.128 -0.110824 0.0
13.7405 0.164249 0.0
12.6359 -0.187513 0.0
12.7947 -0.130224 0.0
12.4821 -0.135919 0.0
11.9953 -0.155441 0.0
13.22 0.241607 0.0
13.0148 0.00224455 0.0
3.59852 0.158775 0.0
5.31654 0.22999 0.0
13.527 0.0271812 0.0
13.4739 -0.0360461 0.0
12.594 0.324711 0.0
12.6459 0.0602886 0.0
12.713 -0.0786745 0.0
13.3011 0.261082 0.0
12.8409 0.0954476 0.0
13.2228 0.248841 0.0
13.1988 -0.031836 0.0
11.9568 -0.187093 0.0
12.4619 -0.209725 0.0
12.7551 -0.0506188 0.0
12.9728 0.0598096 0.0
13.6229 0.146905 0.0
13.1707 -0.0472062 0.0
12.4658 -0.166065 0.0
18.9046 1.35918 0.0
11.6898 -0.149832 0.0
12.4569 -0.194844 0.0
11.9266 -0.227228 0.0
13.2175 0.182442 0.0
12.7238 0.109915 0.0
12.8912 0.0895056 0.0
12.6583 -0.178127 0.0
11.7686 -0.130657 0.0
12.4848 0.0256395 0.0
13.4941 0.264766 0.0
11.9151 -0.255187 0.0
12.4911 -0.169616 0.0
12.6051 0.0693834 0.0
9.41035 0.205749 0.0
13.1314 0.212852 0.0
11.9239 -0.202048 0.0
8.43066 0.142709 0.0
11.6337 -0.177281 0.0
12.7894 0.0736336 0.0
11.937 -0.0742836 0.0
12.5052 -0.0794149 0.0
11.8971 -0.128356 0.0
2.58664 -0.055613 0.0
4.53536 -0.100149 0.0
9.27781 0.300826 0.0
12.6529 -0.129312 0.0
12.6882 -0.0304944 0.0
12.5277 -0.00510871 0.0
12.7051 0.0148621 0.0
11.8968 0.0521104 0.0
5.21984 0.139135 0.0
13.6647 0.204252 0.0
4.61505 -0.105077 0.0
13.6221 0.045669 0.0
12.5336 -0.0785835 0.0
11.583 -0.216028 0.0
12.5358 0.130278 0.0
11.5259 -0.266136 0.0
13.6603 -0.0289948 0.0
12.3616 0.158602 0.0
2.65641 -0.054635 0.0
4.56582 -0.103296 0.0
12.685 -0.119437 0.0
2.9414 0.0855157 0.0
12.6703 -0.0639154 0.0
11.5294 -0.2587 0.0
11.5394 -0.137622 0.0
12.4004 0.113563 0.0
12.6862 -0.0297647 0.0
13.7503 0.00037429 0.0
12.1894 0.120909 0.0
12.0793 0.035132 0.0
4.58292 -0.0906228 0.0
2.75305 -0.0557284 0.0
8.09202 0.249132 0.0
11.5086 0.0119662 0.0
12.2213 0.173882 0.0
12.6377 -0.140641 0.0
12.0058 0.180611 0.0
12.9853 0.00742222 0.0
8.18141 0.274525 0.0
11.8226 0.101964 0.0
12.7351 -0.12395 0.0
12.0765 -0.0327193 0.0
4.74119 0.139052 0.0
2.52428 -0.0316404 0.0
2.14877 -0.060353 0.0
2.66758 -0.0515607 0.0
4.65723 -0.0256056 0.0
4.98122 0.134554 0.0
2.35882 -0.0114932 0.0
2.66157 0.00730335 0.0
4.52048 -0.102703 0.0
2.54986 -0.0441789 0.0
2.73257 -0.029128 0.0
2.94449 0.100069 0.0
4.86345 -0.0973201 0.0
2.81751 0.0747087 0.0
4.44502 -0.0534171 0.0
2.73007 0.0743305 0.0
4.74056 -0.045218 0.0
4.63981 0.0485553 0.0
2.61589 0.130396 0.0
5.16484 0.138804 0.0
4.52087 -0.0905099 0.0
4.41471 -0.0735797 0.0
2.66608 0.178748 0.0
4.35201 -0.0434466 0.0
4.63007 0.194552 0.0
2.53465 0.0307041 0.0
4.50331 -0.0595593 0.0
2.81152 0.0485973 0.0
2.55379 0.0942052 0.0
4.32985 -0.10806 0.0
2.68233 0.131138 0.0
3.3043 0.0798538 0.0
2.724 0.195206 0.0
2.37163 0.0880656 0.0
2.50348 -0.0163086 0.0
4.57508 0.0178894 0.0
2.60709 -0.0589058 0.0
2.65623 -0.0534895 0.0
2.74352 0.129213 0.0
2.7883 0.100074 0.0
2.70976 0.0391931 0.0
2.62264 0.0505081 0.0
2.27975 -0.056539 0.0
2.56196 -0.0268099 0.0
3.18844 0.00629577 0.0
5.0214 -0.00279691 0.0
2.79996 0.00523234 0.0
3.33306 0.0775491 0.0
4.41156 0.171752 0.0
4.22265 -0.126574 0.0
2.55124 -0.0564481 0.0
2.75688 0.153463 0.0
2.6194 0.0361618 0.0
4.69849 0.0860035 0.0
2.43808 0.0983181 0.0
2.71842 0.0777926 0.0
2.52462 -0.0468503 0.0
4.71359 0.226893 0.0
3.07442 -0.0710323 0.0
2.27329 0.0261815 0.0
2.57168 0.0296548 0.0
2.17135 0.0510415 0.0
2.82168 0.0778248 0.0
2.80371 -0.0129164 0.0
4.08172 -0.0533434 0.0
1.96628 -0.0181622 0.0
4.6085 0.251285 0.0
4.7967 0.125819 0.0
12.8896 -0.0929872 0.0
12.679 -0.100803 0.0
13.0924 -0.0671403 0.0
11.7667 0.0130888 0.0
13.2763 -0.209555 0.0
13.5039 -0.0988875 0.0
11.7981 -0.00851203 0.0
13.3371 -0.221506 0.0
13.5574 -0.194168 0.0
13.3958 -0.243408 0.0
13.5893 -0.115697 0.0
12.2446 -0.0181681 0.0
12.9888 -0.0909802 0.0
13.4659 -0.214275 0.0
12.7208 -0.0772716 0.0
13.2173 -0.141607 0.0
12.9557 -0.139437 0.0
13.2194 -0.105846 0.0
13.1656 -0.197679 0.0
13.1181 -0.218235 0.0
10.8888 0.074186 0.0