# vtk DataFile Version 3.0
Malha 2D com triângulos e temperatura
ASCII
DATASET UNSTRUCTURED_GRID

POINTS 1194 double
0 0 0
5 0 0
5 1 0
0 1 0
0.85 0.5 0
0.842388 0.538268 0
0.820711 0.570711 0
0.788268 0.592388 0
0.75 0.6 0
0.711732 0.592388 0
0.679289 0.570711 0
0.657612 0.538268 0
0.65 0.5 0
0.657612 0.461732 0
0.679289 0.429289 0
0.711732 0.407612 0
0.75 0.4 0
0.788268 0.407612 0
0.820711 0.429289 0
0.842388 0.461732 0
0.0793651 0 0
0.15873 0 0
0.238095 0 0
0.31746 0 0
0.396825 0 0
0.47619 0 0
0.555556 0 0
0.634921 0 0
0.714286 0 0
0.793651 0 0
0.873016 0 0
0.952381 0 0
1.03175 0 0
1.11111 0 0
1.19048 0 0
1.26984 0 0
1.34921 0 0
1.42857 0 0
1.50794 0 0
1.5873 0 0
1.66667 0 0
1.74603 0 0
1.8254 0 0
1.90476 0 0
1.98413 0 0
2.06349 0 0
2.14286 0 0
2.22222 0 0
2.30159 0 0
2.38095 0 0
2.46032 0 0
2.53968 0 0
2.61905 0 0
2.69841 0 0
2.77778 0 0
2.85714 0 0
2.93651 0 0
3.01587 0 0
3.09524 0 0
3.1746 0 0
3.25397 0 0
3.33333 0 0
3.4127 0 0
3.49206 0 0
3.57143 0 0
3.65079 0 0
3.73016 0 0
3.80952 0 0
3.88889 0 0
3.96825 0 0
4.04762 0 0
4.12698 0 0
4.20635 0 0
4.28571 0 0
4.36508 0 0
4.44444 0 0
4.52381 0 0
4.60317 0 0
4.68254 0 0
4.7619 0 0
4.84127 0 0
4.92063 0 0
5 0.0769231 0
5 0.153846 0
5 0.230769 0
5 0.307692 0
5 0.384615 0
5 0.461538 0
5 0.538462 0
5 0.615385 0
5 0.692308 0
5 0.769231 0
5 0.846154 0
5 0.923077 0
4.92063 1 0
4.84127 1 0
4.7619 1 0
4.68254 1 0
4.60317 1 0
4.52381 1 0
4.44444 1 0
4.36508 1 0
4.28571 1 0
4.20635 1 0
4.12698 1 0
4.04762 1 0
3.96825 1 0
3.88889 1 0
3.80952 1 0
3.73016 1 0
3.65079 1 0
3.57143 1 0
3.49206 1 0
3.4127 1 0
3.33333 1 0
3.25397 1 0
3.1746 1 0
3.09524 1 0
3.01587 1 0
2.93651 1 0
2.85714 1 0
2.77778 1 0
2.69841 1 0
2.61905 1 0
2.53968 1 0
2.46032 1 0
2.38095 1 0
2.30159 1 0
2.22222 1 0
2.14286 1 0
2.06349 1 0
1.98413 1 0
1.90476 1 0
1.8254 1 0
1.74603 1 0
1.66667 1 0
1.5873 1 0
1.50794 1 0
1.42857 1 0
1.34921 1 0
1.26984 1 0
1.19048 1 0
1.11111 1 0
1.03175 1 0
0.952381 1 0
0.873016 1 0
0.793651 1 0
0.714286 1 0
0.634921 1 0
0.555556 1 0
0.47619 1 0
0.396825 1 0
0.31746 1 0
0.238095 1 0
0.15873 1 0
0.0793651 1 0
0 0.923077 0
0 0.846154 0
0 0.769231 0
0 0.692308 0
0 0.615385 0
0 0.538462 0
0 0.461538 0
0 0.384615 0
0 0.307692 0
0 0.230769 0
0 0.153846 0
0 0.0769231 0
0.879698 0.466718 0
1.3085 0.931947 0
1.30532 0.0638546 0
4.93832 0.504275 0
0.620452 0.46964 0
3.99858 0.0669607 0
1.63721 0.934258 0
3.3751 0.0523709 0
4.3254 0.0687322 0
2.42354 0.0642082 0
2.97619 0.0687322 0
2.02101 0.0693621 0
3.68108 0.0581336 0
2.65899 0.932655 0
4.178 0.939994 0
3.21614 0.938179 0
2.25483 0.919987 0
3.53215 0.928998 0
3.84921 0.931268 0
1.69647 0.0674297 0
1.94349 0.930209 0
4.48413 0.931268 0
2.97813 0.942022 0
2.74097 0.0673855 0
0.859645 0.573263 0
0.639718 0.573116 0
0.0651563 0.652836 0
0.0635304 0.346121 0
4.56232 0.0679683 0
0.830393 0.392645 0
0.669618 0.39275 0
1.06185 0.0668897 0
0.440193 0.0680031 0
1.06474 0.93511 0
0.446074 0.935974 0
0.724697 0.630698 0
4.72268 0.931235 0
4.93065 0.267192 0
0.589836 0.936152 0
0.92338 0.0562425 0
0.590207 0.0623339 0
0.755872 0.0732784 0
0.838039 0.936714 0
4.92573 0.732039 0
0.281717 0.93783 0
0.28208 0.0811877 0
0.065248 0.503161 0
1.46076 0.0637037 0
4.72574 0.0661877 0
4.31028 0.937908 0
3.21429 0.0687322 0
1.46639 0.932632 0
3.6897 0.928155 0
2.42063 0.931268 0
3.5364 0.0691789 0
2.25998 0.0676208 0
1.78735 0.937047 0
4.01535 0.920637 0
1.85469 0.0674188 0
3.83991 0.0626292 0
3.37477 0.929368 0
2.58225 0.0657863 0
2.81746 0.932342 0
4.16667 0.0687322 0
2.11402 0.935574 0
0.0614266 0.197046 0
0.0612841 0.803003 0
4.88273 0.0644126 0
4.87774 0.933272 0
0.859645 0.426737 0
0.903081 0.436592 0
0.923672 0.473385 0
0.948706 0.439078 0
0.969155 0.479795 0
0.996593 0.439791 0
1.0202 0.484937 0
1.04667 0.440138 0
1.07382 0.489694 0
1.1034 0.440801 0
1.13169 0.49612 0
1.16603 0.445058 0
1.1931 0.504331 0
1.22956 0.450883 0
1.25923 0.506004 0
1.29683 0.453139 0
1.32923 0.510343 0
1.36603 0.454344 0
1.03276 0.530395 0
1.40063 0.516169 0
1.43576 0.454934 0
1.47042 0.520776 0
1.51069 0.46142 0
1.54422 0.526371 0
1.58547 0.465572 0
1.61942 0.531773 0
1.66033 0.468788 0
1.69546 0.536793 0
1.73713 0.472812 0
1.77239 0.541977 0
1.81532 0.478494 0
1.85006 0.547285 0
1.89327 0.483449 0
1.92802 0.55361 0
1.97142 0.488546 0
2.00623 0.558966 0
2.04984 0.493518 0
2.08483 0.564085 0
2.12847 0.498462 0
2.16353 0.569137 0
2.20719 0.503331 0
0.961579 0.391697 0
1.22451 0.565337 0
2.24238 0.574192 0
2.28611 0.508258 0
2.32134 0.579247 0
2.36519 0.513325 0
2.40036 0.584295 0
2.44425 0.51834 0
2.47944 0.589336 0
2.52334 0.523355 0
2.55853 0.594372 0
2.60245 0.52837 0
2.63764 0.599431 0
2.68159 0.533388 0
2.64637 0.462336 0
2.72553 0.467349 0
2.76076 0.538418 0
2.8047 0.47237 0
2.83993 0.543451 0
2.88387 0.477399 0
2.91911 0.548482 0
2.96305 0.482427 0
2.9983 0.553514 0
3.04224 0.487456 0
3.07749 0.558545 0
3.12143 0.492477 0
3.15668 0.563574 0
3.20063 0.497514 0
3.23588 0.568605 0
3.27983 0.502542 0
3.31508 0.573635 0
3.35903 0.507562 0
3.39428 0.578663 0
3.43823 0.5126 0
3.47348 0.583694 0
3.51744 0.517628 0
3.55268 0.588724 0
3.59664 0.522646 0
3.63189 0.593752 0
3.67585 0.527673 0
3.71109 0.598781 0
3.75505 0.532702 0
3.7903 0.60381 0
3.83426 0.537731 0
3.79901 0.466623 0
3.87821 0.471754 0
3.91346 0.542777 0
3.95742 0.476701 0
3.99267 0.547795 0
4.03662 0.481715 0
4.07187 0.552815 0
4.11582 0.486743 0
4.15106 0.55783 0
4.195 0.491782 0
4.23023 0.562843 0
4.27415 0.49682 0
4.30937 0.567866 0
4.35325 0.501915 0
4.38842 0.572845 0
4.43227 0.506997 0
4.46737 0.577575 0
4.51106 0.511995 0
4.54622 0.582183 0
1.13571 0.390292 0
4.47606 0.441361 0
4.55475 0.446396 0
2.32985 0.442214 0
3.5614 0.451571 0
3.08619 0.421408 0
2.09339 0.427815 0
1.42887 0.583001 0
2.84864 0.406329 0
3.32378 0.43649 0
4.23911 0.425894 0
1.54723 0.39251 0
1.77883 0.406811 0
1.33959 0.387065 0
3.92239 0.405803 0
4.08079 0.415776 0
2.48812 0.452349 0
1.57935 0.603183 0
1.93602 0.417543 0
1.72453 0.617973 0
3.11273 0.629643 0
2.69029 0.396284 0
3.94662 0.623383 0
1.88466 0.613248 0
2.79598 0.609502 0
4.10826 0.620575 0
2.04005 0.62838 0
2.95434 0.619575 0
4.51981 0.375801 0
4.59833 0.380943 0
4.63314 0.451296 0
4.26693 0.63114 0
2.19619 0.645921 0
4.4246 0.642296 0
3.27112 0.639707 0
2.35729 0.649822 0
2.51462 0.660373 0
3.42952 0.649769 0
4.67669 0.38601 0
3.58793 0.659829 0
3.74634 0.669888 0
4.64195 0.315733 0
4.44109 0.370647 0
4.48493 0.305066 0
4.40614 0.29989 0
4.71136 0.456133 0
4.72014 0.320758 0
0.8692 0.382093 0
0.841252 0.348256 0
0.886481 0.338703 0
0.853127 0.301457 0
0.902583 0.287335 0
0.801683 0.321689 0
0.818113 0.263019 0
0.764765 0.277091 0
4.44702 0.235678 0
0.946267 0.520761 0
0.78107 0.221265 0
0.726309 0.234724 0
0.848273 0.20551 0
4.68545 0.250576 0
4.37074 0.227561 0
4.76365 0.255792 0
4.79822 0.326145 0
0.713664 0.287231 0
0.672358 0.247957 0
0.68673 0.192342 0
0.630368 0.2085 0
0.616569 0.265341 0
0.574186 0.225456 0
0.557393 0.28131 0
0.52004 0.242373 0
0.504416 0.299685 0
0.462273 0.252096 0
0.44798 0.316739 0
0.404567 0.276951 0
0.390546 0.335414 0
0.434669 0.37657 0
0.377935 0.394545 0
0.421979 0.43426 0
0.365682 0.452846 0
0.409646 0.492216 0
0.353389 0.51089 0
0.397738 0.551598 0
0.339864 0.570301 0
0.385899 0.612153 0
0.325913 0.631557 0
0.344507 0.29318 0
0.320568 0.413067 0
0.373553 0.673852 0
0.434438 0.653082 0
0.311416 0.69481 0
0.449777 0.528305 0
0.293513 0.534612 0
0.421431 0.715204 0
0.480917 0.696603 0
0.54504 0.34471 0
0.262743 0.649913 0
0.246209 0.712341 0
0.468564 0.755948 0
0.526091 0.735423 0
0.538207 0.68039 0
0.581228 0.716342 0
0.408756 0.777952 0
0.36234 0.239019 0
0.297047 0.251925 0
0.572109 0.771575 0
0.624906 0.752173 0
0.474824 0.414151 0
0.534351 0.182707 0
0.633682 0.70159 0
0.674547 0.736174 0
0.66826 0.788959 0
0.721117 0.76834 0
0.714515 0.825486 0
0.769074 0.802008 0
0.775287 0.746591 0
0.821903 0.778625 0
0.826767 0.726064 0
0.873257 0.756032 0
0.872997 0.697261 0
0.92331 0.732304 0
0.930014 0.67838 0
0.976061 0.710612 0
0.92456 0.784469 0
0.982178 0.654421 0
1.03016 0.688004 0
1.02037 0.747059 0
1.08 0.723819 0
1.08651 0.661896 0
1.1397 0.698204 0
1.13262 0.763657 0
1.19424 0.736545 0
1.18556 0.80161 0
1.24839 0.771772 0
1.25723 0.706382 0
1.31432 0.745787 0
4.66801 0.521361 0
4.74602 0.526202 0
4.70285 0.591278 0
4.78076 0.596023 0
4.73763 0.661207 0
4.78904 0.460969 0
2.61113 0.391267 0
2.65506 0.325217 0
2.57588 0.320198 0
2.61982 0.254148 0
2.69899 0.259163 0
2.54065 0.249131 0
2.49672 0.315179 0
2.46148 0.244124 0
2.41757 0.310166 0
2.38233 0.239117 0
2.33843 0.30514 0
2.30297 0.237979 0
2.25928 0.300748 0
2.22079 0.221377 0
2.17969 0.293884 0
2.14114 0.224266 0
2.10047 0.289841 0
2.0653 0.219144 0
2.02202 0.284919 0
1.98701 0.214164 0
1.94336 0.279863 0
3.82315 0.673327 0
3.78135 0.738156 0
3.86451 0.735958 0
3.70234 0.735494 0
4.52513 0.244409 0
4.32717 0.294467 0
4.29217 0.221862 0
0.619934 0.539507 0
0.599432 0.577132 0
0.575955 0.542712 0
0.554504 0.58245 0
4.65962 0.656481 0
4.69438 0.726169 0
4.6161 0.721747 0
4.77259 0.731352 0
4.65076 0.791486 0
4.57153 0.788793 0
4.2482 0.289182 0
4.21307 0.218308 0
4.1691 0.284563 0
4.13394 0.21352 0
0.835918 0.606341 0
0.806475 0.6384 0
4.08995 0.279537 0
0.640355 0.426737 0
0.596214 0.435837 0
0.630358 0.379178 0
0.689967 0.627735 0
1.90832 0.209948 0
1.86468 0.27519 0
1.82968 0.20518 0
1.78607 0.269797 0
0.281841 0.313314 0
0.232117 0.268621 0
0.216861 0.334396 0
4.05473 0.209347 0
4.01077 0.2745 0
3.97554 0.204394 0
3.93159 0.269388 0
0.297409 0.759367 0
0.231645 0.782943 0
0.180008 0.73598 0
1.32151 0.676369 0
1.38055 0.718092 0
1.36901 0.793947 0
1.43945 0.766002 0
0.249902 0.198865 0
0.932364 0.624392 0
1.75117 0.201034 0
1.70771 0.264658 0
1.673 0.195402 0
1.62985 0.260294 0
1.59532 0.191927 0
1.55236 0.254233 0
3.89629 0.200227 0
3.85238 0.264494 0
3.81708 0.195303 0
3.77304 0.259453 0
2.66368 0.189084 0
2.74279 0.19534 0
2.77814 0.264556 0
2.82201 0.199823 0
2.85733 0.269552 0
2.90126 0.203886 0
2.93654 0.274416 0
2.98045 0.20868 0
3.01573 0.279376 0
3.0597 0.213193 0
[...]
CELL_DATA 2220
VECTORS velocity double
24.6613 -2.02014 0.0
18.1761 0.489438 0.0
25.2963 6.09927 0.0
24.8567 1.13833 0.0
25.0603 -2.38372 0.0
33.2818 -1.31196 0.0
15.2816 0.468495 0.0
17.0308 -0.0340322 0.0
28.7335 11.2876 0.0
32.7867 -0.922657 0.0
18.3275 16.6513 0.0
16.2557 0.257354 0.0
12.8925 0.189417 0.0
25.2207 -6.72905 0.0
23.0511 15.5742 0.0
20.4227 11.2735 0.0
17.5243 0.849918 0.0
14.148 0.633626 0.0
16.0288 -0.140352 0.0
17.4077 -0.12475 0.0
21.344 4.64561 0.0
41.0657 -6.14306 0.0
16.4863 0.730424 0.0
16.8404 0.563085 0.0
30.5095 -1.10507 0.0
23.214 -5.63033 0.0
21.9272 -2.29358 0.0
14.4011 0.548866 0.0
24.5031 1.20688 0.0
27.5928 1.14967 0.0
24.4091 -3.2852 0.0
33.2882 0.135143 0.0
11.8476 -0.121939 0.0
31.5074 -12.7373 0.0
48.7253 1.67654 0.0
33.3837 -1.47776 0.0
47.5442 2.5248 0.0
13.9151 -0.129713 0.0
28.9166 1.3967 0.0
28.1794 -1.87291 0.0
13.3093 -1.23183 0.0
28.8326 10.3116 0.0
20.822 0.945744 0.0
15.4669 -0.00570948 0.0
13.9563 -0.0761814 0.0
12.4915 -0.00259531 0.0
16.2418 0.654679 0.0
12.6964 -0.0221976 0.0
32.5368 -0.797483 0.0
35.2209 0.540804 0.0
16.897 3.66918 0.0
12.7555 0.0957371 0.0
15.9177 0.632382 0.0
16.2659 0.109231 0.0
14.5944 0.686999 0.0
28.0228 -2.45785 0.0
35.5365 -0.405535 0.0
13.4477 0.562107 0.0
13.9056 0.575005 0.0
35.5899 0.415029 0.0
-0.132316 -5.96901 0.0
31.7607 -1.75664 0.0
26.1598 -4.4065 0.0
16.3245 0.62332 0.0
16.1022 0.707742 0.0
34.0368 -11.3379 0.0
19.4835 -1.13683 0.0
23.1042 10.5718 0.0
13.581 0.683527 0.0
13.8903 0.586569 0.0
16.1078 0.16065 0.0
33.3003 11.7032 0.0
12.5014 0.154345 0.0
34.1103 1.0428 0.0
30.5326 -1.4967 0.0
49.3876 -0.315216 0.0
28.8037 4.46562 0.0
17.8378 -3.57412 0.0
27.507 10.1818 0.0
15.198 0.113338 0.0
23.1744 2.76634 0.0
28.7633 2.73562 0.0
14.714 -0.248433 0.0
12.429 0.103646 0.0
15.722 0.46754 0.0
15.663 0.245903 0.0
22.1849 -2.39601 0.0
13.0092 0.210486 0.0
13.2427 0.375467 0.0
29.4138 11.5965 0.0
24.4989 -3.70546 0.0
17.964 4.45871 0.0
16.2183 -0.174399 0.0
25.9898 6.19182 0.0
48.631 0.128792 0.0
28.048 2.01008 0.0
42.5673 4.84147 0.0
4.60427 -18.1105 0.0
0.556861 -4.549 0.0
29.2418 13.4707 0.0
-5.48918 -18.3293 0.0
21.6801 -4.53322 0.0
16.0332 0.579322 0.0
13.3399 1.16564 0.0
42.6455 -5.76431 0.0
48.9317 -1.00425 0.0
34.1674 -1.09229 0.0
34.7117 -1.39214 0.0
4.56677 -0.128363 0.0
15.999 1.24458 0.0
31.4946 1.04094 0.0
28.051 -8.26793 0.0
33.9954 -0.909422 0.0
10.9119 -0.592489 0.0
33.3248 -2.56364 0.0
13.5692 0.499858 0.0
24.0758 -5.55358 0.0
18.4339 -0.441015 0.0
2.89076 -20.6819 0.0
30.4155 10.7088 0.0
17.3636 -2.9178 0.0
38.3772 -0.671036 0.0
14.0807 3.31566 0.0
35.2364 -8.56571 0.0
49.5503 0.825139 0.0
14.1552 -11.6979 0.0
48.1511 -1.58808 0.0
23.5061 1.06177 0.0
27.4547 -7.91167 0.0
-0.700366 9.17539 0.0
12.739 1.85995 0.0
35.688 4.49471 0.0
28.645 5.85388 0.0
14.8006 8.90481 0.0
28.3305 1.47722 0.0
11.6346 8.86143 0.0
11.5401 -0.00618373 0.0
18.5882 -3.62274 0.0
16.9418 -12.6976 0.0
34.5625 0.530706 0.0
20.7712 -4.6931 0.0
15.2544 -0.0358106 0.0
32.5523 -3.23743 0.0
49.065 0.468696 0.0
33.4478 0.991568 0.0
23.3116 5.43697 0.0
-8.72273 9.18201 0.0
8.12391 -18.7156 0.0
33.477 2.62759 0.0
34.313 -1.99643 0.0
13.4267 -0.367948 0.0
29.9086 9.59091 0.0
39.0224 -0.0175871 0.0
31.4859 -10.7151 0.0
6.21147 6.63743 0.0
17.3411 0.232694 0.0
22.34 -1.3994 0.0
18.0625 0.388128 0.0
10.5309 -0.820072 0.0
16.0463 -3.61934 0.0
33.3068 8.3888 0.0
13.6215 0.0221982 0.0
-9.11537 -9.41396 0.0
33.3645 0.123759 0.0
12.3852 0.0899724 0.0
32.3653 -12.2268 0.0
23.4766 -14.5998 0.0
49.9426 0.384852 0.0
17.2167 0.169034 0.0
25.1756 10.8479 0.0
-3.6573 15.2955 0.0
12.0988 0.0265343 0.0
15.9418 0.0773662 0.0
-1.44174 -9.47359 0.0
9.1823 -5.18333 0.0
27.7038 9.24454 0.0
26.9236 4.37305 0.0
26.128 8.52705 0.0
8.70153 -1.7975 0.0
17.0527 0.0502493 0.0
37.692 -0.283125 0.0
16.8078 -3.72135 0.0
17.3862 -15.5584 0.0
4.58341 14.7284 0.0
17.3923 -0.0227567 0.0
28.8398 -1.81147 0.0
48.5135 0.124576 0.0
13.6985 -0.424775 0.0
44.495 3.76923 0.0
49.8862 0.23361 0.0
12.6718 -0.987854 0.0
13.5705 -0.198439 0.0
28.7358 -9.13128 0.0
33.8277 2.21529 0.0
22.5909 -0.447991 0.0
48.3641 -0.270897 0.0
23.6528 0.86148 0.0
15.4744 -0.649178 0.0
6.40984 -0.308633 0.0
15.9692 -0.550056 0.0
14.9074 -6.96983 0.0
21.3785 -1.1467 0.0
36.4035 -10.0961 0.0
16.2442 -0.133919 0.0
13.5546 1.41842 0.0
21.0721 -3.57447 0.0
22.2084 -4.19401 0.0
14.9119 0.0197536 0.0
23.167 1.53182 0.0
8.21964 -1.38628 0.0
15.9384 0.628241 0.0
11.8515 18.5602 0.0
23.0151 -0.197596 0.0
26.1612 10.9402 0.0
29.3418 5.63328 0.0
16.4081 2.35015 0.0
13.3775 0.580749 0.0
15.8882 0.831185 0.0
9.60047 1.87397 0.0
31.318 0.920928 0.0
33.4734 0.637166 0.0
7.51455 -0.258584 0.0
13.2471 0.7734 0.0
7.15819 -0.104137 0.0
16.1211 -0.0964211 0.0
18.9061 -1.34961 0.0
14.7191 -2.63527 0.0
21.5198 15.9777 0.0
26.7144 -5.591 0.0
11.5772 0.348853 0.0
19.9528 1.4413 0.0
21.5156 -1.63071 0.0
10.856 -0.092835 0.0
16.451 -0.255552 0.0
11.9321 -0.248134 0.0
49.8113 0.121926 0.0
7.57087 -7.25628 0.0
16.0536 -0.204653 0.0
15.9088 -0.230181 0.0
13.9484 -0.13431 0.0
48.4758 -0.180023 0.0
37.5079 9.24758 0.0
45.0905 -3.89985 0.0
8.04385 -0.00145097 0.0
13.3903 7.35466 0.0
35.0925 0.0303502 0.0
17.3258 -0.353741 0.0
34.4579 -0.746481 0.0
4.52893 8.05099 0.0
21.2406 0.605616 0.0
11.5841 -7.84236 0.0
8.06341 -0.056732 0.0
21.8393 -14.1654 0.0
32.8812 -0.186255 0.0
27.6578 -6.76914 0.0
15.7068 0.336421 0.0
-8.88902 1.69658 0.0
34.0742 0.245264 0.0
22.3409 -0.0860404 0.0
49.1201 0.213082 0.0
18.0852 -0.283173 0.0
39.9146 -0.430047 0.0
11.4915 0.548657 0.0
19.1672 -4.56598 0.0
7.7183 -0.653696 0.0
8.18743 -0.0649756 0.0
14.378 -1.04487 0.0
13.8162 -4.82351 0.0
18.7462 4.60697 0.0
35.4261 -0.0396642 0.0
30.5579 1.14309 0.0
32.4131 0.0175739 0.0
13.1148 0.272306 0.0
31.9066 -1.96913 0.0
4.66958 -11.7354 0.0
46.6734 -2.49175 0.0
21.8228 -14.1993 0.0
19.3515 -2.53646 0.0
14.4759 3.13559 0.0
13.9908 0.0767647 0.0
11.2872 -15.1184 0.0
26.2645 -0.0413905 0.0
46.8159 -0.538998 0.0
22.3097 0.931322 0.0
31.7736 -1.74178 0.0
20.2068 -0.827109 0.0
36.9193 -0.268822 0.0
21.658 0.773758 0.0
13.7009 -0.170318 0.0
13.1758 -0.194349 0.0
-8.89147 -2.14744 0.0
14.7901 -1.33084 0.0
8.5871 1.76669 0.0
16.5021 -7.33521 0.0
17.3265 -1.81029 0.0
21.0675 -0.209106 0.0
21.4014 -0.184727 0.0
22.3189 0.336303 0.0
44.3689 -3.75913 0.0
30.3993 5.4338 0.0
11.5341 -1.07109 0.0
28.6888 8.52316 0.0
25.9877 -7.04628 0.0
7.71047 0.0597313 0.0
21.402 -12.3909 0.0
16.7285 0.865447 0.0
12.676 -0.164672 0.0
13.3675 -0.206857 0.0
16.8038 0.285688 0.0
7.81731 1.38802 0.0
11.7113 1.88967 0.0
11.4727 5.85898 0.0
4.64654 18.2248 0.0
46.4593 -1.41581 0.0
33.0498 11.7635 0.0
15.6008 -0.213883 0.0
26.9346 7.16949 0.0
12.0554 5.72427e-05 0.0
49.4073 -0.252164 0.0
30.3689 6.03252 0.0
22.1657 14.2357 0.0
13.9743 3.19418 0.0
33.4193 0.27615 0.0
12.3058 0.11208 0.0
10.4953 8.33937 0.0
10.305 -1.79532 0.0
32.408 0.0782145 0.0
31.5704 1.26587 0.0
34.1394 0.645488 0.0
9.48822 -1.89068 0.0
23.1492 -11.1966 0.0
48.2699 1.04866 0.0
21.3945 -3.96297 0.0
11.3979 -0.483939 0.0
33.2765 -10.7087 0.0
48.6586 -0.417194 0.0
25.6135 -0.850505 0.0
28.8053 8.49072 0.0
38.1928 -1.03736 0.0
15.7894 -0.232176 0.0
7.45202 0.885075 0.0
13.9779 -0.230208 0.0
6.77463 -0.131498 0.0
5.85325 -0.831121 0.0
19.637 15.8119 0.0
28.6065 9.90901 0.0
8.25611 3.85389 0.0
29.2111 7.0317 0.0
31.6071 4.21519 0.0
5.03659 -0.956966 0.0
36.2602 -8.25842 0.0
4.43269 0.819625 0.0
6.73784 0.186465 0.0
16.7998 10.6 0.0
7.36235 0.921849 0.0
50.0069 -0.0223051 0.0
36.7808 -9.30568 0.0
4.21999 -0.399178 0.0
31.6161 0.875452 0.0
32.3575 -0.988951 0.0
30.3479 4.38935 0.0
7.56637 18.7191 0.0
23.007 6.2084 0.0
29.7539 5.61456 0.0
6.24466 0.260223 0.0
35.3527 0.813152 0.0
41.9978 6.48393 0.0
4.59733 -0.885093 0.0
6.57968 -0.212325 0.0
40.0566 -0.85165 0.0
4.71182 0.930621 0.0
43.2006 -4.64062 0.0
36.326 9.80143 0.0
17.3192 -0.881081 0.0
7.02737 -0.0617939 0.0
13.4863 0.393555 0.0
22.4723 0.390053 0.0
22.78 0.107432 0.0
49.5059 -0.012914 0.0
21.1685 -0.133213 0.0
13.1847 0.629826 0.0
47.7651 0.141593 0.0
49.6552 -0.130482 0.0
34.1211 0.400247 0.0
45.9786 0.531923 0.0
31.9916 -0.15072 0.0
42.7636 -5.18134 0.0
33.4544 0.20464 0.0
23.9152 -6.24406 0.0
31.0097 3.35026 0.0
10.8274 0.633131 0.0
30.5697 0.0287276 0.0
32.0119 -0.617513 0.0
26.1208 -6.12886 0.0
9.36835 -0.70478 0.0
14.1407 -2.09687 0.0
48.8586 0.202988 0.0
9.00837 0.551121 0.0
33.5149 0.185615 0.0
47.6432 0.488234 0.0
7.4919 0.215125 0.0
26.2985 4.00032 0.0
29.2528 4.9553 0.0
34.1021 0.129611 0.0
41.1395 7.22287 0.0
45.3408 4.36642 0.0
5.18182 3.52526 0.0
7.55454 1.12496 0.0
22.6168 1.15892 0.0
29.8093 -12.3032 0.0
16.2482 -14.2355 0.0
5.62842 0.885417 0.0
45.0032 0.0538513 0.0
29.1063 -5.92368 0.0
47.9852 -0.468904 0.0
34.0747 0.157484 0.0
4.18731 -0.130867 0.0
4.26531 0.777492 0.0
28.4561 9.25168 0.0
6.52363 0.110733 0.0
29.7049 6.95824 0.0
45.5411 0.727203 0.0
4.34023 0.00136111 0.0
6.54576 -0.0387196 0.0
29.7258 3.86564 0.0
30.6386 0.44067 0.0
4.08728 0.138674 0.0
27.0443 -0.142915 0.0
33.6015 0.194112 0.0
7.935 -1.10693 0.0
34.1505 0.135974 0.0
27.3422 3.7507 0.0
47.1927 -0.72384 0.0
31.4381 2.5275 0.0
6.91505 -0.493423 0.0
42.8809 5.31838 0.0
5.53841 -0.950252 0.0
6.73247 0.366328 0.0
21.7438 -9.89684 0.0
6.7281 0.377901 0.0
27.0999 4.7442 0.0
30.3119 2.96831 0.0
42.444 4.57435 0.0
46.3086 3.05549 0.0
10.9564 -0.865761 0.0
19.1921 3.48279 0.0
47.837 0.4552 0.0
4.27996 -0.51401 0.0
3.90575 0.512216 0.0
13.1269 -1.61307 0.0
10.512 0.791127 0.0
33.571 -0.677833 0.0
7.43346 -0.33912 0.0
24.9504 0.628306 0.0
33.3411 1.54072 0.0
7.33544 0.771478 0.0
12.765 0.581874 0.0
28.8064 6.22723 0.0
7.15713 0.306862 0.0
31.492 1.8263 0.0
27.5825 2.92354 0.0
31.6424 0.435892 0.0
6.48833 -0.410562 0.0
5.03465 0.29148 0.0
8.25199 0.599748 0.0
22.8281 -0.648794 0.0
10.2446 -1.62232 0.0
34.2401 0.153949 0.0
4.20247 0.0765596 0.0
45.3482 2.27968 0.0
8.12663 -0.477528 0.0
3.85579 0.598819 0.0
15.6408 -1.17074 0.0
28.565 7.62483 0.0
7.76801 -0.878055 0.0
31.7066 0.339749 0.0
30.3044 2.23136 0.0
24.6055 4.31753 0.0
33.7374 0.204497 0.0
27.7038 2.25606 0.0
16.9084 -2.30235 0.0
34.5622 -9.00181 0.0
32.1266 -3.71175 0.0
27.7566 1.70602 0.0
6.71879 -0.541713 0.0
7.16624 0.564593 0.0
47.9553 -0.12667 0.0
3.76032 0.353427 0.0
36.4523 -0.636115 0.0
17.788 6.30575 0.0
33.8832 0.197095 0.0
3.81978 0.426124 0.0
4.33562 -0.636189 0.0
30.4518 1.62391 0.0
28.5445 9.01414 0.0
23.4194 -0.149781 0.0
32.614 -0.880705 0.0
28.828 0.0516234 0.0
28.5502 -0.836236 0.0
13.8937 -7.96227 0.0
29.5671 -0.0958936 0.0
25.9647 3.21111 0.0
4.15391 -0.286843 0.0
27.7918 1.25803 0.0
23.1537 5.90186 0.0
13.7076 -0.6024 0.0
33.4575 0.412773 0.0
4.45611 -0.324416 0.0
4.91991 0.330442 0.0
25.7966 4.06669 0.0
30.5416 -0.124482 0.0
28.8443 -0.987329 0.0
16.3458 -0.128657 0.0
30.5168 1.5335 0.0
34.3506 0.16581 0.0
29.5798 -4.46793 0.0
4.25286 1.38649 0.0
31.608 0.611589 0.0
31.7771 -4.20163 0.0
26.172 1.94329 0.0
26.5951 4.24323 0.0
8.38088 -2.36683 0.0
32.2839 -12.013 0.0
5.03934 -4.50721 0.0
27.4398 -13.7023 0.0
31.0557 -1.09051 0.0
31.5335 4.64471 0.0
31.0665 1.9041 0.0
4.42111 -1.22331 0.0
27.8323 0.922132 0.0
28.468 2.59416 0.0
26.2007 1.48033 0.0
35.1898 0.0954433 0.0
26.112 2.50902 0.0
30.5718 0.805167 0.0
27.5189 -0.662397 0.0
25.9167 -3.47407 0.0
8.73998 -3.42248 0.0
46.7084 -0.73025 0.0
12.9682 -0.115612 0.0
23.5979 -4.88306 0.0
6.9267 -5.98505 0.0
38.8426 8.06158 0.0
34.5565 0.123697 0.0
2.99007 -0.236087 0.0
3.06587 0.243817 0.0
30.5592 0.581529 0.0
44.7844 0.789212 0.0
27.9161 0.691504 0.0
21.4093 5.9838 0.0
4.70877 -0.216385 0.0
7.76452 -0.322841 0.0
6.00975 0.675986 0.0
2.69977 1.84041 0.0
5.72394 -3.23044 0.0
30.5649 -5.50971 0.0
35.332 0.08024 0.0
42.5169 5.89476 0.0
0.877871 0.965854 0.0
25.136 -0.0540912 0.0
26.8766 -0.053167 0.0
25.8217 -3.938 0.0
21.0614 6.17919 0.0
1.00606 -0.914783 0.0
2.94457 -1.66097 0.0
22.7706 0.360773 0.0
21.6672 0.806323 0.0
26.2845 1.10669 0.0
18.097 -2.87063 0.0
30.5292 -0.0718366 0.0
49.7501 -0.254048 0.0
31.6485 -0.0663076 0.0
24.4394 4.86511 0.0
34.1301 0.104837 0.0
3.99119 -0.23757 0.0
29.1213 7.60273 0.0
33.8681 0.369334 0.0
31.798 0.302881 0.0
33.514 -0.0323534 0.0
28.8509 -2.44831 0.0
3.83129 0.165281 0.0
33.9624 -0.261634 0.0
5.45117 -0.839682 0.0
13.3397 1.42018 0.0
21.7628 -0.442373 0.0
28.0012 0.552261 0.0
26.3495 0.826102 0.0
32.354 1.19665 0.0
33.3002 0.95624 0.0
32.4246 1.40306 0.0
3.73529 0.246419 0.0
7.17216 0.433533 0.0
6.12244 -0.551937 0.0
34.4273 0.0406939 0.0
30.7441 0.368986 0.0
46.6926 0.528563 0.0
5.31878 0.966213 0.0
31.0597 0.0593232 0.0
29.4065 2.9415 0.0
10.5136 6.4932 0.0
31.2775 -0.0541432 0.0
2.48684 0.564254 0.0
30.0637 -0.0895668 0.0
29.5302 -0.907076 0.0
30.1546 -0.584527 0.0
22.5865 -0.244125 0.0
20.7914 -0.23326 0.0
29.7005 -0.131729 0.0
6.98852 -0.723766 0.0
48.4017 -1.17901 0.0
33.9397 -0.254458 0.0
32.4133 -0.148607 0.0
31.9457 0.296996 0.0
28.1458 0.472328 0.0
15.4544 -0.00779818 0.0
30.877 0.344376 0.0
33.6299 -2.58305 0.0
34.1815 0.0522282 0.0
7.63704 0.317573 0.0
27.1542 4.0713 0.0
2.649 -0.518703 0.0
34.3478 0.444472 0.0
34.7113 0.223775 0.0
28.3293 0.43421 0.0
1.81752 0.785547 0.0
31.8873 -10.9854 0.0
34.5969 0.0792643 0.0
33.1019 1.07941 0.0
30.9175 -0.0933919 0.0
32.1492 -0.371642 0.0
32.1393 0.294479 0.0
34.3532 0.0389084 0.0
34.2247 0.186956 0.0
34.4657 0.156391 0.0
28.5953 0.42234 0.0
3.35096 0.294522 0.0
11.6452 0.89718 0.0
33.2704 -0.712915 0.0
23.6842 8.98214 0.0
1.95241 -0.72607 0.0
6.64097 -0.362351 0.0
26.9527 -12.3558 0.0
29.3321 2.77662 0.0
31.0842 0.341284 0.0
12.4886 -0.692145 0.0
32.2189 -0.177902 0.0
33.0188 -0.144223 0.0
20.1239 7.05569 0.0
6.43168 0.493315 0.0
3.11258 -0.349507 0.0
33.0065 -3.13863 0.0
24.444 4.20168 0.0
29.9626 -2.41117 0.0
34.5893 0.33083 0.0
11.5645 -1.64168 0.0
31.3195 0.324567 0.0
26.4441 0.654752 0.0
34.19 -0.0514208 0.0
2.9637 0.400364 0.0
32.3577 0.265404 0.0
34.1962 0.00157788 0.0
3.70114 -0.156356 0.0
28.9117 0.39497 0.0
34.0273 0.160588 0.0
34.8856 0.438648 0.0
32.7928 0.111649 0.0
32.8309 -0.195762 0.0
34.5949 0.0323829 0.0
28.5182 -0.79228 0.0
32.8295 -0.0743713 0.0
32.6102 0.194695 0.0
32.0655 0.0714675 0.0
32.0258 -0.222633 0.0
3.44869 -0.230012 0.0
32.9122 0.258634 0.0
31.8512 -0.253764 0.0
4.64056 0.215184 0.0
34.5672 -0.0184874 0.0
7.35615 0.417544 0.0
31.5973 0.257053 0.0
32.6675 -0.234698 0.0
34.9085 0.317615 0.0
33.5914 -0.0494109 0.0
32.9194 0.0444466 0.0
34.6325 0.20803 0.0
15.2817 0.182825 0.0
29.7243 0.160815 0.0
27.6591 1.33405 0.0
29.1713 0.295522 0.0
3.35538 -0.0467583 0.0
33.8838 0.0638535 0.0
31.8691 0.154157 0.0
25.8058 -4.42611 0.0
3.60543 -0.26532 0.0
26.7869 0.486936 0.0
3.52445 0.189935 0.0
24.1864 -4.12308 0.0
28.8349 1.53339 0.0
27.05 0.459221 0.0
30.6123 -0.144129 0.0
31.6885 -0.263974 0.0
27.4201 0.445619 0.0
33.0619 -0.0644056 0.0
37.3931 9.52943 0.0
24.268 -4.98741 0.0
32.2035 -0.06562 0.0
34.7262 0.476135 0.0
34.5712 0.491942 0.0
34.8491 0.2918 0.0
32.5192 -0.25565 0.0
35.0709 0.344416 0.0
27.9693 -0.12977 0.0
35.0409 0.352163 0.0
31.3488 -0.15911 0.0
29.9604 0.066373 0.0
14.3572 0.321573 0.0
33.1337 -0.109149 0.0
35.0368 0.310414 0.0
25.7859 -0.638988 0.0
34.7719 0.412589 0.0
32.3832 -0.250957 0.0
31.5401 -0.243129 0.0
3.58336 0.220708 0.0
32.2047 0.0093264 0.0
26.5972 0.551931 0.0
35.2118 0.317044 0.0
24.2487 -0.327597 0.0
7.95857 0.214857 0.0
30.1828 -0.00238731 0.0
34.8036 0.314479 0.0
28.1432 0.224929 0.0
27.4513 -0.133571 0.0
31.4051 -0.185213 0.0
34.8025 0.185255 0.0
32.2631 -0.213865 0.0
28.625 0.109502 0.0
18.0519 5.15122 0.0
34.5291 -0.0737171 0.0
35.1957 0.275973 0.0
33.749 0.809822 0.0
14.0364 -0.0758791 0.0
32.3082 -0.044922 0.0
26.2805 -0.151827 0.0
4.20395 0.127809 0.0
7.39813 0.254918 0.0
32.1472 -0.147249 0.0
34.1342 0.235946 0.0
29.8998 -0.26575 0.0
31.267 -0.103356 0.0
35.0861 0.24701 0.0
30.3483 -0.192243 0.0
30.3631 -0.0589799 0.0
31.0883 -0.0202742 0.0
26.7291 -0.18742 0.0
29.3942 -0.176333 0.0
35.318 0.236291 0.0
27.0516 -0.15618 0.0
34.491 0.143289 0.0
29.6804 -0.27886 0.0
30.8244 -0.226986 0.0
29.1259 -0.218843 0.0
26.4175 -0.223616 0.0
34.1907 0.19079 0.0
32.0113 -0.0684354 0.0
5.15735 0.143347 0.0
8.09506 0.208433 0.0
35.0801 0.106206 0.0
34.7436 0.0409056 0.0
27.6613 0.399452 0.0
28.9129 0.00413563 0.0
29.1426 -0.0376767 0.0
34.9695 0.4167 0.0
30.832 0.0432675 0.0
33.9156 0.720758 0.0
33.0042 -0.0111652 0.0
26.1261 -0.259254 0.0
28.4065 -0.282837 0.0
28.8939 0.0251023 0.0
31.8256 0.00139262 0.0
35.3014 0.179629 0.0
34.1759 -0.105815 0.0
28.8839 -0.25571 0.0
29.6613 8.56253 0.0
25.0245 -0.205706 0.0
28.6446 -0.281556 0.0
25.8608 -0.290837 0.0
31.6729 1.461 0.0
30.509 0.0673187 0.0
31.578 0.0418449 0.0
29.4909 -0.256484 0.0
25.3724 -0.175246 0.0
27.8169 -0.0303769 0.0
34.6885 0.254716 0.0
25.5704 -0.29897 0.0
28.2048 -0.231486 0.0
30.1902 0.0417852 0.0
16.1332 0.13726 0.0
33.5208 0.0807925 0.0
25.2453 -0.237616 0.0
13.99 0.0930433 0.0
24.7064 -0.239837 0.0
31.3022 0.0383756 0.0
25.0722 -0.119602 0.0
28.0142 -0.136788 0.0
25.756 -0.157708 0.0
3.69843 -0.0509577 0.0
6.97195 -0.092749 0.0
16.105 0.206112 0.0
29.9881 -0.237153 0.0
29.1412 -0.0916349 0.0
29.9328 -0.0136395 0.0
31.0531 -0.0043467 0.0
24.8249 -0.00188524 0.0
7.84376 0.0910135 0.0
34.8427 0.193232 0.0
7.18459 -0.102664 0.0
35.3614 0.0981849 0.0
29.7692 -0.0680246 0.0
24.4044 -0.275009 0.0
28.5684 0.0780263 0.0
24.0398 -0.305068 0.0
35.3242 0.0151415 0.0
28.1236 0.11142 0.0
3.8367 -0.0533096 0.0
7.07997 -0.103137 0.0
29.3183 -0.18746 0.0
4.10521 0.0563253 0.0
30.8694 -0.0640256 0.0
23.7252 -0.280933 0.0
23.4677 -0.170528 0.0
27.5119 0.0595783 0.0
30.5336 -0.136892 0.0
34.893 0.0231061 0.0
27.7131 0.0880951 0.0
27.3791 0.0268498 0.0
7.15175 -0.0891307 0.0
3.99174 -0.0530875 0.0
13.3337 0.168355 0.0
23.2368 -0.0387616 0.0
27.0293 0.120797 0.0
30.1147 -0.234078 0.0
26.5133 0.133063 0.0
31.5874 -0.0745502 0.0
13.6712 0.190601 0.0
26.0907 0.0788618 0.0
30.7931 -0.107355 0.0
27.1439 -0.0222408 0.0
7.15857 0.0978071 0.0
3.61041 -0.0359574 0.0
3.03606 -0.0521601 0.0
3.8924 -0.0477882 0.0
7.07978 -0.029566 0.0
7.52864 0.11053 0.0
3.2931 -0.0136048 0.0
3.72663 -0.000137457 0.0
6.93275 -0.087873 0.0
3.6182 -0.0327295 0.0
3.91349 -0.028982 0.0
4.13242 0.0883165 0.0
7.70356 -0.0906733 0.0
4.0265 0.0531548 0.0
6.84982 -0.0633893 0.0
3.85863 0.052254 0.0
7.28116 -0.0489478 0.0
7.05457 -0.0671261 0.0
3.76519 0.108555 0.0
7.79831 0.129826 0.0
6.92456 -0.0720625 0.0
6.78823 -0.0805937 0.0
3.85468 0.177237 0.0
6.56078 -0.0458487 0.0
7.0418 0.130985 0.0
3.5425 -0.0363422 0.0
6.85716 -0.0428197 0.0
4.0331 -0.000953801 0.0
3.57345 0.0610241 0.0
6.65361 -0.104965 0.0
3.86432 0.132283 0.0
4.64602 0.0697241 0.0
3.87782 0.223951 0.0
3.27413 0.0539933 0.0
3.52722 -0.010045 0.0
6.9263 0.01836 0.0
3.72223 -0.0502961 0.0
3.82237 -0.0529572 0.0
3.9521 0.148235 0.0
3.98008 0.153465 0.0
3.86876 -0.0190242 0.0
3.82144 0.0379185 0.0
3.24994 -0.0523272 0.0
3.67358 -0.0308049 0.0
4.55211 -0.00769898 0.0
7.74516 -0.0212725 0.0
3.92537 -0.114448 0.0
4.68169 0.048296 0.0
6.57394 0.109768 0.0
6.47316 -0.114986 0.0
3.63318 -0.0448211 0.0
3.99715 0.144919 0.0
3.66871 0.0298292 0.0
7.23569 -0.0157704 0.0
3.48936 0.0715024 0.0
3.86545 0.0528287 0.0
3.6092 -0.0476153 0.0
7.30838 0.292754 0.0
4.45209 -0.059542 0.0
3.16586 0.00743818 0.0
3.60196 0.0059549 0.0
3.0737 0.0327018 0.0
3.95548 0.0533542 0.0
4.00205 -0.0184281 0.0
6.04504 -0.0486909 0.0
2.73986 -0.0183067 0.0
7.13225 0.269429 0.0
7.36961 0.091357 0.0
30.2735 -0.125333 0.0
29.7561 -0.0829697 0.0
33.1026 -0.116705 0.0
25.775 0.0163199 0.0
34.9827 -0.210778 0.0
35.0052 -0.0402337 0.0
25.4855 -0.000372249 0.0
35.0489 -0.211807 0.0
35.2468 -0.144688 0.0
35.1131 -0.214815 0.0
35.3168 -0.0634792 0.0
27.0577 -0.0133202 0.0
29.894 -0.0703843 0.0
35.1956 -0.17681 0.0
29.0167 -0.114975 0.0
34.8851 -0.167819 0.0
30.8627 -0.113326 0.0
34.8134 -0.14466 0.0
32.6613 -0.164574 0.0
33.285 -0.190439 0.0
22.1885 0.0657592 0.0
34.7454 -0.223712 0.0
34.5254 -0.0918936 0.0
33.3994 -0.162869 0.0
34.8632 -0.159842 0.0
24.8404 -0.0872664 0.0
32.3838 -0.097443 0.0
29.9605 -0.104291 0.0
34.4659 -0.205093 0.0