# vtk DataFile Version 3.0
Malha 2D com triângulos e temperatura
ASCII
DATASET UNSTRUCTURED_GRID

POINTS 1194 double
0 0 0
5 0 0
5 1 0
0 1 0
0.85 0.5 0
0.842388 0.538268 0
0.820711 0.570711 0
0.788268 0.592388 0
0.75 0.6 0
0.711732 0.592388 0
0.679289 0.570711 0
0.657612 0.538268 0
0.65 0.5 0
0.657612 0.461732 0
0.679289 0.429289 0
0.711732 0.407612 0
0.75 0.4 0
0.788268 0.407612 0
0.820711 0.429289 0
0.842388 0.461732 0
0.0793651 0 0
0.15873 0 0
0.238095 0 0
0.31746 0 0
0.396825 0 0
0.47619 0 0
0.555556 0 0
0.634921 0 0
0.714286 0 0
0.793651 0 0
0.873016 0 0
0.952381 0 0
1.03175 0 0
1.11111 0 0
1.19048 0 0
1.26984 0 0
1.34921 0 0
1.42857 0 0
1.50794 0 0
1.5873 0 0
1.66667 0 0
1.74603 0 0
1.8254 0 0
1.90476 0 0
1.98413 0 0
2.06349 0 0
2.14286 0 0
2.22222 0 0
2.30159 0 0
2.38095 0 0
2.46032 0 0
2.53968 0 0
2.61905 0 0
2.69841 0 0
2.77778 0 0
2.85714 0 0
2.93651 0 0
3.01587 0 0
3.09524 0 0
3.1746 0 0
3.25397 0 0
3.33333 0 0
3.4127 0 0
3.49206 0 0
3.57143 0 0
3.65079 0 0
3.73016 0 0
3.80952 0 0
3.88889 0 0
3.96825 0 0
4.04762 0 0
4.12698 0 0
4.20635 0 0
4.28571 0 0
4.36508 0 0
4.44444 0 0
4.52381 0 0
4.60317 0 0
4.68254 0 0
4.7619 0 0
4.84127 0 0
4.92063 0 0
5 0.0769231 0
5 0.153846 0
5 0.230769 0
5 0.307692 0
5 0.384615 0
5 0.461538 0
5 0.538462 0
5 0.615385 0
5 0.692308 0
5 0.769231 0
5 0.846154 0
5 0.923077 0
4.92063 1 0
4.84127 1 0
4.7619 1 0
4.68254 1 0
4.60317 1 0
4.52381 1 0
4.44444 1 0
4.36508 1 0
4.28571 1 0
4.20635 1 0
4.12698 1 0
4.04762 1 0
3.96825 1 0
3.88889 1 0
3.80952 1 0
3.73016 1 0
3.65079 1 0
3.57143 1 0
3.49206 1 0
3.4127 1 0
3.33333 1 0
3.25397 1 0
3.1746 1 0
3.09524 1 0
3.01587 1 0
2.93651 1 0
2.85714 1 0
2.77778 1 0
2.69841 1 0
2.61905 1 0
2.53968 1 0
2.46032 1 0
2.38095 1 0
2.30159 1 0
2.22222 1 0
2.14286 1 0
2.06349 1 0
1.98413 1 0
1.90476 1 0
1.8254 1 0
1.74603 1 0
1.66667 1 0
1.5873 1 0
1.50794 1 0
1.42857 1 0
1.34921 1 0
1.26984 1 0
1.19048 1 0
1.11111 1 0
1.03175 1 0
0.952381 1 0
0.873016 1 0
0.793651 1 0
0.714286 1 0
0.634921 1 0
0.555556 1 0
0.47619 1 0
0.396825 1 0
0.31746 1 0
0.238095 1 0
0.15873 1 0
0.0793651 1 0
0 0.923077 0
0 0.846154 0
0 0.769231 0
0 0.692308 0
0 0.615385 0
0 0.538462 0
0 0.461538 0
0 0.384615 0
0 0.307692 0
0 0.230769 0
0 0.153846 0
0 0.0769231 0
0.879698 0.466718 0
1.3085 0.931947 0
1.30532 0.0638546 0
4.93832 0.504275 0
0.620452 0.46964 0
3.99858 0.0669607 0
1.63721 0.934258 0
3.3751 0.0523709 0
4.3254 0.0687322 0
2.42354 0.0642082 0
2.97619 0.0687322 0
2.02101 0.0693621 0
3.68108 0.0581336 0
2.65899 0.932655 0
4.178 0.939994 0
3.21614 0.938179 0
2.25483 0.919987 0
3.53215 0.928998 0
3.84921 0.931268 0
1.69647 0.0674297 0
1.94349 0.930209 0
4.48413 0.931268 0
2.97813 0.942022 0
2.74097 0.0673855 0
0.859645 0.573263 0
0.639718 0.573116 0
0.0651563 0.652836 0
0.0635304 0.346121 0
4.56232 0.0679683 0
0.830393 0.392645 0
0.669618 0.39275 0
1.06185 0.0668897 0
0.440193 0.0680031 0
1.06474 0.93511 0
0.446074 0.935974 0
0.724697 0.630698 0
4.72268 0.931235 0
4.93065 0.267192 0
0.589836 0.936152 0
0.92338 0.0562425 0
0.590207 0.0623339 0
0.755872 0.0732784 0
0.838039 0.936714 0
4.92573 0.732039 0
0.281717 0.93783 0
0.28208 0.0811877 0
0.065248 0.503161 0
1.46076 0.0637037 0
4.72574 0.0661877 0
4.31028 0.937908 0
3.21429 0.0687322 0
1.46639 0.932632 0
3.6897 0.928155 0
2.42063 0.931268 0
3.5364 0.0691789 0
2.25998 0.0676208 0
1.78735 0.937047 0
4.01535 0.920637 0
1.85469 0.0674188 0
3.83991 0.0626292 0
3.37477 0.929368 0
2.58225 0.0657863 0
2.81746 0.932342 0
4.16667 0.0687322 0
2.11402 0.935574 0
0.0614266 0.197046 0
0.0612841 0.803003 0
4.88273 0.0644126 0
4.87774 0.933272 0
0.859645 0.426737 0
0.903081 0.436592 0
0.923672 0.473385 0
0.948706 0.439078 0
0.969155 0.479795 0
0.996593 0.439791 0
1.0202 0.484937 0
1.04667 0.440138 0
1.07382 0.489694 0
1.1034 0.440801 0
1.13169 0.49612 0
1.16603 0.445058 0
1.1931 0.504331 0
1.22956 0.450883 0
1.25923 0.506004 0
1.29683 0.453139 0
1.32923 0.510343 0
1.36603 0.454344 0
1.03276 0.530395 0
1.40063 0.516169 0
1.43576 0.454934 0
1.47042 0.520776 0
1.51069 0.46142 0
1.54422 0.526371 0
1.58547 0.465572 0
1.61942 0.531773 0
1.66033 0.468788 0
1.69546 0.536793 0
1.73713 0.472812 0
1.77239 0.541977 0
1.81532 0.478494 0
1.85006 0.547285 0
1.89327 0.483449 0
1.92802 0.55361 0
1.97142 0.488546 0
2.00623 0.558966 0
2.04984 0.493518 0
2.08483 0.564085 0
2.12847 0.498462 0
2.16353 0.569137 0
2.20719 0.503331 0
0.961579 0.391697 0
1.22451 0.565337 0
2.24238 0.574192 0
2.28611 0.508258 0
2.32134 0.579247 0
2.36519 0.513325 0
2.40036 0.584295 0
2.44425 0.51834 0
2.47944 0.589336 0
2.52334 0.523355 0
2.55853 0.594372 0
2.60245 0.52837 0
2.63764 0.599431 0
2.68159 0.533388 0
2.64637 0.462336 0
2.72553 0.467349 0
2.76076 0.538418 0
2.8047 0.47237 0
2.83993 0.543451 0
2.88387 0.477399 0
2.91911 0.548482 0
2.96305 0.482427 0
2.9983 0.553514 0
3.04224 0.487456 0
3.07749 0.558545 0
3.12143 0.492477 0
3.15668 0.563574 0
3.20063 0.497514 0
3.23588 0.568605 0
3.27983 0.502542 0
3.31508 0.573635 0
3.35903 0.507562 0
3.39428 0.578663 0
3.43823 0.5126 0
3.47348 0.583694 0
3.51744 0.517628 0
3.55268 0.588724 0
3.59664 0.522646 0
3.63189 0.593752 0
3.67585 0.527673 0
3.71109 0.598781 0
3.75505 0.532702 0
3.7903 0.60381 0
3.83426 0.537731 0
3.79901 0.466623 0
3.87821 0.471754 0
3.91346 0.542777 0
3.95742 0.476701 0
3.99267 0.547795 0
4.03662 0.481715 0
4.07187 0.552815 0
4.11582 0.486743 0
4.15106 0.55783 0
4.195 0.491782 0
4.23023 0.562843 0
4.27415 0.49682 0
4.30937 0.567866 0
4.35325 0.501915 0
4.38842 0.572845 0
4.43227 0.506997 0
4.46737 0.577575 0
4.51106 0.511995 0
4.54622 0.582183 0
1.13571 0.390292 0
4.47606 0.441361 0
4.55475 0.446396 0
2.32985 0.442214 0
3.5614 0.451571 0
3.08619 0.421408 0
2.09339 0.427815 0
1.42887 0.583001 0
2.84864 0.406329 0
3.32378 0.43649 0
4.23911 0.425894 0
1.54723 0.39251 0
1.77883 0.406811 0
1.33959 0.387065 0
3.92239 0.405803 0
4.08079 0.415776 0
2.48812 0.452349 0
1.57935 0.603183 0
1.93602 0.417543 0
1.72453 0.617973 0
3.11273 0.629643 0
2.69029 0.396284 0
3.94662 0.623383 0
1.88466 0.613248 0
2.79598 0.609502 0
4.10826 0.620575 0
2.04005 0.62838 0
2.95434 0.619575 0
4.51981 0.375801 0
4.59833 0.380943 0
4.63314 0.451296 0
4.26693 0.63114 0
2.19619 0.645921 0
4.4246 0.642296 0
3.27112 0.639707 0
2.35729 0.649822 0
2.51462 0.660373 0
3.42952 0.649769 0
4.67669 0.38601 0
3.58793 0.659829 0
3.74634 0.669888 0
4.64195 0.315733 0
4.44109 0.370647 0
4.48493 0.305066 0
4.40614 0.29989 0
4.71136 0.456133 0
4.72014 0.320758 0
0.8692 0.382093 0
0.841252 0.348256 0
0.886481 0.338703 0
0.853127 0.301457 0
0.902583 0.287335 0
0.801683 0.321689 0
0.818113 0.263019 0
0.764765 0.277091 0
4.44702 0.235678 0
0.946267 0.520761 0
0.78107 0.221265 0
0.726309 0.234724 0
0.848273 0.20551 0
4.68545 0.250576 0
4.37074 0.227561 0
4.76365 0.255792 0
4.79822 0.326145 0
0.713664 0.287231 0
0.672358 0.247957 0
0.68673 0.192342 0
0.630368 0.2085 0
0.616569 0.265341 0
0.574186 0.225456 0
0.557393 0.28131 0
0.52004 0.242373 0
0.504416 0.299685 0
0.462273 0.252096 0
0.44798 0.316739 0
0.404567 0.276951 0
0.390546 0.335414 0
0.434669 0.37657 0
0.377935 0.394545 0
0.421979 0.43426 0
0.365682 0.452846 0
0.409646 0.492216 0
0.353389 0.51089 0
0.397738 0.551598 0
0.339864 0.570301 0
0.385899 0.612153 0
0.325913 0.631557 0
0.344507 0.29318 0
0.320568 0.413067 0
0.373553 0.673852 0
0.434438 0.653082 0
0.311416 0.69481 0
0.449777 0.528305 0
0.293513 0.534612 0
0.421431 0.715204 0
0.480917 0.696603 0
0.54504 0.34471 0
0.262743 0.649913 0
0.246209 0.712341 0
0.468564 0.755948 0
0.526091 0.735423 0
0.538207 0.68039 0
0.581228 0.716342 0
0.408756 0.777952 0
0.36234 0.239019 0
0.297047 0.251925 0
0.572109 0.771575 0
0.624906 0.752173 0
0.474824 0.414151 0
0.534351 0.182707 0
0.633682 0.70159 0
0.674547 0.736174 0
0.66826 0.788959 0
0.721117 0.76834 0
0.714515 0.825486 0
0.769074 0.802008 0
0.775287 0.746591 0
0.821903 0.778625 0
0.826767 0.726064 0
0.873257 0.756032 0
0.872997 0.697261 0
0.92331 0.732304 0
0.930014 0.67838 0
0.976061 0.710612 0
0.92456 0.784469 0
0.982178 0.654421 0
1.03016 0.688004 0
1.02037 0.747059 0
1.08 0.723819 0
1.08651 0.661896 0
1.1397 0.698204 0
1.13262 0.763657 0
1.19424 0.736545 0
1.18556 0.80161 0
1.24839 0.771772 0
1.25723 0.706382 0
1.31432 0.745787 0
4.66801 0.521361 0
4.74602 0.526202 0
4.70285 0.591278 0
4.78076 0.596023 0
4.73763 0.661207 0
4.78904 0.460969 0
2.61113 0.391267 0
2.65506 0.325217 0
2.57588 0.320198 0
2.61982 0.254148 0
2.69899 0.259163 0
2.54065 0.249131 0
2.49672 0.315179 0
2.46148 0.244124 0
2.41757 0.310166 0
2.38233 0.239117 0
2.33843 0.30514 0
2.30297 0.237979 0
2.25928 0.300748 0
2.22079 0.221377 0
2.17969 0.293884 0
2.14114 0.224266 0
2.10047 0.289841 0
2.0653 0.219144 0
2.02202 0.284919 0
1.98701 0.214164 0
1.94336 0.279863 0
3.82315 0.673327 0
3.78135 0.738156 0
3.86451 0.735958 0
3.70234 0.735494 0
4.52513 0.244409 0
4.32717 0.294467 0
4.29217 0.221862 0
0.619934 0.539507 0
0.599432 0.577132 0
0.575955 0.542712 0
0.554504 0.58245 0
4.65962 0.656481 0
4.69438 0.726169 0
4.6161 0.721747 0
4.77259 0.731352 0
4.65076 0.791486 0
4.57153 0.788793 0
4.2482 0.289182 0
4.21307 0.218308 0
4.1691 0.284563 0
4.13394 0.21352 0
0.835918 0.606341 0
0.806475 0.6384 0
4.08995 0.279537 0
0.640355 0.426737 0
0.596214 0.435837 0
0.630358 0.379178 0
0.689967 0.627735 0
1.90832 0.209948 0
1.86468 0.27519 0
1.82968 0.20518 0
1.78607 0.269797 0
0.281841 0.313314 0
0.232117 0.268621 0
0.216861 0.334396 0
4.05473 0.209347 0
4.01077 0.2745 0
3.97554 0.204394 0
3.93159 0.269388 0
0.297409 0.759367 0
0.231645 0.782943 0
0.180008 0.73598 0
1.32151 0.676369 0
1.38055 0.718092 0
1.36901 0.793947 0
1.43945 0.766002 0
0.249902 0.198865 0
0.932364 0.624392 0
1.75117 0.201034 0
1.70771 0.264658 0
1.673 0.195402 0
1.62985 0.260294 0
1.59532 0.191927 0
1.55236 0.254233 0
3.89629 0.200227 0
3.85238 0.264494 0
3.81708 0.195303 0
3.77304 0.259453 0
2.66368 0.189084 0
2.74279 0.19534 0
2.77814 0.264556 0
2.82201 0.199823 0
2.85733 0.269552 0
2.90126 0.203886 0
2.93654 0.274416 0
2.98045 0.20868 0
3.01573 0.279376 0
3.0597 0.213193 0
[...]
CELL_DATA 2220
VECTORS velocity double
41.163 -1.86084 0.0
29.7505 0.787752 0.0
32.4822 0.673189 0.0
25.1226 2.56264 0.0
41.7787 -2.06788 0.0
56.2292 -1.5465 0.0
25.0966 0.750512 0.0
27.9357 -0.0655166 0.0
43.1323 2.86403 0.0
55.1236 -1.19541 0.0
25.3321 0.435769 0.0
26.6241 0.369241 0.0
21.0973 0.276926 0.0
37.9865 -2.48982 0.0
27.8861 -0.351107 0.0
38.9387 3.22791 0.0
28.1403 1.73031 0.0
22.9449 1.12596 0.0
26.0745 -0.243187 0.0
28.2616 -0.223774 0.0
27.1771 0.438981 0.0
34.3059 3.98789 0.0
26.6354 1.34549 0.0
27.6492 0.884964 0.0
55.1141 -0.62912 0.0
35.5138 -2.34063 0.0
24.8823 1.28357 0.0
23.7178 0.85851 0.0
24.6777 2.42196 0.0
27.1941 1.78528 0.0
47.5297 -1.39781 0.0
33.8483 3.35674 0.0
19.2275 -0.208132 0.0
34.9273 1.38713 0.0
41.5899 -4.03594 0.0
56.5046 -1.64417 0.0
40.3642 -4.40881 0.0
22.7095 -0.227399 0.0
28.9096 2.78282 0.0
30.3895 2.23223 0.0
15.1049 0.719362 0.0
43.5081 3.11188 0.0
21.1925 2.20421 0.0
25.115 -0.0845481 0.0
23.0872 -0.109721 0.0
20.292 -0.0752494 0.0
26.3536 1.11659 0.0
20.7828 -0.042792 0.0
54.5947 -1.07983 0.0
60.2534 0.419867 0.0
22.1526 0.625629 0.0
20.844 0.141442 0.0
26.2767 0.953022 0.0
26.567 0.158032 0.0
23.5424 1.34345 0.0
30.8152 2.02121 0.0
36.1519 3.5236 0.0
22.2841 0.843285 0.0
22.6357 0.954099 0.0
61.0251 0.260344 0.0
-0.437496 -10.7238 0.0
56.5053 -1.07201 0.0
49.1425 -2.03075 0.0
26.8768 0.959308 0.0
26.7232 0.99571 0.0
38.4958 1.35242 0.0
19.6355 -2.00982 0.0
42.0397 3.39904 0.0
22.5985 0.951379 0.0
22.9362 0.899115 0.0
26.3514 0.237372 0.0
36.1842 -1.81874 0.0
20.4613 0.231306 0.0
58.1721 0.98507 0.0
14.7773 0.43098 0.0
43.9514 2.99406 0.0
52.1755 2.32409 0.0
27.8984 -1.86211 0.0
45.4617 3.64699 0.0
24.7489 0.15144 0.0
26.1486 -1.14021 0.0
31.3053 -1.93706 0.0
14.4974 -0.308805 0.0
20.2916 0.140718 0.0
25.6022 0.720344 0.0
25.5403 0.355528 0.0
36.8164 -1.98387 0.0
21.2747 0.304345 0.0
21.638 0.571895 0.0
42.2844 2.35714 0.0
7.74868 0.527602 0.0
26.5649 1.9911 0.0
26.416 -0.297969 0.0
41.5421 3.33532 0.0
44.4616 3.17988 0.0
30.0247 -2.059 0.0
33.677 -4.17557 0.0
15.246 -1.06271 0.0
0.296119 -7.9564 0.0
34.2663 -0.774429 0.0
7.94331 -0.805861 0.0
34.2884 -2.31994 0.0
26.0741 0.931736 0.0
22.1645 1.28295 0.0
38.0979 4.28109 0.0
42.8413 3.47242 0.0
57.7607 -1.34669 0.0
60.1593 -1.1571 0.0
7.39138 -0.288305 0.0
26.5677 1.40693 0.0
30.8754 1.78287 0.0
39.9983 -1.98034 0.0
57.3507 -1.17153 0.0
11.0321 -1.02474 0.0
57.9974 -1.79653 0.0
22.1293 0.789226 0.0
37.6665 -2.57884 0.0
18.1378 -0.577291 0.0
7.80208 -0.0365384 0.0
41.5995 1.72198 0.0
27.8368 -1.88291 0.0
37.0051 -1.40252 0.0
20.4298 1.38842 0.0
27.2036 3.3606 0.0
43.7224 -4.0416 0.0
32.2855 -2.72507 0.0
40.5661 3.19183 0.0
23.2157 1.52886 0.0
42.2996 -2.90801 0.0
19.1281 1.64945 0.0
19.0918 4.15191 0.0
21.9572 -2.11856 0.0
13.1554 -1.39551 0.0
17.1581 21.8631 0.0
28.28 2.66414 0.0
12.391 19.6314 0.0
18.7405 -0.0253265 0.0
24.1869 -0.199947 0.0
33.8769 -2.80341 0.0
34.8084 3.5079 0.0
27.9771 -0.789263 0.0
24.811 -0.0746865 0.0
56.7302 -2.13371 0.0
44.7986 -4.50977 0.0
56.9123 0.990236 0.0
36.7064 2.95296 0.0
11.2171 1.07486 0.0
15.3832 -0.541341 0.0
57.4116 2.03585 0.0
59.301 -1.60196 0.0
22.1837 -0.414712 0.0
40.6188 1.7089 0.0
37.4468 -0.0423095 0.0
24.7455 3.04261 0.0
6.30772 12.6263 0.0
28.2916 0.412186 0.0
22.4184 -2.33328 0.0
29.5657 0.640545 0.0
10.5552 -1.05073 0.0
23.5149 -1.36172 0.0
22.9292 -3.20624 0.0
22.1476 -0.0139384 0.0
10.5846 -1.05667 0.0
33.8533 -3.2954 0.0
20.2232 0.135169 0.0
33.166 2.17966 0.0
35.0106 -1.85679 0.0
41.9948 -1.30033 0.0
28.1059 0.3164 0.0
13.2576 -2.07084 0.0
11.9393 1.38969 0.0
19.8274 0.0290879 0.0
25.9983 0.110838 0.0
18.1234 -1.5932 0.0
30.5348 -1.36191 0.0
46.9702 3.70827 0.0
50.142 2.12219 0.0
46.6641 3.44922 0.0
12.5557 -0.694312 0.0
27.7751 0.0228833 0.0
36.2969 -0.541441 0.0
23.321 -0.890278 0.0
7.73385 1.2316 0.0
20.3271 2.04617 0.0
28.5183 -0.0461836 0.0
52.989 -0.960918 0.0
38.9367 0.0959751 0.0
22.0883 -1.03559 0.0
35.4755 -4.05035 0.0
41.818 -0.480581 0.0
12.6737 -1.27892 0.0
22.2226 -0.323158 0.0
42.2149 -2.48819 0.0
57.9732 1.78702 0.0
23.103 -2.20704 0.0
38.8317 0.87248 0.0
38.4565 1.71168 0.0
24.786 -1.55429 0.0
6.52534 -0.583242 0.0
26.3704 -0.614179 0.0
24.4349 -22.8867 0.0
34.4005 -2.78832 0.0
36.0215 2.97496 0.0
26.8377 -0.183286 0.0
15.3133 -0.597948 0.0
34.1725 -2.3016 0.0
28.0147 0.146092 0.0
24.4191 0.0141346 0.0
37.1164 3.63024 0.0
12.8657 -0.828419 0.0
26.3936 0.920918 0.0
13.4811 -0.542048 0.0
37.681 -0.341881 0.0
43.8117 3.48741 0.0
51.9999 2.92504 0.0
24.9019 5.34207 0.0
22.2364 0.845118 0.0
26.4096 1.10635 0.0
12.4453 0.306422 0.0
15.2853 -0.203566 0.0
56.7671 0.675812 0.0
11.9903 -0.591004 0.0
22.0721 1.00969 0.0
11.5665 -0.273894 0.0
26.5569 -0.148933 0.0
30.0727 -3.21921 0.0
23.3699 -1.54477 0.0
23.5686 -1.04402 0.0
33.5501 0.120525 0.0
11.9921 1.17055 0.0
31.636 3.34945 0.0
35.7957 -1.54006 0.0
17.6185 -0.254629 0.0
26.7318 -0.684516 0.0
12.267 -1.08976 0.0
44.3034 -0.0386173 0.0
28.1625 -1.76743 0.0
26.1805 -0.339 0.0
25.9921 -0.36991 0.0
22.6513 -0.375437 0.0
45.0486 -4.273 0.0
34.6553 -3.7522 0.0
41.6247 4.57139 0.0
13.086 -0.0273788 0.0
16.1211 15.949 0.0
59.2674 -0.0318315 0.0
28.0886 -0.931538 0.0
33.4725 -1.348 0.0
3.74245 15.2865 0.0
21.8508 2.24627 0.0
13.9834 -17.9805 0.0
13.0901 -0.110465 0.0
35.4144 -2.36322 0.0
54.5254 -0.341189 0.0
49.326 -3.12594 0.0
25.6063 0.501173 0.0
12.8268 0.178767 0.0
57.4775 0.262151 0.0
23.3458 2.13891 0.0
44.3609 1.51164 0.0
29.4889 -0.460225 0.0
38.274 -0.98525 0.0
11.7382 1.17442 0.0
27.4148 -1.44926 0.0
12.5693 -0.576662 0.0
8.08832 -0.0972994 0.0
22.6202 -2.44886 0.0
35.5114 -1.43883 0.0
25.6366 1.30381 0.0
59.956 -0.1269 0.0
51.6956 1.26329 0.0
53.2473 -0.0647976 0.0
21.4508 0.403148 0.0
53.9338 -1.96284 0.0
22.8749 -2.07135 0.0
42.7519 4.58969 0.0
14.3472 1.98995 0.0
42.0321 -0.862978 0.0
22.2924 1.68792 0.0
13.7896 0.133603 0.0
25.593 -2.06823 0.0
26.8963 -2.4609 0.0
44.1108 4.40048 0.0
36.1817 1.92739 0.0
53.6409 -1.84742 0.0
32.633 -2.03253 0.0
36.9492 -3.82548 0.0
35.2747 1.46834 0.0
22.3956 -0.285993 0.0
21.6154 -0.300681 0.0
12.7399 -0.3189 0.0
24.4206 -1.1801 0.0
13.0236 0.978332 0.0
24.9673 -21.8455 0.0
28.4889 -1.51111 0.0
34.5508 -0.353035 0.0
35.0441 -0.322465 0.0
21.9184 0.540458 0.0
42.6541 4.54255 0.0
53.034 3.04104 0.0
17.8659 -2.47834 0.0
48.0933 3.78672 0.0
36.8655 -1.74778 0.0
7.61914 0.0874719 0.0
38.1585 -3.00811 0.0
26.7761 1.85684 0.0
20.6055 -0.452404 0.0
21.9189 -0.328039 0.0
16.5534 0.422903 0.0
12.2353 0.913232 0.0
14.1759 -0.0525018 0.0
18.6306 26.6231 0.0
14.9402 1.0574 0.0
43.8109 4.61181 0.0
33.8191 -2.42014 0.0
25.519 -0.325632 0.0
48.5688 3.18632 0.0
12.7132 1.09993 0.0
44.8774 -2.4967 0.0
52.0302 3.40268 0.0
15.2538 -2.12992 0.0
19.5245 0.995434 0.0
56.2608 0.322415 0.0
12.907 -1.01828 0.0
10.9834 30.0392 0.0
13.2849 -0.101269 0.0
53.2887 0.0177518 0.0
53.5006 1.32949 0.0
58.0242 0.642814 0.0
12.9908 -0.452095 0.0
41.156 -3.28935 0.0
44.5777 -4.89691 0.0
44.001 -1.51061 0.0
11.596 -1.0894 0.0
40.8956 0.180388 0.0
45.0527 -3.71942 0.0
25.9497 -2.6613 0.0
46.6582 3.7813 0.0
37.0234 -2.19626 0.0
25.8215 -0.363127 0.0
8.81438 -0.205812 0.0
22.6876 -0.373106 0.0
7.31466 0.532536 0.0
7.39316 0.0666982 0.0
15.4393 -1.74382 0.0
44.9011 3.51571 0.0
10.3917 7.66953 0.0
48.3362 3.73232 0.0
53.9244 2.8684 0.0
7.16364 -0.297882 0.0
41.1877 1.71748 0.0
5.97192 0.167299 0.0
7.2397 -0.473886 0.0
35.9997 2.98709 0.0
11.9164 0.811922 0.0
44.521 -1.78577 0.0
40.5834 2.02849 0.0
6.92635 -0.342798 0.0
53.4486 0.988666 0.0
32.4172 -3.39714 0.0
51.2128 2.99993 0.0
15.1883 0.591386 0.0
32.0568 1.86543 0.0
49.8672 3.41572 0.0
6.45595 0.622391 0.0
60.7105 0.628525 0.0
36.9709 -4.54686 0.0
6.87464 -0.415011 0.0
6.76273 -0.590458 0.0
38.5549 -1.91517 0.0
7.07794 0.462449 0.0
35.4843 3.90573 0.0
39.6282 -2.04457 0.0
28.696 -0.936118 0.0
11.3911 -0.0956314 0.0
13.3236 0.539612 0.0
36.8353 0.647726 0.0
37.2619 0.137136 0.0
44.5498 -0.908813 0.0
34.7292 -0.210387 0.0
14.2363 -0.92188 0.0
44.3933 3.73136 0.0
44.9552 -3.24979 0.0
57.778 0.417502 0.0
43.5906 3.70705 0.0
52.9984 -0.28312 0.0
42.0175 4.19203 0.0
56.1039 0.247489 0.0
34.7267 -1.95462 0.0
52.5536 2.5668 0.0
10.9766 1.05997 0.0
50.1805 -0.0311519 0.0
31.1581 -0.986277 0.0
48.2473 -2.73591 0.0
9.44732 -0.980479 0.0
22.8879 -1.47267 0.0
44.3299 0.675959 0.0
9.08018 0.8029 0.0
55.997 0.235615 0.0
44.1775 2.71014 0.0
7.41793 0.288232 0.0
30.2286 -0.947881 0.0
48.9674 3.22093 0.0
57.0818 0.144287 0.0
37.4611 -4.32025 0.0
42.1061 -4.75906 0.0
5.98103 6.65331 0.0
12.0725 0.858223 0.0
24.1028 -1.73893 0.0
40.7173 -1.45986 0.0
31.1242 -2.4134 0.0
7.11797 0.0105225 0.0
43.2338 4.25057 0.0
51.2801 -2.98861 0.0
44.4333 -2.34545 0.0
57.2542 0.168568 0.0
4.1575 -0.181241 0.0
6.66633 0.480597 0.0
41.4465 2.82138 0.0
6.86353 0.604796 0.0
50.2485 3.67174 0.0
43.0527 2.83679 0.0
4.29621 0.000275604 0.0
6.84565 -0.535028 0.0
50.0999 2.82335 0.0
51.3751 0.588272 0.0
4.05874 0.182632 0.0
44.4813 -0.241074 0.0
55.9486 0.260919 0.0
12.6587 -0.778788 0.0
56.959 0.164628 0.0
45.6247 2.78532 0.0
44.3535 -3.44872 0.0
53.3526 2.20935 0.0
6.88835 -0.617954 0.0
35.519 -4.49946 0.0
7.43654 -0.123796 0.0
6.70846 0.474845 0.0
41.2599 -3.21926 0.0
6.87006 0.667946 0.0
44.7709 3.12139 0.0
51.2971 2.45528 0.0
42.542 -4.00327 0.0
43.3833 -4.91342 0.0
10.9981 -1.13054 0.0
23.441 -0.104281 0.0
44.1107 2.03118 0.0
6.95636 -0.392574 0.0
6.36001 0.430322 0.0
20.0286 -3.69179 0.0
10.5325 0.996425 0.0
56.3103 -0.96145 0.0
7.38169 -0.454011 0.0
24.4985 0.973437 0.0
56.8536 1.43996 0.0
11.9761 0.773243 0.0
12.6576 0.780694 0.0
47.6411 3.56698 0.0
7.10822 0.406759 0.0
53.4309 1.77489 0.0
46.2946 2.45206 0.0
53.154 0.557502 0.0
6.56704 -0.616767 0.0
5.10243 0.447042 0.0
9.20171 -0.423403 0.0
37.1462 -1.67052 0.0
15.1988 -3.62435 0.0
56.9242 0.2028 0.0
4.16396 0.101973 0.0
43.7319 -4.85783 0.0
13.3362 -0.453483 0.0
6.18015 0.433666 0.0
15.6853 -1.61854 0.0
46.3172 3.74527 0.0
12.5382 -0.707628 0.0
53.0693 0.455364 0.0
51.3443 2.0765 0.0
29.3302 -0.54218 0.0
56.0031 0.290891 0.0
46.6339 2.12999 0.0
27.5007 -1.72212 0.0
41.1503 0.854098 0.0
54.8698 -2.60981 0.0
46.7663 1.78514 0.0
6.76025 -0.689273 0.0
7.20742 0.710835 0.0
44.1298 -0.938021 0.0
6.23132 0.386117 0.0
36.3647 -3.7553 0.0
24.475 14.5481 0.0
56.11 0.297668 0.0
6.28578 0.413714 0.0
6.94515 -0.42062 0.0
51.5863 1.66036 0.0
44.976 3.6248 0.0
38.4375 -0.241519 0.0
31.8345 -1.5707 0.0
47.2756 0.0123016 0.0
27.9985 -1.38914 0.0
17.9591 -19.8574 0.0
48.5554 -0.183469 0.0
43.3717 2.55663 0.0
6.87827 -0.26807 0.0
46.7996 1.43586 0.0
35.8562 17.4688 0.0
22.668 -0.650349 0.0
56.536 0.462343 0.0
4.4959 -0.429889 0.0
4.96152 0.439349 0.0
42.7083 2.8748 0.0
50.1239 -0.221814 0.0
48.2485 -1.23638 0.0
26.6817 -0.198067 0.0
53.4186 5.37623 0.0
56.9541 0.2354 0.0
52.8346 -2.37319 0.0
5.5957 2.79807 0.0
53.2736 0.739135 0.0
54.3544 -2.74194 0.0
44.0417 1.95136 0.0
43.8014 12.7914 0.0
11.5525 -5.00047 0.0
39.1697 0.287757 0.0
5.60884 -8.60683 0.0
37.755 -1.35779 0.0
52.1477 -1.35693 0.0
54.0583 2.97953 0.0
53.1857 5.85221 0.0
5.99899 -2.54823 0.0
46.786 1.1336 0.0
49.7622 8.9536 0.0
44.1104 1.64115 0.0
58.2303 0.146073 0.0
43.8378 2.25117 0.0
51.5912 0.956601 0.0
26.9207 -0.964934 0.0
29.9466 1.21895 0.0
11.5371 -7.07905 0.0
43.8906 -2.85087 0.0
21.2299 -0.180376 0.0
37.5435 -12.5556 0.0
7.79112 -11.8718 0.0
40.7288 -2.85763 0.0
57.124 0.206051 0.0
3.00856 -0.287435 0.0
3.08323 0.29222 0.0
51.4148 0.736672 0.0
42.7145 3.2822 0.0
46.8128 0.906497 0.0
33.9196 19.6264 0.0
7.81763 -0.21199 0.0
12.7062 -0.340232 0.0
9.03787 1.49481 0.0
3.06631 3.41766 0.0
6.95846 -6.32574 0.0
52.4538 -3.1047 0.0
58.4993 0.108214 0.0
41.6876 -4.09928 0.0
0.88959 1.7322 0.0
41.1872 -0.115837 0.0
44.0356 -0.117458 0.0
46.587 -11.6079 0.0
30.4502 15.4212 0.0
1.06437 -1.6788 0.0
3.51042 -3.19223 0.0
37.306 0.608376 0.0
21.3634 1.15189 0.0
44.2142 1.33069 0.0
27.6523 -6.65852 0.0
50.3785 -0.120811 0.0
43.4743 2.34645 0.0
52.2248 -0.117935 0.0
37.8165 12.5616 0.0
56.3981 0.191244 0.0
3.97333 -0.29764 0.0
49.6712 3.67456 0.0
57.5424 1.08069 0.0
53.0297 0.422787 0.0
57.4401 0.157917 0.0
51.8956 -6.67662 0.0
3.81521 0.216711 0.0
57.3488 -0.686456 0.0
7.97153 -1.85481 0.0
22.0588 1.39838 0.0
35.4884 -1.19128 0.0
46.8111 0.764261 0.0
44.2418 1.06212 0.0
55.3641 3.6871 0.0
56.2139 2.63662 0.0
54.7932 3.94745 0.0
6.22521 0.322128 0.0
11.8175 0.572317 0.0
9.36051 -1.26397 0.0
57.6872 -0.0651454 0.0
51.3665 0.514066 0.0
44.4033 -4.91136 0.0
7.62256 2.07718 0.0
55.4381 0.956583 0.0
48.8554 8.31937 0.0
12.3464 13.2507 0.0
51.6091 -0.0858538 0.0
3.43128 1.18054 0.0
49.5941 -0.135887 0.0
54.1487 -1.74143 0.0
50.3559 -0.822586 0.0
37.0643 -0.391702 0.0
34.1429 -0.379825 0.0
48.9607 -0.192346 0.0
8.28864 0.282387 0.0
43.3694 4.0207 0.0
57.0173 -0.737961 0.0
53.2859 -0.256991 0.0
53.0913 0.430205 0.0
46.8929 0.68091 0.0
25.0832 -0.0350225 0.0
51.4049 0.497261 0.0
58.1647 -1.91077 0.0
56.4817 0.121101 0.0
12.1949 0.637454 0.0
44.0407 11.408 0.0
3.73996 -1.11404 0.0
57.7342 1.04867 0.0
57.8737 0.275595 0.0
47.0342 0.645897 0.0
2.23692 1.52157 0.0
41.3563 -0.704464 0.0
57.1731 0.151663 0.0
55.4504 2.78307 0.0
50.987 -0.134612 0.0
56.4216 -0.48674 0.0
53.2444 0.44357 0.0
57.386 -0.125432 0.0
57.8463 0.497609 0.0
57.0344 0.238757 0.0
47.3096 0.646902 0.0
5.1489 0.654642 0.0
18.1973 2.00847 0.0
56.3731 -1.7799 0.0
44.0278 3.30133 0.0
2.48253 -1.44718 0.0
10.4318 -0.842101 0.0
41.4191 -2.73097 0.0
48.2421 7.45193 0.0
51.5738 0.509894 0.0
19.8487 -1.63167 0.0
53.1586 -0.251973 0.0
54.5045 -0.196491 0.0
28.5185 18.4765 0.0
9.94031 1.08068 0.0
4.67929 -0.789957 0.0
56.6333 -2.33671 0.0
37.9618 10.4807 0.0
52.4591 -6.41302 0.0
57.9626 0.676562 0.0
13.9944 0.232876 0.0
51.8097 0.504407 0.0
44.2826 0.893499 0.0
56.5221 -0.0290743 0.0
4.37642 0.878935 0.0
53.4729 0.419801 0.0
56.5181 0.0498241 0.0
5.93021 -0.362715 0.0
47.6812 0.626495 0.0
56.2626 0.261081 0.0
57.9461 0.722894 0.0
54.0932 0.216537 0.0
54.1555 -0.280233 0.0
57.1751 0.08954 0.0
47.6467 -1.03214 0.0
54.0221 -0.169861 0.0
53.8121 0.330963 0.0
52.894 0.164144 0.0
52.7992 -0.327759 0.0
5.38782 -0.535407 0.0
56.9182 1.0866 0.0
52.47 -0.389045 0.0
7.43072 0.446207 0.0
57.1415 0.0174214 0.0
11.5778 0.878871 0.0
52.1624 0.423514 0.0
53.8453 -0.351066 0.0
58.0106 0.431255 0.0
55.2804 -0.140094 0.0
54.3129 0.120245 0.0
57.633 0.20338 0.0
24.9128 0.257044 0.0
48.8974 0.304305 0.0
45.0706 3.14499 0.0
48.0007 0.49856 0.0
5.46488 -0.114766 0.0
56.3026 -0.133052 0.0
52.5664 0.28252 0.0
42.9067 -11.9754 0.0
3.5991 -0.322728 0.0
44.5634 0.718922 0.0
3.5189 0.239744 0.0
38.482 -10.3294 0.0
47.0793 3.72558 0.0
44.8416 0.69724 0.0
50.4444 -0.206441 0.0
52.1626 -0.424408 0.0
45.2979 0.696414 0.0
54.592 -0.0446085 0.0
36.556 -3.33021 0.0
41.0367 -14.2023 0.0
52.8677 -0.143797 0.0
57.5895 0.788329 0.0
57.7241 0.998767 0.0
57.8401 0.35411 0.0
53.5604 -0.400551 0.0
58.1439 0.46209 0.0
46.0289 -0.211839 0.0
57.9591 0.49083 0.0
51.5995 -0.295937 0.0
49.3075 0.165177 0.0
23.4709 0.532047 0.0
55.0844 -0.514994 0.0
58.033 0.382166 0.0
42.9339 -0.83195 0.0
57.5541 0.625659 0.0
53.2994 -0.415782 0.0
51.8859 -0.416316 0.0
5.65849 0.481594 0.0
53.1419 0.0719409 0.0
44.3981 0.788264 0.0
58.2659 0.402205 0.0
39.6817 -0.953759 0.0
13.0023 0.346828 0.0
49.6989 0.0597592 0.0
57.5135 0.428531 0.0
46.3067 0.401263 0.0
45.1568 -0.208576 0.0
51.6457 -0.350012 0.0
57.4282 0.203917 0.0
53.0738 -0.382682 0.0
47.1045 0.232863 0.0
25.6544 11.688 0.0
57.0881 -0.0659553 0.0
58.1897 0.319814 0.0
56.48 1.98992 0.0
22.9923 -0.116574 0.0
53.3374 -0.0115999 0.0
43.2359 -0.240237 0.0
6.94559 0.205936 0.0
12.0706 0.398328 0.0
52.8712 -0.299266 0.0
56.4563 0.226868 0.0
49.14 -0.409631 0.0
51.4212 -0.23842 0.0
57.9381 0.298949 0.0
49.9664 -0.279798 0.0
50.0286 -0.0302936 0.0
51.1522 -0.112292 0.0
43.9007 -0.280179 0.0
48.4151 -0.257441 0.0
58.3373 0.262074 0.0
44.4684 -0.23626 0.0
56.8409 0.100807 0.0
48.7375 -0.448383 0.0
50.8542 -0.331523 0.0
47.9305 -0.324443 0.0
43.3464 -0.335937 0.0
56.6933 0.130574 0.0
52.656 -0.18637 0.0
8.48258 0.234285 0.0
13.1213 0.339612 0.0
57.8432 0.0711989 0.0
57.2621 -0.0217983 0.0
45.5533 0.64865 0.0
47.4743 -0.073799 0.0
48.0102 0.00557371 0.0
57.9485 0.634448 0.0
50.7651 -0.00386529 0.0
56.4464 1.57459 0.0
54.4738 0.0377144 0.0
42.8255 -0.396191 0.0
46.6237 -0.465809 0.0
47.5683 0.104867 0.0
52.3745 -0.074465 0.0
58.2582 0.164313 0.0
56.5077 -0.11489 0.0
47.4893 -0.388568 0.0
39.0031 1.22493 0.0
41.0917 -0.309667 0.0
47.0524 -0.44254 0.0
42.347 -0.457066 0.0
52.5173 3.71339 0.0
50.2497 0.0524885 0.0
51.9882 0.00326803 0.0
48.3929 -0.438144 0.0
41.7019 -0.265151 0.0
45.6636 -0.127632 0.0
57.3267 0.269255 0.0
41.8297 -0.490046 0.0
46.2711 -0.411781 0.0
49.7023 0.0342443 0.0
26.2646 0.188646 0.0
55.6143 -0.102181 0.0
41.2784 -0.420327 0.0
22.8193 0.119447 0.0
40.5299 -0.364123 0.0
51.53 0.0189576 0.0
41.0021 -0.256069 0.0
45.9574 -0.28511 0.0
42.3605 -0.243011 0.0
6.07778 -0.0768944 0.0
11.3183 -0.13602 0.0
26.2376 0.298807 0.0
49.4663 -0.375212 0.0
47.8119 -0.221039 0.0
49.2274 -0.037776 0.0
51.0836 -0.0287863 0.0
40.6326 -0.0782801 0.0
12.7025 0.127071 0.0
57.4738 0.176698 0.0
11.6515 -0.16592 0.0
58.3115 0.0453358 0.0
48.8955 -0.121727 0.0
39.9941 -0.425945 0.0
46.9569 0.0517481 0.0
39.351 -0.487678 0.0
58.2005 -0.0810284 0.0
46.2481 0.123232 0.0
6.30156 -0.0863458 0.0
11.4903 -0.162539 0.0
48.0941 -0.354991 0.0
6.73847 0.0831184 0.0
50.7251 -0.113489 0.0
38.8044 -0.473502 0.0
38.3927 -0.325728 0.0
45.2172 0.0175689 0.0
50.2343 -0.263893 0.0
57.4458 -0.0747892 0.0
45.5451 0.10898 0.0
44.9343 0.0273058 0.0
11.5746 -0.148131 0.0
6.54601 -0.0881411 0.0
21.7956 0.244777 0.0
38.0339 -0.131955 0.0
44.4733 0.128129 0.0
49.5377 -0.349318 0.0
43.6236 0.168621 0.0
51.8432 -0.150392 0.0
22.3423 0.280491 0.0
42.874 0.103623 0.0
50.5418 -0.187226 0.0
44.4814 -0.0492338 0.0
11.5815 0.143815 0.0
5.9169 -0.0556028 0.0
4.95751 -0.0852357 0.0
6.38149 -0.0809863 0.0
11.4442 -0.0566527 0.0
12.1756 0.192782 0.0
5.37875 -0.0267908 0.0
6.09617 -0.00667514 0.0
11.2582 -0.124987 0.0
5.94047 -0.0422744 0.0
6.42696 -0.0449829 0.0
6.81191 0.150218 0.0
12.4712 -0.153626 0.0
6.61925 0.0811148 0.0
11.0943 -0.0968546 0.0
6.33416 0.0784542 0.0
11.8074 -0.0744896 0.0
11.5475 -0.0850999 0.0
6.17067 0.166005 0.0
12.6475 0.223506 0.0
11.2372 -0.0966245 0.0
10.9841 -0.122912 0.0
6.4038 0.267484 0.0
10.5884 -0.0833003 0.0
11.444 0.188377 0.0
5.865 -0.0427113 0.0
11.1199 -0.0472607 0.0
6.68573 -0.00143542 0.0
5.87387 0.088045 0.0
10.7492 -0.161948 0.0
6.30455 0.217049 0.0
7.6193 0.123017 0.0
6.45575 0.31242 0.0
5.37984 0.0757774 0.0
5.78903 -0.00466773 0.0
11.2156 0.0504382 0.0
6.11601 -0.0739849 0.0
6.27983 -0.0836912 0.0
6.42075 0.258711 0.0
6.44218 0.29504 0.0
6.40611 -0.0242146 0.0
6.28597 0.0579487 0.0
5.31457 -0.0830137 0.0
6.02435 -0.048028 0.0
7.49164 -0.0132454 0.0
12.5951 -0.03495 0.0
6.51286 -0.119076 0.0
7.66575 0.0662225 0.0
10.6918 0.153281 0.0
10.4488 -0.181939 0.0
5.97053 -0.0634987 0.0
6.60546 0.22755 0.0
6.02834 0.0591199 0.0
11.8597 -0.0202187 0.0
5.72561 0.106109 0.0
6.35191 0.078138 0.0
5.90533 -0.0739492 0.0
11.7151 0.524726 0.0
7.28443 -0.10076 0.0
5.1603 -0.00724089 0.0
5.93834 0.00605413 0.0
5.0268 0.0462567 0.0
6.48246 0.0795652 0.0
6.59696 -0.0288153 0.0
9.77901 -0.0850482 0.0
4.48488 -0.0333786 0.0
11.4803 0.447616 0.0
11.9378 0.134833 0.0
49.6427 -0.218231 0.0
48.8277 -0.157802 0.0
54.6771 -0.129459 0.0
42.2847 0.0121823 0.0
57.5836 -0.351473 0.0
57.6564 -0.144438 0.0
41.7615 -0.020328 0.0
57.6905 -0.362871 0.0
58.0184 -0.300334 0.0
57.787 -0.378851 0.0
58.1661 -0.188168 0.0
44.297 -0.0475818 0.0
49.0394 -0.158189 0.0
57.9342 -0.334596 0.0
47.5652 -0.202727 0.0
57.4397 -0.277268 0.0
50.6202 -0.214472 0.0
57.3223 -0.242623 0.0
53.6566 -0.297708 0.0
54.6965 -0.32587 0.0
36.2886 0.0903167 0.0
57.1488 -0.391816 0.0
56.7945 -0.235725 0.0
54.8649 -0.310081 0.0
57.3436 -0.325001 0.0
40.6613 -0.161959 0.0
53.4854 -0.0958644 0.0
49.0788 -0.187097 0.0
56.6768 -0.377696 0.0
56.5052 -0.372677 0.0
57.4867 -0.31593 0.0
42.9877 -0.18544 0.0
37.7168 0.247899 0.0
57.0008 -0.347339 0.0