# vtk DataFile Version 3.0
Malha 2D com triângulos e temperatura
ASCII
DATASET UNSTRUCTURED_GRID

POINTS 1194 double
0 0 0
5 0 0
5 1 0
0 1 0
0.85 0.5 0
0.842388 0.538268 0
0.820711 0.570711 0
0.788268 0.592388 0
0.75 0.6 0
0.711732 0.592388 0
0.679289 0.570711 0
0.657612 0.538268 0
0.65 0.5 0
0.657612 0.461732 0
0.679289 0.429289 0
0.711732 0.407612 0
0.75 0.4 0
0.788268 0.407612 0
0.820711 0.429289 0
0.842388 0.461732 0
0.0793651 0 0
0.15873 0 0
0.238095 0 0
0.31746 0 0
0.396825 0 0
0.47619 0 0
0.555556 0 0
0.634921 0 0
0.714286 0 0
0.793651 0 0
0.873016 0 0
0.952381 0 0
1.03175 0 0
1.11111 0 0
1.19048 0 0
1.26984 0 0
1.34921 0 0
1.42857 0 0
1.50794 0 0
1.5873 0 0
1.66667 0 0
1.74603 0 0
1.8254 0 0
1.90476 0 0
1.98413 0 0
2.06349 0 0
2.14286 0 0
2.22222 0 0
2.30159 0 0
2.38095 0 0
2.46032 0 0
2.53968 0 0
2.61905 0 0
2.69841 0 0
2.77778 0 0
2.85714 0 0
2.93651 0 0
3.01587 0 0
3.09524 0 0
3.1746 0 0
3.25397 0 0
3.33333 0 0
3.4127 0 0
3.49206 0 0
3.57143 0 0
3.65079 0 0
3.73016 0 0
3.80952 0 0
3.88889 0 0
3.96825 0 0
4.04762 0 0
4.12698 0 0
4.20635 0 0
4.28571 0 0
4.36508 0 0
4.44444 0 0
4.52381 0 0
4.60317 0 0
4.68254 0 0
4.7619 0 0
4.84127 0 0
4.92063 0 0
5 0.0769231 0
5 0.153846 0
5 0.230769 0
5 0.307692 0
5 0.384615 0
5 0.461538 0
5 0.538462 0
5 0.615385 0
5 0.692308 0
5 0.769231 0
5 0.846154 0
5 0.923077 0
4.92063 1 0
4.84127 1 0
4.7619 1 0
4.68254 1 0
4.60317 1 0
4.52381 1 0
4.44444 1 0
4.36508 1 0
4.28571 1 0
4.20635 1 0
4.12698 1 0
4.04762 1 0
3.96825 1 0
3.88889 1 0
3.80952 1 0
3.73016 1 0
3.65079 1 0
3.57143 1 0
3.49206 1 0
3.4127 1 0
3.33333 1 0
3.25397 1 0
3.1746 1 0
3.09524 1 0
3.01587 1 0
2.93651 1 0
2.85714 1 0
2.77778 1 0
2.69841 1 0
2.61905 1 0
2.53968 1 0
2.46032 1 0
2.38095 1 0
2.30159 1 0
2.22222 1 0
2.14286 1 0
2.06349 1 0
1.98413 1 0
1.90476 1 0
1.8254 1 0
1.74603 1 0
1.66667 1 0
1.5873 1 0
1.50794 1 0
1.42857 1 0
1.34921 1 0
1.26984 1 0
1.19048 1 0
1.11111 1 0
1.03175 1 0
0.952381 1 0
0.873016 1 0
0.793651 1 0
0.714286 1 0
0.634921 1 0
0.555556 1 0
0.47619 1 0
0.396825 1 0
0.31746 1 0
0.238095 1 0
0.15873 1 0
0.0793651 1 0
0 0.923077 0
0 0.846154 0
0 0.769231 0
0 0.692308 0
0 0.615385 0
0 0.538462 0
0 0.461538 0
0 0.384615 0
0 0.307692 0
0 0.230769 0
0 0.153846 0
0 0.0769231 0
0.879698 0.466718 0
1.3085 0.931947 0
1.30532 0.0638546 0
4.93832 0.504275 0
0.620452 0.46964 0
3.99858 0.0669607 0
1.63721 0.934258 0
3.3751 0.0523709 0
4.3254 0.0687322 0
2.42354 0.0642082 0
2.97619 0.0687322 0
2.02101 0.0693621 0
3.68108 0.0581336 0
2.65899 0.932655 0
4.178 0.939994 0
3.21614 0.938179 0
2.25483 0.919987 0
3.53215 0.928998 0
3.84921 0.931268 0
1.69647 0.0674297 0
1.94349 0.930209 0
4.48413 0.931268 0
2.97813 0.942022 0
2.74097 0.0673855 0
0.859645 0.573263 0
0.639718 0.573116 0
0.0651563 0.652836 0
0.0635304 0.346121 0
4.56232 0.0679683 0
0.830393 0.392645 0
0.669618 0.39275 0
1.06185 0.0668897 0
0.440193 0.0680031 0
1.06474 0.93511 0
0.446074 0.935974 0
0.724697 0.630698 0
4.72268 0.931235 0
4.93065 0.267192 0
0.589836 0.936152 0
0.92338 0.0562425 0
0.590207 0.0623339 0
0.755872 0.0732784 0
0.838039 0.936714 0
4.92573 0.732039 0
0.281717 0.93783 0
0.28208 0.0811877 0
0.065248 0.503161 0
1.46076 0.0637037 0
4.72574 0.0661877 0
4.31028 0.937908 0
3.21429 0.0687322 0
1.46639 0.932632 0
3.6897 0.928155 0
2.42063 0.931268 0
3.5364 0.0691789 0
2.25998 0.0676208 0
1.78735 0.937047 0
4.01535 0.920637 0
1.85469 0.0674188 0
3.83991 0.0626292 0
3.37477 0.929368 0
2.58225 0.0657863 0
2.81746 0.932342 0
4.16667 0.0687322 0
2.11402 0.935574 0
0.0614266 0.197046 0
0.0612841 0.803003 0
4.88273 0.0644126 0
4.87774 0.933272 0
0.859645 0.426737 0
0.903081 0.436592 0
0.923672 0.473385 0
0.948706 0.439078 0
0.969155 0.479795 0
0.996593 0.439791 0
1.0202 0.484937 0
1.04667 0.440138 0
1.07382 0.489694 0
1.1034 0.440801 0
1.13169 0.49612 0
1.16603 0.445058 0
1.1931 0.504331 0
1.22956 0.450883 0
1.25923 0.506004 0
1.29683 0.453139 0
1.32923 0.510343 0
1.36603 0.454344 0
1.03276 0.530395 0
1.40063 0.516169 0
1.43576 0.454934 0
1.47042 0.520776 0
1.51069 0.46142 0
1.54422 0.526371 0
1.58547 0.465572 0
1.61942 0.531773 0
1.66033 0.468788 0
1.69546 0.536793 0
1.73713 0.472812 0
1.77239 0.541977 0
1.81532 0.478494 0
1.85006 0.547285 0
1.89327 0.483449 0
1.92802 0.55361 0
1.97142 0.488546 0
2.00623 0.558966 0
2.04984 0.493518 0
2.08483 0.564085 0
2.12847 0.498462 0
2.16353 0.569137 0
2.20719 0.503331 0
0.961579 0.391697 0
1.22451 0.565337 0
2.24238 0.574192 0
2.28611 0.508258 0
2.32134 0.579247 0
2.36519 0.513325 0
2.40036 0.584295 0
2.44425 0.51834 0
2.47944 0.589336 0
2.52334 0.523355 0
2.55853 0.594372 0
2.60245 0.52837 0
2.63764 0.599431 0
2.68159 0.533388 0
2.64637 0.462336 0
2.72553 0.467349 0
2.76076 0.538418 0
2.8047 0.47237 0
2.83993 0.543451 0
2.88387 0.477399 0
2.91911 0.548482 0
2.96305 0.482427 0
2.9983 0.553514 0
3.04224 0.487456 0
3.07749 0.558545 0
3.12143 0.492477 0
3.15668 0.563574 0
3.20063 0.497514 0
3.23588 0.568605 0
3.27983 0.502542 0
3.31508 0.573635 0
3.35903 0.507562 0
3.39428 0.578663 0
3.43823 0.5126 0
3.47348 0.583694 0
3.51744 0.517628 0
3.55268 0.588724 0
3.59664 0.522646 0
3.63189 0.593752 0
3.67585 0.527673 0
3.71109 0.598781 0
3.75505 0.532702 0
3.7903 0.60381 0
3.83426 0.537731 0
3.79901 0.466623 0
3.87821 0.471754 0
3.91346 0.542777 0
3.95742 0.476701 0
3.99267 0.547795 0
4.03662 0.481715 0
4.07187 0.552815 0
4.11582 0.486743 0
4.15106 0.55783 0
4.195 0.491782 0
4.23023 0.562843 0
4.27415 0.49682 0
4.30937 0.567866 0
4.35325 0.501915 0
4.38842 0.572845 0
4.43227 0.506997 0
4.46737 0.577575 0
4.51106 0.511995 0
4.54622 0.582183 0
1.13571 0.390292 0
4.47606 0.441361 0
4.55475 0.446396 0
2.32985 0.442214 0
3.5614 0.451571 0
3.08619 0.421408 0
2.09339 0.427815 0
1.42887 0.583001 0
2.84864 0.406329 0
3.32378 0.43649 0
4.23911 0.425894 0
1.54723 0.39251 0
1.77883 0.406811 0
1.33959 0.387065 0
3.92239 0.405803 0
4.08079 0.415776 0
2.48812 0.452349 0
1.57935 0.603183 0
1.93602 0.417543 0
1.72453 0.617973 0
3.11273 0.629643 0
2.69029 0.396284 0
3.94662 0.623383 0
1.88466 0.613248 0
2.79598 0.609502 0
4.10826 0.620575 0
2.04005 0.62838 0
2.95434 0.619575 0
4.51981 0.375801 0
4.59833 0.380943 0
4.63314 0.451296 0
4.26693 0.63114 0
2.19619 0.645921 0
4.4246 0.642296 0
3.27112 0.639707 0
2.35729 0.649822 0
2.51462 0.660373 0
3.42952 0.649769 0
4.67669 0.38601 0
3.58793 0.659829 0
3.74634 0.669888 0
4.64195 0.315733 0
4.44109 0.370647 0
4.48493 0.305066 0
4.40614 0.29989 0
4.71136 0.456133 0
4.72014 0.320758 0
0.8692 0.382093 0
0.841252 0.348256 0
0.886481 0.338703 0
0.853127 0.301457 0
0.902583 0.287335 0
0.801683 0.321689 0
0.818113 0.263019 0
0.764765 0.277091 0
4.44702 0.235678 0
0.946267 0.520761 0
0.78107 0.221265 0
0.726309 0.234724 0
0.848273 0.20551 0
4.68545 0.250576 0
4.37074 0.227561 0
4.76365 0.255792 0
4.79822 0.326145 0
0.713664 0.287231 0
0.672358 0.247957 0
0.68673 0.192342 0
0.630368 0.2085 0
0.616569 0.265341 0
0.574186 0.225456 0
0.557393 0.28131 0
0.52004 0.242373 0
0.504416 0.299685 0
0.462273 0.252096 0
0.44798 0.316739 0
0.404567 0.276951 0
0.390546 0.335414 0
0.434669 0.37657 0
0.377935 0.394545 0
0.421979 0.43426 0
0.365682 0.452846 0
0.409646 0.492216 0
0.353389 0.51089 0
0.397738 0.551598 0
0.339864 0.570301 0
0.385899 0.612153 0
0.325913 0.631557 0
0.344507 0.29318 0
0.320568 0.413067 0
0.373553 0.673852 0
0.434438 0.653082 0
0.311416 0.69481 0
0.449777 0.528305 0
0.293513 0.534612 0
0.421431 0.715204 0
0.480917 0.696603 0
0.54504 0.34471 0
0.262743 0.649913 0
0.246209 0.712341 0
0.468564 0.755948 0
0.526091 0.735423 0
0.538207 0.68039 0
0.581228 0.716342 0
0.408756 0.777952 0
0.36234 0.239019 0
0.297047 0.251925 0
0.572109 0.771575 0
0.624906 0.752173 0
0.474824 0.414151 0
0.534351 0.182707 0
0.633682 0.70159 0
0.674547 0.736174 0
0.66826 0.788959 0
0.721117 0.76834 0
0.714515 0.825486 0
0.769074 0.802008 0
0.775287 0.746591 0
0.821903 0.778625 0
0.826767 0.726064 0
0.873257 0.756032 0
0.872997 0.697261 0
0.92331 0.732304 0
0.930014 0.67838 0
0.976061 0.710612 0
0.92456 0.784469 0
0.982178 0.654421 0
1.03016 0.688004 0
1.02037 0.747059 0
1.08 0.723819 0
1.08651 0.661896 0
1.1397 0.698204 0
1.13262 0.763657 0
1.19424 0.736545 0
1.18556 0.80161 0
1.24839 0.771772 0
1.25723 0.706382 0
1.31432 0.745787 0
4.66801 0.521361 0
4.74602 0.526202 0
4.70285 0.591278 0
4.78076 0.596023 0
4.73763 0.661207 0
4.78904 0.460969 0
2.61113 0.391267 0
2.65506 0.325217 0
2.57588 0.320198 0
2.61982 0.254148 0
2.69899 0.259163 0
2.54065 0.249131 0
2.49672 0.315179 0
2.46148 0.244124 0
2.41757 0.310166 0
2.38233 0.239117 0
2.33843 0.30514 0
2.30297 0.237979 0
2.25928 0.300748 0
2.22079 0.221377 0
2.17969 0.293884 0
2.14114 0.224266 0
2.10047 0.289841 0
2.0653 0.219144 0
2.02202 0.284919 0
1.98701 0.214164 0
1.94336 0.279863 0
3.82315 0.673327 0
3.78135 0.738156 0
3.86451 0.735958 0
3.70234 0.735494 0
4.52513 0.244409 0
4.32717 0.294467 0
4.29217 0.221862 0
0.619934 0.539507 0
0.599432 0.577132 0
0.575955 0.542712 0
0.554504 0.58245 0
4.65962 0.656481 0
4.69438 0.726169 0
4.6161 0.721747 0
4.77259 0.731352 0
4.65076 0.791486 0
4.57153 0.788793 0
4.2482 0.289182 0
4.21307 0.218308 0
4.1691 0.284563 0
4.13394 0.21352 0
0.835918 0.606341 0
0.806475 0.6384 0
4.08995 0.279537 0
0.640355 0.426737 0
0.596214 0.435837 0
0.630358 0.379178 0
0.689967 0.627735 0
1.90832 0.209948 0
1.86468 0.27519 0
1.82968 0.20518 0
1.78607 0.269797 0
0.281841 0.313314 0
0.232117 0.268621 0
0.216861 0.334396 0
4.05473 0.209347 0
4.01077 0.2745 0
3.97554 0.204394 0
3.93159 0.269388 0
0.297409 0.759367 0
0.231645 0.782943 0
0.180008 0.73598 0
1.32151 0.676369 0
1.38055 0.718092 0
1.36901 0.793947 0
1.43945 0.766002 0
0.249902 0.198865 0
0.932364 0.624392 0
1.75117 0.201034 0
1.70771 0.264658 0
1.673 0.195402 0
1.62985 0.260294 0
1.59532 0.191927 0
1.55236 0.254233 0
3.89629 0.200227 0
3.85238 0.264494 0
3.81708 0.195303 0
3.77304 0.259453 0
2.66368 0.189084 0
2.74279 0.19534 0
2.77814 0.264556 0
2.82201 0.199823 0
2.85733 0.269552 0
2.90126 0.203886 0
2.93654 0.274416 0
2.98045 0.20868 0
3.01573 0.279376 0
3.0597 0.213193 0
[...]
CELL_DATA 2220
VECTORS velocity double
43.2036 -1.87911 0.0
31.5424 0.794971 0.0
32.9821 0.66464 0.0
25.482 2.56923 0.0
43.7625 -2.08433 0.0
59.8054 -1.56897 0.0
26.572 0.75705 0.0
29.5892 -0.0751327 0.0
44.0035 2.85673 0.0
58.7979 -1.22014 0.0
25.7202 0.429558 0.0
28.2005 0.36189 0.0
22.3085 0.271341 0.0
38.8447 -2.48546 0.0
28.3049 -0.35859 0.0
39.8715 3.22424 0.0
29.6852 1.86383 0.0
24.2156 1.18164 0.0
27.6003 -0.250213 0.0
29.9519 -0.231543 0.0
27.5777 0.431891 0.0
34.8997 3.99509 0.0
28.1374 1.4235 0.0
29.3061 0.892759 0.0
57.3927 -0.62825 0.0
36.3647 -2.33808 0.0
25.2197 1.29094 0.0
25.1044 0.865607 0.0
25.0236 2.42811 0.0
27.5805 1.78887 0.0
49.1518 -1.39607 0.0
34.3719 3.36667 0.0
20.3021 -0.213071 0.0
35.4517 1.3962 0.0
42.3911 -4.04678 0.0
59.9921 -1.66531 0.0
41.1181 -4.4199 0.0
24.0267 -0.233337 0.0
29.334 2.78987 0.0
30.8218 2.2415 0.0
15.2946 0.723579 0.0
44.4288 3.10545 0.0
21.4877 2.20982 0.0
26.5325 -0.10633 0.0
24.3926 -0.122976 0.0
21.3995 -0.095999 0.0
27.8609 1.16386 0.0
21.9555 -0.0501747 0.0
58.2859 -1.10525 0.0
63.9588 0.427522 0.0
22.481 0.620536 0.0
22.0448 0.136076 0.0
27.8206 0.962584 0.0
28.1581 0.151046 0.0
24.8175 1.43569 0.0
31.2487 2.03058 0.0
36.7163 3.53434 0.0
23.5543 0.851817 0.0
23.9032 0.987383 0.0
64.6844 0.265973 0.0
-0.477926 -11.4429 0.0
58.9472 -1.07239 0.0
50.8481 -2.02915 0.0
28.4769 0.967979 0.0
28.2291 1.00742 0.0
39.0805 1.36285 0.0
19.8921 -2.01589 0.0
43.096 3.39566 0.0
23.8181 0.961494 0.0
24.264 0.90692 0.0
27.9271 0.230676 0.0
36.7334 -1.82989 0.0
21.6391 0.226361 0.0
61.6861 0.997638 0.0
15.0651 0.43071 0.0
44.8303 2.99923 0.0
54.0947 2.32663 0.0
28.6423 -1.86279 0.0
46.5975 3.64322 0.0
26.1741 0.149181 0.0
26.5088 -1.14904 0.0
31.7508 -1.9481 0.0
14.6777 -0.309854 0.0
21.4242 0.138349 0.0
27.0785 0.736265 0.0
27.0189 0.358969 0.0
38.4318 -1.99713 0.0
22.4715 0.305872 0.0
22.8554 0.582413 0.0
43.0735 2.34858 0.0
7.89666 0.527749 0.0
27.1096 1.98902 0.0
27.9844 -0.304829 0.0
42.7363 3.33712 0.0
45.3423 3.18602 0.0
30.4517 -2.06969 0.0
34.2775 -4.18454 0.0
15.4873 -1.05978 0.0
0.238158 -8.4783 0.0
34.7896 -0.784259 0.0
8.07553 -0.804465 0.0
35.253 -2.32073 0.0
27.5764 0.959772 0.0
23.1588 1.29237 0.0
38.7428 4.29017 0.0
43.6811 3.47852 0.0
61.5558 -1.36721 0.0
63.2881 -1.16155 0.0
7.74176 -0.318258 0.0
27.8396 1.41873 0.0
31.3519 1.78662 0.0
40.7587 -1.97261 0.0
61.2098 -1.19313 0.0
11.1596 -1.02784 0.0
60.706 -1.80101 0.0
23.3732 0.808569 0.0
38.6722 -2.57792 0.0
18.3764 -0.579092 0.0
7.91045 -0.0349397 0.0
42.3277 1.71235 0.0
28.7154 -1.88686 0.0
37.6758 -1.409 0.0
20.8116 1.38639 0.0
27.6581 3.36606 0.0
44.5755 -4.05338 0.0
33.0221 -2.72084 0.0
41.3612 3.19682 0.0
23.5227 1.53156 0.0
43.3101 -2.90328 0.0
19.5836 1.64829 0.0
19.8097 4.51868 0.0
22.3689 -2.1227 0.0
13.3979 -1.39787 0.0
17.2156 23.3696 0.0
28.6836 2.6706 0.0
12.3426 20.9469 0.0
19.771 -0.0289926 0.0
24.5381 -0.194169 0.0
34.6122 -2.79836 0.0
35.3609 3.51786 0.0
28.4231 -0.783204 0.0
26.2334 -0.0799966 0.0
59.2423 -2.13764 0.0
45.6529 -4.52332 0.0
60.4246 1.00431 0.0
37.7053 2.95434 0.0
11.4768 1.07419 0.0
15.6099 -0.538176 0.0
60.2409 2.0473 0.0
62.3451 -1.60883 0.0
23.3272 -0.428006 0.0
41.3234 1.6995 0.0
38.1334 -0.0446205 0.0
25.1392 3.04788 0.0
6.22902 13.4544 0.0
29.9483 0.417188 0.0
22.7134 -2.34007 0.0
31.3327 0.647244 0.0
10.6429 -1.05273 0.0
23.9749 -1.35901 0.0
23.3172 -3.21216 0.0
23.3717 -0.0284663 0.0
10.8253 -1.05562 0.0
34.38 -3.30795 0.0
21.3764 0.130451 0.0
33.6633 2.18816 0.0
35.6214 -1.84935 0.0
42.8608 -1.30584 0.0
29.7505 0.321045 0.0
13.4765 -2.07412 0.0
12.1666 1.38806 0.0
20.9317 0.0213386 0.0
27.5334 0.104631 0.0
18.5448 -1.59136 0.0
31.3593 -1.35993 0.0
48.2572 3.70616 0.0
51.9029 2.12379 0.0
48.0173 3.44797 0.0
12.7794 -0.69294 0.0
29.36 0.00705876 0.0
36.9519 -0.545089 0.0
23.7059 -0.885937 0.0
7.85318 1.23306 0.0
20.728 2.04338 0.0
30.205 -0.0550375 0.0
55.0534 -0.959881 0.0
39.7362 0.0936637 0.0
23.2589 -1.15841 0.0
36.1272 -4.05948 0.0
42.6841 -0.484327 0.0
12.7893 -1.28147 0.0
23.505 -0.327822 0.0
43.0744 -2.48075 0.0
60.9571 1.79894 0.0
23.4326 -2.2152 0.0
39.6265 0.871801 0.0
40.8069 1.84333 0.0
26.095 -1.73055 0.0
6.59927 -0.585072 0.0
27.7488 -0.629918 0.0
25.1917 -24.774 0.0
36.3082 -3.09771 0.0
36.5739 2.98442 0.0
28.382 -0.19931 0.0
15.5069 -0.602783 0.0
35.3214 -2.30676 0.0
28.4162 0.153365 0.0
25.824 0.00391819 0.0
39.1242 3.99038 0.0
13.2008 -0.829421 0.0
27.9213 0.931585 0.0
13.6702 -0.545513 0.0
40.1008 -0.352041 0.0
44.8558 3.48291 0.0
53.8587 2.92775 0.0
25.909 5.81885 0.0
23.4768 0.854479 0.0
27.8343 1.1184 0.0
12.6148 0.303698 0.0
15.5836 -0.204685 0.0
60.4697 0.688738 0.0
12.5797 -0.654001 0.0
23.206 1.01984 0.0
12.1452 -0.309948 0.0
28.1013 -0.163672 0.0
31.6195 -3.56232 0.0
24.0265 -1.54666 0.0
23.913 -1.05051 0.0
34.0495 0.129495 0.0
12.1457 1.17368 0.0
33.2543 3.67206 0.0
37.5479 -1.55712 0.0
18.5469 -0.290008 0.0
28.2247 -0.777043 0.0
12.426 -1.09377 0.0
45.2254 -0.0417931 0.0
28.8819 -1.7651 0.0
27.7313 -0.345118 0.0
27.5298 -0.375066 0.0
23.8911 -0.427945 0.0
45.9111 -4.28673 0.0
35.2002 -3.76309 0.0
42.3438 4.58174 0.0
13.767 -0.0304303 0.0
16.2741 17.0638 0.0
63.4582 -0.0294307 0.0
29.6623 -1.05427 0.0
34.0447 -1.35377 0.0
3.60716 16.2629 0.0
22.1569 2.25236 0.0
14.002 -19.379 0.0
13.7739 -0.113438 0.0
36.0808 -2.35642 0.0
58.4428 -0.359836 0.0
50.9469 -3.12416 0.0
27.0878 0.509651 0.0
13.1539 0.178917 0.0
61.4873 0.27033 0.0
23.673 2.14571 0.0
45.2718 1.51284 0.0
31.2637 -0.467045 0.0
38.9855 -0.990652 0.0
11.8859 1.17731 0.0
27.9237 -1.44504 0.0
13.0633 -0.581639 0.0
8.17493 -0.0978136 0.0
23.7076 -2.70799 0.0
36.5194 -1.43666 0.0
26.0607 1.29899 0.0
64.1434 -0.126326 0.0
54.8471 1.28121 0.0
56.935 -0.0789666 0.0
22.6592 0.408208 0.0
57.0036 -1.98356 0.0
23.3806 -2.06851 0.0
43.5192 4.59968 0.0
14.5639 1.9929 0.0
43.3541 -0.861198 0.0
22.8192 1.68829 0.0
13.9592 0.133468 0.0
26.0762 -2.0638 0.0
27.2893 -2.47061 0.0
44.9193 4.4108 0.0
38.3177 2.08596 0.0
56.8013 -1.86981 0.0
34.4634 -2.26799 0.0
37.5456 -3.83912 0.0
37.4013 1.56843 0.0
23.6901 -0.291387 0.0
22.8561 -0.303363 0.0
13.0629 -0.318388 0.0
25.4582 -1.19024 0.0
13.3076 0.978501 0.0
25.5793 -23.6586 0.0
29.6729 -1.52159 0.0
36.7219 -0.361626 0.0
37.2535 -0.332124 0.0
22.2253 0.541003 0.0
43.3687 4.55413 0.0
55.0147 3.04522 0.0
18.6363 -2.73267 0.0
49.48 3.78589 0.0
37.5536 -1.74086 0.0
7.69964 0.0874034 0.0
38.9965 -3.00227 0.0
28.1898 2.01593 0.0
21.7155 -0.515135 0.0
23.1813 -0.331768 0.0
16.7646 0.423262 0.0
12.5512 0.914612 0.0
14.3566 -0.0564054 0.0
18.5634 29.0151 0.0
15.1762 1.05441 0.0
44.5941 4.62271 0.0
34.3309 -2.43057 0.0
27.021 -0.328318 0.0
50.103 3.18655 0.0
12.8761 1.10339 0.0
45.7888 -2.50603 0.0
53.9105 3.40705 0.0
15.4813 -2.13406 0.0
19.8478 0.99237 0.0
60.2097 0.331775 0.0
13.0727 -1.02254 0.0
10.7242 32.2272 0.0
13.4616 -0.0983058 0.0
56.9693 0.00230971 0.0
56.7111 1.34669 0.0
61.7517 0.654355 0.0
13.1868 -0.449819 0.0
42.1386 -3.28388 0.0
45.3978 -4.91134 0.0
45.4027 -1.50852 0.0
11.7414 -1.093 0.0
41.5367 0.191279 0.0
45.9348 -3.73195 0.0
26.3303 -2.67046 0.0
47.93 3.7799 0.0
37.6798 -2.20514 0.0
27.3468 -0.367115 0.0
8.92 -0.208327 0.0
23.9898 -0.378131 0.0
7.40327 0.534471 0.0
7.48255 0.068405 0.0
15.6619 -1.74802 0.0
45.9531 3.51104 0.0
10.5011 8.21873 0.0
49.8699 3.73475 0.0
56.2169 2.87802 0.0
7.27438 -0.296886 0.0
41.8114 1.72941 0.0
6.05218 0.166201 0.0
7.32686 -0.476148 0.0
36.8841 2.98424 0.0
12.3215 0.815369 0.0
45.4388 -1.79308 0.0
41.2006 2.03999 0.0
7.17119 -0.345096 0.0
56.8438 1.00519 0.0
32.9256 -3.40882 0.0
53.3161 3.01006 0.0
15.4157 0.588044 0.0
32.627 1.85964 0.0
51.6855 3.42217 0.0
6.53337 0.623948 0.0
64.1975 0.635908 0.0
37.5845 -4.55832 0.0
7.00273 -0.414567 0.0
6.84428 -0.592513 0.0
39.2634 -1.92334 0.0
7.20995 0.462202 0.0
36.1245 3.91228 0.0
40.2341 -2.05739 0.0
30.1465 -0.952235 0.0
11.9968 -0.0974503 0.0
13.4794 0.540229 0.0
39.1451 0.655369 0.0
39.5965 0.127543 0.0
45.4727 -0.914209 0.0
36.8845 -0.217633 0.0
14.4165 -0.926534 0.0
45.2477 3.73944 0.0
45.8559 -3.26073 0.0
61.6673 0.427516 0.0
44.4103 3.71579 0.0
56.7608 -0.30145 0.0
42.6967 4.20375 0.0
60.1296 0.254799 0.0
35.4157 -1.9492 0.0
54.9648 2.58001 0.0
11.1038 1.06235 0.0
53.5839 -0.0449859 0.0
31.6738 -0.990467 0.0
49.8315 -2.73384 0.0
9.54106 -0.982728 0.0
23.6375 -1.47714 0.0
45.2438 0.674744 0.0
9.16941 0.804507 0.0
60.0709 0.241173 0.0
45.0544 2.71521 0.0
7.49201 0.288524 0.0
30.6539 -0.957856 0.0
50.8312 3.22929 0.0
61.2413 0.148587 0.0
38.0688 -4.33213 0.0
42.8175 -4.77302 0.0
5.97565 7.1076 0.0
12.4345 0.86073 0.0
24.4354 -1.74739 0.0
41.4174 -1.45041 0.0
31.7377 -2.40804 0.0
7.20564 0.00879997 0.0
44.012 4.26126 0.0
53.0943 -2.98825 0.0
45.3261 -2.35481 0.0
61.3553 0.174672 0.0
4.19141 -0.181686 0.0
6.81645 0.480986 0.0
42.2754 2.81462 0.0
6.94681 0.606545 0.0
51.916 3.67438 0.0
43.8796 2.84294 0.0
4.33552 0.000137083 0.0
6.92928 -0.537175 0.0
52.2408 2.83527 0.0
54.8976 0.601754 0.0
4.09162 0.182834 0.0
47.4263 -0.253102 0.0
60.0492 0.265135 0.0
13.0423 -0.781137 0.0
61.1518 0.16754 0.0
47.4948 2.79693 0.0
45.214 -3.46107 0.0
56.0673 2.22488 0.0
6.94507 -0.619009 0.0
36.1356 -4.50966 0.0
7.53545 -0.122356 0.0
6.76136 0.475484 0.0
42.3301 -3.21482 0.0
6.94805 0.669451 0.0
46.3964 3.12933 0.0
53.7441 2.47014 0.0
43.2232 -4.01842 0.0
44.1314 -4.9281 0.0
11.0965 -1.13284 0.0
23.7652 -0.111068 0.0
45.0007 2.03408 0.0
7.17137 -0.394161 0.0
6.55381 0.431847 0.0
20.8475 -4.05569 0.0
10.6162 0.997803 0.0
60.2273 -0.98482 0.0
7.44899 -0.455034 0.0
24.8488 0.97492 0.0
60.1101 1.45453 0.0
12.4325 0.777548 0.0
12.7924 0.781823 0.0
49.2307 3.57136 0.0
7.1724 0.407296 0.0
56.4061 1.79184 0.0
48.4126 2.46678 0.0
56.7992 0.570711 0.0
6.63284 -0.618374 0.0
5.15314 0.447983 0.0
9.31202 -0.426234 0.0
39.3484 -1.87813 0.0
15.7177 -3.96705 0.0
61.1335 0.204731 0.0
4.20059 0.102027 0.0
44.476 -4.87331 0.0
13.914 -0.45995 0.0
6.34362 0.43461 0.0
15.8511 -1.62234 0.0
47.6493 3.7456 0.0
12.9749 -0.711302 0.0
56.7926 0.46654 0.0
54.0339 2.09341 0.0
29.7451 -0.551283 0.0
60.1174 0.294159 0.0
48.9856 2.14702 0.0
28.4981 -1.72911 0.0
41.7807 0.865635 0.0
57.3631 -2.61882 0.0
49.3321 1.8035 0.0
6.81374 -0.690549 0.0
7.26383 0.711827 0.0
45.0312 -0.943685 0.0
6.46994 0.388442 0.0
36.9537 -3.76857 0.0
25.0354 15.6599 0.0
60.2286 0.300388 0.0
6.5025 0.415694 0.0
7.13061 -0.421483 0.0
54.5255 1.6783 0.0
46.0865 3.6215 0.0
40.8713 -0.250885 0.0
32.3577 -1.57706 0.0
50.3968 -0.00181223 0.0
28.4257 -1.39449 0.0
18.1447 -21.4402 0.0
51.8782 -0.190693 0.0
45.213 2.56944 0.0
7.14931 -0.270989 0.0
49.5491 1.45456 0.0
36.923 18.9225 0.0
23.7969 -0.663322 0.0
60.3819 0.473609 0.0
4.53308 -0.430787 0.0
5.00194 0.440079 0.0
44.3222 2.88424 0.0
53.5985 -0.231288 0.0
51.2682 -1.26307 0.0
28.2457 -0.20373 0.0
56.2346 5.98831 0.0
61.1668 0.236807 0.0
54.8386 -2.37337 0.0
5.67817 3.01035 0.0
56.8069 0.754262 0.0
56.6856 -2.7487 0.0
46.3163 1.96879 0.0
45.6066 13.9517 0.0
11.7895 -5.42655 0.0
39.778 0.298001 0.0
5.53431 -9.2274 0.0
38.3892 -1.3491 0.0
55.4837 -1.38304 0.0
56.2652 2.98726 0.0
56.0809 6.47643 0.0
6.10094 -2.76435 0.0
49.6818 1.15172 0.0
52.095 9.88 0.0
46.5717 1.65953 0.0
62.5652 0.144382 0.0
45.904 2.26671 0.0
54.9003 0.973596 0.0
27.3337 -0.968467 0.0
30.3604 1.22775 0.0
11.6927 -7.65157 0.0
44.7511 -2.86174 0.0
22.4408 -0.183939 0.0
39.1273 -13.6571 0.0
7.72105 -12.7444 0.0
41.3571 -2.87138 0.0
61.3369 0.207184 0.0
3.02716 -0.287881 0.0
3.10189 0.29255 0.0
54.8408 0.752108 0.0
43.5149 3.28999 0.0
49.8297 0.923307 0.0
34.8349 21.2612 0.0
8.15074 -0.215863 0.0
13.2921 -0.347144 0.0
9.36449 1.62797 0.0
3.04688 3.64928 0.0
6.96004 -6.80504 0.0
54.4331 -3.10715 0.0
62.8658 0.104854 0.0
42.3569 -4.1136 0.0
0.865087 1.8479 0.0
43.8504 -0.122434 0.0
46.9444 -0.12328 0.0
48.8788 -12.5161 0.0
31.2978 16.649 0.0
1.03632 -1.79952 0.0
3.49168 -3.43014 0.0
39.6447 0.615658 0.0
21.6464 1.15369 0.0
46.8362 1.34906 0.0
28.7964 -7.28677 0.0
53.8932 -0.129218 0.0
44.3586 2.34954 0.0
55.918 -0.126861 0.0
39.2876 13.6391 0.0
60.5301 0.193396 0.0
4.0025 -0.298133 0.0
51.2341 3.67549 0.0
61.2738 1.21789 0.0
56.8038 0.432077 0.0
61.0734 0.220275 0.0
54.6794 -7.15459 0.0
3.84215 0.216988 0.0
61.1941 -0.755167 0.0
8.21611 -2.02958 0.0
22.959 1.40663 0.0
37.5906 -1.35036 0.0
49.9169 0.779346 0.0
46.9895 1.07967 0.0
58.6144 4.10783 0.0
59.7768 2.93121 0.0
58.0914 4.37703 0.0
6.5036 0.324792 0.0
12.3851 0.577561 0.0
9.73081 -1.39293 0.0
61.7071 -0.0947514 0.0
54.9555 0.525547 0.0
45.1995 -4.92667 0.0
7.83473 2.2521 0.0
58.5258 1.18109 0.0
51.3345 9.12956 0.0
12.4073 14.1641 0.0
55.2564 -0.0934523 0.0
3.49811 1.27557 0.0
53.0539 -0.143239 0.0
57.073 -1.71595 0.0
53.7112 -0.849366 0.0
39.4343 -0.398886 0.0
36.2826 -0.387016 0.0
52.3728 -0.199282 0.0
8.38656 0.284515 0.0
44.1966 4.02866 0.0
60.9124 -0.828873 0.0
57.0815 -0.267876 0.0
56.8999 0.437869 0.0
50.0649 0.694119 0.0
26.5219 -0.0408853 0.0
55.0369 0.506927 0.0
60.9943 -1.9176 0.0
60.6252 0.122861 0.0
12.7981 0.684686 0.0
45.9691 12.4459 0.0
3.82093 -1.21382 0.0
61.6623 1.15447 0.0
62.007 0.266457 0.0
50.2535 0.657307 0.0
2.24404 1.631 0.0
42.034 -0.694076 0.0
61.3902 0.152686 0.0
59.0225 3.08094 0.0
54.5906 -0.14155 0.0
59.7347 -0.434254 0.0
57.0732 0.449984 0.0
61.4314 -0.172016 0.0
61.7161 0.558632 0.0
61.2465 0.23995 0.0
50.5648 0.65673 0.0
5.3369 0.713309 0.0
19.0143 2.19191 0.0
60.0444 -1.94663 0.0
45.2482 3.2994 0.0
2.49211 -1.56172 0.0
10.9052 -0.932434 0.0
42.2462 -2.72316 0.0
50.7818 8.18095 0.0
55.2366 0.518031 0.0
20.8217 -1.80978 0.0
56.9977 -0.259552 0.0
58.4808 -0.20335 0.0
29.1429 19.9109 0.0
10.3516 1.17632 0.0
4.83334 -0.867829 0.0
59.3507 -2.3459 0.0
39.5583 11.4024 0.0
55.3702 -6.92261 0.0
61.9933 0.730669 0.0
14.1691 0.236453 0.0
55.4903 0.511369 0.0
47.1318 0.909624 0.0
60.6884 -0.0292384 0.0
4.507 0.955611 0.0
57.3145 0.425312 0.0
60.6735 0.0508591 0.0
6.19734 -0.401524 0.0
50.9615 0.635019 0.0
60.386 0.263485 0.0
62.1383 0.757166 0.0
57.9781 0.220714 0.0
58.0995 -0.288432 0.0
61.3983 0.0901883 0.0
50.6739 -1.05906 0.0
57.878 -0.172887 0.0
57.6743 0.335749 0.0
56.6555 0.168655 0.0
56.6031 -0.336765 0.0
5.60495 -0.591959 0.0
60.3697 1.26209 0.0
56.2384 -0.399785 0.0
7.76857 0.481438 0.0
61.371 0.0172551 0.0
12.1084 0.951376 0.0
55.8626 0.429559 0.0
57.7573 -0.361012 0.0
62.2139 0.431404 0.0
59.2609 -0.141373 0.0
58.2234 0.123708 0.0
61.7747 0.181238 0.0
26.3482 0.257119 0.0
52.2612 0.310763 0.0
47.7869 3.4608 0.0
51.2891 0.506065 0.0
5.72416 -0.128513 0.0
60.3071 -0.191748 0.0
56.2954 0.287787 0.0
44.9121 -13.0142 0.0
3.6218 -0.323182 0.0
47.5477 0.731532 0.0
3.53984 0.240028 0.0
40.2269 -11.2646 0.0
49.9055 4.10595 0.0
47.8713 0.708189 0.0
54.0042 -0.213404 0.0
55.8951 -0.436971 0.0
48.3659 0.70593 0.0
58.5486 -0.0435537 0.0
37.1228 -3.34195 0.0
42.8512 -15.3958 0.0
56.6499 -0.161082 0.0
61.761 0.829769 0.0
61.7791 1.07891 0.0
62.0411 0.344349 0.0
57.44 -0.412439 0.0
62.3874 0.465094 0.0
49.1273 -0.220407 0.0
62.1947 0.506627 0.0
55.2826 -0.311525 0.0
52.7116 0.170741 0.0
24.8165 0.537101 0.0
58.9367 -0.611505 0.0
62.2682 0.377649 0.0
45.5827 -0.857512 0.0
61.7431 0.653199 0.0
57.1464 -0.429584 0.0
55.5831 -0.430577 0.0
5.89223 0.523316 0.0
56.9342 0.075522 0.0
47.325 0.802666 0.0
62.5298 0.404616 0.0
42.1313 -1.09146 0.0
13.7044 0.350063 0.0
53.1467 0.0642614 0.0
61.7053 0.445158 0.0
49.4298 0.408561 0.0
48.2001 -0.215943 0.0
55.3105 -0.36567 0.0
61.6143 0.212041 0.0
56.89 -0.398165 0.0
50.2981 0.239165 0.0
26.3895 12.6136 0.0
61.3231 -0.0674778 0.0
62.4422 0.316538 0.0
60.2528 2.1971 0.0
24.3022 -0.12193 0.0
57.1581 -0.00928621 0.0
46.0984 -0.247976 0.0
7.30538 0.207747 0.0
12.7243 0.401809 0.0
56.6594 -0.316028 0.0
60.517 0.206232 0.0
52.5745 -0.419786 0.0
55.0574 -0.255034 0.0
62.1741 0.307387 0.0
53.4836 -0.287402 0.0
53.5159 -0.0271517 0.0
54.76 -0.129331 0.0
46.8488 -0.28699 0.0
51.7811 -0.264608 0.0
62.6081 0.262219 0.0
47.4622 -0.243047 0.0
60.9256 0.089061 0.0
52.1277 -0.460056 0.0
54.4543 -0.33751 0.0
51.2521 -0.332385 0.0
46.2463 -0.343274 0.0
60.7711 0.0971653 0.0
56.4182 -0.203888 0.0
8.91759 0.236187 0.0
13.8173 0.342389 0.0
62.0732 0.0735375 0.0
61.4379 -0.0202874 0.0
48.6272 0.656988 0.0
50.7193 -0.0891766 0.0
51.3003 0.00968473 0.0
62.1718 0.658932 0.0
54.3393 -0.0207608 0.0
60.3501 1.71912 0.0
58.4085 0.0401834 0.0
45.6776 -0.404411 0.0
49.8097 -0.477626 0.0
50.8106 0.110186 0.0
56.109 -0.0921564 0.0
62.5155 0.160139 0.0
60.6834 -0.116787 0.0
50.7678 -0.397673 0.0
39.6454 1.21511 0.0
43.7956 -0.316341 0.0
50.2856 -0.453005 0.0
45.1535 -0.466356 0.0
55.7812 4.10159 0.0
53.7831 0.0362467 0.0
55.6901 -0.0140246 0.0
51.7419 -0.451243 0.0
44.4557 -0.271629 0.0
48.7389 -0.142059 0.0
61.4788 0.256519 0.0
44.5837 -0.500406 0.0
49.4148 -0.424793 0.0
53.1916 0.0190156 0.0
27.7474 0.179524 0.0
59.5662 -0.158918 0.0
43.9741 -0.431584 0.0
24.0784 0.110238 0.0
43.1853 -0.371406 0.0
55.1947 0.0025336 0.0
43.6664 -0.268062 0.0
49.0638 -0.299022 0.0
45.1638 -0.249824 0.0
6.38702 -0.0771554 0.0
11.9202 -0.136293 0.0
27.7374 0.291551 0.0
52.9369 -0.384791 0.0
51.0898 -0.236095 0.0
52.6731 -0.0518451 0.0
54.7092 -0.0440501 0.0
43.2615 -0.0906538 0.0
13.353 0.122085 0.0
61.6337 0.166506 0.0
12.2768 -0.168201 0.0
62.5819 0.042565 0.0
52.2998 -0.134737 0.0
42.6015 -0.434094 0.0
50.1603 0.0365625 0.0
41.8993 -0.496767 0.0
62.4586 -0.0870779 0.0
49.3994 0.108699 0.0
6.62481 -0.0874108 0.0
12.1059 -0.164359 0.0
51.4054 -0.369259 0.0
7.06866 0.0809743 0.0
54.3122 -0.12753 0.0
41.2969 -0.483469 0.0
40.8419 -0.336412 0.0
48.2548 0.00310423 0.0
53.7799 -0.279495 0.0
61.6051 -0.0846899 0.0
48.6441 0.0953809 0.0
47.9813 0.0147328 0.0
12.1956 -0.15072 0.0
6.8822 -0.0894545 0.0
22.9994 0.238224 0.0
40.4484 -0.143129 0.0
47.4562 0.114121 0.0
53.0135 -0.358047 0.0
46.5457 0.155424 0.0
55.5124 -0.166728 0.0
23.5938 0.274877 0.0
45.74 0.0913823 0.0
54.0938 -0.200257 0.0
47.4773 -0.0609257 0.0
12.1826 0.141081 0.0
6.21712 -0.056472 0.0
5.20578 -0.086197 0.0
6.71022 -0.0824159 0.0
12.0401 -0.0591581 0.0
12.8127 0.194631 0.0
5.64361 -0.0279456 0.0
6.39675 -0.00786355 0.0
11.8552 -0.124767 0.0
6.23956 -0.0418218 0.0
6.75282 -0.0462426 0.0
7.1554 0.151515 0.0
13.1453 -0.156675 0.0
6.95478 0.0797387 0.0
11.684 -0.0985043 0.0
6.6511 0.0770891 0.0
12.4321 -0.0771059 0.0
12.1383 -0.0916946 0.0
6.48078 0.168084 0.0
13.3124 0.225791 0.0
11.8313 -0.0959558 0.0
11.5668 -0.124654 0.0
6.72721 0.269899 0.0
11.1389 -0.0858335 0.0
12.0477 0.1855 0.0
6.14583 -0.0459519 0.0
11.7046 -0.0462115 0.0
7.02379 -0.00482267 0.0
6.16704 0.086643 0.0
11.3183 -0.163829 0.0
6.61839 0.223771 0.0
8.00106 0.124254 0.0
6.75988 0.315161 0.0
5.64525 0.0745209 0.0
6.0787 -0.0040464 0.0
11.8024 0.0518349 0.0
6.42642 -0.0739835 0.0
6.60121 -0.0845094 0.0
6.73682 0.270159 0.0
6.75179 0.313923 0.0
6.72428 -0.027683 0.0
6.61026 0.0565416 0.0
5.58295 -0.0839521 0.0
6.33056 -0.048885 0.0
7.87086 -0.0154159 0.0
13.2646 -0.0383798 0.0
6.80463 -0.122571 0.0
8.04077 0.0626948 0.0
11.247 0.150628 0.0
11.0003 -0.183973 0.0
6.27255 -0.063257 0.0
6.94725 0.229532 0.0
6.32922 0.0599334 0.0
12.4828 -0.026692 0.0
6.01301 0.106238 0.0
6.67326 0.0766253 0.0
6.20446 -0.0748909 0.0
12.3148 0.552261 0.0
7.6559 -0.102458 0.0
5.40884 -0.0128797 0.0
6.23497 0.00371646 0.0
5.27642 0.0456418 0.0
6.80256 0.0779636 0.0
6.93145 -0.0303901 0.0
10.2804 -0.0873064 0.0
4.70653 -0.0343911 0.0
12.0752 0.463928 0.0
12.5685 0.132226 0.0
53.0727 -0.230211 0.0
52.1989 -0.170169 0.0
58.6528 -0.130299 0.0
45.0944 0.000861651 0.0
61.852 -0.364566 0.0
61.8782 -0.1471 0.0
44.5084 -0.0309825 0.0
61.9582 -0.374325 0.0
62.2806 -0.308661 0.0
62.054 -0.389572 0.0
62.4355 -0.193964 0.0
47.2468 -0.0588418 0.0
52.3863 -0.170689 0.0
62.2037 -0.343313 0.0
50.7966 -0.21492 0.0
61.7065 -0.292567 0.0
54.1441 -0.227044 0.0
61.5768 -0.258749 0.0
57.4864 -0.310494 0.0
58.653 -0.339046 0.0
38.5974 0.0809073 0.0
61.3469 -0.403656 0.0
60.891 -0.246743 0.0
58.7956 -0.322505 0.0
61.5241 -0.335398 0.0
43.2765 -0.170739 0.0
57.3309 -0.0952548 0.0
52.4581 -0.2008 0.0
60.8034 -0.389298 0.0
60.6511 -0.38563 0.0
61.7493 -0.329883 0.0
45.8016 -0.1959 0.0