# vtk DataFile Version 3.0
Malha 2D com triângulos e temperatura
ASCII
DATASET UNSTRUCTURED_GRID

POINTS 1194 double
0 0 0
5 0 0
5 1 0
0 1 0
0.85 0.5 0
0.842388 0.538268 0
0.820711 0.570711 0
0.788268 0.592388 0
0.75 0.6 0
0.711732 0.592388 0
0.679289 0.570711 0
0.657612 0.538268 0
0.65 0.5 0
0.657612 0.461732 0
0.679289 0.429289 0
0.711732 0.407612 0
0.75 0.4 0
0.788268 0.407612 0
0.820711 0.429289 0
0.842388 0.461732 0
0.0793651 0 0
0.15873 0 0
0.238095 0 0
0.31746 0 0
0.396825 0 0
0.47619 0 0
0.555556 0 0
0.634921 0 0
0.714286 0 0
0.793651 0 0
0.873016 0 0
0.952381 0 0
1.03175 0 0
1.11111 0 0
1.19048 0 0
1.26984 0 0
1.34921 0 0
1.42857 0 0
1.50794 0 0
1.5873 0 0
1.66667 0 0
1.74603 0 0
1.8254 0 0
1.90476 0 0
1.98413 0 0
2.06349 0 0
2.14286 0 0
2.22222 0 0
2.30159 0 0
2.38095 0 0
2.46032 0 0
2.53968 0 0
2.61905 0 0
2.69841 0 0
2.77778 0 0
2.85714 0 0
2.93651 0 0
3.01587 0 0
3.09524 0 0
3.1746 0 0
3.25397 0 0
3.33333 0 0
3.4127 0 0
3.49206 0 0
3.57143 0 0
3.65079 0 0
3.73016 0 0
3.80952 0 0
3.88889 0 0
3.96825 0 0
4.04762 0 0
4.12698 0 0
4.20635 0 0
4.28571 0 0
4.36508 0 0
4.44444 0 0
4.52381 0 0
4.60317 0 0
4.68254 0 0
4.7619 0 0
4.84127 0 0
4.92063 0 0
5 0.0769231 0
5 0.153846 0
5 0.230769 0
5 0.307692 0
5 0.384615 0
5 0.461538 0
5 0.538462 0
5 0.615385 0
5 0.692308 0
5 0.769231 0
5 0.846154 0
5 0.923077 0
4.92063 1 0
4.84127 1 0
4.7619 1 0
4.68254 1 0
4.60317 1 0
4.52381 1 0
4.44444 1 0
4.36508 1 0
4.28571 1 0
4.20635 1 0
4.12698 1 0
4.04762 1 0
3.96825 1 0
3.88889 1 0
3.80952 1 0
3.73016 1 0
3.65079 1 0
3.57143 1 0
3.49206 1 0
3.4127 1 0
3.33333 1 0
3.25397 1 0
3.1746 1 0
3.09524 1 0
3.01587 1 0
2.93651 1 0
2.85714 1 0
2.77778 1 0
2.69841 1 0
2.61905 1 0
2.53968 1 0
2.46032 1 0
2.38095 1 0
2.30159 1 0
2.22222 1 0
2.14286 1 0
2.06349 1 0
1.98413 1 0
1.90476 1 0
1.8254 1 0
1.74603 1 0
1.66667 1 0
1.5873 1 0
1.50794 1 0
1.42857 1 0
1.34921 1 0
1.26984 1 0
1.19048 1 0
1.11111 1 0
1.03175 1 0
0.952381 1 0
0.873016 1 0
0.793651 1 0
0.714286 1 0
0.634921 1 0
0.555556 1 0
0.47619 1 0
0.396825 1 0
0.31746 1 0
0.238095 1 0
0.15873 1 0
0.0793651 1 0
0 0.923077 0
0 0.846154 0
0 0.769231 0
0 0.692308 0
0 0.615385 0
0 0.538462 0
0 0.461538 0
0 0.384615 0
0 0.307692 0
0 0.230769 0
0 0.153846 0
0 0.0769231 0
0.879698 0.466718 0
1.3085 0.931947 0
1.30532 0.0638546 0
4.93832 0.504275 0
0.620452 0.46964 0
3.99858 0.0669607 0
1.63721 0.934258 0
3.3751 0.0523709 0
4.3254 0.0687322 0
2.42354 0.0642082 0
2.97619 0.0687322 0
2.02101 0.0693621 0
3.68108 0.0581336 0
2.65899 0.932655 0
4.178 0.939994 0
3.21614 0.938179 0
2.25483 0.919987 0
3.53215 0.928998 0
3.84921 0.931268 0
1.69647 0.0674297 0
1.94349 0.930209 0
4.48413 0.931268 0
2.97813 0.942022 0
2.74097 0.0673855 0
0.859645 0.573263 0
0.639718 0.573116 0
0.0651563 0.652836 0
0.0635304 0.346121 0
4.56232 0.0679683 0
0.830393 0.392645 0
0.669618 0.39275 0
1.06185 0.0668897 0
0.440193 0.0680031 0
1.06474 0.93511 0
0.446074 0.935974 0
0.724697 0.630698 0
4.72268 0.931235 0
4.93065 0.267192 0
0.589836 0.936152 0
0.92338 0.0562425 0
0.590207 0.0623339 0
0.755872 0.0732784 0
0.838039 0.936714 0
4.92573 0.732039 0
0.281717 0.93783 0
0.28208 0.0811877 0
0.065248 0.503161 0
1.46076 0.0637037 0
4.72574 0.0661877 0
4.31028 0.937908 0
3.21429 0.0687322 0
1.46639 0.932632 0
3.6897 0.928155 0
2.42063 0.931268 0
3.5364 0.0691789 0
2.25998 0.0676208 0
1.78735 0.937047 0
4.01535 0.920637 0
1.85469 0.0674188 0
3.83991 0.0626292 0
3.37477 0.929368 0
2.58225 0.0657863 0
2.81746 0.932342 0
4.16667 0.0687322 0
2.11402 0.935574 0
0.0614266 0.197046 0
0.0612841 0.803003 0
4.88273 0.0644126 0
4.87774 0.933272 0
0.859645 0.426737 0
0.903081 0.436592 0
0.923672 0.473385 0
0.948706 0.439078 0
0.969155 0.479795 0
0.996593 0.439791 0
1.0202 0.484937 0
1.04667 0.440138 0
1.07382 0.489694 0
1.1034 0.440801 0
1.13169 0.49612 0
1.16603 0.445058 0
1.1931 0.504331 0
1.22956 0.450883 0
1.25923 0.506004 0
1.29683 0.453139 0
1.32923 0.510343 0
1.36603 0.454344 0
1.03276 0.530395 0
1.40063 0.516169 0
1.43576 0.454934 0
1.47042 0.520776 0
1.51069 0.46142 0
1.54422 0.526371 0
1.58547 0.465572 0
1.61942 0.531773 0
1.66033 0.468788 0
1.69546 0.536793 0
1.73713 0.472812 0
1.77239 0.541977 0
1.81532 0.478494 0
1.85006 0.547285 0
1.89327 0.483449 0
1.92802 0.55361 0
1.97142 0.488546 0
2.00623 0.558966 0
2.04984 0.493518 0
2.08483 0.564085 0
2.12847 0.498462 0
2.16353 0.569137 0
2.20719 0.503331 0
0.961579 0.391697 0
1.22451 0.565337 0
2.24238 0.574192 0
2.28611 0.508258 0
2.32134 0.579247 0
2.36519 0.513325 0
2.40036 0.584295 0
2.44425 0.51834 0
2.47944 0.589336 0
2.52334 0.523355 0
2.55853 0.594372 0
2.60245 0.52837 0
2.63764 0.599431 0
2.68159 0.533388 0
2.64637 0.462336 0
2.72553 0.467349 0
2.76076 0.538418 0
2.8047 0.47237 0
2.83993 0.543451 0
2.88387 0.477399 0
2.91911 0.548482 0
2.96305 0.482427 0
2.9983 0.553514 0
3.04224 0.487456 0
3.07749 0.558545 0
3.12143 0.492477 0
3.15668 0.563574 0
3.20063 0.497514 0
3.23588 0.568605 0
3.27983 0.502542 0
3.31508 0.573635 0
3.35903 0.507562 0
3.39428 0.578663 0
3.43823 0.5126 0
3.47348 0.583694 0
3.51744 0.517628 0
3.55268 0.588724 0
3.59664 0.522646 0
3.63189 0.593752 0
3.67585 0.527673 0
3.71109 0.598781 0
3.75505 0.532702 0
3.7903 0.60381 0
3.83426 0.537731 0
3.79901 0.466623 0
3.87821 0.471754 0
3.91346 0.542777 0
3.95742 0.476701 0
3.99267 0.547795 0
4.03662 0.481715 0
4.07187 0.552815 0
4.11582 0.486743 0
4.15106 0.55783 0
4.195 0.491782 0
4.23023 0.562843 0
4.27415 0.49682 0
4.30937 0.567866 0
4.35325 0.501915 0
4.38842 0.572845 0
4.43227 0.506997 0
4.46737 0.577575 0
4.51106 0.511995 0
4.54622 0.582183 0
1.13571 0.390292 0
4.47606 0.441361 0
4.55475 0.446396 0
2.32985 0.442214 0
3.5614 0.451571 0
3.08619 0.421408 0
2.09339 0.427815 0
1.42887 0.583001 0
2.84864 0.406329 0
3.32378 0.43649 0
4.23911 0.425894 0
1.54723 0.39251 0
1.77883 0.406811 0
1.33959 0.387065 0
3.92239 0.405803 0
4.08079 0.415776 0
2.48812 0.452349 0
1.57935 0.603183 0
1.93602 0.417543 0
1.72453 0.617973 0
3.11273 0.629643 0
2.69029 0.396284 0
3.94662 0.623383 0
1.88466 0.613248 0
2.79598 0.609502 0
4.10826 0.620575 0
2.04005 0.62838 0
2.95434 0.619575 0
4.51981 0.375801 0
4.59833 0.380943 0
4.63314 0.451296 0
4.26693 0.63114 0
2.19619 0.645921 0
4.4246 0.642296 0
3.27112 0.639707 0
2.35729 0.649822 0
2.51462 0.660373 0
3.42952 0.649769 0
4.67669 0.38601 0
3.58793 0.659829 0
3.74634 0.669888 0
4.64195 0.315733 0
4.44109 0.370647 0
4.48493 0.305066 0
4.40614 0.29989 0
4.71136 0.456133 0
4.72014 0.320758 0
0.8692 0.382093 0
0.841252 0.348256 0
0.886481 0.338703 0
0.853127 0.301457 0
0.902583 0.287335 0
0.801683 0.321689 0
0.818113 0.263019 0
0.764765 0.277091 0
4.44702 0.235678 0
0.946267 0.520761 0
0.78107 0.221265 0
0.726309 0.234724 0
0.848273 0.20551 0
4.68545 0.250576 0
4.37074 0.227561 0
4.76365 0.255792 0
4.79822 0.326145 0
0.713664 0.287231 0
0.672358 0.247957 0
0.68673 0.192342 0
0.630368 0.2085 0
0.616569 0.265341 0
0.574186 0.225456 0
0.557393 0.28131 0
0.52004 0.242373 0
0.504416 0.299685 0
0.462273 0.252096 0
0.44798 0.316739 0
0.404567 0.276951 0
0.390546 0.335414 0
0.434669 0.37657 0
0.377935 0.394545 0
0.421979 0.43426 0
0.365682 0.452846 0
0.409646 0.492216 0
0.353389 0.51089 0
0.397738 0.551598 0
0.339864 0.570301 0
0.385899 0.612153 0
0.325913 0.631557 0
0.344507 0.29318 0
0.320568 0.413067 0
0.373553 0.673852 0
0.434438 0.653082 0
0.311416 0.69481 0
0.449777 0.528305 0
0.293513 0.534612 0
0.421431 0.715204 0
0.480917 0.696603 0
0.54504 0.34471 0
0.262743 0.649913 0
0.246209 0.712341 0
0.468564 0.755948 0
0.526091 0.735423 0
0.538207 0.68039 0
0.581228 0.716342 0
0.408756 0.777952 0
0.36234 0.239019 0
0.297047 0.251925 0
0.572109 0.771575 0
0.624906 0.752173 0
0.474824 0.414151 0
0.534351 0.182707 0
0.633682 0.70159 0
0.674547 0.736174 0
0.66826 0.788959 0
0.721117 0.76834 0
0.714515 0.825486 0
0.769074 0.802008 0
0.775287 0.746591 0
0.821903 0.778625 0
0.826767 0.726064 0
0.873257 0.756032 0
0.872997 0.697261 0
0.92331 0.732304 0
0.930014 0.67838 0
0.976061 0.710612 0
0.92456 0.784469 0
0.982178 0.654421 0
1.03016 0.688004 0
1.02037 0.747059 0
1.08 0.723819 0
1.08651 0.661896 0
1.1397 0.698204 0
1.13262 0.763657 0
1.19424 0.736545 0
1.18556 0.80161 0
1.24839 0.771772 0
1.25723 0.706382 0
1.31432 0.745787 0
4.66801 0.521361 0
4.74602 0.526202 0
4.70285 0.591278 0
4.78076 0.596023 0
4.73763 0.661207 0
4.78904 0.460969 0
2.61113 0.391267 0
2.65506 0.325217 0
2.57588 0.320198 0
2.61982 0.254148 0
2.69899 0.259163 0
2.54065 0.249131 0
2.49672 0.315179 0
2.46148 0.244124 0
2.41757 0.310166 0
2.38233 0.239117 0
2.33843 0.30514 0
2.30297 0.237979 0
2.25928 0.300748 0
2.22079 0.221377 0
2.17969 0.293884 0
2.14114 0.224266 0
2.10047 0.289841 0
2.0653 0.219144 0
2.02202 0.284919 0
1.98701 0.214164 0
1.94336 0.279863 0
3.82315 0.673327 0
3.78135 0.738156 0
3.86451 0.735958 0
3.70234 0.735494 0
4.52513 0.244409 0
4.32717 0.294467 0
4.29217 0.221862 0
0.619934 0.539507 0
0.599432 0.577132 0
0.575955 0.542712 0
0.554504 0.58245 0
4.65962 0.656481 0
4.69438 0.726169 0
4.6161 0.721747 0
4.77259 0.731352 0
4.65076 0.791486 0
4.57153 0.788793 0
4.2482 0.289182 0
4.21307 0.218308 0
4.1691 0.284563 0
4.13394 0.21352 0
0.835918 0.606341 0
0.806475 0.6384 0
4.08995 0.279537 0
0.640355 0.426737 0
0.596214 0.435837 0
0.630358 0.379178 0
0.689967 0.627735 0
1.90832 0.209948 0
1.86468 0.27519 0
1.82968 0.20518 0
1.78607 0.269797 0
0.281841 0.313314 0
0.232117 0.268621 0
0.216861 0.334396 0
4.05473 0.209347 0
4.01077 0.2745 0
3.97554 0.204394 0
3.93159 0.269388 0
0.297409 0.759367 0
0.231645 0.782943 0
0.180008 0.73598 0
1.32151 0.676369 0
1.38055 0.718092 0
1.36901 0.793947 0
1.43945 0.766002 0
0.249902 0.198865 0
0.932364 0.624392 0
1.75117 0.201034 0
1.70771 0.264658 0
1.673 0.195402 0
1.62985 0.260294 0
1.59532 0.191927 0
1.55236 0.254233 0
3.89629 0.200227 0
3.85238 0.264494 0
3.81708 0.195303 0
3.77304 0.259453 0
2.66368 0.189084 0
2.74279 0.19534 0
2.77814 0.264556 0
2.82201 0.199823 0
2.85733 0.269552 0
2.90126 0.203886 0
2.93654 0.274416 0
2.98045 0.20868 0
3.01573 0.279376 0
3.0597 0.213193 0
[...]
CELL_DATA 2220
VECTORS velocity double
22.1967 -1.8786 0.0
16.3086 0.474791 0.0
24.2487 6.04418 0.0
23.9759 1.13245 0.0
22.6002 -2.23248 0.0
29.2966 -1.20897 0.0
13.7503 0.454874 0.0
15.3049 -0.0238763 0.0
27.0504 11.1768 0.0
28.8131 -0.83734 0.0
17.4592 16.637 0.0
14.5893 0.26218 0.0
11.6118 0.192888 0.0
23.7106 -6.60773 0.0
22.0955 15.5692 0.0
18.6959 11.1782 0.0
15.8102 0.717911 0.0
12.7705 0.578498 0.0
14.4062 -0.132399 0.0
15.6074 -0.115601 0.0
20.4993 4.60122 0.0
39.6427 -6.17694 0.0
14.8469 0.653665 0.0
15.1181 0.545914 0.0
27.1916 -1.08121 0.0
21.7758 -5.50835 0.0
21.1565 -2.28275 0.0
12.9637 0.532688 0.0
23.6523 1.20094 0.0
26.6353 1.14476 0.0
21.7988 -3.23951 0.0
32.0235 0.12896 0.0
10.7021 -0.116349 0.0
30.2981 -12.7365 0.0
46.7689 1.69623 0.0
29.4296 -1.36663 0.0
45.7083 2.54762 0.0
12.5214 -0.122231 0.0
27.8709 1.38949 0.0
27.1657 -1.86894 0.0
12.8727 -1.2255 0.0
27.1043 10.1875 0.0
20.1008 0.941079 0.0
13.9506 0.0140305 0.0
12.5889 -0.0490874 0.0
11.3089 0.0164016 0.0
14.6118 0.607239 0.0
11.4701 -0.0141108 0.0
28.5887 -0.719745 0.0
30.9576 0.483851 0.0
16.2239 3.62722 0.0
11.4837 0.0989903 0.0
14.3029 0.606426 0.0
14.5798 0.113409 0.0
13.1947 0.595996 0.0
27.0161 -2.4498 0.0
34.178 -0.411543 0.0
12.1198 0.537872 0.0
12.5424 0.54102 0.0
31.3093 0.368633 0.0
0.0061742 -5.07756 0.0
28.2996 -1.70684 0.0
23.4524 -4.33522 0.0
14.6592 0.602261 0.0
14.4876 0.665073 0.0
32.6985 -11.3261 0.0
18.8518 -1.13144 0.0
21.196 10.4625 0.0
12.266 0.643899 0.0
12.5102 0.566865 0.0
14.4416 0.164278 0.0
32.0302 11.7004 0.0
11.2582 0.156839 0.0
30.0615 0.954284 0.0
29.9322 -1.51581 0.0
47.2375 -0.328004 0.0
25.866 4.35918 0.0
16.6684 -3.46777 0.0
25.4877 10.0446 0.0
13.6759 0.114094 0.0
22.3531 2.75394 0.0
27.7287 2.72802 0.0
14.2675 -0.247528 0.0
11.2231 0.104802 0.0
14.1407 0.449634 0.0
14.085 0.240493 0.0
20.1337 -2.25504 0.0
11.7366 0.207301 0.0
11.9447 0.363172 0.0
27.8346 11.5018 0.0
24.3239 -3.73119 0.0
17.0025 4.37107 0.0
14.5557 -0.165198 0.0
24.0957 6.02712 0.0
46.4746 0.116987 0.0
27.0471 2.00663 0.0
41.1156 4.87159 0.0
4.08282 -18.087 0.0
0.729167 -3.91598 0.0
28.0537 13.4571 0.0
-5.75857 -18.2958 0.0
20.1724 -4.40112 0.0
14.4182 0.549881 0.0
12.1585 1.09714 0.0
41.0936 -5.79145 0.0
46.8826 -1.02096 0.0
29.986 -1.00718 0.0
30.723 -1.32984 0.0
4.19577 -0.0989774 0.0
14.5114 1.16697 0.0
30.3158 1.03571 0.0
26.5907 -8.17004 0.0
29.8059 -0.831633 0.0
10.5971 -0.589744 0.0
29.6761 -2.46493 0.0
12.2377 0.478977 0.0
22.4442 -5.41499 0.0
17.8431 -0.4393 0.0
2.64436 -20.7014 0.0
28.9239 10.6251 0.0
16.0883 -2.80576 0.0
36.7241 -0.664964 0.0
13.3907 3.25362 0.0
34.1646 -8.60952 0.0
47.4658 0.842458 0.0
12.7538 -11.6355 0.0
46.2149 -1.60682 0.0
22.7443 1.05792 0.0
25.6902 -7.77718 0.0
-1.55565 9.12707 0.0
11.8198 1.43408 0.0
34.6919 4.51079 0.0
27.9388 5.83428 0.0
14.0307 6.7457 0.0
27.3339 1.47025 0.0
11.3625 6.92733 0.0
10.4376 -0.00310083 0.0
17.8611 -3.58368 0.0
15.5191 -12.6301 0.0
33.2221 0.523068 0.0
19.8784 -4.63615 0.0
13.7349 -0.0311835 0.0
29.0782 -3.12484 0.0
46.9809 0.48573 0.0
29.4711 0.902613 0.0
21.7135 5.29173 0.0
-9.19839 9.13469 0.0
7.61443 -18.7121 0.0
29.8498 2.48821 0.0
30.4176 -1.9025 0.0
12.1683 -0.31863 0.0
28.4752 9.50599 0.0
37.3302 -0.016391 0.0
30.5692 -10.7625 0.0
6.3965 5.44639 0.0
15.5999 0.22463 0.0
21.6121 -1.39305 0.0
16.2204 0.375212 0.0
10.3126 -0.817769 0.0
15.2268 -3.54936 0.0
32.3883 8.42624 0.0
12.3153 0.0347932 0.0
-9.56 -9.37193 0.0
32.0971 0.130548 0.0
11.1651 0.0924526 0.0
31.2003 -12.2418 0.0
22.1912 -14.5488 0.0
47.8212 0.391221 0.0
15.4866 0.162097 0.0
24.6351 10.8649 0.0
-4.12044 15.2476 0.0
10.9462 0.0356723 0.0
14.3148 0.0807944 0.0
-2.23879 -9.43256 0.0
7.69558 -5.15338 0.0
25.4986 9.09966 0.0
24.1527 4.28392 0.0
23.8381 8.39811 0.0
8.29753 -1.76257 0.0
15.3634 0.0636772 0.0
36.0772 -0.280276 0.0
16.0653 -3.66741 0.0
17.2114 -15.6359 0.0
3.77313 14.6757 0.0
15.6294 -0.0139706 0.0
25.7359 -1.77638 0.0
46.5612 0.123481 0.0
12.4385 -0.300392 0.0
42.912 3.79574 0.0
47.765 0.236028 0.0
12.3839 -0.984934 0.0
12.2212 -0.19071 0.0
27.1189 -9.02164 0.0
30.0893 2.08636 0.0
21.7931 -0.443228 0.0
46.4256 -0.2768 0.0
21.0882 0.735172 0.0
14.0488 -0.466895 0.0
6.22818 -0.307144 0.0
14.4344 -0.486071 0.0
13.4503 -4.69259 0.0
19.2725 -0.818063 0.0
35.0984 -10.1133 0.0
14.614 -0.0976246 0.0
13.1102 1.41144 0.0
19.4247 -3.43594 0.0
21.3534 -4.1562 0.0
13.4432 0.032504 0.0
20.8364 1.16596 0.0
7.71028 -1.33866 0.0
14.3261 0.59522 0.0
11.4252 18.5901 0.0
20.4634 -0.183556 0.0
24.2552 10.8176 0.0
26.4823 5.49747 0.0
15.1082 1.80333 0.0
12.0654 0.549877 0.0
14.3277 0.778617 0.0
9.24865 1.8523 0.0
30.5433 0.897839 0.0
29.4085 0.568976 0.0
6.87838 -0.194899 0.0
11.9944 0.725503 0.0
6.5415 -0.0687552 0.0
14.5021 -0.068838 0.0
17.1753 -0.983387 0.0
13.7317 -2.54474 0.0
20.7256 15.9945 0.0
25.6471 -5.54628 0.0
11.2049 0.346956 0.0
18.0631 1.10657 0.0
19.422 -1.50935 0.0
9.86584 -0.0587193 0.0
14.8551 -0.16323 0.0
11.546 -0.245868 0.0
47.5489 0.123107 0.0
6.2471 -7.21773 0.0
14.4133 -0.195302 0.0
14.2864 -0.221073 0.0
12.6247 -0.0830958 0.0
46.369 -0.164737 0.0
36.2103 9.2741 0.0
43.3564 -3.92108 0.0
7.32016 0.00222151 0.0
12.9021 5.78203 0.0
30.6417 0.012778 0.0
15.636 -0.229509 0.0
33.0459 -0.740944 0.0
4.84601 6.61436 0.0
20.499 0.601765 0.0
11.2439 -6.09536 0.0
7.33612 -0.0528151 0.0
20.4819 -14.1033 0.0
28.8281 -0.161686 0.0
25.0588 -6.65045 0.0
14.124 0.325888 0.0
-9.46622 1.68224 0.0
29.814 0.208731 0.0
21.5573 -0.0881837 0.0
46.8852 0.207899 0.0
16.2035 -0.272653 0.0
38.1617 -0.425293 0.0
11.1294 0.546269 0.0
18.2226 -4.49096 0.0
7.10041 -0.610139 0.0
7.97285 -0.0645119 0.0
13.1656 -0.769698 0.0
12.0384 -4.78979 0.0
17.9135 4.54456 0.0
30.9358 -0.0514132 0.0
27.0397 1.04411 0.0
28.5193 0.0278318 0.0
11.8293 0.26549 0.0
28.304 -1.83021 0.0
3.69202 -11.6873 0.0
44.815 -2.51169 0.0
21.3635 -14.2624 0.0
17.1277 -2.51353 0.0
13.6179 3.05299 0.0
13.5706 0.0765088 0.0
10.2958 -15.0709 0.0
25.3166 -0.0366243 0.0
44.8493 -0.553928 0.0
19.9621 0.777797 0.0
28.1382 -1.61167 0.0
18.2114 -0.581284 0.0
35.4763 -0.259615 0.0
19.3512 0.676927 0.0
12.3351 -0.162559 0.0
11.8731 -0.18799 0.0
-9.46461 -2.13651 0.0
13.5068 -1.24249 0.0
8.11807 1.7208 0.0
15.1352 -5.15568 0.0
15.8177 -1.70143 0.0
18.7841 -0.196366 0.0
19.0721 -0.172065 0.0
21.5591 0.334922 0.0
42.6532 -3.77476 0.0
27.4352 5.28225 0.0
10.6662 -0.798487 0.0
26.3824 8.36386 0.0
24.6744 -6.95388 0.0
7.51091 0.0596037 0.0
19.7994 -12.3097 0.0
15.1455 0.705978 0.0
11.4931 -0.102791 0.0
12.0417 -0.199614 0.0
16.2803 0.284719 0.0
7.33618 1.34177 0.0
11.3138 1.8746 0.0
9.45883 3.5842 0.0
4.13145 18.2006 0.0
44.561 -1.43194 0.0
31.8517 11.7757 0.0
14.0179 -0.206759 0.0
24.4282 7.04225 0.0
11.665 -0.000875292 0.0
47.1718 -0.241965 0.0
27.5398 5.86167 0.0
21.6571 14.286 0.0
13.3577 3.14426 0.0
29.2585 0.238902 0.0
11.9088 0.113214 0.0
9.27898 5.4772 0.0
9.93481 -1.77528 0.0
28.522 0.0898364 0.0
27.9278 1.16026 0.0
29.9893 0.577836 0.0
9.10493 -1.86263 0.0
21.3385 -11.1024 0.0
46.2768 1.06662 0.0
19.0615 -3.9194 0.0
11.0415 -0.481238 0.0
31.867 -10.669 0.0
46.4992 -0.403452 0.0
24.6877 -0.844101 0.0
26.6667 8.32712 0.0
36.5751 -1.02868 0.0
14.1819 -0.223805 0.0
7.21646 0.879041 0.0
12.5903 -0.222374 0.0
6.56514 -0.131404 0.0
5.66225 -0.822957 0.0
19.1382 15.8633 0.0
26.7101 9.76895 0.0
8.0798 3.10336 0.0
26.8064 6.85125 0.0
28.4556 4.04079 0.0
4.83044 -0.940336 0.0
34.841 -8.23753 0.0
4.27243 0.808444 0.0
6.53193 0.186422 0.0
15.1663 10.5182 0.0
6.82279 0.878279 0.0
47.7555 -0.0144294 0.0
35.3591 -9.29513 0.0
3.9088 -0.375507 0.0
27.8807 0.791773 0.0
31.1192 -0.980135 0.0
27.4459 4.20458 0.0
7.06008 18.7116 0.0
21.9048 6.12453 0.0
27.0881 5.42683 0.0
6.05622 0.259101 0.0
31.185 0.747712 0.0
40.5211 6.51271 0.0
4.37868 -0.86516 0.0
6.38107 -0.210985 0.0
38.3117 -0.843795 0.0
4.48739 0.909069 0.0
41.6586 -4.67155 0.0
34.9298 9.79216 0.0
15.6632 -0.799363 0.0
6.38247 -0.0595753 0.0
13.0997 0.392372 0.0
20.0654 0.375528 0.0
20.3117 0.113363 0.0
47.2406 -0.00831326 0.0
18.9054 -0.126033 0.0
12.7606 0.628569 0.0
45.6765 0.128463 0.0
47.4488 -0.117561 0.0
29.9044 0.349813 0.0
43.9726 0.519894 0.0
28.0983 -0.127868 0.0
41.1437 -5.19433 0.0
29.2629 0.177969 0.0
22.6477 -6.14607 0.0
27.8651 3.17813 0.0
10.5134 0.630743 0.0
26.9764 0.0386222 0.0
30.7387 -0.613659 0.0
23.5557 -6.03368 0.0
9.13588 -0.702515 0.0
13.0931 -2.0063 0.0
46.6149 0.201523 0.0
8.78652 0.549285 0.0
29.303 0.166106 0.0
45.4924 0.47908 0.0
7.30797 0.214532 0.0
25.3386 3.97993 0.0
26.6022 4.76721 0.0
29.787 0.111671 0.0
39.6824 7.24884 0.0
43.6284 4.38702 0.0
5.253 2.89393 0.0
7.04142 1.07888 0.0
21.8326 1.15764 0.0
28.3449 -12.2397 0.0
15.012 -14.1773 0.0
5.44209 0.876556 0.0
43.1081 0.0409529 0.0
26.3018 -5.79663 0.0
45.7937 -0.459373 0.0
29.7803 0.132019 0.0
4.10316 -0.130335 0.0
4.0306 0.754472 0.0
26.8831 9.13544 0.0
6.32341 0.109978 0.0
27.1096 6.7838 0.0
43.5108 0.717973 0.0
4.24279 0.00144102 0.0
6.34469 -0.0378489 0.0
26.8556 3.68438 0.0
26.9489 0.395799 0.0
4.00555 0.138301 0.0
23.9703 -0.131349 0.0
29.3756 0.179175 0.0
7.39242 -1.05902 0.0
29.8229 0.122762 0.0
24.8233 3.57447 0.0
45.0835 -0.711183 0.0
28.0811 2.3751 0.0
6.77399 -0.492139 0.0
41.391 5.34894 0.0
5.33959 -0.937604 0.0
6.60057 0.365336 0.0
19.8287 -9.80786 0.0
6.53635 0.376521 0.0
24.7729 4.56305 0.0
27.2084 2.80233 0.0
40.8273 4.58214 0.0
44.5047 3.07403 0.0
10.7115 -0.86323 0.0
18.487 3.4553 0.0
45.6524 0.448657 0.0
3.98936 -0.489262 0.0
3.64321 0.489653 0.0
12.1748 -1.21434 0.0
10.303 0.789253 0.0
29.4152 -0.613745 0.0
7.26636 -0.337902 0.0
24.083 0.625742 0.0
29.5083 1.42735 0.0
6.76063 0.731045 0.0
12.4297 0.5801 0.0
26.3947 6.04191 0.0
6.99745 0.305974 0.0
27.9825 1.69705 0.0
24.8846 2.76023 0.0
27.7966 0.387707 0.0
6.32554 -0.409052 0.0
4.90904 0.290478 0.0
7.99692 0.597326 0.0
20.4468 -0.432228 0.0
9.6301 -1.2413 0.0
29.9027 0.143607 0.0
4.11157 0.0763783 0.0
43.5586 2.29412 0.0
7.44182 -0.436549 0.0
3.61898 0.576604 0.0
15.2291 -1.1667 0.0
26.3974 7.45239 0.0
7.1886 -0.831544 0.0
27.8251 0.303903 0.0
27.0587 2.08631 0.0
23.6889 4.28883 0.0
29.4985 0.192477 0.0
24.8535 2.1112 0.0
15.5547 -2.19228 0.0
33.1593 -8.96763 0.0
28.7883 -3.54997 0.0
24.7777 1.58242 0.0
6.58558 -0.540305 0.0
7.02544 0.56332 0.0
45.7412 -0.121869 0.0
3.47138 0.334627 0.0
35.0223 -0.626342 0.0
16.6159 4.86512 0.0
29.6327 0.187041 0.0
3.5433 0.405141 0.0
4.0675 -0.611549 0.0
27.0525 1.50179 0.0
26.6044 8.86269 0.0
20.8697 -0.14082 0.0
31.3219 -0.874383 0.0
25.529 0.061927 0.0
27.4939 -0.830772 0.0
13.2182 -6.00146 0.0
26.053 -0.0913325 0.0
23.5544 3.04655 0.0
3.82846 -0.265427 0.0
24.7125 1.15634 0.0
20.745 4.24304 0.0
12.4313 -0.541754 0.0
29.334 0.361859 0.0
4.3637 -0.323477 0.0
4.8192 0.329567 0.0
23.556 3.89408 0.0
26.8648 -0.117735 0.0
25.5542 -0.890275 0.0
14.6954 -0.122983 0.0
26.7389 1.10571 0.0
30.0067 0.157134 0.0
26.5613 -4.36431 0.0
4.15216 1.10684 0.0
27.8128 0.54718 0.0
28.5568 -4.04031 0.0
23.4767 1.81214 0.0
23.5997 3.05399 0.0
8.07881 -1.8711 0.0
30.9284 -11.9838 0.0
5.1874 -3.73801 0.0
26.0882 -13.6527 0.0
27.4096 -0.990909 0.0
28.4129 4.47488 0.0
27.3258 1.39416 0.0
4.30645 -0.972628 0.0
24.6794 0.840911 0.0
24.9437 1.83448 0.0
23.3981 1.36995 0.0
30.7019 0.0927684 0.0
23.5471 2.35909 0.0
26.9791 0.727425 0.0
26.4982 -0.659036 0.0
24.9808 -3.45567 0.0
8.51546 -2.73969 0.0
44.5964 -0.719312 0.0
11.6914 -0.111294 0.0
21.4252 -3.58405 0.0
7.03098 -4.89451 0.0
37.3765 8.06021 0.0
30.1904 0.117727 0.0
2.94371 -0.235581 0.0
3.01921 0.243381 0.0
26.9168 0.521913 0.0
42.8215 0.778699 0.0
24.7009 0.62833 0.0
18.9666 4.15618 0.0
4.32595 -0.195128 0.0
7.09473 -0.289858 0.0
5.6119 0.525497 0.0
2.77688 1.51789 0.0
5.74907 -2.64765 0.0
27.6392 -5.35364 0.0
30.8176 0.0791668 0.0
40.9248 5.90744 0.0
0.960985 0.811615 0.0
22.3123 -0.0495302 0.0
23.7911 -0.0496681 0.0
22.7351 -2.70529 0.0
19.333 4.66075 0.0
1.08094 -0.774209 0.0
2.99799 -1.37241 0.0
20.3296 0.347411 0.0
20.9654 0.803506 0.0
23.3936 1.01673 0.0
16.6939 -2.16515 0.0
26.8607 -0.0637991 0.0
47.5859 -0.264445 0.0
27.7969 -0.0583783 0.0
22.0926 3.63388 0.0
29.8419 0.0986098 0.0
3.91869 -0.236955 0.0
26.6107 7.44064 0.0
29.6636 0.32125 0.0
27.8908 0.275864 0.0
29.3602 0.0232142 0.0
25.3058 -1.68514 0.0
3.76415 0.164823 0.0
29.7407 -0.124609 0.0
5.17096 -0.645502 0.0
12.2176 1.34303 0.0
19.5065 -0.279194 0.0
24.7407 0.503838 0.0
23.3943 0.754783 0.0
28.4094 0.895076 0.0
29.2229 0.742149 0.0
28.5155 1.05602 0.0
3.4245 0.232733 0.0
6.53964 0.408721 0.0
5.71001 -0.413629 0.0
30.0959 0.111537 0.0
27.0199 0.335206 0.0
44.7608 0.544099 0.0
5.04771 0.753312 0.0
27.1434 0.0721745 0.0
26.061 2.16034 0.0
10.3163 5.20035 0.0
27.466 -0.0463158 0.0
2.40743 0.444583 0.0
26.445 -0.081167 0.0
25.7342 -0.602538 0.0
26.602 -0.514071 0.0
20.0957 -0.23093 0.0
18.5452 -0.220948 0.0
26.1253 -0.121994 0.0
6.76943 -0.718771 0.0
46.3862 -1.19691 0.0
29.7151 -0.111552 0.0
28.4064 -0.140855 0.0
28.0147 0.276109 0.0
24.8469 0.435254 0.0
13.915 -0.00248907 0.0
27.1263 0.318474 0.0
29.9144 -2.46965 0.0
29.8707 0.0485708 0.0
6.97092 0.270519 0.0
24.2183 2.98445 0.0
2.56207 -0.406307 0.0
30.0465 0.394814 0.0
30.3046 0.256407 0.0
24.9971 0.405474 0.0
1.83055 0.637454 0.0
30.4426 -10.9289 0.0
30.2146 0.0752512 0.0
29.0708 0.84059 0.0
27.1442 -0.0844548 0.0
28.1515 -0.230897 0.0
28.1875 0.277725 0.0
30.0256 0.115979 0.0
29.9503 0.199329 0.0
30.1128 0.148988 0.0
25.2292 0.399519 0.0
3.13088 0.230856 0.0
10.6908 0.70284 0.0
29.1919 -0.460933 0.0
21.5631 8.87062 0.0
1.95772 -0.590501 0.0
6.12464 -0.268295 0.0
25.331 -12.2677 0.0
26.0573 2.05981 0.0
27.3066 0.320843 0.0
11.4248 -0.506922 0.0
28.1983 -0.164265 0.0
28.8565 -0.131929 0.0
18.451 5.25074 0.0
5.95144 0.391268 0.0
2.94384 -0.265525 0.0
29.4437 -2.99515 0.0
22.1184 3.16237 0.0
26.3871 -1.68391 0.0
30.2281 0.321839 0.0
11.1783 -1.62879 0.0
27.5186 0.307965 0.0
23.4354 0.599434 0.0
29.8422 -0.0480568 0.0
2.80534 0.311242 0.0
28.3851 0.25166 0.0
29.8649 0.00113306 0.0
3.41724 -0.11724 0.0
25.5139 0.37644 0.0
29.7603 0.152311 0.0
30.4329 0.418068 0.0
28.753 0.103337 0.0
28.6989 -0.180536 0.0
30.1966 0.0310256 0.0
25.2593 -0.705745 0.0
28.7595 -0.0745591 0.0
28.6051 0.183656 0.0
28.1497 0.0639963 0.0
28.0389 -0.206341 0.0
3.2146 -0.17113 0.0
28.8364 0.225228 0.0
27.8989 -0.23524 0.0
4.26811 0.180125 0.0
30.1553 -0.0164763 0.0
6.75529 0.343356 0.0
27.7664 0.243567 0.0
28.5662 -0.216818 0.0
30.4529 0.32927 0.0
29.3886 -0.0514001 0.0
28.8436 0.039181 0.0
30.235 0.246572 0.0
13.7503 0.180977 0.0
26.2204 0.14926 0.0
24.5968 1.0313 0.0
25.7548 0.280536 0.0
3.08199 -0.0335778 0.0
29.6332 0.135836 0.0
27.997 0.143652 0.0
23.1328 -3.17064 0.0
3.5489 -0.264746 0.0
23.6952 0.454026 0.0
3.47218 0.189485 0.0
21.9307 -3.03924 0.0
25.6037 1.16974 0.0
23.9194 0.433318 0.0
26.879 -0.133298 0.0
27.7714 -0.243943 0.0
24.2479 0.424703 0.0
28.927 -0.0621531 0.0
36.0515 9.54623 0.0
21.7156 -3.51161 0.0
28.214 -0.049318 0.0
30.3011 0.44387 0.0
30.2048 0.446106 0.0
30.406 0.308829 0.0
28.4493 -0.235732 0.0
30.5858 0.34575 0.0
24.7246 -0.121356 0.0
30.5661 0.336972 0.0
27.4841 -0.138627 0.0
26.4067 0.0580356 0.0
12.9525 0.312154 0.0
29.0336 0.00473273 0.0
30.5657 0.316547 0.0
22.9402 -0.56049 0.0
30.341 0.387836 0.0
28.3449 -0.229878 0.0
27.6573 -0.22252 0.0
3.3197 0.177808 0.0
28.2489 0.0052333 0.0
23.5436 0.50933 0.0
30.7113 0.314515 0.0
21.6282 -0.186288 0.0
7.22774 0.20826 0.0
26.577 -0.00726096 0.0
30.3764 0.296984 0.0
24.8963 0.211479 0.0
24.2573 -0.125188 0.0
27.5538 -0.165021 0.0
30.3849 0.174485 0.0
28.2542 -0.192635 0.0
25.296 0.0993953 0.0
16.8025 3.9861 0.0
30.1074 -0.067775 0.0
30.71 0.277648 0.0
29.5766 0.656661 0.0
12.6622 -0.0707466 0.0
28.3178 -0.0451935 0.0
23.2795 -0.143666 0.0
3.83359 0.12397 0.0
6.71502 0.247052 0.0
28.165 -0.126857 0.0
29.85 0.255525 0.0
26.2873 -0.248501 0.0
27.4441 -0.0844617 0.0
30.6148 0.236568 0.0
26.6553 -0.179148 0.0
26.7124 -0.0600452 0.0
27.2948 -0.00331632 0.0
23.6253 -0.176683 0.0
25.8624 -0.164691 0.0
30.8129 0.233681 0.0
23.904 -0.146906 0.0
30.1837 0.151244 0.0
26.1119 -0.260364 0.0
27.0574 -0.212139 0.0
25.637 -0.205102 0.0
23.361 -0.211201 0.0
29.8779 0.229665 0.0
28.0549 -0.0496872 0.0
4.70765 0.139628 0.0
7.36287 0.203151 0.0
30.6173 0.100742 0.0
30.3389 0.0360855 0.0
24.4736 0.382389 0.0
25.492 0.0192777 0.0
25.701 -0.0409174 0.0
30.4997 0.397734 0.0
27.0744 0.0579581 0.0
29.6838 0.610526 0.0
28.8962 -0.0129092 0.0
23.1171 -0.245267 0.0
25.052 -0.264942 0.0
25.5068 0.018288 0.0
27.8978 0.0179806 0.0
30.8119 0.180652 0.0
29.8158 -0.098252 0.0
25.4375 -0.24003 0.0
28.3303 8.48973 0.0
22.1776 -0.194834 0.0
25.2431 -0.264407 0.0
22.8973 -0.275645 0.0
27.9345 1.11512 0.0
26.794 0.0797502 0.0
27.684 0.0560947 0.0
25.9632 -0.237585 0.0
22.4767 -0.165785 0.0
24.5757 -0.0152228 0.0
30.3078 0.265337 0.0
22.6596 -0.283209 0.0
24.8929 -0.213725 0.0
26.5191 0.0522817 0.0
14.5566 0.143882 0.0
29.3362 0.145714 0.0
22.3943 -0.222173 0.0
12.6533 0.100132 0.0
21.9078 -0.227492 0.0
27.4457 0.050444 0.0
22.2535 -0.105156 0.0
24.74 -0.120015 0.0
22.8124 -0.149259 0.0
3.37444 -0.0497952 0.0
6.33311 -0.0907929 0.0
14.5139 0.210621 0.0
26.3583 -0.219191 0.0
25.6849 -0.0745976 0.0
26.3038 -0.00457721 0.0
27.2344 0.00594255 0.0
22.0443 0.0110063 0.0
7.14928 0.0947928 0.0
30.4545 0.199945 0.0
6.52046 -0.0988399 0.0
30.858 0.0975295 0.0
26.18 -0.0598372 0.0
21.6539 -0.261405 0.0
25.1933 0.0909927 0.0
21.3488 -0.290679 0.0
30.8346 0.0175459 0.0
24.8042 0.122242 0.0
3.49801 -0.0514007 0.0
6.42701 -0.0995627 0.0
25.828 -0.169089 0.0
3.7582 0.0577841 0.0
27.0874 -0.0549941 0.0
21.091 -0.26647 0.0
20.8792 -0.156788 0.0
24.3127 0.0727297 0.0
26.8113 -0.117496 0.0
30.5057 0.0291567 0.0
24.4462 0.0971535 0.0
24.1631 0.0346853 0.0
6.49015 -0.0853482 0.0
3.63866 -0.0510486 0.0
12.0615 0.172649 0.0
20.6843 -0.0263196 0.0
23.8904 0.131808 0.0
26.4618 -0.218729 0.0
23.4379 0.142141 0.0
27.7147 -0.0597007 0.0
12.3496 0.19377 0.0
23.0704 0.086553 0.0
27.0445 -0.0990241 0.0
23.978 -0.0150886 0.0
6.51788 0.0993522 0.0
3.29398 -0.0345649 0.0
2.7733 -0.0506542 0.0
3.54666 -0.0458392 0.0
6.44005 -0.0271487 0.0
6.85177 0.107781 0.0
3.012 -0.0124607 0.0
3.40773 0.000910723 0.0
6.29901 -0.0866816 0.0
3.30427 -0.032784 0.0
3.57237 -0.0277267 0.0
3.77688 0.086013 0.0
6.98488 -0.0867454 0.0
3.67503 0.0537948 0.0
6.22072 -0.060796 0.0
3.52607 0.0529491 0.0
6.61944 -0.0463891 0.0
6.42258 -0.0507337 0.0
3.43593 0.105949 0.0
7.09693 0.125976 0.0
6.2932 -0.0717144 0.0
6.16574 -0.0776798 0.0
3.51609 0.169928 0.0
5.97094 -0.0429632 0.0
6.39889 0.133038 0.0
3.24336 -0.0275325 0.0
6.2356 -0.0433585 0.0
3.68212 0.00523378 0.0
3.26497 0.0620859 0.0
6.04451 -0.101771 0.0
3.52844 0.125309 0.0
4.24734 0.067782 0.0
3.54746 0.212336 0.0
2.9948 0.0551011 0.0
3.22324 -0.0105565 0.0
6.30225 0.0168473 0.0
3.39682 -0.0494892 0.0
3.48583 -0.0512055 0.0
3.61148 0.136813 0.0
3.64413 0.134915 0.0
3.53466 -0.011296 0.0
3.48119 0.0386601 0.0
2.96628 -0.0507799 0.0
3.35117 -0.0295473 0.0
4.15819 -0.00552181 0.0
7.03987 -0.0179256 0.0
3.60093 -0.0996586 0.0
4.28585 0.0510668 0.0
5.98316 0.111996 0.0
5.88251 -0.111657 0.0
3.31648 -0.0444362 0.0
3.64401 0.140263 0.0
3.35391 0.028779 0.0
6.5781 -0.00260232 0.0
3.18501 0.0709065 0.0
3.52731 0.0538372 0.0
3.2933 -0.0460451 0.0
6.65168 0.265228 0.0
4.06036 -0.0574371 0.0
2.90243 0.0125805 0.0
3.2945 0.00896032 0.0
2.80842 0.0330256 0.0
3.61889 0.0542952 0.0
3.65428 -0.016926 0.0
5.50824 -0.0462749 0.0
2.50558 -0.0172061 0.0
6.48576 0.252666 0.0
6.69812 0.0926908 0.0
26.6426 -0.115811 0.0
26.1994 -0.0750682 0.0
28.9463 -0.110151 0.0
22.8101 0.023154 0.0
30.4869 -0.201913 0.0
30.5525 -0.0410479 0.0
22.5848 0.0060771 0.0
30.5526 -0.204351 0.0
30.7541 -0.140115 0.0
30.6169 -0.208043 0.0
30.8157 -0.0613584 0.0
23.9388 -0.00630562 0.0
26.3614 -0.0619543 0.0
30.6959 -0.171885 0.0
25.5962 -0.10483 0.0
30.393 -0.156911 0.0
27.1414 -0.105046 0.0
30.3344 -0.132717 0.0
28.6231 -0.156103 0.0
29.1131 -0.181742 0.0
19.7448 0.0712212 0.0
30.3206 -0.215986 0.0
30.2051 -0.0846905 0.0
29.2525 -0.154568 0.0
30.4548 -0.153317 0.0
22.066 -0.080164 0.0
28.3652 -0.0935243 0.0
26.3816 -0.0925439 0.0