# vtk DataFile Version 3.0
Malha 2D com triângulos e temperatura
ASCII
DATASET UNSTRUCTURED_GRID

POINTS 1194 double
0 0 0
5 0 0
5 1 0
0 1 0
0.85 0.5 0
0.842388 0.538268 0
0.820711 0.570711 0
0.788268 0.592388 0
0.75 0.6 0
0.711732 0.592388 0
0.679289 0.570711 0
0.657612 0.538268 0
0.65 0.5 0
0.657612 0.461732 0
0.679289 0.429289 0
0.711732 0.407612 0
0.75 0.4 0
0.788268 0.407612 0
0.820711 0.429289 0
0.842388 0.461732 0
0.0793651 0 0
0.15873 0 0
0.238095 0 0
0.31746 0 0
0.396825 0 0
0.47619 0 0
0.555556 0 0
0.634921 0 0
0.714286 0 0
0.793651 0 0
0.873016 0 0
0.952381 0 0
1.03175 0 0
1.11111 0 0
1.19048 0 0
1.26984 0 0
1.34921 0 0
1.42857 0 0
1.50794 0 0
1.5873 0 0
1.66667 0 0
1.74603 0 0
1.8254 0 0
1.90476 0 0
1.98413 0 0
2.06349 0 0
2.14286 0 0
2.22222 0 0
2.30159 0 0
2.38095 0 0
2.46032 0 0
2.53968 0 0
2.61905 0 0
2.69841 0 0
2.77778 0 0
2.85714 0 0
2.93651 0 0
3.01587 0 0
3.09524 0 0
3.1746 0 0
3.25397 0 0
3.33333 0 0
3.4127 0 0
3.49206 0 0
3.57143 0 0
3.65079 0 0
3.73016 0 0
3.80952 0 0
3.88889 0 0
3.96825 0 0
4.04762 0 0
4.12698 0 0
4.20635 0 0
4.28571 0 0
4.36508 0 0
4.44444 0 0
4.52381 0 0
4.60317 0 0
4.68254 0 0
4.7619 0 0
4.84127 0 0
4.92063 0 0
5 0.0769231 0
5 0.153846 0
5 0.230769 0
5 0.307692 0
5 0.384615 0
5 0.461538 0
5 0.538462 0
5 0.615385 0
5 0.692308 0
5 0.769231 0
5 0.846154 0
5 0.923077 0
4.92063 1 0
4.84127 1 0
4.7619 1 0
4.68254 1 0
4.60317 1 0
4.52381 1 0
4.44444 1 0
4.36508 1 0
4.28571 1 0
4.20635 1 0
4.12698 1 0
4.04762 1 0
3.96825 1 0
3.88889 1 0
3.80952 1 0
3.73016 1 0
3.65079 1 0
3.57143 1 0
3.49206 1 0
3.4127 1 0
3.33333 1 0
3.25397 1 0
3.1746 1 0
3.09524 1 0
3.01587 1 0
2.93651 1 0
2.85714 1 0
2.77778 1 0
2.69841 1 0
2.61905 1 0
2.53968 1 0
2.46032 1 0
2.38095 1 0
2.30159 1 0
2.22222 1 0
2.14286 1 0
2.06349 1 0
1.98413 1 0
1.90476 1 0
1.8254 1 0
1.74603 1 0
1.66667 1 0
1.5873 1 0
1.50794 1 0
1.42857 1 0
1.34921 1 0
1.26984 1 0
1.19048 1 0
1.11111 1 0
1.03175 1 0
0.952381 1 0
0.873016 1 0
0.793651 1 0
0.714286 1 0
0.634921 1 0
0.555556 1 0
0.47619 1 0
0.396825 1 0
0.31746 1 0
0.238095 1 0
0.15873 1 0
0.0793651 1 0
0 0.923077 0
0 0.846154 0
0 0.769231 0
0 0.692308 0
0 0.615385 0
0 0.538462 0
0 0.461538 0
0 0.384615 0
0 0.307692 0
0 0.230769 0
0 0.153846 0
0 0.0769231 0
0.879698 0.466718 0
1.3085 0.931947 0
1.30532 0.0638546 0
4.93832 0.504275 0
0.620452 0.46964 0
3.99858 0.0669607 0
1.63721 0.934258 0
3.3751 0.0523709 0
4.3254 0.0687322 0
2.42354 0.0642082 0
2.97619 0.0687322 0
2.02101 0.0693621 0
3.68108 0.0581336 0
2.65899 0.932655 0
4.178 0.939994 0
3.21614 0.938179 0
2.25483 0.919987 0
3.53215 0.928998 0
3.84921 0.931268 0
1.69647 0.0674297 0
1.94349 0.930209 0
4.48413 0.931268 0
2.97813 0.942022 0
2.74097 0.0673855 0
0.859645 0.573263 0
0.639718 0.573116 0
0.0651563 0.652836 0
0.0635304 0.346121 0
4.56232 0.0679683 0
0.830393 0.392645 0
0.669618 0.39275 0
1.06185 0.0668897 0
0.440193 0.0680031 0
1.06474 0.93511 0
0.446074 0.935974 0
0.724697 0.630698 0
4.72268 0.931235 0
4.93065 0.267192 0
0.589836 0.936152 0
0.92338 0.0562425 0
0.590207 0.0623339 0
0.755872 0.0732784 0
0.838039 0.936714 0
4.92573 0.732039 0
0.281717 0.93783 0
0.28208 0.0811877 0
0.065248 0.503161 0
1.46076 0.0637037 0
4.72574 0.0661877 0
4.31028 0.937908 0
3.21429 0.0687322 0
1.46639 0.932632 0
3.6897 0.928155 0
2.42063 0.931268 0
3.5364 0.0691789 0
2.25998 0.0676208 0
1.78735 0.937047 0
4.01535 0.920637 0
1.85469 0.0674188 0
3.83991 0.0626292 0
3.37477 0.929368 0
2.58225 0.0657863 0
2.81746 0.932342 0
4.16667 0.0687322 0
2.11402 0.935574 0
0.0614266 0.197046 0
0.0612841 0.803003 0
4.88273 0.0644126 0
4.87774 0.933272 0
0.859645 0.426737 0
0.903081 0.436592 0
0.923672 0.473385 0
0.948706 0.439078 0
0.969155 0.479795 0
0.996593 0.439791 0
1.0202 0.484937 0
1.04667 0.440138 0
1.07382 0.489694 0
1.1034 0.440801 0
1.13169 0.49612 0
1.16603 0.445058 0
1.1931 0.504331 0
1.22956 0.450883 0
1.25923 0.506004 0
1.29683 0.453139 0
1.32923 0.510343 0
1.36603 0.454344 0
1.03276 0.530395 0
1.40063 0.516169 0
1.43576 0.454934 0
1.47042 0.520776 0
1.51069 0.46142 0
1.54422 0.526371 0
1.58547 0.465572 0
1.61942 0.531773 0
1.66033 0.468788 0
1.69546 0.536793 0
1.73713 0.472812 0
1.77239 0.541977 0
1.81532 0.478494 0
1.85006 0.547285 0
1.89327 0.483449 0
1.92802 0.55361 0
1.97142 0.488546 0
2.00623 0.558966 0
2.04984 0.493518 0
2.08483 0.564085 0
2.12847 0.498462 0
2.16353 0.569137 0
2.20719 0.503331 0
0.961579 0.391697 0
1.22451 0.565337 0
2.24238 0.574192 0
2.28611 0.508258 0
2.32134 0.579247 0
2.36519 0.513325 0
2.40036 0.584295 0
2.44425 0.51834 0
2.47944 0.589336 0
2.52334 0.523355 0
2.55853 0.594372 0
2.60245 0.52837 0
2.63764 0.599431 0
2.68159 0.533388 0
2.64637 0.462336 0
2.72553 0.467349 0
2.76076 0.538418 0
2.8047 0.47237 0
2.83993 0.543451 0
2.88387 0.477399 0
2.91911 0.548482 0
2.96305 0.482427 0
2.9983 0.553514 0
3.04224 0.487456 0
3.07749 0.558545 0
3.12143 0.492477 0
3.15668 0.563574 0
3.20063 0.497514 0
3.23588 0.568605 0
3.27983 0.502542 0
3.31508 0.573635 0
3.35903 0.507562 0
3.39428 0.578663 0
3.43823 0.5126 0
3.47348 0.583694 0
3.51744 0.517628 0
3.55268 0.588724 0
3.59664 0.522646 0
3.63189 0.593752 0
3.67585 0.527673 0
3.71109 0.598781 0
3.75505 0.532702 0
3.7903 0.60381 0
3.83426 0.537731 0
3.79901 0.466623 0
3.87821 0.471754 0
3.91346 0.542777 0
3.95742 0.476701 0
3.99267 0.547795 0
4.03662 0.481715 0
4.07187 0.552815 0
4.11582 0.486743 0
4.15106 0.55783 0
4.195 0.491782 0
4.23023 0.562843 0
4.27415 0.49682 0
4.30937 0.567866 0
4.35325 0.501915 0
4.38842 0.572845 0
4.43227 0.506997 0
4.46737 0.577575 0
4.51106 0.511995 0
4.54622 0.582183 0
1.13571 0.390292 0
4.47606 0.441361 0
4.55475 0.446396 0
2.32985 0.442214 0
3.5614 0.451571 0
3.08619 0.421408 0
2.09339 0.427815 0
1.42887 0.583001 0
2.84864 0.406329 0
3.32378 0.43649 0
4.23911 0.425894 0
1.54723 0.39251 0
1.77883 0.406811 0
1.33959 0.387065 0
3.92239 0.405803 0
4.08079 0.415776 0
2.48812 0.452349 0
1.57935 0.603183 0
1.93602 0.417543 0
1.72453 0.617973 0
3.11273 0.629643 0
2.69029 0.396284 0
3.94662 0.623383 0
1.88466 0.613248 0
2.79598 0.609502 0
4.10826 0.620575 0
2.04005 0.62838 0
2.95434 0.619575 0
4.51981 0.375801 0
4.59833 0.380943 0
4.63314 0.451296 0
4.26693 0.63114 0
2.19619 0.645921 0
4.4246 0.642296 0
3.27112 0.639707 0
2.35729 0.649822 0
2.51462 0.660373 0
3.42952 0.649769 0
4.67669 0.38601 0
3.58793 0.659829 0
3.74634 0.669888 0
4.64195 0.315733 0
4.44109 0.370647 0
4.48493 0.305066 0
4.40614 0.29989 0
4.71136 0.456133 0
4.72014 0.320758 0
0.8692 0.382093 0
0.841252 0.348256 0
0.886481 0.338703 0
0.853127 0.301457 0
0.902583 0.287335 0
0.801683 0.321689 0
0.818113 0.263019 0
0.764765 0.277091 0
4.44702 0.235678 0
0.946267 0.520761 0
0.78107 0.221265 0
0.726309 0.234724 0
0.848273 0.20551 0
4.68545 0.250576 0
4.37074 0.227561 0
4.76365 0.255792 0
4.79822 0.326145 0
0.713664 0.287231 0
0.672358 0.247957 0
0.68673 0.192342 0
0.630368 0.2085 0
0.616569 0.265341 0
0.574186 0.225456 0
0.557393 0.28131 0
0.52004 0.242373 0
0.504416 0.299685 0
0.462273 0.252096 0
0.44798 0.316739 0
0.404567 0.276951 0
0.390546 0.335414 0
0.434669 0.37657 0
0.377935 0.394545 0
0.421979 0.43426 0
0.365682 0.452846 0
0.409646 0.492216 0
0.353389 0.51089 0
0.397738 0.551598 0
0.339864 0.570301 0
0.385899 0.612153 0
0.325913 0.631557 0
0.344507 0.29318 0
0.320568 0.413067 0
0.373553 0.673852 0
0.434438 0.653082 0
0.311416 0.69481 0
0.449777 0.528305 0
0.293513 0.534612 0
0.421431 0.715204 0
0.480917 0.696603 0
0.54504 0.34471 0
0.262743 0.649913 0
0.246209 0.712341 0
0.468564 0.755948 0
0.526091 0.735423 0
0.538207 0.68039 0
0.581228 0.716342 0
0.408756 0.777952 0
0.36234 0.239019 0
0.297047 0.251925 0
0.572109 0.771575 0
0.624906 0.752173 0
0.474824 0.414151 0
0.534351 0.182707 0
0.633682 0.70159 0
0.674547 0.736174 0
0.66826 0.788959 0
0.721117 0.76834 0
0.714515 0.825486 0
0.769074 0.802008 0
0.775287 0.746591 0
0.821903 0.778625 0
0.826767 0.726064 0
0.873257 0.756032 0
0.872997 0.697261 0
0.92331 0.732304 0
0.930014 0.67838 0
0.976061 0.710612 0
0.92456 0.784469 0
0.982178 0.654421 0
1.03016 0.688004 0
1.02037 0.747059 0
1.08 0.723819 0
1.08651 0.661896 0
1.1397 0.698204 0
1.13262 0.763657 0
1.19424 0.736545 0
1.18556 0.80161 0
1.24839 0.771772 0
1.25723 0.706382 0
1.31432 0.745787 0
4.66801 0.521361 0
4.74602 0.526202 0
4.70285 0.591278 0
4.78076 0.596023 0
4.73763 0.661207 0
4.78904 0.460969 0
2.61113 0.391267 0
2.65506 0.325217 0
2.57588 0.320198 0
2.61982 0.254148 0
2.69899 0.259163 0
2.54065 0.249131 0
2.49672 0.315179 0
2.46148 0.244124 0
2.41757 0.310166 0
2.38233 0.239117 0
2.33843 0.30514 0
2.30297 0.237979 0
2.25928 0.300748 0
2.22079 0.221377 0
2.17969 0.293884 0
2.14114 0.224266 0
2.10047 0.289841 0
2.0653 0.219144 0
2.02202 0.284919 0
1.98701 0.214164 0
1.94336 0.279863 0
3.82315 0.673327 0
3.78135 0.738156 0
3.86451 0.735958 0
3.70234 0.735494 0
4.52513 0.244409 0
4.32717 0.294467 0
4.29217 0.221862 0
0.619934 0.539507 0
0.599432 0.577132 0
0.575955 0.542712 0
0.554504 0.58245 0
4.65962 0.656481 0
4.69438 0.726169 0
4.6161 0.721747 0
4.77259 0.731352 0
4.65076 0.791486 0
4.57153 0.788793 0
4.2482 0.289182 0
4.21307 0.218308 0
4.1691 0.284563 0
4.13394 0.21352 0
0.835918 0.606341 0
0.806475 0.6384 0
4.08995 0.279537 0
0.640355 0.426737 0
0.596214 0.435837 0
0.630358 0.379178 0
0.689967 0.627735 0
1.90832 0.209948 0
1.86468 0.27519 0
1.82968 0.20518 0
1.78607 0.269797 0
0.281841 0.313314 0
0.232117 0.268621 0
0.216861 0.334396 0
4.05473 0.209347 0
4.01077 0.2745 0
3.97554 0.204394 0
3.93159 0.269388 0
0.297409 0.759367 0
0.231645 0.782943 0
0.180008 0.73598 0
1.32151 0.676369 0
1.38055 0.718092 0
1.36901 0.793947 0
1.43945 0.766002 0
0.249902 0.198865 0
0.932364 0.624392 0
1.75117 0.201034 0
1.70771 0.264658 0
1.673 0.195402 0
1.62985 0.260294 0
1.59532 0.191927 0
1.55236 0.254233 0
3.89629 0.200227 0
3.85238 0.264494 0
3.81708 0.195303 0
3.77304 0.259453 0
2.66368 0.189084 0
2.74279 0.19534 0
2.77814 0.264556 0
2.82201 0.199823 0
2.85733 0.269552 0
2.90126 0.203886 0
2.93654 0.274416 0
2.98045 0.20868 0
3.01573 0.279376 0
3.0597 0.213193 0
[...]
CELL_DATA 2220
VECTORS velocity double
24.0028 -1.98664 0.0
17.6679 0.485711 0.0
25.0378 6.0888 0.0
24.6466 1.13673 0.0
24.4049 -2.34831 0.0
32.207 -1.28674 0.0
14.865 0.465016 0.0
16.5614 -0.031225 0.0
28.3093 11.265 0.0
31.7114 -0.901312 0.0
18.1133 16.6502 0.0
15.8019 0.258784 0.0
12.5438 0.19046 0.0
24.8361 -6.70354 0.0
22.8169 15.5755 0.0
19.9819 11.2536 0.0
17.0617 0.811893 0.0
13.7749 0.617893 0.0
15.5871 -0.138222 0.0
16.9175 -0.122309 0.0
21.1358 4.63718 0.0
40.7252 -6.1528 0.0
16.0425 0.708453 0.0
16.3719 0.558685 0.0
29.6388 -1.09996 0.0
22.8457 -5.60431 0.0
21.7411 -2.29234 0.0
14.0102 0.544712 0.0
24.3003 1.20533 0.0
27.3647 1.14853 0.0
23.7307 -3.27558 0.0
32.9859 0.132886 0.0
11.5358 -0.120441 0.0
31.2134 -12.7399 0.0
48.257 1.6819 0.0
32.3193 -1.45081 0.0
47.1044 2.53108 0.0
13.5357 -0.12773 0.0
28.6673 1.39485 0.0
27.9359 -1.8733 0.0
13.2039 -1.23107 0.0
28.3956 10.286 0.0
20.65 0.944426 0.0
15.0553 0.000396657 0.0
13.5852 -0.0691045 0.0
12.1707 0.00324614 0.0
15.7997 0.641222 0.0
12.3629 -0.0199701 0.0
31.4671 -0.77785 0.0
34.0754 0.5272 0.0
16.7302 3.66093 0.0
12.4093 0.0967333 0.0
15.479 0.625729 0.0
15.8069 0.110519 0.0
14.2163 0.660838 0.0
27.7804 -2.45747 0.0
35.2117 -0.407973 0.0
13.0872 0.555908 0.0
13.5358 0.565401 0.0
34.4416 0.40403 0.0
-0.0957038 -5.72079 0.0
30.8502 -1.7457 0.0
25.4557 -4.3913 0.0
15.8717 0.617909 0.0
15.6651 0.697008 0.0
33.7113 -11.3381 0.0
19.3328 -1.13549 0.0
22.616 10.5488 0.0
13.2254 0.673613 0.0
13.5152 0.581506 0.0
15.6542 0.161799 0.0
32.9916 11.7053 0.0
12.163 0.15515 0.0
33.0226 1.02164 0.0
30.3904 -1.50165 0.0
48.8742 -0.31891 0.0
28.0373 4.44219 0.0
17.5354 -3.55089 0.0
26.9909 10.1529 0.0
14.7839 0.113547 0.0
22.9759 2.76483 0.0
28.5141 2.73535 0.0
14.6076 -0.24823 0.0
12.101 0.103963 0.0
15.2923 0.462565 0.0
15.2338 0.244423 0.0
21.6402 -2.36326 0.0
12.6631 0.209617 0.0
12.89 0.372063 0.0
29.0184 11.5777 0.0
24.462 -3.71248 0.0
17.7193 4.44007 0.0
15.7656 -0.171971 0.0
25.5 6.15584 0.0
48.1163 0.125408 0.0
27.8074 2.01054 0.0
42.2187 4.84949 0.0
4.47405 -18.1063 0.0
0.604388 -4.37295 0.0
28.9513 13.4703 0.0
-5.55744 -18.322 0.0
21.2899 -4.50438 0.0
15.5947 0.57106 0.0
13.0238 1.14931 0.0
42.2738 -5.77263 0.0
48.4423 -1.0091 0.0
33.0382 -1.07132 0.0
33.6512 -1.37787 0.0
4.4669 -0.11963 0.0
15.6002 1.22595 0.0
31.2137 1.03971 0.0
27.6843 -8.24822 0.0
32.8621 -0.890048 0.0
10.8368 -0.591808 0.0
32.3603 -2.54141 0.0
13.2076 0.494021 0.0
23.6554 -5.52366 0.0
18.2931 -0.440628 0.0
2.82971 -20.688 0.0
30.0442 10.6926 0.0
17.0302 -2.89275 0.0
37.9829 -0.669592 0.0
13.9057 3.30255 0.0
34.9799 -8.5778 0.0
49.0517 0.829909 0.0
13.7981 -11.6852 0.0
47.6885 -1.59346 0.0
23.3247 1.06089 0.0
27.0045 -7.88341 0.0
-0.919693 9.16452 0.0
12.4996 1.738 0.0
35.4497 4.49911 0.0
28.4904 5.85344 0.0
14.6385 8.28139 0.0
28.093 1.47549 0.0
11.602 8.31284 0.0
11.2401 -0.00534491 0.0
18.4087 -3.61529 0.0
16.5806 -12.6841 0.0
34.2424 0.528234 0.0
20.5491 -4.68185 0.0
14.8409 -0.0345514 0.0
31.6366 -3.21227 0.0
48.5666 0.473527 0.0
32.3776 0.970117 0.0
22.899 5.40526 0.0
-8.84511 9.17079 0.0
7.99777 -18.7164 0.0
32.5137 2.59552 0.0
33.2778 -1.9749 0.0
13.087 -0.355651 0.0
29.5518 9.57429 0.0
38.6188 -0.0173254 0.0
31.2662 -10.7282 0.0
6.27245 6.30855 0.0
16.8673 0.230676 0.0
22.1664 -1.39784 0.0
17.5612 0.384855 0.0
10.4789 -0.81955 0.0
15.8382 -3.60462 0.0
33.0864 8.39893 0.0
13.2668 0.0261305 0.0
-9.2297 -9.40406 0.0
33.0613 0.126194 0.0
12.0531 0.0907774 0.0
32.0834 -12.2329 0.0
23.1562 -14.5907 0.0
49.4355 0.386402 0.0
16.7459 0.167303 0.0
25.0524 10.8562 0.0
-3.775 15.2847 0.0
11.7854 0.0290336 0.0
15.499 0.0784727 0.0
-1.64595 -9.4645 0.0
8.79948 -5.17713 0.0
27.1372 9.21362 0.0
26.2024 4.35352 0.0
25.5377 8.49942 0.0
8.59902 -1.79015 0.0
16.5938 0.0544682 0.0
37.3069 -0.282464 0.0
16.6219 -3.71042 0.0
17.3448 -15.5784 0.0
4.37808 14.7172 0.0
16.9128 -0.0203176 0.0
28.0279 -1.80397 0.0
48.0466 0.124044 0.0
13.3597 -0.387964 0.0
44.1152 3.77626 0.0
49.3791 0.234077 0.0
12.6032 -0.987193 0.0
13.2032 -0.196432 0.0
28.328 -9.10899 0.0
32.8324 2.18542 0.0
22.4002 -0.446471 0.0
47.9006 -0.272722 0.0
22.9582 0.825233 0.0
15.092 -0.59544 0.0
6.36649 -0.308249 0.0
15.5553 -0.534208 0.0
14.5183 -6.28958 0.0
20.8139 -1.05003 0.0
36.0889 -10.1026 0.0
15.802 -0.124513 0.0
13.4472 1.41753 0.0
20.6409 -3.54347 0.0
21.9984 -4.1871 0.0
14.5126 0.0232258 0.0
22.5419 1.42591 0.0
8.08725 -1.37575 0.0
15.501 0.619838 0.0
11.7472 18.5691 0.0
22.32 -0.193902 0.0
25.6753 10.9146 0.0
28.5967 5.60346 0.0
16.0679 2.19317 0.0
13.0219 0.572927 0.0
15.4668 0.818146 0.0
9.51338 1.86972 0.0
31.1424 0.916745 0.0
32.3757 0.620454 0.0
7.34357 -0.239738 0.0
12.9092 0.761597 0.0
6.99172 -0.0935709 0.0
15.6814 -0.0891603 0.0
18.4447 -1.2423 0.0
14.4624 -2.61525 0.0
21.3262 15.9838 0.0
26.4524 -5.58296 0.0
11.4883 0.348215 0.0
19.4467 1.34456 0.0
20.9557 -1.60183 0.0
10.588 -0.0825442 0.0
16.0199 -0.227993 0.0
11.8398 -0.247408 0.0
49.271 0.122114 0.0
7.23084 -7.24822 0.0
15.607 -0.202211 0.0
15.467 -0.227826 0.0
13.5902 -0.118902 0.0
47.9723 -0.175747 0.0
37.1952 9.25589 0.0
44.6755 -3.90663 0.0
7.84685 -0.000470171 0.0
13.293 6.90918 0.0
33.8857 0.0259869 0.0
16.8699 -0.316813 0.0
34.1212 -0.745187 0.0
4.62322 7.65586 0.0
21.0634 0.604328 0.0
11.5186 -7.33886 0.0
7.86542 -0.0556937 0.0
21.4987 -14.1536 0.0
31.7776 -0.17957 0.0
26.9837 -6.74372 0.0
15.2764 0.333519 0.0
-9.03806 1.69307 0.0
32.9192 0.236131 0.0
22.1534 -0.0871664 0.0
48.5866 0.211568 0.0
17.5728 -0.280428 0.0
39.4965 -0.428918 0.0
11.4051 0.547989 0.0
18.9288 -4.55047 0.0
7.55378 -0.643458 0.0
8.1363 -0.0648713 0.0
14.0558 -0.964359 0.0
13.3577 -4.81658 0.0
18.5379 4.59428 0.0
34.2099 -0.0425449 0.0
29.6098 1.119 0.0
31.3528 0.02092 0.0
12.7653 0.270434 0.0
30.9406 -1.93598 0.0
4.42025 -11.7252 0.0
46.229 -2.49794 0.0
21.7128 -14.216 0.0
18.7756 -2.53181 0.0
14.255 3.11762 0.0
13.8907 0.0767062 0.0
11.0375 -15.1091 0.0
26.0377 -0.0396643 0.0
46.3462 -0.543575 0.0
21.6749 0.887111 0.0
30.7967 -1.71042 0.0
19.6706 -0.75459 0.0
36.5743 -0.265854 0.0
21.0328 0.746054 0.0
13.329 -0.168283 0.0
12.8211 -0.192727 0.0
-9.03943 -2.14485 0.0
14.4483 -1.31008 0.0
8.46646 1.75671 0.0
16.1492 -6.68847 0.0
16.9258 -1.78496 0.0
20.4456 -0.205775 0.0
20.767 -0.181381 0.0
22.1379 0.335987 0.0
43.958 -3.76471 0.0
29.625 5.40031 0.0
11.3056 -0.991669 0.0
28.0944 8.48887 0.0
25.6578 -7.02756 0.0
7.66292 0.059702 0.0
20.9953 -12.3746 0.0
16.3023 0.819439 0.0
12.3563 -0.146164 0.0
13.0065 -0.204994 0.0
16.679 0.285469 0.0
7.6922 1.37775 0.0
11.6142 1.887 0.0
10.9246 5.1446 0.0
4.51785 18.2204 0.0
46.0056 -1.42094 0.0
32.7595 11.7688 0.0
15.1698 -0.212073 0.0
26.2857 7.14196 0.0
11.962 -0.000474271 0.0
48.8733 -0.249494 0.0
29.6308 5.9948 0.0
22.0441 14.2499 0.0
13.8194 3.18388 0.0
32.2902 0.266777 0.0
12.2107 0.112664 0.0
10.2131 7.46132 0.0
10.2136 -1.7915 0.0
31.3501 0.082023 0.0
30.5904 1.24038 0.0
33.0203 0.629044 0.0
9.3923 -1.885 0.0
22.6875 -11.1773 0.0
47.793 1.05395 0.0
20.7901 -3.95391 0.0
11.3129 -0.483204 0.0
32.9309 -10.7026 0.0
48.1427 -0.413463 0.0
25.3924 -0.84864 0.0
28.2555 8.45558 0.0
37.8069 -1.03527 0.0
15.3517 -0.230031 0.0
7.39482 0.884105 0.0
13.6001 -0.228164 0.0
6.72442 -0.131682 0.0
5.80643 -0.829631 0.0
19.5165 15.8259 0.0
28.1236 9.87959 0.0
8.22266 3.64383 0.0
28.5874 6.99222 0.0
30.7768 4.17581 0.0
4.98465 -0.953525 0.0
35.9156 -8.25642 0.0
4.3928 0.81738 0.0
6.68844 0.186657 0.0
16.382 10.5828 0.0
7.21971 0.911818 0.0
49.4691 -0.020288 0.0
36.4362 -9.30609 0.0
4.1374 -0.393668 0.0
30.6076 0.854926 0.0
32.0617 -0.986414 0.0
29.5839 4.34763 0.0
7.44072 18.719 0.0
22.7306 6.19125 0.0
29.057 5.57281 0.0
6.19968 0.259887 0.0
34.2373 0.797763 0.0
41.643 6.49236 0.0
4.54147 -0.880831 0.0
6.53223 -0.211935 0.0
39.6404 -0.849748 0.0
4.65444 0.925983 0.0
42.8319 -4.64943 0.0
35.9872 9.80202 0.0
16.874 -0.861169 0.0
6.85192 -0.0612041 0.0
13.3942 0.393289 0.0
21.8172 0.38639 0.0
22.1082 0.109347 0.0
48.9649 -0.0117919 0.0
20.5526 -0.131239 0.0
13.0828 0.630031 0.0
47.2665 0.137787 0.0
49.128 -0.127015 0.0
32.9806 0.3878 0.0
45.4999 0.52849 0.0
30.9315 -0.144469 0.0
42.3749 -5.18658 0.0
32.3152 0.197889 0.0
23.5949 -6.2238 0.0
30.1765 3.31078 0.0
10.7526 0.632533 0.0
29.5914 0.0319188 0.0
31.7083 -0.616624 0.0
25.4555 -6.10858 0.0
9.31294 -0.704248 0.0
13.8657 -2.07641 0.0
48.3229 0.202486 0.0
8.95555 0.55069 0.0
32.3688 0.180691 0.0
47.1299 0.485667 0.0
7.44809 0.214992 0.0
26.0657 3.99736 0.0
28.5576 4.91314 0.0
32.9284 0.125097 0.0
40.7891 7.23086 0.0
44.9299 4.37294 0.0
5.20984 3.35047 0.0
7.4199 1.11454 0.0
22.4285 1.15952 0.0
29.4456 -12.2917 0.0
15.9363 -14.2242 0.0
5.58266 0.883758 0.0
44.5507 0.0499204 0.0
28.376 -5.89616 0.0
47.462 -0.466444 0.0
32.9082 0.151068 0.0
4.16726 -0.130747 0.0
4.2046 0.772427 0.0
28.0596 9.22777 0.0
6.47576 0.110427 0.0
29.0307 6.92004 0.0
45.0567 0.724685 0.0
4.31701 0.00137889 0.0
6.49765 -0.0383868 0.0
28.9679 3.82438 0.0
29.6368 0.429297 0.0
4.06782 0.13859 0.0
26.2075 -0.139678 0.0
32.4507 0.190392 0.0
7.79262 -1.09611 0.0
32.9724 0.132695 0.0
26.6775 3.71057 0.0
46.689 -0.720474 0.0
30.5434 2.49196 0.0
6.88145 -0.493133 0.0
42.5232 5.3268 0.0
5.48902 -0.947754 0.0
6.70108 0.366106 0.0
21.253 -9.87845 0.0
6.68239 0.377541 0.0
26.4902 4.7036 0.0
29.4872 2.92991 0.0
42.0555 4.57819 0.0
45.8762 3.06139 0.0
10.8981 -0.865183 0.0
19.0197 3.47789 0.0
47.3156 0.453358 0.0
4.2034 -0.508363 0.0
3.83659 0.507064 0.0
12.8782 -1.49726 0.0
10.4623 0.790706 0.0
32.4438 -0.661526 0.0
7.39365 -0.338845 0.0
24.7438 0.627718 0.0
32.314 1.51384 0.0
7.1825 0.762003 0.0
12.6852 0.581477 0.0
28.1787 6.18635 0.0
7.11912 0.306663 0.0
30.5518 1.79562 0.0
26.866 2.88574 0.0
30.599 0.423744 0.0
6.44952 -0.410199 0.0
5.00472 0.291239 0.0
8.19053 0.599542 0.0
22.186 -0.584639 0.0
10.0875 -1.51221 0.0
33.0586 0.151448 0.0
4.18082 0.0765184 0.0
44.9193 2.2846 0.0
7.94326 -0.467699 0.0
3.79392 0.593836 0.0
15.5427 -1.1698 0.0
28.0057 7.58745 0.0
7.61476 -0.867337 0.0
30.6518 0.33064 0.0
29.4372 2.19723 0.0
24.3821 4.31272 0.0
32.5826 0.201566 0.0
26.9426 2.22195 0.0
16.5515 -2.27725 0.0
34.2197 -8.99686 0.0
31.2443 -3.67509 0.0
26.9572 1.67642 0.0
6.68706 -0.541392 0.0
7.13273 0.564304 0.0
47.4267 -0.125493 0.0
3.68322 0.348979 0.0
36.1105 -0.633165 0.0
17.5009 5.89264 0.0
32.725 0.194698 0.0
3.74643 0.421245 0.0
4.26559 -0.630678 0.0
29.5393 1.59468 0.0
28.0486 8.98198 0.0
22.7254 -0.147287 0.0
32.3059 -0.879232 0.0
27.9301 0.054939 0.0
28.2984 -0.83498 0.0
13.7382 -7.3913 0.0
28.61 -0.0946102 0.0
25.3268 3.17332 0.0
4.06701 -0.281759 0.0
26.9623 1.23326 0.0
22.5229 5.40752 0.0
13.3641 -0.587535 0.0
32.3409 0.400111 0.0
4.43409 -0.324199 0.0
4.89593 0.330241 0.0
25.2077 4.02769 0.0
29.5399 -0.122594 0.0
27.9549 -0.963103 0.0
15.8968 -0.127099 0.0
29.4858 1.40292 0.0
33.167 0.163773 0.0
28.7911 -4.44538 0.0
4.23135 1.30796 0.0
30.5806 0.595553 0.0
30.9288 -4.16543 0.0
25.4506 1.91214 0.0
25.7929 3.88767 0.0
8.31054 -2.22498 0.0
31.9519 -12.0092 0.0
5.0916 -4.2909 0.0
27.1047 -13.6938 0.0
30.0703 -1.06575 0.0
30.7136 4.60664 0.0
30.0505 1.75132 0.0
4.39596 -1.15168 0.0
26.9802 0.902035 0.0
27.5075 2.3627 0.0
25.4473 1.45366 0.0
33.9666 0.0949837 0.0
25.429 2.47401 0.0
29.6006 0.785943 0.0
27.2756 -0.66163 0.0
25.69 -3.47151 0.0
8.69348 -3.22782 0.0
46.2042 -0.727414 0.0
12.6208 -0.114463 0.0
23.0239 -4.5017 0.0
6.97349 -5.67677 0.0
38.4883 8.06381 0.0
33.3666 0.122365 0.0
2.97903 -0.235972 0.0
3.05477 0.243719 0.0
29.5721 0.56658 0.0
44.3161 0.786317 0.0
27.045 0.675651 0.0
20.7648 5.43123 0.0
4.60605 -0.211241 0.0
7.58434 -0.314765 0.0
5.90564 0.632834 0.0
2.72492 1.7513 0.0
5.74204 -3.06576 0.0
29.7999 -5.47538 0.0
34.1015 0.0802157 0.0
42.134 5.89984 0.0
0.901074 0.923373 0.0
24.3672 -0.0528322 0.0
26.0365 -0.0521908 0.0
24.9771 -3.57113 0.0
20.6229 5.73818 0.0
1.02827 -0.875428 0.0
2.96456 -1.57956 0.0
22.1062 0.357416 0.0
21.5 0.805685 0.0
25.5045 1.0846 0.0
17.7311 -2.66565 0.0
29.5299 -0.0696023 0.0
49.2333 -0.257067 0.0
30.5993 -0.0640648 0.0
23.8238 4.50523 0.0
32.9614 0.103417 0.0
3.97392 -0.23743 0.0
28.4712 7.56752 0.0
32.7248 0.355435 0.0
30.735 0.296006 0.0
32.3832 -0.0160392 0.0
27.8791 -2.22262 0.0
3.81531 0.165178 0.0
32.8152 -0.220557 0.0
5.38016 -0.783628 0.0
13.0411 1.40211 0.0
21.1536 -0.39386 0.0
27.1161 0.539973 0.0
25.5499 0.808322 0.0
31.2815 1.10648 0.0
32.1931 0.893311 0.0
31.3641 1.30049 0.0
3.65162 0.243068 0.0
7.0016 0.427414 0.0
6.01421 -0.511674 0.0
33.2503 0.0625571 0.0
29.7316 0.360375 0.0
46.2305 0.53329 0.0
5.25037 0.905678 0.0
29.9861 0.0606179 0.0
28.5055 2.71003 0.0
10.4866 6.1307 0.0
30.2391 -0.0519925 0.0
2.46814 0.530465 0.0
29.0779 -0.0873 0.0
28.4843 -0.819508 0.0
29.1909 -0.566505 0.0
21.908 -0.240724 0.0
20.1796 -0.230073 0.0
28.7265 -0.12917 0.0
6.9354 -0.723002 0.0
47.9203 -1.18429 0.0
32.7922 -0.211494 0.0
31.3214 -0.146418 0.0
30.8755 0.291715 0.0
27.2491 0.462859 0.0
15.0354 -0.00635569 0.0
29.8562 0.337781 0.0
32.6453 -2.55727 0.0
33.0067 0.0514327 0.0
7.4574 0.304043 0.0
26.3708 3.74966 0.0
2.62842 -0.486455 0.0
33.1789 0.430666 0.0
33.5132 0.234524 0.0
27.4227 0.426866 0.0
1.82365 0.744342 0.0
31.5306 -10.9755 0.0
33.4025 0.0784059 0.0
32.0083 1.00966 0.0
29.8894 -0.0910137 0.0
31.0568 -0.331237 0.0
31.0629 0.290296 0.0
33.1772 0.0626777 0.0
33.0627 0.191204 0.0
33.2795 0.154698 0.0
27.6789 0.416539 0.0
3.29301 0.276227 0.0
11.391 0.841169 0.0
32.1625 -0.638116 0.0
23.1387 8.9584 0.0
1.95695 -0.687637 0.0
6.50338 -0.334758 0.0
26.5446 -12.3385 0.0
28.4517 2.56573 0.0
30.0556 0.336121 0.0
12.2047 -0.637773 0.0
31.1229 -0.174389 0.0
31.8842 -0.141046 0.0
19.7041 6.52811 0.0
6.30402 0.46392 0.0
3.06918 -0.325177 0.0
32.0624 -3.10594 0.0
23.8321 3.89926 0.0
28.9879 -2.19616 0.0
33.4039 0.329158 0.0
11.4704 -1.63948 0.0
30.2842 0.320426 0.0
25.6282 0.640781 0.0
33.0049 -0.0505088 0.0
2.92311 0.374929 0.0
31.2754 0.262026 0.0
33.0157 0.00156036 0.0
3.62523 -0.144834 0.0
27.9865 0.390305 0.0
32.8645 0.158656 0.0
33.6743 0.433746 0.0
31.6921 0.109672 0.0
31.7044 -0.191847 0.0
33.3961 0.0321618 0.0
27.6361 -0.770476 0.0
31.7207 -0.0743224 0.0
31.519 0.192026 0.0
30.9986 0.0696844 0.0
30.9389 -0.218444 0.0
3.38687 -0.21281 0.0
31.8013 0.248036 0.0
30.7737 -0.248985 0.0
4.54045 0.205083 0.0
33.3646 -0.0178942 0.0
7.19499 0.396149 0.0
30.5537 0.253738 0.0
31.5492 -0.230096 0.0
33.6965 0.322195 0.0
32.4463 -0.0498165 0.0
31.8088 0.0432215 0.0
33.4368 0.220522 0.0
14.8651 0.182323 0.0
28.77 0.157978 0.0
26.8323 1.24629 0.0
28.2408 0.291794 0.0
3.28153 -0.0428077 0.0
32.7285 0.0861472 0.0
30.8142 0.151613 0.0
25.0891 -4.05533 0.0
3.59196 -0.26519 0.0
25.9462 0.478514 0.0
3.51201 0.189834 0.0
23.5895 -3.80541 0.0
27.9629 1.42771 0.0
26.198 0.452604 0.0
29.595 -0.141308 0.0
30.6205 -0.258769 0.0
26.5565 0.440313 0.0
31.935 -0.0637885 0.0
37.0693 9.53569 0.0
23.5815 -4.55004 0.0
31.116 -0.0611447 0.0
33.5222 0.46776 0.0
33.3844 0.479532 0.0
33.6403 0.297912 0.0
31.4094 -0.250495 0.0
33.8503 0.345864 0.0
27.0857 -0.127446 0.0
33.8226 0.348586 0.0
30.2951 -0.153689 0.0
28.9925 0.0643486 0.0
13.975 0.31919 0.0
32.0202 -0.0745699 0.0
33.8197 0.313187 0.0
25.0155 -0.619131 0.0
33.5657 0.406289 0.0
31.2821 -0.245454 0.0
30.4815 -0.237719 0.0
3.51302 0.208342 0.0
31.1269 0.00837544 0.0
25.7678 0.541072 0.0
33.9864 0.317189 0.0
23.5397 -0.285376 0.0
7.75977 0.213172 0.0
29.2006 -0.00355315 0.0
33.598 0.310121 0.0
27.259 0.221592 0.0
26.5815 -0.131313 0.0
30.3551 -0.179841 0.0
33.5992 0.182659 0.0
31.17 -0.208257 0.0
27.7184 0.107023 0.0
17.7385 4.81758 0.0
33.3236 -0.0721608 0.0
33.9743 0.277248 0.0
32.6161 0.765511 0.0
13.6626 -0.0744604 0.0
31.2209 -0.0449354 0.0
25.4634 -0.149603 0.0
4.10323 0.126825 0.0
7.21238 0.252897 0.0
31.0614 -0.141783 0.0
32.9682 0.24254 0.0
28.9152 -0.2613 0.0
30.2248 -0.0982459 0.0
33.8683 0.244621 0.0
29.3419 -0.188867 0.0
29.3686 -0.0592076 0.0
30.0542 -0.0155963 0.0
25.8836 -0.184639 0.0
28.4319 -0.173319 0.0
34.091 0.236206 0.0
26.1943 -0.153742 0.0
33.3179 0.146091 0.0
28.7077 -0.274054 0.0
29.7976 -0.223202 0.0
28.1751 -0.215307 0.0
25.5849 -0.220421 0.0
33.0177 0.203292 0.0
30.9326 -0.0633207 0.0
5.03502 0.142399 0.0
7.89587 0.207093 0.0
33.8643 0.105066 0.0
33.5436 0.0398512 0.0
26.7933 0.395165 0.0
27.9806 0.00832084 0.0
28.2052 -0.0384481 0.0
33.753 0.41218 0.0
29.8078 0.0474135 0.0
32.766 0.68938 0.0
31.8848 -0.0115287 0.0
25.3063 -0.255652 0.0
27.4923 -0.278165 0.0
27.9714 0.0234474 0.0
30.7548 0.00601269 0.0
34.0786 0.180504 0.0
32.9873 -0.103865 0.0
27.9447 -0.251672 0.0
29.3316 8.54855 0.0
24.2491 -0.202901 0.0
27.7176 -0.277118 0.0
25.0534 -0.286906 0.0
30.6612 1.36 0.0
29.4965 0.0709153 0.0
30.5165 0.0459061 0.0
28.5294 -0.251523 0.0
24.5838 -0.172779 0.0
26.9337 -0.0262315 0.0
33.4958 0.258601 0.0
24.7774 -0.294856 0.0
27.3022 -0.226794 0.0
29.1897 0.0448973 0.0
15.7046 0.139391 0.0
32.3834 0.100967 0.0
24.4686 -0.233537 0.0
13.6267 0.0953044 0.0
23.9441 -0.236661 0.0
30.251 0.0418974 0.0
24.3043 -0.115725 0.0
27.122 -0.132288 0.0
24.9545 -0.155461 0.0
3.61026 -0.0506644 0.0
6.79809 -0.092257 0.0
15.6723 0.20759 0.0
28.9987 -0.232528 0.0
28.1992 -0.0870233 0.0
28.9439 -0.0108944 0.0
30.0123 -0.00127733 0.0
24.0674 0.00164455 0.0
7.65506 0.0922213 0.0
33.6476 0.195773 0.0
7.0038 -0.101671 0.0
34.1345 0.0984626 0.0
28.7914 -0.0655008 0.0
23.6551 -0.271499 0.0
27.6487 0.0816993 0.0
23.3067 -0.30133 0.0
34.101 0.0162216 0.0
27.2191 0.114571 0.0
3.7445 -0.0528165 0.0
6.90222 -0.102218 0.0
28.367 -0.182572 0.0
4.0109 0.0567984 0.0
29.8388 -0.0612807 0.0
23.0076 -0.277137 0.0
22.7626 -0.166872 0.0
26.6402 0.0632608 0.0
29.5189 -0.131734 0.0
33.6979 0.0252601 0.0
26.823 0.0908063 0.0
26.503 0.0292506 0.0
6.97166 -0.088139 0.0
3.89563 -0.0525558 0.0
12.9878 0.169755 0.0
22.5415 -0.0353898 0.0
26.1741 0.123965 0.0
29.1191 -0.23013 0.0
25.6755 0.135753 0.0
30.5319 -0.0704624 0.0
13.3117 0.19165 0.0
25.2679 0.0812043 0.0
29.7718 -0.10478 0.0
26.2816 -0.0200099 0.0
6.98433 0.0983199 0.0
3.5243 -0.0355986 0.0
2.96454 -0.0517673 0.0
3.79829 -0.0472748 0.0
6.90573 -0.0289118 0.0
7.34451 0.109841 0.0
3.21662 -0.013296 0.0
3.63987 0.000146859 0.0
6.7603 -0.0875742 0.0
3.5328 -0.0327424 0.0
3.82071 -0.028638 0.0
4.03569 0.087734 0.0
7.50795 -0.0896325 0.0
3.93088 0.0533699 0.0
6.67862 -0.0627198 0.0
3.76818 0.0524872 0.0
7.10119 -0.0482414 0.0
6.8833 -0.0629073 0.0
3.67572 0.107837 0.0
7.6075 0.128857 0.0
6.75278 -0.0719746 0.0
6.61881 -0.0798438 0.0
3.76284 0.175374 0.0
6.40027 -0.0450769 0.0
6.8668 0.131578 0.0
3.46151 -0.0340942 0.0
6.68806 -0.0429527 0.0
3.93781 0.000675217 0.0
3.48949 0.0613257 0.0
6.48782 -0.104141 0.0
3.7732 0.13032 0.0
4.53757 0.0692362 0.0
3.7886 0.221062 0.0
3.1981 0.0542987 0.0
3.44453 -0.0101721 0.0
6.75654 0.017983 0.0
3.63368 -0.0500933 0.0
3.73076 -0.0525088 0.0
3.85986 0.144986 0.0
3.88936 0.148146 0.0
3.77816 -0.0170209 0.0
3.72884 0.0381534 0.0
3.17273 -0.0519267 0.0
3.58585 -0.0304786 0.0
4.445 -0.00709637 0.0
7.55336 -0.0203435 0.0
3.83798 -0.110801 0.0
4.57417 0.0491737 0.0
6.41313 0.110391 0.0
6.31239 -0.114121 0.0
3.54701 -0.0447243 0.0
3.90116 0.143722 0.0
3.58308 0.0295664 0.0
7.05725 -0.0123287 0.0
3.40661 0.0713408 0.0
3.77341 0.0531251 0.0
3.52323 -0.0472107 0.0
7.13067 0.284894 0.0
4.34548 -0.0589823 0.0
3.09445 0.00901149 0.0
3.51839 0.00676999 0.0
3.00154 0.0327906 0.0
3.86396 0.0536654 0.0
3.90748 -0.018012 0.0
5.89897 -0.048041 0.0
2.67611 -0.0180115 0.0
6.95695 0.264689 0.0
7.18694 0.0918016 0.0
29.2843 -0.12269 0.0
28.7873 -0.080495 0.0
31.9697 -0.115022 0.0
24.9675 0.0184457 0.0
33.7571 -0.208158 0.0
33.7919 -0.0401996 0.0
24.6956 0.0016672 0.0
33.8233 -0.209578 0.0
34.0225 -0.143136 0.0
33.8876 -0.212733 0.0
34.0903 -0.0625742 0.0
26.2084 -0.0110988 0.0
28.9321 -0.067705 0.0
33.9692 -0.175226 0.0
28.0849 -0.112174 0.0
33.6604 -0.164655 0.0
29.8491 -0.110723 0.0
33.5921 -0.141234 0.0
31.5611 -0.16193 0.0
32.1481 -0.187768 0.0
21.5231 0.0674791 0.0
33.5394 -0.221328 0.0
33.3484 -0.0894848 0.0
32.2696 -0.160245 0.0
33.662 -0.157705 0.0
24.085 -0.085316 0.0
31.2887 -0.0964225 0.0
28.9854 -0.101049 0.0
33.2805 -0.20269 0.0