# vtk DataFile Version 3.0
Malha 2D com triângulos e temperatura
ASCII
DATASET UNSTRUCTURED_GRID

POINTS 1194 double
0 0 0
5 0 0
5 1 0
0 1 0
0.85 0.5 0
0.842388 0.538268 0
0.820711 0.570711 0
0.788268 0.592388 0
0.75 0.6 0
0.711732 0.592388 0
0.679289 0.570711 0
0.657612 0.538268 0
0.65 0.5 0
0.657612 0.461732 0
0.679289 0.429289 0
0.711732 0.407612 0
0.75 0.4 0
0.788268 0.407612 0
0.820711 0.429289 0
0.842388 0.461732 0
0.0793651 0 0
0.15873 0 0
0.238095 0 0
0.31746 0 0
0.396825 0 0
0.47619 0 0
0.555556 0 0
0.634921 0 0
0.714286 0 0
0.793651 0 0
0.873016 0 0
0.952381 0 0
1.03175 0 0
1.11111 0 0
1.19048 0 0
1.26984 0 0
1.34921 0 0
1.42857 0 0
1.50794 0 0
1.5873 0 0
1.66667 0 0
1.74603 0 0
1.8254 0 0
1.90476 0 0
1.98413 0 0
2.06349 0 0
2.14286 0 0
2.22222 0 0
2.30159 0 0
2.38095 0 0
2.46032 0 0
2.53968 0 0
2.61905 0 0
2.69841 0 0
2.77778 0 0
2.85714 0 0
2.93651 0 0
3.01587 0 0
3.09524 0 0
3.1746 0 0
3.25397 0 0
3.33333 0 0
3.4127 0 0
3.49206 0 0
3.57143 0 0
3.65079 0 0
3.73016 0 0
3.80952 0 0
3.88889 0 0
3.96825 0 0
4.04762 0 0
4.12698 0 0
4.20635 0 0
4.28571 0 0
4.36508 0 0
4.44444 0 0
4.52381 0 0
4.60317 0 0
4.68254 0 0
4.7619 0 0
4.84127 0 0
4.92063 0 0
5 0.0769231 0
5 0.153846 0
5 0.230769 0
5 0.307692 0
5 0.384615 0
5 0.461538 0
5 0.538462 0
5 0.615385 0
5 0.692308 0
5 0.769231 0
5 0.846154 0
5 0.923077 0
4.92063 1 0
4.84127 1 0
4.7619 1 0
4.68254 1 0
4.60317 1 0
4.52381 1 0
4.44444 1 0
4.36508 1 0
4.28571 1 0
4.20635 1 0
4.12698 1 0
4.04762 1 0
3.96825 1 0
3.88889 1 0
3.80952 1 0
3.73016 1 0
3.65079 1 0
3.57143 1 0
3.49206 1 0
3.4127 1 0
3.33333 1 0
3.25397 1 0
3.1746 1 0
3.09524 1 0
3.01587 1 0
2.93651 1 0
2.85714 1 0
2.77778 1 0
2.69841 1 0
2.61905 1 0
2.53968 1 0
2.46032 1 0
2.38095 1 0
2.30159 1 0
2.22222 1 0
2.14286 1 0
2.06349 1 0
1.98413 1 0
1.90476 1 0
1.8254 1 0
1.74603 1 0
1.66667 1 0
1.5873 1 0
1.50794 1 0
1.42857 1 0
1.34921 1 0
1.26984 1 0
1.19048 1 0
1.11111 1 0
1.03175 1 0
0.952381 1 0
0.873016 1 0
0.793651 1 0
0.714286 1 0
0.634921 1 0
0.555556 1 0
0.47619 1 0
0.396825 1 0
0.31746 1 0
0.238095 1 0
0.15873 1 0
0.0793651 1 0
0 0.923077 0
0 0.846154 0
0 0.769231 0
0 0.692308 0
0 0.615385 0
0 0.538462 0
0 0.461538 0
0 0.384615 0
0 0.307692 0
0 0.230769 0
0 0.153846 0
0 0.0769231 0
0.879698 0.466718 0
1.3085 0.931947 0
1.30532 0.0638546 0
4.93832 0.504275 0
0.620452 0.46964 0
3.99858 0.0669607 0
1.63721 0.934258 0
3.3751 0.0523709 0
4.3254 0.0687322 0
2.42354 0.0642082 0
2.97619 0.0687322 0
2.02101 0.0693621 0
3.68108 0.0581336 0
2.65899 0.932655 0
4.178 0.939994 0
3.21614 0.938179 0
2.25483 0.919987 0
3.53215 0.928998 0
3.84921 0.931268 0
1.69647 0.0674297 0
1.94349 0.930209 0
4.48413 0.931268 0
2.97813 0.942022 0
2.74097 0.0673855 0
0.859645 0.573263 0
0.639718 0.573116 0
0.0651563 0.652836 0
0.0635304 0.346121 0
4.56232 0.0679683 0
0.830393 0.392645 0
0.669618 0.39275 0
1.06185 0.0668897 0
0.440193 0.0680031 0
1.06474 0.93511 0
0.446074 0.935974 0
0.724697 0.630698 0
4.72268 0.931235 0
4.93065 0.267192 0
0.589836 0.936152 0
0.92338 0.0562425 0
0.590207 0.0623339 0
0.755872 0.0732784 0
0.838039 0.936714 0
4.92573 0.732039 0
0.281717 0.93783 0
0.28208 0.0811877 0
0.065248 0.503161 0
1.46076 0.0637037 0
4.72574 0.0661877 0
4.31028 0.937908 0
3.21429 0.0687322 0
1.46639 0.932632 0
3.6897 0.928155 0
2.42063 0.931268 0
3.5364 0.0691789 0
2.25998 0.0676208 0
1.78735 0.937047 0
4.01535 0.920637 0
1.85469 0.0674188 0
3.83991 0.0626292 0
3.37477 0.929368 0
2.58225 0.0657863 0
2.81746 0.932342 0
4.16667 0.0687322 0
2.11402 0.935574 0
0.0614266 0.197046 0
0.0612841 0.803003 0
4.88273 0.0644126 0
4.87774 0.933272 0
0.859645 0.426737 0
0.903081 0.436592 0
0.923672 0.473385 0
0.948706 0.439078 0
0.969155 0.479795 0
0.996593 0.439791 0
1.0202 0.484937 0
1.04667 0.440138 0
1.07382 0.489694 0
1.1034 0.440801 0
1.13169 0.49612 0
1.16603 0.445058 0
1.1931 0.504331 0
1.22956 0.450883 0
1.25923 0.506004 0
1.29683 0.453139 0
1.32923 0.510343 0
1.36603 0.454344 0
1.03276 0.530395 0
1.40063 0.516169 0
1.43576 0.454934 0
1.47042 0.520776 0
1.51069 0.46142 0
1.54422 0.526371 0
1.58547 0.465572 0
1.61942 0.531773 0
1.66033 0.468788 0
1.69546 0.536793 0
1.73713 0.472812 0
1.77239 0.541977 0
1.81532 0.478494 0
1.85006 0.547285 0
1.89327 0.483449 0
1.92802 0.55361 0
1.97142 0.488546 0
2.00623 0.558966 0
2.04984 0.493518 0
2.08483 0.564085 0
2.12847 0.498462 0
2.16353 0.569137 0
2.20719 0.503331 0
0.961579 0.391697 0
1.22451 0.565337 0
2.24238 0.574192 0
2.28611 0.508258 0
2.32134 0.579247 0
2.36519 0.513325 0
2.40036 0.584295 0
2.44425 0.51834 0
2.47944 0.589336 0
2.52334 0.523355 0
2.55853 0.594372 0
2.60245 0.52837 0
2.63764 0.599431 0
2.68159 0.533388 0
2.64637 0.462336 0
2.72553 0.467349 0
2.76076 0.538418 0
2.8047 0.47237 0
2.83993 0.543451 0
2.88387 0.477399 0
2.91911 0.548482 0
2.96305 0.482427 0
2.9983 0.553514 0
3.04224 0.487456 0
3.07749 0.558545 0
3.12143 0.492477 0
3.15668 0.563574 0
3.20063 0.497514 0
3.23588 0.568605 0
3.27983 0.502542 0
3.31508 0.573635 0
3.35903 0.507562 0
3.39428 0.578663 0
3.43823 0.5126 0
3.47348 0.583694 0
3.51744 0.517628 0
3.55268 0.588724 0
3.59664 0.522646 0
3.63189 0.593752 0
3.67585 0.527673 0
3.71109 0.598781 0
3.75505 0.532702 0
3.7903 0.60381 0
3.83426 0.537731 0
3.79901 0.466623 0
3.87821 0.471754 0
3.91346 0.542777 0
3.95742 0.476701 0
3.99267 0.547795 0
4.03662 0.481715 0
4.07187 0.552815 0
4.11582 0.486743 0
4.15106 0.55783 0
4.195 0.491782 0
4.23023 0.562843 0
4.27415 0.49682 0
4.30937 0.567866 0
4.35325 0.501915 0
4.38842 0.572845 0
4.43227 0.506997 0
4.46737 0.577575 0
4.51106 0.511995 0
4.54622 0.582183 0
1.13571 0.390292 0
4.47606 0.441361 0
4.55475 0.446396 0
2.32985 0.442214 0
3.5614 0.451571 0
3.08619 0.421408 0
2.09339 0.427815 0
1.42887 0.583001 0
2.84864 0.406329 0
3.32378 0.43649 0
4.23911 0.425894 0
1.54723 0.39251 0
1.77883 0.406811 0
1.33959 0.387065 0
3.92239 0.405803 0
4.08079 0.415776 0
2.48812 0.452349 0
1.57935 0.603183 0
1.93602 0.417543 0
1.72453 0.617973 0
3.11273 0.629643 0
2.69029 0.396284 0
3.94662 0.623383 0
1.88466 0.613248 0
2.79598 0.609502 0
4.10826 0.620575 0
2.04005 0.62838 0
2.95434 0.619575 0
4.51981 0.375801 0
4.59833 0.380943 0
4.63314 0.451296 0
4.26693 0.63114 0
2.19619 0.645921 0
4.4246 0.642296 0
3.27112 0.639707 0
2.35729 0.649822 0
2.51462 0.660373 0
3.42952 0.649769 0
4.67669 0.38601 0
3.58793 0.659829 0
3.74634 0.669888 0
4.64195 0.315733 0
4.44109 0.370647 0
4.48493 0.305066 0
4.40614 0.29989 0
4.71136 0.456133 0
4.72014 0.320758 0
0.8692 0.382093 0
0.841252 0.348256 0
0.886481 0.338703 0
0.853127 0.301457 0
0.902583 0.287335 0
0.801683 0.321689 0
0.818113 0.263019 0
0.764765 0.277091 0
4.44702 0.235678 0
0.946267 0.520761 0
0.78107 0.221265 0
0.726309 0.234724 0
0.848273 0.20551 0
4.68545 0.250576 0
4.37074 0.227561 0
4.76365 0.255792 0
4.79822 0.326145 0
0.713664 0.287231 0
0.672358 0.247957 0
0.68673 0.192342 0
0.630368 0.2085 0
0.616569 0.265341 0
0.574186 0.225456 0
0.557393 0.28131 0
0.52004 0.242373 0
0.504416 0.299685 0
0.462273 0.252096 0
0.44798 0.316739 0
0.404567 0.276951 0
0.390546 0.335414 0
0.434669 0.37657 0
0.377935 0.394545 0
0.421979 0.43426 0
0.365682 0.452846 0
0.409646 0.492216 0
0.353389 0.51089 0
0.397738 0.551598 0
0.339864 0.570301 0
0.385899 0.612153 0
0.325913 0.631557 0
0.344507 0.29318 0
0.320568 0.413067 0
0.373553 0.673852 0
0.434438 0.653082 0
0.311416 0.69481 0
0.449777 0.528305 0
0.293513 0.534612 0
0.421431 0.715204 0
0.480917 0.696603 0
0.54504 0.34471 0
0.262743 0.649913 0
0.246209 0.712341 0
0.468564 0.755948 0
0.526091 0.735423 0
0.538207 0.68039 0
0.581228 0.716342 0
0.408756 0.777952 0
0.36234 0.239019 0
0.297047 0.251925 0
0.572109 0.771575 0
0.624906 0.752173 0
0.474824 0.414151 0
0.534351 0.182707 0
0.633682 0.70159 0
0.674547 0.736174 0
0.66826 0.788959 0
0.721117 0.76834 0
0.714515 0.825486 0
0.769074 0.802008 0
0.775287 0.746591 0
0.821903 0.778625 0
0.826767 0.726064 0
0.873257 0.756032 0
0.872997 0.697261 0
0.92331 0.732304 0
0.930014 0.67838 0
0.976061 0.710612 0
0.92456 0.784469 0
0.982178 0.654421 0
1.03016 0.688004 0
1.02037 0.747059 0
1.08 0.723819 0
1.08651 0.661896 0
1.1397 0.698204 0
1.13262 0.763657 0
1.19424 0.736545 0
1.18556 0.80161 0
1.24839 0.771772 0
1.25723 0.706382 0
1.31432 0.745787 0
4.66801 0.521361 0
4.74602 0.526202 0
4.70285 0.591278 0
4.78076 0.596023 0
4.73763 0.661207 0
4.78904 0.460969 0
2.61113 0.391267 0
2.65506 0.325217 0
2.57588 0.320198 0
2.61982 0.254148 0
2.69899 0.259163 0
2.54065 0.249131 0
2.49672 0.315179 0
2.46148 0.244124 0
2.41757 0.310166 0
2.38233 0.239117 0
2.33843 0.30514 0
2.30297 0.237979 0
2.25928 0.300748 0
2.22079 0.221377 0
2.17969 0.293884 0
2.14114 0.224266 0
2.10047 0.289841 0
2.0653 0.219144 0
2.02202 0.284919 0
1.98701 0.214164 0
1.94336 0.279863 0
3.82315 0.673327 0
3.78135 0.738156 0
3.86451 0.735958 0
3.70234 0.735494 0
4.52513 0.244409 0
4.32717 0.294467 0
4.29217 0.221862 0
0.619934 0.539507 0
0.599432 0.577132 0
0.575955 0.542712 0
0.554504 0.58245 0
4.65962 0.656481 0
4.69438 0.726169 0
4.6161 0.721747 0
4.77259 0.731352 0
4.65076 0.791486 0
4.57153 0.788793 0
4.2482 0.289182 0
4.21307 0.218308 0
4.1691 0.284563 0
4.13394 0.21352 0
0.835918 0.606341 0
0.806475 0.6384 0
4.08995 0.279537 0
0.640355 0.426737 0
0.596214 0.435837 0
0.630358 0.379178 0
0.689967 0.627735 0
1.90832 0.209948 0
1.86468 0.27519 0
1.82968 0.20518 0
1.78607 0.269797 0
0.281841 0.313314 0
0.232117 0.268621 0
0.216861 0.334396 0
4.05473 0.209347 0
4.01077 0.2745 0
3.97554 0.204394 0
3.93159 0.269388 0
0.297409 0.759367 0
0.231645 0.782943 0
0.180008 0.73598 0
1.32151 0.676369 0
1.38055 0.718092 0
1.36901 0.793947 0
1.43945 0.766002 0
0.249902 0.198865 0
0.932364 0.624392 0
1.75117 0.201034 0
1.70771 0.264658 0
1.673 0.195402 0
1.62985 0.260294 0
1.59532 0.191927 0
1.55236 0.254233 0
3.89629 0.200227 0
3.85238 0.264494 0
3.81708 0.195303 0
3.77304 0.259453 0
2.66368 0.189084 0
2.74279 0.19534 0
2.77814 0.264556 0
2.82201 0.199823 0
2.85733 0.269552 0
2.90126 0.203886 0
2.93654 0.274416 0
2.98045 0.20868 0
3.01573 0.279376 0
3.0597 0.213193 0
[...]
CELL_DATA 2220
VECTORS velocity double
37.0699 -1.80135 0.0
26.4844 0.769112 0.0
31.291 0.69839 0.0
24.2246 2.53849 0.0
37.7581 -2.01225 0.0
49.3023 -1.48135 0.0
22.4042 0.733671 0.0
24.9228 -0.0461599 0.0
41.1282 2.88247 0.0
48.131 -1.12812 0.0
24.4063 0.454582 0.0
23.7522 0.38257 0.0
18.8903 0.28689 0.0
36.0508 -2.49817 0.0
26.8781 -0.328045 0.0
36.8378 3.23563 0.0
25.2965 1.4513 0.0
20.6141 1.01183 0.0
23.2947 -0.228969 0.0
25.1827 -0.207802 0.0
26.2206 0.459977 0.0
32.8335 3.96177 0.0
23.8773 1.18492 0.0
24.6201 0.864796 0.0
50.2602 -0.629907 0.0
33.6144 -2.34297 0.0
24.052 1.25856 0.0
21.1783 0.840118 0.0
23.8127 2.39929 0.0
26.2277 1.77128 0.0
43.9963 -1.40057 0.0
32.5439 3.32097 0.0
17.2695 -0.198186 0.0
33.6523 1.35698 0.0
39.6003 -4.00118 0.0
49.6893 -1.58099 0.0
38.4928 -4.3731 0.0
20.3101 -0.214946 0.0
27.8483 2.75675 0.0
29.319 2.19999 0.0
14.6375 0.705032 0.0
41.4029 3.12682 0.0
20.4549 2.18372 0.0
22.5225 -0.0416456 0.0
20.6675 -0.0776538 0.0
18.266 -0.0340742 0.0
23.5906 1.02018 0.0
18.6445 -0.0277267 0.0
47.621 -1.01255 0.0
52.9412 0.394382 0.0
21.3749 0.640222 0.0
18.6557 0.15072 0.0
23.4205 0.927531 0.0
23.6677 0.169957 0.0
21.1994 1.15195 0.0
29.7446 1.98898 0.0
34.7473 3.4851 0.0
19.9262 0.820349 0.0
20.3142 0.88635 0.0
53.7523 0.241146 0.0
-0.380642 -9.27012 0.0
51.3378 -1.06758 0.0
45.4349 -2.03175 0.0
23.9369 0.936622 0.0
23.8798 0.962634 0.0
37.0751 1.31791 0.0
18.9945 -1.98942 0.0
39.6708 3.40509 0.0
20.2828 0.922382 0.0
20.4907 0.878597 0.0
23.4797 0.248533 0.0
34.8466 -1.78365 0.0
18.3144 0.239456 0.0
51.2377 0.944025 0.0
14.0623 0.431024 0.0
41.7645 2.97333 0.0
48.0335 2.31133 0.0
26.271 -1.85467 0.0
42.9121 3.65279 0.0
22.1479 0.155031 0.0
25.2636 -1.11189 0.0
30.2069 -1.90128 0.0
14.0467 -0.30576 0.0
18.2246 0.14473 0.0
22.9027 0.687766 0.0
22.8398 0.347824 0.0
33.5122 -1.93758 0.0
19.089 0.300603 0.0
19.4124 0.550275 0.0
40.4496 2.38039 0.0
7.38124 0.526653 0.0
25.3339 1.99361 0.0
23.5598 -0.283352 0.0
38.925 3.32165 0.0
42.2689 3.15573 0.0
28.9692 -2.02411 0.0
32.1879 -4.14675 0.0
14.6793 -1.07176 0.0
0.402149 -6.90811 0.0
33.0029 -0.744007 0.0
7.63573 -0.810085 0.0
32.1809 -2.31079 0.0
23.3244 0.874694 0.0
20.1833 1.25226 0.0
36.4996 4.24856 0.0
40.7526 3.44873 0.0
50.4516 -1.28853 0.0
53.739 -1.14024 0.0
6.75084 -0.226104 0.0
24.0539 1.36933 0.0
29.6842 1.76797 0.0
38.2397 -2.00136 0.0
49.9817 -1.11221 0.0
10.7134 -1.01431 0.0
52.3446 -1.7772 0.0
19.8534 0.749862 0.0
35.4486 -2.57496 0.0
17.5413 -0.571805 0.0
7.54221 -0.0417268 0.0
39.8896 1.74923 0.0
25.9611 -1.86499 0.0
35.332 -1.38213 0.0
19.5609 1.39201 0.0
26.0777 3.3409 0.0
41.6026 -4.00369 0.0
30.6213 -2.73626 0.0
38.5895 3.17217 0.0
22.4473 1.51823 0.0
40.0274 -2.91688 0.0
18.1055 1.652 0.0
17.824 3.34732 0.0
20.9354 -2.10568 0.0
12.5538 -1.38818 0.0
17.6551 18.2191 0.0
27.2704 2.64014 0.0
12.9973 16.5549 0.0
16.8608 -0.0185552 0.0
23.3505 -0.217636 0.0
32.2053 -2.81703 0.0
33.4308 3.47173 0.0
26.9287 -0.806899 0.0
22.2173 -0.064811 0.0
51.4475 -2.11523 0.0
42.6755 -4.4657 0.0
50.0367 0.945308 0.0
34.512 2.94156 0.0
10.6333 1.0764 0.0
14.8442 -0.55139 0.0
51.5935 1.99427 0.0
53.0474 -1.57617 0.0
19.9959 -0.377895 0.0
38.9635 1.73534 0.0
35.7341 -0.0366124 0.0
23.7722 3.0239 0.0
6.68993 10.831 0.0
25.2791 0.399312 0.0
21.6813 -2.31047 0.0
26.3481 0.623253 0.0
10.3357 -1.04397 0.0
22.4712 -1.36729 0.0
21.9682 -3.18728 0.0
19.9101 0.0142295 0.0
10.0429 -1.05955 0.0
32.544 -3.25383 0.0
18.1205 0.142827 0.0
31.9491 2.15083 0.0
33.5805 -1.87921 0.0
39.8421 -1.28408 0.0
25.1152 0.304473 0.0
12.7158 -2.06034 0.0
11.4185 1.39411 0.0
17.8115 0.0453465 0.0
23.1994 0.120897 0.0
17.1756 -1.59817 0.0
28.7029 -1.36693 0.0
44.1095 3.70834 0.0
46.3203 2.1133 0.0
43.6721 3.4474 0.0
12.0475 -0.697158 0.0
24.8788 0.0532604 0.0
34.6628 -0.530941 0.0
22.4255 -0.902201 0.0
7.43886 1.22641 0.0
19.41 2.05361 0.0
25.4466 -0.028753 0.0
48.557 -0.961706 0.0
36.9496 0.101398 0.0
19.9411 -0.777598 0.0
33.8586 -4.02109 0.0
39.6649 -0.470428 0.0
12.3842 -1.27035 0.0
19.8874 -0.312679 0.0
40.2424 -2.50752 0.0
51.886 1.74476 0.0
22.2824 -2.17985 0.0
36.856 0.87229 0.0
34.1262 1.43936 0.0
22.3833 -1.18067 0.0
6.34075 -0.577094 0.0
23.7184 -0.569733 0.0
23.1592 -18.149 0.0
30.8757 -2.12057 0.0
34.6631 2.94244 0.0
23.963 -0.143609 0.0
14.8375 -0.58242 0.0
31.7263 -2.27853 0.0
27.0503 0.123178 0.0
21.8524 0.0358853 0.0
33.3856 2.85266 0.0
12.1406 -0.822902 0.0
23.5421 0.89174 0.0
13.0228 -0.531232 0.0
33.2768 -0.319974 0.0
41.4561 3.49633 0.0
47.9795 2.91021 0.0
23.0967 4.29008 0.0
19.91 0.819192 0.0
23.6836 1.07103 0.0
12.0431 0.314275 0.0
14.5443 -0.20065 0.0
49.6336 0.635847 0.0
10.9119 -0.459216 0.0
19.8881 0.979464 0.0
10.5071 -0.199584 0.0
23.7051 -0.1141 0.0
27.2297 -2.47639 0.0
21.9502 -1.5343 0.0
22.7331 -1.02374 0.0
32.3507 0.0921892 0.0
11.6091 1.15924 0.0
28.646 2.65346 0.0
32.2982 -1.48557 0.0
15.9186 -0.182667 0.0
23.9918 -0.492644 0.0
11.8709 -1.07635 0.0
42.0096 -0.0306383 0.0
26.5566 -1.77341 0.0
23.3568 -0.325516 0.0
23.1921 -0.358161 0.0
20.3794 -0.268065 0.0
42.9035 -4.22824 0.0
33.3121 -3.71717 0.0
39.8401 4.53415 0.0
11.8453 -0.0210071 0.0
16.2466 13.3848 0.0
51.3575 -0.0410819 0.0
25.1975 -0.67497 0.0
32.0445 -1.32972 0.0
4.22106 13.1639 0.0
21.0871 2.22424 0.0
14.2927 -14.8196 0.0
11.8445 -0.10418 0.0
33.8713 -2.38299 0.0
47.3695 -0.301346 0.0
45.7875 -3.12535 0.0
22.899 0.48347 0.0
12.0973 0.178156 0.0
49.91 0.237087 0.0
22.5314 2.11466 0.0
42.0935 1.50444 0.0
26.2571 -0.445417 0.0
36.4996 -0.96879 0.0
11.369 1.16388 0.0
26.2472 -1.45965 0.0
11.5692 -0.560073 0.0
7.87178 -0.0958006 0.0
20.6374 -1.89224 0.0
33.2798 -1.44406 0.0
24.6478 1.31651 0.0
52.0021 -0.131021 0.0
45.5741 1.20784 0.0
46.5219 -0.0397601 0.0
19.243 0.392403 0.0
47.8421 -1.89744 0.0
21.7313 -2.0791 0.0
40.8456 4.55326 0.0
13.8122 1.97955 0.0
39.1299 -0.867135 0.0
21.128 1.68274 0.0
13.3655 0.13346 0.0
24.4793 -2.0811 0.0
25.9187 -2.42862 0.0
42.0987 4.36238 0.0
32.241 1.59681 0.0
47.4263 -1.77895 0.0
29.2576 -1.52962 0.0
35.4656 -3.78026 0.0
31.3644 1.26235 0.0
20.038 -0.274283 0.0
19.3556 -0.29421 0.0
12.0191 -0.320382 0.0
22.3207 -1.14626 0.0
12.3947 0.975583 0.0
24.043 -17.4174 0.0
26.0685 -1.47473 0.0
30.5989 -0.334174 0.0
31.0222 -0.301938 0.0
21.1512 0.537427 0.0
40.8818 4.5013 0.0
48.7756 3.02076 0.0
16.4793 -1.93072 0.0
45.0294 3.78193 0.0
35.2746 -1.76636 0.0
7.41783 0.0874195 0.0
36.2534 -3.0236 0.0
24.1731 1.52152 0.0
18.5707 -0.323072 0.0
19.6201 -0.319369 0.0
16.0252 0.420869 0.0
11.5524 0.906641 0.0
13.7384 -0.0404477 0.0
18.7991 20.864 0.0
14.3859 1.06617 0.0
41.8634 4.57203 0.0
32.5671 -2.38702 0.0
22.7836 -0.319037 0.0
45.2055 3.17985 0.0
12.3075 1.08758 0.0
42.6099 -2.4673 0.0
47.9791 3.38072 0.0
14.6933 -2.11666 0.0
18.7761 1.00299 0.0
48.8515 0.294551 0.0
12.495 -1.00415 0.0
11.9864 24.5227 0.0
12.8635 -0.110352 0.0
46.5734 0.0456983 0.0
47.216 1.27506 0.0
50.7896 0.606291 0.0
12.534 -0.458369 0.0
38.9409 -3.30278 0.0
42.5407 -4.84979 0.0
40.9277 -1.51474 0.0
11.2331 -1.07732 0.0
39.3555 0.14553 0.0
42.8584 -3.67883 0.0
25.0014 -2.6307 0.0
43.8353 3.77803 0.0
35.3859 -2.16739 0.0
23.0439 -0.353719 0.0
8.55629 -0.197853 0.0
20.3157 -0.362194 0.0
7.09442 0.525703 0.0
7.17758 0.0612646 0.0
14.8925 -1.73042 0.0
42.5242 3.52423 0.0
10.3618 6.47039 0.0
44.9921 3.71595 0.0
49.1042 2.83009 0.0
6.90861 -0.300391 0.0
39.6669 1.67782 0.0
5.78314 0.170339 0.0
7.02348 -0.466422 0.0
34.0142 2.9929 0.0
11.0767 0.799326 0.0
42.2381 -1.7634 0.0
39.0755 1.98992 0.0
6.42537 -0.334841 0.0
46.9064 0.938287 0.0
31.1508 -3.35819 0.0
46.7851 2.95949 0.0
14.6491 0.601416 0.0
30.734 1.88025 0.0
45.9725 3.38634 0.0
6.2626 0.616736 0.0
53.7189 0.603232 0.0
35.4526 -4.50984 0.0
6.58729 -0.415496 0.0
6.55944 -0.583579 0.0
36.7882 -1.88896 0.0
6.78209 0.462197 0.0
33.895 3.88151 0.0
38.1493 -2.00403 0.0
25.8643 -0.888342 0.0
10.2878 -0.0921956 0.0
12.9338 0.536868 0.0
32.6321 0.627787 0.0
33.0047 0.153133 0.0
42.2533 -0.893121 0.0
30.8075 -0.197025 0.0
13.79 -0.906618 0.0
42.2658 3.70056 0.0
42.715 -3.2148 0.0
50.3405 0.38651 0.0
41.548 3.67402 0.0
46.1335 -0.244544 0.0
40.3364 4.15079 0.0
48.6278 0.225614 0.0
33.15 -1.96783 0.0
47.5674 2.51802 0.0
10.6583 1.05122 0.0
43.974 -0.00693389 0.0
29.8709 -0.973374 0.0
44.786 -2.7374 0.0
9.2128 -0.972899 0.0
21.3044 -1.4544 0.0
42.0551 0.677127 0.0
8.85652 0.796941 0.0
48.4925 0.218466 0.0
41.9932 2.68956 0.0
7.23254 0.286928 0.0
29.1887 -0.916261 0.0
45.0073 3.18563 0.0
49.3909 0.130172 0.0
35.9592 -4.28183 0.0
40.344 -4.71368 0.0
6.12296 5.68279 0.0
11.3066 0.848215 0.0
23.2791 -1.71119 0.0
39.0685 -1.48851 0.0
29.715 -2.42862 0.0
6.9072 0.0157294 0.0
41.2956 4.21115 0.0
47.3528 -2.9829 0.0
42.2108 -2.31582 0.0
49.6014 0.149582 0.0
4.07269 -0.179794 0.0
6.33781 0.47824 0.0
39.5404 2.83779 0.0
6.65592 0.59852 0.0
46.6229 3.65506 0.0
40.9914 2.81257 0.0
4.19793 0.000620864 0.0
6.63758 -0.527884 0.0
45.6316 2.77779 0.0
44.8005 0.55019 0.0
3.97642 0.1818 0.0
39.1249 -0.21813 0.0
48.4405 0.247098 0.0
11.8476 -0.769178 0.0
49.2613 0.153943 0.0
41.7181 2.74094 0.0
42.2113 -3.4086 0.0
47.8438 2.15537 0.0
6.74638 -0.614437 0.0
33.9909 -4.46658 0.0
7.203 -0.128043 0.0
6.57582 0.472398 0.0
38.8681 -3.22941 0.0
6.67495 0.662426 0.0
41.3112 3.08773 0.0
46.2845 2.40221 0.0
40.8581 -3.95402 0.0
41.5283 -4.86554 0.0
10.7517 -1.1228 0.0
22.6576 -0.0834234 0.0
41.8943 2.01809 0.0
6.5067 -0.386514 0.0
5.95429 0.424531 0.0
18.5691 -2.90324 0.0
10.3224 0.991265 0.0
48.951 -0.901168 0.0
7.21333 -0.450643 0.0
23.6227 0.966952 0.0
50.368 1.39159 0.0
11.0489 0.758489 0.0
12.3199 0.776221 0.0
44.2026 3.54416 0.0
6.94746 0.404633 0.0
47.5054 1.71892 0.0
41.9531 2.39959 0.0
46.3145 0.519462 0.0
6.40252 -0.611356 0.0
4.97538 0.443567 0.0
8.92946 -0.414205 0.0
33.0795 -1.22887 0.0
14.3074 -2.88296 0.0
49.2353 0.194291 0.0
4.07233 0.101649 0.0
41.8866 -4.80715 0.0
12.1905 -0.433359 0.0
5.83051 0.429623 0.0
15.2705 -1.60573 0.0
43.3824 3.73598 0.0
11.6351 -0.694325 0.0
46.1548 0.423678 0.0
45.9364 2.01935 0.0
28.3228 -0.513835 0.0
48.5015 0.279219 0.0
41.9028 2.07261 0.0
25.4175 -1.69539 0.0
39.625 0.816564 0.0
49.6738 -2.57366 0.0
41.6965 1.72613 0.0
6.62626 -0.684967 0.0
7.06586 0.707138 0.0
41.8858 -0.921318 0.0
5.75155 0.378373 0.0
34.8987 -3.71118 0.0
23.6754 11.9834 0.0
48.6202 0.287144 0.0
5.84142 0.406736 0.0
6.54842 -0.416694 0.0
45.7811 1.60248 0.0
42.4844 3.62829 0.0
34.0099 -0.223976 0.0
30.5283 -1.5502 0.0
41.5818 0.0373288 0.0
26.9315 -1.37182 0.0
17.997 -16.1666 0.0
42.5001 -0.171564 0.0
39.5599 2.50952 0.0
6.33509 -0.258678 0.0
41.4579 1.37829 0.0
33.9235 13.9708 0.0
20.4755 -0.612566 0.0
49.2306 0.428343 0.0
4.40282 -0.42686 0.0
4.86015 0.436638 0.0
39.3033 2.83707 0.0
43.7942 -0.205615 0.0
42.4857 -1.16288 0.0
23.8349 -0.187541 0.0
47.7559 4.00171 0.0
49.285 0.227881 0.0
48.5265 -2.36679 0.0
5.51055 2.33806 0.0
46.5608 0.694451 0.0
49.451 -2.7124 0.0
39.5059 1.89406 0.0
40.2854 10.0435 0.0
11.2169 -4.08313 0.0
37.7059 0.254712 0.0
5.86862 -7.31138 0.0
36.2578 -1.38451 0.0
45.7627 -1.28423 0.0
49.3817 2.94724 0.0
47.4556 4.44152 0.0
5.86749 -2.08727 0.0
41.2451 1.07989 0.0
45.0406 6.80938 0.0
39.2884 1.58347 0.0
50.3618 0.145187 0.0
39.6408 2.19739 0.0
45.2604 0.905873 0.0
25.8895 -0.95397 0.0
28.9325 1.18949 0.0
11.3841 -5.84916 0.0
41.748 -2.81583 0.0
19.0248 -0.173657 0.0
34.589 -9.96967 0.0
8.10664 -10.0136 0.0
39.1867 -2.81364 0.0
49.4765 0.19904 0.0
2.96198 -0.285929 0.0
3.03638 0.290988 0.0
44.9474 0.692005 0.0
40.719 3.25237 0.0
41.1171 0.858329 0.0
32.2832 15.6403 0.0
7.16272 -0.200277 0.0
11.5667 -0.320031 0.0
8.45903 1.20574 0.0
3.16712 2.92856 0.0
7.07336 -5.31535 0.0
48.2126 -3.08865 0.0
50.5703 0.111023 0.0
40.0344 -4.05291 0.0
0.954962 1.49392 0.0
36.3318 -0.104536 0.0
38.7325 -0.107927 0.0
41.9773 -9.26029 0.0
29.0504 12.542 0.0
1.13392 -1.43269 0.0
3.60218 -2.6955 0.0
33.0525 0.589348 0.0
20.6555 1.14453 0.0
39.1593 1.27532 0.0
25.6029 -5.27124 0.0
43.9917 -0.106053 0.0
41.2745 2.33289 0.0
45.5152 -0.102389 0.0
35.1041 10.0489 0.0
48.8983 0.182208 0.0
3.90033 -0.296002 0.0
46.2494 3.66401 0.0
50.3553 0.808781 0.0
46.0771 0.396529 0.0
50.3747 0.0639176 0.0
46.2773 -5.39448 0.0
3.74767 0.215637 0.0
50.0261 -0.506445 0.0
7.5597 -1.47925 0.0
20.2305 1.37008 0.0
31.6154 -0.856313 0.0
41.0139 0.72224 0.0
39.0197 1.01116 0.0
48.9827 2.76194 0.0
49.358 2.00408 0.0
48.396 3.00209 0.0
5.68511 0.314052 0.0
10.7245 0.556723 0.0
8.69986 -0.987669 0.0
50.1373 0.0155851 0.0
44.7294 0.482103 0.0
42.4249 -4.86108 0.0
7.27556 1.69535 0.0
49.2007 0.537271 0.0
44.0244 6.4553 0.0
12.5465 11.2104 0.0
44.9815 -0.0726502 0.0
3.33772 0.973608 0.0
43.3053 -0.122768 0.0
48.1623 -1.6339 0.0
44.0703 -0.754059 0.0
32.7509 -0.375163 0.0
30.2481 -0.363503 0.0
42.7568 -0.179284 0.0
8.04873 0.275277 0.0
41.3118 3.99071 0.0
49.6619 -0.518646 0.0
46.3745 -0.238421 0.0
46.1173 0.408276 0.0
41.026 0.64486 0.0
22.4603 -0.0239021 0.0
44.7354 0.470424 0.0
52.3038 -1.88381 0.0
48.961 0.113434 0.0
11.0891 0.539272 0.0
40.3263 8.97979 0.0
3.61739 -0.900204 0.0
50.2952 0.838926 0.0
50.1893 0.304415 0.0
41.1217 0.6151 0.0
2.25883 1.28695 0.0
39.745 -0.736722 0.0
49.5198 0.145224 0.0
48.6406 2.14481 0.0
44.437 -0.122038 0.0
49.8261 -0.524482 0.0
46.2626 0.424753 0.0
49.8342 -0.0137108 0.0
50.4624 0.391158 0.0
49.3814 0.231572 0.0
41.3609 0.620395 0.0
4.81254 0.528006 0.0
16.7057 1.61418 0.0
49.3353 -1.37253 0.0
41.3169 3.3026 0.0
2.49582 -1.20493 0.0
9.5711 -0.650399 0.0
39.5134 -2.75267 0.0
43.3481 5.79524 0.0
44.8814 0.487074 0.0
18.0714 -1.25226 0.0
46.1801 -0.236195 0.0
47.2781 -0.182684 0.0
27.583 15.0597 0.0
9.19351 0.875569 0.0
4.41264 -0.622818 0.0
51.0077 -2.30115 0.0
35.0075 8.36393 0.0
46.6731 -5.11651 0.0
50.3832 0.576782 0.0
13.5699 0.221229 0.0
45.107 0.484507 0.0
38.935 0.84815 0.0
48.9553 -0.0307641 0.0
4.15432 0.711911 0.0
46.4858 0.403141 0.0
48.9737 0.0445299 0.0
5.44374 -0.280941 0.0
41.7061 0.603338 0.0
48.7746 0.251265 0.0
50.2044 0.656415 0.0
47.0405 0.203291 0.0
46.987 -0.262679 0.0
49.5093 0.0845644 0.0
41.9121 -0.960009 0.0
46.9944 -0.166646 0.0
46.7972 0.316066 0.0
46.0645 0.150546 0.0
45.8841 -0.30819 0.0
4.9975 -0.414825 0.0
50.1269 0.741932 0.0
45.6192 -0.365349 0.0
6.81249 0.372381 0.0
49.4617 0.0151274 0.0
10.6065 0.725682 0.0
45.4371 0.405846 0.0
46.7346 -0.329172 0.0
50.252 0.435582 0.0
48.0243 -0.14034 0.0
47.2134 0.109109 0.0
49.9655 0.256317 0.0
22.2922 0.256015 0.0
42.7872 0.286331 0.0
39.9993 2.47051 0.0
42.0221 0.477987 0.0
4.9906 -0.0865922 0.0
48.896 -0.004518 0.0
45.7948 0.266826 0.0
39.0417 -9.46966 0.0
3.54225 -0.321205 0.0
39.064 0.684975 0.0
3.46638 0.238666 0.0
35.222 -8.16713 0.0
41.7717 2.90438 0.0
39.2917 0.668014 0.0
43.9723 -0.192906 0.0
45.3773 -0.396791 0.0
39.7006 0.670992 0.0
47.4042 -0.0487295 0.0
35.1623 -3.29256 0.0
37.527 -11.2588 0.0
45.9891 -0.110504 0.0
49.9063 0.705748 0.0
50.1411 0.840334 0.0
50.1077 0.37701 0.0
46.5086 -0.374273 0.0
50.3489 0.457421 0.0
40.3958 -0.196431 0.0
50.2023 0.458368 0.0
44.9041 -0.262734 0.0
43.1248 0.149625 0.0
21.0218 0.519066 0.0
47.9382 -0.304126 0.0
50.2677 0.391711 0.0
37.9288 -0.764148 0.0
49.8703 0.569949 0.0
46.307 -0.385611 0.0
45.1647 -0.385469 0.0
5.2331 0.392767 0.0
46.255 0.0610479 0.0
38.9604 0.748792 0.0
50.4584 0.39684 0.0
35.1692 -0.665091 0.0
11.7213 0.338534 0.0
43.4355 0.0471799 0.0
49.8452 0.393873 0.0
40.6309 0.381474 0.0
39.6224 -0.195192 0.0
44.9832 -0.316976 0.0
49.7842 0.185633 0.0
46.1372 -0.349549 0.0
41.3032 0.215633 0.0
24.4735 9.58046 0.0
49.3959 -0.0642457 0.0
50.4127 0.325248 0.0
49.3363 1.55579 0.0
20.6076 -0.106494 0.0
46.3968 -0.0188493 0.0
38.03 -0.226209 0.0
6.28792 0.20128 0.0
10.8734 0.389337 0.0
45.985 -0.264398 0.0
49.0226 0.268028 0.0
42.8937 -0.387313 0.0
44.8103 -0.204441 0.0
50.1973 0.280356 0.0
43.5705 -0.26402 0.0
43.6915 -0.0390744 0.0
44.5919 -0.0786794 0.0
38.5367 -0.266469 0.0
42.2936 -0.243013 0.0
50.5338 0.260084 0.0
39.0226 -0.223378 0.0
49.388 0.121614 0.0
42.5718 -0.422787 0.0
44.3083 -0.317335 0.0
41.8888 -0.307595 0.0
38.0697 -0.320423 0.0
49.191 0.201805 0.0
45.8165 -0.151133 0.0
7.68974 0.229423 0.0
11.8542 0.332512 0.0
50.1246 0.0641371 0.0
49.6457 -0.0274164 0.0
39.9594 0.626251 0.0
41.5714 -0.0435113 0.0
42.0312 -0.00560905 0.0
50.1886 0.585808 0.0
44.2645 0.028173 0.0
49.1457 1.27731 0.0
47.3283 0.0295413 0.0
37.6354 -0.378312 0.0
40.8283 -0.440078 0.0
41.6781 0.0903264 0.0
45.5841 -0.040197 0.0
50.4857 0.170504 0.0
48.922 -0.11175 0.0
41.5259 -0.3687 0.0
37.4829 1.25334 0.0
36.1707 -0.295882 0.0
41.1713 -0.419551 0.0
37.2401 -0.436701 0.0
46.3155 2.87035 0.0
43.8218 0.0820288 0.0
45.2557 0.0354348 0.0
42.3024 -0.409856 0.0
36.691 -0.252483 0.0
40.0688 -0.0986965 0.0
49.7337 0.293704 0.0
36.8182 -0.467517 0.0
40.5528 -0.384009 0.0
43.3532 0.0608227 0.0
23.5573 0.205215 0.0
48.3281 0.0190955 0.0
36.3728 -0.396318 0.0
20.5196 0.136555 0.0
35.6969 -0.348483 0.0
44.8635 0.0482709 0.0
36.1536 -0.231197 0.0
40.3065 -0.25624 0.0
37.2609 -0.230349 0.0
5.5144 -0.0761985 0.0
10.222 -0.135226 0.0
23.5006 0.311363 0.0
43.1556 -0.353173 0.0
41.8499 -0.190285 0.0
42.9555 -0.0140889 0.0
44.4864 -0.00258141 0.0
35.8479 -0.0534857 0.0
11.5144 0.136361 0.0
49.8792 0.194883 0.0
10.5125 -0.160787 0.0
50.5198 0.0483546 0.0
42.6968 -0.100333 0.0
35.2485 -0.408131 0.0
41.1283 0.0804791 0.0
34.7131 -0.467817 0.0
50.4357 -0.0718745 0.0
40.5134 0.149577 0.0
5.71275 -0.0839066 0.0
10.3692 -0.158298 0.0
42.0718 -0.324923 0.0
6.13553 0.0870182 0.0
44.1957 -0.0901161 0.0
34.2679 -0.452023 0.0
33.9348 -0.303245 0.0
39.6898 0.0454851 0.0
43.7876 -0.231129 0.0
49.8613 -0.0580745 0.0
39.904 0.132606 0.0
39.3864 0.0483623 0.0
10.4435 -0.1425 0.0
5.93362 -0.0852336 0.0
19.5982 0.256388 0.0
33.6389 -0.109173 0.0
39.0446 0.154056 0.0
43.2165 -0.330445 0.0
38.3043 0.192002 0.0
45.168 -0.119371 0.0
20.0589 0.289964 0.0
37.6554 0.124437 0.0
44.0737 -0.165861 0.0
39.0244 -0.0300924 0.0
10.4847 0.148429 0.0
5.36989 -0.0537788 0.0
4.50517 -0.0831499 0.0
5.78262 -0.0779292 0.0
10.3576 -0.051846 0.0
11.0168 0.188086 0.0
4.89583 -0.0245419 0.0
5.54794 -0.00442607 0.0
10.1708 -0.125407 0.0
5.39588 -0.0433641 0.0
5.83359 -0.0426236 0.0
6.18678 0.146907 0.0
11.2432 -0.147231 0.0
6.00731 0.0833421 0.0
10.0201 -0.0934581 0.0
5.75593 0.08071 0.0
10.67 -0.0695577 0.0
10.4427 -0.0684318 0.0
5.60395 0.161701 0.0
11.4379 0.217671 0.0
10.1552 -0.0981915 0.0
9.92242 -0.11919 0.0
5.80069 0.260919 0.0
9.58516 -0.0781632 0.0
10.3439 0.193788 0.0
5.33697 -0.0343198 0.0
10.0555 -0.0498323 0.0
6.06129 0.00656917 0.0
5.33969 0.0907363 0.0
9.71232 -0.157852 0.0
5.73039 0.203384 0.0
6.92483 0.119872 0.0
5.87464 0.304438 0.0
4.89627 0.0782851 0.0
5.26179 -0.00620913 0.0
10.1479 0.0469379 0.0
5.55055 -0.0739211 0.0
5.69441 -0.0817485 0.0
5.84211 0.235331 0.0
5.87507 0.256051 0.0
5.81376 -0.0156343 0.0
5.69482 0.0603162 0.0
4.82559 -0.0809671 0.0
5.46647 -0.0463052 0.0
6.80059 -0.00893145 0.0
11.3757 -0.02828 0.0
5.94922 -0.109084 0.0
6.9806 0.072919 0.0
9.68026 0.158477 0.0
9.4442 -0.177502 0.0
5.42043 -0.0640402 0.0
5.97778 0.2224 0.0
5.48091 0.0570685 0.0
10.705 -0.00458239 0.0
5.20077 0.105685 0.0
5.76633 0.0809157 0.0
5.3603 -0.0719162 0.0
10.6163 0.468265 0.0
6.60754 -0.0972439 0.0
4.70583 0.00400882 0.0
5.39581 0.0110972 0.0
4.57122 0.0473319 0.0
5.89823 0.0823339 0.0
5.98779 -0.025796 0.0
8.86496 -0.0805835 0.0
4.08088 -0.0313484 0.0
10.3913 0.414415 0.0
10.7874 0.139079 0.0
43.3966 -0.196828 0.0
42.6868 -0.137516 0.0
47.4528 -0.12843 0.0
37.167 0.0308447 0.0
49.8158 -0.329762 0.0
49.9604 -0.142087 0.0
36.7561 -0.00296426 0.0
49.9219 -0.344174 0.0
50.2531 -0.287293 0.0
50.0178 -0.361558 0.0
50.3842 -0.179779 0.0
38.9218 -0.0291329 0.0
42.9395 -0.137198 0.0
50.158 -0.320948 0.0
41.6804 -0.180503 0.0
49.6781 -0.25114 0.0
44.2 -0.193691 0.0
49.5839 -0.214548 0.0
46.6814 -0.276629 0.0
47.4931 -0.304234 0.0
32.0818 0.105767 0.0
49.5049 -0.372505 0.0
49.3277 -0.217193 0.0
47.7042 -0.289467 0.0
49.7269 -0.30801 0.0
35.8949 -0.146131 0.0
46.4975 -0.0984069 0.0
42.9267 -0.161775 0.0
49.1606 -0.358661 0.0
48.9582 -0.351415 0.0
49.7308 -0.292403 0.0
37.8608 -0.166292 0.0
33.3097 0.267263 0.0