# vtk DataFile Version 3.0
Malha 2D com triângulos e temperatura
ASCII
DATASET UNSTRUCTURED_GRID

POINTS 1194 double
0 0 0
5 0 0
5 1 0
0 1 0
0.85 0.5 0
0.842388 0.538268 0
0.820711 0.570711 0
0.788268 0.592388 0
0.75 0.6 0
0.711732 0.592388 0
0.679289 0.570711 0
0.657612 0.538268 0
0.65 0.5 0
0.657612 0.461732 0
0.679289 0.429289 0
0.711732 0.407612 0
0.75 0.4 0
0.788268 0.407612 0
0.820711 0.429289 0
0.842388 0.461732 0
0.0793651 0 0
0.15873 0 0
0.238095 0 0
0.31746 0 0
0.396825 0 0
0.47619 0 0
0.555556 0 0
0.634921 0 0
0.714286 0 0
0.793651 0 0
0.873016 0 0
0.952381 0 0
1.03175 0 0
1.11111 0 0
1.19048 0 0
1.26984 0 0
1.34921 0 0
1.42857 0 0
1.50794 0 0
1.5873 0 0
1.66667 0 0
1.74603 0 0
1.8254 0 0
1.90476 0 0
1.98413 0 0
2.06349 0 0
2.14286 0 0
2.22222 0 0
2.30159 0 0
2.38095 0 0
2.46032 0 0
2.53968 0 0
2.61905 0 0
2.69841 0 0
2.77778 0 0
2.85714 0 0
2.93651 0 0
3.01587 0 0
3.09524 0 0
3.1746 0 0
3.25397 0 0
3.33333 0 0
3.4127 0 0
3.49206 0 0
3.57143 0 0
3.65079 0 0
3.73016 0 0
3.80952 0 0
3.88889 0 0
3.96825 0 0
4.04762 0 0
4.12698 0 0
4.20635 0 0
4.28571 0 0
4.36508 0 0
4.44444 0 0
4.52381 0 0
4.60317 0 0
4.68254 0 0
4.7619 0 0
4.84127 0 0
4.92063 0 0
5 0.0769231 0
5 0.153846 0
5 0.230769 0
5 0.307692 0
5 0.384615 0
5 0.461538 0
5 0.538462 0
5 0.615385 0
5 0.692308 0
5 0.769231 0
5 0.846154 0
5 0.923077 0
4.92063 1 0
4.84127 1 0
4.7619 1 0
4.68254 1 0
4.60317 1 0
4.52381 1 0
4.44444 1 0
4.36508 1 0
4.28571 1 0
4.20635 1 0
4.12698 1 0
4.04762 1 0
3.96825 1 0
3.88889 1 0
3.80952 1 0
3.73016 1 0
3.65079 1 0
3.57143 1 0
3.49206 1 0
3.4127 1 0
3.33333 1 0
3.25397 1 0
3.1746 1 0
3.09524 1 0
3.01587 1 0
2.93651 1 0
2.85714 1 0
2.77778 1 0
2.69841 1 0
2.61905 1 0
2.53968 1 0
2.46032 1 0
2.38095 1 0
2.30159 1 0
2.22222 1 0
2.14286 1 0
2.06349 1 0
1.98413 1 0
1.90476 1 0
1.8254 1 0
1.74603 1 0
1.66667 1 0
1.5873 1 0
1.50794 1 0
1.42857 1 0
1.34921 1 0
1.26984 1 0
1.19048 1 0
1.11111 1 0
1.03175 1 0
0.952381 1 0
0.873016 1 0
0.793651 1 0
0.714286 1 0
0.634921 1 0
0.555556 1 0
0.47619 1 0
0.396825 1 0
0.31746 1 0
0.238095 1 0
0.15873 1 0
0.0793651 1 0
0 0.923077 0
0 0.846154 0
0 0.769231 0
0 0.692308 0
0 0.615385 0
0 0.538462 0
0 0.461538 0
0 0.384615 0
0 0.307692 0
0 0.230769 0
0 0.153846 0
0 0.0769231 0
0.879698 0.466718 0
1.3085 0.931947 0
1.30532 0.0638546 0
4.93832 0.504275 0
0.620452 0.46964 0
3.99858 0.0669607 0
1.63721 0.934258 0
3.3751 0.0523709 0
4.3254 0.0687322 0
2.42354 0.0642082 0
2.97619 0.0687322 0
2.02101 0.0693621 0
3.68108 0.0581336 0
2.65899 0.932655 0
4.178 0.939994 0
3.21614 0.938179 0
2.25483 0.919987 0
3.53215 0.928998 0
3.84921 0.931268 0
1.69647 0.0674297 0
1.94349 0.930209 0
4.48413 0.931268 0
2.97813 0.942022 0
2.74097 0.0673855 0
0.859645 0.573263 0
0.639718 0.573116 0
0.0651563 0.652836 0
0.0635304 0.346121 0
4.56232 0.0679683 0
0.830393 0.392645 0
0.669618 0.39275 0
1.06185 0.0668897 0
0.440193 0.0680031 0
1.06474 0.93511 0
0.446074 0.935974 0
0.724697 0.630698 0
4.72268 0.931235 0
4.93065 0.267192 0
0.589836 0.936152 0
0.92338 0.0562425 0
0.590207 0.0623339 0
0.755872 0.0732784 0
0.838039 0.936714 0
4.92573 0.732039 0
0.281717 0.93783 0
0.28208 0.0811877 0
0.065248 0.503161 0
1.46076 0.0637037 0
4.72574 0.0661877 0
4.31028 0.937908 0
3.21429 0.0687322 0
1.46639 0.932632 0
3.6897 0.928155 0
2.42063 0.931268 0
3.5364 0.0691789 0
2.25998 0.0676208 0
1.78735 0.937047 0
4.01535 0.920637 0
1.85469 0.0674188 0
3.83991 0.0626292 0
3.37477 0.929368 0
2.58225 0.0657863 0
2.81746 0.932342 0
4.16667 0.0687322 0
2.11402 0.935574 0
0.0614266 0.197046 0
0.0612841 0.803003 0
4.88273 0.0644126 0
4.87774 0.933272 0
0.859645 0.426737 0
0.903081 0.436592 0
0.923672 0.473385 0
0.948706 0.439078 0
0.969155 0.479795 0
0.996593 0.439791 0
1.0202 0.484937 0
1.04667 0.440138 0
1.07382 0.489694 0
1.1034 0.440801 0
1.13169 0.49612 0
1.16603 0.445058 0
1.1931 0.504331 0
1.22956 0.450883 0
1.25923 0.506004 0
1.29683 0.453139 0
1.32923 0.510343 0
1.36603 0.454344 0
1.03276 0.530395 0
1.40063 0.516169 0
1.43576 0.454934 0
1.47042 0.520776 0
1.51069 0.46142 0
1.54422 0.526371 0
1.58547 0.465572 0
1.61942 0.531773 0
1.66033 0.468788 0
1.69546 0.536793 0
1.73713 0.472812 0
1.77239 0.541977 0
1.81532 0.478494 0
1.85006 0.547285 0
1.89327 0.483449 0
1.92802 0.55361 0
1.97142 0.488546 0
2.00623 0.558966 0
2.04984 0.493518 0
2.08483 0.564085 0
2.12847 0.498462 0
2.16353 0.569137 0
2.20719 0.503331 0
0.961579 0.391697 0
1.22451 0.565337 0
2.24238 0.574192 0
2.28611 0.508258 0
2.32134 0.579247 0
2.36519 0.513325 0
2.40036 0.584295 0
2.44425 0.51834 0
2.47944 0.589336 0
2.52334 0.523355 0
2.55853 0.594372 0
2.60245 0.52837 0
2.63764 0.599431 0
2.68159 0.533388 0
2.64637 0.462336 0
2.72553 0.467349 0
2.76076 0.538418 0
2.8047 0.47237 0
2.83993 0.543451 0
2.88387 0.477399 0
2.91911 0.548482 0
2.96305 0.482427 0
2.9983 0.553514 0
3.04224 0.487456 0
3.07749 0.558545 0
3.12143 0.492477 0
3.15668 0.563574 0
3.20063 0.497514 0
3.23588 0.568605 0
3.27983 0.502542 0
3.31508 0.573635 0
3.35903 0.507562 0
3.39428 0.578663 0
3.43823 0.5126 0
3.47348 0.583694 0
3.51744 0.517628 0
3.55268 0.588724 0
3.59664 0.522646 0
3.63189 0.593752 0
3.67585 0.527673 0
3.71109 0.598781 0
3.75505 0.532702 0
3.7903 0.60381 0
3.83426 0.537731 0
3.79901 0.466623 0
3.87821 0.471754 0
3.91346 0.542777 0
3.95742 0.476701 0
3.99267 0.547795 0
4.03662 0.481715 0
4.07187 0.552815 0
4.11582 0.486743 0
4.15106 0.55783 0
4.195 0.491782 0
4.23023 0.562843 0
4.27415 0.49682 0
4.30937 0.567866 0
4.35325 0.501915 0
4.38842 0.572845 0
4.43227 0.506997 0
4.46737 0.577575 0
4.51106 0.511995 0
4.54622 0.582183 0
1.13571 0.390292 0
4.47606 0.441361 0
4.55475 0.446396 0
2.32985 0.442214 0
3.5614 0.451571 0
3.08619 0.421408 0
2.09339 0.427815 0
1.42887 0.583001 0
2.84864 0.406329 0
3.32378 0.43649 0
4.23911 0.425894 0
1.54723 0.39251 0
1.77883 0.406811 0
1.33959 0.387065 0
3.92239 0.405803 0
4.08079 0.415776 0
2.48812 0.452349 0
1.57935 0.603183 0
1.93602 0.417543 0
1.72453 0.617973 0
3.11273 0.629643 0
2.69029 0.396284 0
3.94662 0.623383 0
1.88466 0.613248 0
2.79598 0.609502 0
4.10826 0.620575 0
2.04005 0.62838 0
2.95434 0.619575 0
4.51981 0.375801 0
4.59833 0.380943 0
4.63314 0.451296 0
4.26693 0.63114 0
2.19619 0.645921 0
4.4246 0.642296 0
3.27112 0.639707 0
2.35729 0.649822 0
2.51462 0.660373 0
3.42952 0.649769 0
4.67669 0.38601 0
3.58793 0.659829 0
3.74634 0.669888 0
4.64195 0.315733 0
4.44109 0.370647 0
4.48493 0.305066 0
4.40614 0.29989 0
4.71136 0.456133 0
4.72014 0.320758 0
0.8692 0.382093 0
0.841252 0.348256 0
0.886481 0.338703 0
0.853127 0.301457 0
0.902583 0.287335 0
0.801683 0.321689 0
0.818113 0.263019 0
0.764765 0.277091 0
4.44702 0.235678 0
0.946267 0.520761 0
0.78107 0.221265 0
0.726309 0.234724 0
0.848273 0.20551 0
4.68545 0.250576 0
4.37074 0.227561 0
4.76365 0.255792 0
4.79822 0.326145 0
0.713664 0.287231 0
0.672358 0.247957 0
0.68673 0.192342 0
0.630368 0.2085 0
0.616569 0.265341 0
0.574186 0.225456 0
0.557393 0.28131 0
0.52004 0.242373 0
0.504416 0.299685 0
0.462273 0.252096 0
0.44798 0.316739 0
0.404567 0.276951 0
0.390546 0.335414 0
0.434669 0.37657 0
0.377935 0.394545 0
0.421979 0.43426 0
0.365682 0.452846 0
0.409646 0.492216 0
0.353389 0.51089 0
0.397738 0.551598 0
0.339864 0.570301 0
0.385899 0.612153 0
0.325913 0.631557 0
0.344507 0.29318 0
0.320568 0.413067 0
0.373553 0.673852 0
0.434438 0.653082 0
0.311416 0.69481 0
0.449777 0.528305 0
0.293513 0.534612 0
0.421431 0.715204 0
0.480917 0.696603 0
0.54504 0.34471 0
0.262743 0.649913 0
0.246209 0.712341 0
0.468564 0.755948 0
0.526091 0.735423 0
0.538207 0.68039 0
0.581228 0.716342 0
0.408756 0.777952 0
0.36234 0.239019 0
0.297047 0.251925 0
0.572109 0.771575 0
0.624906 0.752173 0
0.474824 0.414151 0
0.534351 0.182707 0
0.633682 0.70159 0
0.674547 0.736174 0
0.66826 0.788959 0
0.721117 0.76834 0
0.714515 0.825486 0
0.769074 0.802008 0
0.775287 0.746591 0
0.821903 0.778625 0
0.826767 0.726064 0
0.873257 0.756032 0
0.872997 0.697261 0
0.92331 0.732304 0
0.930014 0.67838 0
0.976061 0.710612 0
0.92456 0.784469 0
0.982178 0.654421 0
1.03016 0.688004 0
1.02037 0.747059 0
1.08 0.723819 0
1.08651 0.661896 0
1.1397 0.698204 0
1.13262 0.763657 0
1.19424 0.736545 0
1.18556 0.80161 0
1.24839 0.771772 0
1.25723 0.706382 0
1.31432 0.745787 0
4.66801 0.521361 0
4.74602 0.526202 0
4.70285 0.591278 0
4.78076 0.596023 0
4.73763 0.661207 0
4.78904 0.460969 0
2.61113 0.391267 0
2.65506 0.325217 0
2.57588 0.320198 0
2.61982 0.254148 0
2.69899 0.259163 0
2.54065 0.249131 0
2.49672 0.315179 0
2.46148 0.244124 0
2.41757 0.310166 0
2.38233 0.239117 0
2.33843 0.30514 0
2.30297 0.237979 0
2.25928 0.300748 0
2.22079 0.221377 0
2.17969 0.293884 0
2.14114 0.224266 0
2.10047 0.289841 0
2.0653 0.219144 0
2.02202 0.284919 0
1.98701 0.214164 0
1.94336 0.279863 0
3.82315 0.673327 0
3.78135 0.738156 0
3.86451 0.735958 0
3.70234 0.735494 0
4.52513 0.244409 0
4.32717 0.294467 0
4.29217 0.221862 0
0.619934 0.539507 0
0.599432 0.577132 0
0.575955 0.542712 0
0.554504 0.58245 0
4.65962 0.656481 0
4.69438 0.726169 0
4.6161 0.721747 0
4.77259 0.731352 0
4.65076 0.791486 0
4.57153 0.788793 0
4.2482 0.289182 0
4.21307 0.218308 0
4.1691 0.284563 0
4.13394 0.21352 0
0.835918 0.606341 0
0.806475 0.6384 0
4.08995 0.279537 0
0.640355 0.426737 0
0.596214 0.435837 0
0.630358 0.379178 0
0.689967 0.627735 0
1.90832 0.209948 0
1.86468 0.27519 0
1.82968 0.20518 0
1.78607 0.269797 0
0.281841 0.313314 0
0.232117 0.268621 0
0.216861 0.334396 0
4.05473 0.209347 0
4.01077 0.2745 0
3.97554 0.204394 0
3.93159 0.269388 0
0.297409 0.759367 0
0.231645 0.782943 0
0.180008 0.73598 0
1.32151 0.676369 0
1.38055 0.718092 0
1.36901 0.793947 0
1.43945 0.766002 0
0.249902 0.198865 0
0.932364 0.624392 0
1.75117 0.201034 0
1.70771 0.264658 0
1.673 0.195402 0
1.62985 0.260294 0
1.59532 0.191927 0
1.55236 0.254233 0
3.89629 0.200227 0
3.85238 0.264494 0
3.81708 0.195303 0
3.77304 0.259453 0
2.66368 0.189084 0
2.74279 0.19534 0
2.77814 0.264556 0
2.82201 0.199823 0
2.85733 0.269552 0
2.90126 0.203886 0
2.93654 0.274416 0
2.98045 0.20868 0
3.01573 0.279376 0
3.0597 0.213193 0
[...]
CELL_DATA 2220
VECTORS velocity double
19.6971 -1.69102 0.0
14.4925 0.457871 0.0
22.9446 5.9299 0.0
22.7961 1.12601 0.0
20.0868 -2.02659 0.0
25.3563 -1.08349 0.0
12.2606 0.439319 0.0
13.6236 -0.0146756 0.0
25.0622 10.9698 0.0
24.9145 -0.73872 0.0
16.3788 16.5856 0.0
12.9701 0.265388 0.0
10.3668 0.195022 0.0
21.9732 -6.39494 0.0
20.8887 15.528 0.0
16.7255 11.0082 0.0
14.1104 0.607602 0.0
11.416 0.530605 0.0
12.8288 -0.124409 0.0
13.8578 -0.106301 0.0
19.445 4.50899 0.0
37.7541 -6.20098 0.0
13.2329 0.587751 0.0
13.4426 0.526564 0.0
23.6833 -1.04103 0.0
20.144 -5.30052 0.0
20.1507 -2.24843 0.0
11.5644 0.514622 0.0
22.5113 1.19325 0.0
25.3498 1.13624 0.0
18.9655 -3.15973 0.0
30.3383 0.130538 0.0
9.58775 -0.110742 0.0
28.7444 -12.6962 0.0
44.1752 1.71297 0.0
25.5026 -1.22786 0.0
43.2776 2.56615 0.0
11.1666 -0.114482 0.0
26.4686 1.37974 0.0
25.8291 -1.84442 0.0
12.3025 -1.20582 0.0
25.0801 9.96178 0.0
19.1355 0.936601 0.0
12.4643 0.0261641 0.0
11.2515 -0.0210736 0.0
10.1477 0.0284398 0.0
13.0146 0.565041 0.0
10.2745 -0.00673751 0.0
24.7259 -0.631938 0.0
26.7096 0.41086 0.0
15.394 3.54427 0.0
10.2472 0.100796 0.0
12.7278 0.57785 0.0
12.9411 0.115656 0.0
11.8095 0.519289 0.0
25.6946 -2.41656 0.0
32.3704 -0.406436 0.0
10.8227 0.511136 0.0
11.2075 0.510375 0.0
27.0279 0.308059 0.0
0.147862 -4.24605 0.0
24.6637 -1.6275 0.0
20.5188 -4.21375 0.0
13.0377 0.57896 0.0
12.9011 0.616528 0.0
30.9811 -11.2673 0.0
18.006 -1.12393 0.0
19.0313 10.2701 0.0
10.9705 0.598224 0.0
11.1652 0.545151 0.0
12.8218 0.165941 0.0
30.3958 11.6576 0.0
10.0488 0.157823 0.0
26.023 0.840671 0.0
29.1748 -1.53216 0.0
44.3734 -0.33803 0.0
22.7089 4.18928 0.0
15.3756 -3.29582 0.0
23.1898 9.80473 0.0
12.1941 0.114729 0.0
21.2833 2.71571 0.0
26.372 2.69498 0.0
13.6692 -0.246004 0.0
10.0487 0.105859 0.0
12.5981 0.432484 0.0
12.548 0.235017 0.0
18.0209 -2.05916 0.0
10.4967 0.204038 0.0
10.6784 0.351258 0.0
25.939 11.3175 0.0
24.1271 -3.76362 0.0
15.8934 4.22042 0.0
12.9402 -0.155547 0.0
22.0026 5.76024 0.0
43.6 0.107164 0.0
25.7291 1.98323 0.0
39.2029 4.90004 0.0
3.45282 -18.0372 0.0
0.888095 -3.32257 0.0
26.5451 13.3981 0.0
-6.07322 -18.2437 0.0
18.5091 -4.18721 0.0
12.8399 0.522657 0.0
10.9631 1.00803 0.0
39.0371 -5.80344 0.0
44.1542 -1.03322 0.0
25.866 -0.90492 0.0
26.6459 -1.2399 0.0
3.82369 -0.077214 0.0
13.0147 1.06792 0.0
28.7354 1.02697 0.0
24.8499 -7.9845 0.0
25.6935 -0.740554 0.0
10.1754 -0.585836 0.0
25.8894 -2.31639 0.0
10.9368 0.459416 0.0
20.6231 -5.18495 0.0
17.0515 -0.436386 0.0
2.34079 -20.7109 0.0
27.1066 10.4568 0.0
14.7179 -2.63427 0.0
34.5152 -0.655839 0.0
12.5872 3.14549 0.0
32.7424 -8.64741 0.0
44.6977 0.856765 0.0
11.1485 -11.5192 0.0
43.6383 -1.62116 0.0
21.721 1.05104 0.0
23.6705 -7.54109 0.0
-2.51951 9.05203 0.0
10.8281 1.07949 0.0
33.4262 4.53948 0.0
27.2011 5.85124 0.0
12.9135 5.01504 0.0
25.9962 1.45996 0.0
10.7468 5.29705 0.0
9.36406 -0.000130219 0.0
16.9576 -3.50315 0.0
13.8725 -12.5017 0.0
31.4334 0.520492 0.0
18.7893 -4.52462 0.0
12.2564 -0.0267251 0.0
25.4449 -2.95225 0.0
44.2117 0.498188 0.0
25.5204 0.79092 0.0
19.9401 5.05598 0.0
-9.73067 9.06952 0.0
6.98622 -18.6861 0.0
26.1262 2.2897 0.0
26.4295 -1.76719 0.0
10.9224 -0.261443 0.0
26.7278 9.33728 0.0
35.0693 -0.0145941 0.0
29.3565 -10.8034 0.0
6.42813 4.36337 0.0
13.9057 0.214923 0.0
20.6367 -1.38371 0.0
14.4291 0.360103 0.0
10.0188 -0.81375 0.0
14.2759 -3.42663 0.0
31.1977 8.47132 0.0
11.036 0.0421718 0.0
-10.0583 -9.31325 0.0
30.4125 0.12876 0.0
9.97783 0.0934281 0.0
29.6879 -12.2269 0.0
20.6319 -14.4357 0.0
45.0028 0.398545 0.0
13.803 0.153715 0.0
24.0001 10.9114 0.0
-4.6563 15.1743 0.0
9.82223 0.0441284 0.0
12.732 0.0822483 0.0
-3.13912 -9.36694 0.0
6.0406 -5.09916 0.0
23.0255 8.85236 0.0
21.1563 4.13993 0.0
21.293 8.17968 0.0
7.8278 -1.70125 0.0
13.7113 0.071276 0.0
33.9195 -0.275948 0.0
15.1732 -3.5661 0.0
16.9766 -15.7242 0.0
2.8301 14.5849 0.0
13.9123 -0.00605158 0.0
22.4257 -1.71697 0.0
43.9694 0.124473 0.0
11.1726 -0.206891 0.0
40.8227 3.82082 0.0
44.9459 0.239779 0.0
11.9967 -0.979842 0.0
10.9101 -0.182217 0.0
25.2131 -8.81721 0.0
26.276 1.90616 0.0
20.7304 -0.44153 0.0
43.8505 -0.2804 0.0
18.5693 0.627533 0.0
12.6082 -0.327844 0.0
5.98511 -0.305234 0.0
12.9114 -0.41062 0.0
11.8988 -3.09392 0.0
17.1426 -0.565501 0.0
33.3913 -10.1024 0.0
13.0181 -0.0593576 0.0
12.531 1.39041 0.0
17.6612 -3.22442 0.0
20.2776 -4.07362 0.0
12.0114 0.0444224 0.0
18.496 0.86739 0.0
7.15425 -1.26389 0.0
12.7488 0.558509 0.0
10.8846 18.6092 0.0
17.9885 -0.168717 0.0
22.071 10.5995 0.0
23.3973 5.2796 0.0
13.724 1.35082 0.0
10.7791 0.515263 0.0
12.7853 0.716809 0.0
8.81385 1.80922 0.0
29.6696 0.892338 0.0
25.4028 0.487011 0.0
6.23784 -0.146986 0.0
10.7517 0.668263 0.0
5.92768 -0.0431098 0.0
12.9208 -0.0408456 0.0
15.3983 -0.69762 0.0
12.655 -2.40248 0.0
19.7115 15.988 0.0
24.3033 -5.44695 0.0
10.7081 0.346598 0.0
16.1524 0.832548 0.0
17.3035 -1.35084 0.0
8.88781 -0.0350579 0.0
13.2711 -0.0962822 0.0
11.0315 -0.245082 0.0
44.5368 0.125247 0.0
4.76326 -7.14917 0.0
12.8198 -0.185195 0.0
12.7105 -0.210947 0.0
11.3166 -0.0471796 0.0
43.5662 -0.152307 0.0
34.5107 9.28172 0.0
41.0552 -3.92686 0.0
6.61643 0.00593979 0.0
12.12 4.44702 0.0
26.2993 -0.00714581 0.0
13.9529 -0.137849 0.0
31.1575 -0.73219 0.0
5.01973 5.29746 0.0
19.5091 0.600943 0.0
10.6533 -4.64236 0.0
6.62891 -0.0487569 0.0
18.8633 -13.9754 0.0
24.9027 -0.138591 0.0
22.2195 -6.45002 0.0
12.5815 0.315501 0.0
-10.105 1.66388 0.0
25.6551 0.167172 0.0
20.5153 -0.0828777 0.0
43.9071 0.203479 0.0
14.3762 -0.261227 0.0
35.8204 -0.418278 0.0
10.6446 0.543875 0.0
17.1095 -4.35513 0.0
6.46748 -0.551434 0.0
7.68519 -0.0637318 0.0
11.9108 -0.5537 0.0
10.0679 -4.72806 0.0
16.9095 4.42784 0.0
26.5445 -0.0648605 0.0
23.5521 0.922531 0.0
24.7437 0.0324864 0.0
10.5762 0.2587 0.0
24.6902 -1.64975 0.0
2.57443 -11.6034 0.0
42.3444 -2.51993 0.0
20.7556 -14.3277 0.0
14.6912 -2.47073 0.0
12.6569 2.91795 0.0
13.0071 0.0759875 0.0
9.12522 -14.9778 0.0
24.0561 -0.037979 0.0
42.2295 -0.561594 0.0
17.6466 0.64897 0.0
24.5107 -1.44682 0.0
16.2039 -0.394412 0.0
33.5563 -0.257229 0.0
17.0878 0.593447 0.0
11.0077 -0.154278 0.0
10.6073 -0.180611 0.0
-10.0992 -2.12125 0.0
12.1935 -1.12334 0.0
7.59176 1.6457 0.0
13.5834 -3.55856 0.0
14.2624 -1.55082 0.0
16.5686 -0.182657 0.0
16.8116 -0.158848 0.0
20.5405 0.332393 0.0
40.3796 -3.77077 0.0
24.2579 5.04284 0.0
9.74595 -0.581077 0.0
23.8161 8.09681 0.0
23.1092 -6.7805 0.0
7.24326 0.0593494 0.0
17.9424 -12.1555 0.0
13.5662 0.573915 0.0
10.3195 -0.0582577 0.0
10.7534 -0.191431 0.0
15.5782 0.282913 0.0
6.81166 1.26968 0.0
10.8075 1.84036 0.0
7.80052 2.21316 0.0
3.50956 18.1498 0.0
42.0352 -1.4372 0.0
30.3002 11.7574 0.0
12.4802 -0.198398 0.0
21.6769 6.83112 0.0
11.146 0.0019977 0.0
44.196 -0.231295 0.0
24.495 5.59124 0.0
21.0036 14.3433 0.0
12.622 3.05323 0.0
25.2041 0.197045 0.0
11.382 0.110435 0.0
7.98899 3.59891 0.0
9.47433 -1.73395 0.0
24.7526 0.0948761 0.0
24.3041 1.02776 0.0
25.8867 0.494831 0.0
8.64359 -1.80985 0.0
19.2666 -10.9288 0.0
43.631 1.07685 0.0
16.5076 -3.84163 0.0
10.5653 -0.478359 0.0
30.0894 -10.5662 0.0
43.6247 -0.390576 0.0
23.4527 -0.839217 0.0
24.2688 8.0516 0.0
34.413 -1.01586 0.0
12.6205 -0.214239 0.0
6.91257 0.863862 0.0
11.242 -0.213849 0.0
6.28759 -0.12842 0.0
5.42098 -0.8051 0.0
18.4927 15.9138 0.0
24.5291 9.52216 0.0
7.76263 2.44301 0.0
24.1735 6.55957 0.0
25.1504 3.7799 0.0
4.58648 -0.910235 0.0
33.0116 -8.16598 0.0
4.07701 0.787079 0.0
6.25965 0.183495 0.0
13.3134 10.374 0.0
6.25977 0.816278 0.0
44.7596 -0.00596206 0.0
33.5204 -9.23889 0.0
3.58732 -0.34278 0.0
24.1951 0.691129 0.0
29.4675 -0.973108 0.0
24.3938 3.92827 0.0
6.439 18.6807 0.0
20.585 5.96924 0.0
24.2313 5.13508 0.0
5.8043 0.258292 0.0
26.9924 0.66009 0.0
38.5764 6.52903 0.0
4.12893 -0.831345 0.0
6.11608 -0.20993 0.0
35.9809 -0.832447 0.0
4.23151 0.872934 0.0
39.609 -4.69494 0.0
33.127 9.73862 0.0
14.0079 -0.698908 0.0
5.75438 -0.0572249 0.0
12.5807 0.390194 0.0
17.7268 0.358333 0.0
17.9111 0.116149 0.0
44.2242 -0.00280794 0.0
16.7045 -0.119151 0.0
12.2014 0.619552 0.0
42.8915 0.118243 0.0
44.5131 -0.105237 0.0
25.7653 0.290445 0.0
41.2954 0.509522 0.0
24.3262 -0.10669 0.0
39.0046 -5.18237 0.0
25.193 0.148309 0.0
21.1593 -5.96856 0.0
24.6135 2.93083 0.0
10.0917 0.627306 0.0
23.4893 0.0434763 0.0
29.0355 -0.607446 0.0
20.7544 -5.87115 0.0
8.82372 -0.698831 0.0
11.9795 -1.87118 0.0
43.6253 0.200746 0.0
8.48782 0.546218 0.0
25.2228 0.144044 0.0
42.6235 0.470332 0.0
7.06097 0.21345 0.0
24.097 3.92405 0.0
23.785 4.48059 0.0
25.6039 0.0914453 0.0
37.7663 7.25815 0.0
41.3665 4.3917 0.0
5.21918 2.3227 0.0
6.4953 1.0103 0.0
20.7975 1.14287 0.0
26.5518 -12.1015 0.0
13.5574 -14.0623 0.0
5.20761 0.857765 0.0
40.5812 0.033689 0.0
23.2704 -5.58718 0.0
42.8738 -0.448597 0.0
25.6053 0.103584 0.0
3.99022 -0.129423 0.0
3.77107 0.717774 0.0
25.0248 8.92252 0.0
6.05674 0.11056 0.0
24.2824 6.50237 0.0
40.8002 0.708065 0.0
4.11213 0.00156736 0.0
6.07739 -0.0383147 0.0
23.8597 3.41887 0.0
23.3549 0.345834 0.0
3.89568 0.137631 0.0
20.9851 -0.121092 0.0
25.2874 0.161536 0.0
6.81503 -0.987549 0.0
25.6353 0.107193 0.0
22.1874 3.31659 0.0
42.2731 -0.697948 0.0
24.6626 2.1656 0.0
6.58436 -0.489908 0.0
39.4265 5.37383 0.0
5.09598 -0.912815 0.0
6.42278 0.36354 0.0
17.6675 -9.64679 0.0
6.27917 0.374757 0.0
22.2909 4.28697 0.0
24.0223 2.56929 0.0
38.6983 4.56384 0.0
42.1175 3.07805 0.0
10.3821 -0.858872 0.0
17.591 3.39329 0.0
42.7391 0.442278 0.0
3.68335 -0.453271 0.0
3.36666 0.456855 0.0
11.1468 -0.892836 0.0
10.0208 0.785848 0.0
25.3607 -0.542534 0.0
7.04201 -0.335791 0.0
22.9198 0.62117 0.0
25.6611 1.27832 0.0
6.1707 0.676081 0.0
11.9788 0.57685 0.0
23.778 5.74824 0.0
6.78264 0.304364 0.0
24.4546 1.52744 0.0
22.1084 2.53124 0.0
24.0453 0.333535 0.0
6.10718 -0.406716 0.0
4.74013 0.288901 0.0
7.66258 0.588572 0.0
18.0742 -0.270474 0.0
8.9337 -0.928433 0.0
25.7097 0.130556 0.0
3.98958 0.0760487 0.0
41.1888 2.29263 0.0
6.75026 -0.384133 0.0
3.36398 0.542812 0.0
14.6758 -1.15989 0.0
23.9898 7.16775 0.0
6.58474 -0.765579 0.0
24.0524 0.264177 0.0
23.7725 1.89156 0.0
22.516 4.21953 0.0
25.4004 0.177456 0.0
21.9623 1.91689 0.0
14.1323 -2.03201 0.0
31.3721 -8.87456 0.0
25.3176 -3.31034 0.0
21.7915 1.42389 0.0
6.40638 -0.537878 0.0
6.83547 0.561043 0.0
42.7907 -0.115911 0.0
3.17707 0.30969 0.0
33.1174 -0.620766 0.0
15.2169 3.67806 0.0
25.524 0.173826 0.0
3.2574 0.376017 0.0
3.77857 -0.573873 0.0
23.6508 1.34503 0.0
24.3945 8.60155 0.0
18.3908 -0.132647 0.0
29.5929 -0.86421 0.0
22.3238 0.0670258 0.0
26.0793 -0.82168 0.0
12.2911 -4.43223 0.0
22.6476 -0.0873008 0.0
21.0512 2.81087 0.0
3.49746 -0.237283 0.0
21.6554 1.03151 0.0
18.2864 3.01605 0.0
11.1585 -0.468332 0.0
25.2964 0.302981 0.0
4.2395 -0.321896 0.0
4.68345 0.328041 0.0
21.1866 3.63639 0.0
23.3039 -0.111648 0.0
22.3144 -0.777758 0.0
13.0885 -0.117538 0.0
23.145 0.789588 0.0
25.8089 0.145449 0.0
23.3304 -4.19532 0.0
3.99422 0.862652 0.0
24.0921 0.472593 0.0
25.1793 -3.79553 0.0
20.7571 1.64016 0.0
20.6515 2.17156 0.0
7.66959 -1.44977 0.0
29.2149 -11.8978 0.0
5.21585 -3.04454 0.0
24.4279 -13.5377 0.0
23.8192 -0.874089 0.0
25.1163 4.216 0.0
23.7111 1.0058 0.0
4.13559 -0.758559 0.0
21.573 0.745115 0.0
21.6101 1.28774 0.0
20.6008 1.23152 0.0
26.3665 0.0875196 0.0
20.9248 2.15352 0.0
23.4442 0.635744 0.0
25.1318 -0.65345 0.0
23.7676 -3.40382 0.0
8.1561 -2.15166 0.0
41.7811 -0.706781 0.0
10.4486 -0.106724 0.0
19.1464 -2.58002 0.0
6.95662 -3.92731 0.0
35.4672 8.02095 0.0
25.9709 0.109004 0.0
2.88131 -0.2347 0.0
2.95622 0.242591 0.0
23.3535 0.453966 0.0
40.2001 0.767884 0.0
21.5517 0.5563 0.0
16.5577 2.86807 0.0
3.94131 -0.16854 0.0
6.4259 -0.24983 0.0
5.18624 0.400478 0.0
2.80129 1.22467 0.0
5.66426 -2.13079 0.0
24.5094 -5.10514 0.0
26.4571 0.07544 0.0
38.8311 5.89475 0.0
1.02688 0.668833 0.0
19.5707 -0.0453068 0.0
20.7971 -0.0465425 0.0
19.7995 -1.82649 0.0
17.4153 3.45147 0.0
1.13551 -0.645622 0.0
2.99682 -1.11517 0.0
17.9581 0.33145 0.0
20.0232 0.798414 0.0
20.5333 0.908567 0.0
15.1751 -1.59683 0.0
23.3064 -0.0562628 0.0
44.7042 -0.272557 0.0
24.0669 -0.0513627 0.0
19.6492 2.66512 0.0
25.6963 0.0898436 0.0
3.82128 -0.235898 0.0
23.8533 7.17428 0.0
25.5821 0.271587 0.0
24.1022 0.245739 0.0
25.3393 0.0533624 0.0
21.9472 -1.13805 0.0
3.67374 0.164003 0.0
25.6299 -0.0331167 0.0
4.84668 -0.485467 0.0
11.0668 1.23803 0.0
17.2653 -0.159039 0.0
21.561 0.449912 0.0
20.49 0.672145 0.0
24.5931 0.658688 0.0
25.2537 0.566304 0.0
24.7072 0.780524 0.0
3.11486 0.2161 0.0
5.91193 0.379124 0.0
5.26891 -0.303003 0.0
25.8797 0.151882 0.0
23.4032 0.297828 0.0
42.1945 0.551119 0.0
4.73269 0.573008 0.0
23.4449 0.0748835 0.0
22.7661 1.55971 0.0
9.87374 4.0718 0.0
23.7755 -0.0386809 0.0
2.30074 0.341445 0.0
22.9396 -0.0725692 0.0
22.2044 -0.387698 0.0
23.1321 -0.437065 0.0
17.6801 -0.216127 0.0
16.3659 -0.207297 0.0
22.6629 -0.11138 0.0
6.48603 -0.70569 0.0
43.7025 -1.20867 0.0
25.5966 -0.0153399 0.0
24.5306 -0.134007 0.0
24.2083 0.252177 0.0
21.6393 0.394304 0.0
12.4173 0.00265104 0.0
23.4907 0.289414 0.0
26.082 -2.30299 0.0
25.7035 0.0431487 0.0
6.3089 0.230966 0.0
21.2811 2.15359 0.0
2.44704 -0.311704 0.0
25.8626 0.342561 0.0
26.0211 0.267415 0.0
21.7633 0.373427 0.0
1.81398 0.505126 0.0
28.6489 -10.8006 0.0
25.9794 0.0691119 0.0
25.1356 0.644005 0.0
23.4916 -0.0749738 0.0
24.3286 -0.135381 0.0
24.3635 0.25775 0.0
25.813 0.161355 0.0
25.7953 0.195241 0.0
25.9063 0.138534 0.0
21.9656 0.373434 0.0
2.89858 0.178151 0.0
9.71254 0.542833 0.0
25.2152 -0.280926 0.0
19.192 8.67909 0.0
1.93235 -0.471666 0.0
5.5931 -0.19516 0.0
23.4106 -12.0952 0.0
22.807 1.49854 0.0
23.6483 0.297198 0.0
10.3345 -0.363251 0.0
24.3131 -0.148832 0.0
24.8355 -0.11808 0.0
16.5788 3.8442 0.0
5.45669 0.30716 0.0
2.75463 -0.197183 0.0
25.7654 -2.78553 0.0
19.6991 2.33292 0.0
22.9381 -1.15349 0.0
25.9866 0.300597 0.0
10.6846 -1.59835 0.0
23.8393 0.288029 0.0
20.4936 0.537194 0.0
25.6419 -0.0444857 0.0
2.62721 0.236378 0.0
24.5414 0.234605 0.0
25.6789 -0.000116551 0.0
3.12747 -0.087264 0.0
22.2207 0.354587 0.0
25.6354 0.141013 0.0
26.1125 0.388639 0.0
24.844 0.0924 0.0
24.7084 -0.163286 0.0
25.9464 0.028413 0.0
22.0599 -0.607722 0.0
24.8211 -0.0757688 0.0
24.7298 0.169488 0.0
24.3589 0.0542547 0.0
24.1873 -0.187929 0.0
2.96798 -0.124622 0.0
24.9106 0.18927 0.0
24.081 -0.214566 0.0
3.8948 0.15094 0.0
25.8934 -0.0147303 0.0
6.14996 0.28203 0.0
24.0581 0.226797 0.0
24.6062 -0.19672 0.0
26.1285 0.324902 0.0
25.323 -0.054776 0.0
24.9 0.0320814 0.0
25.962 0.262662 0.0
12.259 0.179018 0.0
22.8245 0.134832 0.0
21.5693 0.783207 0.0
22.4433 0.262318 0.0
2.81034 -0.0241665 0.0
25.4964 0.178366 0.0
24.2484 0.130219 0.0
20.4332 -2.22817 0.0
3.47286 -0.263756 0.0
20.6907 0.417618 0.0
3.40167 0.188682 0.0
19.575 -2.19544 0.0
22.4074 0.873938 0.0
20.8814 0.404191 0.0
23.2662 -0.121259 0.0
23.9873 -0.222061 0.0
21.1713 0.400545 0.0
24.9291 -0.0597342 0.0
34.2998 9.5365 0.0
19.1591 -2.4242 0.0
24.3581 -0.0341506 0.0
26.0098 0.406071 0.0
25.9593 0.396316 0.0
26.0953 0.309475 0.0
24.5198 -0.21373 0.0
26.2384 0.334949 0.0
21.5766 -0.113358 0.0
26.2334 0.315372 0.0
23.7499 -0.11745 0.0
22.9625 0.0474715 0.0
11.5857 0.301069 0.0
25.034 0.0797949 0.0
26.2331 0.310601 0.0
20.1461 -0.472507 0.0
26.0486 0.357693 0.0
24.4454 -0.207186 0.0
23.9059 -0.20068 0.0
3.05025 0.142405 0.0
24.42 -0.00023341 0.0
20.569 0.462193 0.0
26.3531 0.302844 0.0
19.0408 -0.0845082 0.0
6.51627 0.200712 0.0
23.0828 -0.013487 0.0
26.0907 0.27479 0.0
21.7474 0.19501 0.0
21.1591 -0.116585 0.0
23.8321 -0.144475 0.0
26.1109 0.160012 0.0
24.3824 -0.170563 0.0
22.0676 0.086772 0.0
15.3636 3.0201 0.0
25.8379 -0.0611237 0.0
26.367 0.27052 0.0
25.5103 0.525128 0.0
11.3235 -0.0659539 0.0
24.4569 -0.0458236 0.0
20.3666 -0.135582 0.0
3.47294 0.119636 0.0
6.04969 0.238263 0.0
24.3183 -0.106604 0.0
25.6946 0.261633 0.0
22.7937 -0.229215 0.0
23.7489 -0.0662317 0.0
26.2883 0.22111 0.0
23.0826 -0.164331 0.0
23.1761 -0.0614751 0.0
23.6273 0.0119739 0.0
20.6167 -0.16461 0.0
22.4432 -0.1516 0.0
26.4533 0.224376 0.0
20.852 -0.136803 0.0
26.013 0.152692 0.0
22.6605 -0.240117 0.0
23.4158 -0.194945 0.0
22.2603 -0.189522 0.0
20.3992 -0.197106 0.0
25.6887 0.24771 0.0
24.2322 -0.0321225 0.0
4.26978 0.135334 0.0
6.64994 0.196969 0.0
26.3011 0.0916131 0.0
26.0791 0.0285805 0.0
21.3823 0.362095 0.0
22.1807 0.0328329 0.0
22.3646 -0.0450051 0.0
26.1679 0.371084 0.0
23.4408 0.0701487 0.0
25.5639 0.511284 0.0
24.9226 -0.0155125 0.0
20.2016 -0.229471 0.0
21.8055 -0.245608 0.0
22.2224 0.00970611 0.0
24.1019 0.0324389 0.0
26.468 0.175438 0.0
25.6057 -0.0895522 0.0
22.1024 -0.222358 0.0
26.6893 8.34104 0.0
19.4168 -0.182521 0.0
21.9514 -0.245395 0.0
20.0259 -0.258764 0.0
24.2641 0.835099 0.0
23.2009 0.0891302 0.0
23.9202 0.0675104 0.0
22.5508 -0.217521 0.0
19.6677 -0.155284 0.0
21.4369 -0.00114583 0.0
26.0631 0.265403 0.0
19.8389 -0.266144 0.0
21.687 -0.195218 0.0
22.9676 0.0594805 0.0
13.0175 0.147122 0.0
25.2646 0.183609 0.0
19.6311 -0.206049 0.0
11.3471 0.103801 0.0
19.1944 -0.213484 0.0
23.7171 0.0592879 0.0
19.5211 -0.0908157 0.0
21.5699 -0.103375 0.0
19.9559 -0.140297 0.0
3.05927 -0.0483938 0.0
5.71161 -0.0884036 0.0
12.9625 0.21254 0.0
22.8489 -0.19906 0.0
22.34 -0.0581926 0.0
22.7915 0.00117204 0.0
23.5413 0.0129053 0.0
19.3481 0.0229484 0.0
6.47002 0.0967287 0.0
26.2057 0.199256 0.0
5.87471 -0.0946301 0.0
26.5025 0.092168 0.0
22.7042 -0.0549142 0.0
18.9873 -0.246133 0.0
21.9256 0.101578 0.0
18.7399 -0.274865 0.0
26.4931 0.01567 0.0
21.5898 0.130148 0.0
3.16868 -0.0492676 0.0
5.79216 -0.0955148 0.0
22.4511 -0.150384 0.0
3.41901 0.0584622 0.0
23.4279 -0.0492316 0.0
18.5367 -0.251061 0.0
18.3687 -0.142762 0.0
21.2139 0.0839483 0.0
23.2125 -0.0977126 0.0
26.2606 0.0301138 0.0
21.2818 0.103042 0.0
21.0467 0.0393118 0.0
5.84675 -0.0813023 0.0
3.2953 -0.0488337 0.0
10.8199 0.174559 0.0
18.2083 -0.0143665 0.0
20.8495 0.140241 0.0
22.9286 -0.201362 0.0
20.4578 0.148262 0.0
23.9698 -0.0459534 0.0
11.0614 0.194984 0.0
20.1426 0.0911486 0.0
23.4152 -0.0939567 0.0
20.9082 -0.0111173 0.0
5.89295 0.0999292 0.0
2.9861 -0.0329797 0.0
2.51776 -0.0490145 0.0
3.21036 -0.0437838 0.0
5.81704 -0.0247855 0.0
6.19233 0.104501 0.0
2.73826 -0.0113336 0.0
3.0971 0.00193 0.0
5.68221 -0.0851866 0.0
2.9985 -0.0328285 0.0
3.23989 -0.0265182 0.0
3.43064 0.0832981 0.0
6.28574 -0.0826727 0.0
3.33269 0.0539805 0.0
5.60858 -0.0578514 0.0
3.20185 0.0531758 0.0
5.97441 -0.0439936 0.0
5.80231 -0.0331685 0.0
3.1145 0.103394 0.0
6.41383 0.121382 0.0
5.67843 -0.0712381 0.0
5.56023 -0.074361 0.0
3.18464 0.161821 0.0
5.39687 -0.0400491 0.0
5.77361 0.134577 0.0
2.94916 -0.0178918 0.0
5.63015 -0.0439736 0.0
3.33893 0.0115052 0.0
2.96492 0.062942 0.0
5.45212 -0.0981736 0.0
3.19936 0.118929 0.0
3.85895 0.0654647 0.0
3.22083 0.198754 0.0
2.72311 0.0561076 0.0
2.92709 -0.0111615 0.0
5.69424 0.0150457 0.0
3.08015 -0.0484936 0.0
3.15859 -0.0491942 0.0
3.2764 0.126757 0.0
3.31132 0.119122 0.0
3.2072 -0.00316009 0.0
3.15011 0.03899 0.0
2.6904 -0.0490531 0.0
3.03736 -0.0281337 0.0
3.77398 -0.00354893 0.0
6.35216 -0.0148933 0.0
3.27803 -0.0820315 0.0
3.89827 0.0525673 0.0
5.40855 0.113914 0.0
5.30807 -0.107983 0.0
3.00815 -0.0439449 0.0
3.29984 0.135103 0.0
3.04718 0.027527 0.0
5.93458 0.0109852 0.0
2.88829 0.0702882 0.0
3.1984 0.0545318 0.0
2.98601 -0.0442651 0.0
6.00457 0.241384 0.0
3.67917 -0.0552773 0.0
2.64317 0.0159238 0.0
2.99445 0.0117946 0.0
2.54992 0.0333272 0.0
3.29036 0.0546643 0.0
3.31519 -0.0155465 0.0
4.98565 -0.0438756 0.0
2.27752 -0.0161029 0.0
5.85172 0.237603 0.0
6.04384 0.0931381 0.0
23.1264 -0.107072 0.0
22.7527 -0.0705502 0.0
24.9298 -0.102487 0.0
19.9345 0.0269022 0.0
26.1461 -0.195125 0.0
26.2479 -0.0444133 0.0
19.7692 0.0094247 0.0
26.2105 -0.19882 0.0
26.4121 -0.138507 0.0
26.2738 -0.203544 0.0
26.4647 -0.0624656 0.0
20.9121 -0.00259742 0.0
22.9351 -0.0574346 0.0
26.3485 -0.169273 0.0
22.2819 -0.0954081 0.0
26.0574 -0.148182 0.0
23.5357 -0.100323 0.0
26.0119 -0.122863 0.0
24.715 -0.151018 0.0
25.0789 -0.176111 0.0
17.3719 0.0739542 0.0
26.0452 -0.210978 0.0
26.0249 -0.0819344 0.0
25.2395 -0.149863 0.0
26.1924 -0.150297 0.0
19.3725 -0.0734693 0.0
24.4789 -0.0889661 0.0