# vtk DataFile Version 3.0
Malha 2D com triângulos e temperatura
ASCII
DATASET UNSTRUCTURED_GRID

POINTS 1194 double
0 0 0
5 0 0
5 1 0
0 1 0
0.85 0.5 0
0.842388 0.538268 0
0.820711 0.570711 0
0.788268 0.592388 0
0.75 0.6 0
0.711732 0.592388 0
0.679289 0.570711 0
0.657612 0.538268 0
0.65 0.5 0
0.657612 0.461732 0
0.679289 0.429289 0
0.711732 0.407612 0
0.75 0.4 0
0.788268 0.407612 0
0.820711 0.429289 0
0.842388 0.461732 0
0.0793651 0 0
0.15873 0 0
0.238095 0 0
0.31746 0 0
0.396825 0 0
0.47619 0 0
0.555556 0 0
0.634921 0 0
0.714286 0 0
0.793651 0 0
0.873016 0 0
0.952381 0 0
1.03175 0 0
1.11111 0 0
1.19048 0 0
1.26984 0 0
1.34921 0 0
1.42857 0 0
1.50794 0 0
1.5873 0 0
1.66667 0 0
1.74603 0 0
1.8254 0 0
1.90476 0 0
1.98413 0 0
2.06349 0 0
2.14286 0 0
2.22222 0 0
2.30159 0 0
2.38095 0 0
2.46032 0 0
2.53968 0 0
2.61905 0 0
2.69841 0 0
2.77778 0 0
2.85714 0 0
2.93651 0 0
3.01587 0 0
3.09524 0 0
3.1746 0 0
3.25397 0 0
3.33333 0 0
3.4127 0 0
3.49206 0 0
3.57143 0 0
3.65079 0 0
3.73016 0 0
3.80952 0 0
3.88889 0 0
3.96825 0 0
4.04762 0 0
4.12698 0 0
4.20635 0 0
4.28571 0 0
4.36508 0 0
4.44444 0 0
4.52381 0 0
4.60317 0 0
4.68254 0 0
4.7619 0 0
4.84127 0 0
4.92063 0 0
5 0.0769231 0
5 0.153846 0
5 0.230769 0
5 0.307692 0
5 0.384615 0
5 0.461538 0
5 0.538462 0
5 0.615385 0
5 0.692308 0
5 0.769231 0
5 0.846154 0
5 0.923077 0
4.92063 1 0
4.84127 1 0
4.7619 1 0
4.68254 1 0
4.60317 1 0
4.52381 1 0
4.44444 1 0
4.36508 1 0
4.28571 1 0
4.20635 1 0
4.12698 1 0
4.04762 1 0
3.96825 1 0
3.88889 1 0
3.80952 1 0
3.73016 1 0
3.65079 1 0
3.57143 1 0
3.49206 1 0
3.4127 1 0
3.33333 1 0
3.25397 1 0
3.1746 1 0
3.09524 1 0
3.01587 1 0
2.93651 1 0
2.85714 1 0
2.77778 1 0
2.69841 1 0
2.61905 1 0
2.53968 1 0
2.46032 1 0
2.38095 1 0
2.30159 1 0
2.22222 1 0
2.14286 1 0
2.06349 1 0
1.98413 1 0
1.90476 1 0
1.8254 1 0
1.74603 1 0
1.66667 1 0
1.5873 1 0
1.50794 1 0
1.42857 1 0
1.34921 1 0
1.26984 1 0
1.19048 1 0
1.11111 1 0
1.03175 1 0
0.952381 1 0
0.873016 1 0
0.793651 1 0
0.714286 1 0
0.634921 1 0
0.555556 1 0
0.47619 1 0
0.396825 1 0
0.31746 1 0
0.238095 1 0
0.15873 1 0
0.0793651 1 0
0 0.923077 0
0 0.846154 0
0 0.769231 0
0 0.692308 0
0 0.615385 0
0 0.538462 0
0 0.461538 0
0 0.384615 0
0 0.307692 0
0 0.230769 0
0 0.153846 0
0 0.0769231 0
0.879698 0.466718 0
1.3085 0.931947 0
1.30532 0.0638546 0
4.93832 0.504275 0
0.620452 0.46964 0
3.99858 0.0669607 0
1.63721 0.934258 0
3.3751 0.0523709 0
4.3254 0.0687322 0
2.42354 0.0642082 0
2.97619 0.0687322 0
2.02101 0.0693621 0
3.68108 0.0581336 0
2.65899 0.932655 0
4.178 0.939994 0
3.21614 0.938179 0
2.25483 0.919987 0
3.53215 0.928998 0
3.84921 0.931268 0
1.69647 0.0674297 0
1.94349 0.930209 0
4.48413 0.931268 0
2.97813 0.942022 0
2.74097 0.0673855 0
0.859645 0.573263 0
0.639718 0.573116 0
0.0651563 0.652836 0
0.0635304 0.346121 0
4.56232 0.0679683 0
0.830393 0.392645 0
0.669618 0.39275 0
1.06185 0.0668897 0
0.440193 0.0680031 0
1.06474 0.93511 0
0.446074 0.935974 0
0.724697 0.630698 0
4.72268 0.931235 0
4.93065 0.267192 0
0.589836 0.936152 0
0.92338 0.0562425 0
0.590207 0.0623339 0
0.755872 0.0732784 0
0.838039 0.936714 0
4.92573 0.732039 0
0.281717 0.93783 0
0.28208 0.0811877 0
0.065248 0.503161 0
1.46076 0.0637037 0
4.72574 0.0661877 0
4.31028 0.937908 0
3.21429 0.0687322 0
1.46639 0.932632 0
3.6897 0.928155 0
2.42063 0.931268 0
3.5364 0.0691789 0
2.25998 0.0676208 0
1.78735 0.937047 0
4.01535 0.920637 0
1.85469 0.0674188 0
3.83991 0.0626292 0
3.37477 0.929368 0
2.58225 0.0657863 0
2.81746 0.932342 0
4.16667 0.0687322 0
2.11402 0.935574 0
0.0614266 0.197046 0
0.0612841 0.803003 0
4.88273 0.0644126 0
4.87774 0.933272 0
0.859645 0.426737 0
0.903081 0.436592 0
0.923672 0.473385 0
0.948706 0.439078 0
0.969155 0.479795 0
0.996593 0.439791 0
1.0202 0.484937 0
1.04667 0.440138 0
1.07382 0.489694 0
1.1034 0.440801 0
1.13169 0.49612 0
1.16603 0.445058 0
1.1931 0.504331 0
1.22956 0.450883 0
1.25923 0.506004 0
1.29683 0.453139 0
1.32923 0.510343 0
1.36603 0.454344 0
1.03276 0.530395 0
1.40063 0.516169 0
1.43576 0.454934 0
1.47042 0.520776 0
1.51069 0.46142 0
1.54422 0.526371 0
1.58547 0.465572 0
1.61942 0.531773 0
1.66033 0.468788 0
1.69546 0.536793 0
1.73713 0.472812 0
1.77239 0.541977 0
1.81532 0.478494 0
1.85006 0.547285 0
1.89327 0.483449 0
1.92802 0.55361 0
1.97142 0.488546 0
2.00623 0.558966 0
2.04984 0.493518 0
2.08483 0.564085 0
2.12847 0.498462 0
2.16353 0.569137 0
2.20719 0.503331 0
0.961579 0.391697 0
1.22451 0.565337 0
2.24238 0.574192 0
2.28611 0.508258 0
2.32134 0.579247 0
2.36519 0.513325 0
2.40036 0.584295 0
2.44425 0.51834 0
2.47944 0.589336 0
2.52334 0.523355 0
2.55853 0.594372 0
2.60245 0.52837 0
2.63764 0.599431 0
2.68159 0.533388 0
2.64637 0.462336 0
2.72553 0.467349 0
2.76076 0.538418 0
2.8047 0.47237 0
2.83993 0.543451 0
2.88387 0.477399 0
2.91911 0.548482 0
2.96305 0.482427 0
2.9983 0.553514 0
3.04224 0.487456 0
3.07749 0.558545 0
3.12143 0.492477 0
3.15668 0.563574 0
3.20063 0.497514 0
3.23588 0.568605 0
3.27983 0.502542 0
3.31508 0.573635 0
3.35903 0.507562 0
3.39428 0.578663 0
3.43823 0.5126 0
3.47348 0.583694 0
3.51744 0.517628 0
3.55268 0.588724 0
3.59664 0.522646 0
3.63189 0.593752 0
3.67585 0.527673 0
3.71109 0.598781 0
3.75505 0.532702 0
3.7903 0.60381 0
3.83426 0.537731 0
3.79901 0.466623 0
3.87821 0.471754 0
3.91346 0.542777 0
3.95742 0.476701 0
3.99267 0.547795 0
4.03662 0.481715 0
4.07187 0.552815 0
4.11582 0.486743 0
4.15106 0.55783 0
4.195 0.491782 0
4.23023 0.562843 0
4.27415 0.49682 0
4.30937 0.567866 0
4.35325 0.501915 0
4.38842 0.572845 0
4.43227 0.506997 0
4.46737 0.577575 0
4.51106 0.511995 0
4.54622 0.582183 0
1.13571 0.390292 0
4.47606 0.441361 0
4.55475 0.446396 0
2.32985 0.442214 0
3.5614 0.451571 0
3.08619 0.421408 0
2.09339 0.427815 0
1.42887 0.583001 0
2.84864 0.406329 0
3.32378 0.43649 0
4.23911 0.425894 0
1.54723 0.39251 0
1.77883 0.406811 0
1.33959 0.387065 0
3.92239 0.405803 0
4.08079 0.415776 0
2.48812 0.452349 0
1.57935 0.603183 0
1.93602 0.417543 0
1.72453 0.617973 0
3.11273 0.629643 0
2.69029 0.396284 0
3.94662 0.623383 0
1.88466 0.613248 0
2.79598 0.609502 0
4.10826 0.620575 0
2.04005 0.62838 0
2.95434 0.619575 0
4.51981 0.375801 0
4.59833 0.380943 0
4.63314 0.451296 0
4.26693 0.63114 0
2.19619 0.645921 0
4.4246 0.642296 0
3.27112 0.639707 0
2.35729 0.649822 0
2.51462 0.660373 0
3.42952 0.649769 0
4.67669 0.38601 0
3.58793 0.659829 0
3.74634 0.669888 0
4.64195 0.315733 0
4.44109 0.370647 0
4.48493 0.305066 0
4.40614 0.29989 0
4.71136 0.456133 0
4.72014 0.320758 0
0.8692 0.382093 0
0.841252 0.348256 0
0.886481 0.338703 0
0.853127 0.301457 0
0.902583 0.287335 0
0.801683 0.321689 0
0.818113 0.263019 0
0.764765 0.277091 0
4.44702 0.235678 0
0.946267 0.520761 0
0.78107 0.221265 0
0.726309 0.234724 0
0.848273 0.20551 0
4.68545 0.250576 0
4.37074 0.227561 0
4.76365 0.255792 0
4.79822 0.326145 0
0.713664 0.287231 0
0.672358 0.247957 0
0.68673 0.192342 0
0.630368 0.2085 0
0.616569 0.265341 0
0.574186 0.225456 0
0.557393 0.28131 0
0.52004 0.242373 0
0.504416 0.299685 0
0.462273 0.252096 0
0.44798 0.316739 0
0.404567 0.276951 0
0.390546 0.335414 0
0.434669 0.37657 0
0.377935 0.394545 0
0.421979 0.43426 0
0.365682 0.452846 0
0.409646 0.492216 0
0.353389 0.51089 0
0.397738 0.551598 0
0.339864 0.570301 0
0.385899 0.612153 0
0.325913 0.631557 0
0.344507 0.29318 0
0.320568 0.413067 0
0.373553 0.673852 0
0.434438 0.653082 0
0.311416 0.69481 0
0.449777 0.528305 0
0.293513 0.534612 0
0.421431 0.715204 0
0.480917 0.696603 0
0.54504 0.34471 0
0.262743 0.649913 0
0.246209 0.712341 0
0.468564 0.755948 0
0.526091 0.735423 0
0.538207 0.68039 0
0.581228 0.716342 0
0.408756 0.777952 0
0.36234 0.239019 0
0.297047 0.251925 0
0.572109 0.771575 0
0.624906 0.752173 0
0.474824 0.414151 0
0.534351 0.182707 0
0.633682 0.70159 0
0.674547 0.736174 0
0.66826 0.788959 0
0.721117 0.76834 0
0.714515 0.825486 0
0.769074 0.802008 0
0.775287 0.746591 0
0.821903 0.778625 0
0.826767 0.726064 0
0.873257 0.756032 0
0.872997 0.697261 0
0.92331 0.732304 0
0.930014 0.67838 0
0.976061 0.710612 0
0.92456 0.784469 0
0.982178 0.654421 0
1.03016 0.688004 0
1.02037 0.747059 0
1.08 0.723819 0
1.08651 0.661896 0
1.1397 0.698204 0
1.13262 0.763657 0
1.19424 0.736545 0
1.18556 0.80161 0
1.24839 0.771772 0
1.25723 0.706382 0
1.31432 0.745787 0
4.66801 0.521361 0
4.74602 0.526202 0
4.70285 0.591278 0
4.78076 0.596023 0
4.73763 0.661207 0
4.78904 0.460969 0
2.61113 0.391267 0
2.65506 0.325217 0
2.57588 0.320198 0
2.61982 0.254148 0
2.69899 0.259163 0
2.54065 0.249131 0
2.49672 0.315179 0
2.46148 0.244124 0
2.41757 0.310166 0
2.38233 0.239117 0
2.33843 0.30514 0
2.30297 0.237979 0
2.25928 0.300748 0
2.22079 0.221377 0
2.17969 0.293884 0
2.14114 0.224266 0
2.10047 0.289841 0
2.0653 0.219144 0
2.02202 0.284919 0
1.98701 0.214164 0
1.94336 0.279863 0
3.82315 0.673327 0
3.78135 0.738156 0
3.86451 0.735958 0
3.70234 0.735494 0
4.52513 0.244409 0
4.32717 0.294467 0
4.29217 0.221862 0
0.619934 0.539507 0
0.599432 0.577132 0
0.575955 0.542712 0
0.554504 0.58245 0
4.65962 0.656481 0
4.69438 0.726169 0
4.6161 0.721747 0
4.77259 0.731352 0
4.65076 0.791486 0
4.57153 0.788793 0
4.2482 0.289182 0
4.21307 0.218308 0
4.1691 0.284563 0
4.13394 0.21352 0
0.835918 0.606341 0
0.806475 0.6384 0
4.08995 0.279537 0
0.640355 0.426737 0
0.596214 0.435837 0
0.630358 0.379178 0
0.689967 0.627735 0
1.90832 0.209948 0
1.86468 0.27519 0
1.82968 0.20518 0
1.78607 0.269797 0
0.281841 0.313314 0
0.232117 0.268621 0
0.216861 0.334396 0
4.05473 0.209347 0
4.01077 0.2745 0
3.97554 0.204394 0
3.93159 0.269388 0
0.297409 0.759367 0
0.231645 0.782943 0
0.180008 0.73598 0
1.32151 0.676369 0
1.38055 0.718092 0
1.36901 0.793947 0
1.43945 0.766002 0
0.249902 0.198865 0
0.932364 0.624392 0
1.75117 0.201034 0
1.70771 0.264658 0
1.673 0.195402 0
1.62985 0.260294 0
1.59532 0.191927 0
1.55236 0.254233 0
3.89629 0.200227 0
3.85238 0.264494 0
3.81708 0.195303 0
3.77304 0.259453 0
2.66368 0.189084 0
2.74279 0.19534 0
2.77814 0.264556 0
2.82201 0.199823 0
2.85733 0.269552 0
2.90126 0.203886 0
2.93654 0.274416 0
2.98045 0.20868 0
3.01573 0.279376 0
3.0597 0.213193 0
[...]
CELL_DATA 2220
VECTORS velocity double
16.2495 -1.37297 0.0
12.0697 0.429791 0.0
20.6814 5.6162 0.0
20.6213 1.11116 0.0
16.5958 -1.66586 0.0
20.0934 -0.888503 0.0
10.2712 0.413826 0.0
11.3727 -0.00398311 0.0
21.81 10.4441 0.0
19.738 -0.593345 0.0
14.5127 16.4171 0.0
10.8106 0.266128 0.0
8.70404 0.194958 0.0
19.2068 -5.8872 0.0
18.7743 15.3719 0.0
13.6457 10.5922 0.0
11.8022 0.482179 0.0
9.59038 0.472075 0.0
10.7219 -0.113418 0.0
11.5232 -0.0933379 0.0
17.6096 4.25553 0.0
34.3253 -6.20303 0.0
11.0563 0.508855 0.0
11.2071 0.495549 0.0
18.7149 -0.949993 0.0
17.5851 -4.81983 0.0
18.3339 -2.13521 0.0
9.69596 0.486112 0.0
20.4037 1.17301 0.0
22.9748 1.10995 0.0
14.8261 -2.97038 0.0
27.2547 0.151859 0.0
8.09736 -0.103034 0.0
25.9854 -12.5305 0.0
39.4734 1.71975 0.0
20.2373 -1.00655 0.0
38.8715 2.57008 0.0
9.35668 -0.103403 0.0
23.8795 1.35351 0.0
23.399 -1.75274 0.0
11.2719 -1.14124 0.0
21.7996 9.40074 0.0
17.3571 0.927515 0.0
10.4605 0.0329472 0.0
9.45806 0.0151977 0.0
8.57874 0.0359578 0.0
10.8697 0.511372 0.0
8.67136 0.00180156 0.0
19.6066 -0.505359 0.0
21.0166 0.294235 0.0
13.9658 3.32384 0.0
8.5956 0.100187 0.0
10.6246 0.535373 0.0
10.7553 0.114763 0.0
9.93135 0.43058 0.0
23.299 -2.29973 0.0
29.0678 -0.370037 0.0
9.08792 0.471705 0.0
9.4147 0.470521 0.0
21.2748 0.209333 0.0
0.337278 -3.19876 0.0
19.5476 -1.4579 0.0
16.2372 -3.93206 0.0
10.8743 0.543132 0.0
10.7712 0.545436 0.0
27.932 -11.0559 0.0
16.445 -1.10397 0.0
15.6714 9.80477 0.0
9.22594 0.530769 0.0
9.36869 0.512203 0.0
10.6607 0.164402 0.0
27.4835 11.4836 0.0
8.43282 0.156283 0.0
20.5951 0.657028 0.0
27.8468 -1.55183 0.0
39.1727 -0.346811 0.0
18.1424 3.82049 0.0
13.4056 -2.92211 0.0
19.6005 9.22977 0.0
10.2117 0.115369 0.0
19.353 2.59032 0.0
23.9138 2.577 0.0
12.5683 -0.241875 0.0
8.47607 0.107148 0.0
10.5335 0.408087 0.0
10.4923 0.226629 0.0
15.0562 -1.70727 0.0
8.83694 0.198949 0.0
8.98251 0.334004 0.0
22.7811 10.8348 0.0
23.8173 -3.82189 0.0
14.1173 3.867 0.0
10.7847 -0.141544 0.0
18.8273 5.17453 0.0
38.3743 0.0959522 0.0
23.3347 1.89415 0.0
35.7404 4.92018 0.0
2.39856 -17.9065 0.0
1.08496 -2.56812 0.0
23.8883 13.1909 0.0
-6.58209 -18.1348 0.0
15.9849 -3.72109 0.0
10.7253 0.485855 0.0
9.31138 0.859952 0.0
35.305 -5.77451 0.0
39.2002 -1.03941 0.0
20.3866 -0.747622 0.0
21.0625 -1.06899 0.0
3.3104 -0.0569914 0.0
10.9595 0.907044 0.0
25.8254 1.00051 0.0
21.9667 -7.50916 0.0
20.2404 -0.603939 0.0
9.39607 -0.575241 0.0
20.6187 -2.01972 0.0
9.19292 0.432447 0.0
17.8241 -4.66848 0.0
15.5956 -0.428255 0.0
1.82252 -20.7018 0.0
24.0275 10.0052 0.0
12.6983 -2.28614 0.0
30.4815 -0.632357 0.0
11.2857 2.88816 0.0
30.16 -8.67761 0.0
39.6768 0.862825 0.0
8.62861 -11.2257 0.0
38.9623 -1.63001 0.0
19.8273 1.02945 0.0
20.4799 -6.97687 0.0
-4.00164 8.88689 0.0
9.37245 0.690583 0.0
31.1935 4.59395 0.0
26.1427 5.94544 0.0
11.1111 3.19037 0.0
23.5224 1.43067 0.0
9.57633 3.49355 0.0
7.92645 0.00381909 0.0
15.3915 -3.28332 0.0
11.2539 -12.1725 0.0
28.157 0.527506 0.0
16.9368 -4.23132 0.0
10.2789 -0.0207925 0.0
20.3432 -2.59943 0.0
39.1837 0.499262 0.0
20.2242 0.614918 0.0
17.232 4.53794 0.0
-10.5442 8.94178 0.0
5.91301 -18.595 0.0
20.9815 1.92111 0.0
20.9539 -1.5112 0.0
9.23527 -0.178205 0.0
23.7628 8.88802 0.0
30.9444 -0.0109869 0.0
27.1581 -10.8352 0.0
6.19309 3.07618 0.0
11.641 0.198435 0.0
18.8351 -1.35813 0.0
12.0384 0.334686 0.0
9.47014 -0.801687 0.0
12.7426 -3.13397 0.0
29.0648 8.53532 0.0
9.3118 0.0454971 0.0
-10.8217 -9.19658 0.0
27.3372 0.103547 0.0
8.39036 0.0921017 0.0
26.9803 -12.1211 0.0
18.0115 -14.1187 0.0
39.8975 0.406033 0.0
11.5521 0.139577 0.0
22.9663 11.0318 0.0
-5.51139 15.0174 0.0
8.31483 0.0539483 0.0
10.6179 0.080935 0.0
-4.52781 -9.21872 0.0
3.54231 -4.96482 0.0
19.2348 8.27345 0.0
16.7934 3.82207 0.0
17.4438 7.67178 0.0
7.06816 -1.55493 0.0
11.4893 0.0741091 0.0
29.9805 -0.265343 0.0
13.6788 -3.30845 0.0
16.5453 -15.8635 0.0
1.31801 14.3687 0.0
11.614 0.00328419 0.0
17.6917 -1.5811 0.0
39.2752 0.126074 0.0
9.4269 -0.117823 0.0
37.0394 3.83822 0.0
39.8395 0.24384 0.0
11.2746 -0.964596 0.0
9.15966 -0.169107 0.0
22.0995 -8.30059 0.0
21.042 1.5799 0.0
18.7841 -0.445552 0.0
39.1851 -0.283518 0.0
15.1884 0.500595 0.0
10.6114 -0.192069 0.0
5.5368 -0.300386 0.0
10.8464 -0.298768 0.0
9.79437 -1.65421 0.0
14.1946 -0.315491 0.0
30.3172 -10.006 0.0
10.8784 -0.00875713 0.0
11.485 1.32192 0.0
15.0773 -2.79613 0.0
18.3918 -3.84005 0.0
10.0933 0.0583848 0.0
15.2856 0.543186 0.0
6.31811 -1.1072 0.0
10.6388 0.504888 0.0
9.93411 18.6047 0.0
14.7008 -0.14712 0.0
18.6322 10.0678 0.0
18.905 4.80462 0.0
11.7191 0.857169 0.0
9.05435 0.464705 0.0
10.7035 0.624286 0.0
8.06343 1.69432 0.0
28.2921 0.915682 0.0
20.0718 0.364483 0.0
5.35158 -0.101272 0.0
9.06788 0.581299 0.0
5.08754 -0.0202964 0.0
10.8034 -0.00524197 0.0
12.9006 -0.408251 0.0
11.0392 -2.10396 0.0
17.9172 15.912 0.0
21.9484 -5.16356 0.0
9.7957 0.349128 0.0
13.5086 0.534532 0.0
14.3834 -1.0869 0.0
7.55929 -0.0159231 0.0
11.1141 -0.0366324 0.0
10.0888 -0.246965 0.0
39.0757 0.128252 0.0
2.50137 -6.98128 0.0
10.6943 -0.169955 0.0
10.6087 -0.1951 0.0
9.5409 -0.0173914 0.0
38.4728 -0.144058 0.0
31.4421 9.22949 0.0
36.8751 -3.88981 0.0
5.67521 0.0110792 0.0
10.7389 2.95808 0.0
20.5811 -0.033496 0.0
11.6542 -0.0534276 0.0
27.7017 -0.70859 0.0
4.97221 3.72837 0.0
17.6921 0.605852 0.0
9.53651 -3.03052 0.0
5.68316 -0.0429277 0.0
16.1951 -13.6308 0.0
19.7347 -0.110622 0.0
18.02 -5.98908 0.0
10.518 0.300113 0.0
-11.0648 1.63072 0.0
20.1683 0.109019 0.0
18.6094 -0.0559547 0.0
38.5019 0.196558 0.0
11.9408 -0.243705 0.0
31.5503 -0.400931 0.0
9.75062 0.538712 0.0
15.2843 -4.02089 0.0
5.58103 -0.450028 0.0
7.15547 -0.0616169 0.0
10.1307 -0.333388 0.0
7.11067 -4.57428 0.0
15.2214 4.13101 0.0
20.7533 -0.0816743 0.0
18.8702 0.734626 0.0
19.7562 0.0328682 0.0
8.89867 0.248483 0.0
19.7918 -1.34983 0.0
0.824449 -11.401 0.0
37.8536 -2.49803 0.0
19.6521 -14.4148 0.0
11.0914 -2.36319 0.0
11.1693 2.61895 0.0
11.9693 0.0739994 0.0
7.21802 -14.7358 0.0
21.7516 -0.0553943 0.0
37.4588 -0.553903 0.0
14.5237 0.501208 0.0
19.6164 -1.18048 0.0
13.4384 -0.212791 0.0
30.0506 -0.271181 0.0
14.0501 0.492882 0.0
9.23525 -0.141974 0.0
8.91765 -0.16835 0.0
-11.0537 -2.09042 0.0
10.3575 -0.917237 0.0
6.77457 1.47929 0.0
11.3539 -2.02747 0.0
12.0734 -1.28193 0.0
13.6217 -0.162189 0.0
13.8045 -0.139878 0.0
18.6661 0.324079 0.0
36.2493 -3.70868 0.0
19.6606 4.53154 0.0
8.41006 -0.354471 0.0
19.9167 7.48435 0.0
20.5153 -6.34003 0.0
6.74992 0.0583943 0.0
14.9828 -11.7606 0.0
11.4089 0.426524 0.0
8.72034 -0.0192011 0.0
9.03364 -0.178328 0.0
14.2843 0.276944 0.0
6.02422 1.11938 0.0
9.909 1.74112 0.0
6.05051 1.11089 0.0
2.46799 18.0166 0.0
37.4384 -1.41477 0.0
27.5218 11.642 0.0
10.4292 -0.184296 0.0
17.5841 6.35132 0.0
10.1966 0.0159452 0.0
38.7963 -0.216434 0.0
20.0584 5.01281 0.0
19.8418 14.4278 0.0
11.3981 2.82686 0.0
19.859 0.138415 0.0
10.4198 0.0961253 0.0
6.39494 1.96128 0.0
8.67501 -1.62113 0.0
19.7709 0.0943081 0.0
19.4283 0.81819 0.0
20.4164 0.36818 0.0
7.8688 -1.67548 0.0
16.0157 -10.4938 0.0
38.8257 1.06517 0.0
12.7363 -3.6529 0.0
9.6892 -0.472183 0.0
26.9785 -10.2538 0.0
38.4023 -0.375471 0.0
21.1884 -0.833583 0.0
20.5823 7.4174 0.0
30.4586 -0.982553 0.0
10.5382 -0.198708 0.0
6.36786 0.817657 0.0
9.44173 -0.200698 0.0
5.78101 -0.116414 0.0
4.99624 -0.754491 0.0
17.3371 15.9714 0.0
21.0713 8.9263 0.0
7.13349 1.67949 0.0
20.2415 5.92012 0.0
20.4695 3.2625 0.0
4.18404 -0.836167 0.0
29.7471 -7.92621 0.0
3.74421 0.731772 0.0
5.76336 0.171482 0.0
10.4413 10.0241 0.0
5.45544 0.701281 0.0
39.3279 0.00491692 0.0
30.2332 -9.03323 0.0
3.13282 -0.284382 0.0
19.2734 0.539459 0.0
26.4431 -0.964763 0.0
20.0455 3.38088 0.0
5.38138 18.5805 0.0
18.3833 5.57757 0.0
20.0733 4.52695 0.0
5.34056 0.257208 0.0
21.3279 0.511287 0.0
35.0546 6.50521 0.0
3.73288 -0.753511 0.0
5.62946 -0.20846 0.0
31.7258 -0.803919 0.0
3.82661 0.790501 0.0
35.8872 -4.70382 0.0
29.9036 9.53819 0.0
11.7491 -0.543021 0.0
4.91328 -0.0535562 0.0
11.6217 0.383201 0.0
14.6131 0.329225 0.0
14.7111 0.115857 0.0
38.7542 0.00538382 0.0
13.7692 -0.109634 0.0
11.1838 0.58526 0.0
37.8227 0.108991 0.0
39.186 -0.0917306 0.0
20.2798 0.204308 0.0
36.4139 0.495635 0.0
19.3517 -0.0814636 0.0
35.1257 -5.09375 0.0
19.8417 0.106418 0.0
18.7315 -5.53138 0.0
20.0667 2.46633 0.0
9.30975 0.617545 0.0
18.8715 0.0446166 0.0
25.9169 -0.590671 0.0
16.6198 -5.49273 0.0
8.24373 -0.688072 0.0
10.357 -1.60563 0.0
38.2004 0.199158 0.0
7.93073 0.536822 0.0
19.8658 0.111411 0.0
37.4052 0.455705 0.0
6.60423 0.210009 0.0
21.8686 3.74803 0.0
19.7181 3.89863 0.0
20.1141 0.0623926 0.0
34.2989 7.2141 0.0
37.2644 4.34564 0.0
5.00438 1.64283 0.0
5.69777 0.875548 0.0
18.9137 1.08438 0.0
23.5048 -11.7148 0.0
11.1967 -13.7604 0.0
4.79595 0.805398 0.0
35.9721 0.0362582 0.0
18.8436 -5.11883 0.0
37.5701 -0.4299 0.0
20.1153 0.0641545 0.0
3.78145 -0.126797 0.0
3.37477 0.638958 0.0
21.9781 8.39023 0.0
5.56795 0.114562 0.0
20.0967 5.88605 0.0
35.859 0.688009 0.0
3.87136 0.00185032 0.0
5.58835 -0.0422464 0.0
19.622 2.90727 0.0
18.6041 0.274548 0.0
3.69197 0.135543 0.0
17.0196 -0.108909 0.0
19.9221 0.133555 0.0
5.97192 -0.847239 0.0
20.1441 0.0830805 0.0
18.4382 2.82059 0.0
37.1613 -0.676561 0.0
19.9581 1.7942 0.0
6.23186 -0.483332 0.0
35.8681 5.37914 0.0
4.67926 -0.847536 0.0
6.09069 0.357933 0.0
14.3384 -9.24923 0.0
5.8033 0.370076 0.0
18.6837 3.72669 0.0
19.5953 2.14463 0.0
34.8387 4.46039 0.0
37.7842 3.03652 0.0
9.76777 -0.845829 0.0
16.0054 3.21426 0.0
37.4445 0.430622 0.0
3.24151 -0.384795 0.0
2.9673 0.39429 0.0
9.63203 -0.552539 0.0
9.49115 0.775104 0.0
20.007 -0.440902 0.0
6.62661 -0.329631 0.0
20.7777 0.606674 0.0
20.4539 1.02933 0.0
5.34275 0.579825 0.0
11.1417 0.566578 0.0
19.9075 5.12065 0.0
6.38349 0.29932 0.0
19.6607 1.24403 0.0
18.2304 2.11462 0.0
19.086 0.256535 0.0
5.70237 -0.400054 0.0
4.42591 0.284195 0.0
7.05645 0.558678 0.0
14.8402 -0.117918 0.0
7.86424 -0.589726 0.0
20.2118 0.108586 0.0
3.76432 0.0749797 0.0
36.8833 2.24156 0.0
5.79559 -0.299129 0.0
2.98645 0.47445 0.0
13.6467 -1.13977 0.0
20.3268 6.52795 0.0
5.72325 -0.644115 0.0
19.0786 0.207402 0.0
19.2698 1.55645 0.0
20.4283 4.01259 0.0
20.0211 0.152006 0.0
17.9828 1.58269 0.0
12.088 -1.72665 0.0
28.2139 -8.58481 0.0
20.4535 -2.84206 0.0
17.7296 1.16567 0.0
6.07187 -0.530599 0.0
6.47915 0.553875 0.0
37.4345 -0.105231 0.0
2.76706 0.26725 0.0
29.6361 -0.621992 0.0
13.0708 2.38791 0.0
20.1282 0.150473 0.0
2.85277 0.323619 0.0
3.35027 -0.497451 0.0
19.0427 1.08992 0.0
20.9286 7.98505 0.0
15.0878 -0.122303 0.0
26.4232 -0.836105 0.0
18.0677 0.0679894 0.0
23.4804 -0.795925 0.0
10.7109 -2.77001 0.0
18.1445 -0.0815663 0.0
17.5156 2.37017 0.0
3.03707 -0.19011 0.0
17.5355 0.838065 0.0
14.981 1.80317 0.0
9.42395 -0.356371 0.0
19.9523 0.218597 0.0
4.00814 -0.317194 0.0
4.42944 0.323277 0.0
17.7722 3.12753 0.0
18.6022 -0.103159 0.0
17.9815 -0.612708 0.0
10.9391 -0.110027 0.0
18.4789 0.464014 0.0
20.3024 0.124594 0.0
18.6763 -3.82244 0.0
3.69562 0.582412 0.0
19.1523 0.364353 0.0
20.4018 -3.3022 0.0
17.0295 1.35238 0.0
16.7467 1.29171 0.0
6.95829 -0.973979 0.0
26.2116 -11.6247 0.0
5.07402 -2.20384 0.0
21.5993 -13.2074 0.0
19.0276 -0.700169 0.0
20.4157 3.68914 0.0
18.9487 0.602586 0.0
3.82127 -0.515505 0.0
17.4161 0.602556 0.0
17.3232 0.748023 0.0
16.8077 1.01165 0.0
20.6817 0.0766833 0.0
17.2821 1.79001 0.0
18.7312 0.500003 0.0
22.625 -0.637966 0.0
21.5877 -3.23924 0.0
7.47592 -1.47646 0.0
36.6607 -0.683342 0.0
8.78658 -0.0996078 0.0
15.9117 -1.56056 0.0
6.61672 -2.77738 0.0
32.0311 7.85609 0.0
20.4313 0.0929075 0.0
2.76464 -0.232044 0.0
2.83787 0.240094 0.0
18.6265 0.356217 0.0
35.4156 0.747243 0.0
17.3599 0.451929 0.0
13.448 1.651 0.0
3.41272 -0.126508 0.0
5.51247 -0.188671 0.0
4.56479 0.26358 0.0
2.74774 0.873992 0.0
5.38748 -1.51695 0.0
19.9838 -4.57269 0.0
20.7418 0.0665315 0.0
35.0406 5.79934 0.0
1.08236 0.493681 0.0
15.9273 -0.0395574 0.0
16.8251 -0.0422173 0.0
15.9929 -1.02139 0.0
14.6335 2.17679 0.0
1.17947 -0.487105 0.0
2.91491 -0.80778 0.0
14.7998 0.304279 0.0
18.2827 0.782313 0.0
16.6868 0.744326 0.0
12.9401 -0.994307 0.0
18.6108 -0.045938 0.0
39.4761 -0.280209 0.0
19.1455 -0.0424281 0.0
16.2395 1.6529 0.0
20.249 0.0740734 0.0
3.64049 -0.232815 0.0
19.7344 6.57722 0.0
20.1849 0.198778 0.0
19.1147 0.201179 0.0
20.0301 0.0606125 0.0
17.5922 -0.639593 0.0
3.50521 0.161463 0.0
20.1836 0.0355496 0.0
4.33934 -0.311466 0.0
9.45406 1.05383 0.0
14.2184 -0.0486986 0.0
17.3441 0.372315 0.0
16.6084 0.550752 0.0
19.5556 0.403211 0.0
19.9908 0.36778 0.0
19.6498 0.483487 0.0
2.69303 0.190384 0.0
5.06026 0.334208 0.0
4.62268 -0.187292 0.0
20.3069 0.16841 0.0
18.6325 0.243498 0.0
37.5277 0.535023 0.0
4.24029 0.372182 0.0
18.6635 0.0538893 0.0
18.3562 0.940059 0.0
8.98071 2.77892 0.0
18.9072 -0.0277204 0.0
2.11567 0.224557 0.0
18.3096 -0.0596858 0.0
17.7052 -0.20861 0.0
18.5271 -0.33006 0.0
14.4716 -0.19284 0.0
13.4673 -0.186107 0.0
18.0918 -0.0947327 0.0
5.9773 -0.665272 0.0
38.8256 -1.20903 0.0
20.1388 0.0582422 0.0
19.4287 -0.124487 0.0
19.1998 0.214811 0.0
17.3946 0.334359 0.0
10.4145 0.00949698 0.0
18.6996 0.245331 0.0
20.7768 -1.98006 0.0
20.2291 0.0334985 0.0
5.40727 0.18542 0.0
17.3151 1.3044 0.0
2.24886 -0.206256 0.0
20.331 0.265998 0.0
20.3744 0.254178 0.0
17.488 0.324675 0.0
1.74477 0.349549 0.0
25.5556 -10.4324 0.0
20.4194 0.0578335 0.0
19.9074 0.423362 0.0
18.6752 -0.0603902 0.0
19.3281 -0.0649202 0.0
19.3309 0.224826 0.0
20.2478 0.183134 0.0
20.2999 0.16767 0.0
20.3856 0.119351 0.0
17.6515 0.33183 0.0
2.56373 0.120522 0.0
8.3397 0.368138 0.0
19.9326 -0.122619 0.0
15.5831 8.22677 0.0
1.85257 -0.332635 0.0
4.84152 -0.121655 0.0
20.2662 -11.643 0.0
18.4195 0.911469 0.0
18.8281 0.259385 0.0
8.80119 -0.219324 0.0
19.2084 -0.124471 0.0
19.558 -0.0962583 0.0
13.8889 2.39133 0.0
4.75888 0.215275 0.0
2.46555 -0.124117 0.0
20.6568 -2.38268 0.0
16.3056 1.45568 0.0
18.3876 -0.657873 0.0
20.3854 0.254812 0.0
9.80629 -1.50852 0.0
18.9896 0.254669 0.0
16.5798 0.447302 0.0
20.1318 -0.0384692 0.0
2.35588 0.153599 0.0
19.4808 0.205381 0.0
20.1832 -0.00233588 0.0
2.72076 -0.057795 0.0
17.866 0.318267 0.0
20.2161 0.120691 0.0
20.4306 0.335139 0.0
19.6951 0.073291 0.0
19.472 -0.136209 0.0
20.369 0.0235526 0.0
17.7902 -0.46722 0.0
19.6371 -0.0774771 0.0
19.6257 0.144738 0.0
19.3599 0.0374889 0.0
19.1271 -0.159083 0.0
2.61125 -0.0768301 0.0
19.7461 0.130835 0.0
19.064 -0.18269 0.0
3.38227 0.118061 0.0
20.3045 -0.0119884 0.0
5.31441 0.214054 0.0
19.1681 0.197921 0.0
19.4095 -0.165564 0.0
20.4397 0.297187 0.0
19.9772 -0.0599666 0.0
19.7072 0.0199147 0.0
20.3317 0.255276 0.0
10.2642 0.175834 0.0
18.3315 0.109951 0.0
17.485 0.510252 0.0
18.0617 0.231201 0.0
2.43883 -0.016032 0.0
20.0331 0.198737 0.0
19.3044 0.10686 0.0
16.7294 -1.30465 0.0
3.33116 -0.260849 0.0
16.7112 0.363264 0.0
3.26959 0.186199 0.0
16.2353 -1.33304 0.0
18.0942 0.551972 0.0
16.8594 0.358787 0.0
18.5042 -0.102229 0.0
19.0126 -0.189184 0.0
17.098 0.361199 0.0
19.6729 -0.0552442 0.0
31.1437 9.44119 0.0
15.6923 -1.38174 0.0
19.2868 -0.0155838 0.0
20.3681 0.344986 0.0
20.3577 0.3214 0.0
20.4255 0.288289 0.0
19.3616 -0.180327 0.0
20.5265 0.303286 0.0
17.4037 -0.102315 0.0
20.545 0.276157 0.0
18.8375 -0.0880138 0.0
18.406 0.0294909 0.0
9.75827 0.282295 0.0
19.7349 0.133414 0.0
20.5402 0.286012 0.0
16.4088 -0.348072 0.0
20.4101 0.307513 0.0
19.3242 -0.17382 0.0
18.9714 -0.169138 0.0
2.67337 0.103489 0.0
19.3733 -0.00927792 0.0
16.6228 0.393767 0.0
20.6309 0.27423 0.0
15.5479 0.00497947 0.0
5.56461 0.188271 0.0
18.4626 -0.0235935 0.0
20.4631 0.237096 0.0
17.5745 0.166723 0.0
17.0535 -0.103655 0.0
18.9339 -0.116515 0.0
20.4994 0.135208 0.0
19.295 -0.139625 0.0
17.7897 0.065141 0.0
13.1823 1.96434 0.0
20.2436 -0.0502068 0.0
20.6635 0.249114 0.0
20.1224 0.369166 0.0
9.53054 -0.059666 0.0
19.372 -0.0463525 0.0
16.5 -0.123866 0.0
2.99046 0.112637 0.0
5.16 0.224341 0.0
19.2612 -0.0801423 0.0
20.221 0.252426 0.0
18.1888 -0.199195 0.0
18.8834 -0.0435209 0.0
20.6094 0.192982 0.0
18.3747 -0.140776 0.0
18.5042 -0.0630633 0.0
18.7966 0.0286979 0.0
16.6329 -0.145234 0.0
17.9306 -0.130742 0.0
20.7312 0.202968 0.0
16.8092 -0.120881 0.0
20.5255 0.147459 0.0
18.1089 -0.209397 0.0
18.6219 -0.167094 0.0
17.8042 -0.164698 0.0
16.4777 -0.174449 0.0
20.1679 0.245089 0.0
19.2047 -0.0114026 0.0
3.6835 0.128172 0.0
5.69533 0.186527 0.0
20.6367 0.0749711 0.0
20.487 0.0157194 0.0
17.287 0.327921 0.0
17.805 0.0474092 0.0
17.9483 -0.0511741 0.0
20.4776 0.322848 0.0
18.6537 0.0811887 0.0
20.1173 0.386779 0.0
19.6937 -0.0196593 0.0
16.341 -0.204311 0.0
17.5165 -0.216662 0.0
17.8717 -0.00458971 0.0
19.1083 0.0471842 0.0
20.7654 0.160859 0.0
20.0875 -0.0751617 0.0
17.7006 -0.194481 0.0
23.871 7.93738 0.0
15.756 -0.162638 0.0
17.6052 -0.215993 0.0
16.2224 -0.232398 0.0
19.3555 0.530153 0.0
18.466 0.0956792 0.0
18.9676 0.0770691 0.0
18.0481 -0.188284 0.0
15.9419 -0.138493 0.0
17.2835 0.0152263 0.0
20.48 0.251854 0.0
16.1005 -0.240351 0.0
17.4492 -0.168881 0.0
18.2859 0.0632343 0.0
10.9509 0.14713 0.0
19.8859 0.200625 0.0
15.9665 -0.182903 0.0
9.59036 0.104345 0.0
15.5964 -0.190944 0.0
18.8099 0.0651729 0.0
15.8956 -0.0718571 0.0
17.3769 -0.0814909 0.0
16.1656 -0.126426 0.0
2.63772 -0.0459059 0.0
4.8804 -0.0840585 0.0
10.8829 0.211699 0.0
18.2247 -0.167858 0.0
17.9216 -0.0377652 0.0
18.1588 0.00373316 0.0
18.6786 0.0168238 0.0
15.769 0.0367745 0.0
5.55469 0.0969352 0.0
20.6197 0.189528 0.0
5.01138 -0.0881047 0.0
20.7875 0.0797251 0.0
18.1152 -0.0525394 0.0
15.4506 -0.221902 0.0
17.6065 0.110624 0.0
15.2776 -0.250415 0.0
20.796 0.00912233 0.0
17.3404 0.134811 0.0
2.72828 -0.0458921 0.0
4.94354 -0.0890021 0.0
17.9926 -0.124768 0.0
2.96214 0.0583455 0.0
18.6059 -0.0459522 0.0
15.1452 -0.22822 0.0
15.0338 -0.123281 0.0
17.1123 0.0946895 0.0
18.4719 -0.0706332 0.0
20.6821 0.0264525 0.0
17.0973 0.105005 0.0
16.9229 0.0401845 0.0
4.98636 -0.0752617 0.0
2.83604 -0.0454558 0.0
9.15248 0.173999 0.0
14.9175 0.000538863 0.0
16.8238 0.146071 0.0
18.2728 -0.173918 0.0
16.5118 0.150583 0.0
19.038 -0.0289867 0.0
9.33458 0.193915 0.0
16.264 0.0917042 0.0
18.6278 -0.0907641 0.0
16.842 -0.010332 0.0
5.05397 0.0993399 0.0
2.57427 -0.0303646 0.0
2.17589 -0.0464735 0.0
2.76037 -0.040767 0.0
4.98202 -0.0216151 0.0
5.3082 0.0990628 0.0
2.37132 -0.009809 0.0
2.68058 0.00329401 0.0
4.85679 -0.0822671 0.0
2.58871 -0.0327225 0.0
2.79397 -0.02485 0.0
2.96672 0.0786961 0.0
5.35028 -0.0768311 0.0
2.87395 0.0534727 0.0
4.78991 -0.052996 0.0
2.7668 0.0527839 0.0
5.10924 -0.0408445 0.0
4.96771 -0.00961579 0.0
2.68336 0.0996299 0.0
5.49847 0.113558 0.0
4.85509 -0.0700328 0.0
4.75063 -0.0689043 0.0
2.74015 0.149923 0.0
4.62818 -0.0360007 0.0
4.93745 0.135459 0.0
2.55257 -0.00468863 0.0
4.8187 -0.0446895 0.0
2.8781 0.0194364 0.0
2.56345 0.0636136 0.0
4.66002 -0.0923479 0.0
2.75686 0.110412 0.0
3.33815 0.0615566 0.0
2.77907 0.178453 0.0
2.35951 0.0572247 0.0
2.52995 -0.0120551 0.0
4.87896 0.0122175 0.0
2.65636 -0.0466278 0.0
2.72103 -0.0458931 0.0
2.82433 0.114152 0.0
2.85947 0.100482 0.0
2.76688 0.00754697 0.0
2.70713 0.0385978 0.0
2.32137 -0.0462882 0.0
2.61742 -0.0258145 0.0
3.25801 -0.00123197 0.0
5.42925 -0.011245 0.0
2.83826 -0.05563 0.0
3.37515 0.0529493 0.0
4.6398 0.115768 0.0
4.53982 -0.102185 0.0
2.59523 -0.0429143 0.0
2.83944 0.1271 0.0
2.63582 0.0254883 0.0
5.07037 0.0285058 0.0
2.49044 0.0693093 0.0
2.75843 0.0547539 0.0
2.575 -0.0413556 0.0
5.13016 0.212324 0.0
3.16878 -0.0522175 0.0
2.29161 0.0181881 0.0
2.59157 0.0151257 0.0
2.20325 0.0337066 0.0
2.84867 0.0543762 0.0
2.86011 -0.0138191 0.0
4.28552 -0.0406089 0.0
1.97202 -0.0145829 0.0
4.99858 0.218058 0.0
5.16694 0.0923624 0.0
18.4826 -0.0954831 0.0
18.1964 -0.0681737 0.0
19.6541 -0.0893739 0.0
16.1218 0.0270082 0.0
20.461 -0.186544 0.0
20.6002 -0.0507644 0.0
16.031 0.00965723 0.0
20.5219 -0.19148 0.0
20.7177 -0.137929 0.0
20.582 -0.19795 0.0
20.758 -0.0662962 0.0
16.8972 -0.00168799 0.0
18.3999 -0.0553692 0.0
20.6496 -0.166356 0.0
17.8974 -0.0830861 0.0
20.3819 -0.137925 0.0
18.7734 -0.0974248 0.0
20.3534 -0.11137 0.0
19.5688 -0.146911 0.0
19.776 -0.17084 0.0
14.2156 0.0730075 0.0
20.4375 -0.205394 0.0
20.5293 -0.0820441 0.0
19.9583 -0.146252 0.0