# vtk DataFile Version 3.0
Malha 2D com triângulos e temperatura
ASCII
DATASET UNSTRUCTURED_GRID

POINTS 1194 double
0 0 0
5 0 0
5 1 0
0 1 0
0.85 0.5 0
0.842388 0.538268 0
0.820711 0.570711 0
0.788268 0.592388 0
0.75 0.6 0
0.711732 0.592388 0
0.679289 0.570711 0
0.657612 0.538268 0
0.65 0.5 0
0.657612 0.461732 0
0.679289 0.429289 0
0.711732 0.407612 0
0.75 0.4 0
0.788268 0.407612 0
0.820711 0.429289 0
0.842388 0.461732 0
0.0793651 0 0
0.15873 0 0
0.238095 0 0
0.31746 0 0
0.396825 0 0
0.47619 0 0
0.555556 0 0
0.634921 0 0
0.714286 0 0
0.793651 0 0
0.873016 0 0
0.952381 0 0
1.03175 0 0
1.11111 0 0
1.19048 0 0
1.26984 0 0
1.34921 0 0
1.42857 0 0
1.50794 0 0
1.5873 0 0
1.66667 0 0
1.74603 0 0
1.8254 0 0
1.90476 0 0
1.98413 0 0
2.06349 0 0
2.14286 0 0
2.22222 0 0
2.30159 0 0
2.38095 0 0
2.46032 0 0
2.53968 0 0
2.61905 0 0
2.69841 0 0
2.77778 0 0
2.85714 0 0
2.93651 0 0
3.01587 0 0
3.09524 0 0
3.1746 0 0
3.25397 0 0
3.33333 0 0
3.4127 0 0
3.49206 0 0
3.57143 0 0
3.65079 0 0
3.73016 0 0
3.80952 0 0
3.88889 0 0
3.96825 0 0
4.04762 0 0
4.12698 0 0
4.20635 0 0
4.28571 0 0
4.36508 0 0
4.44444 0 0
4.52381 0 0
4.60317 0 0
4.68254 0 0
4.7619 0 0
4.84127 0 0
4.92063 0 0
5 0.0769231 0
5 0.153846 0
5 0.230769 0
5 0.307692 0
5 0.384615 0
5 0.461538 0
5 0.538462 0
5 0.615385 0
5 0.692308 0
5 0.769231 0
5 0.846154 0
5 0.923077 0
4.92063 1 0
4.84127 1 0
4.7619 1 0
4.68254 1 0
4.60317 1 0
4.52381 1 0
4.44444 1 0
4.36508 1 0
4.28571 1 0
4.20635 1 0
4.12698 1 0
4.04762 1 0
3.96825 1 0
3.88889 1 0
3.80952 1 0
3.73016 1 0
3.65079 1 0
3.57143 1 0
3.49206 1 0
3.4127 1 0
3.33333 1 0
3.25397 1 0
3.1746 1 0
3.09524 1 0
3.01587 1 0
2.93651 1 0
2.85714 1 0
2.77778 1 0
2.69841 1 0
2.61905 1 0
2.53968 1 0
2.46032 1 0
2.38095 1 0
2.30159 1 0
2.22222 1 0
2.14286 1 0
2.06349 1 0
1.98413 1 0
1.90476 1 0
1.8254 1 0
1.74603 1 0
1.66667 1 0
1.5873 1 0
1.50794 1 0
1.42857 1 0
1.34921 1 0
1.26984 1 0
1.19048 1 0
1.11111 1 0
1.03175 1 0
0.952381 1 0
0.873016 1 0
0.793651 1 0
0.714286 1 0
0.634921 1 0
0.555556 1 0
0.47619 1 0
0.396825 1 0
0.31746 1 0
0.238095 1 0
0.15873 1 0
0.0793651 1 0
0 0.923077 0
0 0.846154 0
0 0.769231 0
0 0.692308 0
0 0.615385 0
0 0.538462 0
0 0.461538 0
0 0.384615 0
0 0.307692 0
0 0.230769 0
0 0.153846 0
0 0.0769231 0
0.879698 0.466718 0
1.3085 0.931947 0
1.30532 0.0638546 0
4.93832 0.504275 0
0.620452 0.46964 0
3.99858 0.0669607 0
1.63721 0.934258 0
3.3751 0.0523709 0
4.3254 0.0687322 0
2.42354 0.0642082 0
2.97619 0.0687322 0
2.02101 0.0693621 0
3.68108 0.0581336 0
2.65899 0.932655 0
4.178 0.939994 0
3.21614 0.938179 0
2.25483 0.919987 0
3.53215 0.928998 0
3.84921 0.931268 0
1.69647 0.0674297 0
1.94349 0.930209 0
4.48413 0.931268 0
2.97813 0.942022 0
2.74097 0.0673855 0
0.859645 0.573263 0
0.639718 0.573116 0
0.0651563 0.652836 0
0.0635304 0.346121 0
4.56232 0.0679683 0
0.830393 0.392645 0
0.669618 0.39275 0
1.06185 0.0668897 0
0.440193 0.0680031 0
1.06474 0.93511 0
0.446074 0.935974 0
0.724697 0.630698 0
4.72268 0.931235 0
4.93065 0.267192 0
0.589836 0.936152 0
0.92338 0.0562425 0
0.590207 0.0623339 0
0.755872 0.0732784 0
0.838039 0.936714 0
4.92573 0.732039 0
0.281717 0.93783 0
0.28208 0.0811877 0
0.065248 0.503161 0
1.46076 0.0637037 0
4.72574 0.0661877 0
4.31028 0.937908 0
3.21429 0.0687322 0
1.46639 0.932632 0
3.6897 0.928155 0
2.42063 0.931268 0
3.5364 0.0691789 0
2.25998 0.0676208 0
1.78735 0.937047 0
4.01535 0.920637 0
1.85469 0.0674188 0
3.83991 0.0626292 0
3.37477 0.929368 0
2.58225 0.0657863 0
2.81746 0.932342 0
4.16667 0.0687322 0
2.11402 0.935574 0
0.0614266 0.197046 0
0.0612841 0.803003 0
4.88273 0.0644126 0
4.87774 0.933272 0
0.859645 0.426737 0
0.903081 0.436592 0
0.923672 0.473385 0
0.948706 0.439078 0
0.969155 0.479795 0
0.996593 0.439791 0
1.0202 0.484937 0
1.04667 0.440138 0
1.07382 0.489694 0
1.1034 0.440801 0
1.13169 0.49612 0
1.16603 0.445058 0
1.1931 0.504331 0
1.22956 0.450883 0
1.25923 0.506004 0
1.29683 0.453139 0
1.32923 0.510343 0
1.36603 0.454344 0
1.03276 0.530395 0
1.40063 0.516169 0
1.43576 0.454934 0
1.47042 0.520776 0
1.51069 0.46142 0
1.54422 0.526371 0
1.58547 0.465572 0
1.61942 0.531773 0
1.66033 0.468788 0
1.69546 0.536793 0
1.73713 0.472812 0
1.77239 0.541977 0
1.81532 0.478494 0
1.85006 0.547285 0
1.89327 0.483449 0
1.92802 0.55361 0
1.97142 0.488546 0
2.00623 0.558966 0
2.04984 0.493518 0
2.08483 0.564085 0
2.12847 0.498462 0
2.16353 0.569137 0
2.20719 0.503331 0
0.961579 0.391697 0
1.22451 0.565337 0
2.24238 0.574192 0
2.28611 0.508258 0
2.32134 0.579247 0
2.36519 0.513325 0
2.40036 0.584295 0
2.44425 0.51834 0
2.47944 0.589336 0
2.52334 0.523355 0
2.55853 0.594372 0
2.60245 0.52837 0
2.63764 0.599431 0
2.68159 0.533388 0
2.64637 0.462336 0
2.72553 0.467349 0
2.76076 0.538418 0
2.8047 0.47237 0
2.83993 0.543451 0
2.88387 0.477399 0
2.91911 0.548482 0
2.96305 0.482427 0
2.9983 0.553514 0
3.04224 0.487456 0
3.07749 0.558545 0
3.12143 0.492477 0
3.15668 0.563574 0
3.20063 0.497514 0
3.23588 0.568605 0
3.27983 0.502542 0
3.31508 0.573635 0
3.35903 0.507562 0
3.39428 0.578663 0
3.43823 0.5126 0
3.47348 0.583694 0
3.51744 0.517628 0
3.55268 0.588724 0
3.59664 0.522646 0
3.63189 0.593752 0
3.67585 0.527673 0
3.71109 0.598781 0
3.75505 0.532702 0
3.7903 0.60381 0
3.83426 0.537731 0
3.79901 0.466623 0
3.87821 0.471754 0
3.91346 0.542777 0
3.95742 0.476701 0
3.99267 0.547795 0
4.03662 0.481715 0
4.07187 0.552815 0
4.11582 0.486743 0
4.15106 0.55783 0
4.195 0.491782 0
4.23023 0.562843 0
4.27415 0.49682 0
4.30937 0.567866 0
4.35325 0.501915 0
4.38842 0.572845 0
4.43227 0.506997 0
4.46737 0.577575 0
4.51106 0.511995 0
4.54622 0.582183 0
1.13571 0.390292 0
4.47606 0.441361 0
4.55475 0.446396 0
2.32985 0.442214 0
3.5614 0.451571 0
3.08619 0.421408 0
2.09339 0.427815 0
1.42887 0.583001 0
2.84864 0.406329 0
3.32378 0.43649 0
4.23911 0.425894 0
1.54723 0.39251 0
1.77883 0.406811 0
1.33959 0.387065 0
3.92239 0.405803 0
4.08079 0.415776 0
2.48812 0.452349 0
1.57935 0.603183 0
1.93602 0.417543 0
1.72453 0.617973 0
3.11273 0.629643 0
2.69029 0.396284 0
3.94662 0.623383 0
1.88466 0.613248 0
2.79598 0.609502 0
4.10826 0.620575 0
2.04005 0.62838 0
2.95434 0.619575 0
4.51981 0.375801 0
4.59833 0.380943 0
4.63314 0.451296 0
4.26693 0.63114 0
2.19619 0.645921 0
4.4246 0.642296 0
3.27112 0.639707 0
2.35729 0.649822 0
2.51462 0.660373 0
3.42952 0.649769 0
4.67669 0.38601 0
3.58793 0.659829 0
3.74634 0.669888 0
4.64195 0.315733 0
4.44109 0.370647 0
4.48493 0.305066 0
4.40614 0.29989 0
4.71136 0.456133 0
4.72014 0.320758 0
0.8692 0.382093 0
0.841252 0.348256 0
0.886481 0.338703 0
0.853127 0.301457 0
0.902583 0.287335 0
0.801683 0.321689 0
0.818113 0.263019 0
0.764765 0.277091 0
4.44702 0.235678 0
0.946267 0.520761 0
0.78107 0.221265 0
0.726309 0.234724 0
0.848273 0.20551 0
4.68545 0.250576 0
4.37074 0.227561 0
4.76365 0.255792 0
4.79822 0.326145 0
0.713664 0.287231 0
0.672358 0.247957 0
0.68673 0.192342 0
0.630368 0.2085 0
0.616569 0.265341 0
0.574186 0.225456 0
0.557393 0.28131 0
0.52004 0.242373 0
0.504416 0.299685 0
0.462273 0.252096 0
0.44798 0.316739 0
0.404567 0.276951 0
0.390546 0.335414 0
0.434669 0.37657 0
0.377935 0.394545 0
0.421979 0.43426 0
0.365682 0.452846 0
0.409646 0.492216 0
0.353389 0.51089 0
0.397738 0.551598 0
0.339864 0.570301 0
0.385899 0.612153 0
0.325913 0.631557 0
0.344507 0.29318 0
0.320568 0.413067 0
0.373553 0.673852 0
0.434438 0.653082 0
0.311416 0.69481 0
0.449777 0.528305 0
0.293513 0.534612 0
0.421431 0.715204 0
0.480917 0.696603 0
0.54504 0.34471 0
0.262743 0.649913 0
0.246209 0.712341 0
0.468564 0.755948 0
0.526091 0.735423 0
0.538207 0.68039 0
0.581228 0.716342 0
0.408756 0.777952 0
0.36234 0.239019 0
0.297047 0.251925 0
0.572109 0.771575 0
0.624906 0.752173 0
0.474824 0.414151 0
0.534351 0.182707 0
0.633682 0.70159 0
0.674547 0.736174 0
0.66826 0.788959 0
0.721117 0.76834 0
0.714515 0.825486 0
0.769074 0.802008 0
0.775287 0.746591 0
0.821903 0.778625 0
0.826767 0.726064 0
0.873257 0.756032 0
0.872997 0.697261 0
0.92331 0.732304 0
0.930014 0.67838 0
0.976061 0.710612 0
0.92456 0.784469 0
0.982178 0.654421 0
1.03016 0.688004 0
1.02037 0.747059 0
1.08 0.723819 0
1.08651 0.661896 0
1.1397 0.698204 0
1.13262 0.763657 0
1.19424 0.736545 0
1.18556 0.80161 0
1.24839 0.771772 0
1.25723 0.706382 0
1.31432 0.745787 0
4.66801 0.521361 0
4.74602 0.526202 0
4.70285 0.591278 0
4.78076 0.596023 0
4.73763 0.661207 0
4.78904 0.460969 0
2.61113 0.391267 0
2.65506 0.325217 0
2.57588 0.320198 0
2.61982 0.254148 0
2.69899 0.259163 0
2.54065 0.249131 0
2.49672 0.315179 0
2.46148 0.244124 0
2.41757 0.310166 0
2.38233 0.239117 0
2.33843 0.30514 0
2.30297 0.237979 0
2.25928 0.300748 0
2.22079 0.221377 0
2.17969 0.293884 0
2.14114 0.224266 0
2.10047 0.289841 0
2.0653 0.219144 0
2.02202 0.284919 0
1.98701 0.214164 0
1.94336 0.279863 0
3.82315 0.673327 0
3.78135 0.738156 0
3.86451 0.735958 0
3.70234 0.735494 0
4.52513 0.244409 0
4.32717 0.294467 0
4.29217 0.221862 0
0.619934 0.539507 0
0.599432 0.577132 0
0.575955 0.542712 0
0.554504 0.58245 0
4.65962 0.656481 0
4.69438 0.726169 0
4.6161 0.721747 0
4.77259 0.731352 0
4.65076 0.791486 0
4.57153 0.788793 0
4.2482 0.289182 0
4.21307 0.218308 0
4.1691 0.284563 0
4.13394 0.21352 0
0.835918 0.606341 0
0.806475 0.6384 0
4.08995 0.279537 0
0.640355 0.426737 0
0.596214 0.435837 0
0.630358 0.379178 0
0.689967 0.627735 0
1.90832 0.209948 0
1.86468 0.27519 0
1.82968 0.20518 0
1.78607 0.269797 0
0.281841 0.313314 0
0.232117 0.268621 0
0.216861 0.334396 0
4.05473 0.209347 0
4.01077 0.2745 0
3.97554 0.204394 0
3.93159 0.269388 0
0.297409 0.759367 0
0.231645 0.782943 0
0.180008 0.73598 0
1.32151 0.676369 0
1.38055 0.718092 0
1.36901 0.793947 0
1.43945 0.766002 0
0.249902 0.198865 0
0.932364 0.624392 0
1.75117 0.201034 0
1.70771 0.264658 0
1.673 0.195402 0
1.62985 0.260294 0
1.59532 0.191927 0
1.55236 0.254233 0
3.89629 0.200227 0
3.85238 0.264494 0
3.81708 0.195303 0
3.77304 0.259453 0
2.66368 0.189084 0
2.74279 0.19534 0
2.77814 0.264556 0
2.82201 0.199823 0
2.85733 0.269552 0
2.90126 0.203886 0
2.93654 0.274416 0
2.98045 0.20868 0
3.01573 0.279376 0
3.0597 0.213193 0
[...]
CELL_DATA 2220
VECTORS velocity double
25.5853 -2.06192 0.0
18.9029 0.494441 0.0
25.6344 6.10975 0.0
25.1224 1.1407 0.0
25.9774 -2.42753 0.0
34.8031 -1.34438 0.0
15.8773 0.473178 0.0
17.702 -0.0380668 0.0
29.2988 11.312 0.0
34.314 -0.950598 0.0
18.6069 16.6501 0.0
16.905 0.255182 0.0
13.3914 0.187813 0.0
25.7382 -6.75776 0.0
23.3547 15.5697 0.0
21.0167 11.2957 0.0
18.1815 0.906937 0.0
14.6797 0.657064 0.0
16.6609 -0.143363 0.0
18.1092 -0.128183 0.0
21.616 4.65405 0.0
41.497 -6.12878 0.0
17.1183 0.763212 0.0
17.5101 0.569015 0.0
31.7106 -1.1109 0.0
23.7119 -5.66003 0.0
22.1656 -2.29369 0.0
14.9598 0.55447 0.0
24.7596 1.20907 0.0
27.8811 1.15115 0.0
25.3371 -3.29602 0.0
33.6713 0.138971 0.0
12.2937 -0.124059 0.0
31.8864 -12.7308 0.0
49.3164 1.66814 0.0
34.8873 -1.5121 0.0
48.0989 2.51483 0.0
14.4581 -0.132488 0.0
29.2317 1.39929 0.0
28.4898 -1.87091 0.0
13.4444 -1.23195 0.0
29.417 10.3399 0.0
21.0398 0.947721 0.0
16.0541 -0.0155176 0.0
14.4856 -0.0857966 0.0
12.949 -0.0119244 0.0
16.8724 0.674615 0.0
13.1731 -0.0253868 0.0
34.0583 -0.823399 0.0
36.8362 0.55785 0.0
17.1161 3.6778 0.0
13.2508 0.0941791 0.0
16.5435 0.6413 0.0
16.9228 0.107203 0.0
15.132 0.726179 0.0
28.3324 -2.45662 0.0
35.9486 -0.401234 0.0
13.9618 0.570394 0.0
14.4335 0.589199 0.0
37.2063 0.428719 0.0
-0.182038 -6.33096 0.0
33.0195 -1.76947 0.0
27.1236 -4.42383 0.0
16.9712 0.63061 0.0
16.7238 0.721845 0.0
34.4568 -11.3343 0.0
19.6741 -1.13868 0.0
23.7632 10.5976 0.0
14.0862 0.69649 0.0
14.4259 0.593385 0.0
16.7569 0.158802 0.0
33.6975 11.6974 0.0
12.9856 0.15303 0.0
35.6439 1.06939 0.0
30.6773 -1.49431 0.0
50.0369 -0.309755 0.0
29.8558 4.49317 0.0
18.2503 -3.60123 0.0
28.2033 10.2145 0.0
15.7903 0.113007 0.0
23.429 2.76671 0.0
29.0819 2.73426 0.0
14.8485 -0.248684 0.0
12.8983 0.10317 0.0
16.336 0.474769 0.0
16.2767 0.248 0.0
22.9453 -2.43624 0.0
13.5042 0.211711 0.0
13.7469 0.3804 0.0
29.9379 11.6163 0.0
24.5087 -3.69443 0.0
18.2932 4.47995 0.0
16.8662 -0.177781 0.0
26.6575 6.23387 0.0
49.2823 0.133822 0.0
28.3549 2.00806 0.0
43.003 4.82791 0.0
4.77609 -18.1145 0.0
0.490739 -4.80535 0.0
29.618 13.468 0.0
-5.39827 -18.3383 0.0
22.2125 -4.56685 0.0
16.6596 0.591449 0.0
13.7842 1.18612 0.0
43.117 -5.75158 0.0
49.5507 -0.997081 0.0
35.7677 -1.1194 0.0
36.1921 -1.4095 0.0
4.70798 -0.14186 0.0
16.5608 1.26811 0.0
31.8496 1.04257 0.0
28.5384 -8.28909 0.0
35.6041 -0.934695 0.0
11.0069 -0.593419 0.0
34.6642 -2.59027 0.0
14.0859 0.508406 0.0
24.6472 -5.58814 0.0
18.6118 -0.441498 0.0
2.97057 -20.6728 0.0
30.9049 10.7254 0.0
17.8227 -2.94763 0.0
38.8759 -0.672918 0.0
14.3153 3.33049 0.0
35.5611 -8.54851 0.0
50.1808 0.817885 0.0
14.6356 -11.7116 0.0
48.7356 -1.58029 0.0
23.7354 1.0629 0.0
28.0614 -7.94347 0.0
-0.403887 9.18851 0.0
13.0681 2.04256 0.0
35.948 4.47841 0.0
28.6862 5.81625 0.0
14.9924 9.84239 0.0
28.6307 1.47959 0.0
11.639 9.68306 0.0
11.9693 -0.00739818 0.0
18.8232 -3.63022 0.0
17.4261 -12.712 0.0
34.9679 0.534679 0.0
21.0641 -4.7049 0.0
15.846 -0.0376317 0.0
33.8208 -3.26738 0.0
49.6959 0.461394 0.0
34.9594 1.0187 0.0
23.8736 5.47399 0.0
-8.55717 9.19633 0.0
8.28909 -18.7129 0.0
34.8205 2.66669 0.0
35.7575 -2.02261 0.0
13.9084 -0.383973 0.0
30.3788 9.60813 0.0
39.5328 -0.017882 0.0
31.7646 -10.6965 0.0
6.09953 7.1224 0.0
18.0188 0.235366 0.0
22.5596 -1.40149 0.0
18.7794 0.392507 0.0
10.5966 -0.820736 0.0
16.3256 -3.63591 0.0
33.5679 8.36722 0.0
14.1278 0.0158276 0.0
-8.9608 -9.42654 0.0
33.7493 0.119695 0.0
12.8601 0.0886429 0.0
32.7267 -12.2161 0.0
23.8993 -14.608 0.0
50.5828 0.38235 0.0
17.8902 0.171318 0.0
25.2668 10.8076 0.0
-3.49973 15.3086 0.0
12.5467 0.022986 0.0
16.5752 0.0755388 0.0
-1.16593 -9.48442 0.0
9.70193 -5.19016 0.0
28.4719 9.27989 0.0
27.9116 4.39593 0.0
26.93 8.55875 0.0
8.83908 -1.80576 0.0
17.7079 0.0433715 0.0
38.179 -0.283956 0.0
17.0544 -3.73318 0.0
17.4375 -15.5314 0.0
4.85813 14.7412 0.0
18.078 -0.0262799 0.0
29.9566 -1.82003 0.0
49.1012 0.124853 0.0
14.1773 -0.481479 0.0
44.9706 3.75744 0.0
50.5261 0.23271 0.0
12.7584 -0.988695 0.0
14.0964 -0.201197 0.0
29.2799 -9.15547 0.0
35.2191 2.25191 0.0
22.8326 -0.450397 0.0
48.9479 -0.268654 0.0
24.6425 0.915582 0.0
16.0137 -0.731651 0.0
6.46472 -0.30917 0.0
16.5555 -0.570593 0.0
15.4401 -8.00906 0.0
22.174 -1.29474 0.0
36.8055 -10.0849 0.0
16.8743 -0.146605 0.0
13.6924 1.41871 0.0
21.6663 -3.61141 0.0
22.4818 -4.20052 0.0
15.4827 0.0148446 0.0
24.0501 1.69117 0.0
8.40103 -1.39871 0.0
16.5616 0.639406 0.0
11.9857 18.5468 0.0
24.0101 -0.202721 0.0
26.8152 10.9689 0.0
30.3637 5.66829 0.0
16.8779 2.58553 0.0
13.8838 0.591099 0.0
16.486 0.848103 0.0
9.71475 1.87839 0.0
31.42 0.907762 0.0
35.0291 0.658574 0.0
7.75597 -0.287606 0.0
13.7256 0.78863 0.0
7.39426 -0.120552 0.0
16.7485 -0.106361 0.0
19.5524 -1.5133 0.0
15.0709 -2.65889 0.0
21.7692 15.9671 0.0
27.0554 -5.59843 0.0
11.6899 0.349903 0.0
20.6663 1.58676 0.0
22.3022 -1.6669 0.0
11.2373 -0.108975 0.0
17.0629 -0.298365 0.0
12.0491 -0.249287 0.0
50.4945 0.121698 0.0
8.03142 -7.26528 0.0
16.6929 -0.208024 0.0
16.5411 -0.233406 0.0
14.4578 -0.158422 0.0
49.1133 -0.186357 0.0
37.905 9.23388 0.0
45.6169 -3.88921 0.0
8.32581 -0.00282733 0.0
13.4902 8.02014 0.0
36.8097 0.0359532 0.0
17.972 -0.410879 0.0
34.8837 -0.748148 0.0
4.36945 8.63504 0.0
21.465 0.607723 0.0
11.6356 -8.59413 0.0
8.34677 -0.0581821 0.0
22.2916 -14.177 0.0
34.4594 -0.195711 0.0
28.5787 -6.79829 0.0
16.322 0.340591 0.0
-8.68663 1.70115 0.0
35.7176 0.257138 0.0
22.5788 -0.0838819 0.0
49.7949 0.215336 0.0
18.8187 -0.286961 0.0
40.4435 -0.431509 0.0
11.6008 0.549655 0.0
19.4855 -4.58315 0.0
7.94859 -0.666395 0.0
8.25206 -0.0651048 0.0
14.8282 -1.16753 0.0
14.4393 -4.83109 0.0
19.022 4.62077 0.0
37.1547 -0.0360296 0.0
31.899 1.17381 0.0
33.9299 0.01187 0.0
13.6145 0.274988 0.0
33.2663 -2.0108 0.0
5.00515 -11.7468 0.0
47.2364 -2.48216 0.0
21.9623 -14.1764 0.0
20.137 -2.54147 0.0
14.7759 3.15652 0.0
14.1173 0.0768464 0.0
11.6199 -15.1279 0.0
26.5522 -0.0442843 0.0
47.4107 -0.531916 0.0
23.213 0.997534 0.0
33.1517 -1.78152 0.0
20.9637 -0.938489 0.0
37.3569 -0.273535 0.0
22.549 0.815022 0.0
14.2331 -0.17314 0.0
13.6834 -0.196546 0.0
-8.69059 -2.15073 0.0
15.2685 -1.35659 0.0
8.75093 1.77831 0.0
16.9717 -8.31859 0.0
17.8858 -1.84145 0.0
21.9578 -0.213706 0.0
22.3096 -0.189389 0.0
22.5478 0.336721 0.0
44.8908 -3.74987 0.0
31.4635 5.47332 0.0
11.8503 -1.19158 0.0
29.4967 8.56269 0.0
26.4263 -7.06652 0.0
7.77055 0.0597721 0.0
21.9472 -12.4083 0.0
17.3329 0.934529 0.0
13.1298 -0.193471 0.0
13.8843 -0.209399 0.0
16.9614 0.285976 0.0
7.9888 1.4002 0.0
11.8371 1.89209 0.0
12.1901 6.90853 0.0
4.81634 18.229 0.0
47.0342 -1.40773 0.0
33.4216 11.7536 0.0
16.2176 -0.21633 0.0
27.8198 7.20138 0.0
12.174 0.00109807 0.0
50.0828 -0.255977 0.0
31.3825 6.07698 0.0
22.3087 14.2086 0.0
14.1803 3.20555 0.0
35.0274 0.288415 0.0
12.4266 0.110979 0.0
10.8083 9.64032 0.0
10.4245 -1.79917 0.0
33.9213 0.0717102 0.0
32.9544 1.29815 0.0
35.7231 0.666405 0.0
9.61534 -1.89682 0.0
23.7708 -11.2176 0.0
48.874 1.04049 0.0
22.2192 -3.97306 0.0
11.5057 -0.485003 0.0
33.7258 -10.7128 0.0
49.3116 -0.42261 0.0
25.8938 -0.853315 0.0
29.5508 8.53115 0.0
38.6808 -1.04014 0.0
16.4159 -0.235092 0.0
7.52573 0.885811 0.0
14.5186 -0.233027 0.0
6.8385 -0.13103 0.0
5.91414 -0.832528 0.0
19.7871 15.7901 0.0
29.256 9.94209 0.0
8.28331 4.1647 0.0
30.0632 7.07789 0.0
32.757 4.26248 0.0
5.10587 -0.960779 0.0
36.7039 -8.25766 0.0
4.48534 0.822033 0.0
6.80073 0.185995 0.0
17.3639 10.6193 0.0
7.56072 0.934093 0.0
50.687 -0.0252122 0.0
37.2238 -9.30187 0.0
4.33526 -0.40596 0.0
33.045 0.901786 0.0
32.7322 -0.992745 0.0
31.4054 4.43945 0.0
7.73109 18.7177 0.0
23.3739 6.22716 0.0
30.7127 5.66409 0.0
6.30163 0.260745 0.0
36.9195 0.832213 0.0
42.4465 6.47024 0.0
4.67275 -0.889974 0.0
6.63981 -0.212913 0.0
40.5831 -0.85417 0.0
4.78935 0.935969 0.0
43.6669 -4.62783 0.0
36.7615 9.7974 0.0
17.9479 -0.90653 0.0
7.27832 -0.0626255 0.0
13.6026 0.393898 0.0
23.4095 0.394926 0.0
23.7408 0.104227 0.0
50.1901 -0.0144669 0.0
22.0495 -0.136067 0.0
13.3146 0.629008 0.0
48.3961 0.147305 0.0
50.3222 -0.135535 0.0
35.7398 0.416268 0.0
46.5844 0.537052 0.0
33.5077 -0.159606 0.0
43.2581 -5.17222 0.0
35.0798 0.213523 0.0
24.3432 -6.26646 0.0
32.1696 3.39826 0.0
10.922 0.63396 0.0
31.969 0.023344 0.0
32.3958 -0.618642 0.0
27.0294 -6.15198 0.0
9.43842 -0.705476 0.0
14.5207 -2.12145 0.0
49.536 0.203785 0.0
9.07513 0.551692 0.0
35.1521 0.192085 0.0
48.2925 0.492022 0.0
7.54725 0.215299 0.0
26.5981 4.00206 0.0
30.2119 5.00563 0.0
35.7778 0.135512 0.0
41.5838 7.20979 0.0
45.8619 4.35578 0.0
5.1255 3.78182 0.0
7.74055 1.1375 0.0
22.8567 1.15716 0.0
30.2875 -12.314 0.0
16.664 -14.2471 0.0
5.68803 0.887047 0.0
45.5762 0.0599374 0.0
30.1072 -5.95556 0.0
48.6473 -0.472341 0.0
35.7376 0.165878 0.0
4.21264 -0.13102 0.0
4.34816 0.78345 0.0
28.9847 9.27799 0.0
6.58436 0.111276 0.0
30.6273 7.00296 0.0
46.1537 0.730879 0.0
4.36957 0.00134023 0.0
6.60685 -0.0392905 0.0
30.7778 3.91551 0.0
32.0666 0.455686 0.0
4.11187 0.138783 0.0
28.2414 -0.147636 0.0
35.2469 0.198953 0.0
8.13171 -1.11993 0.0
35.8345 0.140212 0.0
28.2644 3.79923 0.0
47.8301 -0.72863 0.0
32.6905 2.57131 0.0
6.95751 -0.493792 0.0
43.3306 5.30463 0.0
5.60343 -0.952877 0.0
6.77212 0.366613 0.0
22.4074 -9.91714 0.0
6.78595 0.378416 0.0
27.9404 4.79266 0.0
31.4632 3.01535 0.0
42.9388 4.56705 0.0
46.8571 3.04595 0.0
11.0301 -0.8665 0.0
19.4158 3.48726 0.0
48.4964 0.457924 0.0
4.38612 -0.520851 0.0
4.00165 0.518466 0.0
13.4685 -1.78825 0.0
10.5748 0.791664 0.0
35.1759 -0.699517 0.0
7.48376 -0.339469 0.0
25.2117 0.629076 0.0
34.786 1.57427 0.0
7.54935 0.783208 0.0
12.8659 0.582382 0.0
29.6667 6.2754 0.0
7.20516 0.307117 0.0
32.8145 1.86464 0.0
28.5824 2.96986 0.0
33.1284 0.451841 0.0
6.53743 -0.411045 0.0
5.07247 0.291807 0.0
8.33059 0.599608 0.0
23.7377 -0.747757 0.0
10.4561 -1.7881 0.0
35.93 0.15711 0.0
4.22983 0.0766139 0.0
45.8926 2.27155 0.0
8.38465 -0.489924 0.0
3.94096 0.604774 0.0
15.7648 -1.17194 0.0
29.3258 7.6682 0.0
7.98122 -0.891139 0.0
33.2114 0.351802 0.0
31.5212 2.27374 0.0
24.8943 4.32146 0.0
35.3896 0.208244 0.0
28.7715 2.29842 0.0
17.4033 -2.33273 0.0
35.0055 -9.00457 0.0
33.3521 -3.75589 0.0
28.8828 1.74329 0.0
6.75891 -0.542124 0.0
7.20856 0.564963 0.0
48.6239 -0.128255 0.0
3.86847 0.358979 0.0
36.8854 -0.640643 0.0
18.1635 6.92516 0.0
35.5408 0.200093 0.0
3.92212 0.432127 0.0
4.43198 -0.642755 0.0
31.7378 1.66069 0.0
29.2136 9.05074 0.0
24.4119 -0.153413 0.0
33.0036 -0.882603 0.0
30.1121 0.0460543 0.0
28.8685 -0.837839 0.0
14.0732 -8.81994 0.0
30.9371 -0.0978723 0.0
26.8523 3.25711 0.0
4.27588 -0.293201 0.0
28.9651 1.28964 0.0
24.0287 6.64653 0.0
14.1932 -0.621492 0.0
35.0443 0.429186 0.0
4.48395 -0.324696 0.0
4.9502 0.330704 0.0
26.6111 4.11356 0.0
31.9754 -0.127334 0.0
30.1067 -1.01896 0.0
16.9881 -0.130907 0.0
31.9874 1.72959 0.0
36.0444 0.168313 0.0
30.6639 -4.49416 0.0
4.27511 1.50275 0.0
33.0679 0.632417 0.0
32.9517 -4.24487 0.0
27.1862 1.98225 0.0
27.7251 4.77972 0.0
8.46658 -2.57849 0.0
32.7149 -12.0141 0.0
4.95286 -4.82524 0.0
27.8799 -13.7095 0.0
32.4536 -1.12271 0.0
32.666 4.69016 0.0
32.5126 2.13447 0.0
4.44959 -1.33008 0.0
29.0412 0.948122 0.0
29.8343 2.94259 0.0
27.2644 1.51415 0.0
36.941 0.0957649 0.0
27.0675 2.55221 0.0
31.9499 0.830002 0.0
27.8265 -0.663366 0.0
26.208 -3.47533 0.0
8.78842 -3.71187 0.0
47.3464 -0.73421 0.0
13.4651 -0.117231 0.0
24.3899 -5.46273 0.0
6.8431 -6.43934 0.0
39.2962 8.0557 0.0
36.2599 0.125234 0.0
3.00403 -0.236233 0.0
3.07989 0.243943 0.0
31.9634 0.601071 0.0
45.3768 0.793459 0.0
29.1552 0.712255 0.0
22.3037 6.81239 0.0
4.85361 -0.22292 0.0
8.01915 -0.333203 0.0
6.15369 0.740654 0.0
2.65389 1.97037 0.0
5.68558 -3.47361 0.0
31.6173 -5.55001 0.0
37.0933 0.0799455 0.0
43.0044 5.88565 0.0
0.842732 1.02898 0.0
26.2362 -0.0559767 0.0
28.0789 -0.0546707 0.0
27.0162 -4.50322 0.0
21.6549 6.84295 0.0
0.972657 -0.972614 0.0
2.91006 -1.78107 0.0
23.7212 0.365227 0.0
21.8785 0.807149 0.0
27.3893 1.13509 0.0
18.5983 -3.18048 0.0
31.9593 -0.0751042 0.0
50.4036 -0.249633 0.0
33.1502 -0.0696298 0.0
25.2938 5.40768 0.0
35.803 0.106519 0.0
4.01302 -0.237747 0.0
30.0083 7.64367 0.0
35.4994 0.388207 0.0
33.3164 0.312003 0.0
35.1275 -0.0597005 0.0
30.2345 -2.79731 0.0
3.85148 0.165414 0.0
35.5982 -0.326694 0.0
5.54589 -0.924003 0.0
13.7574 1.44255 0.0
22.6269 -0.517467 0.0
29.2626 0.568514 0.0
27.4854 0.849249 0.0
33.8829 1.33192 0.0
34.8785 1.05011 0.0
33.9348 1.55733 0.0
3.85364 0.25072 0.0
7.41377 0.441437 0.0
6.27177 -0.612982 0.0
36.1067 0.00505651 0.0
32.1896 0.380425 0.0
47.2784 0.521216 0.0
5.40976 1.0565 0.0
32.5942 0.0536113 0.0
30.682 3.29133 0.0
10.5194 7.0316 0.0
32.7637 -0.0572638 0.0
2.50963 0.614404 0.0
31.4746 -0.092807 0.0
31.0258 -1.04547 0.0
31.527 -0.608579 0.0
23.5579 -0.248764 0.0
21.6672 -0.237623 0.0
31.0948 -0.135303 0.0
7.05689 -0.724278 0.0
49.011 -1.17108 0.0
35.5759 -0.322317 0.0
33.9766 -0.151931 0.0
33.4759 0.303981 0.0
29.4258 0.484944 0.0
16.0538 -0.00987175 0.0
32.3356 0.353148 0.0
35.0004 -2.61419 0.0
35.8635 0.0531014 0.0
7.89234 0.337832 0.0
28.2554 4.55721 0.0
2.6746 -0.566966 0.0
36.0156 0.463305 0.0
36.4218 0.205231 0.0
29.6247 0.444021 0.0
1.80403 0.845997 0.0
32.3538 -10.9941 0.0
36.3068 0.0801894 0.0
34.6601 1.1837 0.0
32.3891 -0.0967515 0.0
33.7094 -0.436328 0.0
33.6791 0.299961 0.0
36.0313 0.000435095 0.0
35.8825 0.17818 0.0
36.1637 0.158411 0.0
29.9056 0.430074 0.0
3.43166 0.321973 0.0
12.0023 0.981326 0.0
34.8488 -0.829444 0.0
24.4241 9.00921 0.0
1.94244 -0.783017 0.0
6.83365 -0.404496 0.0
27.4962 -12.3739 0.0
30.5771 3.09528 0.0
32.5553 0.348121 0.0
12.8867 -0.775242 0.0
33.7884 -0.182704 0.0
34.6436 -0.148585 0.0
20.6909 7.84972 0.0
6.61089 0.537474 0.0
3.17134 -0.386241 0.0
34.3205 -3.17818 0.0
25.2946 4.65747 0.0
31.348 -2.74266 0.0
36.281 0.331168 0.0
11.6863 -1.64355 0.0
32.8007 0.33 0.0
27.6058 0.673153 0.0
35.8871 -0.0527503 0.0
3.01872 0.43837 0.0
33.9065 0.269773 0.0
35.8865 0.00145034 0.0
3.80778 -0.17402 0.0
30.2354 0.40115 0.0
35.6919 0.162947 0.0
36.6162 0.444214 0.0
34.3685 0.114117 0.0
34.4442 -0.201097 0.0
36.3114 0.0324943 0.0
29.772 -0.820981 0.0
34.4167 -0.0747127 0.0
34.1722 0.19809 0.0
33.5926 0.0736967 0.0
33.5823 -0.22834 0.0
3.5345 -0.256185 0.0
34.4981 0.272158 0.0
33.3945 -0.260287 0.0
4.78254 0.230347 0.0
36.2892 -0.0194203 0.0
7.58417 0.449687 0.0
33.0909 0.261348 0.0
34.2691 -0.240969 0.0
36.64 0.308676 0.0
35.2303 -0.0491673 0.0
34.5093 0.0459255 0.0
36.34 0.186923 0.0
15.8775 0.183512 0.0
31.09 0.164485 0.0
28.8331 1.46597 0.0
30.5027 0.300414 0.0
3.46017 -0.0529153 0.0
35.5328 0.0278253 0.0
33.379 0.157401 0.0
26.8073 -4.99269 0.0
3.62244 -0.265486 0.0
27.9875 0.498192 0.0
3.54015 0.190066 0.0
25.0135 -4.60599 0.0
30.0725 1.69241 0.0
28.2677 0.468072 0.0
32.0687 -0.148032 0.0
33.2182 -0.271116 0.0
28.6552 0.452692 0.0
34.6753 -0.0653221 0.0
37.8061 9.51837 0.0
25.2265 -5.65647 0.0
33.761 -0.0720728 0.0
36.4468 0.487136 0.0
36.2654 0.50874 0.0
36.5764 0.280648 0.0
34.1087 -0.262699 0.0
36.8158 0.340511 0.0
29.2336 -0.13315 0.0
36.7834 0.356239 0.0
32.8579 -0.166662 0.0
31.3457 0.0689561 0.0
14.9038 0.32476 0.0
34.7218 -0.163955 0.0
36.7767 0.304632 0.0
26.8812 -0.665209 0.0
36.4964 0.42069 0.0
33.9605 -0.258535 0.0
33.0563 -0.250613 0.0
3.68248 0.239292 0.0
33.7476 0.0104659 0.0
27.7802 0.566364 0.0
36.9641 0.315421 0.0
25.2565 -0.393286 0.0
8.24281 0.217125 0.0
31.5887 -0.000935528 0.0
36.5281 0.319913 0.0
29.4085 0.229298 0.0
28.6961 -0.136791 0.0
32.909 -0.192724 0.0
36.5242 0.188302 0.0
33.8289 -0.221659 0.0
29.9224 0.112706 0.0
18.4688 5.6511 0.0
36.2553 -0.0758979 0.0
36.9428 0.272778 0.0
35.3646 0.875336 0.0
14.5711 -0.0779338 0.0
33.8649 -0.0450037 0.0
27.4497 -0.155027 0.0
4.34794 0.129136 0.0
7.66357 0.257643 0.0
33.7024 -0.154937 0.0
35.8011 0.224516 0.0
31.3097 -0.271827 0.0
32.7597 -0.110597 0.0
36.8284 0.249579 0.0
31.7893 -0.196861 0.0
31.7867 -0.0587558 0.0
32.5693 -0.0270118 0.0
27.9392 -0.191247 0.0
30.7718 -0.180476 0.0
37.0734 0.235326 0.0
28.2785 -0.159586 0.0
36.1693 0.13821 0.0
31.0734 -0.285456 0.0
32.2949 -0.2321 0.0
30.487 -0.223669 0.0
27.6094 -0.227982 0.0
35.8663 0.169916 0.0
33.5563 -0.0757358 0.0
5.33229 0.144621 0.0
8.37992 0.210229 0.0
36.82 0.107165 0.0
36.4612 0.0418794 0.0
28.9031 0.405128 0.0
30.2478 -0.00190117 0.0
30.4842 -0.03673 0.0
36.7086 0.421926 0.0
32.2989 0.037182 0.0
35.556 0.766608 0.0
34.6069 -0.0108061 0.0
27.2997 -0.264168 0.0
29.7156 -0.289274 0.0
30.2141 0.02721 0.0
33.3593 -0.00531599 0.0
37.0511 0.177346 0.0
35.8782 -0.1085 0.0
30.2288 -0.261216 0.0
30.0941 8.57669 0.0
26.1343 -0.20955 0.0
29.972 -0.287631 0.0
27.0167 -0.296219 0.0
33.1118 1.61291 0.0
31.9591 0.0619257 0.0
33.0983 0.0358312 0.0
30.8678 -0.26335 0.0
26.5011 -0.178664 0.0
29.0815 -0.0363065 0.0
36.3941 0.247547 0.0
26.7059 -0.30464 0.0
29.4973 -0.238013 0.0
31.6228 0.0370113 0.0
16.7457 0.133708 0.0
35.1447 0.0481346 0.0
26.3574 -0.243292 0.0
14.5089 0.0893064 0.0
25.7976 -0.244172 0.0
32.8076 0.0330477 0.0
26.1717 -0.125063 0.0
29.2919 -0.143126 0.0
26.9031 -0.160877 0.0
3.82462 -0.0513531 0.0
7.22074 -0.0934113 0.0
16.7237 0.203612 0.0
31.4052 -0.243454 0.0
30.4901 -0.0981757 0.0
31.3486 -0.0179467 0.0
32.5433 -0.00909371 0.0
25.9094 -0.00693839 0.0
8.11323 0.0890146 0.0
36.5524 0.188407 0.0
7.44334 -0.104027 0.0
37.1171 0.096963 0.0
31.169 -0.0720712 0.0
25.477 -0.279804 0.0
29.8854 0.0726214 0.0
25.0892 -0.310201 0.0
37.0749 0.012827 0.0
29.4187 0.106675 0.0
3.96866 -0.0539841 0.0
7.33438 -0.10439 0.0
30.6806 -0.194299 0.0
4.23992 0.0555339 0.0
32.345 -0.0683647 0.0
24.7526 -0.286191 0.0
24.4772 -0.175645 0.0
28.76 0.0542114 0.0
31.9869 -0.144111 0.0
36.6034 0.0191469 0.0
28.9874 0.083911 0.0
28.6332 0.0230555 0.0
7.40951 -0.0905046 0.0
4.1293 -0.0538209 0.0
13.828 0.165999 0.0
24.2321 -0.0435496 0.0
28.2538 0.116077 0.0
31.5403 -0.23946 0.0
27.7128 0.128951 0.0
33.0989 -0.0804689 0.0
14.1851 0.188816 0.0
27.2684 0.0751912 0.0
32.255 -0.111514 0.0
28.378 -0.0258436 0.0
7.40764 0.0969334 0.0
3.73363 -0.0364484 0.0
3.13842 -0.0527024 0.0
4.02708 -0.0485029 0.0
7.32882 -0.0305032 0.0
7.79202 0.111444 0.0
3.40254 -0.0140452 0.0
3.85076 -0.00054576 0.0
7.17949 -0.0882776 0.0
3.74038 -0.0327171 0.0
4.04617 -0.0294779 0.0
4.27076 0.089096 0.0
7.98351 -0.0921296 0.0
4.16326 0.05279 0.0
7.09476 -0.0643077 0.0
3.98796 0.0518555 0.0
7.53852 -0.0499703 0.0
7.29844 -0.0727802 0.0
3.89311 0.109595 0.0
8.07122 0.131115 0.0
7.1703 -0.0721873 0.0
7.03065 -0.0816184 0.0
3.98556 0.17972 0.0
6.79049 -0.0469379 0.0
7.29225 0.130103 0.0
3.65772 -0.0393316 0.0
7.09904 -0.0426517 0.0
4.16906 -0.0031827 0.0
3.69362 0.0605811 0.0
6.89085 -0.106092 0.0
3.99443 0.135176 0.0
4.80115 0.0703732 0.0
4.00441 0.227711 0.0
3.38295 0.0535551 0.0
3.64551 -0.00988025 0.0
7.16912 0.0188543 0.0
3.84894 -0.05057 0.0
3.95349 -0.0535664 0.0
4.08367 0.153062 0.0
4.1092 0.161417 0.0
3.99787 -0.0217264 0.0
3.95393 0.0375418 0.0
3.36043 -0.0528766 0.0
3.79909 -0.0312548 0.0
4.70525 -0.00856695 0.0
8.01939 -0.0226166 0.0
4.04907 -0.119155 0.0
4.83516 0.0468568 0.0
6.80408 0.108864 0.0
6.70325 -0.116175 0.0
3.75646 -0.044954 0.0
4.13428 0.146533 0.0
3.79121 0.0301767 0.0
7.49015 -0.0204475 0.0
3.60773 0.0717307 0.0
3.99716 0.0523811 0.0
3.73224 -0.0481683 0.0
7.56161 0.30446 0.0
4.60466 -0.0603285 0.0
3.26759 0.00493759 0.0
3.72137 0.00480727 0.0
3.17692 0.0325711 0.0
4.08627 0.0528258 0.0
4.1373 -0.0190305 0.0
6.25404 -0.0496151 0.0
2.83109 -0.0187245 0.0
7.38242 0.276438 0.0
7.63083 0.0906016 0.0
31.6897 -0.129238 0.0
31.1426 -0.0870206 0.0
34.7249 -0.119019 0.0
26.9307 0.0129113 0.0
36.7379 -0.214908 0.0
36.7419 -0.0408064 0.0
26.6157 -0.00371245 0.0
36.804 -0.215388 0.0
36.9994 -0.147492 0.0
36.8678 -0.218253 0.0
37.0725 -0.0653984 0.0
28.2729 -0.0169801 0.0
31.2704 -0.0748459 0.0
36.9514 -0.179561 0.0
30.3506 -0.119075 0.0
36.6393 -0.172673 0.0
32.3134 -0.117619 0.0
36.5625 -0.149844 0.0
34.2361 -0.168924 0.0
34.9126 -0.194769 0.0
23.1406 0.0629805 0.0
36.472 -0.227634 0.0
36.2099 -0.096121 0.0
35.0165 -0.167252 0.0
36.5827 -0.163549 0.0
25.9215 -0.0901244 0.0
33.9519 -0.0988762 0.0
31.3565 -0.109021 0.0