# vtk DataFile Version 3.0
Malha 2D com triângulos e temperatura
ASCII
DATASET UNSTRUCTURED_GRID

POINTS 1194 double
0 0 0
5 0 0
5 1 0
0 1 0
0.85 0.5 0
0.842388 0.538268 0
0.820711 0.570711 0
0.788268 0.592388 0
0.75 0.6 0
0.711732 0.592388 0
0.679289 0.570711 0
0.657612 0.538268 0
0.65 0.5 0
0.657612 0.461732 0
0.679289 0.429289 0
0.711732 0.407612 0
0.75 0.4 0
0.788268 0.407612 0
0.820711 0.429289 0
0.842388 0.461732 0
0.0793651 0 0
0.15873 0 0
0.238095 0 0
0.31746 0 0
0.396825 0 0
0.47619 0 0
0.555556 0 0
0.634921 0 0
0.714286 0 0
0.793651 0 0
0.873016 0 0
0.952381 0 0
1.03175 0 0
1.11111 0 0
1.19048 0 0
1.26984 0 0
1.34921 0 0
1.42857 0 0
1.50794 0 0
1.5873 0 0
1.66667 0 0
1.74603 0 0
1.8254 0 0
1.90476 0 0
1.98413 0 0
2.06349 0 0
2.14286 0 0
2.22222 0 0
2.30159 0 0
2.38095 0 0
2.46032 0 0
2.53968 0 0
2.61905 0 0
2.69841 0 0
2.77778 0 0
2.85714 0 0
2.93651 0 0
3.01587 0 0
3.09524 0 0
3.1746 0 0
3.25397 0 0
3.33333 0 0
3.4127 0 0
3.49206 0 0
3.57143 0 0
3.65079 0 0
3.73016 0 0
3.80952 0 0
3.88889 0 0
3.96825 0 0
4.04762 0 0
4.12698 0 0
4.20635 0 0
4.28571 0 0
4.36508 0 0
4.44444 0 0
4.52381 0 0
4.60317 0 0
4.68254 0 0
4.7619 0 0
4.84127 0 0
4.92063 0 0
5 0.0769231 0
5 0.153846 0
5 0.230769 0
5 0.307692 0
5 0.384615 0
5 0.461538 0
5 0.538462 0
5 0.615385 0
5 0.692308 0
5 0.769231 0
5 0.846154 0
5 0.923077 0
4.92063 1 0
4.84127 1 0
4.7619 1 0
4.68254 1 0
4.60317 1 0
4.52381 1 0
4.44444 1 0
4.36508 1 0
4.28571 1 0
4.20635 1 0
4.12698 1 0
4.04762 1 0
3.96825 1 0
3.88889 1 0
3.80952 1 0
3.73016 1 0
3.65079 1 0
3.57143 1 0
3.49206 1 0
3.4127 1 0
3.33333 1 0
3.25397 1 0
3.1746 1 0
3.09524 1 0
3.01587 1 0
2.93651 1 0
2.85714 1 0
2.77778 1 0
2.69841 1 0
2.61905 1 0
2.53968 1 0
2.46032 1 0
2.38095 1 0
2.30159 1 0
2.22222 1 0
2.14286 1 0
2.06349 1 0
1.98413 1 0
1.90476 1 0
1.8254 1 0
1.74603 1 0
1.66667 1 0
1.5873 1 0
1.50794 1 0
1.42857 1 0
1.34921 1 0
1.26984 1 0
1.19048 1 0
1.11111 1 0
1.03175 1 0
0.952381 1 0
0.873016 1 0
0.793651 1 0
0.714286 1 0
0.634921 1 0
0.555556 1 0
0.47619 1 0
0.396825 1 0
0.31746 1 0
0.238095 1 0
0.15873 1 0
0.0793651 1 0
0 0.923077 0
0 0.846154 0
0 0.769231 0
0 0.692308 0
0 0.615385 0
0 0.538462 0
0 0.461538 0
0 0.384615 0
0 0.307692 0
0 0.230769 0
0 0.153846 0
0 0.0769231 0
0.879698 0.466718 0
1.3085 0.931947 0
1.30532 0.0638546 0
4.93832 0.504275 0
0.620452 0.46964 0
3.99858 0.0669607 0
1.63721 0.934258 0
3.3751 0.0523709 0
4.3254 0.0687322 0
2.42354 0.0642082 0
2.97619 0.0687322 0
2.02101 0.0693621 0
3.68108 0.0581336 0
2.65899 0.932655 0
4.178 0.939994 0
3.21614 0.938179 0
2.25483 0.919987 0
3.53215 0.928998 0
3.84921 0.931268 0
1.69647 0.0674297 0
1.94349 0.930209 0
4.48413 0.931268 0
2.97813 0.942022 0
2.74097 0.0673855 0
0.859645 0.573263 0
0.639718 0.573116 0
0.0651563 0.652836 0
0.0635304 0.346121 0
4.56232 0.0679683 0
0.830393 0.392645 0
0.669618 0.39275 0
1.06185 0.0668897 0
0.440193 0.0680031 0
1.06474 0.93511 0
0.446074 0.935974 0
0.724697 0.630698 0
4.72268 0.931235 0
4.93065 0.267192 0
0.589836 0.936152 0
0.92338 0.0562425 0
0.590207 0.0623339 0
0.755872 0.0732784 0
0.838039 0.936714 0
4.92573 0.732039 0
0.281717 0.93783 0
0.28208 0.0811877 0
0.065248 0.503161 0
1.46076 0.0637037 0
4.72574 0.0661877 0
4.31028 0.937908 0
3.21429 0.0687322 0
1.46639 0.932632 0
3.6897 0.928155 0
2.42063 0.931268 0
3.5364 0.0691789 0
2.25998 0.0676208 0
1.78735 0.937047 0
4.01535 0.920637 0
1.85469 0.0674188 0
3.83991 0.0626292 0
3.37477 0.929368 0
2.58225 0.0657863 0
2.81746 0.932342 0
4.16667 0.0687322 0
2.11402 0.935574 0
0.0614266 0.197046 0
0.0612841 0.803003 0
4.88273 0.0644126 0
4.87774 0.933272 0
0.859645 0.426737 0
0.903081 0.436592 0
0.923672 0.473385 0
0.948706 0.439078 0
0.969155 0.479795 0
0.996593 0.439791 0
1.0202 0.484937 0
1.04667 0.440138 0
1.07382 0.489694 0
1.1034 0.440801 0
1.13169 0.49612 0
1.16603 0.445058 0
1.1931 0.504331 0
1.22956 0.450883 0
1.25923 0.506004 0
1.29683 0.453139 0
1.32923 0.510343 0
1.36603 0.454344 0
1.03276 0.530395 0
1.40063 0.516169 0
1.43576 0.454934 0
1.47042 0.520776 0
1.51069 0.46142 0
1.54422 0.526371 0
1.58547 0.465572 0
1.61942 0.531773 0
1.66033 0.468788 0
1.69546 0.536793 0
1.73713 0.472812 0
1.77239 0.541977 0
1.81532 0.478494 0
1.85006 0.547285 0
1.89327 0.483449 0
1.92802 0.55361 0
1.97142 0.488546 0
2.00623 0.558966 0
2.04984 0.493518 0
2.08483 0.564085 0
2.12847 0.498462 0
2.16353 0.569137 0
2.20719 0.503331 0
0.961579 0.391697 0
1.22451 0.565337 0
2.24238 0.574192 0
2.28611 0.508258 0
2.32134 0.579247 0
2.36519 0.513325 0
2.40036 0.584295 0
2.44425 0.51834 0
2.47944 0.589336 0
2.52334 0.523355 0
2.55853 0.594372 0
2.60245 0.52837 0
2.63764 0.599431 0
2.68159 0.533388 0
2.64637 0.462336 0
2.72553 0.467349 0
2.76076 0.538418 0
2.8047 0.47237 0
2.83993 0.543451 0
2.88387 0.477399 0
2.91911 0.548482 0
2.96305 0.482427 0
2.9983 0.553514 0
3.04224 0.487456 0
3.07749 0.558545 0
3.12143 0.492477 0
3.15668 0.563574 0
3.20063 0.497514 0
3.23588 0.568605 0
3.27983 0.502542 0
3.31508 0.573635 0
3.35903 0.507562 0
3.39428 0.578663 0
3.43823 0.5126 0
3.47348 0.583694 0
3.51744 0.517628 0
3.55268 0.588724 0
3.59664 0.522646 0
3.63189 0.593752 0
3.67585 0.527673 0
3.71109 0.598781 0
3.75505 0.532702 0
3.7903 0.60381 0
3.83426 0.537731 0
3.79901 0.466623 0
3.87821 0.471754 0
3.91346 0.542777 0
3.95742 0.476701 0
3.99267 0.547795 0
4.03662 0.481715 0
4.07187 0.552815 0
4.11582 0.486743 0
4.15106 0.55783 0
4.195 0.491782 0
4.23023 0.562843 0
4.27415 0.49682 0
4.30937 0.567866 0
4.35325 0.501915 0
4.38842 0.572845 0
4.43227 0.506997 0
4.46737 0.577575 0
4.51106 0.511995 0
4.54622 0.582183 0
1.13571 0.390292 0
4.47606 0.441361 0
4.55475 0.446396 0
2.32985 0.442214 0
3.5614 0.451571 0
3.08619 0.421408 0
2.09339 0.427815 0
1.42887 0.583001 0
2.84864 0.406329 0
3.32378 0.43649 0
4.23911 0.425894 0
1.54723 0.39251 0
1.77883 0.406811 0
1.33959 0.387065 0
3.92239 0.405803 0
4.08079 0.415776 0
2.48812 0.452349 0
1.57935 0.603183 0
1.93602 0.417543 0
1.72453 0.617973 0
3.11273 0.629643 0
2.69029 0.396284 0
3.94662 0.623383 0
1.88466 0.613248 0
2.79598 0.609502 0
4.10826 0.620575 0
2.04005 0.62838 0
2.95434 0.619575 0
4.51981 0.375801 0
4.59833 0.380943 0
4.63314 0.451296 0
4.26693 0.63114 0
2.19619 0.645921 0
4.4246 0.642296 0
3.27112 0.639707 0
2.35729 0.649822 0
2.51462 0.660373 0
3.42952 0.649769 0
4.67669 0.38601 0
3.58793 0.659829 0
3.74634 0.669888 0
4.64195 0.315733 0
4.44109 0.370647 0
4.48493 0.305066 0
4.40614 0.29989 0
4.71136 0.456133 0
4.72014 0.320758 0
0.8692 0.382093 0
0.841252 0.348256 0
0.886481 0.338703 0
0.853127 0.301457 0
0.902583 0.287335 0
0.801683 0.321689 0
0.818113 0.263019 0
0.764765 0.277091 0
4.44702 0.235678 0
0.946267 0.520761 0
0.78107 0.221265 0
0.726309 0.234724 0
0.848273 0.20551 0
4.68545 0.250576 0
4.37074 0.227561 0
4.76365 0.255792 0
4.79822 0.326145 0
0.713664 0.287231 0
0.672358 0.247957 0
0.68673 0.192342 0
0.630368 0.2085 0
0.616569 0.265341 0
0.574186 0.225456 0
0.557393 0.28131 0
0.52004 0.242373 0
0.504416 0.299685 0
0.462273 0.252096 0
0.44798 0.316739 0
0.404567 0.276951 0
0.390546 0.335414 0
0.434669 0.37657 0
0.377935 0.394545 0
0.421979 0.43426 0
0.365682 0.452846 0
0.409646 0.492216 0
0.353389 0.51089 0
0.397738 0.551598 0
0.339864 0.570301 0
0.385899 0.612153 0
0.325913 0.631557 0
0.344507 0.29318 0
0.320568 0.413067 0
0.373553 0.673852 0
0.434438 0.653082 0
0.311416 0.69481 0
0.449777 0.528305 0
0.293513 0.534612 0
0.421431 0.715204 0
0.480917 0.696603 0
0.54504 0.34471 0
0.262743 0.649913 0
0.246209 0.712341 0
0.468564 0.755948 0
0.526091 0.735423 0
0.538207 0.68039 0
0.581228 0.716342 0
0.408756 0.777952 0
0.36234 0.239019 0
0.297047 0.251925 0
0.572109 0.771575 0
0.624906 0.752173 0
0.474824 0.414151 0
0.534351 0.182707 0
0.633682 0.70159 0
0.674547 0.736174 0
0.66826 0.788959 0
0.721117 0.76834 0
0.714515 0.825486 0
0.769074 0.802008 0
0.775287 0.746591 0
0.821903 0.778625 0
0.826767 0.726064 0
0.873257 0.756032 0
0.872997 0.697261 0
0.92331 0.732304 0
0.930014 0.67838 0
0.976061 0.710612 0
0.92456 0.784469 0
0.982178 0.654421 0
1.03016 0.688004 0
1.02037 0.747059 0
1.08 0.723819 0
1.08651 0.661896 0
1.1397 0.698204 0
1.13262 0.763657 0
1.19424 0.736545 0
1.18556 0.80161 0
1.24839 0.771772 0
1.25723 0.706382 0
1.31432 0.745787 0
4.66801 0.521361 0
4.74602 0.526202 0
4.70285 0.591278 0
4.78076 0.596023 0
4.73763 0.661207 0
4.78904 0.460969 0
2.61113 0.391267 0
2.65506 0.325217 0
2.57588 0.320198 0
2.61982 0.254148 0
2.69899 0.259163 0
2.54065 0.249131 0
2.49672 0.315179 0
2.46148 0.244124 0
2.41757 0.310166 0
2.38233 0.239117 0
2.33843 0.30514 0
2.30297 0.237979 0
2.25928 0.300748 0
2.22079 0.221377 0
2.17969 0.293884 0
2.14114 0.224266 0
2.10047 0.289841 0
2.0653 0.219144 0
2.02202 0.284919 0
1.98701 0.214164 0
1.94336 0.279863 0
3.82315 0.673327 0
3.78135 0.738156 0
3.86451 0.735958 0
3.70234 0.735494 0
4.52513 0.244409 0
4.32717 0.294467 0
4.29217 0.221862 0
0.619934 0.539507 0
0.599432 0.577132 0
0.575955 0.542712 0
0.554504 0.58245 0
4.65962 0.656481 0
4.69438 0.726169 0
4.6161 0.721747 0
4.77259 0.731352 0
4.65076 0.791486 0
4.57153 0.788793 0
4.2482 0.289182 0
4.21307 0.218308 0
4.1691 0.284563 0
4.13394 0.21352 0
0.835918 0.606341 0
0.806475 0.6384 0
4.08995 0.279537 0
0.640355 0.426737 0
0.596214 0.435837 0
0.630358 0.379178 0
0.689967 0.627735 0
1.90832 0.209948 0
1.86468 0.27519 0
1.82968 0.20518 0
1.78607 0.269797 0
0.281841 0.313314 0
0.232117 0.268621 0
0.216861 0.334396 0
4.05473 0.209347 0
4.01077 0.2745 0
3.97554 0.204394 0
3.93159 0.269388 0
0.297409 0.759367 0
0.231645 0.782943 0
0.180008 0.73598 0
1.32151 0.676369 0
1.38055 0.718092 0
1.36901 0.793947 0
1.43945 0.766002 0
0.249902 0.198865 0
0.932364 0.624392 0
1.75117 0.201034 0
1.70771 0.264658 0
1.673 0.195402 0
1.62985 0.260294 0
1.59532 0.191927 0
1.55236 0.254233 0
3.89629 0.200227 0
3.85238 0.264494 0
3.81708 0.195303 0
3.77304 0.259453 0
2.66368 0.189084 0
2.74279 0.19534 0
2.77814 0.264556 0
2.82201 0.199823 0
2.85733 0.269552 0
2.90126 0.203886 0
2.93654 0.274416 0
2.98045 0.20868 0
3.01573 0.279376 0
3.0597 0.213193 0
[...]
CELL_DATA 2220
VECTORS velocity double
17.8039 -1.52318 0.0
13.1532 0.443284 0.0
21.7737 5.78551 0.0
21.6858 1.1193 0.0
18.1728 -1.83792 0.0
22.4402 -0.978436 0.0
11.1612 0.426041 0.0
12.3806 -0.00851049 0.0
23.3523 10.7232 0.0
22.0429 -0.659443 0.0
15.4112 16.5106 0.0
11.7762 0.266411 0.0
9.44795 0.19549 0.0
20.5092 -6.15222 0.0
19.7963 15.4604 0.0
15.0847 10.8112 0.0
12.8396 0.535503 0.0
10.4092 0.497709 0.0
11.6646 -0.11838 0.0
12.5673 -0.0992142 0.0
18.4962 4.39235 0.0
35.9945 -6.20811 0.0
12.0327 0.543117 0.0
12.2068 0.51031 0.0
20.9626 -0.996823 0.0
18.7845 -5.06862 0.0
19.2192 -2.19833 0.0
10.5318 0.499616 0.0
21.4361 1.18428 0.0
24.1381 1.1248 0.0
16.717 -3.06913 0.0
28.7603 0.138946 0.0
8.76462 -0.106515 0.0
27.3232 -12.6254 0.0
41.7609 1.72012 0.0
22.5875 -1.10936 0.0
41.0157 2.57286 0.0
10.1666 -0.108469 0.0
25.1474 1.36813 0.0
24.5844 -1.8047 0.0
11.7742 -1.17721 0.0
23.3513 9.69697 0.0
18.2274 0.932426 0.0
11.3596 0.0311275 0.0
10.2613 -0.000603883 0.0
9.28328 0.0336959 0.0
11.8306 0.535229 0.0
9.38973 -0.00179921 0.0
21.8851 -0.562567 0.0
23.5553 0.348167 0.0
14.6537 3.44197 0.0
9.33456 0.100972 0.0
11.5651 0.555022 0.0
11.7327 0.11581 0.0
10.7752 0.468574 0.0
24.467 -2.36545 0.0
30.6796 -0.39169 0.0
9.86408 0.489871 0.0
10.218 0.488389 0.0
23.8417 0.255245 0.0
0.255246 -3.65552 0.0
21.8581 -1.5438 0.0
18.1928 -4.07812 0.0
11.8416 0.559943 0.0
11.7249 0.577837 0.0
29.4106 -11.1751 0.0
17.2096 -1.11503 0.0
17.2379 10.049 0.0
10.0078 0.561544 0.0
10.1723 0.527585 0.0
11.6271 0.165699 0.0
28.8972 11.5832 0.0
9.15592 0.157431 0.0
23.0187 0.742408 0.0
28.4969 -1.54215 0.0
41.7028 -0.3437 0.0
20.2228 4.0084 0.0
14.3213 -3.11214 0.0
21.2782 9.53071 0.0
11.0991 0.115124 0.0
20.2934 2.66016 0.0
25.1123 2.64349 0.0
13.1067 -0.244129 0.0
9.18045 0.106597 0.0
11.4577 0.419367 0.0
11.4124 0.230605 0.0
16.4 -1.87636 0.0
9.58018 0.20138 0.0
9.74195 0.342034 0.0
24.2868 11.0928 0.0
23.9717 -3.79393 0.0
14.9553 4.05069 0.0
11.7488 -0.147975 0.0
20.3001 5.47349 0.0
40.9176 0.100716 0.0
24.5026 1.94473 0.0
37.4264 4.91577 0.0
2.90167 -17.9761 0.0
1.00209 -2.89906 0.0
25.1743 13.3073 0.0
-6.3415 -18.1898 0.0
17.1564 -3.95832 0.0
11.6721 0.502577 0.0
10.0573 0.929512 0.0
37.1221 -5.79617 0.0
41.6105 -1.03857 0.0
22.8263 -0.820036 0.0
23.5655 -1.15265 0.0
3.54217 -0.0649006 0.0
11.8857 0.982122 0.0
27.2488 1.01541 0.0
23.3397 -7.76175 0.0
22.6666 -0.666417 0.0
9.77801 -0.581135 0.0
22.9929 -2.16707 0.0
9.97396 0.444791 0.0
19.128 -4.93361 0.0
16.3075 -0.43273 0.0
2.07123 -20.7095 0.0
25.503 10.2478 0.0
13.6277 -2.45967 0.0
32.4482 -0.64513 0.0
11.9019 3.0224 0.0
31.4174 -8.66841 0.0
42.1194 0.862818 0.0
9.80743 -11.3814 0.0
41.2369 -1.62804 0.0
20.7555 1.04167 0.0
21.9779 -7.27157 0.0
-3.31287 8.97185 0.0
10.0416 0.853061 0.0
32.284 4.57052 0.0
26.6667 5.90284 0.0
11.9507 3.94448 0.0
24.7347 1.44709 0.0
10.1413 4.24992 0.0
8.57039 0.00205352 0.0
16.1472 -3.40177 0.0
12.4842 -12.3476 0.0
29.757 0.522691 0.0
17.8261 -4.38808 0.0
11.1641 -0.0234479 0.0
22.6475 -2.77587 0.0
41.6308 0.501818 0.0
22.5879 0.696135 0.0
18.4911 4.8024 0.0
-10.1667 9.00563 0.0
6.42809 -18.6457 0.0
23.2963 2.10012 0.0
23.4111 -1.6363 0.0
9.99278 -0.215773 0.0
25.1844 9.12897 0.0
32.9547 -0.0128015 0.0
28.2283 -10.8257 0.0
6.33493 3.62848 0.0
12.6546 0.206364 0.0
19.7178 -1.37234 0.0
13.1077 0.346939 0.0
9.74014 -0.808455 0.0
13.4676 -3.28665 0.0
30.1052 8.50922 0.0
10.0855 0.0448577 0.0
-10.4672 -9.25513 0.0
28.8379 0.118903 0.0
9.10087 0.0931041 0.0
28.2954 -12.1846 0.0
19.2635 -14.2903 0.0
42.3794 0.403365 0.0
12.5596 0.146348 0.0
23.4738 10.9774 0.0
-5.10899 15.0975 0.0
8.99033 0.0498181 0.0
11.5636 0.0820136 0.0
-3.88179 -9.29547 0.0
4.69577 -5.03576 0.0
20.9959 8.57459 0.0
18.7847 3.98487 0.0
19.2236 7.93558 0.0
7.42771 -1.63127 0.0
12.4856 0.0737908 0.0
31.9006 -0.271026 0.0
14.3932 -3.44507 0.0
16.7561 -15.7983 0.0
2.03035 14.4819 0.0
12.643 -0.000707685 0.0
19.8397 -1.65122 0.0
41.5575 0.125602 0.0
10.2148 -0.153063 0.0
38.8812 3.83452 0.0
42.3218 0.242414 0.0
11.6297 -0.973143 0.0
9.94279 -0.175249 0.0
23.5761 -8.57426 0.0
23.3926 1.73711 0.0
19.7349 -0.442793 0.0
41.4534 -0.282238 0.0
16.7017 0.55533 0.0
11.514 -0.246364 0.0
5.75636 -0.303065 0.0
11.7737 -0.349527 0.0
10.7333 -2.22064 0.0
15.5259 -0.416083 0.0
31.8123 -10.0646 0.0
11.8365 -0.0309564 0.0
11.9948 1.36002 0.0
16.2639 -3.00948 0.0
19.3043 -3.96684 0.0
10.9524 0.052497 0.0
16.7322 0.678299 0.0
6.70539 -1.18602 0.0
11.5827 0.529433 0.0
10.394 18.6124 0.0
16.1684 -0.157034 0.0
20.2434 10.3473 0.0
20.9568 5.04688 0.0
12.6371 1.06304 0.0
9.8265 0.487801 0.0
11.6371 0.666574 0.0
8.42518 1.75594 0.0
28.9699 0.905631 0.0
22.4462 0.420124 0.0
5.75207 -0.119369 0.0
9.82396 0.621182 0.0
5.46605 -0.0290414 0.0
11.7513 -0.0206678 0.0
14.0338 -0.525692 0.0
11.787 -2.25421 0.0
18.7866 15.9587 0.0
23.0877 -5.31767 0.0
10.2418 0.347544 0.0
14.7033 0.658791 0.0
15.7002 -1.21086 0.0
8.15662 -0.0228928 0.0
12.0842 -0.0595202 0.0
10.5494 -0.245689 0.0
41.7306 0.126951 0.0
3.5492 -7.06974 0.0
11.6449 -0.177041 0.0
11.5487 -0.202554 0.0
10.339 -0.0284008 0.0
40.9521 -0.14621 0.0
32.9358 9.26519 0.0
38.9107 -3.91497 0.0
6.09664 0.00875551 0.0
11.3986 3.58406 0.0
23.1191 -0.0221175 0.0
12.6887 -0.0863396 0.0
29.3881 -0.721536 0.0
5.02736 4.40181 0.0
18.5802 0.602738 0.0
10.0748 -3.70566 0.0
6.10661 -0.0456012 0.0
17.4628 -13.816 0.0
22.0316 -0.122662 0.0
19.9477 -6.22756 0.0
11.4416 0.307324 0.0
-10.6221 1.64691 0.0
22.6057 0.134895 0.0
19.5402 -0.0715714 0.0
41.1307 0.199935 0.0
13.0295 -0.251915 0.0
33.6311 -0.410278 0.0
10.1883 0.541534 0.0
16.1514 -4.19669 0.0
5.98297 -0.49817 0.0
7.41464 -0.062772 0.0
10.9407 -0.423026 0.0
8.47332 -4.65553 0.0
16.0292 4.28848 0.0
23.3245 -0.0746781 0.0
20.9624 0.820955 0.0
21.9758 0.0332953 0.0
9.64982 0.2533 0.0
21.9859 -1.49075 0.0
1.6425 -11.5073 0.0
40.0404 -2.51412 0.0
20.1895 -14.3766 0.0
12.7414 -2.42006 0.0
11.8642 2.77188 0.0
12.477 0.0751664 0.0
8.12082 -14.8649 0.0
22.8768 -0.0448797 0.0
39.7829 -0.560636 0.0
15.9238 0.564229 0.0
21.806 -1.30459 0.0
14.6857 -0.285302 0.0
31.7611 -0.26196 0.0
15.4101 0.536629 0.0
10.0283 -0.14767 0.0
9.67355 -0.174227 0.0
-10.6133 -2.10599 0.0
11.1893 -1.01514 0.0
7.15671 1.56441 0.0
12.3641 -2.64163 0.0
13.0669 -1.41088 0.0
14.9379 -0.171667 0.0
15.1476 -0.148552 0.0
19.5828 0.328827 0.0
38.2613 -3.74724 0.0
21.7569 4.79071 0.0
9.02193 -0.447399 0.0
21.7236 7.80111 0.0
21.751 -6.57359 0.0
6.99137 0.0589539 0.0
16.3743 -11.9706 0.0
12.3803 0.488692 0.0
9.43982 -0.0340694 0.0
9.80299 -0.184537 0.0
14.9175 0.280356 0.0
6.38874 1.19492 0.0
10.3452 1.79526 0.0
6.78164 1.53003 0.0
2.96526 18.0875 0.0
39.6778 -1.43034 0.0
28.872 11.7109 0.0
11.3464 -0.191085 0.0
19.4661 6.59898 0.0
10.6603 0.0078908 0.0
41.4225 -0.223195 0.0
22.0869 5.30608 0.0
20.4083 14.3918 0.0
11.9821 2.94628 0.0
22.2335 0.164603 0.0
10.8896 0.104432 0.0
7.08656 2.60048 0.0
9.0609 -1.68192 0.0
21.9883 0.095367 0.0
21.6079 0.915091 0.0
22.8536 0.426002 0.0
8.2395 -1.74675 0.0
17.5367 -10.7239 0.0
41.1651 1.0753 0.0
14.4649 -3.75192 0.0
10.1178 -0.475522 0.0
28.482 -10.4256 0.0
40.9439 -0.381895 0.0
22.2948 -0.836216 0.0
22.2977 7.74565 0.0
32.3879 -1.00075 0.0
11.4694 -0.206096 0.0
6.63292 0.843084 0.0
10.2472 -0.206875 0.0
6.02834 -0.123251 0.0
5.20203 -0.781973 0.0
17.8995 15.9488 0.0
22.6957 9.23866 0.0
7.4431 2.00424 0.0
22.0547 6.24655 0.0
22.592 3.5189 0.0
4.37564 -0.87512 0.0
31.3326 -8.06019 0.0
3.90407 0.761232 0.0
6.00561 0.178337 0.0
11.7795 10.2079 0.0
5.8223 0.757092 0.0
41.9688 0.000201874 0.0
31.83 -9.14953 0.0
3.33949 -0.312383 0.0
21.4688 0.608611 0.0
27.9201 -0.968624 0.0
22.0219 3.65201 0.0
5.88867 18.6357 0.0
19.4344 5.78497 0.0
21.9755 4.83282 0.0
5.56748 0.257762 0.0
23.8591 0.581488 0.0
36.7695 6.52521 0.0
3.91927 -0.793732 0.0
5.86742 -0.209201 0.0
33.8002 -0.819391 0.0
4.01705 0.833015 0.0
37.6987 -4.70432 0.0
31.4697 9.65192 0.0
12.7652 -0.614715 0.0
5.28999 -0.0552939 0.0
12.0915 0.387173 0.0
16.0043 0.343259 0.0
16.1412 0.116501 0.0
41.4138 0.00160255 0.0
15.0814 -0.113986 0.0
11.6803 0.604706 0.0
40.291 0.112435 0.0
41.7773 -0.0971829 0.0
22.7197 0.243026 0.0
38.7926 0.502073 0.0
21.5642 -0.0922579 0.0
37.015 -5.14717 0.0
22.2174 0.12526 0.0
19.8829 -5.76142 0.0
22.1219 2.69269 0.0
9.69339 0.623033 0.0
20.9289 0.0446705 0.0
27.439 -0.59986 0.0
18.5157 -5.68918 0.0
8.5286 -0.694101 0.0
11.1012 -1.73672 0.0
40.8385 0.200042 0.0
8.20467 0.542141 0.0
22.2433 0.126371 0.0
39.9454 0.462957 0.0
6.82806 0.21196 0.0
22.953 3.84547 0.0
21.5746 4.18901 0.0
22.5497 0.0755329 0.0
35.9872 7.24505 0.0
39.262 4.37648 0.0
5.12462 1.93485 0.0
6.06392 0.942087 0.0
19.8329 1.11771 0.0
24.9656 -11.9242 0.0
12.3128 -13.9218 0.0
4.99528 0.833745 0.0
38.2189 0.0329821 0.0
20.8676 -5.35923 0.0
40.1506 -0.439147 0.0
22.5521 0.0817044 0.0
3.88376 -0.128254 0.0
3.55919 0.678919 0.0
23.4245 8.67161 0.0
5.80682 0.11222 0.0
22.0206 6.20066 0.0
38.2663 0.698495 0.0
3.98918 0.00170441 0.0
5.82723 -0.0399203 0.0
21.5447 3.15852 0.0
20.7178 0.306769 0.0
3.79191 0.136723 0.0
18.7891 -0.114167 0.0
22.3034 0.146686 0.0
6.35899 -0.916473 0.0
22.58 0.0942824 0.0
20.1431 3.06402 0.0
39.6501 -0.686978 0.0
22.0747 1.97201 0.0
6.40502 -0.487003 0.0
37.6008 5.38302 0.0
4.87967 -0.882432 0.0
6.2541 0.361102 0.0
15.8865 -9.45882 0.0
6.03658 0.372694 0.0
20.3347 4.00616 0.0
21.5932 2.34966 0.0
36.719 4.52163 0.0
39.8945 3.06419 0.0
10.07 -0.853149 0.0
16.7746 3.31186 0.0
40.0209 0.436555 0.0
3.44369 -0.41827 0.0
3.15005 0.424914 0.0
10.3287 -0.692885 0.0
9.75224 0.781194 0.0
22.3867 -0.486774 0.0
6.83032 -0.33306 0.0
21.8257 0.614896 0.0
22.7843 1.14635 0.0
5.71842 0.625744 0.0
11.5526 0.572394 0.0
21.6875 5.43861 0.0
6.57948 0.302171 0.0
21.8098 1.37727 0.0
19.9844 2.31566 0.0
21.292 0.291189 0.0
5.90102 -0.403781 0.0
4.58027 0.286854 0.0
7.35206 0.575413 0.0
16.294 -0.178063 0.0
8.36152 -0.730494 0.0
22.651 0.119047 0.0
3.87465 0.0755889 0.0
38.9808 2.27375 0.0
6.22665 -0.338725 0.0
3.16051 0.508506 0.0
14.1524 -1.15105 0.0
22.0261 6.85686 0.0
6.11601 -0.702905 0.0
21.2895 0.233115 0.0
21.2938 1.71543 0.0
21.4424 4.1261 0.0
22.409 0.164172 0.0
19.775 1.74123 0.0
13.0217 -1.876 0.0
29.7442 -8.74484 0.0
22.6517 -3.07304 0.0
19.5527 1.2862 0.0
6.23648 -0.534686 0.0
6.65476 0.55794 0.0
40.0397 -0.110527 0.0
2.9527 0.287329 0.0
31.335 -0.620101 0.0
14.0654 2.92593 0.0
22.5239 0.161744 0.0
3.03683 0.348821 0.0
3.54781 -0.535532 0.0
21.1072 1.20893 0.0
22.5517 8.3063 0.0
16.5637 -0.126885 0.0
27.9712 -0.851604 0.0
19.9662 0.0682241 0.0
24.7507 -0.810187 0.0
11.4558 -3.45661 0.0
20.15 -0.0842807 0.0
19.1205 2.58461 0.0
3.24542 -0.212305 0.0
19.3796 0.927073 0.0
16.4598 2.29466 0.0
10.2041 -0.407594 0.0
22.3289 0.256459 0.0
4.1219 -0.319833 0.0
4.55451 0.325978 0.0
19.3314 3.37926 0.0
20.6948 -0.107121 0.0
19.9167 -0.687509 0.0
11.9012 -0.113458 0.0
20.5488 0.597192 0.0
22.746 0.134669 0.0
20.7942 -4.01311 0.0
3.84135 0.701289 0.0
21.3522 0.413221 0.0
22.5665 -3.54781 0.0
18.7067 1.4878 0.0
18.4882 1.64887 0.0
7.29901 -1.1745 0.0
27.6634 -11.7759 0.0
5.16134 -2.5658 0.0
22.9561 -13.3872 0.0
21.1652 -0.779373 0.0
22.5508 3.95231 0.0
21.0693 0.768032 0.0
3.9738 -0.61813 0.0
19.273 0.66746 0.0
19.2205 0.966284 0.0
18.5091 1.11354 0.0
23.2038 0.0820239 0.0
18.9275 1.96392 0.0
20.8331 0.56164 0.0
23.8496 -0.646488 0.0
22.6487 -3.33046 0.0
7.80739 -1.76251 0.0
39.1534 -0.695237 0.0
9.53054 -0.102974 0.0
17.3801 -1.97618 0.0
6.80099 -3.26934 0.0
33.703 7.95098 0.0
22.8904 0.100709 0.0
2.82209 -0.233536 0.0
2.89625 0.24151 0.0
20.7317 0.400331 0.0
37.7478 0.757911 0.0
19.2295 0.499206 0.0
14.8234 2.13756 0.0
3.65111 -0.14594 0.0
5.92366 -0.216663 0.0
4.85015 0.320744 0.0
2.78396 1.02486 0.0
5.53381 -1.77976 0.0
22.0479 -4.84262 0.0
23.277 0.0710226 0.0
36.8866 5.85702 0.0
1.06219 0.569695 0.0
17.5536 -0.0421861 0.0
18.5967 -0.0442307 0.0
17.6798 -1.33991 0.0
15.904 2.70333 0.0
1.16492 -0.556012 0.0
2.96313 -0.939732 0.0
16.211 0.317385 0.0
19.1353 0.791436 0.0
18.408 0.819512 0.0
13.9668 -1.24304 0.0
20.7009 -0.0506499 0.0
42.0186 -0.277331 0.0
21.3349 -0.0464213 0.0
17.7822 2.06967 0.0
22.668 0.081672 0.0
3.72924 -0.234532 0.0
21.6324 6.88408 0.0
22.5873 0.231503 0.0
21.331 0.221669 0.0
22.3931 0.0607272 0.0
19.5227 -0.836349 0.0
3.58806 0.162896 0.0
22.6082 0.0110918 0.0
4.57642 -0.383889 0.0
10.1854 1.14175 0.0
15.5872 -0.0916699 0.0
19.2231 0.407545 0.0
18.3421 0.605903 0.0
21.7989 0.509261 0.0
22.3358 0.451381 0.0
21.9052 0.606802 0.0
2.88278 0.202231 0.0
5.44288 0.354806 0.0
4.91944 -0.234804 0.0
22.785 0.165429 0.0
20.754 0.268319 0.0
39.8008 0.547011 0.0
4.47048 0.45651 0.0
20.7817 0.0650796 0.0
20.3286 1.19396 0.0
9.41942 3.32715 0.0
21.0728 -0.0327827 0.0
2.20437 0.273923 0.0
20.3704 -0.0656963 0.0
19.6913 -0.277436 0.0
20.5789 -0.377873 0.0
15.9037 -0.203796 0.0
14.7619 -0.19604 0.0
20.1262 -0.102568 0.0
6.2249 -0.68757 0.0
41.1993 -1.21178 0.0
22.5682 0.0318981 0.0
21.6962 -0.128951 0.0
21.4254 0.232324 0.0
19.285 0.361856 0.0
11.311 0.00643361 0.0
20.8298 0.265815 0.0
23.1635 -2.13899 0.0
22.6598 0.0381038 0.0
5.81301 0.204895 0.0
19.0934 1.65162 0.0
2.34364 -0.25051 0.0
22.7917 0.300647 0.0
22.8828 0.26347 0.0
19.3917 0.347391 0.0
1.78238 0.416084 0.0
27.0448 -10.6328 0.0
22.8874 0.0632666 0.0
22.2378 0.516211 0.0
20.8174 -0.0672243 0.0
21.5495 -0.0905 0.0
21.5675 0.240505 0.0
22.7219 0.178086 0.0
22.7453 0.182247 0.0
22.836 0.128664 0.0
19.5726 0.351525 0.0
2.71695 0.144581 0.0
8.96295 0.441075 0.0
22.2869 -0.183657 0.0
17.2549 8.46273 0.0
1.89478 -0.391919 0.0
5.18325 -0.151386 0.0
21.7574 -11.8847 0.0
20.3865 1.15301 0.0
20.9714 0.277261 0.0
9.49723 -0.277466 0.0
21.4755 -0.1359 0.0
21.9007 -0.106487 0.0
15.1127 2.98802 0.0
5.07619 0.253646 0.0
2.59978 -0.154348 0.0
22.9585 -2.58042 0.0
17.8437 1.81809 0.0
20.4139 -0.854819 0.0
22.8756 0.277147 0.0
10.2329 -1.55768 0.0
21.1465 0.270636 0.0
18.3257 0.488091 0.0
22.5769 -0.0413885 0.0
2.48189 0.188271 0.0
21.7304 0.219428 0.0
22.6227 -0.00132519 0.0
2.90529 -0.0696058 0.0
19.8056 0.335658 0.0
22.6226 0.130519 0.0
22.9527 0.360817 0.0
21.9841 0.0824652 0.0
21.7964 -0.148881 0.0
22.8442 0.0258643 0.0
19.6962 -0.530488 0.0
21.9409 -0.0768658 0.0
21.8949 0.156665 0.0
21.5835 0.0454953 0.0
21.3745 -0.172587 0.0
2.77447 -0.0963213 0.0
22.0433 0.157382 0.0
21.2926 -0.19755 0.0
3.61349 0.13199 0.0
22.7841 -0.0133235 0.0
5.69193 0.242642 0.0
21.3433 0.211823 0.0
21.7164 -0.180098 0.0
22.965 0.312298 0.0
22.3516 -0.0577263 0.0
22.0154 0.0256893 0.0
22.8324 0.262134 0.0
11.1572 0.177375 0.0
20.333 0.121922 0.0
19.3153 0.6246 0.0
20.0138 0.246186 0.0
2.60618 -0.019104 0.0
22.4617 0.19415 0.0
21.5038 0.118098 0.0
18.3954 -1.67714 0.0
3.40083 -0.262472 0.0
18.4845 0.38842 0.0
3.33465 0.187601 0.0
17.7519 -1.68514 0.0
20.027 0.686252 0.0
18.6516 0.38014 0.0
20.622 -0.111186 0.0
21.2228 -0.204399 0.0
18.9133 0.379954 0.0
22.0077 -0.0575024 0.0
32.6794 9.49964 0.0
17.2459 -1.79967 0.0
21.5402 -0.023611 0.0
22.8723 0.373656 0.0
22.8472 0.355712 0.0
22.9424 0.30053 0.0
21.6518 -0.19582 0.0
23.0612 0.319629 0.0
19.264 -0.107363 0.0
23.069 0.295032 0.0
21.0207 -0.101275 0.0
20.4357 0.0380697 0.0
10.5763 0.291359 0.0
22.0932 0.11522 0.0
23.0667 0.299113 0.0
18.0791 -0.403854 0.0
22.9124 0.33126 0.0
21.5985 -0.189148 0.0
21.1643 -0.183554 0.0
2.84433 0.119789 0.0
21.6175 -0.00504732 0.0
18.3818 0.425017 0.0
23.1699 0.288672 0.0
17.1135 -0.0291588 0.0
5.9907 0.194245 0.0
20.5201 -0.0188813 0.0
22.9605 0.254995 0.0
19.4349 0.180357 0.0
18.8837 -0.109699 0.0
21.1112 -0.12903 0.0
22.9899 0.146941 0.0
21.5549 -0.153614 0.0
19.6967 0.0755169 0.0
14.1914 2.40522 0.0
22.7248 -0.05541 0.0
23.1946 0.260156 0.0
22.5213 0.435975 0.0
10.3335 -0.062487 0.0
21.6324 -0.04624 0.0
18.2249 -0.129294 0.0
3.20649 0.115979 0.0
5.55825 0.230946 0.0
21.508 -0.0918004 0.0
22.6529 0.258717 0.0
20.2371 -0.213253 0.0
21.0466 -0.053339 0.0
23.1293 0.206478 0.0
20.4683 -0.151868 0.0
20.5839 -0.0624901 0.0
20.9446 0.0218861 0.0
18.4083 -0.154411 0.0
19.9388 -0.140583 0.0
23.2702 0.213618 0.0
18.6112 -0.128398 0.0
22.9631 0.150557 0.0
20.134 -0.22368 0.0
20.7531 -0.180277 0.0
19.7872 -0.176404 0.0
18.2254 -0.185179 0.0
22.6206 0.249616 0.0
21.4387 -0.0201495 0.0
3.94611 0.131621 0.0
6.12292 0.191568 0.0
23.1502 0.0828579 0.0
22.9689 0.0216855 0.0
19.1126 0.344348 0.0
19.7535 0.0415269 0.0
19.916 -0.0483956 0.0
23.0027 0.346044 0.0
20.7825 0.0771507 0.0
22.5398 0.441188 0.0
22.0172 -0.0177788 0.0
18.0618 -0.216198 0.0
19.4264 -0.230075 0.0
19.8108 0.00216998 0.0
21.3275 0.0413899 0.0
23.296 0.168232 0.0
22.5354 -0.0820219 0.0
19.6597 -0.207593 0.0
25.227 8.15476 0.0
17.3886 -0.172075 0.0
19.54 -0.229749 0.0
17.9181 -0.244789 0.0
21.5484 0.657274 0.0
20.5717 0.0937322 0.0
21.1687 0.0737443 0.0
20.052 -0.201705 0.0
17.6035 -0.146451 0.0
19.1342 0.00835822 0.0
22.9592 0.259595 0.0
17.7676 -0.252355 0.0
19.3367 -0.180881 0.0
20.3682 0.062465 0.0
11.8772 0.147694 0.0
22.2774 0.197218 0.0
17.6012 -0.193493 0.0
10.3782 0.104675 0.0
17.2011 -0.201631 0.0
20.991 0.0634799 0.0
17.5131 -0.080268 0.0
19.2449 -0.091173 0.0
17.8563 -0.132957 0.0
2.82647 -0.0471246 0.0
5.25253 -0.0862035 0.0
11.8145 0.212529 0.0
20.2813 -0.182428 0.0
19.8889 -0.0465992 0.0
20.2198 0.00331593 0.0
20.8403 0.0158597 0.0
17.3661 0.0309869 0.0
5.96552 0.0971578 0.0
23.1002 0.19488 0.0
5.39788 -0.0911674 0.0
23.3233 0.0858098 0.0
20.1575 -0.0530798 0.0
17.0282 -0.233348 0.0
19.53 0.107459 0.0
16.8224 -0.261881 0.0
23.324 0.012363 0.0
19.2329 0.133709 0.0
2.92546 -0.0474867 0.0
5.32342 -0.0920939 0.0
19.9773 -0.136274 0.0
3.16719 0.0585351 0.0
20.7501 -0.0468504 0.0
16.6588 -0.238791 0.0
16.5225 -0.132092 0.0
18.9401 0.0906354 0.0
20.58 -0.0827761 0.0
23.159 0.0285203 0.0
18.9611 0.105066 0.0
18.7601 0.0405846 0.0
5.37156 -0.0780638 0.0
3.04168 -0.0470335 0.0
9.89997 0.174665 0.0
16.3868 -0.00591638 0.0
18.6179 0.144392 0.0
20.3435 -0.18682 0.0
18.2704 0.150509 0.0
21.2306 -0.0363671 0.0
10.1082 0.194763 0.0
17.9929 0.0923299 0.0
20.7575 -0.0918155 0.0
18.6543 -0.0100715 0.0
5.43006 0.0997932 0.0
2.75866 -0.0316183 0.0
2.32898 -0.0476695 0.0
2.96189 -0.0421591 0.0
5.35619 -0.0230363 0.0
5.70441 0.101653 0.0
2.53576 -0.0104942 0.0
2.86727 0.00268322 0.0
5.22641 -0.0837433 0.0
2.77232 -0.0328099 0.0
2.99382 -0.025612 0.0
3.17458 0.0809175 0.0
5.76919 -0.0795065 0.0
3.07945 0.053815 0.0
5.15641 -0.0553235 0.0
2.96179 0.0530592 0.0
5.49697 -0.042258 0.0
5.34192 -0.0199873 0.0
2.87657 0.101394 0.0
5.9086 0.117332 0.0
5.22388 -0.0706897 0.0
5.11305 -0.0715169 0.0
2.93922 0.155385 0.0
4.97251 -0.0378359 0.0
5.31178 0.135273 0.0
2.73048 -0.0105397 0.0
5.18227 -0.0444124 0.0
3.08466 0.0160105 0.0
2.74323 0.0633981 0.0
5.01463 -0.0951256 0.0
2.95528 0.11427 0.0
3.57156 0.0634331 0.0
2.97737 0.187737 0.0
2.52235 0.0567671 0.0
2.70793 -0.0116534 0.0
5.24432 0.0135288 0.0
2.84614 -0.0475587 0.0
2.91693 -0.0474702 0.0
3.02723 0.11973 0.0
3.06264 0.108536 0.0
2.9643 0.00286063 0.0
2.90547 0.0389123 0.0
2.48661 -0.0476026 0.0
2.80546 -0.0269256 0.0
3.48937 -0.00221873 0.0
5.84295 -0.0128207 0.0
3.03609 -0.0676433 0.0
3.61007 0.0529923 0.0
4.98404 0.115068 0.0
4.8838 -0.104929 0.0
2.78018 -0.0434479 0.0
3.04556 0.130869 0.0
2.82019 0.0264509 0.0
5.45768 0.0208869 0.0
2.66873 0.0697806 0.0
2.95543 0.0547789 0.0
2.75902 -0.0427467 0.0
5.52275 0.225041 0.0
3.39741 -0.0536135 0.0
2.44966 0.0174577 0.0
2.7722 0.013722 0.0
2.35862 0.0335423 0.0
3.04677 0.054613 0.0
3.06412 -0.0145788 0.0
4.5992 -0.0420801 0.0
2.10889 -0.0152701 0.0
5.38117 0.226818 0.0
5.55979 0.0929106 0.0
20.5497 -0.100735 0.0
20.2251 -0.0688512 0.0
21.9967 -0.095704 0.0
17.8219 0.0276756 0.0
22.9819 -0.190569 0.0
23.1062 -0.0478961 0.0
17.6988 0.0101157 0.0
23.0447 -0.195033 0.0
23.244 -0.138257 0.0
23.1065 -0.200687 0.0
23.2898 -0.0645189 0.0
18.6877 -0.00160438 0.0
20.4203 -0.055898 0.0
23.1774 -0.167871 0.0
19.8506 -0.0886103 0.0
22.8981 -0.142495 0.0
20.8929 -0.0984154 0.0
22.8622 -0.116411 0.0
21.8562 -0.148593 0.0
22.1313 -0.173105 0.0
15.625 0.0741274 0.0
22.9255 -0.208022 0.0
22.9699 -0.0817342 0.0
22.3049 -0.147744 0.0
23.0802 -0.14929 0.0