# vtk DataFile Version 3.0
Malha 2D com triângulos e temperatura
ASCII
DATASET UNSTRUCTURED_GRID

POINTS 1194 double
0 0 0
5 0 0
5 1 0
0 1 0
0.85 0.5 0
0.842388 0.538268 0
0.820711 0.570711 0
0.788268 0.592388 0
0.75 0.6 0
0.711732 0.592388 0
0.679289 0.570711 0
0.657612 0.538268 0
0.65 0.5 0
0.657612 0.461732 0
0.679289 0.429289 0
0.711732 0.407612 0
0.75 0.4 0
0.788268 0.407612 0
0.820711 0.429289 0
0.842388 0.461732 0
0.0793651 0 0
0.15873 0 0
0.238095 0 0
0.31746 0 0
0.396825 0 0
0.47619 0 0
0.555556 0 0
0.634921 0 0
0.714286 0 0
0.793651 0 0
0.873016 0 0
0.952381 0 0
1.03175 0 0
1.11111 0 0
1.19048 0 0
1.26984 0 0
1.34921 0 0
1.42857 0 0
1.50794 0 0
1.5873 0 0
1.66667 0 0
1.74603 0 0
1.8254 0 0
1.90476 0 0
1.98413 0 0
2.06349 0 0
2.14286 0 0
2.22222 0 0
2.30159 0 0
2.38095 0 0
2.46032 0 0
2.53968 0 0
2.61905 0 0
2.69841 0 0
2.77778 0 0
2.85714 0 0
2.93651 0 0
3.01587 0 0
3.09524 0 0
3.1746 0 0
3.25397 0 0
3.33333 0 0
3.4127 0 0
3.49206 0 0
3.57143 0 0
3.65079 0 0
3.73016 0 0
3.80952 0 0
3.88889 0 0
3.96825 0 0
4.04762 0 0
4.12698 0 0
4.20635 0 0
4.28571 0 0
4.36508 0 0
4.44444 0 0
4.52381 0 0
4.60317 0 0
4.68254 0 0
4.7619 0 0
4.84127 0 0
4.92063 0 0
5 0.0769231 0
5 0.153846 0
5 0.230769 0
5 0.307692 0
5 0.384615 0
5 0.461538 0
5 0.538462 0
5 0.615385 0
5 0.692308 0
5 0.769231 0
5 0.846154 0
5 0.923077 0
4.92063 1 0
4.84127 1 0
4.7619 1 0
4.68254 1 0
4.60317 1 0
4.52381 1 0
4.44444 1 0
4.36508 1 0
4.28571 1 0
4.20635 1 0
4.12698 1 0
4.04762 1 0
3.96825 1 0
3.88889 1 0
3.80952 1 0
3.73016 1 0
3.65079 1 0
3.57143 1 0
3.49206 1 0
3.4127 1 0
3.33333 1 0
3.25397 1 0
3.1746 1 0
3.09524 1 0
3.01587 1 0
2.93651 1 0
2.85714 1 0
2.77778 1 0
2.69841 1 0
2.61905 1 0
2.53968 1 0
2.46032 1 0
2.38095 1 0
2.30159 1 0
2.22222 1 0
2.14286 1 0
2.06349 1 0
1.98413 1 0
1.90476 1 0
1.8254 1 0
1.74603 1 0
1.66667 1 0
1.5873 1 0
1.50794 1 0
1.42857 1 0
1.34921 1 0
1.26984 1 0
1.19048 1 0
1.11111 1 0
1.03175 1 0
0.952381 1 0
0.873016 1 0
0.793651 1 0
0.714286 1 0
0.634921 1 0
0.555556 1 0
0.47619 1 0
0.396825 1 0
0.31746 1 0
0.238095 1 0
0.15873 1 0
0.0793651 1 0
0 0.923077 0
0 0.846154 0
0 0.769231 0
0 0.692308 0
0 0.615385 0
0 0.538462 0
0 0.461538 0
0 0.384615 0
0 0.307692 0
0 0.230769 0
0 0.153846 0
0 0.0769231 0
0.879698 0.466718 0
1.3085 0.931947 0
1.30532 0.0638546 0
4.93832 0.504275 0
0.620452 0.46964 0
3.99858 0.0669607 0
1.63721 0.934258 0
3.3751 0.0523709 0
4.3254 0.0687322 0
2.42354 0.0642082 0
2.97619 0.0687322 0
2.02101 0.0693621 0
3.68108 0.0581336 0
2.65899 0.932655 0
4.178 0.939994 0
3.21614 0.938179 0
2.25483 0.919987 0
3.53215 0.928998 0
3.84921 0.931268 0
1.69647 0.0674297 0
1.94349 0.930209 0
4.48413 0.931268 0
2.97813 0.942022 0
2.74097 0.0673855 0
0.859645 0.573263 0
0.639718 0.573116 0
0.0651563 0.652836 0
0.0635304 0.346121 0
4.56232 0.0679683 0
0.830393 0.392645 0
0.669618 0.39275 0
1.06185 0.0668897 0
0.440193 0.0680031 0
1.06474 0.93511 0
0.446074 0.935974 0
0.724697 0.630698 0
4.72268 0.931235 0
4.93065 0.267192 0
0.589836 0.936152 0
0.92338 0.0562425 0
0.590207 0.0623339 0
0.755872 0.0732784 0
0.838039 0.936714 0
4.92573 0.732039 0
0.281717 0.93783 0
0.28208 0.0811877 0
0.065248 0.503161 0
1.46076 0.0637037 0
4.72574 0.0661877 0
4.31028 0.937908 0
3.21429 0.0687322 0
1.46639 0.932632 0
3.6897 0.928155 0
2.42063 0.931268 0
3.5364 0.0691789 0
2.25998 0.0676208 0
1.78735 0.937047 0
4.01535 0.920637 0
1.85469 0.0674188 0
3.83991 0.0626292 0
3.37477 0.929368 0
2.58225 0.0657863 0
2.81746 0.932342 0
4.16667 0.0687322 0
2.11402 0.935574 0
0.0614266 0.197046 0
0.0612841 0.803003 0
4.88273 0.0644126 0
4.87774 0.933272 0
0.859645 0.426737 0
0.903081 0.436592 0
0.923672 0.473385 0
0.948706 0.439078 0
0.969155 0.479795 0
0.996593 0.439791 0
1.0202 0.484937 0
1.04667 0.440138 0
1.07382 0.489694 0
1.1034 0.440801 0
1.13169 0.49612 0
1.16603 0.445058 0
1.1931 0.504331 0
1.22956 0.450883 0
1.25923 0.506004 0
1.29683 0.453139 0
1.32923 0.510343 0
1.36603 0.454344 0
1.03276 0.530395 0
1.40063 0.516169 0
1.43576 0.454934 0
1.47042 0.520776 0
1.51069 0.46142 0
1.54422 0.526371 0
1.58547 0.465572 0
1.61942 0.531773 0
1.66033 0.468788 0
1.69546 0.536793 0
1.73713 0.472812 0
1.77239 0.541977 0
1.81532 0.478494 0
1.85006 0.547285 0
1.89327 0.483449 0
1.92802 0.55361 0
1.97142 0.488546 0
2.00623 0.558966 0
2.04984 0.493518 0
2.08483 0.564085 0
2.12847 0.498462 0
2.16353 0.569137 0
2.20719 0.503331 0
0.961579 0.391697 0
1.22451 0.565337 0
2.24238 0.574192 0
2.28611 0.508258 0
2.32134 0.579247 0
2.36519 0.513325 0
2.40036 0.584295 0
2.44425 0.51834 0
2.47944 0.589336 0
2.52334 0.523355 0
2.55853 0.594372 0
2.60245 0.52837 0
2.63764 0.599431 0
2.68159 0.533388 0
2.64637 0.462336 0
2.72553 0.467349 0
2.76076 0.538418 0
2.8047 0.47237 0
2.83993 0.543451 0
2.88387 0.477399 0
2.91911 0.548482 0
2.96305 0.482427 0
2.9983 0.553514 0
3.04224 0.487456 0
3.07749 0.558545 0
3.12143 0.492477 0
3.15668 0.563574 0
3.20063 0.497514 0
3.23588 0.568605 0
3.27983 0.502542 0
3.31508 0.573635 0
3.35903 0.507562 0
3.39428 0.578663 0
3.43823 0.5126 0
3.47348 0.583694 0
3.51744 0.517628 0
3.55268 0.588724 0
3.59664 0.522646 0
3.63189 0.593752 0
3.67585 0.527673 0
3.71109 0.598781 0
3.75505 0.532702 0
3.7903 0.60381 0
3.83426 0.537731 0
3.79901 0.466623 0
3.87821 0.471754 0
3.91346 0.542777 0
3.95742 0.476701 0
3.99267 0.547795 0
4.03662 0.481715 0
4.07187 0.552815 0
4.11582 0.486743 0
4.15106 0.55783 0
4.195 0.491782 0
4.23023 0.562843 0
4.27415 0.49682 0
4.30937 0.567866 0
4.35325 0.501915 0
4.38842 0.572845 0
4.43227 0.506997 0
4.46737 0.577575 0
4.51106 0.511995 0
4.54622 0.582183 0
1.13571 0.390292 0
4.47606 0.441361 0
4.55475 0.446396 0
2.32985 0.442214 0
3.5614 0.451571 0
3.08619 0.421408 0
2.09339 0.427815 0
1.42887 0.583001 0
2.84864 0.406329 0
3.32378 0.43649 0
4.23911 0.425894 0
1.54723 0.39251 0
1.77883 0.406811 0
1.33959 0.387065 0
3.92239 0.405803 0
4.08079 0.415776 0
2.48812 0.452349 0
1.57935 0.603183 0
1.93602 0.417543 0
1.72453 0.617973 0
3.11273 0.629643 0
2.69029 0.396284 0
3.94662 0.623383 0
1.88466 0.613248 0
2.79598 0.609502 0
4.10826 0.620575 0
2.04005 0.62838 0
2.95434 0.619575 0
4.51981 0.375801 0
4.59833 0.380943 0
4.63314 0.451296 0
4.26693 0.63114 0
2.19619 0.645921 0
4.4246 0.642296 0
3.27112 0.639707 0
2.35729 0.649822 0
2.51462 0.660373 0
3.42952 0.649769 0
4.67669 0.38601 0
3.58793 0.659829 0
3.74634 0.669888 0
4.64195 0.315733 0
4.44109 0.370647 0
4.48493 0.305066 0
4.40614 0.29989 0
4.71136 0.456133 0
4.72014 0.320758 0
0.8692 0.382093 0
0.841252 0.348256 0
0.886481 0.338703 0
0.853127 0.301457 0
0.902583 0.287335 0
0.801683 0.321689 0
0.818113 0.263019 0
0.764765 0.277091 0
4.44702 0.235678 0
0.946267 0.520761 0
0.78107 0.221265 0
0.726309 0.234724 0
0.848273 0.20551 0
4.68545 0.250576 0
4.37074 0.227561 0
4.76365 0.255792 0
4.79822 0.326145 0
0.713664 0.287231 0
0.672358 0.247957 0
0.68673 0.192342 0
0.630368 0.2085 0
0.616569 0.265341 0
0.574186 0.225456 0
0.557393 0.28131 0
0.52004 0.242373 0
0.504416 0.299685 0
0.462273 0.252096 0
0.44798 0.316739 0
0.404567 0.276951 0
0.390546 0.335414 0
0.434669 0.37657 0
0.377935 0.394545 0
0.421979 0.43426 0
0.365682 0.452846 0
0.409646 0.492216 0
0.353389 0.51089 0
0.397738 0.551598 0
0.339864 0.570301 0
0.385899 0.612153 0
0.325913 0.631557 0
0.344507 0.29318 0
0.320568 0.413067 0
0.373553 0.673852 0
0.434438 0.653082 0
0.311416 0.69481 0
0.449777 0.528305 0
0.293513 0.534612 0
0.421431 0.715204 0
0.480917 0.696603 0
0.54504 0.34471 0
0.262743 0.649913 0
0.246209 0.712341 0
0.468564 0.755948 0
0.526091 0.735423 0
0.538207 0.68039 0
0.581228 0.716342 0
0.408756 0.777952 0
0.36234 0.239019 0
0.297047 0.251925 0
0.572109 0.771575 0
0.624906 0.752173 0
0.474824 0.414151 0
0.534351 0.182707 0
0.633682 0.70159 0
0.674547 0.736174 0
0.66826 0.788959 0
0.721117 0.76834 0
0.714515 0.825486 0
0.769074 0.802008 0
0.775287 0.746591 0
0.821903 0.778625 0
0.826767 0.726064 0
0.873257 0.756032 0
0.872997 0.697261 0
0.92331 0.732304 0
0.930014 0.67838 0
0.976061 0.710612 0
0.92456 0.784469 0
0.982178 0.654421 0
1.03016 0.688004 0
1.02037 0.747059 0
1.08 0.723819 0
1.08651 0.661896 0
1.1397 0.698204 0
1.13262 0.763657 0
1.19424 0.736545 0
1.18556 0.80161 0
1.24839 0.771772 0
1.25723 0.706382 0
1.31432 0.745787 0
4.66801 0.521361 0
4.74602 0.526202 0
4.70285 0.591278 0
4.78076 0.596023 0
4.73763 0.661207 0
4.78904 0.460969 0
2.61113 0.391267 0
2.65506 0.325217 0
2.57588 0.320198 0
2.61982 0.254148 0
2.69899 0.259163 0
2.54065 0.249131 0
2.49672 0.315179 0
2.46148 0.244124 0
2.41757 0.310166 0
2.38233 0.239117 0
2.33843 0.30514 0
2.30297 0.237979 0
2.25928 0.300748 0
2.22079 0.221377 0
2.17969 0.293884 0
2.14114 0.224266 0
2.10047 0.289841 0
2.0653 0.219144 0
2.02202 0.284919 0
1.98701 0.214164 0
1.94336 0.279863 0
3.82315 0.673327 0
3.78135 0.738156 0
3.86451 0.735958 0
3.70234 0.735494 0
4.52513 0.244409 0
4.32717 0.294467 0
4.29217 0.221862 0
0.619934 0.539507 0
0.599432 0.577132 0
0.575955 0.542712 0
0.554504 0.58245 0
4.65962 0.656481 0
4.69438 0.726169 0
4.6161 0.721747 0
4.77259 0.731352 0
4.65076 0.791486 0
4.57153 0.788793 0
4.2482 0.289182 0
4.21307 0.218308 0
4.1691 0.284563 0
4.13394 0.21352 0
0.835918 0.606341 0
0.806475 0.6384 0
4.08995 0.279537 0
0.640355 0.426737 0
0.596214 0.435837 0
0.630358 0.379178 0
0.689967 0.627735 0
1.90832 0.209948 0
1.86468 0.27519 0
1.82968 0.20518 0
1.78607 0.269797 0
0.281841 0.313314 0
0.232117 0.268621 0
0.216861 0.334396 0
4.05473 0.209347 0
4.01077 0.2745 0
3.97554 0.204394 0
3.93159 0.269388 0
0.297409 0.759367 0
0.231645 0.782943 0
0.180008 0.73598 0
1.32151 0.676369 0
1.38055 0.718092 0
1.36901 0.793947 0
1.43945 0.766002 0
0.249902 0.198865 0
0.932364 0.624392 0
1.75117 0.201034 0
1.70771 0.264658 0
1.673 0.195402 0
1.62985 0.260294 0
1.59532 0.191927 0
1.55236 0.254233 0
3.89629 0.200227 0
3.85238 0.264494 0
3.81708 0.195303 0
3.77304 0.259453 0
2.66368 0.189084 0
2.74279 0.19534 0
2.77814 0.264556 0
2.82201 0.199823 0
2.85733 0.269552 0
2.90126 0.203886 0
2.93654 0.274416 0
2.98045 0.20868 0
3.01573 0.279376 0
3.0597 0.213193 0
[...]
CELL_DATA 2220
VECTORS velocity double
12.0837 -0.949886 0.0
9.20305 0.383735 0.0
17.098 4.84336 0.0
17.0316 1.06217 0.0
12.3495 -1.16727 0.0
14.0618 -0.646149 0.0
7.91082 0.37217 0.0
8.69426 0.00568652 0.0
17.0537 9.22394 0.0
13.829 -0.420068 0.0
11.6094 15.9517 0.0
8.2586 0.25831 0.0
6.73195 0.187756 0.0
15.2542 -4.81867 0.0
15.4337 14.9095 0.0
9.46039 9.65323 0.0
9.02771 0.359155 0.0
7.40729 0.405137 0.0
8.22294 -0.0998355 0.0
8.76056 -0.0770532 0.0
14.6898 3.63265 0.0
28.8342 -6.10193 0.0
8.45671 0.422492 0.0
8.56167 0.44607 0.0
12.8488 -0.770731 0.0
13.9882 -3.85174 0.0
15.3639 -1.82202 0.0
7.48001 0.441326 0.0
16.9071 1.10687 0.0
19.0275 1.02691 0.0
9.77041 -2.56665 0.0
22.2327 0.219925 0.0
6.32258 -0.0934779 0.0
21.5764 -12.0181 0.0
32.0022 1.67035 0.0
14.1831 -0.725469 0.0
31.8523 2.49874 0.0
7.20725 -0.0888628 0.0
19.5922 1.26945 0.0
19.4287 -1.48623 0.0
9.58453 -0.963866 0.0
17.049 8.1348 0.0
14.4247 0.896433 0.0
8.05638 0.0292722 0.0
7.32199 0.0503334 0.0
6.68915 0.0344048 0.0
8.31801 0.445608 0.0
6.7548 0.0091741 0.0
13.767 -0.357245 0.0
14.5241 0.154571 0.0
11.7183 2.80022 0.0
6.63679 0.0924185 0.0
8.13905 0.475572 0.0
8.1736 0.10504 0.0
7.67262 0.339967 0.0
19.3841 -1.9666 0.0
23.6968 -0.252779 0.0
7.03176 0.41738 0.0
7.27794 0.419567 0.0
14.7102 0.0892403 0.0
0.535738 -2.08604 0.0
13.5277 -1.14727 0.0
10.9955 -3.34817 0.0
8.31673 0.489123 0.0
8.24575 0.455762 0.0
23.0514 -10.4342 0.0
13.8483 -1.0413 0.0
11.1459 8.77218 0.0
7.14798 0.446244 0.0
7.23977 0.463561 0.0
8.10674 0.154651 0.0
22.8047 10.9462 0.0
6.51549 0.14845 0.0
14.3576 0.428874 0.0
25.6956 -1.58289 0.0
30.9262 -0.341575 0.0
12.5892 3.11694 0.0
10.7179 -2.23546 0.0
14.6866 7.97935 0.0
7.85446 0.114803 0.0
16.1958 2.24346 0.0
19.8946 2.23786 0.0
10.7543 -0.230687 0.0
6.60009 0.107758 0.0
8.08292 0.372174 0.0
8.05177 0.212333 0.0
11.3953 -1.20648 0.0
6.86057 0.189747 0.0
6.96397 0.307663 0.0
18.0514 9.67966 0.0
23.2723 -3.90845 0.0
11.5463 3.14017 0.0
8.23298 -0.122876 0.0
14.5638 4.06752 0.0
30.0686 0.0877355 0.0
19.4207 1.63359 0.0
30.2054 4.86508 0.0
0.817894 -17.5975 0.0
1.26112 -1.74934 0.0
19.6637 12.5909 0.0
-7.31857 -17.9289 0.0
12.5711 -2.85876 0.0
8.2141 0.435933 0.0
7.28842 0.664764 0.0
29.3116 -5.5969 0.0
31.334 -1.01191 0.0
14.153 -0.551721 0.0
14.6129 -0.801967 0.0
2.68032 -0.0436508 0.0
8.46406 0.69944 0.0
21.0391 0.917672 0.0
17.6529 -6.41478 0.0
14.0503 -0.436824 0.0
8.09372 -0.541521 0.0
14.4323 -1.52516 0.0
7.11682 0.394496 0.0
13.991 -3.6693 0.0
13.2007 -0.405441 0.0
1.02687 -20.6424 0.0
19.3102 8.90251 0.0
10.0479 -1.70472 0.0
23.9968 -0.568486 0.0
9.37257 2.35018 0.0
26.0199 -8.63393 0.0
31.7021 0.824938 0.0
5.18799 -10.5394 0.0
31.5445 -1.60322 0.0
16.6621 0.961014 0.0
15.9878 -5.78045 0.0
-5.96049 8.54281 0.0
7.46159 0.347749 0.0
27.5997 4.63631 0.0
24.3141 6.04071 0.0
8.70267 1.63416 0.0
19.4063 1.33679 0.0
7.81789 1.87312 0.0
6.21025 0.00827055 0.0
12.9105 -2.74986 0.0
7.6034 -11.3939 0.0
22.8222 0.552459 0.0
14.0618 -3.54413 0.0
7.92693 -0.0139426 0.0
14.2973 -1.99187 0.0
31.1719 0.452005 0.0
14.139 0.401502 0.0
13.5489 3.56046 0.0
-11.6162 8.70513 0.0
4.26569 -18.3461 0.0
14.914 1.36953 0.0
14.5955 -1.11508 0.0
7.2107 -0.0842639 0.0
19.203 7.80278 0.0
24.3348 -0.00432949 0.0
23.6274 -10.7862 0.0
5.55022 1.81904 0.0
8.95107 0.172481 0.0
15.8314 -1.27859 0.0
9.20728 0.292744 0.0
8.52144 -0.764206 0.0
10.5014 -2.52391 0.0
25.6288 8.55987 0.0
7.23965 0.0409757 0.0
-11.8323 -8.9762 0.0
22.3352 0.0202827 0.0
6.50455 0.0853292 0.0
22.6341 -11.7447 0.0
14.0642 -13.3136 0.0
31.8423 0.403287 0.0
8.87818 0.118029 0.0
21.2419 11.1553 0.0
-6.71701 14.7013 0.0
6.51188 0.0620329 0.0
8.11476 0.0733509 0.0
-6.37364 -8.90076 0.0
0.349479 -4.65599 0.0
14.1876 7.05204 0.0
11.4638 3.19749 0.0
12.4451 6.60423 0.0
5.95179 -1.25061 0.0
8.82994 0.0678422 0.0
23.6564 -0.238464 0.0
11.396 -2.72752 0.0
15.8426 -16.0547 0.0
-0.817956 13.8859 0.0
8.88094 0.0124545 0.0
12.0493 -1.30798 0.0
31.8663 0.125595 0.0
7.29374 -0.0557035 0.0
31.0059 3.78872 0.0
31.7866 0.242672 0.0
10.0318 -0.917495 0.0
7.0826 -0.150065 0.0
17.5293 -7.12483 0.0
14.9086 1.1086 0.0
15.5997 -0.456907 0.0
31.8195 -0.282532 0.0
11.2036 0.367699 0.0
8.16101 -0.0924715 0.0
4.79121 -0.284719 0.0
8.37027 -0.169941 0.0
7.40099 -0.635548 0.0
10.6024 -0.126852 0.0
25.366 -9.64875 0.0
8.33601 0.04211 0.0
9.77084 1.13404 0.0
11.7231 -2.08168 0.0
15.3737 -3.2542 0.0
7.80651 0.0699771 0.0
11.4013 0.258377 0.0
5.18982 -0.834546 0.0
8.14345 0.434077 0.0
8.42848 18.5129 0.0
10.8567 -0.118793 0.0
13.8822 8.88292 0.0
13.3624 3.89634 0.0
9.13112 0.42505 0.0
7.00714 0.399115 0.0
8.22246 0.50956 0.0
6.87773 1.42101 0.0
25.995 0.932869 0.0
13.9922 0.224105 0.0
4.26172 -0.0692594 0.0
7.04914 0.473054 0.0
4.06507 -0.00681438 0.0
8.28832 0.028376 0.0
9.79718 -0.181414 0.0
8.86908 -1.58223 0.0
15.0589 15.6291 0.0
18.1863 -4.44486 0.0
8.29819 0.354921 0.0
10.2677 0.272184 0.0
10.8431 -0.743508 0.0
5.95376 -0.00793415 0.0
8.51584 -0.00127153 0.0
8.54313 -0.251487 0.0
30.461 0.131152 0.0
-0.438763 -6.59785 0.0
8.17914 -0.148566 0.0
8.12161 -0.171794 0.0
7.40175 -0.00350864 0.0
30.3527 -0.157641 0.0
26.4927 8.97129 0.0
30.1608 -3.70723 0.0
4.55245 0.0174715 0.0
8.70875 1.6097 0.0
14.1623 -0.055776 0.0
8.88014 0.00117543 0.0
22.1088 -0.642593 0.0
4.58004 2.19476 0.0
14.7146 0.618269 0.0
7.83669 -1.59821 0.0
4.5553 -0.0351044 0.0
12.2752 -12.7819 0.0
13.8606 -0.0825361 0.0
12.7343 -5.04518 0.0
8.06912 0.275809 0.0
-12.2894 1.57554 0.0
13.9766 0.0473098 0.0
15.4946 0.0230192 0.0
29.9553 0.184649 0.0
9.06514 -0.217833 0.0
24.7121 -0.355547 0.0
8.27185 0.520716 0.0
12.5669 -3.29494 0.0
4.4779 -0.312905 0.0
6.28002 -0.0558672 0.0
7.88796 -0.158815 0.0
3.36616 -4.22164 0.0
12.6331 3.45713 0.0
14.2518 -0.0912622 0.0
13.4373 0.507012 0.0
14.0477 0.0292775 0.0
6.9021 0.231698 0.0
14.0718 -0.955989 0.0
-1.55608 -10.9429 0.0
30.6591 -2.36959 0.0
17.8749 -14.4914 0.0
6.64159 -2.11814 0.0
9.09773 2.05186 0.0
10.255 0.0668732 0.0
4.46417 -14.1551 0.0
17.9899 -0.108983 0.0
29.8118 -0.493763 0.0
10.8167 0.354464 0.0
13.9245 -0.840527 0.0
10.0826 -0.0805964 0.0
24.3619 -0.324507 0.0
10.4611 0.382616 0.0
7.13193 -0.12496 0.0
6.91303 -0.148842 0.0
-12.2734 -2.02995 0.0
8.0834 -0.637698 0.0
5.63021 1.16405 0.0
8.66568 -0.874685 0.0
9.34752 -0.902981 0.0
10.1631 -0.134219 0.0
10.2753 -0.115324 0.0
15.5817 0.296984 0.0
29.5909 -3.46581 0.0
14.0073 3.58679 0.0
6.68212 -0.1688 0.0
14.77 6.23246 0.0
16.6216 -5.3396 0.0
5.93268 0.0549918 0.0
10.8371 -10.8304 0.0
8.79619 0.287956 0.0
6.78724 0.00293256 0.0
6.99321 -0.158424 0.0
12.1437 0.257471 0.0
4.96396 0.857953 0.0
8.4522 1.48725 0.0
4.40486 0.403931 0.0
0.902687 17.7022 0.0
30.0593 -1.30106 0.0
23.0487 11.2385 0.0
8.00224 -0.161497 0.0
12.4 5.37386 0.0
8.64291 0.0559698 0.0
30.2503 -0.197857 0.0
14.5189 3.94538 0.0
17.9578 14.4854 0.0
9.54133 2.32725 0.0
13.8179 0.0737312 0.0
8.84525 0.0543924 0.0
4.7235 0.808066 0.0
7.40508 -1.34823 0.0
14.0653 0.0871887 0.0
13.7713 0.559989 0.0
14.1798 0.221535 0.0
6.67995 -1.37312 0.0
11.5625 -9.49432 0.0
31.142 0.973819 0.0
8.06726 -3.23725 0.0
8.24302 -0.452013 0.0
22.051 -9.41485 0.0
30.0962 -0.362419 0.0
17.4821 -0.816313 0.0
15.6077 6.12147 0.0
24.0702 -0.889391 0.0
8.07445 -0.174811 0.0
5.47854 0.695738 0.0
7.30513 -0.180988 0.0
4.95188 -0.0822368 0.0
4.31255 -0.628011 0.0
15.4749 15.9813 0.0
16.2145 7.62676 0.0
6.09811 0.957229 0.0
15.1274 4.70323 0.0
14.7811 2.41193 0.0
3.5783 -0.676089 0.0
24.482 -7.24496 0.0
3.22535 0.604308 0.0
4.95073 0.136999 0.0
6.59555 9.23834 0.0
4.43143 0.530235 0.0
30.7506 0.0143787 0.0
24.9373 -8.42296 0.0
2.56074 -0.202181 0.0
13.6095 0.360643 0.0
21.5128 -0.94327 0.0
14.6875 2.4848 0.0
3.76086 18.3154 0.0
15.0454 4.69328 0.0
14.8272 3.45378 0.0
4.57577 0.252694 0.0
14.8282 0.316833 0.0
29.3912 6.32532 0.0
3.16345 -0.599039 0.0
4.82836 -0.203125 0.0
24.89 -0.726494 0.0
3.246 0.627869 0.0
29.9453 -4.63469 0.0
24.7037 8.93719 0.0
9.02612 -0.354975 0.0
3.90998 -0.047781 0.0
10.0231 0.360864 0.0
10.9519 0.281763 0.0
10.9485 0.110096 0.0
30.1196 0.0163603 0.0
10.3113 -0.0964529 0.0
9.51703 0.486736 0.0
29.7345 0.108934 0.0
30.7423 -0.0859972 0.0
14.0632 0.110054 0.0
28.5922 0.473298 0.0
13.6719 -0.0568574 0.0
28.8599 -4.77396 0.0
13.8056 0.0579915 0.0
15.1503 -4.5762 0.0
14.5765 1.76107 0.0
7.99752 0.585265 0.0
13.548 0.0417936 0.0
20.8615 -0.544263 0.0
11.4592 -4.70271 0.0
7.25779 -0.654164 0.0
8.25158 -1.18168 0.0
29.6292 0.19463 0.0
6.97927 0.506048 0.0
13.8261 0.0701153 0.0
29.1068 0.427069 0.0
5.84053 0.199077 0.0
18.2351 3.27004 0.0
14.6153 2.91238 0.0
13.9419 0.0283843 0.0
28.7127 6.982 0.0
30.6642 4.12878 0.0
4.50184 0.975468 0.0
4.6572 0.659596 0.0
15.8323 0.91321 0.0
18.8365 -10.736 0.0
7.80644 -13.0313 0.0
4.13447 0.675783 0.0
28.5588 0.0690443 0.0
13.3542 -4.19885 0.0
29.1598 -0.394013 0.0
13.9366 0.0216461 0.0
3.4319 -0.119136 0.0
2.82987 0.495917 0.0
17.4837 7.18788 0.0
4.76669 0.125454 0.0
14.749 4.70987 0.0
27.9593 0.638593 0.0
3.47267 0.00243646 0.0
4.78714 -0.0532639 0.0
14.4219 2.10311 0.0
13.1764 0.188654 0.0
3.34856 0.128971 0.0
12.4018 -0.0958607 0.0
13.87 0.094588 0.0
4.87234 -0.623974 0.0
13.9693 0.0513744 0.0
13.777 2.04425 0.0
29.0151 -0.636425 0.0
14.3703 1.27198 0.0
5.63094 -0.463553 0.0
30.168 5.28071 0.0
4.0266 -0.695244 0.0
5.51864 0.340134 0.0
9.91166 -8.34986 0.0
5.00906 0.354296 0.0
14.0906 2.78067 0.0
14.2674 1.5257 0.0
28.5852 4.10883 0.0
30.8172 2.84418 0.0
8.71002 -0.80508 0.0
13.4431 2.75642 0.0
29.0463 0.405491 0.0
2.67204 -0.280203 0.0
2.45219 0.297758 0.0
7.64267 -0.266892 0.0
8.56701 0.740314 0.0
13.9409 -0.321293 0.0
5.92761 -0.311423 0.0
17.247 0.560529 0.0
14.4106 0.705357 0.0
4.30897 0.446003 0.0
9.72633 0.533983 0.0
14.9128 3.97345 0.0
5.70653 0.283391 0.0
14.0395 0.873233 0.0
13.5034 1.50891 0.0
13.4359 0.167012 0.0
5.01888 -0.37887 0.0
3.89324 0.268679 0.0
6.06284 0.475544 0.0
10.9729 -0.0134729 0.0
6.39909 -0.296181 0.0
14.0241 0.0768278 0.0
3.38914 0.0715212 0.0
29.9429 2.03737 0.0
4.6257 -0.192094 0.0
2.48556 0.360309 0.0
11.8916 -1.07705 0.0
15.4344 5.2678 0.0
4.62908 -0.466423 0.0
13.4242 0.138284 0.0
13.9267 1.10187 0.0
17.0427 3.46924 0.0
13.9471 0.114134 0.0
13.2081 1.12886 0.0
9.48126 -1.25872 0.0
23.1582 -7.79582 0.0
14.6236 -2.08909 0.0
12.9187 0.83486 0.0
5.4941 -0.507765 0.0
5.85896 0.530514 0.0
28.9617 -0.0849256 0.0
2.25885 0.209912 0.0
23.9835 -0.634799 0.0
10.2056 1.25467 0.0
14.0293 0.114747 0.0
2.34241 0.248406 0.0
2.78124 -0.370199 0.0
13.6422 0.765017 0.0
16.1174 6.68322 0.0
11.2082 -0.109754 0.0
21.2639 -0.75575 0.0
13.126 0.0632938 0.0
19.2209 -0.721352 0.0
8.51939 -1.37597 0.0
12.9623 -0.0722492 0.0
13.1402 1.70639 0.0
2.46782 -0.128454 0.0
12.7057 0.600843 0.0
11.0964 0.839851 0.0
7.33109 -0.223852 0.0
13.891 0.125359 0.0
3.61128 -0.302361 0.0
3.99085 0.307673 0.0
13.4525 2.302 0.0
13.212 -0.0900874 0.0
12.9462 -0.420833 0.0
8.38681 -0.0996103 0.0
13.1671 0.200119 0.0
14.0978 0.0929308 0.0
13.0323 -3.10374 0.0
3.21344 0.319959 0.0
13.501 0.239529 0.0
14.6278 -2.47323 0.0
12.5648 0.972752 0.0
12.2054 0.591728 0.0
5.87469 -0.536911 0.0
21.4569 -10.8715 0.0
4.64998 -1.35934 0.0
17.2609 -12.3535 0.0
13.5028 -0.49368 0.0
14.6842 2.78768 0.0
13.4649 0.27169 0.0
3.32011 -0.290342 0.0
12.5802 0.431698 0.0
12.4684 0.325712 0.0
12.3178 0.73568 0.0
14.2922 0.0599529 0.0
12.8551 1.27972 0.0
13.3019 0.340488 0.0
18.5354 -0.594414 0.0
18.0342 -2.79155 0.0
6.37978 -0.842434 0.0
28.5104 -0.632528 0.0
6.81131 -0.0885067 0.0
11.9041 -0.743075 0.0
5.87106 -1.65397 0.0
26.4671 7.33867 0.0
14.1827 0.068658 0.0
2.56195 -0.223714 0.0
2.63053 0.231962 0.0
13.2084 0.241768 0.0
27.7383 0.697261 0.0
12.5102 0.326471 0.0
9.9348 0.727412 0.0
2.76719 -0.0749866 0.0
4.40506 -0.116259 0.0
3.75116 0.143017 0.0
2.55415 0.526849 0.0
4.81678 -0.914733 0.0
14.3913 -3.59362 0.0
14.3235 0.0520889 0.0
28.9109 5.45344 0.0
1.09235 0.313327 0.0
11.6742 -0.0321886 0.0
12.2115 -0.0361039 0.0
11.6683 -0.439129 0.0
11.1137 1.09538 0.0
1.17802 -0.322513 0.0
2.69274 -0.502915 0.0
11.0864 0.260252 0.0
15.3863 0.731209 0.0
12.1756 0.544588 0.0
10.0253 -0.486414 0.0
13.2254 -0.0321412 0.0
31.2073 -0.277834 0.0
13.5221 -0.0311983 0.0
12.0629 0.806351 0.0
14.0909 0.050788 0.0
3.33391 -0.223654 0.0
14.4319 5.39454 0.0
14.0289 0.117222 0.0
13.448 0.142682 0.0
13.9669 0.0438686 0.0
12.6431 -0.282227 0.0
3.21675 0.15346 0.0
13.9809 0.0621943 0.0
3.63046 -0.159665 0.0
7.44811 0.797198 0.0
10.5785 0.0221858 0.0
12.481 0.275838 0.0
12.0861 0.404268 0.0
13.7709 0.185063 0.0
13.9592 0.188392 0.0
13.8201 0.228984 0.0
2.18279 0.158064 0.0
4.03551 0.278161 0.0
3.77724 -0.0919437 0.0
14.0008 0.149625 0.0
13.19 0.173872 0.0
30.0383 0.443667 0.0
3.55209 0.19157 0.0
13.2493 0.0203671 0.0
13.1896 0.432725 0.0
7.53636 1.56988 0.0
13.346 -0.0127806 0.0
1.834 0.117054 0.0
13.0005 -0.0415763 0.0
12.6617 -0.0905782 0.0
13.2285 -0.210768 0.0
10.7188 -0.159007 0.0
10.0642 -0.155648 0.0
12.8519 -0.0709642 0.0
5.14705 -0.557951 0.0
31.0557 -1.15986 0.0
13.9328 0.0868575 0.0
13.6301 -0.10899 0.0
13.5073 0.161718 0.0
12.5068 0.255138 0.0
8.03296 0.0175005 0.0
13.2342 0.184291 0.0
14.5611 -1.46469 0.0
14.0472 0.0201552 0.0
4.31497 0.139175 0.0
12.6175 0.612281 0.0
1.94813 -0.111076 0.0
14.0541 0.17634 0.0
14.015 0.208714 0.0
12.5654 0.255366 0.0
1.59212 0.199179 0.0
20.7286 -9.48338 0.0
14.1516 0.0415109 0.0
13.9098 0.223601 0.0
13.1761 -0.0399743 0.0
13.6275 -0.0296448 0.0
13.6059 0.175293 0.0
13.9584 0.167094 0.0
14.0516 0.119029 0.0
14.1596 0.0899376 0.0
12.681 0.268888 0.0
2.13122 0.0697074 0.0
6.62056 0.213409 0.0
13.8814 -0.0230792 0.0
10.8682 7.25198 0.0
1.68718 -0.198592 0.0
3.89541 -0.0648771 0.0
15.6744 -10.5598 0.0
13.2387 0.424073 0.0
13.3259 0.2034 0.0
6.88601 -0.108806 0.0
13.4283 -0.0909516 0.0
13.6022 -0.0666386 0.0
10.5405 1.18158 0.0
3.87877 0.133787 0.0
2.07108 -0.0619732 0.0
14.6145 -1.74867 0.0
12.1182 0.714194 0.0
13.1445 -0.295498 0.0
14.052 0.186872 0.0
8.38096 -1.27656 0.0
13.4483 0.20327 0.0
12.0399 0.33658 0.0
13.9308 -0.0286969 0.0
1.98562 0.0799159 0.0
13.7184 0.160294 0.0
13.9872 -0.00434138 0.0
2.21273 -0.035947 0.0
12.844 0.261286 0.0
14.0876 0.0897464 0.0
14.0486 0.256156 0.0
13.8342 0.045025 0.0
13.5609 -0.0993591 0.0
14.0897 0.0171831 0.0
12.8342 -0.307337 0.0
13.7511 -0.0757688 0.0
13.8129 0.106788 0.0
13.6517 0.013458 0.0
13.3935 -0.119343 0.0
2.15098 -0.0385793 0.0
13.8458 0.0648993 0.0
13.373 -0.139066 0.0
2.75512 0.0863187 0.0
14.0225 -0.00729797 0.0
4.2864 0.151088 0.0
13.5773 0.153054 0.0
13.5384 -0.123279 0.0
14.0495 0.239633 0.0
13.9274 -0.062924 0.0
13.8041 0.0033149 0.0
13.9935 0.214345 0.0
7.89396 0.169432 0.0
13.1501 0.0716685 0.0
12.6707 0.264405 0.0
13.0026 0.182017 0.0
1.98636 -0.0116289 0.0
13.8543 0.181321 0.0
13.6532 0.0713692 0.0
12.2981 -0.592913 0.0
3.08768 -0.252063 0.0
12.1094 0.287886 0.0
3.04018 0.178319 0.0
12.0894 -0.637597 0.0
13.018 0.268668 0.0
12.2071 0.291347 0.0
13.0686 -0.0753694 0.0
13.3614 -0.145176 0.0
12.3826 0.299859 0.0
13.7209 -0.0464426 0.0
26.0479 9.08136 0.0
11.6022 -0.595379 0.0
13.5284 0.00273299 0.0
14.0282 0.260197 0.0
14.0327 0.228249 0.0
14.0542 0.237543 0.0
13.527 -0.13562 0.0
14.1158 0.24533 0.0
12.5719 -0.0872992 0.0
14.1579 0.216968 0.0
13.2497 -0.0535466 0.0
13.1563 0.00359516 0.0
7.58409 0.25121 0.0
13.7106 0.14374 0.0
14.1447 0.237066 0.0
12.0368 -0.209444 0.0
14.0741 0.23548 0.0
13.5234 -0.130653 0.0
13.3575 -0.128946 0.0
2.2025 0.0683248 0.0
13.6205 -0.0204613 0.0
12.0563 0.305214 0.0
14.2071 0.224871 0.0
11.4188 0.0560623 0.0
4.42992 0.167686 0.0
13.1494 -0.0359135 0.0
14.1349 0.182537 0.0
12.737 0.122073 0.0
12.3014 -0.0850003 0.0
13.3537 -0.0841647 0.0
14.1842 0.100631 0.0
13.5244 -0.102231 0.0
12.8364 0.0325898 0.0
10.2772 1.03363 0.0
13.9657 -0.0342733 0.0
14.2532 0.21024 0.0
13.9801 0.217597 0.0
7.39369 -0.0515637 0.0
13.5878 -0.0443258 0.0
12.0047 -0.107199 0.0
2.41477 0.101259 0.0
4.10048 0.202239 0.0
13.5184 -0.0520066 0.0
14.0299 0.221035 0.0
12.9204 -0.156818 0.0
13.3345 -0.021736 0.0
14.228 0.15153 0.0
12.9995 -0.107385 0.0
13.1434 -0.0617178 0.0
13.2836 0.0393552 0.0
12.0243 -0.116539 0.0
12.7577 -0.100791 0.0
14.3035 0.168204 0.0
12.1318 -0.0974445 0.0
14.3167 0.135823 0.0
12.8931 -0.166958 0.0
13.1574 -0.126751 0.0
12.6935 -0.128935 0.0
11.9388 -0.140799 0.0
13.9375 0.210717 0.0
13.4907 0.00577275 0.0
2.98249 0.116237 0.0
4.55454 0.169128 0.0
14.2678 0.0528085 0.0
14.1906 0.000620314 0.0
12.5399 0.273485 0.0
12.7657 0.0558027 0.0
12.8529 -0.0567909 0.0
14.0906 0.25043 0.0
13.1886 0.0825163 0.0
13.9396 0.254728 0.0
13.7605 -0.0235743 0.0
11.8677 -0.167002 0.0
12.5761 -0.176911 0.0
12.8414 -0.0239649 0.0
13.4302 0.0540429 0.0
14.3532 0.136893 0.0
13.8875 -0.0540849 0.0
12.6467 -0.154371 0.0
19.4713 6.94706 0.0
11.5017 -0.132728 0.0
12.6075 -0.174213 0.0
11.8088 -0.193809 0.0
13.6643 0.263552 0.0
13.0595 0.0912638 0.0
13.3351 0.0764405 0.0
12.8799 -0.149883 0.0
11.6129 -0.113338 0.0
12.4811 0.0280778 0.0
14.1814 0.220212 0.0
11.7552 -0.203903 0.0
12.5602 -0.135282 0.0
12.9373 0.0572521 0.0
8.47913 0.140817 0.0
13.7924 0.181817 0.0
11.6995 -0.152562 0.0
7.4826 0.0987588 0.0
11.412 -0.15701 0.0
13.2272 0.0611343 0.0
11.6697 -0.0506713 0.0
12.5332 -0.057462 0.0
11.7601 -0.105898 0.0
2.13502 -0.041531 0.0
3.89018 -0.0761506 0.0
8.40247 0.205407 0.0
12.9373 -0.124997 0.0
12.8368 -0.0181083 0.0
12.8598 -0.000545046 0.0
13.1422 0.0132585 0.0
11.5932 0.0473434 0.0
4.4512 0.0937104 0.0
14.3157 0.169763 0.0
3.98286 -0.0785181 0.0
14.3655 0.0621137 0.0
12.8556 -0.0538482 0.0
11.332 -0.185653 0.0
12.6311 0.109522 0.0
11.2387 -0.214651 0.0
14.3906 0.00121665 0.0
12.4444 0.127689 0.0
2.20303 -0.0407948 0.0
3.93277 -0.0789945 0.0
12.8676 -0.0943951 0.0
2.41118 0.0566217 0.0
13.1074 -0.0467315 0.0
11.1824 -0.196558 0.0
11.1325 -0.0991033 0.0
12.3676 0.0970483 0.0
13.0595 -0.0394726 0.0
14.3875 0.020648 0.0
12.2739 0.0959625 0.0
12.1636 0.0324671 0.0
3.96116 -0.0667995 0.0
2.28815 -0.0405808 0.0
7.15513 0.168491 0.0
11.0639 0.0149499 0.0
12.1662 0.140583 0.0
12.9531 -0.134949 0.0
11.9453 0.141045 0.0
13.4186 -0.0114522 0.0
7.27343 0.188191 0.0
11.772 0.0819185 0.0
13.1559 -0.0887853 0.0
12.1386 -0.0153887 0.0
4.04848 0.0962933 0.0
2.08336 -0.0261356 0.0
1.76771 -0.0426135 0.0
2.22324 -0.0366247 0.0
3.98233 -0.0178608 0.0
4.24974 0.0909959 0.0
1.93169 -0.00796872 0.0
2.18124 0.00487718 0.0
3.87272 -0.0763022 0.0
2.09855 -0.0318228 0.0
2.26011 -0.0225267 0.0
2.41132 0.0710999 0.0
4.23445 -0.0690782 0.0
2.32593 0.0513931 0.0
3.81516 -0.0451625 0.0
2.24572 0.0510584 0.0
4.07392 -0.0367738 0.0
3.96848 0.0143759 0.0
2.16765 0.0936359 0.0
4.40331 0.100872 0.0
3.87222 -0.0666306 0.0
3.78665 -0.0601283 0.0
2.21032 0.133868 0.0
3.70978 -0.0308732 0.0
3.9415 0.133394 0.0
2.07671 0.00913891 0.0
3.84862 -0.0444434 0.0
2.32623 0.0267394 0.0
2.08425 0.0631224 0.0
3.71619 -0.0830786 0.0
2.2268 0.0989183 0.0
2.7139 0.0554162 0.0
2.24875 0.153012 0.0
1.92516 0.0578863 0.0
2.0543 -0.0128757 0.0
3.90305 0.00879331 0.0
2.15069 -0.0430455 0.0
2.19928 -0.040683 0.0
2.28121 0.0989158 0.0
2.31328 0.0804782 0.0
2.23936 0.0181204 0.0
2.17931 0.0362338 0.0
1.88098 -0.0419244 0.0
2.11667 -0.0220646 0.0
2.63842 0.000954942 0.0
4.32338 -0.00742051 0.0
2.30598 -0.0250216 0.0
2.74285 0.0511357 0.0
3.72258 0.115983 0.0
3.62353 -0.0931863 0.0
2.10202 -0.0405551 0.0
2.29074 0.114756 0.0
2.14281 0.0226452 0.0
4.03685 0.0452551 0.0
2.01437 0.0674211 0.0
2.23391 0.0531932 0.0
2.08487 -0.0366824 0.0
4.07917 0.179089 0.0
2.55867 -0.0482174 0.0
1.86558 0.0182142 0.0
2.10806 0.0178266 0.0
1.78786 0.0339573 0.0
2.31768 0.052711 0.0
2.31447 -0.0118073 0.0
3.44799 -0.036609 0.0
1.60652 -0.0126816 0.0
3.97715 0.192998 0.0
4.1196 0.0889139 0.0
13.1534 -0.0801797 0.0
12.9601 -0.0675237 0.0
13.6911 -0.0687251 0.0
11.6981 0.0193024 0.0
14.0907 -0.170256 0.0
14.2495 -0.0554465 0.0
11.6804 0.00433522 0.0
14.1436 -0.175624 0.0
14.3211 -0.132488 0.0
14.1964 -0.184388 0.0
14.3473 -0.0679688 0.0
12.2382 -0.00487749 0.0
13.1731 -0.0551942 0.0
14.2534 -0.156442 0.0
12.841 -0.067948 0.0
14.0274 -0.122812 0.0
13.3154 -0.0948013 0.0
14.0163 -0.0963673 0.0
13.7191 -0.140368 0.0