# vtk DataFile Version 3.0
Malha 2D com triângulos e temperatura
ASCII
DATASET UNSTRUCTURED_GRID

POINTS 1194 double
0 0 0
5 0 0
5 1 0
0 1 0
0.85 0.5 0
0.842388 0.538268 0
0.820711 0.570711 0
0.788268 0.592388 0
0.75 0.6 0
0.711732 0.592388 0
0.679289 0.570711 0
0.657612 0.538268 0
0.65 0.5 0
0.657612 0.461732 0
0.679289 0.429289 0
0.711732 0.407612 0
0.75 0.4 0
0.788268 0.407612 0
0.820711 0.429289 0
0.842388 0.461732 0
0.0793651 0 0
0.15873 0 0
0.238095 0 0
0.31746 0 0
0.396825 0 0
0.47619 0 0
0.555556 0 0
0.634921 0 0
0.714286 0 0
0.793651 0 0
0.873016 0 0
0.952381 0 0
1.03175 0 0
1.11111 0 0
1.19048 0 0
1.26984 0 0
1.34921 0 0
1.42857 0 0
1.50794 0 0
1.5873 0 0
1.66667 0 0
1.74603 0 0
1.8254 0 0
1.90476 0 0
1.98413 0 0
2.06349 0 0
2.14286 0 0
2.22222 0 0
2.30159 0 0
2.38095 0 0
2.46032 0 0
2.53968 0 0
2.61905 0 0
2.69841 0 0
2.77778 0 0
2.85714 0 0
2.93651 0 0
3.01587 0 0
3.09524 0 0
3.1746 0 0
3.25397 0 0
3.33333 0 0
3.4127 0 0
3.49206 0 0
3.57143 0 0
3.65079 0 0
3.73016 0 0
3.80952 0 0
3.88889 0 0
3.96825 0 0
4.04762 0 0
4.12698 0 0
4.20635 0 0
4.28571 0 0
4.36508 0 0
4.44444 0 0
4.52381 0 0
4.60317 0 0
4.68254 0 0
4.7619 0 0
4.84127 0 0
4.92063 0 0
5 0.0769231 0
5 0.153846 0
5 0.230769 0
5 0.307692 0
5 0.384615 0
5 0.461538 0
5 0.538462 0
5 0.615385 0
5 0.692308 0
5 0.769231 0
5 0.846154 0
5 0.923077 0
4.92063 1 0
4.84127 1 0
4.7619 1 0
4.68254 1 0
4.60317 1 0
4.52381 1 0
4.44444 1 0
4.36508 1 0
4.28571 1 0
4.20635 1 0
4.12698 1 0
4.04762 1 0
3.96825 1 0
3.88889 1 0
3.80952 1 0
3.73016 1 0
3.65079 1 0
3.57143 1 0
3.49206 1 0
3.4127 1 0
3.33333 1 0
3.25397 1 0
3.1746 1 0
3.09524 1 0
3.01587 1 0
2.93651 1 0
2.85714 1 0
2.77778 1 0
2.69841 1 0
2.61905 1 0
2.53968 1 0
2.46032 1 0
2.38095 1 0
2.30159 1 0
2.22222 1 0
2.14286 1 0
2.06349 1 0
1.98413 1 0
1.90476 1 0
1.8254 1 0
1.74603 1 0
1.66667 1 0
1.5873 1 0
1.50794 1 0
1.42857 1 0
1.34921 1 0
1.26984 1 0
1.19048 1 0
1.11111 1 0
1.03175 1 0
0.952381 1 0
0.873016 1 0
0.793651 1 0
0.714286 1 0
0.634921 1 0
0.555556 1 0
0.47619 1 0
0.396825 1 0
0.31746 1 0
0.238095 1 0
0.15873 1 0
0.0793651 1 0
0 0.923077 0
0 0.846154 0
0 0.769231 0
0 0.692308 0
0 0.615385 0
0 0.538462 0
0 0.461538 0
0 0.384615 0
0 0.307692 0
0 0.230769 0
0 0.153846 0
0 0.0769231 0
0.879698 0.466718 0
1.3085 0.931947 0
1.30532 0.0638546 0
4.93832 0.504275 0
0.620452 0.46964 0
3.99858 0.0669607 0
1.63721 0.934258 0
3.3751 0.0523709 0
4.3254 0.0687322 0
2.42354 0.0642082 0
2.97619 0.0687322 0
2.02101 0.0693621 0
3.68108 0.0581336 0
2.65899 0.932655 0
4.178 0.939994 0
3.21614 0.938179 0
2.25483 0.919987 0
3.53215 0.928998 0
3.84921 0.931268 0
1.69647 0.0674297 0
1.94349 0.930209 0
4.48413 0.931268 0
2.97813 0.942022 0
2.74097 0.0673855 0
0.859645 0.573263 0
0.639718 0.573116 0
0.0651563 0.652836 0
0.0635304 0.346121 0
4.56232 0.0679683 0
0.830393 0.392645 0
0.669618 0.39275 0
1.06185 0.0668897 0
0.440193 0.0680031 0
1.06474 0.93511 0
0.446074 0.935974 0
0.724697 0.630698 0
4.72268 0.931235 0
4.93065 0.267192 0
0.589836 0.936152 0
0.92338 0.0562425 0
0.590207 0.0623339 0
0.755872 0.0732784 0
0.838039 0.936714 0
4.92573 0.732039 0
0.281717 0.93783 0
0.28208 0.0811877 0
0.065248 0.503161 0
1.46076 0.0637037 0
4.72574 0.0661877 0
4.31028 0.937908 0
3.21429 0.0687322 0
1.46639 0.932632 0
3.6897 0.928155 0
2.42063 0.931268 0
3.5364 0.0691789 0
2.25998 0.0676208 0
1.78735 0.937047 0
4.01535 0.920637 0
1.85469 0.0674188 0
3.83991 0.0626292 0
3.37477 0.929368 0
2.58225 0.0657863 0
2.81746 0.932342 0
4.16667 0.0687322 0
2.11402 0.935574 0
0.0614266 0.197046 0
0.0612841 0.803003 0
4.88273 0.0644126 0
4.87774 0.933272 0
0.859645 0.426737 0
0.903081 0.436592 0
0.923672 0.473385 0
0.948706 0.439078 0
0.969155 0.479795 0
0.996593 0.439791 0
1.0202 0.484937 0
1.04667 0.440138 0
1.07382 0.489694 0
1.1034 0.440801 0
1.13169 0.49612 0
1.16603 0.445058 0
1.1931 0.504331 0
1.22956 0.450883 0
1.25923 0.506004 0
1.29683 0.453139 0
1.32923 0.510343 0
1.36603 0.454344 0
1.03276 0.530395 0
1.40063 0.516169 0
1.43576 0.454934 0
1.47042 0.520776 0
1.51069 0.46142 0
1.54422 0.526371 0
1.58547 0.465572 0
1.61942 0.531773 0
1.66033 0.468788 0
1.69546 0.536793 0
1.73713 0.472812 0
1.77239 0.541977 0
1.81532 0.478494 0
1.85006 0.547285 0
1.89327 0.483449 0
1.92802 0.55361 0
1.97142 0.488546 0
2.00623 0.558966 0
2.04984 0.493518 0
2.08483 0.564085 0
2.12847 0.498462 0
2.16353 0.569137 0
2.20719 0.503331 0
0.961579 0.391697 0
1.22451 0.565337 0
2.24238 0.574192 0
2.28611 0.508258 0
2.32134 0.579247 0
2.36519 0.513325 0
2.40036 0.584295 0
2.44425 0.51834 0
2.47944 0.589336 0
2.52334 0.523355 0
2.55853 0.594372 0
2.60245 0.52837 0
2.63764 0.599431 0
2.68159 0.533388 0
2.64637 0.462336 0
2.72553 0.467349 0
2.76076 0.538418 0
2.8047 0.47237 0
2.83993 0.543451 0
2.88387 0.477399 0
2.91911 0.548482 0
2.96305 0.482427 0
2.9983 0.553514 0
3.04224 0.487456 0
3.07749 0.558545 0
3.12143 0.492477 0
3.15668 0.563574 0
3.20063 0.497514 0
3.23588 0.568605 0
3.27983 0.502542 0
3.31508 0.573635 0
3.35903 0.507562 0
3.39428 0.578663 0
3.43823 0.5126 0
3.47348 0.583694 0
3.51744 0.517628 0
3.55268 0.588724 0
3.59664 0.522646 0
3.63189 0.593752 0
3.67585 0.527673 0
3.71109 0.598781 0
3.75505 0.532702 0
3.7903 0.60381 0
3.83426 0.537731 0
3.79901 0.466623 0
3.87821 0.471754 0
3.91346 0.542777 0
3.95742 0.476701 0
3.99267 0.547795 0
4.03662 0.481715 0
4.07187 0.552815 0
4.11582 0.486743 0
4.15106 0.55783 0
4.195 0.491782 0
4.23023 0.562843 0
4.27415 0.49682 0
4.30937 0.567866 0
4.35325 0.501915 0
4.38842 0.572845 0
4.43227 0.506997 0
4.46737 0.577575 0
4.51106 0.511995 0
4.54622 0.582183 0
1.13571 0.390292 0
4.47606 0.441361 0
4.55475 0.446396 0
2.32985 0.442214 0
3.5614 0.451571 0
3.08619 0.421408 0
2.09339 0.427815 0
1.42887 0.583001 0
2.84864 0.406329 0
3.32378 0.43649 0
4.23911 0.425894 0
1.54723 0.39251 0
1.77883 0.406811 0
1.33959 0.387065 0
3.92239 0.405803 0
4.08079 0.415776 0
2.48812 0.452349 0
1.57935 0.603183 0
1.93602 0.417543 0
1.72453 0.617973 0
3.11273 0.629643 0
2.69029 0.396284 0
3.94662 0.623383 0
1.88466 0.613248 0
2.79598 0.609502 0
4.10826 0.620575 0
2.04005 0.62838 0
2.95434 0.619575 0
4.51981 0.375801 0
4.59833 0.380943 0
4.63314 0.451296 0
4.26693 0.63114 0
2.19619 0.645921 0
4.4246 0.642296 0
3.27112 0.639707 0
2.35729 0.649822 0
2.51462 0.660373 0
3.42952 0.649769 0
4.67669 0.38601 0
3.58793 0.659829 0
3.74634 0.669888 0
4.64195 0.315733 0
4.44109 0.370647 0
4.48493 0.305066 0
4.40614 0.29989 0
4.71136 0.456133 0
4.72014 0.320758 0
0.8692 0.382093 0
0.841252 0.348256 0
0.886481 0.338703 0
0.853127 0.301457 0
0.902583 0.287335 0
0.801683 0.321689 0
0.818113 0.263019 0
0.764765 0.277091 0
4.44702 0.235678 0
0.946267 0.520761 0
0.78107 0.221265 0
0.726309 0.234724 0
0.848273 0.20551 0
4.68545 0.250576 0
4.37074 0.227561 0
4.76365 0.255792 0
4.79822 0.326145 0
0.713664 0.287231 0
0.672358 0.247957 0
0.68673 0.192342 0
0.630368 0.2085 0
0.616569 0.265341 0
0.574186 0.225456 0
0.557393 0.28131 0
0.52004 0.242373 0
0.504416 0.299685 0
0.462273 0.252096 0
0.44798 0.316739 0
0.404567 0.276951 0
0.390546 0.335414 0
0.434669 0.37657 0
0.377935 0.394545 0
0.421979 0.43426 0
0.365682 0.452846 0
0.409646 0.492216 0
0.353389 0.51089 0
0.397738 0.551598 0
0.339864 0.570301 0
0.385899 0.612153 0
0.325913 0.631557 0
0.344507 0.29318 0
0.320568 0.413067 0
0.373553 0.673852 0
0.434438 0.653082 0
0.311416 0.69481 0
0.449777 0.528305 0
0.293513 0.534612 0
0.421431 0.715204 0
0.480917 0.696603 0
0.54504 0.34471 0
0.262743 0.649913 0
0.246209 0.712341 0
0.468564 0.755948 0
0.526091 0.735423 0
0.538207 0.68039 0
0.581228 0.716342 0
0.408756 0.777952 0
0.36234 0.239019 0
0.297047 0.251925 0
0.572109 0.771575 0
0.624906 0.752173 0
0.474824 0.414151 0
0.534351 0.182707 0
0.633682 0.70159 0
0.674547 0.736174 0
0.66826 0.788959 0
0.721117 0.76834 0
0.714515 0.825486 0
0.769074 0.802008 0
0.775287 0.746591 0
0.821903 0.778625 0
0.826767 0.726064 0
0.873257 0.756032 0
0.872997 0.697261 0
0.92331 0.732304 0
0.930014 0.67838 0
0.976061 0.710612 0
0.92456 0.784469 0
0.982178 0.654421 0
1.03016 0.688004 0
1.02037 0.747059 0
1.08 0.723819 0
1.08651 0.661896 0
1.1397 0.698204 0
1.13262 0.763657 0
1.19424 0.736545 0
1.18556 0.80161 0
1.24839 0.771772 0
1.25723 0.706382 0
1.31432 0.745787 0
4.66801 0.521361 0
4.74602 0.526202 0
4.70285 0.591278 0
4.78076 0.596023 0
4.73763 0.661207 0
4.78904 0.460969 0
2.61113 0.391267 0
2.65506 0.325217 0
2.57588 0.320198 0
2.61982 0.254148 0
2.69899 0.259163 0
2.54065 0.249131 0
2.49672 0.315179 0
2.46148 0.244124 0
2.41757 0.310166 0
2.38233 0.239117 0
2.33843 0.30514 0
2.30297 0.237979 0
2.25928 0.300748 0
2.22079 0.221377 0
2.17969 0.293884 0
2.14114 0.224266 0
2.10047 0.289841 0
2.0653 0.219144 0
2.02202 0.284919 0
1.98701 0.214164 0
1.94336 0.279863 0
3.82315 0.673327 0
3.78135 0.738156 0
3.86451 0.735958 0
3.70234 0.735494 0
4.52513 0.244409 0
4.32717 0.294467 0
4.29217 0.221862 0
0.619934 0.539507 0
0.599432 0.577132 0
0.575955 0.542712 0
0.554504 0.58245 0
4.65962 0.656481 0
4.69438 0.726169 0
4.6161 0.721747 0
4.77259 0.731352 0
4.65076 0.791486 0
4.57153 0.788793 0
4.2482 0.289182 0
4.21307 0.218308 0
4.1691 0.284563 0
4.13394 0.21352 0
0.835918 0.606341 0
0.806475 0.6384 0
4.08995 0.279537 0
0.640355 0.426737 0
0.596214 0.435837 0
0.630358 0.379178 0
0.689967 0.627735 0
1.90832 0.209948 0
1.86468 0.27519 0
1.82968 0.20518 0
1.78607 0.269797 0
0.281841 0.313314 0
0.232117 0.268621 0
0.216861 0.334396 0
4.05473 0.209347 0
4.01077 0.2745 0
3.97554 0.204394 0
3.93159 0.269388 0
0.297409 0.759367 0
0.231645 0.782943 0
0.180008 0.73598 0
1.32151 0.676369 0
1.38055 0.718092 0
1.36901 0.793947 0
1.43945 0.766002 0
0.249902 0.198865 0
0.932364 0.624392 0
1.75117 0.201034 0
1.70771 0.264658 0
1.673 0.195402 0
1.62985 0.260294 0
1.59532 0.191927 0
1.55236 0.254233 0
3.89629 0.200227 0
3.85238 0.264494 0
3.81708 0.195303 0
3.77304 0.259453 0
2.66368 0.189084 0
2.74279 0.19534 0
2.77814 0.264556 0
2.82201 0.199823 0
2.85733 0.269552 0
2.90126 0.203886 0
2.93654 0.274416 0
2.98045 0.20868 0
3.01573 0.279376 0
3.0597 0.213193 0
[...]
CELL_DATA 2220
VECTORS velocity double
26.9676 -2.11346 0.0
20.0245 0.501361 0.0
26.0888 6.11787 0.0
25.4605 1.14447 0.0
27.3438 -2.48088 0.0
37.109 -1.38621 0.0
16.7963 0.479677 0.0
18.7378 -0.0442545 0.0
30.0812 11.3355 0.0
36.6423 -0.987663 0.0
18.9801 16.6437 0.0
17.9091 0.25158 0.0
14.1627 0.18512 0.0
26.4652 -6.78765 0.0
23.756 15.5584 0.0
21.8521 11.3185 0.0
19.1859 1.00068 0.0
15.496 0.695323 0.0
17.6383 -0.147905 0.0
19.194 -0.133332 0.0
21.9811 4.66058 0.0
42.0451 -6.10726 0.0
18.088 0.816856 0.0
18.5429 0.577243 0.0
33.4599 -1.11715 0.0
24.4164 -5.6918 0.0
22.4751 -2.29103 0.0
15.8209 0.562252 0.0
25.0857 1.21248 0.0
28.247 1.15325 0.0
26.672 -3.30729 0.0
34.16 0.145851 0.0
12.9835 -0.127261 0.0
32.3834 -12.7167 0.0
50.0605 1.65315 0.0
37.1596 -1.55584 0.0
48.7963 2.49709 0.0
15.2978 -0.136614 0.0
29.6323 1.40326 0.0
28.8893 -1.86543 0.0
13.6198 -1.23054 0.0
30.2297 10.3682 0.0
21.3169 0.950943 0.0
16.9581 -0.0330031 0.0
15.2983 -0.0992763 0.0
13.6528 -0.0284513 0.0
17.8424 0.706954 0.0
13.9086 -0.0302458 0.0
36.3829 -0.858216 0.0
39.2691 0.578913 0.0
17.4124 3.68538 0.0
14.0166 0.0915148 0.0
17.5055 0.653523 0.0
17.9384 0.103704 0.0
15.9547 0.790518 0.0
28.7325 -2.45175 0.0
36.4748 -0.393296 0.0
14.7512 0.581701 0.0
15.2457 0.612143 0.0
39.6344 0.445464 0.0
-0.250287 -6.90286 0.0
34.8592 -1.78385 0.0
28.5116 -4.44235 0.0
17.9671 0.640693 0.0
17.6735 0.740585 0.0
35.0083 -11.3235 0.0
19.9167 -1.1414 0.0
24.6931 10.6246 0.0
14.8567 0.713593 0.0
15.25 0.602795 0.0
17.7602 0.155529 0.0
34.2154 11.6833 0.0
13.7339 0.150659 0.0
37.9535 1.1024 0.0
30.8359 -1.49441 0.0
50.8598 -0.30158 0.0
31.3773 4.52429 0.0
18.8416 -3.63139 0.0
29.1851 10.2489 0.0
16.7054 0.112416 0.0
23.7601 2.76415 0.0
29.4936 2.72912 0.0
15.0192 -0.249 0.0
13.6233 0.102374 0.0
17.283 0.486204 0.0
17.2243 0.251198 0.0
24.0737 -2.48475 0.0
14.2685 0.213556 0.0
14.5246 0.388165 0.0
30.6568 11.634 0.0
24.5023 -3.67995 0.0
18.7553 4.50262 0.0
17.8682 -0.182779 0.0
27.6139 6.28078 0.0
50.1086 0.141541 0.0
28.7501 2.0026 0.0
43.5449 4.80416 0.0
5.00994 -18.1172 0.0
0.397777 -5.21107 0.0
30.1139 13.4581 0.0
-5.27281 -18.3492 0.0
22.9763 -4.60421 0.0
17.6245 0.610892 0.0
14.4506 1.2116 0.0
43.7185 -5.73142 0.0
50.335 -0.986331 0.0
38.1981 -1.15471 0.0
38.3871 -1.43013 0.0
4.92315 -0.164892 0.0
17.406 1.2976 0.0
32.3003 1.04493 0.0
29.21 -8.30898 0.0
38.0542 -0.968071 0.0
11.1278 -0.594787 0.0
36.6348 -2.62119 0.0
14.8819 0.522052 0.0
25.4621 -5.62586 0.0
18.8378 -0.442122 0.0
3.07758 -20.6587 0.0
31.5707 10.7392 0.0
18.4898 -2.9819 0.0
39.5092 -0.675555 0.0
14.6432 3.34612 0.0
35.9734 -8.52344 0.0
50.9774 0.805202 0.0
15.3097 -11.7249 0.0
49.4747 -1.56898 0.0
24.0264 1.06448 0.0
28.9153 -7.97653 0.0
0.0145752 9.20431 0.0
13.5475 2.34047 0.0
36.2453 4.44867 0.0
28.66 5.74922 0.0
15.1827 11.3527 0.0
29.012 1.48314 0.0
11.5634 11.0003 0.0
12.6325 -0.00930062 0.0
19.1394 -3.63613 0.0
18.1024 -12.7254 0.0
35.4845 0.541516 0.0
21.4628 -4.71542 0.0
16.7604 -0.0404768 0.0
35.6802 -3.30179 0.0
50.4955 0.448868 0.0
37.2425 1.05273 0.0
24.6775 5.51524 0.0
-8.3233 9.21507 0.0
8.51125 -18.7065 0.0
36.8106 2.71328 0.0
37.898 -2.05371 0.0
14.641 -0.405054 0.0
31.0184 9.62292 0.0
40.1809 -0.0182289 0.0
32.1201 -10.6693 0.0
5.89424 7.89409 0.0
19.0658 0.238993 0.0
22.8389 -1.40452 0.0
19.8862 0.398543 0.0
10.68 -0.821629 0.0
16.7166 -3.65319 0.0
33.8831 8.3313 0.0
14.9078 0.00435531 0.0
-8.74266 -9.44296 0.0
34.2406 0.112382 0.0
13.5941 0.0862169 0.0
33.1966 -12.1972 0.0
24.475 -14.6125 0.0
51.3889 0.377103 0.0
18.9306 0.1744 0.0
25.3493 10.7409 0.0
-3.28057 15.3248 0.0
13.2375 0.0176486 0.0
17.5542 0.0722023 0.0
-0.777107 -9.49724 0.0
10.4403 -5.1971 0.0
29.5623 9.31785 0.0
29.3358 4.4216 0.0
28.0727 8.59302 0.0
9.03142 -1.81437 0.0
18.718 0.0309041 0.0
38.7974 -0.285068 0.0
17.393 -3.74452 0.0
17.5019 -15.4944 0.0
5.23996 14.7551 0.0
19.1365 -0.0317364 0.0
31.5766 -1.82919 0.0
49.8384 0.12354 0.0
14.9052 -0.577662 0.0
45.5632 3.73643 0.0
51.3322 0.23003 0.0
12.8685 -0.989826 0.0
14.9095 -0.205197 0.0
30.0343 -9.17878 0.0
37.2872 2.29588 0.0
23.1411 -0.454518 0.0
49.681 -0.266786 0.0
26.1609 1.00417 0.0
16.8307 -0.870804 0.0
6.53459 -0.309984 0.0
17.4456 -0.597384 0.0
16.1915 -9.73899 0.0
23.3767 -1.54351 0.0
37.325 -10.0653 0.0
17.8409 -0.164192 0.0
13.8715 1.41745 0.0
22.5311 -3.65392 0.0
22.8466 -4.20465 0.0
16.3627 0.00751262 0.0
25.3877 1.95354 0.0
8.66277 -1.41279 0.0
17.5169 0.654496 0.0
12.1613 18.526 0.0
25.5495 -0.210262 0.0
27.7338 10.9984 0.0
31.8395 5.70766 0.0
17.5663 2.97004 0.0
14.6589 0.604998 0.0
17.3954 0.870168 0.0
9.86914 1.88224 0.0
31.4844 0.880752 0.0
37.3918 0.685902 0.0
8.1229 -0.336839 0.0
14.4521 0.808337 0.0
7.7551 -0.148699 0.0
17.713 -0.120457 0.0
20.5225 -1.78702 0.0
15.5787 -2.68564 0.0
22.095 15.9485 0.0
27.5103 -5.60271 0.0
11.8336 0.351753 0.0
21.744 1.826 0.0
23.4812 -1.71184 0.0
11.8221 -0.136975 0.0
17.9986 -0.371737 0.0
12.1985 -0.251266 0.0
51.3595 0.120871 0.0
8.68373 -7.27467 0.0
17.6817 -0.212945 0.0
17.519 -0.238062 0.0
15.2387 -0.200118 0.0
49.9223 -0.196938 0.0
38.4111 9.2099 0.0
46.2882 -3.87185 0.0
8.76172 -0.00488618 0.0
13.5665 9.08961 0.0
39.4349 0.0430287 0.0
18.958 -0.508284 0.0
35.4245 -0.750432 0.0
4.09916 9.56253 0.0
21.7511 0.611423 0.0
11.6386 -9.80673 0.0
8.78485 -0.0603333 0.0
22.9136 -14.1859 0.0
36.8943 -0.209835 0.0
29.9009 -6.82971 0.0
17.2714 0.347089 0.0
-8.39914 1.70732 0.0
38.23 0.272576 0.0
22.883 -0.0796434 0.0
50.6502 0.218555 0.0
19.953 -0.292486 0.0
41.115 -0.433555 0.0
11.7399 0.551274 0.0
19.9272 -4.60043 0.0
8.29172 -0.681925 0.0
8.3341 -0.0652684 0.0
15.5022 -1.37238 0.0
15.3267 -4.8386 0.0
19.4002 4.63415 0.0
39.7921 -0.0316128 0.0
33.9301 1.21285 0.0
36.2733 0.00104685 0.0
14.3859 0.27914 0.0
35.3095 -2.06277 0.0
5.47593 -11.7591 0.0
47.9529 -2.46673 0.0
22.1402 -14.1443 0.0
21.2619 -2.54625 0.0
15.2035 3.17974 0.0
14.278 0.0769767 0.0
12.0793 -15.1363 0.0
26.9196 -0.0494955 0.0
48.1673 -0.520407 0.0
24.5961 1.1063 0.0
35.2294 -1.8317 0.0
22.1118 -1.12648 0.0
37.9148 -0.281683 0.0
23.9173 0.882441 0.0
15.0562 -0.17728 0.0
14.4682 -0.199675 0.0
-8.40532 -2.15505 0.0
15.9815 -1.38809 0.0
8.98417 1.79118 0.0
17.6101 -9.94275 0.0
18.7158 -1.8791 0.0
23.335 -0.220427 0.0
23.7144 -0.196289 0.0
22.8382 0.337329 0.0
45.558 -3.73393 0.0
33.0055 5.51814 0.0
12.3184 -1.39176 0.0
30.648 8.60576 0.0
27.031 -7.08589 0.0
7.84682 0.0598367 0.0
22.7083 -12.4244 0.0
18.2536 1.04821 0.0
13.8241 -0.242935 0.0
14.6833 -0.213047 0.0
17.1614 0.28639 0.0
8.23639 1.4141 0.0
12.0036 1.89335 0.0
13.204 8.65411 0.0
5.04714 18.2319 0.0
47.7661 -1.39441 0.0
33.9026 11.7345 0.0
17.1713 -0.219803 0.0
29.0878 7.23645 0.0
12.3257 0.00317129 0.0
50.9388 -0.262332 0.0
32.8492 6.12735 0.0
22.4841 14.1671 0.0
14.4643 3.21695 0.0
37.49 0.304534 0.0
12.5813 0.10882 0.0
11.1545 11.7674 0.0
10.5853 -1.80222 0.0
36.2587 0.0593643 0.0
35.0447 1.33876 0.0
38.1224 0.692831 0.0
9.78976 -1.9027 0.0
24.6441 -11.2381 0.0
49.6404 1.0263 0.0
23.4008 -3.98332 0.0
11.643 -0.486676 0.0
34.3236 -10.7112 0.0
50.14 -0.431513 0.0
26.2509 -0.857916 0.0
30.6101 8.57504 0.0
39.3008 -1.04409 0.0
17.3847 -0.239262 0.0
7.62234 0.8858 0.0
15.3546 -0.237139 0.0
6.92041 -0.12996 0.0
5.99518 -0.833424 0.0
19.9768 15.7572 0.0
30.1675 9.97651 0.0
8.28788 4.66229 0.0
31.2877 7.12952 0.0
34.4427 4.31761 0.0
5.20184 -0.964623 0.0
37.285 -8.25049 0.0
4.55703 0.824294 0.0
6.88146 0.184933 0.0
18.1591 10.6395 0.0
7.85337 0.948713 0.0
51.5479 -0.0303377 0.0
37.8023 -9.29088 0.0
4.50624 -0.41416 0.0
35.2149 0.93552 0.0
33.2095 -0.998918 0.0
32.9546 4.49786 0.0
7.95274 18.7128 0.0
23.8787 6.24559 0.0
32.1046 5.72072 0.0
6.37421 0.261623 0.0
39.265 0.855403 0.0
43.0134 6.44638 0.0
4.77917 -0.895224 0.0
6.71648 -0.213877 0.0
41.2518 -0.857782 0.0
4.89887 0.941796 0.0
44.2578 -4.60884 0.0
37.3289 9.78565 0.0
18.8977 -0.939058 0.0
7.66596 -0.0638874 0.0
13.7503 0.394377 0.0
24.8568 0.401595 0.0
25.2252 0.0982559 0.0
51.057 -0.0172587 0.0
23.4106 -0.140536 0.0
13.4817 0.626841 0.0
49.1973 0.156279 0.0
51.1673 -0.144048 0.0
38.2043 0.436827 0.0
47.3541 0.545173 0.0
35.8474 -0.172983 0.0
43.8924 -5.15589 0.0
37.5765 0.225282 0.0
24.9383 -6.28897 0.0
33.8832 3.45525 0.0
11.0423 0.635212 0.0
34.131 0.0132377 0.0
32.8832 -0.620153 0.0
28.3337 -6.17667 0.0
9.52748 -0.70645 0.0
15.0761 -2.15008 0.0
50.3948 0.204774 0.0
9.15991 0.552509 0.0
37.6727 0.200632 0.0
49.1166 0.49783 0.0
7.6175 0.215539 0.0
26.9896 4.00033 0.0
31.6103 5.06376 0.0
38.355 0.143215 0.0
42.1479 7.18673 0.0
46.524 4.33668 0.0
5.01877 4.19026 0.0
8.01225 1.15216 0.0
23.1651 1.15287 0.0
30.9359 -12.3206 0.0
17.2397 -14.2571 0.0
5.7676 0.888238 0.0
46.305 0.0699242 0.0
31.5517 -5.99056 0.0
49.4873 -0.477823 0.0
38.2885 0.176869 0.0
4.24481 -0.131223 0.0
4.46697 0.79017 0.0
29.7168 9.30413 0.0
6.66192 0.112291 0.0
31.9551 7.05304 0.0
46.9318 0.736559 0.0
4.40681 0.00131687 0.0
6.68493 -0.0403354 0.0
32.3253 3.97421 0.0
34.2567 0.47574 0.0
4.14308 0.138933 0.0
30.0906 -0.155052 0.0
37.7843 0.205253 0.0
8.4191 -1.13508 0.0
38.4294 0.145641 0.0
29.6201 3.85638 0.0
48.6396 -0.736253 0.0
34.5561 2.62433 0.0
7.01141 -0.494283 0.0
43.894 5.28072 0.0
5.69171 -0.955219 0.0
6.82242 0.366999 0.0
23.3457 -9.93752 0.0
6.85952 0.37922 0.0
29.1647 4.84862 0.0
33.1711 3.07177 0.0
43.5727 4.55248 0.0
47.5541 3.02886 0.0
11.1238 -0.867505 0.0
19.7123 3.48966 0.0
49.3332 0.462023 0.0
4.54203 -0.528925 0.0
4.14245 0.525859 0.0
13.9686 -2.07786 0.0
10.6545 0.792396 0.0
37.6324 -0.728986 0.0
7.54764 -0.339931 0.0
25.5432 0.630174 0.0
36.9545 1.6156 0.0
7.86771 0.797511 0.0
12.9938 0.583077 0.0
30.9085 6.32988 0.0
7.2661 0.307467 0.0
34.7993 1.91196 0.0
30.0651 3.02548 0.0
35.4038 0.472954 0.0
6.59988 -0.411738 0.0
5.12054 0.292288 0.0
8.43227 0.598637 0.0
25.1236 -0.915651 0.0
10.758 -2.06058 0.0
38.5378 0.161006 0.0
4.26455 0.0766912 0.0
46.5862 2.25675 0.0
8.77223 -0.505458 0.0
4.06466 0.611665 0.0
15.9224 -1.17359 0.0
30.4122 7.71601 0.0
8.296 -0.906763 0.0
35.5226 0.36794 0.0
33.3405 2.32557 0.0
25.275 4.32234 0.0
37.9403 0.212984 0.0
30.3673 2.35028 0.0
18.1307 -2.36855 0.0
35.5913 -9.00156 0.0
35.1559 -3.80752 0.0
30.5779 1.78982 0.0
6.80987 -0.542683 0.0
7.26228 0.565474 0.0
49.4719 -0.130836 0.0
4.03009 0.365826 0.0
37.4372 -0.648219 0.0
18.6639 7.9285 0.0
38.1018 0.203745 0.0
4.07382 0.439382 0.0
4.57191 -0.65031 0.0
33.6738 1.70655 0.0
30.1575 9.08966 0.0
25.9453 -0.159124 0.0
33.4983 -0.885204 0.0
32.0954 0.0356476 0.0
29.2728 -0.840004 0.0
14.2631 -10.2132 0.0
33.0554 -0.101242 0.0
28.1627 3.31183 0.0
4.45835 -0.301073 0.0
30.7416 1.32988 0.0
25.2868 7.86417 0.0
14.928 -0.646072 0.0
37.4653 0.450474 0.0
4.51934 -0.325083 0.0
4.98866 0.331071 0.0
27.8028 4.16823 0.0
34.1929 -0.132068 0.0
32.0291 -1.0607 0.0
17.9801 -0.134419 0.0
34.2219 2.05235 0.0
38.6605 0.171242 0.0
32.2348 -4.52316 0.0
4.29485 1.68944 0.0
35.2951 0.659565 0.0
34.6728 -4.2948 0.0
28.7073 2.03043 0.0
29.4013 5.66053 0.0
8.57288 -2.92228 0.0
33.287 -12.009 0.0
4.80981 -5.33241 0.0
28.4751 -13.7121 0.0
34.5807 -1.16502 0.0
34.3196 4.74267 0.0
34.709 2.51397 0.0
4.4815 -1.50334 0.0
30.8809 0.981829 0.0
31.8952 3.51721 0.0
28.8701 1.55682 0.0
39.6485 0.0955194 0.0
28.4899 2.60459 0.0
34.0475 0.862139 0.0
28.2171 -0.664646 0.0
26.5884 -3.4732 0.0
8.83186 -4.1794 0.0
48.1565 -0.740393 0.0
14.2329 -0.11969 0.0
25.5444 -6.421 0.0
6.70232 -7.1641 0.0
39.8828 8.04187 0.0
38.8936 0.12678 0.0
3.02176 -0.236431 0.0
3.09768 0.244115 0.0
34.1097 0.626795 0.0
46.1294 0.800099 0.0
31.0488 0.739649 0.0
23.588 8.16871 0.0
5.07186 -0.231198 0.0
8.40431 -0.346523 0.0
6.36532 0.846403 0.0
2.57426 2.17673 0.0
5.60986 -3.86357 0.0
33.1445 -5.5953 0.0
39.8162 0.0787795 0.0
43.6281 5.86818 0.0
0.787457 1.12917 0.0
27.9369 -0.0590683 0.0
29.9375 -0.0572238 0.0
28.8146 -5.45013 0.0
22.4846 7.92286 0.0
0.921182 -1.06549 0.0
2.84948 -1.97354 0.0
25.1893 0.371295 0.0
22.1466 0.808303 0.0
29.0666 1.17162 0.0
19.3272 -3.69149 0.0
34.1702 -0.0803217 0.0
51.2306 -0.243315 0.0
35.4717 -0.0750099 0.0
26.5413 6.29521 0.0
38.3899 0.108327 0.0
4.04073 -0.237983 0.0
31.2799 7.68895 0.0
37.9992 0.415926 0.0
35.6539 0.324284 0.0
37.5984 -0.109204 0.0
32.3363 -3.38395 0.0
3.87709 0.165595 0.0
38.1066 -0.439494 0.0
5.68016 -1.06248 0.0
14.3791 1.46979 0.0
23.9462 -0.645471 0.0
31.1969 0.590307 0.0
29.2177 0.879569 0.0
36.2153 1.55395 0.0
37.2934 1.20345 0.0
36.239 1.81104 0.0
4.03285 0.256245 0.0
7.78054 0.451679 0.0
6.49245 -0.714312 0.0
38.6866 -0.0586277 0.0
34.4123 0.395857 0.0
48.0232 0.508508 0.0
5.5367 1.20301 0.0
34.9369 0.0391676 0.0
32.6031 3.86739 0.0
10.4708 7.89342 0.0
35.0618 -0.0622107 0.0
2.53782 0.695326 0.0
33.6562 -0.0978417 0.0
33.3087 -1.2813 0.0
33.629 -0.641417 0.0
25.0606 -0.255433 0.0
23.0219 -0.243924 0.0
33.251 -0.140676 0.0
7.14631 -0.724063 0.0
49.7842 -1.15879 0.0
38.0862 -0.439867 0.0
36.3947 -0.157487 0.0
35.8354 0.313354 0.0
31.3937 0.502058 0.0
16.9803 -0.0130906 0.0
34.583 0.365022 0.0
37.0238 -2.65077 0.0
38.4648 0.0538358 0.0
8.28246 0.371112 0.0
29.8914 5.35529 0.0
2.70807 -0.645735 0.0
38.576 0.491031 0.0
39.0535 0.170237 0.0
31.6204 0.457413 0.0
1.7775 0.942444 0.0
32.9811 -10.998 0.0
38.9512 0.080927 0.0
37.0452 1.35449 0.0
34.665 -0.101892 0.0
36.0937 -0.548438 0.0
36.0561 0.307227 0.0
38.6107 -0.0680033 0.0
38.4257 0.159705 0.0
38.788 0.16063 0.0
31.927 0.440624 0.0
3.55142 0.366983 0.0
12.539 1.11957 0.0
37.2648 -1.02809 0.0
25.4751 9.03813 0.0
1.92249 -0.874792 0.0
7.12356 -0.475176 0.0
28.2468 -12.3897 0.0
32.4543 3.62024 0.0
34.825 0.357333 0.0
13.4861 -0.914705 0.0
36.2166 -0.189679 0.0
37.1576 -0.154972 0.0
21.47 9.1398 0.0
6.87986 0.610019 0.0
3.25647 -0.446894 0.0
36.2607 -3.22478 0.0
26.5442 5.40389 0.0
33.4508 -3.29926 0.0
38.8804 0.327906 0.0
11.8471 -1.64419 0.0
35.0882 0.33723 0.0
29.3842 0.697674 0.0
38.5124 -0.0549146 0.0
3.09751 0.50028 0.0
36.2992 0.275449 0.0
38.5009 0.000871617 0.0
3.96903 -0.203821 0.0
32.2793 0.409517 0.0
38.2648 0.165686 0.0
39.2826 0.450017 0.0
36.8045 0.117108 0.0
36.9408 -0.208799 0.0
38.9662 0.0321759 0.0
31.6858 -0.859339 0.0
36.8707 -0.0758359 0.0
36.5863 0.202376 0.0
35.9537 0.076407 0.0
35.991 -0.23656 0.0
3.66249 -0.299865 0.0
36.9236 0.290629 0.0
35.783 -0.269683 0.0
4.99868 0.255305 0.0
38.953 -0.021099 0.0
7.93027 0.502583 0.0
35.3987 0.266949 0.0
36.7478 -0.249988 0.0
39.3075 0.290029 0.0
37.7641 -0.0495234 0.0
36.9678 0.0475767 0.0
38.9685 0.14772 0.0
16.7978 0.184498 0.0
33.2009 0.169278 0.0
30.6239 1.68326 0.0
32.5597 0.30695 0.0
3.62055 -0.0635262 0.0
38.0701 -0.0363679 0.0
35.713 0.161514 0.0
28.2919 -5.93475 0.0
3.64404 -0.265709 0.0
29.8354 0.513557 0.0
3.56008 0.190242 0.0
26.2289 -5.40553 0.0
31.9579 1.95445 0.0
30.1449 0.480201 0.0
34.3213 -0.153818 0.0
35.5858 -0.281466 0.0
30.5615 0.462356 0.0
37.1711 -0.0668663 0.0
38.3362 9.49779 0.0
26.6422 -6.7691 0.0
36.1714 -0.0820925 0.0
39.0991 0.502289 0.0
38.8703 0.533122 0.0
39.2387 0.258465 0.0
36.569 -0.272874 0.0
39.5066 0.33071 0.0
31.1877 -0.13849 0.0
39.4729 0.360423 0.0
35.1939 -0.177832 0.0
33.4872 0.0722347 0.0
15.7479 0.329152 0.0
37.1623 -0.259634 0.0
39.461 0.291919 0.0
28.5542 -0.700416 0.0
39.1572 0.431418 0.0
36.4021 -0.269564 0.0
35.4033 -0.261573 0.0
3.832 0.269866 0.0
36.1336 0.0117043 0.0
29.5967 0.585874 0.0
39.6689 0.309959 0.0
26.7995 -0.505911 0.0
8.6813 0.220276 0.0
33.7623 0.000799738 0.0
39.1907 0.32669 0.0
31.3635 0.23512 0.0
30.6204 -0.14177 0.0
35.2368 -0.203881 0.0
39.1841 0.191619 0.0
36.2527 -0.233145 0.0
31.9278 0.116882 0.0
19.0436 6.46231 0.0
38.9262 -0.0792255 0.0
39.6401 0.264942 0.0
37.8423 0.981442 0.0
15.3967 -0.0811473 0.0
36.2725 -0.0453996 0.0
29.2568 -0.160024 0.0
4.56993 0.130983 0.0
8.07262 0.261431 0.0
36.1098 -0.166448 0.0
38.3728 0.202631 0.0
33.4915 -0.280586 0.0
35.07 -0.121549 0.0
39.5193 0.25178 0.0
34.0184 -0.203575 0.0
33.988 -0.0586769 0.0
34.8615 -0.0374217 0.0
29.8105 -0.196862 0.0
32.9026 -0.186552 0.0
39.7846 0.231526 0.0
30.1754 -0.164702 0.0
38.7623 0.128031 0.0
33.2289 -0.29502 0.0
34.5704 -0.239378 0.0
32.5927 -0.230652 0.0
29.4528 -0.234302 0.0
38.4482 0.131448 0.0
35.9477 -0.0868812 0.0
5.60222 0.146391 0.0
8.81965 0.212714 0.0
39.5086 0.107212 0.0
39.1158 0.0422354 0.0
30.8211 0.412819 0.0
32.3136 -0.0112456 0.0
32.5585 -0.0356487 0.0
39.3906 0.427546 0.0
34.569 0.0275437 0.0
38.0766 0.839909 0.0
37.0855 -0.0106491 0.0
29.115 -0.271253 0.0
31.7413 -0.298655 0.0
32.255 0.0298696 0.0
35.7331 -0.0157928 0.0
39.7541 0.171599 0.0
38.5121 -0.112479 0.0
32.3094 -0.26915 0.0
30.6789 8.58807 0.0
27.8505 -0.215148 0.0
32.026 -0.29641 0.0
28.805 -0.304001 0.0
35.3087 1.86308 0.0
34.2029 0.0531446 0.0
35.4511 0.0261954 0.0
32.9988 -0.27341 0.0
28.2461 -0.183734 0.0
31.0384 -0.0453855 0.0
39.0269 0.233045 0.0
28.4626 -0.312905 0.0
31.4973 -0.247644 0.0
33.8393 0.0290071 0.0
17.6907 0.12711 0.0
37.6446 -0.0102228 0.0
28.0779 -0.251669 0.0
15.3093 0.0824246 0.0
27.4853 -0.25043 0.0
35.1371 0.0242698 0.0
27.8726 -0.13326 0.0
31.269 -0.152634 0.0
28.6763 -0.165702 0.0
4.01964 -0.051913 0.0
7.60523 -0.0943498 0.0
17.6787 0.198894 0.0
33.5982 -0.252495 0.0
32.5776 -0.108078 0.0
33.5386 -0.0253823 0.0
34.849 -0.0171427 0.0
27.5871 -0.0146841 0.0
8.52877 0.0853307 0.0
39.1933 0.178376 0.0
7.8434 -0.106004 0.0
39.8302 0.0932881 0.0
33.3338 -0.0792529 0.0
27.1361 -0.286725 0.0
31.9232 0.0640355 0.0
26.7127 -0.317653 0.0
39.7806 0.00756045 0.0
31.4223 0.0989127 0.0
4.17266 -0.054957 0.0
7.7277 -0.106187 0.0
32.7889 -0.204465 0.0
4.44771 0.0540551 0.0
34.6274 -0.0759339 0.0
26.3419 -0.2939 0.0
26.0389 -0.183259 0.0
30.6912 0.0457909 0.0
34.2362 -0.154855 0.0
39.2465 0.0110959 0.0
30.9586 0.0768499 0.0
30.5728 0.0164582 0.0
7.808 -0.0925199 0.0
4.34196 -0.0548901 0.0
14.5909 0.161571 0.0
25.7719 -0.0508119 0.0
30.1482 0.108459 0.0
33.7459 -0.247218 0.0
29.5683 0.122102 0.0
35.4377 -0.0897188 0.0
14.9787 0.185428 0.0
29.09 0.068881 0.0
34.5157 -0.11897 0.0
30.2862 -0.0322803 0.0
7.79218 0.0952747 0.0
3.92403 -0.0371613 0.0
3.29665 -0.0534934 0.0
4.23529 -0.0495576 0.0
7.71366 -0.0319467 0.0
8.19878 0.112686 0.0
3.57165 -0.0147197 0.0
4.04253 -0.00117932 0.0
7.56076 -0.0888586 0.0
3.92912 -0.0327128 0.0
4.25104 -0.0302492 0.0
4.48432 0.0901714 0.0
8.4163 -0.0942946 0.0
4.37451 0.052102 0.0
7.47325 -0.0656474 0.0
4.18766 0.0510961 0.0
7.93587 -0.0515664 0.0
7.67192 -0.0805397 0.0
4.0904 0.111222 0.0
8.49264 0.132882 0.0
7.54998 -0.072384 0.0
7.40531 -0.0831002 0.0
4.18623 0.18309 0.0
7.14553 -0.0485798 0.0
7.67942 0.128675 0.0
3.83387 -0.0433863 0.0
7.4727 -0.0424463 0.0
4.37801 -0.00634232 0.0
3.87937 0.0598754 0.0
7.25756 -0.107722 0.0
4.19467 0.139837 0.0
5.04069 0.0712604 0.0
4.19707 0.232636 0.0
3.55116 0.0528767 0.0
3.82821 -0.00966552 0.0
7.54419 0.0195115 0.0
4.04473 -0.0509601 0.0
4.15617 -0.0544369 0.0
4.28573 0.160921 0.0
4.30684 0.174459 0.0
4.19584 -0.0254724 0.0
4.15868 0.0368771 0.0
3.53121 -0.0536725 0.0
3.993 -0.0319165 0.0
4.94154 -0.0099041 0.0
8.44267 -0.0247047 0.0
4.23659 -0.125261 0.0
5.0717 0.0442266 0.0
7.15987 0.107448 0.0
7.05893 -0.117901 0.0
3.94694 -0.0451495 0.0
4.34544 0.148773 0.0
3.98039 0.0306457 0.0
7.88086 -0.0270077 0.0
3.79047 0.072068 0.0
4.20075 0.0516452 0.0
3.92239 -0.0489678 0.0
7.95014 0.323583 0.0
4.84049 -0.0615029 0.0
3.424 0.000532027 0.0
3.90538 0.00310498 0.0
3.33634 0.0323563 0.0
4.28813 0.0518231 0.0
4.34606 -0.0199687 0.0
6.57705 -0.0510206 0.0
2.97209 -0.019357 0.0
7.7672 0.287783 0.0
8.03429 0.089176 0.0
33.8802 -0.135528 0.0
33.2862 -0.0943945 0.0
37.2347 -0.122445 0.0
28.7179 0.00688127 0.0
39.4532 -0.222133 0.0
39.4267 -0.0428383 0.0
28.3628 -0.00977831 0.0
39.5188 -0.221797 0.0
39.7094 -0.153122 0.0
39.5818 -0.224595 0.0
39.7866 -0.0697428 0.0
30.1513 -0.0236805 0.0
33.3977 -0.08312 0.0
39.6666 -0.184893 0.0
32.4137 -0.125595 0.0
39.3537 -0.180874 0.0
34.556 -0.125507 0.0
39.2694 -0.15845 0.0
36.6712 -0.176901 0.0
37.4298 -0.20258 0.0
24.6126 0.0580293 0.0
39.1423 -0.234835 0.0
38.8135 -0.10438 0.0
37.5168 -0.175416 0.0
39.2411 -0.170724 0.0
27.5929 -0.0946751 0.0
36.3775 -0.101087 0.0
33.5161 -0.116498 0.0
38.7866 -0.216684 0.0