# vtk DataFile Version 3.0
Malha 2D com triângulos e temperatura
ASCII
DATASET UNSTRUCTURED_GRID

POINTS 1194 double
0 0 0
5 0 0
5 1 0
0 1 0
0.85 0.5 0
0.842388 0.538268 0
0.820711 0.570711 0
0.788268 0.592388 0
0.75 0.6 0
0.711732 0.592388 0
0.679289 0.570711 0
0.657612 0.538268 0
0.65 0.5 0
0.657612 0.461732 0
0.679289 0.429289 0
0.711732 0.407612 0
0.75 0.4 0
0.788268 0.407612 0
0.820711 0.429289 0
0.842388 0.461732 0
0.0793651 0 0
0.15873 0 0
0.238095 0 0
0.31746 0 0
0.396825 0 0
0.47619 0 0
0.555556 0 0
0.634921 0 0
0.714286 0 0
0.793651 0 0
0.873016 0 0
0.952381 0 0
1.03175 0 0
1.11111 0 0
1.19048 0 0
1.26984 0 0
1.34921 0 0
1.42857 0 0
1.50794 0 0
1.5873 0 0
1.66667 0 0
1.74603 0 0
1.8254 0 0
1.90476 0 0
1.98413 0 0
2.06349 0 0
2.14286 0 0
2.22222 0 0
2.30159 0 0
2.38095 0 0
2.46032 0 0
2.53968 0 0
2.61905 0 0
2.69841 0 0
2.77778 0 0
2.85714 0 0
2.93651 0 0
3.01587 0 0
3.09524 0 0
3.1746 0 0
3.25397 0 0
3.33333 0 0
3.4127 0 0
3.49206 0 0
3.57143 0 0
3.65079 0 0
3.73016 0 0
3.80952 0 0
3.88889 0 0
3.96825 0 0
4.04762 0 0
4.12698 0 0
4.20635 0 0
4.28571 0 0
4.36508 0 0
4.44444 0 0
4.52381 0 0
4.60317 0 0
4.68254 0 0
4.7619 0 0
4.84127 0 0
4.92063 0 0
5 0.0769231 0
5 0.153846 0
5 0.230769 0
5 0.307692 0
5 0.384615 0
5 0.461538 0
5 0.538462 0
5 0.615385 0
5 0.692308 0
5 0.769231 0
5 0.846154 0
5 0.923077 0
4.92063 1 0
4.84127 1 0
4.7619 1 0
4.68254 1 0
4.60317 1 0
4.52381 1 0
4.44444 1 0
4.36508 1 0
4.28571 1 0
4.20635 1 0
4.12698 1 0
4.04762 1 0
3.96825 1 0
3.88889 1 0
3.80952 1 0
3.73016 1 0
3.65079 1 0
3.57143 1 0
3.49206 1 0
3.4127 1 0
3.33333 1 0
3.25397 1 0
3.1746 1 0
3.09524 1 0
3.01587 1 0
2.93651 1 0
2.85714 1 0
2.77778 1 0
2.69841 1 0
2.61905 1 0
2.53968 1 0
2.46032 1 0
2.38095 1 0
2.30159 1 0
2.22222 1 0
2.14286 1 0
2.06349 1 0
1.98413 1 0
1.90476 1 0
1.8254 1 0
1.74603 1 0
1.66667 1 0
1.5873 1 0
1.50794 1 0
1.42857 1 0
1.34921 1 0
1.26984 1 0
1.19048 1 0
1.11111 1 0
1.03175 1 0
0.952381 1 0
0.873016 1 0
0.793651 1 0
0.714286 1 0
0.634921 1 0
0.555556 1 0
0.47619 1 0
0.396825 1 0
0.31746 1 0
0.238095 1 0
0.15873 1 0
0.0793651 1 0
0 0.923077 0
0 0.846154 0
0 0.769231 0
0 0.692308 0
0 0.615385 0
0 0.538462 0
0 0.461538 0
0 0.384615 0
0 0.307692 0
0 0.230769 0
0 0.153846 0
0 0.0769231 0
0.879698 0.466718 0
1.3085 0.931947 0
1.30532 0.0638546 0
4.93832 0.504275 0
0.620452 0.46964 0
3.99858 0.0669607 0
1.63721 0.934258 0
3.3751 0.0523709 0
4.3254 0.0687322 0
2.42354 0.0642082 0
2.97619 0.0687322 0
2.02101 0.0693621 0
3.68108 0.0581336 0
2.65899 0.932655 0
4.178 0.939994 0
3.21614 0.938179 0
2.25483 0.919987 0
3.53215 0.928998 0
3.84921 0.931268 0
1.69647 0.0674297 0
1.94349 0.930209 0
4.48413 0.931268 0
2.97813 0.942022 0
2.74097 0.0673855 0
0.859645 0.573263 0
0.639718 0.573116 0
0.0651563 0.652836 0
0.0635304 0.346121 0
4.56232 0.0679683 0
0.830393 0.392645 0
0.669618 0.39275 0
1.06185 0.0668897 0
0.440193 0.0680031 0
1.06474 0.93511 0
0.446074 0.935974 0
0.724697 0.630698 0
4.72268 0.931235 0
4.93065 0.267192 0
0.589836 0.936152 0
0.92338 0.0562425 0
0.590207 0.0623339 0
0.755872 0.0732784 0
0.838039 0.936714 0
4.92573 0.732039 0
0.281717 0.93783 0
0.28208 0.0811877 0
0.065248 0.503161 0
1.46076 0.0637037 0
4.72574 0.0661877 0
4.31028 0.937908 0
3.21429 0.0687322 0
1.46639 0.932632 0
3.6897 0.928155 0
2.42063 0.931268 0
3.5364 0.0691789 0
2.25998 0.0676208 0
1.78735 0.937047 0
4.01535 0.920637 0
1.85469 0.0674188 0
3.83991 0.0626292 0
3.37477 0.929368 0
2.58225 0.0657863 0
2.81746 0.932342 0
4.16667 0.0687322 0
2.11402 0.935574 0
0.0614266 0.197046 0
0.0612841 0.803003 0
4.88273 0.0644126 0
4.87774 0.933272 0
0.859645 0.426737 0
0.903081 0.436592 0
0.923672 0.473385 0
0.948706 0.439078 0
0.969155 0.479795 0
0.996593 0.439791 0
1.0202 0.484937 0
1.04667 0.440138 0
1.07382 0.489694 0
1.1034 0.440801 0
1.13169 0.49612 0
1.16603 0.445058 0
1.1931 0.504331 0
1.22956 0.450883 0
1.25923 0.506004 0
1.29683 0.453139 0
1.32923 0.510343 0
1.36603 0.454344 0
1.03276 0.530395 0
1.40063 0.516169 0
1.43576 0.454934 0
1.47042 0.520776 0
1.51069 0.46142 0
1.54422 0.526371 0
1.58547 0.465572 0
1.61942 0.531773 0
1.66033 0.468788 0
1.69546 0.536793 0
1.73713 0.472812 0
1.77239 0.541977 0
1.81532 0.478494 0
1.85006 0.547285 0
1.89327 0.483449 0
1.92802 0.55361 0
1.97142 0.488546 0
2.00623 0.558966 0
2.04984 0.493518 0
2.08483 0.564085 0
2.12847 0.498462 0
2.16353 0.569137 0
2.20719 0.503331 0
0.961579 0.391697 0
1.22451 0.565337 0
2.24238 0.574192 0
2.28611 0.508258 0
2.32134 0.579247 0
2.36519 0.513325 0
2.40036 0.584295 0
2.44425 0.51834 0
2.47944 0.589336 0
2.52334 0.523355 0
2.55853 0.594372 0
2.60245 0.52837 0
2.63764 0.599431 0
2.68159 0.533388 0
2.64637 0.462336 0
2.72553 0.467349 0
2.76076 0.538418 0
2.8047 0.47237 0
2.83993 0.543451 0
2.88387 0.477399 0
2.91911 0.548482 0
2.96305 0.482427 0
2.9983 0.553514 0
3.04224 0.487456 0
3.07749 0.558545 0
3.12143 0.492477 0
3.15668 0.563574 0
3.20063 0.497514 0
3.23588 0.568605 0
3.27983 0.502542 0
3.31508 0.573635 0
3.35903 0.507562 0
3.39428 0.578663 0
3.43823 0.5126 0
3.47348 0.583694 0
3.51744 0.517628 0
3.55268 0.588724 0
3.59664 0.522646 0
3.63189 0.593752 0
3.67585 0.527673 0
3.71109 0.598781 0
3.75505 0.532702 0
3.7903 0.60381 0
3.83426 0.537731 0
3.79901 0.466623 0
3.87821 0.471754 0
3.91346 0.542777 0
3.95742 0.476701 0
3.99267 0.547795 0
4.03662 0.481715 0
4.07187 0.552815 0
4.11582 0.486743 0
4.15106 0.55783 0
4.195 0.491782 0
4.23023 0.562843 0
4.27415 0.49682 0
4.30937 0.567866 0
4.35325 0.501915 0
4.38842 0.572845 0
4.43227 0.506997 0
4.46737 0.577575 0
4.51106 0.511995 0
4.54622 0.582183 0
1.13571 0.390292 0
4.47606 0.441361 0
4.55475 0.446396 0
2.32985 0.442214 0
3.5614 0.451571 0
3.08619 0.421408 0
2.09339 0.427815 0
1.42887 0.583001 0
2.84864 0.406329 0
3.32378 0.43649 0
4.23911 0.425894 0
1.54723 0.39251 0
1.77883 0.406811 0
1.33959 0.387065 0
3.92239 0.405803 0
4.08079 0.415776 0
2.48812 0.452349 0
1.57935 0.603183 0
1.93602 0.417543 0
1.72453 0.617973 0
3.11273 0.629643 0
2.69029 0.396284 0
3.94662 0.623383 0
1.88466 0.613248 0
2.79598 0.609502 0
4.10826 0.620575 0
2.04005 0.62838 0
2.95434 0.619575 0
4.51981 0.375801 0
4.59833 0.380943 0
4.63314 0.451296 0
4.26693 0.63114 0
2.19619 0.645921 0
4.4246 0.642296 0
3.27112 0.639707 0
2.35729 0.649822 0
2.51462 0.660373 0
3.42952 0.649769 0
4.67669 0.38601 0
3.58793 0.659829 0
3.74634 0.669888 0
4.64195 0.315733 0
4.44109 0.370647 0
4.48493 0.305066 0
4.40614 0.29989 0
4.71136 0.456133 0
4.72014 0.320758 0
0.8692 0.382093 0
0.841252 0.348256 0
0.886481 0.338703 0
0.853127 0.301457 0
0.902583 0.287335 0
0.801683 0.321689 0
0.818113 0.263019 0
0.764765 0.277091 0
4.44702 0.235678 0
0.946267 0.520761 0
0.78107 0.221265 0
0.726309 0.234724 0
0.848273 0.20551 0
4.68545 0.250576 0
4.37074 0.227561 0
4.76365 0.255792 0
4.79822 0.326145 0
0.713664 0.287231 0
0.672358 0.247957 0
0.68673 0.192342 0
0.630368 0.2085 0
0.616569 0.265341 0
0.574186 0.225456 0
0.557393 0.28131 0
0.52004 0.242373 0
0.504416 0.299685 0
0.462273 0.252096 0
0.44798 0.316739 0
0.404567 0.276951 0
0.390546 0.335414 0
0.434669 0.37657 0
0.377935 0.394545 0
0.421979 0.43426 0
0.365682 0.452846 0
0.409646 0.492216 0
0.353389 0.51089 0
0.397738 0.551598 0
0.339864 0.570301 0
0.385899 0.612153 0
0.325913 0.631557 0
0.344507 0.29318 0
0.320568 0.413067 0
0.373553 0.673852 0
0.434438 0.653082 0
0.311416 0.69481 0
0.449777 0.528305 0
0.293513 0.534612 0
0.421431 0.715204 0
0.480917 0.696603 0
0.54504 0.34471 0
0.262743 0.649913 0
0.246209 0.712341 0
0.468564 0.755948 0
0.526091 0.735423 0
0.538207 0.68039 0
0.581228 0.716342 0
0.408756 0.777952 0
0.36234 0.239019 0
0.297047 0.251925 0
0.572109 0.771575 0
0.624906 0.752173 0
0.474824 0.414151 0
0.534351 0.182707 0
0.633682 0.70159 0
0.674547 0.736174 0
0.66826 0.788959 0
0.721117 0.76834 0
0.714515 0.825486 0
0.769074 0.802008 0
0.775287 0.746591 0
0.821903 0.778625 0
0.826767 0.726064 0
0.873257 0.756032 0
0.872997 0.697261 0
0.92331 0.732304 0
0.930014 0.67838 0
0.976061 0.710612 0
0.92456 0.784469 0
0.982178 0.654421 0
1.03016 0.688004 0
1.02037 0.747059 0
1.08 0.723819 0
1.08651 0.661896 0
1.1397 0.698204 0
1.13262 0.763657 0
1.19424 0.736545 0
1.18556 0.80161 0
1.24839 0.771772 0
1.25723 0.706382 0
1.31432 0.745787 0
4.66801 0.521361 0
4.74602 0.526202 0
4.70285 0.591278 0
4.78076 0.596023 0
4.73763 0.661207 0
4.78904 0.460969 0
2.61113 0.391267 0
2.65506 0.325217 0
2.57588 0.320198 0
2.61982 0.254148 0
2.69899 0.259163 0
2.54065 0.249131 0
2.49672 0.315179 0
2.46148 0.244124 0
2.41757 0.310166 0
2.38233 0.239117 0
2.33843 0.30514 0
2.30297 0.237979 0
2.25928 0.300748 0
2.22079 0.221377 0
2.17969 0.293884 0
2.14114 0.224266 0
2.10047 0.289841 0
2.0653 0.219144 0
2.02202 0.284919 0
1.98701 0.214164 0
1.94336 0.279863 0
3.82315 0.673327 0
3.78135 0.738156 0
3.86451 0.735958 0
3.70234 0.735494 0
4.52513 0.244409 0
4.32717 0.294467 0
4.29217 0.221862 0
0.619934 0.539507 0
0.599432 0.577132 0
0.575955 0.542712 0
0.554504 0.58245 0
4.65962 0.656481 0
4.69438 0.726169 0
4.6161 0.721747 0
4.77259 0.731352 0
4.65076 0.791486 0
4.57153 0.788793 0
4.2482 0.289182 0
4.21307 0.218308 0
4.1691 0.284563 0
4.13394 0.21352 0
0.835918 0.606341 0
0.806475 0.6384 0
4.08995 0.279537 0
0.640355 0.426737 0
0.596214 0.435837 0
0.630358 0.379178 0
0.689967 0.627735 0
1.90832 0.209948 0
1.86468 0.27519 0
1.82968 0.20518 0
1.78607 0.269797 0
0.281841 0.313314 0
0.232117 0.268621 0
0.216861 0.334396 0
4.05473 0.209347 0
4.01077 0.2745 0
3.97554 0.204394 0
3.93159 0.269388 0
0.297409 0.759367 0
0.231645 0.782943 0
0.180008 0.73598 0
1.32151 0.676369 0
1.38055 0.718092 0
1.36901 0.793947 0
1.43945 0.766002 0
0.249902 0.198865 0
0.932364 0.624392 0
1.75117 0.201034 0
1.70771 0.264658 0
1.673 0.195402 0
1.62985 0.260294 0
1.59532 0.191927 0
1.55236 0.254233 0
3.89629 0.200227 0
3.85238 0.264494 0
3.81708 0.195303 0
3.77304 0.259453 0
2.66368 0.189084 0
2.74279 0.19534 0
2.77814 0.264556 0
2.82201 0.199823 0
2.85733 0.269552 0
2.90126 0.203886 0
2.93654 0.274416 0
2.98045 0.20868 0
3.01573 0.279376 0
3.0597 0.213193 0
[...]
CELL_DATA 2220
VECTORS velocity double
22.9823 -1.29767 0.0
16.8541 0.663806 0.0
24.8049 0.858813 0.0
19.027 2.23195 0.0
23.558 -1.49692 0.0
27.5905 -1.05037 0.0
14.455 0.639406 0.0
15.968 0.00666436 0.0
31.0546 2.88888 0.0
26.8961 -0.744824 0.0
19.448 0.596513 0.0
15.2035 0.404973 0.0
12.308 0.301341 0.0
26.7384 -2.39086 0.0
21.3995 -0.138481 0.0
26.8977 3.17479 0.0
16.4753 0.722114 0.0
13.5097 0.709194 0.0
15.0058 -0.178824 0.0
16.0176 -0.149337 0.0
20.986 0.597024 0.0
24.6767 3.6483 0.0
15.4523 0.761701 0.0
15.6866 0.753509 0.0
30.9345 -0.581323 0.0
24.7221 -2.18364 0.0
19.3365 0.999773 0.0
13.675 0.739436 0.0
18.784 2.10866 0.0
20.6104 1.57619 0.0
28.9189 -1.33689 0.0
25.1132 2.88489 0.0
11.4176 -0.163326 0.0
26.6188 1.06908 0.0
28.6436 -3.63679 0.0
27.9358 -1.13227 0.0
28.1801 -3.99823 0.0
13.1569 -0.166519 0.0
21.6902 2.41974 0.0
23.2321 1.84089 0.0
11.9778 0.556514 0.0
30.959 3.08004 0.0
16.1899 1.92549 0.0
14.7037 0.044873 0.0
13.416 0.0530346 0.0
12.1441 0.0504485 0.0
15.2173 0.75895 0.0
12.275 0.0140878 0.0
26.6784 -0.653212 0.0
29.2331 0.198452 0.0
17.1757 0.717447 0.0
12.128 0.160665 0.0
14.9312 0.789497 0.0
15.0371 0.181575 0.0
13.9747 0.650759 0.0
23.6627 1.64179 0.0
26.7686 3.02166 0.0
12.8826 0.694992 0.0
13.2841 0.700795 0.0
29.8006 0.0873198 0.0
0.372427 -4.80464 0.0
31.1615 -0.944641 0.0
29.6991 -1.91549 0.0
15.2486 0.813845 0.0
15.1994 0.768228 0.0
29.2222 0.992921 0.0
15.2723 -1.75622 0.0
28.5876 3.30675 0.0
13.1386 0.746224 0.0
13.2411 0.767659 0.0
14.9286 0.257032 0.0
27.4534 -1.46644 0.0
11.9084 0.244533 0.0
28.6804 0.623791 0.0
10.1516 0.41826 0.0
29.6653 2.68483 0.0
30.8225 2.06767 0.0
19.0665 -1.64337 0.0
30.9113 3.50623 0.0
14.3489 0.166527 0.0
20.2587 -0.839554 0.0
23.9934 -1.54181 0.0
11.4463 -0.279434 0.0
12.0178 0.157228 0.0
14.7819 0.593138 0.0
14.736 0.325303 0.0
21.5209 -1.47609 0.0
12.5216 0.289806 0.0
12.7119 0.486808 0.0
31.001 2.45646 0.0
5.36967 0.50925 0.0
19.3627 1.88864 0.0
15.0622 -0.224124 0.0
27.3417 2.97595 0.0
30.0867 2.82462 0.0
22.9924 -1.66352 0.0
23.9899 -3.84799 0.0
11.7345 -1.1343 0.0
1.46171 -3.8057 0.0
26.0907 -0.48972 0.0
6.06868 -0.836412 0.0
22.9036 -2.04719 0.0
15.0305 0.714315 0.0
13.4204 0.997657 0.0
27.6126 3.86564 0.0
29.2048 3.13166 0.0
27.8503 -0.918449 0.0
30.806 -0.934796 0.0
4.79693 -0.0833411 0.0
15.6496 1.07422 0.0
22.819 1.55738 0.0
29.2496 -2.05038 0.0
27.5431 -0.761227 0.0
8.85598 -0.894697 0.0
31.1217 -1.49042 0.0
12.9869 0.637884 0.0
25.4262 -2.34015 0.0
14.1042 -0.518968 0.0
6.14372 -0.0868691 0.0
30.8826 1.88045 0.0
18.236 -1.58069 0.0
25.8803 -1.17325 0.0
15.2661 1.33385 0.0
19.8491 3.1078 0.0
29.9046 -3.60269 0.0
22.6966 -2.74851 0.0
27.6925 2.90609 0.0
17.9626 1.36867 0.0
29.2188 -2.79104 0.0
13.3259 1.63863 0.0
13.2887 0.993685 0.0
15.3382 -1.97798 0.0
9.25925 -1.31611 0.0
16.9018 4.96307 0.0
21.3892 2.32714 0.0
14.2968 5.41041 0.0
11.222 0.00225711 0.0
18.7871 -0.336272 0.0
24.1117 -2.84363 0.0
25.5774 3.02352 0.0
21.3527 -0.893265 0.0
14.4539 -0.034496 0.0
31.1448 -1.80806 0.0
30.9106 -3.9925 0.0
28.0316 0.61441 0.0
24.7069 2.64222 0.0
7.8968 1.07069 0.0
11.9802 -0.631403 0.0
30.5534 1.54547 0.0
30.6072 -1.2707 0.0
13.1355 -0.16952 0.0
30.2221 1.85724 0.0
26.085 -0.00768876 0.0
18.3817 2.80962 0.0
8.92903 4.65244 0.0
16.3425 0.327422 0.0
17.3931 -2.04945 0.0
16.8517 0.524836 0.0
9.02432 -0.965492 0.0
17.3527 -1.31472 0.0
16.6785 -2.99321 0.0
13.1657 0.0688873 0.0
7.49468 -1.06653 0.0
25.131 -2.79735 0.0
11.8424 0.147181 0.0
25.2046 1.85751 0.0
26.1553 -2.01586 0.0
28.0275 -1.13701 0.0
16.2333 0.23934 0.0
9.7347 -1.95357 0.0
8.85079 1.40793 0.0
11.8079 0.0928425 0.0
14.8569 0.127631 0.0
12.7282 -1.60763 0.0
20.3979 -1.364 0.0
31.0269 3.50179 0.0
30.1753 1.92433 0.0
30.2376 3.25109 0.0
9.54204 -0.672014 0.0
16.1682 0.111397 0.0
25.4392 -0.441739 0.0
17.7629 -0.935332 0.0
5.80894 1.16669 0.0
14.9008 2.07251 0.0
16.3122 0.017631 0.0
30.4859 -0.895912 0.0
26.0607 0.124987 0.0
13.302 -0.161292 0.0
24.9647 -3.71746 0.0
27.8498 -0.395128 0.0
10.6606 -1.17103 0.0
12.9352 -0.262598 0.0
30.3597 -2.51927 0.0
30.3544 1.31781 0.0
17.5979 -1.87655 0.0
26.0247 0.830651 0.0
20.9135 0.728843 0.0
14.8734 -0.263367 0.0
5.26903 -0.50689 0.0
15.3299 -0.305498 0.0
15.3685 -2.40247 0.0
19.6873 -0.425892 0.0
27.1026 2.5966 0.0
15.3227 0.0277993 0.0
12.14 -0.43261 0.0
21.755 -1.91987 0.0
21.7214 -0.0536946 0.0
14.2236 0.10159 0.0
21.2309 0.778534 0.0
9.02611 -0.714721 0.0
14.9792 0.729468 0.0
10.5202 -0.436281 0.0
20.2633 -0.229557 0.0
30.2252 3.40047 0.0
31.127 2.60431 0.0
16.566 1.23111 0.0
12.8686 0.671691 0.0
15.1674 0.846442 0.0
9.86109 0.357529 0.0
10.4932 -0.181145 0.0
27.5428 0.372982 0.0
7.59332 -0.146113 0.0
12.9697 0.779032 0.0
7.28454 -0.0295797 0.0
15.1998 0.02043 0.0
18.025 -0.558126 0.0
15.8695 -1.32751 0.0
18.1555 -0.844631 0.0
25.7357 -0.129146 0.0
9.40502 1.02016 0.0
18.8659 0.774214 0.0
20.3702 -1.046 0.0
10.7615 -0.0243118 0.0
15.6303 -0.0494893 0.0
9.60497 -0.926542 0.0
29.3628 0.0152515 0.0
19.176 -1.77323 0.0
14.9617 -0.265074 0.0
14.8695 -0.299566 0.0
13.4833 -0.0281793 0.0
30.9828 -3.74411 0.0
25.8604 -3.36662 0.0
29.8942 4.08927 0.0
8.13917 0.00355487 0.0
15.7328 4.48449 0.0
27.8296 -0.0953776 0.0
16.3284 -0.0685956 0.0
23.9273 -1.14038 0.0
7.17068 5.72558 0.0
16.7013 1.95312 0.0
14.3638 -4.57771 0.0
8.12469 -0.0785667 0.0
26.0488 -2.47642 0.0
26.6525 -0.170633 0.0
30.5144 -2.92884 0.0
14.7676 0.4311 0.0
8.75249 0.169602 0.0
27.349 0.0924769 0.0
17.8779 1.82553 0.0
29.55 1.36999 0.0
16.6562 -0.378172 0.0
26.5113 -0.810228 0.0
9.22742 1.03116 0.0
20.3639 -1.44439 0.0
8.01297 -0.412058 0.0
6.61946 -0.0827097 0.0
14.2454 -0.459472 0.0
23.2706 -1.43135 0.0
19.4741 1.34269 0.0
28.1131 -0.15634 0.0
26.1842 0.820149 0.0
26.7827 0.0127097 0.0
12.6044 0.360481 0.0
27.6487 -1.37531 0.0
16.2815 -2.09639 0.0
30.2319 4.10576 0.0
10.8523 1.86268 0.0
26.4508 -0.852689 0.0
15.8112 1.52239 0.0
10.9136 0.121057 0.0
18.9095 -2.14145 0.0
20.3599 -2.07256 0.0
30.8461 3.88165 0.0
20.0961 0.737612 0.0
27.2437 -1.27219 0.0
18.6938 -0.284654 0.0
27.0769 -3.28101 0.0
19.4632 0.719379 0.0
13.0168 -0.22394 0.0
12.6275 -0.254333 0.0
8.71135 -0.326734 0.0
14.8712 -0.843361 0.0
9.50858 0.887883 0.0
17.5468 -2.98718 0.0
17.267 -1.11844 0.0
18.901 -0.25145 0.0
19.1116 -0.220368 0.0
16.7285 0.481127 0.0
30.9644 4.01765 0.0
31.2308 2.65292 0.0
11.9418 -0.490804 0.0
31.2493 3.5133 0.0
27.1329 -1.80156 0.0
6.2514 0.0816987 0.0
27.0133 -3.0425 0.0
16.0088 0.638627 0.0
12.3716 -0.0273532 0.0
12.7771 -0.272893 0.0
12.9677 0.382573 0.0
8.62501 0.79219 0.0
11.2896 0.0572456 0.0
10.3467 1.34306 0.0
11.5012 1.12154 0.0
30.9755 4.0811 0.0
25.6348 -2.07583 0.0
14.6491 -0.275416 0.0
30.5043 2.94888 0.0
9.98514 0.940615 0.0
30.0689 -2.16557 0.0
31.1314 2.96975 0.0
11.5991 -1.98513 0.0
14.9197 0.998771 0.0
26.9254 0.138427 0.0
10.1489 -0.849989 0.0
10.9837 2.8979 0.0
10.5565 -0.171619 0.0
26.8464 0.103697 0.0
27.0145 0.873166 0.0
28.088 0.353553 0.0
10.1438 -0.47666 0.0
28.4284 -3.27794 0.0
31.2327 -4.34313 0.0
27.5435 -1.46871 0.0
9.14041 -0.940331 0.0
30.9388 -0.142446 0.0
30.6729 -3.24303 0.0
19.5801 -2.28711 0.0
30.9318 3.51433 0.0
26.1002 -1.85415 0.0
14.7877 -0.300678 0.0
7.09851 -0.125653 0.0
13.2507 -0.312146 0.0
5.83476 0.446308 0.0
5.97661 0.017291 0.0
11.8751 -1.60055 0.0
31.105 3.39589 0.0
10.2524 2.48175 0.0
30.4971 3.32691 0.0
30.4616 2.32147 0.0
5.609 -0.299189 0.0
31.1851 1.29772 0.0
4.77579 0.182449 0.0
5.79261 -0.386507 0.0
24.7143 2.93859 0.0
7.89626 0.660165 0.0
29.651 -1.54609 0.0
30.6767 1.61024 0.0
4.59063 -0.2571 0.0
26.5562 0.60515 0.0
23.94 -2.92187 0.0
29.5365 2.42032 0.0
11.7917 0.673549 0.0
23.8967 1.89324 0.0
29.9815 2.90097 0.0
5.14407 0.546262 0.0
30.1802 0.383652 0.0
27.0441 -4.1278 0.0
5.21749 -0.39105 0.0
5.39054 -0.506023 0.0
26.82 -1.61165 0.0
5.37582 0.428992 0.0
25.1102 3.58124 0.0
29.9341 -1.63207 0.0
16.6481 -0.567931 0.0
6.98692 -0.0796057 0.0
10.6641 0.493169 0.0
20.2678 0.513513 0.0
20.3559 0.174532 0.0
29.5759 -0.755505 0.0
19.1699 -0.158879 0.0
11.2535 -0.746736 0.0
30.3996 3.29421 0.0
30.327 -2.84698 0.0
27.6652 0.193027 0.0
30.0909 3.24042 0.0
26.2144 -0.123522 0.0
30.9228 3.68249 0.0
26.8062 0.105485 0.0
25.2712 -1.94245 0.0
29.1341 1.9689 0.0
8.78873 0.938581 0.0
25.6993 0.0413697 0.0
22.5414 -0.846455 0.0
29.8357 -2.59195 0.0
7.82791 -0.885244 0.0
14.9738 -1.20524 0.0
29.4712 0.641595 0.0
7.52607 0.718982 0.0
26.7732 0.120278 0.0
29.8282 2.39754 0.0
6.15072 0.266113 0.0
23.3326 -0.626767 0.0
29.1171 2.66628 0.0
27.0814 0.0483911 0.0
27.6278 -3.88899 0.0
30.5532 -4.23795 0.0
7.18 2.43794 0.0
8.2289 0.715279 0.0
18.606 -1.41955 0.0
30.3706 -1.66866 0.0
22.7102 -2.48855 0.0
5.73926 0.0537428 0.0
30.4005 3.71274 0.0
30.8327 -2.73383 0.0
29.8705 -2.00957 0.0
27.1597 0.0437661 0.0
3.5776 -0.163983 0.0
4.8784 0.426906 0.0
29.9321 2.81623 0.0
5.46354 0.522516 0.0
31.0897 3.27378 0.0
29.4365 2.47785 0.0
3.62864 0.00241383 0.0
5.44908 -0.448886 0.0
28.6296 2.22219 0.0
25.3802 0.34141 0.0
3.49312 0.169411 0.0
23.3718 -0.158839 0.0
26.8031 0.160053 0.0
8.59462 -0.638458 0.0
27.0692 0.0840412 0.0
26.753 2.20046 0.0
30.2691 -2.97532 0.0
28.5109 1.63395 0.0
5.90686 -0.574271 0.0
25.5587 -4.12477 0.0
5.94733 -0.150907 0.0
5.7841 0.438701 0.0
27.8011 -3.17924 0.0
5.53417 0.592099 0.0
27.3058 2.58979 0.0
28.2023 1.85112 0.0
31.4349 -3.44625 0.0
31.2114 -4.35802 0.0
9.284 -1.03287 0.0
18.291 0.0820507 0.0
29.5772 1.81352 0.0
4.75639 -0.313617 0.0
4.37119 0.35486 0.0
13.628 -0.768541 0.0
9.05517 0.922236 0.0
27.0931 -0.593052 0.0
6.22695 -0.413083 0.0
18.5672 0.865689 0.0
28.7588 0.986541 0.0
7.72268 0.61876 0.0
10.3325 0.712394 0.0
29.6303 3.10345 0.0
5.99917 0.374226 0.0
27.6758 1.25021 0.0
26.1899 1.85554 0.0
25.9997 0.306135 0.0
5.43579 -0.548973 0.0
4.2236 0.398499 0.0
7.38239 -0.321289 0.0
20.5243 -0.150181 0.0
11.2425 -0.828133 0.0
27.1252 0.128537 0.0
3.53922 0.0953188 0.0
31.5853 -4.26683 0.0
8.31788 -0.281664 0.0
4.37821 0.369146 0.0
12.8155 -1.45757 0.0
30.2399 3.41115 0.0
8.23446 -0.550989 0.0
25.8973 0.252239 0.0
27.3612 1.50597 0.0
22.6853 -0.274233 0.0
26.908 0.197046 0.0
25.5589 1.55713 0.0
17.3682 -1.37287 0.0
31.1899 0.484961 0.0
30.1233 -2.09512 0.0
24.9397 1.26093 0.0
5.82622 -0.634849 0.0
6.21277 0.658116 0.0
29.4459 -0.770529 0.0
4.07336 0.310137 0.0
26.5942 -3.22091 0.0
18.9487 3.55735 0.0
27.0419 0.207285 0.0
4.20525 0.335836 0.0
4.89877 -0.354182 0.0
26.6972 1.14674 0.0
30.7275 3.43866 0.0
20.9096 -0.17778 0.0
23.0681 -1.33049 0.0
24.7537 0.0854288 0.0
20.8022 -1.18496 0.0
16.2996 -4.18078 0.0
24.6745 -0.133834 0.0
25.3059 1.98162 0.0
4.44988 -0.181632 0.0
24.4529 0.974857 0.0
22.3663 2.64588 0.0
13.4054 -0.370415 0.0
27.1873 0.224851 0.0
3.84961 -0.391688 0.0
4.25241 0.400964 0.0
25.8538 2.33382 0.0
25.2064 -0.157241 0.0
24.7604 -0.74267 0.0
15.3503 -0.157463 0.0
26.3116 0.608219 0.0
27.2312 0.161978 0.0
30.8293 -2.14618 0.0
5.3045 0.85148 0.0
26.2194 0.425405 0.0
30.4937 -2.26551 0.0
24.1482 1.41232 0.0
24.3911 1.84197 0.0
10.0424 -1.39746 0.0
29.7095 -0.0271097 0.0
7.40235 -3.2691 0.0
28.3452 -1.56588 0.0
26.1008 -0.85359 0.0
30.8952 2.47749 0.0
26.6244 0.822174 0.0
5.50913 -0.739561 0.0
24.1287 0.73984 0.0
25.1718 1.00131 0.0
23.6217 1.15511 0.0
27.6953 0.108 0.0
24.743 1.67931 0.0
25.7996 0.586047 0.0
19.9859 -0.844491 0.0
23.1982 0.89926 0.0
10.82 -2.14342 0.0
29.8013 -2.44254 0.0
12.4404 -0.149125 0.0
22.8478 -2.24786 0.0
9.73564 -4.14594 0.0
30.5834 -2.38937 0.0
27.4078 0.136897 0.0
2.68273 -0.268364 0.0
2.75278 0.274614 0.0
25.5187 0.432856 0.0
29.4951 2.85373 0.0
23.9287 0.577543 0.0
20.6928 2.39583 0.0
4.98898 -0.117858 0.0
7.87558 -0.189715 0.0
6.51815 0.382095 0.0
3.92345 1.29366 0.0
7.8339 -2.22298 0.0
30.8714 -2.72623 0.0
27.7605 0.0871105 0.0
30.8137 -3.57919 0.0
1.52378 0.72994 0.0
21.9291 -0.0696691 0.0
23.0396 -0.0772658 0.0
23.5023 -1.50974 0.0
21.3049 3.22989 0.0
1.6977 -0.71684 0.0
4.21715 -1.18226 0.0
20.5303 0.480109 0.0
16.5383 1.03633 0.0
23.2853 0.906856 0.0
18.2638 -1.39652 0.0
25.3113 -0.0664415 0.0
29.1407 2.12817 0.0
25.9453 -0.0647719 0.0
23.2601 2.39962 0.0
27.2087 0.114964 0.0
3.47032 -0.277487 0.0
31.2954 3.34677 0.0
27.4913 0.282277 0.0
25.8798 0.253511 0.0
27.4502 0.0828881 0.0
25.315 -0.96159 0.0
3.34651 0.200608 0.0
27.3284 0.0652495 0.0
6.2116 -0.437812 0.0
13.6828 1.10147 0.0
19.7477 -0.0566207 0.0
23.8119 0.491019 0.0
23.0518 0.701694 0.0
27.1177 0.549639 0.0
27.282 0.516757 0.0
27.0438 0.670465 0.0
3.94482 0.257951 0.0
7.2581 0.453564 0.0
6.58344 -0.260181 0.0
27.3279 0.252714 0.0
25.3405 0.310394 0.0
31.3892 -4.31555 0.0
6.07286 0.537669 0.0
26.4949 0.020817 0.0
25.8578 1.32005 0.0
13.0373 4.18346 0.0
25.6268 -0.0345777 0.0
3.07813 0.327377 0.0
24.8933 -0.0799219 0.0
25.5387 -0.369819 0.0
25.3326 -0.421643 0.0
20.0086 -0.290737 0.0
18.7198 -0.283804 0.0
24.5864 -0.127234 0.0
6.68816 0.20566 0.0
29.8971 3.60324 0.0
27.1875 0.100656 0.0
26.1769 -0.184702 0.0
25.9446 0.283269 0.0
23.8081 0.451521 0.0
14.615 0.0107991 0.0
25.373 0.323559 0.0
30.7525 -1.53562 0.0
27.1775 0.0608085 0.0
7.68456 0.27987 0.0
24.7881 1.86236 0.0
3.27808 -0.293984 0.0
27.444 0.385749 0.0
27.3394 0.366 0.0
23.8772 0.448697 0.0
2.52469 0.51561 0.0
31.0809 -0.968722 0.0
27.3936 0.0924849 0.0
27.0693 0.599025 0.0
25.2974 -0.0765028 0.0
27.0257 -0.121108 0.0
26.0901 0.310498 0.0
27.2202 0.271766 0.0
27.4916 0.247076 0.0
27.341 0.165787 0.0
24.0543 0.472499 0.0
3.72718 0.177777 0.0
11.8447 0.540996 0.0
27.1328 -0.158294 0.0
28.9908 3.15957 0.0
2.70589 -0.483851 0.0
6.87928 -0.170035 0.0
29.932 -2.82052 0.0
25.7059 1.28064 0.0
25.5033 0.356205 0.0
12.4545 -0.302859 0.0
25.8785 -0.161448 0.0
26.2898 -0.118688 0.0
20.6467 3.60048 0.0
6.78624 0.317047 0.0
3.5801 -0.173998 0.0
30.2907 -1.85904 0.0
23.0978 2.09488 0.0
26.0218 -0.958103 0.0
27.4309 0.371833 0.0
11.1823 0.117826 0.0
25.6987 0.364346 0.0
22.9096 0.591692 0.0
27.02 -0.0362772 0.0
3.42757 0.223371 0.0
26.2802 0.296676 0.0
27.1042 0.0128008 0.0
3.94838 -0.0831579 0.0
24.3214 0.469087 0.0
27.1615 0.175458 0.0
27.3785 0.46498 0.0
26.5699 0.119041 0.0
26.1714 -0.178067 0.0
27.3202 0.0478847 0.0
24.4802 -0.573768 0.0
26.4424 -0.150483 0.0
26.4752 0.218955 0.0
26.1881 0.0696298 0.0
25.7701 -0.214206 0.0
3.78351 -0.107409 0.0
27.3206 0.166078 0.0
25.6909 -0.254436 0.0
4.8994 0.17923 0.0
27.2218 0.000750195 0.0
7.55701 0.319666 0.0
25.9349 0.295612 0.0
26.0892 -0.224982 0.0
27.3978 0.415208 0.0
26.8355 -0.134049 0.0
26.5771 0.0431178 0.0
27.2826 0.363479 0.0
14.4309 0.25372 0.0
24.9506 0.179991 0.0
23.9835 0.730607 0.0
24.5954 0.355994 0.0
3.5539 -0.0238897 0.0
26.9437 0.28415 0.0
26.1205 0.169128 0.0
24.0458 -1.87868 0.0
3.20424 -0.30368 0.0
22.9481 0.503063 0.0
3.15096 0.223965 0.0
23.0047 -1.89882 0.0
24.7846 0.782808 0.0
23.0961 0.508563 0.0
25.0574 -0.134611 0.0
25.6318 -0.273992 0.0
23.3847 0.527568 0.0
26.4981 -0.0623841 0.0
27.4199 -2.92298 0.0
23.0197 -2.00797 0.0
25.9415 -0.0148705 0.0
27.3056 0.469322 0.0
27.3551 0.46169 0.0
27.3933 0.398523 0.0
26.031 -0.254393 0.0
27.5102 0.410722 0.0
23.8337 -0.153466 0.0
27.5331 0.350431 0.0
25.4079 -0.135745 0.0
25.0445 0.0617719 0.0
13.7711 0.444998 0.0
26.6118 0.197984 0.0
27.5471 0.382721 0.0
22.7128 -0.412861 0.0
27.3667 0.400126 0.0
25.9919 -0.256458 0.0
25.5929 -0.257982 0.0
3.89462 0.156074 0.0
26.1902 0.00227857 0.0
22.8896 0.534955 0.0
27.6526 0.355291 0.0
21.4639 0.0144574 0.0
7.92966 0.291992 0.0
25.1002 -0.0172448 0.0
27.4418 0.285229 0.0
24.0372 0.265365 0.0
23.3361 -0.15085 0.0
25.5655 -0.193018 0.0
27.4846 0.130029 0.0
25.9695 -0.21921 0.0
24.3134 0.116993 0.0
18.902 2.88714 0.0
27.1252 -0.0515283 0.0
27.7115 0.316198 0.0
27.2141 0.528404 0.0
13.4916 -0.079002 0.0
26.17 -0.0505009 0.0
22.6813 -0.183484 0.0
4.33988 0.175456 0.0
7.32919 0.34003 0.0
25.9462 -0.141286 0.0
27.2299 0.340598 0.0
24.6393 -0.282088 0.0
25.525 -0.0917711 0.0
27.6167 0.21828 0.0
24.8803 -0.189845 0.0
25.1364 -0.0756486 0.0
25.438 0.0168743 0.0
22.7482 -0.20448 0.0
24.3644 -0.177625 0.0
27.7818 0.238871 0.0
22.9919 -0.172115 0.0
27.6198 0.165215 0.0
24.5444 -0.307699 0.0
25.2178 -0.233162 0.0
24.1952 -0.226982 0.0
22.5394 -0.245961 0.0
27.1097 0.340115 0.0
25.8957 -0.0424234 0.0
5.3383 0.201894 0.0
8.09478 0.29202 0.0
27.6374 0.0427863 0.0
27.4512 -0.0405348 0.0
23.6344 0.496087 0.0
24.2521 0.0421757 0.0
24.4854 -0.0576192 0.0
27.4387 0.432314 0.0
25.2717 0.103872 0.0
27.0805 0.55255 0.0
26.5436 -0.0126073 0.0
22.3595 -0.291859 0.0
23.8395 -0.327459 0.0
24.4034 0.0126846 0.0
25.7913 0.0495734 0.0
27.834 0.175568 0.0
26.944 -0.0875722 0.0
24.061 -0.273448 0.0
29.327 1.41502 0.0
21.6537 -0.231131 0.0
23.942 -0.312846 0.0
22.205 -0.341013 0.0
26.4107 0.748001 0.0
25.0304 0.138689 0.0
25.619 0.105254 0.0
24.4821 -0.291513 0.0
21.9068 -0.198341 0.0
23.6231 -0.00937004 0.0
27.5291 0.330617 0.0
22.0552 -0.367553 0.0
23.776 -0.272374 0.0
24.7803 0.102445 0.0
15.4345 0.233266 0.0
26.7852 0.282817 0.0
21.9089 -0.298509 0.0
13.6055 0.166794 0.0
21.4405 -0.272512 0.0
25.408 0.100663 0.0
21.8463 -0.141181 0.0
23.7117 -0.152774 0.0
22.216 -0.184157 0.0
3.83085 -0.0696834 0.0
6.94687 -0.125177 0.0
15.3073 0.329431 0.0
24.7344 -0.24294 0.0
24.3728 -0.0877841 0.0
24.5927 0.0184173 0.0
25.2193 0.0375213 0.0
21.7155 0.0232935 0.0
7.93605 0.152863 0.0
27.707 0.227857 0.0
7.11489 -0.136059 0.0
27.8345 0.0514919 0.0
24.5254 -0.0708146 0.0
21.2477 -0.322473 0.0
24.0159 0.146874 0.0
21.0228 -0.37627 0.0
27.8389 -0.0494937 0.0
23.6675 0.197497 0.0
3.95504 -0.071402 0.0
7.02515 -0.135338 0.0
24.4352 -0.210926 0.0
4.32099 0.0933467 0.0
25.1069 -0.056157 0.0
20.8678 -0.359887 0.0
20.7572 -0.216094 0.0
23.4304 0.116904 0.0
24.9752 -0.110507 0.0
27.7522 -0.0198437 0.0
23.3241 0.16604 0.0
23.0662 0.0730824 0.0
7.06754 -0.118069 0.0
4.10483 -0.071867 0.0
13.0045 0.274256 0.0
20.6351 -0.0323562 0.0
23.0663 0.206701 0.0
24.7458 -0.239732 0.0
22.6407 0.228242 0.0
25.6715 -0.0317373 0.0
13.2236 0.301364 0.0
22.2779 0.149278 0.0
25.1371 -0.132452 0.0
22.9508 -0.00801384 0.0
7.19585 0.153764 0.0
3.73418 -0.0448764 0.0
3.15332 -0.0734918 0.0
3.99272 -0.0652496 0.0
7.09627 -0.0364698 0.0
7.55845 0.163012 0.0
3.44608 -0.0171387 0.0
3.90017 0.00267297 0.0
6.91948 -0.121699 0.0
3.76496 -0.0468907 0.0
4.05716 -0.0358343 0.0
4.32815 0.128088 0.0
7.57328 -0.122212 0.0
4.17551 0.0846154 0.0
6.80952 -0.0773095 0.0
4.02292 0.0827504 0.0
7.26852 -0.0560863 0.0
7.09299 0.00680827 0.0
3.89444 0.148939 0.0
7.83896 0.184761 0.0
6.91776 -0.101333 0.0
6.75101 -0.100712 0.0
3.98444 0.224353 0.0
6.58186 -0.0597506 0.0
7.05703 0.205529 0.0
3.72265 0.00587233 0.0
6.8703 -0.0598313 0.0
4.19037 0.037226 0.0
3.74196 0.0974153 0.0
6.61556 -0.137566 0.0
3.99249 0.165301 0.0
4.85375 0.102502 0.0
4.05692 0.253997 0.0
3.44989 0.0860601 0.0
3.68342 -0.0130593 0.0
6.95518 0.0301556 0.0
3.85921 -0.0704524 0.0
3.94685 -0.0704485 0.0
4.08396 0.172465 0.0
4.14103 0.153376 0.0
4.02538 0.0211091 0.0
3.92716 0.0620636 0.0
3.36412 -0.0709814 0.0
3.79731 -0.0384914 0.0
4.73473 0.00260679 0.0
7.73239 -0.0107206 0.0
4.14545 -0.0480344 0.0
4.91436 0.0851665 0.0
6.6562 0.172955 0.0
6.44349 -0.156341 0.0
3.7737 -0.0640453 0.0
4.11565 0.194354 0.0
3.84447 0.0465579 0.0
7.23802 0.0586218 0.0
3.61983 0.104482 0.0
4.01534 0.0859843 0.0
3.7311 -0.061791 0.0
7.26684 0.317209 0.0
4.58142 -0.0839212 0.0
3.3325 0.0275112 0.0
3.77697 0.02665 0.0
3.20005 0.0506512 0.0
4.1437 0.0859405 0.0
4.16529 -0.0177548 0.0
6.1249 -0.0654847 0.0
2.86998 -0.0242493 0.0
7.09018 0.322934 0.0
7.34406 0.142319 0.0
25.0558 -0.136229 0.0
24.6549 -0.105795 0.0
26.4547 -0.110749 0.0
22.0704 0.0502549 0.0
27.2976 -0.275884 0.0
27.5639 -0.13132 0.0
21.9654 0.0166388 0.0
27.387 -0.293631 0.0
27.6868 -0.25032 0.0
27.4705 -0.314478 0.0
27.7568 -0.155225 0.0
23.0593 -0.00435096 0.0
24.9943 -0.0992551 0.0
27.5759 -0.280727 0.0
24.3605 -0.117158 0.0
27.1965 -0.191192 0.0
25.3706 -0.156585 0.0
27.1701 -0.149219 0.0
26.3099 -0.234282 0.0
26.507 -0.260611 0.0
19.6145 0.118948 0.0
27.3004 -0.324858 0.0
27.557 -0.173251 0.0
26.8056 -0.244276 0.0
27.5648 -0.264871 0.0
21.7584 -0.0991632 0.0
26.1421 -0.0993763 0.0
24.8641 -0.0904122 0.0
27.2889 -0.312539 0.0