# vtk DataFile Version 3.0
Malha 2D com triângulos e temperatura
ASCII
DATASET UNSTRUCTURED_GRID

POINTS 1194 double
0 0 0
5 0 0
5 1 0
0 1 0
0.85 0.5 0
0.842388 0.538268 0
0.820711 0.570711 0
0.788268 0.592388 0
0.75 0.6 0
0.711732 0.592388 0
0.679289 0.570711 0
0.657612 0.538268 0
0.65 0.5 0
0.657612 0.461732 0
0.679289 0.429289 0
0.711732 0.407612 0
0.75 0.4 0
0.788268 0.407612 0
0.820711 0.429289 0
0.842388 0.461732 0
0.0793651 0 0
0.15873 0 0
0.238095 0 0
0.31746 0 0
0.396825 0 0
0.47619 0 0
0.555556 0 0
0.634921 0 0
0.714286 0 0
0.793651 0 0
0.873016 0 0
0.952381 0 0
1.03175 0 0
1.11111 0 0
1.19048 0 0
1.26984 0 0
1.34921 0 0
1.42857 0 0
1.50794 0 0
1.5873 0 0
1.66667 0 0
1.74603 0 0
1.8254 0 0
1.90476 0 0
1.98413 0 0
2.06349 0 0
2.14286 0 0
2.22222 0 0
2.30159 0 0
2.38095 0 0
2.46032 0 0
2.53968 0 0
2.61905 0 0
2.69841 0 0
2.77778 0 0
2.85714 0 0
2.93651 0 0
3.01587 0 0
3.09524 0 0
3.1746 0 0
3.25397 0 0
3.33333 0 0
3.4127 0 0
3.49206 0 0
3.57143 0 0
3.65079 0 0
3.73016 0 0
3.80952 0 0
3.88889 0 0
3.96825 0 0
4.04762 0 0
4.12698 0 0
4.20635 0 0
4.28571 0 0
4.36508 0 0
4.44444 0 0
4.52381 0 0
4.60317 0 0
4.68254 0 0
4.7619 0 0
4.84127 0 0
4.92063 0 0
5 0.0769231 0
5 0.153846 0
5 0.230769 0
5 0.307692 0
5 0.384615 0
5 0.461538 0
5 0.538462 0
5 0.615385 0
5 0.692308 0
5 0.769231 0
5 0.846154 0
5 0.923077 0
4.92063 1 0
4.84127 1 0
4.7619 1 0
4.68254 1 0
4.60317 1 0
4.52381 1 0
4.44444 1 0
4.36508 1 0
4.28571 1 0
4.20635 1 0
4.12698 1 0
4.04762 1 0
3.96825 1 0
3.88889 1 0
3.80952 1 0
3.73016 1 0
3.65079 1 0
3.57143 1 0
3.49206 1 0
3.4127 1 0
3.33333 1 0
3.25397 1 0
3.1746 1 0
3.09524 1 0
3.01587 1 0
2.93651 1 0
2.85714 1 0
2.77778 1 0
2.69841 1 0
2.61905 1 0
2.53968 1 0
2.46032 1 0
2.38095 1 0
2.30159 1 0
2.22222 1 0
2.14286 1 0
2.06349 1 0
1.98413 1 0
1.90476 1 0
1.8254 1 0
1.74603 1 0
1.66667 1 0
1.5873 1 0
1.50794 1 0
1.42857 1 0
1.34921 1 0
1.26984 1 0
1.19048 1 0
1.11111 1 0
1.03175 1 0
0.952381 1 0
0.873016 1 0
0.793651 1 0
0.714286 1 0
0.634921 1 0
0.555556 1 0
0.47619 1 0
0.396825 1 0
0.31746 1 0
0.238095 1 0
0.15873 1 0
0.0793651 1 0
0 0.923077 0
0 0.846154 0
0 0.769231 0
0 0.692308 0
0 0.615385 0
0 0.538462 0
0 0.461538 0
0 0.384615 0
0 0.307692 0
0 0.230769 0
0 0.153846 0
0 0.0769231 0
0.879698 0.466718 0
1.3085 0.931947 0
1.30532 0.0638546 0
4.93832 0.504275 0
0.620452 0.46964 0
3.99858 0.0669607 0
1.63721 0.934258 0
3.3751 0.0523709 0
4.3254 0.0687322 0
2.42354 0.0642082 0
2.97619 0.0687322 0
2.02101 0.0693621 0
3.68108 0.0581336 0
2.65899 0.932655 0
4.178 0.939994 0
3.21614 0.938179 0
2.25483 0.919987 0
3.53215 0.928998 0
3.84921 0.931268 0
1.69647 0.0674297 0
1.94349 0.930209 0
4.48413 0.931268 0
2.97813 0.942022 0
2.74097 0.0673855 0
0.859645 0.573263 0
0.639718 0.573116 0
0.0651563 0.652836 0
0.0635304 0.346121 0
4.56232 0.0679683 0
0.830393 0.392645 0
0.669618 0.39275 0
1.06185 0.0668897 0
0.440193 0.0680031 0
1.06474 0.93511 0
0.446074 0.935974 0
0.724697 0.630698 0
4.72268 0.931235 0
4.93065 0.267192 0
0.589836 0.936152 0
0.92338 0.0562425 0
0.590207 0.0623339 0
0.755872 0.0732784 0
0.838039 0.936714 0
4.92573 0.732039 0
0.281717 0.93783 0
0.28208 0.0811877 0
0.065248 0.503161 0
1.46076 0.0637037 0
4.72574 0.0661877 0
4.31028 0.937908 0
3.21429 0.0687322 0
1.46639 0.932632 0
3.6897 0.928155 0
2.42063 0.931268 0
3.5364 0.0691789 0
2.25998 0.0676208 0
1.78735 0.937047 0
4.01535 0.920637 0
1.85469 0.0674188 0
3.83991 0.0626292 0
3.37477 0.929368 0
2.58225 0.0657863 0
2.81746 0.932342 0
4.16667 0.0687322 0
2.11402 0.935574 0
0.0614266 0.197046 0
0.0612841 0.803003 0
4.88273 0.0644126 0
4.87774 0.933272 0
0.859645 0.426737 0
0.903081 0.436592 0
0.923672 0.473385 0
0.948706 0.439078 0
0.969155 0.479795 0
0.996593 0.439791 0
1.0202 0.484937 0
1.04667 0.440138 0
1.07382 0.489694 0
1.1034 0.440801 0
1.13169 0.49612 0
1.16603 0.445058 0
1.1931 0.504331 0
1.22956 0.450883 0
1.25923 0.506004 0
1.29683 0.453139 0
1.32923 0.510343 0
1.36603 0.454344 0
1.03276 0.530395 0
1.40063 0.516169 0
1.43576 0.454934 0
1.47042 0.520776 0
1.51069 0.46142 0
1.54422 0.526371 0
1.58547 0.465572 0
1.61942 0.531773 0
1.66033 0.468788 0
1.69546 0.536793 0
1.73713 0.472812 0
1.77239 0.541977 0
1.81532 0.478494 0
1.85006 0.547285 0
1.89327 0.483449 0
1.92802 0.55361 0
1.97142 0.488546 0
2.00623 0.558966 0
2.04984 0.493518 0
2.08483 0.564085 0
2.12847 0.498462 0
2.16353 0.569137 0
2.20719 0.503331 0
0.961579 0.391697 0
1.22451 0.565337 0
2.24238 0.574192 0
2.28611 0.508258 0
2.32134 0.579247 0
2.36519 0.513325 0
2.40036 0.584295 0
2.44425 0.51834 0
2.47944 0.589336 0
2.52334 0.523355 0
2.55853 0.594372 0
2.60245 0.52837 0
2.63764 0.599431 0
2.68159 0.533388 0
2.64637 0.462336 0
2.72553 0.467349 0
2.76076 0.538418 0
2.8047 0.47237 0
2.83993 0.543451 0
2.88387 0.477399 0
2.91911 0.548482 0
2.96305 0.482427 0
2.9983 0.553514 0
3.04224 0.487456 0
3.07749 0.558545 0
3.12143 0.492477 0
3.15668 0.563574 0
3.20063 0.497514 0
3.23588 0.568605 0
3.27983 0.502542 0
3.31508 0.573635 0
3.35903 0.507562 0
3.39428 0.578663 0
3.43823 0.5126 0
3.47348 0.583694 0
3.51744 0.517628 0
3.55268 0.588724 0
3.59664 0.522646 0
3.63189 0.593752 0
3.67585 0.527673 0
3.71109 0.598781 0
3.75505 0.532702 0
3.7903 0.60381 0
3.83426 0.537731 0
3.79901 0.466623 0
3.87821 0.471754 0
3.91346 0.542777 0
3.95742 0.476701 0
3.99267 0.547795 0
4.03662 0.481715 0
4.07187 0.552815 0
4.11582 0.486743 0
4.15106 0.55783 0
4.195 0.491782 0
4.23023 0.562843 0
4.27415 0.49682 0
4.30937 0.567866 0
4.35325 0.501915 0
4.38842 0.572845 0
4.43227 0.506997 0
4.46737 0.577575 0
4.51106 0.511995 0
4.54622 0.582183 0
1.13571 0.390292 0
4.47606 0.441361 0
4.55475 0.446396 0
2.32985 0.442214 0
3.5614 0.451571 0
3.08619 0.421408 0
2.09339 0.427815 0
1.42887 0.583001 0
2.84864 0.406329 0
3.32378 0.43649 0
4.23911 0.425894 0
1.54723 0.39251 0
1.77883 0.406811 0
1.33959 0.387065 0
3.92239 0.405803 0
4.08079 0.415776 0
2.48812 0.452349 0
1.57935 0.603183 0
1.93602 0.417543 0
1.72453 0.617973 0
3.11273 0.629643 0
2.69029 0.396284 0
3.94662 0.623383 0
1.88466 0.613248 0
2.79598 0.609502 0
4.10826 0.620575 0
2.04005 0.62838 0
2.95434 0.619575 0
4.51981 0.375801 0
4.59833 0.380943 0
4.63314 0.451296 0
4.26693 0.63114 0
2.19619 0.645921 0
4.4246 0.642296 0
3.27112 0.639707 0
2.35729 0.649822 0
2.51462 0.660373 0
3.42952 0.649769 0
4.67669 0.38601 0
3.58793 0.659829 0
3.74634 0.669888 0
4.64195 0.315733 0
4.44109 0.370647 0
4.48493 0.305066 0
4.40614 0.29989 0
4.71136 0.456133 0
4.72014 0.320758 0
0.8692 0.382093 0
0.841252 0.348256 0
0.886481 0.338703 0
0.853127 0.301457 0
0.902583 0.287335 0
0.801683 0.321689 0
0.818113 0.263019 0
0.764765 0.277091 0
4.44702 0.235678 0
0.946267 0.520761 0
0.78107 0.221265 0
0.726309 0.234724 0
0.848273 0.20551 0
4.68545 0.250576 0
4.37074 0.227561 0
4.76365 0.255792 0
4.79822 0.326145 0
0.713664 0.287231 0
0.672358 0.247957 0
0.68673 0.192342 0
0.630368 0.2085 0
0.616569 0.265341 0
0.574186 0.225456 0
0.557393 0.28131 0
0.52004 0.242373 0
0.504416 0.299685 0
0.462273 0.252096 0
0.44798 0.316739 0
0.404567 0.276951 0
0.390546 0.335414 0
0.434669 0.37657 0
0.377935 0.394545 0
0.421979 0.43426 0
0.365682 0.452846 0
0.409646 0.492216 0
0.353389 0.51089 0
0.397738 0.551598 0
0.339864 0.570301 0
0.385899 0.612153 0
0.325913 0.631557 0
0.344507 0.29318 0
0.320568 0.413067 0
0.373553 0.673852 0
0.434438 0.653082 0
0.311416 0.69481 0
0.449777 0.528305 0
0.293513 0.534612 0
0.421431 0.715204 0
0.480917 0.696603 0
0.54504 0.34471 0
0.262743 0.649913 0
0.246209 0.712341 0
0.468564 0.755948 0
0.526091 0.735423 0
0.538207 0.68039 0
0.581228 0.716342 0
0.408756 0.777952 0
0.36234 0.239019 0
0.297047 0.251925 0
0.572109 0.771575 0
0.624906 0.752173 0
0.474824 0.414151 0
0.534351 0.182707 0
0.633682 0.70159 0
0.674547 0.736174 0
0.66826 0.788959 0
0.721117 0.76834 0
0.714515 0.825486 0
0.769074 0.802008 0
0.775287 0.746591 0
0.821903 0.778625 0
0.826767 0.726064 0
0.873257 0.756032 0
0.872997 0.697261 0
0.92331 0.732304 0
0.930014 0.67838 0
0.976061 0.710612 0
0.92456 0.784469 0
0.982178 0.654421 0
1.03016 0.688004 0
1.02037 0.747059 0
1.08 0.723819 0
1.08651 0.661896 0
1.1397 0.698204 0
1.13262 0.763657 0
1.19424 0.736545 0
1.18556 0.80161 0
1.24839 0.771772 0
1.25723 0.706382 0
1.31432 0.745787 0
4.66801 0.521361 0
4.74602 0.526202 0
4.70285 0.591278 0
4.78076 0.596023 0
4.73763 0.661207 0
4.78904 0.460969 0
2.61113 0.391267 0
2.65506 0.325217 0
2.57588 0.320198 0
2.61982 0.254148 0
2.69899 0.259163 0
2.54065 0.249131 0
2.49672 0.315179 0
2.46148 0.244124 0
2.41757 0.310166 0
2.38233 0.239117 0
2.33843 0.30514 0
2.30297 0.237979 0
2.25928 0.300748 0
2.22079 0.221377 0
2.17969 0.293884 0
2.14114 0.224266 0
2.10047 0.289841 0
2.0653 0.219144 0
2.02202 0.284919 0
1.98701 0.214164 0
1.94336 0.279863 0
3.82315 0.673327 0
3.78135 0.738156 0
3.86451 0.735958 0
3.70234 0.735494 0
4.52513 0.244409 0
4.32717 0.294467 0
4.29217 0.221862 0
0.619934 0.539507 0
0.599432 0.577132 0
0.575955 0.542712 0
0.554504 0.58245 0
4.65962 0.656481 0
4.69438 0.726169 0
4.6161 0.721747 0
4.77259 0.731352 0
4.65076 0.791486 0
4.57153 0.788793 0
4.2482 0.289182 0
4.21307 0.218308 0
4.1691 0.284563 0
4.13394 0.21352 0
0.835918 0.606341 0
0.806475 0.6384 0
4.08995 0.279537 0
0.640355 0.426737 0
0.596214 0.435837 0
0.630358 0.379178 0
0.689967 0.627735 0
1.90832 0.209948 0
1.86468 0.27519 0
1.82968 0.20518 0
1.78607 0.269797 0
0.281841 0.313314 0
0.232117 0.268621 0
0.216861 0.334396 0
4.05473 0.209347 0
4.01077 0.2745 0
3.97554 0.204394 0
3.93159 0.269388 0
0.297409 0.759367 0
0.231645 0.782943 0
0.180008 0.73598 0
1.32151 0.676369 0
1.38055 0.718092 0
1.36901 0.793947 0
1.43945 0.766002 0
0.249902 0.198865 0
0.932364 0.624392 0
1.75117 0.201034 0
1.70771 0.264658 0
1.673 0.195402 0
1.62985 0.260294 0
1.59532 0.191927 0
1.55236 0.254233 0
3.89629 0.200227 0
3.85238 0.264494 0
3.81708 0.195303 0
3.77304 0.259453 0
2.66368 0.189084 0
2.74279 0.19534 0
2.77814 0.264556 0
2.82201 0.199823 0
2.85733 0.269552 0
2.90126 0.203886 0
2.93654 0.274416 0
2.98045 0.20868 0
3.01573 0.279376 0
3.0597 0.213193 0
[...]
CELL_DATA 2220
VECTORS velocity double
38.199 -1.82114 0.0
27.3497 0.774762 0.0
31.6455 0.690311 0.0
24.4965 2.5469 0.0
38.8725 -2.03101 0.0
51.1822 -1.50211 0.0
23.1178 0.73877 0.0
25.7214 -0.0514391 0.0
41.7163 2.87701 0.0
50.0141 -1.14903 0.0
24.6818 0.448473 0.0
24.5139 0.379104 0.0
19.4757 0.284323 0.0
36.6142 -2.49617 0.0
27.1791 -0.335592 0.0
37.4487 3.2336 0.0
26.0532 1.52908 0.0
21.2335 1.04337 0.0
24.032 -0.232903 0.0
25.9992 -0.212253 0.0
26.5055 0.453232 0.0
33.2777 3.97081 0.0
24.6106 1.22939 0.0
25.4233 0.870908 0.0
51.6363 -0.629915 0.0
34.1648 -2.34299 0.0
24.3021 1.26703 0.0
21.8521 0.845694 0.0
24.0747 2.4072 0.0
26.5204 1.77624 0.0
45.0084 -1.40004 0.0
32.9383 3.33335 0.0
17.7889 -0.200932 0.0
34.0345 1.3671 0.0
40.2007 -4.01279 0.0
51.5462 -1.60136 0.0
39.0575 -4.38504 0.0
20.9465 -0.21845 0.0
28.1697 2.76585 0.0
29.6421 2.21101 0.0
14.7783 0.709885 0.0
42.0191 3.12261 0.0
20.6782 2.19084 0.0
23.2111 -0.0532807 0.0
21.3125 -0.0871229 0.0
18.8041 -0.0452721 0.0
24.3248 1.04679 0.0
19.2115 -0.0318595 0.0
49.4932 -1.03322 0.0
54.9421 0.402853 0.0
21.6058 0.635605 0.0
19.2362 0.148373 0.0
24.1811 0.935336 0.0
24.4367 0.166963 0.0
21.8223 1.20518 0.0
30.0673 1.99994 0.0
35.1718 3.4984 0.0
20.555 0.827395 0.0
20.9309 0.90503 0.0
55.7488 0.247577 0.0
-0.393539 -9.66615 0.0
52.7983 -1.06947 0.0
46.4959 -2.03197 0.0
24.7178 0.94352 0.0
24.6433 0.973001 0.0
37.5009 1.32948 0.0
19.1886 -1.99634 0.0
40.3584 3.40372 0.0
20.9061 0.931527 0.0
21.1409 0.884847 0.0
24.2415 0.245769 0.0
35.2477 -1.79524 0.0
18.884 0.23745 0.0
53.1353 0.957616 0.0
14.278 0.431099 0.0
42.425 2.98071 0.0
49.215 2.31615 0.0
26.7383 -1.85783 0.0
43.6524 3.6517 0.0
22.8383 0.154138 0.0
25.5299 -1.12132 0.0
30.5378 -1.91324 0.0
14.1832 -0.306742 0.0
18.7733 0.143701 0.0
23.6196 0.696777 0.0
23.5568 0.350018 0.0
34.4321 -1.95337 0.0
19.6693 0.301696 0.0
20.0035 0.556263 0.0
40.9904 2.37322 0.0
7.4921 0.527021 0.0
25.6925 1.99333 0.0
24.3172 -0.287495 0.0
39.6771 3.32722 0.0
42.9313 3.16429 0.0
29.2875 -2.03581 0.0
32.637 -4.15637 0.0
14.8469 -1.06881 0.0
0.372205 -7.19197 0.0
33.3806 -0.75398 0.0
7.72637 -0.808722 0.0
32.7857 -2.31469 0.0
24.0548 0.890431 0.0
20.7283 1.26244 0.0
36.9818 4.25977 0.0
41.3833 3.45709 0.0
52.43 -1.30691 0.0
55.5278 -1.14617 0.0
6.92057 -0.24332 0.0
24.7428 1.38171 0.0
30.0448 1.77327 0.0
38.7569 -1.99492 0.0
51.9688 -1.13072 0.0
10.8099 -1.01785 0.0
53.9321 -1.78424 0.0
20.4579 0.76072 0.0
36.0878 -2.57716 0.0
17.7219 -0.573606 0.0
7.6197 -0.0400024 0.0
40.3955 1.74067 0.0
26.4938 -1.8716 0.0
35.838 -1.3889 0.0
19.8148 1.39121 0.0
26.4173 3.34771 0.0
42.2424 -4.01637 0.0
31.1058 -2.73288 0.0
39.1863 3.17914 0.0
22.6801 1.52201 0.0
40.6878 -2.9148 0.0
18.4024 1.6513 0.0
18.1523 3.57705 0.0
21.2437 -2.10993 0.0
12.7353 -1.39059 0.0
17.4104 19.3231 0.0
27.5763 2.64853 0.0
12.7417 17.4663 0.0
17.3596 -0.0203546 0.0
23.5995 -0.211898 0.0
32.6932 -2.81287 0.0
33.8475 3.48427 0.0
27.2391 -0.801309 0.0
22.9055 -0.0674421 0.0
52.9363 -2.12212 0.0
43.3164 -4.48049 0.0
51.9115 0.960055 0.0
35.1433 2.94626 0.0
10.8029 1.07597 0.0
15.0044 -0.54808 0.0
53.2164 2.00863 0.0
54.7907 -1.58519 0.0
20.5869 -0.389392 0.0
39.4534 1.72705 0.0
36.252 -0.0383233 0.0
24.0656 3.03033 0.0
6.54646 11.3378 0.0
26.0772 0.403213 0.0
21.9045 -2.31821 0.0
27.2004 0.628496 0.0
10.4023 -1.04627 0.0
22.7757 -1.36587 0.0
22.2579 -3.1936 0.0
20.5044 0.00663898 0.0
10.2004 -1.05867 0.0
32.9395 -3.26786 0.0
18.6784 0.140957 0.0
32.3147 2.16058 0.0
34.0031 -1.87199 0.0
40.4919 -1.28935 0.0
25.9076 0.308082 0.0
12.8791 -2.06384 0.0
11.571 1.39275 0.0
18.3461 0.0408319 0.0
23.942 0.11844 0.0
17.4509 -1.59666 0.0
29.2324 -1.36546 0.0
44.9366 3.7092 0.0
47.4132 2.11673 0.0
44.5351 3.44877 0.0
12.1959 -0.696426 0.0
25.6479 0.0451056 0.0
35.157 -0.534315 0.0
22.6896 -0.898528 0.0
7.52776 1.22819 0.0
19.6784 2.05134 0.0
26.2608 -0.0334623 0.0
49.818 -0.961785 0.0
37.5494 0.0998063 0.0
20.5112 -0.849434 0.0
34.3464 -4.03085 0.0
40.3149 -0.473614 0.0
12.4719 -1.27326 0.0
20.5066 -0.315726 0.0
40.8206 -2.50174 0.0
53.5776 1.75922 0.0
22.5305 -2.18905 0.0
37.4523 0.872614 0.0
35.2796 1.51496 0.0
23.0213 -1.2852 0.0
6.39662 -0.57918 0.0
24.4364 -0.583722 0.0
23.489 -19.6205 0.0
31.8152 -2.30909 0.0
35.0719 2.9535 0.0
24.7305 -0.155441 0.0
14.9807 -0.58759 0.0
32.4201 -2.28701 0.0
27.3382 0.130704 0.0
22.5332 0.0298066 0.0
34.3837 3.07287 0.0
12.3478 -0.825031 0.0
24.3041 0.900766 0.0
13.16 -0.534792 0.0
34.4441 -0.326217 0.0
42.1416 3.4941 0.0
49.1275 2.91592 0.0
23.569 4.59137 0.0
20.5329 0.827253 0.0
24.4198 1.08227 0.0
12.1626 0.311784 0.0
14.7679 -0.201549 0.0
51.5648 0.648777 0.0
11.1977 -0.495842 0.0
20.4797 0.989148 0.0
10.7882 -0.220102 0.0
24.4642 -0.124286 0.0
27.9848 -2.68653 0.0
22.3558 -1.53835 0.0
22.9832 -1.03042 0.0
32.7088 0.101506 0.0
11.725 1.16315 0.0
29.4431 2.85048 0.0
33.2609 -1.50356 0.0
16.3701 -0.20243 0.0
24.7201 -0.545773 0.0
11.9907 -1.08089 0.0
42.7023 -0.0330586 0.0
27.0217 -1.77163 0.0
24.1055 -0.3294 0.0
23.9345 -0.361601 0.0
20.983 -0.297622 0.0
43.5513 -4.24328 0.0
33.7165 -3.72885 0.0
40.3787 4.54701 0.0
12.1743 -0.0227967 0.0
16.1392 14.137 0.0
53.4796 -0.0379769 0.0
25.9661 -0.746278 0.0
32.4765 -1.3358 0.0
4.05318 13.7634 0.0
21.3181 2.23187 0.0
14.145 -15.744 0.0
12.1749 -0.105957 0.0
34.3252 -2.37673 0.0
49.2656 -0.312526 0.0
46.8022 -3.12639 0.0
23.6179 0.488403 0.0
12.3085 0.178373 0.0
51.9403 0.245105 0.0
22.7776 2.12303 0.0
42.7784 1.50722 0.0
27.114 -0.449664 0.0
37.0361 -0.974194 0.0
11.4808 1.16755 0.0
26.5895 -1.45664 0.0
11.8464 -0.565637 0.0
7.93735 -0.0962845 0.0
21.1612 -2.04912 0.0
33.9238 -1.44256 0.0
24.9396 1.31266 0.0
54.1418 -0.129515 0.0
47.2377 1.22584 0.0
48.3057 -0.0462595 0.0
19.8292 0.395412 0.0
49.5137 -1.91896 0.0
22.0643 -2.07673 0.0
41.4212 4.5659 0.0
13.9734 1.98311 0.0
39.9642 -0.865972 0.0
21.464 1.68498 0.0
13.4939 0.133573 0.0
24.8062 -2.07703 0.0
26.2141 -2.43952 0.0
42.7066 4.37565 0.0
33.2912 1.68888 0.0
49.1246 -1.80121 0.0
30.1563 -1.67083 0.0
35.9138 -3.79553 0.0
32.405 1.31942 0.0
20.6632 -0.277632 0.0
19.9549 -0.296161 0.0
12.2279 -0.319916 0.0
22.9025 -1.15762 0.0
12.5763 0.976784 0.0
24.2569 -18.773 0.0
26.7421 -1.48711 0.0
31.6465 -0.339596 0.0
32.0884 -0.307748 0.0
21.3835 0.538586 0.0
41.4167 4.5155 0.0
49.9882 3.02837 0.0
16.8421 -2.08534 0.0
45.9129 3.7845 0.0
35.7425 -1.76071 0.0
7.4788 0.0874679 0.0
36.8095 -3.01892 0.0
24.8657 1.61537 0.0
19.1112 -0.358795 0.0
20.2297 -0.321933 0.0
16.1852 0.421649 0.0
11.7475 0.909105 0.0
13.8694 -0.0443935 0.0
18.7333 22.6562 0.0
14.5499 1.06336 0.0
42.4516 4.58584 0.0
32.9431 -2.398 0.0
23.509 -0.321045 0.0
46.1718 3.18275 0.0
12.4301 1.09183 0.0
43.2947 -2.47706 0.0
49.1339 3.38903 0.0
14.8621 -2.12107 0.0
18.9963 1.00078 0.0
50.8345 0.30338 0.0
12.6194 -1.00891 0.0
11.6086 26.2582 0.0
12.989 -0.107404 0.0
48.3549 0.0383652 0.0
48.9298 1.29289 0.0
52.7546 0.618211 0.0
12.6688 -0.456433 0.0
39.5852 -3.29889 0.0
43.1556 -4.86562 0.0
41.8106 -1.51372 0.0
11.3429 -1.08141 0.0
39.8152 0.157053 0.0
43.5212 -3.69244 0.0
25.2881 -2.64106 0.0
44.651 3.78014 0.0
35.8811 -2.17708 0.0
23.7804 -0.356522 0.0
8.63382 -0.200486 0.0
20.9447 -0.365325 0.0
7.16097 0.528051 0.0
7.24204 0.0630571 0.0
15.057 -1.73487 0.0
43.2164 3.52226 0.0
10.3396 6.81131 0.0
45.9507 3.7225 0.0
50.4628 2.84372 0.0
6.9835 -0.299653 0.0
40.1233 1.69113 0.0
5.83906 0.169393 0.0
7.08876 -0.468935 0.0
34.5907 2.99141 0.0
11.3119 0.803686 0.0
42.9275 -1.77075 0.0
39.5283 2.00291 0.0
6.56489 -0.337547 0.0
48.6779 0.954532 0.0
31.5337 -3.37136 0.0
48.034 2.97389 0.0
14.8092 0.598173 0.0
31.1236 1.87583 0.0
47.0799 3.3972 0.0
6.32113 0.618698 0.0
55.646 0.61175 0.0
35.9103 -4.52222 0.0
6.67074 -0.415462 0.0
6.62093 -0.58591 0.0
37.3224 -1.89772 0.0
6.86797 0.462418 0.0
34.3746 3.88994 0.0
38.5932 -2.01744 0.0
26.6359 -0.903672 0.0
10.5804 -0.0931221 0.0
13.0519 0.537872 0.0
33.7452 0.633853 0.0
34.1342 0.14913 0.0
42.9469 -0.898184 0.0
31.8469 -0.200552 0.0
13.9246 -0.911744 0.0
42.9087 3.71138 0.0
43.3915 -3.22648 0.0
52.3473 0.396507 0.0
42.1654 3.68561 0.0
47.9521 -0.255291 0.0
40.8434 4.16493 0.0
50.6203 0.232528 0.0
33.6117 -1.96402 0.0
48.9621 2.53496 0.0
10.7547 1.05427 0.0
45.6203 -0.0131867 0.0
30.2603 -0.977626 0.0
45.7789 -2.7376 0.0
9.28386 -0.975474 0.0
21.752 -1.46096 0.0
42.7422 0.677041 0.0
8.92435 0.799023 0.0
50.4863 0.22392 0.0
42.6532 2.69692 0.0
7.28871 0.287405 0.0
29.5011 -0.92673 0.0
46.1291 3.19841 0.0
51.4371 0.134729 0.0
36.4118 -4.29467 0.0
40.8754 -4.72888 0.0
6.06186 5.95478 0.0
11.5232 0.85178 0.0
23.5276 -1.72051 0.0
39.5568 -1.47926 0.0
30.1282 -2.42385 0.0
6.97014 0.014041 0.0
41.8814 4.22488 0.0
48.4746 -2.98571 0.0
42.8821 -2.32568 0.0
51.6449 0.15565 0.0
4.09839 -0.18028 0.0
6.43217 0.479166 0.0
40.0997 2.83305 0.0
6.71872 0.600689 0.0
47.6608 3.66167 0.0
41.6145 2.82116 0.0
4.22769 0.000516721 0.0
6.70046 -0.530298 0.0
46.8869 2.7938 0.0
46.5565 0.562071 0.0
4.00137 0.1821 0.0
40.5436 -0.224245 0.0
50.4309 0.251562 0.0
12.0769 -0.772626 0.0
51.3038 0.157478 0.0
42.8162 2.75653 0.0
42.8585 -3.42206 0.0
49.3712 2.17371 0.0
6.78941 -0.615628 0.0
34.4517 -4.47757 0.0
7.27227 -0.126688 0.0
6.61605 0.473261 0.0
39.5612 -3.22661 0.0
6.73406 0.664347 0.0
42.2922 3.09993 0.0
47.6805 2.42042 0.0
41.3657 -3.97051 0.0
42.0879 -4.88161 0.0
10.8264 -1.12543 0.0
22.892 -0.0902366 0.0
42.564 2.02289 0.0
6.6332 -0.388643 0.0
6.06848 0.426561 0.0
18.9482 -3.12684 0.0
10.3862 0.993074 0.0
50.9219 -0.919506 0.0
7.26434 -0.451779 0.0
23.8878 0.969316 0.0
52.1505 1.40773 0.0
11.3062 0.763481 0.0
12.4223 0.777813 0.0
45.1848 3.55286 0.0
6.99619 0.40539 0.0
49.1341 1.73757 0.0
43.1627 2.41759 0.0
48.1452 0.531415 0.0
6.45235 -0.613194 0.0
5.0139 0.44478 0.0
9.01151 -0.417282 0.0
34.1636 -1.35263 0.0
14.532 -3.09314 0.0
51.272 0.197211 0.0
4.10009 0.101774 0.0
42.4434 -4.82418 0.0
12.505 -0.439938 0.0
5.9299 0.431092 0.0
15.3962 -1.61008 0.0
44.2277 3.74014 0.0
11.8879 -0.698919 0.0
47.9978 0.433555 0.0
47.4295 2.03857 0.0
28.6247 -0.523148 0.0
50.4876 0.28307 0.0
43.2095 2.0919 0.0
26.0032 -1.70479 0.0
40.0815 0.829055 0.0
51.1323 -2.58656 0.0
43.0852 1.7456 0.0
6.66688 -0.686431 0.0
7.10883 0.708432 0.0
42.5637 -0.926736 0.0
5.88408 0.380965 0.0
35.3417 -3.72609 0.0
23.8503 12.7378 0.0
50.6018 0.29068 0.0
5.96528 0.409121 0.0
6.66121 -0.418144 0.0
47.3708 1.62159 0.0
43.2078 3.62807 0.0
35.1831 -0.228621 0.0
30.9235 -1.55706 0.0
43.0924 0.0308315 0.0
27.2545 -1.37762 0.0
17.9198 -17.2652 0.0
44.1059 -0.174567 0.0
40.6269 2.52586 0.0
6.48491 -0.261788 0.0
42.9099 1.39696 0.0
34.4334 15.0361 0.0
21.0717 -0.624605 0.0
51.196 0.439211 0.0
4.43103 -0.427889 0.0
4.8909 0.437586 0.0
40.2649 2.85052 0.0
45.4724 -0.209767 0.0
44.0398 -1.1858 0.0
24.5896 -0.190328 0.0
49.3516 4.40828 0.0
51.3144 0.230545 0.0
49.7531 -2.36968 0.0
5.52136 2.46842 0.0
48.3672 0.708659 0.0
50.8333 -2.7232 0.0
40.7537 1.91313 0.0
41.2586 10.8731 0.0
11.2853 -4.34285 0.0
38.143 0.265671 0.0
5.77262 -7.672 0.0
36.7017 -1.37583 0.0
47.4866 -1.30701 0.0
50.7046 2.9589 0.0
49.0517 4.85632 0.0
5.8908 -2.21717 0.0
42.7411 1.09704 0.0
46.3791 7.45507 0.0
40.6042 1.60232 0.0
52.443 0.145972 0.0
40.8053 2.21564 0.0
46.9693 0.922092 0.0
26.2016 -0.957593 0.0
29.2374 1.19941 0.0
11.3963 -6.19721 0.0
42.3954 -2.82756 0.0
19.6096 -0.175468 0.0
35.3823 -10.7377 0.0
7.98344 -10.5372 0.0
39.6504 -2.82826 0.0
51.4994 0.201564 0.0
2.97611 -0.286441 0.0
3.0506 0.291419 0.0
46.6831 0.706094 0.0
41.3223 3.26287 0.0
42.6459 0.873484 0.0
32.7103 16.8703 0.0
7.34178 -0.204065 0.0
11.8767 -0.326476 0.0
8.60901 1.2878 0.0
3.12861 3.06471 0.0
7.01841 -5.59829 0.0
49.4185 -3.09505 0.0
52.6675 0.110759 0.0
40.5325 -4.06842 0.0
0.933905 1.55921 0.0
37.6198 -0.10744 0.0
40.1392 -0.110325 0.0
43.2897 -9.98848 0.0
29.3958 13.3991 0.0
1.11083 -1.50017 0.0
3.56521 -2.83375 0.0
34.1788 0.595141 0.0
20.8699 1.14717 0.0
40.5286 1.29312 0.0
26.1371 -5.66889 0.0
45.683 -0.109864 0.0
41.9388 2.33783 0.0
47.2916 -0.106372 0.0
35.8283 10.7946 0.0
50.8824 0.185279 0.0
3.92245 -0.296556 0.0
47.232 3.6685 0.0
52.3182 0.883544 0.0
47.9245 0.404692 0.0
52.3167 0.086481 0.0
47.871 -5.79418 0.0
3.76815 0.216018 0.0
52.012 -0.560926 0.0
7.66168 -1.58538 0.0
20.7379 1.37966 0.0
32.6467 -0.949727 0.0
42.5626 0.735302 0.0
40.4255 1.0273 0.0
50.7489 3.02976 0.0
51.2296 2.18388 0.0
50.152 3.27436 0.0
5.83189 0.316658 0.0
11.0205 0.561716 0.0
8.87153 -1.06551 0.0
52.1684 -0.00899723 0.0
46.4957 0.492006 0.0
43.0222 -4.878 0.0
7.36023 1.80408 0.0
50.964 0.652956 0.0
45.3577 7.00569 0.0
12.4379 11.7981 0.0
46.7366 -0.0760586 0.0
3.35729 1.0324 0.0
44.9711 -0.126214 0.0
49.8746 -1.6822 0.0
45.752 -0.774806 0.0
33.8942 -0.38003 0.0
31.2806 -0.368273 0.0
44.4003 -0.182833 0.0
8.12087 0.277669 0.0
41.9332 4.00121 0.0
51.6468 -0.583191 0.0
48.2063 -0.243169 0.0
47.9664 0.415116 0.0
42.5875 0.655969 0.0
23.1563 -0.02689 0.0
46.5056 0.478723 0.0
53.9439 -1.89339 0.0
50.951 0.116037 0.0
11.3825 0.566582 0.0
41.3456 9.70415 0.0
3.64447 -0.960538 0.0
52.306 0.896309 0.0
52.2453 0.29541 0.0
42.6913 0.624548 0.0
2.24663 1.3529 0.0
40.224 -0.726194 0.0
51.5446 0.147531 0.0
50.489 2.3255 0.0
46.1719 -0.125385 0.0
51.6699 -0.521185 0.0
48.1113 0.430669 0.0
51.8591 -0.0463774 0.0
52.4672 0.418611 0.0
51.4057 0.234158 0.0
42.9374 0.628527 0.0
4.90016 0.563836 0.0
17.1001 1.72556 0.0
51.2521 -1.49348 0.0
42.1004 3.30283 0.0
2.48549 -1.27279 0.0
9.79803 -0.704087 0.0
40.0728 -2.74595 0.0
44.6882 6.27945 0.0
46.6547 0.494155 0.0
18.5415 -1.35869 0.0
48.0283 -0.240695 0.0
49.1917 -0.186575 0.0
27.7948 16.0886 0.0
9.39018 0.933443 0.0
4.48015 -0.66996 0.0
52.5817 -2.31371 0.0
35.7974 8.98538 0.0
48.2935 -5.5123 0.0
52.4236 0.603179 0.0
13.6971 0.225107 0.0
46.8813 0.490723 0.0
40.3669 0.862314 0.0
50.9584 -0.0301158 0.0
4.21008 0.759392 0.0
48.3347 0.408428 0.0
50.9706 0.046342 0.0
5.57216 -0.303743 0.0
43.2881 0.610465 0.0
50.7553 0.254595 0.0
52.2689 0.674476 0.0
48.9066 0.207538 0.0
48.8854 -0.267737 0.0
51.5379 0.0863569 0.0
43.4537 -0.982257 0.0
48.8578 -0.167244 0.0
48.6531 0.32083 0.0
47.8719 0.154844 0.0
47.7156 -0.313849 0.0
5.09946 -0.448678 0.0
52.0089 0.837505 0.0
47.4336 -0.372217 0.0
6.97622 0.392977 0.0
51.4945 0.0160277 0.0
10.8638 0.768598 0.0
47.2166 0.411404 0.0
48.6177 -0.335524 0.0
52.3206 0.433989 0.0
49.9483 -0.139993 0.0
49.0923 0.112674 0.0
52.0127 0.240952 0.0
22.9879 0.256382 0.0
44.4044 0.291905 0.0
41.3597 2.66051 0.0
43.6045 0.484341 0.0
5.11641 -0.094348 0.0
50.8727 -0.0408417 0.0
47.5866 0.271786 0.0
40.105 -10.2232 0.0
3.55949 -0.321722 0.0
40.5258 0.695387 0.0
3.48232 0.239046 0.0
36.0975 -8.80277 0.0
43.2003 3.137 0.0
40.7638 0.67695 0.0
45.6868 -0.196648 0.0
47.1743 -0.404756 0.0
41.1833 0.678773 0.0
49.3074 -0.0474108 0.0
35.5816 -3.30509 0.0
38.4994 -12.156 0.0
47.8112 -0.119483 0.0
51.9527 0.728422 0.0
52.1763 0.883568 0.0
52.1665 0.370474 0.0
48.376 -0.381881 0.0
52.4224 0.458653 0.0
41.888 -0.200455 0.0
52.2629 0.467423 0.0
46.6773 -0.272133 0.0
44.7615 0.154444 0.0
21.6706 0.522998 0.0
49.8482 -0.363776 0.0
52.3316 0.389126 0.0
39.2731 -0.784965 0.0
51.9129 0.585361 0.0
48.1587 -0.394278 0.0
46.9447 -0.39428 0.0
5.34526 0.41773 0.0
48.0781 0.0644775 0.0
40.4104 0.760986 0.0
52.5323 0.398439 0.0
36.371 -0.745439 0.0
12.0608 0.341042 0.0
45.094 0.0510574 0.0
51.8814 0.403575 0.0
42.1333 0.387567 0.0
41.0888 -0.198733 0.0
46.7478 -0.326289 0.0
51.8124 0.190881 0.0
47.9741 -0.358957 0.0
42.839 0.220945 0.0
24.7591 10.1953 0.0
51.4323 -0.0646276 0.0
52.4775 0.32393 0.0
51.2672 1.67732 0.0
21.2398 -0.109172 0.0
48.2346 -0.0165818 0.0
39.4094 -0.2299 0.0
6.46233 0.202688 0.0
11.1911 0.39206 0.0
47.8086 -0.274156 0.0
50.9972 0.256833 0.0
44.5484 -0.393771 0.0
46.5613 -0.213868 0.0
52.2517 0.285669 0.0
45.2649 -0.268508 0.0
45.3699 -0.0363968 0.0
46.3297 -0.0878326 0.0
39.9583 -0.270313 0.0
43.9155 -0.247063 0.0
52.6047 0.260845 0.0
40.4657 -0.226884 0.0
51.3649 0.116205 0.0
44.2052 -0.430163 0.0
46.0422 -0.321599 0.0
43.4896 -0.312424 0.0
39.4682 -0.324862 0.0
51.1882 0.181928 0.0
47.6279 -0.160825 0.0
7.89984 0.230893 0.0
12.1899 0.33466 0.0
52.1719 0.0663286 0.0
51.6655 -0.0256078 0.0
41.4404 0.633124 0.0
43.1355 -0.0517529 0.0
43.6148 -0.00220027 0.0
52.2531 0.599184 0.0
45.9866 0.0196289 0.0
51.1053 1.35973 0.0
49.2199 0.0321487 0.0
39.0109 -0.383473 0.0
42.3638 -0.447461 0.0
43.2378 0.094795 0.0
47.3827 -0.0494394 0.0
52.5477 0.169053 0.0
50.9304 -0.112617 0.0
43.1059 -0.374443 0.0
37.9341 1.24431 0.0
37.4751 -0.299789 0.0
42.7295 -0.426192 0.0
38.5936 -0.44258 0.0
47.996 3.11019 0.0
45.5248 0.0743258 0.0
47.0392 0.0269432 0.0
43.9159 -0.417933 0.0
38.0192 -0.255983 0.0
41.5513 -0.106646 0.0
51.7496 0.287167 0.0
38.1463 -0.473981 0.0
42.0679 -0.39189 0.0
45.0356 0.0540455 0.0
24.276 0.200875 0.0
50.2697 -0.0148571 0.0
37.673 -0.403131 0.0
21.1302 0.132028 0.0
36.978 -0.352981 0.0
46.6297 0.0407027 0.0
37.4387 -0.238152 0.0
41.8038 -0.264314 0.0
38.6124 -0.233748 0.0
5.66384 -0.0764208 0.0
10.5128 -0.135493 0.0
24.2271 0.308155 0.0
44.8272 -0.35966 0.0
43.4295 -0.198814 0.0
44.6176 -0.0200147 0.0
46.2344 -0.00920823 0.0
37.1162 -0.0602956 0.0
11.8299 0.133899 0.0
51.8941 0.190153 0.0
10.8146 -0.162281 0.0
52.5864 0.047798 0.0
44.3398 -0.105627 0.0
36.5064 -0.413276 0.0
42.6728 0.072827 0.0
35.9424 -0.473535 0.0
52.4947 -0.0740777 0.0
42.0332 0.142722 0.0
5.86891 -0.0846226 0.0
10.6665 -0.159553 0.0
43.6673 -0.333398 0.0
6.29561 0.0859969 0.0
45.926 -0.0959363 0.0
35.4703 -0.458154 0.0
35.1165 -0.309582 0.0
41.1547 0.0379702 0.0
45.4951 -0.240341 0.0
51.8726 -0.0623293 0.0
41.3992 0.126602 0.0
40.8571 0.0431169 0.0
10.7435 -0.144112 0.0
6.09604 -0.0860731 0.0
20.1815 0.253384 0.0
34.8039 -0.115488 0.0
40.4834 0.147233 0.0
44.8911 -0.33589 0.0
39.7143 0.185997 0.0
46.9366 -0.127684 0.0
20.665 0.287581 0.0
39.0388 0.119212 0.0
45.7882 -0.171154 0.0
40.4712 -0.0348101 0.0
10.7758 0.147268 0.0
5.515 -0.0542985 0.0
4.62515 -0.0837484 0.0
5.94146 -0.0787975 0.0
10.646 -0.0531444 0.0
11.3239 0.189501 0.0
5.02398 -0.0251536 0.0
5.69344 -0.0050302 0.0
10.4592 -0.125309 0.0
5.54032 -0.0430465 0.0
5.99095 -0.0432504 0.0
6.35241 0.147908 0.0
11.5689 -0.149031 0.0
6.1697 0.0827984 0.0
10.3051 -0.0944181 0.0
5.9094 0.0801504 0.0
10.9716 -0.0708686 0.0
10.7383 -0.0734443 0.0
5.75443 0.162894 0.0
11.7584 0.219435 0.0
10.4422 -0.0977442 0.0
10.204 -0.120258 0.0
5.96182 0.262945 0.0
9.85131 -0.0795863 0.0
10.6357 0.192352 0.0
5.47854 -0.0368689 0.0
10.3378 -0.049074 0.0
6.22754 0.00422923 0.0
5.48139 0.0900138 0.0
9.98736 -0.159034 0.0
5.88283 0.207149 0.0
7.10886 0.120821 0.0
6.0315 0.306972 0.0
5.02454 0.0775975 0.0
5.4016 -0.00575074 0.0
10.431 0.0479849 0.0
5.70055 -0.0739556 0.0
5.84968 -0.0823292 0.0
5.99571 0.241782 0.0
6.02551 0.26686 0.0
5.97194 -0.0181915 0.0
5.85166 0.0597269 0.0
4.9553 -0.0815572 0.0
5.61447 -0.0467866 0.0
6.98382 -0.0101016 0.0
11.699 -0.0300728 0.0
6.10212 -0.112244 0.0
7.16253 0.071131 0.0
9.94858 0.157067 0.0
9.71068 -0.178779 0.0
5.56634 -0.0638911 0.0
6.14449 0.223963 0.0
5.62602 0.0576847 0.0
11.0128 -0.00919596 0.0
5.34012 0.105817 0.0
5.92167 0.0801883 0.0
5.50489 -0.0725013 0.0
10.9081 0.483878 0.0
6.7871 -0.0982273 0.0
4.82649 0.000943167 0.0
5.53978 0.00967989 0.0
4.69216 0.0470522 0.0
6.05332 0.0816279 0.0
6.14931 -0.0266033 0.0
9.10748 -0.0818059 0.0
4.18807 -0.0319079 0.0
10.6805 0.42357 0.0
11.0927 0.138036 0.0
45.0524 -0.202416 0.0
44.3148 -0.142549 0.0
49.3658 -0.128715 0.0
38.5239 0.0262359 0.0
51.8737 -0.335214 0.0
52.0009 -0.142431 0.0
38.0835 -0.00723791 0.0
51.9803 -0.348844 0.0
52.3114 -0.290496 0.0
52.0765 -0.365856 0.0
52.4472 -0.181751 0.0
40.3472 -0.0336999 0.0
44.5571 -0.142493 0.0
52.2189 -0.324297 0.0
43.2406 -0.186358 0.0
51.734 -0.257779 0.0
45.9021 -0.198883 0.0
51.6335 -0.221749 0.0
48.5303 -0.281898 0.0
49.402 -0.309625 0.0
33.1975 0.101965 0.0
51.5305 -0.377323 0.0
51.3074 -0.221902 0.0
49.6024 -0.294651 0.0
51.7459 -0.312267 0.0
37.1591 -0.150288 0.0
48.3481 -0.0976158 0.0
44.5573 -0.168483 0.0
51.1528 -0.36343 0.0
50.9579 -0.356722 0.0
51.7854 -0.298356 0.0
39.2204 -0.171351 0.0