# vtk DataFile Version 3.0
Malha 2D com triângulos e temperatura
ASCII
DATASET UNSTRUCTURED_GRID

POINTS 1194 double
0 0 0
5 0 0
5 1 0
0 1 0
0.85 0.5 0
0.842388 0.538268 0
0.820711 0.570711 0
0.788268 0.592388 0
0.75 0.6 0
0.711732 0.592388 0
0.679289 0.570711 0
0.657612 0.538268 0
0.65 0.5 0
0.657612 0.461732 0
0.679289 0.429289 0
0.711732 0.407612 0
0.75 0.4 0
0.788268 0.407612 0
0.820711 0.429289 0
0.842388 0.461732 0
0.0793651 0 0
0.15873 0 0
0.238095 0 0
0.31746 0 0
0.396825 0 0
0.47619 0 0
0.555556 0 0
0.634921 0 0
0.714286 0 0
0.793651 0 0
0.873016 0 0
0.952381 0 0
1.03175 0 0
1.11111 0 0
1.19048 0 0
1.26984 0 0
1.34921 0 0
1.42857 0 0
1.50794 0 0
1.5873 0 0
1.66667 0 0
1.74603 0 0
1.8254 0 0
1.90476 0 0
1.98413 0 0
2.06349 0 0
2.14286 0 0
2.22222 0 0
2.30159 0 0
2.38095 0 0
2.46032 0 0
2.53968 0 0
2.61905 0 0
2.69841 0 0
2.77778 0 0
2.85714 0 0
2.93651 0 0
3.01587 0 0
3.09524 0 0
3.1746 0 0
3.25397 0 0
3.33333 0 0
3.4127 0 0
3.49206 0 0
3.57143 0 0
3.65079 0 0
3.73016 0 0
3.80952 0 0
3.88889 0 0
3.96825 0 0
4.04762 0 0
4.12698 0 0
4.20635 0 0
4.28571 0 0
4.36508 0 0
4.44444 0 0
4.52381 0 0
4.60317 0 0
4.68254 0 0
4.7619 0 0
4.84127 0 0
4.92063 0 0
5 0.0769231 0
5 0.153846 0
5 0.230769 0
5 0.307692 0
5 0.384615 0
5 0.461538 0
5 0.538462 0
5 0.615385 0
5 0.692308 0
5 0.769231 0
5 0.846154 0
5 0.923077 0
4.92063 1 0
4.84127 1 0
4.7619 1 0
4.68254 1 0
4.60317 1 0
4.52381 1 0
4.44444 1 0
4.36508 1 0
4.28571 1 0
4.20635 1 0
4.12698 1 0
4.04762 1 0
3.96825 1 0
3.88889 1 0
3.80952 1 0
3.73016 1 0
3.65079 1 0
3.57143 1 0
3.49206 1 0
3.4127 1 0
3.33333 1 0
3.25397 1 0
3.1746 1 0
3.09524 1 0
3.01587 1 0
2.93651 1 0
2.85714 1 0
2.77778 1 0
2.69841 1 0
2.61905 1 0
2.53968 1 0
2.46032 1 0
2.38095 1 0
2.30159 1 0
2.22222 1 0
2.14286 1 0
2.06349 1 0
1.98413 1 0
1.90476 1 0
1.8254 1 0
1.74603 1 0
1.66667 1 0
1.5873 1 0
1.50794 1 0
1.42857 1 0
1.34921 1 0
1.26984 1 0
1.19048 1 0
1.11111 1 0
1.03175 1 0
0.952381 1 0
0.873016 1 0
0.793651 1 0
0.714286 1 0
0.634921 1 0
0.555556 1 0
0.47619 1 0
0.396825 1 0
0.31746 1 0
0.238095 1 0
0.15873 1 0
0.0793651 1 0
0 0.923077 0
0 0.846154 0
0 0.769231 0
0 0.692308 0
0 0.615385 0
0 0.538462 0
0 0.461538 0
0 0.384615 0
0 0.307692 0
0 0.230769 0
0 0.153846 0
0 0.0769231 0
0.879698 0.466718 0
1.3085 0.931947 0
1.30532 0.0638546 0
4.93832 0.504275 0
0.620452 0.46964 0
3.99858 0.0669607 0
1.63721 0.934258 0
3.3751 0.0523709 0
4.3254 0.0687322 0
2.42354 0.0642082 0
2.97619 0.0687322 0
2.02101 0.0693621 0
3.68108 0.0581336 0
2.65899 0.932655 0
4.178 0.939994 0
3.21614 0.938179 0
2.25483 0.919987 0
3.53215 0.928998 0
3.84921 0.931268 0
1.69647 0.0674297 0
1.94349 0.930209 0
4.48413 0.931268 0
2.97813 0.942022 0
2.74097 0.0673855 0
0.859645 0.573263 0
0.639718 0.573116 0
0.0651563 0.652836 0
0.0635304 0.346121 0
4.56232 0.0679683 0
0.830393 0.392645 0
0.669618 0.39275 0
1.06185 0.0668897 0
0.440193 0.0680031 0
1.06474 0.93511 0
0.446074 0.935974 0
0.724697 0.630698 0
4.72268 0.931235 0
4.93065 0.267192 0
0.589836 0.936152 0
0.92338 0.0562425 0
0.590207 0.0623339 0
0.755872 0.0732784 0
0.838039 0.936714 0
4.92573 0.732039 0
0.281717 0.93783 0
0.28208 0.0811877 0
0.065248 0.503161 0
1.46076 0.0637037 0
4.72574 0.0661877 0
4.31028 0.937908 0
3.21429 0.0687322 0
1.46639 0.932632 0
3.6897 0.928155 0
2.42063 0.931268 0
3.5364 0.0691789 0
2.25998 0.0676208 0
1.78735 0.937047 0
4.01535 0.920637 0
1.85469 0.0674188 0
3.83991 0.0626292 0
3.37477 0.929368 0
2.58225 0.0657863 0
2.81746 0.932342 0
4.16667 0.0687322 0
2.11402 0.935574 0
0.0614266 0.197046 0
0.0612841 0.803003 0
4.88273 0.0644126 0
4.87774 0.933272 0
0.859645 0.426737 0
0.903081 0.436592 0
0.923672 0.473385 0
0.948706 0.439078 0
0.969155 0.479795 0
0.996593 0.439791 0
1.0202 0.484937 0
1.04667 0.440138 0
1.07382 0.489694 0
1.1034 0.440801 0
1.13169 0.49612 0
1.16603 0.445058 0
1.1931 0.504331 0
1.22956 0.450883 0
1.25923 0.506004 0
1.29683 0.453139 0
1.32923 0.510343 0
1.36603 0.454344 0
1.03276 0.530395 0
1.40063 0.516169 0
1.43576 0.454934 0
1.47042 0.520776 0
1.51069 0.46142 0
1.54422 0.526371 0
1.58547 0.465572 0
1.61942 0.531773 0
1.66033 0.468788 0
1.69546 0.536793 0
1.73713 0.472812 0
1.77239 0.541977 0
1.81532 0.478494 0
1.85006 0.547285 0
1.89327 0.483449 0
1.92802 0.55361 0
1.97142 0.488546 0
2.00623 0.558966 0
2.04984 0.493518 0
2.08483 0.564085 0
2.12847 0.498462 0
2.16353 0.569137 0
2.20719 0.503331 0
0.961579 0.391697 0
1.22451 0.565337 0
2.24238 0.574192 0
2.28611 0.508258 0
2.32134 0.579247 0
2.36519 0.513325 0
2.40036 0.584295 0
2.44425 0.51834 0
2.47944 0.589336 0
2.52334 0.523355 0
2.55853 0.594372 0
2.60245 0.52837 0
2.63764 0.599431 0
2.68159 0.533388 0
2.64637 0.462336 0
2.72553 0.467349 0
2.76076 0.538418 0
2.8047 0.47237 0
2.83993 0.543451 0
2.88387 0.477399 0
2.91911 0.548482 0
2.96305 0.482427 0
2.9983 0.553514 0
3.04224 0.487456 0
3.07749 0.558545 0
3.12143 0.492477 0
3.15668 0.563574 0
3.20063 0.497514 0
3.23588 0.568605 0
3.27983 0.502542 0
3.31508 0.573635 0
3.35903 0.507562 0
3.39428 0.578663 0
3.43823 0.5126 0
3.47348 0.583694 0
3.51744 0.517628 0
3.55268 0.588724 0
3.59664 0.522646 0
3.63189 0.593752 0
3.67585 0.527673 0
3.71109 0.598781 0
3.75505 0.532702 0
3.7903 0.60381 0
3.83426 0.537731 0
3.79901 0.466623 0
3.87821 0.471754 0
3.91346 0.542777 0
3.95742 0.476701 0
3.99267 0.547795 0
4.03662 0.481715 0
4.07187 0.552815 0
4.11582 0.486743 0
4.15106 0.55783 0
4.195 0.491782 0
4.23023 0.562843 0
4.27415 0.49682 0
4.30937 0.567866 0
4.35325 0.501915 0
4.38842 0.572845 0
4.43227 0.506997 0
4.46737 0.577575 0
4.51106 0.511995 0
4.54622 0.582183 0
1.13571 0.390292 0
4.47606 0.441361 0
4.55475 0.446396 0
2.32985 0.442214 0
3.5614 0.451571 0
3.08619 0.421408 0
2.09339 0.427815 0
1.42887 0.583001 0
2.84864 0.406329 0
3.32378 0.43649 0
4.23911 0.425894 0
1.54723 0.39251 0
1.77883 0.406811 0
1.33959 0.387065 0
3.92239 0.405803 0
4.08079 0.415776 0
2.48812 0.452349 0
1.57935 0.603183 0
1.93602 0.417543 0
1.72453 0.617973 0
3.11273 0.629643 0
2.69029 0.396284 0
3.94662 0.623383 0
1.88466 0.613248 0
2.79598 0.609502 0
4.10826 0.620575 0
2.04005 0.62838 0
2.95434 0.619575 0
4.51981 0.375801 0
4.59833 0.380943 0
4.63314 0.451296 0
4.26693 0.63114 0
2.19619 0.645921 0
4.4246 0.642296 0
3.27112 0.639707 0
2.35729 0.649822 0
2.51462 0.660373 0
3.42952 0.649769 0
4.67669 0.38601 0
3.58793 0.659829 0
3.74634 0.669888 0
4.64195 0.315733 0
4.44109 0.370647 0
4.48493 0.305066 0
4.40614 0.29989 0
4.71136 0.456133 0
4.72014 0.320758 0
0.8692 0.382093 0
0.841252 0.348256 0
0.886481 0.338703 0
0.853127 0.301457 0
0.902583 0.287335 0
0.801683 0.321689 0
0.818113 0.263019 0
0.764765 0.277091 0
4.44702 0.235678 0
0.946267 0.520761 0
0.78107 0.221265 0
0.726309 0.234724 0
0.848273 0.20551 0
4.68545 0.250576 0
4.37074 0.227561 0
4.76365 0.255792 0
4.79822 0.326145 0
0.713664 0.287231 0
0.672358 0.247957 0
0.68673 0.192342 0
0.630368 0.2085 0
0.616569 0.265341 0
0.574186 0.225456 0
0.557393 0.28131 0
0.52004 0.242373 0
0.504416 0.299685 0
0.462273 0.252096 0
0.44798 0.316739 0
0.404567 0.276951 0
0.390546 0.335414 0
0.434669 0.37657 0
0.377935 0.394545 0
0.421979 0.43426 0
0.365682 0.452846 0
0.409646 0.492216 0
0.353389 0.51089 0
0.397738 0.551598 0
0.339864 0.570301 0
0.385899 0.612153 0
0.325913 0.631557 0
0.344507 0.29318 0
0.320568 0.413067 0
0.373553 0.673852 0
0.434438 0.653082 0
0.311416 0.69481 0
0.449777 0.528305 0
0.293513 0.534612 0
0.421431 0.715204 0
0.480917 0.696603 0
0.54504 0.34471 0
0.262743 0.649913 0
0.246209 0.712341 0
0.468564 0.755948 0
0.526091 0.735423 0
0.538207 0.68039 0
0.581228 0.716342 0
0.408756 0.777952 0
0.36234 0.239019 0
0.297047 0.251925 0
0.572109 0.771575 0
0.624906 0.752173 0
0.474824 0.414151 0
0.534351 0.182707 0
0.633682 0.70159 0
0.674547 0.736174 0
0.66826 0.788959 0
0.721117 0.76834 0
0.714515 0.825486 0
0.769074 0.802008 0
0.775287 0.746591 0
0.821903 0.778625 0
0.826767 0.726064 0
0.873257 0.756032 0
0.872997 0.697261 0
0.92331 0.732304 0
0.930014 0.67838 0
0.976061 0.710612 0
0.92456 0.784469 0
0.982178 0.654421 0
1.03016 0.688004 0
1.02037 0.747059 0
1.08 0.723819 0
1.08651 0.661896 0
1.1397 0.698204 0
1.13262 0.763657 0
1.19424 0.736545 0
1.18556 0.80161 0
1.24839 0.771772 0
1.25723 0.706382 0
1.31432 0.745787 0
4.66801 0.521361 0
4.74602 0.526202 0
4.70285 0.591278 0
4.78076 0.596023 0
4.73763 0.661207 0
4.78904 0.460969 0
2.61113 0.391267 0
2.65506 0.325217 0
2.57588 0.320198 0
2.61982 0.254148 0
2.69899 0.259163 0
2.54065 0.249131 0
2.49672 0.315179 0
2.46148 0.244124 0
2.41757 0.310166 0
2.38233 0.239117 0
2.33843 0.30514 0
2.30297 0.237979 0
2.25928 0.300748 0
2.22079 0.221377 0
2.17969 0.293884 0
2.14114 0.224266 0
2.10047 0.289841 0
2.0653 0.219144 0
2.02202 0.284919 0
1.98701 0.214164 0
1.94336 0.279863 0
3.82315 0.673327 0
3.78135 0.738156 0
3.86451 0.735958 0
3.70234 0.735494 0
4.52513 0.244409 0
4.32717 0.294467 0
4.29217 0.221862 0
0.619934 0.539507 0
0.599432 0.577132 0
0.575955 0.542712 0
0.554504 0.58245 0
4.65962 0.656481 0
4.69438 0.726169 0
4.6161 0.721747 0
4.77259 0.731352 0
4.65076 0.791486 0
4.57153 0.788793 0
4.2482 0.289182 0
4.21307 0.218308 0
4.1691 0.284563 0
4.13394 0.21352 0
0.835918 0.606341 0
0.806475 0.6384 0
4.08995 0.279537 0
0.640355 0.426737 0
0.596214 0.435837 0
0.630358 0.379178 0
0.689967 0.627735 0
1.90832 0.209948 0
1.86468 0.27519 0
1.82968 0.20518 0
1.78607 0.269797 0
0.281841 0.313314 0
0.232117 0.268621 0
0.216861 0.334396 0
4.05473 0.209347 0
4.01077 0.2745 0
3.97554 0.204394 0
3.93159 0.269388 0
0.297409 0.759367 0
0.231645 0.782943 0
0.180008 0.73598 0
1.32151 0.676369 0
1.38055 0.718092 0
1.36901 0.793947 0
1.43945 0.766002 0
0.249902 0.198865 0
0.932364 0.624392 0
1.75117 0.201034 0
1.70771 0.264658 0
1.673 0.195402 0
1.62985 0.260294 0
1.59532 0.191927 0
1.55236 0.254233 0
3.89629 0.200227 0
3.85238 0.264494 0
3.81708 0.195303 0
3.77304 0.259453 0
2.66368 0.189084 0
2.74279 0.19534 0
2.77814 0.264556 0
2.82201 0.199823 0
2.85733 0.269552 0
2.90126 0.203886 0
2.93654 0.274416 0
2.98045 0.20868 0
3.01573 0.279376 0
3.0597 0.213193 0
[...]
CELL_DATA 2220
VECTORS velocity double
32.4866 -1.69108 0.0
23.1718 0.74243 0.0
29.6319 0.740175 0.0
22.9199 2.48619 0.0
33.1952 -1.90469 0.0
41.8957 -1.37476 0.0
19.6717 0.709667 0.0
21.8588 -0.02588 0.0
38.4439 2.90445 0.0
40.7996 -1.02598 0.0
23.1205 0.487331 0.0
20.8266 0.394709 0.0
16.6409 0.295673 0.0
33.5155 -2.49916 0.0
25.4656 -0.286755 0.0
34.0981 3.23988 0.0
22.366 1.14972 0.0
18.225 0.890924 0.0
20.4618 -0.21287 0.0
22.0466 -0.189358 0.0
24.8852 0.495054 0.0
30.7226 3.9065 0.0
21.0469 1.01393 0.0
21.5443 0.836085 0.0
44.3915 -0.626477 0.0
31.1584 -2.3325 0.0
22.8618 1.20895 0.0
18.5965 0.813958 0.0
22.5546 2.34998 0.0
24.8219 1.73943 0.0
39.5908 -1.39844 0.0
30.6583 3.24495 0.0
15.2728 -0.186979 0.0
31.8488 1.29899 0.0
36.7487 -3.93378 0.0
42.3249 -1.47391 0.0
35.8114 -4.30374 0.0
17.8655 -0.200165 0.0
26.3052 2.69978 0.0
27.7782 2.13413 0.0
13.9671 0.676595 0.0
38.602 3.14052 0.0
19.3838 2.13949 0.0
19.8714 0.00162009 0.0
18.1825 -0.0359098 0.0
16.1944 0.00764822 0.0
20.7591 0.918049 0.0
16.4686 -0.0117152 0.0
40.3641 -0.913688 0.0
44.9547 0.348129 0.0
20.2977 0.663224 0.0
16.425 0.1584 0.0
20.497 0.890621 0.0
20.7137 0.179599 0.0
18.7928 0.946388 0.0
28.2065 1.92403 0.0
32.7193 3.40375 0.0
17.505 0.786847 0.0
17.9366 0.814812 0.0
45.7386 0.205523 0.0
-0.272926 -7.74197 0.0
45.1463 -1.05181 0.0
40.8244 -2.02323 0.0
20.9431 0.904237 0.0
20.9132 0.911658 0.0
35.0656 1.2519 0.0
18.0636 -1.94801 0.0
36.598 3.4044 0.0
17.8519 0.87687 0.0
17.9954 0.8492 0.0
20.5534 0.257152 0.0
32.9523 -1.71871 0.0
16.1254 0.245597 0.0
43.6589 0.86984 0.0
13.0388 0.429716 0.0
38.6227 2.92584 0.0
42.9322 2.27663 0.0
24.2207 -1.82816 0.0
39.5986 3.64787 0.0
19.4905 0.158556 0.0
23.9981 -1.05814 0.0
28.6322 -1.8323 0.0
13.3926 -0.300415 0.0
16.1123 0.148769 0.0
20.1412 0.653063 0.0
20.0794 0.339428 0.0
29.7145 -1.84491 0.0
16.8544 0.296482 0.0
17.1358 0.527261 0.0
37.9625 2.4134 0.0
6.85521 0.524018 0.0
23.7167 1.98798 0.0
20.6514 -0.265641 0.0
35.6236 3.27723 0.0
39.1152 3.10095 0.0
27.4533 -1.95612 0.0
30.0562 -4.09105 0.0
13.9047 -1.08734 0.0
0.621511 -5.83617 0.0
31.2269 -0.689207 0.0
7.21957 -0.817143 0.0
29.5312 -2.27793 0.0
20.5095 0.814211 0.0
17.9802 1.19594 0.0
34.2074 4.18039 0.0
37.7534 3.39566 0.0
42.6914 -1.19553 0.0
46.3635 -1.10327 0.0
6.10174 -0.160988 0.0
21.2882 1.30206 0.0
27.9549 1.73375 0.0
35.8677 -2.02999 0.0
42.2321 -1.02079 0.0
10.2502 -0.993103 0.0
45.6976 -1.73023 0.0
17.5242 0.708204 0.0
32.626 -2.55081 0.0
16.6758 -0.561646 0.0
7.1796 -0.0513728 0.0
37.5458 1.79117 0.0
23.6745 -1.81989 0.0
32.9156 -1.34312 0.0
18.4096 1.39146 0.0
24.4652 3.29947 0.0
38.5621 -3.92985 0.0
28.4436 -2.75045 0.0
35.7536 3.1278 0.0
21.3287 1.49393 0.0
37.065 -2.917 0.0
16.7782 1.65396 0.0
16.5688 2.4078 0.0
19.4732 -2.08142 0.0
11.693 -1.37443 0.0
18.9915 13.1472 0.0
25.8011 2.58748 0.0
14.5146 12.4874 0.0
14.941 -0.0115335 0.0
22.1852 -0.247823 0.0
30.0016 -2.83526 0.0
31.4382 3.39426 0.0
25.4879 -0.834496 0.0
19.5698 -0.0545494 0.0
45.1693 -2.06754 0.0
39.6277 -4.37914 0.0
42.5937 0.866286 0.0
31.7334 2.90358 0.0
9.87451 1.07775 0.0
14.0983 -0.56951 0.0
44.8824 1.908 0.0
45.8504 -1.52031 0.0
17.6782 -0.321524 0.0
36.6932 1.77561 0.0
33.2616 -0.0286218 0.0
22.3795 2.98513 0.0
7.6221 8.73136 0.0
22.2192 0.380859 0.0
20.6102 -2.26417 0.0
23.0847 0.598438 0.0
10.0148 -1.0302 0.0
21.0933 -1.36946 0.0
20.5935 -3.1508 0.0
17.6225 0.0422478 0.0
9.33758 -1.06352 0.0
30.657 -3.17091 0.0
15.9761 0.148491 0.0
30.219 2.09403 0.0
31.6298 -1.91643 0.0
36.7564 -1.255 0.0
22.0759 0.28747 0.0
11.9409 -2.0402 0.0
10.7256 1.40034 0.0
15.7595 0.0631837 0.0
20.3462 0.128403 0.0
15.9431 -1.60481 0.0
26.357 -1.3726 0.0
40.4388 3.69187 0.0
41.5777 2.0877 0.0
39.8618 3.42959 0.0
11.3751 -0.698409 0.0
21.9183 0.0832995 0.0
32.3029 -0.51266 0.0
21.2085 -0.91883 0.0
7.017 1.21561 0.0
18.1916 2.06375 0.0
22.3223 -0.0109009 0.0
43.141 -0.956913 0.0
34.1024 0.108476 0.0
17.7475 -0.502208 0.0
31.5434 -3.96458 0.0
36.5784 -0.453953 0.0
11.9612 -1.25288 0.0
17.5092 -0.298983 0.0
37.6067 -2.53118 0.0
44.9395 1.65956 0.0
21.0967 -2.12522 0.0
34.0247 0.867832 0.0
29.6584 1.14804 0.0
19.9237 -0.776388 0.0
6.07271 -0.564616 0.0
20.8922 -0.500049 0.0
21.5386 -11.2486 0.0
27.2224 -1.38116 0.0
32.7245 2.87722 0.0
21.0012 -0.0904782 0.0
14.1566 -0.552905 0.0
28.7565 -2.22111 0.0
25.6962 0.082285 0.0
19.2406 0.0601746 0.0
29.4562 1.98 0.0
11.2402 -0.807278 0.0
20.6003 0.848394 0.0
12.3774 -0.511444 0.0
28.7999 -0.293068 0.0
38.376 3.49916 0.0
43.0116 2.86794 0.0
21.2529 3.05684 0.0
17.4983 0.780104 0.0
20.798 1.01414 0.0
11.4848 0.326789 0.0
13.4838 -0.196152 0.0
42.0559 0.56892 0.0
9.81666 -0.319169 0.0
17.5582 0.929724 0.0
9.42865 -0.121784 0.0
20.7861 -0.069987 0.0
24.2998 -1.64886 0.0
20.1888 -1.50454 0.0
21.5546 -0.98655 0.0
30.6672 0.0414209 0.0
11.0538 1.1351 0.0
25.5206 1.87013 0.0
28.4042 -1.38679 0.0
14.1816 -0.108196 0.0
21.1861 -0.290278 0.0
11.2983 -1.04938 0.0
38.7166 -0.0190095 0.0
24.4878 -1.78044 0.0
20.4821 -0.308388 0.0
20.3418 -0.342486 0.0
18.0562 -0.15626 0.0
39.8211 -4.14001 0.0
31.394 -3.65003 0.0
37.2776 4.45562 0.0
10.5807 -0.0134922 0.0
17.0307 10.0988 0.0
43.1487 -0.0571146 0.0
22.2334 -0.401728 0.0
29.979 -1.29454 0.0
5.27116 10.6828 0.0
19.9805 2.17723 0.0
15.2483 -10.8437 0.0
10.575 -0.0966057 0.0
31.792 -2.41371 0.0
40.1319 -0.255995 0.0
41.3586 -3.10842 0.0
20.1307 0.464464 0.0
11.1583 0.176767 0.0
42.0537 0.19712 0.0
21.3541 2.06365 0.0
38.8353 1.48452 0.0
22.9673 -0.426725 0.0
33.9388 -0.938286 0.0
10.8324 1.14115 0.0
24.6855 -1.47055 0.0
10.4338 -0.528525 0.0
7.55729 -0.0931567 0.0
18.6237 -1.27675 0.0
30.4356 -1.44916 0.0
23.3005 1.33333 0.0
43.6932 -0.139307 0.0
39.0011 1.11322 0.0
39.6841 -0.0159182 0.0
16.9852 0.380864 0.0
41.1293 -1.77986 0.0
20.2338 -2.08964 0.0
38.1066 4.4754 0.0
13.0477 1.95817 0.0
35.4732 -0.870744 0.0
19.6405 1.66347 0.0
12.7496 0.132118 0.0
22.9875 -2.10107 0.0
24.5083 -2.36409 0.0
39.2021 4.27993 0.0
28.1647 1.24074 0.0
40.6547 -1.66027 0.0
25.7761 -0.980749 0.0
33.3269 -3.6899 0.0
27.3384 1.04267 0.0
17.6369 -0.259711 0.0
17.0539 -0.284722 0.0
11.091 -0.322629 0.0
19.9382 -1.08184 0.0
11.5897 0.965141 0.0
23.0742 -11.2197 0.0
23.2867 -1.4025 0.0
26.5801 -0.31038 0.0
26.9315 -0.277205 0.0
20.0376 0.529159 0.0
38.3359 4.4151 0.0
43.5556 2.96684 0.0
15.1052 -1.32115 0.0
41.1284 3.75463 0.0
33.1287 -1.79099 0.0
7.12529 0.0868137 0.0
33.7407 -3.0434 0.0
21.4887 1.15493 0.0
16.4906 -0.18739 0.0
17.2789 -0.307428 0.0
15.2578 0.415276 0.0
10.7049 0.889398 0.0
13.1194 -0.0188813 0.0
18.4151 12.0434 0.0
13.628 1.08063 0.0
39.0615 4.48689 0.0
30.7885 -2.32494 0.0
19.9982 -0.309051 0.0
40.9718 3.15371 0.0
11.7207 1.06162 0.0
39.3531 -2.41102 0.0
42.9958 3.32124 0.0
13.8937 -2.09138 0.0
17.7644 1.0114 0.0
41.2023 0.251173 0.0
11.9008 -0.976004 0.0
14.1642 15.6407 0.0
12.2756 -0.125881 0.0
39.7428 0.0728719 0.0
40.407 1.17969 0.0
43.0404 0.543498 0.0
11.9119 -0.46719 0.0
36.049 -3.31665 0.0
39.6168 -4.75707 0.0
37.0613 -1.51576 0.0
10.7071 -1.05288 0.0
37.1975 0.0818928 0.0
39.7048 -3.59918 0.0
23.63 -2.56907 0.0
40.2176 3.75286 0.0
33.0191 -2.11042 0.0
20.2162 -0.34045 0.0
8.18847 -0.183052 0.0
17.8998 -0.348392 0.0
6.7763 0.511491 0.0
6.87359 0.0514129 0.0
14.1143 -1.70506 0.0
39.4083 3.5239 0.0
10.6537 5.04044 0.0
40.8068 3.6649 0.0
43.3691 2.74278 0.0
6.56582 -0.303221 0.0
37.5073 1.60145 0.0
5.52343 0.174819 0.0
6.71197 -0.451668 0.0
31.436 2.99545 0.0
10.0933 0.772956 0.0
38.9615 -1.72183 0.0
36.9323 1.91491 0.0
5.84834 -0.319062 0.0
39.9498 0.854358 0.0
29.3209 -3.27985 0.0
41.5047 2.86708 0.0
13.9043 0.618611 0.0
28.942 1.89848 0.0
41.2148 3.31171 0.0
5.98182 0.604597 0.0
45.9269 0.555101 0.0
33.2799 -4.43815 0.0
6.21308 -0.414023 0.0
6.26507 -0.56969 0.0
34.2376 -1.83795 0.0
6.39726 0.459176 0.0
31.616 3.82941 0.0
36.05 -1.92857 0.0
22.7949 -0.808965 0.0
9.16262 -0.0884803 0.0
12.3666 0.530104 0.0
28.3729 0.59894 0.0
28.6671 0.166447 0.0
38.9557 -0.86545 0.0
26.8185 -0.18379 0.0
13.148 -0.876706 0.0
39.2033 3.63227 0.0
39.4985 -3.14694 0.0
42.5091 0.335455 0.0
38.6033 3.60104 0.0
39.1899 -0.201543 0.0
37.9247 4.06583 0.0
40.9844 0.191972 0.0
31.0483 -1.98122 0.0
41.7649 2.41495 0.0
10.194 1.03215 0.0
37.6605 0.0156508 0.0
28.0081 -0.949205 0.0
40.4503 -2.72716 0.0
8.87084 -0.957446 0.0
19.4011 -1.41185 0.0
38.7861 0.67457 0.0
8.5294 0.783873 0.0
40.8719 0.191712 0.0
38.8491 2.64195 0.0
6.96268 0.28371 0.0
27.7072 -0.85731 0.0
40.2221 3.10102 0.0
41.5597 0.107521 0.0
33.8111 -4.20764 0.0
37.8193 -4.62516 0.0
6.59872 4.56598 0.0
10.384 0.825365 0.0
22.0945 -1.65676 0.0
36.8035 -1.53648 0.0
27.8336 -2.45135 0.0
6.61096 0.0247327 0.0
38.5014 4.1258 0.0
42.4933 -2.95545 0.0
39.0152 -2.25888 0.0
41.7451 0.11969 0.0
3.94929 -0.176935 0.0
5.92353 0.471227 0.0
36.9866 2.85515 0.0
6.35524 0.585224 0.0
42.1053 3.60435 0.0
38.0195 2.75746 0.0
4.05512 0.00111067 0.0
6.33706 -0.513576 0.0
40.3633 2.67792 0.0
38.0404 0.492823 0.0
3.85643 0.179836 0.0
33.6923 -0.19537 0.0
40.8482 0.224627 0.0
10.8717 -0.746825 0.0
41.4652 0.135758 0.0
37.1025 2.64373 0.0
39.1293 -3.32962 0.0
41.5938 2.0488 0.0
6.53923 -0.607324 0.0
31.8034 -4.40285 0.0
6.88041 -0.134848 0.0
6.38171 0.46689 0.0
35.7801 -3.23736 0.0
6.39079 0.650458 0.0
37.1178 3.00679 0.0
40.5232 2.29405 0.0
38.4455 -3.85838 0.0
38.8681 -4.77175 0.0
10.3917 -1.107 0.0
21.5516 -0.0463827 0.0
38.7056 1.98593 0.0
5.9733 -0.37325 0.0
5.4724 0.411921 0.0
17.1354 -2.01243 0.0
10.0143 0.979844 0.0
41.3401 -0.814919 0.0
6.96816 -0.443916 0.0
22.3509 0.951136 0.0
43.1934 1.3017 0.0
9.99155 0.729707 0.0
11.8274 0.765923 0.0
39.9439 3.48107 0.0
6.71285 0.399733 0.0
40.9448 1.61519 0.0
36.9537 2.29278 0.0
39.2487 0.461091 0.0
6.16291 -0.600334 0.0
4.78979 0.435975 0.0
8.53866 -0.39642 0.0
28.8801 -0.748753 0.0
13.5031 -2.04229 0.0
41.4724 0.178468 0.0
3.93904 0.100736 0.0
39.2381 -4.70753 0.0
10.9237 -0.397988 0.0
5.40293 0.419837 0.0
14.6652 -1.57963 0.0
39.6569 3.69862 0.0
10.5804 -0.666692 0.0
39.0803 0.376207 0.0
39.8716 1.91017 0.0
26.8955 -0.462429 0.0
40.9321 0.259146 0.0
36.5888 1.9631 0.0
22.9523 -1.63679 0.0
37.4732 0.746411 0.0
43.5683 -2.49082 0.0
36.1325 1.62001 0.0
6.4304 -0.676171 0.0
6.85822 0.69899 0.0
38.6597 -0.891409 0.0
5.21163 0.363766 0.0
32.7837 -3.6228 0.0
23.0835 8.70118 0.0
41.0675 0.268225 0.0
5.32822 0.392683 0.0
6.06311 -0.406793 0.0
39.4187 1.49823 0.0
39.246 3.61708 0.0
29.5114 -0.206743 0.0
28.637 -1.51003 0.0
35.7849 0.0607914 0.0
25.3845 -1.33777 0.0
18.5644 -11.3445 0.0
36.3416 -0.160081 0.0
35.1099 2.4102 0.0
5.7263 -0.241511 0.0
35.7158 1.28028 0.0
31.4538 9.13276 0.0
18.1131 -0.551121 0.0
41.5922 0.373743 0.0
4.26689 -0.420675 0.0
4.71162 0.430682 0.0
35.2244 2.7508 0.0
37.3616 -0.189901 0.0
36.4157 -1.05041 0.0
20.936 -0.17706 0.0
40.7442 2.34361 0.0
41.5522 0.21282 0.0
43.2487 -2.34077 0.0
5.56075 1.79575 0.0
39.5354 0.623289 0.0
43.6156 -2.63997 0.0
34.4673 1.788 0.0
35.8296 6.41234 0.0
11.0898 -3.03359 0.0
35.6529 0.193717 0.0
6.52674 -5.86576 0.0
34.1973 -1.43028 0.0
39.0207 -1.17128 0.0
43.7591 2.87041 0.0
40.6401 2.75052 0.0
5.86661 -1.56404 0.0
35.3928 0.992887 0.0
38.8796 4.05481 0.0
34.0494 1.48264 0.0
42.427 0.138153 0.0
34.8644 2.09152 0.0
38.5813 0.823471 0.0
24.3953 -0.933278 0.0
27.4841 1.13217 0.0
11.5317 -4.43279 0.0
38.6644 -2.74738 0.0
16.7771 -0.166399 0.0
31.2793 -6.68915 0.0
8.93561 -7.88072 0.0
36.9882 -2.73029 0.0
41.7616 0.184628 0.0
2.89383 -0.282852 0.0
2.96759 0.288271 0.0
38.2217 0.622463 0.0
37.8397 3.18583 0.0
35.1882 0.783626 0.0
30.0169 9.89663 0.0
6.44614 -0.180355 0.0
10.3365 -0.28706 0.0
7.89863 0.874051 0.0
3.45599 2.3737 0.0
7.51322 -4.17713 0.0
43.0345 -3.03937 0.0
42.5777 0.108343 0.0
37.6685 -3.96324 0.0
1.10237 1.23394 0.0
31.3848 -0.0933636 0.0
33.3319 -0.0986772 0.0
35.9996 -5.9043 0.0
27.6071 8.7738 0.0
1.30477 -1.17488 0.0
3.87446 -2.14187 0.0
28.7414 0.561755 0.0
19.6257 1.12725 0.0
33.7723 1.18351 0.0
23.5351 -3.66001 0.0
37.5191 -0.0921679 0.0
38.1165 2.30021 0.0
38.722 -0.0882656 0.0
31.9966 6.84171 0.0
41.327 0.165746 0.0
3.79391 -0.292708 0.0
41.9467 3.62591 0.0
42.4793 0.547412 0.0
39.0114 0.357446 0.0
42.4886 0.0258764 0.0
39.2493 -3.53366 0.0
3.64895 0.213196 0.0
42.1708 -0.262805 0.0
7.21394 -1.05537 0.0
18.1466 1.31482 0.0
27.63 -0.496476 0.0
35.0474 0.65932 0.0
33.5433 0.930526 0.0
41.6374 1.70918 0.0
41.827 1.31632 0.0
41.2167 1.9305 0.0
5.10376 0.300459 0.0
9.55839 0.53111 0.0
8.06165 -0.680938 0.0
42.21 0.12655 0.0
37.9608 0.434864 0.0
39.5821 -4.76162 0.0
6.99353 1.24754 0.0
41.5223 0.163368 0.0
38.3358 4.16405 0.0
13.3296 8.69738 0.0
38.2663 -0.0600324 0.0
3.30674 0.730745 0.0
36.9281 -0.109466 0.0
40.4909 -1.25608 0.0
37.578 -0.65778 0.0
28.3665 -0.352767 0.0
26.2874 -0.341872 0.0
36.4631 -0.16456 0.0
7.7059 0.261473 0.0
38.3554 3.92489 0.0
41.8743 -0.244998 0.0
39.3594 -0.220658 0.0
39.0595 0.375229 0.0
35.0369 0.592102 0.0
19.784 -0.0121619 0.0
37.9704 0.430844 0.0
45.4814 -1.82281 0.0
41.3617 0.0997561 0.0
9.96149 0.433262 0.0
35.8517 5.87411 0.0
3.55866 -0.659094 0.0
42.3797 0.634908 0.0
42.2288 0.346362 0.0
35.1184 0.570416 0.0
2.3769 1.01546 0.0
37.5095 -0.792987 0.0
41.7921 0.132336 0.0
41.2788 1.45022 0.0
37.7971 -0.108652 0.0
42.0448 -0.444445 0.0
39.2118 0.395665 0.0
41.9696 0.123433 0.0
42.5127 0.312575 0.0
41.6655 0.216695 0.0
35.3392 0.581736 0.0
4.48707 0.384988 0.0
15.1845 1.17153 0.0
41.6898 -0.853424 0.0
37.8443 3.29275 0.0
2.60592 -0.933367 0.0
8.70837 -0.441911 0.0
36.9585 -2.78368 0.0
37.764 3.80829 0.0
38.1142 0.452952 0.0
16.2683 -0.838881 0.0
39.1116 -0.21604 0.0
39.9618 -0.165439 0.0
26.6635 10.4129 0.0
8.44338 0.645691 0.0
4.17794 -0.436521 0.0
44.46 -2.22218 0.0
31.7074 5.74407 0.0
39.7569 -3.34637 0.0
42.408 0.490197 0.0
12.9673 0.199416 0.0
38.3381 0.454103 0.0
33.3993 0.779234 0.0
41.3007 -0.0338619 0.0
3.96295 0.518787 0.0
39.4339 0.376703 0.0
41.3451 0.0352877 0.0
4.95663 -0.193449 0.0
35.6651 0.56911 0.0
41.2211 0.233277 0.0
42.245 0.59011 0.0
39.9143 0.181899 0.0
39.7296 -0.239793 0.0
41.7627 0.0748023 0.0
35.9186 -0.853196 0.0
39.8555 -0.16421 0.0
39.7148 0.292006 0.0
39.1575 0.129364 0.0
38.8805 -0.282605 0.0
4.61848 -0.282916 0.0
42.335 0.416055 0.0
38.6813 -0.334505 0.0
6.18665 0.292497 0.0
41.6963 0.0103101 0.0
9.61839 0.557571 0.0
38.6457 0.378327 0.0
39.5365 -0.300463 0.0
42.2813 0.444335 0.0
40.6547 -0.141476 0.0
40.0335 0.0914341 0.0
42.0622 0.319994 0.0
19.614 0.254695 0.0
36.6059 0.259235 0.0
34.6561 1.72869 0.0
35.9773 0.44722 0.0
4.5085 -0.0574072 0.0
41.2666 0.138865 0.0
38.9524 0.24218 0.0
34.4894 -6.1943 0.0
3.45922 -0.318115 0.0
33.4642 0.635779 0.0
3.38942 0.236256 0.0
31.6387 -5.50275 0.0
36.1216 1.99154 0.0
33.6637 0.625802 0.0
37.4096 -0.17687 0.0
38.5058 -0.361587 0.0
34.0362 0.633988 0.0
40.127 -0.0545707 0.0
33.1747 -3.22085 0.0
33.2177 -7.25526 0.0
39.018 -0.0757215 0.0
42.0283 0.62026 0.0
42.2205 0.683718 0.0
42.1876 0.40342 0.0
39.3708 -0.340331 0.0
42.3812 0.453163 0.0
34.6795 -0.181525 0.0
42.2957 0.423594 0.0
38.1234 -0.222932 0.0
36.8645 0.126401 0.0
18.5361 0.500454 0.0
40.5488 -0.0685135 0.0
42.3444 0.401628 0.0
32.707 -0.665179 0.0
42.025 0.510972 0.0
39.2292 -0.347706 0.0
38.3577 -0.347388 0.0
4.80815 0.294711 0.0
39.2843 0.0445208 0.0
33.3861 0.69059 0.0
42.5027 0.390477 0.0
30.5273 -0.355951 0.0
10.4206 0.326732 0.0
37.0883 0.0288957 0.0
42.036 0.356488 0.0
34.8879 0.352075 0.0
34.0028 -0.181431 0.0
38.2344 -0.277847 0.0
42.0122 0.165479 0.0
39.115 -0.30944 0.0
35.4285 0.190058 0.0
23.404 6.95698 0.0
41.6158 -0.0624283 0.0
42.4966 0.330029 0.0
41.7207 1.09757 0.0
18.179 -0.0964755 0.0
39.3678 -0.0292808 0.0
32.7423 -0.212207 0.0
5.61955 0.194668 0.0
9.65585 0.376566 0.0
39.0122 -0.224073 0.0
41.4451 0.310476 0.0
36.5606 -0.358332 0.0
38.1118 -0.166167 0.0
42.3229 0.259895 0.0
37.0849 -0.24404 0.0
37.266 -0.0511377 0.0
37.9428 -0.0429781 0.0
33.0876 -0.249724 0.0
36.0826 -0.225297 0.0
42.5976 0.256939 0.0
33.491 -0.208858 0.0
41.8146 0.141885 0.0
36.3204 -0.390168 0.0
37.6748 -0.296663 0.0
35.7589 -0.285944 0.0
32.7093 -0.300573 0.0
41.5078 0.278907 0.0
38.8889 -0.112519 0.0
6.88457 0.222496 0.0
10.5675 0.322361 0.0
42.2831 0.0558093 0.0
41.9102 -0.0342183 0.0
34.3014 0.593276 0.0
35.5812 -0.0114064 0.0
35.9668 -0.0212903 0.0
42.2532 0.535257 0.0
37.6738 0.0600191 0.0
41.5086 0.967957 0.0
40.0968 0.0170222 0.0
32.3634 -0.355096 0.0
34.9489 -0.407736 0.0
35.708 0.0691223 0.0
38.7042 -0.00488803 0.0
42.5866 0.175892 0.0
41.2474 -0.107268 0.0
35.476 -0.342853 0.0
35.3808 1.29896 0.0
31.1688 -0.278612 0.0
35.2052 -0.389936 0.0
32.0528 -0.410459 0.0
39.6134 1.9333 0.0
37.3028 0.109375 0.0
38.4323 0.0664154 0.0
36.1267 -0.374908 0.0
31.5978 -0.237594 0.0
34.3889 -0.067054 0.0
42.0032 0.318281 0.0
31.7277 -0.439159 0.0
34.7506 -0.350339 0.0
36.9119 0.0837823 0.0
20.7921 0.220747 0.0
40.8472 0.151342 0.0
31.3892 -0.367158 0.0
18.1696 0.152945 0.0
30.7847 -0.328283 0.0
38.1048 0.0746254 0.0
31.227 -0.202379 0.0
34.5714 -0.222832 0.0
32.0786 -0.216715 0.0
4.93997 -0.0749631 0.0
9.10414 -0.133573 0.0
20.7069 0.322392 0.0
36.7601 -0.32336 0.0
35.8017 -0.15565 0.0
36.5902 0.005303 0.0
37.7956 0.0195924 0.0
30.9847 -0.0263732 0.0
10.3001 0.145283 0.0
42.1587 0.212612 0.0
9.35213 -0.154063 0.0
42.6063 0.050407 0.0
36.4027 -0.0831678 0.0
30.4253 -0.385043 0.0
35.2118 0.108898 0.0
29.9994 -0.442469 0.0
42.5536 -0.0635644 0.0
34.6904 0.173733 0.0
5.11272 -0.0806208 0.0
9.22684 -0.152438 0.0
35.9641 -0.289283 0.0
5.51943 0.0906488 0.0
37.5708 -0.0710641 0.0
29.6569 -0.425418 0.0
29.4031 -0.276519 0.0
34.0768 0.07407 0.0
37.2549 -0.192599 0.0
42.1599 -0.0421994 0.0
34.1745 0.152697 0.0
33.7493 0.0652335 0.0
9.29088 -0.135474 0.0
5.3095 -0.0815087 0.0
17.354 0.266909 0.0
29.1698 -0.083497 0.0
33.5301 0.178705 0.0
36.8069 -0.305908 0.0
32.8996 0.212535 0.0
38.3987 -0.0874196 0.0
17.7284 0.297889 0.0
32.3512 0.14143 0.0
37.5075 -0.148424 0.0
33.4771 -0.0150911 0.0
9.36485 0.152278 0.0
4.81197 -0.0514662 0.0
4.04403 -0.080508 0.0
5.17212 -0.0741972 0.0
9.24807 -0.0467054 0.0
9.83743 0.181463 0.0
4.40274 -0.022096 0.0
4.9879 -0.00204279 0.0
9.06186 -0.125461 0.0
4.84049 -0.0447059 0.0
5.22868 -0.0402571 0.0
5.55164 0.142176 0.0
9.99124 -0.139633 0.0
5.3828 0.0849955 0.0
8.9246 -0.0892315 0.0
5.16561 0.0824999 0.0
9.51105 -0.0646491 0.0
9.29916 -0.045582 0.0
5.02449 0.157145 0.0
10.2086 0.209331 0.0
9.05181 -0.099947 0.0
8.83993 -0.114399 0.0
5.17852 0.251203 0.0
8.56176 -0.0723174 0.0
9.22241 0.199075 0.0
4.78738 -0.0224744 0.0
8.97041 -0.0531516 0.0
5.42137 0.0166892 0.0
4.79496 0.0934712 0.0
8.65527 -0.152538 0.0
5.14388 0.188972 0.0
6.21845 0.115402 0.0
5.26003 0.291652 0.0
4.4032 0.0810201 0.0
4.72439 -0.00827132 0.0
9.06019 0.0421481 0.0
4.97383 -0.0735457 0.0
5.09779 -0.0789778 0.0
5.25176 0.210626 0.0
5.29817 0.214432 0.0
5.20285 -0.00417148 0.0
5.09179 0.0621662 0.0
4.32702 -0.0783243 0.0
4.8974 -0.0442257 0.0
6.09675 -0.0044736 0.0
10.1339 -0.0215299 0.0
5.34528 -0.093199 0.0
6.28029 0.0794351 0.0
8.64892 0.163949 0.0
8.42012 -0.171814 0.0
4.85932 -0.0645475 0.0
5.33826 0.215065 0.0
4.92344 0.0542106 0.0
9.51873 0.0157153 0.0
4.66411 0.105214 0.0
5.16914 0.0835089 0.0
4.80451 -0.0692842 0.0
9.49369 0.408119 0.0
5.91716 -0.0931344 0.0
4.24188 0.0154499 0.0
4.843 0.0168098 0.0
4.10552 0.0484322 0.0
5.3015 0.0847345 0.0
5.36711 -0.0227673 0.0
7.93208 -0.0756548 0.0
3.66862 -0.0290677 0.0
9.27786 0.379228 0.0
9.61342 0.142332 0.0
37.0507 -0.175716 0.0
36.4475 -0.120826 0.0
40.1379 -0.126314 0.0
31.9632 0.045403 0.0
41.9477 -0.310344 0.0
42.1493 -0.140672 0.0
31.6636 0.0106384 0.0
42.0504 -0.327278 0.0
42.3774 -0.27539 0.0
42.1438 -0.345956 0.0
42.4882 -0.172342 0.0
33.4541 -0.0142321 0.0
36.7377 -0.118851 0.0
42.2739 -0.30857 0.0
35.6989 -0.158211 0.0
41.8198 -0.227633 0.0
37.6782 -0.176001 0.0
41.75 -0.188776 0.0
39.6025 -0.258404 0.0
40.1878 -0.285743 0.0
27.7995 0.117588 0.0
41.7567 -0.355319 0.0
41.7478 -0.199794 0.0
40.4371 -0.271092 0.0
42.0002 -0.29241 0.0
31.04 -0.130169 0.0
39.419 -0.101377 0.0
36.678 -0.13621 0.0
41.5376 -0.341514 0.0
41.3091 -0.332863 0.0
41.8761 -0.271128 0.0
32.6429 -0.146879 0.0
28.8263 0.284099 0.0