# vtk DataFile Version 3.0
Malha 2D com triângulos e temperatura
ASCII
DATASET UNSTRUCTURED_GRID

POINTS 1194 double
0 0 0
5 0 0
5 1 0
0 1 0
0.85 0.5 0
0.842388 0.538268 0
0.820711 0.570711 0
0.788268 0.592388 0
0.75 0.6 0
0.711732 0.592388 0
0.679289 0.570711 0
0.657612 0.538268 0
0.65 0.5 0
0.657612 0.461732 0
0.679289 0.429289 0
0.711732 0.407612 0
0.75 0.4 0
0.788268 0.407612 0
0.820711 0.429289 0
0.842388 0.461732 0
0.0793651 0 0
0.15873 0 0
0.238095 0 0
0.31746 0 0
0.396825 0 0
0.47619 0 0
0.555556 0 0
0.634921 0 0
0.714286 0 0
0.793651 0 0
0.873016 0 0
0.952381 0 0
1.03175 0 0
1.11111 0 0
1.19048 0 0
1.26984 0 0
1.34921 0 0
1.42857 0 0
1.50794 0 0
1.5873 0 0
1.66667 0 0
1.74603 0 0
1.8254 0 0
1.90476 0 0
1.98413 0 0
2.06349 0 0
2.14286 0 0
2.22222 0 0
2.30159 0 0
2.38095 0 0
2.46032 0 0
2.53968 0 0
2.61905 0 0
2.69841 0 0
2.77778 0 0
2.85714 0 0
2.93651 0 0
3.01587 0 0
3.09524 0 0
3.1746 0 0
3.25397 0 0
3.33333 0 0
3.4127 0 0
3.49206 0 0
3.57143 0 0
3.65079 0 0
3.73016 0 0
3.80952 0 0
3.88889 0 0
3.96825 0 0
4.04762 0 0
4.12698 0 0
4.20635 0 0
4.28571 0 0
4.36508 0 0
4.44444 0 0
4.52381 0 0
4.60317 0 0
4.68254 0 0
4.7619 0 0
4.84127 0 0
4.92063 0 0
5 0.0769231 0
5 0.153846 0
5 0.230769 0
5 0.307692 0
5 0.384615 0
5 0.461538 0
5 0.538462 0
5 0.615385 0
5 0.692308 0
5 0.769231 0
5 0.846154 0
5 0.923077 0
4.92063 1 0
4.84127 1 0
4.7619 1 0
4.68254 1 0
4.60317 1 0
4.52381 1 0
4.44444 1 0
4.36508 1 0
4.28571 1 0
4.20635 1 0
4.12698 1 0
4.04762 1 0
3.96825 1 0
3.88889 1 0
3.80952 1 0
3.73016 1 0
3.65079 1 0
3.57143 1 0
3.49206 1 0
3.4127 1 0
3.33333 1 0
3.25397 1 0
3.1746 1 0
3.09524 1 0
3.01587 1 0
2.93651 1 0
2.85714 1 0
2.77778 1 0
2.69841 1 0
2.61905 1 0
2.53968 1 0
2.46032 1 0
2.38095 1 0
2.30159 1 0
2.22222 1 0
2.14286 1 0
2.06349 1 0
1.98413 1 0
1.90476 1 0
1.8254 1 0
1.74603 1 0
1.66667 1 0
1.5873 1 0
1.50794 1 0
1.42857 1 0
1.34921 1 0
1.26984 1 0
1.19048 1 0
1.11111 1 0
1.03175 1 0
0.952381 1 0
0.873016 1 0
0.793651 1 0
0.714286 1 0
0.634921 1 0
0.555556 1 0
0.47619 1 0
0.396825 1 0
0.31746 1 0
0.238095 1 0
0.15873 1 0
0.0793651 1 0
0 0.923077 0
0 0.846154 0
0 0.769231 0
0 0.692308 0
0 0.615385 0
0 0.538462 0
0 0.461538 0
0 0.384615 0
0 0.307692 0
0 0.230769 0
0 0.153846 0
0 0.0769231 0
0.879698 0.466718 0
1.3085 0.931947 0
1.30532 0.0638546 0
4.93832 0.504275 0
0.620452 0.46964 0
3.99858 0.0669607 0
1.63721 0.934258 0
3.3751 0.0523709 0
4.3254 0.0687322 0
2.42354 0.0642082 0
2.97619 0.0687322 0
2.02101 0.0693621 0
3.68108 0.0581336 0
2.65899 0.932655 0
4.178 0.939994 0
3.21614 0.938179 0
2.25483 0.919987 0
3.53215 0.928998 0
3.84921 0.931268 0
1.69647 0.0674297 0
1.94349 0.930209 0
4.48413 0.931268 0
2.97813 0.942022 0
2.74097 0.0673855 0
0.859645 0.573263 0
0.639718 0.573116 0
0.0651563 0.652836 0
0.0635304 0.346121 0
4.56232 0.0679683 0
0.830393 0.392645 0
0.669618 0.39275 0
1.06185 0.0668897 0
0.440193 0.0680031 0
1.06474 0.93511 0
0.446074 0.935974 0
0.724697 0.630698 0
4.72268 0.931235 0
4.93065 0.267192 0
0.589836 0.936152 0
0.92338 0.0562425 0
0.590207 0.0623339 0
0.755872 0.0732784 0
0.838039 0.936714 0
4.92573 0.732039 0
0.281717 0.93783 0
0.28208 0.0811877 0
0.065248 0.503161 0
1.46076 0.0637037 0
4.72574 0.0661877 0
4.31028 0.937908 0
3.21429 0.0687322 0
1.46639 0.932632 0
3.6897 0.928155 0
2.42063 0.931268 0
3.5364 0.0691789 0
2.25998 0.0676208 0
1.78735 0.937047 0
4.01535 0.920637 0
1.85469 0.0674188 0
3.83991 0.0626292 0
3.37477 0.929368 0
2.58225 0.0657863 0
2.81746 0.932342 0
4.16667 0.0687322 0
2.11402 0.935574 0
0.0614266 0.197046 0
0.0612841 0.803003 0
4.88273 0.0644126 0
4.87774 0.933272 0
0.859645 0.426737 0
0.903081 0.436592 0
0.923672 0.473385 0
0.948706 0.439078 0
0.969155 0.479795 0
0.996593 0.439791 0
1.0202 0.484937 0
1.04667 0.440138 0
1.07382 0.489694 0
1.1034 0.440801 0
1.13169 0.49612 0
1.16603 0.445058 0
1.1931 0.504331 0
1.22956 0.450883 0
1.25923 0.506004 0
1.29683 0.453139 0
1.32923 0.510343 0
1.36603 0.454344 0
1.03276 0.530395 0
1.40063 0.516169 0
1.43576 0.454934 0
1.47042 0.520776 0
1.51069 0.46142 0
1.54422 0.526371 0
1.58547 0.465572 0
1.61942 0.531773 0
1.66033 0.468788 0
1.69546 0.536793 0
1.73713 0.472812 0
1.77239 0.541977 0
1.81532 0.478494 0
1.85006 0.547285 0
1.89327 0.483449 0
1.92802 0.55361 0
1.97142 0.488546 0
2.00623 0.558966 0
2.04984 0.493518 0
2.08483 0.564085 0
2.12847 0.498462 0
2.16353 0.569137 0
2.20719 0.503331 0
0.961579 0.391697 0
1.22451 0.565337 0
2.24238 0.574192 0
2.28611 0.508258 0
2.32134 0.579247 0
2.36519 0.513325 0
2.40036 0.584295 0
2.44425 0.51834 0
2.47944 0.589336 0
2.52334 0.523355 0
2.55853 0.594372 0
2.60245 0.52837 0
2.63764 0.599431 0
2.68159 0.533388 0
2.64637 0.462336 0
2.72553 0.467349 0
2.76076 0.538418 0
2.8047 0.47237 0
2.83993 0.543451 0
2.88387 0.477399 0
2.91911 0.548482 0
2.96305 0.482427 0
2.9983 0.553514 0
3.04224 0.487456 0
3.07749 0.558545 0
3.12143 0.492477 0
3.15668 0.563574 0
3.20063 0.497514 0
3.23588 0.568605 0
3.27983 0.502542 0
3.31508 0.573635 0
3.35903 0.507562 0
3.39428 0.578663 0
3.43823 0.5126 0
3.47348 0.583694 0
3.51744 0.517628 0
3.55268 0.588724 0
3.59664 0.522646 0
3.63189 0.593752 0
3.67585 0.527673 0
3.71109 0.598781 0
3.75505 0.532702 0
3.7903 0.60381 0
3.83426 0.537731 0
3.79901 0.466623 0
3.87821 0.471754 0
3.91346 0.542777 0
3.95742 0.476701 0
3.99267 0.547795 0
4.03662 0.481715 0
4.07187 0.552815 0
4.11582 0.486743 0
4.15106 0.55783 0
4.195 0.491782 0
4.23023 0.562843 0
4.27415 0.49682 0
4.30937 0.567866 0
4.35325 0.501915 0
4.38842 0.572845 0
4.43227 0.506997 0
4.46737 0.577575 0
4.51106 0.511995 0
4.54622 0.582183 0
1.13571 0.390292 0
4.47606 0.441361 0
4.55475 0.446396 0
2.32985 0.442214 0
3.5614 0.451571 0
3.08619 0.421408 0
2.09339 0.427815 0
1.42887 0.583001 0
2.84864 0.406329 0
3.32378 0.43649 0
4.23911 0.425894 0
1.54723 0.39251 0
1.77883 0.406811 0
1.33959 0.387065 0
3.92239 0.405803 0
4.08079 0.415776 0
2.48812 0.452349 0
1.57935 0.603183 0
1.93602 0.417543 0
1.72453 0.617973 0
3.11273 0.629643 0
2.69029 0.396284 0
3.94662 0.623383 0
1.88466 0.613248 0
2.79598 0.609502 0
4.10826 0.620575 0
2.04005 0.62838 0
2.95434 0.619575 0
4.51981 0.375801 0
4.59833 0.380943 0
4.63314 0.451296 0
4.26693 0.63114 0
2.19619 0.645921 0
4.4246 0.642296 0
3.27112 0.639707 0
2.35729 0.649822 0
2.51462 0.660373 0
3.42952 0.649769 0
4.67669 0.38601 0
3.58793 0.659829 0
3.74634 0.669888 0
4.64195 0.315733 0
4.44109 0.370647 0
4.48493 0.305066 0
4.40614 0.29989 0
4.71136 0.456133 0
4.72014 0.320758 0
0.8692 0.382093 0
0.841252 0.348256 0
0.886481 0.338703 0
0.853127 0.301457 0
0.902583 0.287335 0
0.801683 0.321689 0
0.818113 0.263019 0
0.764765 0.277091 0
4.44702 0.235678 0
0.946267 0.520761 0
0.78107 0.221265 0
0.726309 0.234724 0
0.848273 0.20551 0
4.68545 0.250576 0
4.37074 0.227561 0
4.76365 0.255792 0
4.79822 0.326145 0
0.713664 0.287231 0
0.672358 0.247957 0
0.68673 0.192342 0
0.630368 0.2085 0
0.616569 0.265341 0
0.574186 0.225456 0
0.557393 0.28131 0
0.52004 0.242373 0
0.504416 0.299685 0
0.462273 0.252096 0
0.44798 0.316739 0
0.404567 0.276951 0
0.390546 0.335414 0
0.434669 0.37657 0
0.377935 0.394545 0
0.421979 0.43426 0
0.365682 0.452846 0
0.409646 0.492216 0
0.353389 0.51089 0
0.397738 0.551598 0
0.339864 0.570301 0
0.385899 0.612153 0
0.325913 0.631557 0
0.344507 0.29318 0
0.320568 0.413067 0
0.373553 0.673852 0
0.434438 0.653082 0
0.311416 0.69481 0
0.449777 0.528305 0
0.293513 0.534612 0
0.421431 0.715204 0
0.480917 0.696603 0
0.54504 0.34471 0
0.262743 0.649913 0
0.246209 0.712341 0
0.468564 0.755948 0
0.526091 0.735423 0
0.538207 0.68039 0
0.581228 0.716342 0
0.408756 0.777952 0
0.36234 0.239019 0
0.297047 0.251925 0
0.572109 0.771575 0
0.624906 0.752173 0
0.474824 0.414151 0
0.534351 0.182707 0
0.633682 0.70159 0
0.674547 0.736174 0
0.66826 0.788959 0
0.721117 0.76834 0
0.714515 0.825486 0
0.769074 0.802008 0
0.775287 0.746591 0
0.821903 0.778625 0
0.826767 0.726064 0
0.873257 0.756032 0
0.872997 0.697261 0
0.92331 0.732304 0
0.930014 0.67838 0
0.976061 0.710612 0
0.92456 0.784469 0
0.982178 0.654421 0
1.03016 0.688004 0
1.02037 0.747059 0
1.08 0.723819 0
1.08651 0.661896 0
1.1397 0.698204 0
1.13262 0.763657 0
1.19424 0.736545 0
1.18556 0.80161 0
1.24839 0.771772 0
1.25723 0.706382 0
1.31432 0.745787 0
4.66801 0.521361 0
4.74602 0.526202 0
4.70285 0.591278 0
4.78076 0.596023 0
4.73763 0.661207 0
4.78904 0.460969 0
2.61113 0.391267 0
2.65506 0.325217 0
2.57588 0.320198 0
2.61982 0.254148 0
2.69899 0.259163 0
2.54065 0.249131 0
2.49672 0.315179 0
2.46148 0.244124 0
2.41757 0.310166 0
2.38233 0.239117 0
2.33843 0.30514 0
2.30297 0.237979 0
2.25928 0.300748 0
2.22079 0.221377 0
2.17969 0.293884 0
2.14114 0.224266 0
2.10047 0.289841 0
2.0653 0.219144 0
2.02202 0.284919 0
1.98701 0.214164 0
1.94336 0.279863 0
3.82315 0.673327 0
3.78135 0.738156 0
3.86451 0.735958 0
3.70234 0.735494 0
4.52513 0.244409 0
4.32717 0.294467 0
4.29217 0.221862 0
0.619934 0.539507 0
0.599432 0.577132 0
0.575955 0.542712 0
0.554504 0.58245 0
4.65962 0.656481 0
4.69438 0.726169 0
4.6161 0.721747 0
4.77259 0.731352 0
4.65076 0.791486 0
4.57153 0.788793 0
4.2482 0.289182 0
4.21307 0.218308 0
4.1691 0.284563 0
4.13394 0.21352 0
0.835918 0.606341 0
0.806475 0.6384 0
4.08995 0.279537 0
0.640355 0.426737 0
0.596214 0.435837 0
0.630358 0.379178 0
0.689967 0.627735 0
1.90832 0.209948 0
1.86468 0.27519 0
1.82968 0.20518 0
1.78607 0.269797 0
0.281841 0.313314 0
0.232117 0.268621 0
0.216861 0.334396 0
4.05473 0.209347 0
4.01077 0.2745 0
3.97554 0.204394 0
3.93159 0.269388 0
0.297409 0.759367 0
0.231645 0.782943 0
0.180008 0.73598 0
1.32151 0.676369 0
1.38055 0.718092 0
1.36901 0.793947 0
1.43945 0.766002 0
0.249902 0.198865 0
0.932364 0.624392 0
1.75117 0.201034 0
1.70771 0.264658 0
1.673 0.195402 0
1.62985 0.260294 0
1.59532 0.191927 0
1.55236 0.254233 0
3.89629 0.200227 0
3.85238 0.264494 0
3.81708 0.195303 0
3.77304 0.259453 0
2.66368 0.189084 0
2.74279 0.19534 0
2.77814 0.264556 0
2.82201 0.199823 0
2.85733 0.269552 0
2.90126 0.203886 0
2.93654 0.274416 0
2.98045 0.20868 0
3.01573 0.279376 0
3.0597 0.213193 0
[...]
CELL_DATA 2220
VECTORS velocity double
33.2053 -1.71172 0.0
23.6739 0.747016 0.0
29.9167 0.732692 0.0
23.1467 2.49663 0.0
33.9148 -1.92514 0.0
43.0342 -1.39382 0.0
20.086 0.713784 0.0
22.3241 -0.0289064 0.0
38.898 2.90129 0.0
41.9186 -1.04373 0.0
23.3407 0.481318 0.0
21.2712 0.393027 0.0
16.9828 0.294483 0.0
33.9408 -2.50014 0.0
25.7082 -0.294437 0.0
34.5564 3.23989 0.0
22.816 1.19375 0.0
18.5903 0.908526 0.0
20.8924 -0.215415 0.0
22.5231 -0.192295 0.0
25.1147 0.488749 0.0
31.087 3.91743 0.0
21.4799 1.03884 0.0
22.0104 0.840995 0.0
45.3412 -0.627492 0.0
31.5683 -2.33564 0.0
23.0678 1.21853 0.0
18.9879 0.818425 0.0
22.7734 2.35984 0.0
25.0664 1.74588 0.0
40.3135 -1.39941 0.0
30.9852 3.26003 0.0
15.5765 -0.188749 0.0
32.1594 1.31005 0.0
37.2405 -3.94681 0.0
43.4616 -1.49332 0.0
36.2739 -4.31715 0.0
18.2371 -0.202546 0.0
26.5735 2.71119 0.0
28.0451 2.147 0.0
14.0832 0.68209 0.0
39.0747 3.13906 0.0
19.57 2.14831 0.0
20.2749 -0.00452409 0.0
18.5602 -0.0427087 0.0
16.5098 0.00172188 0.0
21.1914 0.932952 0.0
16.7992 -0.0141162 0.0
41.4689 -0.930653 0.0
46.1921 0.356645 0.0
20.4824 0.659214 0.0
16.7641 0.157406 0.0
20.9407 0.896924 0.0
21.1625 0.17837 0.0
19.1617 0.976366 0.0
28.4729 1.93665 0.0
33.0707 3.41985 0.0
17.8728 0.792583 0.0
18.2995 0.825251 0.0
46.9846 0.212133 0.0
-0.301795 -7.97425 0.0
46.1443 -1.05535 0.0
41.5799 -2.02565 0.0
21.397 0.909759 0.0
21.3661 0.920536 0.0
35.4118 1.26446 0.0
18.2255 -1.95614 0.0
37.1109 3.40549 0.0
18.2238 0.884852 0.0
18.3739 0.854213 0.0
20.9981 0.256089 0.0
33.2787 -1.73097 0.0
16.4582 0.244854 0.0
44.8338 0.883525 0.0
13.2152 0.430049 0.0
39.1651 2.93545 0.0
43.7646 2.28401 0.0
24.5592 -1.83412 0.0
40.1524 3.65005 0.0
19.8951 0.157967 0.0
24.217 -1.0684 0.0
28.9047 -1.84555 0.0
13.5062 -0.301415 0.0
16.4339 0.148118 0.0
20.562 0.658142 0.0
20.4997 0.340609 0.0
30.3168 -1.86275 0.0
17.1948 0.297039 0.0
17.4828 0.530622 0.0
38.3852 2.40799 0.0
6.94586 0.524572 0.0
23.9884 1.98985 0.0
21.0933 -0.268517 0.0
36.1687 3.28706 0.0
39.66 3.11201 0.0
27.7157 -1.96924 0.0
30.4238 -4.1018 0.0
14.0366 -1.08452 0.0
0.572251 -5.99646 0.0
31.5323 -0.69943 0.0
7.29018 -0.815882 0.0
29.9682 -2.28533 0.0
20.9387 0.823062 0.0
18.3249 1.20643 0.0
34.6033 4.19382 0.0
38.2711 3.40634 0.0
43.8809 -1.21204 0.0
47.5305 -1.11063 0.0
6.20038 -0.170289 0.0
21.719 1.31447 0.0
28.2553 1.7407 0.0
36.2702 -2.02546 0.0
43.4158 -1.03679 0.0
10.3308 -0.997266 0.0
46.7604 -1.73987 0.0
17.8794 0.714299 0.0
33.0938 -2.55667 0.0
16.8262 -0.563583 0.0
7.24177 -0.0495603 0.0
37.9458 1.78396 0.0
24.0467 -1.82924 0.0
33.3341 -1.35064 0.0
18.6037 1.39214 0.0
24.7434 3.30764 0.0
39.0867 -3.94415 0.0
28.8084 -2.74832 0.0
36.2429 3.13674 0.0
21.5234 1.49886 0.0
37.5609 -2.91829 0.0
16.9997 1.65382 0.0
16.7685 2.5503 0.0
19.7251 -2.08607 0.0
11.8414 -1.37706 0.0
18.8197 13.967 0.0
26.0567 2.59804 0.0
14.273 13.146 0.0
15.2332 -0.0126246 0.0
22.3853 -0.242371 0.0
30.3719 -2.83242 0.0
31.7838 3.40966 0.0
25.7342 -0.829734 0.0
19.9726 -0.0561399 0.0
46.1778 -2.0775 0.0
40.1538 -4.39595 0.0
43.7433 0.880709 0.0
32.193 2.91203 0.0
10.0012 1.07761 0.0
14.2259 -0.566152 0.0
45.9468 1.92482 0.0
46.9902 -1.53138 0.0
18.0341 -0.331321 0.0
37.0808 1.76872 0.0
33.6896 -0.029982 0.0
22.6199 2.99274 0.0
7.44905 9.06527 0.0
22.6837 0.384034 0.0
20.7965 -2.27326 0.0
23.5795 0.602711 0.0
10.0708 -1.03291 0.0
21.3253 -1.3697 0.0
20.8305 -3.15782 0.0
17.9707 0.0382834 0.0
9.45546 -1.06289 0.0
30.9838 -3.18707 0.0
16.3021 0.147813 0.0
30.5174 2.10497 0.0
31.9619 -1.9098 0.0
37.2884 -1.26048 0.0
22.5375 0.290386 0.0
12.0745 -2.04408 0.0
10.8424 1.39932 0.0
16.0712 0.0604757 0.0
20.7798 0.127491 0.0
16.149 -1.60377 0.0
26.7463 -1.37183 0.0
41.0489 3.69629 0.0
42.3542 2.09323 0.0
40.4929 3.43409 0.0
11.4885 -0.698497 0.0
22.3688 0.0790446 0.0
32.7116 -0.516071 0.0
21.4157 -0.916155 0.0
7.08977 1.21773 0.0
18.3969 2.06213 0.0
22.7968 -0.0135455 0.0
44.0216 -0.958295 0.0
34.5932 0.107309 0.0
18.0826 -0.541963 0.0
31.9426 -3.97548 0.0
37.1105 -0.456951 0.0
12.035 -1.25632 0.0
17.8706 -0.30128 0.0
38.0523 -2.52773 0.0
46.0361 1.67599 0.0
21.3023 -2.1359 0.0
34.5128 0.868933 0.0
30.3421 1.19039 0.0
20.3006 -0.835101 0.0
6.11931 -0.567064 0.0
21.3271 -0.512274 0.0
21.8585 -12.3331 0.0
27.7851 -1.48935 0.0
33.0591 2.88987 0.0
21.4518 -0.0992329 0.0
14.2745 -0.55854 0.0
29.2389 -2.23298 0.0
25.9293 0.0898305 0.0
19.6371 0.0564597 0.0
30.0679 2.10848 0.0
11.3879 -0.810621 0.0
21.0478 0.855849 0.0
12.4884 -0.515163 0.0
29.4793 -0.297456 0.0
38.8919 3.49972 0.0
43.8236 2.87704 0.0
21.548 3.24341 0.0
17.8657 0.786862 0.0
21.2407 1.02422 0.0
11.5806 0.324595 0.0
13.6665 -0.196955 0.0
43.2177 0.580879 0.0
9.9836 -0.339357 0.0
17.9168 0.938605 0.0
9.59269 -0.132947 0.0
21.2294 -0.0770931 0.0
24.7528 -1.77029 0.0
20.4777 -1.51091 0.0
21.7574 -0.993547 0.0
30.9569 0.0508055 0.0
11.1502 1.1399 0.0
26.0074 1.98598 0.0
29.0135 -1.40513 0.0
14.446 -0.118836 0.0
21.614 -0.319387 0.0
11.3977 -1.05465 0.0
39.2848 -0.0210308 0.0
24.832 -1.77945 0.0
20.9188 -0.311225 0.0
20.7748 -0.345137 0.0
18.4101 -0.17228 0.0
40.3535 -4.15716 0.0
31.7249 -3.66291 0.0
37.7203 4.47114 0.0
10.773 -0.0146986 0.0
16.9118 10.6236 0.0
44.3962 -0.0543067 0.0
22.686 -0.441194 0.0
30.3371 -1.30133 0.0
5.07057 11.0794 0.0
20.1726 2.18657 0.0
15.1023 -11.4631 0.0
10.768 -0.0978342 0.0
32.1444 -2.40843 0.0
41.2254 -0.263028 0.0
42.0867 -3.11285 0.0
20.5524 0.467224 0.0
11.3145 0.177048 0.0
43.2481 0.20408 0.0
21.5583 2.07373 0.0
39.3978 1.48873 0.0
23.467 -0.429822 0.0
34.3821 -0.944103 0.0
10.9257 1.14569 0.0
24.9498 -1.46918 0.0
10.613 -0.534485 0.0
7.61194 -0.0936522 0.0
18.9341 -1.367 0.0
30.9067 -1.44857 0.0
23.5301 1.3307 0.0
44.9587 -0.137836 0.0
40.0136 1.13031 0.0
40.7206 -0.0194066 0.0
17.3292 0.382526 0.0
42.1739 -1.80164 0.0
20.4847 -2.08797 0.0
38.5798 4.49085 0.0
13.1796 1.96235 0.0
36.0758 -0.870392 0.0
19.8875 1.66785 0.0
12.8566 0.132444 0.0
23.2397 -2.09764 0.0
24.7527 -2.37668 0.0
39.7029 4.29636 0.0
28.79 1.29257 0.0
41.7038 -1.68195 0.0
26.3103 -1.06064 0.0
33.6972 -3.70752 0.0
27.954 1.07464 0.0
18.0018 -0.262104 0.0
17.4037 -0.286394 0.0
11.2454 -0.322248 0.0
20.3142 -1.09401 0.0
11.7235 0.967521 0.0
23.2842 -12.1879 0.0
23.7279 -1.41637 0.0
27.1902 -0.314306 0.0
27.5525 -0.281208 0.0
20.231 0.530907 0.0
38.776 4.43208 0.0
44.4059 2.97823 0.0
15.317 -1.41091 0.0
41.7747 3.76122 0.0
33.4929 -1.78717 0.0
7.17614 0.0869622 0.0
34.163 -3.04041 0.0
21.902 1.20866 0.0
16.8076 -0.206881 0.0
17.6347 -0.309476 0.0
15.3912 0.41646 0.0
10.8439 0.89302 0.0
13.2263 -0.0228888 0.0
18.6618 13.4407 0.0
13.7571 1.07804 0.0
39.5459 4.5038 0.0
31.0951 -2.33673 0.0
20.4214 -0.310834 0.0
41.6694 3.15975 0.0
11.8225 1.06675 0.0
39.9153 -2.42186 0.0
43.809 3.33387 0.0
14.0316 -2.09622 0.0
17.9363 1.01026 0.0
42.3632 0.258675 0.0
12.0038 -0.981484 0.0
13.8729 17.1167 0.0
12.3766 -0.123074 0.0
40.7784 0.0688899 0.0
41.4594 1.19709 0.0
44.2321 0.55483 0.0
12.0179 -0.465764 0.0
36.533 -3.31494 0.0
40.1216 -4.77507 0.0
37.6981 -1.5161 0.0
10.7985 -1.05767 0.0
37.5684 0.0937567 0.0
40.2495 -3.61464 0.0
23.8679 -2.58113 0.0
40.8188 3.75911 0.0
33.4292 -2.12151 0.0
20.6458 -0.342748 0.0
8.25207 -0.185851 0.0
18.2669 -0.350683 0.0
6.83148 0.514288 0.0
6.926 0.0532441 0.0
14.2485 -1.7099 0.0
39.931 3.52525 0.0
10.601 5.26628 0.0
41.4952 3.6761 0.0
44.2914 2.76038 0.0
6.62394 -0.302837 0.0
37.88 1.61602 0.0
5.56785 0.174067 0.0
6.76594 -0.454532 0.0
31.8665 2.99563 0.0
10.2506 0.778117 0.0
39.5269 -1.72976 0.0
37.3021 1.92928 0.0
5.94 -0.32209 0.0
41.0172 0.869361 0.0
29.6381 -3.29517 0.0
42.3549 2.88572 0.0
14.0316 0.615477 0.0
29.2467 1.89579 0.0
41.9891 3.32727 0.0
6.03062 0.607013 0.0
47.1442 0.564152 0.0
33.6548 -4.45197 0.0
6.27574 -0.414487 0.0
6.31617 -0.57241 0.0
34.6793 -1.84784 0.0
6.46166 0.459945 0.0
32.0092 3.83976 0.0
36.4121 -1.94286 0.0
23.2702 -0.82321 0.0
9.33376 -0.0890665 0.0
12.4653 0.531502 0.0
29.0183 0.603918 0.0
29.326 0.164665 0.0
39.5248 -0.870639 0.0
27.4244 -0.185766 0.0
13.2592 -0.882493 0.0
39.7327 3.64598 0.0
40.0537 -3.16006 0.0
43.7057 0.34449 0.0
39.1127 3.61569 0.0
40.2394 -0.208148 0.0
38.3415 4.08248 0.0
42.1409 0.197756 0.0
31.4034 -1.9796 0.0
42.6892 2.43518 0.0
10.2749 1.03597 0.0
38.6181 0.01239 0.0
28.331 -0.953831 0.0
41.1631 -2.73011 0.0
8.93044 -0.960484 0.0
19.709 -1.42047 0.0
39.3505 0.675352 0.0
8.58649 0.786494 0.0
42.0229 0.196337 0.0
39.3925 2.65162 0.0
7.00964 0.284376 0.0
27.9632 -0.868472 0.0
40.9971 3.11835 0.0
42.7431 0.111449 0.0
34.1818 -4.22193 0.0
38.2552 -4.64228 0.0
6.50592 4.74231 0.0
10.5334 0.829972 0.0
22.2996 -1.6673 0.0
37.1902 -1.5279 0.0
28.1513 -2.44754 0.0
6.66198 0.0230864 0.0
38.9849 4.14282 0.0
43.2881 -2.96192 0.0
39.5671 -2.26987 0.0
42.9352 0.124851 0.0
3.97076 -0.177492 0.0
5.99196 0.472748 0.0
37.4189 2.85293 0.0
6.40743 0.587858 0.0
42.8467 3.61543 0.0
38.5336 2.76861 0.0
4.07994 0.00102699 0.0
6.38917 -0.516368 0.0
41.2075 2.69778 0.0
39.0657 0.502684 0.0
3.87732 0.180238 0.0
34.5159 -0.198709 0.0
41.9941 0.228575 0.0
11.0296 -0.751351 0.0
42.6419 0.138974 0.0
37.8429 2.66306 0.0
39.6619 -3.34497 0.0
42.5785 2.0692 0.0
6.57534 -0.608719 0.0
32.1807 -4.41515 0.0
6.93567 -0.133658 0.0
6.4156 0.468003 0.0
36.2945 -3.23675 0.0
6.44026 0.652848 0.0
37.7981 3.02339 0.0
41.4361 2.31501 0.0
38.8624 -3.87683 0.0
39.3275 -4.78991 0.0
10.4546 -1.11011 0.0
21.7423 -0.0532423 0.0
39.2565 1.99256 0.0
6.05911 -0.375884 0.0
5.54996 0.414424 0.0
17.3587 -2.14457 0.0
10.0681 0.982142 0.0
42.4961 -0.829586 0.0
7.01084 -0.44523 0.0
22.5718 0.954396 0.0
44.3113 1.31849 0.0
10.1588 0.735195 0.0
11.9132 0.768017 0.0
40.6412 3.49452 0.0
6.75374 0.400729 0.0
41.9679 1.63456 0.0
37.7468 2.31347 0.0
40.3218 0.47118 0.0
6.20464 -0.6025 0.0
4.82216 0.437496 0.0
8.60633 -0.39984 0.0
29.5229 -0.818587 0.0
13.6275 -2.16764 0.0
42.6436 0.181345 0.0
3.96223 0.10093 0.0
39.6957 -4.72685 0.0
11.1215 -0.404474 0.0
5.47263 0.421847 0.0
14.7707 -1.58476 0.0
40.2735 3.70722 0.0
10.7489 -0.672082 0.0
40.1514 0.38434 0.0
40.8226 1.9308 0.0
27.1419 -0.472042 0.0
42.0744 0.262743 0.0
37.4229 1.98379 0.0
23.3484 -1.64843 0.0
37.8439 0.759627 0.0
44.5447 -2.50752 0.0
36.9975 1.6396 0.0
6.46458 -0.677901 0.0
6.89452 0.700627 0.0
39.2168 -0.897047 0.0
5.29655 0.366516 0.0
33.15 -3.64006 0.0
23.2047 9.21627 0.0
42.2077 0.27166 0.0
5.40983 0.395395 0.0
6.14223 -0.408847 0.0
40.4068 1.51748 0.0
39.7873 3.62059 0.0
30.1942 -0.209276 0.0
28.9651 -1.51783 0.0
36.6646 0.0574275 0.0
25.653 -1.34439 0.0
18.4995 -12.0956 0.0
37.2758 -0.16192 0.0
35.8202 2.42968 0.0
5.82189 -0.244707 0.0
36.6011 1.29799 0.0
31.9387 9.88555 0.0
18.4781 -0.562055 0.0
42.7565 0.383319 0.0
4.2906 -0.421892 0.0
4.73757 0.431877 0.0
35.8828 2.7682 0.0
38.337 -0.192346 0.0
37.3444 -1.06998 0.0
21.3766 -0.178625 0.0
41.8923 2.57831 0.0
42.7191 0.215615 0.0
44.108 -2.34675 0.0
5.54845 1.88072 0.0
40.6071 0.635775 0.0
44.554 -2.65488 0.0
35.2547 1.80781 0.0
36.6083 6.96174 0.0
11.1062 -3.19221 0.0
36.0057 0.205144 0.0
6.4038 -6.08748 0.0
34.5493 -1.422 0.0
40.0528 -1.19106 0.0
44.6673 2.88612 0.0
41.7409 2.9938 0.0
5.86284 -1.64318 0.0
36.2891 1.0083 0.0
39.9272 4.45647 0.0
34.8607 1.50105 0.0
43.6253 0.139639 0.0
35.6185 2.11177 0.0
39.6033 0.83806 0.0
24.6545 -0.937248 0.0
27.7347 1.14315 0.0
11.504 -4.64863 0.0
39.1973 -2.76066 0.0
17.1188 -0.167544 0.0
31.8261 -7.18786 0.0
8.78652 -8.20899 0.0
37.3677 -2.74619 0.0
42.927 0.187306 0.0
2.90573 -0.283457 0.0
2.97962 0.288817 0.0
39.2456 0.634567 0.0
38.3381 3.19922 0.0
36.0915 0.796633 0.0
30.4954 10.7961 0.0
6.55756 -0.183962 0.0
10.5268 -0.292935 0.0
7.98567 0.923986 0.0
3.39836 2.46139 0.0
7.43131 -4.3508 0.0
43.8766 -3.05012 0.0
43.7843 0.109143 0.0
38.077 -3.9805 0.0
1.07089 1.27471 0.0
32.1363 -0.0951313 0.0
34.152 -0.100177 0.0
36.9906 -6.43137 0.0
27.8839 9.3615 0.0
1.27024 -1.2135 0.0
3.82273 -2.22624 0.0
29.3949 0.56652 0.0
19.8048 1.13078 0.0
34.6002 1.19993 0.0
23.8638 -3.90078 0.0
38.4996 -0.09421 0.0
38.6614 2.30691 0.0
39.7506 -0.0902915 0.0
32.5323 7.33185 0.0
42.4714 0.168724 0.0
3.81245 -0.293353 0.0
42.6556 3.63453 0.0
43.6981 0.580589 0.0
40.0793 0.364138 0.0
43.7154 0.0243467 0.0
40.3889 -3.8309 0.0
3.66617 0.213691 0.0
43.3771 -0.301746 0.0
7.26587 -1.11865 0.0
18.4761 1.32536 0.0
28.2389 -0.548602 0.0
35.9531 0.670136 0.0
34.38 0.944683 0.0
42.8006 1.85689 0.0
42.9971 1.41229 0.0
42.3445 2.08292 0.0
5.19356 0.302908 0.0
9.73789 0.53568 0.0
8.15899 -0.726158 0.0
43.4198 0.108657 0.0
38.985 0.442937 0.0
40.0733 -4.78096 0.0
7.03666 1.31628 0.0
42.761 0.201632 0.0
39.2653 4.50245 0.0
13.1962 9.09833 0.0
39.2834 -0.0619215 0.0
3.30908 0.768325 0.0
37.8944 -0.111519 0.0
41.7422 -1.33642 0.0
38.5646 -0.673996 0.0
29.0318 -0.356576 0.0
26.8886 -0.345518 0.0
37.4169 -0.166945 0.0
7.76523 0.264116 0.0
38.866 3.93806 0.0
43.0659 -0.287218 0.0
40.4222 -0.223389 0.0
40.1254 0.38093 0.0
35.9438 0.60111 0.0
20.1911 -0.0139816 0.0
38.9927 0.437622 0.0
46.5674 -1.83506 0.0
42.5108 0.102193 0.0
10.1341 0.448787 0.0
36.6111 6.34229 0.0
3.56517 -0.695214 0.0
43.5933 0.661845 0.0
43.4394 0.339471 0.0
36.0264 0.578045 0.0
2.35259 1.05811 0.0
37.8925 -0.782718 0.0
42.9602 0.134697 0.0
42.4174 1.54846 0.0
38.8029 -0.110773 0.0
43.2787 -0.469376 0.0
40.2766 0.400742 0.0
43.1674 0.102348 0.0
43.7353 0.32016 0.0
42.8304 0.219476 0.0
36.2496 0.588373 0.0
4.53695 0.406299 0.0
15.4205 1.23719 0.0
42.869 -0.933752 0.0
38.4209 3.29558 0.0
2.58375 -0.974459 0.0
8.83996 -0.472307 0.0
37.3908 -2.77862 0.0
38.663 4.10128 0.0
39.1365 0.458843 0.0
16.5447 -0.89909 0.0
40.1814 -0.219436 0.0
41.0688 -0.168337 0.0
26.8735 11.1455 0.0
8.55918 0.679809 0.0
4.21269 -0.46407 0.0
45.5025 -2.23794 0.0
32.2588 6.14141 0.0
40.8621 -3.62284 0.0
43.6263 0.500737 0.0
13.0714 0.20353 0.0
39.3608 0.459405 0.0
34.2413 0.791151 0.0
42.4585 -0.0333781 0.0
3.99173 0.548067 0.0
40.4992 0.381364 0.0
42.4989 0.0368898 0.0
5.03051 -0.206082 0.0
36.5786 0.57503 0.0
42.3621 0.236554 0.0
43.4534 0.599347 0.0
40.992 0.185672 0.0
40.8276 -0.243662 0.0
42.934 0.0765523 0.0
36.8332 -0.871546 0.0
40.9372 -0.164768 0.0
40.7853 0.296266 0.0
40.2027 0.133056 0.0
39.9404 -0.286921 0.0
4.67573 -0.302189 0.0
43.5601 0.454766 0.0
39.7312 -0.339673 0.0
6.2824 0.304167 0.0
42.8706 0.0111383 0.0
9.77024 0.582287 0.0
39.6723 0.383158 0.0
40.6255 -0.305295 0.0
43.491 0.442776 0.0
41.7711 -0.141518 0.0
41.1199 0.0945114 0.0
43.2627 0.310274 0.0
20.0218 0.254824 0.0
37.5416 0.26395 0.0
35.4815 1.83657 0.0
36.8919 0.45257 0.0
4.58172 -0.0615658 0.0
42.4257 0.117726 0.0
39.9873 0.246509 0.0
35.2356 -6.6947 0.0
3.4737 -0.318722 0.0
34.3119 0.644168 0.0
3.40287 0.236742 0.0
32.2188 -5.90464 0.0
36.9979 2.12429 0.0
34.515 0.633017 0.0
38.4037 -0.179516 0.0
39.5457 -0.367418 0.0
34.8929 0.640352 0.0
41.2284 -0.0536538 0.0
33.5177 -3.23457 0.0
33.9397 -7.87333 0.0
40.0734 -0.0810031 0.0
43.2238 0.632457 0.0
43.4283 0.705056 0.0
43.3888 0.399442 0.0
40.4506 -0.345988 0.0
43.5891 0.45371 0.0
35.5462 -0.183738 0.0
43.4938 0.428588 0.0
39.1497 -0.229335 0.0
37.8127 0.130413 0.0
18.9133 0.503662 0.0
41.673 -0.103222 0.0
43.5451 0.40015 0.0
33.5037 -0.682077 0.0
43.2144 0.519476 0.0
40.3 -0.353938 0.0
39.3879 -0.353601 0.0
4.87322 0.309147 0.0
40.3395 0.0473512 0.0
34.2314 0.700553 0.0
43.708 0.391368 0.0
31.2354 -0.400727 0.0
10.6179 0.328757 0.0
38.05 0.032 0.0
43.2192 0.36186 0.0
35.7574 0.357179 0.0
34.8551 -0.18356 0.0
39.256 -0.284109 0.0
43.1894 0.168287 0.0
40.1775 -0.315922 0.0
36.3184 0.194484 0.0
23.5939 7.36437 0.0
42.7924 -0.0627924 0.0
43.6957 0.329281 0.0
42.8912 1.1616 0.0
18.5482 -0.0979589 0.0
40.432 -0.0275622 0.0
33.5445 -0.214328 0.0
5.72093 0.1958 0.0
9.84049 0.378747 0.0
40.0674 -0.230451 0.0
42.5937 0.304304 0.0
37.5198 -0.36319 0.0
39.126 -0.172145 0.0
43.5156 0.262773 0.0
38.0673 -0.247396 0.0
38.2396 -0.0491636 0.0
38.9496 -0.0483913 0.0
33.9141 -0.252508 0.0
37.0238 -0.228249 0.0
43.7995 0.257314 0.0
34.33 -0.211204 0.0
42.9617 0.138843 0.0
37.2673 -0.395578 0.0
38.6792 -0.300294 0.0
36.6878 -0.289589 0.0
33.5222 -0.303912 0.0
42.6734 0.267646 0.0
39.9375 -0.118467 0.0
7.00675 0.223687 0.0
10.7628 0.32411 0.0
43.4705 0.0568601 0.0
43.0816 -0.0334118 0.0
35.1575 0.598983 0.0
36.4891 -0.0162702 0.0
36.8861 -0.0186726 0.0
43.4565 0.542476 0.0
38.672 0.0553587 0.0
42.6751 1.01146 0.0
41.1912 0.0191459 0.0
33.1629 -0.359003 0.0
35.8398 -0.413067 0.0
36.6128 0.072749 0.0
39.7458 -0.0101576 0.0
43.7827 0.174997 0.0
42.4082 -0.108122 0.0
36.3926 -0.3472 0.0
35.7407 1.29093 0.0
31.9277 -0.281503 0.0
36.1092 -0.394879 0.0
32.8395 -0.414846 0.0
40.654 2.06803 0.0
38.2902 0.105529 0.0
39.4654 0.0619569 0.0
37.0622 -0.380619 0.0
32.3706 -0.240037 0.0
35.25 -0.0719277 0.0
43.1745 0.31468 0.0
32.4997 -0.443842 0.0
35.63 -0.355796 0.0
37.8877 0.0806774 0.0
21.2127 0.218574 0.0
41.9831 0.132004 0.0
32.1451 -0.371893 0.0
18.5272 0.150644 0.0
31.5299 -0.331685 0.0
39.1283 0.0709739 0.0
31.9744 -0.206953 0.0
35.4408 -0.228126 0.0
32.865 -0.218872 0.0
5.02732 -0.0751983 0.0
9.27412 -0.133905 0.0
21.1318 0.320886 0.0
37.7285 -0.328419 0.0
36.7182 -0.161064 0.0
37.5546 0.00275106 0.0
38.8089 0.0166161 0.0
31.7226 -0.0305517 0.0
10.4849 0.144028 0.0
43.328 0.209951 0.0
9.52852 -0.155192 0.0
43.8044 0.0499642 0.0
37.3565 -0.0854238 0.0
31.1571 -0.38892 0.0
36.1087 0.104753 0.0
30.7145 -0.446687 0.0
43.7467 -0.0649284 0.0
35.5732 0.170362 0.0
5.20394 -0.0811792 0.0
9.40048 -0.153445 0.0
36.8895 -0.294994 0.0
5.61316 0.090145 0.0
38.5743 -0.073588 0.0
30.3565 -0.429781 0.0
30.0908 -0.280816 0.0
34.9279 0.0698199 0.0
38.244 -0.198749 0.0
43.3261 -0.0446225 0.0
35.0432 0.150019 0.0
34.6042 0.0630601 0.0
9.46611 -0.13663 0.0
5.40439 -0.0821284 0.0
17.6953 0.265458 0.0
29.8482 -0.0875177 0.0
34.3664 0.175193 0.0
37.7777 -0.310042 0.0
33.7193 0.209747 0.0
39.424 -0.092255 0.0
18.0828 0.296837 0.0
33.1558 0.139226 0.0
38.5024 -0.150768 0.0
34.3185 -0.0170142 0.0
9.53518 0.15177 0.0
4.89683 -0.0518551 0.0
4.11415 -0.0809471 0.0
5.26495 -0.0748058 0.0
9.41696 -0.0475053 0.0
10.0167 0.182594 0.0
4.4778 -0.0224783 0.0
5.07317 -0.00241355 0.0
9.23052 -0.125501 0.0
4.92498 -0.0444949 0.0
5.32069 -0.0406111 0.0
5.64808 0.142992 0.0
10.1816 -0.140858 0.0
5.47777 0.0847962 0.0
9.0912 -0.0899384 0.0
5.25539 0.0822717 0.0
9.68731 -0.0653761 0.0
9.47344 -0.049381 0.0
5.11282 0.157807 0.0
10.3953 0.210767 0.0
9.21966 -0.0996893 0.0
9.00453 -0.115207 0.0
5.2732 0.252873 0.0
8.71745 -0.0732446 0.0
9.39294 0.198309 0.0
4.87128 -0.0244672 0.0
9.13547 -0.0526137 0.0
5.51864 0.0150611 0.0
4.87779 0.0930656 0.0
8.81598 -0.153434 0.0
5.23335 0.191078 0.0
6.3258 0.116169 0.0
5.35434 0.293912 0.0
4.47818 0.0805981 0.0
4.80613 -0.00792962 0.0
9.22561 0.042952 0.0
5.06155 -0.0736361 0.0
5.18849 -0.0794604 0.0
5.34187 0.214227 0.0
5.38629 0.2205 0.0
5.29586 -0.00605752 0.0
5.18349 0.0619372 0.0
4.40283 -0.0787682 0.0
4.98396 -0.04457 0.0
6.20376 -0.0051355 0.0
10.3227 -0.0225263 0.0
5.43842 -0.0960005 0.0
6.38685 0.0785193 0.0
8.80575 0.163121 0.0
8.57582 -0.172765 0.0
4.94468 -0.0644844 0.0
5.43528 0.216316 0.0
5.0082 0.0546955 0.0
9.69913 0.0124142 0.0
4.74588 0.10527 0.0
5.25995 0.0831441 0.0
4.88903 -0.0697284 0.0
9.66522 0.416911 0.0
6.02218 -0.093793 0.0
4.31243 0.0138232 0.0
4.92698 0.0159316 0.0
4.17646 0.0482573 0.0
5.39227 0.0844118 0.0
5.4615 -0.0232145 0.0
8.07404 -0.0764284 0.0
3.73135 -0.0294278 0.0
9.4478 0.384378 0.0
9.79195 0.141927 0.0
38.0129 -0.178929 0.0
37.3934 -0.123081 0.0
41.2449 -0.126798 0.0
32.7527 0.0435605 0.0
43.1378 -0.313207 0.0
43.3318 -0.141076 0.0
32.4364 0.00889191 0.0
43.2412 -0.329834 0.0
43.5693 -0.277276 0.0
43.3351 -0.348335 0.0
43.6833 -0.173598 0.0
34.2837 -0.016202 0.0
37.6782 -0.121426 0.0
43.4669 -0.310526 0.0
36.6062 -0.161604 0.0
43.0083 -0.231029 0.0
38.6667 -0.17846 0.0
42.9348 -0.192512 0.0
40.6746 -0.260991 0.0
41.2937 -0.288355 0.0
28.4497 0.116124 0.0
42.9291 -0.35787 0.0
42.8955 -0.202422 0.0
41.5376 -0.273765 0.0
43.1698 -0.294785 0.0
31.7775 -0.132632 0.0
40.4906 -0.100988 0.0
37.6254 -0.140083 0.0
42.6914 -0.344066 0.0
42.4666 -0.335548 0.0
43.0642 -0.274254 0.0
33.4351 -0.149854 0.0