# vtk DataFile Version 3.0
Malha 2D com triângulos e temperatura
ASCII
DATASET UNSTRUCTURED_GRID

POINTS 1194 double
0 0 0
5 0 0
5 1 0
0 1 0
0.85 0.5 0
0.842388 0.538268 0
0.820711 0.570711 0
0.788268 0.592388 0
0.75 0.6 0
0.711732 0.592388 0
0.679289 0.570711 0
0.657612 0.538268 0
0.65 0.5 0
0.657612 0.461732 0
0.679289 0.429289 0
0.711732 0.407612 0
0.75 0.4 0
0.788268 0.407612 0
0.820711 0.429289 0
0.842388 0.461732 0
0.0793651 0 0
0.15873 0 0
0.238095 0 0
0.31746 0 0
0.396825 0 0
0.47619 0 0
0.555556 0 0
0.634921 0 0
0.714286 0 0
0.793651 0 0
0.873016 0 0
0.952381 0 0
1.03175 0 0
1.11111 0 0
1.19048 0 0
1.26984 0 0
1.34921 0 0
1.42857 0 0
1.50794 0 0
1.5873 0 0
1.66667 0 0
1.74603 0 0
1.8254 0 0
1.90476 0 0
1.98413 0 0
2.06349 0 0
2.14286 0 0
2.22222 0 0
2.30159 0 0
2.38095 0 0
2.46032 0 0
2.53968 0 0
2.61905 0 0
2.69841 0 0
2.77778 0 0
2.85714 0 0
2.93651 0 0
3.01587 0 0
3.09524 0 0
3.1746 0 0
3.25397 0 0
3.33333 0 0
3.4127 0 0
3.49206 0 0
3.57143 0 0
3.65079 0 0
3.73016 0 0
3.80952 0 0
3.88889 0 0
3.96825 0 0
4.04762 0 0
4.12698 0 0
4.20635 0 0
4.28571 0 0
4.36508 0 0
4.44444 0 0
4.52381 0 0
4.60317 0 0
4.68254 0 0
4.7619 0 0
4.84127 0 0
4.92063 0 0
5 0.0769231 0
5 0.153846 0
5 0.230769 0
5 0.307692 0
5 0.384615 0
5 0.461538 0
5 0.538462 0
5 0.615385 0
5 0.692308 0
5 0.769231 0
5 0.846154 0
5 0.923077 0
4.92063 1 0
4.84127 1 0
4.7619 1 0
4.68254 1 0
4.60317 1 0
4.52381 1 0
4.44444 1 0
4.36508 1 0
4.28571 1 0
4.20635 1 0
4.12698 1 0
4.04762 1 0
3.96825 1 0
3.88889 1 0
3.80952 1 0
3.73016 1 0
3.65079 1 0
3.57143 1 0
3.49206 1 0
3.4127 1 0
3.33333 1 0
3.25397 1 0
3.1746 1 0
3.09524 1 0
3.01587 1 0
2.93651 1 0
2.85714 1 0
2.77778 1 0
2.69841 1 0
2.61905 1 0
2.53968 1 0
2.46032 1 0
2.38095 1 0
2.30159 1 0
2.22222 1 0
2.14286 1 0
2.06349 1 0
1.98413 1 0
1.90476 1 0
1.8254 1 0
1.74603 1 0
1.66667 1 0
1.5873 1 0
1.50794 1 0
1.42857 1 0
1.34921 1 0
1.26984 1 0
1.19048 1 0
1.11111 1 0
1.03175 1 0
0.952381 1 0
0.873016 1 0
0.793651 1 0
0.714286 1 0
0.634921 1 0
0.555556 1 0
0.47619 1 0
0.396825 1 0
0.31746 1 0
0.238095 1 0
0.15873 1 0
0.0793651 1 0
0 0.923077 0
0 0.846154 0
0 0.769231 0
0 0.692308 0
0 0.615385 0
0 0.538462 0
0 0.461538 0
0 0.384615 0
0 0.307692 0
0 0.230769 0
0 0.153846 0
0 0.0769231 0
0.879698 0.466718 0
1.3085 0.931947 0
1.30532 0.0638546 0
4.93832 0.504275 0
0.620452 0.46964 0
3.99858 0.0669607 0
1.63721 0.934258 0
3.3751 0.0523709 0
4.3254 0.0687322 0
2.42354 0.0642082 0
2.97619 0.0687322 0
2.02101 0.0693621 0
3.68108 0.0581336 0
2.65899 0.932655 0
4.178 0.939994 0
3.21614 0.938179 0
2.25483 0.919987 0
3.53215 0.928998 0
3.84921 0.931268 0
1.69647 0.0674297 0
1.94349 0.930209 0
4.48413 0.931268 0
2.97813 0.942022 0
2.74097 0.0673855 0
0.859645 0.573263 0
0.639718 0.573116 0
0.0651563 0.652836 0
0.0635304 0.346121 0
4.56232 0.0679683 0
0.830393 0.392645 0
0.669618 0.39275 0
1.06185 0.0668897 0
0.440193 0.0680031 0
1.06474 0.93511 0
0.446074 0.935974 0
0.724697 0.630698 0
4.72268 0.931235 0
4.93065 0.267192 0
0.589836 0.936152 0
0.92338 0.0562425 0
0.590207 0.0623339 0
0.755872 0.0732784 0
0.838039 0.936714 0
4.92573 0.732039 0
0.281717 0.93783 0
0.28208 0.0811877 0
0.065248 0.503161 0
1.46076 0.0637037 0
4.72574 0.0661877 0
4.31028 0.937908 0
3.21429 0.0687322 0
1.46639 0.932632 0
3.6897 0.928155 0
2.42063 0.931268 0
3.5364 0.0691789 0
2.25998 0.0676208 0
1.78735 0.937047 0
4.01535 0.920637 0
1.85469 0.0674188 0
3.83991 0.0626292 0
3.37477 0.929368 0
2.58225 0.0657863 0
2.81746 0.932342 0
4.16667 0.0687322 0
2.11402 0.935574 0
0.0614266 0.197046 0
0.0612841 0.803003 0
4.88273 0.0644126 0
4.87774 0.933272 0
0.859645 0.426737 0
0.903081 0.436592 0
0.923672 0.473385 0
0.948706 0.439078 0
0.969155 0.479795 0
0.996593 0.439791 0
1.0202 0.484937 0
1.04667 0.440138 0
1.07382 0.489694 0
1.1034 0.440801 0
1.13169 0.49612 0
1.16603 0.445058 0
1.1931 0.504331 0
1.22956 0.450883 0
1.25923 0.506004 0
1.29683 0.453139 0
1.32923 0.510343 0
1.36603 0.454344 0
1.03276 0.530395 0
1.40063 0.516169 0
1.43576 0.454934 0
1.47042 0.520776 0
1.51069 0.46142 0
1.54422 0.526371 0
1.58547 0.465572 0
1.61942 0.531773 0
1.66033 0.468788 0
1.69546 0.536793 0
1.73713 0.472812 0
1.77239 0.541977 0
1.81532 0.478494 0
1.85006 0.547285 0
1.89327 0.483449 0
1.92802 0.55361 0
1.97142 0.488546 0
2.00623 0.558966 0
2.04984 0.493518 0
2.08483 0.564085 0
2.12847 0.498462 0
2.16353 0.569137 0
2.20719 0.503331 0
0.961579 0.391697 0
1.22451 0.565337 0
2.24238 0.574192 0
2.28611 0.508258 0
2.32134 0.579247 0
2.36519 0.513325 0
2.40036 0.584295 0
2.44425 0.51834 0
2.47944 0.589336 0
2.52334 0.523355 0
2.55853 0.594372 0
2.60245 0.52837 0
2.63764 0.599431 0
2.68159 0.533388 0
2.64637 0.462336 0
2.72553 0.467349 0
2.76076 0.538418 0
2.8047 0.47237 0
2.83993 0.543451 0
2.88387 0.477399 0
2.91911 0.548482 0
2.96305 0.482427 0
2.9983 0.553514 0
3.04224 0.487456 0
3.07749 0.558545 0
3.12143 0.492477 0
3.15668 0.563574 0
3.20063 0.497514 0
3.23588 0.568605 0
3.27983 0.502542 0
3.31508 0.573635 0
3.35903 0.507562 0
3.39428 0.578663 0
3.43823 0.5126 0
3.47348 0.583694 0
3.51744 0.517628 0
3.55268 0.588724 0
3.59664 0.522646 0
3.63189 0.593752 0
3.67585 0.527673 0
3.71109 0.598781 0
3.75505 0.532702 0
3.7903 0.60381 0
3.83426 0.537731 0
3.79901 0.466623 0
3.87821 0.471754 0
3.91346 0.542777 0
3.95742 0.476701 0
3.99267 0.547795 0
4.03662 0.481715 0
4.07187 0.552815 0
4.11582 0.486743 0
4.15106 0.55783 0
4.195 0.491782 0
4.23023 0.562843 0
4.27415 0.49682 0
4.30937 0.567866 0
4.35325 0.501915 0
4.38842 0.572845 0
4.43227 0.506997 0
4.46737 0.577575 0
4.51106 0.511995 0
4.54622 0.582183 0
1.13571 0.390292 0
4.47606 0.441361 0
4.55475 0.446396 0
2.32985 0.442214 0
3.5614 0.451571 0
3.08619 0.421408 0
2.09339 0.427815 0
1.42887 0.583001 0
2.84864 0.406329 0
3.32378 0.43649 0
4.23911 0.425894 0
1.54723 0.39251 0
1.77883 0.406811 0
1.33959 0.387065 0
3.92239 0.405803 0
4.08079 0.415776 0
2.48812 0.452349 0
1.57935 0.603183 0
1.93602 0.417543 0
1.72453 0.617973 0
3.11273 0.629643 0
2.69029 0.396284 0
3.94662 0.623383 0
1.88466 0.613248 0
2.79598 0.609502 0
4.10826 0.620575 0
2.04005 0.62838 0
2.95434 0.619575 0
4.51981 0.375801 0
4.59833 0.380943 0
4.63314 0.451296 0
4.26693 0.63114 0
2.19619 0.645921 0
4.4246 0.642296 0
3.27112 0.639707 0
2.35729 0.649822 0
2.51462 0.660373 0
3.42952 0.649769 0
4.67669 0.38601 0
3.58793 0.659829 0
3.74634 0.669888 0
4.64195 0.315733 0
4.44109 0.370647 0
4.48493 0.305066 0
4.40614 0.29989 0
4.71136 0.456133 0
4.72014 0.320758 0
0.8692 0.382093 0
0.841252 0.348256 0
0.886481 0.338703 0
0.853127 0.301457 0
0.902583 0.287335 0
0.801683 0.321689 0
0.818113 0.263019 0
0.764765 0.277091 0
4.44702 0.235678 0
0.946267 0.520761 0
0.78107 0.221265 0
0.726309 0.234724 0
0.848273 0.20551 0
4.68545 0.250576 0
4.37074 0.227561 0
4.76365 0.255792 0
4.79822 0.326145 0
0.713664 0.287231 0
0.672358 0.247957 0
0.68673 0.192342 0
0.630368 0.2085 0
0.616569 0.265341 0
0.574186 0.225456 0
0.557393 0.28131 0
0.52004 0.242373 0
0.504416 0.299685 0
0.462273 0.252096 0
0.44798 0.316739 0
0.404567 0.276951 0
0.390546 0.335414 0
0.434669 0.37657 0
0.377935 0.394545 0
0.421979 0.43426 0
0.365682 0.452846 0
0.409646 0.492216 0
0.353389 0.51089 0
0.397738 0.551598 0
0.339864 0.570301 0
0.385899 0.612153 0
0.325913 0.631557 0
0.344507 0.29318 0
0.320568 0.413067 0
0.373553 0.673852 0
0.434438 0.653082 0
0.311416 0.69481 0
0.449777 0.528305 0
0.293513 0.534612 0
0.421431 0.715204 0
0.480917 0.696603 0
0.54504 0.34471 0
0.262743 0.649913 0
0.246209 0.712341 0
0.468564 0.755948 0
0.526091 0.735423 0
0.538207 0.68039 0
0.581228 0.716342 0
0.408756 0.777952 0
0.36234 0.239019 0
0.297047 0.251925 0
0.572109 0.771575 0
0.624906 0.752173 0
0.474824 0.414151 0
0.534351 0.182707 0
0.633682 0.70159 0
0.674547 0.736174 0
0.66826 0.788959 0
0.721117 0.76834 0
0.714515 0.825486 0
0.769074 0.802008 0
0.775287 0.746591 0
0.821903 0.778625 0
0.826767 0.726064 0
0.873257 0.756032 0
0.872997 0.697261 0
0.92331 0.732304 0
0.930014 0.67838 0
0.976061 0.710612 0
0.92456 0.784469 0
0.982178 0.654421 0
1.03016 0.688004 0
1.02037 0.747059 0
1.08 0.723819 0
1.08651 0.661896 0
1.1397 0.698204 0
1.13262 0.763657 0
1.19424 0.736545 0
1.18556 0.80161 0
1.24839 0.771772 0
1.25723 0.706382 0
1.31432 0.745787 0
4.66801 0.521361 0
4.74602 0.526202 0
4.70285 0.591278 0
4.78076 0.596023 0
4.73763 0.661207 0
4.78904 0.460969 0
2.61113 0.391267 0
2.65506 0.325217 0
2.57588 0.320198 0
2.61982 0.254148 0
2.69899 0.259163 0
2.54065 0.249131 0
2.49672 0.315179 0
2.46148 0.244124 0
2.41757 0.310166 0
2.38233 0.239117 0
2.33843 0.30514 0
2.30297 0.237979 0
2.25928 0.300748 0
2.22079 0.221377 0
2.17969 0.293884 0
2.14114 0.224266 0
2.10047 0.289841 0
2.0653 0.219144 0
2.02202 0.284919 0
1.98701 0.214164 0
1.94336 0.279863 0
3.82315 0.673327 0
3.78135 0.738156 0
3.86451 0.735958 0
3.70234 0.735494 0
4.52513 0.244409 0
4.32717 0.294467 0
4.29217 0.221862 0
0.619934 0.539507 0
0.599432 0.577132 0
0.575955 0.542712 0
0.554504 0.58245 0
4.65962 0.656481 0
4.69438 0.726169 0
4.6161 0.721747 0
4.77259 0.731352 0
4.65076 0.791486 0
4.57153 0.788793 0
4.2482 0.289182 0
4.21307 0.218308 0
4.1691 0.284563 0
4.13394 0.21352 0
0.835918 0.606341 0
0.806475 0.6384 0
4.08995 0.279537 0
0.640355 0.426737 0
0.596214 0.435837 0
0.630358 0.379178 0
0.689967 0.627735 0
1.90832 0.209948 0
1.86468 0.27519 0
1.82968 0.20518 0
1.78607 0.269797 0
0.281841 0.313314 0
0.232117 0.268621 0
0.216861 0.334396 0
4.05473 0.209347 0
4.01077 0.2745 0
3.97554 0.204394 0
3.93159 0.269388 0
0.297409 0.759367 0
0.231645 0.782943 0
0.180008 0.73598 0
1.32151 0.676369 0
1.38055 0.718092 0
1.36901 0.793947 0
1.43945 0.766002 0
0.249902 0.198865 0
0.932364 0.624392 0
1.75117 0.201034 0
1.70771 0.264658 0
1.673 0.195402 0
1.62985 0.260294 0
1.59532 0.191927 0
1.55236 0.254233 0
3.89629 0.200227 0
3.85238 0.264494 0
3.81708 0.195303 0
3.77304 0.259453 0
2.66368 0.189084 0
2.74279 0.19534 0
2.77814 0.264556 0
2.82201 0.199823 0
2.85733 0.269552 0
2.90126 0.203886 0
2.93654 0.274416 0
2.98045 0.20868 0
3.01573 0.279376 0
3.0597 0.213193 0
[...]
CELL_DATA 2220
VECTORS velocity double
5.1662 -0.255103 0.0
4.52565 0.293533 0.0
7.64649 0.551712 0.0
5.88629 0.776723 0.0
5.23792 -0.326289 0.0
5.12456 -0.266587 0.0
4.08939 0.290143 0.0
4.27877 0.0158099 0.0
8.33138 1.32235 0.0
5.04483 -0.144804 0.0
7.07218 0.678963 0.0
4.18105 0.258344 0.0
3.61223 0.173729 0.0
6.97759 -0.860363 0.0
7.58532 0.234464 0.0
7.13375 1.60408 0.0
4.46393 0.221835 0.0
3.8782 0.322226 0.0
4.17076 -0.0923304 0.0
4.22857 -0.0469518 0.0
6.8822 0.379494 0.0
7.28238 1.84202 0.0
4.19175 0.313543 0.0
4.23957 0.353296 0.0
5.68784 -0.180193 0.0
6.60524 -0.693369 0.0
6.59041 0.1609 0.0
3.91554 0.370209 0.0
5.78359 0.704009 0.0
5.95049 0.542704 0.0
5.90922 -0.50532 0.0
7.4313 0.892689 0.0
3.54353 -0.0986229 0.0
8.87103 0.208862 0.0
7.11514 -1.63779 0.0
5.204 -0.269419 0.0
7.42506 -1.90309 0.0
3.72749 -0.064163 0.0
6.17478 0.79252 0.0
7.52403 0.424201 0.0
4.65002 0.0821733 0.0
7.98104 1.30317 0.0
5.32887 0.706635 0.0
4.10945 0.00513354 0.0
3.89727 0.0874416 0.0
3.65339 0.0232438 0.0
4.16634 0.351763 0.0
3.6864 0.0103743 0.0
5.07252 -0.135276 0.0
5.15227 -0.0413874 0.0
5.94696 0.3739 0.0
3.52166 0.0397446 0.0
4.14276 0.376435 0.0
3.98761 0.0441686 0.0
3.99725 0.232307 0.0
7.68516 0.371151 0.0
7.84896 0.909309 0.0
3.7695 0.323758 0.0
3.85536 0.354086 0.0
5.31225 -0.083398 0.0
1.22137 -0.569264 0.0
5.67825 -0.267276 0.0
5.93854 -0.723853 0.0
4.17258 0.400499 0.0
4.17975 0.301024 0.0
9.21581 0.105092 0.0
5.18105 -0.631366 0.0
7.17882 1.52395 0.0
3.87214 0.317202 0.0
3.84873 0.394099 0.0
3.96924 0.132047 0.0
8.81605 -0.435631 0.0
3.47952 0.142933 0.0
5.15943 0.101789 0.0
2.70504 0.290281 0.0
6.61306 1.03724 0.0
5.99709 0.644051 0.0
5.40803 -0.454867 0.0
7.44029 1.39928 0.0
4.03106 0.116933 0.0
6.75933 -0.053563 0.0
7.73368 -0.302726 0.0
4.35278 -0.152802 0.0
3.6225 0.121385 0.0
4.1226 0.313403 0.0
4.10831 0.177875 0.0
5.10953 -0.338823 0.0
3.73392 0.176032 0.0
3.74804 0.260892 0.0
8.67549 1.25548 0.0
1.49501 0.375062 0.0
6.04142 0.735732 0.0
4.08561 -0.0971698 0.0
6.56298 0.890493 0.0
6.58745 1.03145 0.0
7.55218 -0.325837 0.0
7.06751 -2.10365 0.0
4.62321 -0.98344 0.0
1.94363 -0.609473 0.0
8.54375 0.0525067 0.0
2.39768 -0.716601 0.0
5.90408 -0.543483 0.0
4.13484 0.362376 0.0
4.01419 0.359398 0.0
8.09052 1.78536 0.0
6.86349 1.29694 0.0
5.06023 -0.240381 0.0
5.43403 -0.259791 0.0
1.83163 -0.0546125 0.0
4.36248 0.365968 0.0
6.12863 0.479541 0.0
8.02918 -0.904057 0.0
5.01147 -0.158845 0.0
3.57235 -0.305841 0.0
5.70524 -0.393353 0.0
3.79904 0.345855 0.0
6.44236 -0.681885 0.0
4.96469 -0.266625 0.0
2.67471 -0.162071 0.0
8.71721 1.00726 0.0
5.15746 -0.457351 0.0
5.92202 -0.323367 0.0
5.23758 0.530021 0.0
6.41184 1.75071 0.0
7.0559 -1.49867 0.0
6.57172 -1.66769 0.0
6.70614 1.28946 0.0
5.61779 0.539379 0.0
7.15551 -0.991291 0.0
4.00414 1.12115 0.0
3.99211 0.0204188 0.0
4.36325 -1.21328 0.0
2.77768 -0.88138 0.0
4.56026 0.217083 0.0
6.18219 0.784727 0.0
4.45315 0.231799 0.0
3.52386 0.0102351 0.0
6.41808 -0.207763 0.0
7.03055 -1.69746 0.0
7.21019 0.94877 0.0
6.86399 -0.443266 0.0
4.12712 -0.0107533 0.0
5.78248 -0.507179 0.0
7.36614 -1.58329 0.0
5.11414 0.0913536 0.0
6.40143 0.816067 0.0
2.51413 0.790812 0.0
4.89015 -0.643728 0.0
5.86089 0.342012 0.0
5.41933 -0.321642 0.0
4.00762 0.0630688 0.0
8.52705 0.974675 0.0
6.04255 0.0237323 0.0
6.34917 1.62429 0.0
4.01873 0.345385 0.0
4.6089 0.135975 0.0
5.70519 -0.775947 0.0
4.61703 0.186698 0.0
4.15652 -0.471763 0.0
5.62398 -0.501703 0.0
5.4849 -1.83982 0.0
3.88107 0.0211461 0.0
2.424 -0.815187 0.0
7.40684 -0.800101 0.0
3.53071 0.0552434 0.0
8.56848 0.7141 0.0
8.27398 -1.43993 0.0
6.21073 -0.453484 0.0
4.57122 0.0890945 0.0
3.405 -1.31606 0.0
3.19701 1.09379 0.0
3.68033 0.0819453 0.0
4.07933 0.0262316 0.0
3.9395 -1.14498 0.0
5.45046 -0.793469 0.0
7.1129 1.30762 0.0
6.05899 0.660028 0.0
6.79623 1.25473 0.0
3.64676 -0.274121 0.0
4.46978 0.0468833 0.0
5.97285 -0.124847 0.0
5.94228 -0.410117 0.0
2.21128 0.827028 0.0
5.03845 1.48645 0.0
4.40739 0.0400153 0.0
5.69707 -0.312197 0.0
5.96316 0.121653 0.0
3.77215 -0.0277734 0.0
6.9911 -1.95324 0.0
6.13401 -0.122803 0.0
4.55052 -0.568833 0.0
3.77405 -0.122384 0.0
8.03178 -1.09906 0.0
5.81114 0.277188 0.0
5.84714 -0.551098 0.0
5.98773 0.445604 0.0
4.73478 0.169611 0.0
4.0555 -0.0376887 0.0
2.28 -0.171316 0.0
4.35721 0.0302082 0.0
4.13061 -0.0140192 0.0
4.57944 0.00590474 0.0
8.80992 1.07654 0.0
4.18927 0.103731 0.0
4.68839 -0.0143378 0.0
5.60106 -0.528309 0.0
7.18354 -0.123479 0.0
4.12313 0.0911704 0.0
4.94606 -0.0342812 0.0
3.19609 -0.214309 0.0
4.12926 0.3025 0.0
4.30068 -0.133405 0.0
4.65826 -0.0691453 0.0
7.59825 1.4757 0.0
6.15015 0.784545 0.0
4.42722 0.0169404 0.0
3.77138 0.285458 0.0
4.24913 0.325887 0.0
3.91139 0.190298 0.0
2.78942 -0.101491 0.0
5.06779 0.0269024 0.0
2.60406 -0.0728463 0.0
3.86706 0.302795 0.0
2.57693 -0.00506607 0.0
4.21383 0.0471843 0.0
4.4636 -0.00711518 0.0
4.77234 -0.36552 0.0
6.72571 -0.2707 0.0
7.96534 -0.235134 0.0
3.73409 0.381762 0.0
4.79196 0.0128085 0.0
4.92274 -0.184988 0.0
3.47793 -0.0227502 0.0
4.2872 0.00394992 0.0
3.75878 -0.276295 0.0
6.10473 0.078479 0.0
5.38604 -1.10341 0.0
4.11672 -0.115449 0.0
4.09751 -0.135014 0.0
3.98077 -0.0185816 0.0
7.18435 -1.37898 0.0
8.35811 -1.6251 0.0
8.25073 1.72474 0.0
2.99588 0.039242 0.0
4.65222 0.235969 0.0
5.03066 -0.0575409 0.0
4.31354 0.0305863 0.0
5.84403 -0.347373 0.0
3.69408 0.392856 0.0
5.69828 0.710141 0.0
4.57151 -0.185254 0.0
2.97979 -0.0237045 0.0
7.96908 -1.58833 0.0
5.15302 -0.0491663 0.0
6.27669 -1.08963 0.0
4.10923 0.220724 0.0
2.53145 0.104185 0.0
5.03026 -0.0254404 0.0
6.14112 0.556277 0.0
6.17027 0.529484 0.0
4.37481 -0.177633 0.0
5.95131 -0.198722 0.0
3.58438 0.397643 0.0
6.35844 -0.598484 0.0
2.79691 -0.08737 0.0
3.05243 -0.0186934 0.0
4.03697 -0.0260996 0.0
5.80329 -0.754317 0.0
6.33856 0.624361 0.0
5.04164 -0.0657279 0.0
5.10191 0.148928 0.0
5.49626 0.0250623 0.0
3.73455 0.196133 0.0
5.34594 -0.311773 0.0
5.11965 -1.4215 0.0
7.89957 1.69052 0.0
4.14455 1.23057 0.0
5.89086 -0.35483 0.0
5.01405 0.480167 0.0
4.14402 0.0418807 0.0
6.29287 -1.49644 0.0
6.57345 -0.544577 0.0
7.52048 1.41204 0.0
4.754 0.162602 0.0
5.25446 -0.300589 0.0
4.48478 0.0015347 0.0
7.60848 -1.03788 0.0
4.59876 0.19996 0.0
3.78315 -0.100555 0.0
3.74242 -0.111583 0.0
2.53971 -0.250728 0.0
4.28237 -0.176361 0.0
3.48696 0.313364 0.0
4.59718 -0.0808009 0.0
4.6675 -0.252131 0.0
4.5602 -0.0793261 0.0
4.54308 -0.0768913 0.0
5.29325 0.162958 0.0
8.63232 1.58975 0.0
6.02135 0.749083 0.0
3.69825 -0.011272 0.0
6.93654 1.21112 0.0
7.6987 -0.759766 0.0
2.90008 0.0434739 0.0
7.51778 -1.6705 0.0
4.5287 0.130628 0.0
3.71262 0.00556163 0.0
3.75044 -0.126736 0.0
4.59869 0.156968 0.0
3.14794 0.258587 0.0
4.4142 0.146294 0.0
2.82016 0.0649192 0.0
4.53029 0.968242 0.0
7.89344 1.54525 0.0
8.48257 -0.844921 0.0
4.09394 -0.11382 0.0
6.51283 1.04991 0.0
3.98794 0.300393 0.0
6.43534 -0.776936 0.0
6.14347 0.837299 0.0
4.47621 -1.28114 0.0
5.25424 0.389208 0.0
5.01153 -0.0141703 0.0
4.05745 -0.224504 0.0
2.95595 0.0678823 0.0
4.17882 -0.111497 0.0
5.52997 0.080853 0.0
5.15391 0.163312 0.0
5.08022 0.0223269 0.0
3.93979 -0.212351 0.0
7.36911 -1.6559 0.0
7.84804 -1.74731 0.0
6.00848 -0.628105 0.0
3.59094 -0.310106 0.0
9.28425 -0.426946 0.0
6.86331 -1.16566 0.0
6.15584 -0.74661 0.0
7.0954 1.2042 0.0
6.03771 -0.524313 0.0
4.09464 -0.132396 0.0
2.99838 0.0268526 0.0
3.88326 -0.151181 0.0
2.51407 0.116226 0.0
2.58755 -0.0224412 0.0
4.71672 -0.962476 0.0
7.64548 1.33588 0.0
3.88882 0.152634 0.0
6.53593 0.991806 0.0
5.92839 0.529816 0.0
2.35153 -0.122651 0.0
9.26636 0.225018 0.0
2.07539 0.0721023 0.0
2.52824 -0.0796534 0.0
6.61932 1.58945 0.0
2.85448 0.229528 0.0
6.29517 -0.567074 0.0
9.323 0.381756 0.0
1.77978 -0.0658233 0.0
5.07272 0.0867184 0.0
6.83402 -0.949745 0.0
5.98492 0.52412 0.0
4.73985 0.652738 0.0
7.12007 0.868529 0.0
6.14912 0.731954 0.0
2.19956 0.21467 0.0
5.48924 0.0240096 0.0
8.33674 -2.05778 0.0
2.14635 -0.161301 0.0
2.29876 -0.159058 0.0
6.02609 -0.457822 0.0
2.2329 0.150816 0.0
7.04882 1.79383 0.0
9.12263 -0.421525 0.0
4.57296 -0.0691304 0.0
2.47037 -0.0343284 0.0
4.11796 0.229842 0.0
5.03574 0.167262 0.0
4.8232 0.0853913 0.0
6.13629 -0.224389 0.0
4.69027 -0.0638605 0.0
4.49993 -0.162486 0.0
6.86892 1.17453 0.0
6.67791 -1.06743 0.0
5.05728 -0.00804227 0.0
6.82917 1.07236 0.0
5.14379 -0.0224519 0.0
8.9781 1.4383 0.0
5.01148 -0.0131175 0.0
7.14286 -0.779323 0.0
5.84604 0.396566 0.0
3.48414 0.368705 0.0
5.36436 0.044453 0.0
5.82258 -0.312537 0.0
6.18342 -1.02577 0.0
3.39307 -0.405817 0.0
4.54128 -0.341215 0.0
6.0989 0.293657 0.0
3.27641 0.284395 0.0
5.02055 0.00165404 0.0
6.35648 0.843883 0.0
2.90223 0.136502 0.0
7.52473 0.0738063 0.0
6.06603 0.6234 0.0
5.02461 -0.0174418 0.0
8.6141 -1.84583 0.0
8.81504 -1.78184 0.0
3.39774 0.175203 0.0
2.97804 0.228064 0.0
6.47123 -0.314668 0.0
8.93473 -1.11719 0.0
7.07074 -1.59569 0.0
2.46443 0.0444471 0.0
7.39882 1.24926 0.0
6.08371 -0.908984 0.0
6.34481 -0.659374 0.0
5.01376 -0.0289383 0.0
2.03376 -0.0807399 0.0
1.95952 0.145229 0.0
7.96673 1.24606 0.0
2.3626 0.18175 0.0
6.41603 0.985952 0.0
6.41305 0.789318 0.0
1.9731 0.0088934 0.0
2.3461 -0.117878 0.0
5.90388 0.466489 0.0
4.97948 0.0338642 0.0
1.96108 0.0904111 0.0
5.08511 -0.0835094 0.0
5.0303 0.0230128 0.0
3.07875 -0.18516 0.0
5.03338 0.000857497 0.0
5.86419 0.482002 0.0
6.71042 -0.988287 0.0
5.63917 0.389732 0.0
3.02906 -0.337358 0.0
7.67162 -2.17427 0.0
2.53384 -0.0690227 0.0
2.97262 0.217117 0.0
6.92507 -1.59056 0.0
2.36072 0.243921 0.0
6.063 0.623574 0.0
5.74547 0.408877 0.0
9.03376 -1.16277 0.0
8.60402 -1.76552 0.0
4.07657 -0.490902 0.0
6.26767 0.206368 0.0
6.17297 0.669041 0.0
1.87043 -0.0880868 0.0
1.74063 0.119952 0.0
4.04911 -0.00881551 0.0
4.21637 0.4602 0.0
5.05462 -0.145275 0.0
3.09607 -0.210995 0.0
5.61093 0.309588 0.0
5.35927 0.21111 0.0
2.74758 0.233628 0.0
4.16253 0.319873 0.0
6.3374 0.846084 0.0
2.93353 0.181417 0.0
5.37435 0.295428 0.0
5.6761 0.405514 0.0
5.00021 0.0220019 0.0
2.46038 -0.222094 0.0
1.92706 0.157879 0.0
3.14152 -0.0211422 0.0
4.65778 0.0470978 0.0
3.69777 -0.0132447 0.0
5.05124 0.0201365 0.0
1.94817 0.0548324 0.0
8.58639 -1.6321 0.0
2.86384 -0.0129556 0.0
1.75582 0.119255 0.0
4.86907 -0.632129 0.0
6.82635 1.08911 0.0
2.92249 -0.159077 0.0
4.9911 0.0154003 0.0
5.50706 0.354663 0.0
7.34609 0.0906104 0.0
5.06089 0.0409293 0.0
5.45883 0.361497 0.0
4.90743 -0.386126 0.0
9.24634 -0.126815 0.0
5.71955 -0.486203 0.0
5.22982 0.295524 0.0
2.88343 -0.324532 0.0
3.02376 0.341668 0.0
6.10737 -0.201844 0.0
1.59617 0.127434 0.0
7.39942 -1.00368 0.0
4.83628 0.170368 0.0
5.09689 0.0465461 0.0
1.66234 0.128318 0.0
1.92181 -0.103907 0.0
5.25188 0.254451 0.0
7.39243 1.26539 0.0
4.9472 -0.0983986 0.0
5.8246 -0.386294 0.0
5.39658 0.0527445 0.0
5.76455 -0.354966 0.0
4.66383 -0.162586 0.0
4.98682 -0.0542143 0.0
5.7109 0.440494 0.0
1.70745 -0.0289413 0.0
5.082 0.211171 0.0
4.92442 0.0684524 0.0
3.96899 -0.0240874 0.0
5.0436 -0.000292137 0.0
1.92455 -0.185242 0.0
2.11406 0.185052 0.0
5.9064 0.553613 0.0
5.00633 -0.0595869 0.0
5.07913 -0.146826 0.0
4.2431 -0.0828266 0.0
5.06412 -0.00429321 0.0
5.08571 0.0341591 0.0
5.86548 -0.673406 0.0
2.36256 0.0269243 0.0
5.03948 0.0468828 0.0
5.85752 -0.542523 0.0
5.28941 0.335769 0.0
5.02074 0.04058 0.0
3.6911 -0.0707255 0.0
9.26461 -0.418255 0.0
3.68058 -0.301648 0.0
8.79366 -1.18286 0.0
5.08304 -0.184818 0.0
5.93506 0.612484 0.0
5.06113 0.00708033 0.0
2.43197 -0.0482525 0.0
5.01746 0.138796 0.0
5.03035 0.00812089 0.0
5.10138 0.280815 0.0
5.11377 0.0321584 0.0
5.51221 0.379663 0.0
5.0475 0.0852274 0.0
5.70341 -0.359194 0.0
7.6579 0.0785912 0.0
4.02873 -0.139824 0.0
6.46353 -0.785704 0.0
3.69346 -0.0641213 0.0
5.05122 -0.082483 0.0
4.15501 -0.342419 0.0
9.15868 -0.74958 0.0
5.11458 0.0270785 0.0
1.58015 -0.152851 0.0
1.61052 0.161522 0.0
5.0086 0.0510664 0.0
6.6055 0.888244 0.0
4.96618 0.0970442 0.0
4.73636 0.0489913 0.0
1.91244 0.0140859 0.0
2.77909 -0.00605363 0.0
2.48439 0.0371837 0.0
2.23717 0.102846 0.0
3.55676 -0.195668 0.0
6.04134 -0.779697 0.0
5.12079 0.0287625 0.0
9.07232 -1.35969 0.0
1.24906 0.0820533 0.0
4.86589 -0.032677 0.0
4.92207 -0.0355708 0.0
5.03942 -0.0602653 0.0
4.93792 0.123205 0.0
1.32419 -0.119097 0.0
2.31777 -0.140196 0.0
5.09947 0.167065 0.0
5.30376 0.425314 0.0
5.00806 0.206095 0.0
4.65025 -0.0245405 0.0
5.03778 0.00217074 0.0
6.41841 0.884098 0.0
5.06021 -0.00912569 0.0
4.99863 0.0731404 0.0
5.10267 0.010809 0.0
2.02358 -0.17078 0.0
6.64005 1.08583 0.0
5.00901 0.0265445 0.0
4.9936 0.0283881 0.0
5.01458 0.00858763 0.0
5.0658 -0.0484399 0.0
1.96076 0.102123 0.0
4.96259 0.0434856 0.0
2.45635 -0.0127151 0.0
4.14271 0.373547 0.0
4.63617 0.0599462 0.0
4.93036 0.0842621 0.0
4.9528 0.136679 0.0
5.04978 0.00432006 0.0
5.02793 0.0252288 0.0
5.04082 0.0134243 0.0
1.53792 0.11724 0.0
2.56472 0.198124 0.0
2.45989 -0.0111102 0.0
4.95086 0.0793129 0.0
4.97587 0.0352849 0.0
7.955 -1.63864 0.0
2.41072 0.00898042 0.0
5.06157 -0.0161602 0.0
5.0508 0.0211099 0.0
4.43665 0.258893 0.0
4.97515 0.0241597 0.0
1.4346 0.000100646 0.0
4.90529 -0.00100565 0.0
5.05021 -0.0129833 0.0
5.11701 -0.0441981 0.0
4.65678 -0.0869994 0.0
4.54035 -0.0915686 0.0
4.85981 -0.0254125 0.0
2.86778 0.0200229 0.0
7.2103 1.44785 0.0
4.94472 0.0615802 0.0
5.01944 -0.0640504 0.0
5.00303 0.051059 0.0
4.9234 0.08055 0.0
4.18152 0.0489935 0.0
4.97806 0.052604 0.0
5.57492 -0.372787 0.0
5.05999 0.000699355 0.0
2.71685 0.0619382 0.0
5.03749 0.043958 0.0
1.51572 -0.0133471 0.0
4.98647 0.062657 0.0
4.9519 0.102821 0.0
4.91863 0.0885878 0.0
1.39989 0.0194389 0.0
9.12449 -0.767393 0.0
5.08221 0.015247 0.0
5.02536 0.036694 0.0
4.89158 0.000283565 0.0
5.04871 -0.0182241 0.0
5.04108 0.0704894 0.0
4.94403 0.0916613 0.0
4.98736 0.04495 0.0
5.11125 0.0367738 0.0
4.94627 0.116046 0.0
1.57189 0.0275398 0.0
3.81843 0.0726608 0.0
4.96351 0.0213964 0.0
6.8092 1.35858 0.0
1.47185 -0.0460662 0.0
2.46365 -0.0293331 0.0
8.23627 -1.53154 0.0
5.03643 0.0190042 0.0
5.00308 0.0799202 0.0
3.69545 -0.0360656 0.0
4.9111 -0.0340159 0.0
4.91791 -0.0199948 0.0
4.86899 0.126391 0.0
2.59514 0.0680767 0.0
1.52444 -0.00540242 0.0
5.58773 -0.457301 0.0
4.97225 0.0652237 0.0
5.05195 -0.0464865 0.0
4.97002 0.0798267 0.0
4.46025 -0.0647904 0.0
5.05539 0.093306 0.0
4.89864 0.119911 0.0
4.99001 -0.00872863 0.0
1.4773 0.0100309 0.0
5.09147 0.0683385 0.0
5.01941 -0.00312474 0.0
1.53324 -0.0301941 0.0
5.0216 0.130651 0.0
5.11875 0.0338569 0.0
4.96926 0.113406 0.0
5.10673 -0.00624938 0.0
4.92282 -0.037024 0.0
5.03921 0.00864435 0.0
5.08408 -0.0820845 0.0
5.04384 -0.0562352 0.0
5.12779 0.0329506 0.0
5.07606 -0.0280478 0.0
4.91959 -0.0471119 0.0
1.53336 -0.00964671 0.0
5.03755 -0.0024549 0.0
4.92991 -0.0559307 0.0
1.94307 0.0452908 0.0
5.00302 0.00193274 0.0
2.79728 0.0914738 0.0
5.11469 0.060371 0.0
4.93191 -0.0475196 0.0
4.96615 0.115871 0.0
5.06255 -0.0506279 0.0
5.05496 -0.0196842 0.0
4.95419 0.107734 0.0
4.07152 0.159093 0.0
5.12641 -0.0186089 0.0
5.04132 0.00456068 0.0
5.12377 0.0688062 0.0
1.42689 -0.017463 0.0
4.94571 0.0934383 0.0
5.12725 -0.00118561 0.0
5.06686 -0.0574927 0.0
1.96477 -0.193187 0.0
4.88035 0.105369 0.0
1.94794 0.123006 0.0
4.97712 -0.0666328 0.0
5.04415 -0.00751641 0.0
4.88272 0.118671 0.0
4.87692 -0.0269723 0.0
4.94142 -0.0607939 0.0
4.95175 0.150657 0.0
4.98731 -0.0207616 0.0
8.72295 -1.2509 0.0
5.05748 -0.0242407 0.0
4.98374 0.0239393 0.0
4.9785 0.109152 0.0
4.97056 0.0930601 0.0
4.97863 0.119978 0.0
4.94187 -0.0533416 0.0
4.99935 0.121677 0.0
5.03298 -0.0608058 0.0
5.03698 0.0995846 0.0
4.90246 -0.00672711 0.0
5.05363 -0.0461617 0.0
4.1136 0.185366 0.0
4.93517 0.0846654 0.0
5.0219 0.126856 0.0
5.05843 -0.0201728 0.0
5.01139 0.0988064 0.0
4.95456 -0.0532154 0.0
4.95871 -0.0572643 0.0
1.6201 0.0373755 0.0
5.02564 -0.0292893 0.0
4.88449 0.115059 0.0
5.04857 0.119406 0.0
4.78972 0.0683695 0.0
2.78474 0.109154 0.0
4.99836 -0.0450675 0.0
5.05215 0.075827 0.0
5.12816 0.00451289 0.0
4.85189 -0.0468604 0.0
4.97723 -0.0376478 0.0
5.08899 0.0362954 0.0
4.97102 -0.0428113 0.0
5.0775 -0.0431397 0.0
4.79716 0.145369 0.0
4.97809 -0.00805096 0.0
5.08131 0.126473 0.0
5.00739 0.0590772 0.0
3.98492 -0.0283389 0.0
4.99377 -0.0264725 0.0
4.88909 -0.078646 0.0
1.6752 0.072318 0.0
2.56584 0.148524 0.0
4.98306 -0.0202279 0.0
5.03592 0.141615 0.0
4.90521 -0.0684189 0.0
4.98432 -0.00720755 0.0
5.08265 0.0701237 0.0
4.88419 -0.0451911 0.0
4.97166 -0.0394841 0.0
4.9755 0.0236608 0.0
4.79872 -0.0573259 0.0
4.8606 -0.0439857 0.0
5.10909 0.0969161 0.0
4.79919 -0.0498263 0.0
5.25959 0.134843 0.0
4.91728 -0.0783806 0.0
4.93172 -0.0492076 0.0
4.8705 -0.0575344 0.0
4.80625 -0.0683178 0.0
4.97139 0.107313 0.0
4.98262 0.00710679 0.0
2.06606 0.092982 0.0
2.90009 0.139519 0.0
5.11393 0.0164961 0.0
5.10094 -0.0162704 0.0
5.04824 0.155686 0.0
4.96523 0.0324124 0.0
4.96265 -0.04825 0.0
4.99596 0.112097 0.0
4.94832 0.047162 0.0
4.98344 0.091189 0.0
5.01374 -0.0197205 0.0
4.81071 -0.0817775 0.0
4.90623 -0.0953957 0.0
4.99868 -0.0543177 0.0
4.96762 0.0308503 0.0
5.15077 0.0924056 0.0
4.97105 -0.0173128 0.0
4.88005 -0.0692302 0.0
8.51453 0.838746 0.0
4.75037 -0.0683721 0.0
4.88895 -0.082952 0.0
4.8122 -0.105468 0.0
5.0393 0.0228425 0.0
4.90444 0.0508175 0.0
4.9366 0.0414374 0.0
4.94119 -0.076998 0.0
4.74931 -0.0603803 0.0
4.9582 0.0171525 0.0
5.08422 0.150134 0.0
4.83236 -0.1308 0.0
4.9406 -0.0771692 0.0
4.86127 0.024718 0.0
4.44467 0.128494 0.0
4.95105 0.0925595 0.0
4.87739 -0.10417 0.0
4.0867 0.0828858 0.0
4.75362 -0.0797599 0.0
4.89815 0.0290228 0.0
4.90195 -0.0313523 0.0
4.96075 -0.0328871 0.0
4.7709 -0.0648425 0.0
1.50611 -0.0338616 0.0
2.47602 -0.0602165 0.0
4.3503 0.208404 0.0
4.90372 -0.0459408 0.0
4.97718 -0.00871873 0.0
4.83254 -0.017244 0.0
4.86762 -0.0040984 0.0
4.89402 0.0321546 0.0
2.82837 0.101775 0.0
5.18673 0.140687 0.0
2.49325 -0.0617924 0.0
5.15667 0.0324396 0.0
4.83679 -0.0590334 0.0
4.74995 -0.0998934 0.0
4.92745 0.0647053 0.0
4.74512 -0.137629 0.0
5.18618 -0.00611413 0.0
4.86222 0.0775049 0.0
1.53361 -0.0306831 0.0
2.47554 -0.0584968 0.0
4.96711 -0.0496696 0.0
1.70465 0.0609184 0.0
4.8523 -0.0470803 0.0
4.79461 -0.142474 0.0
4.83678 -0.0673401 0.0
4.93177 0.057468 0.0
4.88836 0.00351379 0.0
5.26596 0.0158514 0.0
4.79716 0.052333 0.0
4.75886 -0.0025344 0.0
2.48166 -0.0530295 0.0
1.58649 -0.032785 0.0
3.95529 0.168998 0.0
4.83457 0.0169164 0.0
4.86861 0.0882013 0.0
4.89459 -0.0576315 0.0
4.79034 0.0923666 0.0
4.9986 0.0135409 0.0
3.99812 0.19132 0.0
4.715 0.0377772 0.0
4.87898 -0.0802047 0.0
4.77071 -0.0440689 0.0
2.61224 0.0917098 0.0
1.47229 -0.0149603 0.0
1.26821 -0.0399004 0.0
1.52562 -0.0323315 0.0
2.5232 -0.0167543 0.0
2.73173 0.101536 0.0
1.3929 -0.00527654 0.0
1.55965 0.00880547 0.0
2.47103 -0.0662163 0.0
1.48924 -0.0322385 0.0
1.57989 -0.018984 0.0
1.71471 0.0596005 0.0
2.56478 -0.0636729 0.0
1.64203 0.051973 0.0
2.4289 -0.023949 0.0
1.59723 0.0497721 0.0
2.57571 -0.0312975 0.0
2.5356 0.0403731 0.0
1.50774 0.0888812 0.0
2.82663 0.0767527 0.0
2.46885 -0.0609498 0.0
2.41534 -0.0388078 0.0
1.53392 0.113535 0.0
2.42733 -0.0210636 0.0
2.54669 0.143365 0.0
1.49569 0.0296499 0.0
2.46897 -0.0434968 0.0
1.61464 0.037129 0.0
1.50536 0.069978 0.0
2.36716 -0.0658287 0.0
1.54847 0.073928 0.0
1.92014 0.0496312 0.0
1.58165 0.124386 0.0
1.41271 0.0742973 0.0
1.4675 -0.0139493 0.0
2.51248 0.0130195 0.0
1.51839 -0.038279 0.0
1.53881 -0.029352 0.0
1.58267 0.0692615 0.0
1.60794 0.0438979 0.0
1.56513 0.0314402 0.0
1.50942 0.0272993 0.0
1.33181 -0.0345698 0.0
1.49117 -0.0117364 0.0
1.83055 0.00348169 0.0
2.69642 -0.00114397 0.0
1.63237 0.0287084 0.0
1.91411 0.0585796 0.0
2.45236 0.134566 0.0
2.30749 -0.0802645 0.0
1.4874 -0.038979 0.0
1.5886 0.0873321 0.0
1.53468 0.0256422 0.0
2.5368 0.0686236 0.0
1.41541 0.0748703 0.0
1.59024 0.0486626 0.0
1.47168 -0.0263395 0.0
2.54006 0.117679 0.0
1.76072 -0.0526438 0.0
1.33744 0.021769 0.0
1.51154 0.0212228 0.0
1.27292 0.0418722 0.0
1.6464 0.0508082 0.0
1.6157 -0.00904023 0.0
2.29944 -0.037827 0.0
1.17222 -0.00979481 0.0
2.50066 0.143444 0.0
2.61935 0.0833471 0.0
5.0107 -0.0497799 0.0
4.90824 -0.0687848 0.0
4.97034 -0.0255191 0.0
4.71435 -0.0214562 0.0
5.00109 -0.106577 0.0
5.11122 -0.0461125 0.0