# vtk DataFile Version 3.0
Malha 2D com triângulos e temperatura
ASCII
DATASET UNSTRUCTURED_GRID

POINTS 1194 double
0 0 0
5 0 0
5 1 0
0 1 0
0.85 0.5 0
0.842388 0.538268 0
0.820711 0.570711 0
0.788268 0.592388 0
0.75 0.6 0
0.711732 0.592388 0
0.679289 0.570711 0
0.657612 0.538268 0
0.65 0.5 0
0.657612 0.461732 0
0.679289 0.429289 0
0.711732 0.407612 0
0.75 0.4 0
0.788268 0.407612 0
0.820711 0.429289 0
0.842388 0.461732 0
0.0793651 0 0
0.15873 0 0
0.238095 0 0
0.31746 0 0
0.396825 0 0
0.47619 0 0
0.555556 0 0
0.634921 0 0
0.714286 0 0
0.793651 0 0
0.873016 0 0
0.952381 0 0
1.03175 0 0
1.11111 0 0
1.19048 0 0
1.26984 0 0
1.34921 0 0
1.42857 0 0
1.50794 0 0
1.5873 0 0
1.66667 0 0
1.74603 0 0
1.8254 0 0
1.90476 0 0
1.98413 0 0
2.06349 0 0
2.14286 0 0
2.22222 0 0
2.30159 0 0
2.38095 0 0
2.46032 0 0
2.53968 0 0
2.61905 0 0
2.69841 0 0
2.77778 0 0
2.85714 0 0
2.93651 0 0
3.01587 0 0
3.09524 0 0
3.1746 0 0
3.25397 0 0
3.33333 0 0
3.4127 0 0
3.49206 0 0
3.57143 0 0
3.65079 0 0
3.73016 0 0
3.80952 0 0
3.88889 0 0
3.96825 0 0
4.04762 0 0
4.12698 0 0
4.20635 0 0
4.28571 0 0
4.36508 0 0
4.44444 0 0
4.52381 0 0
4.60317 0 0
4.68254 0 0
4.7619 0 0
4.84127 0 0
4.92063 0 0
5 0.0769231 0
5 0.153846 0
5 0.230769 0
5 0.307692 0
5 0.384615 0
5 0.461538 0
5 0.538462 0
5 0.615385 0
5 0.692308 0
5 0.769231 0
5 0.846154 0
5 0.923077 0
4.92063 1 0
4.84127 1 0
4.7619 1 0
4.68254 1 0
4.60317 1 0
4.52381 1 0
4.44444 1 0
4.36508 1 0
4.28571 1 0
4.20635 1 0
4.12698 1 0
4.04762 1 0
3.96825 1 0
3.88889 1 0
3.80952 1 0
3.73016 1 0
3.65079 1 0
3.57143 1 0
3.49206 1 0
3.4127 1 0
3.33333 1 0
3.25397 1 0
3.1746 1 0
3.09524 1 0
3.01587 1 0
2.93651 1 0
2.85714 1 0
2.77778 1 0
2.69841 1 0
2.61905 1 0
2.53968 1 0
2.46032 1 0
2.38095 1 0
2.30159 1 0
2.22222 1 0
2.14286 1 0
2.06349 1 0
1.98413 1 0
1.90476 1 0
1.8254 1 0
1.74603 1 0
1.66667 1 0
1.5873 1 0
1.50794 1 0
1.42857 1 0
1.34921 1 0
1.26984 1 0
1.19048 1 0
1.11111 1 0
1.03175 1 0
0.952381 1 0
0.873016 1 0
0.793651 1 0
0.714286 1 0
0.634921 1 0
0.555556 1 0
0.47619 1 0
0.396825 1 0
0.31746 1 0
0.238095 1 0
0.15873 1 0
0.0793651 1 0
0 0.923077 0
0 0.846154 0
0 0.769231 0
0 0.692308 0
0 0.615385 0
0 0.538462 0
0 0.461538 0
0 0.384615 0
0 0.307692 0
0 0.230769 0
0 0.153846 0
0 0.0769231 0
0.879698 0.466718 0
1.3085 0.931947 0
1.30532 0.0638546 0
4.93832 0.504275 0
0.620452 0.46964 0
3.99858 0.0669607 0
1.63721 0.934258 0
3.3751 0.0523709 0
4.3254 0.0687322 0
2.42354 0.0642082 0
2.97619 0.0687322 0
2.02101 0.0693621 0
3.68108 0.0581336 0
2.65899 0.932655 0
4.178 0.939994 0
3.21614 0.938179 0
2.25483 0.919987 0
3.53215 0.928998 0
3.84921 0.931268 0
1.69647 0.0674297 0
1.94349 0.930209 0
4.48413 0.931268 0
2.97813 0.942022 0
2.74097 0.0673855 0
0.859645 0.573263 0
0.639718 0.573116 0
0.0651563 0.652836 0
0.0635304 0.346121 0
4.56232 0.0679683 0
0.830393 0.392645 0
0.669618 0.39275 0
1.06185 0.0668897 0
0.440193 0.0680031 0
1.06474 0.93511 0
0.446074 0.935974 0
0.724697 0.630698 0
4.72268 0.931235 0
4.93065 0.267192 0
0.589836 0.936152 0
0.92338 0.0562425 0
0.590207 0.0623339 0
0.755872 0.0732784 0
0.838039 0.936714 0
4.92573 0.732039 0
0.281717 0.93783 0
0.28208 0.0811877 0
0.065248 0.503161 0
1.46076 0.0637037 0
4.72574 0.0661877 0
4.31028 0.937908 0
3.21429 0.0687322 0
1.46639 0.932632 0
3.6897 0.928155 0
2.42063 0.931268 0
3.5364 0.0691789 0
2.25998 0.0676208 0
1.78735 0.937047 0
4.01535 0.920637 0
1.85469 0.0674188 0
3.83991 0.0626292 0
3.37477 0.929368 0
2.58225 0.0657863 0
2.81746 0.932342 0
4.16667 0.0687322 0
2.11402 0.935574 0
0.0614266 0.197046 0
0.0612841 0.803003 0
4.88273 0.0644126 0
4.87774 0.933272 0
0.859645 0.426737 0
0.903081 0.436592 0
0.923672 0.473385 0
0.948706 0.439078 0
0.969155 0.479795 0
0.996593 0.439791 0
1.0202 0.484937 0
1.04667 0.440138 0
1.07382 0.489694 0
1.1034 0.440801 0
1.13169 0.49612 0
1.16603 0.445058 0
1.1931 0.504331 0
1.22956 0.450883 0
1.25923 0.506004 0
1.29683 0.453139 0
1.32923 0.510343 0
1.36603 0.454344 0
1.03276 0.530395 0
1.40063 0.516169 0
1.43576 0.454934 0
1.47042 0.520776 0
1.51069 0.46142 0
1.54422 0.526371 0
1.58547 0.465572 0
1.61942 0.531773 0
1.66033 0.468788 0
1.69546 0.536793 0
1.73713 0.472812 0
1.77239 0.541977 0
1.81532 0.478494 0
1.85006 0.547285 0
1.89327 0.483449 0
1.92802 0.55361 0
1.97142 0.488546 0
2.00623 0.558966 0
2.04984 0.493518 0
2.08483 0.564085 0
2.12847 0.498462 0
2.16353 0.569137 0
2.20719 0.503331 0
0.961579 0.391697 0
1.22451 0.565337 0
2.24238 0.574192 0
2.28611 0.508258 0
2.32134 0.579247 0
2.36519 0.513325 0
2.40036 0.584295 0
2.44425 0.51834 0
2.47944 0.589336 0
2.52334 0.523355 0
2.55853 0.594372 0
2.60245 0.52837 0
2.63764 0.599431 0
2.68159 0.533388 0
2.64637 0.462336 0
2.72553 0.467349 0
2.76076 0.538418 0
2.8047 0.47237 0
2.83993 0.543451 0
2.88387 0.477399 0
2.91911 0.548482 0
2.96305 0.482427 0
2.9983 0.553514 0
3.04224 0.487456 0
3.07749 0.558545 0
3.12143 0.492477 0
3.15668 0.563574 0
3.20063 0.497514 0
3.23588 0.568605 0
3.27983 0.502542 0
3.31508 0.573635 0
3.35903 0.507562 0
3.39428 0.578663 0
3.43823 0.5126 0
3.47348 0.583694 0
3.51744 0.517628 0
3.55268 0.588724 0
3.59664 0.522646 0
3.63189 0.593752 0
3.67585 0.527673 0
3.71109 0.598781 0
3.75505 0.532702 0
3.7903 0.60381 0
3.83426 0.537731 0
3.79901 0.466623 0
3.87821 0.471754 0
3.91346 0.542777 0
3.95742 0.476701 0
3.99267 0.547795 0
4.03662 0.481715 0
4.07187 0.552815 0
4.11582 0.486743 0
4.15106 0.55783 0
4.195 0.491782 0
4.23023 0.562843 0
4.27415 0.49682 0
4.30937 0.567866 0
4.35325 0.501915 0
4.38842 0.572845 0
4.43227 0.506997 0
4.46737 0.577575 0
4.51106 0.511995 0
4.54622 0.582183 0
1.13571 0.390292 0
4.47606 0.441361 0
4.55475 0.446396 0
2.32985 0.442214 0
3.5614 0.451571 0
3.08619 0.421408 0
2.09339 0.427815 0
1.42887 0.583001 0
2.84864 0.406329 0
3.32378 0.43649 0
4.23911 0.425894 0
1.54723 0.39251 0
1.77883 0.406811 0
1.33959 0.387065 0
3.92239 0.405803 0
4.08079 0.415776 0
2.48812 0.452349 0
1.57935 0.603183 0
1.93602 0.417543 0
1.72453 0.617973 0
3.11273 0.629643 0
2.69029 0.396284 0
3.94662 0.623383 0
1.88466 0.613248 0
2.79598 0.609502 0
4.10826 0.620575 0
2.04005 0.62838 0
2.95434 0.619575 0
4.51981 0.375801 0
4.59833 0.380943 0
4.63314 0.451296 0
4.26693 0.63114 0
2.19619 0.645921 0
4.4246 0.642296 0
3.27112 0.639707 0
2.35729 0.649822 0
2.51462 0.660373 0
3.42952 0.649769 0
4.67669 0.38601 0
3.58793 0.659829 0
3.74634 0.669888 0
4.64195 0.315733 0
4.44109 0.370647 0
4.48493 0.305066 0
4.40614 0.29989 0
4.71136 0.456133 0
4.72014 0.320758 0
0.8692 0.382093 0
0.841252 0.348256 0
0.886481 0.338703 0
0.853127 0.301457 0
0.902583 0.287335 0
0.801683 0.321689 0
0.818113 0.263019 0
0.764765 0.277091 0
4.44702 0.235678 0
0.946267 0.520761 0
0.78107 0.221265 0
0.726309 0.234724 0
0.848273 0.20551 0
4.68545 0.250576 0
4.37074 0.227561 0
4.76365 0.255792 0
4.79822 0.326145 0
0.713664 0.287231 0
0.672358 0.247957 0
0.68673 0.192342 0
0.630368 0.2085 0
0.616569 0.265341 0
0.574186 0.225456 0
0.557393 0.28131 0
0.52004 0.242373 0
0.504416 0.299685 0
0.462273 0.252096 0
0.44798 0.316739 0
0.404567 0.276951 0
0.390546 0.335414 0
0.434669 0.37657 0
0.377935 0.394545 0
0.421979 0.43426 0
0.365682 0.452846 0
0.409646 0.492216 0
0.353389 0.51089 0
0.397738 0.551598 0
0.339864 0.570301 0
0.385899 0.612153 0
0.325913 0.631557 0
0.344507 0.29318 0
0.320568 0.413067 0
0.373553 0.673852 0
0.434438 0.653082 0
0.311416 0.69481 0
0.449777 0.528305 0
0.293513 0.534612 0
0.421431 0.715204 0
0.480917 0.696603 0
0.54504 0.34471 0
0.262743 0.649913 0
0.246209 0.712341 0
0.468564 0.755948 0
0.526091 0.735423 0
0.538207 0.68039 0
0.581228 0.716342 0
0.408756 0.777952 0
0.36234 0.239019 0
0.297047 0.251925 0
0.572109 0.771575 0
0.624906 0.752173 0
0.474824 0.414151 0
0.534351 0.182707 0
0.633682 0.70159 0
0.674547 0.736174 0
0.66826 0.788959 0
0.721117 0.76834 0
0.714515 0.825486 0
0.769074 0.802008 0
0.775287 0.746591 0
0.821903 0.778625 0
0.826767 0.726064 0
0.873257 0.756032 0
0.872997 0.697261 0
0.92331 0.732304 0
0.930014 0.67838 0
0.976061 0.710612 0
0.92456 0.784469 0
0.982178 0.654421 0
1.03016 0.688004 0
1.02037 0.747059 0
1.08 0.723819 0
1.08651 0.661896 0
1.1397 0.698204 0
1.13262 0.763657 0
1.19424 0.736545 0
1.18556 0.80161 0
1.24839 0.771772 0
1.25723 0.706382 0
1.31432 0.745787 0
4.66801 0.521361 0
4.74602 0.526202 0
4.70285 0.591278 0
4.78076 0.596023 0
4.73763 0.661207 0
4.78904 0.460969 0
2.61113 0.391267 0
2.65506 0.325217 0
2.57588 0.320198 0
2.61982 0.254148 0
2.69899 0.259163 0
2.54065 0.249131 0
2.49672 0.315179 0
2.46148 0.244124 0
2.41757 0.310166 0
2.38233 0.239117 0
2.33843 0.30514 0
2.30297 0.237979 0
2.25928 0.300748 0
2.22079 0.221377 0
2.17969 0.293884 0
2.14114 0.224266 0
2.10047 0.289841 0
2.0653 0.219144 0
2.02202 0.284919 0
1.98701 0.214164 0
1.94336 0.279863 0
3.82315 0.673327 0
3.78135 0.738156 0
3.86451 0.735958 0
3.70234 0.735494 0
4.52513 0.244409 0
4.32717 0.294467 0
4.29217 0.221862 0
0.619934 0.539507 0
0.599432 0.577132 0
0.575955 0.542712 0
0.554504 0.58245 0
4.65962 0.656481 0
4.69438 0.726169 0
4.6161 0.721747 0
4.77259 0.731352 0
4.65076 0.791486 0
4.57153 0.788793 0
4.2482 0.289182 0
4.21307 0.218308 0
4.1691 0.284563 0
4.13394 0.21352 0
0.835918 0.606341 0
0.806475 0.6384 0
4.08995 0.279537 0
0.640355 0.426737 0
0.596214 0.435837 0
0.630358 0.379178 0
0.689967 0.627735 0
1.90832 0.209948 0
1.86468 0.27519 0
1.82968 0.20518 0
1.78607 0.269797 0
0.281841 0.313314 0
0.232117 0.268621 0
0.216861 0.334396 0
4.05473 0.209347 0
4.01077 0.2745 0
3.97554 0.204394 0
3.93159 0.269388 0
0.297409 0.759367 0
0.231645 0.782943 0
0.180008 0.73598 0
1.32151 0.676369 0
1.38055 0.718092 0
1.36901 0.793947 0
1.43945 0.766002 0
0.249902 0.198865 0
0.932364 0.624392 0
1.75117 0.201034 0
1.70771 0.264658 0
1.673 0.195402 0
1.62985 0.260294 0
1.59532 0.191927 0
1.55236 0.254233 0
3.89629 0.200227 0
3.85238 0.264494 0
3.81708 0.195303 0
3.77304 0.259453 0
2.66368 0.189084 0
2.74279 0.19534 0
2.77814 0.264556 0
2.82201 0.199823 0
2.85733 0.269552 0
2.90126 0.203886 0
2.93654 0.274416 0
2.98045 0.20868 0
3.01573 0.279376 0
3.0597 0.213193 0
[...]
CELL_DATA 2220
VECTORS velocity double
20.995 -1.79372 0.0
15.4275 0.466944 0.0
23.6542 5.99825 0.0
23.4472 1.12953 0.0
21.3939 -2.14001 0.0
27.3897 -1.15092 0.0
13.0276 0.447636 0.0
14.4897 -0.0193057 0.0
26.1315 11.0916 0.0
26.9233 -0.791103 0.0
16.9665 16.6179 0.0
13.8036 0.263961 0.0
11.0078 0.194109 0.0
22.9023 -6.51874 0.0
21.5471 15.555 0.0
17.7765 11.1074 0.0
14.989 0.662444 0.0
12.1149 0.554703 0.0
13.641 -0.128549 0.0
14.7585 -0.111133 0.0
20.019 4.56417 0.0
38.794 -6.19015 0.0
14.0659 0.620804 0.0
14.3052 0.536869 0.0
25.5202 -1.06421 0.0
21.0138 -5.42076 0.0
20.7031 -2.26992 0.0
12.2849 0.524218 0.0
23.1411 1.19762 0.0
26.0595 1.14132 0.0
20.4583 -3.20609 0.0
31.2672 0.128559 0.0
10.1616 -0.113646 0.0
29.5948 -12.7233 0.0
45.6029 1.70493 0.0
27.531 -1.30285 0.0
44.6153 2.55742 0.0
11.8642 -0.118528 0.0
27.2427 1.38532 0.0
26.5645 -1.86037 0.0
12.6156 -1.21813 0.0
26.1667 10.094 0.0
19.6681 0.938967 0.0
13.2311 0.0207567 0.0
11.9409 -0.0355687 0.0
10.7471 0.0230048 0.0
13.8381 0.586425 0.0
10.8905 -0.010451 0.0
26.7151 -0.67834 0.0
28.9047 0.450449 0.0
15.8447 3.59354 0.0
10.8839 0.100064 0.0
13.5391 0.592918 0.0
13.7847 0.11476 0.0
12.5252 0.557529 0.0
26.4211 -2.43777 0.0
33.3664 -0.410789 0.0
11.4909 0.525229 0.0
11.8957 0.525964 0.0
29.242 0.341049 0.0
0.0736088 -4.67124 0.0
26.5646 -1.67277 0.0
22.064 -4.28402 0.0
13.8726 0.591291 0.0
13.7194 0.642222 0.0
31.921 -11.3052 0.0
18.4728 -1.12823 0.0
20.1844 10.3821 0.0
11.6391 0.622464 0.0
11.8579 0.556622 0.0
13.6557 0.165346 0.0
31.2908 11.6862 0.0
10.6715 0.157517 0.0
28.1107 0.902361 0.0
29.5876 -1.52408 0.0
45.9512 -0.333185 0.0
24.3686 4.28635 0.0
16.0607 -3.39424 0.0
24.415 9.94423 0.0
12.9573 0.114419 0.0
21.8706 2.73961 0.0
27.1177 2.71615 0.0
13.9994 -0.246898 0.0
10.6537 0.105325 0.0
13.3928 0.441356 0.0
13.3396 0.237893 0.0
19.1219 -2.16758 0.0
11.1354 0.205756 0.0
11.3308 0.35744 0.0
26.9622 11.4266 0.0
24.2314 -3.74588 0.0
16.4869 4.30776 0.0
13.7718 -0.160601 0.0
23.1113 5.91315 0.0
45.1839 0.112038 0.0
26.4541 1.99854 0.0
40.2546 4.88585 0.0
3.79328 -18.0669 0.0
0.806589 -3.62632 0.0
27.3691 13.4358 0.0
-5.90442 -18.2733 0.0
19.3899 -4.30969 0.0
13.6532 0.536606 0.0
11.5837 1.05661 0.0
40.1692 -5.79967 0.0
45.6572 -1.0275 0.0
27.9904 -0.959722 0.0
28.7643 -1.29014 0.0
4.01671 -0.0876343 0.0
13.7906 1.12168 0.0
29.6076 1.03215 0.0
25.7882 -8.09391 0.0
27.8124 -0.789087 0.0
10.4082 -0.588085 0.0
27.8639 -2.40012 0.0
11.6071 0.469472 0.0
21.5901 -5.31734 0.0
17.4882 -0.438102 0.0
2.50553 -20.7074 0.0
28.0908 10.557 0.0
15.4392 -2.73127 0.0
35.733 -0.661098 0.0
13.0182 3.20835 0.0
33.5255 -8.62884 0.0
46.2218 0.849944 0.0
12.0055 -11.5876 0.0
45.0575 -1.61437 0.0
22.286 1.05516 0.0
24.7491 -7.67846 0.0
-2.00691 9.09481 0.0
11.3497 1.25494 0.0
34.1171 4.52297 0.0
27.5845 5.83682 0.0
13.5217 5.86239 0.0
26.7348 1.46594 0.0
11.0975 6.10487 0.0
9.91699 -0.00165497 0.0
17.449 -3.55127 0.0
14.7537 -12.5774 0.0
32.4196 0.521114 0.0
19.3794 -4.59074 0.0
13.0178 -0.0290135 0.0
27.3429 -3.04993 0.0
45.7367 0.492535 0.0
27.5611 0.851259 0.0
20.8805 5.19109 0.0
-9.44803 9.10581 0.0
7.32719 -18.7029 0.0
28.0634 2.40019 0.0
28.5026 -1.84273 0.0
11.5662 -0.291804 0.0
27.6743 9.43752 0.0
36.3157 -0.0156008 0.0
30.0239 -10.7834 0.0
6.43526 4.90917 0.0
14.7782 0.220172 0.0
21.1751 -1.38911 0.0
15.3514 0.36823 0.0
10.1811 -0.816141 0.0
14.7854 -3.49804 0.0
31.8503 8.44712 0.0
11.6959 0.0389529 0.0
-9.79363 -9.34602 0.0
31.3406 0.131026 0.0
10.5893 0.0931195 0.0
30.5174 -12.2394 0.0
21.4753 -14.5038 0.0
46.5546 0.394718 0.0
14.6701 0.158247 0.0
24.3402 10.8828 0.0
-4.36948 15.2159 0.0
10.4014 0.0398591 0.0
13.547 0.0817482 0.0
-2.66005 -9.40455 0.0
6.91798 -5.13089 0.0
24.3394 8.99557 0.0
22.7338 4.22242 0.0
22.6421 8.30599 0.0
8.07964 -1.73693 0.0
14.5632 0.0680157 0.0
35.1091 -0.27843 0.0
15.6549 -3.62576 0.0
17.1063 -15.6771 0.0
3.33549 14.6376 0.0
14.7967 -0.0100378 0.0
24.1624 -1.75128 0.0
45.3962 0.123749 0.0
11.8294 -0.251852 0.0
41.9719 3.8083 0.0
46.4981 0.237737 0.0
12.2106 -0.98287 0.0
11.5851 -0.186717 0.0
26.2377 -8.93743 0.0
28.257 2.00603 0.0
21.3162 -0.441966 0.0
45.2682 -0.278797 0.0
19.8685 0.681404 0.0
13.3565 -0.395017 0.0
6.11923 -0.306311 0.0
13.6986 -0.450833 0.0
12.706 -3.84569 0.0
18.2489 -0.687786 0.0
34.3289 -10.1125 0.0
13.8408 -0.079246 0.0
12.849 1.40353 0.0
18.5885 -3.34401 0.0
20.8642 -4.12335 0.0
12.749 0.038392 0.0
19.7087 1.0147 0.0
7.44804 -1.30642 0.0
13.5617 0.577867 0.0
11.1798 18.601 0.0
19.2618 -0.176499 0.0
23.2374 10.7268 0.0
25.0208 5.40419 0.0
14.4501 1.57443 0.0
11.4422 0.533539 0.0
13.5819 0.749745 0.0
9.0501 1.83483 0.0
30.1334 0.892558 0.0
27.4684 0.530831 0.0
6.57037 -0.170035 0.0
11.394 0.698874 0.0
6.24553 -0.0552926 0.0
13.7356 -0.0552708 0.0
16.3244 -0.836639 0.0
13.2238 -2.48341 0.0
20.2659 15.9951 0.0
25.0361 -5.5069 0.0
10.9821 0.346568 0.0
17.1442 0.967798 0.0
18.4031 -1.43733 0.0
9.39332 -0.0461251 0.0
14.0905 -0.128089 0.0
11.3151 -0.245277 0.0
46.1959 0.124064 0.0
5.55127 -7.18918 0.0
13.6401 -0.190527 0.0
13.5217 -0.216327 0.0
11.9927 -0.0640438 0.0
45.1101 -0.158265 0.0
35.4444 9.28096 0.0
42.3223 -3.92631 0.0
6.97881 0.00401058 0.0
12.5539 5.10984 0.0
28.5335 0.00331229 0.0
14.8243 -0.181648 0.0
32.1989 -0.737288 0.0
4.95373 5.96185 0.0
20.0549 0.600944 0.0
10.989 -5.36346 0.0
6.99307 -0.0508761 0.0
19.7355 -14.0516 0.0
26.9204 -0.150307 0.0
23.7182 -6.56579 0.0
13.376 0.320917 0.0
-9.76675 1.67395 0.0
27.7954 0.189093 0.0
21.0895 -0.0867736 0.0
45.5478 0.205738 0.0
15.3167 -0.267267 0.0
37.111 -0.422294 0.0
10.9122 0.545156 0.0
17.708 -4.43462 0.0
6.79699 -0.583696 0.0
7.84394 -0.0641895 0.0
12.5661 -0.658959 0.0
11.1115 -4.76424 0.0
17.4521 4.49655 0.0
28.8049 -0.0578194 0.0
25.3532 0.987903 0.0
26.6854 0.0307049 0.0
11.2217 0.26225 0.0
26.5611 -1.74813 0.0
3.1708 -11.6522 0.0
43.7051 -2.5175 0.0
21.0902 -14.2938 0.0
15.9778 -2.49589 0.0
13.1677 2.99546 0.0
13.318 0.0763116 0.0
9.75457 -15.0329 0.0
24.7507 -0.036335 0.0
43.673 -0.558698 0.0
18.842 0.713126 0.0
26.3866 -1.53617 0.0
17.2454 -0.484584 0.0
34.6143 -0.257416 0.0
18.255 0.635372 0.0
11.6911 -0.158633 0.0
11.259 -0.184575 0.0
-9.76316 -2.12978 0.0
12.877 -1.18883 0.0
7.87165 1.68882 0.0
14.4022 -4.32179 0.0
15.0732 -1.63409 0.0
17.7086 -0.18988 0.0
17.9748 -0.165759 0.0
21.1026 0.333922 0.0
41.6312 -3.77594 0.0
25.9275 5.17929 0.0
10.229 -0.687521 0.0
25.1771 8.25091 0.0
23.9528 -6.88257 0.0
7.39098 0.0595069 0.0
18.9365 -12.2464 0.0
14.3836 0.63937 0.0
10.9266 -0.0793598 0.0
11.4166 -0.195797 0.0
15.9657 0.284007 0.0
7.08872 1.31063 0.0
11.0843 1.86109 0.0
8.60811 2.83763 0.0
3.84563 18.18 0.0
43.4266 -1.43615 0.0
31.1509 11.7718 0.0
13.2717 -0.202902 0.0
23.1308 6.95271 0.0
11.432 -7.66504e-05 0.0
45.8352 -0.236858 0.0
26.0968 5.74543 0.0
21.3611 14.3127 0.0
13.0187 3.10659 0.0
27.29 0.219083 0.0
11.6722 0.112487 0.0
8.64686 4.4734 0.0
9.72486 -1.75864 0.0
26.6913 0.0930171 0.0
26.1768 1.09935 0.0
28.0035 0.539412 0.0
8.89284 -1.84094 0.0
20.3725 -11.0307 0.0
45.0879 1.07287 0.0
17.856 -3.88701 0.0
10.828 -0.479913 0.0
31.0589 -10.6293 0.0
45.2082 -0.397092 0.0
24.1336 -0.841568 0.0
25.543 8.21072 0.0
35.6052 -1.02324 0.0
13.4242 -0.219357 0.0
7.07911 0.873166 0.0
11.9361 -0.218359 0.0
6.44043 -0.130417 0.0
5.55265 -0.815859 0.0
18.8465 15.888 0.0
25.6949 9.66592 0.0
7.94327 2.77361 0.0
25.5647 6.7266 0.0
26.8787 3.92677 0.0
4.7178 -0.927851 0.0
34.0138 -8.21101 0.0
4.18289 0.799701 0.0
6.40954 0.185467 0.0
14.3004 10.458 0.0
6.55413 0.850787 0.0
46.4096 -0.0103746 0.0
34.5282 -9.27522 0.0
3.75502 -0.360873 0.0
26.0965 0.744972 0.0
30.3781 -0.976536 0.0
25.9911 4.08381 0.0
6.77579 18.7003 0.0
21.2972 6.0605 0.0
25.7331 5.30074 0.0
5.94328 0.25868 0.0
29.1633 0.70813 0.0
39.6458 6.52277 0.0
4.2623 -0.850894 0.0
6.2622 -0.210448 0.0
37.2658 -0.838942 0.0
4.36809 0.893783 0.0
40.7377 -4.68405 0.0
34.115 9.7734 0.0
14.8649 -0.75296 0.0
6.07792 -0.0584659 0.0
12.8672 0.391507 0.0
18.9304 0.367602 0.0
19.147 0.115077 0.0
45.8857 -0.00574305 0.0
17.8377 -0.122696 0.0
12.5091 0.625457 0.0
44.4262 0.123178 0.0
46.13 -0.111477 0.0
27.8978 0.322012 0.0
42.771 0.514749 0.0
26.2654 -0.117397 0.0
40.1815 -5.19253 0.0
27.2854 0.163908 0.0
21.9589 -6.07245 0.0
26.3085 3.06876 0.0
10.3246 0.629297 0.0
25.2831 0.0415306 0.0
29.9748 -0.611072 0.0
22.2328 -5.96523 0.0
8.99613 -0.701 0.0
12.5642 -1.94718 0.0
45.2722 0.201115 0.0
8.6529 0.548039 0.0
27.3196 0.155718 0.0
44.2044 0.474906 0.0
7.19735 0.2141 0.0
24.7777 3.9586 0.0
25.2632 4.64262 0.0
27.7537 0.102116 0.0
38.8198 7.25616 0.0
42.611 4.39195 0.0
5.25039 2.61051 0.0
6.78214 1.04886 0.0
21.3671 1.15267 0.0
27.5237 -12.1846 0.0
14.3388 -14.1305 0.0
5.33549 0.869042 0.0
41.9739 0.0366542 0.0
24.8665 -5.70757 0.0
44.4824 -0.454372 0.0
27.7521 0.118527 0.0
4.05257 -0.129962 0.0
3.90861 0.738726 0.0
26.0244 9.04741 0.0
6.20374 0.11006 0.0
25.7742 6.66348 0.0
42.2943 0.713425 0.0
4.18424 0.00149506 0.0
6.22468 -0.0378699 0.0
25.425 3.56762 0.0
25.2042 0.372141 0.0
3.95636 0.138033 0.0
22.5212 -0.126244 0.0
27.3879 0.170982 0.0
7.11829 -1.02774 0.0
27.7867 0.11551 0.0
23.5657 3.46104 0.0
43.8216 -0.704918 0.0
26.4384 2.28126 0.0
6.68911 -0.491232 0.0
40.5069 5.36208 0.0
5.2281 -0.927516 0.0
6.52106 0.364617 0.0
18.8172 -9.74102 0.0
6.42116 0.375757 0.0
23.5945 4.44305 0.0
25.6806 2.69858 0.0
39.8692 4.57756 0.0
43.4314 3.0784 0.0
10.5641 -0.86146 0.0
18.0806 3.43081 0.0
44.3444 0.445654 0.0
3.84369 -0.473399 0.0
3.51156 0.4752 0.0
11.6884 -1.05075 0.0
10.1768 0.787892 0.0
27.4473 -0.580046 0.0
7.16589 -0.337043 0.0
23.5618 0.623915 0.0
27.6528 1.35972 0.0
6.47795 0.706353 0.0
12.2279 0.578804 0.0
25.1577 5.9157 0.0
6.90131 0.30533 0.0
26.2819 1.62006 0.0
23.5544 2.65825 0.0
25.9759 0.362092 0.0
6.22775 -0.40808 0.0
4.83345 0.289829 0.0
7.84635 0.594112 0.0
19.3024 -0.348072 0.0
9.3042 -1.0829 0.0
27.8637 0.137641 0.0
4.05693 0.0762475 0.0
42.4933 2.29602 0.0
7.10914 -0.412593 0.0
3.49828 0.561908 0.0
14.9814 -1.16392 0.0
25.2663 7.33146 0.0
6.90036 -0.802258 0.0
25.9926 0.28508 0.0
25.4775 1.99848 0.0
23.1578 4.26181 0.0
27.5059 0.185608 0.0
23.4633 2.02355 0.0
14.8771 -2.12167 0.0
32.3489 -8.93199 0.0
27.1287 -3.44492 0.0
23.3377 1.51001 0.0
6.50541 -0.53932 0.0
6.94053 0.562408 0.0
44.4162 -0.119147 0.0
3.3301 0.323348 0.0
34.1673 -0.623042 0.0
15.9631 4.26371 0.0
27.635 0.18107 0.0
3.40656 0.392136 0.0
3.93078 -0.595182 0.0
25.4112 1.4302 0.0
25.5732 8.75305 0.0
19.6669 -0.136792 0.0
30.5466 -0.870162 0.0
23.9733 0.0649784 0.0
26.8597 -0.827032 0.0
12.8035 -5.20199 0.0
24.3988 -0.0893416 0.0
22.3579 2.94223 0.0
3.66951 -0.252661 0.0
23.235 1.09864 0.0
19.5568 3.60679 0.0
11.8172 -0.507698 0.0
27.3756 0.334174 0.0
4.30812 -0.322832 0.0
4.7585 0.328952 0.0
22.4287 3.78139 0.0
25.1347 -0.114742 0.0
23.9855 -0.837527 0.0
13.9161 -0.120342 0.0
24.9834 0.943574 0.0
27.9654 0.151878 0.0
25.0273 -4.29223 0.0
4.08281 0.984706 0.0
26.0089 0.512154 0.0
26.9453 -3.93375 0.0
22.1674 1.73408 0.0
22.1676 2.59753 0.0
7.89416 -1.6598 0.0
30.1499 -11.9512 0.0
5.21453 -3.39595 0.0
25.3285 -13.6073 0.0
25.6708 -0.93632 0.0
26.8429 4.36237 0.0
25.5671 1.19537 0.0
4.23072 -0.865408 0.0
23.1754 0.796164 0.0
23.3112 1.55097 0.0
22.048 1.30633 0.0
28.5936 0.0905487 0.0
22.2887 2.26695 0.0
25.2668 0.684581 0.0
25.8855 -0.65673 0.0
24.433 -3.43595 0.0
8.35794 -2.44594 0.0
43.3324 -0.713551 0.0
11.0887 -0.109136 0.0
20.3391 -3.06742 0.0
7.01477 -4.41549 0.0
36.5152 8.04737 0.0
28.1387 0.11386 0.0
2.9158 -0.235224 0.0
2.99106 0.243065 0.0
25.1886 0.489893 0.0
41.6452 0.773662 0.0
23.1742 0.594408 0.0
17.7907 3.48082 0.0
4.1407 -0.182902 0.0
6.77213 -0.271302 0.0
5.40982 0.462314 0.0
2.79565 1.37255 0.0
5.72089 -2.39146 0.0
26.1535 -5.24694 0.0
28.6969 0.0776933 0.0
39.9823 5.90548 0.0
0.995445 0.74122 0.0
20.9815 -0.0474595 0.0
22.3375 -0.0481235 0.0
21.3015 -2.24163 0.0
18.4244 4.04357 0.0
1.10939 -0.710967 0.0
3.00368 -1.24507 0.0
19.1787 0.34007 0.0
20.5434 0.801473 0.0
22.0103 0.966463 0.0
15.9754 -1.87597 0.0
25.134 -0.0601304 0.0
46.2916 -0.268627 0.0
25.9846 -0.0549072 0.0
20.9215 3.13853 0.0
27.8264 0.0946938 0.0
3.87508 -0.236524 0.0
25.311 7.32737 0.0
27.6814 0.298196 0.0
26.0498 0.261648 0.0
27.4063 0.0414006 0.0
23.665 -1.39627 0.0
3.7237 0.164494 0.0
27.7459 -0.0750157 0.0
5.01995 -0.564558 0.0
11.6661 1.29588 0.0
18.4247 -0.216411 0.0
23.1978 0.478323 0.0
21.9875 0.716019 0.0
26.554 0.775303 0.0
27.2962 0.65395 0.0
26.6671 0.916318 0.0
3.27507 0.22503 0.0
6.23642 0.394946 0.0
5.50094 -0.357209 0.0
28.0494 0.134705 0.0
25.2631 0.317517 0.0
43.6079 0.548881 0.0
4.90087 0.662536 0.0
25.3348 0.0765881 0.0
24.4643 1.85239 0.0
10.1283 4.63566 0.0
25.6728 -0.0426403 0.0
2.35921 0.392857 0.0
24.742 -0.077076 0.0
24.0015 -0.486868 0.0
24.9188 -0.47745 0.0
18.9228 -0.224007 0.0
17.4873 -0.214543 0.0
24.4431 -0.117015 0.0
6.64141 -0.713739 0.0
45.1809 -1.20349 0.0
27.7169 -0.0596435 0.0
26.5225 -0.137473 0.0
26.1647 0.264924 0.0
23.2895 0.415881 0.0
13.1885 1.0129e-05 0.0
25.3597 0.304808 0.0
28.0776 -2.39644 0.0
27.8447 0.0461596 0.0
6.65126 0.250667 0.0
22.7983 2.55735 0.0
2.51 -0.358727 0.0
28.0153 0.370385 0.0
28.2245 0.264385 0.0
23.4265 0.390392 0.0
1.82633 0.571619 0.0
29.6241 -10.8782 0.0
28.1554 0.0725421 0.0
27.1618 0.74178 0.0
25.3693 -0.079981 0.0
26.2883 -0.178481 0.0
26.3288 0.2685 0.0
27.9808 0.141653 0.0
27.933 0.199726 0.0
28.0673 0.144331 0.0
23.6438 0.387349 0.0
3.02024 0.204207 0.0
10.2218 0.621881 0.0
27.263 -0.365726 0.0
20.4505 8.79014 0.0
1.94909 -0.531387 0.0
5.87042 -0.230698 0.0
24.4439 -12.1974 0.0
24.4857 1.77304 0.0
25.5287 0.309836 0.0
10.9027 -0.433016 0.0
26.3093 -0.157069 0.0
26.9012 -0.125468 0.0
17.563 4.52919 0.0
5.71452 0.348718 0.0
2.85516 -0.230835 0.0
27.6815 -2.9029 0.0
20.9599 2.7396 0.0
24.71 -1.40562 0.0
28.1688 0.313345 0.0
10.9547 -1.61686 0.0
25.7306 0.298783 0.0
22.0088 0.570046 0.0
27.7996 -0.0463904 0.0
2.72172 0.273492 0.0
26.5169 0.243865 0.0
27.8296 0.000605352 0.0
3.2784 -0.101769 0.0
23.9142 0.36634 0.0
27.7548 0.147244 0.0
28.3338 0.405113 0.0
26.8532 0.0983918 0.0
26.7583 -0.172488 0.0
28.1299 0.0298994 0.0
23.7092 -0.659523 0.0
26.8453 -0.075037 0.0
26.7216 0.177227 0.0
26.3076 0.0595793 0.0
26.1662 -0.197744 0.0
3.09734 -0.147328 0.0
26.9263 0.209343 0.0
26.0425 -0.225549 0.0
4.08819 0.165426 0.0
28.0828 -0.0156296 0.0
6.46392 0.312391 0.0
25.9644 0.235909 0.0
26.6404 -0.207414 0.0
28.3521 0.329171 0.0
27.4123 -0.0528739 0.0
26.9269 0.035974 0.0
28.1598 0.257058 0.0
13.0271 0.18006 0.0
24.5709 0.142679 0.0
23.1328 0.905912 0.0
24.1463 0.272182 0.0
2.95097 -0.0286163 0.0
27.6251 0.159819 0.0
26.1755 0.137551 0.0
21.8344 -2.6815 0.0
3.51487 -0.264343 0.0
22.2365 0.436837 0.0
3.44065 0.189163 0.0
20.8068 -2.60592 0.0
24.0581 1.01996 0.0
22.444 0.419661 0.0
25.1232 -0.127671 0.0
25.9315 -0.233624 0.0
22.7537 0.413476 0.0
26.9835 -0.0610382 0.0
35.2616 9.54588 0.0
20.4828 -2.94407 0.0
26.3394 -0.0418464 0.0
28.2159 0.426497 0.0
28.1433 0.422891 0.0
28.3116 0.311157 0.0
26.5384 -0.225386 0.0
28.4731 0.342075 0.0
23.196 -0.117473 0.0
28.46 0.327423 0.0
25.6687 -0.128483 0.0
24.7338 0.0532215 0.0
12.2895 0.30704 0.0
27.0933 0.0454375 0.0
28.4601 0.315176 0.0
21.5868 -0.518882 0.0
28.2548 0.374089 0.0
26.4486 -0.219131 0.0
25.8334 -0.212133 0.0
3.19041 0.159913 0.0
26.3882 0.00275149 0.0
22.1 0.48702 0.0
28.5929 0.31004 0.0
20.3773 -0.132732 0.0
6.88267 0.204751 0.0
24.8797 -0.0101086 0.0
28.2931 0.286939 0.0
23.3671 0.203941 0.0
22.7528 -0.121096 0.0
25.7445 -0.155134 0.0
28.3072 0.167996 0.0
26.3716 -0.182078 0.0
23.7282 0.0936346 0.0
16.1279 3.49744 0.0
28.0309 -0.0646851 0.0
28.599 0.275293 0.0
27.6033 0.591371 0.0
12.0131 -0.0684009 0.0
26.4413 -0.0454805 0.0
21.8654 -0.139785 0.0
3.65868 0.121946 0.0
6.39234 0.242933 0.0
26.2947 -0.117041 0.0
27.8313 0.260079 0.0
24.5893 -0.23947 0.0
25.6478 -0.0755504 0.0
28.5115 0.22977 0.0
24.9189 -0.172242 0.0
24.9944 -0.0607164 0.0
25.5122 0.00431377 0.0
22.1641 -0.171055 0.0
24.201 -0.158586 0.0
28.6935 0.230022 0.0
22.4219 -0.142166 0.0
28.1568 0.152689 0.0
24.4345 -0.250826 0.0
25.2872 -0.204165 0.0
23.9962 -0.197842 0.0
21.9224 -0.204638 0.0
27.8433 0.240856 0.0
26.1964 -0.0410241 0.0
4.49531 0.137638 0.0
7.01714 0.200295 0.0
28.5188 0.0967909 0.0
28.2679 0.0327908 0.0
22.9723 0.373036 0.0
23.8832 0.0260575 0.0
24.0806 -0.0428031 0.0
28.3945 0.385943 0.0
25.3083 0.0642016 0.0
27.6839 0.561833 0.0
26.9648 -0.0140812 0.0
21.701 -0.237897 0.0
23.4746 -0.255803 0.0
23.9118 0.0143658 0.0
26.0524 0.025271 0.0
28.7002 0.178883 0.0
27.7682 -0.0942276 0.0
23.8169 -0.231776 0.0
27.5803 8.42976 0.0
20.837 -0.189102 0.0
23.6436 -0.255485 0.0
21.5026 -0.267732 0.0
26.1565 0.973369 0.0
25.0476 0.0847016 0.0
25.8543 0.0620042 0.0
24.3049 -0.228051 0.0
21.1128 -0.160878 0.0
23.051 -0.00826319 0.0
28.2451 0.266636 0.0
21.2897 -0.275151 0.0
23.3353 -0.204886 0.0
24.7931 0.0561965 0.0
13.8108 0.145839 0.0
27.3597 0.167167 0.0
21.0524 -0.21448 0.0
12.0206 0.102298 0.0
20.5901 -0.220968 0.0
25.6332 0.05515 0.0
20.9266 -0.0982101 0.0
23.1999 -0.111951 0.0
21.4256 -0.145029 0.0
3.22158 -0.0491546 0.0
6.03166 -0.0897058 0.0
13.7619 0.211852 0.0
24.6525 -0.209765 0.0
24.0596 -0.0665753 0.0
24.5971 -0.00138195 0.0
25.4394 0.00973333 0.0
20.7351 0.016915 0.0
6.82034 0.0959417 0.0
28.3895 0.200481 0.0
6.20722 -0.0968619 0.0
28.7404 0.0954988 0.0
24.4913 -0.057071 0.0
20.359 -0.254269 0.0
23.6057 0.0964455 0.0
20.0819 -0.283245 0.0
28.7238 0.0171224 0.0
23.2426 0.126466 0.0
3.33826 -0.0504028 0.0
6.11904 -0.097676 0.0
24.1871 -0.160093 0.0
3.59392 0.0582024 0.0
25.3089 -0.0518147 0.0
19.8508 -0.259162 0.0
19.6603 -0.150052 0.0
22.8075 0.0784279 0.0
25.062 -0.107986 0.0
28.4422 0.0301865 0.0
22.909 0.100424 0.0
22.6494 0.0373332 0.0
6.17806 -0.0834319 0.0
3.47211 -0.0500041 0.0
11.4599 0.173849 0.0
19.4822 -0.0204725 0.0
22.4134 0.136246 0.0
24.7445 -0.210626 0.0
21.9905 0.145505 0.0
25.8945 -0.0529262 0.0
11.7251 0.194589 0.0
21.6485 0.0891836 0.0
25.281 -0.0962051 0.0
22.4872 -0.0127819 0.0
6.21502 0.099747 0.0
3.14465 -0.0338286 0.0
2.64935 -0.0498822 0.0
3.38354 -0.044862 0.0
6.13797 -0.0260022 0.0
6.53206 0.106269 0.0
2.87927 -0.011915 0.0
3.25713 0.00140565 0.0
5.99988 -0.0860093 0.0
3.15602 -0.0328105 0.0
3.4112 -0.0271408 0.0
3.60899 0.0847612 0.0
6.64578 -0.0847998 0.0
3.50906 0.0539424 0.0
5.92383 -0.0594279 0.0
3.36892 0.0531157 0.0
6.30676 -0.0452173 0.0
6.12225 -0.0423291 0.0
3.28012 0.104723 0.0
6.76571 0.123863 0.0
5.9951 -0.0715099 0.0
5.87204 -0.0761377 0.0
3.35549 0.166096 0.0
5.69254 -0.0415612 0.0
6.0956 0.133857 0.0
3.10097 -0.0229433 0.0
5.94205 -0.0436516 0.0
3.51583 0.00827529 0.0
3.11944 0.0625295 0.0
5.75717 -0.100094 0.0
3.36903 0.122188 0.0
4.05903 0.0667155 0.0
3.38954 0.205985 0.0
2.86303 0.0556023 0.0
3.07966 -0.0108384 0.0
6.00748 0.016013 0.0
3.24324 -0.0490383 0.0
3.32709 -0.0502719 0.0
3.44931 0.131837 0.0
3.48331 0.12702 0.0
3.37606 -0.00738621 0.0
3.32062 0.038876 0.0
2.83247 -0.0499726 0.0
3.19898 -0.0288893 0.0
3.97197 -0.00454267 0.0
6.70652 -0.0164234 0.0
3.44507 -0.0914482 0.0
4.09822 0.0519377 0.0
5.70446 0.112968 0.0
5.60387 -0.109934 0.0
3.16696 -0.0442177 0.0
3.47711 0.137836 0.0
3.20521 0.0282011 0.0
6.26633 0.00395891 0.0
3.04116 0.0706144 0.0
3.36779 0.0542179 0.0
3.14425 -0.0452168 0.0
6.33862 0.253373 0.0
3.8755 -0.0564024 0.0
2.77709 0.0143987 0.0
3.14907 0.0103582 0.0
2.68309 0.0331738 0.0
3.45971 0.054541 0.0
3.48991 -0.0162463 0.0
5.25483 -0.0451154 0.0
2.39498 -0.0166743 0.0
6.1787 0.24526 0.0
6.38093 0.0930172 0.0
24.9342 -0.111517 0.0
24.5252 -0.0725042 0.0
26.9934 -0.106626 0.0
21.4138 0.0253552 0.0
28.3756 -0.198439 0.0
28.4595 -0.0423884 0.0
21.2179 0.00806684 0.0
28.4408 -0.201508 0.0
28.6427 -0.139036 0.0
28.5047 -0.205659 0.0
28.7 -0.0615437 0.0
22.4693 -0.00413011 0.0
24.6975 -0.0593387 0.0
28.5817 -0.170403 0.0
23.9863 -0.100207 0.0
28.284 -0.152467 0.0
25.3897 -0.102375 0.0
28.2318 -0.12773 0.0
26.7238 -0.15329 0.0
27.152 -0.178701 0.0
18.5931 0.0728932 0.0
28.2416 -0.213303 0.0
28.1732 -0.0828798 0.0
27.302 -0.15192 0.0
28.3825 -0.151497 0.0
20.7585 -0.0768928 0.0
26.4761 -0.0914392 0.0