# vtk DataFile Version 3.0
Malha 2D com triângulos e temperatura
ASCII
DATASET UNSTRUCTURED_GRID

POINTS 1194 double
0 0 0
5 0 0
5 1 0
0 1 0
0.85 0.5 0
0.842388 0.538268 0
0.820711 0.570711 0
0.788268 0.592388 0
0.75 0.6 0
0.711732 0.592388 0
0.679289 0.570711 0
0.657612 0.538268 0
0.65 0.5 0
0.657612 0.461732 0
0.679289 0.429289 0
0.711732 0.407612 0
0.75 0.4 0
0.788268 0.407612 0
0.820711 0.429289 0
0.842388 0.461732 0
0.0793651 0 0
0.15873 0 0
0.238095 0 0
0.31746 0 0
0.396825 0 0
0.47619 0 0
0.555556 0 0
0.634921 0 0
0.714286 0 0
0.793651 0 0
0.873016 0 0
0.952381 0 0
1.03175 0 0
1.11111 0 0
1.19048 0 0
1.26984 0 0
1.34921 0 0
1.42857 0 0
1.50794 0 0
1.5873 0 0
1.66667 0 0
1.74603 0 0
1.8254 0 0
1.90476 0 0
1.98413 0 0
2.06349 0 0
2.14286 0 0
2.22222 0 0
2.30159 0 0
2.38095 0 0
2.46032 0 0
2.53968 0 0
2.61905 0 0
2.69841 0 0
2.77778 0 0
2.85714 0 0
2.93651 0 0
3.01587 0 0
3.09524 0 0
3.1746 0 0
3.25397 0 0
3.33333 0 0
3.4127 0 0
3.49206 0 0
3.57143 0 0
3.65079 0 0
3.73016 0 0
3.80952 0 0
3.88889 0 0
3.96825 0 0
4.04762 0 0
4.12698 0 0
4.20635 0 0
4.28571 0 0
4.36508 0 0
4.44444 0 0
4.52381 0 0
4.60317 0 0
4.68254 0 0
4.7619 0 0
4.84127 0 0
4.92063 0 0
5 0.0769231 0
5 0.153846 0
5 0.230769 0
5 0.307692 0
5 0.384615 0
5 0.461538 0
5 0.538462 0
5 0.615385 0
5 0.692308 0
5 0.769231 0
5 0.846154 0
5 0.923077 0
4.92063 1 0
4.84127 1 0
4.7619 1 0
4.68254 1 0
4.60317 1 0
4.52381 1 0
4.44444 1 0
4.36508 1 0
4.28571 1 0
4.20635 1 0
4.12698 1 0
4.04762 1 0
3.96825 1 0
3.88889 1 0
3.80952 1 0
3.73016 1 0
3.65079 1 0
3.57143 1 0
3.49206 1 0
3.4127 1 0
3.33333 1 0
3.25397 1 0
3.1746 1 0
3.09524 1 0
3.01587 1 0
2.93651 1 0
2.85714 1 0
2.77778 1 0
2.69841 1 0
2.61905 1 0
2.53968 1 0
2.46032 1 0
2.38095 1 0
2.30159 1 0
2.22222 1 0
2.14286 1 0
2.06349 1 0
1.98413 1 0
1.90476 1 0
1.8254 1 0
1.74603 1 0
1.66667 1 0
1.5873 1 0
1.50794 1 0
1.42857 1 0
1.34921 1 0
1.26984 1 0
1.19048 1 0
1.11111 1 0
1.03175 1 0
0.952381 1 0
0.873016 1 0
0.793651 1 0
0.714286 1 0
0.634921 1 0
0.555556 1 0
0.47619 1 0
0.396825 1 0
0.31746 1 0
0.238095 1 0
0.15873 1 0
0.0793651 1 0
0 0.923077 0
0 0.846154 0
0 0.769231 0
0 0.692308 0
0 0.615385 0
0 0.538462 0
0 0.461538 0
0 0.384615 0
0 0.307692 0
0 0.230769 0
0 0.153846 0
0 0.0769231 0
0.879698 0.466718 0
1.3085 0.931947 0
1.30532 0.0638546 0
4.93832 0.504275 0
0.620452 0.46964 0
3.99858 0.0669607 0
1.63721 0.934258 0
3.3751 0.0523709 0
4.3254 0.0687322 0
2.42354 0.0642082 0
2.97619 0.0687322 0
2.02101 0.0693621 0
3.68108 0.0581336 0
2.65899 0.932655 0
4.178 0.939994 0
3.21614 0.938179 0
2.25483 0.919987 0
3.53215 0.928998 0
3.84921 0.931268 0
1.69647 0.0674297 0
1.94349 0.930209 0
4.48413 0.931268 0
2.97813 0.942022 0
2.74097 0.0673855 0
0.859645 0.573263 0
0.639718 0.573116 0
0.0651563 0.652836 0
0.0635304 0.346121 0
4.56232 0.0679683 0
0.830393 0.392645 0
0.669618 0.39275 0
1.06185 0.0668897 0
0.440193 0.0680031 0
1.06474 0.93511 0
0.446074 0.935974 0
0.724697 0.630698 0
4.72268 0.931235 0
4.93065 0.267192 0
0.589836 0.936152 0
0.92338 0.0562425 0
0.590207 0.0623339 0
0.755872 0.0732784 0
0.838039 0.936714 0
4.92573 0.732039 0
0.281717 0.93783 0
0.28208 0.0811877 0
0.065248 0.503161 0
1.46076 0.0637037 0
4.72574 0.0661877 0
4.31028 0.937908 0
3.21429 0.0687322 0
1.46639 0.932632 0
3.6897 0.928155 0
2.42063 0.931268 0
3.5364 0.0691789 0
2.25998 0.0676208 0
1.78735 0.937047 0
4.01535 0.920637 0
1.85469 0.0674188 0
3.83991 0.0626292 0
3.37477 0.929368 0
2.58225 0.0657863 0
2.81746 0.932342 0
4.16667 0.0687322 0
2.11402 0.935574 0
0.0614266 0.197046 0
0.0612841 0.803003 0
4.88273 0.0644126 0
4.87774 0.933272 0
0.859645 0.426737 0
0.903081 0.436592 0
0.923672 0.473385 0
0.948706 0.439078 0
0.969155 0.479795 0
0.996593 0.439791 0
1.0202 0.484937 0
1.04667 0.440138 0
1.07382 0.489694 0
1.1034 0.440801 0
1.13169 0.49612 0
1.16603 0.445058 0
1.1931 0.504331 0
1.22956 0.450883 0
1.25923 0.506004 0
1.29683 0.453139 0
1.32923 0.510343 0
1.36603 0.454344 0
1.03276 0.530395 0
1.40063 0.516169 0
1.43576 0.454934 0
1.47042 0.520776 0
1.51069 0.46142 0
1.54422 0.526371 0
1.58547 0.465572 0
1.61942 0.531773 0
1.66033 0.468788 0
1.69546 0.536793 0
1.73713 0.472812 0
1.77239 0.541977 0
1.81532 0.478494 0
1.85006 0.547285 0
1.89327 0.483449 0
1.92802 0.55361 0
1.97142 0.488546 0
2.00623 0.558966 0
2.04984 0.493518 0
2.08483 0.564085 0
2.12847 0.498462 0
2.16353 0.569137 0
2.20719 0.503331 0
0.961579 0.391697 0
1.22451 0.565337 0
2.24238 0.574192 0
2.28611 0.508258 0
2.32134 0.579247 0
2.36519 0.513325 0
2.40036 0.584295 0
2.44425 0.51834 0
2.47944 0.589336 0
2.52334 0.523355 0
2.55853 0.594372 0
2.60245 0.52837 0
2.63764 0.599431 0
2.68159 0.533388 0
2.64637 0.462336 0
2.72553 0.467349 0
2.76076 0.538418 0
2.8047 0.47237 0
2.83993 0.543451 0
2.88387 0.477399 0
2.91911 0.548482 0
2.96305 0.482427 0
2.9983 0.553514 0
3.04224 0.487456 0
3.07749 0.558545 0
3.12143 0.492477 0
3.15668 0.563574 0
3.20063 0.497514 0
3.23588 0.568605 0
3.27983 0.502542 0
3.31508 0.573635 0
3.35903 0.507562 0
3.39428 0.578663 0
3.43823 0.5126 0
3.47348 0.583694 0
3.51744 0.517628 0
3.55268 0.588724 0
3.59664 0.522646 0
3.63189 0.593752 0
3.67585 0.527673 0
3.71109 0.598781 0
3.75505 0.532702 0
3.7903 0.60381 0
3.83426 0.537731 0
3.79901 0.466623 0
3.87821 0.471754 0
3.91346 0.542777 0
3.95742 0.476701 0
3.99267 0.547795 0
4.03662 0.481715 0
4.07187 0.552815 0
4.11582 0.486743 0
4.15106 0.55783 0
4.195 0.491782 0
4.23023 0.562843 0
4.27415 0.49682 0
4.30937 0.567866 0
4.35325 0.501915 0
4.38842 0.572845 0
4.43227 0.506997 0
4.46737 0.577575 0
4.51106 0.511995 0
4.54622 0.582183 0
1.13571 0.390292 0
4.47606 0.441361 0
4.55475 0.446396 0
2.32985 0.442214 0
3.5614 0.451571 0
3.08619 0.421408 0
2.09339 0.427815 0
1.42887 0.583001 0
2.84864 0.406329 0
3.32378 0.43649 0
4.23911 0.425894 0
1.54723 0.39251 0
1.77883 0.406811 0
1.33959 0.387065 0
3.92239 0.405803 0
4.08079 0.415776 0
2.48812 0.452349 0
1.57935 0.603183 0
1.93602 0.417543 0
1.72453 0.617973 0
3.11273 0.629643 0
2.69029 0.396284 0
3.94662 0.623383 0
1.88466 0.613248 0
2.79598 0.609502 0
4.10826 0.620575 0
2.04005 0.62838 0
2.95434 0.619575 0
4.51981 0.375801 0
4.59833 0.380943 0
4.63314 0.451296 0
4.26693 0.63114 0
2.19619 0.645921 0
4.4246 0.642296 0
3.27112 0.639707 0
2.35729 0.649822 0
2.51462 0.660373 0
3.42952 0.649769 0
4.67669 0.38601 0
3.58793 0.659829 0
3.74634 0.669888 0
4.64195 0.315733 0
4.44109 0.370647 0
4.48493 0.305066 0
4.40614 0.29989 0
4.71136 0.456133 0
4.72014 0.320758 0
0.8692 0.382093 0
0.841252 0.348256 0
0.886481 0.338703 0
0.853127 0.301457 0
0.902583 0.287335 0
0.801683 0.321689 0
0.818113 0.263019 0
0.764765 0.277091 0
4.44702 0.235678 0
0.946267 0.520761 0
0.78107 0.221265 0
0.726309 0.234724 0
0.848273 0.20551 0
4.68545 0.250576 0
4.37074 0.227561 0
4.76365 0.255792 0
4.79822 0.326145 0
0.713664 0.287231 0
0.672358 0.247957 0
0.68673 0.192342 0
0.630368 0.2085 0
0.616569 0.265341 0
0.574186 0.225456 0
0.557393 0.28131 0
0.52004 0.242373 0
0.504416 0.299685 0
0.462273 0.252096 0
0.44798 0.316739 0
0.404567 0.276951 0
0.390546 0.335414 0
0.434669 0.37657 0
0.377935 0.394545 0
0.421979 0.43426 0
0.365682 0.452846 0
0.409646 0.492216 0
0.353389 0.51089 0
0.397738 0.551598 0
0.339864 0.570301 0
0.385899 0.612153 0
0.325913 0.631557 0
0.344507 0.29318 0
0.320568 0.413067 0
0.373553 0.673852 0
0.434438 0.653082 0
0.311416 0.69481 0
0.449777 0.528305 0
0.293513 0.534612 0
0.421431 0.715204 0
0.480917 0.696603 0
0.54504 0.34471 0
0.262743 0.649913 0
0.246209 0.712341 0
0.468564 0.755948 0
0.526091 0.735423 0
0.538207 0.68039 0
0.581228 0.716342 0
0.408756 0.777952 0
0.36234 0.239019 0
0.297047 0.251925 0
0.572109 0.771575 0
0.624906 0.752173 0
0.474824 0.414151 0
0.534351 0.182707 0
0.633682 0.70159 0
0.674547 0.736174 0
0.66826 0.788959 0
0.721117 0.76834 0
0.714515 0.825486 0
0.769074 0.802008 0
0.775287 0.746591 0
0.821903 0.778625 0
0.826767 0.726064 0
0.873257 0.756032 0
0.872997 0.697261 0
0.92331 0.732304 0
0.930014 0.67838 0
0.976061 0.710612 0
0.92456 0.784469 0
0.982178 0.654421 0
1.03016 0.688004 0
1.02037 0.747059 0
1.08 0.723819 0
1.08651 0.661896 0
1.1397 0.698204 0
1.13262 0.763657 0
1.19424 0.736545 0
1.18556 0.80161 0
1.24839 0.771772 0
1.25723 0.706382 0
1.31432 0.745787 0
4.66801 0.521361 0
4.74602 0.526202 0
4.70285 0.591278 0
4.78076 0.596023 0
4.73763 0.661207 0
4.78904 0.460969 0
2.61113 0.391267 0
2.65506 0.325217 0
2.57588 0.320198 0
2.61982 0.254148 0
2.69899 0.259163 0
2.54065 0.249131 0
2.49672 0.315179 0
2.46148 0.244124 0
2.41757 0.310166 0
2.38233 0.239117 0
2.33843 0.30514 0
2.30297 0.237979 0
2.25928 0.300748 0
2.22079 0.221377 0
2.17969 0.293884 0
2.14114 0.224266 0
2.10047 0.289841 0
2.0653 0.219144 0
2.02202 0.284919 0
1.98701 0.214164 0
1.94336 0.279863 0
3.82315 0.673327 0
3.78135 0.738156 0
3.86451 0.735958 0
3.70234 0.735494 0
4.52513 0.244409 0
4.32717 0.294467 0
4.29217 0.221862 0
0.619934 0.539507 0
0.599432 0.577132 0
0.575955 0.542712 0
0.554504 0.58245 0
4.65962 0.656481 0
4.69438 0.726169 0
4.6161 0.721747 0
4.77259 0.731352 0
4.65076 0.791486 0
4.57153 0.788793 0
4.2482 0.289182 0
4.21307 0.218308 0
4.1691 0.284563 0
4.13394 0.21352 0
0.835918 0.606341 0
0.806475 0.6384 0
4.08995 0.279537 0
0.640355 0.426737 0
0.596214 0.435837 0
0.630358 0.379178 0
0.689967 0.627735 0
1.90832 0.209948 0
1.86468 0.27519 0
1.82968 0.20518 0
1.78607 0.269797 0
0.281841 0.313314 0
0.232117 0.268621 0
0.216861 0.334396 0
4.05473 0.209347 0
4.01077 0.2745 0
3.97554 0.204394 0
3.93159 0.269388 0
0.297409 0.759367 0
0.231645 0.782943 0
0.180008 0.73598 0
1.32151 0.676369 0
1.38055 0.718092 0
1.36901 0.793947 0
1.43945 0.766002 0
0.249902 0.198865 0
0.932364 0.624392 0
1.75117 0.201034 0
1.70771 0.264658 0
1.673 0.195402 0
1.62985 0.260294 0
1.59532 0.191927 0
1.55236 0.254233 0
3.89629 0.200227 0
3.85238 0.264494 0
3.81708 0.195303 0
3.77304 0.259453 0
2.66368 0.189084 0
2.74279 0.19534 0
2.77814 0.264556 0
2.82201 0.199823 0
2.85733 0.269552 0
2.90126 0.203886 0
2.93654 0.274416 0
2.98045 0.20868 0
3.01573 0.279376 0
3.0597 0.213193 0
[...]
CELL_DATA 2220
VECTORS velocity double
17.2993 -1.47543 0.0
12.8001 0.439072 0.0
21.4326 5.73617 0.0
21.3559 1.117 0.0
17.6614 -1.78354 0.0
21.6734 -0.94949 0.0
10.8713 0.422223 0.0
12.0524 -0.00698729 0.0
22.8655 10.641 0.0
21.2893 -0.638014 0.0
15.1301 16.4838 0.0
11.4615 0.266441 0.0
9.20559 0.195417 0.0
20.0965 -6.07322 0.0
19.4772 15.4354 0.0
14.6264 10.7464 0.0
12.5024 0.517663 0.0
10.1428 0.489283 0.0
11.3575 -0.116772 0.0
12.2271 -0.0973135 0.0
18.2195 4.35248 0.0
35.4751 -6.20774 0.0
11.715 0.531797 0.0
11.881 0.505679 0.0
20.233 -0.982724 0.0
18.4035 -4.99402 0.0
18.9441 -2.18031 0.0
10.2595 0.495367 0.0
21.1162 1.18111 0.0
23.7777 1.12063 0.0
16.1064 -3.03968 0.0
28.2928 0.142486 0.0
8.54733 -0.105387 0.0
26.9062 -12.5988 0.0
41.0486 1.72072 0.0
21.82 -1.0764 0.0
40.3482 2.57291 0.0
9.90279 -0.106839 0.0
24.7545 1.364 0.0
24.2162 -1.79001 0.0
11.6182 -1.16694 0.0
22.8608 9.60939 0.0
17.9576 0.931032 0.0
11.0672 0.0319298 0.0
9.99977 0.00464442 0.0
9.05422 0.034622 0.0
11.5177 0.527455 0.0
9.15592 -0.000583855 0.0
21.14 -0.543964 0.0
22.7256 0.330795 0.0
14.4386 3.40737 0.0
9.09382 0.100817 0.0
11.2585 0.548746 0.0
11.4141 0.115596 0.0
10.5009 0.455919 0.0
24.1042 -2.34679 0.0
30.179 -0.38572 0.0
9.6112 0.484053 0.0
9.9565 0.482596 0.0
23.0029 0.2405 0.0
0.28257 -3.50463 0.0
21.1075 -1.51768 0.0
17.5614 -4.0344 0.0
11.5264 0.554623 0.0
11.4143 0.567368 0.0
28.9499 -11.1413 0.0
16.9727 -1.1119 0.0
16.7383 9.97651 0.0
9.7533 0.551599 0.0
9.91045 0.522702 0.0
11.3121 0.165394 0.0
28.4569 11.5552 0.0
8.92036 0.157146 0.0
22.2273 0.71501 0.0
28.2954 -1.54512 0.0
40.915 -0.344889 0.0
19.5502 3.95151 0.0
14.0291 -3.05446 0.0
20.744 9.44123 0.0
10.8101 0.115215 0.0
20.0012 2.64021 0.0
24.74 2.62464 0.0
12.9397 -0.24348 0.0
8.95112 0.106784 0.0
11.1567 0.415776 0.0
11.1127 0.22936 0.0
15.965 -1.82315 0.0
9.33816 0.200623 0.0
9.49465 0.339489 0.0
23.8131 11.0172 0.0
23.9248 -3.80275 0.0
14.6902 3.99577 0.0
11.4346 -0.145911 0.0
19.8293 5.38302 0.0
40.1259 0.0991149 0.0
24.1399 1.93045 0.0
36.9018 4.91819 0.0
2.74343 -17.9556 0.0
1.03013 -2.79007 0.0
24.7732 13.2743 0.0
-6.41757 -18.1731 0.0
16.7822 -3.88637 0.0
11.3638 0.497198 0.0
9.81543 0.907339 0.0
36.5568 -5.79095 0.0
40.86 -1.03926 0.0
22.0285 -0.796715 0.0
22.7495 -1.12664 0.0
3.46703 -0.06213 0.0
11.5851 0.958103 0.0
26.8074 1.01122 0.0
22.9075 -7.68737 0.0
21.8729 -0.646229 0.0
9.65974 -0.579469 0.0
22.2207 -2.12168 0.0
9.71964 0.440838 0.0
18.7123 -4.85367 0.0
16.0867 -0.431449 0.0
1.99326 -20.7077 0.0
25.0402 10.1769 0.0
13.3294 -2.4063 0.0
31.8368 -0.64145 0.0
11.7074 2.98237 0.0
31.0262 -8.67236 0.0
41.3589 0.863385 0.0
9.43219 -11.3355 0.0
40.5286 -1.62912 0.0
20.4681 1.03824 0.0
21.5024 -7.18376 0.0
-3.53301 8.94634 0.0
9.82673 0.798106 0.0
31.9455 4.57848 0.0
26.5074 5.91731 0.0
11.6824 3.68822 0.0
24.3592 1.44247 0.0
9.96398 3.99469 0.0
8.36075 0.00262976 0.0
15.9111 -3.36721 0.0
12.0936 -12.2961 0.0
29.2603 0.523948 0.0
17.5475 -4.34208 0.0
10.8758 -0.0225824 0.0
21.8992 -2.72175 0.0
40.8691 0.501613 0.0
21.8159 0.669966 0.0
18.0892 4.72237 0.0
-10.2874 8.98612 0.0
6.26662 -18.6312 0.0
22.5433 2.04417 0.0
22.6104 -1.59736 0.0
9.74643 -0.203528 0.0
24.7387 9.05847 0.0
32.3295 -0.0122489 0.0
27.8953 -10.8299 0.0
6.29523 3.44423 0.0
12.3244 0.203884 0.0
19.4444 -1.36832 0.0
12.7593 0.34312 0.0
9.6568 -0.806545 0.0
13.2385 -3.24111 0.0
29.782 8.51837 0.0
9.83388 0.0452135 0.0
-10.5805 -9.23728 0.0
28.3718 0.114713 0.0
8.86945 0.0928555 0.0
27.8859 -12.1673 0.0
18.87 -14.2404 0.0
41.6062 0.404375 0.0
12.2314 0.144224 0.0
23.3176 10.9956 0.0
-5.2366 15.0733 0.0
8.77048 0.0512159 0.0
11.2555 0.0817545 0.0
-4.08813 -9.27253 0.0
4.32563 -5.0148 0.0
20.4331 8.48467 0.0
18.1415 3.93576 0.0
18.6532 7.85674 0.0
7.31416 -1.6085 0.0
12.1614 0.07406 0.0
31.3037 -0.269371 0.0
14.1688 -3.40477 0.0
16.6907 -15.8191 0.0
1.80456 14.4483 0.0
12.3079 0.000626114 0.0
19.1435 -1.63016 0.0
40.8465 0.125798 0.0
9.95931 -0.140795 0.0
38.3079 3.8366 0.0
41.5484 0.242956 0.0
11.5201 -0.97073 0.0
9.68766 -0.1733 0.0
23.1101 -8.49351 0.0
22.6272 1.68773 0.0
19.4398 -0.443523 0.0
40.7468 -0.282691 0.0
16.2086 0.537165 0.0
11.2215 -0.227571 0.0
5.68834 -0.302307 0.0
11.4722 -0.333031 0.0
10.426 -2.02344 0.0
15.0942 -0.381381 0.0
31.347 -10.0488 0.0
11.5244 -0.0236122 0.0
11.8364 1.34913 0.0
15.8825 -2.94385 0.0
19.0197 -3.93002 0.0
10.6727 0.0544871 0.0
16.2626 0.63256 0.0
6.58156 -1.16192 0.0
11.2751 0.521535 0.0
10.2505 18.6111 0.0
15.6896 -0.153849 0.0
19.7311 10.2645 0.0
20.2945 4.97357 0.0
12.3417 0.993351 0.0
9.575 0.480355 0.0
11.3332 0.65291 0.0
8.31214 1.7379 0.0
28.7618 0.909253 0.0
21.6699 0.402038 0.0
5.62228 -0.113072 0.0
9.57806 0.608314 0.0
5.34319 -0.0259439 0.0
11.4425 -0.0155293 0.0
13.6673 -0.485363 0.0
11.5478 -2.2083 0.0
18.5156 15.9461 0.0
22.7324 -5.27298 0.0
10.1034 0.347982 0.0
14.3161 0.616736 0.0
15.2728 -1.17133 0.0
7.96253 -0.0203517 0.0
11.769 -0.0514176 0.0
10.4065 -0.246031 0.0
40.9036 0.127382 0.0
3.21364 -7.04357 0.0
11.3351 -0.174783 0.0
11.2424 -0.200194 0.0
10.0796 -0.0244202 0.0
40.1805 -0.145199 0.0
32.4712 9.25613 0.0
38.2775 -3.90857 0.0
5.95942 0.00950808 0.0
11.1907 3.37306 0.0
22.2877 -0.0259333 0.0
12.3527 -0.07479 0.0
28.8642 -0.717825 0.0
5.01528 4.17716 0.0
18.3047 0.60359 0.0
9.90607 -3.47745 0.0
5.96873 -0.0447429 0.0
17.063 -13.7619 0.0
21.28 -0.118652 0.0
19.3272 -6.15607 0.0
11.1408 0.305048 0.0
-10.7642 1.64189 0.0
21.8077 0.126393 0.0
19.2513 -0.0671991 0.0
40.312 0.198894 0.0
12.6747 -0.249313 0.0
32.984 -0.407568 0.0
10.0527 0.540737 0.0
15.8781 -4.14455 0.0
5.85293 -0.482909 0.0
7.33428 -0.0624394 0.0
10.6792 -0.392285 0.0
8.03553 -4.63153 0.0
15.7757 4.24205 0.0
22.4823 -0.0770873 0.0
20.2797 0.793089 0.0
21.2501 0.0332456 0.0
9.40522 0.251786 0.0
21.2708 -1.44583 0.0
1.38198 -11.4758 0.0
39.3601 -2.5102 0.0
20.0224 -14.3893 0.0
12.2097 -2.40326 0.0
11.6431 2.72565 0.0
12.3196 0.074847 0.0
7.83548 -14.827 0.0
22.5274 -0.0477716 0.0
39.06 -0.559119 0.0
15.468 0.543182 0.0
21.0919 -1.26485 0.0
14.281 -0.260183 0.0
31.2297 -0.264381 0.0
14.967 0.522186 0.0
9.76994 -0.14585 0.0
9.42729 -0.172388 0.0
-10.7547 -2.10126 0.0
10.9201 -0.984115 0.0
7.03518 1.53868 0.0
12.0363 -2.42958 0.0
12.7456 -1.37025 0.0
14.5086 -0.168638 0.0
14.7096 -0.145759 0.0
19.2985 0.327503 0.0
37.6357 -3.73692 0.0
21.0797 4.71195 0.0
8.82507 -0.415662 0.0
21.1454 7.70615 0.0
21.3622 -6.50471 0.0
6.91652 0.0588006 0.0
15.9328 -11.9088 0.0
12.0648 0.467795 0.0
9.2061 -0.0287827 0.0
9.55235 -0.18258 0.0
14.7212 0.279405 0.0
6.27215 1.17181 0.0
10.2094 1.77959 0.0
6.5354 1.38204 0.0
2.8089 18.0666 0.0
38.9813 -1.42642 0.0
28.4517 11.692 0.0
11.0475 -0.188965 0.0
18.8609 6.52465 0.0
10.5164 0.0101525 0.0
40.6047 -0.22102 0.0
21.4327 5.21696 0.0
20.2324 14.4041 0.0
11.7985 2.91094 0.0
21.4562 0.156027 0.0
10.7438 0.102106 0.0
6.85746 2.37751 0.0
8.94042 -1.66418 0.0
21.2634 0.0951494 0.0
20.8968 0.883915 0.0
22.0568 0.407255 0.0
8.12316 -1.72572 0.0
17.0526 -10.656 0.0
40.4371 1.07302 0.0
13.9078 -3.72252 0.0
9.98493 -0.47457 0.0
28.0127 -10.3761 0.0
40.1528 -0.379743 0.0
21.9515 -0.835417 0.0
21.7502 7.64728 0.0
31.7884 -0.995525 0.0
11.166 -0.203773 0.0
6.55052 0.835765 0.0
9.98476 -0.204921 0.0
5.95157 -0.12132 0.0
5.13791 -0.773995 0.0
17.7246 15.9569 0.0
22.1801 9.14586 0.0
7.34717 1.8954 0.0
21.4729 6.1478 0.0
21.9045 3.43978 0.0
4.31533 -0.863563 0.0
30.839 -8.02201 0.0
3.85402 0.752569 0.0
5.9304 0.176403 0.0
11.3524 10.1535 0.0
5.704 0.739637 0.0
41.1462 0.00176779 0.0
31.333 -9.11663 0.0
3.27273 -0.303559 0.0
20.7517 0.586197 0.0
27.4615 -0.967432 0.0
21.3827 3.56832 0.0
5.7296 18.6198 0.0
19.1041 5.72376 0.0
21.3625 4.73936 0.0
5.49713 0.257604 0.0
23.0327 0.559144 0.0
36.236 6.52065 0.0
3.86022 -0.781656 0.0
5.79362 -0.208986 0.0
33.1553 -0.814928 0.0
3.95669 0.820236 0.0
37.1349 -4.70513 0.0
30.9823 9.61981 0.0
12.4351 -0.591581 0.0
5.16734 -0.0547473 0.0
11.946 0.386061 0.0
15.5507 0.338883 0.0
15.6749 0.116381 0.0
40.5853 0.00280855 0.0
14.6536 -0.11259 0.0
11.5261 0.599206 0.0
39.523 0.111176 0.0
40.9704 -0.0952881 0.0
21.9214 0.230367 0.0
38.0529 0.500041 0.0
20.8406 -0.0886507 0.0
36.4275 -5.13262 0.0
21.4394 0.119122 0.0
19.5196 -5.69322 0.0
21.4552 2.62208 0.0
9.57467 0.621494 0.0
20.2567 0.0447395 0.0
26.9662 -0.597222 0.0
17.905 -5.63043 0.0
8.44053 -0.692401 0.0
10.862 -1.69615 0.0
40.0169 0.199791 0.0
8.12004 0.540651 0.0
21.4646 0.121554 0.0
39.1548 0.460751 0.0
6.75874 0.211413 0.0
22.6159 3.81753 0.0
20.9756 4.0998 0.0
21.7518 0.0712642 0.0
35.4621 7.23731 0.0
38.6407 4.36856 0.0
5.08983 1.83749 0.0
5.94627 0.921501 0.0
19.5475 1.10831 0.0
24.5075 -11.8633 0.0
11.9598 -13.8745 0.0
4.93315 0.825499 0.0
37.5204 0.0336264 0.0
20.2147 -5.28678 0.0
39.3472 -0.436326 0.0
21.7539 0.0759447 0.0
3.85208 -0.127839 0.0
3.50038 0.666768 0.0
22.9684 8.58848 0.0
5.7327 0.112877 0.0
21.4021 6.10549 0.0
37.5175 0.695411 0.0
3.95266 0.00174821 0.0
5.75309 -0.0405686 0.0
20.9223 3.08053 0.0
20.0266 0.296308 0.0
3.76098 0.136392 0.0
18.2116 -0.112423 0.0
21.5235 0.142516 0.0
6.23461 -0.89504 0.0
21.782 0.0907008 0.0
19.5921 2.98843 0.0
38.8756 -0.683776 0.0
21.3864 1.91594 0.0
6.35149 -0.485963 0.0
37.0617 5.38308 0.0
4.81696 -0.872193 0.0
6.20365 0.360212 0.0
15.392 -9.39681 0.0
5.96435 0.371959 0.0
19.803 3.92028 0.0
20.9447 2.28534 0.0
36.1345 4.50477 0.0
39.2381 3.05707 0.0
9.97665 -0.851085 0.0
16.5351 3.2836 0.0
39.2188 0.434778 0.0
3.37861 -0.407846 0.0
3.09123 0.415388 0.0
10.105 -0.645097 0.0
9.67174 0.779488 0.0
21.6078 -0.471856 0.0
6.76727 -0.332086 0.0
21.5007 0.612592 0.0
22.0242 1.10904 0.0
5.59693 0.611235 0.0
11.4255 0.570762 0.0
21.1156 5.34192 0.0
6.51887 0.30137 0.0
21.1096 1.33481 0.0
19.4159 2.25257 0.0
20.5704 0.279898 0.0
5.83956 -0.40273 0.0
4.53255 0.286109 0.0
7.26026 0.570645 0.0
15.8213 -0.157086 0.0
8.20284 -0.682756 0.0
21.852 0.115749 0.0
3.84047 0.0754187 0.0
38.3285 2.2652 0.0
6.08688 -0.326036 0.0
3.10471 0.49803 0.0
13.9961 -1.14786 0.0
21.4829 6.75783 0.0
5.98932 -0.684485 0.0
20.5661 0.224778 0.0
20.6354 1.66503 0.0
21.1268 4.09337 0.0
21.627 0.160348 0.0
19.1927 1.69097 0.0
12.7207 -1.82951 0.0
29.2672 -8.69891 0.0
21.9383 -3.00156 0.0
18.9593 1.24763 0.0
6.18566 -0.533534 0.0
6.60061 0.556802 0.0
39.2284 -0.108912 0.0
2.8926 0.280954 0.0
30.8073 -0.620475 0.0
13.7471 2.74384 0.0
21.7395 0.158218 0.0
2.97739 0.340896 0.0
3.4845 -0.523817 0.0
20.4345 1.17083 0.0
22.0356 8.21046 0.0
16.0825 -0.125388 0.0
27.4905 -0.847177 0.0
19.3464 0.0682557 0.0
24.3566 -0.806123 0.0
11.2191 -3.22281 0.0
19.4946 -0.0834305 0.0
18.6013 2.51765 0.0
3.17795 -0.205233 0.0
18.7785 0.898374 0.0
15.9778 2.12605 0.0
9.95061 -0.391018 0.0
21.5513 0.244078 0.0
4.08676 -0.31909 0.0
4.51591 0.325222 0.0
18.8286 3.30148 0.0
20.0107 -0.105869 0.0
19.2852 -0.6632 0.0
11.5879 -0.112357 0.0
19.8712 0.551669 0.0
21.9457 0.131517 0.0
20.109 -3.9555 0.0
3.79601 0.661393 0.0
20.633 0.397308 0.0
21.865 -3.47225 0.0
18.1616 1.44466 0.0
17.9197 1.52641 0.0
7.19201 -1.107 0.0
27.2102 -11.7325 0.0
5.13716 -2.44535 0.0
22.5307 -13.3351 0.0
20.4671 -0.753703 0.0
21.8598 3.87153 0.0
20.3764 0.711573 0.0
3.92624 -0.583621 0.0
18.6671 0.646427 0.0
18.5988 0.891291 0.0
17.9552 1.08082 0.0
22.3776 0.0803646 0.0
18.3938 1.90906 0.0
20.1466 0.541628 0.0
23.4694 -0.644049 0.0
22.3189 -3.30432 0.0
7.70424 -1.66648 0.0
38.3777 -0.691667 0.0
9.28823 -0.101915 0.0
16.905 -1.83382 0.0
6.74673 -3.10504 0.0
33.183 7.92442 0.0
22.0851 0.0982686 0.0
2.80436 -0.233116 0.0
2.87825 0.241114 0.0
20.0436 0.385976 0.0
37.0227 0.754756 0.0
18.619 0.483861 0.0
14.3725 1.96959 0.0
3.57377 -0.139687 0.0
5.79012 -0.207606 0.0
4.75847 0.301406 0.0
2.77436 0.974604 0.0
5.49015 -1.69204 0.0
21.3813 -4.76057 0.0
22.4464 0.0696418 0.0
36.3126 5.84134 0.0
1.0696 0.544495 0.0
17.023 -0.0413413 0.0
18.0183 -0.0435915 0.0
17.1272 -1.22933 0.0
15.4943 2.52431 0.0
1.17059 -0.533198 0.0
2.94949 -0.895754 0.0
15.7508 0.313297 0.0
18.8711 0.788877 0.0
17.8469 0.795212 0.0
13.637 -1.15839 0.0
20.0177 -0.0491364 0.0
41.2267 -0.278389 0.0
20.6189 -0.0451252 0.0
17.2823 1.92772 0.0
21.8761 0.0792878 0.0
3.70179 -0.234044 0.0
21.023 6.79169 0.0
21.8018 0.220829 0.0
20.6057 0.21509 0.0
21.6205 0.0612155 0.0
18.8905 -0.767961 0.0
3.56247 0.162494 0.0
21.8154 0.0200964 0.0
4.50097 -0.359348 0.0
9.94876 1.11398 0.0
15.1421 -0.0765816 0.0
18.6092 0.396142 0.0
17.7765 0.588023 0.0
21.0658 0.473274 0.0
21.5695 0.423221 0.0
21.1686 0.564967 0.0
2.82113 0.198417 0.0
5.31849 0.348161 0.0
4.82411 -0.218588 0.0
21.9741 0.167133 0.0
20.0601 0.260319 0.0
39.0938 0.544087 0.0
4.39723 0.42806 0.0
20.0878 0.0616596 0.0
19.6856 1.10727 0.0
9.28322 3.14315 0.0
20.3646 -0.0311656 0.0
2.17651 0.257317 0.0
19.6967 -0.0637856 0.0
19.0395 -0.253242 0.0
19.9085 -0.362227 0.0
15.4365 -0.200326 0.0
14.3397 -0.192888 0.0
19.4611 -0.100087 0.0
6.14793 -0.681161 0.0
40.4605 -1.2115 0.0
21.7737 0.041578 0.0
20.9543 -0.127547 0.0
20.6971 0.226764 0.0
18.6672 0.35302 0.0
11.019 0.00743204 0.0
20.133 0.259282 0.0
22.3868 -2.08974 0.0
21.864 0.0366481 0.0
5.68123 0.198402 0.0
18.5145 1.53296 0.0
2.31385 -0.23558 0.0
21.9868 0.289399 0.0
22.0615 0.261007 0.0
18.7696 0.340163 0.0
1.77131 0.393848 0.0
26.5789 -10.5748 0.0
22.0792 0.0615591 0.0
21.4764 0.484931 0.0
20.1168 -0.0650547 0.0
20.8227 -0.0812273 0.0
20.8357 0.235572 0.0
21.9122 0.180517 0.0
21.9455 0.177847 0.0
22.0335 0.125756 0.0
18.9448 0.345316 0.0
2.66763 0.136442 0.0
8.76148 0.416407 0.0
21.5176 -0.162139 0.0
16.7196 8.39242 0.0
1.8822 -0.372089 0.0
5.07287 -0.141158 0.0
21.2867 -11.8138 0.0
19.746 1.07069 0.0
20.2704 0.271617 0.0
9.27219 -0.25745 0.0
20.7334 -0.132268 0.0
21.1335 -0.103233 0.0
14.7172 2.78461 0.0
4.97371 0.24067 0.0
2.55691 -0.144071 0.0
22.2103 -2.51903 0.0
17.3458 1.69484 0.0
19.7518 -0.786546 0.0
22.0607 0.270165 0.0
10.1001 -1.54348 0.0
20.4411 0.265629 0.0
17.7557 0.474877 0.0
21.776 -0.0404817 0.0
2.44165 0.176559 0.0
20.9944 0.215029 0.0
21.8238 -0.00165734 0.0
2.84562 -0.0655227 0.0
19.1718 0.33021 0.0
21.8348 0.127445 0.0
22.1266 0.352749 0.0
21.2353 0.0795842 0.0
21.0352 -0.144847 0.0
22.0335 0.0251296 0.0
19.0741 -0.509859 0.0
21.187 -0.0771063 0.0
21.1525 0.152932 0.0
20.8563 0.042972 0.0
20.6388 -0.168291 0.0
2.72193 -0.0896452 0.0
21.2921 0.14875 0.0
20.5632 -0.192814 0.0
3.5385 0.12732 0.0
21.9718 -0.0129118 0.0
5.56958 0.233016 0.0
20.632 0.207474 0.0
20.961 -0.175465 0.0
22.1379 0.307835 0.0
21.5744 -0.0584858 0.0
21.2601 0.0238603 0.0
22.0135 0.2605 0.0
10.8664 0.1769 0.0
19.6791 0.118174 0.0
18.7192 0.586005 0.0
19.3761 0.241503 0.0
2.55186 -0.0180068 0.0
21.6669 0.196411 0.0
20.7845 0.114577 0.0
17.8538 -1.54889 0.0
3.37931 -0.262012 0.0
17.9052 0.380384 0.0
3.31458 0.187207 0.0
17.2614 -1.56462 0.0
19.3974 0.640813 0.0
18.0662 0.373385 0.0
19.9293 -0.108347 0.0
20.4995 -0.199531 0.0
18.3204 0.374066 0.0
21.2434 -0.0568179 0.0
32.2017 9.48388 0.0
16.7398 -1.65539 0.0
20.8028 -0.0209411 0.0
22.0521 0.364549 0.0
22.0323 0.344654 0.0
22.118 0.297013 0.0
20.9019 -0.190867 0.0
22.2308 0.314679 0.0
18.6565 -0.105743 0.0
22.2422 0.289115 0.0
20.3063 -0.0969627 0.0
19.7725 0.0353664 0.0
10.3099 0.288536 0.0
21.3219 0.122127 0.0
22.2391 0.295205 0.0
17.5343 -0.385619 0.0
22.0927 0.323752 0.0
20.854 -0.184222 0.0
20.4468 -0.178909 0.0
2.78904 0.114287 0.0
20.8834 -0.00640079 0.0
17.8073 0.414946 0.0
22.3381 0.284249 0.0
16.6037 -0.0170342 0.0
5.85196 0.19238 0.0
19.8477 -0.0203911 0.0
22.1425 0.249345 0.0
18.8274 0.176098 0.0
18.286 -0.107781 0.0
20.3989 -0.124947 0.0
22.1741 0.143224 0.0
20.8152 -0.149076 0.0
19.0739 0.0722613 0.0
13.8683 2.25609 0.0
21.9118 -0.0537724 0.0
22.3655 0.256807 0.0
21.737 0.413677 0.0
10.0721 -0.0615723 0.0
20.8929 -0.0463074 0.0
17.6619 -0.127565 0.0
3.13615 0.114932 0.0
5.42855 0.22887 0.0
20.7727 -0.08796 0.0
21.8569 0.257038 0.0
19.5673 -0.208787 0.0
20.339 -0.0500679 0.0
22.3038 0.202235 0.0
19.7836 -0.148353 0.0
19.9041 -0.0627119 0.0
20.242 0.0242402 0.0
17.8284 -0.151515 0.0
19.2822 -0.137468 0.0
22.4384 0.210327 0.0
18.0226 -0.126023 0.0
22.1652 0.149664 0.0
19.4719 -0.219125 0.0
20.0559 -0.176111 0.0
19.1389 -0.172699 0.0
17.6546 -0.181793 0.0
21.8176 0.248713 0.0
20.7077 -0.0171926 0.0
3.86062 0.130546 0.0
5.98373 0.189999 0.0
22.3269 0.0803532 0.0
22.156 0.0197647 0.0
18.5164 0.339213 0.0
19.1168 0.0435721 0.0
19.2731 -0.0493079 0.0
22.1754 0.338768 0.0
20.0862 0.0786435 0.0
21.7473 0.423227 0.0
21.2568 -0.0183948 0.0
17.4998 -0.212443 0.0
18.8023 -0.225791 0.0
19.1774 2.64027e-05 0.0
20.6013 0.0434368 0.0
22.4671 0.165966 0.0
21.7334 -0.0798625 0.0
19.0193 -0.203438 0.0
24.8027 8.09133 0.0
16.8556 -0.169102 0.0
18.9076 -0.225379 0.0
17.3644 -0.240864 0.0
20.8328 0.61424 0.0
19.883 0.0945559 0.0
20.4485 0.0750122 0.0
19.3969 -0.197393 0.0
17.061 -0.143942 0.0
18.5297 0.0106891 0.0
22.1474 0.257357 0.0
17.2233 -0.248532 0.0
18.72 -0.177009 0.0
19.6872 0.062886 0.0
11.5757 0.147611 0.0
21.4948 0.199042 0.0
17.0676 -0.190086 0.0
10.1219 0.104669 0.0
16.6772 -0.198262 0.0
20.2774 0.0642091 0.0
16.9851 -0.0775109 0.0
18.6347 -0.0879932 0.0
17.3043 -0.130892 0.0
2.76501 -0.0467484 0.0
5.13135 -0.0855446 0.0
11.5112 0.21234 0.0
19.6087 -0.177788 0.0
19.2459 -0.043657 0.0
19.5458 0.00358198 0.0
20.1331 0.0163168 0.0
16.8449 0.0329539 0.0
5.83194 0.0971413 0.0
22.288 0.193298 0.0
5.27202 -0.0901969 0.0
22.4926 0.0839023 0.0
19.4898 -0.0528177 0.0
16.5132 -0.229734 0.0
18.9015 0.108664 0.0
16.3183 -0.258246 0.0
22.4959 0.0113413 0.0
18.6145 0.134259 0.0
2.86126 -0.0469834 0.0
5.19971 -0.0911207 0.0
19.3286 -0.132529 0.0
3.10051 0.0584981 0.0
20.0487 -0.0464624 0.0
16.1649 -0.235414 0.0
16.0368 -0.129238 0.0
18.3431 0.0921065 0.0
19.8905 -0.0788172 0.0
22.3479 0.0279015 0.0
18.3521 0.105225 0.0
18.1599 0.0405997 0.0
5.24613 -0.0771698 0.0
2.97472 -0.0465322 0.0
9.65673 0.174523 0.0
15.9075 -0.00376862 0.0
18.0319 0.145123 0.0
19.6662 -0.182728 0.0
17.696 0.150719 0.0
20.5133 -0.033923 0.0
9.85633 0.194554 0.0
17.4283 0.0922913 0.0
20.061 -0.0914183 0.0
18.0624 -0.0100491 0.0
5.30768 0.0996805 0.0
2.69862 -0.0312263 0.0
2.27914 -0.0472916 0.0
2.89628 -0.0417137 0.0
5.23442 -0.0225736 0.0
5.57546 0.100837 0.0
2.48225 -0.0102715 0.0
2.80652 0.00288229 0.0
5.10606 -0.0832971 0.0
2.71255 -0.0327906 0.0
2.92878 -0.0253675 0.0
3.10693 0.0802254 0.0
5.6328 -0.0786466 0.0
3.01255 0.0537253 0.0
5.03706 -0.0545956 0.0
2.89834 0.0529882 0.0
5.37078 -0.0417998 0.0
5.22015 -0.0165623 0.0
2.81369 0.100837 0.0
5.77511 0.116155 0.0
5.10382 -0.070501 0.0
4.99503 -0.0706993 0.0
2.8744 0.153631 0.0
4.86042 -0.0372424 0.0
5.18988 0.135376 0.0
2.6726 -0.00861399 0.0
5.06393 -0.044514 0.0
3.01744 0.0171541 0.0
2.6847 0.0634857 0.0
4.89916 -0.0942543 0.0
2.89072 0.113027 0.0
3.4956 0.0628457 0.0
2.91287 0.18474 0.0
2.46934 0.0569249 0.0
2.65001 -0.0117853 0.0
5.12541 0.0131078 0.0
2.78435 -0.0472748 0.0
2.85314 -0.0469757 0.0
2.96124 0.117908 0.0
2.99662 0.105868 0.0
2.90006 0.00441346 0.0
2.84089 0.0388372 0.0
2.43281 -0.0471897 0.0
2.74423 -0.026578 0.0
3.4141 -0.00188801 0.0
5.70833 -0.0122976 0.0
2.97182 -0.0637441 0.0
3.53371 0.0530161 0.0
4.87196 0.115323 0.0
4.77179 -0.104064 0.0
2.71997 -0.0432893 0.0
2.97844 0.129679 0.0
2.7602 0.0261459 0.0
5.33162 0.0234204 0.0
2.6107 0.0696348 0.0
2.89128 0.0547959 0.0
2.6991 -0.0423111 0.0
5.39509 0.220859 0.0
3.32299 -0.0531639 0.0
2.39831 0.0177441 0.0
2.71343 0.0141969 0.0
2.30806 0.0335974 0.0
2.98233 0.0545556 0.0
2.99773 -0.0143295 0.0
4.4971 -0.0416025 0.0
2.06434 -0.0150475 0.0
5.25668 0.223977 0.0
5.43191 0.0927697 0.0
19.874 -0.0990421 0.0
19.5621 -0.0685736 0.0
21.2297 -0.0937282 0.0
17.2668 0.0275886 0.0
22.1558 -0.189317 0.0
22.2853 -0.0488461 0.0
17.1544 0.0100645 0.0
22.218 -0.193951 0.0
22.4164 -0.138189 0.0
22.2793 -0.199866 0.0
22.4603 -0.0651102 0.0
18.1031 -0.00155033 0.0
19.7602 -0.0556688 0.0
22.3492 -0.167443 0.0
19.2125 -0.086816 0.0
22.0735 -0.141022 0.0
20.2 -0.0980539 0.0
22.04 -0.114765 0.0
21.1077 -0.148039 0.0
21.3602 -0.172373 0.0
15.1652 0.0738928 0.0
22.1105 -0.207217 0.0
22.1708 -0.0818121 0.0
21.5369 -0.147259 0.0
22.2667 -0.149063 0.0