# vtk DataFile Version 3.0
Malha 2D com triângulos e temperatura
ASCII
DATASET UNSTRUCTURED_GRID

POINTS 1194 double
0 0 0
5 0 0
5 1 0
0 1 0
0.85 0.5 0
0.842388 0.538268 0
0.820711 0.570711 0
0.788268 0.592388 0
0.75 0.6 0
0.711732 0.592388 0
0.679289 0.570711 0
0.657612 0.538268 0
0.65 0.5 0
0.657612 0.461732 0
0.679289 0.429289 0
0.711732 0.407612 0
0.75 0.4 0
0.788268 0.407612 0
0.820711 0.429289 0
0.842388 0.461732 0
0.0793651 0 0
0.15873 0 0
0.238095 0 0
0.31746 0 0
0.396825 0 0
0.47619 0 0
0.555556 0 0
0.634921 0 0
0.714286 0 0
0.793651 0 0
0.873016 0 0
0.952381 0 0
1.03175 0 0
1.11111 0 0
1.19048 0 0
1.26984 0 0
1.34921 0 0
1.42857 0 0
1.50794 0 0
1.5873 0 0
1.66667 0 0
1.74603 0 0
1.8254 0 0
1.90476 0 0
1.98413 0 0
2.06349 0 0
2.14286 0 0
2.22222 0 0
2.30159 0 0
2.38095 0 0
2.46032 0 0
2.53968 0 0
2.61905 0 0
2.69841 0 0
2.77778 0 0
2.85714 0 0
2.93651 0 0
3.01587 0 0
3.09524 0 0
3.1746 0 0
3.25397 0 0
3.33333 0 0
3.4127 0 0
3.49206 0 0
3.57143 0 0
3.65079 0 0
3.73016 0 0
3.80952 0 0
3.88889 0 0
3.96825 0 0
4.04762 0 0
4.12698 0 0
4.20635 0 0
4.28571 0 0
4.36508 0 0
4.44444 0 0
4.52381 0 0
4.60317 0 0
4.68254 0 0
4.7619 0 0
4.84127 0 0
4.92063 0 0
5 0.0769231 0
5 0.153846 0
5 0.230769 0
5 0.307692 0
5 0.384615 0
5 0.461538 0
5 0.538462 0
5 0.615385 0
5 0.692308 0
5 0.769231 0
5 0.846154 0
5 0.923077 0
4.92063 1 0
4.84127 1 0
4.7619 1 0
4.68254 1 0
4.60317 1 0
4.52381 1 0
4.44444 1 0
4.36508 1 0
4.28571 1 0
4.20635 1 0
4.12698 1 0
4.04762 1 0
3.96825 1 0
3.88889 1 0
3.80952 1 0
3.73016 1 0
3.65079 1 0
3.57143 1 0
3.49206 1 0
3.4127 1 0
3.33333 1 0
3.25397 1 0
3.1746 1 0
3.09524 1 0
3.01587 1 0
2.93651 1 0
2.85714 1 0
2.77778 1 0
2.69841 1 0
2.61905 1 0
2.53968 1 0
2.46032 1 0
2.38095 1 0
2.30159 1 0
2.22222 1 0
2.14286 1 0
2.06349 1 0
1.98413 1 0
1.90476 1 0
1.8254 1 0
1.74603 1 0
1.66667 1 0
1.5873 1 0
1.50794 1 0
1.42857 1 0
1.34921 1 0
1.26984 1 0
1.19048 1 0
1.11111 1 0
1.03175 1 0
0.952381 1 0
0.873016 1 0
0.793651 1 0
0.714286 1 0
0.634921 1 0
0.555556 1 0
0.47619 1 0
0.396825 1 0
0.31746 1 0
0.238095 1 0
0.15873 1 0
0.0793651 1 0
0 0.923077 0
0 0.846154 0
0 0.769231 0
0 0.692308 0
0 0.615385 0
0 0.538462 0
0 0.461538 0
0 0.384615 0
0 0.307692 0
0 0.230769 0
0 0.153846 0
0 0.0769231 0
0.879698 0.466718 0
1.3085 0.931947 0
1.30532 0.0638546 0
4.93832 0.504275 0
0.620452 0.46964 0
3.99858 0.0669607 0
1.63721 0.934258 0
3.3751 0.0523709 0
4.3254 0.0687322 0
2.42354 0.0642082 0
2.97619 0.0687322 0
2.02101 0.0693621 0
3.68108 0.0581336 0
2.65899 0.932655 0
4.178 0.939994 0
3.21614 0.938179 0
2.25483 0.919987 0
3.53215 0.928998 0
3.84921 0.931268 0
1.69647 0.0674297 0
1.94349 0.930209 0
4.48413 0.931268 0
2.97813 0.942022 0
2.74097 0.0673855 0
0.859645 0.573263 0
0.639718 0.573116 0
0.0651563 0.652836 0
0.0635304 0.346121 0
4.56232 0.0679683 0
0.830393 0.392645 0
0.669618 0.39275 0
1.06185 0.0668897 0
0.440193 0.0680031 0
1.06474 0.93511 0
0.446074 0.935974 0
0.724697 0.630698 0
4.72268 0.931235 0
4.93065 0.267192 0
0.589836 0.936152 0
0.92338 0.0562425 0
0.590207 0.0623339 0
0.755872 0.0732784 0
0.838039 0.936714 0
4.92573 0.732039 0
0.281717 0.93783 0
0.28208 0.0811877 0
0.065248 0.503161 0
1.46076 0.0637037 0
4.72574 0.0661877 0
4.31028 0.937908 0
3.21429 0.0687322 0
1.46639 0.932632 0
3.6897 0.928155 0
2.42063 0.931268 0
3.5364 0.0691789 0
2.25998 0.0676208 0
1.78735 0.937047 0
4.01535 0.920637 0
1.85469 0.0674188 0
3.83991 0.0626292 0
3.37477 0.929368 0
2.58225 0.0657863 0
2.81746 0.932342 0
4.16667 0.0687322 0
2.11402 0.935574 0
0.0614266 0.197046 0
0.0612841 0.803003 0
4.88273 0.0644126 0
4.87774 0.933272 0
0.859645 0.426737 0
0.903081 0.436592 0
0.923672 0.473385 0
0.948706 0.439078 0
0.969155 0.479795 0
0.996593 0.439791 0
1.0202 0.484937 0
1.04667 0.440138 0
1.07382 0.489694 0
1.1034 0.440801 0
1.13169 0.49612 0
1.16603 0.445058 0
1.1931 0.504331 0
1.22956 0.450883 0
1.25923 0.506004 0
1.29683 0.453139 0
1.32923 0.510343 0
1.36603 0.454344 0
1.03276 0.530395 0
1.40063 0.516169 0
1.43576 0.454934 0
1.47042 0.520776 0
1.51069 0.46142 0
1.54422 0.526371 0
1.58547 0.465572 0
1.61942 0.531773 0
1.66033 0.468788 0
1.69546 0.536793 0
1.73713 0.472812 0
1.77239 0.541977 0
1.81532 0.478494 0
1.85006 0.547285 0
1.89327 0.483449 0
1.92802 0.55361 0
1.97142 0.488546 0
2.00623 0.558966 0
2.04984 0.493518 0
2.08483 0.564085 0
2.12847 0.498462 0
2.16353 0.569137 0
2.20719 0.503331 0
0.961579 0.391697 0
1.22451 0.565337 0
2.24238 0.574192 0
2.28611 0.508258 0
2.32134 0.579247 0
2.36519 0.513325 0
2.40036 0.584295 0
2.44425 0.51834 0
2.47944 0.589336 0
2.52334 0.523355 0
2.55853 0.594372 0
2.60245 0.52837 0
2.63764 0.599431 0
2.68159 0.533388 0
2.64637 0.462336 0
2.72553 0.467349 0
2.76076 0.538418 0
2.8047 0.47237 0
2.83993 0.543451 0
2.88387 0.477399 0
2.91911 0.548482 0
2.96305 0.482427 0
2.9983 0.553514 0
3.04224 0.487456 0
3.07749 0.558545 0
3.12143 0.492477 0
3.15668 0.563574 0
3.20063 0.497514 0
3.23588 0.568605 0
3.27983 0.502542 0
3.31508 0.573635 0
3.35903 0.507562 0
3.39428 0.578663 0
3.43823 0.5126 0
3.47348 0.583694 0
3.51744 0.517628 0
3.55268 0.588724 0
3.59664 0.522646 0
3.63189 0.593752 0
3.67585 0.527673 0
3.71109 0.598781 0
3.75505 0.532702 0
3.7903 0.60381 0
3.83426 0.537731 0
3.79901 0.466623 0
3.87821 0.471754 0
3.91346 0.542777 0
3.95742 0.476701 0
3.99267 0.547795 0
4.03662 0.481715 0
4.07187 0.552815 0
4.11582 0.486743 0
4.15106 0.55783 0
4.195 0.491782 0
4.23023 0.562843 0
4.27415 0.49682 0
4.30937 0.567866 0
4.35325 0.501915 0
4.38842 0.572845 0
4.43227 0.506997 0
4.46737 0.577575 0
4.51106 0.511995 0
4.54622 0.582183 0
1.13571 0.390292 0
4.47606 0.441361 0
4.55475 0.446396 0
2.32985 0.442214 0
3.5614 0.451571 0
3.08619 0.421408 0
2.09339 0.427815 0
1.42887 0.583001 0
2.84864 0.406329 0
3.32378 0.43649 0
4.23911 0.425894 0
1.54723 0.39251 0
1.77883 0.406811 0
1.33959 0.387065 0
3.92239 0.405803 0
4.08079 0.415776 0
2.48812 0.452349 0
1.57935 0.603183 0
1.93602 0.417543 0
1.72453 0.617973 0
3.11273 0.629643 0
2.69029 0.396284 0
3.94662 0.623383 0
1.88466 0.613248 0
2.79598 0.609502 0
4.10826 0.620575 0
2.04005 0.62838 0
2.95434 0.619575 0
4.51981 0.375801 0
4.59833 0.380943 0
4.63314 0.451296 0
4.26693 0.63114 0
2.19619 0.645921 0
4.4246 0.642296 0
3.27112 0.639707 0
2.35729 0.649822 0
2.51462 0.660373 0
3.42952 0.649769 0
4.67669 0.38601 0
3.58793 0.659829 0
3.74634 0.669888 0
4.64195 0.315733 0
4.44109 0.370647 0
4.48493 0.305066 0
4.40614 0.29989 0
4.71136 0.456133 0
4.72014 0.320758 0
0.8692 0.382093 0
0.841252 0.348256 0
0.886481 0.338703 0
0.853127 0.301457 0
0.902583 0.287335 0
0.801683 0.321689 0
0.818113 0.263019 0
0.764765 0.277091 0
4.44702 0.235678 0
0.946267 0.520761 0
0.78107 0.221265 0
0.726309 0.234724 0
0.848273 0.20551 0
4.68545 0.250576 0
4.37074 0.227561 0
4.76365 0.255792 0
4.79822 0.326145 0
0.713664 0.287231 0
0.672358 0.247957 0
0.68673 0.192342 0
0.630368 0.2085 0
0.616569 0.265341 0
0.574186 0.225456 0
0.557393 0.28131 0
0.52004 0.242373 0
0.504416 0.299685 0
0.462273 0.252096 0
0.44798 0.316739 0
0.404567 0.276951 0
0.390546 0.335414 0
0.434669 0.37657 0
0.377935 0.394545 0
0.421979 0.43426 0
0.365682 0.452846 0
0.409646 0.492216 0
0.353389 0.51089 0
0.397738 0.551598 0
0.339864 0.570301 0
0.385899 0.612153 0
0.325913 0.631557 0
0.344507 0.29318 0
0.320568 0.413067 0
0.373553 0.673852 0
0.434438 0.653082 0
0.311416 0.69481 0
0.449777 0.528305 0
0.293513 0.534612 0
0.421431 0.715204 0
0.480917 0.696603 0
0.54504 0.34471 0
0.262743 0.649913 0
0.246209 0.712341 0
0.468564 0.755948 0
0.526091 0.735423 0
0.538207 0.68039 0
0.581228 0.716342 0
0.408756 0.777952 0
0.36234 0.239019 0
0.297047 0.251925 0
0.572109 0.771575 0
0.624906 0.752173 0
0.474824 0.414151 0
0.534351 0.182707 0
0.633682 0.70159 0
0.674547 0.736174 0
0.66826 0.788959 0
0.721117 0.76834 0
0.714515 0.825486 0
0.769074 0.802008 0
0.775287 0.746591 0
0.821903 0.778625 0
0.826767 0.726064 0
0.873257 0.756032 0
0.872997 0.697261 0
0.92331 0.732304 0
0.930014 0.67838 0
0.976061 0.710612 0
0.92456 0.784469 0
0.982178 0.654421 0
1.03016 0.688004 0
1.02037 0.747059 0
1.08 0.723819 0
1.08651 0.661896 0
1.1397 0.698204 0
1.13262 0.763657 0
1.19424 0.736545 0
1.18556 0.80161 0
1.24839 0.771772 0
1.25723 0.706382 0
1.31432 0.745787 0
4.66801 0.521361 0
4.74602 0.526202 0
4.70285 0.591278 0
4.78076 0.596023 0
4.73763 0.661207 0
4.78904 0.460969 0
2.61113 0.391267 0
2.65506 0.325217 0
2.57588 0.320198 0
2.61982 0.254148 0
2.69899 0.259163 0
2.54065 0.249131 0
2.49672 0.315179 0
2.46148 0.244124 0
2.41757 0.310166 0
2.38233 0.239117 0
2.33843 0.30514 0
2.30297 0.237979 0
2.25928 0.300748 0
2.22079 0.221377 0
2.17969 0.293884 0
2.14114 0.224266 0
2.10047 0.289841 0
2.0653 0.219144 0
2.02202 0.284919 0
1.98701 0.214164 0
1.94336 0.279863 0
3.82315 0.673327 0
3.78135 0.738156 0
3.86451 0.735958 0
3.70234 0.735494 0
4.52513 0.244409 0
4.32717 0.294467 0
4.29217 0.221862 0
0.619934 0.539507 0
0.599432 0.577132 0
0.575955 0.542712 0
0.554504 0.58245 0
4.65962 0.656481 0
4.69438 0.726169 0
4.6161 0.721747 0
4.77259 0.731352 0
4.65076 0.791486 0
4.57153 0.788793 0
4.2482 0.289182 0
4.21307 0.218308 0
4.1691 0.284563 0
4.13394 0.21352 0
0.835918 0.606341 0
0.806475 0.6384 0
4.08995 0.279537 0
0.640355 0.426737 0
0.596214 0.435837 0
0.630358 0.379178 0
0.689967 0.627735 0
1.90832 0.209948 0
1.86468 0.27519 0
1.82968 0.20518 0
1.78607 0.269797 0
0.281841 0.313314 0
0.232117 0.268621 0
0.216861 0.334396 0
4.05473 0.209347 0
4.01077 0.2745 0
3.97554 0.204394 0
3.93159 0.269388 0
0.297409 0.759367 0
0.231645 0.782943 0
0.180008 0.73598 0
1.32151 0.676369 0
1.38055 0.718092 0
1.36901 0.793947 0
1.43945 0.766002 0
0.249902 0.198865 0
0.932364 0.624392 0
1.75117 0.201034 0
1.70771 0.264658 0
1.673 0.195402 0
1.62985 0.260294 0
1.59532 0.191927 0
1.55236 0.254233 0
3.89629 0.200227 0
3.85238 0.264494 0
3.81708 0.195303 0
3.77304 0.259453 0
2.66368 0.189084 0
2.74279 0.19534 0
2.77814 0.264556 0
2.82201 0.199823 0
2.85733 0.269552 0
2.90126 0.203886 0
2.93654 0.274416 0
2.98045 0.20868 0
3.01573 0.279376 0
3.0597 0.213193 0
[...]
CELL_DATA 2220
VECTORS velocity double
4.15562 -0.264817 0.0
3.55991 0.2148 0.0
7.204 1.77574 0.0
7.17251 0.626637 0.0
4.2229 -0.339353 0.0
4.15881 -0.227419 0.0
3.18621 0.212361 0.0
3.3644 0.011086 0.0
6.19093 3.89951 0.0
4.10923 -0.126953 0.0
4.12164 12.7321 0.0
3.25174 0.182637 0.0
2.78374 0.123775 0.0
5.87387 -1.57003 0.0
6.47012 11.5215 0.0
2.01947 5.13133 0.0
3.51054 0.160487 0.0
3.01234 0.233727 0.0
3.261 -0.0649666 0.0
3.34477 -0.0354957 0.0
6.49051 1.26467 0.0
13.9392 -4.58802 0.0
3.29589 0.228318 0.0
3.33253 0.259607 0.0
3.80445 -0.251945 0.0
5.51541 -1.18094 0.0
6.86938 -0.572516 0.0
3.03991 0.269391 0.0
7.12493 0.602027 0.0
7.74396 0.521313 0.0
2.4726 -1.03601 0.0
8.94347 0.318686 0.0
2.71606 -0.0673157 0.0
9.43816 -8.19022 0.0
12.9147 0.921662 0.0
4.21008 -0.241336 0.0
13.5421 1.49791 0.0
2.90418 -0.0465767 0.0
7.79775 0.67129 0.0
8.33863 -0.42337 0.0
4.7084 -0.294683 0.0
6.20691 3.14262 0.0
6.34544 0.567151 0.0
3.20307 0.0044785 0.0
3.01224 0.0600428 0.0
2.80975 0.0165193 0.0
3.26502 0.257868 0.0
2.83898 0.00825162 0.0
4.12758 -0.11353 0.0
4.15594 -0.00660891 0.0
5.42644 0.948486 0.0
2.72183 0.0336442 0.0
3.23377 0.279324 0.0
3.13502 0.038612 0.0
3.11116 0.16803 0.0
8.34127 -0.589286 0.0
9.45395 0.120858 0.0
2.91012 0.24185 0.0
2.98452 0.257456 0.0
4.24943 -0.039353 0.0
0.757693 -0.467377 0.0
4.03197 -0.35871 0.0
3.06092 -1.29089 0.0
3.26783 0.294044 0.0
3.26274 0.230073 0.0
9.62355 -6.24126 0.0
6.29167 -0.584014 0.0
3.03923 4.17916 0.0
2.97908 0.238307 0.0
2.97653 0.287803 0.0
3.11702 0.0954354 0.0
9.79449 7.08536 0.0
2.68642 0.100645 0.0
4.16954 0.106353 0.0
19.8603 -1.59859 0.0
10.9294 -0.111999 0.0
3.7685 1.05199 0.0
4.43523 -0.653204 0.0
4.91704 3.14603 0.0
3.14115 0.0859091 0.0
7.14286 0.788738 0.0
8.52484 0.758529 0.0
5.37757 -0.161255 0.0
2.78099 0.0869719 0.0
3.21811 0.231583 0.0
3.2042 0.133415 0.0
4.10286 -0.356045 0.0
2.87054 0.129235 0.0
2.892 0.193699 0.0
6.73437 4.30884 0.0
21.7108 -4.08969 0.0
5.07088 1.07784 0.0
3.20783 -0.069592 0.0
5.3163 1.25655 0.0
10.1634 0.159735 0.0
8.42952 0.545342 0.0
15.2141 3.7188 0.0
-2.93079 -15.7131 0.0
1.26761 -0.48446 0.0
8.19325 8.45461 0.0
-9.00121 -17.068 0.0
4.85636 -0.823189 0.0
3.23727 0.265826 0.0
3.08956 0.292824 0.0
13.0642 -3.70697 0.0
11.7917 -0.518397 0.0
4.11445 -0.200009 0.0
4.24435 -0.264876 0.0
1.33781 -0.0365217 0.0
3.40193 0.300275 0.0
8.08787 0.427488 0.0
6.88771 -2.31844 0.0
4.08494 -0.137728 0.0
4.1706 -0.29114 0.0
4.32869 -0.461785 0.0
2.93675 0.2522 0.0
5.32409 -1.0942 0.0
6.2386 -0.271922 0.0
-1.03927 -20.1527 0.0
7.39982 3.81066 0.0
4.14066 -0.532986 0.0
8.16685 -0.246051 0.0
4.3997 0.803084 0.0
14.6013 -7.38161 0.0
11.8101 0.298064 0.0
-0.764024 -6.75969 0.0
12.7971 -1.01973 0.0
7.2182 0.53616 0.0
5.83585 -1.93439 0.0
-8.82009 6.79135 0.0
3.10469 0.0223018 0.0
17.8593 4.32126 0.0
19.2785 6.05975 0.0
3.50268 0.194085 0.0
7.83589 0.702596 0.0
3.39699 0.218336 0.0
2.69011 0.00966195 0.0
5.90682 -0.852452 0.0
0.77419 -7.09387 0.0
8.87922 0.445997 0.0
6.19631 -1.16949 0.0
3.20231 -0.00598104 0.0
4.33163 -0.616561 0.0
11.2399 -0.0228352 0.0
4.14291 0.0960452 0.0
5.23013 1.1194 0.0
-13.2237 7.6794 0.0
0.105951 -16.6088 0.0
4.59562 0.384928 0.0
4.24936 -0.343644 0.0
3.07971 0.0325965 0.0
7.47967 3.13061 0.0
8.35536 0.0150222 0.0
13.7856 -9.4641 0.0
2.98796 0.299365 0.0
3.58259 0.0958687 0.0
7.02977 -0.728116 0.0
3.61327 0.141588 0.0
4.94876 -0.491935 0.0
4.74504 -0.808218 0.0
16.0655 7.79309 0.0
2.99447 0.0147653 0.0
-13.3813 -7.96909 0.0
8.98285 -0.169385 0.0
2.71977 0.0426828 0.0
10.5316 -8.55061 0.0
4.72123 -8.47436 0.0
12.0969 0.239652 0.0
3.54777 0.0615892 0.0
16.3902 11.0481 0.0
-9.08549 13.1657 0.0
2.81145 0.0562723 0.0
3.19047 0.0261548 0.0
-9.13244 -7.18072 0.0
-3.82748 -2.99339 0.0
4.65628 2.64785 0.0
3.30684 1.17256 0.0
3.78513 2.62816 0.0
3.01863 -0.413045 0.0
3.48044 0.0324842 0.0
8.2098 -0.108938 0.0
5.21101 -0.874065 0.0
13.8691 -16.3547 0.0
-4.90828 11.2022 0.0
3.45601 0.0250234 0.0
3.50389 -0.460521 0.0
13.3304 0.117769 0.0
2.93707 -0.0205531 0.0
14.9034 2.77479 0.0
12.0918 0.166076 0.0
5.51062 -0.5875 0.0
2.91791 -0.0884077 0.0
6.62323 -2.66153 0.0
4.57143 0.306103 0.0
6.88582 -0.313343 0.0
13.3589 -0.168727 0.0
3.81422 0.132701 0.0
3.18686 -0.0272179 0.0
2.58651 -0.157742 0.0
3.39454 0.00387592 0.0
3.07396 -0.0122144 0.0
3.67746 0.00157195 0.0
11.5609 -6.60679 0.0
3.27829 0.0703019 0.0
4.79062 0.390653 0.0
4.51138 -0.63556 0.0
6.81753 -1.0263 0.0
3.19412 0.0632312 0.0
3.95303 -0.0173633 0.0
2.51057 -0.259038 0.0
3.22448 0.23027 0.0
4.30726 17.4729 0.0
3.73838 -0.0516576 0.0
4.50422 3.85813 0.0
4.11222 1.27433 0.0
3.49684 0.0225571 0.0
2.90607 0.215347 0.0
3.30274 0.250991 0.0
3.50851 0.474996 0.0
19.7709 0.943957 0.0
4.11279 0.0368981 0.0
1.96456 -0.0490955 0.0
2.96894 0.233697 0.0
1.92176 -0.00350188 0.0
3.28814 0.0339942 0.0
3.55882 -0.00866258 0.0
3.83001 -0.467952 0.0
7.18241 13.1968 0.0
7.65974 -1.53134 0.0
4.15813 0.271067 0.0
3.78963 0.0134597 0.0
3.93102 -0.197484 0.0
2.63528 -0.0149069 0.0
3.34402 0.00337486 0.0
4.24088 -0.167708 0.0
10.2128 0.11554 0.0
-4.5151 -4.49447 0.0
3.22165 -0.0837034 0.0
3.20591 -0.098253 0.0
3.0676 -0.0109283 0.0
10.5279 -0.318459 0.0
12.5786 6.45491 0.0
12.3224 -2.05017 0.0
2.21469 0.0287118 0.0
3.62185 0.212347 0.0
4.09317 -0.04169 0.0
3.39127 0.0202083 0.0
7.92193 -0.30083 0.0
2.6617 0.342814 0.0
6.60506 0.478582 0.0
3.4697 -0.174581 0.0
2.2117 -0.0144042 0.0
3.61096 -7.89745 0.0
4.18074 -0.0361189 0.0
3.86632 -1.87125 0.0
3.20768 0.166426 0.0
-13.8059 1.3856 0.0
4.09137 -0.0133763 0.0
6.96241 0.187212 0.0
9.8969 0.156226 0.0
3.44712 -0.12895 0.0
8.29022 -0.135866 0.0
4.10414 0.33401 0.0
5.49622 -1.08244 0.0
2.12102 -0.0898317 0.0
3.60284 -0.0199022 0.0
3.15978 -0.0205474 0.0
-1.59829 -2.4279 0.0
5.64282 1.20848 0.0
4.09834 -0.0501211 0.0
4.12848 0.140826 0.0
4.42256 0.0209237 0.0
2.87569 0.146298 0.0
4.30651 -0.298443 0.0
-5.49458 -8.34394 0.0
11.985 -1.16304 0.0
12.8844 -14.04 0.0
0.693931 -1.00446 0.0
4.06516 0.651939 0.0
5.12414 0.029007 0.0
-1.22684 -10.6465 0.0
7.74806 -0.153071 0.0
10.6793 -0.022378 0.0
3.80642 0.124128 0.0
4.24633 -0.274205 0.0
3.58223 -0.000657045 0.0
9.46119 -0.375568 0.0
3.68138 0.156525 0.0
2.92617 -0.0723417 0.0
2.88157 -0.0825928 0.0
-13.7931 -1.73005 0.0
3.34476 -0.181476 0.0
2.78599 0.393893 0.0
3.4836 -0.0659372 0.0
3.69782 -0.264871 0.0
3.63287 -0.0603086 0.0
3.63078 -0.056003 0.0
6.80377 0.141732 0.0
11.7839 -1.65025 0.0
4.31955 1.11064 0.0
2.85199 -0.0113997 0.0
4.91369 2.16122 0.0
6.69593 -1.83136 0.0
3.4158 0.0366863 0.0
2.75862 -6.00715 0.0
3.52593 0.0961871 0.0
2.84843 0.00432213 0.0
2.8947 -0.0923375 0.0
5.77676 0.143747 0.0
2.4488 0.290659 0.0
4.21614 0.524154 0.0
1.98618 0.0434719 0.0
-2.81751 15.8369 0.0
11.1847 -0.428088 0.0
10.4981 7.9713 0.0
3.19194 -0.0852597 0.0
3.76393 2.00845 0.0
4.33205 0.124726 0.0
10.0845 -0.19521 0.0
4.57794 1.20384 0.0
12.599 13.9155 0.0
4.52917 0.75984 0.0
4.07809 -0.00384168 0.0
4.43897 -0.0382389 0.0
2.09461 0.0582335 0.0
3.76582 -0.411797 0.0
4.43586 0.060209 0.0
4.16881 0.155798 0.0
4.12023 0.0343521 0.0
3.39516 -0.435695 0.0
3.23974 -4.74011 0.0
11.5957 0.208335 0.0
1.53507 -1.47055 0.0
4.1311 -0.258378 0.0
8.79317 -4.70951 0.0
10.1802 -0.363884 0.0
7.42538 -0.517246 0.0
5.4052 2.05833 0.0
8.24238 -0.395781 0.0
3.1989 -0.0974909 0.0
2.87795 0.231186 0.0
3.00861 -0.109487 0.0
2.6213 0.009769 0.0
2.32486 -0.182187 0.0
10.1921 15.2055 0.0
5.74193 2.83206 0.0
2.96948 0.138287 0.0
5.06465 1.45797 0.0
4.63259 0.669182 0.0
1.93036 -0.211938 0.0
9.84558 -3.3704 0.0
1.76396 0.185638 0.0
2.64662 0.0309655 0.0
0.25091 5.33687 0.0
2.16044 0.208031 0.0
10.4442 -0.0449586 0.0
10.2335 -4.49996 0.0
1.31056 -0.0635114 0.0
4.11258 0.0862471 0.0
8.49706 -0.6042 0.0
4.73848 0.671903 0.0
-0.295499 16.5689 0.0
6.29756 1.67399 0.0
4.83332 0.991332 0.0
2.42691 0.174963 0.0
4.35686 0.0520608 0.0
13.7455 4.3466 0.0
1.69553 -0.204338 0.0
2.55973 -0.121702 0.0
8.34066 -0.328941 0.0
1.75145 0.20551 0.0
14.1066 -3.42281 0.0
10.1998 4.99717 0.0
3.57787 -0.0766907 0.0
1.84616 -0.0257689 0.0
5.074 0.222826 0.0
3.9891 0.12772 0.0
3.85295 0.0666785 0.0
9.92483 0.0110051 0.0
3.7231 -0.0499718 0.0
4.77031 0.130894 0.0
10.135 0.209183 0.0
10.5127 -0.190135 0.0
4.10707 0.00366098 0.0
9.63473 0.360763 0.0
4.16948 -0.0185015 0.0
11.7923 -2.44359 0.0
4.08057 -0.00409801 0.0
6.15112 -1.5216 0.0
4.64795 0.471023 0.0
4.06386 0.34513 0.0
4.3255 0.0323654 0.0
7.80269 -0.298679 0.0
3.27517 -1.85668 0.0
3.97724 -0.413274 0.0
3.57271 -0.3725 0.0
9.66369 0.161136 0.0
3.83044 0.287741 0.0
4.08953 0.00665692 0.0
9.50403 0.313047 0.0
3.40685 0.130426 0.0
7.84735 1.20877 0.0
4.81841 0.811048 0.0
4.09346 -0.00911978 0.0
13.1876 4.70122 0.0
12.8347 2.27234 0.0
2.5227 0.156762 0.0
2.27955 0.231706 0.0
7.17031 0.261112 0.0
7.16258 -5.50672 0.0
0.871897 -8.77604 0.0
2.21692 0.208085 0.0
10.0775 0.241121 0.0
4.09637 -1.43588 0.0
9.49617 -0.256935 0.0
4.08343 -0.0174305 0.0
2.28775 -0.0738625 0.0
1.49489 0.166901 0.0
6.64532 2.68538 0.0
2.53741 0.113231 0.0
4.77964 1.48401 0.0
9.15857 0.368059 0.0
2.23521 0.00693357 0.0
2.54082 -0.0492259 0.0
4.7036 0.567215 0.0
4.04255 0.0370091 0.0
2.20911 0.086027 0.0
4.09198 -0.0611676 0.0
4.10051 0.022463 0.0
2.37031 -0.200317 0.0
4.10284 0.0046579 0.0
4.69604 0.567431 0.0
9.64111 -0.436303 0.0
4.50625 0.387489 0.0
3.50772 -0.334462 0.0
14.6319 3.8293 0.0
2.1726 -0.203065 0.0
3.44284 0.215604 0.0
2.35312 -4.16323 0.0
2.67292 0.224223 0.0
4.86467 0.789457 0.0
4.58742 0.437379 0.0
11.4269 1.8631 0.0
12.299 1.31957 0.0
4.87037 -0.511969 0.0
6.09348 0.958598 0.0
9.38738 0.291353 0.0
1.3871 -0.0896821 0.0
1.2832 0.111365 0.0
3.16138 -0.0128983 0.0
5.01759 0.481467 0.0
4.11636 -0.11566 0.0
3.60387 -0.202033 0.0
7.27203 0.28831 0.0
4.30192 0.206228 0.0
2.07032 0.195485 0.0
5.08739 0.32044 0.0
5.0077 1.17841 0.0
3.42243 0.177464 0.0
4.31995 0.274511 0.0
4.54278 0.434146 0.0
4.06269 0.0267486 0.0
2.82448 -0.224709 0.0
2.198 0.156157 0.0
3.18835 0.163827 0.0
3.73965 0.031807 0.0
2.84414 -0.0178412 0.0
4.11996 0.0190808 0.0
2.20089 0.0505257 0.0
11.5609 0.688691 0.0
2.16559 -0.0288234 0.0
1.31015 0.123676 0.0
5.96432 -0.645887 0.0
5.34672 1.68638 0.0
2.22712 -0.156358 0.0
4.05847 0.0206469 0.0
4.41361 0.341419 0.0
7.37944 1.20326 0.0
4.12707 0.0353562 0.0
4.37313 0.350753 0.0
3.88674 -0.404645 0.0
9.26164 -3.54756 0.0
4.49025 -0.590265 0.0
4.203 0.270248 0.0
3.34196 -0.33926 0.0
3.5245 0.356709 0.0
9.32598 -0.0264645 0.0
1.16133 0.100195 0.0
9.26095 -0.473881 0.0
3.83724 0.154159 0.0
4.15662 0.0380758 0.0
1.21541 0.107059 0.0
1.44603 -0.115552 0.0
4.23304 0.235831 0.0
5.74134 2.33031 0.0
3.94162 -0.0707689 0.0
7.81923 -0.333598 0.0
4.3266 0.0382316 0.0
7.59584 -0.322408 0.0
3.5557 -0.143901 0.0
4.04586 -0.0396479 0.0
4.56746 0.48847 0.0
1.25032 -0.0311931 0.0
4.09539 0.189506 0.0
3.89471 0.0683123 0.0
3.06888 -0.0353914 0.0
4.09767 0.00958921 0.0
2.20053 -0.19396 0.0
2.42253 0.19337 0.0
4.7367 0.659382 0.0
4.06721 -0.0455533 0.0
4.11408 -0.126793 0.0
3.31618 -0.0619314 0.0
4.10069 0.000831064 0.0
4.14848 0.0290256 0.0
3.91913 -1.03141 0.0
1.74854 0.0303834 0.0
4.08866 0.0488481 0.0
4.54097 -0.704302 0.0
4.23318 0.314496 0.0
4.02922 0.0418306 0.0
2.81677 -0.0670242 0.0
8.68928 -6.2011 0.0
2.71265 -0.260035 0.0
6.4638 -7.30751 0.0
4.12925 -0.158245 0.0
4.56417 0.799604 0.0
4.11268 0.00993 0.0
1.80424 -0.042978 0.0
4.04724 0.125903 0.0
4.0427 0.0129515 0.0
4.09394 0.24909 0.0
4.17006 0.0255413 0.0
4.40477 0.385573 0.0
4.08905 0.0831857 0.0
7.48354 -0.3562 0.0
7.87889 -0.938064 0.0
3.08711 -0.125906 0.0
9.326 -0.384008 0.0
2.84049 -0.0475113 0.0
4.06093 -0.0730058 0.0
3.09987 -0.291472 0.0
10.8933 3.90454 0.0
4.16951 0.0214271 0.0
1.7666 -0.160161 0.0
1.80595 0.169169 0.0
4.06087 0.0521545 0.0
9.22828 0.404725 0.0
4.01033 0.0897466 0.0
3.66622 0.0499113 0.0
1.39889 0.000649341 0.0
2.09007 -0.0147675 0.0
1.84967 0.0270027 0.0
1.62035 0.0908868 0.0
2.65423 -0.168725 0.0
4.51725 -1.11004 0.0
4.17642 0.0232879 0.0
11.9764 2.9139 0.0
0.857652 0.068126 0.0
3.91171 -0.0208912 0.0
3.97445 -0.0234445 0.0
4.00156 -0.0454535 0.0
3.93973 0.115954 0.0
0.911477 -0.0923197 0.0
1.68541 -0.114188 0.0
4.03302 0.123838 0.0
6.79558 0.417799 0.0
4.02483 0.180273 0.0
3.71519 -0.0301416 0.0
4.08211 0.000134752 0.0
11.193 -0.0907423 0.0
4.10988 -0.00601805 0.0
4.02711 0.0719856 0.0
4.15801 0.00904579 0.0
2.26854 -0.165615 0.0
4.69237 1.80088 0.0
4.0875 0.0195363 0.0
4.06293 0.0296141 0.0
4.09129 0.00539349 0.0
4.07775 -0.0371314 0.0
2.19375 0.0984278 0.0
4.0513 0.0312452 0.0
1.83405 -0.0132503 0.0
3.19574 0.322099 0.0
3.70098 0.0411023 0.0
3.98725 0.0774169 0.0
3.98329 0.122825 0.0
4.11314 0.0054611 0.0
4.09999 0.0198068 0.0
4.10767 0.0125336 0.0
1.11373 0.086723 0.0
1.91677 0.149782 0.0
1.83943 -0.00952885 0.0
4.04065 0.0597375 0.0
4.04244 0.037055 0.0
10.9929 -0.133848 0.0
1.79507 0.0115752 0.0
4.10167 -0.0109832 0.0
4.09963 0.0239947 0.0
3.4199 0.229392 0.0
4.04303 0.0155675 0.0
1.03172 0.0043955 0.0
3.98534 -0.00303058 0.0
4.06386 -0.0105869 0.0
4.14083 -0.0428395 0.0
3.72927 -0.067062 0.0
3.61472 -0.0701385 0.0
3.94981 -0.0206546 0.0
2.7286 -0.163817 0.0
11.5966 -0.532294 0.0
4.03562 0.0452726 0.0
4.08711 -0.0506986 0.0
4.07424 0.0457765 0.0
3.98521 0.0736022 0.0
3.24793 0.0316811 0.0
4.04767 0.049139 0.0
4.32034 -0.430907 0.0
4.12365 0.000983624 0.0
2.03662 0.050121 0.0
4.06919 0.0453965 0.0
1.09387 -0.0127212 0.0
4.06968 0.0471697 0.0
4.0401 0.0790914 0.0
3.98675 0.0790605 0.0
0.996265 0.0215743 0.0
8.11479 -4.52465 0.0
4.14272 0.0122065 0.0
4.09672 0.0284812 0.0
3.98129 -0.00185269 0.0
4.10811 -0.0142456 0.0
4.10697 0.0587982 0.0
4.03351 0.0696221 0.0
4.07066 0.0330961 0.0
4.16882 0.0297121 0.0
4.01398 0.0969495 0.0
1.13169 0.0190364 0.0
2.9084 0.0525931 0.0
4.05151 0.01361 0.0
2.9575 3.23013 0.0
1.05049 -0.0385572 0.0
1.84662 -0.0208384 0.0
5.42077 -5.21084 0.0
4.09207 0.0222045 0.0
4.07135 0.0678217 0.0
2.85822 -0.026337 0.0
4.00097 -0.0276071 0.0
4.00936 -0.0167816 0.0
3.84118 0.119147 0.0
1.92416 0.0475837 0.0
1.10361 -0.00518731 0.0
4.38795 -0.516138 0.0
4.0147 0.063791 0.0
4.09696 -0.0378976 0.0
4.05621 0.0606062 0.0
4.23458 -0.418016 0.0
4.1151 0.0749695 0.0
3.9468 0.106182 0.0
4.06792 -0.00723343 0.0
1.0651 0.00826193 0.0
4.14786 0.0544478 0.0
4.09126 -0.00246036 0.0
1.1139 -0.0201293 0.0
4.07524 0.103258 0.0
4.17257 0.0267952 0.0
4.05323 0.0890882 0.0
4.15584 -0.00350496 0.0
4.01262 -0.0300325 0.0
4.10806 0.00681933 0.0
4.11261 -0.0747268 0.0
4.10907 -0.0415876 0.0
4.17394 0.0260561 0.0
4.12841 -0.0198464 0.0
4.00695 -0.0381122 0.0
1.11184 -0.00713409 0.0
4.10615 -0.00176502 0.0
4.01473 -0.0453262 0.0
1.41323 0.034371 0.0
4.0791 0.00121881 0.0
2.08552 0.065931 0.0
4.16115 0.0474428 0.0
4.01936 -0.0384597 0.0
4.04987 0.0900065 0.0
4.12695 -0.0367367 0.0
4.11571 -0.0141938 0.0
4.04024 0.083164 0.0
3.16846 0.117392 0.0
4.15201 -0.00950094 0.0
4.07417 0.00839494 0.0
4.15078 0.0545336 0.0
1.02734 -0.0114642 0.0
4.03079 0.072846 0.0
4.16762 0.00114678 0.0
4.079 -0.0512643 0.0
2.18265 -0.191286 0.0
3.94087 0.0936798 0.0
2.16237 0.121086 0.0
4.0253 -0.0606134 0.0
4.08677 -0.000486786 0.0
3.9503 0.10218 0.0
3.96823 -0.0218867 0.0
4.0241 -0.0488342 0.0
4.0082 0.121051 0.0
4.06263 -0.0165272 0.0
11.72 6.07454 0.0
4.02195 -0.0276163 0.0
4.06008 0.0160179 0.0
4.05976 0.0870257 0.0
4.05638 0.0715768 0.0
4.05799 0.0929709 0.0
4.02728 -0.0430309 0.0
4.07434 0.0951054 0.0
4.05429 -0.0434589 0.0
4.10473 0.0806382 0.0
3.99336 -0.00497876 0.0
4.09943 -0.0323368 0.0
3.17468 0.137242 0.0
4.0203 0.0653512 0.0
4.0906 0.0986659 0.0
4.06246 -0.0268765 0.0
4.08444 0.0801846 0.0
4.0376 -0.0421883 0.0
4.03773 -0.04455 0.0
1.16381 0.0262662 0.0
4.08967 -0.022015 0.0
3.93977 0.100674 0.0
4.11229 0.0940851 0.0
3.84366 0.0493557 0.0
2.08677 0.0845271 0.0
4.05874 -0.0337613 0.0
4.1168 0.0634932 0.0
4.14018 0.0101964 0.0
3.92595 -0.0349375 0.0
4.05111 -0.0273259 0.0
4.14738 0.0335573 0.0
4.05018 -0.0324852 0.0
4.10567 -0.0281628 0.0
3.82096 0.130135 0.0
4.05939 -0.00683542 0.0
4.13727 0.0989104 0.0
4.08425 0.0448489 0.0
3.07361 -0.0250965 0.0
4.06485 -0.0207957 0.0
3.93693 -0.0569011 0.0
1.21739 0.0545226 0.0
1.923 0.113109 0.0
4.05841 -0.0133902 0.0
4.09678 0.106814 0.0
3.986 -0.0553194 0.0
4.05483 -0.00230526 0.0
4.1418 0.0590445 0.0
3.97177 -0.0360274 0.0
4.03845 -0.0308813 0.0
4.04553 0.0219457 0.0
3.87998 -0.0445139 0.0
3.9476 -0.0347931 0.0
4.1606 0.0781121 0.0
3.88449 -0.0379677 0.0
4.26977 0.10063 0.0
3.99565 -0.0625262 0.0
4.01041 -0.039181 0.0
3.953 -0.0458183 0.0
3.88212 -0.05388 0.0
4.04965 0.0834272 0.0
4.05637 0.00866601 0.0
1.5087 0.0680104 0.0
2.17297 0.101631 0.0
4.16909 0.0181723 0.0
4.15933 -0.00786349 0.0
4.08318 0.118141 0.0
4.02328 0.0296997 0.0
4.02338 -0.0370567 0.0
4.07283 0.0891752 0.0
4.02153 0.039301 0.0
4.06561 0.0702648 0.0
4.08344 -0.0150842 0.0
3.88299 -0.0654457 0.0
3.97898 -0.074119 0.0
4.04969 -0.0395392 0.0
4.0425 0.026905 0.0
4.19359 0.0743304 0.0
4.05314 -0.014166 0.0
3.95896 -0.0557805 0.0
7.78628 2.72816 0.0
3.8244 -0.0530984 0.0
3.96545 -0.0666537 0.0
3.88357 -0.0833138 0.0
4.10143 0.0194954 0.0
3.98509 0.0407077 0.0
4.01629 0.0340565 0.0
4.01384 -0.0590037 0.0
3.82845 -0.0461612 0.0
4.00938 0.0186161 0.0
4.13594 0.113592 0.0
3.89826 -0.0987513 0.0
4.00333 -0.0569939 0.0
3.9502 0.0193017 0.0
3.44955 0.0903969 0.0
4.0326 0.0722738 0.0
3.9273 -0.0744742 0.0
3.14191 0.0581267 0.0
3.82274 -0.0631096 0.0
3.98502 0.0230631 0.0
3.94023 -0.0178069 0.0
4.01533 -0.0204916 0.0
3.84943 -0.0482409 0.0
1.08954 -0.0244462 0.0
1.84893 -0.0442804 0.0
3.38789 0.148382 0.0
3.98475 -0.0365329 0.0
4.03633 -0.00207194 0.0
3.92951 -0.0136582 0.0
3.96131 -0.00374057 0.0
3.92801 0.0306671 0.0
2.11519 0.0694518 0.0
4.21585 0.106332 0.0
1.86908 -0.0456233 0.0
4.20099 0.0305421 0.0
3.93734 -0.0441379 0.0
3.81773 -0.0793576 0.0
3.98968 0.0534469 0.0
3.81384 -0.105322 0.0
4.22589 0.00151853 0.0
3.93607 0.0612178 0.0
1.11282 -0.0227812 0.0
1.85314 -0.0440303 0.0
4.03172 -0.0353152 0.0
1.23377 0.0418559 0.0
3.95277 -0.0368001 0.0
3.84632 -0.104008 0.0
3.8707 -0.045002 0.0
3.98381 0.0489816 0.0
3.97932 0.00236652 0.0
4.28102 0.0180732 0.0
3.88417 0.0400637 0.0
3.85645 -0.000967824 0.0
1.85901 -0.0387988 0.0
1.1526 -0.0237433 0.0
3.03596 0.119294 0.0
3.86167 0.0188529 0.0
3.92995 0.0706641 0.0
3.97844 -0.0463182 0.0
3.8658 0.0708033 0.0
4.06845 0.00733618 0.0
3.07117 0.136762 0.0
3.80835 0.0291342 0.0
3.97932 -0.0603928 0.0
3.86883 -0.029778 0.0
1.94723 0.0673888 0.0
1.06441 -0.0117205 0.0
0.914125 -0.027888 0.0
1.10998 -0.0228539 0.0
1.88697 -0.0103222 0.0
2.03672 0.0687276 0.0
1.00327 -0.0034656 0.0
1.12531 0.00685258 0.0
1.84332 -0.048031 0.0
1.07497 -0.0229827 0.0
1.14537 -0.0139928 0.0
1.23844 0.0422892 0.0
1.93896 -0.044616 0.0
1.18801 0.0364511 0.0
1.81252 -0.0190556 0.0
1.15358 0.0359423 0.0
1.92793 -0.0235227 0.0
1.89219 0.0278272 0.0
1.09351 0.0636739 0.0
2.11053 0.056198 0.0
1.84149 -0.0443491 0.0
1.80198 -0.0299508 0.0
1.11298 0.0820935 0.0
1.80308 -0.0153518 0.0
1.88949 0.100788 0.0
1.07761 0.019418 0.0
1.838 -0.0322136 0.0
1.17255 0.0253129 0.0
1.08175 0.048677 0.0
1.76678 -0.0488379 0.0
1.1239 0.0560645 0.0
1.39222 0.0349571 0.0
1.14568 0.0902958 0.0
1.01143 0.0504474 0.0
1.05694 -0.0105833 0.0
1.86952 0.00652681 0.0
1.09835 -0.0272281 0.0
1.11543 -0.0220193 0.0
1.1497 0.0525112 0.0
1.16801 0.0343441 0.0
1.13512 0.0214869 0.0
1.09375 0.0198824 0.0
0.962027 -0.0251628 0.0
1.07865 -0.00920276 0.0
1.33281 0.00215529 0.0
2.0245 -0.00129085 0.0
1.18368 0.015277 0.0
1.39057 0.0386254 0.0
1.8122 0.094067 0.0
1.72335 -0.0583569 0.0
1.07466 -0.0275329 0.0
1.15362 0.0654802 0.0
1.10421 0.016267 0.0
1.89836 0.0470289 0.0
1.02303 0.0521658 0.0
1.14577 0.0345378 0.0
1.0647 -0.0198172 0.0
1.90714 0.0905864 0.0
1.2851 -0.0354197 0.0
0.962867 0.0143626 0.0
1.08948 0.0148837 0.0
0.917377 0.029135 0.0
1.19101 0.0366976 0.0
1.17097 -0.00687938 0.0
1.69751 -0.0256307 0.0
0.840314 -0.00702208 0.0
1.87245 0.109138 0.0
1.95726 0.0614184 0.0
4.06877 -0.0390234 0.0
3.99769 -0.0495682 0.0
4.04955 -0.0205765 0.0
3.80931 -0.0125529 0.0
4.0833 -0.0843418 0.0
4.16946 -0.0317169 0.0