# vtk DataFile Version 3.0
Malha 2D com triângulos e temperatura
ASCII
DATASET UNSTRUCTURED_GRID

POINTS 1194 double
0 0 0
5 0 0
5 1 0
0 1 0
0.85 0.5 0
0.842388 0.538268 0
0.820711 0.570711 0
0.788268 0.592388 0
0.75 0.6 0
0.711732 0.592388 0
0.679289 0.570711 0
0.657612 0.538268 0
0.65 0.5 0
0.657612 0.461732 0
0.679289 0.429289 0
0.711732 0.407612 0
0.75 0.4 0
0.788268 0.407612 0
0.820711 0.429289 0
0.842388 0.461732 0
0.0793651 0 0
0.15873 0 0
0.238095 0 0
0.31746 0 0
0.396825 0 0
0.47619 0 0
0.555556 0 0
0.634921 0 0
0.714286 0 0
0.793651 0 0
0.873016 0 0
0.952381 0 0
1.03175 0 0
1.11111 0 0
1.19048 0 0
1.26984 0 0
1.34921 0 0
1.42857 0 0
1.50794 0 0
1.5873 0 0
1.66667 0 0
1.74603 0 0
1.8254 0 0
1.90476 0 0
1.98413 0 0
2.06349 0 0
2.14286 0 0
2.22222 0 0
2.30159 0 0
2.38095 0 0
2.46032 0 0
2.53968 0 0
2.61905 0 0
2.69841 0 0
2.77778 0 0
2.85714 0 0
2.93651 0 0
3.01587 0 0
3.09524 0 0
3.1746 0 0
3.25397 0 0
3.33333 0 0
3.4127 0 0
3.49206 0 0
3.57143 0 0
3.65079 0 0
3.73016 0 0
3.80952 0 0
3.88889 0 0
3.96825 0 0
4.04762 0 0
4.12698 0 0
4.20635 0 0
4.28571 0 0
4.36508 0 0
4.44444 0 0
4.52381 0 0
4.60317 0 0
4.68254 0 0
4.7619 0 0
4.84127 0 0
4.92063 0 0
5 0.0769231 0
5 0.153846 0
5 0.230769 0
5 0.307692 0
5 0.384615 0
5 0.461538 0
5 0.538462 0
5 0.615385 0
5 0.692308 0
5 0.769231 0
5 0.846154 0
5 0.923077 0
4.92063 1 0
4.84127 1 0
4.7619 1 0
4.68254 1 0
4.60317 1 0
4.52381 1 0
4.44444 1 0
4.36508 1 0
4.28571 1 0
4.20635 1 0
4.12698 1 0
4.04762 1 0
3.96825 1 0
3.88889 1 0
3.80952 1 0
3.73016 1 0
3.65079 1 0
3.57143 1 0
3.49206 1 0
3.4127 1 0
3.33333 1 0
3.25397 1 0
3.1746 1 0
3.09524 1 0
3.01587 1 0
2.93651 1 0
2.85714 1 0
2.77778 1 0
2.69841 1 0
2.61905 1 0
2.53968 1 0
2.46032 1 0
2.38095 1 0
2.30159 1 0
2.22222 1 0
2.14286 1 0
2.06349 1 0
1.98413 1 0
1.90476 1 0
1.8254 1 0
1.74603 1 0
1.66667 1 0
1.5873 1 0
1.50794 1 0
1.42857 1 0
1.34921 1 0
1.26984 1 0
1.19048 1 0
1.11111 1 0
1.03175 1 0
0.952381 1 0
0.873016 1 0
0.793651 1 0
0.714286 1 0
0.634921 1 0
0.555556 1 0
0.47619 1 0
0.396825 1 0
0.31746 1 0
0.238095 1 0
0.15873 1 0
0.0793651 1 0
0 0.923077 0
0 0.846154 0
0 0.769231 0
0 0.692308 0
0 0.615385 0
0 0.538462 0
0 0.461538 0
0 0.384615 0
0 0.307692 0
0 0.230769 0
0 0.153846 0
0 0.0769231 0
0.879698 0.466718 0
1.3085 0.931947 0
1.30532 0.0638546 0
4.93832 0.504275 0
0.620452 0.46964 0
3.99858 0.0669607 0
1.63721 0.934258 0
3.3751 0.0523709 0
4.3254 0.0687322 0
2.42354 0.0642082 0
2.97619 0.0687322 0
2.02101 0.0693621 0
3.68108 0.0581336 0
2.65899 0.932655 0
4.178 0.939994 0
3.21614 0.938179 0
2.25483 0.919987 0
3.53215 0.928998 0
3.84921 0.931268 0
1.69647 0.0674297 0
1.94349 0.930209 0
4.48413 0.931268 0
2.97813 0.942022 0
2.74097 0.0673855 0
0.859645 0.573263 0
0.639718 0.573116 0
0.0651563 0.652836 0
0.0635304 0.346121 0
4.56232 0.0679683 0
0.830393 0.392645 0
0.669618 0.39275 0
1.06185 0.0668897 0
0.440193 0.0680031 0
1.06474 0.93511 0
0.446074 0.935974 0
0.724697 0.630698 0
4.72268 0.931235 0
4.93065 0.267192 0
0.589836 0.936152 0
0.92338 0.0562425 0
0.590207 0.0623339 0
0.755872 0.0732784 0
0.838039 0.936714 0
4.92573 0.732039 0
0.281717 0.93783 0
0.28208 0.0811877 0
0.065248 0.503161 0
1.46076 0.0637037 0
4.72574 0.0661877 0
4.31028 0.937908 0
3.21429 0.0687322 0
1.46639 0.932632 0
3.6897 0.928155 0
2.42063 0.931268 0
3.5364 0.0691789 0
2.25998 0.0676208 0
1.78735 0.937047 0
4.01535 0.920637 0
1.85469 0.0674188 0
3.83991 0.0626292 0
3.37477 0.929368 0
2.58225 0.0657863 0
2.81746 0.932342 0
4.16667 0.0687322 0
2.11402 0.935574 0
0.0614266 0.197046 0
0.0612841 0.803003 0
4.88273 0.0644126 0
4.87774 0.933272 0
0.859645 0.426737 0
0.903081 0.436592 0
0.923672 0.473385 0
0.948706 0.439078 0
0.969155 0.479795 0
0.996593 0.439791 0
1.0202 0.484937 0
1.04667 0.440138 0
1.07382 0.489694 0
1.1034 0.440801 0
1.13169 0.49612 0
1.16603 0.445058 0
1.1931 0.504331 0
1.22956 0.450883 0
1.25923 0.506004 0
1.29683 0.453139 0
1.32923 0.510343 0
1.36603 0.454344 0
1.03276 0.530395 0
1.40063 0.516169 0
1.43576 0.454934 0
1.47042 0.520776 0
1.51069 0.46142 0
1.54422 0.526371 0
1.58547 0.465572 0
1.61942 0.531773 0
1.66033 0.468788 0
1.69546 0.536793 0
1.73713 0.472812 0
1.77239 0.541977 0
1.81532 0.478494 0
1.85006 0.547285 0
1.89327 0.483449 0
1.92802 0.55361 0
1.97142 0.488546 0
2.00623 0.558966 0
2.04984 0.493518 0
2.08483 0.564085 0
2.12847 0.498462 0
2.16353 0.569137 0
2.20719 0.503331 0
0.961579 0.391697 0
1.22451 0.565337 0
2.24238 0.574192 0
2.28611 0.508258 0
2.32134 0.579247 0
2.36519 0.513325 0
2.40036 0.584295 0
2.44425 0.51834 0
2.47944 0.589336 0
2.52334 0.523355 0
2.55853 0.594372 0
2.60245 0.52837 0
2.63764 0.599431 0
2.68159 0.533388 0
2.64637 0.462336 0
2.72553 0.467349 0
2.76076 0.538418 0
2.8047 0.47237 0
2.83993 0.543451 0
2.88387 0.477399 0
2.91911 0.548482 0
2.96305 0.482427 0
2.9983 0.553514 0
3.04224 0.487456 0
3.07749 0.558545 0
3.12143 0.492477 0
3.15668 0.563574 0
3.20063 0.497514 0
3.23588 0.568605 0
3.27983 0.502542 0
3.31508 0.573635 0
3.35903 0.507562 0
3.39428 0.578663 0
3.43823 0.5126 0
3.47348 0.583694 0
3.51744 0.517628 0
3.55268 0.588724 0
3.59664 0.522646 0
3.63189 0.593752 0
3.67585 0.527673 0
3.71109 0.598781 0
3.75505 0.532702 0
3.7903 0.60381 0
3.83426 0.537731 0
3.79901 0.466623 0
3.87821 0.471754 0
3.91346 0.542777 0
3.95742 0.476701 0
3.99267 0.547795 0
4.03662 0.481715 0
4.07187 0.552815 0
4.11582 0.486743 0
4.15106 0.55783 0
4.195 0.491782 0
4.23023 0.562843 0
4.27415 0.49682 0
4.30937 0.567866 0
4.35325 0.501915 0
4.38842 0.572845 0
4.43227 0.506997 0
4.46737 0.577575 0
4.51106 0.511995 0
4.54622 0.582183 0
1.13571 0.390292 0
4.47606 0.441361 0
4.55475 0.446396 0
2.32985 0.442214 0
3.5614 0.451571 0
3.08619 0.421408 0
2.09339 0.427815 0
1.42887 0.583001 0
2.84864 0.406329 0
3.32378 0.43649 0
4.23911 0.425894 0
1.54723 0.39251 0
1.77883 0.406811 0
1.33959 0.387065 0
3.92239 0.405803 0
4.08079 0.415776 0
2.48812 0.452349 0
1.57935 0.603183 0
1.93602 0.417543 0
1.72453 0.617973 0
3.11273 0.629643 0
2.69029 0.396284 0
3.94662 0.623383 0
1.88466 0.613248 0
2.79598 0.609502 0
4.10826 0.620575 0
2.04005 0.62838 0
2.95434 0.619575 0
4.51981 0.375801 0
4.59833 0.380943 0
4.63314 0.451296 0
4.26693 0.63114 0
2.19619 0.645921 0
4.4246 0.642296 0
3.27112 0.639707 0
2.35729 0.649822 0
2.51462 0.660373 0
3.42952 0.649769 0
4.67669 0.38601 0
3.58793 0.659829 0
3.74634 0.669888 0
4.64195 0.315733 0
4.44109 0.370647 0
4.48493 0.305066 0
4.40614 0.29989 0
4.71136 0.456133 0
4.72014 0.320758 0
0.8692 0.382093 0
0.841252 0.348256 0
0.886481 0.338703 0
0.853127 0.301457 0
0.902583 0.287335 0
0.801683 0.321689 0
0.818113 0.263019 0
0.764765 0.277091 0
4.44702 0.235678 0
0.946267 0.520761 0
0.78107 0.221265 0
0.726309 0.234724 0
0.848273 0.20551 0
4.68545 0.250576 0
4.37074 0.227561 0
4.76365 0.255792 0
4.79822 0.326145 0
0.713664 0.287231 0
0.672358 0.247957 0
0.68673 0.192342 0
0.630368 0.2085 0
0.616569 0.265341 0
0.574186 0.225456 0
0.557393 0.28131 0
0.52004 0.242373 0
0.504416 0.299685 0
0.462273 0.252096 0
0.44798 0.316739 0
0.404567 0.276951 0
0.390546 0.335414 0
0.434669 0.37657 0
0.377935 0.394545 0
0.421979 0.43426 0
0.365682 0.452846 0
0.409646 0.492216 0
0.353389 0.51089 0
0.397738 0.551598 0
0.339864 0.570301 0
0.385899 0.612153 0
0.325913 0.631557 0
0.344507 0.29318 0
0.320568 0.413067 0
0.373553 0.673852 0
0.434438 0.653082 0
0.311416 0.69481 0
0.449777 0.528305 0
0.293513 0.534612 0
0.421431 0.715204 0
0.480917 0.696603 0
0.54504 0.34471 0
0.262743 0.649913 0
0.246209 0.712341 0
0.468564 0.755948 0
0.526091 0.735423 0
0.538207 0.68039 0
0.581228 0.716342 0
0.408756 0.777952 0
0.36234 0.239019 0
0.297047 0.251925 0
0.572109 0.771575 0
0.624906 0.752173 0
0.474824 0.414151 0
0.534351 0.182707 0
0.633682 0.70159 0
0.674547 0.736174 0
0.66826 0.788959 0
0.721117 0.76834 0
0.714515 0.825486 0
0.769074 0.802008 0
0.775287 0.746591 0
0.821903 0.778625 0
0.826767 0.726064 0
0.873257 0.756032 0
0.872997 0.697261 0
0.92331 0.732304 0
0.930014 0.67838 0
0.976061 0.710612 0
0.92456 0.784469 0
0.982178 0.654421 0
1.03016 0.688004 0
1.02037 0.747059 0
1.08 0.723819 0
1.08651 0.661896 0
1.1397 0.698204 0
1.13262 0.763657 0
1.19424 0.736545 0
1.18556 0.80161 0
1.24839 0.771772 0
1.25723 0.706382 0
1.31432 0.745787 0
4.66801 0.521361 0
4.74602 0.526202 0
4.70285 0.591278 0
4.78076 0.596023 0
4.73763 0.661207 0
4.78904 0.460969 0
2.61113 0.391267 0
2.65506 0.325217 0
2.57588 0.320198 0
2.61982 0.254148 0
2.69899 0.259163 0
2.54065 0.249131 0
2.49672 0.315179 0
2.46148 0.244124 0
2.41757 0.310166 0
2.38233 0.239117 0
2.33843 0.30514 0
2.30297 0.237979 0
2.25928 0.300748 0
2.22079 0.221377 0
2.17969 0.293884 0
2.14114 0.224266 0
2.10047 0.289841 0
2.0653 0.219144 0
2.02202 0.284919 0
1.98701 0.214164 0
1.94336 0.279863 0
3.82315 0.673327 0
3.78135 0.738156 0
3.86451 0.735958 0
3.70234 0.735494 0
4.52513 0.244409 0
4.32717 0.294467 0
4.29217 0.221862 0
0.619934 0.539507 0
0.599432 0.577132 0
0.575955 0.542712 0
0.554504 0.58245 0
4.65962 0.656481 0
4.69438 0.726169 0
4.6161 0.721747 0
4.77259 0.731352 0
4.65076 0.791486 0
4.57153 0.788793 0
4.2482 0.289182 0
4.21307 0.218308 0
4.1691 0.284563 0
4.13394 0.21352 0
0.835918 0.606341 0
0.806475 0.6384 0
4.08995 0.279537 0
0.640355 0.426737 0
0.596214 0.435837 0
0.630358 0.379178 0
0.689967 0.627735 0
1.90832 0.209948 0
1.86468 0.27519 0
1.82968 0.20518 0
1.78607 0.269797 0
0.281841 0.313314 0
0.232117 0.268621 0
0.216861 0.334396 0
4.05473 0.209347 0
4.01077 0.2745 0
3.97554 0.204394 0
3.93159 0.269388 0
0.297409 0.759367 0
0.231645 0.782943 0
0.180008 0.73598 0
1.32151 0.676369 0
1.38055 0.718092 0
1.36901 0.793947 0
1.43945 0.766002 0
0.249902 0.198865 0
0.932364 0.624392 0
1.75117 0.201034 0
1.70771 0.264658 0
1.673 0.195402 0
1.62985 0.260294 0
1.59532 0.191927 0
1.55236 0.254233 0
3.89629 0.200227 0
3.85238 0.264494 0
3.81708 0.195303 0
3.77304 0.259453 0
2.66368 0.189084 0
2.74279 0.19534 0
2.77814 0.264556 0
2.82201 0.199823 0
2.85733 0.269552 0
2.90126 0.203886 0
2.93654 0.274416 0
2.98045 0.20868 0
3.01573 0.279376 0
3.0597 0.213193 0
[...]
CELL_DATA 2220
VECTORS velocity double
22.9476 -1.9264 0.0
16.8681 0.479453 0.0
24.5915 6.06588 0.0
24.2721 1.13422 0.0
23.3517 -2.284 0.0
30.5 -1.24277 0.0
14.2092 0.459194 0.0
15.8222 -0.0268648 0.0
27.5911 11.2187 0.0
30.0093 -0.86483 0.0
17.7434 16.6444 0.0
15.0883 0.260864 0.0
11.9953 0.191959 0.0
24.1913 -6.65258 0.0
22.4099 15.5737 0.0
19.2443 11.2136 0.0
16.3278 0.755265 0.0
13.185 0.594267 0.0
14.8922 -0.134815 0.0
16.1465 -0.118392 0.0
20.7759 4.61871 0.0
40.12 -6.16744 0.0
15.3405 0.675546 0.0
15.6342 0.551342 0.0
28.219 -1.08992 0.0
22.2314 -5.553 0.0
21.4132 -2.28798 0.0
13.3945 0.537791 0.0
23.9385 1.20282 0.0
26.9576 1.14648 0.0
22.6144 -3.25639 0.0
32.4482 0.130148 0.0
11.0452 -0.118046 0.0
30.6986 -12.74 0.0
47.4249 1.69039 0.0
30.6257 -1.40341 0.0
46.3235 2.54092 0.0
12.9388 -0.124527 0.0
28.2228 1.3918 0.0
27.5047 -1.87184 0.0
13.0181 -1.22852 0.0
27.6579 10.234 0.0
20.3433 0.942429 0.0
14.406 0.00889271 0.0
12.9996 -0.0574868 0.0
11.6643 0.0114201 0.0
15.1017 0.620899 0.0
11.8377 -0.016498 0.0
29.7759 -0.744587 0.0
32.2492 0.502921 0.0
16.4433 3.64343 0.0
11.8646 0.0981399 0.0
14.7874 0.614615 0.0
15.0848 0.112326 0.0
13.617 0.621809 0.0
27.3521 -2.45432 0.0
34.6339 -0.410676 0.0
12.5184 0.545531 0.0
12.952 0.550847 0.0
32.6082 0.384265 0.0
-0.0364951 -5.33898 0.0
29.369 -1.72467 0.0
24.2978 -4.36131 0.0
15.1585 0.608895 0.0
14.9735 0.678749 0.0
33.1415 -11.3336 0.0
19.0643 -1.1332 0.0
21.8008 10.5029 0.0
12.6622 0.656661 0.0
12.9241 0.573071 0.0
14.9406 0.163368 0.0
32.451 11.7046 0.0
11.6306 0.15623 0.0
31.2884 0.983907 0.0
30.1311 -1.51016 0.0
47.9598 -0.324418 0.0
26.7806 4.39727 0.0
17.0355 -3.50603 0.0
26.1284 10.0952 0.0
14.132 0.113871 0.0
22.6264 2.75982 0.0
28.0739 2.73241 0.0
14.4178 -0.247849 0.0
11.5845 0.104458 0.0
14.6151 0.454904 0.0
14.558 0.24211 0.0
20.7621 -2.30338 0.0
12.1181 0.208255 0.0
12.3341 0.366804 0.0
28.3448 11.5382 0.0
24.3814 -3.72293 0.0
17.3088 4.40322 0.0
15.0535 -0.168034 0.0
24.6904 6.08637 0.0
47.1993 0.120332 0.0
27.3816 2.00931 0.0
41.6011 4.8624 0.0
4.25175 -18.0964 0.0
0.678473 -4.1018 0.0
28.4454 13.465 0.0
-5.67229 -18.3077 0.0
20.6454 -4.44866 0.0
14.903 0.558456 0.0
12.518 1.12013 0.0
41.6138 -5.78445 0.0
47.5709 -1.01631 0.0
31.247 -1.03496 0.0
31.9433 -1.35145 0.0
4.30806 -0.107005 0.0
14.9631 1.19286 0.0
30.7126 1.03751 0.0
27.0613 -8.20728 0.0
31.0675 -0.856799 0.0
10.703 -0.590647 0.0
30.7984 -2.49963 0.0
12.6373 0.485085 0.0
22.9582 -5.46527 0.0
18.0419 -0.439908 0.0
2.72477 -20.6963 0.0
29.4083 10.6577 0.0
16.4847 -2.84536 0.0
37.28 -0.667027 0.0
13.6112 3.27649 0.0
34.524 -8.59663 0.0
48.1652 0.837381 0.0
13.1996 -11.6591 0.0
46.8651 -1.60154 0.0
23.0008 1.05929 0.0
26.2509 -7.82692 0.0
-1.28506 9.1441 0.0
12.1065 1.55513 0.0
35.0219 4.50496 0.0
28.1661 5.83918 0.0
14.3127 7.35306 0.0
27.6693 1.47255 0.0
11.4926 7.48131 0.0
10.7679 -0.00402437 0.0
18.0989 -3.59903 0.0
15.9732 -12.6558 0.0
33.6724 0.524906 0.0
20.1684 -4.65808 0.0
14.1902 -0.0325693 0.0
30.1497 -3.16465 0.0
47.6803 0.480894 0.0
30.6743 0.932169 0.0
22.2159 5.34401 0.0
-9.04824 9.15067 0.0
7.78068 -18.7151 0.0
30.9608 2.53637 0.0
31.6099 -1.93506 0.0
12.5481 -0.334562 0.0
28.9408 9.53888 0.0
37.8993 -0.016817 0.0
30.8763 -10.7486 0.0
6.35046 5.79762 0.0
16.1215 0.227235 0.0
21.857 -1.39516 0.0
16.7723 0.37934 0.0
10.3861 -0.818586 0.0
15.4883 -3.57523 0.0
32.694 8.41424 0.0
12.7074 0.0315534 0.0
-9.41957 -9.38619 0.0
32.5223 0.129209 0.0
11.5306 0.0918511 0.0
31.5877 -12.2397 0.0
22.6081 -14.5696 0.0
48.5332 0.38913 0.0
16.005 0.164343 0.0
24.8126 10.8589 0.0
-3.97263 15.2644 0.0
11.2918 0.0329566 0.0
14.8021 0.0799556 0.0
-1.98641 -9.44718 0.0
8.16405 -5.16458 0.0
26.1949 9.15268 0.0
25.0173 4.31593 0.0
24.559 8.44517 0.0
8.42655 -1.77549 0.0
15.8704 0.0602504 0.0
36.6203 -0.281259 0.0
16.3051 -3.68784 0.0
17.2703 -15.6113 0.0
4.03224 14.6951 0.0
16.1577 -0.0165467 0.0
26.6999 -1.7892 0.0
47.2162 0.123555 0.0
12.8203 -0.334537 0.0
43.4417 3.78764 0.0
48.477 0.235106 0.0
12.4809 -0.985969 0.0
12.6253 -0.193128 0.0
27.6379 -9.06309 0.0
31.2317 2.13066 0.0
22.0609 -0.444394 0.0
47.0761 -0.275275 0.0
21.8599 0.771076 0.0
14.4817 -0.517155 0.0
6.28925 -0.307617 0.0
14.898 -0.50686 0.0
13.8975 -5.30827 0.0
19.9124 -0.908897 0.0
35.5336 -10.1104 0.0
15.1038 -0.108957 0.0
13.2581 1.41471 0.0
19.9363 -3.48487 0.0
21.6342 -4.17143 0.0
13.8836 0.0286996 0.0
21.5439 1.26885 0.0
7.86947 -1.35563 0.0
14.8105 0.6057 0.0
11.5657 18.5819 0.0
21.2271 -0.187896 0.0
24.8614 10.8631 0.0
27.3736 5.54615 0.0
15.5118 1.95836 0.0
12.4598 0.559711 0.0
14.7984 0.795673 0.0
9.36344 1.86068 0.0
30.7952 0.904216 0.0
30.6344 0.591317 0.0
7.07124 -0.212382 0.0
12.3727 0.741131 0.0
6.72767 -0.0783679 0.0
14.988 -0.077329 0.0
17.704 -1.08505 0.0
14.0402 -2.57701 0.0
20.988 15.9913 0.0
25.9977 -5.56443 0.0
11.33 0.347385 0.0
18.6379 1.20087 0.0
20.0592 -1.55014 0.0
10.164 -0.0678766 0.0
15.3365 -0.188321 0.0
11.6756 -0.246419 0.0
48.3089 0.122617 0.0
6.66517 -7.23204 0.0
14.9044 -0.198212 0.0
14.7722 -0.223934 0.0
13.0234 -0.0968866 0.0
47.0763 -0.169154 0.0
36.6431 9.26748 0.0
43.9379 -3.91592 0.0
7.5369 0.00110226 0.0
13.0881 6.23341 0.0
31.979 0.0184579 0.0
16.1465 -0.26344 0.0
33.5208 -0.742854 0.0
4.75789 7.0398 0.0
20.7481 0.602646 0.0
11.3746 -6.58887 0.0
7.55393 -0.0540171 0.0
20.9196 -14.1277 0.0
30.0414 -0.169023 0.0
25.8724 -6.69376 0.0
14.5986 0.329014 0.0
-9.28467 1.68697 0.0
31.0942 0.220491 0.0
21.8202 -0.0881711 0.0
47.6362 0.209345 0.0
16.7669 -0.275929 0.0
38.7511 -0.426907 0.0
11.2512 0.546968 0.0
18.5257 -4.51901 0.0
7.28926 -0.624931 0.0
8.04507 -0.0646764 0.0
13.537 -0.846219 0.0
12.5978 -4.80246 0.0
18.1828 4.56816 0.0
32.2863 -0.047581 0.0
28.1029 1.07674 0.0
29.685 0.0253419 0.0
12.2147 0.26752 0.0
29.3977 -1.87681 0.0
4.00277 -11.705 0.0
45.4387 -2.50663 0.0
21.5174 -14.2429 0.0
17.8247 -2.52222 0.0
13.8884 3.0828 0.0
13.712 0.0766005 0.0
10.6144 -15.0893 0.0
25.6346 -0.0375479 0.0
45.5099 -0.550057 0.0
20.6696 0.821262 0.0
29.2397 -1.65495 0.0
18.8164 -0.649008 0.0
35.9606 -0.261824 0.0
20.0449 0.704546 0.0
12.7441 -0.164963 0.0
12.2632 -0.190013 0.0
-9.2843 -2.14021 0.0
13.8989 -1.2725 0.0
8.26605 1.73736 0.0
15.5658 -5.75046 0.0
16.28 -1.73871 0.0
19.4676 -0.200327 0.0
19.7694 -0.175962 0.0
21.8148 0.335411 0.0
43.2282 -3.77164 0.0
28.3571 5.33632 0.0
10.9344 -0.874657 0.0
27.1087 8.4218 0.0
25.0975 -6.98889 0.0
7.57808 0.0596492 0.0
20.3111 -12.3406 0.0
15.6245 0.751011 0.0
11.8498 -0.119572 0.0
12.4387 -0.2019 0.0
16.4565 0.285065 0.0
7.48648 1.3582 0.0
11.4449 1.88077 0.0
10.0466 4.16061 0.0
4.29826 18.2102 0.0
45.1983 -1.42798 0.0
32.2496 11.7744 0.0
14.4919 -0.209033 0.0
25.2141 7.08836 0.0
11.796 -0.000918026 0.0
47.9227 -0.245122 0.0
28.4207 5.92266 0.0
21.8261 14.2703 0.0
13.5564 3.16296 0.0
30.5078 0.250827 0.0
12.0419 0.113197 0.0
9.67735 6.22645 0.0
10.0559 -1.78315 0.0
29.6856 0.0870342 0.0
29.0302 1.19533 0.0
31.2426 0.600158 0.0
9.22883 -1.87326 0.0
21.9141 -11.1379 0.0
46.9453 1.06176 0.0
19.7925 -3.93562 0.0
11.1613 -0.48205 0.0
32.3305 -10.6863 0.0
47.2244 -0.407556 0.0
24.9987 -0.845879 0.0
27.3417 8.38672 0.0
37.1191 -1.0316 0.0
14.6632 -0.226457 0.0
7.29455 0.881627 0.0
13.0058 -0.224815 0.0
6.63531 -0.131675 0.0
5.72508 -0.826246 0.0
19.3039 15.8477 0.0
27.3138 9.82078 0.0
8.14862 3.32159 0.0
27.5593 6.9161 0.0
29.4281 4.10197 0.0
4.89668 -0.946551 0.0
35.3115 -8.24808 0.0
4.32447 0.812706 0.0
6.60086 0.186673 0.0
15.6842 10.5485 0.0
6.9888 0.893328 0.0
48.5116 -0.0169109 0.0
35.831 -9.30212 0.0
4.0042 -0.38361 0.0
29.0076 0.819175 0.0
31.5351 -0.982616 0.0
28.3421 4.2694 0.0
7.22496 18.7159 0.0
22.2605 6.15613 0.0
27.9167 5.49347 0.0
6.11955 0.259403 0.0
32.4523 0.769916 0.0
41.0148 6.50485 0.0
4.44808 -0.872443 0.0
6.44778 -0.211358 0.0
38.8984 -0.846425 0.0
4.55858 0.916909 0.0
42.1761 -4.66277 0.0
35.393 9.79858 0.0
16.1648 -0.826289 0.0
6.57573 -0.060256 0.0
13.2298 0.392795 0.0
20.7863 0.380191 0.0
21.0511 0.111904 0.0
48.0016 -0.00982306 0.0
19.5834 -0.128164 0.0
12.9024 0.629586 0.0
46.3783 0.132132 0.0
48.1897 -0.121462 0.0
31.1743 0.366233 0.0
44.6468 0.523323 0.0
29.2638 -0.134657 0.0
41.6859 -5.19244 0.0
30.5196 0.186465 0.0
23.0539 -6.18271 0.0
28.8305 3.23777 0.0
10.6191 0.631525 0.0
28.0523 0.0361807 0.0
31.167 -0.615001 0.0
24.3587 -6.06854 0.0
9.21412 -0.703296 0.0
13.4175 -2.03806 0.0
47.3688 0.201858 0.0
8.86124 0.54992 0.0
30.5645 0.17234 0.0
46.2153 0.481748 0.0
7.36989 0.214743 0.0
25.6572 3.98904 0.0
27.4236 4.83357 0.0
31.0799 0.117414 0.0
40.1692 7.2422 0.0
44.2016 4.38198 0.0
5.24119 3.07949 0.0
7.20039 1.09502 0.0
22.0949 1.15913 0.0
28.8214 -12.2653 0.0
15.4088 -14.1999 0.0
5.50329 0.880077 0.0
43.7448 0.0443315 0.0
27.1766 -5.84262 0.0
46.53 -0.462369 0.0
31.0685 0.14016 0.0
4.13148 -0.130523 0.0
4.10427 0.76271 0.0
27.3884 9.17906 0.0
6.39061 0.110089 0.0
27.921 6.84645 0.0
44.1934 0.720746 0.0
4.27559 0.00141264 0.0
6.41214 -0.0379978 0.0
27.7395 3.74756 0.0
28.0562 0.410083 0.0
4.03307 0.138434 0.0
24.8909 -0.134714 0.0
30.6405 0.184008 0.0
7.5605 -1.07582 0.0
31.1185 0.127046 0.0
25.5996 3.63588 0.0
45.792 -0.715054 0.0
29.106 2.42719 0.0
6.82148 -0.492594 0.0
41.8893 5.33996 0.0
5.40426 -0.942474 0.0
6.64501 0.365691 0.0
20.4348 -9.84113 0.0
6.60086 0.376955 0.0
25.4948 4.62697 0.0
28.1586 2.85942 0.0
41.3677 4.58186 0.0
45.1089 3.06952 0.0
10.794 -0.864123 0.0
18.7194 3.46652 0.0
46.3866 0.450561 0.0
4.07905 -0.49787 0.0
3.72425 0.497497 0.0
12.4711 -1.32613 0.0
10.3734 0.789923 0.0
30.6635 -0.634095 0.0
7.32261 -0.338334 0.0
24.3749 0.626647 0.0
30.6725 1.46557 0.0
6.93643 0.74481 0.0
12.5426 0.580736 0.0
27.1474 6.1081 0.0
7.05124 0.306292 0.0
29.0488 1.74058 0.0
25.7111 2.81639 0.0
28.9516 0.403115 0.0
6.38031 -0.409563 0.0
4.95133 0.290817 0.0
8.082 0.59858 0.0
21.1665 -0.491605 0.0
9.82495 -1.34871 0.0
31.2006 0.147035 0.0
4.14217 0.0764427 0.0
44.1582 2.291 0.0
7.65003 -0.450233 0.0
3.69264 0.584437 0.0
15.3677 -1.16811 0.0
27.0793 7.51479 0.0
7.36679 -0.847596 0.0
28.989 0.315289 0.0
28.0473 2.13551 0.0
23.9919 4.30091 0.0
30.7668 0.196438 0.0
25.7221 2.16032 0.0
15.9723 -2.23059 0.0
33.6223 -8.98292 0.0
29.8154 -3.60656 0.0
25.6815 1.62374 0.0
6.63043 -0.540801 0.0
7.07289 0.563773 0.0
46.4851 -0.123443 0.0
3.55951 0.340977 0.0
35.5025 -0.628926 0.0
17.0007 5.27361 0.0
30.9042 0.190416 0.0
3.62809 0.412331 0.0
4.15092 -0.620256 0.0
28.0835 1.54263 0.0
27.22 8.9183 0.0
21.6335 -0.143444 0.0
31.7565 -0.876571 0.0
26.5171 0.0593772 0.0
27.8492 -0.832685 0.0
13.4499 -6.54902 0.0
27.1048 -0.0926557 0.0
24.2951 3.10351 0.0
3.92767 -0.27264 0.0
25.6434 1.18985 0.0
21.4897 4.69398 0.0
12.8176 -0.561636 0.0
30.5745 0.378327 0.0
4.39481 -0.323805 0.0
4.85313 0.329875 0.0
24.249 3.9546 0.0
27.965 -0.119702 0.0
26.5456 -0.921602 0.0
15.19 -0.124669 0.0
27.8654 1.21948 0.0
31.3062 0.160079 0.0
27.4999 -4.40169 0.0
4.18875 1.1879 0.0
28.9548 0.568 0.0
29.5507 -4.09717 0.0
24.2964 1.85629 0.0
24.508 3.37648 0.0
8.18203 -2.01235 0.0
31.3746 -11.9974 0.0
5.15649 -3.96116 0.0
26.5286 -13.6733 0.0
28.5085 -1.02318 0.0
29.3784 4.5348 0.0
28.447 1.53253 0.0
4.34732 -1.04416 0.0
25.6298 0.867314 0.0
25.995 2.03641 0.0
24.247 1.40658 0.0
32.0442 0.0938562 0.0
24.3309 2.41028 0.0
28.0616 0.752708 0.0
26.8416 -0.660217 0.0
25.2917 -3.46402 0.0
8.59844 -2.93498 0.0
45.306 -0.722743 0.0
12.074 -0.112618 0.0
22.0941 -3.94361 0.0
7.02067 -5.2091 0.0
37.8644 8.06369 0.0
31.4964 0.119828 0.0
2.95932 -0.23576 0.0
3.03494 0.243537 0.0
28.0118 0.541068 0.0
43.4814 0.781825 0.0
25.6678 0.648617 0.0
19.7151 4.64437 0.0
4.44212 -0.202174 0.0
7.29751 -0.300681 0.0
5.73554 0.56822 0.0
2.75834 1.61286 0.0
5.75388 -2.81591 0.0
28.5483 -5.4095 0.0
32.1678 0.0797757 0.0
41.4567 5.9056 0.0
0.936895 0.857264 0.0
23.1578 -0.0508781 0.0
24.7149 -0.0506915 0.0
23.6534 -3.04057 0.0
19.8835 5.08558 0.0
1.06064 -0.815207 0.0
2.988 -1.45586 0.0
21.0607 0.351714 0.0
21.2017 0.804508 0.0
24.2663 1.04616 0.0
17.1312 -2.36284 0.0
27.9586 -0.0661611 0.0
48.3129 -0.261544 0.0
28.9495 -0.060666 0.0
22.8186 3.97617 0.0
31.1246 0.100768 0.0
3.9431 -0.237172 0.0
27.3979 7.49921 0.0
30.9235 0.335038 0.0
29.0613 0.28444 0.0
30.6035 0.00813737 0.0
26.3589 -1.89398 0.0
3.78677 0.164986 0.0
31.0069 -0.161505 0.0
5.2605 -0.70031 0.0
12.5608 1.36931 0.0
20.1876 -0.32375 0.0
25.7195 0.51924 0.0
24.2841 0.777818 0.0
29.591 0.977241 0.0
30.4463 0.801589 0.0
29.6893 1.15167 0.0
3.51852 0.237224 0.0
6.7307 0.416811 0.0
5.83783 -0.452309 0.0
31.3949 0.0931402 0.0
28.1362 0.345911 0.0
45.4089 0.540061 0.0
5.13469 0.814261 0.0
28.3066 0.0666992 0.0
27.0716 2.37458 0.0
10.407 5.57536 0.0
28.6066 -0.0486446 0.0
2.43439 0.47908 0.0
27.528 -0.08371 0.0
26.8557 -0.687896 0.0
27.6692 -0.536332 0.0
20.8412 -0.235088 0.0
19.2176 -0.224812 0.0
27.1951 -0.125013 0.0
6.84214 -0.720956 0.0
47.0632 -1.19204 0.0
30.9826 -0.149952 0.0
29.6051 -0.143096 0.0
29.1916 0.282783 0.0
25.836 0.446985 0.0
14.3762 -0.00408164 0.0
28.2496 0.326697 0.0
31.0546 -2.50922 0.0
31.1602 0.0498768 0.0
7.17221 0.283858 0.0
25.1124 3.28269 0.0
2.59141 -0.438242 0.0
31.3364 0.40953 0.0
31.6257 0.24867 0.0
25.9953 0.414569 0.0
1.82948 0.680757 0.0
30.915 -10.9521 0.0
31.5254 0.0767009 0.0
30.2816 0.907285 0.0
28.2732 -0.0871967 0.0
29.3432 -0.2703 0.0
29.3701 0.283142 0.0
31.3235 0.0959149 0.0
31.2317 0.196736 0.0
31.4148 0.15155 0.0
26.237 0.406783 0.0
3.19891 0.248894 0.0
10.9826 0.757742 0.0
30.4155 -0.529667 0.0
22.2322 8.91151 0.0
1.9595 -0.629515 0.0
6.28242 -0.294373 0.0
25.8525 -12.3017 0.0
27.0486 2.25797 0.0
28.4374 0.327384 0.0
11.7495 -0.558241 0.0
29.4007 -0.168568 0.0
30.1012 -0.135798 0.0
18.9883 5.75198 0.0
6.09855 0.420114 0.0
2.99706 -0.289137 0.0
30.5372 -3.04512 0.0
22.8362 3.45282 0.0
27.4555 -1.88319 0.0
31.5358 0.325466 0.0
11.306 -1.63416 0.0
28.6561 0.313339 0.0
24.3394 0.617102 0.0
31.1425 -0.0490755 0.0
2.85549 0.336661 0.0
29.5738 0.256165 0.0
31.1604 0.00137134 0.0
3.50371 -0.128036 0.0
26.531 0.382392 0.0
31.0367 0.155134 0.0
31.767 0.425028 0.0
29.9617 0.106131 0.0
29.9344 -0.185347 0.0
31.5121 0.0315859 0.0
26.2401 -0.733449 0.0
29.9773 -0.0743979 0.0
29.8034 0.187323 0.0
29.3214 0.0665012 0.0
29.2312 -0.211488 0.0
3.28671 -0.187533 0.0
30.0546 0.234059 0.0
29.0807 -0.241071 0.0
4.38103 0.190042 0.0
31.4747 -0.0170364 0.0
6.93781 0.364311 0.0
28.9128 0.247987 0.0
29.7925 -0.222459 0.0
31.7879 0.327315 0.0
30.6461 -0.0506601 0.0
30.063 0.0409782 0.0
31.5532 0.237193 0.0
14.2093 0.181533 0.0
27.2692 0.153053 0.0
25.5208 1.11638 0.0
26.7774 0.285401 0.0
3.16446 -0.0371422 0.0
30.9079 0.117168 0.0
29.1556 0.147136 0.0
23.9444 -3.51562 0.0
3.56794 -0.264949 0.0
24.6219 0.464426 0.0
3.48979 0.189646 0.0
22.6241 -3.33987 0.0
26.5791 1.27166 0.0
24.8571 0.441525 0.0
27.9959 -0.136685 0.0
28.9427 -0.250205 0.0
25.1977 0.431376 0.0
30.1639 -0.0628305 0.0
36.4984 9.54322 0.0
22.4882 -3.91534 0.0
29.4071 -0.0541531 0.0
31.6267 0.454016 0.0
31.514 0.460003 0.0
31.7371 0.305328 0.0
29.6661 -0.241983 0.0
31.9291 0.346532 0.0
25.696 -0.123843 0.0
31.9058 0.342141 0.0
28.6398 -0.14492 0.0
27.4704 0.0607948 0.0
13.3734 0.315169 0.0
30.2641 -0.0255555 0.0
31.9046 0.315903 0.0
23.7966 -0.585533 0.0
31.6678 0.39575 0.0
29.5523 -0.236439 0.0
28.8183 -0.228901 0.0
3.40022 0.18993 0.0
29.4325 0.00663021 0.0
24.4598 0.522832 0.0
32.0586 0.316177 0.0
22.4176 -0.224646 0.0
7.44675 0.210353 0.0
27.6562 -0.00563212 0.0
31.7016 0.302676 0.0
25.8683 0.215856 0.0
25.2135 -0.12773 0.0
28.7055 -0.171194 0.0
31.707 0.178079 0.0
29.4528 -0.19917 0.0
26.2925 0.102714 0.0
17.2048 4.31708 0.0
31.4296 -0.0696277 0.0
32.0528 0.278029 0.0
30.8288 0.699915 0.0
13.0741 -0.0722606 0.0
29.5117 -0.0450535 0.0
24.1781 -0.146112 0.0
3.9446 0.125183 0.0
6.9198 0.249533 0.0
29.3557 -0.133045 0.0
31.1332 0.251011 0.0
27.3678 -0.253931 0.0
28.5873 -0.0901445 0.0
31.953 0.240193 0.0
27.7601 -0.183278 0.0
27.8049 -0.059665 0.0
28.4293 -0.00831518 0.0
24.5542 -0.180056 0.0
26.9191 -0.16835 0.0
32.1612 0.235138 0.0
24.8462 -0.149782 0.0
31.4729 0.149535 0.0
27.1792 -0.266147 0.0
28.184 -0.216867 0.0
26.6808 -0.209441 0.0
24.2758 -0.215121 0.0
31.1704 0.22008 0.0
29.238 -0.0552769 0.0
4.84242 0.140811 0.0
7.58228 0.204838 0.0
31.9526 0.102753 0.0
31.6568 0.0378064 0.0
25.4279 0.387882 0.0
26.5154 0.0148232 0.0
26.7311 -0.0398323 0.0
31.8383 0.404136 0.0
28.1983 0.0537303 0.0
30.9533 0.642194 0.0
30.1252 -0.0122731 0.0
24.0175 -0.24968 0.0
26.0555 -0.270513 0.0
26.5207 0.0205419 0.0
29.0724 0.0131393 0.0
32.1555 0.180984 0.0
31.1196 -0.100641 0.0
26.4685 -0.244976 0.0
28.7643 8.51824 0.0
23.0297 -0.19826 0.0
26.2606 -0.26979 0.0
23.784 -0.280415 0.0
29.0598 1.21163 0.0
27.9052 0.0762679 0.0
28.8486 0.0520363 0.0
27.0184 -0.243437 0.0
23.3436 -0.16874 0.0
25.5455 -0.0197287 0.0
31.6194 0.263219 0.0
23.5306 -0.288117 0.0
25.8837 -0.219192 0.0
27.6173 0.0494212 0.0
15.0294 0.142245 0.0
30.591 0.128943 0.0
23.2475 -0.226927 0.0
13.0543 0.0983587 0.0
22.7454 -0.23139 0.0
28.5991 0.0470948 0.0
23.097 -0.109535 0.0
25.7196 -0.1251 0.0
23.6937 -0.151852 0.0
3.47149 -0.0501688 0.0
6.52448 -0.0914236 0.0
14.9909 0.209534 0.0
27.4439 -0.224854 0.0
26.7188 -0.0797178 0.0
27.3895 -0.00698747 0.0
28.3767 0.00315629 0.0
22.8765 0.00717663 0.0
7.35765 0.0938488 0.0
31.768 0.198693 0.0
6.71936 -0.100037 0.0
32.2055 0.0982131 0.0
27.254 -0.0619721 0.0
22.477 -0.265689 0.0
26.203 0.0872764 0.0
22.1542 -0.29518 0.0
32.1779 0.0172766 0.0
25.7974 0.119233 0.0
3.59944 -0.0520009 0.0
6.62257 -0.100691 0.0
26.8721 -0.174704 0.0
3.86228 0.0574271 0.0
28.2188 -0.0573894 0.0
21.8794 -0.270949 0.0
21.6539 -0.160988 0.0
25.2699 0.0689134 0.0
27.9245 -0.123428 0.0
31.8186 0.0278797 0.0
25.4238 0.0947134 0.0
25.1256 0.032632 0.0
6.68831 -0.0865211 0.0
3.74441 -0.051684 0.0
12.443 0.171606 0.0
21.4483 -0.0300548 0.0
24.8297 0.128706 0.0
27.5544 -0.223576 0.0
24.3582 0.139668 0.0
28.8731 -0.064094 0.0
12.7457 0.193018 0.0
23.9743 0.0845244 0.0
28.1662 -0.101193 0.0
24.9256 -0.0169242 0.0
6.70995 0.0989868 0.0
3.38877 -0.0350042 0.0
2.852 -0.0511233 0.0
3.65022 -0.0464408 0.0
6.63175 -0.0278763 0.0
7.05462 0.108667 0.0
3.09623 -0.0128059 0.0
3.5033 0.000595869 0.0
6.48888 -0.0870672 0.0
3.39835 -0.032766 0.0
3.67462 -0.0281003 0.0
3.88342 0.0867506 0.0
7.20015 -0.0879512 0.0
3.78035 0.0536469 0.0
6.40919 -0.061613 0.0
3.62575 0.0527876 0.0
6.8178 -0.0471447 0.0
6.61262 -0.0558832 0.0
3.53471 0.106722 0.0
7.30711 0.127214 0.0
6.48238 -0.0718272 0.0
6.35221 -0.0785999 0.0
3.61781 0.172244 0.0
6.14765 -0.0438413 0.0
6.59145 0.132461 0.0
3.33338 -0.0303211 0.0
6.42187 -0.0431833 0.0
3.78748 0.00332927 0.0
3.35737 0.0617821 0.0
6.22695 -0.102777 0.0
3.62937 0.127334 0.0
4.36682 0.0684073 0.0
3.6471 0.216096 0.0
3.07846 0.0547738 0.0
3.31434 -0.0103906 0.0
6.48928 0.0173371 0.0
3.49431 -0.0497497 0.0
3.58662 -0.0517609 0.0
3.71401 0.140092 0.0
3.74553 0.140192 0.0
3.63506 -0.0137082 0.0
3.58311 0.0384746 0.0
3.05124 -0.0512656 0.0
3.44776 -0.0299418 0.0
4.2763 -0.00616184 0.0
7.2513 -0.0189073 0.0
3.69903 -0.104482 0.0
4.40465 0.0503669 0.0
6.16011 0.111347 0.0
6.05942 -0.112699 0.0
3.41137 -0.0445607 0.0
3.7499 0.141729 0.0
3.44825 0.0291181 0.0
6.7756 -0.00668226 0.0
3.27626 0.0710861 0.0
3.62859 0.0535598 0.0
3.38793 -0.0465402 0.0
6.84947 0.273095 0.0
4.17771 -0.0580809 0.0
2.98163 0.0112233 0.0
3.38671 0.0080602 0.0
2.88794 0.0329293 0.0
3.71981 0.0540715 0.0
3.75853 -0.0173677 0.0
5.66908 -0.047006 0.0
2.57577 -0.0175402 0.0
6.68011 0.257508 0.0
6.89935 0.0923781 0.0
27.7291 -0.118609 0.0
27.264 -0.0770911 0.0
30.1894 -0.11223 0.0
23.6976 0.0213964 0.0
31.8312 -0.204353 0.0
31.8846 -0.0405334 0.0
23.4533 0.00445015 0.0
31.8973 -0.206378 0.0
32.098 -0.141163 0.0
31.9616 -0.209824 0.0
32.1622 -0.0616485 0.0
24.8726 -0.00807445 0.0
27.419 -0.064074 0.0
32.0417 -0.173107 0.0
26.6198 -0.107826 0.0
31.7361 -0.159971 0.0
28.2552 -0.107158 0.0
31.6735 -0.136107 0.0
29.8314 -0.158285 0.0
30.3611 -0.184028 0.0
20.4765 0.0698396 0.0
31.6441 -0.218008 0.0
31.4979 -0.0863766 0.0
30.4933 -0.156672 0.0
31.7736 -0.154894 0.0
22.8967 -0.0822728 0.0
29.5673 -0.0947548 0.0
27.4525 -0.0960128 0.0