# vtk DataFile Version 3.0
Malha 2D com triângulos e temperatura
ASCII
DATASET UNSTRUCTURED_GRID

POINTS 1194 double
0 0 0
5 0 0
5 1 0
0 1 0
0.85 0.5 0
0.842388 0.538268 0
0.820711 0.570711 0
0.788268 0.592388 0
0.75 0.6 0
0.711732 0.592388 0
0.679289 0.570711 0
0.657612 0.538268 0
0.65 0.5 0
0.657612 0.461732 0
0.679289 0.429289 0
0.711732 0.407612 0
0.75 0.4 0
0.788268 0.407612 0
0.820711 0.429289 0
0.842388 0.461732 0
0.0793651 0 0
0.15873 0 0
0.238095 0 0
0.31746 0 0
0.396825 0 0
0.47619 0 0
0.555556 0 0
0.634921 0 0
0.714286 0 0
0.793651 0 0
0.873016 0 0
0.952381 0 0
1.03175 0 0
1.11111 0 0
1.19048 0 0
1.26984 0 0
1.34921 0 0
1.42857 0 0
1.50794 0 0
1.5873 0 0
1.66667 0 0
1.74603 0 0
1.8254 0 0
1.90476 0 0
1.98413 0 0
2.06349 0 0
2.14286 0 0
2.22222 0 0
2.30159 0 0
2.38095 0 0
2.46032 0 0
2.53968 0 0
2.61905 0 0
2.69841 0 0
2.77778 0 0
2.85714 0 0
2.93651 0 0
3.01587 0 0
3.09524 0 0
3.1746 0 0
3.25397 0 0
3.33333 0 0
3.4127 0 0
3.49206 0 0
3.57143 0 0
3.65079 0 0
3.73016 0 0
3.80952 0 0
3.88889 0 0
3.96825 0 0
4.04762 0 0
4.12698 0 0
4.20635 0 0
4.28571 0 0
4.36508 0 0
4.44444 0 0
4.52381 0 0
4.60317 0 0
4.68254 0 0
4.7619 0 0
4.84127 0 0
4.92063 0 0
5 0.0769231 0
5 0.153846 0
5 0.230769 0
5 0.307692 0
5 0.384615 0
5 0.461538 0
5 0.538462 0
5 0.615385 0
5 0.692308 0
5 0.769231 0
5 0.846154 0
5 0.923077 0
4.92063 1 0
4.84127 1 0
4.7619 1 0
4.68254 1 0
4.60317 1 0
4.52381 1 0
4.44444 1 0
4.36508 1 0
4.28571 1 0
4.20635 1 0
4.12698 1 0
4.04762 1 0
3.96825 1 0
3.88889 1 0
3.80952 1 0
3.73016 1 0
3.65079 1 0
3.57143 1 0
3.49206 1 0
3.4127 1 0
3.33333 1 0
3.25397 1 0
3.1746 1 0
3.09524 1 0
3.01587 1 0
2.93651 1 0
2.85714 1 0
2.77778 1 0
2.69841 1 0
2.61905 1 0
2.53968 1 0
2.46032 1 0
2.38095 1 0
2.30159 1 0
2.22222 1 0
2.14286 1 0
2.06349 1 0
1.98413 1 0
1.90476 1 0
1.8254 1 0
1.74603 1 0
1.66667 1 0
1.5873 1 0
1.50794 1 0
1.42857 1 0
1.34921 1 0
1.26984 1 0
1.19048 1 0
1.11111 1 0
1.03175 1 0
0.952381 1 0
0.873016 1 0
0.793651 1 0
0.714286 1 0
0.634921 1 0
0.555556 1 0
0.47619 1 0
0.396825 1 0
0.31746 1 0
0.238095 1 0
0.15873 1 0
0.0793651 1 0
0 0.923077 0
0 0.846154 0
0 0.769231 0
0 0.692308 0
0 0.615385 0
0 0.538462 0
0 0.461538 0
0 0.384615 0
0 0.307692 0
0 0.230769 0
0 0.153846 0
0 0.0769231 0
0.879698 0.466718 0
1.3085 0.931947 0
1.30532 0.0638546 0
4.93832 0.504275 0
0.620452 0.46964 0
3.99858 0.0669607 0
1.63721 0.934258 0
3.3751 0.0523709 0
4.3254 0.0687322 0
2.42354 0.0642082 0
2.97619 0.0687322 0
2.02101 0.0693621 0
3.68108 0.0581336 0
2.65899 0.932655 0
4.178 0.939994 0
3.21614 0.938179 0
2.25483 0.919987 0
3.53215 0.928998 0
3.84921 0.931268 0
1.69647 0.0674297 0
1.94349 0.930209 0
4.48413 0.931268 0
2.97813 0.942022 0
2.74097 0.0673855 0
0.859645 0.573263 0
0.639718 0.573116 0
0.0651563 0.652836 0
0.0635304 0.346121 0
4.56232 0.0679683 0
0.830393 0.392645 0
0.669618 0.39275 0
1.06185 0.0668897 0
0.440193 0.0680031 0
1.06474 0.93511 0
0.446074 0.935974 0
0.724697 0.630698 0
4.72268 0.931235 0
4.93065 0.267192 0
0.589836 0.936152 0
0.92338 0.0562425 0
0.590207 0.0623339 0
0.755872 0.0732784 0
0.838039 0.936714 0
4.92573 0.732039 0
0.281717 0.93783 0
0.28208 0.0811877 0
0.065248 0.503161 0
1.46076 0.0637037 0
4.72574 0.0661877 0
4.31028 0.937908 0
3.21429 0.0687322 0
1.46639 0.932632 0
3.6897 0.928155 0
2.42063 0.931268 0
3.5364 0.0691789 0
2.25998 0.0676208 0
1.78735 0.937047 0
4.01535 0.920637 0
1.85469 0.0674188 0
3.83991 0.0626292 0
3.37477 0.929368 0
2.58225 0.0657863 0
2.81746 0.932342 0
4.16667 0.0687322 0
2.11402 0.935574 0
0.0614266 0.197046 0
0.0612841 0.803003 0
4.88273 0.0644126 0
4.87774 0.933272 0
0.859645 0.426737 0
0.903081 0.436592 0
0.923672 0.473385 0
0.948706 0.439078 0
0.969155 0.479795 0
0.996593 0.439791 0
1.0202 0.484937 0
1.04667 0.440138 0
1.07382 0.489694 0
1.1034 0.440801 0
1.13169 0.49612 0
1.16603 0.445058 0
1.1931 0.504331 0
1.22956 0.450883 0
1.25923 0.506004 0
1.29683 0.453139 0
1.32923 0.510343 0
1.36603 0.454344 0
1.03276 0.530395 0
1.40063 0.516169 0
1.43576 0.454934 0
1.47042 0.520776 0
1.51069 0.46142 0
1.54422 0.526371 0
1.58547 0.465572 0
1.61942 0.531773 0
1.66033 0.468788 0
1.69546 0.536793 0
1.73713 0.472812 0
1.77239 0.541977 0
1.81532 0.478494 0
1.85006 0.547285 0
1.89327 0.483449 0
1.92802 0.55361 0
1.97142 0.488546 0
2.00623 0.558966 0
2.04984 0.493518 0
2.08483 0.564085 0
2.12847 0.498462 0
2.16353 0.569137 0
2.20719 0.503331 0
0.961579 0.391697 0
1.22451 0.565337 0
2.24238 0.574192 0
2.28611 0.508258 0
2.32134 0.579247 0
2.36519 0.513325 0
2.40036 0.584295 0
2.44425 0.51834 0
2.47944 0.589336 0
2.52334 0.523355 0
2.55853 0.594372 0
2.60245 0.52837 0
2.63764 0.599431 0
2.68159 0.533388 0
2.64637 0.462336 0
2.72553 0.467349 0
2.76076 0.538418 0
2.8047 0.47237 0
2.83993 0.543451 0
2.88387 0.477399 0
2.91911 0.548482 0
2.96305 0.482427 0
2.9983 0.553514 0
3.04224 0.487456 0
3.07749 0.558545 0
3.12143 0.492477 0
3.15668 0.563574 0
3.20063 0.497514 0
3.23588 0.568605 0
3.27983 0.502542 0
3.31508 0.573635 0
3.35903 0.507562 0
3.39428 0.578663 0
3.43823 0.5126 0
3.47348 0.583694 0
3.51744 0.517628 0
3.55268 0.588724 0
3.59664 0.522646 0
3.63189 0.593752 0
3.67585 0.527673 0
3.71109 0.598781 0
3.75505 0.532702 0
3.7903 0.60381 0
3.83426 0.537731 0
3.79901 0.466623 0
3.87821 0.471754 0
3.91346 0.542777 0
3.95742 0.476701 0
3.99267 0.547795 0
4.03662 0.481715 0
4.07187 0.552815 0
4.11582 0.486743 0
4.15106 0.55783 0
4.195 0.491782 0
4.23023 0.562843 0
4.27415 0.49682 0
4.30937 0.567866 0
4.35325 0.501915 0
4.38842 0.572845 0
4.43227 0.506997 0
4.46737 0.577575 0
4.51106 0.511995 0
4.54622 0.582183 0
1.13571 0.390292 0
4.47606 0.441361 0
4.55475 0.446396 0
2.32985 0.442214 0
3.5614 0.451571 0
3.08619 0.421408 0
2.09339 0.427815 0
1.42887 0.583001 0
2.84864 0.406329 0
3.32378 0.43649 0
4.23911 0.425894 0
1.54723 0.39251 0
1.77883 0.406811 0
1.33959 0.387065 0
3.92239 0.405803 0
4.08079 0.415776 0
2.48812 0.452349 0
1.57935 0.603183 0
1.93602 0.417543 0
1.72453 0.617973 0
3.11273 0.629643 0
2.69029 0.396284 0
3.94662 0.623383 0
1.88466 0.613248 0
2.79598 0.609502 0
4.10826 0.620575 0
2.04005 0.62838 0
2.95434 0.619575 0
4.51981 0.375801 0
4.59833 0.380943 0
4.63314 0.451296 0
4.26693 0.63114 0
2.19619 0.645921 0
4.4246 0.642296 0
3.27112 0.639707 0
2.35729 0.649822 0
2.51462 0.660373 0
3.42952 0.649769 0
4.67669 0.38601 0
3.58793 0.659829 0
3.74634 0.669888 0
4.64195 0.315733 0
4.44109 0.370647 0
4.48493 0.305066 0
4.40614 0.29989 0
4.71136 0.456133 0
4.72014 0.320758 0
0.8692 0.382093 0
0.841252 0.348256 0
0.886481 0.338703 0
0.853127 0.301457 0
0.902583 0.287335 0
0.801683 0.321689 0
0.818113 0.263019 0
0.764765 0.277091 0
4.44702 0.235678 0
0.946267 0.520761 0
0.78107 0.221265 0
0.726309 0.234724 0
0.848273 0.20551 0
4.68545 0.250576 0
4.37074 0.227561 0
4.76365 0.255792 0
4.79822 0.326145 0
0.713664 0.287231 0
0.672358 0.247957 0
0.68673 0.192342 0
0.630368 0.2085 0
0.616569 0.265341 0
0.574186 0.225456 0
0.557393 0.28131 0
0.52004 0.242373 0
0.504416 0.299685 0
0.462273 0.252096 0
0.44798 0.316739 0
0.404567 0.276951 0
0.390546 0.335414 0
0.434669 0.37657 0
0.377935 0.394545 0
0.421979 0.43426 0
0.365682 0.452846 0
0.409646 0.492216 0
0.353389 0.51089 0
0.397738 0.551598 0
0.339864 0.570301 0
0.385899 0.612153 0
0.325913 0.631557 0
0.344507 0.29318 0
0.320568 0.413067 0
0.373553 0.673852 0
0.434438 0.653082 0
0.311416 0.69481 0
0.449777 0.528305 0
0.293513 0.534612 0
0.421431 0.715204 0
0.480917 0.696603 0
0.54504 0.34471 0
0.262743 0.649913 0
0.246209 0.712341 0
0.468564 0.755948 0
0.526091 0.735423 0
0.538207 0.68039 0
0.581228 0.716342 0
0.408756 0.777952 0
0.36234 0.239019 0
0.297047 0.251925 0
0.572109 0.771575 0
0.624906 0.752173 0
0.474824 0.414151 0
0.534351 0.182707 0
0.633682 0.70159 0
0.674547 0.736174 0
0.66826 0.788959 0
0.721117 0.76834 0
0.714515 0.825486 0
0.769074 0.802008 0
0.775287 0.746591 0
0.821903 0.778625 0
0.826767 0.726064 0
0.873257 0.756032 0
0.872997 0.697261 0
0.92331 0.732304 0
0.930014 0.67838 0
0.976061 0.710612 0
0.92456 0.784469 0
0.982178 0.654421 0
1.03016 0.688004 0
1.02037 0.747059 0
1.08 0.723819 0
1.08651 0.661896 0
1.1397 0.698204 0
1.13262 0.763657 0
1.19424 0.736545 0
1.18556 0.80161 0
1.24839 0.771772 0
1.25723 0.706382 0
1.31432 0.745787 0
4.66801 0.521361 0
4.74602 0.526202 0
4.70285 0.591278 0
4.78076 0.596023 0
4.73763 0.661207 0
4.78904 0.460969 0
2.61113 0.391267 0
2.65506 0.325217 0
2.57588 0.320198 0
2.61982 0.254148 0
2.69899 0.259163 0
2.54065 0.249131 0
2.49672 0.315179 0
2.46148 0.244124 0
2.41757 0.310166 0
2.38233 0.239117 0
2.33843 0.30514 0
2.30297 0.237979 0
2.25928 0.300748 0
2.22079 0.221377 0
2.17969 0.293884 0
2.14114 0.224266 0
2.10047 0.289841 0
2.0653 0.219144 0
2.02202 0.284919 0
1.98701 0.214164 0
1.94336 0.279863 0
3.82315 0.673327 0
3.78135 0.738156 0
3.86451 0.735958 0
3.70234 0.735494 0
4.52513 0.244409 0
4.32717 0.294467 0
4.29217 0.221862 0
0.619934 0.539507 0
0.599432 0.577132 0
0.575955 0.542712 0
0.554504 0.58245 0
4.65962 0.656481 0
4.69438 0.726169 0
4.6161 0.721747 0
4.77259 0.731352 0
4.65076 0.791486 0
4.57153 0.788793 0
4.2482 0.289182 0
4.21307 0.218308 0
4.1691 0.284563 0
4.13394 0.21352 0
0.835918 0.606341 0
0.806475 0.6384 0
4.08995 0.279537 0
0.640355 0.426737 0
0.596214 0.435837 0
0.630358 0.379178 0
0.689967 0.627735 0
1.90832 0.209948 0
1.86468 0.27519 0
1.82968 0.20518 0
1.78607 0.269797 0
0.281841 0.313314 0
0.232117 0.268621 0
0.216861 0.334396 0
4.05473 0.209347 0
4.01077 0.2745 0
3.97554 0.204394 0
3.93159 0.269388 0
0.297409 0.759367 0
0.231645 0.782943 0
0.180008 0.73598 0
1.32151 0.676369 0
1.38055 0.718092 0
1.36901 0.793947 0
1.43945 0.766002 0
0.249902 0.198865 0
0.932364 0.624392 0
1.75117 0.201034 0
1.70771 0.264658 0
1.673 0.195402 0
1.62985 0.260294 0
1.59532 0.191927 0
1.55236 0.254233 0
3.89629 0.200227 0
3.85238 0.264494 0
3.81708 0.195303 0
3.77304 0.259453 0
2.66368 0.189084 0
2.74279 0.19534 0
2.77814 0.264556 0
2.82201 0.199823 0
2.85733 0.269552 0
2.90126 0.203886 0
2.93654 0.274416 0
2.98045 0.20868 0
3.01573 0.279376 0
3.0597 0.213193 0
[...]
CELL_DATA 2220
VECTORS velocity double
6.87029 -0.472165 0.0
5.57182 0.291064 0.0
11.0841 3.0145 0.0
10.9903 0.857481 0.0
7.00678 -0.589309 0.0
7.25954 -0.364539 0.0
4.89217 0.286319 0.0
5.27323 0.0121821 0.0
10.0433 6.26429 0.0
7.16275 -0.221853 0.0
6.9416 14.5062 0.0
5.03702 0.222978 0.0
4.21394 0.15762 0.0
9.36421 -2.75549 0.0
9.9342 13.4039 0.0
4.17201 7.30553 0.0
5.48057 0.229302 0.0
4.60249 0.307638 0.0
5.04142 -0.0800477 0.0
5.2688 -0.0530336 0.0
9.74356 2.19398 0.0
19.868 -5.51938 0.0
5.14215 0.307464 0.0
5.20292 0.345688 0.0
6.52292 -0.442012 0.0
8.67883 -2.11372 0.0
10.2514 -1.05114 0.0
4.64529 0.350133 0.0
10.9443 0.858605 0.0
12.1883 0.761829 0.0
4.40387 -1.68435 0.0
13.9859 0.338122 0.0
4.0345 -0.0791516 0.0
14.2104 -10.299 0.0
20.1851 1.35965 0.0
7.33605 -0.398514 0.0
20.6254 2.08728 0.0
4.4583 -0.0654437 0.0
12.3355 0.968755 0.0
12.6931 -0.821501 0.0
6.6687 -0.541291 0.0
10.085 5.24368 0.0
9.4925 0.748591 0.0
4.95365 0.0128479 0.0
4.57685 0.0690795 0.0
4.22783 0.0226954 0.0
5.07278 0.340718 0.0
4.2711 0.012183 0.0
7.16534 -0.190879 0.0
7.34529 0.0283308 0.0
7.93686 1.65208 0.0
4.13749 0.0632946 0.0
4.99148 0.367853 0.0
4.9231 0.0709187 0.0
4.76142 0.233643 0.0
12.697 -1.12431 0.0
14.8645 0.0177094 0.0
4.40532 0.32135 0.0
4.53837 0.331989 0.0
7.46526 -0.0159906 0.0
0.720056 -0.938723 0.0
6.94195 -0.631914 0.0
5.29723 -2.13149 0.0
5.07457 0.38408 0.0
5.04779 0.323279 0.0
14.8747 -8.4534 0.0
9.32518 -0.815477 0.0
5.45948 6.29569 0.0
4.49108 0.32421 0.0
4.51988 0.369811 0.0
4.88868 0.123507 0.0
14.9221 9.17072 0.0
4.06964 0.123779 0.0
7.34267 0.195211 0.0
22.241 -1.61346 0.0
18.1905 -0.24707 0.0
6.41946 1.82643 0.0
6.80727 -1.16738 0.0
8.15496 5.19283 0.0
4.83942 0.1045 0.0
10.7471 1.36848 0.0
13.0124 1.35685 0.0
7.60157 -0.197272 0.0
4.17605 0.101296 0.0
4.96478 0.29888 0.0
4.94437 0.174547 0.0
6.66404 -0.613779 0.0
4.32075 0.162327 0.0
4.37224 0.25008 0.0
10.8334 6.75746 0.0
22.3605 -4.03287 0.0
7.57839 1.80742 0.0
5.0005 -0.0928533 0.0
8.64281 2.21608 0.0
17.2733 0.117368 0.0
12.7565 0.970157 0.0
21.2107 4.4407 0.0
-1.59117 -16.741 0.0
1.34645 -0.872673 0.0
12.6445 10.6826 0.0
-8.40432 -17.4895 0.0
7.70614 -1.49162 0.0
5.02075 0.344597 0.0
4.62916 0.425447 0.0
19.472 -4.80467 0.0
19.0487 -0.808768 0.0
7.22345 -0.317301 0.0
7.45565 -0.439151 0.0
1.84246 -0.0379111 0.0
5.23138 0.444242 0.0
13.0218 0.656942 0.0
10.9325 -3.96591 0.0
7.17394 -0.237298 0.0
5.78607 -0.418749 0.0
7.48652 -0.806574 0.0
4.45341 0.320409 0.0
8.50566 -1.97016 0.0
9.07475 -0.337986 0.0
-0.244218 -20.4306 0.0
11.8389 6.09951 0.0
6.33753 -0.900369 0.0
13.8269 -0.390201 0.0
6.35647 1.35074 0.0
19.2176 -8.19835 0.0
19.2052 0.590268 0.0
0.844625 -8.69826 0.0
19.9025 -1.37916 0.0
11.0474 0.741347 0.0
9.50729 -3.38845 0.0
-8.24425 7.69584 0.0
4.74441 0.0893363 0.0
21.8103 4.56978 0.0
21.3384 6.11971 0.0
5.4005 0.496141 0.0
12.3376 1.01271 0.0
5.1048 0.590452 0.0
3.98428 0.0116648 0.0
8.70608 -1.56594 0.0
2.78606 -9.29136 0.0
14.1159 0.551196 0.0
9.30295 -2.06249 0.0
4.91137 -0.00709542 0.0
7.45941 -1.07041 0.0
18.5784 0.216881 0.0
7.26836 0.182384 0.0
8.29479 1.94609 0.0
-12.8802 8.1895 0.0
1.66058 -17.5833 0.0
7.88556 0.680689 0.0
7.47117 -0.588157 0.0
4.59285 0.00549127 0.0
11.9038 5.14573 0.0
14.0498 0.00759609 0.0
17.78 -10.3237 0.0
4.1358 0.685595 0.0
5.51578 0.127992 0.0
10.5655 -1.00278 0.0
5.61389 0.209281 0.0
6.60788 -0.635995 0.0
6.99385 -1.40469 0.0
19.9744 8.33397 0.0
4.54369 0.0248232 0.0
-13.0408 -8.4794 0.0
14.0815 -0.144945 0.0
4.09214 0.0638386 0.0
15.3486 -10.3693 0.0
8.0442 -10.9966 0.0
19.4214 0.341356 0.0
5.46478 0.0840941 0.0
18.384 11.215 0.0
-8.36269 13.9527 0.0
4.17054 0.0631086 0.0
4.94773 0.049442 0.0
-8.5594 -8.08569 0.0
-3.10307 -3.84103 0.0
7.7475 4.45472 0.0
5.64722 1.97535 0.0
6.41938 4.30139 0.0
4.18314 -0.700484 0.0
5.40607 0.0465845 0.0
13.7531 -0.167513 0.0
7.66186 -1.54693 0.0
14.6704 -16.2937 0.0
-3.70264 12.6173 0.0
5.39602 0.0218401 0.0
6.00852 -0.782565 0.0
20.3652 0.121866 0.0
4.51538 -0.0253166 0.0
21.2819 3.40884 0.0
19.3901 0.214181 0.0
7.56923 -0.759258 0.0
4.42606 -0.116226 0.0
10.6289 -4.48575 0.0
7.85125 0.543588 0.0
10.2814 -0.419438 0.0
20.3744 -0.243761 0.0
6.326 0.214395 0.0
4.97272 -0.0374111 0.0
3.4881 -0.223652 0.0
5.19341 -0.0417191 0.0
4.57486 -0.0884356 0.0
6.06069 -0.0169588 0.0
17.0589 -8.3227 0.0
5.09533 0.0755083 0.0
6.79782 0.676414 0.0
7.1319 -1.08889 0.0
10.2246 -1.89047 0.0
4.86582 0.0717799 0.0
6.51209 0.0404869 0.0
3.54346 -0.441646 0.0
4.98637 0.318419 0.0
5.93469 18.0942 0.0
6.16293 -0.0775593 0.0
7.55308 6.09565 0.0
6.98379 2.24417 0.0
5.55667 0.103626 0.0
4.3933 0.294811 0.0
5.06856 0.353423 0.0
4.86738 0.828894 0.0
22.3069 0.948463 0.0
7.1887 0.086691 0.0
2.81804 -0.0530598 0.0
4.45297 0.328292 0.0
2.71993 -0.00324515 0.0
5.08265 0.0442245 0.0
5.75471 -0.0382844 0.0
5.74062 -0.822381 0.0
10.2953 14.5985 0.0
11.8079 -2.70792 0.0
5.78935 0.333077 0.0
6.07785 0.0697367 0.0
6.34706 -0.362414 0.0
3.85807 -0.0112766 0.0
5.19281 0.00713462 0.0
5.94256 -0.22635 0.0
17.3968 0.129036 0.0
-3.74132 -5.58145 0.0
4.99283 -0.11229 0.0
4.96637 -0.130712 0.0
4.6404 -0.00621497 0.0
17.6892 -0.251317 0.0
18.1756 7.91082 0.0
19.2171 -2.96172 0.0
3.08914 0.0258654 0.0
5.58432 0.53021 0.0
7.17453 -0.0566487 0.0
5.34094 0.021529 0.0
13.1341 -0.455079 0.0
3.54419 0.810432 0.0
9.75659 0.585738 0.0
5.1737 -0.486243 0.0
3.08667 -0.0226036 0.0
6.55139 -10.4101 0.0
7.22982 -0.0527881 0.0
6.57572 -3.13455 0.0
4.95289 0.220501 0.0
-13.6098 1.47296 0.0
7.1472 -0.00382397 0.0
10.2926 0.170561 0.0
16.9738 0.169704 0.0
5.43981 -0.169649 0.0
14.1043 -0.233094 0.0
5.75782 0.43651 0.0
8.2542 -1.87732 0.0
2.99917 -0.157549 0.0
4.73687 -0.0385012 0.0
4.88032 -0.0460368 0.0
-0.641575 -3.3133 0.0
8.4002 2.05008 0.0
7.19452 -0.074093 0.0
7.12073 0.255154 0.0
7.50272 0.0239666 0.0
4.33871 0.190178 0.0
7.42783 -0.503669 0.0
-4.52266 -9.71875 0.0
19.0868 -1.82085 0.0
14.9168 -14.4056 0.0
2.00514 -1.51875 0.0
6.00393 1.12371 0.0
7.25503 0.044921 0.0
0.581048 -12.5254 0.0
11.7225 -0.184841 0.0
17.7015 -0.249695 0.0
6.22006 0.200107 0.0
7.33651 -0.453531 0.0
5.83724 -0.00988856 0.0
15.0718 -0.412554 0.0
6.01866 0.241858 0.0
4.44509 -0.095997 0.0
4.34573 -0.112048 0.0
-13.594 -1.88478 0.0
5.07453 -0.319842 0.0
3.89954 0.652368 0.0
5.31008 -0.190016 0.0
5.74213 -0.45911 0.0
5.88983 -0.090411 0.0
5.92072 -0.0794458 0.0
10.3072 0.212891 0.0
18.649 -2.5905 0.0
7.39755 1.98079 0.0
4.28112 -0.0418002 0.0
8.17898 3.74158 0.0
10.4807 -3.1893 0.0
4.48382 0.0445865 0.0
5.27288 -8.38503 0.0
5.42273 0.156279 0.0
4.2832 0.0068885 0.0
4.38124 -0.121984 0.0
8.39856 0.196855 0.0
3.41972 0.475452 0.0
5.92869 0.894097 0.0
2.76868 0.0752923 0.0
-1.4891 16.8419 0.0
18.2367 -0.865792 0.0
15.5001 9.79968 0.0
4.91949 -0.11855 0.0
6.3638 3.37222 0.0
6.03527 0.124995 0.0
17.22 -0.190262 0.0
7.81616 2.15373 0.0
14.794 14.344 0.0
6.52065 1.33123 0.0
7.1088 0.0125944 0.0
6.18733 -0.0224805 0.0
2.95646 0.168428 0.0
5.23787 -0.755335 0.0
7.51796 0.0723376 0.0
7.23241 0.278973 0.0
7.23475 0.0821569 0.0
4.71554 -0.769469 0.0
5.79015 -6.98752 0.0
18.8978 0.593702 0.0
3.11429 -2.26472 0.0
5.77408 -0.362395 0.0
13.8905 -7.00847 0.0
17.2781 -0.369519 0.0
11.3118 -0.694809 0.0
8.92397 3.59554 0.0
13.9362 -0.61873 0.0
4.94698 -0.131411 0.0
3.93294 0.407779 0.0
4.56778 -0.143041 0.0
3.54972 -0.0124975 0.0
3.13247 -0.34591 0.0
12.3443 15.7344 0.0
9.39823 4.79465 0.0
4.28127 0.337782 0.0
8.49496 2.59546 0.0
7.94577 1.21723 0.0
2.59314 -0.373351 0.0
15.5673 -5.23841 0.0
2.35466 0.33931 0.0
3.56848 0.0632453 0.0
1.91974 7.25451 0.0
3.02012 0.313865 0.0
17.6865 -0.0044521 0.0
15.9998 -6.50531 0.0
1.78218 -0.106053 0.0
7.12736 0.168478 0.0
13.4192 -0.80752 0.0
8.055 1.23934 0.0
1.20671 17.53 0.0
9.68838 2.82559 0.0
8.20059 1.79939 0.0
3.28144 0.22104 0.0
7.5976 0.118282 0.0
20.0027 5.50524 0.0
2.27754 -0.336593 0.0
3.46706 -0.16849 0.0
14.2127 -0.507788 0.0
2.34479 0.349875 0.0
20.3546 -4.17808 0.0
15.8996 7.03072 0.0
5.53293 -0.157539 0.0
2.60954 -0.0359833 0.0
7.15814 0.290161 0.0
6.40796 0.192855 0.0
6.29966 0.0902236 0.0
17.0413 0.0220788 0.0
6.01379 -0.0715607 0.0
6.66804 0.256626 0.0
17.1654 0.159012 0.0
17.7613 -0.132973 0.0
7.18398 0.0269145 0.0
16.394 0.424446 0.0
7.18996 -0.0321119 0.0
18.444 -3.65601 0.0
7.10759 0.00911265 0.0
9.58354 -2.65312 0.0
7.91801 0.864091 0.0
5.67297 0.466871 0.0
7.32765 0.0357936 0.0
12.6768 -0.412715 0.0
5.64553 -3.03334 0.0
5.40145 -0.536656 0.0
5.32192 -0.624177 0.0
16.6613 0.182195 0.0
5.18912 0.39817 0.0
7.12096 0.0227473 0.0
16.3984 0.368529 0.0
4.45348 0.164401 0.0
11.9688 2.05188 0.0
8.13915 1.4811 0.0
7.14182 -0.00349736 0.0
19.3943 6.01131 0.0
19.7935 3.27821 0.0
3.4225 0.368636 0.0
3.18739 0.369762 0.0
10.5934 0.499234 0.0
11.4783 -8.04823 0.0
3.07103 -11.0026 0.0
2.99497 0.384399 0.0
16.8066 0.181617 0.0
6.98258 -2.47468 0.0
16.3668 -0.319645 0.0
7.13112 -0.0134364 0.0
2.79031 -0.0958912 0.0
2.01748 0.275672 0.0
10.6485 4.51335 0.0
3.42143 0.133616 0.0
8.07994 2.63509 0.0
15.7672 0.500785 0.0
2.76465 0.00423281 0.0
3.43499 -0.063155 0.0
7.95994 1.04066 0.0
6.96252 0.083836 0.0
2.70954 0.107717 0.0
6.86095 -0.0772492 0.0
7.14308 0.0439995 0.0
3.3228 -0.33233 0.0
7.1584 0.0157559 0.0
7.81516 1.02489 0.0
16.4709 -0.54109 0.0
7.7172 0.655217 0.0
4.46873 -0.400406 0.0
20.8393 4.71377 0.0
2.92474 -0.379588 0.0
4.38931 0.279918 0.0
4.50322 -6.13058 0.0
3.62245 0.292067 0.0
8.07356 1.42282 0.0
7.78861 0.768939 0.0
18.1059 2.96593 0.0
19.4278 2.11401 0.0
6.61654 -0.665296 0.0
9.03184 1.66587 0.0
16.2671 0.348472 0.0
1.87712 -0.148845 0.0
1.73071 0.172129 0.0
4.83583 -0.0633853 0.0
6.6768 0.618105 0.0
7.1791 -0.182535 0.0
4.62797 -0.255578 0.0
11.2141 0.41629 0.0
7.49376 0.352121 0.0
2.91179 0.281546 0.0
7.09078 0.427525 0.0
8.40976 2.11851 0.0
4.42898 0.231179 0.0
7.45041 0.457132 0.0
7.58523 0.766442 0.0
7.03084 0.066788 0.0
3.76192 -0.303672 0.0
2.91586 0.213178 0.0
4.34857 0.278657 0.0
6.1983 0.0326623 0.0
4.21954 -0.0760988 0.0
7.18879 0.0361132 0.0
2.71291 0.0606946 0.0
18.5769 1.34021 0.0
3.07967 -0.0768158 0.0
1.76433 0.200423 0.0
8.54654 -0.865107 0.0
8.85815 2.97659 0.0
3.13044 -0.252002 0.0
7.02288 0.0550431 0.0
7.53048 0.5756 0.0
11.216 2.12164 0.0
7.18687 0.0611353 0.0
7.34064 0.596273 0.0
5.9403 -0.667907 0.0
14.6592 -5.55911 0.0
7.7526 -1.0588 0.0
7.10133 0.453381 0.0
4.33648 -0.428476 0.0
4.60524 0.448057 0.0
16.1556 -0.0469522 0.0
1.57523 0.139245 0.0
14.7788 -0.603445 0.0
6.16907 0.392271 0.0
7.2345 0.0637545 0.0
1.64346 0.154745 0.0
1.9613 -0.195626 0.0
7.28155 0.400905 0.0
9.39638 4.02366 0.0
6.43457 -0.0886834 0.0
12.8399 -0.523385 0.0
7.24266 0.0495655 0.0
12.0804 -0.503506 0.0
5.40414 -0.388697 0.0
6.93005 -0.0541214 0.0
7.53218 0.866471 0.0
1.70681 -0.0602952 0.0
6.93853 0.325654 0.0
6.35428 0.211452 0.0
4.62238 -0.0878033 0.0
7.1439 0.0372676 0.0
2.83704 -0.250682 0.0
3.13025 0.252607 0.0
7.78653 1.17476 0.0
6.99889 -0.0650157 0.0
7.00641 -0.216279 0.0
5.13629 -0.0794855 0.0
7.02811 0.0335168 0.0
7.23361 0.0496551 0.0
6.70679 -1.79583 0.0
2.36882 0.0991024 0.0
7.07189 0.104435 0.0
7.79761 -1.2711 0.0
7.05446 0.528297 0.0
6.75797 0.140736 0.0
4.07263 -0.176788 0.0
13.6023 -8.60109 0.0
3.62698 -0.558566 0.0
10.435 -9.89239 0.0
7.13026 -0.264725 0.0
7.84838 1.44344 0.0
7.10797 0.055408 0.0
2.44661 -0.101966 0.0
6.85448 0.228134 0.0
6.81298 0.0653559 0.0
6.85568 0.412244 0.0
7.28603 0.037812 0.0
7.29532 0.667083 0.0
7.04086 0.162643 0.0
11.7457 -0.46874 0.0
11.9135 -1.67315 0.0
4.46825 -0.300655 0.0
16.0339 -0.504555 0.0
4.2813 -0.0663274 0.0
6.76294 -0.199314 0.0
4.328 -0.639475 0.0
17.0299 5.66486 0.0
7.27154 0.0364598 0.0
2.14579 -0.194505 0.0
2.20031 0.202951 0.0
6.9886 0.11014 0.0
15.7822 0.551728 0.0
6.7999 0.169708 0.0
5.79956 0.165077 0.0
1.91247 -0.0207934 0.0
2.95204 -0.0423027 0.0
2.58464 0.0517264 0.0
2.06751 0.206089 0.0
3.63238 -0.364217 0.0
7.71106 -1.96742 0.0
7.29723 0.0334843 0.0
18.6338 4.24351 0.0
0.996772 0.136942 0.0
6.52486 -0.0241639 0.0
6.7054 -0.0280971 0.0
6.57278 -0.106296 0.0
6.46566 0.316722 0.0
1.06557 -0.158707 0.0
2.1646 -0.218806 0.0
6.48097 0.180228 0.0
10.2863 0.568903 0.0
6.74692 0.305027 0.0
5.99916 -0.121675 0.0
7.0155 -0.0115697 0.0
18.4843 -0.203882 0.0
7.10248 -0.0150088 0.0
6.76632 0.215828 0.0
7.24599 0.0210278 0.0
2.74906 -0.194929 0.0
7.86657 3.15284 0.0
7.16118 0.0432848 0.0
7.03244 0.0649617 0.0
7.16023 0.0158455 0.0
6.88484 -0.0773878 0.0
2.65654 0.126741 0.0
7.10688 0.0484752 0.0
2.54696 -0.0444347 0.0
4.76705 0.482754 0.0
6.06183 0.0465409 0.0
6.77051 0.146193 0.0
6.68138 0.220715 0.0
7.15999 0.0371515 0.0
7.16751 0.0544358 0.0
7.16129 0.0525452 0.0
1.51336 0.115179 0.0
2.70207 0.20183 0.0
2.57931 -0.0259106 0.0
7.08973 0.0948645 0.0
6.9644 0.0811185 0.0
18.06 0.121764 0.0
2.49438 0.0504534 0.0
7.04134 -0.00676973 0.0
7.05316 0.0973701 0.0
5.09491 0.550078 0.0
6.99899 0.00739205 0.0
1.36464 0.0298132 0.0
6.87697 -0.0157279 0.0
6.86736 -0.024887 0.0
7.07783 -0.0897364 0.0
6.12199 -0.103939 0.0
5.8509 -0.105429 0.0
6.80672 -0.0374716 0.0
3.70773 -0.30841 0.0
18.8295 -0.885498 0.0
7.07762 0.0683344 0.0
7.09014 -0.0761716 0.0
7.05802 0.0847047 0.0
6.77356 0.138869 0.0
4.97996 0.0269878 0.0
6.98036 0.0952184 0.0
7.53132 -0.758195 0.0
7.19893 0.0054793 0.0
2.88228 0.0846889 0.0
6.90909 0.150824 0.0
1.44853 -0.0349232 0.0
7.13543 0.0841796 0.0
7.08752 0.126959 0.0
6.79056 0.144825 0.0
1.26805 0.0661119 0.0
12.8923 -6.88255 0.0
7.23587 0.0212129 0.0
7.15301 0.0704614 0.0
6.90166 -0.0130325 0.0
7.12565 -0.0174223 0.0
7.11248 0.0997334 0.0
7.07315 0.109121 0.0
7.13951 0.0590617 0.0
7.26738 0.0494717 0.0
6.8454 0.162898 0.0
1.51902 0.0306008 0.0
4.2932 0.0911219 0.0
7.09788 0.0152198 0.0
5.23881 5.02103 0.0
1.34121 -0.079418 0.0
2.61281 -0.0295924 0.0
8.97651 -7.74753 0.0
7.05791 0.0951533 0.0
7.02508 0.116295 0.0
4.33179 -0.041382 0.0
6.95364 -0.0478143 0.0
6.99086 -0.0311727 0.0
6.19975 0.332183 0.0
2.66884 0.0689279 0.0
1.48409 -0.0167996 0.0
7.63549 -0.900035 0.0
6.77343 0.191098 0.0
7.02656 -0.0824045 0.0
7.11545 0.101472 0.0
5.91136 -0.739392 0.0
7.09576 0.121575 0.0
6.63593 0.18827 0.0
7.10987 -0.0140095 0.0
1.4298 0.0234551 0.0
7.17748 0.091433 0.0
7.14914 -0.00391494 0.0
1.52717 -0.0233999 0.0
6.94187 0.16413 0.0
7.26185 0.0469643 0.0
7.10757 0.146546 0.0
7.20634 0.00879462 0.0
6.98681 -0.0522766 0.0
7.18422 0.0102558 0.0
6.97778 -0.142029 0.0
7.13485 -0.0597335 0.0
7.22149 0.051924 0.0
7.14784 -0.0142479 0.0
6.95448 -0.0655405 0.0
1.5081 -0.0133708 0.0
7.16156 0.0109158 0.0
6.96111 -0.0780388 0.0
1.91989 0.0530142 0.0
7.13691 -0.000638114 0.0
2.91347 0.0927288 0.0
7.16797 0.0839698 0.0
6.99143 -0.0668893 0.0
7.10356 0.144803 0.0
7.18261 -0.0524253 0.0
7.15643 -0.0130577 0.0
7.08441 0.132984 0.0
4.86863 0.146871 0.0
7.0814 0.0154764 0.0
6.90387 0.0664007 0.0
7.04831 0.101201 0.0
1.38776 -0.0110695 0.0
7.05507 0.117454 0.0
7.18874 0.0217175 0.0
6.84647 -0.147181 0.0
2.60357 -0.223257 0.0
6.6457 0.167838 0.0
2.57444 0.151198 0.0
6.77986 -0.170697 0.0
6.99118 0.0543809 0.0
6.68115 0.176375 0.0
6.86239 -0.0391543 0.0
6.97172 -0.0832205 0.0
6.77772 0.192043 0.0
7.07526 -0.0283434 0.0
17.4464 7.7534 0.0
6.60317 -0.121249 0.0
7.03953 0.0161968 0.0
7.1133 0.145697 0.0
7.11166 0.12084 0.0
7.115 0.14763 0.0
7.00021 -0.0748401 0.0
7.14325 0.151212 0.0
6.85593 -0.0621315 0.0
7.1871 0.129881 0.0
6.91879 -0.0172799 0.0
7.03225 -0.0267273 0.0
4.78436 0.189065 0.0
7.02162 0.102122 0.0
7.16916 0.152708 0.0
6.74959 -0.0741245 0.0
7.15013 0.133942 0.0
7.01318 -0.0728779 0.0
6.9879 -0.0746708 0.0
1.56064 0.0382463 0.0
7.09743 -0.0270192 0.0
6.63164 0.176098 0.0
7.20393 0.144898 0.0
6.39512 0.0622539 0.0
2.95536 0.123902 0.0
6.98529 -0.0418445 0.0
7.1991 0.105194 0.0
6.9839 0.0499739 0.0
6.67978 -0.0547042 0.0
7.00317 -0.0463388 0.0
7.24332 0.0558654 0.0
7.02889 -0.0560704 0.0
6.97489 -0.0119599 0.0
6.17931 0.324675 0.0
7.10227 -0.0143411 0.0
7.24307 0.144644 0.0
7.14373 0.0877515 0.0
4.64424 -0.0369108 0.0
7.05976 -0.0324994 0.0
6.62344 -0.0783883 0.0
1.66404 0.0769648 0.0
2.72713 0.155897 0.0
7.03821 -0.0246098 0.0
7.17091 0.155467 0.0
6.853 -0.0928301 0.0
7.005 -0.00595234 0.0
7.24282 0.0927098 0.0
6.85053 -0.0605443 0.0
6.95713 -0.0471459 0.0
6.98597 0.0331776 0.0
6.56557 -0.0715188 0.0
6.78153 -0.0577714 0.0
7.27634 0.114388 0.0
6.5978 -0.0605148 0.0
7.40446 0.117359 0.0
6.86077 -0.102267 0.0
6.92229 -0.0690081 0.0
6.77355 -0.0757657 0.0
6.54816 -0.0869071 0.0
7.09136 0.133912 0.0
7.03203 0.0116383 0.0
2.06335 0.0908953 0.0
3.06364 0.133194 0.0
7.28095 0.0286955 0.0
7.25846 -0.00917526 0.0
6.88596 0.178838 0.0
6.86871 0.0454291 0.0
6.88984 -0.0511946 0.0
7.13763 0.145917 0.0
6.9416 0.0604572 0.0
7.11149 0.123186 0.0
7.10936 -0.0215121 0.0
6.53503 -0.105306 0.0
6.78365 -0.114789 0.0
6.91998 -0.0418483 0.0
7.00594 0.0414692 0.0
7.32306 0.100855 0.0
7.08352 -0.0263033 0.0
6.77191 -0.0925319 0.0
12.2662 4.52003 0.0
6.39427 -0.0837759 0.0
6.77356 -0.108226 0.0
6.52574 -0.128468 0.0
7.12297 0.0680751 0.0
6.87703 0.0635165 0.0
6.95943 0.053731 0.0
6.87902 -0.0937332 0.0
6.42586 -0.0722597 0.0
6.7979 0.0277552 0.0
7.23692 0.159839 0.0
6.52981 -0.142848 0.0
6.80569 -0.0872282 0.0
6.81577 0.0345045 0.0
5.2805 0.117334 0.0
7.0501 0.117315 0.0
6.54439 -0.106265 0.0
4.73518 0.0786086 0.0
6.37244 -0.100078 0.0
6.90495 0.0390762 0.0
6.55064 -0.0277122 0.0
6.81366 -0.0320318 0.0
6.48472 -0.0715317 0.0
1.48032 -0.0323244 0.0
2.6062 -0.0590194 0.0
5.20778 0.18128 0.0
6.85496 -0.0662951 0.0
6.89634 -0.00433274 0.0
6.7809 -0.0115385 0.0
6.86386 0.00097731 0.0
6.52272 0.04408 0.0
2.99185 0.0820825 0.0
7.34639 0.135489 0.0
2.65048 -0.0608916 0.0
7.33117 0.0422313 0.0
6.79438 -0.0531236 0.0
6.35182 -0.122957 0.0
6.80498 0.0814237 0.0
6.33026 -0.152017 0.0
7.36215 -0.000409191 0.0
6.70978 0.0923627 0.0
1.51929 -0.0311794 0.0
2.62269 -0.0601084 0.0
6.8964 -0.0563856 0.0
1.6795 0.0501365 0.0
6.8525 -0.0456559 0.0
6.34542 -0.143655 0.0
6.35493 -0.0656121 0.0
6.74679 0.0746387 0.0
6.87149 -0.00749964 0.0
7.42119 0.0186297 0.0
6.62052 0.0642554 0.0
6.57091 0.0109591 0.0
2.63433 -0.0518107 0.0
1.57539 -0.0316465 0.0
4.55246 0.147294 0.0
6.33225 0.0230254 0.0
6.64682 0.104995 0.0
6.84924 -0.0779792 0.0
6.53238 0.103392 0.0
7.03214 0.0041726 0.0
4.60833 0.166646 0.0
6.43932 0.0512873 0.0
6.8981 -0.0779154 0.0
6.58292 -0.026853 0.0
2.73169 0.0844315 0.0
1.44503 -0.0179189 0.0
1.23406 -0.034952 0.0
1.52415 -0.0293408 0.0
2.67169 -0.0130575 0.0
2.86416 0.0784806 0.0
1.35335 -0.00538656 0.0
1.52357 0.00657565 0.0
2.59616 -0.0616652 0.0
1.458 -0.0277646 0.0
1.56204 -0.0179736 0.0
1.68122 0.0557917 0.0
2.78698 -0.0560249 0.0
1.61244 0.0445135 0.0
2.55409 -0.030115 0.0
1.56316 0.044696 0.0
2.72444 -0.0293997 0.0
2.66522 0.0305545 0.0
1.49444 0.0792425 0.0
2.96933 0.07674 0.0
2.59515 -0.0557981 0.0
2.53798 -0.0430846 0.0
1.52206 0.105908 0.0
2.51275 -0.0227071 0.0
2.65116 0.119968 0.0
1.45301 0.0195883 0.0
2.58496 -0.0392562 0.0
1.604 0.0292363 0.0
1.45856 0.0576782 0.0
2.49067 -0.0645776 0.0
1.5349 0.0769337 0.0
1.89188 0.0444038 0.0
1.55747 0.116658 0.0
1.35619 0.0559049 0.0
1.43089 -0.0122414 0.0
2.62744 0.00648576 0.0
1.49188 -0.0347586 0.0
1.51989 -0.0306177 0.0
1.57117 0.0739398 0.0
1.59565 0.0537636 0.0
1.54867 0.0241523 0.0
1.49577 0.0280643 0.0
1.30602 -0.0330868 0.0
1.46588 -0.0147375 0.0
1.82317 0.00263009 0.0
2.87858 -0.00285393 0.0
1.60534 0.00524691 0.0
1.90206 0.0448057 0.0
2.527 0.108499 0.0
2.43042 -0.0750355 0.0
1.45885 -0.0340595 0.0
1.57687 0.089294 0.0
1.495 0.0189088 0.0
2.69115 0.0531396 0.0
1.39256 0.0610012 0.0
1.55209 0.045129 0.0
1.44633 -0.0274087 0.0
2.70988 0.12966 0.0
1.76144 -0.0415193 0.0
1.30159 0.0158602 0.0
1.47229 0.0177229 0.0
1.24295 0.0326407 0.0
1.61626 0.0461356 0.0
1.59907 -0.00875104 0.0
2.35222 -0.0306728 0.0
1.12777 -0.00970635 0.0
2.65001 0.148712 0.0
2.75916 0.0768419 0.0
6.99051 -0.0559533 0.0
6.88598 -0.0614072 0.0
7.05287 -0.0370351 0.0
6.42484 -0.00121868 0.0
7.14978 -0.124513 0.0
7.27772 -0.046037 0.0
6.45543 -0.00935553 0.0
7.1855 -0.128764 0.0
7.3134 -0.104637 0.0
7.22119 -0.140139 0.0
7.32589 -0.0543483 0.0
6.69096 -0.0121852 0.0