# vtk DataFile Version 3.0
Malha 2D com triângulos e temperatura
ASCII
DATASET UNSTRUCTURED_GRID

POINTS 1194 double
0 0 0
5 0 0
5 1 0
0 1 0
0.85 0.5 0
0.842388 0.538268 0
0.820711 0.570711 0
0.788268 0.592388 0
0.75 0.6 0
0.711732 0.592388 0
0.679289 0.570711 0
0.657612 0.538268 0
0.65 0.5 0
0.657612 0.461732 0
0.679289 0.429289 0
0.711732 0.407612 0
0.75 0.4 0
0.788268 0.407612 0
0.820711 0.429289 0
0.842388 0.461732 0
0.0793651 0 0
0.15873 0 0
0.238095 0 0
0.31746 0 0
0.396825 0 0
0.47619 0 0
0.555556 0 0
0.634921 0 0
0.714286 0 0
0.793651 0 0
0.873016 0 0
0.952381 0 0
1.03175 0 0
1.11111 0 0
1.19048 0 0
1.26984 0 0
1.34921 0 0
1.42857 0 0
1.50794 0 0
1.5873 0 0
1.66667 0 0
1.74603 0 0
1.8254 0 0
1.90476 0 0
1.98413 0 0
2.06349 0 0
2.14286 0 0
2.22222 0 0
2.30159 0 0
2.38095 0 0
2.46032 0 0
2.53968 0 0
2.61905 0 0
2.69841 0 0
2.77778 0 0
2.85714 0 0
2.93651 0 0
3.01587 0 0
3.09524 0 0
3.1746 0 0
3.25397 0 0
3.33333 0 0
3.4127 0 0
3.49206 0 0
3.57143 0 0
3.65079 0 0
3.73016 0 0
3.80952 0 0
3.88889 0 0
3.96825 0 0
4.04762 0 0
4.12698 0 0
4.20635 0 0
4.28571 0 0
4.36508 0 0
4.44444 0 0
4.52381 0 0
4.60317 0 0
4.68254 0 0
4.7619 0 0
4.84127 0 0
4.92063 0 0
5 0.0769231 0
5 0.153846 0
5 0.230769 0
5 0.307692 0
5 0.384615 0
5 0.461538 0
5 0.538462 0
5 0.615385 0
5 0.692308 0
5 0.769231 0
5 0.846154 0
5 0.923077 0
4.92063 1 0
4.84127 1 0
4.7619 1 0
4.68254 1 0
4.60317 1 0
4.52381 1 0
4.44444 1 0
4.36508 1 0
4.28571 1 0
4.20635 1 0
4.12698 1 0
4.04762 1 0
3.96825 1 0
3.88889 1 0
3.80952 1 0
3.73016 1 0
3.65079 1 0
3.57143 1 0
3.49206 1 0
3.4127 1 0
3.33333 1 0
3.25397 1 0
3.1746 1 0
3.09524 1 0
3.01587 1 0
2.93651 1 0
2.85714 1 0
2.77778 1 0
2.69841 1 0
2.61905 1 0
2.53968 1 0
2.46032 1 0
2.38095 1 0
2.30159 1 0
2.22222 1 0
2.14286 1 0
2.06349 1 0
1.98413 1 0
1.90476 1 0
1.8254 1 0
1.74603 1 0
1.66667 1 0
1.5873 1 0
1.50794 1 0
1.42857 1 0
1.34921 1 0
1.26984 1 0
1.19048 1 0
1.11111 1 0
1.03175 1 0
0.952381 1 0
0.873016 1 0
0.793651 1 0
0.714286 1 0
0.634921 1 0
0.555556 1 0
0.47619 1 0
0.396825 1 0
0.31746 1 0
0.238095 1 0
0.15873 1 0
0.0793651 1 0
0 0.923077 0
0 0.846154 0
0 0.769231 0
0 0.692308 0
0 0.615385 0
0 0.538462 0
0 0.461538 0
0 0.384615 0
0 0.307692 0
0 0.230769 0
0 0.153846 0
0 0.0769231 0
0.879698 0.466718 0
1.3085 0.931947 0
1.30532 0.0638546 0
4.93832 0.504275 0
0.620452 0.46964 0
3.99858 0.0669607 0
1.63721 0.934258 0
3.3751 0.0523709 0
4.3254 0.0687322 0
2.42354 0.0642082 0
2.97619 0.0687322 0
2.02101 0.0693621 0
3.68108 0.0581336 0
2.65899 0.932655 0
4.178 0.939994 0
3.21614 0.938179 0
2.25483 0.919987 0
3.53215 0.928998 0
3.84921 0.931268 0
1.69647 0.0674297 0
1.94349 0.930209 0
4.48413 0.931268 0
2.97813 0.942022 0
2.74097 0.0673855 0
0.859645 0.573263 0
0.639718 0.573116 0
0.0651563 0.652836 0
0.0635304 0.346121 0
4.56232 0.0679683 0
0.830393 0.392645 0
0.669618 0.39275 0
1.06185 0.0668897 0
0.440193 0.0680031 0
1.06474 0.93511 0
0.446074 0.935974 0
0.724697 0.630698 0
4.72268 0.931235 0
4.93065 0.267192 0
0.589836 0.936152 0
0.92338 0.0562425 0
0.590207 0.0623339 0
0.755872 0.0732784 0
0.838039 0.936714 0
4.92573 0.732039 0
0.281717 0.93783 0
0.28208 0.0811877 0
0.065248 0.503161 0
1.46076 0.0637037 0
4.72574 0.0661877 0
4.31028 0.937908 0
3.21429 0.0687322 0
1.46639 0.932632 0
3.6897 0.928155 0
2.42063 0.931268 0
3.5364 0.0691789 0
2.25998 0.0676208 0
1.78735 0.937047 0
4.01535 0.920637 0
1.85469 0.0674188 0
3.83991 0.0626292 0
3.37477 0.929368 0
2.58225 0.0657863 0
2.81746 0.932342 0
4.16667 0.0687322 0
2.11402 0.935574 0
0.0614266 0.197046 0
0.0612841 0.803003 0
4.88273 0.0644126 0
4.87774 0.933272 0
0.859645 0.426737 0
0.903081 0.436592 0
0.923672 0.473385 0
0.948706 0.439078 0
0.969155 0.479795 0
0.996593 0.439791 0
1.0202 0.484937 0
1.04667 0.440138 0
1.07382 0.489694 0
1.1034 0.440801 0
1.13169 0.49612 0
1.16603 0.445058 0
1.1931 0.504331 0
1.22956 0.450883 0
1.25923 0.506004 0
1.29683 0.453139 0
1.32923 0.510343 0
1.36603 0.454344 0
1.03276 0.530395 0
1.40063 0.516169 0
1.43576 0.454934 0
1.47042 0.520776 0
1.51069 0.46142 0
1.54422 0.526371 0
1.58547 0.465572 0
1.61942 0.531773 0
1.66033 0.468788 0
1.69546 0.536793 0
1.73713 0.472812 0
1.77239 0.541977 0
1.81532 0.478494 0
1.85006 0.547285 0
1.89327 0.483449 0
1.92802 0.55361 0
1.97142 0.488546 0
2.00623 0.558966 0
2.04984 0.493518 0
2.08483 0.564085 0
2.12847 0.498462 0
2.16353 0.569137 0
2.20719 0.503331 0
0.961579 0.391697 0
1.22451 0.565337 0
2.24238 0.574192 0
2.28611 0.508258 0
2.32134 0.579247 0
2.36519 0.513325 0
2.40036 0.584295 0
2.44425 0.51834 0
2.47944 0.589336 0
2.52334 0.523355 0
2.55853 0.594372 0
2.60245 0.52837 0
2.63764 0.599431 0
2.68159 0.533388 0
2.64637 0.462336 0
2.72553 0.467349 0
2.76076 0.538418 0
2.8047 0.47237 0
2.83993 0.543451 0
2.88387 0.477399 0
2.91911 0.548482 0
2.96305 0.482427 0
2.9983 0.553514 0
3.04224 0.487456 0
3.07749 0.558545 0
3.12143 0.492477 0
3.15668 0.563574 0
3.20063 0.497514 0
3.23588 0.568605 0
3.27983 0.502542 0
3.31508 0.573635 0
3.35903 0.507562 0
3.39428 0.578663 0
3.43823 0.5126 0
3.47348 0.583694 0
3.51744 0.517628 0
3.55268 0.588724 0
3.59664 0.522646 0
3.63189 0.593752 0
3.67585 0.527673 0
3.71109 0.598781 0
3.75505 0.532702 0
3.7903 0.60381 0
3.83426 0.537731 0
3.79901 0.466623 0
3.87821 0.471754 0
3.91346 0.542777 0
3.95742 0.476701 0
3.99267 0.547795 0
4.03662 0.481715 0
4.07187 0.552815 0
4.11582 0.486743 0
4.15106 0.55783 0
4.195 0.491782 0
4.23023 0.562843 0
4.27415 0.49682 0
4.30937 0.567866 0
4.35325 0.501915 0
4.38842 0.572845 0
4.43227 0.506997 0
4.46737 0.577575 0
4.51106 0.511995 0
4.54622 0.582183 0
1.13571 0.390292 0
4.47606 0.441361 0
4.55475 0.446396 0
2.32985 0.442214 0
3.5614 0.451571 0
3.08619 0.421408 0
2.09339 0.427815 0
1.42887 0.583001 0
2.84864 0.406329 0
3.32378 0.43649 0
4.23911 0.425894 0
1.54723 0.39251 0
1.77883 0.406811 0
1.33959 0.387065 0
3.92239 0.405803 0
4.08079 0.415776 0
2.48812 0.452349 0
1.57935 0.603183 0
1.93602 0.417543 0
1.72453 0.617973 0
3.11273 0.629643 0
2.69029 0.396284 0
3.94662 0.623383 0
1.88466 0.613248 0
2.79598 0.609502 0
4.10826 0.620575 0
2.04005 0.62838 0
2.95434 0.619575 0
4.51981 0.375801 0
4.59833 0.380943 0
4.63314 0.451296 0
4.26693 0.63114 0
2.19619 0.645921 0
4.4246 0.642296 0
3.27112 0.639707 0
2.35729 0.649822 0
2.51462 0.660373 0
3.42952 0.649769 0
4.67669 0.38601 0
3.58793 0.659829 0
3.74634 0.669888 0
4.64195 0.315733 0
4.44109 0.370647 0
4.48493 0.305066 0
4.40614 0.29989 0
4.71136 0.456133 0
4.72014 0.320758 0
0.8692 0.382093 0
0.841252 0.348256 0
0.886481 0.338703 0
0.853127 0.301457 0
0.902583 0.287335 0
0.801683 0.321689 0
0.818113 0.263019 0
0.764765 0.277091 0
4.44702 0.235678 0
0.946267 0.520761 0
0.78107 0.221265 0
0.726309 0.234724 0
0.848273 0.20551 0
4.68545 0.250576 0
4.37074 0.227561 0
4.76365 0.255792 0
4.79822 0.326145 0
0.713664 0.287231 0
0.672358 0.247957 0
0.68673 0.192342 0
0.630368 0.2085 0
0.616569 0.265341 0
0.574186 0.225456 0
0.557393 0.28131 0
0.52004 0.242373 0
0.504416 0.299685 0
0.462273 0.252096 0
0.44798 0.316739 0
0.404567 0.276951 0
0.390546 0.335414 0
0.434669 0.37657 0
0.377935 0.394545 0
0.421979 0.43426 0
0.365682 0.452846 0
0.409646 0.492216 0
0.353389 0.51089 0
0.397738 0.551598 0
0.339864 0.570301 0
0.385899 0.612153 0
0.325913 0.631557 0
0.344507 0.29318 0
0.320568 0.413067 0
0.373553 0.673852 0
0.434438 0.653082 0
0.311416 0.69481 0
0.449777 0.528305 0
0.293513 0.534612 0
0.421431 0.715204 0
0.480917 0.696603 0
0.54504 0.34471 0
0.262743 0.649913 0
0.246209 0.712341 0
0.468564 0.755948 0
0.526091 0.735423 0
0.538207 0.68039 0
0.581228 0.716342 0
0.408756 0.777952 0
0.36234 0.239019 0
0.297047 0.251925 0
0.572109 0.771575 0
0.624906 0.752173 0
0.474824 0.414151 0
0.534351 0.182707 0
0.633682 0.70159 0
0.674547 0.736174 0
0.66826 0.788959 0
0.721117 0.76834 0
0.714515 0.825486 0
0.769074 0.802008 0
0.775287 0.746591 0
0.821903 0.778625 0
0.826767 0.726064 0
0.873257 0.756032 0
0.872997 0.697261 0
0.92331 0.732304 0
0.930014 0.67838 0
0.976061 0.710612 0
0.92456 0.784469 0
0.982178 0.654421 0
1.03016 0.688004 0
1.02037 0.747059 0
1.08 0.723819 0
1.08651 0.661896 0
1.1397 0.698204 0
1.13262 0.763657 0
1.19424 0.736545 0
1.18556 0.80161 0
1.24839 0.771772 0
1.25723 0.706382 0
1.31432 0.745787 0
4.66801 0.521361 0
4.74602 0.526202 0
4.70285 0.591278 0
4.78076 0.596023 0
4.73763 0.661207 0
4.78904 0.460969 0
2.61113 0.391267 0
2.65506 0.325217 0
2.57588 0.320198 0
2.61982 0.254148 0
2.69899 0.259163 0
2.54065 0.249131 0
2.49672 0.315179 0
2.46148 0.244124 0
2.41757 0.310166 0
2.38233 0.239117 0
2.33843 0.30514 0
2.30297 0.237979 0
2.25928 0.300748 0
2.22079 0.221377 0
2.17969 0.293884 0
2.14114 0.224266 0
2.10047 0.289841 0
2.0653 0.219144 0
2.02202 0.284919 0
1.98701 0.214164 0
1.94336 0.279863 0
3.82315 0.673327 0
3.78135 0.738156 0
3.86451 0.735958 0
3.70234 0.735494 0
4.52513 0.244409 0
4.32717 0.294467 0
4.29217 0.221862 0
0.619934 0.539507 0
0.599432 0.577132 0
0.575955 0.542712 0
0.554504 0.58245 0
4.65962 0.656481 0
4.69438 0.726169 0
4.6161 0.721747 0
4.77259 0.731352 0
4.65076 0.791486 0
4.57153 0.788793 0
4.2482 0.289182 0
4.21307 0.218308 0
4.1691 0.284563 0
4.13394 0.21352 0
0.835918 0.606341 0
0.806475 0.6384 0
4.08995 0.279537 0
0.640355 0.426737 0
0.596214 0.435837 0
0.630358 0.379178 0
0.689967 0.627735 0
1.90832 0.209948 0
1.86468 0.27519 0
1.82968 0.20518 0
1.78607 0.269797 0
0.281841 0.313314 0
0.232117 0.268621 0
0.216861 0.334396 0
4.05473 0.209347 0
4.01077 0.2745 0
3.97554 0.204394 0
3.93159 0.269388 0
0.297409 0.759367 0
0.231645 0.782943 0
0.180008 0.73598 0
1.32151 0.676369 0
1.38055 0.718092 0
1.36901 0.793947 0
1.43945 0.766002 0
0.249902 0.198865 0
0.932364 0.624392 0
1.75117 0.201034 0
1.70771 0.264658 0
1.673 0.195402 0
1.62985 0.260294 0
1.59532 0.191927 0
1.55236 0.254233 0
3.89629 0.200227 0
3.85238 0.264494 0
3.81708 0.195303 0
3.77304 0.259453 0
2.66368 0.189084 0
2.74279 0.19534 0
2.77814 0.264556 0
2.82201 0.199823 0
2.85733 0.269552 0
2.90126 0.203886 0
2.93654 0.274416 0
2.98045 0.20868 0
3.01573 0.279376 0
3.0597 0.213193 0
[...]
CELL_DATA 2220
VECTORS velocity double
11.2011 -0.60312 0.0
9.00793 0.476586 0.0
14.9299 0.852542 0.0
11.3294 1.44295 0.0
11.4327 -0.724767 0.0
11.9298 -0.538749 0.0
7.9213 0.468522 0.0
8.5534 0.0232378 0.0
17.3369 2.28837 0.0
11.7145 -0.3437 0.0
12.3102 0.739745 0.0
8.19493 0.354329 0.0
6.84667 0.255299 0.0
14.6607 -1.65134 0.0
13.4468 0.135706 0.0
14.6621 2.56343 0.0
8.85187 0.390257 0.0
7.45454 0.500378 0.0
8.1503 -0.131242 0.0
8.49979 -0.0915503 0.0
12.9461 0.608657 0.0
14.0274 2.80953 0.0
8.31075 0.503867 0.0
8.41613 0.557612 0.0
13.4929 -0.369947 0.0
13.5937 -1.41778 0.0
12.1199 0.479342 0.0
7.52767 0.562932 0.0
11.2106 1.35128 0.0
12.0702 1.03242 0.0
13.5867 -0.954517 0.0
14.5725 1.7916 0.0
6.51175 -0.129552 0.0
16.38 0.544578 0.0
14.9685 -2.68853 0.0
12.087 -0.570443 0.0
15.1494 -3.01867 0.0
7.21919 -0.112261 0.0
12.514 1.53692 0.0
14.1943 1.02473 0.0
7.87959 0.258885 0.0
16.9716 2.33739 0.0
9.87488 1.26564 0.0
8.03767 0.0237262 0.0
7.43777 0.11406 0.0
6.85875 0.0373021 0.0
8.20681 0.547355 0.0
6.92045 0.0237875 0.0
11.7027 -0.300585 0.0
12.236 0.00165271 0.0
10.7882 0.631353 0.0
6.71543 0.111408 0.0
8.08288 0.581583 0.0
7.98325 0.121776 0.0
7.70539 0.393374 0.0
14.515 0.890495 0.0
15.4833 1.86583 0.0
7.1514 0.508983 0.0
7.35633 0.53078 0.0
12.4974 -0.0651532 0.0
1.0985 -1.70493 0.0
13.4596 -0.564569 0.0
13.8069 -1.34519 0.0
8.21406 0.611805 0.0
8.19116 0.511428 0.0
17.6664 0.424608 0.0
9.54169 -1.16218 0.0
15.1897 2.56768 0.0
7.30041 0.511927 0.0
7.32881 0.587647 0.0
7.93432 0.200032 0.0
16.666 -0.87233 0.0
6.60091 0.199231 0.0
12.1984 0.250285 0.0
5.4079 0.367517 0.0
14.7021 1.86648 0.0
14.0295 1.30766 0.0
10.67 -0.974709 0.0
16.1885 2.56262 0.0
7.84235 0.15946 0.0
12.6033 -0.322577 0.0
14.6733 -0.78686 0.0
7.51536 -0.219953 0.0
6.78253 0.154949 0.0
8.03636 0.467519 0.0
8.01051 0.270926 0.0
10.8375 -0.736718 0.0
7.0158 0.252324 0.0
7.09422 0.390939 0.0
17.7027 2.0574 0.0
2.91437 0.453799 0.0
11.4433 1.32415 0.0
8.08365 -0.155632 0.0
14.1506 1.83694 0.0
14.8397 1.90458 0.0
14.1215 -0.8689 0.0
13.5308 -3.06485 0.0
7.62121 -1.14582 0.0
2.11138 -1.53901 0.0
15.963 -0.107391 0.0
3.92954 -0.82436 0.0
12.2749 -1.20204 0.0
8.12587 0.545489 0.0
7.51922 0.62086 0.0
15.762 2.86811 0.0
14.8413 2.23867 0.0
11.87 -0.478812 0.0
12.9214 -0.522994 0.0
2.99971 -0.0588109 0.0
8.4922 0.655225 0.0
12.8087 0.97653 0.0
16.5927 -1.60906 0.0
11.7609 -0.367051 0.0
5.93684 -0.587461 0.0
13.3745 -0.830338 0.0
7.22091 0.505297 0.0
13.5587 -1.44563 0.0
8.95688 -0.393621 0.0
4.1524 -0.150731 0.0
17.8127 1.64366 0.0
10.0737 -0.908582 0.0
13.2551 -0.689513 0.0
9.3996 0.951079 0.0
11.6888 2.48969 0.0
15.2916 -2.57045 0.0
12.8384 -2.39576 0.0
14.2294 2.14418 0.0
10.9619 0.943942 0.0
15.5345 -1.93371 0.0
7.58356 1.46298 0.0
7.67739 0.177347 0.0
8.43248 -1.64474 0.0
5.19097 -1.1285 0.0
9.11111 0.932751 0.0
12.471 1.49672 0.0
8.53906 1.11865 0.0
6.45047 0.0147291 0.0
11.772 -0.357645 0.0
13.7592 -2.47897 0.0
14.514 1.88669 0.0
13.0178 -0.756164 0.0
7.96667 -0.0142666 0.0
13.5458 -1.0408 0.0
15.9473 -2.78152 0.0
12.019 0.243081 0.0
13.2755 1.64785 0.0
4.59298 0.978382 0.0
7.90642 -0.70866 0.0
13.4272 0.764333 0.0
12.9057 -0.680292 0.0
7.43125 0.0154981 0.0
17.45 1.60107 0.0
13.3647 0.0174979 0.0
11.1767 2.26215 0.0
6.76446 1.26048 0.0
8.94259 0.220812 0.0
10.7452 -1.38019 0.0
9.08574 0.351534 0.0
6.65506 -0.742735 0.0
10.4358 -0.920675 0.0
9.85444 -2.48849 0.0
7.37927 0.0453057 0.0
4.39754 -0.994347 0.0
14.6153 -1.68871 0.0
6.62565 0.106622 0.0
15.5536 1.24182 0.0
15.6915 -1.94086 0.0
13.7815 -0.792141 0.0
8.87226 0.151459 0.0
5.88595 -1.67701 0.0
5.48841 1.3217 0.0
6.75839 0.101578 0.0
8.00586 0.081949 0.0
7.34323 -1.46934 0.0
10.9546 -1.16586 0.0
15.7544 2.46669 0.0
14.004 1.28005 0.0
15.1145 2.3168 0.0
6.11784 -0.479546 0.0
8.79538 0.0801097 0.0
13.1587 -0.260642 0.0
10.9482 -0.727299 0.0
3.65124 1.0132 0.0
9.01482 1.90229 0.0
8.75325 0.0376878 0.0
13.5254 -0.597892 0.0
12.9761 0.139423 0.0
7.32738 -0.0402173 0.0
13.7467 -2.91962 0.0
13.6411 -0.246489 0.0
7.60846 -0.893033 0.0
7.17706 -0.190755 0.0
16.8683 -1.94507 0.0
13.2866 0.629943 0.0
10.7795 -1.1379 0.0
12.9908 0.666639 0.0
10.2571 0.360472 0.0
8.0448 -0.0624118 0.0
3.61118 -0.328958 0.0
8.3956 -0.0537937 0.0
7.79657 -0.177596 0.0
9.83331 -0.0358514 0.0
16.3987 1.81315 0.0
8.27032 0.122717 0.0
7.97867 -0.150916 0.0
11.4843 -1.08132 0.0
13.47 -0.199845 0.0
7.87988 0.115087 0.0
10.5962 0.104684 0.0
5.50179 -0.424806 0.0
8.08405 0.504092 0.0
6.94014 -0.264706 0.0
9.99845 -0.132489 0.0
16.175 2.58923 0.0
14.3331 1.62821 0.0
9.0338 0.206102 0.0
7.14128 0.468444 0.0
8.22768 0.552268 0.0
6.5146 0.319374 0.0
5.58381 -0.142682 0.0
11.8213 0.115704 0.0
4.53613 -0.0837978 0.0
7.24141 0.511273 0.0
4.40343 -0.00558411 0.0
8.24003 0.0763005 0.0
9.33086 -0.0745216 0.0
9.05856 -0.768887 0.0
11.5706 -0.51856 0.0
15.563 -0.323103 0.0
6.16223 0.672753 0.0
9.87272 0.149335 0.0
10.309 -0.468514 0.0
6.25795 -0.0148898 0.0
8.43711 0.0116527 0.0
6.2696 -0.562667 0.0
14.0361 0.0718585 0.0
10.5639 -1.54932 0.0
8.0744 -0.185896 0.0
8.03848 -0.213457 0.0
7.5305 -0.00892558 0.0
15.7759 -2.52003 0.0
15.5362 -2.53043 0.0
16.6489 2.92535 0.0
5.00002 0.0292607 0.0
9.22775 0.984713 0.0
11.7484 -0.0983528 0.0
8.67269 0.032778 0.0
12.739 -0.696107 0.0
5.84993 1.51347 0.0
10.31 1.27398 0.0
8.66136 -0.92269 0.0
4.97835 -0.0468376 0.0
15.3438 -2.25612 0.0
11.7861 -0.0897341 0.0
14.4779 -2.03196 0.0
8.02162 0.343104 0.0
4.87378 0.142499 0.0
11.6971 -0.0143877 0.0
11.0977 1.11967 0.0
14.1857 0.954113 0.0
8.81481 -0.277548 0.0
13.3932 -0.458169 0.0
6.01024 0.691588 0.0
12.1379 -1.0636 0.0
4.78104 -0.198818 0.0
4.69712 -0.0525164 0.0
7.88013 -0.0851936 0.0
12.1137 -1.18002 0.0
11.8869 1.06265 0.0
11.8013 -0.124417 0.0
11.7044 0.368803 0.0
12.2145 0.0232877 0.0
7.04429 0.296719 0.0
12.2539 -0.674291 0.0
9.50312 -1.89579 0.0
16.3551 2.91149 0.0
6.86745 1.57079 0.0
13.008 -0.649115 0.0
9.31101 0.963733 0.0
7.17662 0.0773182 0.0
11.4506 -1.98963 0.0
12.3279 -1.21341 0.0
16.1533 2.60297 0.0
10.0822 0.344228 0.0
12.0706 -0.632291 0.0
9.47916 -0.019373 0.0
15.354 -2.05362 0.0
9.76618 0.398904 0.0
7.20252 -0.159814 0.0
7.05404 -0.181453 0.0
4.86821 -0.307315 0.0
8.18994 -0.40494 0.0
5.93742 0.580602 0.0
9.00341 -0.361542 0.0
9.25186 -0.557372 0.0
9.5616 -0.152366 0.0
9.6061 -0.13504 0.0
10.152 0.311892 0.0
17.4436 2.78742 0.0
14.1735 1.58892 0.0
6.9199 -0.0810632 0.0
15.5692 2.36737 0.0
15.6071 -1.38344 0.0
4.44817 0.0613386 0.0
15.1461 -2.57636 0.0
8.77252 0.279645 0.0
6.96508 0.010288 0.0
7.10912 -0.198251 0.0
8.30286 0.265936 0.0
5.32246 0.48815 0.0
7.45457 0.166452 0.0
4.82673 0.0872153 0.0
7.45932 1.12099 0.0
16.609 2.78528 0.0
15.6775 -1.42834 0.0
7.96875 -0.191707 0.0
14.7533 2.0163 0.0
6.5713 0.583752 0.0
14.6116 -1.43079 0.0
14.3586 1.77245 0.0
7.39727 -1.66639 0.0
9.35304 0.739371 0.0
11.6201 0.0114113 0.0
6.69203 -0.487668 0.0
5.18881 0.288097 0.0
6.98394 -0.184573 0.0
12.2618 0.100509 0.0
11.924 0.39245 0.0
11.9342 0.103457 0.0
6.61634 -0.372143 0.0
15.3875 -2.66658 0.0
16.5831 -3.0453 0.0
13.4156 -1.10853 0.0
5.99491 -0.599099 0.0
18.3978 -0.471321 0.0
15.3016 -2.15308 0.0
11.7145 -1.44098 0.0
15.7436 2.35848 0.0
13.4808 -1.10126 0.0
8.01158 -0.212916 0.0
4.82501 -0.0092584 0.0
7.37889 -0.233983 0.0
3.96286 0.258687 0.0
4.09501 -0.0282507 0.0
7.69515 -1.30166 0.0
16.558 2.46891 0.0
6.91222 0.6165 0.0
14.8402 2.0539 0.0
13.7187 1.21832 0.0
3.75031 -0.220368 0.0
18.502 0.616076 0.0
3.25596 0.144833 0.0
3.95876 -0.204376 0.0
13.4765 2.42416 0.0
4.80586 0.402327 0.0
14.323 -1.03002 0.0
18.2985 0.879477 0.0
2.86651 -0.134477 0.0
11.7004 0.245045 0.0
13.6972 -1.84376 0.0
13.6517 1.2511 0.0
7.72544 0.728178 0.0
14.0621 1.47852 0.0
14.1038 1.63244 0.0
3.47363 0.367904 0.0
12.7839 0.112722 0.0
15.7864 -3.16206 0.0
3.42471 -0.273409 0.0
3.64456 -0.315154 0.0
13.5846 -0.955968 0.0
3.54397 0.28671 0.0
13.8821 2.75623 0.0
17.855 -0.924497 0.0
8.95874 -0.217821 0.0
4.20193 -0.0581704 0.0
7.10005 0.36311 0.0
10.3884 0.324274 0.0
10.2262 0.141487 0.0
14.1395 -0.457653 0.0
9.78434 -0.113373 0.0
7.45265 -0.393475 0.0
15.2759 2.19085 0.0
14.9662 -1.92789 0.0
11.7936 0.0293729 0.0
15.2143 2.08168 0.0
11.724 -0.055263 0.0
17.8196 2.53295 0.0
11.5988 0.0058371 0.0
14.4445 -1.42131 0.0
13.2896 0.962636 0.0
5.83794 0.640045 0.0
11.926 0.0455232 0.0
12.3323 -0.555498 0.0
14.1929 -1.85476 0.0
5.49967 -0.64974 0.0
8.49305 -0.678971 0.0
14.0806 0.483492 0.0
5.28079 0.501872 0.0
11.6081 0.0274498 0.0
14.5458 1.58418 0.0
4.42713 0.203635 0.0
14.3328 -0.132866 0.0
13.7545 1.43641 0.0
11.6485 -0.0141859 0.0
16.2826 -2.91793 0.0
17.3842 -3.03999 0.0
5.51094 0.671133 0.0
5.02972 0.426943 0.0
11.6751 -0.764514 0.0
17.8066 -1.61457 0.0
13.3944 -2.24661 0.0
3.91679 0.0778972 0.0
15.9588 2.40351 0.0
14.2297 -1.78912 0.0
14.4918 -1.27411 0.0
11.6468 -0.0293874 0.0
2.77992 -0.122823 0.0
3.14479 0.271559 0.0
16.7047 2.16447 0.0
3.70539 0.335277 0.0
14.7805 2.03204 0.0
14.5713 1.56797 0.0
2.74747 0.00495177 0.0
3.69396 -0.260151 0.0
13.3329 1.11802 0.0
11.3626 0.12644 0.0
2.70045 0.132254 0.0
11.1668 -0.121021 0.0
11.6345 0.0623582 0.0
5.22408 -0.363461 0.0
11.665 0.0169076 0.0
12.9202 1.12557 0.0
15.0536 -1.90541 0.0
12.8568 0.819188 0.0
4.46611 -0.464393 0.0
14.611 -3.23712 0.0
4.03453 -0.129394 0.0
4.38833 0.336899 0.0
14.673 -2.55713 0.0
3.76363 0.408581 0.0
13.3786 1.4094 0.0
12.9684 0.919085 0.0
18.1368 -2.24503 0.0
17.4128 -3.07388 0.0
6.68306 -0.781504 0.0
11.4991 0.254705 0.0
14.2582 1.22229 0.0
2.99866 -0.174652 0.0
2.77443 0.21539 0.0
7.79758 -0.123397 0.0
6.71963 0.71403 0.0
11.7275 -0.291232 0.0
4.61171 -0.314001 0.0
11.0445 0.573873 0.0
12.4761 0.456691 0.0
4.66142 0.390551 0.0
7.06061 0.523875 0.0
14.3508 1.82423 0.0
4.41535 0.2835 0.0
12.3437 0.615946 0.0
12.5135 0.928385 0.0
11.4844 0.0993613 0.0
3.85155 -0.384506 0.0
2.98913 0.275873 0.0
5.02194 -0.130271 0.0
10.0803 0.0498559 0.0
6.81131 -0.145333 0.0
11.7057 0.0511007 0.0
2.69867 0.0755577 0.0
17.6038 -2.91821 0.0
4.93868 -0.0965221 0.0
2.79875 0.224292 0.0
8.6391 -1.05522 0.0
15.2159 2.19327 0.0
4.96123 -0.304141 0.0
11.4539 0.0810936 0.0
12.4769 0.753229 0.0
13.9623 0.0493031 0.0
11.6976 0.0925419 0.0
12.0893 0.788079 0.0
9.51584 -0.758029 0.0
18.5023 0.00677772 0.0
13.3131 -1.09424 0.0
11.6713 0.639669 0.0
4.38872 -0.493482 0.0
4.65762 0.513013 0.0
14.104 -0.443746 0.0
2.55654 0.203792 0.0
14.9917 -2.01049 0.0
10.1507 0.725317 0.0
11.7723 0.101462 0.0
2.65403 0.2128 0.0
3.10205 -0.20608 0.0
12.0179 0.557079 0.0
16.1306 2.40223 0.0
10.4643 -0.1386 0.0
12.5434 -0.802248 0.0
11.7945 0.0743873 0.0
11.8753 -0.728618 0.0
9.1007 -0.738652 0.0
11.2829 -0.0905984 0.0
12.3933 1.00965 0.0
2.7627 -0.0790771 0.0
11.3727 0.481406 0.0
10.6223 0.392195 0.0
7.47455 -0.11973 0.0
11.7049 0.0475469 0.0
2.88316 -0.294606 0.0
3.17901 0.29831 0.0
12.814 1.24399 0.0
11.3935 -0.104513 0.0
11.4267 -0.330134 0.0
8.32302 -0.121678 0.0
11.5823 0.0670636 0.0
11.7731 0.075922 0.0
13.8542 -1.36611 0.0
3.78428 0.185625 0.0
11.5744 0.155351 0.0
13.5983 -1.22343 0.0
11.5896 0.726946 0.0
11.203 0.262544 0.0
6.57049 -0.321568 0.0
17.8945 -0.392654 0.0
5.87017 -1.00488 0.0
16.9509 -1.58686 0.0
11.6562 -0.403351 0.0
13.8733 1.3607 0.0
11.6717 0.110464 0.0
3.90375 -0.183114 0.0
11.2081 0.348336 0.0
11.2921 0.120561 0.0
11.2419 0.600359 0.0
11.8719 0.0592576 0.0
11.997 0.850583 0.0
11.5345 0.242166 0.0
11.5077 -0.587468 0.0
14.3732 0.365611 0.0
7.21248 -0.542249 0.0
14.6494 -1.53563 0.0
6.95452 -0.108372 0.0
11.1165 -0.372923 0.0
7.10302 -1.16332 0.0
18.0793 -1.49079 0.0
11.8448 0.0614232 0.0
2.16779 -0.217831 0.0
2.2212 0.225117 0.0
11.4239 0.166429 0.0
14.8351 1.78783 0.0
11.1009 0.263226 0.0
9.80628 0.300807 0.0
3.10244 -0.0240858 0.0
4.73182 -0.0547047 0.0
4.15117 0.0966494 0.0
3.28291 0.37212 0.0
5.86037 -0.650649 0.0
14.0874 -1.63527 0.0
11.8872 0.0498915 0.0
17.9104 -2.45048 0.0
1.57576 0.244506 0.0
10.6195 -0.0440646 0.0
10.9097 -0.0508056 0.0
10.9285 -0.201286 0.0
10.6876 0.588465 0.0
1.6915 -0.275476 0.0
3.44247 -0.383659 0.0
10.5179 0.304797 0.0
10.1831 0.725097 0.0
11.0394 0.461374 0.0
9.72315 -0.231884 0.0
11.449 -0.0251835 0.0
14.3178 1.52483 0.0
11.5884 -0.0311645 0.0
11.1324 0.403755 0.0
11.8081 0.039227 0.0
2.74493 -0.227465 0.0
15.127 2.17488 0.0
11.6954 0.0864871 0.0
11.4573 0.096885 0.0
11.7045 0.036902 0.0
11.3752 -0.14381 0.0
2.65357 0.155261 0.0
11.5984 0.0882453 0.0
4.07149 -0.0835153 0.0
7.72126 0.663759 0.0
9.86778 0.0726853 0.0
11.037 0.227844 0.0
10.9143 0.341592 0.0
11.7265 0.0790136 0.0
11.7061 0.110102 0.0
11.7095 0.108911 0.0
2.46572 0.180453 0.0
4.35329 0.313706 0.0
4.13077 -0.0489827 0.0
11.5673 0.163733 0.0
11.3515 0.122376 0.0
16.8114 -2.93569 0.0
3.99987 0.0991237 0.0
11.5963 -0.00961025 0.0
11.5795 0.188736 0.0
8.34024 1.01303 0.0
11.4234 0.00637712 0.0
2.20585 0.0590552 0.0
11.2224 -0.0287314 0.0
11.36 -0.0504977 0.0
11.5436 -0.144141 0.0
9.94136 -0.173369 0.0
9.50394 -0.175473 0.0
11.0967 -0.0614953 0.0
4.56784 0.0809728 0.0
15.4482 2.53716 0.0
11.5489 0.119015 0.0
11.5445 -0.120353 0.0
11.489 0.129553 0.0
11.0293 0.217167 0.0
8.06413 0.0364765 0.0
11.367 0.14552 0.0
13.1482 -0.816968 0.0
11.7404 0.0129845 0.0
4.63484 0.146953 0.0
11.3857 0.283608 0.0
2.33637 -0.0640413 0.0
11.641 0.153303 0.0
11.5657 0.213432 0.0
11.0471 0.227759 0.0
2.03573 0.123324 0.0
18.2884 -1.0749 0.0
11.7971 0.0371528 0.0
11.6726 0.139101 0.0
11.2576 -0.0228885 0.0
11.6914 -0.0251797 0.0
11.5686 0.157277 0.0
11.5422 0.18449 0.0
11.6529 0.110347 0.0
11.8295 0.0795964 0.0
11.1255 0.259378 0.0
2.46698 0.0563697 0.0
6.95208 0.168476 0.0
11.5876 0.0299067 0.0
14.8316 2.36596 0.0
2.15455 -0.140716 0.0
4.1952 -0.0507563 0.0
16.9059 -2.40382 0.0
11.5569 0.18735 0.0
11.4295 0.181509 0.0
7.01684 -0.0719556 0.0
11.3278 -0.0757903 0.0
11.3926 -0.048498 0.0
10.3421 0.621587 0.0
4.28493 0.121374 0.0
2.40003 -0.0320108 0.0
13.1283 -0.979762 0.0
11.1001 0.358056 0.0
11.551 -0.149195 0.0
11.6075 0.178059 0.0
7.438 -0.0281054 0.0
11.5369 0.195573 0.0
10.825 0.293471 0.0
11.5963 -0.0208564 0.0
2.31977 0.046063 0.0
11.671 0.150566 0.0
11.6621 -0.00370546 0.0
2.48879 -0.0387277 0.0
11.274 0.267995 0.0
11.8225 0.0792316 0.0
11.5984 0.241876 0.0
11.7404 0.0237505 0.0
11.3794 -0.0834301 0.0
11.7188 0.0187 0.0
11.3735 -0.221773 0.0
11.6148 -0.105047 0.0
11.7504 0.0928072 0.0
11.6518 -0.0127768 0.0
11.3238 -0.105374 0.0
2.44526 -0.0245277 0.0
11.7258 0.0289017 0.0
11.3308 -0.127099 0.0
3.11505 0.0922051 0.0
11.642 0.000645527 0.0
4.67511 0.158416 0.0
11.6557 0.143795 0.0
11.3826 -0.108498 0.0
11.5968 0.238998 0.0
11.6918 -0.0959757 0.0
11.6691 -0.0147064 0.0
11.5646 0.221148 0.0
7.88857 0.226329 0.0
11.5236 0.0419099 0.0
11.233 0.143517 0.0
11.4482 0.177963 0.0
2.26371 -0.0168213 0.0
11.5188 0.194616 0.0
11.7041 0.0476718 0.0
11.2814 -0.277918 0.0
2.60565 -0.254543 0.0
10.8169 0.263624 0.0
2.57681 0.178948 0.0
11.0919 -0.318418 0.0
11.3875 0.123658 0.0
10.8643 0.279495 0.0
11.182 -0.0632941 0.0
11.3449 -0.138268 0.0
11.0101 0.309081 0.0
11.5374 -0.0445241 0.0
16.4692 -2.08377 0.0
10.9628 -0.239479 0.0
11.4484 0.0271782 0.0
11.6076 0.237672 0.0
11.5986 0.209222 0.0
11.6207 0.241634 0.0
11.3938 -0.123589 0.0
11.667 0.244644 0.0
11.1804 -0.10514 0.0
11.7324 0.201247 0.0
11.2587 -0.0374031 0.0
11.4599 -0.0299521 0.0
7.74189 0.313805 0.0
11.4618 0.169105 0.0
11.7142 0.244398 0.0
10.9834 -0.115411 0.0
11.6701 0.211763 0.0
11.4125 -0.124001 0.0
11.3692 -0.129081 0.0
2.54112 0.0680623 0.0
11.5755 -0.0378655 0.0
10.8042 0.275195 0.0
11.7678 0.227043 0.0
10.4166 0.0974205 0.0
4.75936 0.20476 0.0
11.3885 -0.0602439 0.0
11.7472 0.157697 0.0
11.3561 0.0995414 0.0
10.891 -0.0924916 0.0
11.3955 -0.0882711 0.0
11.8099 0.0719214 0.0
11.4377 -0.101376 0.0
11.3615 -0.00187871 0.0
10.1139 0.596543 0.0
11.5824 -0.0216644 0.0
11.8334 0.221938 0.0
11.6517 0.163629 0.0
7.53556 -0.052693 0.0
11.5136 -0.0499664 0.0
10.8 -0.128974 0.0
2.70755 0.127287 0.0
4.38427 0.25088 0.0
11.4558 -0.0538479 0.0
11.7309 0.248486 0.0
11.1478 -0.15076 0.0
11.4038 -0.0252025 0.0
11.8165 0.133108 0.0
11.1537 -0.0974353 0.0
11.3416 -0.0732486 0.0
11.3803 0.0398365 0.0
10.6828 -0.117098 0.0
11.045 -0.0933357 0.0
11.8786 0.167893 0.0
10.7457 -0.100685 0.0
12.0809 0.162326 0.0
11.1562 -0.168826 0.0
11.2737 -0.115082 0.0
11.0249 -0.122075 0.0
10.6474 -0.140719 0.0
11.5861 0.219949 0.0
11.4514 0.00471987 0.0
3.34959 0.149933 0.0
4.92044 0.217627 0.0
11.8652 0.0255479 0.0
11.8224 -0.0334645 0.0
11.1805 0.296126 0.0
11.1853 0.0577978 0.0
11.2344 -0.0769678 0.0
11.6515 0.23473 0.0
11.315 0.0888763 0.0
11.5927 0.216167 0.0
11.5949 -0.0315985 0.0
10.6213 -0.169669 0.0
11.0278 -0.190899 0.0
11.2824 -0.0558874 0.0
11.4154 0.0564177 0.0
11.9496 0.140557 0.0
11.5495 -0.04132 0.0
11.0176 -0.149277 0.0
17.1757 1.30652 0.0
10.4013 -0.136286 0.0
11.016 -0.175971 0.0
10.6011 -0.207847 0.0
11.62 0.139871 0.0
11.2126 0.100961 0.0
11.3441 0.0824469 0.0
11.1829 -0.160908 0.0
10.4608 -0.119192 0.0
11.0665 0.0264651 0.0
11.8335 0.249519 0.0
10.6008 -0.236019 0.0
11.0626 -0.154108 0.0
11.109 0.0616241 0.0
8.5637 0.196984 0.0
11.5158 0.193662 0.0
10.6229 -0.186576 0.0
7.69734 0.135332 0.0
10.3608 -0.161234 0.0
11.255 0.0662539 0.0
10.6417 -0.0658849 0.0
11.0815 -0.0704313 0.0
10.5672 -0.118487 0.0
2.40982 -0.0526682 0.0
4.19457 -0.0947714 0.0
8.43497 0.291579 0.0
11.1615 -0.113432 0.0
11.2204 -0.0252005 0.0
11.0422 -0.00904102 0.0
11.1817 0.0103996 0.0
10.6099 0.0518436 0.0
4.82815 0.134852 0.0
11.9973 0.197581 0.0
4.26234 -0.0992496 0.0
11.9501 0.0447097 0.0
11.051 -0.0782867 0.0
10.323 -0.197614 0.0
11.0901 0.121603 0.0
10.2809 -0.246711 0.0
11.9892 -0.0247525 0.0
10.9374 0.146965 0.0
2.47204 -0.0514212 0.0
4.21864 -0.0971849 0.0
11.2132 -0.106938 0.0
2.74135 0.0829747 0.0
11.1523 -0.0637951 0.0
10.299 -0.241307 0.0
10.3201 -0.125846 0.0
10.9943 0.106891 0.0
11.1785 -0.0213457 0.0
12.0856 0.00387228 0.0
10.7861 0.110047 0.0
10.6916 0.0276013 0.0
4.2328 -0.0855721 0.0
2.56129 -0.052681 0.0
7.39604 0.240925 0.0
10.2976 0.0154842 0.0
10.8382 0.162318 0.0
11.1458 -0.125827 0.0
10.6493 0.167856 0.0
11.4369 0.010292 0.0
7.47325 0.266216 0.0
10.4873 0.0913307 0.0
11.2138 -0.120008 0.0
10.6962 -0.0366942 0.0
4.39104 0.134407 0.0
2.35232 -0.0291127 0.0
2.00514 -0.057726 0.0
2.47953 -0.0490331 0.0
4.30779 -0.0240642 0.0
4.6127 0.130015 0.0
2.20238 -0.0106071 0.0
2.48309 0.0078449 0.0
4.18132 -0.098096 0.0
2.37652 -0.0429367 0.0
2.5437 -0.0277769 0.0
2.74563 0.0945812 0.0
4.48062 -0.0928653 0.0
2.62476 0.0721163 0.0
4.1112 -0.0488757 0.0
2.5454 0.0718363 0.0
4.38189 -0.0431937 0.0
4.29251 0.0505627 0.0
2.43395 0.125714 0.0
4.78238 0.130251 0.0
4.18142 -0.0871262 0.0
4.08433 -0.0684103 0.0
2.47993 0.170114 0.0
4.035 -0.0406142 0.0
4.28648 0.189751 0.0
2.36553 0.0323195 0.0
4.16712 -0.0580752 0.0
2.61527 0.0482265 0.0
2.38386 0.0922332 0.0
4.00578 -0.102259 0.0
2.4959 0.124054 0.0
3.08103 0.0757943 0.0
2.53635 0.18519 0.0
2.21684 0.0874309 0.0
2.33454 -0.0162563 0.0
4.23556 0.016819 0.0
2.42905 -0.0562556 0.0
2.47292 -0.0501957 0.0
2.55254 0.121287 0.0
2.59461 0.0918687 0.0
2.52249 0.0396526 0.0
2.43837 0.0474657 0.0
2.12496 -0.0536426 0.0
2.38657 -0.0245352 0.0
2.96691 0.00636464 0.0
4.63628 -0.0019673 0.0
2.60935 0.0111468 0.0
3.10346 0.07527 0.0
4.09138 0.169147 0.0
3.90685 -0.120586 0.0
2.37725 -0.0543784 0.0
2.56447 0.145002 0.0
2.44337 0.0346892 0.0
4.33944 0.0860751 0.0
2.26985 0.0961357 0.0
2.53405 0.0748012 0.0
2.35278 -0.0439409 0.0
4.35168 0.211729 0.0
2.85952 -0.0687042 0.0
2.12044 0.025512 0.0
2.39914 0.0290042 0.0
2.02407 0.0505195 0.0
2.63114 0.0751821 0.0
2.60923 -0.0121906 0.0
3.78981 -0.0513375 0.0
1.83696 -0.0171115 0.0
4.25757 0.237417 0.0
4.43644 0.121258 0.0
11.3779 -0.086414 0.0
11.1887 -0.0981669 0.0
11.4973 -0.0596114 0.0
10.4457 0.00591634 0.0
11.6358 -0.194817 0.0
11.847 -0.0911193 0.0
10.4849 -0.0132278 0.0
11.6914 -0.205613 0.0
11.8952 -0.181648 0.0
11.7452 -0.227372 0.0
11.9229 -0.10688 0.0
10.8607 -0.0204865 0.0
11.483 -0.0889706 0.0
11.8096 -0.199447 0.0
11.2545 -0.0719134 0.0
11.5834 -0.131254 0.0
11.422 -0.134443 0.0
11.587 -0.0977455 0.0
11.576 -0.188131 0.0
11.5166 -0.207102 0.0