# vtk DataFile Version 3.0
Malha 2D com triângulos e temperatura
ASCII
DATASET UNSTRUCTURED_GRID

POINTS 1194 double
0 0 0
5 0 0
5 1 0
0 1 0
0.85 0.5 0
0.842388 0.538268 0
0.820711 0.570711 0
0.788268 0.592388 0
0.75 0.6 0
0.711732 0.592388 0
0.679289 0.570711 0
0.657612 0.538268 0
0.65 0.5 0
0.657612 0.461732 0
0.679289 0.429289 0
0.711732 0.407612 0
0.75 0.4 0
0.788268 0.407612 0
0.820711 0.429289 0
0.842388 0.461732 0
0.0793651 0 0
0.15873 0 0
0.238095 0 0
0.31746 0 0
0.396825 0 0
0.47619 0 0
0.555556 0 0
0.634921 0 0
0.714286 0 0
0.793651 0 0
0.873016 0 0
0.952381 0 0
1.03175 0 0
1.11111 0 0
1.19048 0 0
1.26984 0 0
1.34921 0 0
1.42857 0 0
1.50794 0 0
1.5873 0 0
1.66667 0 0
1.74603 0 0
1.8254 0 0
1.90476 0 0
1.98413 0 0
2.06349 0 0
2.14286 0 0
2.22222 0 0
2.30159 0 0
2.38095 0 0
2.46032 0 0
2.53968 0 0
2.61905 0 0
2.69841 0 0
2.77778 0 0
2.85714 0 0
2.93651 0 0
3.01587 0 0
3.09524 0 0
3.1746 0 0
3.25397 0 0
3.33333 0 0
3.4127 0 0
3.49206 0 0
3.57143 0 0
3.65079 0 0
3.73016 0 0
3.80952 0 0
3.88889 0 0
3.96825 0 0
4.04762 0 0
4.12698 0 0
4.20635 0 0
4.28571 0 0
4.36508 0 0
4.44444 0 0
4.52381 0 0
4.60317 0 0
4.68254 0 0
4.7619 0 0
4.84127 0 0
4.92063 0 0
5 0.0769231 0
5 0.153846 0
5 0.230769 0
5 0.307692 0
5 0.384615 0
5 0.461538 0
5 0.538462 0
5 0.615385 0
5 0.692308 0
5 0.769231 0
5 0.846154 0
5 0.923077 0
4.92063 1 0
4.84127 1 0
4.7619 1 0
4.68254 1 0
4.60317 1 0
4.52381 1 0
4.44444 1 0
4.36508 1 0
4.28571 1 0
4.20635 1 0
4.12698 1 0
4.04762 1 0
3.96825 1 0
3.88889 1 0
3.80952 1 0
3.73016 1 0
3.65079 1 0
3.57143 1 0
3.49206 1 0
3.4127 1 0
3.33333 1 0
3.25397 1 0
3.1746 1 0
3.09524 1 0
3.01587 1 0
2.93651 1 0
2.85714 1 0
2.77778 1 0
2.69841 1 0
2.61905 1 0
2.53968 1 0
2.46032 1 0
2.38095 1 0
2.30159 1 0
2.22222 1 0
2.14286 1 0
2.06349 1 0
1.98413 1 0
1.90476 1 0
1.8254 1 0
1.74603 1 0
1.66667 1 0
1.5873 1 0
1.50794 1 0
1.42857 1 0
1.34921 1 0
1.26984 1 0
1.19048 1 0
1.11111 1 0
1.03175 1 0
0.952381 1 0
0.873016 1 0
0.793651 1 0
0.714286 1 0
0.634921 1 0
0.555556 1 0
0.47619 1 0
0.396825 1 0
0.31746 1 0
0.238095 1 0
0.15873 1 0
0.0793651 1 0
0 0.923077 0
0 0.846154 0
0 0.769231 0
0 0.692308 0
0 0.615385 0
0 0.538462 0
0 0.461538 0
0 0.384615 0
0 0.307692 0
0 0.230769 0
0 0.153846 0
0 0.0769231 0
0.879698 0.466718 0
1.3085 0.931947 0
1.30532 0.0638546 0
4.93832 0.504275 0
0.620452 0.46964 0
3.99858 0.0669607 0
1.63721 0.934258 0
3.3751 0.0523709 0
4.3254 0.0687322 0
2.42354 0.0642082 0
2.97619 0.0687322 0
2.02101 0.0693621 0
3.68108 0.0581336 0
2.65899 0.932655 0
4.178 0.939994 0
3.21614 0.938179 0
2.25483 0.919987 0
3.53215 0.928998 0
3.84921 0.931268 0
1.69647 0.0674297 0
1.94349 0.930209 0
4.48413 0.931268 0
2.97813 0.942022 0
2.74097 0.0673855 0
0.859645 0.573263 0
0.639718 0.573116 0
0.0651563 0.652836 0
0.0635304 0.346121 0
4.56232 0.0679683 0
0.830393 0.392645 0
0.669618 0.39275 0
1.06185 0.0668897 0
0.440193 0.0680031 0
1.06474 0.93511 0
0.446074 0.935974 0
0.724697 0.630698 0
4.72268 0.931235 0
4.93065 0.267192 0
0.589836 0.936152 0
0.92338 0.0562425 0
0.590207 0.0623339 0
0.755872 0.0732784 0
0.838039 0.936714 0
4.92573 0.732039 0
0.281717 0.93783 0
0.28208 0.0811877 0
0.065248 0.503161 0
1.46076 0.0637037 0
4.72574 0.0661877 0
4.31028 0.937908 0
3.21429 0.0687322 0
1.46639 0.932632 0
3.6897 0.928155 0
2.42063 0.931268 0
3.5364 0.0691789 0
2.25998 0.0676208 0
1.78735 0.937047 0
4.01535 0.920637 0
1.85469 0.0674188 0
3.83991 0.0626292 0
3.37477 0.929368 0
2.58225 0.0657863 0
2.81746 0.932342 0
4.16667 0.0687322 0
2.11402 0.935574 0
0.0614266 0.197046 0
0.0612841 0.803003 0
4.88273 0.0644126 0
4.87774 0.933272 0
0.859645 0.426737 0
0.903081 0.436592 0
0.923672 0.473385 0
0.948706 0.439078 0
0.969155 0.479795 0
0.996593 0.439791 0
1.0202 0.484937 0
1.04667 0.440138 0
1.07382 0.489694 0
1.1034 0.440801 0
1.13169 0.49612 0
1.16603 0.445058 0
1.1931 0.504331 0
1.22956 0.450883 0
1.25923 0.506004 0
1.29683 0.453139 0
1.32923 0.510343 0
1.36603 0.454344 0
1.03276 0.530395 0
1.40063 0.516169 0
1.43576 0.454934 0
1.47042 0.520776 0
1.51069 0.46142 0
1.54422 0.526371 0
1.58547 0.465572 0
1.61942 0.531773 0
1.66033 0.468788 0
1.69546 0.536793 0
1.73713 0.472812 0
1.77239 0.541977 0
1.81532 0.478494 0
1.85006 0.547285 0
1.89327 0.483449 0
1.92802 0.55361 0
1.97142 0.488546 0
2.00623 0.558966 0
2.04984 0.493518 0
2.08483 0.564085 0
2.12847 0.498462 0
2.16353 0.569137 0
2.20719 0.503331 0
0.961579 0.391697 0
1.22451 0.565337 0
2.24238 0.574192 0
2.28611 0.508258 0
2.32134 0.579247 0
2.36519 0.513325 0
2.40036 0.584295 0
2.44425 0.51834 0
2.47944 0.589336 0
2.52334 0.523355 0
2.55853 0.594372 0
2.60245 0.52837 0
2.63764 0.599431 0
2.68159 0.533388 0
2.64637 0.462336 0
2.72553 0.467349 0
2.76076 0.538418 0
2.8047 0.47237 0
2.83993 0.543451 0
2.88387 0.477399 0
2.91911 0.548482 0
2.96305 0.482427 0
2.9983 0.553514 0
3.04224 0.487456 0
3.07749 0.558545 0
3.12143 0.492477 0
3.15668 0.563574 0
3.20063 0.497514 0
3.23588 0.568605 0
3.27983 0.502542 0
3.31508 0.573635 0
3.35903 0.507562 0
3.39428 0.578663 0
3.43823 0.5126 0
3.47348 0.583694 0
3.51744 0.517628 0
3.55268 0.588724 0
3.59664 0.522646 0
3.63189 0.593752 0
3.67585 0.527673 0
3.71109 0.598781 0
3.75505 0.532702 0
3.7903 0.60381 0
3.83426 0.537731 0
3.79901 0.466623 0
3.87821 0.471754 0
3.91346 0.542777 0
3.95742 0.476701 0
3.99267 0.547795 0
4.03662 0.481715 0
4.07187 0.552815 0
4.11582 0.486743 0
4.15106 0.55783 0
4.195 0.491782 0
4.23023 0.562843 0
4.27415 0.49682 0
4.30937 0.567866 0
4.35325 0.501915 0
4.38842 0.572845 0
4.43227 0.506997 0
4.46737 0.577575 0
4.51106 0.511995 0
4.54622 0.582183 0
1.13571 0.390292 0
4.47606 0.441361 0
4.55475 0.446396 0
2.32985 0.442214 0
3.5614 0.451571 0
3.08619 0.421408 0
2.09339 0.427815 0
1.42887 0.583001 0
2.84864 0.406329 0
3.32378 0.43649 0
4.23911 0.425894 0
1.54723 0.39251 0
1.77883 0.406811 0
1.33959 0.387065 0
3.92239 0.405803 0
4.08079 0.415776 0
2.48812 0.452349 0
1.57935 0.603183 0
1.93602 0.417543 0
1.72453 0.617973 0
3.11273 0.629643 0
2.69029 0.396284 0
3.94662 0.623383 0
1.88466 0.613248 0
2.79598 0.609502 0
4.10826 0.620575 0
2.04005 0.62838 0
2.95434 0.619575 0
4.51981 0.375801 0
4.59833 0.380943 0
4.63314 0.451296 0
4.26693 0.63114 0
2.19619 0.645921 0
4.4246 0.642296 0
3.27112 0.639707 0
2.35729 0.649822 0
2.51462 0.660373 0
3.42952 0.649769 0
4.67669 0.38601 0
3.58793 0.659829 0
3.74634 0.669888 0
4.64195 0.315733 0
4.44109 0.370647 0
4.48493 0.305066 0
4.40614 0.29989 0
4.71136 0.456133 0
4.72014 0.320758 0
0.8692 0.382093 0
0.841252 0.348256 0
0.886481 0.338703 0
0.853127 0.301457 0
0.902583 0.287335 0
0.801683 0.321689 0
0.818113 0.263019 0
0.764765 0.277091 0
4.44702 0.235678 0
0.946267 0.520761 0
0.78107 0.221265 0
0.726309 0.234724 0
0.848273 0.20551 0
4.68545 0.250576 0
4.37074 0.227561 0
4.76365 0.255792 0
4.79822 0.326145 0
0.713664 0.287231 0
0.672358 0.247957 0
0.68673 0.192342 0
0.630368 0.2085 0
0.616569 0.265341 0
0.574186 0.225456 0
0.557393 0.28131 0
0.52004 0.242373 0
0.504416 0.299685 0
0.462273 0.252096 0
0.44798 0.316739 0
0.404567 0.276951 0
0.390546 0.335414 0
0.434669 0.37657 0
0.377935 0.394545 0
0.421979 0.43426 0
0.365682 0.452846 0
0.409646 0.492216 0
0.353389 0.51089 0
0.397738 0.551598 0
0.339864 0.570301 0
0.385899 0.612153 0
0.325913 0.631557 0
0.344507 0.29318 0
0.320568 0.413067 0
0.373553 0.673852 0
0.434438 0.653082 0
0.311416 0.69481 0
0.449777 0.528305 0
0.293513 0.534612 0
0.421431 0.715204 0
0.480917 0.696603 0
0.54504 0.34471 0
0.262743 0.649913 0
0.246209 0.712341 0
0.468564 0.755948 0
0.526091 0.735423 0
0.538207 0.68039 0
0.581228 0.716342 0
0.408756 0.777952 0
0.36234 0.239019 0
0.297047 0.251925 0
0.572109 0.771575 0
0.624906 0.752173 0
0.474824 0.414151 0
0.534351 0.182707 0
0.633682 0.70159 0
0.674547 0.736174 0
0.66826 0.788959 0
0.721117 0.76834 0
0.714515 0.825486 0
0.769074 0.802008 0
0.775287 0.746591 0
0.821903 0.778625 0
0.826767 0.726064 0
0.873257 0.756032 0
0.872997 0.697261 0
0.92331 0.732304 0
0.930014 0.67838 0
0.976061 0.710612 0
0.92456 0.784469 0
0.982178 0.654421 0
1.03016 0.688004 0
1.02037 0.747059 0
1.08 0.723819 0
1.08651 0.661896 0
1.1397 0.698204 0
1.13262 0.763657 0
1.19424 0.736545 0
1.18556 0.80161 0
1.24839 0.771772 0
1.25723 0.706382 0
1.31432 0.745787 0
4.66801 0.521361 0
4.74602 0.526202 0
4.70285 0.591278 0
4.78076 0.596023 0
4.73763 0.661207 0
4.78904 0.460969 0
2.61113 0.391267 0
2.65506 0.325217 0
2.57588 0.320198 0
2.61982 0.254148 0
2.69899 0.259163 0
2.54065 0.249131 0
2.49672 0.315179 0
2.46148 0.244124 0
2.41757 0.310166 0
2.38233 0.239117 0
2.33843 0.30514 0
2.30297 0.237979 0
2.25928 0.300748 0
2.22079 0.221377 0
2.17969 0.293884 0
2.14114 0.224266 0
2.10047 0.289841 0
2.0653 0.219144 0
2.02202 0.284919 0
1.98701 0.214164 0
1.94336 0.279863 0
3.82315 0.673327 0
3.78135 0.738156 0
3.86451 0.735958 0
3.70234 0.735494 0
4.52513 0.244409 0
4.32717 0.294467 0
4.29217 0.221862 0
0.619934 0.539507 0
0.599432 0.577132 0
0.575955 0.542712 0
0.554504 0.58245 0
4.65962 0.656481 0
4.69438 0.726169 0
4.6161 0.721747 0
4.77259 0.731352 0
4.65076 0.791486 0
4.57153 0.788793 0
4.2482 0.289182 0
4.21307 0.218308 0
4.1691 0.284563 0
4.13394 0.21352 0
0.835918 0.606341 0
0.806475 0.6384 0
4.08995 0.279537 0
0.640355 0.426737 0
0.596214 0.435837 0
0.630358 0.379178 0
0.689967 0.627735 0
1.90832 0.209948 0
1.86468 0.27519 0
1.82968 0.20518 0
1.78607 0.269797 0
0.281841 0.313314 0
0.232117 0.268621 0
0.216861 0.334396 0
4.05473 0.209347 0
4.01077 0.2745 0
3.97554 0.204394 0
3.93159 0.269388 0
0.297409 0.759367 0
0.231645 0.782943 0
0.180008 0.73598 0
1.32151 0.676369 0
1.38055 0.718092 0
1.36901 0.793947 0
1.43945 0.766002 0
0.249902 0.198865 0
0.932364 0.624392 0
1.75117 0.201034 0
1.70771 0.264658 0
1.673 0.195402 0
1.62985 0.260294 0
1.59532 0.191927 0
1.55236 0.254233 0
3.89629 0.200227 0
3.85238 0.264494 0
3.81708 0.195303 0
3.77304 0.259453 0
2.66368 0.189084 0
2.74279 0.19534 0
2.77814 0.264556 0
2.82201 0.199823 0
2.85733 0.269552 0
2.90126 0.203886 0
2.93654 0.274416 0
2.98045 0.20868 0
3.01573 0.279376 0
3.0597 0.213193 0
[...]
CELL_DATA 2220
VECTORS velocity double
38.7359 -1.8296 0.0
27.7698 0.777317 0.0
31.807 0.686775 0.0
24.6192 2.55039 0.0
39.4011 -2.03897 0.0
52.0841 -1.51123 0.0
23.4642 0.741078 0.0
26.109 -0.0539734 0.0
41.9863 2.87449 0.0
50.9213 -1.15835 0.0
24.8074 0.445823 0.0
24.8833 0.377397 0.0
19.7597 0.283052 0.0
36.8741 -2.49509 0.0
27.316 -0.33885 0.0
37.7307 3.23259 0.0
26.4198 1.56596 0.0
21.5338 1.0584 0.0
24.3896 -0.234771 0.0
26.3953 -0.214358 0.0
26.6352 0.450284 0.0
33.4787 3.97458 0.0
24.966 1.25055 0.0
25.8132 0.873674 0.0
52.2808 -0.629844 0.0
34.4193 -2.34277 0.0
24.4153 1.27061 0.0
22.179 0.848217 0.0
24.193 2.41047 0.0
26.6526 1.77828 0.0
45.4796 -1.39971 0.0
33.1165 3.33851 0.0
18.0408 -0.202237 0.0
34.2079 1.3714 0.0
40.4724 -4.01773 0.0
52.4353 -1.61025 0.0
39.3129 -4.39012 0.0
21.2552 -0.220098 0.0
28.3148 2.76962 0.0
29.7882 2.21564 0.0
14.8421 0.711937 0.0
42.3025 3.12061 0.0
20.779 2.1938 0.0
23.5449 -0.0588804 0.0
21.6248 -0.0914735 0.0
19.065 -0.0506544 0.0
24.6807 1.05948 0.0
19.4866 -0.0338374 0.0
50.3965 -1.0425 0.0
55.8979 0.406487 0.0
21.7111 0.633567 0.0
19.5178 0.147199 0.0
24.5495 0.938849 0.0
24.8098 0.165458 0.0
22.1242 1.23046 0.0
30.2134 2.00457 0.0
35.3637 3.50395 0.0
20.8593 0.830561 0.0
21.2299 0.913938 0.0
56.7009 0.250323 0.0
-0.400172 -9.85667 0.0
53.4836 -1.07016 0.0
46.9901 -2.03191 0.0
25.0965 0.946637 0.0
25.0116 0.977605 0.0
37.6941 1.3344 0.0
19.2762 -1.99926 0.0
40.6761 3.40295 0.0
21.2064 0.935573 0.0
21.456 0.887669 0.0
24.611 0.244369 0.0
35.4297 -1.80021 0.0
19.1602 0.236431 0.0
54.0418 0.963455 0.0
14.3756 0.431108 0.0
42.7236 2.98374 0.0
49.7664 2.31806 0.0
26.9555 -1.85899 0.0
43.9945 3.651 0.0
23.1731 0.153691 0.0
25.6505 -1.12534 0.0
30.6876 -1.91833 0.0
14.2448 -0.307168 0.0
19.0393 0.143195 0.0
23.9672 0.701066 0.0
23.9045 0.35105 0.0
34.8672 -1.96002 0.0
19.9507 0.302204 0.0
20.29 0.559112 0.0
41.2381 2.37001 0.0
7.54227 0.527165 0.0
25.8578 1.99306 0.0
24.6847 -0.289436 0.0
40.0266 3.32932 0.0
43.2308 3.16781 0.0
29.4315 -2.04078 0.0
32.8403 -4.16047 0.0
14.9235 -1.06754 0.0
0.358698 -7.32912 0.0
33.5523 -0.75828 0.0
7.76789 -0.808128 0.0
33.067 -2.31613 0.0
24.4089 0.897932 0.0
20.9878 1.26681 0.0
37.1999 4.26446 0.0
41.6686 3.46054 0.0
53.3806 -1.31502 0.0
56.3738 -1.14861 0.0
7.00301 -0.251526 0.0
25.0715 1.38704 0.0
30.2077 1.77545 0.0
38.9941 -1.99202 0.0
52.9255 -1.13895 0.0
10.8534 -1.01934 0.0
54.6796 -1.78709 0.0
20.7509 0.765897 0.0
36.3843 -2.57785 0.0
17.8034 -0.57438 0.0
7.65497 -0.0392644 0.0
40.6268 1.73687 0.0
26.743 -1.87426 0.0
36.0666 -1.39179 0.0
19.9316 1.39076 0.0
26.5709 3.35055 0.0
42.5319 -4.02176 0.0
31.3293 -2.73134 0.0
39.4562 3.182 0.0
22.7852 1.52355 0.0
40.9927 -2.91367 0.0
18.5396 1.65096 0.0
18.3139 3.68446 0.0
21.3831 -2.11176 0.0
12.8174 -1.39163 0.0
17.3231 19.8207 0.0
27.7143 2.65201 0.0
12.6448 17.8831 0.0
17.6015 -0.021227 0.0
23.7129 -0.209403 0.0
32.918 -2.81099 0.0
34.0357 3.4895 0.0
27.381 -0.798841 0.0
23.2393 -0.0687163 0.0
53.636 -2.12486 0.0
43.6063 -4.48676 0.0
52.8087 0.966426 0.0
35.4365 2.94802 0.0
10.8812 1.07576 0.0
15.0775 -0.546655 0.0
53.9834 2.01463 0.0
55.615 -1.58893 0.0
20.8711 -0.394505 0.0
39.6773 1.72336 0.0
36.486 -0.0390999 0.0
24.1984 3.03303 0.0
6.48944 11.5766 0.0
26.4645 0.404977 0.0
22.0052 -2.32147 0.0
27.6142 0.630867 0.0
10.4323 -1.04723 0.0
22.916 -1.36515 0.0
22.3891 -3.19629 0.0
20.7925 0.00297413 0.0
10.2731 -1.05827 0.0
33.1183 -3.27379 0.0
18.949 0.140003 0.0
32.4804 2.1647 0.0
34.1964 -1.86883 0.0
40.7859 -1.29163 0.0
26.2922 0.309716 0.0
12.9531 -2.06533 0.0
11.6411 1.39214 0.0
18.6055 0.0386854 0.0
24.3021 0.117187 0.0
17.5781 -1.59597 0.0
29.4776 -1.36477 0.0
45.3196 3.70933 0.0
47.9225 2.11807 0.0
44.9353 3.44915 0.0
12.2643 -0.696054 0.0
26.0208 0.0411614 0.0
35.3803 -0.535785 0.0
22.8105 -0.896876 0.0
7.56801 1.22894 0.0
19.8019 2.05031 0.0
26.6559 -0.035734 0.0
50.4074 -0.961725 0.0
37.8207 0.099074 0.0
20.7877 -0.883553 0.0
34.5671 -4.03501 0.0
40.6089 -0.475021 0.0
12.5115 -1.27449 0.0
20.807 -0.317132 0.0
41.0863 -2.49908 0.0
54.3789 1.7653 0.0
22.6426 -2.19294 0.0
37.7221 0.872687 0.0
35.8378 1.55089 0.0
23.3307 -1.33471 0.0
6.42185 -0.580059 0.0
24.7813 -0.589914 0.0
23.6499 -20.2717 0.0
32.2699 -2.39793 0.0
35.257 2.95816 0.0
25.1018 -0.160847 0.0
15.0456 -0.589797 0.0
32.7449 -2.29042 0.0
27.4692 0.133949 0.0
22.8635 0.0269264 0.0
34.8656 3.17638 0.0
12.4444 -0.825861 0.0
24.6726 0.904805 0.0
13.2223 -0.536323 0.0
35.0106 -0.329133 0.0
42.4579 3.49294 0.0
49.6629 2.91815 0.0
23.8 4.73201 0.0
20.8339 0.83085 0.0
24.7739 1.08721 0.0
12.2171 0.310686 0.0
14.869 -0.201951 0.0
52.4927 0.654415 0.0
11.3365 -0.513256 0.0
20.7637 0.993392 0.0
10.9246 -0.22989 0.0
24.8319 -0.128991 0.0
28.351 -2.78544 0.0
22.5449 -1.53992 0.0
23.0969 -1.03329 0.0
32.8716 0.105521 0.0
11.7773 1.16479 0.0
29.8288 2.9431 0.0
33.7192 -1.51129 0.0
16.589 -0.211884 0.0
25.0731 -0.571079 0.0
12.0448 -1.0828 0.0
43.0156 -0.0341501 0.0
27.2369 -1.77081 0.0
24.4688 -0.331202 0.0
24.2947 -0.363182 0.0
21.2756 -0.311743 0.0
43.8442 -4.24965 0.0
33.8997 -3.73383 0.0
40.6223 4.55239 0.0
12.334 -0.0236393 0.0
16.1072 14.4832 0.0
54.5039 -0.0366417 0.0
26.3387 -0.780174 0.0
32.6716 -1.33839 0.0
3.98416 14.0458 0.0
21.4225 2.23505 0.0
14.0934 -16.1695 0.0
12.3351 -0.10679 0.0
34.5334 -2.37397 0.0
50.1863 -0.317808 0.0
47.2743 -3.12661 0.0
23.9664 0.490742 0.0
12.4063 0.178463 0.0
52.9203 0.248632 0.0
22.8889 2.12652 0.0
43.088 1.50831 0.0
27.5298 -0.451639 0.0
37.2785 -0.976517 0.0
11.5313 1.16907 0.0
26.7468 -1.45523 0.0
11.9778 -0.568006 0.0
7.96695 -0.0964946 0.0
21.4161 -2.12311 0.0
34.2223 -1.44185 0.0
25.0732 1.31091 0.0
55.1733 -0.128893 0.0
48.0352 1.23367 0.0
49.1711 -0.0494524 0.0
20.1134 0.396836 0.0
50.311 -1.92823 0.0
22.2179 -2.07566 0.0
41.6815 4.57116 0.0
14.0463 1.98461 0.0
40.3518 -0.865414 0.0
21.6197 1.6858 0.0
13.5519 0.133604 0.0
24.9563 -2.07523 0.0
26.3476 -2.44413 0.0
42.9814 4.38116 0.0
33.7995 1.73256 0.0
49.9364 -1.81087 0.0
30.5916 -1.73758 0.0
36.1164 -3.80198 0.0
32.9089 1.34657 0.0
20.9665 -0.279193 0.0
20.2456 -0.297042 0.0
12.3244 -0.319709 0.0
23.1785 -1.16245 0.0
12.6604 0.977219 0.0
24.3692 -19.3786 0.0
27.0609 -1.49233 0.0
32.1548 -0.342116 0.0
32.6058 -0.310472 0.0
21.4884 0.539042 0.0
41.6586 4.52145 0.0
50.5547 3.03139 0.0
17.0197 -2.15818 0.0
46.3227 3.78534 0.0
35.957 -1.75814 0.0
7.50632 0.0874807 0.0
37.0657 -3.01679 0.0
25.2012 1.65978 0.0
19.3733 -0.375832 0.0
20.5254 -0.323105 0.0
16.2574 0.421956 0.0
11.8385 0.910085 0.0
13.9289 -0.0460967 0.0
18.7081 23.4424 0.0
14.6249 1.06213 0.0
42.7175 4.59158 0.0
33.1136 -2.4027 0.0
23.8609 -0.321946 0.0
46.6209 3.18379 0.0
12.4856 1.09361 0.0
43.6043 -2.48123 0.0
49.673 3.39231 0.0
14.9385 -2.12296 0.0
19.0973 0.999755 0.0
51.7929 0.307284 0.0
12.6757 -1.01093 0.0
11.4617 27.0163 0.0
13.0461 -0.106123 0.0
49.2191 0.0347822 0.0
49.75 1.30059 0.0
53.697 0.623382 0.0
12.7305 -0.455563 0.0
39.8826 -3.29707 0.0
43.4337 -4.87233 0.0
42.221 -1.51318 0.0
11.3925 -1.08314 0.0
40.0243 0.162002 0.0
43.8208 -3.69822 0.0
25.4177 -2.64543 0.0
45.0289 3.78076 0.0
36.1049 -2.18119 0.0
24.1377 -0.357797 0.0
8.66896 -0.201615 0.0
21.2499 -0.36678 0.0
7.19105 0.529034 0.0
7.27134 0.0638278 0.0
15.1315 -1.73677 0.0
43.5356 3.52118 0.0
10.3379 6.9711 0.0
46.3968 3.725 0.0
51.1012 2.84931 0.0
7.01787 -0.299311 0.0
40.3303 1.69679 0.0
5.8646 0.168971 0.0
7.11827 -0.47 0.0
34.857 2.99065 0.0
11.4228 0.805506 0.0
43.2392 -1.77391 0.0
39.7336 2.00842 0.0
6.63088 -0.338688 0.0
49.5288 0.961627 0.0
31.7067 -3.37693 0.0
48.6205 2.9798 0.0
14.8823 0.596762 0.0
31.3022 1.87381 0.0
47.5976 3.40155 0.0
6.34756 0.619515 0.0
56.563 0.615372 0.0
36.1174 -4.52749 0.0
6.70929 -0.415412 0.0
6.6487 -0.586893 0.0
37.5638 -1.90144 0.0
6.90765 0.462475 0.0
34.5916 3.89344 0.0
38.7946 -2.02319 0.0
27.0053 -0.910378 0.0
10.7224 -0.0935673 0.0
13.1051 0.538277 0.0
34.2857 0.636591 0.0
34.682 0.14712 0.0
43.2605 -0.900384 0.0
32.3514 -0.202271 0.0
13.9855 -0.913919 0.0
43.1993 3.71585 0.0
43.6974 -3.23145 0.0
53.3131 0.400877 0.0
42.4444 3.6904 0.0
48.8351 -0.260389 0.0
41.0728 4.17086 0.0
51.5852 0.235593 0.0
33.824 -1.96223 0.0
49.6202 2.54201 0.0
10.7983 1.05554 0.0
46.4189 -0.0162682 0.0
30.4362 -0.97945 0.0
46.2408 -2.73749 0.0
9.31592 -0.976559 0.0
21.9619 -1.46363 0.0
43.0529 0.676928 0.0
8.95494 0.799886 0.0
51.4534 0.22633 0.0
42.9516 2.69992 0.0
7.31405 0.287598 0.0
29.6427 -0.931216 0.0
46.6547 3.20359 0.0
52.4289 0.136728 0.0
36.6166 -4.30013 0.0
41.1159 -4.73535 0.0
6.03942 6.08343 0.0
11.6248 0.853241 0.0
23.64 -1.72446 0.0
39.78 -1.47523 0.0
30.318 -2.42173 0.0
6.99877 0.0133076 0.0
42.1462 4.23058 0.0
48.9978 -2.98666 0.0
43.1857 -2.32988 0.0
52.6336 0.158323 0.0
4.10998 -0.180487 0.0
6.47603 0.479523 0.0
40.3565 2.83083 0.0
6.74708 0.601593 0.0
48.1441 3.6642 0.0
41.8961 2.82469 0.0
4.24113 0.000469564 0.0
6.72888 -0.531319 0.0
47.4778 2.80042 0.0
47.4061 0.567367 0.0
4.01262 0.182221 0.0
41.2324 -0.227216 0.0
51.3973 0.253518 0.0
12.1845 -0.774033 0.0
52.2951 0.159009 0.0
43.3329 2.76298 0.0
43.1511 -3.42777 0.0
50.0955 2.18146 0.0
6.80882 -0.61613 0.0
34.6603 -4.48225 0.0
7.30389 -0.126093 0.0
6.63419 0.473617 0.0
39.8818 -3.22525 0.0
6.76074 0.665145 0.0
42.7515 3.10488 0.0
48.3409 2.42807 0.0
41.5954 -3.97752 0.0
42.3411 -4.88843 0.0
10.8601 -1.12654 0.0
22.9985 -0.0931814 0.0
42.8668 2.02482 0.0
6.69269 -0.389524 0.0
6.12217 0.427402 0.0
19.1345 -3.23188 0.0
10.4149 0.993822 0.0
51.8741 -0.927782 0.0
7.28735 -0.452259 0.0
24.0076 0.970271 0.0
52.9999 1.41463 0.0
11.4281 0.765595 0.0
12.4684 0.778466 0.0
45.6428 3.55628 0.0
7.01817 0.4057 0.0
49.9102 1.74555 0.0
43.7348 2.42514 0.0
49.0299 0.536722 0.0
6.47484 -0.613968 0.0
5.03127 0.445283 0.0
9.04864 -0.418592 0.0
34.6882 -1.4112 0.0
14.6446 -3.19187 0.0
52.2612 0.198452 0.0
4.11261 0.101823 0.0
42.6953 -4.8314 0.0
12.6549 -0.442783 0.0
5.97637 0.431687 0.0
15.4529 -1.61191 0.0
44.62 3.74163 0.0
12.0071 -0.700839 0.0
48.8903 0.437962 0.0
48.1392 2.04674 0.0
28.7617 -0.527158 0.0
51.4524 0.284739 0.0
43.8305 2.1001 0.0
26.2788 -1.70867 0.0
40.2888 0.834396 0.0
51.8192 -2.59184 0.0
43.7481 1.75398 0.0
6.6852 -0.687047 0.0
7.12819 0.708968 0.0
42.8702 -0.929082 0.0
5.94704 0.38207 0.0
35.542 -3.73239 0.0
23.9478 13.0836 0.0
51.5647 0.292197 0.0
6.02384 0.410124 0.0
6.71393 -0.418725 0.0
48.1298 1.62981 0.0
43.542 3.62772 0.0
35.7525 -0.230884 0.0
31.102 -1.55998 0.0
43.8251 0.0276376 0.0
27.4003 -1.38009 0.0
17.902 -17.7653 0.0
44.885 -0.17606 0.0
41.1302 2.53268 0.0
6.55615 -0.263122 0.0
43.6059 1.40508 0.0
34.6818 15.5129 0.0
21.3573 -0.629894 0.0
52.1434 0.443988 0.0
4.44376 -0.428323 0.0
4.90477 0.437979 0.0
40.7161 2.85603 0.0
46.2867 -0.211817 0.0
44.7879 -1.196 0.0
24.9558 -0.191685 0.0
50.0969 4.5939 0.0
52.3005 0.231658 0.0
50.3262 -2.37071 0.0
5.53023 2.52961 0.0
49.2377 0.714919 0.0
51.4827 -2.72756 0.0
41.3479 1.92129 0.0
41.7177 11.2469 0.0
11.3249 -4.46487 0.0
38.3418 0.270367 0.0
5.73511 -7.8431 0.0
36.9044 -1.37206 0.0
48.316 -1.31712 0.0
51.3249 2.96364 0.0
49.8031 5.04673 0.0
5.90579 -2.27836 0.0
43.4607 1.10457 0.0
47.0012 7.74598 0.0
41.2337 1.61049 0.0
53.4543 0.146205 0.0
41.3572 2.22335 0.0
47.7915 0.929213 0.0
26.3425 -0.959144 0.0
29.3755 1.20362 0.0
11.4112 -6.36072 0.0
42.688 -2.83254 0.0
19.8933 -0.176338 0.0
35.7639 -11.0884 0.0
7.93648 -10.7839 0.0
39.8605 -2.83451 0.0
52.4823 0.202611 0.0
2.98248 -0.286657 0.0
3.05701 0.291598 0.0
47.5207 0.712332 0.0
41.5949 3.2672 0.0
43.3836 0.880202 0.0
32.9187 17.4156 0.0
7.42734 -0.205714 0.0
12.0252 -0.329305 0.0
8.68288 1.3263 0.0
3.11365 3.12936 0.0
6.99979 -5.73207 0.0
49.9824 -3.0975 0.0
53.6866 0.110498 0.0
40.758 -4.07502 0.0
0.924928 1.59051 0.0
38.2446 -0.108871 0.0
40.8216 -0.111519 0.0
43.897 -10.312 0.0
29.5722 13.7889 0.0
1.10133 -1.53249 0.0
3.55153 -2.89935 0.0
34.7258 0.597754 0.0
20.9667 1.14825 0.0
41.1862 1.30091 0.0
26.3991 -5.85449 0.0
46.5042 -0.111742 0.0
42.2392 2.33982 0.0
48.1542 -0.108345 0.0
36.178 11.1348 0.0
51.8463 0.18659 0.0
3.93243 -0.296789 0.0
47.6888 3.67016 0.0
53.255 0.919262 0.0
48.8205 0.40834 0.0
53.2397 0.0981567 0.0
48.6117 -5.97153 0.0
3.77739 0.216174 0.0
52.9638 -0.585639 0.0
7.71342 -1.63531 0.0
20.9784 1.38371 0.0
33.1461 -0.994049 0.0
43.3117 0.741135 0.0
41.1028 1.03442 0.0
51.5843 3.15398 0.0
52.1228 2.2683 0.0
50.9871 3.40112 0.0
5.90225 0.317795 0.0
11.1627 0.563905 0.0
8.95595 -1.10222 0.0
53.1464 -0.0201238 0.0
47.3517 0.496439 0.0
43.2923 -4.88516 0.0
7.40354 1.85498 0.0
51.7863 0.707968 0.0
45.9888 7.25782 0.0
12.4011 12.0716 0.0
47.5887 -0.0777364 0.0
3.36842 1.05996 0.0
45.7798 -0.127893 0.0
50.6661 -1.69975 0.0
46.5648 -0.784198 0.0
34.449 -0.382261 0.0
31.7816 -0.370468 0.0
45.1982 -0.184528 0.0
8.15356 0.278685 0.0
42.2142 4.00556 0.0
52.6009 -0.612923 0.0
49.0954 -0.245518 0.0
48.8641 0.418167 0.0
43.3442 0.660955 0.0
23.4938 -0.0283309 0.0
47.3646 0.482442 0.0
54.7178 -1.89732 0.0
51.9177 0.117151 0.0
11.525 0.579545 0.0
41.8294 10.0335 0.0
3.65936 -0.988951 0.0
53.2715 0.923828 0.0
53.2383 0.291377 0.0
43.4528 0.628799 0.0
2.24274 1.38403 0.0
40.4424 -0.721635 0.0
52.5283 0.148492 0.0
51.3742 2.41052 0.0
47.0142 -0.127001 0.0
52.5364 -0.517676 0.0
49.0093 0.433296 0.0
52.8359 -0.0614891 0.0
53.4274 0.432229 0.0
52.3895 0.23523 0.0
43.7028 0.632184 0.0
4.9432 0.580685 0.0
17.2919 1.77798 0.0
52.1684 -1.54889 0.0
42.4633 3.30275 0.0
2.48274 -1.30488 0.0
9.90861 -0.729499 0.0
40.3297 -2.74293 0.0
45.3259 6.5028 0.0
47.5157 0.497321 0.0
18.7701 -1.40902 0.0
48.9257 -0.242787 0.0
50.1209 -0.188394 0.0
27.9112 16.5523 0.0
9.48609 0.960699 0.0
4.51394 -0.692176 0.0
53.3244 -2.31888 0.0
36.1786 9.27106 0.0
49.0535 -5.69029 0.0
53.4057 0.616078 0.0
13.7549 0.226765 0.0
47.7432 0.493491 0.0
41.0587 0.868619 0.0
51.9313 -0.0298461 0.0
4.23812 0.781652 0.0
49.233 0.410763 0.0
51.9404 0.0471187 0.0
5.63469 -0.314566 0.0
44.0565 0.613663 0.0
51.7178 0.256017 0.0
53.2678 0.683152 0.0
49.8132 0.209405 0.0
49.8072 -0.270077 0.0
52.5233 0.0871053 0.0
44.197 -0.992222 0.0
49.762 -0.167592 0.0
49.5548 0.322926 0.0
48.7498 0.156748 0.0
48.6048 -0.316464 0.0
5.14945 -0.464681 0.0
52.8986 0.882923 0.0
48.3145 -0.37539 0.0
7.0558 0.402741 0.0
52.4817 0.0163941 0.0
10.9889 0.788892 0.0
48.0812 0.41387 0.0
49.532 -0.338456 0.0
53.3215 0.43332 0.0
50.8819 -0.139887 0.0
50.005 0.114245 0.0
53.0025 0.233807 0.0
23.3252 0.25654 0.0
45.1898 0.294396 0.0
42.0156 2.75011 0.0
44.3731 0.487187 0.0
5.17747 -0.0980546 0.0
51.8287 -0.057959 0.0
48.457 0.273981 0.0
40.6087 -10.5648 0.0
3.56726 -0.321939 0.0
41.2346 0.700071 0.0
3.4895 0.239202 0.0
36.5189 -9.095 0.0
43.8878 3.24637 0.0
41.4782 0.680977 0.0
46.5191 -0.198417 0.0
48.0468 -0.408448 0.0
41.9034 0.682275 0.0
50.2315 -0.0468225 0.0
35.7716 -3.31044 0.0
38.9573 -12.5589 0.0
48.6958 -0.123809 0.0
52.9435 0.739251 0.0
53.1576 0.90432 0.0
53.1635 0.367401 0.0
49.2828 -0.385399 0.0
53.427 0.459245 0.0
42.6124 -0.202427 0.0
53.2619 0.47171 0.0
47.5382 -0.276541 0.0
45.5563 0.1566 0.0
21.9855 0.524776 0.0
50.7712 -0.391863 0.0
53.332 0.387875 0.0
39.9215 -0.794315 0.0
52.9029 0.59269 0.0
49.0578 -0.398306 0.0
47.809 -0.398389 0.0
5.39993 0.429515 0.0
48.9635 0.0660027 0.0
41.1123 0.76645 0.0
53.5378 0.399167 0.0
36.9529 -0.783596 0.0
12.2256 0.342178 0.0
45.8993 0.0527995 0.0
52.8687 0.408161 0.0
42.863 0.390299 0.0
41.8005 -0.200453 0.0
47.6045 -0.330667 0.0
52.7962 0.193334 0.0
48.866 -0.363361 0.0
43.5848 0.223327 0.0
24.9062 10.4789 0.0
52.4212 -0.0648227 0.0
53.4788 0.323255 0.0
52.1943 1.73487 0.0
21.5466 -0.110473 0.0
49.1269 -0.015566 0.0
40.0789 -0.231699 0.0
6.54697 0.203326 0.0
11.3452 0.393293 0.0
48.6941 -0.278762 0.0
51.9545 0.251453 0.0
45.3517 -0.396757 0.0
47.4114 -0.21834 0.0
53.2482 0.288156 0.0
46.0875 -0.270598 0.0
46.1848 -0.0351833 0.0
47.1733 -0.0922224 0.0
40.6482 -0.272117 0.0
44.7027 -0.248963 0.0
53.6092 0.261156 0.0
41.1662 -0.228557 0.0
52.324 0.113551 0.0
44.9981 -0.433584 0.0
46.884 -0.323526 0.0
44.2666 -0.314665 0.0
40.1469 -0.326924 0.0
52.1553 0.172496 0.0
48.5074 -0.165446 0.0
8.00183 0.231558 0.0
12.3529 0.335632 0.0
53.1652 0.0673188 0.0
52.6456 -0.0248024 0.0
42.1596 0.636213 0.0
43.8946 -0.055707 0.0
44.3836 -0.000658435 0.0
53.2532 0.605563 0.0
46.8226 0.0154818 0.0
52.0501 1.39895 0.0
50.1385 0.0333031 0.0
39.6785 -0.385861 0.0
43.1091 -0.450895 0.0
43.9951 0.0968037 0.0
48.2559 -0.0538964 0.0
53.5481 0.168302 0.0
51.9057 -0.113019 0.0
43.8729 -0.377098 0.0
38.14 1.24033 0.0
38.1081 -0.301613 0.0
43.4859 -0.429266 0.0
39.2504 -0.445302 0.0
48.8015 3.22271 0.0
46.3515 0.0705389 0.0
47.905 0.0227978 0.0
44.6991 -0.4217 0.0
38.6637 -0.25764 0.0
42.2709 -0.110439 0.0
52.7272 0.283998 0.0
38.7909 -0.476986 0.0
42.8033 -0.395579 0.0
45.8522 0.0506719 0.0
24.6245 0.198749 0.0
51.2094 -0.0309352 0.0
38.3039 -0.406321 0.0
21.4263 0.129822 0.0
37.5996 -0.355065 0.0
47.487 0.0369616 0.0
38.0623 -0.241436 0.0
42.5306 -0.268126 0.0
39.2683 -0.235384 0.0
5.73633 -0.0765175 0.0
10.6538 -0.135606 0.0
24.5794 0.306562 0.0
45.6388 -0.362633 0.0
44.1963 -0.202861 0.0
45.4244 -0.0229951 0.0
47.0829 -0.0125214 0.0
37.7316 -0.063545 0.0
11.9828 0.132701 0.0
52.8716 0.187831 0.0
10.9611 -0.162969 0.0
53.5891 0.0474707 0.0
45.1372 -0.108304 0.0
37.1168 -0.415657 0.0
43.4225 0.0691099 0.0
36.539 -0.476188 0.0
53.4938 -0.075199 0.0
42.7708 0.139348 0.0
5.94467 -0.0849512 0.0
10.8107 -0.160126 0.0
44.4418 -0.337381 0.0
6.37322 0.0854965 0.0
46.7659 -0.0988694 0.0
36.0538 -0.461014 0.0
35.6899 -0.31256 0.0
41.8656 0.0343422 0.0
46.3241 -0.244678 0.0
52.8485 -0.0644376 0.0
42.1248 0.123606 0.0
41.5708 0.0404715 0.0
10.889 -0.144862 0.0
6.17482 -0.0864621 0.0
20.4644 0.251903 0.0
35.3693 -0.118485 0.0
41.1816 0.143896 0.0
45.7041 -0.338408 0.0
40.3985 0.183019 0.0
47.7951 -0.131702 0.0
20.9588 0.286387 0.0
39.7101 0.116587 0.0
46.6202 -0.173826 0.0
41.1733 -0.0372018 0.0
10.917 0.146687 0.0
5.58538 -0.0545404 0.0
4.68335 -0.0840266 0.0
6.01851 -0.0792038 0.0
10.7858 -0.0537688 0.0
11.4729 0.190143 0.0
5.08612 -0.0254466 0.0
5.76399 -0.0053215 0.0
10.5991 -0.125256 0.0
5.61038 -0.0428992 0.0
6.06728 -0.0435549 0.0
6.4328 0.148361 0.0
11.7269 -0.149877 0.0
6.24846 0.082521 0.0
10.4433 -0.094867 0.0
5.98381 0.0798677 0.0
11.1179 -0.0715058 0.0
10.8811 -0.0757234 0.0
5.82739 0.163462 0.0
11.9139 0.220234 0.0
10.5814 -0.0975337 0.0
10.3406 -0.120753 0.0
6.03974 0.263853 0.0
9.9804 -0.0802615 0.0
10.7773 0.191653 0.0
5.54688 -0.0380212 0.0
10.4747 -0.048725 0.0
6.30807 0.0031479 0.0
5.55012 0.0896644 0.0
10.1208 -0.159581 0.0
5.95676 0.208945 0.0
7.19818 0.121251 0.0
6.10696 0.308088 0.0
5.08676 0.0772691 0.0
5.46942 -0.00554099 0.0
10.5683 0.0484622 0.0
5.7733 -0.0739665 0.0
5.925 -0.0825928 0.0
6.07022 0.244858 0.0
6.09853 0.272001 0.0
6.04845 -0.0193603 0.0
5.92773 0.0594293 0.0
5.01821 -0.0818305 0.0
5.68625 -0.0470131 0.0
7.07273 -0.0106649 0.0
11.8559 -0.0309399 0.0
6.17548 -0.113638 0.0
7.25074 0.0702636 0.0
10.0787 0.15639 0.0
9.83994 -0.179372 0.0
5.63712 -0.0638192 0.0
6.22534 0.22467 0.0
5.69643 0.0579648 0.0
11.1618 -0.0113167 0.0
5.40768 0.105877 0.0
5.99702 0.0798314 0.0
5.57501 -0.0727724 0.0
11.0496 0.491312 0.0
6.8742 -0.0986914 0.0
4.88501 -0.000528924 0.0
5.60961 0.00901039 0.0
4.7508 0.0469153 0.0
6.12851 0.0812768 0.0
6.22767 -0.0269947 0.0
9.2251 -0.0823896 0.0
4.24005 -0.0321741 0.0
10.8207 0.427936 0.0
11.2408 0.137507 0.0
45.8559 -0.205152 0.0
45.1049 -0.145087 0.0
50.2947 -0.12884 0.0
39.1823 0.0239005 0.0
52.8728 -0.337939 0.0
52.9911 -0.142661 0.0
38.7275 -0.00940541 0.0
52.9795 -0.351183 0.0
53.3104 -0.29211 0.0
53.0759 -0.368013 0.0
53.4485 -0.182766 0.0
41.0388 -0.0360069 0.0
45.3419 -0.145136 0.0
53.2193 -0.325986 0.0
43.9976 -0.189212 0.0
52.7322 -0.261082 0.0
46.7281 -0.201489 0.0
52.6287 -0.225313 0.0
49.4276 -0.28454 0.0
50.3286 -0.312333 0.0
33.7387 0.100034 0.0
52.5137 -0.379737 0.0
52.2681 -0.224238 0.0
50.5236 -0.29724 0.0
52.7257 -0.314393 0.0
37.7724 -0.152315 0.0
49.2466 -0.0972536 0.0
45.3487 -0.171744 0.0
52.1196 -0.365814 0.0
51.9287 -0.359384 0.0
52.7829 -0.301321 0.0
39.88 -0.173813 0.0