# vtk DataFile Version 3.0
Malha 2D com triângulos e temperatura
ASCII
DATASET UNSTRUCTURED_GRID

POINTS 1194 double
0 0 0
5 0 0
5 1 0
0 1 0
0.85 0.5 0
0.842388 0.538268 0
0.820711 0.570711 0
0.788268 0.592388 0
0.75 0.6 0
0.711732 0.592388 0
0.679289 0.570711 0
0.657612 0.538268 0
0.65 0.5 0
0.657612 0.461732 0
0.679289 0.429289 0
0.711732 0.407612 0
0.75 0.4 0
0.788268 0.407612 0
0.820711 0.429289 0
0.842388 0.461732 0
0.0793651 0 0
0.15873 0 0
0.238095 0 0
0.31746 0 0
0.396825 0 0
0.47619 0 0
0.555556 0 0
0.634921 0 0
0.714286 0 0
0.793651 0 0
0.873016 0 0
0.952381 0 0
1.03175 0 0
1.11111 0 0
1.19048 0 0
1.26984 0 0
1.34921 0 0
1.42857 0 0
1.50794 0 0
1.5873 0 0
1.66667 0 0
1.74603 0 0
1.8254 0 0
1.90476 0 0
1.98413 0 0
2.06349 0 0
2.14286 0 0
2.22222 0 0
2.30159 0 0
2.38095 0 0
2.46032 0 0
2.53968 0 0
2.61905 0 0
2.69841 0 0
2.77778 0 0
2.85714 0 0
2.93651 0 0
3.01587 0 0
3.09524 0 0
3.1746 0 0
3.25397 0 0
3.33333 0 0
3.4127 0 0
3.49206 0 0
3.57143 0 0
3.65079 0 0
3.73016 0 0
3.80952 0 0
3.88889 0 0
3.96825 0 0
4.04762 0 0
4.12698 0 0
4.20635 0 0
4.28571 0 0
4.36508 0 0
4.44444 0 0
4.52381 0 0
4.60317 0 0
4.68254 0 0
4.7619 0 0
4.84127 0 0
4.92063 0 0
5 0.0769231 0
5 0.153846 0
5 0.230769 0
5 0.307692 0
5 0.384615 0
5 0.461538 0
5 0.538462 0
5 0.615385 0
5 0.692308 0
5 0.769231 0
5 0.846154 0
5 0.923077 0
4.92063 1 0
4.84127 1 0
4.7619 1 0
4.68254 1 0
4.60317 1 0
4.52381 1 0
4.44444 1 0
4.36508 1 0
4.28571 1 0
4.20635 1 0
4.12698 1 0
4.04762 1 0
3.96825 1 0
3.88889 1 0
3.80952 1 0
3.73016 1 0
3.65079 1 0
3.57143 1 0
3.49206 1 0
3.4127 1 0
3.33333 1 0
3.25397 1 0
3.1746 1 0
3.09524 1 0
3.01587 1 0
2.93651 1 0
2.85714 1 0
2.77778 1 0
2.69841 1 0
2.61905 1 0
2.53968 1 0
2.46032 1 0
2.38095 1 0
2.30159 1 0
2.22222 1 0
2.14286 1 0
2.06349 1 0
1.98413 1 0
1.90476 1 0
1.8254 1 0
1.74603 1 0
1.66667 1 0
1.5873 1 0
1.50794 1 0
1.42857 1 0
1.34921 1 0
1.26984 1 0
1.19048 1 0
1.11111 1 0
1.03175 1 0
0.952381 1 0
0.873016 1 0
0.793651 1 0
0.714286 1 0
0.634921 1 0
0.555556 1 0
0.47619 1 0
0.396825 1 0
0.31746 1 0
0.238095 1 0
0.15873 1 0
0.0793651 1 0
0 0.923077 0
0 0.846154 0
0 0.769231 0
0 0.692308 0
0 0.615385 0
0 0.538462 0
0 0.461538 0
0 0.384615 0
0 0.307692 0
0 0.230769 0
0 0.153846 0
0 0.0769231 0
0.879698 0.466718 0
1.3085 0.931947 0
1.30532 0.0638546 0
4.93832 0.504275 0
0.620452 0.46964 0
3.99858 0.0669607 0
1.63721 0.934258 0
3.3751 0.0523709 0
4.3254 0.0687322 0
2.42354 0.0642082 0
2.97619 0.0687322 0
2.02101 0.0693621 0
3.68108 0.0581336 0
2.65899 0.932655 0
4.178 0.939994 0
3.21614 0.938179 0
2.25483 0.919987 0
3.53215 0.928998 0
3.84921 0.931268 0
1.69647 0.0674297 0
1.94349 0.930209 0
4.48413 0.931268 0
2.97813 0.942022 0
2.74097 0.0673855 0
0.859645 0.573263 0
0.639718 0.573116 0
0.0651563 0.652836 0
0.0635304 0.346121 0
4.56232 0.0679683 0
0.830393 0.392645 0
0.669618 0.39275 0
1.06185 0.0668897 0
0.440193 0.0680031 0
1.06474 0.93511 0
0.446074 0.935974 0
0.724697 0.630698 0
4.72268 0.931235 0
4.93065 0.267192 0
0.589836 0.936152 0
0.92338 0.0562425 0
0.590207 0.0623339 0
0.755872 0.0732784 0
0.838039 0.936714 0
4.92573 0.732039 0
0.281717 0.93783 0
0.28208 0.0811877 0
0.065248 0.503161 0
1.46076 0.0637037 0
4.72574 0.0661877 0
4.31028 0.937908 0
3.21429 0.0687322 0
1.46639 0.932632 0
3.6897 0.928155 0
2.42063 0.931268 0
3.5364 0.0691789 0
2.25998 0.0676208 0
1.78735 0.937047 0
4.01535 0.920637 0
1.85469 0.0674188 0
3.83991 0.0626292 0
3.37477 0.929368 0
2.58225 0.0657863 0
2.81746 0.932342 0
4.16667 0.0687322 0
2.11402 0.935574 0
0.0614266 0.197046 0
0.0612841 0.803003 0
4.88273 0.0644126 0
4.87774 0.933272 0
0.859645 0.426737 0
0.903081 0.436592 0
0.923672 0.473385 0
0.948706 0.439078 0
0.969155 0.479795 0
0.996593 0.439791 0
1.0202 0.484937 0
1.04667 0.440138 0
1.07382 0.489694 0
1.1034 0.440801 0
1.13169 0.49612 0
1.16603 0.445058 0
1.1931 0.504331 0
1.22956 0.450883 0
1.25923 0.506004 0
1.29683 0.453139 0
1.32923 0.510343 0
1.36603 0.454344 0
1.03276 0.530395 0
1.40063 0.516169 0
1.43576 0.454934 0
1.47042 0.520776 0
1.51069 0.46142 0
1.54422 0.526371 0
1.58547 0.465572 0
1.61942 0.531773 0
1.66033 0.468788 0
1.69546 0.536793 0
1.73713 0.472812 0
1.77239 0.541977 0
1.81532 0.478494 0
1.85006 0.547285 0
1.89327 0.483449 0
1.92802 0.55361 0
1.97142 0.488546 0
2.00623 0.558966 0
2.04984 0.493518 0
2.08483 0.564085 0
2.12847 0.498462 0
2.16353 0.569137 0
2.20719 0.503331 0
0.961579 0.391697 0
1.22451 0.565337 0
2.24238 0.574192 0
2.28611 0.508258 0
2.32134 0.579247 0
2.36519 0.513325 0
2.40036 0.584295 0
2.44425 0.51834 0
2.47944 0.589336 0
2.52334 0.523355 0
2.55853 0.594372 0
2.60245 0.52837 0
2.63764 0.599431 0
2.68159 0.533388 0
2.64637 0.462336 0
2.72553 0.467349 0
2.76076 0.538418 0
2.8047 0.47237 0
2.83993 0.543451 0
2.88387 0.477399 0
2.91911 0.548482 0
2.96305 0.482427 0
2.9983 0.553514 0
3.04224 0.487456 0
3.07749 0.558545 0
3.12143 0.492477 0
3.15668 0.563574 0
3.20063 0.497514 0
3.23588 0.568605 0
3.27983 0.502542 0
3.31508 0.573635 0
3.35903 0.507562 0
3.39428 0.578663 0
3.43823 0.5126 0
3.47348 0.583694 0
3.51744 0.517628 0
3.55268 0.588724 0
3.59664 0.522646 0
3.63189 0.593752 0
3.67585 0.527673 0
3.71109 0.598781 0
3.75505 0.532702 0
3.7903 0.60381 0
3.83426 0.537731 0
3.79901 0.466623 0
3.87821 0.471754 0
3.91346 0.542777 0
3.95742 0.476701 0
3.99267 0.547795 0
4.03662 0.481715 0
4.07187 0.552815 0
4.11582 0.486743 0
4.15106 0.55783 0
4.195 0.491782 0
4.23023 0.562843 0
4.27415 0.49682 0
4.30937 0.567866 0
4.35325 0.501915 0
4.38842 0.572845 0
4.43227 0.506997 0
4.46737 0.577575 0
4.51106 0.511995 0
4.54622 0.582183 0
1.13571 0.390292 0
4.47606 0.441361 0
4.55475 0.446396 0
2.32985 0.442214 0
3.5614 0.451571 0
3.08619 0.421408 0
2.09339 0.427815 0
1.42887 0.583001 0
2.84864 0.406329 0
3.32378 0.43649 0
4.23911 0.425894 0
1.54723 0.39251 0
1.77883 0.406811 0
1.33959 0.387065 0
3.92239 0.405803 0
4.08079 0.415776 0
2.48812 0.452349 0
1.57935 0.603183 0
1.93602 0.417543 0
1.72453 0.617973 0
3.11273 0.629643 0
2.69029 0.396284 0
3.94662 0.623383 0
1.88466 0.613248 0
2.79598 0.609502 0
4.10826 0.620575 0
2.04005 0.62838 0
2.95434 0.619575 0
4.51981 0.375801 0
4.59833 0.380943 0
4.63314 0.451296 0
4.26693 0.63114 0
2.19619 0.645921 0
4.4246 0.642296 0
3.27112 0.639707 0
2.35729 0.649822 0
2.51462 0.660373 0
3.42952 0.649769 0
4.67669 0.38601 0
3.58793 0.659829 0
3.74634 0.669888 0
4.64195 0.315733 0
4.44109 0.370647 0
4.48493 0.305066 0
4.40614 0.29989 0
4.71136 0.456133 0
4.72014 0.320758 0
0.8692 0.382093 0
0.841252 0.348256 0
0.886481 0.338703 0
0.853127 0.301457 0
0.902583 0.287335 0
0.801683 0.321689 0
0.818113 0.263019 0
0.764765 0.277091 0
4.44702 0.235678 0
0.946267 0.520761 0
0.78107 0.221265 0
0.726309 0.234724 0
0.848273 0.20551 0
4.68545 0.250576 0
4.37074 0.227561 0
4.76365 0.255792 0
4.79822 0.326145 0
0.713664 0.287231 0
0.672358 0.247957 0
0.68673 0.192342 0
0.630368 0.2085 0
0.616569 0.265341 0
0.574186 0.225456 0
0.557393 0.28131 0
0.52004 0.242373 0
0.504416 0.299685 0
0.462273 0.252096 0
0.44798 0.316739 0
0.404567 0.276951 0
0.390546 0.335414 0
0.434669 0.37657 0
0.377935 0.394545 0
0.421979 0.43426 0
0.365682 0.452846 0
0.409646 0.492216 0
0.353389 0.51089 0
0.397738 0.551598 0
0.339864 0.570301 0
0.385899 0.612153 0
0.325913 0.631557 0
0.344507 0.29318 0
0.320568 0.413067 0
0.373553 0.673852 0
0.434438 0.653082 0
0.311416 0.69481 0
0.449777 0.528305 0
0.293513 0.534612 0
0.421431 0.715204 0
0.480917 0.696603 0
0.54504 0.34471 0
0.262743 0.649913 0
0.246209 0.712341 0
0.468564 0.755948 0
0.526091 0.735423 0
0.538207 0.68039 0
0.581228 0.716342 0
0.408756 0.777952 0
0.36234 0.239019 0
0.297047 0.251925 0
0.572109 0.771575 0
0.624906 0.752173 0
0.474824 0.414151 0
0.534351 0.182707 0
0.633682 0.70159 0
0.674547 0.736174 0
0.66826 0.788959 0
0.721117 0.76834 0
0.714515 0.825486 0
0.769074 0.802008 0
0.775287 0.746591 0
0.821903 0.778625 0
0.826767 0.726064 0
0.873257 0.756032 0
0.872997 0.697261 0
0.92331 0.732304 0
0.930014 0.67838 0
0.976061 0.710612 0
0.92456 0.784469 0
0.982178 0.654421 0
1.03016 0.688004 0
1.02037 0.747059 0
1.08 0.723819 0
1.08651 0.661896 0
1.1397 0.698204 0
1.13262 0.763657 0
1.19424 0.736545 0
1.18556 0.80161 0
1.24839 0.771772 0
1.25723 0.706382 0
1.31432 0.745787 0
4.66801 0.521361 0
4.74602 0.526202 0
4.70285 0.591278 0
4.78076 0.596023 0
4.73763 0.661207 0
4.78904 0.460969 0
2.61113 0.391267 0
2.65506 0.325217 0
2.57588 0.320198 0
2.61982 0.254148 0
2.69899 0.259163 0
2.54065 0.249131 0
2.49672 0.315179 0
2.46148 0.244124 0
2.41757 0.310166 0
2.38233 0.239117 0
2.33843 0.30514 0
2.30297 0.237979 0
2.25928 0.300748 0
2.22079 0.221377 0
2.17969 0.293884 0
2.14114 0.224266 0
2.10047 0.289841 0
2.0653 0.219144 0
2.02202 0.284919 0
1.98701 0.214164 0
1.94336 0.279863 0
3.82315 0.673327 0
3.78135 0.738156 0
3.86451 0.735958 0
3.70234 0.735494 0
4.52513 0.244409 0
4.32717 0.294467 0
4.29217 0.221862 0
0.619934 0.539507 0
0.599432 0.577132 0
0.575955 0.542712 0
0.554504 0.58245 0
4.65962 0.656481 0
4.69438 0.726169 0
4.6161 0.721747 0
4.77259 0.731352 0
4.65076 0.791486 0
4.57153 0.788793 0
4.2482 0.289182 0
4.21307 0.218308 0
4.1691 0.284563 0
4.13394 0.21352 0
0.835918 0.606341 0
0.806475 0.6384 0
4.08995 0.279537 0
0.640355 0.426737 0
0.596214 0.435837 0
0.630358 0.379178 0
0.689967 0.627735 0
1.90832 0.209948 0
1.86468 0.27519 0
1.82968 0.20518 0
1.78607 0.269797 0
0.281841 0.313314 0
0.232117 0.268621 0
0.216861 0.334396 0
4.05473 0.209347 0
4.01077 0.2745 0
3.97554 0.204394 0
3.93159 0.269388 0
0.297409 0.759367 0
0.231645 0.782943 0
0.180008 0.73598 0
1.32151 0.676369 0
1.38055 0.718092 0
1.36901 0.793947 0
1.43945 0.766002 0
0.249902 0.198865 0
0.932364 0.624392 0
1.75117 0.201034 0
1.70771 0.264658 0
1.673 0.195402 0
1.62985 0.260294 0
1.59532 0.191927 0
1.55236 0.254233 0
3.89629 0.200227 0
3.85238 0.264494 0
3.81708 0.195303 0
3.77304 0.259453 0
2.66368 0.189084 0
2.74279 0.19534 0
2.77814 0.264556 0
2.82201 0.199823 0
2.85733 0.269552 0
2.90126 0.203886 0
2.93654 0.274416 0
2.98045 0.20868 0
3.01573 0.279376 0
3.0597 0.213193 0
[...]
CELL_DATA 2220
VECTORS velocity double
43.924 -1.88405 0.0
32.2093 0.79714 0.0
33.1441 0.662202 0.0
25.5952 2.57091 0.0
44.4594 -2.08869 0.0
61.0894 -1.57543 0.0
27.1206 0.759018 0.0
30.2052 -0.0784554 0.0
44.2912 2.85453 0.0
60.1294 -1.22749 0.0
25.8459 0.427805 0.0
28.7888 0.359183 0.0
22.7604 0.269271 0.0
39.1311 -2.48405 0.0
28.4397 -0.360687 0.0
40.183 3.22306 0.0
30.258 1.90985 0.0
24.6878 1.20096 0.0
28.1698 -0.25269 0.0
30.5829 -0.234259 0.0
27.7074 0.429872 0.0
35.0873 3.99693 0.0
28.6952 1.45051 0.0
29.9212 0.895097 0.0
58.1739 -0.627936 0.0
36.6501 -2.33715 0.0
25.3269 1.29289 0.0
25.6185 0.867735 0.0
25.1325 2.42967 0.0
27.702 1.78974 0.0
49.7022 -1.39549 0.0
34.5371 3.36921 0.0
20.7031 -0.214817 0.0
35.6196 1.39863 0.0
42.6439 -4.04978 0.0
61.2387 -1.67129 0.0
41.3561 -4.42296 0.0
24.5184 -0.235394 0.0
29.4676 2.79164 0.0
30.9586 2.24392 0.0
15.3549 0.724695 0.0
44.7338 3.10346 0.0
21.5807 2.21125 0.0
27.0597 -0.114183 0.0
24.873 -0.127142 0.0
21.8112 -0.103433 0.0
28.4215 1.18027 0.0
22.3922 -0.052707 0.0
59.6288 -1.11291 0.0
65.2765 0.429513 0.0
22.5878 0.619068 0.0
22.4929 0.13406 0.0
28.3893 0.965407 0.0
28.7518 0.148405 0.0
25.2907 1.46755 0.0
31.3862 2.03304 0.0
36.8943 3.5371 0.0
24.0212 0.854326 0.0
24.3748 0.998949 0.0
65.9812 0.267412 0.0
-0.494094 -11.6916 0.0
59.7871 -1.07237 0.0
51.4274 -2.02856 0.0
29.0689 0.970564 0.0
28.7774 1.01078 0.0
39.2677 1.36564 0.0
19.973 -2.01753 0.0
43.4494 3.39454 0.0
24.2609 0.964378 0.0
24.7544 0.909241 0.0
28.5149 0.228112 0.0
36.909 -1.83299 0.0
22.0784 0.224457 0.0
62.9359 1.00097 0.0
15.156 0.430592 0.0
45.1074 3.00045 0.0
54.7487 2.32713 0.0
28.8944 -1.86277 0.0
46.9774 3.64193 0.0
26.7056 0.14826 0.0
26.6235 -1.15147 0.0
31.8921 -1.95113 0.0
14.7344 -0.310162 0.0
21.8467 0.137419 0.0
27.6283 0.741751 0.0
27.5701 0.360051 0.0
38.9968 -2.00057 0.0
22.9177 0.306307 0.0
23.309 0.586022 0.0
43.3327 2.34606 0.0
7.94335 0.527765 0.0
27.2913 1.98828 0.0
28.5698 -0.307188 0.0
43.1406 3.33728 0.0
45.6199 3.18749 0.0
30.5869 -2.07261 0.0
34.4672 -4.18703 0.0
15.5662 -1.05897 0.0
0.215797 -8.65871 0.0
34.9578 -0.787009 0.0
8.11893 -0.804076 0.0
35.5801 -2.32068 0.0
28.1356 0.9695 0.0
23.511 1.2949 0.0
38.9466 4.2925 0.0
43.9459 3.48 0.0
62.9223 -1.37319 0.0
64.3799 -1.16267 0.0
7.8713 -0.328611 0.0
28.292 1.42192 0.0
31.5019 1.78752 0.0
41.0092 -1.97036 0.0
62.6056 -1.19954 0.0
11.1998 -1.02868 0.0
61.6438 -1.80203 0.0
23.8364 0.815275 0.0
39.0116 -2.57739 0.0
18.4515 -0.579607 0.0
7.94541 -0.0345077 0.0
42.5656 1.70955 0.0
29.0167 -1.88772 0.0
37.8871 -1.41082 0.0
20.9385 1.38572 0.0
27.8018 3.36745 0.0
44.8447 -4.05663 0.0
33.2676 -2.7196 0.0
41.612 3.19801 0.0
23.6193 1.53221 0.0
43.6479 -2.90174 0.0
19.7359 1.64793 0.0
20.0765 4.64372 0.0
22.4989 -2.12386 0.0
13.4744 -1.39853 0.0
17.2418 23.885 0.0
28.8106 2.67222 0.0
12.3247 21.3972 0.0
20.1555 -0.030354 0.0
24.6519 -0.192565 0.0
34.8566 -2.79689 0.0
35.5351 3.5204 0.0
28.5687 -0.781486 0.0
26.764 -0.0819593 0.0
60.109 -2.13847 0.0
45.9224 -4.52704 0.0
61.6789 1.00809 0.0
38.0431 2.95442 0.0
11.5636 1.07399 0.0
15.6834 -0.537312 0.0
61.2275 2.05019 0.0
63.4069 -1.61055 0.0
23.7407 -0.431907 0.0
41.5536 1.69677 0.0
38.3497 -0.0453505 0.0
25.2638 3.04924 0.0
6.19821 13.7375 0.0
30.5666 0.418693 0.0
22.8063 -2.34191 0.0
31.9908 0.649258 0.0
10.6704 -1.05327 0.0
24.128 -1.35815 0.0
23.4399 -3.2138 0.0
23.8272 -0.0337593 0.0
10.9057 -1.05531 0.0
34.5462 -3.31136 0.0
21.8066 0.128616 0.0
33.8218 2.19041 0.0
35.8212 -1.84727 0.0
43.1339 -1.30744 0.0
30.3645 0.322442 0.0
13.5457 -2.07503 0.0
12.2418 1.38758 0.0
21.3424 0.018719 0.0
28.106 0.102209 0.0
18.6857 -1.59082 0.0
31.6363 -1.35934 0.0
48.6897 3.70531 0.0
52.5014 2.12407 0.0
48.4732 3.44738 0.0
12.8538 -0.692506 0.0
29.95 0.00124706 0.0
37.1582 -0.546164 0.0
23.8323 -0.884678 0.0
7.89096 1.23343 0.0
20.8607 2.04256 0.0
30.8338 -0.0581341 0.0
55.7587 -0.9595 0.0
39.9883 0.0929178 0.0
23.6916 -1.20074 0.0
36.333 -4.06202 0.0
42.9572 -0.485464 0.0
12.8256 -1.28216 0.0
23.9836 -0.329391 0.0
43.3587 -2.47856 0.0
62.0015 1.80199 0.0
23.5365 -2.21741 0.0
39.8771 0.871488 0.0
41.6786 1.88879 0.0
26.5784 -1.79107 0.0
6.62256 -0.585566 0.0
28.2458 -0.634491 0.0
25.4438 -25.4046 0.0
37.0113 -3.20336 0.0
36.7494 2.9869 0.0
28.949 -0.204288 0.0
15.5685 -0.604113 0.0
35.7158 -2.3079 0.0
28.5457 0.155359 0.0
26.3462 0.000490282 0.0
39.8657 4.1133 0.0
13.3149 -0.8296 0.0
28.481 0.934694 0.0
13.7308 -0.546479 0.0
41.0042 -0.355515 0.0
45.2041 3.48145 0.0
54.4917 2.92823 0.0
26.2825 5.98111 0.0
23.9301 0.857193 0.0
28.3494 1.12179 0.0
12.6698 0.302914 0.0
15.6778 -0.205031 0.0
61.8026 0.692246 0.0
12.7976 -0.675733 0.0
23.6145 1.02268 0.0
12.3595 -0.322504 0.0
28.6711 -0.168361 0.0
32.1891 -3.67925 0.0
24.2503 -1.54699 0.0
24.0233 -1.05231 0.0
34.2106 0.131951 0.0
12.1941 1.17449 0.0
33.8527 3.78228 0.0
38.168 -1.56177 0.0
18.8914 -0.302446 0.0
28.7777 -0.809208 0.0
12.4762 -1.09486 0.0
45.516 -0.0427897 0.0
29.1232 -1.76442 0.0
28.3101 -0.347192 0.0
28.1038 -0.37679 0.0
24.351 -0.446356 0.0
46.1831 -4.2905 0.0
35.3731 -3.76609 0.0
42.571 4.58439 0.0
14.0212 -0.0314896 0.0
16.334 17.4436 0.0
64.9832 -0.0289512 0.0
30.2447 -1.09676 0.0
34.2249 -1.35539 0.0
3.55181 16.5976 0.0
22.2534 2.25392 0.0
14.013 -19.8509 0.0
14.0291 -0.114465 0.0
36.3001 -2.35448 0.0
59.8973 -0.366104 0.0
51.4963 -3.12343 0.0
27.6399 0.512512 0.0
13.2636 0.178951 0.0
62.9466 0.272513 0.0
23.7762 2.14746 0.0
45.5588 1.513 0.0
31.9262 -0.46938 0.0
39.2096 -0.992198 0.0
11.9324 1.17805 0.0
28.0921 -1.44377 0.0
13.237 -0.582965 0.0
8.20219 -0.0979642 0.0
24.1086 -2.79649 0.0
36.8587 -1.43601 0.0
26.1998 1.29755 0.0
65.6619 -0.126368 0.0
55.9772 1.28611 0.0
58.3096 -0.0844833 0.0
23.1096 0.40989 0.0
58.0926 -1.98925 0.0
23.5492 -2.06768 0.0
43.7613 4.60221 0.0
14.6326 1.99367 0.0
43.801 -0.860656 0.0
22.9968 1.68823 0.0
14.0125 0.133402 0.0
26.2357 -2.06254 0.0
27.4133 -2.47325 0.0
45.1743 4.4134 0.0
39.1093 2.14061 0.0
57.9275 -1.87607 0.0
35.1388 -2.34869 0.0
37.7338 -3.84283 0.0
38.1907 1.60307 0.0
24.1732 -0.293227 0.0
23.3193 -0.304246 0.0
13.1713 -0.318244 0.0
25.823 -1.19295 0.0
13.4033 0.978456 0.0
25.7856 -24.2645 0.0
30.0872 -1.52433 0.0
37.5323 -0.364541 0.0
38.0782 -0.335448 0.0
22.3219 0.541089 0.0
43.5946 4.55711 0.0
55.6911 3.04607 0.0
18.9202 -2.81938 0.0
49.9475 3.78536 0.0
37.7803 -1.73884 0.0
7.72498 0.0873706 0.0
39.275 -3.00055 0.0
28.7136 2.07063 0.0
22.1268 -0.537006 0.0
23.6525 -0.333006 0.0
16.8311 0.423317 0.0
12.6588 0.914897 0.0
14.4146 -0.0574975 0.0
18.64 29.7709 0.0
15.2533 1.05356 0.0
44.8412 4.62548 0.0
34.494 -2.43346 0.0
27.5817 -0.329201 0.0
50.622 3.18638 0.0
12.9276 1.10428 0.0
46.0761 -2.50865 0.0
54.552 3.40791 0.0
15.5534 -2.1352 0.0
19.9543 0.991437 0.0
61.6514 0.334323 0.0
13.1251 -1.0237 0.0
10.6444 32.9779 0.0
13.5188 -0.0974834 0.0
58.3409 -0.00365041 0.0
57.8577 1.35135 0.0
63.0885 0.657448 0.0
13.2512 -0.44916 0.0
42.4665 -3.28223 0.0
45.6567 -4.9153 0.0
45.8768 -1.50785 0.0
11.7873 -1.09397 0.0
41.7434 0.194243 0.0
46.2129 -3.7354 0.0
26.4503 -2.67294 0.0
48.3578 3.7792 0.0
37.8866 -2.20759 0.0
27.9161 -0.368434 0.0
8.95371 -0.209023 0.0
24.4758 -0.379852 0.0
7.43125 0.534974 0.0
7.51132 0.068871 0.0
15.7326 -1.74918 0.0
46.3039 3.50949 0.0
10.5424 8.40634 0.0
50.3902 3.73506 0.0
57.008 2.88032 0.0
7.31095 -0.296588 0.0
42.0108 1.7326 0.0
6.07838 0.16588 0.0
7.35442 -0.476764 0.0
37.1798 2.98333 0.0
12.4624 0.816238 0.0
45.7281 -1.79517 0.0
41.3977 2.04305 0.0
7.25684 -0.345695 0.0
58.066 1.00973 0.0
33.0859 -3.41199 0.0
54.0416 3.01248 0.0
15.4896 0.587096 0.0
32.8145 1.85789 0.0
52.3076 3.42356 0.0
6.55775 0.624346 0.0
65.4281 0.637812 0.0
37.7787 -4.56147 0.0
7.0456 -0.414409 0.0
6.86999 -0.593069 0.0
39.4865 -1.92562 0.0
7.25416 0.462091 0.0
36.3266 3.91392 0.0
40.4276 -2.06095 0.0
30.6656 -0.956804 0.0
12.223 -0.0981142 0.0
13.5284 0.540361 0.0
40.0059 0.657647 0.0
40.467 0.123785 0.0
45.7636 -0.915791 0.0
37.6891 -0.220274 0.0
14.4736 -0.927804 0.0
45.5171 3.74144 0.0
46.1399 -3.26377 0.0
63.0729 0.430208 0.0
44.6686 3.71796 0.0
58.1592 -0.307655 0.0
42.9117 4.2068 0.0
61.6081 0.256754 0.0
35.644 -1.94756 0.0
55.8036 2.58332 0.0
11.1438 1.06295 0.0
54.8526 -0.0503711 0.0
31.8361 -0.991659 0.0
50.3683 -2.73307 0.0
9.57056 -0.983335 0.0
23.8958 -1.47819 0.0
45.5318 0.674265 0.0
9.19748 0.804913 0.0
61.5746 0.242602 0.0
45.3308 2.7164 0.0
7.51532 0.288587 0.0
30.7897 -0.960616 0.0
51.4714 3.23121 0.0
62.7729 0.149622 0.0
38.2613 -4.33541 0.0
43.0424 -4.77685 0.0
5.97311 7.26302 0.0
12.5592 0.861328 0.0
24.5406 -1.7497 0.0
41.6457 -1.44777 0.0
31.9404 -2.40651 0.0
7.23391 0.00831375 0.0
44.2573 4.26396 0.0
53.7117 -2.98788 0.0
45.6075 -2.35743 0.0
62.8573 0.176252 0.0
4.20208 -0.181809 0.0
6.86732 0.481045 0.0
42.5493 2.81255 0.0
6.97307 0.606995 0.0
52.4825 3.67476 0.0
44.1402 2.84442 0.0
4.34789 9.35672e-05 0.0
6.95567 -0.537756 0.0
52.9823 2.83819 0.0
56.1877 0.605579 0.0
4.10196 0.182881 0.0
48.5248 -0.257382 0.0
61.5687 0.266145 0.0
13.1745 -0.781689 0.0
62.7025 0.168138 0.0
48.1422 2.79978 0.0
45.4853 -3.46447 0.0
57.0201 2.2289 0.0
6.96292 -0.619295 0.0
36.3304 -4.51247 0.0
7.56768 -0.121949 0.0
6.77799 0.475641 0.0
42.6887 -3.21345 0.0
6.97259 0.669834 0.0
46.9543 3.13114 0.0
54.5991 2.47394 0.0
43.439 -4.02257 0.0
44.3679 -4.93212 0.0
11.1275 -1.13346 0.0
23.8694 -0.11297 0.0
45.2811 2.03469 0.0
7.24581 -0.394552 0.0
6.62087 0.432222 0.0
21.1495 -4.17958 0.0
10.6425 0.998149 0.0
61.6565 -0.991968 0.0
7.47016 -0.455314 0.0
24.959 0.975244 0.0
61.2631 1.45837 0.0
12.5928 0.778672 0.0
12.8348 0.782094 0.0
49.772 3.57219 0.0
7.19258 0.407424 0.0
57.4597 1.79634 0.0
49.1525 2.47054 0.0
58.1302 0.574417 0.0
6.65355 -0.618807 0.0
5.1691 0.448221 0.0
9.34702 -0.427009 0.0
40.1618 -1.94954 0.0
15.9091 -4.08365 0.0
62.6958 0.205006 0.0
4.21211 0.102034 0.0
44.7111 -4.87755 0.0
14.1192 -0.461738 0.0
6.39962 0.434824 0.0
15.9032 -1.62337 0.0
48.099 3.74535 0.0
13.1269 -0.712236 0.0
58.1602 0.469683 0.0
54.9821 2.09785 0.0
29.878 -0.553821 0.0
61.6466 0.294861 0.0
49.8145 2.1515 0.0
28.8435 -1.73083 0.0
41.9832 0.868752 0.0
58.227 -2.62097 0.0
50.2445 1.80844 0.0
6.83058 -0.690893 0.0
7.28157 0.712077 0.0
45.3153 -0.945334 0.0
6.55412 0.389059 0.0
37.1394 -3.77218 0.0
25.247 16.038 0.0
61.7627 0.300905 0.0
6.57824 0.416204 0.0
7.19414 -0.42167 0.0
55.5707 1.68312 0.0
46.4581 3.6203 0.0
41.7795 -0.254255 0.0
32.5225 -1.57882 0.0
51.5602 -0.00726493 0.0
28.5602 -1.39597 0.0
18.2103 -21.9717 0.0
53.1177 -0.193568 0.0
45.8533 2.57265 0.0
7.24508 -0.271782 0.0
50.535 1.4597 0.0
37.3295 19.4134 0.0
24.202 -0.667032 0.0
61.7768 0.476684 0.0
4.54478 -0.431029 0.0
5.01465 0.440263 0.0
44.8785 2.88649 0.0
54.8949 -0.234964 0.0
52.3611 -1.27093 0.0
28.8294 -0.205785 0.0
57.2634 6.19021 0.0
62.7343 0.236898 0.0
55.5228 -2.37318 0.0
5.70908 3.08302 0.0
58.0884 0.758473 0.0
57.4899 -2.75021 0.0
47.1216 1.97344 0.0
46.2774 14.3402 0.0
11.8769 -5.57149 0.0
39.974 0.300778 0.0
5.50926 -9.44046 0.0
38.5957 -1.34668 0.0
56.689 -1.3907 0.0
57.024 2.98904 0.0
57.1393 6.68489 0.0
6.13871 -2.83812 0.0
50.7283 1.15679 0.0
52.9544 10.1858 0.0
47.4506 1.66454 0.0
64.1829 0.14342 0.0
46.6291 2.27075 0.0
56.0961 0.978318 0.0
27.4637 -0.969469 0.0
30.4924 1.23009 0.0
11.7494 -7.84638 0.0
45.0223 -2.86476 0.0
22.8929 -0.18524 0.0
39.7013 -14.027 0.0
7.69888 -13.0425 0.0
41.557 -2.87518 0.0
62.9092 0.207168 0.0
3.03301 -0.288001 0.0
3.10776 0.292633 0.0
56.0876 0.756451 0.0
43.7671 3.29191 0.0
50.9278 0.928077 0.0
35.1943 21.8098 0.0
8.26955 -0.216949 0.0
13.5023 -0.349117 0.0
9.48584 1.67347 0.0
3.03862 3.72868 0.0
6.96408 -6.96938 0.0
55.11 -3.10748 0.0
64.4945 0.103347 0.0
42.5691 -4.11753 0.0
0.854604 1.88775 0.0
44.8438 -0.125001 0.0
48.0294 -0.125611 0.0
49.6918 -12.8265 0.0
31.6168 17.0656 0.0
1.02602 -1.84122 0.0
3.48594 -3.51183 0.0
40.5167 0.617826 0.0
21.7354 1.15411 0.0
47.7802 1.35416 0.0
29.2173 -7.4997 0.0
55.2057 -0.132363 0.0
44.6374 2.35021 0.0
57.2971 -0.130198 0.0
39.8342 14.0029 0.0
62.0728 0.193731 0.0
4.01167 -0.298268 0.0
51.7633 3.67542 0.0
62.6382 1.26417 0.0
58.1968 0.434677 0.0
62.3985 0.240895 0.0
55.6799 -7.31997 0.0
3.85063 0.217055 0.0
62.6029 -0.778303 0.0
8.30642 -2.0892 0.0
23.275 1.40878 0.0
38.3681 -1.40532 0.0
51.0545 0.783678 0.0
47.9861 1.08462 0.0
59.8007 4.24862 0.0
61.0808 3.03073 0.0
59.2975 4.52171 0.0
6.60355 0.325531 0.0
12.5897 0.57903 0.0
9.86737 -1.43699 0.0
63.1865 -0.104789 0.0
56.2771 0.528815 0.0
45.4508 -4.93086 0.0
7.91393 2.31186 0.0
59.6468 1.251 0.0
52.2445 9.40152 0.0
12.431 14.476 0.0
56.6186 -0.0963235 0.0
3.52291 1.30797 0.0
54.3459 -0.145997 0.0
58.1291 -1.71749 0.0
54.9379 -0.857568 0.0
40.3191 -0.401281 0.0
37.0814 -0.389424 0.0
53.6471 -0.20185 0.0
8.41778 0.285082 0.0
44.4575 4.03063 0.0
62.3429 -0.859697 0.0
58.4977 -0.272094 0.0
58.3113 0.439984 0.0
51.233 0.697944 0.0
27.0586 -0.0430255 0.0
56.3803 0.509669 0.0
61.9775 -1.91925 0.0
62.1728 0.123092 0.0
13.022 0.700997 0.0
46.6818 12.7951 0.0
3.8507 -1.24781 0.0
63.1049 1.19053 0.0
63.534 0.26323 0.0
51.4443 0.660623 0.0
2.24616 1.66832 0.0
42.2538 -0.69121 0.0
62.9651 0.152647 0.0
60.3328 3.18198 0.0
55.9364 -0.144154 0.0
60.9378 -0.419143 0.0
58.4963 0.451713 0.0
62.9233 -0.18801 0.0
63.134 0.579369 0.0
62.8167 0.239956 0.0
51.7731 0.659582 0.0
5.40668 0.733345 0.0
19.3171 2.25466 0.0
61.3862 -2.00288 0.0
45.6585 3.29867 0.0
2.49583 -1.60084 0.0
11.0799 -0.963408 0.0
42.5193 -2.72091 0.0
51.7139 8.42661 0.0
56.5961 0.520314 0.0
21.1806 -1.87076 0.0
58.4315 -0.262253 0.0
59.9659 -0.205842 0.0
29.3823 20.3986 0.0
10.5042 1.20907 0.0
4.89001 -0.894369 0.0
60.2953 -2.34815 0.0
40.1491 11.714 0.0
56.421 -7.09571 0.0
63.4766 0.749176 0.0
14.2251 0.237419 0.0
56.86 0.513291 0.0
48.1722 0.914243 0.0
62.2448 -0.0295412 0.0
4.55552 0.98175 0.0
58.7454 0.426757 0.0
62.2259 0.0508948 0.0
6.29587 -0.41485 0.0
52.1822 0.637478 0.0
61.9242 0.263895 0.0
63.6915 0.768812 0.0
59.4285 0.221745 0.0
59.5725 -0.291311 0.0
62.9759 0.0900594 0.0
51.774 -1.0671 0.0
59.316 -0.174372 0.0
59.115 0.336965 0.0
58.0602 0.169825 0.0
58.0236 -0.33989 0.0
5.68489 -0.611287 0.0
61.6266 1.31998 0.0
57.6456 -0.403459 0.0
7.89399 0.493567 0.0
62.9511 0.0169087 0.0
12.3052 0.976301 0.0
57.2419 0.431195 0.0
59.2183 -0.364431 0.0
63.7713 0.431228 0.0
60.7452 -0.142262 0.0
59.684 0.124533 0.0
63.3073 0.173417 0.0
26.8834 0.257017 0.0
53.5165 0.312585 0.0
48.7892 3.56871 0.0
52.515 0.508214 0.0
5.82018 -0.133309 0.0
61.7891 -0.212217 0.0
57.687 0.289182 0.0
45.6341 -13.3632 0.0
3.62895 -0.323305 0.0
48.6493 0.735213 0.0
3.54642 0.240098 0.0
40.8618 -11.5792 0.0
50.9466 4.23548 0.0
48.994 0.711395 0.0
55.3336 -0.215957 0.0
57.2889 -0.441251 0.0
49.5062 0.708712 0.0
60.0266 -0.0434246 0.0
37.3028 -3.34519 0.0
43.4987 -15.7972 0.0
58.062 -0.167304 0.0
63.3084 0.843899 0.0
63.2743 1.10635 0.0
63.5995 0.340657 0.0
58.8888 -0.41649 0.0
63.9632 0.465803 0.0
50.2841 -0.223574 0.0
63.77 0.511763 0.0
56.6579 -0.316879 0.0
53.9828 0.172295 0.0
25.318 0.538626 0.0
60.3603 -0.644871 0.0
63.8423 0.375682 0.0
46.5465 -0.865187 0.0
63.2999 0.662467 0.0
58.583 -0.434289 0.0
56.9637 -0.435454 0.0
5.97894 0.537615 0.0
58.3508 0.0764216 0.0
48.4002 0.806839 0.0
64.1157 0.405048 0.0
43.0382 -1.13924 0.0
13.9655 0.35104 0.0
54.4345 0.0655014 0.0
63.2653 0.450583 0.0
50.5947 0.410669 0.0
49.3366 -0.218679 0.0
56.679 -0.371072 0.0
63.1735 0.214457 0.0
58.3151 -0.403477 0.0
51.4904 0.240968 0.0
26.6649 12.928 0.0
62.9052 -0.0682096 0.0
64.0248 0.31494 0.0
61.639 2.2676 0.0
24.791 -0.123856 0.0
58.5853 -0.00875564 0.0
47.1672 -0.250837 0.0
7.439 0.208294 0.0
12.9667 0.402855 0.0
58.074 -0.321842 0.0
62.0273 0.198557 0.0
53.857 -0.423266 0.0
56.4151 -0.260839 0.0
63.7513 0.309912 0.0
54.797 -0.290109 0.0
54.8184 -0.0263145 0.0
56.107 -0.135375 0.0
47.9496 -0.289442 0.0
53.0381 -0.267194 0.0
64.1984 0.261809 0.0
48.5801 -0.245543 0.0
62.4476 0.0844022 0.0
53.3936 -0.464039 0.0
55.7986 -0.339518 0.0
52.4924 -0.335175 0.0
47.329 -0.345853 0.0
62.2839 0.0852334 0.0
57.823 -0.210051 0.0
9.07955 0.236762 0.0
14.0767 0.34323 0.0
63.6495 0.0738925 0.0
62.9944 -0.0202194 0.0
49.7722 0.659416 0.0
51.9307 -0.0946362 0.0
52.5292 0.0108338 0.0
63.74 0.667138 0.0
55.6737 -0.0268592 0.0
61.7898 1.76859 0.0
59.8784 0.0407239 0.0
46.7424 -0.407248 0.0
50.9993 -0.481664 0.0
52.0215 0.111695 0.0
57.5033 -0.0984831 0.0
64.1014 0.158184 0.0
62.2432 -0.117599 0.0
51.9919 -0.400812 0.0
39.8543 1.21229 0.0
44.8052 -0.318713 0.0
51.4928 -0.456582 0.0
46.2012 -0.469536 0.0
56.9797 4.23327 0.0
55.1022 0.0302729 0.0
57.0722 -0.0203215 0.0
52.9923 -0.455727 0.0
45.484 -0.273985 0.0
49.887 -0.147142 0.0
63.024 0.251585 0.0
45.6118 -0.503948 0.0
50.5885 -0.429266 0.0
54.494 0.0133038 0.0
28.2997 0.176067 0.0
61.0308 -0.178858 0.0
44.9804 -0.435456 0.0
24.5473 0.106792 0.0
44.1766 -0.373942 0.0
56.5627 -0.00356286 0.0
44.661 -0.272231 0.0
50.2235 -0.303855 0.0
46.2106 -0.25234 0.0
6.50245 -0.0772412 0.0
12.1448 -0.136385 0.0
28.2964 0.288741 0.0
54.2329 -0.387991 0.0
52.3136 -0.24136 0.0
53.9591 -0.0572228 0.0
56.0624 -0.0498269 0.0
44.2428 -0.0950164 0.0
13.5952 0.12022 0.0
63.1833 0.162418 0.0
12.5102 -0.168968 0.0
64.1733 0.0410972 0.0
53.57 -0.139791 0.0
43.5749 -0.436893 0.0
51.3562 0.0310766 0.0
42.8505 -0.499874 0.0
64.0459 -0.0897217 0.0
50.5756 0.103348 0.0
6.74547 -0.0877663 0.0
12.3356 -0.164963 0.0
52.6418 -0.374185 0.0
7.19162 0.0801638 0.0
55.6508 -0.132941 0.0
42.2274 -0.486887 0.0
41.7562 -0.340106 0.0
49.3888 -0.00207611 0.0
55.1038 -0.284887 0.0
63.1554 -0.0887052 0.0
49.8008 0.0902734 0.0
49.1183 0.00992026 0.0
12.4274 -0.151603 0.0
7.00769 -0.0898989 0.0
23.4479 0.235714 0.0
41.3498 -0.147042 0.0
48.5696 0.109012 0.0
54.3114 -0.36108 0.0
47.6363 0.150514 0.0
56.8822 -0.172654 0.0
24.0602 0.272688 0.0
46.8095 0.0867379 0.0
55.419 -0.205351 0.0
48.5951 -0.0654714 0.0
12.4066 0.140015 0.0
6.32917 -0.0567778 0.0
5.29844 -0.0865263 0.0
6.83291 -0.0829069 0.0
12.2624 -0.0600673 0.0
13.0506 0.195193 0.0
5.74244 -0.028361 0.0
6.50889 -0.00829812 0.0
12.0781 -0.124703 0.0
6.35123 -0.0416839 0.0
6.87442 -0.0466977 0.0
7.28348 0.151909 0.0
13.3969 -0.157731 0.0
7.07988 0.0792002 0.0
11.904 -0.09909 0.0
6.76923 0.076555 0.0
12.6651 -0.0780454 0.0
12.3547 -0.0937209 0.0
6.59638 0.168793 0.0
13.5605 0.226484 0.0
12.0532 -0.0957526 0.0
11.7842 -0.125261 0.0
6.84579 0.270606 0.0
11.3444 -0.0867259 0.0
12.273 0.184456 0.0
6.24835 -0.0469356 0.0
11.9229 -0.0458922 0.0
7.14852 -0.00589973 0.0
6.27643 0.086139 0.0
11.5307 -0.164477 0.0
6.73527 0.226107 0.0
8.14353 0.12463 0.0
6.86992 0.315938 0.0
5.7443 0.0740765 0.0
6.18686 -0.00385714 0.0
12.0215 0.0522594 0.0
6.54229 -0.0739856 0.0
6.72116 -0.0847795 0.0
6.85443 0.274135 0.0
6.86687 0.320456 0.0
6.84109 -0.0287604 0.0
6.73122 0.0560063 0.0
5.68311 -0.0842742 0.0
6.44485 -0.0491922 0.0
8.0122 -0.016171 0.0
13.5142 -0.0395873 0.0
6.90961 -0.123581 0.0
8.18033 0.0613927 0.0
11.4542 0.149681 0.0
11.2061 -0.184669 0.0
6.3853 -0.0631839 0.0
7.07376 0.230125 0.0
6.44156 0.0601807 0.0
12.7121 -0.0287275 0.0
6.12018 0.106259 0.0
6.79316 0.0760715 0.0
6.3161 -0.075217 0.0
12.5378 0.561812 0.0
7.79454 -0.103051 0.0
5.50115 -0.014891 0.0
6.34516 0.00293765 0.0
5.36953 0.0454056 0.0
6.92182 0.0773454 0.0
7.05622 -0.0309495 0.0
10.4676 -0.0881126 0.0
4.78925 -0.0347498 0.0
12.2966 0.469596 0.0
12.8036 0.131203 0.0
54.3526 -0.234724 0.0
53.4564 -0.175022 0.0
60.1379 -0.130735 0.0
46.1427 -0.0035096 0.0
63.4448 -0.369697 0.0
63.4523 -0.148525 0.0
45.5331 -0.0351493 0.0
63.5505 -0.37888 0.0
63.8701 -0.312125 0.0
63.6458 -0.393885 0.0
64.0274 -0.196521 0.0
48.347 -0.0632587 0.0
53.6344 -0.175597 0.0
63.7962 -0.34691 0.0
52.0025 -0.219459 0.0
63.299 -0.298433 0.0
55.4586 -0.231992 0.0
63.1649 -0.264863 0.0
58.915 -0.315541 0.0
60.1291 -0.344232 0.0
39.4587 0.0772698 0.0
62.913 -0.408377 0.0
62.4183 -0.251166 0.0
60.2617 -0.327432 0.0
63.0831 -0.339606 0.0
44.2522 -0.174041 0.0
58.7673 -0.0952298 0.0
53.7193 -0.205854 0.0
62.3425 -0.393938 0.0
62.198 -0.390741 0.0
63.3401 -0.335289 0.0
46.8517 -0.19979 0.0
41.0401 0.232852 0.0