# vtk DataFile Version 3.0
Malha 2D com triângulos e temperatura
ASCII
DATASET UNSTRUCTURED_GRID

POINTS 1194 double
0 0 0
5 0 0
5 1 0
0 1 0
0.85 0.5 0
0.842388 0.538268 0
0.820711 0.570711 0
0.788268 0.592388 0
0.75 0.6 0
0.711732 0.592388 0
0.679289 0.570711 0
0.657612 0.538268 0
0.65 0.5 0
0.657612 0.461732 0
0.679289 0.429289 0
0.711732 0.407612 0
0.75 0.4 0
0.788268 0.407612 0
0.820711 0.429289 0
0.842388 0.461732 0
0.0793651 0 0
0.15873 0 0
0.238095 0 0
0.31746 0 0
0.396825 0 0
0.47619 0 0
0.555556 0 0
0.634921 0 0
0.714286 0 0
0.793651 0 0
0.873016 0 0
0.952381 0 0
1.03175 0 0
1.11111 0 0
1.19048 0 0
1.26984 0 0
1.34921 0 0
1.42857 0 0
1.50794 0 0
1.5873 0 0
1.66667 0 0
1.74603 0 0
1.8254 0 0
1.90476 0 0
1.98413 0 0
2.06349 0 0
2.14286 0 0
2.22222 0 0
2.30159 0 0
2.38095 0 0
2.46032 0 0
2.53968 0 0
2.61905 0 0
2.69841 0 0
2.77778 0 0
2.85714 0 0
2.93651 0 0
3.01587 0 0
3.09524 0 0
3.1746 0 0
3.25397 0 0
3.33333 0 0
3.4127 0 0
3.49206 0 0
3.57143 0 0
3.65079 0 0
3.73016 0 0
3.80952 0 0
3.88889 0 0
3.96825 0 0
4.04762 0 0
4.12698 0 0
4.20635 0 0
4.28571 0 0
4.36508 0 0
4.44444 0 0
4.52381 0 0
4.60317 0 0
4.68254 0 0
4.7619 0 0
4.84127 0 0
4.92063 0 0
5 0.0769231 0
5 0.153846 0
5 0.230769 0
5 0.307692 0
5 0.384615 0
5 0.461538 0
5 0.538462 0
5 0.615385 0
5 0.692308 0
5 0.769231 0
5 0.846154 0
5 0.923077 0
4.92063 1 0
4.84127 1 0
4.7619 1 0
4.68254 1 0
4.60317 1 0
4.52381 1 0
4.44444 1 0
4.36508 1 0
4.28571 1 0
4.20635 1 0
4.12698 1 0
4.04762 1 0
3.96825 1 0
3.88889 1 0
3.80952 1 0
3.73016 1 0
3.65079 1 0
3.57143 1 0
3.49206 1 0
3.4127 1 0
3.33333 1 0
3.25397 1 0
3.1746 1 0
3.09524 1 0
3.01587 1 0
2.93651 1 0
2.85714 1 0
2.77778 1 0
2.69841 1 0
2.61905 1 0
2.53968 1 0
2.46032 1 0
2.38095 1 0
2.30159 1 0
2.22222 1 0
2.14286 1 0
2.06349 1 0
1.98413 1 0
1.90476 1 0
1.8254 1 0
1.74603 1 0
1.66667 1 0
1.5873 1 0
1.50794 1 0
1.42857 1 0
1.34921 1 0
1.26984 1 0
1.19048 1 0
1.11111 1 0
1.03175 1 0
0.952381 1 0
0.873016 1 0
0.793651 1 0
0.714286 1 0
0.634921 1 0
0.555556 1 0
0.47619 1 0
0.396825 1 0
0.31746 1 0
0.238095 1 0
0.15873 1 0
0.0793651 1 0
0 0.923077 0
0 0.846154 0
0 0.769231 0
0 0.692308 0
0 0.615385 0
0 0.538462 0
0 0.461538 0
0 0.384615 0
0 0.307692 0
0 0.230769 0
0 0.153846 0
0 0.0769231 0
0.879698 0.466718 0
1.3085 0.931947 0
1.30532 0.0638546 0
4.93832 0.504275 0
0.620452 0.46964 0
3.99858 0.0669607 0
1.63721 0.934258 0
3.3751 0.0523709 0
4.3254 0.0687322 0
2.42354 0.0642082 0
2.97619 0.0687322 0
2.02101 0.0693621 0
3.68108 0.0581336 0
2.65899 0.932655 0
4.178 0.939994 0
3.21614 0.938179 0
2.25483 0.919987 0
3.53215 0.928998 0
3.84921 0.931268 0
1.69647 0.0674297 0
1.94349 0.930209 0
4.48413 0.931268 0
2.97813 0.942022 0
2.74097 0.0673855 0
0.859645 0.573263 0
0.639718 0.573116 0
0.0651563 0.652836 0
0.0635304 0.346121 0
4.56232 0.0679683 0
0.830393 0.392645 0
0.669618 0.39275 0
1.06185 0.0668897 0
0.440193 0.0680031 0
1.06474 0.93511 0
0.446074 0.935974 0
0.724697 0.630698 0
4.72268 0.931235 0
4.93065 0.267192 0
0.589836 0.936152 0
0.92338 0.0562425 0
0.590207 0.0623339 0
0.755872 0.0732784 0
0.838039 0.936714 0
4.92573 0.732039 0
0.281717 0.93783 0
0.28208 0.0811877 0
0.065248 0.503161 0
1.46076 0.0637037 0
4.72574 0.0661877 0
4.31028 0.937908 0
3.21429 0.0687322 0
1.46639 0.932632 0
3.6897 0.928155 0
2.42063 0.931268 0
3.5364 0.0691789 0
2.25998 0.0676208 0
1.78735 0.937047 0
4.01535 0.920637 0
1.85469 0.0674188 0
3.83991 0.0626292 0
3.37477 0.929368 0
2.58225 0.0657863 0
2.81746 0.932342 0
4.16667 0.0687322 0
2.11402 0.935574 0
0.0614266 0.197046 0
0.0612841 0.803003 0
4.88273 0.0644126 0
4.87774 0.933272 0
0.859645 0.426737 0
0.903081 0.436592 0
0.923672 0.473385 0
0.948706 0.439078 0
0.969155 0.479795 0
0.996593 0.439791 0
1.0202 0.484937 0
1.04667 0.440138 0
1.07382 0.489694 0
1.1034 0.440801 0
1.13169 0.49612 0
1.16603 0.445058 0
1.1931 0.504331 0
1.22956 0.450883 0
1.25923 0.506004 0
1.29683 0.453139 0
1.32923 0.510343 0
1.36603 0.454344 0
1.03276 0.530395 0
1.40063 0.516169 0
1.43576 0.454934 0
1.47042 0.520776 0
1.51069 0.46142 0
1.54422 0.526371 0
1.58547 0.465572 0
1.61942 0.531773 0
1.66033 0.468788 0
1.69546 0.536793 0
1.73713 0.472812 0
1.77239 0.541977 0
1.81532 0.478494 0
1.85006 0.547285 0
1.89327 0.483449 0
1.92802 0.55361 0
1.97142 0.488546 0
2.00623 0.558966 0
2.04984 0.493518 0
2.08483 0.564085 0
2.12847 0.498462 0
2.16353 0.569137 0
2.20719 0.503331 0
0.961579 0.391697 0
1.22451 0.565337 0
2.24238 0.574192 0
2.28611 0.508258 0
2.32134 0.579247 0
2.36519 0.513325 0
2.40036 0.584295 0
2.44425 0.51834 0
2.47944 0.589336 0
2.52334 0.523355 0
2.55853 0.594372 0
2.60245 0.52837 0
2.63764 0.599431 0
2.68159 0.533388 0
2.64637 0.462336 0
2.72553 0.467349 0
2.76076 0.538418 0
2.8047 0.47237 0
2.83993 0.543451 0
2.88387 0.477399 0
2.91911 0.548482 0
2.96305 0.482427 0
2.9983 0.553514 0
3.04224 0.487456 0
3.07749 0.558545 0
3.12143 0.492477 0
3.15668 0.563574 0
3.20063 0.497514 0
3.23588 0.568605 0
3.27983 0.502542 0
3.31508 0.573635 0
3.35903 0.507562 0
3.39428 0.578663 0
3.43823 0.5126 0
3.47348 0.583694 0
3.51744 0.517628 0
3.55268 0.588724 0
3.59664 0.522646 0
3.63189 0.593752 0
3.67585 0.527673 0
3.71109 0.598781 0
3.75505 0.532702 0
3.7903 0.60381 0
3.83426 0.537731 0
3.79901 0.466623 0
3.87821 0.471754 0
3.91346 0.542777 0
3.95742 0.476701 0
3.99267 0.547795 0
4.03662 0.481715 0
4.07187 0.552815 0
4.11582 0.486743 0
4.15106 0.55783 0
4.195 0.491782 0
4.23023 0.562843 0
4.27415 0.49682 0
4.30937 0.567866 0
4.35325 0.501915 0
4.38842 0.572845 0
4.43227 0.506997 0
4.46737 0.577575 0
4.51106 0.511995 0
4.54622 0.582183 0
1.13571 0.390292 0
4.47606 0.441361 0
4.55475 0.446396 0
2.32985 0.442214 0
3.5614 0.451571 0
3.08619 0.421408 0
2.09339 0.427815 0
1.42887 0.583001 0
2.84864 0.406329 0
3.32378 0.43649 0
4.23911 0.425894 0
1.54723 0.39251 0
1.77883 0.406811 0
1.33959 0.387065 0
3.92239 0.405803 0
4.08079 0.415776 0
2.48812 0.452349 0
1.57935 0.603183 0
1.93602 0.417543 0
1.72453 0.617973 0
3.11273 0.629643 0
2.69029 0.396284 0
3.94662 0.623383 0
1.88466 0.613248 0
2.79598 0.609502 0
4.10826 0.620575 0
2.04005 0.62838 0
2.95434 0.619575 0
4.51981 0.375801 0
4.59833 0.380943 0
4.63314 0.451296 0
4.26693 0.63114 0
2.19619 0.645921 0
4.4246 0.642296 0
3.27112 0.639707 0
2.35729 0.649822 0
2.51462 0.660373 0
3.42952 0.649769 0
4.67669 0.38601 0
3.58793 0.659829 0
3.74634 0.669888 0
4.64195 0.315733 0
4.44109 0.370647 0
4.48493 0.305066 0
4.40614 0.29989 0
4.71136 0.456133 0
4.72014 0.320758 0
0.8692 0.382093 0
0.841252 0.348256 0
0.886481 0.338703 0
0.853127 0.301457 0
0.902583 0.287335 0
0.801683 0.321689 0
0.818113 0.263019 0
0.764765 0.277091 0
4.44702 0.235678 0
0.946267 0.520761 0
0.78107 0.221265 0
0.726309 0.234724 0
0.848273 0.20551 0
4.68545 0.250576 0
4.37074 0.227561 0
4.76365 0.255792 0
4.79822 0.326145 0
0.713664 0.287231 0
0.672358 0.247957 0
0.68673 0.192342 0
0.630368 0.2085 0
0.616569 0.265341 0
0.574186 0.225456 0
0.557393 0.28131 0
0.52004 0.242373 0
0.504416 0.299685 0
0.462273 0.252096 0
0.44798 0.316739 0
0.404567 0.276951 0
0.390546 0.335414 0
0.434669 0.37657 0
0.377935 0.394545 0
0.421979 0.43426 0
0.365682 0.452846 0
0.409646 0.492216 0
0.353389 0.51089 0
0.397738 0.551598 0
0.339864 0.570301 0
0.385899 0.612153 0
0.325913 0.631557 0
0.344507 0.29318 0
0.320568 0.413067 0
0.373553 0.673852 0
0.434438 0.653082 0
0.311416 0.69481 0
0.449777 0.528305 0
0.293513 0.534612 0
0.421431 0.715204 0
0.480917 0.696603 0
0.54504 0.34471 0
0.262743 0.649913 0
0.246209 0.712341 0
0.468564 0.755948 0
0.526091 0.735423 0
0.538207 0.68039 0
0.581228 0.716342 0
0.408756 0.777952 0
0.36234 0.239019 0
0.297047 0.251925 0
0.572109 0.771575 0
0.624906 0.752173 0
0.474824 0.414151 0
0.534351 0.182707 0
0.633682 0.70159 0
0.674547 0.736174 0
0.66826 0.788959 0
0.721117 0.76834 0
0.714515 0.825486 0
0.769074 0.802008 0
0.775287 0.746591 0
0.821903 0.778625 0
0.826767 0.726064 0
0.873257 0.756032 0
0.872997 0.697261 0
0.92331 0.732304 0
0.930014 0.67838 0
0.976061 0.710612 0
0.92456 0.784469 0
0.982178 0.654421 0
1.03016 0.688004 0
1.02037 0.747059 0
1.08 0.723819 0
1.08651 0.661896 0
1.1397 0.698204 0
1.13262 0.763657 0
1.19424 0.736545 0
1.18556 0.80161 0
1.24839 0.771772 0
1.25723 0.706382 0
1.31432 0.745787 0
4.66801 0.521361 0
4.74602 0.526202 0
4.70285 0.591278 0
4.78076 0.596023 0
4.73763 0.661207 0
4.78904 0.460969 0
2.61113 0.391267 0
2.65506 0.325217 0
2.57588 0.320198 0
2.61982 0.254148 0
2.69899 0.259163 0
2.54065 0.249131 0
2.49672 0.315179 0
2.46148 0.244124 0
2.41757 0.310166 0
2.38233 0.239117 0
2.33843 0.30514 0
2.30297 0.237979 0
2.25928 0.300748 0
2.22079 0.221377 0
2.17969 0.293884 0
2.14114 0.224266 0
2.10047 0.289841 0
2.0653 0.219144 0
2.02202 0.284919 0
1.98701 0.214164 0
1.94336 0.279863 0
3.82315 0.673327 0
3.78135 0.738156 0
3.86451 0.735958 0
3.70234 0.735494 0
4.52513 0.244409 0
4.32717 0.294467 0
4.29217 0.221862 0
0.619934 0.539507 0
0.599432 0.577132 0
0.575955 0.542712 0
0.554504 0.58245 0
4.65962 0.656481 0
4.69438 0.726169 0
4.6161 0.721747 0
4.77259 0.731352 0
4.65076 0.791486 0
4.57153 0.788793 0
4.2482 0.289182 0
4.21307 0.218308 0
4.1691 0.284563 0
4.13394 0.21352 0
0.835918 0.606341 0
0.806475 0.6384 0
4.08995 0.279537 0
0.640355 0.426737 0
0.596214 0.435837 0
0.630358 0.379178 0
0.689967 0.627735 0
1.90832 0.209948 0
1.86468 0.27519 0
1.82968 0.20518 0
1.78607 0.269797 0
0.281841 0.313314 0
0.232117 0.268621 0
0.216861 0.334396 0
4.05473 0.209347 0
4.01077 0.2745 0
3.97554 0.204394 0
3.93159 0.269388 0
0.297409 0.759367 0
0.231645 0.782943 0
0.180008 0.73598 0
1.32151 0.676369 0
1.38055 0.718092 0
1.36901 0.793947 0
1.43945 0.766002 0
0.249902 0.198865 0
0.932364 0.624392 0
1.75117 0.201034 0
1.70771 0.264658 0
1.673 0.195402 0
1.62985 0.260294 0
1.59532 0.191927 0
1.55236 0.254233 0
3.89629 0.200227 0
3.85238 0.264494 0
3.81708 0.195303 0
3.77304 0.259453 0
2.66368 0.189084 0
2.74279 0.19534 0
2.77814 0.264556 0
2.82201 0.199823 0
2.85733 0.269552 0
2.90126 0.203886 0
2.93654 0.274416 0
2.98045 0.20868 0
3.01573 0.279376 0
3.0597 0.213193 0
[...]
CELL_DATA 2220
VECTORS velocity double
12.7322 -1.01533 0.0
9.6479 0.392101 0.0
17.7231 5.00032 0.0
17.6632 1.07383 0.0
13.0121 -1.24556 0.0
14.9719 -0.683228 0.0
8.27792 0.379761 0.0
9.11116 0.00442234 0.0
17.8519 9.46849 0.0
14.7199 -0.44631 0.0
12.1101 16.0508 0.0
8.65422 0.260378 0.0
7.03848 0.189577 0.0
15.914 -5.02206 0.0
16.0137 15.0098 0.0
10.1346 9.8406 0.0
9.46051 0.376729 0.0
7.74763 0.415678 0.0
8.6113 -0.102002 0.0
9.18916 -0.0796702 0.0
15.2003 3.75876 0.0
29.7856 -6.12969 0.0
8.86139 0.435731 0.0
8.97236 0.45502 0.0
13.7308 -0.804002 0.0
14.5851 -4.03215 0.0
15.8871 -1.88757 0.0
7.8246 0.449402 0.0
17.5243 1.12222 0.0
19.726 1.04545 0.0
10.5386 -2.64484 0.0
23.1099 0.205986 0.0
6.59918 -0.0950082 0.0
22.3451 -12.1306 0.0
33.2884 1.68471 0.0
15.0977 -0.768684 0.0
33.0632 2.51856 0.0
7.54162 -0.0912585 0.0
20.348 1.28872 0.0
20.1262 -1.54257 0.0
9.88207 -1.00081 0.0
17.8433 8.38513 0.0
14.9404 0.904091 0.0
8.43199 0.0305655 0.0
7.65471 0.0457425 0.0
6.98504 0.0352716 0.0
8.71468 0.456335 0.0
7.05411 0.00826499 0.0
14.6476 -0.379539 0.0
15.4986 0.174854 0.0
12.1098 2.90475 0.0
6.94122 0.0943001 0.0
8.52448 0.485858 0.0
8.57363 0.107354 0.0
8.02543 0.353288 0.0
20.0728 -2.03691 0.0
24.6347 -0.277636 0.0
7.35124 0.426632 0.0
7.61069 0.428074 0.0
15.695 0.1067 0.0
0.507284 -2.24839 0.0
14.434 -1.20309 0.0
11.7947 -3.45982 0.0
8.71353 0.498699 0.0
8.63758 0.470167 0.0
23.9034 -10.5689 0.0
14.3082 -1.05563 0.0
11.872 8.97645 0.0
7.47122 0.45971 0.0
7.57063 0.472123 0.0
8.50256 0.156881 0.0
23.6226 11.064 0.0
6.81351 0.150214 0.0
15.2987 0.462988 0.0
26.0668 -1.57789 0.0
32.3419 -0.344467 0.0
13.436 3.24654 0.0
11.1594 -2.35777 0.0
15.4843 8.22353 0.0
8.22131 0.1151 0.0
16.7525 2.31624 0.0
20.6021 2.30972 0.0
11.0741 -0.233072 0.0
6.89272 0.107814 0.0
8.46372 0.378576 0.0
8.43111 0.215092 0.0
11.9712 -1.28602 0.0
7.16844 0.191584 0.0
7.27828 0.312452 0.0
18.8542 9.91402 0.0
23.3683 -3.89393 0.0
11.979 3.27681 0.0
8.62903 -0.125967 0.0
15.2562 4.26841 0.0
31.4959 0.0882084 0.0
20.1089 1.68881 0.0
31.1625 4.88285 0.0
1.08605 -17.6604 0.0
1.23868 -1.87019 0.0
20.3994 12.7204 0.0
-7.19533 -17.9674 0.0
13.1289 -3.0131 0.0
8.60432 0.444492 0.0
7.60677 0.695178 0.0
30.3524 -5.64051 0.0
32.6864 -1.02047 0.0
15.0893 -0.581902 0.0
15.5828 -0.846542 0.0
2.77968 -0.0450896 0.0
8.85502 0.731626 0.0
21.8799 0.936115 0.0
18.3868 -6.63178 0.0
14.9795 -0.462489 0.0
8.32512 -0.549257 0.0
15.3677 -1.61014 0.0
7.44006 0.401131 0.0
14.6197 -3.85215 0.0
13.6223 -0.410347 0.0
1.16339 -20.6561 0.0
20.1198 9.12746 0.0
10.4765 -1.80378 0.0
25.1186 -0.582125 0.0
9.69686 2.45195 0.0
26.7379 -8.65035 0.0
33.074 0.836039 0.0
5.74327 -10.6785 0.0
32.8194 -1.61206 0.0
17.2246 0.976297 0.0
16.7312 -6.00958 0.0
-5.65029 8.61006 0.0
7.7717 0.392746 0.0
28.2198 4.63239 0.0
24.6332 6.02695 0.0
9.09068 1.83508 0.0
20.1344 1.35815 0.0
8.11432 2.08851 0.0
6.47815 0.00762386 0.0
13.3438 -2.85705 0.0
8.19944 -11.5523 0.0
23.7533 0.547857 0.0
14.5597 -3.68051 0.0
8.2931 -0.0149679 0.0
15.2149 -2.09787 0.0
32.553 0.464724 0.0
15.0579 0.433212 0.0
14.1516 3.73743 0.0
-11.4463 8.74944 0.0
4.54812 -18.3987 0.0
15.8389 1.45935 0.0
15.5548 -1.18083 0.0
7.52678 -0.0978834 0.0
19.9874 8.02279 0.0
25.4757 -0.00554436 0.0
24.2409 -10.8041 0.0
5.67574 1.99415 0.0
9.36944 0.177012 0.0
16.3642 -1.2966 0.0
9.64684 0.300354 0.0
8.69431 -0.772594 0.0
10.8804 -2.63901 0.0
26.2246 8.56231 0.0
7.56393 0.0422374 0.0
-11.6716 -9.01784 0.0
23.2092 0.0376355 0.0
6.79789 0.0868474 0.0
23.3923 -11.8298 0.0
14.735 -13.4812 0.0
33.2214 0.405138 0.0
9.29406 0.121709 0.0
21.5429 11.1382 0.0
-6.5186 14.7623 0.0
6.79356 0.0611062 0.0
8.50316 0.0750522 0.0
-6.08026 -8.96365 0.0
0.844905 -4.71823 0.0
14.9954 7.2874 0.0
12.276 3.31439 0.0
13.233 6.81004 0.0
6.14115 -1.30789 0.0
9.24501 0.0694753 0.0
24.7496 -0.244066 0.0
11.789 -2.8409 0.0
15.9652 -16.0238 0.0
-0.466716 13.9825 0.0
9.30614 0.0111522 0.0
12.8995 -1.35928 0.0
33.1351 0.125822 0.0
7.62876 -0.0627135 0.0
32.0473 3.80462 0.0
33.1647 0.243535 0.0
10.2575 -0.928005 0.0
7.40562 -0.153341 0.0
18.2994 -7.35732 0.0
15.8413 1.18407 0.0
16.1578 -0.455381 0.0
33.0811 -0.283463 0.0
11.8179 0.38739 0.0
8.54629 -0.104154 0.0
4.92326 -0.288376 0.0
8.75633 -0.188802 0.0
7.76302 -0.754103 0.0
11.1639 -0.149425 0.0
26.2303 -9.73024 0.0
8.73124 0.0352506 0.0
10.0734 1.17325 0.0
12.2621 -2.20348 0.0
15.9027 -3.37347 0.0
8.16296 0.0686434 0.0
12.0071 0.295804 0.0
5.37474 -0.881825 0.0
8.53033 0.445837 0.0
8.69001 18.5362 0.0
11.4481 -0.123403 0.0
14.6558 9.11712 0.0
14.2158 4.06358 0.0
9.54759 0.481516 0.0
7.32527 0.409884 0.0
8.60812 0.527561 0.0
7.08469 1.47552 0.0
26.3928 0.930575 0.0
14.9071 0.244525 0.0
4.43357 -0.0728886 0.0
7.36396 0.489967 0.0
4.2257 -0.00811674 0.0
8.67936 0.0240713 0.0
10.287 -0.209262 0.0
9.22368 -1.67297 0.0
15.5565 15.6932 0.0
18.8448 -4.59212 0.0
8.56094 0.354204 0.0
10.777 0.30672 0.0
11.3959 -0.796137 0.0
6.20533 -0.00833377 0.0
8.9213 -0.0046832 0.0
8.81441 -0.251042 0.0
31.9342 0.130795 0.0
0.0221359 -6.67505 0.0
8.56946 -0.152188 0.0
8.50765 -0.175815 0.0
7.73608 -0.00443059 0.0
31.7519 -0.153001 0.0
27.3564 9.03272 0.0
31.3262 -3.75083 0.0
4.72775 0.0164524 0.0
9.05 1.78976 0.0
15.1195 -0.0533301 0.0
9.31305 -0.0045902 0.0
23.081 -0.656781 0.0
4.66452 2.40845 0.0
15.2365 0.616505 0.0
8.12471 -1.7875 0.0
4.73136 -0.0364103 0.0
12.9332 -12.9568 0.0
14.7457 -0.0865547 0.0
13.555 -5.22449 0.0
8.44967 0.280299 0.0
-12.0993 1.58538 0.0
14.9035 0.0559445 0.0
16.0403 0.00687434 0.0
31.4187 0.186744 0.0
9.51083 -0.222351 0.0
25.8919 -0.365118 0.0
8.53242 0.525141 0.0
13.0296 -3.43453 0.0
4.65274 -0.3342 0.0
6.43467 -0.057095 0.0
8.24474 -0.180397 0.0
3.94431 -4.29247 0.0
13.0792 3.58933 0.0
15.2208 -0.0909036 0.0
14.2642 0.541255 0.0
14.9117 0.029939 0.0
7.213 0.234871 0.0
14.9434 -1.0169 0.0
-1.17276 -11.035 0.0
31.9046 -2.40091 0.0
18.1842 -14.4836 0.0
7.31999 -2.167 0.0
9.44117 2.15451 0.0
10.5576 0.068496 0.0
4.92223 -14.274 0.0
18.6486 -0.0983087 0.0
31.1341 -0.508558 0.0
11.3904 0.375528 0.0
14.7905 -0.892639 0.0
10.6065 -0.0960038 0.0
25.3539 -0.313434 0.0
11.0157 0.399447 0.0
7.459 -0.12783 0.0
7.22481 -0.152313 0.0
-12.0839 -2.0416 0.0
8.44272 -0.681186 0.0
5.82055 1.22102 0.0
9.08207 -1.01346 0.0
9.77879 -0.962871 0.0
10.6966 -0.138871 0.0
10.8196 -0.119306 0.0
16.1244 0.303044 0.0
30.7497 -3.52158 0.0
14.8789 3.75762 0.0
6.96033 -0.192234 0.0
15.5917 6.46981 0.0
17.2857 -5.53641 0.0
6.07727 0.0557652 0.0
11.5162 -11.0189 0.0
9.20518 0.307168 0.0
7.08974 0.000903796 0.0
7.31056 -0.161906 0.0
12.5218 0.261826 0.0
5.13757 0.903375 0.0
8.70885 1.53923 0.0
4.63605 0.48231 0.0
1.16856 17.7661 0.0
31.3376 -1.32806 0.0
23.8306 11.3293 0.0
8.37897 -0.165571 0.0
13.2067 5.55962 0.0
8.91537 0.0478817 0.0
31.715 -0.200626 0.0
15.3814 4.13799 0.0
18.2865 14.4818 0.0
9.86016 2.42399 0.0
14.7237 0.0831058 0.0
9.12162 0.0628746 0.0
4.966 0.942914 0.0
7.62723 -1.40289 0.0
14.9291 0.0885933 0.0
14.6313 0.598877 0.0
15.1174 0.242799 0.0
6.88514 -1.43198 0.0
12.2837 -9.69466 0.0
32.4702 0.996396 0.0
8.78065 -3.31904 0.0
8.49784 -0.456878 0.0
22.9085 -9.59174 0.0
31.5246 -0.363819 0.0
18.1316 -0.821033 0.0
16.4126 6.36655 0.0
25.1789 -0.90953 0.0
8.45688 -0.179003 0.0
5.63548 0.7209 0.0
7.6375 -0.184461 0.0
5.09747 -0.0892681 0.0
4.43271 -0.65363 0.0
15.7997 15.9866 0.0
17.0147 7.88013 0.0
6.28007 1.05612 0.0
15.9419 4.92558 0.0
15.66 2.55678 0.0
3.68208 -0.706713 0.0
25.4045 -7.39074 0.0
3.31547 0.629404 0.0
5.09357 0.144124 0.0
7.20944 9.39508 0.0
4.59537 0.557985 0.0
32.2188 0.0134895 0.0
25.8641 -8.55538 0.0
2.65188 -0.215159 0.0
14.4673 0.387266 0.0
22.3743 -0.948811 0.0
15.5229 2.63694 0.0
4.03855 18.3709 0.0
15.6175 4.86672 0.0
15.6526 3.64275 0.0
4.71032 0.253958 0.0
15.8058 0.346356 0.0
30.3761 6.37006 0.0
3.25924 -0.627506 0.0
4.96931 -0.204572 0.0
26.0719 -0.743067 0.0
3.34355 0.657812 0.0
30.9721 -4.65493 0.0
25.6144 9.06793 0.0
9.45129 -0.383002 0.0
4.06651 -0.0488239 0.0
10.3071 0.365844 0.0
11.5174 0.290274 0.0
11.5292 0.111407 0.0
31.5967 0.014648 0.0
10.8457 -0.0987342 0.0
9.81032 0.507338 0.0
31.128 0.107629 0.0
32.1914 -0.0855436 0.0
14.9954 0.123394 0.0
29.9427 0.477464 0.0
14.5304 -0.0603119 0.0
29.953 -4.84636 0.0
14.7102 0.0652236 0.0
15.7569 -4.76081 0.0
15.4256 1.87664 0.0
8.23099 0.592726 0.0
14.3579 0.0423903 0.0
21.7414 -0.554198 0.0
12.255 -4.85431 0.0
7.43516 -0.661827 0.0
8.5908 -1.25242 0.0
31.0959 0.19558 0.0
7.15069 0.513065 0.0
14.7313 0.0765763 0.0
30.5325 0.432578 0.0
5.97648 0.201511 0.0
18.8755 3.37007 0.0
15.4178 3.08255 0.0
14.8649 0.0334386 0.0
29.6859 7.03771 0.0
31.812 4.18 0.0
4.59798 1.0687 0.0
4.82546 0.695754 0.0
16.3739 0.949252 0.0
19.6369 -10.9387 0.0
8.36881 -13.1808 0.0
4.25066 0.702001 0.0
29.8428 0.0610806 0.0
14.2019 -4.37005 0.0
30.6023 -0.400886 0.0
14.8607 0.0276719 0.0
3.49422 -0.120805 0.0
2.91989 0.521265 0.0
18.2428 7.42506 0.0
4.90726 0.123406 0.0
15.5912 4.92547 0.0
29.3207 0.648992 0.0
3.5432 0.00232168 0.0
4.92779 -0.0511762 0.0
15.2327 2.23699 0.0
13.997 0.201979 0.0
3.41003 0.130435 0.0
13.1095 -0.0978594 0.0
14.7775 0.100946 0.0
5.05006 -0.66114 0.0
14.8931 0.0563639 0.0
14.5099 2.17315 0.0
30.417 -0.644213 0.0
15.2287 1.35468 0.0
5.7394 -0.467914 0.0
31.1556 5.30795 0.0
4.14018 -0.72531 0.0
5.6225 0.344127 0.0
10.6167 -8.52912 0.0
5.14986 0.35801 0.0
14.8197 2.94341 0.0
15.0915 1.62528 0.0
29.6787 4.18713 0.0
32.0275 2.88939 0.0
8.90213 -0.814225 0.0
13.8938 2.85033 0.0
30.4867 0.410477 0.0
2.76367 -0.297304 0.0
2.53513 0.313663 0.0
7.96499 -0.303484 0.0
8.73616 0.74819 0.0
14.8517 -0.339459 0.0
6.05264 -0.315406 0.0
17.8687 0.570809 0.0
15.3275 0.754913 0.0
4.47315 0.467177 0.0
9.98007 0.541264 0.0
15.7072 4.1788 0.0
5.82818 0.286947 0.0
14.8982 0.93027 0.0
14.2406 1.60626 0.0
14.2881 0.180536 0.0
5.14123 -0.383693 0.0
3.9887 0.272239 0.0
6.23802 0.492874 0.0
11.5721 -0.0250596 0.0
6.64081 -0.334491 0.0
14.9503 0.0820299 0.0
3.45577 0.0722937 0.0
31.1505 2.08404 0.0
4.80996 -0.208272 0.0
2.56713 0.37978 0.0
12.2081 -1.09112 0.0
16.2237 5.5017 0.0
4.80398 -0.494931 0.0
14.2764 0.149043 0.0
14.7483 1.17286 0.0
17.6387 3.58181 0.0
14.8583 0.120468 0.0
13.9477 1.19986 0.0
9.89785 -1.33539 0.0
24.042 -7.96257 0.0
15.5184 -2.21598 0.0
13.6596 0.885628 0.0
5.59927 -0.512899 0.0
5.97224 0.535819 0.0
30.4124 -0.0887663 0.0
2.33935 0.218912 0.0
24.9691 -0.632633 0.0
10.6712 1.40337 0.0
14.9448 0.120764 0.0
2.42384 0.260448 0.0
2.87396 -0.391828 0.0
14.4679 0.8146 0.0
16.9067 6.93301 0.0
11.8064 -0.11181 0.0
22.1643 -0.773147 0.0
13.8816 0.064361 0.0
19.9681 -0.737544 0.0
8.87722 -1.55426 0.0
13.75 -0.0739506 0.0
13.8278 1.81471 0.0
2.55784 -0.137905 0.0
13.446 0.636913 0.0
11.6941 0.959368 0.0
7.65836 -0.243452 0.0
14.8011 0.138777 0.0
3.68316 -0.305708 0.0
4.0705 0.311225 0.0
14.1375 2.44131 0.0
14.0291 -0.0924414 0.0
13.7148 -0.449326 0.0
8.78357 -0.101422 0.0
13.9718 0.232793 0.0
15.0271 0.0982122 0.0
13.8932 -3.23631 0.0
3.29793 0.355684 0.0
14.3547 0.258116 0.0
15.5161 -2.61592 0.0
13.2566 1.0316 0.0
12.9011 0.678408 0.0
6.06081 -0.595881 0.0
22.2836 -11.0319 0.0
4.73518 -1.47897 0.0
18.0046 -12.532 0.0
14.3411 -0.524698 0.0
15.569 2.94434 0.0
14.2985 0.313088 0.0
3.40762 -0.320875 0.0
13.3189 0.457737 0.0
13.2038 0.377291 0.0
13.0098 0.777917 0.0
15.247 0.0626949 0.0
13.5455 1.3606 0.0
14.1255 0.364414 0.0
19.2506 -0.60378 0.0
18.6602 -2.88507 0.0
6.57154 -0.929046 0.0
29.9116 -0.642788 0.0
7.11866 -0.0904995 0.0
12.5344 -0.845157 0.0
6.01189 -1.8106 0.0
27.4422 7.45238 0.0
15.1189 0.0726592 0.0
2.59901 -0.225587 0.0
2.66858 0.233809 0.0
14.0286 0.259108 0.0
29.0646 0.707843 0.0
13.2493 0.345871 0.0
10.4665 0.839239 0.0
2.86879 -0.0826962 0.0
4.57878 -0.126962 0.0
3.88322 0.158844 0.0
2.59388 0.575596 0.0
4.92381 -0.998969 0.0
15.2579 -3.76977 0.0
15.2821 0.0544588 0.0
29.9819 5.53174 0.0
1.09505 0.339163 0.0
12.3273 -0.0333462 0.0
12.9174 -0.037117 0.0
12.3248 -0.50792 0.0
11.6726 1.23446 0.0
1.18242 -0.346212 0.0
2.73685 -0.545821 0.0
11.6599 0.268093 0.0
15.8997 0.742603 0.0
12.868 0.575103 0.0
10.4953 -0.551654 0.0
14.0418 -0.0344328 0.0
32.6246 -0.279806 0.0
14.3723 -0.0330352 0.0
12.7172 0.914169 0.0
15.0149 0.0546001 0.0
3.38905 -0.225665 0.0
15.268 5.61556 0.0
14.9557 0.128872 0.0
14.3021 0.152142 0.0
14.8811 0.0473151 0.0
13.3932 -0.324318 0.0
3.26891 0.15525 0.0
14.9129 0.0609225 0.0
3.74842 -0.179558 0.0
7.76587 0.837831 0.0
11.1426 0.0147664 0.0
13.2213 0.291162 0.0
12.7783 0.426878 0.0
14.6474 0.212827 0.0
14.87 0.211981 0.0
14.7041 0.261555 0.0
2.26278 0.163108 0.0
4.19574 0.286947 0.0
3.91413 -0.104023 0.0
14.9446 0.154499 0.0
14.0125 0.185055 0.0
31.3357 0.465282 0.0
3.66678 0.215564 0.0
14.0674 0.0252419 0.0
13.9817 0.496301 0.0
7.78759 1.73436 0.0
14.1867 -0.0152377 0.0
1.8824 0.131523 0.0
13.8054 -0.0445888 0.0
13.422 -0.10407 0.0
14.0331 -0.228237 0.0
11.2964 -0.164762 0.0
10.5894 -0.160823 0.0
13.6462 -0.0749105 0.0
5.29346 -0.580094 0.0
32.3946 -1.17329 0.0
14.8643 0.0856071 0.0
14.5037 -0.111883 0.0
14.3656 0.170594 0.0
13.2506 0.268159 0.0
8.40368 0.0162782 0.0
14.0604 0.194448 0.0
15.5023 -1.55139 0.0
14.974 0.0222484 0.0
4.48634 0.145959 0.0
13.3422 0.699071 0.0
1.99973 -0.12379 0.0
14.9954 0.189611 0.0
14.9643 0.217321 0.0
13.3146 0.267141 0.0
1.62112 0.220006 0.0
21.5634 -9.68082 0.0
15.09 0.0441415 0.0
14.8155 0.250031 0.0
14.0073 -0.0433221 0.0
14.4894 -0.0329483 0.0
14.4694 0.183738 0.0
14.8991 0.17184 0.0
14.9899 0.126954 0.0
15.0925 0.0948481 0.0
13.4378 0.279829 0.0
2.20102 0.076394 0.0
6.89403 0.233878 0.0
14.7941 -0.0335878 0.0
11.6123 7.44238 0.0
1.71828 -0.217163 0.0
4.04607 -0.0717833 0.0
16.4437 -10.78 0.0
14.0352 0.485642 0.0
14.158 0.212955 0.0
7.18966 -0.122189 0.0
14.2971 -0.0963661 0.0
14.4951 -0.0713558 0.0
11.0679 1.33564 0.0
4.01934 0.14458 0.0
2.13608 -0.069993 0.0
15.5354 -1.85452 0.0
12.7763 0.809132 0.0
13.9423 -0.338571 0.0
14.9996 0.19779 0.0
8.63207 -1.3241 0.0
14.2867 0.212139 0.0
12.7336 0.354059 0.0
14.8583 -0.0303972 0.0
2.04674 0.0896421 0.0
14.588 0.168014 0.0
14.915 -0.00414002 0.0
2.29339 -0.0385301 0.0
13.6089 0.27128 0.0
15.0076 0.094919 0.0
15.0004 0.269194 0.0
14.718 0.0496847 0.0
14.4475 -0.105283 0.0
15.029 0.0181467 0.0
13.5906 -0.330876 0.0
14.637 -0.076503 0.0
14.6899 0.113215 0.0
14.5144 0.017337 0.0
14.2559 -0.125816 0.0
2.22507 -0.043337 0.0
14.7372 0.0741212 0.0
14.2298 -0.146202 0.0
2.85399 0.0908178 0.0
14.9612 -0.00812955 0.0
4.44878 0.159735 0.0
14.4233 0.160762 0.0
14.4197 -0.130122 0.0
15.0024 0.249925 0.0
14.8358 -0.0629212 0.0
14.6933 0.00589847 0.0
14.9397 0.22247 0.0
8.26263 0.170783 0.0
13.9389 0.0781897 0.0
13.4104 0.29724 0.0
13.7737 0.190599 0.0
2.05752 -0.0120103 0.0
14.7795 0.186403 0.0
14.508 0.0773444 0.0
12.9844 -0.679839 0.0
3.13187 -0.254007 0.0
12.8119 0.300601 0.0
3.08207 0.18009 0.0
12.7419 -0.724705 0.0
13.7966 0.305846 0.0
12.9175 0.303046 0.0
13.8902 -0.0797795 0.0
14.213 -0.152344 0.0
13.1029 0.310663 0.0
14.6151 -0.0481227 0.0
26.9387 9.16356 0.0
12.2325 -0.690259 0.0
14.3956 0.00022654 0.0
14.9744 0.273999 0.0
14.9785 0.242562 0.0
15.0048 0.246893 0.0
14.4036 -0.142857 0.0
15.0718 0.255513 0.0
13.3094 -0.0898401 0.0
15.1111 0.226896 0.0
14.0924 -0.0587293 0.0
13.9548 0.00779876 0.0
7.92279 0.256852 0.0
14.6153 0.145204 0.0
15.0992 0.245843 0.0
12.7081 -0.229578 0.0
15.0201 0.247388 0.0
14.3957 -0.137562 0.0
14.2044 -0.135362 0.0
2.27741 0.073058 0.0
14.4887 -0.0188547 0.0
12.7535 0.319644 0.0
15.1655 0.233446 0.0
12.055 0.0513869 0.0
4.60702 0.171464 0.0
13.9564 -0.0341679 0.0
15.0805 0.19157 0.0
13.4763 0.129839 0.0
13.0267 -0.0881807 0.0
14.1963 -0.0890681 0.0
15.1285 0.1062 0.0
14.3931 -0.108024 0.0
13.5926 0.0380497 0.0
10.7495 1.15593 0.0
14.9029 -0.0368869 0.0
15.2105 0.21706 0.0
14.904 0.23843 0.0
7.72671 -0.0529334 0.0
14.4595 -0.0449587 0.0
12.6929 -0.11006 0.0
2.50468 0.10334 0.0
4.26573 0.20625 0.0
14.3835 -0.0560403 0.0
14.9583 0.227157 0.0
13.7184 -0.163898 0.0
14.1729 -0.0246286 0.0
15.1811 0.158381 0.0
13.8123 -0.1129 0.0
13.9564 -0.0623388 0.0
14.1169 0.0385305 0.0
12.7277 -0.121424 0.0
13.5421 -0.105777 0.0
15.2632 0.174093 0.0
12.8456 -0.101433 0.0
15.2486 0.137809 0.0
13.6841 -0.17402 0.0
13.9829 -0.133478 0.0
13.4688 -0.134925 0.0
12.632 -0.146551 0.0
14.8697 0.217888 0.0
14.3519 0.00378437 0.0
3.09212 0.118427 0.0
4.73283 0.172305 0.0
15.2196 0.0562062 0.0
15.1325 0.0027184 0.0
13.2656 0.283092 0.0
13.5324 0.0553273 0.0
13.6287 -0.0562467 0.0
15.0432 0.26253 0.0
14.0149 0.0833365 0.0
14.8662 0.273826 0.0
14.653 -0.023163 0.0
12.5515 -0.173411 0.0
13.3281 -0.183542 0.0
13.6084 -0.0209587 0.0
14.2863 0.05391 0.0
15.3113 0.140892 0.0
14.814 -0.0575649 0.0
13.4142 -0.161129 0.0
20.2335 7.14866 0.0
12.1532 -0.137877 0.0
13.3673 -0.181258 0.0
12.4842 -0.200439 0.0
14.5293 0.298251 0.0
13.877 0.0929579 0.0
14.1843 0.0775383 0.0
13.6646 -0.156144 0.0
12.2756 -0.117662 0.0
13.214 0.0267098 0.0
15.1245 0.226057 0.0
12.4209 -0.210096 0.0
13.3051 -0.140697 0.0
13.7463 0.0589665 0.0
8.86507 0.142316 0.0
14.7061 0.187008 0.0
12.3541 -0.15754 0.0
7.81236 0.100114 0.0
12.0533 -0.162877 0.0
14.0691 0.0626114 0.0
12.3184 -0.0538258 0.0
13.2719 -0.0609973 0.0
12.4346 -0.109432 0.0
2.21349 -0.042343 0.0
4.04461 -0.0776377 0.0
8.78918 0.206852 0.0
13.7379 -0.131997 0.0
13.6101 -0.0207214 0.0
13.6619 0.000567743 0.0
13.9775 0.0143446 0.0
12.2346 0.0462776 0.0
4.62441 0.0944862 0.0
15.2601 0.173231 0.0
4.14328 -0.0801802 0.0
15.3248 0.0648178 0.0
13.6528 -0.0535106 0.0
11.9639 -0.191939 0.0
13.3883 0.110766 0.0
11.8592 -0.220826 0.0
15.3479 0.00217461 0.0
13.1895 0.129896 0.0
2.28503 -0.0416885 0.0
4.09041 -0.0807577 0.0
13.6465 -0.0990853 0.0
2.49771 0.057025 0.0
13.9378 -0.0464422 0.0
11.7918 -0.201908 0.0
11.733 -0.102955 0.0
13.0919 0.0976533 0.0
13.8779 -0.0441226 0.0
15.3306 0.02139 0.0
13.0081 0.0982917 0.0
12.8887 0.0343023 0.0
4.12105 -0.0682394 0.0
2.37369 -0.0414213 0.0
7.46742 0.16977 0.0
11.6574 0.0130435 0.0
12.8772 0.142562 0.0
13.7581 -0.141432 0.0
12.6425 0.143591 0.0
14.2669 -0.0139513 0.0
7.595 0.189485 0.0
12.4581 0.0842793 0.0
13.9836 -0.0891931 0.0
12.8562 -0.0142381 0.0
4.2058 0.0969861 0.0
2.15996 -0.0268983 0.0
1.83149 -0.043299 0.0
2.30712 -0.0373246 0.0
4.13872 -0.0184414 0.0
4.41529 0.0923553 0.0
2.00051 -0.00825807 0.0
2.25944 0.00463818 0.0
4.02624 -0.0774777 0.0
2.17517 -0.0320546 0.0
2.34359 -0.0229327 0.0
2.49824 0.0724762 0.0
4.40858 -0.0703669 0.0
2.41151 0.0518527 0.0
3.96711 -0.0465722 0.0
2.32723 0.0514448 0.0
4.23574 -0.0374635 0.0
4.12463 0.0111164 0.0
2.24825 0.094753 0.0
4.57457 0.103137 0.0
4.02565 -0.0673749 0.0
3.93694 -0.0617081 0.0
2.29295 0.136574 0.0
3.85326 -0.0317058 0.0
4.0968 0.134038 0.0
2.15116 0.00722312 0.0
4.00018 -0.044628 0.0
2.41255 0.025831 0.0
2.15909 0.0633351 0.0
3.86344 -0.0847473 0.0
2.30967 0.100897 0.0
2.81165 0.0564914 0.0
2.33164 0.157045 0.0
1.99305 0.0578561 0.0
2.12872 -0.0127937 0.0
4.05566 0.00928297 0.0
2.22964 -0.0437349 0.0
2.28073 -0.0416107 0.0
2.3662 0.101398 0.0
2.39894 0.0835222 0.0
2.32186 0.0167201 0.0
2.26162 0.0367821 0.0
1.94977 -0.0427096 0.0
2.19481 -0.0227416 0.0
2.7355 0.000657225 0.0
4.49637 -0.00799184 0.0
2.38948 -0.0295049 0.0
2.84225 0.051585 0.0
3.8658 0.116162 0.0
3.76658 -0.0947969 0.0
2.17906 -0.0410403 0.0
2.37638 0.116975 0.0
2.21998 0.0231039 0.0
4.19832 0.0430968 0.0
2.0888 0.0678121 0.0
2.31575 0.0536225 0.0
2.16138 -0.0375255 0.0
4.24357 0.184335 0.0
2.65403 -0.0488784 0.0
1.93254 0.0183657 0.0
2.18379 0.0175292 0.0
1.85287 0.0339513 0.0
2.40093 0.0530928 0.0
2.39988 -0.0121295 0.0
3.57895 -0.0372453 0.0
1.66368 -0.0129882 0.0
4.1367 0.1972 0.0
4.28312 0.0896825 0.0
13.9619 -0.0827391 0.0
13.7552 -0.0676592 0.0
14.586 -0.0722855 0.0
12.3745 0.0210679 0.0
15.0407 -0.173626 0.0
15.1987 -0.05522 0.0
12.3471 0.00552768 0.0
15.0952 -0.179009 0.0
15.2765 -0.134046 0.0
15.1494 -0.187414 0.0
15.3048 -0.0682397 0.0
12.9506 -0.00416056 0.0
13.9683 -0.0552244 0.0
15.2082 -0.158841 0.0
13.6109 -0.0703658 0.0
14.9746 -0.125685 0.0
14.1425 -0.0953811 0.0
14.9611 -0.0990393 0.0
14.6003 -0.141824 0.0
14.6764 -0.163872 0.0
11.0893 0.0657727 0.0