# vtk DataFile Version 3.0
Malha 2D com triângulos e temperatura
ASCII
DATASET UNSTRUCTURED_GRID

POINTS 1194 double
0 0 0
5 0 0
5 1 0
0 1 0
0.85 0.5 0
0.842388 0.538268 0
0.820711 0.570711 0
0.788268 0.592388 0
0.75 0.6 0
0.711732 0.592388 0
0.679289 0.570711 0
0.657612 0.538268 0
0.65 0.5 0
0.657612 0.461732 0
0.679289 0.429289 0
0.711732 0.407612 0
0.75 0.4 0
0.788268 0.407612 0
0.820711 0.429289 0
0.842388 0.461732 0
0.0793651 0 0
0.15873 0 0
0.238095 0 0
0.31746 0 0
0.396825 0 0
0.47619 0 0
0.555556 0 0
0.634921 0 0
0.714286 0 0
0.793651 0 0
0.873016 0 0
0.952381 0 0
1.03175 0 0
1.11111 0 0
1.19048 0 0
1.26984 0 0
1.34921 0 0
1.42857 0 0
1.50794 0 0
1.5873 0 0
1.66667 0 0
1.74603 0 0
1.8254 0 0
1.90476 0 0
1.98413 0 0
2.06349 0 0
2.14286 0 0
2.22222 0 0
2.30159 0 0
2.38095 0 0
2.46032 0 0
2.53968 0 0
2.61905 0 0
2.69841 0 0
2.77778 0 0
2.85714 0 0
2.93651 0 0
3.01587 0 0
3.09524 0 0
3.1746 0 0
3.25397 0 0
3.33333 0 0
3.4127 0 0
3.49206 0 0
3.57143 0 0
3.65079 0 0
3.73016 0 0
3.80952 0 0
3.88889 0 0
3.96825 0 0
4.04762 0 0
4.12698 0 0
4.20635 0 0
4.28571 0 0
4.36508 0 0
4.44444 0 0
4.52381 0 0
4.60317 0 0
4.68254 0 0
4.7619 0 0
4.84127 0 0
4.92063 0 0
5 0.0769231 0
5 0.153846 0
5 0.230769 0
5 0.307692 0
5 0.384615 0
5 0.461538 0
5 0.538462 0
5 0.615385 0
5 0.692308 0
5 0.769231 0
5 0.846154 0
5 0.923077 0
4.92063 1 0
4.84127 1 0
4.7619 1 0
4.68254 1 0
4.60317 1 0
4.52381 1 0
4.44444 1 0
4.36508 1 0
4.28571 1 0
4.20635 1 0
4.12698 1 0
4.04762 1 0
3.96825 1 0
3.88889 1 0
3.80952 1 0
3.73016 1 0
3.65079 1 0
3.57143 1 0
3.49206 1 0
3.4127 1 0
3.33333 1 0
3.25397 1 0
3.1746 1 0
3.09524 1 0
3.01587 1 0
2.93651 1 0
2.85714 1 0
2.77778 1 0
2.69841 1 0
2.61905 1 0
2.53968 1 0
2.46032 1 0
2.38095 1 0
2.30159 1 0
2.22222 1 0
2.14286 1 0
2.06349 1 0
1.98413 1 0
1.90476 1 0
1.8254 1 0
1.74603 1 0
1.66667 1 0
1.5873 1 0
1.50794 1 0
1.42857 1 0
1.34921 1 0
1.26984 1 0
1.19048 1 0
1.11111 1 0
1.03175 1 0
0.952381 1 0
0.873016 1 0
0.793651 1 0
0.714286 1 0
0.634921 1 0
0.555556 1 0
0.47619 1 0
0.396825 1 0
0.31746 1 0
0.238095 1 0
0.15873 1 0
0.0793651 1 0
0 0.923077 0
0 0.846154 0
0 0.769231 0
0 0.692308 0
0 0.615385 0
0 0.538462 0
0 0.461538 0
0 0.384615 0
0 0.307692 0
0 0.230769 0
0 0.153846 0
0 0.0769231 0
0.879698 0.466718 0
1.3085 0.931947 0
1.30532 0.0638546 0
4.93832 0.504275 0
0.620452 0.46964 0
3.99858 0.0669607 0
1.63721 0.934258 0
3.3751 0.0523709 0
4.3254 0.0687322 0
2.42354 0.0642082 0
2.97619 0.0687322 0
2.02101 0.0693621 0
3.68108 0.0581336 0
2.65899 0.932655 0
4.178 0.939994 0
3.21614 0.938179 0
2.25483 0.919987 0
3.53215 0.928998 0
3.84921 0.931268 0
1.69647 0.0674297 0
1.94349 0.930209 0
4.48413 0.931268 0
2.97813 0.942022 0
2.74097 0.0673855 0
0.859645 0.573263 0
0.639718 0.573116 0
0.0651563 0.652836 0
0.0635304 0.346121 0
4.56232 0.0679683 0
0.830393 0.392645 0
0.669618 0.39275 0
1.06185 0.0668897 0
0.440193 0.0680031 0
1.06474 0.93511 0
0.446074 0.935974 0
0.724697 0.630698 0
4.72268 0.931235 0
4.93065 0.267192 0
0.589836 0.936152 0
0.92338 0.0562425 0
0.590207 0.0623339 0
0.755872 0.0732784 0
0.838039 0.936714 0
4.92573 0.732039 0
0.281717 0.93783 0
0.28208 0.0811877 0
0.065248 0.503161 0
1.46076 0.0637037 0
4.72574 0.0661877 0
4.31028 0.937908 0
3.21429 0.0687322 0
1.46639 0.932632 0
3.6897 0.928155 0
2.42063 0.931268 0
3.5364 0.0691789 0
2.25998 0.0676208 0
1.78735 0.937047 0
4.01535 0.920637 0
1.85469 0.0674188 0
3.83991 0.0626292 0
3.37477 0.929368 0
2.58225 0.0657863 0
2.81746 0.932342 0
4.16667 0.0687322 0
2.11402 0.935574 0
0.0614266 0.197046 0
0.0612841 0.803003 0
4.88273 0.0644126 0
4.87774 0.933272 0
0.859645 0.426737 0
0.903081 0.436592 0
0.923672 0.473385 0
0.948706 0.439078 0
0.969155 0.479795 0
0.996593 0.439791 0
1.0202 0.484937 0
1.04667 0.440138 0
1.07382 0.489694 0
1.1034 0.440801 0
1.13169 0.49612 0
1.16603 0.445058 0
1.1931 0.504331 0
1.22956 0.450883 0
1.25923 0.506004 0
1.29683 0.453139 0
1.32923 0.510343 0
1.36603 0.454344 0
1.03276 0.530395 0
1.40063 0.516169 0
1.43576 0.454934 0
1.47042 0.520776 0
1.51069 0.46142 0
1.54422 0.526371 0
1.58547 0.465572 0
1.61942 0.531773 0
1.66033 0.468788 0
1.69546 0.536793 0
1.73713 0.472812 0
1.77239 0.541977 0
1.81532 0.478494 0
1.85006 0.547285 0
1.89327 0.483449 0
1.92802 0.55361 0
1.97142 0.488546 0
2.00623 0.558966 0
2.04984 0.493518 0
2.08483 0.564085 0
2.12847 0.498462 0
2.16353 0.569137 0
2.20719 0.503331 0
0.961579 0.391697 0
1.22451 0.565337 0
2.24238 0.574192 0
2.28611 0.508258 0
2.32134 0.579247 0
2.36519 0.513325 0
2.40036 0.584295 0
2.44425 0.51834 0
2.47944 0.589336 0
2.52334 0.523355 0
2.55853 0.594372 0
2.60245 0.52837 0
2.63764 0.599431 0
2.68159 0.533388 0
2.64637 0.462336 0
2.72553 0.467349 0
2.76076 0.538418 0
2.8047 0.47237 0
2.83993 0.543451 0
2.88387 0.477399 0
2.91911 0.548482 0
2.96305 0.482427 0
2.9983 0.553514 0
3.04224 0.487456 0
3.07749 0.558545 0
3.12143 0.492477 0
3.15668 0.563574 0
3.20063 0.497514 0
3.23588 0.568605 0
3.27983 0.502542 0
3.31508 0.573635 0
3.35903 0.507562 0
3.39428 0.578663 0
3.43823 0.5126 0
3.47348 0.583694 0
3.51744 0.517628 0
3.55268 0.588724 0
3.59664 0.522646 0
3.63189 0.593752 0
3.67585 0.527673 0
3.71109 0.598781 0
3.75505 0.532702 0
3.7903 0.60381 0
3.83426 0.537731 0
3.79901 0.466623 0
3.87821 0.471754 0
3.91346 0.542777 0
3.95742 0.476701 0
3.99267 0.547795 0
4.03662 0.481715 0
4.07187 0.552815 0
4.11582 0.486743 0
4.15106 0.55783 0
4.195 0.491782 0
4.23023 0.562843 0
4.27415 0.49682 0
4.30937 0.567866 0
4.35325 0.501915 0
4.38842 0.572845 0
4.43227 0.506997 0
4.46737 0.577575 0
4.51106 0.511995 0
4.54622 0.582183 0
1.13571 0.390292 0
4.47606 0.441361 0
4.55475 0.446396 0
2.32985 0.442214 0
3.5614 0.451571 0
3.08619 0.421408 0
2.09339 0.427815 0
1.42887 0.583001 0
2.84864 0.406329 0
3.32378 0.43649 0
4.23911 0.425894 0
1.54723 0.39251 0
1.77883 0.406811 0
1.33959 0.387065 0
3.92239 0.405803 0
4.08079 0.415776 0
2.48812 0.452349 0
1.57935 0.603183 0
1.93602 0.417543 0
1.72453 0.617973 0
3.11273 0.629643 0
2.69029 0.396284 0
3.94662 0.623383 0
1.88466 0.613248 0
2.79598 0.609502 0
4.10826 0.620575 0
2.04005 0.62838 0
2.95434 0.619575 0
4.51981 0.375801 0
4.59833 0.380943 0
4.63314 0.451296 0
4.26693 0.63114 0
2.19619 0.645921 0
4.4246 0.642296 0
3.27112 0.639707 0
2.35729 0.649822 0
2.51462 0.660373 0
3.42952 0.649769 0
4.67669 0.38601 0
3.58793 0.659829 0
3.74634 0.669888 0
4.64195 0.315733 0
4.44109 0.370647 0
4.48493 0.305066 0
4.40614 0.29989 0
4.71136 0.456133 0
4.72014 0.320758 0
0.8692 0.382093 0
0.841252 0.348256 0
0.886481 0.338703 0
0.853127 0.301457 0
0.902583 0.287335 0
0.801683 0.321689 0
0.818113 0.263019 0
0.764765 0.277091 0
4.44702 0.235678 0
0.946267 0.520761 0
0.78107 0.221265 0
0.726309 0.234724 0
0.848273 0.20551 0
4.68545 0.250576 0
4.37074 0.227561 0
4.76365 0.255792 0
4.79822 0.326145 0
0.713664 0.287231 0
0.672358 0.247957 0
0.68673 0.192342 0
0.630368 0.2085 0
0.616569 0.265341 0
0.574186 0.225456 0
0.557393 0.28131 0
0.52004 0.242373 0
0.504416 0.299685 0
0.462273 0.252096 0
0.44798 0.316739 0
0.404567 0.276951 0
0.390546 0.335414 0
0.434669 0.37657 0
0.377935 0.394545 0
0.421979 0.43426 0
0.365682 0.452846 0
0.409646 0.492216 0
0.353389 0.51089 0
0.397738 0.551598 0
0.339864 0.570301 0
0.385899 0.612153 0
0.325913 0.631557 0
0.344507 0.29318 0
0.320568 0.413067 0
0.373553 0.673852 0
0.434438 0.653082 0
0.311416 0.69481 0
0.449777 0.528305 0
0.293513 0.534612 0
0.421431 0.715204 0
0.480917 0.696603 0
0.54504 0.34471 0
0.262743 0.649913 0
0.246209 0.712341 0
0.468564 0.755948 0
0.526091 0.735423 0
0.538207 0.68039 0
0.581228 0.716342 0
0.408756 0.777952 0
0.36234 0.239019 0
0.297047 0.251925 0
0.572109 0.771575 0
0.624906 0.752173 0
0.474824 0.414151 0
0.534351 0.182707 0
0.633682 0.70159 0
0.674547 0.736174 0
0.66826 0.788959 0
0.721117 0.76834 0
0.714515 0.825486 0
0.769074 0.802008 0
0.775287 0.746591 0
0.821903 0.778625 0
0.826767 0.726064 0
0.873257 0.756032 0
0.872997 0.697261 0
0.92331 0.732304 0
0.930014 0.67838 0
0.976061 0.710612 0
0.92456 0.784469 0
0.982178 0.654421 0
1.03016 0.688004 0
1.02037 0.747059 0
1.08 0.723819 0
1.08651 0.661896 0
1.1397 0.698204 0
1.13262 0.763657 0
1.19424 0.736545 0
1.18556 0.80161 0
1.24839 0.771772 0
1.25723 0.706382 0
1.31432 0.745787 0
4.66801 0.521361 0
4.74602 0.526202 0
4.70285 0.591278 0
4.78076 0.596023 0
4.73763 0.661207 0
4.78904 0.460969 0
2.61113 0.391267 0
2.65506 0.325217 0
2.57588 0.320198 0
2.61982 0.254148 0
2.69899 0.259163 0
2.54065 0.249131 0
2.49672 0.315179 0
2.46148 0.244124 0
2.41757 0.310166 0
2.38233 0.239117 0
2.33843 0.30514 0
2.30297 0.237979 0
2.25928 0.300748 0
2.22079 0.221377 0
2.17969 0.293884 0
2.14114 0.224266 0
2.10047 0.289841 0
2.0653 0.219144 0
2.02202 0.284919 0
1.98701 0.214164 0
1.94336 0.279863 0
3.82315 0.673327 0
3.78135 0.738156 0
3.86451 0.735958 0
3.70234 0.735494 0
4.52513 0.244409 0
4.32717 0.294467 0
4.29217 0.221862 0
0.619934 0.539507 0
0.599432 0.577132 0
0.575955 0.542712 0
0.554504 0.58245 0
4.65962 0.656481 0
4.69438 0.726169 0
4.6161 0.721747 0
4.77259 0.731352 0
4.65076 0.791486 0
4.57153 0.788793 0
4.2482 0.289182 0
4.21307 0.218308 0
4.1691 0.284563 0
4.13394 0.21352 0
0.835918 0.606341 0
0.806475 0.6384 0
4.08995 0.279537 0
0.640355 0.426737 0
0.596214 0.435837 0
0.630358 0.379178 0
0.689967 0.627735 0
1.90832 0.209948 0
1.86468 0.27519 0
1.82968 0.20518 0
1.78607 0.269797 0
0.281841 0.313314 0
0.232117 0.268621 0
0.216861 0.334396 0
4.05473 0.209347 0
4.01077 0.2745 0
3.97554 0.204394 0
3.93159 0.269388 0
0.297409 0.759367 0
0.231645 0.782943 0
0.180008 0.73598 0
1.32151 0.676369 0
1.38055 0.718092 0
1.36901 0.793947 0
1.43945 0.766002 0
0.249902 0.198865 0
0.932364 0.624392 0
1.75117 0.201034 0
1.70771 0.264658 0
1.673 0.195402 0
1.62985 0.260294 0
1.59532 0.191927 0
1.55236 0.254233 0
3.89629 0.200227 0
3.85238 0.264494 0
3.81708 0.195303 0
3.77304 0.259453 0
2.66368 0.189084 0
2.74279 0.19534 0
2.77814 0.264556 0
2.82201 0.199823 0
2.85733 0.269552 0
2.90126 0.203886 0
2.93654 0.274416 0
2.98045 0.20868 0
3.01573 0.279376 0
3.0597 0.213193 0
[...]
CELL_DATA 2220
VECTORS velocity double
11.4146 -0.883319 0.0
8.74361 0.374523 0.0
16.4254 4.66525 0.0
16.3515 1.04787 0.0
11.6652 -1.08728 0.0
13.1356 -0.608324 0.0
7.53126 0.363791 0.0
8.26321 0.00689584 0.0
16.2093 8.94668 0.0
12.9225 -0.393346 0.0
11.0736 15.8361 0.0
7.85021 0.25576 0.0
6.41511 0.185535 0.0
14.5564 -4.59435 0.0
14.8113 14.7917 0.0
8.76077 9.44055 0.0
8.5801 0.3415 0.0
7.05516 0.394082 0.0
7.8216 -0.0975645 0.0
8.31802 -0.0743026 0.0
14.1399 3.48989 0.0
27.8155 -6.06667 0.0
8.03839 0.40877 0.0
8.13741 0.436211 0.0
11.9568 -0.734353 0.0
13.3579 -3.65473 0.0
14.799 -1.74699 0.0
7.12372 0.432433 0.0
16.2412 1.08831 0.0
18.2727 1.005 0.0
8.99281 -2.47928 0.0
21.2912 0.235415 0.0
6.03632 -0.0918694 0.0
20.7502 -11.8854 0.0
30.6303 1.65183 0.0
13.2518 -0.681373 0.0
30.559 2.47351 0.0
6.86153 -0.086316 0.0
18.7774 1.2463 0.0
18.6772 -1.42158 0.0
9.2632 -0.921722 0.0
16.2097 7.85298 0.0
13.8696 0.886859 0.0
7.66745 0.0276986 0.0
6.97776 0.0546501 0.0
6.38245 0.0333119 0.0
7.90813 0.434206 0.0
6.4448 0.0100101 0.0
12.8706 -0.33459 0.0
13.535 0.134521 0.0
11.2971 2.68271 0.0
6.32215 0.0901552 0.0
7.74106 0.464438 0.0
7.76081 0.10228 0.0
7.30742 0.326401 0.0
18.6414 -1.88585 0.0
22.69 -0.224425 0.0
6.70154 0.407397 0.0
6.93379 0.410434 0.0
13.7109 0.0720241 0.0
0.563967 -1.92281 0.0
12.6097 -1.08709 0.0
10.1845 -3.22416 0.0
7.90693 0.478643 0.0
7.84118 0.440604 0.0
22.1352 -10.2761 0.0
13.351 -1.02409 0.0
10.3933 8.54139 0.0
6.81384 0.432128 0.0
6.89776 0.454209 0.0
7.69823 0.152024 0.0
21.9245 10.8074 0.0
6.20748 0.146378 0.0
13.4002 0.394626 0.0
25.2996 -1.58798 0.0
29.4195 -0.337319 0.0
11.7285 2.97539 0.0
10.2528 -2.10461 0.0
13.8548 7.70563 0.0
7.47513 0.114363 0.0
15.5946 2.15997 0.0
19.1313 2.15511 0.0
10.4092 -0.227912 0.0
6.29713 0.107602 0.0
7.68946 0.365126 0.0
7.65976 0.209183 0.0
10.7984 -1.12495 0.0
6.54206 0.187615 0.0
6.63885 0.302342 0.0
17.1981 9.41251 0.0
23.1695 -3.9238 0.0
11.0866 2.99048 0.0
7.82395 -0.119587 0.0
13.8388 3.85048 0.0
28.5493 0.0878179 0.0
18.6789 1.5701 0.0
29.1817 4.84163 0.0
0.53295 -17.5254 0.0
1.28203 -1.62722 0.0
18.8732 12.4392 0.0
-7.44888 -17.8862 0.0
11.9852 -2.69321 0.0
7.81091 0.426654 0.0
6.958 0.633568 0.0
28.1962 -5.54336 0.0
29.8931 -1.00062 0.0
13.2019 -0.520803 0.0
13.6283 -0.75532 0.0
2.57708 -0.0423733 0.0
8.05905 0.666428 0.0
20.134 0.895908 0.0
16.8715 -6.17075 0.0
13.1066 -0.410534 0.0
7.84307 -0.532216 0.0
13.4813 -1.43526 0.0
6.78249 0.387242 0.0
13.3299 -3.4712 0.0
12.7461 -0.399722 0.0
0.881023 -20.6261 0.0
18.4455 8.64569 0.0
9.59898 -1.60063 0.0
22.7991 -0.552659 0.0
9.0271 2.23845 0.0
25.2507 -8.61158 0.0
30.2397 0.810613 0.0
4.61145 -10.3803 0.0
30.1858 -1.59139 0.0
16.0526 0.942949 0.0
15.2048 -5.52672 0.0
-6.27963 8.46686 0.0
7.13604 0.304406 0.0
26.9378 4.63882 0.0
23.9742 6.05481 0.0
8.29742 1.44165 0.0
18.6201 1.31125 0.0
7.5031 1.66436 0.0
5.93279 0.00890831 0.0
12.4439 -2.62909 0.0
6.98116 -11.2125 0.0
21.8234 0.557098 0.0
13.5274 -3.39118 0.0
7.54821 -0.0129098 0.0
13.3635 -1.87902 0.0
29.6987 0.436036 0.0
13.2037 0.369677 0.0
12.9156 3.36958 0.0
-11.7911 8.65594 0.0
3.96423 -18.285 0.0
13.9693 1.2766 0.0
13.6203 -1.04646 0.0
6.88346 -0.0706979 0.0
18.3641 7.55259 0.0
23.1181 -0.00300841 0.0
22.9694 -10.7619 0.0
5.41032 1.64612 0.0
8.51857 0.167599 0.0
15.2548 -1.25706 0.0
8.75321 0.284377 0.0
8.33138 -0.754244 0.0
10.0981 -2.39772 0.0
24.9907 8.55385 0.0
6.90357 0.0394714 0.0
-11.998 -8.92976 0.0
21.3966 0.000779862 0.0
6.20126 0.0835464 0.0
21.819 -11.6431 0.0
13.3511 -13.12 0.0
30.3759 0.400538 0.0
8.44827 0.114108 0.0
20.9198 11.1719 0.0
-6.925 14.6328 0.0
6.22007 0.0628395 0.0
7.71371 0.0713562 0.0
-6.67604 -8.82937 0.0
-0.155371 -4.58493 0.0
13.3501 6.78982 0.0
10.6394 3.06877 0.0
11.6339 6.37466 0.0
5.74995 -1.18793 0.0
8.4003 0.0659059 0.0
22.4898 -0.232023 0.0
10.975 -2.60138 0.0
15.7109 -16.0868 0.0
-1.18579 13.7758 0.0
8.44138 0.0137605 0.0
11.1897 -1.25155 0.0
30.5166 0.125299 0.0
6.94642 -0.0493532 0.0
29.8931 3.76773 0.0
30.3215 0.24139 0.0
9.7842 -0.905035 0.0
6.74862 -0.146528 0.0
16.7126 -6.86346 0.0
13.9569 1.03099 0.0
14.9995 -0.457936 0.0
30.4772 -0.28107 0.0
10.5718 0.347642 0.0
7.76155 -0.0817071 0.0
4.64844 -0.280277 0.0
7.97093 -0.151071 0.0
7.03084 -0.526554 0.0
10.0222 -0.105882 0.0
24.4368 -9.55126 0.0
7.92752 0.0486829 0.0
9.44391 1.08923 0.0
11.1601 -1.9536 0.0
14.8035 -3.11897 0.0
7.43767 0.07114 0.0
10.7756 0.222266 0.0
4.99505 -0.784546 0.0
7.74402 0.421522 0.0
8.14776 18.4843 0.0
10.2487 -0.113941 0.0
13.0746 8.61871 0.0
12.491 3.71381 0.0
8.69553 0.370756 0.0
6.67835 0.387667 0.0
7.82403 0.490843 0.0
6.65488 1.3598 0.0
25.5714 0.935311 0.0
13.062 0.203736 0.0
4.0832 -0.0659622 0.0
6.72341 0.45552 0.0
3.89839 -0.00572277 0.0
7.88414 0.0323769 0.0
9.28894 -0.155263 0.0
8.49615 -1.48611 0.0
14.5242 15.5527 0.0
17.4769 -4.27721 0.0
8.01557 0.355348 0.0
9.73994 0.238831 0.0
10.2716 -0.690119 0.0
5.69296 -0.0077803 0.0
8.09652 0.00157608 0.0
8.25119 -0.25159 0.0
28.8963 0.131454 0.0
-0.910692 -6.5097 0.0
7.77603 -0.144681 0.0
7.72287 -0.167455 0.0
7.05561 -0.00294215 0.0
28.861 -0.163753 0.0
25.5642 8.89678 0.0
28.9126 -3.65426 0.0
4.37082 0.0185348 0.0
8.34648 1.43488 0.0
13.193 -0.0578248 0.0
8.43253 0.00623029 0.0
21.0681 -0.626088 0.0
4.48353 1.98371 0.0
14.1536 0.619609 0.0
7.53029 -1.41521 0.0
4.37289 -0.0337115 0.0
11.5795 -12.5805 0.0
12.9598 -0.0785024 0.0
11.894 -4.84671 0.0
7.6759 0.27079 0.0
-12.4832 1.56484 0.0
13.0363 0.0388493 0.0
14.9078 0.0410409 0.0
28.4003 0.182454 0.0
8.60512 -0.212921 0.0
23.4543 -0.344494 0.0
7.991 0.515197 0.0
12.0733 -3.14058 0.0
4.29595 -0.291234 0.0
6.11283 -0.0544367 0.0
7.51643 -0.138487 0.0
2.77816 -4.14097 0.0
12.1552 3.30958 0.0
13.2709 -0.0911099 0.0
12.5924 0.472321 0.0
13.1666 0.0285859 0.0
6.58049 0.228112 0.0
13.1812 -0.893898 0.0
-1.9536 -10.8377 0.0
29.327 -2.33127 0.0
17.5429 -14.497 0.0
5.95506 -2.06278 0.0
8.73471 1.94125 0.0
9.92798 0.0649541 0.0
3.98195 -14.0183 0.0
17.2818 -0.120616 0.0
28.3992 -0.475705 0.0
10.2257 0.333285 0.0
13.0401 -0.787502 0.0
9.54128 -0.0664462 0.0
23.2978 -0.336798 0.0
9.88983 0.365241 0.0
6.79381 -0.121883 0.0
6.59065 -0.145056 0.0
-12.4667 -2.01685 0.0
7.71003 -0.593413 0.0
5.42872 1.10273 0.0
8.23651 -0.745378 0.0
8.89931 -0.8417 0.0
9.61367 -0.129277 0.0
9.71487 -0.111134 0.0
14.9967 0.289839 0.0
28.3481 -3.39911 0.0
13.1158 3.40199 0.0
6.39102 -0.146545 0.0
13.9181 5.97019 0.0
15.9135 -5.11931 0.0
5.77625 0.0540782 0.0
10.1269 -10.615 0.0
8.37265 0.268919 0.0
6.47393 0.00457706 0.0
6.66508 -0.154646 0.0
11.735 0.252336 0.0
4.78117 0.809837 0.0
8.17495 1.42825 0.0
4.17427 0.333243 0.0
0.620042 17.6291 0.0
28.6922 -1.26842 0.0
22.2074 11.1304 0.0
7.61306 -0.157051 0.0
11.5739 5.16804 0.0
8.34981 0.0649292 0.0
28.6933 -0.195196 0.0
13.6324 3.73733 0.0
17.6047 14.4862 0.0
9.20011 2.21993 0.0
12.898 0.064384 0.0
8.54772 0.0449574 0.0
4.47963 0.683679 0.0
7.16566 -1.28677 0.0
13.1842 0.0856447 0.0
12.8931 0.520671 0.0
13.2273 0.200406 0.0
6.45989 -1.30776 0.0
10.8119 -9.26665 0.0
29.7227 0.946201 0.0
7.34416 -3.14511 0.0
7.96827 -0.445989 0.0
21.13 -9.20989 0.0
28.5752 -0.361378 0.0
16.7838 -0.81004 0.0
14.768 5.85123 0.0
22.8845 -0.865884 0.0
7.67942 -0.170265 0.0
5.30894 0.667106 0.0
6.96143 -0.177198 0.0
4.79513 -0.0743302 0.0
4.18284 -0.599089 0.0
15.1258 15.9721 0.0
15.3742 7.34331 0.0
5.90156 0.860269 0.0
14.2822 4.46192 0.0
13.879 2.25939 0.0
3.46726 -0.642344 0.0
23.4883 -7.07524 0.0
3.12848 0.576287 0.0
4.7968 0.128958 0.0
5.96134 9.06033 0.0
4.26017 0.501543 0.0
29.1906 0.0148756 0.0
23.9396 -8.26772 0.0
2.46569 -0.188907 0.0
12.7347 0.333765 0.0
20.5879 -0.936043 0.0
13.8266 2.32484 0.0
3.46453 18.251 0.0
14.4339 4.49953 0.0
13.9742 3.25204 0.0
4.43085 0.251016 0.0
13.8352 0.287145 0.0
28.3345 6.27025 0.0
3.06165 -0.568168 0.0
4.6765 -0.201223 0.0
23.6286 -0.707232 0.0
3.14236 0.595388 0.0
28.8477 -4.60849 0.0
23.7228 8.78373 0.0
8.58625 -0.326765 0.0
3.7479 -0.0466315 0.0
9.7154 0.35499 0.0
10.3694 0.272473 0.0
10.3506 0.10855 0.0
28.5508 0.018053 0.0
9.76061 -0.0939695 0.0
9.20076 0.463271 0.0
28.2494 0.111063 0.0
29.2004 -0.0872945 0.0
13.1171 0.096915 0.0
27.1517 0.46868 0.0
12.7968 -0.0534175 0.0
27.6859 -4.68777 0.0
12.8872 0.0507015 0.0
14.5049 -4.37133 0.0
13.7038 1.6412 0.0
7.74458 0.576276 0.0
12.72 0.0411372 0.0
19.9188 -0.532723 0.0
10.6477 -4.53403 0.0
7.06428 -0.645024 0.0
7.89659 -1.10795 0.0
28.0714 0.193548 0.0
6.79223 0.497657 0.0
12.907 0.0634879 0.0
27.5897 0.420964 0.0
5.69296 0.196205 0.0
17.5436 3.15526 0.0
13.7853 2.7323 0.0
13.0057 0.0233261 0.0
27.6675 6.91423 0.0
29.4331 4.06687 0.0
4.39512 0.883302 0.0
4.48081 0.621822 0.0
15.2486 0.871998 0.0
17.9821 -10.5026 0.0
7.21513 -12.8595 0.0
4.00906 0.646172 0.0
27.1866 0.0786046 0.0
12.4876 -4.01122 0.0
27.6262 -0.386382 0.0
12.9994 0.0157225 0.0
3.3642 -0.117182 0.0
2.73478 0.468853 0.0
16.6779 6.92154 0.0
4.61546 0.127599 0.0
13.8797 4.47537 0.0
26.5087 0.626569 0.0
3.39636 0.00256775 0.0
4.63573 -0.0554631 0.0
13.5858 1.96345 0.0
12.3397 0.174918 0.0
3.28164 0.127241 0.0
11.6758 -0.0937782 0.0
12.9484 0.0879617 0.0
4.68607 -0.585274 0.0
13.0322 0.0462663 0.0
13.0183 1.90994 0.0
27.5221 -0.627665 0.0
13.4902 1.18723 0.0
5.51232 -0.458414 0.0
29.1103 5.24612 0.0
3.9044 -0.661665 0.0
5.40472 0.335394 0.0
9.18347 -8.14662 0.0
4.85681 0.349777 0.0
13.3333 2.60875 0.0
13.4201 1.4231 0.0
27.4091 4.01637 0.0
29.52 2.7897 0.0
8.49926 -0.794207 0.0
12.9565 2.64961 0.0
27.5149 0.399894 0.0
2.57614 -0.26251 0.0
2.36535 0.281231 0.0
7.30465 -0.231939 0.0
8.38069 0.73092 0.0
13.0155 -0.302747 0.0
5.79152 -0.30675 0.0
16.5766 0.548408 0.0
13.4757 0.655174 0.0
4.13793 0.424246 0.0
9.44994 0.525369 0.0
14.0883 3.75271 0.0
5.57384 0.279185 0.0
13.1609 0.815279 0.0
12.7424 1.40861 0.0
12.5682 0.153239 0.0
4.88578 -0.373095 0.0
3.7894 0.264408 0.0
5.87371 0.455788 0.0
10.3559 -0.00307754 0.0
6.14379 -0.25932 0.0
13.0842 0.0714156 0.0
3.31691 0.0706105 0.0
28.6481 1.98181 0.0
4.43436 -0.175753 0.0
2.39983 0.339828 0.0
11.5457 -1.06034 0.0
14.6113 5.01224 0.0
4.4465 -0.437118 0.0
12.5567 0.1272 0.0
13.0837 1.0294 0.0
16.3993 3.34055 0.0
13.0214 0.107472 0.0
12.4467 1.05629 0.0
9.0467 -1.17931 0.0
22.207 -7.60266 0.0
13.7076 -1.956 0.0
12.1577 0.78315 0.0
5.37856 -0.501652 0.0
5.73435 0.524179 0.0
27.4207 -0.0806963 0.0
2.17506 0.200671 0.0
22.9267 -0.63666 0.0
9.71716 1.11133 0.0
13.0993 0.108403 0.0
2.25743 0.235998 0.0
2.68377 -0.347503 0.0
12.7968 0.714685 0.0
15.2894 6.40602 0.0
10.5924 -0.107557 0.0
20.2979 -0.735455 0.0
12.3516 0.0620622 0.0
18.4169 -0.702441 0.0
8.14381 -1.2058 0.0
12.1574 -0.0703822 0.0
12.4283 1.59422 0.0
2.37418 -0.118871 0.0
11.9466 0.564088 0.0
10.4819 0.727154 0.0
6.99219 -0.204175 0.0
12.9666 0.112016 0.0
3.53256 -0.298371 0.0
3.90353 0.303426 0.0
12.7411 2.15596 0.0
12.3781 -0.0875084 0.0
12.1595 -0.392094 0.0
7.97677 -0.0976309 0.0
12.3455 0.169435 0.0
13.1546 0.0873949 0.0
12.1566 -2.95902 0.0
3.12223 0.285022 0.0
12.6313 0.220721 0.0
13.7181 -2.32227 0.0
11.8522 0.912665 0.0
11.4917 0.510122 0.0
5.67514 -0.47942 0.0
20.5693 -10.6848 0.0
4.55389 -1.24045 0.0
16.4671 -12.147 0.0
12.6471 -0.462236 0.0
13.777 2.62126 0.0
12.6132 0.23262 0.0
3.2257 -0.260514 0.0
11.8236 0.405049 0.0
11.7169 0.277457 0.0
11.6064 0.692591 0.0
13.3243 0.0571044 0.0
12.1423 1.19673 0.0
12.4613 0.316205 0.0
17.7669 -0.583511 0.0
17.3585 -2.68443 0.0
6.17285 -0.757574 0.0
27.0192 -0.620843 0.0
6.49349 -0.0863166 0.0
11.2512 -0.64652 0.0
5.71547 -1.49932 0.0
25.4167 7.20477 0.0
13.2326 0.0644837 0.0
2.52114 -0.221484 0.0
2.58856 0.229755 0.0
12.3718 0.224067 0.0
26.3235 0.684961 0.0
11.7538 0.306461 0.0
9.39125 0.622971 0.0
2.66168 -0.0672233 0.0
4.22487 -0.105521 0.0
3.61243 0.127765 0.0
2.50909 0.478557 0.0
4.69854 -0.831431 0.0
13.5025 -3.40363 0.0
13.352 0.0496369 0.0
27.7593 5.36023 0.0
1.08778 0.28753 0.0
11.0033 -0.0310082 0.0
11.4878 -0.0350477 0.0
10.9967 -0.375419 0.0
10.5325 0.962364 0.0
1.17167 -0.298805 0.0
2.6431 -0.460377 0.0
10.4957 0.251725 0.0
14.8307 0.71776 0.0
11.4649 0.513354 0.0
9.53357 -0.424023 0.0
12.3921 -0.0297139 0.0
29.6999 -0.27479 0.0
12.6555 -0.0292603 0.0
11.3861 0.703687 0.0
13.1525 0.0468254 0.0
3.27371 -0.22129 0.0
13.5693 5.15189 0.0
13.087 0.105717 0.0
12.5786 0.1328 0.0
13.0368 0.0401806 0.0
11.8768 -0.243252 0.0
3.15966 0.151338 0.0
13.0344 0.0626393 0.0
3.50545 -0.140493 0.0
7.11753 0.755449 0.0
9.99712 0.0286497 0.0
11.7238 0.259852 0.0
11.3764 0.380964 0.0
12.8771 0.158719 0.0
13.0323 0.16571 0.0
12.9187 0.197985 0.0
2.09983 0.152842 0.0
3.86951 0.269033 0.0
3.63367 -0.0804542 0.0
13.0441 0.144021 0.0
12.3514 0.162194 0.0
28.6508 0.417741 0.0
3.43044 0.168343 0.0
12.4151 0.0156241 0.0
12.3775 0.372642 0.0
7.26626 1.40899 0.0
12.4892 -0.0102047 0.0
1.78209 0.102973 0.0
12.179 -0.0384001 0.0
11.8863 -0.0781476 0.0
12.4066 -0.19324 0.0
10.1247 -0.152851 0.0
9.52335 -0.150107 0.0
12.0411 -0.0668125 0.0
4.98888 -0.532784 0.0
29.6276 -1.14279 0.0
12.9875 0.0871482 0.0
12.7411 -0.10577 0.0
12.6335 0.152335 0.0
11.7461 0.241378 0.0
7.64954 0.018751 0.0
12.3918 0.173548 0.0
13.6032 -1.37376 0.0
13.1065 0.018022 0.0
4.13721 0.132267 0.0
11.8723 0.53017 0.0
1.89283 -0.0987322 0.0
13.0991 0.163011 0.0
13.0534 0.199373 0.0
11.7991 0.242775 0.0
1.55998 0.178667 0.0
19.8341 -9.25592 0.0
13.1994 0.0387931 0.0
12.988 0.198098 0.0
12.329 -0.0364775 0.0
12.749 -0.0268197 0.0
12.7264 0.166307 0.0
13.005 0.161499 0.0
13.0992 0.110866 0.0
13.2127 0.0847889 0.0
11.9068 0.257099 0.0
2.05804 0.0632533 0.0
6.33555 0.19359 0.0
12.9531 -0.0138269 0.0
10.1024 7.03813 0.0
1.6528 -0.180298 0.0
3.73838 -0.0584133 0.0
14.8615 -10.3082 0.0
12.4215 0.365713 0.0
12.4775 0.193206 0.0
6.57012 -0.0963063 0.0
12.545 -0.0853285 0.0
12.6954 -0.0617821 0.0
9.99367 1.03479 0.0
3.73201 0.123329 0.0
2.00245 -0.0542908 0.0
13.6742 -1.63804 0.0
11.4368 0.623627 0.0
12.3288 -0.255481 0.0
13.0915 0.175597 0.0
8.1097 -1.22261 0.0
12.5933 0.193782 0.0
11.3291 0.318375 0.0
12.9902 -0.0268862 0.0
1.921 0.0705258 0.0
12.8328 0.152077 0.0
13.0458 -0.00449401 0.0
2.12872 -0.0335576 0.0
12.0613 0.250497 0.0
13.153 0.0843157 0.0
13.0849 0.24249 0.0
12.9345 0.0401678 0.0
12.6604 -0.0932157 0.0
13.1371 0.0162114 0.0
12.0596 -0.283676 0.0
12.8499 -0.0747758 0.0
12.9197 0.0999923 0.0
12.7727 0.00946049 0.0
12.5164 -0.112579 0.0
2.07345 -0.034087 0.0
12.9379 0.0559106 0.0
12.5013 -0.131579 0.0
2.65237 0.0818085 0.0
13.071 -0.00641311 0.0
4.11755 0.142554 0.0
12.7145 0.144837 0.0
12.6431 -0.116144 0.0
13.0847 0.228589 0.0
13.0044 -0.0626879 0.0
12.8994 0.000701854 0.0
13.0351 0.205403 0.0
7.51284 0.167825 0.0
12.3434 0.0647529 0.0
11.9116 0.232503 0.0
12.2136 0.172792 0.0
1.91247 -0.0113301 0.0
12.916 0.175303 0.0
12.7816 0.0650723 0.0
11.5914 -0.511393 0.0
3.03919 -0.249766 0.0
11.3897 0.274302 0.0
2.99409 0.176213 0.0
11.4136 -0.555103 0.0
12.2198 0.232844 0.0
11.4792 0.278726 0.0
12.2311 -0.070757 0.0
12.4944 -0.137653 0.0
11.6445 0.288153 0.0
12.8122 -0.0445763 0.0
25.0894 8.98304 0.0
10.9541 -0.506844 0.0
12.6461 0.00516368 0.0
13.0698 0.245781 0.0
13.0742 0.21364 0.0
13.0915 0.227409 0.0
12.636 -0.128057 0.0
13.1478 0.234428 0.0
11.8166 -0.0845736 0.0
13.1922 0.206481 0.0
12.3916 -0.0483061 0.0
12.3401 -0.000748306 0.0
7.23362 0.245008 0.0
12.7919 0.141226 0.0
13.1779 0.2276 0.0
11.3476 -0.189341 0.0
13.1157 0.222966 0.0
12.6362 -0.123453 0.0
12.495 -0.122257 0.0
2.1244 0.0636997 0.0
12.7362 -0.0220105 0.0
11.3421 0.289992 0.0
13.2363 0.215706 0.0
10.7648 0.0598158 0.0
4.24646 0.163501 0.0
12.325 -0.0375779 0.0
13.1765 0.17304 0.0
11.9794 0.113742 0.0
11.5586 -0.0815968 0.0
12.4953 -0.0791576 0.0
13.2267 0.094851 0.0
12.6407 -0.0962656 0.0
12.062 0.026847 0.0
9.78158 0.915711 0.0
13.0161 -0.0315599 0.0
13.2832 0.202921 0.0
13.0414 0.197188 0.0
7.0491 -0.0500809 0.0
12.7005 -0.0435122 0.0
11.2988 -0.104116 0.0
2.32159 0.0989528 0.0
3.92935 0.197806 0.0
12.638 -0.0479904 0.0
13.0874 0.214266 0.0
12.106 -0.149313 0.0
12.48 -0.0189631 0.0
13.2621 0.144338 0.0
12.1709 -0.101591 0.0
12.3135 -0.0608596 0.0
12.4341 0.0398486 0.0
11.3039 -0.111331 0.0
11.957 -0.0955362 0.0
13.3311 0.161963 0.0
11.4008 -0.0931901 0.0
13.3701 0.133732 0.0
12.0854 -0.159467 0.0
12.316 -0.119659 0.0
11.9016 -0.122595 0.0
11.2287 -0.134648 0.0
12.9922 0.2027 0.0
12.6141 0.00753463 0.0
2.86882 0.113811 0.0
4.36973 0.165622 0.0
13.3029 0.0493692 0.0
13.2352 -0.00138911 0.0
11.7962 0.263089 0.0
11.9816 0.0559225 0.0
12.0596 -0.0571526 0.0
13.126 0.237676 0.0
12.3463 0.0812347 0.0
12.9992 0.235624 0.0
12.853 -0.0238841 0.0
11.1668 -0.160124 0.0
11.8069 -0.16986 0.0
12.0564 -0.0269938 0.0
12.5588 0.0537878 0.0
13.382 0.132686 0.0
12.9482 -0.0504519 0.0
11.8626 -0.147186 0.0
18.6538 6.71761 0.0
10.8333 -0.127207 0.0
11.8308 -0.166703 0.0
11.1162 -0.186677 0.0
12.7816 0.230264 0.0
12.2261 0.0891032 0.0
12.4704 0.0748984 0.0
12.0783 -0.143286 0.0
10.9331 -0.108704 0.0
11.7305 0.0292032 0.0
13.2248 0.213839 0.0
11.072 -0.197258 0.0
11.7978 -0.129599 0.0
12.1125 0.0551874 0.0
8.07945 0.139027 0.0
12.8649 0.175706 0.0
11.0274 -0.147292 0.0
7.14079 0.0971443 0.0
10.7538 -0.1507 0.0
12.37 0.0592843 0.0
11.0034 -0.0474772 0.0
11.7769 -0.0538993 0.0
11.0684 -0.102101 0.0
2.05372 -0.0406315 0.0
3.73027 -0.0744956 0.0
8.00226 0.20368 0.0
12.1204 -0.117667 0.0
12.0461 -0.0156065 0.0
12.0418 -0.00182563 0.0
12.2916 0.011969 0.0
10.9342 0.0481691 0.0
4.27135 0.0927866 0.0
13.3574 0.166049 0.0
3.81676 -0.0767168 0.0
13.3933 0.0593791 0.0
12.042 -0.0541878 0.0
10.6831 -0.178871 0.0
11.8567 0.107764 0.0
10.6012 -0.207984 0.0
13.4203 0.000389236 0.0
11.6823 0.124937 0.0
2.11808 -0.0398227 0.0
3.76953 -0.0770747 0.0
12.0716 -0.0895622 0.0
2.32129 0.05614 0.0
12.2614 -0.0470285 0.0
10.5558 -0.190825 0.0
10.5149 -0.0950773 0.0
11.6258 0.0959818 0.0
12.2252 -0.0347842 0.0
13.4304 0.0199926 0.0
11.5229 0.0931815 0.0
11.4217 0.0303381 0.0
3.79562 -0.0652484 0.0
2.19954 -0.039671 0.0
6.83148 0.166959 0.0
10.4532 0.0167567 0.0
11.4379 0.138037 0.0
12.1321 -0.128103 0.0
11.2312 0.137958 0.0
12.5545 -0.00897591 0.0
6.94049 0.186649 0.0
11.0691 0.0791402 0.0
12.3121 -0.0882482 0.0
11.4038 -0.0166904 0.0
3.88536 0.0954642 0.0
2.00402 -0.0252988 0.0
1.7016 -0.0418624 0.0
2.13634 -0.0358723 0.0
3.82016 -0.0172618 0.0
4.07809 0.0895547 0.0
1.86029 -0.00766728 0.0
2.1001 0.0051197 0.0
3.71375 -0.0749701 0.0
2.01913 -0.0315357 0.0
2.17356 -0.022082 0.0
2.32118 0.0695871 0.0
4.0541 -0.0677014 0.0
2.23726 0.0508522 0.0
3.65787 -0.0436177 0.0
2.1612 0.0505988 0.0
3.90623 -0.0360265 0.0
3.80667 0.0175109 0.0
2.08412 0.09238 0.0
4.22575 0.0984021 0.0
3.7133 -0.0657545 0.0
3.63104 -0.0583958 0.0
2.12473 0.130957 0.0
3.5611 -0.0299917 0.0
3.78071 0.132565 0.0
1.99953 0.0110022 0.0
3.69157 -0.0441732 0.0
2.23674 0.0275668 0.0
2.00669 0.0628314 0.0
3.5637 -0.0812449 0.0
2.14091 0.0967645 0.0
2.6125 0.054254 0.0
2.16287 0.148794 0.0
1.85478 0.0578782 0.0
1.97714 -0.0129329 0.0
3.74485 0.00832062 0.0
2.0689 -0.0422712 0.0
2.1149 -0.0396692 0.0
2.1931 0.0962727 0.0
2.22441 0.0773272 0.0
2.15382 0.0194467 0.0
2.09409 0.0355817 0.0
1.80969 -0.0410606 0.0
2.03574 -0.0213213 0.0
2.5377 0.00124583 0.0
4.14405 -0.00683381 0.0
2.21935 -0.0205391 0.0
2.63957 0.0506027 0.0
3.57421 0.115685 0.0
3.47532 -0.0914171 0.0
2.0222 -0.0399961 0.0
2.20203 0.112312 0.0
2.06276 0.0221697 0.0
3.86956 0.0472658 0.0
1.93722 0.0669596 0.0
2.14914 0.0526555 0.0
2.0056 -0.0357558 0.0
3.9088 0.173576 0.0
2.45982 -0.0475125 0.0
1.79603 0.0180099 0.0
2.02949 0.0180761 0.0
1.72043 0.0339419 0.0
2.23126 0.0522532 0.0
2.22591 -0.0114661 0.0
3.31223 -0.0359418 0.0
1.54725 -0.0123579 0.0
3.81186 0.188474 0.0
3.95024 0.0880047 0.0
12.3279 -0.0774526 0.0
12.1479 -0.0673128 0.0
12.7821 -0.0649307 0.0
11.0046 0.017267 0.0
13.1285 -0.166339 0.0
13.2871 -0.0554122 0.0
10.9964 0.00297195 0.0
13.1798 -0.171659 0.0
13.3527 -0.130511 0.0
13.2309 -0.180795 0.0
13.3769 -0.0674074 0.0
11.5081 -0.00568306 0.0
12.3601 -0.0551249 0.0
13.2859 -0.153529 0.0
12.0536 -0.0654229 0.0
13.0683 -0.119551 0.0
12.4715 -0.0940713 0.0
13.0595 -0.093407 0.0
12.8224 -0.138601 0.0
12.8597 -0.15962 0.0