# vtk DataFile Version 3.0
Malha 2D com triângulos e temperatura
ASCII
DATASET UNSTRUCTURED_GRID

POINTS 1194 double
0 0 0
5 0 0
5 1 0
0 1 0
0.85 0.5 0
0.842388 0.538268 0
0.820711 0.570711 0
0.788268 0.592388 0
0.75 0.6 0
0.711732 0.592388 0
0.679289 0.570711 0
0.657612 0.538268 0
0.65 0.5 0
0.657612 0.461732 0
0.679289 0.429289 0
0.711732 0.407612 0
0.75 0.4 0
0.788268 0.407612 0
0.820711 0.429289 0
0.842388 0.461732 0
0.0793651 0 0
0.15873 0 0
0.238095 0 0
0.31746 0 0
0.396825 0 0
0.47619 0 0
0.555556 0 0
0.634921 0 0
0.714286 0 0
0.793651 0 0
0.873016 0 0
0.952381 0 0
1.03175 0 0
1.11111 0 0
1.19048 0 0
1.26984 0 0
1.34921 0 0
1.42857 0 0
1.50794 0 0
1.5873 0 0
1.66667 0 0
1.74603 0 0
1.8254 0 0
1.90476 0 0
1.98413 0 0
2.06349 0 0
2.14286 0 0
2.22222 0 0
2.30159 0 0
2.38095 0 0
2.46032 0 0
2.53968 0 0
2.61905 0 0
2.69841 0 0
2.77778 0 0
2.85714 0 0
2.93651 0 0
3.01587 0 0
3.09524 0 0
3.1746 0 0
3.25397 0 0
3.33333 0 0
3.4127 0 0
3.49206 0 0
3.57143 0 0
3.65079 0 0
3.73016 0 0
3.80952 0 0
3.88889 0 0
3.96825 0 0
4.04762 0 0
4.12698 0 0
4.20635 0 0
4.28571 0 0
4.36508 0 0
4.44444 0 0
4.52381 0 0
4.60317 0 0
4.68254 0 0
4.7619 0 0
4.84127 0 0
4.92063 0 0
5 0.0769231 0
5 0.153846 0
5 0.230769 0
5 0.307692 0
5 0.384615 0
5 0.461538 0
5 0.538462 0
5 0.615385 0
5 0.692308 0
5 0.769231 0
5 0.846154 0
5 0.923077 0
4.92063 1 0
4.84127 1 0
4.7619 1 0
4.68254 1 0
4.60317 1 0
4.52381 1 0
4.44444 1 0
4.36508 1 0
4.28571 1 0
4.20635 1 0
4.12698 1 0
4.04762 1 0
3.96825 1 0
3.88889 1 0
3.80952 1 0
3.73016 1 0
3.65079 1 0
3.57143 1 0
3.49206 1 0
3.4127 1 0
3.33333 1 0
3.25397 1 0
3.1746 1 0
3.09524 1 0
3.01587 1 0
2.93651 1 0
2.85714 1 0
2.77778 1 0
2.69841 1 0
2.61905 1 0
2.53968 1 0
2.46032 1 0
2.38095 1 0
2.30159 1 0
2.22222 1 0
2.14286 1 0
2.06349 1 0
1.98413 1 0
1.90476 1 0
1.8254 1 0
1.74603 1 0
1.66667 1 0
1.5873 1 0
1.50794 1 0
1.42857 1 0
1.34921 1 0
1.26984 1 0
1.19048 1 0
1.11111 1 0
1.03175 1 0
0.952381 1 0
0.873016 1 0
0.793651 1 0
0.714286 1 0
0.634921 1 0
0.555556 1 0
0.47619 1 0
0.396825 1 0
0.31746 1 0
0.238095 1 0
0.15873 1 0
0.0793651 1 0
0 0.923077 0
0 0.846154 0
0 0.769231 0
0 0.692308 0
0 0.615385 0
0 0.538462 0
0 0.461538 0
0 0.384615 0
0 0.307692 0
0 0.230769 0
0 0.153846 0
0 0.0769231 0
0.879698 0.466718 0
1.3085 0.931947 0
1.30532 0.0638546 0
4.93832 0.504275 0
0.620452 0.46964 0
3.99858 0.0669607 0
1.63721 0.934258 0
3.3751 0.0523709 0
4.3254 0.0687322 0
2.42354 0.0642082 0
2.97619 0.0687322 0
2.02101 0.0693621 0
3.68108 0.0581336 0
2.65899 0.932655 0
4.178 0.939994 0
3.21614 0.938179 0
2.25483 0.919987 0
3.53215 0.928998 0
3.84921 0.931268 0
1.69647 0.0674297 0
1.94349 0.930209 0
4.48413 0.931268 0
2.97813 0.942022 0
2.74097 0.0673855 0
0.859645 0.573263 0
0.639718 0.573116 0
0.0651563 0.652836 0
0.0635304 0.346121 0
4.56232 0.0679683 0
0.830393 0.392645 0
0.669618 0.39275 0
1.06185 0.0668897 0
0.440193 0.0680031 0
1.06474 0.93511 0
0.446074 0.935974 0
0.724697 0.630698 0
4.72268 0.931235 0
4.93065 0.267192 0
0.589836 0.936152 0
0.92338 0.0562425 0
0.590207 0.0623339 0
0.755872 0.0732784 0
0.838039 0.936714 0
4.92573 0.732039 0
0.281717 0.93783 0
0.28208 0.0811877 0
0.065248 0.503161 0
1.46076 0.0637037 0
4.72574 0.0661877 0
4.31028 0.937908 0
3.21429 0.0687322 0
1.46639 0.932632 0
3.6897 0.928155 0
2.42063 0.931268 0
3.5364 0.0691789 0
2.25998 0.0676208 0
1.78735 0.937047 0
4.01535 0.920637 0
1.85469 0.0674188 0
3.83991 0.0626292 0
3.37477 0.929368 0
2.58225 0.0657863 0
2.81746 0.932342 0
4.16667 0.0687322 0
2.11402 0.935574 0
0.0614266 0.197046 0
0.0612841 0.803003 0
4.88273 0.0644126 0
4.87774 0.933272 0
0.859645 0.426737 0
0.903081 0.436592 0
0.923672 0.473385 0
0.948706 0.439078 0
0.969155 0.479795 0
0.996593 0.439791 0
1.0202 0.484937 0
1.04667 0.440138 0
1.07382 0.489694 0
1.1034 0.440801 0
1.13169 0.49612 0
1.16603 0.445058 0
1.1931 0.504331 0
1.22956 0.450883 0
1.25923 0.506004 0
1.29683 0.453139 0
1.32923 0.510343 0
1.36603 0.454344 0
1.03276 0.530395 0
1.40063 0.516169 0
1.43576 0.454934 0
1.47042 0.520776 0
1.51069 0.46142 0
1.54422 0.526371 0
1.58547 0.465572 0
1.61942 0.531773 0
1.66033 0.468788 0
1.69546 0.536793 0
1.73713 0.472812 0
1.77239 0.541977 0
1.81532 0.478494 0
1.85006 0.547285 0
1.89327 0.483449 0
1.92802 0.55361 0
1.97142 0.488546 0
2.00623 0.558966 0
2.04984 0.493518 0
2.08483 0.564085 0
2.12847 0.498462 0
2.16353 0.569137 0
2.20719 0.503331 0
0.961579 0.391697 0
1.22451 0.565337 0
2.24238 0.574192 0
2.28611 0.508258 0
2.32134 0.579247 0
2.36519 0.513325 0
2.40036 0.584295 0
2.44425 0.51834 0
2.47944 0.589336 0
2.52334 0.523355 0
2.55853 0.594372 0
2.60245 0.52837 0
2.63764 0.599431 0
2.68159 0.533388 0
2.64637 0.462336 0
2.72553 0.467349 0
2.76076 0.538418 0
2.8047 0.47237 0
2.83993 0.543451 0
2.88387 0.477399 0
2.91911 0.548482 0
2.96305 0.482427 0
2.9983 0.553514 0
3.04224 0.487456 0
3.07749 0.558545 0
3.12143 0.492477 0
3.15668 0.563574 0
3.20063 0.497514 0
3.23588 0.568605 0
3.27983 0.502542 0
3.31508 0.573635 0
3.35903 0.507562 0
3.39428 0.578663 0
3.43823 0.5126 0
3.47348 0.583694 0
3.51744 0.517628 0
3.55268 0.588724 0
3.59664 0.522646 0
3.63189 0.593752 0
3.67585 0.527673 0
3.71109 0.598781 0
3.75505 0.532702 0
3.7903 0.60381 0
3.83426 0.537731 0
3.79901 0.466623 0
3.87821 0.471754 0
3.91346 0.542777 0
3.95742 0.476701 0
3.99267 0.547795 0
4.03662 0.481715 0
4.07187 0.552815 0
4.11582 0.486743 0
4.15106 0.55783 0
4.195 0.491782 0
4.23023 0.562843 0
4.27415 0.49682 0
4.30937 0.567866 0
4.35325 0.501915 0
4.38842 0.572845 0
4.43227 0.506997 0
4.46737 0.577575 0
4.51106 0.511995 0
4.54622 0.582183 0
1.13571 0.390292 0
4.47606 0.441361 0
4.55475 0.446396 0
2.32985 0.442214 0
3.5614 0.451571 0
3.08619 0.421408 0
2.09339 0.427815 0
1.42887 0.583001 0
2.84864 0.406329 0
3.32378 0.43649 0
4.23911 0.425894 0
1.54723 0.39251 0
1.77883 0.406811 0
1.33959 0.387065 0
3.92239 0.405803 0
4.08079 0.415776 0
2.48812 0.452349 0
1.57935 0.603183 0
1.93602 0.417543 0
1.72453 0.617973 0
3.11273 0.629643 0
2.69029 0.396284 0
3.94662 0.623383 0
1.88466 0.613248 0
2.79598 0.609502 0
4.10826 0.620575 0
2.04005 0.62838 0
2.95434 0.619575 0
4.51981 0.375801 0
4.59833 0.380943 0
4.63314 0.451296 0
4.26693 0.63114 0
2.19619 0.645921 0
4.4246 0.642296 0
3.27112 0.639707 0
2.35729 0.649822 0
2.51462 0.660373 0
3.42952 0.649769 0
4.67669 0.38601 0
3.58793 0.659829 0
3.74634 0.669888 0
4.64195 0.315733 0
4.44109 0.370647 0
4.48493 0.305066 0
4.40614 0.29989 0
4.71136 0.456133 0
4.72014 0.320758 0
0.8692 0.382093 0
0.841252 0.348256 0
0.886481 0.338703 0
0.853127 0.301457 0
0.902583 0.287335 0
0.801683 0.321689 0
0.818113 0.263019 0
0.764765 0.277091 0
4.44702 0.235678 0
0.946267 0.520761 0
0.78107 0.221265 0
0.726309 0.234724 0
0.848273 0.20551 0
4.68545 0.250576 0
4.37074 0.227561 0
4.76365 0.255792 0
4.79822 0.326145 0
0.713664 0.287231 0
0.672358 0.247957 0
0.68673 0.192342 0
0.630368 0.2085 0
0.616569 0.265341 0
0.574186 0.225456 0
0.557393 0.28131 0
0.52004 0.242373 0
0.504416 0.299685 0
0.462273 0.252096 0
0.44798 0.316739 0
0.404567 0.276951 0
0.390546 0.335414 0
0.434669 0.37657 0
0.377935 0.394545 0
0.421979 0.43426 0
0.365682 0.452846 0
0.409646 0.492216 0
0.353389 0.51089 0
0.397738 0.551598 0
0.339864 0.570301 0
0.385899 0.612153 0
0.325913 0.631557 0
0.344507 0.29318 0
0.320568 0.413067 0
0.373553 0.673852 0
0.434438 0.653082 0
0.311416 0.69481 0
0.449777 0.528305 0
0.293513 0.534612 0
0.421431 0.715204 0
0.480917 0.696603 0
0.54504 0.34471 0
0.262743 0.649913 0
0.246209 0.712341 0
0.468564 0.755948 0
0.526091 0.735423 0
0.538207 0.68039 0
0.581228 0.716342 0
0.408756 0.777952 0
0.36234 0.239019 0
0.297047 0.251925 0
0.572109 0.771575 0
0.624906 0.752173 0
0.474824 0.414151 0
0.534351 0.182707 0
0.633682 0.70159 0
0.674547 0.736174 0
0.66826 0.788959 0
0.721117 0.76834 0
0.714515 0.825486 0
0.769074 0.802008 0
0.775287 0.746591 0
0.821903 0.778625 0
0.826767 0.726064 0
0.873257 0.756032 0
0.872997 0.697261 0
0.92331 0.732304 0
0.930014 0.67838 0
0.976061 0.710612 0
0.92456 0.784469 0
0.982178 0.654421 0
1.03016 0.688004 0
1.02037 0.747059 0
1.08 0.723819 0
1.08651 0.661896 0
1.1397 0.698204 0
1.13262 0.763657 0
1.19424 0.736545 0
1.18556 0.80161 0
1.24839 0.771772 0
1.25723 0.706382 0
1.31432 0.745787 0
4.66801 0.521361 0
4.74602 0.526202 0
4.70285 0.591278 0
4.78076 0.596023 0
4.73763 0.661207 0
4.78904 0.460969 0
2.61113 0.391267 0
2.65506 0.325217 0
2.57588 0.320198 0
2.61982 0.254148 0
2.69899 0.259163 0
2.54065 0.249131 0
2.49672 0.315179 0
2.46148 0.244124 0
2.41757 0.310166 0
2.38233 0.239117 0
2.33843 0.30514 0
2.30297 0.237979 0
2.25928 0.300748 0
2.22079 0.221377 0
2.17969 0.293884 0
2.14114 0.224266 0
2.10047 0.289841 0
2.0653 0.219144 0
2.02202 0.284919 0
1.98701 0.214164 0
1.94336 0.279863 0
3.82315 0.673327 0
3.78135 0.738156 0
3.86451 0.735958 0
3.70234 0.735494 0
4.52513 0.244409 0
4.32717 0.294467 0
4.29217 0.221862 0
0.619934 0.539507 0
0.599432 0.577132 0
0.575955 0.542712 0
0.554504 0.58245 0
4.65962 0.656481 0
4.69438 0.726169 0
4.6161 0.721747 0
4.77259 0.731352 0
4.65076 0.791486 0
4.57153 0.788793 0
4.2482 0.289182 0
4.21307 0.218308 0
4.1691 0.284563 0
4.13394 0.21352 0
0.835918 0.606341 0
0.806475 0.6384 0
4.08995 0.279537 0
0.640355 0.426737 0
0.596214 0.435837 0
0.630358 0.379178 0
0.689967 0.627735 0
1.90832 0.209948 0
1.86468 0.27519 0
1.82968 0.20518 0
1.78607 0.269797 0
0.281841 0.313314 0
0.232117 0.268621 0
0.216861 0.334396 0
4.05473 0.209347 0
4.01077 0.2745 0
3.97554 0.204394 0
3.93159 0.269388 0
0.297409 0.759367 0
0.231645 0.782943 0
0.180008 0.73598 0
1.32151 0.676369 0
1.38055 0.718092 0
1.36901 0.793947 0
1.43945 0.766002 0
0.249902 0.198865 0
0.932364 0.624392 0
1.75117 0.201034 0
1.70771 0.264658 0
1.673 0.195402 0
1.62985 0.260294 0
1.59532 0.191927 0
1.55236 0.254233 0
3.89629 0.200227 0
3.85238 0.264494 0
3.81708 0.195303 0
3.77304 0.259453 0
2.66368 0.189084 0
2.74279 0.19534 0
2.77814 0.264556 0
2.82201 0.199823 0
2.85733 0.269552 0
2.90126 0.203886 0
2.93654 0.274416 0
2.98045 0.20868 0
3.01573 0.279376 0
3.0597 0.213193 0
[...]
CELL_DATA 2220
VECTORS velocity double
9.26761 -0.679126 0.0
7.26138 0.340283 0.0
14.0735 3.97845 0.0
13.9774 0.981804 0.0
9.46619 -0.840341 0.0
10.2627 -0.490332 0.0
6.30287 0.33238 0.0
6.86901 0.0100948 0.0
13.3743 7.86647 0.0
10.1092 -0.310164 0.0
9.22552 15.3513 0.0
6.53433 0.244161 0.0
5.39043 0.17558 0.0
12.2017 -3.78292 0.0
12.6489 14.2912 0.0
6.52447 8.60334 0.0
7.13302 0.287418 0.0
5.91439 0.356531 0.0
6.52482 -0.0899006 0.0
6.89146 -0.064983 0.0
12.2113 2.94392 0.0
24.2938 -5.89275 0.0
6.68665 0.363465 0.0
6.76755 0.399403 0.0
9.24381 -0.604659 0.0
11.2358 -2.95882 0.0
12.8096 -1.45494 0.0
5.97049 0.399163 0.0
13.9066 1.0056 0.0
15.6099 0.912565 0.0
6.64507 -2.14952 0.0
18.0297 0.289298 0.0
5.10759 -0.0863914 0.0
17.8671 -11.3165 0.0
25.9365 1.55853 0.0
10.361 -0.544035 0.0
26.118 2.34898 0.0
5.74276 -0.0774409 0.0
15.927 1.14476 0.0
16.0439 -1.16915 0.0
8.13029 -0.759451 0.0
13.396 6.7758 0.0
11.9323 0.840731 0.0
6.4056 0.0212968 0.0
5.86212 0.0651173 0.0
5.38443 0.0287326 0.0
6.58445 0.394406 0.0
5.43744 0.0119101 0.0
10.0868 -0.264442 0.0
10.4879 0.0773431 0.0
9.82282 2.24071 0.0
5.30478 0.0802949 0.0
6.45715 0.424226 0.0
6.43185 0.0904929 0.0
6.12344 0.283378 0.0
16.0326 -1.56896 0.0
19.2001 -0.116696 0.0
5.63327 0.371527 0.0
5.8194 0.377809 0.0
10.6346 0.0235395 0.0
0.645933 -1.42956 0.0
9.80136 -0.879209 0.0
7.71622 -2.76305 0.0
6.5844 0.439953 0.0
6.53639 0.389082 0.0
18.9345 -9.60841 0.0
11.5949 -0.94832 0.0
7.99247 7.64453 0.0
5.73292 0.384521 0.0
5.79121 0.419747 0.0
6.38275 0.141075 0.0
18.8449 10.2148 0.0
5.21163 0.13775 0.0
10.4338 0.292672 0.0
23.9407 -1.603 0.0
24.305 -0.311275 0.0
9.0875 2.46976 0.0
8.69184 -1.66364 0.0
11.1517 6.66654 0.0
6.24764 0.111622 0.0
13.4754 1.83232 0.0
16.4479 1.82756 0.0
9.19145 -0.21643 0.0
5.31351 0.106109 0.0
6.41843 0.338628 0.0
6.39313 0.196334 0.0
8.86432 -0.871953 0.0
5.50984 0.178586 0.0
5.58551 0.281903 0.0
14.3018 8.35827 0.0
22.8134 -3.97493 0.0
9.51783 2.45851 0.0
6.50441 -0.108138 0.0
11.4426 3.10044 0.0
23.396 0.094023 0.0
16.0762 1.32065 0.0
25.6485 4.71891 0.0
-0.433987 -17.2328 0.0
1.33174 -1.25375 0.0
16.1189 11.7983 0.0
-7.88682 -17.7261 0.0
10.0316 -2.13152 0.0
6.50877 0.392906 0.0
5.88063 0.534926 0.0
24.3317 -5.29529 0.0
24.9843 -0.941172 0.0
10.2659 -0.423298 0.0
10.5939 -0.604022 0.0
2.23923 -0.0394985 0.0
6.74442 0.561719 0.0
16.9774 0.804465 0.0
14.2001 -5.24517 0.0
10.1936 -0.327566 0.0
6.95296 -0.491148 0.0
10.542 -1.13763 0.0
5.69962 0.360324 0.0
11.1247 -2.78339 0.0
11.1462 -0.376153 0.0
0.378901 -20.556 0.0
15.476 7.63119 0.0
8.10851 -1.26259 0.0
18.7125 -0.488475 0.0
7.84046 1.8399 0.0
22.5864 -8.48932 0.0
25.2513 0.738778 0.0
2.76822 -9.74011 0.0
25.5505 -1.52752 0.0
13.886 0.866634 0.0
12.5903 -4.59782 0.0
-7.2748 8.16892 0.0
6.0494 0.185944 0.0
24.6622 4.63107 0.0
22.8066 6.09567 0.0
6.96241 0.920008 0.0
15.8558 1.2006 0.0
6.42975 1.08407 0.0
5.03083 0.0106605 0.0
10.8068 -2.17327 0.0
4.96364 -10.4814 0.0
18.371 0.567175 0.0
11.6658 -2.8189 0.0
6.32168 -0.00983478 0.0
10.4723 -1.50026 0.0
24.6673 0.360262 0.0
10.3016 0.274616 0.0
10.8045 2.71302 0.0
-12.3388 8.46973 0.0
2.92963 -18.0297 0.0
11.0162 0.983432 0.0
10.6055 -0.825462 0.0
5.8213 -0.0309204 0.0
15.4733 6.57609 0.0
18.9779 0.00166501 0.0
20.6838 -10.631 0.0
4.88498 1.14501 0.0
7.1197 0.150422 0.0
13.2137 -1.16354 0.0
7.28738 0.253409 0.0
7.62693 -0.711291 0.0
8.71551 -1.94942 0.0
22.7799 8.5005 0.0
5.8102 0.0333689 0.0
-12.5193 -8.75212 0.0
18.1395 -0.0697135 0.0
5.21983 0.0761018 0.0
18.9729 -11.1973 0.0
10.931 -12.3253 0.0
25.4018 0.383673 0.0
7.05796 0.1007 0.0
19.8038 11.2136 0.0
-7.60701 14.3672 0.0
5.27121 0.0642533 0.0
6.42054 0.0630566 0.0
-7.62394 -8.54578 0.0
-1.6912 -4.30049 0.0
10.6637 5.80877 0.0
8.12677 2.59927 0.0
9.08035 5.51153 0.0
5.0555 -0.966432 0.0
7.00725 0.0580142 0.0
18.5114 -0.206339 0.0
9.51323 -2.13835 0.0
15.2528 -16.1893 0.0
-2.38751 13.3355 0.0
7.0205 0.0177431 0.0
8.58421 -1.04714 0.0
25.9292 0.123945 0.0
5.81746 -0.0343478 0.0
26.0628 3.65777 0.0
25.3549 0.233595 0.0
8.87151 -0.851607 0.0
5.66784 -0.13385 0.0
13.9483 -5.87062 0.0
10.9874 0.789195 0.0
12.9094 -0.453509 0.0
25.9136 -0.271258 0.0
8.55721 0.284472 0.0
6.46383 -0.055147 0.0
4.14379 -0.26021 0.0
6.67812 -0.0950427 0.0
5.86247 -0.259854 0.0
8.155 -0.0531699 0.0
21.1924 -9.1214 0.0
6.60715 0.0657228 0.0
8.28984 0.915419 0.0
9.30433 -1.53687 0.0
12.7991 -2.60074 0.0
6.24213 0.0732066 0.0
8.76431 0.122953 0.0
4.34033 -0.620212 0.0
6.45596 0.377485 0.0
7.17083 18.3526 0.0
8.31072 -0.0976043 0.0
10.4491 7.59848 0.0
9.78516 3.0638 0.0
7.25464 0.223001 0.0
5.61499 0.347835 0.0
6.53781 0.428978 0.0
5.87299 1.13057 0.0
24.1201 0.942815 0.0
10.1839 0.143608 0.0
3.49981 -0.0580857 0.0
5.66808 0.397963 0.0
3.35467 -0.00367512 0.0
6.57771 0.0416941 0.0
7.63815 -0.0877468 0.0
7.24728 -1.16899 0.0
12.66 15.2183 0.0
14.9881 -3.62677 0.0
7.03072 0.352432 0.0
8.02902 0.146843 0.0
8.42916 -0.527078 0.0
4.84406 -0.00869732 0.0
6.74094 0.00675391 0.0
7.2322 -0.247317 0.0
23.6173 0.131676 0.0
-2.3644 -6.15633 0.0
6.47558 -0.130948 0.0
6.43586 -0.151957 0.0
5.93302 -0.00327713 0.0
23.7797 -0.194435 0.0
22.3211 8.5595 0.0
24.5978 -3.41444 0.0
3.77951 0.0220178 0.0
7.111 0.947227 0.0
10.2206 -0.0607708 0.0
6.98685 0.0170754 0.0
17.49 -0.55882 0.0
4.106 1.37173 0.0
12.2023 0.616822 0.0
6.4808 -0.909846 0.0
3.77921 -0.0288654 0.0
9.25066 -11.761 0.0
10.1631 -0.0661642 0.0
9.27651 -4.11565 0.0
6.40562 0.251268 0.0
-13.0728 1.52628 0.0
10.14 0.0151671 0.0
12.864 0.105077 0.0
23.1512 0.175722 0.0
7.12332 -0.195038 0.0
19.1781 -0.300128 0.0
7.00762 0.488767 0.0
10.3751 -2.58093 0.0
3.69926 -0.224793 0.0
5.52025 -0.048496 0.0
6.29853 -0.085601 0.0
0.996284 -3.82046 0.0
10.4965 2.76299 0.0
10.2661 -0.0867005 0.0
9.94458 0.365728 0.0
10.4171 0.0263724 0.0
5.53855 0.21379 0.0
10.3923 -0.701999 0.0
-3.21979 -10.4148 0.0
24.7429 -2.15555 0.0
16.3879 -14.4907 0.0
3.89441 -1.84637 0.0
7.50693 1.56235 0.0
8.77151 0.0569838 0.0
2.38496 -13.4608 0.0
14.8171 -0.158507 0.0
23.5633 -0.394306 0.0
8.33338 0.268515 0.0
10.2734 -0.623754 0.0
7.7985 -0.0319058 0.0
19.6179 -0.378849 0.0
8.06157 0.308702 0.0
5.70007 -0.110984 0.0
5.54687 -0.13128 0.0
-13.0557 -1.96574 0.0
6.49064 -0.457487 0.0
4.74455 0.893343 0.0
6.86001 -0.418232 0.0
7.43598 -0.652157 0.0
7.85571 -0.112247 0.0
7.92243 -0.0969976 0.0
12.9427 0.260017 0.0
24.0394 -3.10757 0.0
10.3305 2.75834 0.0
5.42638 -0.0875468 0.0
11.181 5.00973 0.0
13.483 -4.29485 0.0
5.22069 0.0502949 0.0
7.81204 -9.75423 0.0
6.99933 0.212595 0.0
5.45682 0.00726098 0.0
5.60286 -0.141 0.0
10.2894 0.230899 0.0
4.16701 0.650834 0.0
7.19613 1.20201 0.0
3.48109 0.168594 0.0
-0.339868 17.3333 0.0
23.9935 -1.12347 0.0
19.2631 10.6595 0.0
6.35641 -0.14089 0.0
9.00193 4.4067 0.0
7.32747 0.0959663 0.0
23.4299 -0.189204 0.0
10.8309 3.01596 0.0
16.3728 14.4606 0.0
8.01734 1.82841 0.0
10.058 0.037011 0.0
7.50775 0.0116959 0.0
3.73544 0.375626 0.0
6.32393 -1.05651 0.0
10.4341 0.0800355 0.0
10.1469 0.400826 0.0
10.285 0.138807 0.0
5.69346 -1.06935 0.0
8.39283 -8.36978 0.0
24.853 0.820931 0.0
5.16126 -2.78976 0.0
7.00469 -0.417537 0.0
17.9228 -8.37026 0.0
23.4124 -0.361806 0.0
14.3546 -0.775585 0.0
12.0271 4.86875 0.0
18.8233 -0.769316 0.0
6.40412 -0.1539 0.0
4.70974 0.557057 0.0
5.8485 -0.163255 0.0
4.24688 -0.0454436 0.0
3.72531 -0.489862 0.0
13.9066 15.9083 0.0
12.5953 6.27544 0.0
5.20467 0.583851 0.0
11.5511 3.61741 0.0
11.0276 1.76016 0.0
3.08228 -0.521386 0.0
20.0052 -6.37496 0.0
2.78957 0.472732 0.0
4.25735 0.0991763 0.0
3.95873 8.35739 0.0
3.69383 0.410692 0.0
23.9192 0.0120196 0.0
20.447 -7.61461 0.0
2.15258 -0.14788 0.0
10.0077 0.251834 0.0
17.3847 -0.897401 0.0
11.0783 1.80329 0.0
2.44848 17.9853 0.0
12.3239 3.7787 0.0
11.2367 2.57209 0.0
3.92422 0.241916 0.0
10.7705 0.199244 0.0
24.6615 6.01405 0.0
2.7131 -0.461244 0.0
4.14476 -0.191094 0.0
19.3304 -0.628794 0.0
2.78778 0.482631 0.0
25.0679 -4.47498 0.0
20.285 8.13644 0.0
7.16273 -0.241747 0.0
3.22117 -0.0423234 0.0
8.61823 0.330328 0.0
8.50253 0.238769 0.0
8.43742 0.101953 0.0
23.2596 0.0222672 0.0
7.99536 -0.0848406 0.0
8.09021 0.373712 0.0
23.197 0.125226 0.0
23.9738 -0.099359 0.0
10.2002 0.0594322 0.0
22.2452 0.451369 0.0
10.07 -0.0430768 0.0
23.5995 -4.31422 0.0
10.0519 0.0289255 0.0
12.299 -3.62064 0.0
10.9342 1.26096 0.0
6.84659 0.536563 0.0
10.1196 0.0387856 0.0
16.6682 -0.485745 0.0
8.1486 -3.90407 0.0
6.36303 -0.605391 0.0
6.71991 -0.872233 0.0
22.8193 0.189329 0.0
6.11472 0.461171 0.0
10.069 0.042921 0.0
22.4541 0.398705 0.0
5.16463 0.184146 0.0
15.1058 2.70289 0.0
11.1156 2.13718 0.0
10.1225 0.00863335 0.0
24.0263 6.60587 0.0
25.1622 3.78999 0.0
3.99575 0.615609 0.0
3.89334 0.500236 0.0
13.2022 0.712881 0.0
15.0523 -9.55826 0.0
5.26296 -12.161 0.0
3.56702 0.534022 0.0
22.4873 0.119394 0.0
9.78906 -3.33701 0.0
22.4459 -0.358225 0.0
10.1133 -0.000829938 0.0
3.12099 -0.109062 0.0
2.41315 0.377975 0.0
13.9444 5.91259 0.0
4.08808 0.133559 0.0
11.1068 3.64934 0.0
21.5856 0.577886 0.0
3.12523 0.00312182 0.0
4.10668 -0.0617677 0.0
10.9122 1.5153 0.0
9.72942 0.131108 0.0
3.04011 0.119929 0.0
9.3753 -0.0867276 0.0
10.1016 0.0666302 0.0
4.0662 -0.461865 0.0
10.145 0.0305901 0.0
10.5693 1.47991 0.0
22.4582 -0.593829 0.0
10.7127 0.9241 0.0
5.07867 -0.436737 0.0
25.4508 5.07582 0.0
3.47611 -0.537738 0.0
4.98545 0.315038 0.0
6.88085 -7.34984 0.0
4.31897 0.329324 0.0
10.8722 2.04289 0.0
10.7281 1.10136 0.0
23.3037 3.62423 0.0
25.0306 2.54835 0.0
7.7228 -0.74726 0.0
11.2419 2.23734 0.0
22.3419 0.378815 0.0
2.25784 -0.206737 0.0
2.07681 0.228495 0.0
6.17937 -0.138021 0.0
7.6871 0.690088 0.0
10.155 -0.244666 0.0
5.30051 -0.287278 0.0
14.2234 0.49767 0.0
10.5622 0.502918 0.0
3.57555 0.355723 0.0
8.45191 0.488807 0.0
11.4178 2.99741 0.0
5.09264 0.261313 0.0
10.4013 0.637644 0.0
10.3015 1.09379 0.0
9.87048 0.110524 0.0
4.40724 -0.347842 0.0
3.41641 0.245705 0.0
5.20745 0.379944 0.0
8.38447 0.0206681 0.0
5.28027 -0.158633 0.0
10.1872 0.0541282 0.0
3.05898 0.0668042 0.0
24.1636 1.74316 0.0
3.80942 -0.126244 0.0
2.11266 0.273045 0.0
10.287 -0.988448 0.0
11.9218 4.10398 0.0
3.84395 -0.345781 0.0
9.86012 0.0920514 0.0
10.418 0.805413 0.0
14.1323 2.83746 0.0
10.161 0.085549 0.0
10.0181 0.830873 0.0
7.61669 -0.928467 0.0
18.8796 -6.81452 0.0
10.8295 -1.52397 0.0
9.74221 0.622739 0.0
4.95128 -0.47516 0.0
5.27229 0.4966 0.0
22.2268 -0.0655336 0.0
1.8999 0.171467 0.0
19.2753 -0.635782 0.0
8.09303 0.718045 0.0
10.2247 0.0874185 0.0
1.97691 0.196832 0.0
2.35725 -0.274039 0.0
10.1371 0.560097 0.0
12.5539 5.38323 0.0
8.6252 -0.0997318 0.0
16.9574 -0.652284 0.0
9.90431 0.0571313 0.0
15.6122 -0.62473 0.0
6.89327 -0.74962 0.0
9.63245 -0.0635616 0.0
10.1279 1.23898 0.0
2.06731 -0.089665 0.0
9.54646 0.4493 0.0
8.52392 0.433093 0.0
5.89215 -0.14524 0.0
10.1106 0.072978 0.0
3.24397 -0.281053 0.0
3.5829 0.284934 0.0
10.4266 1.68282 0.0
9.77095 -0.0780804 0.0
9.68149 -0.304746 0.0
6.65186 -0.0902898 0.0
9.7735 0.0904736 0.0
10.2459 0.0693647 0.0
9.46037 -2.44382 0.0
2.79878 0.186057 0.0
9.92443 0.163084 0.0
10.8581 -1.82312 0.0
9.57572 0.725748 0.0
9.23022 0.298281 0.0
4.97772 -0.317571 0.0
17.4813 -9.90817 0.0
4.18299 -0.890513 0.0
13.747 -11.2993 0.0
9.97223 -0.365454 0.0
10.9186 2.06591 0.0
9.94628 0.130849 0.0
2.89124 -0.176132 0.0
9.43753 0.320778 0.0
9.35704 0.154032 0.0
9.34379 0.557848 0.0
10.3489 0.0479599 0.0
9.85291 0.937535 0.0
9.83345 0.241124 0.0
15.0952 -0.538903 0.0
14.9773 -2.26511 0.0
5.43989 -0.515878 0.0
21.9715 -0.574893 0.0
5.46459 -0.0781683 0.0
9.14129 -0.392834 0.0
5.13913 -1.05112 0.0
21.7342 6.63693 0.0
10.3033 0.0510139 0.0
2.36902 -0.211793 0.0
2.43164 0.220121 0.0
9.75997 0.16867 0.0
21.5073 0.634369 0.0
9.37225 0.242076 0.0
7.67711 0.356556 0.0
2.31681 -0.0438397 0.0
3.63746 -0.0734111 0.0
3.14814 0.086014 0.0
2.3337 0.337587 0.0
4.25917 -0.589081 0.0
10.7041 -2.74731 0.0
10.3671 0.0418738 0.0
23.7392 4.95635 0.0
1.05959 0.210893 0.0
8.87118 -0.0274459 0.0
9.19863 -0.0316785 0.0
8.8793 -0.216066 0.0
8.63738 0.60394 0.0
1.13723 -0.227987 0.0
2.45195 -0.33587 0.0
8.60308 0.221104 0.0
12.8607 0.661169 0.0
9.21191 0.41451 0.0
7.9076 -0.255939 0.0
9.78661 -0.0214907 0.0
24.5899 -0.255043 0.0
9.95513 -0.0227475 0.0
9.20632 0.430016 0.0
10.2544 0.0341811 0.0
3.05468 -0.211371 0.0
10.8269 4.27683 0.0
10.1763 0.0726679 0.0
9.87595 0.100545 0.0
10.1566 0.0281309 0.0
9.47191 -0.145584 0.0
2.95068 0.142269 0.0
10.1168 0.0590894 0.0
3.07915 -0.08791 0.0
6.03436 0.6241 0.0
8.13642 0.0421477 0.0
9.34114 0.20721 0.0
9.13101 0.305943 0.0
10.0921 0.0893615 0.0
10.1595 0.104089 0.0
10.1112 0.115707 0.0
1.82936 0.135775 0.0
3.32964 0.238889 0.0
3.15502 -0.04987 0.0
10.1052 0.122799 0.0
9.73573 0.123958 0.0
23.8842 0.305751 0.0
3.01488 0.104118 0.0
9.81016 0.00275033 0.0
9.81511 0.215415 0.0
6.31968 0.95259 0.0
9.81915 -0.00177951 0.0
1.6006 0.0635606 0.0
9.60995 -0.0278312 0.0
9.46182 -0.0470783 0.0
9.831 -0.140755 0.0
8.22909 -0.131435 0.0
7.79139 -0.130735 0.0
9.50534 -0.053077 0.0
4.43054 -0.436575 0.0
24.7495 -1.05878 0.0
10.0764 0.0821892 0.0
9.98198 -0.0936084 0.0
9.91668 0.12093 0.0
9.35325 0.194852 0.0
6.40787 0.022688 0.0
9.76417 0.137436 0.0
10.6336 -1.07822 0.0
10.2044 0.0115422 0.0
3.55773 0.110325 0.0
9.50317 0.314571 0.0
1.69962 -0.0643074 0.0
10.16 0.12308 0.0
10.1053 0.166783 0.0
9.38852 0.199172 0.0
1.44001 0.119631 0.0
16.7384 -8.33666 0.0
10.2662 0.0302033 0.0
10.1304 0.128138 0.0
9.68939 -0.0251571 0.0
10.0122 -0.0208295 0.0
9.99135 0.135816 0.0
10.0773 0.13946 0.0
10.1645 0.0853183 0.0
10.2923 0.0679881 0.0
9.47084 0.215669 0.0
1.81404 0.0454851 0.0
5.39802 0.138503 0.0
10.0805 0.00633463 0.0
7.6994 6.2189 0.0
1.52474 -0.127547 0.0
3.22175 -0.0418216 0.0
12.141 -9.30714 0.0
9.84023 0.211924 0.0
9.83008 0.158327 0.0
5.53617 -0.0644134 0.0
9.80957 -0.0672854 0.0
9.89612 -0.0465901 0.0
8.22016 0.642407 0.0
3.24693 0.094196 0.0
1.77031 -0.0335167 0.0
10.7388 -1.28128 0.0
9.23805 0.381367 0.0
9.76857 -0.154392 0.0
10.1415 0.139808 0.0
7.15196 -1.01646 0.0
9.92455 0.161163 0.0
9.08267 0.258448 0.0
10.0955 -0.020813 0.0
1.70179 0.0447278 0.0
10.0779 0.124232 0.0
10.1457 -0.00457284 0.0
1.85269 -0.0275907 0.0
9.59793 0.212512 0.0
10.2648 0.0665408 0.0
10.131 0.197573 0.0
10.1397 0.0246295 0.0
9.8784 -0.0735377 0.0
10.206 0.0132711 0.0
9.61829 -0.212432 0.0
10.0563 -0.0696884 0.0
10.1426 0.0773823 0.0
10.0351 -0.00289831 0.0
9.79801 -0.0904623 0.0
1.81607 -0.0223265 0.0
10.117 0.0310179 0.0
9.79643 -0.106781 0.0
2.31587 0.0680148 0.0
10.1463 -0.00351535 0.0
3.56426 0.117514 0.0
10.0216 0.116913 0.0
9.87441 -0.0929137 0.0
10.1282 0.190648 0.0
10.151 -0.059962 0.0
10.0931 -0.00696925 0.0
10.0957 0.173403 0.0
6.28046 0.160656 0.0
9.80758 0.0416034 0.0
9.51031 0.143264 0.0
9.72916 0.140743 0.0
1.671 -0.0109043 0.0
10.0292 0.151274 0.0
10.0638 0.0443348 0.0
9.33623 -0.301384 0.0
2.86034 -0.239999 0.0
9.11683 0.227204 0.0
2.82294 0.167119 0.0
9.23097 -0.337681 0.0
9.70262 0.134753 0.0
9.18013 0.234126 0.0
9.62103 -0.0557272 0.0
9.80113 -0.112638 0.0
9.31261 0.246478 0.0
10.0014 -0.037656 0.0
21.7359 8.55045 0.0
8.88881 -0.281634 0.0
9.9083 0.0117259 0.0
10.1292 0.198685 0.0
10.1312 0.168218 0.0
10.1392 0.191894 0.0
9.87783 -0.103226 0.0
10.1808 0.196971 0.0
9.43469 -0.0749646 0.0
10.2286 0.171344 0.0
9.72404 -0.0324602 0.0
9.77787 -0.0142543 0.0
6.09696 0.22203 0.0
9.95698 0.127047 0.0
10.2113 0.194517 0.0
9.15812 -0.129945 0.0
10.1727 0.181538 0.0
9.88706 -0.0998859 0.0
9.81228 -0.10027 0.0
1.86689 0.050495 0.0
9.98709 -0.0258735 0.0
9.08607 0.238562 0.0
10.258 0.184163 0.0
8.68462 0.0654063 0.0
3.64969 0.147654 0.0
9.742 -0.041516 0.0
10.2307 0.141558 0.0
9.58568 0.0849691 0.0
9.21611 -0.0697681 0.0
9.82249 -0.0634294 0.0
10.2808 0.0762606 0.0
9.89962 -0.0772122 0.0
9.6193 0.00805669 0.0
8.13276 0.592168 0.0
10.0996 -0.0229798 0.0
10.3041 0.177445 0.0
10.1434 0.139202 0.0
5.93194 -0.0446699 0.0
9.94635 -0.0396116 0.0
9.06383 -0.0931557 0.0
2.01815 0.090203 0.0
3.37311 0.181071 0.0
9.90487 -0.0361219 0.0
10.1802 0.189414 0.0
9.56047 -0.12382 0.0
9.81754 -0.0115671 0.0
10.2945 0.120525 0.0
9.58647 -0.0824451 0.0
9.71787 -0.0562992 0.0
9.78597 0.0388715 0.0
9.03066 -0.0934644 0.0
9.45146 -0.0780374 0.0
10.3449 0.14078 0.0
9.09512 -0.0785743 0.0
10.4454 0.126676 0.0
9.55719 -0.133899 0.0
9.69406 -0.0960825 0.0
9.42168 -0.101217 0.0
8.98572 -0.113393 0.0
10.085 0.173095 0.0
9.89113 0.0111478 0.0
2.498 0.104636 0.0
3.76753 0.152495 0.0
10.3364 0.0389641 0.0
10.2943 -0.00649992 0.0
9.44497 0.22627 0.0
9.51744 0.0535343 0.0
9.56664 -0.0565041 0.0
10.168 0.195215 0.0
9.71995 0.0740286 0.0
10.102 0.178653 0.0
10.0422 -0.0238828 0.0
8.9503 -0.136075 0.0
9.38794 -0.145575 0.0
9.58474 -0.0357136 0.0
9.85094 0.0502175 0.0
10.3966 0.118575 0.0
10.0596 -0.0387462 0.0
9.40389 -0.122631 0.0
15.8164 5.82213 0.0
8.71461 -0.107995 0.0
9.39173 -0.140796 0.0
8.9227 -0.161517 0.0
10.0272 0.140161 0.0
9.62716 0.0793198 0.0
9.78345 0.0671359 0.0
9.56576 -0.121028 0.0
8.77985 -0.0925968 0.0
9.36299 0.0306306 0.0
10.2787 0.190917 0.0
8.90519 -0.17386 0.0
9.39713 -0.110542 0.0
9.53963 0.04668 0.0
6.78125 0.131238 0.0
10.006 0.151446 0.0
8.89265 -0.129248 0.0
6.02801 0.0902508 0.0
8.66529 -0.128545 0.0
9.7058 0.0512345 0.0
8.88515 -0.0376858 0.0
9.39287 -0.0430683 0.0
8.87776 -0.0887821 0.0
1.78911 -0.0372521 0.0
3.21051 -0.0682274 0.0
6.7043 0.196008 0.0
9.56789 -0.093588 0.0
9.56277 -0.00900605 0.0
9.48806 -0.00651743 0.0
9.64657 0.0069735 0.0
8.83742 0.0486145 0.0
3.68313 0.0888373 0.0
10.4034 0.153066 0.0
3.27704 -0.0701893 0.0
10.4058 0.0510536 0.0
9.49841 -0.0548056 0.0
8.62155 -0.154796 0.0
9.4227 0.0985862 0.0
8.57208 -0.184194 0.0
10.4366 -0.00101766 0.0
9.2868 0.11265 0.0
1.8416 -0.0362744 0.0
3.239 -0.0700736 0.0
9.57368 -0.0740346 0.0
2.0269 0.0540295 0.0
9.628 -0.0475203 0.0
8.55885 -0.170636 0.0
8.54444 -0.0817055 0.0
9.2849 0.0891778 0.0
9.62371 -0.0207094 0.0
10.479 0.0187372 0.0
9.16166 0.0816414 0.0
9.08721 0.0220439 0.0
3.25788 -0.0596841 0.0
1.91122 -0.0363743 0.0
5.77784 0.160168 0.0
8.50311 0.0212344 0.0
9.13962 0.126062 0.0
9.56879 -0.105134 0.0
8.97749 0.124687 0.0
9.86557 -0.00185063 0.0
5.85936 0.179817 0.0
8.84952 0.0678622 0.0
9.68082 -0.0852455 0.0
9.08775 -0.0214429 0.0
3.35349 0.0917502 0.0
1.74591 -0.0222193 0.0
1.48615 -0.0390732 0.0
1.85355 -0.0331772 0.0
3.29118 -0.0153248 0.0
3.51852 0.0846581 0.0
1.62717 -0.00666265 0.0
1.83507 0.0058613 0.0
3.19698 -0.0697388 0.0
1.76036 -0.0302127 0.0
1.89154 -0.0204234 0.0
2.02687 0.0639705 0.0
3.46783 -0.0628342 0.0
1.9487 0.0485527 0.0
3.14703 -0.0379538 0.0
1.88563 0.0485735 0.0
3.3603 -0.0332965 0.0
3.27978 0.0257219 0.0
1.81204 0.0874107 0.0
3.64683 0.0894116 0.0
3.19644 -0.0620531 0.0
3.12544 -0.052021 0.0
1.8464 0.120539 0.0
3.07704 -0.0269302 0.0
3.25826 0.128459 0.0
1.74781 0.0160683 0.0
3.1804 -0.0426267 0.0
1.94502 0.0293299 0.0
1.75405 0.0612587 0.0
3.0678 -0.0744351 0.0
1.86119 0.0888109 0.0
2.28128 0.0501076 0.0
1.88336 0.134627 0.0
1.6253 0.0574864 0.0
1.72547 -0.0128768 0.0
3.22936 0.00711095 0.0
1.80264 -0.0392812 0.0
1.84024 -0.0359484 0.0
1.90604 0.0869537 0.0
1.93449 0.0669037 0.0
1.87494 0.022739 0.0
1.81723 0.032791 0.0
1.57747 -0.0378369 0.0
1.77252 -0.0185804 0.0
2.20882 0.00205739 0.0
3.55981 -0.0049446 0.0
1.93661 -0.00726145 0.0
2.30122 0.0483768 0.0
3.09112 0.113709 0.0
2.99291 -0.0848179 0.0
1.76227 -0.0377267 0.0
1.91332 0.10312 0.0
1.80148 0.020644 0.0
3.32508 0.0519632 0.0
1.68588 0.0649247 0.0
1.8734 0.0501145 0.0
1.74755 -0.0323224 0.0
3.35439 0.154715 0.0
2.13774 -0.0450245 0.0
1.56859 0.0171009 0.0
1.773 0.0184161 0.0
1.50045 0.0336725 0.0
1.94872 0.0501961 0.0
1.93703 -0.0102822 0.0
2.8697 -0.0336776 0.0
1.354 -0.0112401 0.0
3.27437 0.172162 0.0
3.39949 0.0840694 0.0
9.74412 -0.0680299 0.0
9.60318 -0.0658054 0.0
9.9731 -0.0520694 0.0
8.81203 0.00937734 0.0
10.1769 -0.150208 0.0
10.3276 -0.0531428 0.0
8.82816 -0.00226002 0.0
10.2217 -0.155178 0.0
10.3768 -0.121231 0.0
10.2665 -0.165474 0.0
10.395 -0.0633779 0.0
9.20039 -0.00862283 0.0
9.80692 -0.054477 0.0
10.3147 -0.140696 0.0
9.57808 -0.0570829 0.0
10.1275 -0.106632 0.0
9.83372 -0.0904621 0.0
10.1247 -0.0821978 0.0