# vtk DataFile Version 3.0
Malha 2D com triângulos e temperatura
ASCII
DATASET UNSTRUCTURED_GRID

POINTS 1194 double
0 0 0
5 0 0
5 1 0
0 1 0
0.85 0.5 0
0.842388 0.538268 0
0.820711 0.570711 0
0.788268 0.592388 0
0.75 0.6 0
0.711732 0.592388 0
0.679289 0.570711 0
0.657612 0.538268 0
0.65 0.5 0
0.657612 0.461732 0
0.679289 0.429289 0
0.711732 0.407612 0
0.75 0.4 0
0.788268 0.407612 0
0.820711 0.429289 0
0.842388 0.461732 0
0.0793651 0 0
0.15873 0 0
0.238095 0 0
0.31746 0 0
0.396825 0 0
0.47619 0 0
0.555556 0 0
0.634921 0 0
0.714286 0 0
0.793651 0 0
0.873016 0 0
0.952381 0 0
1.03175 0 0
1.11111 0 0
1.19048 0 0
1.26984 0 0
1.34921 0 0
1.42857 0 0
1.50794 0 0
1.5873 0 0
1.66667 0 0
1.74603 0 0
1.8254 0 0
1.90476 0 0
1.98413 0 0
2.06349 0 0
2.14286 0 0
2.22222 0 0
2.30159 0 0
2.38095 0 0
2.46032 0 0
2.53968 0 0
2.61905 0 0
2.69841 0 0
2.77778 0 0
2.85714 0 0
2.93651 0 0
3.01587 0 0
3.09524 0 0
3.1746 0 0
3.25397 0 0
3.33333 0 0
3.4127 0 0
3.49206 0 0
3.57143 0 0
3.65079 0 0
3.73016 0 0
3.80952 0 0
3.88889 0 0
3.96825 0 0
4.04762 0 0
4.12698 0 0
4.20635 0 0
4.28571 0 0
4.36508 0 0
4.44444 0 0
4.52381 0 0
4.60317 0 0
4.68254 0 0
4.7619 0 0
4.84127 0 0
4.92063 0 0
5 0.0769231 0
5 0.153846 0
5 0.230769 0
5 0.307692 0
5 0.384615 0
5 0.461538 0
5 0.538462 0
5 0.615385 0
5 0.692308 0
5 0.769231 0
5 0.846154 0
5 0.923077 0
4.92063 1 0
4.84127 1 0
4.7619 1 0
4.68254 1 0
4.60317 1 0
4.52381 1 0
4.44444 1 0
4.36508 1 0
4.28571 1 0
4.20635 1 0
4.12698 1 0
4.04762 1 0
3.96825 1 0
3.88889 1 0
3.80952 1 0
3.73016 1 0
3.65079 1 0
3.57143 1 0
3.49206 1 0
3.4127 1 0
3.33333 1 0
3.25397 1 0
3.1746 1 0
3.09524 1 0
3.01587 1 0
2.93651 1 0
2.85714 1 0
2.77778 1 0
2.69841 1 0
2.61905 1 0
2.53968 1 0
2.46032 1 0
2.38095 1 0
2.30159 1 0
2.22222 1 0
2.14286 1 0
2.06349 1 0
1.98413 1 0
1.90476 1 0
1.8254 1 0
1.74603 1 0
1.66667 1 0
1.5873 1 0
1.50794 1 0
1.42857 1 0
1.34921 1 0
1.26984 1 0
1.19048 1 0
1.11111 1 0
1.03175 1 0
0.952381 1 0
0.873016 1 0
0.793651 1 0
0.714286 1 0
0.634921 1 0
0.555556 1 0
0.47619 1 0
0.396825 1 0
0.31746 1 0
0.238095 1 0
0.15873 1 0
0.0793651 1 0
0 0.923077 0
0 0.846154 0
0 0.769231 0
0 0.692308 0
0 0.615385 0
0 0.538462 0
0 0.461538 0
0 0.384615 0
0 0.307692 0
0 0.230769 0
0 0.153846 0
0 0.0769231 0
0.879698 0.466718 0
1.3085 0.931947 0
1.30532 0.0638546 0
4.93832 0.504275 0
0.620452 0.46964 0
3.99858 0.0669607 0
1.63721 0.934258 0
3.3751 0.0523709 0
4.3254 0.0687322 0
2.42354 0.0642082 0
2.97619 0.0687322 0
2.02101 0.0693621 0
3.68108 0.0581336 0
2.65899 0.932655 0
4.178 0.939994 0
3.21614 0.938179 0
2.25483 0.919987 0
3.53215 0.928998 0
3.84921 0.931268 0
1.69647 0.0674297 0
1.94349 0.930209 0
4.48413 0.931268 0
2.97813 0.942022 0
2.74097 0.0673855 0
0.859645 0.573263 0
0.639718 0.573116 0
0.0651563 0.652836 0
0.0635304 0.346121 0
4.56232 0.0679683 0
0.830393 0.392645 0
0.669618 0.39275 0
1.06185 0.0668897 0
0.440193 0.0680031 0
1.06474 0.93511 0
0.446074 0.935974 0
0.724697 0.630698 0
4.72268 0.931235 0
4.93065 0.267192 0
0.589836 0.936152 0
0.92338 0.0562425 0
0.590207 0.0623339 0
0.755872 0.0732784 0
0.838039 0.936714 0
4.92573 0.732039 0
0.281717 0.93783 0
0.28208 0.0811877 0
0.065248 0.503161 0
1.46076 0.0637037 0
4.72574 0.0661877 0
4.31028 0.937908 0
3.21429 0.0687322 0
1.46639 0.932632 0
3.6897 0.928155 0
2.42063 0.931268 0
3.5364 0.0691789 0
2.25998 0.0676208 0
1.78735 0.937047 0
4.01535 0.920637 0
1.85469 0.0674188 0
3.83991 0.0626292 0
3.37477 0.929368 0
2.58225 0.0657863 0
2.81746 0.932342 0
4.16667 0.0687322 0
2.11402 0.935574 0
0.0614266 0.197046 0
0.0612841 0.803003 0
4.88273 0.0644126 0
4.87774 0.933272 0
0.859645 0.426737 0
0.903081 0.436592 0
0.923672 0.473385 0
0.948706 0.439078 0
0.969155 0.479795 0
0.996593 0.439791 0
1.0202 0.484937 0
1.04667 0.440138 0
1.07382 0.489694 0
1.1034 0.440801 0
1.13169 0.49612 0
1.16603 0.445058 0
1.1931 0.504331 0
1.22956 0.450883 0
1.25923 0.506004 0
1.29683 0.453139 0
1.32923 0.510343 0
1.36603 0.454344 0
1.03276 0.530395 0
1.40063 0.516169 0
1.43576 0.454934 0
1.47042 0.520776 0
1.51069 0.46142 0
1.54422 0.526371 0
1.58547 0.465572 0
1.61942 0.531773 0
1.66033 0.468788 0
1.69546 0.536793 0
1.73713 0.472812 0
1.77239 0.541977 0
1.81532 0.478494 0
1.85006 0.547285 0
1.89327 0.483449 0
1.92802 0.55361 0
1.97142 0.488546 0
2.00623 0.558966 0
2.04984 0.493518 0
2.08483 0.564085 0
2.12847 0.498462 0
2.16353 0.569137 0
2.20719 0.503331 0
0.961579 0.391697 0
1.22451 0.565337 0
2.24238 0.574192 0
2.28611 0.508258 0
2.32134 0.579247 0
2.36519 0.513325 0
2.40036 0.584295 0
2.44425 0.51834 0
2.47944 0.589336 0
2.52334 0.523355 0
2.55853 0.594372 0
2.60245 0.52837 0
2.63764 0.599431 0
2.68159 0.533388 0
2.64637 0.462336 0
2.72553 0.467349 0
2.76076 0.538418 0
2.8047 0.47237 0
2.83993 0.543451 0
2.88387 0.477399 0
2.91911 0.548482 0
2.96305 0.482427 0
2.9983 0.553514 0
3.04224 0.487456 0
3.07749 0.558545 0
3.12143 0.492477 0
3.15668 0.563574 0
3.20063 0.497514 0
3.23588 0.568605 0
3.27983 0.502542 0
3.31508 0.573635 0
3.35903 0.507562 0
3.39428 0.578663 0
3.43823 0.5126 0
3.47348 0.583694 0
3.51744 0.517628 0
3.55268 0.588724 0
3.59664 0.522646 0
3.63189 0.593752 0
3.67585 0.527673 0
3.71109 0.598781 0
3.75505 0.532702 0
3.7903 0.60381 0
3.83426 0.537731 0
3.79901 0.466623 0
3.87821 0.471754 0
3.91346 0.542777 0
3.95742 0.476701 0
3.99267 0.547795 0
4.03662 0.481715 0
4.07187 0.552815 0
4.11582 0.486743 0
4.15106 0.55783 0
4.195 0.491782 0
4.23023 0.562843 0
4.27415 0.49682 0
4.30937 0.567866 0
4.35325 0.501915 0
4.38842 0.572845 0
4.43227 0.506997 0
4.46737 0.577575 0
4.51106 0.511995 0
4.54622 0.582183 0
1.13571 0.390292 0
4.47606 0.441361 0
4.55475 0.446396 0
2.32985 0.442214 0
3.5614 0.451571 0
3.08619 0.421408 0
2.09339 0.427815 0
1.42887 0.583001 0
2.84864 0.406329 0
3.32378 0.43649 0
4.23911 0.425894 0
1.54723 0.39251 0
1.77883 0.406811 0
1.33959 0.387065 0
3.92239 0.405803 0
4.08079 0.415776 0
2.48812 0.452349 0
1.57935 0.603183 0
1.93602 0.417543 0
1.72453 0.617973 0
3.11273 0.629643 0
2.69029 0.396284 0
3.94662 0.623383 0
1.88466 0.613248 0
2.79598 0.609502 0
4.10826 0.620575 0
2.04005 0.62838 0
2.95434 0.619575 0
4.51981 0.375801 0
4.59833 0.380943 0
4.63314 0.451296 0
4.26693 0.63114 0
2.19619 0.645921 0
4.4246 0.642296 0
3.27112 0.639707 0
2.35729 0.649822 0
2.51462 0.660373 0
3.42952 0.649769 0
4.67669 0.38601 0
3.58793 0.659829 0
3.74634 0.669888 0
4.64195 0.315733 0
4.44109 0.370647 0
4.48493 0.305066 0
4.40614 0.29989 0
4.71136 0.456133 0
4.72014 0.320758 0
0.8692 0.382093 0
0.841252 0.348256 0
0.886481 0.338703 0
0.853127 0.301457 0
0.902583 0.287335 0
0.801683 0.321689 0
0.818113 0.263019 0
0.764765 0.277091 0
4.44702 0.235678 0
0.946267 0.520761 0
0.78107 0.221265 0
0.726309 0.234724 0
0.848273 0.20551 0
4.68545 0.250576 0
4.37074 0.227561 0
4.76365 0.255792 0
4.79822 0.326145 0
0.713664 0.287231 0
0.672358 0.247957 0
0.68673 0.192342 0
0.630368 0.2085 0
0.616569 0.265341 0
0.574186 0.225456 0
0.557393 0.28131 0
0.52004 0.242373 0
0.504416 0.299685 0
0.462273 0.252096 0
0.44798 0.316739 0
0.404567 0.276951 0
0.390546 0.335414 0
0.434669 0.37657 0
0.377935 0.394545 0
0.421979 0.43426 0
0.365682 0.452846 0
0.409646 0.492216 0
0.353389 0.51089 0
0.397738 0.551598 0
0.339864 0.570301 0
0.385899 0.612153 0
0.325913 0.631557 0
0.344507 0.29318 0
0.320568 0.413067 0
0.373553 0.673852 0
0.434438 0.653082 0
0.311416 0.69481 0
0.449777 0.528305 0
0.293513 0.534612 0
0.421431 0.715204 0
0.480917 0.696603 0
0.54504 0.34471 0
0.262743 0.649913 0
0.246209 0.712341 0
0.468564 0.755948 0
0.526091 0.735423 0
0.538207 0.68039 0
0.581228 0.716342 0
0.408756 0.777952 0
0.36234 0.239019 0
0.297047 0.251925 0
0.572109 0.771575 0
0.624906 0.752173 0
0.474824 0.414151 0
0.534351 0.182707 0
0.633682 0.70159 0
0.674547 0.736174 0
0.66826 0.788959 0
0.721117 0.76834 0
0.714515 0.825486 0
0.769074 0.802008 0
0.775287 0.746591 0
0.821903 0.778625 0
0.826767 0.726064 0
0.873257 0.756032 0
0.872997 0.697261 0
0.92331 0.732304 0
0.930014 0.67838 0
0.976061 0.710612 0
0.92456 0.784469 0
0.982178 0.654421 0
1.03016 0.688004 0
1.02037 0.747059 0
1.08 0.723819 0
1.08651 0.661896 0
1.1397 0.698204 0
1.13262 0.763657 0
1.19424 0.736545 0
1.18556 0.80161 0
1.24839 0.771772 0
1.25723 0.706382 0
1.31432 0.745787 0
4.66801 0.521361 0
4.74602 0.526202 0
4.70285 0.591278 0
4.78076 0.596023 0
4.73763 0.661207 0
4.78904 0.460969 0
2.61113 0.391267 0
2.65506 0.325217 0
2.57588 0.320198 0
2.61982 0.254148 0
2.69899 0.259163 0
2.54065 0.249131 0
2.49672 0.315179 0
2.46148 0.244124 0
2.41757 0.310166 0
2.38233 0.239117 0
2.33843 0.30514 0
2.30297 0.237979 0
2.25928 0.300748 0
2.22079 0.221377 0
2.17969 0.293884 0
2.14114 0.224266 0
2.10047 0.289841 0
2.0653 0.219144 0
2.02202 0.284919 0
1.98701 0.214164 0
1.94336 0.279863 0
3.82315 0.673327 0
3.78135 0.738156 0
3.86451 0.735958 0
3.70234 0.735494 0
4.52513 0.244409 0
4.32717 0.294467 0
4.29217 0.221862 0
0.619934 0.539507 0
0.599432 0.577132 0
0.575955 0.542712 0
0.554504 0.58245 0
4.65962 0.656481 0
4.69438 0.726169 0
4.6161 0.721747 0
4.77259 0.731352 0
4.65076 0.791486 0
4.57153 0.788793 0
4.2482 0.289182 0
4.21307 0.218308 0
4.1691 0.284563 0
4.13394 0.21352 0
0.835918 0.606341 0
0.806475 0.6384 0
4.08995 0.279537 0
0.640355 0.426737 0
0.596214 0.435837 0
0.630358 0.379178 0
0.689967 0.627735 0
1.90832 0.209948 0
1.86468 0.27519 0
1.82968 0.20518 0
1.78607 0.269797 0
0.281841 0.313314 0
0.232117 0.268621 0
0.216861 0.334396 0
4.05473 0.209347 0
4.01077 0.2745 0
3.97554 0.204394 0
3.93159 0.269388 0
0.297409 0.759367 0
0.231645 0.782943 0
0.180008 0.73598 0
1.32151 0.676369 0
1.38055 0.718092 0
1.36901 0.793947 0
1.43945 0.766002 0
0.249902 0.198865 0
0.932364 0.624392 0
1.75117 0.201034 0
1.70771 0.264658 0
1.673 0.195402 0
1.62985 0.260294 0
1.59532 0.191927 0
1.55236 0.254233 0
3.89629 0.200227 0
3.85238 0.264494 0
3.81708 0.195303 0
3.77304 0.259453 0
2.66368 0.189084 0
2.74279 0.19534 0
2.77814 0.264556 0
2.82201 0.199823 0
2.85733 0.269552 0
2.90126 0.203886 0
2.93654 0.274416 0
2.98045 0.20868 0
3.01573 0.279376 0
3.0597 0.213193 0
[...]
CELL_DATA 2220
VECTORS velocity double
19.2419 -1.65248 0.0
14.1681 0.454523 0.0
22.6783 5.90049 0.0
22.547 1.12461 0.0
19.6273 -1.98362 0.0
24.6496 -1.05885 0.0
11.9943 0.436261 0.0
13.3227 -0.0131288 0.0
24.6675 10.9186 0.0
24.2177 -0.719895 0.0
16.1584 16.5709 0.0
12.6809 0.265756 0.0
10.1443 0.195234 0.0
21.6332 -6.34378 0.0
20.6407 15.5152 0.0
16.3425 10.9669 0.0
13.8038 0.589465 0.0
11.1727 0.522479 0.0
12.5469 -0.122959 0.0
13.5452 -0.104602 0.0
19.2294 4.48524 0.0
37.3578 -6.20375 0.0
12.9429 0.576667 0.0
13.1432 0.5228 0.0
23.0327 -1.03159 0.0
19.8271 -5.25126 0.0
19.9407 -2.23863 0.0
11.3143 0.511133 0.0
22.2702 1.19144 0.0
25.0781 1.134 0.0
18.4318 -3.1406 0.0
29.9836 0.131915 0.0
9.38849 -0.109725 0.0
28.4227 -12.6829 0.0
43.6314 1.71531 0.0
24.7967 -1.20025 0.0
42.7682 2.56858 0.0
10.9245 -0.11305 0.0
26.1723 1.3774 0.0
25.5489 -1.83685 0.0
12.1834 -1.20022 0.0
24.6803 9.90653 0.0
18.9317 0.935706 0.0
12.1974 0.0276551 0.0
11.0119 -0.0160589 0.0
9.93895 0.0299754 0.0
12.7282 0.557749 0.0
10.0605 -0.0054969 0.0
24.0362 -0.61538 0.0
25.9456 0.396241 0.0
15.2252 3.52327 0.0
10.0262 0.10094 0.0
12.4462 0.572455 0.0
12.6484 0.115823 0.0
11.5599 0.506586 0.0
25.4181 -2.4067 0.0
31.9902 -0.403886 0.0
10.5906 0.506099 0.0
10.9681 0.505028 0.0
26.2566 0.295803 0.0
0.173992 -4.10065 0.0
23.9917 -1.60937 0.0
19.9666 -4.18496 0.0
12.748 0.574508 0.0
12.6166 0.60733 0.0
30.6256 -11.2496 0.0
17.8274 -1.12213 0.0
18.612 10.2236 0.0
10.7378 0.58952 0.0
10.9247 0.541024 0.0
12.5324 0.166007 0.0
30.057 11.6436 0.0
9.8326 0.157822 0.0
25.2959 0.817832 0.0
29.0205 -1.53464 0.0
43.7719 -0.339549 0.0
22.1174 4.15026 0.0
15.1281 -3.25619 0.0
22.7436 9.74705 0.0
11.929 0.11483 0.0
21.0601 2.70483 0.0
26.0883 2.68507 0.0
13.5429 -0.245623 0.0
9.83861 0.106041 0.0
12.3221 0.429363 0.0
12.2731 0.233985 0.0
17.6327 -2.01778 0.0
10.2749 0.203419 0.0
10.4518 0.349073 0.0
25.5594 11.2712 0.0
24.089 -3.77022 0.0
15.6758 4.1845 0.0
12.6516 -0.153749 0.0
21.6024 5.69854 0.0
42.9959 0.105549 0.0
25.453 1.97592 0.0
38.8029 4.90463 0.0
3.32631 -18.0246 0.0
0.91641 -3.21857 0.0
26.2343 13.3806 0.0
-6.13529 -18.2319 0.0
18.1912 -4.13786 0.0
12.5573 0.517819 0.0
10.7455 0.989908 0.0
38.6057 -5.80324 0.0
43.5813 -1.03485 0.0
25.1286 -0.884969 0.0
25.9034 -1.22044 0.0
3.75602 -0.0739595 0.0
12.743 1.04801 0.0
28.4018 1.02469 0.0
24.5025 -7.93836 0.0
24.9587 -0.723026 0.0
10.0863 -0.584889 0.0
25.1939 -2.28349 0.0
10.7038 0.45591 0.0
20.2728 -5.13117 0.0
16.8844 -0.43565 0.0
2.27922 -20.7113 0.0
26.7397 10.414 0.0
14.4599 -2.59594 0.0
34.0503 -0.653645 0.0
12.4287 3.11953 0.0
32.444 -8.65321 0.0
44.1169 0.858722 0.0
10.8358 -11.4906 0.0
43.0974 -1.62317 0.0
21.5046 1.04921 0.0
23.2766 -7.4843 0.0
-2.70542 9.03481 0.0
10.6417 1.02199 0.0
33.1672 4.54641 0.0
27.0666 5.85938 0.0
12.6891 4.7408 0.0
25.7134 1.4574 0.0
10.6104 5.03166 0.0
9.17199 0.00039832 0.0
16.7731 -3.48247 0.0
13.5499 -12.4697 0.0
31.0567 0.520671 0.0
18.5691 -4.49652 0.0
11.992 -0.025932 0.0
24.7746 -2.91361 0.0
43.6304 0.499628 0.0
24.8102 0.768751 0.0
19.6001 5.00143 0.0
-9.83298 9.05542 0.0
6.85874 -18.6782 0.0
25.4456 2.24714 0.0
25.7025 -1.73795 0.0
10.698 -0.250558 0.0
26.3748 9.29453 0.0
34.5935 -0.0142006 0.0
29.1024 -10.8096 0.0
6.41389 4.18019 0.0
13.6028 0.212967 0.0
20.4307 -1.38142 0.0
14.1091 0.357091 0.0
9.95646 -0.812705 0.0
14.0887 -3.39712 0.0
30.9511 8.48038 0.0
10.8063 0.0430224 0.0
-10.1542 -9.30046 0.0
30.0584 0.127162 0.0
9.76552 0.0934352 0.0
29.3733 -12.2197 0.0
20.3181 -14.4062 0.0
44.4116 0.399837 0.0
13.502 0.152028 0.0
23.8756 10.9238 0.0
-4.7614 15.1577 0.0
9.62098 0.0455578 0.0
12.449 0.0822963 0.0
-3.31302 -9.35169 0.0
5.72398 -5.08592 0.0
22.5496 8.79355 0.0
20.593 4.10662 0.0
20.8061 8.12791 0.0
7.73523 -1.6865 0.0
13.415 0.0721088 0.0
33.4653 -0.274925 0.0
14.9942 -3.54099 0.0
16.9271 -15.7414 0.0
2.64461 14.5632 0.0
13.605 -0.0047164 0.0
21.8087 -1.70296 0.0
43.426 0.124797 0.0
10.9423 -0.192753 0.0
40.3856 3.82484 0.0
44.3546 0.240492 0.0
11.9146 -0.978518 0.0
10.6758 -0.180588 0.0
24.8352 -8.76672 0.0
25.5815 1.86797 0.0
20.5067 -0.441623 0.0
43.3104 -0.280854 0.0
18.1175 0.609532 0.0
12.3454 -0.306572 0.0
5.9338 -0.304791 0.0
12.6368 -0.396123 0.0
11.6169 -2.86245 0.0
16.7542 -0.526629 0.0
33.035 -10.0961 0.0
12.7322 -0.0524342 0.0
12.4101 1.38445 0.0
17.3301 -3.17721 0.0
20.0567 -4.05201 0.0
11.7551 0.0464468 0.0
18.0714 0.819267 0.0
7.04855 -1.24693 0.0
12.4665 0.5516 0.0
10.7733 18.611 0.0
17.5471 -0.165944 0.0
21.6452 10.5467 0.0
22.8177 5.22945 0.0
13.4657 1.27765 0.0
10.5486 0.508734 0.0
12.5079 0.704922 0.0
8.72532 1.79829 0.0
29.5019 0.893765 0.0
24.6857 0.471162 0.0
6.12115 -0.139735 0.0
10.5278 0.657161 0.0
5.81651 -0.0393512 0.0
12.6377 -0.0358822 0.0
15.0716 -0.653132 0.0
12.4505 -2.37021 0.0
19.502 15.9833 0.0
24.0274 -5.42085 0.0
10.6034 0.346725 0.0
15.8043 0.788343 0.0
16.918 -1.31855 0.0
8.71143 -0.0317291 0.0
12.9849 -0.0864656 0.0
10.9232 -0.24513 0.0
43.9044 0.12567 0.0
4.47812 -7.13254 0.0
12.5352 -0.183277 0.0
12.4291 -0.208991 0.0
11.0808 -0.0420739 0.0
42.9775 -0.150533 0.0
34.1558 9.27995 0.0
40.5723 -3.92553 0.0
6.4906 0.00661633 0.0
11.9554 4.22873 0.0
25.526 -0.0108075 0.0
13.6483 -0.124208 0.0
30.7598 -0.730031 0.0
5.02944 5.07428 0.0
19.3005 0.601175 0.0
10.5229 -4.40515 0.0
6.50247 -0.048006 0.0
18.5407 -13.9427 0.0
24.2048 -0.134633 0.0
21.682 -6.4027 0.0
12.3055 0.313574 0.0
-10.2268 1.66006 0.0
24.9139 0.1594 0.0
20.2961 -0.080825 0.0
43.2816 0.202669 0.0
14.0499 -0.259047 0.0
35.3278 -0.416622 0.0
10.5423 0.543381 0.0
16.8886 -4.32199 0.0
6.35142 -0.539259 0.0
7.62447 -0.0635371 0.0
11.6791 -0.519941 0.0
9.69193 -4.71293 0.0
16.7078 4.39892 0.0
25.7617 -0.0673004 0.0
22.9253 0.898665 0.0
24.0714 0.0328483 0.0
10.352 0.257432 0.0
24.0371 -1.61307 0.0
2.35701 -11.5832 0.0
41.8256 -2.51966 0.0
20.6281 -14.3396 0.0
14.2297 -2.46018 0.0
12.4715 2.88659 0.0
12.8881 0.0758349 0.0
8.89316 -14.9545 0.0
23.791 -0.0391126 0.0
41.6788 -0.561975 0.0
17.2303 0.627697 0.0
23.8568 -1.41377 0.0
15.8388 -0.365898 0.0
33.1526 -0.257785 0.0
16.6819 0.579357 0.0
10.7705 -0.152718 0.0
10.3812 -0.179146 0.0
-10.2204 -2.11791 0.0
11.9528 -1.09862 0.0
7.4901 1.62825 0.0
13.2922 -3.31887 0.0
13.9763 -1.51909 0.0
16.1733 -0.180066 0.0
16.4082 -0.156397 0.0
20.3255 0.331705 0.0
39.9026 -3.76704 0.0
23.663 4.98822 0.0
9.57393 -0.546717 0.0
23.3244 8.03388 0.0
22.7968 -6.73756 0.0
7.18674 0.0592757 0.0
17.5781 -12.1172 0.0
13.2805 0.552375 0.0
10.1075 -0.0517728 0.0
10.5232 -0.189833 0.0
15.43 0.282421 0.0
6.71203 1.25338 0.0
10.7028 1.83129 0.0
7.54004 2.02772 0.0
3.38466 18.1369 0.0
41.5045 -1.43656 0.0
29.9777 11.7494 0.0
12.2055 -0.196725 0.0
21.1546 6.78161 0.0
11.0369 0.00307552 0.0
43.5712 -0.229346 0.0
23.9232 5.52948 0.0
20.8686 14.3545 0.0
12.475 3.03092 0.0
24.482 0.189241 0.0
11.2713 0.109348 0.0
7.76559 3.33247 0.0
9.38029 -1.72333 0.0
24.0813 0.0952069 0.0
23.6518 1.00143 0.0
25.1513 0.478602 0.0
8.55094 -1.79676 0.0
18.8632 -10.8861 0.0
43.0757 1.07737 0.0
16.024 -3.8228 0.0
10.4648 -0.477757 0.0
29.7244 -10.5382 0.0
43.021 -0.388396 0.0
23.1926 -0.838467 0.0
23.807 7.98656 0.0
33.9577 -1.01277 0.0
12.3417 -0.212358 0.0
6.84944 0.859728 0.0
11.001 -0.212219 0.0
6.22929 -0.127446 0.0
5.37134 -0.800424 0.0
18.3588 15.9226 0.0
24.1027 9.46259 0.0
7.6917 2.33296 0.0
23.6735 6.4922 0.0
24.5388 3.72228 0.0
4.53793 -0.90289 0.0
32.6321 -8.14534 0.0
4.0375 0.78174 0.0
6.20251 0.182526 0.0
12.9547 10.3391 0.0
6.15547 0.802989 0.0
44.1308 -0.00443759 0.0
33.1384 -9.22176 0.0
3.52809 -0.335888 0.0
23.5344 0.671621 0.0
29.1198 -0.971995 0.0
23.8276 3.86726 0.0
6.31322 18.6718 0.0
20.3208 5.93093 0.0
23.6957 5.06919 0.0
5.75115 0.258166 0.0
26.2349 0.642041 0.0
38.1694 6.52978 0.0
4.08019 -0.823346 0.0
6.06024 -0.209758 0.0
35.4903 -0.829758 0.0
4.18163 0.864427 0.0
39.1788 -4.69798 0.0
32.7526 9.7221 0.0
13.7084 -0.679149 0.0
5.642 -0.0567755 0.0
12.471 0.389608 0.0
17.3094 0.354888 0.0
17.4823 0.116356 0.0
43.591 -0.00175769 0.0
16.3113 -0.117914 0.0
12.0841 0.616728 0.0
42.3061 0.116696 0.0
43.8968 -0.103171 0.0
25.0259 0.279125 0.0
40.7323 0.507732 0.0
23.655 -0.10309 0.0
38.5564 -5.17637 0.0
24.4692 0.14278 0.0
20.8646 -5.92524 0.0
24.0161 2.87753 0.0
10.0025 0.626455 0.0
22.8678 0.0439188 0.0
28.6766 -0.605908 0.0
20.2244 -5.83257 0.0
8.75765 -0.697892 0.0
11.7711 -1.84142 0.0
42.9974 0.200606 0.0
8.42449 0.545419 0.0
24.498 0.139858 0.0
42.0205 0.46866 0.0
7.00876 0.21316 0.0
23.8388 3.90853 0.0
23.2591 4.4166 0.0
24.8607 0.0876448 0.0
37.3655 7.25701 0.0
40.8925 4.38988 0.0
5.20161 2.22608 0.0
6.393 0.995204 0.0
20.5805 1.13812 0.0
26.1891 -12.0655 0.0
13.2696 -14.0333 0.0
5.15944 0.852889 0.0
40.0498 0.0331025 0.0
22.7001 -5.53836 0.0
42.2604 -0.446457 0.0
24.8627 0.0983076 0.0
3.96636 -0.129189 0.0
3.72136 0.709367 0.0
24.6557 8.87025 0.0
6.00059 0.110852 0.0
23.7475 6.43742 0.0
40.23 0.705997 0.0
4.08454 0.00159665 0.0
6.02117 -0.0385897 0.0
23.3062 3.36097 0.0
22.7144 0.336489 0.0
3.87243 0.137454 0.0
20.4525 -0.119367 0.0
24.5614 0.15808 0.0
6.70688 -0.971815 0.0
24.8917 0.104169 0.0
21.6994 3.2604 0.0
41.6825 -0.695423 0.0
24.0398 2.12164 0.0
6.54422 -0.489332 0.0
39.0154 5.37715 0.0
5.04661 -0.906564 0.0
6.38507 0.363063 0.0
17.2503 -9.6075 0.0
6.2248 0.37434 0.0
21.8263 4.22534 0.0
23.439 2.51975 0.0
38.2524 4.55638 0.0
41.6169 3.07636 0.0
10.3123 -0.857741 0.0
17.4061 3.3769 0.0
42.127 0.441012 0.0
3.62635 -0.445461 0.0
3.31515 0.449734 0.0
10.9531 -0.841628 0.0
9.9608 0.78494 0.0
24.6381 -0.529196 0.0
6.99457 -0.335248 0.0
22.6743 0.619949 0.0
24.966 1.2479 0.0
6.06242 0.664616 0.0
11.8834 0.575981 0.0
23.2835 5.68116 0.0
6.73716 0.303936 0.0
23.8162 1.49283 0.0
21.5991 2.4826 0.0
23.3766 0.32339 0.0
6.061 -0.406131 0.0
4.70435 0.288497 0.0
7.59265 0.586016 0.0
17.645 -0.246147 0.0
8.79947 -0.878001 0.0
24.9654 0.127915 0.0
3.96381 0.0759597 0.0
40.6916 2.28978 0.0
6.62441 -0.37359 0.0
3.31589 0.535277 0.0
14.5586 -1.15814 0.0
23.5285 7.10125 0.0
6.47295 -0.75148 0.0
23.3809 0.256752 0.0
23.1754 1.85126 0.0
22.2732 4.20086 0.0
24.6726 0.174414 0.0
21.436 1.87669 0.0
13.8678 -1.99722 0.0
31.0033 -8.84886 0.0
24.6787 -3.25776 0.0
21.2513 1.39196 0.0
6.36839 -0.537248 0.0
6.79511 0.560438 0.0
42.171 -0.114697 0.0
3.12326 0.30456 0.0
32.7167 -0.620311 0.0
14.9464 3.48671 0.0
24.7942 0.171086 0.0
3.20469 0.369864 0.0
3.72404 -0.565455 0.0
23.0364 1.31346 0.0
23.9649 8.53917 0.0
17.9481 -0.131235 0.0
29.2285 -0.861671 0.0
21.7519 0.0674871 0.0
25.781 -0.819378 0.0
12.0987 -4.18268 0.0
22.0411 -0.0865897 0.0
20.5895 2.76017 0.0
3.43699 -0.231531 0.0
21.1051 1.00699 0.0
17.8444 2.82866 0.0
10.9284 -0.454016 0.0
24.5757 0.291846 0.0
4.21319 -0.321488 0.0
4.65463 0.327638 0.0
20.7451 3.57956 0.0
22.6702 -0.110572 0.0
21.7337 -0.756295 0.0
12.8011 -0.11656 0.0
22.5122 0.740038 0.0
25.0636 0.143009 0.0
22.7264 -4.15616 0.0
3.95998 0.822108 0.0
23.4273 0.458431 0.0
24.5545 -3.74106 0.0
20.2633 1.60506 0.0
20.1265 2.03603 0.0
7.58499 -1.3803 0.0
28.8626 -11.8737 0.0
5.20809 -2.92559 0.0
24.0915 -13.5074 0.0
23.176 -0.851646 0.0
24.504 4.15817 0.0
23.0694 0.944666 0.0
4.09911 -0.723164 0.0
21.0159 0.726707 0.0
21.0265 1.20421 0.0
20.0958 1.20399 0.0
25.5969 0.0863099 0.0
20.4453 2.11043 0.0
22.8113 0.618153 0.0
24.8438 -0.652047 0.0
23.5151 -3.38936 0.0
8.07788 -2.05383 0.0
41.1895 -0.704222 0.0
10.2264 -0.10585 0.0
18.7242 -2.42406 0.0
6.92636 -3.76316 0.0
35.0692 8.00792 0.0
25.2215 0.107137 0.0
2.86807 -0.23447 0.0
2.94284 0.24238 0.0
22.7172 0.441151 0.0
39.6484 0.765698 0.0
20.9886 0.542685 0.0
16.134 2.67647 0.0
3.87149 -0.16326 0.0
6.30489 -0.242016 0.0
5.10653 0.380222 0.0
2.79983 1.17495 0.0
5.63778 -2.04319 0.0
23.9239 -5.0483 0.0
25.6831 0.074495 0.0
38.393 5.88836 0.0
1.0365 0.644323 0.0
19.0816 -0.0445596 0.0
20.2633 -0.0459939 0.0
19.2827 -1.69798 0.0
17.0558 3.25983 0.0
1.1436 -0.623461 0.0
2.99122 -1.07146 0.0
17.5346 0.328239 0.0
19.8241 0.797054 0.0
20.0192 0.887558 0.0
14.8888 -1.50627 0.0
22.6736 -0.0549161 0.0
44.0992 -0.273806 0.0
23.4031 -0.0501562 0.0
19.2014 2.51228 0.0
24.9598 0.0879944 0.0
3.80067 -0.235626 0.0
23.3292 7.11217 0.0
24.855 0.262004 0.0
23.4285 0.24004 0.0
24.6238 0.0560628 0.0
21.3561 -1.05826 0.0
3.65457 0.163786 0.0
24.8965 -0.0208338 0.0
4.78355 -0.459611 0.0
10.8557 1.21611 0.0
16.8605 -0.141186 0.0
20.9937 0.439801 0.0
19.9697 0.656397 0.0
23.9146 0.620596 0.0
24.5457 0.537295 0.0
24.0277 0.736214 0.0
3.05891 0.212843 0.0
5.79874 0.373388 0.0
5.18605 -0.285487 0.0
25.128 0.156269 0.0
22.7595 0.290809 0.0
41.6556 0.551019 0.0
4.67146 0.543529 0.0
22.7952 0.0731263 0.0
22.176 1.46555 0.0
9.77294 3.8846 0.0
23.1188 -0.0372815 0.0
2.27875 0.324429 0.0
22.3156 -0.0709542 0.0
21.5894 -0.357949 0.0
22.5125 -0.422811 0.0
17.2493 -0.213257 0.0
15.977 -0.204668 0.0
22.0467 -0.10933 0.0
6.42709 -0.702097 0.0
43.1388 -1.20995 0.0
24.8615 -0.00226515 0.0
23.8416 -0.132806 0.0
23.5317 0.247543 0.0
21.0677 0.386602 0.0
12.1494 0.00356682 0.0
22.844 0.283865 0.0
25.3804 -2.26658 0.0
24.9632 0.0420015 0.0
6.18936 0.224428 0.0
20.7525 2.02412 0.0
2.4234 -0.296215 0.0
25.1168 0.332568 0.0
25.2583 0.267294 0.0
21.1874 0.367312 0.0
1.80783 0.482882 0.0
28.2834 -10.7668 0.0
25.2272 0.0677929 0.0
24.4327 0.611718 0.0
22.8418 -0.073163 0.0
23.6523 -0.122909 0.0
23.6837 0.253778 0.0
25.0621 0.166569 0.0
25.0547 0.192709 0.0
25.1593 0.136313 0.0
21.3845 0.368351 0.0
2.85538 0.169621 0.0
9.53311 0.516968 0.0
24.5049 -0.254934 0.0
18.7369 8.63338 0.0
1.92471 -0.451702 0.0
5.49513 -0.18381 0.0
23.0292 -12.0518 0.0
22.2222 1.40985 0.0
22.9977 0.292573 0.0
10.1341 -0.340992 0.0
23.623 -0.145823 0.0
24.1215 -0.115381 0.0
16.2291 3.62391 0.0
5.36572 0.293559 0.0
2.71826 -0.186237 0.0
25.0912 -2.73989 0.0
19.2547 2.20111 0.0
22.325 -1.07492 0.0
25.2308 0.295411 0.0
10.5824 -1.5902 0.0
23.1849 0.284039 0.0
19.9679 0.525482 0.0
24.8961 -0.0437804 0.0
2.59308 0.224184 0.0
23.8581 0.231141 0.0
24.9355 -0.000395792 0.0
3.07427 -0.0826609 0.0
21.6343 0.35024 0.0
24.9027 0.138641 0.0
25.3441 0.382327 0.0
24.1489 0.0901394 0.0
23.9999 -0.159929 0.0
25.1917 0.027836 0.0
21.4871 -0.589254 0.0
24.1209 -0.0760454 0.0
24.0407 0.166573 0.0
23.6846 0.0522538 0.0
23.5032 -0.184352 0.0
2.92197 -0.117322 0.0
24.2137 0.181765 0.0
23.4029 -0.210583 0.0
3.82712 0.146162 0.0
25.1368 -0.0144072 0.0
6.0399 0.272058 0.0
23.3984 0.223384 0.0
23.9031 -0.192834 0.0
25.3592 0.32251 0.0
24.6004 -0.0554836 0.0
24.1988 0.0306176 0.0
25.2012 0.263404 0.0
11.9923 0.178638 0.0
22.2196 0.13189 0.0
21.0247 0.742971 0.0
21.8535 0.258636 0.0
2.76117 -0.0228042 0.0
24.7592 0.183291 0.0
23.5816 0.12746 0.0
19.9425 -2.08475 0.0
3.45674 -0.263501 0.0
20.1552 0.410725 0.0
3.38669 0.18847 0.0
19.1392 -2.0638 0.0
21.8322 0.826199 0.0
20.3401 0.398579 0.0
22.6236 -0.118918 0.0
23.315 -0.217901 0.0
20.6232 0.395794 0.0
24.2187 -0.0592394 0.0
33.9344 9.53047 0.0
18.6971 -2.2609 0.0
23.673 -0.0315419 0.0
25.2467 0.398541 0.0
25.2031 0.386711 0.0
25.3285 0.307977 0.0
23.8221 -0.209522 0.0
25.4655 0.331762 0.0
21.0155 -0.111922 0.0
25.4635 0.310762 0.0
23.0864 -0.113566 0.0
22.349 0.0453196 0.0
11.3413 0.298851 0.0
24.3201 0.089786 0.0
25.4629 0.308324 0.0
19.6455 -0.456037 0.0
25.2857 0.351595 0.0
23.7529 -0.202914 0.0
23.2393 -0.196607 0.0
3.00092 0.136666 0.0
23.739 -0.00134629 0.0
20.0383 0.453346 0.0
25.5787 0.299807 0.0
18.5751 -0.0696821 0.0
6.38905 0.199225 0.0
22.4605 -0.0147386 0.0
25.3292 0.270241 0.0
21.1863 0.19167 0.0
20.6069 -0.114968 0.0
23.1706 -0.140747 0.0
25.3516 0.157007 0.0
23.6948 -0.166502 0.0
21.4922 0.0842024 0.0
15.0877 2.86385 0.0
25.0802 -0.0598095 0.0
25.5952 0.268367 0.0
24.7849 0.502886 0.0
11.0839 -0.0651119 0.0
23.7704 -0.0459395 0.0
19.8471 -0.134092 0.0
3.40844 0.118791 0.0
5.93071 0.236564 0.0
23.6349 -0.102994 0.0
24.9552 0.261453 0.0
22.1724 -0.225489 0.0
23.0921 -0.0630495 0.0
25.5197 0.21779 0.0
22.4473 -0.161437 0.0
22.5465 -0.0617364 0.0
22.9753 0.0145026 0.0
20.0807 -0.162249 0.0
21.8348 -0.149044 0.0
25.6789 0.222038 0.0
20.3082 -0.13485 0.0
25.2714 0.152381 0.0
22.0466 -0.236256 0.0
22.7686 -0.191554 0.0
21.6595 -0.186478 0.0
19.8715 -0.194345 0.0
24.943 0.248983 0.0
23.553 -0.0291261 0.0
4.19145 0.134483 0.0
6.5224 0.195735 0.0
25.5345 0.0896179 0.0
25.3225 0.0269849 0.0
20.8315 0.358032 0.0
21.5913 0.0350605 0.0
21.7702 -0.0458074 0.0
25.3979 0.365404 0.0
22.7948 0.0720229 0.0
24.8294 0.494033 0.0
24.2163 -0.016044 0.0
19.6823 -0.226391 0.0
21.2277 -0.241947 0.0
21.6371 0.00797125 0.0
23.4274 0.0347633 0.0
25.6963 0.173915 0.0
24.8585 -0.0878218 0.0
21.5091 -0.218922 0.0
26.3558 8.30299 0.0
18.9247 -0.180106 0.0
21.3657 -0.241737 0.0
19.5144 -0.255505 0.0
23.6064 0.78987 0.0
22.5619 0.0904454 0.0
23.2513 0.0692122 0.0
21.9438 -0.213769 0.0
19.1669 -0.153238 0.0
20.8779 0.001241 0.0
25.3083 0.264407 0.0
19.3363 -0.262903 0.0
21.1163 -0.191796 0.0
22.3359 0.0603966 0.0
12.7417 0.147392 0.0
24.5389 0.187925 0.0
19.1386 -0.20306 0.0
11.1129 0.104146 0.0
18.7108 -0.21074 0.0
23.0544 0.0605 0.0
19.034 -0.0882519 0.0
21.0054 -0.100405 0.0
19.4466 -0.138585 0.0
3.00292 -0.0481073 0.0
5.60047 -0.0879102 0.0
12.6848 0.212641 0.0
22.2249 -0.195172 0.0
21.7447 -0.055331 0.0
22.1667 0.00185553 0.0
22.8848 0.0137954 0.0
18.8673 0.0249694 0.0
6.34811 0.0969055 0.0
25.4505 0.198455 0.0
5.75927 -0.0938214 0.0
25.729 0.0907765 0.0
22.0856 -0.0543407 0.0
18.5121 -0.243164 0.0
21.3438 0.103175 0.0
18.2748 -0.27183 0.0
25.722 0.0149762 0.0
21.0175 0.131209 0.0
3.1098 -0.0488538 0.0
5.67867 -0.0947232 0.0
21.8502 -0.146984 0.0
3.35816 0.0585113 0.0
22.7771 -0.0485171 0.0
18.0813 -0.248164 0.0
17.921 -0.140201 0.0
20.662 0.0857132 0.0
22.5727 -0.0941128 0.0
25.5062 0.0298626 0.0
20.7183 0.103728 0.0
20.4916 0.0397922 0.0
5.73172 -0.080539 0.0
3.23391 -0.0484116 0.0
10.5974 0.17468 0.0
17.7666 -0.012282 0.0
20.3078 0.141431 0.0
22.3004 -0.197979 0.0
19.9269 0.149002 0.0
23.304 -0.0435869 0.0
10.8307 0.195014 0.0
19.6209 0.0916186 0.0
22.7695 -0.0933331 0.0
20.3612 -0.0107221 0.0
5.781 0.0999384 0.0
2.93104 -0.0326668 0.0
2.47206 -0.0487005 0.0
3.15022 -0.0433993 0.0
5.70554 -0.0243626 0.0
6.07429 0.103846 0.0
2.68927 -0.011131 0.0
3.0415 0.00211214 0.0
5.57189 -0.084869 0.0
2.94378 -0.0328301 0.0
3.18037 -0.0263009 0.0
3.36868 0.0827543 0.0
6.16071 -0.0819191 0.0
3.27141 0.0539647 0.0
5.49912 -0.0572703 0.0
3.14378 0.0531694 0.0
5.85891 -0.0435723 0.0
5.69101 -0.0299655 0.0
3.05695 0.102922 0.0
6.29158 0.120457 0.0
5.56844 -0.0711256 0.0
5.45197 -0.0737066 0.0
3.12526 0.160294 0.0
5.29418 -0.0395182 0.0
5.66181 0.134786 0.0
2.89631 -0.016114 0.0
5.52178 -0.0440846 0.0
3.27743 0.0126151 0.0
2.91126 0.0630686 0.0
5.34621 -0.0974697 0.0
3.14035 0.117803 0.0
3.78942 0.0649998 0.0
3.16203 0.196147 0.0
2.67452 0.0562752 0.0
2.87407 -0.0112783 0.0
5.58539 0.0146915 0.0
3.02351 -0.0482856 0.0
3.10009 -0.0487973 0.0
3.21621 0.125032 0.0
3.25134 0.116484 0.0
3.14847 -0.00169057 0.0
3.09089 0.038999 0.0
2.64107 -0.0487172 0.0
2.98123 -0.0278557 0.0
3.70515 -0.00321614 0.0
6.229 -0.0143783 0.0
3.2197 -0.0786255 0.0
3.82865 0.05272 0.0
5.3058 0.114218 0.0
5.20537 -0.107273 0.0
2.95298 -0.0438376 0.0
3.23828 0.134114 0.0
2.99228 0.0272783 0.0
5.81923 0.0134134 0.0
2.83517 0.0701704 0.0
3.13959 0.0546156 0.0
2.93106 -0.0439152 0.0
5.88821 0.237344 0.0
3.61099 -0.0548801 0.0
2.59648 0.0163629 0.0
2.9407 0.0122776 0.0
2.50364 0.0333799 0.0
3.23146 0.054676 0.0
3.25447 -0.0153085 0.0
4.89214 -0.0434429 0.0
2.23671 -0.0159028 0.0
5.73797 0.234978 0.0
5.92672 0.0931265 0.0
22.5006 -0.105541 0.0
22.1389 -0.0700321 0.0
24.2164 -0.100942 0.0
19.4219 0.027247 0.0
25.3759 -0.194024 0.0
25.4835 -0.0452167 0.0
19.267 0.00972363 0.0
25.44 -0.197921 0.0
25.6412 -0.138419 0.0
25.5029 -0.20286 0.0
25.6921 -0.0629093 0.0
20.3725 -0.00223499 0.0
22.3246 -0.0569498 0.0
25.5767 -0.168937 0.0
21.6916 -0.093758 0.0
25.2883 -0.146772 0.0
22.8938 -0.0997658 0.0
25.2451 -0.121256 0.0
24.0201 -0.150362 0.0
24.3621 -0.175327 0.0
16.9484 0.0741452 0.0
25.2861 -0.210247 0.0
25.2819 -0.0817875 0.0
24.5261 -0.149284 0.0
25.4353 -0.150004 0.0
18.892 -0.0722842 0.0
23.7881 -0.0880307 0.0