# vtk DataFile Version 3.0
Malha 2D com triângulos e temperatura
ASCII
DATASET UNSTRUCTURED_GRID

POINTS 1194 double
0 0 0
5 0 0
5 1 0
0 1 0
0.85 0.5 0
0.842388 0.538268 0
0.820711 0.570711 0
0.788268 0.592388 0
0.75 0.6 0
0.711732 0.592388 0
0.679289 0.570711 0
0.657612 0.538268 0
0.65 0.5 0
0.657612 0.461732 0
0.679289 0.429289 0
0.711732 0.407612 0
0.75 0.4 0
0.788268 0.407612 0
0.820711 0.429289 0
0.842388 0.461732 0
0.0793651 0 0
0.15873 0 0
0.238095 0 0
0.31746 0 0
0.396825 0 0
0.47619 0 0
0.555556 0 0
0.634921 0 0
0.714286 0 0
0.793651 0 0
0.873016 0 0
0.952381 0 0
1.03175 0 0
1.11111 0 0
1.19048 0 0
1.26984 0 0
1.34921 0 0
1.42857 0 0
1.50794 0 0
1.5873 0 0
1.66667 0 0
1.74603 0 0
1.8254 0 0
1.90476 0 0
1.98413 0 0
2.06349 0 0
2.14286 0 0
2.22222 0 0
2.30159 0 0
2.38095 0 0
2.46032 0 0
2.53968 0 0
2.61905 0 0
2.69841 0 0
2.77778 0 0
2.85714 0 0
2.93651 0 0
3.01587 0 0
3.09524 0 0
3.1746 0 0
3.25397 0 0
3.33333 0 0
3.4127 0 0
3.49206 0 0
3.57143 0 0
3.65079 0 0
3.73016 0 0
3.80952 0 0
3.88889 0 0
3.96825 0 0
4.04762 0 0
4.12698 0 0
4.20635 0 0
4.28571 0 0
4.36508 0 0
4.44444 0 0
4.52381 0 0
4.60317 0 0
4.68254 0 0
4.7619 0 0
4.84127 0 0
4.92063 0 0
5 0.0769231 0
5 0.153846 0
5 0.230769 0
5 0.307692 0
5 0.384615 0
5 0.461538 0
5 0.538462 0
5 0.615385 0
5 0.692308 0
5 0.769231 0
5 0.846154 0
5 0.923077 0
4.92063 1 0
4.84127 1 0
4.7619 1 0
4.68254 1 0
4.60317 1 0
4.52381 1 0
4.44444 1 0
4.36508 1 0
4.28571 1 0
4.20635 1 0
4.12698 1 0
4.04762 1 0
3.96825 1 0
3.88889 1 0
3.80952 1 0
3.73016 1 0
3.65079 1 0
3.57143 1 0
3.49206 1 0
3.4127 1 0
3.33333 1 0
3.25397 1 0
3.1746 1 0
3.09524 1 0
3.01587 1 0
2.93651 1 0
2.85714 1 0
2.77778 1 0
2.69841 1 0
2.61905 1 0
2.53968 1 0
2.46032 1 0
2.38095 1 0
2.30159 1 0
2.22222 1 0
2.14286 1 0
2.06349 1 0
1.98413 1 0
1.90476 1 0
1.8254 1 0
1.74603 1 0
1.66667 1 0
1.5873 1 0
1.50794 1 0
1.42857 1 0
1.34921 1 0
1.26984 1 0
1.19048 1 0
1.11111 1 0
1.03175 1 0
0.952381 1 0
0.873016 1 0
0.793651 1 0
0.714286 1 0
0.634921 1 0
0.555556 1 0
0.47619 1 0
0.396825 1 0
0.31746 1 0
0.238095 1 0
0.15873 1 0
0.0793651 1 0
0 0.923077 0
0 0.846154 0
0 0.769231 0
0 0.692308 0
0 0.615385 0
0 0.538462 0
0 0.461538 0
0 0.384615 0
0 0.307692 0
0 0.230769 0
0 0.153846 0
0 0.0769231 0
0.879698 0.466718 0
1.3085 0.931947 0
1.30532 0.0638546 0
4.93832 0.504275 0
0.620452 0.46964 0
3.99858 0.0669607 0
1.63721 0.934258 0
3.3751 0.0523709 0
4.3254 0.0687322 0
2.42354 0.0642082 0
2.97619 0.0687322 0
2.02101 0.0693621 0
3.68108 0.0581336 0
2.65899 0.932655 0
4.178 0.939994 0
3.21614 0.938179 0
2.25483 0.919987 0
3.53215 0.928998 0
3.84921 0.931268 0
1.69647 0.0674297 0
1.94349 0.930209 0
4.48413 0.931268 0
2.97813 0.942022 0
2.74097 0.0673855 0
0.859645 0.573263 0
0.639718 0.573116 0
0.0651563 0.652836 0
0.0635304 0.346121 0
4.56232 0.0679683 0
0.830393 0.392645 0
0.669618 0.39275 0
1.06185 0.0668897 0
0.440193 0.0680031 0
1.06474 0.93511 0
0.446074 0.935974 0
0.724697 0.630698 0
4.72268 0.931235 0
4.93065 0.267192 0
0.589836 0.936152 0
0.92338 0.0562425 0
0.590207 0.0623339 0
0.755872 0.0732784 0
0.838039 0.936714 0
4.92573 0.732039 0
0.281717 0.93783 0
0.28208 0.0811877 0
0.065248 0.503161 0
1.46076 0.0637037 0
4.72574 0.0661877 0
4.31028 0.937908 0
3.21429 0.0687322 0
1.46639 0.932632 0
3.6897 0.928155 0
2.42063 0.931268 0
3.5364 0.0691789 0
2.25998 0.0676208 0
1.78735 0.937047 0
4.01535 0.920637 0
1.85469 0.0674188 0
3.83991 0.0626292 0
3.37477 0.929368 0
2.58225 0.0657863 0
2.81746 0.932342 0
4.16667 0.0687322 0
2.11402 0.935574 0
0.0614266 0.197046 0
0.0612841 0.803003 0
4.88273 0.0644126 0
4.87774 0.933272 0
0.859645 0.426737 0
0.903081 0.436592 0
0.923672 0.473385 0
0.948706 0.439078 0
0.969155 0.479795 0
0.996593 0.439791 0
1.0202 0.484937 0
1.04667 0.440138 0
1.07382 0.489694 0
1.1034 0.440801 0
1.13169 0.49612 0
1.16603 0.445058 0
1.1931 0.504331 0
1.22956 0.450883 0
1.25923 0.506004 0
1.29683 0.453139 0
1.32923 0.510343 0
1.36603 0.454344 0
1.03276 0.530395 0
1.40063 0.516169 0
1.43576 0.454934 0
1.47042 0.520776 0
1.51069 0.46142 0
1.54422 0.526371 0
1.58547 0.465572 0
1.61942 0.531773 0
1.66033 0.468788 0
1.69546 0.536793 0
1.73713 0.472812 0
1.77239 0.541977 0
1.81532 0.478494 0
1.85006 0.547285 0
1.89327 0.483449 0
1.92802 0.55361 0
1.97142 0.488546 0
2.00623 0.558966 0
2.04984 0.493518 0
2.08483 0.564085 0
2.12847 0.498462 0
2.16353 0.569137 0
2.20719 0.503331 0
0.961579 0.391697 0
1.22451 0.565337 0
2.24238 0.574192 0
2.28611 0.508258 0
2.32134 0.579247 0
2.36519 0.513325 0
2.40036 0.584295 0
2.44425 0.51834 0
2.47944 0.589336 0
2.52334 0.523355 0
2.55853 0.594372 0
2.60245 0.52837 0
2.63764 0.599431 0
2.68159 0.533388 0
2.64637 0.462336 0
2.72553 0.467349 0
2.76076 0.538418 0
2.8047 0.47237 0
2.83993 0.543451 0
2.88387 0.477399 0
2.91911 0.548482 0
2.96305 0.482427 0
2.9983 0.553514 0
3.04224 0.487456 0
3.07749 0.558545 0
3.12143 0.492477 0
3.15668 0.563574 0
3.20063 0.497514 0
3.23588 0.568605 0
3.27983 0.502542 0
3.31508 0.573635 0
3.35903 0.507562 0
3.39428 0.578663 0
3.43823 0.5126 0
3.47348 0.583694 0
3.51744 0.517628 0
3.55268 0.588724 0
3.59664 0.522646 0
3.63189 0.593752 0
3.67585 0.527673 0
3.71109 0.598781 0
3.75505 0.532702 0
3.7903 0.60381 0
3.83426 0.537731 0
3.79901 0.466623 0
3.87821 0.471754 0
3.91346 0.542777 0
3.95742 0.476701 0
3.99267 0.547795 0
4.03662 0.481715 0
4.07187 0.552815 0
4.11582 0.486743 0
4.15106 0.55783 0
4.195 0.491782 0
4.23023 0.562843 0
4.27415 0.49682 0
4.30937 0.567866 0
4.35325 0.501915 0
4.38842 0.572845 0
4.43227 0.506997 0
4.46737 0.577575 0
4.51106 0.511995 0
4.54622 0.582183 0
1.13571 0.390292 0
4.47606 0.441361 0
4.55475 0.446396 0
2.32985 0.442214 0
3.5614 0.451571 0
3.08619 0.421408 0
2.09339 0.427815 0
1.42887 0.583001 0
2.84864 0.406329 0
3.32378 0.43649 0
4.23911 0.425894 0
1.54723 0.39251 0
1.77883 0.406811 0
1.33959 0.387065 0
3.92239 0.405803 0
4.08079 0.415776 0
2.48812 0.452349 0
1.57935 0.603183 0
1.93602 0.417543 0
1.72453 0.617973 0
3.11273 0.629643 0
2.69029 0.396284 0
3.94662 0.623383 0
1.88466 0.613248 0
2.79598 0.609502 0
4.10826 0.620575 0
2.04005 0.62838 0
2.95434 0.619575 0
4.51981 0.375801 0
4.59833 0.380943 0
4.63314 0.451296 0
4.26693 0.63114 0
2.19619 0.645921 0
4.4246 0.642296 0
3.27112 0.639707 0
2.35729 0.649822 0
2.51462 0.660373 0
3.42952 0.649769 0
4.67669 0.38601 0
3.58793 0.659829 0
3.74634 0.669888 0
4.64195 0.315733 0
4.44109 0.370647 0
4.48493 0.305066 0
4.40614 0.29989 0
4.71136 0.456133 0
4.72014 0.320758 0
0.8692 0.382093 0
0.841252 0.348256 0
0.886481 0.338703 0
0.853127 0.301457 0
0.902583 0.287335 0
0.801683 0.321689 0
0.818113 0.263019 0
0.764765 0.277091 0
4.44702 0.235678 0
0.946267 0.520761 0
0.78107 0.221265 0
0.726309 0.234724 0
0.848273 0.20551 0
4.68545 0.250576 0
4.37074 0.227561 0
4.76365 0.255792 0
4.79822 0.326145 0
0.713664 0.287231 0
0.672358 0.247957 0
0.68673 0.192342 0
0.630368 0.2085 0
0.616569 0.265341 0
0.574186 0.225456 0
0.557393 0.28131 0
0.52004 0.242373 0
0.504416 0.299685 0
0.462273 0.252096 0
0.44798 0.316739 0
0.404567 0.276951 0
0.390546 0.335414 0
0.434669 0.37657 0
0.377935 0.394545 0
0.421979 0.43426 0
0.365682 0.452846 0
0.409646 0.492216 0
0.353389 0.51089 0
0.397738 0.551598 0
0.339864 0.570301 0
0.385899 0.612153 0
0.325913 0.631557 0
0.344507 0.29318 0
0.320568 0.413067 0
0.373553 0.673852 0
0.434438 0.653082 0
0.311416 0.69481 0
0.449777 0.528305 0
0.293513 0.534612 0
0.421431 0.715204 0
0.480917 0.696603 0
0.54504 0.34471 0
0.262743 0.649913 0
0.246209 0.712341 0
0.468564 0.755948 0
0.526091 0.735423 0
0.538207 0.68039 0
0.581228 0.716342 0
0.408756 0.777952 0
0.36234 0.239019 0
0.297047 0.251925 0
0.572109 0.771575 0
0.624906 0.752173 0
0.474824 0.414151 0
0.534351 0.182707 0
0.633682 0.70159 0
0.674547 0.736174 0
0.66826 0.788959 0
0.721117 0.76834 0
0.714515 0.825486 0
0.769074 0.802008 0
0.775287 0.746591 0
0.821903 0.778625 0
0.826767 0.726064 0
0.873257 0.756032 0
0.872997 0.697261 0
0.92331 0.732304 0
0.930014 0.67838 0
0.976061 0.710612 0
0.92456 0.784469 0
0.982178 0.654421 0
1.03016 0.688004 0
1.02037 0.747059 0
1.08 0.723819 0
1.08651 0.661896 0
1.1397 0.698204 0
1.13262 0.763657 0
1.19424 0.736545 0
1.18556 0.80161 0
1.24839 0.771772 0
1.25723 0.706382 0
1.31432 0.745787 0
4.66801 0.521361 0
4.74602 0.526202 0
4.70285 0.591278 0
4.78076 0.596023 0
4.73763 0.661207 0
4.78904 0.460969 0
2.61113 0.391267 0
2.65506 0.325217 0
2.57588 0.320198 0
2.61982 0.254148 0
2.69899 0.259163 0
2.54065 0.249131 0
2.49672 0.315179 0
2.46148 0.244124 0
2.41757 0.310166 0
2.38233 0.239117 0
2.33843 0.30514 0
2.30297 0.237979 0
2.25928 0.300748 0
2.22079 0.221377 0
2.17969 0.293884 0
2.14114 0.224266 0
2.10047 0.289841 0
2.0653 0.219144 0
2.02202 0.284919 0
1.98701 0.214164 0
1.94336 0.279863 0
3.82315 0.673327 0
3.78135 0.738156 0
3.86451 0.735958 0
3.70234 0.735494 0
4.52513 0.244409 0
4.32717 0.294467 0
4.29217 0.221862 0
0.619934 0.539507 0
0.599432 0.577132 0
0.575955 0.542712 0
0.554504 0.58245 0
4.65962 0.656481 0
4.69438 0.726169 0
4.6161 0.721747 0
4.77259 0.731352 0
4.65076 0.791486 0
4.57153 0.788793 0
4.2482 0.289182 0
4.21307 0.218308 0
4.1691 0.284563 0
4.13394 0.21352 0
0.835918 0.606341 0
0.806475 0.6384 0
4.08995 0.279537 0
0.640355 0.426737 0
0.596214 0.435837 0
0.630358 0.379178 0
0.689967 0.627735 0
1.90832 0.209948 0
1.86468 0.27519 0
1.82968 0.20518 0
1.78607 0.269797 0
0.281841 0.313314 0
0.232117 0.268621 0
0.216861 0.334396 0
4.05473 0.209347 0
4.01077 0.2745 0
3.97554 0.204394 0
3.93159 0.269388 0
0.297409 0.759367 0
0.231645 0.782943 0
0.180008 0.73598 0
1.32151 0.676369 0
1.38055 0.718092 0
1.36901 0.793947 0
1.43945 0.766002 0
0.249902 0.198865 0
0.932364 0.624392 0
1.75117 0.201034 0
1.70771 0.264658 0
1.673 0.195402 0
1.62985 0.260294 0
1.59532 0.191927 0
1.55236 0.254233 0
3.89629 0.200227 0
3.85238 0.264494 0
3.81708 0.195303 0
3.77304 0.259453 0
2.66368 0.189084 0
2.74279 0.19534 0
2.77814 0.264556 0
2.82201 0.199823 0
2.85733 0.269552 0
2.90126 0.203886 0
2.93654 0.274416 0
2.98045 0.20868 0
3.01573 0.279376 0
3.0597 0.213193 0
[...]
CELL_DATA 2220
VECTORS velocity double
6.00423 -0.40308 0.0
4.94517 0.269537 0.0
9.90593 2.62752 0.0
9.82519 0.795484 0.0
6.11807 -0.505759 0.0
6.23431 -0.32037 0.0
4.36471 0.265781 0.0
4.67962 0.0123748 0.0
8.8174 5.57192 0.0
6.15459 -0.191049 0.0
6.06525 14.0742 0.0
4.48182 0.212423 0.0
3.77332 0.148716 0.0
8.28376 -2.37162 0.0
8.87521 12.9463 0.0
3.40585 6.70995 0.0
4.86729 0.208099 0.0
4.11141 0.286914 0.0
4.48905 -0.0758734 0.0
4.66833 -0.0480466 0.0
8.76369 1.89942 0.0
18.1111 -5.30508 0.0
4.56812 0.284667 0.0
4.62138 0.321792 0.0
5.61941 -0.380973 0.0
7.70257 -1.80745 0.0
9.23338 -0.895215 0.0
4.14938 0.328035 0.0
9.78162 0.78805 0.0
10.8345 0.693447 0.0
3.7173 -1.4904 0.0
12.4295 0.344492 0.0
3.63027 -0.0759823 0.0
12.7676 -9.77588 0.0
17.9653 1.25033 0.0
6.30283 -0.347712 0.0
18.4838 1.94279 0.0
3.97803 -0.060225 0.0
10.9393 0.885801 0.0
11.372 -0.689065 0.0
6.08387 -0.45945 0.0
8.85925 4.60803 0.0
8.53757 0.700957 0.0
4.41123 0.00987144 0.0
4.09465 0.0679811 0.0
3.79213 0.0205792 0.0
4.51096 0.31759 0.0
3.83153 0.0115733 0.0
6.16376 -0.165545 0.0
6.28424 0.0147542 0.0
7.18534 1.4264 0.0
3.70075 0.0551792 0.0
4.44619 0.343207 0.0
4.36525 0.0618645 0.0
4.25168 0.214287 0.0
11.3775 -0.950651 0.0
13.1937 0.0612342 0.0
3.94489 0.299335 0.0
4.05878 0.311634 0.0
6.39567 -0.0260472 0.0
0.738904 -0.778021 0.0
5.97963 -0.542558 0.0
4.52805 -1.87503 0.0
4.51329 0.359238 0.0
4.49408 0.296266 0.0
13.2774 -7.88042 0.0
8.41691 -0.751973 0.0
4.62232 5.6964 0.0
4.02559 0.299453 0.0
4.04381 0.34742 0.0
4.33608 0.115567 0.0
13.371 8.64315 0.0
3.6427 0.117369 0.0
6.29092 0.164435 0.0
21.5585 -1.61356 0.0
15.9037 -0.211246 0.0
5.53536 1.58059 0.0
6.08229 -0.995967 0.0
7.10007 4.57829 0.0
4.31366 0.100185 0.0
9.66119 1.18429 0.0
11.6526 1.16772 0.0
6.95195 -0.187949 0.0
3.74768 0.0981412 0.0
4.4233 0.280669 0.0
4.40481 0.163811 0.0
5.85626 -0.527777 0.0
3.87444 0.153965 0.0
3.91675 0.235096 0.0
9.53866 6.0517 0.0
22.1762 -4.05291 0.0
6.82025 1.56988 0.0
4.44258 -0.0863212 0.0
7.5991 1.90023 0.0
15.008 0.130527 0.0
11.4453 0.832945 0.0
19.4439 4.2771 0.0
-2.02137 -16.4928 0.0
1.33575 -0.743932 0.0
11.2851 10.1209 0.0
-8.59566 -17.3807 0.0
6.82406 -1.26892 0.0
4.46712 0.323034 0.0
4.15689 0.38487 0.0
17.5521 -4.53838 0.0
16.796 -0.735263 0.0
6.19182 -0.279626 0.0
6.39124 -0.382022 0.0
1.69047 -0.0375567 0.0
4.66558 0.400306 0.0
11.4932 0.590837 0.0
9.68137 -3.45316 0.0
6.1494 -0.20525 0.0
5.31121 -0.383937 0.0
6.44447 -0.691994 0.0
3.9861 0.302102 0.0
7.51644 -1.68047 0.0
8.23707 -0.320175 0.0
-0.486405 -20.3651 0.0
10.4546 5.4316 0.0
5.66307 -0.777892 0.0
12.0192 -0.347704 0.0
5.77041 1.17233 0.0
17.8681 -8.02117 0.0
16.9079 0.51237 0.0
0.234881 -8.19539 0.0
17.7313 -1.29311 0.0
9.90093 0.683867 0.0
8.35572 -2.92476 0.0
-8.51826 7.4674 0.0
4.24323 0.0632755 0.0
20.6675 4.52185 0.0
20.7468 6.11636 0.0
4.81361 0.380827 0.0
10.9586 0.925443 0.0
4.58798 0.451052 0.0
3.58853 0.0115627 0.0
7.8678 -1.33454 0.0
2.06494 -8.71834 0.0
12.4895 0.530934 0.0
8.36737 -1.77423 0.0
4.38346 -0.00641207 0.0
6.4295 -0.919961 0.0
16.279 0.14737 0.0
6.23378 0.152766 0.0
7.34458 1.67384 0.0
-13.0372 8.05859 0.0
1.17585 -17.3522 0.0
6.80481 0.580646 0.0
6.40458 -0.507108 0.0
4.12947 0.0160781 0.0
10.5334 4.54161 0.0
12.2309 0.00991543 0.0
16.6136 -10.1376 0.0
3.81142 0.546693 0.0
4.91711 0.118757 0.0
9.5043 -0.926886 0.0
4.99199 0.190103 0.0
6.15302 -0.598661 0.0
6.31699 -1.20832 0.0
18.8429 8.22276 0.0
4.06701 0.021536 0.0
-13.1943 -8.34998 0.0
12.5123 -0.163332 0.0
3.66959 0.0580836 0.0
13.9076 -9.93071 0.0
6.97691 -10.3459 0.0
17.1541 0.316596 0.0
4.8706 0.0775126 0.0
17.8094 11.1921 0.0
-8.61979 13.7543 0.0
3.75464 0.0617269 0.0
4.40135 0.0430689 0.0
-8.82814 -7.85993 0.0
-3.47358 -3.62044 0.0
6.73507 3.90306 0.0
4.85008 1.72731 0.0
5.53236 3.79905 0.0
3.83676 -0.605543 0.0
4.80858 0.04203 0.0
11.9884 -0.150601 0.0
6.92728 -1.32724 0.0
14.4365 -16.3242 0.0
-4.14171 12.2645 0.0
4.79234 0.0231448 0.0
5.16806 -0.680648 0.0
18.2258 0.120964 0.0
4.02771 -0.0234628 0.0
19.3906 3.26331 0.0
17.1305 0.202736 0.0
6.99635 -0.714135 0.0
3.96103 -0.108519 0.0
9.37751 -3.92382 0.0
6.77198 0.463085 0.0
9.2524 -0.394744 0.0
18.2428 -0.226485 0.0
5.52335 0.188752 0.0
4.4175 -0.0333644 0.0
3.22284 -0.205768 0.0
4.63798 -0.0252355 0.0
4.10663 -0.0528943 0.0
5.30175 -0.00880389 0.0
15.4142 -7.90251 0.0
4.53185 0.0760037 0.0
6.19981 0.584133 0.0
6.31674 -0.93735 0.0
9.19957 -1.6136 0.0
4.35012 0.0700105 0.0
5.69676 0.017882 0.0
3.23301 -0.3809 0.0
4.43974 0.293363 0.0
5.44606 17.952 0.0
5.38926 -0.069718 0.0
6.54582 5.44494 0.0
6.03593 1.93403 0.0
4.91671 0.0717821 0.0
3.93533 0.272319 0.0
4.5215 0.323286 0.0
4.46402 0.714591 0.0
21.5792 0.948983 0.0
6.16973 0.0690034 0.0
2.55872 -0.051842 0.0
3.99677 0.300551 0.0
2.47817 -0.00335168 0.0
4.52587 0.0426393 0.0
5.06233 -0.0261667 0.0
5.15955 -0.70423 0.0
9.35982 14.2684 0.0
10.5501 -2.33875 0.0
5.30043 0.319053 0.0
5.35885 0.0482466 0.0
5.58493 -0.307468 0.0
3.48489 -0.0123877 0.0
4.61787 0.00629764 0.0
5.43295 -0.212227 0.0
15.1057 0.126522 0.0
-4.11758 -5.3026 0.0
4.44229 -0.104268 0.0
4.41987 -0.121578 0.0
4.15584 -0.00763086 0.0
15.4188 -0.275858 0.0
16.5155 7.56161 0.0
17.1181 -2.72749 0.0
2.82542 0.0271015 0.0
4.9884 0.411727 0.0
6.14923 -0.0530712 0.0
4.73215 0.021672 0.0
11.4924 -0.409945 0.0
3.29694 0.641383 0.0
8.80132 0.561939 0.0
4.66034 -0.368419 0.0
2.82244 -0.0200949 0.0
5.58224 -9.7557 0.0
6.22459 -0.0477877 0.0
5.6724 -2.7437 0.0
4.41181 0.206013 0.0
-13.7437 1.44954 0.0
6.1335 -0.00837495 0.0
9.28481 0.185485 0.0
14.7071 0.167344 0.0
4.81742 -0.158426 0.0
12.2394 -0.204308 0.0
5.26294 0.409641 0.0
7.42123 -1.61776 0.0
2.73253 -0.135069 0.0
4.41178 -0.0336223 0.0
4.34782 -0.0360147 0.0
-1.08188 -3.07576 0.0
7.57097 1.77964 0.0
6.16293 -0.067506 0.0
6.14059 0.217359 0.0
6.49419 0.0230877 0.0
3.88843 0.178689 0.0
6.40291 -0.43619 0.0
-4.92259 -9.37524 0.0
16.9041 -1.64865 0.0
14.3248 -14.3367 0.0
1.47621 -1.37294 0.0
5.41833 0.96873 0.0
6.63343 0.0399547 0.0
-0.0450989 -12.0585 0.0
10.5137 -0.183936 0.0
15.4926 -0.182229 0.0
5.45368 0.175898 0.0
6.32168 -0.395062 0.0
5.12279 -0.00542881 0.0
13.3304 -0.41331 0.0
5.27706 0.216037 0.0
3.97594 -0.0894518 0.0
3.89506 -0.103742 0.0
-13.7289 -1.84568 0.0
4.54177 -0.27387 0.0
3.56703 0.5675 0.0
4.74066 -0.137256 0.0
5.10842 -0.394616 0.0
5.17508 -0.0815397 0.0
5.19421 -0.0724652 0.0
9.25571 0.192174 0.0
16.5483 -2.33682 0.0
6.38889 1.69687 0.0
3.8441 -0.0298808 0.0
7.12124 3.24533 0.0
9.31944 -2.75864 0.0
4.17752 0.0422174 0.0
4.40916 -7.74386 0.0
4.83474 0.136999 0.0
3.84219 0.00620771 0.0
3.92328 -0.113713 0.0
7.62771 0.181711 0.0
3.12839 0.414772 0.0
5.41956 0.775208 0.0
2.52037 0.0589045 0.0
-1.91606 16.5967 0.0
16.0409 -0.742287 0.0
14.0018 9.35166 0.0
4.38414 -0.109033 0.0
5.49012 2.95446 0.0
5.52516 0.130199 0.0
14.9369 -0.192636 0.0
6.76239 1.84197 0.0
14.1558 14.2597 0.0
5.92587 1.14619 0.0
6.1057 0.00586851 0.0
5.66434 -0.0310275 0.0
2.68304 0.121531 0.0
4.80137 -0.642662 0.0
6.50868 0.0690176 0.0
6.22562 0.238001 0.0
6.2007 0.0649858 0.0
4.32408 -0.659659 0.0
4.91561 -6.36096 0.0
16.6265 0.484253 0.0
2.5157 -2.03578 0.0
5.28425 -0.334528 0.0
12.322 -6.37425 0.0
15.0122 -0.372205 0.0
10.1268 -0.649619 0.0
7.80078 3.10663 0.0
12.1204 -0.553034 0.0
4.40466 -0.121794 0.0
3.62036 0.350625 0.0
4.08746 -0.133934 0.0
3.27297 -0.00276301 0.0
2.89361 -0.29204 0.0
11.7147 15.6238 0.0
8.2333 4.19268 0.0
3.89923 0.265101 0.0
7.39529 2.22335 0.0
6.86577 1.03288 0.0
2.39733 -0.320039 0.0
13.8203 -4.71431 0.0
2.17999 0.289443 0.0
3.29416 0.0513843 0.0
1.2865 6.73996 0.0
2.76086 0.280036 0.0
15.3829 -0.0150981 0.0
14.2459 -5.96874 0.0
1.64004 -0.0920159 0.0
6.13545 0.140669 0.0
11.8965 -0.756639 0.0
6.9814 1.04839 0.0
0.735048 17.2984 0.0
8.65773 2.45877 0.0
7.11523 1.53001 0.0
3.02671 0.209449 0.0
6.5224 0.0941182 0.0
18.1449 5.22744 0.0
2.1048 -0.292801 0.0
3.19731 -0.156278 0.0
12.3289 -0.455182 0.0
2.16893 0.302584 0.0
18.4951 -4.00501 0.0
14.1677 6.49216 0.0
4.92617 -0.130015 0.0
2.37756 -0.0331477 0.0
6.55338 0.271667 0.0
5.64388 0.173742 0.0
5.52348 0.0842471 0.0
14.7612 0.0199232 0.0
5.29058 -0.0656032 0.0
6.10157 0.214041 0.0
14.9275 0.175667 0.0
15.458 -0.150705 0.0
6.16262 0.0178416 0.0
14.2323 0.410247 0.0
6.19733 -0.0280367 0.0
16.4199 -3.33226 0.0
6.10592 0.00364997 0.0
8.53266 -2.28804 0.0
6.85524 0.731702 0.0
5.19761 0.433564 0.0
6.35091 0.0346661 0.0
11.1563 -0.380328 0.0
4.83609 -2.67672 0.0
4.9941 -0.503523 0.0
4.78791 -0.54065 0.0
14.4115 0.177989 0.0
4.79891 0.368113 0.0
6.11787 0.0166728 0.0
14.1812 0.354938 0.0
4.15486 0.155216 0.0
10.7226 1.78814 0.0
7.07088 1.25647 0.0
6.13131 -0.00634036 0.0
17.5467 5.69274 0.0
17.6846 3.0173 0.0
3.17118 0.293133 0.0
2.91419 0.324796 0.0
9.56131 0.419557 0.0
10.125 -7.34836 0.0
2.31322 -10.4344 0.0
2.76469 0.327419 0.0
14.6779 0.205294 0.0
6.03043 -2.14489 0.0
14.151 -0.302952 0.0
6.12056 -0.0160283 0.0
2.6495 -0.0898152 0.0
1.86186 0.239975 0.0
9.40122 3.94851 0.0
3.15781 0.130154 0.0
7.0117 2.26102 0.0
13.6383 0.464983 0.0
2.61402 0.00488021 0.0
3.16851 -0.0608263 0.0
6.90821 0.881301 0.0
6.00524 0.0677884 0.0
2.56865 0.101925 0.0
5.96793 -0.0730029 0.0
6.13626 0.0365341 0.0
3.0357 -0.288669 0.0
6.1456 0.0114681 0.0
6.81834 0.871623 0.0
14.2759 -0.515218 0.0
6.66961 0.5657 0.0
4.20246 -0.383037 0.0
19.0034 4.50805 0.0
2.70277 -0.321381 0.0
4.12747 0.262863 0.0
3.73842 -5.58049 0.0
3.34192 0.273816 0.0
7.05234 1.21092 0.0
6.75024 0.657903 0.0
16.0656 2.65745 0.0
17.2467 1.89967 0.0
6.13053 -0.625047 0.0
8.14989 1.4411 0.0
14.0503 0.334371 0.0
1.72999 -0.129348 0.0
1.5966 0.152558 0.0
4.32246 -0.0435977 0.0
6.22355 0.582502 0.0
6.1658 -0.160823 0.0
4.34055 -0.240914 0.0
10.0214 0.3798 0.0
6.4409 0.302879 0.0
2.65747 0.254806 0.0
6.51619 0.398554 0.0
7.32138 1.80727 0.0
4.14507 0.216805 0.0
6.42513 0.396593 0.0
6.60939 0.656023 0.0
6.05431 0.052614 0.0
3.49215 -0.282368 0.0
2.70796 0.19764 0.0
4.00432 0.240767 0.0
5.41215 0.033885 0.0
3.80469 -0.0536059 0.0
6.17167 0.0302328 0.0
2.56753 0.0579135 0.0
16.4139 1.15339 0.0
2.80217 -0.0605306 0.0
1.6285 0.175346 0.0
7.80578 -0.805976 0.0
7.74131 2.55846 0.0
2.85711 -0.22049 0.0
6.04742 0.0428935 0.0
6.51637 0.498143 0.0
10.057 1.83361 0.0
6.17448 0.0526256 0.0
6.38527 0.51592 0.0
5.30741 -0.580529 0.0
13.0054 -4.98864 0.0
6.68377 -0.90137 0.0
6.1648 0.394207 0.0
4.06332 -0.405318 0.0
4.30841 0.424152 0.0
13.9491 -0.0402353 0.0
1.4506 0.127346 0.0
13.0621 -0.576132 0.0
5.44321 0.302218 0.0
6.21637 0.0553836 0.0
1.5149 0.139774 0.0
1.80703 -0.169079 0.0
6.28555 0.346671 0.0
8.23807 3.49126 0.0
5.64191 -0.0837584 0.0
11.2704 -0.467406 0.0
6.30081 0.0462445 0.0
10.7037 -0.450466 0.0
4.83729 -0.293403 0.0
5.98824 -0.0500626 0.0
6.58865 0.74068 0.0
1.56898 -0.0505375 0.0
6.01771 0.281802 0.0
5.572 0.154929 0.0
4.14499 -0.0694623 0.0
6.13519 0.0267988 0.0
2.65965 -0.235775 0.0
2.93293 0.236877 0.0
6.8195 1.00247 0.0
6.03828 -0.0594499 0.0
6.06672 -0.186604 0.0
4.57183 -0.0746277 0.0
6.0724 0.0198707 0.0
6.21135 0.0428525 0.0
5.78322 -1.5513 0.0
2.18989 0.0737598 0.0
6.09045 0.0851779 0.0
6.7327 -1.08148 0.0
6.15003 0.459318 0.0
5.87929 0.101197 0.0
3.70356 -0.136125 0.0
12.0928 -7.96708 0.0
3.37618 -0.454294 0.0
9.18447 -9.21254 0.0
6.14621 -0.230039 0.0
6.77659 1.22817 0.0
6.12525 0.0367992 0.0
2.26143 -0.0803061 0.0
5.94449 0.195035 0.0
5.91705 0.0439158 0.0
5.9677 0.360223 0.0
6.25135 0.0340728 0.0
6.37208 0.574679 0.0
6.07348 0.135961 0.0
10.4408 -0.437217 0.0
10.6953 -1.4386 0.0
4.06596 -0.237023 0.0
13.8691 -0.472248 0.0
3.83764 -0.0610791 0.0
5.90052 -0.149586 0.0
3.97917 -0.514665 0.0
15.1682 5.19365 0.0
6.24337 0.0314716 0.0
2.04436 -0.185782 0.0
2.09492 0.194342 0.0
6.02913 0.0903641 0.0
13.6775 0.512495 0.0
5.89499 0.143692 0.0
5.1243 0.118429 0.0
1.75776 -0.01334 0.0
2.69098 -0.0324817 0.0
2.36465 0.0423411 0.0
1.94621 0.16539 0.0
3.35839 -0.295001 0.0
6.6694 -1.68625 0.0
6.26074 0.0304179 0.0
16.6171 3.89128 0.0
0.96262 0.11324 0.0
5.68599 -0.0231598 0.0
5.82269 -0.0267938 0.0
5.75044 -0.0808346 0.0
5.66706 0.239583 0.0
1.02742 -0.136165 0.0
2.03422 -0.182226 0.0
5.70734 0.163495 0.0
9.24543 0.526698 0.0
5.87022 0.265327 0.0
5.28454 -0.0859181 0.0
6.05475 -0.00783705 0.0
16.1962 -0.17455 0.0
6.11911 -0.0121326 0.0
5.88745 0.159677 0.0
6.22348 0.0167799 0.0
2.6162 -0.187148 0.0
6.83376 2.72262 0.0
6.14033 0.0346572 0.0
6.05506 0.052821 0.0
6.14247 0.012037 0.0
5.9757 -0.061098 0.0
2.52827 0.119232 0.0
6.09074 0.0434366 0.0
2.33542 -0.0324788 0.0
4.28651 0.432281 0.0
5.31104 0.045897 0.0
5.86702 0.12392 0.0
5.81168 0.189489 0.0
6.15455 0.02417 0.0
6.15057 0.0411007 0.0
6.15208 0.0364703 0.0
1.39273 0.106934 0.0
2.46375 0.186821 0.0
2.35648 -0.0195799 0.0
6.0748 0.0839956 0.0
6.00609 0.0662108 0.0
15.8486 0.0414773 0.0
2.28701 0.035599 0.0
6.0803 -0.00887251 0.0
6.0883 0.067766 0.0
4.59893 0.432461 0.0
6.02714 0.0104124 0.0
1.2679 0.0202419 0.0
5.92949 -0.0114465 0.0
5.95839 -0.0193211 0.0
6.1188 -0.0734699 0.0
5.36049 -0.0928961 0.0
5.1439 -0.0950561 0.0
5.87082 -0.031933 0.0
3.41725 -0.260507 0.0
16.5805 -0.793373 0.0
6.0659 0.0616849 0.0
6.09971 -0.0687373 0.0
6.07566 0.0718115 0.0
5.86774 0.117955 0.0
4.44523 0.0285271 0.0
6.0181 0.0800109 0.0
6.47115 -0.649033 0.0
6.17944 0.0037325 0.0
2.62555 0.0745681 0.0
5.98994 0.10901 0.0
1.34557 -0.0265907 0.0
6.11565 0.0716262 0.0
6.07291 0.111953 0.0
5.879 0.12403 0.0
1.19255 0.050023 0.0
11.4117 -6.21992 0.0
6.20971 0.018195 0.0
6.14037 0.0545794 0.0
5.9412 -0.00904225 0.0
6.13258 -0.0165048 0.0
6.12302 0.0865375 0.0
6.06169 0.0970258 0.0
6.1188 0.0503413 0.0
6.24077 0.0430103 0.0
5.92448 0.142359 0.0
1.40373 0.0263869 0.0
3.87167 0.0772998 0.0
6.08659 0.0157669 0.0
4.44369 4.50239 0.0
1.26053 -0.0648221 0.0
2.3803 -0.0264224 0.0
7.82814 -7.03857 0.0
6.08738 0.0656962 0.0
6.05567 0.100717 0.0
3.87802 -0.0356418 0.0
5.97834 -0.0411213 0.0
6.00348 -0.0261968 0.0
5.45711 0.249803 0.0
2.4454 0.0614408 0.0
1.37111 -0.0123048 0.0
6.56661 -0.771253 0.0
5.8865 0.141235 0.0
6.07047 -0.064768 0.0
6.09712 0.0881671 0.0
5.41291 -0.634268 0.0
6.1178 0.106778 0.0
5.76834 0.162179 0.0
6.10009 -0.0116912 0.0
1.32186 0.0176351 0.0
6.18036 0.0794888 0.0
6.13452 -0.00351006 0.0
1.40244 -0.0223185 0.0
6.00986 0.145285 0.0
6.23978 0.0402214 0.0
6.09086 0.128136 0.0
6.20068 0.00398603 0.0
6.00272 -0.0449356 0.0
6.16275 0.0091893 0.0
6.04835 -0.119107 0.0
6.13603 -0.0547969 0.0
6.21809 0.043128 0.0
6.1543 -0.0171316 0.0
5.98183 -0.0566391 0.0
1.38905 -0.0110269 0.0
6.15164 0.00572023 0.0
5.98966 -0.067535 0.0
1.76781 0.0473997 0.0
6.12094 0.000161936 0.0
2.66405 0.0842296 0.0
6.18153 0.0720327 0.0
6.00882 -0.0576329 0.0
6.08685 0.12759 0.0
6.17184 -0.0482948 0.0
6.15234 -0.0142276 0.0
6.07127 0.11747 0.0
4.34209 0.13954 0.0
6.12739 0.00659786 0.0
5.98576 0.0444804 0.0
6.10688 0.086304 0.0
1.27928 -0.0112089 0.0
6.05041 0.103812 0.0
6.19657 0.0142743 0.0
5.95672 -0.10885 0.0
2.48918 -0.215047 0.0
5.7714 0.144753 0.0
2.46291 0.143345 0.0
5.89594 -0.127496 0.0
6.04353 0.0327182 0.0
5.79765 0.153518 0.0
5.91118 -0.0334103 0.0
6.00068 -0.0722992 0.0
5.8816 0.170359 0.0
6.07861 -0.0246563 0.0
15.7348 7.33809 0.0
5.78056 -0.0828105 0.0
6.057 0.0168456 0.0
6.09759 0.126756 0.0
6.09504 0.104668 0.0
6.09755 0.130648 0.0
6.01801 -0.064569 0.0
6.1217 0.133779 0.0
5.94758 -0.0567498 0.0
6.16217 0.114421 0.0
5.95535 -0.0126957 0.0
6.07466 -0.0298553 0.0
4.29023 0.17458 0.0
6.02637 0.0912244 0.0
6.14487 0.136277 0.0
5.88794 -0.0570597 0.0
6.13098 0.116689 0.0
6.03081 -0.0630332 0.0
6.01691 -0.0651589 0.0
1.44211 0.0343056 0.0
6.10598 -0.026259 0.0
5.76236 0.152367 0.0
6.17549 0.129508 0.0
5.57651 0.0591533 0.0
2.69161 0.113102 0.0
6.02743 -0.0404193 0.0
6.1753 0.0919091 0.0
6.06412 0.0370123 0.0
5.78648 -0.0487232 0.0
6.03241 -0.0402423 0.0
6.21592 0.0486652 0.0
6.04621 -0.0484802 0.0
6.04387 -0.0182653 0.0
5.44333 0.250937 0.0
6.09106 -0.011646 0.0
6.2107 0.131264 0.0
6.12808 0.072441 0.0
4.16078 -0.0335199 0.0
6.07152 -0.029157 0.0
5.75699 -0.0721842 0.0
1.52904 0.0708755 0.0
2.48233 0.144335 0.0
6.05577 -0.0208448 0.0
6.15093 0.141292 0.0
5.91412 -0.0810623 0.0
6.03546 -0.0045296 0.0
6.21268 0.0822835 0.0
5.90556 -0.0526436 0.0
6.00048 -0.0426297 0.0
6.02002 0.0300476 0.0
5.69578 -0.0631256 0.0
5.85425 -0.050398 0.0
6.24108 0.10377 0.0
5.71789 -0.0535541 0.0
6.36862 0.113118 0.0
5.92364 -0.0900065 0.0
5.96594 -0.0592904 0.0
5.85197 -0.0662834 0.0
5.68616 -0.0766763 0.0
6.08057 0.118408 0.0
6.05136 0.0110214 0.0
1.8967 0.0846375 0.0
2.79473 0.124519 0.0
6.2481 0.025285 0.0
6.23059 -0.00924984 0.0
5.98015 0.160176 0.0
5.94188 0.0410831 0.0
5.95476 -0.0477208 0.0
6.11783 0.127859 0.0
5.98265 0.0542657 0.0
6.10012 0.105257 0.0
6.10893 -0.0199078 0.0
5.67886 -0.0931379 0.0
5.871 -0.102534 0.0
5.98571 -0.0424842 0.0
6.02958 0.037251 0.0
6.28432 0.0934487 0.0
6.07748 -0.0221599 0.0
5.85399 -0.0810412 0.0
10.8883 3.97654 0.0
5.56768 -0.0743352 0.0
5.85838 -0.0954707 0.0
5.674 -0.115015 0.0
6.12633 0.0489809 0.0
5.92754 0.0567125 0.0
5.98997 0.0478632 0.0
5.94316 -0.0831189 0.0
5.58896 -0.0642876 0.0
5.89385 0.0254778 0.0
6.20758 0.146668 0.0
5.68323 -0.129992 0.0
5.89532 -0.0780991 0.0
5.87505 0.0296949 0.0
4.71634 0.110355 0.0
6.04893 0.10353 0.0
5.70464 -0.0969395 0.0
4.24668 0.0730691 0.0
5.55372 -0.0888032 0.0
5.94324 0.0341172 0.0
5.71422 -0.0243957 0.0
5.90577 -0.0282799 0.0
5.6348 -0.06458 0.0
1.36244 -0.0301386 0.0
2.37653 -0.0549291 0.0
4.64632 0.173317 0.0
5.91471 -0.0565573 0.0
5.96421 -0.0033162 0.0
5.84512 -0.012833 0.0
5.90797 -0.000914924 0.0
5.69213 0.0408266 0.0
2.72708 0.0787935 0.0
6.30929 0.127695 0.0
2.41292 -0.0567324 0.0
6.29226 0.0388847 0.0
5.85767 -0.0513428 0.0
5.53935 -0.109966 0.0
5.88844 0.0734056 0.0
5.52518 -0.138502 0.0
6.32208 0.000194705 0.0
5.80713 0.0833276 0.0
1.39646 -0.0288926 0.0
2.38885 -0.0556875 0.0
5.96191 -0.0498315 0.0
1.54572 0.0480976 0.0
5.89793 -0.0438252 0.0
5.54797 -0.132304 0.0
5.564 -0.059378 0.0
5.85156 0.0674573 0.0
5.92162 -0.0036456 0.0
6.38232 0.0186842 0.0
5.73016 0.0569645 0.0
5.6882 0.0068593 0.0
2.39827 -0.0482809 0.0
1.44753 -0.0295108 0.0
4.08852 0.140428 0.0
5.54663 0.0225378 0.0
5.76708 0.09524 0.0
5.90807 -0.0679125 0.0
5.66919 0.0939728 0.0
6.05727 0.00568066 0.0
4.13674 0.159466 0.0
5.58789 0.0444697 0.0
5.93849 -0.0736541 0.0
5.70177 -0.0284176 0.0
2.49438 0.0803756 0.0
1.33024 -0.0161036 0.0
1.13763 -0.0330636 0.0
1.39878 -0.0276017 0.0
2.43473 -0.0121914 0.0
2.6142 0.0758817 0.0
1.24819 -0.00484806 0.0
1.40391 0.00676813 0.0
2.36783 -0.0579654 0.0
1.34249 -0.0265339 0.0
1.43625 -0.0168749 0.0
1.5484 0.0521126 0.0
2.52889 -0.0529619 0.0
1.48429 0.0424745 0.0
2.32905 -0.0268396 0.0
1.43981 0.0425888 0.0
2.48271 -0.0277114 0.0
2.4311 0.030809 0.0
1.3733 0.0752307 0.0
2.7102 0.0711369 0.0
2.36659 -0.0527836 0.0
2.3148 -0.0392821 0.0
1.39844 0.0994103 0.0
2.29787 -0.0207884 0.0
2.42042 0.11532 0.0
1.34008 0.0201153 0.0
2.35846 -0.0374683 0.0
1.47377 0.0285106 0.0
1.34537 0.0555979 0.0
2.27119 -0.0602095 0.0
1.41058 0.0713994 0.0
1.74213 0.0418828 0.0
1.43318 0.109198 0.0
1.25284 0.0547865 0.0
1.3182 -0.0118301 0.0
2.39798 0.00645257 0.0
1.37321 -0.032706 0.0
1.39773 -0.0282492 0.0
1.44362 0.0681157 0.0
1.4664 0.0482662 0.0
1.42394 0.0238876 0.0
1.37378 0.0258249 0.0
1.20227 -0.0309354 0.0
1.34899 -0.0131122 0.0
1.6755 0.00267116 0.0
2.61945 -0.00217964 0.0
1.47847 0.00902836 0.0
1.74847 0.0431564 0.0
2.31144 0.105279 0.0
2.21617 -0.0705578 0.0
1.34298 -0.0323277 0.0
1.44877 0.0829074 0.0
1.37749 0.0182163 0.0
2.45029 0.0522005 0.0
1.28077 0.0588731 0.0
1.42954 0.0424876 0.0
1.33128 -0.0252658 0.0
2.46553 0.118827 0.0
1.61774 -0.0399176 0.0
1.19941 0.0154043 0.0
1.3571 0.0171014 0.0
1.14457 0.0319153 0.0
1.48851 0.0438865 0.0
1.46992 -0.00815243 0.0
2.15452 -0.0293398 0.0
1.0412 -0.00900859 0.0
2.41336 0.138059 0.0
2.51593 0.0730461 0.0
6.03434 -0.0510273 0.0
5.94112 -0.0586604 0.0
6.05906 -0.0316345 0.0
5.57962 -0.00515843 0.0
6.13002 -0.113001 0.0
6.24634 -0.0421824 0.0
5.6115 -0.0120743 0.0
6.16198 -0.116906 0.0
6.27803 -0.0968053 0.0
6.19384 -0.128511 0.0
6.2887 -0.0498638 0.0