# vtk DataFile Version 3.0
Malha 2D com triângulos e temperatura
ASCII
DATASET UNSTRUCTURED_GRID

POINTS 1194 double
0 0 0
5 0 0
5 1 0
0 1 0
0.85 0.5 0
0.842388 0.538268 0
0.820711 0.570711 0
0.788268 0.592388 0
0.75 0.6 0
0.711732 0.592388 0
0.679289 0.570711 0
0.657612 0.538268 0
0.65 0.5 0
0.657612 0.461732 0
0.679289 0.429289 0
0.711732 0.407612 0
0.75 0.4 0
0.788268 0.407612 0
0.820711 0.429289 0
0.842388 0.461732 0
0.0793651 0 0
0.15873 0 0
0.238095 0 0
0.31746 0 0
0.396825 0 0
0.47619 0 0
0.555556 0 0
0.634921 0 0
0.714286 0 0
0.793651 0 0
0.873016 0 0
0.952381 0 0
1.03175 0 0
1.11111 0 0
1.19048 0 0
1.26984 0 0
1.34921 0 0
1.42857 0 0
1.50794 0 0
1.5873 0 0
1.66667 0 0
1.74603 0 0
1.8254 0 0
1.90476 0 0
1.98413 0 0
2.06349 0 0
2.14286 0 0
2.22222 0 0
2.30159 0 0
2.38095 0 0
2.46032 0 0
2.53968 0 0
2.61905 0 0
2.69841 0 0
2.77778 0 0
2.85714 0 0
2.93651 0 0
3.01587 0 0
3.09524 0 0
3.1746 0 0
3.25397 0 0
3.33333 0 0
3.4127 0 0
3.49206 0 0
3.57143 0 0
3.65079 0 0
3.73016 0 0
3.80952 0 0
3.88889 0 0
3.96825 0 0
4.04762 0 0
4.12698 0 0
4.20635 0 0
4.28571 0 0
4.36508 0 0
4.44444 0 0
4.52381 0 0
4.60317 0 0
4.68254 0 0
4.7619 0 0
4.84127 0 0
4.92063 0 0
5 0.0769231 0
5 0.153846 0
5 0.230769 0
5 0.307692 0
5 0.384615 0
5 0.461538 0
5 0.538462 0
5 0.615385 0
5 0.692308 0
5 0.769231 0
5 0.846154 0
5 0.923077 0
4.92063 1 0
4.84127 1 0
4.7619 1 0
4.68254 1 0
4.60317 1 0
4.52381 1 0
4.44444 1 0
4.36508 1 0
4.28571 1 0
4.20635 1 0
4.12698 1 0
4.04762 1 0
3.96825 1 0
3.88889 1 0
3.80952 1 0
3.73016 1 0
3.65079 1 0
3.57143 1 0
3.49206 1 0
3.4127 1 0
3.33333 1 0
3.25397 1 0
3.1746 1 0
3.09524 1 0
3.01587 1 0
2.93651 1 0
2.85714 1 0
2.77778 1 0
2.69841 1 0
2.61905 1 0
2.53968 1 0
2.46032 1 0
2.38095 1 0
2.30159 1 0
2.22222 1 0
2.14286 1 0
2.06349 1 0
1.98413 1 0
1.90476 1 0
1.8254 1 0
1.74603 1 0
1.66667 1 0
1.5873 1 0
1.50794 1 0
1.42857 1 0
1.34921 1 0
1.26984 1 0
1.19048 1 0
1.11111 1 0
1.03175 1 0
0.952381 1 0
0.873016 1 0
0.793651 1 0
0.714286 1 0
0.634921 1 0
0.555556 1 0
0.47619 1 0
0.396825 1 0
0.31746 1 0
0.238095 1 0
0.15873 1 0
0.0793651 1 0
0 0.923077 0
0 0.846154 0
0 0.769231 0
0 0.692308 0
0 0.615385 0
0 0.538462 0
0 0.461538 0
0 0.384615 0
0 0.307692 0
0 0.230769 0
0 0.153846 0
0 0.0769231 0
0.879698 0.466718 0
1.3085 0.931947 0
1.30532 0.0638546 0
4.93832 0.504275 0
0.620452 0.46964 0
3.99858 0.0669607 0
1.63721 0.934258 0
3.3751 0.0523709 0
4.3254 0.0687322 0
2.42354 0.0642082 0
2.97619 0.0687322 0
2.02101 0.0693621 0
3.68108 0.0581336 0
2.65899 0.932655 0
4.178 0.939994 0
3.21614 0.938179 0
2.25483 0.919987 0
3.53215 0.928998 0
3.84921 0.931268 0
1.69647 0.0674297 0
1.94349 0.930209 0
4.48413 0.931268 0
2.97813 0.942022 0
2.74097 0.0673855 0
0.859645 0.573263 0
0.639718 0.573116 0
0.0651563 0.652836 0
0.0635304 0.346121 0
4.56232 0.0679683 0
0.830393 0.392645 0
0.669618 0.39275 0
1.06185 0.0668897 0
0.440193 0.0680031 0
1.06474 0.93511 0
0.446074 0.935974 0
0.724697 0.630698 0
4.72268 0.931235 0
4.93065 0.267192 0
0.589836 0.936152 0
0.92338 0.0562425 0
0.590207 0.0623339 0
0.755872 0.0732784 0
0.838039 0.936714 0
4.92573 0.732039 0
0.281717 0.93783 0
0.28208 0.0811877 0
0.065248 0.503161 0
1.46076 0.0637037 0
4.72574 0.0661877 0
4.31028 0.937908 0
3.21429 0.0687322 0
1.46639 0.932632 0
3.6897 0.928155 0
2.42063 0.931268 0
3.5364 0.0691789 0
2.25998 0.0676208 0
1.78735 0.937047 0
4.01535 0.920637 0
1.85469 0.0674188 0
3.83991 0.0626292 0
3.37477 0.929368 0
2.58225 0.0657863 0
2.81746 0.932342 0
4.16667 0.0687322 0
2.11402 0.935574 0
0.0614266 0.197046 0
0.0612841 0.803003 0
4.88273 0.0644126 0
4.87774 0.933272 0
0.859645 0.426737 0
0.903081 0.436592 0
0.923672 0.473385 0
0.948706 0.439078 0
0.969155 0.479795 0
0.996593 0.439791 0
1.0202 0.484937 0
1.04667 0.440138 0
1.07382 0.489694 0
1.1034 0.440801 0
1.13169 0.49612 0
1.16603 0.445058 0
1.1931 0.504331 0
1.22956 0.450883 0
1.25923 0.506004 0
1.29683 0.453139 0
1.32923 0.510343 0
1.36603 0.454344 0
1.03276 0.530395 0
1.40063 0.516169 0
1.43576 0.454934 0
1.47042 0.520776 0
1.51069 0.46142 0
1.54422 0.526371 0
1.58547 0.465572 0
1.61942 0.531773 0
1.66033 0.468788 0
1.69546 0.536793 0
1.73713 0.472812 0
1.77239 0.541977 0
1.81532 0.478494 0
1.85006 0.547285 0
1.89327 0.483449 0
1.92802 0.55361 0
1.97142 0.488546 0
2.00623 0.558966 0
2.04984 0.493518 0
2.08483 0.564085 0
2.12847 0.498462 0
2.16353 0.569137 0
2.20719 0.503331 0
0.961579 0.391697 0
1.22451 0.565337 0
2.24238 0.574192 0
2.28611 0.508258 0
2.32134 0.579247 0
2.36519 0.513325 0
2.40036 0.584295 0
2.44425 0.51834 0
2.47944 0.589336 0
2.52334 0.523355 0
2.55853 0.594372 0
2.60245 0.52837 0
2.63764 0.599431 0
2.68159 0.533388 0
2.64637 0.462336 0
2.72553 0.467349 0
2.76076 0.538418 0
2.8047 0.47237 0
2.83993 0.543451 0
2.88387 0.477399 0
2.91911 0.548482 0
2.96305 0.482427 0
2.9983 0.553514 0
3.04224 0.487456 0
3.07749 0.558545 0
3.12143 0.492477 0
3.15668 0.563574 0
3.20063 0.497514 0
3.23588 0.568605 0
3.27983 0.502542 0
3.31508 0.573635 0
3.35903 0.507562 0
3.39428 0.578663 0
3.43823 0.5126 0
3.47348 0.583694 0
3.51744 0.517628 0
3.55268 0.588724 0
3.59664 0.522646 0
3.63189 0.593752 0
3.67585 0.527673 0
3.71109 0.598781 0
3.75505 0.532702 0
3.7903 0.60381 0
3.83426 0.537731 0
3.79901 0.466623 0
3.87821 0.471754 0
3.91346 0.542777 0
3.95742 0.476701 0
3.99267 0.547795 0
4.03662 0.481715 0
4.07187 0.552815 0
4.11582 0.486743 0
4.15106 0.55783 0
4.195 0.491782 0
4.23023 0.562843 0
4.27415 0.49682 0
4.30937 0.567866 0
4.35325 0.501915 0
4.38842 0.572845 0
4.43227 0.506997 0
4.46737 0.577575 0
4.51106 0.511995 0
4.54622 0.582183 0
1.13571 0.390292 0
4.47606 0.441361 0
4.55475 0.446396 0
2.32985 0.442214 0
3.5614 0.451571 0
3.08619 0.421408 0
2.09339 0.427815 0
1.42887 0.583001 0
2.84864 0.406329 0
3.32378 0.43649 0
4.23911 0.425894 0
1.54723 0.39251 0
1.77883 0.406811 0
1.33959 0.387065 0
3.92239 0.405803 0
4.08079 0.415776 0
2.48812 0.452349 0
1.57935 0.603183 0
1.93602 0.417543 0
1.72453 0.617973 0
3.11273 0.629643 0
2.69029 0.396284 0
3.94662 0.623383 0
1.88466 0.613248 0
2.79598 0.609502 0
4.10826 0.620575 0
2.04005 0.62838 0
2.95434 0.619575 0
4.51981 0.375801 0
4.59833 0.380943 0
4.63314 0.451296 0
4.26693 0.63114 0
2.19619 0.645921 0
4.4246 0.642296 0
3.27112 0.639707 0
2.35729 0.649822 0
2.51462 0.660373 0
3.42952 0.649769 0
4.67669 0.38601 0
3.58793 0.659829 0
3.74634 0.669888 0
4.64195 0.315733 0
4.44109 0.370647 0
4.48493 0.305066 0
4.40614 0.29989 0
4.71136 0.456133 0
4.72014 0.320758 0
0.8692 0.382093 0
0.841252 0.348256 0
0.886481 0.338703 0
0.853127 0.301457 0
0.902583 0.287335 0
0.801683 0.321689 0
0.818113 0.263019 0
0.764765 0.277091 0
4.44702 0.235678 0
0.946267 0.520761 0
0.78107 0.221265 0
0.726309 0.234724 0
0.848273 0.20551 0
4.68545 0.250576 0
4.37074 0.227561 0
4.76365 0.255792 0
4.79822 0.326145 0
0.713664 0.287231 0
0.672358 0.247957 0
0.68673 0.192342 0
0.630368 0.2085 0
0.616569 0.265341 0
0.574186 0.225456 0
0.557393 0.28131 0
0.52004 0.242373 0
0.504416 0.299685 0
0.462273 0.252096 0
0.44798 0.316739 0
0.404567 0.276951 0
0.390546 0.335414 0
0.434669 0.37657 0
0.377935 0.394545 0
0.421979 0.43426 0
0.365682 0.452846 0
0.409646 0.492216 0
0.353389 0.51089 0
0.397738 0.551598 0
0.339864 0.570301 0
0.385899 0.612153 0
0.325913 0.631557 0
0.344507 0.29318 0
0.320568 0.413067 0
0.373553 0.673852 0
0.434438 0.653082 0
0.311416 0.69481 0
0.449777 0.528305 0
0.293513 0.534612 0
0.421431 0.715204 0
0.480917 0.696603 0
0.54504 0.34471 0
0.262743 0.649913 0
0.246209 0.712341 0
0.468564 0.755948 0
0.526091 0.735423 0
0.538207 0.68039 0
0.581228 0.716342 0
0.408756 0.777952 0
0.36234 0.239019 0
0.297047 0.251925 0
0.572109 0.771575 0
0.624906 0.752173 0
0.474824 0.414151 0
0.534351 0.182707 0
0.633682 0.70159 0
0.674547 0.736174 0
0.66826 0.788959 0
0.721117 0.76834 0
0.714515 0.825486 0
0.769074 0.802008 0
0.775287 0.746591 0
0.821903 0.778625 0
0.826767 0.726064 0
0.873257 0.756032 0
0.872997 0.697261 0
0.92331 0.732304 0
0.930014 0.67838 0
0.976061 0.710612 0
0.92456 0.784469 0
0.982178 0.654421 0
1.03016 0.688004 0
1.02037 0.747059 0
1.08 0.723819 0
1.08651 0.661896 0
1.1397 0.698204 0
1.13262 0.763657 0
1.19424 0.736545 0
1.18556 0.80161 0
1.24839 0.771772 0
1.25723 0.706382 0
1.31432 0.745787 0
4.66801 0.521361 0
4.74602 0.526202 0
4.70285 0.591278 0
4.78076 0.596023 0
4.73763 0.661207 0
4.78904 0.460969 0
2.61113 0.391267 0
2.65506 0.325217 0
2.57588 0.320198 0
2.61982 0.254148 0
2.69899 0.259163 0
2.54065 0.249131 0
2.49672 0.315179 0
2.46148 0.244124 0
2.41757 0.310166 0
2.38233 0.239117 0
2.33843 0.30514 0
2.30297 0.237979 0
2.25928 0.300748 0
2.22079 0.221377 0
2.17969 0.293884 0
2.14114 0.224266 0
2.10047 0.289841 0
2.0653 0.219144 0
2.02202 0.284919 0
1.98701 0.214164 0
1.94336 0.279863 0
3.82315 0.673327 0
3.78135 0.738156 0
3.86451 0.735958 0
3.70234 0.735494 0
4.52513 0.244409 0
4.32717 0.294467 0
4.29217 0.221862 0
0.619934 0.539507 0
0.599432 0.577132 0
0.575955 0.542712 0
0.554504 0.58245 0
4.65962 0.656481 0
4.69438 0.726169 0
4.6161 0.721747 0
4.77259 0.731352 0
4.65076 0.791486 0
4.57153 0.788793 0
4.2482 0.289182 0
4.21307 0.218308 0
4.1691 0.284563 0
4.13394 0.21352 0
0.835918 0.606341 0
0.806475 0.6384 0
4.08995 0.279537 0
0.640355 0.426737 0
0.596214 0.435837 0
0.630358 0.379178 0
0.689967 0.627735 0
1.90832 0.209948 0
1.86468 0.27519 0
1.82968 0.20518 0
1.78607 0.269797 0
0.281841 0.313314 0
0.232117 0.268621 0
0.216861 0.334396 0
4.05473 0.209347 0
4.01077 0.2745 0
3.97554 0.204394 0
3.93159 0.269388 0
0.297409 0.759367 0
0.231645 0.782943 0
0.180008 0.73598 0
1.32151 0.676369 0
1.38055 0.718092 0
1.36901 0.793947 0
1.43945 0.766002 0
0.249902 0.198865 0
0.932364 0.624392 0
1.75117 0.201034 0
1.70771 0.264658 0
1.673 0.195402 0
1.62985 0.260294 0
1.59532 0.191927 0
1.55236 0.254233 0
3.89629 0.200227 0
3.85238 0.264494 0
3.81708 0.195303 0
3.77304 0.259453 0
2.66368 0.189084 0
2.74279 0.19534 0
2.77814 0.264556 0
2.82201 0.199823 0
2.85733 0.269552 0
2.90126 0.203886 0
2.93654 0.274416 0
2.98045 0.20868 0
3.01573 0.279376 0
3.0597 0.213193 0
[...]
CELL_DATA 2220
VECTORS velocity double
21.9588 -1.24312 0.0
16.1893 0.652683 0.0
24.1442 0.871172 0.0
18.496 2.18777 0.0
22.5089 -1.43827 0.0
26.1321 -1.00891 0.0
13.905 0.629461 0.0
15.3438 0.00921741 0.0
30.0815 2.87409 0.0
25.4869 -0.710876 0.0
18.9556 0.610878 0.0
14.6095 0.404264 0.0
11.8489 0.300433 0.0
25.8621 -2.36173 0.0
20.8526 -0.117387 0.0
25.9837 3.15493 0.0
15.8361 0.688812 0.0
13.0032 0.692835 0.0
14.4281 -0.175092 0.0
15.3807 -0.144863 0.0
20.4509 0.608036 0.0
23.8862 3.60407 0.0
14.8517 0.739963 0.0
15.0709 0.741983 0.0
29.4077 -0.571314 0.0
23.9014 -2.14933 0.0
18.8536 0.966452 0.0
13.157 0.729103 0.0
18.2671 2.06657 0.0
20.0324 1.54707 0.0
27.6528 -1.32161 0.0
24.3677 2.8231 0.0
11.008 -0.16073 0.0
25.9143 1.034 0.0
27.5957 -3.58659 0.0
26.4612 -1.08745 0.0
27.1908 -3.94662 0.0
12.658 -0.162594 0.0
21.059 2.37078 0.0
22.6148 1.79235 0.0
11.7048 0.537376 0.0
29.9582 3.05709 0.0
15.7544 1.8884 0.0
14.1492 0.0456064 0.0
12.9133 0.0616005 0.0
11.7076 0.0514653 0.0
14.6262 0.743669 0.0
11.8289 0.0160575 0.0
25.2922 -0.622579 0.0
27.6257 0.179596 0.0
16.7488 0.721201 0.0
11.6727 0.159323 0.0
14.3487 0.776247 0.0
14.438 0.17977 0.0
13.4521 0.626829 0.0
23.0435 1.59583 0.0
25.9699 2.95634 0.0
12.3977 0.683039 0.0
12.7871 0.689341 0.0
28.1634 0.0722912 0.0
0.448534 -4.50317 0.0
29.5929 -0.924086 0.0
28.3825 -1.89095 0.0
14.6515 0.801606 0.0
14.6009 0.750053 0.0
28.4322 0.953787 0.0
14.8882 -1.72331 0.0
27.5769 3.28047 0.0
12.643 0.729578 0.0
12.7418 0.756713 0.0
14.3347 0.255075 0.0
26.712 -1.42792 0.0
11.4617 0.242927 0.0
27.1399 0.591644 0.0
9.78185 0.415954 0.0
28.5065 2.64204 0.0
29.4077 2.0282 0.0
18.4286 -1.60741 0.0
29.8088 3.47024 0.0
13.8027 0.167167 0.0
19.7467 -0.80526 0.0
23.362 -1.49494 0.0
11.181 -0.276088 0.0
11.5816 0.157962 0.0
14.2129 0.586166 0.0
14.1691 0.323279 0.0
20.6143 -1.4215 0.0
12.0607 0.288687 0.0
12.2411 0.481888 0.0
30.0737 2.45236 0.0
5.17914 0.506553 0.0
18.7962 1.8648 0.0
14.4717 -0.21919 0.0
26.3217 2.91698 0.0
28.9135 2.7757 0.0
22.3872 -1.61557 0.0
23.2025 -3.80711 0.0
11.4468 -1.1396 0.0
1.54539 -3.59279 0.0
25.3975 -0.461002 0.0
5.91739 -0.838255 0.0
22.0874 -2.00211 0.0
14.4479 0.703677 0.0
12.9256 0.970066 0.0
26.7451 3.81209 0.0
28.0983 3.08512 0.0
26.3484 -0.883218 0.0
29.1474 -0.907656 0.0
4.65157 -0.079079 0.0
15.0436 1.0432 0.0
22.1217 1.5259 0.0
28.368 -2.04231 0.0
26.0611 -0.729071 0.0
8.66318 -0.87779 0.0
29.5208 -1.44949 0.0
12.5035 0.630073 0.0
24.527 -2.29611 0.0
13.7543 -0.51194 0.0
6.00535 -0.0919391 0.0
29.9854 1.88471 0.0
17.5898 -1.53923 0.0
24.9477 -1.14494 0.0
14.8528 1.31872 0.0
19.2453 3.07515 0.0
28.7836 -3.54733 0.0
21.965 -2.74105 0.0
26.6521 2.86692 0.0
17.498 1.34623 0.0
28.2124 -2.75752 0.0
12.8918 1.63345 0.0
12.8648 0.890104 0.0
14.8065 -1.96069 0.0
8.94627 -1.30639 0.0
16.3137 4.41811 0.0
20.7829 2.28146 0.0
13.9363 4.87006 0.0
10.8256 0.00362658 0.0
18.3208 -0.345854 0.0
23.3544 -2.83703 0.0
24.7902 2.95956 0.0
20.7906 -0.896055 0.0
13.9105 -0.032487 0.0
29.5817 -1.76236 0.0
29.7756 -3.92694 0.0
26.5393 0.582231 0.0
23.8351 2.59085 0.0
7.64774 1.06807 0.0
11.6975 -0.639589 0.0
29.0038 1.48987 0.0
28.9753 -1.23098 0.0
12.6548 -0.151891 0.0
29.3486 1.86019 0.0
25.1374 -0.00523762 0.0
17.8561 2.7801 0.0
8.8925 4.27282 0.0
15.7204 0.320183 0.0
16.9495 -2.01257 0.0
16.1949 0.514416 0.0
8.88294 -0.95421 0.0
16.8627 -1.2993 0.0
16.1692 -2.96686 0.0
12.687 0.069006 0.0
7.26213 -1.06542 0.0
24.3895 -2.73422 0.0
11.4041 0.145684 0.0
24.5325 1.81998 0.0
25.4269 -2.02499 0.0
26.9079 -1.11778 0.0
15.6144 0.232994 0.0
9.44769 -1.93913 0.0
8.60783 1.407 0.0
11.3877 0.0951086 0.0
14.2766 0.125918 0.0
12.3231 -1.60516 0.0
19.6629 -1.35894 0.0
29.8534 3.45839 0.0
28.83 1.89256 0.0
29.0533 3.21139 0.0
9.30109 -0.66449 0.0
15.5534 0.111352 0.0
24.5306 -0.430574 0.0
17.2984 -0.931974 0.0
5.6506 1.15846 0.0
14.4748 2.06999 0.0
15.6754 0.0199726 0.0
29.0282 -0.882276 0.0
25.0311 0.126773 0.0
12.8098 -0.141632 0.0
24.1131 -3.67582 0.0
26.731 -0.38615 0.0
10.4758 -1.15678 0.0
12.4511 -0.257873 0.0
29.4047 -2.50486 0.0
28.7958 1.26696 0.0
17.1247 -1.83435 0.0
25 0.823167 0.0
19.9891 0.694352 0.0
14.3104 -0.232576 0.0
5.15839 -0.496998 0.0
14.7415 -0.282383 0.0
14.642 -2.0163 0.0
18.8548 -0.367563 0.0
26.3512 2.55099 0.0
14.7257 0.0396729 0.0
11.8633 -0.413732 0.0
20.9297 -1.8679 0.0
21.1746 -0.0710828 0.0
13.6919 0.104828 0.0
20.3275 0.694619 0.0
8.75613 -0.69785 0.0
14.3912 0.714264 0.0
10.2715 -0.42499 0.0
19.3712 -0.222076 0.0
29.1838 3.37229 0.0
29.728 2.55391 0.0
15.9797 1.09976 0.0
12.383 0.657855 0.0
14.5749 0.824987 0.0
9.63845 0.359904 0.0
10.1104 -0.178916 0.0
26.0712 0.349349 0.0
7.34507 -0.13611 0.0
12.4842 0.759525 0.0
7.04904 -0.0248183 0.0
14.6116 0.0288515 0.0
17.3092 -0.488989 0.0
15.3443 -1.29516 0.0
17.6995 -0.82324 0.0
25.0588 -0.151219 0.0
9.18108 1.0004 0.0
18.1198 0.696775 0.0
19.505 -0.999735 0.0
10.3905 -0.0206875 0.0
15.0282 -0.0370525 0.0
9.37531 -0.905696 0.0
28.1587 0.0198011 0.0
18.515 -1.76784 0.0
14.3788 -0.259645 0.0
14.2917 -0.293902 0.0
12.9886 -0.0223492 0.0
29.8294 -3.67693 0.0
25.1258 -3.32026 0.0
28.9223 4.02661 0.0
7.87927 0.00555129 0.0
15.3102 4.04951 0.0
26.3001 -0.0986527 0.0
15.6865 -0.0503751 0.0
23.1187 -1.11461 0.0
7.20213 5.25465 0.0
16.257 1.91458 0.0
14.0042 -4.11264 0.0
7.86396 -0.0763507 0.0
25.2925 -2.47861 0.0
25.2843 -0.16253 0.0
29.2132 -2.88914 0.0
14.1986 0.426884 0.0
8.45378 0.168296 0.0
25.8741 0.0809624 0.0
17.4078 1.78501 0.0
28.3504 1.34881 0.0
15.9907 -0.371807 0.0
25.5313 -0.789253 0.0
9.00782 1.0121 0.0
19.7904 -1.43239 0.0
7.74534 -0.3956 0.0
6.49123 -0.0810362 0.0
13.7349 -0.406814 0.0
22.3929 -1.42411 0.0
18.9574 1.33723 0.0
26.557 -0.156953 0.0
24.8631 0.782833 0.0
25.4592 0.0141541 0.0
12.1385 0.357749 0.0
26.2412 -1.32015 0.0
15.7786 -2.09308 0.0
29.1997 4.04196 0.0
10.5632 1.84675 0.0
25.3645 -0.846221 0.0
15.3288 1.4941 0.0
10.6628 0.118822 0.0
18.3769 -2.14276 0.0
19.8004 -2.02327 0.0
29.7486 3.81242 0.0
19.2357 0.698156 0.0
25.8536 -1.22081 0.0
17.9162 -0.243295 0.0
26.241 -3.21168 0.0
18.6288 0.691564 0.0
12.5277 -0.219533 0.0
12.1592 -0.249915 0.0
8.41572 -0.326775 0.0
14.3129 -0.809589 0.0
9.24544 0.872345 0.0
16.7887 -2.56802 0.0
16.5974 -1.07673 0.0
18.0959 -0.244234 0.0
18.2917 -0.213778 0.0
16.2785 0.472205 0.0
29.9876 3.95017 0.0
29.794 2.59488 0.0
11.5533 -0.43519 0.0
30.0289 3.46151 0.0
26.3328 -1.79281 0.0
6.13167 0.0806604 0.0
26.1468 -3.03264 0.0
15.4071 0.599876 0.0
11.9237 -0.0192938 0.0
12.3008 -0.268166 0.0
12.6545 0.376481 0.0
8.37181 0.774662 0.0
11.037 0.0677234 0.0
9.68506 1.05928 0.0
11.2189 1.12584 0.0
29.9117 4.01098 0.0
24.9434 -2.03671 0.0
14.0844 -0.270397 0.0
29.2388 2.9062 0.0
9.74988 0.920047 0.0
28.8678 -2.12443 0.0
29.7369 2.90445 0.0
11.2965 -1.96776 0.0
14.5379 0.991395 0.0
25.4913 0.125776 0.0
9.91159 -0.828821 0.0
10.3704 2.42467 0.0
10.3201 -0.17661 0.0
25.5225 0.104784 0.0
25.631 0.833406 0.0
26.5695 0.330323 0.0
9.90474 -0.475072 0.0
27.4584 -3.26074 0.0
30.1363 -4.273 0.0
26.3993 -1.45568 0.0
8.9264 -0.921109 0.0
30.0891 -0.173086 0.0
29.497 -3.18271 0.0
19.0323 -2.23912 0.0
29.771 3.46238 0.0
25.1782 -1.81081 0.0
14.2147 -0.295131 0.0
6.94837 -0.117016 0.0
12.7582 -0.307334 0.0
5.70684 0.435334 0.0
5.8528 0.0127286 0.0
11.578 -1.58372 0.0
30.0369 3.36147 0.0
10.0733 2.26403 0.0
29.249 3.26115 0.0
29.0076 2.25119 0.0
5.48113 -0.296817 0.0
30.3254 1.25135 0.0
4.67389 0.182385 0.0
5.66775 -0.375662 0.0
23.8669 2.92177 0.0
7.64589 0.642625 0.0
28.4513 -1.51701 0.0
29.8302 1.56289 0.0
4.44952 -0.248005 0.0
25.1875 0.574329 0.0
23.216 -2.86092 0.0
28.1776 2.34576 0.0
11.5097 0.680427 0.0
23.2197 1.88316 0.0
28.6657 2.82747 0.0
5.02972 0.536189 0.0
28.5458 0.360373 0.0
26.224 -4.07608 0.0
5.08886 -0.385716 0.0
5.27138 -0.495181 0.0
25.8379 -1.57362 0.0
5.24412 0.422403 0.0
24.2641 3.5383 0.0
29.1072 -1.58643 0.0
15.9937 -0.537704 0.0
6.75531 -0.0784049 0.0
10.4295 0.48642 0.0
19.4188 0.501566 0.0
19.4829 0.173671 0.0
28.3666 -0.737868 0.0
18.365 -0.156047 0.0
10.9959 -0.725332 0.0
29.2496 3.23482 0.0
29.1393 -2.79637 0.0
26.1697 0.176618 0.0
28.9719 3.17717 0.0
24.8913 -0.116378 0.0
29.9901 3.61825 0.0
25.3831 0.095707 0.0
24.5086 -1.92589 0.0
27.742 1.8992 0.0
8.59375 0.922215 0.0
24.4645 0.0424679 0.0
21.8094 -0.829507 0.0
28.5635 -2.56081 0.0
7.68133 -0.87275 0.0
14.4556 -1.17101 0.0
28.2681 0.634482 0.0
7.38457 0.707521 0.0
25.3569 0.111819 0.0
28.6535 2.35402 0.0
6.03851 0.262894 0.0
22.7325 -0.591729 0.0
27.832 2.59126 0.0
25.6314 0.0417559 0.0
26.8108 -3.83623 0.0
29.5954 -4.17311 0.0
7.13564 2.24194 0.0
7.97566 0.69697 0.0
18.1328 -1.38037 0.0
29.5067 -1.68155 0.0
22.0426 -2.48764 0.0
5.61908 0.057348 0.0
29.3309 3.64095 0.0
29.4559 -2.68819 0.0
28.6826 -1.96779 0.0
25.6994 0.0355517 0.0
3.52613 -0.16177 0.0
4.74852 0.4185 0.0
28.9994 2.79742 0.0
5.34247 0.511795 0.0
29.7689 3.20973 0.0
28.3103 2.42832 0.0
3.57022 0.002572 0.0
5.32865 -0.43796 0.0
27.3126 2.14867 0.0
24.0958 0.323395 0.0
3.44252 0.167519 0.0
22.298 -0.155596 0.0
25.3895 0.151917 0.0
8.32727 -0.620534 0.0
25.6252 0.0777757 0.0
25.582 2.12899 0.0
29.1111 -2.91532 0.0
27.1074 1.57325 0.0
5.81779 -0.568546 0.0
24.7442 -4.07808 0.0
5.81976 -0.152024 0.0
5.69921 0.433629 0.0
26.8015 -3.15968 0.0
5.4159 0.581934 0.0
26.1604 2.51779 0.0
26.8589 1.78419 0.0
30.4979 -3.37819 0.0
30.203 -4.28844 0.0
9.1265 -1.01997 0.0
17.8418 0.099427 0.0
28.3919 1.78236 0.0
4.61563 -0.304146 0.0
4.24366 0.34569 0.0
13.1833 -0.683072 0.0
8.9173 0.911917 0.0
25.6582 -0.567107 0.0
6.12382 -0.407787 0.0
18.052 0.850171 0.0
27.2553 0.943586 0.0
7.47071 0.602513 0.0
10.1238 0.702746 0.0
28.3971 3.03313 0.0
5.89923 0.369623 0.0
26.2829 1.2001 0.0
25.0061 1.78942 0.0
24.6593 0.287962 0.0
5.33423 -0.540112 0.0
4.14428 0.391912 0.0
7.22428 -0.309173 0.0
19.6255 -0.116267 0.0
10.9247 -0.740835 0.0
25.6829 0.122043 0.0
3.48416 0.0943035 0.0
30.5727 -4.19271 0.0
8.03562 -0.266355 0.0
4.25551 0.360377 0.0
12.5548 -1.43642 0.0
29.0758 3.35217 0.0
7.96799 -0.53336 0.0
24.5649 0.237581 0.0
26.0288 1.44859 0.0
22.1063 -0.247302 0.0
25.4932 0.188847 0.0
24.3745 1.49932 0.0
16.7274 -1.33092 0.0
30.334 0.447267 0.0
28.6348 -2.02993 0.0
23.7602 1.2125 0.0
5.74005 -0.627649 0.0
6.12017 0.650824 0.0
28.2525 -0.751022 0.0
3.94819 0.302488 0.0
25.7657 -3.15262 0.0
18.286 3.19148 0.0
25.6238 0.199103 0.0
4.0789 0.32727 0.0
4.7592 -0.345058 0.0
25.3678 1.09965 0.0
29.6419 3.39603 0.0
20.0072 -0.174943 0.0
22.3192 -1.30019 0.0
23.6075 0.0860277 0.0
20.1813 -1.15909 0.0
15.772 -3.70572 0.0
23.4711 -0.130737 0.0
24.2087 1.91471 0.0
4.31003 -0.173454 0.0
23.282 0.935525 0.0
21.3059 2.30946 0.0
12.9043 -0.348226 0.0
25.7358 0.207709 0.0
3.79046 -0.386652 0.0
4.18699 0.395688 0.0
24.7733 2.26431 0.0
23.9568 -0.153527 0.0
23.5606 -0.706139 0.0
14.7583 -0.155254 0.0
24.9205 0.52739 0.0
25.7881 0.155127 0.0
29.3878 -2.10715 0.0
5.22178 0.77284 0.0
24.8675 0.401782 0.0
29.0184 -2.20119 0.0
23.0469 1.36018 0.0
23.1828 1.6067 0.0
9.82901 -1.26896 0.0
28.9051 -0.0581088 0.0
7.37629 -3.02877 0.0
27.5605 -1.58078 0.0
24.7794 -0.815039 0.0
29.4295 2.40971 0.0
25.2302 0.720133 0.0
5.41784 -0.673889 0.0
22.9679 0.708354 0.0
23.8558 0.86435 0.0
22.5266 1.11185 0.0
26.2106 0.103915 0.0
23.6396 1.6188 0.0
24.4936 0.556992 0.0
19.3912 -0.829766 0.0
22.6101 0.863187 0.0
10.6153 -1.95719 0.0
28.6438 -2.3911 0.0
11.9802 -0.146802 0.0
21.8549 -1.97961 0.0
9.64788 -3.81576 0.0
29.7204 -2.33516 0.0
25.9566 0.130653 0.0
2.65246 -0.265833 0.0
2.72178 0.27217 0.0
24.2271 0.410206 0.0
28.3955 2.79529 0.0
22.7743 0.552393 0.0
19.6601 2.05902 0.0
4.83188 -0.109869 0.0
7.61252 -0.177743 0.0
6.34105 0.346133 0.0
3.92152 1.19279 0.0
7.76063 -2.05067 0.0
29.457 -2.66703 0.0
26.2691 0.0839759 0.0
29.9002 -3.51593 0.0
1.55331 0.67997 0.0
20.9412 -0.0671709 0.0
21.969 -0.0748821 0.0
22.3158 -1.29725 0.0
20.4381 2.87209 0.0
1.72053 -0.672289 0.0
4.20108 -1.09615 0.0
19.6697 0.468767 0.0
16.1138 1.01994 0.0
22.1962 0.871715 0.0
17.5979 -1.24207 0.0
24.0568 -0.0635027 0.0
27.9838 2.09722 0.0
24.6368 -0.0622919 0.0
22.2233 2.12457 0.0
25.7779 0.108501 0.0
3.42497 -0.274859 0.0
30.0038 3.29017 0.0
26.0011 0.262402 0.0
24.5515 0.240807 0.0
25.9646 0.0833422 0.0
23.9979 -0.830357 0.0
3.3038 0.198339 0.0
25.8447 0.0787742 0.0
6.06329 -0.392926 0.0
13.1884 1.0702 0.0
18.901 -0.0327255 0.0
22.6625 0.470482 0.0
21.9697 0.673353 0.0
25.6763 0.48533 0.0
25.8231 0.465914 0.0
25.6163 0.595342 0.0
3.82113 0.252359 0.0
7.014 0.443506 0.0
6.39767 -0.231757 0.0
25.8374 0.252766 0.0
24.0602 0.295279 0.0
30.3114 -4.23994 0.0
5.93119 0.483251 0.0
25.078 0.0189969 0.0
24.5579 1.15915 0.0
12.7765 3.8067 0.0
24.3322 -0.0315097 0.0
3.02662 0.294962 0.0
23.6564 -0.0762118 0.0
24.1772 -0.318305 0.0
24.0821 -0.395376 0.0
19.1353 -0.282589 0.0
17.9264 -0.276297 0.0
23.366 -0.122377 0.0
6.54799 0.19706 0.0
28.7969 3.54697 0.0
25.7138 0.114684 0.0
24.8322 -0.18053 0.0
24.6156 0.271518 0.0
22.6595 0.434015 0.0
14.0662 0.013129 0.0
24.0933 0.310026 0.0
29.1522 -1.48864 0.0
25.7403 0.0562087 0.0
7.43423 0.267513 0.0
23.5868 1.63638 0.0
3.22104 -0.265987 0.0
25.9509 0.363887 0.0
25.8465 0.358833 0.0
22.7257 0.433012 0.0
2.51127 0.471218 0.0
30.2108 -0.989547 0.0
25.9374 0.087559 0.0
25.6334 0.54246 0.0
24.0174 -0.0723896 0.0
25.5763 -0.102144 0.0
24.7575 0.299218 0.0
25.7395 0.272895 0.0
25.9944 0.23743 0.0
25.8947 0.158931 0.0
22.896 0.457932 0.0
3.63185 0.162697 0.0
11.4555 0.495538 0.0
25.6742 -0.122323 0.0
27.8937 3.12815 0.0
2.68676 -0.445425 0.0
6.66641 -0.152886 0.0
29.0081 -2.81556 0.0
24.4316 1.12896 0.0
24.2196 0.343517 0.0
12.0164 -0.269303 0.0
24.5338 -0.15452 0.0
24.9044 -0.112759 0.0
19.7872 3.18541 0.0
6.5902 0.293263 0.0
3.49627 -0.155508 0.0
28.7448 -1.80043 0.0
22.0828 1.85967 0.0
24.6739 -0.831063 0.0
25.9331 0.356972 0.0
10.9359 0.106063 0.0
24.4092 0.352286 0.0
21.8315 0.568663 0.0
25.5765 -0.0358228 0.0
3.34992 0.201179 0.0
24.9414 0.285927 0.0
25.6628 0.0105791 0.0
3.83233 -0.076469 0.0
23.1545 0.455467 0.0
25.7376 0.167797 0.0
25.8863 0.448692 0.0
25.2091 0.111023 0.0
24.7974 -0.170331 0.0
25.8603 0.0449012 0.0
23.3039 -0.541533 0.0
25.0758 -0.148213 0.0
25.1259 0.209261 0.0
24.8615 0.062233 0.0
24.4373 -0.205619 0.0
3.68104 -0.0959142 0.0
25.8496 0.151546 0.0
24.3691 -0.24453 0.0
4.75508 0.170464 0.0
25.7604 0.00015174 0.0
7.32438 0.301938 0.0
24.6358 0.284491 0.0
24.7257 -0.215653 0.0
25.9034 0.405214 0.0
25.4317 -0.132454 0.0
25.2054 0.0374037 0.0
25.7978 0.357955 0.0
13.8806 0.253276 0.0
23.7488 0.169508 0.0
22.8562 0.660194 0.0
23.4219 0.343576 0.0
3.44898 -0.0222631 0.0
25.4971 0.285384 0.0
24.8079 0.159559 0.0
22.9136 -1.63816 0.0
3.16807 -0.30117 0.0
21.8677 0.486115 0.0
3.11683 0.221753 0.0
21.9993 -1.67574 0.0
23.5902 0.700294 0.0
22.0085 0.493059 0.0
23.7928 -0.12913 0.0
24.3203 -0.263403 0.0
22.2861 0.513104 0.0
25.1128 -0.0623668 0.0
26.6513 -2.87491 0.0
21.9327 -1.73272 0.0
24.6088 -0.00951618 0.0
25.8251 0.451665 0.0
25.8655 0.439738 0.0
25.905 0.390678 0.0
24.6771 -0.243974 0.0
26.0146 0.401021 0.0
22.7096 -0.150254 0.0
26.0459 0.340344 0.0
24.111 -0.126366 0.0
23.8256 0.0537085 0.0
13.2666 0.437129 0.0
25.1987 0.206945 0.0
26.0563 0.375524 0.0
21.678 -0.384397 0.0
25.89 0.386464 0.0
24.6467 -0.245731 0.0
24.2906 -0.247594 0.0
3.78785 0.145892 0.0
24.852 -0.00241367 0.0
21.8119 0.515632 0.0
26.1567 0.347934 0.0
20.5027 0.0331842 0.0
7.66584 0.287035 0.0
23.8652 -0.0223855 0.0
25.9691 0.276222 0.0
22.9138 0.253621 0.0
22.2305 -0.146976 0.0
24.2712 -0.183806 0.0
26.0169 0.12568 0.0
24.6318 -0.209134 0.0
23.1627 0.107525 0.0
18.2383 2.5933 0.0
25.6643 -0.0495179 0.0
26.22 0.311427 0.0
25.7543 0.48732 0.0
12.9934 -0.0772069 0.0
24.8232 -0.0521776 0.0
21.6346 -0.179989 0.0
4.20435 0.172735 0.0
7.08341 0.334928 0.0
24.6148 -0.132804 0.0
25.7876 0.337832 0.0
23.417 -0.272427 0.0
24.2375 -0.0845802 0.0
26.1331 0.212527 0.0
23.6308 -0.182834 0.0
23.889 -0.0776095 0.0
24.1578 0.0215638 0.0
21.677 -0.198438 0.0
23.1604 -0.171387 0.0
26.2876 0.234897 0.0
21.904 -0.167256 0.0
26.1786 0.165978 0.0
23.3352 -0.297475 0.0
23.9451 -0.224502 0.0
23.0067 -0.219303 0.0
21.4855 -0.238688 0.0
25.6547 0.336812 0.0
24.5705 -0.0362261 0.0
5.17399 0.198938 0.0
7.83202 0.287681 0.0
26.1588 0.041161 0.0
25.9895 -0.0408953 0.0
22.5315 0.482731 0.0
23.0827 0.0463157 0.0
23.299 -0.0612534 0.0
25.949 0.418469 0.0
24.0013 0.106094 0.0
25.6269 0.518653 0.0
25.1637 -0.0155647 0.0
21.322 -0.283507 0.0
22.6935 -0.31756 0.0
23.2336 0.00594562 0.0
24.4734 0.0532518 0.0
26.3446 0.173934 0.0
25.5004 -0.0843731 0.0
22.8869 -0.264493 0.0
28.5044 1.42484 0.0
20.664 -0.224731 0.0
22.782 -0.303058 0.0
21.1825 -0.331983 0.0
25.0537 0.670267 0.0
23.773 0.138982 0.0
24.3108 0.106716 0.0
23.2845 -0.281575 0.0
20.8989 -0.193066 0.0
22.5081 -0.00423558 0.0
26.0637 0.327657 0.0
21.0493 -0.35851 0.0
22.6422 -0.263258 0.0
23.5369 0.101685 0.0
14.8628 0.232719 0.0
25.3601 0.283692 0.0
20.9213 -0.290294 0.0
13.1168 0.166384 0.0
20.4682 -0.265034 0.0
24.1114 0.100656 0.0
20.868 -0.134557 0.0
22.5883 -0.145329 0.0
21.19 -0.179893 0.0
3.71292 -0.06879 0.0
6.7177 -0.123657 0.0
14.7329 0.32864 0.0
23.5027 -0.232808 0.0
23.1942 -0.0811296 0.0
23.3621 0.0175201 0.0
23.9344 0.0369855 0.0
20.7477 0.0277364 0.0
7.68181 0.152629 0.0
26.243 0.227197 0.0
6.87729 -0.133699 0.0
26.3439 0.0509839 0.0
23.3052 -0.0711976 0.0
20.2918 -0.314178 0.0
22.8597 0.148533 0.0
20.0864 -0.367675 0.0
26.3533 -0.0482129 0.0
22.5289 0.197193 0.0
3.83195 -0.0701562 0.0
6.7914 -0.132976 0.0
23.2478 -0.202221 0.0
4.19211 0.0931652 0.0
23.8321 -0.0564079 0.0
19.9496 -0.351719 0.0
19.8527 -0.209103 0.0
22.327 0.11952 0.0
23.7187 -0.101842 0.0
26.2928 -0.0182054 0.0
22.2031 0.164621 0.0
21.9616 0.07143 0.0
6.83134 -0.115901 0.0
3.9767 -0.0706282 0.0
12.5399 0.273627 0.0
19.7412 -0.0272182 0.0
21.9816 0.207078 0.0
23.5103 -0.23124 0.0
21.5771 0.227058 0.0
24.3704 -0.0267755 0.0
12.7442 0.300461 0.0
21.233 0.147409 0.0
23.8695 -0.131995 0.0
21.8605 -0.00925087 0.0
6.96418 0.153268 0.0
3.61952 -0.0439403 0.0
3.05846 -0.0725476 0.0
3.86719 -0.0641583 0.0
6.86643 -0.0354094 0.0
7.31535 0.160613 0.0
3.34382 -0.0166137 0.0
3.7838 0.00315399 0.0
6.69165 -0.120751 0.0
3.6502 -0.0469761 0.0
3.93209 -0.0353375 0.0
4.19781 0.126091 0.0
7.31609 -0.120159 0.0
4.04688 0.0841789 0.0
6.58477 -0.0756179 0.0
3.9009 0.0824265 0.0
7.02932 -0.0552063 0.0
6.85963 0.0121732 0.0
3.77355 0.147875 0.0
7.58657 0.181343 0.0
6.6905 -0.101079 0.0
6.52907 -0.0987784 0.0
3.85863 0.220869 0.0
6.37089 -0.0583436 0.0
6.82672 0.205634 0.0
3.60986 0.00887735 0.0
6.64636 -0.0603612 0.0
4.05979 0.0391022 0.0
3.62974 0.0976071 0.0
6.39875 -0.135475 0.0
3.86873 0.162786 0.0
4.70807 0.10075 0.0
3.92951 0.249146 0.0
3.34823 0.0865082 0.0
3.57222 -0.0135519 0.0
6.73052 0.0287868 0.0
3.74059 -0.0698138 0.0
3.82451 -0.0692306 0.0
3.95762 0.168837 0.0
4.01423 0.14819 0.0
3.90063 0.0236089 0.0
3.80328 0.0616033 0.0
3.26161 -0.069963 0.0
3.68023 -0.0376778 0.0
4.58917 0.00316621 0.0
7.47614 -0.00980401 0.0
4.01743 -0.0426146 0.0
4.76697 0.0850712 0.0
6.44395 0.173597 0.0
6.23322 -0.154226 0.0
3.65802 -0.0637484 0.0
3.98649 0.191502 0.0
3.7292 0.0456064 0.0
6.99663 0.0627061 0.0
3.5082 0.1043 0.0
3.8925 0.0858821 0.0
3.61689 -0.0607348 0.0
7.02575 0.309044 0.0
4.43903 -0.0828523 0.0
3.23374 0.0278712 0.0
3.66334 0.0274117 0.0
3.10318 0.050848 0.0
4.01964 0.0856922 0.0
4.0369 -0.0172914 0.0
5.93207 -0.0643881 0.0
2.78475 -0.0237175 0.0
6.85513 0.317281 0.0
7.10239 0.141631 0.0
23.8215 -0.132192 0.0
23.4408 -0.105451 0.0
25.0663 -0.10778 0.0
21.0429 0.0484792 0.0
25.8225 -0.271782 0.0
26.0911 -0.129693 0.0
20.9557 0.0154232 0.0
25.9098 -0.289253 0.0
26.2048 -0.247021 0.0
25.9917 -0.3103 0.0
26.2706 -0.152968 0.0
21.9799 -0.00491835 0.0
23.7824 -0.0983917 0.0
26.0942 -0.276841 0.0
23.1888 -0.113114 0.0
25.7247 -0.187639 0.0
24.1066 -0.155481 0.0
25.7023 -0.145635 0.0
24.9547 -0.232163 0.0
25.1177 -0.258247 0.0
18.7576 0.116846 0.0
25.8407 -0.32113 0.0
26.1176 -0.170821 0.0
25.4184 -0.241676 0.0
26.1049 -0.261696 0.0
20.7878 -0.0960257 0.0
24.7898 -0.0979771 0.0
23.6473 -0.0860673 0.0
25.8465 -0.30921 0.0