# vtk DataFile Version 3.0
Malha 2D com triângulos e temperatura
ASCII
DATASET UNSTRUCTURED_GRID

POINTS 1194 double
0 0 0
5 0 0
5 1 0
0 1 0
0.85 0.5 0
0.842388 0.538268 0
0.820711 0.570711 0
0.788268 0.592388 0
0.75 0.6 0
0.711732 0.592388 0
0.679289 0.570711 0
0.657612 0.538268 0
0.65 0.5 0
0.657612 0.461732 0
0.679289 0.429289 0
0.711732 0.407612 0
0.75 0.4 0
0.788268 0.407612 0
0.820711 0.429289 0
0.842388 0.461732 0
0.0793651 0 0
0.15873 0 0
0.238095 0 0
0.31746 0 0
0.396825 0 0
0.47619 0 0
0.555556 0 0
0.634921 0 0
0.714286 0 0
0.793651 0 0
0.873016 0 0
0.952381 0 0
1.03175 0 0
1.11111 0 0
1.19048 0 0
1.26984 0 0
1.34921 0 0
1.42857 0 0
1.50794 0 0
1.5873 0 0
1.66667 0 0
1.74603 0 0
1.8254 0 0
1.90476 0 0
1.98413 0 0
2.06349 0 0
2.14286 0 0
2.22222 0 0
2.30159 0 0
2.38095 0 0
2.46032 0 0
2.53968 0 0
2.61905 0 0
2.69841 0 0
2.77778 0 0
2.85714 0 0
2.93651 0 0
3.01587 0 0
3.09524 0 0
3.1746 0 0
3.25397 0 0
3.33333 0 0
3.4127 0 0
3.49206 0 0
3.57143 0 0
3.65079 0 0
3.73016 0 0
3.80952 0 0
3.88889 0 0
3.96825 0 0
4.04762 0 0
4.12698 0 0
4.20635 0 0
4.28571 0 0
4.36508 0 0
4.44444 0 0
4.52381 0 0
4.60317 0 0
4.68254 0 0
4.7619 0 0
4.84127 0 0
4.92063 0 0
5 0.0769231 0
5 0.153846 0
5 0.230769 0
5 0.307692 0
5 0.384615 0
5 0.461538 0
5 0.538462 0
5 0.615385 0
5 0.692308 0
5 0.769231 0
5 0.846154 0
5 0.923077 0
4.92063 1 0
4.84127 1 0
4.7619 1 0
4.68254 1 0
4.60317 1 0
4.52381 1 0
4.44444 1 0
4.36508 1 0
4.28571 1 0
4.20635 1 0
4.12698 1 0
4.04762 1 0
3.96825 1 0
3.88889 1 0
3.80952 1 0
3.73016 1 0
3.65079 1 0
3.57143 1 0
3.49206 1 0
3.4127 1 0
3.33333 1 0
3.25397 1 0
3.1746 1 0
3.09524 1 0
3.01587 1 0
2.93651 1 0
2.85714 1 0
2.77778 1 0
2.69841 1 0
2.61905 1 0
2.53968 1 0
2.46032 1 0
2.38095 1 0
2.30159 1 0
2.22222 1 0
2.14286 1 0
2.06349 1 0
1.98413 1 0
1.90476 1 0
1.8254 1 0
1.74603 1 0
1.66667 1 0
1.5873 1 0
1.50794 1 0
1.42857 1 0
1.34921 1 0
1.26984 1 0
1.19048 1 0
1.11111 1 0
1.03175 1 0
0.952381 1 0
0.873016 1 0
0.793651 1 0
0.714286 1 0
0.634921 1 0
0.555556 1 0
0.47619 1 0
0.396825 1 0
0.31746 1 0
0.238095 1 0
0.15873 1 0
0.0793651 1 0
0 0.923077 0
0 0.846154 0
0 0.769231 0
0 0.692308 0
0 0.615385 0
0 0.538462 0
0 0.461538 0
0 0.384615 0
0 0.307692 0
0 0.230769 0
0 0.153846 0
0 0.0769231 0
0.879698 0.466718 0
1.3085 0.931947 0
1.30532 0.0638546 0
4.93832 0.504275 0
0.620452 0.46964 0
3.99858 0.0669607 0
1.63721 0.934258 0
3.3751 0.0523709 0
4.3254 0.0687322 0
2.42354 0.0642082 0
2.97619 0.0687322 0
2.02101 0.0693621 0
3.68108 0.0581336 0
2.65899 0.932655 0
4.178 0.939994 0
3.21614 0.938179 0
2.25483 0.919987 0
3.53215 0.928998 0
3.84921 0.931268 0
1.69647 0.0674297 0
1.94349 0.930209 0
4.48413 0.931268 0
2.97813 0.942022 0
2.74097 0.0673855 0
0.859645 0.573263 0
0.639718 0.573116 0
0.0651563 0.652836 0
0.0635304 0.346121 0
4.56232 0.0679683 0
0.830393 0.392645 0
0.669618 0.39275 0
1.06185 0.0668897 0
0.440193 0.0680031 0
1.06474 0.93511 0
0.446074 0.935974 0
0.724697 0.630698 0
4.72268 0.931235 0
4.93065 0.267192 0
0.589836 0.936152 0
0.92338 0.0562425 0
0.590207 0.0623339 0
0.755872 0.0732784 0
0.838039 0.936714 0
4.92573 0.732039 0
0.281717 0.93783 0
0.28208 0.0811877 0
0.065248 0.503161 0
1.46076 0.0637037 0
4.72574 0.0661877 0
4.31028 0.937908 0
3.21429 0.0687322 0
1.46639 0.932632 0
3.6897 0.928155 0
2.42063 0.931268 0
3.5364 0.0691789 0
2.25998 0.0676208 0
1.78735 0.937047 0
4.01535 0.920637 0
1.85469 0.0674188 0
3.83991 0.0626292 0
3.37477 0.929368 0
2.58225 0.0657863 0
2.81746 0.932342 0
4.16667 0.0687322 0
2.11402 0.935574 0
0.0614266 0.197046 0
0.0612841 0.803003 0
4.88273 0.0644126 0
4.87774 0.933272 0
0.859645 0.426737 0
0.903081 0.436592 0
0.923672 0.473385 0
0.948706 0.439078 0
0.969155 0.479795 0
0.996593 0.439791 0
1.0202 0.484937 0
1.04667 0.440138 0
1.07382 0.489694 0
1.1034 0.440801 0
1.13169 0.49612 0
1.16603 0.445058 0
1.1931 0.504331 0
1.22956 0.450883 0
1.25923 0.506004 0
1.29683 0.453139 0
1.32923 0.510343 0
1.36603 0.454344 0
1.03276 0.530395 0
1.40063 0.516169 0
1.43576 0.454934 0
1.47042 0.520776 0
1.51069 0.46142 0
1.54422 0.526371 0
1.58547 0.465572 0
1.61942 0.531773 0
1.66033 0.468788 0
1.69546 0.536793 0
1.73713 0.472812 0
1.77239 0.541977 0
1.81532 0.478494 0
1.85006 0.547285 0
1.89327 0.483449 0
1.92802 0.55361 0
1.97142 0.488546 0
2.00623 0.558966 0
2.04984 0.493518 0
2.08483 0.564085 0
2.12847 0.498462 0
2.16353 0.569137 0
2.20719 0.503331 0
0.961579 0.391697 0
1.22451 0.565337 0
2.24238 0.574192 0
2.28611 0.508258 0
2.32134 0.579247 0
2.36519 0.513325 0
2.40036 0.584295 0
2.44425 0.51834 0
2.47944 0.589336 0
2.52334 0.523355 0
2.55853 0.594372 0
2.60245 0.52837 0
2.63764 0.599431 0
2.68159 0.533388 0
2.64637 0.462336 0
2.72553 0.467349 0
2.76076 0.538418 0
2.8047 0.47237 0
2.83993 0.543451 0
2.88387 0.477399 0
2.91911 0.548482 0
2.96305 0.482427 0
2.9983 0.553514 0
3.04224 0.487456 0
3.07749 0.558545 0
3.12143 0.492477 0
3.15668 0.563574 0
3.20063 0.497514 0
3.23588 0.568605 0
3.27983 0.502542 0
3.31508 0.573635 0
3.35903 0.507562 0
3.39428 0.578663 0
3.43823 0.5126 0
3.47348 0.583694 0
3.51744 0.517628 0
3.55268 0.588724 0
3.59664 0.522646 0
3.63189 0.593752 0
3.67585 0.527673 0
3.71109 0.598781 0
3.75505 0.532702 0
3.7903 0.60381 0
3.83426 0.537731 0
3.79901 0.466623 0
3.87821 0.471754 0
3.91346 0.542777 0
3.95742 0.476701 0
3.99267 0.547795 0
4.03662 0.481715 0
4.07187 0.552815 0
4.11582 0.486743 0
4.15106 0.55783 0
4.195 0.491782 0
4.23023 0.562843 0
4.27415 0.49682 0
4.30937 0.567866 0
4.35325 0.501915 0
4.38842 0.572845 0
4.43227 0.506997 0
4.46737 0.577575 0
4.51106 0.511995 0
4.54622 0.582183 0
1.13571 0.390292 0
4.47606 0.441361 0
4.55475 0.446396 0
2.32985 0.442214 0
3.5614 0.451571 0
3.08619 0.421408 0
2.09339 0.427815 0
1.42887 0.583001 0
2.84864 0.406329 0
3.32378 0.43649 0
4.23911 0.425894 0
1.54723 0.39251 0
1.77883 0.406811 0
1.33959 0.387065 0
3.92239 0.405803 0
4.08079 0.415776 0
2.48812 0.452349 0
1.57935 0.603183 0
1.93602 0.417543 0
1.72453 0.617973 0
3.11273 0.629643 0
2.69029 0.396284 0
3.94662 0.623383 0
1.88466 0.613248 0
2.79598 0.609502 0
4.10826 0.620575 0
2.04005 0.62838 0
2.95434 0.619575 0
4.51981 0.375801 0
4.59833 0.380943 0
4.63314 0.451296 0
4.26693 0.63114 0
2.19619 0.645921 0
4.4246 0.642296 0
3.27112 0.639707 0
2.35729 0.649822 0
2.51462 0.660373 0
3.42952 0.649769 0
4.67669 0.38601 0
3.58793 0.659829 0
3.74634 0.669888 0
4.64195 0.315733 0
4.44109 0.370647 0
4.48493 0.305066 0
4.40614 0.29989 0
4.71136 0.456133 0
4.72014 0.320758 0
0.8692 0.382093 0
0.841252 0.348256 0
0.886481 0.338703 0
0.853127 0.301457 0
0.902583 0.287335 0
0.801683 0.321689 0
0.818113 0.263019 0
0.764765 0.277091 0
4.44702 0.235678 0
0.946267 0.520761 0
0.78107 0.221265 0
0.726309 0.234724 0
0.848273 0.20551 0
4.68545 0.250576 0
4.37074 0.227561 0
4.76365 0.255792 0
4.79822 0.326145 0
0.713664 0.287231 0
0.672358 0.247957 0
0.68673 0.192342 0
0.630368 0.2085 0
0.616569 0.265341 0
0.574186 0.225456 0
0.557393 0.28131 0
0.52004 0.242373 0
0.504416 0.299685 0
0.462273 0.252096 0
0.44798 0.316739 0
0.404567 0.276951 0
0.390546 0.335414 0
0.434669 0.37657 0
0.377935 0.394545 0
0.421979 0.43426 0
0.365682 0.452846 0
0.409646 0.492216 0
0.353389 0.51089 0
0.397738 0.551598 0
0.339864 0.570301 0
0.385899 0.612153 0
0.325913 0.631557 0
0.344507 0.29318 0
0.320568 0.413067 0
0.373553 0.673852 0
0.434438 0.653082 0
0.311416 0.69481 0
0.449777 0.528305 0
0.293513 0.534612 0
0.421431 0.715204 0
0.480917 0.696603 0
0.54504 0.34471 0
0.262743 0.649913 0
0.246209 0.712341 0
0.468564 0.755948 0
0.526091 0.735423 0
0.538207 0.68039 0
0.581228 0.716342 0
0.408756 0.777952 0
0.36234 0.239019 0
0.297047 0.251925 0
0.572109 0.771575 0
0.624906 0.752173 0
0.474824 0.414151 0
0.534351 0.182707 0
0.633682 0.70159 0
0.674547 0.736174 0
0.66826 0.788959 0
0.721117 0.76834 0
0.714515 0.825486 0
0.769074 0.802008 0
0.775287 0.746591 0
0.821903 0.778625 0
0.826767 0.726064 0
0.873257 0.756032 0
0.872997 0.697261 0
0.92331 0.732304 0
0.930014 0.67838 0
0.976061 0.710612 0
0.92456 0.784469 0
0.982178 0.654421 0
1.03016 0.688004 0
1.02037 0.747059 0
1.08 0.723819 0
1.08651 0.661896 0
1.1397 0.698204 0
1.13262 0.763657 0
1.19424 0.736545 0
1.18556 0.80161 0
1.24839 0.771772 0
1.25723 0.706382 0
1.31432 0.745787 0
4.66801 0.521361 0
4.74602 0.526202 0
4.70285 0.591278 0
4.78076 0.596023 0
4.73763 0.661207 0
4.78904 0.460969 0
2.61113 0.391267 0
2.65506 0.325217 0
2.57588 0.320198 0
2.61982 0.254148 0
2.69899 0.259163 0
2.54065 0.249131 0
2.49672 0.315179 0
2.46148 0.244124 0
2.41757 0.310166 0
2.38233 0.239117 0
2.33843 0.30514 0
2.30297 0.237979 0
2.25928 0.300748 0
2.22079 0.221377 0
2.17969 0.293884 0
2.14114 0.224266 0
2.10047 0.289841 0
2.0653 0.219144 0
2.02202 0.284919 0
1.98701 0.214164 0
1.94336 0.279863 0
3.82315 0.673327 0
3.78135 0.738156 0
3.86451 0.735958 0
3.70234 0.735494 0
4.52513 0.244409 0
4.32717 0.294467 0
4.29217 0.221862 0
0.619934 0.539507 0
0.599432 0.577132 0
0.575955 0.542712 0
0.554504 0.58245 0
4.65962 0.656481 0
4.69438 0.726169 0
4.6161 0.721747 0
4.77259 0.731352 0
4.65076 0.791486 0
4.57153 0.788793 0
4.2482 0.289182 0
4.21307 0.218308 0
4.1691 0.284563 0
4.13394 0.21352 0
0.835918 0.606341 0
0.806475 0.6384 0
4.08995 0.279537 0
0.640355 0.426737 0
0.596214 0.435837 0
0.630358 0.379178 0
0.689967 0.627735 0
1.90832 0.209948 0
1.86468 0.27519 0
1.82968 0.20518 0
1.78607 0.269797 0
0.281841 0.313314 0
0.232117 0.268621 0
0.216861 0.334396 0
4.05473 0.209347 0
4.01077 0.2745 0
3.97554 0.204394 0
3.93159 0.269388 0
0.297409 0.759367 0
0.231645 0.782943 0
0.180008 0.73598 0
1.32151 0.676369 0
1.38055 0.718092 0
1.36901 0.793947 0
1.43945 0.766002 0
0.249902 0.198865 0
0.932364 0.624392 0
1.75117 0.201034 0
1.70771 0.264658 0
1.673 0.195402 0
1.62985 0.260294 0
1.59532 0.191927 0
1.55236 0.254233 0
3.89629 0.200227 0
3.85238 0.264494 0
3.81708 0.195303 0
3.77304 0.259453 0
2.66368 0.189084 0
2.74279 0.19534 0
2.77814 0.264556 0
2.82201 0.199823 0
2.85733 0.269552 0
2.90126 0.203886 0
2.93654 0.274416 0
2.98045 0.20868 0
3.01573 0.279376 0
3.0597 0.213193 0
[...]
CELL_DATA 2220
VECTORS velocity double
19.8212 -1.12345 0.0
14.7981 0.627096 0.0
22.6567 0.893477 0.0
17.3073 2.08204 0.0
20.3134 -1.30817 0.0
23.1401 -0.91955 0.0
12.7527 0.606527 0.0
14.0352 0.0138959 0.0
27.9209 2.82804 0.0
22.5954 -0.638764 0.0
17.8562 0.641461 0.0
13.3663 0.401159 0.0
10.8865 0.297174 0.0
23.928 -2.2838 0.0
19.6306 -0.0705928 0.0
23.9813 3.09971 0.0
14.4924 0.623399 0.0
11.9392 0.658708 0.0
13.2175 -0.167192 0.0
14.0473 -0.135338 0.0
19.2447 0.628469 0.0
22.1486 3.49804 0.0
13.5912 0.695406 0.0
13.7828 0.715501 0.0
26.196 -0.545922 0.0
22.0985 -2.06096 0.0
17.7677 0.889192 0.0
12.0724 0.705385 0.0
17.1072 1.96567 0.0
18.7341 1.47668 0.0
24.9478 -1.28132 0.0
22.7093 2.67571 0.0
10.1481 -0.155222 0.0
24.3404 0.953916 0.0
25.3058 -3.46643 0.0
23.4337 -0.99024 0.0
25.0257 -3.82306 0.0
11.612 -0.154105 0.0
19.6446 2.25331 0.0
21.2329 1.67804 0.0
11.0904 0.493013 0.0
27.7404 2.99132 0.0
14.78 1.79971 0.0
12.9825 0.0451934 0.0
11.8603 0.0781433 0.0
10.7877 0.0518826 0.0
13.3869 0.711031 0.0
10.892 0.0195681 0.0
22.4464 -0.557985 0.0
24.3364 0.139951 0.0
15.7874 0.725197 0.0
10.7185 0.155157 0.0
13.1318 0.746508 0.0
13.1844 0.174338 0.0
12.3527 0.579015 0.0
21.6545 1.48827 0.0
24.1939 2.80065 0.0
11.384 0.656294 0.0
11.7442 0.664455 0.0
24.8115 0.0407225 0.0
0.600406 -3.89003 0.0
26.3051 -0.873928 0.0
25.5718 -1.82762 0.0
13.4032 0.77376 0.0
13.3518 0.710188 0.0
26.6644 0.864851 0.0
14.0239 -1.64462 0.0
25.3678 3.20931 0.0
11.6074 0.693089 0.0
11.6972 0.731875 0.0
13.0921 0.249453 0.0
25.055 -1.33963 0.0
10.5253 0.238397 0.0
23.9785 0.522694 0.0
8.97753 0.410202 0.0
25.9764 2.53856 0.0
26.4005 1.9315 0.0
17.0404 -1.51932 0.0
27.3934 3.37429 0.0
12.657 0.168118 0.0
18.595 -0.726184 0.0
21.9462 -1.38549 0.0
10.5864 -0.268226 0.0
10.6654 0.159213 0.0
13.0206 0.570166 0.0
12.981 0.318112 0.0
18.7071 -1.29934 0.0
11.0934 0.285636 0.0
11.2534 0.470384 0.0
28.0063 2.43229 0.0
4.76431 0.499968 0.0
17.5425 1.80252 0.0
13.2353 -0.208474 0.0
24.1082 2.77158 0.0
26.3471 2.65762 0.0
21.0322 -1.50289 0.0
21.4772 -3.70927 0.0
10.8069 -1.14974 0.0
1.70556 -3.15553 0.0
23.8465 -0.396971 0.0
5.5818 -0.841326 0.0
20.3147 -1.89149 0.0
13.2272 0.680086 0.0
11.886 0.909045 0.0
24.8322 3.68409 0.0
25.6811 2.97271 0.0
23.2745 -0.807193 0.0
25.7226 -0.845031 0.0
4.34323 -0.0718735 0.0
13.774 0.974953 0.0
20.5639 1.4499 0.0
26.4018 -2.01302 0.0
23.0282 -0.660112 0.0
8.22831 -0.837333 0.0
26.1854 -1.35328 0.0
11.4893 0.612468 0.0
22.5655 -2.18568 0.0
12.9707 -0.495301 0.0
5.69704 -0.103164 0.0
27.9775 1.88499 0.0
16.2012 -1.44146 0.0
22.8886 -1.07797 0.0
13.9348 1.27838 0.0
17.9177 2.997 0.0
26.3333 -3.41489 0.0
20.3606 -2.71678 0.0
24.3817 2.77219 0.0
16.4509 1.29192 0.0
25.9977 -2.66791 0.0
11.9445 1.61869 0.0
11.9426 0.696623 0.0
13.6469 -1.91936 0.0
8.26373 -1.28314 0.0
15.004 3.42329 0.0
19.4211 2.17172 0.0
13.0771 3.85739 0.0
9.99272 0.00637664 0.0
17.2696 -0.363769 0.0
21.6876 -2.81396 0.0
23.0402 2.80677 0.0
19.5277 -0.896354 0.0
12.7704 -0.0284121 0.0
26.3096 -1.65376 0.0
27.2881 -3.77019 0.0
23.4764 0.513557 0.0
21.9376 2.46406 0.0
7.10381 1.06054 0.0
11.0675 -0.65698 0.0
25.7849 1.36392 0.0
25.6003 -1.13976 0.0
11.6485 -0.115262 0.0
27.3916 1.85738 0.0
23.0496 -0.000137905 0.0
16.6969 2.7098 0.0
8.71714 3.53286 0.0
14.4162 0.303963 0.0
15.9503 -1.92429 0.0
14.8199 0.490486 0.0
8.55852 -0.926927 0.0
15.7758 -1.25778 0.0
15.0517 -2.9039 0.0
11.6792 0.0677813 0.0
6.75384 -1.06125 0.0
22.7397 -2.58405 0.0
10.4852 0.14153 0.0
23.0351 1.73276 0.0
23.8039 -2.03958 0.0
24.4729 -1.07228 0.0
14.317 0.218957 0.0
8.81789 -1.90462 0.0
8.0716 1.40273 0.0
10.505 0.0990798 0.0
13.0618 0.12116 0.0
11.4379 -1.59654 0.0
18.0701 -1.34365 0.0
27.299 3.3458 0.0
25.961 1.81387 0.0
26.4881 3.10899 0.0
8.76587 -0.644205 0.0
14.261 0.109548 0.0
22.5258 -0.404589 0.0
16.2576 -0.918707 0.0
5.30188 1.13884 0.0
13.5348 2.0603 0.0
14.3404 0.0244373 0.0
25.9462 -0.847469 0.0
22.7931 0.130391 0.0
11.7693 -0.107686 0.0
22.2501 -3.57611 0.0
24.2984 -0.365317 0.0
10.0528 -1.12238 0.0
11.4365 -0.247332 0.0
27.2831 -2.45978 0.0
25.5684 1.15298 0.0
16.0684 -1.73392 0.0
22.7722 0.804473 0.0
18.0612 0.625074 0.0
13.1194 -0.178518 0.0
4.9094 -0.47336 0.0
13.5112 -0.233966 0.0
13.1753 -1.37818 0.0
17.102 -0.264361 0.0
24.6799 2.44394 0.0
13.4768 0.0630444 0.0
11.2401 -0.370234 0.0
19.1622 -1.74551 0.0
19.9412 -0.107275 0.0
12.5765 0.110553 0.0
18.4295 0.537672 0.0
8.171 -0.657409 0.0
13.1639 0.680587 0.0
9.71737 -0.399256 0.0
17.5131 -0.205977 0.0
26.8969 3.29514 0.0
26.7457 2.43011 0.0
14.7142 0.855214 0.0
11.3682 0.627289 0.0
13.3381 0.778128 0.0
9.13669 0.36297 0.0
9.27768 -0.173751 0.0
23.0563 0.299779 0.0
6.81864 -0.118816 0.0
11.469 0.716862 0.0
6.55106 -0.0170314 0.0
13.3804 0.0448929 0.0
15.7905 -0.365032 0.0
14.2071 -1.21752 0.0
16.6825 -0.774429 0.0
23.5332 -0.197477 0.0
8.68059 0.95331 0.0
16.5429 0.551759 0.0
17.6956 -0.898894 0.0
9.60781 -0.0154302 0.0
13.7617 -0.0167363 0.0
8.86195 -0.856104 0.0
25.5371 0.0297981 0.0
17.0776 -1.75124 0.0
13.1585 -0.247668 0.0
13.0822 -0.281227 0.0
11.9468 -0.0135603 0.0
27.3001 -3.51647 0.0
23.4972 -3.21067 0.0
26.7794 3.87666 0.0
7.33304 0.00986081 0.0
14.3258 3.2311 0.0
23.1806 -0.104194 0.0
14.336 -0.0197036 0.0
21.3259 -1.05354 0.0
7.17098 4.33546 0.0
15.265 1.82265 0.0
13.1532 -3.24681 0.0
7.31607 -0.0714709 0.0
23.6134 -2.47608 0.0
22.4702 -0.146363 0.0
26.42 -2.78744 0.0
13.0063 0.416831 0.0
7.80488 0.165097 0.0
22.859 0.057623 0.0
16.3583 1.68868 0.0
25.7344 1.29708 0.0
14.5982 -0.357478 0.0
23.3728 -0.739869 0.0
8.5155 0.966519 0.0
18.5124 -1.39758 0.0
7.1807 -0.359303 0.0
6.2033 -0.0770941 0.0
12.6447 -0.311949 0.0
20.4954 -1.40309 0.0
17.7991 1.31802 0.0
23.385 -0.156688 0.0
22.14 0.702739 0.0
22.7281 0.0166186 0.0
11.1609 0.351052 0.0
23.3366 -1.19949 0.0
14.676 -2.08108 0.0
26.9294 3.88885 0.0
9.92497 1.80893 0.0
23.0314 -0.827916 0.0
14.2726 1.42387 0.0
10.0999 0.113276 0.0
17.1979 -2.14074 0.0
18.5528 -1.90611 0.0
27.3343 3.64619 0.0
17.437 0.620404 0.0
22.9884 -1.10931 0.0
16.2797 -0.170956 0.0
24.3848 -3.04656 0.0
16.886 0.634675 0.0
11.5025 -0.209846 0.0
11.1776 -0.239759 0.0
7.77332 -0.326275 0.0
13.1368 -0.735052 0.0
8.66851 0.833751 0.0
15.2106 -1.85104 0.0
15.1849 -0.983608 0.0
16.4166 -0.228491 0.0
16.5813 -0.199641 0.0
15.2713 0.450451 0.0
27.8267 3.78919 0.0
26.7407 2.45411 0.0
10.7141 -0.333814 0.0
27.3811 3.32966 0.0
24.5472 -1.76285 0.0
5.86256 0.0780822 0.0
24.2381 -3.00035 0.0
14.1392 0.525074 0.0
10.9794 -0.00631054 0.0
11.3023 -0.257472 0.0
11.9515 0.361609 0.0
7.82328 0.732659 0.0
10.4667 0.0903762 0.0
8.46054 0.648656 0.0
10.5904 1.13372 0.0
27.5684 3.84285 0.0
23.402 -1.94583 0.0
12.9022 -0.25879 0.0
26.5156 2.79827 0.0
9.22421 0.871181 0.0
26.2462 -2.02657 0.0
26.7636 2.74592 0.0
10.6274 -1.92665 0.0
13.684 0.969329 0.0
22.556 0.0997467 0.0
9.38109 -0.778649 0.0
9.15535 1.66484 0.0
9.78665 -0.185994 0.0
22.79 0.106079 0.0
22.781 0.747806 0.0
23.4607 0.281568 0.0
9.36841 -0.468562 0.0
25.3311 -3.2103 0.0
27.7278 -4.10532 0.0
23.9429 -1.42041 0.0
8.4466 -0.875262 0.0
28.1829 -0.23928 0.0
26.922 -3.03879 0.0
17.8097 -2.12476 0.0
27.2409 3.32967 0.0
23.1371 -1.70779 0.0
13.0152 -0.282536 0.0
6.6097 -0.0974976 0.0
11.7255 -0.29644 0.0
5.42059 0.40935 0.0
5.57317 0.00299634 0.0
10.9195 -1.54417 0.0
27.6851 3.26867 0.0
9.6298 1.84599 0.0
26.559 3.09912 0.0
25.9487 2.08711 0.0
5.19546 -0.289784 0.0
28.3974 1.14559 0.0
4.44471 0.181019 0.0
5.38819 -0.350052 0.0
22.0152 2.87522 0.0
7.11359 0.602615 0.0
25.8374 -1.44804 0.0
27.9358 1.45395 0.0
4.15067 -0.227702 0.0
22.3733 0.508777 0.0
21.6045 -2.71565 0.0
25.3089 2.17173 0.0
10.8809 0.694658 0.0
21.7059 1.85112 0.0
25.8608 2.65153 0.0
4.77362 0.51214 0.0
25.1911 0.310041 0.0
24.4148 -3.95285 0.0
4.80472 -0.371988 0.0
5.00449 -0.469352 0.0
23.6711 -1.48339 0.0
4.95342 0.405632 0.0
22.4098 3.43501 0.0
27.2571 -1.48153 0.0
14.6249 -0.473345 0.0
6.26879 -0.0756265 0.0
9.90094 0.469996 0.0
17.6467 0.474349 0.0
17.6612 0.170828 0.0
25.7313 -0.69647 0.0
16.6837 -0.149766 0.0
10.4184 -0.674984 0.0
26.7277 3.09185 0.0
26.5452 -2.67564 0.0
23.1115 0.142848 0.0
26.5114 3.02513 0.0
22.1648 -0.10231 0.0
27.9209 3.46573 0.0
22.4698 0.0754719 0.0
22.8131 -1.87815 0.0
24.8288 1.74021 0.0
8.15366 0.882923 0.0
21.9088 0.0441189 0.0
20.1847 -0.789481 0.0
25.8345 -2.48011 0.0
7.34783 -0.842708 0.0
13.3468 -1.09152 0.0
25.6447 0.616476 0.0
7.06242 0.679851 0.0
22.4555 0.0939806 0.0
26.0821 2.24891 0.0
5.78524 0.255054 0.0
21.3814 -0.512054 0.0
25.1018 2.41407 0.0
22.6656 0.0281626 0.0
25.0038 -3.71086 0.0
27.4806 -4.01858 0.0
6.98042 1.85923 0.0
7.43276 0.654281 0.0
17.0737 -1.28803 0.0
27.5751 -1.7035 0.0
20.5657 -2.47879 0.0
5.34774 0.064705 0.0
26.9726 3.46876 0.0
26.5174 -2.57383 0.0
26.0852 -1.86852 0.0
22.7139 0.0189852 0.0
3.4098 -0.156469 0.0
4.46528 0.398007 0.0
26.9251 2.74194 0.0
5.07185 0.486278 0.0
26.9332 3.05199 0.0
25.8367 2.30898 0.0
3.4389 0.00291461 0.0
5.05935 -0.412012 0.0
24.5404 1.9791 0.0
21.4537 0.285029 0.0
3.32789 0.162913 0.0
20.0663 -0.14907 0.0
22.4916 0.13438 0.0
7.75434 -0.578933 0.0
22.6695 0.0645604 0.0
23.1084 1.96416 0.0
26.571 -2.77231 0.0
24.1915 1.4378 0.0
5.61478 -0.554754 0.0
22.9554 -3.96647 0.0
5.5325 -0.153264 0.0
5.505 0.421271 0.0
24.6221 -3.10452 0.0
5.14958 0.557577 0.0
23.718 2.34772 0.0
24.0541 1.6332 0.0
28.4147 -3.21713 0.0
27.9781 -4.12241 0.0
8.76587 -0.988828 0.0
16.8281 0.136684 0.0
25.801 1.70678 0.0
4.31514 -0.282458 0.0
3.97128 0.324548 0.0
12.2177 -0.526055 0.0
8.60007 0.886784 0.0
22.7188 -0.512323 0.0
5.8902 -0.395077 0.0
16.8985 0.812524 0.0
24.1587 0.850023 0.0
6.93835 0.566103 0.0
9.65046 0.679293 0.0
25.7493 2.86253 0.0
5.6722 0.35842 0.0
23.4036 1.09046 0.0
22.5248 1.64015 0.0
21.9068 0.249647 0.0
5.10394 -0.518851 0.0
3.96435 0.37605 0.0
6.86899 -0.280931 0.0
17.744 -0.0581946 0.0
10.2205 -0.578503 0.0
22.7285 0.108013 0.0
3.36008 0.0918192 0.0
28.3338 -4.01608 0.0
7.44254 -0.233311 0.0
3.99094 0.339658 0.0
11.9608 -1.38548 0.0
26.5482 3.20436 0.0
7.40209 -0.493539 0.0
21.828 0.206456 0.0
23.2628 1.32168 0.0
20.8009 -0.187816 0.0
22.5911 0.170917 0.0
21.9064 1.37117 0.0
15.3644 -1.23481 0.0
28.4118 0.363581 0.0
25.521 -1.8786 0.0
21.3123 1.10672 0.0
5.54244 -0.610251 0.0
5.90737 0.633101 0.0
25.6468 -0.705218 0.0
3.68421 0.28546 0.0
23.9258 -2.98986 0.0
16.8289 2.51296 0.0
22.7132 0.181148 0.0
3.81101 0.307909 0.0
4.4582 -0.323544 0.0
22.62 0.997225 0.0
27.2594 3.28437 0.0
18.1248 -0.168961 0.0
20.6537 -1.22819 0.0
21.2283 0.086278 0.0
18.7949 -1.09752 0.0
14.5877 -2.84683 0.0
20.9813 -0.124 0.0
21.8965 1.76205 0.0
4.01538 -0.155603 0.0
20.8585 0.850542 0.0
19.1127 1.72127 0.0
11.8552 -0.301287 0.0
22.7648 0.172232 0.0
3.65528 -0.374512 0.0
4.03723 0.382907 0.0
22.4768 2.10214 0.0
21.3754 -0.145451 0.0
21.0816 -0.629279 0.0
13.5174 -0.150353 0.0
22.0923 0.386739 0.0
22.8301 0.14016 0.0
26.3305 -2.01021 0.0
5.01905 0.622423 0.0
22.0905 0.351908 0.0
25.9178 -2.04968 0.0
20.7528 1.24538 0.0
20.6999 1.19489 0.0
9.32963 -1.02456 0.0
27.103 -0.126064 0.0
7.25625 -2.5537 0.0
25.8071 -1.60883 0.0
22.0587 -0.73327 0.0
26.3363 2.2495 0.0
22.3786 0.538995 0.0
5.19817 -0.548509 0.0
20.5687 0.640717 0.0
21.1878 0.629828 0.0
20.2531 1.01772 0.0
23.1701 0.0951343 0.0
21.3299 1.48339 0.0
21.8053 0.495159 0.0
18.0662 -0.794901 0.0
21.2858 0.780532 0.0
10.121 -1.59997 0.0
26.1062 -2.26874 0.0
11.015 -0.141447 0.0
19.7595 -1.50125 0.0
9.37384 -3.17143 0.0
27.7932 -2.20881 0.0
22.9801 0.117172 0.0
2.58284 -0.259706 0.0
2.65033 0.266217 0.0
21.5699 0.362142 0.0
25.975 2.65472 0.0
20.3902 0.498399 0.0
17.5607 1.4889 0.0
4.50183 -0.0927735 0.0
7.06082 -0.152415 0.0
5.95533 0.278875 0.0
3.88452 0.994984 0.0
7.54803 -1.71351 0.0
26.4526 -2.52289 0.0
23.216 0.0771925 0.0
27.8719 -3.36618 0.0
1.59958 0.57979 0.0
18.885 -0.0620556 0.0
19.7456 -0.0699175 0.0
19.9132 -0.936214 0.0
18.5818 2.22025 0.0
1.75465 -0.582735 0.0
4.1369 -0.926813 0.0
17.8735 0.443044 0.0
15.159 0.980187 0.0
19.9399 0.795829 0.0
16.1584 -0.958607 0.0
21.4655 -0.0570581 0.0
25.4626 2.02207 0.0
21.9385 -0.0569332 0.0
20.0406 1.62669 0.0
22.8405 0.0946383 0.0
3.32184 -0.268537 0.0
27.2203 3.14857 0.0
22.9562 0.22236 0.0
21.8216 0.213439 0.0
22.931 0.0801127 0.0
21.3262 -0.605838 0.0
3.20635 0.192811 0.0
22.811 0.0975146 0.0
5.73117 -0.309219 0.0
12.145 1.00014 0.0
17.1279 0.00733725 0.0
20.2887 0.426143 0.0
19.7301 0.612296 0.0
22.7292 0.369014 0.0
22.8359 0.370905 0.0
22.6899 0.45813 0.0
3.56176 0.240091 0.0
6.50277 0.421472 0.0
5.99407 -0.179816 0.0
22.7911 0.24651 0.0
21.4256 0.262733 0.0
27.9367 -4.05938 0.0
5.61263 0.380816 0.0
22.2051 0.0148813 0.0
21.878 0.871468 0.0
12.1337 3.08725 0.0
21.6625 -0.0247638 0.0
2.90436 0.233387 0.0
21.1013 -0.0679989 0.0
21.4326 -0.229546 0.0
21.5033 -0.341097 0.0
17.3159 -0.264485 0.0
16.271 -0.259664 0.0
20.8451 -0.11164 0.0
6.23191 0.177412 0.0
26.3876 3.4114 0.0
22.6992 0.133951 0.0
22.0644 -0.171275 0.0
21.8826 0.245803 0.0
20.2864 0.395796 0.0
12.9147 0.0179078 0.0
21.4584 0.28045 0.0
25.8276 -1.37978 0.0
22.7909 0.0466288 0.0
6.90564 0.242871 0.0
21.0982 1.23374 0.0
3.08695 -0.21305 0.0
22.8993 0.318857 0.0
22.7956 0.339071 0.0
20.3455 0.398294 0.0
2.4655 0.385091 0.0
28.2602 -1.03091 0.0
22.9512 0.0771378 0.0
22.6892 0.436202 0.0
21.3779 -0.0633418 0.0
22.6257 -0.0713412 0.0
22.0152 0.274276 0.0
22.712 0.268349 0.0
22.9356 0.214873 0.0
22.9285 0.143966 0.0
20.5 0.425327 0.0
3.42506 0.134426 0.0
10.6242 0.410096 0.0
22.6884 -0.0630666 0.0
25.5115 3.04569 0.0
2.62949 -0.370737 0.0
6.21113 -0.122224 0.0
26.9576 -2.79357 0.0
21.7938 0.854952 0.0
21.5748 0.315435 0.0
11.0831 -0.209463 0.0
21.7698 -0.139522 0.0
22.061 -0.0999879 0.0
17.9562 2.4377 0.0
6.16995 0.248528 0.0
3.31014 -0.121325 0.0
25.5267 -1.66528 0.0
19.9398 1.43072 0.0
21.9202 -0.611962 0.0
22.8729 0.323925 0.0
10.3794 0.0800036 0.0
21.7509 0.325444 0.0
19.6009 0.518886 0.0
22.618 -0.0342969 0.0
3.1769 0.159526 0.0
22.1851 0.262117 0.0
22.7063 0.00630007 0.0
3.58453 -0.0646791 0.0
20.7393 0.424846 0.0
22.8144 0.151094 0.0
22.8362 0.412326 0.0
22.4073 0.0937266 0.0
21.977 -0.153659 0.0
22.868 0.0388426 0.0
20.8726 -0.474291 0.0
22.2648 -0.142749 0.0
22.3472 0.187962 0.0
22.1263 0.0464664 0.0
21.6971 -0.18701 0.0
3.45931 -0.0751104 0.0
22.8489 0.12273 0.0
21.6502 -0.223064 0.0
4.44903 0.153311 0.0
22.7667 -0.000698161 0.0
6.83057 0.267902 0.0
21.9566 0.259826 0.0
21.9258 -0.195535 0.0
22.8487 0.380424 0.0
22.5482 -0.128403 0.0
22.3827 0.0254794 0.0
22.7617 0.341223 0.0
12.7268 0.251719 0.0
21.2608 0.146404 0.0
20.5126 0.52717 0.0
20.9914 0.315773 0.0
3.22693 -0.0196935 0.0
22.5333 0.28116 0.0
22.1007 0.138629 0.0
20.5626 -1.21704 0.0
3.08529 -0.295108 0.0
19.631 0.448667 0.0
3.03844 0.216355 0.0
19.875 -1.27575 0.0
21.1115 0.546147 0.0
19.7554 0.458367 0.0
21.185 -0.117104 0.0
21.6207 -0.240547 0.0
20.009 0.480489 0.0
22.2663 -0.0615236 0.0
24.9418 -2.76195 0.0
19.6912 -1.25727 0.0
21.8665 0.000779818 0.0
22.797 0.412986 0.0
22.8211 0.393482 0.0
22.8608 0.370203 0.0
21.8953 -0.221547 0.0
22.9558 0.377559 0.0
20.3783 -0.143171 0.0
23.0022 0.317437 0.0
21.4404 -0.107023 0.0
21.3032 0.0364301 0.0
12.2084 0.419054 0.0
22.2995 0.216852 0.0
23.0052 0.357373 0.0
19.5314 -0.325558 0.0
22.8675 0.356117 0.0
21.8811 -0.222801 0.0
21.6084 -0.225412 0.0
3.55952 0.126548 0.0
22.0948 -0.011923 0.0
19.582 0.473488 0.0
23.0954 0.330216 0.0
18.4977 0.0633208 0.0
7.11203 0.275555 0.0
21.3114 -0.0328106 0.0
22.9529 0.256073 0.0
20.5834 0.227399 0.0
19.9376 -0.138303 0.0
21.6038 -0.164595 0.0
23.0093 0.116068 0.0
21.8799 -0.187939 0.0
20.7766 0.0868529 0.0
16.7836 2.04677 0.0
22.6731 -0.0447935 0.0
23.1657 0.29942 0.0
22.7651 0.40796 0.0
11.9476 -0.0733483 0.0
22.0507 -0.0549271 0.0
19.46 -0.172172 0.0
3.91975 0.166441 0.0
6.56788 0.323172 0.0
21.8748 -0.115531 0.0
22.8268 0.328745 0.0
20.8935 -0.251237 0.0
21.583 -0.0702882 0.0
23.0951 0.19947 0.0
21.0536 -0.167466 0.0
21.3116 -0.0808148 0.0
21.5175 0.0299175 0.0
19.4556 -0.184932 0.0
20.6731 -0.157627 0.0
23.2282 0.225296 0.0
19.648 -0.156368 0.0
23.2186 0.166875 0.0
20.8372 -0.275129 0.0
21.3223 -0.205273 0.0
20.5508 -0.202369 0.0
19.2994 -0.222449 0.0
22.6732 0.324839 0.0
21.842 -0.0244134 0.0
4.82859 0.192091 0.0
7.27978 0.277669 0.0
23.1298 0.0376904 0.0
22.9934 -0.0413045 0.0
20.2437 0.452604 0.0
20.6617 0.0535739 0.0
20.8425 -0.0681931 0.0
22.9021 0.387265 0.0
21.3811 0.108779 0.0
22.6506 0.450907 0.0
22.3261 -0.0212509 0.0
19.1687 -0.264862 0.0
20.3211 -0.295894 0.0
20.8094 -0.00820078 0.0
21.7595 0.0592111 0.0
23.2937 0.169674 0.0
22.5434 -0.0770219 0.0
20.4595 -0.244737 0.0
26.657 1.43925 0.0
18.6079 -0.210358 0.0
20.3823 -0.281492 0.0
19.0589 -0.311861 0.0
22.2583 0.52597 0.0
21.1793 0.137494 0.0
21.6166 0.107749 0.0
20.8089 -0.260093 0.0
18.8051 -0.181194 0.0
20.1958 0.00553385 0.0
23.0583 0.31902 0.0
18.9588 -0.338496 0.0
20.2934 -0.243649 0.0
20.9717 0.0982594 0.0
13.6613 0.230331 0.0
22.4368 0.279154 0.0
18.8673 -0.272431 0.0
12.0884 0.164328 0.0
18.4473 -0.248256 0.0
21.4408 0.0987268 0.0
18.8322 -0.120719 0.0
20.2594 -0.129903 0.0
19.0584 -0.170282 0.0
3.46519 -0.0666449 0.0
6.23658 -0.119948 0.0
13.5269 0.325907 0.0
20.961 -0.210797 0.0
20.7549 -0.0678212 0.0
20.8223 0.0143588 0.0
21.2871 0.0344235 0.0
18.7329 0.0361762 0.0
7.14561 0.151468 0.0
23.2396 0.224649 0.0
6.37845 -0.128412 0.0
23.2912 0.0497573 0.0
20.7854 -0.0726897 0.0
18.3038 -0.295577 0.0
20.4657 0.150009 0.0
18.1375 -0.348473 0.0
23.31 -0.0452543 0.0
20.1714 0.194337 0.0
3.57338 -0.0673399 0.0
6.30068 -0.127612 0.0
20.7916 -0.183864 0.0
3.92023 0.0924619 0.0
21.2044 -0.0577292 0.0
18.0371 -0.333688 0.0
17.9679 -0.194088 0.0
20.0384 0.12328 0.0
21.1273 -0.0840656 0.0
23.2989 -0.0147637 0.0
19.8817 0.15961 0.0
19.6732 0.0663924 0.0
6.3354 -0.111112 0.0
3.70752 -0.0678649 0.0
11.5628 0.271322 0.0
17.8775 -0.0168553 0.0
19.7316 0.205704 0.0
20.9612 -0.212612 0.0
19.3707 0.222374 0.0
21.6895 -0.017126 0.0
11.7372 0.297656 0.0
19.0651 0.141598 0.0
21.2548 -0.131291 0.0
19.6003 -0.0129108 0.0
6.47678 0.151743 0.0
3.37864 -0.0417805 0.0
2.859 -0.0703979 0.0
3.6034 -0.061759 0.0
6.38282 -0.033212 0.0
6.80395 0.155334 0.0
3.12856 -0.0155141 0.0
3.53876 0.00414015 0.0
6.21322 -0.118263 0.0
3.40884 -0.0469785 0.0
3.66901 -0.0342355 0.0
3.92362 0.121505 0.0
6.77583 -0.115696 0.0
3.77653 0.0829636 0.0
6.1129 -0.0717151 0.0
3.64423 0.0814853 0.0
6.52639 -0.0533133 0.0
6.37015 0.0228005 0.0
3.51934 0.145322 0.0
7.0558 0.173575 0.0
6.213 -0.100125 0.0
6.06309 -0.0943298 0.0
3.59505 0.213086 0.0
5.92739 -0.0553332 0.0
6.34296 0.205282 0.0
3.3732 0.0149135 0.0
6.17553 -0.0612046 0.0
3.7855 0.0426293 0.0
3.39379 0.0977748 0.0
5.94338 -0.130672 0.0
3.60833 0.157197 0.0
4.40141 0.0968105 0.0
3.66262 0.238496 0.0
3.13441 0.087342 0.0
3.33823 -0.0145094 0.0
6.25793 0.0259652 0.0
3.49136 -0.0682028 0.0
3.56754 -0.0664381 0.0
3.69152 0.161097 0.0
3.74654 0.137608 0.0
3.63876 0.0284838 0.0
3.54309 0.0602623 0.0
3.04614 -0.0676253 0.0
3.43423 -0.0357944 0.0
4.28274 0.00420213 0.0
6.93721 -0.00801357 0.0
3.74881 -0.0312367 0.0
4.45577 0.0844448 0.0
5.9978 0.174603 0.0
5.79138 -0.14939 0.0
3.41487 -0.0628873 0.0
3.7155 0.18496 0.0
3.48657 0.0435564 0.0
6.49007 0.0705388 0.0
3.27338 0.103747 0.0
3.63438 0.0853195 0.0
3.37691 -0.0583032 0.0
6.51808 0.292008 0.0
4.13961 -0.0805366 0.0
3.02504 0.0281915 0.0
3.42429 0.0287361 0.0
2.89928 0.0511976 0.0
3.75827 0.0848934 0.0
3.76673 -0.0163414 0.0
5.52647 -0.0620741 0.0
2.60544 -0.0225849 0.0
6.36083 0.304977 0.0
6.59465 0.139679 0.0
21.2704 -0.123746 0.0
20.9311 -0.105046 0.0
22.2154 -0.100631 0.0
18.9098 0.0433353 0.0
22.804 -0.262134 0.0
23.0736 -0.12552 0.0
18.8574 0.0118612 0.0
22.8866 -0.278806 0.0
23.1697 -0.239051 0.0
22.9647 -0.300223 0.0
23.2272 -0.147465 0.0
19.7396 -0.0068601 0.0
21.2744 -0.0969098 0.0
23.0606 -0.267407 0.0
20.762 -0.104832 0.0
22.7139 -0.179798 0.0
21.4967 -0.153214 0.0
22.699 -0.138069 0.0
22.1661 -0.227288 0.0
22.2637 -0.252714 0.0
16.9719 0.1109 0.0
22.8501 -0.312169 0.0
23.1626 -0.165383 0.0
22.566 -0.235663 0.0
23.1116 -0.254181 0.0
18.7665 -0.0896045 0.0
22.008 -0.0940398 0.0