# vtk DataFile Version 3.0
Malha 2D com triângulos e temperatura
ASCII
DATASET UNSTRUCTURED_GRID

POINTS 1194 double
0 0 0
5 0 0
5 1 0
0 1 0
0.85 0.5 0
0.842388 0.538268 0
0.820711 0.570711 0
0.788268 0.592388 0
0.75 0.6 0
0.711732 0.592388 0
0.679289 0.570711 0
0.657612 0.538268 0
0.65 0.5 0
0.657612 0.461732 0
0.679289 0.429289 0
0.711732 0.407612 0
0.75 0.4 0
0.788268 0.407612 0
0.820711 0.429289 0
0.842388 0.461732 0
0.0793651 0 0
0.15873 0 0
0.238095 0 0
0.31746 0 0
0.396825 0 0
0.47619 0 0
0.555556 0 0
0.634921 0 0
0.714286 0 0
0.793651 0 0
0.873016 0 0
0.952381 0 0
1.03175 0 0
1.11111 0 0
1.19048 0 0
1.26984 0 0
1.34921 0 0
1.42857 0 0
1.50794 0 0
1.5873 0 0
1.66667 0 0
1.74603 0 0
1.8254 0 0
1.90476 0 0
1.98413 0 0
2.06349 0 0
2.14286 0 0
2.22222 0 0
2.30159 0 0
2.38095 0 0
2.46032 0 0
2.53968 0 0
2.61905 0 0
2.69841 0 0
2.77778 0 0
2.85714 0 0
2.93651 0 0
3.01587 0 0
3.09524 0 0
3.1746 0 0
3.25397 0 0
3.33333 0 0
3.4127 0 0
3.49206 0 0
3.57143 0 0
3.65079 0 0
3.73016 0 0
3.80952 0 0
3.88889 0 0
3.96825 0 0
4.04762 0 0
4.12698 0 0
4.20635 0 0
4.28571 0 0
4.36508 0 0
4.44444 0 0
4.52381 0 0
4.60317 0 0
4.68254 0 0
4.7619 0 0
4.84127 0 0
4.92063 0 0
5 0.0769231 0
5 0.153846 0
5 0.230769 0
5 0.307692 0
5 0.384615 0
5 0.461538 0
5 0.538462 0
5 0.615385 0
5 0.692308 0
5 0.769231 0
5 0.846154 0
5 0.923077 0
4.92063 1 0
4.84127 1 0
4.7619 1 0
4.68254 1 0
4.60317 1 0
4.52381 1 0
4.44444 1 0
4.36508 1 0
4.28571 1 0
4.20635 1 0
4.12698 1 0
4.04762 1 0
3.96825 1 0
3.88889 1 0
3.80952 1 0
3.73016 1 0
3.65079 1 0
3.57143 1 0
3.49206 1 0
3.4127 1 0
3.33333 1 0
3.25397 1 0
3.1746 1 0
3.09524 1 0
3.01587 1 0
2.93651 1 0
2.85714 1 0
2.77778 1 0
2.69841 1 0
2.61905 1 0
2.53968 1 0
2.46032 1 0
2.38095 1 0
2.30159 1 0
2.22222 1 0
2.14286 1 0
2.06349 1 0
1.98413 1 0
1.90476 1 0
1.8254 1 0
1.74603 1 0
1.66667 1 0
1.5873 1 0
1.50794 1 0
1.42857 1 0
1.34921 1 0
1.26984 1 0
1.19048 1 0
1.11111 1 0
1.03175 1 0
0.952381 1 0
0.873016 1 0
0.793651 1 0
0.714286 1 0
0.634921 1 0
0.555556 1 0
0.47619 1 0
0.396825 1 0
0.31746 1 0
0.238095 1 0
0.15873 1 0
0.0793651 1 0
0 0.923077 0
0 0.846154 0
0 0.769231 0
0 0.692308 0
0 0.615385 0
0 0.538462 0
0 0.461538 0
0 0.384615 0
0 0.307692 0
0 0.230769 0
0 0.153846 0
0 0.0769231 0
0.879698 0.466718 0
1.3085 0.931947 0
1.30532 0.0638546 0
4.93832 0.504275 0
0.620452 0.46964 0
3.99858 0.0669607 0
1.63721 0.934258 0
3.3751 0.0523709 0
4.3254 0.0687322 0
2.42354 0.0642082 0
2.97619 0.0687322 0
2.02101 0.0693621 0
3.68108 0.0581336 0
2.65899 0.932655 0
4.178 0.939994 0
3.21614 0.938179 0
2.25483 0.919987 0
3.53215 0.928998 0
3.84921 0.931268 0
1.69647 0.0674297 0
1.94349 0.930209 0
4.48413 0.931268 0
2.97813 0.942022 0
2.74097 0.0673855 0
0.859645 0.573263 0
0.639718 0.573116 0
0.0651563 0.652836 0
0.0635304 0.346121 0
4.56232 0.0679683 0
0.830393 0.392645 0
0.669618 0.39275 0
1.06185 0.0668897 0
0.440193 0.0680031 0
1.06474 0.93511 0
0.446074 0.935974 0
0.724697 0.630698 0
4.72268 0.931235 0
4.93065 0.267192 0
0.589836 0.936152 0
0.92338 0.0562425 0
0.590207 0.0623339 0
0.755872 0.0732784 0
0.838039 0.936714 0
4.92573 0.732039 0
0.281717 0.93783 0
0.28208 0.0811877 0
0.065248 0.503161 0
1.46076 0.0637037 0
4.72574 0.0661877 0
4.31028 0.937908 0
3.21429 0.0687322 0
1.46639 0.932632 0
3.6897 0.928155 0
2.42063 0.931268 0
3.5364 0.0691789 0
2.25998 0.0676208 0
1.78735 0.937047 0
4.01535 0.920637 0
1.85469 0.0674188 0
3.83991 0.0626292 0
3.37477 0.929368 0
2.58225 0.0657863 0
2.81746 0.932342 0
4.16667 0.0687322 0
2.11402 0.935574 0
0.0614266 0.197046 0
0.0612841 0.803003 0
4.88273 0.0644126 0
4.87774 0.933272 0
0.859645 0.426737 0
0.903081 0.436592 0
0.923672 0.473385 0
0.948706 0.439078 0
0.969155 0.479795 0
0.996593 0.439791 0
1.0202 0.484937 0
1.04667 0.440138 0
1.07382 0.489694 0
1.1034 0.440801 0
1.13169 0.49612 0
1.16603 0.445058 0
1.1931 0.504331 0
1.22956 0.450883 0
1.25923 0.506004 0
1.29683 0.453139 0
1.32923 0.510343 0
1.36603 0.454344 0
1.03276 0.530395 0
1.40063 0.516169 0
1.43576 0.454934 0
1.47042 0.520776 0
1.51069 0.46142 0
1.54422 0.526371 0
1.58547 0.465572 0
1.61942 0.531773 0
1.66033 0.468788 0
1.69546 0.536793 0
1.73713 0.472812 0
1.77239 0.541977 0
1.81532 0.478494 0
1.85006 0.547285 0
1.89327 0.483449 0
1.92802 0.55361 0
1.97142 0.488546 0
2.00623 0.558966 0
2.04984 0.493518 0
2.08483 0.564085 0
2.12847 0.498462 0
2.16353 0.569137 0
2.20719 0.503331 0
0.961579 0.391697 0
1.22451 0.565337 0
2.24238 0.574192 0
2.28611 0.508258 0
2.32134 0.579247 0
2.36519 0.513325 0
2.40036 0.584295 0
2.44425 0.51834 0
2.47944 0.589336 0
2.52334 0.523355 0
2.55853 0.594372 0
2.60245 0.52837 0
2.63764 0.599431 0
2.68159 0.533388 0
2.64637 0.462336 0
2.72553 0.467349 0
2.76076 0.538418 0
2.8047 0.47237 0
2.83993 0.543451 0
2.88387 0.477399 0
2.91911 0.548482 0
2.96305 0.482427 0
2.9983 0.553514 0
3.04224 0.487456 0
3.07749 0.558545 0
3.12143 0.492477 0
3.15668 0.563574 0
3.20063 0.497514 0
3.23588 0.568605 0
3.27983 0.502542 0
3.31508 0.573635 0
3.35903 0.507562 0
3.39428 0.578663 0
3.43823 0.5126 0
3.47348 0.583694 0
3.51744 0.517628 0
3.55268 0.588724 0
3.59664 0.522646 0
3.63189 0.593752 0
3.67585 0.527673 0
3.71109 0.598781 0
3.75505 0.532702 0
3.7903 0.60381 0
3.83426 0.537731 0
3.79901 0.466623 0
3.87821 0.471754 0
3.91346 0.542777 0
3.95742 0.476701 0
3.99267 0.547795 0
4.03662 0.481715 0
4.07187 0.552815 0
4.11582 0.486743 0
4.15106 0.55783 0
4.195 0.491782 0
4.23023 0.562843 0
4.27415 0.49682 0
4.30937 0.567866 0
4.35325 0.501915 0
4.38842 0.572845 0
4.43227 0.506997 0
4.46737 0.577575 0
4.51106 0.511995 0
4.54622 0.582183 0
1.13571 0.390292 0
4.47606 0.441361 0
4.55475 0.446396 0
2.32985 0.442214 0
3.5614 0.451571 0
3.08619 0.421408 0
2.09339 0.427815 0
1.42887 0.583001 0
2.84864 0.406329 0
3.32378 0.43649 0
4.23911 0.425894 0
1.54723 0.39251 0
1.77883 0.406811 0
1.33959 0.387065 0
3.92239 0.405803 0
4.08079 0.415776 0
2.48812 0.452349 0
1.57935 0.603183 0
1.93602 0.417543 0
1.72453 0.617973 0
3.11273 0.629643 0
2.69029 0.396284 0
3.94662 0.623383 0
1.88466 0.613248 0
2.79598 0.609502 0
4.10826 0.620575 0
2.04005 0.62838 0
2.95434 0.619575 0
4.51981 0.375801 0
4.59833 0.380943 0
4.63314 0.451296 0
4.26693 0.63114 0
2.19619 0.645921 0
4.4246 0.642296 0
3.27112 0.639707 0
2.35729 0.649822 0
2.51462 0.660373 0
3.42952 0.649769 0
4.67669 0.38601 0
3.58793 0.659829 0
3.74634 0.669888 0
4.64195 0.315733 0
4.44109 0.370647 0
4.48493 0.305066 0
4.40614 0.29989 0
4.71136 0.456133 0
4.72014 0.320758 0
0.8692 0.382093 0
0.841252 0.348256 0
0.886481 0.338703 0
0.853127 0.301457 0
0.902583 0.287335 0
0.801683 0.321689 0
0.818113 0.263019 0
0.764765 0.277091 0
4.44702 0.235678 0
0.946267 0.520761 0
0.78107 0.221265 0
0.726309 0.234724 0
0.848273 0.20551 0
4.68545 0.250576 0
4.37074 0.227561 0
4.76365 0.255792 0
4.79822 0.326145 0
0.713664 0.287231 0
0.672358 0.247957 0
0.68673 0.192342 0
0.630368 0.2085 0
0.616569 0.265341 0
0.574186 0.225456 0
0.557393 0.28131 0
0.52004 0.242373 0
0.504416 0.299685 0
0.462273 0.252096 0
0.44798 0.316739 0
0.404567 0.276951 0
0.390546 0.335414 0
0.434669 0.37657 0
0.377935 0.394545 0
0.421979 0.43426 0
0.365682 0.452846 0
0.409646 0.492216 0
0.353389 0.51089 0
0.397738 0.551598 0
0.339864 0.570301 0
0.385899 0.612153 0
0.325913 0.631557 0
0.344507 0.29318 0
0.320568 0.413067 0
0.373553 0.673852 0
0.434438 0.653082 0
0.311416 0.69481 0
0.449777 0.528305 0
0.293513 0.534612 0
0.421431 0.715204 0
0.480917 0.696603 0
0.54504 0.34471 0
0.262743 0.649913 0
0.246209 0.712341 0
0.468564 0.755948 0
0.526091 0.735423 0
0.538207 0.68039 0
0.581228 0.716342 0
0.408756 0.777952 0
0.36234 0.239019 0
0.297047 0.251925 0
0.572109 0.771575 0
0.624906 0.752173 0
0.474824 0.414151 0
0.534351 0.182707 0
0.633682 0.70159 0
0.674547 0.736174 0
0.66826 0.788959 0
0.721117 0.76834 0
0.714515 0.825486 0
0.769074 0.802008 0
0.775287 0.746591 0
0.821903 0.778625 0
0.826767 0.726064 0
0.873257 0.756032 0
0.872997 0.697261 0
0.92331 0.732304 0
0.930014 0.67838 0
0.976061 0.710612 0
0.92456 0.784469 0
0.982178 0.654421 0
1.03016 0.688004 0
1.02037 0.747059 0
1.08 0.723819 0
1.08651 0.661896 0
1.1397 0.698204 0
1.13262 0.763657 0
1.19424 0.736545 0
1.18556 0.80161 0
1.24839 0.771772 0
1.25723 0.706382 0
1.31432 0.745787 0
4.66801 0.521361 0
4.74602 0.526202 0
4.70285 0.591278 0
4.78076 0.596023 0
4.73763 0.661207 0
4.78904 0.460969 0
2.61113 0.391267 0
2.65506 0.325217 0
2.57588 0.320198 0
2.61982 0.254148 0
2.69899 0.259163 0
2.54065 0.249131 0
2.49672 0.315179 0
2.46148 0.244124 0
2.41757 0.310166 0
2.38233 0.239117 0
2.33843 0.30514 0
2.30297 0.237979 0
2.25928 0.300748 0
2.22079 0.221377 0
2.17969 0.293884 0
2.14114 0.224266 0
2.10047 0.289841 0
2.0653 0.219144 0
2.02202 0.284919 0
1.98701 0.214164 0
1.94336 0.279863 0
3.82315 0.673327 0
3.78135 0.738156 0
3.86451 0.735958 0
3.70234 0.735494 0
4.52513 0.244409 0
4.32717 0.294467 0
4.29217 0.221862 0
0.619934 0.539507 0
0.599432 0.577132 0
0.575955 0.542712 0
0.554504 0.58245 0
4.65962 0.656481 0
4.69438 0.726169 0
4.6161 0.721747 0
4.77259 0.731352 0
4.65076 0.791486 0
4.57153 0.788793 0
4.2482 0.289182 0
4.21307 0.218308 0
4.1691 0.284563 0
4.13394 0.21352 0
0.835918 0.606341 0
0.806475 0.6384 0
4.08995 0.279537 0
0.640355 0.426737 0
0.596214 0.435837 0
0.630358 0.379178 0
0.689967 0.627735 0
1.90832 0.209948 0
1.86468 0.27519 0
1.82968 0.20518 0
1.78607 0.269797 0
0.281841 0.313314 0
0.232117 0.268621 0
0.216861 0.334396 0
4.05473 0.209347 0
4.01077 0.2745 0
3.97554 0.204394 0
3.93159 0.269388 0
0.297409 0.759367 0
0.231645 0.782943 0
0.180008 0.73598 0
1.32151 0.676369 0
1.38055 0.718092 0
1.36901 0.793947 0
1.43945 0.766002 0
0.249902 0.198865 0
0.932364 0.624392 0
1.75117 0.201034 0
1.70771 0.264658 0
1.673 0.195402 0
1.62985 0.260294 0
1.59532 0.191927 0
1.55236 0.254233 0
3.89629 0.200227 0
3.85238 0.264494 0
3.81708 0.195303 0
3.77304 0.259453 0
2.66368 0.189084 0
2.74279 0.19534 0
2.77814 0.264556 0
2.82201 0.199823 0
2.85733 0.269552 0
2.90126 0.203886 0
2.93654 0.274416 0
2.98045 0.20868 0
3.01573 0.279376 0
3.0597 0.213193 0
[...]
CELL_DATA 2220
VECTORS velocity double
35.8638 -1.77713 0.0
25.5844 0.762672 0.0
30.8895 0.707995 0.0
23.913 2.52776 0.0
36.5634 -1.98902 0.0
47.3191 -1.45677 0.0
21.6619 0.727866 0.0
24.0915 -0.0406208 0.0
40.4691 2.88845 0.0
46.155 -1.10387 0.0
24.0946 0.461936 0.0
22.959 0.386074 0.0
18.2806 0.289463 0.0
35.4231 -2.49978 0.0
26.5366 -0.318892 0.0
36.158 3.23753 0.0
24.507 1.36856 0.0
19.9687 0.97848 0.0
22.5268 -0.224759 0.0
24.3324 -0.20301 0.0
25.8977 0.468011 0.0
32.3264 3.95031 0.0
23.1129 1.13783 0.0
23.7844 0.857839 0.0
48.7594 -0.629609 0.0
33.0034 -2.34209 0.0
23.7666 1.248 0.0
20.477 0.833772 0.0
23.5125 2.3892 0.0
25.8922 1.76486 0.0
42.8834 -1.40079 0.0
32.0926 3.30526 0.0
16.7285 -0.195251 0.0
33.2177 1.34447 0.0
38.9148 -3.9868 0.0
47.7246 -1.55663 0.0
37.8482 -4.35831 0.0
19.6475 -0.211146 0.0
27.48 2.7451 0.0
28.9499 2.18615 0.0
14.4768 0.698982 0.0
40.7135 3.13116 0.0
20.1992 2.17463 0.0
21.8047 -0.0295165 0.0
19.9944 -0.0671166 0.0
17.7051 -0.0223838 0.0
22.8253 0.992042 0.0
18.0544 -0.0233734 0.0
45.6603 -0.988777 0.0
50.8181 0.384068 0.0
21.1137 0.645639 0.0
18.0511 0.153035 0.0
22.6276 0.918602 0.0
22.8668 0.172893 0.0
20.5501 1.09545 0.0
29.3759 1.97525 0.0
34.2617 3.46825 0.0
19.2702 0.812267 0.0
19.6714 0.86662 0.0
51.6287 0.233269 0.0
-0.365558 -8.85581 0.0
49.7488 -1.06482 0.0
44.2691 -2.03086 0.0
23.1239 0.928763 0.0
23.0798 0.950564 0.0
36.5909 1.30364 0.0
18.7723 -1.98074 0.0
38.9069 3.40608 0.0
19.6286 0.911682 0.0
19.8135 0.871468 0.0
22.6864 0.251211 0.0
34.3902 -1.76947 0.0
17.7211 0.241385 0.0
49.2238 0.927496 0.0
13.8161 0.43085 0.0
41.0099 2.96376 0.0
46.7387 2.30477 0.0
25.7557 -1.85005 0.0
42.089 3.65321 0.0
21.4284 0.155938 0.0
24.9599 -1.10028 0.0
29.8291 -1.88649 0.0
13.8905 -0.304577 0.0
17.6527 0.145788 0.0
22.1555 0.67822 0.0
22.0926 0.345473 0.0
32.5228 -1.91784 0.0
18.4842 0.299426 0.0
18.7964 0.543933 0.0
39.8417 2.38858 0.0
7.2547 0.52615 0.0
24.934 1.99336 0.0
22.7712 -0.278833 0.0
38.0956 3.31372 0.0
41.5119 3.14466 0.0
28.6057 -2.00959 0.0
31.6753 -4.13485 0.0
14.4904 -1.07529 0.0
0.440351 -6.61337 0.0
32.574 -0.731893 0.0
7.53387 -0.811708 0.0
31.5144 -2.30509 0.0
22.563 0.858049 0.0
19.6023 1.23982 0.0
35.9491 4.23437 0.0
40.0322 3.43795 0.0
48.3683 -1.26691 0.0
51.8149 -1.13266 0.0
6.5745 -0.207961 0.0
23.3216 1.35432 0.0
29.2711 1.7611 0.0
37.6589 -2.00864 0.0
47.8946 -1.09065 0.0
10.6029 -1.00987 0.0
50.6263 -1.76791 0.0
19.2234 0.738385 0.0
34.742 -2.57127 0.0
17.3345 -0.569603 0.0
7.45441 -0.0438396 0.0
39.319 1.75923 0.0
25.379 -1.85619 0.0
34.7533 -1.37378 0.0
19.2772 1.39258 0.0
25.6902 3.33229 0.0
40.8719 -3.98796 0.0
30.0816 -2.74 0.0
37.9081 3.16318 0.0
22.1805 1.51335 0.0
39.2927 -2.91848 0.0
17.7755 1.6527 0.0
17.4883 3.09786 0.0
20.5837 -2.10044 0.0
12.3468 -1.38521 0.0
18.0028 16.955 0.0
26.9199 2.62939 0.0
13.3452 15.5331 0.0
16.3409 -0.0166787 0.0
23.0686 -0.22451 0.0
31.6608 -2.82172 0.0
32.9541 3.45576 0.0
26.5784 -0.813447 0.0
21.5002 -0.0620649 0.0
49.8314 -2.10601 0.0
41.9434 -4.44733 0.0
48.0523 0.927504 0.0
33.815 2.93483 0.0
10.4447 1.07683 0.0
14.6631 -0.555414 0.0
49.8461 1.97615 0.0
51.1713 -1.56464 0.0
19.3741 -0.364527 0.0
38.411 1.74498 0.0
35.1418 -0.0346701 0.0
23.4375 3.01579 0.0
6.88178 10.2861 0.0
24.4487 0.394864 0.0
21.4257 -2.30076 0.0
25.4616 0.617274 0.0
10.2594 -1.04109 0.0
22.1312 -1.36855 0.0
21.6375 -3.17946 0.0
19.2907 0.0221108 0.0
9.86774 -1.06056 0.0
32.0919 -3.23631 0.0
17.5393 0.144617 0.0
31.5328 2.13871 0.0
33.1046 -1.88779 0.0
39.1002 -1.27769 0.0
24.2907 0.300363 0.0
12.5294 -2.05602 0.0
11.2478 1.39566 0.0
17.2549 0.0501431 0.0
22.426 0.123253 0.0
16.8694 -1.59988 0.0
28.1166 -1.36853 0.0
43.1931 3.70632 0.0
45.1201 2.10856 0.0
42.7179 3.44488 0.0
11.8818 -0.69782 0.0
24.077 0.0617114 0.0
34.0976 -0.526882 0.0
22.1285 -0.906378 0.0
7.33743 1.22415 0.0
19.1098 2.05617 0.0
24.5991 -0.0238426 0.0
47.1779 -0.961242 0.0
36.265 0.103169 0.0
19.3476 -0.701489 0.0
33.3019 -4.00901 0.0
38.9228 -0.466669 0.0
12.2835 -1.26669 0.0
19.2425 -0.309288 0.0
39.5947 -2.51389 0.0
50.0697 1.72664 0.0
21.9987 -2.16835 0.0
36.1752 0.87165 0.0
32.9214 1.35913 0.0
21.719 -1.0695 0.0
6.27675 -0.574478 0.0
22.9616 -0.553361 0.0
22.8023 -16.4268 0.0
29.8938 -1.91873 0.0
34.1971 2.92862 0.0
23.1614 -0.130342 0.0
14.6742 -0.576049 0.0
30.9689 -2.26729 0.0
26.7235 0.114057 0.0
21.1437 0.042375 0.0
32.3386 2.61575 0.0
11.9131 -0.819977 0.0
22.746 0.88134 0.0
12.867 -0.526889 0.0
32.0618 -0.31314 0.0
40.6928 3.49826 0.0
46.7204 2.90234 0.0
22.6087 3.96234 0.0
19.2583 0.809863 0.0
22.909 1.05779 0.0
11.9079 0.317207 0.0
14.2892 -0.199602 0.0
47.5998 0.620444 0.0
10.6149 -0.420461 0.0
19.2644 0.967984 0.0
10.2146 -0.177965 0.0
22.9138 -0.10285 0.0
26.4426 -2.251 0.0
21.5049 -1.52874 0.0
22.4487 -1.01559 0.0
31.9443 0.0808849 0.0
11.4764 1.15425 0.0
27.8121 2.44142 0.0
31.2715 -1.46367 0.0
15.4481 -0.161909 0.0
23.2327 -0.436547 0.0
11.7339 -1.07067 0.0
41.2184 -0.0278631 0.0
26.0408 -1.77534 0.0
22.5772 -0.321225 0.0
22.4191 -0.354311 0.0
19.7504 -0.236968 0.0
42.1635 -4.20954 0.0
32.8509 -3.70274 0.0
39.225 4.51785 0.0
11.5026 -0.0190694 0.0
16.4195 12.5488 0.0
49.1367 -0.0448122 0.0
24.3961 -0.599477 0.0
31.5502 -1.3222 0.0
4.43647 12.5205 0.0
20.8225 2.21454 0.0
14.5097 -13.7923 0.0
11.5004 -0.102244 0.0
33.3617 -2.3903 0.0
45.3989 -0.289352 0.0
44.6707 -3.12314 0.0
22.1498 0.478226 0.0
11.8631 0.177875 0.0
47.7851 0.227663 0.0
22.2497 2.10408 0.0
41.311 1.50065 0.0
25.3649 -0.440732 0.0
35.886 -0.962178 0.0
11.2409 1.15921 0.0
25.8637 -1.46284 0.0
11.2721 -0.553211 0.0
7.79667 -0.0952164 0.0
20.0939 -1.72435 0.0
32.5676 -1.44562 0.0
24.3193 1.32083 0.0
49.7589 -0.132901 0.0
43.817 1.18628 0.0
44.6651 -0.0331305 0.0
18.632 0.389203 0.0
46.0642 -1.87131 0.0
21.3602 -2.08178 0.0
40.1881 4.53718 0.0
13.6284 1.97506 0.0
38.2101 -0.868318 0.0
20.7563 1.67943 0.0
13.2184 0.133258 0.0
24.1129 -2.08585 0.0
25.581 -2.41501 0.0
41.4039 4.34544 0.0
31.1435 1.49892 0.0
45.6255 -1.75219 0.0
28.3193 -1.37907 0.0
34.9531 -3.76119 0.0
30.278 1.20186 0.0
19.3871 -0.270604 0.0
18.7316 -0.291969 0.0
11.7877 -0.320924 0.0
21.6971 -1.13226 0.0
12.1937 0.9738 0.0
23.8343 -15.8523 0.0
25.3438 -1.4593 0.0
29.5085 -0.328194 0.0
29.9123 -0.29561 0.0
20.8852 0.535854 0.0
40.2709 4.48335 0.0
47.4485 3.01047 0.0
16.1063 -1.76496 0.0
44.0526 3.77771 0.0
34.7492 -1.77272 0.0
7.34799 0.0873303 0.0
35.6327 -3.02881 0.0
23.4508 1.42135 0.0
18.0075 -0.28541 0.0
18.9853 -0.316475 0.0
15.842 0.419808 0.0
11.3382 0.90333 0.0
13.5894 -0.0356627 0.0
18.8718 18.716 0.0
14.2012 1.0695 0.0
41.1912 4.55447 0.0
32.1389 -2.37355 0.0
22.0283 -0.31671 0.0
44.1403 3.17547 0.0
12.1671 1.08219 0.0
41.8277 -2.45524 0.0
46.714 3.36945 0.0
14.501 -2.11122 0.0
18.5287 1.00536 0.0
46.7791 0.284244 0.0
12.3527 -0.998196 0.0
12.5091 22.4281 0.0
12.7213 -0.113885 0.0
44.7189 0.0532258 0.0
45.4015 1.25356 0.0
48.7156 0.591988 0.0
12.3823 -0.460576 0.0
38.2237 -3.30689 0.0
41.8385 -4.83012 0.0
39.9545 -1.5156 0.0
11.1074 -1.07219 0.0
38.834 0.13148 0.0
42.1013 -3.66192 0.0
24.6733 -2.61774 0.0
42.9319 3.77434 0.0
34.8193 -2.15532 0.0
22.2771 -0.350533 0.0
8.46794 -0.194626 0.0
19.6607 -0.358739 0.0
7.0183 0.522739 0.0
7.10433 0.0590829 0.0
14.7052 -1.72494 0.0
41.7529 3.5257 0.0
10.4144 6.10018 0.0
43.937 3.70671 0.0
47.629 2.81244 0.0
6.8246 -0.301187 0.0
39.1473 1.66135 0.0
5.72004 0.171429 0.0
6.94886 -0.463293 0.0
33.3734 2.99424 0.0
10.8224 0.79381 0.0
41.4509 -1.7544 0.0
38.5599 1.97382 0.0
6.27522 -0.331467 0.0
45.0403 0.918964 0.0
30.7128 -3.3417 0.0
45.4283 2.94082 0.0
14.4681 0.605305 0.0
30.2961 1.88513 0.0
44.7615 3.37186 0.0
6.19555 0.614237 0.0
51.6628 0.592727 0.0
34.9303 -4.49452 0.0
6.49448 -0.415399 0.0
6.48906 -0.58066 0.0
36.1772 -1.87811 0.0
6.68659 0.461777 0.0
33.3474 3.87077 0.0
37.644 -1.98759 0.0
25.0472 -0.870118 0.0
9.98294 -0.0912165 0.0
12.7985 0.535541 0.0
31.4747 0.620853 0.0
31.8285 0.157077 0.0
41.4612 -0.887009 0.0
29.7255 -0.193383 0.0
13.6361 -0.900249 0.0
41.5311 3.68665 0.0
41.9424 -3.20033 0.0
48.2321 0.374655 0.0
40.8421 3.65914 0.0
44.2435 -0.233078 0.0
39.7576 4.13299 0.0
46.551 0.217572 0.0
32.6332 -1.97183 0.0
46.0621 2.49654 0.0
10.5476 1.04732 0.0
42.2602 -0.000587926 0.0
29.4252 -0.968157 0.0
43.693 -2.73639 0.0
9.13133 -0.969666 0.0
20.8172 -1.44585 0.0
41.2701 0.676954 0.0
8.77868 0.794274 0.0
46.4182 0.212102 0.0
41.2388 2.68001 0.0
7.16817 0.286297 0.0
28.8327 -0.903425 0.0
43.7841 3.16885 0.0
47.2606 0.124813 0.0
35.4429 -4.26595 0.0
39.7375 -4.69481 0.0
6.21182 5.3911 0.0
11.0707 0.843596 0.0
22.9952 -1.69961 0.0
38.5174 -1.49953 0.0
29.2523 -2.43414 0.0
6.83574 0.0177586 0.0
40.6259 4.19362 0.0
46.1218 -2.97847 0.0
41.4437 -2.30364 0.0
47.4692 0.142478 0.0
4.04325 -0.179189 0.0
6.23375 0.476951 0.0
38.9136 2.84284 0.0
6.58404 0.595768 0.0
45.4819 3.64582 0.0
40.279 2.80145 0.0
4.16383 0.000739466 0.0
6.56565 -0.524866 0.0
44.2719 2.75727 0.0
42.9674 0.536444 0.0
3.94782 0.18141 0.0
37.6492 -0.211809 0.0
46.372 0.241835 0.0
11.5979 -0.764687 0.0
47.1377 0.149724 0.0
40.528 2.72097 0.0
41.4718 -3.39185 0.0
46.2065 2.13252 0.0
6.69703 -0.612944 0.0
33.465 -4.45297 0.0
7.12473 -0.129639 0.0
6.52964 0.471284 0.0
38.0989 -3.23221 0.0
6.60719 0.659972 0.0
40.2408 3.0717 0.0
44.7828 2.37932 0.0
40.2788 -3.93359 0.0
40.8893 -4.84559 0.0
10.6661 -1.1195 0.0
22.3912 -0.0751775 0.0
41.1291 2.01176 0.0
6.36947 -0.383786 0.0
5.83037 0.421935 0.0
18.181 -2.66252 0.0
10.2492 0.988943 0.0
46.8904 -0.880236 0.0
7.15487 -0.449225 0.0
23.3189 0.963837 0.0
48.4701 1.37181 0.0
10.7726 0.752292 0.0
12.2026 0.774155 0.0
43.1247 3.53228 0.0
6.89157 0.40365 0.0
45.7709 1.69609 0.0
40.6512 2.37698 0.0
44.4011 0.505562 0.0
6.34539 -0.609048 0.0
4.93119 0.442016 0.0
8.83577 -0.410395 0.0
31.9469 -1.09708 0.0
14.0843 -2.65651 0.0
47.1195 0.190726 0.0
4.04052 0.101477 0.0
41.2508 -4.78599 0.0
11.8557 -0.425418 0.0
5.72181 0.427689 0.0
15.1263 -1.60027 0.0
42.4486 3.7297 0.0
11.3621 -0.688524 0.0
44.2334 0.412269 0.0
44.3408 1.99562 0.0
27.9793 -0.502501 0.0
46.4387 0.27461 0.0
40.5058 2.0488 0.0
24.7826 -1.68335 0.0
39.1063 0.801237 0.0
48.0955 -2.55692 0.0
40.2212 1.70249 0.0
6.57966 -0.683128 0.0
7.01653 0.705479 0.0
41.1113 -0.91475 0.0
5.6098 0.375184 0.0
34.3921 -3.69256 0.0
23.526 11.1413 0.0
46.5623 0.282863 0.0
5.708 0.403749 0.0
6.42506 -0.414764 0.0
44.0929 1.57926 0.0
41.6802 3.62752 0.0
32.7891 -0.219189 0.0
30.0759 -1.54167 0.0
40.0089 0.0439391 0.0
26.5617 -1.3646 0.0
18.1348 -14.9292 0.0
40.8286 -0.168518 0.0
38.4073 2.4888 0.0
6.17503 -0.254885 0.0
39.9239 1.35595 0.0
33.3766 12.7434 0.0
19.8454 -0.598337 0.0
47.1695 0.415546 0.0
4.37046 -0.425566 0.0
4.82484 0.435424 0.0
38.2574 2.81964 0.0
42.0476 -0.20138 0.0
40.8528 -1.13622 0.0
23.049 -0.18466 0.0
45.9956 3.54931 0.0
47.1774 0.224566 0.0
47.1841 -2.36242 0.0
5.51134 2.19678 0.0
44.6662 0.677759 0.0
47.95 -2.69814 0.0
38.176 1.87071 0.0
39.2151 9.09983 0.0
11.1661 -3.80283 0.0
37.2099 0.241311 0.0
6.00188 -6.92633 0.0
35.7568 -1.39491 0.0
43.9501 -1.25763 0.0
47.9412 2.93197 0.0
45.7169 3.98281 0.0
5.85532 -1.94743 0.0
39.6722 1.05966 0.0
43.5446 6.07701 0.0
37.8943 1.56074 0.0
48.2004 0.143917 0.0
38.3914 2.17467 0.0
43.4642 0.886712 0.0
25.5322 -0.949516 0.0
28.5848 1.17719 0.0
11.4 -5.47302 0.0
41.0081 -2.80128 0.0
18.4156 -0.171744 0.0
33.7452 -9.11167 0.0
8.27957 -9.44925 0.0
38.6581 -2.79563 0.0
47.3754 0.195878 0.0
2.94577 -0.285286 0.0
3.02004 0.290435 0.0
43.13 0.675554 0.0
40.029 3.23885 0.0
39.5159 0.840653 0.0
31.8203 14.2013 0.0
6.97265 -0.195745 0.0
11.2388 -0.312406 0.0
8.30637 1.11706 0.0
3.22099 2.78331 0.0
7.15864 -5.01193 0.0
46.894 -3.07967 0.0
48.3925 0.11089 0.0
39.466 -4.03372 0.0
0.982001 1.4252 0.0
34.9904 -0.101561 0.0
37.2677 -0.105493 0.0
40.5042 -8.41673 0.0
28.7074 11.5759 0.0
1.16598 -1.36229 0.0
3.65531 -2.54759 0.0
31.8812 0.582721 0.0
20.4097 1.14109 0.0
37.716 1.25418 0.0
25.0524 -4.83946 0.0
42.2327 -0.102175 0.0
40.5158 2.32641 0.0
43.6683 -0.0983722 0.0
34.3348 9.21375 0.0
46.8371 0.178478 0.0
3.87497 -0.295309 0.0
45.1666 3.65742 0.0
48.2659 0.730746 0.0
44.1547 0.387121 0.0
48.2956 0.0436198 0.0
44.5079 -4.93149 0.0
3.72417 0.215146 0.0
47.9256 -0.445075 0.0
7.46063 -1.36507 0.0
19.686 1.35818 0.0
30.5389 -0.757175 0.0
39.3969 0.707153 0.0
37.5445 0.99224 0.0
47.0758 2.47021 0.0
47.3653 1.81126 0.0
46.5149 2.70665 0.0
5.53 0.310943 0.0
10.4124 0.550808 0.0
8.52468 -0.90429 0.0
48.003 0.0433036 0.0
42.8897 0.47071 0.0
41.7426 -4.84001 0.0
7.19449 1.57731 0.0
47.2548 0.415746 0.0
42.5798 5.84393 0.0
12.7107 10.5663 0.0
43.1563 -0.0691675 0.0
3.323 0.909856 0.0
41.5726 -0.119188 0.0
46.2467 -1.56589 0.0
42.3127 -0.730493 0.0
31.5609 -0.369692 0.0
29.1734 -0.358174 0.0
41.047 -0.175489 0.0
7.96646 0.272312 0.0
40.602 3.97725 0.0
47.5707 -0.447427 0.0
44.4685 -0.233591 0.0
44.1953 0.40037 0.0
39.3991 0.632112 0.0
21.7353 -0.0207677 0.0
42.8942 0.460885 0.0
50.5333 -1.87143 0.0
46.8929 0.110292 0.0
10.784 0.510238 0.0
39.2199 8.16582 0.0
3.5951 -0.835346 0.0
48.174 0.779142 0.0
48.0373 0.314653 0.0
39.4888 0.604288 0.0
2.279 1.216 0.0
39.203 -0.749406 0.0
47.4161 0.142357 0.0
46.6822 1.95137 0.0
42.6326 -0.118515 0.0
47.8177 -0.521009 0.0
44.342 0.417869 0.0
47.7116 0.0221064 0.0
48.3397 0.364153 0.0
47.279 0.228326 0.0
39.7221 0.611079 0.0
4.7232 0.489448 0.0
16.2965 1.49447 0.0
47.3 -1.23807 0.0
40.4493 3.30162 0.0
2.51464 -1.13216 0.0
9.3364 -0.593222 0.0
38.8862 -2.76037 0.0
41.9092 5.26218 0.0
43.0386 0.478907 0.0
17.5833 -1.13886 0.0
44.2581 -0.231212 0.0
45.2883 -0.178401 0.0
27.3912 13.8841 0.0
8.99046 0.813405 0.0
4.34577 -0.572275 0.0
49.3086 -2.285 0.0
34.1708 7.67501 0.0
44.9006 -4.66583 0.0
48.2378 0.550004 0.0
13.425 0.216468 0.0
43.2637 0.477297 0.0
37.4376 0.831723 0.0
46.8729 -0.0315437 0.0
4.09965 0.660526 0.0
44.5652 0.396947 0.0
46.8982 0.0423577 0.0
5.31088 -0.256766 0.0
40.062 0.595144 0.0
46.7173 0.247213 0.0
48.0484 0.637504 0.0
45.1013 0.19829 0.0
45.0131 -0.257046 0.0
47.4012 0.0823507 0.0
40.2958 -0.934373 0.0
45.0553 -0.166139 0.0
44.8691 0.310457 0.0
44.1858 0.145534 0.0
43.9797 -0.301885 0.0
4.89312 -0.378712 0.0
48.0953 0.641668 0.0
43.7325 -0.357708 0.0
6.64272 0.35047 0.0
47.3488 0.0140045 0.0
10.3394 0.679844 0.0
43.5883 0.399366 0.0
44.7768 -0.322088 0.0
48.0923 0.437474 0.0
46.0222 -0.140827 0.0
45.2604 0.104931 0.0
47.826 0.273025 0.0
21.5671 0.255594 0.0
41.1062 0.279888 0.0
38.5703 2.26715 0.0
40.3776 0.470659 0.0
4.85971 -0.0784431 0.0
46.8306 0.0343471 0.0
43.9329 0.261031 0.0
37.8884 -8.6198 0.0
3.52249 -0.320558 0.0
37.5421 0.673062 0.0
3.44809 0.238178 0.0
34.2943 -7.46365 0.0
40.2666 2.65455 0.0
37.7608 0.657801 0.0
42.1889 -0.188847 0.0
43.5087 -0.387981 0.0
38.1593 0.662084 0.0
45.4253 -0.0502269 0.0
34.6843 -3.2771 0.0
36.459 -10.2337 0.0
44.094 -0.101098 0.0
47.771 0.681817 0.0
48.0059 0.795202 0.0
47.96 0.383997 0.0
44.5671 -0.365826 0.0
48.1871 0.456089 0.0
38.8434 -0.192304 0.0
48.0556 0.448694 0.0
43.0604 -0.25251 0.0
41.4231 0.144069 0.0
20.3469 0.514584 0.0
45.9404 -0.240207 0.0
48.1169 0.394359 0.0
36.5201 -0.740254 0.0
47.7414 0.553577 0.0
44.3819 -0.376062 0.0
43.3137 -0.375807 0.0
5.1174 0.366063 0.0
44.3596 0.0570772 0.0
37.4482 0.734768 0.0
48.2982 0.395031 0.0
33.9146 -0.579901 0.0
11.3681 0.33568 0.0
41.7107 0.0427407 0.0
47.7247 0.383499 0.0
39.0693 0.374459 0.0
38.0966 -0.191499 0.0
43.1483 -0.306877 0.0
47.6729 0.179965 0.0
44.2274 -0.339287 0.0
39.7064 0.209518 0.0
24.1974 8.89996 0.0
47.2791 -0.0638459 0.0
48.2627 0.326507 0.0
47.2987 1.42676 0.0
19.9493 -0.103726 0.0
44.4859 -0.0214371 0.0
36.5946 -0.222392 0.0
6.10644 0.199678 0.0
10.5428 0.386238 0.0
44.0888 -0.253886 0.0
46.9657 0.279719 0.0
41.1725 -0.380131 0.0
42.9893 -0.194355 0.0
48.0583 0.274619 0.0
41.8081 -0.259063 0.0
41.9457 -0.0420942 0.0
42.7846 -0.0690398 0.0
37.0573 -0.262267 0.0
40.6063 -0.238578 0.0
48.3778 0.259142 0.0
37.5208 -0.219629 0.0
47.3305 0.127149 0.0
40.8729 -0.414629 0.0
42.5051 -0.312442 0.0
40.2234 -0.30224 0.0
36.6143 -0.315508 0.0
47.1077 0.22287 0.0
43.9328 -0.14084 0.0
7.47116 0.227751 0.0
11.5049 0.330066 0.0
47.9938 0.0616975 0.0
47.5437 -0.0294505 0.0
38.4202 0.618357 0.0
39.9442 -0.0348366 0.0
40.3839 -0.00947483 0.0
48.0359 0.571649 0.0
42.4733 0.0370132 0.0
47.0892 1.19027 0.0
45.3617 0.0265162 0.0
36.204 -0.372574 0.0
39.231 -0.431943 0.0
40.056 0.0852059 0.0
43.7137 -0.0305424 0.0
48.3394 0.171894 0.0
46.8341 -0.110756 0.0
39.8822 -0.362312 0.0
36.9728 1.26398 0.0
34.8131 -0.291581 0.0
39.5504 -0.412185 0.0
35.8317 -0.430179 0.0
44.5361 2.61236 0.0
42.0503 0.0898485 0.0
43.4009 0.0441463 0.0
40.6242 -0.400998 0.0
35.3087 -0.248696 0.0
38.5262 -0.0902594 0.0
47.6344 0.300458 0.0
35.4361 -0.460393 0.0
38.9766 -0.37541 0.0
41.603 0.0675753 0.0
22.8082 0.209642 0.0
46.3013 0.0552067 0.0
35.0199 -0.388881 0.0
19.8832 0.141204 0.0
34.3636 -0.343491 0.0
43.0265 0.0558926 0.0
34.8163 -0.2237 0.0
38.7487 -0.247541 0.0
35.8543 -0.226761 0.0
5.35874 -0.0759294 0.0
9.91906 -0.134888 0.0
22.7437 0.314573 0.0
41.4172 -0.345881 0.0
40.2068 -0.181162 0.0
41.2262 -0.00827165 0.0
42.6681 0.00398222 0.0
34.528 -0.0462587 0.0
11.1856 0.13889 0.0
47.7818 0.199715 0.0
10.198 -0.159124 0.0
48.3692 0.0488002 0.0
40.9871 -0.0951677 0.0
33.9393 -0.402415 0.0
39.5213 0.0883866 0.0
33.4336 -0.46149 0.0
48.2934 -0.0697036 0.0
38.932 0.156519 0.0
5.55012 -0.083103 0.0
10.0595 -0.15688 0.0
40.4123 -0.315732 0.0
5.96867 0.0880582 0.0
42.3955 -0.0844138 0.0
33.0164 -0.445296 0.0
32.7049 -0.296369 0.0
38.1656 0.0533226 0.0
42.0118 -0.22116 0.0
47.7684 -0.0537641 0.0
38.3481 0.138566 0.0
37.8558 0.0534851 0.0
10.1311 -0.140729 0.0
5.76446 -0.0843041 0.0
18.9903 0.259421 0.0
32.4262 -0.102417 0.0
37.5473 0.161032 0.0
41.4746 -0.324388 0.0
36.837 0.198015 0.0
43.3284 -0.110698 0.0
19.4275 0.292318 0.0
36.2155 0.129568 0.0
42.2899 -0.16068 0.0
37.5185 -0.0255156 0.0
10.1813 0.149575 0.0
5.21872 -0.0532051 0.0
4.3802 -0.0824893 0.0
5.61718 -0.0769804 0.0
10.0572 -0.0504788 0.0
10.697 0.186479 0.0
4.7623 -0.0238947 0.0
5.39631 -0.00379173 0.0
9.87033 -0.125482 0.0
5.24542 -0.0437124 0.0
5.66969 -0.0419742 0.0
6.01444 0.145767 0.0
10.9039 -0.145279 0.0
5.83811 0.0838627 0.0
9.72327 -0.0924035 0.0
5.596 0.0812551 0.0
10.3559 -0.0682021 0.0
10.1337 -0.0627751 0.0
5.44714 0.160439 0.0
11.1044 0.215661 0.0
9.85628 -0.0986704 0.0
9.62908 -0.118006 0.0
5.63236 0.258586 0.0
9.30791 -0.0766381 0.0
10.04 0.195267 0.0
5.18871 -0.0314202 0.0
9.76152 -0.0506738 0.0
5.88792 0.0091526 0.0
5.19208 0.0914881 0.0
9.42585 -0.156539 0.0
5.57164 0.199411 0.0
6.73328 0.118792 0.0
5.70966 0.301456 0.0
4.76266 0.0790141 0.0
5.11619 -0.0067226 0.0
9.85315 0.0457581 0.0
5.39429 -0.0738633 0.0
5.5327 -0.0810867 0.0
5.68228 0.228517 0.0
5.71875 0.244598 0.0
5.64852 -0.0127685 0.0
5.53142 0.0608889 0.0
4.69048 -0.0803124 0.0
5.3123 -0.0457808 0.0
6.6098 -0.00770831 0.0
11.0391 -0.0264168 0.0
5.78784 -0.105372 0.0
6.79095 0.0747637 0.0
9.40078 0.159958 0.0
9.16666 -0.176087 0.0
5.26842 -0.064193 0.0
5.80419 0.22062 0.0
5.32981 0.056371 0.0
10.3838 0.000547739 0.0
5.05554 0.105542 0.0
5.6045 0.081656 0.0
5.2097 -0.0712664 0.0
10.3126 0.451734 0.0
6.4205 -0.096182 0.0
4.5801 0.00721263 0.0
5.24589 0.0126162 0.0
4.44517 0.0476218 0.0
5.7366 0.0830386 0.0
5.81958 -0.0249592 0.0
8.61229 -0.0792845 0.0
3.96921 -0.0307509 0.0
10.0901 0.404737 0.0
10.4693 0.140086 0.0
41.6735 -0.191081 0.0
40.9924 -0.132579 0.0
45.4636 -0.128059 0.0
35.7546 0.0353137 0.0
47.6757 -0.324312 0.0
47.8374 -0.14186 0.0
35.3742 0.00118047 0.0
47.7812 -0.339505 0.0
48.1119 -0.284103 0.0
47.8765 -0.357266 0.0
48.2377 -0.177858 0.0
37.4378 -0.0246709 0.0
41.2557 -0.131919 0.0
48.0143 -0.317615 0.0
40.0567 -0.174449 0.0
47.5403 -0.244477 0.0
42.4287 -0.188554 0.0
47.4528 -0.207276 0.0
44.7577 -0.271401 0.0
45.5073 -0.298903 0.0
30.9202 0.109437 0.0
47.3981 -0.367702 0.0
47.2677 -0.212428 0.0
45.7294 -0.284285 0.0
47.6264 -0.303737 0.0
34.5783 -0.141833 0.0
44.5731 -0.0992627 0.0
41.2298 -0.15482 0.0
47.0883 -0.35389 0.0
46.8782 -0.346144 0.0
47.5943 -0.286429 0.0
36.4453 -0.161047 0.0
32.0932 0.27222 0.0