# vtk DataFile Version 3.0
Malha 2D com triângulos e temperatura
ASCII
DATASET UNSTRUCTURED_GRID

POINTS 1194 double
0 0 0
5 0 0
5 1 0
0 1 0
0.85 0.5 0
0.842388 0.538268 0
0.820711 0.570711 0
0.788268 0.592388 0
0.75 0.6 0
0.711732 0.592388 0
0.679289 0.570711 0
0.657612 0.538268 0
0.65 0.5 0
0.657612 0.461732 0
0.679289 0.429289 0
0.711732 0.407612 0
0.75 0.4 0
0.788268 0.407612 0
0.820711 0.429289 0
0.842388 0.461732 0
0.0793651 0 0
0.15873 0 0
0.238095 0 0
0.31746 0 0
0.396825 0 0
0.47619 0 0
0.555556 0 0
0.634921 0 0
0.714286 0 0
0.793651 0 0
0.873016 0 0
0.952381 0 0
1.03175 0 0
1.11111 0 0
1.19048 0 0
1.26984 0 0
1.34921 0 0
1.42857 0 0
1.50794 0 0
1.5873 0 0
1.66667 0 0
1.74603 0 0
1.8254 0 0
1.90476 0 0
1.98413 0 0
2.06349 0 0
2.14286 0 0
2.22222 0 0
2.30159 0 0
2.38095 0 0
2.46032 0 0
2.53968 0 0
2.61905 0 0
2.69841 0 0
2.77778 0 0
2.85714 0 0
2.93651 0 0
3.01587 0 0
3.09524 0 0
3.1746 0 0
3.25397 0 0
3.33333 0 0
3.4127 0 0
3.49206 0 0
3.57143 0 0
3.65079 0 0
3.73016 0 0
3.80952 0 0
3.88889 0 0
3.96825 0 0
4.04762 0 0
4.12698 0 0
4.20635 0 0
4.28571 0 0
4.36508 0 0
4.44444 0 0
4.52381 0 0
4.60317 0 0
4.68254 0 0
4.7619 0 0
4.84127 0 0
4.92063 0 0
5 0.0769231 0
5 0.153846 0
5 0.230769 0
5 0.307692 0
5 0.384615 0
5 0.461538 0
5 0.538462 0
5 0.615385 0
5 0.692308 0
5 0.769231 0
5 0.846154 0
5 0.923077 0
4.92063 1 0
4.84127 1 0
4.7619 1 0
4.68254 1 0
4.60317 1 0
4.52381 1 0
4.44444 1 0
4.36508 1 0
4.28571 1 0
4.20635 1 0
4.12698 1 0
4.04762 1 0
3.96825 1 0
3.88889 1 0
3.80952 1 0
3.73016 1 0
3.65079 1 0
3.57143 1 0
3.49206 1 0
3.4127 1 0
3.33333 1 0
3.25397 1 0
3.1746 1 0
3.09524 1 0
3.01587 1 0
2.93651 1 0
2.85714 1 0
2.77778 1 0
2.69841 1 0
2.61905 1 0
2.53968 1 0
2.46032 1 0
2.38095 1 0
2.30159 1 0
2.22222 1 0
2.14286 1 0
2.06349 1 0
1.98413 1 0
1.90476 1 0
1.8254 1 0
1.74603 1 0
1.66667 1 0
1.5873 1 0
1.50794 1 0
1.42857 1 0
1.34921 1 0
1.26984 1 0
1.19048 1 0
1.11111 1 0
1.03175 1 0
0.952381 1 0
0.873016 1 0
0.793651 1 0
0.714286 1 0
0.634921 1 0
0.555556 1 0
0.47619 1 0
0.396825 1 0
0.31746 1 0
0.238095 1 0
0.15873 1 0
0.0793651 1 0
0 0.923077 0
0 0.846154 0
0 0.769231 0
0 0.692308 0
0 0.615385 0
0 0.538462 0
0 0.461538 0
0 0.384615 0
0 0.307692 0
0 0.230769 0
0 0.153846 0
0 0.0769231 0
0.879698 0.466718 0
1.3085 0.931947 0
1.30532 0.0638546 0
4.93832 0.504275 0
0.620452 0.46964 0
3.99858 0.0669607 0
1.63721 0.934258 0
3.3751 0.0523709 0
4.3254 0.0687322 0
2.42354 0.0642082 0
2.97619 0.0687322 0
2.02101 0.0693621 0
3.68108 0.0581336 0
2.65899 0.932655 0
4.178 0.939994 0
3.21614 0.938179 0
2.25483 0.919987 0
3.53215 0.928998 0
3.84921 0.931268 0
1.69647 0.0674297 0
1.94349 0.930209 0
4.48413 0.931268 0
2.97813 0.942022 0
2.74097 0.0673855 0
0.859645 0.573263 0
0.639718 0.573116 0
0.0651563 0.652836 0
0.0635304 0.346121 0
4.56232 0.0679683 0
0.830393 0.392645 0
0.669618 0.39275 0
1.06185 0.0668897 0
0.440193 0.0680031 0
1.06474 0.93511 0
0.446074 0.935974 0
0.724697 0.630698 0
4.72268 0.931235 0
4.93065 0.267192 0
0.589836 0.936152 0
0.92338 0.0562425 0
0.590207 0.0623339 0
0.755872 0.0732784 0
0.838039 0.936714 0
4.92573 0.732039 0
0.281717 0.93783 0
0.28208 0.0811877 0
0.065248 0.503161 0
1.46076 0.0637037 0
4.72574 0.0661877 0
4.31028 0.937908 0
3.21429 0.0687322 0
1.46639 0.932632 0
3.6897 0.928155 0
2.42063 0.931268 0
3.5364 0.0691789 0
2.25998 0.0676208 0
1.78735 0.937047 0
4.01535 0.920637 0
1.85469 0.0674188 0
3.83991 0.0626292 0
3.37477 0.929368 0
2.58225 0.0657863 0
2.81746 0.932342 0
4.16667 0.0687322 0
2.11402 0.935574 0
0.0614266 0.197046 0
0.0612841 0.803003 0
4.88273 0.0644126 0
4.87774 0.933272 0
0.859645 0.426737 0
0.903081 0.436592 0
0.923672 0.473385 0
0.948706 0.439078 0
0.969155 0.479795 0
0.996593 0.439791 0
1.0202 0.484937 0
1.04667 0.440138 0
1.07382 0.489694 0
1.1034 0.440801 0
1.13169 0.49612 0
1.16603 0.445058 0
1.1931 0.504331 0
1.22956 0.450883 0
1.25923 0.506004 0
1.29683 0.453139 0
1.32923 0.510343 0
1.36603 0.454344 0
1.03276 0.530395 0
1.40063 0.516169 0
1.43576 0.454934 0
1.47042 0.520776 0
1.51069 0.46142 0
1.54422 0.526371 0
1.58547 0.465572 0
1.61942 0.531773 0
1.66033 0.468788 0
1.69546 0.536793 0
1.73713 0.472812 0
1.77239 0.541977 0
1.81532 0.478494 0
1.85006 0.547285 0
1.89327 0.483449 0
1.92802 0.55361 0
1.97142 0.488546 0
2.00623 0.558966 0
2.04984 0.493518 0
2.08483 0.564085 0
2.12847 0.498462 0
2.16353 0.569137 0
2.20719 0.503331 0
0.961579 0.391697 0
1.22451 0.565337 0
2.24238 0.574192 0
2.28611 0.508258 0
2.32134 0.579247 0
2.36519 0.513325 0
2.40036 0.584295 0
2.44425 0.51834 0
2.47944 0.589336 0
2.52334 0.523355 0
2.55853 0.594372 0
2.60245 0.52837 0
2.63764 0.599431 0
2.68159 0.533388 0
2.64637 0.462336 0
2.72553 0.467349 0
2.76076 0.538418 0
2.8047 0.47237 0
2.83993 0.543451 0
2.88387 0.477399 0
2.91911 0.548482 0
2.96305 0.482427 0
2.9983 0.553514 0
3.04224 0.487456 0
3.07749 0.558545 0
3.12143 0.492477 0
3.15668 0.563574 0
3.20063 0.497514 0
3.23588 0.568605 0
3.27983 0.502542 0
3.31508 0.573635 0
3.35903 0.507562 0
3.39428 0.578663 0
3.43823 0.5126 0
3.47348 0.583694 0
3.51744 0.517628 0
3.55268 0.588724 0
3.59664 0.522646 0
3.63189 0.593752 0
3.67585 0.527673 0
3.71109 0.598781 0
3.75505 0.532702 0
3.7903 0.60381 0
3.83426 0.537731 0
3.79901 0.466623 0
3.87821 0.471754 0
3.91346 0.542777 0
3.95742 0.476701 0
3.99267 0.547795 0
4.03662 0.481715 0
4.07187 0.552815 0
4.11582 0.486743 0
4.15106 0.55783 0
4.195 0.491782 0
4.23023 0.562843 0
4.27415 0.49682 0
4.30937 0.567866 0
4.35325 0.501915 0
4.38842 0.572845 0
4.43227 0.506997 0
4.46737 0.577575 0
4.51106 0.511995 0
4.54622 0.582183 0
1.13571 0.390292 0
4.47606 0.441361 0
4.55475 0.446396 0
2.32985 0.442214 0
3.5614 0.451571 0
3.08619 0.421408 0
2.09339 0.427815 0
1.42887 0.583001 0
2.84864 0.406329 0
3.32378 0.43649 0
4.23911 0.425894 0
1.54723 0.39251 0
1.77883 0.406811 0
1.33959 0.387065 0
3.92239 0.405803 0
4.08079 0.415776 0
2.48812 0.452349 0
1.57935 0.603183 0
1.93602 0.417543 0
1.72453 0.617973 0
3.11273 0.629643 0
2.69029 0.396284 0
3.94662 0.623383 0
1.88466 0.613248 0
2.79598 0.609502 0
4.10826 0.620575 0
2.04005 0.62838 0
2.95434 0.619575 0
4.51981 0.375801 0
4.59833 0.380943 0
4.63314 0.451296 0
4.26693 0.63114 0
2.19619 0.645921 0
4.4246 0.642296 0
3.27112 0.639707 0
2.35729 0.649822 0
2.51462 0.660373 0
3.42952 0.649769 0
4.67669 0.38601 0
3.58793 0.659829 0
3.74634 0.669888 0
4.64195 0.315733 0
4.44109 0.370647 0
4.48493 0.305066 0
4.40614 0.29989 0
4.71136 0.456133 0
4.72014 0.320758 0
0.8692 0.382093 0
0.841252 0.348256 0
0.886481 0.338703 0
0.853127 0.301457 0
0.902583 0.287335 0
0.801683 0.321689 0
0.818113 0.263019 0
0.764765 0.277091 0
4.44702 0.235678 0
0.946267 0.520761 0
0.78107 0.221265 0
0.726309 0.234724 0
0.848273 0.20551 0
4.68545 0.250576 0
4.37074 0.227561 0
4.76365 0.255792 0
4.79822 0.326145 0
0.713664 0.287231 0
0.672358 0.247957 0
0.68673 0.192342 0
0.630368 0.2085 0
0.616569 0.265341 0
0.574186 0.225456 0
0.557393 0.28131 0
0.52004 0.242373 0
0.504416 0.299685 0
0.462273 0.252096 0
0.44798 0.316739 0
0.404567 0.276951 0
0.390546 0.335414 0
0.434669 0.37657 0
0.377935 0.394545 0
0.421979 0.43426 0
0.365682 0.452846 0
0.409646 0.492216 0
0.353389 0.51089 0
0.397738 0.551598 0
0.339864 0.570301 0
0.385899 0.612153 0
0.325913 0.631557 0
0.344507 0.29318 0
0.320568 0.413067 0
0.373553 0.673852 0
0.434438 0.653082 0
0.311416 0.69481 0
0.449777 0.528305 0
0.293513 0.534612 0
0.421431 0.715204 0
0.480917 0.696603 0
0.54504 0.34471 0
0.262743 0.649913 0
0.246209 0.712341 0
0.468564 0.755948 0
0.526091 0.735423 0
0.538207 0.68039 0
0.581228 0.716342 0
0.408756 0.777952 0
0.36234 0.239019 0
0.297047 0.251925 0
0.572109 0.771575 0
0.624906 0.752173 0
0.474824 0.414151 0
0.534351 0.182707 0
0.633682 0.70159 0
0.674547 0.736174 0
0.66826 0.788959 0
0.721117 0.76834 0
0.714515 0.825486 0
0.769074 0.802008 0
0.775287 0.746591 0
0.821903 0.778625 0
0.826767 0.726064 0
0.873257 0.756032 0
0.872997 0.697261 0
0.92331 0.732304 0
0.930014 0.67838 0
0.976061 0.710612 0
0.92456 0.784469 0
0.982178 0.654421 0
1.03016 0.688004 0
1.02037 0.747059 0
1.08 0.723819 0
1.08651 0.661896 0
1.1397 0.698204 0
1.13262 0.763657 0
1.19424 0.736545 0
1.18556 0.80161 0
1.24839 0.771772 0
1.25723 0.706382 0
1.31432 0.745787 0
4.66801 0.521361 0
4.74602 0.526202 0
4.70285 0.591278 0
4.78076 0.596023 0
4.73763 0.661207 0
4.78904 0.460969 0
2.61113 0.391267 0
2.65506 0.325217 0
2.57588 0.320198 0
2.61982 0.254148 0
2.69899 0.259163 0
2.54065 0.249131 0
2.49672 0.315179 0
2.46148 0.244124 0
2.41757 0.310166 0
2.38233 0.239117 0
2.33843 0.30514 0
2.30297 0.237979 0
2.25928 0.300748 0
2.22079 0.221377 0
2.17969 0.293884 0
2.14114 0.224266 0
2.10047 0.289841 0
2.0653 0.219144 0
2.02202 0.284919 0
1.98701 0.214164 0
1.94336 0.279863 0
3.82315 0.673327 0
3.78135 0.738156 0
3.86451 0.735958 0
3.70234 0.735494 0
4.52513 0.244409 0
4.32717 0.294467 0
4.29217 0.221862 0
0.619934 0.539507 0
0.599432 0.577132 0
0.575955 0.542712 0
0.554504 0.58245 0
4.65962 0.656481 0
4.69438 0.726169 0
4.6161 0.721747 0
4.77259 0.731352 0
4.65076 0.791486 0
4.57153 0.788793 0
4.2482 0.289182 0
4.21307 0.218308 0
4.1691 0.284563 0
4.13394 0.21352 0
0.835918 0.606341 0
0.806475 0.6384 0
4.08995 0.279537 0
0.640355 0.426737 0
0.596214 0.435837 0
0.630358 0.379178 0
0.689967 0.627735 0
1.90832 0.209948 0
1.86468 0.27519 0
1.82968 0.20518 0
1.78607 0.269797 0
0.281841 0.313314 0
0.232117 0.268621 0
0.216861 0.334396 0
4.05473 0.209347 0
4.01077 0.2745 0
3.97554 0.204394 0
3.93159 0.269388 0
0.297409 0.759367 0
0.231645 0.782943 0
0.180008 0.73598 0
1.32151 0.676369 0
1.38055 0.718092 0
1.36901 0.793947 0
1.43945 0.766002 0
0.249902 0.198865 0
0.932364 0.624392 0
1.75117 0.201034 0
1.70771 0.264658 0
1.673 0.195402 0
1.62985 0.260294 0
1.59532 0.191927 0
1.55236 0.254233 0
3.89629 0.200227 0
3.85238 0.264494 0
3.81708 0.195303 0
3.77304 0.259453 0
2.66368 0.189084 0
2.74279 0.19534 0
2.77814 0.264556 0
2.82201 0.199823 0
2.85733 0.269552 0
2.90126 0.203886 0
2.93654 0.274416 0
2.98045 0.20868 0
3.01573 0.279376 0
3.0597 0.213193 0
[...]
CELL_DATA 2220
VECTORS velocity double
24.3364 -2.004 0.0
17.9245 0.487615 0.0
25.1706 6.09444 0.0
24.7552 1.13753 0.0
24.7371 -2.3667 0.0
32.7506 -1.29973 0.0
15.0753 0.466792 0.0
16.7984 -0.0326395 0.0
28.5265 11.277 0.0
32.2548 -0.91227 0.0
18.2234 16.651 0.0
16.0309 0.258072 0.0
12.7198 0.189942 0.0
25.0327 -6.71703 0.0
22.9374 15.5751 0.0
20.2071 11.2642 0.0
17.2955 0.830894 0.0
13.9633 0.625765 0.0
15.81 -0.139299 0.0
17.1649 -0.123545 0.0
21.2428 4.64173 0.0
40.9012 -6.14794 0.0
16.2667 0.719444 0.0
16.6084 0.560931 0.0
30.0815 -1.10265 0.0
23.0337 -5.61803 0.0
21.8371 -2.2931 0.0
14.2076 0.546831 0.0
24.4051 1.20611 0.0
27.4827 1.14912 0.0
24.0761 -3.28067 0.0
33.1422 0.133976 0.0
11.6931 -0.121198 0.0
31.3649 -12.7388 0.0
48.499 1.6792 0.0
32.8578 -1.46472 0.0
47.3316 2.52792 0.0
13.7272 -0.128736 0.0
28.7962 1.39579 0.0
28.0617 -1.87322 0.0
13.2583 -1.23153 0.0
28.6192 10.2996 0.0
20.7389 0.945084 0.0
15.2632 -0.00260627 0.0
13.7727 -0.0727103 0.0
12.3328 0.000369072 0.0
16.0229 0.647965 0.0
12.5312 -0.0210932 0.0
32.0076 -0.787911 0.0
34.6552 0.534243 0.0
16.8159 3.66534 0.0
12.584 0.0962409 0.0
15.7005 0.629127 0.0
16.0386 0.109884 0.0
14.4073 0.673914 0.0
27.9055 -2.45781 0.0
35.3796 -0.40681 0.0
13.2693 0.559076 0.0
13.7225 0.570214 0.0
35.023 0.409732 0.0
-0.114171 -5.84553 0.0
31.3128 -1.75144 0.0
25.8142 -4.39931 0.0
16.1003 0.620671 0.0
15.886 0.702513 0.0
33.879 -11.3383 0.0
19.4107 -1.13617 0.0
22.8653 10.561 0.0
13.4051 0.678702 0.0
13.7046 0.58409 0.0
15.8832 0.161234 0.0
33.1507 11.7045 0.0
12.3339 0.154756 0.0
33.5731 1.03259 0.0
30.4675 -1.49885 0.0
49.1396 -0.317069 0.0
28.4273 4.45447 0.0
17.6895 -3.56309 0.0
27.2544 10.1682 0.0
14.9929 0.113443 0.0
23.0783 2.76574 0.0
28.6427 2.73563 0.0
14.6626 -0.248336 0.0
12.2666 0.103804 0.0
15.5092 0.465068 0.0
15.4505 0.245171 0.0
21.9165 -2.38028 0.0
12.8378 0.210056 0.0
13.068 0.373777 0.0
29.221 11.5878 0.0
24.4876 -3.70948 0.0
17.8444 4.4499 0.0
15.994 -0.173203 0.0
25.7496 6.17473 0.0
48.3825 0.127097 0.0
27.9316 2.01042 0.0
42.3988 4.84544 0.0
4.54081 -18.1086 0.0
0.580578 -4.46145 0.0
29.1009 13.4708 0.0
-5.52256 -18.3259 0.0
21.4887 -4.51953 0.0
15.8161 0.575207 0.0
13.1839 1.15776 0.0
42.4659 -5.76852 0.0
48.6954 -1.00668 0.0
33.6092 -1.08211 0.0
34.189 -1.38531 0.0
4.51745 -0.123966 0.0
15.8021 1.23558 0.0
31.359 1.04034 0.0
27.8721 -8.25873 0.0
33.4349 -0.900001 0.0
10.8756 -0.592156 0.0
32.85 -2.55303 0.0
13.3902 0.496952 0.0
23.8698 -5.5394 0.0
18.3659 -0.440829 0.0
2.86104 -20.685 0.0
30.2347 10.7013 0.0
17.1998 -2.90586 0.0
38.1868 -0.670335 0.0
13.9952 3.30947 0.0
35.1125 -8.57173 0.0
49.3095 0.827508 0.0
13.9805 -11.692 0.0
47.9277 -1.59077 0.0
23.4185 1.06135 0.0
27.2345 -7.89835 0.0
-0.807784 9.17021 0.0
12.6214 1.79895 0.0
35.5763 4.49775 0.0
28.5944 5.85972 0.0
14.723 8.59207 0.0
28.2158 1.47637 0.0
11.6218 8.58673 0.0
11.3915 -0.00576696 0.0
18.5009 -3.6193 0.0
16.7652 -12.6913 0.0
34.4079 0.529446 0.0
20.663 -4.68787 0.0
15.0496 -0.0351851 0.0
32.1017 -3.22543 0.0
48.8242 0.471106 0.0
32.9191 0.981203 0.0
23.1093 5.42191 0.0
-8.78272 9.17661 0.0
8.06254 -18.7162 0.0
33.0023 2.61222 0.0
33.8028 -1.98612 0.0
13.2588 -0.36197 0.0
29.7349 9.5832 0.0
38.8276 -0.0174635 0.0
31.3797 -10.7217 0.0
6.24365 6.47355 0.0
17.1064 0.23171 0.0
22.2562 -1.39864 0.0
17.8142 0.386529 0.0
10.5058 -0.819821 0.0
15.9446 -3.6124 0.0
33.2015 8.39444 0.0
13.4459 0.0242003 0.0
-9.17141 -9.4092 0.0
33.218 0.125013 0.0
12.2207 0.0903844 0.0
32.2288 -12.23 0.0
23.3206 -14.5957 0.0
49.6977 0.385604 0.0
16.9836 0.16819 0.0
25.1261 10.8567 0.0
-3.71487 15.2904 0.0
11.9436 0.0277709 0.0
15.7225 0.0779327 0.0
-1.54175 -9.46928 0.0
8.99471 -5.18042 0.0
27.4263 9.22992 0.0
26.5696 4.36377 0.0
25.8387 8.51398 0.0
8.65143 -1.79404 0.0
16.8255 0.0524008 0.0
37.5061 -0.282807 0.0
16.7171 -3.71623 0.0
17.3664 -15.5683 0.0
4.48307 14.7232 0.0
17.1548 -0.0215457 0.0
28.4409 -1.80792 0.0
48.288 0.124291 0.0
13.5312 -0.406246 0.0
44.3114 3.7727 0.0
49.6413 0.233824 0.0
12.6387 -0.987535 0.0
13.3886 -0.197453 0.0
28.5367 -9.12085 0.0
33.337 2.20096 0.0
22.4987 -0.447219 0.0
48.1402 -0.271823 0.0
23.3091 0.843367 0.0
15.2856 -0.622147 0.0
6.3889 -0.308444 0.0
15.7646 -0.54236 0.0
14.7157 -6.62783 0.0
21.0998 -1.09809 0.0
36.2512 -10.0995 0.0
16.0253 -0.129312 0.0
13.5026 1.41806 0.0
20.8602 -3.55969 0.0
22.1064 -4.19086 0.0
14.7142 0.0214703 0.0
22.8582 1.47879 0.0
8.15465 -1.38127 0.0
15.722 0.624138 0.0
11.8009 18.5647 0.0
22.6708 -0.195778 0.0
25.9236 10.9282 0.0
28.976 5.61911 0.0
16.2408 2.2716 0.0
13.2015 0.576933 0.0
15.6798 0.82485 0.0
9.5581 1.872 0.0
31.2509 0.921563 0.0
32.9307 0.629068 0.0
7.43012 -0.249098 0.0
13.0801 0.767672 0.0
7.07592 -0.0988075 0.0
15.9034 -0.0928541 0.0
18.6786 -1.2957 0.0
14.5931 -2.62574 0.0
21.4259 15.9809 0.0
26.5871 -5.58735 0.0
11.5343 0.348526 0.0
19.7029 1.39287 0.0
21.2393 -1.61678 0.0
10.7235 -0.0876344 0.0
16.2378 -0.241654 0.0
11.8875 -0.247765 0.0
49.5504 0.122006 0.0
7.40431 -7.25249 0.0
15.8324 -0.203452 0.0
15.69 -0.229025 0.0
13.7712 -0.126527 0.0
48.2326 -0.177894 0.0
37.3566 9.2518 0.0
44.89 -3.9033 0.0
7.94628 -0.000967192 0.0
13.3451 7.13184 0.0
34.4954 0.0282333 0.0
17.1005 -0.335131 0.0
34.2954 -0.745855 0.0
4.57791 7.85394 0.0
21.155 0.604957 0.0
11.5545 -7.59046 0.0
7.96534 -0.0562202 0.0
21.6732 -14.16 0.0
32.3347 -0.182949 0.0
27.3271 -6.75711 0.0
15.4937 0.334983 0.0
-8.96212 1.69488 0.0
33.5027 0.240824 0.0
22.2503 -0.0866427 0.0
48.8625 0.21232 0.0
17.8314 -0.281824 0.0
39.7127 -0.4295 0.0
11.4498 0.548323 0.0
19.0508 -4.55869 0.0
7.63717 -0.64877 0.0
8.16275 -0.0649255 0.0
14.2192 -1.00444 0.0
13.5915 -4.82027 0.0
18.6447 4.60103 0.0
34.8245 -0.0410574 0.0
30.0893 1.13143 0.0
31.888 0.019298 0.0
12.9417 0.271378 0.0
31.4297 -1.95314 0.0
4.5476 -11.7306 0.0
46.4587 -2.49489 0.0
21.7697 -14.2076 0.0
19.069 -2.53429 0.0
14.3677 3.12706 0.0
13.9424 0.0767361 0.0
11.1653 -15.1141 0.0
26.1549 -0.0405006 0.0
46.589 -0.541312 0.0
21.9957 0.90921 0.0
31.2911 -1.72662 0.0
19.942 -0.790625 0.0
36.7526 -0.267313 0.0
21.3486 0.759919 0.0
13.5167 -0.169317 0.0
13.0001 -0.193555 0.0
-8.96404 -2.14619 0.0
14.6215 -1.32085 0.0
8.52799 1.76195 0.0
16.3297 -7.01024 0.0
17.129 -1.79812 0.0
20.7594 -0.207468 0.0
21.0872 -0.183078 0.0
22.2315 0.33615 0.0
44.1703 -3.762 0.0
30.0189 5.41786 0.0
11.4218 -1.03124 0.0
28.3975 8.50692 0.0
25.8268 -7.03752 0.0
7.68751 0.0597169 0.0
21.2032 -12.3833 0.0
16.5178 0.842422 0.0
12.5179 -0.155334 0.0
13.1887 -0.205943 0.0
16.7435 0.285582 0.0
7.75589 1.38313 0.0
11.6642 1.88846 0.0
11.2094 5.50366 0.0
4.58381 18.2229 0.0
46.2401 -1.41842 0.0
32.9092 11.7663 0.0
15.3873 -0.212997 0.0
26.6163 7.15644 0.0
12.0103 -0.000228907 0.0
49.1494 -0.25085 0.0
30.0064 6.01457 0.0
22.1084 14.2439 0.0
13.8988 3.18934 0.0
32.8605 0.271587 0.0
12.2599 0.112391 0.0
10.3706 7.89961 0.0
10.2605 -1.79356 0.0
31.8841 0.0801784 0.0
31.0862 1.25355 0.0
33.5863 0.637532 0.0
9.44146 -1.88803 0.0
22.9233 -11.1875 0.0
48.0395 1.05132 0.0
21.098 -3.95871 0.0
11.3568 -0.483574 0.0
33.1087 -10.7061 0.0
48.4095 -0.415345 0.0
25.5067 -0.849569 0.0
28.536 8.47409 0.0
38.0065 -1.03634 0.0
15.5726 -0.231125 0.0
7.42429 0.884647 0.0
13.7908 -0.229203 0.0
6.75036 -0.131606 0.0
5.83051 -0.83044 0.0
19.579 15.8191 0.0
28.3704 9.89514 0.0
8.24111 3.74909 0.0
28.9051 7.01295 0.0
31.1985 4.19637 0.0
5.01123 -0.955349 0.0
36.0932 -8.25773 0.0
4.41326 0.818577 0.0
6.71395 0.186576 0.0
16.5953 10.5919 0.0
7.29211 0.91704 0.0
49.7472 -0.0213166 0.0
36.6138 -9.30615 0.0
4.17928 -0.396531 0.0
31.1175 0.865503 0.0
32.2146 -0.987681 0.0
29.9721 4.36942 0.0
7.50521 18.7192 0.0
22.8722 6.20036 0.0
29.4115 5.59467 0.0
6.22293 0.260053 0.0
34.8023 0.80575 0.0
41.8263 6.48816 0.0
4.56999 -0.883077 0.0
6.55676 -0.212129 0.0
39.8556 -0.850724 0.0
4.68373 0.928424 0.0
43.0225 -4.64503 0.0
36.1619 9.80197 0.0
17.0993 -0.871439 0.0
6.94048 -0.0615028 0.0
13.4418 0.393426 0.0
22.1479 0.388265 0.0
22.4473 0.108415 0.0
49.2447 -0.0123698 0.0
20.8635 -0.132233 0.0
13.1354 0.629971 0.0
47.5244 0.139684 0.0
49.4006 -0.128768 0.0
33.5571 0.394209 0.0
45.7474 0.530204 0.0
31.4666 -0.147625 0.0
42.5757 -5.18408 0.0
32.8904 0.201349 0.0
23.7588 -6.23454 0.0
30.5993 3.33135 0.0
10.7913 0.632837 0.0
30.0852 0.0303684 0.0
31.8654 -0.617084 0.0
25.7944 -6.11927 0.0
9.3416 -0.704522 0.0
14.0054 -2.0871 0.0
48.5999 0.202728 0.0
8.98287 0.550912 0.0
32.9474 0.183216 0.0
47.3953 0.486951 0.0
7.47075 0.215061 0.0
26.1857 3.99906 0.0
28.911 4.93518 0.0
33.521 0.127414 0.0
40.9701 7.22691 0.0
45.1422 4.36973 0.0
5.19702 3.43824 0.0
7.48833 1.11998 0.0
22.5258 1.15929 0.0
29.6323 -12.298 0.0
16.0959 -14.2303 0.0
5.60618 0.884655 0.0
44.7847 0.051865 0.0
28.7477 -5.91063 0.0
47.7325 -0.467695 0.0
33.4973 0.154361 0.0
4.17763 -0.130809 0.0
4.23553 0.775083 0.0
28.2626 9.24046 0.0
6.5005 0.110573 0.0
29.374 6.94009 0.0
45.3072 0.72595 0.0
4.32902 0.00136957 0.0
6.52251 -0.038547 0.0
29.3527 3.8459 0.0
30.1428 0.435124 0.0
4.07789 0.138633 0.0
26.6298 -0.141304 0.0
33.0316 0.192303 0.0
7.86498 -1.10176 0.0
33.5671 0.134382 0.0
27.015 3.7315 0.0
46.9494 -0.722177 0.0
30.9969 2.51043 0.0
6.89883 -0.493283 0.0
42.708 5.32257 0.0
5.51436 -0.94909 0.0
6.71732 0.366221 0.0
21.5035 -9.8882 0.0
6.70603 0.377723 0.0
26.8002 4.72483 0.0
29.9055 2.94989 0.0
42.2561 4.57639 0.0
46.0996 3.05848 0.0
10.9282 -0.865482 0.0
19.1084 3.48057 0.0
47.5852 0.454278 0.0
4.24227 -0.511307 0.0
3.87171 0.509749 0.0
13.0048 -1.55499 0.0
10.488 0.790924 0.0
33.0132 -0.669871 0.0
7.41424 -0.338988 0.0
24.8507 0.628021 0.0
32.8341 1.52777 0.0
7.26003 0.766921 0.0
12.7265 0.581683 0.0
28.4982 6.20778 0.0
7.13878 0.306766 0.0
31.0279 1.81152 0.0
27.2294 2.9054 0.0
31.1261 0.429975 0.0
6.46959 -0.410385 0.0
5.0202 0.291362 0.0
8.22224 0.599682 0.0
22.5107 -0.616484 0.0
10.1679 -1.56716 0.0
33.6549 0.15274 0.0
4.19202 0.0765396 0.0
45.1409 2.2822 0.0
8.03611 -0.472783 0.0
3.82539 0.59644 0.0
15.5935 -1.17029 0.0
28.2909 7.60711 0.0
7.69253 -0.872916 0.0
31.1844 0.335305 0.0
29.8766 2.21493 0.0
24.4971 4.31538 0.0
33.1655 0.203077 0.0
27.3282 2.23964 0.0
16.7328 -2.29033 0.0
34.396 -8.99971 0.0
31.6922 -3.69423 0.0
27.3619 1.69173 0.0
6.70347 -0.541558 0.0
7.15007 0.564454 0.0
47.7 -0.126098 0.0
3.72228 0.351284 0.0
36.2872 -0.634629 0.0
17.6484 6.09895 0.0
33.3095 0.195939 0.0
3.78363 0.423781 0.0
4.30121 -0.63356 0.0
30.0012 1.60981 0.0
28.3019 8.99895 0.0
23.0757 -0.148541 0.0
32.4653 -0.879992 0.0
28.3833 0.0533266 0.0
28.4286 -0.83563 0.0
13.8198 -7.67615 0.0
29.093 -0.0952476 0.0
25.6505 3.193 0.0
4.11103 -0.284392 0.0
27.3819 1.24604 0.0
22.8428 5.65383 0.0
13.5379 -0.595194 0.0
32.9052 0.406622 0.0
4.44548 -0.324311 0.0
4.90833 0.330345 0.0
25.5069 4.04806 0.0
30.0454 -0.123536 0.0
28.4045 -0.975546 0.0
16.1235 -0.127884 0.0
30.0061 1.46805 0.0
33.7643 0.164831 0.0
29.1924 -4.45723 0.0
4.24287 1.3473 0.0
31.0998 0.603795 0.0
31.3597 -4.18436 0.0
25.816 1.92828 0.0
26.1987 4.06482 0.0
8.34729 -2.2959 0.0
32.1227 -12.0115 0.0
5.06641 -4.39943 0.0
27.2767 -13.6985 0.0
30.5685 -1.07847 0.0
31.1303 4.62654 0.0
30.5635 1.82748 0.0
4.40931 -1.1875 0.0
27.411 0.912375 0.0
27.9923 2.47807 0.0
25.8285 1.46744 0.0
34.5839 0.0952402 0.0
25.7752 2.49219 0.0
30.0915 0.795836 0.0
27.4014 -0.662028 0.0
25.8069 -3.47299 0.0
8.71844 -3.32522 0.0
46.4649 -0.728855 0.0
12.7961 -0.115045 0.0
23.3157 -4.6915 0.0
6.95162 -5.83132 0.0
38.671 8.06289 0.0
33.9671 0.123064 0.0
2.98474 -0.236032 0.0
3.06051 0.24377 0.0
30.0709 0.574254 0.0
44.5583 0.78777 0.0
27.4852 0.683787 0.0
21.0916 5.70677 0.0
4.65804 -0.213898 0.0
7.6755 -0.318927 0.0
5.95855 0.654396 0.0
2.71304 1.79608 0.0
5.73405 -3.1483 0.0
30.189 -5.49339 0.0
34.7225 0.0802522 0.0
42.3317 5.89741 0.0
0.889653 0.944671 0.0
24.7552 -0.0534613 0.0
26.4605 -0.0526756 0.0
25.404 -3.75309 0.0
20.8466 5.95814 0.0
1.01728 -0.895191 0.0
2.95505 -1.62038 0.0
22.4416 0.359135 0.0
21.5865 0.806015 0.0
25.8989 1.09598 0.0
17.9175 -2.76784 0.0
30.0342 -0.0707252 0.0
49.5005 -0.255565 0.0
31.1288 -0.0651886 0.0
24.1363 4.6847 0.0
33.5512 0.104159 0.0
3.98286 -0.237502 0.0
28.8024 7.58603 0.0
33.3021 0.362525 0.0
31.2717 0.299525 0.0
32.9541 -0.0239726 0.0
28.3697 -2.33449 0.0
3.82358 0.165231 0.0
33.3945 -0.240814 0.0
5.41658 -0.811605 0.0
13.1925 1.41149 0.0
21.4617 -0.417923 0.0
27.5632 0.546267 0.0
25.954 0.817458 0.0
31.823 1.1515 0.0
32.7522 0.924784 0.0
31.8998 1.35168 0.0
3.69394 0.244794 0.0
7.08785 0.430563 0.0
6.06929 -0.531736 0.0
33.8446 0.051851 0.0
30.2428 0.364782 0.0
46.4694 0.530946 0.0
5.28542 0.935957 0.0
30.5276 0.0602164 0.0
28.9611 2.82538 0.0
10.5028 6.31216 0.0
30.7632 -0.0530754 0.0
2.47789 0.547389 0.0
29.5754 -0.0884449 0.0
29.0117 -0.862718 0.0
29.6777 -0.575721 0.0
22.2504 -0.242457 0.0
20.4883 -0.231696 0.0
29.2181 -0.130469 0.0
6.96278 -0.723434 0.0
48.1692 -1.18167 0.0
33.3717 -0.232697 0.0
31.8725 -0.147509 0.0
31.4157 0.29442 0.0
27.7019 0.467702 0.0
15.2469 -0.0070834 0.0
30.3715 0.341155 0.0
33.145 -2.57072 0.0
33.5996 0.0518532 0.0
7.54817 0.310807 0.0
26.7674 3.90992 0.0
2.63917 -0.502572 0.0
33.7691 0.437706 0.0
34.1182 0.229337 0.0
27.8804 0.43062 0.0
1.82097 0.765036 0.0
31.7139 -10.9809 0.0
34.0053 0.078861 0.0
32.5606 1.04453 0.0
30.4083 -0.0922179 0.0
31.6081 -0.351121 0.0
31.6062 0.292443 0.0
33.771 0.0510167 0.0
33.6494 0.189266 0.0
33.8781 0.155582 0.0
28.1414 0.419507 0.0
3.32241 0.285367 0.0
11.5197 0.869143 0.0
32.722 -0.675148 0.0
23.417 8.97093 0.0
1.95501 -0.70689 0.0
6.57317 -0.348485 0.0
26.7536 -12.3478 0.0
28.897 2.67085 0.0
30.5748 0.338765 0.0
12.3486 -0.664822 0.0
31.676 -0.176179 0.0
32.4567 -0.142664 0.0
19.9182 6.79116 0.0
6.3687 0.478601 0.0
3.09139 -0.337313 0.0
32.5415 -3.12298 0.0
24.1427 4.05011 0.0
29.4803 -2.30283 0.0
34.0024 0.33016 0.0
11.5189 -1.6407 0.0
30.8067 0.322551 0.0
26.0404 0.647943 0.0
33.6029 -0.0509681 0.0
2.94382 0.387649 0.0
31.8216 0.263765 0.0
33.6115 0.00157976 0.0
3.66372 -0.150563 0.0
28.4535 0.392695 0.0
33.4514 0.15966 0.0
34.2858 0.436331 0.0
32.2476 0.110696 0.0
32.2728 -0.193843 0.0
34.0011 0.0322878 0.0
28.0819 -0.781656 0.0
32.2803 -0.0743273 0.0
32.0697 0.193404 0.0
31.537 0.0706078 0.0
31.4873 -0.22058 0.0
3.41831 -0.221377 0.0
32.362 0.253493 0.0
31.3174 -0.25142 0.0
4.59105 0.210129 0.0
33.9714 -0.0181882 0.0
7.27651 0.406835 0.0
31.0804 0.255444 0.0
32.1135 -0.232442 0.0
34.3084 0.320062 0.0
33.0242 -0.049587 0.0
32.3693 0.0438595 0.0
34.0405 0.21446 0.0
15.0754 0.182579 0.0
29.2516 0.159438 0.0
27.2502 1.29012 0.0
28.7104 0.293708 0.0
3.31888 -0.0447653 0.0
33.3119 0.0752039 0.0
31.3466 0.152926 0.0
25.4524 -4.23963 0.0
3.59893 -0.265257 0.0
26.3706 0.48282 0.0
3.51844 0.189886 0.0
23.8927 -3.96354 0.0
28.4037 1.48047 0.0
26.6281 0.455987 0.0
30.1084 -0.142742 0.0
31.1595 -0.261418 0.0
26.9924 0.443027 0.0
32.5037 -0.0640982 0.0
37.2364 9.53268 0.0
23.9295 -4.76734 0.0
31.6648 -0.0633991 0.0
34.13 0.472063 0.0
33.9836 0.485871 0.0
34.2505 0.295007 0.0
31.9694 -0.253121 0.0
34.4665 0.34527 0.0
27.5317 -0.128615 0.0
34.4375 0.35047 0.0
30.8268 -0.156439 0.0
29.481 0.0653932 0.0
14.1679 0.320409 0.0
32.5825 -0.0916244 0.0
34.4341 0.311922 0.0
25.4048 -0.629306 0.0
34.1746 0.409539 0.0
31.8377 -0.248253 0.0
31.0156 -0.240468 0.0
3.54861 0.214518 0.0
31.6708 0.00887116 0.0
26.1866 0.546629 0.0
34.6049 0.317221 0.0
23.898 -0.306292 0.0
7.86012 0.214033 0.0
29.6964 -0.00294925 0.0
34.2065 0.312381 0.0
27.7053 0.223306 0.0
27.0205 -0.132454 0.0
30.885 -0.182564 0.0
34.2065 0.184019 0.0
31.7216 -0.211103 0.0
28.176 0.108299 0.0
17.899 4.98425 0.0
33.9319 -0.0729505 0.0
34.5908 0.276706 0.0
33.1882 0.787723 0.0
13.8513 -0.0751745 0.0
31.7696 -0.0449219 0.0
25.8759 -0.150724 0.0
4.15407 0.127327 0.0
7.30615 0.253928 0.0
31.6093 -0.14455 0.0
33.5568 0.23936 0.0
29.412 -0.263568 0.0
30.7507 -0.100829 0.0
34.483 0.24589 0.0
29.8498 -0.190587 0.0
29.8705 -0.0590858 0.0
30.576 -0.0179528 0.0
26.3103 -0.186055 0.0
28.9175 -0.174853 0.0
34.7103 0.23633 0.0
26.627 -0.154979 0.0
33.91 0.144755 0.0
29.1986 -0.2765 0.0
30.3158 -0.225134 0.0
28.6549 -0.217109 0.0
26.0051 -0.222049 0.0
33.6099 0.197204 0.0
31.4769 -0.0659022 0.0
5.09677 0.142883 0.0
7.99641 0.207778 0.0
34.4779 0.105691 0.0
34.1492 0.0404229 0.0
27.2314 0.397361 0.0
28.4511 0.00621328 0.0
28.6783 -0.0380477 0.0
34.3671 0.414555 0.0
30.3247 0.0453335 0.0
33.3465 0.705152 0.0
32.4497 -0.011334 0.0
25.72 -0.257488 0.0
27.9536 -0.280541 0.0
28.437 0.0243016 0.0
31.2952 0.00368948 0.0
34.6958 0.180138 0.0
33.5871 -0.104857 0.0
28.4187 -0.25373 0.0
29.5009 8.55608 0.0
24.6404 -0.20433 0.0
28.1854 -0.279378 0.0
25.4608 -0.288908 0.0
31.1724 1.41042 0.0
30.0075 0.0691194 0.0
31.0522 0.0438726 0.0
29.0146 -0.254044 0.0
24.9818 -0.174033 0.0
27.3794 -0.0283228 0.0
34.0978 0.256759 0.0
25.1776 -0.296948 0.0
27.7577 -0.229175 0.0
29.6946 0.0433511 0.0
15.921 0.138352 0.0
32.9577 0.0910672 0.0
24.8606 -0.235607 0.0
13.8102 0.0941997 0.0
24.3288 -0.23828 0.0
30.7815 0.0401423 0.0
24.6918 -0.117687 0.0
27.5723 -0.134565 0.0
25.359 -0.156599 0.0
3.65476 -0.0508142 0.0
6.88584 -0.0925084 0.0
15.8908 0.206872 0.0
29.498 -0.234886 0.0
28.6745 -0.089354 0.0
29.443 -0.0122514 0.0
30.5375 -0.00279957 0.0
24.4497 -0.000135855 0.0
7.75034 0.0916316 0.0
34.2508 0.194577 0.0
7.09504 -0.102176 0.0
34.7538 0.098383 0.0
29.2849 -0.0667424 0.0
24.0332 -0.273287 0.0
28.1128 0.0798577 0.0
23.6767 -0.303232 0.0
34.7183 0.0157325 0.0
27.6756 0.112999 0.0
3.79103 -0.0530676 0.0
6.99193 -0.102687 0.0
28.8471 -0.18505 0.0
4.05852 0.0565678 0.0
30.3589 -0.0626354 0.0
23.3698 -0.279065 0.0
23.1184 -0.168725 0.0
27.0801 0.0614106 0.0
30.031 -0.134348 0.0
34.3011 0.0242367 0.0
27.2722 0.0894613 0.0
26.9452 0.028066 0.0
7.06255 -0.0886427 0.0
3.94413 -0.0528261 0.0
13.1624 0.169074 0.0
22.8924 -0.0370935 0.0
26.6057 0.122381 0.0
29.6215 -0.232143 0.0
26.0983 0.134415 0.0
31.0645 -0.0725199 0.0
13.4932 0.191141 0.0
25.6832 0.0800462 0.0
30.2872 -0.106045 0.0
26.7168 -0.0211053 0.0
7.07229 0.0980713 0.0
3.56776 -0.0357813 0.0
3.00063 -0.0519669 0.0
3.84578 -0.0475353 0.0
6.99358 -0.0292417 0.0
7.43745 0.110193 0.0
3.25522 -0.013452 0.0
3.68365 3.42917e-06 0.0
6.84734 -0.0877267 0.0
3.5759 -0.0327354 0.0
3.86754 -0.0288113 0.0
4.08451 0.0880317 0.0
7.60668 -0.09016 0.0
3.97915 0.0532654 0.0
6.76503 -0.0630607 0.0
3.81384 0.0523741 0.0
7.19203 -0.0485969 0.0
6.96982 -0.0650627 0.0
3.72088 0.108198 0.0
7.70381 0.129353 0.0
6.83948 -0.072019 0.0
6.70431 -0.0802259 0.0
3.80922 0.176327 0.0
6.48128 -0.0454675 0.0
6.95512 0.131281 0.0
3.50242 -0.0352445 0.0
6.77341 -0.0428839 0.0
3.98593 -0.000153673 0.0
3.53186 0.0611743 0.0
6.57149 -0.10456 0.0
3.8192 0.131305 0.0
4.5923 0.069486 0.0
3.8337 0.222546 0.0
3.23647 0.0541445 0.0
3.48626 -0.0101067 0.0
6.84223 0.0181765 0.0
3.67837 -0.0501969 0.0
3.77699 -0.0527375 0.0
3.90643 0.146613 0.0
3.93518 0.150806 0.0
3.82392 -0.0180431 0.0
3.77558 0.0380378 0.0
3.21169 -0.0521305 0.0
3.63012 -0.0306446 0.0
4.49907 -0.00739987 0.0
7.65018 -0.020811 0.0
3.88218 -0.112678 0.0
4.62847 0.0487439 0.0
6.49429 0.110077 0.0
6.39353 -0.114561 0.0
3.5905 -0.0447735 0.0
3.94962 0.144333 0.0
3.6263 0.029701 0.0
7.14737 -0.0140823 0.0
3.44837 0.0714221 0.0
3.81986 0.0529773 0.0
3.56662 -0.0474168 0.0
7.22043 0.288828 0.0
4.39928 -0.0592656 0.0
3.13053 0.00823569 0.0
3.56057 0.00635755 0.0
3.03796 0.0327458 0.0
3.91016 0.0535143 0.0
3.95521 -0.0182214 0.0
5.97269 -0.0483692 0.0
2.70828 -0.0181608 0.0
7.04546 0.267066 0.0
7.27915 0.091586 0.0
29.7835 -0.124015 0.0
29.2763 -0.0817067 0.0
32.5414 -0.115879 0.0
25.375 0.0174003 0.0
34.3756 -0.209453 0.0
34.4042 -0.0401785 0.0
25.0943 0.000669116 0.0
34.4418 -0.210675 0.0
34.6403 -0.143877 0.0
34.506 -0.21375 0.0
34.7093 -0.0629855 0.0
26.6371 -0.0121846 0.0
29.4176 -0.0690112 0.0
34.5881 -0.17599 0.0
28.5551 -0.113581 0.0
34.2784 -0.166228 0.0
30.3607 -0.111995 0.0
34.2084 -0.142942 0.0
32.1163 -0.163223 0.0
32.7218 -0.189079 0.0
21.8589 0.066635 0.0
34.148 -0.222494 0.0
33.9425 -0.0906436 0.0
32.8398 -0.161524 0.0
34.2682 -0.158736 0.0
24.4662 -0.0862952 0.0
31.8413 -0.0969403 0.0
29.4775 -0.102679 0.0