# vtk DataFile Version 3.0
Malha 2D com triângulos e temperatura
ASCII
DATASET UNSTRUCTURED_GRID

POINTS 1194 double
0 0 0
5 0 0
5 1 0
0 1 0
0.85 0.5 0
0.842388 0.538268 0
0.820711 0.570711 0
0.788268 0.592388 0
0.75 0.6 0
0.711732 0.592388 0
0.679289 0.570711 0
0.657612 0.538268 0
0.65 0.5 0
0.657612 0.461732 0
0.679289 0.429289 0
0.711732 0.407612 0
0.75 0.4 0
0.788268 0.407612 0
0.820711 0.429289 0
0.842388 0.461732 0
0.0793651 0 0
0.15873 0 0
0.238095 0 0
0.31746 0 0
0.396825 0 0
0.47619 0 0
0.555556 0 0
0.634921 0 0
0.714286 0 0
0.793651 0 0
0.873016 0 0
0.952381 0 0
1.03175 0 0
1.11111 0 0
1.19048 0 0
1.26984 0 0
1.34921 0 0
1.42857 0 0
1.50794 0 0
1.5873 0 0
1.66667 0 0
1.74603 0 0
1.8254 0 0
1.90476 0 0
1.98413 0 0
2.06349 0 0
2.14286 0 0
2.22222 0 0
2.30159 0 0
2.38095 0 0
2.46032 0 0
2.53968 0 0
2.61905 0 0
2.69841 0 0
2.77778 0 0
2.85714 0 0
2.93651 0 0
3.01587 0 0
3.09524 0 0
3.1746 0 0
3.25397 0 0
3.33333 0 0
3.4127 0 0
3.49206 0 0
3.57143 0 0
3.65079 0 0
3.73016 0 0
3.80952 0 0
3.88889 0 0
3.96825 0 0
4.04762 0 0
4.12698 0 0
4.20635 0 0
4.28571 0 0
4.36508 0 0
4.44444 0 0
4.52381 0 0
4.60317 0 0
4.68254 0 0
4.7619 0 0
4.84127 0 0
4.92063 0 0
5 0.0769231 0
5 0.153846 0
5 0.230769 0
5 0.307692 0
5 0.384615 0
5 0.461538 0
5 0.538462 0
5 0.615385 0
5 0.692308 0
5 0.769231 0
5 0.846154 0
5 0.923077 0
4.92063 1 0
4.84127 1 0
4.7619 1 0
4.68254 1 0
4.60317 1 0
4.52381 1 0
4.44444 1 0
4.36508 1 0
4.28571 1 0
4.20635 1 0
4.12698 1 0
4.04762 1 0
3.96825 1 0
3.88889 1 0
3.80952 1 0
3.73016 1 0
3.65079 1 0
3.57143 1 0
3.49206 1 0
3.4127 1 0
3.33333 1 0
3.25397 1 0
3.1746 1 0
3.09524 1 0
3.01587 1 0
2.93651 1 0
2.85714 1 0
2.77778 1 0
2.69841 1 0
2.61905 1 0
2.53968 1 0
2.46032 1 0
2.38095 1 0
2.30159 1 0
2.22222 1 0
2.14286 1 0
2.06349 1 0
1.98413 1 0
1.90476 1 0
1.8254 1 0
1.74603 1 0
1.66667 1 0
1.5873 1 0
1.50794 1 0
1.42857 1 0
1.34921 1 0
1.26984 1 0
1.19048 1 0
1.11111 1 0
1.03175 1 0
0.952381 1 0
0.873016 1 0
0.793651 1 0
0.714286 1 0
0.634921 1 0
0.555556 1 0
0.47619 1 0
0.396825 1 0
0.31746 1 0
0.238095 1 0
0.15873 1 0
0.0793651 1 0
0 0.923077 0
0 0.846154 0
0 0.769231 0
0 0.692308 0
0 0.615385 0
0 0.538462 0
0 0.461538 0
0 0.384615 0
0 0.307692 0
0 0.230769 0
0 0.153846 0
0 0.0769231 0
0.879698 0.466718 0
1.3085 0.931947 0
1.30532 0.0638546 0
4.93832 0.504275 0
0.620452 0.46964 0
3.99858 0.0669607 0
1.63721 0.934258 0
3.3751 0.0523709 0
4.3254 0.0687322 0
2.42354 0.0642082 0
2.97619 0.0687322 0
2.02101 0.0693621 0
3.68108 0.0581336 0
2.65899 0.932655 0
4.178 0.939994 0
3.21614 0.938179 0
2.25483 0.919987 0
3.53215 0.928998 0
3.84921 0.931268 0
1.69647 0.0674297 0
1.94349 0.930209 0
4.48413 0.931268 0
2.97813 0.942022 0
2.74097 0.0673855 0
0.859645 0.573263 0
0.639718 0.573116 0
0.0651563 0.652836 0
0.0635304 0.346121 0
4.56232 0.0679683 0
0.830393 0.392645 0
0.669618 0.39275 0
1.06185 0.0668897 0
0.440193 0.0680031 0
1.06474 0.93511 0
0.446074 0.935974 0
0.724697 0.630698 0
4.72268 0.931235 0
4.93065 0.267192 0
0.589836 0.936152 0
0.92338 0.0562425 0
0.590207 0.0623339 0
0.755872 0.0732784 0
0.838039 0.936714 0
4.92573 0.732039 0
0.281717 0.93783 0
0.28208 0.0811877 0
0.065248 0.503161 0
1.46076 0.0637037 0
4.72574 0.0661877 0
4.31028 0.937908 0
3.21429 0.0687322 0
1.46639 0.932632 0
3.6897 0.928155 0
2.42063 0.931268 0
3.5364 0.0691789 0
2.25998 0.0676208 0
1.78735 0.937047 0
4.01535 0.920637 0
1.85469 0.0674188 0
3.83991 0.0626292 0
3.37477 0.929368 0
2.58225 0.0657863 0
2.81746 0.932342 0
4.16667 0.0687322 0
2.11402 0.935574 0
0.0614266 0.197046 0
0.0612841 0.803003 0
4.88273 0.0644126 0
4.87774 0.933272 0
0.859645 0.426737 0
0.903081 0.436592 0
0.923672 0.473385 0
0.948706 0.439078 0
0.969155 0.479795 0
0.996593 0.439791 0
1.0202 0.484937 0
1.04667 0.440138 0
1.07382 0.489694 0
1.1034 0.440801 0
1.13169 0.49612 0
1.16603 0.445058 0
1.1931 0.504331 0
1.22956 0.450883 0
1.25923 0.506004 0
1.29683 0.453139 0
1.32923 0.510343 0
1.36603 0.454344 0
1.03276 0.530395 0
1.40063 0.516169 0
1.43576 0.454934 0
1.47042 0.520776 0
1.51069 0.46142 0
1.54422 0.526371 0
1.58547 0.465572 0
1.61942 0.531773 0
1.66033 0.468788 0
1.69546 0.536793 0
1.73713 0.472812 0
1.77239 0.541977 0
1.81532 0.478494 0
1.85006 0.547285 0
1.89327 0.483449 0
1.92802 0.55361 0
1.97142 0.488546 0
2.00623 0.558966 0
2.04984 0.493518 0
2.08483 0.564085 0
2.12847 0.498462 0
2.16353 0.569137 0
2.20719 0.503331 0
0.961579 0.391697 0
1.22451 0.565337 0
2.24238 0.574192 0
2.28611 0.508258 0
2.32134 0.579247 0
2.36519 0.513325 0
2.40036 0.584295 0
2.44425 0.51834 0
2.47944 0.589336 0
2.52334 0.523355 0
2.55853 0.594372 0
2.60245 0.52837 0
2.63764 0.599431 0
2.68159 0.533388 0
2.64637 0.462336 0
2.72553 0.467349 0
2.76076 0.538418 0
2.8047 0.47237 0
2.83993 0.543451 0
2.88387 0.477399 0
2.91911 0.548482 0
2.96305 0.482427 0
2.9983 0.553514 0
3.04224 0.487456 0
3.07749 0.558545 0
3.12143 0.492477 0
3.15668 0.563574 0
3.20063 0.497514 0
3.23588 0.568605 0
3.27983 0.502542 0
3.31508 0.573635 0
3.35903 0.507562 0
3.39428 0.578663 0
3.43823 0.5126 0
3.47348 0.583694 0
3.51744 0.517628 0
3.55268 0.588724 0
3.59664 0.522646 0
3.63189 0.593752 0
3.67585 0.527673 0
3.71109 0.598781 0
3.75505 0.532702 0
3.7903 0.60381 0
3.83426 0.537731 0
3.79901 0.466623 0
3.87821 0.471754 0
3.91346 0.542777 0
3.95742 0.476701 0
3.99267 0.547795 0
4.03662 0.481715 0
4.07187 0.552815 0
4.11582 0.486743 0
4.15106 0.55783 0
4.195 0.491782 0
4.23023 0.562843 0
4.27415 0.49682 0
4.30937 0.567866 0
4.35325 0.501915 0
4.38842 0.572845 0
4.43227 0.506997 0
4.46737 0.577575 0
4.51106 0.511995 0
4.54622 0.582183 0
1.13571 0.390292 0
4.47606 0.441361 0
4.55475 0.446396 0
2.32985 0.442214 0
3.5614 0.451571 0
3.08619 0.421408 0
2.09339 0.427815 0
1.42887 0.583001 0
2.84864 0.406329 0
3.32378 0.43649 0
4.23911 0.425894 0
1.54723 0.39251 0
1.77883 0.406811 0
1.33959 0.387065 0
3.92239 0.405803 0
4.08079 0.415776 0
2.48812 0.452349 0
1.57935 0.603183 0
1.93602 0.417543 0
1.72453 0.617973 0
3.11273 0.629643 0
2.69029 0.396284 0
3.94662 0.623383 0
1.88466 0.613248 0
2.79598 0.609502 0
4.10826 0.620575 0
2.04005 0.62838 0
2.95434 0.619575 0
4.51981 0.375801 0
4.59833 0.380943 0
4.63314 0.451296 0
4.26693 0.63114 0
2.19619 0.645921 0
4.4246 0.642296 0
3.27112 0.639707 0
2.35729 0.649822 0
2.51462 0.660373 0
3.42952 0.649769 0
4.67669 0.38601 0
3.58793 0.659829 0
3.74634 0.669888 0
4.64195 0.315733 0
4.44109 0.370647 0
4.48493 0.305066 0
4.40614 0.29989 0
4.71136 0.456133 0
4.72014 0.320758 0
0.8692 0.382093 0
0.841252 0.348256 0
0.886481 0.338703 0
0.853127 0.301457 0
0.902583 0.287335 0
0.801683 0.321689 0
0.818113 0.263019 0
0.764765 0.277091 0
4.44702 0.235678 0
0.946267 0.520761 0
0.78107 0.221265 0
0.726309 0.234724 0
0.848273 0.20551 0
4.68545 0.250576 0
4.37074 0.227561 0
4.76365 0.255792 0
4.79822 0.326145 0
0.713664 0.287231 0
0.672358 0.247957 0
0.68673 0.192342 0
0.630368 0.2085 0
0.616569 0.265341 0
0.574186 0.225456 0
0.557393 0.28131 0
0.52004 0.242373 0
0.504416 0.299685 0
0.462273 0.252096 0
0.44798 0.316739 0
0.404567 0.276951 0
0.390546 0.335414 0
0.434669 0.37657 0
0.377935 0.394545 0
0.421979 0.43426 0
0.365682 0.452846 0
0.409646 0.492216 0
0.353389 0.51089 0
0.397738 0.551598 0
0.339864 0.570301 0
0.385899 0.612153 0
0.325913 0.631557 0
0.344507 0.29318 0
0.320568 0.413067 0
0.373553 0.673852 0
0.434438 0.653082 0
0.311416 0.69481 0
0.449777 0.528305 0
0.293513 0.534612 0
0.421431 0.715204 0
0.480917 0.696603 0
0.54504 0.34471 0
0.262743 0.649913 0
0.246209 0.712341 0
0.468564 0.755948 0
0.526091 0.735423 0
0.538207 0.68039 0
0.581228 0.716342 0
0.408756 0.777952 0
0.36234 0.239019 0
0.297047 0.251925 0
0.572109 0.771575 0
0.624906 0.752173 0
0.474824 0.414151 0
0.534351 0.182707 0
0.633682 0.70159 0
0.674547 0.736174 0
0.66826 0.788959 0
0.721117 0.76834 0
0.714515 0.825486 0
0.769074 0.802008 0
0.775287 0.746591 0
0.821903 0.778625 0
0.826767 0.726064 0
0.873257 0.756032 0
0.872997 0.697261 0
0.92331 0.732304 0
0.930014 0.67838 0
0.976061 0.710612 0
0.92456 0.784469 0
0.982178 0.654421 0
1.03016 0.688004 0
1.02037 0.747059 0
1.08 0.723819 0
1.08651 0.661896 0
1.1397 0.698204 0
1.13262 0.763657 0
1.19424 0.736545 0
1.18556 0.80161 0
1.24839 0.771772 0
1.25723 0.706382 0
1.31432 0.745787 0
4.66801 0.521361 0
4.74602 0.526202 0
4.70285 0.591278 0
4.78076 0.596023 0
4.73763 0.661207 0
4.78904 0.460969 0
2.61113 0.391267 0
2.65506 0.325217 0
2.57588 0.320198 0
2.61982 0.254148 0
2.69899 0.259163 0
2.54065 0.249131 0
2.49672 0.315179 0
2.46148 0.244124 0
2.41757 0.310166 0
2.38233 0.239117 0
2.33843 0.30514 0
2.30297 0.237979 0
2.25928 0.300748 0
2.22079 0.221377 0
2.17969 0.293884 0
2.14114 0.224266 0
2.10047 0.289841 0
2.0653 0.219144 0
2.02202 0.284919 0
1.98701 0.214164 0
1.94336 0.279863 0
3.82315 0.673327 0
3.78135 0.738156 0
3.86451 0.735958 0
3.70234 0.735494 0
4.52513 0.244409 0
4.32717 0.294467 0
4.29217 0.221862 0
0.619934 0.539507 0
0.599432 0.577132 0
0.575955 0.542712 0
0.554504 0.58245 0
4.65962 0.656481 0
4.69438 0.726169 0
4.6161 0.721747 0
4.77259 0.731352 0
4.65076 0.791486 0
4.57153 0.788793 0
4.2482 0.289182 0
4.21307 0.218308 0
4.1691 0.284563 0
4.13394 0.21352 0
0.835918 0.606341 0
0.806475 0.6384 0
4.08995 0.279537 0
0.640355 0.426737 0
0.596214 0.435837 0
0.630358 0.379178 0
0.689967 0.627735 0
1.90832 0.209948 0
1.86468 0.27519 0
1.82968 0.20518 0
1.78607 0.269797 0
0.281841 0.313314 0
0.232117 0.268621 0
0.216861 0.334396 0
4.05473 0.209347 0
4.01077 0.2745 0
3.97554 0.204394 0
3.93159 0.269388 0
0.297409 0.759367 0
0.231645 0.782943 0
0.180008 0.73598 0
1.32151 0.676369 0
1.38055 0.718092 0
1.36901 0.793947 0
1.43945 0.766002 0
0.249902 0.198865 0
0.932364 0.624392 0
1.75117 0.201034 0
1.70771 0.264658 0
1.673 0.195402 0
1.62985 0.260294 0
1.59532 0.191927 0
1.55236 0.254233 0
3.89629 0.200227 0
3.85238 0.264494 0
3.81708 0.195303 0
3.77304 0.259453 0
2.66368 0.189084 0
2.74279 0.19534 0
2.77814 0.264556 0
2.82201 0.199823 0
2.85733 0.269552 0
2.90126 0.203886 0
2.93654 0.274416 0
2.98045 0.20868 0
3.01573 0.279376 0
3.0597 0.213193 0
[...]
CELL_DATA 2220
VECTORS velocity double
13.9719 -1.14193 0.0
10.4987 0.406738 0.0
18.8471 5.26006 0.0
18.7953 1.09118 0.0
14.2773 -1.39592 0.0
16.7435 -0.755067 0.0
8.97906 0.393004 0.0
9.90719 0.00175595 0.0
19.3202 9.87537 0.0
16.4544 -0.497348 0.0
13.0169 16.2096 0.0
9.41137 0.263363 0.0
7.62416 0.19226 0.0
17.1297 -5.37216 0.0
17.06 15.1688 0.0
11.4054 10.1527 0.0
10.2863 0.411791 0.0
8.39695 0.435557 0.0
9.35345 -0.106075 0.0
10.0091 -0.0845706 0.0
16.1171 3.96798 0.0
31.506 -6.16835 0.0
9.63422 0.461092 0.0
9.75761 0.470693 0.0
15.4566 -0.862074 0.0
15.6881 -4.3468 0.0
16.8233 -1.99435 0.0
8.48277 0.463557 0.0
18.6284 1.14551 0.0
20.9731 1.07439 0.0
12.0357 -2.77762 0.0
24.6892 0.1827 0.0
7.12684 -0.0978772 0.0
23.7286 -12.3077 0.0
35.6241 1.70414 0.0
16.8771 -0.852283 0.0
35.2591 2.54601 0.0
8.1802 -0.0956787 0.0
21.7011 1.31822 0.0
21.3766 -1.63389 0.0
10.4141 -1.06122 0.0
19.3071 8.80531 0.0
15.865 0.915208 0.0
9.14773 0.0323438 0.0
8.28967 0.0359703 0.0
7.54812 0.0363375 0.0
9.4727 0.476177 0.0
7.62443 0.00627144 0.0
16.3618 -0.42303 0.0
17.4018 0.215555 0.0
12.8142 3.07971 0.0
7.52294 0.0971378 0.0
9.26191 0.50436 0.0
9.33946 0.110884 0.0
8.69794 0.379419 0.0
21.3062 -2.15088 0.0
26.3234 -0.318047 0.0
7.96176 0.443361 0.0
8.24585 0.443599 0.0
17.6191 0.141775 0.0
0.45015 -2.57001 0.0
16.2048 -1.3024 0.0
13.3484 -3.65093 0.0
9.47248 0.51564 0.0
9.38717 0.497124 0.0
25.4356 -10.7827 0.0
15.1288 -1.07758 0.0
13.2435 9.3186 0.0
8.08865 0.48504 0.0
8.20279 0.487324 0.0
9.26022 0.160355 0.0
25.0923 11.2497 0.0
7.38295 0.152979 0.0
17.1311 0.530216 0.0
26.741 -1.56829 0.0
34.9183 -0.347385 0.0
15.0807 3.47346 0.0
11.9793 -2.57703 0.0
16.9798 8.63624 0.0
8.92178 0.115398 0.0
17.7479 2.43453 0.0
21.8686 2.42586 0.0
11.6461 -0.236895 0.0
7.45068 0.107725 0.0
9.19149 0.389839 0.0
9.15598 0.219716 0.0
13.0657 -1.43791 0.0
7.75594 0.194597 0.0
7.87822 0.320777 0.0
20.3212 10.301 0.0
23.5415 -3.86722 0.0
12.7723 3.51393 0.0
9.38646 -0.131659 0.0
16.5512 4.62418 0.0
34.0921 0.0901918 0.0
21.3419 1.77815 0.0
32.8953 4.90579 0.0
1.57627 -17.7637 0.0
1.19032 -2.10803 0.0
21.7242 12.9264 0.0
-6.96839 -18.0339 0.0
14.168 -3.2889 0.0
9.35014 0.45989 0.0
8.21122 0.753607 0.0
32.2317 -5.70497 0.0
35.1449 -1.0316 0.0
16.9168 -0.640094 0.0
17.4762 -0.929265 0.0
2.96809 -0.0484446 0.0
9.59921 0.793556 0.0
23.3883 0.964962 0.0
19.7252 -6.99589 0.0
16.7936 -0.512014 0.0
8.73715 -0.561081 0.0
17.1892 -1.76535 0.0
8.0571 0.41293 0.0
15.789 -4.17452 0.0
14.3772 -0.418179 0.0
1.41128 -20.6773 0.0
21.5897 9.4979 0.0
11.279 -1.98596 0.0
27.1512 -0.603996 0.0
10.289 2.62794 0.0
28.0354 -8.67011 0.0
35.5669 0.851009 0.0
6.78891 -10.9079 0.0
35.1373 -1.62323 0.0
18.226 1.00016 0.0
18.1081 -6.40226 0.0
-5.05948 8.72321 0.0
8.35083 0.487161 0.0
29.3452 4.6218 0.0
25.2127 6.00037 0.0
9.81959 2.26025 0.0
21.4349 1.39104 0.0
8.65758 2.53718 0.0
6.98871 0.00632803 0.0
14.1223 -3.03581 0.0
9.31412 -11.8129 0.0
25.4307 0.539456 0.0
15.4584 -3.9096 0.0
8.99208 -0.01698 0.0
16.9983 -2.28978 0.0
35.0595 0.482695 0.0
16.846 0.495832 0.0
15.2737 4.05138 0.0
-11.123 8.82584 0.0
5.06129 -18.4834 0.0
17.6302 1.62854 0.0
17.4239 -1.30327 0.0
8.12934 -0.125091 0.0
21.4095 8.3867 0.0
27.5457 -0.00768359 0.0
25.3481 -10.826 0.0
5.88912 2.34963 0.0
10.1685 0.185153 0.0
17.314 -1.32438 0.0
10.4873 0.313685 0.0
8.99691 -0.785642 0.0
11.5733 -2.83843 0.0
27.3019 8.5595 0.0
8.18119 0.0440927 0.0
-11.3665 -9.08924 0.0
24.782 0.066269 0.0
7.35814 0.0892332 0.0
24.7567 -11.9616 0.0
15.9603 -13.7532 0.0
35.735 0.406921 0.0
10.0884 0.128413 0.0
22.0869 11.1038 0.0
-6.14938 14.8657 0.0
7.33015 0.0589699 0.0
9.24611 0.0777294 0.0
-5.52275 -9.0687 0.0
1.79999 -4.82119 0.0
16.5221 7.68847 0.0
13.8552 3.51702 0.0
14.7359 7.16047 0.0
6.48671 -1.4073 0.0
10.0363 0.0719282 0.0
26.7311 -0.253179 0.0
12.5006 -3.03335 0.0
16.1861 -15.9656 0.0
0.187414 14.1429 0.0
10.1183 0.00854567 0.0
14.5622 -1.44812 0.0
35.4471 0.126103 0.0
8.26571 -0.0786571 0.0
33.9351 3.82516 0.0
35.6772 0.244358 0.0
10.6535 -0.94439 0.0
8.0226 -0.159248 0.0
19.7118 -7.74788 0.0
17.6498 1.32755 0.0
17.1604 -0.451786 0.0
35.3798 -0.284236 0.0
12.9981 0.425908 0.0
9.27849 -0.130165 0.0
5.15887 -0.293895 0.0
9.49299 -0.226277 0.0
8.46525 -1.01888 0.0
12.235 -0.199147 0.0
27.7852 -9.85578 0.0
9.48641 0.0209378 0.0
10.6141 1.23723 0.0
13.275 -2.42734 0.0
16.8512 -3.57077 0.0
8.84294 0.0655741 0.0
13.164 0.374243 0.0
5.71836 -0.967936 0.0
9.27066 0.467414 0.0
9.16169 18.5703 0.0
12.5852 -0.131992 0.0
16.104 9.50986 0.0
15.8637 4.35659 0.0
10.3291 0.600286 0.0
7.93321 0.429772 0.0
9.34523 0.561763 0.0
7.4566 1.56684 0.0
27.1162 0.926261 0.0
16.6908 0.285255 0.0
4.75952 -0.0811189 0.0
7.96456 0.522207 0.0
4.53091 -0.0113534 0.0
9.42646 0.0147932 0.0
11.2163 -0.269763 0.0
9.88383 -1.83793 0.0
16.4529 15.7924 0.0
20.0266 -4.8346 0.0
9.03268 0.352414 0.0
11.7452 0.379022 0.0
12.4507 -0.898426 0.0
6.68397 -0.00988046 0.0
9.69484 -0.0131788 0.0
9.30127 -0.249679 0.0
34.6222 0.129988 0.0
0.905294 -6.80279 0.0
9.31598 -0.158776 0.0
9.24588 -0.183057 0.0
8.3732 -0.00734727 0.0
34.2924 -0.147108 0.0
28.9107 9.12523 0.0
33.4314 -3.81632 0.0
5.06175 0.0145323 0.0
9.67608 2.16386 0.0
16.9952 -0.0475022 0.0
10.1391 -0.0182085 0.0
24.8369 -0.679447 0.0
4.80171 2.84211 0.0
16.1741 0.612569 0.0
8.65148 -2.183 0.0
5.06686 -0.0388033 0.0
14.1438 -13.2426 0.0
16.4693 -0.0945741 0.0
15.1332 -5.53274 0.0
9.17696 0.288031 0.0
-11.733 1.60285 0.0
16.7157 0.0735455 0.0
17.0208 -0.0200352 0.0
34.0869 0.190547 0.0
10.3639 -0.230419 0.0
28.0332 -0.380581 0.0
8.99903 0.531579 0.0
13.8725 -3.67355 0.0
4.98343 -0.375342 0.0
6.71094 -0.0590606 0.0
8.91854 -0.227108 0.0
5.06199 -4.40994 0.0
13.8864 3.81291 0.0
17.1205 -0.0889435 0.0
15.8655 0.608236 0.0
16.5897 0.0311467 0.0
7.80643 0.240257 0.0
16.6307 -1.13461 0.0
-0.449923 -11.1875 0.0
34.1587 -2.44741 0.0
18.7419 -14.4635 0.0
8.64069 -2.24848 0.0
10.0757 2.33675 0.0
11.0985 0.0710103 0.0
5.76954 -14.4688 0.0
19.8324 -0.0801024 0.0
33.5298 -0.530497 0.0
12.4902 0.417469 0.0
16.4683 -0.993716 0.0
11.6064 -0.130437 0.0
27.1416 -0.294999 0.0
12.0796 0.431807 0.0
8.08377 -0.133058 0.0
7.82026 -0.158464 0.0
-11.7189 -2.06133 0.0
9.12363 -0.765123 0.0
6.17153 1.32228 0.0
9.88008 -1.31799 0.0
10.5956 -1.07755 0.0
11.7209 -0.147429 0.0
11.8647 -0.126735 0.0
17.0967 0.312513 0.0
32.8395 -3.60729 0.0
16.5596 4.06031 0.0
7.48227 -0.2424 0.0
17.1461 6.87849 0.0
18.4949 -5.86844 0.0
6.3353 0.056965 0.0
12.7836 -11.33 0.0
9.98402 0.346169 0.0
7.66585 -0.00430338 0.0
7.91665 -0.16813 0.0
13.1975 0.268631 0.0
5.46034 0.98597 0.0
9.16777 1.62495 0.0
5.10184 0.66179 0.0
1.65427 17.8712 0.0
33.6504 -1.36883 0.0
25.2358 11.4703 0.0
9.09934 -0.172778 0.0
14.7564 5.87871 0.0
9.40459 0.034288 0.0
34.3837 -0.20618 0.0
17.0349 4.47983 0.0
18.8785 14.4686 0.0
10.4382 2.58896 0.0
16.4929 0.10181 0.0
9.6175 0.0770724 0.0
5.44809 1.2433 0.0
8.02594 -1.49428 0.0
16.6065 0.091012 0.0
16.2981 0.675016 0.0
16.9465 0.285358 0.0
7.25608 -1.53209 0.0
13.6385 -10.0276 0.0
34.8764 1.02977 0.0
10.1673 -3.45652 0.0
8.95406 -0.464038 0.0
24.4531 -9.87718 0.0
34.1216 -0.367307 0.0
19.2985 -0.827331 0.0
17.9231 6.78943 0.0
27.1837 -0.941572 0.0
9.18817 -0.18649 0.0
5.91588 0.762228 0.0
8.27221 -0.190628 0.0
5.35862 -0.10091 0.0
4.64783 -0.696185 0.0
16.3845 15.9886 0.0
18.5016 8.30909 0.0
6.60584 1.2588 0.0
17.4831 5.31742 0.0
17.35 2.82284 0.0
3.87044 -0.759356 0.0
27.06 -7.62409 0.0
3.47784 0.671784 0.0
5.34959 0.155882 0.0
8.37294 9.65608 0.0
4.90376 0.610355 0.0
34.8958 0.0109999 0.0
27.5285 -8.76545 0.0
2.82379 -0.240027 0.0
16.1332 0.439609 0.0
23.9251 -0.956471 0.0
17.1206 2.91693 0.0
4.54326 18.4608 0.0
16.6562 5.15993 0.0
17.224 3.98324 0.0
4.95149 0.255636 0.0
17.7131 0.404195 0.0
32.1526 6.43582 0.0
3.43479 -0.677544 0.0
5.22188 -0.206529 0.0
28.2141 -0.769593 0.0
3.52245 0.710454 0.0
32.832 -4.68218 0.0
27.2492 9.27503 0.0
10.2621 -0.438196 0.0
4.36492 -0.0506502 0.0
10.8126 0.373633 0.0
12.6021 0.305303 0.0
12.6438 0.113462 0.0
34.2913 0.0113114 0.0
11.8705 -0.102815 0.0
10.3356 0.541009 0.0
33.6587 0.106761 0.0
34.8293 -0.0863739 0.0
16.8163 0.150422 0.0
32.3924 0.484643 0.0
16.1991 -0.0672802 0.0
31.9209 -4.9585 0.0
16.4773 0.0794214 0.0
16.8654 -5.07574 0.0
17.0563 2.0936 0.0
8.64644 0.604089 0.0
15.9259 0.0434038 0.0
23.3292 -0.570107 0.0
13.792 -5.11323 0.0
7.74836 -0.67367 0.0
9.22702 -1.38404 0.0
33.7712 0.197133 0.0
7.45317 0.523858 0.0
16.4994 0.0889466 0.0
33.1267 0.441987 0.0
6.21814 0.205321 0.0
20.0206 3.53278 0.0
16.9455 3.39287 0.0
16.6703 0.0434164 0.0
31.4393 7.12118 0.0
33.8826 4.25748 0.0
4.76284 1.25769 0.0
5.14033 0.762871 0.0
17.3447 1.00788 0.0
21.0912 -11.2693 0.0
9.41075 -13.4256 0.0
4.45874 0.745565 0.0
32.1669 0.0490792 0.0
15.836 -4.66818 0.0
33.2298 -0.41263 0.0
16.6682 0.0398744 0.0
3.60487 -0.123449 0.0
3.08645 0.566839 0.0
19.6333 7.82405 0.0
5.15963 0.119769 0.0
17.1956 5.30453 0.0
31.7933 0.665784 0.0
3.66907 0.00212963 0.0
5.18016 -0.0474862 0.0
16.7828 2.48613 0.0
15.5917 0.227494 0.0
3.51891 0.132724 0.0
14.4736 -0.101678 0.0
16.5496 0.112848 0.0
5.38274 -0.730395 0.0
16.6994 0.065912 0.0
15.9041 2.41342 0.0
32.9652 -0.657359 0.0
16.883 1.51277 0.0
5.93044 -0.474769 0.0
32.9415 5.34581 0.0
4.34459 -0.776023 0.0
5.80476 0.350335 0.0
11.9542 -8.82799 0.0
5.401 0.363592 0.0
16.2 3.24077 0.0
16.6736 1.81405 0.0
31.6445 4.30969 0.0
34.2127 2.95801 0.0
9.23916 -0.828425 0.0
14.7004 3.00496 0.0
33.1104 0.418842 0.0
2.93559 -0.329478 0.0
2.69067 0.343439 0.0
8.56767 -0.381198 0.0
9.03146 0.760358 0.0
16.6293 -0.374693 0.0
6.27418 -0.3217 0.0
18.9821 0.586897 0.0
17.107 0.851383 0.0
4.78331 0.507615 0.0
10.4291 0.552626 0.0
17.2108 4.54527 0.0
6.0431 0.292497 0.0
16.5581 1.04089 0.0
15.6491 1.7909 0.0
15.9465 0.206841 0.0
5.358 -0.391108 0.0
4.15774 0.277691 0.0
6.55132 0.521211 0.0
12.7205 -0.0516819 0.0
7.08832 -0.415058 0.0
16.7609 0.0917693 0.0
3.57438 0.0735015 0.0
33.3286 2.15611 0.0
5.15961 -0.239936 0.0
2.7192 0.415551 0.0
12.7661 -1.11298 0.0
17.7067 5.91006 0.0
5.13332 -0.549108 0.0
15.9356 0.169624 0.0
16.3306 1.30948 0.0
18.705 3.76599 0.0
16.6374 0.132171 0.0
15.3658 1.33632 0.0
10.6827 -1.47946 0.0
25.6299 -8.23146 0.0
17.2452 -2.45044 0.0
15.0847 0.984021 0.0
5.7835 -0.520861 0.0
6.17029 0.543999 0.0
33.0578 -0.0953874 0.0
2.49162 0.236152 0.0
26.7455 -0.628264 0.0
11.5408 1.71531 0.0
16.7315 0.131845 0.0
2.57728 0.283318 0.0
3.04676 -0.431667 0.0
16.0631 0.911053 0.0
18.3765 7.36025 0.0
12.9553 -0.115594 0.0
23.7863 -0.800822 0.0
15.3401 0.0660667 0.0
21.3095 -0.76326 0.0
9.54464 -1.93328 0.0
15.2759 -0.0769248 0.0
15.1358 2.01851 0.0
2.7283 -0.15628 0.0
14.8736 0.70699 0.0
12.8436 1.21774 0.0
8.28181 -0.282201 0.0
16.5774 0.165667 0.0
3.80949 -0.310886 0.0
4.2103 0.316695 0.0
15.4344 2.69867 0.0
15.6145 -0.096579 0.0
15.2002 -0.505408 0.0
9.5417 -0.104651 0.0
15.5332 0.30369 0.0
16.8432 0.108002 0.0
15.5644 -3.4684 0.0
3.44936 0.429147 0.0
16.0149 0.294594 0.0
17.2287 -2.87639 0.0
14.5826 1.14514 0.0
14.2423 0.866027 0.0
6.398 -0.717719 0.0
23.7737 -11.289 0.0
4.87765 -1.71975 0.0
19.3562 -12.8212 0.0
15.9673 -0.585354 0.0
17.272 3.22869 0.0
15.9136 0.402333 0.0
3.56476 -0.383786 0.0
14.746 0.508139 0.0
14.6301 0.489911 0.0
14.34 0.859762 0.0
17.1156 0.0678402 0.0
14.8642 1.51505 0.0
15.7233 0.411189 0.0
20.5371 -0.618738 0.0
19.7799 -3.03745 0.0
6.9156 -1.1068 0.0
32.4602 -0.659748 0.0
7.70556 -0.0940025 0.0
13.7329 -1.06488 0.0
6.25509 -2.12863 0.0
29.1922 7.63151 0.0
16.9482 0.0801256 0.0
2.66372 -0.228491 0.0
2.73489 0.236656 0.0
15.6215 0.292768 0.0
31.4698 0.724833 0.0
14.6789 0.383057 0.0
11.4978 1.08411 0.0
3.06162 -0.0978578 0.0
4.90909 -0.148131 0.0
4.12975 0.192045 0.0
2.65971 0.674122 0.0
5.109 -1.16968 0.0
16.9234 -4.083 0.0
17.1587 0.0589167 0.0
31.908 5.65304 0.0
1.09577 0.390825 0.0
13.5847 -0.0355659 0.0
14.2794 -0.0390018 0.0
13.5963 -0.660246 0.0
12.7297 1.52941 0.0
1.18635 -0.393492 0.0
2.81099 -0.632478 0.0
12.76 0.282005 0.0
16.8151 0.760415 0.0
14.202 0.634133 0.0
11.3767 -0.690009 0.0
15.6259 -0.0386551 0.0
35.2064 -0.281539 0.0
16.0246 -0.0364423 0.0
13.9638 1.14408 0.0
16.8189 0.0617451 0.0
3.4864 -0.228835 0.0
16.8607 5.99947 0.0
16.7623 0.152398 0.0
15.9647 0.169869 0.0
16.6616 0.0533351 0.0
14.8478 -0.417602 0.0
3.36069 0.158039 0.0
16.732 0.0558861 0.0
3.96577 -0.2213 0.0
8.36709 0.915414 0.0
12.2236 -0.00285893 0.0
14.6539 0.320077 0.0
14.1137 0.470272 0.0
16.3491 0.272201 0.0
16.6423 0.261546 0.0
16.42 0.330954 0.0
2.41491 0.17274 0.0
4.50092 0.303657 0.0
4.17013 -0.129829 0.0
16.7908 0.162069 0.0
15.6112 0.206064 0.0
33.6831 0.498119 0.0
3.87786 0.265576 0.0
15.6569 0.0351872 0.0
15.5092 0.633155 0.0
8.24015 2.07262 0.0
15.8206 -0.0198074 0.0
1.97005 0.161468 0.0
15.367 -0.0501544 0.0
14.9005 -0.134285 0.0
15.5927 -0.262863 0.0
12.4067 -0.175232 0.0
11.5973 -0.170236 0.0
15.1874 -0.0822173 0.0
5.55518 -0.616491 0.0
34.8252 -1.19202 0.0
16.6834 0.0802633 0.0
16.205 -0.116857 0.0
16.0361 0.186938 0.0
14.6901 0.292267 0.0
9.11141 0.0139147 0.0
15.6659 0.213172 0.0
17.3328 -1.71168 0.0
16.7843 0.0262733 0.0
4.81214 0.159278 0.0
14.7346 0.885716 0.0
2.09327 -0.150199 0.0
16.8345 0.21584 0.0
16.824 0.232389 0.0
14.7645 0.288558 0.0
1.671 0.262431 0.0
23.0725 -10.002 0.0
16.9246 0.049117 0.0
16.5781 0.30533 0.0
15.6228 -0.0495713 0.0
16.1644 -0.0411114 0.0
16.1499 0.199134 0.0
16.7398 0.178846 0.0
16.8217 0.14197 0.0
16.9152 0.103948 0.0
14.9021 0.299497 0.0
2.33172 0.0903977 0.0
7.41021 0.276602 0.0
16.5715 -0.0583282 0.0
13.0313 7.76382 0.0
1.77201 -0.254993 0.0
4.33035 -0.0868592 0.0
17.8604 -11.143 0.0
15.5691 0.617601 0.0
15.7747 0.230339 0.0
7.76408 -0.151478 0.0
15.9914 -0.106561 0.0
16.2392 -0.0803243 0.0
12.0698 1.66408 0.0
4.28402 0.167091 0.0
2.25649 -0.0869604 0.0
17.3197 -2.0511 0.0
14.0281 1.01102 0.0
15.4869 -0.433606 0.0
16.8536 0.218489 0.0
9.08109 -1.4025 0.0
15.9152 0.228193 0.0
14.073 0.387143 0.0
16.6725 -0.0334746 0.0
2.15981 0.109987 0.0
16.2797 0.182069 0.0
16.7285 -0.00362372 0.0
2.44582 -0.044256 0.0
15.0887 0.289177 0.0
16.8031 0.104492 0.0
16.8656 0.29346 0.0
16.4383 0.058381 0.0
16.1787 -0.116464 0.0
16.8662 0.0200353 0.0
15.0526 -0.377418 0.0
16.3634 -0.0773576 0.0
16.3965 0.125006 0.0
16.1913 0.0246735 0.0
15.9369 -0.137926 0.0
2.36406 -0.0536013 0.0
16.4709 0.0930341 0.0
15.8989 -0.159501 0.0
3.04145 0.0998282 0.0
16.7984 -0.00962509 0.0
4.75637 0.177381 0.0
16.0666 0.17477 0.0
16.1396 -0.142969 0.0
16.87 0.26836 0.0
16.6086 -0.0623685 0.0
16.4252 0.0108969 0.0
16.7931 0.236374 0.0
8.96683 0.172923 0.0
15.4655 0.0901071 0.0
14.8353 0.365442 0.0
15.2648 0.206035 0.0
2.19263 -0.013023 0.0
16.5884 0.193881 0.0
16.1688 0.0883474 0.0
14.3003 -0.869102 0.0
3.20942 -0.257055 0.0
14.1689 0.323796 0.0
3.1553 0.182839 0.0
13.9823 -0.91189 0.0
15.2981 0.383861 0.0
14.2896 0.324074 0.0
15.4871 -0.0880039 0.0
15.8711 -0.165717 0.0
14.4939 0.329939 0.0
16.3596 -0.0509978 0.0
28.5399 9.29015 0.0
13.4437 -0.89817 0.0
16.0848 -0.00494234 0.0
16.8278 0.299841 0.0
16.8293 0.270246 0.0
16.8672 0.26339 0.0
16.1134 -0.156422 0.0
16.9452 0.273868 0.0
14.7345 -0.0944594 0.0
16.9782 0.245191 0.0
15.7325 -0.0688667 0.0
15.501 0.0157215 0.0
8.56906 0.266733 0.0
16.3814 0.145103 0.0
16.9688 0.261498 0.0
14.0006 -0.269711 0.0
16.8726 0.269493 0.0
16.0964 -0.15058 0.0
15.8523 -0.147456 0.0
2.41875 0.0828333 0.0
16.1779 -0.0155814 0.0
14.1002 0.34647 0.0
17.0431 0.248972 0.0
13.2782 0.0393421 0.0
4.94453 0.178025 0.0
15.5205 -0.0305756 0.0
16.9311 0.208327 0.0
14.9037 0.143839 0.0
14.4282 -0.0939588 0.0
15.8349 -0.0985829 0.0
16.9759 0.116706 0.0
16.0855 -0.119134 0.0
15.0536 0.0481266 0.0
11.6312 1.4123 0.0
16.7381 -0.0417836 0.0
17.0849 0.22935 0.0
16.706 0.281146 0.0
8.36205 -0.0554097 0.0
16.157 -0.0457967 0.0
14.0203 -0.115225 0.0
2.67596 0.106959 0.0
4.58078 0.213252 0.0
16.0682 -0.0641258 0.0
16.7716 0.237646 0.0
15.2673 -0.176921 0.0
15.8028 -0.0306976 0.0
17.047 0.171114 0.0
15.3916 -0.12314 0.0
15.5335 -0.0630345 0.0
15.7366 0.0360503 0.0
14.0868 -0.130324 0.0
15.0636 -0.114991 0.0
17.1424 0.184904 0.0
14.225 -0.1087 0.0
17.0676 0.141476 0.0
15.2183 -0.187023 0.0
15.5878 -0.145903 0.0
14.9724 -0.145944 0.0
13.9708 -0.156999 0.0
16.6931 0.229854 0.0
16.0286 -0.000755984 0.0
3.30079 0.122233 0.0
5.07234 0.177846 0.0
17.0823 0.0628203 0.0
16.9748 0.00706421 0.0
14.6664 0.300234 0.0
15.0167 0.0535048 0.0
15.13 -0.0547849 0.0
16.9098 0.284885 0.0
15.6205 0.0837987 0.0
16.6762 0.311898 0.0
16.3929 -0.0221282 0.0
13.8714 -0.185006 0.0
14.7834 -0.195721 0.0
15.0914 -0.0151265 0.0
15.9526 0.0526522 0.0
17.1866 0.148308 0.0
16.6272 -0.0640508 0.0
14.9015 -0.173502 0.0
21.6097 7.48143 0.0
13.4095 -0.147191 0.0
14.8387 -0.194134 0.0
13.7871 -0.212418 0.0
16.2062 0.371447 0.0
15.4655 0.0951288 0.0
15.8374 0.0785763 0.0
15.1855 -0.167795 0.0
13.5538 -0.125491 0.0
14.6301 0.0233954 0.0
16.968 0.236324 0.0
13.7043 -0.221343 0.0
14.7459 -0.150832 0.0
15.318 0.0614417 0.0
9.60059 0.14461 0.0
16.4911 0.194779 0.0
13.6149 -0.166758 0.0
8.44007 0.102179 0.0
13.2892 -0.173455 0.0
15.7076 0.0645596 0.0
13.5674 -0.06001 0.0
14.6999 -0.0679749 0.0
13.7354 -0.115818 0.0
2.36302 -0.0437481 0.0
4.33906 -0.0801929 0.0
9.5268 0.209083 0.0
15.2922 -0.145066 0.0
15.1075 -0.026204 0.0
15.2195 0.0022784 0.0
15.6028 0.0159127 0.0
13.4692 0.0435891 0.0
4.95347 0.0956719 0.0
17.1056 0.1795 0.0
4.44913 -0.0831619 0.0
17.2026 0.0700899 0.0
15.1997 -0.0529343 0.0
13.1808 -0.203238 0.0
14.8538 0.111968 0.0
13.0532 -0.23194 0.0
17.2212 0.00436714 0.0
14.6317 0.132925 0.0
2.44128 -0.043282 0.0
4.39097 -0.0838953 0.0
15.1552 -0.108084 0.0
2.66204 0.0576446 0.0
15.5526 -0.0459875 0.0
12.9639 -0.211647 0.0
12.8873 -0.11021 0.0
14.4912 0.097733 0.0
15.4681 -0.0532544 0.0
17.1734 0.0230476 0.0
14.4291 0.101768 0.0
14.2912 0.0371666 0.0
4.42592 -0.0708479 0.0
2.53667 -0.042933 0.0
8.06206 0.171737 0.0
12.7979 0.00902033 0.0
14.2508 0.145108 0.0
15.3215 -0.153403 0.0
13.9893 0.147307 0.0
15.9169 -0.0189776 0.0
8.20809 0.191496 0.0
13.7833 0.0879067 0.0
15.5916 -0.0897796 0.0
14.2431 -0.012383 0.0
4.50522 0.0980576 0.0
2.30597 -0.0282383 0.0
1.95295 -0.0445105 0.0
2.46692 -0.0385967 0.0
4.43637 -0.0195543 0.0
4.73042 0.0948504 0.0
2.13144 -0.00880667 0.0
2.40817 0.00417226 0.0
4.3189 -0.0794439 0.0
2.32107 -0.0323891 0.0
2.50253 -0.0236539 0.0
2.66361 0.0748889 0.0
4.74049 -0.072731 0.0
2.57458 0.0525774 0.0
4.2569 -0.0490527 0.0
2.48238 0.0520477 0.0
4.54392 -0.0387087 0.0
4.42204 0.00434469 0.0
2.40174 0.0966648 0.0
4.90059 0.107146 0.0
4.31805 -0.068548 0.0
4.22356 -0.0644862 0.0
2.4505 0.141493 0.0
4.12656 -0.0332534 0.0
4.39293 0.134894 0.0
2.29286 0.00329094 0.0
4.28888 -0.0448038 0.0
2.57685 0.023835 0.0
2.30167 0.0635824 0.0
4.14412 -0.0876784 0.0
2.46746 0.104443 0.0
2.99757 0.0584178 0.0
2.48952 0.164658 0.0
2.12231 0.0577125 0.0
2.27035 -0.0125789 0.0
4.34619 0.0102821 0.0
2.38007 -0.0449036 0.0
2.43593 -0.0432522 0.0
2.52796 0.105986 0.0
2.5618 0.089372 0.0
2.47892 0.0137638 0.0
2.41857 0.0376266 0.0
2.08079 -0.0440883 0.0
2.34375 -0.0239301 0.0
2.92011 4.4759e-05 0.0
4.82566 -0.00910113 0.0
2.54822 -0.0384148 0.0
3.03092 0.052268 0.0
4.13866 0.116255 0.0
4.03915 -0.0976318 0.0
2.32582 -0.0418321 0.0
2.53957 0.120866 0.0
2.36681 0.0239691 0.0
4.50588 0.0384606 0.0
2.23052 0.0684383 0.0
2.47176 0.0542277 0.0
2.30717 -0.0390054 0.0
4.55658 0.19421 0.0
2.83562 -0.0500945 0.0
2.05969 0.0185099 0.0
2.32784 0.016823 0.0
1.97658 0.0338969 0.0
2.55918 0.0536809 0.0
2.56238 -0.01273 0.0
3.82826 -0.0384426 0.0
1.77249 -0.0135604 0.0
4.4407 0.204845 0.0
4.59472 0.0908876 0.0
15.5299 -0.0874261 0.0
15.2963 -0.0678132 0.0
16.3328 -0.0787476 0.0
13.6802 0.0238651 0.0
16.9021 -0.179066 0.0
17.0562 -0.0541746 0.0
13.6322 0.00744469 0.0
16.9592 -0.184394 0.0
17.1469 -0.136171 0.0
17.0159 -0.19211 0.0
17.1792 -0.068109 0.0
14.3256 -0.00298983 0.0
15.5078 -0.0552285 0.0
17.078 -0.162413 0.0
15.1006 -0.0749151 0.0
16.831 -0.130526 0.0
15.7476 -0.0962326 0.0
16.8126 -0.10371 0.0
16.3166 -0.144043 0.0
16.4347 -0.166871 0.0
12.1826 0.0691168 0.0
16.919 -0.200036 0.0
17.0691 -0.0823282 0.0