# vtk DataFile Version 3.0
Malha 2D com triângulos e temperatura
ASCII
DATASET UNSTRUCTURED_GRID

POINTS 1194 double
0 0 0
5 0 0
5 1 0
0 1 0
0.85 0.5 0
0.842388 0.538268 0
0.820711 0.570711 0
0.788268 0.592388 0
0.75 0.6 0
0.711732 0.592388 0
0.679289 0.570711 0
0.657612 0.538268 0
0.65 0.5 0
0.657612 0.461732 0
0.679289 0.429289 0
0.711732 0.407612 0
0.75 0.4 0
0.788268 0.407612 0
0.820711 0.429289 0
0.842388 0.461732 0
0.0793651 0 0
0.15873 0 0
0.238095 0 0
0.31746 0 0
0.396825 0 0
0.47619 0 0
0.555556 0 0
0.634921 0 0
0.714286 0 0
0.793651 0 0
0.873016 0 0
0.952381 0 0
1.03175 0 0
1.11111 0 0
1.19048 0 0
1.26984 0 0
1.34921 0 0
1.42857 0 0
1.50794 0 0
1.5873 0 0
1.66667 0 0
1.74603 0 0
1.8254 0 0
1.90476 0 0
1.98413 0 0
2.06349 0 0
2.14286 0 0
2.22222 0 0
2.30159 0 0
2.38095 0 0
2.46032 0 0
2.53968 0 0
2.61905 0 0
2.69841 0 0
2.77778 0 0
2.85714 0 0
2.93651 0 0
3.01587 0 0
3.09524 0 0
3.1746 0 0
3.25397 0 0
3.33333 0 0
3.4127 0 0
3.49206 0 0
3.57143 0 0
3.65079 0 0
3.73016 0 0
3.80952 0 0
3.88889 0 0
3.96825 0 0
4.04762 0 0
4.12698 0 0
4.20635 0 0
4.28571 0 0
4.36508 0 0
4.44444 0 0
4.52381 0 0
4.60317 0 0
4.68254 0 0
4.7619 0 0
4.84127 0 0
4.92063 0 0
5 0.0769231 0
5 0.153846 0
5 0.230769 0
5 0.307692 0
5 0.384615 0
5 0.461538 0
5 0.538462 0
5 0.615385 0
5 0.692308 0
5 0.769231 0
5 0.846154 0
5 0.923077 0
4.92063 1 0
4.84127 1 0
4.7619 1 0
4.68254 1 0
4.60317 1 0
4.52381 1 0
4.44444 1 0
4.36508 1 0
4.28571 1 0
4.20635 1 0
4.12698 1 0
4.04762 1 0
3.96825 1 0
3.88889 1 0
3.80952 1 0
3.73016 1 0
3.65079 1 0
3.57143 1 0
3.49206 1 0
3.4127 1 0
3.33333 1 0
3.25397 1 0
3.1746 1 0
3.09524 1 0
3.01587 1 0
2.93651 1 0
2.85714 1 0
2.77778 1 0
2.69841 1 0
2.61905 1 0
2.53968 1 0
2.46032 1 0
2.38095 1 0
2.30159 1 0
2.22222 1 0
2.14286 1 0
2.06349 1 0
1.98413 1 0
1.90476 1 0
1.8254 1 0
1.74603 1 0
1.66667 1 0
1.5873 1 0
1.50794 1 0
1.42857 1 0
1.34921 1 0
1.26984 1 0
1.19048 1 0
1.11111 1 0
1.03175 1 0
0.952381 1 0
0.873016 1 0
0.793651 1 0
0.714286 1 0
0.634921 1 0
0.555556 1 0
0.47619 1 0
0.396825 1 0
0.31746 1 0
0.238095 1 0
0.15873 1 0
0.0793651 1 0
0 0.923077 0
0 0.846154 0
0 0.769231 0
0 0.692308 0
0 0.615385 0
0 0.538462 0
0 0.461538 0
0 0.384615 0
0 0.307692 0
0 0.230769 0
0 0.153846 0
0 0.0769231 0
0.879698 0.466718 0
1.3085 0.931947 0
1.30532 0.0638546 0
4.93832 0.504275 0
0.620452 0.46964 0
3.99858 0.0669607 0
1.63721 0.934258 0
3.3751 0.0523709 0
4.3254 0.0687322 0
2.42354 0.0642082 0
2.97619 0.0687322 0
2.02101 0.0693621 0
3.68108 0.0581336 0
2.65899 0.932655 0
4.178 0.939994 0
3.21614 0.938179 0
2.25483 0.919987 0
3.53215 0.928998 0
3.84921 0.931268 0
1.69647 0.0674297 0
1.94349 0.930209 0
4.48413 0.931268 0
2.97813 0.942022 0
2.74097 0.0673855 0
0.859645 0.573263 0
0.639718 0.573116 0
0.0651563 0.652836 0
0.0635304 0.346121 0
4.56232 0.0679683 0
0.830393 0.392645 0
0.669618 0.39275 0
1.06185 0.0668897 0
0.440193 0.0680031 0
1.06474 0.93511 0
0.446074 0.935974 0
0.724697 0.630698 0
4.72268 0.931235 0
4.93065 0.267192 0
0.589836 0.936152 0
0.92338 0.0562425 0
0.590207 0.0623339 0
0.755872 0.0732784 0
0.838039 0.936714 0
4.92573 0.732039 0
0.281717 0.93783 0
0.28208 0.0811877 0
0.065248 0.503161 0
1.46076 0.0637037 0
4.72574 0.0661877 0
4.31028 0.937908 0
3.21429 0.0687322 0
1.46639 0.932632 0
3.6897 0.928155 0
2.42063 0.931268 0
3.5364 0.0691789 0
2.25998 0.0676208 0
1.78735 0.937047 0
4.01535 0.920637 0
1.85469 0.0674188 0
3.83991 0.0626292 0
3.37477 0.929368 0
2.58225 0.0657863 0
2.81746 0.932342 0
4.16667 0.0687322 0
2.11402 0.935574 0
0.0614266 0.197046 0
0.0612841 0.803003 0
4.88273 0.0644126 0
4.87774 0.933272 0
0.859645 0.426737 0
0.903081 0.436592 0
0.923672 0.473385 0
0.948706 0.439078 0
0.969155 0.479795 0
0.996593 0.439791 0
1.0202 0.484937 0
1.04667 0.440138 0
1.07382 0.489694 0
1.1034 0.440801 0
1.13169 0.49612 0
1.16603 0.445058 0
1.1931 0.504331 0
1.22956 0.450883 0
1.25923 0.506004 0
1.29683 0.453139 0
1.32923 0.510343 0
1.36603 0.454344 0
1.03276 0.530395 0
1.40063 0.516169 0
1.43576 0.454934 0
1.47042 0.520776 0
1.51069 0.46142 0
1.54422 0.526371 0
1.58547 0.465572 0
1.61942 0.531773 0
1.66033 0.468788 0
1.69546 0.536793 0
1.73713 0.472812 0
1.77239 0.541977 0
1.81532 0.478494 0
1.85006 0.547285 0
1.89327 0.483449 0
1.92802 0.55361 0
1.97142 0.488546 0
2.00623 0.558966 0
2.04984 0.493518 0
2.08483 0.564085 0
2.12847 0.498462 0
2.16353 0.569137 0
2.20719 0.503331 0
0.961579 0.391697 0
1.22451 0.565337 0
2.24238 0.574192 0
2.28611 0.508258 0
2.32134 0.579247 0
2.36519 0.513325 0
2.40036 0.584295 0
2.44425 0.51834 0
2.47944 0.589336 0
2.52334 0.523355 0
2.55853 0.594372 0
2.60245 0.52837 0
2.63764 0.599431 0
2.68159 0.533388 0
2.64637 0.462336 0
2.72553 0.467349 0
2.76076 0.538418 0
2.8047 0.47237 0
2.83993 0.543451 0
2.88387 0.477399 0
2.91911 0.548482 0
2.96305 0.482427 0
2.9983 0.553514 0
3.04224 0.487456 0
3.07749 0.558545 0
3.12143 0.492477 0
3.15668 0.563574 0
3.20063 0.497514 0
3.23588 0.568605 0
3.27983 0.502542 0
3.31508 0.573635 0
3.35903 0.507562 0
3.39428 0.578663 0
3.43823 0.5126 0
3.47348 0.583694 0
3.51744 0.517628 0
3.55268 0.588724 0
3.59664 0.522646 0
3.63189 0.593752 0
3.67585 0.527673 0
3.71109 0.598781 0
3.75505 0.532702 0
3.7903 0.60381 0
3.83426 0.537731 0
3.79901 0.466623 0
3.87821 0.471754 0
3.91346 0.542777 0
3.95742 0.476701 0
3.99267 0.547795 0
4.03662 0.481715 0
4.07187 0.552815 0
4.11582 0.486743 0
4.15106 0.55783 0
4.195 0.491782 0
4.23023 0.562843 0
4.27415 0.49682 0
4.30937 0.567866 0
4.35325 0.501915 0
4.38842 0.572845 0
4.43227 0.506997 0
4.46737 0.577575 0
4.51106 0.511995 0
4.54622 0.582183 0
1.13571 0.390292 0
4.47606 0.441361 0
4.55475 0.446396 0
2.32985 0.442214 0
3.5614 0.451571 0
3.08619 0.421408 0
2.09339 0.427815 0
1.42887 0.583001 0
2.84864 0.406329 0
3.32378 0.43649 0
4.23911 0.425894 0
1.54723 0.39251 0
1.77883 0.406811 0
1.33959 0.387065 0
3.92239 0.405803 0
4.08079 0.415776 0
2.48812 0.452349 0
1.57935 0.603183 0
1.93602 0.417543 0
1.72453 0.617973 0
3.11273 0.629643 0
2.69029 0.396284 0
3.94662 0.623383 0
1.88466 0.613248 0
2.79598 0.609502 0
4.10826 0.620575 0
2.04005 0.62838 0
2.95434 0.619575 0
4.51981 0.375801 0
4.59833 0.380943 0
4.63314 0.451296 0
4.26693 0.63114 0
2.19619 0.645921 0
4.4246 0.642296 0
3.27112 0.639707 0
2.35729 0.649822 0
2.51462 0.660373 0
3.42952 0.649769 0
4.67669 0.38601 0
3.58793 0.659829 0
3.74634 0.669888 0
4.64195 0.315733 0
4.44109 0.370647 0
4.48493 0.305066 0
4.40614 0.29989 0
4.71136 0.456133 0
4.72014 0.320758 0
0.8692 0.382093 0
0.841252 0.348256 0
0.886481 0.338703 0
0.853127 0.301457 0
0.902583 0.287335 0
0.801683 0.321689 0
0.818113 0.263019 0
0.764765 0.277091 0
4.44702 0.235678 0
0.946267 0.520761 0
0.78107 0.221265 0
0.726309 0.234724 0
0.848273 0.20551 0
4.68545 0.250576 0
4.37074 0.227561 0
4.76365 0.255792 0
4.79822 0.326145 0
0.713664 0.287231 0
0.672358 0.247957 0
0.68673 0.192342 0
0.630368 0.2085 0
0.616569 0.265341 0
0.574186 0.225456 0
0.557393 0.28131 0
0.52004 0.242373 0
0.504416 0.299685 0
0.462273 0.252096 0
0.44798 0.316739 0
0.404567 0.276951 0
0.390546 0.335414 0
0.434669 0.37657 0
0.377935 0.394545 0
0.421979 0.43426 0
0.365682 0.452846 0
0.409646 0.492216 0
0.353389 0.51089 0
0.397738 0.551598 0
0.339864 0.570301 0
0.385899 0.612153 0
0.325913 0.631557 0
0.344507 0.29318 0
0.320568 0.413067 0
0.373553 0.673852 0
0.434438 0.653082 0
0.311416 0.69481 0
0.449777 0.528305 0
0.293513 0.534612 0
0.421431 0.715204 0
0.480917 0.696603 0
0.54504 0.34471 0
0.262743 0.649913 0
0.246209 0.712341 0
0.468564 0.755948 0
0.526091 0.735423 0
0.538207 0.68039 0
0.581228 0.716342 0
0.408756 0.777952 0
0.36234 0.239019 0
0.297047 0.251925 0
0.572109 0.771575 0
0.624906 0.752173 0
0.474824 0.414151 0
0.534351 0.182707 0
0.633682 0.70159 0
0.674547 0.736174 0
0.66826 0.788959 0
0.721117 0.76834 0
0.714515 0.825486 0
0.769074 0.802008 0
0.775287 0.746591 0
0.821903 0.778625 0
0.826767 0.726064 0
0.873257 0.756032 0
0.872997 0.697261 0
0.92331 0.732304 0
0.930014 0.67838 0
0.976061 0.710612 0
0.92456 0.784469 0
0.982178 0.654421 0
1.03016 0.688004 0
1.02037 0.747059 0
1.08 0.723819 0
1.08651 0.661896 0
1.1397 0.698204 0
1.13262 0.763657 0
1.19424 0.736545 0
1.18556 0.80161 0
1.24839 0.771772 0
1.25723 0.706382 0
1.31432 0.745787 0
4.66801 0.521361 0
4.74602 0.526202 0
4.70285 0.591278 0
4.78076 0.596023 0
4.73763 0.661207 0
4.78904 0.460969 0
2.61113 0.391267 0
2.65506 0.325217 0
2.57588 0.320198 0
2.61982 0.254148 0
2.69899 0.259163 0
2.54065 0.249131 0
2.49672 0.315179 0
2.46148 0.244124 0
2.41757 0.310166 0
2.38233 0.239117 0
2.33843 0.30514 0
2.30297 0.237979 0
2.25928 0.300748 0
2.22079 0.221377 0
2.17969 0.293884 0
2.14114 0.224266 0
2.10047 0.289841 0
2.0653 0.219144 0
2.02202 0.284919 0
1.98701 0.214164 0
1.94336 0.279863 0
3.82315 0.673327 0
3.78135 0.738156 0
3.86451 0.735958 0
3.70234 0.735494 0
4.52513 0.244409 0
4.32717 0.294467 0
4.29217 0.221862 0
0.619934 0.539507 0
0.599432 0.577132 0
0.575955 0.542712 0
0.554504 0.58245 0
4.65962 0.656481 0
4.69438 0.726169 0
4.6161 0.721747 0
4.77259 0.731352 0
4.65076 0.791486 0
4.57153 0.788793 0
4.2482 0.289182 0
4.21307 0.218308 0
4.1691 0.284563 0
4.13394 0.21352 0
0.835918 0.606341 0
0.806475 0.6384 0
4.08995 0.279537 0
0.640355 0.426737 0
0.596214 0.435837 0
0.630358 0.379178 0
0.689967 0.627735 0
1.90832 0.209948 0
1.86468 0.27519 0
1.82968 0.20518 0
1.78607 0.269797 0
0.281841 0.313314 0
0.232117 0.268621 0
0.216861 0.334396 0
4.05473 0.209347 0
4.01077 0.2745 0
3.97554 0.204394 0
3.93159 0.269388 0
0.297409 0.759367 0
0.231645 0.782943 0
0.180008 0.73598 0
1.32151 0.676369 0
1.38055 0.718092 0
1.36901 0.793947 0
1.43945 0.766002 0
0.249902 0.198865 0
0.932364 0.624392 0
1.75117 0.201034 0
1.70771 0.264658 0
1.673 0.195402 0
1.62985 0.260294 0
1.59532 0.191927 0
1.55236 0.254233 0
3.89629 0.200227 0
3.85238 0.264494 0
3.81708 0.195303 0
3.77304 0.259453 0
2.66368 0.189084 0
2.74279 0.19534 0
2.77814 0.264556 0
2.82201 0.199823 0
2.85733 0.269552 0
2.90126 0.203886 0
2.93654 0.274416 0
2.98045 0.20868 0
3.01573 0.279376 0
3.0597 0.213193 0
[...]
CELL_DATA 2220
VECTORS velocity double
26.4373 -2.0952 0.0
19.5888 0.498793 0.0
25.9216 6.1157 0.0
25.3389 1.14299 0.0
26.8204 -2.46207 0.0
36.2199 -1.37111 0.0
16.4394 0.477262 0.0
18.3355 -0.0418647 0.0
29.7899 11.3281 0.0
35.7425 -0.974139 0.0
18.8431 16.6467 0.0
17.5188 0.253011 0.0
13.8629 0.186194 0.0
26.1929 -6.77785 0.0
23.6093 15.5633 0.0
21.5391 11.3111 0.0
18.7972 0.963491 0.0
15.1795 0.680173 0.0
17.2584 -0.146157 0.0
18.7723 -0.131355 0.0
21.8468 4.65884 0.0
41.8481 -6.11548 0.0
17.7122 0.7956 0.0
18.1419 0.574187 0.0
32.7957 -1.11507 0.0
24.1518 -5.68123 0.0
22.3628 -2.29239 0.0
15.4866 0.559362 0.0
24.9685 1.21116 0.0
28.1155 1.15245 0.0
26.1675 -3.30359 0.0
33.984 0.143075 0.0
12.7153 -0.126029 0.0
32.2023 -12.7226 0.0
49.794 1.65915 0.0
36.2845 -1.54014 0.0
48.5466 2.50417 0.0
14.9713 -0.135035 0.0
29.4883 1.40172 0.0
28.7449 -1.86783 0.0
13.5561 -1.23128 0.0
29.9265 10.3591 0.0
21.2172 0.949672 0.0
16.6072 -0.0258854 0.0
14.9833 -0.0942513 0.0
13.3797 -0.0217368 0.0
17.4661 0.694173 0.0
13.6229 -0.0283741 0.0
35.4838 -0.845448 0.0
38.3334 0.571455 0.0
17.3031 3.68313 0.0
13.719 0.0925834 0.0
17.1325 0.649009 0.0
17.5436 0.105111 0.0
15.6362 0.765 0.0
28.5876 -2.45398 0.0
36.2853 -0.396517 0.0
14.4453 0.577533 0.0
14.9305 0.603085 0.0
38.7015 0.43956 0.0
-0.224951 -6.67908 0.0
34.1597 -1.77896 0.0
27.9869 -4.43619 0.0
17.5806 0.636955 0.0
17.3062 0.73375 0.0
34.8072 -11.3283 0.0
19.8295 -1.14036 0.0
24.3442 10.6157 0.0
14.5589 0.707373 0.0
14.9303 0.599309 0.0
17.3702 0.156857 0.0
34.0272 11.6893 0.0
13.4431 0.151626 0.0
37.0652 1.09068 0.0
30.7814 -1.49409 0.0
50.5645 -0.304686 0.0
30.8011 4.51366 0.0
18.6184 -3.62116 0.0
28.8169 10.2376 0.0
16.3498 0.112658 0.0
23.64 2.76552 0.0
29.3446 2.73148 0.0
14.9578 -0.248885 0.0
13.3416 0.102692 0.0
16.9153 0.481722 0.0
16.8561 0.249961 0.0
23.6421 -2.46772 0.0
13.9716 0.212846 0.0
14.2226 0.385127 0.0
30.3901 11.6287 0.0
24.5066 -3.68525 0.0
18.5822 4.49509 0.0
17.4786 -0.18087 0.0
27.2529 6.26485 0.0
49.8119 0.138581 0.0
28.6073 2.00501 0.0
43.3513 4.81351 0.0
4.92344 -18.1166 0.0
0.432844 -5.05211 0.0
29.9329 13.4626 0.0
-5.31946 -18.3453 0.0
22.6879 -4.59155 0.0
17.2499 0.603237 0.0
14.1947 1.20255 0.0
43.502 -5.73924 0.0
50.0535 -0.990425 0.0
37.2603 -1.14192 0.0
37.5479 -1.42293 0.0
4.83993 -0.155646 0.0
17.081 1.28708 0.0
32.1384 1.04404 0.0
28.9603 -8.30282 0.0
37.1078 -0.955913 0.0
11.0843 -0.594263 0.0
35.8837 -2.61051 0.0
14.5729 0.516687 0.0
25.1551 -5.61319 0.0
18.7566 -0.441894 0.0
3.03825 -20.6642 0.0
31.3245 10.7353 0.0
18.2366 -2.97011 0.0
39.2816 -0.674556 0.0
14.5206 3.34096 0.0
35.8252 -8.53292 0.0
50.6918 0.810289 0.0
15.0574 -11.7207 0.0
49.2096 -1.57324 0.0
23.9218 1.06389 0.0
28.5952 -7.96569 0.0
-0.142415 9.19874 0.0
13.3651 2.22278 0.0
36.1417 4.46029 0.0
28.6774 5.77528 0.0
15.1243 10.7599 0.0
28.875 1.48177 0.0
11.6035 10.4845 0.0
12.3747 -0.00855791 0.0
19.0229 -3.63452 0.0
17.8497 -12.7212 0.0
35.2986 0.538786 0.0
21.3153 -4.71227 0.0
16.405 -0.0393674 0.0
34.9724 -3.28995 0.0
50.2085 0.453884 0.0
36.3634 1.0406 0.0
24.3743 5.50124 0.0
-8.41106 9.20823 0.0
8.42947 -18.7092 0.0
36.0501 2.69701 0.0
37.0799 -2.04286 0.0
14.3581 -0.39739 0.0
30.7818 9.61862 0.0
39.9481 -0.0181011 0.0
31.9921 -10.6796 0.0
5.97683 7.59238 0.0
18.6589 0.237656 0.0
22.7385 -1.40337 0.0
19.4562 0.396305 0.0
10.65 -0.821297 0.0
16.5703 -3.64752 0.0
33.7714 8.34517 0.0
14.605 0.00903993 0.0
-8.82449 -9.43697 0.0
34.0637 0.11535 0.0
13.3088 0.0872102 0.0
33.026 -12.2047 0.0
24.262 -14.6117 0.0
51.1002 0.379294 0.0
18.5263 0.173267 0.0
25.323 10.7665 0.0
-3.36232 15.3191 0.0
12.9692 0.0196942 0.0
17.1737 0.0735689 0.0
-0.922912 -9.49275 0.0
10.1626 -5.19485 0.0
29.1522 9.30519 0.0
28.7971 4.41286 0.0
27.6424 8.58155 0.0
8.9595 -1.81154 0.0
18.3258 0.0360052 0.0
38.5752 -0.284651 0.0
17.2673 -3.74097 0.0
17.4789 -15.5081 0.0
5.09757 14.7504 0.0
18.7253 -0.0296205 0.0
30.9625 -1.82615 0.0
49.5747 0.124229 0.0
14.6239 -0.539129 0.0
45.3515 3.74475 0.0
51.0435 0.231221 0.0
12.8289 -0.989406 0.0
14.5934 -0.20368 0.0
29.7532 -9.17145 0.0
36.4958 2.28047 0.0
23.0301 -0.452867 0.0
49.4187 -0.267333 0.0
25.5724 0.969059 0.0
16.5154 -0.815159 0.0
6.50946 -0.309669 0.0
17.1022 -0.587677 0.0
15.9104 -9.05137 0.0
22.9129 -1.44419 0.0
37.1369 -10.0731 0.0
17.4664 -0.157665 0.0
13.8065 1.41814 0.0
22.2027 -3.63929 0.0
22.7127 -4.20376 0.0
16.021 0.0103149 0.0
24.8718 1.84949 0.0
8.56372 -1.40798 0.0
17.1469 0.648955 0.0
12.0974 18.5341 0.0
24.951 -0.207386 0.0
27.3898 10.9888 0.0
31.2809 5.69424 0.0
17.304 2.81808 0.0
14.3589 0.599907 0.0
17.0442 0.862179 0.0
9.8122 1.88111 0.0
31.4679 0.891485 0.0
36.4801 0.676098 0.0
7.9811 -0.317113 0.0
14.1718 0.801223 0.0
7.61538 -0.137381 0.0
17.339 -0.115178 0.0
20.1494 -1.67792 0.0
15.3865 -2.6765 0.0
21.9765 15.9559 0.0
27.3434 -5.60191 0.0
11.7819 0.351008 0.0
21.3287 1.73116 0.0
23.0286 -1.69587 0.0
11.5954 -0.125675 0.0
17.6363 -0.342243 0.0
12.1447 -0.250473 0.0
51.0492 0.121273 0.0
8.43867 -7.27157 0.0
17.2973 -0.211074 0.0
17.1388 -0.236299 0.0
14.9361 -0.183307 0.0
49.6318 -0.19272 0.0
38.2288 9.21944 0.0
46.0466 -3.87864 0.0
8.59227 -0.00409646 0.0
13.547 8.67024 0.0
38.4193 0.0405122 0.0
18.5765 -0.469198 0.0
35.2302 -0.749575 0.0
4.20576 9.20044 0.0
21.6481 0.609936 0.0
11.6457 -9.32996 0.0
8.61455 -0.0595107 0.0
22.6826 -14.1836 0.0
35.9488 -0.204436 0.0
29.4015 -6.81922 0.0
16.9026 0.344556 0.0
-8.50725 1.70504 0.0
37.258 0.267004 0.0
22.7734 -0.0813907 0.0
50.3433 0.217364 0.0
19.512 -0.290386 0.0
40.8737 -0.432777 0.0
11.6899 0.550636 0.0
19.7625 -4.59486 0.0
8.16028 -0.676442 0.0
8.30462 -0.0652091 0.0
15.2432 -1.29076 0.0
14.9926 -4.8362 0.0
19.2599 4.62993 0.0
38.7726 -0.0331534 0.0
33.1472 1.19886 0.0
35.3626 0.00553382 0.0
14.0863 0.277526 0.0
34.5244 -2.04427 0.0
5.29972 -11.755 0.0
47.6952 -2.47274 0.0
22.0761 -14.1563 0.0
20.8375 -2.54475 0.0
15.0424 3.17188 0.0
14.2203 0.0769252 0.0
11.9084 -15.1338 0.0
26.7873 -0.0473804 0.0
47.8953 -0.524909 0.0
24.0605 1.06316 0.0
34.43 -1.81375 0.0
21.6685 -1.05131 0.0
37.714 -0.278408 0.0
23.3868 0.855736 0.0
14.7362 -0.175703 0.0
14.1631 -0.198496 0.0
-8.51259 -2.15347 0.0
15.7083 -1.37697 0.0
8.89635 1.78683 0.0
17.3747 -9.2989 0.0
18.3983 -1.86587 0.0
22.7995 -0.217871 0.0
23.1682 -0.193652 0.0
22.7339 0.337097 0.0
45.3176 -3.74026 0.0
32.4211 5.50281 0.0
12.1392 -1.31214 0.0
30.2144 8.5913 0.0
26.8061 -7.07983 0.0
7.81942 0.0598112 0.0
22.4239 -12.4195 0.0
17.8977 1.00311 0.0
13.5552 -0.223036 0.0
14.3726 -0.211668 0.0
17.0895 0.286232 0.0
8.14268 1.40933 0.0
11.9428 1.89316 0.0
12.8257 7.95653 0.0
4.96182 18.2312 0.0
47.5029 -1.39964 0.0
33.7284 11.7423 0.0
16.8006 -0.218495 0.0
28.6093 7.22462 0.0
12.271 0.00231367 0.0
50.6316 -0.259788 0.0
32.2936 6.11013 0.0
22.4216 14.1829 0.0
14.3587 3.21329 0.0
36.5366 0.298689 0.0
12.5255 0.109714 0.0
11.0418 10.9244 0.0
10.5261 -1.80139 0.0
35.3504 0.0644821 0.0
34.2399 1.32427 0.0
37.1975 0.68339 0.0
9.72503 -1.90086 0.0
24.317 -11.2316 0.0
49.3652 1.03199 0.0
22.9549 -3.97999 0.0
11.5936 -0.486022 0.0
34.1045 -10.7127 0.0
49.8426 -0.427974 0.0
26.1224 -0.856095 0.0
30.2116 8.56033 0.0
39.078 -1.04258 0.0
17.0081 -0.237688 0.0
7.58716 0.885943 0.0
15.0296 -0.235576 0.0
6.89085 -0.130415 0.0
5.96548 -0.833229 0.0
19.9086 15.7697 0.0
29.8263 9.96522 0.0
8.29125 4.46729 0.0
30.8251 7.11197 0.0
33.801 4.29852 0.0
5.16609 -0.963384 0.0
37.0734 -8.25396 0.0
4.5305 0.823596 0.0
6.85232 0.185386 0.0
17.8609 10.6329 0.0
7.74168 0.943601 0.0
51.2391 -0.0282533 0.0
37.5919 -9.29571 0.0
4.44086 -0.411278 0.0
34.3776 0.923397 0.0
33.0378 -0.996479 0.0
32.365 4.47764 0.0
7.87114 18.715 0.0
23.6912 6.23974 0.0
31.5767 5.70127 0.0
6.34809 0.261274 0.0
38.365 0.847239 0.0
42.8099 6.45584 0.0
4.73924 -0.893473 0.0
6.68889 -0.213495 0.0
41.0116 -0.856404 0.0
4.85776 0.939839 0.0
44.0457 -4.61606 0.0
37.1228 9.79084 0.0
18.5319 -0.927368 0.0
7.51532 -0.0634 0.0
13.6973 0.394196 0.0
24.2945 0.39913 0.0
24.6483 0.100718 0.0
50.7459 -0.0161038 0.0
22.8817 -0.138792 0.0
13.4213 0.627791 0.0
48.9095 0.152806 0.0
50.8641 -0.140643 0.0
37.2525 0.429439 0.0
47.0775 0.542017 0.0
34.9387 -0.167855 0.0
43.6635 -5.16244 0.0
36.6088 0.221008 0.0
24.7163 -6.28173 0.0
33.2289 3.43537 0.0
10.999 0.634728 0.0
33.2908 0.0174155 0.0
32.7081 -0.619591 0.0
27.8412 -6.16846 0.0
9.49546 -0.706083 0.0
14.8649 -2.14017 0.0
50.0866 0.204444 0.0
9.12944 0.552198 0.0
36.6948 0.197529 0.0
48.8206 0.495604 0.0
7.59226 0.215449 0.0
26.8472 4.00153 0.0
31.079 5.04371 0.0
37.3555 0.140434 0.0
41.9451 7.19592 0.0
46.2861 4.34437 0.0
5.06108 4.03023 0.0
7.90895 1.14708 0.0
23.0537 1.15472 0.0
30.6964 -12.3192 0.0
17.0254 -14.2542 0.0
5.7384 0.887937 0.0
46.043 0.0660008 0.0
31.0051 -5.97877 0.0
49.1857 -0.475653 0.0
37.3003 0.172893 0.0
4.23325 -0.131148 0.0
4.42212 0.787877 0.0
29.4441 9.29577 0.0
6.63398 0.111877 0.0
31.4531 7.03601 0.0
46.6523 0.734369 0.0
4.39343 0.00132483 0.0
6.6568 -0.0399097 0.0
31.7355 3.9538 0.0
33.4083 0.468416 0.0
4.13187 0.138877 0.0
29.372 -0.152161 0.0
36.7992 0.20298 0.0
8.30983 -1.12984 0.0
37.4223 0.143698 0.0
29.1034 3.83651 0.0
48.3489 -0.733247 0.0
33.8416 2.60569 0.0
6.99204 -0.494102 0.0
43.6924 5.29015 0.0
5.65909 -0.954518 0.0
6.80435 0.366855 0.0
22.9935 -9.93096 0.0
6.83306 0.378907 0.0
28.6997 4.82932 0.0
32.518 3.05201 0.0
43.3441 4.55852 0.0
47.3036 3.03576 0.0
11.0901 -0.86713 0.0
19.6038 3.48927 0.0
49.0327 0.460468 0.0
4.48263 -0.526115 0.0
4.08881 0.523284 0.0
13.7779 -1.96288 0.0
10.6259 0.792122 0.0
36.6816 -0.718128 0.0
7.52469 -0.33976 0.0
25.4241 0.629757 0.0
36.1216 1.60097 0.0
7.74581 0.792467 0.0
12.9479 0.582816 0.0
30.4385 6.31126 0.0
7.24421 0.307336 0.0
34.0369 1.8952 0.0
29.4982 3.00599 0.0
34.5229 0.465271 0.0
6.57743 -0.411475 0.0
5.10326 0.292104 0.0
8.39545 0.599104 0.0
24.5877 -0.8484 0.0
10.6439 -1.95261 0.0
37.5251 0.159636 0.0
4.25208 0.0766618 0.0
46.3367 2.26275 0.0
8.6233 -0.499919 0.0
4.01773 0.609287 0.0
15.8658 -1.17297 0.0
30.0027 7.69986 0.0
8.17584 -0.9013 0.0
34.6268 0.362041 0.0
32.6427 2.30727 0.0
25.1361 4.32262 0.0
36.9495 0.211294 0.0
29.7553 2.33196 0.0
17.8535 -2.35609 0.0
35.3772 -9.00357 0.0
34.4682 -3.78962 0.0
29.9261 1.77326 0.0
6.79155 -0.542475 0.0
7.24298 0.565282 0.0
49.1675 -0.129796 0.0
3.96811 0.3634 0.0
37.2387 -0.645201 0.0
18.4806 7.53374 0.0
37.1067 0.202466 0.0
4.01582 0.436833 0.0
4.51883 -0.64771 0.0
32.9293 1.69024 0.0
29.8034 9.07674 0.0
25.3494 -0.156895 0.0
33.3205 -0.884229 0.0
31.3247 0.0399438 0.0
29.1276 -0.839198 0.0
14.2003 -9.66405 0.0
32.2319 -0.0998883 0.0
27.6625 3.29273 0.0
4.38835 -0.29828 0.0
30.0569 1.31545 0.0
24.8133 7.38264 0.0
14.6448 -0.637213 0.0
36.5294 0.442791 0.0
4.50661 -0.324938 0.0
4.97484 0.330933 0.0
27.3495 4.1493 0.0
33.3308 -0.130182 0.0
31.2865 -1.0455 0.0
17.5946 -0.13305 0.0
33.3609 1.92406 0.0
37.6441 0.170238 0.0
31.6395 -4.51336 0.0
4.28892 1.61613 0.0
34.4342 0.649744 0.0
34.0177 -4.27758 0.0
28.1232 2.01335 0.0
28.7619 5.31159 0.0
8.53471 -2.78664 0.0
33.0775 -12.0118 0.0
4.86638 -5.1336 0.0
28.2555 -13.7121 0.0
33.7593 -1.14965 0.0
33.6911 4.72456 0.0
33.8626 2.36334 0.0
4.47053 -1.435 0.0
30.1704 0.969654 0.0
31.1037 3.28879 0.0
28.2519 1.54157 0.0
38.5962 0.0957185 0.0
27.9452 2.58616 0.0
33.2374 0.850544 0.0
28.0768 -0.664173 0.0
26.4501 -3.47451 0.0
8.8186 -3.99531 0.0
47.8656 -0.737966 0.0
13.9346 -0.11874 0.0
25.1057 -6.04095 0.0
6.75937 -6.87987 0.0
39.6704 8.04778 0.0
37.8699 0.126296 0.0
3.01539 -0.236357 0.0
3.09129 0.24405 0.0
33.2794 0.617452 0.0
45.859 0.797526 0.0
30.3163 0.729687 0.0
23.1053 7.63147 0.0
4.98789 -0.228234 0.0
8.25591 -0.341725 0.0
6.28453 0.80458 0.0
2.60546 2.09593 0.0
5.6411 -3.71042 0.0
32.5654 -5.57988 0.0
38.7579 0.0793303 0.0
43.4033 5.87533 0.0
0.808685 1.08995 0.0
27.2758 -0.0578417 0.0
29.2151 -0.056199 0.0
28.1236 -5.07317 0.0
22.1754 7.49717 0.0
0.940811 -1.02884 0.0
2.87394 -1.89803 0.0
24.6189 0.369056 0.0
22.0503 0.807867 0.0
28.4195 1.15847 0.0
19.0501 -3.48883 0.0
33.3108 -0.0782705 0.0
50.9339 -0.245675 0.0
34.5693 -0.0728859 0.0
26.0679 5.94452 0.0
37.3843 0.107737 0.0
4.03077 -0.237896 0.0
30.7999 7.67364 0.0
37.0316 0.405283 0.0
34.747 0.319785 0.0
36.6425 -0.0891178 0.0
31.5262 -3.15029 0.0
3.86789 0.165527 0.0
37.1352 -0.394092 0.0
5.62949 -1.00762 0.0
14.141 1.46019 0.0
23.4356 -0.594115 0.0
30.4477 0.582333 0.0
28.5481 0.868575 0.0
35.3146 1.46588 0.0
36.3593 1.14273 0.0
35.3488 1.71041 0.0
3.96377 0.254256 0.0
7.63903 0.44798 0.0
6.40798 -0.674018 0.0
37.6866 -0.0327614 0.0
33.5504 0.390198 0.0
47.7555 0.513612 0.0
5.48912 1.14525 0.0
34.0324 0.0451723 0.0
31.8651 3.63902 0.0
10.4965 7.55584 0.0
34.1685 -0.0602691 0.0
2.52771 0.663487 0.0
32.8081 -0.0958789 0.0
32.4273 -1.18733 0.0
32.8152 -0.6293 0.0
24.4763 -0.252911 0.0
22.4952 -0.241537 0.0
32.4128 -0.138606 0.0
7.11377 -0.724265 0.0
49.5066 -1.16352 0.0
37.1137 -0.392541 0.0
35.4546 -0.155269 0.0
34.9193 0.309924 0.0
30.6306 0.495766 0.0
16.6202 -0.0118385 0.0
33.7108 0.360661 0.0
36.2515 -2.63806 0.0
37.4536 0.0536392 0.0
8.13148 0.357912 0.0
29.2666 5.03929 0.0
2.69579 -0.6146 0.0
37.584 0.480403 0.0
38.0326 0.184669 0.0
30.8459 0.452476 0.0
1.78825 0.904631 0.0
32.7502 -10.9976 0.0
37.9232 0.0807392 0.0
36.1223 1.28682 0.0
33.7802 -0.0998979 0.0
35.1724 -0.503521 0.0
35.1328 0.304581 0.0
37.6105 -0.0402266 0.0
37.4407 0.167483 0.0
37.7681 0.159895 0.0
31.142 0.436735 0.0
3.50554 0.349161 0.0
12.3325 1.06479 0.0
36.3299 -0.948527 0.0
25.0798 9.0285 0.0
1.93077 -0.838697 0.0
7.01191 -0.446969 0.0
27.9675 -12.385 0.0
31.7325 3.41213 0.0
33.9436 0.353955 0.0
13.2552 -0.859038 0.0
35.2725 -0.187026 0.0
36.1801 -0.152535 0.0
21.1822 8.63144 0.0
6.77643 0.58127 0.0
3.22409 -0.42282 0.0
35.5201 -3.20857 0.0
26.0685 5.10881 0.0
32.6402 -3.07753 0.0
37.8728 0.329647 0.0
11.7884 -1.64421 0.0
34.1995 0.334591 0.0
28.6958 0.688723 0.0
37.4917 -0.0540533 0.0
3.06769 0.475832 0.0
35.3695 0.273399 0.0
37.4845 0.00115382 0.0
3.90682 -0.191903 0.0
31.4853 0.40644 0.0
37.2648 0.164751 0.0
38.2477 0.448125 0.0
35.8576 0.116063 0.0
35.97 -0.205878 0.0
37.9341 0.0323715 0.0
30.9458 -0.845305 0.0
35.9168 -0.0753151 0.0
35.648 0.200848 0.0
35.0359 0.0754591 0.0
35.0544 -0.233446 0.0
3.61335 -0.282462 0.0
35.9859 0.283635 0.0
34.8542 -0.266125 0.0
4.91514 0.245401 0.0
37.9174 -0.0204089 0.0
7.79665 0.4816 0.0
34.5019 0.264922 0.0
35.7839 -0.246574 0.0
38.2721 0.297917 0.0
36.7792 -0.0492818 0.0
36.0121 0.0470266 0.0
37.9486 0.163829 0.0
16.4402 0.184126 0.0
32.3805 0.167542 0.0
29.9317 1.59703 0.0
31.7604 0.304559 0.0
3.55843 -0.0592527 0.0
37.0857 -0.0102823 0.0
34.8059 0.160045 0.0
27.7245 -5.56047 0.0
3.63628 -0.265626 0.0
29.1185 0.507894 0.0
3.55292 0.190176 0.0
25.7656 -5.08821 0.0
31.2294 1.85048 0.0
29.4162 0.475722 0.0
33.4455 -0.1516 0.0
34.6651 -0.27754 0.0
29.8211 0.458789 0.0
36.2008 -0.0662436 0.0
38.1448 9.50613 0.0
26.102 -6.32709 0.0
35.2341 -0.078197 0.0
38.0694 0.496638 0.0
37.8602 0.523832 0.0
38.2051 0.26775 0.0
35.6122 -0.26902 0.0
38.4618 0.335024 0.0
30.4282 -0.136399 0.0
38.4282 0.359081 0.0
34.2855 -0.173565 0.0
32.6548 0.0710629 0.0
15.42 0.327524 0.0
36.2159 -0.220986 0.0
38.4185 0.297371 0.0
27.9072 -0.687512 0.0
38.1239 0.427485 0.0
35.4526 -0.265374 0.0
34.4906 -0.257401 0.0
3.7744 0.257741 0.0
35.2061 0.0112994 0.0
28.8926 0.578712 0.0
38.6182 0.312482 0.0
26.2018 -0.460641 0.0
8.51102 0.219105 0.0
32.9173 0.000199466 0.0
38.1563 0.324274 0.0
30.6038 0.232991 0.0
29.8724 -0.139833 0.0
34.3315 -0.199613 0.0
38.1505 0.19052 0.0
35.3101 -0.228763 0.0
31.1484 0.11537 0.0
18.83 6.14282 0.0
37.8877 -0.077933 0.0
38.5922 0.268384 0.0
36.8826 0.939534 0.0
15.0759 -0.079895 0.0
35.3365 -0.0452038 0.0
28.5544 -0.158075 0.0
4.48374 0.130296 0.0
7.91384 0.260023 0.0
35.1735 -0.162032 0.0
37.374 0.211713 0.0
32.6431 -0.277268 0.0
34.1716 -0.117333 0.0
38.4738 0.251166 0.0
33.1517 -0.201021 0.0
33.1322 -0.0586663 0.0
33.9701 -0.0333844 0.0
29.0831 -0.194718 0.0
32.0742 -0.184233 0.0
38.7311 0.23332 0.0
29.438 -0.162732 0.0
37.7547 0.132311 0.0
32.3907 -0.291392 0.0
33.6856 -0.236634 0.0
31.774 -0.228002 0.0
28.7362 -0.231902 0.0
37.4459 0.147235 0.0
35.0177 -0.0825766 0.0
5.49738 0.145733 0.0
8.64884 0.211791 0.0
38.4637 0.107393 0.0
38.0841 0.0422571 0.0
30.0759 0.409988 0.0
31.5103 -0.00761931 0.0
31.7522 -0.0360123 0.0
38.3491 0.425687 0.0
33.6862 0.0313137 0.0
37.0994 0.811072 0.0
36.1219 -0.0106506 0.0
28.4092 -0.268568 0.0
30.9536 -0.29509 0.0
31.4617 0.0289221 0.0
34.81 -0.0117145 0.0
38.7038 0.17414 0.0
37.488 -0.110951 0.0
31.5004 -0.266145 0.0
30.4632 8.58493 0.0
27.1833 -0.213017 0.0
31.2273 -0.293083 0.0
28.1097 -0.301051 0.0
34.4594 1.76384 0.0
33.3304 0.0566119 0.0
34.5361 0.0299796 0.0
32.1702 -0.26958 0.0
27.5677 -0.18179 0.0
30.2774 -0.0418755 0.0
38.0041 0.23915 0.0
27.7796 -0.309764 0.0
30.7196 -0.243968 0.0
32.9775 0.0321989 0.0
17.3236 0.12983 0.0
36.6745 0.0135176 0.0
27.4089 -0.248471 0.0
14.9984 0.0852538 0.0
26.8292 -0.248057 0.0
34.2313 0.0277499 0.0
27.2112 -0.130113 0.0
30.5002 -0.148984 0.0
27.987 -0.163835 0.0
3.94384 -0.0517022 0.0
7.45579 -0.0939963 0.0
17.3076 0.200847 0.0
32.7454 -0.249078 0.0
31.7658 -0.104265 0.0
32.6871 -0.0223882 0.0
33.9525 -0.0139205 0.0
26.9348 -0.0116883 0.0
8.36739 0.0868457 0.0
38.1671 0.182631 0.0
7.68789 -0.105255 0.0
38.7758 0.0949649 0.0
32.4922 -0.0763345 0.0
26.4911 -0.284103 0.0
31.1308 0.0673972 0.0
26.0815 -0.314825 0.0
38.729 0.00984382 0.0
30.6432 0.101982 0.0
4.09336 -0.0545888 0.0
7.57481 -0.105508 0.0
31.9691 -0.200575 0.0
4.367 0.0546657 0.0
33.74 -0.0728748 0.0
25.7239 -0.290964 0.0
25.4317 -0.180345 0.0
29.9402 0.0490738 0.0
33.3615 -0.150742 0.0
38.2193 0.0144953 0.0
30.1922 0.0796712 0.0
29.8187 0.0191202 0.0
7.6531 -0.0917524 0.0
4.2593 -0.0544839 0.0
14.2946 0.163402 0.0
25.1732 -0.0480133 0.0
29.4116 0.111458 0.0
32.8883 -0.244278 0.0
28.8469 0.124827 0.0
34.5283 -0.0861138 0.0
14.6703 0.186833 0.0
28.3818 0.0714174 0.0
33.6368 -0.11593 0.0
29.5444 -0.0296599 0.0
7.64277 0.0959626 0.0
3.85003 -0.0368904 0.0
3.23515 -0.0531928 0.0
4.15436 -0.049155 0.0
7.56409 -0.0313869 0.0
8.04073 0.112229 0.0
3.50592 -0.0144587 0.0
3.96801 -0.000932879 0.0
7.41258 -0.0886383 0.0
3.85578 -0.0327121 0.0
4.17145 -0.0299491 0.0
4.40136 0.0897725 0.0
8.24806 -0.0934661 0.0
4.29242 0.0523865 0.0
7.32615 -0.0651373 0.0
4.11007 0.0514113 0.0
7.78149 -0.0509449 0.0
7.52732 -0.0776714 0.0
4.01378 0.110587 0.0
8.32891 0.132228 0.0
7.40242 -0.0723064 0.0
7.25969 -0.0825381 0.0
4.1085 0.18185 0.0
7.00753 -0.0479482 0.0
7.52892 0.129238 0.0
3.76571 -0.0418944 0.0
7.32749 -0.042518 0.0
4.29699 -0.0051593 0.0
3.80717 0.0601521 0.0
7.11502 -0.107104 0.0
4.11697 0.137999 0.0
4.94762 0.0709325 0.0
4.12267 0.23085 0.0
3.48578 0.0531402 0.0
3.75721 -0.00974311 0.0
7.39845 0.0192717 0.0
3.96863 -0.0508128 0.0
4.07739 -0.0541085 0.0
4.20738 0.157811 0.0
4.23031 0.169288 0.0
4.11915 -0.0240822 0.0
4.0791 0.0371463 0.0
3.46483 -0.0533707 0.0
3.91765 -0.0316638 0.0
4.84977 -0.00938666 0.0
8.27824 -0.0238939 0.0
4.16428 -0.123054 0.0
4.97985 0.0453055 0.0
7.02157 0.108 0.0
6.92068 -0.117246 0.0
3.87292 -0.0450746 0.0
4.2635 0.147942 0.0
3.90688 0.0304734 0.0
7.72943 -0.0245618 0.0
3.71948 0.0719393 0.0
4.12162 0.0519367 0.0
3.84849 -0.0486647 0.0
7.79955 0.316009 0.0
4.74882 -0.0610527 0.0
3.36332 0.0023189 0.0
3.83395 0.00375383 0.0
3.27439 0.0324417 0.0
4.20971 0.0522389 0.0
4.26496 -0.0196039 0.0
6.45151 -0.0504782 0.0
2.91729 -0.0191133 0.0
7.61793 0.283302 0.0
7.87751 0.089766 0.0
33.0286 -0.133049 0.0
32.4529 -0.0913737 0.0
36.2588 -0.121129 0.0
28.0231 0.00932781 0.0
38.3975 -0.219206 0.0
38.3831 -0.0418874 0.0
27.6837 -0.00729628 0.0
38.4633 -0.219182 0.0
38.656 -0.150751 0.0
38.5267 -0.221984 0.0
38.7316 -0.0678604 0.0
29.4211 -0.0209313 0.0
32.5709 -0.0797113 0.0
38.6111 -0.182667 0.0
31.6116 -0.123037 0.0
38.2982 -0.17759 0.0
33.6843 -0.122266 0.0
38.2168 -0.155025 0.0
35.7246 -0.173624 0.0
36.4512 -0.199387 0.0
24.0404 0.0600422 0.0
38.1042 -0.231875 0.0
37.8015 -0.100928 0.0
36.5449 -0.172047 0.0
38.2078 -0.167731 0.0
26.9432 -0.0928884 0.0
35.4344 -0.100223 0.0