# vtk DataFile Version 3.0
Malha 2D com triângulos e temperatura
ASCII
DATASET UNSTRUCTURED_GRID

POINTS 1194 double
0 0 0
5 0 0
5 1 0
0 1 0
0.85 0.5 0
0.842388 0.538268 0
0.820711 0.570711 0
0.788268 0.592388 0
0.75 0.6 0
0.711732 0.592388 0
0.679289 0.570711 0
0.657612 0.538268 0
0.65 0.5 0
0.657612 0.461732 0
0.679289 0.429289 0
0.711732 0.407612 0
0.75 0.4 0
0.788268 0.407612 0
0.820711 0.429289 0
0.842388 0.461732 0
0.0793651 0 0
0.15873 0 0
0.238095 0 0
0.31746 0 0
0.396825 0 0
0.47619 0 0
0.555556 0 0
0.634921 0 0
0.714286 0 0
0.793651 0 0
0.873016 0 0
0.952381 0 0
1.03175 0 0
1.11111 0 0
1.19048 0 0
1.26984 0 0
1.34921 0 0
1.42857 0 0
1.50794 0 0
1.5873 0 0
1.66667 0 0
1.74603 0 0
1.8254 0 0
1.90476 0 0
1.98413 0 0
2.06349 0 0
2.14286 0 0
2.22222 0 0
2.30159 0 0
2.38095 0 0
2.46032 0 0
2.53968 0 0
2.61905 0 0
2.69841 0 0
2.77778 0 0
2.85714 0 0
2.93651 0 0
3.01587 0 0
3.09524 0 0
3.1746 0 0
3.25397 0 0
3.33333 0 0
3.4127 0 0
3.49206 0 0
3.57143 0 0
3.65079 0 0
3.73016 0 0
3.80952 0 0
3.88889 0 0
3.96825 0 0
4.04762 0 0
4.12698 0 0
4.20635 0 0
4.28571 0 0
4.36508 0 0
4.44444 0 0
4.52381 0 0
4.60317 0 0
4.68254 0 0
4.7619 0 0
4.84127 0 0
4.92063 0 0
5 0.0769231 0
5 0.153846 0
5 0.230769 0
5 0.307692 0
5 0.384615 0
5 0.461538 0
5 0.538462 0
5 0.615385 0
5 0.692308 0
5 0.769231 0
5 0.846154 0
5 0.923077 0
4.92063 1 0
4.84127 1 0
4.7619 1 0
4.68254 1 0
4.60317 1 0
4.52381 1 0
4.44444 1 0
4.36508 1 0
4.28571 1 0
4.20635 1 0
4.12698 1 0
4.04762 1 0
3.96825 1 0
3.88889 1 0
3.80952 1 0
3.73016 1 0
3.65079 1 0
3.57143 1 0
3.49206 1 0
3.4127 1 0
3.33333 1 0
3.25397 1 0
3.1746 1 0
3.09524 1 0
3.01587 1 0
2.93651 1 0
2.85714 1 0
2.77778 1 0
2.69841 1 0
2.61905 1 0
2.53968 1 0
2.46032 1 0
2.38095 1 0
2.30159 1 0
2.22222 1 0
2.14286 1 0
2.06349 1 0
1.98413 1 0
1.90476 1 0
1.8254 1 0
1.74603 1 0
1.66667 1 0
1.5873 1 0
1.50794 1 0
1.42857 1 0
1.34921 1 0
1.26984 1 0
1.19048 1 0
1.11111 1 0
1.03175 1 0
0.952381 1 0
0.873016 1 0
0.793651 1 0
0.714286 1 0
0.634921 1 0
0.555556 1 0
0.47619 1 0
0.396825 1 0
0.31746 1 0
0.238095 1 0
0.15873 1 0
0.0793651 1 0
0 0.923077 0
0 0.846154 0
0 0.769231 0
0 0.692308 0
0 0.615385 0
0 0.538462 0
0 0.461538 0
0 0.384615 0
0 0.307692 0
0 0.230769 0
0 0.153846 0
0 0.0769231 0
0.879698 0.466718 0
1.3085 0.931947 0
1.30532 0.0638546 0
4.93832 0.504275 0
0.620452 0.46964 0
3.99858 0.0669607 0
1.63721 0.934258 0
3.3751 0.0523709 0
4.3254 0.0687322 0
2.42354 0.0642082 0
2.97619 0.0687322 0
2.02101 0.0693621 0
3.68108 0.0581336 0
2.65899 0.932655 0
4.178 0.939994 0
3.21614 0.938179 0
2.25483 0.919987 0
3.53215 0.928998 0
3.84921 0.931268 0
1.69647 0.0674297 0
1.94349 0.930209 0
4.48413 0.931268 0
2.97813 0.942022 0
2.74097 0.0673855 0
0.859645 0.573263 0
0.639718 0.573116 0
0.0651563 0.652836 0
0.0635304 0.346121 0
4.56232 0.0679683 0
0.830393 0.392645 0
0.669618 0.39275 0
1.06185 0.0668897 0
0.440193 0.0680031 0
1.06474 0.93511 0
0.446074 0.935974 0
0.724697 0.630698 0
4.72268 0.931235 0
4.93065 0.267192 0
0.589836 0.936152 0
0.92338 0.0562425 0
0.590207 0.0623339 0
0.755872 0.0732784 0
0.838039 0.936714 0
4.92573 0.732039 0
0.281717 0.93783 0
0.28208 0.0811877 0
0.065248 0.503161 0
1.46076 0.0637037 0
4.72574 0.0661877 0
4.31028 0.937908 0
3.21429 0.0687322 0
1.46639 0.932632 0
3.6897 0.928155 0
2.42063 0.931268 0
3.5364 0.0691789 0
2.25998 0.0676208 0
1.78735 0.937047 0
4.01535 0.920637 0
1.85469 0.0674188 0
3.83991 0.0626292 0
3.37477 0.929368 0
2.58225 0.0657863 0
2.81746 0.932342 0
4.16667 0.0687322 0
2.11402 0.935574 0
0.0614266 0.197046 0
0.0612841 0.803003 0
4.88273 0.0644126 0
4.87774 0.933272 0
0.859645 0.426737 0
0.903081 0.436592 0
0.923672 0.473385 0
0.948706 0.439078 0
0.969155 0.479795 0
0.996593 0.439791 0
1.0202 0.484937 0
1.04667 0.440138 0
1.07382 0.489694 0
1.1034 0.440801 0
1.13169 0.49612 0
1.16603 0.445058 0
1.1931 0.504331 0
1.22956 0.450883 0
1.25923 0.506004 0
1.29683 0.453139 0
1.32923 0.510343 0
1.36603 0.454344 0
1.03276 0.530395 0
1.40063 0.516169 0
1.43576 0.454934 0
1.47042 0.520776 0
1.51069 0.46142 0
1.54422 0.526371 0
1.58547 0.465572 0
1.61942 0.531773 0
1.66033 0.468788 0
1.69546 0.536793 0
1.73713 0.472812 0
1.77239 0.541977 0
1.81532 0.478494 0
1.85006 0.547285 0
1.89327 0.483449 0
1.92802 0.55361 0
1.97142 0.488546 0
2.00623 0.558966 0
2.04984 0.493518 0
2.08483 0.564085 0
2.12847 0.498462 0
2.16353 0.569137 0
2.20719 0.503331 0
0.961579 0.391697 0
1.22451 0.565337 0
2.24238 0.574192 0
2.28611 0.508258 0
2.32134 0.579247 0
2.36519 0.513325 0
2.40036 0.584295 0
2.44425 0.51834 0
2.47944 0.589336 0
2.52334 0.523355 0
2.55853 0.594372 0
2.60245 0.52837 0
2.63764 0.599431 0
2.68159 0.533388 0
2.64637 0.462336 0
2.72553 0.467349 0
2.76076 0.538418 0
2.8047 0.47237 0
2.83993 0.543451 0
2.88387 0.477399 0
2.91911 0.548482 0
2.96305 0.482427 0
2.9983 0.553514 0
3.04224 0.487456 0
3.07749 0.558545 0
3.12143 0.492477 0
3.15668 0.563574 0
3.20063 0.497514 0
3.23588 0.568605 0
3.27983 0.502542 0
3.31508 0.573635 0
3.35903 0.507562 0
3.39428 0.578663 0
3.43823 0.5126 0
3.47348 0.583694 0
3.51744 0.517628 0
3.55268 0.588724 0
3.59664 0.522646 0
3.63189 0.593752 0
3.67585 0.527673 0
3.71109 0.598781 0
3.75505 0.532702 0
3.7903 0.60381 0
3.83426 0.537731 0
3.79901 0.466623 0
3.87821 0.471754 0
3.91346 0.542777 0
3.95742 0.476701 0
3.99267 0.547795 0
4.03662 0.481715 0
4.07187 0.552815 0
4.11582 0.486743 0
4.15106 0.55783 0
4.195 0.491782 0
4.23023 0.562843 0
4.27415 0.49682 0
4.30937 0.567866 0
4.35325 0.501915 0
4.38842 0.572845 0
4.43227 0.506997 0
4.46737 0.577575 0
4.51106 0.511995 0
4.54622 0.582183 0
1.13571 0.390292 0
4.47606 0.441361 0
4.55475 0.446396 0
2.32985 0.442214 0
3.5614 0.451571 0
3.08619 0.421408 0
2.09339 0.427815 0
1.42887 0.583001 0
2.84864 0.406329 0
3.32378 0.43649 0
4.23911 0.425894 0
1.54723 0.39251 0
1.77883 0.406811 0
1.33959 0.387065 0
3.92239 0.405803 0
4.08079 0.415776 0
2.48812 0.452349 0
1.57935 0.603183 0
1.93602 0.417543 0
1.72453 0.617973 0
3.11273 0.629643 0
2.69029 0.396284 0
3.94662 0.623383 0
1.88466 0.613248 0
2.79598 0.609502 0
4.10826 0.620575 0
2.04005 0.62838 0
2.95434 0.619575 0
4.51981 0.375801 0
4.59833 0.380943 0
4.63314 0.451296 0
4.26693 0.63114 0
2.19619 0.645921 0
4.4246 0.642296 0
3.27112 0.639707 0
2.35729 0.649822 0
2.51462 0.660373 0
3.42952 0.649769 0
4.67669 0.38601 0
3.58793 0.659829 0
3.74634 0.669888 0
4.64195 0.315733 0
4.44109 0.370647 0
4.48493 0.305066 0
4.40614 0.29989 0
4.71136 0.456133 0
4.72014 0.320758 0
0.8692 0.382093 0
0.841252 0.348256 0
0.886481 0.338703 0
0.853127 0.301457 0
0.902583 0.287335 0
0.801683 0.321689 0
0.818113 0.263019 0
0.764765 0.277091 0
4.44702 0.235678 0
0.946267 0.520761 0
0.78107 0.221265 0
0.726309 0.234724 0
0.848273 0.20551 0
4.68545 0.250576 0
4.37074 0.227561 0
4.76365 0.255792 0
4.79822 0.326145 0
0.713664 0.287231 0
0.672358 0.247957 0
0.68673 0.192342 0
0.630368 0.2085 0
0.616569 0.265341 0
0.574186 0.225456 0
0.557393 0.28131 0
0.52004 0.242373 0
0.504416 0.299685 0
0.462273 0.252096 0
0.44798 0.316739 0
0.404567 0.276951 0
0.390546 0.335414 0
0.434669 0.37657 0
0.377935 0.394545 0
0.421979 0.43426 0
0.365682 0.452846 0
0.409646 0.492216 0
0.353389 0.51089 0
0.397738 0.551598 0
0.339864 0.570301 0
0.385899 0.612153 0
0.325913 0.631557 0
0.344507 0.29318 0
0.320568 0.413067 0
0.373553 0.673852 0
0.434438 0.653082 0
0.311416 0.69481 0
0.449777 0.528305 0
0.293513 0.534612 0
0.421431 0.715204 0
0.480917 0.696603 0
0.54504 0.34471 0
0.262743 0.649913 0
0.246209 0.712341 0
0.468564 0.755948 0
0.526091 0.735423 0
0.538207 0.68039 0
0.581228 0.716342 0
0.408756 0.777952 0
0.36234 0.239019 0
0.297047 0.251925 0
0.572109 0.771575 0
0.624906 0.752173 0
0.474824 0.414151 0
0.534351 0.182707 0
0.633682 0.70159 0
0.674547 0.736174 0
0.66826 0.788959 0
0.721117 0.76834 0
0.714515 0.825486 0
0.769074 0.802008 0
0.775287 0.746591 0
0.821903 0.778625 0
0.826767 0.726064 0
0.873257 0.756032 0
0.872997 0.697261 0
0.92331 0.732304 0
0.930014 0.67838 0
0.976061 0.710612 0
0.92456 0.784469 0
0.982178 0.654421 0
1.03016 0.688004 0
1.02037 0.747059 0
1.08 0.723819 0
1.08651 0.661896 0
1.1397 0.698204 0
1.13262 0.763657 0
1.19424 0.736545 0
1.18556 0.80161 0
1.24839 0.771772 0
1.25723 0.706382 0
1.31432 0.745787 0
4.66801 0.521361 0
4.74602 0.526202 0
4.70285 0.591278 0
4.78076 0.596023 0
4.73763 0.661207 0
4.78904 0.460969 0
2.61113 0.391267 0
2.65506 0.325217 0
2.57588 0.320198 0
2.61982 0.254148 0
2.69899 0.259163 0
2.54065 0.249131 0
2.49672 0.315179 0
2.46148 0.244124 0
2.41757 0.310166 0
2.38233 0.239117 0
2.33843 0.30514 0
2.30297 0.237979 0
2.25928 0.300748 0
2.22079 0.221377 0
2.17969 0.293884 0
2.14114 0.224266 0
2.10047 0.289841 0
2.0653 0.219144 0
2.02202 0.284919 0
1.98701 0.214164 0
1.94336 0.279863 0
3.82315 0.673327 0
3.78135 0.738156 0
3.86451 0.735958 0
3.70234 0.735494 0
4.52513 0.244409 0
4.32717 0.294467 0
4.29217 0.221862 0
0.619934 0.539507 0
0.599432 0.577132 0
0.575955 0.542712 0
0.554504 0.58245 0
4.65962 0.656481 0
4.69438 0.726169 0
4.6161 0.721747 0
4.77259 0.731352 0
4.65076 0.791486 0
4.57153 0.788793 0
4.2482 0.289182 0
4.21307 0.218308 0
4.1691 0.284563 0
4.13394 0.21352 0
0.835918 0.606341 0
0.806475 0.6384 0
4.08995 0.279537 0
0.640355 0.426737 0
0.596214 0.435837 0
0.630358 0.379178 0
0.689967 0.627735 0
1.90832 0.209948 0
1.86468 0.27519 0
1.82968 0.20518 0
1.78607 0.269797 0
0.281841 0.313314 0
0.232117 0.268621 0
0.216861 0.334396 0
4.05473 0.209347 0
4.01077 0.2745 0
3.97554 0.204394 0
3.93159 0.269388 0
0.297409 0.759367 0
0.231645 0.782943 0
0.180008 0.73598 0
1.32151 0.676369 0
1.38055 0.718092 0
1.36901 0.793947 0
1.43945 0.766002 0
0.249902 0.198865 0
0.932364 0.624392 0
1.75117 0.201034 0
1.70771 0.264658 0
1.673 0.195402 0
1.62985 0.260294 0
1.59532 0.191927 0
1.55236 0.254233 0
3.89629 0.200227 0
3.85238 0.264494 0
3.81708 0.195303 0
3.77304 0.259453 0
2.66368 0.189084 0
2.74279 0.19534 0
2.77814 0.264556 0
2.82201 0.199823 0
2.85733 0.269552 0
2.90126 0.203886 0
2.93654 0.274416 0
2.98045 0.20868 0
3.01573 0.279376 0
3.0597 0.213193 0
[...]
CELL_DATA 2220
VECTORS velocity double
40.2418 -1.85028 0.0
28.9817 0.784014 0.0
32.2364 0.677892 0.0
24.9414 2.55862 0.0
40.8785 -2.0582 0.0
54.6425 -1.53424 0.0
24.4631 0.74713 0.0
27.2267 -0.0611297 0.0
42.7116 2.8678 0.0
53.5082 -1.18233 0.0
25.1411 0.439226 0.0
25.9485 0.372418 0.0
20.5782 0.279322 0.0
37.5762 -2.49186 0.0
27.679 -0.346912 0.0
38.4929 3.22967 0.0
27.4741 1.6685 0.0
22.398 1.10043 0.0
25.4206 -0.239998 0.0
27.5372 -0.22022 0.0
26.9799 0.442889 0.0
34.0075 3.98351 0.0
25.9886 1.30966 0.0
26.937 0.880922 0.0
54.0543 -0.629457 0.0
35.1091 -2.34162 0.0
24.7136 1.27924 0.0
23.1211 0.854825 0.0
24.5032 2.4182 0.0
26.9992 1.78302 0.0
46.767 -1.39859 0.0
33.5846 3.35074 0.0
18.767 -0.205896 0.0
34.6667 1.38185 0.0
41.1869 -4.02978 0.0
54.9502 -1.63247 0.0
39.9851 -4.40249 0.0
22.145 -0.224657 0.0
28.6954 2.7785 0.0
30.1725 2.22672 0.0
15.0099 0.71688 0.0
43.0649 3.11509 0.0
21.0436 2.20079 0.0
24.5062 -0.0747496 0.0
22.5217 -0.103087 0.0
19.8162 -0.0658768 0.0
25.7052 1.09499 0.0
20.2797 -0.0393998 0.0
52.9782 -1.06656 0.0
58.5935 0.415361 0.0
21.9916 0.628397 0.0
20.3293 0.143711 0.0
25.6084 0.947984 0.0
25.8851 0.160969 0.0
22.993 1.30089 0.0
30.5979 2.01566 0.0
35.8678 3.51712 0.0
21.7333 0.838771 0.0
22.0907 0.938903 0.0
59.38 0.256988 0.0
-0.421845 -10.3948 0.0
55.3732 -1.07152 0.0
48.3413 -2.03133 0.0
26.1869 0.954782 0.0
26.0641 0.989367 0.0
38.2053 1.34636 0.0
19.5061 -2.00628 0.0
41.536 3.40058 0.0
22.0631 0.945862 0.0
22.363 0.895032 0.0
25.676 0.240155 0.0
35.9109 -1.81244 0.0
19.9564 0.233351 0.0
56.598 0.977762 0.0
14.6324 0.431058 0.0
43.5089 2.99074 0.0
51.2772 2.32225 0.0
27.548 -1.86129 0.0
44.9198 3.64863 0.0
24.1376 0.152345 0.0
25.9685 -1.13517 0.0
31.0822 -1.93073 0.0
14.4064 -0.308237 0.0
19.8058 0.141698 0.0
24.9682 0.71306 0.0
24.9058 0.353871 0.0
36.08 -1.97595 0.0
20.7611 0.303569 0.0
21.1152 0.56707 0.0
41.9012 2.36169 0.0
7.67424 0.527474 0.0
26.3042 1.99195 0.0
25.744 -0.294777 0.0
40.9791 3.33364 0.0
44.018 3.17599 0.0
29.8106 -2.05285 0.0
33.3752 -4.17046 0.0
15.1282 -1.06436 0.0
0.320535 -7.71793 0.0
34.0071 -0.768908 0.0
7.87908 -0.806641 0.0
33.8343 -2.31894 0.0
25.4285 0.918945 0.0
21.7172 1.27749 0.0
37.774 4.2756 0.0
42.4185 3.46857 0.0
56.0817 -1.33562 0.0
58.7303 -1.15434 0.0
7.24075 -0.274443 0.0
25.9978 1.40017 0.0
30.635 1.78048 0.0
39.6301 -1.98447 0.0
55.651 -1.16005 0.0
10.9677 -1.02294 0.0
56.7501 -1.79355 0.0
21.5948 0.780399 0.0
37.191 -2.57882 0.0
18.0174 -0.576293 0.0
7.7486 -0.0374603 0.0
41.2442 1.72719 0.0
27.4279 -1.88021 0.0
36.667 -1.39887 0.0
20.2464 1.38935 0.0
26.9753 3.35729 0.0
43.2932 -4.03489 0.0
31.9329 -2.72731 0.0
40.166 3.18866 0.0
23.0607 1.52714 0.0
41.8171 -2.91022 0.0
18.9108 1.65001 0.0
18.7872 3.97821 0.0
21.7501 -2.11624 0.0
13.0335 -1.39418 0.0
17.1797 21.1253 0.0
28.0764 2.66018 0.0
12.4548 18.9934 0.0
18.2986 -0.0237384 0.0
24.0143 -0.203192 0.0
33.5238 -2.80609 0.0
34.53 3.50185 0.0
27.7594 -0.792593 0.0
24.2012 -0.0723776 0.0
55.5691 -2.13098 0.0
44.3688 -4.50201 0.0
55.3455 0.98214 0.0
36.235 2.9516 0.0
11.0931 1.07519 0.0
15.2718 -0.543147 0.0
56.1181 2.02887 0.0
57.9099 -1.59771 0.0
21.6798 -0.407605 0.0
40.2748 1.71397 0.0
37.1007 -0.0411497 0.0
24.548 3.03944 0.0
6.36355 12.2347 0.0
27.5821 0.409601 0.0
22.2696 -2.32932 0.0
28.8081 0.637078 0.0
10.511 -1.04956 0.0
23.2943 -1.36303 0.0
22.7343 -3.20287 0.0
21.6221 -0.0074581 0.0
10.4696 -1.05723 0.0
33.5883 -3.28814 0.0
19.7287 0.137104 0.0
32.918 2.17465 0.0
34.7129 -1.86094 0.0
41.559 -1.29733 0.0
27.4016 0.314002 0.0
13.1477 -2.06897 0.0
11.8297 1.39056 0.0
19.3533 0.0326995 0.0
25.3401 0.113381 0.0
17.9221 -1.59418 0.0
30.1434 -1.36294 0.0
46.3592 3.70893 0.0
49.3156 2.12096 0.0
46.0233 3.44945 0.0
12.4484 -0.694973 0.0
27.0948 0.0299033 0.0
35.9667 -0.539475 0.0
23.1341 -0.892606 0.0
7.67399 1.23072 0.0
20.134 2.04764 0.0
27.7954 -0.0421914 0.0
52.0251 -0.961306 0.0
38.5343 0.0971089 0.0
21.5842 -0.97845 0.0
35.1478 -4.04515 0.0
41.3821 -0.478619 0.0
12.6153 -1.27744 0.0
21.6732 -0.320934 0.0
41.8003 -2.49209 0.0
56.6144 1.77983 0.0
22.9371 -2.20231 0.0
38.4316 0.872651 0.0
37.4428 1.65107 0.0
24.222 -1.47197 0.0
6.48807 -0.582177 0.0
25.7612 -0.605686 0.0
24.1246 -21.9499 0.0
33.5762 -2.64264 0.0
35.7452 2.96936 0.0
26.167 -0.175174 0.0
15.2165 -0.595188 0.0
33.6384 -2.2981 0.0
27.8164 0.141955 0.0
23.8156 0.0189313 0.0
36.2468 3.46099 0.0
12.7087 -0.827655 0.0
25.7291 0.915227 0.0
13.3872 -0.540095 0.0
36.6444 -0.337126 0.0
43.3123 3.48953 0.0
51.1289 2.92298 0.0
24.4722 5.11574 0.0
21.6955 0.840095 0.0
25.7817 1.0997 0.0
12.3621 0.307906 0.0
15.1352 -0.20299 0.0
55.1288 0.668476 0.0
11.7367 -0.561756 0.0
21.5706 1.00406 0.0
11.3176 -0.257278 0.0
25.8892 -0.141642 0.0
29.4056 -3.05749 0.0
23.0624 -1.54333 0.0
23.3976 -1.04036 0.0
33.3036 0.115416 0.0
11.9148 1.16865 0.0
30.9367 3.19786 0.0
35.0066 -1.53029 0.0
17.2194 -0.238436 0.0
26.0891 -0.641745 0.0
12.1869 -1.08742 0.0
43.8392 -0.0370109 0.0
27.8202 -1.76865 0.0
25.5161 -0.336107 0.0
25.3333 -0.367435 0.0
22.1181 -0.351339 0.0
44.6144 -4.26513 0.0
34.3824 -3.74598 0.0
41.2632 4.56513 0.0
12.7941 -0.025973 0.0
16.0893 15.4114 0.0
57.4327 -0.0334139 0.0
27.4107 -0.874582 0.0
33.1841 -1.34474 0.0
3.82203 14.8239 0.0
21.6965 2.24257 0.0
14.0022 -17.3143 0.0
12.7971 -0.109088 0.0
35.0914 -2.36696 0.0
52.8418 -0.332433 0.0
48.5631 -3.12645 0.0
24.9703 0.497251 0.0
12.6713 0.17867 0.0
55.7223 0.257496 0.0
23.1811 2.13482 0.0
43.9021 1.51065 0.0
28.7285 -0.45703 0.0
37.9153 -0.982257 0.0
11.6637 1.17267 0.0
27.1694 -1.45143 0.0
12.3453 -0.573754 0.0
8.04462 -0.0970205 0.0
22.1527 -2.32716 0.0
35.0337 -1.43993 0.0
25.4304 1.30634 0.0
58.1167 -0.127493 0.0
50.2954 1.25315 0.0
51.6657 -0.058785 0.0
20.9321 0.400783 0.0
52.555 -1.95106 0.0
22.6327 -2.07288 0.0
42.3659 4.5836 0.0
14.2386 1.98818 0.0
41.4082 -0.863875 0.0
22.0431 1.68738 0.0
13.704 0.133628 0.0
25.3593 -2.07067 0.0
26.6985 -2.45527 0.0
43.7038 4.39415 0.0
35.2598 1.85409 0.0
52.228 -1.83488 0.0
31.8428 -1.92216 0.0
36.649 -3.81759 0.0
34.3584 1.42238 0.0
21.8409 -0.283461 0.0
21.0837 -0.299362 0.0
12.5863 -0.319182 0.0
23.9502 -1.17417 0.0
12.889 0.978053 0.0
24.7237 -20.9559 0.0
27.9493 -1.50486 0.0
33.6207 -0.348981 0.0
34.0976 -0.317976 0.0
21.7636 0.540033 0.0
42.295 4.53558 0.0
52.1086 3.03808 0.0
17.5362 -2.35882 0.0
47.4369 3.78659 0.0
36.5324 -1.75146 0.0
7.57853 0.0874865 0.0
37.7561 -3.0112 0.0
26.1662 1.78289 0.0
20.1279 -0.423492 0.0
21.3781 -0.326233 0.0
16.4468 0.42262 0.0
12.0874 0.912261 0.0
14.0864 -0.0503106 0.0
18.6563 25.4737 0.0
14.825 1.05904 0.0
43.4167 4.60516 0.0
33.5638 -2.41421 0.0
24.8754 -0.324303 0.0
47.8453 3.18572 0.0
12.6312 1.09784 0.0
44.4185 -2.49144 0.0
51.1509 3.39951 0.0
15.1399 -2.12756 0.0
19.3679 0.997001 0.0
54.5377 0.31717 0.0
12.8236 -1.01581 0.0
11.1353 28.9585 0.0
13.198 -0.102934 0.0
51.7098 0.0243869 0.0
52.0685 1.31964 0.0
56.3686 0.636189 0.0
12.8955 -0.453317 0.0
40.6862 -3.29216 0.0
44.1652 -4.88862 0.0
43.3399 -1.5116 0.0
11.5227 -1.0873 0.0
40.579 0.174149 0.0
44.6087 -3.71226 0.0
25.758 -2.65598 0.0
46.0548 3.78146 0.0
36.6925 -2.19118 0.0
25.1679 -0.361184 0.0
8.76175 -0.204386 0.0
22.1296 -0.370752 0.0
7.2701 0.531377 0.0
7.34894 0.0657228 0.0
15.328 -1.74143 0.0
44.3976 3.51786 0.0
10.3605 7.40949 0.0
47.6148 3.73022 0.0
52.865 2.86226 0.0
7.11014 -0.298397 0.0
40.8772 1.71053 0.0
5.93273 0.167888 0.0
7.19591 -0.472579 0.0
35.5777 2.98844 0.0
11.7305 0.809814 0.0
44.0589 -1.78171 0.0
40.2758 2.02175 0.0
6.81474 -0.34143 0.0
51.9463 0.979367 0.0
32.1612 -3.39036 0.0
50.2403 2.99346 0.0
15.0768 0.593239 0.0
31.7803 1.86844 0.0
49.0194 3.4113 0.0
6.41692 0.621446 0.0
59.1359 0.624129 0.0
36.6628 -4.54031 0.0
6.81357 -0.415189 0.0
6.72165 -0.589264 0.0
38.1979 -1.91052 0.0
7.01503 0.462504 0.0
35.1623 3.9017 0.0
39.3264 -2.0373 0.0
28.0501 -0.927216 0.0
11.1315 -0.0948367 0.0
13.2449 0.539193 0.0
35.8453 0.643746 0.0
36.2609 0.141105 0.0
44.0851 -0.905891 0.0
33.8061 -0.20724 0.0
14.1458 -0.919198 0.0
43.963 3.72631 0.0
44.5018 -3.24358 0.0
56.0636 0.411798 0.0
43.1776 3.70163 0.0
51.3826 -0.274575 0.0
41.6766 4.18501 0.0
54.357 0.243365 0.0
34.3948 -1.95739 0.0
51.4483 2.55867 0.0
10.9124 1.05852 0.0
48.7209 -0.0253072 0.0
30.8981 -0.983943 0.0
47.5014 -2.73668 0.0
9.40002 -0.979168 0.0
22.5409 -1.46978 0.0
43.8697 0.676403 0.0
9.03512 0.801914 0.0
54.2372 0.232415 0.0
43.7357 2.70687 0.0
7.38054 0.288033 0.0
30.0165 -0.942218 0.0
48.1017 3.21543 0.0
55.2812 0.141715 0.0
37.1562 -4.31345 0.0
41.7488 -4.75106 0.0
5.99581 6.43983 0.0
11.9048 0.856621 0.0
23.9358 -1.73406 0.0
40.3751 -1.46515 0.0
30.8281 -2.41631 0.0
7.07466 0.0114806 0.0
42.8419 4.24402 0.0
50.4297 -2.98826 0.0
43.9836 -2.34016 0.0
55.4699 0.165047 0.0
4.1404 -0.180987 0.0
6.59561 0.480283 0.0
41.0463 2.82482 0.0
6.82158 0.60374 0.0
49.4653 3.66955 0.0
42.636 2.83289 0.0
4.27638 0.000345504 0.0
6.80356 -0.533784 0.0
49.1141 2.8159 0.0
49.8424 0.58094 0.0
4.04214 0.182501 0.0
43.2198 -0.23574 0.0
54.1835 0.258399 0.0
12.481 -0.777268 0.0
55.1513 0.162757 0.0
44.7634 2.77806 0.0
43.9201 -3.44165 0.0
52.1197 2.20007 0.0
6.85973 -0.617342 0.0
35.2091 -4.49364 0.0
7.38814 -0.124592 0.0
6.68174 0.474446 0.0
40.7504 -3.22148 0.0
6.83071 0.667027 0.0
44.0154 3.11616 0.0
50.1807 2.44629 0.0
42.2002 -3.99458 0.0
43.0073 -4.90499 0.0
10.9484 -1.1292 0.0
23.2805 -0.100479 0.0
43.6624 2.02919 0.0
6.85729 -0.391583 0.0
6.27067 0.429371 0.0
19.6793 -3.52041 0.0
10.4902 0.995576 0.0
54.5999 -0.949407 0.0
7.34773 -0.453422 0.0
24.3217 0.97244 0.0
55.3883 1.43143 0.0
11.7687 0.77069 0.0
12.5895 0.779976 0.0
46.8964 3.56374 0.0
7.07582 0.406418 0.0
52.0922 1.765 0.0
45.3281 2.44316 0.0
51.5634 0.550248 0.0
6.53385 -0.615831 0.0
5.07683 0.446466 0.0
9.14643 -0.421778 0.0
36.1952 -1.57337 0.0
14.9801 -3.46313 0.0
55.1148 0.201401 0.0
4.14548 0.101929 0.0
43.358 -4.84892 0.0
13.0769 -0.449827 0.0
6.104 0.43304 0.0
15.6016 -1.61632 0.0
45.6875 3.7444 0.0
12.3381 -0.705393 0.0
51.4538 0.449262 0.0
50.1285 2.06653 0.0
29.1241 -0.537051 0.0
54.2366 0.288832 0.0
45.5706 2.11997 0.0
27.0415 -1.71776 0.0
40.8377 0.847439 0.0
53.7225 -2.60404 0.0
45.6165 1.77457 0.0
6.73324 -0.688529 0.0
7.17893 0.710225 0.0
43.6758 -0.934933 0.0
6.12348 0.384756 0.0
36.0682 -3.74761 0.0
24.2578 14.0109 0.0
54.3447 0.295865 0.0
6.18689 0.412524 0.0
6.85875 -0.420029 0.0
50.2694 1.65 0.0
44.4463 3.62611 0.0
37.395 -0.237408 0.0
31.5707 -1.56708 0.0
45.9368 0.0183051 0.0
27.7831 -1.38608 0.0
17.9087 -19.0949 0.0
47.131 -0.180517 0.0
42.5274 2.54878 0.0
6.75598 -0.266393 0.0
45.5779 1.42531 0.0
35.4012 16.7603 0.0
22.1667 -0.643244 0.0
54.8467 0.456007 0.0
4.47713 -0.429365 0.0
4.94111 0.438901 0.0
41.9614 2.86877 0.0
48.6346 -0.217867 0.0
46.9192 -1.22217 0.0
26.0117 -0.195596 0.0
52.1615 5.08899 0.0
55.1471 0.234235 0.0
51.8984 -2.37261 0.0
5.56637 2.69792 0.0
51.7216 0.730738 0.0
53.2769 -2.73741 0.0
43.0177 1.94121 0.0
43.0067 12.2303 0.0
11.4578 -4.80057 0.0
38.869 0.281867 0.0
5.65017 -8.31952 0.0
37.4446 -1.36269 0.0
50.6769 -1.34295 0.0
53.0345 2.97447 0.0
51.9002 5.55645 0.0
5.95933 -2.44726 0.0
45.5095 1.12355 0.0
48.719 8.5132 0.0
43.0123 1.63069 0.0
56.3748 0.146356 0.0
42.8991 2.2419 0.0
50.1324 0.947132 0.0
26.7125 -0.962958 0.0
29.74 1.21381 0.0
11.4794 -6.81079 0.0
43.4572 -2.84467 0.0
20.7111 -0.178821 0.0
36.8574 -12.0204 0.0
7.83546 -11.4648 0.0
40.4149 -2.84979 0.0
55.3207 0.205002 0.0
2.99918 -0.287175 0.0
3.0738 0.292016 0.0
49.9151 0.728189 0.0
42.3111 3.27733 0.0
45.4922 0.897313 0.0
33.5287 18.8295 0.0
7.66877 -0.209831 0.0
12.4458 -0.33644 0.0
8.89903 1.43202 0.0
3.08089 3.30932 0.0
6.96743 -6.10301 0.0
51.5307 -3.10263 0.0
56.6296 0.109297 0.0
41.3519 -4.09108 0.0
0.902202 1.67858 0.0
40.0454 -0.113088 0.0
42.7885 -0.115088 0.0
45.5701 -11.1458 0.0
30.1025 14.8251 0.0
1.07765 -1.6234 0.0
3.52291 -3.08204 0.0
36.304 0.604581 0.0
21.2206 1.15073 0.0
43.0538 1.32042 0.0
27.1632 -6.36043 0.0
48.8739 -0.117253 0.0
43.0291 2.34436 0.0
50.6438 -0.114164 0.0
37.183 12.0403 0.0
54.6297 0.189732 0.0
3.95861 -0.297354 0.0
48.9346 3.67341 0.0
55.9016 1.01953 0.0
51.3994 0.417715 0.0
55.8367 0.133886 0.0
50.6548 -6.42674 0.0
3.8016 0.216538 0.0
55.6657 -0.650362 0.0
7.86915 -1.77284 0.0
21.65 1.39349 0.0
34.5816 -1.1172 0.0
45.4599 0.756125 0.0
43.0348 1.05248 0.0
53.9247 3.49005 0.0
54.6477 2.4995 0.0
53.3391 3.74528 0.0
6.10164 0.320637 0.0
11.5665 0.569408 0.0
9.20253 -1.20351 0.0
55.938 -0.0491225 0.0
49.813 0.507859 0.0
44.0027 -4.90254 0.0
7.53512 1.99449 0.0
54.0581 0.861737 0.0
47.7616 7.93078 0.0
12.3479 12.8145 0.0
50.0477 -0.0826633 0.0
3.40519 1.13562 0.0
48.1129 -0.132767 0.0
52.8373 -1.73305 0.0
48.8932 -0.808823 0.0
36.0491 -0.388239 0.0
33.2263 -0.37638 0.0
47.4998 -0.189338 0.0
8.23978 0.281145 0.0
42.953 4.01577 0.0
55.3185 -0.69241 0.0
51.6593 -0.252459 0.0
51.4519 0.425988 0.0
45.5197 0.673853 0.0
24.4665 -0.0324468 0.0
49.839 0.492037 0.0
56.8664 -1.90643 0.0
54.7087 0.119822 0.0
11.9352 0.615648 0.0
43.1946 10.9068 0.0
3.70708 -1.06729 0.0
56.0188 1.00129 0.0
56.0834 0.281084 0.0
45.6462 0.639832 0.0
2.23714 1.4701 0.0
41.0234 -0.710336 0.0
55.3686 0.150695 0.0
53.8861 2.64415 0.0
49.4443 -0.131655 0.0
54.9477 -0.50151 0.0
51.6005 0.43999 0.0
55.6305 -0.102071 0.0
56.151 0.472102 0.0
55.2301 0.237679 0.0
45.9102 0.64168 0.0
5.06865 0.627047 0.0
17.8459 1.92239 0.0
54.762 -1.69609 0.0
43.4485 3.30203 0.0
2.48072 -1.39381 0.0
10.2286 -0.799902 0.0
41.0192 -2.73518 0.0
47.126 7.10316 0.0
49.9993 0.505471 0.0
19.4302 -1.54831 0.0
51.5149 -0.248527 0.0
52.8022 -0.19343 0.0
28.2747 17.7761 0.0
9.76377 1.03585 0.0
4.6142 -0.753427 0.0
55.3869 -2.33094 0.0
37.2724 10.037 0.0
51.167 -6.15395 0.0
56.2078 0.653227 0.0
13.9076 0.230811 0.0
50.2308 0.500583 0.0
43.0394 0.884769 0.0
54.739 -0.0292667 0.0
4.32177 0.842712 0.0
51.8263 0.416672 0.0
54.74 0.0489652 0.0
5.81547 -0.344636 0.0
46.274 0.62195 0.0
54.4971 0.259429 0.0
56.1362 0.707724 0.0
52.4305 0.214091 0.0
52.467 -0.276448 0.0
55.368 0.0888103 0.0
46.3192 -1.01799 0.0
52.3688 -0.168846 0.0
52.1584 0.328198 0.0
51.2842 0.16158 0.0
51.1705 -0.323563 0.0
5.29494 -0.508935 0.0
55.3886 1.00951 0.0
50.8564 -0.383987 0.0
7.28532 0.429871 0.0
55.3315 0.0171663 0.0
11.3494 0.845123 0.0
50.5772 0.420152 0.0
52.1704 -0.346394 0.0
56.1964 0.431836 0.0
53.5735 -0.139864 0.0
52.6395 0.11819 0.0
55.8427 0.214529 0.0
24.2969 0.2569 0.0
47.4573 0.300813 0.0
43.8918 2.99736 0.0
46.5918 0.49454 0.0
5.35343 -0.108446 0.0
54.5725 -0.105065 0.0
50.9701 0.279555 0.0
42.0279 -11.4643 0.0
3.58764 -0.322464 0.0
43.2743 0.712233 0.0
3.50833 0.239568 0.0
37.7248 -9.87727 0.0
45.8497 3.54695 0.0
43.5373 0.691457 0.0
48.9202 -0.20338 0.0
50.5644 -0.418487 0.0
43.9804 0.691387 0.0
52.8985 -0.045349 0.0
36.2725 -3.32351 0.0
40.2427 -13.6103 0.0
51.2479 -0.13613 0.0
55.791 0.769699 0.0
55.963 0.962862 0.0
56.0294 0.359019 0.0
51.8993 -0.39494 0.0
56.3168 0.46097 0.0
44.7022 -0.208167 0.0
56.1383 0.483633 0.0
50.0224 -0.28868 0.0
47.8505 0.162156 0.0
22.8942 0.52944 0.0
53.4176 -0.469113 0.0
56.2112 0.384336 0.0
41.7741 -0.818574 0.0
55.7517 0.61319 0.0
51.6523 -0.409289 0.0
50.3028 -0.409636 0.0
5.55807 0.462097 0.0
51.5189 0.0698826 0.0
43.128 0.780559 0.0
56.433 0.401103 0.0
38.6253 -0.889767 0.0
12.7009 0.34516 0.0
48.2232 0.0573045 0.0
55.7125 0.420883 0.0
44.9692 0.397378 0.0
43.8536 -0.205419 0.0
50.0765 -0.342758 0.0
55.6314 0.200015 0.0
51.4398 -0.375463 0.0
45.7374 0.229489 0.0
25.3547 11.243 0.0
55.2755 -0.0654625 0.0
56.363 0.3212 0.0
54.8324 1.89428 0.0
22.4311 -0.114219 0.0
51.7022 -0.0129716 0.0
42.0101 -0.236914 0.0
6.79095 0.205 0.0
11.7893 0.396525 0.0
51.2491 -0.291549 0.0
54.7111 0.23624 0.0
47.6691 -0.404858 0.0
49.8642 -0.23083 0.0
56.1191 0.294953 0.0
48.4603 -0.276343 0.0
48.5359 -0.0320225 0.0
49.6073 -0.104638 0.0
42.638 -0.277128 0.0
46.9737 -0.254233 0.0
56.5035 0.26183 0.0
43.1863 -0.233301 0.0
55.0884 0.1058 0.0
47.2856 -0.44289 0.0
49.3126 -0.328616 0.0
46.508 -0.32079 0.0
42.1043 -0.332567 0.0
54.9361 0.146308 0.0
51.045 -0.178428 0.0
8.29597 0.233306 0.0
12.823 0.338183 0.0
56.0283 0.0698591 0.0
55.4708 -0.0227962 0.0
44.2355 0.644233 0.0
46.0845 -0.0668962 0.0
46.6018 0.00336127 0.0
56.1299 0.623485 0.0
49.2343 0.00358667 0.0
54.751 1.50838 0.0
52.7899 0.036208 0.0
41.6038 -0.392353 0.0
45.2591 -0.460262 0.0
46.1806 0.102012 0.0
50.7753 -0.0665844 0.0
56.431 0.165954 0.0
54.7204 -0.114155 0.0
46.0853 -0.384309 0.0
38.6884 1.23029 0.0
39.9335 -0.306638 0.0
45.6677 -0.437617 0.0
41.1449 -0.452701 0.0
51.09 3.5309 0.0
48.7362 0.0595136 0.0
50.4028 0.0108264 0.0
46.9587 -0.432015 0.0
40.5224 -0.262288 0.0
44.3465 -0.121102 0.0
55.5431 0.27493 0.0
40.65 -0.485188 0.0
44.9248 -0.405724 0.0
48.2076 0.0407034 0.0
25.6284 0.192578 0.0
53.9096 -0.0754805 0.0
40.1237 -0.41509 0.0
22.279 0.123463 0.0
39.3924 -0.360748 0.0
49.9603 0.0259973 0.0
39.8609 -0.250558 0.0
44.6269 -0.278715 0.0
41.16 -0.240065 0.0
5.94526 -0.0767618 0.0
11.0604 -0.135878 0.0
25.5943 0.301861 0.0
47.9801 -0.370598 0.0
46.4081 -0.214166 0.0
47.7511 -0.0319126 0.0
49.5304 -0.0223654 0.0
39.5065 -0.0726824 0.0
12.4234 0.129249 0.0
55.6885 0.181056 0.0
11.3835 -0.164831 0.0
56.4792 0.0462891 0.0
47.4367 -0.116372 0.0
38.8772 -0.422125 0.0
45.5847 0.0584392 0.0
38.2594 -0.48341 0.0
56.3741 -0.0786511 0.0
44.8982 0.129509 0.0
6.16305 -0.0858335 0.0
11.2266 -0.161656 0.0
46.676 -0.348386 0.0
6.5968 0.0840437 0.0
49.1881 -0.107674 0.0
37.7367 -0.468845 0.0
37.3435 -0.320787 0.0
43.916 0.0240012 0.0
48.716 -0.256678 0.0
55.6619 -0.0706856 0.0
44.2174 0.114738 0.0
43.6287 0.0325357 0.0
11.3085 -0.146914 0.0
6.40195 -0.087519 0.0
21.2792 0.247567 0.0
36.9995 -0.12686 0.0
43.1955 0.134239 0.0
48.0492 -0.34526 0.0
42.3717 0.174261 0.0
50.2715 -0.143198 0.0
21.8056 0.282828 0.0
41.6459 0.108754 0.0
49.0196 -0.181877 0.0
43.1975 -0.0444279 0.0
11.3237 0.144953 0.0
5.78825 -0.0552047 0.0
4.85111 -0.0847857 0.0
6.24062 -0.0803201 0.0
11.1887 -0.0555458 0.0
11.9028 0.191833 0.0
5.26521 -0.0262768 0.0
5.96729 -0.00615386 0.0
11.0024 -0.125092 0.0
5.81235 -0.0425024 0.0
6.28735 -0.0444312 0.0
6.66472 0.149551 0.0
12.1824 -0.152218 0.0
6.47538 0.0816782 0.0
10.8417 -0.0961063 0.0
6.19824 0.0790174 0.0
11.5398 -0.0733382 0.0
11.2903 -0.0817273 0.0
6.03754 0.165046 0.0
12.3626 0.222331 0.0
10.9827 -0.096959 0.0
10.7344 -0.122106 0.0
6.2632 0.2662 0.0
10.3525 -0.0821495 0.0
11.1852 0.189642 0.0
5.74238 -0.0410343 0.0
10.8695 -0.0477925 0.0
6.53957 0.000240413 0.0
5.74823 0.0886668 0.0
10.5053 -0.161069 0.0
6.16969 0.213981 0.0
7.45579 0.122382 0.0
6.32181 0.310914 0.0
5.2661 0.0763446 0.0
5.66496 -0.00498377 0.0
10.9643 0.049725 0.0
5.98301 -0.0739826 0.0
6.14212 -0.0832915 0.0
6.28485 0.253472 0.0
6.30895 0.286351 0.0
6.26794 -0.0224594 0.0
6.14696 0.0585363 0.0
5.19956 -0.0825741 0.0
5.89314 -0.0476435 0.0
7.32905 -0.0122618 0.0
12.3082 -0.0334136 0.0
6.38364 -0.117178 0.0
7.5048 0.0677787 0.0
10.4539 0.154469 0.0
10.2125 -0.180985 0.0
5.84113 -0.0636182 0.0
6.45815 0.22652 0.0
5.89948 0.0587038 0.0
11.5898 -0.0169811 0.0
5.60229 0.10603 0.0
6.21419 0.0787956 0.0
5.77714 -0.0735111 0.0
11.4571 0.512103 0.0
7.12523 -0.0999805 0.0
5.05355 -0.00468637 0.0
5.81085 0.00715918 0.0
4.91973 0.0465152 0.0
6.34516 0.0802395 0.0
6.45362 -0.0281155 0.0
9.56407 -0.0840352 0.0
4.38988 -0.0329212 0.0
11.2245 0.440169 0.0
11.6674 0.135903 0.0
48.1729 -0.213122 0.0
47.3828 -0.152727 0.0
52.9752 -0.129199 0.0
41.0806 0.0168554 0.0
55.7548 -0.346088 0.0
55.846 -0.143601 0.0
40.5841 -0.0159606 0.0
55.8617 -0.358202 0.0
56.1912 -0.297013 0.0
55.9583 -0.374509 0.0
56.3353 -0.185941 0.0
43.0326 -0.0429604 0.0
47.6045 -0.15301 0.0
56.1042 -0.33112 0.0
46.1805 -0.197473 0.0
55.612 -0.270873 0.0
49.1096 -0.209301 0.0
55.4999 -0.235816 0.0
52.0152 -0.29246 0.0
53.001 -0.32047 0.0
35.299 0.0941959 0.0
55.3496 -0.38699 0.0
55.038 -0.231169 0.0
53.1799 -0.304972 0.0
55.5513 -0.320764 0.0
39.5402 -0.158201 0.0
51.8393 -0.0963299 0.0
47.6308 -0.181148 0.0
54.908 -0.372956 0.0
54.7287 -0.367373 0.0
55.6605 -0.310141 0.0
41.7816 -0.180926 0.0
36.6799 0.252579 0.0
55.1969 -0.341727 0.0