# vtk DataFile Version 3.0
Malha 2D com triângulos e temperatura
ASCII
DATASET UNSTRUCTURED_GRID

POINTS 1194 double
0 0 0
5 0 0
5 1 0
0 1 0
0.85 0.5 0
0.842388 0.538268 0
0.820711 0.570711 0
0.788268 0.592388 0
0.75 0.6 0
0.711732 0.592388 0
0.679289 0.570711 0
0.657612 0.538268 0
0.65 0.5 0
0.657612 0.461732 0
0.679289 0.429289 0
0.711732 0.407612 0
0.75 0.4 0
0.788268 0.407612 0
0.820711 0.429289 0
0.842388 0.461732 0
0.0793651 0 0
0.15873 0 0
0.238095 0 0
0.31746 0 0
0.396825 0 0
0.47619 0 0
0.555556 0 0
0.634921 0 0
0.714286 0 0
0.793651 0 0
0.873016 0 0
0.952381 0 0
1.03175 0 0
1.11111 0 0
1.19048 0 0
1.26984 0 0
1.34921 0 0
1.42857 0 0
1.50794 0 0
1.5873 0 0
1.66667 0 0
1.74603 0 0
1.8254 0 0
1.90476 0 0
1.98413 0 0
2.06349 0 0
2.14286 0 0
2.22222 0 0
2.30159 0 0
2.38095 0 0
2.46032 0 0
2.53968 0 0
2.61905 0 0
2.69841 0 0
2.77778 0 0
2.85714 0 0
2.93651 0 0
3.01587 0 0
3.09524 0 0
3.1746 0 0
3.25397 0 0
3.33333 0 0
3.4127 0 0
3.49206 0 0
3.57143 0 0
3.65079 0 0
3.73016 0 0
3.80952 0 0
3.88889 0 0
3.96825 0 0
4.04762 0 0
4.12698 0 0
4.20635 0 0
4.28571 0 0
4.36508 0 0
4.44444 0 0
4.52381 0 0
4.60317 0 0
4.68254 0 0
4.7619 0 0
4.84127 0 0
4.92063 0 0
5 0.0769231 0
5 0.153846 0
5 0.230769 0
5 0.307692 0
5 0.384615 0
5 0.461538 0
5 0.538462 0
5 0.615385 0
5 0.692308 0
5 0.769231 0
5 0.846154 0
5 0.923077 0
4.92063 1 0
4.84127 1 0
4.7619 1 0
4.68254 1 0
4.60317 1 0
4.52381 1 0
4.44444 1 0
4.36508 1 0
4.28571 1 0
4.20635 1 0
4.12698 1 0
4.04762 1 0
3.96825 1 0
3.88889 1 0
3.80952 1 0
3.73016 1 0
3.65079 1 0
3.57143 1 0
3.49206 1 0
3.4127 1 0
3.33333 1 0
3.25397 1 0
3.1746 1 0
3.09524 1 0
3.01587 1 0
2.93651 1 0
2.85714 1 0
2.77778 1 0
2.69841 1 0
2.61905 1 0
2.53968 1 0
2.46032 1 0
2.38095 1 0
2.30159 1 0
2.22222 1 0
2.14286 1 0
2.06349 1 0
1.98413 1 0
1.90476 1 0
1.8254 1 0
1.74603 1 0
1.66667 1 0
1.5873 1 0
1.50794 1 0
1.42857 1 0
1.34921 1 0
1.26984 1 0
1.19048 1 0
1.11111 1 0
1.03175 1 0
0.952381 1 0
0.873016 1 0
0.793651 1 0
0.714286 1 0
0.634921 1 0
0.555556 1 0
0.47619 1 0
0.396825 1 0
0.31746 1 0
0.238095 1 0
0.15873 1 0
0.0793651 1 0
0 0.923077 0
0 0.846154 0
0 0.769231 0
0 0.692308 0
0 0.615385 0
0 0.538462 0
0 0.461538 0
0 0.384615 0
0 0.307692 0
0 0.230769 0
0 0.153846 0
0 0.0769231 0
0.879698 0.466718 0
1.3085 0.931947 0
1.30532 0.0638546 0
4.93832 0.504275 0
0.620452 0.46964 0
3.99858 0.0669607 0
1.63721 0.934258 0
3.3751 0.0523709 0
4.3254 0.0687322 0
2.42354 0.0642082 0
2.97619 0.0687322 0
2.02101 0.0693621 0
3.68108 0.0581336 0
2.65899 0.932655 0
4.178 0.939994 0
3.21614 0.938179 0
2.25483 0.919987 0
3.53215 0.928998 0
3.84921 0.931268 0
1.69647 0.0674297 0
1.94349 0.930209 0
4.48413 0.931268 0
2.97813 0.942022 0
2.74097 0.0673855 0
0.859645 0.573263 0
0.639718 0.573116 0
0.0651563 0.652836 0
0.0635304 0.346121 0
4.56232 0.0679683 0
0.830393 0.392645 0
0.669618 0.39275 0
1.06185 0.0668897 0
0.440193 0.0680031 0
1.06474 0.93511 0
0.446074 0.935974 0
0.724697 0.630698 0
4.72268 0.931235 0
4.93065 0.267192 0
0.589836 0.936152 0
0.92338 0.0562425 0
0.590207 0.0623339 0
0.755872 0.0732784 0
0.838039 0.936714 0
4.92573 0.732039 0
0.281717 0.93783 0
0.28208 0.0811877 0
0.065248 0.503161 0
1.46076 0.0637037 0
4.72574 0.0661877 0
4.31028 0.937908 0
3.21429 0.0687322 0
1.46639 0.932632 0
3.6897 0.928155 0
2.42063 0.931268 0
3.5364 0.0691789 0
2.25998 0.0676208 0
1.78735 0.937047 0
4.01535 0.920637 0
1.85469 0.0674188 0
3.83991 0.0626292 0
3.37477 0.929368 0
2.58225 0.0657863 0
2.81746 0.932342 0
4.16667 0.0687322 0
2.11402 0.935574 0
0.0614266 0.197046 0
0.0612841 0.803003 0
4.88273 0.0644126 0
4.87774 0.933272 0
0.859645 0.426737 0
0.903081 0.436592 0
0.923672 0.473385 0
0.948706 0.439078 0
0.969155 0.479795 0
0.996593 0.439791 0
1.0202 0.484937 0
1.04667 0.440138 0
1.07382 0.489694 0
1.1034 0.440801 0
1.13169 0.49612 0
1.16603 0.445058 0
1.1931 0.504331 0
1.22956 0.450883 0
1.25923 0.506004 0
1.29683 0.453139 0
1.32923 0.510343 0
1.36603 0.454344 0
1.03276 0.530395 0
1.40063 0.516169 0
1.43576 0.454934 0
1.47042 0.520776 0
1.51069 0.46142 0
1.54422 0.526371 0
1.58547 0.465572 0
1.61942 0.531773 0
1.66033 0.468788 0
1.69546 0.536793 0
1.73713 0.472812 0
1.77239 0.541977 0
1.81532 0.478494 0
1.85006 0.547285 0
1.89327 0.483449 0
1.92802 0.55361 0
1.97142 0.488546 0
2.00623 0.558966 0
2.04984 0.493518 0
2.08483 0.564085 0
2.12847 0.498462 0
2.16353 0.569137 0
2.20719 0.503331 0
0.961579 0.391697 0
1.22451 0.565337 0
2.24238 0.574192 0
2.28611 0.508258 0
2.32134 0.579247 0
2.36519 0.513325 0
2.40036 0.584295 0
2.44425 0.51834 0
2.47944 0.589336 0
2.52334 0.523355 0
2.55853 0.594372 0
2.60245 0.52837 0
2.63764 0.599431 0
2.68159 0.533388 0
2.64637 0.462336 0
2.72553 0.467349 0
2.76076 0.538418 0
2.8047 0.47237 0
2.83993 0.543451 0
2.88387 0.477399 0
2.91911 0.548482 0
2.96305 0.482427 0
2.9983 0.553514 0
3.04224 0.487456 0
3.07749 0.558545 0
3.12143 0.492477 0
3.15668 0.563574 0
3.20063 0.497514 0
3.23588 0.568605 0
3.27983 0.502542 0
3.31508 0.573635 0
3.35903 0.507562 0
3.39428 0.578663 0
3.43823 0.5126 0
3.47348 0.583694 0
3.51744 0.517628 0
3.55268 0.588724 0
3.59664 0.522646 0
3.63189 0.593752 0
3.67585 0.527673 0
3.71109 0.598781 0
3.75505 0.532702 0
3.7903 0.60381 0
3.83426 0.537731 0
3.79901 0.466623 0
3.87821 0.471754 0
3.91346 0.542777 0
3.95742 0.476701 0
3.99267 0.547795 0
4.03662 0.481715 0
4.07187 0.552815 0
4.11582 0.486743 0
4.15106 0.55783 0
4.195 0.491782 0
4.23023 0.562843 0
4.27415 0.49682 0
4.30937 0.567866 0
4.35325 0.501915 0
4.38842 0.572845 0
4.43227 0.506997 0
4.46737 0.577575 0
4.51106 0.511995 0
4.54622 0.582183 0
1.13571 0.390292 0
4.47606 0.441361 0
4.55475 0.446396 0
2.32985 0.442214 0
3.5614 0.451571 0
3.08619 0.421408 0
2.09339 0.427815 0
1.42887 0.583001 0
2.84864 0.406329 0
3.32378 0.43649 0
4.23911 0.425894 0
1.54723 0.39251 0
1.77883 0.406811 0
1.33959 0.387065 0
3.92239 0.405803 0
4.08079 0.415776 0
2.48812 0.452349 0
1.57935 0.603183 0
1.93602 0.417543 0
1.72453 0.617973 0
3.11273 0.629643 0
2.69029 0.396284 0
3.94662 0.623383 0
1.88466 0.613248 0
2.79598 0.609502 0
4.10826 0.620575 0
2.04005 0.62838 0
2.95434 0.619575 0
4.51981 0.375801 0
4.59833 0.380943 0
4.63314 0.451296 0
4.26693 0.63114 0
2.19619 0.645921 0
4.4246 0.642296 0
3.27112 0.639707 0
2.35729 0.649822 0
2.51462 0.660373 0
3.42952 0.649769 0
4.67669 0.38601 0
3.58793 0.659829 0
3.74634 0.669888 0
4.64195 0.315733 0
4.44109 0.370647 0
4.48493 0.305066 0
4.40614 0.29989 0
4.71136 0.456133 0
4.72014 0.320758 0
0.8692 0.382093 0
0.841252 0.348256 0
0.886481 0.338703 0
0.853127 0.301457 0
0.902583 0.287335 0
0.801683 0.321689 0
0.818113 0.263019 0
0.764765 0.277091 0
4.44702 0.235678 0
0.946267 0.520761 0
0.78107 0.221265 0
0.726309 0.234724 0
0.848273 0.20551 0
4.68545 0.250576 0
4.37074 0.227561 0
4.76365 0.255792 0
4.79822 0.326145 0
0.713664 0.287231 0
0.672358 0.247957 0
0.68673 0.192342 0
0.630368 0.2085 0
0.616569 0.265341 0
0.574186 0.225456 0
0.557393 0.28131 0
0.52004 0.242373 0
0.504416 0.299685 0
0.462273 0.252096 0
0.44798 0.316739 0
0.404567 0.276951 0
0.390546 0.335414 0
0.434669 0.37657 0
0.377935 0.394545 0
0.421979 0.43426 0
0.365682 0.452846 0
0.409646 0.492216 0
0.353389 0.51089 0
0.397738 0.551598 0
0.339864 0.570301 0
0.385899 0.612153 0
0.325913 0.631557 0
0.344507 0.29318 0
0.320568 0.413067 0
0.373553 0.673852 0
0.434438 0.653082 0
0.311416 0.69481 0
0.449777 0.528305 0
0.293513 0.534612 0
0.421431 0.715204 0
0.480917 0.696603 0
0.54504 0.34471 0
0.262743 0.649913 0
0.246209 0.712341 0
0.468564 0.755948 0
0.526091 0.735423 0
0.538207 0.68039 0
0.581228 0.716342 0
0.408756 0.777952 0
0.36234 0.239019 0
0.297047 0.251925 0
0.572109 0.771575 0
0.624906 0.752173 0
0.474824 0.414151 0
0.534351 0.182707 0
0.633682 0.70159 0
0.674547 0.736174 0
0.66826 0.788959 0
0.721117 0.76834 0
0.714515 0.825486 0
0.769074 0.802008 0
0.775287 0.746591 0
0.821903 0.778625 0
0.826767 0.726064 0
0.873257 0.756032 0
0.872997 0.697261 0
0.92331 0.732304 0
0.930014 0.67838 0
0.976061 0.710612 0
0.92456 0.784469 0
0.982178 0.654421 0
1.03016 0.688004 0
1.02037 0.747059 0
1.08 0.723819 0
1.08651 0.661896 0
1.1397 0.698204 0
1.13262 0.763657 0
1.19424 0.736545 0
1.18556 0.80161 0
1.24839 0.771772 0
1.25723 0.706382 0
1.31432 0.745787 0
4.66801 0.521361 0
4.74602 0.526202 0
4.70285 0.591278 0
4.78076 0.596023 0
4.73763 0.661207 0
4.78904 0.460969 0
2.61113 0.391267 0
2.65506 0.325217 0
2.57588 0.320198 0
2.61982 0.254148 0
2.69899 0.259163 0
2.54065 0.249131 0
2.49672 0.315179 0
2.46148 0.244124 0
2.41757 0.310166 0
2.38233 0.239117 0
2.33843 0.30514 0
2.30297 0.237979 0
2.25928 0.300748 0
2.22079 0.221377 0
2.17969 0.293884 0
2.14114 0.224266 0
2.10047 0.289841 0
2.0653 0.219144 0
2.02202 0.284919 0
1.98701 0.214164 0
1.94336 0.279863 0
3.82315 0.673327 0
3.78135 0.738156 0
3.86451 0.735958 0
3.70234 0.735494 0
4.52513 0.244409 0
4.32717 0.294467 0
4.29217 0.221862 0
0.619934 0.539507 0
0.599432 0.577132 0
0.575955 0.542712 0
0.554504 0.58245 0
4.65962 0.656481 0
4.69438 0.726169 0
4.6161 0.721747 0
4.77259 0.731352 0
4.65076 0.791486 0
4.57153 0.788793 0
4.2482 0.289182 0
4.21307 0.218308 0
4.1691 0.284563 0
4.13394 0.21352 0
0.835918 0.606341 0
0.806475 0.6384 0
4.08995 0.279537 0
0.640355 0.426737 0
0.596214 0.435837 0
0.630358 0.379178 0
0.689967 0.627735 0
1.90832 0.209948 0
1.86468 0.27519 0
1.82968 0.20518 0
1.78607 0.269797 0
0.281841 0.313314 0
0.232117 0.268621 0
0.216861 0.334396 0
4.05473 0.209347 0
4.01077 0.2745 0
3.97554 0.204394 0
3.93159 0.269388 0
0.297409 0.759367 0
0.231645 0.782943 0
0.180008 0.73598 0
1.32151 0.676369 0
1.38055 0.718092 0
1.36901 0.793947 0
1.43945 0.766002 0
0.249902 0.198865 0
0.932364 0.624392 0
1.75117 0.201034 0
1.70771 0.264658 0
1.673 0.195402 0
1.62985 0.260294 0
1.59532 0.191927 0
1.55236 0.254233 0
3.89629 0.200227 0
3.85238 0.264494 0
3.81708 0.195303 0
3.77304 0.259453 0
2.66368 0.189084 0
2.74279 0.19534 0
2.77814 0.264556 0
2.82201 0.199823 0
2.85733 0.269552 0
2.90126 0.203886 0
2.93654 0.274416 0
2.98045 0.20868 0
3.01573 0.279376 0
3.0597 0.213193 0
[...]
CELL_DATA 2220
VECTORS velocity double
30.1929 -1.61652 0.0
21.6016 0.726716 0.0
28.6557 0.766137 0.0
22.1374 2.44611 0.0
30.8895 -1.82986 0.0
38.3169 -1.30829 0.0
18.3761 0.695586 0.0
20.4011 -0.0166912 0.0
36.9053 2.91257 0.0
37.298 -0.965463 0.0
22.3682 0.508753 0.0
19.4339 0.399401 0.0
15.5693 0.298898 0.0
32.0835 -2.49162 0.0
24.6354 -0.259018 0.0
32.5597 3.23706 0.0
20.9406 1.02092 0.0
17.073 0.839007 0.0
19.1119 -0.204708 0.0
20.5533 -0.179893 0.0
24.0983 0.51702 0.0
29.4746 3.86493 0.0
19.6807 0.940666 0.0
20.0869 0.819349 0.0
41.2907 -0.621587 0.0
29.7842 -2.31713 0.0
22.1523 1.17322 0.0
17.3728 0.798763 0.0
21.7989 2.31207 0.0
23.9778 1.71437 0.0
37.2043 -1.393 0.0
29.5332 3.1874 0.0
14.3206 -0.181306 0.0
30.7837 1.25827 0.0
35.066 -3.8849 0.0
38.7423 -1.40554 0.0
34.2289 -4.25343 0.0
16.7008 -0.192419 0.0
25.379 2.65589 0.0
26.8595 2.08561 0.0
13.5672 0.6561 0.0
37.0036 3.14194 0.0
18.7415 2.10567 0.0
18.6036 0.0187422 0.0
16.9995 -0.0139215 0.0
15.2032 0.0242004 0.0
19.3983 0.873867 0.0
15.4327 -0.00440848 0.0
36.9116 -0.856404 0.0
41.0466 0.317924 0.0
19.6656 0.67674 0.0
15.3623 0.16094 0.0
19.1097 0.869299 0.0
19.3073 0.182676 0.0
17.6252 0.85851 0.0
27.2898 1.87667 0.0
31.5104 3.3424 0.0
16.3543 0.767433 0.0
16.7945 0.78375 0.0
41.7941 0.181942 0.0
-0.155981 -7.01795 0.0
41.8982 -1.03716 0.0
38.3317 -2.01173 0.0
19.5246 0.885519 0.0
19.4932 0.881327 0.0
33.878 1.20572 0.0
17.5048 -1.91717 0.0
34.879 3.39716 0.0
16.6838 0.849468 0.0
16.812 0.832222 0.0
19.1601 0.259697 0.0
31.8331 -1.67378 0.0
15.0825 0.247317 0.0
39.9458 0.821123 0.0
12.4362 0.428257 0.0
36.7656 2.8886 0.0
40.1948 2.24688 0.0
23.0956 -1.8033 0.0
37.7412 3.63565 0.0
18.2213 0.160534 0.0
23.2449 -1.02021 0.0
27.695 -1.78295 0.0
13.0007 -0.296754 0.0
15.1028 0.150893 0.0
18.8194 0.637806 0.0
18.7601 0.335994 0.0
27.7758 -1.77895 0.0
15.786 0.294912 0.0
16.0458 0.517149 0.0
36.5255 2.43033 0.0
6.54539 0.521821 0.0
22.8006 1.97839 0.0
19.2669 -0.256224 0.0
33.8119 3.23651 0.0
37.2485 3.05814 0.0
26.5508 -1.90705 0.0
28.7986 -4.05082 0.0
13.456 -1.09726 0.0
0.807462 -5.33701 0.0
30.1809 -0.6522 0.0
6.98003 -0.821494 0.0
28.0801 -2.24701 0.0
19.1602 0.787746 0.0
16.8812 1.15818 0.0
32.8506 4.1294 0.0
35.9811 3.35449 0.0
38.9607 -1.13828 0.0
42.6199 -1.0753 0.0
5.79011 -0.134576 0.0
19.9194 1.2578 0.0
26.9193 1.70674 0.0
34.5004 -2.04349 0.0
38.5274 -0.965889 0.0
9.97188 -0.977295 0.0
42.2606 -1.69268 0.0
16.4077 0.689922 0.0
31.0658 -2.52508 0.0
16.1576 -0.554452 0.0
6.96713 -0.0579567 0.0
36.1816 1.81512 0.0
22.4517 -1.78313 0.0
31.4776 -1.31496 0.0
17.7533 1.38704 0.0
23.5122 3.26844 0.0
36.7667 -3.87615 0.0
27.2182 -2.75632 0.0
34.0794 3.09328 0.0
20.6561 1.47477 0.0
35.3982 -2.90783 0.0
16.0359 1.65371 0.0
15.893 1.98308 0.0
18.6118 -2.06413 0.0
11.186 -1.36466 0.0
19.2503 10.6285 0.0
24.918 2.54681 0.0
15.1106 10.4402 0.0
14.0241 -0.00807283 0.0
21.499 -0.266852 0.0
28.7544 -2.84357 0.0
30.2489 3.33532 0.0
24.6464 -0.850313 0.0
18.3064 -0.0495152 0.0
41.8947 -2.02822 0.0
37.8255 -4.31589 0.0
38.9694 0.81539 0.0
30.2036 2.86848 0.0
9.44979 1.07782 0.0
13.663 -0.581546 0.0
41.4605 1.84511 0.0
42.1912 -1.47842 0.0
16.5578 -0.288207 0.0
35.3705 1.79832 0.0
31.7914 -0.0240335 0.0
21.5563 2.95638 0.0
8.14942 7.68003 0.0
20.7642 0.369989 0.0
19.967 -2.22967 0.0
21.5368 0.583771 0.0
9.82048 -1.01989 0.0
20.3099 -1.36633 0.0
19.7826 -3.12456 0.0
16.529 0.0532381 0.0
8.94234 -1.06541 0.0
29.5335 -3.10992 0.0
14.9543 0.15003 0.0
29.1959 2.05336 0.0
30.4999 -1.93922 0.0
34.9374 -1.2348 0.0
20.63 0.277526 0.0
11.4839 -2.02575 0.0
10.331 1.4035 0.0
14.783 0.071491 0.0
18.9873 0.130517 0.0
15.253 -1.60782 0.0
25.0589 -1.37437 0.0
38.4015 3.67126 0.0
39.0178 2.06514 0.0
37.7603 3.40926 0.0
10.9922 -0.696984 0.0
20.5042 0.0950933 0.0
30.8988 -0.500203 0.0
20.5027 -0.926989 0.0
6.7678 1.2076 0.0
17.4985 2.06864 0.0
20.8354 -0.00289689 0.0
40.2545 -0.950311 0.0
32.4248 0.112317 0.0
16.6853 -0.388388 0.0
30.1778 -3.92374 0.0
34.7589 -0.443213 0.0
11.7054 -1.23983 0.0
16.377 -0.291262 0.0
36.0976 -2.54026 0.0
41.4268 1.5987 0.0
20.3889 -2.08484 0.0
32.3562 0.863055 0.0
27.5054 1.02408 0.0
18.7254 -0.607506 0.0
5.91184 -0.555325 0.0
19.5219 -0.458163 0.0
20.3224 -8.09146 0.0
25.4298 -1.06872 0.0
31.5765 2.82989 0.0
19.5903 -0.0619071 0.0
13.751 -0.532049 0.0
27.1742 -2.17456 0.0
24.8957 0.0553659 0.0
17.9987 0.0716332 0.0
27.4991 1.60527 0.0
10.7513 -0.793823 0.0
19.2 0.823115 0.0
11.9976 -0.497879 0.0
26.6744 -0.278667 0.0
36.6417 3.4933 0.0
40.3375 2.83101 0.0
20.2608 2.50273 0.0
16.3472 0.757122 0.0
19.4053 0.979323 0.0
11.1567 0.334231 0.0
12.8595 -0.193321 0.0
38.4111 0.527481 0.0
9.28775 -0.261417 0.0
16.428 0.898831 0.0
8.91145 -0.0900425 0.0
19.3984 -0.0471947 0.0
22.8443 -1.29699 0.0
19.2335 -1.47886 0.0
20.8603 -0.961006 0.0
29.6726 0.00788031 0.0
10.7214 1.11678 0.0
23.9563 1.53093 0.0
26.4622 -1.32104 0.0
13.3492 -0.0781545 0.0
19.8368 -0.207414 0.0
10.9563 -1.02944 0.0
36.7722 -0.0120438 0.0
23.3376 -1.7829 0.0
19.1141 -0.298949 0.0
18.9855 -0.333515 0.0
16.9423 -0.110903 0.0
37.9968 -4.07538 0.0
30.2596 -3.60209 0.0
35.7596 4.39661 0.0
9.97796 -0.00957304 0.0
17.2502 8.48041 0.0
39.2577 -0.0665216 0.0
20.8041 -0.288918 0.0
28.7475 -1.26907 0.0
5.91422 9.42596 0.0
19.3184 2.14152 0.0
15.5337 -8.97654 0.0
9.96995 -0.0925772 0.0
30.5971 -2.43116 0.0
36.7259 -0.233956 0.0
38.9498 -3.08814 0.0
18.807 0.456207 0.0
10.6367 0.175679 0.0
38.3265 0.173558 0.0
20.651 2.02528 0.0
36.9093 1.46775 0.0
21.4024 -0.416385 0.0
32.4166 -0.916675 0.0
10.5103 1.12377 0.0
23.7895 -1.47319 0.0
9.85863 -0.506834 0.0
7.36877 -0.091341 0.0
17.6233 -1.01492 0.0
28.8676 -1.45002 0.0
22.5179 1.34105 0.0
39.7412 -0.144177 0.0
35.8128 1.05334 0.0
36.4464 -0.00586725 0.0
15.9051 0.375913 0.0
37.8168 -1.70185 0.0
19.3909 -2.09458 0.0
36.4845 4.41641 0.0
12.5959 1.94241 0.0
33.4757 -0.870909 0.0
18.8153 1.64504 0.0
12.3804 0.13071 0.0
22.1341 -2.11238 0.0
23.6674 -2.31655 0.0
37.484 4.21693 0.0
26.1905 1.08934 0.0
37.3391 -1.58344 0.0
24.0803 -0.75085 0.0
32.0542 -3.62332 0.0
25.4005 0.948732 0.0
16.4935 -0.251798 0.0
15.9581 -0.278876 0.0
10.5752 -0.323865 0.0
18.7324 -1.0375 0.0
11.1423 0.955093 0.0
22.1766 -8.38377 0.0
21.8656 -1.35136 0.0
24.6708 -0.297367 0.0
24.9875 -0.264145 0.0
19.3707 0.522178 0.0
36.8258 4.35066 0.0
40.7632 2.92125 0.0
14.4136 -1.05946 0.0
38.9756 3.72569 0.0
31.8913 -1.80209 0.0
6.94983 0.0861676 0.0
32.3178 -3.05171 0.0
20.1749 0.997738 0.0
15.4915 -0.131983 0.0
16.1644 -0.300419 0.0
14.7976 0.410537 0.0
10.2451 0.87499 0.0
12.7521 -0.00444096 0.0
16.9785 7.99361 0.0
13.1887 1.08958 0.0
37.3998 4.42226 0.0
29.7371 -2.28146 0.0
18.6726 -0.302743 0.0
38.6587 3.12794 0.0
11.3701 1.04211 0.0
37.4283 -2.37041 0.0
40.3211 3.27054 0.0
13.4216 -2.07337 0.0
17.1796 1.01401 0.0
37.5824 0.22586 0.0
11.5464 -0.955346 0.0
14.5787 11.1469 0.0
11.929 -0.135687 0.0
36.5076 0.0842836 0.0
37.0859 1.11819 0.0
39.2948 0.503929 0.0
11.5505 -0.47157 0.0
34.4234 -3.31973 0.0
37.887 -4.6893 0.0
34.9517 -1.51274 0.0
10.3921 -1.03471 0.0
35.9266 0.0391288 0.0
37.8386 -3.54095 0.0
22.811 -2.52341 0.0
38.2099 3.725 0.0
31.6091 -2.06862 0.0
18.8707 -0.332521 0.0
7.96959 -0.172791 0.0
16.7494 -0.340731 0.0
6.58626 0.500884 0.0
6.69342 0.0448321 0.0
13.6548 -1.68713 0.0
37.6493 3.51456 0.0
10.7699 4.34048 0.0
38.527 3.61876 0.0
40.3711 2.67507 0.0
6.36841 -0.304106 0.0
36.2275 1.54774 0.0
5.37157 0.177243 0.0
6.5262 -0.440899 0.0
29.9932 2.99249 0.0
9.58321 0.753593 0.0
37.0269 -1.69232 0.0
35.6627 1.86172 0.0
5.5528 -0.3079 0.0
36.5981 0.802271 0.0
28.2295 -3.22186 0.0
38.7371 2.79533 0.0
13.4701 0.629693 0.0
27.9051 1.90575 0.0
38.6731 3.25017 0.0
5.81345 0.595342 0.0
42.0594 0.522365 0.0
31.9958 -4.38645 0.0
6.00237 -0.411703 0.0
6.08894 -0.559389 0.0
32.7204 -1.80078 0.0
6.18079 0.455701 0.0
30.2695 3.78986 0.0
34.8077 -1.87612 0.0
21.2909 -0.759257 0.0
8.6258 -0.0865708 0.0
12.026 0.524597 0.0
26.3549 0.581844 0.0
26.6038 0.171149 0.0
37.0078 -0.84641 0.0
24.921 -0.177667 0.0
12.7654 -0.855025 0.0
37.3883 3.57944 0.0
37.5976 -3.09763 0.0
38.7638 0.304446 0.0
36.8549 3.54464 0.0
35.9186 -0.180998 0.0
36.4938 4.00291 0.0
37.3836 0.172529 0.0
29.846 -1.98399 0.0
38.7821 2.33882 0.0
9.91432 1.01748 0.0
34.6674 0.0249653 0.0
26.8968 -0.931975 0.0
38.0915 -2.71295 0.0
8.66451 -0.945899 0.0
18.3941 -1.37861 0.0
36.8539 0.670841 0.0
8.33153 0.77377 0.0
37.2907 0.176064 0.0
36.9866 2.60439 0.0
6.80047 0.281089 0.0
26.8265 -0.81633 0.0
37.6868 3.03345 0.0
37.8777 0.0942611 0.0
32.5408 -4.1543 0.0
36.3253 -4.56103 0.0
6.8776 4.01201 0.0
9.89505 0.807641 0.0
21.3888 -1.61727 0.0
35.4847 -1.56614 0.0
26.7595 -2.46362 0.0
6.43567 0.0305694 0.0
36.8411 4.06052 0.0
39.8744 -2.92758 0.0
37.1241 -2.2177 0.0
38.0389 0.102345 0.0
3.8751 -0.174833 0.0
5.6959 0.465022 0.0
35.5213 2.85965 0.0
6.17535 0.575175 0.0
39.6547 3.55893 0.0
36.2552 2.71427 0.0
3.96948 0.00139357 0.0
6.15764 -0.503028 0.0
37.626 2.60237 0.0
34.8425 0.459556 0.0
3.78416 0.178263 0.0
31.1173 -0.185295 0.0
37.2834 0.211073 0.0
10.3547 -0.729372 0.0
37.8057 0.124719 0.0
34.6984 2.57022 0.0
37.303 -3.27177 0.0
38.4429 1.97375 0.0
6.41421 -0.60203 0.0
30.5119 -4.35678 0.0
6.69135 -0.138859 0.0
6.26421 0.462572 0.0
34.0593 -3.23654 0.0
6.2198 0.641274 0.0
34.889 2.94206 0.0
37.5885 2.21614 0.0
37.0147 -3.78943 0.0
37.2935 -4.70353 0.0
10.174 -1.09518 0.0
20.896 -0.0217469 0.0
36.8179 1.95994 0.0
5.69386 -0.363257 0.0
5.21974 0.402421 0.0
16.3947 -1.62523 0.0
9.82706 0.970962 0.0
37.7334 -0.765685 0.0
6.82062 -0.43894 0.0
21.5889 0.938324 0.0
39.6463 1.24126 0.0
9.45422 0.709565 0.0
11.5305 0.757773 0.0
37.6427 3.42687 0.0
6.57135 0.395853 0.0
37.696 1.54543 0.0
34.4011 2.21588 0.0
35.9002 0.426963 0.0
6.01856 -0.592105 0.0
4.67771 0.43012 0.0
8.30572 -0.383672 0.0
26.8494 -0.548263 0.0
13.0746 -1.67251 0.0
37.8293 0.168374 0.0
3.859 0.0999566 0.0
37.6686 -4.63495 0.0
10.2942 -0.374959 0.0
5.17358 0.411986 0.0
14.2998 -1.56012 0.0
37.6042 3.66199 0.0
10.0345 -0.646547 0.0
35.7428 0.348836 0.0
36.8388 1.83504 0.0
26.0485 -0.427565 0.0
37.3773 0.246602 0.0
33.9257 1.88775 0.0
21.6643 -1.5926 0.0
36.2012 0.698284 0.0
40.4089 -2.42667 0.0
33.3902 1.55005 0.0
6.31182 -0.669588 0.0
6.73212 0.692668 0.0
36.7515 -0.870641 0.0
4.93982 0.353779 0.0
31.5242 -3.55753 0.0
22.523 7.14428 0.0
37.5174 0.256131 0.0
5.06487 0.382628 0.0
5.80268 -0.398715 0.0
36.2891 1.42953 0.0
37.4289 3.59948 0.0
27.374 -0.19905 0.0
27.5076 -1.48065 0.0
33.0329 0.070299 0.0
24.459 -1.31283 0.0
18.555 -9.10238 0.0
33.4211 -0.154049 0.0
32.8128 2.33695 0.0
5.42069 -0.230021 0.0
32.9252 1.21821 0.0
29.617 6.91591 0.0
16.9594 -0.513227 0.0
37.9527 0.34107 0.0
4.18472 -0.41605 0.0
4.62156 0.42607 0.0
33.0758 2.6838 0.0
34.314 -0.182083 0.0
33.5027 -0.983707 0.0
19.5549 -0.172214 0.0
37.0529 1.70019 0.0
37.9211 0.202863 0.0
40.4283 -2.31545 0.0
5.5811 1.534 0.0
36.1826 0.580577 0.0
40.5655 -2.58173 0.0
31.9613 1.71658 0.0
33.1712 4.82431 0.0
10.9952 -2.55831 0.0
34.444 0.152329 0.0
6.90581 -5.18306 0.0
32.9969 -1.45925 0.0
35.7842 -1.10346 0.0
40.7962 2.80924 0.0
37.1114 2.06955 0.0
5.86025 -1.32649 0.0
32.5801 0.939706 0.0
35.4286 2.93223 0.0
31.4839 1.41751 0.0
38.6954 0.132547 0.0
32.4463 2.01702 0.0
35.3771 0.773184 0.0
23.5024 -0.91846 0.0
26.622 1.09149 0.0
11.5643 -3.78143 0.0
36.8371 -2.69742 0.0
15.7055 -0.162672 0.0
29.4363 -5.23159 0.0
9.3945 -6.87209 0.0
35.6855 -2.67145 0.0
38.131 0.175116 0.0
2.85252 -0.280547 0.0
2.92576 0.286163 0.0
35.0217 0.581278 0.0
36.1286 3.13414 0.0
32.3625 0.739301 0.0
28.1345 7.25242 0.0
6.09242 -0.167677 0.0
9.73478 -0.266682 0.0
7.6087 0.725766 0.0
3.63274 2.0955 0.0
7.74774 -3.64684 0.0
40.2723 -2.99547 0.0
38.8215 0.104919 0.0
36.2668 -3.89878 0.0
1.21508 1.1083 0.0
29.032 -0.0876424 0.0
30.7657 -0.0937106 0.0
32.8061 -4.3628 0.0
26.5129 7.01769 0.0
1.41789 -1.05661 0.0
4.02999 -1.88395 0.0
26.6979 0.545381 0.0
19.0073 1.11347 0.0
31.1675 1.12641 0.0
22.4306 -2.95333 0.0
34.4569 -0.0858703 0.0
36.2516 2.27405 0.0
35.5116 -0.0821625 0.0
30.1352 5.39977 0.0
37.7607 0.155337 0.0
3.72976 -0.290262 0.0
39.5961 3.58963 0.0
38.66 0.459758 0.0
35.6862 0.334876 0.0
38.6411 0.0413103 0.0
35.6273 -2.65173 0.0
3.58928 0.211275 0.0
38.3987 -0.147111 0.0
7.03358 -0.868416 0.0
17.0882 1.27612 0.0
25.7097 -0.347324 0.0
32.2201 0.622767 0.0
30.9208 0.881968 0.0
37.9521 1.3009 0.0
38.1465 1.04855 0.0
37.6485 1.50239 0.0
4.81996 0.29188 0.0
8.99249 0.515216 0.0
7.74363 -0.548936 0.0
38.4324 0.178882 0.0
34.77 0.407687 0.0
37.8977 -4.68873 0.0
6.83732 1.04026 0.0
37.5961 0.08352 0.0
35.3094 3.195 0.0
13.6602 7.45047 0.0
35.0911 -0.054096 0.0
3.29056 0.616238 0.0
33.9097 -0.102864 0.0
36.521 -0.984044 0.0
34.4964 -0.603841 0.0
26.2852 -0.339838 0.0
24.4058 -0.329582 0.0
33.4841 -0.156637 0.0
7.50161 0.251695 0.0
36.6065 3.8743 0.0
38.1504 -0.121718 0.0
36.0421 -0.212003 0.0
35.741 0.355836 0.0
32.2086 0.561743 0.0
18.5072 -0.00641183 0.0
34.7864 0.407925 0.0
41.9808 -1.7759 0.0
37.7797 0.0913729 0.0
9.41425 0.38769 0.0
33.2954 4.51716 0.0
3.53 -0.551523 0.0
38.5854 0.560504 0.0
38.452 0.365448 0.0
32.2879 0.544625 0.0
2.45006 0.882264 0.0
36.1997 -0.829221 0.0
38.1523 0.124067 0.0
37.699 1.17246 0.0
34.6568 -0.101695 0.0
38.1566 -0.351372 0.0
35.8959 0.378211 0.0
38.2308 0.183935 0.0
38.689 0.29581 0.0
38.0386 0.206757 0.0
32.5007 0.559143 0.0
4.32305 0.322054 0.0
14.421 0.978486 0.0
37.9962 -0.617277 0.0
35.9208 3.27907 0.0
2.6709 -0.808817 0.0
8.28741 -0.354064 0.0
35.4941 -2.7994 0.0
34.8534 2.96606 0.0
34.9301 0.432854 0.0
15.3838 -0.665045 0.0
35.7747 -0.204537 0.0
36.5098 -0.155619 0.0
25.7267 8.2171 0.0
8.06815 0.545295 0.0
4.06174 -0.355674 0.0
41.0987 -2.16212 0.0
29.8331 4.5763 0.0
36.251 -2.53351 0.0
38.6035 0.461384 0.0
12.6092 0.184423 0.0
35.1513 0.435856 0.0
30.7672 0.73879 0.0
37.6913 -0.0352511 0.0
3.8634 0.431212 0.0
36.1146 0.360555 0.0
37.7479 0.0299401 0.0
4.72174 -0.157194 0.0
32.8158 0.548808 0.0
37.6668 0.221737 0.0
38.4761 0.562164 0.0
36.553 0.168879 0.0
36.306 -0.226694 0.0
38.1119 0.0688109 0.0
33.0543 -0.791262 0.0
36.4787 -0.161912 0.0
36.3776 0.27722 0.0
35.896 0.116728 0.0
35.5746 -0.268033 0.0
4.43392 -0.227008 0.0
38.4797 0.320442 0.0
35.4066 -0.317175 0.0
5.88158 0.258326 0.0
38.036 0.00763591 0.0
9.13315 0.485137 0.0
35.4451 0.361617 0.0
36.1413 -0.284202 0.0
38.5087 0.447391 0.0
37.1709 -0.140743 0.0
36.6446 0.080956 0.0
38.3172 0.346782 0.0
18.3345 0.254481 0.0
33.6845 0.243023 0.0
32.0407 1.4162 0.0
33.1229 0.428803 0.0
4.27799 -0.0456553 0.0
37.648 0.198405 0.0
35.7242 0.227232 0.0
32.0386 -4.73682 0.0
3.40901 -0.315809 0.0
30.8201 0.607468 0.0
3.34274 0.234371 0.0
29.714 -4.32967 0.0
33.3423 1.60811 0.0
31.0087 0.601334 0.0
34.3059 -0.167987 0.0
35.2621 -0.342217 0.0
31.3634 0.612252 0.0
36.6912 -0.0573445 0.0
31.9986 -3.16996 0.0
30.8227 -5.45315 0.0
35.7249 -0.0593963 0.0
38.2993 0.583599 0.0
38.449 0.622674 0.0
38.4413 0.413397 0.0
36.0039 -0.321459 0.0
38.6148 0.450135 0.0
31.9697 -0.174672 0.0
38.5597 0.408102 0.0
34.9215 -0.202197 0.0
33.9031 0.112727 0.0
17.3556 0.489432 0.0
37.0359 0.0303319 0.0
38.6 0.404639 0.0
30.2111 -0.60845 0.0
38.3156 0.485088 0.0
35.89 -0.327145 0.0
35.1436 -0.327007 0.0
4.59855 0.252367 0.0
35.9912 0.035011 0.0
30.7476 0.656968 0.0
38.7445 0.386861 0.0
28.2999 -0.228129 0.0
9.8032 0.319802 0.0
34.0844 0.0185004 0.0
38.3456 0.340138 0.0
32.1725 0.33452 0.0
31.338 -0.174592 0.0
35.0466 -0.257639 0.0
38.3406 0.157148 0.0
35.8012 -0.288359 0.0
32.6483 0.174908 0.0
22.6618 5.73093 0.0
37.9491 -0.0609315 0.0
38.7574 0.331449 0.0
38.0528 0.916747 0.0
17.0215 -0.0919392 0.0
36.0467 -0.0348223 0.0
30.2332 -0.205514 0.0
5.30233 0.190806 0.0
9.07828 0.369143 0.0
35.7206 -0.203706 0.0
37.8604 0.327328 0.0
33.5661 -0.342016 0.0
34.9467 -0.147281 0.0
38.6036 0.251094 0.0
34.018 -0.232687 0.0
34.2247 -0.0574989 0.0
34.7999 -0.0263424 0.0
30.5037 -0.24034 0.0
33.143 -0.215339 0.0
38.85 0.255395 0.0
30.8677 -0.201078 0.0
38.2353 0.150682 0.0
33.3642 -0.372156 0.0
34.5406 -0.284032 0.0
32.858 -0.27361 0.0
30.1678 -0.289263 0.0
37.8705 0.309869 0.0
35.6174 -0.0939671 0.0
6.50202 0.21841 0.0
9.9559 0.316351 0.0
38.5804 0.0528675 0.0
38.2569 -0.0362358 0.0
31.629 0.573674 0.0
32.7446 0.00353148 0.0
33.0941 -0.0299198 0.0
38.5009 0.512996 0.0
34.5577 0.0738569 0.0
37.8606 0.843277 0.0
36.6824 0.00998388 0.0
29.8639 -0.341893 0.0
32.1658 -0.390065 0.0
32.8807 0.0568633 0.0
35.4542 0.0110645 0.0
38.8568 0.178311 0.0
37.6296 -0.104035 0.0
32.613 -0.32819 0.0
34.1498 1.32636 0.0
28.795 -0.268828 0.0
32.3816 -0.373382 0.0
29.5934 -0.395733 0.0
36.3263 1.54843 0.0
34.2199 0.120339 0.0
35.2081 0.0794391 0.0
33.2055 -0.356129 0.0
29.1805 -0.229415 0.0
31.6974 -0.051846 0.0
38.3491 0.327954 0.0
29.3137 -0.423593 0.0
32.0033 -0.332514 0.0
33.8651 0.0922719 0.0
19.4723 0.226687 0.0
37.3005 0.205591 0.0
29.025 -0.351649 0.0
17.0473 0.159261 0.0
28.4538 -0.316755 0.0
34.9106 0.0848869 0.0
28.8891 -0.187697 0.0
31.8548 -0.205872 0.0
29.6189 -0.209668 0.0
4.66606 -0.0740875 0.0
8.5712 -0.132289 0.0
19.3746 0.326416 0.0
33.7375 -0.30625 0.0
32.9386 -0.138529 0.0
33.5783 0.0120789 0.0
34.6327 0.0276862 0.0
28.676 -0.0133223 0.0
9.72003 0.148738 0.0
38.5108 0.2201 0.0
8.7992 -0.150263 0.0
38.8706 0.051784 0.0
33.4232 -0.0771804 0.0
28.1367 -0.371963 0.0
32.4094 0.121156 0.0
27.7623 -0.428358 0.0
38.8332 -0.0593265 0.0
31.9318 0.183247 0.0
4.82675 -0.0787227 0.0
8.68259 -0.148987 0.0
33.074 -0.270812 0.0
5.22526 0.0920135 0.0
34.4379 -0.0642843 0.0
27.468 -0.411 0.0
27.2513 -0.262559 0.0
31.4162 0.0868842 0.0
34.1676 -0.172804 0.0
38.5227 -0.0349991 0.0
31.4595 0.159878 0.0
31.0774 0.0708247 0.0
8.74154 -0.131647 0.0
5.012 -0.079438 0.0
16.2829 0.270818 0.0
27.0471 -0.0707459 0.0
30.9157 0.188839 0.0
33.7763 -0.291939 0.0
30.3367 0.220155 0.0
35.1982 -0.0724957 0.0
16.617 0.300607 0.0
29.8355 0.147133 0.0
34.4008 -0.142029 0.0
30.8466 -0.010176 0.0
8.83059 0.153585 0.0
4.54589 -0.0501444 0.0
3.82419 -0.0790368 0.0
4.88099 -0.0721963 0.0
8.71802 -0.0441687 0.0
9.27535 0.177615 0.0
4.16716 -0.0208806 0.0
4.72019 -0.000868251 0.0
8.53294 -0.125166 0.0
4.5754 -0.0453631 0.0
4.94 -0.0391611 0.0
5.24946 0.139376 0.0
9.39424 -0.135642 0.0
5.08502 0.0854486 0.0
8.4022 -0.0868339 0.0
4.88407 0.0830593 0.0
8.95819 -0.0624257 0.0
8.75277 -0.0331021 0.0
4.74676 0.155148 0.0
9.62345 0.204401 0.0
8.52535 -0.100685 0.0
8.32387 -0.111647 0.0
4.88202 0.245534 0.0
8.0734 -0.0693362 0.0
8.68776 0.201321 0.0
4.52406 -0.0158682 0.0
8.45263 -0.054882 0.0
5.11665 0.021903 0.0
4.53519 0.0946902 0.0
8.15141 -0.149498 0.0
4.86205 0.182679 0.0
5.8819 0.112777 0.0
4.96323 0.283846 0.0
4.16807 0.0823406 0.0
4.46792 -0.00939696 0.0
8.54131 0.0394648 0.0
4.69872 -0.0731551 0.0
4.81344 -0.0773048 0.0
4.96736 0.199962 0.0
5.01909 0.196593 0.0
4.91133 0.00197401 0.0
4.80429 0.0627132 0.0
4.08932 -0.0768227 0.0
4.62591 -0.0430652 0.0
5.76115 -0.00246994 0.0
9.54181 -0.0185174 0.0
5.05116 -0.0835604 0.0
5.9457 0.0819553 0.0
8.15718 0.166492 0.0
7.93199 -0.168612 0.0
4.59156 -0.0646856 0.0
5.03476 0.210815 0.0
4.65755 0.0525731 0.0
8.95364 0.0263757 0.0
4.4072 0.105067 0.0
4.88439 0.0845431 0.0
4.53949 -0.067774 0.0
8.95207 0.382165 0.0
5.58773 -0.0909987 0.0
4.02018 0.0200083 0.0
4.57981 0.0195271 0.0
3.88274 0.0489943 0.0
5.01675 0.0855773 0.0
5.071 -0.0214096 0.0
7.48666 -0.0731862 0.0
3.47179 -0.0279139 0.0
8.74254 0.363898 0.0
9.05359 0.143299 0.0
34.0444 -0.165674 0.0
33.4924 -0.114678 0.0
36.6855 -0.124244 0.0
29.4941 0.0500205 0.0
38.2386 -0.301602 0.0
38.4621 -0.138983 0.0
29.2459 0.0150814 0.0
38.3389 -0.31928 0.0
38.6616 -0.269389 0.0
38.4305 -0.338499 0.0
38.7622 -0.168227 0.0
30.8597 -0.00903467 0.0
33.7984 -0.111619 0.0
38.5551 -0.302272 0.0
32.8626 -0.147637 0.0
38.1164 -0.217497 0.0
34.5906 -0.169096 0.0
38.0581 -0.177612 0.0
36.2564 -0.250932 0.0
36.7377 -0.278178 0.0
25.7641 0.121131 0.0
38.1015 -0.347544 0.0
38.1675 -0.191932 0.0
37.003 -0.263222 0.0
38.3532 -0.28514 0.0
28.7313 -0.122383 0.0
36.0752 -0.102268 0.0
33.7179 -0.124203 0.0
37.9392 -0.333797 0.0
37.7006 -0.324863 0.0
38.1736 -0.261619 0.0
30.1638 -0.137551 0.0