# vtk DataFile Version 3.0
Malha 2D com triângulos e temperatura
ASCII
DATASET UNSTRUCTURED_GRID

POINTS 1194 double
0 0 0
5 0 0
5 1 0
0 1 0
0.85 0.5 0
0.842388 0.538268 0
0.820711 0.570711 0
0.788268 0.592388 0
0.75 0.6 0
0.711732 0.592388 0
0.679289 0.570711 0
0.657612 0.538268 0
0.65 0.5 0
0.657612 0.461732 0
0.679289 0.429289 0
0.711732 0.407612 0
0.75 0.4 0
0.788268 0.407612 0
0.820711 0.429289 0
0.842388 0.461732 0
0.0793651 0 0
0.15873 0 0
0.238095 0 0
0.31746 0 0
0.396825 0 0
0.47619 0 0
0.555556 0 0
0.634921 0 0
0.714286 0 0
0.793651 0 0
0.873016 0 0
0.952381 0 0
1.03175 0 0
1.11111 0 0
1.19048 0 0
1.26984 0 0
1.34921 0 0
1.42857 0 0
1.50794 0 0
1.5873 0 0
1.66667 0 0
1.74603 0 0
1.8254 0 0
1.90476 0 0
1.98413 0 0
2.06349 0 0
2.14286 0 0
2.22222 0 0
2.30159 0 0
2.38095 0 0
2.46032 0 0
2.53968 0 0
2.61905 0 0
2.69841 0 0
2.77778 0 0
2.85714 0 0
2.93651 0 0
3.01587 0 0
3.09524 0 0
3.1746 0 0
3.25397 0 0
3.33333 0 0
3.4127 0 0
3.49206 0 0
3.57143 0 0
3.65079 0 0
3.73016 0 0
3.80952 0 0
3.88889 0 0
3.96825 0 0
4.04762 0 0
4.12698 0 0
4.20635 0 0
4.28571 0 0
4.36508 0 0
4.44444 0 0
4.52381 0 0
4.60317 0 0
4.68254 0 0
4.7619 0 0
4.84127 0 0
4.92063 0 0
5 0.0769231 0
5 0.153846 0
5 0.230769 0
5 0.307692 0
5 0.384615 0
5 0.461538 0
5 0.538462 0
5 0.615385 0
5 0.692308 0
5 0.769231 0
5 0.846154 0
5 0.923077 0
4.92063 1 0
4.84127 1 0
4.7619 1 0
4.68254 1 0
4.60317 1 0
4.52381 1 0
4.44444 1 0
4.36508 1 0
4.28571 1 0
4.20635 1 0
4.12698 1 0
4.04762 1 0
3.96825 1 0
3.88889 1 0
3.80952 1 0
3.73016 1 0
3.65079 1 0
3.57143 1 0
3.49206 1 0
3.4127 1 0
3.33333 1 0
3.25397 1 0
3.1746 1 0
3.09524 1 0
3.01587 1 0
2.93651 1 0
2.85714 1 0
2.77778 1 0
2.69841 1 0
2.61905 1 0
2.53968 1 0
2.46032 1 0
2.38095 1 0
2.30159 1 0
2.22222 1 0
2.14286 1 0
2.06349 1 0
1.98413 1 0
1.90476 1 0
1.8254 1 0
1.74603 1 0
1.66667 1 0
1.5873 1 0
1.50794 1 0
1.42857 1 0
1.34921 1 0
1.26984 1 0
1.19048 1 0
1.11111 1 0
1.03175 1 0
0.952381 1 0
0.873016 1 0
0.793651 1 0
0.714286 1 0
0.634921 1 0
0.555556 1 0
0.47619 1 0
0.396825 1 0
0.31746 1 0
0.238095 1 0
0.15873 1 0
0.0793651 1 0
0 0.923077 0
0 0.846154 0
0 0.769231 0
0 0.692308 0
0 0.615385 0
0 0.538462 0
0 0.461538 0
0 0.384615 0
0 0.307692 0
0 0.230769 0
0 0.153846 0
0 0.0769231 0
0.879698 0.466718 0
1.3085 0.931947 0
1.30532 0.0638546 0
4.93832 0.504275 0
0.620452 0.46964 0
3.99858 0.0669607 0
1.63721 0.934258 0
3.3751 0.0523709 0
4.3254 0.0687322 0
2.42354 0.0642082 0
2.97619 0.0687322 0
2.02101 0.0693621 0
3.68108 0.0581336 0
2.65899 0.932655 0
4.178 0.939994 0
3.21614 0.938179 0
2.25483 0.919987 0
3.53215 0.928998 0
3.84921 0.931268 0
1.69647 0.0674297 0
1.94349 0.930209 0
4.48413 0.931268 0
2.97813 0.942022 0
2.74097 0.0673855 0
0.859645 0.573263 0
0.639718 0.573116 0
0.0651563 0.652836 0
0.0635304 0.346121 0
4.56232 0.0679683 0
0.830393 0.392645 0
0.669618 0.39275 0
1.06185 0.0668897 0
0.440193 0.0680031 0
1.06474 0.93511 0
0.446074 0.935974 0
0.724697 0.630698 0
4.72268 0.931235 0
4.93065 0.267192 0
0.589836 0.936152 0
0.92338 0.0562425 0
0.590207 0.0623339 0
0.755872 0.0732784 0
0.838039 0.936714 0
4.92573 0.732039 0
0.281717 0.93783 0
0.28208 0.0811877 0
0.065248 0.503161 0
1.46076 0.0637037 0
4.72574 0.0661877 0
4.31028 0.937908 0
3.21429 0.0687322 0
1.46639 0.932632 0
3.6897 0.928155 0
2.42063 0.931268 0
3.5364 0.0691789 0
2.25998 0.0676208 0
1.78735 0.937047 0
4.01535 0.920637 0
1.85469 0.0674188 0
3.83991 0.0626292 0
3.37477 0.929368 0
2.58225 0.0657863 0
2.81746 0.932342 0
4.16667 0.0687322 0
2.11402 0.935574 0
0.0614266 0.197046 0
0.0612841 0.803003 0
4.88273 0.0644126 0
4.87774 0.933272 0
0.859645 0.426737 0
0.903081 0.436592 0
0.923672 0.473385 0
0.948706 0.439078 0
0.969155 0.479795 0
0.996593 0.439791 0
1.0202 0.484937 0
1.04667 0.440138 0
1.07382 0.489694 0
1.1034 0.440801 0
1.13169 0.49612 0
1.16603 0.445058 0
1.1931 0.504331 0
1.22956 0.450883 0
1.25923 0.506004 0
1.29683 0.453139 0
1.32923 0.510343 0
1.36603 0.454344 0
1.03276 0.530395 0
1.40063 0.516169 0
1.43576 0.454934 0
1.47042 0.520776 0
1.51069 0.46142 0
1.54422 0.526371 0
1.58547 0.465572 0
1.61942 0.531773 0
1.66033 0.468788 0
1.69546 0.536793 0
1.73713 0.472812 0
1.77239 0.541977 0
1.81532 0.478494 0
1.85006 0.547285 0
1.89327 0.483449 0
1.92802 0.55361 0
1.97142 0.488546 0
2.00623 0.558966 0
2.04984 0.493518 0
2.08483 0.564085 0
2.12847 0.498462 0
2.16353 0.569137 0
2.20719 0.503331 0
0.961579 0.391697 0
1.22451 0.565337 0
2.24238 0.574192 0
2.28611 0.508258 0
2.32134 0.579247 0
2.36519 0.513325 0
2.40036 0.584295 0
2.44425 0.51834 0
2.47944 0.589336 0
2.52334 0.523355 0
2.55853 0.594372 0
2.60245 0.52837 0
2.63764 0.599431 0
2.68159 0.533388 0
2.64637 0.462336 0
2.72553 0.467349 0
2.76076 0.538418 0
2.8047 0.47237 0
2.83993 0.543451 0
2.88387 0.477399 0
2.91911 0.548482 0
2.96305 0.482427 0
2.9983 0.553514 0
3.04224 0.487456 0
3.07749 0.558545 0
3.12143 0.492477 0
3.15668 0.563574 0
3.20063 0.497514 0
3.23588 0.568605 0
3.27983 0.502542 0
3.31508 0.573635 0
3.35903 0.507562 0
3.39428 0.578663 0
3.43823 0.5126 0
3.47348 0.583694 0
3.51744 0.517628 0
3.55268 0.588724 0
3.59664 0.522646 0
3.63189 0.593752 0
3.67585 0.527673 0
3.71109 0.598781 0
3.75505 0.532702 0
3.7903 0.60381 0
3.83426 0.537731 0
3.79901 0.466623 0
3.87821 0.471754 0
3.91346 0.542777 0
3.95742 0.476701 0
3.99267 0.547795 0
4.03662 0.481715 0
4.07187 0.552815 0
4.11582 0.486743 0
4.15106 0.55783 0
4.195 0.491782 0
4.23023 0.562843 0
4.27415 0.49682 0
4.30937 0.567866 0
4.35325 0.501915 0
4.38842 0.572845 0
4.43227 0.506997 0
4.46737 0.577575 0
4.51106 0.511995 0
4.54622 0.582183 0
1.13571 0.390292 0
4.47606 0.441361 0
4.55475 0.446396 0
2.32985 0.442214 0
3.5614 0.451571 0
3.08619 0.421408 0
2.09339 0.427815 0
1.42887 0.583001 0
2.84864 0.406329 0
3.32378 0.43649 0
4.23911 0.425894 0
1.54723 0.39251 0
1.77883 0.406811 0
1.33959 0.387065 0
3.92239 0.405803 0
4.08079 0.415776 0
2.48812 0.452349 0
1.57935 0.603183 0
1.93602 0.417543 0
1.72453 0.617973 0
3.11273 0.629643 0
2.69029 0.396284 0
3.94662 0.623383 0
1.88466 0.613248 0
2.79598 0.609502 0
4.10826 0.620575 0
2.04005 0.62838 0
2.95434 0.619575 0
4.51981 0.375801 0
4.59833 0.380943 0
4.63314 0.451296 0
4.26693 0.63114 0
2.19619 0.645921 0
4.4246 0.642296 0
3.27112 0.639707 0
2.35729 0.649822 0
2.51462 0.660373 0
3.42952 0.649769 0
4.67669 0.38601 0
3.58793 0.659829 0
3.74634 0.669888 0
4.64195 0.315733 0
4.44109 0.370647 0
4.48493 0.305066 0
4.40614 0.29989 0
4.71136 0.456133 0
4.72014 0.320758 0
0.8692 0.382093 0
0.841252 0.348256 0
0.886481 0.338703 0
0.853127 0.301457 0
0.902583 0.287335 0
0.801683 0.321689 0
0.818113 0.263019 0
0.764765 0.277091 0
4.44702 0.235678 0
0.946267 0.520761 0
0.78107 0.221265 0
0.726309 0.234724 0
0.848273 0.20551 0
4.68545 0.250576 0
4.37074 0.227561 0
4.76365 0.255792 0
4.79822 0.326145 0
0.713664 0.287231 0
0.672358 0.247957 0
0.68673 0.192342 0
0.630368 0.2085 0
0.616569 0.265341 0
0.574186 0.225456 0
0.557393 0.28131 0
0.52004 0.242373 0
0.504416 0.299685 0
0.462273 0.252096 0
0.44798 0.316739 0
0.404567 0.276951 0
0.390546 0.335414 0
0.434669 0.37657 0
0.377935 0.394545 0
0.421979 0.43426 0
0.365682 0.452846 0
0.409646 0.492216 0
0.353389 0.51089 0
0.397738 0.551598 0
0.339864 0.570301 0
0.385899 0.612153 0
0.325913 0.631557 0
0.344507 0.29318 0
0.320568 0.413067 0
0.373553 0.673852 0
0.434438 0.653082 0
0.311416 0.69481 0
0.449777 0.528305 0
0.293513 0.534612 0
0.421431 0.715204 0
0.480917 0.696603 0
0.54504 0.34471 0
0.262743 0.649913 0
0.246209 0.712341 0
0.468564 0.755948 0
0.526091 0.735423 0
0.538207 0.68039 0
0.581228 0.716342 0
0.408756 0.777952 0
0.36234 0.239019 0
0.297047 0.251925 0
0.572109 0.771575 0
0.624906 0.752173 0
0.474824 0.414151 0
0.534351 0.182707 0
0.633682 0.70159 0
0.674547 0.736174 0
0.66826 0.788959 0
0.721117 0.76834 0
0.714515 0.825486 0
0.769074 0.802008 0
0.775287 0.746591 0
0.821903 0.778625 0
0.826767 0.726064 0
0.873257 0.756032 0
0.872997 0.697261 0
0.92331 0.732304 0
0.930014 0.67838 0
0.976061 0.710612 0
0.92456 0.784469 0
0.982178 0.654421 0
1.03016 0.688004 0
1.02037 0.747059 0
1.08 0.723819 0
1.08651 0.661896 0
1.1397 0.698204 0
1.13262 0.763657 0
1.19424 0.736545 0
1.18556 0.80161 0
1.24839 0.771772 0
1.25723 0.706382 0
1.31432 0.745787 0
4.66801 0.521361 0
4.74602 0.526202 0
4.70285 0.591278 0
4.78076 0.596023 0
4.73763 0.661207 0
4.78904 0.460969 0
2.61113 0.391267 0
2.65506 0.325217 0
2.57588 0.320198 0
2.61982 0.254148 0
2.69899 0.259163 0
2.54065 0.249131 0
2.49672 0.315179 0
2.46148 0.244124 0
2.41757 0.310166 0
2.38233 0.239117 0
2.33843 0.30514 0
2.30297 0.237979 0
2.25928 0.300748 0
2.22079 0.221377 0
2.17969 0.293884 0
2.14114 0.224266 0
2.10047 0.289841 0
2.0653 0.219144 0
2.02202 0.284919 0
1.98701 0.214164 0
1.94336 0.279863 0
3.82315 0.673327 0
3.78135 0.738156 0
3.86451 0.735958 0
3.70234 0.735494 0
4.52513 0.244409 0
4.32717 0.294467 0
4.29217 0.221862 0
0.619934 0.539507 0
0.599432 0.577132 0
0.575955 0.542712 0
0.554504 0.58245 0
4.65962 0.656481 0
4.69438 0.726169 0
4.6161 0.721747 0
4.77259 0.731352 0
4.65076 0.791486 0
4.57153 0.788793 0
4.2482 0.289182 0
4.21307 0.218308 0
4.1691 0.284563 0
4.13394 0.21352 0
0.835918 0.606341 0
0.806475 0.6384 0
4.08995 0.279537 0
0.640355 0.426737 0
0.596214 0.435837 0
0.630358 0.379178 0
0.689967 0.627735 0
1.90832 0.209948 0
1.86468 0.27519 0
1.82968 0.20518 0
1.78607 0.269797 0
0.281841 0.313314 0
0.232117 0.268621 0
0.216861 0.334396 0
4.05473 0.209347 0
4.01077 0.2745 0
3.97554 0.204394 0
3.93159 0.269388 0
0.297409 0.759367 0
0.231645 0.782943 0
0.180008 0.73598 0
1.32151 0.676369 0
1.38055 0.718092 0
1.36901 0.793947 0
1.43945 0.766002 0
0.249902 0.198865 0
0.932364 0.624392 0
1.75117 0.201034 0
1.70771 0.264658 0
1.673 0.195402 0
1.62985 0.260294 0
1.59532 0.191927 0
1.55236 0.254233 0
3.89629 0.200227 0
3.85238 0.264494 0
3.81708 0.195303 0
3.77304 0.259453 0
2.66368 0.189084 0
2.74279 0.19534 0
2.77814 0.264556 0
2.82201 0.199823 0
2.85733 0.269552 0
2.90126 0.203886 0
2.93654 0.274416 0
2.98045 0.20868 0
3.01573 0.279376 0
3.0597 0.213193 0
[...]
CELL_DATA 2220
VECTORS velocity double
34.5769 -1.74758 0.0
24.6482 0.755346 0.0
30.4341 0.719351 0.0
23.556 2.51408 0.0
35.2838 -1.96035 0.0
45.2303 -1.4278 0.0
20.8897 0.721271 0.0
23.226 -0.0348552 0.0
39.7294 2.89481 0.0
44.0845 -1.07588 0.0
23.7413 0.470763 0.0
22.1326 0.389575 0.0
17.6453 0.292008 0.0
34.723 -2.50062 0.0
26.1489 -0.307814 0.0
35.4008 3.23906 0.0
23.6819 1.28201 0.0
19.2951 0.943792 0.0
21.7267 -0.22025 0.0
23.4466 -0.197853 0.0
25.5313 0.477533 0.0
31.7475 3.93579 0.0
22.3152 1.08876 0.0
22.9151 0.849943 0.0
47.1235 -0.628873 0.0
32.3243 -2.33987 0.0
23.4406 1.23486 0.0
19.7474 0.826574 0.0
23.1683 2.3763 0.0
25.5076 1.75657 0.0
41.6596 -1.4005 0.0
31.5763 3.28532 0.0
16.1646 -0.192112 0.0
32.723 1.32903 0.0
38.1326 -3.96897 0.0
45.6494 -1.52765 0.0
37.1128 -4.33996 0.0
18.957 -0.207024 0.0
27.0578 2.73021 0.0
28.5279 2.16878 0.0
14.2932 0.69145 0.0
39.9412 3.13538 0.0
19.906 2.16305 0.0
21.0561 -0.0170596 0.0
19.2924 -0.0554732 0.0
17.1201 -0.0103674 0.0
22.0266 0.962756 0.0
17.4397 -0.0188251 0.0
43.6099 -0.961586 0.0
48.5693 0.3716 0.0
20.818 0.651945 0.0
17.4211 0.15528 0.0
21.8014 0.908438 0.0
22.0324 0.175718 0.0
19.8723 1.03646 0.0
28.9546 1.95808 0.0
33.7062 3.44689 0.0
18.586 0.803047 0.0
19.0007 0.846112 0.0
49.3739 0.223689 0.0
-0.342251 -8.42413 0.0
48.0213 -1.06088 0.0
42.988 -2.02899 0.0
22.2777 0.919846 0.0
22.2422 0.936598 0.0
36.0397 1.28605 0.0
18.5176 -1.96984 0.0
38.0571 3.40637 0.0
18.9426 0.899237 0.0
19.1082 0.863373 0.0
21.8598 0.253748 0.0
33.8707 -1.75213 0.0
17.1028 0.243199 0.0
47.0901 0.907516 0.0
13.5353 0.430541 0.0
40.1484 2.95139 0.0
45.3197 2.29591 0.0
25.1872 -1.84344 0.0
41.173 3.65252 0.0
20.6781 0.156895 0.0
24.6132 -1.08599 0.0
29.3977 -1.86819 0.0
13.7114 -0.303147 0.0
17.0564 0.146903 0.0
21.3761 0.668271 0.0
21.3133 0.34303 0.0
31.4592 -1.89325 0.0
17.8534 0.298212 0.0
18.1539 0.537331 0.0
39.1572 2.3978 0.0
7.11037 0.525473 0.0
24.4876 1.99225 0.0
21.9497 -0.273903 0.0
37.1801 3.30257 0.0
40.6473 3.13038 0.0
28.1904 -1.99159 0.0
31.0906 -4.1201 0.0
14.2773 -1.07951 0.0
0.494227 -6.30942 0.0
32.0867 -0.717203 0.0
7.41927 -0.813629 0.0
30.7795 -2.2969 0.0
21.7687 0.840718 0.0
18.9834 1.22471 0.0
35.3206 4.21644 0.0
39.2097 3.4241 0.0
46.1785 -1.24158 0.0
49.7478 -1.12296 0.0
6.39116 -0.189193 0.0
22.544 1.3362 0.0
28.7978 1.7522 0.0
37.0058 -2.01672 0.0
45.7063 -1.06564 0.0
10.4762 -1.00428 0.0
48.768 -1.75574 0.0
18.5662 0.72645 0.0
33.9601 -2.56546 0.0
17.0977 -0.566902 0.0
7.35482 -0.0464201 0.0
38.6746 1.77077 0.0
24.7426 -1.84455 0.0
34.0913 -1.36345 0.0
18.9597 1.39271 0.0
25.248 3.3214 0.0
40.038 -3.96844 0.0
29.4799 -2.74407 0.0
37.1302 3.15161 0.0
21.8745 1.50702 0.0
38.4741 -2.91916 0.0
17.4084 1.65333 0.0
17.1402 2.83058 0.0
20.1825 -2.094 0.0
12.1106 -1.38156 0.0
18.4121 15.5313 0.0
26.5179 2.61564 0.0
13.7826 14.3958 0.0
15.7989 -0.0147108 0.0
22.7488 -0.232695 0.0
31.0524 -2.82688 0.0
32.4084 3.43546 0.0
26.1825 -0.82104 0.0
20.7526 -0.0591861 0.0
48.0782 -2.09374 0.0
41.1077 -4.42445 0.0
45.9552 0.906148 0.0
33.0449 2.92532 0.0
10.2349 1.07726 0.0
14.4581 -0.560285 0.0
47.9663 1.95336 0.0
49.1547 -1.54997 0.0
18.7205 -0.349071 0.0
37.787 1.75609 0.0
34.4643 -0.0324694 0.0
23.0555 3.00558 0.0
7.13409 9.69963 0.0
23.5843 0.389798 0.0
21.1326 -2.28858 0.0
24.5394 0.610465 0.0
10.1717 -1.03747 0.0
21.751 -1.36945 0.0
21.2605 -3.16979 0.0
18.6447 0.0301796 0.0
9.67275 -1.06167 0.0
31.5749 -3.21443 0.0
16.9336 0.146291 0.0
31.0583 2.12364 0.0
32.5679 -1.89793 0.0
38.2537 -1.26993 0.0
23.4321 0.29569 0.0
12.3168 -2.05068 0.0
11.0567 1.39741 0.0
16.6752 0.0551979 0.0
21.62 0.125466 0.0
16.5286 -1.60176 0.0
27.4668 -1.37019 0.0
42.1769 3.70257 0.0
43.802 2.10206 0.0
41.6621 3.44069 0.0
11.6963 -0.698314 0.0
23.241 0.0703547 0.0
33.451 -0.521987 0.0
21.7937 -0.91105 0.0
7.22173 1.22131 0.0
18.7737 2.05903 0.0
23.7165 -0.0187612 0.0
45.67 -0.960195 0.0
35.4838 0.105136 0.0
18.729 -0.622304 0.0
32.6668 -3.99405 0.0
38.0761 -0.462223 0.0
12.1679 -1.2621 0.0
18.5708 -0.305506 0.0
38.8683 -2.52071 0.0
48.1219 1.70405 0.0
21.674 -2.15395 0.0
35.3984 0.870581 0.0
31.6616 1.27545 0.0
21.026 -0.953384 0.0
6.20341 -0.571193 0.0
22.165 -0.534307 0.0
22.3838 -14.4624 0.0
28.8656 -1.70659 0.0
33.6655 2.91137 0.0
22.3247 -0.115565 0.0
14.4876 -0.568202 0.0
30.142 -2.25245 0.0
26.3521 0.103048 0.0
20.4058 0.0492476 0.0
31.2359 2.36551 0.0
11.663 -0.815996 0.0
21.9149 0.869424 0.0
12.6899 -0.521599 0.0
30.7968 -0.305656 0.0
39.8418 3.49956 0.0
45.339 2.8916 0.0
22.0975 3.61111 0.0
18.5772 0.799133 0.0
22.0951 1.04228 0.0
11.7546 0.320631 0.0
13.9982 -0.198381 0.0
45.4616 0.602234 0.0
10.3059 -0.380183 0.0
18.6077 0.954454 0.0
9.91001 -0.155578 0.0
22.089 -0.0905132 0.0
25.6193 -2.0137 0.0
21.0157 -1.52116 0.0
22.1254 -1.00565 0.0
31.4826 0.0672266 0.0
11.3244 1.14793 0.0
26.9357 2.2171 0.0
30.1776 -1.43713 0.0
14.9577 -0.140467 0.0
22.4409 -0.378339 0.0
11.5772 -1.06356 0.0
40.3152 -0.0246807 0.0
25.4682 -1.77739 0.0
21.7652 -0.316481 0.0
21.614 -0.349992 0.0
19.0945 -0.204795 0.0
41.3184 -4.18624 0.0
32.3249 -3.68493 0.0
38.5225 4.49722 0.0
11.1454 -0.0169716 0.0
16.6529 11.6267 0.0
46.8164 -0.0492122 0.0
23.5599 -0.52094 0.0
30.9845 -1.31289 0.0
4.71548 11.8295 0.0
20.5196 2.20222 0.0
14.791 -12.6666 0.0
11.1419 -0.100136 0.0
32.789 -2.39877 0.0
43.3516 -0.276566 0.0
43.4411 -3.11923 0.0
21.3683 0.472759 0.0
11.6031 0.177513 0.0
45.5646 0.2167 0.0
21.9274 2.09068 0.0
40.4175 1.49555 0.0
24.4355 -0.435555 0.0
35.1843 -0.95407 0.0
11.0941 1.15326 0.0
25.4335 -1.4661 0.0
10.9538 -0.544785 0.0
7.71061 -0.0945095 0.0
19.528 -1.54788 0.0
31.7795 -1.44717 0.0
23.9488 1.32559 0.0
47.4112 -0.135173 0.0
41.9642 1.16062 0.0
42.7324 -0.0263621 0.0
17.9947 0.385875 0.0
44.176 -1.8397 0.0
20.9465 -2.08476 0.0
39.4372 4.51676 0.0
13.4187 1.96943 0.0
37.1955 -0.869445 0.0
20.3444 1.67465 0.0
13.0498 0.132934 0.0
23.7017 -2.09136 0.0
25.1947 -2.39798 0.0
40.61 4.32385 0.0
29.9949 1.39666 0.0
43.7189 -1.72014 0.0
27.3384 -1.22147 0.0
34.3672 -3.73735 0.0
29.1425 1.13878 0.0
18.7088 -0.266559 0.0
18.0814 -0.289385 0.0
11.5308 -0.321546 0.0
21.0291 -1.11505 0.0
11.9709 0.971212 0.0
23.5993 -14.0881 0.0
24.5648 -1.44011 0.0
28.373 -0.321596 0.0
28.7566 -0.288719 0.0
20.5804 0.533736 0.0
39.5731 4.46068 0.0
45.9958 2.99667 0.0
15.7206 -1.59034 0.0
42.9717 3.77113 0.0
34.1585 -1.77971 0.0
7.26794 0.0871847 0.0
34.9391 -3.03447 0.0
22.6956 1.31622 0.0
17.4204 -0.246378 0.0
18.324 -0.313197 0.0
15.632 0.418376 0.0
11.1028 0.898904 0.0
13.4198 -0.0298734 0.0
18.8817 16.1938 0.0
13.9927 1.07343 0.0
40.4232 4.53215 0.0
31.6511 -2.35701 0.0
21.2415 -0.314002 0.0
42.9656 3.16904 0.0
12.0065 1.07537 0.0
40.9345 -2.44033 0.0
45.3278 3.35425 0.0
14.2816 -2.10451 0.0
18.2503 1.00783 0.0
44.6165 0.272324 0.0
12.19 -0.990767 0.0
13.1822 19.9308 0.0
12.56 -0.118094 0.0
42.7882 0.0609437 0.0
43.4835 1.22779 0.0
46.5302 0.574954 0.0
12.2112 -0.463051 0.0
37.4245 -3.31104 0.0
41.0367 -4.80561 0.0
38.8815 -1.51613 0.0
10.9634 -1.06575 0.0
38.2418 0.114409 0.0
41.2366 -3.64088 0.0
24.2978 -2.6015 0.0
41.9303 3.76835 0.0
34.171 -2.14028 0.0
21.4783 -0.346901 0.0
8.36716 -0.190677 0.0
18.9783 -0.354918 0.0
6.9312 0.519001 0.0
7.02099 0.0564375 0.0
14.4918 -1.7182 0.0
40.8924 3.52625 0.0
10.4969 5.69889 0.0
42.7753 3.69385 0.0
46.0279 2.78966 0.0
6.73021 -0.302017 0.0
38.5553 1.64103 0.0
5.64868 0.172672 0.0
6.86354 -0.459394 0.0
32.6605 2.99525 0.0
10.5476 0.786854 0.0
40.5522 -1.74335 0.0
37.9723 1.95389 0.0
6.11368 -0.327275 0.0
43.0777 0.896135 0.0
30.2116 -3.32105 0.0
43.9547 2.91672 0.0
14.2634 0.609951 0.0
29.8029 1.89036 0.0
43.4373 3.35265 0.0
6.11872 0.611057 0.0
49.4727 0.579846 0.0
34.3345 -4.47552 0.0
6.39109 -0.415098 0.0
6.40848 -0.577001 0.0
35.4784 -1.86462 0.0
6.58026 0.461068 0.0
32.7224 3.85711 0.0
37.0684 -1.96747 0.0
24.1831 -0.848561 0.0
9.6652 -0.090177 0.0
12.6433 0.533794 0.0
30.2709 0.612941 0.0
30.603 0.160929 0.0
40.5568 -0.879613 0.0
28.5986 -0.18963 0.0
13.4603 -0.892334 0.0
40.6916 3.66882 0.0
41.0603 -3.18238 0.0
46.0208 0.360719 0.0
40.0351 3.64008 0.0
42.2796 -0.220929 0.0
39.0965 4.11061 0.0
44.389 0.208312 0.0
32.0539 -1.97586 0.0
44.4386 2.46938 0.0
10.4207 1.04233 0.0
40.4759 0.00584309 0.0
28.915 -0.96174 0.0
42.4892 -2.73416 0.0
9.03784 -0.965601 0.0
20.2867 -1.43477 0.0
40.3736 0.676412 0.0
8.68928 0.790861 0.0
44.2621 0.20475 0.0
40.3769 2.66763 0.0
7.09435 0.285466 0.0
28.4268 -0.887705 0.0
42.4507 3.14691 0.0
45.0449 0.11859 0.0
34.8538 -4.24629 0.0
39.0452 -4.67138 0.0
6.33878 5.0785 0.0
10.8136 0.837636 0.0
22.6707 -1.68521 0.0
37.8947 -1.51258 0.0
28.7336 -2.44045 0.0
6.7545 0.0201887 0.0
39.8602 4.17128 0.0
44.7709 -2.97178 0.0
40.5675 -2.28857 0.0
45.2473 0.134257 0.0
4.0095 -0.178435 0.0
6.11889 0.475175 0.0
38.21 2.848 0.0
6.50173 0.592279 0.0
44.2272 3.63302 0.0
39.4645 2.7871 0.0
4.12475 0.000874245 0.0
6.48336 -0.521092 0.0
42.8 2.73109 0.0
41.0562 0.520663 0.0
3.915 0.1809 0.0
36.1139 -0.205322 0.0
44.2237 0.235689 0.0
11.3259 -0.758865 0.0
44.9317 0.144756 0.0
39.2389 2.69548 0.0
40.6269 -3.37099 0.0
44.4533 2.10418 0.0
6.6404 -0.611072 0.0
32.865 -4.43609 0.0
7.03613 -0.131503 0.0
6.4766 0.46985 0.0
37.2445 -3.23477 0.0
6.52947 0.656841 0.0
39.0728 3.05072 0.0
43.1689 2.35069 0.0
39.6175 -3.90825 0.0
40.16 -4.82078 0.0
10.5677 -1.11534 0.0
22.0879 -0.0652227 0.0
40.2548 2.00344 0.0
6.2206 -0.380306 0.0
5.69589 0.418625 0.0
17.7803 -2.40772 0.0
10.1651 0.985963 0.0
44.7391 -0.856457 0.0
7.08781 -0.447452 0.0
22.9708 0.959747 0.0
46.4525 1.3477 0.0
10.4764 0.744628 0.0
12.0679 0.771478 0.0
41.9412 3.51619 0.0
6.82742 0.402377 0.0
43.9263 1.66827 0.0
39.2511 2.3487 0.0
42.4038 0.489526 0.0
6.27987 -0.606149 0.0
4.88046 0.440032 0.0
8.72872 -0.405679 0.0
30.7627 -0.959233 0.0
13.8603 -2.41639 0.0
44.9229 0.186438 0.0
4.00406 0.101244 0.0
40.5247 -4.75965 0.0
11.4997 -0.415876 0.0
5.60286 0.425154 0.0
14.9608 -1.5934 0.0
41.4162 3.72049 0.0
11.0673 -0.681225 0.0
42.2327 0.399197 0.0
42.6377 1.96646 0.0
27.5881 -0.488732 0.0
44.297 0.269152 0.0
39.014 2.01955 0.0
24.0943 -1.66797 0.0
38.5161 0.782487 0.0
46.3888 -2.53531 0.0
38.6559 1.67392 0.0
6.52613 -0.680815 0.0
6.95982 0.703352 0.0
40.2267 -0.906769 0.0
5.45832 0.371278 0.0
33.8127 -3.66925 0.0
23.3837 10.2137 0.0
44.4256 0.277739 0.0
5.56438 0.400023 0.0
6.29005 -0.41221 0.0
42.3025 1.5512 0.0
40.785 3.62522 0.0
31.5181 -0.214281 0.0
29.5581 -1.53106 0.0
38.3709 0.0506376 0.0
26.1382 -1.35561 0.0
18.3183 -13.5607 0.0
39.0882 -0.16535 0.0
37.1629 2.46262 0.0
6.00416 -0.250276 0.0
38.3057 1.32939 0.0
32.7407 11.3639 0.0
19.18 -0.581607 0.0
45.0117 0.400604 0.0
4.33331 -0.42394 0.0
4.78426 0.433868 0.0
37.1199 2.79714 0.0
40.2296 -0.196997 0.0
39.1396 -1.10541 0.0
22.2303 -0.181687 0.0
44.0445 3.06534 0.0
44.9895 0.22051 0.0
45.7152 -2.35599 0.0
5.52486 2.04422 0.0
42.6819 0.658293 0.0
46.3209 -2.67939 0.0
36.7601 1.84227 0.0
38.0055 8.0571 0.0
11.1323 -3.50421 0.0
36.6464 0.224977 0.0
6.18064 -6.51769 0.0
35.1904 -1.40732 0.0
42.0473 -1.22674 0.0
46.3733 2.91203 0.0
43.8157 3.49197 0.0
5.85498 -1.79865 0.0
38.0207 1.03593 0.0
41.8502 5.27697 0.0
36.4193 1.5335 0.0
45.9558 0.142093 0.0
37.0523 2.14651 0.0
41.5789 0.864234 0.0
25.1231 -0.944026 0.0
28.188 1.16196 0.0
11.4439 -5.07098 0.0
40.1628 -2.78319 0.0
17.7809 -0.169713 0.0
32.8322 -8.17481 0.0
8.50881 -8.84602 0.0
38.0554 -2.77347 0.0
45.1932 0.191997 0.0
2.92715 -0.284477 0.0
3.00126 0.289726 0.0
41.2298 0.65649 0.0
39.2401 3.22149 0.0
37.8411 0.820179 0.0
31.2552 12.5624 0.0
6.7711 -0.19035 0.0
10.8924 -0.303432 0.0
8.14991 1.02255 0.0
3.29683 2.6282 0.0
7.2793 -4.6894 0.0
45.4525 -3.06722 0.0
46.1314 0.110288 0.0
38.8174 -4.00995 0.0
1.01891 1.35254 0.0
33.593 -0.098461 0.0
35.742 -0.102954 0.0
38.8423 -7.4634 0.0
28.337 10.5069 0.0
1.21069 -1.2892 0.0
3.72882 -2.3907 0.0
30.6628 0.575155 0.0
20.128 1.1366 0.0
36.1969 1.22921 0.0
24.4778 -4.37899 0.0
40.4031 -0.0982295 0.0
39.6496 2.31794 0.0
41.7478 -0.094337 0.0
33.4918 8.29854 0.0
44.6958 0.174011 0.0
3.84587 -0.294442 0.0
43.9727 3.64795 0.0
46.0459 0.65287 0.0
42.1559 0.37636 0.0
46.0743 0.0288799 0.0
42.5429 -4.40641 0.0
3.69719 0.21451 0.0
45.7083 -0.376734 0.0
7.36384 -1.24408 0.0
19.102 1.34347 0.0
29.4145 -0.653798 0.0
37.7104 0.689848 0.0
35.9984 0.970193 0.0
45.016 2.1632 0.0
45.2452 1.61084 0.0
44.4991 2.39555 0.0
5.36625 0.307256 0.0
10.0837 0.543839 0.0
8.34519 -0.816471 0.0
45.7634 0.0742859 0.0
40.9754 0.457696 0.0
40.9633 -4.81375 0.0
7.11633 1.45042 0.0
45.1071 0.297677 0.0
41.0008 5.18374 0.0
12.9328 9.86259 0.0
41.258 -0.0655987 0.0
3.31387 0.841233 0.0
39.7701 -0.115451 0.0
44.104 -1.47074 0.0
40.4779 -0.703875 0.0
30.3221 -0.36353 0.0
28.0544 -0.352208 0.0
39.2681 -0.171397 0.0
7.87255 0.268644 0.0
39.7914 3.96003 0.0
45.3715 -0.369956 0.0
42.4855 -0.228621 0.0
42.1986 0.391292 0.0
37.7055 0.617578 0.0
20.9796 -0.0174704 0.0
40.9805 0.449991 0.0
48.6239 -1.85549 0.0
44.7439 0.106561 0.0
10.4664 0.479847 0.0
37.9945 7.27497 0.0
3.57812 -0.766599 0.0
45.9396 0.719008 0.0
45.7875 0.326251 0.0
37.7909 0.591982 0.0
2.30984 1.13979 0.0
38.589 -0.764608 0.0
45.2306 0.138868 0.0
44.6085 1.74984 0.0
40.7556 -0.114778 0.0
45.6332 -0.5053 0.0
42.3474 0.409906 0.0
45.4892 0.0608985 0.0
46.0965 0.339527 0.0
45.0963 0.224327 0.0
38.019 0.600453 0.0
4.63194 0.448594 0.0
15.8701 1.36786 0.0
45.1434 -1.09099 0.0
39.4876 3.29946 0.0
2.544 -1.055 0.0
9.09322 -0.533392 0.0
38.1822 -2.76905 0.0
40.3537 4.69032 0.0
41.1244 0.469539 0.0
17.0756 -1.02018 0.0
42.2595 -0.225659 0.0
43.2195 -0.17365 0.0
27.1775 12.5676 0.0
8.78008 0.747676 0.0
4.2795 -0.518972 0.0
47.4763 -2.26432 0.0
33.2657 6.92695 0.0
42.9621 -4.16364 0.0
45.9852 0.524026 0.0
13.2598 0.210641 0.0
41.3492 0.468975 0.0
35.8734 0.8128 0.0
44.7084 -0.0324283 0.0
4.04609 0.60561 0.0
42.5706 0.389731 0.0
44.741 0.0398125 0.0
5.1733 -0.231604 0.0
38.3537 0.585758 0.0
44.5807 0.242344 0.0
45.7985 0.618198 0.0
43.0862 0.192449 0.0
42.9609 -0.250744 0.0
45.2104 0.0796875 0.0
38.6033 -0.904998 0.0
43.0373 -0.165593 0.0
42.8661 0.303897 0.0
42.2329 0.139731 0.0
41.9994 -0.294833 0.0
4.78611 -0.340868 0.0
45.9051 0.542623 0.0
41.7708 -0.349188 0.0
6.46655 0.327553 0.0
45.1528 0.012668 0.0
10.0616 0.631678 0.0
41.6676 0.391848 0.0
42.7413 -0.314168 0.0
45.839 0.439778 0.0
43.9388 -0.14131 0.0
43.2303 0.100085 0.0
45.592 0.29102 0.0
20.811 0.255169 0.0
39.3587 0.272468 0.0
37.0668 2.0538 0.0
38.6684 0.462234 0.0
4.7235 -0.0700311 0.0
44.6743 0.0753146 0.0
41.9981 0.254297 0.0
36.625 -7.68457 0.0
3.49979 -0.319745 0.0
35.9586 0.659508 0.0
3.42707 0.23755 0.0
33.2996 -6.70207 0.0
38.678 2.39185 0.0
36.1692 0.646183 0.0
40.3337 -0.18441 0.0
41.5658 -0.378226 0.0
36.5576 0.65192 0.0
43.3678 -0.0518804 0.0
34.1393 -3.25805 0.0
35.2696 -9.09206 0.0
42.1231 -0.0912667 0.0
45.5441 0.657092 0.0
45.7684 0.749412 0.0
45.7209 0.391441 0.0
42.5487 -0.356436 0.0
45.9344 0.454762 0.0
37.2279 -0.188075 0.0
45.8203 0.438618 0.0
41.1432 -0.241399 0.0
39.6534 0.137694 0.0
19.6446 0.509478 0.0
43.8524 -0.172809 0.0
45.8768 0.397118 0.0
35.0456 -0.712988 0.0
45.5235 0.536547 0.0
42.3805 -0.365537 0.0
41.3891 -0.365214 0.0
4.99795 0.337975 0.0
42.3889 0.0525243 0.0
35.8723 0.718745 0.0
46.0488 0.393121 0.0
32.6044 -0.491111 0.0
11.0005 0.332438 0.0
39.9166 0.0376951 0.0
45.5169 0.372675 0.0
37.4458 0.366406 0.0
36.5086 -0.187633 0.0
41.2402 -0.295939 0.0
45.4755 0.174061 0.0
42.2418 -0.328102 0.0
38.0459 0.202504 0.0
23.9156 8.15702 0.0
45.0789 -0.0633819 0.0
46.0245 0.327787 0.0
45.1506 1.29352 0.0
19.2634 -0.100878 0.0
42.4987 -0.0243449 0.0
35.1005 -0.218438 0.0
5.91757 0.19786 0.0
10.1987 0.382725 0.0
42.1173 -0.242581 0.0
44.8235 0.29183 0.0
39.3822 -0.372128 0.0
41.0955 -0.183595 0.0
45.832 0.268637 0.0
39.9746 -0.253555 0.0
40.1295 -0.0454596 0.0
40.9048 -0.0589341 0.0
35.5174 -0.25764 0.0
38.8507 -0.233685 0.0
46.1339 0.258135 0.0
35.9576 -0.215591 0.0
45.1893 0.132854 0.0
39.1057 -0.405594 0.0
40.6297 -0.306807 0.0
38.4907 -0.296273 0.0
35.0994 -0.310036 0.0
44.9358 0.244908 0.0
41.9742 -0.129949 0.0
7.24366 0.225849 0.0
11.1414 0.327281 0.0
45.7767 0.0591689 0.0
45.3567 -0.0315508 0.0
36.8205 0.609317 0.0
38.2511 -0.0257473 0.0
38.6699 -0.0138228 0.0
45.7926 0.557006 0.0
40.6101 0.0460968 0.0
44.9328 1.10054 0.0
43.3171 0.0230548 0.0
34.7141 -0.366172 0.0
37.5691 -0.422971 0.0
38.3687 0.0793694 0.0
41.7686 -0.0205131 0.0
46.1059 0.173322 0.0
44.6638 -0.109573 0.0
38.1721 -0.355182 0.0
36.3954 1.27645 0.0
33.3997 -0.286816 0.0
37.8639 -0.403997 0.0
34.3657 -0.422928 0.0
42.6508 2.34167 0.0
40.2074 0.0977107 0.0
41.4718 0.0530126 0.0
38.8784 -0.391281 0.0
33.8695 -0.24457 0.0
36.9209 -0.0813347 0.0
45.4488 0.307429 0.0
33.9975 -0.452531 0.0
37.3366 -0.366029 0.0
39.7822 0.0742228 0.0
22.0273 0.214113 0.0
44.1869 0.0930535 0.0
33.6116 -0.380761 0.0
19.2195 0.145923 0.0
32.9755 -0.337923 0.0
41.1157 0.0634891 0.0
33.4241 -0.215631 0.0
37.1278 -0.238181 0.0
34.39 -0.22295 0.0
5.19652 -0.0756012 0.0
9.60337 -0.134457 0.0
21.9546 0.317756 0.0
39.6091 -0.337672 0.0
38.4972 -0.171427 0.0
39.4269 -0.00263497 0.0
40.7766 0.0104067 0.0
33.1538 -0.0386133 0.0
10.8427 0.141457 0.0
45.599 0.204696 0.0
9.87025 -0.157268 0.0
46.1317 0.0492562 0.0
39.208 -0.0901848 0.0
32.5764 -0.396043 0.0
37.8491 0.0964988 0.0
32.1016 -0.454477 0.0
46.0646 -0.0674573 0.0
37.2862 0.163476 0.0
5.38065 -0.082199 0.0
9.73688 -0.155272 0.0
38.6858 -0.305774 0.0
5.79467 0.0891053 0.0
40.5227 -0.0788883 0.0
31.7135 -0.437906 0.0
31.4245 -0.288909 0.0
36.5793 0.0614491 0.0
40.1649 -0.210385 0.0
45.591 -0.0493279 0.0
36.7288 0.1444 0.0
36.2627 0.0584102 0.0
9.80557 -0.138779 0.0
5.5882 -0.0832735 0.0
18.3565 0.262455 0.0
31.1635 -0.0952041 0.0
35.9889 0.168103 0.0
39.6627 -0.317624 0.0
35.3096 0.20396 0.0
41.4147 -0.101664 0.0
18.7692 0.294617 0.0
34.7166 0.134526 0.0
40.4338 -0.155645 0.0
35.9508 -0.0211386 0.0
9.86506 0.150692 0.0
5.06116 -0.0525677 0.0
4.24997 -0.0817583 0.0
5.44477 -0.0759427 0.0
9.7439 -0.049036 0.0
10.3639 0.184657 0.0
4.62309 -0.0232085 0.0
5.23821 -0.003123 0.0
9.55717 -0.125521 0.0
5.0886 -0.0440902 0.0
5.49888 -0.0413032 0.0
5.83502 0.14447 0.0
10.5504 -0.143161 0.0
5.66172 0.0843507 0.0
9.41388 -0.0912373 0.0
5.42927 0.0817782 0.0
10.0287 -0.0668067 0.0
9.81079 -0.0564345 0.0
5.28363 0.159131 0.0
10.7572 0.213372 0.0
9.54469 -0.0991735 0.0
9.32336 -0.116687 0.0
5.45661 0.255915 0.0
9.01892 -0.0750024 0.0
9.72326 0.196778 0.0
5.03356 -0.0281434 0.0
9.4551 -0.0516009 0.0
5.70715 0.0119839 0.0
5.03824 0.0922658 0.0
9.12731 -0.155075 0.0
5.40621 0.195281 0.0
6.53377 0.117564 0.0
5.53632 0.297968 0.0
4.62341 0.0797848 0.0
4.96443 -0.00729494 0.0
9.54598 0.0444336 0.0
5.23143 -0.0737726 0.0
5.3642 -0.0803296 0.0
5.51583 0.221432 0.0
5.55618 0.232658 0.0
5.47598 -0.00957918 0.0
5.36111 0.0614337 0.0
4.54967 -0.0795833 0.0
5.15159 -0.0452057 0.0
6.41103 -0.00643978 0.0
10.6884 -0.0244944 0.0
5.61768 -0.101035 0.0
6.59317 0.0766412 0.0
9.10951 0.161507 0.0
8.87743 -0.174516 0.0
5.10997 -0.0643438 0.0
5.62347 0.218601 0.0
5.17238 0.0555833 0.0
10.0487 0.00621149 0.0
4.90407 0.105399 0.0
5.43584 0.0824018 0.0
5.05273 -0.0705414 0.0
9.99618 0.434493 0.0
6.22555 -0.0950348 0.0
4.44905 0.0105076 0.0
5.08974 0.0142309 0.0
4.31371 0.0479276 0.0
5.56806 0.0837343 0.0
5.64431 -0.0240971 0.0
8.34888 -0.0779028 0.0
3.85281 -0.0301122 0.0
9.77604 0.394656 0.0
10.1378 0.14104 0.0
39.88 -0.18514 0.0
39.2289 -0.127764 0.0
43.3953 -0.127541 0.0
34.2841 0.0395754 0.0
45.4507 -0.318827 0.0
45.6288 -0.141611 0.0
33.9353 0.005147 0.0
45.5552 -0.334771 0.0
45.8849 -0.280826 0.0
45.6499 -0.352909 0.0
46.005 -0.175871 0.0
35.8928 -0.0203521 0.0
39.503 -0.126668 0.0
45.7849 -0.314204 0.0
38.3663 -0.168168 0.0
45.318 -0.237788 0.0
40.5852 -0.183484 0.0
45.2373 -0.199941 0.0
42.7565 -0.266204 0.0
43.4418 -0.293626 0.0
29.7103 0.112912 0.0
45.2071 -0.362862 0.0
45.1246 -0.207546 0.0
43.6748 -0.279077 0.0
45.4417 -0.299376 0.0
33.2069 -0.137356 0.0
42.5719 -0.100142 0.0
39.4638 -0.147603 0.0
44.9329 -0.349063 0.0
44.7153 -0.340881 0.0
45.373 -0.280407 0.0
34.9711 -0.155587 0.0
30.8265 0.277104 0.0