# vtk DataFile Version 3.0
Malha 2D com triângulos e temperatura
ASCII
DATASET UNSTRUCTURED_GRID

POINTS 1194 double
0 0 0
5 0 0
5 1 0
0 1 0
0.85 0.5 0
0.842388 0.538268 0
0.820711 0.570711 0
0.788268 0.592388 0
0.75 0.6 0
0.711732 0.592388 0
0.679289 0.570711 0
0.657612 0.538268 0
0.65 0.5 0
0.657612 0.461732 0
0.679289 0.429289 0
0.711732 0.407612 0
0.75 0.4 0
0.788268 0.407612 0
0.820711 0.429289 0
0.842388 0.461732 0
0.0793651 0 0
0.15873 0 0
0.238095 0 0
0.31746 0 0
0.396825 0 0
0.47619 0 0
0.555556 0 0
0.634921 0 0
0.714286 0 0
0.793651 0 0
0.873016 0 0
0.952381 0 0
1.03175 0 0
1.11111 0 0
1.19048 0 0
1.26984 0 0
1.34921 0 0
1.42857 0 0
1.50794 0 0
1.5873 0 0
1.66667 0 0
1.74603 0 0
1.8254 0 0
1.90476 0 0
1.98413 0 0
2.06349 0 0
2.14286 0 0
2.22222 0 0
2.30159 0 0
2.38095 0 0
2.46032 0 0
2.53968 0 0
2.61905 0 0
2.69841 0 0
2.77778 0 0
2.85714 0 0
2.93651 0 0
3.01587 0 0
3.09524 0 0
3.1746 0 0
3.25397 0 0
3.33333 0 0
3.4127 0 0
3.49206 0 0
3.57143 0 0
3.65079 0 0
3.73016 0 0
3.80952 0 0
3.88889 0 0
3.96825 0 0
4.04762 0 0
4.12698 0 0
4.20635 0 0
4.28571 0 0
4.36508 0 0
4.44444 0 0
4.52381 0 0
4.60317 0 0
4.68254 0 0
4.7619 0 0
4.84127 0 0
4.92063 0 0
5 0.0769231 0
5 0.153846 0
5 0.230769 0
5 0.307692 0
5 0.384615 0
5 0.461538 0
5 0.538462 0
5 0.615385 0
5 0.692308 0
5 0.769231 0
5 0.846154 0
5 0.923077 0
4.92063 1 0
4.84127 1 0
4.7619 1 0
4.68254 1 0
4.60317 1 0
4.52381 1 0
4.44444 1 0
4.36508 1 0
4.28571 1 0
4.20635 1 0
4.12698 1 0
4.04762 1 0
3.96825 1 0
3.88889 1 0
3.80952 1 0
3.73016 1 0
3.65079 1 0
3.57143 1 0
3.49206 1 0
3.4127 1 0
3.33333 1 0
3.25397 1 0
3.1746 1 0
3.09524 1 0
3.01587 1 0
2.93651 1 0
2.85714 1 0
2.77778 1 0
2.69841 1 0
2.61905 1 0
2.53968 1 0
2.46032 1 0
2.38095 1 0
2.30159 1 0
2.22222 1 0
2.14286 1 0
2.06349 1 0
1.98413 1 0
1.90476 1 0
1.8254 1 0
1.74603 1 0
1.66667 1 0
1.5873 1 0
1.50794 1 0
1.42857 1 0
1.34921 1 0
1.26984 1 0
1.19048 1 0
1.11111 1 0
1.03175 1 0
0.952381 1 0
0.873016 1 0
0.793651 1 0
0.714286 1 0
0.634921 1 0
0.555556 1 0
0.47619 1 0
0.396825 1 0
0.31746 1 0
0.238095 1 0
0.15873 1 0
0.0793651 1 0
0 0.923077 0
0 0.846154 0
0 0.769231 0
0 0.692308 0
0 0.615385 0
0 0.538462 0
0 0.461538 0
0 0.384615 0
0 0.307692 0
0 0.230769 0
0 0.153846 0
0 0.0769231 0
0.879698 0.466718 0
1.3085 0.931947 0
1.30532 0.0638546 0
4.93832 0.504275 0
0.620452 0.46964 0
3.99858 0.0669607 0
1.63721 0.934258 0
3.3751 0.0523709 0
4.3254 0.0687322 0
2.42354 0.0642082 0
2.97619 0.0687322 0
2.02101 0.0693621 0
3.68108 0.0581336 0
2.65899 0.932655 0
4.178 0.939994 0
3.21614 0.938179 0
2.25483 0.919987 0
3.53215 0.928998 0
3.84921 0.931268 0
1.69647 0.0674297 0
1.94349 0.930209 0
4.48413 0.931268 0
2.97813 0.942022 0
2.74097 0.0673855 0
0.859645 0.573263 0
0.639718 0.573116 0
0.0651563 0.652836 0
0.0635304 0.346121 0
4.56232 0.0679683 0
0.830393 0.392645 0
0.669618 0.39275 0
1.06185 0.0668897 0
0.440193 0.0680031 0
1.06474 0.93511 0
0.446074 0.935974 0
0.724697 0.630698 0
4.72268 0.931235 0
4.93065 0.267192 0
0.589836 0.936152 0
0.92338 0.0562425 0
0.590207 0.0623339 0
0.755872 0.0732784 0
0.838039 0.936714 0
4.92573 0.732039 0
0.281717 0.93783 0
0.28208 0.0811877 0
0.065248 0.503161 0
1.46076 0.0637037 0
4.72574 0.0661877 0
4.31028 0.937908 0
3.21429 0.0687322 0
1.46639 0.932632 0
3.6897 0.928155 0
2.42063 0.931268 0
3.5364 0.0691789 0
2.25998 0.0676208 0
1.78735 0.937047 0
4.01535 0.920637 0
1.85469 0.0674188 0
3.83991 0.0626292 0
3.37477 0.929368 0
2.58225 0.0657863 0
2.81746 0.932342 0
4.16667 0.0687322 0
2.11402 0.935574 0
0.0614266 0.197046 0
0.0612841 0.803003 0
4.88273 0.0644126 0
4.87774 0.933272 0
0.859645 0.426737 0
0.903081 0.436592 0
0.923672 0.473385 0
0.948706 0.439078 0
0.969155 0.479795 0
0.996593 0.439791 0
1.0202 0.484937 0
1.04667 0.440138 0
1.07382 0.489694 0
1.1034 0.440801 0
1.13169 0.49612 0
1.16603 0.445058 0
1.1931 0.504331 0
1.22956 0.450883 0
1.25923 0.506004 0
1.29683 0.453139 0
1.32923 0.510343 0
1.36603 0.454344 0
1.03276 0.530395 0
1.40063 0.516169 0
1.43576 0.454934 0
1.47042 0.520776 0
1.51069 0.46142 0
1.54422 0.526371 0
1.58547 0.465572 0
1.61942 0.531773 0
1.66033 0.468788 0
1.69546 0.536793 0
1.73713 0.472812 0
1.77239 0.541977 0
1.81532 0.478494 0
1.85006 0.547285 0
1.89327 0.483449 0
1.92802 0.55361 0
1.97142 0.488546 0
2.00623 0.558966 0
2.04984 0.493518 0
2.08483 0.564085 0
2.12847 0.498462 0
2.16353 0.569137 0
2.20719 0.503331 0
0.961579 0.391697 0
1.22451 0.565337 0
2.24238 0.574192 0
2.28611 0.508258 0
2.32134 0.579247 0
2.36519 0.513325 0
2.40036 0.584295 0
2.44425 0.51834 0
2.47944 0.589336 0
2.52334 0.523355 0
2.55853 0.594372 0
2.60245 0.52837 0
2.63764 0.599431 0
2.68159 0.533388 0
2.64637 0.462336 0
2.72553 0.467349 0
2.76076 0.538418 0
2.8047 0.47237 0
2.83993 0.543451 0
2.88387 0.477399 0
2.91911 0.548482 0
2.96305 0.482427 0
2.9983 0.553514 0
3.04224 0.487456 0
3.07749 0.558545 0
3.12143 0.492477 0
3.15668 0.563574 0
3.20063 0.497514 0
3.23588 0.568605 0
3.27983 0.502542 0
3.31508 0.573635 0
3.35903 0.507562 0
3.39428 0.578663 0
3.43823 0.5126 0
3.47348 0.583694 0
3.51744 0.517628 0
3.55268 0.588724 0
3.59664 0.522646 0
3.63189 0.593752 0
3.67585 0.527673 0
3.71109 0.598781 0
3.75505 0.532702 0
3.7903 0.60381 0
3.83426 0.537731 0
3.79901 0.466623 0
3.87821 0.471754 0
3.91346 0.542777 0
3.95742 0.476701 0
3.99267 0.547795 0
4.03662 0.481715 0
4.07187 0.552815 0
4.11582 0.486743 0
4.15106 0.55783 0
4.195 0.491782 0
4.23023 0.562843 0
4.27415 0.49682 0
4.30937 0.567866 0
4.35325 0.501915 0
4.38842 0.572845 0
4.43227 0.506997 0
4.46737 0.577575 0
4.51106 0.511995 0
4.54622 0.582183 0
1.13571 0.390292 0
4.47606 0.441361 0
4.55475 0.446396 0
2.32985 0.442214 0
3.5614 0.451571 0
3.08619 0.421408 0
2.09339 0.427815 0
1.42887 0.583001 0
2.84864 0.406329 0
3.32378 0.43649 0
4.23911 0.425894 0
1.54723 0.39251 0
1.77883 0.406811 0
1.33959 0.387065 0
3.92239 0.405803 0
4.08079 0.415776 0
2.48812 0.452349 0
1.57935 0.603183 0
1.93602 0.417543 0
1.72453 0.617973 0
3.11273 0.629643 0
2.69029 0.396284 0
3.94662 0.623383 0
1.88466 0.613248 0
2.79598 0.609502 0
4.10826 0.620575 0
2.04005 0.62838 0
2.95434 0.619575 0
4.51981 0.375801 0
4.59833 0.380943 0
4.63314 0.451296 0
4.26693 0.63114 0
2.19619 0.645921 0
4.4246 0.642296 0
3.27112 0.639707 0
2.35729 0.649822 0
2.51462 0.660373 0
3.42952 0.649769 0
4.67669 0.38601 0
3.58793 0.659829 0
3.74634 0.669888 0
4.64195 0.315733 0
4.44109 0.370647 0
4.48493 0.305066 0
4.40614 0.29989 0
4.71136 0.456133 0
4.72014 0.320758 0
0.8692 0.382093 0
0.841252 0.348256 0
0.886481 0.338703 0
0.853127 0.301457 0
0.902583 0.287335 0
0.801683 0.321689 0
0.818113 0.263019 0
0.764765 0.277091 0
4.44702 0.235678 0
0.946267 0.520761 0
0.78107 0.221265 0
0.726309 0.234724 0
0.848273 0.20551 0
4.68545 0.250576 0
4.37074 0.227561 0
4.76365 0.255792 0
4.79822 0.326145 0
0.713664 0.287231 0
0.672358 0.247957 0
0.68673 0.192342 0
0.630368 0.2085 0
0.616569 0.265341 0
0.574186 0.225456 0
0.557393 0.28131 0
0.52004 0.242373 0
0.504416 0.299685 0
0.462273 0.252096 0
0.44798 0.316739 0
0.404567 0.276951 0
0.390546 0.335414 0
0.434669 0.37657 0
0.377935 0.394545 0
0.421979 0.43426 0
0.365682 0.452846 0
0.409646 0.492216 0
0.353389 0.51089 0
0.397738 0.551598 0
0.339864 0.570301 0
0.385899 0.612153 0
0.325913 0.631557 0
0.344507 0.29318 0
0.320568 0.413067 0
0.373553 0.673852 0
0.434438 0.653082 0
0.311416 0.69481 0
0.449777 0.528305 0
0.293513 0.534612 0
0.421431 0.715204 0
0.480917 0.696603 0
0.54504 0.34471 0
0.262743 0.649913 0
0.246209 0.712341 0
0.468564 0.755948 0
0.526091 0.735423 0
0.538207 0.68039 0
0.581228 0.716342 0
0.408756 0.777952 0
0.36234 0.239019 0
0.297047 0.251925 0
0.572109 0.771575 0
0.624906 0.752173 0
0.474824 0.414151 0
0.534351 0.182707 0
0.633682 0.70159 0
0.674547 0.736174 0
0.66826 0.788959 0
0.721117 0.76834 0
0.714515 0.825486 0
0.769074 0.802008 0
0.775287 0.746591 0
0.821903 0.778625 0
0.826767 0.726064 0
0.873257 0.756032 0
0.872997 0.697261 0
0.92331 0.732304 0
0.930014 0.67838 0
0.976061 0.710612 0
0.92456 0.784469 0
0.982178 0.654421 0
1.03016 0.688004 0
1.02037 0.747059 0
1.08 0.723819 0
1.08651 0.661896 0
1.1397 0.698204 0
1.13262 0.763657 0
1.19424 0.736545 0
1.18556 0.80161 0
1.24839 0.771772 0
1.25723 0.706382 0
1.31432 0.745787 0
4.66801 0.521361 0
4.74602 0.526202 0
4.70285 0.591278 0
4.78076 0.596023 0
4.73763 0.661207 0
4.78904 0.460969 0
2.61113 0.391267 0
2.65506 0.325217 0
2.57588 0.320198 0
2.61982 0.254148 0
2.69899 0.259163 0
2.54065 0.249131 0
2.49672 0.315179 0
2.46148 0.244124 0
2.41757 0.310166 0
2.38233 0.239117 0
2.33843 0.30514 0
2.30297 0.237979 0
2.25928 0.300748 0
2.22079 0.221377 0
2.17969 0.293884 0
2.14114 0.224266 0
2.10047 0.289841 0
2.0653 0.219144 0
2.02202 0.284919 0
1.98701 0.214164 0
1.94336 0.279863 0
3.82315 0.673327 0
3.78135 0.738156 0
3.86451 0.735958 0
3.70234 0.735494 0
4.52513 0.244409 0
4.32717 0.294467 0
4.29217 0.221862 0
0.619934 0.539507 0
0.599432 0.577132 0
0.575955 0.542712 0
0.554504 0.58245 0
4.65962 0.656481 0
4.69438 0.726169 0
4.6161 0.721747 0
4.77259 0.731352 0
4.65076 0.791486 0
4.57153 0.788793 0
4.2482 0.289182 0
4.21307 0.218308 0
4.1691 0.284563 0
4.13394 0.21352 0
0.835918 0.606341 0
0.806475 0.6384 0
4.08995 0.279537 0
0.640355 0.426737 0
0.596214 0.435837 0
0.630358 0.379178 0
0.689967 0.627735 0
1.90832 0.209948 0
1.86468 0.27519 0
1.82968 0.20518 0
1.78607 0.269797 0
0.281841 0.313314 0
0.232117 0.268621 0
0.216861 0.334396 0
4.05473 0.209347 0
4.01077 0.2745 0
3.97554 0.204394 0
3.93159 0.269388 0
0.297409 0.759367 0
0.231645 0.782943 0
0.180008 0.73598 0
1.32151 0.676369 0
1.38055 0.718092 0
1.36901 0.793947 0
1.43945 0.766002 0
0.249902 0.198865 0
0.932364 0.624392 0
1.75117 0.201034 0
1.70771 0.264658 0
1.673 0.195402 0
1.62985 0.260294 0
1.59532 0.191927 0
1.55236 0.254233 0
3.89629 0.200227 0
3.85238 0.264494 0
3.81708 0.195303 0
3.77304 0.259453 0
2.66368 0.189084 0
2.74279 0.19534 0
2.77814 0.264556 0
2.82201 0.199823 0
2.85733 0.269552 0
2.90126 0.203886 0
2.93654 0.274416 0
2.98045 0.20868 0
3.01573 0.279376 0
3.0597 0.213193 0
[...]
CELL_DATA 2220
VECTORS velocity double
2.1432 -0.126626 0.0
1.9364 0.136566 0.0
3.9301 0.884667 0.0
3.96147 0.376604 0.0
2.16741 -0.173699 0.0
2.06956 -0.125282 0.0
1.76961 0.132681 0.0
1.81996 0.00541971 0.0
3.3023 1.89556 0.0
2.04494 -0.0595088 0.0
1.97534 9.7022 0.0
1.79405 0.131622 0.0
1.57287 0.0829791 0.0
3.0874 -0.771306 0.0
3.59776 8.38851 0.0
1.00671 2.817 0.0
1.91592 0.0999519 0.0
1.6849 0.152208 0.0
1.80033 -0.0468658 0.0
1.80417 -0.0176644 0.0
3.65138 0.61489 0.0
8.24057 -3.0195 0.0
1.79643 0.146458 0.0
1.81431 0.165803 0.0
1.94009 -0.120511 0.0
2.95716 -0.565659 0.0
3.90095 -0.272332 0.0
1.70087 0.176947 0.0
3.90976 0.338888 0.0
4.10621 0.292184 0.0
1.33774 -0.508207 0.0
4.85943 0.205498 0.0
1.57559 -0.0515267 0.0
5.30183 -5.16588 0.0
6.81827 0.404974 0.0
2.10023 -0.125972 0.0
7.36883 0.738416 0.0
1.61076 -0.0259733 0.0
4.13928 0.378351 0.0
4.63442 -0.200128 0.0
2.89147 -0.144427 0.0
3.25123 1.50872 0.0
3.6158 0.3579 0.0
1.7641 0.000977668 0.0
1.69631 0.0404709 0.0
1.60122 0.0119734 0.0
1.79136 0.166395 0.0
1.61428 -2.71485e-05 0.0
2.06445 -0.059445 0.0
2.04166 -0.0166769 0.0
3.16529 0.463667 0.0
1.53135 0.00451042 0.0
1.78882 0.18171 0.0
1.69769 0.00839961 0.0
1.73453 0.103948 0.0
4.63271 -0.259307 0.0
5.10442 0.0957917 0.0
1.64474 0.153333 0.0
1.68173 0.170413 0.0
2.11027 -0.0386594 0.0
0.719429 -0.189147 0.0
2.03579 -0.17554 0.0
1.61826 -0.639904 0.0
1.7928 0.192557 0.0
1.79575 0.138031 0.0
5.22406 -3.54565 0.0
3.58946 -0.342204 0.0
1.63099 2.16396 0.0
1.69553 0.150336 0.0
1.67901 0.191968 0.0
1.69078 0.0668847 0.0
5.39962 4.28599 0.0
1.52192 0.0745763 0.0
2.05025 0.0536155 0.0
16.8293 -1.50452 0.0
5.48129 -0.00128844 0.0
1.94801 0.507735 0.0
2.43591 -0.316269 0.0
2.59788 1.51702 0.0
1.73754 0.0574952 0.0
4.00473 0.392657 0.0
4.71341 0.353228 0.0
3.21356 -0.113547 0.0
1.58883 0.0621265 0.0
1.78 0.152835 0.0
1.77128 0.0833578 0.0
2.13744 -0.182948 0.0
1.63806 0.0852611 0.0
1.63681 0.12553 0.0
3.61736 2.14127 0.0
20.8257 -4.08175 0.0
2.87834 0.572904 0.0
1.75375 -0.044535 0.0
2.75974 0.61842 0.0
5.03172 0.15442 0.0
4.72924 0.27396 0.0
9.27202 2.45777 0.0
-3.6857 -13.6973 0.0
1.04903 -0.225757 0.0
4.49658 5.35337 0.0
-9.33935 -16.333 0.0
2.56655 -0.390506 0.0
1.77748 0.174908 0.0
1.76966 0.174904 0.0
7.28973 -2.15526 0.0
6.05903 -0.20372 0.0
2.03746 -0.113373 0.0
2.09231 -0.141492 0.0
0.862018 -0.0320144 0.0
1.88503 0.173678 0.0
4.22292 0.220118 0.0
3.65147 -1.12395 0.0
2.01911 -0.0653612 0.0
2.60497 -0.157255 0.0
2.18048 -0.233672 0.0
1.65754 0.16945 0.0
2.81179 -0.525059 0.0
3.59944 -0.192163 0.0
-1.71098 -19.5456 0.0
3.92855 1.86187 0.0
2.29757 -0.284095 0.0
4.09336 -0.123782 0.0
2.61564 0.424148 0.0
9.739 -5.65451 0.0
6.01024 0.0357713 0.0
-0.972649 -4.24043 0.0
6.80787 -0.541182 0.0
3.91615 0.328051 0.0
3.00888 -0.928764 0.0
-7.96551 5.34285 0.0
1.7192 -0.00110898 0.0
13.3195 3.65632 0.0
16.7314 5.71889 0.0
1.93123 0.0697284 0.0
4.17746 0.402191 0.0
1.90766 0.0580203 0.0
1.56365 0.00243568 0.0
3.40197 -0.388597 0.0
0.0645261 -4.31531 0.0
4.73019 0.271294 0.0
3.47901 -0.572977 0.0
1.77911 -0.00835784 0.0
2.18777 -0.317271 0.0
5.66862 -0.166436 0.0
2.04854 0.0440611 0.0
2.78164 0.563549 0.0
-12.6809 6.83069 0.0
-1.00041 -14.6188 0.0
2.3351 0.19519 0.0
2.08699 -0.177357 0.0
1.77158 0.0363202 0.0
3.96273 1.53186 0.0
4.23597 0.0183253 0.0
9.53719 -7.57701 0.0
1.79444 0.109389 0.0
1.98881 0.0618649 0.0
3.94293 -0.444756 0.0
1.98517 0.0735088 0.0
3.06958 -0.310615 0.0
2.74336 -0.409376 0.0
11.692 6.47678 0.0
1.68485 0.00835862 0.0
-12.8469 -7.09732 0.0
4.83269 -0.107926 0.0
1.55211 0.0195423 0.0
6.14054 -5.6925 0.0
2.43328 -5.20992 0.0
6.22127 0.114298 0.0
1.97202 0.0382437 0.0
14.0257 10.3701 0.0
-9.10593 11.7804 0.0
1.63216 0.0439042 0.0
1.75522 0.00218601 0.0
-8.27385 -5.68328 0.0
-2.96421 -1.8909 0.0
2.4589 1.26946 0.0
1.75584 0.570508 0.0
2.02514 1.28602 0.0
1.91149 -0.219372 0.0
1.90832 0.0245263 0.0
4.16577 -0.0549337 0.0
3.01241 -0.428335 0.0
12.9644 -16.1585 0.0
-4.94667 8.84822 0.0
1.88749 0.0230035 0.0
1.80178 -0.231571 0.0
7.22624 0.102439 0.0
1.62537 -0.0154229 0.0
8.77496 1.73223 0.0
6.23229 0.0994684 0.0
3.30046 -0.37807 0.0
1.64702 -0.0572074 0.0
3.49437 -1.30378 0.0
2.32546 0.15405 0.0
3.92897 -0.17934 0.0
7.25076 -0.065377 0.0
1.95889 0.0689976 0.0
1.73792 -0.0204877 0.0
1.69829 -0.0888743 0.0
1.89174 0.0226273 0.0
1.80579 -0.00374077 0.0
1.90088 0.00435088 0.0
6.59166 -4.11153 0.0
1.78968 0.0508222 0.0
2.9252 0.198725 0.0
2.41596 -0.33355 0.0
3.83875 -0.454008 0.0
1.79156 0.0488391 0.0
2.04656 -0.0323656 0.0
1.557 -0.134801 0.0
1.77761 0.139461 0.0
2.81368 16.0855 0.0
1.93574 -0.0293763 0.0
2.41307 1.90882 0.0
2.11242 0.605821 0.0
1.85647 -0.0036887 0.0
1.6467 0.131802 0.0
1.84028 0.152544 0.0
2.22029 0.234534 0.0
16.5746 0.904944 0.0
2.04866 0.0119032 0.0
1.19498 -0.0411654 0.0
1.7002 0.141314 0.0
1.18956 -0.00194358 0.0
1.81634 0.0154633 0.0
1.87087 2.15873e-05 0.0
2.17552 -0.231424 0.0
4.36384 10.5584 0.0
4.15902 -0.7142 0.0
2.6314 0.179579 0.0
2.00763 -0.00621894 0.0
2.06831 -0.0879001 0.0
1.55715 -0.0176992 0.0
1.83987 -0.00113549 0.0
2.6574 -0.0975052 0.0
5.02974 0.0869079 0.0
-3.65969 -2.98829 0.0
1.77502 -0.0529102 0.0
1.76357 -0.0633888 0.0
1.73642 -0.0143027 0.0
5.27858 -0.284718 0.0
7.32671 4.18909 0.0
6.54739 -1.0028 0.0
1.39627 0.0255305 0.0
1.96135 0.0713543 0.0
2.03954 -0.0238463 0.0
1.83208 0.0163731 0.0
4.023 -0.164052 0.0
1.70821 0.120158 0.0
3.8352 0.319159 0.0
1.96466 -0.0448474 0.0
1.3967 -0.00828135 0.0
1.78946 -4.74442 0.0
2.1047 -0.0204005 0.0
2.00986 -0.925807 0.0
1.77123 0.103727 0.0
-12.7875 1.25212 0.0
2.04171 -0.0110732 0.0
4.03143 0.127537 0.0
4.86371 0.11221 0.0
1.85612 -0.0830828 0.0
4.14903 -0.056125 0.0
2.56356 0.212617 0.0
3.09266 -0.550206 0.0
1.32235 -0.0441592 0.0
2.38878 0.000745961 0.0
1.74365 -0.0100531 0.0
-1.20138 -1.41021 0.0
3.20541 0.622432 0.0
2.04144 -0.0269516 0.0
2.06701 0.0655186 0.0
2.27607 0.0162318 0.0
1.63409 0.0926039 0.0
2.16499 -0.154891 0.0
-4.97471 -6.16473 0.0
6.23482 -0.475532 0.0
10.6121 -12.9211 0.0
0.371248 -0.517414 0.0
2.34659 0.327293 0.0
3.04996 0.0174016 0.0
-1.82175 -7.67945 0.0
4.34677 -0.0729547 0.0
5.41782 0.109522 0.0
1.98416 0.0659101 0.0
2.1275 -0.144807 0.0
1.8708 -0.00056514 0.0
5.02769 -0.248915 0.0
1.91487 0.0829019 0.0
1.65312 -0.0459122 0.0
1.63897 -0.0515331 0.0
-12.7661 -1.48324 0.0
1.88715 -0.0879238 0.0
1.73785 0.213849 0.0
1.9714 -0.0338508 0.0
2.02355 -0.131932 0.0
1.91122 -0.0327619 0.0
1.89713 -0.0344274 0.0
3.74936 0.0777374 0.0
6.18218 -0.720162 0.0
2.17281 0.533587 0.0
1.62553 -0.000499444 0.0
2.55079 1.03264 0.0
3.596 -0.884112 0.0
2.27597 0.0281782 0.0
1.39151 -3.36114 0.0
1.96416 0.0489058 0.0
1.62278 0.00256866 0.0
1.63843 -0.0596909 0.0
3.31832 0.0902673 0.0
1.54248 0.15915 0.0
2.61105 0.271983 0.0
1.32328 0.0367983 0.0
-3.56964 13.8869 0.0
5.73454 -0.0802754 0.0
6.00351 5.21915 0.0
1.76662 -0.0517431 0.0
2.00246 0.969817 0.0
2.73898 0.0860572 0.0
4.98976 -0.164516 0.0
2.29894 0.581296 0.0
10.1578 12.6668 0.0
2.70232 0.365698 0.0
2.03522 -0.00630206 0.0
2.80448 -0.0299642 0.0
1.37054 0.0276325 0.0
2.36834 -0.193291 0.0
2.29019 0.0443238 0.0
2.07811 0.0744486 0.0
2.04418 0.0107543 0.0
2.13574 -0.217112 0.0
1.73528 -2.50604 0.0
5.93027 -0.0740958 0.0
0.858301 -0.753866 0.0
2.58714 -0.147468 0.0
4.6957 -2.41799 0.0
5.07837 -0.284198 0.0
4.13002 -0.311267 0.0
2.79447 0.989101 0.0
4.13839 -0.207926 0.0
1.76346 -0.0619311 0.0
1.86586 0.112311 0.0
1.69309 -0.070152 0.0
1.73271 0.00759199 0.0
1.54141 -0.0789422 0.0
7.8787 13.7991 0.0
3.00224 1.35621 0.0
1.71758 0.044279 0.0
2.57045 0.706275 0.0
2.32649 0.321836 0.0
1.28015 -0.104963 0.0
5.18311 -1.63425 0.0
1.18817 0.0817934 0.0
1.76005 0.0166662 0.0
-0.138022 3.11995 0.0
1.36281 0.123366 0.0
5.17527 -0.0702922 0.0
5.45042 -2.34154 0.0
0.864583 -0.0334731 0.0
2.05643 0.0368861 0.0
4.54661 -0.358022 0.0
2.39326 0.313868 0.0
-1.31904 14.6561 0.0
3.42815 0.860233 0.0
2.43093 0.474111 0.0
1.60644 0.11586 0.0
2.18364 0.022318 0.0
7.8971 2.62006 0.0
1.12928 -0.113481 0.0
1.68562 -0.070559 0.0
4.17064 -0.176179 0.0
1.17121 0.105467 0.0
8.19914 -2.17157 0.0
5.45441 2.70262 0.0
1.97655 -0.0281769 0.0
1.15146 -0.0150296 0.0
3.02646 0.146398 0.0
2.12756 0.0684024 0.0
2.00231 0.0362345 0.0
4.86715 -0.00166395 0.0
1.95922 -0.0270013 0.0
2.9934 0.0572811 0.0
5.0493 0.196997 0.0
5.23038 -0.190057 0.0
2.04845 -0.00323645 0.0
4.80587 0.246438 0.0
2.09759 -0.005759 0.0
6.26836 -1.17517 0.0
2.03877 -0.00566188 0.0
3.31471 -0.753442 0.0
2.35017 0.220338 0.0
2.53039 0.214299 0.0
2.20334 0.0295174 0.0
4.03724 -0.182452 0.0
1.73195 -0.928182 0.0
2.51242 -0.271228 0.0
2.05815 -0.197167 0.0
4.74121 0.114645 0.0
2.44308 0.168324 0.0
2.04431 0.000930835 0.0
4.66412 0.22092 0.0
2.27842 0.0890637 0.0
4.33397 0.613526 0.0
2.43601 0.38511 0.0
2.04456 -0.00696229 0.0
7.48382 2.81358 0.0
6.93145 1.13787 0.0
1.5527 0.049766 0.0
1.43499 0.12936 0.0
4.14936 0.120973 0.0
3.8459 -2.91897 0.0
-0.0839186 -5.69757 0.0
1.46562 0.0891854 0.0
5.11151 0.206594 0.0
2.09016 -0.701366 0.0
4.69537 -0.172374 0.0
2.03698 -0.0121996 0.0
1.69722 -0.0499244 0.0
0.990347 0.0898841 0.0
3.49752 1.32892 0.0
1.68555 0.0748765 0.0
2.42077 0.716087 0.0
4.53081 0.218275 0.0
1.64099 0.00941736 0.0
1.68338 -0.0270848 0.0
2.38285 0.267121 0.0
2.02996 0.0119517 0.0
1.63463 0.0594258 0.0
2.09726 -0.0400203 0.0
2.04847 0.0103452 0.0
1.48768 -0.107003 0.0
2.04892 0.000816402 0.0
2.40678 0.271917 0.0
4.81447 -0.284537 0.0
2.26897 0.207797 0.0
2.39114 -0.245966 0.0
8.65153 2.39722 0.0
1.43628 -0.0904631 0.0
2.34533 0.139191 0.0
1.25425 -2.21924 0.0
1.74853 0.147323 0.0
2.49222 0.380983 0.0
2.32493 0.219782 0.0
5.99494 0.859711 0.0
6.47123 0.54692 0.0
2.9812 -0.325713 0.0
3.48888 0.469939 0.0
4.58348 0.201636 0.0
0.919277 -0.0472204 0.0
0.854476 0.0640508 0.0
1.75397 0.00364707 0.0
3.12141 0.310366 0.0
2.05074 -0.0670804 0.0
2.44069 -0.140084 0.0
3.93907 0.164004 0.0
2.14083 0.110358 0.0
1.2953 0.120105 0.0
3.06589 0.199078 0.0
2.53222 0.567858 0.0
2.30866 0.114071 0.0
2.16344 0.148288 0.0
2.3255 0.21228 0.0
2.03453 0.00778619 0.0
1.85504 -0.136743 0.0
1.46821 0.094454 0.0
2.07201 0.0898108 0.0
1.92533 0.0222644 0.0
1.62905 0.00251383 0.0
2.05701 0.00894076 0.0
1.62405 0.0377248 0.0
5.99276 0.173627 0.0
1.33442 -0.00127446 0.0
0.874518 0.0675909 0.0
3.43794 -0.400834 0.0
2.73745 0.817298 0.0
1.3962 -0.0875677 0.0
2.0335 0.00459733 0.0
2.2277 0.179306 0.0
4.0915 0.556307 0.0
2.06263 0.0178917 0.0
2.23102 0.178094 0.0
2.17079 -0.220792 0.0
4.89721 -1.72394 0.0
2.24676 -0.290419 0.0
2.13238 0.137739 0.0
2.19698 -0.225949 0.0
2.28771 0.242159 0.0
4.58212 -0.0125893 0.0
0.769765 0.0638088 0.0
4.92493 -0.275111 0.0
2.00709 0.0524683 0.0
2.07815 0.0199003 0.0
0.807555 0.0662725 0.0
0.954452 -0.0599157 0.0
2.12057 0.120736 0.0
2.98068 1.12256 0.0
2.06383 -0.0505625 0.0
3.9906 -0.173043 0.0
2.22491 0.0284581 0.0
3.98252 -0.166353 0.0
1.98709 -0.0503426 0.0
2.03859 -0.0241408 0.0
2.35886 0.237637 0.0
0.821727 -0.012992 0.0
2.07492 0.0924456 0.0
2.0343 0.0159328 0.0
1.74315 -0.00886559 0.0
2.04693 -0.000167369 0.0
1.48733 -0.124261 0.0
1.63082 0.122989 0.0
2.44917 0.323277 0.0
2.04435 -0.0263084 0.0
2.07598 -0.065469 0.0
1.82144 -0.0427528 0.0
2.06151 -0.00700494 0.0
2.07285 0.0147355 0.0
1.99622 -0.499307 0.0
1.11704 0.000905366 0.0
2.04998 0.0191414 0.0
2.28589 -0.340091 0.0
2.17029 0.158572 0.0
2.05353 0.00814309 0.0
1.63889 -0.018906 0.0
4.70466 -3.43896 0.0
1.68256 -0.0951451 0.0
3.47993 -4.22419 0.0
2.06616 -0.0817675 0.0
2.28333 0.388186 0.0
2.0575 -0.00288253 0.0
1.1497 -0.0156639 0.0
2.05387 0.0564049 0.0
2.05515 -0.00288159 0.0
2.09061 0.12729 0.0
2.08223 0.0145178 0.0
2.26948 0.190195 0.0
2.0536 0.0351951 0.0
3.99207 -0.234728 0.0
4.40894 -0.452578 0.0
1.7743 -0.0430142 0.0
4.64069 -0.240888 0.0
1.61778 -0.0276977 0.0
2.07386 -0.026025 0.0
1.84356 -0.116895 0.0
5.77778 2.01742 0.0
2.08346 0.0112585 0.0
1.27612 -0.112513 0.0
1.29773 0.121388 0.0
2.04069 0.0198683 0.0
4.59664 0.237152 0.0
2.03325 0.0374953 0.0
1.99322 0.0109353 0.0
0.912835 0.0108763 0.0
1.29859 -0.00306399 0.0
1.15918 0.0155988 0.0
1.08719 0.0308682 0.0
1.61353 -0.0653132 0.0
2.27805 -0.541368 0.0
2.0857 0.0135078 0.0
6.37497 1.47384 0.0
0.64531 0.0286522 0.0
2.0059 -0.0159154 0.0
2.02155 -0.0167907 0.0
2.08062 -0.0268522 0.0
2.03286 0.0346921 0.0
0.679797 -0.0503904 0.0
1.12045 -0.0548455 0.0
2.15194 0.0735544 0.0
3.72428 0.260247 0.0
2.05633 0.0887742 0.0
1.94338 0.000939767 0.0
2.05508 0.00726859 0.0
5.64114 0.00976475 0.0
2.05883 -0.000292022 0.0
2.04477 0.0177598 0.0
2.07766 0.00314224 0.0
1.68864 -0.126377 0.0
2.4226 0.862482 0.0
2.03478 0.00747779 0.0
2.03577 0.0108345 0.0
2.03645 0.000702715 0.0
2.07131 -0.0215678 0.0
1.64272 0.0644117 0.0
2.01569 0.0163685 0.0
1.15288 -0.00175921 0.0
1.83617 0.18849 0.0
1.92664 0.0295931 0.0
2.01898 0.0322186 0.0
2.03554 0.0538181 0.0
2.05131 -0.00314513 0.0
2.04338 0.00586289 0.0
2.04818 -7.52962e-05 0.0
0.737043 0.0571264 0.0
1.19842 0.0955177 0.0
1.15332 -0.00299505 0.0
2.01137 0.0317155 0.0
2.03033 0.0126422 0.0
5.61546 -0.24234 0.0
1.12793 -0.00269798 0.0
2.05985 -0.00951886 0.0
2.05474 0.0010178 0.0
1.90389 0.0797645 0.0
2.0221 0.0164706 0.0
0.692384 -0.00522823 0.0
1.99375 0.00320395 0.0
2.06328 -0.00454703 0.0
2.09412 -0.0161963 0.0
1.93627 -0.0353424 0.0
1.9013 -0.0378548 0.0
1.98037 -0.00981676 0.0
1.79007 -0.0743239 0.0
5.9397 -0.17957 0.0
2.00863 0.0245908 0.0
2.04625 -0.0277115 0.0
2.03956 0.0213151 0.0
2.01732 0.0300587 0.0
1.80464 0.0332555 0.0
2.03123 0.0208888 0.0
2.1486 -0.214531 0.0
2.05809 -0.000405571 0.0
1.26573 0.0180107 0.0
2.05414 0.00850005 0.0
0.731015 -0.00349344 0.0
2.02657 0.0231806 0.0
2.01185 0.0419393 0.0
2.01373 0.0336949 0.0
0.686673 0.000868178 0.0
4.33593 -2.29286 0.0
2.06764 0.00628737 0.0
2.04371 0.0101455 0.0
1.98814 0.00250861 0.0
2.05121 -0.0101149 0.0
2.057 0.0298102 0.0
2.00863 0.0375368 0.0
2.02627 0.0160502 0.0
2.08319 0.0156559 0.0
2.02502 0.0478437 0.0
0.753541 0.012035 0.0
1.69093 0.0300093 0.0
2.01608 0.0077754 0.0
1.60991 1.63668 0.0
0.719336 -0.0171263 0.0
1.15016 -0.0139987 0.0
2.88657 -2.73102 0.0
2.04902 -0.000131267 0.0
2.04237 0.0341309 0.0
1.61634 -0.0171821 0.0
2.00134 -0.0140101 0.0
2.00227 -0.00819205 0.0
2.01718 0.0351059 0.0
1.2206 0.0328704 0.0
0.732383 -0.000951682 0.0
2.17982 -0.267425 0.0
2.03318 0.016825 0.0
2.05671 -0.0192407 0.0
2.01989 0.0312142 0.0
2.65704 -0.212982 0.0
2.06532 0.0402864 0.0
2.01188 0.0481078 0.0
2.02984 -0.00334651 0.0
0.707796 0.00223007 0.0
2.07901 0.0282266 0.0
2.04126 -0.00127398 0.0
0.727303 -0.0157027 0.0
2.05826 0.0553428 0.0
2.08668 0.0138146 0.0
2.01916 0.0466291 0.0
2.08109 -0.00553588 0.0
2.00563 -0.0149852 0.0
2.049 0.00388592 0.0
2.08313 -0.0334886 0.0
2.05661 -0.0230862 0.0
2.09384 0.0115 0.0
2.06727 -0.0154497 0.0
2.00583 -0.0190201 0.0
0.735043 -0.00364788 0.0
2.04566 -0.00457491 0.0
2.01067 -0.0222845 0.0
0.926248 0.017776 0.0
2.03449 0.00122126 0.0
1.30923 0.0432135 0.0
2.0911 0.0233982 0.0
2.0101 -0.0189248 0.0
2.01715 0.0477646 0.0
2.06346 -0.0201926 0.0
2.05684 -0.00953958 0.0
2.01245 0.0442233 0.0
1.76165 0.0773569 0.0
2.09856 -0.0174515 0.0
2.06981 -0.0120327 0.0
2.10607 0.0226977 0.0
0.684507 -0.0110281 0.0
2.00884 0.0372684 0.0
2.09346 -0.0058896 0.0
2.0745 -0.0167712 0.0
1.65355 -0.145543 0.0
2.00535 0.0396788 0.0
1.64057 0.0831381 0.0
2.0364 -0.019488 0.0
2.06247 -0.0152834 0.0
2.00369 0.0463727 0.0
1.9877 -0.0107123 0.0
2.01579 -0.0239643 0.0
2.03473 0.0643128 0.0
2.02997 -0.007929 0.0
6.57066 3.70863 0.0
2.08586 0.00155306 0.0
2.03394 0.0108775 0.0
2.02317 0.0447174 0.0
2.02056 0.0367552 0.0
2.02168 0.0499403 0.0
2.01457 -0.020943 0.0
2.03038 0.0506883 0.0
2.06437 -0.0251436 0.0
2.04675 0.0425624 0.0
1.99937 -0.00037669 0.0
2.06066 -0.0249615 0.0
1.79869 0.0821936 0.0
2.00596 0.0341408 0.0
2.03875 0.0535389 0.0
2.093 -0.00532742 0.0
2.03679 0.0411156 0.0
2.02014 -0.020504 0.0
2.02346 -0.0222247 0.0
0.777179 0.0164908 0.0
2.04544 -0.0131157 0.0
2.00765 0.0461088 0.0
2.05024 0.0509031 0.0
1.97654 0.0323007 0.0
1.2954 0.0425163 0.0
2.03714 -0.0200791 0.0
2.05398 0.0325575 0.0
2.10782 -0.0128415 0.0
1.97886 -0.0183463 0.0
2.03136 -0.0135542 0.0
2.07085 0.0172399 0.0
2.02729 -0.0158148 0.0
2.07713 -0.0284098 0.0
1.98951 0.0472663 0.0
2.02501 -0.00299925 0.0
2.06277 0.0560025 0.0
2.03652 0.0209204 0.0
1.74353 -0.0142789 0.0
2.03315 -0.0105522 0.0
2.00356 -0.0358505 0.0
0.798291 0.0300226 0.0
1.19668 0.0644639 0.0
2.03205 -0.00614429 0.0
2.03939 0.0611185 0.0
2.00465 -0.0273789 0.0
2.03367 -0.000727315 0.0
2.06655 0.0316526 0.0
1.99385 -0.0184511 0.0
2.0276 -0.0157214 0.0
2.02927 0.0118137 0.0
1.96948 -0.0233029 0.0
1.98562 -0.0181416 0.0
2.0763 0.0437419 0.0
1.96385 -0.0198958 0.0
2.14163 0.0751002 0.0
2.01029 -0.031412 0.0
2.01229 -0.0189884 0.0
1.99195 -0.0235872 0.0
1.97558 -0.0279949 0.0
2.01795 0.0432862 0.0
2.03113 0.00501647 0.0
0.978847 0.0428857 0.0
1.34748 0.0664787 0.0
2.0817 0.00989306 0.0
2.07758 -0.00444962 0.0
2.07671 0.0694106 0.0
2.03077 0.01542 0.0
2.02587 -0.0204382 0.0
2.02985 0.0467911 0.0
2.01755 0.0212424 0.0
2.02724 0.0356434 0.0
2.03996 -0.00803556 0.0
1.97888 -0.0333887 0.0
2.00976 -0.0396109 0.0
2.03952 -0.026876 0.0
2.02432 0.0143605 0.0
2.09423 0.0451149 0.0
2.02275 -0.00682134 0.0
1.99696 -0.0280816 0.0
4.16658 1.3518 0.0
1.95856 -0.0284892 0.0
2.0014 -0.0337219 0.0
1.9802 -0.044209 0.0
2.05168 0.00287517 0.0
1.99926 0.0216983 0.0
2.01098 0.0178244 0.0
2.02153 -0.0306539 0.0
1.9538 -0.0246913 0.0
2.03214 0.00923062 0.0
2.06052 0.0666373 0.0
1.99158 -0.0570825 0.0
2.02629 -0.0309471 0.0
1.98222 0.0086946 0.0
1.91729 0.0572344 0.0
2.01019 0.0367083 0.0
2.01532 -0.044164 0.0
1.77978 0.0352875 0.0
1.96229 -0.0331059 0.0
1.99516 0.0110842 0.0
2.02527 -0.0107919 0.0
2.03441 -0.0117116 0.0
1.95532 -0.0275627 0.0
0.720189 -0.0157979 0.0
1.15532 -0.0280837 0.0
1.87144 0.0998061 0.0
2.00292 -0.0169242 0.0
2.03652 -0.00133685 0.0
1.97091 -0.00994025 0.0
1.98338 -0.00399323 0.0
2.02021 0.0153514 0.0
1.30788 0.0521949 0.0
2.10694 0.0696202 0.0
1.15962 -0.028103 0.0
2.09982 0.0179223 0.0
1.9723 -0.0285131 0.0
1.96183 -0.0417216 0.0
2.01501 0.0285887 0.0
1.96075 -0.0606337 0.0
2.11493 0.00182393 0.0
1.98801 0.0332447 0.0
0.731171 -0.0132793 0.0
1.15343 -0.0261086 0.0
2.0329 -0.0184196 0.0
0.80933 0.0296052 0.0
1.9767 -0.0228538 0.0
1.98948 -0.0636542 0.0
2.01079 -0.026699 0.0
2.021 0.0256489 0.0
1.99545 0.00449278 0.0
2.15348 0.0140532 0.0
1.96199 0.0203866 0.0
1.94758 -0.00549151 0.0
1.15782 -0.0237222 0.0
0.756168 -0.0145709 0.0
1.7294 0.0795091 0.0
2.00646 0.0101474 0.0
1.99533 0.0388833 0.0
1.99944 -0.023255 0.0
1.96483 0.0404789 0.0
2.04101 0.00602787 0.0
1.75467 0.0921841 0.0
1.93303 0.0128892 0.0
1.98665 -0.0372291 0.0
1.95347 -0.0245669 0.0
1.22354 0.0422636 0.0
0.703907 -0.00617591 0.0
0.611655 -0.0190972 0.0
0.724478 -0.0149998 0.0
1.16377 -0.00876027 0.0
1.27041 0.0539142 0.0
0.668959 -0.00138699 0.0
0.745777 0.00547086 0.0
1.15358 -0.0319326 0.0
0.712474 -0.0165041 0.0
0.753209 -0.00936765 0.0
0.814381 0.0268153 0.0
1.17713 -0.0306162 0.0
0.786644 0.0251213 0.0
1.13339 -0.00964796 0.0
0.763997 0.0232232 0.0
1.20128 -0.0174246 0.0
1.18233 0.017501 0.0
0.718042 0.0434383 0.0
1.31358 0.0324087 0.0
1.15104 -0.0298551 0.0
1.12663 -0.017514 0.0
0.72995 0.0543356 0.0
1.14681 -0.00550051 0.0
1.18601 0.0720235 0.0
0.719244 0.014683 0.0
1.15337 -0.0226423 0.0
0.767322 0.0177573 0.0
0.719549 0.0337327 0.0
1.10397 -0.0315559 0.0
0.73933 0.031408 0.0
0.911456 0.0226448 0.0
0.756684 0.0609336 0.0
0.678301 0.0388444 0.0
0.702682 -0.00842649 0.0
1.17256 0.00585237 0.0
0.725846 -0.0183946 0.0
0.734768 -0.0126142 0.0
0.755679 0.0287598 0.0
0.76707 0.0151692 0.0
0.745286 0.014949 0.0
0.721122 0.0113263 0.0
0.637808 -0.0159038 0.0
0.712795 -0.00442084 0.0
0.868276 -7.73656e-05 0.0
1.24632 -0.00221304 0.0
0.782526 0.0173228 0.0
0.903825 0.0300293 0.0
1.14373 0.0685475 0.0
1.07627 -0.0382472 0.0
0.711222 -0.0192841 0.0
0.75809 0.037955 0.0
0.731998 0.0117668 0.0
1.17928 0.034318 0.0
0.677556 0.0384965 0.0
0.760111 0.0205735 0.0
0.703213 -0.0119446 0.0
1.1826 0.0485951 0.0