# vtk DataFile Version 3.0
Malha 2D com triângulos e temperatura
ASCII
DATASET UNSTRUCTURED_GRID

POINTS 1194 double
0 0 0
5 0 0
5 1 0
0 1 0
0.85 0.5 0
0.842388 0.538268 0
0.820711 0.570711 0
0.788268 0.592388 0
0.75 0.6 0
0.711732 0.592388 0
0.679289 0.570711 0
0.657612 0.538268 0
0.65 0.5 0
0.657612 0.461732 0
0.679289 0.429289 0
0.711732 0.407612 0
0.75 0.4 0
0.788268 0.407612 0
0.820711 0.429289 0
0.842388 0.461732 0
0.0793651 0 0
0.15873 0 0
0.238095 0 0
0.31746 0 0
0.396825 0 0
0.47619 0 0
0.555556 0 0
0.634921 0 0
0.714286 0 0
0.793651 0 0
0.873016 0 0
0.952381 0 0
1.03175 0 0
1.11111 0 0
1.19048 0 0
1.26984 0 0
1.34921 0 0
1.42857 0 0
1.50794 0 0
1.5873 0 0
1.66667 0 0
1.74603 0 0
1.8254 0 0
1.90476 0 0
1.98413 0 0
2.06349 0 0
2.14286 0 0
2.22222 0 0
2.30159 0 0
2.38095 0 0
2.46032 0 0
2.53968 0 0
2.61905 0 0
2.69841 0 0
2.77778 0 0
2.85714 0 0
2.93651 0 0
3.01587 0 0
3.09524 0 0
3.1746 0 0
3.25397 0 0
3.33333 0 0
3.4127 0 0
3.49206 0 0
3.57143 0 0
3.65079 0 0
3.73016 0 0
3.80952 0 0
3.88889 0 0
3.96825 0 0
4.04762 0 0
4.12698 0 0
4.20635 0 0
4.28571 0 0
4.36508 0 0
4.44444 0 0
4.52381 0 0
4.60317 0 0
4.68254 0 0
4.7619 0 0
4.84127 0 0
4.92063 0 0
5 0.0769231 0
5 0.153846 0
5 0.230769 0
5 0.307692 0
5 0.384615 0
5 0.461538 0
5 0.538462 0
5 0.615385 0
5 0.692308 0
5 0.769231 0
5 0.846154 0
5 0.923077 0
4.92063 1 0
4.84127 1 0
4.7619 1 0
4.68254 1 0
4.60317 1 0
4.52381 1 0
4.44444 1 0
4.36508 1 0
4.28571 1 0
4.20635 1 0
4.12698 1 0
4.04762 1 0
3.96825 1 0
3.88889 1 0
3.80952 1 0
3.73016 1 0
3.65079 1 0
3.57143 1 0
3.49206 1 0
3.4127 1 0
3.33333 1 0
3.25397 1 0
3.1746 1 0
3.09524 1 0
3.01587 1 0
2.93651 1 0
2.85714 1 0
2.77778 1 0
2.69841 1 0
2.61905 1 0
2.53968 1 0
2.46032 1 0
2.38095 1 0
2.30159 1 0
2.22222 1 0
2.14286 1 0
2.06349 1 0
1.98413 1 0
1.90476 1 0
1.8254 1 0
1.74603 1 0
1.66667 1 0
1.5873 1 0
1.50794 1 0
1.42857 1 0
1.34921 1 0
1.26984 1 0
1.19048 1 0
1.11111 1 0
1.03175 1 0
0.952381 1 0
0.873016 1 0
0.793651 1 0
0.714286 1 0
0.634921 1 0
0.555556 1 0
0.47619 1 0
0.396825 1 0
0.31746 1 0
0.238095 1 0
0.15873 1 0
0.0793651 1 0
0 0.923077 0
0 0.846154 0
0 0.769231 0
0 0.692308 0
0 0.615385 0
0 0.538462 0
0 0.461538 0
0 0.384615 0
0 0.307692 0
0 0.230769 0
0 0.153846 0
0 0.0769231 0
0.879698 0.466718 0
1.3085 0.931947 0
1.30532 0.0638546 0
4.93832 0.504275 0
0.620452 0.46964 0
3.99858 0.0669607 0
1.63721 0.934258 0
3.3751 0.0523709 0
4.3254 0.0687322 0
2.42354 0.0642082 0
2.97619 0.0687322 0
2.02101 0.0693621 0
3.68108 0.0581336 0
2.65899 0.932655 0
4.178 0.939994 0
3.21614 0.938179 0
2.25483 0.919987 0
3.53215 0.928998 0
3.84921 0.931268 0
1.69647 0.0674297 0
1.94349 0.930209 0
4.48413 0.931268 0
2.97813 0.942022 0
2.74097 0.0673855 0
0.859645 0.573263 0
0.639718 0.573116 0
0.0651563 0.652836 0
0.0635304 0.346121 0
4.56232 0.0679683 0
0.830393 0.392645 0
0.669618 0.39275 0
1.06185 0.0668897 0
0.440193 0.0680031 0
1.06474 0.93511 0
0.446074 0.935974 0
0.724697 0.630698 0
4.72268 0.931235 0
4.93065 0.267192 0
0.589836 0.936152 0
0.92338 0.0562425 0
0.590207 0.0623339 0
0.755872 0.0732784 0
0.838039 0.936714 0
4.92573 0.732039 0
0.281717 0.93783 0
0.28208 0.0811877 0
0.065248 0.503161 0
1.46076 0.0637037 0
4.72574 0.0661877 0
4.31028 0.937908 0
3.21429 0.0687322 0
1.46639 0.932632 0
3.6897 0.928155 0
2.42063 0.931268 0
3.5364 0.0691789 0
2.25998 0.0676208 0
1.78735 0.937047 0
4.01535 0.920637 0
1.85469 0.0674188 0
3.83991 0.0626292 0
3.37477 0.929368 0
2.58225 0.0657863 0
2.81746 0.932342 0
4.16667 0.0687322 0
2.11402 0.935574 0
0.0614266 0.197046 0
0.0612841 0.803003 0
4.88273 0.0644126 0
4.87774 0.933272 0
0.859645 0.426737 0
0.903081 0.436592 0
0.923672 0.473385 0
0.948706 0.439078 0
0.969155 0.479795 0
0.996593 0.439791 0
1.0202 0.484937 0
1.04667 0.440138 0
1.07382 0.489694 0
1.1034 0.440801 0
1.13169 0.49612 0
1.16603 0.445058 0
1.1931 0.504331 0
1.22956 0.450883 0
1.25923 0.506004 0
1.29683 0.453139 0
1.32923 0.510343 0
1.36603 0.454344 0
1.03276 0.530395 0
1.40063 0.516169 0
1.43576 0.454934 0
1.47042 0.520776 0
1.51069 0.46142 0
1.54422 0.526371 0
1.58547 0.465572 0
1.61942 0.531773 0
1.66033 0.468788 0
1.69546 0.536793 0
1.73713 0.472812 0
1.77239 0.541977 0
1.81532 0.478494 0
1.85006 0.547285 0
1.89327 0.483449 0
1.92802 0.55361 0
1.97142 0.488546 0
2.00623 0.558966 0
2.04984 0.493518 0
2.08483 0.564085 0
2.12847 0.498462 0
2.16353 0.569137 0
2.20719 0.503331 0
0.961579 0.391697 0
1.22451 0.565337 0
2.24238 0.574192 0
2.28611 0.508258 0
2.32134 0.579247 0
2.36519 0.513325 0
2.40036 0.584295 0
2.44425 0.51834 0
2.47944 0.589336 0
2.52334 0.523355 0
2.55853 0.594372 0
2.60245 0.52837 0
2.63764 0.599431 0
2.68159 0.533388 0
2.64637 0.462336 0
2.72553 0.467349 0
2.76076 0.538418 0
2.8047 0.47237 0
2.83993 0.543451 0
2.88387 0.477399 0
2.91911 0.548482 0
2.96305 0.482427 0
2.9983 0.553514 0
3.04224 0.487456 0
3.07749 0.558545 0
3.12143 0.492477 0
3.15668 0.563574 0
3.20063 0.497514 0
3.23588 0.568605 0
3.27983 0.502542 0
3.31508 0.573635 0
3.35903 0.507562 0
3.39428 0.578663 0
3.43823 0.5126 0
3.47348 0.583694 0
3.51744 0.517628 0
3.55268 0.588724 0
3.59664 0.522646 0
3.63189 0.593752 0
3.67585 0.527673 0
3.71109 0.598781 0
3.75505 0.532702 0
3.7903 0.60381 0
3.83426 0.537731 0
3.79901 0.466623 0
3.87821 0.471754 0
3.91346 0.542777 0
3.95742 0.476701 0
3.99267 0.547795 0
4.03662 0.481715 0
4.07187 0.552815 0
4.11582 0.486743 0
4.15106 0.55783 0
4.195 0.491782 0
4.23023 0.562843 0
4.27415 0.49682 0
4.30937 0.567866 0
4.35325 0.501915 0
4.38842 0.572845 0
4.43227 0.506997 0
4.46737 0.577575 0
4.51106 0.511995 0
4.54622 0.582183 0
1.13571 0.390292 0
4.47606 0.441361 0
4.55475 0.446396 0
2.32985 0.442214 0
3.5614 0.451571 0
3.08619 0.421408 0
2.09339 0.427815 0
1.42887 0.583001 0
2.84864 0.406329 0
3.32378 0.43649 0
4.23911 0.425894 0
1.54723 0.39251 0
1.77883 0.406811 0
1.33959 0.387065 0
3.92239 0.405803 0
4.08079 0.415776 0
2.48812 0.452349 0
1.57935 0.603183 0
1.93602 0.417543 0
1.72453 0.617973 0
3.11273 0.629643 0
2.69029 0.396284 0
3.94662 0.623383 0
1.88466 0.613248 0
2.79598 0.609502 0
4.10826 0.620575 0
2.04005 0.62838 0
2.95434 0.619575 0
4.51981 0.375801 0
4.59833 0.380943 0
4.63314 0.451296 0
4.26693 0.63114 0
2.19619 0.645921 0
4.4246 0.642296 0
3.27112 0.639707 0
2.35729 0.649822 0
2.51462 0.660373 0
3.42952 0.649769 0
4.67669 0.38601 0
3.58793 0.659829 0
3.74634 0.669888 0
4.64195 0.315733 0
4.44109 0.370647 0
4.48493 0.305066 0
4.40614 0.29989 0
4.71136 0.456133 0
4.72014 0.320758 0
0.8692 0.382093 0
0.841252 0.348256 0
0.886481 0.338703 0
0.853127 0.301457 0
0.902583 0.287335 0
0.801683 0.321689 0
0.818113 0.263019 0
0.764765 0.277091 0
4.44702 0.235678 0
0.946267 0.520761 0
0.78107 0.221265 0
0.726309 0.234724 0
0.848273 0.20551 0
4.68545 0.250576 0
4.37074 0.227561 0
4.76365 0.255792 0
4.79822 0.326145 0
0.713664 0.287231 0
0.672358 0.247957 0
0.68673 0.192342 0
0.630368 0.2085 0
0.616569 0.265341 0
0.574186 0.225456 0
0.557393 0.28131 0
0.52004 0.242373 0
0.504416 0.299685 0
0.462273 0.252096 0
0.44798 0.316739 0
0.404567 0.276951 0
0.390546 0.335414 0
0.434669 0.37657 0
0.377935 0.394545 0
0.421979 0.43426 0
0.365682 0.452846 0
0.409646 0.492216 0
0.353389 0.51089 0
0.397738 0.551598 0
0.339864 0.570301 0
0.385899 0.612153 0
0.325913 0.631557 0
0.344507 0.29318 0
0.320568 0.413067 0
0.373553 0.673852 0
0.434438 0.653082 0
0.311416 0.69481 0
0.449777 0.528305 0
0.293513 0.534612 0
0.421431 0.715204 0
0.480917 0.696603 0
0.54504 0.34471 0
0.262743 0.649913 0
0.246209 0.712341 0
0.468564 0.755948 0
0.526091 0.735423 0
0.538207 0.68039 0
0.581228 0.716342 0
0.408756 0.777952 0
0.36234 0.239019 0
0.297047 0.251925 0
0.572109 0.771575 0
0.624906 0.752173 0
0.474824 0.414151 0
0.534351 0.182707 0
0.633682 0.70159 0
0.674547 0.736174 0
0.66826 0.788959 0
0.721117 0.76834 0
0.714515 0.825486 0
0.769074 0.802008 0
0.775287 0.746591 0
0.821903 0.778625 0
0.826767 0.726064 0
0.873257 0.756032 0
0.872997 0.697261 0
0.92331 0.732304 0
0.930014 0.67838 0
0.976061 0.710612 0
0.92456 0.784469 0
0.982178 0.654421 0
1.03016 0.688004 0
1.02037 0.747059 0
1.08 0.723819 0
1.08651 0.661896 0
1.1397 0.698204 0
1.13262 0.763657 0
1.19424 0.736545 0
1.18556 0.80161 0
1.24839 0.771772 0
1.25723 0.706382 0
1.31432 0.745787 0
4.66801 0.521361 0
4.74602 0.526202 0
4.70285 0.591278 0
4.78076 0.596023 0
4.73763 0.661207 0
4.78904 0.460969 0
2.61113 0.391267 0
2.65506 0.325217 0
2.57588 0.320198 0
2.61982 0.254148 0
2.69899 0.259163 0
2.54065 0.249131 0
2.49672 0.315179 0
2.46148 0.244124 0
2.41757 0.310166 0
2.38233 0.239117 0
2.33843 0.30514 0
2.30297 0.237979 0
2.25928 0.300748 0
2.22079 0.221377 0
2.17969 0.293884 0
2.14114 0.224266 0
2.10047 0.289841 0
2.0653 0.219144 0
2.02202 0.284919 0
1.98701 0.214164 0
1.94336 0.279863 0
3.82315 0.673327 0
3.78135 0.738156 0
3.86451 0.735958 0
3.70234 0.735494 0
4.52513 0.244409 0
4.32717 0.294467 0
4.29217 0.221862 0
0.619934 0.539507 0
0.599432 0.577132 0
0.575955 0.542712 0
0.554504 0.58245 0
4.65962 0.656481 0
4.69438 0.726169 0
4.6161 0.721747 0
4.77259 0.731352 0
4.65076 0.791486 0
4.57153 0.788793 0
4.2482 0.289182 0
4.21307 0.218308 0
4.1691 0.284563 0
4.13394 0.21352 0
0.835918 0.606341 0
0.806475 0.6384 0
4.08995 0.279537 0
0.640355 0.426737 0
0.596214 0.435837 0
0.630358 0.379178 0
0.689967 0.627735 0
1.90832 0.209948 0
1.86468 0.27519 0
1.82968 0.20518 0
1.78607 0.269797 0
0.281841 0.313314 0
0.232117 0.268621 0
0.216861 0.334396 0
4.05473 0.209347 0
4.01077 0.2745 0
3.97554 0.204394 0
3.93159 0.269388 0
0.297409 0.759367 0
0.231645 0.782943 0
0.180008 0.73598 0
1.32151 0.676369 0
1.38055 0.718092 0
1.36901 0.793947 0
1.43945 0.766002 0
0.249902 0.198865 0
0.932364 0.624392 0
1.75117 0.201034 0
1.70771 0.264658 0
1.673 0.195402 0
1.62985 0.260294 0
1.59532 0.191927 0
1.55236 0.254233 0
3.89629 0.200227 0
3.85238 0.264494 0
3.81708 0.195303 0
3.77304 0.259453 0
2.66368 0.189084 0
2.74279 0.19534 0
2.77814 0.264556 0
2.82201 0.199823 0
2.85733 0.269552 0
2.90126 0.203886 0
2.93654 0.274416 0
2.98045 0.20868 0
3.01573 0.279376 0
3.0597 0.213193 0
[...]
CELL_DATA 2220
VECTORS velocity double
8.49933 -0.610251 0.0
6.72539 0.325961 0.0
13.158 3.69028 0.0
13.0581 0.948724 0.0
8.6783 -0.756766 0.0
9.27504 -0.449377 0.0
5.85682 0.319098 0.0
6.36352 0.0109622 0.0
12.3212 7.40165 0.0
9.14112 -0.281351 0.0
8.51776 15.1239 0.0
6.05909 0.238476 0.0
5.01853 0.170743 0.0
11.3164 -3.46376 0.0
11.8134 14.0539 0.0
5.74413 8.23572 0.0
6.60901 0.268701 0.0
5.49978 0.341913 0.0
6.05496 -0.0869443 0.0
6.3762 -0.0613843 0.0
11.4578 2.71748 0.0
22.9366 -5.79967 0.0
6.19712 0.346377 0.0
6.27163 0.383888 0.0
8.33527 -0.554107 0.0
10.4386 -2.69212 0.0
12.0297 -1.33269 0.0
5.5516 0.385076 0.0
12.9979 0.965595 0.0
14.5656 0.870154 0.0
5.87626 -2.01196 0.0
16.7777 0.307903 0.0
4.76924 -0.0842483 0.0
16.747 -11.0448 0.0
24.1525 1.50833 0.0
9.36647 -0.49653 0.0
24.4214 2.28279 0.0
5.33659 -0.0739034 0.0
14.8215 1.09638 0.0
15.018 -1.06351 0.0
7.68549 -0.692547 0.0
12.3509 6.3229 0.0
11.1821 0.816762 0.0
5.94658 0.01865 0.0
5.45629 0.0673911 0.0
5.01998 0.0268317 0.0
6.10528 0.378531 0.0
5.0699 0.0122505 0.0
9.12776 -0.240313 0.0
9.44906 0.0598454 0.0
9.24741 2.06076 0.0
4.93565 0.075629 0.0
5.99263 0.407741 0.0
5.95248 0.0850329 0.0
5.69298 0.267829 0.0
15.0132 -1.43514 0.0
17.8589 -0.0736545 0.0
5.2453 0.356861 0.0
5.41453 0.364474 0.0
9.58655 0.0090723 0.0
0.672178 -1.26501 0.0
8.85256 -0.80083 0.0
6.89689 -2.57394 0.0
6.10582 0.423778 0.0
6.06452 0.369173 0.0
17.6903 -9.29499 0.0
10.9045 -0.912018 0.0
7.1548 7.25698 0.0
5.34047 0.366243 0.0
5.38938 0.405332 0.0
5.90811 0.13611 0.0
17.645 9.93382 0.0
4.85039 0.133823 0.0
9.41584 0.25948 0.0
23.4199 -1.60744 0.0
22.3853 -0.295632 0.0
8.19726 2.27133 0.0
8.10561 -1.50278 0.0
10.1833 6.23123 0.0
5.80212 0.109941 0.0
12.6439 1.6935 0.0
15.3984 1.68754 0.0
8.71116 -0.21116 0.0
4.95492 0.105041 0.0
5.95801 0.327302 0.0
5.93425 0.190399 0.0
8.16432 -0.78605 0.0
5.13439 0.174262 0.0
5.20244 0.272969 0.0
13.2131 7.89838 0.0
22.6756 -3.99361 0.0
8.91947 2.25359 0.0
6.02731 -0.103599 0.0
10.5596 2.81875 0.0
21.4667 0.0993152 0.0
15.0607 1.21524 0.0
24.2883 4.65077 0.0
-0.797427 -17.0989 0.0
1.34217 -1.12741 0.0
15.0515 11.4969 0.0
-8.04999 -17.6583 0.0
9.30385 -1.92501 0.0
6.03727 0.378916 0.0
5.48658 0.499982 0.0
22.8404 -5.16897 0.0
23.1311 -0.908186 0.0
9.26206 -0.389024 0.0
9.55816 -0.55032 0.0
2.11497 -0.0388443 0.0
6.26617 0.524398 0.0
15.757 0.76274 0.0
13.1848 -4.86148 0.0
9.19752 -0.298377 0.0
6.6004 -0.471414 0.0
9.53569 -1.03022 0.0
5.30598 0.348927 0.0
10.3038 -2.52433 0.0
10.5179 -0.365468 0.0
0.18648 -20.5226 0.0
14.3446 7.18943 0.0
7.55457 -1.14347 0.0
17.1749 -0.460126 0.0
7.38472 1.68599 0.0
21.5566 -8.41941 0.0
23.3652 0.70059 0.0
2.12643 -9.45161 0.0
23.7947 -1.49131 0.0
13.0272 0.831526 0.0
11.6199 -4.22666 0.0
-7.60915 8.03717 0.0
5.64293 0.150974 0.0
23.7885 4.61959 0.0
22.3577 6.10699 0.0
6.47073 0.766797 0.0
14.7773 1.14852 0.0
6.02061 0.908451 0.0
4.70142 0.0111294 0.0
10.1665 -1.98738 0.0
4.24804 -10.1517 0.0
17.0499 0.566714 0.0
10.9427 -2.58703 0.0
5.87597 -0.0088548 0.0
9.48092 -1.36171 0.0
22.7648 0.321933 0.0
9.30382 0.24342 0.0
10.0185 2.46787 0.0
-12.5241 8.39013 0.0
2.53536 -17.91 0.0
9.99203 0.882726 0.0
9.57284 -0.747696 0.0
5.43415 -0.0182362 0.0
14.367 6.15763 0.0
17.4246 0.00348689 0.0
19.7976 -10.5568 0.0
4.66564 0.985917 0.0
6.61219 0.143656 0.0
12.4092 -1.11928 0.0
6.75687 0.240524 0.0
7.33215 -0.690896 0.0
8.1858 -1.77725 0.0
21.9242 8.46346 0.0
5.411 0.03078 0.0
-12.6969 -8.67528 0.0
16.8858 -0.0957968 0.0
4.86344 0.0726884 0.0
17.8654 -10.9796 0.0
10.0225 -11.9608 0.0
23.5318 0.373516 0.0
6.55369 0.095587 0.0
19.3713 11.2213 0.0
-7.85255 14.251 0.0
4.92468 0.0642496 0.0
5.95321 0.0592624 0.0
-7.94473 -8.41875 0.0
-2.19045 -4.17289 0.0
9.71437 5.40429 0.0
7.28999 2.41034 0.0
8.19916 5.15284 0.0
4.78815 -0.881958 0.0
6.50083 0.0546095 0.0
17.0148 -0.195125 0.0
8.94671 -1.95463 0.0
15.075 -16.2248 0.0
-2.81751 13.1375 0.0
6.50569 0.0191035 0.0
7.71811 -0.965952 0.0
24.1976 0.123333 0.0
5.4062 -0.0306967 0.0
24.5934 3.5967 0.0
23.4889 0.228933 0.0
8.49239 -0.826421 0.0
5.27535 -0.128687 0.0
12.9093 -5.45731 0.0
9.95996 0.707096 0.0
12.1011 -0.44706 0.0
24.1903 -0.264949 0.0
7.84039 0.262067 0.0
5.99189 -0.0482562 0.0
3.945 -0.250363 0.0
6.20868 -0.0768156 0.0
5.44928 -0.191931 0.0
7.48486 -0.0391891 0.0
19.9297 -8.91115 0.0
6.1285 0.0700613 0.0
7.83614 0.842942 0.0
8.62052 -1.38969 0.0
12.0142 -2.38582 0.0
5.80734 0.0732357 0.0
8.04326 0.0933226 0.0
4.09353 -0.561714 0.0
5.99013 0.359929 0.0
6.79208 18.286 0.0
7.621 -0.0914173 0.0
9.50993 7.16208 0.0
8.85937 2.80993 0.0
6.72149 0.179625 0.0
5.22894 0.332051 0.0
6.07227 0.405752 0.0
5.56694 1.03784 0.0
23.5644 0.945086 0.0
9.19728 0.124145 0.0
3.28576 -0.0561196 0.0
5.28437 0.376497 0.0
3.1554 -0.00337381 0.0
6.10422 0.0435149 0.0
7.03947 -0.0691448 0.0
6.77879 -1.05564 0.0
11.936 15.0554 0.0
14.0161 -3.35253 0.0
6.64952 0.348712 0.0
7.40911 0.119267 0.0
7.76544 -0.472248 0.0
4.53379 -0.00940535 0.0
6.25008 0.00738983 0.0
6.83687 -0.243024 0.0
21.6517 0.131304 0.0
-2.84499 -5.9973 0.0
6.00531 -0.125434 0.0
5.9701 -0.145688 0.0
5.52469 -0.00400468 0.0
21.8674 -0.210124 0.0
21.0573 8.39098 0.0
22.9392 -3.29526 0.0
3.56294 0.0232761 0.0
6.63985 0.799124 0.0
9.2117 -0.06035 0.0
6.4642 0.0192558 0.0
16.13 -0.528977 0.0
3.9433 1.17725 0.0
11.4491 0.611241 0.0
6.07859 -0.758244 0.0
3.56187 -0.0269659 0.0
8.39072 -11.3883 0.0
9.19995 -0.0618866 0.0
8.38093 -3.81926 0.0
5.94547 0.242653 0.0
-13.2641 1.51062 0.0
9.15176 0.00813852 0.0
12.0734 0.128236 0.0
21.1971 0.173628 0.0
6.58851 -0.187651 0.0
17.5763 -0.280704 0.0
6.625 0.475118 0.0
9.72278 -2.3613 0.0
3.47968 -0.202411 0.0
5.28503 -0.0457557 0.0
5.85169 -0.0708608 0.0
0.41857 -3.67814 0.0
9.85431 2.54356 0.0
9.24777 -0.0835672 0.0
9.02307 0.329339 0.0
9.4642 0.0255952 0.0
5.15966 0.207298 0.0
9.42333 -0.636536 0.0
-3.6579 -10.2235 0.0
22.9913 -2.06752 0.0
15.9393 -14.4755 0.0
3.23085 -1.75241 0.0
7.04199 1.42168 0.0
8.31418 0.0534508 0.0
1.80344 -13.2055 0.0
13.8646 -0.170151 0.0
21.7316 -0.354751 0.0
7.65676 0.24626 0.0
9.31312 -0.567761 0.0
7.1721 -0.0231382 0.0
18.208 -0.392748 0.0
7.40774 0.287865 0.0
5.30314 -0.106584 0.0
5.16751 -0.12563 0.0
-13.2472 -1.94319 0.0
6.0444 -0.411665 0.0
4.48419 0.815898 0.0
6.36587 -0.330738 0.0
6.90121 -0.587939 0.0
7.22685 -0.105627 0.0
7.2817 -0.0916145 0.0
12.1394 0.246557 0.0
22.3789 -2.9677 0.0
9.36832 2.51332 0.0
5.06825 -0.0707146 0.0
10.2091 4.62368 0.0
12.5542 -3.95882 0.0
4.9997 0.0486228 0.0
6.9844 -9.37044 0.0
6.50043 0.19393 0.0
5.08643 0.00744787 0.0
5.21692 -0.135423 0.0
9.71824 0.221209 0.0
3.93557 0.593768 0.0
6.81106 1.10845 0.0
3.24724 0.12975 0.0
-0.700842 17.1988 0.0
22.2035 -1.05343 0.0
18.1146 10.4317 0.0
5.90129 -0.134292 0.0
8.12419 4.09603 0.0
6.93114 0.106729 0.0
21.4675 -0.188508 0.0
9.84991 2.74302 0.0
15.8926 14.4367 0.0
7.55941 1.67381 0.0
9.08605 0.0283703 0.0
7.1035 -0.00027462 0.0
3.48102 0.295316 0.0
5.99378 -0.963559 0.0
9.48074 0.0777604 0.0
9.19386 0.360401 0.0
9.27866 0.119216 0.0
5.39524 -0.975568 0.0
7.53861 -7.97663 0.0
23.0006 0.759511 0.0
4.45079 -2.63766 0.0
6.62882 -0.403012 0.0
16.6817 -7.98964 0.0
21.4788 -0.363607 0.0
13.4169 -0.755738 0.0
11.0351 4.47786 0.0
17.2888 -0.726148 0.0
5.94242 -0.147257 0.0
4.47386 0.511567 0.0
5.44398 -0.157427 0.0
4.03361 -0.0344735 0.0
3.54534 -0.445505 0.0
13.4311 15.868 0.0
11.5779 5.83324 0.0
4.92758 0.49777 0.0
10.5709 3.29519 0.0
10.0266 1.58244 0.0
2.93299 -0.474642 0.0
18.6467 -6.05657 0.0
2.65719 0.431404 0.0
4.04696 0.0875791 0.0
3.27189 8.047 0.0
3.48361 0.379065 0.0
21.9527 0.00861927 0.0
19.086 -7.31053 0.0
2.03678 -0.133981 0.0
9.06426 0.224157 0.0
16.1559 -0.875372 0.0
10.1028 1.61836 0.0
2.06193 17.8621 0.0
11.5125 3.48723 0.0
10.26 2.32285 0.0
3.72738 0.236745 0.0
9.72329 0.171134 0.0
23.2374 5.8833 0.0
2.57944 -0.421263 0.0
3.93765 -0.185423 0.0
17.7166 -0.593993 0.0
2.65186 0.44027 0.0
23.618 -4.40185 0.0
18.9439 7.83417 0.0
6.64652 -0.213498 0.0
3.02879 -0.0404983 0.0
8.18041 0.319052 0.0
7.83346 0.225092 0.0
7.75327 0.0988138 0.0
21.2917 0.0229671 0.0
7.3625 -0.0810147 0.0
7.65621 0.337323 0.0
21.2995 0.133794 0.0
22.0173 -0.107518 0.0
9.20429 0.0478799 0.0
20.4023 0.443976 0.0
9.12688 -0.0395503 0.0
22.0168 -4.136 0.0
9.08166 0.02194 0.0
11.4585 -3.32185 0.0
9.95731 1.1295 0.0
6.49137 0.517512 0.0
9.21132 0.0378618 0.0
15.4272 -0.46486 0.0
7.30755 -3.64436 0.0
6.07808 -0.586596 0.0
6.28289 -0.790298 0.0
20.868 0.187458 0.0
5.83987 0.443881 0.0
9.09762 0.0360231 0.0
20.5384 0.38978 0.0
4.95255 0.178622 0.0
14.1493 2.50969 0.0
10.16 1.92338 0.0
9.1386 0.00415066 0.0
22.6115 6.45135 0.0
23.5128 3.65409 0.0
3.82882 0.530388 0.0
3.67378 0.457526 0.0
12.4042 0.647256 0.0
13.9385 -9.13443 0.0
4.55471 -11.8427 0.0
3.39328 0.488215 0.0
20.7088 0.13779 0.0
8.86299 -3.07131 0.0
20.519 -0.346779 0.0
9.12872 -0.00564789 0.0
3.02288 -0.105367 0.0
2.29113 0.344882 0.0
12.9144 5.49395 0.0
3.88367 0.134723 0.0
10.1266 3.3315 0.0
19.7455 0.556166 0.0
3.01727 0.00339841 0.0
3.90109 -0.063184 0.0
9.96098 1.35874 0.0
8.82478 0.115656 0.0
2.94222 0.116545 0.0
8.56304 -0.0839516 0.0
9.12689 0.0591472 0.0
3.83479 -0.419062 0.0
9.15931 0.0254359 0.0
9.68831 1.32989 0.0
20.5657 -0.579116 0.0
9.73889 0.83466 0.0
4.90016 -0.426698 0.0
24.0384 4.9851 0.0
3.30848 -0.488485 0.0
4.81165 0.305442 0.0
6.08692 -7.00213 0.0
4.10742 0.319286 0.0
9.98059 1.84047 0.0
9.77706 0.991086 0.0
21.7094 3.44189 0.0
23.3033 2.4314 0.0
7.40053 -0.724986 0.0
10.5689 2.06516 0.0
20.4171 0.370045 0.0
2.13928 -0.187567 0.0
1.96916 0.210063 0.0
5.75987 -0.110787 0.0
7.39563 0.670601 0.0
9.17484 -0.224432 0.0
5.1015 -0.278394 0.0
13.3042 0.474614 0.0
9.55569 0.452261 0.0
3.36791 0.331756 0.0
8.04776 0.471835 0.0
10.4557 2.71625 0.0
4.89663 0.252996 0.0
9.43903 0.57767 0.0
9.42933 0.985578 0.0
8.93949 0.095936 0.0
4.21467 -0.335789 0.0
3.26665 0.236795 0.0
4.94607 0.348803 0.0
7.68217 0.0260127 0.0
4.95273 -0.128852 0.0
9.19781 0.0481319 0.0
2.9557 0.0650773 0.0
22.4386 1.63142 0.0
3.58025 -0.109714 0.0
2.00471 0.24934 0.0
9.77287 -0.9546 0.0
10.9454 3.75185 0.0
3.62086 -0.314656 0.0
8.92979 0.0798054 0.0
9.48105 0.729265 0.0
13.2431 2.62417 0.0
9.1813 0.0776457 0.0
9.15541 0.753644 0.0
7.08985 -0.842128 0.0
17.5851 -6.46015 0.0
9.82601 -1.3713 0.0
8.88878 0.567434 0.0
4.77301 -0.462532 0.0
5.07908 0.483438 0.0
20.2995 -0.0596707 0.0
1.79837 0.161156 0.0
17.8787 -0.630573 0.0
7.48964 0.601009 0.0
9.23976 0.0798016 0.0
1.87289 0.183166 0.0
2.23452 -0.248234 0.0
9.2075 0.507551 0.0
11.5514 4.96991 0.0
7.92309 -0.0965263 0.0
15.6786 -0.615234 0.0
9.04287 0.0549614 0.0
14.5257 -0.589997 0.0
6.42752 -0.617716 0.0
8.75203 -0.0607763 0.0
9.2989 1.11604 0.0
1.95436 -0.079869 0.0
8.70183 0.409247 0.0
7.82723 0.35077 0.0
5.49151 -0.125824 0.0
9.13287 0.0605465 0.0
3.12491 -0.272806 0.0
3.45048 0.276128 0.0
9.5868 1.51602 0.0
8.86548 -0.0742217 0.0
8.813 -0.275354 0.0
6.17182 -0.0871871 0.0
8.87834 0.0689029 0.0
9.25215 0.0629435 0.0
8.54616 -2.24284 0.0
2.67001 0.155484 0.0
8.9895 0.143552 0.0
9.86042 -1.6435 0.0
8.76512 0.66125 0.0
8.43166 0.239449 0.0
4.70406 -0.2679 0.0
16.2871 -9.54936 0.0
4.02361 -0.777232 0.0
12.7138 -10.9115 0.0
9.04361 -0.332359 0.0
9.9192 1.86423 0.0
9.01912 0.102575 0.0
2.75811 -0.150073 0.0
8.59993 0.290952 0.0
8.53133 0.120472 0.0
8.54182 0.510774 0.0
9.33616 0.0447095 0.0
9.03319 0.848472 0.0
8.9211 0.215319 0.0
14.0636 -0.518949 0.0
14.0433 -2.08779 0.0
5.14844 -0.440628 0.0
20.0904 -0.554875 0.0
5.09075 -0.0747429 0.0
8.38115 -0.32123 0.0
4.90079 -0.908747 0.0
20.2967 6.37103 0.0
9.30276 0.0462559 0.0
2.3049 -0.207148 0.0
2.3653 0.215498 0.0
8.85417 0.149442 0.0
19.7008 0.611384 0.0
8.5375 0.218914 0.0
7.07248 0.284192 0.0
2.19011 -0.0360867 0.0
3.42227 -0.0628621 0.0
2.97361 0.0736483 0.0
2.25779 0.292422 0.0
4.07632 -0.511701 0.0
9.72806 -2.49995 0.0
9.35177 0.0391637 0.0
22.1764 4.7636 0.0
1.0437 0.185843 0.0
8.11537 -0.026302 0.0
8.39206 -0.0305097 0.0
8.13426 -0.173896 0.0
7.94774 0.499536 0.0
1.11877 -0.204656 0.0
2.36977 -0.29581 0.0
7.92502 0.208826 0.0
12.0816 0.635249 0.0
8.41598 0.379427 0.0
7.30699 -0.207039 0.0
8.8816 -0.0183901 0.0
22.6735 -0.242793 0.0
9.02101 -0.0203139 0.0
8.42425 0.351435 0.0
9.26268 0.0297966 0.0
2.96497 -0.206805 0.0
9.86335 3.93091 0.0
9.18105 0.0623658 0.0
8.94351 0.0889702 0.0
9.16905 0.0239711 0.0
8.63146 -0.119576 0.0
2.86458 0.138013 0.0
9.12179 0.0563169 0.0
2.91595 -0.0722754 0.0
5.63631 0.578282 0.0
7.47164 0.0446416 0.0
8.5066 0.187864 0.0
8.33929 0.27884 0.0
9.13011 0.0698775 0.0
9.17377 0.0860491 0.0
9.14244 0.0923224 0.0
1.73022 0.129431 0.0
3.13234 0.22755 0.0
2.97602 -0.0410932 0.0
9.10663 0.114245 0.0
8.82946 0.11013 0.0
22.0705 0.253708 0.0
2.85546 0.0848758 0.0
8.90601 -0.000884561 0.0
8.91695 0.171413 0.0
5.94839 0.811243 0.0
8.89559 0.00123078 0.0
1.52935 0.0515735 0.0
8.71745 -0.0239552 0.0
8.61754 -0.0387316 0.0
8.93372 -0.123483 0.0
7.55335 -0.123076 0.0
7.17119 -0.123107 0.0
8.6242 -0.0480705 0.0
4.21093 -0.397157 0.0
22.9031 -1.01439 0.0
9.08466 0.0785714 0.0
9.03216 -0.0884976 0.0
8.97923 0.109353 0.0
8.51547 0.177324 0.0
5.95665 0.0240734 0.0
8.85372 0.124023 0.0
9.61344 -0.97349 0.0
9.21277 0.0094307 0.0
3.34553 0.102356 0.0
8.66491 0.25387 0.0
1.62379 -0.0538652 0.0
9.15935 0.109939 0.0
9.10529 0.154342 0.0
8.54461 0.182366 0.0
1.38994 0.101042 0.0
15.5487 -7.92586 0.0
9.2655 0.0272323 0.0
9.14971 0.107375 0.0
8.77641 -0.0211588 0.0
9.06627 -0.0194959 0.0
9.04736 0.124408 0.0
9.08254 0.130302 0.0
9.16422 0.0765866 0.0
9.29437 0.0619809 0.0
8.61796 0.199481 0.0
1.72261 0.0401694 0.0
5.05199 0.121774 0.0
9.09671 0.0105319 0.0
6.87666 5.87052 0.0
1.47131 -0.110882 0.0
3.03105 -0.0372605 0.0
11.1355 -8.86487 0.0
8.93513 0.168539 0.0
8.91267 0.145134 0.0
5.15701 -0.0557363 0.0
8.87022 -0.060925 0.0
8.93838 -0.0414201 0.0
7.57767 0.529149 0.0
3.06679 0.0853125 0.0
1.68215 -0.0274462 0.0
9.72256 -1.15592 0.0
8.44813 0.311605 0.0
8.87541 -0.127158 0.0
9.13933 0.127291 0.0
6.7751 -0.931713 0.0
8.9995 0.148773 0.0
8.29142 0.236338 0.0
9.10893 -0.0186021 0.0
1.61824 0.0370624 0.0
9.12696 0.113841 0.0
9.1561 -0.00444441 0.0
1.75084 -0.0260058 0.0
8.73523 0.197666 0.0
9.27549 0.0601743 0.0
9.12913 0.181254 0.0
9.17676 0.0192709 0.0
8.92575 -0.0666022 0.0
9.20726 0.0122819 0.0
8.76176 -0.18878 0.0
9.09596 -0.0670456 0.0
9.18447 0.0691514 0.0
9.08897 -0.00694018 0.0
8.86344 -0.082465 0.0
1.72017 -0.0190178 0.0
9.14563 0.0236661 0.0
8.86529 -0.097662 0.0
2.19198 0.0632234 0.0
9.15104 -0.00251823 0.0
3.36054 0.109283 0.0
9.08837 0.106471 0.0
8.92525 -0.0845461 0.0
9.12576 0.176292 0.0
9.17331 -0.0581241 0.0
9.1279 -0.00929161 0.0
9.09815 0.160911 0.0
5.83356 0.157073 0.0
8.92102 0.0331398 0.0
8.66546 0.116046 0.0
8.85868 0.128437 0.0
1.58227 -0.0109039 0.0
9.04591 0.141145 0.0
9.12284 0.0369048 0.0
8.53454 -0.243555 0.0
2.78588 -0.235425 0.0
8.31702 0.208959 0.0
2.75118 0.1628 0.0
8.44603 -0.276053 0.0
8.82083 0.105704 0.0
8.37114 0.216544 0.0
8.71787 -0.0503481 0.0
8.8727 -0.103368 0.0
8.49199 0.229953 0.0
9.03785 -0.0348398 0.0
20.4275 8.33969 0.0
8.15435 -0.220745 0.0
8.96602 0.0135348 0.0
9.13057 0.181673 0.0
9.13132 0.152617 0.0
9.13734 0.178188 0.0
8.93111 -0.0941747 0.0
9.1743 0.182728 0.0
8.59848 -0.0711353 0.0
9.22177 0.158285 0.0
8.80387 -0.0272513 0.0
8.88374 -0.0186952 0.0
5.683 0.212442 0.0
8.98829 0.119988 0.0
9.20392 0.181687 0.0
8.38232 -0.110763 0.0
9.17245 0.16637 0.0
8.94225 -0.0912948 0.0
8.88625 -0.0921897 0.0
1.77144 0.0463158 0.0
9.03891 -0.0266867 0.0
8.29196 0.219118 0.0
9.24665 0.172071 0.0
7.94708 0.0653456 0.0
3.43146 0.14087 0.0
8.84278 -0.042199 0.0
9.22818 0.130002 0.0
8.74336 0.0740063 0.0
8.39367 -0.0651681 0.0
8.8988 -0.0579087 0.0
9.27705 0.0696587 0.0
8.95649 -0.0704214 0.0
8.76171 0.00139799 0.0
7.52 0.495969 0.0
9.10794 -0.0200569 0.0
9.29121 0.167508 0.0
9.15304 0.121211 0.0
5.52543 -0.0424163 0.0
8.99817 -0.0376708 0.0
8.27525 -0.0887589 0.0
1.90701 0.086441 0.0
3.1699 0.173905 0.0
8.96361 -0.0322437 0.0
9.18706 0.179303 0.0
8.67632 -0.114168 0.0
8.89657 -0.00947636 0.0
9.28512 0.111756 0.0
8.69137 -0.0754524 0.0
8.81616 -0.0538786 0.0
8.86944 0.0375599 0.0
8.2319 -0.0866511 0.0
8.58018 -0.0715952 0.0
9.32961 0.132704 0.0
8.28547 -0.0729845 0.0
9.44374 0.123941 0.0
8.67757 -0.124131 0.0
8.78678 -0.0874359 0.0
8.55827 -0.0932172 0.0
8.19661 -0.105215 0.0
9.09506 0.161187 0.0
8.95272 0.0116915 0.0
2.36187 0.100713 0.0
3.54678 0.146942 0.0
9.32638 0.0355176 0.0
9.29157 -0.00773889 0.0
8.61696 0.211783 0.0
8.65604 0.0515781 0.0
8.69558 -0.0554179 0.0
9.16421 0.179573 0.0
8.81069 0.0702939 0.0
9.11395 0.159927 0.0
9.07715 -0.023431 0.0
8.16926 -0.12668 0.0
8.54155 -0.136175 0.0
8.71903 -0.03823 0.0
8.91739 0.0479316 0.0
9.38048 0.11321 0.0
9.07592 -0.0346394 0.0
8.54659 -0.113284 0.0
14.7219 5.43948 0.0
7.96584 -0.10055 0.0
8.53984 -0.130795 0.0
8.14845 -0.15155 0.0
9.07475 0.113883 0.0
8.72725 0.074785 0.0
8.85692 0.0633469 0.0
8.69019 -0.112592 0.0
8.01962 -0.0863547 0.0
8.53146 0.0302512 0.0
9.2739 0.181684 0.0
8.13891 -0.164566 0.0
8.55583 -0.103344 0.0
8.64847 0.0430262 0.0
6.30793 0.127503 0.0
9.03003 0.141231 0.0
8.1362 -0.122267 0.0
5.62114 0.0870383 0.0
7.92615 -0.119863 0.0
8.78697 0.0476486 0.0
8.13374 -0.0343695 0.0
8.55629 -0.0394149 0.0
8.10463 -0.08355 0.0
1.69222 -0.0358265 0.0
3.02056 -0.065568 0.0
6.23186 0.192194 0.0
8.68171 -0.0848407 0.0
8.69524 -0.00719725 0.0
8.60277 -0.00824978 0.0
8.73391 0.00501534 0.0
8.09289 0.0478135 0.0
3.46671 0.086988 0.0
9.3946 0.147901 0.0
3.07993 -0.0674947 0.0
9.38915 0.0482179 0.0
8.61508 -0.0546557 0.0
7.8907 -0.145212 0.0
8.57159 0.0939018 0.0
7.85125 -0.174621 0.0
9.42054 -0.00104721 0.0
8.44904 0.106914 0.0
1.7404 -0.0348013 0.0
3.04518 -0.0671782 0.0
8.702 -0.0684351 0.0
1.91836 0.0530023 0.0
8.71828 -0.0473167 0.0
7.84811 -0.162592 0.0
7.84214 -0.0767064 0.0
8.46239 0.0853612 0.0
8.723 -0.0161308 0.0
9.47047 0.0185916 0.0
8.33569 0.0765592 0.0
8.26979 0.018629 0.0
3.06161 -0.0574012 0.0
1.80574 -0.0350098 0.0
5.39246 0.156811 0.0
7.80735 0.0222412 0.0
8.33194 0.12024 0.0
8.67984 -0.0965784 0.0
8.18535 0.118624 0.0
8.93689 0.0003369 0.0
5.4651 0.176418 0.0
8.06896 0.0629738 0.0
8.76991 -0.0834776 0.0
8.27512 -0.0232439 0.0
3.15846 0.0898794 0.0
1.65146 -0.0209498 0.0
1.40713 -0.0378946 0.0
1.75008 -0.0320695 0.0
3.09704 -0.014616 0.0
3.31332 0.0827862 0.0
1.54148 -0.00627882 0.0
1.73761 0.00610835 0.0
3.00813 -0.0674476 0.0
1.66553 -0.0295583 0.0
1.78817 -0.0197198 0.0
1.91872 0.0616126 0.0
3.25366 -0.0608573 0.0
1.84312 0.047465 0.0
2.96053 -0.0356299 0.0
1.78454 0.0475703 0.0
3.16053 -0.0321609 0.0
3.08685 0.0278454 0.0
1.71237 0.0851687 0.0
3.43447 0.0857153 0.0
3.00748 -0.0603322 0.0
2.94075 -0.0493896 0.0
1.74457 0.11628 0.0
2.89985 -0.0257029 0.0
3.06741 0.126295 0.0
1.65545 0.0174803 0.0
2.99335 -0.0417653 0.0
1.83807 0.0295701 0.0
1.66144 0.0603785 0.0
2.88647 -0.07158 0.0
1.75876 0.0854397 0.0
2.15948 0.0484337 0.0
1.78106 0.129196 0.0
1.54105 0.0571547 0.0
1.63314 -0.0127475 0.0
3.04046 0.00682021 0.0
1.70514 -0.0379894 0.0
1.73968 -0.0344021 0.0
1.80091 0.0831711 0.0
1.82818 0.0629386 0.0
1.77265 0.0234916 0.0
1.71613 0.0314866 0.0
1.49235 -0.0364736 0.0
1.67623 -0.0174476 0.0
2.08801 0.00229187 0.0
3.34586 -0.0042635 0.0
1.83282 -0.0029618 0.0
2.17647 0.0473703 0.0
2.91418 0.112485 0.0
2.81631 -0.0820215 0.0
1.66708 -0.0367033 0.0
1.80766 0.0991901 0.0
1.70551 0.0200984 0.0
3.12588 0.0528739 0.0
1.59381 0.063911 0.0
1.77253 0.0488188 0.0
1.65305 -0.0308902 0.0
3.15169 0.147294 0.0
2.01971 -0.0440121 0.0
1.48496 0.0167145 0.0
1.6788 0.0183361 0.0
1.41973 0.0334551 0.0
1.84473 0.0491583 0.0
1.83107 -0.00981642 0.0
2.70743 -0.0327919 0.0
1.28309 -0.010794 0.0
3.07798 0.16541 0.0
3.19819 0.0821635 0.0
8.84551 -0.0643678 0.0
8.71709 -0.0648009 0.0
9.01103 -0.0472846 0.0
8.03972 0.00612424 0.0
9.17466 -0.142924 0.0
9.31958 -0.0514246 0.0
8.0621 -0.00441803 0.0
9.21675 -0.147701 0.0
9.36396 -0.116683 0.0
9.25889 -0.158384 0.0
9.38021 -0.0610248 0.0
8.38805 -0.00976206 0.0
8.91519 -0.0540187 0.0
9.3043 -0.134641 0.0
8.71239 -0.0539883 0.0
9.12933 -0.100955 0.0