# vtk DataFile Version 3.0
Malha 2D com triângulos e temperatura
ASCII
DATASET UNSTRUCTURED_GRID

POINTS 1194 double
0 0 0
5 0 0
5 1 0
0 1 0
0.85 0.5 0
0.842388 0.538268 0
0.820711 0.570711 0
0.788268 0.592388 0
0.75 0.6 0
0.711732 0.592388 0
0.679289 0.570711 0
0.657612 0.538268 0
0.65 0.5 0
0.657612 0.461732 0
0.679289 0.429289 0
0.711732 0.407612 0
0.75 0.4 0
0.788268 0.407612 0
0.820711 0.429289 0
0.842388 0.461732 0
0.0793651 0 0
0.15873 0 0
0.238095 0 0
0.31746 0 0
0.396825 0 0
0.47619 0 0
0.555556 0 0
0.634921 0 0
0.714286 0 0
0.793651 0 0
0.873016 0 0
0.952381 0 0
1.03175 0 0
1.11111 0 0
1.19048 0 0
1.26984 0 0
1.34921 0 0
1.42857 0 0
1.50794 0 0
1.5873 0 0
1.66667 0 0
1.74603 0 0
1.8254 0 0
1.90476 0 0
1.98413 0 0
2.06349 0 0
2.14286 0 0
2.22222 0 0
2.30159 0 0
2.38095 0 0
2.46032 0 0
2.53968 0 0
2.61905 0 0
2.69841 0 0
2.77778 0 0
2.85714 0 0
2.93651 0 0
3.01587 0 0
3.09524 0 0
3.1746 0 0
3.25397 0 0
3.33333 0 0
3.4127 0 0
3.49206 0 0
3.57143 0 0
3.65079 0 0
3.73016 0 0
3.80952 0 0
3.88889 0 0
3.96825 0 0
4.04762 0 0
4.12698 0 0
4.20635 0 0
4.28571 0 0
4.36508 0 0
4.44444 0 0
4.52381 0 0
4.60317 0 0
4.68254 0 0
4.7619 0 0
4.84127 0 0
4.92063 0 0
5 0.0769231 0
5 0.153846 0
5 0.230769 0
5 0.307692 0
5 0.384615 0
5 0.461538 0
5 0.538462 0
5 0.615385 0
5 0.692308 0
5 0.769231 0
5 0.846154 0
5 0.923077 0
4.92063 1 0
4.84127 1 0
4.7619 1 0
4.68254 1 0
4.60317 1 0
4.52381 1 0
4.44444 1 0
4.36508 1 0
4.28571 1 0
4.20635 1 0
4.12698 1 0
4.04762 1 0
3.96825 1 0
3.88889 1 0
3.80952 1 0
3.73016 1 0
3.65079 1 0
3.57143 1 0
3.49206 1 0
3.4127 1 0
3.33333 1 0
3.25397 1 0
3.1746 1 0
3.09524 1 0
3.01587 1 0
2.93651 1 0
2.85714 1 0
2.77778 1 0
2.69841 1 0
2.61905 1 0
2.53968 1 0
2.46032 1 0
2.38095 1 0
2.30159 1 0
2.22222 1 0
2.14286 1 0
2.06349 1 0
1.98413 1 0
1.90476 1 0
1.8254 1 0
1.74603 1 0
1.66667 1 0
1.5873 1 0
1.50794 1 0
1.42857 1 0
1.34921 1 0
1.26984 1 0
1.19048 1 0
1.11111 1 0
1.03175 1 0
0.952381 1 0
0.873016 1 0
0.793651 1 0
0.714286 1 0
0.634921 1 0
0.555556 1 0
0.47619 1 0
0.396825 1 0
0.31746 1 0
0.238095 1 0
0.15873 1 0
0.0793651 1 0
0 0.923077 0
0 0.846154 0
0 0.769231 0
0 0.692308 0
0 0.615385 0
0 0.538462 0
0 0.461538 0
0 0.384615 0
0 0.307692 0
0 0.230769 0
0 0.153846 0
0 0.0769231 0
0.879698 0.466718 0
1.3085 0.931947 0
1.30532 0.0638546 0
4.93832 0.504275 0
0.620452 0.46964 0
3.99858 0.0669607 0
1.63721 0.934258 0
3.3751 0.0523709 0
4.3254 0.0687322 0
2.42354 0.0642082 0
2.97619 0.0687322 0
2.02101 0.0693621 0
3.68108 0.0581336 0
2.65899 0.932655 0
4.178 0.939994 0
3.21614 0.938179 0
2.25483 0.919987 0
3.53215 0.928998 0
3.84921 0.931268 0
1.69647 0.0674297 0
1.94349 0.930209 0
4.48413 0.931268 0
2.97813 0.942022 0
2.74097 0.0673855 0
0.859645 0.573263 0
0.639718 0.573116 0
0.0651563 0.652836 0
0.0635304 0.346121 0
4.56232 0.0679683 0
0.830393 0.392645 0
0.669618 0.39275 0
1.06185 0.0668897 0
0.440193 0.0680031 0
1.06474 0.93511 0
0.446074 0.935974 0
0.724697 0.630698 0
4.72268 0.931235 0
4.93065 0.267192 0
0.589836 0.936152 0
0.92338 0.0562425 0
0.590207 0.0623339 0
0.755872 0.0732784 0
0.838039 0.936714 0
4.92573 0.732039 0
0.281717 0.93783 0
0.28208 0.0811877 0
0.065248 0.503161 0
1.46076 0.0637037 0
4.72574 0.0661877 0
4.31028 0.937908 0
3.21429 0.0687322 0
1.46639 0.932632 0
3.6897 0.928155 0
2.42063 0.931268 0
3.5364 0.0691789 0
2.25998 0.0676208 0
1.78735 0.937047 0
4.01535 0.920637 0
1.85469 0.0674188 0
3.83991 0.0626292 0
3.37477 0.929368 0
2.58225 0.0657863 0
2.81746 0.932342 0
4.16667 0.0687322 0
2.11402 0.935574 0
0.0614266 0.197046 0
0.0612841 0.803003 0
4.88273 0.0644126 0
4.87774 0.933272 0
0.859645 0.426737 0
0.903081 0.436592 0
0.923672 0.473385 0
0.948706 0.439078 0
0.969155 0.479795 0
0.996593 0.439791 0
1.0202 0.484937 0
1.04667 0.440138 0
1.07382 0.489694 0
1.1034 0.440801 0
1.13169 0.49612 0
1.16603 0.445058 0
1.1931 0.504331 0
1.22956 0.450883 0
1.25923 0.506004 0
1.29683 0.453139 0
1.32923 0.510343 0
1.36603 0.454344 0
1.03276 0.530395 0
1.40063 0.516169 0
1.43576 0.454934 0
1.47042 0.520776 0
1.51069 0.46142 0
1.54422 0.526371 0
1.58547 0.465572 0
1.61942 0.531773 0
1.66033 0.468788 0
1.69546 0.536793 0
1.73713 0.472812 0
1.77239 0.541977 0
1.81532 0.478494 0
1.85006 0.547285 0
1.89327 0.483449 0
1.92802 0.55361 0
1.97142 0.488546 0
2.00623 0.558966 0
2.04984 0.493518 0
2.08483 0.564085 0
2.12847 0.498462 0
2.16353 0.569137 0
2.20719 0.503331 0
0.961579 0.391697 0
1.22451 0.565337 0
2.24238 0.574192 0
2.28611 0.508258 0
2.32134 0.579247 0
2.36519 0.513325 0
2.40036 0.584295 0
2.44425 0.51834 0
2.47944 0.589336 0
2.52334 0.523355 0
2.55853 0.594372 0
2.60245 0.52837 0
2.63764 0.599431 0
2.68159 0.533388 0
2.64637 0.462336 0
2.72553 0.467349 0
2.76076 0.538418 0
2.8047 0.47237 0
2.83993 0.543451 0
2.88387 0.477399 0
2.91911 0.548482 0
2.96305 0.482427 0
2.9983 0.553514 0
3.04224 0.487456 0
3.07749 0.558545 0
3.12143 0.492477 0
3.15668 0.563574 0
3.20063 0.497514 0
3.23588 0.568605 0
3.27983 0.502542 0
3.31508 0.573635 0
3.35903 0.507562 0
3.39428 0.578663 0
3.43823 0.5126 0
3.47348 0.583694 0
3.51744 0.517628 0
3.55268 0.588724 0
3.59664 0.522646 0
3.63189 0.593752 0
3.67585 0.527673 0
3.71109 0.598781 0
3.75505 0.532702 0
3.7903 0.60381 0
3.83426 0.537731 0
3.79901 0.466623 0
3.87821 0.471754 0
3.91346 0.542777 0
3.95742 0.476701 0
3.99267 0.547795 0
4.03662 0.481715 0
4.07187 0.552815 0
4.11582 0.486743 0
4.15106 0.55783 0
4.195 0.491782 0
4.23023 0.562843 0
4.27415 0.49682 0
4.30937 0.567866 0
4.35325 0.501915 0
4.38842 0.572845 0
4.43227 0.506997 0
4.46737 0.577575 0
4.51106 0.511995 0
4.54622 0.582183 0
1.13571 0.390292 0
4.47606 0.441361 0
4.55475 0.446396 0
2.32985 0.442214 0
3.5614 0.451571 0
3.08619 0.421408 0
2.09339 0.427815 0
1.42887 0.583001 0
2.84864 0.406329 0
3.32378 0.43649 0
4.23911 0.425894 0
1.54723 0.39251 0
1.77883 0.406811 0
1.33959 0.387065 0
3.92239 0.405803 0
4.08079 0.415776 0
2.48812 0.452349 0
1.57935 0.603183 0
1.93602 0.417543 0
1.72453 0.617973 0
3.11273 0.629643 0
2.69029 0.396284 0
3.94662 0.623383 0
1.88466 0.613248 0
2.79598 0.609502 0
4.10826 0.620575 0
2.04005 0.62838 0
2.95434 0.619575 0
4.51981 0.375801 0
4.59833 0.380943 0
4.63314 0.451296 0
4.26693 0.63114 0
2.19619 0.645921 0
4.4246 0.642296 0
3.27112 0.639707 0
2.35729 0.649822 0
2.51462 0.660373 0
3.42952 0.649769 0
4.67669 0.38601 0
3.58793 0.659829 0
3.74634 0.669888 0
4.64195 0.315733 0
4.44109 0.370647 0
4.48493 0.305066 0
4.40614 0.29989 0
4.71136 0.456133 0
4.72014 0.320758 0
0.8692 0.382093 0
0.841252 0.348256 0
0.886481 0.338703 0
0.853127 0.301457 0
0.902583 0.287335 0
0.801683 0.321689 0
0.818113 0.263019 0
0.764765 0.277091 0
4.44702 0.235678 0
0.946267 0.520761 0
0.78107 0.221265 0
0.726309 0.234724 0
0.848273 0.20551 0
4.68545 0.250576 0
4.37074 0.227561 0
4.76365 0.255792 0
4.79822 0.326145 0
0.713664 0.287231 0
0.672358 0.247957 0
0.68673 0.192342 0
0.630368 0.2085 0
0.616569 0.265341 0
0.574186 0.225456 0
0.557393 0.28131 0
0.52004 0.242373 0
0.504416 0.299685 0
0.462273 0.252096 0
0.44798 0.316739 0
0.404567 0.276951 0
0.390546 0.335414 0
0.434669 0.37657 0
0.377935 0.394545 0
0.421979 0.43426 0
0.365682 0.452846 0
0.409646 0.492216 0
0.353389 0.51089 0
0.397738 0.551598 0
0.339864 0.570301 0
0.385899 0.612153 0
0.325913 0.631557 0
0.344507 0.29318 0
0.320568 0.413067 0
0.373553 0.673852 0
0.434438 0.653082 0
0.311416 0.69481 0
0.449777 0.528305 0
0.293513 0.534612 0
0.421431 0.715204 0
0.480917 0.696603 0
0.54504 0.34471 0
0.262743 0.649913 0
0.246209 0.712341 0
0.468564 0.755948 0
0.526091 0.735423 0
0.538207 0.68039 0
0.581228 0.716342 0
0.408756 0.777952 0
0.36234 0.239019 0
0.297047 0.251925 0
0.572109 0.771575 0
0.624906 0.752173 0
0.474824 0.414151 0
0.534351 0.182707 0
0.633682 0.70159 0
0.674547 0.736174 0
0.66826 0.788959 0
0.721117 0.76834 0
0.714515 0.825486 0
0.769074 0.802008 0
0.775287 0.746591 0
0.821903 0.778625 0
0.826767 0.726064 0
0.873257 0.756032 0
0.872997 0.697261 0
0.92331 0.732304 0
0.930014 0.67838 0
0.976061 0.710612 0
0.92456 0.784469 0
0.982178 0.654421 0
1.03016 0.688004 0
1.02037 0.747059 0
1.08 0.723819 0
1.08651 0.661896 0
1.1397 0.698204 0
1.13262 0.763657 0
1.19424 0.736545 0
1.18556 0.80161 0
1.24839 0.771772 0
1.25723 0.706382 0
1.31432 0.745787 0
4.66801 0.521361 0
4.74602 0.526202 0
4.70285 0.591278 0
4.78076 0.596023 0
4.73763 0.661207 0
4.78904 0.460969 0
2.61113 0.391267 0
2.65506 0.325217 0
2.57588 0.320198 0
2.61982 0.254148 0
2.69899 0.259163 0
2.54065 0.249131 0
2.49672 0.315179 0
2.46148 0.244124 0
2.41757 0.310166 0
2.38233 0.239117 0
2.33843 0.30514 0
2.30297 0.237979 0
2.25928 0.300748 0
2.22079 0.221377 0
2.17969 0.293884 0
2.14114 0.224266 0
2.10047 0.289841 0
2.0653 0.219144 0
2.02202 0.284919 0
1.98701 0.214164 0
1.94336 0.279863 0
3.82315 0.673327 0
3.78135 0.738156 0
3.86451 0.735958 0
3.70234 0.735494 0
4.52513 0.244409 0
4.32717 0.294467 0
4.29217 0.221862 0
0.619934 0.539507 0
0.599432 0.577132 0
0.575955 0.542712 0
0.554504 0.58245 0
4.65962 0.656481 0
4.69438 0.726169 0
4.6161 0.721747 0
4.77259 0.731352 0
4.65076 0.791486 0
4.57153 0.788793 0
4.2482 0.289182 0
4.21307 0.218308 0
4.1691 0.284563 0
4.13394 0.21352 0
0.835918 0.606341 0
0.806475 0.6384 0
4.08995 0.279537 0
0.640355 0.426737 0
0.596214 0.435837 0
0.630358 0.379178 0
0.689967 0.627735 0
1.90832 0.209948 0
1.86468 0.27519 0
1.82968 0.20518 0
1.78607 0.269797 0
0.281841 0.313314 0
0.232117 0.268621 0
0.216861 0.334396 0
4.05473 0.209347 0
4.01077 0.2745 0
3.97554 0.204394 0
3.93159 0.269388 0
0.297409 0.759367 0
0.231645 0.782943 0
0.180008 0.73598 0
1.32151 0.676369 0
1.38055 0.718092 0
1.36901 0.793947 0
1.43945 0.766002 0
0.249902 0.198865 0
0.932364 0.624392 0
1.75117 0.201034 0
1.70771 0.264658 0
1.673 0.195402 0
1.62985 0.260294 0
1.59532 0.191927 0
1.55236 0.254233 0
3.89629 0.200227 0
3.85238 0.264494 0
3.81708 0.195303 0
3.77304 0.259453 0
2.66368 0.189084 0
2.74279 0.19534 0
2.77814 0.264556 0
2.82201 0.199823 0
2.85733 0.269552 0
2.90126 0.203886 0
2.93654 0.274416 0
2.98045 0.20868 0
3.01573 0.279376 0
3.0597 0.213193 0
[...]
CELL_DATA 2220
VECTORS velocity double
25.8833 -1.44064 0.0
18.7435 0.692016 0.0
26.5125 0.821151 0.0
20.4057 2.33686 0.0
26.5212 -1.64846 0.0
31.8114 -1.16207 0.0
16.0166 0.664589 0.0
17.7372 -0.00163838 0.0
33.6097 2.9118 0.0
30.9783 -0.83812 0.0
20.7327 0.557893 0.0
16.8898 0.404714 0.0
13.6096 0.302019 0.0
29.0556 -2.45007 0.0
22.825 -0.193065 0.0
29.3349 3.21327 0.0
18.2772 0.826105 0.0
14.9407 0.75706 0.0
16.6441 -0.189296 0.0
17.8257 -0.161799 0.0
22.3676 0.564114 0.0
26.769 3.75367 0.0
17.1503 0.82654 0.0
17.4368 0.782852 0.0
35.1979 -0.603168 0.0
26.9043 -2.25718 0.0
20.5858 1.08186 0.0
15.1465 0.765797 0.0
20.1229 2.20845 0.0
22.1061 1.64459 0.0
32.3913 -1.36874 0.0
27.0614 3.03231 0.0
12.5774 -0.170601 0.0
28.4548 1.15709 0.0
31.4331 -3.75676 0.0
32.1981 -1.25192 0.0
30.8097 -4.12159 0.0
14.5713 -0.177261 0.0
23.3269 2.5357 0.0
24.8364 1.95843 0.0
12.6835 0.603657 0.0
33.5929 3.12204 0.0
17.3206 2.01366 0.0
16.2684 0.0391493 0.0
14.8431 0.0271008 0.0
13.3737 0.0442925 0.0
16.8913 0.802444 0.0
13.537 0.00756398 0.0
30.6928 -0.738199 0.0
33.8901 0.250089 0.0
18.2795 0.702814 0.0
13.4187 0.162525 0.0
16.5904 0.824173 0.0
16.7389 0.184262 0.0
15.4473 0.724173 0.0
25.269 1.7539 0.0
28.8573 3.1777 0.0
14.2621 0.726387 0.0
14.6903 0.73277 0.0
34.5386 0.128402 0.0
0.14383 -5.68892 0.0
35.561 -0.991923 0.0
33.3133 -1.96819 0.0
16.9476 0.845393 0.0
16.905 0.816831 0.0
31.2774 1.09157 0.0
16.2649 -1.83462 0.0
31.2892 3.35975 0.0
14.5492 0.790713 0.0
14.6608 0.795975 0.0
16.6152 0.260285 0.0
29.3847 -1.56287 0.0
13.1752 0.247325 0.0
33.1314 0.710216 0.0
11.1403 0.42346 0.0
32.7506 2.78545 0.0
34.7262 2.15855 0.0
20.7827 -1.7256 0.0
33.8509 3.58033 0.0
15.896 0.164302 0.0
21.5834 -0.924539 0.0
25.6318 -1.65646 0.0
12.1349 -0.287614 0.0
13.2516 0.154839 0.0
16.3949 0.611394 0.0
16.343 0.330016 0.0
24.0659 -1.61555 0.0
13.8266 0.292198 0.0
14.045 0.499426 0.0
33.4247 2.45451 0.0
5.87877 0.515527 0.0
20.8568 1.93889 0.0
16.7384 -0.237543 0.0
30.0927 3.1101 0.0
33.2041 2.93981 0.0
24.5656 -1.78001 0.0
26.0811 -3.94585 0.0
12.4884 -1.11885 0.0
1.19864 -4.42111 0.0
27.8949 -0.563631 0.0
6.46644 -0.830514 0.0
25.1043 -2.15008 0.0
16.6815 0.743293 0.0
14.8163 1.06964 0.0
29.9021 3.9936 0.0
32.1496 3.24135 0.0
32.2093 -1.0134 0.0
35.5471 -1.00171 0.0
5.20223 -0.09888 0.0
17.3648 1.15579 0.0
24.6331 1.63134 0.0
31.553 -2.05794 0.0
31.8467 -0.848654 0.0
9.35301 -0.934946 0.0
35.6466 -1.58902 0.0
14.3555 0.658771 0.0
27.8374 -2.43803 0.0
15.0133 -0.535954 0.0
6.50547 -0.0737477 0.0
33.2173 1.859 0.0
20.0021 -1.68004 0.0
28.335 -1.24147 0.0
16.3515 1.36476 0.0
21.4466 3.18576 0.0
32.8868 -3.73501 0.0
24.645 -2.75898 0.0
30.465 2.9983 0.0
19.1615 1.42126 0.0
31.8894 -2.85933 0.0
14.488 1.64837 0.0
14.4234 1.33176 0.0
16.7571 -2.01942 0.0
10.0944 -1.33944 0.0
18.3493 6.80699 0.0
22.9577 2.43515 0.0
15.0748 7.1629 0.0
12.3427 -0.00177462 0.0
19.9908 -0.307706 0.0
26.1201 -2.85112 0.0
27.636 3.17579 0.0
22.8092 -0.879214 0.0
15.9929 -0.0403712 0.0
35.5378 -1.91675 0.0
33.9221 -4.14914 0.0
32.3458 0.701596 0.0
27.0508 2.75892 0.0
8.56319 1.07547 0.0
12.7192 -0.609402 0.0
34.9546 1.68543 0.0
35.2636 -1.36916 0.0
14.5008 -0.21898 0.0
32.4926 1.83889 0.0
28.5837 -0.0145312 0.0
19.7688 2.88049 0.0
8.83474 5.81056 0.0
18.1064 0.346225 0.0
18.5383 -2.13727 0.0
18.7173 0.55128 0.0
9.383 -0.992129 0.0
18.6413 -1.34566 0.0
18.0295 -3.05642 0.0
14.5153 0.0659136 0.0
8.11635 -1.06751 0.0
27.0699 -2.94867 0.0
13.0847 0.149861 0.0
26.9608 1.94998 0.0
28.0605 -1.98596 0.0
31.0201 -1.1836 0.0
17.9877 0.256039 0.0
10.496 -1.98827 0.0
9.49319 1.40786 0.0
12.9967 0.0852868 0.0
16.504 0.130654 0.0
13.8119 -1.61049 0.0
22.3816 -1.37241 0.0
34.1787 3.59461 0.0
33.873 1.99654 0.0
33.4361 3.33677 0.0
10.1748 -0.687059 0.0
17.9052 0.108531 0.0
27.8321 -0.469239 0.0
18.9705 -0.937128 0.0
6.22744 1.18645 0.0
16.0277 2.07438 0.0
18.1175 0.0102319 0.0
34.5319 -0.925506 0.0
28.8151 0.119853 0.0
14.6791 -0.231478 0.0
27.2297 -3.81705 0.0
30.8415 -0.417434 0.0
11.1306 -1.20469 0.0
14.3081 -0.275023 0.0
32.8661 -2.54118 0.0
34.8004 1.44744 0.0
18.8308 -1.97757 0.0
28.7655 0.847505 0.0
23.5443 0.83385 0.0
16.4461 -0.371414 0.0
5.55486 -0.530471 0.0
17.0022 -0.36974 0.0
17.4687 -3.90333 0.0
22.0237 -0.628956 0.0
29.0694 2.70777 0.0
17.0204 -0.00750154 0.0
12.8553 -0.479402 0.0
24.0181 -2.04462 0.0
23.1318 -0.00613553 0.0
15.7302 0.0908907 0.0
23.7746 1.05406 0.0
9.75642 -0.754338 0.0
16.6547 0.7698 0.0
11.1699 -0.464743 0.0
22.8085 -0.250038 0.0
32.9942 3.45629 0.0
34.9747 2.71984 0.0
18.1534 1.66195 0.0
14.2511 0.708472 0.0
16.8542 0.903854 0.0
10.436 0.348893 0.0
11.5171 -0.186724 0.0
31.8101 0.438434 0.0
8.28552 -0.18178 0.0
14.3494 0.831067 0.0
7.94425 -0.0474809 0.0
16.871 -0.00542361 0.0
20.0134 -0.795277 0.0
17.2921 -1.40339 0.0
19.3458 -0.898474 0.0
27.4834 -0.069134 0.0
9.98748 1.06728 0.0
20.9502 1.02785 0.0
22.8206 -1.16827 0.0
11.8049 -0.0392643 0.0
17.3263 -0.0962473 0.0
10.2025 -0.97645 0.0
32.5765 0.0032618 0.0
20.9534 -1.78182 0.0
16.6166 -0.279549 0.0
16.5098 -0.314385 0.0
14.8765 -0.0515712 0.0
34.0402 -3.90466 0.0
27.7893 -3.47902 0.0
32.4586 4.23871 0.0
8.87422 -0.0019015 0.0
16.71 5.88671 0.0
32.2882 -0.0845563 0.0
18.1356 -0.135259 0.0
26.0473 -1.20241 0.0
6.88533 7.15831 0.0
17.8584 2.04503 0.0
15.1787 -6.09162 0.0
8.86222 -0.0844988 0.0
28.0351 -2.46238 0.0
30.6074 -0.194852 0.0
34.0653 -3.01501 0.0
16.3808 0.441684 0.0
9.55649 0.172631 0.0
31.6394 0.125593 0.0
19.1029 1.92255 0.0
32.7464 1.41909 0.0
18.5468 -0.394779 0.0
29.0965 -0.861117 0.0
9.79671 1.07648 0.0
21.8644 -1.46558 0.0
8.76321 -0.454891 0.0
6.95176 -0.0867932 0.0
15.6522 -0.639076 0.0
25.6463 -1.44439 0.0
20.8166 1.34854 0.0
32.6509 -0.152664 0.0
29.9891 0.921031 0.0
30.5931 0.00732837 0.0
13.9239 0.367134 0.0
31.6902 -1.52067 0.0
17.6211 -2.09968 0.0
32.9616 4.25738 0.0
11.6146 1.90105 0.0
29.4123 -0.864759 0.0
17.0999 1.58617 0.0
11.5638 0.126094 0.0
20.3132 -2.13254 0.0
21.8193 -2.19071 0.0
33.7467 4.0458 0.0
22.5374 0.860329 0.0
31.2436 -1.40906 0.0
20.8793 -0.430358 0.0
29.2664 -3.44692 0.0
21.8346 0.802427 0.0
14.4038 -0.235756 0.0
13.9559 -0.265482 0.0
9.50689 -0.325957 0.0
16.4388 -0.931171 0.0
10.2104 0.92288 0.0
19.6464 -4.52514 0.0
19.1417 -1.22537 0.0
21.1943 -0.270898 0.0
21.4473 -0.238501 0.0
17.898 0.501796 0.0
33.5334 4.17913 0.0
35.1972 2.78788 0.0
12.9953 -0.677833 0.0
34.5392 3.62673 0.0
29.2217 -1.81182 0.0
6.56136 0.0840353 0.0
29.3098 -3.05608 0.0
17.6987 0.761819 0.0
13.6313 -0.0580383 0.0
14.1281 -0.285089 0.0
13.7793 0.396669 0.0
9.3104 0.833453 0.0
11.9403 0.029605 0.0
12.6281 2.69373 0.0
12.2406 1.10853 0.0
33.7843 4.24771 0.0
27.4405 -2.17247 0.0
16.2525 -0.287967 0.0
33.9472 3.04332 0.0
10.5974 0.989892 0.0
33.2668 -2.26435 0.0
34.9676 3.12135 0.0
12.3963 -2.02723 0.0
15.914 1.01112 0.0
31.0924 0.17436 0.0
10.7665 -0.900884 0.0
12.8172 4.86772 0.0
11.1662 -0.156796 0.0
30.6568 0.0986701 0.0
30.9989 0.980037 0.0
32.4918 0.417669 0.0
10.7646 -0.477223 0.0
31.0116 -3.30821 0.0
34.1351 -4.51075 0.0
30.6646 -1.49486 0.0
9.69539 -0.986224 0.0
33.1437 -0.0613662 0.0
33.7939 -3.38731 0.0
21.0075 -2.40186 0.0
34.0454 3.62755 0.0
28.5208 -1.95803 0.0
16.4147 -0.3149 0.0
7.48579 -0.147485 0.0
14.6467 -0.32463 0.0
6.16725 0.472705 0.0
6.29552 0.0294974 0.0
12.6552 -1.64161 0.0
33.9367 3.46549 0.0
10.6274 3.16274 0.0
33.8885 3.47677 0.0
34.5273 2.49226 0.0
5.94253 -0.303187 0.0
33.4158 1.41409 0.0
5.03953 0.181202 0.0
6.11709 -0.412688 0.0
26.9805 2.97146 0.0
8.59077 0.704034 0.0
32.8513 -1.61623 0.0
32.8786 1.72807 0.0
4.98416 -0.280415 0.0
30.5106 0.689418 0.0
25.8313 -3.06754 0.0
33.3229 2.60148 0.0
12.5288 0.654591 0.0
25.6602 1.90798 0.0
33.604 3.07442 0.0
5.44083 0.570244 0.0
34.8935 0.445417 0.0
29.2079 -4.25216 0.0
5.55761 -0.402468 0.0
5.69991 -0.531944 0.0
29.4064 -1.70301 0.0
5.72436 0.443373 0.0
27.3557 3.68313 0.0
32.0855 -1.74593 0.0
18.5057 -0.650249 0.0
7.64214 -0.0826626 0.0
11.2698 0.508878 0.0
22.6863 0.544047 0.0
22.8414 0.175221 0.0
32.8014 -0.798568 0.0
21.4594 -0.166541 0.0
11.9226 -0.798643 0.0
33.4475 3.43447 0.0
33.4873 -2.96816 0.0
32.0113 0.239394 0.0
33.0478 3.38994 0.0
30.0311 -0.145193 0.0
33.3691 3.83706 0.0
30.9404 0.133104 0.0
27.2707 -1.97212 0.0
33.0565 2.14298 0.0
9.2908 0.977325 0.0
29.2438 0.0368752 0.0
24.4584 -0.887448 0.0
33.3095 -2.6585 0.0
8.20275 -0.914872 0.0
16.3977 -1.28879 0.0
32.6776 0.657261 0.0
7.88748 0.745978 0.0
30.8854 0.143679 0.0
32.9467 2.49984 0.0
6.44 0.273602 0.0
24.8835 -0.71487 0.0
32.671 2.84604 0.0
31.2976 0.0672572 0.0
29.7784 -4.01625 0.0
33.0779 -4.39362 0.0
7.18602 3.03542 0.0
8.92362 0.759841 0.0
19.8362 -1.51443 0.0
32.6215 -1.62789 0.0
24.4714 -2.48323 0.0
6.04896 0.0437348 0.0
33.2206 3.88304 0.0
34.6143 -2.83566 0.0
33.0275 -2.10996 0.0
31.4081 0.0675226 0.0
3.71015 -0.169254 0.0
5.22713 0.44629 0.0
32.3768 2.84882 0.0
5.77845 0.548145 0.0
34.6935 3.41993 0.0
32.4155 2.59454 0.0
3.77989 0.00198264 0.0
5.76237 -0.475099 0.0
32.3141 2.40339 0.0
29.0937 0.390987 0.0
3.62306 0.173821 0.0
26.442 -0.168631 0.0
30.904 0.181995 0.0
9.32828 -0.682249 0.0
31.2647 0.101287 0.0
30.017 2.37666 0.0
33.3374 -3.11893 0.0
32.5035 1.78968 0.0
6.13431 -0.58783 0.0
27.7166 -4.23663 0.0
6.27709 -0.146583 0.0
6.00003 0.450545 0.0
30.4808 -3.21617 0.0
5.83944 0.616209 0.0
30.4612 2.76231 0.0
32.0007 2.02059 0.0
33.8879 -3.61077 0.0
33.8709 -4.52481 0.0
9.68439 -1.06337 0.0
19.4492 0.0358392 0.0
32.7282 1.88638 0.0
5.14473 -0.337137 0.0
4.72286 0.37749 0.0
14.8236 -1.05336 0.0
9.40388 0.946362 0.0
31.2579 -0.665047 0.0
6.49191 -0.425674 0.0
19.9054 0.901913 0.0
33.083 1.09999 0.0
8.42783 0.660358 0.0
10.8679 0.734937 0.0
32.9974 3.26664 0.0
6.25516 0.384975 0.0
31.6672 1.38203 0.0
29.5236 2.02287 0.0
29.8813 0.356594 0.0
5.69631 -0.57002 0.0
4.42687 0.414053 0.0
7.79179 -0.350953 0.0
23.0681 -0.272224 0.0
12.0716 -1.11466 0.0
31.3119 0.145916 0.0
3.6814 0.097662 0.0
34.25 -4.44456 0.0
9.11422 -0.322614 0.0
4.71241 0.390141 0.0
13.4812 -1.50769 0.0
33.3761 3.54273 0.0
8.97457 -0.595518 0.0
29.7557 0.292676 0.0
31.1589 1.65492 0.0
24.1796 -0.343912 0.0
31.0085 0.218771 0.0
28.922 1.70694 0.0
19.1424 -1.47703 0.0
33.4082 0.582143 0.0
34.3138 -2.2545 0.0
28.3094 1.38901 0.0
6.04493 -0.651855 0.0
6.44724 0.6752 0.0
32.6221 -0.818083 0.0
4.42472 0.329907 0.0
28.7636 -3.38423 0.0
20.6673 4.76467 0.0
31.1487 0.228852 0.0
4.55725 0.357524 0.0
5.27874 -0.376042 0.0
30.5099 1.27172 0.0
33.6164 3.52846 0.0
23.48 -0.185951 0.0
25.0252 -1.40314 0.0
28.0339 0.0818632 0.0
22.4187 -1.24689 0.0
17.5895 -5.78496 0.0
28.1303 -0.142257 0.0
28.3755 2.14876 0.0
4.84298 -0.203196 0.0
27.8118 1.08056 0.0
25.3907 3.86879 0.0
14.8269 -0.431333 0.0
31.4024 0.273143 0.0
4.00021 -0.403602 0.0
4.41865 0.413356 0.0
28.8435 2.50283 0.0
28.8004 -0.167413 0.0
28.2116 -0.843971 0.0
17.0286 -0.163455 0.0
30.4115 0.905322 0.0
31.4166 0.180075 0.0
34.8169 -2.23421 0.0
5.48352 1.09902 0.0
30.1316 0.490738 0.0
34.6233 -2.42008 0.0
27.28 1.54869 0.0
27.8874 2.69482 0.0
10.5503 -1.80739 0.0
31.8 0.0538215 0.0
7.3562 -3.99883 0.0
30.3915 -1.52177 0.0
29.9145 -0.959524 0.0
34.9767 2.63986 0.0
30.6921 1.18469 0.0
5.71576 -0.948127 0.0
27.4666 0.825355 0.0
29.0713 1.51607 0.0
26.7516 1.2703 0.0
32.003 0.118919 0.0
27.8586 1.83424 0.0
29.5701 0.665637 0.0
21.5377 -0.880021 0.0
24.7183 0.98926 0.0
11.2785 -2.73129 0.0
32.8697 -2.56583 0.0
13.7442 -0.155057 0.0
25.6098 -3.17829 0.0
9.81888 -5.16414 0.0
32.8329 -2.52261 0.0
31.6122 0.153618 0.0
2.75935 -0.274333 0.0
2.83104 0.280329 0.0
29.2519 0.495301 0.0
32.3978 2.99178 0.0
27.2521 0.646128 0.0
23.7183 3.68449 0.0
5.43266 -0.139464 0.0
8.6204 -0.222569 0.0
6.99216 0.499397 0.0
3.86882 1.59987 0.0
7.93366 -2.75327 0.0
34.7788 -2.86297 0.0
32.0898 0.0953376 0.0
33.2083 -3.73223 0.0
1.41769 0.878108 0.0
24.7491 -0.0768587 0.0
26.1019 -0.0839922 0.0
27.0209 -2.30485 0.0
23.6481 4.44485 0.0
1.60684 -0.848629 0.0
4.20684 -1.44549 0.0
22.9814 0.509211 0.0
17.6355 1.07468 0.0
26.4081 1.00161 0.0
20.0622 -1.91205 0.0
28.9197 -0.0744053 0.0
32.2262 2.20058 0.0
29.7146 -0.0716591 0.0
26.1508 3.34302 0.0
31.3499 0.132427 0.0
3.58642 -0.28372 0.0
34.8039 3.47351 0.0
31.8335 0.342535 0.0
29.724 0.288012 0.0
31.7862 0.0735511 0.0
29.2131 -1.44637 0.0
3.45546 0.205905 0.0
31.645 0.00748368 0.0
6.59235 -0.584635 0.0
15.0683 1.1815 0.0
22.1436 -0.144326 0.0
27.122 0.546814 0.0
26.1602 0.778609 0.0
31.3208 0.772962 0.0
31.5221 0.685549 0.0
31.1877 0.926991 0.0
4.29517 0.272791 0.0
7.95077 0.480357 0.0
7.08313 -0.355505 0.0
31.6635 0.23996 0.0
29.0409 0.351525 0.0
34.2345 -4.49631 0.0
6.43308 0.713125 0.0
30.6895 0.0276717 0.0
29.603 1.88408 0.0
13.5774 5.37078 0.0
29.3563 -0.0427803 0.0
3.197 0.430437 0.0
28.451 -0.0897364 0.0
29.6125 -0.557678 0.0
28.9382 -0.496178 0.0
22.5003 -0.312151 0.0
20.9799 -0.30363 0.0
28.0969 -0.140024 0.0
7.04981 0.227174 0.0
32.8181 3.73626 0.0
31.4703 0.0404886 0.0
30.0583 -0.195938 0.0
29.7877 0.314595 0.0
27.115 0.498542 0.0
16.1696 0.0040413 0.0
29.0691 0.359765 0.0
35.2933 -1.65079 0.0
31.3382 0.0736454 0.0
8.38652 0.317886 0.0
28.2219 2.65832 0.0
3.41293 -0.383962 0.0
31.7893 0.449668 0.0
31.6815 0.377215 0.0
27.19 0.490174 0.0
2.5303 0.652462 0.0
33.3408 -0.909509 0.0
31.6127 0.105993 0.0
31.2325 0.785019 0.0
28.9852 -0.0873875 0.0
31.2844 -0.192845 0.0
29.9405 0.340164 0.0
31.524 0.254958 0.0
31.8518 0.269974 0.0
31.533 0.183921 0.0
27.384 0.51049 0.0
3.98385 0.226899 0.0
12.9177 0.689069 0.0
31.3712 -0.293281 0.0
31.9456 3.22588 0.0
2.72883 -0.603078 0.0
7.46534 -0.229032 0.0
32.3596 -2.82082 0.0
29.3559 1.80319 0.0
29.2078 0.389626 0.0
13.6665 -0.418608 0.0
29.7664 -0.180041 0.0
30.3006 -0.134638 0.0
22.9767 5.03683 0.0
7.32378 0.394443 0.0
3.79821 -0.235113 0.0
34.6682 -2.00354 0.0
25.9202 2.89168 0.0
29.9633 -1.42023 0.0
31.7903 0.41042 0.0
11.8172 0.148176 0.0
29.4169 0.395847 0.0
26.0086 0.654156 0.0
31.2041 -0.0366662 0.0
3.62794 0.295255 0.0
30.1453 0.324838 0.0
31.2798 0.0195205 0.0
4.26874 -0.106525 0.0
27.6732 0.504358 0.0
31.2829 0.195793 0.0
31.717 0.507305 0.0
30.497 0.140597 0.0
30.1486 -0.198942 0.0
31.5515 0.0564562 0.0
27.8632 -0.664109 0.0
30.3894 -0.155942 0.0
30.3694 0.244536 0.0
30.0116 0.0897686 0.0
29.6224 -0.237306 0.0
4.06087 -0.14639 0.0
31.6242 0.211998 0.0
29.5094 -0.281175 0.0
5.30159 0.20671 0.0
31.4602 0.00304781 0.0
8.20414 0.376314 0.0
29.6786 0.324719 0.0
30.0347 -0.250234 0.0
31.7422 0.436454 0.0
30.8955 -0.137603 0.0
30.5369 0.0590163 0.0
31.598 0.369321 0.0
15.9902 0.254306 0.0
28.4006 0.207613 0.0
27.1989 0.959692 0.0
27.9635 0.38823 0.0
3.84758 -0.0301889 0.0
31.139 0.267488 0.0
29.9027 0.194507 0.0
27.2717 -2.73539 0.0
3.29629 -0.309613 0.0
26.0521 0.548029 0.0
3.23746 0.229128 0.0
25.8016 -2.66679 0.0
28.1961 1.05472 0.0
26.2184 0.549081 0.0
28.7011 -0.149126 0.0
29.4186 -0.302774 0.0
26.5359 0.56498 0.0
30.5031 -0.0612877 0.0
29.4321 -3.04028 0.0
26.1439 -3.00849 0.0
29.7892 -0.0314208 0.0
31.6067 0.516718 0.0
31.6879 0.5238 0.0
31.7166 0.413373 0.0
29.9469 -0.282741 0.0
31.8553 0.432689 0.0
27.0541 -0.162155 0.0
31.8506 0.376129 0.0
29.1505 -0.162526 0.0
28.5441 0.0836162 0.0
15.2009 0.464957 0.0
30.7035 0.155129 0.0
31.8751 0.397715 0.0
25.6788 -0.493396 0.0
31.6537 0.436149 0.0
29.8803 -0.285948 0.0
29.3504 -0.286628 0.0
4.18835 0.188899 0.0
30.0492 0.0157094 0.0
25.9872 0.586944 0.0
31.9956 0.372202 0.0
24.1961 -0.0567665 0.0
8.67702 0.304496 0.0
28.6482 -0.00255751 0.0
31.714 0.308762 0.0
27.2554 0.295927 0.0
26.5034 -0.161022 0.0
29.2977 -0.219119 0.0
31.7401 0.141524 0.0
29.8338 -0.24746 0.0
27.6108 0.142174 0.0
20.642 3.85191 0.0
31.365 -0.0562894 0.0
32.0391 0.32625 0.0
31.4529 0.658978 0.0
14.9021 -0.0840635 0.0
30.0565 -0.0448062 0.0
25.6747 -0.192749 0.0
4.72379 0.182333 0.0
8.02615 0.353 0.0
29.7899 -0.165932 0.0
31.4041 0.342539 0.0
28.158 -0.307853 0.0
29.2355 -0.1132 0.0
31.9211 0.232931 0.0
28.4803 -0.20845 0.0
28.7233 -0.0690154 0.0
29.1262 0.00144349 0.0
25.8174 -0.220229 0.0
27.8277 -0.194073 0.0
32.1177 0.247933 0.0
26.109 -0.184774 0.0
31.7891 0.161581 0.0
28.0228 -0.335147 0.0
28.8876 -0.255744 0.0
27.6131 -0.247269 0.0
25.5585 -0.264954 0.0
31.3282 0.340051 0.0
29.7202 -0.0616592 0.0
5.80311 0.209338 0.0
8.83821 0.302979 0.0
31.926 0.0471449 0.0
31.6881 -0.0391238 0.0
26.7951 0.530539 0.0
27.6082 0.0284314 0.0
27.8889 -0.0466755 0.0
31.767 0.467908 0.0
28.9307 0.0946058 0.0
31.2999 0.65569 0.0
30.5298 -0.00370371 0.0
25.3303 -0.313717 0.0
27.1289 -0.354046 0.0
27.7567 0.0313129 0.0
29.5937 0.0365337 0.0
32.1539 0.178634 0.0
31.1311 -0.095455 0.0
27.4361 -0.297157 0.0
31.4596 1.38128 0.0
24.4839 -0.247741 0.0
27.2742 -0.338873 0.0
25.1311 -0.364751 0.0
30.3227 1.00667 0.0
28.6518 0.134559 0.0
29.3929 0.0979512 0.0
27.9245 -0.318582 0.0
24.7895 -0.21201 0.0
26.818 -0.0252749 0.0
31.7741 0.334718 0.0
24.9315 -0.391567 0.0
27.0282 -0.297368 0.0
28.361 0.101552 0.0
17.0506 0.232844 0.0
30.912 0.26814 0.0
24.7306 -0.32079 0.0
14.9848 0.166009 0.0
24.2204 -0.291958 0.0
29.1483 0.097549 0.0
24.6403 -0.159935 0.0
26.9324 -0.174029 0.0
25.1503 -0.195243 0.0
4.1646 -0.0718129 0.0
7.59573 -0.128713 0.0
16.9332 0.330017 0.0
28.2816 -0.270135 0.0
27.7567 -0.107481 0.0
28.1355 0.018604 0.0
28.9252 0.0364671 0.0
24.4781 0.00954834 0.0
8.65222 0.152441 0.0
31.9466 0.227567 0.0
7.78761 -0.142236 0.0
32.1587 0.0524385 0.0
28.0355 -0.0712684 0.0
23.9793 -0.344113 0.0
27.3335 0.139232 0.0
23.6966 -0.398839 0.0
32.1476 -0.0530204 0.0
26.9343 0.194982 0.0
4.30334 -0.0746266 0.0
7.68705 -0.141406 0.0
27.8462 -0.235321 0.0
4.68398 0.0933597 0.0
28.7819 -0.0571597 0.0
23.4879 -0.381665 0.0
23.3363 -0.235316 0.0
26.5911 0.107032 0.0
28.596 -0.135415 0.0
31.9784 -0.0248601 0.0
26.5403 0.16682 0.0
26.2344 0.0750802 0.0
7.73625 -0.123851 0.0
4.46737 -0.0751324 0.0
14.3171 0.274524 0.0
23.1828 -0.0474028 0.0
26.1733 0.202453 0.0
28.3041 -0.262313 0.0
25.6872 0.228227 0.0
29.4226 -0.0469447 0.0
14.5804 0.302531 0.0
25.2702 0.15152 0.0
28.7881 -0.134674 0.0
26.0752 -0.00649958 0.0
7.8503 0.154444 0.0
4.0586 -0.0472422 0.0
3.42156 -0.075926 0.0
4.34781 -0.068182 0.0
7.74546 -0.0395161 0.0
8.24536 0.169363 0.0
3.73482 -0.0186314 0.0
4.22863 0.00127909 0.0
7.56427 -0.12368 0.0
4.08927 -0.0464285 0.0
4.41051 -0.0371831 0.0
4.69652 0.133157 0.0
8.30105 -0.127802 0.0
4.53926 0.0853984 0.0
7.44582 -0.0815848 0.0
4.36762 0.0832746 0.0
7.94457 -0.0585664 0.0
7.75473 -0.0090245 0.0
4.23594 0.151587 0.0
8.55245 0.193521 0.0
7.56057 -0.101495 0.0
7.37933 -0.105612 0.0
4.34173 0.233525 0.0
7.17839 -0.0636589 0.0
7.70876 0.20447 0.0
4.04235 -0.00287003 0.0
7.50333 -0.0580218 0.0
4.56008 0.0314068 0.0
4.05921 0.0965678 0.0
7.22919 -0.142887 0.0
4.34172 0.17215 0.0
5.2652 0.107044 0.0
4.41852 0.266921 0.0
3.73718 0.0846634 0.0
3.99746 -0.0115974 0.0
7.58992 0.0340134 0.0
4.1948 -0.0718721 0.0
4.29307 -0.0735385 0.0
4.43981 0.182827 0.0
4.49685 0.168941 0.0
4.3788 0.0136193 0.0
4.27774 0.0628221 0.0
3.65402 -0.0735779 0.0
4.12855 -0.0405433 0.0
5.14569 0.000799602 0.0
8.45643 -0.0135609 0.0
4.50797 -0.0630478 0.0
5.32894 0.0847218 0.0
7.25637 0.170703 0.0
7.03837 -0.161762 0.0
4.10079 -0.0645617 0.0
4.48189 0.201645 0.0
4.16997 0.0491303 0.0
7.92219 0.0461839 0.0
3.93518 0.104809 0.0
4.36278 0.085803 0.0
4.05421 -0.0644691 0.0
7.94595 0.341121 0.0
4.98394 -0.0868484 0.0
3.60979 0.0256479 0.0
4.09805 0.024111 0.0
3.47352 0.0500245 0.0
4.49365 0.0862283 0.0
4.52788 -0.0191285 0.0
6.66981 -0.0685785 0.0
3.11081 -0.0257348 0.0
7.7537 0.338711 0.0
8.02765 0.143497 0.0
28.604 -0.147784 0.0
28.1441 -0.107735 0.0
30.4718 -0.117648 0.0
25.0111 0.0528434 0.0
31.5812 -0.286448 0.0
31.8353 -0.135001 0.0
24.852 0.0182314 0.0
31.6756 -0.304591 0.0
31.9867 -0.258471 0.0
31.7629 -0.32481 0.0
32.0687 -0.160766 0.0
26.149 -0.00424632 0.0
28.4735 -0.102622 0.0
31.8764 -0.290205 0.0
27.7221 -0.12896 0.0
31.4709 -0.201158 0.0
29.0074 -0.16029 0.0
31.4325 -0.159713 0.0
30.2224 -0.240198 0.0
30.5255 -0.267042 0.0
22.0578 0.12241 0.0
31.5337 -0.334245 0.0
31.7227 -0.180054 0.0
30.8142 -0.251327 0.0
31.7957 -0.273036 0.0
24.5277 -0.108273 0.0
30.0481 -0.101846 0.0
28.3602 -0.103309 0.0