# vtk DataFile Version 3.0
Malha 2D com triângulos e temperatura
ASCII
DATASET UNSTRUCTURED_GRID

POINTS 1194 double
0 0 0
5 0 0
5 1 0
0 1 0
0.85 0.5 0
0.842388 0.538268 0
0.820711 0.570711 0
0.788268 0.592388 0
0.75 0.6 0
0.711732 0.592388 0
0.679289 0.570711 0
0.657612 0.538268 0
0.65 0.5 0
0.657612 0.461732 0
0.679289 0.429289 0
0.711732 0.407612 0
0.75 0.4 0
0.788268 0.407612 0
0.820711 0.429289 0
0.842388 0.461732 0
0.0793651 0 0
0.15873 0 0
0.238095 0 0
0.31746 0 0
0.396825 0 0
0.47619 0 0
0.555556 0 0
0.634921 0 0
0.714286 0 0
0.793651 0 0
0.873016 0 0
0.952381 0 0
1.03175 0 0
1.11111 0 0
1.19048 0 0
1.26984 0 0
1.34921 0 0
1.42857 0 0
1.50794 0 0
1.5873 0 0
1.66667 0 0
1.74603 0 0
1.8254 0 0
1.90476 0 0
1.98413 0 0
2.06349 0 0
2.14286 0 0
2.22222 0 0
2.30159 0 0
2.38095 0 0
2.46032 0 0
2.53968 0 0
2.61905 0 0
2.69841 0 0
2.77778 0 0
2.85714 0 0
2.93651 0 0
3.01587 0 0
3.09524 0 0
3.1746 0 0
3.25397 0 0
3.33333 0 0
3.4127 0 0
3.49206 0 0
3.57143 0 0
3.65079 0 0
3.73016 0 0
3.80952 0 0
3.88889 0 0
3.96825 0 0
4.04762 0 0
4.12698 0 0
4.20635 0 0
4.28571 0 0
4.36508 0 0
4.44444 0 0
4.52381 0 0
4.60317 0 0
4.68254 0 0
4.7619 0 0
4.84127 0 0
4.92063 0 0
5 0.0769231 0
5 0.153846 0
5 0.230769 0
5 0.307692 0
5 0.384615 0
5 0.461538 0
5 0.538462 0
5 0.615385 0
5 0.692308 0
5 0.769231 0
5 0.846154 0
5 0.923077 0
4.92063 1 0
4.84127 1 0
4.7619 1 0
4.68254 1 0
4.60317 1 0
4.52381 1 0
4.44444 1 0
4.36508 1 0
4.28571 1 0
4.20635 1 0
4.12698 1 0
4.04762 1 0
3.96825 1 0
3.88889 1 0
3.80952 1 0
3.73016 1 0
3.65079 1 0
3.57143 1 0
3.49206 1 0
3.4127 1 0
3.33333 1 0
3.25397 1 0
3.1746 1 0
3.09524 1 0
3.01587 1 0
2.93651 1 0
2.85714 1 0
2.77778 1 0
2.69841 1 0
2.61905 1 0
2.53968 1 0
2.46032 1 0
2.38095 1 0
2.30159 1 0
2.22222 1 0
2.14286 1 0
2.06349 1 0
1.98413 1 0
1.90476 1 0
1.8254 1 0
1.74603 1 0
1.66667 1 0
1.5873 1 0
1.50794 1 0
1.42857 1 0
1.34921 1 0
1.26984 1 0
1.19048 1 0
1.11111 1 0
1.03175 1 0
0.952381 1 0
0.873016 1 0
0.793651 1 0
0.714286 1 0
0.634921 1 0
0.555556 1 0
0.47619 1 0
0.396825 1 0
0.31746 1 0
0.238095 1 0
0.15873 1 0
0.0793651 1 0
0 0.923077 0
0 0.846154 0
0 0.769231 0
0 0.692308 0
0 0.615385 0
0 0.538462 0
0 0.461538 0
0 0.384615 0
0 0.307692 0
0 0.230769 0
0 0.153846 0
0 0.0769231 0
0.879698 0.466718 0
1.3085 0.931947 0
1.30532 0.0638546 0
4.93832 0.504275 0
0.620452 0.46964 0
3.99858 0.0669607 0
1.63721 0.934258 0
3.3751 0.0523709 0
4.3254 0.0687322 0
2.42354 0.0642082 0
2.97619 0.0687322 0
2.02101 0.0693621 0
3.68108 0.0581336 0
2.65899 0.932655 0
4.178 0.939994 0
3.21614 0.938179 0
2.25483 0.919987 0
3.53215 0.928998 0
3.84921 0.931268 0
1.69647 0.0674297 0
1.94349 0.930209 0
4.48413 0.931268 0
2.97813 0.942022 0
2.74097 0.0673855 0
0.859645 0.573263 0
0.639718 0.573116 0
0.0651563 0.652836 0
0.0635304 0.346121 0
4.56232 0.0679683 0
0.830393 0.392645 0
0.669618 0.39275 0
1.06185 0.0668897 0
0.440193 0.0680031 0
1.06474 0.93511 0
0.446074 0.935974 0
0.724697 0.630698 0
4.72268 0.931235 0
4.93065 0.267192 0
0.589836 0.936152 0
0.92338 0.0562425 0
0.590207 0.0623339 0
0.755872 0.0732784 0
0.838039 0.936714 0
4.92573 0.732039 0
0.281717 0.93783 0
0.28208 0.0811877 0
0.065248 0.503161 0
1.46076 0.0637037 0
4.72574 0.0661877 0
4.31028 0.937908 0
3.21429 0.0687322 0
1.46639 0.932632 0
3.6897 0.928155 0
2.42063 0.931268 0
3.5364 0.0691789 0
2.25998 0.0676208 0
1.78735 0.937047 0
4.01535 0.920637 0
1.85469 0.0674188 0
3.83991 0.0626292 0
3.37477 0.929368 0
2.58225 0.0657863 0
2.81746 0.932342 0
4.16667 0.0687322 0
2.11402 0.935574 0
0.0614266 0.197046 0
0.0612841 0.803003 0
4.88273 0.0644126 0
4.87774 0.933272 0
0.859645 0.426737 0
0.903081 0.436592 0
0.923672 0.473385 0
0.948706 0.439078 0
0.969155 0.479795 0
0.996593 0.439791 0
1.0202 0.484937 0
1.04667 0.440138 0
1.07382 0.489694 0
1.1034 0.440801 0
1.13169 0.49612 0
1.16603 0.445058 0
1.1931 0.504331 0
1.22956 0.450883 0
1.25923 0.506004 0
1.29683 0.453139 0
1.32923 0.510343 0
1.36603 0.454344 0
1.03276 0.530395 0
1.40063 0.516169 0
1.43576 0.454934 0
1.47042 0.520776 0
1.51069 0.46142 0
1.54422 0.526371 0
1.58547 0.465572 0
1.61942 0.531773 0
1.66033 0.468788 0
1.69546 0.536793 0
1.73713 0.472812 0
1.77239 0.541977 0
1.81532 0.478494 0
1.85006 0.547285 0
1.89327 0.483449 0
1.92802 0.55361 0
1.97142 0.488546 0
2.00623 0.558966 0
2.04984 0.493518 0
2.08483 0.564085 0
2.12847 0.498462 0
2.16353 0.569137 0
2.20719 0.503331 0
0.961579 0.391697 0
1.22451 0.565337 0
2.24238 0.574192 0
2.28611 0.508258 0
2.32134 0.579247 0
2.36519 0.513325 0
2.40036 0.584295 0
2.44425 0.51834 0
2.47944 0.589336 0
2.52334 0.523355 0
2.55853 0.594372 0
2.60245 0.52837 0
2.63764 0.599431 0
2.68159 0.533388 0
2.64637 0.462336 0
2.72553 0.467349 0
2.76076 0.538418 0
2.8047 0.47237 0
2.83993 0.543451 0
2.88387 0.477399 0
2.91911 0.548482 0
2.96305 0.482427 0
2.9983 0.553514 0
3.04224 0.487456 0
3.07749 0.558545 0
3.12143 0.492477 0
3.15668 0.563574 0
3.20063 0.497514 0
3.23588 0.568605 0
3.27983 0.502542 0
3.31508 0.573635 0
3.35903 0.507562 0
3.39428 0.578663 0
3.43823 0.5126 0
3.47348 0.583694 0
3.51744 0.517628 0
3.55268 0.588724 0
3.59664 0.522646 0
3.63189 0.593752 0
3.67585 0.527673 0
3.71109 0.598781 0
3.75505 0.532702 0
3.7903 0.60381 0
3.83426 0.537731 0
3.79901 0.466623 0
3.87821 0.471754 0
3.91346 0.542777 0
3.95742 0.476701 0
3.99267 0.547795 0
4.03662 0.481715 0
4.07187 0.552815 0
4.11582 0.486743 0
4.15106 0.55783 0
4.195 0.491782 0
4.23023 0.562843 0
4.27415 0.49682 0
4.30937 0.567866 0
4.35325 0.501915 0
4.38842 0.572845 0
4.43227 0.506997 0
4.46737 0.577575 0
4.51106 0.511995 0
4.54622 0.582183 0
1.13571 0.390292 0
4.47606 0.441361 0
4.55475 0.446396 0
2.32985 0.442214 0
3.5614 0.451571 0
3.08619 0.421408 0
2.09339 0.427815 0
1.42887 0.583001 0
2.84864 0.406329 0
3.32378 0.43649 0
4.23911 0.425894 0
1.54723 0.39251 0
1.77883 0.406811 0
1.33959 0.387065 0
3.92239 0.405803 0
4.08079 0.415776 0
2.48812 0.452349 0
1.57935 0.603183 0
1.93602 0.417543 0
1.72453 0.617973 0
3.11273 0.629643 0
2.69029 0.396284 0
3.94662 0.623383 0
1.88466 0.613248 0
2.79598 0.609502 0
4.10826 0.620575 0
2.04005 0.62838 0
2.95434 0.619575 0
4.51981 0.375801 0
4.59833 0.380943 0
4.63314 0.451296 0
4.26693 0.63114 0
2.19619 0.645921 0
4.4246 0.642296 0
3.27112 0.639707 0
2.35729 0.649822 0
2.51462 0.660373 0
3.42952 0.649769 0
4.67669 0.38601 0
3.58793 0.659829 0
3.74634 0.669888 0
4.64195 0.315733 0
4.44109 0.370647 0
4.48493 0.305066 0
4.40614 0.29989 0
4.71136 0.456133 0
4.72014 0.320758 0
0.8692 0.382093 0
0.841252 0.348256 0
0.886481 0.338703 0
0.853127 0.301457 0
0.902583 0.287335 0
0.801683 0.321689 0
0.818113 0.263019 0
0.764765 0.277091 0
4.44702 0.235678 0
0.946267 0.520761 0
0.78107 0.221265 0
0.726309 0.234724 0
0.848273 0.20551 0
4.68545 0.250576 0
4.37074 0.227561 0
4.76365 0.255792 0
4.79822 0.326145 0
0.713664 0.287231 0
0.672358 0.247957 0
0.68673 0.192342 0
0.630368 0.2085 0
0.616569 0.265341 0
0.574186 0.225456 0
0.557393 0.28131 0
0.52004 0.242373 0
0.504416 0.299685 0
0.462273 0.252096 0
0.44798 0.316739 0
0.404567 0.276951 0
0.390546 0.335414 0
0.434669 0.37657 0
0.377935 0.394545 0
0.421979 0.43426 0
0.365682 0.452846 0
0.409646 0.492216 0
0.353389 0.51089 0
0.397738 0.551598 0
0.339864 0.570301 0
0.385899 0.612153 0
0.325913 0.631557 0
0.344507 0.29318 0
0.320568 0.413067 0
0.373553 0.673852 0
0.434438 0.653082 0
0.311416 0.69481 0
0.449777 0.528305 0
0.293513 0.534612 0
0.421431 0.715204 0
0.480917 0.696603 0
0.54504 0.34471 0
0.262743 0.649913 0
0.246209 0.712341 0
0.468564 0.755948 0
0.526091 0.735423 0
0.538207 0.68039 0
0.581228 0.716342 0
0.408756 0.777952 0
0.36234 0.239019 0
0.297047 0.251925 0
0.572109 0.771575 0
0.624906 0.752173 0
0.474824 0.414151 0
0.534351 0.182707 0
0.633682 0.70159 0
0.674547 0.736174 0
0.66826 0.788959 0
0.721117 0.76834 0
0.714515 0.825486 0
0.769074 0.802008 0
0.775287 0.746591 0
0.821903 0.778625 0
0.826767 0.726064 0
0.873257 0.756032 0
0.872997 0.697261 0
0.92331 0.732304 0
0.930014 0.67838 0
0.976061 0.710612 0
0.92456 0.784469 0
0.982178 0.654421 0
1.03016 0.688004 0
1.02037 0.747059 0
1.08 0.723819 0
1.08651 0.661896 0
1.1397 0.698204 0
1.13262 0.763657 0
1.19424 0.736545 0
1.18556 0.80161 0
1.24839 0.771772 0
1.25723 0.706382 0
1.31432 0.745787 0
4.66801 0.521361 0
4.74602 0.526202 0
4.70285 0.591278 0
4.78076 0.596023 0
4.73763 0.661207 0
4.78904 0.460969 0
2.61113 0.391267 0
2.65506 0.325217 0
2.57588 0.320198 0
2.61982 0.254148 0
2.69899 0.259163 0
2.54065 0.249131 0
2.49672 0.315179 0
2.46148 0.244124 0
2.41757 0.310166 0
2.38233 0.239117 0
2.33843 0.30514 0
2.30297 0.237979 0
2.25928 0.300748 0
2.22079 0.221377 0
2.17969 0.293884 0
2.14114 0.224266 0
2.10047 0.289841 0
2.0653 0.219144 0
2.02202 0.284919 0
1.98701 0.214164 0
1.94336 0.279863 0
3.82315 0.673327 0
3.78135 0.738156 0
3.86451 0.735958 0
3.70234 0.735494 0
4.52513 0.244409 0
4.32717 0.294467 0
4.29217 0.221862 0
0.619934 0.539507 0
0.599432 0.577132 0
0.575955 0.542712 0
0.554504 0.58245 0
4.65962 0.656481 0
4.69438 0.726169 0
4.6161 0.721747 0
4.77259 0.731352 0
4.65076 0.791486 0
4.57153 0.788793 0
4.2482 0.289182 0
4.21307 0.218308 0
4.1691 0.284563 0
4.13394 0.21352 0
0.835918 0.606341 0
0.806475 0.6384 0
4.08995 0.279537 0
0.640355 0.426737 0
0.596214 0.435837 0
0.630358 0.379178 0
0.689967 0.627735 0
1.90832 0.209948 0
1.86468 0.27519 0
1.82968 0.20518 0
1.78607 0.269797 0
0.281841 0.313314 0
0.232117 0.268621 0
0.216861 0.334396 0
4.05473 0.209347 0
4.01077 0.2745 0
3.97554 0.204394 0
3.93159 0.269388 0
0.297409 0.759367 0
0.231645 0.782943 0
0.180008 0.73598 0
1.32151 0.676369 0
1.38055 0.718092 0
1.36901 0.793947 0
1.43945 0.766002 0
0.249902 0.198865 0
0.932364 0.624392 0
1.75117 0.201034 0
1.70771 0.264658 0
1.673 0.195402 0
1.62985 0.260294 0
1.59532 0.191927 0
1.55236 0.254233 0
3.89629 0.200227 0
3.85238 0.264494 0
3.81708 0.195303 0
3.77304 0.259453 0
2.66368 0.189084 0
2.74279 0.19534 0
2.77814 0.264556 0
2.82201 0.199823 0
2.85733 0.269552 0
2.90126 0.203886 0
2.93654 0.274416 0
2.98045 0.20868 0
3.01573 0.279376 0
3.0597 0.213193 0
[...]
CELL_DATA 2220
VECTORS velocity double
21.4059 -1.82389 0.0
15.7269 0.469684 0.0
23.864 6.01565 0.0
23.6357 1.13055 0.0
21.8069 -2.17301 0.0
28.0391 -1.17129 0.0
13.2733 0.450158 0.0
14.7668 -0.0208385 0.0
26.4532 11.1234 0.0
27.5662 -0.807194 0.0
17.1404 16.6255 0.0
14.0706 0.263399 0.0
11.2131 0.193731 0.0
23.1842 -6.55173 0.0
21.741 15.5609 0.0
18.0967 11.1337 0.0
15.2689 0.680864 0.0
12.338 0.562662 0.0
13.9011 -0.129863 0.0
15.047 -0.112661 0.0
20.1886 4.57821 0.0
39.0963 -6.18593 0.0
14.3318 0.631773 0.0
14.5815 0.540013 0.0
26.0952 -1.07047 0.0
21.279 -5.4531 0.0
20.8642 -2.27499 0.0
12.5156 0.527157 0.0
23.3235 1.19881 0.0
26.2649 1.14261 0.0
20.9214 -3.21847 0.0
31.5367 0.128474 0.0
10.3453 -0.114568 0.0
29.8441 -12.729 0.0
46.0181 1.70206 0.0
28.1781 -1.32532 0.0
45.0045 2.55422 0.0
12.0876 -0.119798 0.0
27.4668 1.38683 0.0
26.7785 -1.8639 0.0
12.707 -1.22104 0.0
26.4946 10.1288 0.0
19.8224 0.939689 0.0
13.476 0.0186562 0.0
12.1613 -0.0401915 0.0
10.9384 0.020929 0.0
14.1014 0.593418 0.0
11.0876 -0.0116793 0.0
27.3523 -0.692698 0.0
29.6046 0.462251 0.0
15.9783 3.60623 0.0
11.0878 0.0997384 0.0
13.7988 0.597589 0.0
14.055 0.114353 0.0
12.7533 0.570324 0.0
26.6327 -2.44262 0.0
33.6556 -0.411367 0.0
11.7048 0.529601 0.0
12.1157 0.531034 0.0
29.9473 0.350822 0.0
0.0503122 -4.80889 0.0
27.1609 -1.68522 0.0
22.5435 -4.30293 0.0
14.14 0.59509 0.0
13.9809 0.650154 0.0
32.1966 -11.3137 0.0
18.608 -1.1294 0.0
20.5363 10.4119 0.0
11.8526 0.629919 0.0
12.0796 0.560166 0.0
13.9228 0.165036 0.0
31.553 11.6922 0.0
10.871 0.157328 0.0
28.7759 0.920716 0.0
29.7094 -1.52134 0.0
46.4095 -0.331489 0.0
24.8851 4.31299 0.0
16.2713 -3.42118 0.0
24.7884 9.98142 0.0
13.2016 0.114313 0.0
22.042 2.74526 0.0
27.335 2.72096 0.0
14.095 -0.247132 0.0
10.8473 0.10515 0.0
13.6471 0.444174 0.0
13.593 0.238788 0.0
19.4687 -2.19889 0.0
11.3398 0.206289 0.0
11.5396 0.359395 0.0
27.2684 11.4548 0.0
24.2633 -3.74066 0.0
16.6669 4.33117 0.0
14.0382 -0.162182 0.0
23.4525 5.95493 0.0
45.6438 0.113679 0.0
26.6651 2.00189 0.0
40.561 4.88106 0.0
3.895 -18.0745 0.0
0.780272 -3.72451 0.0
27.6114 13.4444 0.0
-5.85345 -18.2815 0.0
19.6611 -4.3432 0.0
13.9134 0.541097 0.0
11.7802 1.07097 0.0
40.4983 -5.79731 0.0
46.0938 -1.02539 0.0
28.6697 -0.976338 0.0
29.4347 -1.30444 0.0
4.07789 -0.0913167 0.0
14.0368 1.13768 0.0
29.8602 1.03348 0.0
26.0696 -8.12243 0.0
28.4906 -0.803924 0.0
10.4756 -0.588689 0.0
28.4856 -2.42361 0.0
11.8216 0.472695 0.0
21.8866 -5.35326 0.0
17.6148 -0.438548 0.0
2.55445 -20.7057 0.0
28.3839 10.5827 0.0
15.6632 -2.75834 0.0
36.0863 -0.662511 0.0
13.1483 3.22512 0.0
33.7531 -8.62243 0.0
46.6649 0.847487 0.0
12.2663 -11.6055 0.0
45.4698 -1.61192 0.0
22.4496 1.0562 0.0
25.077 -7.71506 0.0
-1.85007 9.10658 0.0
11.5119 1.31428 0.0
34.3205 4.51845 0.0
27.7051 5.83466 0.0
13.7025 6.15287 0.0
26.9485 1.46752 0.0
11.1952 6.37756 0.0
10.094 -0.00214495 0.0
17.5945 -3.56354 0.0
15.0209 -12.5971 0.0
32.7056 0.52164 0.0
19.555 -4.60782 0.0
13.2616 -0.0297489 0.0
27.9389 -3.07716 0.0
46.1799 0.490353 0.0
28.2121 0.86935 0.0
21.1694 5.228 0.0
-9.36137 9.11617 0.0
7.42841 -18.7067 0.0
28.6753 2.43182 0.0
29.1582 -1.86425 0.0
11.7714 -0.30114 0.0
27.9561 9.46332 0.0
36.6773 -0.015886 0.0
30.218 -10.7765 0.0
6.42691 5.08939 0.0
15.0575 0.221738 0.0
21.3309 -1.39055 0.0
15.6468 0.370672 0.0
10.228 -0.81675 0.0
14.9396 -3.51707 0.0
32.0413 8.43979 0.0
11.9067 0.0376674 0.0
-9.7125 -9.35533 0.0
31.6101 0.131114 0.0
10.785 0.0929331 0.0
30.7599 -12.2411 0.0
21.727 -14.5209 0.0
47.0057 0.393508 0.0
14.9476 0.1596 0.0
24.4429 10.8757 0.0
-4.28256 15.2274 0.0
10.5866 0.0384512 0.0
13.808 0.0814762 0.0
-2.51358 -9.41481 0.0
7.18771 -5.13926 0.0
24.742 9.03402 0.0
23.2237 4.24496 0.0
23.0569 8.33999 0.0
8.15576 -1.74644 0.0
14.8355 0.0666855 0.0
35.4542 -0.279104 0.0
15.799 -3.64134 0.0
17.1438 -15.6628 0.0
3.48838 14.6517 0.0
15.0798 -0.0113562 0.0
24.7045 -1.76053 0.0
45.8111 0.12361 0.0
12.0375 -0.26765 0.0
42.3064 3.80409 0.0
46.9493 0.237126 0.0
12.2725 -0.983642 0.0
11.8013 -0.188101 0.0
26.5461 -8.9689 0.0
28.8839 2.03481 0.0
21.4862 -0.44231 0.0
45.6804 -0.278171 0.0
20.2836 0.699332 0.0
13.5933 -0.418474 0.0
6.15809 -0.30661 0.0
13.9494 -0.463129 0.0
12.9616 -4.11682 0.0
18.599 -0.730357 0.0
34.6024 -10.1136 0.0
14.1038 -0.0855496 0.0
12.9418 1.40664 0.0
18.8769 -3.3774 0.0
21.0371 -4.13587 0.0
12.9851 0.0364091 0.0
20.0937 1.0647 0.0
7.53876 -1.31819 0.0
13.8217 0.583871 0.0
11.2666 18.5976 0.0
19.67 -0.178928 0.0
23.5921 10.7605 0.0
25.5252 5.43834 0.0
14.6767 1.65019 0.0
11.6543 0.539199 0.0
13.836 0.759816 0.0
9.12011 1.84141 0.0
30.2751 0.893759 0.0
28.1288 0.544175 0.0
6.67567 -0.178129 0.0
11.5986 0.708186 0.0
6.34652 -0.0596431 0.0
13.9963 -0.0598973 0.0
16.6161 -0.884734 0.0
13.3995 -2.50579 0.0
20.4288 15.9956 0.0
25.2521 -5.52193 0.0
11.0615 0.346658 0.0
17.4583 1.01369 0.0
18.7514 -1.46286 0.0
9.55435 -0.0501595 0.0
14.3513 -0.139445 0.0
11.3974 -0.245437 0.0
46.6779 0.123717 0.0
5.79291 -7.19979 0.0
13.9028 -0.192177 0.0
13.7816 -0.217975 0.0
12.2081 -0.0701598 0.0
45.5586 -0.160388 0.0
35.7167 9.27919 0.0
42.6905 -3.92498 0.0
7.09484 0.00339925 0.0
12.6792 5.33301 0.0
29.25 0.0065877 0.0
15.1012 -0.197166 0.0
32.5009 -0.738635 0.0
4.92167 6.18092 0.0
20.2132 0.601141 0.0
11.0828 -5.60646 0.0
7.10968 -0.0515414 0.0
19.9972 -14.0712 0.0
27.5682 -0.154144 0.0
24.1819 -6.59701 0.0
13.6303 0.322618 0.0
-9.6626 1.67689 0.0
28.4816 0.195902 0.0
21.2562 -0.0874708 0.0
46.0243 0.206462 0.0
15.618 -0.269129 0.0
37.4855 -0.423386 0.0
10.9896 0.54554 0.0
17.8882 -4.4556 0.0
6.90091 -0.593118 0.0
7.88992 -0.0643091 0.0
12.7719 -0.695294 0.0
11.4328 -4.77377 0.0
17.6142 4.5145 0.0
29.5294 -0.0556028 0.0
25.9278 1.00764 0.0
27.3083 0.0298704 0.0
11.4283 0.263361 0.0
27.156 -1.77721 0.0
3.35237 -11.6652 0.0
44.1005 -2.51586 0.0
21.1875 -14.2831 0.0
16.3756 -2.50248 0.0
13.324 3.01658 0.0
13.4081 0.0763878 0.0
9.94406 -15.0472 0.0
24.9523 -0.0362556 0.0
44.0922 -0.557275 0.0
19.2234 0.734625 0.0
26.984 -1.56282 0.0
17.5755 -0.516118 0.0
34.9214 -0.257968 0.0
18.628 0.649257 0.0
11.9099 -0.159987 0.0
11.4677 -0.185769 0.0
-9.65969 -2.1322 0.0
13.0927 -1.20795 0.0
7.95727 1.70056 0.0
14.6564 -4.59162 0.0
15.3284 -1.65818 0.0
18.074 -0.192119 0.0
18.3477 -0.167925 0.0
21.2654 0.3343 0.0
41.9951 -3.77611 0.0
26.4474 5.2169 0.0
10.3797 -0.72404 0.0
25.5952 8.29253 0.0
24.2058 -6.90925 0.0
7.43376 0.0595442 0.0
19.2378 -12.2701 0.0
14.6435 0.66145 0.0
11.1198 -0.0869204 0.0
11.629 -0.197125 0.0
16.0779 0.284277 0.0
7.17431 1.32198 0.0
11.1656 1.86626 0.0
8.88674 3.07153 0.0
3.94604 18.1878 0.0
43.8308 -1.43502 0.0
31.3996 11.774 0.0
13.5253 -0.204252 0.0
23.5799 6.98565 0.0
11.515 -0.00045955 0.0
46.3114 -0.238612 0.0
26.5947 5.7879 0.0
21.466 14.3034 0.0
13.1376 3.12063 0.0
27.959 0.225943 0.0
11.7565 0.11285 0.0
8.861 4.79249 0.0
9.79896 -1.76494 0.0
27.3132 0.0921042 0.0
26.7738 1.12081 0.0
28.6797 0.552897 0.0
8.96733 -1.84906 0.0
20.709 -11.0574 0.0
45.5113 1.07097 0.0
18.273 -3.89904 0.0
10.9041 -0.480373 0.0
31.3446 -10.6447 0.0
45.6682 -0.399236 0.0
24.3311 -0.842393 0.0
25.9333 8.25363 0.0
35.951 -1.02523 0.0
13.6817 -0.220908 0.0
7.12785 0.87544 0.0
12.1585 -0.219748 0.0
6.48484 -0.130838 0.0
5.59142 -0.818565 0.0
18.95 15.8796 0.0
26.0489 9.70415 0.0
7.99342 2.88372 0.0
25.9943 6.77228 0.0
27.4206 3.96807 0.0
4.75726 -0.9325 0.0
34.3072 -8.22155 0.0
4.2144 0.802981 0.0
6.45312 0.185878 0.0
14.6017 10.4803 0.0
6.64641 0.860667 0.0
46.8891 -0.0117699 0.0
34.823 -9.28336 0.0
3.80776 -0.366108 0.0
26.704 0.761349 0.0
30.6422 -0.977718 0.0
26.4914 4.12755 0.0
6.8759 18.7048 0.0
21.5104 6.08442 0.0
26.2003 5.34667 0.0
5.98355 0.258816 0.0
29.8536 0.722214 0.0
39.9572 6.51972 0.0
4.30285 -0.856158 0.0
6.30458 -0.210624 0.0
37.6386 -0.840707 0.0
4.40965 0.899415 0.0
41.0657 -4.68 0.0
34.4041 9.78111 0.0
15.1373 -0.769258 0.0
6.18146 -0.0588487 0.0
12.9501 0.391834 0.0
19.3161 0.37038 0.0
19.5429 0.114574 0.0
46.3684 -0.00664133 0.0
18.2006 -0.123829 0.0
12.5986 0.626748 0.0
44.8717 0.124907 0.0
46.5998 -0.113532 0.0
28.5805 0.331704 0.0
43.1993 0.516468 0.0
26.8879 -0.12092 0.0
40.524 -5.19388 0.0
27.9571 0.168769 0.0
22.1999 -6.09986 0.0
26.8423 3.10812 0.0
10.392 0.629826 0.0
25.8584 0.0406694 0.0
30.2472 -0.612028 0.0
22.6903 -5.99051 0.0
9.046 -0.701562 0.0
12.7464 -1.96858 0.0
45.7506 0.201241 0.0
8.7006 0.548504 0.0
27.9931 0.159321 0.0
44.6634 0.476329 0.0
7.23682 0.214263 0.0
24.9768 3.96692 0.0
25.7244 4.68787 0.0
28.4442 0.105426 0.0
39.1266 7.25417 0.0
42.9731 4.39075 0.0
5.2542 2.70557 0.0
6.87148 1.05973 0.0
21.5328 1.15476 0.0
27.8128 -12.2056 0.0
14.5744 -14.1481 0.0
5.37318 0.871896 0.0
42.3781 0.0379656 0.0
25.3621 -5.7403 0.0
44.9497 -0.456115 0.0
28.4411 0.123192 0.0
4.07062 -0.130101 0.0
3.9509 0.744485 0.0
26.3251 9.08024 0.0
6.24638 0.109994 0.0
26.2359 6.70756 0.0
42.7279 0.715009 0.0
4.20513 0.0014753 0.0
6.26744 -0.037824 0.0
25.9163 3.60977 0.0
25.7971 0.380324 0.0
3.97391 0.138134 0.0
23.0136 -0.127952 0.0
28.0627 0.173845 0.0
7.21274 -1.03906 0.0
28.4781 0.118041 0.0
23.9978 3.50198 0.0
44.2712 -0.707075 0.0
27.0004 2.3148 0.0
6.7194 -0.491571 0.0
40.8215 5.35779 0.0
5.26736 -0.931312 0.0
6.54944 0.364887 0.0
19.1688 -9.76591 0.0
6.46225 0.376031 0.0
24.0006 4.48663 0.0
26.2039 2.73578 0.0
40.2101 4.5799 0.0
43.8135 3.07735 0.0
10.6167 -0.862122 0.0
18.2244 3.44018 0.0
44.8105 0.446684 0.0
3.8938 -0.479119 0.0
3.55685 0.480411 0.0
11.8564 -1.1047 0.0
10.2219 0.788405 0.0
28.1162 -0.591705 0.0
7.20173 -0.337364 0.0
23.7477 0.624603 0.0
28.2862 1.38372 0.0
6.5748 0.715163 0.0
12.2999 0.579293 0.0
25.5852 5.96182 0.0
6.93563 0.305573 0.0
26.8626 1.64738 0.0
24.0102 2.69481 0.0
26.5948 0.370963 0.0
6.26264 -0.408438 0.0
4.86043 0.290069 0.0
7.89989 0.595396 0.0
19.6929 -0.375419 0.0
9.41757 -1.13531 0.0
28.5559 0.139746 0.0
4.07642 0.0762969 0.0
42.8726 2.29585 0.0
7.22284 -0.421059 0.0
3.53995 0.567245 0.0
15.0698 -1.16495 0.0
25.6586 7.37592 0.0
6.99935 -0.812776 0.0
26.6152 0.291586 0.0
26.018 2.02976 0.0
23.346 4.27222 0.0
28.1824 0.18803 0.0
23.9387 2.05476 0.0
15.1101 -2.14714 0.0
32.6358 -8.94588 0.0
27.6982 -3.4829 0.0
23.8292 1.53561 0.0
6.53402 -0.539688 0.0
6.97085 0.562751 0.0
44.8883 -0.120107 0.0
3.37845 0.327357 0.0
34.472 -0.624049 0.0
16.1908 4.46251 0.0
28.3132 0.183191 0.0
3.45347 0.396792 0.0
3.97798 -0.601129 0.0
25.9712 1.45551 0.0
25.9323 8.79361 0.0
20.0757 -0.138147 0.0
30.823 -0.871722 0.0
24.502 0.0640728 0.0
27.0858 -0.828421 0.0
12.9525 -5.46534 0.0
24.9607 -0.090006 0.0
22.7685 2.97975 0.0
3.72389 -0.257192 0.0
23.7385 1.1189 0.0
19.9619 3.81361 0.0
12.0267 -0.519631 0.0
28.0417 0.343799 0.0
4.32795 -0.323072 0.0
4.78017 0.329183 0.0
22.8167 3.82219 0.0
25.7223 -0.115746 0.0
24.5195 -0.855889 0.0
14.181 -0.121238 0.0
25.5773 0.996688 0.0
28.6584 0.15375 0.0
25.5562 -4.31868 0.0
4.10795 1.02545 0.0
26.6225 0.524338 0.0
27.4991 -3.97242 0.0
22.6148 1.76177 0.0
22.654 2.74618 0.0
7.95991 -1.73017 0.0
30.4253 -11.964 0.0
5.20803 -3.51112 0.0
25.5961 -13.6247 0.0
26.2627 -0.955358 0.0
27.3831 4.40324 0.0
26.1637 1.26059 0.0
4.25799 -0.901145 0.0
23.6875 0.811777 0.0
23.8626 1.64311 0.0
22.5085 1.32874 0.0
29.3093 0.0913727 0.0
22.7195 2.29987 0.0
25.8496 0.699527 0.0
26.104 -0.657585 0.0
24.6275 -3.44366 0.0
8.41507 -2.54402 0.0
43.7828 -0.715566 0.0
11.2936 -0.10988 0.0
20.7128 -3.23639 0.0
7.02445 -4.57635 0.0
36.8212 8.05288 0.0
28.8353 0.115252 0.0
2.92576 -0.235358 0.0
3.00112 0.243184 0.0
25.7763 0.501005 0.0
42.0645 0.775403 0.0
23.6935 0.606183 0.0
18.189 3.69857 0.0
4.20397 -0.187208 0.0
6.8822 -0.277807 0.0
5.47946 0.48324 0.0
2.79073 1.42133 0.0
5.73316 -2.47744 0.0
26.6656 -5.28595 0.0
29.4168 0.0782652 0.0
40.3175 5.9069 0.0
0.984231 0.76493 0.0
21.4337 -0.048156 0.0
22.8313 -0.0486391 0.0
21.7868 -2.39051 0.0
18.7383 4.24653 0.0
1.10012 -0.732301 0.0
3.00304 -1.28785 0.0
19.5698 0.342646 0.0
20.6939 0.802239 0.0
22.4816 0.984055 0.0
16.2237 -1.97132 0.0
25.7205 -0.0613723 0.0
46.7527 -0.267257 0.0
26.6001 -0.0560705 0.0
21.3229 3.30121 0.0
28.5107 0.0960961 0.0
3.89064 -0.236685 0.0
25.761 7.36898 0.0
28.3547 0.30629 0.0
26.6751 0.26657 0.0
28.0698 0.0360519 0.0
24.2202 -1.489 0.0
3.73814 0.164617 0.0
28.4239 -0.0906873 0.0
5.07265 -0.59136 0.0
11.855 1.31271 0.0
18.7937 -0.236757 0.0
23.7223 0.48715 0.0
22.4663 0.729509 0.0
27.1838 0.814885 0.0
27.9509 0.683303 0.0
27.2952 0.962463 0.0
3.32604 0.227731 0.0
6.33978 0.399762 0.0
5.57308 -0.375787 0.0
28.7449 0.127643 0.0
25.8599 0.323633 0.0
44.0185 0.547503 0.0
4.95208 0.69268 0.0
25.9463 0.0758379 0.0
25.0074 1.95333 0.0
10.198 4.82396 0.0
26.2818 -0.0438929 0.0
2.37636 0.410079 0.0
25.3204 -0.0784807 0.0
24.5858 -0.523489 0.0
25.4911 -0.490084 0.0
19.3213 -0.226413 0.0
17.8467 -0.216765 0.0
25.0144 -0.11874 0.0
6.68685 -0.715694 0.0
45.6103 -1.20142 0.0
28.3962 -0.0761043 0.0
27.1622 -0.138604 0.0
26.7929 0.268817 0.0
23.8187 0.422579 0.0
13.4355 -0.0008376 0.0
25.9597 0.309547 0.0
28.7071 -2.42288 0.0
28.5326 0.0470269 0.0
6.76024 0.257267 0.0
23.2822 2.69707 0.0
2.5285 -0.374541 0.0
28.7056 0.378911 0.0
28.9313 0.262266 0.0
23.96 0.395618 0.0
1.82858 0.593658 0.0
29.9128 -10.8976 0.0
28.8545 0.0735209 0.0
27.8108 0.774615 0.0
25.972 -0.0815255 0.0
26.9197 -0.194873 0.0
26.9599 0.271732 0.0
28.6757 0.133749 0.0
28.6185 0.200145 0.0
28.7617 0.146001 0.0
24.1823 0.391586 0.0
3.05829 0.21303 0.0
10.3824 0.64867 0.0
27.9188 -0.396297 0.0
20.8367 8.81989 0.0
1.95279 -0.55118 0.0
5.95763 -0.243013 0.0
24.7546 -12.2239 0.0
25.021 1.86728 0.0
26.1325 0.313674 0.0
11.0817 -0.457213 0.0
26.9506 -0.159574 0.0
27.565 -0.127716 0.0
17.8697 4.76559 0.0
5.79572 0.362799 0.0
2.88597 -0.242294 0.0
28.2856 -2.93619 0.0
21.3571 2.87877 0.0
25.2793 -1.49538 0.0
28.8686 0.316649 0.0
11.0339 -1.62145 0.0
26.3378 0.302005 0.0
22.494 0.580228 0.0
28.493 -0.0469679 0.0
2.75075 0.286014 0.0
27.1512 0.246613 0.0
28.5206 0.00080372 0.0
3.32597 -0.106823 0.0
24.4575 0.369875 0.0
28.4357 0.149053 0.0
29.0468 0.40981 0.0
27.4983 0.100148 0.0
27.4171 -0.17529 0.0
28.8315 0.0303141 0.0
24.2366 -0.675555 0.0
27.4953 -0.0748441 0.0
27.3612 0.179504 0.0
26.9332 0.0611458 0.0
26.802 -0.200735 0.0
3.13771 -0.155148 0.0
27.5743 0.215129 0.0
26.6727 -0.228913 0.0
4.14961 0.170303 0.0
28.7863 -0.0159148 0.0
6.56345 0.322649 0.0
26.5763 0.23861 0.0
27.2941 -0.210683 0.0
29.0657 0.329654 0.0
28.0834 -0.0523303 0.0
27.5777 0.0371152 0.0
28.8649 0.254093 0.0
13.2729 0.180379 0.0
25.1312 0.145002 0.0
23.6315 0.947427 0.0
24.6927 0.27512 0.0
2.99567 -0.0302153 0.0
28.3075 0.152414 0.0
26.794 0.139711 0.0
22.2784 -2.84049 0.0
3.52702 -0.264493 0.0
22.7321 0.442785 0.0
3.45191 0.189284 0.0
21.1931 -2.74786 0.0
24.5846 1.06949 0.0
22.9452 0.424402 0.0
25.7195 -0.129627 0.0
26.5561 -0.237194 0.0
23.2613 0.417393 0.0
27.6434 -0.0614264 0.0
35.5423 9.5468 0.0
20.9037 -3.12777 0.0
26.9759 -0.0443634 0.0
28.9242 0.432614 0.0
28.8438 0.431 0.0
29.0231 0.310813 0.0
27.187 -0.228972 0.0
29.1907 0.34367 0.0
23.7153 -0.11879 0.0
29.1752 0.330874 0.0
26.285 -0.131961 0.0
25.3021 0.0549228 0.0
12.5149 0.30883 0.0
27.753 0.0325593 0.0
29.1752 0.315977 0.0
22.0473 -0.53329 0.0
28.9633 0.378954 0.0
27.0923 -0.22284 0.0
26.4526 -0.215708 0.0
3.23467 0.165838 0.0
27.0201 0.00363263 0.0
22.5907 0.494734 0.0
29.3123 0.311825 0.0
20.8035 -0.15001 0.0
6.99998 0.205974 0.0
25.4562 -0.00910283 0.0
29.0005 0.290512 0.0
23.8866 0.206595 0.0
23.2639 -0.122501 0.0
26.3588 -0.158515 0.0
29.0126 0.170321 0.0
27.0107 -0.1857 0.0
24.2608 0.0956675 0.0
16.3624 3.65916 0.0
28.7357 -0.0657615 0.0
29.3159 0.276339 0.0
28.274 0.613249 0.0
12.2338 -0.0691932 0.0
27.0785 -0.0453761 0.0
22.3459 -0.14111 0.0
3.71815 0.12265 0.0
6.50204 0.244363 0.0
26.9296 -0.120383 0.0
28.517 0.258885 0.0
25.1659 -0.242607 0.0
26.2577 -0.0785695 0.0
29.2257 0.232237 0.0
25.5085 -0.174647 0.0
25.5779 -0.0604806 0.0
26.1174 0.0017595 0.0
22.6604 -0.173013 0.0
24.7652 -0.16071 0.0
29.4132 0.231457 0.0
22.9254 -0.143809 0.0
28.8452 0.152368 0.0
25.0041 -0.254127 0.0
25.8883 -0.20695 0.0
24.5534 -0.200371 0.0
22.4111 -0.206925 0.0
28.5346 0.237593 0.0
26.8274 -0.043944 0.0
4.5675 0.138333 0.0
7.13468 0.201295 0.0
29.2313 0.0982442 0.0
28.971 0.0339928 0.0
23.4823 0.376314 0.0
24.4296 0.0237908 0.0
24.631 -0.0421394 0.0
29.1095 0.390202 0.0
25.908 0.0621429 0.0
28.3636 0.57827 0.0
27.6206 -0.0136612 0.0
22.182 -0.240462 0.0
24.0103 -0.258959 0.0
24.4537 0.0157501 0.0
26.679 0.0228453 0.0
29.4172 0.179657 0.0
28.4632 -0.0956342 0.0
24.3673 -0.234647 0.0
27.8447 8.45244 0.0
21.2924 -0.191099 0.0
24.1868 -0.25858 0.0
21.9764 -0.270478 0.0
26.7615 1.02025 0.0
25.6406 0.083098 0.0
26.4755 0.0600683 0.0
24.868 -0.231334 0.0
21.5761 -0.162583 0.0
23.5689 -0.0106055 0.0
28.9456 0.266477 0.0
21.755 -0.277936 0.0
23.8643 -0.207921 0.0
25.3792 0.0549519 0.0
14.0645 0.145259 0.0
28.0314 0.160558 0.0
21.5083 -0.217122 0.0
12.2358 0.101647 0.0
21.0377 -0.223241 0.0
26.2486 0.0536341 0.0
21.3774 -0.100575 0.0
23.723 -0.114697 0.0
21.8968 -0.146489 0.0
3.27354 -0.04938 0.0
6.13413 -0.0900892 0.0
14.0176 0.2115 0.0
25.2317 -0.213039 0.0
24.6116 -0.0692924 0.0
25.1767 -0.00238255 0.0
26.0489 0.00853068 0.0
21.1798 0.0149273 0.0
6.93226 0.0955977 0.0
29.0908 0.200497 0.0
6.31369 -0.0975474 0.0
29.4594 0.0963212 0.0
25.0648 -0.0579285 0.0
20.7989 -0.25675 0.0
24.1449 0.0946532 0.0
20.5123 -0.285821 0.0
29.4404 0.0173817 0.0
23.773 0.125107 0.0
3.39256 -0.0507495 0.0
6.22372 -0.0983328 0.0
24.7443 -0.16317 0.0
3.64981 0.05808 0.0
25.9128 -0.0528124 0.0
20.2721 -0.261681 0.0
20.0744 -0.152357 0.0
23.3187 0.0765396 0.0
25.656 -0.111239 0.0
29.1429 0.0299693 0.0
23.4311 0.0993963 0.0
23.1636 0.0365171 0.0
6.28414 -0.0840928 0.0
3.52873 -0.0503653 0.0
11.6645 0.173502 0.0
19.8906 -0.0224523 0.0
22.9151 0.134805 0.0
25.3276 -0.213446 0.0
22.4821 0.14444 0.0
26.5125 -0.0552069 0.0
11.9375 0.194362 0.0
22.1315 0.0883714 0.0
25.8799 -0.0970819 0.0
22.9936 -0.0134841 0.0
6.31802 0.099638 0.0
3.19541 -0.0340854 0.0
2.69149 -0.0501494 0.0
3.43899 -0.0451983 0.0
6.24067 -0.0263918 0.0
6.64076 0.1068 0.0
2.9244 -0.0121007 0.0
3.30833 0.00123763 0.0
6.10158 -0.0862478 0.0
3.20643 -0.0328021 0.0
3.466 -0.0273398 0.0
3.66607 0.0851997 0.0
6.76105 -0.0854674 0.0
3.56549 0.0539044 0.0
6.02475 -0.0599048 0.0
3.42236 0.0530714 0.0
6.41308 -0.0456133 0.0
6.22446 -0.0452188 0.0
3.33311 0.105142 0.0
6.87832 0.124604 0.0
6.09645 -0.071584 0.0
5.97188 -0.0766754 0.0
3.41013 0.167422 0.0
5.78719 -0.0420402 0.0
6.19869 0.133592 0.0
3.14945 -0.0245263 0.0
6.04186 -0.0435502 0.0
3.57239 0.00723845 0.0
3.16891 0.0623842 0.0
5.85484 -0.100678 0.0
3.42327 0.123241 0.0
4.12306 0.0670897 0.0
3.44334 0.208199 0.0
2.90782 0.0554344 0.0
3.12849 -0.0107399 0.0
6.10771 0.0163052 0.0
3.29545 -0.0491977 0.0
3.38105 -0.0505976 0.0
3.50451 0.133505 0.0
3.53811 0.129651 0.0
3.43003 -0.00872682 0.0
3.37521 0.0388139 0.0
2.87795 -0.0502531 0.0
3.25072 -0.0291183 0.0
4.0353 -0.00487115 0.0
6.81988 -0.0169277 0.0
3.49822 -0.0943179 0.0
4.16208 0.0516734 0.0
5.7992 0.112646 0.0
5.69859 -0.110532 0.0
3.2178 -0.0442956 0.0
3.53385 0.138677 0.0
3.25577 0.0284037 0.0
6.3724 0.00171607 0.0
3.09007 0.0707153 0.0
3.42201 0.054097 0.0
3.19492 -0.0455053 0.0
6.44522 0.257336 0.0
3.93834 -0.0567569 0.0
2.81978 0.0138241 0.0
3.19853 0.00988683 0.0
2.72571 0.033124 0.0
3.51386 0.0544721 0.0
3.54581 -0.0164751 0.0
5.34098 -0.0455104 0.0
2.43258 -0.0168558 0.0
6.28319 0.247752 0.0
6.48878 0.0929297 0.0
25.5144 -0.112962 0.0
25.0939 -0.0732912 0.0
27.6564 -0.107861 0.0
21.8882 0.0246875 0.0
29.0922 -0.199573 0.0
29.1701 -0.0418605 0.0
21.6824 0.00747012 0.0
29.1577 -0.20243 0.0
29.3595 -0.139327 0.0
29.2217 -0.206415 0.0
29.4183 -0.0613943 0.0
22.9686 -0.00478572 0.0
25.2628 -0.0601302 0.0
29.2994 -0.170849 0.0
24.5331 -0.101765 0.0
28.9999 -0.153927 0.0
25.9847 -0.103195 0.0
28.9455 -0.129377 0.0
27.3687 -0.154163 0.0
27.8179 -0.17966 0.0
18.9845 0.072397 0.0
28.9474 -0.21415 0.0
28.8632 -0.0833823 0.0
27.9644 -0.152731 0.0
29.0861 -0.152028 0.0
21.2028 -0.0779977 0.0
27.1176 -0.0921711 0.0
25.2698 -0.0889972 0.0