# vtk DataFile Version 3.0
Malha 2D com triângulos: velocidade e pressão
ASCII
DATASET UNSTRUCTURED_GRID

POINTS 4446 double
2 0 0
10 0 0
10 1 0
0 1 0
0 0.5 0
2 0.5 0
2.05 0 0
2.1 0 0
2.15 0 0
2.2 0 0
2.25 0 0
2.3 0 0
2.35 0 0
2.4 0 0
2.45 0 0
2.5 0 0
2.55 0 0
2.6 0 0
2.65 0 0
2.7 0 0
2.75 0 0
2.8 0 0
2.85 0 0
2.9 0 0
2.95 0 0
3 0 0
3.05 0 0
3.1 0 0
3.15 0 0
3.2 0 0
3.25 0 0
3.3 0 0
3.35 0 0
3.4 0 0
3.45 0 0
3.5 0 0
3.55 0 0
3.6 0 0
3.65 0 0
3.7 0 0
3.75 0 0
3.8 0 0
3.85 0 0
3.9 0 0
3.95 0 0
4 0 0
4.05 0 0
4.1 0 0
4.15 0 0
4.2 0 0
4.25 0 0
4.3 0 0
4.35 0 0
4.4 0 0
4.45 0 0
4.5 0 0
4.55 0 0
4.6 0 0
4.65 0 0
4.7 0 0
4.75 0 0
4.8 0 0
4.85 0 0
4.9 0 0
4.95 0 0
5 0 0
5.05 0 0
5.1 0 0
5.15 0 0
5.2 0 0
5.25 0 0
5.3 0 0
5.35 0 0
5.4 0 0
5.45 0 0
5.5 0 0
5.55 0 0
5.6 0 0
5.65 0 0
5.7 0 0
5.75 0 0
5.8 0 0
5.85 0 0
5.9 0 0
5.95 0 0
6 0 0
6.05 0 0
6.1 0 0
6.15 0 0
6.2 0 0
6.25 0 0
6.3 0 0
6.35 0 0
6.4 0 0
6.45 0 0
6.5 0 0
6.55 0 0
6.6 0 0
6.65 0 0
6.7 0 0
6.75 0 0
6.8 0 0
6.85 0 0
6.9 0 0
6.95 0 0
7 0 0
7.05 0 0
7.1 0 0
7.15 0 0
7.2 0 0
7.25 0 0
7.3 0 0
7.35 0 0
7.4 0 0
7.45 0 0
7.5 0 0
7.55 0 0
7.6 0 0
7.65 0 0
7.7 0 0
7.75 0 0
7.8 0 0
7.85 0 0
7.9 0 0
7.95 0 0
8 0 0
8.05 0 0
8.1 0 0
8.15 0 0
8.2 0 0
8.25 0 0
8.3 0 0
8.35 0 0
8.4 0 0
8.45 0 0
8.5 0 0
8.55 0 0
8.6 0 0
8.65 0 0
8.7 0 0
8.75 0 0
8.8 0 0
8.85 0 0
8.9 0 0
8.95 0 0
9 0 0
9.05 0 0
9.1 0 0
9.15 0 0
9.2 0 0
9.25 0 0
9.3 0 0
9.35 0 0
9.4 0 0
9.45 0 0
9.5 0 0
9.55 0 0
9.6 0 0
9.65 0 0
9.7 0 0
9.75 0 0
9.8 0 0
9.85 0 0
9.9 0 0
9.95 0 0
10 0.05 0
10 0.1 0
10 0.15 0
10 0.2 0
10 0.25 0
10 0.3 0
10 0.35 0
10 0.4 0
10 0.45 0
10 0.5 0
10 0.55 0
10 0.6 0
10 0.65 0
10 0.7 0
10 0.75 0
10 0.8 0
10 0.85 0
10 0.9 0
10 0.95 0
9.95 1 0
9.9 1 0
9.85 1 0
9.8 1 0
9.75 1 0
9.7 1 0
9.65 1 0
9.6 1 0
9.55 1 0
9.5 1 0
9.45 1 0
9.4 1 0
9.35 1 0
9.3 1 0
9.25 1 0
9.2 1 0
9.15 1 0
9.1 1 0
9.05 1 0
9 1 0
8.95 1 0
8.9 1 0
8.85 1 0
8.8 1 0
8.75 1 0
8.7 1 0
8.65 1 0
8.6 1 0
8.55 1 0
8.5 1 0
8.45 1 0
8.4 1 0
8.35 1 0
8.3 1 0
8.25 1 0
8.2 1 0
8.15 1 0
8.1 1 0
8.05 1 0
8 1 0
7.95 1 0
7.9 1 0
7.85 1 0
7.8 1 0
7.75 1 0
7.7 1 0
7.65 1 0
7.6 1 0
7.55 1 0
7.5 1 0
7.45 1 0
7.4 1 0
7.35 1 0
7.3 1 0
7.25 1 0
7.2 1 0
7.15 1 0
7.1 1 0
7.05 1 0
7 1 0
6.95 1 0
6.9 1 0
6.85 1 0
6.8 1 0
6.75 1 0
6.7 1 0
6.65 1 0
6.6 1 0
6.55 1 0
6.5 1 0
6.45 1 0
6.4 1 0
6.35 1 0
6.3 1 0
6.25 1 0
6.2 1 0
6.15 1 0
6.1 1 0
6.05 1 0
6 1 0
5.95 1 0
5.9 1 0
5.85 1 0
5.8 1 0
5.75 1 0
5.7 1 0
5.65 1 0
5.6 1 0
5.55 1 0
5.5 1 0
5.45 1 0
5.4 1 0
5.35 1 0
5.3 1 0
5.25 1 0
5.2 1 0
5.15 1 0
5.1 1 0
5.05 1 0
5 1 0
4.95 1 0
4.9 1 0
4.85 1 0
4.8 1 0
4.75 1 0
4.7 1 0
4.65 1 0
4.6 1 0
4.55 1 0
4.5 1 0
4.45 1 0
4.4 1 0
4.35 1 0
4.3 1 0
4.25 1 0
4.2 1 0
4.15 1 0
4.1 1 0
4.05 1 0
4 1 0
3.95 1 0
3.9 1 0
3.85 1 0
3.8 1 0
3.75 1 0
3.7 1 0
3.65 1 0
3.6 1 0
3.55 1 0
3.5 1 0
3.45 1 0
3.4 1 0
3.35 1 0
3.3 1 0
3.25 1 0
3.2 1 0
3.15 1 0
3.1 1 0
3.05 1 0
3 1 0
2.95 1 0
2.9 1 0
2.85 1 0
2.8 1 0
2.75 1 0
2.7 1 0
2.65 1 0
2.6 1 0
2.55 1 0
2.5 1 0
2.45 1 0
2.4 1 0
2.35 1 0
2.3 1 0
2.25 1 0
2.2 1 0
2.15 1 0
2.1 1 0
2.05 1 0
2 1 0
1.95 1 0
1.9 1 0
1.85 1 0
1.8 1 0
1.75 1 0
1.7 1 0
1.65 1 0
1.6 1 0
1.55 1 0
1.5 1 0
1.45 1 0
1.4 1 0
1.35 1 0
1.3 1 0
1.25 1 0
1.2 1 0
1.15 1 0
1.1 1 0
1.05 1 0
1 1 0
0.95 1 0
0.9 1 0
0.85 1 0
0.8 1 0
0.75 1 0
0.7 1 0
0.65 1 0
0.6 1 0
0.55 1 0
0.5 1 0
0.45 1 0
0.4 1 0
0.35 1 0
0.3 1 0
0.25 1 0
0.2 1 0
0.15 1 0
0.1 1 0
0.05 1 0
0 0.95 0
0 0.9 0
0 0.85 0
0 0.8 0
0 0.75 0
0 0.7 0
0 0.65 0
0 0.6 0
0 0.55 0
0.05 0.5 0
0.1 0.5 0
0.15 0.5 0
0.2 0.5 0
0.25 0.5 0
0.3 0.5 0
0.35 0.5 0
0.4 0.5 0
0.45 0.5 0
0.5 0.5 0
0.55 0.5 0
0.6 0.5 0
0.65 0.5 0
0.7 0.5 0
0.75 0.5 0
0.8 0.5 0
0.85 0.5 0
0.9 0.5 0
0.95 0.5 0
1 0.5 0
1.05 0.5 0
1.1 0.5 0
1.15 0.5 0
1.2 0.5 0
1.25 0.5 0
1.3 0.5 0
1.35 0.5 0
1.4 0.5 0
1.45 0.5 0
1.5 0.5 0
1.55 0.5 0
1.6 0.5 0
1.65 0.5 0
1.7 0.5 0
1.75 0.5 0
1.8 0.5 0
1.85 0.5 0
1.9 0.5 0
1.95 0.5 0
2 0.45 0
2 0.4 0
2 0.35 0
2 0.3 0
2 0.25 0
2 0.2 0
2 0.15 0
2 0.1 0
2 0.05 0
8.06901 0.0475538 0
8.325 0.0433013 0
8.5778 0.0458014 0
8.82429 0.0439083 0
9.07419 0.0439501 0
9.32668 0.0423312 0
2.52305 0.0454918 0
2.77689 0.0448719 0
3.03156 0.0475213 0
3.275 0.0433013 0
3.52783 0.046061 0
3.77734 0.0419476 0
4.02193 0.0449251 0
4.27574 0.0411379 0
4.51872 0.0475373 0
4.77366 0.0452037 0
5.02823 0.0477302 0
5.28216 0.0475085 0
5.52561 0.042443 0
5.77807 0.0457743 0
6.02204 0.0398462 0
6.275 0.0433013 0
6.52722 0.0433483 0
6.7694 0.0475769 0
7.02447 0.0444581 0
7.27783 0.0459092 0
7.525 0.0422557 0
7.77439 0.0449567 0
9.47482 0.955851 0
7.92156 0.955313 0
8.92621 0.955339 0
8.6726 0.954294 0
8.4177 0.952733 0
8.17636 0.955341 0
9.18107 0.952451 0
7.62679 0.954643 0
7.37196 0.952257 0
7.12614 0.955845 0
3.87534 0.956427 0
3.62815 0.964359 0
3.3803 0.953593 0
3.1253 0.955556 0
2.87002 0.954607 0
2.62024 0.955051 0
6.875 0.956699 0
6.62158 0.953907 0
6.37338 0.966022 0
6.12637 0.95588 0
5.87571 0.962803 0
5.63078 0.952434 0
5.37535 0.952003 0
5.12127 0.952304 0
4.86862 0.952521 0
4.62578 0.955705 0
4.37079 0.954984 0
4.12695 0.957826 0
9.9567 0.475 0
2.0433 0.475 0
9.5296 0.0476387 0
2.42792 0.954045 0
9.6779 0.95509 0
2.325 0.0433013 0
2.2283 0.953914 0
9.9567 0.675 0
9.9567 0.275 0
9.32845 0.954186 0
9.67655 0.0441506 0
7.92165 0.0458031 0
7.77434 0.95569 0
2.0433 0.325 0
2.04553 0.525 0
2.08697 0.5 0
1.87257 0.958837 0
1.625 0.956699 0
1.375 0.956699 0
1.12941 0.952349 0
0.87452 0.955201 0
0.619903 0.952393 0
0.37732 0.956691 0
2.08704 0.55 0
2.12994 0.525 0
0.775 0.542289 0
0.272435 0.545784 0
1.77201 0.544618 0
0.526526 0.544252 0
1.225 0.543301 0
1.47794 0.547751 0
1.025 0.543301 0
2.04598 0.575 0
1.62477 0.54405 0
0.227667 0.957986 0
2.12998 0.575 0
2.17322 0.55 0
2.17321 0.5 0
2.21651 0.525 0
2.21651 0.475 0
2.25981 0.5 0
2.25981 0.55 0
2.30311 0.525 0
2.30311 0.475 0
2.34641 0.5 0
2.34641 0.45 0
2.38971 0.475 0
2.38971 0.525 0
2.43301 0.5 0
2.43301 0.55 0
2.47631 0.525 0
2.47631 0.475 0
2.51962 0.5 0
2.51962 0.45 0
2.56292 0.475 0
2.56292 0.525 0
2.60622 0.5 0
2.60622 0.55 0
2.64952 0.525 0
2.64952 0.475 0
2.69282 0.5 0
2.69282 0.55 0
2.73612 0.525 0
2.73612 0.475 0
2.77942 0.5 0
2.77942 0.45 0
2.82272 0.475 0
2.82272 0.525 0
2.86603 0.5 0
2.86603 0.55 0
2.90933 0.525 0
2.90933 0.475 0
2.95263 0.5 0
2.95263 0.55 0
2.99593 0.525 0
2.99593 0.475 0
3.03923 0.5 0
3.03923 0.45 0
3.08253 0.475 0
3.08253 0.525 0
3.12583 0.5 0
3.12583 0.55 0
3.16913 0.525 0
3.16913 0.475 0
3.21244 0.5 0
3.21244 0.55 0
3.25574 0.525 0
3.25574 0.475 0
3.29904 0.5 0
3.29904 0.45 0
3.34234 0.475 0
3.34234 0.525 0
3.38564 0.5 0
3.38564 0.55 0
3.42894 0.525 0
3.42894 0.475 0
3.47224 0.5 0
3.47224 0.55 0
3.51554 0.525 0
3.51554 0.475 0
3.55885 0.5 0
3.55885 0.45 0
3.60215 0.475 0
3.60215 0.525 0
3.64545 0.5 0
3.64545 0.55 0
3.68875 0.525 0
3.68875 0.475 0
3.73205 0.5 0
3.73205 0.45 0
3.77535 0.475 0
3.77535 0.525 0
3.81865 0.5 0
3.81865 0.45 0
3.86195 0.475 0
3.86195 0.525 0
3.90526 0.5 0
3.90526 0.55 0
3.94856 0.525 0
3.94856 0.475 0
3.99186 0.5 0
3.99186 0.45 0
4.03516 0.475 0
4.03516 0.525 0
4.07846 0.5 0
4.07846 0.45 0
4.12176 0.475 0
4.12176 0.525 0
4.16506 0.5 0
4.16506 0.55 0
4.20836 0.525 0
4.20836 0.475 0
4.25167 0.5 0
4.25167 0.45 0
4.29497 0.475 0
4.29497 0.525 0
4.33827 0.5 0
4.33827 0.45 0
4.38157 0.475 0
4.38157 0.525 0
4.42487 0.5 0
4.42487 0.55 0
4.46817 0.525 0
4.46817 0.475 0
4.51147 0.5 0
4.51147 0.45 0
4.55477 0.475 0
4.55477 0.525 0
4.59808 0.5 0
4.59808 0.45 0
4.64138 0.475 0
4.64138 0.525 0
4.68468 0.5 0
4.68468 0.55 0
4.72798 0.525 0
4.72798 0.475 0
4.77128 0.5 0
4.77128 0.45 0
4.81458 0.475 0
4.81458 0.525 0
4.85788 0.5 0
4.85788 0.55 0
4.90119 0.525 0
4.90119 0.475 0
4.94449 0.5 0
4.94449 0.55 0
4.98779 0.525 0
4.98779 0.475 0
5.03109 0.5 0
5.03109 0.45 0
5.07439 0.475 0
5.07439 0.525 0
5.11769 0.5 0
5.11769 0.55 0
5.16099 0.525 0
5.16099 0.475 0
5.20429 0.5 0
5.20429 0.55 0
5.2476 0.525 0
5.2476 0.475 0
5.2909 0.5 0
5.2909 0.45 0
5.3342 0.475 0
5.3342 0.525 0
5.3775 0.5 0
5.3775 0.55 0
5.4208 0.525 0
5.4208 0.475 0
5.4641 0.5 0
5.4641 0.55 0
5.5074 0.525 0
5.5074 0.475 0
5.5507 0.5 0
5.5507 0.45 0
5.59401 0.475 0
5.59401 0.525 0
5.63731 0.5 0
5.63731 0.55 0
5.68061 0.525 0
5.68061 0.475 0
5.72391 0.5 0
5.72391 0.55 0
5.76721 0.525 0
5.76721 0.475 0
5.81051 0.5 0
5.81051 0.45 0
5.85381 0.475 0
5.85381 0.525 0
5.89711 0.5 0
5.89711 0.55 0
5.94042 0.525 0
5.94042 0.475 0
5.98372 0.5 0
5.98372 0.45 0
6.02702 0.475 0
6.02702 0.525 0
6.07032 0.5 0
6.07032 0.45 0
6.11362 0.475 0
6.11362 0.525 0
6.15692 0.5 0
6.15692 0.55 0
6.20022 0.525 0
6.20022 0.475 0
6.24352 0.5 0
6.24352 0.45 0
6.28683 0.475 0
6.28683 0.525 0
6.33013 0.5 0
6.33013 0.45 0
6.37343 0.475 0
6.37343 0.525 0
6.41673 0.5 0
6.41673 0.55 0
6.46003 0.525 0
6.46003 0.475 0
6.50333 0.5 0
6.50333 0.45 0
6.54663 0.475 0
6.54663 0.525 0
6.58993 0.5 0
6.58993 0.45 0
6.63324 0.475 0
6.63324 0.525 0
6.67654 0.5 0
6.67654 0.55 0
6.71984 0.525 0
6.71984 0.475 0
6.76314 0.5 0
6.76314 0.45 0
6.80644 0.475 0
6.80644 0.525 0
6.84974 0.5 0
6.84974 0.45 0
6.89304 0.475 0
6.89304 0.525 0
6.93634 0.5 0
6.93634 0.55 0
6.97965 0.525 0
6.97965 0.475 0
7.02295 0.5 0
7.02295 0.45 0
7.06625 0.475 0
7.06625 0.525 0
7.10955 0.5 0
7.10955 0.55 0
7.15285 0.525 0
7.15285 0.475 0
7.19615 0.5 0
7.19615 0.55 0
7.23945 0.525 0
7.23945 0.475 0
7.28275 0.5 0
7.28275 0.45 0
7.32606 0.475 0
7.32606 0.525 0
7.36936 0.5 0
7.36936 0.55 0
7.41266 0.525 0
7.41266 0.475 0
7.45596 0.5 0
7.45596 0.55 0
7.49926 0.525 0
7.49926 0.475 0
7.54256 0.5 0
7.54256 0.45 0
7.58586 0.475 0
7.58586 0.525 0
7.62917 0.5 0
7.62917 0.55 0
7.67247 0.525 0
7.67247 0.475 0
7.71577 0.5 0
7.71577 0.55 0
7.75907 0.525 0
7.75907 0.475 0
7.80237 0.5 0
7.80237 0.55 0
7.84567 0.525 0
7.84567 0.475 0
7.88897 0.5 0
7.88897 0.55 0
7.93227 0.525 0
7.93227 0.475 0
7.97558 0.5 0
7.97558 0.55 0
8.01888 0.525 0
8.01888 0.475 0
8.06218 0.5 0
8.06218 0.45 0
8.10548 0.475 0
8.10548 0.525 0
8.14878 0.5 0
8.14878 0.45 0
8.19208 0.475 0
8.19208 0.525 0
8.23538 0.5 0
8.23538 0.55 0
8.27868 0.525 0
8.27868 0.475 0
8.32199 0.5 0
8.32199 0.45 0
8.36529 0.475 0
[...]
CELL_DATA 8450
VECTORS velocity double
0.118003 -0.00140746 0
0.266304 -0.000376331 0
0.132535 0.000631514 0
0.189377 0.00142768 0
0.0584875 -0.00129764 0
0.100758 -0.00262477 0
0.300564 0.00109395 0
0.136091 -0.0013017 0
0.138049 0.00110274 0
-0.0218464 0.00169637 0
0.0983712 0.000948956 0
0.117545 -0.000203724 0
0.0980202 -0.00283211 0
0.304315 -0.00886733 0
-0.0794129 0.0046917 0
0.0963174 0.00189682 0
0.481324 -0.0115266 0
0.193912 9.79245e-05 0
-0.0129879 0.00445612 0
0.234129 -1.61296e-05 0
-0.0713187 -0.002702 0
0.231779 0.00171397 0
0.136686 0.000672541 0
0.0702732 -0.000383026 0
0.0690726 0.0010572 0
0.10969 0.000119462 0
0.137725 0.00118389 0
0.215075 -0.000866547 0
0.11522 0.000418558 0
0.114371 -0.00034655 0
0.13782 0.00181196 0
0.1165 0.00106858 0
0.133419 -0.00181631 0
0.0589405 0.000240949 0
0.0714905 0.000992123 0
0.113285 -0.00029161 0
0.116937 0.000307764 0
0.0411642 2.36734e-05 0
0.344028 -0.0108759 0
0.114914 -0.00123284 0
0.116743 0.00129781 0
0.139096 -0.000418473 0
0.100301 0.00239073 0
0.116852 5.06736e-05 0
0.140555 0.000655095 0
0.546783 -0.0104444 0
-0.0183353 0.00702337 0
0.210458 0.000677283 0
0.116243 -0.000236849 0
-0.0255615 -0.0056231 0
0.117759 0.000858294 0
0.047024 -0.00461981 0
0.455189 0.000733844 0
0.117608 0.000206997 0
0.193311 -0.00998659 0
-0.0889759 -0.00167165 0
0.438635 7.27176e-05 0
0.426552 -0.00470322 0
0.115139 -0.000411077 0
0.739266 -0.00181173 0
0.117091 -0.00125966 0
0.213094 0.000102087 0
-0.0793416 -0.00278625 0
0.114319 -0.000342346 0
0.0675567 -0.00101001 0
0.43066 0.00152665 0
0.0695692 -0.00148243 0
0.116683 0.000139186 0
0.115932 -0.000362647 0
0.0896021 0.000558218 0
0.217943 -0.00799877 0
-0.0612855 0.000983419 0
0.135789 -0.00135117 0
0.115614 -2.40712e-05 0
0.114576 -0.000773433 0
0.117579 -0.00351852 0
-0.0463496 0.00384548 0
0.137761 -0.00149281 0
-0.0831184 -0.000211984 0
0.212775 0.00141957 0
0.116476 0.000238208 0
0.103913 -0.00134352 0
0.106869 0.000487238 0
0.430695 0.00392351 0
0.11947 -0.00449307 0
-0.0613073 -0.00372191 0
0.4337 -0.00239236 0
0.0986829 0.000105024 0
0.11187 -0.000330909 0
0.115315 0.000259244 0
0.388492 -0.00689866 0
0.427849 -0.00120347 0
0.084457 0.00192987 0
0.108141 -0.000477966 0
0.136697 -0.000519994 0
0.731183 0.00132643 0
0.0593687 0.000121171 0
0.115668 0.000796761 0
0.138398 -0.000649138 0
0.0857673 -0.000519619 0
0.135477 -0.000791546 0
0.0716188 -0.000619453 0
0.505297 -0.00601163 0
0.137548 -0.00160462 0
0.36264 -0.0257599 0
0.254046 -0.00383131 0
0.135815 0.00128883 0
0.138036 -0.00136032 0
0.11863 -0.000375497 0
0.137492 0.00165882 0
0.0799493 0.00245648 0
0.100452 -0.00223502 0
0.213491 -0.000285865 0
0.0990904 -0.00243313 0
0.442854 7.08839e-05 0
0.114507 0.00135138 0
0.212767 0.000701286 0
0.497661 -0.00409916 0
0.114219 0.000343479 0
0.116372 -0.00027242 0
0.13364 0.000937963 0
0.136704 -0.000773708 0
0.114863 -0.000391993 0
0.0724598 -3.36808e-06 0
0.13695 0.00182842 0
0.115095 -0.000962886 0
0.059934 -0.000703438 0
0.130084 -0.00641199 0
0.11488 -0.00130622 0
0.43931 -0.0146798 0
0.137674 -4.22782e-05 0
0.0570788 -0.000598944 0
0.185315 -0.00419521 0
0.132904 0.00202057 0
0.214523 -0.000960749 0
0.272564 -0.00101587 0
0.936332 -0.00683069 0
0.407609 -0.0180585 0
0.53102 -0.00806674 0
0.213222 -0.000367779 0
0.0957806 0.0015972 0
0.036341 -0.000183761 0
-0.0515825 -0.0064081 0
0.508476 0.000127744 0
0.320152 0.000589484 0
0.728488 -0.00295329 0
0.864389 -0.00355424 0
0.157774 0.00242549 0
0.0592219 0.000873009 0
0.136133 0.000671497 0
-0.0282243 -0.00674968 0
0.0818753 -0.00617745 0
0.214117 -0.00120356 0
0.107859 -0.00105534 0
0.127274 -0.000221966 0
0.209734 0.000137551 0
0.137429 0.00132741 0
0.132753 1.58674e-05 0
-0.0729917 0.00104718 0
0.211229 -0.000715541 0
0.085048 0.000945679 0
0.0614864 -0.00873101 0
-0.0374893 0.00406235 0
-0.0930901 0.0018887 0
0.503958 -0.00586168 0
0.0339677 -0.000220683 0
0.137673 -0.00135925 0
0.13633 0.0016752 0
0.140371 0.00073959 0
-0.0117581 0.00111568 0
0.190172 0.00229915 0
0.745551 0.00192082 0
0.242074 -0.00339978 0
0.958373 -0.00753722 0
0.125919 -0.000734096 0
0.0841491 0.000541395 0
0.0976971 0.00260348 0
0.346272 -0.0136375 0
-0.0651543 0.00457503 0
0.404621 -0.00401428 0
0.137449 -0.00158604 0
0.324402 6.81482e-05 0
0.135162 -0.00127649 0
0.134901 0.000943972 0
0.127917 0.0017035 0
0.0585086 -0.000610334 0
0.51212 -0.00532877 0
0.406848 0.00741273 0
0.927172 -0.0102242 0
0.104219 0.00215879 0
0.134538 -0.0015252 0
0.0244589 -0.000495056 0
0.101031 0.00265917 0
0.136313 -0.00135398 0
0.505195 -0.00107923 0
0.212224 0.00212747 0
0.0727053 -0.000455523 0
0.0341799 0.000345732 0
0.137802 -0.000955296 0
0.101376 0.00220426 0
0.485587 0.00357864 0
0.134543 -0.00248869 0
0.136934 -0.00148119 0
0.135896 0.00121443 0
0.295427 -0.00189103 0
0.135733 0.000551168 0
0.13886 -0.000758317 0
0.502586 -0.00488036 0
0.0882131 -0.00317359 0
0.50281 0.0042904 0
0.386081 0.00959943 0
0.490276 -0.00249904 0
0.13649 0.00164081 0
0.505552 0.00544509 0
0.136158 -0.000388185 0
0.201467 -0.00118608 0
0.135785 0.0015946 0
0.0996558 0.0006549 0
0.136838 0.00121088 0
0.214958 -0.00151773 0
0.14052 0.00598363 0
0.087568 0.00248609 0
0.101476 -0.00215087 0
0.106303 0.00158108 0
0.0347158 0.00032506 0
0.104809 -0.000169663 0
0.18065 0.00169789 0
0.136909 0.000793915 0
0.39508 -0.0228491 0
0.0778219 -0.00194468 0
0.516875 0.00439057 0
0.331682 -0.0104159 0
-0.0710767 0.00477908 0
0.935472 -0.0037166 0
0.13416 0.00151209 0
0.736985 0.00160693 0
0.238571 -0.0149108 0
0.0341748 -0.000940339 0
0.140441 -0.00397034 0
0.0979518 -0.00205697 0
0.099588 0.00236654 0
0.0585771 -0.000557434 0
0.514054 0.000802596 0
-0.0556228 0.00579951 0
0.213677 0.00191987 0
0.824167 -5.81482e-05 0
0.020555 -0.000357665 0
0.132482 0.00049345 0
0.751247 0.000220377 0
0.989777 0.000134055 0
0.73969 -0.00229587 0
0.327877 0.00330188 0
0.0992022 0.00181185 0
0.137603 -0.00016828 0
0.033657 0.000694261 0
0.135209 -0.000178898 0
0.110043 0.000318669 0
-0.0903921 0.00145129 0
0.501795 0.00159974 0
-0.0926436 0.000614727 0
0.0322613 -0.000789162 0
0.133757 -0.000577201 0
0.91034 -0.000194143 0
0.134942 -0.00135246 0
0.139145 -0.000779765 0
0.141081 -0.00225631 0
0.136525 0.0025174 0
0.136245 -0.00147334 0
0.927565 -0.00227135 0
0.0914363 0.00154337 0
0.128698 -0.00159528 0
0.132564 -0.00245003 0
0.088244 0.00259007 0
0.123061 -0.00382104 0
0.510077 -0.0344274 0
0.133547 -0.00278875 0
0.0338464 -0.000667109 0
0.072379 -0.00510201 0
0.994092 0.000109407 0
0.913473 0.000175455 0
0.178856 -0.00237948 0
0.132905 -0.000632557 0
0.210703 -0.0105828 0
0.0846085 -0.000944304 0
0.50393 0.00257545 0
0.636395 0.00410395 0
0.260779 -0.000189489 0
0.136188 0.00119618 0
0.135208 0.000316516 0
0.132003 -0.00185199 0
0.132441 0.00265517 0
0.134518 -0.00245084 0
0.141 -0.00235476 0
-0.0629695 -0.00683559 0
0.49939 -0.00249895 0
0.0339297 -0.000597157 0
-0.0452134 -0.00216705 0
0.382859 -0.00790791 0
0.495438 -0.00257196 0
0.636411 -0.002681 0
0.206089 -0.00435985 0
0.115436 -0.00112309 0
0.0987382 -0.00141915 0
0.130951 0.00259477 0
0.480995 0.00212604 0
0.298189 0.00172418 0
0.135209 -0.00165797 0
0.856766 0.000331733 0
0.507816 -0.0071234 0
0.134694 -0.00039274 0
0.558977 -0.0193359 0
0.45218 -0.00968282 0
0.450599 -0.00407553 0
-0.0181175 -0.00105147 0
0.142839 -0.000848205 0
0.0988488 -0.00225636 0
0.498365 0.0056581 0
0.130926 -0.00151481 0
0.134414 0.00122486 0
0.105436 0.000152527 0
0.0346031 -0.00101467 0
0.0298006 0.000699257 0
0.0352745 -0.000874364 0
0.398536 -0.0227371 0
0.0359993 0.00122477 0
0.0355237 0.000975877 0
0.138031 0.000654854 0
0.132599 0.000791425 0
0.0869701 -0.00622301 0
0.115106 0.00234206 0
0.284112 0.00095043 0
0.107378 0.00133617 0
0.137334 0.000348619 0
0.309174 0.000261079 0
0.0554384 -0.00162455 0
0.146793 -0.00911832 0
-0.0688764 -0.0040931 0
0.503262 0.00294968 0
0.0856744 0.00174694 0
0.135312 -0.00176363 0
0.0514413 0.000482041 0
0.0553475 -0.000344237 0
0.0296177 5.08274e-05 0
0.226996 -0.0039492 0
0.0546037 -0.000325627 0
0.0556734 -0.000319285 0
0.0550197 0.000309668 0
0.0552491 0.000258316 0
0.0320491 0.000431559 0
0.055697 -0.000269176 0
0.0551321 0.000395026 0
0.362708 -0.012091 0
0.505559 0.00203821 0
0.0939003 -0.00295308 0
0.50847 -0.0353277 0
0.108436 0.00162231 0
0.139053 0.000586874 0
0.133177 0.00195825 0
0.821726 -0.00352425 0
0.645138 0.00923923 0
0.505519 0.000370209 0
0.839998 -0.000308006 0
0.179915 -0.00273448 0
0.138234 0.00044108 0
0.120028 -0.00114905 0
0.136754 0.000401387 0
0.133006 0.00100975 0
0.144076 -5.52932e-06 0
0.101097 0.00111632 0
0.124188 -0.00151897 0
0.950018 -0.0104016 0
0.100772 -0.00235214 0
0.31712 -0.0126741 0
-0.0740308 0.00409154 0
-0.0263245 -0.00211177 0
0.109163 -0.00397248 0
0.123645 0.00264245 0
0.197015 -0.0018846 0
0.238746 -0.0104864 0
-0.0914736 -0.00122148 0
0.128163 -0.00057105 0
0.110319 -0.00269143 0
0.238258 -0.00135393 0
0.294107 -0.0111341 0
-0.0825065 0.00400201 0
0.486406 0.00279095 0
0.122862 -0.00343475 0
0.502897 0.00191746 0
0.139682 -0.00087781 0
0.132303 0.000933074 0
0.13326 -0.00232674 0
0.170244 -0.0079977 0
0.145415 -0.00136488 0
0.0836471 -0.0034043 0
0.176424 0.0027224 0
0.735731 -0.00379802 0
-0.0499225 0.00560107 0
-0.0746811 -0.000780672 0
0.385039 0.00955723 0
0.179129 -0.00601162 0
-0.0857518 -0.00197683 0
0.499533 -0.00298254 0
0.108388 -0.00124997 0
0.290494 0.00011845 0
0.359135 0.00924584 0
0.0869058 0.000500286 0
0.132852 -0.00210873 0
0.186327 -0.00976044 0
0.512551 0.000268598 0
0.180375 -0.00226082 0
0.114572 -0.000746775 0
0.185711 -0.00126714 0
0.817311 -0.00764916 0
0.103099 -0.0228312 0
0.132974 -0.0023834 0
0.183846 0.000686107 0
-0.0302554 0.00632053 0
0.134111 -0.000522405 0
0.105047 0.00251789 0
0.132907 -0.00250328 0
0.134082 0.00242638 0
0.1338 0.00261935 0
0.134552 0.000796483 0
0.0847204 0.00315309 0
0.837196 -0.000833318 0
0.0599389 -0.000478697 0
1.00326 0.000214846 0
0.843718 -0.000467743 0
0.96324 0.000249175 0
0.134704 0.00227836 0
0.115806 0.00281531 0
0.142144 -0.00212696 0
0.490553 -0.0048047 0
0.133664 0.00268439 0
0.112708 0.00208956 0
0.138871 -0.00082946 0
0.499659 0.00050194 0
0.117741 -0.00432553 0
0.13418 -0.00119422 0
0.0689595 -0.000106193 0
-0.0109056 0.00636238 0
0.84236 0.000744895 0
0.83893 8.49428e-05 0
0.645821 0.000328827 0
0.633128 -0.00379991 0
0.248366 0.000639164 0
-0.0514865 0.00361196 0
0.135484 -0.00193427 0
0.133432 -0.000818076 0
0.0513934 0.000639943 0
0.0613661 -0.000660928 0
0.563879 -0.00734349 0
-0.0270049 0.00685701 0
0.641171 -0.00659394 0
0.0994601 0.00244283 0
0.0995728 -0.00281967 0
0.0913182 0.000747555 0
0.489393 -0.0356937 0
0.221734 -0.00712296 0
0.128852 0.000667646 0
0.636226 0.00585225 0
0.131499 0.000159781 0
0.11044 0.000481794 0
0.134459 0.000603132 0
0.0691686 -0.00291048 0
0.10736 0.00214502 0
0.0991447 -0.00226977 0
0.00726913 -0.00886142 0
0.963278 -0.000177051 0
0.999718 0.000129923 0
0.959959 -0.000272897 0
0.960033 0.000135099 0
0.841008 0.000388079 0
0.254082 -0.0107544 0
-0.0895017 0.00232906 0
0.49445 -0.00205866 0
0.424572 -0.0252899 0
0.135233 -0.00271409 0
0.228995 0.000128973 0
0.0622374 0.000533924 0
-0.0844578 -0.0029266 0
0.453194 -0.000453318 0
0.459853 0.000771987 0
0.246133 -0.00110437 0
0.264201 0.00278609 0
0.392141 -0.00178321 0
0.459701 0.000941351 0
0.451552 -0.000764292 0
0.497643 0.000343921 0
0.494823 -0.000406803 0
0.368011 -0.00111228 0
0.381569 0.00170855 0
0.499812 0.000397536 0
0.313833 0.0028533 0
0.329995 -0.000210817 0
0.416868 0.00233143 0
0.427619 0.000458418 0
0.484798 0.000803763 0
0.479465 0.00163496 0
0.477002 0.00146237 0
0.358378 -0.00177302 0
0.133393 0.00128791 0
0.0738587 -0.000929096 0
0.246056 0.000788039 0
0.180565 -0.00866851 0
0.156655 -0.00967999 0
0.511262 -0.0426875 0
0.144192 0.00062855 0
0.0617543 0.000735125 0
0.18272 0.00170623 0
0.510115 -0.00272908 0
0.143692 0.00241581 0
0.830184 0.000818946 0
0.691478 -0.00225947 0
0.1061 -0.00234932 0
0.377824 0.00639059 0
0.83448 -0.000278588 0
0.0911948 -0.000246119 0
0.859158 -0.00125528 0
0.464642 -0.0348505 0
0.0910336 0.00175157 0
0.100506 0.00225775 0
0.100074 -0.00189007 0
0.135979 -0.00295247 0
0.322132 -0.00133275 0
0.916638 -0.00144802 0
0.907904 -0.000437007 0
0.144587 -0.00117326 0
0.261291 -0.00242556 0
0.098768 -0.00220418 0
0.100929 0.00240702 0
0.23402 -0.0122754 0
0.13263 0.000540298 0
0.115022 0.00248746 0
0.158836 -0.00397627 0
0.140723 0.00296132 0
0.609064 -0.00566616 0
0.10314 0.0026834 0
0.104913 0.00239454 0
0.275761 -0.00343054 0
0.384543 -0.00970442 0
0.139086 -0.00184911 0
0.252765 0.00152918 0
0.745101 -0.000666465 0
0.347148 0.000577246 0
0.402642 0.000167942 0
0.500868 0.00027128 0
0.13599 0.00204248 0
0.481595 0.000197801 0
0.260209 -0.00663229 0
0.420486 -0.00995787 0
0.561854 -0.00295737 0
0.242789 -0.0140226 0
0.0722985 0.00244779 0
0.100231 -0.0024799 0
0.0938853 0.000804123 0
0.101066 -0.000640562 0
0.0604951 1.99972e-06 0
0.101412 -0.00163575 0
0.109731 0.00205143 0
0.398546 -0.00484231 0
0.100036 -0.000844577 0
0.102221 -0.000328921 0
0.101364 0.000441023 0
0.101114 0.000923407 0
0.0622222 0.00108164 0
0.10228 -0.000388816 0
0.101817 0.000871144 0
0.291505 -0.000124109 0
0.180724 0.00252706 0
0.138524 -0.000270812 0
0.0539881 -0.00694885 0
0.321401 3.16321e-05 0
0.0989868 -0.00212653 0
0.136284 0.00242044 0
0.177776 0.000201185 0
0.139099 0.00217905 0
0.0904251 -0.00190357 0
0.0716212 -0.00559765 0
0.489289 0.000687467 0
0.113131 -0.0242297 0
0.395626 -0.0109394 0
0.238634 -0.00894972 0
-0.0537241 0.00119046 0
0.956985 -0.00475758 0
0.17014 0.00327525 0
0.112048 -0.00180248 0
-0.0205806 -0.00865596 0
0.144996 0.000992248 0
0.142056 -0.00196441 0
0.107076 -0.00205502 0
0.180568 -0.00228496 0
0.18092 -0.00174142 0
0.111158 -0.000354293 0
0.140723 0.00189061 0
0.132009 0.00257789 0
0.401722 -0.028101 0
0.134915 -0.00157075 0
0.529422 0.0031306 0
0.136466 0.00138197 0
0.139405 0.00194025 0
0.49435 0.000434799 0
0.144819 0.00163087 0
0.387028 -0.012519 0
0.140265 0.00158576 0
0.128741 -1.64091e-05 0
0.519802 0.0042908 0
0.0960142 6.85966e-05 0
0.523058 -0.00536646 0
0.822903 0.000736768 0
0.14148 -0.00191246 0
0.862877 -0.00174188 0
0.140999 -0.00179793 0
0.164808 -0.00590391 0
-0.0918202 -0.00155807 0
0.517093 -0.000589848 0
-0.0728231 0.00235609 0
0.376179 -0.00414172 0
0.107238 0.00319426 0
0.138799 -0.00186197 0
0.255317 0.00029297 0
0.121389 -0.00483524 0
-0.0636314 0.00496428 0
0.0821107 -0.00145685 0
0.660833 -0.00391793 0
0.139844 -0.000162202 0
0.297696 -0.0167061 0
0.140078 -0.0019347 0
0.179671 0.000115325 0
0.180753 0.000851077 0
-0.0749934 -0.00517728 0
0.519062 -0.00608832 0
0.956601 -0.00367055 0
-0.0946597 0.00148264 0
0.518559 -0.00566531 0
0.120974 -0.000902999 0
0.140852 0.00235132 0
0.0984393 0.00224245 0
0.136895 -0.00244249 0
0.14151 0.00211533 0
0.135569 0.00231106 0
0.139343 -0.00218869 0
0.130344 0.000379722 0
0.55383 -0.0208886 0
0.456374 -0.0148851 0
0.479514 -0.00819578 0
0.114771 0.00320812 0
0.136432 -0.00239304 0
0.139374 -0.00849469 0
-0.0561839 -0.0062554 0
0.515444 0.00391035 0
0.248893 -0.00184419 0
0.324647 0.00103088 0
0.248757 0.00067419 0
0.141723 -0.00180697 0
0.10033 0.00211353 0
0.0890571 0.00216036 0
0.109195 -0.00205106 0
0.182749 0.000366759 0
0.478814 -0.0141019 0
0.906398 0.000740112 0
0.326744 -0.0174673 0
0.011418 -0.00978351 0
0.0642793 -0.000596313 0
0.0928093 0.0010234 0
0.17329 -0.00168106 0
0.62637 0.00101293 0
0.640717 -0.000801745 0
0.187975 -0.000257176 0
0.177522 0.00047535 0
0.907368 -0.000395813 0
0.0559993 -0.00122217 0
0.259586 0.000167617 0
0.28916 0.000104521 0
0.449379 -0.0336006 0
0.0520541 -0.00394596 0
0.960173 -0.000190459 0
0.0562371 -0.000763168 0
0.141502 -0.000425029 0
0.907867 0.000161053 0
0.455097 -0.0143974 0
-0.0191918 0.00373549 0
0.097923 0.0021095 0
0.852223 -0.000518681 0
0.0880901 0.000514481 0
0.290757 0.000154069 0
0.179075 4.55258e-05 0
0.181968 0.00123748 0
0.0986417 -0.00190206 0
0.218114 0.000210138 0
0.289545 5.14866e-05 0
0.104153 0.000806734 0
0.666174 -0.0101721 0
0.137005 0.00142205 0
0.179425 0.000418 0
0.178939 -0.00034827 0
0.430783 -0.0208899 0
-0.091578 0.00691184 0
0.378083 0.0092049 0
0.321217 -0.000139721 0
0.0473526 -0.00124051 0
0.0556631 0.00135053 0
0.180587 -0.000492348 0
0.106839 -0.00189314 0
0.180465 0.00126987 0
0.260433 0.000355312 0
0.749334 -0.000102089 0
0.136709 0.00240949 0
0.839409 -0.000717745 0
0.181922 2.7431e-05 0
-0.0732136 -0.000652936 0
0.841591 -0.000255574 0
0.960483 -0.000283845 0
0.909985 -0.000235591 0
0.960443 0.000225101 0
0.64921 0.000596838 0
0.211458 -0.00293279 0
0.129687 0.00246502 0
0.127656 0.00172866 0
0.190844 -0.000361266 0
0.110842 0.00202113 0
0.319926 -0.0174794 0
0.483939 -0.0197954 0
0.0540708 0.00089006 0
0.90885 0.000436383 0
0.0573592 -0.000370139 0
0.098526 0.00184798 0
0.186239 0.000337535 0
0.111451 0.00165116 0
0.742409 0.000180701 0
0.641502 -0.00240837 0
0.747202 6.43481e-05 0
0.192674 0.000230789 0
0.178466 -0.000372845 0
0.187432 0.000993727 0
0.948972 -0.0159541 0
0.989901 0.0002396 0
0.993185 0.000230648 0
0.91348 0.000584994 0
0.250709 -0.00390142 0
0.216839 0.000229164 0
0.138652 0.00213202 0
0.150621 -0.00359438 0
0.171106 -0.00839867 0
0.247683 0.00278864 0
0.0660629 -0.000603824 0
0.322289 -0.000544244 0
0.123102 -0.00955703 0
0.137327 -0.000324584 0
0.126797 0.000786528 0
0.249231 -7.09875e-05 0
0.183244 0.000304484 0
0.218558 -0.00018861 0
0.957323 5.66719e-05 0
0.074308 0.00176314 0
0.639033 -0.000756745 0
0.637439 -0.00140444 0
0.264193 -0.012344 0
0.257863 0.000176275 0
0.14708 -0.000151613 0
0.839133 -0.000981394 0
0.508313 -0.00516279 0
0.0669694 0.00197806 0
0.319105 -0.00748258 0
0.0978176 -0.00193549 0
0.323027 -0.00563483 0
0.520088 0.00293448 0
0.322088 -0.00623486 0
0.354118 -0.00833336 0
0.284802 -0.00591686 0
0.283505 -0.00525279 0
0.288524 -6.7651e-06 0
0.254786 -0.000144722 0
0.288664 4.45277e-05 0
0.417777 -0.0100361 0
0.418417 -0.00908414 0
0.386154 -0.0097056 0
0.285986 -0.00537862 0
0.990635 -0.000274163 0
0.957551 -0.000376295 0
0.749999 -0.000715244 0
0.987439 -0.000189662 0
0.904544 -0.000452238 0
0.841639 0.000385884 0
0.254627 0.000561422 0
0.960554 -0.000547421 0
0.213659 0.00107914 0
0.922539 -0.0195488 0
0.963353 -0.0144318 0
0.839443 0.000285954 0
0.959285 -0.00174365 0
0.288656 0.00047435 0
0.956519 -0.001253 0
0.918617 -0.0133624 0
0.95794 -0.000584781 0
0.212673 -0.000851695 0
0.500971 0.000173144 0
0.913902 -0.0112285 0
0.502531 0.000213416 0
0.849365 -0.00828035 0
0.440349 0.000273202 0
0.752522 -0.00691387 0
0.990881 -0.000535758 0
0.349321 0.000205748 0
0.911565 -0.0011351 0
0.987612 -0.000455884 0
0.375866 0.000202964 0
0.320333 0.000163488 0
0.39985 0.000232782 0
0.985981 -0.00170036 0
0.96069 -0.000846757 0
0.375683 0.000300632 0
0.963588 -0.00624438 0
0.376618 0.000146023 0
0.456619 0.000280837 0
0.375761 0.000219303 0
0.988909 -0.00125364 0
0.288436 0.000137841 0
0.85276 -0.00608473 0
0.96033 -0.00557471 0
0.376529 3.58364e-05 0
0.966527 -0.015975 0
0.212798 0.00041757 0
0.181586 0.000655552 0
0.482231 6.66568e-05 0
0.350148 0.00016121 0
0.986382 -0.000849534 0
0.837437 -0.000187567 0
0.256142 -0.000158177 0
0.255893 0.000613598 0
0.254175 -0.000207377 0
0.255039 0.000323195 0
0.289791 -0.000122911 0
0.420509 -0.000234123 0
0.499462 0.000749619 0
0.255789 0.000372177 0
0.213419 -0.000831068 0
0.907254 -0.000435773 0
0.220008 0.000935215 0
0.491343 0.000113012 0
0.421195 0.000252611 0
0.482466 5.05948e-05 0
0.255935 0.000129996 0
0.954985 -0.000907462 0
0.214961 0.00101906 0
0.288608 0.000638836 0
0.140348 0.00080116 0
0.286569 0.000299428 0
0.989411 -0.000786333 0
0.457266 -2.58357e-05 0
0.90748 -0.000456943 0
0.21415 -0.000830048 0
0.910473 -0.000309006 0
0.28966 -0.000136008 0
0.918366 -0.0179227 0
0.413586 0.0003684 0
0.916694 -0.00527003 0
0.320083 4.71871e-05 0
0.322597 -0.000368288 0
0.41361 -0.000320416 0
0.839638 -0.0015416 0
0.219657 -0.000453056 0
0.914975 -0.0065906 0
0.439707 0.000253878 0
0.470551 0.000198216 0
0.492098 0.000113786 0
0.95744 -0.00140463 0
-0.0612871 0.014714 0
0.483486 8.09066e-05 0