# vtk DataFile Version 3.0
Malha 2D com triângulos e temperatura
ASCII
DATASET UNSTRUCTURED_GRID

POINTS 627 double
0.5 0 0
10 0 0
10 1 0
0 1 0
0 0.5 0
0.5 0.5 0
0.648437 0 0
0.796875 0 0
0.945312 0 0
1.09375 0 0
1.24219 0 0
1.39062 0 0
1.53906 0 0
1.6875 0 0
1.83594 0 0
1.98437 0 0
2.13281 0 0
2.28125 0 0
2.42969 0 0
2.57812 0 0
2.72656 0 0
2.875 0 0
3.02344 0 0
3.17187 0 0
3.32031 0 0
3.46875 0 0
3.61719 0 0
3.76562 0 0
3.91406 0 0
4.0625 0 0
4.21094 0 0
4.35937 0 0
4.50781 0 0
4.65625 0 0
4.80469 0 0
4.95312 0 0
5.10156 0 0
5.25 0 0
5.39844 0 0
5.54687 0 0
5.69531 0 0
5.84375 0 0
5.99219 0 0
6.14062 0 0
6.28906 0 0
6.4375 0 0
6.58594 0 0
6.73437 0 0
6.88281 0 0
7.03125 0 0
7.17969 0 0
7.32812 0 0
7.47656 0 0
7.625 0 0
7.77344 0 0
7.92187 0 0
8.07031 0 0
8.21875 0 0
8.36719 0 0
8.51562 0 0
8.66406 0 0
8.8125 0 0
8.96094 0 0
9.10937 0 0
9.25781 0 0
9.40625 0 0
9.55469 0 0
9.70312 0 0
9.85156 0 0
10 0.142857 0
10 0.285714 0
10 0.428571 0
10 0.571429 0
10 0.714286 0
10 0.857143 0
9.85075 1 0
9.70149 1 0
9.55224 1 0
9.40299 1 0
9.25373 1 0
9.10448 1 0
8.95522 1 0
8.80597 1 0
8.65672 1 0
8.50746 1 0
8.35821 1 0
8.20896 1 0
8.0597 1 0
7.91045 1 0
7.76119 1 0
7.61194 1 0
7.46269 1 0
7.31343 1 0
7.16418 1 0
7.01493 1 0
6.86567 1 0
6.71642 1 0
6.56716 1 0
6.41791 1 0
6.26866 1 0
6.1194 1 0
5.97015 1 0
5.8209 1 0
5.67164 1 0
5.52239 1 0
5.37313 1 0
5.22388 1 0
5.07463 1 0
4.92537 1 0
4.77612 1 0
4.62687 1 0
4.47761 1 0
4.32836 1 0
4.1791 1 0
4.02985 1 0
3.8806 1 0
3.73134 1 0
3.58209 1 0
3.43284 1 0
3.28358 1 0
3.13433 1 0
2.98507 1 0
2.83582 1 0
2.68657 1 0
2.53731 1 0
2.38806 1 0
2.23881 1 0
2.08955 1 0
1.9403 1 0
1.79104 1 0
1.64179 1 0
1.49254 1 0
1.34328 1 0
1.19403 1 0
1.04478 1 0
0.895522 1 0
0.746269 1 0
0.597015 1 0
0.447761 1 0
0.298507 1 0
0.149254 1 0
0 0.875 0
0 0.75 0
0 0.625 0
0.125 0.5 0
0.25 0.5 0
0.375 0.5 0
0.5 0.375 0
0.5 0.25 0
0.5 0.125 0
9.87628 0.5 0
9.3252 0.137839 0
8.88821 0.130313 0
8.45143 0.139287 0
8.01034 0.139467 0
7.55156 0.114709 0
7.09867 0.131588 0
6.63914 0.126938 0
6.20275 0.125836 0
5.76473 0.124784 0
5.32478 0.128522 0
4.87639 0.110285 0
4.44082 0.118367 0
3.99267 0.110023 0
3.5337 0.141155 0
3.09495 0.127932 0
2.63441 0.123598 0
2.20141 0.121056 0
1.76115 0.125347 0
1.32602 0.132448 0
0.984858 0.869514 0
0.610109 0.436579 0
1.58616 0.860636 0
2.01836 0.868049 0
2.46269 0.870742 0
2.89768 0.856444 0
3.37957 0.850976 0
3.81375 0.872695 0
4.24154 0.885204 0
4.71221 0.879621 0
5.15525 0.873493 0
5.59703 0.875348 0
6.04276 0.877788 0
6.47556 0.869651 0
6.91861 0.866008 0
7.39252 0.863864 0
7.83539 0.873555 0
8.28046 0.870625 0
8.72929 0.882823 0
9.1791 0.870742 0
1.26993 0.87535 0
9.47761 0.870742 0
1.02045 0.124275 0
0.609319 0.564345 0
0.7246 0.500472 0
9.62891 0.128551 0
0.3125 0.608253 0
0.722819 0.370188 0
0.841139 0.432407 0
0.723435 0.638699 0
0.519721 0.873513 0
9.77859 0.861407 0
0.216125 0.87115 0
0.608583 0.19057 0
9.88922 0.216466 0
0.843726 0.29515 0
0.96037 0.36077 0
0.963482 0.501423 0
1.08755 0.423611 0
1.08797 0.571465 0
1.21232 0.497657 0
0.117887 0.685919 0
0.498086 0.628286 0
1.20891 0.353473 0
1.33698 0.42372 0
1.33769 0.570678 0
1.46308 0.491719 0
1.46259 0.347348 0
1.59158 0.418833 0
1.59455 0.56572 0
1.72134 0.491207 0
1.72719 0.639517 0
1.85152 0.56383 0
1.84876 0.415525 0
1.97855 0.487875 0
1.97633 0.339364 0
2.10611 0.411733 0
2.10821 0.560387 0
2.23595 0.484181 0
2.23804 0.632973 0
2.36583 0.556705 0
2.36369 0.407933 0
2.49358 0.480428 0
2.49062 0.333096 0
2.6204 0.405792 0
2.62335 0.55321 0
2.75109 0.476952 0
2.75342 0.625571 0
2.88122 0.549194 0
2.87895 0.400373 0
3.00899 0.472781 0
3.00948 0.618636 0
3.13758 0.542791 0
3.13763 0.397885 0
3.26551 0.466735 0
3.26556 0.321858 0
3.39446 0.392458 0
3.39696 0.540625 0
3.52455 0.464735 0
3.52893 0.613533 0
3.6549 0.537195 0
3.65231 0.388409 0
3.7823 0.460788 0
3.13773 0.714719 0
3.77928 0.313198 0
3.90919 0.385717 0
3.91214 0.533388 0
4.03983 0.456972 0
4.04227 0.605634 0
4.16998 0.529122 0
4.16762 0.380317 0
4.29771 0.452591 0
4.30092 0.599933 0
4.42797 0.524643 0
4.43121 0.672001 0
4.55813 0.596879 0
4.55553 0.448322 0
4.68566 0.520597 0
4.68319 0.371848 0
4.81329 0.444112 0
4.81574 0.592932 0
4.94342 0.516385 0
4.9458 0.665268 0
5.07033 0.583437 0
5.07055 0.438953 0
5.19745 0.505825 0
5.19802 0.362088 0
5.32811 0.434243 0
5.3165 0.599487 0
5.4543 0.506576 0
5.45642 0.358883 0
5.5858 0.430878 0
5.58925 0.568647 0
5.71665 0.501328 0
5.71405 0.636984 0
5.84604 0.572576 0
5.8442 0.425792 0
5.97439 0.498297 0
5.97188 0.349754 0
6.10207 0.421956 0
6.10468 0.570771 0
6.23229 0.49414 0
6.2349 0.643007 0
6.36249 0.566292 0
6.35987 0.417473 0
6.49005 0.489574 0
6.48712 0.341269 0
6.61727 0.413405 0
6.62018 0.561759 0
6.74772 0.485036 0
6.75045 0.633817 0
6.87802 0.557023 0
6.87531 0.408214 0
7.00558 0.48023 0
7.00971 0.626526 0
7.13612 0.55184 0
7.14028 0.69812 0
7.26649 0.623741 0
7.26345 0.475376 0
7.39376 0.547365 0
7.39096 0.398629 0
7.52124 0.470624 0
7.52399 0.619474 0
7.65149 0.542623 0
7.64871 0.393824 0
7.77894 0.465774 0
7.77595 0.317323 0
7.90617 0.389281 0
7.90916 0.537777 0
8.0366 0.460921 0
8.03948 0.609706 0
8.16694 0.53279 0
8.16407 0.384003 0
8.2944 0.455874 0
8.29864 0.602218 0
8.42499 0.527347 0
8.42927 0.673676 0
8.55542 0.599103 0
8.55223 0.450746 0
8.68259 0.522587 0
8.67962 0.373877 0
8.80996 0.445721 0
8.81288 0.594542 0
8.94032 0.517577 0
8.94327 0.666442 0
9.06695 0.583218 0
9.06711 0.439583 0
9.19356 0.504959 0
9.1942 0.3623 0
9.32427 0.434071 0
9.32675 0.569154 0
9.45792 0.498112 0
9.44963 0.36208 0
9.58126 0.429609 0
9.58807 0.570007 0
7.6529 0.689174 0
5.06739 0.291169 0
7.26168 0.328253 0
5.83156 0.734154 0
5.58398 0.282324 0
9.06668 0.295021 0
0.96112 0.637198 0
3.6556 0.683277 0
2.62784 0.697907 0
8.28952 0.310714 0
1.07316 0.73116 0
1.58948 0.271685 0
1.85098 0.707931 0
7.00881 0.339043 0
6.87999 0.253808 0
4.29177 0.303438 0
3.90684 0.672109 0
4.03335 0.755362 0
8.55799 0.745174 0
4.16358 0.238402 0
4.54351 0.312603 0
4.66344 0.229329 0
6.62805 0.707319 0
6.76788 0.781099 0
7.38706 0.259818 0
3.52904 0.76259 0
8.53854 0.277602 0
8.67223 0.238155 0
2.36479 0.267645 0
6.36161 0.276114 0
6.38113 0.734183 0
6.25375 0.775419 0
8.15514 0.235205 0
7.91111 0.677806 0
8.05245 0.758312 0
6.49515 0.203384 0
3.39548 0.242242 0
2.37761 0.729427 0
2.24064 0.770744 0
4.55475 0.736063 0
4.44722 0.821643 0
6.11503 0.257189 0
5.97933 0.223529 0
2.75856 0.771358 0
1.72552 0.78383 0
2.49394 0.197379 0
3.25698 0.157289 0
4.80097 0.75348 0
4.93608 0.821326 0
7.52672 0.767551 0
9.70649 0.501261 0
9.69583 0.642024 0
9.69681 0.358379 0
9.5714 0.72344 0
2.11813 0.248921 0
1.97909 0.183589 0
9.08461 0.738703 0
8.95037 0.820123 0
7.66752 0.849914 0
9.19231 0.220039 0
2.62074 0.856256 0
7.25627 0.156893 0
1.46505 0.20699 0
8.28907 0.156017 0
0.369426 0.87423 0
0.310544 0.740563 0
5.18662 0.215404 0
3.64993 0.239686 0
3.77336 0.169361 0
8.43198 0.844618 0
5.46423 0.212966 0
7.26893 0.773269 0
1.85846 0.860737 0
1.12807 0.87378 0
0.667186 0.874914 0
0.597076 0.727125 0
0.828937 0.852648 0
9.04978 0.140208 0
7.14866 0.837429 0
1.16644 0.124409 0
1.08962 0.262193 0
0.857821 0.146177 0
3.65661 0.850323 0
7.63251 0.234981 0
7.77326 0.168343 0
9.62753 0.871125 0
9.43712 0.747606 0
9.33139 0.834394 0
9.22008 0.751838 0
1.42116 0.870213 0
1.48478 0.762094 0
9.56765 0.268076 0
1.34052 0.729941 0
9.31986 0.292668 0
9.48273 0.12859 0
7.51189 0.329293 0
5.32644 0.286691 0
4.04107 0.318092 0
8.42196 0.378898 0
7.1343 0.404971 0
4.42227 0.380437 0
6.22977 0.345336 0
3.52507 0.311448 0
8.93974 0.372683 0
4.94256 0.370609 0
6.74483 0.341052 0
8.02914 0.308475 0
8.81316 0.274407 0
4.80753 0.307382 0
5.83727 0.260085 0
5.71428 0.354386 0
1.8378 0.249596 0
2.74491 0.335584 0
2.87671 0.251555 0
3.01086 0.332254 0
2.24077 0.341297 0
3.05966 0.870765 0
3.21307 0.863006 0
3.28215 0.743281 0
5.29949 0.871243 0
5.23411 0.742158 0
5.3749 0.742309 0
5.44822 0.871748 0
5.5252 0.762916 0
5.89697 0.875702 0
5.7483 0.875696 0
1.71893 0.343462 0
5.04439 0.135707 0
6.95518 0.121859 0
4.28751 0.145352 0
5.60363 0.134791 0
8.68158 0.664322 0
5.97236 0.644492 0
2.49576 0.629188 0
8.17893 0.67134 0
6.89069 0.704514 0
4.17118 0.670427 0
2.88349 0.697986 0
2.10014 0.729492 0
3.78145 0.604736 0
4.67969 0.662031 0
6.49271 0.638368 0
7.3954 0.699211 0
7.77998 0.610443 0
1.9805 0.63641 0
8.80465 0.756802 0
6.1095 0.734983 0
1.33701 0.283132 0
9.88043 0.357237 0
9.88014 0.64258 0
5.08024 0.743753 0
1.2102 0.644263 0
0.103605 0.807634 0
0.439462 0.750743 0
3.95707 0.882883 0
6.80447 0.120261 0
1.6008 0.131146 0
7.89548 0.238987 0
8.13239 0.883223 0
0.609604 0.311282 0
2.7983 0.119239 0
6.61981 0.274168 0
2.94833 0.118451 0
0.703706 0.111429 0
6.63707 0.859072 0
0.842306 0.569423 0
0.837411 0.702623 0
6.364 0.131996 0
4.58426 0.109524 0
9.78076 0.137743 0
3.91923 0.229763 0
9.89125 0.780405 0
6.33184 0.880681 0
2.61598 0.2655 0
2.36156 0.127215 0
4.30314 0.762546 0
8.5942 0.1274 0
4.10234 0.885772 0
0.190293 0.593004 0
7.13631 0.264252 0
3.40389 0.687987 0
3.13618 0.258568 0
7.98467 0.885303 0
8.58682 0.879838 0
3.26523 0.609655 0
4.58026 0.868261 0
7.41143 0.121871 0
6.05312 0.11971 0
7.78537 0.749554 0
8.30837 0.738634 0
7.02541 0.771558 0
2.15406 0.878437 0
3.39472 0.10969 0
0.7258 0.759112 0
2.32273 0.878278 0
0.94955 0.234368 0
8.74773 0.12373 0
4.83015 0.890885 0
0.716111 0.245352 0
3.77838 0.742576 0
2.99761 0.75171 0
3.50746 0.892043 0
4.92986 0.235274 0
8.14453 0.10651 0
1.61834 0.715396 0
4.13327 0.11112 0
2.08316 0.110713 0
4.73047 0.104768 0
5.4784 0.643858 0
8.3981 0.252503 0
8.95151 0.242526 0
7.53228 0.896266 0
1.45967 0.625869 0
9.69385 0.235693 0
9.05476 0.885914 0
5.67168 0.768972 0
1.20266 0.768201 0
2.51257 0.754942 0
4.40935 0.251625 0
9.69404 0.76228 0
5.69764 0.230639 0
2.76085 0.898772 0
5.97063 0.773424 0
6.79104 0.900864 0
3.66796 0.110041 0
1.96169 0.760524 0
9.43238 0.239203 0
1.87967 0.111706 0
7.25754 0.894912 0
5.18147 0.0959265 0
1.22248 0.234816 0
9.18445 0.0961069 0
5.9005 0.116628 0
6.19403 0.904833 0
8.8491 0.89195 0
[...]
CELL_DATA 1102
VECTORS velocity double
0.488294 0.0587778 0.0
0.0901528 0.000924456 0.0
0.271413 -0.00123977 0.0
0.372816 -0.000360821 0.0
0.296745 -0.000434007 0.0
0.00872746 -0.0272543 0.0
0.790189 -0.172173 0.0
0.330743 0.000823268 0.0
0.382046 -0.0949658 0.0
0.310335 0.00838872 0.0
0.536731 -0.0485446 0.0
-0.0332692 0.00356035 0.0
0.328803 0.00759812 0.0
0.365794 -0.000605769 0.0
0.104579 -0.00137904 0.0
0.131881 0.0011541 0.0
0.299153 -0.000789831 0.0
0.812538 -0.14992 0.0
0.607333 -0.0468103 0.0
0.489885 -0.0629592 0.0
0.1631 -0.00432457 0.0
0.334523 0.00389071 0.0
0.307096 0.00459566 0.0
0.18826 -0.00139023 0.0
0.367648 0.0093629 0.0
0.564591 -0.0872804 0.0
0.13589 0.000264786 0.0
0.270179 -0.000180954 0.0
0.113237 -0.00186737 0.0
0.122549 -0.000761445 0.0
0.310438 0.00180282 0.0
0.358407 0.000529444 0.0
0.111606 -0.00255109 0.0
0.245296 -0.00364914 0.0
0.436589 -0.000974951 0.0
0.359519 0.00149378 0.0
0.327214 -0.15449 0.0
0.30742 0.00282032 0.0
0.159829 0.000604649 0.0
0.35444 0.00163004 0.0
0.289611 0.00124111 0.0
0.149628 -0.00214436 0.0
0.131473 0.000401084 0.0
0.149555 0.00115514 0.0
0.269771 -0.000378792 0.0
0.366899 -0.000188305 0.0
0.104745 -9.76446e-05 0.0
0.481703 -0.0405119 0.0
0.350687 0.00297359 0.0
0.154014 -0.000109781 0.0
0.345534 0.00500107 0.0
0.359287 0.000288987 0.0
0.199467 0.0015255 0.0
0.283108 0.00169413 0.0
0.329188 -0.00842371 0.0
0.200712 -0.00854662 0.0
0.297513 -0.00215431 0.0
0.300739 0.00342982 0.0
0.266447 0.000456389 0.0
0.310558 0.0103092 0.0
0.157863 -0.000372111 0.0
0.338893 0.00227209 0.0
0.449328 -0.00196968 0.0
0.461878 -0.0388246 0.0
0.375697 -0.000229898 0.0
0.28685 -0.00408386 0.0
0.904899 -0.0958178 0.0
0.535848 -0.0898929 0.0
0.174286 3.80111e-05 0.0
0.303117 0.00392079 0.0
0.186571 0.00543984 0.0
0.159927 0.00150463 0.0
0.36943 0.000609157 0.0
0.339091 0.00083023 0.0
0.294468 -0.000239466 0.0
0.152717 -0.00480992 0.0
0.334963 -0.137304 0.0
0.315361 0.00394277 0.0
0.291542 -0.000865782 0.0
0.154715 0.00151356 0.0
0.367055 0.000962047 0.0
0.178015 -0.000505034 0.0
0.241998 0.00938373 0.0
0.18062 -0.00217516 0.0
0.180575 -0.00183933 0.0
0.113563 -0.000987502 0.0
0.277998 0.00568371 0.0
0.154231 -0.000138633 0.0
0.333065 0.00447542 0.0
0.290987 -0.00210651 0.0
0.294772 0.000439022 0.0
0.871249 -0.0745441 0.0
0.155452 0.00606593 0.0
0.36146 -0.0126209 0.0
0.0940589 0.00137169 0.0
0.32843 -0.00581582 0.0
0.69361 -0.123908 0.0
0.420979 0.00276643 0.0
0.524139 -0.0766774 0.0
0.275817 -0.00482628 0.0
0.140477 0.000333405 0.0
0.190522 -0.000843524 0.0
0.2858 -0.00290761 0.0
0.177232 0.000508609 0.0
0.183558 0.00918699 0.0
0.793948 -0.157311 0.0
0.300605 0.000146668 0.0
0.280787 -0.00384812 0.0
0.467597 0.000824738 0.0
0.333305 0.00301012 0.0
0.611966 -0.0616727 0.0
0.163811 0.00051824 0.0
0.310527 0.000991635 0.0
0.27789 0.00324766 0.0
0.195423 -0.114062 0.0
0.31251 -0.0310393 0.0
0.273282 0.0753185 0.0
0.341357 0.00222261 0.0
0.278379 0.00128096 0.0
0.258188 0.00186552 0.0
0.329366 0.00423713 0.0
0.147803 -0.000905521 0.0
0.364514 0.00321264 0.0
0.394397 0.0201444 0.0
0.09984 0.00035779 0.0
0.715664 -0.127469 0.0
0.320795 0.00278119 0.0
0.0430277 -0.0616583 0.0
0.312886 -0.00211679 0.0
0.566266 -0.0723725 0.0
0.35361 0.000683391 0.0
0.261067 -0.0523118 0.0
0.272398 -0.00320255 0.0
0.353155 0.00150605 0.0
0.24894 -0.00122874 0.0
0.332433 -0.0348134 0.0
0.259926 0.00215208 0.0
0.496577 -0.0199229 0.0
0.416397 0.0246947 0.0
0.295468 0.00325167 0.0
0.257596 -0.00606128 0.0
0.328553 -0.00405302 0.0
0.848459 -0.0398987 0.0
0.333866 0.00143685 0.0
0.310234 0.0102985 0.0
0.388186 0.00284812 0.0
0.804283 -0.0692797 0.0
0.438305 0.00118647 0.0
0.264935 0.0059335 0.0
0.318759 0.00122269 0.0
0.25255 -0.0201685 0.0
0.881511 -0.0173823 0.0
0.226993 -0.0167496 0.0
0.529153 -0.0146574 0.0
0.342705 0.00610314 0.0
0.13923 -0.00210255 0.0
0.13921 -0.0069751 0.0
0.377602 -0.00373426 0.0
0.253653 -0.00610236 0.0
0.250333 0.00921784 0.0
0.446153 -0.0268096 0.0
0.353374 0.00396016 0.0
0.404539 -0.0286992 0.0
0.3375 0.00823608 0.0
0.264751 0.00174726 0.0
0.247441 0.00516105 0.0
0.0254132 -0.0239023 0.0
0.307458 -0.014734 0.0
0.329234 -0.0145001 0.0
0.343575 0.00237456 0.0
0.475997 -0.0479967 0.0
0.269383 -0.0229397 0.0
0.0997318 -0.055655 0.0
0.303248 -0.000895249 0.0
-0.0242501 -0.0195742 0.0
0.184729 -0.0201241 0.0
0.209603 -0.0133157 0.0
-0.0116711 -0.011819 0.0
0.35961 -0.00916844 0.0
0.388626 -0.00102284 0.0
0.275538 -0.0142443 0.0
0.140995 0.000354292 0.0
0.338009 -0.00574777 0.0
0.328589 -0.0184953 0.0
0.139444 -0.0105545 0.0
-0.0353034 -0.00716385 0.0
0.110434 -0.0067112 0.0
0.377625 -0.0205354 0.0
0.176695 -0.00565041 0.0
0.0921122 -0.000482722 0.0
0.145394 -0.000210776 0.0
0.38409 -0.000139278 0.0
0.405193 -1.33148e-05 0.0
0.018859 -0.0122811 0.0
0.185279 -0.00528233 0.0
0.396232 -0.0317087 0.0
0.0814277 -0.0215761 0.0
0.379216 -0.0305718 0.0
0.413465 0.000652374 0.0
0.407878 -0.000708463 0.0
0.414133 -0.000607688 0.0
0.0840983 -0.000813997 0.0
-0.0260771 0.0037662 0.0
0.388989 -0.000320375 0.0
0.18262 -0.00446037 0.0
0.407182 -0.000250998 0.0
0.08297 -0.00210384 0.0
0.234888 0.00335328 0.0
0.412928 0.000307853 0.0
0.384023 -0.000118888 0.0
0.147721 0.000383655 0.0
0.143223 -0.000989099 0.0
0.388175 -0.000817605 0.0
0.0826451 0.000791587 0.0
0.408568 -0.000745024 0.0
0.338273 -0.00120761 0.0
0.403585 0.00175431 0.0
0.351244 -0.00471431 0.0
0.421613 -0.000576943 0.0
0.391957 -0.00306037 0.0
0.395696 0.0247536 0.0
0.458972 0.00283636 0.0
0.468563 -3.6446e-05 0.0
0.447799 0.00884516 0.0
0.436506 -0.000402468 0.0
0.412785 -0.000556648 0.0
0.476704 0.00273815 0.0
0.451802 -0.0187065 0.0
0.355303 -0.00138954 0.0
0.321268 -0.00255089 0.0
0.482099 0.0038678 0.0
0.305293 -0.00182663 0.0
0.356428 8.28021e-05 0.0
0.408609 -0.00325242 0.0
0.407618 0.023221 0.0
0.481831 0.00344505 0.0
0.486564 -0.000330753 0.0
0.475572 0.0100208 0.0
0.468617 0.000852886 0.0
0.46866 -8.15954e-05 0.0
0.429664 -0.00186829 0.0
0.186117 -0.00171631 0.0
0.455977 0.00415244 0.0
0.385162 -0.00860619 0.0
0.460972 0.000317359 0.0
0.102238 -0.00291586 0.0
0.389251 -0.000967167 0.0
0.463337 -0.000934269 0.0
0.386865 0.0309586 0.0
0.355285 -0.00273333 0.0
0.164949 -0.00130513 0.0
0.412447 0.00131003 0.0
0.387323 -0.000816922 0.0
0.407008 -0.00104059 0.0
0.468 -0.00182745 0.0
0.161104 -0.000365052 0.0
0.446587 0.00358199 0.0
0.412806 -0.00195971 0.0
0.29643 0.0001293 0.0
0.166555 0.00133395 0.0
0.35849 -0.00418539 0.0
0.308678 -4.32658e-05 0.0
0.300952 -0.00988774 0.0
0.349455 -0.00194399 0.0
0.38825 0.0128684 0.0
0.421842 0.000325709 0.0
0.43097 -0.00123432 0.0
0.376937 0.000145513 0.0
0.385783 -0.00138795 0.0
0.30445 -0.00480513 0.0
0.29174 -0.000821194 0.0
0.408754 -0.00168906 0.0
0.467061 -0.0020237 0.0
0.478778 0.00333287 0.0
0.410091 0.00737126 0.0
0.41968 0.000993884 0.0
0.469225 -0.00223676 0.0
0.464438 -0.000287384 0.0
0.432051 -0.000705416 0.0
0.452279 0.00429002 0.0
0.442477 0.0151567 0.0
0.349236 -0.0100682 0.0
0.378751 0.0273839 0.0
0.384355 0.000625053 0.0
0.357791 -0.00324006 0.0
0.38803 -0.00198981 0.0
0.43189 -0.000816817 0.0
0.381253 0.00102058 0.0
0.406834 -0.00147468 0.0
0.486714 -0.00128308 0.0
0.434468 0.0424364 0.0
0.389193 -0.00525799 0.0
0.354046 0.000133706 0.0
0.387518 -0.00659953 0.0
0.444753 0.0388308 0.0
0.485241 -0.0018567 0.0
0.457499 0.00403179 0.0
0.410209 0.00319763 0.0
0.302756 -0.00032161 0.0
0.484517 0.00407533 0.0
0.339617 -0.00196054 0.0
0.446409 0.00643082 0.0
0.407549 -0.00208718 0.0
0.385587 -0.0110854 0.0
0.390427 -0.00391075 0.0
0.403652 -0.00341488 0.0
0.401857 0.0335733 0.0
0.468321 0.0209031 0.0
0.458192 0.00182342 0.0
0.479225 0.00499959 0.0
0.435539 0.00174223 0.0
0.484334 -5.9436e-05 0.0
0.485472 -0.00237325 0.0
0.466922 -0.000403879 0.0
0.466813 -0.00099974 0.0
0.472293 0.00257537 0.0
0.475357 0.00289672 0.0
0.389871 -0.000640909 0.0
0.177715 -0.000725846 0.0
0.176241 0.00279648 0.0
0.162263 -0.000839413 0.0
0.167088 -0.00342402 0.0
0.163721 0.00263255 0.0
0.470065 -0.000494613 0.0
0.470727 -0.000187908 0.0
0.488092 -0.000823278 0.0
0.40577 -0.0122413 0.0
0.483038 0.00327198 0.0
0.476423 0.0123227 0.0
0.405905 0.0134288 0.0
0.462168 0.00117057 0.0
0.484058 0.00183398 0.0
0.409969 -0.00325683 0.0
0.386106 -0.01054 0.0
0.480418 0.00461182 0.0
0.410944 -0.00224369 0.0
0.411803 -0.00257574 0.0
0.407856 -0.00538995 0.0
0.409984 0.00751423 0.0
0.438185 0.0582946 0.0
0.48634 0.0149713 0.0
0.490331 0.00415934 0.0
0.488607 -0.000963385 0.0
0.48769 -0.00112245 0.0
0.4866 -0.00108866 0.0
0.486618 -0.000252145 0.0
0.487199 0.00291286 0.0
0.404271 -0.00861929 0.0
0.487784 0.00346596 0.0
0.478061 0.00399028 0.0
0.1101 0.00150661 0.0
0.0950027 0.000954401 0.0
0.0873399 0.000983698 0.0
0.0756939 0.00037464 0.0
0.104966 -0.00436371 0.0
0.0875665 -0.00342836 0.0
0.0887279 6.42904e-05 0.0
0.101069 -0.00217667 0.0
0.114792 -0.000206348 0.0
0.0943183 -0.000593495 0.0
0.0368337 -0.0128206 0.0
0.123628 -0.00162981 0.0
0.0969275 0.0019717 0.0
0.110175 -0.00313433 0.0
0.118331 0.00275127 0.0
0.0994954 -0.00130365 0.0
0.0841888 0.00188261 0.0
0.101864 -0.00139536 0.0
0.0922129 -0.000409934 0.0
0.0966071 -0.000620587 0.0
0.405537 -0.00109095 0.0
0.488986 0.00472613 0.0
0.447168 0.00268001 0.0
0.458059 0.00408387 0.0
0.0838346 0.000241167 0.0
0.430359 -0.00065004 0.0
0.43328 -0.000202315 0.0
0.469304 -0.00124132 0.0
0.416844 0.00170911 0.0
0.45187 0.00364573 0.0
0.445414 0.0118365 0.0
0.384643 0.0064011 0.0
0.349676 -0.00924207 0.0
0.387439 -0.00232929 0.0
0.10115 0.000371223 0.0
0.0964721 -0.000644654 0.0
0.0988051 -0.00108149 0.0
0.0917288 0.00079328 0.0
0.409055 -0.00241491 0.0
0.387459 -0.00960688 0.0
0.405307 -0.00732979 0.0
0.465616 0.0261792 0.0
0.480605 0.00554567 0.0
0.48632 0.000526045 0.0
0.486974 -0.0021198 0.0
0.468464 -0.000156864 0.0
0.473463 0.0024249 0.0
0.407334 -0.0119777 0.0
0.412972 -0.00217929 0.0
0.409643 -0.00478681 0.0
0.48564 0.00203798 0.0
0.411363 0.000314518 0.0
0.425936 0.0485923 0.0
0.487179 0.0203805 0.0
0.491644 0.00494072 0.0
0.490735 -0.000791007 0.0
0.489323 -0.00188474 0.0
0.48813 -0.000877116 0.0
0.488249 -0.000603425 0.0
0.48874 0.00286621 0.0
0.489286 0.00327405 0.0
0.481375 0.00432308 0.0
0.45326 -0.0128291 0.0
0.490363 0.00497446 0.0
0.523997 -0.0853958 0.0
0.452081 0.0014199 0.0
0.411975 -0.00177002 0.0
0.408293 -0.00822032 0.0
0.41353 -0.0118712 0.0
0.473379 0.0432752 0.0
0.489902 0.00906332 0.0
0.413284 -0.00373519 0.0
0.492848 0.000707081 0.0
0.489712 -0.00183342 0.0
0.416051 0.033494 0.0
0.4925 0.00334136 0.0
0.488087 0.000186866 0.0
0.490177 -0.000299337 0.0
0.488764 0.00113141 0.0
0.400679 -0.00190549 0.0
0.401573 -0.0021016 0.0
0.413048 -0.00652469 0.0
0.402057 0.0148291 0.0
0.460333 0.0717342 0.0
0.484847 0.0138074 0.0
0.485361 0.00347348 0.0
0.485119 0.00450726 0.0
0.476517 -0.000893412 0.0
0.474337 -0.000361263 0.0
0.490156 -0.000802732 0.0
0.488902 -0.00013682 0.0
0.489408 0.0042445 0.0
0.484364 0.00366423 0.0
0.481962 -0.00828121 0.0
0.484158 -0.00401942 0.0
0.116057 0.000298582 0.0
0.110204 0.000738164 0.0
0.107218 0.000543122 0.0
0.0695456 0.000831583 0.0
0.0923281 0.0010716 0.0
0.0961309 0.00159575 0.0
0.0650589 -0.000888624 0.0
0.0930285 0.000673433 0.0
0.116422 0.000644422 0.0
0.0863657 0.0015296 0.0
0.0908838 0.00183654 0.0
0.09707 -7.1804e-05 0.0
0.103677 -0.00277137 0.0
0.10454 0.00243426 0.0
0.0919593 0.00130362 0.0
0.0844628 -0.000983965 0.0
0.0914885 -0.000128118 0.0
0.0570547 -0.00990753 0.0
0.101053 -0.00280918 0.0
0.083393 0.00173365 0.0
0.0732457 -0.000735687 0.0
0.0816369 -0.00240707 0.0
0.10226 0.00116469 0.0
0.410886 -0.00184042 0.0
0.406797 -0.00956772 0.0
0.411648 -0.010792 0.0
0.478204 0.0354072 0.0
0.488664 0.00721759 0.0
0.490847 -0.00029953 0.0
0.488038 -0.00194846 0.0
0.486076 4.10942e-05 0.0
0.412066 -0.00448397 0.0
0.422766 0.0445833 0.0
0.487095 0.00251042 0.0
0.491293 0.00267948 0.0
0.488742 -0.000384023 0.0
0.483464 0.00316179 0.0
0.481379 0.00504518 0.0
0.487837 0.00476539 0.0
0.398746 -0.00134905 0.0
0.411691 -0.00740272 0.0
0.400635 -0.00288249 0.0
0.40348 -0.0122103 0.0
0.476164 0.0601097 0.0
0.404319 0.0268343 0.0
0.482457 0.0104946 0.0
0.484733 0.0038867 0.0
0.473657 -0.00159083 0.0
0.472665 0.000302446 0.0
0.488252 5.43096e-06 0.0
0.486651 6.77663e-05 0.0
0.372896 -0.00330704 0.0
0.371321 -0.00157032 0.0
0.376885 0.00641216 0.0
0.459641 0.0130607 0.0
0.457361 0.00409721 0.0
0.441747 -0.00124915 0.0
0.470103 -0.000138065 0.0
0.460674 0.00204306 0.0
0.483932 -0.0273137 0.0
0.49344 -0.0196012 0.0
0.482396 0.00350515 0.0
0.40134 -0.00570903 0.0
0.432602 0.122945 0.0
0.474687 -0.00100102 0.0
0.461033 0.00400311 0.0
0.297304 -0.00354186 0.0
0.440772 -0.000990833 0.0
0.48478 0.0560621 0.0
0.380236 -0.0105955 0.0
0.474874 -2.19826e-05 0.0
0.403401 -0.00756557 0.0
0.388738 0.00120796 0.0
0.42215 0.008258 0.0
0.33401 0.0138254 0.0
0.323176 -0.00101077 0.0
0.326256 -0.00181189 0.0
0.43498 0.000355225 0.0
0.403072 -0.00486541 0.0
0.406059 0.0783128 0.0
0.476426 1.87622e-05 0.0
0.44947 0.00411874 0.0
0.400431 -0.00148331 0.0
0.482908 0.00571929 0.0
0.461041 0.00321064 0.0
0.374009 -0.00671085 0.0
0.329769 -0.0103631 0.0
0.486067 0.0580038 0.0
0.387618 0.000588275 0.0
0.440795 -0.00133949 0.0
0.374272 -0.00119921 0.0
0.173348 0.00120856 0.0
0.174354 -0.000818751 0.0
0.173006 0.00134687 0.0
0.126384 0.00088417 0.0
0.487676 -0.000719264 0.0
0.402374 -0.00479199 0.0
0.484625 0.0232896 0.0
0.474538 -0.00232254 0.0
0.412326 -0.0120023 0.0
0.37357 -0.00189373 0.0
0.457924 0.00509958 0.0
0.462952 0.00341527 0.0
0.379057 -5.89436e-05 0.0
0.464369 0.016505 0.0
0.443486 -0.00261296 0.0
0.472263 -0.000453834 0.0
0.420435 0.00221585 0.0
0.404735 -0.0118396 0.0
0.359673 0.0019372 0.0
0.491744 0.00199503 0.0
0.410369 0.00199484 0.0
0.479501 0.00469326 0.0
0.450626 0.00292418 0.0
0.401298 -0.00117996 0.0
0.484436 0.00722901 0.0
0.479435 0.0040535 0.0
0.404346 -0.0087453 0.0
0.487258 0.0329692 0.0
0.413618 -0.0105994 0.0
0.475757 -0.00183759 0.0
0.489521 -0.000419322 0.0
0.493679 -0.0124891 0.0
0.490273 -0.000461376 0.0
0.375776 -0.00562989 0.0
0.50736 0.147672 0.0
0.441704 -0.00112276 0.0
0.451972 0.00329689 0.0
0.482014 0.00445305 0.0
0.423592 0.00407655 0.0
0.41164 0.00680761 0.0
0.377952 -0.0109978 0.0
0.479706 0.0351961 0.0
0.402756 -0.00908946 0.0
0.441405 -0.00219649 0.0
0.473468 -0.000387562 0.0
0.459339 0.00336207 0.0
0.482518 -0.00628502 0.0
0.491097 -0.0229468 0.0
0.370824 -0.000368834 0.0
0.458185 0.00946635 0.0
0.41757 0.012878 0.0
0.325233 0.00162677 0.0
0.450422 0.0011222 0.0
0.482162 -0.0371969 0.0
0.37126 -0.00112733 0.0
0.456131 0.007535 0.0
0.482927 -0.0018904 0.0
0.461523 -0.0127964 0.0
0.348697 -0.00422951 0.0
0.421286 -0.0109667 0.0
0.361408 0.000421228 0.0
0.459281 -0.00758862 0.0
0.605499 -0.18907 0.0
0.373968 -0.0559212 0.0
0.445142 -0.0424289 0.0
0.493305 -0.0320874 0.0
0.443522 -0.00350486 0.0
0.242236 -0.0038494 0.0
0.501061 -0.0451635 0.0
0.440037 -0.0579754 0.0
0.5033 -0.0583592 0.0
0.381851 0.00192202 0.0
0.360226 -0.0697284 0.0
0.0883478 -0.000988648 0.0
0.525322 -0.122093 0.0
0.386341 -0.00396344 0.0
0.480744 -0.0725662 0.0
0.302258 -0.00646524 0.0
0.480405 -0.0900185 0.0
0.353701 -0.00643397 0.0
0.169517 -0.00795962 0.0
0.130241 0.00179768 0.0
0.142137 0.00293873 0.0
0.519288 -0.102273 0.0
0.294932 -0.00668701 0.0
0.418499 -0.0946137 0.0
0.379451 -0.00241324 0.0
0.41185 -0.113579 0.0
0.272045 0.01023 0.0
0.377107 0.00403485 0.0
0.405092 0.000990763 0.0
0.178268 0.00382203 0.0
0.0739891 0.000727489 0.0
0.362384 0.000276592 0.0
0.629927 -0.155898 0.0
0.466786 -0.133707 0.0
0.169977 -9.51887e-05 0.0
0.938888 -0.00683948 0.0
0.163783 -0.00268474 0.0
0.385479 0.0140177 0.0
0.420286 0.0269292 0.0
0.907787 -0.0338544 0.0
0.610321 -0.136877 0.0
0.466448 -0.152504 0.0
0.337859 -0.0131556 0.0
0.560789 -0.125915 0.0
0.0720499 0.00179939 0.0
0.635588 -0.208767 0.0
0.168778 -0.00230716 0.0
0.399913 -0.00475673 0.0
0.0959188 -0.0055486 0.0
0.342061 -0.00101801 0.0
0.576251 -0.144384 0.0
0.135872 -0.000611722 0.0
0.352972 -0.00702122 0.0
0.350227 -0.00362364 0.0
0.402384 -0.00034604 0.0
0.52936 -0.16815 0.0
0.400912 0.0022308 0.0
0.46633 0.00444332 0.0
0.538898 -0.185227 0.0
0.329859 -0.00213437 0.0
0.141507 0.00176514 0.0
0.526323 -0.209556 0.0
0.425535 -0.192031 0.0
0.0919608 0.000150336 0.0
0.623758 -0.198797 0.0
0.278793 -0.00155559 0.0
0.297686 0.00351784 0.0
0.348524 0.00786799 0.0
0.165051 -0.000861185 0.0
0.0962561 0.00332759 0.0
0.242489 -0.143014 0.0
0.308718 0.000601689 0.0
0.426593 0.0227223 0.0
0.426272 -0.18227 0.0
0.0807891 0.00062558 0.0
0.0936623 0.00059719 0.0
0.29977 -0.00217364 0.0
0.294037 0.00130262 0.0
0.0916606 -0.000848762 0.0
0.432801 0.00266774 0.0
0.0582231 -0.0220127 0.0
0.374103 0.0038031 0.0
0.332827 0.004596 0.0
0.388144 -0.031266 0.0
0.387623 -0.00195033 0.0
-0.0470576 0.00482905 0.0
0.208365 -0.0319073 0.0
0.711512 -0.194323 0.0
0.20607 0.00490712 0.0
0.212729 -0.130229 0.0
0.158307 -0.000314555 0.0
0.102326 0.00288787 0.0
0.411328 0.00144357 0.0
0.453218 0.00338949 0.0
0.271833 -0.00347954 0.0
0.263608 -0.00158865 0.0
0.303541 -0.00061004 0.0
0.941606 0.00338948 0.0
0.136514 0.000227342 0.0
0.178291 0.00608942 0.0
0.296432 -0.000978541 0.0
0.291925 -0.000615856 0.0
0.290809 0.00782151 0.0
0.156494 0.00119016 0.0
0.360368 0.0148407 0.0
0.0818781 0.000610211 0.0
0.34933 0.00229328 0.0
0.385239 0.00432689 0.0
0.439211 0.000496323 0.0
-0.00281115 0.0548945 0.0
0.297586 0.0028644 0.0
0.688369 -0.19148 0.0
0.332251 0.0150017 0.0
0.632577 -0.12381 0.0
0.517512 -0.204768 0.0
0.160634 -0.00287306 0.0
0.659586 -0.205676 0.0
0.384609 -0.001269 0.0
0.444589 0.00237057 0.0
0.434526 0.00327983 0.0
0.251466 -0.002027 0.0
0.167168 0.00631569 0.0
0.153056 0.000154488 0.0
0.382447 0.00185774 0.0
0.977428 -0.00530334 0.0
0.142357 -0.00418713 0.0
0.469661 8.68597e-05 0.0
0.135008 0.000370097 0.0
0.323472 -0.0107796 0.0
0.410608 -0.167133 0.0
0.462861 0.00120766 0.0
0.2774 -0.142828 0.0
0.486961 0.00213274 0.0
0.3304 0.00735583 0.0
0.312307 -0.159887 0.0
0.163462 0.00372462 0.0
0.43061 0.00328573 0.0
0.119155 -0.00147924 0.0
0.35491 -0.00107434 0.0
-0.00935704 0.0290199 0.0
0.0888449 2.62302e-06 0.0
0.157289 0.00150553 0.0
0.70711 -0.0891184 0.0
0.886553 -0.0620942 0.0
0.242407 0.00259232 0.0
0.391978 -0.00158642 0.0
0.296811 -0.00929335 0.0
0.320896 -0.000228996 0.0
0.304289 0.00755253 0.0
0.332301 -0.00970436 0.0
0.30158 -0.00123198 0.0
0.38074 -0.00934071 0.0
0.106468 -0.0730992 0.0
0.322408 -0.00130185 0.0
0.376408 -0.0032459 0.0
0.0856537 -5.35854e-05 0.0
0.278694 0.00423289 0.0
0.335306 0.028818 0.0
0.369042 0.0607529 0.0
0.400164 -0.173068 0.0
0.163597 0.0018046 0.0
0.17208 0.00180607 0.0
0.148064 0.000115369 0.0
0.0880672 0.00171111 0.0
0.428378 0.00271541 0.0
0.0901316 0.00486334 0.0
0.078612 -0.000687527 0.0
0.376749 -0.00215714 0.0
-0.00351202 0.0712882 0.0
0.19875 -0.0106466 0.0
0.17156 -0.0055687 0.0
0.442683 -0.00168569 0.0
0.169148 0.00112253 0.0
0.431524 -0.00162452 0.0
0.27959 -0.00350198 0.0
0.426412 -0.000463767 0.0
0.450639 -0.000237663 0.0
0.144446 0.00142166 0.0
0.310363 0.00361635 0.0
0.13602 -0.00205986 0.0
0.282458 -6.43427e-05 0.0
0.525232 -0.0419469 0.0
0.347326 0.0048486 0.0
0.312019 -0.00476502 0.0
0.173963 -0.00160272 0.0
0.155924 0.00172005 0.0
0.476676 -0.0319463 0.0
0.186133 0.0032408 0.0
0.358895 -0.00310332 0.0
0.358823 0.000732832 0.0
0.493307 -0.0673214 0.0
0.104022 0.00434884 0.0
0.305667 -1.05161e-05 0.0
0.311526 -0.00114685 0.0
0.154275 -0.00167126 0.0
0.485496 0.00218592 0.0
0.652851 -0.149547 0.0
0.453185 0.00295325 0.0
0.159395 -0.00205694 0.0
0.104792 0.00351977 0.0
0.31318 0.00248281 0.0
0.0697905 0.00149278 0.0
0.293889 0.00279486 0.0
0.0813269 -0.00217845 0.0
0.330329 0.00122758 0.0
0.437057 -0.000200735 0.0
0.41577 0.00595433 0.0
0.133545 0.0046852 0.0
0.307599 -0.00339393 0.0
0.352772 -0.00045762 0.0
0.359959 0.00196667 0.0
0.274086 -0.00103796 0.0
0.167827 8.1388e-05 0.0
0.14283 0.00109975 0.0
0.439677 0.00151334 0.0
0.359262 -0.00419762 0.0
0.0849267 -3.88022e-05 0.0
0.419196 0.00595981 0.0
0.514095 -0.0635288 0.0
0.32448 0.00352123 0.0