# vtk DataFile Version 3.0
Malha 2D com triângulos: velocidade e pressão
ASCII
DATASET UNSTRUCTURED_GRID

POINTS 6921 double
2 0 0
10 0 0
10 1 0
0 1 0
0 0.5 0
2 0.5 0
2.04 0 0
2.08 0 0
2.12 0 0
2.16 0 0
2.2 0 0
2.24 0 0
2.28 0 0
2.32 0 0
2.36 0 0
2.4 0 0
2.44 0 0
2.48 0 0
2.52 0 0
2.56 0 0
2.6 0 0
2.64 0 0
2.68 0 0
2.72 0 0
2.76 0 0
2.8 0 0
2.84 0 0
2.88 0 0
2.92 0 0
2.96 0 0
3 0 0
3.04 0 0
3.08 0 0
3.12 0 0
3.16 0 0
3.2 0 0
3.24 0 0
3.28 0 0
3.32 0 0
3.36 0 0
3.4 0 0
3.44 0 0
3.48 0 0
3.52 0 0
3.56 0 0
3.6 0 0
3.64 0 0
3.68 0 0
3.72 0 0
3.76 0 0
3.8 0 0
3.84 0 0
3.88 0 0
3.92 0 0
3.96 0 0
4 0 0
4.04 0 0
4.08 0 0
4.12 0 0
4.16 0 0
4.2 0 0
4.24 0 0
4.28 0 0
4.32 0 0
4.36 0 0
4.4 0 0
4.44 0 0
4.48 0 0
4.52 0 0
4.56 0 0
4.6 0 0
4.64 0 0
4.68 0 0
4.72 0 0
4.76 0 0
4.8 0 0
4.84 0 0
4.88 0 0
4.92 0 0
4.96 0 0
5 0 0
5.04 0 0
5.08 0 0
5.12 0 0
5.16 0 0
5.2 0 0
5.24 0 0
5.28 0 0
5.32 0 0
5.36 0 0
5.4 0 0
5.44 0 0
5.48 0 0
5.52 0 0
5.56 0 0
5.6 0 0
5.64 0 0
5.68 0 0
5.72 0 0
5.76 0 0
5.8 0 0
5.84 0 0
5.88 0 0
5.92 0 0
5.96 0 0
6 0 0
6.04 0 0
6.08 0 0
6.12 0 0
6.16 0 0
6.2 0 0
6.24 0 0
6.28 0 0
6.32 0 0
6.36 0 0
6.4 0 0
6.44 0 0
6.48 0 0
6.52 0 0
6.56 0 0
6.6 0 0
6.64 0 0
6.68 0 0
6.72 0 0
6.76 0 0
6.8 0 0
6.84 0 0
6.88 0 0
6.92 0 0
6.96 0 0
7 0 0
7.04 0 0
7.08 0 0
7.12 0 0
7.16 0 0
7.2 0 0
7.24 0 0
7.28 0 0
7.32 0 0
7.36 0 0
7.4 0 0
7.44 0 0
7.48 0 0
7.52 0 0
7.56 0 0
7.6 0 0
7.64 0 0
7.68 0 0
7.72 0 0
7.76 0 0
7.8 0 0
7.84 0 0
7.88 0 0
7.92 0 0
7.96 0 0
8 0 0
8.04 0 0
8.08 0 0
8.12 0 0
8.16 0 0
8.2 0 0
8.24 0 0
8.28 0 0
8.32 0 0
8.36 0 0
8.4 0 0
8.44 0 0
8.48 0 0
8.52 0 0
8.56 0 0
8.6 0 0
8.64 0 0
8.68 0 0
8.72 0 0
8.76 0 0
8.8 0 0
8.84 0 0
8.88 0 0
8.92 0 0
8.96 0 0
9 0 0
9.04 0 0
9.08 0 0
9.12 0 0
9.16 0 0
9.2 0 0
9.24 0 0
9.28 0 0
9.32 0 0
9.36 0 0
9.4 0 0
9.44 0 0
9.48 0 0
9.52 0 0
9.56 0 0
9.6 0 0
9.64 0 0
9.68 0 0
9.72 0 0
9.76 0 0
9.8 0 0
9.84 0 0
9.88 0 0
9.92 0 0
9.96 0 0
10 0.04 0
10 0.08 0
10 0.12 0
10 0.16 0
10 0.2 0
10 0.24 0
10 0.28 0
10 0.32 0
10 0.36 0
10 0.4 0
10 0.44 0
10 0.48 0
10 0.52 0
10 0.56 0
10 0.6 0
10 0.64 0
10 0.68 0
10 0.72 0
10 0.76 0
10 0.8 0
10 0.84 0
10 0.88 0
10 0.92 0
10 0.96 0
9.96 1 0
9.92 1 0
9.88 1 0
9.84 1 0
9.8 1 0
9.76 1 0
9.72 1 0
9.68 1 0
9.64 1 0
9.6 1 0
9.56 1 0
9.52 1 0
9.48 1 0
9.44 1 0
9.4 1 0
9.36 1 0
9.32 1 0
9.28 1 0
9.24 1 0
9.2 1 0
9.16 1 0
9.12 1 0
9.08 1 0
9.04 1 0
9 1 0
8.96 1 0
8.92 1 0
8.88 1 0
8.84 1 0
8.8 1 0
8.76 1 0
8.72 1 0
8.68 1 0
8.64 1 0
8.6 1 0
8.56 1 0
8.52 1 0
8.48 1 0
8.44 1 0
8.4 1 0
8.36 1 0
8.32 1 0
8.28 1 0
8.24 1 0
8.2 1 0
8.16 1 0
8.12 1 0
8.08 1 0
8.04 1 0
8 1 0
7.96 1 0
7.92 1 0
7.88 1 0
7.84 1 0
7.8 1 0
7.76 1 0
7.72 1 0
7.68 1 0
7.64 1 0
7.6 1 0
7.56 1 0
7.52 1 0
7.48 1 0
7.44 1 0
7.4 1 0
7.36 1 0
7.32 1 0
7.28 1 0
7.24 1 0
7.2 1 0
7.16 1 0
7.12 1 0
7.08 1 0
7.04 1 0
7 1 0
6.96 1 0
6.92 1 0
6.88 1 0
6.84 1 0
6.8 1 0
6.76 1 0
6.72 1 0
6.68 1 0
6.64 1 0
6.6 1 0
6.56 1 0
6.52 1 0
6.48 1 0
6.44 1 0
6.4 1 0
6.36 1 0
6.32 1 0
6.28 1 0
6.24 1 0
6.2 1 0
6.16 1 0
6.12 1 0
6.08 1 0
6.04 1 0
6 1 0
5.96 1 0
5.92 1 0
5.88 1 0
5.84 1 0
5.8 1 0
5.76 1 0
5.72 1 0
5.68 1 0
5.64 1 0
5.6 1 0
5.56 1 0
5.52 1 0
5.48 1 0
5.44 1 0
5.4 1 0
5.36 1 0
5.32 1 0
5.28 1 0
5.24 1 0
5.2 1 0
5.16 1 0
5.12 1 0
5.08 1 0
5.04 1 0
5 1 0
4.96 1 0
4.92 1 0
4.88 1 0
4.84 1 0
4.8 1 0
4.76 1 0
4.72 1 0
4.68 1 0
4.64 1 0
4.6 1 0
4.56 1 0
4.52 1 0
4.48 1 0
4.44 1 0
4.4 1 0
4.36 1 0
4.32 1 0
4.28 1 0
4.24 1 0
4.2 1 0
4.16 1 0
4.12 1 0
4.08 1 0
4.04 1 0
4 1 0
3.96 1 0
3.92 1 0
3.88 1 0
3.84 1 0
3.8 1 0
3.76 1 0
3.72 1 0
3.68 1 0
3.64 1 0
3.6 1 0
3.56 1 0
3.52 1 0
3.48 1 0
3.44 1 0
3.4 1 0
3.36 1 0
3.32 1 0
3.28 1 0
3.24 1 0
3.2 1 0
3.16 1 0
3.12 1 0
3.08 1 0
3.04 1 0
3 1 0
2.96 1 0
2.92 1 0
2.88 1 0
2.84 1 0
2.8 1 0
2.76 1 0
2.72 1 0
2.68 1 0
2.64 1 0
2.6 1 0
2.56 1 0
2.52 1 0
2.48 1 0
2.44 1 0
2.4 1 0
2.36 1 0
2.32 1 0
2.28 1 0
2.24 1 0
2.2 1 0
2.16 1 0
2.12 1 0
2.08 1 0
2.04 1 0
2 1 0
1.96 1 0
1.92 1 0
1.88 1 0
1.84 1 0
1.8 1 0
1.76 1 0
1.72 1 0
1.68 1 0
1.64 1 0
1.6 1 0
1.56 1 0
1.52 1 0
1.48 1 0
1.44 1 0
1.4 1 0
1.36 1 0
1.32 1 0
1.28 1 0
1.24 1 0
1.2 1 0
1.16 1 0
1.12 1 0
1.08 1 0
1.04 1 0
1 1 0
0.96 1 0
0.92 1 0
0.88 1 0
0.84 1 0
0.8 1 0
0.76 1 0
0.72 1 0
0.68 1 0
0.64 1 0
0.6 1 0
0.56 1 0
0.52 1 0
0.48 1 0
0.44 1 0
0.4 1 0
0.36 1 0
0.32 1 0
0.28 1 0
0.24 1 0
0.2 1 0
0.16 1 0
0.12 1 0
0.08 1 0
0.04 1 0
0 0.961538 0
0 0.923077 0
0 0.884615 0
0 0.846154 0
0 0.807692 0
0 0.769231 0
0 0.730769 0
0 0.692308 0
0 0.653846 0
0 0.615385 0
0 0.576923 0
0 0.538462 0
0.04 0.5 0
0.08 0.5 0
0.12 0.5 0
0.16 0.5 0
0.2 0.5 0
0.24 0.5 0
0.28 0.5 0
0.32 0.5 0
0.36 0.5 0
0.4 0.5 0
0.44 0.5 0
0.48 0.5 0
0.52 0.5 0
0.56 0.5 0
0.6 0.5 0
0.64 0.5 0
0.68 0.5 0
0.72 0.5 0
0.76 0.5 0
0.8 0.5 0
0.84 0.5 0
0.88 0.5 0
0.92 0.5 0
0.96 0.5 0
1 0.5 0
1.04 0.5 0
1.08 0.5 0
1.12 0.5 0
1.16 0.5 0
1.2 0.5 0
1.24 0.5 0
1.28 0.5 0
1.32 0.5 0
1.36 0.5 0
1.4 0.5 0
1.44 0.5 0
1.48 0.5 0
1.52 0.5 0
1.56 0.5 0
1.6 0.5 0
1.64 0.5 0
1.68 0.5 0
1.72 0.5 0
1.76 0.5 0
1.8 0.5 0
1.84 0.5 0
1.88 0.5 0
1.92 0.5 0
1.96 0.5 0
2 0.461538 0
2 0.423077 0
2 0.384615 0
2 0.346154 0
2 0.307692 0
2 0.269231 0
2 0.230769 0
2 0.192308 0
2 0.153846 0
2 0.115385 0
2 0.0769231 0
2 0.0384615 0
2.50232 0.959321 0
4.50562 0.0365477 0
5.5 0.0333963 0
6.50039 0.0334197 0
7.50053 0.0344477 0
8.02173 0.033852 0
8.30083 0.0336312 0
8.50336 0.0340402 0
8.82 0.0329886 0
9.0209 0.0341194 0
9.3 0.0330032 0
4.74034 0.034034 0
5.74014 0.0334247 0
6.3 0.965359 0
6.7 0.965359 0
7.3 0.965568 0
7.70008 0.963071 0
3.49874 0.964273 0
4.25902 0.0338266 0
5.26 0.034641 0
9.50122 0.0339384 0
2.70531 0.0378079 0
2.9 0.965359 0
3.1 0.965358 0
3.29907 0.0271616 0
3.69932 0.96953 0
3.9004 0.968158 0
4.98 0.968169 0
5.98 0.965713 0
6.9 0.965359 0
7.10032 0.965463 0
8.66 0.965359 0
4.09921 0.963425 0
6.13534 0.0347498 0
2.03333 0.480687 0
9.17936 0.96573 0
8.13963 0.965875 0
7.89896 0.967322 0
5.37845 0.966255 0
4.37739 0.960008 0
5.62102 0.962143 0
4.62249 0.967552 0
9.37987 0.965433 0
8.42457 0.966811 0
3.58404 0.0355375 0
8.8983 0.964014 0
6.78 0.0332556 0
7.2221 0.0342803 0
7.78 0.034641 0
5.18047 0.966034 0
4.0237 0.0369319 0
2.97757 0.0354806 0
3.77663 0.0354426 0
5.05713 0.0347742 0
6.98217 0.0341667 0
5.94247 0.034632 0
7.50056 0.968081 0
6.5 0.965359 0
2.7 0.966069 0
3.29731 0.967753 0
2.50175 0.0403259 0
9.96536 0.5 0
9.57913 0.965216 0
8.66386 0.0378022 0
6.33787 0.0344725 0
5.81898 0.968417 0
4.81803 0.967668 0
4.9016 0.0381018 0
3.14 0.0336817 0
6.13695 0.967115 0
2.34122 0.966071 0
2.34263 0.0377569 0
9.65987 0.0348166 0
9.96499 0.663253 0
9.96986 0.343449 0
2.03194 0.32548 0
2.179 0.969202 0
2.03302 0.519879 0
2.06674 0.500011 0
0.0316101 0.750513 0
1.93999 0.965885 0
1.62 0.965723 0
1.41809 0.966717 0
1.18 0.965359 0
0.78 0.965359 0
0.937498 0.966679 0
0.580119 0.96735 0
0.4199 0.96477 0
1.77876 0.966078 0
2.06641 0.539359 0
2.10027 0.519426 0
0.304254 0.534216 0
1.30149 0.536759 0
1.06468 0.535041 0
9.74307 0.965958 0
1.85823 0.540012 0
0.7 0.534641 0
0.862148 0.534666 0
1.53645 0.535348 0
0.497613 0.533958 0
1.7 0.533623 0
2.09968 0.559276 0
2.13387 0.538907 0
2.13327 0.578857 0
2.16758 0.558375 0
2.16765 0.519207 0
2.20145 0.53862 0
2.20141 0.499563 0
2.23527 0.519036 0
2.23525 0.479957 0
2.2692 0.499504 0
2.26865 0.53911 0
2.30307 0.519107 0
2.30314 0.479864 0
2.3372 0.499439 0
2.33667 0.539135 0
2.37118 0.519097 0
2.37128 0.479721 0
2.40537 0.499428 0
2.40543 0.538791 0
2.43907 0.519611 0
2.43943 0.479832 0
2.47373 0.499376 0
2.47275 0.539511 0
2.50806 0.519041 0
2.50794 0.479452 0
2.54232 0.499222 0
2.54231 0.538849 0
2.57666 0.518992 0
2.57656 0.479333 0
2.61098 0.499131 0
2.611 0.538808 0
2.64537 0.518934 0
2.6453 0.479234 0
2.67973 0.499044 0
2.67977 0.538759 0
2.71415 0.518865 0
2.71411 0.479131 0
2.74855 0.498956 0
2.7485 0.459202 0
2.78296 0.479039 0
2.78301 0.518795 0
2.81744 0.498882 0
2.81739 0.459097 0
2.85189 0.478947 0
2.85193 0.518758 0
2.8864 0.498813 0
2.88643 0.538621 0
2.92093 0.518689 0
2.92088 0.478843 0
2.95542 0.498722 0
2.95536 0.458882 0
2.98991 0.47878 0
2.98997 0.518625 0
3.02447 0.498677 0
3.02452 0.538518 0
3.05905 0.518531 0
3.05898 0.478757 0
3.09356 0.498604 0
3.09354 0.538489 0
3.12814 0.518462 0
3.12808 0.478683 0
3.16268 0.498528 0
3.16267 0.538432 0
3.1973 0.518379 0
3.19725 0.478557 0
3.23185 0.498377 0
3.2319 0.538305 0
3.26646 0.518298 0
3.26641 0.478361 0
3.30103 0.498286 0
3.30098 0.458344 0
3.33559 0.47827 0
3.33564 0.518215 0
3.37022 0.498199 0
3.37016 0.458249 0
3.40479 0.47818 0
3.40484 0.518134 0
3.43942 0.498114 0
3.43947 0.538072 0
3.47405 0.518049 0
3.474 0.478091 0
3.50863 0.498025 0
3.50868 0.537988 0
3.54327 0.517964 0
3.54322 0.477997 0
3.57786 0.497937 0
3.57781 0.457971 0
3.61245 0.477914 0
3.6125 0.51788 0
3.64709 0.497856 0
3.64714 0.537823 0
3.68174 0.517795 0
3.68169 0.477829 0
3.71634 0.497762 0
3.71639 0.537741 0
3.75099 0.517706 0
3.75093 0.477725 0
3.78559 0.497671 0
3.78553 0.457688 0
3.82019 0.477635 0
3.82024 0.517619 0
3.85484 0.497582 0
3.85489 0.537568 0
3.8895 0.517531 0
3.88944 0.477543 0
3.9241 0.497492 0
3.92415 0.537481 0
3.95876 0.517441 0
3.95871 0.477451 0
3.99336 0.497401 0
3.99331 0.457411 0
4.02797 0.477361 0
4.02802 0.517352 0
4.06263 0.497312 0
4.06258 0.45732 0
4.09724 0.477272 0
4.09729 0.517264 0
4.1319 0.497223 0
4.13195 0.537216 0
4.16656 0.517174 0
4.16651 0.477182 0
4.20117 0.497132 0
4.20123 0.537127 0
4.23584 0.517084 0
4.23578 0.477089 0
4.27045 0.497042 0
4.27039 0.457047 0
4.30506 0.476999 0
4.30511 0.516995 0
4.33972 0.496951 0
4.33977 0.536948 0
4.37439 0.516905 0
4.37433 0.47691 0
4.409 0.496861 0
4.40905 0.536858 0
4.44366 0.516814 0
4.44361 0.476817 0
4.47828 0.49677 0
4.47822 0.456773 0
4.51289 0.476727 0
4.51294 0.516724 0
4.54755 0.49668 0
4.5475 0.456682 0
4.58217 0.476636 0
4.58222 0.516634 0
4.61683 0.49659 0
4.61689 0.536588 0
4.6515 0.516544 0
4.65145 0.476546 0
4.68611 0.4965 0
4.68617 0.536498 0
4.72078 0.516454 0
4.72073 0.476455 0
4.75539 0.496409 0
4.75544 0.536408 0
4.79006 0.516363 0
4.79001 0.476365 0
4.82467 0.496319 0
[...]
CELL_DATA 13289
VECTORS velocity double
0.259732 0.000182464 0
0.253508 -0.00867717 0
0.259767 0.000214776 0
0.0602276 0.000189768 0
0.109647 0.000758139 0
0.0295145 0.000228093 0
0.260398 -6.95172e-05 0
-0.0372963 0.00482832 0
0.119001 0.000184058 0
0.447253 0.00125942 0
0.14059 0.00253935 0
0.0731264 -0.00208282 0
0.0497435 0.000705581 0
0.141547 0.0020796 0
0.0287677 0.00040093 0
0.121306 -0.000806185 0
0.72963 0.000457103 0
0.0775546 -0.00126535 0
0.275512 -0.000237133 0
0.0502873 0.000898403 0
0.384016 0.00138297 0
0.343607 0.000613955 0
0.439323 -0.0203073 0
0.257941 0.000654043 0
-0.029855 -0.00551637 0
0.533614 -0.000171133 0
0.447342 -0.00756096 0
0.169959 0.000194426 0
-0.0462312 0.00314178 0
0.180196 -0.00525982 0
0.207218 -0.0110815 0
-0.0287488 -0.00343338 0
-0.0820571 0.00828521 0
0.189131 -0.00911971 0
-0.0636645 -0.00169818 0
0.123598 -0.000124958 0
0.0977382 0.000180211 0
0.159209 -0.00231092 0
0.575775 0.00395907 0
-0.0692214 -7.60735e-06 0
0.347196 0.000515378 0
0.118685 0.00044041 0
-0.0624496 -0.00939079 0
0.441884 -0.00209152 0
0.268483 -0.0154632 0
0.116476 -0.00151593 0
0.0744907 -0.000674303 0
0.275635 0.00102853 0
0.138627 0.00130618 0
0.0861442 -0.00132504 0
-0.00388829 -0.00531539 0
0.0135027 -0.00387841 0
0.318825 0.00143969 0
0.190584 -0.00285218 0
-0.0697049 -0.00269882 0
0.14566 -0.00230719 0
0.276747 -0.0136607 0
0.320269 2.34135e-05 0
0.120773 0.000314606 0
-0.0775392 0.000733378 0
0.0654249 -0.000995495 0
0.100194 -0.000269892 0
0.200674 -0.0105579 0
0.120356 -0.00183856 0
0.399931 -0.0092089 0
0.0945034 -0.000192442 0
0.0502296 0.000537088 0
-0.0656416 0.00133754 0
0.118083 0.000346567 0
0.35439 0.000337506 0
0.428233 -0.0221153 0
0.0876792 -0.000526319 0
0.0948612 0.000850302 0
0.0344004 -0.00306195 0
-0.078111 -0.000171222 0
0.177547 -0.000165798 0
0.123466 6.87214e-05 0
0.118605 0.00153242 0
0.015056 -0.00478462 0
0.772816 0.00285609 0
0.151409 -0.0025386 0
0.0293833 0.000787452 0
0.361733 0.00281313 0
-0.0531719 -0.0103334 0
0.441771 -0.00135539 0
0.0954032 -0.00420019 0
0.409654 0.00373195 0
0.398691 -0.00638225 0
0.106074 -0.000621668 0
-0.00283908 0.00486762 0
0.140794 -0.00542803 0
0.11294 0.000513115 0
0.20278 -0.000454962 0
0.366259 -0.000883376 0
0.050138 -0.00298648 0
0.103471 -1.7287e-05 0
-0.00280381 -0.0131144 0
-0.0513825 0.00424424 0
0.0934892 -0.000143138 0
0.272218 -0.000370816 0
0.023882 0.000315467 0
-0.0293806 0.00313855 0
0.0920211 -0.000125482 0
0.165984 0.000803541 0
-0.00524672 -0.00249666 0
0.42369 0.000101296 0
0.396496 0.00623787 0
0.111132 -0.00122281 0
0.0915857 0.000607281 0
0.160557 -0.000278303 0
-0.0934801 -0.00332793 0
-0.0845689 0.00738323 0
0.166523 0.000924281 0
0.146122 -0.00547827 0
0.170041 0.00260618 0
0.0805937 -0.00184931 0
0.434787 -0.00144438 0
0.633281 -0.00716158 0
0.169017 0.000668345 0
0.168501 -0.00253612 0
0.610749 0.000352943 0
0.0820897 0.00111042 0
0.107505 -0.0013032 0
0.109253 0.0014236 0
0.319358 0.000169609 0
0.344504 0.000604141 0
-0.0912981 -0.00435826 0
0.218768 -0.0107381 0
0.106234 0.000455079 0
-0.0135593 0.00127437 0
0.108643 0.000164957 0
0.292481 -0.00766424 0
0.837472 -0.0700786 0
0.352184 0.00351975 0
0.0919323 -0.000343638 0
-0.0603314 0.00196617 0
0.169724 -0.00118565 0
0.522382 0.00895419 0
0.156218 0.000715624 0
0.0440568 -0.00585225 0
0.0716897 0.00150464 0
0.420398 -0.00411912 0
0.555859 -0.00244407 0
0.436792 0.00266572 0
0.0381636 -0.00106822 0
0.298609 -0.00298245 0
0.0574475 -0.00213989 0
-0.00288076 0.00278755 0
0.0727883 0.000998595 0
0.040582 0.000811974 0
0.0616458 -0.0119547 0
0.355262 0.00206974 0
0.107137 0.00139627 0
0.114613 -0.000166442 0
0.0868512 0.000997326 0
0.0911166 -0.000213148 0
0.533174 0.000722744 0
0.138794 -0.00181984 0
0.270098 0.00138166 0
0.270526 0.000748366 0
0.148164 -0.00031486 0
0.149392 -0.00035293 0
0.196872 0.0026759 0
0.0747743 -0.0021357 0
0.0718935 -0.000398516 0
0.0962903 0.0013726 0
0.107212 0.0012293 0
0.271099 0.00105056 0
0.175177 -0.000897452 0
0.0869207 -0.000214341 0
0.138246 -0.00103403 0
0.0575338 -0.00344793 0
0.0721274 0.00213898 0
0.105289 0.000278098 0
0.591996 -0.00338573 0
0.514297 -0.000150521 0
0.60827 0.00129249 0
0.0924029 0.000242461 0
0.300371 -0.0032405 0
0.151393 0.000568209 0
0.0528951 0.00139299 0
0.264242 -0.0135274 0
0.0571507 -0.012859 0
0.422778 0.00141136 0
0.0943853 0.000820739 0
-0.0488152 -0.0108469 0
0.0494388 -2.96961e-05 0
0.110936 0.000307935 0
0.344588 0.00232714 0
0.409018 -0.00278226 0
0.172863 -0.000495577 0
0.631071 -0.00410176 0
0.612276 -0.0628601 0
0.100614 0.000232154 0
0.615286 0.000469339 0
0.0904782 -9.36553e-05 0
0.090879 -0.00298454 0
0.0269542 -0.000493806 0
0.084627 0.000819945 0
0.0939325 -5.18671e-05 0
0.110103 -0.00275376 0
0.409496 -0.000846571 0
0.093788 0.000495937 0
-0.0079138 -0.0130303 0
-0.0667092 -0.00872646 0
0.164563 0.00122328 0
0.0915179 0.000604495 0
0.2768 -0.000882674 0
0.45667 -0.00754049 0
0.275184 0.000539879 0
0.0945622 0.0017289 0
0.185462 -0.00893786 0
0.163711 -0.00190872 0
0.152568 0.000565639 0
0.166591 0.00200893 0
0.149541 6.35059e-05 0
-0.0604771 -0.00600954 0
0.617471 -0.00272779 0
0.105672 -0.000366772 0
0.987069 -0.0467284 0
0.152281 -0.000347683 0
0.114501 0.00142877 0
0.106796 0.00132216 0
0.278797 0.000715249 0
0.163539 0.000883758 0
0.0913759 4.9693e-05 0
0.961996 -0.0574524 0
0.352478 0.000939703 0
0.08834 -0.00451011 0
0.0915947 0.000222735 0
0.0918031 -0.000153519 0
0.270492 0.00121048 0
-0.0718099 0.00519451 0
0.0755585 -0.00243388 0
0.360808 -0.0106885 0
0.169837 0.000737117 0
0.353956 0.00236609 0
0.250373 0.00158059 0
0.107015 -0.000184644 0
0.0722436 0.000513591 0
0.167819 -0.00212448 0
0.0913144 0.000497174 0
0.168078 -0.000520511 0
0.977461 -0.0568826 0
0.0989208 0.000776013 0
0.0909247 -0.000130185 0
0.431426 0.00125124 0
0.35494 0.000239527 0
0.976963 -0.05812 0
0.0796937 0.000774901 0
0.223077 -0.000117513 0
0.405991 -0.00502608 0
-0.0732961 0.00220704 0
0.552135 -0.00294516 0
0.369785 -0.017738 0
0.111793 0.00137141 0
0.150002 0.000187354 0
0.165461 0.000996581 0
0.0889068 -0.00125034 0
0.0790865 -0.000495961 0
-0.0238131 0.00139079 0
0.697869 -0.0574706 0
0.156415 0.000181182 0
-0.034458 0.00528502 0
0.271439 -0.000557319 0
0.233158 -0.000169438 0
0.975727 -0.0601634 0
0.105629 0.00133605 0
0.149899 0.000454554 0
0.558216 -0.00460074 0
0.402926 0.00593858 0
0.36036 -0.000489711 0
0.268965 0.00156655 0
0.255292 0.00100008 0
0.156995 -0.00118575 0
0.0918592 0.000308971 0
0.341863 0.00241916 0
0.403932 0.00256006 0
0.324808 -0.00995616 0
0.340596 -0.00904279 0
0.601993 -0.00366537 0
0.190233 0.00220765 0
0.170689 0.00282257 0
0.145092 0.00259832 0
0.106671 -0.00125454 0
0.104773 0.000728917 0
0.185671 0.000369991 0
0.104148 -0.00058474 0
0.147342 -0.0045545 0
0.0917759 0.000399767 0
0.0795657 -0.00057498 0
0.0610214 -0.000122191 0
0.0896578 0.00136791 0
0.551977 -0.00248894 0
0.345591 -0.00244322 0
-0.00243759 0.0590935 0
0.344833 0.00297797 0
0.138888 -0.00651752 0
0.213702 -0.00628375 0
0.16505 -0.00156177 0
0.168187 -0.0093244 0
0.0917665 7.6251e-06 0
0.77859 -0.0683771 0
0.411902 -0.00474724 0
0.757923 0.00218605 0
0.170076 -0.000388698 0
0.14852 0.000632009 0
0.0882534 -0.000385494 0
0.529324 -0.00637231 0
0.383995 0.00254967 0
0.440428 0.000700412 0
-0.0701655 0.00303374 0
-0.013581 0.0586338 0
0.0903366 -3.06877e-05 0
0.151193 -0.000347149 0
0.160992 -0.000881527 0
0.252947 0.000184272 0
0.171963 0.000580945 0
0.205934 0.000444082 0
0.188199 0.00292026 0
0.150098 -0.000298182 0
0.165812 0.00191164 0
0.107916 -0.00160649 0
0.126714 -0.000534038 0
0.0108582 0.0411292 0
0.415172 -8.83141e-05 0
0.118563 -0.00534735 0
0.110048 0.00051375 0
0.044656 -0.002655 0
0.0911011 0.000230582 0
0.106833 0.00128093 0
0.414675 -0.00402736 0
0.165296 -0.000525153 0
0.270713 0.00159682 0
0.340914 -2.874e-05 0
0.611815 -0.00209768 0
0.169135 0.000830808 0
0.418056 -0.00892476 0
0.187427 0.00494095 0
0.271716 0.00145968 0
0.166296 0.000553886 0
0.400041 0.000286874 0
0.0915445 2.31592e-05 0
0.542957 -0.00399782 0
0.194973 -0.000871676 0
-0.000864813 0.0373542 0
-0.00541292 0.0426366 0
0.0913799 0.000136196 0
-0.0178256 0.0318929 0
0.0763851 -0.00138196 0
0.170642 -0.000424197 0
0.945711 -8.30406e-05 0
0.0932028 0.00184384 0
0.49471 -0.03877 0
0.208034 0.00124392 0
0.14731 0.000581188 0
0.102099 0.00067112 0
-0.0132559 0.026469 0
0.137621 -0.00114863 0
0.0917372 -0.00375709 0
0.36693 -0.0128361 0
0.902717 0.00177668 0
0.276138 0.000949701 0
0.166591 -0.00047638 0
0.165913 0.0012442 0
0.401225 0.00542591 0
0.221426 0.000498728 0
0.662398 -0.0814548 0
0.0754688 0.00206539 0
0.257449 0.000255519 0
0.106397 -0.00127019 0
-0.0747979 0.00183793 0
0.091297 0.000226293 0
0.165581 -0.000360829 0
0.392414 0.000673189 0
0.270026 0.00128728 0
0.254887 0.000922099 0
0.139684 0.00159329 0
0.403615 -0.00451121 0
0.0955616 0.00138094 0
0.608943 -0.061861 0
0.106126 0.00128707 0
-0.0561998 -0.00723445 0
0.578822 -0.0854992 0
-0.038178 -0.00547443 0
0.452274 0.000338193 0
-0.0230614 0.0232895 0
0.699733 -0.0682762 0
0.047895 0.00083598 0
0.606224 -0.0536332 0
0.0352183 -0.00122603 0
0.102871 0.000525772 0
0.58154 -0.0731198 0
0.946167 0.00023108 0
0.106723 -0.00124822 0
0.986051 -0.0501444 0
0.68137 -0.0885964 0
0.408046 0.000317181 0
0.30012 0.00677886 0
-0.0177354 0.0578125 0
0.0480577 0.000150025 0
-0.0076808 -0.00938875 0
0.221587 -0.000741657 0
0.984628 -0.0466519 0
0.0659111 0.00169207 0
0.0912457 0.000515008 0
0.0800556 -0.00304639 0
-0.0119769 0.0780338 0
0.120781 -0.00247825 0
0.0910005 0.00026429 0
0.147755 -2.09209e-05 0
-0.00320532 0.0218057 0
0.576327 -0.000693059 0
-0.0141693 0.0521737 0
-0.0160511 0.0745417 0
0.299709 1.34321e-05 0
0.107029 0.00174515 0
0.200947 -0.00254296 0
-0.0785778 0.00105381 0
0.957224 -0.0748594 0
0.469262 -0.00398091 0
-0.0446303 0.0402594 0
0.0325189 -0.000267602 0
0.144832 -0.000117826 0
0.086747 0.000316564 0
0.193117 -0.000100689 0
0.109363 -0.00115684 0
0.308018 0.00250028 0
0.608125 -0.0806368 0
0.273336 -0.000222867 0
0.0653387 0.000207894 0
0.377073 -0.0434721 0
0.456909 -0.0136152 0
0.0876777 -0.00109647 0
-0.0536504 0.004471 0
0.069683 -0.00466552 0
0.106608 -0.00132583 0
0.109371 0.00119683 0
-0.0194059 0.00109536 0
0.504858 -0.00306342 0
0.0459987 -0.00164722 0
0.276411 -0.00102159 0
0.222609 -0.00226605 0
0.48744 -0.010489 0
0.496424 -0.0449443 0
0.100712 0.000775278 0
0.166799 -0.000706523 0
0.406338 0.00324026 0
0.165525 -0.00165957 0
0.167312 0.000699147 0
0.13488 9.95203e-05 0
0.344002 0.0024934 0
0.790217 -0.0842288 0
0.0790613 0.00160622 0
0.107701 0.00121813 0
0.15725 -0.00783133 0
0.0913735 0.000115994 0
0.477321 -0.00280363 0
0.245234 -0.00563902 0
0.978084 -0.0548034 0
0.0897608 0.000315456 0
0.105154 0.00132413 0
0.118657 0.000938282 0
0.165685 0.000705124 0
0.274729 -0.000389199 0
0.134762 0.00155772 0
0.163259 0.00203012 0
-0.0282709 0.00948487 0
0.102349 -0.000224067 0
0.164296 0.00176354 0
0.595439 -0.00419118 0
0.0467321 0.000403149 0
-0.0143037 0.0693525 0
0.0261818 0.000942185 0
0.255975 0.00213878 0
0.0552065 -0.00287575 0
0.0759394 -0.00206072 0
0.138655 -0.00160031 0
0.0896959 0.000138027 0
0.272225 0.00106452 0
0.151803 -0.00525906 0
0.269972 -0.0138505 0
0.0383272 -0.00135783 0
0.183694 -0.00176398 0
0.0920202 0.00207148 0
0.166328 0.00153054 0
0.106776 -0.00126169 0
0.106231 0.0013421 0
0.547678 -0.000421076 0
0.58942 0.00305766 0
0.215827 -0.0067342 0
0.409149 -0.00352088 0
0.958786 -0.0598236 0
-0.0165269 0.0381268 0
0.221304 0.000329371 0
0.252884 -0.000126381 0
-0.00448748 0.0652618 0
0.0842318 -0.00123605 0
0.312682 -0.00635582 0
-0.0676073 -0.00322763 0
0.0470446 0.00059276 0
0.11331 0.000734328 0
-0.0572029 0.00254078 0
0.260831 -0.000727565 0
-0.0304896 0.0342479 0
-0.0126832 0.074454 0
0.0195388 -0.00104294 0
0.700358 -0.0618901 0
0.633724 0.00156112 0
0.0938928 -0.00152225 0
-0.080118 0.000891743 0
0.71014 -0.101667 0
0.890682 -0.067983 0
0.165951 -0.00153978 0
0.962832 -0.0677247 0
-0.0322542 -0.00188921 0
0.162434 0.000188212 0
0.161057 7.78976e-05 0
0.046383 -0.000449646 0
-0.0118163 0.0530258 0
0.933385 -0.057143 0
0.0352274 -0.000248072 0
0.104347 -0.00209076 0
0.409108 0.00400089 0
0.0896803 0.000302711 0
0.00568006 0.0471952 0
0.894519 -0.100739 0
0.295893 -0.0180293 0
0.1059 -0.0013449 0
0.0702677 -0.00059949 0
0.965458 -0.0652059 0
0.269706 0.002527 0
0.964477 -0.0546843 0
0.338981 0.001497 0
0.193911 -0.0106758 0
0.0653598 -0.00235887 0
0.115508 -0.000364305 0
0.645638 -0.0935623 0
0.158001 -0.000336673 0
0.859588 0.00180212 0
0.72828 0.00153104 0
0.0927559 -0.00123954 0
0.10559 0.0015226 0
0.591312 -0.000490124 0
0.525074 -0.00717403 0
0.0515494 -0.000650972 0
0.598399 0.00222837 0
0.104825 -0.00124961 0
0.0779786 0.0027077 0
0.845599 -0.104528 0
0.895031 -0.098726 0
0.24869 -0.0095089 0
-0.033029 0.0417794 0
0.347182 -0.000539003 0
0.103628 0.000915407 0
0.102616 0.000591206 0
0.807877 -0.103263 0
0.102381 -0.00235547 0
-0.0288684 0.0305922 0
0.0918924 0.000416272 0
0.106413 0.0011527 0
-0.0449489 0.0370203 0
0.147656 -0.000928934 0
0.162612 -0.00238258 0
0.169592 0.00182177 0
0.0989531 8.95915e-05 0
0.0582173 0.00095647 0
0.0049057 -0.00577504 0
0.370327 0.000295276 0
0.00910258 -0.00663061 0
0.606042 -0.0473524 0
0.932149 -0.0622117 0
0.878455 -0.101267 0
0.87836 -0.102448 0
0.891849 -0.102244 0
0.61158 0.000366802 0
1.00138 0.00021559 0
0.226739 -0.0124882 0
0.155721 0.000878048 0
0.669917 -0.0834275 0
0.533851 -0.0142101 0
0.99458 0.000222623 0
0.946965 5.63424e-06 0
-0.0206944 0.0200806 0
0.498253 -0.0543055 0
0.0986549 -0.000412899 0
0.0898054 -0.000285832 0
0.0895415 0.000626023 0
0.419127 0.00288227 0
0.0743206 -0.00212715 0
-0.0150231 0.0200646 0
0.165337 -0.000572826 0
0.372564 -0.0437879 0
0.837028 -0.0969162 0
0.164733 -0.000130962 0
0.879441 -0.105431 0
0.687545 -0.0905633 0
-0.0888435 -0.00261414 0
-0.0200905 0.00304649 0
-0.0683698 0.00278793 0
0.999771 0.000204229 0
0.0899803 0.00158385 0
0.959152 -0.0726897 0
0.865425 -0.107722 0
-0.00729559 0.0258531 0
0.860053 -0.102851 0
0.572455 -0.0707036 0
0.0503462 -0.000156097 0
0.0478698 0.00103255 0
0.160843 -0.000136225 0
0.0946271 -0.0030791 0
0.649672 -0.0958372 0
0.180739 0.00131307 0
0.0252315 0.000511919 0
0.0089493 0.0112425 0
-0.00052489 0.0036092 0
0.8125 -0.0965825 0
0.0661873 -0.00266513 0
0.140645 0.00119319 0
0.22462 -0.00153631 0
0.601174 -0.0786027 0
0.85477 -0.103362 0
0.0192454 0.00407584 0
0.784573 -0.0823398 0
0.0950259 0.00132043 0
0.0322796 -0.0151722 0
0.00552577 0.0143179 0
0.065168 -0.000956901 0
0.570085 -0.0833562 0
0.94695 -0.000101937 0
0.00425388 0.000413366 0
0.130562 -0.000347737 0
-0.0202003 0.0189568 0
0.624223 -0.0867834 0
0.833805 -0.103696 0
-0.0930473 0.0176382 0
0.774662 -0.0544619 0
0.0278152 -0.0228133 0
0.602521 0.00113307 0
0.0840282 -0.00142022 0
0.811334 -0.108808 0
0.794027 -0.101801 0
0.105374 -0.00119969 0
0.13761 0.00173746 0
0.0414597 0.00388799 0
0.180856 0.00103853 0
0.105166 0.00105983 0
0.227913 -0.000103911 0
0.0100017 0.0720516 0
0.229196 0.00212787 0
0.0523653 -0.0243885 0
0.415375 0.00802476 0
0.105882 -0.000650125 0
0.0851964 -0.0291513 0
0.047665 -0.0310213 0
0.138209 0.00121592 0
0.390894 -0.0300352 0
-0.026039 0.00697016 0
0.761026 -0.103841 0
-0.0903584 0.0206168 0
0.0632399 -0.0194508 0
0.160425 0.00133792 0
0.0498486 -0.00905926 0
0.0691391 -0.0387837 0
0.149443 0.000811945 0
0.0580041 -0.00139535 0
0.142632 -0.00146128 0
0.11022 -0.00100639 0
0.830975 -0.0616596 0
0.164871 -0.0016374 0
0.165346 0.000258922 0
0.0917445 -0.0459366 0
0.0883483 -0.000165299 0
-0.0785063 0.000599687 0
0.745256 -0.0548629 0
0.162521 -0.00134237 0
0.105788 -0.00132843 0
0.11528 -0.0523882 0
0.0590933 -0.027295 0
0.250219 -0.000494293 0
0.07797 0.00107314 0
0.0793552 -0.00213382 0
0.192595 -0.0674747 0
-0.0988396 0.0132383 0
0.101711 -0.00207283 0
0.105016 -0.000395157 0
0.0805596 -0.0359433 0
0.99434 0.000173759 0
0.216333 -0.071243 0
0.406155 -0.00461034 0
0.178399 -0.0275265 0
0.109606 -0.000887304 0
0.103547 -0.000501395 0
0.255387 -0.0775468 0
0.804487 -0.0631982 0
0.103529 -0.0441301 0
0.429224 -0.000474462 0
0.127285 -0.0516335 0
0.15163 -0.0583514 0
0.231634 -0.0737134 0
-0.0160343 0.0695817 0
0.110738 -0.00121577 0
0.978249 -0.000121535 0
0.105203 0.00213941 0
0.10585 0.000998441 0
0.716283 -0.0559114 0
0.632924 -0.0884493 0
-0.0999699 0.00858702 0
-0.0375737 0.0181562 0
-0.0496043 0.0225061 0
0.00484465 0.0805904 0
0.336111 -0.00637475 0
0.203593 -0.00103658 0
-0.0587523 -0.00230721 0
0.278367 -0.0800609 0
0.891112 -0.0997993 0
0.789719 -0.107078 0
0.946359 0.000262804 0
-0.0912669 0.0145191 0
0.144566 0.00123111 0
-0.0136688 0.0650662 0
0.116227 0.000766201 0
0.765643 -0.123688 0
0.775705 -0.0645842 0
0.586825 -0.00310858 0
0.389195 0.00536186 0
0.756724 -0.0978641 0
0.873899 -0.101956 0
0.139685 -0.00226954 0
-0.0980558 0.00389561 0
0.144981 0.00092087 0
0.807207 -0.101259 0
0.331421 0.00299048 0
0.685852 -0.055778 0
0.443374 0.00241295 0
-0.0320617 0.0186874 0
0.0779087 0.00103766 0
0.217247 0.00239327 0
0.340035 0.00911075 0
0.830201 -0.0970262 0
0.25776 -0.00175117 0
0.746813 -0.0440595 0
0.0716701 0.000374298 0
0.121843 0.00032312 0
0.746101 -0.125249 0
0.0534203 -0.00477265 0
0.75698 -0.122286 0
0.742283 -0.124762 0
-0.0906523 0.00904497 0
0.252154 -0.00319221 0
0.882339 -0.104337 0
0.0936211 0.000133486 0
0.805048 -0.0963457 0
0.691369 -0.0360504 0
0.746259 -0.0648071 0
-0.016189 0.000109732 0
0.811018 -0.102898 0
0.111744 0.0214953 0
0.946311 -0.00027218 0
0.0894594 0.00012626 0
-0.0877521 0.0220348 0
-0.0933777 -0.000807883 0
0.869014 -0.10697 0
0.0427552 0.000555394 0
0.817721 -0.103149 0
0.0985094 0.00034571 0
0.019833 -0.00894079 0
0.470586 -0.00905589 0
0.65445 -0.0547915 0
0.335873 0.00175439 0
0.729628 -0.121023 0
0.0926472 0.0300575 0
-0.0870228 0.00351142 0
0.0423005 0.00124962 0
0.0983351 -0.00215315 0
-0.0770795 -0.000314052 0
0.976719 -3.59846e-05 0
0.0382935 -0.0182164 0
-0.0135992 0.0336497 0
0.7006 -0.0351168 0
0.0146897 -0.0059781 0
0.336673 -0.00625394 0
0.978036 0.000174257 0
-0.0439381 0.0230614 0
0.301236 -0.0531431 0
0.786837 -0.101299 0
0.0338699 -0.0255693 0
0.892002 -0.0636174 0
-0.0857205 -0.00582499 0
0.801242 -0.0517748 0
0.177195 0.00187558 0
0.708768 -0.120286 0
0.83978 -0.103562 0
0.766344 -0.0548461 0
-0.0955945 0.0165891 0
0.715317 -0.0642948 0
0.200007 -0.0686821 0
0.714307 -0.123449 0
0.817072 -0.109044 0
0.324942 0.00814339 0
0.175459 -0.0640036 0
0.0543399 -0.0336351 0
0.122435 -0.0541371 0
0.076125 -0.041176 0
0.0990121 -0.0480855 0
-0.0086671 0.00454263 0
0.351992 -0.0604873 0
0.170011 -0.0237702 0
0.269781 -0.000125236 0
0.168115 -0.062462 0
0.139959 -0.000522081 0
0.223776 -0.072141 0
0.903373 -0.000201141 0
-0.0757137 -0.0106656 0
0.700223 -0.0952896 0
0.195152 -0.00451091 0
-0.094874 0.0177671 0
0.146279 -0.000294642 0
-0.0964183 0.0162212 0
-0.0806245 -0.00201168 0
0.248248 -0.0766316 0
0.947808 -0.000180482 0
-0.00765961 0.000844128 0
0.719846 -0.117078 0
0.266724 0.000843431 0
0.251221 0.000918687 0
0.735797 -0.0554752 0
0.94824 0.00015348 0
0.992532 0.000137947 0
0.224048 -0.0722915 0
0.675391 -0.0872346 0
0.623254 -0.0541143 0
0.413764 -0.000478949 0
0.729559 -0.114347 0
0.726564 -0.10891 0
-0.0631368 -0.0153849 0
0.99614 0.000106661 0
-0.0119555 0.00816987 0
0.143993 -0.056383 0
0.0568832 -0.016356 0
0.177678 0.000634233 0
0.759143 -0.102038 0
0.924927 -0.00683143 0
-0.0711836 -0.0077393 0
0.119817 -0.0493768 0
0.180057 0.000752336 0
0.180977 0.000186267 0
0.139731 -0.000273036 0
0.793019 -0.0526588 0
0.7543 -0.121596 0
0.0779705 -0.0260491 0
0.34192 0.00147446 0
0.962671 -0.00653663 0
0.00554173 -0.00343319 0
0.156957 -0.000244098 0
0.671486 -0.0356804 0
0.331782 -0.0635306 0
0.096278 -0.0416258 0
0.68378 -0.0634207 0
-0.00988057 0.00304953 0
-0.0994 0.0116774 0
0.722722 -0.107835 0
0.209786 -0.0679669 0
0.271385 -0.0794858 0
0.382589 -0.0705035 0
-0.0481199 -0.0199555 0
0.0219775 -0.000349213 0
0.83848 -0.0604741 0
0.707173 -0.0971173 0
0.345425 0.000567016 0
0.70687 -0.0560286 0
0.667384 -0.102589 0
-0.0594994 -0.0133423 0