# vtk DataFile Version 3.0
Malha 2D com triângulos e temperatura
ASCII
DATASET UNSTRUCTURED_GRID

POINTS 627 double
0.5 0 0
10 0 0
10 1 0
0 1 0
0 0.5 0
0.5 0.5 0
0.648437 0 0
0.796875 0 0
0.945312 0 0
1.09375 0 0
1.24219 0 0
1.39062 0 0
1.53906 0 0
1.6875 0 0
1.83594 0 0
1.98437 0 0
2.13281 0 0
2.28125 0 0
2.42969 0 0
2.57812 0 0
2.72656 0 0
2.875 0 0
3.02344 0 0
3.17187 0 0
3.32031 0 0
3.46875 0 0
3.61719 0 0
3.76562 0 0
3.91406 0 0
4.0625 0 0
4.21094 0 0
4.35937 0 0
4.50781 0 0
4.65625 0 0
4.80469 0 0
4.95312 0 0
5.10156 0 0
5.25 0 0
5.39844 0 0
5.54687 0 0
5.69531 0 0
5.84375 0 0
5.99219 0 0
6.14062 0 0
6.28906 0 0
6.4375 0 0
6.58594 0 0
6.73437 0 0
6.88281 0 0
7.03125 0 0
7.17969 0 0
7.32812 0 0
7.47656 0 0
7.625 0 0
7.77344 0 0
7.92187 0 0
8.07031 0 0
8.21875 0 0
8.36719 0 0
8.51562 0 0
8.66406 0 0
8.8125 0 0
8.96094 0 0
9.10937 0 0
9.25781 0 0
9.40625 0 0
9.55469 0 0
9.70312 0 0
9.85156 0 0
10 0.142857 0
10 0.285714 0
10 0.428571 0
10 0.571429 0
10 0.714286 0
10 0.857143 0
9.85075 1 0
9.70149 1 0
9.55224 1 0
9.40299 1 0
9.25373 1 0
9.10448 1 0
8.95522 1 0
8.80597 1 0
8.65672 1 0
8.50746 1 0
8.35821 1 0
8.20896 1 0
8.0597 1 0
7.91045 1 0
7.76119 1 0
7.61194 1 0
7.46269 1 0
7.31343 1 0
7.16418 1 0
7.01493 1 0
6.86567 1 0
6.71642 1 0
6.56716 1 0
6.41791 1 0
6.26866 1 0
6.1194 1 0
5.97015 1 0
5.8209 1 0
5.67164 1 0
5.52239 1 0
5.37313 1 0
5.22388 1 0
5.07463 1 0
4.92537 1 0
4.77612 1 0
4.62687 1 0
4.47761 1 0
4.32836 1 0
4.1791 1 0
4.02985 1 0
3.8806 1 0
3.73134 1 0
3.58209 1 0
3.43284 1 0
3.28358 1 0
3.13433 1 0
2.98507 1 0
2.83582 1 0
2.68657 1 0
2.53731 1 0
2.38806 1 0
2.23881 1 0
2.08955 1 0
1.9403 1 0
1.79104 1 0
1.64179 1 0
1.49254 1 0
1.34328 1 0
1.19403 1 0
1.04478 1 0
0.895522 1 0
0.746269 1 0
0.597015 1 0
0.447761 1 0
0.298507 1 0
0.149254 1 0
0 0.875 0
0 0.75 0
0 0.625 0
0.125 0.5 0
0.25 0.5 0
0.375 0.5 0
0.5 0.375 0
0.5 0.25 0
0.5 0.125 0
9.87628 0.5 0
9.3252 0.137839 0
8.88821 0.130313 0
8.45143 0.139287 0
8.01034 0.139467 0
7.55156 0.114709 0
7.09867 0.131588 0
6.63914 0.126938 0
6.20275 0.125836 0
5.76473 0.124784 0
5.32478 0.128522 0
4.87639 0.110285 0
4.44082 0.118367 0
3.99267 0.110023 0
3.5337 0.141155 0
3.09495 0.127932 0
2.63441 0.123598 0
2.20141 0.121056 0
1.76115 0.125347 0
1.32602 0.132448 0
0.984858 0.869514 0
0.610109 0.436579 0
1.58616 0.860636 0
2.01836 0.868049 0
2.46269 0.870742 0
2.89768 0.856444 0
3.37957 0.850976 0
3.81375 0.872695 0
4.24154 0.885204 0
4.71221 0.879621 0
5.15525 0.873493 0
5.59703 0.875348 0
6.04276 0.877788 0
6.47556 0.869651 0
6.91861 0.866008 0
7.39252 0.863864 0
7.83539 0.873555 0
8.28046 0.870625 0
8.72929 0.882823 0
9.1791 0.870742 0
1.26993 0.87535 0
9.47761 0.870742 0
1.02045 0.124275 0
0.609319 0.564345 0
0.7246 0.500472 0
9.62891 0.128551 0
0.3125 0.608253 0
0.722819 0.370188 0
0.841139 0.432407 0
0.723435 0.638699 0
0.519721 0.873513 0
9.77859 0.861407 0
0.216125 0.87115 0
0.608583 0.19057 0
9.88922 0.216466 0
0.843726 0.29515 0
0.96037 0.36077 0
0.963482 0.501423 0
1.08755 0.423611 0
1.08797 0.571465 0
1.21232 0.497657 0
0.117887 0.685919 0
0.498086 0.628286 0
1.20891 0.353473 0
1.33698 0.42372 0
1.33769 0.570678 0
1.46308 0.491719 0
1.46259 0.347348 0
1.59158 0.418833 0
1.59455 0.56572 0
1.72134 0.491207 0
1.72719 0.639517 0
1.85152 0.56383 0
1.84876 0.415525 0
1.97855 0.487875 0
1.97633 0.339364 0
2.10611 0.411733 0
2.10821 0.560387 0
2.23595 0.484181 0
2.23804 0.632973 0
2.36583 0.556705 0
2.36369 0.407933 0
2.49358 0.480428 0
2.49062 0.333096 0
2.6204 0.405792 0
2.62335 0.55321 0
2.75109 0.476952 0
2.75342 0.625571 0
2.88122 0.549194 0
2.87895 0.400373 0
3.00899 0.472781 0
3.00948 0.618636 0
3.13758 0.542791 0
3.13763 0.397885 0
3.26551 0.466735 0
3.26556 0.321858 0
3.39446 0.392458 0
3.39696 0.540625 0
3.52455 0.464735 0
3.52893 0.613533 0
3.6549 0.537195 0
3.65231 0.388409 0
3.7823 0.460788 0
3.13773 0.714719 0
3.77928 0.313198 0
3.90919 0.385717 0
3.91214 0.533388 0
4.03983 0.456972 0
4.04227 0.605634 0
4.16998 0.529122 0
4.16762 0.380317 0
4.29771 0.452591 0
4.30092 0.599933 0
4.42797 0.524643 0
4.43121 0.672001 0
4.55813 0.596879 0
4.55553 0.448322 0
4.68566 0.520597 0
4.68319 0.371848 0
4.81329 0.444112 0
4.81574 0.592932 0
4.94342 0.516385 0
4.9458 0.665268 0
5.07033 0.583437 0
5.07055 0.438953 0
5.19745 0.505825 0
5.19802 0.362088 0
5.32811 0.434243 0
5.3165 0.599487 0
5.4543 0.506576 0
5.45642 0.358883 0
5.5858 0.430878 0
5.58925 0.568647 0
5.71665 0.501328 0
5.71405 0.636984 0
5.84604 0.572576 0
5.8442 0.425792 0
5.97439 0.498297 0
5.97188 0.349754 0
6.10207 0.421956 0
6.10468 0.570771 0
6.23229 0.49414 0
6.2349 0.643007 0
6.36249 0.566292 0
6.35987 0.417473 0
6.49005 0.489574 0
6.48712 0.341269 0
6.61727 0.413405 0
6.62018 0.561759 0
6.74772 0.485036 0
6.75045 0.633817 0
6.87802 0.557023 0
6.87531 0.408214 0
7.00558 0.48023 0
7.00971 0.626526 0
7.13612 0.55184 0
7.14028 0.69812 0
7.26649 0.623741 0
7.26345 0.475376 0
7.39376 0.547365 0
7.39096 0.398629 0
7.52124 0.470624 0
7.52399 0.619474 0
7.65149 0.542623 0
7.64871 0.393824 0
7.77894 0.465774 0
7.77595 0.317323 0
7.90617 0.389281 0
7.90916 0.537777 0
8.0366 0.460921 0
8.03948 0.609706 0
8.16694 0.53279 0
8.16407 0.384003 0
8.2944 0.455874 0
8.29864 0.602218 0
8.42499 0.527347 0
8.42927 0.673676 0
8.55542 0.599103 0
8.55223 0.450746 0
8.68259 0.522587 0
8.67962 0.373877 0
8.80996 0.445721 0
8.81288 0.594542 0
8.94032 0.517577 0
8.94327 0.666442 0
9.06695 0.583218 0
9.06711 0.439583 0
9.19356 0.504959 0
9.1942 0.3623 0
9.32427 0.434071 0
9.32675 0.569154 0
9.45792 0.498112 0
9.44963 0.36208 0
9.58126 0.429609 0
9.58807 0.570007 0
7.6529 0.689174 0
5.06739 0.291169 0
7.26168 0.328253 0
5.83156 0.734154 0
5.58398 0.282324 0
9.06668 0.295021 0
0.96112 0.637198 0
3.6556 0.683277 0
2.62784 0.697907 0
8.28952 0.310714 0
1.07316 0.73116 0
1.58948 0.271685 0
1.85098 0.707931 0
7.00881 0.339043 0
6.87999 0.253808 0
4.29177 0.303438 0
3.90684 0.672109 0
4.03335 0.755362 0
8.55799 0.745174 0
4.16358 0.238402 0
4.54351 0.312603 0
4.66344 0.229329 0
6.62805 0.707319 0
6.76788 0.781099 0
7.38706 0.259818 0
3.52904 0.76259 0
8.53854 0.277602 0
8.67223 0.238155 0
2.36479 0.267645 0
6.36161 0.276114 0
6.38113 0.734183 0
6.25375 0.775419 0
8.15514 0.235205 0
7.91111 0.677806 0
8.05245 0.758312 0
6.49515 0.203384 0
3.39548 0.242242 0
2.37761 0.729427 0
2.24064 0.770744 0
4.55475 0.736063 0
4.44722 0.821643 0
6.11503 0.257189 0
5.97933 0.223529 0
2.75856 0.771358 0
1.72552 0.78383 0
2.49394 0.197379 0
3.25698 0.157289 0
4.80097 0.75348 0
4.93608 0.821326 0
7.52672 0.767551 0
9.70649 0.501261 0
9.69583 0.642024 0
9.69681 0.358379 0
9.5714 0.72344 0
2.11813 0.248921 0
1.97909 0.183589 0
9.08461 0.738703 0
8.95037 0.820123 0
7.66752 0.849914 0
9.19231 0.220039 0
2.62074 0.856256 0
7.25627 0.156893 0
1.46505 0.20699 0
8.28907 0.156017 0
0.369426 0.87423 0
0.310544 0.740563 0
5.18662 0.215404 0
3.64993 0.239686 0
3.77336 0.169361 0
8.43198 0.844618 0
5.46423 0.212966 0
7.26893 0.773269 0
1.85846 0.860737 0
1.12807 0.87378 0
0.667186 0.874914 0
0.597076 0.727125 0
0.828937 0.852648 0
9.04978 0.140208 0
7.14866 0.837429 0
1.16644 0.124409 0
1.08962 0.262193 0
0.857821 0.146177 0
3.65661 0.850323 0
7.63251 0.234981 0
7.77326 0.168343 0
9.62753 0.871125 0
9.43712 0.747606 0
9.33139 0.834394 0
9.22008 0.751838 0
1.42116 0.870213 0
1.48478 0.762094 0
9.56765 0.268076 0
1.34052 0.729941 0
9.31986 0.292668 0
9.48273 0.12859 0
7.51189 0.329293 0
5.32644 0.286691 0
4.04107 0.318092 0
8.42196 0.378898 0
7.1343 0.404971 0
4.42227 0.380437 0
6.22977 0.345336 0
3.52507 0.311448 0
8.93974 0.372683 0
4.94256 0.370609 0
6.74483 0.341052 0
8.02914 0.308475 0
8.81316 0.274407 0
4.80753 0.307382 0
5.83727 0.260085 0
5.71428 0.354386 0
1.8378 0.249596 0
2.74491 0.335584 0
2.87671 0.251555 0
3.01086 0.332254 0
2.24077 0.341297 0
3.05966 0.870765 0
3.21307 0.863006 0
3.28215 0.743281 0
5.29949 0.871243 0
5.23411 0.742158 0
5.3749 0.742309 0
5.44822 0.871748 0
5.5252 0.762916 0
5.89697 0.875702 0
5.7483 0.875696 0
1.71893 0.343462 0
5.04439 0.135707 0
6.95518 0.121859 0
4.28751 0.145352 0
5.60363 0.134791 0
8.68158 0.664322 0
5.97236 0.644492 0
2.49576 0.629188 0
8.17893 0.67134 0
6.89069 0.704514 0
4.17118 0.670427 0
2.88349 0.697986 0
2.10014 0.729492 0
3.78145 0.604736 0
4.67969 0.662031 0
6.49271 0.638368 0
7.3954 0.699211 0
7.77998 0.610443 0
1.9805 0.63641 0
8.80465 0.756802 0
6.1095 0.734983 0
1.33701 0.283132 0
9.88043 0.357237 0
9.88014 0.64258 0
5.08024 0.743753 0
1.2102 0.644263 0
0.103605 0.807634 0
0.439462 0.750743 0
3.95707 0.882883 0
6.80447 0.120261 0
1.6008 0.131146 0
7.89548 0.238987 0
8.13239 0.883223 0
0.609604 0.311282 0
2.7983 0.119239 0
6.61981 0.274168 0
2.94833 0.118451 0
0.703706 0.111429 0
6.63707 0.859072 0
0.842306 0.569423 0
0.837411 0.702623 0
6.364 0.131996 0
4.58426 0.109524 0
9.78076 0.137743 0
3.91923 0.229763 0
9.89125 0.780405 0
6.33184 0.880681 0
2.61598 0.2655 0
2.36156 0.127215 0
4.30314 0.762546 0
8.5942 0.1274 0
4.10234 0.885772 0
0.190293 0.593004 0
7.13631 0.264252 0
3.40389 0.687987 0
3.13618 0.258568 0
7.98467 0.885303 0
8.58682 0.879838 0
3.26523 0.609655 0
4.58026 0.868261 0
7.41143 0.121871 0
6.05312 0.11971 0
7.78537 0.749554 0
8.30837 0.738634 0
7.02541 0.771558 0
2.15406 0.878437 0
3.39472 0.10969 0
0.7258 0.759112 0
2.32273 0.878278 0
0.94955 0.234368 0
8.74773 0.12373 0
4.83015 0.890885 0
0.716111 0.245352 0
3.77838 0.742576 0
2.99761 0.75171 0
3.50746 0.892043 0
4.92986 0.235274 0
8.14453 0.10651 0
1.61834 0.715396 0
4.13327 0.11112 0
2.08316 0.110713 0
4.73047 0.104768 0
5.4784 0.643858 0
8.3981 0.252503 0
8.95151 0.242526 0
7.53228 0.896266 0
1.45967 0.625869 0
9.69385 0.235693 0
9.05476 0.885914 0
5.67168 0.768972 0
1.20266 0.768201 0
2.51257 0.754942 0
4.40935 0.251625 0
9.69404 0.76228 0
5.69764 0.230639 0
2.76085 0.898772 0
5.97063 0.773424 0
6.79104 0.900864 0
3.66796 0.110041 0
1.96169 0.760524 0
9.43238 0.239203 0
1.87967 0.111706 0
7.25754 0.894912 0
5.18147 0.0959265 0
1.22248 0.234816 0
9.18445 0.0961069 0
5.9005 0.116628 0
6.19403 0.904833 0
8.8491 0.89195 0
[...]
CELL_DATA 1102
SCALARS pressure double 1
LOOKUP_TABLE default
0
0.203517
0.113834
0.522698
0.154108
0.65081
0.706263
0.549742
0.127744
0.257152
0.829772
0.649107
0.2526
0.506088
0.122062
0.538523
0.12182
0.671832
0.840574
0.697625
0.173001
0.235449
0.516492
0.54494
0.224358
0.70121
0.207267
0.0934523
0.0517622
0.498643
0.615576
0.365021
0.181776
0.151645
0.340978
0.566442
0.696263
0.636325
0.280264
0.556274
0.0389643
0.112732
0.19663
0.0809485
0.0349969
0.50706
0.13451
0.672968
0.312928
0.128385
0.300284
0.537284
0.66826
0.280762
0.209796
0.661127
0.154102
0.512886
0.0344783
0.229802
0.0593853
0.605415
0.347395
0.676533
0.523696
0.359834
0.758299
0.685391
0.60255
0.269363
0.374062
0.625523
0.435352
0.645364
0.084244
0.0417077
0.706551
0.293092
0.0995332
0.126231
0.435407
0.50848
0.233947
0.381259
0.487732
0.596193
0.321431
0.0844575
0.260078
0.106199
0.0412582
0.794184
0.0787122
0.670561
0.0760327
0.211926
0.737531
0.301983
0.693286
0.17423
0.102731
0.425466
0.575805
0.523397
0.416157
0.695019
0.050654
0.0607534
0.523385
0.623461
0.790177
0.646142
0.29243
0.625141
0.687076
0.706254
0.270623
0.591085
0.661445
0.0799214
0.62793
0.143247
0.565792
0.203948
0.65246
0.720548
0.545353
0.662898
0.42778
0.698889
0.339485
0.718843
0.204578
0.338137
0.101844
0.689363
0.0382712
0.842513
0.210221
0.393365
0.0600104
0.399552
0.840193
0.283828
0.641305
0.406129
0.770649
0.531018
0.598543
0.409957
0.68108
0.932663
0.713936
0.938596
0.631706
0.175565
0.170183
1.0016
0.0672805
0.221825
0.76311
0.245471
0.723014
0.214237
0.113297
0.207554
0.717135
0.683275
0.802969
0.302463
0.676657
0.714257
0.70554
0.601387
0.688254
0.691269
0.669436
0.700673
0.885068
0.0492776
0.736977
0.0343404
0.352448
0.669052
0.676917
0.671646
0.671034
0.667612
0.664403
0.0164228
0.0222983
0.0315544
0.0247687
0.723117
0.667979
0.672989
0.7328
0.680384
0.0308929
0.0400165
0.0496054
0.0274121
0.648269
0.0509177
0.48543
0.0445151
0.0393347
0.0584021
0.0342226
0.0329134
0.0450395
0.0341815
0.0541407
0.0269428
0.059631
0.323472
0.0241661
0.196211
0.349335
0.131098
0.219468
0.31342
0.433448
0.267156
0.518357
0.0538666
0.555671
0.674388
0.0600515
0.531496
0.632274
0.331776
0.0988364
0.124714
0.217822
0.305594
0.425246
0.258455
0.461606
0.5104
0.397993
0.53319
0.641142
0.192775
0.341377
0.666154
0.0732127
0.366341
0.219492
0.14573
0.332122
0.285281
0.0909531
0.064014
0.385133
0.304322
0.571336
0.0700667
0.204426
0.277915
0.107028
0.133044
0.174444
0.198789
0.241546
0.354618
0.400782
0.485378
0.0921191
0.345792
0.317582
0.0794116
0.390691
0.579407
0.274667
0.323942
0.408473
0.362429
0.445667
0.290912
0.246151
0.180393
0.222166
0.206598
0.140738
0.111915
0.492951
0.533923
0.0838724
0.373721
0.22273
0.151864
0.0643316
0.154957
0.224417
0.378086
0.615361
0.607699
0.0730396
0.625829
0.339749
0.26846
0.104352
0.174513
0.134715
0.202947
0.217915
0.238426
0.316506
0.282192
0.52369
0.353783
0.401496
0.437146
0.485684
0.536664
0.560806
0.0703607
0.558982
0.548354
0.317556
0.347471
0.292593
0.50702
0.455373
0.42033
0.184207
0.301325
0.253507
0.217421
0.337234
0.328678
0.12091
0.189018
0.607402
0.0735675
0.114225
0.144622
0.215429
0.216796
0.245822
0.293697
0.365757
0.413104
0.448919
0.498333
0.548572
0.664704
0.57211
0.584161
0.539686
0.285733
0.0613355
0.0980578
0.664613
0.168375
0.437462
0.483032
0.568161
0.642514
0.24254
0.527816
0.607178
0.21528
0.221879
0.398861
0.130577
0.357043
0.311073
0.269244
0.659748
0.618567
0.567921
0.61838
0.0403421
0.497656
0.447989
0.413598
0.329371
0.292472
0.248726
0.2082
0.182248
0.113132
0.553576
0.324914
0.339231
0.297873
0.100141
0.171033
0.199834
0.234557
0.277352
0.34872
0.397562
0.482055
0.532029
0.180685
0.11077
0.140552
0.323907
0.212117
0.225242
0.241989
0.289562
0.3616
0.409218
0.44475
0.493785
0.544416
0.56809
0.602922
0.671954
0.614978
0.685615
0.645547
0.0906184
0.160858
0.191085
0.223201
0.265595
0.130558
0.336099
0.385606
0.225571
0.312079
0.469017
0.432952
0.518998
0.0805381
0.120594
0.150785
0.226607
0.21144
0.251952
0.556202
0.300741
0.37356
0.420867
0.45687
0.506329
0.591208
0.579283
0.658991
0.653945
0.437896
0.371289
0.313227
0.214841
0.158838
0.299217
0.187012
0.2599
0.506692
0.462874
0.423223
0.590766
0.691622
0.634776
0.122037
0.0860115
0.052315
0.729582
0.546883
0.229396
0.20702
0.379043
0.341454
0.0938111
0.164497
0.195482
0.226635
0.269336
0.33954
0.389859
0.4735
0.134176
0.222373
0.52365
0.316742
0.437082
0.560614
0.625632
0.595069
0.0838608
0.154078
0.124066
0.185262
0.218126
0.225012
0.256429
0.305001
0.37773
0.424988
0.46118
0.511376
0.0727311
0.11286
0.224245
0.239235
0.292219
0.413326
0.498326
0.546135
0.678854
0.666683
0.584012
0.144242
0.217928
0.449969
0.571708
0.505063
0.386713
0.205486
0.193066
0.468423
0.159958
0.423538
0.247083
0.237929
0.120782
0.0820653
0.506562
0.139664
0.252909
0.444245
0.615157
0.104162
0.28131
0.591477
0.152133
0.182986
0.18571
0.37722
0.460329
0.494513
0.426608
0.377502
0.30517
0.21138
0.485882
0.208631
0.23107
0.402321
0.174482
0.109726
0.289563
0.568553
0.219708
0.236902
0.409876
0.49429
0.583593
0.181459
0.593338
0.639635
0.622677
0.606397
0.63708
0.0999361
0.276256
0.630052
0.204694
0.22547
0.170379
0.397274
0.481081
0.663688
0.643499
0.149606
0.153822
0.457543
0.614008
0.6016
0.578383
0.630327
0.198865
0.212873
0.16393
0.389094
0.473616
0.594868
0.652465
0.670371
0.0910176
0.264823
0.255364
0.0835133
0.637786
0.683089
0.0928454
0.266611
0.649542
0.658512
0.649978
0.663661
0.045254
0.65756
0.700327
0.707698
0.695653
0.671854
0.362232
0.198137
0.686038
0.699428
0.686795
0.031023
0.714246
0.466943
0.699688
0.375764
0.700675
0.17344
0.702421
0.162178
0.70109
0.218057
0.224041
0.702586
-0.00249578
0.712908
0.000215001
0.712552
0.213885
0.000214989
0.000911067
0.49227
0.143113
0.366582
0.695644
0.708499
0.583562
1.13841
0.47345
0.237649
0.230092
0.877438
0.704913
0.705457
0.691658
0.703901
0.22198
0.67741
0.556016
0.466203
0.708517
0.145112
0.696101
0.199039
0.165441
0.00420983
0.00526191
0.704254
0.00515607
0.316187
0.69393
0.469136
0.138272
0.664103
0.683334
0.577106
0.685955
0.142324
0.445298
0.274086
0.569909
0.249116
0.665372
0.571508
0.232333
0.694406
0.407868
0.0166415
0.0163706
0.647604
0.562695
0.468431
0.458728
0.483032
0.277335
0.850647
0.0533476
0.658126
0.725355
0.678412
0.215027
0.654814
0.459796
0.243808
0.602665
0.592239
0.127828
0.125329
0.0501741
1.15798
0.149269
0.626562
0.46064
0.0258912
-0.00265095
0.445944
0.211611
0.109493
0.616176
0.423694
0.434873
0.592165
0.202434
0.69558
0.216741
0.619264
0.682861
0.192821
0.643952
0.385453
0.548458
0.53943
0.150518
0.256395
0.400372
0.53541
1.07562
0.159771
0.519611
0.104623
0.67346
0.55515
0.544561
0.635583
0.530607
0.248712
0.638355
0.254747
0.316305
0.191489
0.0372437
0.625469
0.272458
0.414363
0.74023
0.922044
0.14174
0.464474
0.361942
0.488727
0.429698
0.181882
0.0165355
0.169116
0.699332
0.120754
0.13341
0.631058
0.346439
0.23624
0.264253
0.613863
0.582568
0.516839
0.022579
0.619369
0.473087
0.373816
0.0974351
0.494716
0.555217
0.186739
0.4074
0.480141
0.513211
0.379059
0.333315
0.554094
0.331599
0.237027
0.558474
0.148045
0.401072
0.912311
0.0039328
0.369208
0.445918
0.453424
0.677177
0.234487
0.0863231
0.118704
0.690908
0.666463
0.0742956
0.131351
0.387997
0.322335
0.695102
0.595615
0.201488
0.618233
0.458054
-7.32952e-05
0.256719
0.082956
0.310416
0.419963
0.298737
-0.00444194
0.525528
0.0666222
0.594593
0.101331
0.579345
0.114779
0.433311
0.181816
0.453005
0.609694
0.687356
0.652722
0.207745
0.964233
0.435854
0.241483
0.486022
0.189433
0.211883
0.611838
0.0384674
0.662738
0.257403
0.652266
0.35577
0.35104
0.285347
0.593055
0.0617603
0.0792328
0.642585
0.684108
0.358529
0.653128
0.38502
0.1732
0.171563
1.05682
0.242652
0.0451204
0.0447285
0.324999
0.327938
0.0958614
0.347314
0.355247
0.424117
0.263757
0.184914
0.37974
0.636153
0.637773
0.229336
0.415965
0.245764
0.0581534
0.0700492
0.722675
0.489421
0.0159593
0.635959
0.603296
0.238714
0.511558
0.394446
0.637714
0.0972829
0.54472
0.0759409
0.154233
0.5779
0.0584797
0.1108
-0.000136594
0.0320764
0.536347
1.09213
1.07596
0.721908
0.685356
-0.00426462
0.744676
0.413925
0.19641
0.660604
0.580388
0.273788
0.267706
0.964456
0.0884845
0.384294
0.60835
0.312358
0.682545
0.856617
0.174408
0.632802
0.561836
0.0160696
0.716744
0.922691
0.130389
0.254197
0.249634
0.586637
0.23869
0.63576
0.722299
0.65666
0.519185
0.635456
0.0274305
0.403734
0.16381
0.614638
0.560229
0.220756
0.245873
0.0927207
0.724711
0.386325
0.704509
0.37634
0.486056
1.04658
0.222022
0.624121
0.680882
0.60372
0.680985
1.08003
0.502401
0.634958
0.562082
0.508482
0.281395
0.226237
0.241911
0.37434
0.62519
0.143298
0.184839
0.440239
0.957549
0.0492293
0.0514857
0.192077
0.323349
0.0245478
0.663943
0.444785
0.989004
0.650174
0.394439
0.227549
0.177594
0.328471
0.407674
0.0640551
0.126489
0.0795999
0.616842
0.194028
0.478049
0.708895
0.168673
0.687201
0.0717033
0.283158
0.305892
1.04586
0.0674086
0.0215206
0.302644
0.618634
0.426802
0.602177
0.70025
0.495045
0.159499
0.308028
0.681754
0.227678
0.578824
0.0260024
0.700841
0.191994
0.246834
0.277113
0.00564095
0.452284
0.186582
0.165778
0.494543
0.105434
0.444553
0.0461624
0.554904
0.230588
0.649308
0.677558
0.351982
0.466852
0.234274
0.156862
0.0219856
0.0614703
0.254878
0.291728
0.978254
0.715127
0.0889517
0.586594
0.166448
0.179486
0.00603429
0.323865
0.654827
0.451708
0.354828
0.22665
0.221548
0.69767
0.214774
0.415624
0.309912
0.801326
0.212734
0.0110314
0.0224714
0.368827
0.584538
0.476103
0.387858
0.0221512
0.447221
0.722799
0.039282
0.474357
0.000539673
1.07768
0.0642116
0.137902
0.450632
0.556762
0.00100537
0.253654
0.158702
0.393463
0.236413
0.105877
0.625326
0.693567
1.04292
0.192336
0.31048
0.0152495
0.259916
0.453801
0.601423
0.426587
0.405959
0.00776344
0.472177
0.194088
0.139105
0.00757161
0.0151011
0.0154913
0.00783045
0.108241
0.014951
0.58998
0.553506
0.157906
0.280166
0.015214
0.0150271
1.08544
0.0113645
0.212788
0.633205
0.938877
1.01733
1.00982
0.413761
0.00806985
0.135474
0.451328
0.479231
0.390914
0.0215816
0.0205204
0.307205
0.419068
0.970493
