# vtk DataFile Version 3.0
Malha 2D com triângulos e temperatura
ASCII
DATASET UNSTRUCTURED_GRID

POINTS 556 double
0 0 0
1 0 0
1 1 0
0 1 0
0.047619 0 0
0.0952381 0 0
0.142857 0 0
0.190476 0 0
0.238095 0 0
0.285714 0 0
0.333333 0 0
0.380952 0 0
0.428571 0 0
0.47619 0 0
0.52381 0 0
0.571429 0 0
0.619048 0 0
0.666667 0 0
0.714286 0 0
0.761905 0 0
0.809524 0 0
0.857143 0 0
0.904762 0 0
0.952381 0 0
1 0.047619 0
1 0.0952381 0
1 0.142857 0
1 0.190476 0
1 0.238095 0
1 0.285714 0
1 0.333333 0
1 0.380952 0
1 0.428571 0
1 0.47619 0
1 0.52381 0
1 0.571429 0
1 0.619048 0
1 0.666667 0
1 0.714286 0
1 0.761905 0
1 0.809524 0
1 0.857143 0
1 0.904762 0
1 0.952381 0
0.952381 1 0
0.904762 1 0
0.857143 1 0
0.809524 1 0
0.761905 1 0
0.714286 1 0
0.666667 1 0
0.619048 1 0
0.571429 1 0
0.52381 1 0
0.47619 1 0
0.428571 1 0
0.380952 1 0
0.333333 1 0
0.285714 1 0
0.238095 1 0
0.190476 1 0
0.142857 1 0
0.0952381 1 0
0.047619 1 0
0 0.952381 0
0 0.904762 0
0 0.857143 0
0 0.809524 0
0 0.761905 0
0 0.714286 0
0 0.666667 0
0 0.619048 0
0 0.571429 0
0 0.52381 0
0 0.47619 0
0 0.428571 0
0 0.380952 0
0 0.333333 0
0 0.285714 0
0 0.238095 0
0 0.190476 0
0 0.142857 0
0 0.0952381 0
0 0.047619 0
0.502877 0.0453975 0
0.502795 0.954523 0
0.0424911 0.499879 0
0.958761 0.5 0
0.0422174 0.690476 0
0.690476 0.958761 0
0.311451 0.0438227 0
0.958761 0.309524 0
0.958761 0.690476 0
0.310663 0.957443 0
0.690476 0.0412393 0
0.0427511 0.30836 0
0.833793 0.95422 0
0.170871 0.0453815 0
0.958761 0.166667 0
0.0412393 0.833333 0
0.167489 0.959442 0
0.044661 0.165388 0
0.83415 0.0426838 0
0.958761 0.833333 0
0.0453121 0.4069 0
0.404762 0.958761 0
0.404762 0.0402432 0
0.958761 0.404762 0
0.958761 0.595238 0
0.591411 0.0454062 0
0.591411 0.954594 0
0.0463656 0.595238 0
0.930144 0.95915 0
0.0714286 0.0412393 0
0.0386783 0.928943 0
0.959824 0.0732702 0
0.958761 0.738095 0
0.917521 0.714286 0
0.917521 0.666667 0
0.876282 0.690476 0
0.876282 0.642857 0
0.835043 0.666667 0
0.835043 0.619048 0
0.793803 0.642857 0
0.793803 0.595238 0
0.752564 0.619048 0
0.752564 0.571429 0
0.711325 0.595238 0
0.711325 0.547619 0
0.670086 0.571429 0
0.670086 0.52381 0
0.628846 0.547619 0
0.628846 0.5 0
0.587607 0.52381 0
0.587607 0.47619 0
0.546368 0.5 0
0.546368 0.452381 0
0.505128 0.47619 0
0.505128 0.52381 0
0.628846 0.452381 0
0.463889 0.5 0
0.463889 0.452381 0
0.463889 0.547619 0
0.42265 0.52381 0
0.42265 0.571429 0
0.628846 0.595238 0
0.38141 0.547619 0
0.38141 0.595238 0
0.42265 0.619048 0
0.38141 0.642857 0
0.42265 0.666667 0
0.752564 0.666667 0
0.340171 0.619048 0
0.340171 0.666667 0
0.298932 0.642857 0
0.298932 0.690476 0
0.752564 0.52381 0
0.257693 0.666667 0
0.257693 0.619048 0
0.257693 0.714286 0
0.298932 0.738095 0
0.257693 0.761905 0
0.38141 0.5 0
0.835043 0.714286 0
0.216453 0.738095 0
0.216453 0.642857 0
0.216453 0.595238 0
0.298932 0.785714 0
0.216453 0.785714 0
0.463889 0.642857 0
0.463889 0.690476 0
0.175214 0.761905 0
0.175591 0.80887 0
0.216532 0.832206 0
0.835043 0.571429 0
0.340171 0.761905 0
0.340171 0.809524 0
0.38141 0.785714 0
0.505128 0.666667 0
0.505128 0.714286 0
0.257693 0.571429 0
0.216453 0.547619 0
0.546368 0.690476 0
0.546368 0.738095 0
0.587607 0.714286 0
0.587607 0.761905 0
0.546368 0.785714 0
0.587607 0.809524 0
0.628846 0.785714 0
0.257693 0.52381 0
0.216152 0.5 0
0.257642 0.47619 0
0.216094 0.452381 0
0.257624 0.428571 0
0.216873 0.404762 0
0.257751 0.380952 0
0.217024 0.357143 0
0.257797 0.333333 0
0.216566 0.309524 0
0.257729 0.285714 0
0.298955 0.309524 0
0.298942 0.261905 0
0.340177 0.285714 0
0.216478 0.261905 0
0.340174 0.238095 0
0.381412 0.261905 0
0.298934 0.214286 0
0.381411 0.214286 0
0.42265 0.238095 0
0.340176 0.333333 0
0.42265 0.285714 0
0.463889 0.261905 0
0.463889 0.214286 0
0.505128 0.238095 0
0.505128 0.285714 0
0.546368 0.261905 0
0.546368 0.214286 0
0.587607 0.238095 0
0.587607 0.285714 0
0.628846 0.261905 0
0.628846 0.214286 0
0.670086 0.238095 0
0.670086 0.285714 0
0.711325 0.261905 0
0.711325 0.309524 0
0.752564 0.285714 0
0.752564 0.238095 0
0.752564 0.333333 0
0.793803 0.261905 0
0.793803 0.214286 0
0.752564 0.190476 0
0.835043 0.238095 0
0.835043 0.285714 0
0.835043 0.190476 0
0.628846 0.833333 0
0.670086 0.809524 0
0.175214 0.619048 0
0.173888 0.522411 0
0.173754 0.426172 0
0.177283 0.333403 0
0.546368 0.833333 0
0.38141 0.833333 0
0.505128 0.809524 0
0.670086 0.761905 0
0.711325 0.785714 0
0.711325 0.833333 0
0.752564 0.809524 0
0.752564 0.857143 0
0.793803 0.833333 0
0.670086 0.333333 0
0.133029 0.787053 0
0.135598 0.835435 0
0.133817 0.738318 0
0.340171 0.857143 0
0.505128 0.857143 0
0.876282 0.214286 0
0.876282 0.166667 0
0.835043 0.142857 0
0.876282 0.119048 0
0.463889 0.738095 0
0.298912 0.452381 0
0.670086 0.190476 0
0.628846 0.166667 0
0.670086 0.142857 0
0.505128 0.571429 0
0.546368 0.642857 0
0.917521 0.761905 0
0.752564 0.761905 0
0.0915425 0.763612 0
0.546368 0.880952 0
0.793803 0.880952 0
0.835043 0.857143 0
0.835043 0.809524 0
0.628197 0.120173 0
0.587499 0.143045 0
0.753058 0.903907 0
0.463889 0.833333 0
0.464586 0.879745 0
0.38141 0.738095 0
0.298932 0.547619 0
0.175214 0.666667 0
0.132435 0.642857 0
0.133634 0.595093 0
0.876282 0.833333 0
0.875485 0.879571 0
0.381334 0.880107 0
0.336416 0.911469 0
0.297258 0.879038 0
0.0927353 0.714286 0
0.668882 0.0884705 0
0.711325 0.119048 0
0.0897004 0.61903 0
0.0914355 0.57128 0
0.587465 0.0962133 0
0.546326 0.119241 0
0.546804 0.0722089 0
0.505611 0.0961453 0
0.505202 0.143041 0
0.464844 0.118624 0
0.834894 0.0944156 0
0.793779 0.118911 0
0.876282 0.0714286 0
0.793803 0.0714286 0
0.792809 0.927231 0
0.0463319 0.73838 0
0.0468189 0.547561 0
0.0878023 0.522062 0
0.082843 0.475484 0
0.128863 0.498019 0
0.121762 0.445221 0
0.0862476 0.666665 0
0.0463555 0.786985 0
0.0909216 0.811911 0
0.0916507 0.86627 0
0.141146 0.879699 0
0.107527 0.916127 0
0.0405556 0.88346 0
0.747203 0.953793 0
0.0431872 0.642856 0
0.132282 0.546725 0
0.17341 0.47619 0
0.135191 0.397246 0
0.0916056 0.405452 0
0.102704 0.363499 0
0.0408778 0.45465 0
0.917521 0.190476 0
0.917521 0.238095 0
0.917699 0.095545 0
0.922434 0.0438574 0
0.958761 0.214286 0
0.753054 0.09607 0
0.747304 0.0460679 0
0.422753 0.856801 0
0.424977 0.911285 0
0.340172 0.190476 0
0.298932 0.166667 0
0.340171 0.142857 0
0.257693 0.190476 0
0.257693 0.142857 0
0.216453 0.166667 0
0.216453 0.119048 0
0.175214 0.142857 0
0.175214 0.190476 0
0.132568 0.16638 0
0.13374 0.214238 0
0.132905 0.119335 0
0.256979 0.0964733 0
0.215249 0.0725897 0
0.0912967 0.190193 0
0.0908814 0.237963 0
0.133627 0.261875 0
0.0927353 0.285714 0
0.25949 0.046215 0
0.0467232 0.214029 0
0.0902435 0.140623 0
0.0903639 0.0859824 0
0.0431297 0.116919 0
0.0455152 0.261646 0
0.381411 0.166667 0
0.38141 0.119048 0
0.337816 0.0887652 0
0.42265 0.190476 0
0.422667 0.809467 0
0.917521 0.619048 0
0.262095 0.95935 0
0.752642 0.142973 0
0.29892 0.5 0
0.670086 0.857143 0
0.628197 0.879827 0
0.668882 0.91153 0
0.711325 0.642857 0
0.711325 0.690476 0
0.670086 0.666667 0
0.257706 0.809336 0
0.546368 0.309524 0
0.505128 0.333333 0
0.587607 0.333333 0
0.463889 0.309524 0
0.463889 0.357143 0
0.505128 0.380952 0
0.42265 0.333333 0
0.42265 0.380952 0
0.643368 0.0419369 0
0.958761 0.642857 0
0.917521 0.571429 0
0.793803 0.785714 0
0.505553 0.90371 0
0.546892 0.927797 0
0.587607 0.904762 0
0.958967 0.119406 0
0.958761 0.452381 0
0.917521 0.428571 0
0.917521 0.380952 0
0.876282 0.404762 0
0.876282 0.452381 0
0.835043 0.428571 0
0.835043 0.47619 0
0.793803 0.452381 0
0.835043 0.380952 0
0.876282 0.5 0
0.793803 0.5 0
0.752564 0.47619 0
0.752564 0.428571 0
0.711325 0.452381 0
0.711325 0.404762 0
0.670086 0.428571 0
0.711325 0.5 0
0.643368 0.958063 0
0.357143 0.958761 0
0.175188 0.714323 0
0.670086 0.47619 0
0.628846 0.404762 0
0.587607 0.428571 0
0.88581 0.956403 0
0.0397655 0.355888 0
0.546368 0.547619 0
0.793803 0.547619 0
0.835043 0.52381 0
0.711338 0.166686 0
0.917521 0.47619 0
0.118086 0.0417648 0
0.357143 0.0412393 0
0.451602 0.0410397 0
0.426006 0.0864667 0
0.958985 0.880563 0
0.122444 0.959548 0
0.505128 0.761905 0
0.451319 0.957967 0
0.214454 0.958973 0
0.238608 0.921625 0
0.193125 0.921229 0
0.463889 0.595238 0
0.711325 0.880952 0
0.38141 0.690476 0
0.793812 0.166663 0
0.587499 0.856955 0
0.546368 0.357143 0
0.958761 0.547619 0
0.958761 0.357143 0
0.917521 0.333333 0
0.876282 0.357143 0
0.876282 0.309524 0
0.175524 0.285721 0
0.381411 0.357143 0
0.381411 0.404762 0
0.340172 0.380952 0
0.793803 0.690476 0
0.298964 0.357143 0
0.876282 0.738095 0
0.42265 0.428571 0
0.340171 0.714286 0
0.42265 0.714286 0
0.793803 0.404762 0
0.793803 0.357143 0
0.216449 0.690482 0
0.587607 0.571429 0
0.340166 0.47619 0
0.505128 0.619048 0
0.175173 0.238083 0
0.917521 0.52381 0
0.381412 0.309524 0
0.833738 0.903234 0
0.876282 0.547619 0
0.546368 0.595238 0
0.587607 0.619048 0
0.463892 0.785705 0
0.422653 0.761894 0
0.298932 0.595238 0
0.257705 0.238095 0
0.628846 0.309524 0
0.876282 0.595238 0
0.670086 0.619048 0
0.340168 0.52381 0
0.129303 0.316369 0
0.258222 0.85424 0
0.587607 0.666667 0
0.711327 0.214289 0
0.340171 0.571429 0
0.587589 0.190507 0
0.298932 0.119048 0
0.958761 0.785714 0
0.628846 0.690476 0
0.628846 0.642857 0
0.216453 0.214284 0
0.628846 0.738095 0
0.174654 0.571022 0
0.175214 0.0952381 0
0.917585 0.142968 0
0.132606 0.690519 0
0.298743 0.832499 0
0.670086 0.714286 0
0.546352 0.166766 0
0.711325 0.738095 0
0.298932 0.404762 0
0.505138 0.190523 0
0.423368 0.141325 0
0.42265 0.47619 0
0.463889 0.404762 0
0.340167 0.428571 0
0.381409 0.452381 0
0.752564 0.714286 0
0.505128 0.428571 0
0.464098 0.166461 0
0.917521 0.809524 0
0.917426 0.856848 0
0.546368 0.404762 0
0.793803 0.738095 0
0.914208 0.911294 0
0.835043 0.761905 0
0.587607 0.380952 0
0.876282 0.785714 0
0.628846 0.357143 0
0.835043 0.333333 0
0.793803 0.309524 0
0.958761 0.261905 0
0.752564 0.380952 0
0.876282 0.261905 0
0.711325 0.357143 0
0.917521 0.285714 0
0.670086 0.380952 0
0.215205 0.879171 0
0.96104 0.928126 0
0.0740188 0.954296 0
0.177437 0.37983 0
0.177479 0.85322 0
0.285714 0.922377 0
0.0801454 0.329725 0
[...]
CELL_DATA 1026
SCALARS Temperatura double 1
LOOKUP_TABLE default
0.594826
0.593271
0.438888
2.45207
0.637699
0.648993
0.376085
1.20704
1.19307
0.913757
1.32112
1.2179
1.21911
1.38503
2.11601
3.24272
0.338897
1.53802
0.136998
2.51513
0.451936
1.05376
1.05093
0.262852
0.302527
0.513055
1.62398
0.265468
2.4925
1.14083
1.00041
0.441345
0.296755
0.298759
1.30404
1.39744
1.63406
1.62923
1.30347
1.59867
0.388841
2.24551
3.01661
3.04657
1.25821
0.0975904
1.66826
1.66919
0.937063
1.49717
1.49775
0.150201
0.673509
0.490779
1.58005
3.0229
2.02671
1.62036
0.58613
1.41837
1.37084
0.295661
0.32521
0.213278
1.14965
0.569233
0.435565
0.861953
0.42355
0.835981
0.50914
1.26894
1.13687
0.1295
0.940153
1.35458
0.512362
1.52305
0.687618
0.690201
2.08688
1.95208
3.28034
1.0159
1.38647
1.38836
0.760905
1.82908
0.957353
0.990713
0.653123
2.51385
1.17985
1.17939
0.887892
1.90124
0.366908
1.51652
1.44893
1.44936
1.381
1.18641
1.18627
1.7033
2.51302
2.22122
1.64591
1.64105
1.70273
0.911665
3.97936
1.26085
0.690954
1.30478
0.625556
0.334767
3.00688
3.74765
3.77525
0.853175
0.295218
0.558425
1.66948
1.20405
0.612412
0.657436
3.27905
2.50342
0.340076
2.36967
2.45535
1.26289
0.663667
0.679646
0.545813
1.40595
1.0746
2.24498
0.990779
3.25961
0.41459
0.802428
0.230742
0.417087
0.447054
5.57915
1.99841
0.889903
5.34878
4.47271
1.19916
5.40836
5.61572
5.25505
1.68202
0.14247
2.53317
5.25499
4.81861
4.1982
1.20867
3.01848
0.944264
2.44672
3.66342
0.328205
2.03733
0.670111
2.44173
2.49187
0.636685
4.12614
3.40002
0.22894
0.912291
2.68423
2.64789
4.96653
5.78788
3.45209
3.56299
1.99718
2.79528
5.39762
3.82525
4.27554
0.314747
1.15712
3.63362
3.616
3.33571
2.39759
1.47144
5.34887
5.42646
2.14965
3.46561
1.23921
2.95643
1.27466
4.4324
4.05182
4.71974
2.15495
3.80381
5.23012
5.24061
3.66513
2.51501
5.32253
5.02846
5.03673
2.24401
4.04945
5.92783
4.46495
5.23665
5.68942
3.08622
2.17453
0.224084
1.22765
0.945308
3.30613
3.82928
3.8261
5.03349
3.03324
2.83476
0.265215
0.543195
4.31421
4.61659
2.30862
2.17568
0.60816
5.14764
2.5027
5.46754
2.74651
0.145082
0.634014
0.223619
1.68363
5.03433
4.72637
2.34328
0.150731
1.99988
5.89462
3.08003
3.54419
5.079
5.32418
5.02053
5.21804
1.79047
5.4264
0.255313
4.69679
5.61567
5.89469
6.16847
4.50935
1.91443
1.45308
1.46757
5.53011
2.39727
3.87375
4.96645
0.190172
6.15337
5.1398
3.01653
2.40314
3.22737
2.15048
0.59749
1.54429
2.17663
3.53432
3.09168
4.87664
5.63006
6.13211
6.04573
6.08228
5.51911
4.82035
4.12115
3.46654
2.04103
0.842957
5.85636
1.46712
3.80147
1.58753
3.2074
3.87387
6.02067
0.208214
6.22522
6.20472
6.09148
5.28709
5.0166
4.86992
3.02572
1.34703
1.3622
2.634
5.29315
6.20533
4.19092
3.17852
4.50846
4.19657
5.05376
3.24981
2.68751
5.33169
2.40307
3.66286
0.366333
0.292988
0.402529
1.60209
1.06304
1.27449
5.71938
5.45507
3.57806
5.93851
5.86571
4.52293
4.78753
4.68052
5.1485
4.82626
5.1164
1.20719
2.53706
5.72376
5.71872
2.09566
3.80341
4.69625
0.32044
0.679745
0.298466
0.330287
0.63418
0.293149
0.208982
0.342695
0.627175
0.298166
0.304363
1.54398
5.96393
3.67125
2.90297
3.92681
3.19491
4.35737
3.25658
2.04678
3.25441
1.89125
2.71358
3.09114
3.53376
0.189739
0.764515
1.29971
3.13711
3.562
4.53705
4.86819
4.81694
5.32859
4.72159
5.17182
4.95869
5.17204
5.48458
3.63336
4.87635
0.0874296
0.348515
0.0879473
0.339645
0.670583
0.330351
0.217006
0.298994
0.350311
0.711461
1.47194
3.18319
2.46964
4.31409
4.2221
3.60073
4.47636
1.78461
2.91505
2.10954
6.00042
2.9026
0.314413
6.04086
5.79932
4.72123
3.92608
2.45019
2.24175
2.47091
3.01247
1.19968
1.96585
1.58801
1.14278
2.95632
3.66664
4.77495
0.652079
0.0852405
0.472898
0.659507
4.04343
3.81128
4.6446
4.74348
4.77022
3.67853
2.55131
1.9065
5.06972
3.40216
3.87894
4.40132
3.65235
3.00517
3.46336
2.47173
1.58767
2.15476
2.44163
0.595468
0.594991
2.7156
2.57085
2.55463
4.19425
3.5477
2.94093
3.29238
2.16219
2.82129
3.00734
2.65186
2.09671
1.46515
2.8198
1.49003
3.02998
3.1508
2.32572
1.93075
1.52733
1.55076
5.79894
0.0807559
1.37065
1.22733
3.66361
4.31125
6.13234
4.85972
4.13273
5.07652
3.15228
5.71707
4.82637
4.03587
4.90864
3.68152
3.12389
4.17738
3.6405
3.729
3.13718
4.19792
2.49595
1.86272
4.51301
4.47385
6.08137
5.60361
1.34613
2.72858
4.68321
0.70845
0.328339
0.354497
0.368654
6.23062
5.63585
5.47975
5.22111
4.5018
2.89718
2.92141
5.72149
5.04953
3.59617
3.28539
4.1646
2.39876
2.16629
5.41545
2.62991
1.07937
2.15728
1.90781
0.670554
0.590332
0.184792
0.30502
1.1566
6.07135
5.82796
5.61133
5.81675
3.79199
3.256
3.46593
4.52567
4.375
4.14258
4.23145
4.65556
2.83702
3.0761
2.32569
3.05644
4.73622
2.91393
1.01704
0.558189
2.81785
0.313016
0.625915
0.341769
0.679808
0.311526
1.29809
1.24035
1.86039
4.66955
3.83602
3.3355
3.92769
4.51278
3.27032
4.19841
3.81011
3.83691
3.07885
3.25248
1.51049
1.02157
1.31483
4.85494
1.20672
2.16747
2.54534
2.06724
2.55637
1.22838
2.53229
4.43216
5.46246
0.140434
0.366329
0.378388
0.328334
0.655308
0.375993
0.305122
0.209449
4.4244
4.16544
4.81546
2.90258
3.01963
1.56124
5.32836
1.52108
4.68405
0.48833
6.1944
4.49481
3.54387
2.24023
3.79882
4.75694
4.86019
4.51494
4.68273
3.61806
2.58079
1.50552
1.51402
2.10633
1.8537
2.58879
5.15968
5.49471
0.143431
5.66587
5.62582
4.42705
4.39942
4.29262
5.5274
5.32631
4.81841
3.97301
4.11548
4.29282
4.5707
4.38174
5.07097
4.29238
3.79755
2.81995
3.64222
5.99907
2.5348
2.58506
4.65154
2.20331
2.47844
3.39547
4.12407
5.52051
5.85765
4.27542
4.19782
1.03079
6.17367
5.93707
5.52587
4.19202
3.90288
3.89463
4.2096
4.36726
3.79963
2.11251
2.24859
2.11426
5.53111
5.80362
3.50184
2.63544
3.3688
5.15988
4.22368
3.76001
3.31017
4.06604
2.90144
3.4019
1.86375
1.77517
2.90017
5.46531
5.62984
5.04731
0.328164
0.607539
0.658366
2.74423
3.4533
4.10932
3.82657
4.81558
5.21741
4.46453
3.79932
3.54296
3.05404
3.13556
3.33493
2.58557
2.24961
5.61698
3.17828
5.25346
0.327021
0.325238
3.12563
4.31779
3.1978
2.60616
2.09606
0.377689
0.549161
0.189977
4.77515
5.20254
5.71936
5.92762
5.98184
5.76522
5.57393
5.40838
5.26515
4.35638
3.90236
4.39514
3.7362
4.62981
3.80446
4.03551
2.63368
2.34154
1.40674
6.00578
5.87964
0.597753
1.99786
6.19408
5.90402
5.77229
5.14341
3.87277
2.91027
4.73945
4.62975
2.62946
1.90754
2.25397
0.188025
0.339615
0.658457
0.314854
1.29814
4.42699
4.96953
4.12849
5.01978
5.11619
4.30233
2.62211
5.60433
0.487839
0.342733
2.42146
2.23344
3.46124
2.47218
1.82937
2.87891
1.54106
6.00394
4.81594
5.57916
5.78768
6.10076
4.72476
3.6791
2.82284
1.77191
5.79806
1.36066
0.892105
1.85932
5.96636
0.230952
5.09753
6.16923
4.86021
4.16546
3.11255
2.74279
1.89652
2.73559
2.9469
6.04537
3.29525
4.95499
3.83684
2.04112
4.74243
5.86816
5.9073
6.0732
6.04314
3.04283
3.46725
4.30347
6.01968
3.532
3.65312
1.5986
1.39561
5.48102
2.58808
5.46439
3.82776
2.26465
3.73087
6.15419
3.82665
4.35823
5.22921
3.32937
4.61737
3.63546
4.19765
1.21341
3.05539
3.13559
4.1786
4.19948
3.80224
4.11563
5.23847
1.08087
5.48727
5.83196
2.79596
4.96701
3.02656
3.04942
3.46802
5.77419
6.0932
5.27505
5.67112
2.41975
5.82
0.414939
6.1278
1.77897
6.1747
5.42103
5.64011
3.83798
4.10842
3.11525
3.36784
2.30921
4.1224
2.48378
3.17299
4.42621
5.88025
0.636101
4.68333
3.50003
2.63434
4.04271
1.83368
4.06746
0.80346
0.264996
6.02129
2.47578
2.16571
2.48154
0.891065
5.25359
5.76557
2.83936
5.09734
4.64415
1.77674
2.15413
2.82283
0.669941
2.94599
3.17111
5.49507
0.90864
5.20232
2.15146
4.31074
4.42613
0.548778
4.95825
1.36986
5.57416
1.06226
4.96913
2.1749
1.99075
1.13023
0.10357
0.0818348
0.437808
0.618164
3.5297
3.68457
0.462438
0.74419
1.55299
1.86823
1.18421
0.895932
1.76116
1.8306
1.83323
1.33858
1.33379
1.50526
1.39697
1.30915
1.65798
0.222931
0.248119
2.85836
3.81412
0.70068
2.00565
2.00651
2.13702
1.33785
1.82891
1.30167
0.302958
0.395622
0.639354
0.627342
0.627263
0.639992
0.873146
0.633418
1.24439
1.24304
0.232955
0.0283645
0.0313852
0.0307578
0.03073
0.0283208
0.0294701
0.628364
2.03392
0.722284
0.741999
1.61423
0.0285178
0.0283344
2.1284
1.9671
1.97531
2.12717
1.01033
1.26114
0.842668
0.224812
1.98093
0.372593
1.76001
1.76359
1.15923
1.16668
0.382971
0.396464
2.1527
0.861523
2.10712
0.974512
3.18422
0.223104
0.44242
0.445456
1.11004
0.0848366
2.11552
2.11559
2.20301
0.176754
0.171586
2.62634
2.21663
1.78794
1.57998
0.10693
0.451463
0.174778
0.254243
0.254249
1.08211
3.04631
0.836556
0.849305
1.57535
0.20643
0.108668
0.124959
0.386802
1.14565
0.11138
0.118803
0.107123
0.110071
1.53499
1.95677
2.15308
1.52607
1.14845
0.205289
0.218071
1.19396
1.42246
1.65937
1.84434
0.108475
1.48163
