# vtk DataFile Version 3.0
Malha 2D com triângulos e temperatura
ASCII
DATASET UNSTRUCTURED_GRID

POINTS 1777 double
0 0 0
2.2 0 0
2.2 0.41 0
0 0.41 0
0.25 0.2 0
0.0297297 0 0
0.0594595 0 0
0.0891892 0 0
0.118919 0 0
0.148649 0 0
0.178378 0 0
0.208108 0 0
0.237838 0 0
0.267568 0 0
0.297297 0 0
0.327027 0 0
0.356757 0 0
0.386486 0 0
0.416216 0 0
0.445946 0 0
0.475676 0 0
0.505405 0 0
0.535135 0 0
0.564865 0 0
0.594595 0 0
0.624324 0 0
0.654054 0 0
0.683784 0 0
0.713514 0 0
0.743243 0 0
0.772973 0 0
0.802703 0 0
0.832432 0 0
0.862162 0 0
0.891892 0 0
0.921622 0 0
0.951351 0 0
0.981081 0 0
1.01081 0 0
1.04054 0 0
1.07027 0 0
1.1 0 0
1.12973 0 0
1.15946 0 0
1.18919 0 0
1.21892 0 0
1.24865 0 0
1.27838 0 0
1.30811 0 0
1.33784 0 0
1.36757 0 0
1.3973 0 0
1.42703 0 0
1.45676 0 0
1.48649 0 0
1.51622 0 0
1.54595 0 0
1.57568 0 0
1.60541 0 0
1.63514 0 0
1.66486 0 0
1.69459 0 0
1.72432 0 0
1.75405 0 0
1.78378 0 0
1.81351 0 0
1.84324 0 0
1.87297 0 0
1.9027 0 0
1.93243 0 0
1.96216 0 0
1.99189 0 0
2.02162 0 0
2.05135 0 0
2.08108 0 0
2.11081 0 0
2.14054 0 0
2.17027 0 0
2.2 0.0292857 0
2.2 0.0585714 0
2.2 0.0878571 0
2.2 0.117143 0
2.2 0.146429 0
2.2 0.175714 0
2.2 0.205 0
2.2 0.234286 0
2.2 0.263571 0
2.2 0.292857 0
2.2 0.322143 0
2.2 0.351429 0
2.2 0.380714 0
2.17027 0.41 0
2.14054 0.41 0
2.11081 0.41 0
2.08108 0.41 0
2.05135 0.41 0
2.02162 0.41 0
1.99189 0.41 0
1.96216 0.41 0
1.93243 0.41 0
1.9027 0.41 0
1.87297 0.41 0
1.84324 0.41 0
1.81351 0.41 0
1.78378 0.41 0
1.75405 0.41 0
1.72432 0.41 0
1.69459 0.41 0
1.66486 0.41 0
1.63514 0.41 0
1.60541 0.41 0
1.57568 0.41 0
1.54595 0.41 0
1.51622 0.41 0
1.48649 0.41 0
1.45676 0.41 0
1.42703 0.41 0
1.3973 0.41 0
1.36757 0.41 0
1.33784 0.41 0
1.30811 0.41 0
1.27838 0.41 0
1.24865 0.41 0
1.21892 0.41 0
1.18919 0.41 0
1.15946 0.41 0
1.12973 0.41 0
1.1 0.41 0
1.07027 0.41 0
1.04054 0.41 0
1.01081 0.41 0
0.981081 0.41 0
0.951351 0.41 0
0.921622 0.41 0
0.891892 0.41 0
0.862162 0.41 0
0.832432 0.41 0
0.802703 0.41 0
0.772973 0.41 0
0.743243 0.41 0
0.713514 0.41 0
0.683784 0.41 0
0.654054 0.41 0
0.624324 0.41 0
0.594595 0.41 0
0.564865 0.41 0
0.535135 0.41 0
0.505405 0.41 0
0.475676 0.41 0
0.445946 0.41 0
0.416216 0.41 0
0.386486 0.41 0
0.356757 0.41 0
0.327027 0.41 0
0.297297 0.41 0
0.267568 0.41 0
0.237838 0.41 0
0.208108 0.41 0
0.178378 0.41 0
0.148649 0.41 0
0.118919 0.41 0
0.0891892 0.41 0
0.0594595 0.41 0
0.0297297 0.41 0
0 0.380714 0
0 0.351429 0
0 0.322143 0
0 0.292857 0
0 0.263571 0
0 0.234286 0
0 0.205 0
0 0.175714 0
0 0.146429 0
0 0.117143 0
0 0.0878571 0
0 0.0585714 0
0 0.0292857 0
0.249554 0.206664 0
0.248223 0.21321 0
0.246032 0.219519 0
0.24302 0.225481 0
0.23924 0.230987 0
0.23476 0.235941 0
0.229659 0.240254 0
0.224029 0.243847 0
0.21797 0.246659 0
0.211591 0.248638 0
0.205005 0.249749 0
0.198329 0.249972 0
0.191684 0.249304 0
0.185186 0.247755 0
0.178953 0.245355 0
0.173096 0.242145 0
0.167719 0.238183 0
0.162917 0.233539 0
0.158778 0.228297 0
0.155374 0.222551 0
0.152767 0.216401 0
0.151002 0.209959 0
0.150112 0.20334 0
0.150112 0.19666 0
0.151002 0.190041 0
0.152767 0.183599 0
0.155374 0.177449 0
0.158778 0.171703 0
0.162917 0.166461 0
0.167719 0.161817 0
0.173096 0.157855 0
0.178953 0.154645 0
0.185186 0.152245 0
0.191684 0.150696 0
0.198329 0.150028 0
0.205005 0.150251 0
0.211591 0.151362 0
0.21797 0.153341 0
0.224029 0.156153 0
0.229659 0.159746 0
0.23476 0.164059 0
0.23924 0.169013 0
0.24302 0.174519 0
0.246032 0.180481 0
0.248223 0.18679 0
0.249554 0.193336 0
0.255574 0.203679 0
0.252738 0.181785 0
0.460003 0.383807 0
0.249896 0.225202 0
0.431099 0.0237466 0
0.241058 0.162896 0
0.54971 0.0257464 0
1.02609 0.385158 0
1.17433 0.0257466 0
0.817568 0.384253 0
1.38243 0.0257466 0
1.58969 0.0252557 0
1.88787 0.0244307 0
1.73874 0.0220086 0
0.668263 0.387736 0
0.161368 0.239955 0
1.97653 0.383822 0
1.47082 0.384717 0
0.937484 0.0250546 0
1.26351 0.384253 0
0.236421 0.242977 0
0.160587 0.159637 0
0.755883 0.028886 0
1.65 0.384253 0
1.79971 0.384538 0
1.05403 0.0250188 0
1.14325 0.381322 0
2.00698 0.0273545 0
0.369165 0.385669 0
0.180133 0.252235 0
2.17498 0.221643 0
0.216749 0.253288 0
0.223287 0.149332 0
0.148745 0.221734 0
0.148958 0.178355 0
0.555071 0.387669 0
0.179991 0.148047 0
0.6387 0.0238257 0
1.29324 0.0257471 0
0.906787 0.384923 0
1.50135 0.0255777 0
1.88838 0.381156 0
1.56087 0.386387 0
0.851305 0.0275789 0
1.35113 0.380293 0
0.144177 0.200061 0
0.201075 0.142533 0
0.342085 0.0243487 0
0.0253622 0.3075 0
2.17355 0.13339 0
2.06624 0.384266 0
0.194586 0.255738 0
0.0233141 0.105502 0
0.28174 0.383244 0
0.134676 0.385875 0
0.13504 0.0223147 0
0.251335 0.0249595 0
0.191213 0.385618 0
0.0265235 0.161223 0
0.0251716 0.21809 0
0.195684 0.0243706 0
2.17106 0.309047 0
2.09595 0.0257467 0
0.60946 0.383326 0
0.490104 0.0252661 0
0.699312 0.0273901 0
1.94673 0.0240633 0
0.758108 0.384253 0
1.65297 0.0265695 0
1.82554 0.0269732 0
1.23378 0.0257467 0
1.20405 0.384253 0
0.962639 0.384388 0
0.995951 0.0257473 0
1.44189 0.0257476 0
1.70976 0.384108 0
1.11561 0.0253103 0
1.41216 0.38459 0
1.0846 0.384562 0
0.076584 0.0279689 0
0.0707485 0.380628 0
2.17692 0.0744956 0
2.12539 0.384424 0
0.0301829 0.0451136 0
0.0253892 0.362975 0
2.17313 0.363183 0
2.15525 0.0246548 0
0.255643 0.196183 0
0.262186 0.199703 0
0.262052 0.207791 0
0.269348 0.203666 0
0.268881 0.212825 0
0.277435 0.207882 0
0.27697 0.218189 0
0.286594 0.21258 0
0.285984 0.201745 0
0.29634 0.206658 0
0.286644 0.22335 0
0.295261 0.194431 0
0.306698 0.200133 0
0.305673 0.187361 0
0.317722 0.192557 0
0.318438 0.206672 0
0.330636 0.198464 0
0.331187 0.213853 0
0.344677 0.205704 0
0.343629 0.18899 0
0.359077 0.196587 0
0.359796 0.213987 0
0.375105 0.204871 0
0.376285 0.223498 0
0.392969 0.213244 0
0.357727 0.178857 0
0.393375 0.233788 0
0.410895 0.222322 0
0.410322 0.201585 0
0.429527 0.211038 0
0.428709 0.189227 0
0.449101 0.199711 0
0.444844 0.223277 0
0.468852 0.216271 0
0.375794 0.244285 0
0.468956 0.187297 0
0.490723 0.199346 0
0.492637 0.223613 0
0.513842 0.209717 0
0.394274 0.25413 0
0.512654 0.185603 0
0.535758 0.195857 0
0.536577 0.221909 0
0.559239 0.208494 0
0.558341 0.181441 0
0.582348 0.194035 0
0.583054 0.221638 0
0.606664 0.207046 0
0.607286 0.234757 0
0.631231 0.220248 0
0.63034 0.192331 0
0.655194 0.205679 0
0.656079 0.233608 0
0.680258 0.218898 0
0.67935 0.191118 0
0.704527 0.20434 0
0.706018 0.232162 0
0.730115 0.217489 0
0.729707 0.1897 0
0.754858 0.202972 0
0.756381 0.230686 0
0.780039 0.216375 0
0.780295 0.18836 0
0.804833 0.201181 0
0.806762 0.229255 0
0.830523 0.215054 0
0.830532 0.186604 0
0.855857 0.200239 0
0.857218 0.228223 0
0.881754 0.213202 0
0.881871 0.185515 0
0.906327 0.198306 0
0.908566 0.226299 0
0.932225 0.212305 0
0.931802 0.183957 0
0.957224 0.197415 0
0.958155 0.226357 0
0.983292 0.211004 0
0.982426 0.182553 0
1.00828 0.196026 0
1.00922 0.225127 0
1.03445 0.209647 0
0.37523 0.265887 0
1.03369 0.179965 0
1.05972 0.194061 0
1.0605 0.223674 0
1.08576 0.208158 0
1.08496 0.178532 0
1.11102 0.192636 0
1.11183 0.222277 0
1.1371 0.206757 0
1.1379 0.23641 0
1.16319 0.220885 0
1.16238 0.191237 0
1.18848 0.205361 0
1.18929 0.235022 0
1.21458 0.219488 0
1.21377 0.189838 0
1.23988 0.203963 0
1.2407 0.23363 0
1.266 0.218091 0
1.26519 0.188439 0
1.2913 0.202565 0
1.29212 0.232228 0
1.31743 0.216692 0
1.31662 0.18704 0
1.34274 0.201166 0
1.34354 0.230848 0
1.36887 0.215296 0
1.36806 0.185642 0
1.39418 0.199767 0
1.39499 0.229451 0
1.42032 0.213896 0
1.4195 0.184244 0
1.44563 0.198367 0
1.44645 0.228052 0
1.47178 0.212496 0
1.47096 0.182846 0
1.49709 0.196967 0
1.49791 0.226652 0
1.52324 0.211095 0
1.52242 0.181448 0
1.54855 0.195567 0
1.54937 0.225252 0
1.5747 0.209694 0
1.57393 0.180049 0
1.60005 0.194166 0
1.60084 0.223851 0
1.62618 0.208292 0
1.62538 0.178598 0
1.65151 0.192732 0
1.65231 0.222441 0
1.67764 0.206883 0
1.67683 0.177167 0
1.70297 0.191323 0
1.70378 0.22104 0
1.72911 0.20548 0
1.72992 0.235198 0
1.75525 0.219638 0
1.75444 0.18992 0
1.78059 0.204077 0
1.7814 0.233797 0
1.80673 0.218235 0
1.80592 0.188517 0
1.83206 0.202678 0
1.83289 0.232333 0
1.85821 0.216789 0
1.85738 0.187113 0
1.8835 0.20127 0
1.88433 0.230926 0
1.9096 0.215401 0
1.9088 0.18577 0
1.93487 0.199882 0
1.93568 0.229497 0
1.96093 0.21398 0
1.96011 0.184392 0
1.98616 0.198494 0
1.98697 0.22807 0
2.01218 0.212579 0
2.01137 0.183012 0
0.395013 0.275933 0
2.013 0.242157 0
0.293845 0.18174 0
0.304239 0.174244 0
0.292601 0.168738 0
0.303349 0.160644 0
0.29105 0.154895 0
0.302598 0.146389 0
0.288598 0.139868 0
0.301632 0.130968 0
0.286439 0.124081 0
2.0374 0.197128 0
2.03657 0.167534 0
0.300561 0.114437 0
0.316259 0.122043 0
0.581278 0.166607 0
1.70216 0.161607 0
1.70459 0.250757 0
1.73073 0.264915 0
1.11022 0.163 0
1.11261 0.251931 0
1.08413 0.148889 0
1.98778 0.257658 0
2.01055 0.153446 0
0.375474 0.287373 0
0.356398 0.277065 0
0.356543 0.298136 0
0.339223 0.288016 0
1.67605 0.147449 0
0.394981 0.298839 0
0.415381 0.286457 0
0.583416 0.249125 0
0.608001 0.262739 0
1.1387 0.266074 0
0.285067 0.107592 0
0.270988 0.117331 0
0.557946 0.153957 0
0.580325 0.138903 0
2.03578 0.137944 0
2.01382 0.271739 0
2.03904 0.256255 0
2.06263 0.181698 0
0.338437 0.308507 0
0.32291 0.298454 0
0.583747 0.277276 0
0.269202 0.101005 0
0.254162 0.112884 0
0.281967 0.0889204 0
0.315333 0.103792 0
0.332625 0.112396 0
0.276373 0.229163 0
0.286268 0.235014 0
0.275717 0.240886 0
0.286307 0.247064 0
0.275031 0.253226 0
1.1094 0.133348 0
0.253611 0.0947299 0
0.240543 0.104513 0
0.555943 0.126096 0
1.70136 0.13189 0
1.7054 0.280474 0
0.238631 0.0880636 0
0.225277 0.0972438 0
1.73154 0.294632 0
0.579193 0.109947 0
0.60402 0.12373 0
1.1134 0.2816 0
2.00973 0.123853 0
2.03986 0.285814 0
2.06505 0.270339 0
0.29636 0.241539 0
0.60865 0.291034 0
2.03539 0.107586 0
2.06108 0.122321 0
1.98859 0.287261 0
0.277301 0.149107 0
0.415326 0.311008 0
0.436394 0.298077 0
1.0833 0.119227 0
0.286306 0.259812 0
0.274781 0.265855 0
0.320873 0.318815 0
0.30283 0.307655 0
0.314553 0.153878 0
1.67525 0.117732 0
1.1395 0.29575 0
0.263717 0.259156 0
0.263377 0.271775 0
[...]
CELL_DATA 3331
VECTORS velocity double
0.061806 -0.0115083 0.0
0.138519 -0.0410168 0.0
0.225839 -0.0129485 0.0
0.0627142 -0.000430649 0.0
0.12902 -0.000644042 0.0
0.158326 -0.0141882 0.0
0.190167 -0.000341178 0.0
0.265095 0.0688199 0.0
0.142451 -0.0390864 0.0
0.145641 -0.0173768 0.0
0.237366 0.000125419 0.0
0.172531 0.0414849 0.0
0.0860116 0.0272738 0.0
-0.00737869 0.0103926 0.0
0.233347 -0.000832106 0.0
0.270953 0.18173 0.0
0.183148 -0.0213219 0.0
0.159381 -0.159336 0.0
0.120177 0.0059587 0.0
0.224394 -0.0131923 0.0
0.189757 -3.33195e-05 0.0
0.148965 -0.00573321 0.0
0.258868 0.0753375 0.0
0.217465 0.0102971 0.0
0.187562 -0.00811641 0.0
0.219489 -0.000174062 0.0
0.143068 -0.0217313 0.0
0.139498 0.0188618 0.0
0.13182 -0.0180599 0.0
0.121963 -0.000741792 0.0
0.234669 -0.016437 0.0
0.142829 -7.99822e-05 0.0
0.163986 -0.0111218 0.0
0.165723 0.000809341 0.0
0.203009 -0.0914489 0.0
0.185097 -0.0179227 0.0
0.0177877 0.00625034 0.0
0.215911 -0.0249004 0.0
0.140357 -0.00115876 0.0
0.177533 0.00127023 0.0
0.13555 0.0161921 0.0
0.206471 0.00213876 0.0
0.159598 0.0248453 0.0
0.138972 -0.000326077 0.0
0.167085 0.025771 0.0
0.0354036 -0.0186629 0.0
0.162824 0.0393901 0.0
0.207035 -0.0328955 0.0
0.177201 0.00335609 0.0
0.14372 -0.0313616 0.0
0.220262 0.0454243 0.0
0.0429823 -0.000239041 0.0
0.133334 0.000100752 0.0
0.373 -0.0387958 0.0
0.185563 -0.0293527 0.0
0.296828 0.0227629 0.0
0.231885 0.17019 0.0
-0.000518166 0.00749895 0.0
0.284816 0.02998 0.0
0.158732 0.0782736 0.0
0.209381 -0.106129 0.0
0.149629 0.00134924 0.0
0.248079 -0.164002 0.0
0.245342 0.0152906 0.0
0.27985 -0.0283001 0.0
0.2351 -0.0303166 0.0
-0.00795225 0.0125979 0.0
0.234193 0.182281 0.0
0.134489 -0.000537932 0.0
0.174487 0.0665945 0.0
0.177063 0.000740738 0.0
0.131663 0.00537748 0.0
0.206062 -0.0169299 0.0
0.182559 0.00233488 0.0
0.0679847 8.42575e-06 0.0
0.206511 -0.0226205 0.0
0.265494 0.187778 0.0
0.265889 0.026856 0.0
0.256802 -0.0421248 0.0
0.0526897 0.0182539 0.0
0.174462 -0.00155608 0.0
0.220935 0.0402093 0.0
0.189185 0.000826741 0.0
0.0639291 1.58991e-05 0.0
0.223499 0.0465713 0.0
0.182042 -0.00752957 0.0
0.0332433 0.0136711 0.0
0.151344 0.0992116 0.0
0.334021 -0.13627 0.0
0.228527 -0.0101906 0.0
0.193541 0.0168908 0.0
0.150441 0.00079371 0.0
0.0824515 -0.0472448 0.0
0.0271996 -0.0099746 0.0
0.106862 -0.0109958 0.0
0.272483 -0.0181518 0.0
0.320273 0.0278084 0.0
0.0422988 0.000125922 0.0
0.335846 0.0317452 0.0
0.276133 0.031528 0.0
0.243086 -0.0296425 0.0
0.20918 -0.0243164 0.0
0.260295 -0.0345146 0.0
0.13012 0.00207413 0.0
0.135936 -0.0014562 0.0
0.0430416 0.000723319 0.0
0.122522 -0.00135719 0.0
0.276301 0.0199912 0.0
0.27873 0.0179341 0.0
0.261539 -0.18253 0.0
0.184294 -0.0244124 0.0
0.225594 -0.00290134 0.0
0.0585905 -0.0434866 0.0
0.203383 -0.000883094 0.0
0.178638 -0.00665071 0.0
0.0386545 0.0120673 0.0
0.115892 -0.000140938 0.0
0.130668 -0.134532 0.0
0.228224 -0.0194728 0.0
0.171336 0.00210504 0.0
0.226482 -0.0228637 0.0
0.317475 0.0297063 0.0
0.277003 0.0820284 0.0
0.185139 -0.013722 0.0
0.169475 -0.000666519 0.0
0.286422 0.180453 0.0
0.141319 0.000428092 0.0
0.245762 -0.0432509 0.0
0.15914 0.0138883 0.0
0.215347 0.0346769 0.0
0.152125 -0.000387992 0.0
0.20776 -0.0199518 0.0
0.362205 -0.00328812 0.0
0.142803 0.000235754 0.0
0.197596 0.023214 0.0
0.208099 -0.0104347 0.0
0.0932788 -0.0235239 0.0
0.132082 -0.000370396 0.0
0.206635 -0.0392579 0.0
0.128296 -0.0012919 0.0
0.212263 -0.0189332 0.0
0.0050042 -0.0020269 0.0
0.258039 0.0133454 0.0
0.174887 0.000421834 0.0
0.138839 -0.00471381 0.0
0.0968053 0.0311433 0.0
0.153796 0.0170679 0.0
0.287295 -0.0255037 0.0
0.361329 -0.0738956 0.0
0.175143 -0.000768927 0.0
0.373081 -0.0510127 0.0
0.289546 0.000266715 0.0
0.163817 -0.00255204 0.0
0.131136 0.0289679 0.0
0.246953 0.0212435 0.0
0.31852 -0.0829938 0.0
0.233687 -0.00750357 0.0
0.24417 0.0200398 0.0
0.209441 0.0151305 0.0
0.188914 0.000612415 0.0
0.240968 0.0106015 0.0
0.108911 -0.0257688 0.0
0.124842 6.24526e-05 0.0
0.184218 0.00129285 0.0
0.104017 -0.00288537 0.0
0.164826 -0.00154029 0.0
0.227129 -0.0205379 0.0
0.259332 0.016588 0.0
0.166958 -0.0180402 0.0
0.0916456 0.00155868 0.0
0.315395 0.0054051 0.0
0.107414 0.031324 0.0
0.0555146 -0.000407605 0.0
0.207262 0.0219281 0.0
0.128081 -0.00177534 0.0
0.160339 0.140104 0.0
0.347871 0.128261 0.0
0.119059 0.000276551 0.0
0.160819 -0.167537 0.0
0.272638 -0.0195831 0.0
0.236787 -0.0162275 0.0
0.183801 0.000375659 0.0
0.191811 0.00194984 0.0
0.29081 -0.00652664 0.0
0.287187 -0.179712 0.0
0.136378 -0.00153333 0.0
0.214401 0.000206564 0.0
0.120283 0.00219445 0.0
0.182681 0.000402603 0.0
0.333246 0.0345093 0.0
0.222906 0.0118237 0.0
0.106632 -0.00831435 0.0
0.279644 0.019267 0.0
0.20197 0.0161848 0.0
0.169148 -0.0249258 0.0
0.126231 -0.00281064 0.0
0.167225 0.119432 0.0
0.365768 -0.0625214 0.0
0.304229 0.176577 0.0
0.090902 0.0266733 0.0
0.274072 -0.0114701 0.0
0.121756 -0.000257933 0.0
0.241188 0.0119383 0.0
0.323475 -0.00433292 0.0
0.29013 -0.181999 0.0
0.171242 -0.000493476 0.0
0.0878251 -0.0240644 0.0
0.112747 0.00526076 0.0
0.203567 0.0786287 0.0
0.244706 0.0243363 0.0
0.087144 -0.0497486 0.0
0.0100543 0.00909828 0.0
0.22873 -0.0127439 0.0
0.188991 0.0514352 0.0
-0.0140013 0.00425291 0.0
0.274777 0.178216 0.0
0.0929969 0.0044684 0.0
0.181268 0.000535204 0.0
-0.00418272 -0.00126274 0.0
0.246686 0.0145204 0.0
0.0715416 0.00304194 0.0
0.115472 -7.89941e-05 0.0
0.357778 0.137513 0.0
0.135731 0.000162204 0.0
0.0550233 0.0172033 0.0
0.178995 0.0393083 0.0
0.255761 0.0726917 0.0
0.0689406 -0.000540125 0.0
0.136094 0.00108687 0.0
0.346672 0.13107 0.0
0.0652371 -5.01553e-05 0.0
0.251711 0.0724591 0.0
0.0672418 0.00329442 0.0
0.15295 0.0208218 0.0
0.050943 0.0171111 0.0
0.351215 -0.108244 0.0
0.306327 -0.132521 0.0
0.308452 -0.0321701 0.0
0.33467 -0.0451056 0.0
0.260889 0.0244784 0.0
0.279585 -0.0204395 0.0
0.252724 0.00087158 0.0
0.0353011 -0.00989509 0.0
0.237077 -0.00158163 0.0
0.185464 0.010954 0.0
0.356173 -0.0066752 0.0
0.129754 5.14488e-05 0.0
0.223321 0.0138911 0.0
0.00303491 0.00306644 0.0
0.175246 -0.0260475 0.0
-0.00565822 0.0121733 0.0
0.354434 -0.0232175 0.0
0.33597 -0.033792 0.0
0.170374 -0.00170856 0.0
0.0987418 0.00421267 0.0
0.193417 -0.167663 0.0
0.151877 -0.0310158 0.0
0.173609 0.000194173 0.0
0.00469855 0.00101952 0.0
0.190375 -0.0473937 0.0
0.14322 0.00101692 0.0
0.101665 0.00476636 0.0
0.321186 0.150791 0.0
0.292318 0.0229677 0.0
0.133353 0.0452561 0.0
0.101862 0.0248326 0.0
0.240536 0.0108542 0.0
0.173759 0.000270898 0.0
-0.000847617 -0.000608446 0.0
0.165572 -0.0462993 0.0
0.233117 0.0329943 0.0
0.289604 -0.155923 0.0
0.262122 0.0137004 0.0
0.300096 -0.164374 0.0
0.324036 0.00139517 0.0
0.0666613 0.000324249 0.0
0.221311 0.0186463 0.0
0.0704693 -0.0186953 0.0
0.0700134 0.000953039 0.0
0.233089 -0.00186273 0.0
0.281895 -0.0196607 0.0
0.236635 0.112552 0.0
0.290319 0.0334831 0.0
0.255105 0.0425634 0.0
0.337553 0.0634609 0.0
0.340465 -0.123388 0.0
0.279451 -0.124153 0.0
0.37486 0.0553465 0.0
0.0502145 -0.0151234 0.0
0.341666 0.00654858 0.0
0.140539 0.00122944 0.0
0.179848 -0.00465383 0.0
0.233536 0.0999983 0.0
-0.0124773 0.00481868 0.0
0.365657 0.124886 0.0
0.257894 0.000542126 0.0
0.313067 -0.0263126 0.0
0.369809 0.0408333 0.0
0.100582 0.0014 0.0
0.0124372 0.00204024 0.0
0.00015241 0.00533166 0.0
0.361246 0.107086 0.0
0.158138 0.0398529 0.0
0.220638 0.0193848 0.0
0.0187585 0.0059418 0.0
0.211027 -0.072307 0.0
0.236306 -0.118596 0.0
0.178133 0.00172049 0.0
0.247211 -0.0207315 0.0
0.0907832 0.0266173 0.0
0.315871 0.174398 0.0
0.197596 0.118024 0.0
0.172384 0.0014365 0.0
0.360284 -0.0103123 0.0
0.158838 -0.0431771 0.0
0.214942 -0.0435538 0.0
0.201554 -0.0364227 0.0
0.246018 0.000291399 0.0
0.292801 0.152624 0.0
0.181992 -0.00144883 0.0
0.235881 0.0293073 0.0
0.288116 -0.0132098 0.0
0.0801076 -0.0201924 0.0
0.366311 -0.0822321 0.0
0.0346426 -1.53627e-06 0.0
0.245911 0.0591803 0.0
0.165551 0.0176128 0.0
0.215824 0.0102083 0.0
0.306222 0.157875 0.0
0.239696 -0.189038 0.0
0.148046 -0.0292174 0.0
0.26437 0.0272539 0.0
0.0484289 0.00275323 0.0
0.21375 0.187371 0.0
0.116742 -0.0342228 0.0
0.330485 0.0126637 0.0
0.285081 -0.0813896 0.0
0.180355 -0.00223754 0.0
0.184164 -0.0057993 0.0
0.342822 0.144047 0.0
0.23779 -0.0338733 0.0
0.168991 -0.143914 0.0
0.265096 0.136454 0.0
0.176021 0.174055 0.0
0.341399 0.02325 0.0
0.332107 0.150676 0.0
0.379816 0.0682177 0.0
0.286002 0.0124125 0.0
-0.00194692 -0.00583829 0.0
0.289021 -0.0088892 0.0
0.0706922 -0.00623019 0.0
0.190824 -0.0529399 0.0
0.227268 0.0208535 0.0
0.129629 0.0142837 0.0
0.222555 0.152956 0.0
0.00273561 -0.000641798 0.0
0.120487 0.000240769 0.0
0.140221 -0.00141773 0.0
0.0958068 -0.00348643 0.0
0.117471 0.00104313 0.0
0.183875 -0.180649 0.0
0.361615 0.0831928 0.0
0.353423 -0.0640989 0.0
0.217371 -0.000441373 0.0
0.229899 -0.103606 0.0
0.263385 0.000582289 0.0
0.00116656 0.0125466 0.0
0.134757 0.0429014 0.0
0.0250047 -0.00765644 0.0
0.17612 -0.00165451 0.0
-0.0123798 0.00282492 0.0
0.0540586 0.0560943 0.0
0.209984 0.0123936 0.0
0.214628 7.15314e-05 0.0
0.195451 -0.00029895 0.0
0.0832651 -0.000403839 0.0
-0.00708716 0.0113066 0.0
0.218282 0.0611548 0.0
0.367217 0.0991369 0.0
0.123177 0.000545994 0.0
0.109867 0.0306507 0.0
-0.00623846 0.0141003 0.0
0.161749 -0.00127002 0.0
0.220161 0.000141535 0.0
0.238056 0.0375533 0.0
0.172168 -5.13467e-05 0.0
0.321044 -0.14293 0.0
0.294646 -0.00840717 0.0
0.0200204 0.00540169 0.0
0.1657 0.00588361 0.0
0.182362 0.00067884 0.0
0.261458 -0.0261439 0.0
0.130332 -0.000609521 0.0
0.186026 -0.00440322 0.0
0.239187 0.0815781 0.0
0.249762 -0.113024 0.0
-0.00437696 0.007384 0.0
0.162997 -0.013685 0.0
0.317713 -0.0404927 0.0
0.205151 -0.0270146 0.0
0.00445367 0.00919979 0.0
0.132753 4.41726e-05 0.0
0.267221 -0.180886 0.0
0.137715 -0.0199034 0.0
0.255712 -0.0507662 0.0
0.296363 0.00102968 0.0
0.180283 -0.00056743 0.0
0.344506 0.0246635 0.0
0.212885 0.000464508 0.0
0.25309 0.00295738 0.0
0.217096 -0.000334477 0.0
0.210938 0.0104497 0.0
0.0449382 0.068619 0.0
0.29148 -0.134887 0.0
0.210243 0.133055 0.0
0.273452 0.000819146 0.0
0.1159 -0.0292457 0.0
0.0749112 0.00787399 0.0
0.197919 0.0295153 0.0
0.0205553 0.0129073 0.0
0.258095 0.0382516 0.0
0.178808 -0.0268024 0.0
0.203068 -0.00446088 0.0
0.0972882 0.00630444 0.0
0.116546 0.00025205 0.0
0.121302 -0.00392601 0.0
0.100977 -0.00230719 0.0
0.247611 -0.0129371 0.0
0.251204 -0.0437883 0.0
0.274843 0.0162334 0.0
0.27083 -0.122896 0.0
0.0235614 0.0145849 0.0
0.357837 0.122597 0.0
0.279723 0.156746 0.0
0.26951 0.000882376 0.0
0.173622 0.000165613 0.0
0.173076 -0.000207769 0.0
0.180229 0.000452423 0.0
0.124805 0.00150602 0.0
0.188364 0.000742682 0.0
0.132438 -0.000718775 0.0
0.110123 -0.00192683 0.0
0.356035 -0.10331 0.0
0.141266 0.000597975 0.0
0.232733 0.0554285 0.0
0.249352 0.11412 0.0
0.341259 -0.0930248 0.0
0.24704 0.16042 0.0
0.179324 -0.00279587 0.0
0.348236 0.108908 0.0
0.339562 0.00368011 0.0
-0.00314721 -0.00584779 0.0
0.127044 0.136892 0.0
0.0839273 -0.00297033 0.0
0.153154 -0.00515976 0.0
0.206177 -0.00552144 0.0
0.226824 0.0146387 0.0
0.0496031 -0.0237278 0.0
0.297679 0.0026016 0.0
0.0535475 -0.00578303 0.0
0.17566 0.00180533 0.0
0.32932 0.119133 0.0
0.0923448 0.000294123 0.0
0.359208 -0.0381621 0.0
0.115058 -0.00595199 0.0
0.132483 0.00349253 0.0
0.220458 -0.00186373 0.0
0.127874 -0.00360983 0.0
0.109693 0.0295024 0.0
0.104786 0.00795648 0.0
0.224824 -0.00735729 0.0
0.285494 -0.00538223 0.0
0.127069 -0.000588901 0.0
0.315483 -0.0426916 0.0
0.272106 0.000762941 0.0
0.141928 0.0394346 0.0
0.0588299 0.000413662 0.0
0.0578852 -0.000547067 0.0
0.204897 0.0979729 0.0
0.079718 0.00179819 0.0
0.36399 -0.0225026 0.0
0.0550908 0.00422564 0.0
0.364145 -0.0990515 0.0
0.223282 -0.0492889 0.0
0.153443 0.0204771 0.0
0.122396 -0.00216902 0.0
0.281143 -0.0496333 0.0
0.225665 -0.00610726 0.0
0.226248 0.00696466 0.0
0.0948703 -0.00199543 0.0
0.024122 -0.000670394 0.0
0.170655 -0.000427913 0.0
0.224998 -0.043759 0.0
0.156548 -0.00969314 0.0
0.297727 -0.113521 0.0
0.0855584 0.00682411 0.0
0.23378 -0.137264 0.0
0.179438 -0.00107816 0.0
0.123252 -0.118325 0.0
0.0688289 -0.00317216 0.0
0.323248 0.030356 0.0
0.0196387 0.0120525 0.0
0.366518 -0.0317748 0.0
0.346851 -0.126437 0.0
0.167427 -0.00164112 0.0
0.0691499 0.00445741 0.0
0.253277 -0.076681 0.0
0.273986 -0.104021 0.0
0.191149 0.000828407 0.0
0.18285 0.16008 0.0
0.150577 0.00107806 0.0
0.164594 0.0423271 0.0
0.140271 1.97552e-05 0.0
0.311874 0.131167 0.0
0.340465 0.0980176 0.0
0.136105 0.000634117 0.0
0.073467 0.000671605 0.0
0.0623127 -0.000467017 0.0
0.32591 0.0107023 0.0
0.194582 0.0127038 0.0
0.247069 -0.00772115 0.0
0.140193 -0.00107469 0.0
0.16631 -0.0403932 0.0
0.192813 0.0113382 0.0
0.209294 -0.011934 0.0
0.28864 0.00687416 0.0
0.195204 -0.0103462 0.0
-0.00186755 -0.00226627 0.0
0.129402 0.000619139 0.0
0.090793 0.00382714 0.0
0.368126 0.0608605 0.0
0.332614 0.136288 0.0
0.332067 -0.137613 0.0
0.152657 0.00572761 0.0
0.140515 -0.000680324 0.0
0.185474 0.0501191 0.0
0.15963 0.000476967 0.0
0.177769 -0.000422993 0.0
0.241517 -0.0196815 0.0
0.259348 -0.00342306 0.0
0.169669 -0.00179976 0.0
0.257365 -0.00431178 0.0
0.345841 0.0128438 0.0
0.237387 -0.014637 0.0
0.0873644 -0.00181562 0.0
0.193666 0.0283477 0.0
0.32024 0.0064383 0.0
0.28508 -0.018911 0.0
0.29775 -0.00141391 0.0
0.31428 0.0108145 0.0
0.259048 0.000794142 0.0
0.246222 0.00373517 0.0
0.0385084 0.000490861 0.0
0.261845 -0.00676947 0.0
0.255309 -0.00549231 0.0
0.202716 -0.0360201 0.0
0.139971 0.000182375 0.0
0.0581995 0.00296755 0.0
0.0668361 0.00451786 0.0
0.0631264 0.000341686 0.0
0.0816758 0.00260745 0.0
0.250888 -0.00872823 0.0
0.306061 -0.0459703 0.0
0.236723 0.0122124 0.0
0.283806 -0.00621346 0.0
0.105178 0.110541 0.0
0.288895 0.131966 0.0
0.16286 0.00758676 0.0
0.241193 -0.0216084 0.0
0.0724451 -0.000190424 0.0
0.0793335 -0.0046536 0.0
0.111216 -0.00381689 0.0
0.277499 -0.0121264 0.0
0.344266 -0.143129 0.0
0.121932 -0.141384 0.0
0.136351 0.000119189 0.0
0.253099 -0.00689978 0.0
0.208343 0.045053 0.0
0.0405879 0.0128064 0.0
0.197796 0.0172096 0.0
0.247228 0.00211374 0.0
0.113878 0.0395747 0.0
0.246934 -0.0333022 0.0
0.219843 -0.0304503 0.0
0.236352 0.0642769 0.0
0.076577 0.00117085 0.0
0.223469 -0.0636424 0.0
0.29373 0.0428713 0.0
0.321487 -0.10831 0.0
0.254945 -0.049257 0.0
0.0449105 0.00151872 0.0
0.00621892 0.00327723 0.0
0.137042 0.00063783 0.0
0.0832521 -0.00825272 0.0
0.174147 0.00146034 0.0
0.0885989 0.00136191 0.0
0.224641 -0.0350912 0.0
0.205061 0.0475459 0.0
0.244059 -0.0659969 0.0
0.198129 0.183825 0.0
0.182425 0.00271266 0.0
0.254588 -0.0598677 0.0
0.200485 -0.0492396 0.0
0.225932 -0.0498797 0.0
0.240021 -0.0255585 0.0
0.293852 -0.0382414 0.0
0.249477 -0.0414092 0.0
0.0806367 -0.00356883 0.0
0.244872 0.0331471 0.0
0.244419 0.191064 0.0
0.263 0.000790857 0.0
0.31325 0.0891528 0.0
0.147464 0.0040086 0.0
0.0744498 0.00318108 0.0
0.123152 0.151943 0.0
0.275064 0.000693574 0.0
0.249938 -0.00746558 0.0
0.326767 -0.0389513 0.0
0.0546291 -0.0016939 0.0
0.232012 0.0498239 0.0
0.255951 0.00173398 0.0
0.0651802 0.000264165 0.0
0.169042 -0.170397 0.0
0.140586 0.00356627 0.0
0.342398 -0.0284304 0.0
0.219474 -0.186872 0.0
0.21678 -0.00874027 0.0
0.236359 -0.0015682 0.0
0.029339 -0.0110582 0.0
0.159803 0.0049801 0.0
0.302397 -0.0354008 0.0
0.261156 -0.00193994 0.0
-0.00481275 0.00828048 0.0
0.261555 0.0537336 0.0
0.165542 -0.0229241 0.0
0.259635 -0.0311551 0.0
0.304997 -0.0362928 0.0
0.0396708 0.000382515 0.0
0.244668 0.0301677 0.0
0.116982 -0.00159578 0.0
0.044496 -0.0639054 0.0
0.205772 0.0121956 0.0
0.333664 -0.154831 0.0
0.140822 0.161963 0.0
0.240729 0.000446195 0.0
0.0777553 -0.000643582 0.0
0.104292 -0.00275808 0.0
0.231951 0.0277719 0.0
0.247694 -0.035586 0.0
0.0497858 0.0024003 0.0
0.112417 -0.0261168 0.0
0.253646 0.00219749 0.0
0.216288 0.0491513 0.0
0.352274 0.0074992 0.0
-0.00122036 -0.00243061 0.0
0.250574 -0.0176574 0.0
0.218183 0.0406515 0.0
0.0551707 0.00452558 0.0
0.284225 0.0292761 0.0
0.238623 0.0143417 0.0
0.257505 0.00803342 0.0
0.0422233 -0.00355019 0.0
0.0428429 0.00442554 0.0
0.114101 0.000107843 0.0
0.0682884 0.000484609 0.0
0.0601709 -0.0242649 0.0
0.26695 -0.0390427 0.0
0.296676 -0.0193701 0.0
0.0425212 0.000814792 0.0
0.270122 0.122294 0.0
0.258225 -0.0288183 0.0
0.118581 0.0742551 0.0
0.369583 0.0880116 0.0
0.340772 -0.0283566 0.0
0.250509 0.00279171 0.0
0.0864821 -0.00133202 0.0
0.227582 -0.0283275 0.0
0.302211 0.0563474 0.0
0.294073 0.0672513 0.0
0.25893 0.0541207 0.0
0.272675 0.0654023 0.0
0.232233 0.0513931 0.0
0.23289 0.0247981 0.0
0.277759 -0.0491649 0.0
0.139238 -0.000668229 0.0
0.230481 0.0475356 0.0
0.221139 0.049672 0.0
0.107633 -0.0723344 0.0
0.0154295 0.00712405 0.0
0.0215664 0.0452421 0.0
0.143895 0.00199707 0.0
0.274509 -0.0219346 0.0
0.264947 -0.0367476 0.0
0.244327 -0.0259255 0.0
0.0708606 0.000697499 0.0
0.259751 -0.00876632 0.0
0.268483 0.000496002 0.0
0.0215552 -0.0420575 0.0
0.244453 -0.0274961 0.0
0.04394 0.00103372 0.0
0.268171 0.000563343 0.0
0.184461 -0.00142412 0.0
0.227675 -0.0304871 0.0
0.00096281 0.00938134 0.0
0.212748 -0.00983973 0.0
0.244811 -0.0159818 0.0
0.255491 0.00044586 0.0
0.194528 2.17118e-05 0.0
0.353585 -0.132607 0.0
0.257983 -0.0504608 0.0
0.274783 -0.155641 0.0
0.174589 0.00897664 0.0
0.168525 0.000667564 0.0
0.314405 -0.161068 0.0
0.253263 0.000913576 0.0
0.17835 -0.00686616 0.0
0.287315 -0.0319336 0.0
0.272574 0.000509379 0.0
0.215728 0.00348095 0.0
0.115231 -0.00428185 0.0
0.362945 -0.00875708 0.0
0.011524 -0.00358469 0.0
0.344671 -0.0146518 0.0
0.203214 0.00607466 0.0
0.274744 0.000433471 0.0
0.373279 0.0353633 0.0
0.114813 0.0406295 0.0
0.304402 0.151674 0.0
0.275052 0.000467743 0.0
0.0616378 0.0181404 0.0
0.24011 -0.00782066 0.0
0.153597 0.00435169 0.0
0.24776 -0.0087949 0.0
0.204465 0.006045 0.0
0.252482 -0.0160452 0.0
0.217496 0.00439311 0.0
0.247308 0.0198772 0.0
0.182756 0.00083179 0.0
0.049918 -0.00196557 0.0
0.0665603 0.000210036 0.0
0.316615 -0.0164703 0.0
0.0108521 -0.016443 0.0
0.261876 -0.00133061 0.0
0.261767 0.000775312 0.0
0.329101 0.168822 0.0
0.235027 -0.0863045 0.0
0.272848 0.000514393 0.0
0.0733834 0.0416831 0.0
0.0101257 0.002525 0.0
0.0171453 0.0336365 0.0
0.241632 -0.0130443 0.0
0.0608625 0.000115227 0.0
0.334204 -0.00916224 0.0
0.28179 -0.0270328 0.0
0.275062 0.00038076 0.0
0.181799 0.0110399 0.0
0.266267 -0.0012396 0.0
0.0359799 -0.00145784 0.0
0.239779 0.00510809 0.0
0.244585 0.0053693 0.0
0.262302 0.000542109 0.0
0.262096 0.000462507 0.0
0.123966 0.00157575 0.0
0.268875 0.000472712 0.0
0.255578 -0.0196945 0.0
0.0454946 -0.00415599 0.0
0.250487 0.00096114 0.0
0.0608672 -0.047118 0.0
0.230765 0.00172498 0.0
0.0574069 -0.00069344 0.0
0.245053 0.00406023 0.0
0.167781 0.0389069 0.0
0.246988 -0.00721384 0.0
0.250578 -0.0132668 0.0
-0.00351825 -0.00239264 0.0
0.137371 -0.00260691 0.0
0.191287 -0.000358861 0.0
0.191891 -0.0485898 0.0
0.149274 0.00234102 0.0
0.197325 -0.0236004 0.0
0.269181 0.000283806 0.0
0.112905 -0.000877118 0.0
0.0402263 -0.00228715 0.0
0.117592 -0.00167865 0.0
0.116571 -0.00292074 0.0
0.116624 0.00192806 0.0
0.107894 0.00222912 0.0
0.354337 -0.0137862 0.0
0.26864 0.000451792 0.0
0.238514 -0.00453136 0.0
0.109624 0.000190193 0.0
0.267323 -0.00091526 0.0
0.123764 0.000981504 0.0
0.220215 0.00171666 0.0
0.0553363 0.000188779 0.0
0.31907 -0.0649471 0.0
0.0413192 0.000720734 0.0
0.247314 -0.00470794 0.0
0.0403145 0.0179102 0.0
0.235902 0.00258504 0.0
0.179459 0.000705748 0.0
0.272942 0.000363996 0.0
0.238252 0.00399013 0.0
0.123754 -0.000509257 0.0
0.33017 -0.0357021 0.0
0.172225 0.000535177 0.0
0.240142 -0.00736512 0.0
0.242945 0.00129409 0.0
0.117454 0.00085702 0.0
0.245335 0.00251607 0.0
0.26307 0.00039028 0.0
0.191894 -0.00367183 0.0
0.269831 0.000625727 0.0
0.244835 0.00350416 0.0
0.376403 0.0604918 0.0
0.208974 -0.000240294 0.0
0.245342 0.00325122 0.0
0.262779 -0.001033 0.0
0.238494 0.00371849 0.0
0.0579704 -0.000333584 0.0
0.23884 2.15846e-05 0.0
0.262349 -0.000642847 0.0
0.25685 0.0464379 0.0
0.0345792 0.000310245 0.0
0.26786 -0.000624301 0.0
0.056798 -0.000398406 0.0
0.0583432 0.00149879 0.0
0.123104 -0.00375648 0.0
0.12243 -0.00133757 0.0
0.246652 -0.00762925 0.0