# vtk DataFile Version 3.0
Malha 2D com triângulos e temperatura
ASCII
DATASET UNSTRUCTURED_GRID

POINTS 400 double
0 0 0
1 0 0
1 1 0
0 1 0
0.0526316 0 0
0.105263 0 0
0.157895 0 0
0.210526 0 0
0.263158 0 0
0.315789 0 0
0.368421 0 0
0.421053 0 0
0.473684 0 0
0.526316 0 0
0.578947 0 0
0.631579 0 0
0.684211 0 0
0.736842 0 0
0.789474 0 0
0.842105 0 0
0.894737 0 0
0.947368 0 0
1 0.0526316 0
1 0.105263 0
1 0.157895 0
1 0.210526 0
1 0.263158 0
1 0.315789 0
1 0.368421 0
1 0.421053 0
1 0.473684 0
1 0.526316 0
1 0.578947 0
1 0.631579 0
1 0.684211 0
1 0.736842 0
1 0.789474 0
1 0.842105 0
1 0.894737 0
1 0.947368 0
0.947368 1 0
0.894737 1 0
0.842105 1 0
0.789474 1 0
0.736842 1 0
0.684211 1 0
0.631579 1 0
0.578947 1 0
0.526316 1 0
0.473684 1 0
0.421053 1 0
0.368421 1 0
0.315789 1 0
0.263158 1 0
0.210526 1 0
0.157895 1 0
0.105263 1 0
0.0526316 1 0
0 0.947368 0
0 0.894737 0
0 0.842105 0
0 0.789474 0
0 0.736842 0
0 0.684211 0
0 0.631579 0
0 0.578947 0
0 0.526316 0
0 0.473684 0
0 0.421053 0
0 0.368421 0
0 0.315789 0
0 0.263158 0
0 0.210526 0
0 0.157895 0
0 0.105263 0
0 0.0526316 0
0.0526316 0.947368 0
0.0526316 0.894737 0
0.0526316 0.842105 0
0.0526316 0.789474 0
0.0526316 0.736842 0
0.0526316 0.684211 0
0.0526316 0.631579 0
0.0526316 0.578947 0
0.0526316 0.526316 0
0.0526316 0.473684 0
0.0526316 0.421053 0
0.0526316 0.368421 0
0.0526316 0.315789 0
0.0526316 0.263158 0
0.0526316 0.210526 0
0.0526316 0.157895 0
0.0526316 0.105263 0
0.0526316 0.0526316 0
0.105263 0.947368 0
0.105263 0.894737 0
0.105263 0.842105 0
0.105263 0.789474 0
0.105263 0.736842 0
0.105263 0.684211 0
0.105263 0.631579 0
0.105263 0.578947 0
0.105263 0.526316 0
0.105263 0.473684 0
0.105263 0.421053 0
0.105263 0.368421 0
0.105263 0.315789 0
0.105263 0.263158 0
0.105263 0.210526 0
0.105263 0.157895 0
0.105263 0.105263 0
0.105263 0.0526316 0
0.157895 0.947368 0
0.157895 0.894737 0
0.157895 0.842105 0
0.157895 0.789474 0
0.157895 0.736842 0
0.157895 0.684211 0
0.157895 0.631579 0
0.157895 0.578947 0
0.157895 0.526316 0
0.157895 0.473684 0
0.157895 0.421053 0
0.157895 0.368421 0
0.157895 0.315789 0
0.157895 0.263158 0
0.157895 0.210526 0
0.157895 0.157895 0
0.157895 0.105263 0
0.157895 0.0526316 0
0.210526 0.947368 0
0.210526 0.894737 0
0.210526 0.842105 0
0.210526 0.789474 0
0.210526 0.736842 0
0.210526 0.684211 0
0.210526 0.631579 0
0.210526 0.578947 0
0.210526 0.526316 0
0.210526 0.473684 0
0.210526 0.421053 0
0.210526 0.368421 0
0.210526 0.315789 0
0.210526 0.263158 0
0.210526 0.210526 0
0.210526 0.157895 0
0.210526 0.105263 0
0.210526 0.0526316 0
0.263158 0.947368 0
0.263158 0.894737 0
0.263158 0.842105 0
0.263158 0.789474 0
0.263158 0.736842 0
0.263158 0.684211 0
0.263158 0.631579 0
0.263158 0.578947 0
0.263158 0.526316 0
0.263158 0.473684 0
0.263158 0.421053 0
0.263158 0.368421 0
0.263158 0.315789 0
0.263158 0.263158 0
0.263158 0.210526 0
0.263158 0.157895 0
0.263158 0.105263 0
0.263158 0.0526316 0
0.315789 0.947368 0
0.315789 0.894737 0
0.315789 0.842105 0
0.315789 0.789474 0
0.315789 0.736842 0
0.315789 0.684211 0
0.315789 0.631579 0
0.315789 0.578947 0
0.315789 0.526316 0
0.315789 0.473684 0
0.315789 0.421053 0
0.315789 0.368421 0
0.315789 0.315789 0
0.315789 0.263158 0
0.315789 0.210526 0
0.315789 0.157895 0
0.315789 0.105263 0
0.315789 0.0526316 0
0.368421 0.947368 0
0.368421 0.894737 0
0.368421 0.842105 0
0.368421 0.789474 0
0.368421 0.736842 0
0.368421 0.684211 0
0.368421 0.631579 0
0.368421 0.578947 0
0.368421 0.526316 0
0.368421 0.473684 0
0.368421 0.421053 0
0.368421 0.368421 0
0.368421 0.315789 0
0.368421 0.263158 0
0.368421 0.210526 0
0.368421 0.157895 0
0.368421 0.105263 0
0.368421 0.0526316 0
0.421053 0.947368 0
0.421053 0.894737 0
0.421053 0.842105 0
0.421053 0.789474 0
0.421053 0.736842 0
0.421053 0.684211 0
0.421053 0.631579 0
0.421053 0.578947 0
0.421053 0.526316 0
0.421053 0.473684 0
0.421053 0.421053 0
0.421053 0.368421 0
0.421053 0.315789 0
0.421053 0.263158 0
0.421053 0.210526 0
0.421053 0.157895 0
0.421053 0.105263 0
0.421053 0.0526316 0
0.473684 0.947368 0
0.473684 0.894737 0
0.473684 0.842105 0
0.473684 0.789474 0
0.473684 0.736842 0
0.473684 0.684211 0
0.473684 0.631579 0
0.473684 0.578947 0
0.473684 0.526316 0
0.473684 0.473684 0
0.473684 0.421053 0
0.473684 0.368421 0
0.473684 0.315789 0
0.473684 0.263158 0
0.473684 0.210526 0
0.473684 0.157895 0
0.473684 0.105263 0
0.473684 0.0526316 0
0.526316 0.947368 0
0.526316 0.894737 0
0.526316 0.842105 0
0.526316 0.789474 0
0.526316 0.736842 0
0.526316 0.684211 0
0.526316 0.631579 0
0.526316 0.578947 0
0.526316 0.526316 0
0.526316 0.473684 0
0.526316 0.421053 0
0.526316 0.368421 0
0.526316 0.315789 0
0.526316 0.263158 0
0.526316 0.210526 0
0.526316 0.157895 0
0.526316 0.105263 0
0.526316 0.0526316 0
0.578947 0.947368 0
0.578947 0.894737 0
0.578947 0.842105 0
0.578947 0.789474 0
0.578947 0.736842 0
0.578947 0.684211 0
0.578947 0.631579 0
0.578947 0.578947 0
0.578947 0.526316 0
0.578947 0.473684 0
0.578947 0.421053 0
0.578947 0.368421 0
0.578947 0.315789 0
0.578947 0.263158 0
0.578947 0.210526 0
0.578947 0.157895 0
0.578947 0.105263 0
0.578947 0.0526316 0
0.631579 0.947368 0
0.631579 0.894737 0
0.631579 0.842105 0
0.631579 0.789474 0
0.631579 0.736842 0
0.631579 0.684211 0
0.631579 0.631579 0
0.631579 0.578947 0
0.631579 0.526316 0
0.631579 0.473684 0
0.631579 0.421053 0
0.631579 0.368421 0
0.631579 0.315789 0
0.631579 0.263158 0
0.631579 0.210526 0
0.631579 0.157895 0
0.631579 0.105263 0
0.631579 0.0526316 0
0.684211 0.947368 0
0.684211 0.894737 0
0.684211 0.842105 0
0.684211 0.789474 0
0.684211 0.736842 0
0.684211 0.684211 0
0.684211 0.631579 0
0.684211 0.578947 0
0.684211 0.526316 0
0.684211 0.473684 0
0.684211 0.421053 0
0.684211 0.368421 0
0.684211 0.315789 0
0.684211 0.263158 0
0.684211 0.210526 0
0.684211 0.157895 0
0.684211 0.105263 0
0.684211 0.0526316 0
0.736842 0.947368 0
0.736842 0.894737 0
0.736842 0.842105 0
0.736842 0.789474 0
0.736842 0.736842 0
0.736842 0.684211 0
0.736842 0.631579 0
0.736842 0.578947 0
0.736842 0.526316 0
0.736842 0.473684 0
0.736842 0.421053 0
0.736842 0.368421 0
0.736842 0.315789 0
0.736842 0.263158 0
0.736842 0.210526 0
0.736842 0.157895 0
0.736842 0.105263 0
0.736842 0.0526316 0
0.789474 0.947368 0
0.789474 0.894737 0
0.789474 0.842105 0
0.789474 0.789474 0
0.789474 0.736842 0
0.789474 0.684211 0
0.789474 0.631579 0
0.789474 0.578947 0
0.789474 0.526316 0
0.789474 0.473684 0
0.789474 0.421053 0
0.789474 0.368421 0
0.789474 0.315789 0
0.789474 0.263158 0
0.789474 0.210526 0
0.789474 0.157895 0
0.789474 0.105263 0
0.789474 0.0526316 0
0.842105 0.947368 0
0.842105 0.894737 0
0.842105 0.842105 0
0.842105 0.789474 0
0.842105 0.736842 0
0.842105 0.684211 0
0.842105 0.631579 0
0.842105 0.578947 0
0.842105 0.526316 0
0.842105 0.473684 0
0.842105 0.421053 0
0.842105 0.368421 0
0.842105 0.315789 0
0.842105 0.263158 0
0.842105 0.210526 0
0.842105 0.157895 0
0.842105 0.105263 0
0.842105 0.0526316 0
0.894737 0.947368 0
0.894737 0.894737 0
0.894737 0.842105 0
0.894737 0.789474 0
0.894737 0.736842 0
0.894737 0.684211 0
0.894737 0.631579 0
0.894737 0.578947 0
0.894737 0.526316 0
0.894737 0.473684 0
0.894737 0.421053 0
0.894737 0.368421 0
0.894737 0.315789 0
0.894737 0.263158 0
0.894737 0.210526 0
0.894737 0.157895 0
0.894737 0.105263 0
0.894737 0.0526316 0
0.947368 0.947368 0
0.947368 0.894737 0
0.947368 0.842105 0
0.947368 0.789474 0
0.947368 0.736842 0
0.947368 0.684211 0
0.947368 0.631579 0
0.947368 0.578947 0
0.947368 0.526316 0
0.947368 0.473684 0
0.947368 0.421053 0
0.947368 0.368421 0
0.947368 0.315789 0
0.947368 0.263158 0
0.947368 0.210526 0
0.947368 0.157895 0
0.947368 0.105263 0
0.947368 0.0526316 0

CELLS 722 2888
3 3 58 57
3 58 76 57
3 58 59 76
3 59 77 76
3 59 60 77
3 60 78 77
3 60 61 78
3 61 79 78
3 61 62 79
3 62 80 79
3 62 63 80
3 63 81 80
3 63 64 81
3 64 82 81
3 64 65 82
3 65 83 82
3 65 66 83
3 66 84 83
3 66 67 84
3 67 85 84
3 67 68 85
3 68 86 85
3 68 69 86
3 69 87 86
3 69 70 87
3 70 88 87
3 70 71 88
3 71 89 88
3 71 72 89
3 72 90 89
3 72 73 90
3 73 91 90
3 73 74 91
3 74 92 91
3 74 75 92
3 75 93 92
3 75 0 93
3 0 4 93
3 57 76 56
3 76 94 56
3 76 77 94
3 77 95 94
3 77 78 95
3 78 96 95
3 78 79 96
3 79 97 96
3 79 80 97
3 80 98 97
3 80 81 98
3 81 99 98
3 81 82 99
3 82 100 99
3 82 83 100
3 83 101 100
3 83 84 101
3 84 102 101
3 84 85 102
3 85 103 102
3 85 86 103
3 86 104 103
3 86 87 104
3 87 105 104
3 87 88 105
3 88 106 105
3 88 89 106
3 89 107 106
3 89 90 107
3 90 108 107
3 90 91 108
3 91 109 108
3 91 92 109
3 92 110 109
3 92 93 110
3 93 111 110
3 93 4 111
3 4 5 111
3 56 94 55
3 94 112 55
3 94 95 112
3 95 113 112
3 95 96 113
3 96 114 113
3 96 97 114
3 97 115 114
3 97 98 115
3 98 116 115
3 98 99 116
3 99 117 116
3 99 100 117
3 100 118 117
3 100 101 118
3 101 119 118
3 101 102 119
3 102 120 119
3 102 103 120
3 103 121 120
3 103 104 121
3 104 122 121
3 104 105 122
3 105 123 122
3 105 106 123
3 106 124 123
3 106 107 124
3 107 125 124
3 107 108 125
3 108 126 125
3 108 109 126
3 109 127 126
3 109 110 127
3 110 128 127
3 110 111 128
3 111 129 128
3 111 5 129
3 5 6 129
3 55 112 54
3 112 130 54
3 112 113 130
3 113 131 130
3 113 114 131
3 114 132 131
3 114 115 132
3 115 133 132
3 115 116 133
3 116 134 133
3 116 117 134
3 117 135 134
3 117 118 135
3 118 136 135
3 118 119 136
3 119 137 136
3 119 120 137
3 120 138 137
3 120 121 138
3 121 139 138
3 121 122 139
3 122 140 139
3 122 123 140
3 123 141 140
3 123 124 141
3 124 142 141
3 124 125 142
3 125 143 142
3 125 126 143
3 126 144 143
3 126 127 144
3 127 145 144
3 127 128 145
3 128 146 145
3 128 129 146
3 129 147 146
3 129 6 147
3 6 7 147
3 54 130 53
3 130 148 53
3 130 131 148
3 131 149 148
3 131 132 149
3 132 150 149
3 132 133 150
3 133 151 150
3 133 134 151
3 134 152 151
3 134 135 152
3 135 153 152
3 135 136 153
3 136 154 153
3 136 137 154
3 137 155 154
3 137 138 155
3 138 156 155
3 138 139 156
3 139 157 156
3 139 140 157
3 140 158 157
3 140 141 158
3 141 159 158
3 141 142 159
3 142 160 159
3 142 143 160
3 143 161 160
3 143 144 161
3 144 162 161
3 144 145 162
3 145 163 162
3 145 146 163
3 146 164 163
3 146 147 164
3 147 165 164
3 147 7 165
3 7 8 165
3 53 148 52
3 148 166 52
3 148 149 166
3 149 167 166
3 149 150 167
3 150 168 167
3 150 151 168
3 151 169 168
3 151 152 169
3 152 170 169
3 152 153 170
3 153 171 170
3 153 154 171
3 154 172 171
3 154 155 172
3 155 173 172
3 155 156 173
3 156 174 173
3 156 157 174
3 157 175 174
3 157 158 175
3 158 176 175
3 158 159 176
3 159 177 176
3 159 160 177
3 160 178 177
3 160 161 178
3 161 179 178
3 161 162 179
3 162 180 179
3 162 163 180
3 163 181 180
3 163 164 181
3 164 182 181
3 164 165 182
3 165 183 182
3 165 8 183
3 8 9 183
3 52 166 51
3 166 184 51
3 166 167 184
3 167 185 184
3 167 168 185
3 168 186 185
3 168 169 186
3 169 187 186
3 169 170 187
3 170 188 187
3 170 171 188
3 171 189 188
3 171 172 189
3 172 190 189
3 172 173 190
3 173 191 190
3 173 174 191
3 174 192 191
3 174 175 192
3 175 193 192
3 175 176 193
3 176 194 193
3 176 177 194
3 177 195 194
3 177 178 195
3 178 196 195
3 178 179 196
3 179 197 196
3 179 180 197
3 180 198 197
3 180 181 198
3 181 199 198
3 181 182 199
3 182 200 199
3 182 183 200
3 183 201 200
3 183 9 201
3 9 10 201
3 51 184 50
3 184 202 50
3 184 185 202
3 185 203 202
3 185 186 203
3 186 204 203
3 186 187 204
3 187 205 204
3 187 188 205
3 188 206 205
3 188 189 206
3 189 207 206
3 189 190 207
3 190 208 207
3 190 191 208
3 191 209 208
3 191 192 209
3 192 210 209
3 192 193 210
3 193 211 210
3 193 194 211
3 194 212 211
3 194 195 212
3 195 213 212
3 195 196 213
3 196 214 213
3 196 197 214
3 197 215 214
3 197 198 215
3 198 216 215
3 198 199 216
3 199 217 216
3 199 200 217
3 200 218 217
3 200 201 218
3 201 219 218
3 201 10 219
3 10 11 219
3 50 202 49
3 202 220 49
3 202 203 220
3 203 221 220
3 203 204 221
3 204 222 221
3 204 205 222
3 205 223 222
3 205 206 223
3 206 224 223
3 206 207 224
3 207 225 224
3 207 208 225
3 208 226 225
3 208 209 226
3 209 227 226
3 209 210 227
3 210 228 227
3 210 211 228
3 211 229 228
3 211 212 229
3 212 230 229
3 212 213 230
3 213 231 230
3 213 214 231
3 214 232 231
3 214 215 232
3 215 233 232
3 215 216 233
3 216 234 233
3 216 217 234
3 217 235 234
3 217 218 235
3 218 236 235
3 218 219 236
3 219 237 236
3 219 11 237
3 11 12 237
3 49 220 48
3 220 238 48
3 220 221 238
3 221 239 238
3 221 222 239
3 222 240 239
3 222 223 240
3 223 241 240
3 223 224 241
3 224 242 241
3 224 225 242
3 225 243 242
3 225 226 243
3 226 244 243
3 226 227 244
3 227 245 244
3 227 228 245
3 228 246 245
3 228 229 246
3 229 247 246
3 229 230 247
3 230 248 247
3 230 231 248
3 231 249 248
3 231 232 249
3 232 250 249
3 232 233 250
3 233 251 250
3 233 234 251
3 234 252 251
3 234 235 252
3 235 253 252
3 235 236 253
3 236 254 253
3 236 237 254
3 237 255 254
3 237 12 255
3 12 13 255
3 48 238 47
3 238 256 47
3 238 239 256
3 239 257 256
3 239 240 257
3 240 258 257
3 240 241 258
3 241 259 258
3 241 242 259
3 242 260 259
3 242 243 260
3 243 261 260
3 243 244 261
3 244 262 261
3 244 245 262
3 245 263 262
3 245 246 263
3 246 264 263
3 246 247 264
3 247 265 264
3 247 248 265
3 248 266 265
3 248 249 266
3 249 267 266
3 249 250 267
3 250 268 267
3 250 251 268
3 251 269 268
3 251 252 269
3 252 270 269
3 252 253 270
3 253 271 270
3 253 254 271
3 254 272 271
3 254 255 272
3 255 273 272
3 255 13 273
3 13 14 273
3 47 256 46
3 256 274 46
3 256 257 274
3 257 275 274
3 257 258 275
3 258 276 275
3 258 259 276
3 259 277 276
3 259 260 277
3 260 278 277
3 260 261 278
3 261 279 278
3 261 262 279
3 262 280 279
3 262 263 280
3 263 281 280
3 263 264 281
3 264 282 281
3 264 265 282
3 265 283 282
3 265 266 283
3 266 284 283
3 266 267 284
3 267 285 284
3 267 268 285
3 268 286 285
3 268 269 286
3 269 287 286
3 269 270 287
3 270 288 287
3 270 271 288
3 271 289 288
3 271 272 289
3 272 290 289
3 272 273 290
3 273 291 290
3 273 14 291
3 14 15 291
3 46 274 45
3 274 292 45
3 274 275 292
3 275 293 292
3 275 276 293
3 276 294 293
3 276 277 294
3 277 295 294
3 277 278 295
3 278 296 295
3 278 279 296
3 279 297 296
3 279 280 297
3 280 298 297
3 280 281 298
3 281 299 298
3 281 282 299
3 282 300 299
3 282 283 300
3 283 301 300
3 283 284 301
3 284 302 301
3 284 285 302
3 285 303 302
3 285 286 303
3 286 304 303
3 286 287 304
3 287 305 304
3 287 288 305
3 288 306 305
3 288 289 306
3 289 307 306
3 289 290 307
3 290 308 307
3 290 291 308
3 291 309 308
3 291 15 309
3 15 16 309
3 45 292 44
3 292 310 44
3 292 293 310
3 293 311 310
3 293 294 311
3 294 312 311
3 294 295 312
3 295 313 312
3 295 296 313
3 296 314 313
3 296 297 314
3 297 315 314
3 297 298 315
3 298 316 315
3 298 299 316
3 299 317 316
3 299 300 317
3 300 318 317
3 300 301 318
3 301 319 318
3 301 302 319
3 302 320 319
3 302 303 320
3 303 321 320
3 303 304 321
3 304 322 321
3 304 305 322
3 305 323 322
3 305 306 323
3 306 324 323
3 306 307 324
3 307 325 324
3 307 308 325
3 308 326 325
3 308 309 326
3 309 327 326
3 309 16 327
3 16 17 327
3 44 310 43
3 310 328 43
3 310 311 328
3 311 329 328
3 311 312 329
3 312 330 329
3 312 313 330
3 313 331 330
3 313 314 331
3 314 332 331
3 314 315 332
3 315 333 332
3 315 316 333
3 316 334 333
3 316 317 334
3 317 335 334
3 317 318 335
3 318 336 335
3 318 319 336
3 319 337 336
3 319 320 337
3 320 338 337
3 320 321 338
3 321 339 338
3 321 322 339
3 322 340 339
3 322 323 340
3 323 341 340
3 323 324 341
3 324 342 341
3 324 325 342
3 325 343 342
3 325 326 343
3 326 344 343
3 326 327 344
3 327 345 344
3 327 17 345
3 17 18 345
3 43 328 42
3 328 346 42
3 328 329 346
3 329 347 346
3 329 330 347
3 330 348 347
3 330 331 348
3 331 349 348
3 331 332 349
3 332 350 349
3 332 333 350
3 333 351 350
3 333 334 351
3 334 352 351
3 334 335 352
3 335 353 352
3 335 336 353
3 336 354 353
3 336 337 354
3 337 355 354
3 337 338 355
3 338 356 355
3 338 339 356
3 339 357 356
3 339 340 357
3 340 358 357
3 340 341 358
3 341 359 358
3 341 342 359
3 342 360 359
3 342 343 360
3 343 361 360
3 343 344 361
3 344 362 361
3 344 345 362
3 345 363 362
3 345 18 363
3 18 19 363
3 42 346 41
3 346 364 41
3 346 347 364
3 347 365 364
3 347 348 365
3 348 366 365
3 348 349 366
3 349 367 366
3 349 350 367
3 350 368 367
3 350 351 368
3 351 369 368
3 351 352 369
3 352 370 369
3 352 353 370
3 353 371 370
3 353 354 371
3 354 372 371
3 354 355 372
3 355 373 372
3 355 356 373
3 356 374 373
3 356 357 374
3 357 375 374
3 357 358 375
3 358 376 375
3 358 359 376
3 359 377 376
3 359 360 377
3 360 378 377
3 360 361 378
3 361 379 378
3 361 362 379
3 362 380 379
3 362 363 380
3 363 381 380
3 363 19 381
3 19 20 381
3 41 364 40
3 364 382 40
3 364 365 382
3 365 383 382
3 365 366 383
3 366 384 383
3 366 367 384
3 367 385 384
3 367 368 385
3 368 386 385
3 368 369 386
3 369 387 386
3 369 370 387
3 370 388 387
3 370 371 388
3 371 389 388
3 371 372 389
3 372 390 389
3 372 373 390
3 373 391 390
3 373 374 391
3 374 392 391
3 374 375 392
3 375 393 392
3 375 376 393
3 376 394 393
3 376 377 394
3 377 395 394
3 377 378 395
3 378 396 395
3 378 379 396
3 379 397 396
3 379 380 397
3 380 398 397
3 380 381 398
3 381 399 398
3 381 20 399
3 20 21 399
3 40 382 2
3 382 39 2
3 382 383 39
3 383 38 39
3 383 384 38
3 384 37 38
3 384 385 37
3 385 36 37
3 385 386 36
3 386 35 36
3 386 387 35
3 387 34 35
3 387 388 34
3 388 33 34
3 388 389 33
3 389 32 33
3 389 390 32
3 390 31 32
3 390 391 31
3 391 30 31
3 391 392 30
3 392 29 30
3 392 393 29
3 393 28 29
3 393 394 28
3 394 27 28
3 394 395 27
3 395 26 27
3 395 396 26
3 396 25 26
3 396 397 25
3 397 24 25
3 397 398 24
3 398 23 24
3 398 399 23
3 399 22 23
3 399 21 22
3 21 1 22

CELL_TYPES 722
5
5
5
5
5
5
5
5
5
5
5
5
5
5
5
5
5
5
5
5
5
5
5
5
5
5
5
5
5
5
5
5
5
5
5
5
5
5
5
5
5
5
5
5
5
5
5
5
5
5
5
5
5
5
5
5
5
5
5
5
5
5
5
5
5
5
5
5
5
5
5
5
5
5
5
5
5
5
5
5
5
5
5
5
5
5
5
5
5
5
5
5
5
5
5
5
5
5
5
5
5
5
5
5
5
5
5
5
5
5
5
5
5
5
5
5
5
5
5
5
5
5
5
5
5
5
5
5
5
5
5
5
5
5
5
5
5
5
5
5
5
5
5
5
5
5
5
5
5
5
5
5
5
5
5
5
5
5
5
5
5
5
5
5
5
5
5
5
5
5
5
5
5
5
5
5
5
5
5
5
5
5
5
5
5
5
5
5
5
5
5
5
5
5
5
5
5
5
5
5
5
5
5
5
5
5
5
5
5
5
5
5
5
5
5
5
5
5
5
5
5
5
5
5
5
5
5
5
5
5
5
5
5
5
5
5
5
5
5
5
5
5
5
5
5
5
5
5
5
5
5
5
5
5
5
5
5
5
5
5
5
5
5
5
5
5
5
5
5
5
5
5
5
5
5
5
5
5
5
5
5
5
5
5
5
5
5
5
5
5
5
5
5
5
5
5
5
5
5
5
5
5
5
5
5
5
5
5
5
5
5
5
5
5
5
5
5
5
5
5
5
5
5
5
5
5
5
5
5
5
5
5
5
5
5
5
5
5
5
5
5
5
5
5
5
5
5
5
5
5
5
5
5
5
5
5
5
5
5
5
5
5
5
5
5
5
5
5
5
5
5
5
5
5
5
5
5
5
5
5
5
5
5
5
5
5
5
5
5
5
5
5
5
5
5
5
5
5
5
5
5
5
5
5
5
5
5
5
5
5
5
5
5
5
5
5
5
5
5
5
5
5
5
5
5
5
5
5
5
5
5
5
5
5
5
5
5
5
5
5
5
5
5
5
5
5
5
5
5
5
5
5
5
5
5
5
5
5
5
5
5
5
5
5
5
5
5
5
5
5
5
5
5
5
5
5
5
5
5
5
5
5
5
5
5
5
5
5
5
5
5
5
5
5
5
5
5
5
5
5
5
5
5
5
5
5
5
5
5
5
5
5
5
5
5
5
5
5
5
5
5
5
5
5
5
5
5
5
5
5
5
5
5
5
5
5
5
5
5
5
5
5
5
5
5
5
5
5
5
5
5
5
5
5
5
5
5
5
5
5
5
5
5
5
5
5
5
5
5
5
5
5
5
5
5
5
5
5
5
5
5
5
5
5
5
5
5
5
5
5
5
5
5
5
5
5
5
5
5
5
5
5
5
5
5
5
5
5
5
5
5
5
5
5
5
5
5
5
5
5
5
5
5
5
5
5
5
5
5
5
5
5
5
5
5
5
5
5
5
5
5
5
5
5
5
5
5
5
5
5
5
5
5
5
5
5
5
5
5
5
5
5
5
5
5
5
5
5
5
5
5
5
5
5
5
5
5
5
5
5
5
5
5
5
5
5
5
5
5
5
5
5
5
5
5
5
5
5
5
5
5
5
5
5
5
5
5
5
5
5
5
5
5
5
5
5
5
5
5
5
5
5

CELL_DATA 722
SCALARS Temperatura double 1
LOOKUP_TABLE default
0.499775
0.498873
0.193444
0.255616
0.102564
0.159836
0.0664613
0.112437
0.0480197
0.0845641
0.0367727
0.0661352
0.0290978
0.0529581
0.0234727
0.0430193
0.0191495
0.0352348
0.0157142
0.0289665
0.012916
0.0238098
0.0105917
0.0194919
0.0086281
0.0158183
0.00694274
0.0126439
0.00547247
0.00985481
0.00416673
0.0073584
0.00298304
0.00507479
0.00188239
0.00292729
0.000817997
0.000811787
0.804189
0.738071
0.494815
0.491772
0.329669
0.347172
0.235961
0.258135
0.17799
0.199426
0.139095
0.158186
0.111238
0.12769
0.0902769
0.104228
0.0739134
0.0856215
0.0607805
0.0705167
0.050011
0.058021
0.0410215
0.0475157
0.0333989
0.0385511
0.026836
0.0307853
0.0210947
0.023948
0.0159822
0.017817
0.0113367
0.0122023
0.00701533
0.00693669
0.00289366
0.00182307
0.893039
0.829792
0.651847
0.62623
0.483663
0.478598
0.368603
0.373223
0.288169
0.296648
0.229908
0.239397
0.186156
0.195338
0.152243
0.160552
0.125261
0.132492
0.103336
0.109449
0.0852044
0.090237
0.0699825
0.0739962
0.0570223
0.0600834
0.045831
0.0479973
0.0360193
0.0373345
0.027268
0.0277589
0.019307
0.0189813
0.0118994
0.0107455
0.00483389
0.00276412
0.927109
0.87312
0.737428
0.705104
0.584536
0.567769
0.466469
0.459407
0.376037
0.374448
0.306116
0.307344
0.251172
0.253663
0.207237
0.210118
0.171529
0.174324
0.142081
0.144539
0.117479
0.119472
0.0966752
0.0981429
0.0788724
0.0797847
0.0634436
0.0637831
0.0498812
0.0496318
0.0377621
0.0369012
0.0267228
0.0252174
0.0164417
0.0142451
0.00662578
0.00362308
0.943505
0.89689
0.787228
0.753579
0.650734
0.628072
0.536701
0.522192
0.443349
0.434359
0.367298
0.36183
0.305138
0.30182
0.253977
0.251911
0.211515
0.210129
0.175967
0.174898
0.145945
0.144962
0.12036
0.119312
0.0983436
0.0971249
0.0791861
0.0777156
0.0622975
0.0605059
0.0471747
0.0449952
0.033379
0.0307411
0.0205177
0.0173425
0.00822844
0.00437955
0.952679
0.911147
0.817844
0.784423
0.69461
0.668851
0.586303
0.566968
0.493363
0.478967
0.414571
0.403786
0.348086
0.339863
0.291999
0.285564
0.244573
0.239371
0.204314
0.199952
0.169964
0.166159
0.140471
0.137014
0.114951
0.111682
0.0926564
0.0894455
0.0729452
0.0696786
0.0552583
0.0518308
0.0390997
0.0354081
0.0240199
0.0199575
0.00960113
0.00501434
0.958228
0.920022
0.837211
0.804212
0.72366
0.69602
0.620593
0.597902
0.52925
0.510774
0.449541
0.434487
0.38063
0.368278
0.321351
0.311103
0.270456
0.261834
0.226746
0.219374
0.189121
0.182702
0.156603
0.150898
0.128329
0.123142
0.10354
0.0987024
0.0815661
0.0769297
0.0618117
0.0572398
0.0437401
0.0391016
0.0268595
0.0220243
0.0107092
0.00551156
0.961635
0.925439
0.849312
0.816434
0.742293
0.713169
0.643206
0.617886
0.55353
0.531764
0.473726
0.45512
0.403547
0.387663
0.342318
0.328735
0.289152
0.277487
0.243087
0.233003
0.203166
0.194373
0.168487
0.160732
0.138218
0.131281
0.111605
0.10529
0.0879651
0.0820961
0.0666806
0.0610953
0.047188
0.041733
0.0289667
0.0234925
0.0115254
0.00585909
0.96359
0.928351
0.856214
0.822945
0.753039
0.722378
0.656447
0.628739
0.567965
0.543299
0.488303
0.46658
0.417521
0.398528
0.355225
0.33869
0.300748
0.286375
0.253281
0.240777
0.211967
0.201051
0.175958
0.166372
0.144449
0.135957
0.116695
0.109078
0.0920065
0.0850674
0.0697558
0.063311
0.0493636
0.0432413
0.0302916
0.0243276
0.0120302
0.00604872
0.964422
0.929203
0.858948
0.824637
0.757235
0.724689
0.661608
0.631425
0.573605
0.546135
0.494019
0.46939
0.423019
0.401189
0.36032
0.341126
0.305337
0.28855
0.257323
0.242677
0.21546
0.202682
0.178925
0.167748
0.146925
0.137094
0.118715
0.109996
0.0936084
0.0857825
0.0709708
0.0638384
0.0502177
0.0435924
0.0308037
0.0245102
0.012212
0.00607602
0.964259
0.928118
0.857892
0.821723
0.755374
0.720347
0.659177
0.626168
0.570854
0.540451
0.491166
0.463674
0.420231
0.395721
0.357705
0.336082
0.30296
0.284022
0.255213
0.238699
0.213625
0.199252
0.177356
0.164839
0.145607
0.134674
0.117631
0.108025
0.0927389
0.084227
0.0702998
0.0626662
0.0497313
0.0427784
0.0304913
0.0240363
0.0120665
0.00594036
0.963076
0.924935
0.852898
0.813803
0.747225
0.708848
0.648905
0.612482
0.559495
0.525852
0.479582
0.449152
0.409045
0.38195
0.347317
0.323465
0.293587
0.272756
0.246946
0.228846
0.206467
0.190783
0.171265
0.157682
0.140514
0.128733
0.113459
0.103203
0.0894146
0.0804317
0.0677567
0.0598193
0.047915
0.0408175
0.0293614
0.0229166
0.011597
0.00564489
0.960688
0.919149
0.843235
0.799728
0.731768
0.688817
0.629767
0.589105
0.538673
0.501355
0.458642
0.425148
0.389061
0.359468
0.328934
0.303072
0.277127
0.254692
0.232513
0.213141
0.19403
0.177349
0.16072
0.146369
0.131722
0.11937
0.106275
0.09562
0.0837014
0.0744753
0.0633954
0.0553603
0.0448093
0.0377542
0.0274399
0.0211773
0.0108144
0.00519656
0.95667
0.909688
0.827326
0.77719
0.70692
0.657678
0.599785
0.553829
0.506826
0.465343
0.427271
0.390627
0.35963
0.327705
0.302229
0.274657
0.253472
0.229792
0.211942
0.191672
0.176418
0.159098
0.145857
0.131072
0.119375
0.106753
0.0962143
0.0854288
0.0757181
0.066487
0.0573125
0.0493906
0.0404855
0.0336606
0.024772
0.0188598
0.0097375
0.00460623
0.950127
0.894315
0.802077
0.741781
0.668942
0.611045
0.555723
0.503266
0.461613
0.415584
0.383996
0.34431
0.319955
0.286054
0.26687
0.238049
0.222581
0.198135
0.185359
0.164646
0.153833
0.136293
0.12691
0.112061
0.103704
0.0911362
0.0834849
0.0728522
0.0656415
0.0566507
0.0496489
0.0420527
0.035047
0.0286366
0.0214226
0.0160216
0.00839266
0.00388865
0.939038
0.867847
0.761279
0.684913
0.611334
0.541747
0.492672
0.432664
0.399928
0.349401
0.327129
0.28494
0.269298
0.234121
0.222694
0.193325
0.184604
0.160034
0.153065
0.132473
0.126637
0.109358
0.10424
0.0897368
0.0850395
0.0728743
0.0683764
0.0581898
0.0537113
0.0452086
0.0405925
0.0335311
0.0286298
0.0228103
0.0174766
0.0127357
0.00681421
0.00306241
0.918004
0.815942
0.691649
0.589476
0.523039
0.438672
0.403772
0.33618
0.318241
0.264298
0.255225
0.211841
0.20736
0.172108
0.169967
0.14106
0.140052
0.11618
0.115644
0.0958372
0.0953994
0.0789217
0.078364
0.0646469
0.0638332
0.0524297
0.051266
0.0418209
0.0402325
0.0324607
0.0303782
0.0240512
0.0214018
0.0163367
0.0130379
0.00908991
0.00504392
0.00214968
0.869112
0.689215
0.562649
0.423399
0.386423
0.286269
0.280829
0.208494
0.213753
0.159486
0.168004
0.12588
0.134861
0.101342
0.109714
0.0825884
0.0899646
0.0677695
0.0740429
0.0557617
0.0609421
0.0458366
0.0499772
0.0374944
0.0406585
0.0303737
0.0326191
0.024201
0.0255721
0.0187606
0.0192847
0.0138754
0.0135604
0.00939458
0.0082277
0.00518472
0.00313019
0.00117567
0.718979
0.279391
0.304964
0.127183
0.174149
0.0762487
0.118169
0.0531719
0.087602
0.040021
0.0680666
0.0313732
0.0543234
0.0251721
0.0440476
0.0204733
0.0360419
0.0167766
0.0296185
0.013788
0.0243482
0.0113206
0.0199447
0.0092474
0.0162055
0.00747729
0.0129805
0.00594168
0.0101531
0.00458653
0.00762879
0.00336754
0.00532821
0.00224697
0.00318208
0.00119143
0.00112719
0.000225438
