# vtk DataFile Version 3.0
Malha 2D com triângulos e temperatura
ASCII
DATASET UNSTRUCTURED_GRID

POINTS 1777 double
0 0 0
2.2 0 0
2.2 0.41 0
0 0.41 0
0.25 0.2 0
0.0297297 0 0
0.0594595 0 0
0.0891892 0 0
0.118919 0 0
0.148649 0 0
0.178378 0 0
0.208108 0 0
0.237838 0 0
0.267568 0 0
0.297297 0 0
0.327027 0 0
0.356757 0 0
0.386486 0 0
0.416216 0 0
0.445946 0 0
0.475676 0 0
0.505405 0 0
0.535135 0 0
0.564865 0 0
0.594595 0 0
0.624324 0 0
0.654054 0 0
0.683784 0 0
0.713514 0 0
0.743243 0 0
0.772973 0 0
0.802703 0 0
0.832432 0 0
0.862162 0 0
0.891892 0 0
0.921622 0 0
0.951351 0 0
0.981081 0 0
1.01081 0 0
1.04054 0 0
1.07027 0 0
1.1 0 0
1.12973 0 0
1.15946 0 0
1.18919 0 0
1.21892 0 0
1.24865 0 0
1.27838 0 0
1.30811 0 0
1.33784 0 0
1.36757 0 0
1.3973 0 0
1.42703 0 0
1.45676 0 0
1.48649 0 0
1.51622 0 0
1.54595 0 0
1.57568 0 0
1.60541 0 0
1.63514 0 0
1.66486 0 0
1.69459 0 0
1.72432 0 0
1.75405 0 0
1.78378 0 0
1.81351 0 0
1.84324 0 0
1.87297 0 0
1.9027 0 0
1.93243 0 0
1.96216 0 0
1.99189 0 0
2.02162 0 0
2.05135 0 0
2.08108 0 0
2.11081 0 0
2.14054 0 0
2.17027 0 0
2.2 0.0292857 0
2.2 0.0585714 0
2.2 0.0878571 0
2.2 0.117143 0
2.2 0.146429 0
2.2 0.175714 0
2.2 0.205 0
2.2 0.234286 0
2.2 0.263571 0
2.2 0.292857 0
2.2 0.322143 0
2.2 0.351429 0
2.2 0.380714 0
2.17027 0.41 0
2.14054 0.41 0
2.11081 0.41 0
2.08108 0.41 0
2.05135 0.41 0
2.02162 0.41 0
1.99189 0.41 0
1.96216 0.41 0
1.93243 0.41 0
1.9027 0.41 0
1.87297 0.41 0
1.84324 0.41 0
1.81351 0.41 0
1.78378 0.41 0
1.75405 0.41 0
1.72432 0.41 0
1.69459 0.41 0
1.66486 0.41 0
1.63514 0.41 0
1.60541 0.41 0
1.57568 0.41 0
1.54595 0.41 0
1.51622 0.41 0
1.48649 0.41 0
1.45676 0.41 0
1.42703 0.41 0
1.3973 0.41 0
1.36757 0.41 0
1.33784 0.41 0
1.30811 0.41 0
1.27838 0.41 0
1.24865 0.41 0
1.21892 0.41 0
1.18919 0.41 0
1.15946 0.41 0
1.12973 0.41 0
1.1 0.41 0
1.07027 0.41 0
1.04054 0.41 0
1.01081 0.41 0
0.981081 0.41 0
0.951351 0.41 0
0.921622 0.41 0
0.891892 0.41 0
0.862162 0.41 0
0.832432 0.41 0
0.802703 0.41 0
0.772973 0.41 0
0.743243 0.41 0
0.713514 0.41 0
0.683784 0.41 0
0.654054 0.41 0
0.624324 0.41 0
0.594595 0.41 0
0.564865 0.41 0
0.535135 0.41 0
0.505405 0.41 0
0.475676 0.41 0
0.445946 0.41 0
0.416216 0.41 0
0.386486 0.41 0
0.356757 0.41 0
0.327027 0.41 0
0.297297 0.41 0
0.267568 0.41 0
0.237838 0.41 0
0.208108 0.41 0
0.178378 0.41 0
0.148649 0.41 0
0.118919 0.41 0
0.0891892 0.41 0
0.0594595 0.41 0
0.0297297 0.41 0
0 0.380714 0
0 0.351429 0
0 0.322143 0
0 0.292857 0
0 0.263571 0
0 0.234286 0
0 0.205 0
0 0.175714 0
0 0.146429 0
0 0.117143 0
0 0.0878571 0
0 0.0585714 0
0 0.0292857 0
0.249554 0.206664 0
0.248223 0.21321 0
0.246032 0.219519 0
0.24302 0.225481 0
0.23924 0.230987 0
0.23476 0.235941 0
0.229659 0.240254 0
0.224029 0.243847 0
0.21797 0.246659 0
0.211591 0.248638 0
0.205005 0.249749 0
0.198329 0.249972 0
0.191684 0.249304 0
0.185186 0.247755 0
0.178953 0.245355 0
0.173096 0.242145 0
0.167719 0.238183 0
0.162917 0.233539 0
0.158778 0.228297 0
0.155374 0.222551 0
0.152767 0.216401 0
0.151002 0.209959 0
0.150112 0.20334 0
0.150112 0.19666 0
0.151002 0.190041 0
0.152767 0.183599 0
0.155374 0.177449 0
0.158778 0.171703 0
0.162917 0.166461 0
0.167719 0.161817 0
0.173096 0.157855 0
0.178953 0.154645 0
0.185186 0.152245 0
0.191684 0.150696 0
0.198329 0.150028 0
0.205005 0.150251 0
0.211591 0.151362 0
0.21797 0.153341 0
0.224029 0.156153 0
0.229659 0.159746 0
0.23476 0.164059 0
0.23924 0.169013 0
0.24302 0.174519 0
0.246032 0.180481 0
0.248223 0.18679 0
0.249554 0.193336 0
0.255574 0.203679 0
0.252738 0.181785 0
0.460003 0.383807 0
0.249896 0.225202 0
0.431099 0.0237466 0
0.241058 0.162896 0
0.54971 0.0257464 0
1.02609 0.385158 0
1.17433 0.0257466 0
0.817568 0.384253 0
1.38243 0.0257466 0
1.58969 0.0252557 0
1.88787 0.0244307 0
1.73874 0.0220086 0
0.668263 0.387736 0
0.161368 0.239955 0
1.97653 0.383822 0
1.47082 0.384717 0
0.937484 0.0250546 0
1.26351 0.384253 0
0.236421 0.242977 0
0.160587 0.159637 0
0.755883 0.028886 0
1.65 0.384253 0
1.79971 0.384538 0
1.05403 0.0250188 0
1.14325 0.381322 0
2.00698 0.0273545 0
0.369165 0.385669 0
0.180133 0.252235 0
2.17498 0.221643 0
0.216749 0.253288 0
0.223287 0.149332 0
0.148745 0.221734 0
0.148958 0.178355 0
0.555071 0.387669 0
0.179991 0.148047 0
0.6387 0.0238257 0
1.29324 0.0257471 0
0.906787 0.384923 0
1.50135 0.0255777 0
1.88838 0.381156 0
1.56087 0.386387 0
0.851305 0.0275789 0
1.35113 0.380293 0
0.144177 0.200061 0
0.201075 0.142533 0
0.342085 0.0243487 0
0.0253622 0.3075 0
2.17355 0.13339 0
2.06624 0.384266 0
0.194586 0.255738 0
0.0233141 0.105502 0
0.28174 0.383244 0
0.134676 0.385875 0
0.13504 0.0223147 0
0.251335 0.0249595 0
0.191213 0.385618 0
0.0265235 0.161223 0
0.0251716 0.21809 0
0.195684 0.0243706 0
2.17106 0.309047 0
2.09595 0.0257467 0
0.60946 0.383326 0
0.490104 0.0252661 0
0.699312 0.0273901 0
1.94673 0.0240633 0
0.758108 0.384253 0
1.65297 0.0265695 0
1.82554 0.0269732 0
1.23378 0.0257467 0
1.20405 0.384253 0
0.962639 0.384388 0
0.995951 0.0257473 0
1.44189 0.0257476 0
1.70976 0.384108 0
1.11561 0.0253103 0
1.41216 0.38459 0
1.0846 0.384562 0
0.076584 0.0279689 0
0.0707485 0.380628 0
2.17692 0.0744956 0
2.12539 0.384424 0
0.0301829 0.0451136 0
0.0253892 0.362975 0
2.17313 0.363183 0
2.15525 0.0246548 0
0.255643 0.196183 0
0.262186 0.199703 0
0.262052 0.207791 0
0.269348 0.203666 0
0.268881 0.212825 0
0.277435 0.207882 0
0.27697 0.218189 0
0.286594 0.21258 0
0.285984 0.201745 0
0.29634 0.206658 0
0.286644 0.22335 0
0.295261 0.194431 0
0.306698 0.200133 0
0.305673 0.187361 0
0.317722 0.192557 0
0.318438 0.206672 0
0.330636 0.198464 0
0.331187 0.213853 0
0.344677 0.205704 0
0.343629 0.18899 0
0.359077 0.196587 0
0.359796 0.213987 0
0.375105 0.204871 0
0.376285 0.223498 0
0.392969 0.213244 0
0.357727 0.178857 0
0.393375 0.233788 0
0.410895 0.222322 0
0.410322 0.201585 0
0.429527 0.211038 0
0.428709 0.189227 0
0.449101 0.199711 0
0.444844 0.223277 0
0.468852 0.216271 0
0.375794 0.244285 0
0.468956 0.187297 0
0.490723 0.199346 0
0.492637 0.223613 0
0.513842 0.209717 0
0.394274 0.25413 0
0.512654 0.185603 0
0.535758 0.195857 0
0.536577 0.221909 0
0.559239 0.208494 0
0.558341 0.181441 0
0.582348 0.194035 0
0.583054 0.221638 0
0.606664 0.207046 0
0.607286 0.234757 0
0.631231 0.220248 0
0.63034 0.192331 0
0.655194 0.205679 0
0.656079 0.233608 0
0.680258 0.218898 0
0.67935 0.191118 0
0.704527 0.20434 0
0.706018 0.232162 0
0.730115 0.217489 0
0.729707 0.1897 0
0.754858 0.202972 0
0.756381 0.230686 0
0.780039 0.216375 0
0.780295 0.18836 0
0.804833 0.201181 0
0.806762 0.229255 0
0.830523 0.215054 0
0.830532 0.186604 0
0.855857 0.200239 0
0.857218 0.228223 0
0.881754 0.213202 0
0.881871 0.185515 0
0.906327 0.198306 0
0.908566 0.226299 0
0.932225 0.212305 0
0.931802 0.183957 0
0.957224 0.197415 0
0.958155 0.226357 0
0.983292 0.211004 0
0.982426 0.182553 0
1.00828 0.196026 0
1.00922 0.225127 0
1.03445 0.209647 0
0.37523 0.265887 0
1.03369 0.179965 0
1.05972 0.194061 0
1.0605 0.223674 0
1.08576 0.208158 0
1.08496 0.178532 0
1.11102 0.192636 0
1.11183 0.222277 0
1.1371 0.206757 0
1.1379 0.23641 0
1.16319 0.220885 0
1.16238 0.191237 0
1.18848 0.205361 0
1.18929 0.235022 0
1.21458 0.219488 0
1.21377 0.189838 0
1.23988 0.203963 0
1.2407 0.23363 0
1.266 0.218091 0
1.26519 0.188439 0
1.2913 0.202565 0
1.29212 0.232228 0
1.31743 0.216692 0
1.31662 0.18704 0
1.34274 0.201166 0
1.34354 0.230848 0
1.36887 0.215296 0
1.36806 0.185642 0
1.39418 0.199767 0
1.39499 0.229451 0
1.42032 0.213896 0
1.4195 0.184244 0
1.44563 0.198367 0
1.44645 0.228052 0
1.47178 0.212496 0
1.47096 0.182846 0
1.49709 0.196967 0
1.49791 0.226652 0
1.52324 0.211095 0
1.52242 0.181448 0
1.54855 0.195567 0
1.54937 0.225252 0
1.5747 0.209694 0
1.57393 0.180049 0
1.60005 0.194166 0
1.60084 0.223851 0
1.62618 0.208292 0
1.62538 0.178598 0
1.65151 0.192732 0
1.65231 0.222441 0
1.67764 0.206883 0
1.67683 0.177167 0
1.70297 0.191323 0
1.70378 0.22104 0
1.72911 0.20548 0
1.72992 0.235198 0
1.75525 0.219638 0
1.75444 0.18992 0
1.78059 0.204077 0
1.7814 0.233797 0
1.80673 0.218235 0
1.80592 0.188517 0
1.83206 0.202678 0
1.83289 0.232333 0
1.85821 0.216789 0
1.85738 0.187113 0
1.8835 0.20127 0
1.88433 0.230926 0
1.9096 0.215401 0
1.9088 0.18577 0
1.93487 0.199882 0
1.93568 0.229497 0
1.96093 0.21398 0
1.96011 0.184392 0
1.98616 0.198494 0
1.98697 0.22807 0
2.01218 0.212579 0
2.01137 0.183012 0
0.395013 0.275933 0
2.013 0.242157 0
0.293845 0.18174 0
0.304239 0.174244 0
0.292601 0.168738 0
0.303349 0.160644 0
0.29105 0.154895 0
0.302598 0.146389 0
0.288598 0.139868 0
0.301632 0.130968 0
0.286439 0.124081 0
2.0374 0.197128 0
2.03657 0.167534 0
0.300561 0.114437 0
0.316259 0.122043 0
0.581278 0.166607 0
1.70216 0.161607 0
1.70459 0.250757 0
1.73073 0.264915 0
1.11022 0.163 0
1.11261 0.251931 0
1.08413 0.148889 0
1.98778 0.257658 0
2.01055 0.153446 0
0.375474 0.287373 0
0.356398 0.277065 0
0.356543 0.298136 0
0.339223 0.288016 0
1.67605 0.147449 0
0.394981 0.298839 0
0.415381 0.286457 0
0.583416 0.249125 0
0.608001 0.262739 0
1.1387 0.266074 0
0.285067 0.107592 0
0.270988 0.117331 0
0.557946 0.153957 0
0.580325 0.138903 0
2.03578 0.137944 0
2.01382 0.271739 0
2.03904 0.256255 0
2.06263 0.181698 0
0.338437 0.308507 0
0.32291 0.298454 0
0.583747 0.277276 0
0.269202 0.101005 0
0.254162 0.112884 0
0.281967 0.0889204 0
0.315333 0.103792 0
0.332625 0.112396 0
0.276373 0.229163 0
0.286268 0.235014 0
0.275717 0.240886 0
0.286307 0.247064 0
0.275031 0.253226 0
1.1094 0.133348 0
0.253611 0.0947299 0
0.240543 0.104513 0
0.555943 0.126096 0
1.70136 0.13189 0
1.7054 0.280474 0
0.238631 0.0880636 0
0.225277 0.0972438 0
1.73154 0.294632 0
0.579193 0.109947 0
0.60402 0.12373 0
1.1134 0.2816 0
2.00973 0.123853 0
2.03986 0.285814 0
2.06505 0.270339 0
0.29636 0.241539 0
0.60865 0.291034 0
2.03539 0.107586 0
2.06108 0.122321 0
1.98859 0.287261 0
0.277301 0.149107 0
0.415326 0.311008 0
0.436394 0.298077 0
1.0833 0.119227 0
0.286306 0.259812 0
0.274781 0.265855 0
0.320873 0.318815 0
0.30283 0.307655 0
0.314553 0.153878 0
1.67525 0.117732 0
1.1395 0.29575 0
0.263717 0.259156 0
0.263377 0.271775 0
[...]
CELL_DATA 3331
VECTORS velocity double
0.054927 -0.00670994 0.0
0.128729 -0.0343748 0.0
0.238855 -0.012231 0.0
0.0634303 -0.000473945 0.0
0.130442 -0.000697895 0.0
0.158361 -0.014306 0.0
0.190951 0.000157765 0.0
0.265502 0.0695005 0.0
0.132992 -0.0328723 0.0
0.145711 -0.0175075 0.0
0.237917 0.000446501 0.0
0.168009 0.0410032 0.0
0.0831203 0.0276386 0.0
-0.00790196 0.0124373 0.0
0.234046 -0.000473152 0.0
0.272247 0.183569 0.0
0.175407 -0.0209467 0.0
0.157412 -0.157139 0.0
0.122003 0.00604833 0.0
0.237677 -0.0128621 0.0
0.19042 0.000535736 0.0
0.15667 -0.00705221 0.0
0.259065 0.0755759 0.0
0.220156 0.0102989 0.0
0.196439 -0.0102416 0.0
0.220543 5.55664e-05 0.0
0.143274 -0.0218952 0.0
0.139458 0.0187747 0.0
0.132104 -0.0182204 0.0
0.123289 -0.000822828 0.0
0.235801 -0.0168034 0.0
0.144454 -1.90492e-06 0.0
0.163767 -0.00919801 0.0
0.16764 0.000982454 0.0
0.202187 -0.0900116 0.0
0.177107 -0.0178722 0.0
0.0172617 0.00799896 0.0
0.216686 -0.0252608 0.0
0.141841 -0.00113936 0.0
0.180433 0.00193062 0.0
0.135496 0.0161206 0.0
0.20885 0.00302163 0.0
0.15958 0.0248096 0.0
0.140462 -0.000285893 0.0
0.167122 0.0257893 0.0
0.0351657 -0.016059 0.0
0.158576 0.038945 0.0
0.204374 -0.032562 0.0
0.184712 0.0038384 0.0
0.143312 -0.029121 0.0
0.220472 0.0457132 0.0
0.0435312 -0.000238254 0.0
0.134677 1.04402e-05 0.0
0.370707 -0.0392744 0.0
0.179514 -0.0248589 0.0
0.293039 0.0217636 0.0
0.233032 0.172259 0.0
-0.00271411 0.0102254 0.0
0.280899 0.0289604 0.0
0.159242 0.080439 0.0
0.208466 -0.104683 0.0
0.155167 0.00107767 0.0
0.245302 -0.162056 0.0
0.24535 0.015231 0.0
0.280506 -0.0288028 0.0
0.232098 -0.0300598 0.0
-0.0080749 0.0136442 0.0
0.23544 0.184472 0.0
0.133621 -0.000121909 0.0
0.17484 0.0683478 0.0
0.179185 0.00121011 0.0
0.13346 0.0053188 0.0
0.207059 -0.0172447 0.0
0.189999 0.00290109 0.0
0.0610547 0.00419946 0.0
0.201509 -0.0240374 0.0
0.266847 0.189739 0.0
0.267079 0.0268716 0.0
0.256701 -0.0422212 0.0
0.0508945 0.0191409 0.0
0.176029 -0.0016391 0.0
0.221179 0.0405739 0.0
0.194074 0.00184597 0.0
0.0646452 5.91352e-05 0.0
0.218745 0.0458438 0.0
0.192629 -0.0090107 0.0
0.0319757 0.0150246 0.0
0.152029 0.101514 0.0
0.331883 -0.135602 0.0
0.229818 -0.0105304 0.0
0.194097 0.017327 0.0
0.155512 0.000429744 0.0
0.0757745 -0.0408669 0.0
0.0243196 -0.00804193 0.0
0.106937 -0.0110757 0.0
0.272467 -0.0182455 0.0
0.321016 0.0272794 0.0
0.0428458 0.000136763 0.0
0.335139 0.0309731 0.0
0.276823 0.0314356 0.0
0.237622 -0.0247885 0.0
0.209205 -0.0244748 0.0
0.260225 -0.0346241 0.0
0.131863 0.00258434 0.0
0.139012 -0.000892279 0.0
0.0452176 0.000754104 0.0
0.117988 -0.00131767 0.0
0.27893 0.0219251 0.0
0.274783 0.0170754 0.0
0.258801 -0.180412 0.0
0.184347 -0.0245927 0.0
0.23027 -0.00173194 0.0
0.0582592 -0.0406163 0.0
0.204797 -0.000708832 0.0
0.189027 -0.00824105 0.0
0.0379229 0.0126031 0.0
0.117238 -0.000175739 0.0
0.129371 -0.131669 0.0
0.225237 -0.0194164 0.0
0.173203 0.00230319 0.0
0.224723 -0.0258533 0.0
0.318361 0.0292527 0.0
0.277407 0.08279 0.0
0.184883 -0.0122616 0.0
0.171056 -0.000769343 0.0
0.287764 0.182462 0.0
0.142709 0.000482024 0.0
0.245696 -0.0434094 0.0
0.159129 0.0138188 0.0
0.211308 0.0338122 0.0
0.156963 -0.000847222 0.0
0.202554 -0.0215481 0.0
0.365877 0.00243214 0.0
0.144388 0.000358085 0.0
0.198067 0.0236032 0.0
0.218988 -0.00964444 0.0
0.0873978 -0.0195857 0.0
0.127376 -0.000324168 0.0
0.207079 -0.0396076 0.0
0.134718 -0.00210669 0.0
0.212275 -0.0190854 0.0
0.00523686 -0.000716121 0.0
0.25805 0.0132849 0.0
0.176148 0.000550978 0.0
0.137349 -0.00548794 0.0
0.0933491 0.0314299 0.0
0.153772 0.0170244 0.0
0.299702 -0.0233148 0.0
0.359608 -0.0741331 0.0
0.170464 -8.91948e-05 0.0
0.370746 -0.0513906 0.0
0.2856 -0.000318095 0.0
0.169147 -0.0042334 0.0
0.131274 0.0314305 0.0
0.240674 0.0206937 0.0
0.314933 -0.0822467 0.0
0.230376 -0.00761617 0.0
0.237201 0.0194158 0.0
0.212382 0.0151892 0.0
0.193967 0.00159967 0.0
0.243323 0.0104382 0.0
0.108619 -0.0229973 0.0
0.123806 0.000400129 0.0
0.187387 0.00209119 0.0
0.109674 -0.00253788 0.0
0.170813 -0.00316317 0.0
0.225156 -0.0237342 0.0
0.261828 0.0164468 0.0
0.157598 -0.0166231 0.0
0.0930603 0.001476 0.0
0.311541 0.00460485 0.0
0.104326 0.0313535 0.0
0.0561567 -0.000422258 0.0
0.207245 0.0218737 0.0
0.129137 -0.00190825 0.0
0.161327 0.142538 0.0
0.348515 0.130375 0.0
0.120388 0.000263595 0.0
0.158942 -0.165074 0.0
0.285556 -0.0179258 0.0
0.231891 -0.012245 0.0
0.185361 0.000391923 0.0
0.198959 0.00157299 0.0
0.290799 -0.00660643 0.0
0.284725 -0.177898 0.0
0.13308 -0.002105 0.0
0.215287 0.000326813 0.0
0.125112 0.00208713 0.0
0.184657 0.000899678 0.0
0.332681 0.0337038 0.0
0.224642 0.0128697 0.0
0.107244 -0.00841426 0.0
0.27964 0.0193789 0.0
0.201967 0.0161289 0.0
0.160282 -0.0225316 0.0
0.127692 -0.0029226 0.0
0.167967 0.121652 0.0
0.364098 -0.0628422 0.0
0.305562 0.178601 0.0
0.0883518 0.0267298 0.0
0.274067 -0.0115661 0.0
0.119852 0.000106473 0.0
0.24064 0.0111655 0.0
0.319597 -0.0049736 0.0
0.28732 -0.18011 0.0
0.172665 -0.000420341 0.0
0.0822724 -0.020669 0.0
0.112944 0.00541534 0.0
0.203982 0.0800564 0.0
0.244727 0.0242625 0.0
0.0866057 -0.0468438 0.0
0.00679486 0.0119333 0.0
0.239058 -0.0113872 0.0
0.182415 0.0511693 0.0
-0.012894 0.00657225 0.0
0.276064 0.180296 0.0
0.0945962 0.00445276 0.0
0.182608 0.00073336 0.0
-0.00352842 0.000654459 0.0
0.242935 0.0138852 0.0
0.0691429 0.00273589 0.0
0.11675 -8.21294e-05 0.0
0.358808 0.139875 0.0
0.137116 0.000194123 0.0
0.0536379 0.0177336 0.0
0.179173 0.0410017 0.0
0.255982 0.0730296 0.0
0.0665863 -0.000641955 0.0
0.142152 0.000963216 0.0
0.34773 0.133198 0.0
0.0661864 -3.89199e-05 0.0
0.251905 0.0727198 0.0
0.0682349 0.00336798 0.0
0.152962 0.0228084 0.0
0.0499476 0.0173488 0.0
0.347656 -0.107366 0.0
0.304856 -0.13205 0.0
0.308855 -0.0327403 0.0
0.330843 -0.0451561 0.0
0.263471 0.0244691 0.0
0.291099 -0.0184041 0.0
0.252538 0.00121633 0.0
0.031357 -0.00772889 0.0
0.233714 -0.00185069 0.0
0.188467 0.0110424 0.0
0.360817 -0.00124579 0.0
0.131287 3.81001e-05 0.0
0.225896 0.0138971 0.0
0.00216135 0.00346288 0.0
0.166972 -0.0244564 0.0
-0.00545263 0.0118413 0.0
0.350806 -0.0236404 0.0
0.332136 -0.0339702 0.0
0.171911 -0.00163792 0.0
0.0987099 0.00690236 0.0
0.191221 -0.165484 0.0
0.145062 -0.0258615 0.0
0.174691 0.000535597 0.0
0.00370738 0.001578 0.0
0.182971 -0.0420005 0.0
0.149464 0.000917032 0.0
0.10328 0.00486205 0.0
0.322284 0.152581 0.0
0.294621 0.0249772 0.0
0.127496 0.0453093 0.0
0.0933707 0.0269488 0.0
0.240181 0.00994775 0.0
0.178123 0.00104313 0.0
-0.000398675 0.00130268 0.0
0.156488 -0.039021 0.0
0.233716 0.0335971 0.0
0.287838 -0.154809 0.0
0.264426 0.0134528 0.0
0.297909 -0.163088 0.0
0.321826 0.00583611 0.0
0.0696369 0.000327974 0.0
0.210088 0.0179418 0.0
0.0643038 -0.0152167 0.0
0.0730818 0.00104065 0.0
0.234751 -0.00211888 0.0
0.278063 -0.0147291 0.0
0.237266 0.11374 0.0
0.286483 0.0324587 0.0
0.250744 0.0416877 0.0
0.33657 0.0657634 0.0
0.338456 -0.123007 0.0
0.278407 -0.123745 0.0
0.375284 0.0592179 0.0
0.0463583 -0.012807 0.0
0.341919 0.00572536 0.0
0.147175 0.00115035 0.0
0.178226 -0.00602873 0.0
0.234079 0.101138 0.0
-0.0115338 0.00724485 0.0
0.366715 0.127452 0.0
0.256922 0.000961248 0.0
0.313477 -0.0268942 0.0
0.369979 0.0451586 0.0
0.101805 0.00138978 0.0
0.0124259 0.00325085 0.0
0.000507383 0.0073306 0.0
0.36242 0.109629 0.0
0.149532 0.0405984 0.0
0.221694 0.0201833 0.0
0.0186276 0.00673217 0.0
0.210425 -0.0711401 0.0
0.235328 -0.117514 0.0
0.185228 0.0014204 0.0
0.247206 -0.0208648 0.0
0.088626 0.0264625 0.0
0.317179 0.176409 0.0
0.198298 0.119847 0.0
0.173689 0.0015547 0.0
0.357324 -0.011027 0.0
0.149319 -0.0357536 0.0
0.215252 -0.0438967 0.0
0.201178 -0.0351247 0.0
0.245635 0.000686078 0.0
0.293762 0.154184 0.0
0.177068 -0.000741058 0.0
0.23589 0.029252 0.0
0.284304 -0.00880748 0.0
0.0731799 -0.0159363 0.0
0.362689 -0.0819929 0.0
0.0342355 6.29229e-05 0.0
0.24615 0.0596014 0.0
0.165699 0.0177917 0.0
0.218525 0.00993139 0.0
0.307289 0.159541 0.0
0.237366 -0.186639 0.0
0.141272 -0.0245066 0.0
0.265534 0.0273028 0.0
0.048439 0.0056065 0.0
0.215079 0.189363 0.0
0.109093 -0.0289234 0.0
0.327066 0.0116947 0.0
0.281676 -0.0805941 0.0
0.181895 -0.00232559 0.0
0.196469 -0.00582223 0.0
0.34397 0.146116 0.0
0.237755 -0.0340395 0.0
0.167592 -0.141349 0.0
0.265957 0.137715 0.0
0.177255 0.17649 0.0
0.341206 0.0225396 0.0
0.333223 0.152643 0.0
0.380997 0.072037 0.0
0.285992 0.0124335 0.0
-0.00152534 -0.00445781 0.0
0.289005 -0.00893404 0.0
0.0709044 -0.00628771 0.0
0.190309 -0.0514487 0.0
0.216827 0.0202775 0.0
0.12957 0.0142173 0.0
0.223608 0.154247 0.0
0.0030309 0.00110302 0.0
0.122146 0.000366896 0.0
0.141534 -0.00151516 0.0
0.102603 -0.00370136 0.0
0.119009 0.00108384 0.0
0.181872 -0.177992 0.0
0.361566 0.0858327 0.0
0.349683 -0.0638909 0.0
0.21839 -0.000263547 0.0
0.229065 -0.102588 0.0
0.266235 0.00215312 0.0
0.000188344 0.0127731 0.0
0.128616 0.0429664 0.0
0.0221356 -0.00587441 0.0
0.177585 -0.00156793 0.0
-0.0112629 0.00504994 0.0
0.0544329 0.058747 0.0
0.211362 0.013163 0.0
0.215518 0.000204469 0.0
0.196732 -0.000211183 0.0
0.088868 -0.000558254 0.0
-0.00668139 0.0113767 0.0
0.218543 0.0622565 0.0
0.368425 0.101959 0.0
0.124484 0.000548693 0.0
0.10195 0.0322786 0.0
-0.00627878 0.0139068 0.0
0.163362 -0.00127055 0.0
0.221258 0.000375305 0.0
0.233954 0.0366715 0.0
0.173242 -0.000142825 0.0
0.319064 -0.142207 0.0
0.290734 -0.0087506 0.0
0.019615 0.00671674 0.0
0.168661 0.0059113 0.0
0.185087 0.00137691 0.0
0.261436 -0.0262733 0.0
0.13169 -0.000665603 0.0
0.183178 -0.005687 0.0
0.239564 0.082431 0.0
0.248892 -0.112332 0.0
-0.00388349 0.00955694 0.0
0.163679 -0.0138443 0.0
0.319601 -0.0341179 0.0
0.205875 -0.0273401 0.0
0.00451029 0.0110882 0.0
0.134067 -2.68346e-05 0.0
0.264946 -0.178969 0.0
0.137888 -0.0200515 0.0
0.253424 -0.0448784 0.0
0.296356 0.000968977 0.0
0.181779 -0.000698401 0.0
0.343036 0.0285544 0.0
0.214275 0.000727697 0.0
0.254875 0.00257094 0.0
0.218063 -0.000163017 0.0
0.213821 0.0103524 0.0
0.0454055 0.0710244 0.0
0.29013 -0.134319 0.0
0.211089 0.134033 0.0
0.271579 0.00133802 0.0
0.108448 -0.0246576 0.0
0.0747671 0.00780967 0.0
0.19799 0.0308337 0.0
0.0165829 0.0162698 0.0
0.253809 0.0373568 0.0
0.17273 -0.0227842 0.0
0.210958 -0.00706992 0.0
0.0972399 0.0063391 0.0
0.117961 0.00025061 0.0
0.12209 -0.00399773 0.0
0.102292 -0.00233938 0.0
0.247615 -0.013043 0.0
0.251156 -0.0416236 0.0
0.271888 0.0183638 0.0
0.269826 -0.122446 0.0
0.0224891 0.0161365 0.0
0.358929 0.124921 0.0
0.280798 0.158331 0.0
0.26786 0.00139003 0.0
0.174696 0.000170623 0.0
0.172018 0.000512118 0.0
0.181747 0.000474621 0.0
0.125907 0.00160131 0.0
0.192958 4.01244e-05 0.0
0.130237 -0.000240485 0.0
0.115615 -0.00207768 0.0
0.353972 -0.103144 0.0
0.141811 0.000969208 0.0
0.226915 0.0550609 0.0
0.24999 0.115169 0.0
0.339943 -0.0931557 0.0
0.248092 0.162188 0.0
0.175515 -0.00376839 0.0
0.348485 0.111064 0.0
0.33615 0.00281485 0.0
-0.00270291 -0.00458867 0.0
0.128011 0.139539 0.0
0.0846815 -0.00303777 0.0
0.16354 -0.0059832 0.0
0.214597 -0.00811593 0.0
0.229216 0.0146264 0.0
0.0428729 -0.0173187 0.0
0.297681 0.0025382 0.0
0.0538923 -0.0058422 0.0
0.177214 0.0018038 0.0
0.330137 0.12081 0.0
0.0935045 0.000245113 0.0
0.355548 -0.0383975 0.0
0.120013 -0.00580658 0.0
0.134024 0.00338699 0.0
0.216823 -0.000177405 0.0
0.131966 -0.00313843 0.0
0.106938 0.0292921 0.0
0.104749 0.00788768 0.0
0.231984 -0.00613307 0.0
0.285492 -0.0054532 0.0
0.128363 -0.000636854 0.0
0.317941 -0.0365143 0.0
0.270525 0.00119745 0.0
0.137417 0.0392219 0.0
0.0583718 0.000493529 0.0
0.0572047 -0.000452271 0.0
0.205388 0.0994515 0.0
0.0799669 0.00188354 0.0
0.361013 -0.0230645 0.0
0.0549472 0.00424423 0.0
0.360654 -0.0985659 0.0
0.218391 -0.0438132 0.0
0.153423 0.0205557 0.0
0.127124 -0.0024565 0.0
0.282175 -0.044637 0.0
0.225665 -0.00616914 0.0
0.226249 0.00690972 0.0
0.0977245 -0.00165538 0.0
0.0209545 0.000871977 0.0
0.172068 -0.000370961 0.0
0.221346 -0.0404176 0.0
0.156569 -0.00978382 0.0
0.296733 -0.11346 0.0
0.0853925 0.00684151 0.0
0.232518 -0.13583 0.0
0.174908 -0.000290063 0.0
0.122161 -0.115459 0.0
0.0728292 -0.00299525 0.0
0.320059 0.0293428 0.0
0.0173205 0.0148069 0.0
0.364945 -0.032374 0.0
0.343443 -0.125413 0.0
0.169065 -0.00175032 0.0
0.0704851 0.00455362 0.0
0.252953 -0.0767515 0.0
0.273308 -0.103967 0.0
0.195419 9.17224e-05 0.0
0.183999 0.162426 0.0
0.15634 0.000848028 0.0
0.156486 0.0427399 0.0
0.140719 0.000422035 0.0
0.312656 0.132559 0.0
0.341482 0.100136 0.0
0.137483 0.000681934 0.0
0.0747136 0.000665548 0.0
0.0667711 -9.45893e-05 0.0
0.323651 0.014664 0.0
0.197565 0.0128314 0.0
0.248426 -0.00802725 0.0
0.14147 -0.00120494 0.0
0.158813 -0.0347574 0.0
0.195679 0.0114601 0.0
0.209304 -0.0120412 0.0
0.288634 0.0068821 0.0
0.2069 -0.00992331 0.0
-0.00167881 -0.00181079 0.0
0.133147 0.000345459 0.0
0.0922803 0.00389433 0.0
0.368034 0.064365 0.0
0.333258 0.138231 0.0
0.328592 -0.13635 0.0
0.155622 0.00583064 0.0
0.145329 -0.000195871 0.0
0.179017 0.0498038 0.0
0.160829 0.000614407 0.0
0.178816 -0.000506273 0.0
0.242597 -0.0241782 0.0
0.255229 -0.00537092 0.0
0.170383 -0.00132503 0.0
0.254004 -0.00764263 0.0
0.343075 0.0118601 0.0
0.245656 -0.0131157 0.0
0.0883419 -0.00187918 0.0
0.190198 0.0276198 0.0
0.321237 0.0057829 0.0
0.294474 -0.0163774 0.0
0.297747 -0.00147765 0.0
0.315581 0.0102398 0.0
0.262972 0.00218468 0.0
0.241533 -0.000601522 0.0
0.0395773 0.000438813 0.0
0.261844 -0.00683847 0.0
0.253078 -0.0101083 0.0
0.195974 -0.0305738 0.0
0.144904 0.000628602 0.0
0.0593251 0.00303195 0.0
0.0667597 0.0045593 0.0
0.0648324 0.000275574 0.0
0.0830383 0.002699 0.0
0.251308 -0.0149448 0.0
0.309436 -0.0405796 0.0
0.237644 0.0115376 0.0
0.283771 -0.00615814 0.0
0.105993 0.113293 0.0
0.289556 0.133108 0.0
0.16586 0.00768338 0.0
0.242421 -0.0258434 0.0
0.0722198 -0.000509649 0.0
0.0798797 -0.00470714 0.0
0.11264 -0.00391733 0.0
0.277441 -0.0120346 0.0
0.3415 -0.142182 0.0
0.120548 -0.138556 0.0
0.1403 -0.000862699 0.0
0.252201 -0.0125362 0.0
0.200284 0.0455317 0.0
0.03946 0.0137502 0.0
0.19467 0.0166719 0.0
0.242624 -0.00283617 0.0
0.10787 0.0399818 0.0
0.24799 -0.0342863 0.0
0.219515 -0.0295105 0.0
0.236627 0.0651368 0.0
0.0778321 0.00118391 0.0
0.222957 -0.0627658 0.0
0.289941 0.0418717 0.0
0.320249 -0.108287 0.0
0.253479 -0.0447452 0.0
0.0457229 0.00156318 0.0
0.00626569 0.00520467 0.0
0.143541 0.000675675 0.0
0.0836282 -0.00835399 0.0
0.175332 0.00160121 0.0
0.0902035 0.00175974 0.0
0.221786 -0.0342188 0.0
0.197664 0.0475428 0.0
0.243901 -0.0661904 0.0
0.199498 0.186155 0.0
0.18994 0.00307208 0.0
0.254343 -0.0598228 0.0
0.192801 -0.0422333 0.0
0.220754 -0.0440064 0.0
0.240027 -0.0257154 0.0
0.302934 -0.0368205 0.0
0.249584 -0.039896 0.0
0.084196 -0.00330725 0.0
0.238076 0.033311 0.0
0.245718 0.193084 0.0
0.265432 0.00135124 0.0
0.312681 0.0906511 0.0
0.150435 0.00404155 0.0
0.0744221 0.00283669 0.0
0.124295 0.154059 0.0
0.273182 0.00115267 0.0
0.249054 -0.013871 0.0
0.33187 -0.0333994 0.0
0.0593236 -0.00184485 0.0
0.225496 0.0498767 0.0
0.257613 -0.000286837 0.0
0.066734 0.000195006 0.0
0.167284 -0.167654 0.0
0.143606 0.00351982 0.0
0.34688 -0.0222666 0.0
0.217345 -0.184418 0.0
0.210608 -0.0128755 0.0
0.230375 -0.000948453 0.0
0.0274773 -0.0100879 0.0
0.162823 0.0049462 0.0
0.313315 -0.0332936 0.0
0.25662 -0.00167406 0.0
-0.00447654 0.00830293 0.0
0.256828 0.0529997 0.0
0.166032 -0.0231123 0.0
0.264031 -0.0330196 0.0
0.315458 -0.0336564 0.0
0.0406181 0.000314461 0.0
0.23757 0.0301595 0.0
0.118234 -0.00166129 0.0
0.043902 -0.06134 0.0
0.205753 0.0121407 0.0
0.330727 -0.15359 0.0
0.141983 0.164391 0.0
0.240595 0.000743194 0.0
0.0685472 0.0033968 0.0
0.111147 -0.00249706 0.0
0.222984 0.0277747 0.0
0.248694 -0.0359575 0.0
0.050762 0.00244502 0.0
0.107126 -0.0231072 0.0
0.253599 -0.000956803 0.0
0.216378 0.0492826 0.0
0.35179 0.0123632 0.0
-0.00111223 -0.00213551 0.0
0.254395 -0.0228852 0.0
0.218333 0.0417327 0.0
0.0550079 0.00449896 0.0
0.281557 0.0313017 0.0
0.239601 0.0139201 0.0
0.259586 0.00771426 0.0
0.0423377 -0.0035777 0.0
0.0427452 0.00439889 0.0
0.115553 0.000104492 0.0
0.0695322 0.000447852 0.0
0.0529195 -0.0176818 0.0
0.270785 -0.0386237 0.0
0.306805 -0.0163604 0.0
0.0432967 0.000816758 0.0
0.270729 0.123186 0.0
0.26255 -0.031238 0.0
0.118927 0.0746374 0.0
0.370945 0.0911103 0.0
0.34688 -0.0227913 0.0
0.248283 -0.00119761 0.0
0.0928697 -0.00142204 0.0
0.225699 -0.0299632 0.0
0.300746 0.05797 0.0
0.292884 0.068578 0.0
0.254041 0.0534895 0.0
0.27319 0.0662675 0.0
0.226693 0.050631 0.0
0.223682 0.0245238 0.0
0.279122 -0.0446265 0.0
0.134366 -0.000561889 0.0
0.223612 0.0476461 0.0
0.221215 0.0497117 0.0
0.106502 -0.0715657 0.0
0.0153449 0.00716887 0.0
0.0218505 0.046743 0.0
0.150419 0.00186909 0.0
0.274452 -0.0220021 0.0
0.268845 -0.0369555 0.0
0.245808 -0.0290374 0.0
0.0720831 0.000697747 0.0
0.26646 -0.00673926 0.0
0.266979 0.000859767 0.0
0.0212655 -0.0404521 0.0
0.245999 -0.0300481 0.0
0.0447543 0.00103195 0.0
0.266701 0.000900048 0.0
0.178917 -0.000907983 0.0
0.225791 -0.0314955 0.0
8.29194e-05 0.00953592 0.0
0.206358 -0.0135606 0.0
0.2467 -0.0213611 0.0
0.25519 0.000755305 0.0
0.195696 0.000135921 0.0
0.350642 -0.131704 0.0
0.257746 -0.0503103 0.0
0.273124 -0.154429 0.0
0.177597 0.009086 0.0
0.170024 0.000884808 0.0
0.312091 -0.159869 0.0
0.252628 0.0011966 0.0
0.178358 -0.00693113 0.0
0.298867 -0.0312419 0.0
0.270835 0.000816487 0.0
0.218757 0.00252161 0.0
0.111254 -0.0042944 0.0
0.360725 -0.00955583 0.0
0.0105932 -0.00300497 0.0
0.351001 -0.00954173 0.0
0.206488 0.00557216 0.0
0.272863 0.000701403 0.0
0.374141 0.0399069 0.0
0.114501 0.0407204 0.0
0.305279 0.153285 0.0
0.273142 0.000762343 0.0
0.0612558 0.0181873 0.0
0.241618 -0.0123315 0.0
0.156747 0.00416793 0.0
0.249627 -0.0140987 0.0
0.204386 0.0072933 0.0
0.25813 -0.0212528 0.0
0.220155 0.00345335 0.0
0.249883 0.0199458 0.0
0.185041 0.00141094 0.0
0.0543349 -0.00205696 0.0
0.0679311 0.000115112 0.0
0.314356 -0.0111521 0.0
0.0107345 -0.0155 0.0
0.257606 -5.3275e-05 0.0
0.260635 0.00111528 0.0
0.330334 0.170906 0.0
0.23439 -0.0855461 0.0
0.27108 0.000847805 0.0
0.073504 0.0418507 0.0
0.0100738 0.00254876 0.0
0.0173843 0.034509 0.0
0.23695 -0.00964148 0.0
0.0615944 0.000100469 0.0
0.334522 -0.00978162 0.0
0.294835 -0.0262004 0.0
0.273158 0.000632871 0.0
0.184851 0.0111206 0.0
0.262755 -9.75405e-05 0.0
0.034954 -0.00118591 0.0
0.240007 0.00280538 0.0
0.242468 0.00238199 0.0
0.261221 0.000838263 0.0
0.261034 0.000742128 0.0
0.125314 0.00153356 0.0
0.267404 0.000745632 0.0
0.269266 -0.0193941 0.0
0.0457054 -0.00419602 0.0
0.255596 0.00246855 0.0
0.0602327 -0.0465586 0.0
0.23737 0.00297273 0.0
0.0579519 -0.00068311 0.0
0.245418 0.00132982 0.0
0.158728 0.039649 0.0
0.246708 -0.0118568 0.0
0.253917 -0.0191238 0.0
-0.00313243 -0.00148484 0.0
0.134893 -0.00322425 0.0
0.19259 -0.000482301 0.0
0.189491 -0.0480689 0.0
0.152631 0.00206417 0.0
0.191559 -0.0198072 0.0
0.267722 0.000533431 0.0
0.114231 -0.000877893 0.0
0.0428818 -0.00264504 0.0
0.113213 -0.00161024 0.0
0.116585 -0.00295934 0.0
0.116625 0.00189789 0.0
0.109119 0.00228214 0.0
0.359482 -0.00824051 0.0
0.267191 0.000702779 0.0
0.233971 -0.00649136 0.0
0.111135 0.000238955 0.0
0.264233 0.00109116 0.0
0.125367 0.00106686 0.0
0.227345 0.00274538 0.0
0.0560468 0.000214776 0.0
0.318698 -0.0654202 0.0
0.0420889 0.00070803 0.0
0.243389 -0.00730463 0.0
0.0385338 0.0191675 0.0
0.24155 0.00180892 0.0
0.18125 0.000847772 0.0
0.27121 0.000633812 0.0
0.240664 0.00194825 0.0
0.125314 -0.00046427 0.0
0.332847 -0.0294098 0.0
0.174043 0.00067702 0.0
0.241069 -0.0117279 0.0
0.248958 0.00257919 0.0
0.118739 0.000912486 0.0
0.249558 0.00124343 0.0
0.262004 0.000606379 0.0
0.18863 -0.00501577 0.0
0.268416 0.0010245 0.0
0.246823 0.00119043 0.0
0.377986 0.0644743 0.0
0.209925 -0.000266007 0.0
0.247865 0.00112181 0.0
0.259021 0.000994184 0.0
0.241444 0.00177923 0.0
0.0586145 -0.000330163 0.0
0.238942 -2.56848e-05 0.0
0.261371 -0.000782994 0.0
0.251722 0.0464869 0.0
0.0349366 0.000334136 0.0
0.26653 -0.000766201 0.0
0.0574455 -0.000407357 0.0
0.0589468 0.0015336 0.0
0.121134 -0.00424995 0.0
0.119678 -0.0017717 0.0
0.246899 -0.0124817 0.0
0.226689 0.000137873 0.0