# vtk DataFile Version 3.0
Malha 2D com triângulos: velocidade e pressão
ASCII
DATASET UNSTRUCTURED_GRID

POINTS 1777 double
0 0 0
2.2 0 0
2.2 0.41 0
0 0.41 0
0.25 0.2 0
0.0297297 0 0
0.0594595 0 0
0.0891892 0 0
0.118919 0 0
0.148649 0 0
0.178378 0 0
0.208108 0 0
0.237838 0 0
0.267568 0 0
0.297297 0 0
0.327027 0 0
0.356757 0 0
0.386486 0 0
0.416216 0 0
0.445946 0 0
0.475676 0 0
0.505405 0 0
0.535135 0 0
0.564865 0 0
0.594595 0 0
0.624324 0 0
0.654054 0 0
0.683784 0 0
0.713514 0 0
0.743243 0 0
0.772973 0 0
0.802703 0 0
0.832432 0 0
0.862162 0 0
0.891892 0 0
0.921622 0 0
0.951351 0 0
0.981081 0 0
1.01081 0 0
1.04054 0 0
1.07027 0 0
1.1 0 0
1.12973 0 0
1.15946 0 0
1.18919 0 0
1.21892 0 0
1.24865 0 0
1.27838 0 0
1.30811 0 0
1.33784 0 0
1.36757 0 0
1.3973 0 0
1.42703 0 0
1.45676 0 0
1.48649 0 0
1.51622 0 0
1.54595 0 0
1.57568 0 0
1.60541 0 0
1.63514 0 0
1.66486 0 0
1.69459 0 0
1.72432 0 0
1.75405 0 0
1.78378 0 0
1.81351 0 0
1.84324 0 0
1.87297 0 0
1.9027 0 0
1.93243 0 0
1.96216 0 0
1.99189 0 0
2.02162 0 0
2.05135 0 0
2.08108 0 0
2.11081 0 0
2.14054 0 0
2.17027 0 0
2.2 0.0292857 0
2.2 0.0585714 0
2.2 0.0878571 0
2.2 0.117143 0
2.2 0.146429 0
2.2 0.175714 0
2.2 0.205 0
2.2 0.234286 0
2.2 0.263571 0
2.2 0.292857 0
2.2 0.322143 0
2.2 0.351429 0
2.2 0.380714 0
2.17027 0.41 0
2.14054 0.41 0
2.11081 0.41 0
2.08108 0.41 0
2.05135 0.41 0
2.02162 0.41 0
1.99189 0.41 0
1.96216 0.41 0
1.93243 0.41 0
1.9027 0.41 0
1.87297 0.41 0
1.84324 0.41 0
1.81351 0.41 0
1.78378 0.41 0
1.75405 0.41 0
1.72432 0.41 0
1.69459 0.41 0
1.66486 0.41 0
1.63514 0.41 0
1.60541 0.41 0
1.57568 0.41 0
1.54595 0.41 0
1.51622 0.41 0
1.48649 0.41 0
1.45676 0.41 0
1.42703 0.41 0
1.3973 0.41 0
1.36757 0.41 0
1.33784 0.41 0
1.30811 0.41 0
1.27838 0.41 0
1.24865 0.41 0
1.21892 0.41 0
1.18919 0.41 0
1.15946 0.41 0
1.12973 0.41 0
1.1 0.41 0
1.07027 0.41 0
1.04054 0.41 0
1.01081 0.41 0
0.981081 0.41 0
0.951351 0.41 0
0.921622 0.41 0
0.891892 0.41 0
0.862162 0.41 0
0.832432 0.41 0
0.802703 0.41 0
0.772973 0.41 0
0.743243 0.41 0
0.713514 0.41 0
0.683784 0.41 0
0.654054 0.41 0
0.624324 0.41 0
0.594595 0.41 0
0.564865 0.41 0
0.535135 0.41 0
0.505405 0.41 0
0.475676 0.41 0
0.445946 0.41 0
0.416216 0.41 0
0.386486 0.41 0
0.356757 0.41 0
0.327027 0.41 0
0.297297 0.41 0
0.267568 0.41 0
0.237838 0.41 0
0.208108 0.41 0
0.178378 0.41 0
0.148649 0.41 0
0.118919 0.41 0
0.0891892 0.41 0
0.0594595 0.41 0
0.0297297 0.41 0
0 0.380714 0
0 0.351429 0
0 0.322143 0
0 0.292857 0
0 0.263571 0
0 0.234286 0
0 0.205 0
0 0.175714 0
0 0.146429 0
0 0.117143 0
0 0.0878571 0
0 0.0585714 0
0 0.0292857 0
0.249554 0.206664 0
0.248223 0.21321 0
0.246032 0.219519 0
0.24302 0.225481 0
0.23924 0.230987 0
0.23476 0.235941 0
0.229659 0.240254 0
0.224029 0.243847 0
0.21797 0.246659 0
0.211591 0.248638 0
0.205005 0.249749 0
0.198329 0.249972 0
0.191684 0.249304 0
0.185186 0.247755 0
0.178953 0.245355 0
0.173096 0.242145 0
0.167719 0.238183 0
0.162917 0.233539 0
0.158778 0.228297 0
0.155374 0.222551 0
0.152767 0.216401 0
0.151002 0.209959 0
0.150112 0.20334 0
0.150112 0.19666 0
0.151002 0.190041 0
0.152767 0.183599 0
0.155374 0.177449 0
0.158778 0.171703 0
0.162917 0.166461 0
0.167719 0.161817 0
0.173096 0.157855 0
0.178953 0.154645 0
0.185186 0.152245 0
0.191684 0.150696 0
0.198329 0.150028 0
0.205005 0.150251 0
0.211591 0.151362 0
0.21797 0.153341 0
0.224029 0.156153 0
0.229659 0.159746 0
0.23476 0.164059 0
0.23924 0.169013 0
0.24302 0.174519 0
0.246032 0.180481 0
0.248223 0.18679 0
0.249554 0.193336 0
0.255574 0.203679 0
0.252738 0.181785 0
0.460003 0.383807 0
0.249896 0.225202 0
0.431099 0.0237466 0
0.241058 0.162896 0
0.54971 0.0257464 0
1.02609 0.385158 0
1.17433 0.0257466 0
0.817568 0.384253 0
1.38243 0.0257466 0
1.58969 0.0252557 0
1.88787 0.0244307 0
1.73874 0.0220086 0
0.668263 0.387736 0
0.161368 0.239955 0
1.97653 0.383822 0
1.47082 0.384717 0
0.937484 0.0250546 0
1.26351 0.384253 0
0.236421 0.242977 0
0.160587 0.159637 0
0.755883 0.028886 0
1.65 0.384253 0
1.79971 0.384538 0
1.05403 0.0250188 0
1.14325 0.381322 0
2.00698 0.0273545 0
0.369165 0.385669 0
0.180133 0.252235 0
2.17498 0.221643 0
0.216749 0.253288 0
0.223287 0.149332 0
0.148745 0.221734 0
0.148958 0.178355 0
0.555071 0.387669 0
0.179991 0.148047 0
0.6387 0.0238257 0
1.29324 0.0257471 0
0.906787 0.384923 0
1.50135 0.0255777 0
1.88838 0.381156 0
1.56087 0.386387 0
0.851305 0.0275789 0
1.35113 0.380293 0
0.144177 0.200061 0
0.201075 0.142533 0
0.342085 0.0243487 0
0.0253622 0.3075 0
2.17355 0.13339 0
2.06624 0.384266 0
0.194586 0.255738 0
0.0233141 0.105502 0
0.28174 0.383244 0
0.134676 0.385875 0
0.13504 0.0223147 0
0.251335 0.0249595 0
0.191213 0.385618 0
0.0265235 0.161223 0
0.0251716 0.21809 0
0.195684 0.0243706 0
2.17106 0.309047 0
2.09595 0.0257467 0
0.60946 0.383326 0
0.490104 0.0252661 0
0.699312 0.0273901 0
1.94673 0.0240633 0
0.758108 0.384253 0
1.65297 0.0265695 0
1.82554 0.0269732 0
1.23378 0.0257467 0
1.20405 0.384253 0
0.962639 0.384388 0
0.995951 0.0257473 0
1.44189 0.0257476 0
1.70976 0.384108 0
1.11561 0.0253103 0
1.41216 0.38459 0
1.0846 0.384562 0
0.076584 0.0279689 0
0.0707485 0.380628 0
2.17692 0.0744956 0
2.12539 0.384424 0
0.0301829 0.0451136 0
0.0253892 0.362975 0
2.17313 0.363183 0
2.15525 0.0246548 0
0.255643 0.196183 0
0.262186 0.199703 0
0.262052 0.207791 0
0.269348 0.203666 0
0.268881 0.212825 0
0.277435 0.207882 0
0.27697 0.218189 0
0.286594 0.21258 0
0.285984 0.201745 0
0.29634 0.206658 0
0.286644 0.22335 0
0.295261 0.194431 0
0.306698 0.200133 0
0.305673 0.187361 0
0.317722 0.192557 0
0.318438 0.206672 0
0.330636 0.198464 0
0.331187 0.213853 0
0.344677 0.205704 0
0.343629 0.18899 0
0.359077 0.196587 0
0.359796 0.213987 0
0.375105 0.204871 0
0.376285 0.223498 0
0.392969 0.213244 0
0.357727 0.178857 0
0.393375 0.233788 0
0.410895 0.222322 0
0.410322 0.201585 0
0.429527 0.211038 0
0.428709 0.189227 0
0.449101 0.199711 0
0.444844 0.223277 0
0.468852 0.216271 0
0.375794 0.244285 0
0.468956 0.187297 0
0.490723 0.199346 0
0.492637 0.223613 0
0.513842 0.209717 0
0.394274 0.25413 0
0.512654 0.185603 0
0.535758 0.195857 0
0.536577 0.221909 0
0.559239 0.208494 0
0.558341 0.181441 0
0.582348 0.194035 0
0.583054 0.221638 0
0.606664 0.207046 0
0.607286 0.234757 0
0.631231 0.220248 0
0.63034 0.192331 0
0.655194 0.205679 0
0.656079 0.233608 0
0.680258 0.218898 0
0.67935 0.191118 0
0.704527 0.20434 0
0.706018 0.232162 0
0.730115 0.217489 0
0.729707 0.1897 0
0.754858 0.202972 0
0.756381 0.230686 0
0.780039 0.216375 0
0.780295 0.18836 0
0.804833 0.201181 0
0.806762 0.229255 0
0.830523 0.215054 0
0.830532 0.186604 0
0.855857 0.200239 0
0.857218 0.228223 0
0.881754 0.213202 0
0.881871 0.185515 0
0.906327 0.198306 0
0.908566 0.226299 0
0.932225 0.212305 0
0.931802 0.183957 0
0.957224 0.197415 0
0.958155 0.226357 0
0.983292 0.211004 0
0.982426 0.182553 0
1.00828 0.196026 0
1.00922 0.225127 0
1.03445 0.209647 0
0.37523 0.265887 0
1.03369 0.179965 0
1.05972 0.194061 0
1.0605 0.223674 0
1.08576 0.208158 0
1.08496 0.178532 0
1.11102 0.192636 0
1.11183 0.222277 0
1.1371 0.206757 0
1.1379 0.23641 0
1.16319 0.220885 0
1.16238 0.191237 0
1.18848 0.205361 0
1.18929 0.235022 0
1.21458 0.219488 0
1.21377 0.189838 0
1.23988 0.203963 0
1.2407 0.23363 0
1.266 0.218091 0
1.26519 0.188439 0
1.2913 0.202565 0
1.29212 0.232228 0
1.31743 0.216692 0
1.31662 0.18704 0
1.34274 0.201166 0
1.34354 0.230848 0
1.36887 0.215296 0
1.36806 0.185642 0
1.39418 0.199767 0
1.39499 0.229451 0
1.42032 0.213896 0
1.4195 0.184244 0
1.44563 0.198367 0
1.44645 0.228052 0
1.47178 0.212496 0
1.47096 0.182846 0
1.49709 0.196967 0
1.49791 0.226652 0
1.52324 0.211095 0
1.52242 0.181448 0
1.54855 0.195567 0
1.54937 0.225252 0
1.5747 0.209694 0
1.57393 0.180049 0
1.60005 0.194166 0
1.60084 0.223851 0
1.62618 0.208292 0
1.62538 0.178598 0
1.65151 0.192732 0
1.65231 0.222441 0
1.67764 0.206883 0
1.67683 0.177167 0
1.70297 0.191323 0
1.70378 0.22104 0
1.72911 0.20548 0
1.72992 0.235198 0
1.75525 0.219638 0
1.75444 0.18992 0
1.78059 0.204077 0
1.7814 0.233797 0
1.80673 0.218235 0
1.80592 0.188517 0
1.83206 0.202678 0
1.83289 0.232333 0
1.85821 0.216789 0
1.85738 0.187113 0
1.8835 0.20127 0
1.88433 0.230926 0
1.9096 0.215401 0
1.9088 0.18577 0
1.93487 0.199882 0
1.93568 0.229497 0
1.96093 0.21398 0
1.96011 0.184392 0
1.98616 0.198494 0
1.98697 0.22807 0
2.01218 0.212579 0
2.01137 0.183012 0
0.395013 0.275933 0
2.013 0.242157 0
0.293845 0.18174 0
0.304239 0.174244 0
0.292601 0.168738 0
0.303349 0.160644 0
0.29105 0.154895 0
0.302598 0.146389 0
0.288598 0.139868 0
0.301632 0.130968 0
0.286439 0.124081 0
2.0374 0.197128 0
2.03657 0.167534 0
0.300561 0.114437 0
0.316259 0.122043 0
0.581278 0.166607 0
1.70216 0.161607 0
1.70459 0.250757 0
1.73073 0.264915 0
1.11022 0.163 0
1.11261 0.251931 0
1.08413 0.148889 0
1.98778 0.257658 0
2.01055 0.153446 0
0.375474 0.287373 0
0.356398 0.277065 0
0.356543 0.298136 0
0.339223 0.288016 0
1.67605 0.147449 0
0.394981 0.298839 0
0.415381 0.286457 0
0.583416 0.249125 0
0.608001 0.262739 0
1.1387 0.266074 0
0.285067 0.107592 0
0.270988 0.117331 0
0.557946 0.153957 0
0.580325 0.138903 0
2.03578 0.137944 0
2.01382 0.271739 0
2.03904 0.256255 0
2.06263 0.181698 0
0.338437 0.308507 0
0.32291 0.298454 0
0.583747 0.277276 0
0.269202 0.101005 0
0.254162 0.112884 0
0.281967 0.0889204 0
0.315333 0.103792 0
0.332625 0.112396 0
0.276373 0.229163 0
0.286268 0.235014 0
0.275717 0.240886 0
0.286307 0.247064 0
0.275031 0.253226 0
1.1094 0.133348 0
0.253611 0.0947299 0
0.240543 0.104513 0
0.555943 0.126096 0
1.70136 0.13189 0
1.7054 0.280474 0
0.238631 0.0880636 0
0.225277 0.0972438 0
1.73154 0.294632 0
0.579193 0.109947 0
0.60402 0.12373 0
1.1134 0.2816 0
2.00973 0.123853 0
2.03986 0.285814 0
2.06505 0.270339 0
0.29636 0.241539 0
0.60865 0.291034 0
2.03539 0.107586 0
2.06108 0.122321 0
1.98859 0.287261 0
0.277301 0.149107 0
0.415326 0.311008 0
0.436394 0.298077 0
1.0833 0.119227 0
0.286306 0.259812 0
0.274781 0.265855 0
0.320873 0.318815 0
0.30283 0.307655 0
0.314553 0.153878 0
1.67525 0.117732 0
1.1395 0.29575 0
0.263717 0.259156 0
0.263377 0.271775 0
[...]
CELL_DATA 3331
VECTORS velocity double
0.0545755 -0.0160745 0
0.139038 -0.0395817 0
0.228932 -0.012873 0
0.0632381 -0.000443745 0
0.130107 -0.000664242 0
0.158361 -0.0142878 0
0.191813 -0.000358963 0
0.26469 0.0688195 0
0.142968 -0.0378493 0
0.145701 -0.0174767 0
0.23915 0.000158781 0
0.17241 0.0404548 0
0.085735 0.026039 0
-0.00159544 0.00169763 0
0.235115 -0.000804778 0
0.26989 0.181022 0
0.183397 -0.0211717 0
0.159859 -0.159969 0
0.121302 0.00595106 0
0.227571 -0.0131802 0
0.191403 -4.95863e-05 0
0.151376 -0.00589398 0
0.258541 0.0750161 0
0.219172 0.0102121 0
0.190342 -0.00837207 0
0.221165 -0.000160131 0
0.14324 -0.0218575 0
0.139426 0.0188217 0
0.132037 -0.0181619 0
0.12308 -0.000755101 0
0.235447 -0.0166243 0
0.144115 -8.41964e-05 0
0.163987 -0.0122036 0
0.167079 0.000835833 0
0.203261 -0.0923995 0
0.185343 -0.0178009 0
0.0183216 0.00451812 0
0.216519 -0.025086 0
0.141659 -0.00117494 0
0.179012 0.0012909 0
0.135488 0.0161523 0
0.207049 0.0024486 0
0.159482 0.024814 0
0.140267 -0.000337128 0
0.166953 0.0257622 0
0.0354641 -0.0196302 0
0.162586 0.0384605 0
0.207225 -0.032995 0
0.178696 0.00339675 0
0.143809 -0.0324772 0
0.220023 0.0454423 0
0.0433781 -0.000245582 0
0.134508 8.99571e-05 0
0.373743 -0.039253 0
0.183347 -0.0274351 0
0.297064 0.0222195 0
0.231159 0.169281 0
0.00705628 -0.0011677 0
0.285027 0.0293903 0
0.158439 0.0771638 0
0.209672 -0.107061 0
0.151011 0.0013764 0
0.248646 -0.164535 0
0.245316 0.0151944 0
0.280656 -0.0285729 0
0.235299 -0.0304439 0
-0.00335065 0.00472299 0
0.233399 0.181377 0
0.135763 -0.00055143 0
0.17424 0.065568 0
0.178542 0.000751813 0
0.132705 0.00531763 0
0.206738 -0.0170739 0
0.184062 0.00237175 0
0.0453857 -0.0111621 0
0.20702 -0.0226422 0
0.264487 0.187016 0
0.268042 0.0268945 0
0.256914 -0.0425224 0
0.0526154 0.0169517 0
0.175937 -0.00159423 0
0.220701 0.0402643 0
0.190713 0.000840877 0
0.0645485 2.35033e-05 0
0.223533 0.0456023 0
0.184892 -0.00775094 0
0.0336201 0.0119637 0
0.150986 0.0980993 0
0.33469 -0.136851 0
0.229373 -0.0103489 0
0.19355 0.0170352 0
0.151866 0.000809702 0
0.0908864 -0.0244761 0
0.0259201 -0.00938722 0
0.10692 -0.0110562 0
0.272503 -0.018394 0
0.321792 0.0273867 0
0.0427524 0.000131473 0
0.337074 0.0311699 0
0.278219 0.0315019 0
0.240721 -0.0276333 0
0.20924 -0.0244854 0
0.260379 -0.0348773 0
0.130753 0.00226263 0
0.136984 -0.00126931 0
0.043515 0.000737833 0
0.123874 -0.00139007 0
0.276525 0.0205453 0
0.278841 0.0175165 0
0.262149 -0.183177 0
0.184369 -0.0245649 0
0.226742 -0.00253698 0
0.0586927 -0.0445481 0
0.20496 -0.000876301 0
0.181494 -0.0068685 0
0.0382646 0.0114764 0
0.116909 -0.000155709 0
0.131031 -0.135572 0
0.228379 -0.0195948 0
0.172705 0.00213994 0
0.227378 -0.0230351 0
0.319067 0.0292984 0
0.276522 0.0819534 0
0.185156 -0.0146966 0
0.170912 -0.000692243 0
0.285455 0.179764 0
0.142626 0.000432574 0
0.245896 -0.043606 0
0.159117 0.0138376 0
0.215205 0.0341011 0
0.153564 -0.000377682 0
0.20827 -0.019979 0
0.361879 -0.00152709 0
0.144092 0.000239023 0
0.197538 0.0233633 0
0.210897 -0.0102401 0
0.090864 -0.02158 0
0.133471 -0.000402458 0
0.207101 -0.039483 0
0.130458 -0.00139323 0
0.212301 -0.0190778 0
0.00490511 -0.0027584 0
0.258026 0.0132518 0
0.176348 0.000427123 0
0.140514 -0.00483857 0
0.0967572 0.0297836 0
0.153763 0.017018 0
0.289981 -0.0249991 0
0.362097 -0.0743537 0
0.176823 -0.000800789 0
0.373821 -0.0514617 0
0.289738 -4.87539e-05 0
0.166176 -0.00271023 0
0.131022 0.0277968 0
0.248526 0.0214764 0
0.318991 -0.0832876 0
0.233782 -0.00766828 0
0.245682 0.0202756 0
0.211393 0.01511 0
0.190439 0.00062595 0
0.242432 0.0104439 0
0.108966 -0.0269571 0
0.126083 6.03548e-05 0
0.185716 0.00131153 0
0.10577 -0.00283409 0
0.167216 -0.00170238 0
0.228026 -0.0207064 0
0.261017 0.0164007 0
0.167108 -0.0178101 0
0.0924258 0.00151224 0
0.315696 0.00497713 0
0.107003 0.0303094 0
0.0559797 -0.000415638 0
0.207221 0.0218331 0
0.128672 -0.00183541 0
0.159817 0.139018 0
0.346421 0.128048 0
0.120061 0.00026805 0
0.161297 -0.168272 0
0.27551 -0.019238 0
0.234583 -0.0148271 0
0.185417 0.000369301 0
0.193383 0.0019832 0
0.290813 -0.00669761 0
0.287818 -0.180445 0
0.137934 -0.00158847 0
0.216206 0.000210136 0
0.121459 0.00221091 0
0.184172 0.000413925 0
0.334539 0.0339313 0
0.223226 0.0121493 0
0.106997 -0.00837075 0
0.279591 0.0188626 0
0.20195 0.0161134 0
0.169328 -0.0245593 0
0.127314 -0.00285528 0
0.166802 0.118353 0
0.366547 -0.0629737 0
0.303209 0.175958 0
0.0904564 0.025844 0
0.274089 -0.0116269 0
0.12298 -0.000268227 0
0.24312 0.0121515 0
0.323803 -0.00471348 0
0.290771 -0.182664 0
0.172763 -0.000500448 0
0.0855462 -0.0226083 0
0.112848 0.00532816 0
0.203265 0.0776755 0
0.244662 0.0241937 0
0.0872901 -0.0508962 0
0.0170021 -0.00345646 0
0.231322 -0.0124135 0
0.189784 0.0504507 0
-0.010129 0.000626095 0
0.273889 0.177468 0
0.0939384 0.00444249 0
0.182749 0.000536868 0
-0.00326702 -0.00343891 0
0.246701 0.0142239 0
0.0723976 0.00308742 0
0.116473 -7.8595e-05 0
0.356451 0.137325 0
0.136846 0.000167807 0
0.054613 0.0163969 0
0.178835 0.0382628 0
0.255393 0.0725415 0
0.0697508 -0.000548046 0
0.137383 0.00110927 0
0.345632 0.130935 0
0.0658474 -4.63224e-05 0
0.251377 0.0722667 0
0.0678843 0.00333977 0
0.152866 0.0197401 0
0.0505249 0.0166184 0
0.351826 -0.108655 0
0.306925 -0.133138 0
0.309337 -0.0325039 0
0.3351 -0.0454104 0
0.262982 0.0244007 0
0.282108 -0.019897 0
0.25462 0.000913701 0
0.0325872 -0.00997234 0
0.237148 -0.00178079 0
0.187419 0.0109826 0
0.356244 -0.0050097 0
0.130946 4.46558e-05 0
0.225532 0.014083 0
0.00240544 0.00181561 0
0.175446 -0.0257685 0
-0.00346052 0.00718479 0
0.354944 -0.0236273 0
0.336385 -0.0341166 0
0.171731 -0.00172946 0
0.0987081 0.00306239 0
0.193931 -0.16828 0
0.149971 -0.0294139 0
0.175156 0.000179549 0
0.0041248 0.000470099 0
0.190706 -0.0461966 0
0.144526 0.00104285 0
0.102777 0.00479996 0
0.320231 0.150387 0
0.292318 0.0235534 0
0.134104 0.0439263 0
0.102976 0.0245285 0
0.24247 0.0110529 0
0.175204 0.000283818 0
-0.000131781 -0.00259135 0
0.166035 -0.0443879 0
0.232934 0.0331631 0
0.290186 -0.156644 0
0.263711 0.0134855 0
0.300723 -0.165075 0
0.32205 0.00273643 0
0.0672954 0.000333468 0
0.222302 0.0188744 0
0.0675735 -0.0173205 0
0.0706966 0.00097773 0
0.234109 -0.00202575 0
0.279776 -0.0178267 0
0.236171 0.111753 0
0.290614 0.0328181 0
0.255284 0.0417187 0
0.33577 0.0636845 0
0.341154 -0.123942 0
0.279949 -0.124806 0
0.373313 0.0560353 0
0.0486781 -0.0142392 0
0.342813 0.00609857 0
0.141835 0.00124144 0
0.181963 -0.00480091 0
0.233135 0.0991867 0
-0.00838741 0.00174172 0
0.364341 0.124841 0
0.259923 0.000590455 0
0.313973 -0.0266495 0
0.3682 0.0417615 0
0.101473 0.00140784 0
0.0122671 0.00123441 0
0.00197901 0.0027243 0
0.360177 0.107224 0
0.159144 0.039337 0
0.220727 0.0196533 0
0.0184651 0.00540354 0
0.211208 -0.0732075 0
0.236675 -0.119437 0
0.179651 0.00174698 0
0.247241 -0.0209286 0
0.0903358 0.0260646 0
0.314751 0.17385 0
0.197136 0.117033 0
0.173902 0.00145397 0
0.360908 -0.0107883 0
0.159326 -0.0411871 0
0.215368 -0.0438048 0
0.201637 -0.0373791 0
0.247973 0.000334162 0
0.291987 0.152048 0
0.183704 -0.00148669 0
0.235813 0.0291562 0
0.285904 -0.0116758 0
0.0741622 -0.0162662 0
0.366922 -0.0826491 0
0.035007 -4.72864e-06 0
0.245574 0.0591517 0
0.16548 0.0176768 0
0.217919 0.0103878 0
0.305316 0.157357 0
0.24029 -0.189845 0
0.145735 -0.0270984 0
0.266536 0.0273276 0
0.0484046 0.00168121 0
0.212901 0.186528 0
0.116388 -0.0276069 0
0.330938 0.0121229 0
0.285494 -0.0816481 0
0.181849 -0.00227927 0
0.187185 -0.00586384 0
0.341731 0.143793 0
0.23787 -0.034149 0
0.169384 -0.144939 0
0.264458 0.135783 0
0.175356 0.173035 0
0.342635 0.0227439 0
0.331073 0.150328 0
0.378497 0.0688316 0
0.28597 0.0120833 0
-0.00189063 -0.00677962 0
0.289032 -0.00914122 0
0.0708348 -0.00626435 0
0.190969 -0.053918 0
0.228383 0.0210785 0
0.129548 0.0142609 0
0.221621 0.152325 0
0.0029708 -0.00217668 0
0.121468 0.000259174 0
0.141442 -0.00143942 0
0.0977485 -0.00358273 0
0.118573 0.00104522 0
0.184393 -0.181511 0
0.35995 0.0833878 0
0.353948 -0.0644449 0
0.219022 -0.000435064 0
0.23021 -0.104461 0
0.265177 0.000571434 0
0.00205478 0.00578815 0
0.135673 0.0416615 0
0.0236622 -0.00757365 0
0.177491 -0.00167148 0
-0.00917856 -0.000569736 0
0.0539031 0.0550551 0
0.21022 0.0126453 0
0.216436 7.6479e-05 0
0.197145 -0.000303132 0
0.0848735 -0.000432021 0
-0.00470547 0.00597398 0
0.218047 0.0602954 0
0.366105 0.0993711 0
0.124215 0.000551967 0
0.110973 0.0301848 0
-0.00322131 0.0076691 0
0.16321 -0.0012851 0
0.221842 0.000160685 0
0.237994 0.0369323 0
0.173629 -5.89545e-05 0
0.321695 -0.143548 0
0.294873 -0.00867777 0
0.0199104 0.00433006 0
0.167545 0.00600408 0
0.18385 0.000697065 0
0.261512 -0.0264268 0
0.131487 -0.000622067 0
0.188138 -0.00453846 0
0.238868 0.0808357 0
0.250119 -0.11379 0
-0.00117358 0.00472749 0
0.163457 -0.0137854 0
0.318119 -0.0382989 0
0.205714 -0.027193 0
0.00646104 0.00669212 0
0.133484 -1.05887e-05 0
0.26782 -0.181673 0
0.137857 -0.0200143 0
0.256406 -0.0491494 0
0.296359 0.000862019 0
0.181772 -0.000601024 0
0.342582 0.0255739 0
0.214531 0.000494599 0
0.254226 0.00274703 0
0.218743 -0.000332214 0
0.213071 0.0106277 0
0.0447377 0.0676762 0
0.292037 -0.135544 0
0.209318 0.132492 0
0.27553 0.000878667 0
0.112326 -0.0259355 0
0.0748604 0.00786685 0
0.197797 0.0285765 0
0.0375305 -0.0109597 0
0.258206 0.0375021 0
0.176575 -0.025073 0
0.205823 -0.00469959 0
0.0972849 0.00634247 0
0.117672 0.000244373 0
0.121767 -0.00396869 0
0.101943 -0.00232813 0
0.247629 -0.0130558 0
0.252209 -0.043292 0
0.272875 0.016666 0
0.271285 -0.123566 0
0.0250431 0.012442 0
0.356724 0.122575 0
0.278953 0.156123 0
0.271576 0.000941662 0
0.175084 0.00016477 0
0.174666 -0.000222485 0
0.181787 0.000452272 0
0.125946 0.00153141 0
0.190061 0.000787865 0
0.133723 -0.000730122 0
0.111175 -0.00194114 0
0.356756 -0.10381 0
0.142582 0.000593457 0
0.2336 0.0546035 0
0.248872 0.113399 0
0.341978 -0.0935057 0
0.246337 0.159609 0
0.181355 -0.00289358 0
0.346682 0.108826 0
0.340026 0.00320351 0
-0.00305131 -0.00683927 0
0.126595 0.135805 0
0.0843455 -0.00301184 0
0.15589 -0.00531288 0
0.208943 -0.00578078 0
0.229005 0.0148417 0
0.0527963 -0.022363 0
0.297675 0.00250879 0
0.053752 -0.00581584 0
0.177202 0.00181226 0
0.32846 0.119018 0
0.0929937 0.000250589 0
0.359741 -0.038548 0
0.116657 -0.00592973 0
0.133356 0.00343632 0
0.218593 -0.00140306 0
0.129233 -0.00349766 0
0.109229 0.028801 0
0.104745 0.00793509 0
0.2266 -0.00702118 0
0.285497 -0.0054783 0
0.128121 -0.00060107 0
0.316135 -0.0406439 0
0.274131 0.00081503 0
0.141807 0.0382028 0
0.0593854 0.000419927 0
0.0584398 -0.000558847 0
0.204531 0.0970375 0
0.0798625 0.00184431 0
0.364616 -0.0229444 0
0.055068 0.00423795 0
0.364781 -0.0994794 0
0.223825 -0.047974 0
0.153332 0.0204889 0
0.123608 -0.00218248 0
0.282104 -0.0482742 0
0.22567 -0.00615711 0
0.226239 0.00692771 0
0.0959057 -0.00188822 0
0.020406 -0.00383787 0
0.172172 -0.000436717 0
0.225627 -0.0430675 0
0.156571 -0.00975413 0
0.298292 -0.114074 0
0.0855066 0.00683525 0
0.234201 -0.138147 0
0.181122 -0.00111349 0
0.12355 -0.119406 0
0.0701637 -0.00314114 0
0.323789 0.0297038 0
0.0227709 0.0109922 0
0.36735 -0.032228 0
0.347484 -0.126888 0
0.168859 -0.00167868 0
0.0700334 0.00445943 0
0.253574 -0.0771899 0
0.274442 -0.104577 0
0.192867 0.000881881 0
0.182228 0.15905 0
0.151957 0.00110785 0
0.165577 0.0417021 0
0.141585 1.66683e-05 0
0.311071 0.130862 0
0.339617 0.0981651 0
0.137227 0.000645092 0
0.0743865 0.000695161 0
0.0637408 -0.000402943 0
0.323884 0.0117589 0
0.196581 0.0127522 0
0.247995 -0.00791549 0
0.141414 -0.00110042 0
0.16528 -0.0350035 0
0.194635 0.0113298 0
0.209312 -0.0120243 0
0.288615 0.0065376 0
0.19818 -0.0102932 0
-0.00176047 -0.0031279 0
0.130767 0.000650212 0
0.091875 0.00385848 0
0.36645 0.0613989 0
0.331205 0.135974 0
0.332697 -0.138075 0
0.154499 0.005828 0
0.14174 -0.0006764 0
0.186135 0.0490429 0
0.161067 0.000500239 0
0.179244 -0.000430686 0
0.242851 -0.0199625 0
0.261274 -0.00356063 0
0.17119 -0.00182358 0
0.259266 -0.0044759 0
0.346475 0.0122911 0
0.239421 -0.0142068 0
0.087885 -0.00185962 0
0.19348 0.0280019 0
0.321483 0.00606234 0
0.287092 -0.0181786 0
0.297749 -0.00149359 0
0.315615 0.0104602 0
0.26082 0.000792503 0
0.247535 0.00378676 0
0.0389627 0.000503384 0
0.261852 -0.00683949 0
0.257177 -0.00568664 0
0.200095 -0.0334238 0
0.141195 0.000185879 0
0.059025 0.00297987 0
0.066865 0.0045462 0
0.0637728 0.000353231 0
0.0827072 0.00264457 0
0.252652 -0.00899082 0
0.307117 -0.0444009 0
0.238764 0.0124191 0
0.28381 -0.00660321 0
0.104807 0.10942 0
0.288196 0.131497 0
0.164802 0.00767441 0
0.242516 -0.0218907 0
0.0734567 -0.000200618 0
0.0796657 -0.00468837 0
0.112219 -0.00385821 0
0.277516 -0.012573 0
0.344952 -0.143689 0
0.122315 -0.142359 0
0.138409 2.69433e-05 0
0.254923 -0.00712742 0
0.209403 0.0447367 0
0.0403348 0.0117446 0
0.197706 0.0169749 0
0.248496 0.00212551 0
0.114966 0.0383426 0
0.248133 -0.0333229 0
0.219915 -0.0312934 0
0.236102 0.0635113 0
0.0775505 0.00119724 0
0.223639 -0.0644804 0
0.294192 0.042064 0
0.322132 -0.108821 0
0.255735 -0.0481508 0
0.0456084 0.00153833 0
0.00722882 0.00116973 0
0.138284 0.000654074 0
0.0834897 -0.0083035 0
0.175676 0.00148974 0
0.0892585 0.00148106 0
0.225348 -0.0348628 0
0.206093 0.0469598 0
0.244327 -0.0664208 0
0.197378 0.182859 0
0.183928 0.00274551 0
0.254767 -0.0603808 0
0.200803 -0.0473627 0
0.226391 -0.0483646 0
0.24008 -0.0257827 0
0.296057 -0.0378743 0
0.250523 -0.0410428 0
0.0818787 -0.00349383 0
0.246321 0.0332757 0
0.243493 0.190229 0
0.264746 0.000775372 0
0.311649 0.0890387 0
0.149207 0.004102 0
0.0755223 0.00324039 0
0.122604 0.151066 0
0.277126 0.000745367 0
0.251513 -0.00769311 0
0.32779 -0.0372422 0
0.0559711 -0.00174092 0
0.233146 0.0493592 0
0.257561 0.00173656 0
0.0658711 0.000276101 0
0.169513 -0.171333 0
0.142215 0.00364932 0
0.342863 -0.0263845 0
0.220024 -0.187734 0
0.217402 -0.00882905 0
0.238371 -0.00164877 0
0.02866 -0.0106668 0
0.161558 0.00508969 0
0.304806 -0.0348753 0
0.263121 -0.00203947 0
-0.00339378 0.00428506 0
0.262393 0.052847 0
0.165934 -0.0230585 0
0.261305 -0.0313092 0
0.307296 -0.0356375 0
0.0401575 0.000394425 0
0.246119 0.0303329 0
0.118049 -0.00161291 0
0.0446737 -0.0648263 0
0.205756 0.0121426 0
0.334336 -0.155413 0
0.140243 0.160978 0
0.242664 0.00048014 0
0.0788852 -0.000411504 0
0.106285 -0.00271039 0
0.233201 0.0279481 0
0.248868 -0.0355273 0
0.0505459 0.00241529 0
0.110433 -0.0248728 0
0.255175 0.00220888 0
0.216063 0.0490733 0
0.350632 0.00892987 0
-0.00116488 -0.00274871 0
0.252375 -0.0180075 0
0.21802 0.0397795 0
0.0551277 0.00452383 0
0.282295 0.0296154 0
0.240709 0.0145622 0
0.258856 0.00781978 0
0.0422996 -0.00357264 0
0.0428166 0.00441768 0
0.115212 0.000107098 0
0.0690699 0.000504974 0
0.0628936 -0.0226882 0
0.268478 -0.0388668 0
0.29879 -0.0185539 0
0.0431375 0.000835883 0
0.269557 0.121722 0
0.25991 -0.0290263 0
0.11805 0.0739369 0
0.368485 0.0883837 0
0.341678 -0.026597 0
0.251938 0.00281855 0
0.0882656 -0.00139231 0
0.228425 -0.0283999 0
0.30047 0.0564372 0
0.292412 0.0671998 0
0.259899 0.0532998 0
0.272252 0.0654763 0
0.232863 0.0503484 0
0.234138 0.0249946 0
0.27884 -0.0479831 0
0.140686 -0.000688837 0
0.231665 0.0471658 0
0.220941 0.049542 0
0.107864 -0.0725172 0
0.015277 0.00701972 0
0.0214415 0.0446366 0
0.145198 0.00201511 0
0.274547 -0.0222589 0
0.266507 -0.0366703 0
0.245635 -0.0261556 0
0.0717107 0.000728798 0
0.261249 -0.00817835 0
0.270555 0.000533078 0
0.021656 -0.042646 0
0.245745 -0.0276887 0
0.0446074 0.00105101 0
0.27024 0.000596341 0
0.186219 -0.00146983 0
0.228502 -0.0304982 0
0.00148483 0.00465363 0
0.213317 -0.00991751 0
0.246324 -0.0162868 0
0.2574 0.000490015 0
0.196201 2.49093e-05 0
0.35427 -0.133132 0
0.258122 -0.0510165 0
0.275326 -0.156405 0
0.176541 0.00909941 0
0.170029 0.000660695 0
0.315056 -0.161729 0
0.255272 0.000949812 0
0.178359 -0.00691037 0
0.28996 -0.0317666 0
0.274654 0.000534366 0
0.217569 0.00358031 0
0.116528 -0.00434851 0
0.363695 -0.00924517 0
0.0111592 -0.00335328 0
0.345388 -0.0131016 0
0.20519 0.00621112 0
0.276819 0.000449389 0
0.371883 0.0364044 0
0.114207 0.0404514 0
0.303132 0.151178 0
0.27713 0.000488728 0
0.0612609 0.0180556 0
0.242399 -0.00808396 0
0.155248 0.004446 0
0.249935 -0.00907985 0
0.204419 0.0051068 0
0.254643 -0.0164248 0
0.21935 0.00450828 0
0.249512 0.0199051 0
0.18425 0.000842969 0
0.0512476 -0.00200621 0
0.0672921 0.000221341 0
0.31477 -0.0145431 0
0.0108966 -0.0168065 0
0.263852 -0.00141086 0
0.263811 0.000816496 0
0.32793 0.168337 0
0.235284 -0.0871002 0
0.274931 0.000544276 0
0.0730215 0.0414879 0
0.0100396 0.00246856 0
0.017046 0.0332685 0
0.239419 -0.0119266 0
0.0614687 0.000102485 0
0.335261 -0.00954259 0
0.284693 -0.0268504 0
0.277121 0.000392351 0
0.183794 0.0111213 0
0.268205 -0.00131803 0
0.0355754 -0.00138589 0
0.241429 0.00520186 0
0.24613 0.00546434 0
0.264354 0.000570039 0
0.264146 0.000485743 0
0.125013 0.00157332 0
0.270951 0.000493327 0
0.258703 -0.0196817 0
0.0456253 -0.0041846 0
0.252248 0.000970047 0
0.0610161 -0.0472549 0
0.232476 0.00174678 0
0.0579564 -0.000701054 0
0.246645 0.00412464 0
0.168734 0.0385408 0
0.24913 -0.00745482 0
0.252488 -0.0136029 0
-0.0031804 -0.00406822 0
0.138973 -0.00269793 0
0.192891 -0.000380748 0
0.192121 -0.0487043 0
0.150833 0.00241282 0
0.195074 -0.022122 0
0.271173 0.000294219 0
0.11386 -0.000892274 0
0.0411014 -0.00235259 0
0.118878 -0.00170568 0
0.116581 -0.00294393 0
0.116619 0.00192028 0
0.108813 0.00225002 0
0.354607 -0.0120408 0
0.270713 0.000467747 0
0.240639 -0.00468837 0
0.110546 0.000192558 0
0.269283 -0.000977335 0
0.124759 0.000997198 0
0.221898 0.00174008 0
0.0557826 0.000191379 0
0.319821 -0.065359 0
0.0418806 0.000741361 0
0.2494 -0.00487816 0
0.0410036 0.0160534 0
0.237583 0.00262063 0
0.180881 0.000724215 0
0.274973 0.000378979 0
0.23991 0.0040552 0
0.124745 -0.00051445 0
0.330448 -0.0334993 0
0.173621 0.000550547 0
0.242428 -0.00761588 0
0.244686 0.00130978 0
0.118598 0.000872266 0
0.247001 0.00254674 0
0.265128 0.0004021 0
0.194 -0.00380616 0
0.271835 0.000666816 0
0.246452 0.00355373 0
0.375273 0.0612188 0
0.210601 -0.000258682 0
0.246973 0.00329462 0
0.264764 -0.00109665 0
0.24016 0.00377681 0
0.0584487 -0.000338495 0
0.240653 -6.8875e-06 0
0.264314 -0.000677046 0
0.258256 0.0461958 0
0.0349483 0.000316331 0
0.269857 -0.000662442 0
0.0572627 -0.000404997 0
0.058906 0.00151812 0
0.124653 -0.00385803 0
0.123927 -0.00139794 0
0.248792 -0.00788245 0
0.227919 0.000142096 0
0.213274 -0.0106238 0
0.245398 -0.0098713 0
0.246712 0.0627512 0
0.245049 0.00044279 0
0.0461139 -0.00111736 0
0.110881 -0.000216151 0
0.0407904 0.000533084 0
0.25874 -0.00108021 0
0.12589 0.00200957 0
0.274491 0.00084523 0
0.244979 0.000464746 0
0.0334758 -0.000261755 0
0.259087 0.000193521 0
0.266464 0.000664232 0
0.255456 -0.00605858 0
0.255274 0.000566968 0
0.0330011 -8.06106e-05 0
0.264388 -0.00290575 0
0.230852 -0.000101032 0
0.27678 0.000350659 0
0.230909 -0.0066783 0
0.258237 0.000383249 0
0.250301 -0.00394576 0
0.0559222 -9.22385e-05 0
0.262852 -0.000559251 0
0.25776 0.00026118 0
0.247334 0.000169762 0
0.272781 0.000102331 0
0.0345407 -0.000231753 0
0.24682 0.00221463 0
0.264316 -0.00129045 0
0.236028 0.000235516 0
0.254885 -0.0158112 0
0.134632 0.0021655 0
0.261773 -0.0037587 0
0.266045 0.000510798 0
0.0727862 0.0251059 0
0.0370901 0.00106033 0
0.252005 -0.0125143 0
0.031572 0.000129833 0
0.249806 -0.0097091 0
0.27713 0.000638664 0
0.277044 0.00064492 0
0.261329 -1.90379e-05 0
0.257223 0.000157859 0
0.275721 0.000572563 0
0.212014 0.0268905 0
0.232292 0.000247866 0
0.256111 0.000420679 0
0.122228 0.00118799 0
0.269115 -0.000533472 0
0.241379 -0.00686345 0
0.258308 0.000353954 0
0.263388 -0.0005272 0
0.274354 0.000640166 0
0.272528 9.94473e-05 0
0.249978 -0.00112972 0
0.126635 -0.000893949 0
0.172406 0.0229479 0
0.265261 -0.00101135 0
0.113335 -0.000724159 0
0.0329106 -2.69969e-05 0
0.241014 -0.00431151 0
0.0331616 -0.000132811 0
0.346611 0.0189218 0
0.171718 -0.000886051 0
0.237767 0.00243519 0
0.257653 -0.00156859 0
0.276539 0.000101616 0
0.27719 9.02089e-05 0
0.269671 -0.00053249 0