# vtk DataFile Version 3.0
Malha 2D com triângulos e temperatura
ASCII
DATASET UNSTRUCTURED_GRID

POINTS 1777 double
0 0 0
2.2 0 0
2.2 0.41 0
0 0.41 0
0.25 0.2 0
0.0297297 0 0
0.0594595 0 0
0.0891892 0 0
0.118919 0 0
0.148649 0 0
0.178378 0 0
0.208108 0 0
0.237838 0 0
0.267568 0 0
0.297297 0 0
0.327027 0 0
0.356757 0 0
0.386486 0 0
0.416216 0 0
0.445946 0 0
0.475676 0 0
0.505405 0 0
0.535135 0 0
0.564865 0 0
0.594595 0 0
0.624324 0 0
0.654054 0 0
0.683784 0 0
0.713514 0 0
0.743243 0 0
0.772973 0 0
0.802703 0 0
0.832432 0 0
0.862162 0 0
0.891892 0 0
0.921622 0 0
0.951351 0 0
0.981081 0 0
1.01081 0 0
1.04054 0 0
1.07027 0 0
1.1 0 0
1.12973 0 0
1.15946 0 0
1.18919 0 0
1.21892 0 0
1.24865 0 0
1.27838 0 0
1.30811 0 0
1.33784 0 0
1.36757 0 0
1.3973 0 0
1.42703 0 0
1.45676 0 0
1.48649 0 0
1.51622 0 0
1.54595 0 0
1.57568 0 0
1.60541 0 0
1.63514 0 0
1.66486 0 0
1.69459 0 0
1.72432 0 0
1.75405 0 0
1.78378 0 0
1.81351 0 0
1.84324 0 0
1.87297 0 0
1.9027 0 0
1.93243 0 0
1.96216 0 0
1.99189 0 0
2.02162 0 0
2.05135 0 0
2.08108 0 0
2.11081 0 0
2.14054 0 0
2.17027 0 0
2.2 0.0292857 0
2.2 0.0585714 0
2.2 0.0878571 0
2.2 0.117143 0
2.2 0.146429 0
2.2 0.175714 0
2.2 0.205 0
2.2 0.234286 0
2.2 0.263571 0
2.2 0.292857 0
2.2 0.322143 0
2.2 0.351429 0
2.2 0.380714 0
2.17027 0.41 0
2.14054 0.41 0
2.11081 0.41 0
2.08108 0.41 0
2.05135 0.41 0
2.02162 0.41 0
1.99189 0.41 0
1.96216 0.41 0
1.93243 0.41 0
1.9027 0.41 0
1.87297 0.41 0
1.84324 0.41 0
1.81351 0.41 0
1.78378 0.41 0
1.75405 0.41 0
1.72432 0.41 0
1.69459 0.41 0
1.66486 0.41 0
1.63514 0.41 0
1.60541 0.41 0
1.57568 0.41 0
1.54595 0.41 0
1.51622 0.41 0
1.48649 0.41 0
1.45676 0.41 0
1.42703 0.41 0
1.3973 0.41 0
1.36757 0.41 0
1.33784 0.41 0
1.30811 0.41 0
1.27838 0.41 0
1.24865 0.41 0
1.21892 0.41 0
1.18919 0.41 0
1.15946 0.41 0
1.12973 0.41 0
1.1 0.41 0
1.07027 0.41 0
1.04054 0.41 0
1.01081 0.41 0
0.981081 0.41 0
0.951351 0.41 0
0.921622 0.41 0
0.891892 0.41 0
0.862162 0.41 0
0.832432 0.41 0
0.802703 0.41 0
0.772973 0.41 0
0.743243 0.41 0
0.713514 0.41 0
0.683784 0.41 0
0.654054 0.41 0
0.624324 0.41 0
0.594595 0.41 0
0.564865 0.41 0
0.535135 0.41 0
0.505405 0.41 0
0.475676 0.41 0
0.445946 0.41 0
0.416216 0.41 0
0.386486 0.41 0
0.356757 0.41 0
0.327027 0.41 0
0.297297 0.41 0
0.267568 0.41 0
0.237838 0.41 0
0.208108 0.41 0
0.178378 0.41 0
0.148649 0.41 0
0.118919 0.41 0
0.0891892 0.41 0
0.0594595 0.41 0
0.0297297 0.41 0
0 0.380714 0
0 0.351429 0
0 0.322143 0
0 0.292857 0
0 0.263571 0
0 0.234286 0
0 0.205 0
0 0.175714 0
0 0.146429 0
0 0.117143 0
0 0.0878571 0
0 0.0585714 0
0 0.0292857 0
0.249554 0.206664 0
0.248223 0.21321 0
0.246032 0.219519 0
0.24302 0.225481 0
0.23924 0.230987 0
0.23476 0.235941 0
0.229659 0.240254 0
0.224029 0.243847 0
0.21797 0.246659 0
0.211591 0.248638 0
0.205005 0.249749 0
0.198329 0.249972 0
0.191684 0.249304 0
0.185186 0.247755 0
0.178953 0.245355 0
0.173096 0.242145 0
0.167719 0.238183 0
0.162917 0.233539 0
0.158778 0.228297 0
0.155374 0.222551 0
0.152767 0.216401 0
0.151002 0.209959 0
0.150112 0.20334 0
0.150112 0.19666 0
0.151002 0.190041 0
0.152767 0.183599 0
0.155374 0.177449 0
0.158778 0.171703 0
0.162917 0.166461 0
0.167719 0.161817 0
0.173096 0.157855 0
0.178953 0.154645 0
0.185186 0.152245 0
0.191684 0.150696 0
0.198329 0.150028 0
0.205005 0.150251 0
0.211591 0.151362 0
0.21797 0.153341 0
0.224029 0.156153 0
0.229659 0.159746 0
0.23476 0.164059 0
0.23924 0.169013 0
0.24302 0.174519 0
0.246032 0.180481 0
0.248223 0.18679 0
0.249554 0.193336 0
0.255574 0.203679 0
0.252738 0.181785 0
0.460003 0.383807 0
0.249896 0.225202 0
0.431099 0.0237466 0
0.241058 0.162896 0
0.54971 0.0257464 0
1.02609 0.385158 0
1.17433 0.0257466 0
0.817568 0.384253 0
1.38243 0.0257466 0
1.58969 0.0252557 0
1.88787 0.0244307 0
1.73874 0.0220086 0
0.668263 0.387736 0
0.161368 0.239955 0
1.97653 0.383822 0
1.47082 0.384717 0
0.937484 0.0250546 0
1.26351 0.384253 0
0.236421 0.242977 0
0.160587 0.159637 0
0.755883 0.028886 0
1.65 0.384253 0
1.79971 0.384538 0
1.05403 0.0250188 0
1.14325 0.381322 0
2.00698 0.0273545 0
0.369165 0.385669 0
0.180133 0.252235 0
2.17498 0.221643 0
0.216749 0.253288 0
0.223287 0.149332 0
0.148745 0.221734 0
0.148958 0.178355 0
0.555071 0.387669 0
0.179991 0.148047 0
0.6387 0.0238257 0
1.29324 0.0257471 0
0.906787 0.384923 0
1.50135 0.0255777 0
1.88838 0.381156 0
1.56087 0.386387 0
0.851305 0.0275789 0
1.35113 0.380293 0
0.144177 0.200061 0
0.201075 0.142533 0
0.342085 0.0243487 0
0.0253622 0.3075 0
2.17355 0.13339 0
2.06624 0.384266 0
0.194586 0.255738 0
0.0233141 0.105502 0
0.28174 0.383244 0
0.134676 0.385875 0
0.13504 0.0223147 0
0.251335 0.0249595 0
0.191213 0.385618 0
0.0265235 0.161223 0
0.0251716 0.21809 0
0.195684 0.0243706 0
2.17106 0.309047 0
2.09595 0.0257467 0
0.60946 0.383326 0
0.490104 0.0252661 0
0.699312 0.0273901 0
1.94673 0.0240633 0
0.758108 0.384253 0
1.65297 0.0265695 0
1.82554 0.0269732 0
1.23378 0.0257467 0
1.20405 0.384253 0
0.962639 0.384388 0
0.995951 0.0257473 0
1.44189 0.0257476 0
1.70976 0.384108 0
1.11561 0.0253103 0
1.41216 0.38459 0
1.0846 0.384562 0
0.076584 0.0279689 0
0.0707485 0.380628 0
2.17692 0.0744956 0
2.12539 0.384424 0
0.0301829 0.0451136 0
0.0253892 0.362975 0
2.17313 0.363183 0
2.15525 0.0246548 0
0.255643 0.196183 0
0.262186 0.199703 0
0.262052 0.207791 0
0.269348 0.203666 0
0.268881 0.212825 0
0.277435 0.207882 0
0.27697 0.218189 0
0.286594 0.21258 0
0.285984 0.201745 0
0.29634 0.206658 0
0.286644 0.22335 0
0.295261 0.194431 0
0.306698 0.200133 0
0.305673 0.187361 0
0.317722 0.192557 0
0.318438 0.206672 0
0.330636 0.198464 0
0.331187 0.213853 0
0.344677 0.205704 0
0.343629 0.18899 0
0.359077 0.196587 0
0.359796 0.213987 0
0.375105 0.204871 0
0.376285 0.223498 0
0.392969 0.213244 0
0.357727 0.178857 0
0.393375 0.233788 0
0.410895 0.222322 0
0.410322 0.201585 0
0.429527 0.211038 0
0.428709 0.189227 0
0.449101 0.199711 0
0.444844 0.223277 0
0.468852 0.216271 0
0.375794 0.244285 0
0.468956 0.187297 0
0.490723 0.199346 0
0.492637 0.223613 0
0.513842 0.209717 0
0.394274 0.25413 0
0.512654 0.185603 0
0.535758 0.195857 0
0.536577 0.221909 0
0.559239 0.208494 0
0.558341 0.181441 0
0.582348 0.194035 0
0.583054 0.221638 0
0.606664 0.207046 0
0.607286 0.234757 0
0.631231 0.220248 0
0.63034 0.192331 0
0.655194 0.205679 0
0.656079 0.233608 0
0.680258 0.218898 0
0.67935 0.191118 0
0.704527 0.20434 0
0.706018 0.232162 0
0.730115 0.217489 0
0.729707 0.1897 0
0.754858 0.202972 0
0.756381 0.230686 0
0.780039 0.216375 0
0.780295 0.18836 0
0.804833 0.201181 0
0.806762 0.229255 0
0.830523 0.215054 0
0.830532 0.186604 0
0.855857 0.200239 0
0.857218 0.228223 0
0.881754 0.213202 0
0.881871 0.185515 0
0.906327 0.198306 0
0.908566 0.226299 0
0.932225 0.212305 0
0.931802 0.183957 0
0.957224 0.197415 0
0.958155 0.226357 0
0.983292 0.211004 0
0.982426 0.182553 0
1.00828 0.196026 0
1.00922 0.225127 0
1.03445 0.209647 0
0.37523 0.265887 0
1.03369 0.179965 0
1.05972 0.194061 0
1.0605 0.223674 0
1.08576 0.208158 0
1.08496 0.178532 0
1.11102 0.192636 0
1.11183 0.222277 0
1.1371 0.206757 0
1.1379 0.23641 0
1.16319 0.220885 0
1.16238 0.191237 0
1.18848 0.205361 0
1.18929 0.235022 0
1.21458 0.219488 0
1.21377 0.189838 0
1.23988 0.203963 0
1.2407 0.23363 0
1.266 0.218091 0
1.26519 0.188439 0
1.2913 0.202565 0
1.29212 0.232228 0
1.31743 0.216692 0
1.31662 0.18704 0
1.34274 0.201166 0
1.34354 0.230848 0
1.36887 0.215296 0
1.36806 0.185642 0
1.39418 0.199767 0
1.39499 0.229451 0
1.42032 0.213896 0
1.4195 0.184244 0
1.44563 0.198367 0
1.44645 0.228052 0
1.47178 0.212496 0
1.47096 0.182846 0
1.49709 0.196967 0
1.49791 0.226652 0
1.52324 0.211095 0
1.52242 0.181448 0
1.54855 0.195567 0
1.54937 0.225252 0
1.5747 0.209694 0
1.57393 0.180049 0
1.60005 0.194166 0
1.60084 0.223851 0
1.62618 0.208292 0
1.62538 0.178598 0
1.65151 0.192732 0
1.65231 0.222441 0
1.67764 0.206883 0
1.67683 0.177167 0
1.70297 0.191323 0
1.70378 0.22104 0
1.72911 0.20548 0
1.72992 0.235198 0
1.75525 0.219638 0
1.75444 0.18992 0
1.78059 0.204077 0
1.7814 0.233797 0
1.80673 0.218235 0
1.80592 0.188517 0
1.83206 0.202678 0
1.83289 0.232333 0
1.85821 0.216789 0
1.85738 0.187113 0
1.8835 0.20127 0
1.88433 0.230926 0
1.9096 0.215401 0
1.9088 0.18577 0
1.93487 0.199882 0
1.93568 0.229497 0
1.96093 0.21398 0
1.96011 0.184392 0
1.98616 0.198494 0
1.98697 0.22807 0
2.01218 0.212579 0
2.01137 0.183012 0
0.395013 0.275933 0
2.013 0.242157 0
0.293845 0.18174 0
0.304239 0.174244 0
0.292601 0.168738 0
0.303349 0.160644 0
0.29105 0.154895 0
0.302598 0.146389 0
0.288598 0.139868 0
0.301632 0.130968 0
0.286439 0.124081 0
2.0374 0.197128 0
2.03657 0.167534 0
0.300561 0.114437 0
0.316259 0.122043 0
0.581278 0.166607 0
1.70216 0.161607 0
1.70459 0.250757 0
1.73073 0.264915 0
1.11022 0.163 0
1.11261 0.251931 0
1.08413 0.148889 0
1.98778 0.257658 0
2.01055 0.153446 0
0.375474 0.287373 0
0.356398 0.277065 0
0.356543 0.298136 0
0.339223 0.288016 0
1.67605 0.147449 0
0.394981 0.298839 0
0.415381 0.286457 0
0.583416 0.249125 0
0.608001 0.262739 0
1.1387 0.266074 0
0.285067 0.107592 0
0.270988 0.117331 0
0.557946 0.153957 0
0.580325 0.138903 0
2.03578 0.137944 0
2.01382 0.271739 0
2.03904 0.256255 0
2.06263 0.181698 0
0.338437 0.308507 0
0.32291 0.298454 0
0.583747 0.277276 0
0.269202 0.101005 0
0.254162 0.112884 0
0.281967 0.0889204 0
0.315333 0.103792 0
0.332625 0.112396 0
0.276373 0.229163 0
0.286268 0.235014 0
0.275717 0.240886 0
0.286307 0.247064 0
0.275031 0.253226 0
1.1094 0.133348 0
0.253611 0.0947299 0
0.240543 0.104513 0
0.555943 0.126096 0
1.70136 0.13189 0
1.7054 0.280474 0
0.238631 0.0880636 0
0.225277 0.0972438 0
1.73154 0.294632 0
0.579193 0.109947 0
0.60402 0.12373 0
1.1134 0.2816 0
2.00973 0.123853 0
2.03986 0.285814 0
2.06505 0.270339 0
0.29636 0.241539 0
0.60865 0.291034 0
2.03539 0.107586 0
2.06108 0.122321 0
1.98859 0.287261 0
0.277301 0.149107 0
0.415326 0.311008 0
0.436394 0.298077 0
1.0833 0.119227 0
0.286306 0.259812 0
0.274781 0.265855 0
0.320873 0.318815 0
0.30283 0.307655 0
0.314553 0.153878 0
1.67525 0.117732 0
1.1395 0.29575 0
0.263717 0.259156 0
0.263377 0.271775 0
[...]
CELL_DATA 3331
SCALARS pressure double 1
LOOKUP_TABLE default
0
0.038641
0.041202
0.00517116
0.0105715
0.0836847
0.0179447
0.0705878
0.038369
0.083844
0.000278943
0.0295999
0.0296168
0.0282159
0.000660541
0.0604212
0.0431031
0.0841969
0.043478
0.0430209
0.0176222
0.0389031
0.083141
0.0441339
0.0370351
0.001357
0.0812247
0.0779363
0.0804858
0.0122488
0.0644664
0.015794
0.125303
0.000307034
0.111961
0.0430285
0.0285892
0.0692109
0.00394866
0.0213694
0.0778128
0.0573413
0.0763519
0.00461797
0.0765684
0.136568
0.0300224
0.016972
0.0277779
0.127838
0.0742416
0.00587946
0.013028
0.0421188
0.0201246
0.0296833
0.0931946
0.0269887
0.0325199
0.123131
0.108964
0.0333926
0.0589166
0.0866403
0.0625708
0.0164022
0.027329
0.0890855
0.0207383
0.120486
0.0202342
0.0472269
0.0676639
0.0270709
0.0245056
0.04249
0.0661213
0.0413207
0.0926963
0.0284419
0.011507
0.0724641
0.0239428
0.00265941
0.0316586
0.0390611
0.029651
0.119809
0.0625591
0.0612414
0.0669514
0.0359876
0.0200638
0.0198738
0.0822466
0.0947441
0.0422055
0.00349555
0.040332
0.0418342
0.0230197
0.0862998
0.0931984
0.0580672
0.052495
0.0331066
0.027966
0.0576593
0.0251674
0.0669729
0.0842269
0.0520907
0.138602
0.0018893
0.0406468
0.0257643
0.0101418
0.119069
0.0218646
-0.000258968
0.0415327
0.0448483
0.0721169
0.122108
0.0104897
0.0717375
0.00258033
0.0896278
0.0808343
0.0266787
0.0351151
0.0422105
0.0389502
0.0151867
0.069561
0.0428822
0.0198863
0.0269907
0.0761707
0.0385173
0.0867581
0.0267037
0.0880996
0.018403
0.033041
0.0297073
0.0808452
0.043979
0.0507183
0.0251904
0.0422029
0.0247683
0.0374585
0.130388
0.041664
0.0290076
0.0152674
0.0416971
0.0425787
0.023493
0.0466412
0.131236
0.0215804
0.0219435
0.0418894
0.0364728
0.0415388
0.0463712
0.0433104
0.0481363
0.0294917
0.0280098
0.00938609
0.0823306
0.0635507
0.1141
0.036934
0.00543696
0.0934218
0.0427438
0.0191993
0.00733986
0.0307708
0.0979538
0.0737253
0.03142
0.00366052
0.0346618
0.0192949
0.0429646
0.0567331
0.0756339
0.0994711
0.0828269
0.0428347
0.012015
0.115011
0.0506299
0.0688039
0.0273558
0.0944955
0.0229612
0.0389254
0.025453
0.0652612
0.00390076
0.0188585
0.0691614
0.113394
0.0859563
0.135238
0.0280095
0.0434421
0.0373837
0.030379
0.0776831
0.0454921
0.0187968
0.0291677
0.0211316
0.0298964
0.00989581
0.0438182
0.00710135
0.0263555
0.12118
0.0768431
0.0312022
0.0326571
0.057855
0.014359
0.0784088
0.0130127
0.126464
0.023973
0.0374155
0.0737788
0.0566998
0.0280105
0.0421256
0.0436157
0.000778874
0.0206562
0.0172692
0.0416762
0.0409476
0.00990371
0.0406387
0.0198753
0.0418559
0.0274105
0.0332111
0.0301658
0.00437142
0.13275
0.0777718
0.0223336
0.0176255
0.0201788
0.0398365
0.0315447
0.0423813
0.0668608
0.0577284
0.0358101
0.0426329
0.0393622
0.0234199
0.0287129
0.0353077
0.0697032
0.0791151
0.0443503
0.0738934
0.0270301
0.0324536
0.0419267
0.0227726
0.033471
0.0559771
0.0252656
0.099022
0.0316615
0.0324541
0.0224197
0.0641658
0.0823894
0.0325148
0.016438
0.0470044
0.0314343
0.0334505
0.104937
0.0312923
0.0447481
0.000740884
0.0545114
0.030238
0.00917463
0.0266534
0.0297766
0.0526342
0.0428843
0.0638988
0.0255628
0.113684
0.100588
0.0314645
0.0900663
0.0248718
0.0581399
0.112905
0.00218875
0.0371368
0.0356577
0.0767452
0.1169
0.000859791
0.0772068
0.0258091
0.0845843
0.0215753
0.0233705
0.0366255
0.0217217
0.0732157
0.0716887
0.039672
0.0717286
0.0825691
0.0220939
0.042792
0.138745
0.0741391
0.0239954
0.0330283
0.0278787
0.0121994
0.0405803
0.0585906
0.0892862
0.113078
0.0885101
0.1001
0.0438681
0.0607555
0.038863
0.0981978
0.0275817
0.0979388
0.0814915
0.117903
0.0422626
0.0784688
0.0565997
0.0281928
0.000259884
0.0129766
0.0392103
0.0153299
0.0973433
0.02948
0.0326029
0.00265479
0.106475
0.0263736
0.0239619
0.0367909
0.0189235
0.0047628
0.0304826
0.135597
0.0597808
0.00369816
0.00460153
0.039761
0.0279067
0.112209
0.0465237
0.0102038
0.0420896
0.0268781
0.00687251
0.00136715
0.0270873
0.0154396
0.0679728
0.0205389
0.0274053
0.0401536
0.0205733
0.0924918
0.0113029
0.032523
0.103899
0.0968415
0.0315852
0.0749467
0.0362466
0.0694814
0.0308251
0.0572592
0.0810472
0.0807022
0.0387097
0.0991056
0.0106001
0.0265124
0.00111063
0.052484
0.00261503
0.0394863
0.132175
0.0794297
0.0468782
0.000148423
0.025845
0.0787213
0.11887
0.0329402
0.0300021
0.0192069
0.0385148
0.07366
0.00450514
0.0700126
0.00950467
0.0898606
0.0415676
0.0201463
0.086036
0.0313896
0.0516539
0.0807555
0.000262761
0.0169149
0.021005
0.00725962
0.000683014
0.0367058
0.0236606
0.0306143
0.0568359
0.0190524
0.0389629
0.0977954
0.0589373
0.0933152
0.0311313
0.029534
0.0308456
0.0282084
0.118632
0.0665702
0.0401849
0.0380569
0.0403603
0.0343492
0.0981983
0.0768883
0.00769537
0.0618641
0.0537915
0.0298269
0.0442141
0.0513702
0.0102103
0.0475755
0.0261024
0.0789316
0.0480247
0.0963912
0.00850325
0.0380561
0.000697339
0.0315661
0.0214295
0.0221476
0.110146
0.0652905
0.0348912
0.0747831
0.0390474
0.0400924
0.0753239
0.035638
0.0386001
0.0879599
0.08607
0.0503058
0.0220927
0.00369169
0.0419301
0.083411
0.0749309
0.0765165
0.100705
0.0244612
0.121109
0.0430732
0.033173
0.0364693
0.0442632
0.0424497
0.0123431
0.0435168
0.0876667
0.0826176
0.0357451
0.105878
0.034004
0.042623
0.0186353
0.0709409
0.0576147
0.00651055
0.0394138
0.0407993
0.0236056
0.0408623
0.0573076
0.012444
0.0259005
0.0430527
0.0862492
0.0987765
0.041779
0.0289863
0.0367695
0.0407764
0.0294911
0.0351543
0.0409522
0.0404351
0.0249562
0.0364803
0.000514073
0.0147492
0.0407223
0.0298914
0.0180469
0.031326
0.0344362
0.0465202
0.0599221
0.021354
0.0480806
0.0427096
0.0988343
0.0479737
0.0267784
0.0354432
0.0369785
0.0924783
0.032806
0.0252437
0.024414
0.0417543
0.0707531
0.0363676
0.0401226
0.0359827
0.0379645
0.0394351
0.100401
0.12747
0.0794989
0.0409636
0.0405476
0.0355725
0.0732081
0.0127694
0.101427
0.0560831
0.119604
0.0369726
0.0343713
0.0426191
0.0279459
0.0185743
0.0352759
0.0380516
0.0426732
0.11474
0.107283
0.0399111
0.110981
0.0337478
0.0656352
0.0398545
0.0402018
0.0299633
0.0290505
0.0791776
0.000973443
0.0541899
0.0426697
0.0409591
0.0866403
0.0922694
0.0282953
0.0939863
0.0374652
0.0384024
0.0893427
0.042591
0.0426365
0.046288
0.042469
0.0704677
0.0276871
0.0248347
0.039681
0.0340837
0.102871
0.00076995
0.0356692
0.0376302
0.0400972
0.041034
0.0308784
0.0372346
0.104514
0.0391342
0.0385522
0.0891646
0.0404063
0.0266018
0.00905183
0.0390314
0.0429546
0.0274483
0.0283952
0.0375747
0.0755041
0.0417144
0.0413555
0.0377303
0.0426847
0.0124756
0.135038
0.0830461
0.0569119
0.107291
0.00143107
0.0425839
0.0413805
0.0425596
0.0422897
0.0406604
0.0161294
0.0323459
0.0761265
0.027696
0.028511
0.0398367
0.113289
0.077789
0.018668
0.0395692
0.0483551
0.0822838
0.0787417
0.00607016
0.0385078
0.0343387
0.0417266
0.042575
0.0394691
0.0876939
0.0425447
0.0453111
0.0490978
0.0393511
0.0338692
0.0405313
0.0431614
0.0204961
0.0189579
0.0391386
0.0686564
0.0367717
0.0425237
0.0405585
0.0267322
0.0422415
0.079879
0.0507258
0.0150261
0.14182
0.0310469
0.095902
0.042821
0.0425056
0.0390097
0.049144
0.00174079
0.144285
0.0420299
0.0399112
0.0018652
0.0256209
0.042523
0.0242117
0.041564
0.0395651
0.000547315
0.00292468
0.0500562
0.0983454
0.0843578
0.0402335
0.0169799
0.0686708
0.00177517
0.0850308
0.0407674
0.00245282
0.0369966
0.0296366
0.0384027
0.0116369
0.0420688
0.0383908
0.00302227
0.0334056
0.0177112
0.0423817
0.00284972
0.0145953
0.0349035
0.0386816
0.0358478
0.117159
0.0386792
0.0366591
0.0408824
0.0208229
0.0401873
0.0379414
0.0263455
0.143615
0.0262396
0.00120794
0.0570905
0.10435
0.00229312
0.0377102
0.0150118
0.134975
0.0172423
0.0043668
0.0512647
0.0432699
0.00341553
0.0412992
0.0267059
0.00530538
0.0349176
0.035548
0.00236039
0.00246786
0.00921745
0.00291141
0.0404581
0.0803286
0.0262372
0.059336
0.0262564
0.0012351
0.0339885
0.0415572
0.0342582
0.0383331
0.0288134
0.0322273
0.0105669
0.0210089
0.0380805
0.0207932
0.00338241
0.00488257
0.0383869
0.0273676
0.0831372
0.0798073
0.00678106
0.0416427
0.00305231
0.0306048
0.00162631
0.0255049
0.00137447
0.0268873
0.00155445
0.0615822
0.0389679
0.0312152
0.0301871
0.030364
0.00102616
0.00297606
0.0333491
0.00198277
0.0369057
0.00146724
0.0350043
0.0266816
0.00318191
0.0309523
0.00353492
0.0316392
0.00120581
0.0326473
0.0406814
0.00842095
0.0324323
0.0250749
0.0332855
0.0047749
0.00861448
0.0145128
0.0417267
0.000780308
0.0140688
0.00384087
0.00174659
0.0324395
0.0316757
0.0343227
0.00811413
0.0443662
0.0363612
0.082306
0.00240401
0.0371649
0.00229676
0.038398
0.0244542
0.0316411
0.00112512
0.00246088
0.00345931
0.000737776
0.00160127
0.034051
0.00190035
0.0011513
0.0295759
0.00184769
0.00358774
0.0340374
0.00214783
0.0298241
0.00228637
0.0186509
0.00226823
0.00279107
0.00754984
0.00430962
0.0295466
0.0261064
0.002084
0.0395601
0.0280456
0.0310066
0.00173135
0.0313036
0.00254687
0.0373913
0.00136321
0.0358419
0.00124855
0.00170321
0.00863362
0.00337154
0.00159661
0.0430082
0.00308436
0.00305242
0.0287293
0.0190806
0.0334649
0.00101078
0.0174901
0.00132048
0.00770374
0.0249512
0.0044925
0.0736972
0.0249112
0.00385031
0.00193441
0.0305406
0.00266019
0.0424948
0.00286566
0.0303209
0.0266735
0.00691654
0.00751181
0.017937
0.0261441
0.00346442
0.00188009
0.00361942
0.0261467
0.0271549
0.00458928
0.00634949
0.0318854
0.0315694
0.0255475
0.00575234
0.00353866
0.00402431
0.00829923
0.034047
0.0163471
0.012383
0.00518939
0.00816412
0.00397482
0.0256166
0.0284856
0.00398968
0.00708321
0.0256147
0.0167899
0.00296138
0.006947
0.00872811
0.0255697
0.00807708
0.0348365
0.00115719
0.00281349
0.0265862
0.00711131
0.00768079
0.00651779
0.00281343
0.0297654
0.0151977
0.0319673
0.0419298
0.0256442
0.025628
0.00475656
0.00592034
0.00304391
0.0156424
0.00419194
0.00535614
0.0299731
0.00180352
0.00292084
0.0296988
0.0232627
0.0185297
0.0291453
0.0264817
0.062169
0.00424221
0.0243427
0.0223272
0.00827367
0.00703809
0.0236599
0.0279682
0.0289484
0.0140323
0.03632
0.00415084
0.0254288
0.0324908
0.0077086
0.0271775
0.0173778
0.0250811
0.0144812
0.00579034
0.00222736
0.0313318
0.0285734
0.00887825
0.00304872
0.0128499
0.0231441
0.0364454
0.0162941
0.00594988
0.00783221
0.0243999
0.025028
0.0241251
0.00186016
0.0248568
0.00328438
0.00831859
0.0157682
0.00864209
0.017414
0.0206478
0.00944221
0.0213994
0.0282633
0.0169026
0.0133099
0.0218572
0.0194758
0.00878928
0.00349287
0.0195574
0.0225027
0.0162437
0.0360427
0.02103
0.00534407
0.00923039
0.014608
0.0195794
0.00724854
0.00362516
0.00961475
0.0151273
0.00928012
0.00893425
0.0150779
0.0124377
0.0325423
0.0250163
0.0220219
0.0209882
0.0197269
0.00997232
0.0160632
0.0199987
0.00815996
0.0197413
0.0205385
0.0191285
0.0402906
0.029617
0.0121262
0.0237404
0.00857416
0.0092003
0.0191606
0.00993815
0.0163233
0.018478
0.0193155
0.0100731
0.0243397
0.0167886
0.0180435
0.0185854
0.0116588
0.0185939
0.0157604
0.0209893
0.0139048
0.0186497
0.0115303
0.00932883
0.0311341
0.0217656
0.0221576
0.0225245
0.0193617
0.0171811
0.00818428
0.0268169
0.00911579
0.0110226
0.00980468
0.00478975
0.0277981
0.0180796
0.0151822
0.0174678
0.00821291
0.0084952
0.00959319
0.0214273
0.0179476
0.00862773
0.017127
0.022099
0.00737511
0.022139
0.0183665
0.0209076
0.0127176
0.0168787
0.00947522
0.0183351
0.0122218
0.0168904
0.0203769
0.0207063
0.00787036
0.0103549
0.00949161
0.0127303
0.0206389
0.0163904
0.0157999
0.00979245
0.0157243
0.00951212
0.0145072
0.0139443
0.013997
0.0148115
0.0187765
0.0184638
0.0195769
0.0167171
0.0328163
0.0202083
0.00864648
0.0115892
0.0180766
0.0156752
0.0201805
0.0174977
0.013365
0.00894021
0.0274404
0.0168353
0.00988852
0.0139405
0.017423
0.0133276
0.0284386
0.0134226
0.0185156
0.0115204
0.0144402
0.0121726
0.0121509
0.017437
0.0145832
0.0150754
0.0208047
0.010351
0.0101355
0.0186643
0.0146911
0.0150121
0.0103261
0.0112693
0.0156444
0.0156087
0.0159533
0.0163728
0.0115157
0.0192295
0.00728115
0.016257
0.0180309
0.0226424
0.0127953
0.0163352
0.0109368
0.0145452
0.0141543
0.0137403
0.010633
0.0127134
0.011814
0.0120615
0.0118062
0.0143096
0.0173756
0.0179792
0.0110967
0.00872348
0.0190705
0.0113197
0.0135502
0.0168127
0.0231934
0.0151259
0.0141784
0.0121074
0.0132397
0.0199148
0.0136533
0.0263199
0.0326133
0.0320031
0.0100778
0.0173606
0.00702998
0.0260458
0.0270264
0.0293109
0.0263723
0.0183937
0.00549972
0.0184675
0.0273192
0.012517
0.0228341
0.0253093
0.0274679
0.0258713
0.0263955
0.0214018
0.0357312
0.0170587
0.0249602
0.0242234
0.0254358
0.0240091
0.00867605
0.0242076
0.0125031
0.0244842
0.0243239
0.0167784
0.0108947
0.0112205
0.0334346
0.0249527
0.0314318
0.0250685
0.0153866
0.0254796
0.00459409
0.0343589
0.00520376
0.0124464
0.0118158
0.0143664
0.0159913
0.0178173
0.023769
0.0232726
0.0310711
0.00932506
0.0104346
0.01907
0.0224744
0.0231875
0.0289775
0.0268661
0.0165405
0.0181921
0.0315132
0.0211237
0.026399
0.0229945
0.0181774
0.0132743
0.00684773
0.00802877
0.00772522
0.0071486
0.0100498
0.0145592
0.0106408
0.0145781
0.0127106
0.0113385
0.0198007
0.0125731
0.0082788
0.0163681
0.00824122
0.0189866
0.0214987
0.00884149
0.00867565
0.0167665
0.0148889
0.010944
0.0225713
0.0104122
0.00923379
0.01332
0.00999861
0.009394
0.010905
0.00999887
0.00983093
0.0105789
0.0139143
0.00972078
0.0106281
0.0179869
0.0105157
0.0104798
0.0107453
0.0164731
0.0135033
0.0146253
0.0116481
0.0190387
0.0111512
0.0103628
0.0102924
0.0140572
0.0103846
0.0117146
0.0135016
0.00985726
0.0118697
0.0281276
0.0123275
0.0105886
0.0190453
0.0112127
0.0134604
0.0115827
0.0111605
0.0112158
0.0105506
0.0112
0.0171959
0.0139678
0.011764
0.0109856
0.0115914
0.0117927
0.0151968
0.0172992
0.0161204
0.0122686
0.0129233
0.0127562
0.0134879
0.0111023
0.0139245
0.010631
0.0202553
0.0157795
0.0121541
0.0121981
0.01236
0.0178158
0.0104324
0.014664
0.0110377
0.0117197
0.0133206
0.00954896
0.0106016
0.0135081
0.0140682
0.0214242
0.0178625
0.0140487
0.0115495
0.0143623
0.0132339
0.0186904
0.0139065
0.0154846
0.0185493
0.0160352
0.0150199
0.0133547
0.00944478
0.0122825
0.00975157
0.00811464
0.014607
0.0144721
0.00891468
0.0235977
0.0149762
0.00693663
0.0238256
0.0202691
0.0199667
0.0146358
0.0152039
0.0157787
0.00907439
0.0101904
0.00219491
0.0064878
0.0194128
0.0150387
0.0145699
0.0208193
0.009831
0.015686
0.00935137
0.0169253
0.0193005
0.0100619
0.0163436
0.0250281
0.00909453
0.00975504
0.0092699
0.0154346
0.0127266
0.0156143
0.0167443
0.0161748
0.0100397
0.0214593
0.0101171
0.0179916
0.00979475
0.0087316
0.026056
0.0104935
0.0169245
0.0167583
0.01749
0.0138955
0.016691
0.0128923
0.0180723
0.0206902
0.0191328
0.022096
0.00879627
0.00919777
0.0173222
0.00648276
0.0186374
0.0179051
0.0184701
0.0178662
0.023323
0.0257368
0.0140549
0.0150514
0.0200804
0.0189695
0.0197895
0.019052
0.0227181
0.023089
0.0273024
0.0197512
0.020381
0.00537343
0.0192227
0.0196139
0.0152073
0.00698837
0.0203971
0.0220394
0.00889996
0.0202032
0.0162007
0.0209573
0.0199956
0.0213688
0.0227631
0.0207739
0.0197555
0.0075426
0.0323405
0.0226094
0.0212045
0.0215517
0.0163178
0.0221364
0.0342213
0.0213694
0.0174644
0.021375
0.0232193
0.022072
0.0227293
0.02551
0.017345
0.0219516
0.0163536
0.00502978
0.0234123
0.0318498
0.0225463
0.0233193
0.0215485
0.025117
0.023128
0.0226118
0.0151815
0.0227084
0.0238229
0.0186031
0.0237677
0.0243102
0.0231724
0.00760233
0.0226543
0.01849
0.0214213
0.0288652
0.0209271
0.0237626
0.0016116
0.0232643
0.0273033
0.0243126
0.00723406
0.00482214
0.00656823
0.0242452
0.0249066
0.0290671
0.0175021
0.00509229
0.0172074
0.00516413
0.0298996
0.0249295
0.00337181
0.00223832
0.0196424
0.0244364
0.0219898
0.00548243
0.0271814
0.0237194
0.0249692
0.00629066
0.0269049
0.00622702
0.0221144
0.0327018
0.0243858
0.0231429
0.0236995
0.00564787
0.0371977
0.0227615
0.0053174
0.00691683
0.00593203
0.025039
0.0238211
0.0224628
0.0296477
0.0186523
0.0238886
0.0233063
0.0245198
0.0247902
0.00459154
0.00409873
0.00651785
0.0221393
0.00477602
0.00641592
0.0238016
0.00600213
0.00465925
0.0256969
0.0237102
0.0243997
0.024286
0.00635664
0.0244803
0.0233138
0.0198062
0.0232809
0.00632233
0.0257449
0.0243119
0.00572019
0.00478902
0.0239145
0.00364968
0.0358216
0.0209676
0.0245041
0.0227013
0.00420684
0.026385
0.0245182
0.00587341
0.0057291
0.0245001
0.00363939
0.0225691
0.025203
0.0231428
0.0219665
0.00699696
0.0243433
0.0249191
0.0251329
0.0237349
0.0261434
0.00311339
0.0403435
0.0250979
0.00528381
0.0374347
0.00537209
0.0238868
0.0221268
0.0341501
0.00456712
0.019225
0.00580099
0.0243177
0.00518575
0.0280339
0.00508336
0.00144054
0.0237177
0.0239106
0.0270086
0.0215239
0.0257511
0.031799
0.020956
0.0267026
0.0255165
0.00464898
0.0267342
0.00488042
0.00573027
0.0283328
0.00454447
0.00423166
0.00408018
3.51405e-05
0.0275009
0.00241471
0.0255448
0.0213903
0.0219642
0.00513461
0.0203609
0.0283965
0.00235684
0.0280459
0.0047286
0.0225391
5.71119e-05
0.00417132
0.00748921
0.00430777
0.0273825
0.00523459
0.0207958
0.0233032
0.0306857
0.0277008
0.00330988
0.0303625
0.00278408
0.0378725
0.0268631
0.00700165
0.0371088
0.00280444
0.0280071
0.0406709
0.0341619
0.0207537
0.0225549
0.0213576
0.00515814
0.0282948
0.0237303
0.0316764
-2.36774e-05
-1.92093e-05
0.0310945
0.029285
0.0282141
0.0334125
0.0213567
0.0365708
0.0261126
0.0266952
0.0277218
0.0195795
0.0287015
0.0201701
0.0297446
0.0201801
0.0040668
0.0290748
0.00463075
0.00403329
0.0208271
0.0191922
0.0761403
0.0226911
0.0203846
0.00169889
0.0325611
0.00526381
-0.000110231
0.0293466
0.00514777
0.0296123
0.0305183
0.0311674
0.018454
0.00469309
0.00471052
0.0232607
0.0190359
0.00806182
0.0292373
0.0227199
0.0190394
0.0305795
0.00636538
0.0303068
0.0263421
0.017893
0.0173166
0.0300749
0.0312132
0.028974
0.00346652
0.0379826
0.0178931
0.0042228
0.0312681
0.0167391
0.0161436
0.0300314
0.0202354
0.0220828
0.00481391
-0.000644295
0.0167413
0.0075992
0.0156003
0.00764285
0.0128814
0.0215043
0.0123729
0.0150235
0.0307467
0.0231302
0.0307818
0.0324402
0.0215357
0.0273405
0.0304049
0.0295436
0.019794
0.0129764
0.000183212
0.0144799
0.00587598
0.0374654
0.0288394
0.00597715
0.0350136
0.0155949
0.0140618
0.031542
0.000719826
0.0310487
0.0410805
0.0320233
0.0122648
0.012345
0.0384761
0.0279608
0.0774195
0.0129739
0.00631018
0.0208881
0.0057241
0.0315015
0.0203096
0.0311567
0.0276273
0.0203559
0.00653678
0.020265
0.0363828
0.00813218
0.0349055
0.000411224
0.0885081
0.0334364
0.013506
0.0075118
0.00537808
0.0196728
0.00581518
0.019196
0.0203494
0.0335966
0.0191448
0.0219524
0.0343469
0.0299206
0.01968
0.042717
0.0375455
0.0390975
0.0185615
0.0322071
0.00583483
0.0324661
0.0180508
0.00652919
0.00631122
0.0180197
0.0324739
0.00529536
0.0660166
0.00539699
0.0198008
0.0327451
0.0174468
0.00819308
0.0329873
0.0421566
0.0168788
0.0333104
0.0169046
0.0239863
0.0207571
0.00721799
0.0075569
0.0162636
0.00819502
0.0337204
0.0157202
0.0353322
0.00810276
0.0157621
0.00753506
0.035766
0.00690048
0.00690216
0.0352839
0.0146083
0.0151368
0.034535
0.0195992
0.0335905
0.00759322
0.00640968
0.00586008
0.00589529
0.00704147
0.0133513
0.014632
0.0360352
0.0129451
0.0461616
0.0128016
0.013969
0.027882
0.028711
0.0425683
0.0378926
0.0117946
0.0133991
0.00748878
0.0372203
0.0360144
0.0136852
0.0184659
0.0129698
0.0395136
0.035709
0.00797378
0.0366405
0.0139373
0.0353049
0.00643171
0.0346697
0.00639396
0.0397219
0.0142499
0.0370318
0.00643505
0.0347062
0.0173107
0.034685
0.0410283
0.00712303
0.0338413
0.0278071
0.0342746
0.00708253
0.0431377
0.0161624
0.0371342
0.0410604
0.0355494
0.035505
0.0361461
0.0378016
0.0150351
0.0416963
0.023728
0.00659264
0.040203
0.00595886
0.0414252
0.0238535
0.040393
0.0369408
0.0135186
0.0380131
0.0361354
0.038718
0.0132492
0.0377961
0.0392956
0.0381219
0.00764749
0.0365642
0.0381572
0.0379019
0.0414576
0.0272641
0.00806089
0.0348939
0.0258033
0.0402829
0.0043835
0.0320339
0.0420126
0.0433784
0.0418313
0.0388872
0.0352673
0.03535
0.00225955
0.0370041
0.0296843
0.0172612
0.0191864
0.0367411
0.0383301
0.044322
0.0385433
0.00606763
0.0389426
0.0364132
0.0367541
0.0283173
0.0360759
0.036344
0.0402648
0.00245905
0.0323201
0.0229258
0.00704898
0.0270684
0.0280454
0.0428929
0.049155
0.0390679
0.0386438
0.0402261
0.0382688
0.0378419
0.0408136
0.0394382
0.0371989
0.0384349
0.138661
0.0222419
0.0394251
0.0576645
0.0368659
0.0388497
0.122742
0.0383579
0.0114521
0.0388824
0.0129011