# vtk DataFile Version 3.0
Malha 2D com triângulos: velocidade e pressão
ASCII
DATASET UNSTRUCTURED_GRID

POINTS 2500 double
0 0 0
1 0 0
1 1 0
0 1 0
0.0204082 0 0
0.0408163 0 0
0.0612245 0 0
0.0816327 0 0
0.102041 0 0
0.122449 0 0
0.142857 0 0
0.163265 0 0
0.183673 0 0
0.204082 0 0
0.22449 0 0
0.244898 0 0
0.265306 0 0
0.285714 0 0
0.306122 0 0
0.326531 0 0
0.346939 0 0
0.367347 0 0
0.387755 0 0
0.408163 0 0
0.428571 0 0
0.44898 0 0
0.469388 0 0
0.489796 0 0
0.510204 0 0
0.530612 0 0
0.55102 0 0
0.571429 0 0
0.591837 0 0
0.612245 0 0
0.632653 0 0
0.653061 0 0
0.673469 0 0
0.693878 0 0
0.714286 0 0
0.734694 0 0
0.755102 0 0
0.77551 0 0
0.795918 0 0
0.816327 0 0
0.836735 0 0
0.857143 0 0
0.877551 0 0
0.897959 0 0
0.918367 0 0
0.938776 0 0
0.959184 0 0
0.979592 0 0
1 0.0204082 0
1 0.0408163 0
1 0.0612245 0
1 0.0816327 0
1 0.102041 0
1 0.122449 0
1 0.142857 0
1 0.163265 0
1 0.183673 0
1 0.204082 0
1 0.22449 0
1 0.244898 0
1 0.265306 0
1 0.285714 0
1 0.306122 0
1 0.326531 0
1 0.346939 0
1 0.367347 0
1 0.387755 0
1 0.408163 0
1 0.428571 0
1 0.44898 0
1 0.469388 0
1 0.489796 0
1 0.510204 0
1 0.530612 0
1 0.55102 0
1 0.571429 0
1 0.591837 0
1 0.612245 0
1 0.632653 0
1 0.653061 0
1 0.673469 0
1 0.693878 0
1 0.714286 0
1 0.734694 0
1 0.755102 0
1 0.77551 0
1 0.795918 0
1 0.816327 0
1 0.836735 0
1 0.857143 0
1 0.877551 0
1 0.897959 0
1 0.918367 0
1 0.938776 0
1 0.959184 0
1 0.979592 0
0.979592 1 0
0.959184 1 0
0.938776 1 0
0.918367 1 0
0.897959 1 0
0.877551 1 0
0.857143 1 0
0.836735 1 0
0.816327 1 0
0.795918 1 0
0.77551 1 0
0.755102 1 0
0.734694 1 0
0.714286 1 0
0.693878 1 0
0.673469 1 0
0.653061 1 0
0.632653 1 0
0.612245 1 0
0.591837 1 0
0.571429 1 0
0.55102 1 0
0.530612 1 0
0.510204 1 0
0.489796 1 0
0.469388 1 0
0.44898 1 0
0.428571 1 0
0.408163 1 0
0.387755 1 0
0.367347 1 0
0.346939 1 0
0.326531 1 0
0.306122 1 0
0.285714 1 0
0.265306 1 0
0.244898 1 0
0.22449 1 0
0.204082 1 0
0.183673 1 0
0.163265 1 0
0.142857 1 0
0.122449 1 0
0.102041 1 0
0.0816327 1 0
0.0612245 1 0
0.0408163 1 0
0.0204082 1 0
0 0.979592 0
0 0.959184 0
0 0.938776 0
0 0.918367 0
0 0.897959 0
0 0.877551 0
0 0.857143 0
0 0.836735 0
0 0.816327 0
0 0.795918 0
0 0.77551 0
0 0.755102 0
0 0.734694 0
0 0.714286 0
0 0.693878 0
0 0.673469 0
0 0.653061 0
0 0.632653 0
0 0.612245 0
0 0.591837 0
0 0.571429 0
0 0.55102 0
0 0.530612 0
0 0.510204 0
0 0.489796 0
0 0.469388 0
0 0.44898 0
0 0.428571 0
0 0.408163 0
0 0.387755 0
0 0.367347 0
0 0.346939 0
0 0.326531 0
0 0.306122 0
0 0.285714 0
0 0.265306 0
0 0.244898 0
0 0.22449 0
0 0.204082 0
0 0.183673 0
0 0.163265 0
0 0.142857 0
0 0.122449 0
0 0.102041 0
0 0.0816327 0
0 0.0612245 0
0 0.0408163 0
0 0.0204082 0
0.0204082 0.979592 0
0.0204082 0.959184 0
0.0204082 0.938776 0
0.0204082 0.918367 0
0.0204082 0.897959 0
0.0204082 0.877551 0
0.0204082 0.857143 0
0.0204082 0.836735 0
0.0204082 0.816327 0
0.0204082 0.795918 0
0.0204082 0.77551 0
0.0204082 0.755102 0
0.0204082 0.734694 0
0.0204082 0.714286 0
0.0204082 0.693878 0
0.0204082 0.673469 0
0.0204082 0.653061 0
0.0204082 0.632653 0
0.0204082 0.612245 0
0.0204082 0.591837 0
0.0204082 0.571429 0
0.0204082 0.55102 0
0.0204082 0.530612 0
0.0204082 0.510204 0
0.0204082 0.489796 0
0.0204082 0.469388 0
0.0204082 0.44898 0
0.0204082 0.428571 0
0.0204082 0.408163 0
0.0204082 0.387755 0
0.0204082 0.367347 0
0.0204082 0.346939 0
0.0204082 0.326531 0
0.0204082 0.306122 0
0.0204082 0.285714 0
0.0204082 0.265306 0
0.0204082 0.244898 0
0.0204082 0.22449 0
0.0204082 0.204082 0
0.0204082 0.183673 0
0.0204082 0.163265 0
0.0204082 0.142857 0
0.0204082 0.122449 0
0.0204082 0.102041 0
0.0204082 0.0816327 0
0.0204082 0.0612245 0
0.0204082 0.0408163 0
0.0204082 0.0204082 0
0.0408163 0.979592 0
0.0408163 0.959184 0
0.0408163 0.938776 0
0.0408163 0.918367 0
0.0408163 0.897959 0
0.0408163 0.877551 0
0.0408163 0.857143 0
0.0408163 0.836735 0
0.0408163 0.816327 0
0.0408163 0.795918 0
0.0408163 0.77551 0
0.0408163 0.755102 0
0.0408163 0.734694 0
0.0408163 0.714286 0
0.0408163 0.693878 0
0.0408163 0.673469 0
0.0408163 0.653061 0
0.0408163 0.632653 0
0.0408163 0.612245 0
0.0408163 0.591837 0
0.0408163 0.571429 0
0.0408163 0.55102 0
0.0408163 0.530612 0
0.0408163 0.510204 0
0.0408163 0.489796 0
0.0408163 0.469388 0
0.0408163 0.44898 0
0.0408163 0.428571 0
0.0408163 0.408163 0
0.0408163 0.387755 0
0.0408163 0.367347 0
0.0408163 0.346939 0
0.0408163 0.326531 0
0.0408163 0.306122 0
0.0408163 0.285714 0
0.0408163 0.265306 0
0.0408163 0.244898 0
0.0408163 0.22449 0
0.0408163 0.204082 0
0.0408163 0.183673 0
0.0408163 0.163265 0
0.0408163 0.142857 0
0.0408163 0.122449 0
0.0408163 0.102041 0
0.0408163 0.0816327 0
0.0408163 0.0612245 0
0.0408163 0.0408163 0
0.0408163 0.0204082 0
0.0612245 0.979592 0
0.0612245 0.959184 0
0.0612245 0.938776 0
0.0612245 0.918367 0
0.0612245 0.897959 0
0.0612245 0.877551 0
0.0612245 0.857143 0
0.0612245 0.836735 0
0.0612245 0.816327 0
0.0612245 0.795918 0
0.0612245 0.77551 0
0.0612245 0.755102 0
0.0612245 0.734694 0
0.0612245 0.714286 0
0.0612245 0.693878 0
0.0612245 0.673469 0
0.0612245 0.653061 0
0.0612245 0.632653 0
0.0612245 0.612245 0
0.0612245 0.591837 0
0.0612245 0.571429 0
0.0612245 0.55102 0
0.0612245 0.530612 0
0.0612245 0.510204 0
0.0612245 0.489796 0
0.0612245 0.469388 0
0.0612245 0.44898 0
0.0612245 0.428571 0
0.0612245 0.408163 0
0.0612245 0.387755 0
0.0612245 0.367347 0
0.0612245 0.346939 0
0.0612245 0.326531 0
0.0612245 0.306122 0
0.0612245 0.285714 0
0.0612245 0.265306 0
0.0612245 0.244898 0
0.0612245 0.22449 0
0.0612245 0.204082 0
0.0612245 0.183673 0
0.0612245 0.163265 0
0.0612245 0.142857 0
0.0612245 0.122449 0
0.0612245 0.102041 0
0.0612245 0.0816327 0
0.0612245 0.0612245 0
0.0612245 0.0408163 0
0.0612245 0.0204082 0
0.0816327 0.979592 0
0.0816327 0.959184 0
0.0816327 0.938776 0
0.0816327 0.918367 0
0.0816327 0.897959 0
0.0816327 0.877551 0
0.0816327 0.857143 0
0.0816327 0.836735 0
0.0816327 0.816327 0
0.0816327 0.795918 0
0.0816327 0.77551 0
0.0816327 0.755102 0
0.0816327 0.734694 0
0.0816327 0.714286 0
0.0816327 0.693878 0
0.0816327 0.673469 0
0.0816327 0.653061 0
0.0816327 0.632653 0
0.0816327 0.612245 0
0.0816327 0.591837 0
0.0816327 0.571429 0
0.0816327 0.55102 0
0.0816327 0.530612 0
0.0816327 0.510204 0
0.0816327 0.489796 0
0.0816327 0.469388 0
0.0816327 0.44898 0
0.0816327 0.428571 0
0.0816327 0.408163 0
0.0816327 0.387755 0
0.0816327 0.367347 0
0.0816327 0.346939 0
0.0816327 0.326531 0
0.0816327 0.306122 0
0.0816327 0.285714 0
0.0816327 0.265306 0
0.0816327 0.244898 0
0.0816327 0.22449 0
0.0816327 0.204082 0
0.0816327 0.183673 0
0.0816327 0.163265 0
0.0816327 0.142857 0
0.0816327 0.122449 0
0.0816327 0.102041 0
0.0816327 0.0816327 0
0.0816327 0.0612245 0
0.0816327 0.0408163 0
0.0816327 0.0204082 0
0.102041 0.979592 0
0.102041 0.959184 0
0.102041 0.938776 0
0.102041 0.918367 0
0.102041 0.897959 0
0.102041 0.877551 0
0.102041 0.857143 0
0.102041 0.836735 0
0.102041 0.816327 0
0.102041 0.795918 0
0.102041 0.77551 0
0.102041 0.755102 0
0.102041 0.734694 0
0.102041 0.714286 0
0.102041 0.693878 0
0.102041 0.673469 0
0.102041 0.653061 0
0.102041 0.632653 0
0.102041 0.612245 0
0.102041 0.591837 0
0.102041 0.571429 0
0.102041 0.55102 0
0.102041 0.530612 0
0.102041 0.510204 0
0.102041 0.489796 0
0.102041 0.469388 0
0.102041 0.44898 0
0.102041 0.428571 0
0.102041 0.408163 0
0.102041 0.387755 0
0.102041 0.367347 0
0.102041 0.346939 0
0.102041 0.326531 0
0.102041 0.306122 0
0.102041 0.285714 0
0.102041 0.265306 0
0.102041 0.244898 0
0.102041 0.22449 0
0.102041 0.204082 0
0.102041 0.183673 0
0.102041 0.163265 0
0.102041 0.142857 0
0.102041 0.122449 0
0.102041 0.102041 0
0.102041 0.0816327 0
0.102041 0.0612245 0
0.102041 0.0408163 0
0.102041 0.0204082 0
0.122449 0.979592 0
0.122449 0.959184 0
0.122449 0.938776 0
0.122449 0.918367 0
0.122449 0.897959 0
0.122449 0.877551 0
0.122449 0.857143 0
0.122449 0.836735 0
0.122449 0.816327 0
0.122449 0.795918 0
0.122449 0.77551 0
0.122449 0.755102 0
0.122449 0.734694 0
0.122449 0.714286 0
0.122449 0.693878 0
0.122449 0.673469 0
0.122449 0.653061 0
0.122449 0.632653 0
0.122449 0.612245 0
0.122449 0.591837 0
0.122449 0.571429 0
0.122449 0.55102 0
0.122449 0.530612 0
0.122449 0.510204 0
0.122449 0.489796 0
0.122449 0.469388 0
0.122449 0.44898 0
0.122449 0.428571 0
0.122449 0.408163 0
0.122449 0.387755 0
0.122449 0.367347 0
0.122449 0.346939 0
0.122449 0.326531 0
0.122449 0.306122 0
0.122449 0.285714 0
0.122449 0.265306 0
0.122449 0.244898 0
0.122449 0.22449 0
0.122449 0.204082 0
0.122449 0.183673 0
0.122449 0.163265 0
0.122449 0.142857 0
0.122449 0.122449 0
0.122449 0.102041 0
0.122449 0.0816327 0
0.122449 0.0612245 0
0.122449 0.0408163 0
0.122449 0.0204082 0
0.142857 0.979592 0
0.142857 0.959184 0
0.142857 0.938776 0
0.142857 0.918367 0
0.142857 0.897959 0
0.142857 0.877551 0
0.142857 0.857143 0
0.142857 0.836735 0
0.142857 0.816327 0
0.142857 0.795918 0
0.142857 0.77551 0
0.142857 0.755102 0
0.142857 0.734694 0
0.142857 0.714286 0
0.142857 0.693878 0
0.142857 0.673469 0
0.142857 0.653061 0
0.142857 0.632653 0
0.142857 0.612245 0
0.142857 0.591837 0
0.142857 0.571429 0
0.142857 0.55102 0
0.142857 0.530612 0
0.142857 0.510204 0
0.142857 0.489796 0
0.142857 0.469388 0
0.142857 0.44898 0
0.142857 0.428571 0
0.142857 0.408163 0
0.142857 0.387755 0
0.142857 0.367347 0
0.142857 0.346939 0
0.142857 0.326531 0
0.142857 0.306122 0
0.142857 0.285714 0
0.142857 0.265306 0
0.142857 0.244898 0
0.142857 0.22449 0
0.142857 0.204082 0
0.142857 0.183673 0
0.142857 0.163265 0
0.142857 0.142857 0
0.142857 0.122449 0
0.142857 0.102041 0
0.142857 0.0816327 0
0.142857 0.0612245 0
0.142857 0.0408163 0
0.142857 0.0204082 0
0.163265 0.979592 0
0.163265 0.959184 0
0.163265 0.938776 0
0.163265 0.918367 0
0.163265 0.897959 0
0.163265 0.877551 0
0.163265 0.857143 0
0.163265 0.836735 0
0.163265 0.816327 0
0.163265 0.795918 0
0.163265 0.77551 0
0.163265 0.755102 0
0.163265 0.734694 0
0.163265 0.714286 0
0.163265 0.693878 0
0.163265 0.673469 0
0.163265 0.653061 0
0.163265 0.632653 0
0.163265 0.612245 0
0.163265 0.591837 0
0.163265 0.571429 0
0.163265 0.55102 0
[...]
CELL_DATA 2401
VECTORS velocity double
0.0210028 0.0165358 0
0.03826 0.0532607 0
0.0709258 0.0882353 0
0.118727 0.121937 0
0.180855 0.153736 0
0.25631 0.183021 0
0.343847 0.209299 0
0.44202 0.232123 0
0.549217 0.251107 0
0.663681 0.265931 0
0.783546 0.276344 0
0.906863 0.282173 0
1.03163 0.283323 0
1.15583 0.279778 0
1.27745 0.271601 0
1.39452 0.258937 0
1.50515 0.242004 0
1.60754 0.221093 0
1.70002 0.196561 0
1.78109 0.168827 0
1.8494 0.138363 0
1.90383 0.105685 0
1.94345 0.0713468 0
1.96758 0.0359383 0
1.97571 5.38608e-08 0
1.96758 -0.0359382 0
1.94345 -0.0713467 0
1.90383 -0.105685 0
1.8494 -0.138363 0
1.78109 -0.168827 0
1.70002 -0.196561 0
1.60754 -0.221093 0
1.50515 -0.242004 0
1.39452 -0.258937 0
1.27745 -0.271601 0
1.15583 -0.279778 0
1.03163 -0.283323 0
0.906863 -0.282174 0
0.783546 -0.276344 0
0.663681 -0.265931 0
0.549217 -0.251107 0
0.442021 -0.232123 0
0.343848 -0.209299 0
0.256311 -0.183022 0
0.180856 -0.153736 0
0.118729 -0.121938 0
0.0709273 -0.0882361 0
0.038262 -0.0532622 0
0.0210053 -0.0165333 0
0.0547221 0.0160129 0
0.0708459 0.0517192 0
0.101853 0.0853104 0
0.147445 0.117737 0
0.206958 0.148401 0
0.279463 0.17667 0
0.363788 0.202049 0
0.458558 0.224095 0
0.562223 0.242424 0
0.673084 0.25672 0
0.789322 0.266741 0
0.909032 0.272321 0
1.03025 0.273372 0
1.15098 0.269883 0
1.26925 0.261922 0
1.38311 0.249636 0
1.4907 0.23324 0
1.59025 0.213023 0
1.68012 0.189333 0
1.75885 0.16258 0
1.82513 0.133219 0
1.87789 0.101748 0
1.91625 0.0686937 0
1.93958 0.0346124 0
1.94742 1.11519e-07 0
1.93958 -0.0346122 0
1.91625 -0.0686935 0
1.87789 -0.101748 0
1.82513 -0.133219 0
1.75885 -0.16258 0
1.68012 -0.189333 0
1.59025 -0.213023 0
1.4907 -0.23324 0
1.38311 -0.249636 0
1.26925 -0.261922 0
1.15098 -0.269883 0
1.03025 -0.273372 0
0.909032 -0.272322 0
0.789322 -0.266742 0
0.673084 -0.25672 0
0.562223 -0.242424 0
0.458558 -0.224095 0
0.363788 -0.202049 0
0.279463 -0.17667 0
0.206958 -0.148401 0
0.147445 -0.117738 0
0.101852 -0.0853111 0
0.0708449 -0.0517201 0
0.0547205 -0.016011 0
0.0887164 0.0155478 0
0.104444 0.050147 0
0.13459 0.082519 0
0.178739 0.113747 0
0.236239 0.143283 0
0.306186 0.170522 0
0.387458 0.194985 0
0.478739 0.21624 0
0.578546 0.233907 0
0.685254 0.24768 0
0.797127 0.257322 0
0.912338 0.262672 0
1.02901 0.263646 0
1.14523 0.260239 0
1.25909 0.25252 0
1.36874 0.240634 0
1.47238 0.224795 0
1.56829 0.205282 0
1.65492 0.182436 0
1.73083 0.156651 0
1.79478 0.128365 0
1.8457 0.0980519 0
1.88276 0.0662116 0
1.90531 0.0333707 0
1.9129 1.83619e-07 0
1.90531 -0.0333703 0
1.88276 -0.0662113 0
1.8457 -0.0980516 0
1.79478 -0.128364 0
1.73083 -0.156651 0
1.65492 -0.182436 0
1.56829 -0.205282 0
1.47238 -0.224795 0
1.36874 -0.240634 0
1.25909 -0.25252 0
1.14523 -0.260239 0
1.02901 -0.263647 0
0.912338 -0.262672 0
0.797127 -0.257323 0
0.685254 -0.247681 0
0.578546 -0.233908 0
0.478739 -0.21624 0
0.387458 -0.194986 0
0.306186 -0.170522 0
0.236239 -0.143283 0
0.178739 -0.113747 0
0.134589 -0.0825196 0
0.104443 -0.0501475 0
0.0887156 -0.0155463 0
0.121581 0.0151 0
0.136812 0.0484906 0
0.166019 0.0797375 0
0.208721 0.10984 0
0.264257 0.138292 0
0.331741 0.164529 0
0.410088 0.188097 0
0.498034 0.208579 0
0.594157 0.22561 0
0.696901 0.238891 0
0.804601 0.24819 0
0.915507 0.25335 0
1.02782 0.254289 0
1.1397 0.251 0
1.24933 0.243551 0
1.35493 0.232082 0
1.45475 0.216801 0
1.54717 0.19798 0
1.63066 0.175948 0
1.70386 0.151084 0
1.76556 0.12381 0
1.81472 0.0945817 0
1.85052 0.063876 0
1.87231 0.0321972 0
1.87965 2.76352e-07 0
1.87231 -0.0321966 0
1.85052 -0.0638754 0
1.81472 -0.0945813 0
1.76556 -0.12381 0
1.70386 -0.151083 0
1.63066 -0.175947 0
1.54717 -0.19798 0
1.45475 -0.216801 0
1.35493 -0.232082 0
1.24933 -0.243551 0
1.1397 -0.251 0
1.02782 -0.254289 0
0.915507 -0.25335 0
0.804601 -0.24819 0
0.696901 -0.238891 0
0.594157 -0.225611 0
0.498034 -0.20858 0
0.410088 -0.188098 0
0.331741 -0.16453 0
0.264257 -0.138293 0
0.20872 -0.10984 0
0.166019 -0.079738 0
0.136812 -0.0484908 0
0.121581 -0.0150987 0
0.153303 0.014735 0
0.167981 0.0468421 0
0.196198 0.0770149 0
0.237439 0.106043 0
0.291041 0.13345 0
0.35613 0.158713 0
0.431654 0.181403 0
0.516397 0.201123 0
0.608994 0.217526 0
0.707953 0.230322 0
0.811678 0.239287 0
0.918492 0.244268 0
1.02667 0.245183 0
1.13445 0.242024 0
1.24007 0.234856 0
1.34183 0.223811 0
1.43805 0.20909 0
1.52717 0.190954 0
1.6077 0.16972 0
1.67833 0.145752 0
1.73789 0.119456 0
1.78537 0.0912685 0
1.81995 0.0616468 0
1.84102 0.0310766 0
1.84811 3.91879e-07 0
1.84102 -0.0310758 0
1.81995 -0.061646 0
1.78537 -0.0912678 0
1.73789 -0.119456 0
1.67833 -0.145752 0
1.6077 -0.16972 0
1.52717 -0.190954 0
1.43805 -0.20909 0
1.34183 -0.223811 0
1.24007 -0.234856 0
1.13444 -0.242025 0
1.02667 -0.245183 0
0.918492 -0.244268 0
0.811678 -0.239287 0
0.707953 -0.230322 0
0.608994 -0.217527 0
0.516397 -0.201124 0
0.431654 -0.181404 0
0.35613 -0.158713 0
0.291041 -0.133451 0
0.237439 -0.106044 0
0.196198 -0.0770154 0
0.16798 -0.0468423 0
0.153303 -0.0147339 0
0.183951 0.0143951 0
0.198095 0.0452034 0
0.225335 0.0743378 0
0.265148 0.102335 0
0.316872 0.128739 0
0.379647 0.153065 0
0.452451 0.174908 0
0.53411 0.193892 0
0.623312 0.209685 0
0.718626 0.222011 0
0.81852 0.230653 0
0.921388 0.235463 0
1.02557 0.236361 0
1.12939 0.233336 0
1.23115 0.226448 0
1.3292 0.215824 0
1.42195 0.201655 0
1.50787 0.184189 0
1.58554 0.163732 0
1.65369 0.140632 0
1.71117 0.115279 0
1.75701 0.0880915 0
1.79042 0.0595096 0
1.81077 0.0300021 0
1.81762 5.33841e-07 0
1.81077 -0.030001 0
1.79042 -0.0595086 0
1.75701 -0.0880906 0
1.71117 -0.115278 0
1.65369 -0.140631 0
1.58554 -0.163731 0
1.50787 -0.184189 0
1.42195 -0.201654 0
1.3292 -0.215824 0
1.23115 -0.226448 0
1.12939 -0.233336 0
1.02557 -0.236361 0
0.921388 -0.235464 0
0.81852 -0.230654 0
0.718625 -0.222011 0
0.623312 -0.209686 0
0.53411 -0.193893 0
0.452451 -0.174909 0
0.379647 -0.153066 0
0.316872 -0.128739 0
0.265148 -0.102335 0
0.225335 -0.0743382 0
0.198095 -0.0452035 0
0.183951 -0.0143941 0
0.213529 0.0140594 0
0.22716 0.0435874 0
0.253444 0.0717122 0
0.291863 0.0987143 0
0.341762 0.124155 0
0.402299 0.147585 0
0.472481 0.168618 0
0.551172 0.186896 0
0.63711 0.202104 0
0.728918 0.213978 0
0.825128 0.222312 0
0.924198 0.226961 0
1.02454 0.227846 0
1.12453 0.224956 0
1.22257 0.218345 0
1.31705 0.208133 0
1.40643 0.1945 0
1.48926 0.177685 0
1.56416 0.157979 0
1.6299 0.135716 0
1.68537 0.11127 0
1.72962 0.0850422 0
1.76188 0.0574579 0
1.78153 0.0289703 0
1.78815 7.05845e-07 0
1.78153 -0.0289689 0
1.76188 -0.0574566 0
1.72962 -0.085041 0
1.68537 -0.111269 0
1.6299 -0.135715 0
1.56416 -0.157978 0
1.48926 -0.177685 0
1.40643 -0.194499 0
1.31704 -0.208132 0
1.22257 -0.218345 0
1.12453 -0.224956 0
1.02454 -0.227847 0
0.924198 -0.226961 0
0.825127 -0.222312 0
0.728918 -0.213979 0
0.63711 -0.202105 0
0.551172 -0.186896 0
0.472481 -0.168618 0
0.402299 -0.147586 0
0.341762 -0.124156 0
0.291863 -0.0987148 0
0.253444 -0.0717125 0
0.22716 -0.0435875 0
0.213529 -0.0140585 0
0.242055 0.0137236 0
0.255195 0.0420078 0
0.280549 0.0691502 0
0.317611 0.0951906 0
0.36574 0.119707 0
0.424113 0.142278 0
0.491766 0.162536 0
0.5676 0.18014 0
0.650398 0.194789 0
0.738837 0.206233 0
0.831505 0.214273 0
0.926924 0.21877 0
1.02357 0.219647 0
1.11989 0.216889 0
1.21432 0.210548 0
1.30536 0.200734 0
1.3915 0.187621 0
1.47134 0.171434 0
1.54356 0.152452 0
1.60697 0.130994 0
1.66049 0.107418 0
1.7032 0.0821124 0
1.73433 0.055486 0
1.7533 0.0279783 0
1.75969 9.10864e-07 0
1.7533 -0.0279765 0
1.73433 -0.0554843 0
1.7032 -0.0821108 0
1.66049 -0.107417 0
1.60697 -0.130992 0
1.54356 -0.152451 0
1.47134 -0.171433 0
1.3915 -0.18762 0
1.30535 -0.200734 0
1.21432 -0.210547 0
1.11988 -0.216889 0
1.02357 -0.219647 0
0.926923 -0.218771 0
0.831504 -0.214274 0
0.738836 -0.206234 0
0.650398 -0.19479 0
0.5676 -0.18014 0
0.491766 -0.162537 0
0.424113 -0.142279 0
0.36574 -0.119707 0
0.317611 -0.0951911 0
0.280549 -0.0691504 0
0.255196 -0.0420078 0
0.242055 -0.0137228 0
0.269555 0.0133868 0
0.282229 0.0404726 0
0.306682 0.0666609 0
0.34243 0.0917721 0
0.388846 0.1154 0
0.445128 0.13715 0
0.510342 0.156668 0
0.583426 0.173629 0
0.663204 0.187747 0
0.748402 0.198782 0
0.837665 0.206542 0
0.929572 0.210896 0
1.02266 0.211765 0
1.11543 0.209137 0
1.20641 0.203055 0
1.29412 0.193626 0
1.37713 0.181013 0
1.45409 0.16543 0
1.52372 0.147142 0
1.58487 0.126457 0
1.63649 0.103717 0
1.67769 0.0792961 0
1.70774 0.0535899 0
1.72604 0.0270243 0
1.73221 1.15139e-06 0
1.72604 -0.027022 0
1.70774 -0.0535877 0
1.67769 -0.0792939 0
1.63649 -0.103715 0
1.58486 -0.126455 0
1.52372 -0.14714 0
1.45409 -0.165428 0
1.37713 -0.181011 0
1.29412 -0.193625 0
1.20641 -0.203055 0
1.11543 -0.209136 0
1.02266 -0.211765 0
0.929571 -0.210896 0
0.837664 -0.206543 0
0.748402 -0.198782 0
0.663204 -0.187748 0
0.583426 -0.17363 0
0.510343 -0.156669 0
0.445129 -0.137151 0
0.388846 -0.1154 0
0.342431 -0.0917725 0
0.306683 -0.0666611 0
0.282229 -0.0404727 0
0.269556 -0.013386 0
0.296062 0.0130505 0
0.308289 0.0389866 0
0.331877 0.0642507 0
0.366355 0.0884654 0
0.411116 0.11124 0
0.465381 0.132204 0
0.528245 0.151017 0
0.59868 0.167367 0
0.675551 0.18098 0
0.757632 0.191625 0
0.843619 0.199121 0
0.932147 0.203338 0
1.02181 0.204203 0
1.11118 0.201698 0
1.19881 0.195866 0
1.28331 0.186806 0
1.3633 0.174671 0
1.43747 0.159666 0
1.50459 0.142044 0
1.56355 0.122099 0
1.61333 0.100161 0
1.65307 0.0765894 0
1.68205 0.0517669 0
1.69971 0.0261068 0
1.70566 1.42933e-06 0
1.69971 -0.026104 0
1.68205 -0.0517641 0
1.65307 -0.0765867 0
1.61333 -0.100159 0
1.56355 -0.122097 0
1.50459 -0.142042 0
1.43747 -0.159664 0
1.3633 -0.174669 0
1.28331 -0.186805 0
1.19881 -0.195865 0
1.11117 -0.201697 0
1.02181 -0.204202 0
0.932146 -0.203338 0
0.843618 -0.199121 0
0.757632 -0.191625 0
0.675551 -0.18098 0
0.598679 -0.167367 0
0.528245 -0.151018 0
0.465382 -0.132205 0
0.411116 -0.11124 0
0.366356 -0.0884657 0
0.331877 -0.0642509 0
0.30829 -0.0389867 0
0.296063 -0.0130497 0
0.321608 0.0127172 0
0.33341 0.037552 0
0.356164 0.0619234 0
0.38942 0.0852748 0
0.432585 0.107231 0
0.484906 0.127445 0
0.545505 0.145585 0
0.613389 0.161353 0
0.687463 0.174486 0
0.766544 0.184763 0
0.849379 0.192008 0
0.934654 0.196097 0
1.02102 0.196957 0
1.1071 0.194571 0
1.19152 0.188978 0
1.27292 0.180269 0
1.34999 0.168591 0
1.42146 0.154139 0
1.48615 0.137154 0
1.54298 0.117918 0
1.59098 0.0967474 0
1.6293 0.0739895 0
1.65725 0.0500153 0
1.67428 0.025225 0
1.68001 1.74589e-06 0
1.67428 -0.0252216 0
1.65725 -0.0500119 0
1.6293 -0.0739863 0
1.59098 -0.0967443 0
1.54298 -0.117915 0
1.48615 -0.137152 0
1.42146 -0.154137 0
1.34999 -0.168589 0
1.27292 -0.180268 0
1.19152 -0.188976 0
1.1071 -0.19457 0
1.02102 -0.196956 0
0.934652 -0.196096 0
0.849377 -0.192008 0
0.766543 -0.184763 0
0.687462 -0.174486 0
0.613389 -0.161353 0
0.545505 -0.145585 0
0.484907 -0.127445 0
0.432585 -0.107231 0
0.38942 -0.0852751 0
0.356165 -0.0619236 0
0.333411 -0.0375521 0
0.321609 -0.0127164 0
0.346227 0.0123897 0
0.357623 0.0361696 0
0.379579 0.059681 0
0.411658 0.0822027 0
0.453287 0.103375 0
0.503736 0.122871 0
0.562154 0.140371 0
0.627581 0.155587 0
0.698961 0.168265 0
0.775155 0.178192 0
0.854953 0.1852 0
0.937096 0.189167 0
1.02028 0.190024 0
1.1032 0.187752 0
1.18451 0.182385 0
1.26293 0.174012 0
1.33717 0.16277 0
1.40603 0.148845 0
1.46837 0.132468 0
1.52314 0.113908 0
1.5694 0.0934724 0
1.60634 0.0714944 0
1.63328 0.0483335 0
1.6497 0.0243783 0
1.65523 2.10143e-06 0
1.6497 -0.0243741 0
1.63328 -0.0483294 0
1.60634 -0.0714904 0
1.5694 -0.0934686 0
1.52314 -0.113905 0
1.46837 -0.132464 0
1.40603 -0.148842 0
1.33717 -0.162767 0
1.26292 -0.17401 0
1.18451 -0.182383 0
1.10319 -0.18775 0
1.02028 -0.190023 0
0.937095 -0.189166 0
0.854952 -0.185199 0
0.775153 -0.178191 0
0.69896 -0.168264 0
0.627581 -0.155587 0
0.562154 -0.140372 0
0.503736 -0.122872 0
0.453288 -0.103375 0
0.411659 -0.0822029 0
0.37958 -0.0596812 0
0.357624 -0.0361696 0
0.346227 -0.0123888 0
0.369952 0.0120705 0
0.380964 0.0348388 0
0.402156 0.0575237 0
0.433106 0.0792495 0
0.473257 0.0996714 0
0.521903 0.118484 0
0.578221 0.135374 0
0.641282 0.150065 0
0.710068 0.162311 0
0.783479 0.171907 0
0.860354 0.17869 0
0.939478 0.182543 0
1.0196 0.183397 0
1.09946 0.181233 0
1.17778 0.176082 0
1.25331 0.168028 0
1.32482 0.157201 0
1.39116 0.143778 0
1.45122 0.12798 0
1.50399 0.110067 0
1.54856 0.0903335 0
1.58416 0.0691018 0
1.61012 0.0467203 0
1.62595 0.0235659 0
1.63127 2.4953e-06 0
1.62594 -0.023561 0
1.61012 -0.0467154 0
1.58416 -0.069097 0
1.54856 -0.0903289 0
1.50398 -0.110063 0
1.45121 -0.127976 0
1.39116 -0.143774 0
1.32482 -0.157197 0
1.2533 -0.168025 0
1.17778 -0.17608 0
1.09946 -0.181231 0
1.0196 -0.183395 0
0.939476 -0.182542 0
0.860352 -0.178689 0
0.783478 -0.171906 0
0.710067 -0.16231 0
0.641282 -0.150064 0
0.578221 -0.135374 0
0.521904 -0.118484 0
0.473258 -0.0996715 0
0.433106 -0.0792496 0
0.402157 -0.0575237 0
0.380965 -0.0348389 0
0.369952 -0.0120695 0
0.392817 0.0117615 0
0.403465 0.0335588 0
0.423928 0.0554505 0
0.453795 0.076414 0
0.492527 0.0961193 0
0.539439 0.114279 0
0.593735 0.13059 0
0.654517 0.144782 0
0.720803 0.156618 0
0.791534 0.165901 0
0.86559 0.172472 0
0.941803 0.176217 0
1.01897 0.177069 0
1.09588 0.175007 0
1.17131 0.170062 0
1.24405 0.16231 0
1.31292 0.151877 0
1.37681 0.138932 0
1.43466 0.123687 0
1.48549 0.106391 0
1.52844 0.0873276 0
1.56273 0.0668096 0
1.58774 0.0451743 0
1.60298 0.0227873 0
1.60811 2.92561e-06 0
1.60298 -0.0227815 0
1.58774 -0.0451686 0
1.56273 -0.0668041 0
1.52843 -0.0873222 0
1.48549 -0.106386 0
1.43466 -0.123682 0
1.37681 -0.138928 0
1.31292 -0.151873 0
1.24404 -0.162307 0
1.1713 -0.170059 0
1.09588 -0.175004 0
1.01897 -0.177066 0
0.941801 -0.176215 0
0.865588 -0.172471 0
0.791533 -0.1659 0
0.720802 -0.156618 0
0.654517 -0.144781 0
0.593734 -0.13059 0
0.539439 -0.114279 0
0.492528 -0.0961192 0
0.453796 -0.076414 0
0.423929 -0.0554505 0
0.403466 -0.0335589 0
0.392817 -0.0117604 0
0.414855 0.0114642 0
0.425161 0.0323281 0
0.444929 0.0534597 0
0.47376 0.073694 0
0.511129 0.0927151 0
0.556374 0.110254 0
0.608723 0.126013 0
0.667311 0.139732 0
0.731188 0.15118 0
0.799333 0.160167 0
0.87067 0.166537 0
0.944075 0.17018 0
1.01839 0.17103 0
1.09245 0.169066 0
1.16508 0.164315 0
1.23512 0.156851 0
1.30145 0.146793 0
1.36297 0.134302 0
1.41867 0.119583 0
1.46763 0.102875 0
1.50898 0.0844514 0
1.54201 0.0646156 0
1.5661 0.0436941 0
1.58077 0.0220416 0
1.58571 3.38911e-06 0
1.58077 -0.0220349 0
1.5661 -0.0436874 0
1.54201 -0.0646091 0
1.50898 -0.0844451 0
1.46762 -0.102869 0
1.41867 -0.119577 0
1.36297 -0.134297 0
1.30144 -0.146788 0
1.23512 -0.156847 0
1.16508 -0.164311 0
1.09245 -0.169062 0
1.01839 -0.171026 0
0.944072 -0.170177 0
0.870668 -0.166535 0
0.799331 -0.160165 0
0.731186 -0.151179 0
0.66731 -0.139731 0
0.608723 -0.126012 0
0.556374 -0.110253 0
0.51113 -0.0927149 0
0.47376 -0.0736939 0
0.44493 -0.0534597 0
0.425162 -0.0323282 0
0.414855 -0.011463 0
0.436097 0.0111795 0
0.446085 0.0311451 0
0.465193 0.051549 0
0.493032 0.0710862 0
0.529095 0.0894546 0
0.572737 0.106401 0
0.623212 0.121637 0
0.679685 0.134906 0
0.741239 0.145987 0
0.806891 0.154693 0
0.875603 0.160873 0
0.946296 0.16442 0
1.01786 0.165269 0
1.08917 0.163398 0
1.15909 0.158832 0
1.22652 0.151641 0
1.29037 0.141939 0
1.3496 0.12988 0
1.40323 0.115661 0
1.45036 0.0995134 0
1.49018 0.081701 0
1.52197 0.0625167 0
1.54516 0.0422776 0
1.55929 0.021328 0
1.56405 3.8809e-06 0
1.55929 -0.0213203 0
1.54516 -0.04227 0
1.52197 -0.0625092 0
1.49017 -0.0816937 0
1.45036 -0.0995065 0
1.40323 -0.115655 0
1.3496 -0.129874 0
1.29037 -0.141933 0
1.22652 -0.151636 0
1.15909 -0.158827 0
1.08916 -0.163393 0
1.01786 -0.165265 0
0.946293 -0.164417 0
0.875601 -0.160871 0
0.806888 -0.154691 0
0.741237 -0.145985 0
0.679683 -0.134905 0
0.623212 -0.121636 0
0.572737 -0.106401 0
0.529095 -0.0894542 0
0.493033 -0.071086 0
0.465193 -0.0515489 0
0.446086 -0.0311451 0
0.436098 -0.0111782 0
0.456575 0.0109077 0
0.466268 0.030008 0
0.48475 0.0497155 0
0.511644 0.0685867 0
0.546454 0.0863324 0
0.588556 0.102716 0
0.637228 0.117453 0
0.691662 0.130296 0
0.750975 0.141028 0
0.81422 0.149468 0
0.880398 0.155469 0
0.94847 0.158926 0
1.01737 0.159773 0
1.08602 0.15799 0
1.15333 0.1536 0
1.21823 0.146669 0
1.27968 0.137305 0
1.33669 0.125658 0
1.38831 0.111915 0
1.43367 0.0963013 0
1.47199 0.0790715 0
1.50259 0.0605095 0
1.5249 0.0409227 0
1.5385 0.0206453 0
1.54307 4.39429e-06 0
1.5385 -0.0206366 0
1.5249 -0.0409141 0
1.50259 -0.060501 0
1.47198 -0.0790633 0
1.43366 -0.0962934 0
1.3883 -0.111908 0
1.33669 -0.12565 0
1.27968 -0.137298 0
1.21823 -0.146663 0
1.15332 -0.153595 0
1.08601 -0.157985 0
1.01737 -0.159768 0
0.948467 -0.158922 0
0.880394 -0.155466 0
0.814217 -0.149465 0
0.750972 -0.141026 0
0.69166 -0.130294 0
0.637226 -0.117451 0
0.588555 -0.102715 0
0.546454 -0.0863318 0
0.511645 -0.0685864 0
0.484751 -0.0497154 0
0.466268 -0.0300081 0
0.456576 -0.0109063 0
0.476318 0.0106486 0
0.48574 0.028915 0
0.503633 0.0479562 0
0.529626 0.066191 0
0.563235 0.0833425 0
0.603857 0.0991887 0
0.650792 0.113452 0
0.703261 0.12589 0
0.760412 0.136292 0
0.821332 0.14448 0
0.885061 0.150311 0
0.9506 0.153682 0
1.01692 0.154529 0
1.083 0.15283 0
1.14777 0.148607 0
1.21023 0.141923 0
1.26936 0.13288 0
1.32421 0.121624 0
1.37388 0.108336 0
1.41752 0.0932311 0
1.45438 0.0765575 0
1.48382 0.0585898 0
1.50529 0.0396267 0
1.51837 0.0199922 0
1.52277 4.92064e-06 0
1.51837 -0.0199825 0
1.50529 -0.039617 0
1.48382 -0.0585803 0
1.45438 -0.0765482 0
1.41751 -0.0932222 0
1.37387 -0.108327 0
1.32421 -0.121616 0
1.26936 -0.132873 0
1.21022 -0.141916 0
1.14777 -0.148601 0
1.08299 -0.152824 0
1.01692 -0.154523 0
0.950596 -0.153677 0
0.885057 -0.150307 0
0.821328 -0.144476 0
0.760408 -0.136289 0
0.703259 -0.125888 0
0.65079 -0.11345 0
0.603856 -0.0991875 0
0.563235 -0.0833417 0
0.529626 -0.0661905 0
0.503634 -0.047956 0
0.485741 -0.0289151 0
0.476318 -0.010647 0
0.495354 0.0104014 0
0.504532 0.0278643 0
0.52187 0.0462676 0
0.547004 0.0638938 0
0.579465 0.080478 0
0.618665 0.0958122 0
0.663928 0.109624 0
0.714502 0.121676 0
0.769565 0.131764 0
0.828239 0.139713 0
0.8896 0.145383 0
0.952688 0.148673 0
1.01652 0.14952 0
1.0801 0.147902 0
1.14242 0.143838 0
1.2025 0.137388 0
1.25939 0.128652 0
1.31215 0.117769 0
1.35991 0.104914 0
1.40189 0.0902947 0
1.43735 0.0741523 0
1.46566 0.0567529 0
1.4863 0.0383862 0
1.49888 0.0193671 0
1.50311 5.44931e-06 0
1.49888 -0.0193563 0
1.4863 -0.0383755 0
1.46565 -0.0567423 0
1.43734 -0.074142 0
1.40188 -0.0902847 0
1.35991 -0.104904 0
1.31214 -0.11776 0
1.25938 -0.128644 0
1.2025 -0.13738 0
1.14241 -0.14383 0
1.08009 -0.147895 0
1.01651 -0.149514 0
0.952683 -0.148667 0
0.889595 -0.145378 0
0.828235 -0.139709 0
0.769561 -0.131761 0
0.714499 -0.121674 0
0.663926 -0.109622 0
0.618663 -0.0958107 0
0.579464 -0.0804769 0
0.547004 -0.0638932 0
0.52187 -0.0462673 0
0.504532 -0.0278644 0
0.495355 -0.0103996 0
0.513712 0.0101651 0
0.52267 0.0268541 0
0.539488 0.0446462 0
0.563806 0.0616899 0
0.595168 0.0777315 0
0.633002 0.0925767 0
0.676656 0.105958 0
0.725402 0.117643 0
0.778448 0.127431 0
0.834951 0.135152 0
0.894021 0.140669 0
0.954737 0.143882 0
1.01615 0.144729 0
1.07731 0.143187 0
1.13726 0.139275 0
1.19504 0.133049 0
1.24974 0.124606 0
1.30047 0.114079 0
1.3464 0.101637 0
1.38676 0.0874827 0
1.42084 0.0718485 0
1.44806 0.054993 0
1.4679 0.0371976 0
1.47999 0.0187681 0
1.48406 5.96756e-06 0
1.47999 -0.0187562 0
1.4679 -0.0371858 0
1.44806 -0.0549814 0
1.42084 -0.0718372 0
1.38675 -0.0874717 0
1.3464 -0.101626 0
1.30047 -0.114069 0
1.24974 -0.124597 0
1.19504 -0.13304 0
1.13725 -0.139267 0
1.07731 -0.14318 0
1.01615 -0.144722 0
0.954731 -0.143875 0
0.894016 -0.140663 0
0.834946 -0.135147 0
0.778444 -0.127427 0
0.725398 -0.117639 0
0.676653 -0.105955 0
0.633 -0.0925749 0
0.595167 -0.0777302 0
0.563806 -0.0616891 0
0.539488 -0.0446458 0
0.522671 -0.0268542 0
0.513712 -0.0101631 0
0.531416 0.00993796 0
0.540182 0.0258825 0
0.556513 0.0430882 0
0.580057 0.0595733 0
0.610367 0.0750951 0
0.64689 0.0894721 0
0.688993 0.102441 0
0.735975 0.113774 0
0.787074 0.123276 0
0.841477 0.130779 0
0.89833 0.13615 0