# vtk DataFile Version 3.0
Malha 2D com triângulos: velocidade e pressão
ASCII
DATASET UNSTRUCTURED_GRID

POINTS 7987 double
-0.5 0 0
1.5 0 0
1.5 2 0
-0.5 2 0
-0.47561 0 0
-0.45122 0 0
-0.426829 0 0
-0.402439 0 0
-0.378049 0 0
-0.353659 0 0
-0.329268 0 0
-0.304878 0 0
-0.280488 0 0
-0.256098 0 0
-0.231707 0 0
-0.207317 0 0
-0.182927 0 0
-0.158537 0 0
-0.134146 0 0
-0.109756 0 0
-0.0853659 0 0
-0.0609756 0 0
-0.0365854 0 0
-0.0121951 0 0
0.0121951 0 0
0.0365854 0 0
0.0609756 0 0
0.0853659 0 0
0.109756 0 0
0.134146 0 0
0.158537 0 0
0.182927 0 0
0.207317 0 0
0.231707 0 0
0.256098 0 0
0.280488 0 0
0.304878 0 0
0.329268 0 0
0.353659 0 0
0.378049 0 0
0.402439 0 0
0.426829 0 0
0.45122 0 0
0.47561 0 0
0.5 0 0
0.52439 0 0
0.54878 0 0
0.573171 0 0
0.597561 0 0
0.621951 0 0
0.646341 0 0
0.670732 0 0
0.695122 0 0
0.719512 0 0
0.743902 0 0
0.768293 0 0
0.792683 0 0
0.817073 0 0
0.841463 0 0
0.865854 0 0
0.890244 0 0
0.914634 0 0
0.939024 0 0
0.963415 0 0
0.987805 0 0
1.0122 0 0
1.03659 0 0
1.06098 0 0
1.08537 0 0
1.10976 0 0
1.13415 0 0
1.15854 0 0
1.18293 0 0
1.20732 0 0
1.23171 0 0
1.2561 0 0
1.28049 0 0
1.30488 0 0
1.32927 0 0
1.35366 0 0
1.37805 0 0
1.40244 0 0
1.42683 0 0
1.45122 0 0
1.47561 0 0
1.5 0.0243902 0
1.5 0.0487805 0
1.5 0.0731707 0
1.5 0.097561 0
1.5 0.121951 0
1.5 0.146341 0
1.5 0.170732 0
1.5 0.195122 0
1.5 0.219512 0
1.5 0.243902 0
1.5 0.268293 0
1.5 0.292683 0
1.5 0.317073 0
1.5 0.341463 0
1.5 0.365854 0
1.5 0.390244 0
1.5 0.414634 0
1.5 0.439024 0
1.5 0.463415 0
1.5 0.487805 0
1.5 0.512195 0
1.5 0.536585 0
1.5 0.560976 0
1.5 0.585366 0
1.5 0.609756 0
1.5 0.634146 0
1.5 0.658537 0
1.5 0.682927 0
1.5 0.707317 0
1.5 0.731707 0
1.5 0.756098 0
1.5 0.780488 0
1.5 0.804878 0
1.5 0.829268 0
1.5 0.853659 0
1.5 0.878049 0
1.5 0.902439 0
1.5 0.926829 0
1.5 0.95122 0
1.5 0.97561 0
1.5 1 0
1.5 1.02439 0
1.5 1.04878 0
1.5 1.07317 0
1.5 1.09756 0
1.5 1.12195 0
1.5 1.14634 0
1.5 1.17073 0
1.5 1.19512 0
1.5 1.21951 0
1.5 1.2439 0
1.5 1.26829 0
1.5 1.29268 0
1.5 1.31707 0
1.5 1.34146 0
1.5 1.36585 0
1.5 1.39024 0
1.5 1.41463 0
1.5 1.43902 0
1.5 1.46341 0
1.5 1.4878 0
1.5 1.5122 0
1.5 1.53659 0
1.5 1.56098 0
1.5 1.58537 0
1.5 1.60976 0
1.5 1.63415 0
1.5 1.65854 0
1.5 1.68293 0
1.5 1.70732 0
1.5 1.73171 0
1.5 1.7561 0
1.5 1.78049 0
1.5 1.80488 0
1.5 1.82927 0
1.5 1.85366 0
1.5 1.87805 0
1.5 1.90244 0
1.5 1.92683 0
1.5 1.95122 0
1.5 1.97561 0
1.47561 2 0
1.45122 2 0
1.42683 2 0
1.40244 2 0
1.37805 2 0
1.35366 2 0
1.32927 2 0
1.30488 2 0
1.28049 2 0
1.2561 2 0
1.23171 2 0
1.20732 2 0
1.18293 2 0
1.15854 2 0
1.13415 2 0
1.10976 2 0
1.08537 2 0
1.06098 2 0
1.03659 2 0
1.0122 2 0
0.987805 2 0
0.963415 2 0
0.939024 2 0
0.914634 2 0
0.890244 2 0
0.865854 2 0
0.841463 2 0
0.817073 2 0
0.792683 2 0
0.768293 2 0
0.743902 2 0
0.719512 2 0
0.695122 2 0
0.670732 2 0
0.646341 2 0
0.621951 2 0
0.597561 2 0
0.573171 2 0
0.54878 2 0
0.52439 2 0
0.5 2 0
0.47561 2 0
0.45122 2 0
0.426829 2 0
0.402439 2 0
0.378049 2 0
0.353659 2 0
0.329268 2 0
0.304878 2 0
0.280488 2 0
0.256098 2 0
0.231707 2 0
0.207317 2 0
0.182927 2 0
0.158537 2 0
0.134146 2 0
0.109756 2 0
0.0853659 2 0
0.0609756 2 0
0.0365854 2 0
0.0121951 2 0
-0.0121951 2 0
-0.0365854 2 0
-0.0609756 2 0
-0.0853659 2 0
-0.109756 2 0
-0.134146 2 0
-0.158537 2 0
-0.182927 2 0
-0.207317 2 0
-0.231707 2 0
-0.256098 2 0
-0.280488 2 0
-0.304878 2 0
-0.329268 2 0
-0.353659 2 0
-0.378049 2 0
-0.402439 2 0
-0.426829 2 0
-0.45122 2 0
-0.47561 2 0
-0.5 1.97561 0
-0.5 1.95122 0
-0.5 1.92683 0
-0.5 1.90244 0
-0.5 1.87805 0
-0.5 1.85366 0
-0.5 1.82927 0
-0.5 1.80488 0
-0.5 1.78049 0
-0.5 1.7561 0
-0.5 1.73171 0
-0.5 1.70732 0
-0.5 1.68293 0
-0.5 1.65854 0
-0.5 1.63415 0
-0.5 1.60976 0
-0.5 1.58537 0
-0.5 1.56098 0
-0.5 1.53659 0
-0.5 1.5122 0
-0.5 1.4878 0
-0.5 1.46341 0
-0.5 1.43902 0
-0.5 1.41463 0
-0.5 1.39024 0
-0.5 1.36585 0
-0.5 1.34146 0
-0.5 1.31707 0
-0.5 1.29268 0
-0.5 1.26829 0
-0.5 1.2439 0
-0.5 1.21951 0
-0.5 1.19512 0
-0.5 1.17073 0
-0.5 1.14634 0
-0.5 1.12195 0
-0.5 1.09756 0
-0.5 1.07317 0
-0.5 1.04878 0
-0.5 1.02439 0
-0.5 1 0
-0.5 0.97561 0
-0.5 0.95122 0
-0.5 0.926829 0
-0.5 0.902439 0
-0.5 0.878049 0
-0.5 0.853659 0
-0.5 0.829268 0
-0.5 0.804878 0
-0.5 0.780488 0
-0.5 0.756098 0
-0.5 0.731707 0
-0.5 0.707317 0
-0.5 0.682927 0
-0.5 0.658537 0
-0.5 0.634146 0
-0.5 0.609756 0
-0.5 0.585366 0
-0.5 0.560976 0
-0.5 0.536585 0
-0.5 0.512195 0
-0.5 0.487805 0
-0.5 0.463415 0
-0.5 0.439024 0
-0.5 0.414634 0
-0.5 0.390244 0
-0.5 0.365854 0
-0.5 0.341463 0
-0.5 0.317073 0
-0.5 0.292683 0
-0.5 0.268293 0
-0.5 0.243902 0
-0.5 0.219512 0
-0.5 0.195122 0
-0.5 0.170732 0
-0.5 0.146341 0
-0.5 0.121951 0
-0.5 0.097561 0
-0.5 0.0731707 0
-0.5 0.0487805 0
-0.5 0.0243902 0
1.47852 1.01279 0
-0.479289 0.987093 0
0.490424 1.97803 0
0.512195 0.0211226 0
0.317073 0.0211226 0
1.47923 0.8165 0
0.685534 1.97809 0
-0.478264 1.1829 0
0.707317 0.0211226 0
1.47819 1.20908 0
0.290064 1.97803 0
-0.479385 0.792683 0
0.146341 0.0211226 0
1.47888 0.646341 0
-0.478479 1.35269 0
0.853659 1.97888 0
0.878049 0.0211226 0
1.47829 1.37916 0
0.121951 1.97888 0
-0.478877 0.621951 0
1 1.97888 0
-0.479523 1.50133 0
1.47682 0.503202 0
3.77476e-15 0.0211226 0
1.47673 1.52257 0
-0.0243902 1.97888 0
1.02439 0.0211226 0
-0.480619 0.476045 0
1.12195 1.97888 0
-0.478255 1.62062 0
1.47787 0.378973 0
-0.121951 0.0211226 0
1.14634 0.0211226 0
-0.478099 0.352312 0
1.47679 1.64733 0
-0.14896 1.97803 0
-0.243902 0.0211226 0
1.47538 0.25503 0
-0.478877 1.7439 0
1.2439 1.97888 0
1.48099 1.74363 0
-0.243902 1.97888 0
1.2439 0.0211226 0
-0.476707 0.254666 0
0.414634 0.0211226 0
0.609756 0.0211226 0
-0.478189 1.08587 0
-0.477727 0.889119 0
0.387625 1.97803 0
1.47813 0.915685 0
0.585366 1.97888 0
1.47888 1.10976 0
-0.344082 1.97803 0
1.47822 1.84305 0
-0.478877 0.158537 0
1.34146 0.0211226 0
-0.341463 0.0211226 0
1.34146 1.97888 0
-0.479337 1.84226 0
1.47888 0.158537 0
-0.479411 1.27986 0
1.47803 0.718936 0
0.77948 1.98041 0
1.47938 0.574078 0
0.926829 1.97888 0
0.219512 0.0211226 0
0.0731707 0.0211226 0
-0.482596 1.4282 0
0.804878 0.0211226 0
0.95122 0.0211226 0
-0.478791 0.695434 0
-0.478517 0.548841 0
1.47888 1.45122 0
0.195122 1.97888 0
0.0487805 1.97888 0
1.47847 1.28045 0
-0.414634 1.97888 0
1.47844 1.91442 0
-0.478314 0.0850463 0
1.41463 0.0211226 0
1.41725 1.97803 0
-0.414634 0.0211226 0
-0.479256 1.91418 0
1.47831 0.0850463 0
-0.478877 0.304878 0
-0.192494 1.97879 0
1.19512 0.0211226 0
1.47733 1.69317 0
1.29268 0.0211226 0
1.47938 1.79181 0
-0.476743 0.209277 0
1.04878 1.97888 0
-0.478009 1.03916 0
-0.47673 0.843231 0
0.658537 0.0211226 0
1.17073 1.97888 0
-0.479216 1.67145 0
-0.290064 1.97803 0
0.463415 0.0211226 0
1.29006 1.97879 0
-0.480626 0.403716 0
1.09756 0.0211226 0
-0.478031 1.79048 0
-0.170732 0.0211226 0
1.47682 0.96704 0
1.47804 1.15648 0
0.344091 1.97879 0
0.365854 0.0211226 0
-0.478042 1.54869 0
0.268293 0.0211226 0
1.47696 0.764766 0
0.7291 1.97809 0
-0.0949335 1.97879 0
0.560976 0.0211226 0
1.47681 0.333027 0
0.439024 1.97888 0
-0.476547 0.935265 0
1.47938 1.59756 0
-0.0731707 0.0211226 0
0.536585 1.97888 0
-0.476811 1.22865 0
-0.477496 1.13692 0
-0.478276 0.744551 0
0.756098 0.0211226 0
1.47676 0.424676 0
1.47741 1.0585 0
1.48334 0.866402 0
0.631527 1.97803 0
1.4807 0.206783 0
1.47801 1.32665 0
0.243902 1.97888 0
-0.292683 0.0211226 0
1.46102 1.979 0
-0.47791 0.038825 0
-0.461024 1.979 0
1.46247 0.020578 0
1.31707 0.0211226 0
1.30488 0.0422451 0
1.28049 0.0422451 0
1.29268 0.0633677 0
1.26829 0.0633677 0
1.28049 0.0844903 0
1.2561 0.0844903 0
1.26829 0.105613 0
1.2439 0.105613 0
1.2561 0.126735 0
1.23171 0.126735 0
1.2439 0.147858 0
1.21951 0.147858 0
1.23171 0.168981 0
1.20732 0.168981 0
1.21951 0.190103 0
1.19512 0.190103 0
1.20732 0.211226 0
1.18293 0.211226 0
1.19512 0.232348 0
1.17073 0.232348 0
1.18293 0.253471 0
1.15854 0.253471 0
1.17073 0.274593 0
1.14634 0.274593 0
1.15854 0.295716 0
1.13415 0.295716 0
1.14634 0.316839 0
1.12195 0.316839 0
1.13415 0.337961 0
1.10976 0.337961 0
1.12195 0.359084 0
1.09756 0.359084 0
1.10976 0.380206 0
1.08537 0.380206 0
1.09756 0.401329 0
1.07317 0.401329 0
1.08537 0.422451 0
1.06098 0.422451 0
1.07317 0.443574 0
1.04878 0.443574 0
1.06098 0.464697 0
1.03659 0.464697 0
1.04878 0.485819 0
1.02439 0.485819 0
1.03659 0.506942 0
1.0122 0.506942 0
1.02439 0.528064 0
1 0.528064 0
1.0122 0.549187 0
0.987805 0.549187 0
1 0.570309 0
0.97561 0.570309 0
0.987805 0.591432 0
0.963415 0.591432 0
0.97561 0.612555 0
0.95122 0.612555 0
0.963415 0.633677 0
0.939024 0.633677 0
0.95122 0.6548 0
0.926829 0.6548 0
0.939024 0.675922 0
0.914634 0.675922 0
0.926829 0.697045 0
0.902439 0.697045 0
0.914634 0.718167 0
0.890244 0.718167 0
0.902439 0.73929 0
0.878049 0.73929 0
0.890244 0.760413 0
0.865854 0.760413 0
0.878049 0.781535 0
0.853659 0.781535 0
0.865854 0.802658 0
0.841463 0.802658 0
0.853659 0.82378 0
0.829268 0.82378 0
0.841463 0.844903 0
0.817073 0.844903 0
0.829268 0.866025 0
0.804878 0.866025 0
0.817073 0.887148 0
0.792683 0.887148 0
0.780488 0.866025 0
0.768293 0.887148 0
0.756098 0.866025 0
0.743902 0.887148 0
0.731707 0.866025 0
0.719512 0.887148 0
0.707317 0.866025 0
0.695122 0.887148 0
0.682927 0.866025 0
0.670732 0.887148 0
0.658537 0.866025 0
0.646341 0.887148 0
0.634146 0.866025 0
0.621951 0.887148 0
0.609756 0.866025 0
0.597561 0.887148 0
0.585366 0.866025 0
0.573171 0.887148 0
0.560976 0.866025 0
0.54878 0.887148 0
0.536585 0.866025 0
0.52439 0.887148 0
0.560976 0.908271 0
0.804878 0.908271 0
0.512195 0.866025 0
0.5 0.887148 0
0.487805 0.866025 0
0.47561 0.887148 0
0.463415 0.866025 0
0.45122 0.887148 0
0.439024 0.866025 0
0.426829 0.887148 0
0.414634 0.866025 0
0.402439 0.887148 0
0.414634 0.908271 0
0.390244 0.866025 0
0.390244 0.908271 0
0.402439 0.929393 0
0.378049 0.929393 0
0.390244 0.950516 0
0.365854 0.950516 0
0.378049 0.971638 0
0.353659 0.971638 0
0.365854 0.992761 0
0.341463 0.992761 0
0.353659 1.01388 0
0.329268 1.01388 0
0.341463 1.03501 0
0.317073 1.03501 0
0.329268 1.05613 0
0.317073 0.992761 0
0.304878 1.05613 0
0.317073 1.07725 0
0.292683 1.07725 0
0.304878 1.09837 0
[...]
CELL_DATA 15644
VECTORS velocity double
-1.06694 0.298334 0
1.13749 -0.646679 0
1.02861 -0.0157985 0
1.04107 -0.015058 0
-1.22146 -0.213464 0
0.954692 0.0138457 0
1.03316 -0.0153002 0
1.06238 0.0111546 0
0.925851 0.00255284 0
-1.23622 -0.175831 0
0.587648 0.653589 0
0.953053 0.0132966 0
-1.17324 0.133451 0
0.953902 -0.0135502 0
-0.476383 -0.545803 0
0.954168 -0.0144398 0
0.997334 0.0171542 0
1.04236 -0.0147385 0
1.04992 0.0134462 0
1.07609 0.664753 0
0.986608 -0.016992 0
1.33287 -0.641157 0
-1.07288 0.32229 0
0.955089 0.014429 0
0.897667 0.665226 0
2.86893 0.432621 0
2.26027 -0.561358 0
1.07399 0.000941416 0
2.8227 0.419238 0
0.447844 0.644832 0
3.40364 -0.043018 0
0.977712 0.0172392 0
0.365238 0.616499 0
1.62997 -0.640367 0
1.01988 -0.0172497 0
0.926601 0.00192102 0
0.93313 0.00772107 0
1.05716 -0.0108125 0
1.06821 0.00707528 0
0.55323 -0.660027 0
-0.126856 -0.584277 0
0.964082 -0.0159839 0
1.07175 -0.00438468 0
0.938976 -0.00994521 0
-0.916186 -0.385159 0
2.56039 0.497101 0
1.26621 0.659753 0
0.95734 -0.0141497 0
1.05048 0.0138532 0
0.981833 -0.0167044 0
1.06785 -0.00645426 0
3.17765 0.248898 0
1.03852 0.013794 0
0.94018 0.0105176 0
1.84901 -0.560729 0
1.00817 -0.017344 0
0.958423 0.0150075 0
-1.21748 -0.194084 0
0.999437 0.0170329 0
0.928406 -0.00543283 0
1.02972 0.0164383 0
3.20329 0.204156 0
1.69399 -0.609673 0
-0.868917 0.353504 0
2.70339 0.448405 0
0.971103 0.0167334 0
0.178052 0.602919 0
1.62552 -0.624049 0
2.39903 0.525265 0
1.07269 0.00152084 0
1.44353 0.65019 0
1.05458 -0.0115391 0
1.06413 -0.00905754 0
-1.20509 0.0847006 0
1.05807 0.0123143 0
-0.411056 -0.530709 0
2.37095 -0.538387 0
1.06308 0.0103819 0
0.471738 -0.661916 0
0.532178 -0.654599 0
1.95307 -0.562234 0
1.01529 -0.0175103 0
1.4732 -0.649703 0
-0.631452 -0.514291 0
0.953523 -0.0135902 0
1.07394 0.00210156 0
-0.382114 0.541991 0
-0.688853 0.149925 0
-0.692088 0.171011 0
0.0320843 0.0538525 0
0.0410394 0.041304 0
-0.943552 0.0829782 0
-0.95984 0.109349 0
0.862445 0.00590936 0
0.861207 0.00773085 0
0.152222 0.0472892 0
0.160016 0.0362083 0
0.569614 0.0359929 0
0.56819 0.041677 0
0.26424 0.0318005 0
0.257338 0.0414277 0
0.804291 0.00845273 0
0.888625 0.00618741 0
0.802433 0.0110029 0
0.889624 0.00473049 0
0.828576 0.00742687 0
0.826925 0.00963836 0
0.915524 0.00723229 0
0.915413 0.00838849 0
-0.0940633 0.0467566 0
-0.103389 0.0600034 0
1.07018 -0.00521906 0
-1.19368 0.162437 0
3.00958 0.395013 0
-0.449848 -0.536779 0
0.954205 -0.0146811 0
0.93487 0.00863695 0
-0.699619 0.455107 0
3.44382 0.00548811 0
0.933668 -0.00417496 0
1.06983 -0.00332676 0
1.0705 0.00600507 0
1.03343 0.0146058 0
0.948799 -0.670251 0
1.66584 -0.582978 0
0.029375 -0.605107 0
0.969165 -0.0164854 0
-0.770918 0.388157 0
-1.23054 -0.222527 0
0.937166 0.00967094 0
1.05615 -0.0117622 0
1.07105 -0.00546311 0
-0.373326 -0.552653 0
2.82765 0.427214 0
1.09858 0.647709 0
3.34907 -0.0485198 0
1.01301 -0.0169221 0
0.935646 -0.00897026 0
-0.980755 -0.34896 0
1.03177 0.0160356 0
1.00322 -0.0175786 0
1.9155 -0.621159 0
1.06957 -0.00227542 0
1.01769 0.0165611 0
0.944566 0.0115796 0
0.942893 0.0113468 0
1.04154 0.014771 0
2.12802 -0.53405 0
1.02344 0.0169462 0
-1.05342 -0.318456 0
0.935895 -0.00865979 0
3.08526 0.289263 0
1.09935 0.66301 0
0.998973 -0.017858 0
2.6658 0.465175 0
0.447231 0.627511 0
0.98126 0.0172883 0
1.06257 -0.00831655 0
3.07774 0.353632 0
0.948892 0.0121476 0
0.997834 -0.0165707 0
1.0665 -0.00774713 0
3.17815 0.229425 0
0.931644 -0.00331188 0
0.941736 -0.0108544 0
-0.838804 0.413085 0
0.926041 -0.00469506 0
2.73825 -0.441776 0
1.07339 -0.00318048 0
2.30296 -0.555928 0
0.92563 -0.0022059 0
0.145954 -0.625233 0
-1.14465 0.254358 0
1.03949 0.0140329 0
-0.0483581 -0.604784 0
1.06098 -0.00988861 0
-0.261432 -0.559171 0
0.959038 -0.015496 0
1.06186 -0.00957448 0
1.0425 -0.0138539 0
1.07188 0.00420962 0
2.90673 0.382502 0
-0.795706 -0.42114 0
-1.29235 -0.0765804 0
3.24234 0.177959 0
2.02064 -0.614551 0
-0.346366 0.516582 0
0.950597 0.0136298 0
1.06652 0.00814954 0
-0.943522 -0.366516 0
0.939268 -0.0099831 0
0.992096 -0.0171966 0
0.928515 -0.0049052 0
1.01094 0.016882 0
0.611733 -0.667086 0
0.924937 -0.000721898 0
0.930502 0.00663101 0
2.47033 -0.522662 0
0.924667 -0.00317694 0
0.93085 0.00620516 0
-1.18417 0.223988 0
0.947527 0.0120035 0
1.05135 -0.0129057 0
3.277 -0.121345 0
0.136919 0.617434 0
1.07304 0.00142345 0
-0.483309 -0.478799 0
-1.26591 -0.143278 0
1.04374 -0.651513 0
1.78774 -0.626513 0
1.02522 -0.016931 0
-0.481544 0.530212 0
2.23814 -0.530963 0
0.966525 -0.0153421 0
0.971497 -0.0157765 0
0.995454 -0.0176821 0
-0.0671713 -0.544016 0
1.06574 0.00892404 0
1.0357 -0.0156201 0
2.10209 -0.581926 0
0.967306 0.0163125 0
-0.662628 0.480489 0
3.05731 -0.290665 0
-0.338086 -0.512018 0
1.06321 -0.0085844 0
3.03274 0.346471 0
3.11292 -0.288022 0
0.947331 0.0122076 0
0.997776 -0.0169374 0
2.4646 0.520586 0
0.926993 0.00387005 0
2.83986 -0.418707 0
0.850947 -0.675668 0
1.04682 -0.0132058 0
1.05969 0.0120856 0
0.991103 0.0169602 0
0.728323 0.659966 0
-1.15156 0.097511 0
-1.1044 0.127307 0
-0.73957 0.176391 0
-0.890595 0.0849041 0
-0.580073 0.0710218 0
-0.545813 0.09222 0
0.284753 0.0321168 0
-0.326577 0.0603641 0
-0.222682 0.123837 0
-0.039853 0.0624644 0
-0.0637862 0.0474215 0
0.300906 0.0418836 0
0.202202 0.0479495 0
0.623158 0.0224028 0
0.654978 0.0205464 0
0.0679956 0.0416187 0
0.183627 0.0364381 0
0.0891927 0.054794 0
0.614849 0.0174474 0
0.729119 0.012318 0
0.647138 0.0158965 0
0.750305 0.0251858 0
0.537005 0.0469323 0
0.59365 0.0410549 0
0.787792 0.0126963 0
0.581766 0.0354815 0
0.497445 0.022783 0
0.782926 0.00973682 0
0.447596 0.0558913 0
0.676555 0.0145602 0
0.345404 0.0296462 0
0.360111 0.0383343 0
0.400334 0.0273303 0
0.837096 0.00974371 0
0.850936 0.00893054 0
0.847491 0.00684852 0
0.83334 0.00747828 0
0.814089 0.0111559 0
0.809775 0.00847978 0
0.877658 0.00548908 0
0.880405 0.00715281 0
0.892675 0.00475519 0
0.895106 0.00623809 0
0.926871 0.00312792 0
0.866264 0.00593667 0
0.910332 0.00739661 0
0.920966 0.00638879 0
0.923043 0.00734673 0
0.869345 0.00779434 0
0.901577 0.00437327 0
0.913006 0.00866874 0
-1.04858 0.122597 0
-1.03299 0.0953761 0
-0.0115127 0.0607277 0
-0.364844 0.0615204 0
-1.21645 0.101179 0
-0.62812 0.0748191 0
-0.00383743 0.0472545 0
-0.624249 0.156185 0
0.37916 0.0362591 0
0.114059 0.0533562 0
0.321737 0.0394755 0
0.120734 0.0415202 0
-0.18946 0.101693 0
-0.186752 0.117206 0
0.382111 0.0281575 0
0.229772 0.0363466 0
0.48305 0.0232839 0
0.549684 0.0456223 0
0.550244 0.0394158 0
0.4637 0.052946 0
0.223922 0.0467175 0
0.462542 0.0458967 0
0.32495 0.0307331 0
0.666857 0.0151346 0
0.66526 0.0194603 0
0.79356 0.0124022 0
0.605041 0.038423 0
-0.142175 0.0522836 0
0.854991 0.00871894 0
0.603181 0.0184009 0
0.898182 0.00590904 0
0.856066 0.00676779 0
0.636155 0.0164713 0
0.795122 0.00963928 0
0.88365 0.00698336 0
0.634335 0.0211406 0
0.898675 0.00459218 0
0.820519 0.00844709 0
0.884523 0.00542243 0
0.7212 0.0128611 0
0.873216 0.00736186 0
0.873817 0.00572974 0
0.819153 0.0108677 0
0.842693 0.00714649 0
0.756941 0.0206743 0
0.757507 0.0238502 0
0.841943 0.00918639 0
0.776164 0.0102025 0
0.775074 0.0130867 0
0.918879 0.00654542 0
0.91874 0.00758862 0
0.925006 0.00678526 0
0.924921 0.003291 0
2.62031 -0.474389 0
1.03863 -0.0141041 0
3.24558 0.0841707 0
3.21194 0.14278 0
-1.31586 -0.117179 0
1.13797 -0.670526 0
1.00461 -0.0177731 0
-0.00498965 -0.571838 0
2.1687 0.617825 0
-0.32342 0.508718 0
0.940783 0.0106724 0
3.30313 -0.0769849 0
0.960188 0.0145325 0
-0.221701 0.569929 0
1.07437 -0.00041225 0
2.26692 0.569134 0
1.0575 -0.0111708 0
1.07326 0.00339107 0
1.62813 0.650785 0
1.83048 0.661476 0
0.745525 -0.669945 0
0.350682 -0.64621 0
0.949369 -0.0127264 0
0.932534 0.00723759 0
-1.12453 0.260773 0
1.06713 -0.00787477 0
0.760758 0.660558 0
3.16034 0.189237 0
1.02361 -0.0161356 0
0.930466 -0.00655496 0
-1.1355 -0.256885 0
-0.226388 -0.517246 0
-0.783891 0.152907 0
-0.254319 0.107237 0
0.525012 0.0403913 0
0.734258 0.0157609 0
0.433317 0.0483459 0
-0.620925 0.140047 0
0.604519 0.0345174 0
0.720109 0.0162664 0
0.924904 0.00609095 0
0.939638 -0.0112605 0
0.943509 -0.0127413 0
-0.842319 -0.379179 0
-0.722109 -0.425037 0
-1.30759 -0.0381637 0
1.07125 -0.0034811 0
1.58972 -0.604515 0
2.17988 -0.559209 0
-0.118795 -0.571534 0
1.04657 0.0139408 0
-0.852477 0.110796 0
-0.301386 0.0775451 0
0.743874 0.0217867 0
0.507021 0.0292463 0
0.682939 0.018774 0
0.411952 0.0349495 0
-0.634963 0.0911745 0
0.601449 0.0224805 0
0.924507 0.00402295 0
0.90365 0.00571779 0
-0.3701 0.0780662 0
0.480975 0.029913 0
-0.150199 0.0667514 0
1.0702 0.00539976 0
-0.0122405 0.603127 0
3.31198 0.0483737 0
0.97201 0.0166806 0
1.98372 0.634166 0
2.3086 0.580914 0
1.00133 0.0177355 0
1.00791 0.0176109 0
1.98654 0.635379 0
1.64021 0.667258 0
0.947199 -0.0135558 0
-0.683379 -0.465067 0
1.02044 0.0162418 0
0.237852 0.640464 0
1.04546 0.0142701 0
0.928015 0.00397612 0
-1.22708 0.129432 0
-0.851184 0.3765 0
1.0383 0.0150758 0
2.33905 0.544886 0
1.06673 0.00921907 0
1.99487 -0.589834 0
-0.288055 -0.537046 0
2.09428 0.589323 0
-1.13829 -0.293387 0
0.935372 -0.00791011 0
0.963377 -0.0146344 0
0.980156 -0.0170979 0
1.96041 0.617029 0
0.986087 0.0189494 0
1.87867 -0.588749 0
1.02121 0.0177615 0
0.975637 -0.0157824 0
1.95328 0.619125 0
1.79034 0.628312 0
1.77746 0.62991 0
0.909631 -0.00577001 0
0.911674 -0.00798782 0
0.91108 -0.00928884 0
0.934399 -0.0226002 0
0.921958 -0.0141376 0
0.922627 -0.0154476 0
0.926732 -0.00440689 0
0.928262 -0.00608935 0
0.929067 -0.0185808 0
0.935185 -0.0202317 0
0.927763 -0.0172676 0
0.9444 -0.0254235 0
0.941737 -0.0241245 0
0.632841 -0.0904793 0
0.867408 -0.243884 0
0.983371 -0.0301752 0
0.921543 -0.00391529 0
0.997646 -0.0312675 0
0.732473 -0.223299 0
0.992913 -0.0304662 0
0.861437 -0.25488 0
0.826351 -0.247353 0
0.97997 -0.0278169 0
0.818528 -0.258505 0
0.810353 -0.270162 0
0.855198 -0.266372 0
0.878589 -0.223298 0
0.698281 -0.0970387 0
0.952586 -0.0266936 0
0.914257 -0.0114446 0
0.91786 -0.0121856 0
1.00746 -0.0312036 0
0.957719 -0.0265955 0
1.0625 -0.0104974 0
0.888829 -0.204452 0
0.755051 -0.204451 0
1.0126 -0.031833 0
0.860692 -0.198415 0
1.05822 -0.0116121 0
0.728633 -0.126498 0
1.06832 -0.0108179 0
0.600243 -0.0609204 0
0.60021 -0.0545421 0
0.914589 -0.00432381 0
0.910832 -0.0045324 0
1.02251 -0.0313975 0
0.91816 -0.00411936 0
0.893621 -0.195635 0
0.703013 -0.125655 0
0.716394 -0.132201 0
0.913433 -0.00550337 0
1.02798 -0.0318349 0
0.917047 -0.00524262 0
0.927629 -0.00341379 0
0.772075 -0.22155 0
0.0468038 -0.0878102 0
0.8667 -0.189858 0
0.561966 -0.107936 0
0.929507 -0.00389983 0
0.841 -0.226473 0
0.620485 -0.0708458 0
0.966261 -0.027525 0
1.074 -0.0282356 0
1.11923 -0.0162901 0
0.618298 -0.134251 0
0.898207 -0.187198 0
0.92782 -0.00715336 0
0.284 -0.018311 0
0.872449 -0.181671 0
0.623509 -0.0773057 0
1.08247 -0.0262795 0
1.07198 -0.00927721 0
0.64642 -0.16481 0
0.932388 -0.0212509 0
0.601085 -0.140304 0
1.03781 -0.0310174 0
0.848678 -0.278384 0
0.589099 -0.132133 0
0.97911 -0.0292244 0
0.902596 -0.179125 0
1.11899 -0.01445 0
0.570567 -0.13809 0
1.08834 -0.0258132 0
1.07503 -0.00874716 0
0.847855 -0.216705 0
0.977445 -0.287974 0
0.539343 -0.214731 0
1.06807 -0.028463 0
0.578222 -0.196602 0
1.10169 -0.0227977 0
0.5976 -0.573172 0
0.833837 -0.236682 0
0.495813 -0.213297 0
1.09598 -0.0235046 0
0.669688 -0.088988 0
0.530962 -0.150822 0
0.707069 -0.103039 0
0.984059 -0.0287367 0
0.487708 -0.164728 0
0.524126 -0.167371 0
0.544655 -0.16015 0
0.87795 -0.173836 0
0.654785 -0.093001 0
1.0779 -0.00702826 0
0.509811 -0.157621 0
0.440468 -0.179917 0
0.854415 -0.207358 0
0.971235 -0.027227 0
0.937124 -0.0215244 0
0.906797 -0.1714 0
0.518581 -0.224414 0
0.500628 0.123604 0
1.04353 -0.0312457 0
1.14584 -0.00579995 0
0.689617 -0.131319 0
1.06967 -0.0173719 0
0.781902 -0.211993 0
0.493459 0.114596 0
0.791306 -0.20285 0
1.12428 -0.0151148 0
1.08066 -0.0063454 0
1.14339 0.00338372 0
0.761805 -0.231538 0
0.877069 -0.119513 0
1.13297 -0.0105408 0
0.36132 -0.20537 0
0.65053 -0.122918 0
1.12842 -0.0119347 0
0.827219 -0.0235772 0
1.08265 -0.00448238 0
1.0541 -0.027334 0
1.79081 0.0955176 0
1.10833 -0.0201627 0
1.82258 0.0873042 0
1.9738 0.198994 0
1.14108 0.014658 0
1.14513 0.0110351 0
1.14355 0.00897601 0
0.715831 -0.120234 0
1.10373 -0.0192606 0
1.06246 -0.0258927 0
1.10454 -0.0125891 0
0.664921 -0.045718 0
1.10432 -0.0175387 0
1.14585 0.00531643 0
0.474206 -0.245112 0
1.93899 0.174537 0
0.680044 -0.112541 0
0.588151 -0.110945 0
0.914664 -0.156936 0
1.06358 -0.0189689 0
0.918346 -0.150168 0
0.0788274 0.113809 0
0.52224 0.11832 0
1.13565 -0.00715571 0
0.6238 -0.120978 0
1.05309 -0.0300426 0
0.515488 0.109741 0
0.569576 -0.115948 0
1.11416 -0.0155687 0
1.72514 -0.0990654 0
1.14171 0.0168106 0
1.12246 0.0247178 0
0.0692964 0.274617 0
0.920473 -0.0049831 0
1.06141 0.0510093 0
0.871798 -0.00829201 0
1.85015 0.0324558 0
2.01922 0.093309 0
1.84993 -0.032877 0
0.37976 0.0856797 0
0.893075 -0.152302 0
0.855721 -0.120455 0
0.874833 -0.0115121 0
1.12655 0.0281077 0
0.92847 -0.131566 0
0.925242 -0.137495 0
0.708517 -0.0310264 0
0.716277 -0.0183831 0
0.606832 -0.126432 0
0.613026 -0.16371 0
1.1173 0.031203 0
0.974731 0.0276622 0
2.21417 0.248081 0
0.678827 -0.590671 0
1.05896 -0.0300481 0
-0.48024 -0.399277 0
1.08178 -0.00341872 0
0.803533 0.0241529 0
0.811993 -0.156931 0
1.03063 0.0557255 0
0.316382 0.319596 0
1.02805 0.051005 0
0.406748 -0.208668 0
0.292323 -0.248943 0
-0.0721142 0.242001 0
0.629723 -0.156649 0
1.54914 0.313841 0
0.236353 -0.205733 0
1.1005 0.0383326 0
1.0145 0.173507 0
0.302428 -0.224311 0
1.04018 0.169374 0
0.517562 -0.204094 0
0.646193 -0.0229235 0
0.883215 -0.166339 0
0.906332 -0.133435 0
0.817552 -0.01182 0
-0.441547 -0.355218 0
0.187722 -0.200138 0
1.08821 0.0407326 0
1.10401 0.0361902 0
0.153643 -0.545561 0
2.29911 -0.0339505 0
1.11485 0.0334096 0
0.353512 0.0793411 0
2.27873 0.237657 0
1.05238 0.0506058 0
1.60409 -0.506196 0
2.0727 0.113374 0
1.05624 0.0466839 0
1.02774 0.050673 0
0.538374 -0.195289 0
1.64449 0.271608 0
0.979431 0.0533436 0
2.99478 0.344734 0
1.98907 0.14991 0
1.04982 0.0480693 0
0.902106 -0.139449 0
2.35915 -0.0888841 0
0.811562 0.0260028 0
2.02639 0.108496 0
0.654594 -0.0318325 0
0.0074587 0.204235 0
0.221058 0.300972 0
0.868305 -0.0139963 0
0.583097 -0.14663 0
1.0433 0.0497634 0
0.407359 0.100638 0
0.969294 0.0567096 0
1.06589 -0.0101835 0
0.831876 0.0380692 0
0.848281 0.0375961 0
1.0933 0.391421 0
0.695611 0.439193 0
0.917041 0.0129998 0
0.123097 0.164685 0
1.08742 0.044738 0
1.53487 0.342415 0
0.456822 -0.191048 0
1.06508 -0.0111627 0
0.470574 0.119711 0
2.28447 0.0653801 0
1.09035 0.0176899 0
-0.116094 -0.472303 0
1.076 0.01933 0
0.424502 -0.243474 0
1.08277 -0.00155821 0
-0.0512599 0.178248 0
1.56366 0.548638 0
0.564299 -0.153241 0
0.558288 -0.186865 0
1.0847 0.00127357 0
0.502672 -0.174918 0
2.28353 -0.0669732 0
2.2708 0.11628 0
0.820662 -0.0190884 0
0.607523 0.126694 0
0.480252 -0.182805 0
0.473083 -0.222915 0
0.888254 -0.159166 0
1.10472 -0.0141985 0
0.821888 -0.016416 0
1.06705 0.0557211 0
3.07815 0.220915 0
1.02127 0.0545227 0
-0.101746 0.168273 0
0.639211 -0.0971949 0
0.636587 0.425375 0
1.17209 0.166344 0
2.01727 0.325909 0
-0.149012 0.139664 0
2.27459 -0.017078 0
0.0907405 -0.522448 0
1.08468 -0.000658617 0
0.118485 0.149827 0
1.10032 -0.013545 0
1.14699 -0.00209823 0
2.04395 0.0669501 0
1.78136 -0.072144 0
1.82931 0.533632 0
1.07087 -0.0269502 0
1.03663 0.0517344 0
1.47144 -0.199714 0
2.13291 0.278074 0
1.78708 0.0835275 0
0.902648 0.050164 0
0.89769 -0.145734 0
0.0773614 0.127742 0
0.157098 0.297192 0
1.3768 0.27383 0
1.82648 0.0998338 0
1.14171 -0.00747125 0
0.918494 0.0524295 0
0.92823 0.0522318 0
2.03017 0.0524916 0
0.261192 0.126051 0
0.597447 0.118874 0
0.892695 0.0499831 0
0.296598 0.132167 0
0.435965 0.10584 0
3.00324 0.30509 0
0.0782976 0.156821 0
0.507403 0.414464 0
0.456297 0.398873 0
1.79057 0.133352 0
1.10766 0.0288913 0
1.44616 -0.519589 0
0.835298 -0.137489 0
2.34699 0.204091 0
1.11064 0.00667539 0
1.42765 0.274782 0
-0.19551 0.12758 0
1.80927 -0.0635471 0
1.09992 -0.0167408 0
0.924711 0.0734738 0
1.11181 0.00824463 0
0.449328 -0.232967 0
0.877712 0.0470721 0
1.14396 -0.000245996 0
0.239694 0.24593 0
0.977077 0.314591 0
0.939315 0.0253609 0
1.03707 0.437974 0
1.66304 0.232879 0
0.740257 -0.0168294 0
0.691877 -0.439152 0
0.921189 0.0230337 0
1.38883 0.0412125 0
1.90866 0.223035 0
1.26454 0.305339 0
0.238101 -0.245003 0
0.748049 0.636462 0
2.2861 -0.17657 0
1.61314 0.2358 0
1.06789 -0.0257054 0
-0.0373377 0.213437 0
1.11587 -0.000284227 0
0.772099 -0.096443 0
1.1396 -0.00555972 0
1.85467 0.229236 0
0.873476 -0.0065077 0
1.04872 -0.0273065 0
0.849079 -0.00777125 0
1.98134 0.182396 0
-0.229942 0.0967609 0
1.02586 0.321606 0
1.10928 -0.00574048 0
0.801809 -0.282345 0
0.352057 -0.227916 0
0.78236 -0.101468 0
-0.0657305 -0.497276 0
-0.481847 -0.136476 0
2.18868 0.458107 0
1.09935 -0.0183888 0
1.49058 -0.189313 0
1.04669 -0.0259944 0
0.841864 -0.29094 0
2.32639 -0.123231 0
2.11369 0.298683 0
0.877929 0.0473101 0
0.70555 -0.0725719 0
1.73211 0.215073 0
1.79249 0.120503 0
1.10712 -0.00841346 0
1.73069 0.532076 0
2.33548 -0.143044 0
3.08833 0.251955 0
0.323296 0.0832378 0
1.10893 -0.0183636 0
1.09573 -0.0159669 0
2.03353 0.140283 0
1.26645 0.376047 0
1.45109 -0.191102 0
1.96221 0.216298 0
0.934017 0.0251771 0
1.08282 0.0021816 0
1.53659 -0.158155 0
0.0832151 0.172403 0
0.380005 -0.218079 0
0.877318 -0.00793048 0
2.29959 0.0323434 0
1.11446 0.0281259 0
2.91161 0.231173 0
1.0652 -0.0271579 0
0.84018 -0.0103514 0
1.07349 -0.328092 0
1.12465 0.0169914 0
1.03828 -0.0270363 0
1.09571 0.015389 0
0.26042 -0.260174 0
-0.0881051 -0.100232 0
2.06519 0.0975041 0
0.933152 0.176381 0
0.542947 0.11323 0
1.93177 0.19042 0
0.84227 -0.00812288 0
1.38613 0.0354449 0
1.10856 -0.00162947 0
1.02265 -0.321523 0
1.12795 0.025879 0
1.49855 -0.287847 0
0.167834 -0.267608 0
0.926439 0.0234391 0
1.64357 0.298621 0
1.10912 0.0126327 0
1.61251 -0.180513 0
0.975813 0.0640193 0
0.878924 -0.00622424 0
0.94363 -0.0321927 0
0.861774 0.0486133 0
1.12977 -0.00639527 0
0.859669 -0.136413 0
0.882728 -0.0547103 0
1.29112 0.282342 0
0.677303 0.315426 0
0.923769 -0.320833 0
1.08365 0.0427679 0
0.880535 0.312766 0
1.42742 0.354689 0
1.11248 0.0302099 0
1.14333 -0.00345422 0
0.11152 0.343808 0
1.10867 0.0109853 0
0.887801 0.0477516 0
0.897253 -0.261969 0
1.01903 -0.26947 0
1.13588 0.0203277 0
1.12459 0.319699 0
0.828947 0.317872 0
-0.0258152 0.231561 0
0.97538 -0.314542 0
0.792879 -0.295081 0
1.98888 0.509975 0
0.867717 0.0464991 0
1.12971 0.0215242 0
0.995984 0.0536479 0
1.38105 0.367792 0
2.11654 -0.0149092 0
0.97836 -0.0933814 0
1.78071 0.250116 0
0.719166 -0.0383207 0
1.51344 -0.151336 0
1.07435 0.0207693 0
0.861951 -0.11526 0
1.50072 -0.161223 0
0.934777 -0.281137 0
1.75607 -0.091769 0
0.732015 0.312268 0
0.839814 -0.155703 0
1.12112 0.0268513 0
1.06499 0.0239171 0
0.941198 0.0211128 0
-0.930944 -0.177777 0
2.99745 0.241084 0
0.961126 0.173194 0
0.985318 0.0656979 0
0.860401 0.0413104 0
1.31491 -0.308586 0
0.832591 -0.16272 0
0.432447 0.293752 0
0.861154 -0.596657 0
0.710651 -0.0779579 0
2.03147 -0.141479 0
1.36989 -0.311086 0
-0.1125 0.0287953 0
2.08889 -0.0283997 0
1.13495 0.0251728 0
1.09679 0.0408309 0
0.146793 0.362737 0
1.86461 -0.118514 0
1.02034 0.0521355 0
0.941855 0.0241608 0
-0.506668 -0.371403 0
1.71245 -0.0275821 0
0.859122 0.621948 0
0.800639 0.0051723 0
1.13143 -0.00821679 0
0.902402 0.0712778 0
1.51049 0.262819 0
0.970602 0.0542336 0
0.0062131 0.26828 0
0.406824 0.307008 0
1.53818 0.250488 0
1.09119 -0.0167246 0
-0.379282 -0.339824 0
1.08083 -0.0194551 0
1.10933 -0.0148723 0
1.09016 -0.234762 0
2.02223 -0.0136154 0
-0.352338 -0.435288 0
0.805938 0.00752795 0
0.940423 0.0181931 0
1.89774 -0.0960085 0
0.693339 -0.254651 0
1.72344 -0.0878148 0
1.15942 0.0324519 0
1.69211 -0.0358001 0
1.49574 -0.11181 0
0.959319 -0.0163865 0
0.01848 0.221572 0
0.524789 0.307037 0
1.69385 -0.0947977 0
0.936134 -0.268894 0
0.680717 0.0393518 0
1.85051 -0.175274 0
1.07102 -0.0160633 0
1.10802 -0.00995559 0
1.0645 0.0466109 0
1.05473 0.0528948 0
2.15813 -0.373157 0
1.05976 0.0577787 0