# vtk DataFile Version 3.0
Malha 2D com triângulos: velocidade e pressão
ASCII
DATASET UNSTRUCTURED_GRID

POINTS 556 double
0 0 0
1 0 0
1 1 0
0 1 0
0.047619 0 0
0.0952381 0 0
0.142857 0 0
0.190476 0 0
0.238095 0 0
0.285714 0 0
0.333333 0 0
0.380952 0 0
0.428571 0 0
0.47619 0 0
0.52381 0 0
0.571429 0 0
0.619048 0 0
0.666667 0 0
0.714286 0 0
0.761905 0 0
0.809524 0 0
0.857143 0 0
0.904762 0 0
0.952381 0 0
1 0.047619 0
1 0.0952381 0
1 0.142857 0
1 0.190476 0
1 0.238095 0
1 0.285714 0
1 0.333333 0
1 0.380952 0
1 0.428571 0
1 0.47619 0
1 0.52381 0
1 0.571429 0
1 0.619048 0
1 0.666667 0
1 0.714286 0
1 0.761905 0
1 0.809524 0
1 0.857143 0
1 0.904762 0
1 0.952381 0
0.952381 1 0
0.904762 1 0
0.857143 1 0
0.809524 1 0
0.761905 1 0
0.714286 1 0
0.666667 1 0
0.619048 1 0
0.571429 1 0
0.52381 1 0
0.47619 1 0
0.428571 1 0
0.380952 1 0
0.333333 1 0
0.285714 1 0
0.238095 1 0
0.190476 1 0
0.142857 1 0
0.0952381 1 0
0.047619 1 0
0 0.952381 0
0 0.904762 0
0 0.857143 0
0 0.809524 0
0 0.761905 0
0 0.714286 0
0 0.666667 0
0 0.619048 0
0 0.571429 0
0 0.52381 0
0 0.47619 0
0 0.428571 0
0 0.380952 0
0 0.333333 0
0 0.285714 0
0 0.238095 0
0 0.190476 0
0 0.142857 0
0 0.0952381 0
0 0.047619 0
0.502877 0.0453975 0
0.502795 0.954523 0
0.0424911 0.499879 0
0.958761 0.5 0
0.0422174 0.690476 0
0.690476 0.958761 0
0.311451 0.0438227 0
0.958761 0.309524 0
0.958761 0.690476 0
0.310663 0.957443 0
0.690476 0.0412393 0
0.0427511 0.30836 0
0.833793 0.95422 0
0.170871 0.0453815 0
0.958761 0.166667 0
0.0412393 0.833333 0
0.167489 0.959442 0
0.044661 0.165388 0
0.83415 0.0426838 0
0.958761 0.833333 0
0.0453121 0.4069 0
0.404762 0.958761 0
0.404762 0.0402432 0
0.958761 0.404762 0
0.958761 0.595238 0
0.591411 0.0454062 0
0.591411 0.954594 0
0.0463656 0.595238 0
0.930144 0.95915 0
0.0714286 0.0412393 0
0.0386783 0.928943 0
0.959824 0.0732702 0
0.958761 0.738095 0
0.917521 0.714286 0
0.917521 0.666667 0
0.876282 0.690476 0
0.876282 0.642857 0
0.835043 0.666667 0
0.835043 0.619048 0
0.793803 0.642857 0
0.793803 0.595238 0
0.752564 0.619048 0
0.752564 0.571429 0
0.711325 0.595238 0
0.711325 0.547619 0
0.670086 0.571429 0
0.670086 0.52381 0
0.628846 0.547619 0
0.628846 0.5 0
0.587607 0.52381 0
0.587607 0.47619 0
0.546368 0.5 0
0.546368 0.452381 0
0.505128 0.47619 0
0.505128 0.52381 0
0.628846 0.452381 0
0.463889 0.5 0
0.463889 0.452381 0
0.463889 0.547619 0
0.42265 0.52381 0
0.42265 0.571429 0
0.628846 0.595238 0
0.38141 0.547619 0
0.38141 0.595238 0
0.42265 0.619048 0
0.38141 0.642857 0
0.42265 0.666667 0
0.752564 0.666667 0
0.340171 0.619048 0
0.340171 0.666667 0
0.298932 0.642857 0
0.298932 0.690476 0
0.752564 0.52381 0
0.257693 0.666667 0
0.257693 0.619048 0
0.257693 0.714286 0
0.298932 0.738095 0
0.257693 0.761905 0
0.38141 0.5 0
0.835043 0.714286 0
0.216453 0.738095 0
0.216453 0.642857 0
0.216453 0.595238 0
0.298932 0.785714 0
0.216453 0.785714 0
0.463889 0.642857 0
0.463889 0.690476 0
0.175214 0.761905 0
0.175591 0.80887 0
0.216532 0.832206 0
0.835043 0.571429 0
0.340171 0.761905 0
0.340171 0.809524 0
0.38141 0.785714 0
0.505128 0.666667 0
0.505128 0.714286 0
0.257693 0.571429 0
0.216453 0.547619 0
0.546368 0.690476 0
0.546368 0.738095 0
0.587607 0.714286 0
0.587607 0.761905 0
0.546368 0.785714 0
0.587607 0.809524 0
0.628846 0.785714 0
0.257693 0.52381 0
0.216152 0.5 0
0.257642 0.47619 0
0.216094 0.452381 0
0.257624 0.428571 0
0.216873 0.404762 0
0.257751 0.380952 0
0.217024 0.357143 0
0.257797 0.333333 0
0.216566 0.309524 0
0.257729 0.285714 0
0.298955 0.309524 0
0.298942 0.261905 0
0.340177 0.285714 0
0.216478 0.261905 0
0.340174 0.238095 0
0.381412 0.261905 0
0.298934 0.214286 0
0.381411 0.214286 0
0.42265 0.238095 0
0.340176 0.333333 0
0.42265 0.285714 0
0.463889 0.261905 0
0.463889 0.214286 0
0.505128 0.238095 0
0.505128 0.285714 0
0.546368 0.261905 0
0.546368 0.214286 0
0.587607 0.238095 0
0.587607 0.285714 0
0.628846 0.261905 0
0.628846 0.214286 0
0.670086 0.238095 0
0.670086 0.285714 0
0.711325 0.261905 0
0.711325 0.309524 0
0.752564 0.285714 0
0.752564 0.238095 0
0.752564 0.333333 0
0.793803 0.261905 0
0.793803 0.214286 0
0.752564 0.190476 0
0.835043 0.238095 0
0.835043 0.285714 0
0.835043 0.190476 0
0.628846 0.833333 0
0.670086 0.809524 0
0.175214 0.619048 0
0.173888 0.522411 0
0.173754 0.426172 0
0.177283 0.333403 0
0.546368 0.833333 0
0.38141 0.833333 0
0.505128 0.809524 0
0.670086 0.761905 0
0.711325 0.785714 0
0.711325 0.833333 0
0.752564 0.809524 0
0.752564 0.857143 0
0.793803 0.833333 0
0.670086 0.333333 0
0.133029 0.787053 0
0.135598 0.835435 0
0.133817 0.738318 0
0.340171 0.857143 0
0.505128 0.857143 0
0.876282 0.214286 0
0.876282 0.166667 0
0.835043 0.142857 0
0.876282 0.119048 0
0.463889 0.738095 0
0.298912 0.452381 0
0.670086 0.190476 0
0.628846 0.166667 0
0.670086 0.142857 0
0.505128 0.571429 0
0.546368 0.642857 0
0.917521 0.761905 0
0.752564 0.761905 0
0.0915425 0.763612 0
0.546368 0.880952 0
0.793803 0.880952 0
0.835043 0.857143 0
0.835043 0.809524 0
0.628197 0.120173 0
0.587499 0.143045 0
0.753058 0.903907 0
0.463889 0.833333 0
0.464586 0.879745 0
0.38141 0.738095 0
0.298932 0.547619 0
0.175214 0.666667 0
0.132435 0.642857 0
0.133634 0.595093 0
0.876282 0.833333 0
0.875485 0.879571 0
0.381334 0.880107 0
0.336416 0.911469 0
0.297258 0.879038 0
0.0927353 0.714286 0
0.668882 0.0884705 0
0.711325 0.119048 0
0.0897004 0.61903 0
0.0914355 0.57128 0
0.587465 0.0962133 0
0.546326 0.119241 0
0.546804 0.0722089 0
0.505611 0.0961453 0
0.505202 0.143041 0
0.464844 0.118624 0
0.834894 0.0944156 0
0.793779 0.118911 0
0.876282 0.0714286 0
0.793803 0.0714286 0
0.792809 0.927231 0
0.0463319 0.73838 0
0.0468189 0.547561 0
0.0878023 0.522062 0
0.082843 0.475484 0
0.128863 0.498019 0
0.121762 0.445221 0
0.0862476 0.666665 0
0.0463555 0.786985 0
0.0909216 0.811911 0
0.0916507 0.86627 0
0.141146 0.879699 0
0.107527 0.916127 0
0.0405556 0.88346 0
0.747203 0.953793 0
0.0431872 0.642856 0
0.132282 0.546725 0
0.17341 0.47619 0
0.135191 0.397246 0
0.0916056 0.405452 0
0.102704 0.363499 0
0.0408778 0.45465 0
0.917521 0.190476 0
0.917521 0.238095 0
0.917699 0.095545 0
0.922434 0.0438574 0
0.958761 0.214286 0
0.753054 0.09607 0
0.747304 0.0460679 0
0.422753 0.856801 0
0.424977 0.911285 0
0.340172 0.190476 0
0.298932 0.166667 0
0.340171 0.142857 0
0.257693 0.190476 0
0.257693 0.142857 0
0.216453 0.166667 0
0.216453 0.119048 0
0.175214 0.142857 0
0.175214 0.190476 0
0.132568 0.16638 0
0.13374 0.214238 0
0.132905 0.119335 0
0.256979 0.0964733 0
0.215249 0.0725897 0
0.0912967 0.190193 0
0.0908814 0.237963 0
0.133627 0.261875 0
0.0927353 0.285714 0
0.25949 0.046215 0
0.0467232 0.214029 0
0.0902435 0.140623 0
0.0903639 0.0859824 0
0.0431297 0.116919 0
0.0455152 0.261646 0
0.381411 0.166667 0
0.38141 0.119048 0
0.337816 0.0887652 0
0.42265 0.190476 0
0.422667 0.809467 0
0.917521 0.619048 0
0.262095 0.95935 0
0.752642 0.142973 0
0.29892 0.5 0
0.670086 0.857143 0
0.628197 0.879827 0
0.668882 0.91153 0
0.711325 0.642857 0
0.711325 0.690476 0
0.670086 0.666667 0
0.257706 0.809336 0
0.546368 0.309524 0
0.505128 0.333333 0
0.587607 0.333333 0
0.463889 0.309524 0
0.463889 0.357143 0
0.505128 0.380952 0
0.42265 0.333333 0
0.42265 0.380952 0
0.643368 0.0419369 0
0.958761 0.642857 0
0.917521 0.571429 0
0.793803 0.785714 0
0.505553 0.90371 0
0.546892 0.927797 0
0.587607 0.904762 0
0.958967 0.119406 0
0.958761 0.452381 0
0.917521 0.428571 0
0.917521 0.380952 0
0.876282 0.404762 0
0.876282 0.452381 0
0.835043 0.428571 0
0.835043 0.47619 0
0.793803 0.452381 0
0.835043 0.380952 0
0.876282 0.5 0
0.793803 0.5 0
0.752564 0.47619 0
0.752564 0.428571 0
0.711325 0.452381 0
0.711325 0.404762 0
0.670086 0.428571 0
0.711325 0.5 0
0.643368 0.958063 0
0.357143 0.958761 0
0.175188 0.714323 0
0.670086 0.47619 0
0.628846 0.404762 0
0.587607 0.428571 0
0.88581 0.956403 0
0.0397655 0.355888 0
0.546368 0.547619 0
0.793803 0.547619 0
0.835043 0.52381 0
0.711338 0.166686 0
0.917521 0.47619 0
0.118086 0.0417648 0
0.357143 0.0412393 0
0.451602 0.0410397 0
0.426006 0.0864667 0
0.958985 0.880563 0
0.122444 0.959548 0
0.505128 0.761905 0
0.451319 0.957967 0
0.214454 0.958973 0
0.238608 0.921625 0
0.193125 0.921229 0
0.463889 0.595238 0
0.711325 0.880952 0
0.38141 0.690476 0
0.793812 0.166663 0
0.587499 0.856955 0
0.546368 0.357143 0
0.958761 0.547619 0
0.958761 0.357143 0
0.917521 0.333333 0
0.876282 0.357143 0
0.876282 0.309524 0
0.175524 0.285721 0
0.381411 0.357143 0
0.381411 0.404762 0
0.340172 0.380952 0
0.793803 0.690476 0
0.298964 0.357143 0
0.876282 0.738095 0
0.42265 0.428571 0
0.340171 0.714286 0
0.42265 0.714286 0
0.793803 0.404762 0
0.793803 0.357143 0
0.216449 0.690482 0
0.587607 0.571429 0
0.340166 0.47619 0
0.505128 0.619048 0
0.175173 0.238083 0
0.917521 0.52381 0
0.381412 0.309524 0
0.833738 0.903234 0
0.876282 0.547619 0
0.546368 0.595238 0
0.587607 0.619048 0
0.463892 0.785705 0
0.422653 0.761894 0
0.298932 0.595238 0
0.257705 0.238095 0
0.628846 0.309524 0
0.876282 0.595238 0
0.670086 0.619048 0
0.340168 0.52381 0
0.129303 0.316369 0
0.258222 0.85424 0
0.587607 0.666667 0
0.711327 0.214289 0
0.340171 0.571429 0
0.587589 0.190507 0
0.298932 0.119048 0
0.958761 0.785714 0
0.628846 0.690476 0
0.628846 0.642857 0
0.216453 0.214284 0
0.628846 0.738095 0
0.174654 0.571022 0
0.175214 0.0952381 0
0.917585 0.142968 0
0.132606 0.690519 0
0.298743 0.832499 0
0.670086 0.714286 0
0.546352 0.166766 0
0.711325 0.738095 0
0.298932 0.404762 0
0.505138 0.190523 0
0.423368 0.141325 0
0.42265 0.47619 0
0.463889 0.404762 0
0.340167 0.428571 0
0.381409 0.452381 0
0.752564 0.714286 0
0.505128 0.428571 0
0.464098 0.166461 0
0.917521 0.809524 0
0.917426 0.856848 0
0.546368 0.404762 0
0.793803 0.738095 0
0.914208 0.911294 0
0.835043 0.761905 0
0.587607 0.380952 0
0.876282 0.785714 0
0.628846 0.357143 0
0.835043 0.333333 0
0.793803 0.309524 0
0.958761 0.261905 0
0.752564 0.380952 0
0.876282 0.261905 0
0.711325 0.357143 0
0.917521 0.285714 0
0.670086 0.380952 0
0.215205 0.879171 0
0.96104 0.928126 0
0.0740188 0.954296 0
0.177437 0.37983 0
0.177479 0.85322 0
0.285714 0.922377 0
0.0801454 0.329725 0
[...]
CELL_DATA 1026
VECTORS velocity double
0.736432 0.0149211 0
0.73666 -0.014893 0
0.825456 0.0185733 0
0.656543 -0.0935339 0
0.82552 0.021436 0
0.422971 0.192881 0
0.1905 -0.104238 0
0.500443 -0.058124 0
0.496605 0.0582186 0
0.54298 0.215856 0
0.577955 0.0475543 0
0.73291 -0.030193 0
0.732427 0.0302778 0
0.489838 0.0717123 0
1.43937 -0.21016 0
1.70651 -0.0729336 0
0.404489 -0.210175 0
0.80853 0.236198 0
0.28027 0.1894 0
0.670686 -0.0878709 0
0.243787 -0.137079 0
0.750314 0.0248665 0
0.750709 -0.0248213 0
0.782005 0.270866 0
1.07246 0.279795 0
0.930916 0.272924 0
1.72119 0.146956 0
0.782551 -0.271356 0
1.44743 -0.199547 0
1.19836 -0.256824 0
0.35141 -0.0869078 0
0.20828 -0.0855521 0
0.742851 -0.00780205 0
0.742728 0.00782789 0
1.65703 0.182186 0
0.496403 -0.0692624 0
0.695224 -0.044267 0
0.693826 0.044212 0
1.0725 -0.255876 0
0.603358 0.0574679 0
1.93239 0.0840912 0
1.40715 0.210523 0
1.75738 -0.042197 0
1.75721 0.0321226 0
0.497639 -0.183926 0
0.814827 -0.00450273 0
0.656409 -0.0478568 0
0.655321 0.0480126 0
0.562172 -0.218316 0
0.731111 -0.0358523 0
0.730543 0.0360026 0
0.282928 -0.186916 0
0.429284 -0.199753 0
0.218991 0.0856104 0
0.701584 0.219133 0
1.67653 -0.109301 0
0.609101 -0.0801632 0
1.87617 0.000686147 0
0.412177 -0.0355682 0
1.31988 0.242253 0
1.80731 0.117413 0
0.378752 -0.0191928 0
0.402371 0.211909 0
0.209811 0.152629 0
1.20028 0.257528 0
1.21191 0.269598 0
0.65507 -0.253076 0
0.664921 -0.239573 0
0.657823 0.25221 0
0.81116 -0.0243596 0
0.931531 -0.272092 0
0.579698 -0.20715 0
0.803676 0.246988 0
0.820976 -0.00834225 0
0.370905 -0.156651 0
1.89026 0.0404134 0
0.225798 0.105208 0
1.54981 0.20304 0
1.85324 0.120628 0
1.93628 0.0439161 0
1.51616 0.195976 0
1.30675 0.230523 0
1.74114 -0.0023188 0
0.931025 -0.259389 0
0.749661 -0.0350843 0
0.749161 0.035141 0
0.335596 -0.0654651 0
0.532403 0.0954055 0
0.803842 -0.0263755 0
0.805331 0.0274616 0
0.257383 -0.104395 0
1.79585 0.0360866 0
0.666541 -0.0322847 0
0.665673 0.0323573 0
0.811921 0.0265467 0
1.31449 -0.232143 0
0.834565 0.0196873 0
0.571152 0.0569525 0
0.529328 -0.0669878 0
0.527232 0.0680217 0
1.31139 -0.245038 0
0.644122 0.0355857 0
0.645019 -0.0354756 0
0.643167 0.0509858 0
1.69677 -0.123728 0
1.83153 -0.000650547 0
0.707965 -0.043872 0
0.706925 0.0439492 0
0.644155 -0.0509304 0
0.329082 -0.0915602 0
1.67141 -0.0329393 0
0.561011 0.202779 0
0.342831 -0.16657 0
1.89758 -0.0390426 0
0.807623 0.0198503 0
1.60933 0.220861 0
1.68969 0.101146 0
1.66869 -0.0674264 0
1.7016 -0.00226157 0
0.662202 0.240396 0
1.07242 -0.278863 0
1.21083 -0.268837 0
1.83178 0.0781789 0
1.44959 0.230721 0
1.47852 0.239651 0
1.69824 0.187362 0
1.70793 0.0652447 0
1.72399 0.106378 0
1.93802 -0.082821 0
1.60914 -0.161359 0
1.7965 -0.041338 0
0.489308 0.182876 0
1.94213 -0.0388109 0
1.85993 -0.117033 0
0.805121 -0.017932 0
1.54609 -0.219361 0
0.442764 -0.060104 0
1.79372 0.0735378 0
0.373085 0.15624 0
1.59876 -0.131995 0
0.942841 -0.0376179 0
0.940629 -0.040419 0
0.968277 -0.038354 0
0.83685 -0.0204431 0
0.855891 -0.0259135 0
1.26965 -0.0247834 0
1.04628 -0.0479651 0
0.914606 -0.0394009 0
1.25699 -0.0234354 0
1.2306 1.01723e-05 0
0.884348 -0.0400514 0
1.21603 -0.0593458 0
1.26259 -0.0377598 0
1.25784 0.0114699 0
1.01858 -0.0474239 0
0.883102 -0.0282638 0
0.672849 0.0892803 0
1.25787 -0.011441 0
1.24157 1.26475e-05 0
1.20316 0.0276977 0
0.911331 -0.0423959 0
0.738366 0.103114 0
0.991647 -0.0426393 0
0.845638 -0.0583244 0
0.833873 0.135983 0
0.898193 -0.0323444 0
0.822136 -0.0495209 0
0.870712 -0.031719 0
1.1843 0.00719112 0
0.887504 -0.0590166 0
0.893913 -0.0346681 0
0.910808 -0.131532 0
0.786445 0.117159 0
0.862326 -0.0242402 0
0.865447 -0.0341943 0
0.882183 -0.0629219 0
0.922565 -0.0612929 0
1.24591 0.0108301 0
1.27573 -0.0398858 0
1.1116 -0.0523028 0
0.826681 -0.143351 0
1.11642 -0.0365996 0
1.14508 -0.0354707 0
1.26827 1.25063e-05 0
1.08976 -0.0621654 0
1.22186 0.00950198 0
1.10037 -0.0298559 0
1.08875 0.0362261 0
1.19974 0.016998 0
0.987809 -0.0737296 0
0.77622 0.123905 0
1.16871 0.0209846 0
1.11167 -0.0340501 0
1.25694 0.0234692 0
1.23501 0.0475394 0
0.714093 0.060514 0
0.809404 0.105908 0
1.01759 -0.0440837 0
1.1923 0.00772061 0
1.1546 0.0179952 0
1.22084 0.0194845 0
0.90741 -0.138818 0
1.11998 0.149806 0
1.17396 0.0136714 0
1.19407 0.0260026 0
1.32168 -0.123529 0
1.16573 -0.124934 0
0.833999 -0.136337 0
1.17317 0.223795 0
1.14172 0.105911 0
1.33896 -0.129857 0
1.10303 -0.127191 0
0.795751 0.0540532 0
0.907361 0.138753 0
1.3002 -0.0279918 0
0.98202 -0.104635 0
1.16575 0.125063 0
1.50634 -0.000391691 0
0.869374 -0.189948 0
1.18163 -1.24337e-05 0
0.1652 -0.0406799 0
1.12721 0.0283092 0
0.991298 0.0423882 0
0.873887 0.179939 0
0.89412 -0.154081 0
0.987578 -0.0781807 0
1.10297 0.127343 0
0.736184 0.144161 0
1.2774 0.209479 0
1.01543 0.0385053 0
0.412119 0.030545 0
0.973249 0.145595 0
1.10423 -0.0747398 0
1.13893 -0.0330519 0
1.09699 -0.0423024 0
0.709712 0.0142885 0
1.25424 -0.132673 0
0.642704 0.143505 0
1.53214 -0.000509752 0
0.708075 0.160618 0
0.191962 -0.0210051 0
1.12181 -0.0264685 0
0.321429 0.0166399 0
1.0182 0.047243 0
1.40779 0.11657 0
1.12014 -0.149616 0
0.7881 0.0585392 0
0.799332 0.00561326 0
1.04592 0.0478319 0
1.30101 0.0136844 0
0.869537 0.188787 0
0.898305 0.0828473 0
1.09706 -0.120633 0
1.1418 -0.105757 0
1.08328 -0.101934 0
1.12809 -0.0941702 0
0.902053 0.0483904 0
1.23511 -0.0474803 0
0.377328 0.0158295 0
1.18516 0.049615 0
1.26253 0.0377981 0
1.30102 -0.0136832 0
1.35166 0.0332084 0
0.981825 -0.110677 0
0.866734 0.04869 0
0.879551 -0.0428851 0
0.963406 0.0466838 0
1.20587 -0.106845 0
1.16881 -0.021014 0
1.21204 -0.00891148 0
1.24595 -0.0108017 0
0.922723 -0.0347743 0
1.41349 0.019125 0
1.25453 0.132842 0
0.954093 -0.0659877 0
0.925129 0.0574382 0
1.26188 0.20042 0
0.715201 -0.0603249 0
1.08498 -0.0338687 0
1.14551 0.024376 0
1.09672 0.0422206 0
1.17407 0.0325721 0
1.16647 0.0304587 0
1.22513 0.0315555 0
1.28144 9.32212e-06 0
1.33553 0.0154009 0
1.31527 -0.0295411 0
1.32276 -0.0474241 0
1.18538 0.0953226 0
1.03838 -0.120056 0
1.09436 -0.0660459 0
0.818178 0.0996532 0
0.821549 0.0496193 0
0.842584 -0.0296711 0
1.26569 0.0745411 0
0.879501 0.0427299 0
0.852938 0.122496 0
1.1671 -0.012757 0
1.19954 -2.95216e-06 0
1.212 0.00892006 0
1.30717 0.0449603 0
0.263548 -0.021133 0
1.36715 -6.13419e-05 0
1.39348 0.0181988 0
1.36018 0.0532627 0
1.24114 0.126208 0
1.33974 0.129968 0
1.5691 -0.0554633 0
0.788171 0.0828425 0
0.851917 -0.0389686 0
0.851837 0.0388213 0
0.729314 -0.0779929 0
1.24094 -0.126089 0
1.39341 -0.0184032 0
1.22566 0.172667 0
1.19109 0.0158979 0
0.981583 0.110941 0
0.924427 0.11189 0
1.57051 -0.0275318 0
0.952218 -0.0701175 0
0.881473 0.0630905 0
1.5429 -0.0261048 0
1.59197 0.165978 0
1.15983 -0.0408825 0
0.663383 -0.0101534 0
1.06093 -0.0357866 0
0.300468 0.0337437 0
1.17442 -1.58789e-05 0
1.04221 0.0410624 0
1.15469 -0.0180447 0
1.28678 -0.0129513 0
1.36576 0.104061 0
1.15125 0.194701 0
1.46198 -0.0219072 0
1.29602 0.083742 0
1.37626 -0.144979 0
1.42807 -0.122574 0
1.20476 -0.154603 0
1.17523 -0.131598 0
1.07568 -0.0906874 0
1.12143 -0.0891245 0
0.782249 0.0291996 0
1.19267 -0.22418 0
1.24686 -0.0933471 0
1.23443 -0.0885469 0
1.15172 -0.0262488 0
1.19419 -0.0259932 0
1.18535 -0.0495527 0
0.521718 -0.0123482 0
0.682359 -0.0184452 0
0.716246 -0.00741471 0
1.13091 -0.0214173 0
1.12168 0.0263862 0
1.06075 0.0356401 0
0.781609 0.00643038 0
0.79444 0.0116304 0
0.506669 0.0257058 0
0.430279 0.0157714 0
1.35735 -0.262916 0
1.14564 -0.0244306 0
1.43387 0.0412563 0
0.966807 0.179698 0
1.17608 0.0225256 0
1.32808 -0.173015 0
0.959809 -0.199415 0
1.02874 -0.085214 0
0.909223 0.0735622 0
0.89788 0.0519039 0
0.909885 -0.0733239 0
0.830197 -0.0467154 0
0.766579 -0.185074 0
1.16662 -0.0304739 0
1.17423 -0.0325717 0
0.510033 0.240614 0
0.330762 0.0657599 0
0.577324 -0.0462346 0
1.08109 0.0543818 0
0.826466 0.143086 0
1.59819 -0.0582945 0
1.1935 -0.147015 0
1.03565 -0.113719 0
1.1498 -0.111557 0
1.03314 -0.101372 0
1.18042 -0.0661447 0
1.17148 0.0626068 0
1.18025 0.0662479 0
1.21713 -0.112585 0
1.19981 -0.0169954 0
1.22523 -0.0315153 0
0.120534 -0.0204585 0
0.239062 -0.0428637 0
0.854064 -0.0188272 0
1.15015 0.0111335 0
1.16162 0.00574252 0
1.13082 0.0213462 0
0.8106 0.00870035 0
0.716102 0.00743312 0
0.561037 0.0118019 0
0.588416 0.0228938 0
1.11147 0.033964 0
0.95821 0.198199 0
0.75964 0.19398 0
1.58244 -0.0879953 0
1.39641 -0.152005 0
1.15322 -0.194678 0
0.978164 -0.130613 0
0.902726 -0.0487567 0
0.810844 0.0742094 0
0.64845 -0.183753 0
1.30621 -0.0636677 0
1.17619 -0.0225439 0
0.431179 -0.0168004 0
1.3787 0.0560511 0
1.37808 0.0792222 0
1.03287 0.101615 0
1.61165 -0.0930109 0
0.84501 0.0584945 0
0.796391 -0.0539191 0
0.658619 0.0952003 0
0.737487 -0.102326 0
0.782687 -0.028976 0
0.574564 -0.161828 0
0.711323 -0.220686 0
0.809583 -0.247278 0
1.19233 -0.00773283 0
1.20854 1.53765e-06 0
1.23146 -0.0206578 0
0.548934 -0.0218858 0
0.814768 0.00373595 0
0.356758 0.0322583 0
1.69148 -0.187814 0
1.16721 0.0435709 0
1.11673 0.055759 0
1.20169 0.0396347 0
1.28225 0.148538 0
1.42953 0.122403 0
0.889847 0.162475 0
0.850543 0.20749 0
0.718315 0.209038 0
1.08808 0.10786 0
0.838214 0.0890689 0
0.967351 -0.170665 0
1.04699 -0.157575 0
0.894269 -0.0873274 0
0.86869 -0.0706034 0
1.02293 0.0670785 0
0.756604 -0.194385 0
1.16704 0.0127197 0
1.17403 -0.0137009 0
1.18433 -0.00721201 0
0.462934 -0.027212 0
1.4744 -0.246246 0
0.769124 0.183998 0
1.06404 0.222352 0
0.693657 0.167605 0
0.973202 0.153337 0
1.05904 -0.194092 0
1.061 -0.214686 0
0.803502 -0.159167 0
0.960289 -0.0542035 0
0.819717 0.0705221 0
0.867997 0.0708482 0
0.921888 0.0613276 0
1.18324 0.233606 0
0.96389 -0.0469239 0
0.820508 -0.0702535 0
0.810466 -0.037586 0
0.736087 -0.144478 0
0.747973 -0.136727 0
0.613966 -0.103702 0
0.536514 -0.132058 0
0.459196 -0.111775 0
0.816355 -0.236947 0
1.25258 -0.0706329 0
0.115302 0.118971 0
1.06756 0.0406609 0
1.12736 -0.0283836 0
1.15962 0.040892 0
1.19239 0.0373202 0
1.33552 -0.0154531 0
1.19356 0.147268 0
1.47867 0.136657 0
1.09698 0.120804 0
0.747593 0.136359 0
1.23445 0.0886214 0
1.0754 0.0908901 0
0.936027 0.0943305 0
1.59537 -0.00089973 0
0.89022 -0.162579 0
0.794956 -0.167788 0
1.02697 -0.080435 0
0.94624 -0.0789951 0
1.02491 -0.071203 0
0.8618 0.0752345 0
0.921477 0.118269 0
0.88676 0.0590938 0
0.94494 0.237201 0
0.978076 0.124041 0
0.978051 0.130789 0
1.32281 0.0473847 0
1.21075 0.0788433 0
0.818957 -0.035941 0
0.7025 -0.15934 0
1.07128 0.0859221 0
0.589141 -0.022706 0
0.690924 0.00866404 0
1.9794 -6.72253e-06 0
1.80652 -0.156721 0
1.38572 -8.85898e-05 0
1.48503 0.0462346 0
1.42207 0.0888625 0
1.32225 0.123603 0
1.37781 0.145235 0
0.95866 0.208125 0
1.05856 0.213253 0
1.24693 0.0934107 0
1.57114 0.0260965 0
1.34707 -0.181049 0
1.16315 -0.204198 0
0.985285 -0.0880598 0
0.92579 -0.0575106 0
0.698857 0.0630502 0
1.50997 0.048493 0
0.715642 -0.0823442 0
0.965035 -0.0436193 0
0.593825 -0.15403 0
0.721488 -0.21123 0
1.16165 -0.00578723 0
0.461554 0.0271411 0
0.261185 0.0178065 0
1.35677 0.262518 0
1.08896 -0.036341 0
1.41273 0.0392532 0
1.42296 0.0629159 0
1.34734 0.0989347 0
1.31159 0.0881834 0
1.05258 0.184503 0
1.16111 0.203989 0
1.44199 0.1694 0
1.59987 0.0566456 0
1.6394 0.0288445 0
1.13993 -0.175242 0
1.05109 -0.165929 0
1.0444 -0.141431 0
1.02152 -0.0587401 0
0.913774 -0.0692785 0
0.612444 0.103718 0
0.751854 0.0978386 0
1.04097 0.13428 0
0.811725 -0.0738624 0
0.927664 0.259906 0
0.830277 -0.0217293 0
0.692021 -0.119941 0
0.477392 -0.0130801 0
0.50679 -0.0254527 0
0.561191 -0.0114685 0
0.681941 0.0185163 0
0.477234 0.0133491 0
1.16888 -0.0061983 0
1.01725 0.0438795 0
1.07055 0.0437525 0
1.20485 0.154981 0
0.874824 0.104086 0
0.845578 0.0840195 0
1.23903 -0.180415 0
1.29729 -0.155588 0
1.26139 -0.201277 0
0.973539 -0.153399 0
1.11705 -0.0557222 0
0.859153 0.116299 0
0.913099 0.0694727 0
0.951593 0.0702692 0
0.935359 -0.0468343 0
0.835307 -0.0315983 0
1.06755 0.255769 0
1.1129 0.142242 0
0.88422 0.0402074 0
0.700096 -0.0627983 0
0.688613 -0.1679 0
0.557588 -0.124116 0
0.84818 -0.208771 0
0.425993 -0.0834055 0
0.766557 0.0661699 0
1.22092 -0.0194609 0
1.36514 -0.104151 0
0.882212 0.028006 0
0.663068 0.0101874 0
0.600483 0.0118159 0
0.521802 0.0128139 0
0.548671 0.0221448 0
1.80622 0.159425 0
1.6093 -0.22541 0
0.51107 -0.240075 0
1.51972 -0.109918 0
1.47644 -0.136288 0
1.10977 -0.0791298 0
0.707664 0.114929 0
0.953459 0.066064 0
0.845742 0.0419304 0
1.54337 0.0249991 0
0.522947 -0.176338 0
1.1357 0.0672646 0
0.991399 0.0394673 0
1.35242 -0.0163048 0
1.29806 0.156075 0
1.34815 0.181889 0
0.844156 0.217036 0
0.943376 0.0840442 0
1.28169 -0.148203 0
1.11302 -0.142114 0
0.978206 -0.123817 0
1.0716 -0.0857252 0
0.987252 0.0738924 0
0.755416 0.070804 0
0.81062 0.0379915 0
0.934832 0.046551 0
0.861361 -0.0516983 0
0.632273 -0.193005 0
1.06849 -0.223941 0
1.23622 -0.0333837 0
1.20027 0.0746813 0
0.193483 0.0197844 0
1.44484 0.0661138 0
1.27482 0.104789 0
1.12908 0.0634448 0
1.52209 0.109528 0
1.58478 0.0867943 0
1.20592 0.106949 0
1.14976 0.111707 0
1.03824 0.120272 0
1.67268 0.0301215 0
0.93336 0.0998689 0
0.9846 0.0934845 0
1.62572 -0.00118208 0
1.63813 -0.0312718 0
1.08823 -0.107667 0
0.98503 -0.0932006 0
0.943938 -0.0837655 0
0.989618 -0.0610698 0
0.945651 0.0792403 0
1.30629 0.0636505 0
0.768079 -0.066019 0
0.756868 -0.070469 0
1.04426 0.141503 0
1.68349 0.142176 0
0.638068 -0.140488 0
0.784681 -0.11671 0
0.910831 0.131587 0
1.18543 -0.0952007 0
1.26566 -0.0745012 0
1.2219 -0.00948504 0
1.20328 -0.0276763 0
0.380666 0.0774603 0
1.36955 0.0349588 0
1.46215 0.0214077 0
1.28961 0.110319 0
1.39835 0.152381 0
1.23896 0.181168 0
1.32977 0.173671 0
1.22559 -0.172109 0
1.13129 -0.16674 0
0.880916 -0.0978635 0
0.860783 0.051784 0
0.948263 -0.228913 0
1.19915 -0.23675 0
1.2893 -0.110281 0
1.37768 -0.0793995 0
1.05566 0.063177 0
1.10112 0.045356 0
1.13348 0.0454049 0
1.23613 0.0334278 0
1.05053 0.166127 0
1.50413 0.143127 0
0.873839 -0.1803 0
1.0617 -0.0716755 0
1.56079 0.159317 0
0.83894 -0.0886039 0
0.948173 -0.239263 0
1.06356 -0.246985 0
0.707213 -0.11444 0
1.17596 -0.090208 0
1.27461 -0.104752 0
1.40666 -0.116691 0
0.691124 -0.00862634 0
0.709992 -0.0142462 0
1.14803 -0.0168357 0
1.07733 0.0508087 0
1.11128 0.0523082 0
1.14741 0.0519952 0
0.893766 0.153971 0
1.03547 0.113941 0
1.12793 0.0943379 0
0.981714 0.104932 0
0.880319 0.0982716 0
0.898934 -0.0825304 0
0.77778 0.0874582 0
0.862513 -0.074928 0
0.84633 -0.0836199 0
0.837838 -0.0618669 0
0.842809 -0.217896 0
1.34688 -0.0990094 0
1.19117 -0.0159058 0
1.1584 0.0803033 0
0.897349 0.0321125 0
0.239177 0.0383641 0
0.796158 0.168419 0
0.973469 -0.14562 0
1.61367 0.127996 0
0.655029 -0.133972 0
1.15159 0.0262041 0
0.600945 -0.0117774 0
1.04019 0.0382341 0
0.922006 0.0346648 0
1.23139 0.0206881 0
1.22384 0.0449484 0
1.28677 0.0129666 0
1.30018 0.0279934 0
1.31341 -7.08495e-06 0
1.26149 0.0536262 0
1.22693 0.0627818 0
1.21591 0.0594252 0
1.44419 0.0933565 0
1.13092 0.167092 0
1.61551 0.090843 0
1.04658 0.157687 0
1.67326 0.0624049 0
1.03065 0.0960926 0
1.05371 -0.184513 0
0.936548 -0.0940013 0
0.727952 0.0785064 0
0.788781 -0.0583877 0
0.455398 -0.151066 0
1.32199 -0.0670973 0
1.27483 0.0565824 0
1.08479 0.0337475 0
1.11621 0.0365268 0
1.35245 0.0162158 0
1.35935 0.0753022 0
1.48575 0.0224412 0
1.17528 0.131738 0
0.966628 0.170676 0
0.960368 -0.210011 0
1.04106 -0.134155 0
1.03097 -0.0958453 0
0.714417 0.0829509 0
0.867347 -0.0488566 0
0.599068 -0.111825 0
0.781473 -0.00552432 0
1.1502 -0.0111858 0
1.14795 0.0167787 0
1.10024 0.0297531 0
1.16885 0.00616059 0
1.15468 0.0552411 0
1.19436 0.0525778 0
1.13936 0.175702 0
1.08308 0.102135 0
1.12122 0.0892936 0
1.06508 -0.076002 0
0.656704 0.134792 0
1.21083 -0.0787462 0
0.991707 -0.0396925 0
1.15677 -2.3114e-05 0
1.04817 0.0514067 0
0.944463 0.226593 0
1.02344 -0.0670069 0
0.958785 -0.0579803 0
0.932839 -0.0502515 0
1.28407 -0.214235 0
0.845501 -0.0416788 0
1.32211 0.0670507 0
1.10949 0.0792879 0
1.26961 0.0248127 0
1.27569 0.0399144 0
1.32909 -1.95918e-05 0
1.49605 0.104477 0
0.967688 -0.179776 0
0.69213 0.120022 0
1.05895 0.243843 0
1.25256 0.0706877 0
0.819042 0.0365017 0
0.384711 0.0612124 0
1.07084 -0.0438703 0
1.4336 -0.0416308 0
0.967922 0.0381142 0
1.15044 0.0759654 0
1.3516 -0.0333015 0
1.57054 0.0541605 0
0.984814 0.0883252 0
0.989461 -0.0650783 0
1.07768 -0.0508688 0
0.829657 0.0468492 0
1.38387 0.201087 0
1.12754 0.0424422 0
1.31527 0.029521 0
0.804295 0.159398 0
1.52302 0.0776908 0
0.875328 -0.103663 0
0.898552 -0.0520622 0
1.49447 -0.104907 0
1.29587 -0.0837465 0
1.35906 -0.0754326 0
1.41253 -0.0395371 0
1.37848 -0.0562308 0
1.46622 0.177273 0
0.809945 -0.105231 0
1.06469 0.0761605 0
1.45282 -0.000223465 0
1.05737 0.193664 0
0.893663 0.0876655 0
0.4804 -0.143113 0
0.43134 -0.116158 0
1.21722 0.112686 0
0.837191 0.0620388 0
1.17586 0.0903364 0
0.987045 0.0783868 0
0.598175 0.111509 0
1.02442 0.0713263 0
1.4134 -0.0194025 0
1.08938 0.0622257 0
1.02832 0.0854374 0
1.49721 0.074076 0
0.774335 -0.123748 0
1.10391 0.0748841 0
1.58365 0.122012 0
0.924719 -0.111541 0
0.910859 0.0421629 0
0.778872 -0.086878 0
1.08146 -0.0544041 0
1.02652 0.0806336 0
0.921652 -0.117975 0
0.85254 -0.122233 0
0.933835 -0.0995164 0
1.49616 -0.0747191 0
0.964602 0.0433225 0
1.42129 -0.0891532 0
1.42252 -0.0632468 0
1.14489 0.0354382 0
1.52165 -0.0784203 0
0.789179 -0.0822745 0
0.751195 -0.0968939 0
0.818987 -0.0991114 0
1.48552 -0.0230818 0
1.36003 -0.0533885 0
1.4432 -0.0937113 0
1.44426 -0.0665376 0
1.04856 -0.051511 0
1.31137 -0.0882105 0
0.942398 0.0373704 0
1.4309 -0.000171578 0
0.990427 0.0493314 0
1.36945 -0.0350994 0
1.50929 -0.0492824 0
1.48452 -0.0468684 0
0.859068 -0.115849 0
1.14766 -0.0519491 0
0.988889 0.0651173 0
1.13374 -0.0454112 0
1.13875 0.0330034 0
1.094 0.06614 0
1.01983 0.0548026 0
1.05287 0.0592399 0
1.15493 -0.0551744 0
1.27484 -0.056552 0
0.892897 0.034282 0
1.13597 -0.0671534 0
1.0561 -0.0631355 0
1.1014 -0.0454151 0
1.16741 -0.043542 0
0.932278 0.0499824 0
1.06129 0.0718034 0
0.940206 0.0400453 0
1.01568 -0.0387022 0
1.30715 -0.044972 0
0.958184 0.0578776 0
0.959727 0.0540199 0
1.02029 -0.0549136 0
0.914035 0.0391077 0
1.15857 -0.0801677 0
1.26154 -0.0535821 0
1.02103 0.058687 0
1.15065 -0.0758326 0
1.20183 -0.03959 0
0.990871 -0.0495301 0
0.990294 0.0530229 0
0.989056 0.0610336 0
0.86682 0.0308034 0
1.12779 -0.0424729 0
1.0533 -0.059248 0
1.20038 -0.0745787 0
0.862902 0.0336896 0
1.22396 -0.0448898 0
0.990776 -0.0531969 0
1.19255 -0.0372873 0
1.12937 -0.0633523 0
1.04043 -0.0384059 0
1.17168 -0.0625105 0
1.06782 -0.0407958 0
1.22702 -0.0627056 0
1.04249 -0.0412359 0
1.19453 -0.0525054 0
0.597543 0.153045 0
0.551671 0.139398 0
1.45318 -0.237418 0
0.122573 0.0239847 0
0.853541 0.0187291 0
0.854248 0.025892 0
0.335221 0.169116 0
1.43805 -0.167261 0
1.57357 -0.123757 0
0.358938 -0.0295709 0
0.327743 0.150416 0
0.527257 0.173349 0
0.639359 0.191801 0
0.429907 0.0744455 0
0.33333 -0.134418 0
1.53377 -0.204858 0
0.780527 -0.0462488 0
0.779974 0.0463369 0
0.775343 0.0312457 0
0.775762 -0.0311513 0
0.571176 -0.0555448 0
0.438752 0.106494 0
0.608596 0.0411491 0
0.48049 0.119149 0
0.861615 0.0240708 0
0.169011 0.0457318 0
1.39658 -0.19935 0
1.49933 -0.141704 0
0.275046 0.0957037 0
0.756945 -0.0505346 0
0.75631 0.0507074 0
0.649845 0.0758814 0
0.450067 -0.0822762 0
0.538601 -0.0958507 0
0.608997 -0.0407414 0
0.792031 -0.0101493 0
0.296329 -0.0352099 0
0.619986 -0.0191591 0
0.654019 -0.0155139 0
0.653524 0.0155473 0
0.619383 0.0192397 0
0.842497 0.0295292 0
0.275418 0.0742143 0
0.702512 -0.0318418 0
0.701813 0.0319628 0
0.831685 -0.0153501 0
0.836637 0.00659484 0
0.82808 -0.00354075 0
0.0434224 0.0159255 0
0.837266 -0.00664943 0
0.827769 0.00340246 0
0.0280598 0.0459659 0
0.26823 -0.0732705 0
0.608934 0.0815839 0
0.785609 -0.0197798 0
0.785882 0.0202938 0
1.76852 -0.136289 0
0.0433835 -0.0152481 0
0.0276432 -0.0459133 0
0.659897 0.184308 0
0.58529 -0.088425 0
0.584673 0.0898765 0
0.649421 -0.0748951 0
0.436689 0.0583054 0
1.83025 -0.111383 0
0.375751 -0.0602734 0
0.20881 -0.150059 0
0.581814 0.162393 0
0.187071 0.106924 0
0.794462 -0.0435524 0
0.793948 0.0436217 0
0.529474 -0.04742 0
0.528549 0.0482541 0