# vtk DataFile Version 3.0
Malha 2D com triângulos: velocidade e pressão
ASCII
DATASET UNSTRUCTURED_GRID

POINTS 400 double
0 0 0
1 0 0
1 1 0
0 1 0
0.0526316 0 0
0.105263 0 0
0.157895 0 0
0.210526 0 0
0.263158 0 0
0.315789 0 0
0.368421 0 0
0.421053 0 0
0.473684 0 0
0.526316 0 0
0.578947 0 0
0.631579 0 0
0.684211 0 0
0.736842 0 0
0.789474 0 0
0.842105 0 0
0.894737 0 0
0.947368 0 0
1 0.0526316 0
1 0.105263 0
1 0.157895 0
1 0.210526 0
1 0.263158 0
1 0.315789 0
1 0.368421 0
1 0.421053 0
1 0.473684 0
1 0.526316 0
1 0.578947 0
1 0.631579 0
1 0.684211 0
1 0.736842 0
1 0.789474 0
1 0.842105 0
1 0.894737 0
1 0.947368 0
0.947368 1 0
0.894737 1 0
0.842105 1 0
0.789474 1 0
0.736842 1 0
0.684211 1 0
0.631579 1 0
0.578947 1 0
0.526316 1 0
0.473684 1 0
0.421053 1 0
0.368421 1 0
0.315789 1 0
0.263158 1 0
0.210526 1 0
0.157895 1 0
0.105263 1 0
0.0526316 1 0
0 0.947368 0
0 0.894737 0
0 0.842105 0
0 0.789474 0
0 0.736842 0
0 0.684211 0
0 0.631579 0
0 0.578947 0
0 0.526316 0
0 0.473684 0
0 0.421053 0
0 0.368421 0
0 0.315789 0
0 0.263158 0
0 0.210526 0
0 0.157895 0
0 0.105263 0
0 0.0526316 0
0.0526316 0.947368 0
0.0526316 0.894737 0
0.0526316 0.842105 0
0.0526316 0.789474 0
0.0526316 0.736842 0
0.0526316 0.684211 0
0.0526316 0.631579 0
0.0526316 0.578947 0
0.0526316 0.526316 0
0.0526316 0.473684 0
0.0526316 0.421053 0
0.0526316 0.368421 0
0.0526316 0.315789 0
0.0526316 0.263158 0
0.0526316 0.210526 0
0.0526316 0.157895 0
0.0526316 0.105263 0
0.0526316 0.0526316 0
0.105263 0.947368 0
0.105263 0.894737 0
0.105263 0.842105 0
0.105263 0.789474 0
0.105263 0.736842 0
0.105263 0.684211 0
0.105263 0.631579 0
0.105263 0.578947 0
0.105263 0.526316 0
0.105263 0.473684 0
0.105263 0.421053 0
0.105263 0.368421 0
0.105263 0.315789 0
0.105263 0.263158 0
0.105263 0.210526 0
0.105263 0.157895 0
0.105263 0.105263 0
0.105263 0.0526316 0
0.157895 0.947368 0
0.157895 0.894737 0
0.157895 0.842105 0
0.157895 0.789474 0
0.157895 0.736842 0
0.157895 0.684211 0
0.157895 0.631579 0
0.157895 0.578947 0
0.157895 0.526316 0
0.157895 0.473684 0
0.157895 0.421053 0
0.157895 0.368421 0
0.157895 0.315789 0
0.157895 0.263158 0
0.157895 0.210526 0
0.157895 0.157895 0
0.157895 0.105263 0
0.157895 0.0526316 0
0.210526 0.947368 0
0.210526 0.894737 0
0.210526 0.842105 0
0.210526 0.789474 0
0.210526 0.736842 0
0.210526 0.684211 0
0.210526 0.631579 0
0.210526 0.578947 0
0.210526 0.526316 0
0.210526 0.473684 0
0.210526 0.421053 0
0.210526 0.368421 0
0.210526 0.315789 0
0.210526 0.263158 0
0.210526 0.210526 0
0.210526 0.157895 0
0.210526 0.105263 0
0.210526 0.0526316 0
0.263158 0.947368 0
0.263158 0.894737 0
0.263158 0.842105 0
0.263158 0.789474 0
0.263158 0.736842 0
0.263158 0.684211 0
0.263158 0.631579 0
0.263158 0.578947 0
0.263158 0.526316 0
0.263158 0.473684 0
0.263158 0.421053 0
0.263158 0.368421 0
0.263158 0.315789 0
0.263158 0.263158 0
0.263158 0.210526 0
0.263158 0.157895 0
0.263158 0.105263 0
0.263158 0.0526316 0
0.315789 0.947368 0
0.315789 0.894737 0
0.315789 0.842105 0
0.315789 0.789474 0
0.315789 0.736842 0
0.315789 0.684211 0
0.315789 0.631579 0
0.315789 0.578947 0
0.315789 0.526316 0
0.315789 0.473684 0
0.315789 0.421053 0
0.315789 0.368421 0
0.315789 0.315789 0
0.315789 0.263158 0
0.315789 0.210526 0
0.315789 0.157895 0
0.315789 0.105263 0
0.315789 0.0526316 0
0.368421 0.947368 0
0.368421 0.894737 0
0.368421 0.842105 0
0.368421 0.789474 0
0.368421 0.736842 0
0.368421 0.684211 0
0.368421 0.631579 0
0.368421 0.578947 0
0.368421 0.526316 0
0.368421 0.473684 0
0.368421 0.421053 0
0.368421 0.368421 0
0.368421 0.315789 0
0.368421 0.263158 0
0.368421 0.210526 0
0.368421 0.157895 0
0.368421 0.105263 0
0.368421 0.0526316 0
0.421053 0.947368 0
0.421053 0.894737 0
0.421053 0.842105 0
0.421053 0.789474 0
0.421053 0.736842 0
0.421053 0.684211 0
0.421053 0.631579 0
0.421053 0.578947 0
0.421053 0.526316 0
0.421053 0.473684 0
0.421053 0.421053 0
0.421053 0.368421 0
0.421053 0.315789 0
0.421053 0.263158 0
0.421053 0.210526 0
0.421053 0.157895 0
0.421053 0.105263 0
0.421053 0.0526316 0
0.473684 0.947368 0
0.473684 0.894737 0
0.473684 0.842105 0
0.473684 0.789474 0
0.473684 0.736842 0
0.473684 0.684211 0
0.473684 0.631579 0
0.473684 0.578947 0
0.473684 0.526316 0
0.473684 0.473684 0
0.473684 0.421053 0
0.473684 0.368421 0
0.473684 0.315789 0
0.473684 0.263158 0
0.473684 0.210526 0
0.473684 0.157895 0
0.473684 0.105263 0
0.473684 0.0526316 0
0.526316 0.947368 0
0.526316 0.894737 0
0.526316 0.842105 0
0.526316 0.789474 0
0.526316 0.736842 0
0.526316 0.684211 0
0.526316 0.631579 0
0.526316 0.578947 0
0.526316 0.526316 0
0.526316 0.473684 0
0.526316 0.421053 0
0.526316 0.368421 0
0.526316 0.315789 0
0.526316 0.263158 0
0.526316 0.210526 0
0.526316 0.157895 0
0.526316 0.105263 0
0.526316 0.0526316 0
0.578947 0.947368 0
0.578947 0.894737 0
0.578947 0.842105 0
0.578947 0.789474 0
0.578947 0.736842 0
0.578947 0.684211 0
0.578947 0.631579 0
0.578947 0.578947 0
0.578947 0.526316 0
0.578947 0.473684 0
0.578947 0.421053 0
0.578947 0.368421 0
0.578947 0.315789 0
0.578947 0.263158 0
0.578947 0.210526 0
0.578947 0.157895 0
0.578947 0.105263 0
0.578947 0.0526316 0
0.631579 0.947368 0
0.631579 0.894737 0
0.631579 0.842105 0
0.631579 0.789474 0
0.631579 0.736842 0
0.631579 0.684211 0
0.631579 0.631579 0
0.631579 0.578947 0
0.631579 0.526316 0
0.631579 0.473684 0
0.631579 0.421053 0
0.631579 0.368421 0
0.631579 0.315789 0
0.631579 0.263158 0
0.631579 0.210526 0
0.631579 0.157895 0
0.631579 0.105263 0
0.631579 0.0526316 0
0.684211 0.947368 0
0.684211 0.894737 0
0.684211 0.842105 0
0.684211 0.789474 0
0.684211 0.736842 0
0.684211 0.684211 0
0.684211 0.631579 0
0.684211 0.578947 0
0.684211 0.526316 0
0.684211 0.473684 0
0.684211 0.421053 0
0.684211 0.368421 0
0.684211 0.315789 0
0.684211 0.263158 0
0.684211 0.210526 0
0.684211 0.157895 0
0.684211 0.105263 0
0.684211 0.0526316 0
0.736842 0.947368 0
0.736842 0.894737 0
0.736842 0.842105 0
0.736842 0.789474 0
0.736842 0.736842 0
0.736842 0.684211 0
0.736842 0.631579 0
0.736842 0.578947 0
0.736842 0.526316 0
0.736842 0.473684 0
0.736842 0.421053 0
0.736842 0.368421 0
0.736842 0.315789 0
0.736842 0.263158 0
0.736842 0.210526 0
0.736842 0.157895 0
0.736842 0.105263 0
0.736842 0.0526316 0
0.789474 0.947368 0
0.789474 0.894737 0
0.789474 0.842105 0
0.789474 0.789474 0
0.789474 0.736842 0
0.789474 0.684211 0
0.789474 0.631579 0
0.789474 0.578947 0
0.789474 0.526316 0
0.789474 0.473684 0
0.789474 0.421053 0
0.789474 0.368421 0
0.789474 0.315789 0
0.789474 0.263158 0
0.789474 0.210526 0
0.789474 0.157895 0
0.789474 0.105263 0
0.789474 0.0526316 0
0.842105 0.947368 0
0.842105 0.894737 0
0.842105 0.842105 0
0.842105 0.789474 0
0.842105 0.736842 0
0.842105 0.684211 0
0.842105 0.631579 0
0.842105 0.578947 0
0.842105 0.526316 0
0.842105 0.473684 0
0.842105 0.421053 0
0.842105 0.368421 0
0.842105 0.315789 0
0.842105 0.263158 0
0.842105 0.210526 0
0.842105 0.157895 0
0.842105 0.105263 0
0.842105 0.0526316 0
0.894737 0.947368 0
0.894737 0.894737 0
0.894737 0.842105 0
0.894737 0.789474 0
0.894737 0.736842 0
0.894737 0.684211 0
0.894737 0.631579 0
0.894737 0.578947 0
0.894737 0.526316 0
0.894737 0.473684 0
0.894737 0.421053 0
0.894737 0.368421 0
0.894737 0.315789 0
0.894737 0.263158 0
0.894737 0.210526 0
0.894737 0.157895 0
0.894737 0.105263 0
0.894737 0.0526316 0
0.947368 0.947368 0
0.947368 0.894737 0
0.947368 0.842105 0
0.947368 0.789474 0
0.947368 0.736842 0
0.947368 0.684211 0
0.947368 0.631579 0
0.947368 0.578947 0
0.947368 0.526316 0
0.947368 0.473684 0
0.947368 0.421053 0
0.947368 0.368421 0
0.947368 0.315789 0
0.947368 0.263158 0
0.947368 0.210526 0
0.947368 0.157895 0
0.947368 0.105263 0
0.947368 0.0526316 0

CELLS 722 2888
3 3 58 57
3 58 76 57
3 58 59 76
3 59 77 76
3 59 60 77
3 60 78 77
3 60 61 78
3 61 79 78
3 61 62 79
3 62 80 79
3 62 63 80
3 63 81 80
3 63 64 81
3 64 82 81
3 64 65 82
3 65 83 82
3 65 66 83
3 66 84 83
3 66 67 84
3 67 85 84
3 67 68 85
3 68 86 85
3 68 69 86
3 69 87 86
3 69 70 87
3 70 88 87
3 70 71 88
3 71 89 88
3 71 72 89
3 72 90 89
3 72 73 90
3 73 91 90
3 73 74 91
3 74 92 91
3 74 75 92
3 75 93 92
3 75 0 93
3 0 4 93
3 57 76 56
3 76 94 56
3 76 77 94
3 77 95 94
3 77 78 95
3 78 96 95
3 78 79 96
3 79 97 96
3 79 80 97
3 80 98 97
3 80 81 98
3 81 99 98
3 81 82 99
3 82 100 99
3 82 83 100
3 83 101 100
3 83 84 101
3 84 102 101
3 84 85 102
3 85 103 102
3 85 86 103
3 86 104 103
3 86 87 104
3 87 105 104
3 87 88 105
3 88 106 105
3 88 89 106
3 89 107 106
3 89 90 107
3 90 108 107
3 90 91 108
3 91 109 108
3 91 92 109
3 92 110 109
3 92 93 110
3 93 111 110
3 93 4 111
3 4 5 111
3 56 94 55
3 94 112 55
3 94 95 112
3 95 113 112
3 95 96 113
3 96 114 113
3 96 97 114
3 97 115 114
3 97 98 115
3 98 116 115
3 98 99 116
3 99 117 116
3 99 100 117
3 100 118 117
3 100 101 118
3 101 119 118
3 101 102 119
3 102 120 119
3 102 103 120
3 103 121 120
3 103 104 121
3 104 122 121
3 104 105 122
3 105 123 122
3 105 106 123
3 106 124 123
3 106 107 124
3 107 125 124
3 107 108 125
3 108 126 125
3 108 109 126
3 109 127 126
3 109 110 127
3 110 128 127
3 110 111 128
3 111 129 128
3 111 5 129
3 5 6 129
3 55 112 54
3 112 130 54
3 112 113 130
3 113 131 130
3 113 114 131
3 114 132 131
3 114 115 132
3 115 133 132
3 115 116 133
3 116 134 133
3 116 117 134
3 117 135 134
3 117 118 135
3 118 136 135
3 118 119 136
3 119 137 136
3 119 120 137
3 120 138 137
3 120 121 138
3 121 139 138
3 121 122 139
3 122 140 139
3 122 123 140
3 123 141 140
3 123 124 141
3 124 142 141
3 124 125 142
3 125 143 142
3 125 126 143
3 126 144 143
3 126 127 144
3 127 145 144
3 127 128 145
3 128 146 145
3 128 129 146
3 129 147 146
3 129 6 147
3 6 7 147
3 54 130 53
3 130 148 53
3 130 131 148
3 131 149 148
3 131 132 149
3 132 150 149
3 132 133 150
3 133 151 150
3 133 134 151
3 134 152 151
3 134 135 152
3 135 153 152
3 135 136 153
3 136 154 153
3 136 137 154
3 137 155 154
3 137 138 155
3 138 156 155
3 138 139 156
3 139 157 156
3 139 140 157
3 140 158 157
3 140 141 158
3 141 159 158
3 141 142 159
3 142 160 159
3 142 143 160
3 143 161 160
3 143 144 161
3 144 162 161
3 144 145 162
3 145 163 162
3 145 146 163
3 146 164 163
3 146 147 164
3 147 165 164
3 147 7 165
3 7 8 165
3 53 148 52
3 148 166 52
3 148 149 166
3 149 167 166
3 149 150 167
3 150 168 167
3 150 151 168
3 151 169 168
3 151 152 169
3 152 170 169
3 152 153 170
3 153 171 170
3 153 154 171
3 154 172 171
3 154 155 172
3 155 173 172
3 155 156 173
3 156 174 173
3 156 157 174
3 157 175 174
3 157 158 175
3 158 176 175
3 158 159 176
3 159 177 176
3 159 160 177
3 160 178 177
3 160 161 178
3 161 179 178
3 161 162 179
3 162 180 179
3 162 163 180
3 163 181 180
3 163 164 181
3 164 182 181
3 164 165 182
3 165 183 182
3 165 8 183
3 8 9 183
3 52 166 51
3 166 184 51
3 166 167 184
3 167 185 184
3 167 168 185
3 168 186 185
3 168 169 186
3 169 187 186
3 169 170 187
3 170 188 187
3 170 171 188
3 171 189 188
3 171 172 189
3 172 190 189
3 172 173 190
3 173 191 190
3 173 174 191
3 174 192 191
3 174 175 192
3 175 193 192
3 175 176 193
3 176 194 193
3 176 177 194
3 177 195 194
3 177 178 195
3 178 196 195
3 178 179 196
3 179 197 196
3 179 180 197
3 180 198 197
3 180 181 198
3 181 199 198
3 181 182 199
3 182 200 199
3 182 183 200
3 183 201 200
3 183 9 201
3 9 10 201
3 51 184 50
3 184 202 50
3 184 185 202
3 185 203 202
3 185 186 203
3 186 204 203
3 186 187 204
3 187 205 204
3 187 188 205
3 188 206 205
3 188 189 206
3 189 207 206
3 189 190 207
3 190 208 207
3 190 191 208
3 191 209 208
3 191 192 209
3 192 210 209
3 192 193 210
3 193 211 210
3 193 194 211
3 194 212 211
3 194 195 212
3 195 213 212
3 195 196 213
3 196 214 213
3 196 197 214
3 197 215 214
3 197 198 215
3 198 216 215
3 198 199 216
3 199 217 216
3 199 200 217
3 200 218 217
3 200 201 218
3 201 219 218
3 201 10 219
3 10 11 219
3 50 202 49
3 202 220 49
3 202 203 220
3 203 221 220
3 203 204 221
3 204 222 221
3 204 205 222
3 205 223 222
3 205 206 223
3 206 224 223
3 206 207 224
3 207 225 224
3 207 208 225
3 208 226 225
3 208 209 226
3 209 227 226
3 209 210 227
3 210 228 227
3 210 211 228
3 211 229 228
3 211 212 229
3 212 230 229
3 212 213 230
3 213 231 230
3 213 214 231
3 214 232 231
3 214 215 232
3 215 233 232
3 215 216 233
3 216 234 233
3 216 217 234
3 217 235 234
3 217 218 235
3 218 236 235
3 218 219 236
3 219 237 236
3 219 11 237
3 11 12 237
3 49 220 48
3 220 238 48
3 220 221 238
3 221 239 238
3 221 222 239
3 222 240 239
3 222 223 240
3 223 241 240
3 223 224 241
3 224 242 241
3 224 225 242
3 225 243 242
3 225 226 243
3 226 244 243
3 226 227 244
3 227 245 244
3 227 228 245
3 228 246 245
3 228 229 246
3 229 247 246
3 229 230 247
3 230 248 247
3 230 231 248
3 231 249 248
3 231 232 249
3 232 250 249
3 232 233 250
3 233 251 250
3 233 234 251
3 234 252 251
3 234 235 252
3 235 253 252
3 235 236 253
3 236 254 253
3 236 237 254
3 237 255 254
3 237 12 255
3 12 13 255
3 48 238 47
3 238 256 47
3 238 239 256
3 239 257 256
3 239 240 257
3 240 258 257
3 240 241 258
3 241 259 258
3 241 242 259
3 242 260 259
3 242 243 260
3 243 261 260
3 243 244 261
3 244 262 261
3 244 245 262
3 245 263 262
3 245 246 263
3 246 264 263
3 246 247 264
3 247 265 264
3 247 248 265
3 248 266 265
3 248 249 266
3 249 267 266
3 249 250 267
3 250 268 267
3 250 251 268
3 251 269 268
3 251 252 269
3 252 270 269
3 252 253 270
3 253 271 270
3 253 254 271
3 254 272 271
3 254 255 272
3 255 273 272
3 255 13 273
3 13 14 273
3 47 256 46
3 256 274 46
3 256 257 274
3 257 275 274
3 257 258 275
3 258 276 275
3 258 259 276
3 259 277 276
3 259 260 277
3 260 278 277
3 260 261 278
3 261 279 278
3 261 262 279
3 262 280 279
3 262 263 280
3 263 281 280
3 263 264 281
3 264 282 281
3 264 265 282
3 265 283 282
3 265 266 283
3 266 284 283
3 266 267 284
3 267 285 284
3 267 268 285
3 268 286 285
3 268 269 286
3 269 287 286
3 269 270 287
3 270 288 287
3 270 271 288
3 271 289 288
3 271 272 289
3 272 290 289
3 272 273 290
3 273 291 290
3 273 14 291
3 14 15 291
3 46 274 45
3 274 292 45
3 274 275 292
3 275 293 292
3 275 276 293
3 276 294 293
3 276 277 294
3 277 295 294
3 277 278 295
3 278 296 295
3 278 279 296
3 279 297 296
3 279 280 297
3 280 298 297
3 280 281 298
3 281 299 298
3 281 282 299
3 282 300 299
3 282 283 300
3 283 301 300
3 283 284 301
3 284 302 301
3 284 285 302
3 285 303 302
3 285 286 303
3 286 304 303
3 286 287 304
3 287 305 304
3 287 288 305
3 288 306 305
3 288 289 306
3 289 307 306
3 289 290 307
3 290 308 307
3 290 291 308
3 291 309 308
3 291 15 309
3 15 16 309
3 45 292 44
3 292 310 44
3 292 293 310
3 293 311 310
3 293 294 311
3 294 312 311
3 294 295 312
3 295 313 312
3 295 296 313
3 296 314 313
3 296 297 314
3 297 315 314
3 297 298 315
3 298 316 315
3 298 299 316
3 299 317 316
3 299 300 317
3 300 318 317
3 300 301 318
3 301 319 318
3 301 302 319
3 302 320 319
3 302 303 320
3 303 321 320
3 303 304 321
3 304 322 321
3 304 305 322
3 305 323 322
3 305 306 323
3 306 324 323
3 306 307 324
3 307 325 324
3 307 308 325
3 308 326 325
3 308 309 326
3 309 327 326
3 309 16 327
3 16 17 327
3 44 310 43
3 310 328 43
3 310 311 328
3 311 329 328
3 311 312 329
3 312 330 329
3 312 313 330
3 313 331 330
3 313 314 331
3 314 332 331
3 314 315 332
3 315 333 332
3 315 316 333
3 316 334 333
3 316 317 334
3 317 335 334
3 317 318 335
3 318 336 335
3 318 319 336
3 319 337 336
3 319 320 337
3 320 338 337
3 320 321 338
3 321 339 338
3 321 322 339
3 322 340 339
3 322 323 340
3 323 341 340
3 323 324 341
3 324 342 341
3 324 325 342
3 325 343 342
3 325 326 343
3 326 344 343
3 326 327 344
3 327 345 344
3 327 17 345
3 17 18 345
3 43 328 42
3 328 346 42
3 328 329 346
3 329 347 346
3 329 330 347
3 330 348 347
3 330 331 348
3 331 349 348
3 331 332 349
3 332 350 349
3 332 333 350
3 333 351 350
3 333 334 351
3 334 352 351
3 334 335 352
3 335 353 352
3 335 336 353
3 336 354 353
3 336 337 354
3 337 355 354
3 337 338 355
3 338 356 355
3 338 339 356
3 339 357 356
3 339 340 357
3 340 358 357
3 340 341 358
3 341 359 358
3 341 342 359
3 342 360 359
3 342 343 360
3 343 361 360
3 343 344 361
3 344 362 361
3 344 345 362
3 345 363 362
3 345 18 363
3 18 19 363
3 42 346 41
3 346 364 41
3 346 347 364
3 347 365 364
3 347 348 365
3 348 366 365
3 348 349 366
3 349 367 366
3 349 350 367
3 350 368 367
3 350 351 368
3 351 369 368
3 351 352 369
3 352 370 369
3 352 353 370
3 353 371 370
3 353 354 371
3 354 372 371
3 354 355 372
3 355 373 372
3 355 356 373
3 356 374 373
3 356 357 374
3 357 375 374
3 357 358 375
3 358 376 375
3 358 359 376
3 359 377 376
3 359 360 377
3 360 378 377
3 360 361 378
3 361 379 378
3 361 362 379
3 362 380 379
3 362 363 380
3 363 381 380
3 363 19 381
3 19 20 381
3 41 364 40
3 364 382 40
3 364 365 382
3 365 383 382
3 365 366 383
3 366 384 383
3 366 367 384
3 367 385 384
3 367 368 385
3 368 386 385
3 368 369 386
3 369 387 386
3 369 370 387
3 370 388 387
3 370 371 388
3 371 389 388
3 371 372 389
3 372 390 389
3 372 373 390
3 373 391 390
3 373 374 391
3 374 392 391
3 374 375 392
3 375 393 392
3 375 376 393
3 376 394 393
3 376 377 394
3 377 395 394
3 377 378 395
3 378 396 395
3 378 379 396
3 379 397 396
3 379 380 397
3 380 398 397
3 380 381 398
3 381 399 398
3 381 20 399
3 20 21 399
3 40 382 2
3 382 39 2
3 382 383 39
3 383 38 39
3 383 384 38
3 384 37 38
3 384 385 37
3 385 36 37
3 385 386 36
3 386 35 36
3 386 387 35
3 387 34 35
3 387 388 34
3 388 33 34
3 388 389 33
3 389 32 33
3 389 390 32
3 390 31 32
3 390 391 31
3 391 30 31
3 391 392 30
3 392 29 30
3 392 393 29
3 393 28 29
3 393 394 28
3 394 27 28
3 394 395 27
3 395 26 27
3 395 396 26
3 396 25 26
3 396 397 25
3 397 24 25
3 397 398 24
3 398 23 24
3 398 399 23
3 399 22 23
3 399 21 22
3 21 1 22

CELL_TYPES 722
5
5
5
5
5
5
5
5
5
5
5
5
5
5
5
5
5
5
5
5
5
5
5
5
5
5
5
5
5
5
5
5
5
5
5
5
5
5
5
5
5
5
5
5
5
5
5
5
5
5
5
5
5
5
5
5
5
5
5
5
5
5
5
5
5
5
5
5
5
5
5
5
5
5
5
5
5
5
5
5
5
5
5
5
5
5
5
5
5
5
5
5
5
5
5
5
5
5
5
5
5
5
5
5
5
5
5
5
5
5
5
5
5
5
5
5
5
5
5
5
5
5
5
5
5
5
5
5
5
5
5
5
5
5
5
5
5
5
5
5
5
5
5
5
5
5
5
5
5
5
5
5
5
5
5
5
5
5
5
5
5
5
5
5
5
5
5
5
5
5
5
5
5
5
5
5
5
5
5
5
5
5
5
5
5
5
5
5
5
5
5
5
5
5
5
5
5
5
5
5
5
5
5
5
5
5
5
5
5
5
5
5
5
5
5
5
5
5
5
5
5
5
5
5
5
5
5
5
5
5
5
5
5
5
5
5
5
5
5
5
5
5
5
5
5
5
5
5
5
5
5
5
5
5
5
5
5
5
5
5
5
5
5
5
5
5
5
5
5
5
5
5
5
5
5
5
5
5
5
5
5
5
5
5
5
5
5
5
5
5
5
5
5
5
5
5
5
5
5
5
5
5
5
5
5
5
5
5
5
5
5
5
5
5
5
5
5
5
5
5
5
5
5
5
5
5
5
5
5
5
5
5
5
5
5
5
5
5
5
5
5
5
5
5
5
5
5
5
5
5
5
5
5
5
5
5
5
5
5
5
5
5
5
5
5
5
5
5
5
5
5
5
5
5
5
5
5
5
5
5
5
5
5
5
5
5
5
5
5
5
5
5
5
5
5
5
5
5
5
5
5
5
5
5
5
5
5
5
5
5
5
5
5
5
5
5
5
5
5
5
5
5
5
5
5
5
5
5
5
5
5
5
5
5
5
5
5
5
5
5
5
5
5
5
5
5
5
5
5
5
5
5
5
5
5
5
5
5
5
5
5
5
5
5
5
5
5
5
5
5
5
5
5
5
5
5
5
5
5
5
5
5
5
5
5
5
5
5
5
5
5
5
5
5
5
5
5
5
5
5
5
5
5
5
5
5
5
5
5
5
5
5
5
5
5
5
5
5
5
5
5
5
5
5
5
5
5
5
5
5
5
5
5
5
5
5
5
5
5
5
5
5
5
5
5
5
5
5
5
5
5
5
5
5
5
5
5
5
5
5
5
5
5
5
5
5
5
5
5
5
5
5
5
5
5
5
5
5
5
5
5
5
5
5
5
5
5
5
5
5
5
5
5
5
5
5
5
5
5
5
5
5
5
5
5
5
5
5
5
5
5
5
5
5
5
5
5
5
5
5
5
5
5
5
5
5
5
5
5
5
5
5
5
5
5
5
5
5
5
5
5
5
5
5
5
5
5
5
5
5
5
5
5
5
5
5
5
5
5
5
5
5
5
5
5
5
5
5
5
5
5
5
5
5
5
5
5
5
5
5
5
5
5
5
5
5
5
5
5
5
5
5
5
5
5
5
5
5
5
5
5
5
5
5
5
5
5
5
5
5
5
5
5
5
5
5
5
5
5
5
5
5

CELL_DATA 722
VECTORS velocity double
0.038369 0.0332101 0
0.0831335 0.060015 0
0.128933 0.118745 0
0.200705 0.141688 0
0.311541 0.19415 0
0.404475 0.208454 0
0.569156 0.248456 0
0.672507 0.252758 0
0.874054 0.275966 0
0.97594 0.2698 0
1.19314 0.273529 0
1.28202 0.257687 0
1.49173 0.241396 0
1.55769 0.217717 0
1.73735 0.183062 0
1.77317 0.154206 0
1.90335 0.104886 0
1.90513 0.0740207 0
1.97177 0.0153847 0
1.93926 -0.0141753 0
1.93528 -0.0757166 0
1.87175 -0.10086 0
1.79795 -0.158566 0
1.70986 -0.176638 0
1.57478 -0.224217 0
1.4711 -0.233276 0
1.28998 -0.265578 0
1.1813 -0.264582 0
0.974387 -0.278163 0
0.871909 -0.267064 0
0.662118 -0.260544 0
0.576584 -0.240274 0
0.386921 -0.214445 0
0.327524 -0.1868 0
0.178513 -0.144534 0
0.151622 -0.112052 0
0.0590654 -0.0589235 0
0.0639828 -0.0254196 0
0.118456 0.0297368 0
0.163993 0.0551835 0
0.199068 0.108589 0
0.270635 0.129564 0
0.365185 0.177185 0
0.455962 0.190187 0
0.599902 0.226368 0
0.699879 0.230212 0
0.877899 0.251156 0
0.976108 0.24541 0
1.16905 0.248745 0
1.25487 0.234132 0
1.44174 0.21941 0
1.50607 0.197617 0
1.66637 0.166352 0
1.70255 0.139828 0
1.81857 0.0953513 0
1.82302 0.0670132 0
1.88184 0.0141147 0
1.85436 -0.0129738 0
1.84936 -0.0685608 0
1.79306 -0.0915235 0
1.72472 -0.143746 0
1.64571 -0.160158 0
1.52152 -0.203326 0
1.42829 -0.211443 0
1.26188 -0.240847 0
1.1644 -0.239774 0
0.973978 -0.252205 0
0.882773 -0.241985 0
0.689083 -0.236076 0
0.614105 -0.217728 0
0.438127 -0.194101 0
0.387626 -0.169653 0
0.24818 -0.130924 0
0.227496 -0.103627 0
0.139029 -0.0535501 0
0.148235 -0.024301 0
0.199589 0.0274207 0
0.239766 0.0503945 0
0.273118 0.0991967 0
0.336708 0.118133 0
0.424261 0.161589 0
0.505294 0.173315 0
0.637748 0.206226 0
0.727213 0.209704 0
0.890501 0.228642 0
0.978532 0.223492 0
1.15515 0.226329 0
1.23216 0.213201 0
1.40298 0.199572 0
1.46073 0.179966 0
1.6071 0.151295 0
1.63951 0.12739 0
1.74537 0.0867545 0
1.74913 0.0611523 0
1.80278 0.0129468 0
1.77761 -0.0116099 0
1.77311 -0.0621533 0
1.72178 -0.0830617 0
1.65965 -0.130443 0
1.58764 -0.145488 0
1.47481 -0.184562 0
1.38977 -0.192132 0
1.23872 -0.218658 0
1.1497 -0.217902 0
0.977046 -0.229 0
0.8936 -0.219926 0
0.718201 -0.214409 0
0.649331 -0.197941 0
0.49013 -0.176482 0
0.443247 -0.15434 0
0.316872 -0.119565 0
0.297128 -0.0945061 0
0.216444 -0.0491274 0
0.225053 -0.022325 0
0.271657 0.0248701 0
0.308419 0.0458145 0
0.338171 0.0903793 0
0.396278 0.107603 0
0.475556 0.147248 0
0.549529 0.1579 0
0.669761 0.187882 0
0.751407 0.191034 0
0.899754 0.208253 0
0.980112 0.203567 0
1.14064 0.206114 0
1.21099 0.194175 0
1.36629 0.181747 0
1.41911 0.163913 0
1.55222 0.13782 0
1.58195 0.116066 0
1.67822 0.0791116 0
1.68181 0.0557986 0
1.7306 0.0119748 0
1.70778 -0.0104056 0
1.70364 -0.0563477 0
1.65693 -0.0754291 0
1.60033 -0.118499 0
1.53476 -0.132261 0
1.43199 -0.167779 0
1.35458 -0.174742 0
1.21702 -0.198843 0
1.13607 -0.198229 0
0.978844 -0.208298 0
0.903044 -0.200131 0
0.743315 -0.195108 0
0.680824 -0.180257 0
0.535781 -0.160727 0
0.493315 -0.140708 0
0.378201 -0.109069 0
0.360391 -0.0862918 0
0.286959 -0.0449275 0
0.295132 -0.0205003 0
0.33779 0.0225681 0
0.371088 0.0416279 0
0.398053 0.0822771 0
0.450751 0.0979443 0
0.522867 0.134123 0
0.590015 0.143819 0
0.699449 0.171176 0
0.773609 0.174061 0
0.908648 0.189763 0
0.981692 0.185529 0
1.12783 0.187845 0
1.19183 0.177015 0
1.33321 0.165677 0
1.38131 0.149469 0
1.5025 0.125681 0
1.52961 0.105877 0
1.61726 0.0722021 0
1.62056 0.0509429 0
1.66498 0.0110246 0
1.64421 -0.0094182 0
1.64043 -0.0512449 0
1.59788 -0.0687004 0
1.54635 -0.107883 0
1.48662 -0.120488 0
1.3931 -0.152771 0
1.32259 -0.159161 0
1.19744 -0.181047 0
1.12372 -0.180518 0
0.98072 -0.189654 0
0.911696 -0.182235 0
0.766404 -0.177684 0
0.709502 -0.164172 0
0.577512 -0.146442 0
0.538884 -0.128204 0
0.434131 -0.0994334 0
0.418027 -0.0786579 0
0.351332 -0.040999 0
0.358968 -0.0187851 0
0.397868 0.0204517 0
0.428112 0.0377937 0
0.452494 0.0748425 0
0.500367 0.089086 0
0.565883 0.122087 0
0.626909 0.130902 0
0.726422 0.155878 0
0.793846 0.158497 0
0.916685 0.172852 0
0.983127 0.168994 0
1.11608 0.171148 0
1.17433 0.161283 0
1.30298 0.150991 0
1.34679 0.136221 0
1.45707 0.114578 0
1.48178 0.0965202 0
1.56156 0.0658642 0
1.56459 0.0464675 0
1.60505 0.0101204 0
1.58613 -0.00853497 0
1.58275 -0.046622 0
1.54397 -0.0625423 0
1.49714 -0.0982223 0
1.44271 -0.109704 0
1.35766 -0.1391 0
1.29342 -0.14491 0
1.17959 -0.164842 0
1.11245 -0.16435 0
0.982356 -0.172682 0
0.919531 -0.165925 0
0.787327 -0.161808 0
0.735565 -0.149505 0
0.615444 -0.133388 0
0.580357 -0.116775 0
0.48506 -0.0905852 0
0.470522 -0.0716511 0
0.409978 -0.0373752 0
0.417069 -0.0171925 0
0.452541 0.0185347 0
0.48 0.0343105 0
0.502099 0.0680524 0
0.54557 0.0809967 0
0.60512 0.111074 0
0.66056 0.119084 0
0.751076 0.141873 0
0.812351 0.144241 0
0.924124 0.157367 0
0.984528 0.153837 0
1.10554 0.155857 0
1.15851 0.146854 0
1.27563 0.137536 0
1.31546 0.124065 0
1.41589 0.104399 0
1.43834 0.0879353 0
1.51102 0.0600429 0
1.51372 0.0423657 0
1.55061 0.00927257 0
1.53332 -0.00772103 0
1.53031 -0.0424097 0
1.49494 -0.0569048 0
1.45238 -0.0894043 0
1.40277 -0.0998522 0
1.32542 -0.126629 0
1.2669 -0.13191 0
1.16334 -0.150072 0
1.10221 -0.149615 0
0.983846 -0.15722 0
0.92666 -0.151059 0
0.806368 -0.147334 0
0.759286 -0.136124 0
0.649984 -0.121467 0
0.618119 -0.106332 0
0.531447 -0.0824884 0
0.518321 -0.0652403 0
0.463369 -0.0340518 0
0.469927 -0.0157208 0
0.502251 0.0167984 0
0.527192 0.0311508 0
0.547229 0.0618653 0
0.586711 0.0736301 0
0.640831 0.10102 0
0.691206 0.108304 0
0.773512 0.129073 0
0.829216 0.131225 0
0.930875 0.143205 0
0.985818 0.139989 0
1.09589 0.141861 0
1.14411 0.133661 0
1.25065 0.125212 0
1.28694 0.112939 0
1.3783 0.0950692 0
1.39876 0.0800649 0
1.46488 0.0547012 0
1.46737 0.0385886 0
1.50093 0.0084835 0
1.48522 -0.00700549 0
1.48248 -0.0385709 0
1.45029 -0.0517791 0
1.41157 -0.0813598 0
1.3664 -0.090875 0
1.29603 -0.115254 0
1.24275 -0.120058 0
1.14854 -0.136602 0
1.09288 -0.136178 0
0.985186 -0.143119 0
0.933142 -0.137499 0
0.823694 -0.134128 0
0.780876 -0.12391 0
0.681436 -0.110581 0
0.652498 -0.0967942 0
0.573687 -0.0750908 0
0.561831 -0.0593847 0
0.511957 -0.0310122 0
0.518007 -0.0143645 0
0.547455 0.0152286 0
0.570108 0.0282829 0
0.588288 0.0562331 0
0.624146 0.06692 0
0.673343 0.0918507 0
0.719109 0.0984673 0
0.79396 0.117386 0
0.844589 0.119333 0
0.937061 0.130262 0
0.987023 0.127324 0
1.08717 0.12906 0
1.13103 0.121585 0
1.22797 0.113931 0
1.261 0.102747 0
1.34412 0.086517 0
1.36277 0.0728471 0
1.42293 0.0497923 0
1.4252 0.0351148 0
1.45574 0.00773778 0
1.44144 -0.00636834 0
1.43896 -0.0350831 0
1.40965 -0.0471071 0
1.37443 -0.0740252 0
1.3333 -0.0826811 0
1.26928 -0.104875 0
1.22077 -0.109237 0
1.13505 -0.124309 0
1.08438 -0.123908 0
0.986401 -0.130246 0
0.939039 -0.125115 0
0.839464 -0.122068 0
0.800525 -0.112754 0
0.710069 -0.100639 0
0.68379 -0.088083 0
0.612138 -0.0683362 0
0.601425 -0.0540393 0
0.556161 -0.0282356 0
0.561732 -0.0131168 0
0.588552 0.0138075 0
0.609125 0.0256796 0
0.625624 0.0511056 0
0.658188 0.0608084 0
0.702913 0.0834879 0
0.744492 0.089491 0
0.812565 0.106712 0
0.858581 0.108467 0
0.942695 0.118428 0
0.98813 0.115738 0
1.07923 0.117344 0
1.11915 0.110526 0
1.20734 0.103595 0
1.23742 0.0934038 0
1.31304 0.0786729 0
1.33003 0.0662207 0
1.38476 0.0452794 0
1.38685 0.0319144 0
1.41463 0.00703505 0
1.40162 -0.00580386 0
1.39936 -0.0319096 0
1.37268 -0.0428463 0
1.34064 -0.0673295 0
1.30319 -0.075194 0
1.24494 -0.095392 0
1.20077 -0.0993433 0
1.12278 -0.113074 0
1.07665 -0.112688 0
0.987501 -0.11848 0
0.9444 -0.113791 0
0.853812 -0.111046 0
0.818398 -0.102555 0
0.736126 -0.0915547 0
0.712257 -0.0801219 0
0.647125 -0.0621681 0
0.637439 -0.049159 0
0.596366 -0.0257001 0
0.601492 -0.0119697 0
0.625913 0.0125205 0
0.64459 0.0233145 0
0.659561 0.0464358 0
0.689127 0.0552372 0
0.729792 0.0758559 0
0.76756 0.0812912 0
0.829478 0.0969559 0
0.871297 0.0985246 0
0.947821 0.107597 0
0.989137 0.105124 0
1.07203 0.106609 0
1.10835 0.100383 0
1.1886 0.0941142 0
1.21598 0.0848232 0
1.28478 0.0714673 0
1.30027 0.0601264 0
1.35006 0.0411233 0
1.35199 0.0289607 0
1.37725 0.00637142 0
1.36543 -0.00530285 0
1.36335 -0.0290178 0
1.33908 -0.038952 0
1.30991 -0.0612062 0
1.27582 -0.0683375 0
1.22281 -0.0867114 0
1.18259 -0.0902777 0
1.11161 -0.102785 0
1.06962 -0.102406 0
0.988497 -0.107705 0
0.949268 -0.103414 0
0.866856 -0.100954 0
0.834642 -0.0932118 0
0.759822 -0.0832423 0
0.738134 -0.0728355 0
0.678943 -0.0565309 0
0.670179 -0.0446994 0
0.632924 -0.0233842 0
0.637639 -0.010915 0
0.659872 0.0113538 0
0.676813 0.0211642 0
0.690388 0.0421792 0
0.71722 0.0501522 0
0.754198 0.0688811 0
0.788497 0.0737868 0
0.844829 0.0880221 0
0.882831 0.0894065 0
0.952466 0.0976634 0
0.990038 0.0953723 0
1.06548 0.0967494 0
1.09854 0.0910507 0
1.17156 0.0853943 0
1.19652 0.0769186 0
1.25912 0.0648302 0
1.27326 0.0545031 0
1.31855 0.037285 0
1.32035 0.0262252 0
1.3433 0.00574288 0
1.33258 -0.00485819 0
1.33065 -0.026376 0
1.30858 -0.0353815 0
1.282 -0.0555904 0
1.25098 -0.0620372 0
1.2027 -0.0787414 0
1.16609 -0.0819414 0
1.10147 -0.0933356 0
1.06323 -0.0929481 0
0.989394 -0.0978082 0
0.953681 -0.0938711 0
0.878699 -0.0916886 0
0.849384 -0.0846254 0
0.781345 -0.0756172 0
0.761626 -0.0661475 0
0.707852 -0.0513689 0
0.699915 -0.0406162 0
0.666149 -0.0212668 0
0.670492 -0.00994402 0
0.690729 0.0102947 0
0.706075 0.0192064 0
0.718365 0.0382935 0
0.742696 0.0455001 0
0.776325 0.0624913 0
0.807461 0.0668964 0
0.85873 0.0798156 0
0.893258 0.0810107 0
0.956653 0.0885182 0
0.990825 0.0863734 0
1.05951 0.0876559 0
1.08962 0.0824233 0
1.1561 0.0773394 0
1.17885 0.0695991 0
1.23584 0.0586887 0
1.24876 0.0492865 0
1.28996 0.0337229 0
1.29166 0.0236771 0
1.31252 0.00514379 0
1.30281 -0.0044635 0
1.301 -0.023953 0
1.28094 -0.0320919 0
1.25669 -0.050417 0
1.22846 -0.0562178 0
1.18446 -0.0713896 0
1.15112 -0.0742339 0
1.09226 -0.0846137 0
1.05743 -0.0842003 0
0.990198 -0.0886728 0
0.957669 -0.0850447 0
0.88943 -0.0831395 0
0.862732 -0.0766894 0
0.80086 -0.0685905 0
0.782913 -0.0599765 0
0.734079 -0.046624 0
0.726884 -0.0368625 0
0.696324 -0.0193261 0
0.700337 -0.00904661 0
0.718759 0.00933158 0
0.732625 0.0174201 0
0.74372 0.0347375 0
0.765753 0.0412272 0
0.79634 0.0566127 0
0.824583 0.0605336 0
0.871274 0.0722364 0
0.902641 0.0732273 0
0.960399 0.0800471 0
0.991489 0.0780069 0
1.05408 0.0792136 0
1.08151 0.0743854 0
1.14208 0.0698476 0
1.16286 0.0627681 0
1.21475 0.0529659 0
1.2266 0.0444088 0
1.26409 0.0303931 0
1.26573 0.0212846 0
1.28466 0.00456783 0
1.2759 -0.00411173 0
1.27417 -0.0217168 0
1.25597 -0.0290377 0
1.23379 -0.0456189 0
1.20811 -0.0507993 0
1.16795 -0.0645597 0
1.1376 -0.0670483 0
1.08392 -0.076504 0
1.05219 -0.0760385 0
0.990914 -0.080175 0
0.961261 -0.076807 0
0.899124 -0.0751887 0
0.874777 -0.0692857 0
0.818504 -0.0620639 0
0.802138 -0.0542297 0
0.757817 -0.0422312 0
0.751279 -0.0333849 0
0.723692 -0.0175379 0
0.72742 -0.00820971 0
0.744203 0.00845284 0
0.756677 0.0157816 0
0.766645 0.0314668 0
0.786549 0.0372699 0
0.814375 0.0511626 0
0.839966 0.0545956 0
0.882533 0.0651712 0
0.911025 0.0659279 0
0.963713 0.0721209 0
0.992017 0.0701378 0
1.04912 0.0712948 0
1.07415 0.0668119 0
1.1294 0.0628084 0
1.14841 0.0563247 0