# vtk DataFile Version 3.0
Malha 2D com triângulos e temperatura
ASCII
DATASET UNSTRUCTURED_GRID

POINTS 2500 double
0 0 0
1 0 0
1 1 0
0 1 0
0.0204082 0 0
0.0408163 0 0
0.0612245 0 0
0.0816327 0 0
0.102041 0 0
0.122449 0 0
0.142857 0 0
0.163265 0 0
0.183673 0 0
0.204082 0 0
0.22449 0 0
0.244898 0 0
0.265306 0 0
0.285714 0 0
0.306122 0 0
0.326531 0 0
0.346939 0 0
0.367347 0 0
0.387755 0 0
0.408163 0 0
0.428571 0 0
0.44898 0 0
0.469388 0 0
0.489796 0 0
0.510204 0 0
0.530612 0 0
0.55102 0 0
0.571429 0 0
0.591837 0 0
0.612245 0 0
0.632653 0 0
0.653061 0 0
0.673469 0 0
0.693878 0 0
0.714286 0 0
0.734694 0 0
0.755102 0 0
0.77551 0 0
0.795918 0 0
0.816327 0 0
0.836735 0 0
0.857143 0 0
0.877551 0 0
0.897959 0 0
0.918367 0 0
0.938776 0 0
0.959184 0 0
0.979592 0 0
1 0.0204082 0
1 0.0408163 0
1 0.0612245 0
1 0.0816327 0
1 0.102041 0
1 0.122449 0
1 0.142857 0
1 0.163265 0
1 0.183673 0
1 0.204082 0
1 0.22449 0
1 0.244898 0
1 0.265306 0
1 0.285714 0
1 0.306122 0
1 0.326531 0
1 0.346939 0
1 0.367347 0
1 0.387755 0
1 0.408163 0
1 0.428571 0
1 0.44898 0
1 0.469388 0
1 0.489796 0
1 0.510204 0
1 0.530612 0
1 0.55102 0
1 0.571429 0
1 0.591837 0
1 0.612245 0
1 0.632653 0
1 0.653061 0
1 0.673469 0
1 0.693878 0
1 0.714286 0
1 0.734694 0
1 0.755102 0
1 0.77551 0
1 0.795918 0
1 0.816327 0
1 0.836735 0
1 0.857143 0
1 0.877551 0
1 0.897959 0
1 0.918367 0
1 0.938776 0
1 0.959184 0
1 0.979592 0
0.979592 1 0
0.959184 1 0
0.938776 1 0
0.918367 1 0
0.897959 1 0
0.877551 1 0
0.857143 1 0
0.836735 1 0
0.816327 1 0
0.795918 1 0
0.77551 1 0
0.755102 1 0
0.734694 1 0
0.714286 1 0
0.693878 1 0
0.673469 1 0
0.653061 1 0
0.632653 1 0
0.612245 1 0
0.591837 1 0
0.571429 1 0
0.55102 1 0
0.530612 1 0
0.510204 1 0
0.489796 1 0
0.469388 1 0
0.44898 1 0
0.428571 1 0
0.408163 1 0
0.387755 1 0
0.367347 1 0
0.346939 1 0
0.326531 1 0
0.306122 1 0
0.285714 1 0
0.265306 1 0
0.244898 1 0
0.22449 1 0
0.204082 1 0
0.183673 1 0
0.163265 1 0
0.142857 1 0
0.122449 1 0
0.102041 1 0
0.0816327 1 0
0.0612245 1 0
0.0408163 1 0
0.0204082 1 0
0 0.979592 0
0 0.959184 0
0 0.938776 0
0 0.918367 0
0 0.897959 0
0 0.877551 0
0 0.857143 0
0 0.836735 0
0 0.816327 0
0 0.795918 0
0 0.77551 0
0 0.755102 0
0 0.734694 0
0 0.714286 0
0 0.693878 0
0 0.673469 0
0 0.653061 0
0 0.632653 0
0 0.612245 0
0 0.591837 0
0 0.571429 0
0 0.55102 0
0 0.530612 0
0 0.510204 0
0 0.489796 0
0 0.469388 0
0 0.44898 0
0 0.428571 0
0 0.408163 0
0 0.387755 0
0 0.367347 0
0 0.346939 0
0 0.326531 0
0 0.306122 0
0 0.285714 0
0 0.265306 0
0 0.244898 0
0 0.22449 0
0 0.204082 0
0 0.183673 0
0 0.163265 0
0 0.142857 0
0 0.122449 0
0 0.102041 0
0 0.0816327 0
0 0.0612245 0
0 0.0408163 0
0 0.0204082 0
0.0204082 0.979592 0
0.0204082 0.959184 0
0.0204082 0.938776 0
0.0204082 0.918367 0
0.0204082 0.897959 0
0.0204082 0.877551 0
0.0204082 0.857143 0
0.0204082 0.836735 0
0.0204082 0.816327 0
0.0204082 0.795918 0
0.0204082 0.77551 0
0.0204082 0.755102 0
0.0204082 0.734694 0
0.0204082 0.714286 0
0.0204082 0.693878 0
0.0204082 0.673469 0
0.0204082 0.653061 0
0.0204082 0.632653 0
0.0204082 0.612245 0
0.0204082 0.591837 0
0.0204082 0.571429 0
0.0204082 0.55102 0
0.0204082 0.530612 0
0.0204082 0.510204 0
0.0204082 0.489796 0
0.0204082 0.469388 0
0.0204082 0.44898 0
0.0204082 0.428571 0
0.0204082 0.408163 0
0.0204082 0.387755 0
0.0204082 0.367347 0
0.0204082 0.346939 0
0.0204082 0.326531 0
0.0204082 0.306122 0
0.0204082 0.285714 0
0.0204082 0.265306 0
0.0204082 0.244898 0
0.0204082 0.22449 0
0.0204082 0.204082 0
0.0204082 0.183673 0
0.0204082 0.163265 0
0.0204082 0.142857 0
0.0204082 0.122449 0
0.0204082 0.102041 0
0.0204082 0.0816327 0
0.0204082 0.0612245 0
0.0204082 0.0408163 0
0.0204082 0.0204082 0
0.0408163 0.979592 0
0.0408163 0.959184 0
0.0408163 0.938776 0
0.0408163 0.918367 0
0.0408163 0.897959 0
0.0408163 0.877551 0
0.0408163 0.857143 0
0.0408163 0.836735 0
0.0408163 0.816327 0
0.0408163 0.795918 0
0.0408163 0.77551 0
0.0408163 0.755102 0
0.0408163 0.734694 0
0.0408163 0.714286 0
0.0408163 0.693878 0
0.0408163 0.673469 0
0.0408163 0.653061 0
0.0408163 0.632653 0
0.0408163 0.612245 0
0.0408163 0.591837 0
0.0408163 0.571429 0
0.0408163 0.55102 0
0.0408163 0.530612 0
0.0408163 0.510204 0
0.0408163 0.489796 0
0.0408163 0.469388 0
0.0408163 0.44898 0
0.0408163 0.428571 0
0.0408163 0.408163 0
0.0408163 0.387755 0
0.0408163 0.367347 0
0.0408163 0.346939 0
0.0408163 0.326531 0
0.0408163 0.306122 0
0.0408163 0.285714 0
0.0408163 0.265306 0
0.0408163 0.244898 0
0.0408163 0.22449 0
0.0408163 0.204082 0
0.0408163 0.183673 0
0.0408163 0.163265 0
0.0408163 0.142857 0
0.0408163 0.122449 0
0.0408163 0.102041 0
0.0408163 0.0816327 0
0.0408163 0.0612245 0
0.0408163 0.0408163 0
0.0408163 0.0204082 0
0.0612245 0.979592 0
0.0612245 0.959184 0
0.0612245 0.938776 0
0.0612245 0.918367 0
0.0612245 0.897959 0
0.0612245 0.877551 0
0.0612245 0.857143 0
0.0612245 0.836735 0
0.0612245 0.816327 0
0.0612245 0.795918 0
0.0612245 0.77551 0
0.0612245 0.755102 0
0.0612245 0.734694 0
0.0612245 0.714286 0
0.0612245 0.693878 0
0.0612245 0.673469 0
0.0612245 0.653061 0
0.0612245 0.632653 0
0.0612245 0.612245 0
0.0612245 0.591837 0
0.0612245 0.571429 0
0.0612245 0.55102 0
0.0612245 0.530612 0
0.0612245 0.510204 0
0.0612245 0.489796 0
0.0612245 0.469388 0
0.0612245 0.44898 0
0.0612245 0.428571 0
0.0612245 0.408163 0
0.0612245 0.387755 0
0.0612245 0.367347 0
0.0612245 0.346939 0
0.0612245 0.326531 0
0.0612245 0.306122 0
0.0612245 0.285714 0
0.0612245 0.265306 0
0.0612245 0.244898 0
0.0612245 0.22449 0
0.0612245 0.204082 0
0.0612245 0.183673 0
0.0612245 0.163265 0
0.0612245 0.142857 0
0.0612245 0.122449 0
0.0612245 0.102041 0
0.0612245 0.0816327 0
0.0612245 0.0612245 0
0.0612245 0.0408163 0
0.0612245 0.0204082 0
0.0816327 0.979592 0
0.0816327 0.959184 0
0.0816327 0.938776 0
0.0816327 0.918367 0
0.0816327 0.897959 0
0.0816327 0.877551 0
0.0816327 0.857143 0
0.0816327 0.836735 0
0.0816327 0.816327 0
0.0816327 0.795918 0
0.0816327 0.77551 0
0.0816327 0.755102 0
0.0816327 0.734694 0
0.0816327 0.714286 0
0.0816327 0.693878 0
0.0816327 0.673469 0
0.0816327 0.653061 0
0.0816327 0.632653 0
0.0816327 0.612245 0
0.0816327 0.591837 0
0.0816327 0.571429 0
0.0816327 0.55102 0
0.0816327 0.530612 0
0.0816327 0.510204 0
0.0816327 0.489796 0
0.0816327 0.469388 0
0.0816327 0.44898 0
0.0816327 0.428571 0
0.0816327 0.408163 0
0.0816327 0.387755 0
0.0816327 0.367347 0
0.0816327 0.346939 0
0.0816327 0.326531 0
0.0816327 0.306122 0
0.0816327 0.285714 0
0.0816327 0.265306 0
0.0816327 0.244898 0
0.0816327 0.22449 0
0.0816327 0.204082 0
0.0816327 0.183673 0
0.0816327 0.163265 0
0.0816327 0.142857 0
0.0816327 0.122449 0
0.0816327 0.102041 0
0.0816327 0.0816327 0
0.0816327 0.0612245 0
0.0816327 0.0408163 0
0.0816327 0.0204082 0
0.102041 0.979592 0
0.102041 0.959184 0
0.102041 0.938776 0
0.102041 0.918367 0
0.102041 0.897959 0
0.102041 0.877551 0
0.102041 0.857143 0
0.102041 0.836735 0
0.102041 0.816327 0
0.102041 0.795918 0
0.102041 0.77551 0
0.102041 0.755102 0
0.102041 0.734694 0
0.102041 0.714286 0
0.102041 0.693878 0
0.102041 0.673469 0
0.102041 0.653061 0
0.102041 0.632653 0
0.102041 0.612245 0
0.102041 0.591837 0
0.102041 0.571429 0
0.102041 0.55102 0
0.102041 0.530612 0
0.102041 0.510204 0
0.102041 0.489796 0
0.102041 0.469388 0
0.102041 0.44898 0
0.102041 0.428571 0
0.102041 0.408163 0
0.102041 0.387755 0
0.102041 0.367347 0
0.102041 0.346939 0
0.102041 0.326531 0
0.102041 0.306122 0
0.102041 0.285714 0
0.102041 0.265306 0
0.102041 0.244898 0
0.102041 0.22449 0
0.102041 0.204082 0
0.102041 0.183673 0
0.102041 0.163265 0
0.102041 0.142857 0
0.102041 0.122449 0
0.102041 0.102041 0
0.102041 0.0816327 0
0.102041 0.0612245 0
0.102041 0.0408163 0
0.102041 0.0204082 0
0.122449 0.979592 0
0.122449 0.959184 0
0.122449 0.938776 0
0.122449 0.918367 0
0.122449 0.897959 0
0.122449 0.877551 0
0.122449 0.857143 0
0.122449 0.836735 0
0.122449 0.816327 0
0.122449 0.795918 0
0.122449 0.77551 0
0.122449 0.755102 0
0.122449 0.734694 0
0.122449 0.714286 0
0.122449 0.693878 0
0.122449 0.673469 0
0.122449 0.653061 0
0.122449 0.632653 0
0.122449 0.612245 0
0.122449 0.591837 0
0.122449 0.571429 0
0.122449 0.55102 0
0.122449 0.530612 0
0.122449 0.510204 0
0.122449 0.489796 0
0.122449 0.469388 0
0.122449 0.44898 0
0.122449 0.428571 0
0.122449 0.408163 0
0.122449 0.387755 0
0.122449 0.367347 0
0.122449 0.346939 0
0.122449 0.326531 0
0.122449 0.306122 0
0.122449 0.285714 0
0.122449 0.265306 0
0.122449 0.244898 0
0.122449 0.22449 0
0.122449 0.204082 0
0.122449 0.183673 0
0.122449 0.163265 0
0.122449 0.142857 0
0.122449 0.122449 0
0.122449 0.102041 0
0.122449 0.0816327 0
0.122449 0.0612245 0
0.122449 0.0408163 0
0.122449 0.0204082 0
0.142857 0.979592 0
0.142857 0.959184 0
0.142857 0.938776 0
0.142857 0.918367 0
0.142857 0.897959 0
0.142857 0.877551 0
0.142857 0.857143 0
0.142857 0.836735 0
0.142857 0.816327 0
0.142857 0.795918 0
0.142857 0.77551 0
0.142857 0.755102 0
0.142857 0.734694 0
0.142857 0.714286 0
0.142857 0.693878 0
0.142857 0.673469 0
0.142857 0.653061 0
0.142857 0.632653 0
0.142857 0.612245 0
0.142857 0.591837 0
0.142857 0.571429 0
0.142857 0.55102 0
0.142857 0.530612 0
0.142857 0.510204 0
0.142857 0.489796 0
0.142857 0.469388 0
0.142857 0.44898 0
0.142857 0.428571 0
0.142857 0.408163 0
0.142857 0.387755 0
0.142857 0.367347 0
0.142857 0.346939 0
0.142857 0.326531 0
0.142857 0.306122 0
0.142857 0.285714 0
0.142857 0.265306 0
0.142857 0.244898 0
0.142857 0.22449 0
0.142857 0.204082 0
0.142857 0.183673 0
0.142857 0.163265 0
0.142857 0.142857 0
0.142857 0.122449 0
0.142857 0.102041 0
0.142857 0.0816327 0
0.142857 0.0612245 0
0.142857 0.0408163 0
0.142857 0.0204082 0
0.163265 0.979592 0
0.163265 0.959184 0
0.163265 0.938776 0
0.163265 0.918367 0
0.163265 0.897959 0
0.163265 0.877551 0
0.163265 0.857143 0
0.163265 0.836735 0
0.163265 0.816327 0
0.163265 0.795918 0
0.163265 0.77551 0
0.163265 0.755102 0
0.163265 0.734694 0
0.163265 0.714286 0
0.163265 0.693878 0
0.163265 0.673469 0
0.163265 0.653061 0
0.163265 0.632653 0
0.163265 0.612245 0
0.163265 0.591837 0
0.163265 0.571429 0
0.163265 0.55102 0
[...]
CELL_DATA 2401
VECTORS velocity double
0.0206891 0.0167189 0.0
0.0376811 0.0532082 0.0
0.070466 0.0879557 0.0
0.118259 0.121704 0.0
0.180428 0.15348 0.0
0.255944 0.18278 0.0
0.343552 0.209096 0.0
0.441803 0.23198 0.0
0.549077 0.251041 0.0
0.663612 0.26595 0.0
0.783538 0.276453 0.0
0.906903 0.282368 0.0
1.0317 0.283595 0.0
1.15592 0.280111 0.0
1.27754 0.271978 0.0
1.3946 0.259336 0.0
1.5052 0.242404 0.0
1.60755 0.221473 0.0
1.69999 0.196903 0.0
1.78101 0.169116 0.0
1.84928 0.138589 0.0
1.90368 0.105845 0.0
1.94327 0.0714417 0.0
1.96738 0.0359745 0.0
1.97551 2.9373e-18 0.0
1.96738 -0.0359745 0.0
1.94327 -0.0714417 0.0
1.90368 -0.105845 0.0
1.84928 -0.138589 0.0
1.78101 -0.169116 0.0
1.69999 -0.196903 0.0
1.60755 -0.221473 0.0
1.5052 -0.242404 0.0
1.3946 -0.259336 0.0
1.27754 -0.271978 0.0
1.15592 -0.280111 0.0
1.0317 -0.283595 0.0
0.906903 -0.282368 0.0
0.783538 -0.276453 0.0
0.663612 -0.26595 0.0
0.549077 -0.251041 0.0
0.441803 -0.23198 0.0
0.343552 -0.209096 0.0
0.255944 -0.18278 0.0
0.180428 -0.15348 0.0
0.118259 -0.121704 0.0
0.070466 -0.0879557 0.0
0.0376811 -0.0532082 0.0
0.0206891 -0.0167189 0.0
0.0545246 0.0166265 0.0
0.0705707 0.0518327 0.0
0.101486 0.0852221 0.0
0.146998 0.117657 0.0
0.206464 0.148215 0.0
0.27895 0.176413 0.0
0.363284 0.201749 0.0
0.458091 0.223777 0.0
0.561817 0.242114 0.0
0.672763 0.25644 0.0
0.789109 0.266508 0.0
0.908943 0.272147 0.0
1.0303 0.273263 0.0
1.15117 0.269841 0.0
1.26958 0.261946 0.0
1.38358 0.249718 0.0
1.4913 0.233372 0.0
1.59095 0.213192 0.0
1.68091 0.189526 0.0
1.75971 0.162781 0.0
1.82604 0.133412 0.0
1.87882 0.101918 0.0
1.91719 0.0688216 0.0
1.94051 0.0346784 0.0
1.94836 -1.8841e-16 0.0
1.94051 -0.0346784 0.0
1.91719 -0.0688216 0.0
1.87882 -0.101918 0.0
1.82604 -0.133412 0.0
1.75971 -0.162781 0.0
1.68091 -0.189526 0.0
1.59095 -0.213192 0.0
1.4913 -0.233372 0.0
1.38358 -0.249718 0.0
1.26958 -0.261946 0.0
1.15117 -0.269841 0.0
1.0303 -0.273263 0.0
0.908943 -0.272147 0.0
0.789109 -0.266508 0.0
0.672763 -0.25644 0.0
0.561817 -0.242114 0.0
0.458091 -0.223777 0.0
0.363284 -0.201749 0.0
0.27895 -0.176413 0.0
0.206464 -0.148215 0.0
0.146998 -0.117657 0.0
0.101486 -0.0852221 0.0
0.0705707 -0.0518327 0.0
0.0545246 -0.0166265 0.0
0.0887125 0.015928 0.0
0.104465 0.0500918 0.0
0.134631 0.0822394 0.0
0.17885 0.113483 0.0
0.236436 0.142943 0.0
0.306469 0.170158 0.0
0.387814 0.194638 0.0
0.479143 0.215945 0.0
0.578968 0.233697 0.0
0.685663 0.247576 0.0
0.797491 0.257338 0.0
0.912629 0.26281 0.0
1.0292 0.263901 0.0
1.14531 0.260596 0.0
1.25905 0.252961 0.0
1.36857 0.241135 0.0
1.47208 0.225329 0.0
1.56789 0.205824 0.0
1.65441 0.182959 0.0
1.73024 0.157129 0.0
1.79412 0.128776 0.0
1.84501 0.098379 0.0
1.88204 0.0664373 0.0
1.90458 0.0334821 0.0
1.91216 -5.9982e-16 0.0
1.90458 -0.0334821 0.0
1.88204 -0.0664373 0.0
1.84501 -0.098379 0.0
1.79412 -0.128776 0.0
1.73024 -0.157129 0.0
1.65441 -0.182959 0.0
1.56789 -0.205824 0.0
1.47208 -0.225329 0.0
1.36857 -0.241135 0.0
1.25905 -0.252961 0.0
1.14531 -0.260596 0.0
1.0292 -0.263901 0.0
0.912629 -0.26281 0.0
0.797491 -0.257338 0.0
0.685663 -0.247576 0.0
0.578968 -0.233697 0.0
0.479143 -0.215945 0.0
0.387814 -0.194638 0.0
0.306469 -0.170158 0.0
0.236436 -0.142943 0.0
0.17885 -0.113483 0.0
0.134631 -0.0822394 0.0
0.104465 -0.0500918 0.0
0.0887125 -0.015928 0.0
0.12137 0.0155464 0.0
0.136583 0.0484106 0.0
0.165717 0.0794618 0.0
0.208449 0.109569 0.0
0.26406 0.137955 0.0
0.331645 0.164184 0.0
0.410101 0.187791 0.0
0.498151 0.208355 0.0
0.594361 0.225505 0.0
0.69717 0.238929 0.0
0.804908 0.248385 0.0
0.915828 0.253704 0.0
1.02813 0.254791 0.0
1.13998 0.251631 0.0
1.24957 0.244284 0.0
1.3551 0.232884 0.0
1.45485 0.217637 0.0
1.5472 0.198811 0.0
1.63063 0.176738 0.0
1.70376 0.151799 0.0
1.7654 0.12442 0.0
1.81452 0.0950629 0.0
1.85029 0.0642066 0.0
1.87206 0.0323618 0.0
1.8794 -4.87845e-16 0.0
1.87206 -0.0323618 0.0
1.85029 -0.0642066 0.0
1.81452 -0.0950629 0.0
1.7654 -0.12442 0.0
1.70376 -0.151799 0.0
1.63063 -0.176738 0.0
1.5472 -0.198811 0.0
1.45485 -0.217637 0.0
1.3551 -0.232884 0.0
1.24957 -0.244284 0.0
1.13998 -0.251631 0.0
1.02813 -0.254791 0.0
0.915828 -0.253704 0.0
0.804908 -0.248385 0.0
0.69717 -0.238929 0.0
0.594361 -0.225505 0.0
0.498151 -0.208355 0.0
0.410101 -0.187791 0.0
0.331645 -0.164184 0.0
0.26406 -0.137955 0.0
0.208449 -0.109569 0.0
0.165717 -0.0794618 0.0
0.136583 -0.0484106 0.0
0.12137 -0.0155464 0.0
0.153027 0.0152284 0.0
0.167712 0.046719 0.0
0.195853 0.0767688 0.0
0.237162 0.105801 0.0
0.290884 0.133174 0.0
0.356123 0.158465 0.0
0.431801 0.181235 0.0
0.516682 0.201081 0.0
0.609389 0.217644 0.0
0.70842 0.230623 0.0
0.812178 0.239781 0.0
0.918989 0.24495 0.0
1.02712 0.246037 0.0
1.13484 0.243022 0.0
1.24038 0.235961 0.0
1.34204 0.224982 0.0
1.43815 0.210282 0.0
1.52715 0.19212 0.0
1.60758 0.170815 0.0
1.67811 0.146735 0.0
1.73759 0.120289 0.0
1.785 0.0919221 0.0
1.81954 0.0620951 0.0
1.84057 0.0313012 0.0
1.84766 -6.79423e-16 0.0
1.84057 -0.0313012 0.0
1.81954 -0.0620951 0.0
1.785 -0.0919221 0.0
1.73759 -0.120289 0.0
1.67811 -0.146735 0.0
1.60758 -0.170815 0.0
1.52715 -0.19212 0.0
1.43815 -0.210282 0.0
1.34204 -0.224982 0.0
1.24038 -0.235961 0.0
1.13484 -0.243022 0.0
1.02712 -0.246037 0.0
0.918989 -0.24495 0.0
0.812178 -0.239781 0.0
0.70842 -0.230623 0.0
0.609389 -0.217644 0.0
0.516682 -0.201081 0.0
0.431801 -0.181235 0.0
0.356123 -0.158465 0.0
0.290884 -0.133174 0.0
0.237162 -0.105801 0.0
0.195853 -0.0767688 0.0
0.167712 -0.046719 0.0
0.153027 -0.0152284 0.0
0.183598 0.0149616 0.0
0.197762 0.0450337 0.0
0.224931 0.0741494 0.0
0.264851 0.102159 0.0
0.316745 0.128579 0.0
0.379724 0.152985 0.0
0.452733 0.174962 0.0
0.534573 0.194126 0.0
0.623913 0.210131 0.0
0.719312 0.222688 0.0
0.819238 0.231563 0.0
0.922084 0.236594 0.0
1.0262 0.237686 0.0
1.12991 0.234817 0.0
1.23153 0.228038 0.0
1.32943 0.21747 0.0
1.422 0.2033 0.0
1.50775 0.185777 0.0
1.58527 0.165208 0.0
1.65327 0.141946 0.0
1.71063 0.116386 0.0
1.75637 0.0889556 0.0
1.78971 0.0601006 0.0
1.81001 0.0302989 0.0
1.81685 -5.40205e-16 0.0
1.81001 -0.0302989 0.0
1.78971 -0.0601006 0.0
1.75637 -0.0889556 0.0
1.71063 -0.116386 0.0
1.65327 -0.141946 0.0
1.58527 -0.165208 0.0
1.50775 -0.185777 0.0
1.422 -0.2033 0.0
1.32943 -0.21747 0.0
1.23153 -0.228038 0.0
1.12991 -0.234817 0.0
1.0262 -0.237686 0.0
0.922084 -0.236594 0.0
0.819238 -0.231563 0.0
0.719312 -0.222688 0.0
0.623913 -0.210131 0.0
0.534573 -0.194126 0.0
0.452733 -0.174962 0.0
0.379724 -0.152985 0.0
0.316745 -0.128579 0.0
0.264851 -0.102159 0.0
0.224931 -0.0741494 0.0
0.197762 -0.0450337 0.0
0.183598 -0.0149616 0.0
0.213111 0.0147298 0.0
0.226779 0.0433736 0.0
0.253013 0.0716096 0.0
0.291586 0.0986453 0.0
0.341711 0.124167 0.0
0.402508 0.147743 0.0
0.472945 0.168977 0.0
0.551855 0.1875 0.0
0.637954 0.202982 0.0
0.729856 0.21514 0.0
0.826088 0.223751 0.0
0.925113 0.228653 0.0
1.02535 0.229753 0.0
1.12519 0.227027 0.0
1.22303 0.220521 0.0
1.31729 0.210347 0.0
1.40645 0.196685 0.0
1.48905 0.179773 0.0
1.56373 0.159904 0.0
1.62928 0.137418 0.0
1.68458 0.112697 0.0
1.7287 0.0861521 0.0
1.76086 0.0582154 0.0
1.78045 0.0293513 0.0
1.78705 -8.28148e-16 0.0
1.78045 -0.0293513 0.0
1.76086 -0.0582154 0.0
1.7287 -0.0861521 0.0
1.68458 -0.112697 0.0
1.62928 -0.137418 0.0
1.56373 -0.159904 0.0
1.48905 -0.179773 0.0
1.40645 -0.196685 0.0
1.31729 -0.210347 0.0
1.22303 -0.220521 0.0
1.12519 -0.227027 0.0
1.02535 -0.229753 0.0
0.925113 -0.228653 0.0
0.826088 -0.223751 0.0
0.729856 -0.21514 0.0
0.637954 -0.202982 0.0
0.551855 -0.1875 0.0
0.472945 -0.168977 0.0
0.402508 -0.147743 0.0
0.341711 -0.124167 0.0
0.291586 -0.0986453 0.0
0.253013 -0.0716096 0.0
0.226779 -0.0433736 0.0
0.213111 -0.0147298 0.0
0.241589 0.0145248 0.0
0.254799 0.0417512 0.0
0.280145 0.0691559 0.0
0.317422 0.0952635 0.0
0.365841 0.119942 0.0
0.424533 0.142741 0.0
0.49249 0.163282 0.0
0.568576 0.181209 0.0
0.651551 0.196202 0.0
0.740081 0.20799 0.0
0.83275 0.216355 0.0
0.928086 0.221139 0.0
1.02457 0.22225 0.0
1.12067 0.219662 0.0
1.21485 0.213415 0.0
1.30559 0.203617 0.0
1.39143 0.190436 0.0
1.47097 0.174103 0.0
1.54292 0.154896 0.0
1.60607 0.133145 0.0
1.65936 0.109215 0.0
1.7019 0.0835053 0.0
1.7329 0.0564351 0.0
1.7518 0.0284561 0.0
1.75816 -1.17088e-15 0.0
1.7518 -0.0284561 0.0
1.7329 -0.0564351 0.0
1.7019 -0.0835053 0.0
1.65936 -0.109215 0.0
1.60607 -0.133145 0.0
1.54292 -0.154896 0.0
1.47097 -0.174103 0.0
1.39143 -0.190436 0.0
1.30559 -0.203617 0.0
1.21485 -0.213415 0.0
1.12067 -0.219662 0.0
1.02457 -0.22225 0.0
0.928086 -0.221139 0.0
0.83275 -0.216355 0.0
0.740081 -0.20799 0.0
0.651551 -0.196202 0.0
0.568576 -0.181209 0.0
0.49249 -0.163282 0.0
0.424533 -0.142741 0.0
0.365841 -0.119942 0.0
0.317422 -0.0952635 0.0
0.280145 -0.0691559 0.0
0.254799 -0.0417512 0.0
0.241589 -0.0145248 0.0
0.269063 0.0143437 0.0
0.28186 0.0401751 0.0
0.306369 0.0667943 0.0
0.342406 0.0920192 0.0
0.389184 0.115906 0.0
0.445849 0.137979 0.0
0.511413 0.157876 0.0
0.584775 0.17525 0.0
0.664736 0.189793 0.0
0.750009 0.201239 0.0
0.839238 0.209378 0.0
0.931009 0.214055 0.0
1.02387 0.215179 0.0
1.11635 0.212723 0.0
1.20698 0.206722 0.0
1.29431 0.197278 0.0
1.37693 0.184552 0.0
1.45351 0.168763 0.0
1.52278 0.150181 0.0
1.58359 0.12912 0.0
1.63494 0.105934 0.0
1.67592 0.0810108 0.0
1.7058 0.0547565 0.0
1.72401 0.0276119 0.0
1.73015 -1.51242e-15 0.0
1.72401 -0.0276119 0.0
1.7058 -0.0547565 0.0
1.67592 -0.0810108 0.0
1.63494 -0.105934 0.0
1.58359 -0.12912 0.0
1.52278 -0.150181 0.0
1.45351 -0.168763 0.0
1.37693 -0.184552 0.0
1.29431 -0.197278 0.0
1.20698 -0.206722 0.0
1.11635 -0.212723 0.0
1.02387 -0.215179 0.0
0.931009 -0.214055 0.0
0.839238 -0.209378 0.0
0.750009 -0.201239 0.0
0.664736 -0.189793 0.0
0.584775 -0.17525 0.0
0.511413 -0.157876 0.0
0.445849 -0.137979 0.0
0.389184 -0.115906 0.0
0.342406 -0.0920192 0.0
0.306369 -0.0667943 0.0
0.28186 -0.0401751 0.0
0.269063 -0.0143437 0.0
0.295568 0.0141852 0.0
0.308 0.0386504 0.0
0.331731 0.0645289 0.0
0.366588 0.0889156 0.0
0.411792 0.112058 0.0
0.466505 0.133456 0.0
0.529761 0.152756 0.0
0.600493 0.16962 0.0
0.67754 0.183748 0.0
0.759666 0.194881 0.0
0.845567 0.202814 0.0
0.933888 0.207396 0.0
1.02324 0.208535 0.0
1.11222 0.206204 0.0
1.19941 0.200436 0.0
1.28342 0.191325 0.0
1.36292 0.179026 0.0
1.4366 0.163748 0.0
1.50327 0.14575 0.0
1.56182 0.125336 0.0
1.61125 0.10285 0.0
1.65072 0.0786643 0.0
1.6795 0.0531769 0.0
1.69704 0.0268172 0.0
1.70295 -1.46829e-15 0.0
1.69704 -0.0268172 0.0
1.6795 -0.0531769 0.0
1.65072 -0.0786643 0.0
1.61125 -0.10285 0.0
1.56182 -0.125336 0.0
1.50327 -0.14575 0.0
1.4366 -0.163748 0.0
1.36292 -0.179026 0.0
1.28342 -0.191325 0.0
1.19941 -0.200436 0.0
1.11222 -0.206204 0.0
1.02324 -0.208535 0.0
0.933888 -0.207396 0.0
0.845567 -0.202814 0.0
0.759666 -0.194881 0.0
0.67754 -0.183748 0.0
0.600493 -0.16962 0.0
0.529761 -0.152756 0.0
0.466505 -0.133456 0.0
0.411792 -0.112058 0.0
0.366588 -0.0889156 0.0
0.331731 -0.0645289 0.0
0.308 -0.0386504 0.0
0.295568 -0.0141852 0.0
0.321139 0.0140481 0.0
0.33326 0.0371795 0.0
0.356271 0.0623609 0.0
0.390014 0.0859527 0.0
0.433713 0.108398 0.0
0.486547 0.129166 0.0
0.547578 0.147913 0.0
0.615767 0.164308 0.0
0.689997 0.178055 0.0
0.769076 0.188903 0.0
0.851753 0.19665 0.0
0.936731 0.201147 0.0
1.02268 0.202305 0.0
1.10825 0.200094 0.0
1.1921 0.194544 0.0
1.2729 0.185746 0.0
1.34935 0.173846 0.0
1.42023 0.159045 0.0
1.48436 0.141594 0.0
1.54069 0.121787 0.0
1.58827 0.0999543 0.0
1.62625 0.0764609 0.0
1.65395 0.0516932 0.0
1.67083 0.0260705 0.0
1.67652 -1.32658e-15 0.0
1.67083 -0.0260705 0.0
1.65395 -0.0516932 0.0
1.62625 -0.0764609 0.0
1.58827 -0.0999543 0.0
1.54069 -0.121787 0.0
1.48436 -0.141594 0.0
1.42023 -0.159045 0.0
1.34935 -0.173846 0.0
1.2729 -0.185746 0.0
1.1921 -0.194544 0.0
1.10825 -0.200094 0.0
1.02268 -0.202305 0.0
0.936731 -0.201147 0.0
0.851753 -0.19665 0.0
0.769076 -0.188903 0.0
0.689997 -0.178055 0.0
0.615767 -0.164308 0.0
0.547578 -0.147913 0.0
0.486547 -0.129166 0.0
0.433713 -0.108398 0.0
0.390014 -0.0859527 0.0
0.356271 -0.0623609 0.0
0.33326 -0.0371795 0.0
0.321139 -0.0140481 0.0
0.345813 0.0139308 0.0
0.357679 0.035763 0.0
0.380034 0.060289 0.0
0.412727 0.0831278 0.0
0.45499 0.10492 0.0
0.506021 0.1251 0.0
0.564904 0.143335 0.0
0.630635 0.159299 0.0
0.702136 0.172698 0.0
0.778261 0.183287 0.0
0.857811 0.190866 0.0
0.939544 0.19529 0.0
1.02219 0.196469 0.0
1.10446 0.194373 0.0
1.18506 0.189029 0.0
1.26272 0.180523 0.0
1.33622 0.168996 0.0
1.40435 0.154642 0.0
1.46601 0.137702 0.0
1.52018 0.118461 0.0
1.56593 0.0972402 0.0
1.60246 0.0743946 0.0
1.62911 0.0503011 0.0
1.64535 0.0253698 0.0
1.65082 -1.26525e-15 0.0
1.64535 -0.0253698 0.0
1.62911 -0.0503011 0.0
1.60246 -0.0743946 0.0
1.56593 -0.0972402 0.0
1.52018 -0.118461 0.0
1.46601 -0.137702 0.0
1.40435 -0.154642 0.0
1.33622 -0.168996 0.0
1.26272 -0.180523 0.0
1.18506 -0.189029 0.0
1.10446 -0.194373 0.0
1.02219 -0.196469 0.0
0.939544 -0.19529 0.0
0.857811 -0.190866 0.0
0.778261 -0.183287 0.0
0.702136 -0.172698 0.0
0.630635 -0.159299 0.0
0.564904 -0.143335 0.0
0.506021 -0.1251 0.0
0.45499 -0.10492 0.0
0.412727 -0.0831278 0.0
0.380034 -0.060289 0.0
0.357679 -0.035763 0.0
0.345813 -0.0139308 0.0
0.369627 0.0138308 0.0
0.381295 0.0344006 0.0
0.403059 0.0583102 0.0
0.434769 0.0804353 0.0
0.475666 0.101613 0.0
0.524965 0.121246 0.0
0.581777 0.139007 0.0
0.64513 0.154572 0.0
0.713986 0.167653 0.0
0.787244 0.178006 0.0
0.863756 0.185435 0.0
0.942334 0.189796 0.0
1.02176 0.190999 0.0
1.10081 0.189014 0.0
1.17825 0.183865 0.0
1.25287 0.175633 0.0
1.32347 0.164456 0.0
1.38894 0.150519 0.0
1.44818 0.134057 0.0
1.50023 0.115345 0.0
1.5442 0.0946964 0.0
1.57931 0.0724572 0.0
1.60492 0.0489956 0.0
1.62053 0.0247126 0.0
1.62579 -1.93715e-15 0.0
1.62053 -0.0247126 0.0
1.60492 -0.0489956 0.0
1.57931 -0.0724572 0.0
1.5442 -0.0946964 0.0
1.50023 -0.115345 0.0
1.44818 -0.134057 0.0
1.38894 -0.150519 0.0
1.32347 -0.164456 0.0
1.25287 -0.175633 0.0
1.17825 -0.183865 0.0
1.10081 -0.189014 0.0
1.02176 -0.190999 0.0
0.942334 -0.189796 0.0
0.863756 -0.185435 0.0
0.787244 -0.178006 0.0
0.713986 -0.167653 0.0
0.64513 -0.154572 0.0
0.581777 -0.139007 0.0
0.524965 -0.121246 0.0
0.475666 -0.101613 0.0
0.434769 -0.0804353 0.0
0.403059 -0.0583102 0.0
0.381295 -0.0344006 0.0
0.369627 -0.0138308 0.0
0.392615 0.0137445 0.0
0.404145 0.0330911 0.0
0.425384 0.0564195 0.0
0.456178 0.0778673 0.0
0.495777 0.0984678 0.0
0.543416 0.117587 0.0
0.59823 0.134907 0.0
0.659282 0.150104 0.0
0.725571 0.162892 0.0
0.796043 0.173031 0.0
0.8696 0.180325 0.0
0.945108 0.184632 0.0
1.02141 0.185863 0.0
1.09732 0.183985 0.0
1.17168 0.179021 0.0
1.24332 0.171048 0.0
1.3111 0.160199 0.0
1.37395 0.146653 0.0
1.43084 0.130638 0.0
1.48082 0.112422 0.0
1.52304 0.0923095 0.0
1.55676 0.0706387 0.0
1.58136 0.0477698 0.0
1.59635 0.0240954 0.0
1.6014 -1.94252e-15 0.0
1.59635 -0.0240954 0.0
1.58136 -0.0477698 0.0
1.55676 -0.0706387 0.0
1.52304 -0.0923095 0.0
1.48082 -0.112422 0.0
1.43084 -0.130638 0.0
1.37395 -0.146653 0.0
1.3111 -0.160199 0.0
1.24332 -0.171048 0.0
1.17168 -0.179021 0.0
1.09732 -0.183985 0.0
1.02141 -0.185863 0.0
0.945108 -0.184632 0.0
0.8696 -0.180325 0.0
0.796043 -0.173031 0.0
0.725571 -0.162892 0.0
0.659282 -0.150104 0.0
0.59823 -0.134907 0.0
0.543416 -0.117587 0.0
0.495777 -0.0984678 0.0
0.456178 -0.0778673 0.0
0.425384 -0.0564195 0.0
0.404145 -0.0330911 0.0
0.392615 -0.0137445 0.0
0.414812 0.0136674 0.0
0.426265 0.0318331 0.0
0.447045 0.0546107 0.0
0.476988 0.075414 0.0
0.515358 0.0954686 0.0
0.561406 0.114105 0.0
0.614293 0.131011 0.0
0.673116 0.145865 0.0
0.736913 0.158383 0.0
0.804677 0.168325 0.0
0.875357 0.175498 0.0
0.947872 0.17976 0.0
1.02112 0.181021 0.0
1.09397 0.179247 0.0
1.16532 0.17446 0.0
1.23405 0.166733 0.0
1.29908 0.156193 0.0
1.35937 0.143015 0.0
1.41395 0.127421 0.0
1.4619 0.109671 0.0
1.50242 0.0900627 0.0
1.53477 0.0689267 0.0
1.55838 0.0466157 0.0
1.57276 0.0235142 0.0
1.57761 -1.33794e-15 0.0
1.57276 -0.0235142 0.0
1.55838 -0.0466157 0.0
1.53477 -0.0689267 0.0
1.50242 -0.0900627 0.0
1.4619 -0.109671 0.0
1.41395 -0.127421 0.0
1.35937 -0.143015 0.0
1.29908 -0.156193 0.0
1.23405 -0.166733 0.0
1.16532 -0.17446 0.0
1.09397 -0.179247 0.0
1.02112 -0.181021 0.0
0.947872 -0.17976 0.0
0.875357 -0.175498 0.0
0.804677 -0.168325 0.0
0.736913 -0.158383 0.0
0.673116 -0.145865 0.0
0.614293 -0.131011 0.0
0.561406 -0.114105 0.0
0.515358 -0.0954686 0.0
0.476988 -0.075414 0.0
0.447045 -0.0546107 0.0
0.426265 -0.0318331 0.0
0.414812 -0.0136674 0.0
0.436249 0.013594 0.0
0.447684 0.0306247 0.0
0.46807 0.0528764 0.0
0.49723 0.0730642 0.0
0.534437 0.0925992 0.0
0.578961 0.110777 0.0
0.629991 0.127292 0.0
0.686654 0.141824 0.0
0.748032 0.154089 0.0
0.813159 0.163849 0.0
0.881035 0.170912 0.0
0.95063 0.175135 0.0
1.02089 0.176428 0.0
1.09076 0.174757 0.0
1.15916 0.170139 0.0
1.22505 0.162647 0.0
1.28739 0.152401 0.0
1.34518 0.139573 0.0
1.39749 0.124377 0.0
1.44346 0.107067 0.0
1.4823 0.0879365 0.0
1.51331 0.0673065 0.0
1.53594 0.0455233 0.0
1.54973 0.0229641 0.0
1.55438 -1.26329e-15 0.0
1.54973 -0.0229641 0.0
1.53594 -0.0455233 0.0
1.51331 -0.0673065 0.0
1.4823 -0.0879365 0.0
1.44346 -0.107067 0.0
1.39749 -0.124377 0.0
1.34518 -0.139573 0.0
1.28739 -0.152401 0.0
1.22505 -0.162647 0.0
1.15916 -0.170139 0.0
1.09076 -0.174757 0.0
1.02089 -0.176428 0.0
0.95063 -0.175135 0.0
0.881035 -0.170912 0.0
0.813159 -0.163849 0.0
0.748032 -0.154089 0.0
0.686654 -0.141824 0.0
0.629991 -0.127292 0.0
0.578961 -0.110777 0.0
0.534437 -0.0925992 0.0
0.49723 -0.0730642 0.0
0.46807 -0.0528764 0.0
0.447684 -0.0306247 0.0
0.436249 -0.013594 0.0
0.456956 0.0135181 0.0
0.468431 0.0294643 0.0
0.488489 0.0512088 0.0
0.516928 0.0708054 0.0
0.553036 0.0898418 0.0
0.596102 0.10758 0.0
0.64534 0.123721 0.0
0.699913 0.137946 0.0
0.758939 0.149971 0.0
0.8215 0.15956 0.0
0.886642 0.16652 0.0
0.953388 0.170709 0.0
1.02074 0.172037 0.0
1.08768 0.170466 0.0
1.15321 0.166013 0.0
1.21631 0.158746 0.0
1.27601 0.148783 0.0
1.33135 0.136288 0.0
1.38145 0.121473 0.0
1.42546 0.104584 0.0
1.46265 0.0859086 0.0
1.49236 0.0657611 0.0
1.51403 0.0444814 0.0
1.52724 0.0224394 0.0
1.53168 -8.54234e-16 0.0
1.52724 -0.0224394 0.0
1.51403 -0.0444814 0.0
1.49236 -0.0657611 0.0
1.46265 -0.0859086 0.0
1.42546 -0.104584 0.0
1.38145 -0.121473 0.0
1.33135 -0.136288 0.0
1.27601 -0.148783 0.0
1.21631 -0.158746 0.0
1.15321 -0.166013 0.0
1.08768 -0.170466 0.0
1.02074 -0.172037 0.0
0.953388 -0.170709 0.0
0.886642 -0.16652 0.0
0.8215 -0.15956 0.0
0.758939 -0.149971 0.0
0.699913 -0.137946 0.0
0.64534 -0.123721 0.0
0.596102 -0.10758 0.0
0.553036 -0.0898418 0.0
0.516928 -0.0708054 0.0
0.488489 -0.0512088 0.0
0.468431 -0.0294643 0.0
0.456956 -0.0135181 0.0
0.476961 0.0134331 0.0
0.488531 0.02835 0.0
0.508322 0.0495993 0.0
0.536101 0.0686247 0.0
0.571173 0.0871778 0.0
0.612845 0.10449 0.0
0.660356 0.120268 0.0
0.712904 0.134195 0.0
0.769646 0.145988 0.0
0.829707 0.155412 0.0
0.892184 0.162274 0.0
0.956147 0.166431 0.0
1.02065 0.167794 0.0
1.08474 0.166323 0.0
1.14744 0.162031 0.0
1.20782 0.154983 0.0
1.26493 0.145293 0.0
1.31787 0.133121 0.0
1.36579 0.118673 0.0
1.4079 0.102191 0.0
1.44347 0.0839541 0.0
1.47189 0.0642718 0.0
1.49262 0.0434773 0.0
1.50525 0.0219338 0.0
1.5095 -3.5988e-16 0.0
1.50525 -0.0219338 0.0
1.49262 -0.0434773 0.0
1.47189 -0.0642718 0.0
1.44347 -0.0839541 0.0
1.4079 -0.102191 0.0
1.36579 -0.118673 0.0
1.31787 -0.133121 0.0
1.26493 -0.145293 0.0
1.20782 -0.154983 0.0
1.14744 -0.162031 0.0
1.08474 -0.166323 0.0
1.02065 -0.167794 0.0
0.956147 -0.166431 0.0
0.892184 -0.162274 0.0
0.829707 -0.155412 0.0
0.769646 -0.145988 0.0
0.712904 -0.134195 0.0
0.660356 -0.120268 0.0
0.612845 -0.10449 0.0
0.571173 -0.0871778 0.0
0.536101 -0.0686247 0.0
0.508322 -0.0495993 0.0
0.488531 -0.02835 0.0
0.476961 -0.0134331 0.0
0.496288 0.0133321 0.0
0.508006 0.02728 0.0
0.527586 0.0480395 0.0
0.554764 0.066509 0.0
0.588859 0.0845881 0.0
0.629197 0.101481 0.0
0.675045 0.116902 0.0
0.725633 0.130534 0.0
0.780157 0.142098 0.0
0.837785 0.151359 0.0
0.897662 0.158124 0.0
0.958909 0.162251 0.0
1.02063 0.163647 0.0
1.08192 0.162273 0.0
1.14187 0.158139 0.0
1.19957 0.151306 0.0
1.25414 0.141884 0.0
1.30473 0.130029 0.0
1.35052 0.11594 0.0