# vtk DataFile Version 3.0
Malha 2D com triângulos: velocidade e pressão
ASCII
DATASET UNSTRUCTURED_GRID

POINTS 512 double
-0.5 0 0
1.5 0 0
1.5 2 0
-0.5 2 0
-0.4 0 0
-0.3 0 0
-0.2 0 0
-0.1 0 0
0 0 0
0.1 0 0
0.2 0 0
0.3 0 0
0.4 0 0
0.5 0 0
0.6 0 0
0.7 0 0
0.8 0 0
0.9 0 0
1 0 0
1.1 0 0
1.2 0 0
1.3 0 0
1.4 0 0
1.5 0.1 0
1.5 0.2 0
1.5 0.3 0
1.5 0.4 0
1.5 0.5 0
1.5 0.6 0
1.5 0.7 0
1.5 0.8 0
1.5 0.9 0
1.5 1 0
1.5 1.1 0
1.5 1.2 0
1.5 1.3 0
1.5 1.4 0
1.5 1.5 0
1.5 1.6 0
1.5 1.7 0
1.5 1.8 0
1.5 1.9 0
1.4 2 0
1.3 2 0
1.2 2 0
1.1 2 0
1 2 0
0.9 2 0
0.8 2 0
0.7 2 0
0.6 2 0
0.5 2 0
0.4 2 0
0.3 2 0
0.2 2 0
0.1 2 0
0 2 0
-0.1 2 0
-0.2 2 0
-0.3 2 0
-0.4 2 0
-0.5 1.9 0
-0.5 1.8 0
-0.5 1.7 0
-0.5 1.6 0
-0.5 1.5 0
-0.5 1.4 0
-0.5 1.3 0
-0.5 1.2 0
-0.5 1.1 0
-0.5 1 0
-0.5 0.9 0
-0.5 0.8 0
-0.5 0.7 0
-0.5 0.6 0
-0.5 0.5 0
-0.5 0.4 0
-0.5 0.3 0
-0.5 0.2 0
-0.5 0.1 0
0.453099 1.93202 0
0.54413 0.095501 0
1.41071 1.0544 0
-0.413397 0.95 0
-0.413397 1.35 0
1.4134 0.65 0
0.865412 1.90492 0
0.150633 0.075445 0
0.865412 0.0950818 0
1.41251 1.34167 0
0.147722 1.92061 0
-0.413397 0.65 0
1.15585 0.0796603 0
1.15585 1.92034 0
-0.413397 0.35 0
-0.15131 1.91109 0
1.41308 1.66471 0
-0.413397 1.65 0
-0.151099 0.0888652 0
1.4134 0.35 0
-0.413397 1.15 0
1.4134 0.85 0
0.654914 1.91026 0
0.355845 0.0919101 0
-0.41563 1.84613 0
1.35016 0.0848164 0
-0.41563 0.153868 0
1.4171 1.85606 0
-0.413397 1.25 0
-0.326795 1.2 0
-0.326795 1.1 0
-0.240192 1.15 0
-0.240192 1.05 0
-0.15359 1.1 0
-0.15359 1 0
-0.0669873 1.05 0
-0.0669873 0.95 0
0.0196152 1 0
0.0196152 0.9 0
0.106218 0.95 0
0.106218 1.05 0
0.19282 1 0
0.19282 1.1 0
0.279423 1.05 0
0.279423 0.95 0
0.366025 1 0
0.366025 1.1 0
0.452628 1.05 0
0.452628 0.95 0
0.53923 1 0
0.53923 0.9 0
0.53923 1.1 0
0.625833 0.95 0
0.625833 0.85 0
-0.15359 1.2 0
0.53923 0.8 0
0.625833 0.75 0
0.712436 0.9 0
0.53923 0.7 0
0.625833 0.65 0
0.53923 0.6 0
0.625833 0.55 0
0.712436 0.6 0
0.452628 0.65 0
0.452628 0.55 0
0.366025 0.6 0
0.366025 0.5 0
0.279423 0.55 0
0.712436 0.5 0
0.799038 0.55 0
-0.0669873 0.85 0
0.712436 1 0
0.799038 0.95 0
0.799038 1.05 0
0.885641 1 0
0.885641 1.1 0
0.972243 1.05 0
0.972243 0.95 0
0.972243 1.15 0
0.885641 1.2 0
0.972243 1.25 0
0.885641 1.3 0
0.972243 1.35 0
0.885641 1.4 0
0.972243 1.45 0
0.885641 1.5 0
0.799038 1.45 0
0.972243 1.55 0
1.05885 1.5 0
1.05885 1.2 0
0.799038 1.55 0
0.712436 1.5 0
0.279423 0.45 0
0.19282 0.5 0
0.452628 0.45 0
0.799038 0.45 0
0.885641 0.5 0
0.885641 0.6 0
0.972243 0.55 0
0.972243 0.45 0
1.05885 0.5 0
1.05885 0.6 0
1.05885 1 0
0.712436 0.4 0
0.0196152 0.8 0
-0.0669873 0.75 0
0.712436 1.4 0
0.625833 1.45 0
0.625833 1.55 0
0.53923 1.5 0
1.05885 0.4 0
1.05885 1.6 0
0.53923 1.6 0
0.452628 1.55 0
0.452628 1.45 0
0.366025 1.5 0
0.366025 1.6 0
0.279423 1.55 0
0.279423 1.45 0
0.19282 1.5 0
0.19282 0.4 0
0.106218 0.45 0
0.19282 1.6 0
0.106218 1.55 0
0.106218 1.45 0
0.0196152 1.5 0
0.0196152 1.6 0
-0.0669873 1.55 0
0.279423 0.65 0
-0.15359 0.8 0
-0.15359 0.7 0
0.106218 1.15 0
1.05885 0.9 0
0.106218 0.35 0
0.0196152 0.4 0
1.14545 0.45 0
1.14545 1.55 0
1.14545 1.45 0
1.14545 0.95 0
1.14545 0.85 0
0.972243 0.35 0
0.972243 1.65 0
1.14545 0.35 0
1.14545 1.65 0
-0.0669873 1.65 0
0.279666 0.350421 0
0.625833 1.65 0
0.0196152 0.3 0
-0.0669873 0.35 0
-0.0669873 0.45 0
-0.15359 0.4 0
0.0196152 0.7 0
0.19282 1.2 0
0.625833 1.35 0
0.972243 0.85 0
-0.0669873 1.45 0
-0.15359 1.5 0
1.23205 1.5 0
0.0196152 1.7 0
0.53923 1.7 0
-0.15359 0.3 0
-0.15359 0.5 0
0.106218 0.75 0
-0.240192 0.75 0
-0.240192 0.65 0
0.799038 0.85 0
-0.240192 0.95 0
0.712436 1.1 0
-0.240192 0.45 0
0.799038 1.25 0
1.14545 1.05 0
0.799038 0.35 0
0.712436 0.3 0
0.625833 0.35 0
0.106218 1.25 0
-0.15359 1.4 0
-0.0669873 1.35 0
-0.240192 1.45 0
-0.240192 1.55 0
1.22978 1.40393 0
1.23158 0.9 0
1.2315 0.8 0
1.23158 0.4 0
1.2315 0.3 0
1.23197 0.5 0
-0.0669873 1.75017 0
-0.15359 1.70003 0
0.624369 0.252536 0
0.538986 0.300423 0
0.707556 0.185944 0
0.0190005 1.79898 0
0.105079 1.74804 0
0.106218 0.55 0
-0.0669873 0.55 0
0.19282 1.3 0
0.279423 1.25 0
1.14536 0.75 0
1.23147 0.7 0
0.0196152 1.2 0
-0.240192 1.35 0
1.14507 1.35066 0
1.23205 1.3 0
-0.326795 1.5 0
0.104752 0.252539 0
0.0206001 0.199822 0
1.14363 0.252992 0
0.624369 1.74746 0
0.712192 1.69958 0
1.22326 0.21192 0
1.31865 0.45 0
1.31916 1.45899 0
1.31865 0.75 0
1.32569 0.252227 0
0.54106 1.79626 0
0.454676 1.74636 0
0.708223 1.81355 0
0.799038 1.75 0
1.32143 1.5471 0
1.31865 0.55 0
0.538298 0.202279 0
0.452432 0.25045 0
0.451122 0.151138 0
0.363094 0.20024 0
0.272262 0.15542 0
-0.15321 1.80255 0
-0.240129 1.75043 0
-0.240192 1.85 0
-0.0637387 1.84957 0
0.0358448 1.90607 0
-0.240192 0.55 0
-0.326795 0.5 0
0.106218 0.65 0
-0.326795 0.6 0
-0.15359 0.6 0
-0.326795 0.4 0
0.452609 0.350038 0
0.19282 0.7 0
0.19282 0.8 0
-0.326795 0.7 0
-0.326795 0.8 0
1.05885 1.7 0
0.972243 1.75 0
1.14372 1.74701 0
1.23129 1.6995 0
1.22442 1.78958 0
1.31945 1.73804 0
1.05536 1.79874 0
0.963109 1.84979 0
0.279423 1.35 0
0.366025 1.3 0
0.279423 0.75 0
0.365902 0.300312 0
-0.240192 0.35 0
-0.240192 0.25 0
-0.153175 0.197475 0
-0.240192 0.15 0
-0.0584435 0.148031 0
-0.326795 0.3 0
-0.327167 0.200645 0
-0.337112 0.0921006 0
0.880907 1.79901 0
0.0196152 1.3 0
0.0196152 0.6 0
0.366025 0.9 0
1.14544 0.55 0
1.05854 0.300499 0
0.972193 0.250083 0
1.05528 0.201354 0
0.963088 0.15024 0
0.880895 0.20101 0
0.366025 0.7 0
0.452628 0.85 0
-0.413397 0.55 0
0.625833 0.45 0
0.712436 1.3 0
0.625833 1.25 0
0.53923 1.3 0
0.53923 1.2 0
0.712436 1.2 0
0.452969 1.64939 0
0.366424 1.69929 0
0.365907 1.79872 0
0.279423 1.75 0
0.27488 1.84412 0
0.193487 1.79203 0
0.0196152 0.5 0
-0.15359 0.9 0
0.885641 1.6 0
0.972243 0.65 0
0.885641 0.7 0
1.05883 0.7 0
0.106028 1.64967 0
1.41372 1.24861 0
1.25393 1.92615 0
-0.413397 0.75 0
-0.413397 0.85 0
1.05885 1.1 0
1.14498 1.15 0
1.23205 1.1 0
0.539187 0.400077 0
0.19271 1.69829 0
1.41347 1.1505 0
1.32679 1.2 0
0.53923 1.4 0
1.2297 0.996066 0
1.31863 0.934817 0
0.65223 0.0882272 0
0.75 0.0866025 0
-0.413397 1.05 0
-0.326795 1 0
-0.413397 0.45 0
-0.0669873 1.15 0
0.19282 0.9 0
0.885641 0.9 0
0.799038 1.35 0
1.14533 0.65 0
1.23192 1.59943 0
-0.0669873 1.25 0
0.0196152 1.4 0
-0.41377 1.74936 0
0.539223 0.500013 0
0.799038 0.65 0
0.0375414 0.0927837 0
1.25279 0.0775089 0
0.75 1.9134 0
0.54703 1.90074 0
0.0196152 1.1 0
0.106218 1.35 0
0.279423 0.85 0
0.452628 0.75 0
0.19282 0.6 0
-0.15359 1.6 0
-0.326795 0.9 0
0.712436 0.8 0
-0.0669873 0.65 0
-0.413832 0.250752 0
0.452628 1.35 0
0.625833 1.05 0
0.712436 0.7 0
0.885641 0.4 0
0.625833 1.15 0
1.05883 0.8 0
1.23145 0.6 0
0.972242 0.75 0
1.05133 0.0953599 0
1.05134 1.90466 0
0.106218 0.85 0
-0.15359 1.3 0
0.366034 0.400066 0
-0.06533 0.249221 0
0.88564 0.8 0
0.884841 0.300182 0
0.799038 1.15 0
0.192429 0.301659 0
0.366025 0.8 0
-0.240192 1.25 0
0.884852 1.69983 0
-0.240192 0.85 0
0.799038 0.75 0
0.279423 1.15 0
0.712395 1.59993 0
0.279423 1.65 0
0.19282 1.4 0
-0.240182 1.65008 0
-0.326795 1.3 0
0.366025 1.4 0
0.452628 1.15 0
0.366025 1.2 0
0.798859 1.64989 0
0.797461 0.249632 0
1.05878 1.40011 0
0.452628 1.25 0
-0.413397 1.45 0
-0.413397 1.55 0
-0.326793 1.60001 0
-0.326795 1.4 0
1.05877 1.30013 0
1.14482 1.25013 0
-0.326844 1.69998 0
-0.327227 1.79932 0
-0.337121 1.90789 0
0.354499 1.91134 0
1.33268 1.29737 0
1.39893 1.50122 0
1.32169 1.64076 0
1.41266 1.76245 0
1.22582 1.20001 0
1.3317 1.10163 0
1.41032 0.957811 0
1.30275 0.846963 0
1.42909 0.75 0
1.30273 0.65 0
1.41622 0.55 0
1.41972 0.45 0
1.31279 0.350116 0
1.43107 0.251419 0
0.278299 0.252212 0
1.31108 1.83758 0
0.191924 0.209439 0
1.40918 0.159089 0
0.113078 1.83937 0
0.118208 0.160678 0
0.800097 0.161747 0
0.800261 1.83819 0
1.35161 1.92455 0
0.25 0.0712615 0
1.29351 0.153728 0
0.25 1.93045 0
0.613317 0.164897 0
0.615119 1.83365 0
0.95 0.0683159 0
0.95 1.93168 0
-0.25 1.93301 0
-0.25 0.0669873 0
0.45 0.0666897 0
1.13509 0.167949 0
1.13509 1.83205 0
0.463085 1.83189 0
-0.0544002 0.0659359 0
-0.05207 1.93411 0
-0.426795 0.0732051 0
1.42679 0.0732051 0
-0.426795 1.92679 0
1.41934 1.42744 0
1.31203 1.37286 0
1.42702 1.5736 0
1.30503 1.0264 0
1.42753 1.92753 0
0.204023 1.86879 0
0.200129 0.134247 0
1.20617 0.137494 0
1.21607 1.86114 0

CELLS 942 3768
3 348 349 88
3 86 340 327
3 361 497 461
3 461 497 80
3 289 472 298
3 289 473 472
3 55 308 90
3 88 490 348
3 327 491 86
3 382 462 281
3 101 468 385
3 281 466 382
3 385 469 101
3 325 464 96
3 96 465 325
3 85 470 291
3 291 471 85
3 99 473 289
3 289 474 99
3 382 466 378
3 378 467 382
3 101 469 291
3 291 470 101
3 298 472 85
3 85 471 298
3 99 474 292
3 292 475 99
3 107 477 465
3 465 477 325
3 82 506 468
3 297 505 464
3 336 402 284
3 468 506 385
3 464 505 96
3 386 387 269
3 295 404 102
3 292 486 479
3 292 479 475
3 503 504 89
3 290 504 503
3 336 498 402
3 301 302 103
3 269 488 386
3 102 489 295
3 56 308 55
3 308 480 90
3 60 460 59
3 5 339 4
3 299 301 81
3 95 306 304
3 334 335 98
3 405 497 293
3 302 303 103
3 60 502 460
3 339 500 4
3 424 495 347
3 326 496 425
3 98 336 334
3 304 307 95
3 103 494 301
3 361 461 363
3 348 424 347
3 326 425 327
3 387 482 269
3 295 483 404
3 80 497 405
3 349 482 88
3 86 483 340
3 92 495 424
3 425 496 93
3 301 494 81
3 477 511 324
3 373 511 477
3 81 488 299
3 293 489 405
3 402 481 284
3 336 429 334
3 284 429 336
3 270 307 265
3 265 307 304
3 270 308 307
3 302 476 303
3 95 492 306
3 335 493 98
3 106 339 338
3 337 415 338
3 338 415 106
3 312 318 91
3 94 337 314
3 94 415 337
3 309 313 244
3 314 390 94
3 244 318 312
3 244 312 309
3 91 352 312
3 312 352 310
3 352 390 310
3 315 428 331
3 342 365 272
3 310 390 314
3 273 414 313
3 342 414 273
3 73 374 72
3 337 338 333
3 331 428 225
3 311 342 272
3 273 365 342
3 272 410 311
3 273 313 241
3 241 313 309
3 311 410 316
3 316 410 208
3 244 313 210
3 230 332 240
3 294 361 360
3 204 442 199
3 294 360 359
3 374 375 72
3 315 379 174
3 174 428 315
3 332 337 333
3 76 390 75
3 319 437 412
3 208 330 316
3 271 380 364
3 407 442 204
3 72 375 71
3 332 333 240
3 205 398 204
3 398 407 204
3 412 437 246
3 248 332 230
3 436 448 367
3 357 420 355
3 256 397 341
3 416 451 356
3 71 375 83
3 143 350 145
[...]
CELL_DATA 942
VECTORS velocity double
0.882654 -0.0421861 0
0.882343 0.0422152 0
0.712417 0.112772 0
0.647646 0.0924905 0
1.08246 0.0018602 0
1.07794 -0.00362931 0
0.201553 0.10222 0
0.8518 -0.0353313 0
0.851476 0.0353698 0
1.01163 -0.0258517 0
0.936907 0.00967849 0
0.996458 -0.0244977 0
0.944065 0.0134589 0
1.03169 0.0204437 0
1.0112 0.0210343 0
1.0201 0.0205669 0
1.03434 0.0188713 0
1.06656 -0.0101172 0
1.06189 -0.0133868 0
0.953939 -0.0204505 0
0.944372 -0.0184701 0
0.972618 0.0192652 0
0.986217 0.0208839 0
1.06888 0.00919049 0
1.06488 0.012448 0
1.02984 -0.0198484 0
1.01536 -0.0216927 0
0.962549 0.0209124 0
0.979145 0.0230977 0
0.923904 -0.00217204 0
1.06967 0.0119562 0
0.403575 -0.23957 0
0.920895 0.00360053 0
1.05365 0.0146616 0
0.803767 -0.0530568 0
0.804376 0.0532588 0
0.965901 -0.0212053 0
0.981575 -0.0221273 0
1.06085 -0.0143315 0
1.07567 -0.0119261 0
0.169751 -0.183483 0
0.703347 -0.109761 0
0.820012 -0.0637414 0
0.821836 0.0642376 0
0.0863845 0.0537938 0
0.363136 0.158123 0
-0.854806 0.0958122 0
-0.854884 -0.0958752 0
0.773074 -0.0934289 0
0.149647 0.332466 0
0.150424 -0.332343 0
0.787711 0.0954662 0
0.680618 -0.125555 0
-0.912431 0.172259 0
-0.912502 -0.172185 0
0.917047 -0.033268 0
0.916575 0.0331586 0
0.208284 -0.283567 0
0.208052 0.28534 0
0.629808 -0.0869 0
0.676363 0.12707 0
0.907024 -0.0366397 0
0.90661 0.036557 0
0.842296 -0.0602948 0
0.842081 0.0602792 0
0.695819 0.0751999 0
0.877022 -0.0466518 0
0.876638 0.046648 0
0.899764 -0.0255941 0
0.899031 0.0256462 0
0.676231 -0.07317 0
0.947962 0.0247759 0
0.925466 0.0190862 0
0.793317 -0.0875165 0
0.793274 0.0886451 0
0.466084 -0.216859 0
0.638099 -0.331911 0
0.66731 -0.299734 0
0.676195 0.301695 0
0.643343 0.334063 0
0.409666 0.241623 0
0.831975 -0.158514 0
-0.177678 0.257833 0
-0.17741 -0.258612 0
-0.149332 -0.464134 0
1.03232 -0.56016 0
0.374778 -0.559534 0
2.13657 0.450679 0
2.13664 -0.450005 0
1.62001 -0.552618 0
2.19707 0.256406 0
2.63612 -0.34483 0
2.02685 0.410873 0
2.32261 0.281709 0
2.636 0.34645 0
2.8071 0.173354 0
3.02471 0.000755494 0
1.28266 -0.111336 0
1.86433 0.0844438 0
2.80704 -0.171489 0
1.95876 0.206259 0
1.86805 0.18678 0
1.02375 0.66732 0
0.999017 -0.500661 0
1.31346 -0.124437 0
1.69451 0.149954 0
1.95178 0.0932061 0
1.62897 0.135337 0
2.1939 0.115994 0
2.31324 0.127517 0
1.43554 0.175845 0
1.39262 0.158164 0
1.83055 0.33271 0
1.83031 -0.330053 0
1.00578 0.13494 0
1.69029 -0.0678133 0
1.14762 0.121643 0
0.336673 0.611403 0
1.32997 -0.0683512 0
1.36403 -0.0759256 0
1.53123 -0.452315 0
3.31771 -0.21181 0
-0.0326293 0.403878 0
1.20108 0.176504 0
1.02826 0.21676 0
1.62897 -0.135288 0
-0.343598 0.531882 0
1.46553 -0.411065 0
1.86437 -0.0843809 0
1.69452 -0.149902 0
-0.332706 0.28672 0
2.19689 -0.253188 0
1.11837 0.0487144 0
0.904551 -0.0929507 0
1.33998 -0.302463 0
1.13078 -0.114381 0
-0.82332 0.389567 0
1.28512 0.114237 0
1.36445 0.0750499 0
1.72969 0.605458 0
2.82535 -0.37568 0
0.998335 -0.039369 0
0.98113 -0.0166798 0
1.14009 0.0136557 0
1.74692 0.301309 0
1.31566 -0.1272 0
1.31571 0.127165 0
1.07747 -0.031587 0
1.4563 -0.0977939 0
2.19711 -0.256404 0
3.24006 -0.0004303 0
0.799549 -0.083302 0
1.29642 0.000628751 0
3.24005 0.000410461 0
1.15735 0.000269671 0
1.07733 0.0314816 0
1.06195 0.0257748 0
2.31329 -0.127508 0
1.17437 0.156524 0
0.877661 -0.0268537 0
1.36371 -0.0334395 0
1.08566 -0.0352705 0
1.10403 -0.00858882 0
1.04674 0.043626 0
1.06623 -0.0238243 0
1.00109 -0.0320625 0
1.14335 -0.124509 0
0.948831 0.0448319 0
0.998205 -0.0444158 0
0.847701 3.04024e-05 0
1.12224 -0.0481394 0
1.12614 0.0269911 0
1.26577 -0.0257404 0
1.19255 -0.0183136 0
1.28283 0.109948 0
1.95184 -0.0931525 0
1.11465 -0.000553462 0
1.10675 0.0435043 0
1.86809 -0.186748 0
1.25075 0.214275 0
1.0037 0.0386016 0
0.999178 0.0611003 0
1.2851 -0.114311 0
1.01963 0.195253 0
1.19906 0.176011 0
0.864606 -0.0300772 0
1.54 0.21528 0
1.01679 -0.414601 0
0.96507 -0.0128779 0
1.02409 -0.0157732 0
1.03756 0.0149071 0
0.781738 0.0259482 0
0.495012 -0.0499535 0
1.02449 -0.414633 0
0.811821 -0.0417019 0
1.26482 0.0244872 0
1.16726 -0.0666286 0
1.33027 0.0300818 0
1.33058 0.0680317 0
1.17951 0.158274 0
0.855805 -0.0601348 0
0.93158 -0.0671104 0
0.902441 -0.00876442 0
1.60183 -0.24257 0
1.00354 0.0307819 0
1.14868 0.0593062 0
0.831068 0.159292 0
0.913018 -0.0830117 0
2.02673 0.408916 0
1.33171 0.0707014 0
1.12211 0.0480923 0
1.12617 -0.000489575 0
1.50362 -0.108593 0
1.04695 -0.0436657 0
2.06599 0.00202047 0
1.10616 -0.0922703 0
0.97876 -0.0208749 0
-0.655548 -0.339125 0
0.033558 -0.212038 0
0.368408 0.0613359 0
1.44824 -0.00158668 0
0.896391 0.0434268 0
1.22718 -0.0899461 0
3.3177 0.212196 0
1.61387 0.554132 0
0.671584 -0.0319305 0
1.32632 0.000859353 0
0.829526 -0.0166248 0
1.00462 -0.0597928 0
1.12717 0.0122782 0
1.1012 0.0218256 0
1.4539 0.0953652 0
1.95147 0.0892534 0
1.09172 -0.0198092 0
1.05206 -0.0484338 0
1.09519 -0.00721286 0
0.902742 -0.0215142 0
2.02686 -0.410874 0
0.987079 0.0733305 0
1.14571 -0.127598 0
0.832063 0.161016 0
-0.648337 -0.1527 0
-0.654451 2.63269e-06 0
0.125681 -0.0844013 0
1.00482 0.102402 0
1.12829 0.0114895 0
1.95844 0.20244 0
1.00401 0.0431574 0
0.875026 -0.00567336 0
0.912899 -0.00407588 0
1.03705 -0.0152269 0
1.04082 0.0134965 0
0.791366 0.0127188 0
-0.338157 0.525058 0
2.43425 0.549219 0
2.43412 -0.549771 0
0.575605 -0.180072 0
0.649256 -0.340117 0
1.36461 0.0356087 0
1.14571 0.127535 0
1.26466 -0.0246166 0
1.19368 0.0183308 0
0.64926 0.340133 0
1.19272 0.0182651 0
1.17402 -0.0367397 0
1.40728 -0.00133386 0
1.22727 0.0902815 0
2.17277 -0.00192782 0
1.46397 0.41328 0
1.95135 -0.0892576 0
1.10489 0.0896364 0
1.0946 0.0822145 0
1.00843 0.114735 0
0.840805 -0.0674068 0
1.46398 -0.41327 0
0.992229 0.0840479 0
-0.12425 0.458687 0
0.867464 0.128804 0
1.00556 0.156347 0
-0.343598 -0.531882 0
2.13658 -0.450683 0
-0.341585 0.130167 0
0.672178 0.0713905 0
1.21585 0.000114947 0
0.829872 0.0371727 0
1.60017 -0.239237 0
-0.481571 3.87957e-06 0
0.299133 0.0693355 0
0.878618 0.114932 0
0.253236 0.300841 0
1.00751 0.271681 0
1.69394 0.145833 0
0.764743 -0.220524 0
0.764759 0.220539 0
1.53028 0.455938 0
2.32266 -0.278881 0
1.00444 -0.0740297 0
1.07774 -0.0667165 0
0.912309 -0.0182187 0
1.06545 0.0597243 0
0.997969 -0.0541556 0
1.0065 -0.114533 0
0.89597 -0.00489287 0
-0.30682 0.0710085 0
2.82511 0.37665 0
-0.203404 6.18377e-06 0
1.26631 0.0569283 0
1.36584 0.0786275 0
1.17625 0.0368227 0
0.896457 -0.0434165 0
0.917823 -0.0350675 0
1.00414 -0.0534725 0
1.17483 0.0165774 0
1.13921 0.0299987 0
1.17314 -0.00019203 0
1.11076 0.0430614 0
1.12602 -0.0270495 0
1.23969 -0.0498614 0
1.50114 -0.0491418 0
1.102 -0.0101515 0
1.20762 -0.0826617 0
0.991483 -0.0837292 0
1.00751 -0.271659 0
0.911925 0.00963334 0
0.994954 0.369512 0
3.02472 -0.000788777 0
0.997696 0.0542037 0
0.534473 -0.410069 0
1.33022 -0.0301048 0
0.828097 0.178726 0
0.63542 -0.021017 0
0.742426 -0.0123614 0
0.890928 -0.0108437 0
1.0031 -0.0158214 0
0.238504 0.0355122 0
1.73455 0.602812 0
0.0283046 -0.0956011 0
0.592853 -8.26293e-06 0
0.799526 0.0832701 0
0.737882 0.0258493 0
1.12697 -0.0123733 0
1.62763 -0.131229 0
1.84996 0.0020714 0
1.01668 0.302953 0
1.24707 0.219167 0
1.74695 -0.301292 0
1.01482 0.414818 0
0.671118 -0.303461 0
0.997789 0.0442679 0
1.00867 0.158573 0
0.515342 -0.452599 0
0.624626 0.0312727 0
1.72969 -0.605458 0
-0.124252 -0.458684 0
0.0335648 0.212051 0
0.369185 -0.136869 0
0.545223 -0.0990105 0
0.548514 -5.88518e-06 0
0.637493 0.0803399 0
0.779003 0.0934591 0
0.70647 -1.02591e-05 0
0.904514 0.0929102 0
1.1061 0.0922086 0
0.811788 0.0416837 0
1.16717 0.0665611 0
1.45507 0.0442304 0
0.831329 7.29915e-06 0
0.951225 -0.0484447 0
1.05721 -0.0481899 0
1.216 -0.000190664 0
1.1943 -0.041174 0
1.17429 0.0366951 0
1.50227 -0.106029 0
1.68966 -0.0638861 0
1.17466 -0.01664 0
1.08934 0.0346392 0
1.00617 0.372703 0
1.20465 0.0807353 0
1.33177 -0.0708219 0
1.62597 0.0580051 0
1.50172 0.106592 0
1.86377 -0.0804234 0
1.62821 0.131256 0
1.02449 0.414646 0
1.53928 -0.215158 0
1.86748 -0.183003 0
1.0066 -0.196464 0
1.00293 0.101114 0
0.885477 0.0486306 0
2.6194 0.00134017 0
2.65146 -0.156187 0
1.20516 -0.0806389 0
1.00256 -0.138964 0
0.532728 0.410531 0
0.693671 0.129776 0
1.00556 0.14181 0
1.05708 0.0481619 0
1.00436 0.0739883 0
0.736882 -0.0283112 0
0.126124 0.187581 0
1.00618 -0.372687 0
1.20755 0.0825846 0
1.33111 0.0320096 0
1.2402 -0.0222213 0
0.788471 -4.71658e-06 0
1.14187 -0.0296131 0
1.17331 0.000123373 0
1.626 -0.0577713 0
1.4546 -0.0951139 0
1.14125 0.0129631 0
1.31257 0.124116 0
1.69322 -0.145894 0
1.86392 0.0805099 0
1.60012 0.239512 0
0.968696 0.031147 0
1.27838 0.244088 0
0.993543 -0.369053 0
1.83006 0.329825 0
1.53029 -0.455933 0
1.00663 0.196471 0
0.943828 -0.0483515 0
1.00486 -0.102453 0
1.22945 -0.0920975 0
-0.305671 -0.070674 0
0.238386 -0.0326928 0
0.480135 -0.0299169 0
0.682897 -0.0411186 0
-1.15803 0.200441 0
-0.655546 0.339127 0
-0.204754 0.114606 0
0.693661 -0.129785 0
0.636184 -0.0359298 0
0.674762 -1.06786e-05 0
1.56025 0.00138945 0
0.82951 0.0166298 0
0.864214 -0.013431 0
1.24138 -0.0230482 0
1.16388 -0.0663766 0
1.33121 -0.0320966 0
1.08551 0.0352498 0
1.09504 -0.0184592 0
0.901706 0.0101911 0
1.03429 -0.0316403 0
1.00481 -0.266744 0
2.17271 0.00194988 0
1.09237 0.000931592 0
1.27965 0.239853 0
1.01238 0.219675 0
1.39259 -0.158144 0
1.01795 -0.303334 0
0.864227 -0.125566 0
1.54155 -0.218734 0
0.721653 0.115446 0
0.791546 -0.0126903 0
0.941207 -0.00464214 0
0.557431 0.0168169 0
1.02375 -0.66732 0
2.43424 -0.549216 0
0.342213 -0.549595 0
0.411878 0.248595 0
0.217832 6.22268e-06 0
0.912971 0.0829733 0
1.22941 0.0920095 0
0.864571 0.0300921 0
1.01796 0.303357 0
1.4539 0.0412308 0
1.56009 -0.00139975 0
1.6897 0.0641053 0
1.77231 -0.00192348 0
0.746599 -0.247437 0
1.33844 0.299517 0
1.95836 -0.202321 0
2.19362 -0.112278 0
2.31299 -0.12414 0
0.951123 0.0484542 0
2.19396 -0.115976 0
2.47247 -0.00160158 0
2.3131 0.124089 0
1.13272 0.111056 0
1.83058 -0.3327 0
2.65153 0.158587 0
0.693998 -0.0171928 0
0.964802 0.0140103 0
0.694673 0.0170931 0
2.43412 0.54977 0
-0.33812 -0.525141 0
-0.20463 -0.252844 0
-0.204757 -0.114594 0
0.0283095 0.0956157 0
0.125686 0.084416 0
1.40714 0.00114226 0
1.50124 0.0490716 0
1.45401 -0.0416331 0
1.50368 0.108628 0
1.36586 -0.0787646 0
1.39321 -0.155001 0
2.19372 0.112253 0
1.10672 -0.0435524 0
2.47239 0.00159316 0
-0.204626 0.252853 0
-0.648335 0.152704 0
1.00394 -0.114316 0
0.57562 0.180083 0
0.869816 0.0157122 0
0.742032 0.0121031 0
0.737238 0.0281805 0
0.637366 0.0201269 0
1.02664 -0.664706 0
1.73521 -0.60273 0
0.302635 -0.15454 0
0.368402 -0.0613284 0
0.373181 2.81379e-06 0
0.495016 0.0499502 0
0.497158 0.111657 0
0.544477 0.0442718 0
0.636179 0.0359099 0
0.779017 -0.0934899 0
0.763755 0.0514884 0
0.763289 0.023018 0
1.13075 0.114313 0
1.24126 0.0229656 0
1.44818 0.00125109 0
1.45637 0.0977785 0
1.19383 -0.0183935 0
1.23784 -0.000364313 0
1.15717 -0.000320447 0
1.13908 -0.0300631 0
0.877308 0.012127 0
1.14809 -0.0594818 0
1.15157 -0.0597398 0
1.32642 -0.000957816 0
1.23991 0.0496374 0
1.36382 0.0334525 0
1.85 -0.00195177 0
2.06609 -0.00196253 0
1.86749 0.183007 0
0.965361 0.0349291 0
1.05199 0.0484175 0
1.60181 0.242604 0
1.0957 -0.0826726 0
1.95881 -0.20624 0
1.09363 -0.082438 0
1.00047 -0.0275701 0
1.12836 -0.112253 0
1.17948 -0.158288 0
1.00866 -0.158593 0
0.411868 -0.248578 0
0.877604 -0.115349 0
2.02671 -0.408916 0
-0.084053 -0.387043 0
1.09412 0.0187186 0
0.359863 -0.609805 0
-0.839758 0.175859 0
-0.0326323 -0.403872 0
-0.33271 -0.286714 0
-0.83976 -0.175857 0
-0.341588 -0.130157 0
-0.0795799 6.95237e-06 0
0.369196 0.136882 0
1.2795 -0.239253 0
0.955771 0.0433005 0
1.00715 0.267678 0
1.2646 -0.0551695 0
1.24706 -0.219144 0
0.997956 0.0391673 0
0.782075 -0.0259938 0
0.852864 -0.00853843 0
0.945908 -0.00954721 0
1.04535 -0.0143037 0
0.956935 0.0143766 0
0.875036 0.0056554 0
0.890343 0.0104096 0
-1.02841 3.60305e-07 0
0.302645 0.154555 0
0.463016 0.22072 0
0.299127 -0.0693243 0
0.738736 -0.0578532 0
1.00648 0.11448 0
1.61683 0.00157488 0
1.62675 0.0612057 0
0.811246 -0.0186463 0
0.937903 -0.0599639 0
1.17638 -0.0368815 0
1.12644 0.000439873 0
1.19247 0.0403641 0
1.77231 0.002008 0
1.13992 -0.013715 0
0.746613 0.247456 0
1.24172 -0.0511735 0
1.26469 0.0549708 0
1.1011 -0.0219632 0
1.436 -0.171842 0
1.06197 -0.0259632 0
1.03442 0.0316132 0
1.38546 -0.335801 0
1.00332 0.0257569 0
1.00255 -0.100827 0
0.831052 -0.1593 0
1.00112 0.0287507 0
-0.823321 -0.389567 0
1.61388 -0.55413 0
0.126116 -0.187566 0
0.613564 -0.159974 0
0.544476 -0.0442816 0
1.00525 0.0827041 0
1.26566 0.0256498 0
1.15147 0.0596788 0
1.2377 0.000282197 0
0.829909 -0.0371819 0
0.955884 -0.0432447 0
1.1109 -0.0431083 0
1.14145 -0.0129806 0
0.965433 -0.0350214 0
1.19216 -0.0404892 0
1.17587 0.0163418 0
1.12867 0.0264137 0
1.10358 0.0210894 0
0.925696 0.0312941 0
1.25066 -0.213981 0
0.890159 0.000605284 0
1.7462 -0.297961 0
0.998229 0.503116 0
1.10456 -0.0901023 0
1.27838 -0.244059 0
1.09393 0.00766392 0
1.43553 -0.175813 0
1.04203 0.0346744 0
1.06534 0.0247434 0
1.00531 -0.0827505 0
1.05176 0.043089 0
1.07023 0.0597012 0
1.00402 0.0534594 0
-1.15803 -0.200442 0
0.130349 7.10453e-06 0
1.19418 0.0411067 0
0.671125 0.303479 0
1.6903 0.0678737 0
1.14173 0.0295657 0
1.38545 0.335822 0
1.6267 -0.0611463 0
0.463004 -0.220704 0
1.11497 0.000532929 0
1.0919 0.0197535 0
1.38419 0.331396 0
1.33633 -0.299805 0
1.54154 0.218771 0
2.32265 -0.281713 0
1.09259 -0.000550263 0
0.81664 0.178672 0
0.895647 0.00453071 0
0.684891 0.041382 0
-1.26232 -5.80519e-07 0
0.25323 -0.300827 0
0.545231 0.0990086 0
0.671577 0.0319087 0
0.738718 0.0578269 0
0.840766 0.0673768 0
1.24162 0.051094 0
1.50025 -0.0464331 0
0.763304 -0.0230354 0
0.737895 -0.0258704 0
0.811229 0.0186415 0
0.864171 0.0134949 0
1.07034 -0.0597423 0
1.17602 -0.0163987 0
1.24038 0.0221052 0
1.29653 -0.000736535 0
0.877384 -0.0119398 0
1.2664 -0.0570096 0
0.184827 0.338813 0
0.90257 0.0217304 0
0.941068 0.0252095 0
1.03808 0.0349728 0
1.16454 0.0661658 0
1.3818 -0.331797 0
1.01236 -0.219659 0
0.931515 0.0670802 0
0.937828 0.0599418 0
0.763778 -0.0515136 0
1.07262 0.0652832 0
0.342214 0.549598 0
1.07765 0.0666686 0
0.870078 -0.0156267 0
0.536871 -0.41124 0
0.855759 0.0601093 0
0.76572 -7.27037e-06 0
1.03817 -0.0351151 0
0.513058 0.459719 0
0.986405 -0.0731055 0
2.19677 0.253278 0
0.200151 -0.0975101 0
0.184823 -0.338802 0
0.877624 0.0268717 0
0.878773 0.000151218 0
0.536872 0.41125 0
1.01264 -0.302307 0
1.20105 -0.176498 0
1.03822 0.0308692 0
0.613579 0.15998 0
1.00452 0.0597659 0
0.852691 0.00852442 0
1.09563 0.0826147 0
0.925753 -0.031296 0
1.74644 0.298028 0
0.949155 -0.0449407 0
0.908964 -0.00878265 0
0.435407 1.70333e-07 0
0.885538 -0.0486401 0
1.43663 0.171818 0
1.02621 0.664758 0
2.13678 0.449731 0
0.721649 -0.115464 0
0.672184 -0.0714123 0
1.0811 0.0309108 0
1.33997 0.302487 0
1.36469 -0.0357169 0
1.61673 -0.00145689 0
1.39288 0.155697 0
0.816621 -0.178669 0
0.943518 0.048378 0
0.0878778 -0.0530284 0
0.336673 -0.611401 0
0.911803 0.0193054 0
1.11819 -0.0487489 0
1.02653 -0.558011 0
0.917796 0.0351143 0
1.07217 -0.0653064 0
1.09267 -0.00884284 0
3.31771 -0.2122 0
1.10227 0.010122 0
2.61946 -0.00138003 0
2.65157 -0.158602 0
0.513057 -0.459712 0
1.12851 -0.0114898 0
1.45503 -0.0443912 0
1.10374 -0.0209697 0
1.10326 0.00896247 0
3.31771 0.211794 0
0.637493 -0.0803565 0
1.02653 0.558014 0
0.867465 -0.128836 0
1.12884 -0.026437 0
1.49996 0.0462825 0
0.35923 0.609724 0
1.06524 -0.0597341 0
0.998232 -0.50311 0
0.497147 -0.111653 0
1.00556 -0.141847 0
0.878631 -0.11497 0
1.05195 -0.0431188 0
1.09302 0.00906416 0
2.6515 0.156138 0
1.00017 0.03211 0
0.999227 -0.0610372 0
1.00394 -0.0385066 0
2.80712 -0.173377 0
1.52941 0.452561 0
1.46308 0.411062 0
2.82534 0.375656 0
2.80707 0.171443 0
2.63601 -0.346458 0
2.32245 0.279005 0
2.82512 -0.376656 0
1.00427 -0.0431354 0
1.61934 0.552397 0
1.08146 -0.0308156 0
0.51373 0.451971 0
2.63612 0.344791 0
1.08951 -0.0346485 0
1.04251 -0.0344613 0
0.99858 0.500543 0
0.374269 0.559666 0
1.03853 -0.0294013 0
1.03257 0.560112 0
-0.149244 0.464258 0
-0.0838501 0.386608 0
0.641449 0.190107 0
1.02371 -0.195106 0
0.924165 -0.0191084 0
0.477622 0.0294526 0
1.0157 0.017644 0
1.02955 0.0250651 0
1.00113 -0.0214874 0
1.07504 0.0151276 0
0.932406 -0.000389587 0
0.939465 -0.025017 0
0.971943 0.0175483 0
0.976149 0.0245024 0
0.979754 0.0159108 0
0.956343 -0.0176736 0
1.02624 0.0156734 0
0.929923 0.016004 0
0.945111 0.00972613 0
1.07797 0.014824 0
1.05935 0.00951383 0
1.02164 -0.0171378 0
1.07522 -0.016167 0
1.05632 -0.0109724 0
1.03114 0.024346 0
1.02601 -0.0258165 0
1.00503 -0.0307222 0
1.00691 -0.155245 0
1.20301 -0.17513 0
0.946434 -0.0261854 0
0.8313 -0.180305 0
0.956865 -0.0156607 0
0.538092 0.0539859 0
1.05713 0.0224344 0
0.996041 0.0174721 0
1.02571 -0.0173215 0
1.08464 0.000258596 0
0.968578 -0.0326175 0
0.940547 -0.010942 0
0.941259 0.00471253 0
1.00291 0.0135805 0
0.945983 0.0232504 0
1.07242 -0.00125374 0
1.06236 -0.00559637 0
1.06354 0.00382227 0
1.06044 0.0228932 0
0.99682 -0.015301 0
1.05645 -0.0242638 0
1.17883 -0.15611 0
1.07618 0.00600426 0
1.04814 -0.0181148 0
1.07743 -0.00655589 0
0.925433 -0.00849193 0
0.464267 0.159909 0
0.538342 -0.100796 0
0.973205 0.0263351 0
0.452344 0.0532668 0
1.03055 -0.215531 0
0.794013 0.217074 0
0.74791 -0.0657882 0
0.750934 0.0675625 0
0.939611 -0.016393 0
0.907855 0.00819302 0
0.465356 0.216022 0
0.0471772 -0.21471 0
0.332362 -0.0609626 0
0.455421 -0.0559194 0
0.537047 0.0995064 0
0.331566 0.0623194 0
0.86889 -0.0296777 0
0.868538 0.0296711 0
0.912261 -0.082352 0
0.913666 0.0825476 0
0.845981 -0.0139271 0
0.813087 -0.0207819 0
0.812802 0.0208284 0
0.845717 0.0139083 0
0.647759 -0.190561 0
-0.36672 0.117201 0
-0.365678 -0.117553 0
0.619848 -0.0340377 0
0.53555 -0.052114 0
0.974339 -0.0175556 0
0.968669 -0.032944 0
0.968229 0.032602 0
0.887191 0.121618 0
-0.165536 -0.133518 0
0.0451297 -0.0855034 0
0.0479975 0.214919 0
-0.600592 -0.373127 0
0.924414 -0.00270518 0
-1.16637 -0.230022 0
-1.25554 0.0304377 0
-1.25555 -0.0304126 0
-1.16638 0.230026 0
0.933365 -0.00519071 0
-0.600635 0.373259 0
1.06315 -0.0197314 0
1.05915 -0.00699151 0
1.06229 0.00789194 0
0.909699 -0.00633606 0
0.923411 -0.0161136 0
0.92335 0.0719858 0
0.923053 -0.0718137 0
0.796926 -0.215589 0
0.923751 0.0160057 0
0.936894 0.0171251 0
0.933494 0.00498499 0
0.92498 0.00284652 0
-0.163341 0.133447 0
0.939023 -0.0623372 0
0.938945 0.0624348 0
1.04474 -0.0237265 0
1.06984 -0.00189287 0
1.06984 0.00540804 0
0.92158 -0.0132983 0
0.460795 -0.160307 0
0.361874 -0.157103 0
0.765675 0.244405 0
0.765425 -0.243549 0
0.82226 -0.042346 0
0.821749 0.0423028 0
0.912451 0.00359462 0
-0.649176 0.186015 0
-0.649128 -0.186291 0
0.365267 -0.0266831 0
0.971143 -0.0262084 0
0.364109 0.0252354 0
0.911385 -0.0956987 0
0.912793 0.0956744 0
0.0456209 0.0849807 0
0.818652 -0.00623083 0
0.818511 0.00623869 0
-0.583679 0.0469557 0
-0.583406 -0.0471358 0
-0.326566 0.307258 0
-0.326656 -0.307741 0
0.554659 -0.0157993 0
-0.0995421 0.0371117 0
0.962909 -0.0365662 0
0.962775 0.036372 0
0.903388 0.114993 0
-0.102258 -0.0377272 0
0.17342 0.18502 0
0.941303 -0.0122731 0
0.944121 -0.0300989 0
0.943787 0.0292132 0
0.931928 0.0126906 0
0.940391 0.0116803 0
-0.737398 -0.425667 0
-0.737457 0.425686 0
0.920637 -0.00742037 0
0.418684 -0.108389 0
1.08117 -0.0126918 0
1.061 -0.011782 0
1.05352 0.0124745 0
0.911318 0.00323427 0
0.419925 0.110289 0
0.669909 0.166204 0
0.905575 -0.018019 0
0.905221 0.0180671 0
0.934831 -0.0136147 0
0.675262 -0.167966 0
0.920494 0.00695906 0
0.533077 -0.119508 0
0.530494 0.120589 0
0.914349 -0.0253729 0
0.914803 0.0251364 0

SCALARS pressure double 1
LOOKUP_TABLE default
0.481177
0.481172
0.396106
0.444135
0.498281
0.494183
0.132561
0.493857
0.493891
0.483838
0.501998
0.488163
0.499104
0.499918
0.499574
0.504393
0.501271
0.487073
0.491797
0.500635
0.506869
0.490939
0.489318
0.488729
0.493039
0.502122
0.504928
0.503243
0.498386
0.503873
0.497997
0.0209555
0.495789
0.493081
0.467063
0.466669
0.494051
0.489751
0.485911
0.492651
-0.0773802
0.376268
0.462744
0.461413
0.0743528
0.216146
-1.30687
-1.30682
0.425027
-0.467077
-0.462965
0.406482