# vtk DataFile Version 3.0
Malha 2D com triângulos e temperatura
ASCII
DATASET UNSTRUCTURED_GRID

POINTS 2500 double
0 0 0
1 0 0
1 1 0
0 1 0
0.0204082 0 0
0.0408163 0 0
0.0612245 0 0
0.0816327 0 0
0.102041 0 0
0.122449 0 0
0.142857 0 0
0.163265 0 0
0.183673 0 0
0.204082 0 0
0.22449 0 0
0.244898 0 0
0.265306 0 0
0.285714 0 0
0.306122 0 0
0.326531 0 0
0.346939 0 0
0.367347 0 0
0.387755 0 0
0.408163 0 0
0.428571 0 0
0.44898 0 0
0.469388 0 0
0.489796 0 0
0.510204 0 0
0.530612 0 0
0.55102 0 0
0.571429 0 0
0.591837 0 0
0.612245 0 0
0.632653 0 0
0.653061 0 0
0.673469 0 0
0.693878 0 0
0.714286 0 0
0.734694 0 0
0.755102 0 0
0.77551 0 0
0.795918 0 0
0.816327 0 0
0.836735 0 0
0.857143 0 0
0.877551 0 0
0.897959 0 0
0.918367 0 0
0.938776 0 0
0.959184 0 0
0.979592 0 0
1 0.0204082 0
1 0.0408163 0
1 0.0612245 0
1 0.0816327 0
1 0.102041 0
1 0.122449 0
1 0.142857 0
1 0.163265 0
1 0.183673 0
1 0.204082 0
1 0.22449 0
1 0.244898 0
1 0.265306 0
1 0.285714 0
1 0.306122 0
1 0.326531 0
1 0.346939 0
1 0.367347 0
1 0.387755 0
1 0.408163 0
1 0.428571 0
1 0.44898 0
1 0.469388 0
1 0.489796 0
1 0.510204 0
1 0.530612 0
1 0.55102 0
1 0.571429 0
1 0.591837 0
1 0.612245 0
1 0.632653 0
1 0.653061 0
1 0.673469 0
1 0.693878 0
1 0.714286 0
1 0.734694 0
1 0.755102 0
1 0.77551 0
1 0.795918 0
1 0.816327 0
1 0.836735 0
1 0.857143 0
1 0.877551 0
1 0.897959 0
1 0.918367 0
1 0.938776 0
1 0.959184 0
1 0.979592 0
0.979592 1 0
0.959184 1 0
0.938776 1 0
0.918367 1 0
0.897959 1 0
0.877551 1 0
0.857143 1 0
0.836735 1 0
0.816327 1 0
0.795918 1 0
0.77551 1 0
0.755102 1 0
0.734694 1 0
0.714286 1 0
0.693878 1 0
0.673469 1 0
0.653061 1 0
0.632653 1 0
0.612245 1 0
0.591837 1 0
0.571429 1 0
0.55102 1 0
0.530612 1 0
0.510204 1 0
0.489796 1 0
0.469388 1 0
0.44898 1 0
0.428571 1 0
0.408163 1 0
0.387755 1 0
0.367347 1 0
0.346939 1 0
0.326531 1 0
0.306122 1 0
0.285714 1 0
0.265306 1 0
0.244898 1 0
0.22449 1 0
0.204082 1 0
0.183673 1 0
0.163265 1 0
0.142857 1 0
0.122449 1 0
0.102041 1 0
0.0816327 1 0
0.0612245 1 0
0.0408163 1 0
0.0204082 1 0
0 0.979592 0
0 0.959184 0
0 0.938776 0
0 0.918367 0
0 0.897959 0
0 0.877551 0
0 0.857143 0
0 0.836735 0
0 0.816327 0
0 0.795918 0
0 0.77551 0
0 0.755102 0
0 0.734694 0
0 0.714286 0
0 0.693878 0
0 0.673469 0
0 0.653061 0
0 0.632653 0
0 0.612245 0
0 0.591837 0
0 0.571429 0
0 0.55102 0
0 0.530612 0
0 0.510204 0
0 0.489796 0
0 0.469388 0
0 0.44898 0
0 0.428571 0
0 0.408163 0
0 0.387755 0
0 0.367347 0
0 0.346939 0
0 0.326531 0
0 0.306122 0
0 0.285714 0
0 0.265306 0
0 0.244898 0
0 0.22449 0
0 0.204082 0
0 0.183673 0
0 0.163265 0
0 0.142857 0
0 0.122449 0
0 0.102041 0
0 0.0816327 0
0 0.0612245 0
0 0.0408163 0
0 0.0204082 0
0.0204082 0.979592 0
0.0204082 0.959184 0
0.0204082 0.938776 0
0.0204082 0.918367 0
0.0204082 0.897959 0
0.0204082 0.877551 0
0.0204082 0.857143 0
0.0204082 0.836735 0
0.0204082 0.816327 0
0.0204082 0.795918 0
0.0204082 0.77551 0
0.0204082 0.755102 0
0.0204082 0.734694 0
0.0204082 0.714286 0
0.0204082 0.693878 0
0.0204082 0.673469 0
0.0204082 0.653061 0
0.0204082 0.632653 0
0.0204082 0.612245 0
0.0204082 0.591837 0
0.0204082 0.571429 0
0.0204082 0.55102 0
0.0204082 0.530612 0
0.0204082 0.510204 0
0.0204082 0.489796 0
0.0204082 0.469388 0
0.0204082 0.44898 0
0.0204082 0.428571 0
0.0204082 0.408163 0
0.0204082 0.387755 0
0.0204082 0.367347 0
0.0204082 0.346939 0
0.0204082 0.326531 0
0.0204082 0.306122 0
0.0204082 0.285714 0
0.0204082 0.265306 0
0.0204082 0.244898 0
0.0204082 0.22449 0
0.0204082 0.204082 0
0.0204082 0.183673 0
0.0204082 0.163265 0
0.0204082 0.142857 0
0.0204082 0.122449 0
0.0204082 0.102041 0
0.0204082 0.0816327 0
0.0204082 0.0612245 0
0.0204082 0.0408163 0
0.0204082 0.0204082 0
0.0408163 0.979592 0
0.0408163 0.959184 0
0.0408163 0.938776 0
0.0408163 0.918367 0
0.0408163 0.897959 0
0.0408163 0.877551 0
0.0408163 0.857143 0
0.0408163 0.836735 0
0.0408163 0.816327 0
0.0408163 0.795918 0
0.0408163 0.77551 0
0.0408163 0.755102 0
0.0408163 0.734694 0
0.0408163 0.714286 0
0.0408163 0.693878 0
0.0408163 0.673469 0
0.0408163 0.653061 0
0.0408163 0.632653 0
0.0408163 0.612245 0
0.0408163 0.591837 0
0.0408163 0.571429 0
0.0408163 0.55102 0
0.0408163 0.530612 0
0.0408163 0.510204 0
0.0408163 0.489796 0
0.0408163 0.469388 0
0.0408163 0.44898 0
0.0408163 0.428571 0
0.0408163 0.408163 0
0.0408163 0.387755 0
0.0408163 0.367347 0
0.0408163 0.346939 0
0.0408163 0.326531 0
0.0408163 0.306122 0
0.0408163 0.285714 0
0.0408163 0.265306 0
0.0408163 0.244898 0
0.0408163 0.22449 0
0.0408163 0.204082 0
0.0408163 0.183673 0
0.0408163 0.163265 0
0.0408163 0.142857 0
0.0408163 0.122449 0
0.0408163 0.102041 0
0.0408163 0.0816327 0
0.0408163 0.0612245 0
0.0408163 0.0408163 0
0.0408163 0.0204082 0
0.0612245 0.979592 0
0.0612245 0.959184 0
0.0612245 0.938776 0
0.0612245 0.918367 0
0.0612245 0.897959 0
0.0612245 0.877551 0
0.0612245 0.857143 0
0.0612245 0.836735 0
0.0612245 0.816327 0
0.0612245 0.795918 0
0.0612245 0.77551 0
0.0612245 0.755102 0
0.0612245 0.734694 0
0.0612245 0.714286 0
0.0612245 0.693878 0
0.0612245 0.673469 0
0.0612245 0.653061 0
0.0612245 0.632653 0
0.0612245 0.612245 0
0.0612245 0.591837 0
0.0612245 0.571429 0
0.0612245 0.55102 0
0.0612245 0.530612 0
0.0612245 0.510204 0
0.0612245 0.489796 0
0.0612245 0.469388 0
0.0612245 0.44898 0
0.0612245 0.428571 0
0.0612245 0.408163 0
0.0612245 0.387755 0
0.0612245 0.367347 0
0.0612245 0.346939 0
0.0612245 0.326531 0
0.0612245 0.306122 0
0.0612245 0.285714 0
0.0612245 0.265306 0
0.0612245 0.244898 0
0.0612245 0.22449 0
0.0612245 0.204082 0
0.0612245 0.183673 0
0.0612245 0.163265 0
0.0612245 0.142857 0
0.0612245 0.122449 0
0.0612245 0.102041 0
0.0612245 0.0816327 0
0.0612245 0.0612245 0
0.0612245 0.0408163 0
0.0612245 0.0204082 0
0.0816327 0.979592 0
0.0816327 0.959184 0
0.0816327 0.938776 0
0.0816327 0.918367 0
0.0816327 0.897959 0
0.0816327 0.877551 0
0.0816327 0.857143 0
0.0816327 0.836735 0
0.0816327 0.816327 0
0.0816327 0.795918 0
0.0816327 0.77551 0
0.0816327 0.755102 0
0.0816327 0.734694 0
0.0816327 0.714286 0
0.0816327 0.693878 0
0.0816327 0.673469 0
0.0816327 0.653061 0
0.0816327 0.632653 0
0.0816327 0.612245 0
0.0816327 0.591837 0
0.0816327 0.571429 0
0.0816327 0.55102 0
0.0816327 0.530612 0
0.0816327 0.510204 0
0.0816327 0.489796 0
0.0816327 0.469388 0
0.0816327 0.44898 0
0.0816327 0.428571 0
0.0816327 0.408163 0
0.0816327 0.387755 0
0.0816327 0.367347 0
0.0816327 0.346939 0
0.0816327 0.326531 0
0.0816327 0.306122 0
0.0816327 0.285714 0
0.0816327 0.265306 0
0.0816327 0.244898 0
0.0816327 0.22449 0
0.0816327 0.204082 0
0.0816327 0.183673 0
0.0816327 0.163265 0
0.0816327 0.142857 0
0.0816327 0.122449 0
0.0816327 0.102041 0
0.0816327 0.0816327 0
0.0816327 0.0612245 0
0.0816327 0.0408163 0
0.0816327 0.0204082 0
0.102041 0.979592 0
0.102041 0.959184 0
0.102041 0.938776 0
0.102041 0.918367 0
0.102041 0.897959 0
0.102041 0.877551 0
0.102041 0.857143 0
0.102041 0.836735 0
0.102041 0.816327 0
0.102041 0.795918 0
0.102041 0.77551 0
0.102041 0.755102 0
0.102041 0.734694 0
0.102041 0.714286 0
0.102041 0.693878 0
0.102041 0.673469 0
0.102041 0.653061 0
0.102041 0.632653 0
0.102041 0.612245 0
0.102041 0.591837 0
0.102041 0.571429 0
0.102041 0.55102 0
0.102041 0.530612 0
0.102041 0.510204 0
0.102041 0.489796 0
0.102041 0.469388 0
0.102041 0.44898 0
0.102041 0.428571 0
0.102041 0.408163 0
0.102041 0.387755 0
0.102041 0.367347 0
0.102041 0.346939 0
0.102041 0.326531 0
0.102041 0.306122 0
0.102041 0.285714 0
0.102041 0.265306 0
0.102041 0.244898 0
0.102041 0.22449 0
0.102041 0.204082 0
0.102041 0.183673 0
0.102041 0.163265 0
0.102041 0.142857 0
0.102041 0.122449 0
0.102041 0.102041 0
0.102041 0.0816327 0
0.102041 0.0612245 0
0.102041 0.0408163 0
0.102041 0.0204082 0
0.122449 0.979592 0
0.122449 0.959184 0
0.122449 0.938776 0
0.122449 0.918367 0
0.122449 0.897959 0
0.122449 0.877551 0
0.122449 0.857143 0
0.122449 0.836735 0
0.122449 0.816327 0
0.122449 0.795918 0
0.122449 0.77551 0
0.122449 0.755102 0
0.122449 0.734694 0
0.122449 0.714286 0
0.122449 0.693878 0
0.122449 0.673469 0
0.122449 0.653061 0
0.122449 0.632653 0
0.122449 0.612245 0
0.122449 0.591837 0
0.122449 0.571429 0
0.122449 0.55102 0
0.122449 0.530612 0
0.122449 0.510204 0
0.122449 0.489796 0
0.122449 0.469388 0
0.122449 0.44898 0
0.122449 0.428571 0
0.122449 0.408163 0
0.122449 0.387755 0
0.122449 0.367347 0
0.122449 0.346939 0
0.122449 0.326531 0
0.122449 0.306122 0
0.122449 0.285714 0
0.122449 0.265306 0
0.122449 0.244898 0
0.122449 0.22449 0
0.122449 0.204082 0
0.122449 0.183673 0
0.122449 0.163265 0
0.122449 0.142857 0
0.122449 0.122449 0
0.122449 0.102041 0
0.122449 0.0816327 0
0.122449 0.0612245 0
0.122449 0.0408163 0
0.122449 0.0204082 0
0.142857 0.979592 0
0.142857 0.959184 0
0.142857 0.938776 0
0.142857 0.918367 0
0.142857 0.897959 0
0.142857 0.877551 0
0.142857 0.857143 0
0.142857 0.836735 0
0.142857 0.816327 0
0.142857 0.795918 0
0.142857 0.77551 0
0.142857 0.755102 0
0.142857 0.734694 0
0.142857 0.714286 0
0.142857 0.693878 0
0.142857 0.673469 0
0.142857 0.653061 0
0.142857 0.632653 0
0.142857 0.612245 0
0.142857 0.591837 0
0.142857 0.571429 0
0.142857 0.55102 0
0.142857 0.530612 0
0.142857 0.510204 0
0.142857 0.489796 0
0.142857 0.469388 0
0.142857 0.44898 0
0.142857 0.428571 0
0.142857 0.408163 0
0.142857 0.387755 0
0.142857 0.367347 0
0.142857 0.346939 0
0.142857 0.326531 0
0.142857 0.306122 0
0.142857 0.285714 0
0.142857 0.265306 0
0.142857 0.244898 0
0.142857 0.22449 0
0.142857 0.204082 0
0.142857 0.183673 0
0.142857 0.163265 0
0.142857 0.142857 0
0.142857 0.122449 0
0.142857 0.102041 0
0.142857 0.0816327 0
0.142857 0.0612245 0
0.142857 0.0408163 0
0.142857 0.0204082 0
0.163265 0.979592 0
0.163265 0.959184 0
0.163265 0.938776 0
0.163265 0.918367 0
0.163265 0.897959 0
0.163265 0.877551 0
0.163265 0.857143 0
0.163265 0.836735 0
0.163265 0.816327 0
0.163265 0.795918 0
0.163265 0.77551 0
0.163265 0.755102 0
0.163265 0.734694 0
0.163265 0.714286 0
0.163265 0.693878 0
0.163265 0.673469 0
0.163265 0.653061 0
0.163265 0.632653 0
0.163265 0.612245 0
0.163265 0.591837 0
0.163265 0.571429 0
0.163265 0.55102 0
[...]
CELL_DATA 2401
SCALARS pressure double 1
LOOKUP_TABLE default
0
0.00217639
-0.00792625
-0.014625
-0.0202172
-0.0240129
-0.0257346
-0.0251565
-0.022146
-0.0166955
-0.00893502
0.000863723
0.0122953
0.0248409
0.0378986
0.0508241
0.0629769
0.0737709
0.0827246
0.0895083
0.093988
0.0962536
0.0966917
0.0957915
0.0949499
0.0957915
0.0966917
0.0962536
0.093988
0.0895083
0.0827246
0.0737709
0.0629769
0.0508241
0.0378986
0.0248409
0.0122953
0.000863723
-0.00893502
-0.0166955
-0.022146
-0.0251565
-0.0257346
-0.0240129
-0.0202172
-0.014625
-0.00792625
0.00217639
-7.30343e-15
0.0441252
0.0517345
0.050165
0.0506572
0.0508921
0.051202
0.0515306
0.0518177
0.0519977
0.0520012
0.051764
0.0512337
0.0503745
0.0491715
0.0476328
0.0457913
0.0437034
0.0414472
0.0391187
0.0368262
0.0346846
0.0327978
0.0312897
0.0300892
0.0295087
0.0300892
0.0312897
0.0327978
0.0346846
0.0368262
0.0391187
0.0414472
0.0437034
0.0457913
0.0476328
0.0491715
0.0503745
0.0512337
0.051764
0.0520012
0.0519977
0.0518177
0.0515306
0.051202
0.0508921
0.0506572
0.050165
0.0517345
0.0441252
0.0728425
0.0805962
0.0779155
0.0772648
0.0765174
0.0760745
0.0759786
0.0762417
0.0768472
0.0777464
0.078867
0.0801184
0.0814004
0.0826118
0.083659
0.0844645
0.0849739
0.0851606
0.0850282
0.0846108
0.0839711
0.083186
0.0823845
0.081535
0.0810637
0.081535
0.0823845
0.083186
0.0839711
0.0846108
0.0850282
0.0851606
0.0849739
0.0844645
0.083659
0.0826118
0.0814004
0.0801184
0.078867
0.0777464
0.0768472
0.0762417
0.0759786
0.0760745
0.0765174
0.0772648
0.0779155
0.0805962
0.0728425
0.105165
0.111634
0.109702
0.109408
0.108933
0.108593
0.108422
0.108441
0.108656
0.109056
0.109613
0.110287
0.111027
0.111775
0.112473
0.113065
0.113503
0.113754
0.113802
0.11365
0.113325
0.112859
0.11234
0.111696
0.111309
0.111696
0.11234
0.112859
0.113325
0.11365
0.113802
0.113754
0.113503
0.113065
0.112473
0.111775
0.111027
0.110287
0.109613
0.109056
0.108656
0.108441
0.108422
0.108593
0.108933
0.109408
0.109702
0.111634
0.105165
0.135943
0.139842
0.138591
0.138296
0.137882
0.137548
0.137326
0.137236
0.137288
0.137476
0.137783
0.138182
0.138637
0.139108
0.139553
0.139931
0.140208
0.140359
0.14037
0.140242
0.139989
0.139627
0.139219
0.138675
0.138336
0.138675
0.139219
0.139627
0.139989
0.140242
0.14037
0.140359
0.140208
0.139931
0.139553
0.139108
0.138637
0.138182
0.137783
0.137476
0.137288
0.137236
0.137326
0.137548
0.137882
0.138296
0.138591
0.139842
0.135943
0.165526
0.166136
0.165657
0.16524
0.164818
0.164427
0.164104
0.163873
0.163751
0.163741
0.163842
0.164041
0.164316
0.164639
0.164979
0.165303
0.165577
0.165774
0.165876
0.16587
0.165757
0.165537
0.165254
0.164808
0.164514
0.164808
0.165254
0.165537
0.165757
0.16587
0.165876
0.165774
0.165577
0.165303
0.164979
0.164639
0.164316
0.164041
0.163842
0.163741
0.163751
0.163873
0.164104
0.164427
0.164818
0.16524
0.165657
0.166136
0.165526
0.193707
0.190604
0.19098
0.190378
0.189921
0.189456
0.189029
0.188665
0.188383
0.188198
0.188115
0.188132
0.188241
0.188423
0.188655
0.18891
0.189158
0.189371
0.189525
0.189601
0.189586
0.18947
0.189281
0.188913
0.188654
0.188913
0.189281
0.18947
0.189586
0.189601
0.189525
0.189371
0.189158
0.18891
0.188655
0.188423
0.188241
0.188132
0.188115
0.188198
0.188383
0.188665
0.189029
0.189456
0.189921
0.190378
0.19098
0.190604
0.193707
0.220446
0.213366
0.214647
0.21381
0.213295
0.212737
0.212195
0.211699
0.21127
0.210928
0.210687
0.210554
0.210528
0.210598
0.210746
0.21095
0.211181
0.21141
0.211607
0.211748
0.211813
0.211778
0.211662
0.211357
0.211128
0.211357
0.211662
0.211778
0.211813
0.211748
0.211607
0.21141
0.211181
0.21095
0.210746
0.210598
0.210528
0.210554
0.210687
0.210928
0.21127
0.211699
0.212195
0.212737
0.213295
0.21381
0.214647
0.213366
0.220446
0.245781
0.234547
0.236774
0.235671
0.235085
0.234422
0.233762
0.233137
0.232568
0.232084
0.231704
0.23144
0.231299
0.231275
0.231356
0.23152
0.23174
0.231985
0.232221
0.232418
0.232548
0.232581
0.232525
0.232273
0.232069
0.232273
0.232525
0.232581
0.232548
0.232418
0.232221
0.231985
0.23174
0.23152
0.231356
0.231275
0.231299
0.23144
0.231704
0.232084
0.232568
0.233137
0.233762
0.234422
0.235085
0.235671
0.236774
0.234547
0.245781
0.269772
0.254261
0.257462
0.256071
0.255408
0.254636
0.253857
0.253106
0.252407
0.251793
0.251287
0.250909
0.250668
0.250565
0.250589
0.25072
0.250932
0.25119
0.251459
0.251702
0.251886
0.251975
0.251969
0.251761
0.251579
0.251761
0.251969
0.251975
0.251886
0.251702
0.251459
0.25119
0.250932
0.25072
0.250589
0.250565
0.250668
0.250909
0.251287
0.251793
0.252407
0.253106
0.253857
0.254636
0.255408
0.256071
0.257462
0.254261
0.269772
0.292484
0.272611
0.276806
0.275112
0.274371
0.273487
0.272592
0.271721
0.270901
0.270167
0.269549
0.269069
0.268741
0.268569
0.268543
0.268647
0.26885
0.26912
0.269415
0.269696
0.269924
0.270059
0.270094
0.269924
0.269761
0.269924
0.270094
0.270059
0.269924
0.269696
0.269415
0.26912
0.26885
0.268647
0.268543
0.268569
0.268741
0.269069
0.269549
0.270167
0.270901
0.271721
0.272592
0.273487
0.274371
0.275112
0.276806
0.272611
0.292484
0.313974
0.289693
0.294891
0.292887
0.292068
0.291074
0.290068
0.289084
0.288152
0.28731
0.28659
0.286019
0.285614
0.28538
0.285311
0.285388
0.285583
0.285859
0.286175
0.286486
0.286749
0.28692
0.28699
0.286851
0.286704
0.286851
0.28699
0.28692
0.286749
0.286486
0.286175
0.285859
0.285583
0.285388
0.285311
0.28538
0.285614
0.286019
0.28659
0.28731
0.288152
0.289084
0.290068
0.291074
0.292068
0.292887
0.294891
0.289693
0.313974
0.334282
0.305594
0.311794
0.309478
0.308583
0.307484
0.306374
0.305287
0.304253
0.303313
0.302502
0.30185
0.301375
0.301085
0.300974
0.301026
0.30121
0.301488
0.301817
0.302149
0.302439
0.302639
0.302735
0.302622
0.302489
0.302622
0.302735
0.302639
0.302439
0.302149
0.301817
0.301488
0.30121
0.301026
0.300974
0.301085
0.301375
0.30185
0.302502
0.303313
0.304253
0.305287
0.306374
0.307484
0.308583
0.309478
0.311794
0.305594
0.334282
0.353434
0.320393
0.327582
0.324954
0.32399
0.322793
0.321588
0.320408
0.319283
0.318257
0.317365
0.31664
0.316101
0.31576
0.31561
0.315634
0.315803
0.316077
0.316412
0.316757
0.317064
0.317285
0.317401
0.317309
0.317188
0.317309
0.317401
0.317285
0.317064
0.316757
0.316412
0.316077
0.315803
0.315634
0.31561
0.31576
0.316101
0.31664
0.317365
0.318257
0.319283
0.320408
0.321588
0.322793
0.32399
0.324954
0.327582
0.320393
0.353434
0.371434
0.334159
0.34231
0.33938
0.338353
0.337067
0.335778
0.334516
0.333313
0.332211
0.331249
0.330459
0.329863
0.329473
0.329284
0.329278
0.329428
0.329692
0.330023
0.330372
0.330689
0.330922
0.331051
0.330976
0.330865
0.330976
0.331051
0.330922
0.330689
0.330372
0.330023
0.329692
0.329428
0.329278
0.329284
0.329473
0.329863
0.330459
0.331249
0.332211
0.333313
0.334516
0.335778
0.337067
0.338353
0.33938
0.34231
0.334159
0.371434
0.388272
0.346959
0.356027
0.352809
0.351729
0.350365
0.349003
0.347673
0.346404
0.345238
0.344215
0.343368
0.342721
0.342285
0.342056
0.342018
0.342142
0.342388
0.342709
0.343052
0.343368
0.343606
0.343742
0.343679
0.343576
0.343679
0.343742
0.343606
0.343368
0.343052
0.342709
0.342388
0.342142
0.342018
0.342056
0.342285
0.342721
0.343368
0.344215
0.345238
0.346404
0.347673
0.349003
0.350365
0.351729
0.352809
0.356027
0.346959
0.388272
0.403927
0.358849
0.368774
0.365289
0.364166
0.362735
0.361316
0.359931
0.358608
0.35739
0.356317
0.355422
0.354728
0.354247
0.353978
0.353904
0.353997
0.354217
0.354517
0.354846
0.355153
0.355387
0.355523
0.355468
0.35537
0.355468
0.355523
0.355387
0.355153
0.354846
0.354517
0.354217
0.353997
0.353904
0.353978
0.354247
0.354728
0.355422
0.356317
0.35739
0.358608
0.359931
0.361316
0.362735
0.364166
0.365289
0.368774
0.358849
0.403927
0.418367
0.369882
0.380585
0.37686
0.375706
0.374223
0.372759
0.371333
0.369971
0.368714
0.367601
0.366664
0.365928
0.365406
0.365095
0.364981
0.365036
0.365222
0.365493
0.365797
0.366086
0.366308
0.366439
0.366386
0.366293
0.366386
0.366439
0.366308
0.366086
0.365797
0.365493
0.365222
0.365036
0.364981
0.365095
0.365406
0.365928
0.366664
0.367601
0.368714
0.369971
0.371333
0.372759
0.374223
0.375706
0.37686
0.380585
0.369882
0.418367
0.431556
0.380106
0.39149
0.387558
0.386386
0.384865
0.383373
0.381921
0.380533
0.379249
0.378105
0.377135
0.376362
0.375798
0.375444
0.375286
0.375298
0.375442
0.375674
0.375945
0.376207
0.376409
0.376528
0.376474
0.376384
0.376474
0.376528
0.376409
0.376207
0.375945
0.375674
0.375442
0.375298
0.375286
0.375444
0.375798
0.376362
0.377135
0.378105
0.379249
0.380533
0.381921
0.383373
0.384865
0.386386
0.387558
0.39149
0.380106
0.431556
0.443458
0.389565
0.401515
0.397416
0.396239
0.394696
0.393191
0.391728
0.390328
0.389029
0.387865
0.386868
0.386061
0.385459
0.38506
0.384854
0.384815
0.384909
0.385094
0.385323
0.385548
0.385724
0.385824
0.385765
0.385677
0.385765
0.385824
0.385724
0.385548
0.385323
0.385094
0.384909
0.384815
0.384854
0.38506
0.385459
0.386061
0.386868
0.387865
0.389029
0.390328
0.391728
0.393191
0.394696
0.396239
0.397416
0.401515
0.389565
0.443458
0.45404
0.398298
0.410684
0.406464
0.405296
0.403748
0.402246
0.400786
0.399387
0.398083
0.396908
0.395891
0.395056
0.394415
0.393971
0.393712
0.393617
0.393653
0.393782
0.39396
0.394142
0.394282
0.39436
0.394292
0.394205
0.394292
0.39436
0.394282
0.394142
0.39396
0.393782
0.393653
0.393617
0.393712
0.393971
0.394415
0.395056
0.395891
0.396908
0.398083
0.399387
0.400786
0.402246
0.403748
0.405296
0.406464
0.410684
0.398298
0.45404
0.463277
0.406345
0.419023
0.414731
0.413585
0.412049
0.410565
0.409123
0.407737
0.40644
0.405263
0.404232
0.403371
0.402693
0.402201
0.401886
0.401729
0.401701
0.401766
0.401884
0.402013
0.402113
0.402162
0.402082
0.401994
0.402082
0.402162
0.402113
0.402013
0.401884
0.401766
0.401701
0.401729
0.401886
0.402201
0.402693
0.403371
0.404232
0.405263
0.40644
0.407737
0.409123
0.410565
0.412049
0.413585
0.414731
0.419023
0.406345
0.463277
0.471157
0.413741
0.426555
0.422246
0.421136
0.419628
0.418177
0.416766
0.415406
0.414125
0.412953
0.411914
0.41103
0.410315
0.409774
0.409399
0.409174
0.409074
0.409068
0.409118
0.409189
0.409241
0.409256
0.409162
0.409072
0.409162
0.409256
0.409241
0.409189
0.409118
0.409068
0.409074
0.409174
0.409399
0.409774
0.410315
0.41103
0.411914
0.412953
0.414125
0.415406
0.416766
0.418177
0.419628
0.421136
0.422246
0.426555
0.413741
0.471157
0.477678
0.420522
0.433309
0.429039
0.427978
0.426514
0.425111
0.423743
0.422418
0.421163
0.420002
0.418959
0.418055
0.417304
0.41671
0.416271
0.415973
0.415796
0.415711
0.415687
0.415691
0.41569
0.415667
0.415556
0.415464
0.415556
0.415667
0.41569
0.415691
0.415687
0.415711
0.415796
0.415973
0.416271
0.41671
0.417304
0.418055
0.418959
0.420002
0.421163
0.422418
0.423743
0.425111
0.426514
0.427978
0.429039
0.433309
0.420522
0.477678
0.482858
0.426723
0.439315
0.435141
0.434142
0.432738
0.431396
0.430082
0.428802
0.42758
0.426435
0.425391
0.424468
0.423679
0.423032
0.422525
0.422148
0.421886
0.421716
0.421611
0.421543
0.421483
0.421419
0.421288
0.421192
0.421288
0.421419
0.421483
0.421543
0.421611
0.421716
0.421886
0.422148
0.422525
0.423032
0.423679
0.424468
0.425391
0.426435
0.42758
0.428802
0.430082
0.431396
0.432738
0.434142
0.435141
0.439315
0.426723
0.482858
0.486731
0.432377
0.444607
0.440588
0.439661
0.438333
0.437063
0.435812
0.434585
0.4334
0.432276
0.431234
0.430291
0.429463
0.428759
0.428179
0.427719
0.427367
0.427105
0.426912
0.426766
0.426643
0.426532
0.42638
0.42628
0.42638
0.426532
0.426643
0.426766
0.426912
0.427105
0.427367
0.427719
0.428179
0.428759
0.429463
0.430291
0.431234
0.432276
0.4334
0.434585
0.435812
0.437063
0.438333
0.439661
0.440588
0.444607
0.432377
0.486731
0.489349
0.437519
0.449223
0.445415
0.444572
0.443333
0.442146
0.440966
0.439797
0.438654
0.437552
0.436511
0.435549
0.434679
0.433914
0.433257
0.432707
0.432258
0.431898
0.431611
0.431382
0.43119
0.431031
0.430854
0.430751
0.430854
0.431031
0.43119
0.431382
0.431611
0.431898
0.432258
0.432707
0.433257
0.433914
0.434679
0.435549
0.436511
0.437552
0.438654
0.439797
0.440966
0.442146
0.443333
0.444572
0.445415
0.449223
0.437519
0.489349
0.490784
0.442183
0.453207
0.449664
0.448914
0.447776
0.44668
0.445578
0.444471
0.443371
0.442292
0.441251
0.440265
0.439351
0.438519
0.437779
0.437134
0.436582
0.436117
0.435731
0.435412
0.435148
0.434936
0.434733
0.434625
0.434733
0.434936
0.435148
0.435412
0.435731
0.436117
0.436582
0.437134
0.437779
0.438519
0.439351
0.440265
0.441251
0.442292
0.443371
0.444471
0.445578
0.44668
0.447776
0.448914
0.449664
0.453207
0.442183
0.490784
0.491124
0.446405
0.456605
0.45338
0.45273
0.451703
0.450705
0.449685
0.448642
0.447585
0.446527
0.445483
0.444469
0.443504
0.4426
0.441771
0.441023
0.44036
0.439784
0.439291
0.438878
0.438536
0.438268
0.438038
0.437924
0.438038
0.438268
0.438536
0.438878
0.439291
0.439784
0.44036
0.441023
0.441771
0.4426
0.443504
0.444469
0.445483
0.446527
0.447585
0.448642
0.449685
0.450705
0.451703
0.45273
0.45338
0.456605
0.446405
0.491124
0.490475
0.450221
0.459471
0.456608
0.456066
0.455159
0.454264
0.453327
0.452348
0.451332
0.45029
0.449237
0.44819
0.447166
0.446183
0.445255
0.444396
0.443616
0.442921
0.442315
0.441801
0.441377
0.441049
0.440789
0.440668
0.440789
0.441049
0.441377
0.441801
0.442315
0.442921
0.443616
0.444396
0.445255
0.446183
0.447166
0.44819
0.449237
0.45029
0.451332
0.452348
0.453327
0.454264
0.455159
0.456066
0.456608
0.459471
0.450221
0.490475
0.488962
0.453668
0.461862
0.459401
0.458971
0.458192
0.457402
0.456549
0.45563
0.45465
0.453618
0.452549
0.451459
0.450367
0.449294
0.448259
0.447279
0.446372
0.445549
0.444823
0.444201
0.44369
0.443298
0.443005
0.442877
0.443005
0.443298
0.44369
0.444201
0.444823
0.445549
0.446372
0.447279
0.448259
0.449294
0.450367
0.451459
0.452549
0.453618
0.45465
0.45563
0.456549
0.457402
0.458192
0.458971
0.459401
0.461862
0.453668
0.488962
0.486723
0.456783
0.463838
0.461814
0.461501
0.460852
0.460168
0.459395
0.458532
0.457581
0.45655
0.455454
0.454309
0.453138
0.451963
0.450808
0.449697
0.448651
0.447691
0.446835
0.446098
0.445493
0.445033
0.444705
0.444569
0.444705
0.445033
0.445493
0.446098
0.446835
0.447691
0.448651
0.449697
0.450808
0.451963
0.453138
0.454309
0.455454
0.45655
0.457581
0.458532
0.459395
0.460168
0.460852
0.461501
0.461814
0.463838
0.456783
0.486723
0.483909
0.459605
0.465467
0.463903
0.463709
0.463195
0.462614
0.461917
0.461101
0.460168
0.459126
0.457989
0.456777
0.455511
0.45422
0.452931
0.451673
0.450476
0.449366
0.44837
0.44751
0.446803
0.44627
0.445903
0.445758
0.445903
0.44627
0.446803
0.44751
0.44837
0.449366
0.450476
0.451673
0.452931
0.45422
0.455511
0.456777
0.457989
0.459126
0.460168
0.461101
0.461917
0.462614
0.463195
0.463709
0.463903
0.465467
0.459605
0.483909
0.480688
0.462174
0.466819
0.465732
0.465658
0.465277
0.464795
0.464164
0.463385
0.462458
0.46139
0.460196
0.458897
0.45752
0.456094
0.454653
0.453232
0.451868
0.450595
0.449446
0.448451
0.447635
0.447022
0.446612
0.446455
0.446612
0.447022
0.447635
0.448451
0.449446
0.450595
0.451868
0.453232
0.454653
0.456094
0.45752
0.458897
0.460196
0.46139
0.462458
0.463385
0.464164
0.464795
0.465277
0.465658
0.465732
0.466819
0.462174
0.480688
0.477242
0.464528
0.467967
0.467363
0.467409
0.467157
0.466766
0.466192
0.465436
0.464497
0.463385
0.462114
0.460708
0.459197
0.457614
0.456
0.454397
0.452846
0.451392
0.450076
0.448933
0.447997
0.447297
0.446839
0.44667
0.446839
0.447297
0.447997
0.448933
0.450076
0.451392
0.452846
0.454397
0.456
0.457614
0.459197
0.460708
0.462114
0.463385
0.464497
0.465436
0.466192
0.466766
0.467157
0.467409
0.467363
0.467967
0.464528
0.477242
0.473766
0.466711
0.468991
0.468864
0.469028
0.468899
0.468589
0.468058
0.467307
0.466337
0.465157
0.463786
0.462247
0.460576
0.458811
0.456999
0.455187
0.453428
0.451773
0.45027
0.448965
0.447896
0.4471
0.446588
0.446403
0.446588
0.4471
0.447896
0.448965
0.45027
0.451773
0.453428
0.455187
0.456999
0.458811
0.460576
0.462247
0.463786
0.465157
0.466337
0.467307
0.468058
0.468589
0.468899
0.469028
0.468864
0.468991
0.466711
0.473766
0.470472
0.468763
0.469973
0.470306
0.470584
0.470568
0.470325
0.469819
0.469053
0.468029
0.466756
0.465254
0.463553
0.461691
0.459713
0.457671
0.455622
0.453627
0.451745
0.450034
0.448548
0.447332
0.446428
0.445855
0.445652
0.445855
0.446428
0.447332
0.448548
0.450034
0.451745
0.453627
0.455622
0.457671
0.459713
0.461691
0.463553
0.465254
0.466756
0.468029
0.469053
0.469819
0.470325
0.470568
0.470584
0.470306
0.469973
0.468763
0.470472
0.467592
0.470727
0.470999
0.47176
0.472146
0.472231
0.472038
0.471537
0.470733
0.469626
0.468229
0.466564
0.464665
0.462575
0.460346
0.458038
0.455718
0.453454
0.451315
0.449369
0.447679
0.446298
0.445272
0.444629
0.444405
0.444629
0.445272
0.446298
0.447679
0.449369
0.451315
0.453454
0.455718
0.458038
0.460346
0.462575
0.464665
0.466564
0.468229
0.469626
0.470733
0.471537
0.472038
0.472231
0.472146
0.47176
0.470999
0.470727
0.467592
0.465374
0.472647
0.47216
0.473303
0.473789
0.473958
0.473795
0.473277
0.472406
0.471185
0.469628
0.467761
0.465622
0.46326
0.460737
0.45812
0.455485
0.452912
0.450481
0.448269
0.446347
0.444778
0.443616
0.442893
0.442644
0.442893
0.443616
0.444778
0.446347
0.448269
0.450481
0.452912
0.455485
0.45812
0.460737
0.46326
0.465622
0.467761
0.469628
0.471185
0.472406
0.473277
0.473795
0.473958
0.473789
0.473303
0.47216
0.472647
0.465374
0.464088
0.474566
0.473547
0.475009
0.475586
0.47582
0.475667
0.475106
0.474138
0.472767
0.471009
0.468894
0.466466
0.463782
0.460911
0.457932
0.454933
0.452004
0.449236
0.446719
0.444533
0.442751
0.441432
0.440616
0.440337
0.440616
0.441432
0.442751
0.444533
0.446719
0.449236
0.452004
0.454933
0.457932
0.460911
0.463782
0.466466
0.468894
0.471009
0.472767
0.474138
0.475106
0.475667
0.47582
0.475586
0.475009
0.473547
0.474566
0.464088
0.464018
0.476525
0.475253
0.476955
0.477613
0.477892
0.477728
0.477096
0.475998
0.474437
0.472431
0.470016
0.467241
0.464173
0.460893
0.45749
0.454066
0.450724
0.447568
0.444698
0.442209
0.440181
0.438682
0.437758
0.437445
0.437758
0.438682
0.440181
0.442209
0.444698
0.447568
0.450724
0.454066
0.45749
0.460893
0.464173
0.467241
0.470016
0.472431
0.474437
0.475998
0.477096
0.477728
0.477892
0.477613
0.476955
0.475253
0.476525
0.464018
0.465449
0.478565
0.477364
0.479215
0.479946
0.480253
0.480056
0.479327
0.478064
0.476269
0.473963
0.471186
0.467997
0.464474
0.460709
0.456807
0.452885
0.44906
0.445451
0.442174
0.439333
0.43702
0.435312
0.434262
0.433908
0.434262
0.435312
0.43702
0.439333
0.442174
0.445451
0.44906
0.452885
0.456807
0.460709
0.464474
0.467997
0.471186
0.473963
0.476269
0.478064
0.479327
0.480056
0.480253
0.479946
0.479215
0.477364
0.478565
0.465449
0.468643
0.480721
0.479956
0.481855
0.482657
0.48298
0.482736
0.481888
0.480426
0.47835
0.475684
0.472475
0.468794
0.46473
0.460392
0.455903
0.451395
0.447004
0.442867
0.439114
0.435864
0.43322
0.431269
0.430072
0.429669
0.430072
0.431269
0.43322
0.435864
0.439114
0.442867
0.447004
0.451395
0.455903
0.460392
0.46473
0.468794
0.472475
0.475684
0.47835
0.480426
0.481888
0.482736
0.48298
0.482657
0.481855
0.479956
0.480721
0.468643
0.47379
0.483024
0.483084
0.484939
0.485826
0.486169
0.485876
0.484892
0.483197
0.480788
0.477694
0.473969
0.469698
0.464987
0.459965
0.454775
0.449571
0.44451
0.439747
0.435432
0.431698
0.428665
0.426427
0.425055
0.424593
0.425055
0.426427
0.428665
0.431698
0.435432
0.439747
0.44451
0.449571
0.454775
0.459965
0.464987
0.469698
0.473969
0.477694
0.480788
0.483197
0.484892
0.485876
0.486169
0.485826
0.484939
0.483084
0.483024
0.47379
0.480939
0.485509
0.486774
0.488517
0.489525
0.489914
0.489586
0.488462
0.486507
0.483714
0.480116
0.47578
0.470808
0.465326
0.459489
0.453464
0.447431
0.441571
0.436065
0.431081
0.426774
0.423277
0.420698
0.419119
0.418587
0.419119
0.420698
0.423277
0.426774
0.431081
0.436065
0.441571
0.447431
0.453464
0.459489
0.465326
0.470808
0.47578
0.480116
0.483714
0.486507
0.488462
0.489586
0.489914
0.489525
0.488517
0.486774
0.485509
0.480939
0.489602
0.48796
0.490754
0.492363
0.493551
0.494042
0.493725
0.492493
0.490292
0.487116
0.483003
0.478035
0.472334