# vtk DataFile Version 3.0
Malha 2D com triângulos: velocidade e pressão
ASCII
DATASET UNSTRUCTURED_GRID

POINTS 4030 double
-0.5 0 0
1.5 0 0
1.5 2 0
-0.5 2 0
-0.465517 0 0
-0.431034 0 0
-0.396552 0 0
-0.362069 0 0
-0.327586 0 0
-0.293103 0 0
-0.258621 0 0
-0.224138 0 0
-0.189655 0 0
-0.155172 0 0
-0.12069 0 0
-0.0862069 0 0
-0.0517241 0 0
-0.0172414 0 0
0.0172414 0 0
0.0517241 0 0
0.0862069 0 0
0.12069 0 0
0.155172 0 0
0.189655 0 0
0.224138 0 0
0.258621 0 0
0.293103 0 0
0.327586 0 0
0.362069 0 0
0.396552 0 0
0.431034 0 0
0.465517 0 0
0.5 0 0
0.534483 0 0
0.568966 0 0
0.603448 0 0
0.637931 0 0
0.672414 0 0
0.706897 0 0
0.741379 0 0
0.775862 0 0
0.810345 0 0
0.844828 0 0
0.87931 0 0
0.913793 0 0
0.948276 0 0
0.982759 0 0
1.01724 0 0
1.05172 0 0
1.08621 0 0
1.12069 0 0
1.15517 0 0
1.18966 0 0
1.22414 0 0
1.25862 0 0
1.2931 0 0
1.32759 0 0
1.36207 0 0
1.39655 0 0
1.43103 0 0
1.46552 0 0
1.5 0.0344828 0
1.5 0.0689655 0
1.5 0.103448 0
1.5 0.137931 0
1.5 0.172414 0
1.5 0.206897 0
1.5 0.241379 0
1.5 0.275862 0
1.5 0.310345 0
1.5 0.344828 0
1.5 0.37931 0
1.5 0.413793 0
1.5 0.448276 0
1.5 0.482759 0
1.5 0.517241 0
1.5 0.551724 0
1.5 0.586207 0
1.5 0.62069 0
1.5 0.655172 0
1.5 0.689655 0
1.5 0.724138 0
1.5 0.758621 0
1.5 0.793103 0
1.5 0.827586 0
1.5 0.862069 0
1.5 0.896552 0
1.5 0.931034 0
1.5 0.965517 0
1.5 1 0
1.5 1.03448 0
1.5 1.06897 0
1.5 1.10345 0
1.5 1.13793 0
1.5 1.17241 0
1.5 1.2069 0
1.5 1.24138 0
1.5 1.27586 0
1.5 1.31034 0
1.5 1.34483 0
1.5 1.37931 0
1.5 1.41379 0
1.5 1.44828 0
1.5 1.48276 0
1.5 1.51724 0
1.5 1.55172 0
1.5 1.58621 0
1.5 1.62069 0
1.5 1.65517 0
1.5 1.68966 0
1.5 1.72414 0
1.5 1.75862 0
1.5 1.7931 0
1.5 1.82759 0
1.5 1.86207 0
1.5 1.89655 0
1.5 1.93103 0
1.5 1.96552 0
1.46552 2 0
1.43103 2 0
1.39655 2 0
1.36207 2 0
1.32759 2 0
1.2931 2 0
1.25862 2 0
1.22414 2 0
1.18966 2 0
1.15517 2 0
1.12069 2 0
1.08621 2 0
1.05172 2 0
1.01724 2 0
0.982759 2 0
0.948276 2 0
0.913793 2 0
0.87931 2 0
0.844828 2 0
0.810345 2 0
0.775862 2 0
0.741379 2 0
0.706897 2 0
0.672414 2 0
0.637931 2 0
0.603448 2 0
0.568966 2 0
0.534483 2 0
0.5 2 0
0.465517 2 0
0.431034 2 0
0.396552 2 0
0.362069 2 0
0.327586 2 0
0.293103 2 0
0.258621 2 0
0.224138 2 0
0.189655 2 0
0.155172 2 0
0.12069 2 0
0.0862069 2 0
0.0517241 2 0
0.0172414 2 0
-0.0172414 2 0
-0.0517241 2 0
-0.0862069 2 0
-0.12069 2 0
-0.155172 2 0
-0.189655 2 0
-0.224138 2 0
-0.258621 2 0
-0.293103 2 0
-0.327586 2 0
-0.362069 2 0
-0.396552 2 0
-0.431034 2 0
-0.465517 2 0
-0.5 1.96552 0
-0.5 1.93103 0
-0.5 1.89655 0
-0.5 1.86207 0
-0.5 1.82759 0
-0.5 1.7931 0
-0.5 1.75862 0
-0.5 1.72414 0
-0.5 1.68966 0
-0.5 1.65517 0
-0.5 1.62069 0
-0.5 1.58621 0
-0.5 1.55172 0
-0.5 1.51724 0
-0.5 1.48276 0
-0.5 1.44828 0
-0.5 1.41379 0
-0.5 1.37931 0
-0.5 1.34483 0
-0.5 1.31034 0
-0.5 1.27586 0
-0.5 1.24138 0
-0.5 1.2069 0
-0.5 1.17241 0
-0.5 1.13793 0
-0.5 1.10345 0
-0.5 1.06897 0
-0.5 1.03448 0
-0.5 1 0
-0.5 0.965517 0
-0.5 0.931034 0
-0.5 0.896552 0
-0.5 0.862069 0
-0.5 0.827586 0
-0.5 0.793103 0
-0.5 0.758621 0
-0.5 0.724138 0
-0.5 0.689655 0
-0.5 0.655172 0
-0.5 0.62069 0
-0.5 0.586207 0
-0.5 0.551724 0
-0.5 0.517241 0
-0.5 0.482759 0
-0.5 0.448276 0
-0.5 0.413793 0
-0.5 0.37931 0
-0.5 0.344828 0
-0.5 0.310345 0
-0.5 0.275862 0
-0.5 0.241379 0
-0.5 0.206897 0
-0.5 0.172414 0
-0.5 0.137931 0
-0.5 0.103448 0
-0.5 0.0689655 0
-0.5 0.0344828 0
0.483811 1.96948 0
-0.466251 0.986419 0
0.520484 0.0309411 0
1.47014 1.01724 0
-0.470137 1.22414 0
0.273954 0.0289513 0
1.47014 0.775862 0
0.723905 1.96517 0
0.724053 0.0303731 0
-0.470137 0.775862 0
1.47014 1.22414 0
0.275052 1.97657 0
0.92923 0.0273914 0
-0.470137 0.568966 0
1.47014 1.43103 0
0.0679221 1.96907 0
0.0680363 0.0308282 0
1.47014 0.568966 0
0.929018 1.97253 0
-0.469267 1.4307 0
-0.465806 0.400257 0
1.47014 1.60345 0
-0.107705 1.96721 0
1.10254 0.0293368 0
1.10273 1.9692 0
1.47014 0.396552 0
-0.465806 1.59974 0
-0.107705 0.0327885 0
1.47014 1.74138 0
-0.237051 1.96722 0
-0.470137 0.258621 0
1.24138 0.0298629 0
1.24138 1.97014 0
-0.470137 1.74138 0
1.47014 0.258621 0
-0.237051 0.0327844 0
-0.470137 1.08621 0
0.418779 0.0327669 0
0.586247 1.97196 0
0.377139 1.97542 0
-0.466251 0.87565 0
1.47014 1.12069 0
0.621209 0.0274849 0
1.47014 0.87931 0
1.47014 0.672414 0
0.827586 1.97133 0
0.826971 0.0274 0
-0.470137 0.672414 0
-0.470137 1.32759 0
0.174101 0.0280714 0
1.47014 1.32759 0
0.174419 1.9754 0
1.47014 1.84483 0
-0.348071 1.96715 0
-0.470137 0.155172 0
1.34277 0.030771 0
1.34374 1.97077 0
-0.469267 1.8445 0
-0.348071 0.0328497 0
1.47014 0.155172 0
1.17241 1.97014 0
1.0347 0.030076 0
-0.466251 1.53814 0
-0.470137 1.15517 0
1.03448 1.97086 0
-0.471462 1.67096 0
0.653485 1.96923 0
1.47014 1.53448 0
-0.470137 0.465517 0
1.47014 0.5 0
1.47014 0.327586 0
-0.172376 0.0312577 0
1.47014 0.948276 0
0.345637 0.0293668 0
0.00331644 0.032845 0
-0.0344828 1.97014 0
-0.466251 0.323926 0
-0.172376 1.96874 0
1.17458 0.0275167 0
1.47014 1.67241 0
1.41707 0.0310695 0
1.47014 1.91379 0
-0.412868 1.96883 0
-0.470137 0.0862069 0
-0.412868 0.031175 0
-0.466125 1.91759 0
1.41678 1.96909 0
1.4703 0.0864887 0
1.47014 1.77586 0
1.44027 1.75862 0
1.44027 1.72414 0
1.41041 1.74138 0
1.41041 1.7069 0
1.38055 1.72414 0
1.38055 1.68966 0
1.35069 1.7069 0
1.35069 1.67241 0
1.32082 1.68966 0
1.32082 1.65517 0
1.29096 1.67241 0
1.29096 1.63793 0
1.2611 1.65517 0
1.2611 1.62069 0
1.23123 1.63793 0
1.23123 1.60345 0
1.20137 1.62069 0
1.20137 1.58621 0
1.17151 1.60345 0
1.17151 1.56897 0
1.14164 1.58621 0
1.14164 1.55172 0
1.11178 1.56897 0
1.11178 1.53448 0
1.08192 1.55172 0
1.08192 1.51724 0
1.05206 1.53448 0
1.05206 1.5 0
1.02219 1.51724 0
1.02219 1.48276 0
0.99233 1.5 0
0.99233 1.46552 0
0.962467 1.48276 0
0.962467 1.44828 0
0.932604 1.46552 0
0.932604 1.43103 0
0.902741 1.44828 0
0.902741 1.41379 0
0.872878 1.43103 0
0.872878 1.39655 0
0.843015 1.41379 0
0.843015 1.37931 0
0.813152 1.39655 0
0.813152 1.36207 0
0.783289 1.37931 0
0.783289 1.34483 0
0.753426 1.36207 0
0.753426 1.32759 0
0.723563 1.34483 0
0.723563 1.31034 0
0.6937 1.32759 0
0.6937 1.2931 0
0.663838 1.31034 0
0.663838 1.27586 0
0.633975 1.2931 0
0.633975 1.25862 0
0.604112 1.27586 0
0.604112 1.24138 0
0.633975 1.22414 0
0.604112 1.2069 0
0.633975 1.18966 0
0.604112 1.17241 0
0.633975 1.15517 0
0.604112 1.13793 0
0.633975 1.12069 0
0.604112 1.10345 0
0.633975 1.08621 0
0.604112 1.06897 0
0.633975 1.05172 0
0.604112 1.03448 0
0.633975 1.01724 0
0.574249 1.25862 0
0.574249 1.05172 0
0.574249 1.01724 0
0.544386 1.03448 0
0.544386 1 0
0.514523 1.01724 0
0.514523 0.982759 0
0.48466 1 0
0.48466 0.965517 0
0.454797 0.982759 0
0.454797 0.948276 0
0.48466 0.931034 0
0.454797 0.913793 0
0.48466 0.896552 0
0.454797 0.87931 0
0.424934 0.931034 0
0.48466 0.862069 0
0.454797 0.844828 0
0.48466 0.827586 0
0.454797 0.810345 0
0.48466 0.793103 0
0.454797 0.775862 0
0.872878 1.36207 0
0.48466 0.758621 0
0.454797 0.741379 0
0.424934 0.758621 0
0.48466 0.724138 0
0.424934 0.724138 0
0.395071 0.741379 0
0.395071 0.706897 0
0.365208 0.724138 0
0.574249 1.2931 0
0.544386 1.27586 0
0.365208 0.689655 0
0.335345 0.706897 0
0.544386 1.31034 0
0.514523 1.2931 0
0.514523 1.32759 0
0.48466 1.31034 0
0.335345 0.672414 0
0.305482 0.689655 0
0.48466 1.34483 0
0.454797 1.32759 0
0.305482 0.655172 0
0.275619 0.672414 0
0.663838 1.03448 0
0.275619 0.637931 0
0.245756 0.655172 0
0.335345 0.637931 0
0.454797 1.36207 0
0.424934 1.34483 0
0.245756 0.62069 0
0.215893 0.637931 0
0.215893 0.672414 0
0.18603 0.655172 0
0.18603 0.689655 0
0.18603 0.62069 0
0.424934 1.37931 0
0.395071 1.36207 0
0.156167 0.637931 0
0.663838 1 0
0.6937 1.01724 0
0.6937 0.982759 0
0.723563 1 0
0.723563 0.965517 0
0.753426 0.982759 0
0.753426 0.948276 0
0.783289 0.965517 0
0.783289 0.931034 0
0.813152 0.948276 0
0.813152 0.913793 0
0.843015 0.931034 0
0.843015 0.896552 0
0.99233 1.43103 0
0.395071 1.39655 0
0.365208 1.37931 0
0.753426 1.39655 0
0.156167 0.603448 0
0.126305 0.62069 0
0.872878 0.913793 0
0.872878 0.87931 0
0.365208 1.41379 0
0.335345 1.39655 0
0.424934 1.41379 0
0.126305 0.586207 0
0.335345 1.43103 0
0.305482 1.41379 0
0.305482 1.37931 0
0.275619 1.39655 0
0.275619 1.36207 0
0.245756 1.37931 0
0.245756 1.34483 0
0.215893 1.36207 0
0.215893 1.32759 0
0.18603 1.34483 0
0.18603 1.31034 0
0.18603 1.37931 0
0.156167 1.36207 0
0.156167 1.39655 0
0.126305 1.37931 0
0.126305 1.41379 0
0.0964416 1.39655 0
0.0964416 1.43103 0
0.0964416 0.603448 0
0.0964416 0.568966 0
0.902741 0.896552 0
0.902741 0.862069 0
0.126305 0.551724 0
0.0964416 0.534483 0
0.872878 1.46552 0
0.932604 0.87931 0
0.932604 0.844828 0
0.902741 0.827586 0
0.932604 0.810345 0
0.902741 0.793103 0
0.932604 0.775862 0
0.902741 0.758621 0
0.932604 0.741379 0
0.902741 0.724138 0
0.932604 0.706897 0
0.902741 0.689655 0
0.932604 0.672414 0
0.902741 0.655172 0
0.932604 0.637931 0
0.902741 0.62069 0
0.932604 0.603448 0
0.902741 0.586207 0
0.932604 0.568966 0
0.902741 0.551724 0
0.932604 0.913793 0
0.932604 0.534483 0
0.0665786 1.41379 0
0.0665786 1.37931 0
0.0665786 1.44828 0
0.0665786 0.586207 0
0.0665786 0.62069 0
0.902741 0.517241 0
0.126305 0.517241 0
0.962467 0.62069 0
0.962467 0.827586 0
0.0367157 1.39655 0
0.0367157 1.36207 0
0.0367157 0.603448 0
0.0367157 0.637931 0
0.0964416 1.46552 0
0.0665786 1.48276 0
0.0964416 1.5 0
0.0964416 0.5 0
0.932604 0.5 0
0.902741 0.482759 0
0.872878 0.5 0
0.126305 0.482759 0
0.0665786 1.51724 0
0.00685275 1.37931 0
0.00685275 1.34483 0
0.00685275 0.62069 0
0.00685275 0.655172 0
0.99233 1.53448 0
1.11178 1.5 0
0.872878 0.465517 0
0.843015 0.482759 0
0.0964416 1.53448 0
0.0964416 0.465517 0
0.932604 0.465517 0
0.962467 0.482759 0
0.126305 0.448276 0
-0.0230102 1.36207 0
-0.0230102 1.32759 0
-0.0230102 0.637931 0
-0.0230102 0.672414 0
0.962467 0.448276 0
0.99233 0.465517 0
0.843015 0.448276 0
0.813152 0.465517 0
0.0665786 1.55172 0
0.0964416 1.56897 0
0.99233 0.431034 0
1.02219 0.448276 0
0.813152 0.431034 0
0.783289 0.448276 0
0.0964416 0.431034 0
-0.0528731 1.34483 0
-0.0528731 1.31034 0
-0.0528731 0.655172 0
-0.0528731 0.689655 0
-0.0528731 0.62069 0
0.126305 0.413793 0
[...]
CELL_DATA 7826
VECTORS velocity double
0.445256 0.0546212 0
0.635835 -0.0281053 0
0.92672 -0.00524744 0
0.926543 0.00519514 0
0.712711 0.0222022 0
0.564309 -0.0406164 0
0.632776 -0.0342854 0
0.420872 0.039694 0
0.865238 0.0221191 0
0.763752 0.0178959 0
0.875843 -0.0208154 0
0.926043 -0.00637598 0
0.925924 0.00634275 0
0.911712 -0.00646497 0
0.374603 -0.106 0
0.688743 -0.0117062 0
0.84747 -0.0118249 0
0.76957 -0.00897144 0
0.558537 -0.0729281 0
0.470799 0.631517 0
0.313264 0.619099 0
2.33604 0.488638 0
2.45711 0.453218 0
-0.10285 0.565681 0
2.6992 -0.427591 0
0.00512555 0.583741 0
2.61093 -0.466038 0
-1.20045 -0.163899 0
-1.2727 -0.120598 0
0.291115 -0.624763 0
0.477286 -0.637599 0
1.28835 0.641557 0
1.47847 0.635695 0
3.30212 0.04385 0
3.23522 0.0920231 0
2.58488 0.45857 0
1.45114 -0.638183 0
2.74581 0.426076 0
1.2811 -0.647834 0
0.864463 0.010312 0
0.723752 0.0270331 0
-0.428251 -0.132786 0
-0.429768 0.132914 0
-0.640155 -0.124422 0
-0.641373 0.124655 0
-0.0609701 -0.0807582 0
-0.0617551 0.0807223 0
-0.17889 -0.112264 0
-0.179972 0.11236 0
0.559311 -0.0297337 0
0.900763 -0.00759507 0
0.761447 0.0219169 0
0.870274 0.0123962 0
-0.0205594 0.041183 0
0.915021 -0.00793953 0
0.711234 0.0463092 0
0.814228 0.0305489 0
0.0737491 -0.0863927 0
0.544083 -0.076219 0
-0.818363 -0.173013 0
-0.819328 0.171926 0
0.879631 -0.0198872 0
0.719182 0.0738717 0
0.940259 -0.644576 0
0.805563 -0.652752 0
-0.794672 -0.411564 0
-0.838935 -0.382329 0
1.29056 -0.650801 0
1.4252 -0.635711 0
-0.120574 -0.572377 0
2.9668 0.317717 0
2.94657 0.352503 0
-0.0203563 -0.582544 0
-0.119703 -0.570332 0
-0.0208016 -0.581637 0
1.89425 0.604519 0
1.79847 0.613909 0
0.315463 0.624067 0
3.15182 0.225189 0
0.457205 0.646076 0
3.23173 -0.0949704 0
-1.00112 0.229117 0
-1.08722 0.182917 0
2.34441 -0.521283 0
3.18178 0.0218799 0
2.21169 -0.553237 0
3.29624 -0.0501215 0
-1.30162 -0.0237146 0
3.01746 -0.310311 0
3.13266 -0.0187048 0
0.806498 0.650788 0
-0.835789 -0.379691 0
0.945967 0.662731 0
-0.794318 -0.408819 0
2.08666 0.545814 0
-0.0305516 0.592312 0
-0.151334 0.566142 0
3.01232 0.311526 0
-0.406987 -0.527759 0
1.42615 0.645107 0
1.27141 0.654483 0
-0.549611 -0.491323 0
-0.624407 0.405625 0
-0.839738 0.336836 0
-0.863585 0.302648 0
-0.407463 0.524876 0
3.16846 -0.220064 0
3.16427 -0.182047 0
-1.12382 -0.262859 0
-1.01885 -0.310393 0
0.762205 0.655227 0
0.937804 0.656651 0
2.99204 -0.310275 0
2.94371 -0.354513 0
0.991122 -0.666618 0
0.815585 -0.660353 0
-0.550538 -0.493083 0
2.35522 -0.488698 0
0.464466 -0.649178 0
2.43096 -0.458575 0
-0.407957 -0.530043 0
2.34336 0.530271 0
3.20082 0.1904 0
3.10217 0.244151 0
2.17113 0.563312 0
0.314562 -0.627053 0
1.79939 -0.618562 0
1.9431 -0.600934 0
3.10628 -0.107383 0
1.76083 -0.609113 0
0.860883 0.0232253 0
3.14539 0.193372 0
-1.25762 0.0135963 0
-0.581316 0.436127 0
-0.475832 0.492187 0
3.13697 -0.139664 0
1.84309 -0.602474 0
2.92567 -0.34317 0
2.02036 0.555549 0
2.92225 0.343879 0
0.92141 0.0124476 0
0.395482 -0.103288 0
0.84586 -0.0144358 0
-1.00557 -0.314268 0
0.807851 0.0317777 0
-0.442847 -0.0972666 0
-0.443948 0.097391 0
0.708347 0.0605085 0
-1.12795 0.253789 0
-1.11846 -0.267846 0
-0.227824 -0.0816284 0
-0.228687 0.0816933 0
0.718635 0.0589395 0
0.81222 0.0401251 0
-1.04521 0.289036 0
0.696062 -0.00639585 0
0.761551 -0.00489178 0
0.9194 0.0127723 0
0.687128 0.0652713 0
0.861396 0.0184262 0
0.899103 -0.00932134 0
0.00449217 0.0211863 0
0.694824 -0.0215547 0
0.638431 0.031686 0
0.867504 -0.0174594 0
-0.970704 -0.182736 0
-0.969979 0.180601 0
0.775554 -0.0157492 0
-0.658416 -0.152146 0
-0.66009 0.152332 0
0.142763 -0.0805121 0
0.142482 0.0812944 0
-0.0180871 -0.0981325 0
-0.0187387 0.0981998 0
0.327007 -0.0872585 0
0.399367 0.0592381 0
0.729339 0.0714408 0
0.904565 -0.00900991 0
0.699722 0.0469152 0
0.881743 -0.0118252 0
0.0659605 -0.063028 0
0.546094 -0.0606846 0
0.903972 -0.00341454 0
0.73853 -0.0244596 0
-0.896056 0.125071 0
-0.895281 -0.125593 0
-0.0744532 -0.0986459 0
-0.0753665 0.0987006 0
-0.573013 -0.1501 0
-0.574111 0.15043 0
0.677903 0.0688643 0
0.832703 -0.0170743 0
0.83251 0.0170397 0
-0.278208 -0.118681 0
-0.27943 0.118763 0
0.819152 0.0392201 0
0.792139 0.0336708 0
-1.03548 -0.198953 0
-1.04239 0.191468 0
0.624086 0.0230421 0
-0.322383 -0.124181 0
-0.323643 0.124268 0
0.610103 0.0355156 0
0.757244 0.0643504 0
0.747051 -0.023311 0
0.910454 -0.00787596 0
0.610861 -0.0390362 0
-0.000202432 0.0715735 0
0.171179 -0.0777002 0
0.597712 -0.0386235 0
0.597301 0.0381753 0
0.929041 0.00584116 0
0.651357 -0.0327222 0
0.922187 -0.00743283 0
0.922125 0.00736941 0
0.170523 0.0782676 0
0.877221 0.0164422 0
0.911699 0.0180908 0
0.46295 0.0517581 0
0.378637 0.0603125 0
0.704565 0.0384335 0
0.742313 0.0258671 0
0.929285 -0.00589785 0
0.862516 0.0124383 0
0.394622 0.0430579 0
0.88129 -0.0086578 0
0.748196 0.0254924 0
0.853481 -0.0140495 0
0.64845 0.0600274 0
0.920446 -0.00754085 0
0.815445 -0.0205161 0
0.740273 0.0555786 0
0.74882 0.0672489 0
0.905654 -0.00640802 0
0.807954 -0.0152834 0
0.824519 -0.0126223 0
0.824316 0.0125949 0
0.55192 -0.0427297 0
0.912334 0.0194773 0
0.836848 -0.0165688 0
0.763415 -0.0313365 0
0.772123 -0.0305057 0
0.451009 -0.0534629 0
0.464333 -0.0533344 0
-0.469422 -0.140074 0
-0.47096 0.139974 0
-0.141425 -0.112675 0
-0.142481 0.112735 0
0.708358 0.0266112 0
0.878424 -0.0119314 0
0.610296 -0.0289076 0
-0.759511 -0.174405 0
-0.760976 0.173393 0
0.04797 -0.0912503 0
0.836649 0.0164921 0
0.382142 -0.0854902 0
-0.982278 -0.130394 0
-0.982291 0.129681 0
0.77297 0.0211336 0
0.634331 0.0471494 0
0.920345 0.00741342 0
0.104935 -0.0584578 0
0.104285 0.0588232 0
0.922073 -0.0055533 0
0.922003 0.00550939 0
0.766913 -0.0220974 0
0.223037 -0.103485 0
0.251571 -0.100352 0
0.729024 0.0199592 0
0.645413 0.0442219 0
0.305828 -0.120816 0
0.234037 -0.0770187 0
0.891491 -0.00842682 0
0.668385 0.0535092 0
0.331004 -0.116108 0
0.342766 -0.143897 0
0.678612 0.050774 0
0.47198 -0.14457 0
0.367713 -0.17277 0
0.446743 -0.188073 0
0.318829 -0.149337 0
0.994822 0.0241471 0
0.985828 0.022259 0
1.02414 0.0238154 0
1.0158 0.0271877 0
0.994958 0.0230451 0
1.02498 0.0248984 0
0.995344 0.0198764 0
1.01525 0.0260565 0
0.978488 0.019217 0
1.0471 0.0248761 0
1.05416 0.0291762 0
1.08049 0.0272107 0
0.986241 0.0211945 0
1.06612 0.0278851 0
1.06848 0.0289683 0
1.06037 0.0105704 0
0.925676 -0.00840822 0
1.0523 0.0280641 0
1.09524 0.0260017 0
1.08337 0.0282501 0
1.09866 0.0269812 0
1.11021 0.0242228 0
1.11418 0.0251247 0
0.927958 -0.00560105 0
0.9434 0.0135813 0
1.14498 0.0195232 0
1.12518 0.0218429 0
1.04875 0.0259168 0
1.12969 0.0226479 0
1.13993 0.0188357 0
0.970861 0.0181014 0
0.937307 0.0123647 0
0.96268 0.0176796 0
1.04557 0.0123206 0
0.980619 0.0159439 0
1.04054 0.0289178 0
0.91484 -0.00474557 0
0.979962 0.0166804 0
1.02678 0.0271057 0
1.05433 0.0117634 0
1.05951 0.0247942 0
0.987035 0.019178 0
0.948699 0.0153497 0
0.995226 0.0209057 0
0.939413 -0.00835385 0
0.933098 0.0101487 0
1.03649 -0.0171217 0
1.00464 0.0246863 0
0.931889 -0.00720352 0
1.06161 0.0257998 0
0.956106 0.0162031 0
0.977842 0.0202118 0
1.03543 -0.0163098 0
1.06215 0.011129 0
1.14444 0.0252369 0
0.939682 0.0142657 0
1.03651 0.0256032 0
1.07051 -0.00519998 0
0.951334 -0.0131148 0
1.07882 -0.00244104 0
0.995856 -0.0180112 0
0.952951 -0.0125335 0
1.0681 -0.00495395 0
1.05939 0.0137393 0
1.1394 0.0243471 0
1.01999 -0.0169505 0
1.20803 0.0067384 0
1.05397 -0.0116778 0
1.18673 0.00608374 0
0.918161 5.10615e-05 0
0.925758 0.00850995 0
1.26679 -0.046101 0
0.987722 0.0174968 0
0.995945 0.0172706 0
1.18685 0.0120714 0
1.05247 0.0112348 0
0.944736 -0.0121212 0
-0.491801 0.251949 0
1.27646 -0.0477952 0
1.11109 0.0378673 0
1.0203 0.0170434 0
1.19794 -0.0670063 0
0.942211 -0.00994298 0
1.29828 -0.0396155 0
0.960218 -0.0134365 0
1.02771 0.0160183 0
1.01422 0.0238448 0
0.718396 -0.0268141 0
0.94528 -0.0129068 0
1.11512 0.0392567 0
1.04902 -0.014108 0
1.15978 0.0157291 0
1.03553 0.015593 0
0.920093 0.00438192 0
0.917354 0.00228629 0
1.01211 0.0170472 0
1.15421 0.0151809 0
0.973874 0.0151782 0
1.04056 0.0135944 0
0.928796 0.0107086 0
1.20821 -0.0129805 0
1.30909 -0.0410713 0
1.00411 0.0176873 0
1.19361 0.0125015 0
1.04166 -0.0141411 0
1.15434 -0.0837157 0
0.914727 -0.00230214 0
1.21574 -0.0134707 0
0.764062 -0.0409301 0
0.918689 -0.00689846 0
1.34486 -0.0106486 0
1.13152 0.0360935 0
0.921235 0.00665201 0
0.973663 -0.0150803 0
1.21326 -0.0204897 0
1.02739 -0.0159269 0
-0.426593 -0.247426 0
1.2156 -0.0285377 0
1.22098 -0.0212542 0
-0.450771 -0.318595 0
1.13629 0.0374132 0
1.07047 0.00603269 0
1.06844 -0.00714916 0
1.06 -0.0104862 0
1.07623 0.00373466 0
1.01182 -0.0169534 0
1.11983 -0.0864549 0
1.06833 -0.00315127 0
1.07086 -0.00596774 0
1.02928 -0.0184436 0
1.37058 -0.0233684 0
0.777175 -0.0489561 0
1.11732 0.0501144 0
0.995683 -0.0171748 0
1.0208 -0.0186579 0
1.07541 0.000414359 0
1.04875 -0.0133144 0
0.921174 -0.00655008 0
0.987475 -0.0174 0
1.38426 0.0122087 0
1.01275 -0.0195903 0
1.05425 -0.0124663 0
0.979922 -0.0174223 0
-0.301781 -0.285559 0
0.971905 -0.0172252 0
1.20077 0.006513 0
1.12376 0.0421959 0
1.00383 -0.0175922 0
1.03915 0.0277895 0
1.39816 0.0126446 0
1.13852 -0.0751572 0
-0.0727986 0.186415 0
1.07883 0.00176369 0
1.06838 0.00798249 0
0.934163 -0.00688373 0
1.07516 0.00586891 0
1.04191 -0.0149423 0
1.06877 -0.00791977 0
0.736801 -0.0351984 0
-0.168254 -0.256165 0
-0.4006 0.307294 0
-0.182261 -0.114944 0
0.951764 -0.0139066 0
0.800482 -0.0545705 0
1.06367 0.00948768 0
1.79434 -0.339151 0
1.12826 0.0437386 0
1.16773 0.0108648 0
1.18021 0.00588207 0
-0.0351868 0.178072 0
-0.281025 -0.221471 0
1.06405 -0.00942774 0
0.818802 -0.0615273 0
0.812256 -0.0637778 0
1.21074 -0.045982 0
1.0352 -0.0155027 0
1.02976 0.0305775 0
1.21839 -0.0476764 0
1.17176 0.000256329 0
1.88068 0.0559474 0
-0.127228 -0.246827 0
1.08034 0.430803 0
1.21026 -0.0572391 0
1.91346 -0.0285628 0
1.06031 -0.0112674 0
1.46285 0.480476 0
1.07085 0.00761791 0
0.96588 -0.0145331 0
1.07363 0.0042882 0
0.971677 0.0172344 0
-0.0439304 -0.4441 0
1.24335 -0.0531631 0
1.1132 0.0483466 0
0.508033 0.108223 0
2.10712 -0.243657 0
1.20288 -0.0552078 0
-0.0736571 0.0335948 0
-0.181869 -8.18133e-05 0
1.22341 -0.0295958 0
-0.350181 0.366541 0
1.22607 -0.061556 0
1.0423 -0.074035 0
-0.0812356 -0.461876 0
-0.256021 -0.275074 0
1.06374 -0.00865062 0
-0.271377 -0.432283 0
1.94636 -0.029602 0
1.19099 -0.0646306 0
1.16964 0.0373702 0
0.745668 -0.0339186 0
0.377759 -0.108036 0
1.03082 0.03179 0
-0.0607007 -4.20226e-05 0
-0.31619 -0.449257 0
0.887991 0.563794 0
0.659823 -0.591193 0
-0.15298 -0.15371 0
1.05993 0.011325 0
-0.140444 -0.110753 0
2.00305 -0.341936 0
1.37028 0.0495651 0
1.2956 0.519974 0
0.944439 0.0970894 0
0.854024 -0.0794297 0
1.10754 -0.0776169 0
1.32875 -0.0317722 0
1.8236 -0.351507 0
-0.452858 0.316815 0
2.95113 -0.0610368 0
0.901494 0.0710397 0
0.960394 0.0135356 0
1.07804 -0.00033997 0
-0.124785 -0.307338 0
0.957535 -0.0154166 0
1.22266 -0.03843 0
1.02773 0.0282388 0
1.35734 -0.0110461 0
0.909871 -0.0118873 0
1.13667 0.0301202 0
1.33256 -0.0209449 0
-0.478813 -0.256921 0
0.940937 -0.0111294 0
1.99437 0.21775 0
-0.280385 -0.221968 0
2.09023 0.188949 0
-0.317259 -0.128108 0
0.324113 -0.287126 0
0.88685 -0.0820176 0
0.515387 0.0660396 0
1.38428 -0.011895 0
1.33656 0.0739714 0
1.26527 0.465996 0
1.90019 -0.306605 0
1.37908 0.128561 0
0.231002 -0.561021 0
0.944994 0.0128742 0
0.521172 -0.162559 0
1.35763 -0.0225374 0
0.561834 -0.186358 0
1.88503 -0.378277 0
0.921866 0.0330114 0
2.13334 0.150937 0
1.96759 -0.329951 0
1.21487 -0.037061 0
0.384101 0.209271 0
1.05388 0.0125209 0
0.876275 0.0526687 0
1.28053 0.0768266 0
0.175185 0.279447 0
0.927882 -0.00797295 0
0.940218 -0.0104042 0
0.869448 0.0442878 0
0.934891 0.0122417 0
1.08269 0.000407013 0
-0.327183 -0.230415 0
1.90178 7.30814e-05 0
1.96848 -0.329221 0
0.986084 -0.0749335 0
2.31168 0.0828791 0
-0.0231523 -3.28189e-05 0
1.36192 0.0795115 0
1.37942 0.000158346 0
0.54206 0.12479 0
0.472878 -0.144111 0
1.28367 0.501284 0
1.01451 -0.0762848 0
0.664079 -0.591045 0
2.51331 -0.203297 0
1.47684 -0.0634528 0
1.10375 -0.0748824 0
-0.164529 -0.494453 0
2.01815 -0.0321975 0
0.964971 -0.0160372 0
1.37507 0.0824011 0
1.48027 -0.203822 0
0.834244 -0.0705093 0
0.837171 -0.0287815 0
-0.113074 0.0348495 0
0.125279 -0.238453 0
0.145583 0.289861 0
0.660072 -0.352983 0
0.48592 -0.372446 0
1.19275 0.0336286 0
1.24623 -0.0237264 0
0.503865 -0.168596 0
1.16763 0.005498 0
1.17379 0.0112513 0
0.79526 -0.213141 0
0.538804 -0.334313 0
1.13841 0.0466978 0
1.07109 -0.0735967 0
0.573217 0.093443 0
0.0817307 -1.34002e-05 0
0.453919 -0.56924 0
1.88048 -0.117343 0
1.17797 0.000249308 0
0.456045 0.231296 0
-0.195188 -0.159525 0
0.411175 -0.129063 0
0.695934 0.527669 0
1.06758 -0.00960019 0
0.915609 -0.0183818 0
0.897745 0.0137382 0
0.26012 -0.0718703 0
0.554618 0.242599 0
1.17579 0.0387307 0
-0.595138 0.212205 0
0.950197 0.0259203 0
1.31263 0.0855907 0
1.21318 0.000218152 0
1.21477 0.037447 0
0.854548 0.0493876 0
1.33157 0.0574466 0
0.684644 -0.328509 0
0.90907 0.0139626 0
0.134647 -0.114854 0
1.36108 0.0988194 0
0.936703 -0.0115134 0
1.27951 0.118695 0
0.910372 0.0148431 0
1.47511 0.0823999 0
0.91255 -0.0142379 0
0.84928 0.051217 0
0.0581909 -0.205967 0
0.984528 -0.0247323 0
1.32831 0.111315 0
1.5445 0.393616 0
0.0259245 -0.265759 0
1.0206 -0.0178385 0
1.03987 -0.0190825 0
1.01887 0.0331828 0
0.00077174 0.0633467 0
1.15236 0.0413574 0
0.0478294 0.0925086 0
0.641295 0.259649 0
0.711031 -0.209189 0
1.38855 0.106032 0
1.34025 0.115376 0
0.0460659 -0.52202 0
1.19974 0.0348503 0
1.30246 0.0662051 0
0.825657 -0.307411 0
0.0814488 0.0891731 0
1.55116 -0.0171852 0
1.17975 0.0309768 0
1.07046 -0.00753688 0
1.53193 0.0167342 0
-0.0854528 -0.296127 0
1.32477 0.071375 0
-0.715478 0.053146 0
0.901936 -0.0710096 0
1.23783 -0.128966 0
0.889383 -0.0192002 0
1.912 0.121696 0
1.91777 -0.392057 0
1.01924 -0.0331434 0
0.695146 -0.316804 0
-0.00935609 -0.275759 0
-0.911036 0.0592715 0
-0.139983 -6.60242e-05 0
0.919018 0.013015 0
-0.181624 0.399796 0
-0.311683 0.44819 0
1.15997 -0.0867696 0
1.08432 0.446593 0
1.9134 0.0287037 0
1.53468 0.227224 0
0.71517 -0.120809 0
0.641173 -0.195438 0
0.828253 -0.073113 0
1.09347 -0.497976 0
1.39847 0.0254482 0
2.68704 -0.225292 0
0.909182 0.0117692 0
1.17013 0.0370566 0
1.26828 -0.0170361 0
1.23825 0.418143 0
1.44553 0.463546 0
0.890247 0.0791376 0
1.06796 0.00968335 0
1.04079 -0.0714204 0
1.04917 0.0252806 0
0.103486 -0.0281362 0
0.921365 -0.422849 0
1.32401 0.0887063 0
3.14713 -0.00169877 0
0.00103448 -0.0313622 0
1.05275 0.279169 0
2.40637 0.187821 0
1.09476 -0.0117691 0
0.880594 0.0507856 0
2.02824 -0.282035 0
0.251266 -0.0475502 0
0.953872 -0.0330524 0
-0.653151 -0.221174 0
-0.95558 -0.190932 0
2.72914 -0.16918 0
1.1156 -0.0834102 0
1.37954 0.0370454 0
1.09809 0.535755 0
0.843627 -0.275946 0
0.827779 0.0470581 0
2.20567 0.116851 0
0.745962 0.264575 0
1.03862 -0.0181252 0
0.919069 0.0342498 0
0.0480734 -1.87562e-05 0
-0.254679 0.342032 0
1.26016 -0.269401 0
0.0296732 0.411553 0
1.22333 0.0299882 0
0.937066 -0.0262981 0
-0.399674 -0.306757 0
1.9473 -0.0600426 0
1.3484 0.0953518 0
2.00395 -0.34119 0
0.987653 -0.0182408 0
1.87724 0.15223 0
1.51593 0.219445 0
2.24915 0.121041 0
0.903925 0.0148931 0
1.07271 -0.127009 0
0.322581 0.287466 0
0.793264 -0.0452654 0
1.21826 0.0480404 0
1.0737 -0.0762875 0
2.62746 -0.0518353 0
-0.348409 -0.368457 0
1.10567 -0.00282739 0
0.821533 0.0488 0
1.2549 0.449546 0
1.51259 0.0683706 0
1.01187 0.0612333 0
1.55164 -0.0348858 0
1.29458 -0.519734 0
1.07396 0.00231689 0
1.91227 -0.121593 0
1.09159 -0.0112618 0
0.957236 -0.07541 0
1.651 0.471898 0
1.16971 0.0461361 0
-0.539849 0.0972099 0
0.554421 -0.32235 0
1.04753 0.0242187 0
1.25892 -0.0164453 0
0.298389 0.298221 0
1.10134 -0.000294879 0
1.22256 0.0388077 0
0.550102 0.0789319 0
0.941349 0.0237876 0
0.89988 -0.0425428 0
0.136176 0.115273 0
1.05913 -0.311099 0
0.67079 0.140074 0
1.15514 -0.27095 0
-0.284597 -0.171272 0
2.31022 0.0406519 0
2.09412 0.0691899 0
1.03851 0.0189673 0
1.65196 8.77954e-05 0
1.02997 -0.0185922 0
1.46262 -0.481042 0
-0.270624 -0.123411 0
0.902787 -0.506814 0
0.135163 -0.0271176 0
0.906039 -0.00547918 0
1.08089 -0.00180215 0
1.01955 0.0344764 0
0.939541 -0.0141648 0
0.704937 -0.125464 0
2.47915 0.324504 0
-0.209609 0.329684 0
0.165675 -0.0529863 0
-0.011259 0.276144 0
0.185408 0.178433 0
1.53196 -0.0165836 0
0.931119 0.0223741 0
1.19408 0.0121562 0
0.863766 0.0981987 0
0.901737 -0.033184 0
0.848542 -0.01456 0
-0.0337852 -0.177912 0
0.864723 0.045933 0
1.14358 -0.077899 0
0.930494 -0.0723307 0
1.15185 0.0416754 0
0.902621 -0.0211566 0
0.897954 0.0736508 0
0.976496 -0.0214299 0
1.12208 -0.126262 0
0.0363942 0.0301788 0
1.01352 -0.0709842 0
1.10024 0.0541535 0
1.17283 -0.301925 0
1.1547 0.270943 0
1.02905 -0.0176337 0
1.2681 -0.0357152 0
0.460111 0.094052 0
1.4329 0.118153 0
0.85381 -0.0140259 0
1.1379 0.0470072 0
2.01369 0.175668 0
-0.0095298 -0.275747 0
1.0402 0.0191746 0
1.33992 0.115591 0
0.928727 0.05137 0
-0.578948 -0.0628678 0
1.08605 -0.0231594 0
1.62913 0.342142 0
0.295666 -0.192354 0
0.296271 0.192136 0
0.964429 0.191138 0
1.08663 -0.062551 0
1.1434 -0.0486239 0
1.06183 -0.322515 0
0.451174 0.120801 0
-0.539564 -0.0485959 0
0.956076 0.0452587 0
-0.315819 -0.447671 0
1.3054 0.10354 0
1.25873 -0.00815012 0
1.36903 0.0641964 0
0.892714 -0.58553 0
0.717099 -0.294847 0
1.10442 0.000366393 0
1.36577 0.124041 0
0.903782 0.012778 0
0.928591 -0.0148353 0
0.913243 -0.0141202 0
0.87376 -0.222243 0
-0.0146431 0.221954 0
1.11694 -0.0202238 0
0.896 0.00634993 0
0.892549 0.00993556 0
0.774825 -0.396118 0
1.11785 0.0498024 0
0.924085 0.0197785 0
0.793378 0.0453459 0
1.2652 -0.0257464 0
1.05341 0.0549199 0
1.30201 0.0664023 0
1.01317 -0.0206038 0
1.29074 0.0796259 0
-0.164722 -0.495919 0
1.00846 -0.0443444 0
1.02267 -0.0208555 0
0.0238332 0.266159 0
0.168205 -0.144147 0
0.93369 0.0477898 0
1.03458 -0.181036 0
0.888947 0.0472257 0
2.55103 -0.151857 0
1.21552 0.0289392 0
0.830748 -0.0295465 0
-0.327403 -0.230152 0
0.958995 0.0204865 0
0.955448 -0.237411 0
1.0638 -0.0660652 0
0.757658 -0.425298 0
0.910479 -0.472213 0
2.62921 -0.104423 0
2.40954 0.043723 0
1.32518 0.0711827 0
1.86974 -0.475386 0
0.227474 0.134105 0
0.232666 0.416386 0
1.4602 -0.0612281 0
2.85983 0.180167 0
1.10939 -0.00639011 0
2.05484 -0.0333856 0
-0.127526 -0.246959 0
0.90938 -0.024464 0
1.07843 0.00251179 0
1.40833 -0.221632 0
0.926174 0.0532489 0
-0.635662 0.158454 0
1.03198 -0.020597 0
2.05604 0.0668043 0
0.843351 0.275861 0
1.06568 -0.346686 0
0.890137 -0.565269 0
-0.0222596 -0.34658 0
1.37883 0.128771 0
1.07784 0.00893716 0
0.557624 0.0969456 0
1.90228 -0.0875569 0
1.08535 0.0136949 0
1.26969 0.114512 0
0.888165 0.582963 0
-0.506316 0.409869 0
1.01564 0.0850583 0
1.87757 -0.152139 0
2.92613 0.185606 0
0.773342 -0.0392566 0
0.917334 -0.00218416 0
1.23711 -0.418619 0
1.44846 0.12263 0
0.955021 -0.0233949 0
0.78299 -0.38168 0
1.34075 -0.246029 0
1.12446 -0.218283 0
0.974107 -0.0247092 0
2.12905 -0.195985 0
0.904897 0.0515621 0
1.66036 -0.0205982 0
0.224913 0.134635 0
1.19391 0.0256798 0
1.17348 0.0298657 0
1.19183 0.0184536 0
1.88021 0.117456 0
0.831376 4.66696e-05 0
1.38241 0.0665276 0
0.943295 -0.0233444 0
0.937641 -0.0149142 0
1.4633 -0.196658 0
0.923474 0.0156156 0
0.848085 0.0822204 0
0.98079 0.10004 0
1.70107 0.381339 0
1.00877 -0.0459944 0
2.74755 -0.232806 0
0.409836 0.129085 0
1.77936 -0.426388 0
0.920245 -0.00327116 0
1.45446 0.247057 0
0.870403 -0.0281481 0
0.740265 0.0252785 0
1.25968 0.269416 0
0.159042 0.356567 0
0.876449 -0.0161806 0
1.36598 -0.19905 0
0.818775 0.017596 0
1.98718 -0.4212 0
1.21061 0.0463532 0
0.970639 0.154262 0
1.07581 0.00448423 0
1.30009 0.12784 0
0.68599 0.546473 0
0.800617 0.043728 0
1.08309 0.0604239 0
0.0811833 0.31117 0
1.4327 0.118335 0
0.251739 0.129517 0
1.1129 -0.0194937 0
1.58459 -0.198114 0
1.65213 -0.0633514 0
1.59269 -0.0184795 0
0.917768 0.0592985 0
0.951439 -0.0504172 0
0.898415 -0.0736223 0
-0.168544 -0.25548 0
1.03422 0.0594162 0
0.516008 -0.0836936 0
1.10264 -0.0218657 0
1.23932 0.0417025 0
-0.180039 0.401012 0
0.993326 0.0335679 0
0.949163 0.274172 0
1.68417 -0.0213477 0