# vtk DataFile Version 3.0
Malha 2D com triângulos e temperatura
ASCII
DATASET UNSTRUCTURED_GRID

POINTS 2500 double
0 0 0
1 0 0
1 1 0
0 1 0
0.0204082 0 0
0.0408163 0 0
0.0612245 0 0
0.0816327 0 0
0.102041 0 0
0.122449 0 0
0.142857 0 0
0.163265 0 0
0.183673 0 0
0.204082 0 0
0.22449 0 0
0.244898 0 0
0.265306 0 0
0.285714 0 0
0.306122 0 0
0.326531 0 0
0.346939 0 0
0.367347 0 0
0.387755 0 0
0.408163 0 0
0.428571 0 0
0.44898 0 0
0.469388 0 0
0.489796 0 0
0.510204 0 0
0.530612 0 0
0.55102 0 0
0.571429 0 0
0.591837 0 0
0.612245 0 0
0.632653 0 0
0.653061 0 0
0.673469 0 0
0.693878 0 0
0.714286 0 0
0.734694 0 0
0.755102 0 0
0.77551 0 0
0.795918 0 0
0.816327 0 0
0.836735 0 0
0.857143 0 0
0.877551 0 0
0.897959 0 0
0.918367 0 0
0.938776 0 0
0.959184 0 0
0.979592 0 0
1 0.0204082 0
1 0.0408163 0
1 0.0612245 0
1 0.0816327 0
1 0.102041 0
1 0.122449 0
1 0.142857 0
1 0.163265 0
1 0.183673 0
1 0.204082 0
1 0.22449 0
1 0.244898 0
1 0.265306 0
1 0.285714 0
1 0.306122 0
1 0.326531 0
1 0.346939 0
1 0.367347 0
1 0.387755 0
1 0.408163 0
1 0.428571 0
1 0.44898 0
1 0.469388 0
1 0.489796 0
1 0.510204 0
1 0.530612 0
1 0.55102 0
1 0.571429 0
1 0.591837 0
1 0.612245 0
1 0.632653 0
1 0.653061 0
1 0.673469 0
1 0.693878 0
1 0.714286 0
1 0.734694 0
1 0.755102 0
1 0.77551 0
1 0.795918 0
1 0.816327 0
1 0.836735 0
1 0.857143 0
1 0.877551 0
1 0.897959 0
1 0.918367 0
1 0.938776 0
1 0.959184 0
1 0.979592 0
0.979592 1 0
0.959184 1 0
0.938776 1 0
0.918367 1 0
0.897959 1 0
0.877551 1 0
0.857143 1 0
0.836735 1 0
0.816327 1 0
0.795918 1 0
0.77551 1 0
0.755102 1 0
0.734694 1 0
0.714286 1 0
0.693878 1 0
0.673469 1 0
0.653061 1 0
0.632653 1 0
0.612245 1 0
0.591837 1 0
0.571429 1 0
0.55102 1 0
0.530612 1 0
0.510204 1 0
0.489796 1 0
0.469388 1 0
0.44898 1 0
0.428571 1 0
0.408163 1 0
0.387755 1 0
0.367347 1 0
0.346939 1 0
0.326531 1 0
0.306122 1 0
0.285714 1 0
0.265306 1 0
0.244898 1 0
0.22449 1 0
0.204082 1 0
0.183673 1 0
0.163265 1 0
0.142857 1 0
0.122449 1 0
0.102041 1 0
0.0816327 1 0
0.0612245 1 0
0.0408163 1 0
0.0204082 1 0
0 0.979592 0
0 0.959184 0
0 0.938776 0
0 0.918367 0
0 0.897959 0
0 0.877551 0
0 0.857143 0
0 0.836735 0
0 0.816327 0
0 0.795918 0
0 0.77551 0
0 0.755102 0
0 0.734694 0
0 0.714286 0
0 0.693878 0
0 0.673469 0
0 0.653061 0
0 0.632653 0
0 0.612245 0
0 0.591837 0
0 0.571429 0
0 0.55102 0
0 0.530612 0
0 0.510204 0
0 0.489796 0
0 0.469388 0
0 0.44898 0
0 0.428571 0
0 0.408163 0
0 0.387755 0
0 0.367347 0
0 0.346939 0
0 0.326531 0
0 0.306122 0
0 0.285714 0
0 0.265306 0
0 0.244898 0
0 0.22449 0
0 0.204082 0
0 0.183673 0
0 0.163265 0
0 0.142857 0
0 0.122449 0
0 0.102041 0
0 0.0816327 0
0 0.0612245 0
0 0.0408163 0
0 0.0204082 0
0.0204082 0.979592 0
0.0204082 0.959184 0
0.0204082 0.938776 0
0.0204082 0.918367 0
0.0204082 0.897959 0
0.0204082 0.877551 0
0.0204082 0.857143 0
0.0204082 0.836735 0
0.0204082 0.816327 0
0.0204082 0.795918 0
0.0204082 0.77551 0
0.0204082 0.755102 0
0.0204082 0.734694 0
0.0204082 0.714286 0
0.0204082 0.693878 0
0.0204082 0.673469 0
0.0204082 0.653061 0
0.0204082 0.632653 0
0.0204082 0.612245 0
0.0204082 0.591837 0
0.0204082 0.571429 0
0.0204082 0.55102 0
0.0204082 0.530612 0
0.0204082 0.510204 0
0.0204082 0.489796 0
0.0204082 0.469388 0
0.0204082 0.44898 0
0.0204082 0.428571 0
0.0204082 0.408163 0
0.0204082 0.387755 0
0.0204082 0.367347 0
0.0204082 0.346939 0
0.0204082 0.326531 0
0.0204082 0.306122 0
0.0204082 0.285714 0
0.0204082 0.265306 0
0.0204082 0.244898 0
0.0204082 0.22449 0
0.0204082 0.204082 0
0.0204082 0.183673 0
0.0204082 0.163265 0
0.0204082 0.142857 0
0.0204082 0.122449 0
0.0204082 0.102041 0
0.0204082 0.0816327 0
0.0204082 0.0612245 0
0.0204082 0.0408163 0
0.0204082 0.0204082 0
0.0408163 0.979592 0
0.0408163 0.959184 0
0.0408163 0.938776 0
0.0408163 0.918367 0
0.0408163 0.897959 0
0.0408163 0.877551 0
0.0408163 0.857143 0
0.0408163 0.836735 0
0.0408163 0.816327 0
0.0408163 0.795918 0
0.0408163 0.77551 0
0.0408163 0.755102 0
0.0408163 0.734694 0
0.0408163 0.714286 0
0.0408163 0.693878 0
0.0408163 0.673469 0
0.0408163 0.653061 0
0.0408163 0.632653 0
0.0408163 0.612245 0
0.0408163 0.591837 0
0.0408163 0.571429 0
0.0408163 0.55102 0
0.0408163 0.530612 0
0.0408163 0.510204 0
0.0408163 0.489796 0
0.0408163 0.469388 0
0.0408163 0.44898 0
0.0408163 0.428571 0
0.0408163 0.408163 0
0.0408163 0.387755 0
0.0408163 0.367347 0
0.0408163 0.346939 0
0.0408163 0.326531 0
0.0408163 0.306122 0
0.0408163 0.285714 0
0.0408163 0.265306 0
0.0408163 0.244898 0
0.0408163 0.22449 0
0.0408163 0.204082 0
0.0408163 0.183673 0
0.0408163 0.163265 0
0.0408163 0.142857 0
0.0408163 0.122449 0
0.0408163 0.102041 0
0.0408163 0.0816327 0
0.0408163 0.0612245 0
0.0408163 0.0408163 0
0.0408163 0.0204082 0
0.0612245 0.979592 0
0.0612245 0.959184 0
0.0612245 0.938776 0
0.0612245 0.918367 0
0.0612245 0.897959 0
0.0612245 0.877551 0
0.0612245 0.857143 0
0.0612245 0.836735 0
0.0612245 0.816327 0
0.0612245 0.795918 0
0.0612245 0.77551 0
0.0612245 0.755102 0
0.0612245 0.734694 0
0.0612245 0.714286 0
0.0612245 0.693878 0
0.0612245 0.673469 0
0.0612245 0.653061 0
0.0612245 0.632653 0
0.0612245 0.612245 0
0.0612245 0.591837 0
0.0612245 0.571429 0
0.0612245 0.55102 0
0.0612245 0.530612 0
0.0612245 0.510204 0
0.0612245 0.489796 0
0.0612245 0.469388 0
0.0612245 0.44898 0
0.0612245 0.428571 0
0.0612245 0.408163 0
0.0612245 0.387755 0
0.0612245 0.367347 0
0.0612245 0.346939 0
0.0612245 0.326531 0
0.0612245 0.306122 0
0.0612245 0.285714 0
0.0612245 0.265306 0
0.0612245 0.244898 0
0.0612245 0.22449 0
0.0612245 0.204082 0
0.0612245 0.183673 0
0.0612245 0.163265 0
0.0612245 0.142857 0
0.0612245 0.122449 0
0.0612245 0.102041 0
0.0612245 0.0816327 0
0.0612245 0.0612245 0
0.0612245 0.0408163 0
0.0612245 0.0204082 0
0.0816327 0.979592 0
0.0816327 0.959184 0
0.0816327 0.938776 0
0.0816327 0.918367 0
0.0816327 0.897959 0
0.0816327 0.877551 0
0.0816327 0.857143 0
0.0816327 0.836735 0
0.0816327 0.816327 0
0.0816327 0.795918 0
0.0816327 0.77551 0
0.0816327 0.755102 0
0.0816327 0.734694 0
0.0816327 0.714286 0
0.0816327 0.693878 0
0.0816327 0.673469 0
0.0816327 0.653061 0
0.0816327 0.632653 0
0.0816327 0.612245 0
0.0816327 0.591837 0
0.0816327 0.571429 0
0.0816327 0.55102 0
0.0816327 0.530612 0
0.0816327 0.510204 0
0.0816327 0.489796 0
0.0816327 0.469388 0
0.0816327 0.44898 0
0.0816327 0.428571 0
0.0816327 0.408163 0
0.0816327 0.387755 0
0.0816327 0.367347 0
0.0816327 0.346939 0
0.0816327 0.326531 0
0.0816327 0.306122 0
0.0816327 0.285714 0
0.0816327 0.265306 0
0.0816327 0.244898 0
0.0816327 0.22449 0
0.0816327 0.204082 0
0.0816327 0.183673 0
0.0816327 0.163265 0
0.0816327 0.142857 0
0.0816327 0.122449 0
0.0816327 0.102041 0
0.0816327 0.0816327 0
0.0816327 0.0612245 0
0.0816327 0.0408163 0
0.0816327 0.0204082 0
0.102041 0.979592 0
0.102041 0.959184 0
0.102041 0.938776 0
0.102041 0.918367 0
0.102041 0.897959 0
0.102041 0.877551 0
0.102041 0.857143 0
0.102041 0.836735 0
0.102041 0.816327 0
0.102041 0.795918 0
0.102041 0.77551 0
0.102041 0.755102 0
0.102041 0.734694 0
0.102041 0.714286 0
0.102041 0.693878 0
0.102041 0.673469 0
0.102041 0.653061 0
0.102041 0.632653 0
0.102041 0.612245 0
0.102041 0.591837 0
0.102041 0.571429 0
0.102041 0.55102 0
0.102041 0.530612 0
0.102041 0.510204 0
0.102041 0.489796 0
0.102041 0.469388 0
0.102041 0.44898 0
0.102041 0.428571 0
0.102041 0.408163 0
0.102041 0.387755 0
0.102041 0.367347 0
0.102041 0.346939 0
0.102041 0.326531 0
0.102041 0.306122 0
0.102041 0.285714 0
0.102041 0.265306 0
0.102041 0.244898 0
0.102041 0.22449 0
0.102041 0.204082 0
0.102041 0.183673 0
0.102041 0.163265 0
0.102041 0.142857 0
0.102041 0.122449 0
0.102041 0.102041 0
0.102041 0.0816327 0
0.102041 0.0612245 0
0.102041 0.0408163 0
0.102041 0.0204082 0
0.122449 0.979592 0
0.122449 0.959184 0
0.122449 0.938776 0
0.122449 0.918367 0
0.122449 0.897959 0
0.122449 0.877551 0
0.122449 0.857143 0
0.122449 0.836735 0
0.122449 0.816327 0
0.122449 0.795918 0
0.122449 0.77551 0
0.122449 0.755102 0
0.122449 0.734694 0
0.122449 0.714286 0
0.122449 0.693878 0
0.122449 0.673469 0
0.122449 0.653061 0
0.122449 0.632653 0
0.122449 0.612245 0
0.122449 0.591837 0
0.122449 0.571429 0
0.122449 0.55102 0
0.122449 0.530612 0
0.122449 0.510204 0
0.122449 0.489796 0
0.122449 0.469388 0
0.122449 0.44898 0
0.122449 0.428571 0
0.122449 0.408163 0
0.122449 0.387755 0
0.122449 0.367347 0
0.122449 0.346939 0
0.122449 0.326531 0
0.122449 0.306122 0
0.122449 0.285714 0
0.122449 0.265306 0
0.122449 0.244898 0
0.122449 0.22449 0
0.122449 0.204082 0
0.122449 0.183673 0
0.122449 0.163265 0
0.122449 0.142857 0
0.122449 0.122449 0
0.122449 0.102041 0
0.122449 0.0816327 0
0.122449 0.0612245 0
0.122449 0.0408163 0
0.122449 0.0204082 0
0.142857 0.979592 0
0.142857 0.959184 0
0.142857 0.938776 0
0.142857 0.918367 0
0.142857 0.897959 0
0.142857 0.877551 0
0.142857 0.857143 0
0.142857 0.836735 0
0.142857 0.816327 0
0.142857 0.795918 0
0.142857 0.77551 0
0.142857 0.755102 0
0.142857 0.734694 0
0.142857 0.714286 0
0.142857 0.693878 0
0.142857 0.673469 0
0.142857 0.653061 0
0.142857 0.632653 0
0.142857 0.612245 0
0.142857 0.591837 0
0.142857 0.571429 0
0.142857 0.55102 0
0.142857 0.530612 0
0.142857 0.510204 0
0.142857 0.489796 0
0.142857 0.469388 0
0.142857 0.44898 0
0.142857 0.428571 0
0.142857 0.408163 0
0.142857 0.387755 0
0.142857 0.367347 0
0.142857 0.346939 0
0.142857 0.326531 0
0.142857 0.306122 0
0.142857 0.285714 0
0.142857 0.265306 0
0.142857 0.244898 0
0.142857 0.22449 0
0.142857 0.204082 0
0.142857 0.183673 0
0.142857 0.163265 0
0.142857 0.142857 0
0.142857 0.122449 0
0.142857 0.102041 0
0.142857 0.0816327 0
0.142857 0.0612245 0
0.142857 0.0408163 0
0.142857 0.0204082 0
0.163265 0.979592 0
0.163265 0.959184 0
0.163265 0.938776 0
0.163265 0.918367 0
0.163265 0.897959 0
0.163265 0.877551 0
0.163265 0.857143 0
0.163265 0.836735 0
0.163265 0.816327 0
0.163265 0.795918 0
0.163265 0.77551 0
0.163265 0.755102 0
0.163265 0.734694 0
0.163265 0.714286 0
0.163265 0.693878 0
0.163265 0.673469 0
0.163265 0.653061 0
0.163265 0.632653 0
0.163265 0.612245 0
0.163265 0.591837 0
0.163265 0.571429 0
0.163265 0.55102 0
[...]
CELL_DATA 2401
VECTORS velocity double
0.23638 0.172586 0.0
-0.00896157 0.276658 0.0
-0.0370238 0.2046 0.0
-0.0269607 0.152067 0.0
-0.0161704 0.113646 0.0
-0.00932656 0.0880147 0.0
-0.00546418 0.0708454 0.0
-0.0033397 0.0590548 0.0
-0.00215123 0.0507057 0.0
-0.00146063 0.044606 0.0
-0.0010408 0.0400154 0.0
-0.000774631 0.0364606 0.0
-0.000600261 0.0336286 0.0
-0.000483546 0.0313059 0.0
-0.000404597 0.0293433 0.0
-0.000351169 0.0276348 0.0
-0.000315332 0.026104 0.0
-0.000291729 0.0246961 0.0
-0.000276614 0.0233716 0.0
-0.000267295 0.0221026 0.0
-0.000261803 0.0208699 0.0
-0.000258676 0.0196608 0.0
-0.000256824 0.0184674 0.0
-0.000255439 0.0172859 0.0
-0.000253928 0.0161152 0.0
-0.00025187 0.0149562 0.0
-0.00024898 0.0138115 0.0
-0.000245081 0.0126845 0.0
-0.000240083 0.0115793 0.0
-0.00023396 0.0105003 0.0
-0.000226737 0.00945196 0.0
-0.000218468 0.00843872 0.0
-0.000209231 0.00746473 0.0
-0.000199107 0.00653394 0.0
-0.000188177 0.00564997 0.0
-0.000176506 0.00481623 0.0
-0.00016414 0.00403588 0.0
-0.000151092 0.00331196 0.0
-0.00013734 0.00264748 0.0
-0.00012281 0.00204553 0.0
-0.00010737 0.00150938 0.0
-9.08195e-05 0.00104265 0.0
-7.28785e-05 0.000649338 0.0
-5.32176e-05 0.000333818 0.0
-3.15769e-05 0.000100599 0.0
-8.15026e-06 -4.67059e-05 0.0
1.53795e-05 -0.000107356 0.0
3.29049e-05 -8.89123e-05 0.0
3.1016e-05 -3.08159e-05 0.0
0.327035 0.120726 0.0
0.000662395 0.241633 0.0
-0.0675619 0.265791 0.0
-0.0639817 0.249984 0.0
-0.0485726 0.220892 0.0
-0.0348631 0.191782 0.0
-0.0248418 0.166588 0.0
-0.017916 0.146021 0.0
-0.0131769 0.129596 0.0
-0.00991146 0.116533 0.0
-0.00763483 0.106078 0.0
-0.00603033 0.0976045 0.0
-0.00489108 0.0906133 0.0
-0.0040796 0.0847213 0.0
-0.00350236 0.0796368 0.0
-0.0030941 0.0751393 0.0
-0.00280828 0.0710632 0.0
-0.00261103 0.0672852 0.0
-0.00247726 0.0637146 0.0
-0.00238816 0.0602858 0.0
-0.00232947 0.0569527 0.0
-0.00229034 0.0536846 0.0
-0.00226248 0.0504624 0.0
-0.00223963 0.0472764 0.0
-0.00221713 0.0441235 0.0
-0.00219159 0.0410059 0.0
-0.00216061 0.0379295 0.0
-0.00212265 0.0349028 0.0
-0.00207681 0.0319357 0.0
-0.00202269 0.0290393 0.0
-0.00196027 0.0262248 0.0
-0.00188979 0.0235032 0.0
-0.00181166 0.0208854 0.0
-0.00172637 0.0183814 0.0
-0.00163441 0.0160009 0.0
-0.00153621 0.0137528 0.0
-0.00143208 0.0116455 0.0
-0.0013222 0.00968706 0.0
-0.00120654 0.00788551 0.0
-0.00108487 0.00624871 0.0
-0.000956808 0.00478475 0.0
-0.000821804 0.00350193 0.0
-0.000679355 0.00240868 0.0
-0.000529346 0.00151303 0.0
-0.000372876 0.00082151 0.0
-0.000214006 0.000336593 0.0
-6.34249e-05 5.31819e-05 0.0
5.30961e-05 -5.16155e-05 0.0
8.85447e-05 -3.19173e-05 0.0
0.504535 0.0766648 0.0
0.105863 0.184657 0.0
-0.037147 0.250929 0.0
-0.0724597 0.266068 0.0
-0.0717133 0.257686 0.0
-0.0608581 0.239789 0.0
-0.0488878 0.219565 0.0
-0.0385274 0.200289 0.0
-0.0302845 0.183164 0.0
-0.0239616 0.168419 0.0
-0.0191965 0.155868 0.0
-0.0156411 0.145177 0.0
-0.0130073 0.13599 0.0
-0.0110701 0.127984 0.0
-0.00965742 0.120881 0.0
-0.0086381 0.114456 0.0
-0.00791233 0.108527 0.0
-0.00740366 0.102957 0.0
-0.00705328 0.0976377 0.0
-0.00681568 0.0924929 0.0
-0.00665557 0.087467 0.0
-0.00654556 0.0825232 0.0
-0.00646449 0.0776392 0.0
-0.00639615 0.0728044 0.0
-0.00632834 0.0680168 0.0
-0.00625211 0.0632814 0.0
-0.00616112 0.0586079 0.0
-0.0060512 0.0540092 0.0
-0.00591986 0.0495006 0.0
-0.00576596 0.0450982 0.0
-0.00558933 0.0408189 0.0
-0.00539054 0.0366789 0.0
-0.00517057 0.0326941 0.0
-0.00493065 0.0288797 0.0
-0.00467204 0.0252498 0.0
-0.00439587 0.0218176 0.0
-0.00410302 0.0185959 0.0
-0.00379402 0.0155964 0.0
-0.00346903 0.0128308 0.0
-0.00312783 0.0103104 0.0
-0.00276994 0.00804642 0.0
-0.00239486 0.00604997 0.0
-0.00200261 0.0043316 0.0
-0.00159472 0.00290062 0.0
-0.00117613 0.00176346 0.0
-0.00075868 0.000920824 0.0
-0.000367254 0.000364834 0.0
-5.22024e-05 6.48161e-05 0.0
0.000104964 -1.36305e-05 0.0
0.608709 0.0470991 0.0
0.196043 0.134836 0.0
0.0118439 0.211341 0.0
-0.0574943 0.246747 0.0
-0.0758478 0.257188 0.0
-0.0739042 0.25348 0.0
-0.0650565 0.242865 0.0
-0.0548565 0.229589 0.0
-0.045448 0.215901 0.0
-0.0375076 0.202872 0.0
-0.0311061 0.190922 0.0
-0.0260867 0.180125 0.0
-0.0222276 0.170389 0.0
-0.0193082 0.161559 0.0
-0.0171333 0.15346 0.0
-0.0155385 0.145931 0.0
-0.0143892 0.138828 0.0
-0.0135765 0.132037 0.0
-0.0130128 0.125465 0.0
-0.012628 0.119044 0.0
-0.0123666 0.112725 0.0
-0.0121844 0.106477 0.0
-0.0120467 0.100282 0.0
-0.0119267 0.0941336 0.0
-0.0118041 0.0880353 0.0
-0.0116638 0.0819965 0.0
-0.0114952 0.0760319 0.0
-0.0112912 0.0701594 0.0
-0.0110477 0.0643991 0.0
-0.0107627 0.058772 0.0
-0.0104362 0.0532994 0.0
-0.010069 0.048002 0.0
-0.00966307 0.0428997 0.0
-0.00922052 0.0380116 0.0
-0.00874361 0.0333552 0.0
-0.00823443 0.0289471 0.0
-0.00769465 0.024803 0.0
-0.00712543 0.0209374 0.0
-0.00652735 0.0173646 0.0
-0.00590053 0.0140979 0.0
-0.00524482 0.0111506 0.0
-0.00456033 0.00853505 0.0
-0.00384833 0.0062628 0.0
-0.00311287 0.00434345 0.0
-0.00236352 0.00278321 0.0
-0.00161997 0.00158243 0.0
-0.000919472 0.000734854 0.0
-0.00033069 0.000208996 0.0
4.30002e-05 9.89348e-06 0.0
0.679933 0.0285112 0.0
0.27854 0.0980966 0.0
0.0701909 0.17249 0.0
-0.0270276 0.217634 0.0
-0.0652885 0.240975 0.0
-0.0752468 0.249025 0.0
-0.0727289 0.247922 0.0
-0.0654115 0.241759 0.0
-0.05692 0.233112 0.0
-0.0488686 0.223491 0.0
-0.0418849 0.213719 0.0
-0.0361255 0.204202 0.0
-0.0315337 0.1951 0.0
-0.0279671 0.186439 0.0
-0.025259 0.178177 0.0
-0.0232472 0.170245 0.0
-0.0217859 0.162565 0.0
-0.0207489 0.155068 0.0
-0.0200297 0.147696 0.0
-0.0195402 0.140403 0.0
-0.0192081 0.133159 0.0
-0.018975 0.125947 0.0
-0.0187942 0.118761 0.0
-0.0186293 0.111603 0.0
-0.0184524 0.104485 0.0
-0.0182427 0.0974242 0.0
-0.0179857 0.0904406 0.0
-0.0176717 0.0835582 0.0
-0.0172953 0.0768022 0.0
-0.016854 0.0701981 0.0
-0.0163481 0.0637713 0.0
-0.0157793 0.0575464 0.0
-0.0151506 0.0515466 0.0
-0.0144653 0.0457938 0.0
-0.0137271 0.0403082 0.0
-0.0129393 0.0351089 0.0
-0.0121045 0.0302134 0.0
-0.0112249 0.0256382 0.0
-0.0103017 0.0213989 0.0
-0.00933565 0.0175102 0.0
-0.0083274 0.0139862 0.0
-0.007278 0.0108401 0.0
-0.00619037 0.00808377 0.0
-0.0050713 0.00572724 0.0
-0.00393471 0.00377739 0.0
-0.00280677 0.00223638 0.0
-0.00173346 0.00110349 0.0
-0.00079383 0.000351379 0.0
-0.00010037 3.18948e-05 0.0
0.730033 0.0175419 0.0
0.34903 0.0727647 0.0
0.128375 0.140424 0.0
0.0113924 0.188178 0.0
-0.0446919 0.219321 0.0
-0.0670666 0.23585 0.0
-0.0724038 0.242612 0.0
-0.0697159 0.243034 0.0
-0.0637457 0.239589 0.0
-0.0569181 0.233907 0.0
-0.0504054 0.227013 0.0
-0.0447124 0.219517 0.0
-0.0399947 0.211765 0.0
-0.0362336 0.203936 0.0
-0.0333295 0.196108 0.0
-0.0311524 0.188305 0.0
-0.0295675 0.180521 0.0
-0.0284479 0.172741 0.0
-0.0276804 0.164947 0.0
-0.0271669 0.157128 0.0
-0.0268246 0.149277 0.0
-0.0265851 0.141398 0.0
-0.026393 0.133499 0.0
-0.0262042 0.125597 0.0
-0.0259851 0.117713 0.0
-0.0257107 0.109873 0.0
-0.0253633 0.102107 0.0
-0.0249318 0.0944428 0.0
-0.0244099 0.0869123 0.0
-0.0237956 0.0795454 0.0
-0.0230898 0.0723715 0.0
-0.0222956 0.0654184 0.0
-0.0214174 0.0587121 0.0
-0.0204605 0.0522769 0.0
-0.01943 0.0461348 0.0
-0.0183306 0.0403064 0.0
-0.0171666 0.0348105 0.0
-0.0159411 0.0296646 0.0
-0.0146564 0.0248848 0.0
-0.0133141 0.0204866 0.0
-0.0119157 0.0164844 0.0
-0.0104634 0.0128916 0.0
-0.0089617 0.00972055 0.0
-0.00741962 0.00698215 0.0
-0.00585429 0.0046851 0.0
-0.00429582 0.00283525 0.0
-0.00279432 0.00144 0.0
-0.00143144 0.000479029 0.0
-0.00031814 5.03591e-05 0.0
0.766132 0.0111388 0.0
0.408354 0.0553311 0.0
0.183127 0.115236 0.0
0.0525105 0.162221 0.0
-0.0179956 0.19709 0.0
-0.0520041 0.219287 0.0
-0.0656118 0.231942 0.0
-0.0684682 0.237806 0.0
-0.0660642 0.239027 0.0
-0.0614536 0.237159 0.0
-0.056279 0.233272 0.0
-0.0513739 0.228077 0.0
-0.0471144 0.222027 0.0
-0.0436235 0.215409 0.0
-0.0408895 0.208394 0.0
-0.0388338 0.201084 0.0
-0.0373493 0.193539 0.0
-0.036322 0.185796 0.0
-0.0356419 0.17788 0.0
-0.0352097 0.169813 0.0
-0.0349381 0.161616 0.0
-0.0347536 0.153314 0.0
-0.0345955 0.144936 0.0
-0.0344153 0.136511 0.0
-0.0341756 0.128075 0.0
-0.033849 0.119663 0.0
-0.0334165 0.111313 0.0
-0.0328664 0.103061 0.0
-0.0321929 0.0949434 0.0
-0.031395 0.086996 0.0
-0.0304753 0.0792514 0.0
-0.0294388 0.0717406 0.0
-0.0282922 0.064492 0.0
-0.0270428 0.0575315 0.0
-0.0256977 0.0508826 0.0
-0.0242636 0.0445666 0.0
-0.0227464 0.0386029 0.0
-0.0211506 0.0330092 0.0
-0.0194796 0.027802 0.0
-0.0177361 0.0229964 0.0
-0.0159224 0.018607 0.0
-0.0140418 0.0146474 0.0
-0.0120997 0.0111305 0.0
-0.0101066 0.00806848 0.0
-0.00808106 0.00547285 0.0
-0.0060542 0.00335441 0.0
-0.00407585 0.00172982 0.0
-0.00222376 0.000586921 0.0
-0.000599632 6.50011e-05 0.0
0.793147 0.00737942 0.0
0.45834 0.0431949 0.0
0.233327 0.0957084 0.0
0.0937155 0.140384 0.0
0.0122181 0.176263 0.0
-0.0322309 0.202001 0.0
-0.0539144 0.218838 0.0
-0.0626555 0.228939 0.0
-0.0644085 0.234053 0.0
-0.0626819 0.235569 0.0
-0.0594935 0.234509 0.0
-0.0559609 0.231602 0.0
-0.0526645 0.227355 0.0
-0.0498685 0.222114 0.0
-0.0476554 0.216116 0.0
-0.0460076 0.209522 0.0
-0.0448556 0.202443 0.0
-0.0441071 0.194963 0.0
-0.0436637 0.187143 0.0
-0.043431 0.179039 0.0
-0.0433232 0.170699 0.0
-0.0432657 0.16217 0.0
-0.0431963 0.153499 0.0
-0.0430651 0.144733 0.0
-0.0428334 0.135919 0.0
-0.0424734 0.127104 0.0
-0.0419663 0.118334 0.0
-0.0413016 0.109655 0.0
-0.040475 0.101107 0.0
-0.0394879 0.0927318 0.0
-0.0383454 0.0845653 0.0
-0.0370552 0.0766413 0.0
-0.0356268 0.0689901 0.0
-0.0340701 0.0616391 0.0
-0.032395 0.0546125 0.0
-0.0306105 0.0479319 0.0
-0.0287241 0.0416167 0.0
-0.0267422 0.0356843 0.0
-0.0246693 0.0301508 0.0
-0.0225091 0.025031 0.0
-0.0202648 0.0203391 0.0
-0.0179399 0.0160887 0.0
-0.0155406 0.0122936 0.0
-0.0130772 0.00896754 0.0
-0.0105677 0.00612543 0.0
-0.00804178 0.0037835 0.0
-0.00554498 0.0019677 0.0
-0.00314626 0.000673999 0.0
-0.000933099 7.61563e-05 0.0
0.814074 0.00513863 0.0
0.500702 0.0346079 0.0
0.278795 0.0805996 0.0
0.133544 0.122358 0.0
0.0435711 0.157885 0.0
-0.0095296 0.185342 0.0
-0.0386889 0.205033 0.0
-0.0532796 0.218267 0.0
-0.05945 0.226476 0.0
-0.0610077 0.230835 0.0
-0.060252 0.23227 0.0
-0.058532 0.231479 0.0
-0.0566048 0.228976 0.0
-0.0548637 0.225136 0.0
-0.0534829 0.220232 0.0
-0.0525073 0.214465 0.0
-0.0519089 0.207985 0.0
-0.0516223 0.200911 0.0
-0.0515658 0.193337 0.0
-0.0516544 0.185347 0.0
-0.0518077 0.177012 0.0
-0.0519542 0.168403 0.0
-0.0520332 0.159584 0.0
-0.0519958 0.150617 0.0
-0.0518048 0.141564 0.0
-0.0514338 0.132482 0.0
-0.0508662 0.123427 0.0
-0.0500939 0.114451 0.0
-0.0491161 0.105602 0.0
-0.0479372 0.0969252 0.0
-0.0465662 0.0884609 0.0
-0.0450143 0.0802452 0.0
-0.0432947 0.0723102 0.0
-0.0414206 0.0646839 0.0
-0.0394051 0.057391 0.0
-0.0372596 0.0504529 0.0
-0.0349941 0.0438884 0.0
-0.0326166 0.0377144 0.0
-0.030133 0.0319458 0.0
-0.0275479 0.0265969 0.0
-0.0248648 0.0216812 0.0
-0.0220872 0.0172124 0.0
-0.0192208 0.0132049 0.0
-0.0162747 0.00967447 0.0
-0.0132644 0.00663918 0.0
-0.0102154 0.00412073 0.0
-0.00716604 0.00215359 0.0
-0.00417323 0.000741094 0.0
-0.00130721 8.43279e-05 0.0
0.830803 0.00376571 0.0
0.536937 0.0283938 0.0
0.319836 0.0688059 0.0
0.171403 0.107488 0.0
0.0750525 0.141931 0.0
0.0149471 0.169887 0.0
-0.0210111 0.191401 0.0
-0.0412209 0.206889 0.0
-0.0518508 0.217482 0.0
-0.0568949 0.22415 0.0
-0.0588547 0.227701 0.0
-0.0592586 0.228777 0.0
-0.0590099 0.227873 0.0
-0.058614 0.225366 0.0
-0.0583277 0.221546 0.0
-0.0582552 0.216637 0.0
-0.0584103 0.210816 0.0
-0.0587557 0.204226 0.0
-0.0592285 0.196989 0.0
-0.0597565 0.189211 0.0
-0.0602673 0.180986 0.0
-0.0606948 0.172401 0.0
-0.0609827 0.16354 0.0
-0.0610854 0.15448 0.0
-0.0609691 0.145294 0.0
-0.0606108 0.136052 0.0
-0.059998 0.126817 0.0
-0.0591268 0.11765 0.0
-0.0580008 0.108605 0.0
-0.0566292 0.0997315 0.0
-0.0550256 0.091073 0.0
-0.0532062 0.082668 0.0
-0.0511884 0.0745498 0.0
-0.0489895 0.0667472 0.0
-0.0466262 0.0592846 0.0
-0.0441132 0.0521828 0.0
-0.0414628 0.0454596 0.0
-0.0386849 0.0391306 0.0
-0.0357869 0.0332098 0.0
-0.0327738 0.02771 0.0
-0.0296492 0.0226442 0.0
-0.0264161 0.0180257 0.0
-0.0230785 0.0138695 0.0
-0.0196428 0.0101929 0.0
-0.0161207 0.00701728 0.0
-0.0125312 0.00436908 0.0
-0.00890338 0.00229005 0.0
-0.00527961 0.000789834 0.0
-0.00171157 9.00112e-05 0.0
0.844548 0.00289451 0.0
0.568251 0.0237935 0.0
0.356884 0.0595055 0.0
0.20702 0.0952136 0.0
0.105904 0.128204 0.0
0.0399867 0.156024 0.0
-0.00173578 0.178409 0.0
-0.0271991 0.195474 0.0
-0.0421967 0.207842 0.0
-0.050794 0.216332 0.0
-0.0556285 0.221626 0.0
-0.0583635 0.224296 0.0
-0.0600185 0.224802 0.0
-0.0611922 0.223508 0.0
-0.062213 0.220707 0.0
-0.0632383 0.216632 0.0
-0.0643204 0.211476 0.0
-0.0654494 0.2054 0.0
-0.0665818 0.198545 0.0
-0.0676588 0.191035 0.0
-0.0686178 0.182984 0.0
-0.0694 0.174495 0.0
-0.0699549 0.165667 0.0
-0.0702424 0.15659 0.0
-0.0702337 0.147352 0.0
-0.0699113 0.13803 0.0
-0.0692682 0.128699 0.0
-0.0683061 0.119426 0.0
-0.0670349 0.11027 0.0
-0.0654697 0.101286 0.0
-0.06363 0.0925195 0.0
-0.0615378 0.0840117 0.0
-0.0592157 0.0757968 0.0
-0.0566861 0.0679034 0.0
-0.0539697 0.0603556 0.0
-0.0510847 0.053173 0.0
-0.0480463 0.0463721 0.0
-0.0448665 0.0399667 0.0
-0.0415537 0.0339693 0.0
-0.0381135 0.0283912 0.0
-0.0345491 0.0232442 0.0
-0.0308619 0.0185412 0.0
-0.0270536 0.0142972 0.0
-0.0231268 0.010531 0.0
-0.0190875 0.00726637 0.0
-0.0149468 0.00453378 0.0
-0.0107226 0.00238076 0.0
-0.00644187 0.000822056 0.0
-0.00213688 9.36348e-05 0.0
0.856106 0.00231761 0.0
0.595595 0.0203044 0.0
0.390417 0.052069 0.0
0.240383 0.0850026 0.0
0.135797 0.11637 0.0
0.0651297 0.14366 0.0
0.0184571 0.166321 0.0
-0.0118116 0.184379 0.0
-0.0309956 0.198041 0.0
-0.0431172 0.207927 0.0
-0.0508942 0.214619 0.0
-0.0560855 0.218614 0.0
-0.0597995 0.220328 0.0
-0.0627102 0.220102 0.0
-0.0652052 0.218221 0.0
-0.0674875 0.21492 0.0
-0.0696431 0.210398 0.0
-0.071687 0.204828 0.0
-0.073594 0.198365 0.0
-0.0753185 0.191148 0.0
-0.076808 0.183304 0.0
-0.0780122 0.174953 0.0
-0.0788876 0.166207 0.0
-0.0794008 0.157168 0.0
-0.0795297 0.147935 0.0
-0.0792637 0.138596 0.0
-0.0786028 0.129233 0.0
-0.0775563 0.119921 0.0
-0.0761412 0.110724 0.0
-0.0743802 0.1017 0.0
-0.0723 0.092899 0.0
-0.0699292 0.0843627 0.0
-0.0672969 0.0761259 0.0
-0.0644309 0.0682171 0.0
-0.0613568 0.0606592 0.0
-0.0580968 0.0534703 0.0
-0.0546691 0.046665 0.0
-0.0510877 0.0402553 0.0
-0.0473624 0.0342513 0.0
-0.0434989 0.0286626 0.0
-0.0394992 0.0234995 0.0
-0.0353631 0.0187738 0.0
-0.0310886 0.0145004 0.0
-0.0266736 0.0106988 0.0
-0.0221172 0.00739444 0.0
-0.0174213 0.00462077 0.0
-0.0125915 0.00242958 0.0
-0.00763835 0.000839504 0.0
-0.00257493 9.55434e-05 0.0
0.86601 0.00191791 0.0
0.619709 0.0175962 0.0
0.420877 0.0460394 0.0
0.271563 0.0764396 0.0
0.164515 0.106146 0.0
0.0899558 0.132665 0.0
0.0389831 0.155254 0.0
0.00451552 0.173769 0.0
-0.0186462 0.188348 0.0
-0.0342157 0.199278 0.0
-0.0449433 0.207067 0.0
-0.0526569 0.212136 0.0
-0.0585315 0.214857 0.0
-0.0632996 0.215545 0.0
-0.0673966 0.214468 0.0
-0.0710628 0.211857 0.0
-0.0744126 0.207914 0.0
-0.0774824 0.202817 0.0
-0.0802627 0.196731 0.0
-0.0827203 0.189805 0.0
-0.0848127 0.18218 0.0
-0.086498 0.173988 0.0
-0.0877406 0.165351 0.0
-0.0885149 0.156385 0.0
-0.0888066 0.147198 0.0
-0.0886134 0.137887 0.0
-0.0879439 0.128543 0.0
-0.086816 0.119246 0.0
-0.0852558 0.110066 0.0
-0.0832946 0.101063 0.0
-0.0809675 0.0922908 0.0
-0.0783111 0.0837911 0.0
-0.0753615 0.075599 0.0
-0.0721531 0.0677423 0.0
-0.0687167 0.0602422 0.0
-0.0650789 0.0531152 0.0
-0.0612614 0.0463733 0.0
-0.0572803 0.040026 0.0
-0.0531465 0.034081 0.0
-0.0488653 0.0285455 0.0
-0.0444379 0.023428 0.0
-0.0398609 0.0187386 0.0
-0.0351285 0.0144916 0.0
-0.0302327 0.0107064 0.0
-0.0251647 0.0074094 0.0
-0.0199162 0.00463577 0.0
-0.0144798 0.00244002 0.0
-0.00884918 0.000843672 0.0
-0.00301841 9.59982e-05 0.0
0.874632 0.00162804 0.0
0.641166 0.0154466 0.0
0.448656 0.041078 0.0
0.300692 0.0691849 0.0
0.191978 0.0972556 0.0
0.11425 0.122864 0.0
0.0595486 0.145146 0.0
0.0213003 0.163802 0.0
-0.00550898 0.178917 0.0
-0.0243983 0.190605 0.0
-0.0380398 0.19922 0.0
-0.0482969 0.205135 0.0
-0.0563917 0.208672 0.0
-0.0630999 0.210118 0.0
-0.0688938 0.209722 0.0
-0.0740428 0.207705 0.0
-0.0786838 0.204269 0.0
-0.0828705 0.199594 0.0
-0.0866067 0.193851 0.0
-0.0898697 0.187197 0.0
-0.0926261 0.179784 0.0
-0.0948423 0.171754 0.0
-0.0964908 0.16324 0.0
-0.0975544 0.154368 0.0
-0.098028 0.145255 0.0
-0.0979186 0.136008 0.0
-0.0972447 0.126723 0.0
-0.0960345 0.117486 0.0
-0.0943242 0.108371 0.0
-0.0921553 0.0994434 0.0
-0.0895725 0.0907555 0.0
-0.0866212 0.082351 0.0
-0.0833459 0.0742644 0.0
-0.0797879 0.0665219 0.0
-0.075984 0.0591429 0.0
-0.0719658 0.0521412 0.0
-0.0677584 0.0455263 0.0
-0.0633801 0.0393044 0.0
-0.0588429 0.0334805 0.0
-0.0541519 0.0280591 0.0
-0.0493061 0.0230459 0.0
-0.0442994 0.0184494 0.0
-0.0391207 0.0142823 0.0
-0.0337557 0.0105631 0.0
-0.0281871 0.00731831 0.0
-0.0223953 0.00458372 0.0
-0.0163594 0.00241506 0.0
-0.0100561 0.000835744 0.0
-0.00346075 9.51833e-05 0.0
0.88223 0.00140845 0.0
0.660409 0.0137032 0.0
0.474091 0.0369333 0.0
0.327915 0.062969 0.0
0.218156 0.0894637 0.0
0.137857 0.114083 0.0
0.079921 0.135886 0.0
0.0382745 0.154469 0.0
0.00816604 0.169802 0.0
-0.0139131 0.182006 0.0
-0.0304122 0.19122 0.0
-0.0432051 0.197777 0.0
-0.0535491 0.201954 0.0
-0.0622509 0.204006 0.0
-0.0698096 0.204165 0.0
-0.0765162 0.202641 0.0
-0.0825246 0.19963 0.0
-0.0879012 0.195314 0.0
-0.0926601 0.189867 0.0
-0.0967871 0.183454 0.0
-0.100257 0.176234 0.0
-0.103043 0.168359 0.0
-0.105127 0.15997 0.0
-0.1065 0.151204 0.0
-0.107167 0.142185 0.0
-0.107146 0.133028 0.0
-0.106467 0.123836 0.0
-0.105168 0.114698 0.0
-0.103299 0.105693 0.0
-0.100911 0.0968883 0.0
-0.0980601 0.088337 0.0
-0.0948024 0.0800827 0.0
-0.0911908 0.0721586 0.0
-0.0872747 0.0645891 0.0
-0.0830974 0.0573911 0.0
-0.0786957 0.0505753 0.0
-0.0740983 0.0441479 0.0
-0.0693261 0.0381119 0.0
-0.0643918 0.0324687 0.0
-0.0592999 0.0272196 0.0
-0.0540475 0.0223675 0.0
-0.0486245 0.0179181 0.0
-0.0430148 0.0138822 0.0
-0.0371966 0.0102766 0.0
-0.0311433 0.00712701 0.0
-0.0248241 0.00446861 0.0
-0.0182038 0.00235697 0.0
-0.0112422 0.000816589 0.0
-0.00389593 9.32161e-05 0.0
0.888995 0.00123522 0.0
0.677784 0.0122591 0.0
0.497463 0.0334164 0.0
0.353374 0.0575772 0.0
0.243057 0.0825672 0.0
0.160684 0.106159 0.0
0.0999355 0.127367 0.0
0.0552173 0.145713 0.0
0.0220393 0.161073 0.0
-0.00299537 0.173525 0.0
-0.022267 0.183147 0.0
-0.037565 0.190156 0.0
-0.0501637 0.194806 0.0
-0.0608895 0.19732 0.0
-0.0702591 0.197909 0.0
-0.078578 0.196772 0.0
-0.0860112 0.1941 0.0
-0.0926338 0.190073 0.0
-0.098467 0.184868 0.0
-0.103503 0.178656 0.0
-0.107723 0.171602 0.0
-0.111107 0.163866 0.0
-0.113646 0.155599 0.0
-0.11534 0.146944 0.0
-0.116204 0.138034 0.0
-0.116269 0.12899 0.0
-0.115576 0.11992 0.0
-0.114177 0.110918 0.0
-0.112134 0.102066 0.0
-0.109512 0.0934298 0.0
-0.106378 0.0850651 0.0
-0.1028 0.077014 0.0
-0.0988397 0.0693078 0.0
-0.0945555 0.0619684 0.0
-0.0899979 0.0550096 0.0
-0.085209 0.0484385 0.0
-0.0802218 0.0422575 0.0
-0.0750594 0.0364658 0.0
-0.0697352 0.031061 0.0
-0.0642531 0.0260407 0.0
-0.0586075 0.0214044 0.0
-0.0527846 0.0171546 0.0
-0.0467622 0.0132994 0.0
-0.0405108 0.00985334 0.0
-0.0339943 0.0068401 0.0
-0.0271698 0.00429346 0.0
-0.0199879 0.00226742 0.0
-0.0123913 0.000786787 0.0
-0.00431833 9.01586e-05 0.0
0.895063 0.00109327 0.0
0.693557 0.0110375 0.0
0.519002 0.0303823 0.0
0.377199 0.0528347 0.0
0.266705 0.0763901 0.0
0.182667 0.0989331 0.0
0.119473 0.119459 0.0
0.07198 0.137431 0.0
0.0359646 0.152662 0.0
0.00816999 0.165157 0.0
-0.0137811 0.175008 0.0
-0.031543 0.182303 0.0
-0.0463857 0.187273 0.0
-0.0591484 0.190109 0.0
-0.0703571 0.191007 0.0
-0.0803254 0.190152 0.0
-0.0892243 0.187728 0.0
-0.0971335 0.183916 0.0
-0.104078 0.178894 0.0
-0.110054 0.172838 0.0
-0.115048 0.165918 0.0
-0.119047 0.158302 0.0
-0.122049 0.150149 0.0
-0.124065 0.141609 0.0
-0.125122 0.132822 0.0
-0.125261 0.123913 0.0
-0.124539 0.114995 0.0