# vtk DataFile Version 3.0
Malha 2D com triângulos e temperatura
ASCII
DATASET UNSTRUCTURED_GRID

POINTS 2500 double
0 0 0
1 0 0
1 1 0
0 1 0
0.0204082 0 0
0.0408163 0 0
0.0612245 0 0
0.0816327 0 0
0.102041 0 0
0.122449 0 0
0.142857 0 0
0.163265 0 0
0.183673 0 0
0.204082 0 0
0.22449 0 0
0.244898 0 0
0.265306 0 0
0.285714 0 0
0.306122 0 0
0.326531 0 0
0.346939 0 0
0.367347 0 0
0.387755 0 0
0.408163 0 0
0.428571 0 0
0.44898 0 0
0.469388 0 0
0.489796 0 0
0.510204 0 0
0.530612 0 0
0.55102 0 0
0.571429 0 0
0.591837 0 0
0.612245 0 0
0.632653 0 0
0.653061 0 0
0.673469 0 0
0.693878 0 0
0.714286 0 0
0.734694 0 0
0.755102 0 0
0.77551 0 0
0.795918 0 0
0.816327 0 0
0.836735 0 0
0.857143 0 0
0.877551 0 0
0.897959 0 0
0.918367 0 0
0.938776 0 0
0.959184 0 0
0.979592 0 0
1 0.0204082 0
1 0.0408163 0
1 0.0612245 0
1 0.0816327 0
1 0.102041 0
1 0.122449 0
1 0.142857 0
1 0.163265 0
1 0.183673 0
1 0.204082 0
1 0.22449 0
1 0.244898 0
1 0.265306 0
1 0.285714 0
1 0.306122 0
1 0.326531 0
1 0.346939 0
1 0.367347 0
1 0.387755 0
1 0.408163 0
1 0.428571 0
1 0.44898 0
1 0.469388 0
1 0.489796 0
1 0.510204 0
1 0.530612 0
1 0.55102 0
1 0.571429 0
1 0.591837 0
1 0.612245 0
1 0.632653 0
1 0.653061 0
1 0.673469 0
1 0.693878 0
1 0.714286 0
1 0.734694 0
1 0.755102 0
1 0.77551 0
1 0.795918 0
1 0.816327 0
1 0.836735 0
1 0.857143 0
1 0.877551 0
1 0.897959 0
1 0.918367 0
1 0.938776 0
1 0.959184 0
1 0.979592 0
0.979592 1 0
0.959184 1 0
0.938776 1 0
0.918367 1 0
0.897959 1 0
0.877551 1 0
0.857143 1 0
0.836735 1 0
0.816327 1 0
0.795918 1 0
0.77551 1 0
0.755102 1 0
0.734694 1 0
0.714286 1 0
0.693878 1 0
0.673469 1 0
0.653061 1 0
0.632653 1 0
0.612245 1 0
0.591837 1 0
0.571429 1 0
0.55102 1 0
0.530612 1 0
0.510204 1 0
0.489796 1 0
0.469388 1 0
0.44898 1 0
0.428571 1 0
0.408163 1 0
0.387755 1 0
0.367347 1 0
0.346939 1 0
0.326531 1 0
0.306122 1 0
0.285714 1 0
0.265306 1 0
0.244898 1 0
0.22449 1 0
0.204082 1 0
0.183673 1 0
0.163265 1 0
0.142857 1 0
0.122449 1 0
0.102041 1 0
0.0816327 1 0
0.0612245 1 0
0.0408163 1 0
0.0204082 1 0
0 0.979592 0
0 0.959184 0
0 0.938776 0
0 0.918367 0
0 0.897959 0
0 0.877551 0
0 0.857143 0
0 0.836735 0
0 0.816327 0
0 0.795918 0
0 0.77551 0
0 0.755102 0
0 0.734694 0
0 0.714286 0
0 0.693878 0
0 0.673469 0
0 0.653061 0
0 0.632653 0
0 0.612245 0
0 0.591837 0
0 0.571429 0
0 0.55102 0
0 0.530612 0
0 0.510204 0
0 0.489796 0
0 0.469388 0
0 0.44898 0
0 0.428571 0
0 0.408163 0
0 0.387755 0
0 0.367347 0
0 0.346939 0
0 0.326531 0
0 0.306122 0
0 0.285714 0
0 0.265306 0
0 0.244898 0
0 0.22449 0
0 0.204082 0
0 0.183673 0
0 0.163265 0
0 0.142857 0
0 0.122449 0
0 0.102041 0
0 0.0816327 0
0 0.0612245 0
0 0.0408163 0
0 0.0204082 0
0.0204082 0.979592 0
0.0204082 0.959184 0
0.0204082 0.938776 0
0.0204082 0.918367 0
0.0204082 0.897959 0
0.0204082 0.877551 0
0.0204082 0.857143 0
0.0204082 0.836735 0
0.0204082 0.816327 0
0.0204082 0.795918 0
0.0204082 0.77551 0
0.0204082 0.755102 0
0.0204082 0.734694 0
0.0204082 0.714286 0
0.0204082 0.693878 0
0.0204082 0.673469 0
0.0204082 0.653061 0
0.0204082 0.632653 0
0.0204082 0.612245 0
0.0204082 0.591837 0
0.0204082 0.571429 0
0.0204082 0.55102 0
0.0204082 0.530612 0
0.0204082 0.510204 0
0.0204082 0.489796 0
0.0204082 0.469388 0
0.0204082 0.44898 0
0.0204082 0.428571 0
0.0204082 0.408163 0
0.0204082 0.387755 0
0.0204082 0.367347 0
0.0204082 0.346939 0
0.0204082 0.326531 0
0.0204082 0.306122 0
0.0204082 0.285714 0
0.0204082 0.265306 0
0.0204082 0.244898 0
0.0204082 0.22449 0
0.0204082 0.204082 0
0.0204082 0.183673 0
0.0204082 0.163265 0
0.0204082 0.142857 0
0.0204082 0.122449 0
0.0204082 0.102041 0
0.0204082 0.0816327 0
0.0204082 0.0612245 0
0.0204082 0.0408163 0
0.0204082 0.0204082 0
0.0408163 0.979592 0
0.0408163 0.959184 0
0.0408163 0.938776 0
0.0408163 0.918367 0
0.0408163 0.897959 0
0.0408163 0.877551 0
0.0408163 0.857143 0
0.0408163 0.836735 0
0.0408163 0.816327 0
0.0408163 0.795918 0
0.0408163 0.77551 0
0.0408163 0.755102 0
0.0408163 0.734694 0
0.0408163 0.714286 0
0.0408163 0.693878 0
0.0408163 0.673469 0
0.0408163 0.653061 0
0.0408163 0.632653 0
0.0408163 0.612245 0
0.0408163 0.591837 0
0.0408163 0.571429 0
0.0408163 0.55102 0
0.0408163 0.530612 0
0.0408163 0.510204 0
0.0408163 0.489796 0
0.0408163 0.469388 0
0.0408163 0.44898 0
0.0408163 0.428571 0
0.0408163 0.408163 0
0.0408163 0.387755 0
0.0408163 0.367347 0
0.0408163 0.346939 0
0.0408163 0.326531 0
0.0408163 0.306122 0
0.0408163 0.285714 0
0.0408163 0.265306 0
0.0408163 0.244898 0
0.0408163 0.22449 0
0.0408163 0.204082 0
0.0408163 0.183673 0
0.0408163 0.163265 0
0.0408163 0.142857 0
0.0408163 0.122449 0
0.0408163 0.102041 0
0.0408163 0.0816327 0
0.0408163 0.0612245 0
0.0408163 0.0408163 0
0.0408163 0.0204082 0
0.0612245 0.979592 0
0.0612245 0.959184 0
0.0612245 0.938776 0
0.0612245 0.918367 0
0.0612245 0.897959 0
0.0612245 0.877551 0
0.0612245 0.857143 0
0.0612245 0.836735 0
0.0612245 0.816327 0
0.0612245 0.795918 0
0.0612245 0.77551 0
0.0612245 0.755102 0
0.0612245 0.734694 0
0.0612245 0.714286 0
0.0612245 0.693878 0
0.0612245 0.673469 0
0.0612245 0.653061 0
0.0612245 0.632653 0
0.0612245 0.612245 0
0.0612245 0.591837 0
0.0612245 0.571429 0
0.0612245 0.55102 0
0.0612245 0.530612 0
0.0612245 0.510204 0
0.0612245 0.489796 0
0.0612245 0.469388 0
0.0612245 0.44898 0
0.0612245 0.428571 0
0.0612245 0.408163 0
0.0612245 0.387755 0
0.0612245 0.367347 0
0.0612245 0.346939 0
0.0612245 0.326531 0
0.0612245 0.306122 0
0.0612245 0.285714 0
0.0612245 0.265306 0
0.0612245 0.244898 0
0.0612245 0.22449 0
0.0612245 0.204082 0
0.0612245 0.183673 0
0.0612245 0.163265 0
0.0612245 0.142857 0
0.0612245 0.122449 0
0.0612245 0.102041 0
0.0612245 0.0816327 0
0.0612245 0.0612245 0
0.0612245 0.0408163 0
0.0612245 0.0204082 0
0.0816327 0.979592 0
0.0816327 0.959184 0
0.0816327 0.938776 0
0.0816327 0.918367 0
0.0816327 0.897959 0
0.0816327 0.877551 0
0.0816327 0.857143 0
0.0816327 0.836735 0
0.0816327 0.816327 0
0.0816327 0.795918 0
0.0816327 0.77551 0
0.0816327 0.755102 0
0.0816327 0.734694 0
0.0816327 0.714286 0
0.0816327 0.693878 0
0.0816327 0.673469 0
0.0816327 0.653061 0
0.0816327 0.632653 0
0.0816327 0.612245 0
0.0816327 0.591837 0
0.0816327 0.571429 0
0.0816327 0.55102 0
0.0816327 0.530612 0
0.0816327 0.510204 0
0.0816327 0.489796 0
0.0816327 0.469388 0
0.0816327 0.44898 0
0.0816327 0.428571 0
0.0816327 0.408163 0
0.0816327 0.387755 0
0.0816327 0.367347 0
0.0816327 0.346939 0
0.0816327 0.326531 0
0.0816327 0.306122 0
0.0816327 0.285714 0
0.0816327 0.265306 0
0.0816327 0.244898 0
0.0816327 0.22449 0
0.0816327 0.204082 0
0.0816327 0.183673 0
0.0816327 0.163265 0
0.0816327 0.142857 0
0.0816327 0.122449 0
0.0816327 0.102041 0
0.0816327 0.0816327 0
0.0816327 0.0612245 0
0.0816327 0.0408163 0
0.0816327 0.0204082 0
0.102041 0.979592 0
0.102041 0.959184 0
0.102041 0.938776 0
0.102041 0.918367 0
0.102041 0.897959 0
0.102041 0.877551 0
0.102041 0.857143 0
0.102041 0.836735 0
0.102041 0.816327 0
0.102041 0.795918 0
0.102041 0.77551 0
0.102041 0.755102 0
0.102041 0.734694 0
0.102041 0.714286 0
0.102041 0.693878 0
0.102041 0.673469 0
0.102041 0.653061 0
0.102041 0.632653 0
0.102041 0.612245 0
0.102041 0.591837 0
0.102041 0.571429 0
0.102041 0.55102 0
0.102041 0.530612 0
0.102041 0.510204 0
0.102041 0.489796 0
0.102041 0.469388 0
0.102041 0.44898 0
0.102041 0.428571 0
0.102041 0.408163 0
0.102041 0.387755 0
0.102041 0.367347 0
0.102041 0.346939 0
0.102041 0.326531 0
0.102041 0.306122 0
0.102041 0.285714 0
0.102041 0.265306 0
0.102041 0.244898 0
0.102041 0.22449 0
0.102041 0.204082 0
0.102041 0.183673 0
0.102041 0.163265 0
0.102041 0.142857 0
0.102041 0.122449 0
0.102041 0.102041 0
0.102041 0.0816327 0
0.102041 0.0612245 0
0.102041 0.0408163 0
0.102041 0.0204082 0
0.122449 0.979592 0
0.122449 0.959184 0
0.122449 0.938776 0
0.122449 0.918367 0
0.122449 0.897959 0
0.122449 0.877551 0
0.122449 0.857143 0
0.122449 0.836735 0
0.122449 0.816327 0
0.122449 0.795918 0
0.122449 0.77551 0
0.122449 0.755102 0
0.122449 0.734694 0
0.122449 0.714286 0
0.122449 0.693878 0
0.122449 0.673469 0
0.122449 0.653061 0
0.122449 0.632653 0
0.122449 0.612245 0
0.122449 0.591837 0
0.122449 0.571429 0
0.122449 0.55102 0
0.122449 0.530612 0
0.122449 0.510204 0
0.122449 0.489796 0
0.122449 0.469388 0
0.122449 0.44898 0
0.122449 0.428571 0
0.122449 0.408163 0
0.122449 0.387755 0
0.122449 0.367347 0
0.122449 0.346939 0
0.122449 0.326531 0
0.122449 0.306122 0
0.122449 0.285714 0
0.122449 0.265306 0
0.122449 0.244898 0
0.122449 0.22449 0
0.122449 0.204082 0
0.122449 0.183673 0
0.122449 0.163265 0
0.122449 0.142857 0
0.122449 0.122449 0
0.122449 0.102041 0
0.122449 0.0816327 0
0.122449 0.0612245 0
0.122449 0.0408163 0
0.122449 0.0204082 0
0.142857 0.979592 0
0.142857 0.959184 0
0.142857 0.938776 0
0.142857 0.918367 0
0.142857 0.897959 0
0.142857 0.877551 0
0.142857 0.857143 0
0.142857 0.836735 0
0.142857 0.816327 0
0.142857 0.795918 0
0.142857 0.77551 0
0.142857 0.755102 0
0.142857 0.734694 0
0.142857 0.714286 0
0.142857 0.693878 0
0.142857 0.673469 0
0.142857 0.653061 0
0.142857 0.632653 0
0.142857 0.612245 0
0.142857 0.591837 0
0.142857 0.571429 0
0.142857 0.55102 0
0.142857 0.530612 0
0.142857 0.510204 0
0.142857 0.489796 0
0.142857 0.469388 0
0.142857 0.44898 0
0.142857 0.428571 0
0.142857 0.408163 0
0.142857 0.387755 0
0.142857 0.367347 0
0.142857 0.346939 0
0.142857 0.326531 0
0.142857 0.306122 0
0.142857 0.285714 0
0.142857 0.265306 0
0.142857 0.244898 0
0.142857 0.22449 0
0.142857 0.204082 0
0.142857 0.183673 0
0.142857 0.163265 0
0.142857 0.142857 0
0.142857 0.122449 0
0.142857 0.102041 0
0.142857 0.0816327 0
0.142857 0.0612245 0
0.142857 0.0408163 0
0.142857 0.0204082 0
0.163265 0.979592 0
0.163265 0.959184 0
0.163265 0.938776 0
0.163265 0.918367 0
0.163265 0.897959 0
0.163265 0.877551 0
0.163265 0.857143 0
0.163265 0.836735 0
0.163265 0.816327 0
0.163265 0.795918 0
0.163265 0.77551 0
0.163265 0.755102 0
0.163265 0.734694 0
0.163265 0.714286 0
0.163265 0.693878 0
0.163265 0.673469 0
0.163265 0.653061 0
0.163265 0.632653 0
0.163265 0.612245 0
0.163265 0.591837 0
0.163265 0.571429 0
0.163265 0.55102 0
[...]
CELL_DATA 2401
VECTORS velocity double
0.461118 0.316621 0.0
0.327101 0.567955 0.0
0.332893 0.450236 0.0
0.343081 0.335563 0.0
0.34864 0.263505 0.0
0.35156 0.215675 0.0
0.353068 0.181141 0.0
0.353832 0.155108 0.0
0.354222 0.134999 0.0
0.354432 0.119177 0.0
0.354553 0.106575 0.0
0.354625 0.0964847 0.0
0.354666 0.0884101 0.0
0.354685 0.0819882 0.0
0.354687 0.0769434 0.0
0.354675 0.0730609 0.0
0.354652 0.0701691 0.0
0.354619 0.0681288 0.0
0.35458 0.0668258 0.0
0.354544 0.0661685 0.0
0.354548 0.0660732 0.0
0.354587 0.0664528 0.0
0.354632 0.0672447 0.0
0.354671 0.0684166 0.0
0.354699 0.0699423 0.0
0.354716 0.0717988 0.0
0.354723 0.0739698 0.0
0.354724 0.0764482 0.0
0.354721 0.0792386 0.0
0.354717 0.0823593 0.0
0.354715 0.0858421 0.0
0.354717 0.0897323 0.0
0.354726 0.0940905 0.0
0.35475 0.0990021 0.0
0.354796 0.104588 0.0
0.354869 0.111007 0.0
0.354982 0.118454 0.0
0.35517 0.127211 0.0
0.355474 0.137689 0.0
0.35596 0.150483 0.0
0.35674 0.166354 0.0
0.358168 0.186567 0.0
0.36066 0.213351 0.0
0.365092 0.249379 0.0
0.373923 0.299834 0.0
0.389155 0.376953 0.0
0.413722 0.446595 0.0
0.434193 0.72941 0.0
0.355907 0.513111 0.0
0.642676 0.409391 0.0
0.547115 0.799871 0.0
0.589422 0.763962 0.0
0.630163 0.667078 0.0
0.656094 0.58371 0.0
0.673054 0.513592 0.0
0.684528 0.454704 0.0
0.692538 0.405381 0.0
0.698315 0.36417 0.0
0.70265 0.329722 0.0
0.706017 0.300937 0.0
0.708709 0.276937 0.0
0.710906 0.257024 0.0
0.712729 0.240628 0.0
0.714259 0.227284 0.0
0.715555 0.21661 0.0
0.716662 0.208281 0.0
0.717611 0.202026 0.0
0.718433 0.197609 0.0
0.719145 0.194835 0.0
0.719729 0.19351 0.0
0.720227 0.193548 0.0
0.720677 0.194797 0.0
0.721086 0.197153 0.0
0.721461 0.200528 0.0
0.721809 0.204857 0.0
0.722141 0.210092 0.0
0.722472 0.216212 0.0
0.722816 0.223222 0.0
0.72319 0.231157 0.0
0.723608 0.240086 0.0
0.724089 0.250108 0.0
0.724656 0.261356 0.0
0.725353 0.274021 0.0
0.72622 0.288369 0.0
0.727305 0.304742 0.0
0.728683 0.323552 0.0
0.730519 0.345368 0.0
0.732994 0.37098 0.0
0.736334 0.401452 0.0
0.740909 0.437938 0.0
0.747819 0.482311 0.0
0.758082 0.536806 0.0
0.773356 0.602276 0.0
0.796635 0.682202 0.0
0.826268 0.774901 0.0
0.855607 0.822787 0.0
0.847317 1.03603 0.0
0.641258 0.674054 0.0
0.708721 0.394469 0.0
0.533917 0.803139 0.0
0.524429 0.829148 0.0
0.553923 0.790224 0.0
0.584972 0.739596 0.0
0.611008 0.682877 0.0
0.631116 0.627652 0.0
0.646729 0.576747 0.0
0.659064 0.531345 0.0
0.669034 0.491444 0.0
0.677243 0.456755 0.0
0.684117 0.426874 0.0
0.689945 0.40138 0.0
0.694943 0.379862 0.0
0.699272 0.361945 0.0
0.70305 0.347292 0.0
0.706367 0.335602 0.0
0.709296 0.326606 0.0
0.711897 0.320061 0.0
0.714219 0.315762 0.0
0.716299 0.313498 0.0
0.718167 0.31318 0.0
0.719871 0.314671 0.0
0.721445 0.317835 0.0
0.722917 0.322553 0.0
0.724318 0.328734 0.0
0.725686 0.336315 0.0
0.727062 0.345264 0.0
0.728494 0.355585 0.0
0.730035 0.367324 0.0
0.731734 0.380564 0.0
0.733649 0.395429 0.0
0.735855 0.412074 0.0
0.738489 0.430729 0.0
0.741662 0.451704 0.0
0.745506 0.475384 0.0
0.750213 0.502182 0.0
0.756206 0.532698 0.0
0.763923 0.567617 0.0
0.77387 0.607764 0.0
0.786854 0.653555 0.0
0.80432 0.706531 0.0
0.826657 0.764934 0.0
0.854332 0.826241 0.0
0.885106 0.887697 0.0
0.90956 0.940298 0.0
0.905903 0.925576 0.0
0.820586 1.05313 0.0
0.496592 0.648901 0.0
0.773733 0.375534 0.0
0.559631 0.777683 0.0
0.496213 0.822472 0.0
0.496265 0.816608 0.0
0.516319 0.797219 0.0
0.540742 0.764482 0.0
0.564003 0.724604 0.0
0.584643 0.682774 0.0
0.602234 0.642771 0.0
0.617309 0.605785 0.0
0.630335 0.572434 0.0
0.641675 0.542856 0.0
0.651587 0.51702 0.0
0.660306 0.494775 0.0
0.668022 0.475943 0.0
0.674883 0.46033 0.0
0.681009 0.447742 0.0
0.686501 0.437986 0.0
0.691446 0.430882 0.0
0.695921 0.426271 0.0
0.700012 0.423989 0.0
0.703791 0.42398 0.0
0.707276 0.426106 0.0
0.710501 0.430242 0.0
0.713521 0.436277 0.0
0.716399 0.444124 0.0
0.719204 0.453721 0.0
0.722011 0.465036 0.0
0.724916 0.478075 0.0
0.728007 0.492885 0.0
0.731368 0.509544 0.0
0.735099 0.528171 0.0
0.739318 0.548889 0.0
0.74427 0.571934 0.0
0.750132 0.597536 0.0
0.757111 0.62599 0.0
0.765526 0.657523 0.0
0.775912 0.69271 0.0
0.788662 0.731374 0.0
0.804246 0.773354 0.0
0.82323 0.818057 0.0
0.845465 0.864399 0.0
0.870281 0.909906 0.0
0.895316 0.949446 0.0
0.91412 0.978376 0.0
0.91199 0.987983 0.0
0.858007 0.921775 0.0
0.702278 1.00712 0.0
0.35543 0.611501 0.0
0.823114 0.363719 0.0
0.608309 0.756616 0.0
0.512178 0.801413 0.0
0.483846 0.809016 0.0
0.486694 0.80927 0.0
0.502483 0.795831 0.0
0.52272 0.772375 0.0
0.543755 0.74384 0.0
0.563862 0.713547 0.0
0.582361 0.683602 0.0
0.599012 0.655543 0.0
0.613987 0.62993 0.0
0.627445 0.607107 0.0
0.639575 0.587151 0.0
0.650534 0.570075 0.0
0.660459 0.555839 0.0
0.669467 0.544373 0.0
0.677664 0.535584 0.0
0.685154 0.529378 0.0
0.692029 0.525657 0.0
0.698429 0.524328 0.0
0.704403 0.525396 0.0
0.709953 0.528696 0.0
0.715127 0.534141 0.0
0.720004 0.541644 0.0
0.724672 0.551137 0.0
0.729229 0.562576 0.0
0.733778 0.575932 0.0
0.738459 0.591214 0.0
0.743405 0.608455 0.0
0.748724 0.627695 0.0
0.75456 0.64902 0.0
0.761091 0.672473 0.0
0.768597 0.698356 0.0
0.777215 0.726454 0.0
0.787212 0.756816 0.0
0.798913 0.789372 0.0
0.812528 0.823937 0.0
0.82826 0.860015 0.0
0.846227 0.89675 0.0
0.86618 0.9326 0.0
0.886854 0.965282 0.0
0.905845 0.991614 0.0
0.918389 1.00606 0.0
0.915492 1.00465 0.0
0.881169 0.983024 0.0
0.784343 0.884346 0.0
0.595873 0.961987 0.0
0.268077 0.587567 0.0
0.855224 0.357061 0.0
0.652984 0.742652 0.0
0.540924 0.781775 0.0
0.491606 0.792692 0.0
0.477995 0.803467 0.0
0.483103 0.803235 0.0
0.497435 0.792988 0.0
0.515905 0.776548 0.0
0.535716 0.756833 0.0
0.555417 0.735831 0.0
0.574219 0.714995 0.0
0.591869 0.695162 0.0
0.608079 0.677141 0.0
0.623 0.661199 0.0
0.636734 0.647512 0.0
0.649383 0.636164 0.0
0.661045 0.627193 0.0
0.671815 0.620602 0.0
0.681801 0.616376 0.0
0.6911 0.614465 0.0
0.699875 0.61492 0.0
0.708121 0.617631 0.0
0.715841 0.622536 0.0
0.723102 0.629565 0.0
0.729999 0.638659 0.0
0.736643 0.649771 0.0
0.743155 0.662878 0.0
0.749668 0.677945 0.0
0.756353 0.695017 0.0
0.763324 0.714028 0.0
0.770714 0.734899 0.0
0.778709 0.757648 0.0
0.787499 0.782195 0.0
0.797208 0.80848 0.0
0.808008 0.836321 0.0
0.8201 0.865465 0.0
0.833625 0.895465 0.0
0.848539 0.925659 0.0
0.86464 0.955095 0.0
0.881451 0.982414 0.0
0.897906 1.00566 0.0
0.911846 1.02224 0.0
0.919639 1.02906 0.0
0.915225 1.02132 0.0
0.888872 0.996582 0.0
0.826339 0.956412 0.0
0.70103 0.840724 0.0
0.5079 0.927804 0.0
0.212888 0.573827 0.0
0.876012 0.353493 0.0
0.688609 0.733969 0.0
0.570625 0.766754 0.0
0.507694 0.776742 0.0
0.480938 0.792509 0.0
0.476048 0.800693 0.0
0.483759 0.8002 0.0
0.498372 0.793646 0.0
0.516423 0.783303 0.0
0.535849 0.77086 0.0
0.555403 0.757623 0.0
0.574454 0.744504 0.0
0.592571 0.732191 0.0
0.609627 0.721166 0.0
0.625615 0.711748 0.0
0.640582 0.704134 0.0
0.654593 0.698448 0.0
0.667689 0.694788 0.0
0.679986 0.693209 0.0
0.691602 0.693697 0.0
0.702645 0.696421 0.0
0.713102 0.701162 0.0
0.722952 0.70792 0.0
0.732287 0.716658 0.0
0.741215 0.72734 0.0
0.749858 0.739928 0.0
0.75835 0.754386 0.0
0.766833 0.770657 0.0
0.775432 0.788678 0.0
0.784268 0.80837 0.0
0.793496 0.829623 0.0
0.803269 0.852304 0.0
0.81372 0.876196 0.0
0.824909 0.901027 0.0
0.836899 0.92643 0.0
0.849719 0.951903 0.0
0.863276 0.976738 0.0
0.877251 0.999994 0.0
0.891047 1.02045 0.0
0.90365 1.03655 0.0
0.913363 1.04632 0.0
0.917429 1.04737 0.0
0.911663 1.03727 0.0
0.889801 1.01247 0.0
0.842855 0.97213 0.0
0.760357 0.923643 0.0
0.623007 0.802763 0.0
0.436979 0.903047 0.0
0.175559 0.56585 0.0
0.890196 0.351709 0.0
0.716526 0.728747 0.0
0.598148 0.756083 0.0
0.527287 0.763902 0.0
0.491047 0.781733 0.0
0.477916 0.795123 0.0
0.479464 0.801602 0.0
0.489943 0.802779 0.0
0.505559 0.800271 0.0
0.523864 0.795388 0.0
0.543296 0.789205 0.0
0.562924 0.782556 0.0
0.582148 0.776083 0.0
0.600661 0.770283 0.0
0.618336 0.765523 0.0
0.635138 0.762067 0.0
0.651084 0.760098 0.0
0.666202 0.759761 0.0
0.680567 0.761159 0.0
0.694314 0.764339 0.0
0.707413 0.769474 0.0
0.719841 0.7763 0.0
0.731641 0.784874 0.0
0.7429 0.795177 0.0
0.753719 0.807182 0.0
0.764213 0.82085 0.0
0.774504 0.836121 0.0
0.784716 0.852904 0.0
0.794955 0.87108 0.0
0.80532 0.890499 0.0
0.815922 0.91097 0.0
0.826851 0.93224 0.0
0.838161 0.953972 0.0
0.849831 0.975741 0.0
0.861785 0.997015 0.0
0.873856 1.01712 0.0
0.885716 1.0352 0.0
0.896783 1.05019 0.0
0.906142 1.06082 0.0
0.912403 1.06558 0.0
0.913506 1.06273 0.0
0.906454 1.05041 0.0
0.887077 1.02703 0.0
0.849679 0.990441 0.0
0.786757 0.940856 0.0
0.691769 0.891101 0.0
0.554658 0.772544 0.0
0.380534 0.885376 0.0
0.149001 0.561064 0.0
0.90048 0.350873 0.0
0.73881 0.725652 0.0
0.622868 0.748848 0.0
0.548051 0.754517 0.0
0.505507 0.773031 0.0
0.486116 0.789656 0.0
0.482472 0.801098 0.0
0.489098 0.80822 0.0
0.502127 0.812084 0.0
0.518912 0.813623 0.0
0.537686 0.813667 0.0
0.557309 0.812912 0.0
0.577048 0.811926 0.0
0.596466 0.81117 0.0
0.61533 0.811006 0.0
0.633528 0.811714 0.0
0.651021 0.813508 0.0
0.667808 0.816559 0.0
0.683935 0.820962 0.0
0.699482 0.82691 0.0
0.714309 0.834246 0.0
0.728431 0.842984 0.0
0.741918 0.853145 0.0
0.754844 0.864714 0.0
0.767293 0.877659 0.0
0.779355 0.891924 0.0
0.791124 0.907418 0.0
0.802691 0.924011 0.0
0.814129 0.94153 0.0
0.825498 0.959757 0.0
0.836841 0.978419 0.0
0.848171 0.997169 0.0
0.859445 1.01558 0.0
0.870541 1.03312 0.0
0.881247 1.04916 0.0
0.89122 1.06294 0.0
0.899937 1.07357 0.0
0.906611 1.07999 0.0
0.910114 1.08104 0.0
0.908866 1.07542 0.0
0.900697 1.0618 0.0
0.882694 1.03892 0.0
0.851117 1.00611 0.0
0.801325 0.962547 0.0
0.727744 0.908673 0.0
0.628893 0.863119 0.0
0.496567 0.749239 0.0
0.335576 0.872727 0.0
0.129338 0.558097 0.0
0.908433 0.350508 0.0
0.75729 0.72382 0.0
0.645096 0.744123 0.0
0.568955 0.748092 0.0
0.522596 0.766755 0.0
0.498759 0.785472 0.0
0.491034 0.800497 0.0
0.494352 0.812183 0.0
0.504939 0.821162 0.0
0.52009 0.828039 0.0
0.537925 0.833412 0.0
0.55718 0.837828 0.0
0.577019 0.84176 0.0
0.596912 0.845608 0.0
0.616544 0.8497 0.0
0.635737 0.854305 0.0
0.654399 0.859635 0.0
0.67249 0.86585 0.0
0.690039 0.873049 0.0
0.706964 0.881425 0.0
0.723144 0.890725 0.0
0.738627 0.901071 0.0
0.753471 0.912471 0.0
0.767728 0.924908 0.0
0.781451 0.938336 0.0
0.794697 0.952672 0.0
0.807521 0.967793 0.0
0.819968 0.98353 0.0
0.832066 0.999662 0.0
0.843817 1.01592 0.0
0.855195 1.03195 0.0
0.866128 1.04737 0.0
0.876478 1.06167 0.0
0.886022 1.07429 0.0
0.894428 1.08456 0.0
0.90122 1.09172 0.0
0.905736 1.09492 0.0
0.907065 1.09323 0.0
0.903987 1.08567 0.0
0.894895 1.07125 0.0
0.877729 1.04913 0.0
0.84991 1.01864 0.0
0.808392 0.979922 0.0
0.749825 0.933149 0.0
0.670546 0.878811 0.0
0.572688 0.839888 0.0
0.447521 0.731356 0.0
0.299375 0.863535 0.0
0.114256 0.556199 0.0
0.914997 0.350384 0.0
0.773232 0.722757 0.0
0.665451 0.741134 0.0
0.589692 0.743943 0.0
0.54136 0.762632 0.0
0.514585 0.782796 0.0
0.503824 0.80047 0.0
0.504458 0.815676 0.0
0.512893 0.82873 0.0
0.52646 0.839975 0.0
0.543244 0.849809 0.0
0.561914 0.858633 0.0
0.581566 0.866821 0.0
0.601608 0.874701 0.0
0.621661 0.882555 0.0
0.641494 0.890617 0.0
0.660967 0.89908 0.0
0.680005 0.908066 0.0
0.698566 0.917752 0.0
0.716436 0.928021 0.0
0.733585 0.938897 0.0
0.75006 0.950445 0.0
0.765886 0.962665 0.0
0.781082 0.975524 0.0
0.795663 0.988954 0.0
0.809645 1.00285 0.0
0.823037 1.01705 0.0
0.835832 1.03135 0.0
0.848003 1.04551 0.0
0.859493 1.05919 0.0
0.870203 1.07205 0.0
0.879985 1.08363 0.0
0.888617 1.09342 0.0
0.895789 1.10087 0.0
0.901079 1.10532 0.0
0.903925 1.10608 0.0
0.903592 1.1024 0.0
0.899128 1.09353 0.0
0.889329 1.07873 0.0
0.872701 1.05739 0.0
0.847444 1.02908 0.0
0.811454 0.993693 0.0
0.762436 0.951939 0.0
0.698188 0.904796 0.0
0.618332 0.853261 0.0
0.523422 0.821107 0.0
0.406097 0.71765 0.0
0.269794 0.856751 0.0
0.102328 0.554959 0.0
0.920739 0.350386 0.0
0.787547 0.72216 0.0
0.684506 0.739307 0.0
0.610255 0.741433 0.0
0.561285 0.760183 0.0
0.532759 0.781425 0.0
0.519861 0.801103 0.0
0.518408 0.819034 0.0
0.52503 0.83531 0.0
0.537147 0.850075 0.0
0.552861 0.86356 0.0
0.570821 0.876042 0.0
0.590088 0.887796 0.0
0.610024 0.899076 0.0
0.630207 0.91011 0.0
0.65036 0.921088 0.0
0.670302 0.93216 0.0
0.689919 0.943429 0.0
0.709044 0.955028 0.0
0.727467 0.966761 0.0
0.745216 0.978769 0.0
0.762302 0.99108 0.0
0.778713 1.00368 0.0
0.794427 1.01651 0.0
0.809419 1.02949 0.0
0.823661 1.04248 0.0
0.837111 1.0553 0.0
0.849711 1.06773 0.0
0.861378 1.07948 0.0
0.871995 1.09023 0.0
0.881402 1.09959 0.0
0.889382 1.10713 0.0
0.895649 1.11236 0.0
0.89983 1.11474 0.0
0.90145 1.1137 0.0
0.899907 1.10864 0.0
0.894453 1.09898 0.0
0.884174 1.08415 0.0
0.867966 1.0637 0.0
0.844544 1.03733 0.0
0.812453 1.00503 0.0
0.770114 0.967116 0.0
0.716021 0.924606 0.0
0.649985 0.879792 0.0
0.571384 0.831907 0.0
0.48047 0.806079 0.0
0.370889 0.707105 0.0
0.245224 0.851664 0.0
0.0926321 0.554137 0.0
0.926015 0.350465 0.0
0.800899 0.721891 0.0
0.70289 0.738233 0.0
0.630788 0.739977 0.0
0.582103 0.758884 0.0
0.552717 0.780987 0.0
0.538407 0.802206 0.0
0.535386 0.822238 0.0
0.540518 0.841028 0.0
0.551345 0.858572 0.0
0.566021 0.874972 0.0
0.583202 0.890396 0.0
0.601937 0.905033 0.0
0.621563 0.919067 0.0
0.641624 0.932669 0.0
0.661808 0.945981 0.0
0.681902 0.959106 0.0
0.701732 0.972175 0.0
0.720979 0.985019 0.0
0.739605 0.997757 0.0
0.757595 1.01045 0.0
0.774913 1.02309 0.0
0.791507 1.03564 0.0
0.807315 1.04804 0.0
0.822271 1.06018 0.0
0.8363 1.07189 0.0
0.849314 1.08298 0.0
0.861205 1.09322 0.0
0.871839 1.10233 0.0
0.881047 1.10996 0.0
0.888616 1.11577 0.0
0.89428 1.11932 0.0
0.89771 1.12018 0.0
0.898497 1.11789 0.0
0.896146 1.11196 0.0
0.890063 1.10193 0.0
0.879539 1.08737 0.0
0.863751 1.06795 0.0
0.841765 1.04344 0.0
0.812554 1.01386 0.0
0.775047 0.97949 0.0
0.728226 0.940898 0.0
0.671546 0.899587 0.0
0.605818 0.858353 0.0
0.529514 0.814284 0.0
0.442997 0.794098 0.0
0.340687 0.69894 0.0
0.22447 0.847794 0.0
0.0845563 0.553592 0.0
0.931046 0.350579 0.0
0.813683 0.721805 0.0
0.72076 0.737622 0.0
0.651394 0.739184 0.0
0.603648 0.758304 0.0
0.574052 0.781093 0.0
0.558885 0.803483 0.0
0.554717 0.825107 0.0
0.558639 0.845811 0.0
0.56833 0.865484 0.0
0.582012 0.88413 0.0
0.598372 0.901828 0.0
0.616461 0.918692 0.0
0.635602 0.934843 0.0
0.655319 0.950395 0.0
0.675273 0.965439 0.0
0.695205 0.980061 0.0
0.714806 0.994223 0.0
0.733885 1.00791 0.0
0.752401 1.02122 0.0
0.77029 1.03417 0.0
0.787475 1.04674 0.0
0.803864 1.05888 0.0
0.819359 1.0705 0.0
0.833853 1.08147 0.0
0.84723 1.09163 0.0
0.859358 1.10078 0.0
0.870086 1.10868 0.0
0.879235 1.11505 0.0
0.886597 1.11959 0.0
0.891919 1.12195 0.0
0.894905 1.12178 0.0
0.895203 1.11869 0.0
0.892397 1.11231 0.0
0.886006 1.10226 0.0
0.875475 1.08823 0.0
0.860179 1.06994 0.0
0.839427 1.04727 0.0
0.812486 1.0202 0.0
0.778605 0.988978 0.0
0.737085 0.954071 0.0
0.687379 0.916271 0.0
0.630424 0.877746 0.0
0.565818 0.840275 0.0
0.492278 0.799838 0.0
0.410157 0.78455 0.0
0.314495 0.692574 0.0
0.206645 0.844808 0.0
0.0776786 0.553234 0.0
0.935956 0.350702 0.0
0.826157 0.721795 0.0
0.738413 0.737238 0.0
0.672125 0.738746 0.0
0.625772 0.758082 0.0
0.596432 0.781385 0.0
0.580821 0.804627 0.0
0.575828 0.827406 0.0
0.578764 0.849503 0.0
0.587444 0.870731 0.0
0.600174 0.891019 0.0
0.615678 0.910376 0.0
0.633021 0.928852 0.0
0.651524 0.946514 0.0
0.670692 0.963423 0.0
0.690157 0.979638 0.0
0.709599 0.995157 0.0
0.728685 1.00992 0.0
0.747329 1.02401 0.0
0.765438 1.03748 0.0
0.782907 1.05032 0.0
0.799618 1.06248 0.0
0.815444 1.0739 0.0
0.830253 1.08446 0.0
0.843903 1.09405 0.0
0.856239 1.10249 0.0
0.867094 1.10958 0.0
0.876282 1.11511 0.0
0.88359 1.11881 0.0
0.88878 1.12041 0.0
0.891579 1.11961 0.0
0.891675 1.11612 0.0
0.888714 1.10963 0.0
0.882299 1.09986 0.0
0.871986 1.08655 0.0
0.857291 1.06952 0.0
0.837694 1.04866 0.0
0.81266 1.02398 0.0
0.781653 0.995678 0.0
0.744169 0.964105 0.0
0.699829 0.929846 0.0
0.649397 0.894423 0.0
0.592808 0.858931 0.0
0.529762 0.825118 0.0
0.459115 0.787994 0.0
0.38118 0.776909 0.0
0.291514 0.687563 0.0
0.191088 0.842473 0.0
0.0717008 0.553008 0.0
0.940795 0.350826 0.0
0.838451 0.721815 0.0
0.755961 0.736954 0.0
0.693055 0.738416 0.0
0.64834 0.757887 0.0
0.619573 0.781537 0.0
0.603807 0.805349 0.0
0.598223 0.828902 0.0
0.600336 0.851935 0.0
0.608099 0.874209 0.0
0.619901 0.895596 0.0
0.634513 0.916053 0.0
0.651019 0.935579 0.0
0.668736 0.954195 0.0
0.68716 0.971927 0.0
0.705915 0.988762 0.0
0.724557 1.00463 0.0
0.742934 1.01961 0.0
0.760909 1.03373 0.0
0.778347 1.04701 0.0
0.795106 1.05941 0.0
0.811036 1.07088 0.0
0.825982 1.08133 0.0
0.839779 1.09065 0.0
0.852256 1.09872 0.0
0.863229 1.10536 0.0
0.872501 1.1104 0.0
0.87986 1.11363 0.0
0.885072 1.11483 0.0
0.887881 1.11377 0.0
0.888006 1.1102 0.0
0.885137 1.10389 0.0
0.878939 1.09463 0.0
0.869048 1.08222 0.0
0.85508 1.06653 0.0
0.836634 1.04748 0.0
0.813309 1.0251 0.0
0.78472 0.999541 0.0
0.750514 0.971105 0.0
0.710442 0.940194 0.0
0.664939 0.907866 0.0
0.614422 0.875189 0.0
0.558613 0.842755 0.0
0.497305 0.812375 0.0
0.429476 0.778219 0.0
0.355412 0.770739 0.0
0.271116 0.683571 0.0
0.177305 0.840619 0.0
0.0664085 0.552874 0.0
0.945582 0.350946 0.0
0.850614 0.721836 0.0
0.773412 0.736672 0.0
0.714045 0.738006 0.0
0.671179 0.757477 0.0
0.643202 0.781298 0.0
0.627481 0.805418 0.0
0.621462 0.8294 0.0
0.622862 0.852963 0.0
0.629766 0.875832 0.0
0.640646 0.897837 0.0
0.654324 0.918894 0.0
0.669894 0.93897 0.0
0.686693 0.95805 0.0
0.704233 0.976084 0.0
0.721974 0.993017 0.0
0.739689 1.00889 0.0
0.757182 1.02373 0.0
0.774279 1.03756 0.0
0.79081 1.05035 0.0
0.806607 1.06206 0.0
0.821493 1.07262 0.0
0.835288 1.08193 0.0
0.847804 1.08989 0.0
0.858844 1.09638 0.0
0.868203 1.10123 0.0
0.875664 1.1043 0.0
0.880996 1.10541 0.0
0.883956 1.10436 0.0
0.884282 1.10099 0.0
0.881699 1.09509 0.0
0.875913 1.08652 0.0
0.866618 1.07514 0.0
0.853501 1.06084 0.0
0.836245 1.04359 0.0
0.814543 1.02343 0.0
0.78811 1.00047 0.0
0.756699 0.974971 0.0
0.720139 0.94725 0.0
0.678576 0.917911 0.0
0.632735 0.888095 0.0
0.582493 0.858251 0.0
0.527651 0.828776 0.0
0.468082 0.801565 0.0
0.402879 0.770053 0.0
0.332324 0.765684 0.0
0.25282 0.680337 0.0
0.164928 0.839121 0.0
0.0616456 0.552804 0.0
0.950313 0.351056 0.0
0.862636 0.72183 0.0
0.790704 0.736317 0.0
0.734901 0.737438 0.0
0.694199 0.756716 0.0
0.667073 0.780468 0.0
0.651522 0.80465 0.0
0.645174 0.828756 0.0
0.645924 0.852488 0.0
0.651991 0.875552 0.0
0.661928 0.897753 0.0
0.674601 0.918985 0.0
0.689167 0.939172 0.0
0.704949 0.958227 0.0
0.721333 0.976109 0.0
0.737993 0.992823 0.0
0.754661 1.00839 0.0
0.771113 1.02282 0.0
0.787147 1.03608 0.0
0.802572 1.04815 0.0
0.817195 1.05896 0.0
0.830821 1.06845 0.0
0.84325 1.07652 0.0
0.854273 1.08307 0.0
0.863679 1.08798 0.0
0.871247 1.09113 0.0
0.876748 1.09237 0.0
0.879944 1.09158 0.0
0.880589 1.0886 0.0
0.878428 1.0833 0.0
0.873201 1.07556 0.0
0.864642 1.06528 0.0
0.852486 1.05241 0.0
0.836474 1.03693 0.0
0.816361 1.01888 0.0
0.791932 0.99837 0.0
0.763005 0.975608 0.0
0.729436 0.950873 0.0
0.691243 0.924498 0.0
0.649203 0.897501 0.0
0.603314 0.870288 0.0
0.553524 0.843235 0.0
0.49969 0.816564 0.0
0.441752 0.792261 0.0
0.37892 0.763113 0.0
0.311498 0.761461 0.0
0.236258 0.677663 0.0
0.153684 0.837885 0.0
0.0572985 0.552778 0.0
0.954964 0.351151 0.0
0.874465 0.721786 0.0
0.807749 0.735857 0.0
0.755508 0.736664 0.0
0.717062 0.755559 0.0
0.690978 0.778943 0.0
0.675578 0.802905 0.0
0.668941 0.826869 0.0
0.66907 0.850464 0.0
0.674297 0.873388 0.0
0.683272 0.895438 0.0
0.694954 0.916443 0.0
0.708409 0.936303 0.0
0.722967 0.95497 0.0
0.738177 0.972419 0.0
0.753679 0.988649 0.0
0.769188 1.00365 0.0
0.784462 1.01741 0.0
0.799282 1.0299 0.0
0.813436 1.04106 0.0
0.826718 1.05083 0.0
0.838916 1.05915 0.0
0.849815 1.06592 0.0
0.859197 1.07106 0.0
0.866838 1.07447 0.0
0.872509 1.07603 0.0
0.875977 1.07565 0.0
0.877006 1.07321 0.0
0.875356 1.06863 0.0
0.870787 1.06181 0.0
0.863061 1.0527 0.0
0.851947 1.04126 0.0
0.837225 1.02749 0.0
0.818694 1.01144 0.0
0.796177 0.993229 0.0
0.769535 0.973019 0.0
0.738661 0.951065 0.0
0.703531 0.927596 0.0
0.664691 0.903319 0.0
0.622406 0.878738 0.0
0.576641 0.854118 0.0