# vtk DataFile Version 3.0
Malha 2D com triângulos e temperatura
ASCII
DATASET UNSTRUCTURED_GRID

POINTS 2500 double
0 0 0
1 0 0
1 1 0
0 1 0
0.0204082 0 0
0.0408163 0 0
0.0612245 0 0
0.0816327 0 0
0.102041 0 0
0.122449 0 0
0.142857 0 0
0.163265 0 0
0.183673 0 0
0.204082 0 0
0.22449 0 0
0.244898 0 0
0.265306 0 0
0.285714 0 0
0.306122 0 0
0.326531 0 0
0.346939 0 0
0.367347 0 0
0.387755 0 0
0.408163 0 0
0.428571 0 0
0.44898 0 0
0.469388 0 0
0.489796 0 0
0.510204 0 0
0.530612 0 0
0.55102 0 0
0.571429 0 0
0.591837 0 0
0.612245 0 0
0.632653 0 0
0.653061 0 0
0.673469 0 0
0.693878 0 0
0.714286 0 0
0.734694 0 0
0.755102 0 0
0.77551 0 0
0.795918 0 0
0.816327 0 0
0.836735 0 0
0.857143 0 0
0.877551 0 0
0.897959 0 0
0.918367 0 0
0.938776 0 0
0.959184 0 0
0.979592 0 0
1 0.0204082 0
1 0.0408163 0
1 0.0612245 0
1 0.0816327 0
1 0.102041 0
1 0.122449 0
1 0.142857 0
1 0.163265 0
1 0.183673 0
1 0.204082 0
1 0.22449 0
1 0.244898 0
1 0.265306 0
1 0.285714 0
1 0.306122 0
1 0.326531 0
1 0.346939 0
1 0.367347 0
1 0.387755 0
1 0.408163 0
1 0.428571 0
1 0.44898 0
1 0.469388 0
1 0.489796 0
1 0.510204 0
1 0.530612 0
1 0.55102 0
1 0.571429 0
1 0.591837 0
1 0.612245 0
1 0.632653 0
1 0.653061 0
1 0.673469 0
1 0.693878 0
1 0.714286 0
1 0.734694 0
1 0.755102 0
1 0.77551 0
1 0.795918 0
1 0.816327 0
1 0.836735 0
1 0.857143 0
1 0.877551 0
1 0.897959 0
1 0.918367 0
1 0.938776 0
1 0.959184 0
1 0.979592 0
0.979592 1 0
0.959184 1 0
0.938776 1 0
0.918367 1 0
0.897959 1 0
0.877551 1 0
0.857143 1 0
0.836735 1 0
0.816327 1 0
0.795918 1 0
0.77551 1 0
0.755102 1 0
0.734694 1 0
0.714286 1 0
0.693878 1 0
0.673469 1 0
0.653061 1 0
0.632653 1 0
0.612245 1 0
0.591837 1 0
0.571429 1 0
0.55102 1 0
0.530612 1 0
0.510204 1 0
0.489796 1 0
0.469388 1 0
0.44898 1 0
0.428571 1 0
0.408163 1 0
0.387755 1 0
0.367347 1 0
0.346939 1 0
0.326531 1 0
0.306122 1 0
0.285714 1 0
0.265306 1 0
0.244898 1 0
0.22449 1 0
0.204082 1 0
0.183673 1 0
0.163265 1 0
0.142857 1 0
0.122449 1 0
0.102041 1 0
0.0816327 1 0
0.0612245 1 0
0.0408163 1 0
0.0204082 1 0
0 0.979592 0
0 0.959184 0
0 0.938776 0
0 0.918367 0
0 0.897959 0
0 0.877551 0
0 0.857143 0
0 0.836735 0
0 0.816327 0
0 0.795918 0
0 0.77551 0
0 0.755102 0
0 0.734694 0
0 0.714286 0
0 0.693878 0
0 0.673469 0
0 0.653061 0
0 0.632653 0
0 0.612245 0
0 0.591837 0
0 0.571429 0
0 0.55102 0
0 0.530612 0
0 0.510204 0
0 0.489796 0
0 0.469388 0
0 0.44898 0
0 0.428571 0
0 0.408163 0
0 0.387755 0
0 0.367347 0
0 0.346939 0
0 0.326531 0
0 0.306122 0
0 0.285714 0
0 0.265306 0
0 0.244898 0
0 0.22449 0
0 0.204082 0
0 0.183673 0
0 0.163265 0
0 0.142857 0
0 0.122449 0
0 0.102041 0
0 0.0816327 0
0 0.0612245 0
0 0.0408163 0
0 0.0204082 0
0.0204082 0.979592 0
0.0204082 0.959184 0
0.0204082 0.938776 0
0.0204082 0.918367 0
0.0204082 0.897959 0
0.0204082 0.877551 0
0.0204082 0.857143 0
0.0204082 0.836735 0
0.0204082 0.816327 0
0.0204082 0.795918 0
0.0204082 0.77551 0
0.0204082 0.755102 0
0.0204082 0.734694 0
0.0204082 0.714286 0
0.0204082 0.693878 0
0.0204082 0.673469 0
0.0204082 0.653061 0
0.0204082 0.632653 0
0.0204082 0.612245 0
0.0204082 0.591837 0
0.0204082 0.571429 0
0.0204082 0.55102 0
0.0204082 0.530612 0
0.0204082 0.510204 0
0.0204082 0.489796 0
0.0204082 0.469388 0
0.0204082 0.44898 0
0.0204082 0.428571 0
0.0204082 0.408163 0
0.0204082 0.387755 0
0.0204082 0.367347 0
0.0204082 0.346939 0
0.0204082 0.326531 0
0.0204082 0.306122 0
0.0204082 0.285714 0
0.0204082 0.265306 0
0.0204082 0.244898 0
0.0204082 0.22449 0
0.0204082 0.204082 0
0.0204082 0.183673 0
0.0204082 0.163265 0
0.0204082 0.142857 0
0.0204082 0.122449 0
0.0204082 0.102041 0
0.0204082 0.0816327 0
0.0204082 0.0612245 0
0.0204082 0.0408163 0
0.0204082 0.0204082 0
0.0408163 0.979592 0
0.0408163 0.959184 0
0.0408163 0.938776 0
0.0408163 0.918367 0
0.0408163 0.897959 0
0.0408163 0.877551 0
0.0408163 0.857143 0
0.0408163 0.836735 0
0.0408163 0.816327 0
0.0408163 0.795918 0
0.0408163 0.77551 0
0.0408163 0.755102 0
0.0408163 0.734694 0
0.0408163 0.714286 0
0.0408163 0.693878 0
0.0408163 0.673469 0
0.0408163 0.653061 0
0.0408163 0.632653 0
0.0408163 0.612245 0
0.0408163 0.591837 0
0.0408163 0.571429 0
0.0408163 0.55102 0
0.0408163 0.530612 0
0.0408163 0.510204 0
0.0408163 0.489796 0
0.0408163 0.469388 0
0.0408163 0.44898 0
0.0408163 0.428571 0
0.0408163 0.408163 0
0.0408163 0.387755 0
0.0408163 0.367347 0
0.0408163 0.346939 0
0.0408163 0.326531 0
0.0408163 0.306122 0
0.0408163 0.285714 0
0.0408163 0.265306 0
0.0408163 0.244898 0
0.0408163 0.22449 0
0.0408163 0.204082 0
0.0408163 0.183673 0
0.0408163 0.163265 0
0.0408163 0.142857 0
0.0408163 0.122449 0
0.0408163 0.102041 0
0.0408163 0.0816327 0
0.0408163 0.0612245 0
0.0408163 0.0408163 0
0.0408163 0.0204082 0
0.0612245 0.979592 0
0.0612245 0.959184 0
0.0612245 0.938776 0
0.0612245 0.918367 0
0.0612245 0.897959 0
0.0612245 0.877551 0
0.0612245 0.857143 0
0.0612245 0.836735 0
0.0612245 0.816327 0
0.0612245 0.795918 0
0.0612245 0.77551 0
0.0612245 0.755102 0
0.0612245 0.734694 0
0.0612245 0.714286 0
0.0612245 0.693878 0
0.0612245 0.673469 0
0.0612245 0.653061 0
0.0612245 0.632653 0
0.0612245 0.612245 0
0.0612245 0.591837 0
0.0612245 0.571429 0
0.0612245 0.55102 0
0.0612245 0.530612 0
0.0612245 0.510204 0
0.0612245 0.489796 0
0.0612245 0.469388 0
0.0612245 0.44898 0
0.0612245 0.428571 0
0.0612245 0.408163 0
0.0612245 0.387755 0
0.0612245 0.367347 0
0.0612245 0.346939 0
0.0612245 0.326531 0
0.0612245 0.306122 0
0.0612245 0.285714 0
0.0612245 0.265306 0
0.0612245 0.244898 0
0.0612245 0.22449 0
0.0612245 0.204082 0
0.0612245 0.183673 0
0.0612245 0.163265 0
0.0612245 0.142857 0
0.0612245 0.122449 0
0.0612245 0.102041 0
0.0612245 0.0816327 0
0.0612245 0.0612245 0
0.0612245 0.0408163 0
0.0612245 0.0204082 0
0.0816327 0.979592 0
0.0816327 0.959184 0
0.0816327 0.938776 0
0.0816327 0.918367 0
0.0816327 0.897959 0
0.0816327 0.877551 0
0.0816327 0.857143 0
0.0816327 0.836735 0
0.0816327 0.816327 0
0.0816327 0.795918 0
0.0816327 0.77551 0
0.0816327 0.755102 0
0.0816327 0.734694 0
0.0816327 0.714286 0
0.0816327 0.693878 0
0.0816327 0.673469 0
0.0816327 0.653061 0
0.0816327 0.632653 0
0.0816327 0.612245 0
0.0816327 0.591837 0
0.0816327 0.571429 0
0.0816327 0.55102 0
0.0816327 0.530612 0
0.0816327 0.510204 0
0.0816327 0.489796 0
0.0816327 0.469388 0
0.0816327 0.44898 0
0.0816327 0.428571 0
0.0816327 0.408163 0
0.0816327 0.387755 0
0.0816327 0.367347 0
0.0816327 0.346939 0
0.0816327 0.326531 0
0.0816327 0.306122 0
0.0816327 0.285714 0
0.0816327 0.265306 0
0.0816327 0.244898 0
0.0816327 0.22449 0
0.0816327 0.204082 0
0.0816327 0.183673 0
0.0816327 0.163265 0
0.0816327 0.142857 0
0.0816327 0.122449 0
0.0816327 0.102041 0
0.0816327 0.0816327 0
0.0816327 0.0612245 0
0.0816327 0.0408163 0
0.0816327 0.0204082 0
0.102041 0.979592 0
0.102041 0.959184 0
0.102041 0.938776 0
0.102041 0.918367 0
0.102041 0.897959 0
0.102041 0.877551 0
0.102041 0.857143 0
0.102041 0.836735 0
0.102041 0.816327 0
0.102041 0.795918 0
0.102041 0.77551 0
0.102041 0.755102 0
0.102041 0.734694 0
0.102041 0.714286 0
0.102041 0.693878 0
0.102041 0.673469 0
0.102041 0.653061 0
0.102041 0.632653 0
0.102041 0.612245 0
0.102041 0.591837 0
0.102041 0.571429 0
0.102041 0.55102 0
0.102041 0.530612 0
0.102041 0.510204 0
0.102041 0.489796 0
0.102041 0.469388 0
0.102041 0.44898 0
0.102041 0.428571 0
0.102041 0.408163 0
0.102041 0.387755 0
0.102041 0.367347 0
0.102041 0.346939 0
0.102041 0.326531 0
0.102041 0.306122 0
0.102041 0.285714 0
0.102041 0.265306 0
0.102041 0.244898 0
0.102041 0.22449 0
0.102041 0.204082 0
0.102041 0.183673 0
0.102041 0.163265 0
0.102041 0.142857 0
0.102041 0.122449 0
0.102041 0.102041 0
0.102041 0.0816327 0
0.102041 0.0612245 0
0.102041 0.0408163 0
0.102041 0.0204082 0
0.122449 0.979592 0
0.122449 0.959184 0
0.122449 0.938776 0
0.122449 0.918367 0
0.122449 0.897959 0
0.122449 0.877551 0
0.122449 0.857143 0
0.122449 0.836735 0
0.122449 0.816327 0
0.122449 0.795918 0
0.122449 0.77551 0
0.122449 0.755102 0
0.122449 0.734694 0
0.122449 0.714286 0
0.122449 0.693878 0
0.122449 0.673469 0
0.122449 0.653061 0
0.122449 0.632653 0
0.122449 0.612245 0
0.122449 0.591837 0
0.122449 0.571429 0
0.122449 0.55102 0
0.122449 0.530612 0
0.122449 0.510204 0
0.122449 0.489796 0
0.122449 0.469388 0
0.122449 0.44898 0
0.122449 0.428571 0
0.122449 0.408163 0
0.122449 0.387755 0
0.122449 0.367347 0
0.122449 0.346939 0
0.122449 0.326531 0
0.122449 0.306122 0
0.122449 0.285714 0
0.122449 0.265306 0
0.122449 0.244898 0
0.122449 0.22449 0
0.122449 0.204082 0
0.122449 0.183673 0
0.122449 0.163265 0
0.122449 0.142857 0
0.122449 0.122449 0
0.122449 0.102041 0
0.122449 0.0816327 0
0.122449 0.0612245 0
0.122449 0.0408163 0
0.122449 0.0204082 0
0.142857 0.979592 0
0.142857 0.959184 0
0.142857 0.938776 0
0.142857 0.918367 0
0.142857 0.897959 0
0.142857 0.877551 0
0.142857 0.857143 0
0.142857 0.836735 0
0.142857 0.816327 0
0.142857 0.795918 0
0.142857 0.77551 0
0.142857 0.755102 0
0.142857 0.734694 0
0.142857 0.714286 0
0.142857 0.693878 0
0.142857 0.673469 0
0.142857 0.653061 0
0.142857 0.632653 0
0.142857 0.612245 0
0.142857 0.591837 0
0.142857 0.571429 0
0.142857 0.55102 0
0.142857 0.530612 0
0.142857 0.510204 0
0.142857 0.489796 0
0.142857 0.469388 0
0.142857 0.44898 0
0.142857 0.428571 0
0.142857 0.408163 0
0.142857 0.387755 0
0.142857 0.367347 0
0.142857 0.346939 0
0.142857 0.326531 0
0.142857 0.306122 0
0.142857 0.285714 0
0.142857 0.265306 0
0.142857 0.244898 0
0.142857 0.22449 0
0.142857 0.204082 0
0.142857 0.183673 0
0.142857 0.163265 0
0.142857 0.142857 0
0.142857 0.122449 0
0.142857 0.102041 0
0.142857 0.0816327 0
0.142857 0.0612245 0
0.142857 0.0408163 0
0.142857 0.0204082 0
0.163265 0.979592 0
0.163265 0.959184 0
0.163265 0.938776 0
0.163265 0.918367 0
0.163265 0.897959 0
0.163265 0.877551 0
0.163265 0.857143 0
0.163265 0.836735 0
0.163265 0.816327 0
0.163265 0.795918 0
0.163265 0.77551 0
0.163265 0.755102 0
0.163265 0.734694 0
0.163265 0.714286 0
0.163265 0.693878 0
0.163265 0.673469 0
0.163265 0.653061 0
0.163265 0.632653 0
0.163265 0.612245 0
0.163265 0.591837 0
0.163265 0.571429 0
0.163265 0.55102 0
[...]
CELL_DATA 2401
VECTORS velocity double
0.258503 0.156628 0.0
-0.00216405 0.264027 0.0
-0.0318372 0.206141 0.0
-0.0250402 0.151815 0.0
-0.0158597 0.114829 0.0
-0.00962672 0.0898063 0.0
-0.00596299 0.0727575 0.0
-0.00387151 0.0607914 0.0
-0.00265981 0.0520443 0.0
-0.00193157 0.0453895 0.0
-0.00147275 0.0401424 0.0
-0.00116903 0.0358771 0.0
-0.000958402 0.0323205 0.0
-0.000806177 0.029292 0.0
-0.000692183 0.0266683 0.0
-0.000604197 0.0243627 0.0
-0.000534508 0.0223128 0.0
-0.000478074 0.0204723 0.0
-0.000431491 0.0188064 0.0
-0.000392391 0.0172883 0.0
-0.000359091 0.015897 0.0
-0.000330364 0.0146156 0.0
-0.000305303 0.0134306 0.0
-0.000283224 0.0123309 0.0
-0.000263608 0.0113071 0.0
-0.000246054 0.0103515 0.0
-0.000230247 0.00945744 0.0
-0.000215941 0.00861912 0.0
-0.000202934 0.00783158 0.0
-0.000191062 0.00709048 0.0
-0.000180179 0.00639201 0.0
-0.000170157 0.00573284 0.0
-0.000160872 0.00511011 0.0
-0.000152197 0.00452142 0.0
-0.000144002 0.00396483 0.0
-0.00013614 0.0034389 0.0
-0.000128448 0.00294274 0.0
-0.000120735 0.00247608 0.0
-0.000112782 0.00203933 0.0
-0.000104331 0.00163367 0.0
-9.50729e-05 0.00126115 0.0
-8.46434e-05 0.000924804 0.0
-7.26103e-05 0.00062868 0.0
-5.84837e-05 0.000377926 0.0
-4.17849e-05 0.000178646 0.0
-2.23237e-05 3.74378e-05 0.0
-9.9634e-07 -4.01004e-05 0.0
1.84631e-05 -5.44726e-05 0.0
2.33602e-05 -2.32863e-05 0.0
0.341657 0.123156 0.0
0.000103284 0.250494 0.0
-0.064114 0.273659 0.0
-0.0621948 0.255006 0.0
-0.0478044 0.225154 0.0
-0.0347273 0.195559 0.0
-0.0251983 0.169879 0.0
-0.0186567 0.148587 0.0
-0.0142096 0.131122 0.0
-0.01115 0.116729 0.0
-0.00899797 0.104727 0.0
-0.00744438 0.0945736 0.0
-0.00629234 0.0858592 0.0
-0.00541566 0.0782771 0.0
-0.00473218 0.0715995 0.0
-0.00418741 0.0656561 0.0
-0.00374442 0.0603181 0.0
-0.00337772 0.0554867 0.0
-0.00306931 0.0510851 0.0
-0.00280629 0.0470526 0.0
-0.00257918 0.0433409 0.0
-0.00238096 0.0399104 0.0
-0.00220632 0.0367287 0.0
-0.00205117 0.0337688 0.0
-0.00191236 0.0310079 0.0
-0.00178741 0.0284266 0.0
-0.00167433 0.0260082 0.0
-0.00157154 0.023738 0.0
-0.0014777 0.0216035 0.0
-0.00139169 0.0195934 0.0
-0.00131251 0.0176979 0.0
-0.00123926 0.0159085 0.0
-0.00117105 0.0142179 0.0
-0.00110699 0.0126199 0.0
-0.00104615 0.0111096 0.0
-0.000987515 0.00968323 0.0
-0.000929974 0.00833872 0.0
-0.00087229 0.00707533 0.0
-0.00081308 0.00589412 0.0
-0.000750805 0.00479796 0.0
-0.000683774 0.00379169 0.0
-0.000610169 0.00288224 0.0
-0.000528136 0.00207849 0.0
-0.000436012 0.00139103 0.0
-0.000332858 0.00083135 0.0
-0.000219762 0.000410221 0.0
-0.000102686 0.000134021 0.0
2.47008e-06 -1.74416e-06 0.0
5.42583e-05 -1.79991e-05 0.0
0.501378 0.0770765 0.0
0.100342 0.184234 0.0
-0.037437 0.251306 0.0
-0.0715806 0.26885 0.0
-0.0707211 0.261103 0.0
-0.0604558 0.243277 0.0
-0.0493756 0.22255 0.0
-0.0399269 0.202197 0.0
-0.0324753 0.183497 0.0
-0.0267576 0.16678 0.0
-0.0223917 0.151975 0.0
-0.0190365 0.138871 0.0
-0.0164257 0.127227 0.0
-0.0143629 0.116822 0.0
-0.012706 0.107465 0.0
-0.0113532 0.0989986 0.0
-0.0102311 0.0912937 0.0
-0.00928675 0.084246 0.0
-0.00848143 0.07777 0.0
-0.00778645 0.0717954 0.0
-0.00718031 0.0662643 0.0
-0.00664671 0.0611279 0.0
-0.0061731 0.0563452 0.0
-0.00574974 0.0518812 0.0
-0.00536894 0.047706 0.0
-0.00502458 0.0437932 0.0
-0.00471172 0.0401202 0.0
-0.00442631 0.0366669 0.0
-0.00416493 0.0334154 0.0
-0.00392465 0.03035 0.0
-0.00370284 0.0274568 0.0
-0.00349703 0.0247236 0.0
-0.00330485 0.02214 0.0
-0.00312388 0.0196969 0.0
-0.00295156 0.0173874 0.0
-0.00278516 0.0152061 0.0
-0.0026217 0.0131499 0.0
-0.0024579 0.0112177 0.0
-0.00229017 0.00941076 0.0
-0.00211463 0.00773303 0.0
-0.00192715 0.00619088 0.0
-0.00172357 0.00479334 0.0
-0.00150001 0.00355175 0.0
-0.00125356 0.00247916 0.0
-0.00098364 0.00158922 0.0
-0.000694653 0.000894125 0.0
-0.000400854 0.000400087 0.0
-0.000133639 0.000103631 0.0
3.88345e-05 1.87172e-06 0.0
0.611302 0.0483409 0.0
0.198236 0.134933 0.0
0.0143997 0.21128 0.0
-0.0555878 0.249162 0.0
-0.0748765 0.259879 0.0
-0.0742508 0.255911 0.0
-0.0668651 0.244393 0.0
-0.0580732 0.229584 0.0
-0.049871 0.213828 0.0
-0.0428494 0.198311 0.0
-0.0370454 0.183579 0.0
-0.0323063 0.169843 0.0
-0.0284386 0.15714 0.0
-0.0252632 0.14543 0.0
-0.0226318 0.134638 0.0
-0.0204271 0.124681 0.0
-0.0185587 0.115477 0.0
-0.0169577 0.10695 0.0
-0.0155713 0.0990335 0.0
-0.0143592 0.0916674 0.0
-0.0132903 0.0847998 0.0
-0.0123404 0.078385 0.0
-0.0114904 0.0723828 0.0
-0.0107252 0.0667577 0.0
-0.0100328 0.0614782 0.0
-0.00940347 0.0565164 0.0
-0.00882912 0.0518473 0.0
-0.00830308 0.0474482 0.0
-0.00781966 0.0432992 0.0
-0.00737384 0.039382 0.0
-0.00696109 0.0356803 0.0
-0.00657711 0.03218 0.0
-0.00621764 0.0288684 0.0
-0.00587836 0.025735 0.0
-0.00555472 0.0227713 0.0
-0.00524179 0.0199709 0.0
-0.00493425 0.0173299 0.0
-0.0046263 0.0148469 0.0
-0.00431165 0.012523 0.0
-0.00398362 0.0103627 0.0
-0.00363532 0.00837281 0.0
-0.00325999 0.00656337 0.0
-0.00285167 0.00494667 0.0
-0.0024064 0.00353674 0.0
-0.00192421 0.00234822 0.0
-0.00141274 0.0013946 0.0
-0.000893103 0.000683615 0.0
-0.000407747 0.000217753 0.0
-3.95648e-05 2.31762e-05 0.0
0.682263 0.0304521 0.0
0.281919 0.0990351 0.0
0.0733019 0.172414 0.0
-0.0248022 0.219287 0.0
-0.0645004 0.242408 0.0
-0.0763981 0.249788 0.0
-0.0759662 0.247332 0.0
-0.0706335 0.239178 0.0
-0.0638312 0.228005 0.0
-0.0570576 0.215446 0.0
-0.0508936 0.202463 0.0
-0.0454999 0.189604 0.0
-0.0408576 0.177163 0.0
-0.036881 0.165289 0.0
-0.0334694 0.154044 0.0
-0.0305279 0.143441 0.0
-0.0279745 0.133467 0.0
-0.0257417 0.124095 0.0
-0.0237749 0.115291 0.0
-0.0220301 0.107021 0.0
-0.020472 0.0992489 0.0
-0.0190725 0.0919408 0.0
-0.0178087 0.0850647 0.0
-0.0166621 0.0785904 0.0
-0.0156175 0.0724901 0.0
-0.0146625 0.0667378 0.0
-0.0137864 0.0613095 0.0
-0.0129806 0.0561833 0.0
-0.0122371 0.0513386 0.0
-0.011549 0.046757 0.0
-0.0109101 0.0424214 0.0
-0.010314 0.0383167 0.0
-0.00975455 0.0344295 0.0
-0.00922545 0.0307484 0.0
-0.0087199 0.027264 0.0
-0.0082306 0.0239693 0.0
-0.00774964 0.0208598 0.0
-0.00726845 0.0179338 0.0
-0.00677782 0.0151923 0.0
-0.00626809 0.0126395 0.0
-0.00572943 0.0102824 0.0
-0.00515242 0.00813124 0.0
-0.00452898 0.00619851 0.0
-0.00385394 0.00449872 0.0
-0.00312749 0.00304744 0.0
-0.00235914 0.00186019 0.0
-0.00157371 0.00094813 0.0
-0.000818441 0.000322702 0.0
-0.000179182 4.18108e-05 0.0
0.732015 0.0194107 0.0
0.35299 0.0735919 0.0
0.131884 0.140024 0.0
0.0136716 0.188786 0.0
-0.0445325 0.219237 0.0
-0.0695127 0.234643 0.0
-0.0775816 0.239574 0.0
-0.0774451 0.237553 0.0
-0.07362 0.231152 0.0
-0.0683936 0.222134 0.0
-0.0628827 0.211667 0.0
-0.0575981 0.200508 0.0
-0.0527436 0.189139 0.0
-0.0483731 0.177862 0.0
-0.0444717 0.166858 0.0
-0.0409971 0.156237 0.0
-0.0378988 0.146055 0.0
-0.0351279 0.13634 0.0
-0.03264 0.1271 0.0
-0.030397 0.11833 0.0
-0.0283664 0.110016 0.0
-0.0265208 0.102143 0.0
-0.0248373 0.0946907 0.0
-0.0232967 0.0876383 0.0
-0.0218826 0.0809649 0.0
-0.0205814 0.0746497 0.0
-0.0193811 0.0686723 0.0
-0.0182717 0.063013 0.0
-0.0172438 0.0576531 0.0
-0.016289 0.052575 0.0
-0.0153995 0.0477623 0.0
-0.0145672 0.0432 0.0
-0.0137843 0.0388746 0.0
-0.0130423 0.0347745 0.0
-0.0123323 0.0308902 0.0
-0.0116445 0.0272142 0.0
-0.0109684 0.0237417 0.0
-0.0102926 0.0204706 0.0
-0.00960491 0.0174015 0.0
-0.00889254 0.0145384 0.0
-0.00814267 0.0118881 0.0
-0.00734312 0.00946065 0.0
-0.00648347 0.00726856 0.0
-0.00555686 0.00532681 0.0
-0.00456261 0.00365224 0.0
-0.0035101 0.00226327 0.0
-0.00242425 0.00117578 0.0
-0.00135129 0.000411155 0.0
-0.00037123 5.66593e-05 0.0
0.768204 0.0127152 0.0
0.412578 0.0558701 0.0
0.186632 0.114446 0.0
0.0542902 0.161788 0.0
-0.0189579 0.19543 0.0
-0.0562148 0.215982 0.0
-0.0731805 0.226339 0.0
-0.0791288 0.229328 0.0
-0.079292 0.2272 0.0
-0.0765671 0.221644 0.0
-0.072534 0.213878 0.0
-0.0680361 0.204755 0.0
-0.0635087 0.19487 0.0
-0.0591644 0.184629 0.0
-0.0550956 0.174309 0.0
-0.0513318 0.164093 0.0
-0.0478711 0.154103 0.0
-0.0446966 0.144418 0.0
-0.0417856 0.135084 0.0
-0.039114 0.126128 0.0
-0.0366586 0.117563 0.0
-0.0343982 0.10939 0.0
-0.0323136 0.101606 0.0
-0.0303879 0.0942006 0.0
-0.0286061 0.0871626 0.0
-0.0269551 0.0804777 0.0
-0.0254232 0.0741307 0.0
-0.0239998 0.0681058 0.0
-0.0226751 0.0623872 0.0
-0.0214399 0.0569592 0.0
-0.0202852 0.0518069 0.0
-0.0192017 0.0469162 0.0
-0.01818 0.0422743 0.0
-0.0172099 0.0378698 0.0
-0.0162802 0.0336931 0.0
-0.0153791 0.0297367 0.0
-0.0144933 0.0259956 0.0
-0.0136087 0.0224673 0.0
-0.01271 0.0191522 0.0
-0.0117815 0.0160536 0.0
-0.0108072 0.0131783 0.0
-0.00977203 0.0105358 0.0
-0.00866276 0.00813882 0.0
-0.00747017 0.00600302 0.0
-0.00619138 0.00414687 0.0
-0.00483352 0.00259215 0.0
-0.0034182 0.00135999 0.0
-0.00198603 0.00048126 0.0
-0.000605383 6.7817e-05 0.0
0.795207 0.00863378 0.0
0.462385 0.0433962 0.0
0.236381 0.0944451 0.0
0.0945202 0.138855 0.0
0.00962934 0.173032 0.0
-0.038688 0.196631 0.0
-0.0643048 0.210718 0.0
-0.0766388 0.217536 0.0
-0.08134 0.218946 0.0
-0.0817401 0.216462 0.0
-0.079788 0.211255 0.0
-0.076616 0.204199 0.0
-0.0728759 0.195939 0.0
-0.0689385 0.186942 0.0
-0.0650108 0.177546 0.0
-0.0612042 0.167993 0.0
-0.0575751 0.158456 0.0
-0.0541483 0.149053 0.0
-0.0509305 0.139869 0.0
-0.0479188 0.13096 0.0
-0.0451049 0.122361 0.0
-0.0424783 0.114093 0.0
-0.0400272 0.106169 0.0
-0.0377401 0.0985913 0.0
-0.0356058 0.0913575 0.0
-0.0336135 0.0844614 0.0
-0.0317533 0.0778939 0.0
-0.0300154 0.0716437 0.0
-0.0283906 0.0656986 0.0
-0.0268695 0.0600457 0.0
-0.0254426 0.054672 0.0
-0.0241 0.0495647 0.0
-0.0228309 0.044712 0.0
-0.0216237 0.040103 0.0
-0.0204655 0.0357284 0.0
-0.0193421 0.0315808 0.0
-0.018238 0.0276549 0.0
-0.0171362 0.0239479 0.0
-0.0160187 0.0204599 0.0
-0.0148665 0.0171939 0.0
-0.0136606 0.014156 0.0
-0.0123826 0.0113558 0.0
-0.0110162 0.00880604 0.0
-0.00954871 0.00652321 0.0
-0.00797392 0.00452766 0.0
-0.00629461 0.00284459 0.0
-0.00452641 0.00150022 0.0
-0.00270092 0.000533632 0.0
-0.000871564 7.57503e-05 0.0
0.815963 0.00609812 0.0
0.504207 0.0344571 0.0
0.280975 0.0788033 0.0
0.132929 0.119736 0.0
0.0389417 0.15315 0.0
-0.0186882 0.178047 0.0
-0.0523108 0.194529 0.0
-0.0709449 0.204113 0.0
-0.0803981 0.208298 0.0
-0.084279 0.208385 0.0
-0.0848109 0.205443 0.0
-0.0833618 0.200315 0.0
-0.0807728 0.193651 0.0
-0.0775616 0.185947 0.0
-0.0740469 0.177576 0.0
-0.0704241 0.168817 0.0
-0.0668127 0.159881 0.0
-0.0632841 0.150919 0.0
-0.05988 0.142046 0.0
-0.0566235 0.133341 0.0
-0.0535256 0.124864 0.0
-0.05059 0.116652 0.0
-0.0478159 0.108732 0.0
-0.0451998 0.10112 0.0
-0.0427362 0.0938217 0.0
-0.040419 0.0868402 0.0
-0.0382411 0.080172 0.0
-0.0361952 0.073811 0.0
-0.0342732 0.0677487 0.0
-0.0324666 0.0619751 0.0
-0.0307663 0.0564794 0.0
-0.0291618 0.0512504 0.0
-0.0276418 0.0462773 0.0
-0.0261935 0.0415501 0.0
-0.0248025 0.0370596 0.0
-0.0234527 0.0327986 0.0
-0.0221262 0.0287616 0.0
-0.0208037 0.0249457 0.0
-0.0194641 0.0213503 0.0
-0.0180854 0.0179781 0.0
-0.0166454 0.014835 0.0
-0.015122 0.0119301 0.0
-0.0134952 0.00927671 0.0
-0.0117484 0.006892 0.0
-0.00987049 0.0047982 0.0
-0.00785836 0.00302365 0.0
-0.00571962 0.001599 0.0
-0.00347476 0.000569889 0.0
-0.0011606 8.09803e-05 0.0
0.832367 0.00448044 0.0
0.539583 0.0279155 0.0
0.320738 0.0664728 0.0
0.168942 0.103835 0.0
0.0679454 0.135788 0.0
0.00263688 0.16083 0.0
-0.0382559 0.178744 0.0
-0.0628931 0.190229 0.0
-0.0770912 0.196512 0.0
-0.0846121 0.19867 0.0
-0.0878703 0.197647 0.0
-0.0884168 0.194226 0.0
-0.0872505 0.189037 0.0
-0.0850188 0.182577 0.0
-0.0821435 0.175235 0.0
-0.0789015 0.167313 0.0
-0.075475 0.159045 0.0
-0.0719845 0.150608 0.0
-0.0685095 0.142139 0.0
-0.0651018 0.13374 0.0
-0.0617951 0.125487 0.0
-0.0586103 0.117434 0.0
-0.05556 0.109621 0.0
-0.0526508 0.102075 0.0
-0.0498854 0.0948119 0.0
-0.0472635 0.0878414 0.0
-0.0447827 0.0811665 0.0
-0.0424389 0.0747856 0.0
-0.0402267 0.0686942 0.0
-0.038139 0.0628852 0.0
-0.0361675 0.0573497 0.0
-0.0343022 0.0520784 0.0
-0.0325314 0.0470615 0.0
-0.0308415 0.0422894 0.0
-0.029217 0.0377535 0.0
-0.0276401 0.0334466 0.0
-0.026091 0.029363 0.0
-0.0245476 0.0254994 0.0
-0.0229863 0.021855 0.0
-0.0213819 0.0184318 0.0
-0.0197086 0.0152353 0.0
-0.0179408 0.0122747 0.0
-0.0160541 0.00956337 0.0
-0.0140271 0.00711925 0.0
-0.0118428 0.00496618 0.0
-0.0094911 0.00313511 0.0
-0.00697009 0.00166023 0.0
-0.00428796 0.000591973 0.0
-0.00146445 8.39861e-05 0.0
0.845639 0.00341505 0.0
0.569748 0.0230247 0.0
0.35614 0.0566558 0.0
0.202335 0.0905994 0.0
0.0959834 0.120758 0.0
0.0243106 0.145312 0.0
-0.0229588 0.163866 0.0
-0.0531787 0.176588 0.0
-0.0719753 0.184398 0.0
-0.0831586 0.188171 0.0
-0.0892648 0.188723 0.0
-0.0919794 0.186764 0.0
-0.0924282 0.182882 0.0
-0.0913685 0.177563 0.0
-0.089314 0.171196 0.0
-0.0866166 0.164093 0.0
-0.0835193 0.156503 0.0
-0.0801908 0.148622 0.0
-0.0767492 0.140602 0.0
-0.0732772 0.132562 0.0
-0.0698327 0.124593 0.0
-0.0664561 0.116765 0.0
-0.0631754 0.109127 0.0
-0.0600092 0.101718 0.0
-0.0569699 0.0945608 0.0
-0.0540647 0.0876728 0.0
-0.0512971 0.0810622 0.0
-0.0486676 0.0747321 0.0
-0.0461738 0.0686813 0.0
-0.0438113 0.0629053 0.0
-0.0415731 0.0573973 0.0
-0.0394502 0.0521493 0.0
-0.037431 0.0471524 0.0
-0.0355015 0.0423976 0.0
-0.0336453 0.0378766 0.0
-0.0318432 0.0335819 0.0
-0.0300734 0.0295077 0.0
-0.0283118 0.0256504 0.0
-0.0265318 0.0220084 0.0
-0.0247051 0.0185835 0.0
-0.0228024 0.0153807 0.0
-0.0207939 0.0124089 0.0
-0.0186505 0.00968166 0.0
-0.0163454 0.00721742 0.0
-0.0138552 0.00504121 0.0
-0.0111616 0.00318592 0.0
-0.00825238 0.00168826 0.0
-0.00512297 0.00060183 0.0
-0.0017762 8.5177e-05 0.0
0.856595 0.00268833 0.0
0.595681 0.0192899 0.0
0.387685 0.0487531 0.0
0.233118 0.079535 0.0
0.122719 0.107769 0.0
0.0457417 0.131495 0.0
-0.00703595 0.150126 0.0
-0.0423638 0.163585 0.0
-0.0655232 0.172455 0.0
-0.0802981 0.177453 0.0
-0.089286 0.179267 0.0
-0.0942645 0.178525 0.0
-0.0964565 0.175771 0.0
-0.0967096 0.171463 0.0
-0.0956165 0.165983 0.0
-0.0935964 0.159645 0.0
-0.0909483 0.152706 0.0
-0.0878877 0.145371 0.0
-0.0845707 0.137807 0.0
-0.0811113 0.130146 0.0
-0.0775929 0.122491 0.0
-0.0740767 0.114923 0.0
-0.0706074 0.107502 0.0
-0.0672176 0.100275 0.0
-0.0639306 0.0932723 0.0
-0.0607624 0.0865174 0.0
-0.0577236 0.0800236 0.0
-0.05482 0.0737977 0.0
-0.0520537 0.0678415 0.0
-0.0494231 0.0621529 0.0
-0.0469235 0.0567266 0.0
-0.0445472 0.0515557 0.0
-0.0422831 0.046632 0.0
-0.0401174 0.0419468 0.0
-0.0380328 0.0374918 0.0
-0.036009 0.0332593 0.0
-0.0340225 0.0292433 0.0
-0.0320469 0.0254392 0.0
-0.0300531 0.0218454 0.0
-0.0280096 0.0184628 0.0
-0.0258832 0.0152959 0.0
-0.0236398 0.0123533 0.0
-0.0212455 0.00964831 0.0
-0.0186674 0.00719979 0.0
-0.015875 0.00503339 0.0
-0.0128413 0.00318315 0.0
-0.0095437 0.00168733 0.0
-0.00596438 0.000601241 0.0
-0.00208997 8.48898e-05 0.0
0.865792 0.0021745 0.0
0.618154 0.0163802 0.0
0.415856 0.0423179 0.0
0.261409 0.0702273 0.0
0.147999 0.0965261 0.0
0.0666376 0.119224 0.0
0.00915892 0.137535 0.0
-0.030848 0.151389 0.0
-0.0581081 0.160964 0.0
-0.0763524 0.166871 0.0
-0.0881981 0.169677 0.0
-0.0954811 0.16993 0.0
-0.0994954 0.168124 0.0
-0.10116 0.164689 0.0
-0.101134 0.159993 0.0
-0.0998961 0.154345 0.0
-0.0977953 0.148004 0.0
-0.0950907 0.141183 0.0
-0.0919753 0.134058 0.0
-0.0885942 0.126771 0.0
-0.0850567 0.119435 0.0
-0.0814458 0.11214 0.0
-0.0778243 0.104956 0.0
-0.0742397 0.097936 0.0
-0.0707274 0.0911187 0.0
-0.0673137 0.0845313 0.0
-0.0640171 0.0781915 0.0
-0.0608498 0.0721095 0.0
-0.0578188 0.0662895 0.0
-0.0549263 0.0607309 0.0
-0.0521703 0.0554299 0.0
-0.0495448 0.0503802 0.0
-0.0470399 0.0455738 0.0
-0.0446417 0.0410022 0.0
-0.0423328 0.0366569 0.0
-0.0400917 0.0325297 0.0
-0.0378935 0.028614 0.0
-0.0357096 0.0249047 0.0
-0.0335082 0.0213993 0.0
-0.0312546 0.0180981 0.0
-0.0289118 0.015005 0.0
-0.0264414 0.0121278 0.0
-0.0238039 0.00947971 0.0
-0.0209602 0.00707931 0.0
-0.0178726 0.00495243 0.0
-0.0145049 0.00313347 0.0
-0.0108239 0.00166133 0.0
-0.00679881 0.000591756 0.0
-0.0024008 8.33931e-05 0.0
0.873621 0.00179878 0.0
0.637775 0.0140727 0.0
0.441085 0.0370227 0.0
0.287377 0.0623545 0.0
0.171767 0.086791 0.0
0.0867677 0.108372 0.0
0.0251655 0.126197 0.0
-0.0189673 0.140097 0.0
-0.0500337 0.1501 0.0
-0.0715915 0.156652 0.0
-0.086233 0.160215 0.0
-0.095822 0.161263 0.0
-0.101701 0.160239 0.0
-0.104844 0.157541 0.0
-0.105963 0.153519 0.0
-0.105588 0.148475 0.0
-0.104112 0.142666 0.0
-0.101835 0.13631 0.0
-0.0989847 0.129589 0.0
-0.095736 0.122653 0.0
-0.0922247 0.115624 0.0
-0.088556 0.108599 0.0
-0.0848117 0.101657 0.0
-0.0810552 0.0948565 0.0
-0.0773356 0.0882413 0.0
-0.0736898 0.0818432 0.0
-0.0701455 0.0756832 0.0
-0.0667222 0.0697741 0.0
-0.0634324 0.0641217 0.0
-0.0602827 0.0587269 0.0
-0.0572743 0.0535864 0.0
-0.0544033 0.048694 0.0
-0.0516611 0.0440419 0.0
-0.0490343 0.0396213 0.0
-0.0465053 0.035423 0.0
-0.0440518 0.0314384 0.0
-0.0416474 0.0276599 0.0
-0.0392615 0.0240818 0.0
-0.0368596 0.0207006 0.0
-0.0344039 0.0175158 0.0
-0.0318534 0.0145302 0.0
-0.029165 0.0117512 0.0
-0.0262939 0.00919101 0.0
-0.0231946 0.00686786 0.0
-0.0198215 0.0048071 0.0
-0.0161298 0.00304281 0.0
-0.0120752 0.00161363 0.0
-0.00761466 0.000574668 0.0
-0.00270448 8.08949e-05 0.0
0.880366 0.0015155 0.0
0.655025 0.0122127 0.0
0.463753 0.0326196 0.0
0.311216 0.0556481 0.0
0.194051 0.078322 0.0
0.106052 0.098747 0.0
0.0408658 0.115964 0.0
-0.0069635 0.129716 0.0
-0.0415483 0.139936 0.0
-0.0662434 0.146916 0.0
-0.0835921 0.151039 0.0
-0.0954609 0.152707 0.0
-0.10322 0.152313 0.0
-0.107882 0.150224 0.0
-0.110203 0.146767 0.0
-0.110751 0.142237 0.0
-0.109962 0.136887 0.0
-0.108169 0.130938 0.0
-0.105634 0.124576 0.0
-0.102561 0.117957 0.0
-0.0991111 0.111211 0.0
-0.0954128 0.104444 0.0
-0.0915677 0.0977374 0.0
-0.087656 0.0911571 0.0
-0.0837411 0.0847514 0.0
-0.0798721 0.0785553 0.0
-0.0760864 0.0725925 0.0
-0.0724114 0.0668774 0.0
-0.068866 0.0614171 0.0
-0.0654617 0.0562129 0.0
-0.0622033 0.0512616 0.0
-0.0590892 0.0465569 0.0
-0.0561126 0.0420905 0.0
-0.0532607 0.0378529 0.0
-0.0505157 0.0338341 0.0
-0.0478547 0.0300247 0.0
-0.04525 0.0264161 0.0
-0.0426688 0.0230015 0.0
-0.0400742 0.0197763 0.0
-0.037425 0.016739 0.0
-0.0346763 0.0138914 0.0
-0.0317805 0.0112399 0.0
-0.028687 0.00879562 0.0
-0.0253441 0.00657586 0.0
-0.0216983 0.00460505 0.0
-0.0176959 0.00291621 0.0
-0.0132821 0.00154701 0.0
-0.00840184 0.000551021 0.0
-0.0029974 7.75514e-05 0.0
0.886236 0.00129605 0.0
0.670288 0.0106912 0.0
0.484187 0.0289219 0.0
0.333112 0.0498958 0.0
0.214897 0.0709214 0.0
0.124427 0.0901922 0.0
0.0561237 0.106727 0.0
0.00502322 0.120169 0.0
-0.0328283 0.130463 0.0
-0.0604871 0.137707 0.0
-0.0804437 0.142231 0.0
-0.0945499 0.144371 0.0
-0.104187 0.144473 0.0
-0.110392 0.142871 0.0
-0.113952 0.139876 0.0
-0.11547 0.13577 0.0
-0.115413 0.130803 0.0
-0.114148 0.125197 0.0
-0.111967 0.119143 0.0
-0.109101 0.112801 0.0
-0.105739 0.106309 0.0
-0.102031 0.0997767 0.0
-0.098099 0.0932932 0.0
-0.0940418 0.0869277 0.0
-0.0899378 0.0807326 0.0
-0.0858491 0.0747453 0.0
-0.0818236 0.0689914 0.0
-0.0778977 0.0634863 0.0
-0.074097 0.0582374 0.0
-0.0704383 0.0532459 0.0
-0.0669303 0.0485082 0.0
-0.0635743 0.0440173 0.0
-0.060365 0.039764 0.0
-0.0572906 0.0357376 0.0
-0.0543334 0.0319271 0.0
-0.0514698 0.0283219 0.0
-0.0486706 0.0249122 0.0
-0.0459012 0.02169 0.0
-0.043122 0.0186496 0.0
-0.0402887 0.0157879 0.0
-0.0373524 0.0131058 0.0
-0.0342607 0.0106082 0.0
-0.0309578 0.00830503 0.0
-0.0273851 0.0062122 0.0
-0.0234818 0.00435267 0.0
-0.0191854 0.00275784 0.0
-0.0144309 0.00146375 0.0
-0.00915156 0.000521628 0.0
-0.00327645 7.34748e-05 0.0
0.891388 0.00112198 0.0
0.68387 0.00942986 0.0
0.502667 0.0257876 0.0
0.353243 0.0449288 0.0
0.234375 0.0644269 0.0
0.141873 0.0825761 0.0
0.0708491 0.0983945 0.0
0.0167949 0.111453 0.0
-0.0240238 0.121664 0.0
-0.0544693 0.129038 0.0
-0.0769301 0.133828 0.0
-0.0932219 0.136309 0.0
-0.104722 0.136785 0.0
-0.112481 0.135561 0.0
-0.117306 0.132928 0.0
-0.119826 0.129159 0.0
-0.120536 0.1245 0.0
-0.119831 0.119172 0.0
-0.118031 0.113371 0.0
-0.115396 0.107263 0.0
-0.112137 0.10099 0.0
-0.10843 0.0946679 0.0