# vtk DataFile Version 3.0
Malha 2D com triângulos e temperatura
ASCII
DATASET UNSTRUCTURED_GRID

POINTS 961 double
0 0 0
1 0 0
1 1 0
0 1 0
0.0333333 0 0
0.0666667 0 0
0.1 0 0
0.133333 0 0
0.166667 0 0
0.2 0 0
0.233333 0 0
0.266667 0 0
0.3 0 0
0.333333 0 0
0.366667 0 0
0.4 0 0
0.433333 0 0
0.466667 0 0
0.5 0 0
0.533333 0 0
0.566667 0 0
0.6 0 0
0.633333 0 0
0.666667 0 0
0.7 0 0
0.733333 0 0
0.766667 0 0
0.8 0 0
0.833333 0 0
0.866667 0 0
0.9 0 0
0.933333 0 0
0.966667 0 0
1 0.0333333 0
1 0.0666667 0
1 0.1 0
1 0.133333 0
1 0.166667 0
1 0.2 0
1 0.233333 0
1 0.266667 0
1 0.3 0
1 0.333333 0
1 0.366667 0
1 0.4 0
1 0.433333 0
1 0.466667 0
1 0.5 0
1 0.533333 0
1 0.566667 0
1 0.6 0
1 0.633333 0
1 0.666667 0
1 0.7 0
1 0.733333 0
1 0.766667 0
1 0.8 0
1 0.833333 0
1 0.866667 0
1 0.9 0
1 0.933333 0
1 0.966667 0
0.966667 1 0
0.933333 1 0
0.9 1 0
0.866667 1 0
0.833333 1 0
0.8 1 0
0.766667 1 0
0.733333 1 0
0.7 1 0
0.666667 1 0
0.633333 1 0
0.6 1 0
0.566667 1 0
0.533333 1 0
0.5 1 0
0.466667 1 0
0.433333 1 0
0.4 1 0
0.366667 1 0
0.333333 1 0
0.3 1 0
0.266667 1 0
0.233333 1 0
0.2 1 0
0.166667 1 0
0.133333 1 0
0.1 1 0
0.0666667 1 0
0.0333333 1 0
0 0.966667 0
0 0.933333 0
0 0.9 0
0 0.866667 0
0 0.833333 0
0 0.8 0
0 0.766667 0
0 0.733333 0
0 0.7 0
0 0.666667 0
0 0.633333 0
0 0.6 0
0 0.566667 0
0 0.533333 0
0 0.5 0
0 0.466667 0
0 0.433333 0
0 0.4 0
0 0.366667 0
0 0.333333 0
0 0.3 0
0 0.266667 0
0 0.233333 0
0 0.2 0
0 0.166667 0
0 0.133333 0
0 0.1 0
0 0.0666667 0
0 0.0333333 0
0.0333333 0.0333333 0
0.0333333 0.0666667 0
0.0333333 0.1 0
0.0333333 0.133333 0
0.0333333 0.166667 0
0.0333333 0.2 0
0.0333333 0.233333 0
0.0333333 0.266667 0
0.0333333 0.3 0
0.0333333 0.333333 0
0.0333333 0.366667 0
0.0333333 0.4 0
0.0333333 0.433333 0
0.0333333 0.466667 0
0.0333333 0.5 0
0.0333333 0.533333 0
0.0333333 0.566667 0
0.0333333 0.6 0
0.0333333 0.633333 0
0.0333333 0.666667 0
0.0333333 0.7 0
0.0333333 0.733333 0
0.0333333 0.766667 0
0.0333333 0.8 0
0.0333333 0.833333 0
0.0333333 0.866667 0
0.0333333 0.9 0
0.0333333 0.933333 0
0.0333333 0.966667 0
0.0666667 0.0333333 0
0.0666667 0.0666667 0
0.0666667 0.1 0
0.0666667 0.133333 0
0.0666667 0.166667 0
0.0666667 0.2 0
0.0666667 0.233333 0
0.0666667 0.266667 0
0.0666667 0.3 0
0.0666667 0.333333 0
0.0666667 0.366667 0
0.0666667 0.4 0
0.0666667 0.433333 0
0.0666667 0.466667 0
0.0666667 0.5 0
0.0666667 0.533333 0
0.0666667 0.566667 0
0.0666667 0.6 0
0.0666667 0.633333 0
0.0666667 0.666667 0
0.0666667 0.7 0
0.0666667 0.733333 0
0.0666667 0.766667 0
0.0666667 0.8 0
0.0666667 0.833333 0
0.0666667 0.866667 0
0.0666667 0.9 0
0.0666667 0.933333 0
0.0666667 0.966667 0
0.1 0.0333333 0
0.1 0.0666667 0
0.1 0.1 0
0.1 0.133333 0
0.1 0.166667 0
0.1 0.2 0
0.1 0.233333 0
0.1 0.266667 0
0.1 0.3 0
0.1 0.333333 0
0.1 0.366667 0
0.1 0.4 0
0.1 0.433333 0
0.1 0.466667 0
0.1 0.5 0
0.1 0.533333 0
0.1 0.566667 0
0.1 0.6 0
0.1 0.633333 0
0.1 0.666667 0
0.1 0.7 0
0.1 0.733333 0
0.1 0.766667 0
0.1 0.8 0
0.1 0.833333 0
0.1 0.866667 0
0.1 0.9 0
0.1 0.933333 0
0.1 0.966667 0
0.133333 0.0333333 0
0.133333 0.0666667 0
0.133333 0.1 0
0.133333 0.133333 0
0.133333 0.166667 0
0.133333 0.2 0
0.133333 0.233333 0
0.133333 0.266667 0
0.133333 0.3 0
0.133333 0.333333 0
0.133333 0.366667 0
0.133333 0.4 0
0.133333 0.433333 0
0.133333 0.466667 0
0.133333 0.5 0
0.133333 0.533333 0
0.133333 0.566667 0
0.133333 0.6 0
0.133333 0.633333 0
0.133333 0.666667 0
0.133333 0.7 0
0.133333 0.733333 0
0.133333 0.766667 0
0.133333 0.8 0
0.133333 0.833333 0
0.133333 0.866667 0
0.133333 0.9 0
0.133333 0.933333 0
0.133333 0.966667 0
0.166667 0.0333333 0
0.166667 0.0666667 0
0.166667 0.1 0
0.166667 0.133333 0
0.166667 0.166667 0
0.166667 0.2 0
0.166667 0.233333 0
0.166667 0.266667 0
0.166667 0.3 0
0.166667 0.333333 0
0.166667 0.366667 0
0.166667 0.4 0
0.166667 0.433333 0
0.166667 0.466667 0
0.166667 0.5 0
0.166667 0.533333 0
0.166667 0.566667 0
0.166667 0.6 0
0.166667 0.633333 0
0.166667 0.666667 0
0.166667 0.7 0
0.166667 0.733333 0
0.166667 0.766667 0
0.166667 0.8 0
0.166667 0.833333 0
0.166667 0.866667 0
0.166667 0.9 0
0.166667 0.933333 0
0.166667 0.966667 0
0.2 0.0333333 0
0.2 0.0666667 0
0.2 0.1 0
0.2 0.133333 0
0.2 0.166667 0
0.2 0.2 0
0.2 0.233333 0
0.2 0.266667 0
0.2 0.3 0
0.2 0.333333 0
0.2 0.366667 0
0.2 0.4 0
0.2 0.433333 0
0.2 0.466667 0
0.2 0.5 0
0.2 0.533333 0
0.2 0.566667 0
0.2 0.6 0
0.2 0.633333 0
0.2 0.666667 0
0.2 0.7 0
0.2 0.733333 0
0.2 0.766667 0
0.2 0.8 0
0.2 0.833333 0
0.2 0.866667 0
0.2 0.9 0
0.2 0.933333 0
0.2 0.966667 0
0.233333 0.0333333 0
0.233333 0.0666667 0
0.233333 0.1 0
0.233333 0.133333 0
0.233333 0.166667 0
0.233333 0.2 0
0.233333 0.233333 0
0.233333 0.266667 0
0.233333 0.3 0
0.233333 0.333333 0
0.233333 0.366667 0
0.233333 0.4 0
0.233333 0.433333 0
0.233333 0.466667 0
0.233333 0.5 0
0.233333 0.533333 0
0.233333 0.566667 0
0.233333 0.6 0
0.233333 0.633333 0
0.233333 0.666667 0
0.233333 0.7 0
0.233333 0.733333 0
0.233333 0.766667 0
0.233333 0.8 0
0.233333 0.833333 0
0.233333 0.866667 0
0.233333 0.9 0
0.233333 0.933333 0
0.233333 0.966667 0
0.266667 0.0333333 0
0.266667 0.0666667 0
0.266667 0.1 0
0.266667 0.133333 0
0.266667 0.166667 0
0.266667 0.2 0
0.266667 0.233333 0
0.266667 0.266667 0
0.266667 0.3 0
0.266667 0.333333 0
0.266667 0.366667 0
0.266667 0.4 0
0.266667 0.433333 0
0.266667 0.466667 0
0.266667 0.5 0
0.266667 0.533333 0
0.266667 0.566667 0
0.266667 0.6 0
0.266667 0.633333 0
0.266667 0.666667 0
0.266667 0.7 0
0.266667 0.733333 0
0.266667 0.766667 0
0.266667 0.8 0
0.266667 0.833333 0
0.266667 0.866667 0
0.266667 0.9 0
0.266667 0.933333 0
0.266667 0.966667 0
0.3 0.0333333 0
0.3 0.0666667 0
0.3 0.1 0
0.3 0.133333 0
0.3 0.166667 0
0.3 0.2 0
0.3 0.233333 0
0.3 0.266667 0
0.3 0.3 0
0.3 0.333333 0
0.3 0.366667 0
0.3 0.4 0
0.3 0.433333 0
0.3 0.466667 0
0.3 0.5 0
0.3 0.533333 0
0.3 0.566667 0
0.3 0.6 0
0.3 0.633333 0
0.3 0.666667 0
0.3 0.7 0
0.3 0.733333 0
0.3 0.766667 0
0.3 0.8 0
0.3 0.833333 0
0.3 0.866667 0
0.3 0.9 0
0.3 0.933333 0
0.3 0.966667 0
0.333333 0.0333333 0
0.333333 0.0666667 0
0.333333 0.1 0
0.333333 0.133333 0
0.333333 0.166667 0
0.333333 0.2 0
0.333333 0.233333 0
0.333333 0.266667 0
0.333333 0.3 0
0.333333 0.333333 0
0.333333 0.366667 0
0.333333 0.4 0
0.333333 0.433333 0
0.333333 0.466667 0
0.333333 0.5 0
0.333333 0.533333 0
0.333333 0.566667 0
0.333333 0.6 0
0.333333 0.633333 0
0.333333 0.666667 0
0.333333 0.7 0
0.333333 0.733333 0
0.333333 0.766667 0
0.333333 0.8 0
0.333333 0.833333 0
0.333333 0.866667 0
0.333333 0.9 0
0.333333 0.933333 0
0.333333 0.966667 0
0.366667 0.0333333 0
0.366667 0.0666667 0
0.366667 0.1 0
0.366667 0.133333 0
0.366667 0.166667 0
0.366667 0.2 0
0.366667 0.233333 0
0.366667 0.266667 0
0.366667 0.3 0
0.366667 0.333333 0
0.366667 0.366667 0
0.366667 0.4 0
0.366667 0.433333 0
0.366667 0.466667 0
0.366667 0.5 0
0.366667 0.533333 0
0.366667 0.566667 0
0.366667 0.6 0
0.366667 0.633333 0
0.366667 0.666667 0
0.366667 0.7 0
0.366667 0.733333 0
0.366667 0.766667 0
0.366667 0.8 0
0.366667 0.833333 0
0.366667 0.866667 0
0.366667 0.9 0
0.366667 0.933333 0
0.366667 0.966667 0
0.4 0.0333333 0
0.4 0.0666667 0
0.4 0.1 0
0.4 0.133333 0
0.4 0.166667 0
0.4 0.2 0
0.4 0.233333 0
0.4 0.266667 0
0.4 0.3 0
0.4 0.333333 0
0.4 0.366667 0
0.4 0.4 0
0.4 0.433333 0
0.4 0.466667 0
0.4 0.5 0
0.4 0.533333 0
0.4 0.566667 0
0.4 0.6 0
0.4 0.633333 0
0.4 0.666667 0
0.4 0.7 0
0.4 0.733333 0
0.4 0.766667 0
0.4 0.8 0
0.4 0.833333 0
0.4 0.866667 0
0.4 0.9 0
0.4 0.933333 0
0.4 0.966667 0
0.433333 0.0333333 0
0.433333 0.0666667 0
0.433333 0.1 0
0.433333 0.133333 0
0.433333 0.166667 0
0.433333 0.2 0
0.433333 0.233333 0
0.433333 0.266667 0
0.433333 0.3 0
0.433333 0.333333 0
0.433333 0.366667 0
0.433333 0.4 0
0.433333 0.433333 0
0.433333 0.466667 0
0.433333 0.5 0
0.433333 0.533333 0
0.433333 0.566667 0
0.433333 0.6 0
0.433333 0.633333 0
0.433333 0.666667 0
0.433333 0.7 0
0.433333 0.733333 0
0.433333 0.766667 0
0.433333 0.8 0
0.433333 0.833333 0
0.433333 0.866667 0
0.433333 0.9 0
0.433333 0.933333 0
0.433333 0.966667 0
0.466667 0.0333333 0
0.466667 0.0666667 0
0.466667 0.1 0
0.466667 0.133333 0
0.466667 0.166667 0
0.466667 0.2 0
0.466667 0.233333 0
0.466667 0.266667 0
0.466667 0.3 0
0.466667 0.333333 0
0.466667 0.366667 0
0.466667 0.4 0
0.466667 0.433333 0
0.466667 0.466667 0
0.466667 0.5 0
0.466667 0.533333 0
0.466667 0.566667 0
0.466667 0.6 0
0.466667 0.633333 0
0.466667 0.666667 0
0.466667 0.7 0
0.466667 0.733333 0
0.466667 0.766667 0
0.466667 0.8 0
0.466667 0.833333 0
0.466667 0.866667 0
0.466667 0.9 0
0.466667 0.933333 0
0.466667 0.966667 0
0.5 0.0333333 0
0.5 0.0666667 0
0.5 0.1 0
0.5 0.133333 0
0.5 0.166667 0
0.5 0.2 0
0.5 0.233333 0
0.5 0.266667 0
0.5 0.3 0
0.5 0.333333 0
0.5 0.366667 0
0.5 0.4 0
0.5 0.433333 0
0.5 0.466667 0
0.5 0.5 0
0.5 0.533333 0
0.5 0.566667 0
0.5 0.6 0
0.5 0.633333 0
0.5 0.666667 0
0.5 0.7 0
0.5 0.733333 0
0.5 0.766667 0
0.5 0.8 0
0.5 0.833333 0
0.5 0.866667 0
0.5 0.9 0
0.5 0.933333 0
0.5 0.966667 0
0.533333 0.0333333 0
0.533333 0.0666667 0
0.533333 0.1 0
0.533333 0.133333 0
0.533333 0.166667 0
0.533333 0.2 0
0.533333 0.233333 0
0.533333 0.266667 0
0.533333 0.3 0
0.533333 0.333333 0
0.533333 0.366667 0
0.533333 0.4 0
0.533333 0.433333 0
0.533333 0.466667 0
0.533333 0.5 0
0.533333 0.533333 0
0.533333 0.566667 0
0.533333 0.6 0
0.533333 0.633333 0
0.533333 0.666667 0
0.533333 0.7 0
0.533333 0.733333 0
0.533333 0.766667 0
0.533333 0.8 0
0.533333 0.833333 0
0.533333 0.866667 0
0.533333 0.9 0
0.533333 0.933333 0
0.533333 0.966667 0
0.566667 0.0333333 0
0.566667 0.0666667 0
0.566667 0.1 0
0.566667 0.133333 0
0.566667 0.166667 0
0.566667 0.2 0
0.566667 0.233333 0
0.566667 0.266667 0
0.566667 0.3 0
0.566667 0.333333 0
0.566667 0.366667 0
0.566667 0.4 0
0.566667 0.433333 0
0.566667 0.466667 0
0.566667 0.5 0
0.566667 0.533333 0
0.566667 0.566667 0
0.566667 0.6 0
0.566667 0.633333 0
0.566667 0.666667 0
0.566667 0.7 0
0.566667 0.733333 0
0.566667 0.766667 0
0.566667 0.8 0
0.566667 0.833333 0
0.566667 0.866667 0
0.566667 0.9 0
0.566667 0.933333 0
0.566667 0.966667 0
0.6 0.0333333 0
0.6 0.0666667 0
0.6 0.1 0
0.6 0.133333 0
[...]
CELL_DATA 900
SCALARS pressure double 1
LOOKUP_TABLE default
0
0.000293203
0.000802656
0.00138823
0.00192555
0.00231754
0.002484
0.0023556
0.00187141
0.000978516
-0.000367356
-0.00220039
-0.00454314
-0.00740529
-0.0107832
-0.0146609
-0.0190132
-0.0238109
-0.0290313
-0.034675
-0.0407946
-0.0475493
-0.0553112
-0.0648805
-0.0779434
-0.0980918
-0.13273
-0.196337
-0.329056
-0.61739
-0.000296536
-1.08143e-05
0.000351567
0.000734619
0.00105542
0.00123469
0.00120221
0.000894053
0.000252554
-0.00077287
-0.00222474
-0.00413629
-0.00653033
-0.00941864
-0.0128024
-0.0166739
-0.0210208
-0.0258329
-0.0311138
-0.0368976
-0.0432764
-0.0504424
-0.058757
-0.0688593
-0.0818353
-0.0994477
-0.124244
-0.15865
-0.200574
-0.23067
-0.000789313
-0.000385905
-3.55171e-05
0.000283548
0.000519703
0.000605615
0.000479939
8.39755e-05
-0.000637054
-0.00173216
-0.00324308
-0.00520273
-0.00763398
-0.0105489
-0.0139487
-0.017826
-0.0221673
-0.0269598
-0.0321993
-0.0379032
-0.044127
-0.0509873
-0.0586913
-0.0675716
-0.0781116
-0.0908632
-0.106095
-0.123254
-0.134711
-0.105922
-0.0013329
-0.000781183
-0.00039704
-9.18911e-05
0.000106869
0.000140502
-4.45568e-05
-0.000502028
-0.00128391
-0.0024377
-0.00400437
-0.00601632
-0.00849561
-0.0114527
-0.0148859
-0.0187821
-0.023119
-0.0278687
-0.0330037
-0.0385036
-0.0443633
-0.0506013
-0.0572643
-0.0644249
-0.0721503
-0.0803417
-0.0883661
-0.0953243
-0.0951881
-0.0630704
-0.00181804
-0.00113325
-0.000706456
-0.000398466
-0.000219825
-0.000223588
-0.000457198
-0.000970169
-0.00181201
-0.00302883
-0.00466072
-0.00673925
-0.00928499
-0.0123054
-0.0157933
-0.0197265
-0.0240684
-0.0287698
-0.0337722
-0.039011
-0.0444186
-0.0499247
-0.0554515
-0.0608974
-0.0660949
-0.0706751
-0.073811
-0.0743864
-0.0687415
-0.0384431
-0.00218114
-0.00139595
-0.00093215
-0.000617563
-0.000452957
-0.000488377
-0.000767138
-0.00133571
-0.00224172
-0.00353019
-0.00524054
-0.00740339
-0.0100374
-0.0131461
-0.0167153
-0.0207113
-0.0250802
-0.0297484
-0.0346238
-0.0395982
-0.0445481
-0.049334
-0.0537949
-0.0577328
-0.0608767
-0.06281
-0.0628921
-0.0599
-0.0521894
-0.025445
-0.00238831
-0.00154185
-0.0010567
-0.000742798
-0.00059648
-0.000666668
-0.000994381
-0.0016243
-0.00260304
-0.00397512
-0.00577967
-0.00804669
-0.0107929
-0.0140176
-0.0176991
-0.021791
-0.0262212
-0.030891
-0.0356762
-0.0404292
-0.0449819
-0.0491467
-0.0527159
-0.0554517
-0.057075
-0.0572708
-0.0553456
-0.050698
-0.0426406
-0.0199743
-0.00242257
-0.00155409
-0.00106796
-0.000768226
-0.000650391
-0.000763375
-0.00114743
-0.00184672
-0.00290783
-0.00437568
-0.00628989
-0.00868041
-0.0115626
-0.014932
-0.0187591
-0.0229856
-0.0275211
-0.0322429
-0.0369973
-0.0416033
-0.0458585
-0.0495448
-0.0524329
-0.0542818
-0.0548642
-0.053914
-0.0509121
-0.0455685
-0.0378304
-0.0187755
-0.00227601
-0.00142231
-0.000956699
-0.0006869
-0.0006099
-0.000775181
-0.00122347
-0.00199964
-0.00315137
-0.00472509
-0.00676198
-0.00929304
-0.0123332
-0.015875
-0.0198824
-0.0242855
-0.028977
-0.0338118
-0.0386096
-0.0431611
-0.0472371
-0.0506003
-0.0530098
-0.0542346
-0.0541688
-0.0525203
-0.0490254
-0.0435327
-0.0363548
-0.0202524
-0.00194551
-0.00114046
-0.000716007
-0.000491582
-0.00046727
-0.00069334
-0.00121202
-0.00207006
-0.00331745
-0.0050034
-0.00717201
-0.00985667
-0.0130733
-0.0168129
-0.0210342
-0.025657
-0.0305586
-0.0355735
-0.0404971
-0.0450951
-0.0491173
-0.0523133
-0.0544418
-0.0553187
-0.0548279
-0.0528634
-0.0492083
-0.0438471
-0.0372875
-0.0235657
-0.00143118
-0.000706011
-0.000341273
-0.000175573
-0.000213391
-0.000505869
-0.00109765
-0.00203847
-0.00338185
-0.00518122
-0.00748506
-0.0103308
-0.0137371
-0.0176952
-0.0221603
-0.027044
-0.0322099
-0.0374731
-0.0426066
-0.0473526
-0.0514411
-0.0546069
-0.0565993
-0.0573392
-0.0567037
-0.0546221
-0.0509965
-0.0458996
-0.0399326
-0.0281407
-0.00073675
-0.000120275
0.000168958
0.000265836
0.000160163
-0.000200174
-0.000863099
-0.00188234
-0.00331619
-0.00522366
-0.00765925
-0.0106662
-0.0142678
-0.0184578
-0.02319
-0.0283701
-0.0338495
-0.039426
-0.0448508
-0.0498426
-0.0541113
-0.0573785
-0.0593857
-0.0600917
-0.0594705
-0.0574265
-0.0539443
-0.0491605
-0.0437242
-0.033522
0.000128881
0.000610328
0.000811548
0.000833467
0.0006587
0.000233993
-0.000492669
-0.00157995
-0.0030919
-0.00509456
-0.0076499
-0.0108088
-0.0146013
-0.019026
-0.0240381
-0.0295395
-0.0353721
-0.0413177
-0.0471059
-0.0524315
-0.056981
-0.0604596
-0.0626052
-0.0633959
-0.062863
-0.0609293
-0.0576313
-0.0531505
-0.0481659
-0.0393044
0.0011496
0.00147274
0.00157715
0.00152229
0.00128193
0.000801431
2.39876e-05
-0.0011146
-0.00268473
-0.00476107
-0.00741429
-0.0107045
-0.0146707
-0.0193189
-0.0246084
-0.0304405
-0.0366499
-0.0430043
-0.0492125
-0.0549434
-0.0598537
-0.0636241
-0.065996
-0.0669517
-0.0665456
-0.0647441
-0.0616213
-0.057396
-0.0527766
-0.0450815
0.0023003
0.00244632
0.00244948
0.0023206
0.00202286
0.00149997
0.000689875
-0.000477406
-0.0020787
-0.00419893
-0.00691818
-0.0103068
-0.0144145
-0.0192565
-0.0247999
-0.0309498
-0.0375366
-0.0443163
-0.0509777
-0.0571626
-0.0624898
-0.066608
-0.0692558
-0.0704123
-0.0701348
-0.0684433
-0.065445
-0.0613984
-0.0570536
-0.05041
0.003545
0.003501
0.00340273
0.00320685
0.00286491
0.00231908
0.00150146
0.000334512
-0.00126747
-0.00339524
-0.00613959
-0.00958199
-0.0137832
-0.0187705
-0.0245205
-0.0309459
-0.0378763
-0.045061
-0.0521743
-0.058836
-0.0646117
-0.0691201
-0.0720491
-0.0733771
-0.0731947
-0.0715484
-0.0685834
-0.0646104
-0.0604431
-0.0547845
0.00482972
0.00458813
0.00439087
0.00413687
0.00376546
0.00321777
0.00242093
0.00129106
-0.000265915
-0.00234727
-0.00505573
-0.00848673
-0.0127167
-0.0177896
-0.0236898
-0.0303228
-0.0375238
-0.0450456
-0.0525606
-0.0596764
-0.0658828
-0.0707787
-0.0739688
-0.0754124
-0.0752422
-0.0735238
-0.0704538
-0.0664165
-0.0623202
-0.0576134
0.00609023
0.00565134
0.00536083
0.00505894
0.00467267
0.00414308
0.0033941
0.00233863
0.000878256
-0.0010942
-0.00369231
-0.00702612
-0.0111892
-0.0162417
-0.0221846
-0.0289363
-0.0363396
-0.0441424
-0.0519922
-0.0594137
-0.0659378
-0.0711362
-0.0745151
-0.0760047
-0.0757187
-0.0737566
-0.0703903
-0.0661097
-0.0619599
-0.058178
0.00726115
0.00663699
0.00626346
0.00592529
0.00553831
0.00504498
0.00436811
0.00341968
0.00209953
0.000295603
-0.00211311
-0.00524826
-0.00921937
-0.014106
-0.0199342
-0.0266517
-0.0341138
-0.0420647
-0.0501216
-0.0577675
-0.064553
-0.0699568
-0.0734421
-0.0747819
-0.0740354
-0.0715419
-0.0675979
-0.0627918
-0.0583719
-0.0556894
0.00827378
0.00748881
0.00704634
0.0066834
0.00630738
0.00586394
0.00527763
0.00446271
0.00332104
0.00174061
-0.000402282
-0.00323634
-0.00688338
-0.0114408
-0.0169581
-0.0234112
-0.0306791
-0.0385229
-0.0465709
-0.0543214
-0.0612278
-0.0666997
-0.0701626
-0.071141
-0.0696396
-0.0662526
-0.061347
-0.0557088
-0.0509097
-0.0495578
0.00906331
0.00815471
0.00766056
0.00728309
0.00692532
0.00653826
0.00605137
0.00538493
0.00444727
0.00313195
0.00131859
-0.00112209
-0.00431809
-0.00837981
-0.0133774
-0.0193138
-0.0260973
-0.033515
-0.0412157
-0.0487079
-0.0553999
-0.0606583
-0.0638711
-0.0642693
-0.0617846
-0.0571518
-0.0509342
-0.0442361
-0.0390368
-0.0391188
0.00957728
0.00859398
0.00806789
0.00768388
0.00734588
0.00701242
0.00662113
0.00610203
0.00537449
0.00434343
0.0028989
0.000919153
-0.00172128
-0.0051375
-0.00941328
-0.0145745
-0.020559
-0.0271868
-0.0341365
-0.0409353
-0.0469789
-0.0516091
-0.0541706
-0.05358
-0.0497678
-0.0434543
-0.0355228
-0.0274263
-0.0216066
-0.0232871
0.00978421
0.00878428
0.00824727
0.00786167
0.00753847
0.00724558
0.00693161
0.00653953
0.00600373
0.00524591
0.00417367
0.00268186
0.00065824
-0.00200523
-0.00539426
-0.00954743
-0.0144261
-0.0198819
-0.0256285
-0.0312222
-0.0360659
-0.0394772
-0.0407509
-0.0387706
-0.033217
-0.0245201
-0.0141846
-0.00405838
0.00281629
-0.000675152
0.00968128
0.00872721
0.00819998
0.00781426
0.00749446
0.00721915
0.00694998
0.00664492
0.00625606
0.00572585
0.00498537
0.0039545
0.00254544
0.000671094
-0.00174035
-0.00472383
-0.00824923
-0.012189
-0.0162857
-0.0201266
-0.0231326
-0.0245951
-0.0237851
-0.019884
-0.0117729
0.00021289
0.0140174
0.0272627
0.0360352
0.0305968
0.00929957
0.0084516
0.00795213
0.00756382
0.00723039
0.00694166
0.00667319
0.00639851
0.00608802
0.00570647
0.00521162
0.00455424
0.00368028
0.00253688
0.00108359
-0.000689948
-0.00273941
-0.00493528
-0.00702975
-0.00862653
-0.00915973
-0.00790966
-0.00412714
0.00293753
0.0147866
0.0310648
0.0499675
0.0682113
0.0805521
0.0734549
0.00870585
0.00801309
0.00755314
0.00715487
0.00678617
0.00644796
0.00612935
0.00581816
0.00550137
0.00516434
0.00479082
0.00436367
0.00386707
0.00329136
0.00264198
0.00195384
0.00131217
0.000879982
0.000930531
0.00188073
0.00431988
0.00901617
0.0168445
0.0286411
0.0453081
0.0677634
0.0942949
0.120865
0.140197
0.133206
0.0080002
0.0074898
0.00707045
0.00664867
0.00621963
0.00579476
0.00537508
0.00495979
0.00454838
0.00414196
0.00374516
0.00336853
0.00303184
0.00276944
0.00263861
0.00273239
0.00319805
0.00426229
0.00626313
0.00968699
0.0152065
0.0237084
0.0362748
0.0540469
0.078031
0.10925
0.147099
0.187858
0.221185
0.220208
0.00731004
0.00697554
0.00658391
0.00611984
0.0056062
0.00506383
0.00450307
0.00393047
0.00335249
0.00277905
0.00222742
0.00172666
0.00132283
0.001086
0.0011198
0.00157466
0.00266618
0.00470009
0.00810551
0.0134779
0.0216319
0.0336592
0.0509742
0.0752946
0.108448
0.151919
0.206311
0.269595
0.329961
0.351703
0.00678914
0.0065751
0.00617116
0.00562834
0.00499593
0.00430339
0.00356652
0.00279379
0.00199179
0.00117085
0.000350702
-0.000433383
-0.0011234
-0.00162959
-0.00181875
-0.00149873
-0.000398025
0.00186133
0.00579969
0.0121284
0.0218161
0.0361795
0.0570007
0.0866737
0.128333
0.185578
0.261337
0.357901
0.476415
0.582846
0.00658403
0.00637804
0.00586597
0.00515135
0.00431386
0.00339286
0.00240364
0.00134749
0.000220586
-0.000978142
-0.00223997
-0.00353925
-0.00482539
-0.00601278
-0.00696791
-0.00749218
-0.0072991
-0.00598345
-0.0029784
0.00250638
0.0115782
0.0258058
0.0474428
0.0797852
0.12778
0.198733
0.302569
0.457552
0.71371
1.09223
