# vtk DataFile Version 3.0
Malha 2D com triângulos e temperatura
ASCII
DATASET UNSTRUCTURED_GRID

POINTS 961 double
0 0 0
1 0 0
1 1 0
0 1 0
0.0333333 0 0
0.0666667 0 0
0.1 0 0
0.133333 0 0
0.166667 0 0
0.2 0 0
0.233333 0 0
0.266667 0 0
0.3 0 0
0.333333 0 0
0.366667 0 0
0.4 0 0
0.433333 0 0
0.466667 0 0
0.5 0 0
0.533333 0 0
0.566667 0 0
0.6 0 0
0.633333 0 0
0.666667 0 0
0.7 0 0
0.733333 0 0
0.766667 0 0
0.8 0 0
0.833333 0 0
0.866667 0 0
0.9 0 0
0.933333 0 0
0.966667 0 0
1 0.0333333 0
1 0.0666667 0
1 0.1 0
1 0.133333 0
1 0.166667 0
1 0.2 0
1 0.233333 0
1 0.266667 0
1 0.3 0
1 0.333333 0
1 0.366667 0
1 0.4 0
1 0.433333 0
1 0.466667 0
1 0.5 0
1 0.533333 0
1 0.566667 0
1 0.6 0
1 0.633333 0
1 0.666667 0
1 0.7 0
1 0.733333 0
1 0.766667 0
1 0.8 0
1 0.833333 0
1 0.866667 0
1 0.9 0
1 0.933333 0
1 0.966667 0
0.966667 1 0
0.933333 1 0
0.9 1 0
0.866667 1 0
0.833333 1 0
0.8 1 0
0.766667 1 0
0.733333 1 0
0.7 1 0
0.666667 1 0
0.633333 1 0
0.6 1 0
0.566667 1 0
0.533333 1 0
0.5 1 0
0.466667 1 0
0.433333 1 0
0.4 1 0
0.366667 1 0
0.333333 1 0
0.3 1 0
0.266667 1 0
0.233333 1 0
0.2 1 0
0.166667 1 0
0.133333 1 0
0.1 1 0
0.0666667 1 0
0.0333333 1 0
0 0.966667 0
0 0.933333 0
0 0.9 0
0 0.866667 0
0 0.833333 0
0 0.8 0
0 0.766667 0
0 0.733333 0
0 0.7 0
0 0.666667 0
0 0.633333 0
0 0.6 0
0 0.566667 0
0 0.533333 0
0 0.5 0
0 0.466667 0
0 0.433333 0
0 0.4 0
0 0.366667 0
0 0.333333 0
0 0.3 0
0 0.266667 0
0 0.233333 0
0 0.2 0
0 0.166667 0
0 0.133333 0
0 0.1 0
0 0.0666667 0
0 0.0333333 0
0.0333333 0.0333333 0
0.0333333 0.0666667 0
0.0333333 0.1 0
0.0333333 0.133333 0
0.0333333 0.166667 0
0.0333333 0.2 0
0.0333333 0.233333 0
0.0333333 0.266667 0
0.0333333 0.3 0
0.0333333 0.333333 0
0.0333333 0.366667 0
0.0333333 0.4 0
0.0333333 0.433333 0
0.0333333 0.466667 0
0.0333333 0.5 0
0.0333333 0.533333 0
0.0333333 0.566667 0
0.0333333 0.6 0
0.0333333 0.633333 0
0.0333333 0.666667 0
0.0333333 0.7 0
0.0333333 0.733333 0
0.0333333 0.766667 0
0.0333333 0.8 0
0.0333333 0.833333 0
0.0333333 0.866667 0
0.0333333 0.9 0
0.0333333 0.933333 0
0.0333333 0.966667 0
0.0666667 0.0333333 0
0.0666667 0.0666667 0
0.0666667 0.1 0
0.0666667 0.133333 0
0.0666667 0.166667 0
0.0666667 0.2 0
0.0666667 0.233333 0
0.0666667 0.266667 0
0.0666667 0.3 0
0.0666667 0.333333 0
0.0666667 0.366667 0
0.0666667 0.4 0
0.0666667 0.433333 0
0.0666667 0.466667 0
0.0666667 0.5 0
0.0666667 0.533333 0
0.0666667 0.566667 0
0.0666667 0.6 0
0.0666667 0.633333 0
0.0666667 0.666667 0
0.0666667 0.7 0
0.0666667 0.733333 0
0.0666667 0.766667 0
0.0666667 0.8 0
0.0666667 0.833333 0
0.0666667 0.866667 0
0.0666667 0.9 0
0.0666667 0.933333 0
0.0666667 0.966667 0
0.1 0.0333333 0
0.1 0.0666667 0
0.1 0.1 0
0.1 0.133333 0
0.1 0.166667 0
0.1 0.2 0
0.1 0.233333 0
0.1 0.266667 0
0.1 0.3 0
0.1 0.333333 0
0.1 0.366667 0
0.1 0.4 0
0.1 0.433333 0
0.1 0.466667 0
0.1 0.5 0
0.1 0.533333 0
0.1 0.566667 0
0.1 0.6 0
0.1 0.633333 0
0.1 0.666667 0
0.1 0.7 0
0.1 0.733333 0
0.1 0.766667 0
0.1 0.8 0
0.1 0.833333 0
0.1 0.866667 0
0.1 0.9 0
0.1 0.933333 0
0.1 0.966667 0
0.133333 0.0333333 0
0.133333 0.0666667 0
0.133333 0.1 0
0.133333 0.133333 0
0.133333 0.166667 0
0.133333 0.2 0
0.133333 0.233333 0
0.133333 0.266667 0
0.133333 0.3 0
0.133333 0.333333 0
0.133333 0.366667 0
0.133333 0.4 0
0.133333 0.433333 0
0.133333 0.466667 0
0.133333 0.5 0
0.133333 0.533333 0
0.133333 0.566667 0
0.133333 0.6 0
0.133333 0.633333 0
0.133333 0.666667 0
0.133333 0.7 0
0.133333 0.733333 0
0.133333 0.766667 0
0.133333 0.8 0
0.133333 0.833333 0
0.133333 0.866667 0
0.133333 0.9 0
0.133333 0.933333 0
0.133333 0.966667 0
0.166667 0.0333333 0
0.166667 0.0666667 0
0.166667 0.1 0
0.166667 0.133333 0
0.166667 0.166667 0
0.166667 0.2 0
0.166667 0.233333 0
0.166667 0.266667 0
0.166667 0.3 0
0.166667 0.333333 0
0.166667 0.366667 0
0.166667 0.4 0
0.166667 0.433333 0
0.166667 0.466667 0
0.166667 0.5 0
0.166667 0.533333 0
0.166667 0.566667 0
0.166667 0.6 0
0.166667 0.633333 0
0.166667 0.666667 0
0.166667 0.7 0
0.166667 0.733333 0
0.166667 0.766667 0
0.166667 0.8 0
0.166667 0.833333 0
0.166667 0.866667 0
0.166667 0.9 0
0.166667 0.933333 0
0.166667 0.966667 0
0.2 0.0333333 0
0.2 0.0666667 0
0.2 0.1 0
0.2 0.133333 0
0.2 0.166667 0
0.2 0.2 0
0.2 0.233333 0
0.2 0.266667 0
0.2 0.3 0
0.2 0.333333 0
0.2 0.366667 0
0.2 0.4 0
0.2 0.433333 0
0.2 0.466667 0
0.2 0.5 0
0.2 0.533333 0
0.2 0.566667 0
0.2 0.6 0
0.2 0.633333 0
0.2 0.666667 0
0.2 0.7 0
0.2 0.733333 0
0.2 0.766667 0
0.2 0.8 0
0.2 0.833333 0
0.2 0.866667 0
0.2 0.9 0
0.2 0.933333 0
0.2 0.966667 0
0.233333 0.0333333 0
0.233333 0.0666667 0
0.233333 0.1 0
0.233333 0.133333 0
0.233333 0.166667 0
0.233333 0.2 0
0.233333 0.233333 0
0.233333 0.266667 0
0.233333 0.3 0
0.233333 0.333333 0
0.233333 0.366667 0
0.233333 0.4 0
0.233333 0.433333 0
0.233333 0.466667 0
0.233333 0.5 0
0.233333 0.533333 0
0.233333 0.566667 0
0.233333 0.6 0
0.233333 0.633333 0
0.233333 0.666667 0
0.233333 0.7 0
0.233333 0.733333 0
0.233333 0.766667 0
0.233333 0.8 0
0.233333 0.833333 0
0.233333 0.866667 0
0.233333 0.9 0
0.233333 0.933333 0
0.233333 0.966667 0
0.266667 0.0333333 0
0.266667 0.0666667 0
0.266667 0.1 0
0.266667 0.133333 0
0.266667 0.166667 0
0.266667 0.2 0
0.266667 0.233333 0
0.266667 0.266667 0
0.266667 0.3 0
0.266667 0.333333 0
0.266667 0.366667 0
0.266667 0.4 0
0.266667 0.433333 0
0.266667 0.466667 0
0.266667 0.5 0
0.266667 0.533333 0
0.266667 0.566667 0
0.266667 0.6 0
0.266667 0.633333 0
0.266667 0.666667 0
0.266667 0.7 0
0.266667 0.733333 0
0.266667 0.766667 0
0.266667 0.8 0
0.266667 0.833333 0
0.266667 0.866667 0
0.266667 0.9 0
0.266667 0.933333 0
0.266667 0.966667 0
0.3 0.0333333 0
0.3 0.0666667 0
0.3 0.1 0
0.3 0.133333 0
0.3 0.166667 0
0.3 0.2 0
0.3 0.233333 0
0.3 0.266667 0
0.3 0.3 0
0.3 0.333333 0
0.3 0.366667 0
0.3 0.4 0
0.3 0.433333 0
0.3 0.466667 0
0.3 0.5 0
0.3 0.533333 0
0.3 0.566667 0
0.3 0.6 0
0.3 0.633333 0
0.3 0.666667 0
0.3 0.7 0
0.3 0.733333 0
0.3 0.766667 0
0.3 0.8 0
0.3 0.833333 0
0.3 0.866667 0
0.3 0.9 0
0.3 0.933333 0
0.3 0.966667 0
0.333333 0.0333333 0
0.333333 0.0666667 0
0.333333 0.1 0
0.333333 0.133333 0
0.333333 0.166667 0
0.333333 0.2 0
0.333333 0.233333 0
0.333333 0.266667 0
0.333333 0.3 0
0.333333 0.333333 0
0.333333 0.366667 0
0.333333 0.4 0
0.333333 0.433333 0
0.333333 0.466667 0
0.333333 0.5 0
0.333333 0.533333 0
0.333333 0.566667 0
0.333333 0.6 0
0.333333 0.633333 0
0.333333 0.666667 0
0.333333 0.7 0
0.333333 0.733333 0
0.333333 0.766667 0
0.333333 0.8 0
0.333333 0.833333 0
0.333333 0.866667 0
0.333333 0.9 0
0.333333 0.933333 0
0.333333 0.966667 0
0.366667 0.0333333 0
0.366667 0.0666667 0
0.366667 0.1 0
0.366667 0.133333 0
0.366667 0.166667 0
0.366667 0.2 0
0.366667 0.233333 0
0.366667 0.266667 0
0.366667 0.3 0
0.366667 0.333333 0
0.366667 0.366667 0
0.366667 0.4 0
0.366667 0.433333 0
0.366667 0.466667 0
0.366667 0.5 0
0.366667 0.533333 0
0.366667 0.566667 0
0.366667 0.6 0
0.366667 0.633333 0
0.366667 0.666667 0
0.366667 0.7 0
0.366667 0.733333 0
0.366667 0.766667 0
0.366667 0.8 0
0.366667 0.833333 0
0.366667 0.866667 0
0.366667 0.9 0
0.366667 0.933333 0
0.366667 0.966667 0
0.4 0.0333333 0
0.4 0.0666667 0
0.4 0.1 0
0.4 0.133333 0
0.4 0.166667 0
0.4 0.2 0
0.4 0.233333 0
0.4 0.266667 0
0.4 0.3 0
0.4 0.333333 0
0.4 0.366667 0
0.4 0.4 0
0.4 0.433333 0
0.4 0.466667 0
0.4 0.5 0
0.4 0.533333 0
0.4 0.566667 0
0.4 0.6 0
0.4 0.633333 0
0.4 0.666667 0
0.4 0.7 0
0.4 0.733333 0
0.4 0.766667 0
0.4 0.8 0
0.4 0.833333 0
0.4 0.866667 0
0.4 0.9 0
0.4 0.933333 0
0.4 0.966667 0
0.433333 0.0333333 0
0.433333 0.0666667 0
0.433333 0.1 0
0.433333 0.133333 0
0.433333 0.166667 0
0.433333 0.2 0
0.433333 0.233333 0
0.433333 0.266667 0
0.433333 0.3 0
0.433333 0.333333 0
0.433333 0.366667 0
0.433333 0.4 0
0.433333 0.433333 0
0.433333 0.466667 0
0.433333 0.5 0
0.433333 0.533333 0
0.433333 0.566667 0
0.433333 0.6 0
0.433333 0.633333 0
0.433333 0.666667 0
0.433333 0.7 0
0.433333 0.733333 0
0.433333 0.766667 0
0.433333 0.8 0
0.433333 0.833333 0
0.433333 0.866667 0
0.433333 0.9 0
0.433333 0.933333 0
0.433333 0.966667 0
0.466667 0.0333333 0
0.466667 0.0666667 0
0.466667 0.1 0
0.466667 0.133333 0
0.466667 0.166667 0
0.466667 0.2 0
0.466667 0.233333 0
0.466667 0.266667 0
0.466667 0.3 0
0.466667 0.333333 0
0.466667 0.366667 0
0.466667 0.4 0
0.466667 0.433333 0
0.466667 0.466667 0
0.466667 0.5 0
0.466667 0.533333 0
0.466667 0.566667 0
0.466667 0.6 0
0.466667 0.633333 0
0.466667 0.666667 0
0.466667 0.7 0
0.466667 0.733333 0
0.466667 0.766667 0
0.466667 0.8 0
0.466667 0.833333 0
0.466667 0.866667 0
0.466667 0.9 0
0.466667 0.933333 0
0.466667 0.966667 0
0.5 0.0333333 0
0.5 0.0666667 0
0.5 0.1 0
0.5 0.133333 0
0.5 0.166667 0
0.5 0.2 0
0.5 0.233333 0
0.5 0.266667 0
0.5 0.3 0
0.5 0.333333 0
0.5 0.366667 0
0.5 0.4 0
0.5 0.433333 0
0.5 0.466667 0
0.5 0.5 0
0.5 0.533333 0
0.5 0.566667 0
0.5 0.6 0
0.5 0.633333 0
0.5 0.666667 0
0.5 0.7 0
0.5 0.733333 0
0.5 0.766667 0
0.5 0.8 0
0.5 0.833333 0
0.5 0.866667 0
0.5 0.9 0
0.5 0.933333 0
0.5 0.966667 0
0.533333 0.0333333 0
0.533333 0.0666667 0
0.533333 0.1 0
0.533333 0.133333 0
0.533333 0.166667 0
0.533333 0.2 0
0.533333 0.233333 0
0.533333 0.266667 0
0.533333 0.3 0
0.533333 0.333333 0
0.533333 0.366667 0
0.533333 0.4 0
0.533333 0.433333 0
0.533333 0.466667 0
0.533333 0.5 0
0.533333 0.533333 0
0.533333 0.566667 0
0.533333 0.6 0
0.533333 0.633333 0
0.533333 0.666667 0
0.533333 0.7 0
0.533333 0.733333 0
0.533333 0.766667 0
0.533333 0.8 0
0.533333 0.833333 0
0.533333 0.866667 0
0.533333 0.9 0
0.533333 0.933333 0
0.533333 0.966667 0
0.566667 0.0333333 0
0.566667 0.0666667 0
0.566667 0.1 0
0.566667 0.133333 0
0.566667 0.166667 0
0.566667 0.2 0
0.566667 0.233333 0
0.566667 0.266667 0
0.566667 0.3 0
0.566667 0.333333 0
0.566667 0.366667 0
0.566667 0.4 0
0.566667 0.433333 0
0.566667 0.466667 0
0.566667 0.5 0
0.566667 0.533333 0
0.566667 0.566667 0
0.566667 0.6 0
0.566667 0.633333 0
0.566667 0.666667 0
0.566667 0.7 0
0.566667 0.733333 0
0.566667 0.766667 0
0.566667 0.8 0
0.566667 0.833333 0
0.566667 0.866667 0
0.566667 0.9 0
0.566667 0.933333 0
0.566667 0.966667 0
0.6 0.0333333 0
0.6 0.0666667 0
0.6 0.1 0
0.6 0.133333 0
[...]
CELL_DATA 900
SCALARS pressure double 1
LOOKUP_TABLE default
0.0125318
0.0128261
0.0133378
0.0139263
0.0144666
0.0148611
0.015029
0.0149007
0.0144148
0.0135183
0.0121668
0.0103263
0.00797425
0.0051015
0.0017121
-0.00217742
-0.00654111
-0.0113493
-0.0165789
-0.0222295
-0.0283534
-0.0351095
-0.0428694
-0.052433
-0.0654865
-0.0856225
-0.120247
-0.183842
-0.316555
-0.604891
0.0122343
0.012521
0.012885
0.0132701
0.0135929
0.0137737
0.0137419
0.0134333
0.0127899
0.0117609
0.0103037
0.00838528
0.00598292
0.00308518
-0.000308645
-0.00419041
-0.00854721
-0.0133684
-0.0186568
-0.0244463
-0.0308283
-0.037995
-0.0463072
-0.056404
-0.0693713
-0.0869725
-0.111756
-0.146152
-0.188071
-0.218169
0.0117393
0.0121441
0.0124961
0.0128169
0.0130548
0.0131419
0.0130166
0.0126199
0.0118969
0.0107982
0.0092821
0.00731578
0.00487655
0.00195271
-0.00145672
-0.00534358
-0.00969411
-0.0144948
-0.019741
-0.0254497
-0.0316759
-0.038536
-0.0462367
-0.0551106
-0.0656411
-0.0783807
-0.0935995
-0.110748
-0.1222
-0.0934116
0.011193
0.0117467
0.0121326
0.0124394
0.0126397
0.0126744
0.0124895
0.0120311
0.011247
0.0100895
0.00851755
0.00649891
0.00401169
0.00104576
-0.00239676
-0.00630227
-0.0106478
-0.0154051
-0.020546
-0.0260496
-0.0319106
-0.0381469
-0.0448053
-0.0519578
-0.0596723
-0.0678504
-0.0758611
-0.0828081
-0.0826654
-0.0505464
0.0107051
0.0113924
0.011821
0.0121307
0.0123108
0.0123078
0.0120741
0.01156
0.0107156
0.00949473
0.0078573
0.00577183
0.00321798
0.000188652
-0.00330855
-0.00725084
-0.011601
-0.0163093
-0.0213168
-0.0265583
-0.0319658
-0.0374687
-0.0429892
-0.0484254
-0.0536105
-0.0581768
-0.0612989
-0.0618617
-0.0562092
-0.0259075
0.0103393
0.0111274
0.0115932
0.0119094
0.0120753
0.0120404
0.0117613
0.0111911
0.0102821
0.00898913
0.00727278
0.00510254
0.00246004
-0.000657869
-0.0042365
-0.00824157
-0.0126185
-0.0172931
-0.0221728
-0.0271487
-0.0320972
-0.0368785
-0.0413315
-0.0452585
-0.048389
-0.0503083
-0.0503757
-0.047371
-0.0396525
-0.0129032
0.0101297
0.0109793
0.0114664
0.0117819
0.0119293
0.0118594
0.0115308
0.0108988
0.00991648
0.00853928
0.00672809
0.00445309
0.00169784
-0.00153656
-0.00522769
-0.00932878
-0.0137669
-0.0184427
-0.0232314
-0.0279851
-0.0325352
-0.0366942
-0.0402544
-0.0429784
-0.0445875
-0.0447688
-0.0428291
-0.0381694
-0.0301044
-0.00743205
0.0100934
0.010965
0.0114531
0.0117542
0.0118728
0.0117597
0.0113743
0.0106723
0.00960689
0.00813318
0.00621159
0.00381234
0.000920423
-0.00245916
-0.00629643
-0.0105322
-0.0150756
-0.0198031
-0.0245605
-0.0291665
-0.0334183
-0.037098
-0.0399764
-0.0418135
-0.0423827
-0.0414167
-0.0384009
-0.033046
-0.0253007
-0.00623888
0.0102383
0.011095
0.0115624
0.0118333
0.0119107
0.0117448
0.0112946
0.010515
0.0093582
0.00777781
0.0057327
0.0031921
0.000141471
-0.00341122
-0.00742925
-0.0118419
-0.0165414
-0.0213817
-0.0261822
-0.030733
-0.034805
-0.0381609
-0.0405602
-0.0417734
-0.0416948
-0.0400327
-0.0365243
-0.0310208
-0.0238359
-0.00772603
0.0105675
0.0113754
0.0118013
0.0120265
0.0120508
0.0118235
0.0113023
0.0104401
0.00918687
0.00749339
0.00531568
0.00262063
-0.00060729
-0.00435848
-0.00859088
-0.0132237
-0.0181334
-0.0231537
-0.0280796
-0.0326765
-0.0366942
-0.0398825
-0.042
-0.0428658
-0.0423628
-0.0403859
-0.036719
-0.0313481
-0.0247818
-0.0110527
0.0110811
0.0118087
0.0121746
0.0123407
0.0123024
0.0120081
0.0114131
0.0104674
0.00911736
0.00730962
0.0049958
0.00213878
-0.00127962
-0.00525003
-0.00972687
-0.014621
-0.019795
-0.0250637
-0.0301993
-0.0349438
-0.0390275
-0.0421855
-0.0441674
-0.0448957
-0.0442493
-0.0421564
-0.0385202
-0.0334144
-0.027441
-0.0156424
0.0117754
0.0123938
0.0126838
0.0127806
0.0126739
0.0123112
0.0116444
0.0106196
0.00917835
0.00726168
0.00481528
0.00179623
-0.00181829
-0.00602129
-0.0107659
-0.0159567
-0.0214445
-0.0270264
-0.032453
-0.0374431
-0.0417067
-0.044966
-0.0469633
-0.0476586
-0.0470269
-0.0449725
-0.0414806
-0.0366885
-0.0312463
-0.0210382
0.0126414
0.0131242
0.0133258
0.0133472
0.0131709
0.0127433
0.0120122
0.0109187
0.00939864
0.00738604
0.0048191
0.00164735
-0.00215884
-0.00659724
-0.0116222
-0.0171348
-0.0229759
-0.0289267
-0.0347165
-0.0400401
-0.0445841
-0.0480543
-0.0501907
-0.0509715
-0.0504283
-0.0484849
-0.045178
-0.0406897
-0.0356996
-0.0268334
0.0136631
0.013987
0.0140913
0.0140355
0.0137932
0.0133093
0.0125269
0.0113815
0.00980269
0.00771577
0.00505028
0.00174651
-0.00223407
-0.00689653
-0.0121993
-0.0180429
-0.0242609
-0.0306204
-0.0368298
-0.0425579
-0.0474619
-0.0512224
-0.0535858
-0.0545335
-0.054117
-0.0523062
-0.0491752
-0.044943
-0.0403187
-0.0326202
0.0148153
0.0149613
0.014964
0.0148338
0.0145337
0.0140071
0.0131916
0.012017
0.0104066
0.00827533
0.00554325
0.00214043
-0.00198205
-0.00683889
-0.012396
-0.0185576
-0.025153
-0.0319375
-0.0385996
-0.0447812
-0.0501015
-0.0542096
-0.0568472
-0.0579946
-0.0577077
-0.0560076
-0.053002
-0.0489493
-0.0446002
-0.0379547
0.0160618
0.0160172
0.015918
0.0157205
0.0153759
0.0148261
0.0140028
0.0128284
0.0112169
0.00907768
0.00632009
0.0028631
-0.00135343
-0.00635575
-0.0121198
-0.0185571
-0.025496
-0.0326851
-0.0397984
-0.0464563
-0.0522242
-0.0567219
-0.0596397
-0.0609574
-0.0607657
-0.0591111
-0.0561392
-0.0521608
-0.0479899
-0.0423309
0.0173486
0.0171057
0.0169071
0.0166512
0.016277
0.0157251
0.0149226
0.0137852
0.0122185
0.0101255
0.00740361
0.00395777
-0.00028773
-0.00537589
-0.0112904
-0.0179354
-0.0251446
-0.0326702
-0.0401842
-0.0472958
-0.0534934
-0.0583776
-0.0615553
-0.0629871
-0.0628074
-0.0610808
-0.0580042
-0.0539622
-0.0498628
-0.045157
0.0186112
0.0181702
0.0178781
0.0175741
0.0171849
0.0166512
0.0158965
0.0148335
0.0133636
0.0113796
0.00876814
0.0054195
0.0012408
-0.00382712
-0.00978429
-0.0165478
-0.0239592
-0.0317654
-0.0396146
-0.0470304
-0.0535444
-0.0587301
-0.0620948
-0.0635695
-0.0632745
-0.0613042
-0.0579316
-0.0536471
-0.0494942
-0.0457145
0.0197838
0.019157
0.0187816
0.0184412
0.0180513
0.0175539
0.0168716
0.0159159
0.0145866
0.0127715
0.0103498
0.00720011
0.00321365
-0.00168828
-0.00753055
-0.0142597
-0.0217298
-0.0296842
-0.0377403
-0.0453791
-0.0521538
-0.0575453
-0.0610127
-0.0623358
-0.0615796
-0.0590772
-0.0551265
-0.0503164
-0.0458949
-0.0432158
0.0207977
0.0200096
0.019565
0.0191999
0.018821
0.0183737
0.0177823
0.0169606
0.0158103
0.0142193
0.012064
0.00921609
0.00555425
0.00098204
-0.00454903
-0.0110135
-0.0182892
-0.0261361
-0.0341823
-0.0419252
-0.0488197
-0.054277
-0.0577224
-0.0586862
-0.0571715
-0.0537741
-0.0488613
-0.043219
-0.0384202
-0.0370725
0.0215877
0.0206756
0.0201793
0.0197997
0.0194392
0.0190486
0.018557
0.0178843
0.0169388
0.0156138
0.013789
0.0113353
0.00812535
0.00404952
-0.000961268
-0.00690874
-0.0136997
-0.0211204
-0.0288188
-0.0363031
-0.0429825
-0.0482248
-0.0514194
-0.0518013
-0.0493016
-0.044658
-0.0384335
-0.0317323
-0.0265336
-0.0266201
0.0221012
0.0211144
0.0205862
0.0202
0.0198595
0.0195228
0.0191273
0.0186027
0.0178681
0.0168283
0.0153735
0.0133819
0.0107287
0.00729935
0.00301116
-0.00216054
-0.00815233
-0.014783
-0.0217304
-0.0285214
-0.034552
-0.0391656
-0.0417086
-0.0410996
-0.0372698
-0.0309448
-0.0230064
-0.0149074
-0.00908882
-0.0107739
0.0223068
0.0213035
0.0207644
0.0203767
0.0200512
0.0197554
0.0194377
0.0190407
0.0184988
0.0177334
0.0166521
0.0151499
0.0131148
0.0104395
0.00703912
0.00287618
-0.0020094
-0.00746821
-0.0132128
-0.0187989
-0.02363
-0.0270251
-0.0282809
-0.0262774
-0.0207035
-0.0119952
-0.00165295
0.00847546
0.0153485
0.0118525
0.0222017
0.0212446
0.0207154
0.0203277
0.0200057
0.0197277
0.0194552
0.0191459
0.0187518
0.0182151
0.0174668
0.016427
0.015008
0.0131234
0.0107019
0.00770962
0.00417779
0.000235197
-0.00385984
-0.00769391
-0.0106878
-0.0121338
-0.0113045
-0.00738122
0.000748639
0.0127497
0.0265623
0.0398099
0.0485807
0.0431381
0.0218171
0.0209667
0.0204654
0.0200753
0.0197397
0.0194485
0.0191769
0.0188985
0.0185834
0.0181963
0.0176949
0.01703
0.0161477
0.0149956
0.0135338
0.0117527
0.00969763
0.00749913
0.00540601
0.0038153
0.00329314
0.00455875
0.00835984
0.0154446
0.0273168
0.0436129
0.0625237
0.08077
0.0931091
0.0860082
0.0212202
0.0205257
0.0200641
0.0196641
0.0192933
0.0189526
0.0186311
0.0183164
0.0179954
0.0176535
0.0172744
0.016841
0.0163376
0.0157548
0.0150985
0.0144043
0.0137581
0.0133238
0.0133756
0.0143312
0.0167803
0.021491
0.0293373
0.0411543
0.0578431
0.0803151
0.106858
0.133432
0.152763
0.145768
0.0205115
0.02
0.0195793
0.0191557
0.0187245
0.0182971
0.0178744
0.0174556
0.0170403
0.0166294
0.0162277
0.0158457
0.0155034
0.0152353
0.0150991
0.0151883
0.0156507
0.0167138
0.0187163
0.0221452
0.0276737
0.0361885
0.0487713
0.0665621
0.0905655
0.121804
0.159667
0.200432
0.233758
0.232778
0.0198189
0.0194838
0.0190909
0.018625
0.018109
0.0175639
0.0169999
0.0164237
0.0158418
0.015264
0.0147077
0.0142021
0.0137935
0.013552
0.0135817
0.0140334
0.0151231
0.017157
0.0205648
0.0259425
0.034105
0.0461442
0.0634742
0.0878119
0.120983
0.164473
0.21888
0.282171
0.342537
0.364277
0.0192964
0.0190822
0.018677
0.0181321
0.0174971
0.0168015
0.0160611
0.0152844
0.0144782
0.0136527
0.012828
0.0120392
0.0113448
0.0108346
0.0106422
0.01096
0.0120601
0.0143208
0.0182627
0.0245976
0.0342943
0.0486694
0.0695047
0.0991937
0.14087
0.198131
0.273904
0.370478
0.488994
0.595423
0.0190911
0.0188849
0.0183714
0.0176544
0.0168137
0.015889
0.0148956
0.013835
0.0127033
0.0114996
0.0102328
0.00892858
0.0076379
0.00644662
0.00548863
0.0049629
0.00515635
0.00647459
0.00948478
0.0149775
0.0240599
0.0383008
0.0599531
0.0923119
0.140324
0.211291
0.31514
0.470131
0.726292
1.10481
