# vtk DataFile Version 3.0
Malha 2D com triângulos e temperatura
ASCII
DATASET UNSTRUCTURED_GRID

POINTS 2500 double
0 0 0
1 0 0
1 1 0
0 1 0
0.0204082 0 0
0.0408163 0 0
0.0612245 0 0
0.0816327 0 0
0.102041 0 0
0.122449 0 0
0.142857 0 0
0.163265 0 0
0.183673 0 0
0.204082 0 0
0.22449 0 0
0.244898 0 0
0.265306 0 0
0.285714 0 0
0.306122 0 0
0.326531 0 0
0.346939 0 0
0.367347 0 0
0.387755 0 0
0.408163 0 0
0.428571 0 0
0.44898 0 0
0.469388 0 0
0.489796 0 0
0.510204 0 0
0.530612 0 0
0.55102 0 0
0.571429 0 0
0.591837 0 0
0.612245 0 0
0.632653 0 0
0.653061 0 0
0.673469 0 0
0.693878 0 0
0.714286 0 0
0.734694 0 0
0.755102 0 0
0.77551 0 0
0.795918 0 0
0.816327 0 0
0.836735 0 0
0.857143 0 0
0.877551 0 0
0.897959 0 0
0.918367 0 0
0.938776 0 0
0.959184 0 0
0.979592 0 0
1 0.0204082 0
1 0.0408163 0
1 0.0612245 0
1 0.0816327 0
1 0.102041 0
1 0.122449 0
1 0.142857 0
1 0.163265 0
1 0.183673 0
1 0.204082 0
1 0.22449 0
1 0.244898 0
1 0.265306 0
1 0.285714 0
1 0.306122 0
1 0.326531 0
1 0.346939 0
1 0.367347 0
1 0.387755 0
1 0.408163 0
1 0.428571 0
1 0.44898 0
1 0.469388 0
1 0.489796 0
1 0.510204 0
1 0.530612 0
1 0.55102 0
1 0.571429 0
1 0.591837 0
1 0.612245 0
1 0.632653 0
1 0.653061 0
1 0.673469 0
1 0.693878 0
1 0.714286 0
1 0.734694 0
1 0.755102 0
1 0.77551 0
1 0.795918 0
1 0.816327 0
1 0.836735 0
1 0.857143 0
1 0.877551 0
1 0.897959 0
1 0.918367 0
1 0.938776 0
1 0.959184 0
1 0.979592 0
0.979592 1 0
0.959184 1 0
0.938776 1 0
0.918367 1 0
0.897959 1 0
0.877551 1 0
0.857143 1 0
0.836735 1 0
0.816327 1 0
0.795918 1 0
0.77551 1 0
0.755102 1 0
0.734694 1 0
0.714286 1 0
0.693878 1 0
0.673469 1 0
0.653061 1 0
0.632653 1 0
0.612245 1 0
0.591837 1 0
0.571429 1 0
0.55102 1 0
0.530612 1 0
0.510204 1 0
0.489796 1 0
0.469388 1 0
0.44898 1 0
0.428571 1 0
0.408163 1 0
0.387755 1 0
0.367347 1 0
0.346939 1 0
0.326531 1 0
0.306122 1 0
0.285714 1 0
0.265306 1 0
0.244898 1 0
0.22449 1 0
0.204082 1 0
0.183673 1 0
0.163265 1 0
0.142857 1 0
0.122449 1 0
0.102041 1 0
0.0816327 1 0
0.0612245 1 0
0.0408163 1 0
0.0204082 1 0
0 0.979592 0
0 0.959184 0
0 0.938776 0
0 0.918367 0
0 0.897959 0
0 0.877551 0
0 0.857143 0
0 0.836735 0
0 0.816327 0
0 0.795918 0
0 0.77551 0
0 0.755102 0
0 0.734694 0
0 0.714286 0
0 0.693878 0
0 0.673469 0
0 0.653061 0
0 0.632653 0
0 0.612245 0
0 0.591837 0
0 0.571429 0
0 0.55102 0
0 0.530612 0
0 0.510204 0
0 0.489796 0
0 0.469388 0
0 0.44898 0
0 0.428571 0
0 0.408163 0
0 0.387755 0
0 0.367347 0
0 0.346939 0
0 0.326531 0
0 0.306122 0
0 0.285714 0
0 0.265306 0
0 0.244898 0
0 0.22449 0
0 0.204082 0
0 0.183673 0
0 0.163265 0
0 0.142857 0
0 0.122449 0
0 0.102041 0
0 0.0816327 0
0 0.0612245 0
0 0.0408163 0
0 0.0204082 0
0.0204082 0.979592 0
0.0204082 0.959184 0
0.0204082 0.938776 0
0.0204082 0.918367 0
0.0204082 0.897959 0
0.0204082 0.877551 0
0.0204082 0.857143 0
0.0204082 0.836735 0
0.0204082 0.816327 0
0.0204082 0.795918 0
0.0204082 0.77551 0
0.0204082 0.755102 0
0.0204082 0.734694 0
0.0204082 0.714286 0
0.0204082 0.693878 0
0.0204082 0.673469 0
0.0204082 0.653061 0
0.0204082 0.632653 0
0.0204082 0.612245 0
0.0204082 0.591837 0
0.0204082 0.571429 0
0.0204082 0.55102 0
0.0204082 0.530612 0
0.0204082 0.510204 0
0.0204082 0.489796 0
0.0204082 0.469388 0
0.0204082 0.44898 0
0.0204082 0.428571 0
0.0204082 0.408163 0
0.0204082 0.387755 0
0.0204082 0.367347 0
0.0204082 0.346939 0
0.0204082 0.326531 0
0.0204082 0.306122 0
0.0204082 0.285714 0
0.0204082 0.265306 0
0.0204082 0.244898 0
0.0204082 0.22449 0
0.0204082 0.204082 0
0.0204082 0.183673 0
0.0204082 0.163265 0
0.0204082 0.142857 0
0.0204082 0.122449 0
0.0204082 0.102041 0
0.0204082 0.0816327 0
0.0204082 0.0612245 0
0.0204082 0.0408163 0
0.0204082 0.0204082 0
0.0408163 0.979592 0
0.0408163 0.959184 0
0.0408163 0.938776 0
0.0408163 0.918367 0
0.0408163 0.897959 0
0.0408163 0.877551 0
0.0408163 0.857143 0
0.0408163 0.836735 0
0.0408163 0.816327 0
0.0408163 0.795918 0
0.0408163 0.77551 0
0.0408163 0.755102 0
0.0408163 0.734694 0
0.0408163 0.714286 0
0.0408163 0.693878 0
0.0408163 0.673469 0
0.0408163 0.653061 0
0.0408163 0.632653 0
0.0408163 0.612245 0
0.0408163 0.591837 0
0.0408163 0.571429 0
0.0408163 0.55102 0
0.0408163 0.530612 0
0.0408163 0.510204 0
0.0408163 0.489796 0
0.0408163 0.469388 0
0.0408163 0.44898 0
0.0408163 0.428571 0
0.0408163 0.408163 0
0.0408163 0.387755 0
0.0408163 0.367347 0
0.0408163 0.346939 0
0.0408163 0.326531 0
0.0408163 0.306122 0
0.0408163 0.285714 0
0.0408163 0.265306 0
0.0408163 0.244898 0
0.0408163 0.22449 0
0.0408163 0.204082 0
0.0408163 0.183673 0
0.0408163 0.163265 0
0.0408163 0.142857 0
0.0408163 0.122449 0
0.0408163 0.102041 0
0.0408163 0.0816327 0
0.0408163 0.0612245 0
0.0408163 0.0408163 0
0.0408163 0.0204082 0
0.0612245 0.979592 0
0.0612245 0.959184 0
0.0612245 0.938776 0
0.0612245 0.918367 0
0.0612245 0.897959 0
0.0612245 0.877551 0
0.0612245 0.857143 0
0.0612245 0.836735 0
0.0612245 0.816327 0
0.0612245 0.795918 0
0.0612245 0.77551 0
0.0612245 0.755102 0
0.0612245 0.734694 0
0.0612245 0.714286 0
0.0612245 0.693878 0
0.0612245 0.673469 0
0.0612245 0.653061 0
0.0612245 0.632653 0
0.0612245 0.612245 0
0.0612245 0.591837 0
0.0612245 0.571429 0
0.0612245 0.55102 0
0.0612245 0.530612 0
0.0612245 0.510204 0
0.0612245 0.489796 0
0.0612245 0.469388 0
0.0612245 0.44898 0
0.0612245 0.428571 0
0.0612245 0.408163 0
0.0612245 0.387755 0
0.0612245 0.367347 0
0.0612245 0.346939 0
0.0612245 0.326531 0
0.0612245 0.306122 0
0.0612245 0.285714 0
0.0612245 0.265306 0
0.0612245 0.244898 0
0.0612245 0.22449 0
0.0612245 0.204082 0
0.0612245 0.183673 0
0.0612245 0.163265 0
0.0612245 0.142857 0
0.0612245 0.122449 0
0.0612245 0.102041 0
0.0612245 0.0816327 0
0.0612245 0.0612245 0
0.0612245 0.0408163 0
0.0612245 0.0204082 0
0.0816327 0.979592 0
0.0816327 0.959184 0
0.0816327 0.938776 0
0.0816327 0.918367 0
0.0816327 0.897959 0
0.0816327 0.877551 0
0.0816327 0.857143 0
0.0816327 0.836735 0
0.0816327 0.816327 0
0.0816327 0.795918 0
0.0816327 0.77551 0
0.0816327 0.755102 0
0.0816327 0.734694 0
0.0816327 0.714286 0
0.0816327 0.693878 0
0.0816327 0.673469 0
0.0816327 0.653061 0
0.0816327 0.632653 0
0.0816327 0.612245 0
0.0816327 0.591837 0
0.0816327 0.571429 0
0.0816327 0.55102 0
0.0816327 0.530612 0
0.0816327 0.510204 0
0.0816327 0.489796 0
0.0816327 0.469388 0
0.0816327 0.44898 0
0.0816327 0.428571 0
0.0816327 0.408163 0
0.0816327 0.387755 0
0.0816327 0.367347 0
0.0816327 0.346939 0
0.0816327 0.326531 0
0.0816327 0.306122 0
0.0816327 0.285714 0
0.0816327 0.265306 0
0.0816327 0.244898 0
0.0816327 0.22449 0
0.0816327 0.204082 0
0.0816327 0.183673 0
0.0816327 0.163265 0
0.0816327 0.142857 0
0.0816327 0.122449 0
0.0816327 0.102041 0
0.0816327 0.0816327 0
0.0816327 0.0612245 0
0.0816327 0.0408163 0
0.0816327 0.0204082 0
0.102041 0.979592 0
0.102041 0.959184 0
0.102041 0.938776 0
0.102041 0.918367 0
0.102041 0.897959 0
0.102041 0.877551 0
0.102041 0.857143 0
0.102041 0.836735 0
0.102041 0.816327 0
0.102041 0.795918 0
0.102041 0.77551 0
0.102041 0.755102 0
0.102041 0.734694 0
0.102041 0.714286 0
0.102041 0.693878 0
0.102041 0.673469 0
0.102041 0.653061 0
0.102041 0.632653 0
0.102041 0.612245 0
0.102041 0.591837 0
0.102041 0.571429 0
0.102041 0.55102 0
0.102041 0.530612 0
0.102041 0.510204 0
0.102041 0.489796 0
0.102041 0.469388 0
0.102041 0.44898 0
0.102041 0.428571 0
0.102041 0.408163 0
0.102041 0.387755 0
0.102041 0.367347 0
0.102041 0.346939 0
0.102041 0.326531 0
0.102041 0.306122 0
0.102041 0.285714 0
0.102041 0.265306 0
0.102041 0.244898 0
0.102041 0.22449 0
0.102041 0.204082 0
0.102041 0.183673 0
0.102041 0.163265 0
0.102041 0.142857 0
0.102041 0.122449 0
0.102041 0.102041 0
0.102041 0.0816327 0
0.102041 0.0612245 0
0.102041 0.0408163 0
0.102041 0.0204082 0
0.122449 0.979592 0
0.122449 0.959184 0
0.122449 0.938776 0
0.122449 0.918367 0
0.122449 0.897959 0
0.122449 0.877551 0
0.122449 0.857143 0
0.122449 0.836735 0
0.122449 0.816327 0
0.122449 0.795918 0
0.122449 0.77551 0
0.122449 0.755102 0
0.122449 0.734694 0
0.122449 0.714286 0
0.122449 0.693878 0
0.122449 0.673469 0
0.122449 0.653061 0
0.122449 0.632653 0
0.122449 0.612245 0
0.122449 0.591837 0
0.122449 0.571429 0
0.122449 0.55102 0
0.122449 0.530612 0
0.122449 0.510204 0
0.122449 0.489796 0
0.122449 0.469388 0
0.122449 0.44898 0
0.122449 0.428571 0
0.122449 0.408163 0
0.122449 0.387755 0
0.122449 0.367347 0
0.122449 0.346939 0
0.122449 0.326531 0
0.122449 0.306122 0
0.122449 0.285714 0
0.122449 0.265306 0
0.122449 0.244898 0
0.122449 0.22449 0
0.122449 0.204082 0
0.122449 0.183673 0
0.122449 0.163265 0
0.122449 0.142857 0
0.122449 0.122449 0
0.122449 0.102041 0
0.122449 0.0816327 0
0.122449 0.0612245 0
0.122449 0.0408163 0
0.122449 0.0204082 0
0.142857 0.979592 0
0.142857 0.959184 0
0.142857 0.938776 0
0.142857 0.918367 0
0.142857 0.897959 0
0.142857 0.877551 0
0.142857 0.857143 0
0.142857 0.836735 0
0.142857 0.816327 0
0.142857 0.795918 0
0.142857 0.77551 0
0.142857 0.755102 0
0.142857 0.734694 0
0.142857 0.714286 0
0.142857 0.693878 0
0.142857 0.673469 0
0.142857 0.653061 0
0.142857 0.632653 0
0.142857 0.612245 0
0.142857 0.591837 0
0.142857 0.571429 0
0.142857 0.55102 0
0.142857 0.530612 0
0.142857 0.510204 0
0.142857 0.489796 0
0.142857 0.469388 0
0.142857 0.44898 0
0.142857 0.428571 0
0.142857 0.408163 0
0.142857 0.387755 0
0.142857 0.367347 0
0.142857 0.346939 0
0.142857 0.326531 0
0.142857 0.306122 0
0.142857 0.285714 0
0.142857 0.265306 0
0.142857 0.244898 0
0.142857 0.22449 0
0.142857 0.204082 0
0.142857 0.183673 0
0.142857 0.163265 0
0.142857 0.142857 0
0.142857 0.122449 0
0.142857 0.102041 0
0.142857 0.0816327 0
0.142857 0.0612245 0
0.142857 0.0408163 0
0.142857 0.0204082 0
0.163265 0.979592 0
0.163265 0.959184 0
0.163265 0.938776 0
0.163265 0.918367 0
0.163265 0.897959 0
0.163265 0.877551 0
0.163265 0.857143 0
0.163265 0.836735 0
0.163265 0.816327 0
0.163265 0.795918 0
0.163265 0.77551 0
0.163265 0.755102 0
0.163265 0.734694 0
0.163265 0.714286 0
0.163265 0.693878 0
0.163265 0.673469 0
0.163265 0.653061 0
0.163265 0.632653 0
0.163265 0.612245 0
0.163265 0.591837 0
0.163265 0.571429 0
0.163265 0.55102 0
[...]
CELL_DATA 2401
SCALARS pressure double 1
LOOKUP_TABLE default
0
0.488341
0.719584
0.834731
0.899815
0.938293
0.96273
0.979514
0.99184
1.00139
1.00911
1.01554
1.02102
1.02578
1.02996
1.03368
1.037
1.03998
1.04268
1.04512
1.04733
1.04934
1.05117
1.05282
1.05432
1.05568
1.0569
1.058
1.05899
1.05986
1.06064
1.06131
1.0619
1.0624
1.06282
1.06316
1.06343
1.06362
1.06375
1.06382
1.06382
1.06377
1.06368
1.06354
1.06337
1.06319
1.06301
1.06288
1.06281
0.643629
0.707789
0.785137
0.848952
0.896039
0.929604
0.953753
0.971578
0.985146
0.995799
1.00441
1.01154
1.01758
1.02278
1.02731
1.03131
1.03487
1.03806
1.04092
1.04351
1.04585
1.04797
1.0499
1.05164
1.05322
1.05465
1.05594
1.0571
1.05814
1.05906
1.05988
1.0606
1.06123
1.06177
1.06222
1.06259
1.0629
1.06312
1.06329
1.06339
1.06343
1.06343
1.06337
1.06328
1.06317
1.06304
1.06291
1.06281
1.06274
0.860205
0.822278
0.845957
0.879829
0.910135
0.935204
0.955207
0.971068
0.983764
0.994083
1.00262
1.00979
1.01593
1.02123
1.02588
1.02999
1.03364
1.03692
1.03987
1.04253
1.04494
1.04713
1.04911
1.0509
1.05253
1.054
1.05533
1.05653
1.0576
1.05856
1.0594
1.06015
1.0608
1.06136
1.06184
1.06224
1.06256
1.06281
1.063
1.06312
1.06319
1.0632
1.06318
1.06312
1.06303
1.06292
1.06281
1.0627
1.06261
0.939597
0.891681
0.894775
0.910677
0.928244
0.945395
0.960652
0.973717
0.984791
0.994183
1.0022
1.00909
1.01508
1.02033
1.02497
1.02909
1.03278
1.0361
1.03909
1.0418
1.04425
1.04647
1.04849
1.05033
1.05199
1.05349
1.05485
1.05608
1.05717
1.05815
1.05903
1.05979
1.06046
1.06105
1.06154
1.06196
1.0623
1.06256
1.06277
1.06291
1.063
1.06303
1.06302
1.06298
1.0629
1.0628
1.06269
1.06258
1.06244
0.984616
0.938962
0.932198
0.936727
0.945692
0.956597
0.967604
0.977873
0.987138
0.995373
1.00265
1.00909
1.0148
1.01988
1.02442
1.0285
1.03217
1.03549
1.0385
1.04122
1.0437
1.04595
1.048
1.04986
1.05155
1.05308
1.05446
1.05571
1.05683
1.05783
1.05872
1.0595
1.06019
1.06079
1.0613
1.06173
1.06208
1.06237
1.06258
1.06274
1.06284
1.06289
1.0629
1.06286
1.06279
1.0627
1.06258
1.06245
1.06226
1.00928
0.969697
0.959159
0.957595
0.961224
0.967497
0.975016
0.98278
0.990287
0.997308
1.00376
1.00964
1.01498
1.01982
1.0242
1.02818
1.0318
1.03509
1.03809
1.04081
1.0433
1.04557
1.04763
1.04951
1.05122
1.05277
1.05417
1.05543
1.05657
1.05758
1.05849
1.05929
1.05999
1.0606
1.06112
1.06156
1.06193
1.06222
1.06245
1.06262
1.06273
1.06279
1.0628
1.06277
1.06271
1.06261
1.06249
1.06234
1.06211
1.02232
0.989623
0.978401
0.973924
0.974013
0.977198
0.982082
0.98778
0.993733
0.999614
1.00525
1.01054
1.01547
1.02003
1.02422
1.02808
1.03161
1.03485
1.03782
1.04054
1.04303
1.0453
1.04737
1.04926
1.05098
1.05254
1.05396
1.05523
1.05638
1.05741
1.05832
1.05913
1.05984
1.06046
1.06099
1.06145
1.06182
1.06213
1.06236
1.06254
1.06266
1.06273
1.06275
1.06272
1.06266
1.06255
1.06242
1.06225
1.06198
1.02948
1.00278
0.99204
0.986215
0.984323
0.985523
0.98844
0.992497
0.997145
1.00202
1.00689
1.01163
1.01615
1.02042
1.02441
1.02812
1.03156
1.03474
1.03767
1.04037
1.04285
1.04512
1.0472
1.0491
1.05083
1.0524
1.05382
1.0551
1.05626
1.0573
1.05822
1.05904
1.05976
1.06038
1.06092
1.06138
1.06176
1.06208
1.06232
1.0625
1.06263
1.0627
1.06272
1.0627
1.06263
1.06253
1.06239
1.0622
1.06191
1.03342
1.01155
1.00172
0.995489
0.992581
0.992346
0.993914
0.99673
1.00033
1.00435
1.00856
1.01278
1.01692
1.02091
1.02469
1.02826
1.03161
1.03472
1.03761
1.04029
1.04275
1.04502
1.0471
1.049
1.05074
1.05232
1.05375
1.05504
1.0562
1.05725
1.05818
1.059
1.05972
1.06036
1.0609
1.06136
1.06175
1.06207
1.06232
1.06251
1.06264
1.06271
1.06274
1.06271
1.06265
1.06254
1.06239
1.06219
1.06188
1.03546
1.01738
1.00857
1.0024
0.998954
0.997847
0.998537
1.00041
1.00318
1.0065
1.01014
1.01392
1.01771
1.02144
1.02503
1.02847
1.03171
1.03477
1.03762
1.04027
1.04272
1.04499
1.04707
1.04897
1.05071
1.0523
1.05373
1.05503
1.0562
1.05725
1.05818
1.05901
1.05974
1.06038
1.06092
1.06139
1.06178
1.0621
1.06236
1.06255
1.06268
1.06276
1.06279
1.06277
1.0627
1.06258
1.06243
1.06223
1.0619
1.03633
1.02122
1.01338
1.00751
1.00387
1.0023
1.00234
1.00354
1.00566
1.00842
1.01159
1.01498
1.01847
1.02197
1.02539
1.0287
1.03186
1.03486
1.03767
1.0403
1.04274
1.04501
1.04709
1.049
1.05074
1.05233
1.05378
1.05508
1.05625
1.0573
1.05824
1.05907
1.0598
1.06044
1.06099
1.06146
1.06186
1.06218
1.06244
1.06263
1.06277
1.06285
1.06288
1.06285
1.06279
1.06267
1.06252
1.06231
1.06197
1.03645
1.02369
1.01673
1.01127
1.00763
1.0058
1.00537
1.00612
1.00777
1.01009
1.01287
1.01594
1.01918
1.02247
1.02574
1.02895
1.03203
1.03498
1.03776
1.04038
1.04281
1.04507
1.04716
1.04907
1.05083
1.05242
1.05387
1.05518
1.05635
1.05741
1.05835
1.05918
1.05991
1.06055
1.0611
1.06157
1.06197
1.06229
1.06255
1.06275
1.06289
1.06297
1.063
1.06298
1.06291
1.0628
1.06264
1.06244
1.0621
1.03609
1.02518
1.01901
1.01398
1.01046
1.00849
1.00782
1.00827
1.00953
1.0115
1.01397
1.01678
1.0198
1.02293
1.02608
1.02919
1.03221
1.03512
1.03788
1.04049
1.04292
1.04518
1.04728
1.0492
1.05096
1.05256
1.05401
1.05533
1.0565
1.05756
1.0585
1.05933
1.06006
1.0607
1.06125
1.06172
1.06212
1.06245
1.06271
1.0629
1.06304
1.06313
1.06316
1.06314
1.06308
1.06297
1.06281
1.06261
1.06228
1.0354
1.02599
1.0205
1.01591
1.01257
1.01057
1.00978
1.00997
1.01097
1.01267
1.01489
1.01749
1.02033
1.02333
1.02637
1.02942
1.0324
1.03528
1.03803
1.04063
1.04307
1.04534
1.04744
1.04937
1.05114
1.05275
1.05421
1.05552
1.0567
1.05776
1.0587
1.05953
1.06026
1.0609
1.06145
1.06192
1.06231
1.06264
1.0629
1.06309
1.06324
1.06332
1.06336
1.06335
1.06328
1.06318
1.06303
1.06283
1.06251
1.03448
1.0263
1.0214
1.01721
1.01408
1.01212
1.01125
1.01127
1.0121
1.0136
1.01564
1.01807
1.02078
1.02366
1.02664
1.02963
1.03258
1.03544
1.03819
1.0408
1.04325
1.04553
1.04765
1.04959
1.05137
1.05299
1.05445
1.05577
1.05695
1.05801
1.05895
1.05977
1.0605
1.06113
1.06168
1.06215
1.06254
1.06286
1.06312
1.06332
1.06346
1.06355
1.06359
1.06358
1.06353
1.06343
1.06329
1.0631
1.06279
1.03341
1.02623
1.02185
1.01804
1.01513
1.01324
1.01232
1.01226
1.01298
1.01433
1.01622
1.01853
1.02113
1.02394
1.02686
1.02982
1.03275
1.03562
1.03837
1.041
1.04346
1.04577
1.0479
1.04986
1.05165
1.05328
1.05475
1.05607
1.05725
1.05831
1.05924
1.06006
1.06078
1.06141
1.06195
1.06242
1.06281
1.06313
1.06339
1.06359
1.06373
1.06382
1.06386
1.06386
1.06381
1.06372
1.06358
1.0634
1.06311
1.03222
1.02588
1.02195
1.01849
1.01579
1.01401
1.0131
1.01301
1.01363
1.01487
1.01665
1.01887
1.0214
1.02415
1.02704
1.02999
1.03292
1.0358
1.03858
1.04123
1.04372
1.04605
1.0482
1.05018
1.05199
1.05362
1.0551
1.05642
1.0576
1.05865
1.05958
1.0604
1.06111
1.06174
1.06227
1.06273
1.06311
1.06343
1.06368
1.06388
1.06403
1.06412
1.06417
1.06417
1.06413
1.06404
1.06392
1.06375
1.06348
1.03096
1.02533
1.02178
1.01863
1.01615
1.01447
1.0136
1.01349
1.01406
1.01522
1.01694
1.01909
1.02158
1.02431
1.02719
1.03014
1.0331
1.036
1.03881
1.04149
1.04402
1.04638
1.04856
1.05056
1.05238
1.05402
1.0555
1.05683
1.05801
1.05905
1.05997
1.06078
1.06149
1.0621
1.06263
1.06308
1.06345
1.06377
1.06402
1.06422
1.06436
1.06446
1.06451
1.06451
1.06448
1.0644
1.06429
1.06414
1.06389
1.02964
1.0246
1.0214
1.01853
1.01624
1.01468
1.01385
1.01375
1.01428
1.01541
1.01709
1.01921
1.02168
1.02441
1.0273
1.03028
1.03327
1.03622
1.03908
1.0418
1.04437
1.04676
1.04897
1.05099
1.05283
1.05448
1.05597
1.05729
1.05847
1.05951
1.06042
1.06122
1.06191
1.06251
1.06303
1.06347
1.06384
1.06414
1.06439
1.06458
1.06473
1.06482
1.06488
1.06489
1.06486
1.0648
1.0647
1.06457
1.06434
1.02827
1.02376
1.02085
1.01822
1.01612
1.01467
1.0139
1.01381
1.01434
1.01546
1.01712
1.01923
1.02171
1.02445
1.02738
1.03041
1.03345
1.03646
1.03937
1.04215
1.04477
1.04721
1.04945
1.05149
1.05335
1.05501
1.0565
1.05782
1.05899
1.06002
1.06092
1.0617
1.06238
1.06297
1.06347
1.06389
1.06425
1.06455
1.06479
1.06498
1.06512
1.06522
1.06528
1.0653
1.06528
1.06523
1.06515
1.06503
1.06483
1.02689
1.02282
1.02018
1.01777
1.01582
1.01448
1.01377
1.01371
1.01426
1.01539
1.01704
1.01917
1.02167
1.02446
1.02744
1.03053
1.03365
1.03673
1.03972
1.04256
1.04523
1.04772
1.04999
1.05207
1.05393
1.05561
1.05709
1.05841
1.05957
1.06058
1.06146
1.06223
1.06289
1.06346
1.06395
1.06436
1.06471
1.06499
1.06522
1.06541
1.06555
1.06565
1.06571
1.06573
1.06572
1.06568
1.06562
1.06552
1.06535
1.0255
1.02183
1.01941
1.01719
1.01539
1.01414
1.0135
1.01348
1.01405
1.01519
1.01686
1.01902
1.02157
1.02443
1.02749
1.03067
1.03388
1.03705
1.04011
1.04303
1.04577
1.0483
1.05061
1.05271
1.0546
1.05627
1.05776
1.05907
1.06021
1.0612
1.06207
1.06281
1.06345
1.064
1.06447
1.06486
1.06519
1.06547
1.06569
1.06587
1.066
1.0661
1.06616
1.06619
1.06619
1.06617
1.06612
1.06604
1.0659
1.02413
1.02081
1.01859
1.01653
1.01485
1.01369
1.0131
1.01312
1.01373
1.01489
1.0166
1.01881
1.02144
1.02438
1.02754
1.03083
1.03414
1.03741
1.04057
1.04357
1.04638
1.04896
1.05132
1.05344
1.05534
1.05702
1.0585
1.05979
1.06091
1.06189
1.06273
1.06345
1.06406
1.06458
1.06503
1.0654
1.06571
1.06597
1.06618
1.06635
1.06648
1.06657
1.06664
1.06667
1.06668
1.06667
1.06664
1.06658
1.06648
1.0228
1.01981
1.01776
1.01584
1.01426
1.01316
1.01262
1.01267
1.01331
1.01451
1.01627
1.01855
1.02127
1.02433
1.02761
1.03102
1.03446
1.03785
1.04111
1.0442
1.04708
1.04972
1.05212
1.05426
1.05617
1.05784
1.05931
1.06058
1.06168
1.06263
1.06344
1.06412
1.06471
1.0652
1.06562
1.06597
1.06626
1.0665
1.0667
1.06685
1.06698
1.06707
1.06713
1.06717
1.06719
1.06719
1.06718
1.06714
1.06708
1.02157
1.01888
1.01697
1.01516
1.01365
1.01261
1.01209
1.01217
1.01284
1.01408
1.0159
1.01827
1.02111
1.02429
1.02771
1.03127
1.03485
1.03837
1.04175
1.04494
1.04789
1.05058
1.05301
1.05518
1.05708
1.05875
1.0602
1.06145
1.06251
1.06342
1.0642
1.06485
1.0654
1.06586
1.06625
1.06657
1.06683
1.06705
1.06723
1.06738
1.06749
1.06758
1.06764
1.06769
1.06772
1.06773
1.06773
1.06772
1.06769
1.02048
1.01808
1.0163
1.01456
1.0131
1.01207
1.01157
1.01166
1.01236
1.01364
1.01553
1.01801
1.02097
1.0243
1.02789
1.0316
1.03534
1.039
1.0425
1.04578
1.04881
1.05156
1.05402
1.05619
1.0581
1.05975
1.06117
1.06238
1.06341
1.06427
1.065
1.06562
1.06613
1.06655
1.0669
1.06719
1.06743
1.06763
1.06779
1.06792
1.06802
1.0681
1.06817
1.06821
1.06825
1.06828
1.06829
1.06831
1.06831
1.01961
1.0175
1.01582
1.01413
1.01268
1.01164
1.01112
1.0112
1.01191
1.01324
1.0152
1.01779
1.0209
1.0244
1.02816
1.03205
1.03595
1.03976
1.04338
1.04677
1.04986
1.05266
1.05514
1.05731
1.0592
1.06082
1.06221
1.06338
1.06436
1.06518
1.06586
1.06642
1.06689
1.06727
1.06758
1.06783
1.06804
1.06821
1.06835
1.06846
1.06856
1.06863
1.06869
1.06874
1.06879
1.06883
1.06886
1.0689
1.06894
1.01905
1.01723
1.01563
1.01396
1.01248
1.0114
1.01083
1.01088
1.01159
1.01295
1.01499
1.0177
1.02096
1.02463
1.02858
1.03266
1.03673
1.04068
1.04443
1.0479
1.05106
1.05389
1.05638
1.05855
1.06042
1.062
1.06334
1.06445
1.06538
1.06614
1.06676
1.06726
1.06767
1.068
1.06827
1.06849
1.06866
1.06881
1.06892
1.06901
1.06909
1.06916
1.06922
1.06927
1.06932
1.06937
1.06943
1.06948
1.06957
1.01891
1.0174
1.01586
1.01418
1.01264
1.01146
1.0108
1.01079
1.01146
1.01284
1.01495
1.01778
1.0212
1.02506
1.0292
1.03346
1.0377
1.0418
1.04566
1.04921
1.05242
1.05528
1.05777
1.05992
1.06175
1.06328
1.06455
1.06559
1.06644
1.06713
1.06768
1.06812
1.06848
1.06875
1.06897
1.06915
1.06929
1.0694
1.06949
1.06956
1.06963
1.06968
1.06974
1.06979
1.06985
1.06991
1.06998
1.07006
1.07019
1.01935
1.01816
1.01668
1.01494
1.01328
1.01196
1.01117
1.01105
1.01166
1.01304
1.0152
1.01815
1.02172
1.02577
1.0301
1.03453
1.03892
1.04315
1.04711
1.05074
1.05399
1.05685
1.05932
1.06142
1.06318
1.06463
1.06582
1.06678
1.06754
1.06815
1.06863
1.069
1.06929
1.06951
1.06968
1.06981
1.06991
1.06999
1.07005
1.0701
1.07015
1.0702
1.07025
1.0703
1.07036
1.07044
1.07052
1.07063
1.07079
1.02054
1.01973
1.01826
1.01643
1.01461
1.01309
1.0121
1.01181
1.01232
1.01367
1.01587
1.01891
1.02261
1.0268
1.03129
1.0359
1.04044
1.04479
1.04885
1.05252
1.05578
1.05861
1.06102
1.06304
1.06471
1.06606
1.06715
1.06801
1.06868
1.06919
1.06958
1.06988
1.0701
1.07025
1.07037
1.07045
1.07051
1.07056
1.07059
1.07063
1.07066
1.07069
1.07074
1.07079
1.07086
1.07094
1.07104
1.07117
1.07137
1.02267
1.02231
1.02089
1.01892
1.01686
1.01505
1.01379
1.01326
1.01358
1.01482
1.01701
1.02011
1.02393
1.02827
1.03292
1.03768
1.04236
1.0468
1.0509
1.05457
1.05779
1.06055
1.06287
1.06478
1.06632
1.06755
1.06852
1.06926
1.06982
1.07023
1.07053
1.07074
1.07089
1.07098
1.07104
1.07108
1.0711
1.07111
1.07112
1.07113
1.07114
1.07117
1.0712
1.07125
1.07133
1.07142
1.07153
1.07168
1.07192
1.02592
1.02607
1.02472
1.02261
1.02024
1.01806
1.01642
1.01555
1.0156
1.01667
1.01883
1.02196
1.02588
1.03035
1.03513
1.04
1.04475
1.04922
1.0533
1.05692
1.06004
1.06268
1.06485
1.06661
1.06801
1.06909
1.06991
1.07051
1.07095
1.07126
1.07146
1.07158
1.07165
1.07168
1.07168
1.07167
1.07165
1.07162
1.07161
1.07159
1.07159
1.07161
1.07164
1.07169
1.07176
1.07186
1.07199
1.07216
1.07243
1.03049
1.03123
1.02994
1.02765
1.02494
1.02232
1.02021
1.01893
1.01863
1.01951
1.02158
1.02471
1.02866
1.0332
1.03804
1.04293
1.04767
1.05209
1.05607
1.05955
1.06251
1.06497
1.06696
1.06853
1.06973
1.07064
1.07129
1.07175
1.07206
1.07224
1.07234
1.07238
1.07237
1.07233
1.07228
1.07222
1.07216
1.0721
1.07206
1.07202
1.07201
1.07201
1.07204
1.07208
1.07216
1.07227
1.07241
1.07259
1.0729
1.0367
1.03812
1.03688
1.03437
1.03125
1.0281
1.02544
1.02365
1.02293
1.02353
1.02546
1.0285
1.03241
1.03691
1.04171
1.04653
1.05115
1.05541
1.0592
1.06246
1.06519
1.0674
1.06914
1.07048
1.07147
1.07217
1.07265
1.07295
1.07311
1.07317
1.07317
1.07311
1.07303
1.07293
1.07282
1.07272
1.07262
1.07253
1.07246
1.07241
1.07238
1.07237
1.07239
1.07244
1.07252
1.07263
1.07278
1.07298
1.07331
1.0449
1.04712
1.04593
1.04315
1.03952
1.03573
1.03241
1.02999
1.02872
1.02895
1.03065
1.0335
1.03725
1.0416
1.04621
1.05083
1.0552
1.05918
1.06267
1.06561
1.06802
1.06992
1.07137
1.07243
1.07317
1.07365
1.07393
1.07406
1.07408
1.07402
1.07392
1.07377
1.07362
1.07346
1.0733
1.07315
1.07302
1.07291
1.07282
1.07275
1.0727
1.07269
1.0727
1.07275
1.07283
1.07295
1.0731
1.07331
1.07367
1.0555
1.05868
1.05756
1.05442
1.05016
1.04558
1.04142
1.03821
1.03628
1.036
1.03733
1.03985
1.04329
1.04731
1.05159
1.05582
1.0598
1.06337
1.06642
1.06895
1.07095
1.07247
1.07357
1.07432
1.07479
1.07504
1.07512
1.07507
1.07495
1.07477
1.07456
1.07434
1.07412
1.0739
1.0737
1.07352
1.07336
1.07322
1.07311
1.07303
1.07298
1.07295
1.07296
1.07301
1.07309
1.07321
1.07337
1.07359
1.07396
1.06898
1.07334
1.07227
1.06867
1.06359
1.058
1.05279
1.04857
1.04587
1.04491
1.04566
1.04765
1.05057
1.05407
1.05779
1.06147
1.06487
1.06787
1.07037
1.07237
1.07389
1.07497
1.07568
1.0761
1.07627
1.07628
1.07615
1.07594
1.07568
1.07539
1.07509
1.0748
1.07452
1.07425
1.07402
1.0738
1.07362
1.07347
1.07334
1.07325
1.07319
1.07316
1.07317
1.07321
1.07329
1.07342
1.07358
1.07381
1.07418
1.08595
1.09177
1.0907
1.08645
1.0803
1.0734
1.06682
1.06128
1.0576
1.05585
1.05574
1.05693
1.05907
1.06179
1.06474
1.06764
1.07028
1.07255
1.07438
1.07576
1.07672
1.07732
1.07762
1.07768
1.07756
1.07733
1.07701
1.07664
1.07626
1.07587
1.07549
1.07514
1.07481
1.07451
1.07424
1.07401
1.07381
1.07364
1.07351
1.07341
1.07335
1.07332
1.07332
1.07337
1.07345
1.07357
1.07374
1.07396
1.07434
1.10714
1.11479
1.11363
1.10844
1.10081
1.09218
1.08384
1.07669
1.07161
1.06873
1.06748
1.06756
1.06863
1.07029
1.07221
1.07411
1.07582
1.07722
1.07827
1.07895
1.07932
1.07941
1.07928
1.079
1.0786
1.07814
1.07765
1.07714
1.07665
1.07618
1.07575
1.07534
1.07498
1.07466
1.07437
1.07412
1.07392
1.07374
1.07361
1.07351
1.07344
1.07342
1.07342
1.07347
1.07355
1.07367
1.07384
1.07406
1.07442
1.13354
1.14354
1.14206
1.1354
1.12569
1.1147
1.10402
1.09493
1.08806
1.08353
1.08071
1.07931
1.07895
1.07925
1.07989
1.0806
1.08121
1.08164
1.08183
1.08179
1.08154
1.08112
1.08059
1.07998
1.07933
1.07868
1.07804
1.07743
1.07685
1.07633
1.07585
1.07542
1.07503
1.0747
1.0744
1.07415
1.07394
1.07377
1.07364
1.07354
1.07348
1.07346
1.07347
1.07351
1.0736
1.07372
1.07388
1.07409
1.07444
1.16657
1.17957
1.17727
1.16827
1.1555
1.14122
1.12742
1.11573
1.10669
1.09989
1.095
1.09169
1.08956
1.08822
1.08734
1.0867
1.08612
1.08551
1.08483
1.08406
1.08323
1.08235
1.08145
1.08057
1.07972
1.07891
1.07816
1.07748
1.07686
1.0763
1.0758
1.07536
1.07497
1.07463
1.07434
1.0741
1.0739
1.07373
1.07361
1.07352
1.07347
1.07345
1.07346
1.07351
1.0736
1.07372
1.07387
1.07407
1.07439
1.20845
1.22518
1.22101
1.20812
1.19076
1.17186
1.15408
1.13886
1.12671
1.11704
1.10959
1.10398
1.09977
1.09656
1.09404
1.09197
1.09017
1.08855
1.08704
1.08562
1.08427
1.083
1.08182
1.08073
1.07973
1.07883
1.07802
1.0773
1.07666
1.07609
1.0756
1.07516
1.07479
1.07447
1.07419
1.07396
1.07378
1.07363
1.07352
1.07344
1.0734
1.07339
1.07341
1.07347
1.07356
1.07367
1.07382
1.074
1.07429
1.26306
1.28388
1.2756
1.25611
1.23177
1.20642
1.18313
1.16347
1.14716
1.13394
1.12346
1.11522
1.10873
1.10357
1.09939
1.09593
1.09301
1.09048
1.08826
1.0863
1.08456
1.08302
1.08164
1.08043
1.07936
1.07843
1.07761
1.07689
1.07627
1.07572
1.07526
1.07485
1.0745
1.07421
1.07396
1.07375
1.07359
1.07346
1.07337
1.07331
1.07328
1.07329
1.07332
1.07339
1.07348
1.07359
1.07373
1.07389
1.07414
1.33811
1.3614
1.34417
1.31321
1.27807
1.24373
1.2133
1.18752
1.16623
1.149
1.13523
1.12426
1.11552
1.1085
1.10282
1.09817
1.09431
1.09108
1.08836
1.08604
1.08407
1.08238
1.08093
1.07969
1.07863
1.07772
1.07695
1.07628
1.07571
1.07521
1.07479
1.07443
1.07413
1.07387
1.07365
1.07348
1.07334
1.07324
1.07317
1.07313
1.07313
1.07315
1.0732
1.07327
1.07337
1.07349
1.07361
1.07376
1.07395
1.44911
1.46697
1.43071
1.37972
1.32817
1.28134
1.24137
1.20836
1.18167
1.16035
1.1434
1.12995
1.11925
1.11072
1.10388
1.09837
1.0939
1.09026
1.08728
1.08482
1.08279
1.08111
1.07971
1.07855
1.07758
1.07676
1.07607
1.07549
1.075
1.07458
1.07423
1.07392
1.07367
1.07346
1.07328
1.07314
1.07304
1.07297
1.07292
1.07291
1.07293
1.07297
1.07304
1.07313
1.07324
1.07336
1.07349
1.07361
1.07375
1.62215
1.60952
1.53571
1.45267
1.37778
1.31468
1.26365
1.22323
1.19146
1.16654
1.14699
1.13164
1.11956
1.11005
1.10255
1.09661
1.0919
1.08816
1.08518
1.0828
1.08088
1.07935
1.07811
1.0771
1.07628
1.07561
1.07505
1.07458
1.0742
1.07387
1.07359
1.07336
1.07316
1.073
1.07287
1.07277
1.0727
1.07266
1.07265
1.07267
1.07271
1.07278
1.07287
1.07298
1.0731
1.07323
1.07336
1.07347
1.07357
1.94968
1.80759
1.6509
1.52039
1.41613
1.33575
1.2748
1.22848
1.19307
1.16584
1.14482
1.12856
1.11596
1.1062
1.09864
1.09279
1.08827
1.08477
1.08206
1.07997
1.07835
1.0771
1.07612
1.07535
1.07475
1.07426
1.07387
1.07356
1.07329
1.07307
1.07289
1.07273
1.0726
1.0725
1.07242
1.07236
1.07233
1.07232
1.07234
1.07238
1.07245
1.07255
1.07267
1.07281
1.07296
1.07311
1.07325
1.07336
1.07342
2.71928
2.13869
1.78002
1.56881
1.42801
1.33156
1.2642
1.21573
1.17999
1.1532
1.13294
1.11755
1.10586
1.09702
1.09036
1.08537
1.08167
1.07894
1.07695
1.0755
1.07447
1.07373
1.07321
1.07284
1.07258
1.0724
1.07226
1.07216
1.07207
1.072
1.07194
1.07189
1.07185
1.07182
1.0718
1.07179
1.07181
1.07184
1.0719
1.07198
1.07209
1.07222
1.07238
1.07257
1.07277
1.07297
1.07316
1.0733
1.07336
