# vtk DataFile Version 3.0
Malha 2D com triângulos: velocidade e pressão
ASCII
DATASET UNSTRUCTURED_GRID

POINTS 961 double
0 0 0
1 0 0
1 1 0
0 1 0
0.0333333 0 0
0.0666667 0 0
0.1 0 0
0.133333 0 0
0.166667 0 0
0.2 0 0
0.233333 0 0
0.266667 0 0
0.3 0 0
0.333333 0 0
0.366667 0 0
0.4 0 0
0.433333 0 0
0.466667 0 0
0.5 0 0
0.533333 0 0
0.566667 0 0
0.6 0 0
0.633333 0 0
0.666667 0 0
0.7 0 0
0.733333 0 0
0.766667 0 0
0.8 0 0
0.833333 0 0
0.866667 0 0
0.9 0 0
0.933333 0 0
0.966667 0 0
1 0.0333333 0
1 0.0666667 0
1 0.1 0
1 0.133333 0
1 0.166667 0
1 0.2 0
1 0.233333 0
1 0.266667 0
1 0.3 0
1 0.333333 0
1 0.366667 0
1 0.4 0
1 0.433333 0
1 0.466667 0
1 0.5 0
1 0.533333 0
1 0.566667 0
1 0.6 0
1 0.633333 0
1 0.666667 0
1 0.7 0
1 0.733333 0
1 0.766667 0
1 0.8 0
1 0.833333 0
1 0.866667 0
1 0.9 0
1 0.933333 0
1 0.966667 0
0.966667 1 0
0.933333 1 0
0.9 1 0
0.866667 1 0
0.833333 1 0
0.8 1 0
0.766667 1 0
0.733333 1 0
0.7 1 0
0.666667 1 0
0.633333 1 0
0.6 1 0
0.566667 1 0
0.533333 1 0
0.5 1 0
0.466667 1 0
0.433333 1 0
0.4 1 0
0.366667 1 0
0.333333 1 0
0.3 1 0
0.266667 1 0
0.233333 1 0
0.2 1 0
0.166667 1 0
0.133333 1 0
0.1 1 0
0.0666667 1 0
0.0333333 1 0
0 0.966667 0
0 0.933333 0
0 0.9 0
0 0.866667 0
0 0.833333 0
0 0.8 0
0 0.766667 0
0 0.733333 0
0 0.7 0
0 0.666667 0
0 0.633333 0
0 0.6 0
0 0.566667 0
0 0.533333 0
0 0.5 0
0 0.466667 0
0 0.433333 0
0 0.4 0
0 0.366667 0
0 0.333333 0
0 0.3 0
0 0.266667 0
0 0.233333 0
0 0.2 0
0 0.166667 0
0 0.133333 0
0 0.1 0
0 0.0666667 0
0 0.0333333 0
0.0333333 0.0333333 0
0.0333333 0.0666667 0
0.0333333 0.1 0
0.0333333 0.133333 0
0.0333333 0.166667 0
0.0333333 0.2 0
0.0333333 0.233333 0
0.0333333 0.266667 0
0.0333333 0.3 0
0.0333333 0.333333 0
0.0333333 0.366667 0
0.0333333 0.4 0
0.0333333 0.433333 0
0.0333333 0.466667 0
0.0333333 0.5 0
0.0333333 0.533333 0
0.0333333 0.566667 0
0.0333333 0.6 0
0.0333333 0.633333 0
0.0333333 0.666667 0
0.0333333 0.7 0
0.0333333 0.733333 0
0.0333333 0.766667 0
0.0333333 0.8 0
0.0333333 0.833333 0
0.0333333 0.866667 0
0.0333333 0.9 0
0.0333333 0.933333 0
0.0333333 0.966667 0
0.0666667 0.0333333 0
0.0666667 0.0666667 0
0.0666667 0.1 0
0.0666667 0.133333 0
0.0666667 0.166667 0
0.0666667 0.2 0
0.0666667 0.233333 0
0.0666667 0.266667 0
0.0666667 0.3 0
0.0666667 0.333333 0
0.0666667 0.366667 0
0.0666667 0.4 0
0.0666667 0.433333 0
0.0666667 0.466667 0
0.0666667 0.5 0
0.0666667 0.533333 0
0.0666667 0.566667 0
0.0666667 0.6 0
0.0666667 0.633333 0
0.0666667 0.666667 0
0.0666667 0.7 0
0.0666667 0.733333 0
0.0666667 0.766667 0
0.0666667 0.8 0
0.0666667 0.833333 0
0.0666667 0.866667 0
0.0666667 0.9 0
0.0666667 0.933333 0
0.0666667 0.966667 0
0.1 0.0333333 0
0.1 0.0666667 0
0.1 0.1 0
0.1 0.133333 0
0.1 0.166667 0
0.1 0.2 0
0.1 0.233333 0
0.1 0.266667 0
0.1 0.3 0
0.1 0.333333 0
0.1 0.366667 0
0.1 0.4 0
0.1 0.433333 0
0.1 0.466667 0
0.1 0.5 0
0.1 0.533333 0
0.1 0.566667 0
0.1 0.6 0
0.1 0.633333 0
0.1 0.666667 0
0.1 0.7 0
0.1 0.733333 0
0.1 0.766667 0
0.1 0.8 0
0.1 0.833333 0
0.1 0.866667 0
0.1 0.9 0
0.1 0.933333 0
0.1 0.966667 0
0.133333 0.0333333 0
0.133333 0.0666667 0
0.133333 0.1 0
0.133333 0.133333 0
0.133333 0.166667 0
0.133333 0.2 0
0.133333 0.233333 0
0.133333 0.266667 0
0.133333 0.3 0
0.133333 0.333333 0
0.133333 0.366667 0
0.133333 0.4 0
0.133333 0.433333 0
0.133333 0.466667 0
0.133333 0.5 0
0.133333 0.533333 0
0.133333 0.566667 0
0.133333 0.6 0
0.133333 0.633333 0
0.133333 0.666667 0
0.133333 0.7 0
0.133333 0.733333 0
0.133333 0.766667 0
0.133333 0.8 0
0.133333 0.833333 0
0.133333 0.866667 0
0.133333 0.9 0
0.133333 0.933333 0
0.133333 0.966667 0
0.166667 0.0333333 0
0.166667 0.0666667 0
0.166667 0.1 0
0.166667 0.133333 0
0.166667 0.166667 0
0.166667 0.2 0
0.166667 0.233333 0
0.166667 0.266667 0
0.166667 0.3 0
0.166667 0.333333 0
0.166667 0.366667 0
0.166667 0.4 0
0.166667 0.433333 0
0.166667 0.466667 0
0.166667 0.5 0
0.166667 0.533333 0
0.166667 0.566667 0
0.166667 0.6 0
0.166667 0.633333 0
0.166667 0.666667 0
0.166667 0.7 0
0.166667 0.733333 0
0.166667 0.766667 0
0.166667 0.8 0
0.166667 0.833333 0
0.166667 0.866667 0
0.166667 0.9 0
0.166667 0.933333 0
0.166667 0.966667 0
0.2 0.0333333 0
0.2 0.0666667 0
0.2 0.1 0
0.2 0.133333 0
0.2 0.166667 0
0.2 0.2 0
0.2 0.233333 0
0.2 0.266667 0
0.2 0.3 0
0.2 0.333333 0
0.2 0.366667 0
0.2 0.4 0
0.2 0.433333 0
0.2 0.466667 0
0.2 0.5 0
0.2 0.533333 0
0.2 0.566667 0
0.2 0.6 0
0.2 0.633333 0
0.2 0.666667 0
0.2 0.7 0
0.2 0.733333 0
0.2 0.766667 0
0.2 0.8 0
0.2 0.833333 0
0.2 0.866667 0
0.2 0.9 0
0.2 0.933333 0
0.2 0.966667 0
0.233333 0.0333333 0
0.233333 0.0666667 0
0.233333 0.1 0
0.233333 0.133333 0
0.233333 0.166667 0
0.233333 0.2 0
0.233333 0.233333 0
0.233333 0.266667 0
0.233333 0.3 0
0.233333 0.333333 0
0.233333 0.366667 0
0.233333 0.4 0
0.233333 0.433333 0
0.233333 0.466667 0
0.233333 0.5 0
0.233333 0.533333 0
0.233333 0.566667 0
0.233333 0.6 0
0.233333 0.633333 0
0.233333 0.666667 0
0.233333 0.7 0
0.233333 0.733333 0
0.233333 0.766667 0
0.233333 0.8 0
0.233333 0.833333 0
0.233333 0.866667 0
0.233333 0.9 0
0.233333 0.933333 0
0.233333 0.966667 0
0.266667 0.0333333 0
0.266667 0.0666667 0
0.266667 0.1 0
0.266667 0.133333 0
0.266667 0.166667 0
0.266667 0.2 0
0.266667 0.233333 0
0.266667 0.266667 0
0.266667 0.3 0
0.266667 0.333333 0
0.266667 0.366667 0
0.266667 0.4 0
0.266667 0.433333 0
0.266667 0.466667 0
0.266667 0.5 0
0.266667 0.533333 0
0.266667 0.566667 0
0.266667 0.6 0
0.266667 0.633333 0
0.266667 0.666667 0
0.266667 0.7 0
0.266667 0.733333 0
0.266667 0.766667 0
0.266667 0.8 0
0.266667 0.833333 0
0.266667 0.866667 0
0.266667 0.9 0
0.266667 0.933333 0
0.266667 0.966667 0
0.3 0.0333333 0
0.3 0.0666667 0
0.3 0.1 0
0.3 0.133333 0
0.3 0.166667 0
0.3 0.2 0
0.3 0.233333 0
0.3 0.266667 0
0.3 0.3 0
0.3 0.333333 0
0.3 0.366667 0
0.3 0.4 0
0.3 0.433333 0
0.3 0.466667 0
0.3 0.5 0
0.3 0.533333 0
0.3 0.566667 0
0.3 0.6 0
0.3 0.633333 0
0.3 0.666667 0
0.3 0.7 0
0.3 0.733333 0
0.3 0.766667 0
0.3 0.8 0
0.3 0.833333 0
0.3 0.866667 0
0.3 0.9 0
0.3 0.933333 0
0.3 0.966667 0
0.333333 0.0333333 0
0.333333 0.0666667 0
0.333333 0.1 0
0.333333 0.133333 0
0.333333 0.166667 0
0.333333 0.2 0
0.333333 0.233333 0
0.333333 0.266667 0
0.333333 0.3 0
0.333333 0.333333 0
0.333333 0.366667 0
0.333333 0.4 0
0.333333 0.433333 0
0.333333 0.466667 0
0.333333 0.5 0
0.333333 0.533333 0
0.333333 0.566667 0
0.333333 0.6 0
0.333333 0.633333 0
0.333333 0.666667 0
0.333333 0.7 0
0.333333 0.733333 0
0.333333 0.766667 0
0.333333 0.8 0
0.333333 0.833333 0
0.333333 0.866667 0
0.333333 0.9 0
0.333333 0.933333 0
0.333333 0.966667 0
0.366667 0.0333333 0
0.366667 0.0666667 0
0.366667 0.1 0
0.366667 0.133333 0
0.366667 0.166667 0
0.366667 0.2 0
0.366667 0.233333 0
0.366667 0.266667 0
0.366667 0.3 0
0.366667 0.333333 0
0.366667 0.366667 0
0.366667 0.4 0
0.366667 0.433333 0
0.366667 0.466667 0
0.366667 0.5 0
0.366667 0.533333 0
0.366667 0.566667 0
0.366667 0.6 0
0.366667 0.633333 0
0.366667 0.666667 0
0.366667 0.7 0
0.366667 0.733333 0
0.366667 0.766667 0
0.366667 0.8 0
0.366667 0.833333 0
0.366667 0.866667 0
0.366667 0.9 0
0.366667 0.933333 0
0.366667 0.966667 0
0.4 0.0333333 0
0.4 0.0666667 0
0.4 0.1 0
0.4 0.133333 0
0.4 0.166667 0
0.4 0.2 0
0.4 0.233333 0
0.4 0.266667 0
0.4 0.3 0
0.4 0.333333 0
0.4 0.366667 0
0.4 0.4 0
0.4 0.433333 0
0.4 0.466667 0
0.4 0.5 0
0.4 0.533333 0
0.4 0.566667 0
0.4 0.6 0
0.4 0.633333 0
0.4 0.666667 0
0.4 0.7 0
0.4 0.733333 0
0.4 0.766667 0
0.4 0.8 0
0.4 0.833333 0
0.4 0.866667 0
0.4 0.9 0
0.4 0.933333 0
0.4 0.966667 0
0.433333 0.0333333 0
0.433333 0.0666667 0
0.433333 0.1 0
0.433333 0.133333 0
0.433333 0.166667 0
0.433333 0.2 0
0.433333 0.233333 0
0.433333 0.266667 0
0.433333 0.3 0
0.433333 0.333333 0
0.433333 0.366667 0
0.433333 0.4 0
0.433333 0.433333 0
0.433333 0.466667 0
0.433333 0.5 0
0.433333 0.533333 0
0.433333 0.566667 0
0.433333 0.6 0
0.433333 0.633333 0
0.433333 0.666667 0
0.433333 0.7 0
0.433333 0.733333 0
0.433333 0.766667 0
0.433333 0.8 0
0.433333 0.833333 0
0.433333 0.866667 0
0.433333 0.9 0
0.433333 0.933333 0
0.433333 0.966667 0
0.466667 0.0333333 0
0.466667 0.0666667 0
0.466667 0.1 0
0.466667 0.133333 0
0.466667 0.166667 0
0.466667 0.2 0
0.466667 0.233333 0
0.466667 0.266667 0
0.466667 0.3 0
0.466667 0.333333 0
0.466667 0.366667 0
0.466667 0.4 0
0.466667 0.433333 0
0.466667 0.466667 0
0.466667 0.5 0
0.466667 0.533333 0
0.466667 0.566667 0
0.466667 0.6 0
0.466667 0.633333 0
0.466667 0.666667 0
0.466667 0.7 0
0.466667 0.733333 0
0.466667 0.766667 0
0.466667 0.8 0
0.466667 0.833333 0
0.466667 0.866667 0
0.466667 0.9 0
0.466667 0.933333 0
0.466667 0.966667 0
0.5 0.0333333 0
0.5 0.0666667 0
0.5 0.1 0
0.5 0.133333 0
0.5 0.166667 0
0.5 0.2 0
0.5 0.233333 0
0.5 0.266667 0
0.5 0.3 0
0.5 0.333333 0
0.5 0.366667 0
0.5 0.4 0
0.5 0.433333 0
0.5 0.466667 0
0.5 0.5 0
0.5 0.533333 0
0.5 0.566667 0
0.5 0.6 0
0.5 0.633333 0
0.5 0.666667 0
0.5 0.7 0
0.5 0.733333 0
0.5 0.766667 0
0.5 0.8 0
0.5 0.833333 0
0.5 0.866667 0
0.5 0.9 0
0.5 0.933333 0
0.5 0.966667 0
0.533333 0.0333333 0
0.533333 0.0666667 0
0.533333 0.1 0
0.533333 0.133333 0
0.533333 0.166667 0
0.533333 0.2 0
0.533333 0.233333 0
0.533333 0.266667 0
0.533333 0.3 0
0.533333 0.333333 0
0.533333 0.366667 0
0.533333 0.4 0
0.533333 0.433333 0
0.533333 0.466667 0
0.533333 0.5 0
0.533333 0.533333 0
0.533333 0.566667 0
0.533333 0.6 0
0.533333 0.633333 0
0.533333 0.666667 0
0.533333 0.7 0
0.533333 0.733333 0
0.533333 0.766667 0
0.533333 0.8 0
0.533333 0.833333 0
0.533333 0.866667 0
0.533333 0.9 0
0.533333 0.933333 0
0.533333 0.966667 0
0.566667 0.0333333 0
0.566667 0.0666667 0
0.566667 0.1 0
0.566667 0.133333 0
0.566667 0.166667 0
0.566667 0.2 0
0.566667 0.233333 0
0.566667 0.266667 0
0.566667 0.3 0
0.566667 0.333333 0
0.566667 0.366667 0
0.566667 0.4 0
0.566667 0.433333 0
0.566667 0.466667 0
0.566667 0.5 0
0.566667 0.533333 0
0.566667 0.566667 0
0.566667 0.6 0
0.566667 0.633333 0
0.566667 0.666667 0
0.566667 0.7 0
0.566667 0.733333 0
0.566667 0.766667 0
0.566667 0.8 0
0.566667 0.833333 0
0.566667 0.866667 0
0.566667 0.9 0
0.566667 0.933333 0
0.566667 0.966667 0
0.6 0.0333333 0
0.6 0.0666667 0
0.6 0.1 0
[...]
CELL_DATA 900
VECTORS velocity double
0.000135007 -0.000133911 0
7.01116e-05 -0.00025143 0
-7.25018e-05 -6.15536e-06 0
-0.000220823 0.000674004 0
-0.000358135 0.00178663 0
-0.000481121 0.00330219 0
-0.000590331 0.00518496 0
-0.00068639 0.00739758 0
-0.000769068 0.00990062 0
-0.000837413 0.0126515 0
-0.000890122 0.0156037 0
-0.000926008 0.018707 0
-0.000944518 0.0219086 0
-0.000946317 0.0251561 0
-0.000933963 0.0284013 0
-0.000912723 0.031607 0
-0.000891707 0.0347553 0
-0.000885697 0.0378595 0
-0.000918478 0.0409806 0
-0.00102932 0.0442523 0
-0.00128583 0.0479205 0
-0.00180917 0.0524101 0
-0.00282159 0.0584379 0
-0.00472868 0.0672057 0
-0.00823355 0.0807056 0
-0.0143613 0.102043 0
-0.0236418 0.135555 0
-0.0313799 0.187012 0
-0.00549885 0.245463 0
0.245733 0.152931 0
0.000245775 -6.33156e-05 0
-0.000218491 0.000220513 0
-0.000962267 0.00136972 0
-0.00175849 0.00345378 0
-0.00253018 0.00649036 0
-0.00324753 0.0104435 0
-0.00389974 0.0152478 0
-0.00448101 0.0208241 0
-0.00498548 0.0270831 0
-0.00540637 0.0339261 0
-0.00573675 0.0412457 0
-0.00597123 0.048927 0
-0.00610822 0.056851 0
-0.00615265 0.0648999 0
-0.00611925 0.0729662 0
-0.00603637 0.080965 0
-0.00595091 0.0888502 0
-0.00593511 0.0966361 0
-0.00609705 0.104424 0
-0.00659777 0.112437 0
-0.00767941 0.12106 0
-0.00970978 0.130886 0
-0.0132451 0.142747 0
-0.0190927 0.157692 0
-0.0282826 0.176772 0
-0.0416072 0.200309 0
-0.0574207 0.225958 0
-0.0635488 0.244185 0
-0.00936983 0.227782 0
0.32033 0.119413 0
-3.12315e-06 7.30349e-05 0
-0.00135659 0.000905552 0
-0.00318334 0.00304478 0
-0.00512978 0.00643709 0
-0.00704082 0.0110888 0
-0.00884015 0.0169598 0
-0.0104902 0.0239694 0
-0.0119681 0.0320162 0
-0.0132549 0.0409837 0
-0.0143322 0.0507415 0
-0.0151833 0.0611473 0
-0.0157954 0.0720483 0
-0.016165 0.0832845 0
-0.0163032 0.0946952 0
-0.0162425 0.106128 0
-0.0160453 0.117452 0
-0.0158125 0.128572 0
-0.0156948 0.139453 0
-0.0159073 0.150134 0
-0.016747 0.160752 0
-0.018614 0.171554 0
-0.0220276 0.182878 0
-0.0276096 0.195082 0
-0.035955 0.20835 0
-0.0471793 0.222221 0
-0.0595942 0.234663 0
-0.0659361 0.240315 0
-0.0427479 0.226271 0
0.0781246 0.169021 0
0.467928 0.0769415 0
-0.000631672 0.000195242 0
-0.00329264 0.00153675 0
-0.00649179 0.00457258 0
-0.0098287 0.00907541 0
-0.0130981 0.0150112 0
-0.0161853 0.0223255 0
-0.0190257 0.0309252 0
-0.0215763 0.0406981 0
-0.023802 0.0515159 0
-0.0256702 0.0632346 0
-0.0271511 0.0756957 0
-0.0282216 0.0887262 0
-0.0288719 0.102142 0
-0.0291144 0.115751 0
-0.0289933 0.129363 0
-0.0285955 0.142796 0
-0.0280628 0.155891 0
-0.0276029 0.168528 0
-0.0275005 0.18063 0
-0.0281251 0.192169 0
-0.0299266 0.203154 0
-0.0334004 0.213572 0
-0.0389698 0.223273 0
-0.046672 0.231732 0
-0.0553844 0.237598 0
-0.0609806 0.237974 0
-0.0519642 0.227408 0
0.000963676 0.195084 0
0.164547 0.128094 0
0.573148 0.0505953 0
-0.00157397 0.000285699 0
-0.00590371 0.00202972 0
-0.0106944 0.00577959 0
-0.015567 0.0111377 0
-0.0203032 0.0180163 0
-0.0247694 0.0263392 0
-0.0288823 0.0360014 0
-0.0325822 0.0468864 0
-0.0358182 0.0588644 0
-0.0385416 0.0717904 0
-0.0407067 0.0855021 0
-0.0422751 0.0998191 0
-0.0432242 0.114543 0
-0.0435581 0.129458 0
-0.0433199 0.144339 0
-0.0426053 0.158953 0
-0.041574 0.173074 0
-0.0404598 0.186482 0
-0.0395743 0.198975 0
-0.0392989 0.210355 0
-0.0400518 0.220401 0
-0.042202 0.22881 0
-0.0458679 0.235071 0
-0.0504722 0.238262 0
-0.0537791 0.236697 0
-0.0498279 0.227452 0
-0.0245959 0.205849 0
0.0528495 0.164362 0
0.240726 0.0980486 0
0.64415 0.0336807 0
-0.0027403 0.00034454 0
-0.00901743 0.00236769 0
-0.0155591 0.00661663 0
-0.0220522 0.0125549 0
-0.0282985 0.0200425 0
-0.0341676 0.0289795 0
-0.0395707 0.0392513 0
-0.0444381 0.0507422 0
-0.0487056 0.0633286 0
-0.0523083 0.0768728 0
-0.055181 0.0912179 0
-0.057264 0.106184 0
-0.0585133 0.121566 0
-0.0589132 0.137131 0
-0.0584912 0.152622 0
-0.0573328 0.16776 0
-0.0555936 0.18225 0
-0.0535058 0.195783 0
-0.0513745 0.208042 0
-0.049554 0.218682 0
-0.0483895 0.227311 0
-0.0480889 0.233426 0
-0.0484607 0.236315 0
-0.0483831 0.234895 0
-0.0447374 0.227468 0
-0.0302848 0.211424 0
0.0104278 0.182921 0
0.105897 0.138506 0
0.307826 0.0762462 0
0.69627 0.0227463 0
-0.00404654 0.000377722 0
-0.0124524 0.00256345 0
-0.0208376 0.00709774 0
-0.028981 0.0133466 0
-0.0367307 0.0211279 0
-0.0439797 0.0303226 0
-0.0506478 0.0408116 0
-0.056664 0.0524854 0
-0.0619545 0.0652326 0
-0.0664379 0.0789296 0
-0.0700265 0.0934321 0
-0.0726328 0.108568 0
-0.0741815 0.12413 0
-0.074625 0.139874 0
-0.0739598 0.155518 0
-0.0722439 0.17074 0
-0.0696087 0.185187 0
-0.0662638 0.198472 0
-0.0624863 0.210181 0
-0.0585846 0.219861 0
-0.0548186 0.226999 0
-0.051241 0.230978 0
-0.0473919 0.231 0
-0.0417137 0.22597 0
-0.0304398 0.21433 0
-0.0055528 0.193815 0
0.0482542 0.162014 0
0.157222 0.117667 0
0.366488 0.0605981 0
0.736055 0.0157583 0
-0.0054217 0.000391327 0
-0.0160411 0.00263693 0
-0.0262956 0.0072582 0
-0.03607 0.0135651 0
-0.0452778 0.0213479 0
-0.0538527 0.0304778 0
-0.0617359 0.0408381 0
-0.0688631 0.052332 0
-0.0751551 0.0648665 0
-0.0805143 0.078338 0
-0.0848267 0.0926209 0
-0.0879705 0.107556 0
-0.0898297 0.122942 0
-0.0903118 0.13853 0
-0.089368 0.154016 0
-0.0870126 0.169046 0
-0.0833366 0.183217 0
-0.0785122 0.196078 0
-0.0727766 0.207139 0
-0.0663877 0.215866 0
-0.059527 0.221671 0
-0.0521184 0.223879 0
-0.0434926 0.221676 0
-0.0317659 0.214035 0
-0.0127199 0.199564 0
0.022034 0.176423 0
0.0865198 0.143702 0
0.205488 0.100901 0
0.417626 0.0491842 0
0.767146 0.0112582 0
-0.00680672 0.000389653 0
-0.0196341 0.00260528 0
-0.031718 0.00713302 0
-0.0430581 0.0132647 0
-0.0536464 0.0207798 0
-0.0634705 0.0295501 0
-0.0725035 0.0394708 0
-0.0806952 0.0504645 0
-0.0879646 0.0624627 0
-0.0941975 0.0753877 0
-0.0992509 0.089138 0
-0.102962 0.103574 0
-0.105164 0.118507 0
-0.105708 0.133689 0
-0.104487 0.148805 0
-0.101456 0.163477 0
-0.0966514 0.177259 0
-0.0901976 0.189652 0
-0.082287 0.200105 0
-0.0731299 0.208025 0
-0.0628458 0.212774 0
-0.0512634 0.213653 0
-0.0375608 0.209871 0
-0.0196145 0.200501 0
0.00709838 0.184259 0
0.0503655 0.160222 0
0.123863 0.127806 0
0.250223 0.08727 0
0.46233 0.0406436 0
0.792058 0.0082979 0
-0.00815082 0.00037504 0
-0.0230966 0.00247999 0
-0.036908 0.00674881 0
-0.0497043 0.0124898 0
-0.061566 0.0194878 0
-0.0725438 0.0276269 0
-0.0826511 0.0368231 0
-0.091857 0.0470258 0
-0.100081 0.0581964 0
-0.107194 0.0702888 0
-0.113019 0.0832315 0
-0.117347 0.0969111 0
-0.119953 0.111158 0
-0.12062 0.125734 0
-0.119167 0.140323 0
-0.115478 0.154531 0
-0.109524 0.167885 0
-0.10137 0.179843 0
-0.0911615 0.18981 0
-0.0790684 0.197144 0
-0.0651678 0.201174 0
-0.0492309 0.201193 0
-0.0303434 0.19646 0
-0.00623818 0.186127 0
0.0275754 0.169201 0
0.0785004 0.14522 0
0.159582 0.113876 0
0.291356 0.0759688 0
0.501556 0.0340598 0
0.812455 0.00629165 0
-0.00940778 0.000348251 0
-0.026305 0.00226723 0
-0.0416829 0.00612312 0
-0.0557849 0.011273 0
-0.0687856 0.0175221 0
-0.0808052 0.0247777 0
-0.0919023 0.0329854 0
-0.10207 0.0421272 0
-0.11123 0.0522001 0
-0.119236 0.063194 0
-0.125878 0.0750726 0
-0.130895 0.0877553 0
-0.133995 0.1011 0
-0.134884 0.114887 0
-0.133296 0.128813 0
-0.12903 0.142477 0
-0.121977 0.155393 0
-0.112135 0.166988 0
-0.0995982 0.176627 0
-0.0845029 0.183631 0
-0.0669028 0.187298 0
-0.0465456 0.186918 0
-0.0224775 0.181804 0
0.00764931 0.171125 0
0.0479473 0.154401 0
0.10573 0.131162 0
0.19323 0.101425 0
0.328935 0.0663507 0
0.536051 0.0288056 0
0.829416 0.00487715 0
-0.0105332 0.000309046 0
-0.0291425 0.00196973 0
-0.0458721 0.00526771 0
-0.0610915 0.00963956 0
-0.0750719 0.0149249 0
-0.0880057 0.0210635 0
-0.0999997 0.0280373 0
-0.111072 0.035866 0
-0.12115 0.0445856 0
-0.130069 0.0542257 0
-0.137585 0.0647901 0
-0.143381 0.0762366 0
-0.147094 0.0884591 0
-0.148343 0.10127 0
-0.146769 0.114386 0
-0.142071 0.127421 0
-0.134047 0.139883 0
-0.122617 0.151187 0
-0.107816 0.160665 0
-0.089749 0.167605 0
-0.0684639 0.171273 0
-0.0437177 0.170952 0
-0.0145828 0.166001 0
0.0211896 0.155684 0
0.0675497 0.139714 0
0.131523 0.117739 0
0.224505 0.0900037 0
0.363031 0.0579013 0
0.566373 0.024441 0
0.843642 0.00382755 0
-0.011483 0.000256763 0
-0.0314979 0.00158909 0
-0.049316 0.00419332 0
-0.065431 0.00761519 0
-0.0802096 0.0117406 0
-0.0939153 0.0165491 0
-0.106703 0.0220635 0
-0.118617 0.0283439 0
-0.12959 0.0354672 0
-0.139443 0.0435049 0
-0.147893 0.0525035 0
-0.154571 0.0624653 0
-0.159037 0.0733284 0
-0.160822 0.0849477 0
-0.15946 0.0970783 0
-0.154541 0.109362 0
-0.145756 0.121325 0
-0.132929 0.132379 0
-0.116027 0.141841 0
-0.0951195 0.148965 0
-0.0702593 0.152985 0
-0.0412434 0.153166 0
-0.00721634 0.148887 0
0.0339024 0.139484 0
0.0858976 0.124787 0
0.155468 0.104551 0
0.253164 0.0791755 0
0.393687 0.0501936 0
0.592907 0.0206448 0
0.855585 0.00299778 0
-0.0122135 0.000190799 0
-0.0332663 0.00112817 0
-0.0518679 0.00291469 0
-0.068629 0.00523324 0
-0.0840048 0.0080256 0
-0.0983258 0.0113154 0
-0.111792 0.0151686 0
-0.124474 0.0196856 0
-0.13631 0.0249837 0
-0.147107 0.0311763 0
-0.156548 0.038354 0
-0.164211 0.0465674 0
-0.169584 0.0558067 0
-0.172104 0.0659813 0
-0.171197 0.0769007 0
-0.166332 0.088256 0
-0.157078 0.0996104 0
-0.143146 0.110399 0
-0.124413 0.119938 0
-0.100901 0.127456 0
-0.0726715 0.132146 0
-0.0395815 0.133245 0
-0.000888678 0.130105 0
0.0452601 0.122145 0
0.102499 0.109219 0
0.177158 0.0911826 0
0.27895 0.0685299 0
0.420872 0.0428652 0
0.615883 0.0171735 0
0.865514 0.00229226 0
-0.0126825 0.000111012 0
-0.0343519 0.000593075 0
-0.0533981 0.00145518 0
-0.0705332 0.00254179 0
-0.0862894 0.00385728 0
-0.101055 0.00547085 0
-0.115071 0.00749068 0
-0.12843 0.0100547 0
-0.14108 0.0133175 0
-0.152813 0.0174315 0
-0.163287 0.022531 0
-0.172028 0.0287169 0
-0.178458 0.0360376 0
-0.181925 0.0444683 0
-0.181747 0.0538895 0
-0.177265 0.0640633 0
-0.167914 0.0746171 0
-0.153272 0.0850378 0
-0.133097 0.0946678 0
-0.107335 0.102723 0
-0.0760493 0.108357 0
-0.0391612 0.110761 0
0.00390695 0.109219 0
0.0547582 0.10322 0
0.116873 0.092566 0
0.196177 0.0772017 0
0.30156 0.0576735 0
0.444462 0.0355968 0
0.635383 0.0138327 0
0.873566 0.00164516 0
-0.0128504 1.85177e-05 0
-0.0346727 -4.1443e-06 0
-0.0538004 -0.000148759 0
-0.0710214 -0.000390497 0
-0.0869268 -0.000659071 0
-0.101951 -0.000841182 0
-0.116367 -0.000789917 0
-0.130292 -0.000335057 0
-0.143684 0.000707857 0
-0.156321 0.00252489 0
-0.167839 0.00529268 0
-0.177727 0.00916259 0
-0.185348 0.0142444 0
-0.189969 0.0205867 0
-0.190805 0.028157 0
-0.187073 0.03681 0
-0.178066 0.0462653 0
-0.163209 0.0560999 0
-0.14211 0.065721 0
-0.114597 0.0743602 0
-0.08071 0.0811446 0
-0.0404155 0.0852076 0
0.00667087 0.0857742 0
0.0618955 0.0822036 0
0.128526 0.0743364 0
0.212069 0.0621524 0
0.320627 0.0462134 0
0.464234 0.0280907 0
0.651354 0.010457 0
0.87977 0.00100785 0
-0.0126904 -8.32907e-05 0
-0.034177 -0.000643226 0
-0.0530091 -0.00184407 0
-0.0700191 -0.00346881 0
-0.0858345 -0.00538213 0
-0.100919 -0.00743218 0
-0.115571 -0.00944068 0
-0.129922 -0.0112129 0
-0.143932 -0.012543 0
-0.157391 -0.0132165 0
-0.169918 -0.0130193 0
-0.180975 -0.0117517 0
-0.189885 -0.00924232 0
-0.195851 -0.00536706 0
-0.197997 -5.83875e-05 0
-0.195399 0.00665029 0
-0.18722 0.014594 0
-0.172728 0.0234813 0
-0.151352 0.0328322 0
-0.12275 0.0419539 0
-0.0868967 0.0499724 0
-0.0437457 0.0559741 0
0.00693347 0.0591131 0
0.0661642 0.0584821 0
0.136927 0.0539578 0
0.224313 0.0455283 0
0.335689 0.0337363 0
0.479839 0.0200529 0
0.663609 0.00689392 0
0.884062 0.000339708 0
-0.0121823 -0.000189422 0
-0.0328296 -0.00129521 0
-0.050986 -0.00355689 0
-0.0674851 -0.00656441 0
-0.0829614 -0.0101243 0
-0.0978909 -0.0140569 0
-0.112585 -0.0181644 0
-0.127189 -0.0222386 0
-0.141676 -0.0260579 0
-0.15584 -0.0293859 0
-0.169299 -0.0319763 0
-0.181501 -0.0335831 0
-0.191734 -0.0339732 0
-0.199156 -0.0329444 0
-0.202821 -0.0303419 0
-0.201735 -0.0260759 0
-0.194925 -0.0201556 0
-0.181494 -0.0127302 0
-0.160656 -0.00412632 0
-0.131723 0.00517424 0
-0.0947074 0.0143236 0
-0.049432 0.022394 0
0.00428587 0.028487 0
0.0670608 0.0313363 0
0.141495 0.0307609 0
0.232301 0.026753 0
0.34616 0.019787 0
0.49078 0.0111737 0
0.671802 0.00299423 0
0.886305 -0.000394711 0
-0.0113283 -0.000293605 0
-0.0306469 -0.00192258 0
-0.0477607 -0.00519221 0
-0.0634543 -0.00951365 0
-0.0783369 -0.0146484 0
-0.0928753 -0.0204033 0
-0.107385 -0.0265759 0
-0.122024 -0.0329587 0
-0.136782 -0.0393274 0
-0.151471 -0.0454347 0
-0.16572 -0.0510101 0
-0.178979 -0.0557658 0
-0.190524 -0.0594058 0
-0.199483 -0.0616413 0
-0.204861 -0.0622078 0
-0.205586 -0.0608854 0
-0.200573 -0.0575343 0
-0.188777 -0.0521408 0
-0.16925 -0.0448541 0
-0.141209 -0.0359747 0
-0.10419 -0.0260991 0
-0.0578797 -0.0161322 0
-0.00201089 -0.00707402 0
0.063824 -0.000143691 0
0.141545 0.00390994 0
0.235334 0.00513606 0
0.351362 0.00383198 0
0.496492 0.0011017 0
0.675612 -0.00135086 0
0.88627 -0.00118416 0
-0.0101518 -0.00038756 0
-0.0276945 -0.00247943 0
-0.0434283 -0.00663744 0
-0.0580361 -0.0121249 0
-0.0720678 -0.0186771 0
-0.0859609 -0.0261046 0
-0.100026 -0.0342178 0
-0.114433 -0.0428262 0
-0.129194 -0.0517192 0
-0.144152 -0.0606534 0
-0.158964 -0.0693471 0
-0.173102 -0.0774806 0
-0.185858 -0.0847014 0
-0.196354 -0.0906351 0
-0.203576 -0.0949019 0
-0.206399 -0.0971386 0
-0.203649 -0.0970325 0
-0.194143 -0.0943659 0
-0.176755 -0.0890607 0
-0.150482 -0.0812136 0
-0.114562 -0.0712009 0
-0.0684098 -0.0597502 0
-0.011605 -0.0478663 0
0.0561207 -0.0366161 0
0.136176 -0.027366 0
0.232418 -0.0200602 0
0.350307 -0.0146878 0
0.495966 -0.0104684 0
0.673957 -0.00623838 0
0.883701 -0.0020373 0
-0.00870313 -0.000461728 0
-0.0240959 -0.00291529 0
-0.03816 -0.00777112 0
-0.0514265 -0.0141923 0
-0.0643546 -0.0219107 0
-0.0773341 -0.0307597 0
-0.0906619 -0.0405802 0
-0.10452 -0.0512166 0
-0.118951 -0.0624902 0
-0.133839 -0.0741805 0
-0.148889 -0.0860129 0
-0.163621 -0.0976534 0
-0.177368 -0.108708 0
-0.189282 -0.118728 0
-0.198358 -0.127225 0
-0.203457 -0.133687 0
-0.203349 -0.137615 0
-0.196749 -0.138559 0
-0.182375 -0.136177 0
-0.159005 -0.130286 0
-0.125555 -0.120963 0
-0.0810898 -0.108648 0
-0.0248794 -0.0942046 0
0.0435288 -0.0785134 0
0.124947 -0.0636189 0
0.222724 -0.0494678 0
0.341862 -0.0363259 0
0.4881 -0.0239171 0
0.666298 -0.011896 0
0.878321 -0.00302803 0
-0.00706083 -0.000506504 0
-0.0200343 -0.00318092 0
-0.0322052 -0.0084759 0
-0.0439122 -0.0155159 0
-0.0554993 -0.0240549 0
-0.0672931 -0.0339658 0
-0.0795697 -0.0451373 0
-0.0925221 -0.0574654 0
-0.106229 -0.0708226 0
-0.120628 -0.0850329 0
-0.135489 -0.0998539 0
-0.150405 -0.114963 0
-0.164781 -0.129952 0
-0.177836 -0.144322 0
-0.188615 -0.157494 0
-0.196008 -0.168822 0
-0.198773 -0.177619 0
-0.195575 -0.183195 0
-0.185013 -0.184909 0
-0.165672 -0.182233 0
-0.136169 -0.174847 0
-0.0951869 -0.162776 0
-0.0415269 -0.146543 0
0.0258089 -0.126642 0
0.107156 -0.105727 0
0.205247 -0.0839859 0
0.324861 -0.0619291 0
0.471712 -0.0399412 0
0.651582 -0.0187205 0
0.869592 -0.00425366 0
-0.00532915 -0.000513694 0
-0.0157468 -0.00323559 0
-0.0258847 -0.00865511 0
-0.0358661 -0.015929 0
-0.0459052 -0.0248568 0
-0.0562554 -0.0353652 0
-0.0671654 -0.047402 0
-0.0788366 -0.0609289 0
-0.0913853 -0.0758871 0
-0.104809 -0.0921686 0
-0.11896 -0.109592 0
-0.133525 -0.127883 0
-0.148011 -0.146654 0
-0.161741 -0.1654 0
-0.173858 -0.18349 0
-0.18333 -0.200179 0
-0.188969 -0.214618 0
-0.189446 -0.225888 0
-0.183314 -0.233043 0
-0.169024 -0.235167 0
-0.144956 -0.231469 0
-0.109424 -0.221417 0
-0.0606856 -0.204945 0
0.00301594 -0.182124 0
0.0823174 -0.154967 0
0.179032 -0.125085 0
0.29795 -0.0929601 0
0.445228 -0.0597491 0
0.628325 -0.0274058 0
0.856697 -0.00589185 0
-0.0036314 -0.000478078 0
-0.0115094 -0.00305504 0
-0.0195731 -0.00825158 0
-0.0277303 -0.015329 0
-0.0360648 -0.0241515 0
-0.0447532 -0.0347047 0
-0.0540111 -0.0470011 0
-0.0640418 -0.0610736 0
-0.0749945 -0.0769445 0
-0.0869278 -0.0945945 0
-0.0997812 -0.113934 0
-0.113351 -0.134776 0
-0.127271 -0.156808 0
-0.141007 -0.179573 0
-0.153842 -0.202454 0
-0.164883 -0.224668 0
-0.173062 -0.245265 0
-0.177139 -0.263148 0
-0.17571 -0.277097 0
-0.167199 -0.285817 0
-0.14985 -0.288004 0
-0.121705 -0.282462 0
-0.0805487 -0.268308 0
-0.0239187 -0.245111 0
0.0503654 -0.212702 0
0.143327 -0.174733 0
0.259699 -0.131679 0
0.406669 -0.085393 0
0.594377 -0.0392736 0
0.838274 -0.00833307 0
-0.00209884 -0.00039879 0
-0.00761352 -0.0026391 0
-0.0136687 -0.00726643 0
-0.019985 -0.0137107 0
-0.0265312 -0.02191 0
-0.0334114 -0.031905 0
-0.0408026 -0.0437657 0
-0.0488998 -0.0575918 0
-0.0578721 -0.0734873 0
-0.0678286 -0.0915327 0
-0.0787898 -0.111754 0
-0.0906642 -0.134092 0
-0.103228 -0.158363 0
-0.11611 -0.184233 0
-0.128779 -0.211181 0
-0.140533 -0.238483 0
-0.150497 -0.265192 0
-0.157612 -0.290137 0
-0.160628 -0.31192 0
-0.158078 -0.328943 0
-0.148238 -0.33943 0
-0.129059 -0.341501 0
-0.0980469 -0.333328 0
-0.0520866 -0.313356 0
0.0125947 -0.279822 0
0.0981583 -0.235184 0
0.208879 -0.181347 0
0.35358 -0.120299 0
0.546473 -0.0568984 0
0.811793 -0.012462 0
-0.000855848 -0.000280383 0
-0.00433278 -0.00201786 0
-0.0085512 -0.00577492 0
-0.0131024 -0.0111943 0
-0.0178716 -0.0182849 0
-0.0229025 -0.0271261 0
-0.0283306 -0.0378261 0
-0.0343281 -0.0505318 0
-0.0410637 -0.0654134 0
-0.0486736 -0.0826439 0
-0.0572384 -0.102371 0
-0.0667624 -0.124685 0
-0.0771561 -0.149577 0
-0.088219 -0.176904 0
-0.0996243 -0.20634 0
-0.110904 -0.237345 0
-0.121437 -0.269121 0
-0.130433 -0.300588 0
-0.13691 -0.330355 0
-0.139666 -0.356704 0
-0.137213 -0.377577 0
-0.127678 -0.390571 0
-0.108624 -0.392992 0
-0.0767221 -0.381996 0
-0.0273463 -0.354639 0
0.0452723 -0.30796 0
0.145211 -0.2459 0
0.283343 -0.169787 0
0.479772 -0.0851821 0
0.772375 -0.0202671 0
-2.40114e-06 -0.000134058 0
-0.00188407 -0.00125732 0
-0.00453012 -0.00393884 0
-0.00748672 -0.00804627 0
-0.0106012 -0.0136413 0
-0.0138763 -0.0208154 0
-0.0174059 -0.0296855 0
-0.0213247 -0.0404124 0
-0.0257766 -0.0531987 0
-0.0308933 -0.0682766 0
-0.0367787 -0.0858888 0
-0.0434966 -0.106261 0
-0.0510578 -0.129569 0
-0.059407 -0.155895 0
-0.0684095 -0.185185 0
-0.0778362 -0.217197 0
-0.0873478 -0.251451 0
-0.0964782 -0.287177 0
-0.104611 -0.323256 0
-0.110944 -0.358167 0
-0.114426 -0.389915 0
-0.113645 -0.415963 0
-0.106618 -0.433139 0
-0.0904117 -0.437596 0
-0.0604543 -0.424788 0
-0.00962396 -0.389215 0
0.0716638 -0.327002 0
0.195099 -0.240239 0
0.388286 -0.132462 0
0.710737 -0.0359696 0
0.000405508 1.91095e-05 0
-0.000382832 -0.000467854 0
-0.00178398 -0.00201728 0
-0.00340054 -0.0046883 0
-0.00509391 -0.00856406 0
-0.00685003 -0.0137178 0
-0.0087247 -0.0202416 0
-0.0108056 -0.0282722 0
-0.0131907 -0.0379971 0
-0.0159758 -0.0496519 0
-0.0192479 -0.0635113 0
-0.0230798 -0.079872 0
-0.027525 -0.0990313 0
-0.0326126 -0.121258 0
-0.0383395 -0.146758 0
-0.0446629 -0.17563 0
-0.0514898 -0.207816 0
-0.0586658 -0.243045 0
-0.0659597 -0.28076 0
-0.0730393 -0.320038 0
-0.0794248 -0.359482 0
-0.0843984 -0.397077 0
-0.0868236 -0.430002 0
-0.0847875 -0.454358 0
-0.0748739 -0.46484 0
-0.0507682 -0.454318 0
-0.000957438 -0.413206 0
0.0931176 -0.332198 0
0.264037 -0.209145 0
0.604579 -0.0676239 0
0.00039517 0.000140426 0
0.000212471 0.000180143 0
-0.000308351 -0.000376247 0
-0.000918908 -0.00169152 0
-0.00153818 -0.00383089 0
-0.00215624 -0.00682456 0
-0.00279862 -0.0107166 0
-0.00350523 -0.0155884 0
-0.00432025 -0.0215679 0
-0.00528798 -0.0288309 0
-0.00645119 -0.0375985 0
-0.00785073 -0.048131 0
-0.00952549 -0.0607197 0
-0.0115123 -0.0756756 0
-0.0138456 -0.0933152 0
-0.0165572 -0.113942 0
-0.0196768 -0.13782 0
-0.0232331 -0.165149 0
-0.0272571 -0.196014 0
-0.0317864 -0.23034 0
-0.0368633 -0.267799 0
-0.0425114 -0.307687 0
-0.048652 -0.348713 0
-0.0548844 -0.388641 0
-0.0599632 -0.423686 0
-0.0605891 -0.447634 0
-0.0488612 -0.450762 0
-0.0070744 -0.416406 0
0.105222 -0.315415 0
0.418407 -0.126576 0
0.000147902 0.000146382 0
0.000150245 0.000394593 0
6.24561e-05 0.000450065 0
-3.8342e-05 0.000187618 0
-0.000130309 -0.000407372 0
-0.000211595 -0.00132185 0
-0.000288539 -0.0025533 0
-0.000369794 -0.00412001 0
-0.000464215 -0.00606444 0