# vtk DataFile Version 3.0
Malha 2D com triângulos e temperatura
ASCII
DATASET UNSTRUCTURED_GRID

POINTS 961 double
0 0 0
1 0 0
1 1 0
0 1 0
0.0333333 0 0
0.0666667 0 0
0.1 0 0
0.133333 0 0
0.166667 0 0
0.2 0 0
0.233333 0 0
0.266667 0 0
0.3 0 0
0.333333 0 0
0.366667 0 0
0.4 0 0
0.433333 0 0
0.466667 0 0
0.5 0 0
0.533333 0 0
0.566667 0 0
0.6 0 0
0.633333 0 0
0.666667 0 0
0.7 0 0
0.733333 0 0
0.766667 0 0
0.8 0 0
0.833333 0 0
0.866667 0 0
0.9 0 0
0.933333 0 0
0.966667 0 0
1 0.0333333 0
1 0.0666667 0
1 0.1 0
1 0.133333 0
1 0.166667 0
1 0.2 0
1 0.233333 0
1 0.266667 0
1 0.3 0
1 0.333333 0
1 0.366667 0
1 0.4 0
1 0.433333 0
1 0.466667 0
1 0.5 0
1 0.533333 0
1 0.566667 0
1 0.6 0
1 0.633333 0
1 0.666667 0
1 0.7 0
1 0.733333 0
1 0.766667 0
1 0.8 0
1 0.833333 0
1 0.866667 0
1 0.9 0
1 0.933333 0
1 0.966667 0
0.966667 1 0
0.933333 1 0
0.9 1 0
0.866667 1 0
0.833333 1 0
0.8 1 0
0.766667 1 0
0.733333 1 0
0.7 1 0
0.666667 1 0
0.633333 1 0
0.6 1 0
0.566667 1 0
0.533333 1 0
0.5 1 0
0.466667 1 0
0.433333 1 0
0.4 1 0
0.366667 1 0
0.333333 1 0
0.3 1 0
0.266667 1 0
0.233333 1 0
0.2 1 0
0.166667 1 0
0.133333 1 0
0.1 1 0
0.0666667 1 0
0.0333333 1 0
0 0.966667 0
0 0.933333 0
0 0.9 0
0 0.866667 0
0 0.833333 0
0 0.8 0
0 0.766667 0
0 0.733333 0
0 0.7 0
0 0.666667 0
0 0.633333 0
0 0.6 0
0 0.566667 0
0 0.533333 0
0 0.5 0
0 0.466667 0
0 0.433333 0
0 0.4 0
0 0.366667 0
0 0.333333 0
0 0.3 0
0 0.266667 0
0 0.233333 0
0 0.2 0
0 0.166667 0
0 0.133333 0
0 0.1 0
0 0.0666667 0
0 0.0333333 0
0.0333333 0.0333333 0
0.0333333 0.0666667 0
0.0333333 0.1 0
0.0333333 0.133333 0
0.0333333 0.166667 0
0.0333333 0.2 0
0.0333333 0.233333 0
0.0333333 0.266667 0
0.0333333 0.3 0
0.0333333 0.333333 0
0.0333333 0.366667 0
0.0333333 0.4 0
0.0333333 0.433333 0
0.0333333 0.466667 0
0.0333333 0.5 0
0.0333333 0.533333 0
0.0333333 0.566667 0
0.0333333 0.6 0
0.0333333 0.633333 0
0.0333333 0.666667 0
0.0333333 0.7 0
0.0333333 0.733333 0
0.0333333 0.766667 0
0.0333333 0.8 0
0.0333333 0.833333 0
0.0333333 0.866667 0
0.0333333 0.9 0
0.0333333 0.933333 0
0.0333333 0.966667 0
0.0666667 0.0333333 0
0.0666667 0.0666667 0
0.0666667 0.1 0
0.0666667 0.133333 0
0.0666667 0.166667 0
0.0666667 0.2 0
0.0666667 0.233333 0
0.0666667 0.266667 0
0.0666667 0.3 0
0.0666667 0.333333 0
0.0666667 0.366667 0
0.0666667 0.4 0
0.0666667 0.433333 0
0.0666667 0.466667 0
0.0666667 0.5 0
0.0666667 0.533333 0
0.0666667 0.566667 0
0.0666667 0.6 0
0.0666667 0.633333 0
0.0666667 0.666667 0
0.0666667 0.7 0
0.0666667 0.733333 0
0.0666667 0.766667 0
0.0666667 0.8 0
0.0666667 0.833333 0
0.0666667 0.866667 0
0.0666667 0.9 0
0.0666667 0.933333 0
0.0666667 0.966667 0
0.1 0.0333333 0
0.1 0.0666667 0
0.1 0.1 0
0.1 0.133333 0
0.1 0.166667 0
0.1 0.2 0
0.1 0.233333 0
0.1 0.266667 0
0.1 0.3 0
0.1 0.333333 0
0.1 0.366667 0
0.1 0.4 0
0.1 0.433333 0
0.1 0.466667 0
0.1 0.5 0
0.1 0.533333 0
0.1 0.566667 0
0.1 0.6 0
0.1 0.633333 0
0.1 0.666667 0
0.1 0.7 0
0.1 0.733333 0
0.1 0.766667 0
0.1 0.8 0
0.1 0.833333 0
0.1 0.866667 0
0.1 0.9 0
0.1 0.933333 0
0.1 0.966667 0
0.133333 0.0333333 0
0.133333 0.0666667 0
0.133333 0.1 0
0.133333 0.133333 0
0.133333 0.166667 0
0.133333 0.2 0
0.133333 0.233333 0
0.133333 0.266667 0
0.133333 0.3 0
0.133333 0.333333 0
0.133333 0.366667 0
0.133333 0.4 0
0.133333 0.433333 0
0.133333 0.466667 0
0.133333 0.5 0
0.133333 0.533333 0
0.133333 0.566667 0
0.133333 0.6 0
0.133333 0.633333 0
0.133333 0.666667 0
0.133333 0.7 0
0.133333 0.733333 0
0.133333 0.766667 0
0.133333 0.8 0
0.133333 0.833333 0
0.133333 0.866667 0
0.133333 0.9 0
0.133333 0.933333 0
0.133333 0.966667 0
0.166667 0.0333333 0
0.166667 0.0666667 0
0.166667 0.1 0
0.166667 0.133333 0
0.166667 0.166667 0
0.166667 0.2 0
0.166667 0.233333 0
0.166667 0.266667 0
0.166667 0.3 0
0.166667 0.333333 0
0.166667 0.366667 0
0.166667 0.4 0
0.166667 0.433333 0
0.166667 0.466667 0
0.166667 0.5 0
0.166667 0.533333 0
0.166667 0.566667 0
0.166667 0.6 0
0.166667 0.633333 0
0.166667 0.666667 0
0.166667 0.7 0
0.166667 0.733333 0
0.166667 0.766667 0
0.166667 0.8 0
0.166667 0.833333 0
0.166667 0.866667 0
0.166667 0.9 0
0.166667 0.933333 0
0.166667 0.966667 0
0.2 0.0333333 0
0.2 0.0666667 0
0.2 0.1 0
0.2 0.133333 0
0.2 0.166667 0
0.2 0.2 0
0.2 0.233333 0
0.2 0.266667 0
0.2 0.3 0
0.2 0.333333 0
0.2 0.366667 0
0.2 0.4 0
0.2 0.433333 0
0.2 0.466667 0
0.2 0.5 0
0.2 0.533333 0
0.2 0.566667 0
0.2 0.6 0
0.2 0.633333 0
0.2 0.666667 0
0.2 0.7 0
0.2 0.733333 0
0.2 0.766667 0
0.2 0.8 0
0.2 0.833333 0
0.2 0.866667 0
0.2 0.9 0
0.2 0.933333 0
0.2 0.966667 0
0.233333 0.0333333 0
0.233333 0.0666667 0
0.233333 0.1 0
0.233333 0.133333 0
0.233333 0.166667 0
0.233333 0.2 0
0.233333 0.233333 0
0.233333 0.266667 0
0.233333 0.3 0
0.233333 0.333333 0
0.233333 0.366667 0
0.233333 0.4 0
0.233333 0.433333 0
0.233333 0.466667 0
0.233333 0.5 0
0.233333 0.533333 0
0.233333 0.566667 0
0.233333 0.6 0
0.233333 0.633333 0
0.233333 0.666667 0
0.233333 0.7 0
0.233333 0.733333 0
0.233333 0.766667 0
0.233333 0.8 0
0.233333 0.833333 0
0.233333 0.866667 0
0.233333 0.9 0
0.233333 0.933333 0
0.233333 0.966667 0
0.266667 0.0333333 0
0.266667 0.0666667 0
0.266667 0.1 0
0.266667 0.133333 0
0.266667 0.166667 0
0.266667 0.2 0
0.266667 0.233333 0
0.266667 0.266667 0
0.266667 0.3 0
0.266667 0.333333 0
0.266667 0.366667 0
0.266667 0.4 0
0.266667 0.433333 0
0.266667 0.466667 0
0.266667 0.5 0
0.266667 0.533333 0
0.266667 0.566667 0
0.266667 0.6 0
0.266667 0.633333 0
0.266667 0.666667 0
0.266667 0.7 0
0.266667 0.733333 0
0.266667 0.766667 0
0.266667 0.8 0
0.266667 0.833333 0
0.266667 0.866667 0
0.266667 0.9 0
0.266667 0.933333 0
0.266667 0.966667 0
0.3 0.0333333 0
0.3 0.0666667 0
0.3 0.1 0
0.3 0.133333 0
0.3 0.166667 0
0.3 0.2 0
0.3 0.233333 0
0.3 0.266667 0
0.3 0.3 0
0.3 0.333333 0
0.3 0.366667 0
0.3 0.4 0
0.3 0.433333 0
0.3 0.466667 0
0.3 0.5 0
0.3 0.533333 0
0.3 0.566667 0
0.3 0.6 0
0.3 0.633333 0
0.3 0.666667 0
0.3 0.7 0
0.3 0.733333 0
0.3 0.766667 0
0.3 0.8 0
0.3 0.833333 0
0.3 0.866667 0
0.3 0.9 0
0.3 0.933333 0
0.3 0.966667 0
0.333333 0.0333333 0
0.333333 0.0666667 0
0.333333 0.1 0
0.333333 0.133333 0
0.333333 0.166667 0
0.333333 0.2 0
0.333333 0.233333 0
0.333333 0.266667 0
0.333333 0.3 0
0.333333 0.333333 0
0.333333 0.366667 0
0.333333 0.4 0
0.333333 0.433333 0
0.333333 0.466667 0
0.333333 0.5 0
0.333333 0.533333 0
0.333333 0.566667 0
0.333333 0.6 0
0.333333 0.633333 0
0.333333 0.666667 0
0.333333 0.7 0
0.333333 0.733333 0
0.333333 0.766667 0
0.333333 0.8 0
0.333333 0.833333 0
0.333333 0.866667 0
0.333333 0.9 0
0.333333 0.933333 0
0.333333 0.966667 0
0.366667 0.0333333 0
0.366667 0.0666667 0
0.366667 0.1 0
0.366667 0.133333 0
0.366667 0.166667 0
0.366667 0.2 0
0.366667 0.233333 0
0.366667 0.266667 0
0.366667 0.3 0
0.366667 0.333333 0
0.366667 0.366667 0
0.366667 0.4 0
0.366667 0.433333 0
0.366667 0.466667 0
0.366667 0.5 0
0.366667 0.533333 0
0.366667 0.566667 0
0.366667 0.6 0
0.366667 0.633333 0
0.366667 0.666667 0
0.366667 0.7 0
0.366667 0.733333 0
0.366667 0.766667 0
0.366667 0.8 0
0.366667 0.833333 0
0.366667 0.866667 0
0.366667 0.9 0
0.366667 0.933333 0
0.366667 0.966667 0
0.4 0.0333333 0
0.4 0.0666667 0
0.4 0.1 0
0.4 0.133333 0
0.4 0.166667 0
0.4 0.2 0
0.4 0.233333 0
0.4 0.266667 0
0.4 0.3 0
0.4 0.333333 0
0.4 0.366667 0
0.4 0.4 0
0.4 0.433333 0
0.4 0.466667 0
0.4 0.5 0
0.4 0.533333 0
0.4 0.566667 0
0.4 0.6 0
0.4 0.633333 0
0.4 0.666667 0
0.4 0.7 0
0.4 0.733333 0
0.4 0.766667 0
0.4 0.8 0
0.4 0.833333 0
0.4 0.866667 0
0.4 0.9 0
0.4 0.933333 0
0.4 0.966667 0
0.433333 0.0333333 0
0.433333 0.0666667 0
0.433333 0.1 0
0.433333 0.133333 0
0.433333 0.166667 0
0.433333 0.2 0
0.433333 0.233333 0
0.433333 0.266667 0
0.433333 0.3 0
0.433333 0.333333 0
0.433333 0.366667 0
0.433333 0.4 0
0.433333 0.433333 0
0.433333 0.466667 0
0.433333 0.5 0
0.433333 0.533333 0
0.433333 0.566667 0
0.433333 0.6 0
0.433333 0.633333 0
0.433333 0.666667 0
0.433333 0.7 0
0.433333 0.733333 0
0.433333 0.766667 0
0.433333 0.8 0
0.433333 0.833333 0
0.433333 0.866667 0
0.433333 0.9 0
0.433333 0.933333 0
0.433333 0.966667 0
0.466667 0.0333333 0
0.466667 0.0666667 0
0.466667 0.1 0
0.466667 0.133333 0
0.466667 0.166667 0
0.466667 0.2 0
0.466667 0.233333 0
0.466667 0.266667 0
0.466667 0.3 0
0.466667 0.333333 0
0.466667 0.366667 0
0.466667 0.4 0
0.466667 0.433333 0
0.466667 0.466667 0
0.466667 0.5 0
0.466667 0.533333 0
0.466667 0.566667 0
0.466667 0.6 0
0.466667 0.633333 0
0.466667 0.666667 0
0.466667 0.7 0
0.466667 0.733333 0
0.466667 0.766667 0
0.466667 0.8 0
0.466667 0.833333 0
0.466667 0.866667 0
0.466667 0.9 0
0.466667 0.933333 0
0.466667 0.966667 0
0.5 0.0333333 0
0.5 0.0666667 0
0.5 0.1 0
0.5 0.133333 0
0.5 0.166667 0
0.5 0.2 0
0.5 0.233333 0
0.5 0.266667 0
0.5 0.3 0
0.5 0.333333 0
0.5 0.366667 0
0.5 0.4 0
0.5 0.433333 0
0.5 0.466667 0
0.5 0.5 0
0.5 0.533333 0
0.5 0.566667 0
0.5 0.6 0
0.5 0.633333 0
0.5 0.666667 0
0.5 0.7 0
0.5 0.733333 0
0.5 0.766667 0
0.5 0.8 0
0.5 0.833333 0
0.5 0.866667 0
0.5 0.9 0
0.5 0.933333 0
0.5 0.966667 0
0.533333 0.0333333 0
0.533333 0.0666667 0
0.533333 0.1 0
0.533333 0.133333 0
0.533333 0.166667 0
0.533333 0.2 0
0.533333 0.233333 0
0.533333 0.266667 0
0.533333 0.3 0
0.533333 0.333333 0
0.533333 0.366667 0
0.533333 0.4 0
0.533333 0.433333 0
0.533333 0.466667 0
0.533333 0.5 0
0.533333 0.533333 0
0.533333 0.566667 0
0.533333 0.6 0
0.533333 0.633333 0
0.533333 0.666667 0
0.533333 0.7 0
0.533333 0.733333 0
0.533333 0.766667 0
0.533333 0.8 0
0.533333 0.833333 0
0.533333 0.866667 0
0.533333 0.9 0
0.533333 0.933333 0
0.533333 0.966667 0
0.566667 0.0333333 0
0.566667 0.0666667 0
0.566667 0.1 0
0.566667 0.133333 0
0.566667 0.166667 0
0.566667 0.2 0
0.566667 0.233333 0
0.566667 0.266667 0
0.566667 0.3 0
0.566667 0.333333 0
0.566667 0.366667 0
0.566667 0.4 0
0.566667 0.433333 0
0.566667 0.466667 0
0.566667 0.5 0
0.566667 0.533333 0
0.566667 0.566667 0
0.566667 0.6 0
0.566667 0.633333 0
0.566667 0.666667 0
0.566667 0.7 0
0.566667 0.733333 0
0.566667 0.766667 0
0.566667 0.8 0
0.566667 0.833333 0
0.566667 0.866667 0
0.566667 0.9 0
0.566667 0.933333 0
0.566667 0.966667 0
0.6 0.0333333 0
0.6 0.0666667 0
0.6 0.1 0
0.6 0.133333 0
[...]
CELL_DATA 900
VECTORS velocity double
0.000135625 -0.000134524 0.0
7.0627e-05 -0.000252907 0.0
-7.25424e-05 -7.29499e-06 0.0
-0.000221545 0.000675087 0.0
-0.000359539 0.00179198 0.0
-0.000483141 0.00331374 0.0
-0.00059286 0.00520439 0.0
-0.000689285 0.0074262 0.0
-0.000772163 0.00993927 0.0
-0.000840519 0.0127004 0.0
-0.000893044 0.0156627 0.0
-0.000928555 0.0187751 0.0
-0.000946515 0.0219844 0.0
-0.000947619 0.0252376 0.0
-0.000934462 0.0284863 0.0
-0.000912357 0.0316928 0.0
-0.000890464 0.0348392 0.0
-0.000883608 0.0379388 0.0
-0.000915613 0.0410526 0.0
-0.00102579 0.0443145 0.0
-0.00128177 0.0479711 0.0
-0.00180479 0.0524476 0.0
-0.00281717 0.0584616 0.0
-0.00472464 0.0672157 0.0
-0.0082305 0.0807035 0.0
-0.01436 0.102032 0.0
-0.0236428 0.135541 0.0
-0.0313829 0.187 0.0
-0.00550222 0.245456 0.0
0.245732 0.152929 0.0
0.000247218 -6.38016e-05 0.0
-0.000218337 0.000220332 0.0
-0.000965095 0.00137296 0.0
-0.0017649 0.00346447 0.0
-0.00254023 0.00651281 0.0
-0.00326089 0.0104818 0.0
-0.00391582 0.0153056 0.0
-0.00449903 0.020904 0.0
-0.0050045 0.0271868 0.0
-0.00542535 0.034054 0.0
-0.00575461 0.041397 0.0
-0.00598691 0.0490997 0.0
-0.00612075 0.0570417 0.0
-0.00616122 0.0651044 0.0
-0.00612323 0.0731793 0.0
-0.00603539 0.0811809 0.0
-0.00594483 0.0890627 0.0
-0.00592404 0.096839 0.0
-0.00608136 0.104612 0.0
-0.00657807 0.112604 0.0
-0.00765655 0.121201 0.0
-0.00968492 0.130998 0.0
-0.0132198 0.142829 0.0
-0.019069 0.157744 0.0
-0.0282632 0.176797 0.0
-0.0415951 0.200312 0.0
-0.0574178 0.225949 0.0
-0.0635544 0.244172 0.0
-0.00937994 0.227772 0.0
0.320324 0.11941 0.0
-1.98449e-06 7.30267e-05 0.0
-0.00135975 0.000907848 0.0
-0.00319388 0.00305421 0.0
-0.00514894 0.00645896 0.0
-0.00706865 0.0111286 0.0
-0.00887587 0.0170227 0.0
-0.0105324 0.0240598 0.0
-0.0120148 0.0321374 0.0
-0.0133037 0.0411374 0.0
-0.0143807 0.0509283 0.0
-0.0152289 0.0613659 0.0
-0.0158356 0.0722959 0.0
-0.0161975 0.0835568 0.0
-0.0163259 0.0949867 0.0
-0.016254 0.106432 0.0
-0.0160445 0.117761 0.0
-0.015799 0.128878 0.0
-0.015669 0.139747 0.0
-0.01587 0.150409 0.0
-0.0166995 0.161002 0.0
-0.0185585 0.171771 0.0
-0.021967 0.183058 0.0
-0.0275476 0.195224 0.0
-0.0358963 0.208452 0.0
-0.0471294 0.222287 0.0
-0.0595588 0.234697 0.0
-0.0659194 0.240326 0.0
-0.0427498 0.22627 0.0
0.078111 0.169015 0.0
0.467917 0.0769388 0.0
-0.000632269 0.000195698 0.0
-0.00330214 0.00154145 0.0
-0.00651418 0.00458783 0.0
-0.00986559 0.00910725 0.0
-0.0131494 0.0150656 0.0
-0.0162495 0.0224079 0.0
-0.0191003 0.0310402 0.0
-0.0216581 0.040849 0.0
-0.0238871 0.0517045 0.0
-0.0257545 0.063461 0.0
-0.0272302 0.0759584 0.0
-0.0282914 0.089022 0.0
-0.0289286 0.102466 0.0
-0.0291548 0.116098 0.0
-0.0290147 0.129724 0.0
-0.0285964 0.143164 0.0
-0.0280424 0.156258 0.0
-0.0275615 0.168883 0.0
-0.0274395 0.180965 0.0
-0.0280468 0.192478 0.0
-0.0298345 0.203428 0.0
-0.0332991 0.213807 0.0
-0.0388652 0.223465 0.0
-0.0465715 0.23188 0.0
-0.0552963 0.237703 0.0
-0.0609134 0.238042 0.0
-0.0519246 0.227444 0.0
0.000974796 0.195097 0.0
0.164537 0.128095 0.0
0.573134 0.050594 0.0
-0.00157752 0.000286504 0.0
-0.00592214 0.0020363 0.0
-0.010732 0.00579938 0.0
-0.0156254 0.0111771 0.0
-0.0203817 0.0180813 0.0
-0.0248658 0.0264352 0.0
-0.028993 0.0361327 0.0
-0.0327025 0.0470559 0.0
-0.0359426 0.0590737 0.0
-0.0386644 0.0720393 0.0
-0.0408219 0.0857889 0.0
-0.0423769 0.10014 0.0
-0.0433073 0.114894 0.0
-0.043618 0.129832 0.0
-0.0433531 0.144729 0.0
-0.0426093 0.159352 0.0
-0.0415478 0.173471 0.0
-0.0404037 0.18687 0.0
-0.0394902 0.199345 0.0
-0.0391899 0.210698 0.0
-0.0399226 0.22071 0.0
-0.042059 0.22908 0.0
-0.0457189 0.235299 0.0
-0.050327 0.238444 0.0
-0.0536484 0.236834 0.0
-0.049723 0.227547 0.0
-0.024526 0.205906 0.0
0.0528814 0.16439 0.0
0.240726 0.0980572 0.0
0.644139 0.0336812 0.0
-0.00274765 0.000345569 0.0
-0.00904663 0.00237554 0.0
-0.0156141 0.00663942 0.0
-0.0221343 0.0125991 0.0
-0.0284064 0.0201139 0.0
-0.0342981 0.0290831 0.0
-0.0397188 0.0393909 0.0
-0.0445979 0.0509203 0.0
-0.0488701 0.0635463 0.0
-0.0524701 0.0771296 0.0
-0.0553325 0.091512 0.0
-0.0573981 0.106512 0.0
-0.0586232 0.121923 0.0
-0.0589931 0.137512 0.0
-0.0585366 0.153019 0.0
-0.0573407 0.168165 0.0
-0.0555626 0.182654 0.0
-0.0534364 0.196179 0.0
-0.0512686 0.20842 0.0
-0.0494158 0.219036 0.0
-0.0482248 0.227634 0.0
-0.0479054 0.233712 0.0
-0.0482681 0.23656 0.0
-0.0481929 0.235095 0.0
-0.0445626 0.227625 0.0
-0.0301384 0.211536 0.0
0.0105356 0.182992 0.0
0.105956 0.138545 0.0
0.307843 0.0762604 0.0
0.696266 0.0227483 0.0
-0.00405819 0.000378879 0.0
-0.0124934 0.00257198 0.0
-0.0209114 0.00712207 0.0
-0.0290879 0.0133931 0.0
-0.0368686 0.0212017 0.0
-0.0441443 0.0304284 0.0
-0.050833 0.0409524 0.0
-0.0568624 0.0526633 0.0
-0.0621578 0.0654482 0.0
-0.0666373 0.0791824 0.0
-0.0702129 0.09372 0.0
-0.0727977 0.108887 0.0
-0.0743169 0.124477 0.0
-0.074724 0.140243 0.0
-0.0740171 0.155901 0.0
-0.0722558 0.171131 0.0
-0.0695736 0.185577 0.0
-0.0661822 0.198855 0.0
-0.0623606 0.210548 0.0
-0.0584195 0.220206 0.0
-0.054621 0.227315 0.0
-0.0510199 0.231261 0.0
-0.0471582 0.231245 0.0
-0.0414802 0.226174 0.0
-0.0302207 0.214491 0.0
-0.00536148 0.193932 0.0
0.0483979 0.162094 0.0
0.15731 0.117713 0.0
0.366525 0.0606163 0.0
0.73606 0.0157613 0.0
-0.0054379 0.00039254 0.0
-0.0160945 0.00264568 0.0
-0.0263883 0.0072828 0.0
-0.0362016 0.0136114 0.0
-0.0454451 0.0214208 0.0
-0.0540501 0.0305809 0.0
-0.0619563 0.040974 0.0
-0.0690978 0.0525023 0.0
-0.0753946 0.0650714 0.0
-0.0807484 0.0785769 0.0
-0.0850452 0.0928915 0.0
-0.0881637 0.107855 0.0
-0.0899883 0.123266 0.0
-0.0904282 0.138872 0.0
-0.089436 0.154372 0.0
-0.0870279 0.169409 0.0
-0.0832976 0.183578 0.0
-0.0784192 0.196432 0.0
-0.0726327 0.207478 0.0
-0.0661982 0.216185 0.0
-0.0592998 0.221965 0.0
-0.0518634 0.224142 0.0
-0.0432219 0.221906 0.0
-0.031493 0.214229 0.0
-0.0124602 0.199719 0.0
0.0222629 0.176539 0.0
0.0866989 0.143782 0.0
0.205606 0.100949 0.0
0.417686 0.0492042 0.0
0.767163 0.0112617 0.0
-0.00682748 0.000390873 0.0
-0.0196995 0.00261386 0.0
-0.0318292 0.00715681 0.0
-0.0432132 0.013309 0.0
-0.0538411 0.0208486 0.0
-0.0636982 0.0296465 0.0
-0.072756 0.0395968 0.0
-0.0809627 0.0506211 0.0
-0.0882364 0.0626498 0.0
-0.0944626 0.0756045 0.0
-0.0994978 0.0893825 0.0
-0.10318 0.103844 0.0
-0.105343 0.118798 0.0
-0.10584 0.133995 0.0
-0.104564 0.149122 0.0
-0.101473 0.163798 0.0
-0.096608 0.177579 0.0
-0.0900938 0.189964 0.0
-0.0821264 0.200404 0.0
-0.0729186 0.208306 0.0
-0.0625923 0.213032 0.0
-0.0509787 0.213884 0.0
-0.0372576 0.210074 0.0
-0.0193063 0.200672 0.0
0.00739732 0.184395 0.0
0.0506294 0.160327 0.0
0.124075 0.127881 0.0
0.250371 0.0873159 0.0
0.462413 0.0406631 0.0
0.792086 0.00830129 0.0
-0.00817597 0.000376225 0.0
-0.0231736 0.00248806 0.0
-0.0370362 0.00677084 0.0
-0.0498809 0.0125303 0.0
-0.0617853 0.0195499 0.0
-0.0727984 0.027713 0.0
-0.0829316 0.0369346 0.0
-0.0921529 0.0471633 0.0
-0.100381 0.0583597 0.0
-0.107486 0.0704769 0.0
-0.11329 0.0834426 0.0
-0.117586 0.0971426 0.0
-0.120149 0.111407 0.0
-0.120763 0.125995 0.0
-0.11925 0.140593 0.0
-0.115497 0.154803 0.0
-0.109476 0.168155 0.0
-0.101256 0.180106 0.0
-0.0909856 0.19006 0.0
-0.0788375 0.197378 0.0
-0.0648913 0.201387 0.0
-0.0489203 0.201384 0.0
-0.0300119 0.196627 0.0
-0.0058985 0.186266 0.0
0.0279006 0.169316 0.0
0.0787915 0.145311 0.0
0.159821 0.113942 0.0
0.291529 0.0760098 0.0
0.50166 0.0340773 0.0
0.812494 0.00629458 0.0
-0.00943699 0.000349359 0.0
-0.0263923 0.00227449 0.0
-0.0418263 0.00614252 0.0
-0.0559801 0.011308 0.0
-0.069026 0.0175752 0.0
-0.0810823 0.0248506 0.0
-0.0922062 0.0330787 0.0
-0.102389 0.0422413 0.0
-0.111552 0.0523346 0.0
-0.119549 0.063348 0.0
-0.126169 0.0752447 0.0
-0.131151 0.0879432 0.0
-0.134204 0.101301 0.0
-0.135036 0.115098 0.0
-0.133384 0.129029 0.0
-0.129048 0.142695 0.0
-0.121923 0.155607 0.0
-0.112011 0.167195 0.0
-0.0994084 0.176823 0.0
-0.0842548 0.183812 0.0
-0.0666068 0.187462 0.0
-0.0462138 0.187063 0.0
-0.0221238 0.181931 0.0
0.00800905 0.171233 0.0
0.0482937 0.154492 0.0
0.106043 0.131234 0.0
0.193492 0.101478 0.0
0.32913 0.0663843 0.0
0.536174 0.0288198 0.0
0.829463 0.00487934 0.0
-0.010566 0.000310032 0.0
-0.0292386 0.00197586 0.0
-0.0460281 0.00528368 0.0
-0.0613017 0.00966785 0.0
-0.075329 0.014967 0.0
-0.0883005 0.0211204 0.0
-0.100322 0.0281093 0.0
-0.111409 0.0359531 0.0
-0.121489 0.0446874 0.0
-0.130398 0.0543416 0.0
-0.13789 0.0649189 0.0
-0.143649 0.0763768 0.0
-0.147312 0.0886085 0.0
-0.148502 0.101426 0.0
-0.14686 0.114545 0.0
-0.142088 0.12758 0.0
-0.133988 0.140039 0.0
-0.122484 0.151335 0.0
-0.107614 0.160804 0.0
-0.0894865 0.167731 0.0
-0.0681522 0.171386 0.0
-0.0433701 0.17105 0.0
-0.0142133 0.166086 0.0
0.0215646 0.155757 0.0
0.0679111 0.139776 0.0
0.131851 0.117789 0.0
0.224783 0.0900418 0.0
0.363243 0.0579257 0.0
0.56651 0.024451 0.0
0.843696 0.00382883 0.0
-0.0115187 0.000257576 0.0
-0.0316008 0.0015938 0.0
-0.0494814 0.00420511 0.0
-0.0656523 0.00763546 0.0
-0.0804786 0.01177 0.0
-0.0942224 0.0165879 0.0
-0.107037 0.0221116 0.0
-0.118966 0.0284013 0.0
-0.129941 0.0355334 0.0
-0.139783 0.0435796 0.0
-0.148208 0.0525861 0.0
-0.154847 0.0625548 0.0
-0.159262 0.0734234 0.0
-0.160984 0.0850465 0.0
-0.159551 0.0971787 0.0
-0.154556 0.109462 0.0
-0.145692 0.121421 0.0
-0.132788 0.132468 0.0
-0.115815 0.141922 0.0
-0.0948453 0.149036 0.0
-0.0699358 0.153046 0.0
-0.0408848 0.153217 0.0
-0.00683697 0.14893 0.0
0.0342858 0.13952 0.0
0.0862668 0.124818 0.0
0.155805 0.104578 0.0
0.253452 0.079197 0.0
0.39391 0.0502076 0.0
0.593054 0.0206502 0.0
0.855643 0.00299807 0.0
-0.0122513 0.000191384 0.0
-0.0333738 0.00113117 0.0
-0.0520393 0.00292164 0.0
-0.0688568 0.00524443 0.0
-0.0842805 0.00804088 0.0
-0.0986394 0.0113344 0.0
-0.112132 0.0151911 0.0
-0.124829 0.0197113 0.0
-0.136667 0.0250124 0.0
-0.147452 0.031208 0.0
-0.156868 0.0383886 0.0
-0.164491 0.0466047 0.0
-0.169812 0.0558461 0.0
-0.172268 0.0660221 0.0
-0.171288 0.0769416 0.0
-0.166344 0.0882955 0.0
-0.157009 0.0996468 0.0
-0.142998 0.11043 0.0
-0.124193 0.119964 0.0
-0.100618 0.127474 0.0
-0.072339 0.132157 0.0
-0.039215 0.133249 0.0
-0.000503495 0.130102 0.0
0.0456454 0.122145 0.0
0.102869 0.10922 0.0
0.177497 0.0911865 0.0
0.27924 0.0685347 0.0
0.421099 0.0428689 0.0
0.616034 0.0171742 0.0
0.865573 0.0022916 0.0
-0.0127215 0.000111311 0.0
-0.0344615 0.000594109 0.0
-0.0535716 0.00145675 0.0
-0.0707628 0.00254311 0.0
-0.0865662 0.00385742 0.0
-0.101369 0.00546902 0.0
-0.115411 0.00748634 0.0
-0.128786 0.0100476 0.0
-0.141437 0.0133076 0.0
-0.153159 0.0174194 0.0
-0.163607 0.0225171 0.0
-0.172309 0.0287017 0.0
-0.178687 0.0360215 0.0
-0.182089 0.0444514 0.0
-0.181837 0.0538717 0.0
-0.177275 0.0640443 0.0
-0.167842 0.0745961 0.0
-0.153119 0.0850141 0.0
-0.132871 0.0946409 0.0
-0.107046 0.102692 0.0
-0.0757115 0.108323 0.0
-0.0387912 0.110725 0.0
0.0042906 0.109183 0.0
0.0551393 0.103189 0.0
0.117238 0.0925417 0.0
0.196511 0.0771848 0.0
0.301848 0.057663 0.0
0.444689 0.0355906 0.0
0.635533 0.013829 0.0
0.873624 0.00164367 0.0
-0.0128893 1.84877e-05 0.0
-0.0347817 -5.26046e-06 0.0
-0.0539721 -0.00015293 0.0
-0.0712478 -0.000399542 0.0
-0.0871993 -0.000674596 0.0
-0.10226 -0.000864397 0.0
-0.116702 -0.000821504 0.0
-0.130641 -0.000375157 0.0
-0.144036 0.000659643 0.0
-0.156662 0.00246934 0.0
-0.168156 0.00523091 0.0
-0.178006 0.00909584 0.0
-0.185575 0.014174 0.0
-0.190132 0.0205138 0.0
-0.190894 0.0280825 0.0
-0.187081 0.0367348 0.0
-0.177992 0.0461898 0.0
-0.163055 0.0560246 0.0
-0.141882 0.0656462 0.0
-0.114306 0.0742861 0.0
-0.0803715 0.0810714 0.0
-0.0400469 0.0851368 0.0
0.00704985 0.0857078 0.0
0.062269 0.0821459 0.0
0.128881 0.0742897 0.0
0.212393 0.0621173 0.0
0.320907 0.0461894 0.0
0.464455 0.0280759 0.0
0.651501 0.0104496 0.0
0.879824 0.0010057 0.0
-0.0127282 -8.36797e-05 0.0
-0.0342823 -0.000646589 0.0
-0.0531747 -0.00185412 0.0
-0.0702374 -0.00348831 0.0
-0.0860972 -0.00541329 0.0
-0.101218 -0.00747656 0.0
-0.115895 -0.00949904 0.0
-0.13026 -0.0112852 0.0
-0.144274 -0.0126285 0.0
-0.157723 -0.0133141 0.0
-0.170227 -0.0131272 0.0
-0.181248 -0.011868 0.0
-0.190107 -0.00936473 0.0
-0.196011 -0.00549331 0.0
-0.198085 -0.000186798 0.0
-0.195408 0.00652246 0.0
-0.187147 0.014468 0.0
-0.172576 0.0233586 0.0
-0.151127 0.0327141 0.0
-0.122462 0.0418415 0.0
-0.0865617 0.0498656 0.0
-0.0433824 0.0558743 0.0
0.00730389 0.0590213 0.0
0.0665257 0.0584025 0.0
0.137269 0.0538931 0.0
0.224625 0.0454785 0.0
0.335957 0.0337013 0.0
0.480049 0.020031 0.0
0.663746 0.00688337 0.0
0.884111 0.000337101 0.0
-0.0122178 -0.00019018 0.0
-0.0329284 -0.00130079 0.0
-0.0511416 -0.00357264 0.0
-0.0676904 -0.00659393 0.0
-0.0832091 -0.0101703 0.0
-0.0981728 -0.0141212 0.0
-0.112892 -0.0182479 0.0
-0.127511 -0.0223412 0.0
-0.142002 -0.0261787 0.0
-0.156159 -0.0295233 0.0
-0.169598 -0.0321279 0.0
-0.181765 -0.0337461 0.0
-0.19195 -0.0341445 0.0
-0.199312 -0.0331206 0.0
-0.202909 -0.0305198 0.0
-0.201746 -0.0262523 0.0
-0.194856 -0.0203276 0.0
-0.181347 -0.0128952 0.0
-0.16044 -0.0042834 0.0
-0.131443 0.00502832 0.0
-0.0943812 0.0141891 0.0
-0.0490782 0.0222715 0.0
0.0046445 0.028377 0.0
0.0674074 0.0312405 0.0
0.141822 0.030683 0.0
0.232596 0.0266924 0.0
0.346412 0.0197437 0.0
0.490976 0.0111464 0.0
0.671928 0.00298143 0.0
0.886347 -0.000397558 0.0
-0.0113602 -0.000294713 0.0
-0.0307366 -0.00193019 0.0
-0.0479025 -0.00521309 0.0
-0.0636423 -0.00955213 0.0
-0.0785647 -0.0147077 0.0
-0.0931359 -0.0204854 0.0
-0.107671 -0.026682 0.0
-0.122325 -0.0330886 0.0
-0.137089 -0.0394801 0.0
-0.151772 -0.0456082 0.0
-0.166004 -0.0512016 0.0
-0.179231 -0.0559716 0.0
-0.190733 -0.059622 0.0
-0.199636 -0.0618635 0.0
-0.204949 -0.0624314 0.0
-0.205601 -0.0611061 0.0
-0.200512 -0.0577479 0.0
-0.18864 -0.0523436 0.0
-0.169044 -0.045044 0.0
-0.140943 -0.0361491 0.0
-0.103879 -0.0262561 0.0
-0.057542 -0.0162715 0.0
-0.00166634 -0.00718887 0.0
0.0641511 -0.000249602 0.0
0.141853 0.00382285 0.0
0.23561 0.00506768 0.0
0.351596 0.00378288 0.0
0.496674 0.00107113 0.0
0.675723 -0.0013644 0.0
0.886304 -0.00118691 0.0
-0.0101792 -0.000388959 0.0
-0.0277726 -0.00248869 0.0
-0.0435532 -0.00666245 0.0
-0.0582031 -0.0121706 0.0
-0.0722718 -0.018747 0.0
-0.086196 -0.0262011 0.0
-0.100285 -0.0343423 0.0
-0.114709 -0.0429787 0.0
-0.129478 -0.0518986 0.0
-0.144432 -0.0608576 0.0
-0.15923 -0.069573 0.0
-0.173341 -0.0777239 0.0
-0.186058 -0.0849573 0.0
-0.196504 -0.0908982 0.0
-0.203664 -0.0951666 0.0
-0.20642 -0.0973992 0.0
-0.203598 -0.0972836 0.0
-0.194021 -0.0946029 0.0
-0.176566 -0.08928 0.0
-0.150235 -0.0814126 0.0
-0.114272 -0.0713777 0.0
-0.0680931 -0.059905 0.0
-0.01128 -0.0479985 0.0
0.0564343 -0.0367303 0.0
0.136466 -0.0274604 0.0
0.232675 -0.0201337 0.0
0.350521 -0.0147402 0.0
0.496127 -0.0105001 0.0
0.674053 -0.00625156 0.0
0.883728 -0.00203974 0.0
-0.00872529 -0.000463321 0.0
-0.0241608 -0.00292563 0.0
-0.0382655 -0.00779883 0.0
-0.0515696 -0.0142427 0.0
-0.0645316 -0.0219878 0.0
-0.0775402 -0.0308662 0.0
-0.0908915 -0.0407178 0.0
-0.104766 -0.0513856 0.0
-0.119207 -0.0626898 0.0
-0.134094 -0.0744085 0.0
-0.149134 -0.086266 0.0
-0.163844 -0.0979271 0.0
-0.177557 -0.108997 0.0
-0.189426 -0.119026 0.0
-0.198448 -0.127525 0.0
-0.203486 -0.133983 0.0
-0.203311 -0.137899 0.0
-0.196644 -0.138826 0.0
-0.182207 -0.136422 0.0
-0.158782 -0.130506 0.0
-0.125289 -0.121156 0.0
-0.0807966 -0.108814 0.0
-0.0245767 -0.0943448 0.0
0.0438213 -0.0786314 0.0
0.125215 -0.0637154 0.0
0.222959 -0.0495418 0.0
0.342055 -0.036378 0.0
0.488242 -0.0239479 0.0
0.66638 -0.0119084 0.0
0.878341 -0.00303011 0.0
-0.0070773 -0.00050816 0.0
-0.0200851 -0.00319162 0.0
-0.0322902 -0.00850452 0.0
-0.0440299 -0.0155681 0.0
-0.0556472 -0.0241348 0.0
-0.0674677 -0.0340768 0.0
-0.0797667 -0.0452814 0.0
-0.0927361 -0.0576434 0.0
-0.106454 -0.0710341 0.0
-0.120854 -0.0852761 0.0
-0.135709 -0.100125 0.0
-0.150609 -0.115259 0.0
-0.164957 -0.130265 0.0
-0.177975 -0.144646 0.0
-0.188707 -0.157822 0.0
-0.196044 -0.169146 0.0
-0.198751 -0.177931 0.0
-0.195491 -0.183488 0.0
-0.18487 -0.185176 0.0
-0.165478 -0.182472 0.0
-0.135933 -0.175053 0.0
-0.0949223 -0.16295 0.0
-0.0412504 -0.146686 0.0
0.0260774 -0.126759 0.0
0.1074 -0.105821 0.0
0.205459 -0.0840566 0.0
0.325032 -0.0619779 0.0
0.471834 -0.0399695 0.0
0.651649 -0.0187314 0.0
0.869605 -0.00425527 0.0
-0.00533996 -0.000515259 0.0
-0.0157835 -0.0032458 0.0
-0.025949 -0.00868262 0.0
-0.035958 -0.0159795 0.0
-0.0460233 -0.0249349 0.0
-0.0563974 -0.0354745 0.0
-0.067328 -0.0475451 0.0
-0.0790158 -0.0611073 0.0
-0.0915757 -0.0761009 0.0
-0.105004 -0.0924166 0.0
-0.119153 -0.109872 0.0
-0.133706 -0.128189 0.0
-0.148171 -0.146981 0.0
-0.161871 -0.165741 0.0
-0.173949 -0.183838 0.0
-0.183375 -0.200524 0.0
-0.188962 -0.214952 0.0
-0.189386 -0.226202 0.0
-0.1832 -0.23333 0.0
-0.168863 -0.235422 0.0
-0.144754 -0.231687 0.0
-0.109194 -0.221598 0.0
-0.060441 -0.205089 0.0
0.00326097 -0.18223 0.0
0.0825399 -0.155054 0.0
0.179223 -0.125149 0.0
0.2981 -0.0930034 0.0
0.445333 -0.0597735 0.0
0.628378 -0.0274147 0.0
0.856706 -0.00589289 0.0
-0.00363705 -0.000479393 0.0
-0.0115331 -0.00306392 0.0
-0.019618 -0.00827597 0.0
-0.0277975 -0.0153745 0.0
-0.0361539 -0.0242228 0.0
-0.0448628 -0.0348059 0.0
-0.054139 -0.0471352 0.0
-0.0641851 -0.061243 0.0
-0.0751492 -0.07715 0.0
-0.087089 -0.0948357 0.0
-0.0999428 -0.114209 0.0
-0.113506 -0.135081 0.0
-0.127412 -0.157137 0.0
-0.141125 -0.17992 0.0
-0.15393 -0.202811 0.0
-0.164933 -0.225025 0.0
-0.17307 -0.245613 0.0
-0.177102 -0.263477 0.0
-0.175627 -0.2774 0.0
-0.167073 -0.286087 0.0
-0.149687 -0.288236 0.0
-0.121514 -0.282653 0.0
-0.0803418 -0.26846 0.0
-0.0237078 -0.245225 0.0
0.0505627 -0.212785 0.0
0.143494 -0.174792 0.0
0.259829 -0.131717 0.0
0.406756 -0.0854129 0.0
0.594419 -0.0392801 0.0
0.838279 -0.00833352 0.0
-0.00210029 -0.000399715 0.0
-0.00762614 -0.00264592 0.0
-0.0136966 -0.00728591 0.0
-0.0200301 -0.013748 0.0
-0.0265937 -0.02197 0.0
-0.0334905 -0.0319919 0.0
-0.0408971 -0.0438832 0.0
-0.0490076 -0.0577427 0.0
-0.0579906 -0.0736734 0.0
-0.0679544 -0.0917546 0.0
-0.0789185 -0.112011 0.0
-0.0907905 -0.134381 0.0
-0.103346 -0.15868 0.0
-0.116213 -0.184571 0.0
-0.12886 -0.211532 0.0
-0.140586 -0.238839 0.0
-0.150517 -0.265544 0.0
-0.157596 -0.290474 0.0
-0.160575 -0.312234 0.0
-0.157988 -0.329224 0.0
-0.148115 -0.339674 0.0
-0.12891 -0.341703 0.0
-0.0978806 -0.333487 0.0
-0.0519125 -0.313473 0.0
0.0127651 -0.279898 0.0
0.0983035 -0.235238 0.0
0.208991 -0.181378 0.0
0.353653 -0.120314 0.0
0.546506 -0.0569026 0.0
0.811795 -0.0124619 0.0
-0.000854402 -0.000280825 0.0
-0.00433711 -0.00202212 0.0
-0.00856571 -0.00578825 0.0
-0.0131291 -0.0112214 0.0
-0.0179111 -0.0183302 0.0
-0.0229546 -0.027194 0.0
-0.0283946 -0.0379205 0.0
-0.0344027 -0.050656 0.0
-0.0411474 -0.06557 0.0
-0.0487643 -0.0828344 0.0
-0.0573331 -0.102596 0.0
-0.0668577 -0.124942 0.0
-0.0772477 -0.149864 0.0
-0.0883021 -0.177215 0.0
-0.0996938 -0.20667 0.0
-0.110955 -0.237685 0.0
-0.121465 -0.269462 0.0
-0.130433 -0.300919 0.0
-0.136882 -0.330668 0.0
-0.139609 -0.35699 0.0
-0.13713 -0.377828 0.0
-0.127572 -0.390782 0.0
-0.108501 -0.393161 0.0
-0.0765903 -0.382123 0.0
-0.0272144 -0.354724 0.0
0.0453915 -0.308012 0.0
0.145304 -0.245928 0.0
0.283403 -0.169799 0.0
0.479799 -0.0851845 0.0
0.772377 -0.0202665 0.0
4.49384e-07 -0.000133991 0.0
-0.0018833 -0.00125888 0.0
-0.00453536 -0.00394564 0.0
-0.00749981 -0.00806216 0.0
-0.0106228 -0.0136703 0.0
-0.0139064 -0.0208617 0.0
-0.017444 -0.0297528 0.0
-0.0213703 -0.0405042 0.0
-0.0258289 -0.0533178 0.0
-0.0309512 -0.0684253 0.0
-0.0368407 -0.0860683 0.0
-0.0435607 -0.106472 0.0
-0.0511213 -0.129809 0.0
-0.059467 -0.156161 0.0
-0.0684626 -0.185472 0.0
-0.0778786 -0.217499 0.0
-0.0873762 -0.25176 0.0
-0.0964895 -0.287484 0.0
-0.104603 -0.323553 0.0
-0.110916 -0.358443 0.0
-0.114378 -0.390164 0.0
-0.113579 -0.416176 0.0
-0.106538 -0.433313 0.0
-0.0903218 -0.437729 0.0
-0.0603608 -0.42488 0.0
-0.0095342 -0.389268 0.0
0.0717357 -0.32703 0.0
0.195146 -0.24025 0.0
0.388307 -0.132464 0.0
0.710738 -0.0359688 0.0
0.000408304 1.96088e-05 0.0
-0.000380118 -0.000467087 0.0