# vtk DataFile Version 3.0
Malha 2D com triângulos e temperatura
ASCII
DATASET UNSTRUCTURED_GRID

POINTS 1478 double
0 0 0
1 0 0
1 1 0
0 1 0
0.04 0 0
0.08 0 0
0.12 0 0
0.16 0 0
0.2 0 0
0.24 0 0
0.28 0 0
0.32 0 0
0.36 0 0
0.4 0 0
0.44 0 0
0.48 0 0
0.52 0 0
0.56 0 0
0.6 0 0
0.64 0 0
0.68 0 0
0.72 0 0
0.76 0 0
0.8 0 0
0.84 0 0
0.88 0 0
0.92 0 0
0.96 0 0
1 0.04 0
1 0.08 0
1 0.12 0
1 0.16 0
1 0.2 0
1 0.24 0
1 0.28 0
1 0.32 0
1 0.36 0
1 0.4 0
1 0.44 0
1 0.48 0
1 0.52 0
1 0.56 0
1 0.6 0
1 0.64 0
1 0.68 0
1 0.72 0
1 0.76 0
1 0.8 0
1 0.84 0
1 0.88 0
1 0.92 0
1 0.96 0
0.96 1 0
0.92 1 0
0.88 1 0
0.84 1 0
0.8 1 0
0.76 1 0
0.72 1 0
0.68 1 0
0.64 1 0
0.6 1 0
0.56 1 0
0.52 1 0
0.48 1 0
0.44 1 0
0.4 1 0
0.36 1 0
0.32 1 0
0.28 1 0
0.24 1 0
0.2 1 0
0.16 1 0
0.12 1 0
0.08 1 0
0.04 1 0
0 0.96 0
0 0.92 0
0 0.88 0
0 0.84 0
0 0.8 0
0 0.76 0
0 0.72 0
0 0.68 0
0 0.64 0
0 0.6 0
0 0.56 0
0 0.52 0
0 0.48 0
0 0.44 0
0 0.4 0
0 0.36 0
0 0.32 0
0 0.28 0
0 0.24 0
0 0.2 0
0 0.16 0
0 0.12 0
0 0.08 0
0 0.04 0
0.034641 0.5 0
0.964067 0.498276 0
0.5 0.965359 0
0.5 0.034641 0
0.34 0.965359 0
0.968343 0.660876 0
0.031774 0.337907 0
0.658287 0.0327543 0
0.66 0.965359 0
0.0381412 0.656785 0
0.968226 0.337907 0
0.34 0.034641 0
0.22 0.965359 0
0.0310332 0.221309 0
0.964675 0.779066 0
0.775675 0.0383567 0
0.78 0.965359 0
0.0376444 0.785564 0
0.970208 0.220673 0
0.22 0.034641 0
0.14 0.965359 0
0.960446 0.86295 0
0.034641 0.14 0
0.858287 0.0327543 0
0.42 0.965359 0
0.0339986 0.421113 0
0.959627 0.581751 0
0.58 0.034641 0
0.968527 0.421422 0
0.964005 0.143122 0
0.415675 0.0383567 0
0.14 0.034641 0
0.86 0.965359 0
0.58 0.965359 0
0.0382004 0.582348 0
0.0355461 0.86044 0
0.0337479 0.061547 0
0.935809 0.0362373 0
0.938453 0.966252 0
0.0362279 0.936327 0
0.46 0.965359 0
0.48 0.930718 0
0.52 0.930718 0
0.5 0.896077 0
0.46 0.896077 0
0.48 0.861436 0
0.44 0.861436 0
0.46 0.826795 0
0.5 0.826795 0
0.48 0.792154 0
0.52 0.792154 0
0.5 0.757513 0
0.46 0.757513 0
0.48 0.722872 0
0.52 0.722872 0
0.5 0.688231 0
0.46 0.688231 0
0.48 0.65359 0
0.52 0.65359 0
0.5 0.618949 0
0.46 0.618949 0
0.48 0.584308 0
0.52 0.584308 0
0.5 0.549667 0
0.46 0.549667 0
0.48 0.515026 0
0.52 0.515026 0
0.5 0.480385 0
0.46 0.480385 0
0.54 0.480385 0
0.52 0.445744 0
0.56 0.445744 0
0.58 0.480385 0
0.6 0.445744 0
0.54 0.411103 0
0.62 0.480385 0
0.64 0.445744 0
0.66 0.480385 0
0.68 0.445744 0
0.66 0.411103 0
0.7 0.480385 0
0.68 0.515026 0
0.7 0.411103 0
0.68 0.376462 0
0.72 0.376462 0
0.7 0.341821 0
0.72 0.515026 0
0.7 0.549667 0
0.74 0.341821 0
0.72 0.30718 0
0.68 0.30718 0
0.7 0.272539 0
0.66 0.272539 0
0.74 0.549667 0
0.72 0.584308 0
0.74 0.272539 0
0.76 0.515026 0
0.76 0.584308 0
0.74 0.618949 0
0.72 0.237898 0
0.76 0.237898 0
0.76 0.376462 0
0.78 0.618949 0
0.76 0.65359 0
0.72 0.65359 0
0.74 0.688231 0
0.78 0.688231 0
0.76 0.722872 0
0.72 0.722872 0
0.74 0.757513 0
0.78 0.757513 0
0.7 0.757513 0
0.72 0.792154 0
0.74 0.203257 0
0.78 0.203257 0
0.8 0.237898 0
0.68 0.792154 0
0.42 0.826795 0
0.8 0.584308 0
0.68 0.584308 0
0.5 0.411103 0
0.52 0.376462 0
0.48 0.376462 0
0.5 0.341821 0
0.46 0.341821 0
0.48 0.30718 0
0.44 0.30718 0
0.42 0.341821 0
0.4 0.30718 0
0.38 0.341821 0
0.36 0.30718 0
0.34 0.341821 0
0.32 0.30718 0
0.3 0.341821 0
0.28 0.30718 0
0.32 0.376462 0
0.28 0.376462 0
0.3 0.411103 0
0.26 0.411103 0
0.28 0.445744 0
0.46 0.272539 0
0.3 0.272539 0
0.26 0.272539 0
0.28 0.237898 0
0.24 0.237898 0
0.24 0.445744 0
0.26 0.480385 0
0.22 0.411103 0
0.22 0.272539 0
0.22 0.480385 0
0.24 0.515026 0
0.28 0.515026 0
0.26 0.549667 0
0.22 0.549667 0
0.24 0.584308 0
0.28 0.584308 0
0.26 0.618949 0
0.22 0.618949 0
0.24 0.65359 0
0.28 0.65359 0
0.26 0.688231 0
0.22 0.688231 0
0.24 0.722872 0
0.2 0.722872 0
0.22 0.757513 0
0.26 0.203257 0
0.3 0.203257 0
0.22 0.203257 0
0.3 0.688231 0
0.7 0.203257 0
0.68 0.722872 0
0.5 0.272539 0
0.48 0.237898 0
0.52 0.237898 0
0.26 0.757513 0
0.24 0.792154 0
0.2 0.792154 0
0.54 0.826795 0
0.5 0.203257 0
0.46 0.203257 0
0.54 0.203257 0
0.82 0.203257 0
0.72 0.168616 0
0.68 0.168616 0
0.28 0.168616 0
0.32 0.168616 0
0.82 0.618949 0
0.18 0.688231 0
0.32 0.65359 0
0.7 0.826795 0
0.74 0.826795 0
0.28 0.792154 0
0.26 0.826795 0
0.32 0.445744 0
0.84 0.237898 0
0.54 0.341821 0
0.16 0.722872 0
0.8 0.168616 0
0.52 0.168616 0
0.84 0.584308 0
0.84 0.168616 0
0.4 0.861436 0
0.66 0.826795 0
0.64 0.792154 0
0.34 0.688231 0
0.82 0.272539 0
0.4 0.376462 0
0.6 0.515026 0
0.38 0.272539 0
0.56 0.168616 0
0.72 0.861436 0
0.76 0.861436 0
0.86 0.272539 0
0.84 0.30718 0
0.86 0.618949 0
0.7 0.133975 0
0.655675 0.130259 0
0.82 0.133975 0
0.86 0.134872 0
0.538347 0.134929 0
0.499724 0.134134 0
0.3 0.133975 0
0.34 0.133975 0
0.26 0.133975 0
0.14 0.688231 0
0.36 0.65359 0
0.36 0.168616 0
0.38 0.133975 0
0.64 0.376462 0
0.38 0.826795 0
0.36 0.861436 0
0.56 0.237898 0
0.12 0.722872 0
0.88 0.168765 0
0.28 0.0993336 0
0.88 0.30718 0
0.86 0.341821 0
0.88 0.584308 0
0.86 0.549667 0
0.9 0.272539 0
0.62 0.826795 0
0.64 0.861436 0
0.6 0.861436 0
0.6 0.792154 0
0.16 0.65359 0
0.12 0.65359 0
0.14 0.618949 0
0.38 0.688231 0
0.36 0.722872 0
0.14 0.757513 0
0.78 0.826795 0
0.8 0.861436 0
0.82 0.826795 0
0.84 0.861436 0
0.8589 0.82616 0
0.885265 0.858186 0
0.34 0.618949 0
0.38 0.618949 0
0.36 0.584308 0
0.66 0.203257 0
0.46 0.411103 0
0.64 0.30718 0
0.84 0.65359 0
0.88 0.65359 0
0.86 0.688231 0
0.74 0.133975 0
0.72 0.0993336 0
0.4 0.792154 0
0.62 0.757513 0
0.36 0.792154 0
0.38 0.896077 0
0.34 0.896077 0
0.839817 0.792048 0
0.878686 0.791395 0
0.58 0.133975 0
0.62 0.896077 0
0.66 0.896077 0
0.74 0.896077 0
0.82 0.896077 0
0.900219 0.687964 0
0.898986 0.550252 0
0.879214 0.51548 0
0.839869 0.515101 0
0.85923 0.48083 0
0.81985 0.480471 0
0.839847 0.445832 0
0.878466 0.445749 0
0.799949 0.445773 0
0.819966 0.411122 0
0.1 0.618949 0
0.12 0.584308 0
0.758287 0.10122 0
0.24 0.100231 0
0.22 0.134124 0
0.2 0.100406 0
0.18 0.134178 0
0.16 0.100444 0
0.140488 0.134475 0
0.123007 0.10011 0
0.160081 0.168733 0
0.120583 0.169 0
0.140111 0.20334 0
0.100718 0.757927 0
0.12012 0.792223 0
0.0742827 0.721998 0
0.58 0.896077 0
0.58 0.757513 0
0.6 0.722872 0
0.82 0.341821 0
0.16 0.584308 0
0.14 0.549667 0
0.101014 0.550252 0
0.120169 0.515123 0
0.4 0.722872 0
0.4 0.584308 0
0.38 0.549667 0
0.160028 0.515042 0
0.140033 0.480404 0
0.1 0.480385 0
0.118219 0.44479 0
0.4 0.168616 0
0.42 0.134872 0
0.38 0.203257 0
0.34 0.549667 0
0.36 0.515026 0
0.4 0.515026 0
0.38 0.480385 0
0.159709 0.445588 0
0.139655 0.410918 0
0.099117 0.409756 0
0.119795 0.376206 0
0.159953 0.376424 0
0.139958 0.341772 0
0.179992 0.341813 0
0.159992 0.30717 0
0.119992 0.30717 0
0.3 0.757513 0
0.62 0.272539 0
0.6 0.30718 0
0.139997 0.272535 0
0.0999981 0.272537 0
0.3 0.826795 0
0.28 0.861436 0
0.24 0.861436 0
0.26 0.896077 0
0.22 0.896077 0
0.2 0.861436 0
0.18 0.896077 0
0.16 0.861436 0
0.14 0.896077 0
0.12 0.861436 0
0.1 0.896077 0
0.6 0.169513 0
0.85975 0.757369 0
0.9 0.757513 0
0.898886 0.133506 0
0.875515 0.0956791 0
0.92 0.0993336 0
0.52 0.0993336 0
0.48 0.0993336 0
0.36 0.100231 0
0.10103 0.203536 0
0.898803 0.342512 0
0.879801 0.376577 0
0.918426 0.377278 0
0.925293 0.165631 0
0.900131 0.20235 0
0.0810267 0.376738 0
0.0836775 0.310045 0
0.0617286 0.277905 0
0.0774551 0.165795 0
0.26 0.0646926 0
0.902096 0.0649457 0
0.741027 0.0653576 0
0.18 0.0646926 0
0.706042 0.0644219 0
0.306667 0.0662224 0
0.08 0.792154 0
0.922282 0.794346 0
0.924232 0.516334 0
0.915386 0.650088 0
0.917547 0.583868 0
0.08 0.65359 0
0.0605029 0.61933 0
0.0789901 0.86127 0
0.0595932 0.897472 0
0.0796304 0.932074 0
0.0593446 0.825063 0
0.16 0.930718 0
0.24 0.930718 0
0.28 0.930718 0
0.36 0.930718 0
0.54 0.896077 0
0.6 0.930718 0
0.56 0.722872 0
0.58 0.688231 0
0.62 0.688231 0
0.6 0.65359 0
0.64 0.65359 0
0.62 0.618949 0
0.58 0.618949 0
0.6 0.584308 0
0.56 0.584308 0
0.44 0.930718 0
0.56 0.792154 0
0.54 0.688231 0
0.7 0.896077 0
0.72 0.930718 0
0.0336972 0.460185 0
0.0735315 0.443272 0
0.96364 0.538257 0
0.935341 0.473543 0
0.42 0.618949 0
0.56 0.861436 0
0.42 0.688231 0
0.54 0.757513 0
0.899742 0.965508 0
0.919699 0.930892 0
0.963154 0.934848 0
0.939417 0.898957 0
0.0997424 0.82649 0
0.139977 0.826756 0
0.78 0.341821 0
0.0399152 0.378343 0
0.68 0.930718 0
0.42 0.480385 0
0.4 0.445744 0
0.54 0.618949 0
0.54 0.549667 0
0.44 0.168765 0
0.779967 0.480404 0
0.759986 0.445752 0
0.0344922 0.100258 0
0.0687554 0.120146 0
0.0365814 0.181377 0
0.0668171 0.0803251 0
0.0648243 0.0368499 0
0.103621 0.0641143 0
0.967623 0.622949 0
0.879907 0.930772 0
0.54 0.0337433 0
0.555726 0.0720704 0
0.599288 0.068849 0
0.619596 0.0342544 0
0.638985 0.0686497 0
0.617667 0.105374 0
0.8988 0.410652 0
0.18 0.965359 0
0.44 0.722872 0
0.961993 0.81866 0
0.924556 0.835599 0
0.44 0.515026 0
0.68 0.861436 0
0.1 0.688231 0
0.7 0.618949 0
0.26 0.965359 0
0.44 0.65359 0
0.10019 0.965655 0
0.44 0.584308 0
0.860022 0.203131 0
0.818994 0.0349458 0
0.84 0.069282 0
0.800878 0.0635863 0
0.2 0.65359 0
0.321111 0.100636 0
0.78 0.272539 0
0.880025 0.237726 0
0.917337 0.238199 0
0.938416 0.277539 0
0.915857 0.310996 0
0.819978 0.549679 0
0.32 0.237898 0
0.78 0.896077 0
0.3 0.480385 0
0.966074 0.739844 0
0.966577 0.700946 0
0.926127 0.722014 0
0.2 0.584308 0
0.34 0.411103 0
0.398287 0.10152 0
0.377669 0.0635299 0
0.44 0.445744 0
0.82 0.688231 0
0.799994 0.376465 0
0.52 0.861436 0
0.739998 0.411104 0
0.18 0.757513 0
0.66 0.549667 0
0.719997 0.445745 0
0.62 0.341821 0
0.58 0.411103 0
0.95961 0.100429 0
0.4 0.65359 0
0.76 0.30718 0
0.42 0.549667 0
0.8 0.65359 0
0.779996 0.549669 0
0.32 0.584308 0
0.3 0.618949 0
0.24 0.376462 0
0.34 0.203257 0
0.799959 0.515049 0
0.739992 0.48039 0
0.56 0.376462 0
0.56 0.65359 0
0.8 0.30718 0
0.44 0.237898 0
0.48 0.445744 0
0.52 0.30718 0
0.54 0.272539 0
0.42 0.272539 0
0.44 0.376462 0
0.62 0.411103 0
0.83996 0.376485 0
0.32 0.792154 0
0.7 0.688231 0
0.76 0.168616 0
0.0809673 0.584728 0
0.897615 0.617595 0
0.44 0.792154 0
0.24 0.168641 0
0.76 0.792154 0
0.64 0.515026 0
0.960253 0.378583 0
0.64 0.237898 0
0.26 0.341821 0
0.36 0.376462 0
0.58 0.203406 0
0.68 0.237898 0
0.859863 0.411094 0
0.965833 0.18168 0
[...]
CELL_DATA 1478
SCALARS Temperatura double 1
LOOKUP_TABLE default
0.688206
2.125
0.62837
0.756875
0.858804
0.87542
1.12217
1.14711
0.916822
1.68139
0.629763
0.685714
0.392074
1.18515
1.06869
1.00502
0.841392
1.68916
1.95156
0.778554
1.06084
1.77847
0.610711
2.12222
1.27383
1.33972
1.37219
0.977692
1.15818
0.0712758
0.0673861
1.35988
1.34192
1.77571
1.1379
0.635056
0.314964
0.176316
0.90173
1.04466
1.69091
1.96805
2.49399
1.25166
0.946884
0.744954
0.971766
0.566764
0.715169
0.345718
0.826766
2.34156
2.582
1.78108
0.981085
1.23166
0.929984
0.897357
0.641217
0.712572
2.04069
0.824771
2.19984
1.00123
1.3131
0.381319
0.599828
1.40552
0.0936882
0.0891065
1.34487
1.35658
1.03636
1.35306
0.696046
0.92365
0.311251
0.347977
0.5846
0.473784
0.291894
1.31646
1.04588
0.568285
1.29819
1.30601
0.977934
0.981897
1.00072
1.0051
0.942787
1.39544
1.38978
1.43969
0.983019
0.928753
0.816434
1.2699
0.980533
1.09668
1.38214
2.25389
1.01723
2.00973
0.896339
1.40894
0.430776
0.392846
0.393515
0.422183
1.06063
0.455515
0.478566
0.64283
0.788113
0.581293
0.405171
0.787985
0.691767
0.915543
0.236993
0.217239
1.32164
1.12657
2.45578
0.994064
2.68711
1.25377
1.50624
1.80295
1.40492
0.9935
3.09004
3.61652
1.32187
3.81813
1.03518
0.447579
3.25595
1.19521
4.14319
5.31285
5.38302
5.81864
4.71614
5.78948
0.279987
0.273429
5.91321
4.96406
5.10297
5.55387
5.65681
1.06234
1.29629
0.553174
3.72271
0.54978
1.07618
1.78438
0.567405
3.87856
3.59804
6.03449
3.3741
0.30376
3.97017
1.68709
0.44955
3.48485
5.58306
5.97912
0.303231
3.66243
0.546175
4.60463
0.54532
4.71582
0.0994098
0.269453
4.92035
0.494885
1.80277
5.52616
4.17845
0.319581
1.78782
4.26211
1.44747
3.83585
4.54647
0.511026
1.78223
4.31711
1.06258
0.971467
3.45502
0.601554
5.71476
2.93436
2.16967
3.47021
5.24422
2.57161
5.03716
5.9715
4.42841
0.165549
1.2295
4.20007
0.31131
1.10372
4.96367
6.00009
0.541119
1.7089
6.02361
5.44593
0.41536
2.61398
2.24055
0.527503
1.84344
0.274658
0.277043
1.33024
3.86047
3.51339
4.18728
3.63803
4.15216
0.230916
5.99234
2.27843
2.17433
6.04171
4.04706
2.01763
5.94127
2.77699
0.978986
4.66887
4.62378
0.473313
0.355646
0.541483
0.57649
5.95746
3.27676
2.87688
2.03659
5.70615
0.326713
5.27883
0.259536
2.09441
2.00265
3.81822
0.330626
3.04186
3.84722
4.70013
4.90419
0.292034
1.81824
5.80396
1.07898
0.786388
0.466284
2.27314
5.79872
0.579677
0.554497
0.063368
0.487202
3.77423
4.06983
4.45997
3.22178
2.24393
2.76149
5.90248
0.27274
0.239882
1.30928
3.28255
2.29698
1.69758
3.42543
2.42005
3.04095
0.403025
6.02488
0.0699736
1.60297
4.93133
0.297972
0.29886
1.65122
0.281798
1.11762
1.98258
2.96203
0.470123
1.25443
0.282202
5.38198
2.14071
2.22895
3.74396
3.2816
2.79284
3.59539
0.136012
2.4876
0.234267
1.55978
3.5896
5.81819
5.55287
2.03605
3.72934
1.59327
3.6422
5.91076
4.97555
2.66605
1.89822
2.08262
0.459386
0.888648
3.2379
0.155638
3.16015
2.70444
1.77232
1.85674
1.1695
0.36761
2.62632
4.57279
4.62553
0.6858
4.02971
5.75039
2.54944
4.91083
0.383918
5.91285
0.103337
3.23142
1.52459
2.06177
1.6273
2.96239
1.58676
3.25241
3.04554
1.81446
1.59467
3.21204
4.89488
2.01041
1.76385
4.4459
1.72201
1.1943
0.193854
2.55303
3.41806
1.58432
3.89657
0.139215
2.04382
2.16716
2.42876
0.0606411
5.90865
1.90558
1.55784
1.97419
1.29151
3.49259
1.96138
2.32909
2.95659
2.58824
0.275089
2.26692
2.75899
2.19498
1.86167
4.18318
2.3956
4.92429
0.199441
3.66176
2.90247
0.211219
0.435471
1.43203
3.6185
2.5681
1.69872
2.87602
1.21054
4.31701
1.51676
2.01796
4.09451
0.382272
0.129147
2.57364
3.61201
4.69091
3.08694
3.35203
5.82746
5.13831
0.187953
3.45518
0.158857
2.07935
2.49448
4.15253
0.52544
4.68877
2.66018
1.30632
3.8554
0.166796
2.72961
0.166865
3.0669
4.24022
2.96198
0.315565
2.47527
5.08096
2.14933
4.65837
3.19648
3.86228
1.96534
4.43253
2.34548
3.74224
4.41921
5.80108
3.61111
5.47967
0.100599
1.90515
2.49451
3.54356
5.61375
5.05171
4.67495
4.80126
4.61423
0.253156
2.70827
0.223008
4.3911
3.43941
2.95744
0.246286
4.43217
0.734212
2.33934
2.96548
2.95854
3.18722
0.171623
3.52333
0.229542
4.58535
0.0673802
2.68938
3.32156
2.88507
3.72642
4.37838
3.50742
3.30119
0.222592
0.236605
5.03225
2.93192
3.23106
2.41362
5.19881
2.70972
3.20621
2.57273
4.52473
3.4925
0.223475
4.31669
5.26145
3.84343
2.60064
3.32666
3.02675
3.74604
4.56686
2.1062
5.0942
3.6634
3.10979
3.298
1.59991
2.53171
4.90737
3.29786
4.13404
5.55863
2.40703
4.3359
3.90585
4.79082
5.01172
4.12099
3.30767
4.13161
3.59292
4.86864
4.68308
3.04563
5.22355
5.10259
5.03802
5.43031
4.57868
4.36688
5.26839
3.72543
3.89231
4.55635
4.7239
4.18425
5.6964
5.01998
3.56899
4.60461
4.08802
5.88638
1.31225
4.99393
6.00038
2.41889
1.34532
5.70528
4.72931
4.4729
6.06992
5.34473
4.57591
5.31649
5.43977
3.29772
3.09015
4.4456
3.82048
2.29863
5.27294
2.84085
4.10907
5.25997
2.15443
5.04911
0.124322
3.86063
5.17895
4.1743
5.10681
4.76065
4.68633
2.63918
4.93604
5.38405
5.58537
5.97336
5.45211
5.2239
3.60235
6.06262
5.71697
4.86605
5.31293
2.87075
5.10989
4.1433
1.94116
4.58789
4.54593
5.78227
4.90709
4.8089
4.70989
4.5829
4.86985
5.16279
4.85808
2.94794
6.0494
3.62305
3.89813
5.70905
5.83229
5.34714
3.66344
5.65626
2.39251
3.02256
3.37413
3.62249
5.64584
5.37713
5.64063
4.51527
3.92207
5.88538
4.84553
2.63027
2.15968
5.85586
5.46244
3.84554
5.92609
5.52182
4.95472
5.95099
4.63683
2.93609
5.18293
3.60005
3.08124
2.79844
3.21517
4.20468
6.08062
3.53373
4.87306
3.92831
4.99605
4.50783
5.56808
5.78977
5.3266
5.44249
5.61047
5.00434
2.68125
5.57129
3.17849
5.82872
5.82063
4.70115
3.91029
2.94337
5.5894
4.0167
5.0882
5.75851
5.74667
4.7027
4.90908
5.13943
5.21744
5.48956
3.42691
5.74624
4.25127
5.81883
5.94162
5.59202
2.68749
5.52097
5.84099
3.9591
2.26104
5.55901
2.85871
4.30314
5.28661
4.89507
4.11793
4.14338
5.41765
1.66071
4.71323
4.95587
6.03484
2.94419
2.81477
5.10759
4.74695
5.83252
4.32878
5.10936
4.28523
5.97943
4.25156
2.96208
5.44877
3.99276
5.9309
4.54606
1.70648
5.1229
3.03898
4.75643
4.27995
5.83878
4.06411
3.16234
3.78394
4.17001
4.34436
5.6107
4.35357
5.11191
5.70654
5.4823
5.03842
3.84314
3.38356
5.85602
5.50465
5.27221
2.53357
2.62964
3.48759
2.48791
4.8699
4.57299
5.73321
5.18194
1.84184
4.89181
5.30488
3.03649
5.24641
5.61052
2.5001
3.74538
5.5739
3.32668
0.886918
4.42968
3.24246
3.81862
4.62703
2.47237
2.20138
5.28145
3.99425
4.10976
5.38404
5.35021
2.77295
3.16283
4.59876
5.93071
5.08041
3.50745
4.11628
5.29528
5.09756
2.44501
1.73499
4.77169
3.07795
5.71661
4.04352
5.20094
3.23251
5.07759
3.03569
3.51576
1.87734
5.95955
6.07035
3.59038
4.29857
3.03985
4.95509
5.73677
4.54291
4.75811
4.70212
3.16462
6.03904
3.27185
2.45473
4.02348
5.39207
3.54526
5.6392
4.46677
5.46865
2.8394
5.98009
4.25587
2.04398
3.74525
2.49124
4.79644
3.73865
1.05823
3.81066
2.75457
4.70684
3.22528
6.04279
4.83654
2.13645
4.99759
3.25605
4.10712
4.36554
3.21583
4.46109
5.75356
2.81276
3.73783
4.979
4.09522
2.27811
4.11732
5.61194
3.93163
4.34873
4.17189
3.85735
2.77782
4.64617
1.96749
0.230006
4.06378
3.30608
3.53414
2.72735
0.289289
3.26794
4.28
2.96405
2.12045
4.15288
4.31016
3.52537
2.50872
3.33307
2.71828
3.06226
0.134486
1.12971
1.4135
4.88235
4.48821
4.50673
6.04978
4.76464
4.2025
2.99835
3.65108
3.45223
2.54732
3.4429
1.4731
2.4129
4.46416
2.78912
3.78666
1.53372
0.159908
4.45391
4.17807
5.92831
5.4468
2.46877
3.73659
3.37351
3.15135
5.07795
3.61721
0.311594
1.9336
3.16295
0.253809
5.39017
4.70498
2.64574
5.85545
2.14703
4.12894
3.93207
3.62349
2.59358
3.60226
2.90631
0.147157
3.48054
3.31382
2.49559
2.44311
3.2878
3.46391
2.46077
0.133578
1.83686
4.36004
1.82229
4.90974
4.28886
4.85889
1.39923
2.56729
4.36694
4.27957
2.17108
3.85059
0.164562
0.248922
0.188323
2.92729
2.81426
5.26702
1.77693
3.65421
2.83621
4.01991
1.76822
5.63721
3.76789
2.96385
5.50395
2.39829
3.73747
3.66092
4.36378
3.76834
2.25613
3.52522
4.71177
2.63579
2.00189
2.87923
1.31144
5.75934
2.15801
2.09807
1.63029
1.89466
5.29799
3.17203
1.21721
1.55624
2.02157
0.135013
0.247271
0.532165
3.61448
2.13484
1.02382
4.2658
5.11505
1.3991
5.32641
3.93297
2.55006
1.63655
0.712223
5.99471
1.73198
2.66843
0.252961
4.09675
2.93388
2.93238
0.261438
2.56128
5.57867
2.96941
3.74668
2.40774
0.193084
3.85343
2.08583
2.56103
0.528799
1.48824
1.49712
3.38384
1.49202
0.281161
2.16379
3.4525
1.98252
5.6125
2.62497
2.16968
3.2695
3.98845
3.64782
2.14863
0.221483
2.01644
2.11644
5.45626
2.41603
2.88756
1.59648
2.33093
1.02584
2.51627
3.16967
3.52394
1.83371
1.6767
5.10037
0.210503
2.49163
1.10497
2.29812
5.34902
2.5158
3.17221
4.25465
0.265727
2.12466
2.49303
1.99193
3.06169
1.77855
1.46012
5.05765
2.1214
3.03123
2.64299
0.303812
1.86061
0.3405
4.26225
1.07616
4.32121
4.6417
4.8699
0.53737
0.561948
2.23487
3.13263
5.04807
3.0312
2.86951
0.305116
5.9044
4.45621
4.47684
4.52993
1.88807
2.68408
0.165635
0.553219
5.18008
2.0841
3.98777
5.63795
2.24325
4.46296
1.31431
3.20965
1.24887
0.276519
4.94133
4.70681
5.72039
5.28074
5.16124
1.56166
3.66165
5.45533
4.00051
1.96517
5.60724
4.11949
5.58858
4.06427
3.19753
5.48937
4.17146
3.2312
5.6123
5.31635
5.35061
2.35279
1.78515
1.07499
0.518354
0.455214
5.69509
3.01456
5.42686
5.37435
2.27518
5.26189
2.26334
4.89235
0.280007
4.71556
3.16008
2.77587
1.59246
0.296142
4.47525
3.26754
4.45627
2.35679
2.89214
2.02082
0.869207
4.7666
0.431825
2.17728
4.26446
1.07322
4.25368
4.15819
2.45642
5.80792
1.95186
0.603173
3.41198
5.26547
2.76684
4.49065
0.274592
3.89037
4.52302
0.353795
0.304065
2.27454
1.98869
2.70792
2.87858
2.33644
3.54589
4.01921
4.64069
1.86288
4.9521
0.554008
1.65358
3.96037
3.6462
4.31209
1.03489
0.573101
0.876875
3.03499
0.482836
5.02504
2.47024
3.04648
1.29667
3.25919
3.57731
2.61638
4.56174
2.07338
0.868111
0.290049
3.90227
2.03763
3.9582
2.67277
1.62909
5.22841
2.96275
3.49679
2.39306
1.71763
2.1715
3.7595
2.79436
1.96609
2.33327
1.44822
5.35181
3.16374
4.03655
3.81913
0.652921
3.80326
5.52498
2.01295
3.43873
3.24584
0.7859
2.41891
0.546137
2.63634
1.3081
2.43025
1.7687
3.99004
3.36218
1.63033
3.89887
4.08456
2.24535
2.56237
3.20894
3.51625
2.5714
0.581668
3.04745
3.59087
1.52638
2.25383
2.81511
1.71025
1.78409
2.73612
0.510747
0.938382
2.10109
2.96617
2.49137
1.95354
0.532011
2.29452
0.93931
1.71111
0.265619
1.11914
1.06752
0.482401
0.404034
1.49336
1.88714
1.02372
0.866906
0.870723
0.236719
0.634621
0.446859
0.216789
1.29052
1.39653
0.589954
1.24438
1.09472
0.688189
0.782505
0.575824
0.912169
1.03711
1.33184
0.641253
0.848388
1.15031
0.488785
0.314566
1.38235
1.82052
0.624015
0.190813
0.191146
1.81358
1.17904
1.06405
0.478151
0.537031
0.509687
1.07346
0.313925
0.0604578
0.0632101
1.8981
0.443425
0.444757
1.18555
1.15741
0.774083
1.50028
0.401657
0.400894
1.04136
2.19721
2.61829
0.246283
0.798054
1.37746
1.00433
1.30235
1.07646
1.11076
1.2791
0.17364
0.23122
1.20748
1.67802
0.422392
1.31768
0.464514
1.92473
2.95335
2.39635
2.82864
1.62625
1.25035
1.69097
0.490463
2.40373
0.508602
0.500994
1.17191
1.32482
0.379095
0.993149
0.33568
0.28945
0.161457
0.172713
0.809234
0.518873
0.759783
0.761139
1.52807
0.364625
0.363698
1.79401
1.82623
0.920417
1.40426
1.41938
1.06173
0.89964
0.159901
0.215534
0.219331
0.225465
0.488361
0.508296
1.69328
1.69642
1.77877
0.280098
0.32214
0.950857
0.860631
0.0221628
0.0226751
0.169476
0.0221879
0.0217873
0.160794
0.0210935
0.0215474
0.0214413
0.0218414
1.77938
2.63372
1.32576
0.612458
0.832745
1.13646
2.6183
1.76133
0.645217
0.780685
1.31226
1.27309
0.761389
1.02771
1.12346
2.25475
1.29269
0.093713
1.46767
1.46117
1.70542
0.199943
0.441504
0.2138
1.72384
1.03695
3.10392
1.23029
0.974931
2.63115
0.205465
1.88257
0.219354
0.389877
0.156415
1.43765
0.125516
1.02188
0.655421
2.38527
0.156375
0.165113
1.11383
1.86683
1.63237
1.66073
1.0831
0.165017
0.165163
0.68809
1.69106
1.48991
2.07757
0.937542
1.37302
1.78964
0.94504
1.82993
1.86259
1.82955
0.692851
0.818843
0.535518
1.59326
1.31395
0.802423
0.0742066
0.0790869
0.0774996
0.313905
0.345289
0.19935
1.7547
1.76477
1.82955
0.119385
1.56515
0.0828921
0.0849
0.274798
1.47906
1.39666
1.39189
0.841494
0.085961
0.0906939
0.0817349
0.0887843
1.18399
0.635592
0.638599
2.45865
1.56708
1.13312
1.81237
0.614535
1.34218
1.759
1.17468
1.17373
0.917136
0.628533
2.02812
0.847887
0.163316
0.16478
1.55268
0.792109
0.794676
1.18502
0.881019
0.881365
1.12619
1.07277
1.07642
