# vtk DataFile Version 3.0
Malha 2D com triângulos e temperatura
ASCII
DATASET UNSTRUCTURED_GRID

POINTS 961 double
0 0 0
1 0 0
1 1 0
0 1 0
0.0333333 0 0
0.0666667 0 0
0.1 0 0
0.133333 0 0
0.166667 0 0
0.2 0 0
0.233333 0 0
0.266667 0 0
0.3 0 0
0.333333 0 0
0.366667 0 0
0.4 0 0
0.433333 0 0
0.466667 0 0
0.5 0 0
0.533333 0 0
0.566667 0 0
0.6 0 0
0.633333 0 0
0.666667 0 0
0.7 0 0
0.733333 0 0
0.766667 0 0
0.8 0 0
0.833333 0 0
0.866667 0 0
0.9 0 0
0.933333 0 0
0.966667 0 0
1 0.0333333 0
1 0.0666667 0
1 0.1 0
1 0.133333 0
1 0.166667 0
1 0.2 0
1 0.233333 0
1 0.266667 0
1 0.3 0
1 0.333333 0
1 0.366667 0
1 0.4 0
1 0.433333 0
1 0.466667 0
1 0.5 0
1 0.533333 0
1 0.566667 0
1 0.6 0
1 0.633333 0
1 0.666667 0
1 0.7 0
1 0.733333 0
1 0.766667 0
1 0.8 0
1 0.833333 0
1 0.866667 0
1 0.9 0
1 0.933333 0
1 0.966667 0
0.966667 1 0
0.933333 1 0
0.9 1 0
0.866667 1 0
0.833333 1 0
0.8 1 0
0.766667 1 0
0.733333 1 0
0.7 1 0
0.666667 1 0
0.633333 1 0
0.6 1 0
0.566667 1 0
0.533333 1 0
0.5 1 0
0.466667 1 0
0.433333 1 0
0.4 1 0
0.366667 1 0
0.333333 1 0
0.3 1 0
0.266667 1 0
0.233333 1 0
0.2 1 0
0.166667 1 0
0.133333 1 0
0.1 1 0
0.0666667 1 0
0.0333333 1 0
0 0.966667 0
0 0.933333 0
0 0.9 0
0 0.866667 0
0 0.833333 0
0 0.8 0
0 0.766667 0
0 0.733333 0
0 0.7 0
0 0.666667 0
0 0.633333 0
0 0.6 0
0 0.566667 0
0 0.533333 0
0 0.5 0
0 0.466667 0
0 0.433333 0
0 0.4 0
0 0.366667 0
0 0.333333 0
0 0.3 0
0 0.266667 0
0 0.233333 0
0 0.2 0
0 0.166667 0
0 0.133333 0
0 0.1 0
0 0.0666667 0
0 0.0333333 0
0.0333333 0.0333333 0
0.0333333 0.0666667 0
0.0333333 0.1 0
0.0333333 0.133333 0
0.0333333 0.166667 0
0.0333333 0.2 0
0.0333333 0.233333 0
0.0333333 0.266667 0
0.0333333 0.3 0
0.0333333 0.333333 0
0.0333333 0.366667 0
0.0333333 0.4 0
0.0333333 0.433333 0
0.0333333 0.466667 0
0.0333333 0.5 0
0.0333333 0.533333 0
0.0333333 0.566667 0
0.0333333 0.6 0
0.0333333 0.633333 0
0.0333333 0.666667 0
0.0333333 0.7 0
0.0333333 0.733333 0
0.0333333 0.766667 0
0.0333333 0.8 0
0.0333333 0.833333 0
0.0333333 0.866667 0
0.0333333 0.9 0
0.0333333 0.933333 0
0.0333333 0.966667 0
0.0666667 0.0333333 0
0.0666667 0.0666667 0
0.0666667 0.1 0
0.0666667 0.133333 0
0.0666667 0.166667 0
0.0666667 0.2 0
0.0666667 0.233333 0
0.0666667 0.266667 0
0.0666667 0.3 0
0.0666667 0.333333 0
0.0666667 0.366667 0
0.0666667 0.4 0
0.0666667 0.433333 0
0.0666667 0.466667 0
0.0666667 0.5 0
0.0666667 0.533333 0
0.0666667 0.566667 0
0.0666667 0.6 0
0.0666667 0.633333 0
0.0666667 0.666667 0
0.0666667 0.7 0
0.0666667 0.733333 0
0.0666667 0.766667 0
0.0666667 0.8 0
0.0666667 0.833333 0
0.0666667 0.866667 0
0.0666667 0.9 0
0.0666667 0.933333 0
0.0666667 0.966667 0
0.1 0.0333333 0
0.1 0.0666667 0
0.1 0.1 0
0.1 0.133333 0
0.1 0.166667 0
0.1 0.2 0
0.1 0.233333 0
0.1 0.266667 0
0.1 0.3 0
0.1 0.333333 0
0.1 0.366667 0
0.1 0.4 0
0.1 0.433333 0
0.1 0.466667 0
0.1 0.5 0
0.1 0.533333 0
0.1 0.566667 0
0.1 0.6 0
0.1 0.633333 0
0.1 0.666667 0
0.1 0.7 0
0.1 0.733333 0
0.1 0.766667 0
0.1 0.8 0
0.1 0.833333 0
0.1 0.866667 0
0.1 0.9 0
0.1 0.933333 0
0.1 0.966667 0
0.133333 0.0333333 0
0.133333 0.0666667 0
0.133333 0.1 0
0.133333 0.133333 0
0.133333 0.166667 0
0.133333 0.2 0
0.133333 0.233333 0
0.133333 0.266667 0
0.133333 0.3 0
0.133333 0.333333 0
0.133333 0.366667 0
0.133333 0.4 0
0.133333 0.433333 0
0.133333 0.466667 0
0.133333 0.5 0
0.133333 0.533333 0
0.133333 0.566667 0
0.133333 0.6 0
0.133333 0.633333 0
0.133333 0.666667 0
0.133333 0.7 0
0.133333 0.733333 0
0.133333 0.766667 0
0.133333 0.8 0
0.133333 0.833333 0
0.133333 0.866667 0
0.133333 0.9 0
0.133333 0.933333 0
0.133333 0.966667 0
0.166667 0.0333333 0
0.166667 0.0666667 0
0.166667 0.1 0
0.166667 0.133333 0
0.166667 0.166667 0
0.166667 0.2 0
0.166667 0.233333 0
0.166667 0.266667 0
0.166667 0.3 0
0.166667 0.333333 0
0.166667 0.366667 0
0.166667 0.4 0
0.166667 0.433333 0
0.166667 0.466667 0
0.166667 0.5 0
0.166667 0.533333 0
0.166667 0.566667 0
0.166667 0.6 0
0.166667 0.633333 0
0.166667 0.666667 0
0.166667 0.7 0
0.166667 0.733333 0
0.166667 0.766667 0
0.166667 0.8 0
0.166667 0.833333 0
0.166667 0.866667 0
0.166667 0.9 0
0.166667 0.933333 0
0.166667 0.966667 0
0.2 0.0333333 0
0.2 0.0666667 0
0.2 0.1 0
0.2 0.133333 0
0.2 0.166667 0
0.2 0.2 0
0.2 0.233333 0
0.2 0.266667 0
0.2 0.3 0
0.2 0.333333 0
0.2 0.366667 0
0.2 0.4 0
0.2 0.433333 0
0.2 0.466667 0
0.2 0.5 0
0.2 0.533333 0
0.2 0.566667 0
0.2 0.6 0
0.2 0.633333 0
0.2 0.666667 0
0.2 0.7 0
0.2 0.733333 0
0.2 0.766667 0
0.2 0.8 0
0.2 0.833333 0
0.2 0.866667 0
0.2 0.9 0
0.2 0.933333 0
0.2 0.966667 0
0.233333 0.0333333 0
0.233333 0.0666667 0
0.233333 0.1 0
0.233333 0.133333 0
0.233333 0.166667 0
0.233333 0.2 0
0.233333 0.233333 0
0.233333 0.266667 0
0.233333 0.3 0
0.233333 0.333333 0
0.233333 0.366667 0
0.233333 0.4 0
0.233333 0.433333 0
0.233333 0.466667 0
0.233333 0.5 0
0.233333 0.533333 0
0.233333 0.566667 0
0.233333 0.6 0
0.233333 0.633333 0
0.233333 0.666667 0
0.233333 0.7 0
0.233333 0.733333 0
0.233333 0.766667 0
0.233333 0.8 0
0.233333 0.833333 0
0.233333 0.866667 0
0.233333 0.9 0
0.233333 0.933333 0
0.233333 0.966667 0
0.266667 0.0333333 0
0.266667 0.0666667 0
0.266667 0.1 0
0.266667 0.133333 0
0.266667 0.166667 0
0.266667 0.2 0
0.266667 0.233333 0
0.266667 0.266667 0
0.266667 0.3 0
0.266667 0.333333 0
0.266667 0.366667 0
0.266667 0.4 0
0.266667 0.433333 0
0.266667 0.466667 0
0.266667 0.5 0
0.266667 0.533333 0
0.266667 0.566667 0
0.266667 0.6 0
0.266667 0.633333 0
0.266667 0.666667 0
0.266667 0.7 0
0.266667 0.733333 0
0.266667 0.766667 0
0.266667 0.8 0
0.266667 0.833333 0
0.266667 0.866667 0
0.266667 0.9 0
0.266667 0.933333 0
0.266667 0.966667 0
0.3 0.0333333 0
0.3 0.0666667 0
0.3 0.1 0
0.3 0.133333 0
0.3 0.166667 0
0.3 0.2 0
0.3 0.233333 0
0.3 0.266667 0
0.3 0.3 0
0.3 0.333333 0
0.3 0.366667 0
0.3 0.4 0
0.3 0.433333 0
0.3 0.466667 0
0.3 0.5 0
0.3 0.533333 0
0.3 0.566667 0
0.3 0.6 0
0.3 0.633333 0
0.3 0.666667 0
0.3 0.7 0
0.3 0.733333 0
0.3 0.766667 0
0.3 0.8 0
0.3 0.833333 0
0.3 0.866667 0
0.3 0.9 0
0.3 0.933333 0
0.3 0.966667 0
0.333333 0.0333333 0
0.333333 0.0666667 0
0.333333 0.1 0
0.333333 0.133333 0
0.333333 0.166667 0
0.333333 0.2 0
0.333333 0.233333 0
0.333333 0.266667 0
0.333333 0.3 0
0.333333 0.333333 0
0.333333 0.366667 0
0.333333 0.4 0
0.333333 0.433333 0
0.333333 0.466667 0
0.333333 0.5 0
0.333333 0.533333 0
0.333333 0.566667 0
0.333333 0.6 0
0.333333 0.633333 0
0.333333 0.666667 0
0.333333 0.7 0
0.333333 0.733333 0
0.333333 0.766667 0
0.333333 0.8 0
0.333333 0.833333 0
0.333333 0.866667 0
0.333333 0.9 0
0.333333 0.933333 0
0.333333 0.966667 0
0.366667 0.0333333 0
0.366667 0.0666667 0
0.366667 0.1 0
0.366667 0.133333 0
0.366667 0.166667 0
0.366667 0.2 0
0.366667 0.233333 0
0.366667 0.266667 0
0.366667 0.3 0
0.366667 0.333333 0
0.366667 0.366667 0
0.366667 0.4 0
0.366667 0.433333 0
0.366667 0.466667 0
0.366667 0.5 0
0.366667 0.533333 0
0.366667 0.566667 0
0.366667 0.6 0
0.366667 0.633333 0
0.366667 0.666667 0
0.366667 0.7 0
0.366667 0.733333 0
0.366667 0.766667 0
0.366667 0.8 0
0.366667 0.833333 0
0.366667 0.866667 0
0.366667 0.9 0
0.366667 0.933333 0
0.366667 0.966667 0
0.4 0.0333333 0
0.4 0.0666667 0
0.4 0.1 0
0.4 0.133333 0
0.4 0.166667 0
0.4 0.2 0
0.4 0.233333 0
0.4 0.266667 0
0.4 0.3 0
0.4 0.333333 0
0.4 0.366667 0
0.4 0.4 0
0.4 0.433333 0
0.4 0.466667 0
0.4 0.5 0
0.4 0.533333 0
0.4 0.566667 0
0.4 0.6 0
0.4 0.633333 0
0.4 0.666667 0
0.4 0.7 0
0.4 0.733333 0
0.4 0.766667 0
0.4 0.8 0
0.4 0.833333 0
0.4 0.866667 0
0.4 0.9 0
0.4 0.933333 0
0.4 0.966667 0
0.433333 0.0333333 0
0.433333 0.0666667 0
0.433333 0.1 0
0.433333 0.133333 0
0.433333 0.166667 0
0.433333 0.2 0
0.433333 0.233333 0
0.433333 0.266667 0
0.433333 0.3 0
0.433333 0.333333 0
0.433333 0.366667 0
0.433333 0.4 0
0.433333 0.433333 0
0.433333 0.466667 0
0.433333 0.5 0
0.433333 0.533333 0
0.433333 0.566667 0
0.433333 0.6 0
0.433333 0.633333 0
0.433333 0.666667 0
0.433333 0.7 0
0.433333 0.733333 0
0.433333 0.766667 0
0.433333 0.8 0
0.433333 0.833333 0
0.433333 0.866667 0
0.433333 0.9 0
0.433333 0.933333 0
0.433333 0.966667 0
0.466667 0.0333333 0
0.466667 0.0666667 0
0.466667 0.1 0
0.466667 0.133333 0
0.466667 0.166667 0
0.466667 0.2 0
0.466667 0.233333 0
0.466667 0.266667 0
0.466667 0.3 0
0.466667 0.333333 0
0.466667 0.366667 0
0.466667 0.4 0
0.466667 0.433333 0
0.466667 0.466667 0
0.466667 0.5 0
0.466667 0.533333 0
0.466667 0.566667 0
0.466667 0.6 0
0.466667 0.633333 0
0.466667 0.666667 0
0.466667 0.7 0
0.466667 0.733333 0
0.466667 0.766667 0
0.466667 0.8 0
0.466667 0.833333 0
0.466667 0.866667 0
0.466667 0.9 0
0.466667 0.933333 0
0.466667 0.966667 0
0.5 0.0333333 0
0.5 0.0666667 0
0.5 0.1 0
0.5 0.133333 0
0.5 0.166667 0
0.5 0.2 0
0.5 0.233333 0
0.5 0.266667 0
0.5 0.3 0
0.5 0.333333 0
0.5 0.366667 0
0.5 0.4 0
0.5 0.433333 0
0.5 0.466667 0
0.5 0.5 0
0.5 0.533333 0
0.5 0.566667 0
0.5 0.6 0
0.5 0.633333 0
0.5 0.666667 0
0.5 0.7 0
0.5 0.733333 0
0.5 0.766667 0
0.5 0.8 0
0.5 0.833333 0
0.5 0.866667 0
0.5 0.9 0
0.5 0.933333 0
0.5 0.966667 0
0.533333 0.0333333 0
0.533333 0.0666667 0
0.533333 0.1 0
0.533333 0.133333 0
0.533333 0.166667 0
0.533333 0.2 0
0.533333 0.233333 0
0.533333 0.266667 0
0.533333 0.3 0
0.533333 0.333333 0
0.533333 0.366667 0
0.533333 0.4 0
0.533333 0.433333 0
0.533333 0.466667 0
0.533333 0.5 0
0.533333 0.533333 0
0.533333 0.566667 0
0.533333 0.6 0
0.533333 0.633333 0
0.533333 0.666667 0
0.533333 0.7 0
0.533333 0.733333 0
0.533333 0.766667 0
0.533333 0.8 0
0.533333 0.833333 0
0.533333 0.866667 0
0.533333 0.9 0
0.533333 0.933333 0
0.533333 0.966667 0
0.566667 0.0333333 0
0.566667 0.0666667 0
0.566667 0.1 0
0.566667 0.133333 0
0.566667 0.166667 0
0.566667 0.2 0
0.566667 0.233333 0
0.566667 0.266667 0
0.566667 0.3 0
0.566667 0.333333 0
0.566667 0.366667 0
0.566667 0.4 0
0.566667 0.433333 0
0.566667 0.466667 0
0.566667 0.5 0
0.566667 0.533333 0
0.566667 0.566667 0
0.566667 0.6 0
0.566667 0.633333 0
0.566667 0.666667 0
0.566667 0.7 0
0.566667 0.733333 0
0.566667 0.766667 0
0.566667 0.8 0
0.566667 0.833333 0
0.566667 0.866667 0
0.566667 0.9 0
0.566667 0.933333 0
0.566667 0.966667 0
0.6 0.0333333 0
0.6 0.0666667 0
0.6 0.1 0
0.6 0.133333 0
[...]
CELL_DATA 900
SCALARS Temperatura double 1
LOOKUP_TABLE default
0
-0.0194268
-0.0578811
-0.11593
-0.192678
-0.287394
-0.39949
-0.528497
-0.674047
-0.835851
-1.01368
-1.20735
-1.41668
-1.64153
-1.88173
-2.13708
-2.40736
-2.6923
-2.99156
-3.30475
-3.63141
-3.97102
-4.32303
-4.68684
-5.06188
-5.44759
-5.84324
-6.24689
-6.64996
-7.04413
0.0204201
0.00136282
-0.0363708
-0.0935112
-0.16914
-0.262522
-0.373065
-0.500296
-0.643839
-0.803391
-0.978705
-1.16957
-1.37579
-1.59716
-1.83347
-2.08445
-2.34978
-2.62906
-2.92178
-3.2273
-3.54481
-3.87327
-4.21133
-4.55716
-4.90808
-5.25986
-5.60513
-5.92968
-6.205
-6.39755
0.061478
0.0428239
0.0060369
-0.0496895
-0.123474
-0.214593
-0.322462
-0.446603
-0.58663
-0.742223
-0.913108
-1.09904
-1.29976
-1.51503
-1.74452
-1.98786
-2.24458
-2.51408
-2.79558
-3.08805
-3.39016
-3.70015
-4.01561
-4.33314
-4.64783
-4.95224
-5.23477
-5.47737
-5.65413
-5.74774
0.124401
0.106402
0.0709414
0.0172266
-0.0538977
-0.14173
-0.245694
-0.365311
-0.500184
-0.649972
-0.814367
-0.993076
-1.18579
-1.39216
-1.61178
-1.84412
-2.08852
-2.34413
-2.60984
-2.88421
-3.16533
-3.45068
-3.73686
-4.01923
-4.29138
-4.54446
-4.76638
-4.94183
-5.05491
-5.10416
0.208422
0.191285
0.157533
0.106412
0.0387282
-0.0448425
-0.143736
-0.257476
-0.385656
-0.527913
-0.683907
-0.853291
-1.03569
-1.23067
-1.4377
-1.6561
-1.88504
-2.12339
-2.36976
-2.62229
-2.87861
-3.1356
-3.38923
-3.63422
-3.86376
-4.06928
-4.2406
-4.36719
-4.44178
-4.47045
0.312532
0.296444
0.264764
0.216788
0.153279
0.0748818
-0.0178566
-0.124468
-0.244538
-0.377687
-0.523543
-0.681715
-0.851764
-1.03317
-1.2253
-1.42734
-1.63829
-1.85682
-2.08129
-2.30956
-2.53894
-2.76602
-2.98651
-3.19512
-3.38548
-3.55028
-3.68198
-3.77436
-3.8255
-3.84373
0.435499
0.420633
0.391362
0.347041
0.288384
0.215998
0.130405
0.0320606
-0.078622
-0.201252
-0.335433
-0.480741
-0.636686
-0.802685
-0.978018
-1.16178
-1.35284
-1.54975
-1.7507
-1.95343
-2.15511
-2.35231
-2.54085
-2.71586
-2.87185
-3.00312
-3.10454
-3.17296
-3.20926
-3.22164
0.575892
0.562404
0.535849
0.495647
0.442453
0.376832
0.299271
0.210206
0.110041
-0.000832748
-0.12201
-0.253046
-0.393421
-0.542515
-0.699559
-0.863597
-1.03343
-1.20758
-1.38418
-1.56096
-1.73517
-1.90355
-2.06229
-2.20717
-2.33375
-2.43781
-2.51611
-2.56745
-2.59391
-2.6027
0.732096
0.720125
0.696559
0.660887
0.6137
0.555506
0.486757
0.407855
0.319185
0.221125
0.114075
-0.0015181
-0.125132
-0.256139
-0.393764
-0.537049
-0.684807
-0.835574
-0.987562
-1.13862
-1.2862
-1.42736
-1.55881
-1.67707
-1.77869
-1.86068
-1.92113
-1.95995
-1.97957
-1.98597
0.902334
0.892
0.87166
0.840876
0.800164
0.749972
0.690701
0.622715
0.546365
0.462004
0.370009
0.270805
0.164893
0.0528747
-0.0645111
-0.186356
-0.311544
-0.438715
-0.566233
-0.692161
-0.814255
-0.929996
-1.03666
-1.13147
-1.21185
-1.27575
-1.32215
-1.35149
-1.36612
-1.37084
1.08469
1.07609
1.05918
1.03358
0.999741
0.958032
0.908797
0.852351
0.789
0.719058
0.64286
0.560792
0.473303
0.380937
0.284359
0.184379
0.0819858
-0.0216278
-0.125045
-0.226615
-0.324461
-0.416524
-0.500641
-0.574693
-0.636807
-0.685636
-0.720681
-0.742601
-0.753425
-0.756893
1.27711
1.27034
1.25702
1.23686
1.21021
1.17737
1.13862
1.09421
1.0444
0.989444
0.929621
0.865255
0.796724
0.724482
0.649085
0.571207
0.491662
0.411425
0.331643
0.253635
0.178876
0.108954
0.045495
-0.00995314
-0.0560877
-0.0920497
-0.117643
-0.133526
-0.141318
-0.143801
1.47748
1.47259
1.46299
1.44845
1.42924
1.40557
1.37765
1.34567
1.3098
1.27025
1.22723
1.18098
1.13179
1.07999
1.02601
0.970343
0.913606
0.856516
0.799913
0.744755
0.692099
0.643069
0.598793
0.560316
0.528488
0.503827
0.486378
0.475608
0.470349
0.468678
1.68356
1.68061
1.67481
1.66604
1.65444
1.64016
1.62331
1.60401
1.58238
1.55854
1.53261
1.50475
1.47514
1.44399
1.41156
1.37815
1.34415
1.30999
1.2762
1.24333
1.21204
1.183
1.15685
1.13421
1.11555
1.10115
1.091
1.08475
1.08171
1.08075
1.8931
1.89212
1.89018
1.88724
1.88337
1.87859
1.87296
1.86651
1.85928
1.85131
1.84265
1.83335
1.82347
1.81307
1.80225
1.79112
1.77979
1.76842
1.75718
1.74627
1.73589
1.72627
1.71762
1.71015
1.704
1.69927
1.69593
1.69389
1.69289
1.69258
2.1038
2.10479
2.10673
2.10966
2.11354
2.11831
2.12394
2.13039
2.13762
2.14559
2.15425
2.16355
2.17344
2.18384
2.19465
2.20579
2.21711
2.22848
2.23972
2.25064
2.26101
2.27064
2.27928
2.28676
2.2929
2.29764
2.30097
2.30302
2.30401
2.30433
2.31334
2.31629
2.32209
2.33087
2.34246
2.35675
2.3736
2.39289
2.41452
2.43837
2.46429
2.49215
2.52176
2.55291
2.58535
2.61875
2.65275
2.68691
2.72071
2.75357
2.78486
2.81391
2.84006
2.8627
2.88136
2.89576
2.90591
2.91215
2.9152
2.91616
2.51943
2.52431
2.53392
2.54845
2.56766
2.59133
2.61925
2.65124
2.6871
2.72665
2.76967
2.81592
2.86512
2.91692
2.9709
3.02656
3.0833
3.14039
3.19699
3.25215
3.30481
3.35384
3.39811
3.43659
3.46842
3.49308
3.51053
3.5213
3.52656
3.52823
2.71979
2.72656
2.73989
2.76005
2.7867
2.81953
2.85829
2.90269
2.9525
3.00746
3.06728
3.13165
3.20018
3.27242
3.34782
3.4257
3.50524
3.58548
3.66526
3.74327
3.81803
3.88795
3.95141
4.00686
4.05299
4.08895
4.11455
4.13043
4.13822
4.14071
2.91222
2.92081
2.93773
2.96332
2.99716
3.03887
3.08811
3.14455
3.2079
3.27785
3.35404
3.43611
3.5236
3.61597
3.71255
3.81253
3.91492
4.01853
4.12195
4.22352
4.32137
4.41343
4.49755
4.5716
4.63371
4.68254
4.71759
4.73951
4.75033
4.7538
3.09457
3.1049
3.12524
3.15603
3.19674
3.24693
3.3062
3.37419
3.45054
3.5349
3.6269
3.7261
3.83201
3.94403
4.06142
4.18326
4.30845
4.43562
4.56314
4.68907
4.81116
4.9269
5.03356
5.12838
5.20875
5.27266
5.31906
5.3484
5.36303
5.36775
3.26481
3.27678
3.30035
3.33602
3.38321
3.4414
3.51015
3.58905
3.67772
3.77578
3.88283
3.99842
4.12204
4.25304
4.39067
4.53395
4.68171
4.83248
4.98447
5.13552
5.2831
5.42426
5.55572
5.67398
5.77559
5.85758
5.91804
5.95685
5.97647
5.98287
3.42101
3.4345
3.46106
3.50126
3.55445
3.62007
3.69763
3.7867
3.88686
3.99774
4.11892
4.24995
4.39033
4.53942
4.69646
4.8605
5.03034
5.20448
5.38108
5.55786
5.73208
5.90045
6.05919
6.20408
6.33066
6.43472
6.51302
6.56435
6.59082
6.5996
3.56141
3.57627
3.60554
3.64986
3.70852
3.78091
3.8665
3.96484
4.07553
4.19816
4.33234
4.47765
4.63359
4.79959
4.97492
5.15869
5.34974
5.54665
5.7476
5.95033
6.15202
6.34921
6.53776
6.71277
6.86876
7.00003
7.10144
7.16987
7.20617
7.21854
3.68437
3.70046
3.73214
3.78012
3.84363
3.92202
4.01476
4.12137
4.24144
4.37459
4.52045
4.67862
4.84867
5.03008
5.2222
5.42425
5.63519
5.85373
6.07819
6.30647
6.53585
6.76293
6.98342
7.19203
7.38238
7.54719
7.67889
7.77127
7.8224
7.84064
3.78848
3.80562
3.83937
3.89049
3.95818
4.04175
4.14064
4.25438
4.38256
4.52482
4.68081
4.8502
5.0326
5.22758
5.4346
5.65301
5.88194
6.1203
6.36666
6.6192
6.87551
7.13251
7.38614
7.63112
7.86066
8.06618
8.2375
8.3641
8.43869
8.46736
3.8725
3.8905
3.92596
3.97968
4.0508
4.13864
4.2426
4.36222
4.49709
4.64688
4.81127
4.98998
5.1827
5.38907
5.60868
5.84102
6.08542
6.34103
6.60675
6.88112
7.16224
7.44759
7.73376
8.01613
8.28829
8.54136
8.76329
8.93873
9.05182
9.10106
3.93543
3.95408
3.99087
4.04659
4.12038
4.2115
4.31937
4.44351
4.58353
4.73913
4.91001
5.09594
5.29667
5.51193
5.74142
5.98476
6.24149
6.51099
6.79248
7.08495
7.38707
7.69706
8.01251
8.33005
8.64474
8.94915
9.23167
9.47428
9.65104
9.74464
3.97648
3.99554
4.03328
4.09042
4.16605
4.25943
4.36997
4.4972
4.64074
4.8003
4.97561
5.16647
5.37269
5.59406
5.83037
6.08135
6.34668
6.62596
6.91868
7.2242
7.54171
7.87017
8.20824
8.55406
8.90498
9.25677
9.60203
9.92659
10.2019
10.3945
3.9969
4.01633
4.05479
4.11283
4.18958
4.2843
4.39639
4.5254
4.67095
4.83276
5.01059
5.20425
5.41359
5.63844
5.87863
6.13398
6.40427
6.68921
6.98847
7.30166
7.62832
7.96793
8.31993
8.68374
9.05878
9.44449
9.84015
10.2438
10.6469
11.041
