# vtk DataFile Version 3.0
Malha 2D com triângulos e temperatura
ASCII
DATASET UNSTRUCTURED_GRID

POINTS 961 double
0 0 0
1 0 0
1 1 0
0 1 0
0.0333333 0 0
0.0666667 0 0
0.1 0 0
0.133333 0 0
0.166667 0 0
0.2 0 0
0.233333 0 0
0.266667 0 0
0.3 0 0
0.333333 0 0
0.366667 0 0
0.4 0 0
0.433333 0 0
0.466667 0 0
0.5 0 0
0.533333 0 0
0.566667 0 0
0.6 0 0
0.633333 0 0
0.666667 0 0
0.7 0 0
0.733333 0 0
0.766667 0 0
0.8 0 0
0.833333 0 0
0.866667 0 0
0.9 0 0
0.933333 0 0
0.966667 0 0
1 0.0333333 0
1 0.0666667 0
1 0.1 0
1 0.133333 0
1 0.166667 0
1 0.2 0
1 0.233333 0
1 0.266667 0
1 0.3 0
1 0.333333 0
1 0.366667 0
1 0.4 0
1 0.433333 0
1 0.466667 0
1 0.5 0
1 0.533333 0
1 0.566667 0
1 0.6 0
1 0.633333 0
1 0.666667 0
1 0.7 0
1 0.733333 0
1 0.766667 0
1 0.8 0
1 0.833333 0
1 0.866667 0
1 0.9 0
1 0.933333 0
1 0.966667 0
0.966667 1 0
0.933333 1 0
0.9 1 0
0.866667 1 0
0.833333 1 0
0.8 1 0
0.766667 1 0
0.733333 1 0
0.7 1 0
0.666667 1 0
0.633333 1 0
0.6 1 0
0.566667 1 0
0.533333 1 0
0.5 1 0
0.466667 1 0
0.433333 1 0
0.4 1 0
0.366667 1 0
0.333333 1 0
0.3 1 0
0.266667 1 0
0.233333 1 0
0.2 1 0
0.166667 1 0
0.133333 1 0
0.1 1 0
0.0666667 1 0
0.0333333 1 0
0 0.966667 0
0 0.933333 0
0 0.9 0
0 0.866667 0
0 0.833333 0
0 0.8 0
0 0.766667 0
0 0.733333 0
0 0.7 0
0 0.666667 0
0 0.633333 0
0 0.6 0
0 0.566667 0
0 0.533333 0
0 0.5 0
0 0.466667 0
0 0.433333 0
0 0.4 0
0 0.366667 0
0 0.333333 0
0 0.3 0
0 0.266667 0
0 0.233333 0
0 0.2 0
0 0.166667 0
0 0.133333 0
0 0.1 0
0 0.0666667 0
0 0.0333333 0
0.0333333 0.0333333 0
0.0333333 0.0666667 0
0.0333333 0.1 0
0.0333333 0.133333 0
0.0333333 0.166667 0
0.0333333 0.2 0
0.0333333 0.233333 0
0.0333333 0.266667 0
0.0333333 0.3 0
0.0333333 0.333333 0
0.0333333 0.366667 0
0.0333333 0.4 0
0.0333333 0.433333 0
0.0333333 0.466667 0
0.0333333 0.5 0
0.0333333 0.533333 0
0.0333333 0.566667 0
0.0333333 0.6 0
0.0333333 0.633333 0
0.0333333 0.666667 0
0.0333333 0.7 0
0.0333333 0.733333 0
0.0333333 0.766667 0
0.0333333 0.8 0
0.0333333 0.833333 0
0.0333333 0.866667 0
0.0333333 0.9 0
0.0333333 0.933333 0
0.0333333 0.966667 0
0.0666667 0.0333333 0
0.0666667 0.0666667 0
0.0666667 0.1 0
0.0666667 0.133333 0
0.0666667 0.166667 0
0.0666667 0.2 0
0.0666667 0.233333 0
0.0666667 0.266667 0
0.0666667 0.3 0
0.0666667 0.333333 0
0.0666667 0.366667 0
0.0666667 0.4 0
0.0666667 0.433333 0
0.0666667 0.466667 0
0.0666667 0.5 0
0.0666667 0.533333 0
0.0666667 0.566667 0
0.0666667 0.6 0
0.0666667 0.633333 0
0.0666667 0.666667 0
0.0666667 0.7 0
0.0666667 0.733333 0
0.0666667 0.766667 0
0.0666667 0.8 0
0.0666667 0.833333 0
0.0666667 0.866667 0
0.0666667 0.9 0
0.0666667 0.933333 0
0.0666667 0.966667 0
0.1 0.0333333 0
0.1 0.0666667 0
0.1 0.1 0
0.1 0.133333 0
0.1 0.166667 0
0.1 0.2 0
0.1 0.233333 0
0.1 0.266667 0
0.1 0.3 0
0.1 0.333333 0
0.1 0.366667 0
0.1 0.4 0
0.1 0.433333 0
0.1 0.466667 0
0.1 0.5 0
0.1 0.533333 0
0.1 0.566667 0
0.1 0.6 0
0.1 0.633333 0
0.1 0.666667 0
0.1 0.7 0
0.1 0.733333 0
0.1 0.766667 0
0.1 0.8 0
0.1 0.833333 0
0.1 0.866667 0
0.1 0.9 0
0.1 0.933333 0
0.1 0.966667 0
0.133333 0.0333333 0
0.133333 0.0666667 0
0.133333 0.1 0
0.133333 0.133333 0
0.133333 0.166667 0
0.133333 0.2 0
0.133333 0.233333 0
0.133333 0.266667 0
0.133333 0.3 0
0.133333 0.333333 0
0.133333 0.366667 0
0.133333 0.4 0
0.133333 0.433333 0
0.133333 0.466667 0
0.133333 0.5 0
0.133333 0.533333 0
0.133333 0.566667 0
0.133333 0.6 0
0.133333 0.633333 0
0.133333 0.666667 0
0.133333 0.7 0
0.133333 0.733333 0
0.133333 0.766667 0
0.133333 0.8 0
0.133333 0.833333 0
0.133333 0.866667 0
0.133333 0.9 0
0.133333 0.933333 0
0.133333 0.966667 0
0.166667 0.0333333 0
0.166667 0.0666667 0
0.166667 0.1 0
0.166667 0.133333 0
0.166667 0.166667 0
0.166667 0.2 0
0.166667 0.233333 0
0.166667 0.266667 0
0.166667 0.3 0
0.166667 0.333333 0
0.166667 0.366667 0
0.166667 0.4 0
0.166667 0.433333 0
0.166667 0.466667 0
0.166667 0.5 0
0.166667 0.533333 0
0.166667 0.566667 0
0.166667 0.6 0
0.166667 0.633333 0
0.166667 0.666667 0
0.166667 0.7 0
0.166667 0.733333 0
0.166667 0.766667 0
0.166667 0.8 0
0.166667 0.833333 0
0.166667 0.866667 0
0.166667 0.9 0
0.166667 0.933333 0
0.166667 0.966667 0
0.2 0.0333333 0
0.2 0.0666667 0
0.2 0.1 0
0.2 0.133333 0
0.2 0.166667 0
0.2 0.2 0
0.2 0.233333 0
0.2 0.266667 0
0.2 0.3 0
0.2 0.333333 0
0.2 0.366667 0
0.2 0.4 0
0.2 0.433333 0
0.2 0.466667 0
0.2 0.5 0
0.2 0.533333 0
0.2 0.566667 0
0.2 0.6 0
0.2 0.633333 0
0.2 0.666667 0
0.2 0.7 0
0.2 0.733333 0
0.2 0.766667 0
0.2 0.8 0
0.2 0.833333 0
0.2 0.866667 0
0.2 0.9 0
0.2 0.933333 0
0.2 0.966667 0
0.233333 0.0333333 0
0.233333 0.0666667 0
0.233333 0.1 0
0.233333 0.133333 0
0.233333 0.166667 0
0.233333 0.2 0
0.233333 0.233333 0
0.233333 0.266667 0
0.233333 0.3 0
0.233333 0.333333 0
0.233333 0.366667 0
0.233333 0.4 0
0.233333 0.433333 0
0.233333 0.466667 0
0.233333 0.5 0
0.233333 0.533333 0
0.233333 0.566667 0
0.233333 0.6 0
0.233333 0.633333 0
0.233333 0.666667 0
0.233333 0.7 0
0.233333 0.733333 0
0.233333 0.766667 0
0.233333 0.8 0
0.233333 0.833333 0
0.233333 0.866667 0
0.233333 0.9 0
0.233333 0.933333 0
0.233333 0.966667 0
0.266667 0.0333333 0
0.266667 0.0666667 0
0.266667 0.1 0
0.266667 0.133333 0
0.266667 0.166667 0
0.266667 0.2 0
0.266667 0.233333 0
0.266667 0.266667 0
0.266667 0.3 0
0.266667 0.333333 0
0.266667 0.366667 0
0.266667 0.4 0
0.266667 0.433333 0
0.266667 0.466667 0
0.266667 0.5 0
0.266667 0.533333 0
0.266667 0.566667 0
0.266667 0.6 0
0.266667 0.633333 0
0.266667 0.666667 0
0.266667 0.7 0
0.266667 0.733333 0
0.266667 0.766667 0
0.266667 0.8 0
0.266667 0.833333 0
0.266667 0.866667 0
0.266667 0.9 0
0.266667 0.933333 0
0.266667 0.966667 0
0.3 0.0333333 0
0.3 0.0666667 0
0.3 0.1 0
0.3 0.133333 0
0.3 0.166667 0
0.3 0.2 0
0.3 0.233333 0
0.3 0.266667 0
0.3 0.3 0
0.3 0.333333 0
0.3 0.366667 0
0.3 0.4 0
0.3 0.433333 0
0.3 0.466667 0
0.3 0.5 0
0.3 0.533333 0
0.3 0.566667 0
0.3 0.6 0
0.3 0.633333 0
0.3 0.666667 0
0.3 0.7 0
0.3 0.733333 0
0.3 0.766667 0
0.3 0.8 0
0.3 0.833333 0
0.3 0.866667 0
0.3 0.9 0
0.3 0.933333 0
0.3 0.966667 0
0.333333 0.0333333 0
0.333333 0.0666667 0
0.333333 0.1 0
0.333333 0.133333 0
0.333333 0.166667 0
0.333333 0.2 0
0.333333 0.233333 0
0.333333 0.266667 0
0.333333 0.3 0
0.333333 0.333333 0
0.333333 0.366667 0
0.333333 0.4 0
0.333333 0.433333 0
0.333333 0.466667 0
0.333333 0.5 0
0.333333 0.533333 0
0.333333 0.566667 0
0.333333 0.6 0
0.333333 0.633333 0
0.333333 0.666667 0
0.333333 0.7 0
0.333333 0.733333 0
0.333333 0.766667 0
0.333333 0.8 0
0.333333 0.833333 0
0.333333 0.866667 0
0.333333 0.9 0
0.333333 0.933333 0
0.333333 0.966667 0
0.366667 0.0333333 0
0.366667 0.0666667 0
0.366667 0.1 0
0.366667 0.133333 0
0.366667 0.166667 0
0.366667 0.2 0
0.366667 0.233333 0
0.366667 0.266667 0
0.366667 0.3 0
0.366667 0.333333 0
0.366667 0.366667 0
0.366667 0.4 0
0.366667 0.433333 0
0.366667 0.466667 0
0.366667 0.5 0
0.366667 0.533333 0
0.366667 0.566667 0
0.366667 0.6 0
0.366667 0.633333 0
0.366667 0.666667 0
0.366667 0.7 0
0.366667 0.733333 0
0.366667 0.766667 0
0.366667 0.8 0
0.366667 0.833333 0
0.366667 0.866667 0
0.366667 0.9 0
0.366667 0.933333 0
0.366667 0.966667 0
0.4 0.0333333 0
0.4 0.0666667 0
0.4 0.1 0
0.4 0.133333 0
0.4 0.166667 0
0.4 0.2 0
0.4 0.233333 0
0.4 0.266667 0
0.4 0.3 0
0.4 0.333333 0
0.4 0.366667 0
0.4 0.4 0
0.4 0.433333 0
0.4 0.466667 0
0.4 0.5 0
0.4 0.533333 0
0.4 0.566667 0
0.4 0.6 0
0.4 0.633333 0
0.4 0.666667 0
0.4 0.7 0
0.4 0.733333 0
0.4 0.766667 0
0.4 0.8 0
0.4 0.833333 0
0.4 0.866667 0
0.4 0.9 0
0.4 0.933333 0
0.4 0.966667 0
0.433333 0.0333333 0
0.433333 0.0666667 0
0.433333 0.1 0
0.433333 0.133333 0
0.433333 0.166667 0
0.433333 0.2 0
0.433333 0.233333 0
0.433333 0.266667 0
0.433333 0.3 0
0.433333 0.333333 0
0.433333 0.366667 0
0.433333 0.4 0
0.433333 0.433333 0
0.433333 0.466667 0
0.433333 0.5 0
0.433333 0.533333 0
0.433333 0.566667 0
0.433333 0.6 0
0.433333 0.633333 0
0.433333 0.666667 0
0.433333 0.7 0
0.433333 0.733333 0
0.433333 0.766667 0
0.433333 0.8 0
0.433333 0.833333 0
0.433333 0.866667 0
0.433333 0.9 0
0.433333 0.933333 0
0.433333 0.966667 0
0.466667 0.0333333 0
0.466667 0.0666667 0
0.466667 0.1 0
0.466667 0.133333 0
0.466667 0.166667 0
0.466667 0.2 0
0.466667 0.233333 0
0.466667 0.266667 0
0.466667 0.3 0
0.466667 0.333333 0
0.466667 0.366667 0
0.466667 0.4 0
0.466667 0.433333 0
0.466667 0.466667 0
0.466667 0.5 0
0.466667 0.533333 0
0.466667 0.566667 0
0.466667 0.6 0
0.466667 0.633333 0
0.466667 0.666667 0
0.466667 0.7 0
0.466667 0.733333 0
0.466667 0.766667 0
0.466667 0.8 0
0.466667 0.833333 0
0.466667 0.866667 0
0.466667 0.9 0
0.466667 0.933333 0
0.466667 0.966667 0
0.5 0.0333333 0
0.5 0.0666667 0
0.5 0.1 0
0.5 0.133333 0
0.5 0.166667 0
0.5 0.2 0
0.5 0.233333 0
0.5 0.266667 0
0.5 0.3 0
0.5 0.333333 0
0.5 0.366667 0
0.5 0.4 0
0.5 0.433333 0
0.5 0.466667 0
0.5 0.5 0
0.5 0.533333 0
0.5 0.566667 0
0.5 0.6 0
0.5 0.633333 0
0.5 0.666667 0
0.5 0.7 0
0.5 0.733333 0
0.5 0.766667 0
0.5 0.8 0
0.5 0.833333 0
0.5 0.866667 0
0.5 0.9 0
0.5 0.933333 0
0.5 0.966667 0
0.533333 0.0333333 0
0.533333 0.0666667 0
0.533333 0.1 0
0.533333 0.133333 0
0.533333 0.166667 0
0.533333 0.2 0
0.533333 0.233333 0
0.533333 0.266667 0
0.533333 0.3 0
0.533333 0.333333 0
0.533333 0.366667 0
0.533333 0.4 0
0.533333 0.433333 0
0.533333 0.466667 0
0.533333 0.5 0
0.533333 0.533333 0
0.533333 0.566667 0
0.533333 0.6 0
0.533333 0.633333 0
0.533333 0.666667 0
0.533333 0.7 0
0.533333 0.733333 0
0.533333 0.766667 0
0.533333 0.8 0
0.533333 0.833333 0
0.533333 0.866667 0
0.533333 0.9 0
0.533333 0.933333 0
0.533333 0.966667 0
0.566667 0.0333333 0
0.566667 0.0666667 0
0.566667 0.1 0
0.566667 0.133333 0
0.566667 0.166667 0
0.566667 0.2 0
0.566667 0.233333 0
0.566667 0.266667 0
0.566667 0.3 0
0.566667 0.333333 0
0.566667 0.366667 0
0.566667 0.4 0
0.566667 0.433333 0
0.566667 0.466667 0
0.566667 0.5 0
0.566667 0.533333 0
0.566667 0.566667 0
0.566667 0.6 0
0.566667 0.633333 0
0.566667 0.666667 0
0.566667 0.7 0
0.566667 0.733333 0
0.566667 0.766667 0
0.566667 0.8 0
0.566667 0.833333 0
0.566667 0.866667 0
0.566667 0.9 0
0.566667 0.933333 0
0.566667 0.966667 0
0.6 0.0333333 0
0.6 0.0666667 0
0.6 0.1 0
0.6 0.133333 0
[...]
CELL_DATA 900
SCALARS Temperatura double 1
LOOKUP_TABLE default
0
-0.00388536
-0.0115762
-0.0231859
-0.0385356
-0.0574789
-0.079898
-0.105699
-0.134809
-0.16717
-0.202736
-0.241469
-0.283336
-0.328306
-0.376345
-0.427416
-0.481473
-0.53846
-0.598312
-0.66095
-0.726282
-0.794205
-0.864606
-0.937368
-1.01238
-1.08952
-1.16865
-1.24938
-1.32999
-1.40883
0.00408402
0.000272564
-0.00727416
-0.0187022
-0.0338281
-0.0525044
-0.0746129
-0.100059
-0.128768
-0.160678
-0.195741
-0.233914
-0.275157
-0.319432
-0.366693
-0.416889
-0.469956
-0.525812
-0.584356
-0.645459
-0.708961
-0.774654
-0.842267
-0.911432
-0.981615
-1.05197
-1.12103
-1.18594
-1.241
-1.27951
0.0122956
0.00856479
0.00120738
-0.00993791
-0.0246947
-0.0429187
-0.0644923
-0.0893205
-0.117326
-0.148445
-0.182622
-0.219807
-0.259953
-0.303005
-0.348903
-0.397572
-0.448917
-0.502817
-0.559115
-0.617609
-0.678033
-0.740031
-0.803122
-0.866628
-0.929567
-0.990448
-1.04695
-1.09547
-1.13083
-1.14955
0.0248802
0.0212804
0.0141883
0.00344531
-0.0107795
-0.0283461
-0.0491388
-0.0730622
-0.100037
-0.129994
-0.162873
-0.198615
-0.237158
-0.278433
-0.322356
-0.368823
-0.417703
-0.468826
-0.521968
-0.576842
-0.633067
-0.690137
-0.747372
-0.803845
-0.858276
-0.908891
-0.953276
-0.988366
-1.01098
-1.02083
0.0416845
0.038257
0.0315066
0.0212824
0.00774563
-0.00896851
-0.0287471
-0.0514952
-0.0771312
-0.105583
-0.136781
-0.170658
-0.207138
-0.246134
-0.28754
-0.331221
-0.377007
-0.424678
-0.473951
-0.524458
-0.575722
-0.627121
-0.677846
-0.726844
-0.772751
-0.813855
-0.848119
-0.873438
-0.888356
-0.89409
0.0625063
0.0592888
0.0529528
0.0433575
0.0306557
0.0149764
-0.00357132
-0.0248935
-0.0489076
-0.0755375
-0.104709
-0.136343
-0.170353
-0.206634
-0.24506
-0.285469
-0.327657
-0.371364
-0.416258
-0.461912
-0.507789
-0.553205
-0.597303
-0.639025
-0.677095
-0.710056
-0.736397
-0.754873
-0.7651
-0.768746
0.0870997
0.0841266
0.0782725
0.0694083
0.0576768
0.0431996
0.0260809
0.00641212
-0.0157244
-0.0402504
-0.0670867
-0.0961482
-0.127337
-0.160537
-0.195604
-0.232356
-0.270568
-0.30995
-0.35014
-0.390685
-0.431023
-0.470462
-0.508171
-0.543172
-0.574371
-0.600625
-0.620908
-0.634592
-0.641852
-0.644328
0.115178
0.112481
0.10717
0.0991294
0.0884907
0.0753663
0.0598541
0.0420413
0.0220083
-0.00016655
-0.0244021
-0.0506091
-0.0786842
-0.108503
-0.139912
-0.172719
-0.206687
-0.241515
-0.276835
-0.312192
-0.347034
-0.380709
-0.412458
-0.441434
-0.46675
-0.487562
-0.503222
-0.51349
-0.518782
-0.520539
0.146419
0.144025
0.139312
0.132177
0.12274
0.111101
0.0973513
0.0815711
0.063837
0.0442249
0.022815
-0.000303619
-0.0250265
-0.0512278
-0.0787527
-0.10741
-0.136961
-0.167115
-0.197512
-0.227724
-0.25724
-0.285472
-0.311763
-0.335415
-0.355738
-0.372136
-0.384226
-0.39199
-0.395913
-0.397193
0.180467
0.1784
0.174332
0.168175
0.160033
0.149994
0.13814
0.124543
0.109273
0.0924008
0.0740017
0.054161
0.0329786
0.0105749
-0.0129022
-0.0372712
-0.0623087
-0.087743
-0.113247
-0.138432
-0.162851
-0.185999
-0.207332
-0.226294
-0.24237
-0.255151
-0.26443
-0.270299
-0.273224
-0.274169
0.216937
0.215218
0.211836
0.206717
0.199948
0.191606
0.181759
0.17047
0.1578
0.143812
0.128572
0.112158
0.0946606
0.0761875
0.0568718
0.0368757
0.0163972
-0.00432557
-0.025009
-0.045323
-0.0648922
-0.0833047
-0.100128
-0.114939
-0.127361
-0.137127
-0.144136
-0.14852
-0.150685
-0.151379
0.255422
0.254068
0.251404
0.247372
0.242041
0.235474
0.227724
0.218843
0.20888
0.197889
0.185924
0.173051
0.159345
0.144896
0.129817
0.114241
0.0983323
0.082285
0.0663287
0.0507271
0.0357752
0.0217907
0.00909901
-0.00199063
-0.0112175
-0.0184099
-0.0235286
-0.0267052
-0.0282635
-0.0287602
0.295495
0.294519
0.292597
0.28969
0.285848
0.281115
0.27553
0.269133
0.261961
0.254051
0.245447
0.236197
0.226357
0.215998
0.205201
0.194069
0.182721
0.171303
0.159983
0.148951
0.13842
0.128614
0.119759
0.112063
0.105698
0.100765
0.0972757
0.0951217
0.0940697
0.0937355
0.336712
0.336123
0.334963
0.333208
0.330888
0.328032
0.324662
0.320802
0.316476
0.311708
0.306522
0.300951
0.295029
0.288798
0.282311
0.275631
0.26883
0.261999
0.255239
0.248667
0.242409
0.236599
0.23137
0.226841
0.22311
0.220229
0.218199
0.21695
0.216342
0.216149
0.378621
0.378424
0.378036
0.377449
0.376674
0.375718
0.374592
0.373302
0.371856
0.370263
0.368531
0.36667
0.364693
0.362614
0.36045
0.358223
0.355958
0.353684
0.351437
0.349254
0.347178
0.345254
0.343525
0.34203
0.3408
0.339853
0.339187
0.338777
0.338578
0.338515
0.42076
0.420957
0.421345
0.421932
0.422707
0.423663
0.424789
0.426079
0.427525
0.429118
0.43085
0.432711
0.434688
0.436767
0.438931
0.441158
0.443423
0.445697
0.447944
0.450127
0.452203
0.454127
0.455856
0.457351
0.458581
0.459528
0.460194
0.460604
0.460803
0.460866
0.462669
0.463258
0.464418
0.466173
0.468492
0.471349
0.474719
0.478578
0.482905
0.487673
0.492858
0.49843
0.504352
0.510583
0.517069
0.52375
0.530551
0.537382
0.544142
0.550714
0.556972
0.562782
0.568011
0.572539
0.576271
0.579151
0.581182
0.582431
0.583039
0.583232
0.503886
0.504862
0.506784
0.509691
0.513533
0.518266
0.523851
0.530248
0.53742
0.54533
0.553934
0.563184
0.573023
0.583383
0.59418
0.605312
0.61666
0.628078
0.639398
0.65043
0.660961
0.670767
0.679622
0.687318
0.693683
0.698616
0.702105
0.704259
0.705311
0.705645
0.543958
0.545313
0.547977
0.552009
0.557339
0.563907
0.571657
0.580538
0.590501
0.601492
0.613457
0.62633
0.640036
0.654484
0.669564
0.68514
0.701049
0.717096
0.733052
0.748654
0.763606
0.77759
0.790282
0.801372
0.810598
0.817791
0.82291
0.826086
0.827644
0.828141
0.582444
0.584162
0.587545
0.592664
0.599433
0.607774
0.617622
0.628911
0.641581
0.655569
0.670809
0.687223
0.70472
0.723193
0.742509
0.762505
0.782984
0.803706
0.82439
0.844704
0.864273
0.882686
0.899509
0.914319
0.926742
0.936508
0.943517
0.947901
0.950066
0.950759
0.618914
0.620981
0.625049
0.631206
0.639348
0.649386
0.661241
0.674838
0.690108
0.70698
0.725379
0.74522
0.766402
0.788806
0.812283
0.836652
0.86169
0.887124
0.912628
0.937813
0.962232
0.98538
1.00671
1.02568
1.04175
1.05453
1.06381
1.06968
1.07261
1.07355
0.652962
0.655356
0.660069
0.667204
0.676641
0.68828
0.70203
0.71781
0.735544
0.755156
0.776566
0.799685
0.824407
0.850609
0.878134
0.906791
0.936342
0.966496
0.996893
1.0271
1.05662
1.08485
1.11114
1.1348
1.15512
1.17152
1.18361
1.19137
1.19529
1.19657
0.684203
0.6869
0.692211
0.700252
0.71089
0.724015
0.739527
0.75734
0.777373
0.799547
0.823783
0.84999
0.878065
0.907884
0.939293
0.9721
1.00607
1.0409
1.07622
1.11157
1.14642
1.18009
1.21184
1.24082
1.26613
1.28694
1.3026
1.31287
1.31816
1.31992
0.712281
0.715254
0.721108
0.729973
0.741704
0.756181
0.7733
0.792969
0.815105
0.839631
0.866468
0.895529
0.926718
0.959918
0.994985
1.03174
1.06995
1.10933
1.14952
1.19007
1.2304
1.26984
1.30755
1.34255
1.37375
1.40001
1.42029
1.43397
1.44123
1.44371
0.736875
0.740092
0.746428
0.756023
0.768725
0.784405
0.802952
0.824274
0.848289
0.874918
0.90409
0.935724
0.969734
1.00602
1.04444
1.08485
1.12704
1.17075
1.21564
1.26129
1.30717
1.35259
1.39668
1.43841
1.47648
1.50944
1.53578
1.55425
1.56448
1.56813
0.757696
0.761124
0.767874
0.778099
0.791635
0.808349
0.828128
0.850876
0.876512
0.904964
0.936162
0.970039
1.00652
1.04552
1.08692
1.1306
1.17639
1.22406
1.27333
1.32384
1.3751
1.4265
1.47723
1.52622
1.57213
1.61324
1.6475
1.67282
1.68774
1.69347
0.774501
0.778101
0.785193
0.795936
0.81016
0.827727
0.84852
0.872443
0.899418
0.929375
0.962254
0.997996
1.03654
1.07781
1.12174
1.1682
1.21708
1.26821
1.32135
1.37622
1.43245
1.48952
1.54675
1.60323
1.65766
1.70827
1.75266
1.78775
1.81036
1.82021
0.787085
0.790816
0.798174
0.809319
0.824076
0.8423
0.863873
0.888701
0.916707
0.947825
0.982002
1.01919
1.05933
1.10239
1.14828
1.19695
1.2483
1.3022
1.3585
1.41699
1.47741
1.53941
1.6025
1.66601
1.72895
1.78983
1.84633
1.89486
1.93021
1.94893
0.795297
0.799108
0.806655
0.818083
0.833209
0.851885
0.873994
0.89944
0.928149
0.960059
0.995122
1.03329
1.07454
1.11881
1.16607
1.21627
1.26934
1.32519
1.38374
1.44484
1.50834
1.57403
1.64165
1.71081
1.781
1.85135
1.92041
1.98532
2.04038
2.07889
0.799381
0.803266
0.810957
0.822567
0.837917
0.85686
0.879279
0.90508
0.93419
0.966551
1.00212
1.04085
1.08272
1.12769
1.17573
1.2268
1.28085
1.33784
1.39769
1.46033
1.52566
1.59359
1.66399
1.73675
1.81176
1.8889
1.96803
2.04876
2.12937
2.20821
