# vtk DataFile Version 3.0
Malha 2D com triângulos e temperatura
ASCII
DATASET UNSTRUCTURED_GRID

POINTS 36 double
0 0 0
1 0 0
1 1 0
0 1 0
0.2 0 0
0.4 0 0
0.6 0 0
0.8 0 0
1 0.2 0
1 0.4 0
1 0.6 0
1 0.8 0
0.8 1 0
0.6 1 0
0.4 1 0
0.2 1 0
0 0.8 0
0 0.6 0
0 0.4 0
0 0.2 0
0.2 0.2 0
0.2 0.4 0
0.2 0.6 0
0.2 0.8 0
0.4 0.2 0
0.4 0.4 0
0.4 0.6 0
0.4 0.8 0
0.6 0.2 0
0.6 0.4 0
0.6 0.6 0
0.6 0.8 0
0.8 0.2 0
0.8 0.4 0
0.8 0.6 0
0.8 0.8 0

CELLS 25 125
4 0 4 20 19
4 19 20 21 18
4 18 21 22 17
4 17 22 23 16
4 16 23 15 3
4 4 5 24 20
4 20 24 25 21
4 21 25 26 22
4 22 26 27 23
4 23 27 14 15
4 5 6 28 24
4 24 28 29 25
4 25 29 30 26
4 26 30 31 27
4 27 31 13 14
4 6 7 32 28
4 28 32 33 29
4 29 33 34 30
4 30 34 35 31
4 31 35 12 13
4 7 1 8 32
4 32 8 9 33
4 33 9 10 34
4 34 10 11 35
4 35 11 2 12

CELL_TYPES 25
9
9
9
9
9
9
9
9
9
9
9
9
9
9
9
9
9
9
9
9
9
9
9
9
9

CELL_DATA 25
SCALARS Temperatura double 1
LOOKUP_TABLE default
0
-0.0593425
-0.161005
-0.30126
-0.444321
-0.016099
-0.0749071
-0.176709
-0.318264
-0.463834
-0.0722834
-0.130817
-0.233143
-0.376257
-0.523928
-0.17418
-0.232776
-0.33619
-0.480219
-0.624717
-0.328292
-0.389982
-0.496306
-0.637456
-0.76146
