# vtk DataFile Version 3.0
Malha 2D com triângulos e temperatura
ASCII
DATASET UNSTRUCTURED_GRID

POINTS 961 double
0 0 0
1 0 0
1 1 0
0 1 0
0.0333333 0 0
0.0666667 0 0
0.1 0 0
0.133333 0 0
0.166667 0 0
0.2 0 0
0.233333 0 0
0.266667 0 0
0.3 0 0
0.333333 0 0
0.366667 0 0
0.4 0 0
0.433333 0 0
0.466667 0 0
0.5 0 0
0.533333 0 0
0.566667 0 0
0.6 0 0
0.633333 0 0
0.666667 0 0
0.7 0 0
0.733333 0 0
0.766667 0 0
0.8 0 0
0.833333 0 0
0.866667 0 0
0.9 0 0
0.933333 0 0
0.966667 0 0
1 0.0333333 0
1 0.0666667 0
1 0.1 0
1 0.133333 0
1 0.166667 0
1 0.2 0
1 0.233333 0
1 0.266667 0
1 0.3 0
1 0.333333 0
1 0.366667 0
1 0.4 0
1 0.433333 0
1 0.466667 0
1 0.5 0
1 0.533333 0
1 0.566667 0
1 0.6 0
1 0.633333 0
1 0.666667 0
1 0.7 0
1 0.733333 0
1 0.766667 0
1 0.8 0
1 0.833333 0
1 0.866667 0
1 0.9 0
1 0.933333 0
1 0.966667 0
0.966667 1 0
0.933333 1 0
0.9 1 0
0.866667 1 0
0.833333 1 0
0.8 1 0
0.766667 1 0
0.733333 1 0
0.7 1 0
0.666667 1 0
0.633333 1 0
0.6 1 0
0.566667 1 0
0.533333 1 0
0.5 1 0
0.466667 1 0
0.433333 1 0
0.4 1 0
0.366667 1 0
0.333333 1 0
0.3 1 0
0.266667 1 0
0.233333 1 0
0.2 1 0
0.166667 1 0
0.133333 1 0
0.1 1 0
0.0666667 1 0
0.0333333 1 0
0 0.966667 0
0 0.933333 0
0 0.9 0
0 0.866667 0
0 0.833333 0
0 0.8 0
0 0.766667 0
0 0.733333 0
0 0.7 0
0 0.666667 0
0 0.633333 0
0 0.6 0
0 0.566667 0
0 0.533333 0
0 0.5 0
0 0.466667 0
0 0.433333 0
0 0.4 0
0 0.366667 0
0 0.333333 0
0 0.3 0
0 0.266667 0
0 0.233333 0
0 0.2 0
0 0.166667 0
0 0.133333 0
0 0.1 0
0 0.0666667 0
0 0.0333333 0
0.0333333 0.0333333 0
0.0333333 0.0666667 0
0.0333333 0.1 0
0.0333333 0.133333 0
0.0333333 0.166667 0
0.0333333 0.2 0
0.0333333 0.233333 0
0.0333333 0.266667 0
0.0333333 0.3 0
0.0333333 0.333333 0
0.0333333 0.366667 0
0.0333333 0.4 0
0.0333333 0.433333 0
0.0333333 0.466667 0
0.0333333 0.5 0
0.0333333 0.533333 0
0.0333333 0.566667 0
0.0333333 0.6 0
0.0333333 0.633333 0
0.0333333 0.666667 0
0.0333333 0.7 0
0.0333333 0.733333 0
0.0333333 0.766667 0
0.0333333 0.8 0
0.0333333 0.833333 0
0.0333333 0.866667 0
0.0333333 0.9 0
0.0333333 0.933333 0
0.0333333 0.966667 0
0.0666667 0.0333333 0
0.0666667 0.0666667 0
0.0666667 0.1 0
0.0666667 0.133333 0
0.0666667 0.166667 0
0.0666667 0.2 0
0.0666667 0.233333 0
0.0666667 0.266667 0
0.0666667 0.3 0
0.0666667 0.333333 0
0.0666667 0.366667 0
0.0666667 0.4 0
0.0666667 0.433333 0
0.0666667 0.466667 0
0.0666667 0.5 0
0.0666667 0.533333 0
0.0666667 0.566667 0
0.0666667 0.6 0
0.0666667 0.633333 0
0.0666667 0.666667 0
0.0666667 0.7 0
0.0666667 0.733333 0
0.0666667 0.766667 0
0.0666667 0.8 0
0.0666667 0.833333 0
0.0666667 0.866667 0
0.0666667 0.9 0
0.0666667 0.933333 0
0.0666667 0.966667 0
0.1 0.0333333 0
0.1 0.0666667 0
0.1 0.1 0
0.1 0.133333 0
0.1 0.166667 0
0.1 0.2 0
0.1 0.233333 0
0.1 0.266667 0
0.1 0.3 0
0.1 0.333333 0
0.1 0.366667 0
0.1 0.4 0
0.1 0.433333 0
0.1 0.466667 0
0.1 0.5 0
0.1 0.533333 0
0.1 0.566667 0
0.1 0.6 0
0.1 0.633333 0
0.1 0.666667 0
0.1 0.7 0
0.1 0.733333 0
0.1 0.766667 0
0.1 0.8 0
0.1 0.833333 0
0.1 0.866667 0
0.1 0.9 0
0.1 0.933333 0
0.1 0.966667 0
0.133333 0.0333333 0
0.133333 0.0666667 0
0.133333 0.1 0
0.133333 0.133333 0
0.133333 0.166667 0
0.133333 0.2 0
0.133333 0.233333 0
0.133333 0.266667 0
0.133333 0.3 0
0.133333 0.333333 0
0.133333 0.366667 0
0.133333 0.4 0
0.133333 0.433333 0
0.133333 0.466667 0
0.133333 0.5 0
0.133333 0.533333 0
0.133333 0.566667 0
0.133333 0.6 0
0.133333 0.633333 0
0.133333 0.666667 0
0.133333 0.7 0
0.133333 0.733333 0
0.133333 0.766667 0
0.133333 0.8 0
0.133333 0.833333 0
0.133333 0.866667 0
0.133333 0.9 0
0.133333 0.933333 0
0.133333 0.966667 0
0.166667 0.0333333 0
0.166667 0.0666667 0
0.166667 0.1 0
0.166667 0.133333 0
0.166667 0.166667 0
0.166667 0.2 0
0.166667 0.233333 0
0.166667 0.266667 0
0.166667 0.3 0
0.166667 0.333333 0
0.166667 0.366667 0
0.166667 0.4 0
0.166667 0.433333 0
0.166667 0.466667 0
0.166667 0.5 0
0.166667 0.533333 0
0.166667 0.566667 0
0.166667 0.6 0
0.166667 0.633333 0
0.166667 0.666667 0
0.166667 0.7 0
0.166667 0.733333 0
0.166667 0.766667 0
0.166667 0.8 0
0.166667 0.833333 0
0.166667 0.866667 0
0.166667 0.9 0
0.166667 0.933333 0
0.166667 0.966667 0
0.2 0.0333333 0
0.2 0.0666667 0
0.2 0.1 0
0.2 0.133333 0
0.2 0.166667 0
0.2 0.2 0
0.2 0.233333 0
0.2 0.266667 0
0.2 0.3 0
0.2 0.333333 0
0.2 0.366667 0
0.2 0.4 0
0.2 0.433333 0
0.2 0.466667 0
0.2 0.5 0
0.2 0.533333 0
0.2 0.566667 0
0.2 0.6 0
0.2 0.633333 0
0.2 0.666667 0
0.2 0.7 0
0.2 0.733333 0
0.2 0.766667 0
0.2 0.8 0
0.2 0.833333 0
0.2 0.866667 0
0.2 0.9 0
0.2 0.933333 0
0.2 0.966667 0
0.233333 0.0333333 0
0.233333 0.0666667 0
0.233333 0.1 0
0.233333 0.133333 0
0.233333 0.166667 0
0.233333 0.2 0
0.233333 0.233333 0
0.233333 0.266667 0
0.233333 0.3 0
0.233333 0.333333 0
0.233333 0.366667 0
0.233333 0.4 0
0.233333 0.433333 0
0.233333 0.466667 0
0.233333 0.5 0
0.233333 0.533333 0
0.233333 0.566667 0
0.233333 0.6 0
0.233333 0.633333 0
0.233333 0.666667 0
0.233333 0.7 0
0.233333 0.733333 0
0.233333 0.766667 0
0.233333 0.8 0
0.233333 0.833333 0
0.233333 0.866667 0
0.233333 0.9 0
0.233333 0.933333 0
0.233333 0.966667 0
0.266667 0.0333333 0
0.266667 0.0666667 0
0.266667 0.1 0
0.266667 0.133333 0
0.266667 0.166667 0
0.266667 0.2 0
0.266667 0.233333 0
0.266667 0.266667 0
0.266667 0.3 0
0.266667 0.333333 0
0.266667 0.366667 0
0.266667 0.4 0
0.266667 0.433333 0
0.266667 0.466667 0
0.266667 0.5 0
0.266667 0.533333 0
0.266667 0.566667 0
0.266667 0.6 0
0.266667 0.633333 0
0.266667 0.666667 0
0.266667 0.7 0
0.266667 0.733333 0
0.266667 0.766667 0
0.266667 0.8 0
0.266667 0.833333 0
0.266667 0.866667 0
0.266667 0.9 0
0.266667 0.933333 0
0.266667 0.966667 0
0.3 0.0333333 0
0.3 0.0666667 0
0.3 0.1 0
0.3 0.133333 0
0.3 0.166667 0
0.3 0.2 0
0.3 0.233333 0
0.3 0.266667 0
0.3 0.3 0
0.3 0.333333 0
0.3 0.366667 0
0.3 0.4 0
0.3 0.433333 0
0.3 0.466667 0
0.3 0.5 0
0.3 0.533333 0
0.3 0.566667 0
0.3 0.6 0
0.3 0.633333 0
0.3 0.666667 0
0.3 0.7 0
0.3 0.733333 0
0.3 0.766667 0
0.3 0.8 0
0.3 0.833333 0
0.3 0.866667 0
0.3 0.9 0
0.3 0.933333 0
0.3 0.966667 0
0.333333 0.0333333 0
0.333333 0.0666667 0
0.333333 0.1 0
0.333333 0.133333 0
0.333333 0.166667 0
0.333333 0.2 0
0.333333 0.233333 0
0.333333 0.266667 0
0.333333 0.3 0
0.333333 0.333333 0
0.333333 0.366667 0
0.333333 0.4 0
0.333333 0.433333 0
0.333333 0.466667 0
0.333333 0.5 0
0.333333 0.533333 0
0.333333 0.566667 0
0.333333 0.6 0
0.333333 0.633333 0
0.333333 0.666667 0
0.333333 0.7 0
0.333333 0.733333 0
0.333333 0.766667 0
0.333333 0.8 0
0.333333 0.833333 0
0.333333 0.866667 0
0.333333 0.9 0
0.333333 0.933333 0
0.333333 0.966667 0
0.366667 0.0333333 0
0.366667 0.0666667 0
0.366667 0.1 0
0.366667 0.133333 0
0.366667 0.166667 0
0.366667 0.2 0
0.366667 0.233333 0
0.366667 0.266667 0
0.366667 0.3 0
0.366667 0.333333 0
0.366667 0.366667 0
0.366667 0.4 0
0.366667 0.433333 0
0.366667 0.466667 0
0.366667 0.5 0
0.366667 0.533333 0
0.366667 0.566667 0
0.366667 0.6 0
0.366667 0.633333 0
0.366667 0.666667 0
0.366667 0.7 0
0.366667 0.733333 0
0.366667 0.766667 0
0.366667 0.8 0
0.366667 0.833333 0
0.366667 0.866667 0
0.366667 0.9 0
0.366667 0.933333 0
0.366667 0.966667 0
0.4 0.0333333 0
0.4 0.0666667 0
0.4 0.1 0
0.4 0.133333 0
0.4 0.166667 0
0.4 0.2 0
0.4 0.233333 0
0.4 0.266667 0
0.4 0.3 0
0.4 0.333333 0
0.4 0.366667 0
0.4 0.4 0
0.4 0.433333 0
0.4 0.466667 0
0.4 0.5 0
0.4 0.533333 0
0.4 0.566667 0
0.4 0.6 0
0.4 0.633333 0
0.4 0.666667 0
0.4 0.7 0
0.4 0.733333 0
0.4 0.766667 0
0.4 0.8 0
0.4 0.833333 0
0.4 0.866667 0
0.4 0.9 0
0.4 0.933333 0
0.4 0.966667 0
0.433333 0.0333333 0
0.433333 0.0666667 0
0.433333 0.1 0
0.433333 0.133333 0
0.433333 0.166667 0
0.433333 0.2 0
0.433333 0.233333 0
0.433333 0.266667 0
0.433333 0.3 0
0.433333 0.333333 0
0.433333 0.366667 0
0.433333 0.4 0
0.433333 0.433333 0
0.433333 0.466667 0
0.433333 0.5 0
0.433333 0.533333 0
0.433333 0.566667 0
0.433333 0.6 0
0.433333 0.633333 0
0.433333 0.666667 0
0.433333 0.7 0
0.433333 0.733333 0
0.433333 0.766667 0
0.433333 0.8 0
0.433333 0.833333 0
0.433333 0.866667 0
0.433333 0.9 0
0.433333 0.933333 0
0.433333 0.966667 0
0.466667 0.0333333 0
0.466667 0.0666667 0
0.466667 0.1 0
0.466667 0.133333 0
0.466667 0.166667 0
0.466667 0.2 0
0.466667 0.233333 0
0.466667 0.266667 0
0.466667 0.3 0
0.466667 0.333333 0
0.466667 0.366667 0
0.466667 0.4 0
0.466667 0.433333 0
0.466667 0.466667 0
0.466667 0.5 0
0.466667 0.533333 0
0.466667 0.566667 0
0.466667 0.6 0
0.466667 0.633333 0
0.466667 0.666667 0
0.466667 0.7 0
0.466667 0.733333 0
0.466667 0.766667 0
0.466667 0.8 0
0.466667 0.833333 0
0.466667 0.866667 0
0.466667 0.9 0
0.466667 0.933333 0
0.466667 0.966667 0
0.5 0.0333333 0
0.5 0.0666667 0
0.5 0.1 0
0.5 0.133333 0
0.5 0.166667 0
0.5 0.2 0
0.5 0.233333 0
0.5 0.266667 0
0.5 0.3 0
0.5 0.333333 0
0.5 0.366667 0
0.5 0.4 0
0.5 0.433333 0
0.5 0.466667 0
0.5 0.5 0
0.5 0.533333 0
0.5 0.566667 0
0.5 0.6 0
0.5 0.633333 0
0.5 0.666667 0
0.5 0.7 0
0.5 0.733333 0
0.5 0.766667 0
0.5 0.8 0
0.5 0.833333 0
0.5 0.866667 0
0.5 0.9 0
0.5 0.933333 0
0.5 0.966667 0
0.533333 0.0333333 0
0.533333 0.0666667 0
0.533333 0.1 0
0.533333 0.133333 0
0.533333 0.166667 0
0.533333 0.2 0
0.533333 0.233333 0
0.533333 0.266667 0
0.533333 0.3 0
0.533333 0.333333 0
0.533333 0.366667 0
0.533333 0.4 0
0.533333 0.433333 0
0.533333 0.466667 0
0.533333 0.5 0
0.533333 0.533333 0
0.533333 0.566667 0
0.533333 0.6 0
0.533333 0.633333 0
0.533333 0.666667 0
0.533333 0.7 0
0.533333 0.733333 0
0.533333 0.766667 0
0.533333 0.8 0
0.533333 0.833333 0
0.533333 0.866667 0
0.533333 0.9 0
0.533333 0.933333 0
0.533333 0.966667 0
0.566667 0.0333333 0
0.566667 0.0666667 0
0.566667 0.1 0
0.566667 0.133333 0
0.566667 0.166667 0
0.566667 0.2 0
0.566667 0.233333 0
0.566667 0.266667 0
0.566667 0.3 0
0.566667 0.333333 0
0.566667 0.366667 0
0.566667 0.4 0
0.566667 0.433333 0
0.566667 0.466667 0
0.566667 0.5 0
0.566667 0.533333 0
0.566667 0.566667 0
0.566667 0.6 0
0.566667 0.633333 0
0.566667 0.666667 0
0.566667 0.7 0
0.566667 0.733333 0
0.566667 0.766667 0
0.566667 0.8 0
0.566667 0.833333 0
0.566667 0.866667 0
0.566667 0.9 0
0.566667 0.933333 0
0.566667 0.966667 0
0.6 0.0333333 0
0.6 0.0666667 0
0.6 0.1 0
0.6 0.133333 0
[...]
CELL_DATA 900
SCALARS Temperatura double 1
LOOKUP_TABLE default
0
0.147382
0.409119
0.762854
1.17889
1.63175
2.09971
2.56443
3.0107
3.42615
3.80111
4.12837
4.40307
4.62244
4.78565
4.8934
4.94695
4.94826
4.90006
4.80588
4.67006
4.49756
4.29385
4.06469
3.81607
3.55411
3.28531
3.01743
2.76424
2.54619
-0.167676
-0.0239857
0.231226
0.577963
0.986926
1.4329
1.89433
2.35304
2.7939
3.20466
3.57571
3.89992
4.17249
4.39073
4.55387
4.66295
4.71911
4.72416
4.68079
4.59256
4.46383
4.29962
4.10547
3.88738
3.65181
3.40595
3.15869
2.92292
2.72165
2.58752
-0.490705
-0.348574
-0.0984859
0.241041
0.64165
1.07872
1.53113
1.98102
2.41355
2.81666
3.18097
3.49954
3.76774
3.98307
4.14498
4.255
4.31415
4.32408
4.28744
4.20781
4.08959
3.93785
3.75826
3.55703
3.34112
3.11861
2.8999
2.69966
2.54064
2.45023
-0.974674
-0.835033
-0.590846
-0.260019
0.130029
0.555434
0.995684
1.43341
1.85419
2.24635
2.60082
2.91095
3.17242
3.38303
3.5426
3.65316
3.71561
3.73148
3.70338
3.63488
3.53038
3.39496
3.23433
3.0548
2.86344
2.66851
2.4803
2.31243
2.18408
2.11673
-1.61338
-1.47744
-1.24073
-0.92074
-0.543931
-0.133304
0.291383
0.713409
1.11891
1.49669
1.83812
2.13698
2.38933
2.59341
2.74947
2.86008
2.92592
2.94844
2.9302
2.87476
2.78644
2.67026
2.53175
2.37699
2.21269
2.04643
1.8873
1.74683
1.64094
1.58765
-2.40177
-2.27093
-2.04367
-1.73709
-1.37656
-0.984099
-0.57857
-0.175908
0.21071
0.570706
0.895991
1.18085
1.42184
1.61771
1.76926
1.87934
1.94851
1.97818
1.97087
1.93001
1.85979
1.76497
1.65068
1.52243
1.38605
1.24793
1.11552
0.998362
0.910107
0.866959
-3.33545
-3.21119
-2.99563
-2.70531
-2.36439
-1.99371
-1.61109
-1.23153
-0.867386
-0.528512
-0.222353
0.0459622
0.273557
0.45974
0.605993
0.714995
0.787465
0.824729
0.829212
0.80419
0.753556
0.681605
0.592846
0.491882
0.383395
0.27235
0.164588
0.0680505
-0.00515647
-0.0399799
-4.4102
-4.29409
-4.09262
-3.82165
-3.50386
-3.15875
-2.8029
-2.45023
-2.11213
-1.79761
-1.51338
-1.26391
-1.05149
-0.876245
-0.735982
-0.628368
-0.552532
-0.507203
-0.490105
-0.498241
-0.528154
-0.576181
-0.638659
-0.712071
-0.793027
-0.877991
-0.962544
-1.04001
-1.09951
-1.12688
-5.62158
-5.51521
-5.33033
-5.08193
-4.79095
-4.47532
-4.1502
-3.82823
-3.51969
-3.23263
-2.97294
-2.74439
-2.54866
-2.38534
-2.25162
-2.14551
-2.06609
-2.01216
-1.98167
-1.97201
-1.98029
-2.00365
-2.03939
-2.0852
-2.13899
-2.19856
-2.26073
-2.31992
-2.36636
-2.38669
-6.96451
-6.86947
-6.70375
-6.48122
-6.22085
-5.93871
-5.64832
-5.36086
-5.08535
-4.82874
-4.59603
-4.39025
-4.21247
-4.06184
-3.93502
-3.8304
-3.74706
-3.68394
-3.63929
-3.611
-3.59689
-3.59497
-3.60366
-3.62183
-3.64865
-3.68318
-3.72334
-3.76457
-3.7982
-3.81168
-8.43296
-8.35082
-8.20683
-8.01354
-7.7876
-7.54301
-7.29139
-7.04225
-6.80319
-6.57995
-6.37652
-6.19517
-6.03643
-5.89904
-5.77938
-5.67612
-5.58845
-5.51549
-5.4559
-5.40819
-5.37099
-5.34328
-5.3246
-5.31501
-5.31489
-5.32444
-5.34263
-5.36592
-5.38678
-5.39347
-10.0197
-9.95196
-9.83224
-9.67152
-9.48385
-9.28086
-9.07204
-8.86505
-8.66583
-8.4788
-8.30688
-8.15154
-8.01278
-7.88909
-7.77678
-7.67472
-7.58224
-7.49876
-7.42346
-7.35557
-7.29462
-7.24062
-7.19422
-7.15666
-7.12947
-7.11391
-7.10999
-7.11518
-7.12319
-7.12306
-11.716
-11.6641
-11.5711
-11.4462
-11.3005
-11.1432
-10.9812
-10.8201
-10.6641
-10.5161
-10.3779
-10.2501
-10.1323
-10.0227
-9.91796
-9.81693
-9.71919
-9.62455
-9.53282
-9.44403
-9.35869
-9.27789
-9.20341
-9.13762
-9.08314
-9.04225
-9.01597
-9.00286
-8.99787
-8.99086
-13.5117
-13.4769
-13.4128
-13.3267
-13.2267
-13.1188
-13.0076
-12.8962
-12.7868
-12.6808
-12.5785
-12.4799
-12.3839
-12.289
-12.192
-12.092
-11.9886
-11.8823
-11.7735
-11.6632
-11.5529
-11.4448
-11.342
-11.2477
-11.1657
-11.0993
-11.0504
-11.0188
-11.0007
-10.9867
-15.395
-15.3782
-15.3449
-15.3004
-15.2493
-15.1945
-15.1378
-15.0797
-15.0203
-14.9591
-14.8952
-14.8274
-14.7545
-14.6748
-14.5861
-14.4871
-14.378
-14.2596
-14.1333
-14.001
-13.8654
-13.7299
-13.5984
-13.4756
-13.366
-13.2739
-13.2024
-13.1522
-13.1208
-13.1
-17.3533
-17.3556
-17.3553
-17.3555
-17.3571
-17.3598
-17.3621
-17.362
-17.3569
-17.3445
-17.3223
-17.2883
-17.2406
-17.1777
-17.0983
-17.0011
-16.8863
-16.7556
-16.6112
-16.456
-16.294
-16.1296
-15.9683
-15.8155
-15.677
-15.5581
-15.4627
-15.3929
-15.3477
-15.3196
-19.3726
-19.396
-19.432
-19.4814
-19.5412
-19.6075
-19.6753
-19.7396
-19.7954
-19.8382
-19.8636
-19.8685
-19.8504
-19.8079
-19.7404
-19.6463
-19.5266
-19.3831
-19.2192
-19.0389
-18.8474
-18.6508
-18.4556
-18.2687
-18.0971
-17.9472
-17.8243
-17.7319
-17.6707
-17.6341
-21.4354
-21.482
-21.558
-21.6616
-21.7857
-21.9223
-22.063
-22.1996
-22.3242
-22.4299
-22.5104
-22.5611
-22.5786
-22.5614
-22.5096
-22.4215
-22.298
-22.1418
-21.957
-21.749
-21.5245
-21.2909
-21.0564
-20.8296
-20.619
-20.4323
-20.2767
-20.1573
-20.0768
-20.0301
-23.5201
-23.5916
-23.7106
-23.8728
-24.0667
-24.28
-24.5008
-24.7173
-24.9188
-25.0955
-25.2391
-25.3433
-25.4035
-25.4177
-25.3865
-25.308
-25.1832
-25.0152
-24.8092
-24.5717
-24.3109
-24.0359
-23.757
-23.4844
-23.2284
-22.9989
-22.8048
-22.6535
-22.5502
-22.4913
-25.6021
-25.6995
-25.864
-26.0885
-26.3568
-26.6526
-26.96
-27.2638
-27.55
-27.806
-28.0212
-28.1871
-28.298
-28.3509
-28.3465
-28.2826
-28.1604
-27.9832
-27.7567
-27.4889
-27.1894
-26.8694
-26.5409
-26.2165
-25.9087
-25.6297
-25.3908
-25.2022
-25.0719
-24.9986
-27.6534
-27.7775
-27.9892
-28.2787
-28.6252
-29.0081
-29.4077
-29.8052
-30.1834
-30.5267
-30.822
-31.0586
-31.229
-31.329
-31.3588
-31.3163
-31.2023
-31.0199
-30.7756
-30.4783
-30.139
-29.771
-29.3884
-29.0063
-28.6401
-28.3045
-28.0139
-27.7817
-27.6196
-27.529
-29.644
-29.7949
-30.0546
-30.4105
-30.8374
-31.3107
-31.8066
-32.303
-32.7793
-33.2172
-33.6006
-33.9167
-34.1558
-34.3122
-34.3849
-34.3721
-34.2736
-34.0924
-33.8348
-33.5107
-33.1324
-32.7148
-32.2747
-31.8297
-31.3982
-30.9986
-30.6488
-30.3659
-30.1664
-30.055
-31.5417
-31.7188
-32.026
-32.4485
-32.9564
-33.5213
-34.1158
-34.7142
-35.293
-35.8309
-36.3092
-36.7126
-37.0293
-37.2515
-37.3768
-37.4032
-37.3293
-37.1574
-36.8937
-36.5479
-36.1337
-35.6673
-35.1677
-34.6555
-34.1527
-33.6816
-33.2643
-32.923
-32.6795
-32.5432
-33.3125
-33.5146
-33.8679
-34.3552
-34.9427
-35.5981
-36.2907
-36.9917
-37.6746
-38.3155
-38.8932
-39.3899
-39.7915
-40.0883
-40.2754
-40.351
-40.312
-40.1595
-39.8987
-39.5394
-39.0951
-38.5833
-38.025
-37.4434
-36.8644
-36.3146
-35.8217
-35.4136
-35.1188
-34.9527
-34.9219
-35.1471
-35.5435
-36.0922
-36.7555
-37.4976
-38.2847
-39.0854
-39.8705
-40.6138
-41.2919
-41.8846
-42.3759
-42.7535
-43.0104
-43.1444
-43.1505
-43.0281
-42.7811
-42.4184
-41.9531
-41.4029
-40.7899
-40.1397
-39.4817
-38.8477
-38.2714
-37.7878
-37.4339
-37.2326
-36.335
-36.5805
-37.0161
-37.6207
-38.3534
-39.1753
-40.05
-40.9436
-41.825
-42.6657
-43.4405
-44.1276
-44.7086
-45.1697
-45.5013
-45.6998
-45.759
-45.6765
-45.4544
-45.0999
-44.625
-44.0467
-43.387
-42.6732
-41.9372
-41.2157
-40.5494
-39.9823
-39.5613
-39.319
-37.5176
-37.7801
-38.2494
-38.9028
-39.6962
-40.588
-41.5397
-42.5153
-43.4822
-44.4103
-45.2729
-46.0468
-46.7122
-47.2535
-47.6592
-47.9239
-48.0401
-48.0038
-47.8152
-47.4796
-47.0071
-46.4132
-45.7189
-44.9511
-44.1432
-43.3356
-42.5755
-41.9172
-41.4212
-41.132
-38.4365
-38.7121
-39.209
-39.9026
-40.7457
-41.6947
-42.7093
-43.7521
-44.7891
-45.7893
-46.7252
-47.5722
-48.3099
-48.9212
-49.3934
-49.719
-49.8895
-49.8995
-49.7478
-49.4376
-48.9772
-48.38
-47.6648
-46.8572
-45.9898
-45.1038
-44.2512
-43.4959
-42.9149
-42.5712
-39.0601
-39.3446
-39.8629
-40.5871
-41.4674
-42.4585
-43.5189
-44.6104
-45.6982
-46.7507
-47.7397
-48.6404
-49.4314
-50.0952
-50.6182
-50.9908
-51.2043
-51.2523
-51.1325
-50.8467
-50.4015
-49.8084
-49.0842
-48.2522
-47.3426
-46.395
-45.4611
-44.6095
-43.9323
-43.5205
-39.3858
-39.6801
-40.2169
-40.9634
-41.8691
-42.8876
-43.9769
-45.0985
-46.2171
-47.3009
-48.3214
-49.2534
-50.0755
-50.7699
-51.3225
-51.7225
-51.9609
-52.0313
-51.9305
-51.6596
-51.2241
-50.6344
-49.906
-49.0604
-48.1257
-47.1385
-46.1465
-45.2137
-44.4298
-43.8999
