# vtk DataFile Version 3.0
Malha 2D com triângulos e temperatura
ASCII
DATASET UNSTRUCTURED_GRID

POINTS 900 double
0 0 0
1 0 0
1 1 0
0 1 0
0.0344828 0 0
0.0689655 0 0
0.103448 0 0
0.137931 0 0
0.172414 0 0
0.206897 0 0
0.241379 0 0
0.275862 0 0
0.310345 0 0
0.344828 0 0
0.37931 0 0
0.413793 0 0
0.448276 0 0
0.482759 0 0
0.517241 0 0
0.551724 0 0
0.586207 0 0
0.62069 0 0
0.655172 0 0
0.689655 0 0
0.724138 0 0
0.758621 0 0
0.793103 0 0
0.827586 0 0
0.862069 0 0
0.896552 0 0
0.931034 0 0
0.965517 0 0
1 0.0344828 0
1 0.0689655 0
1 0.103448 0
1 0.137931 0
1 0.172414 0
1 0.206897 0
1 0.241379 0
1 0.275862 0
1 0.310345 0
1 0.344828 0
1 0.37931 0
1 0.413793 0
1 0.448276 0
1 0.482759 0
1 0.517241 0
1 0.551724 0
1 0.586207 0
1 0.62069 0
1 0.655172 0
1 0.689655 0
1 0.724138 0
1 0.758621 0
1 0.793103 0
1 0.827586 0
1 0.862069 0
1 0.896552 0
1 0.931034 0
1 0.965517 0
0.965517 1 0
0.931034 1 0
0.896552 1 0
0.862069 1 0
0.827586 1 0
0.793103 1 0
0.758621 1 0
0.724138 1 0
0.689655 1 0
0.655172 1 0
0.62069 1 0
0.586207 1 0
0.551724 1 0
0.517241 1 0
0.482759 1 0
0.448276 1 0
0.413793 1 0
0.37931 1 0
0.344828 1 0
0.310345 1 0
0.275862 1 0
0.241379 1 0
0.206897 1 0
0.172414 1 0
0.137931 1 0
0.103448 1 0
0.0689655 1 0
0.0344828 1 0
0 0.965517 0
0 0.931034 0
0 0.896552 0
0 0.862069 0
0 0.827586 0
0 0.793103 0
0 0.758621 0
0 0.724138 0
0 0.689655 0
0 0.655172 0
0 0.62069 0
0 0.586207 0
0 0.551724 0
0 0.517241 0
0 0.482759 0
0 0.448276 0
0 0.413793 0
0 0.37931 0
0 0.344828 0
0 0.310345 0
0 0.275862 0
0 0.241379 0
0 0.206897 0
0 0.172414 0
0 0.137931 0
0 0.103448 0
0 0.0689655 0
0 0.0344828 0
0.0344828 0.965517 0
0.0344828 0.931034 0
0.0344828 0.896552 0
0.0344828 0.862069 0
0.0344828 0.827586 0
0.0344828 0.793103 0
0.0344828 0.758621 0
0.0344828 0.724138 0
0.0344828 0.689655 0
0.0344828 0.655172 0
0.0344828 0.62069 0
0.0344828 0.586207 0
0.0344828 0.551724 0
0.0344828 0.517241 0
0.0344828 0.482759 0
0.0344828 0.448276 0
0.0344828 0.413793 0
0.0344828 0.37931 0
0.0344828 0.344828 0
0.0344828 0.310345 0
0.0344828 0.275862 0
0.0344828 0.241379 0
0.0344828 0.206897 0
0.0344828 0.172414 0
0.0344828 0.137931 0
0.0344828 0.103448 0
0.0344828 0.0689655 0
0.0344828 0.0344828 0
0.0689655 0.965517 0
0.0689655 0.931034 0
0.0689655 0.896552 0
0.0689655 0.862069 0
0.0689655 0.827586 0
0.0689655 0.793103 0
0.0689655 0.758621 0
0.0689655 0.724138 0
0.0689655 0.689655 0
0.0689655 0.655172 0
0.0689655 0.62069 0
0.0689655 0.586207 0
0.0689655 0.551724 0
0.0689655 0.517241 0
0.0689655 0.482759 0
0.0689655 0.448276 0
0.0689655 0.413793 0
0.0689655 0.37931 0
0.0689655 0.344828 0
0.0689655 0.310345 0
0.0689655 0.275862 0
0.0689655 0.241379 0
0.0689655 0.206897 0
0.0689655 0.172414 0
0.0689655 0.137931 0
0.0689655 0.103448 0
0.0689655 0.0689655 0
0.0689655 0.0344828 0
0.103448 0.965517 0
0.103448 0.931034 0
0.103448 0.896552 0
0.103448 0.862069 0
0.103448 0.827586 0
0.103448 0.793103 0
0.103448 0.758621 0
0.103448 0.724138 0
0.103448 0.689655 0
0.103448 0.655172 0
0.103448 0.62069 0
0.103448 0.586207 0
0.103448 0.551724 0
0.103448 0.517241 0
0.103448 0.482759 0
0.103448 0.448276 0
0.103448 0.413793 0
0.103448 0.37931 0
0.103448 0.344828 0
0.103448 0.310345 0
0.103448 0.275862 0
0.103448 0.241379 0
0.103448 0.206897 0
0.103448 0.172414 0
0.103448 0.137931 0
0.103448 0.103448 0
0.103448 0.0689655 0
0.103448 0.0344828 0
0.137931 0.965517 0
0.137931 0.931034 0
0.137931 0.896552 0
0.137931 0.862069 0
0.137931 0.827586 0
0.137931 0.793103 0
0.137931 0.758621 0
0.137931 0.724138 0
0.137931 0.689655 0
0.137931 0.655172 0
0.137931 0.62069 0
0.137931 0.586207 0
0.137931 0.551724 0
0.137931 0.517241 0
0.137931 0.482759 0
0.137931 0.448276 0
0.137931 0.413793 0
0.137931 0.37931 0
0.137931 0.344828 0
0.137931 0.310345 0
0.137931 0.275862 0
0.137931 0.241379 0
0.137931 0.206897 0
0.137931 0.172414 0
0.137931 0.137931 0
0.137931 0.103448 0
0.137931 0.0689655 0
0.137931 0.0344828 0
0.172414 0.965517 0
0.172414 0.931034 0
0.172414 0.896552 0
0.172414 0.862069 0
0.172414 0.827586 0
0.172414 0.793103 0
0.172414 0.758621 0
0.172414 0.724138 0
0.172414 0.689655 0
0.172414 0.655172 0
0.172414 0.62069 0
0.172414 0.586207 0
0.172414 0.551724 0
0.172414 0.517241 0
0.172414 0.482759 0
0.172414 0.448276 0
0.172414 0.413793 0
0.172414 0.37931 0
0.172414 0.344828 0
0.172414 0.310345 0
0.172414 0.275862 0
0.172414 0.241379 0
0.172414 0.206897 0
0.172414 0.172414 0
0.172414 0.137931 0
0.172414 0.103448 0
0.172414 0.0689655 0
0.172414 0.0344828 0
0.206897 0.965517 0
0.206897 0.931034 0
0.206897 0.896552 0
0.206897 0.862069 0
0.206897 0.827586 0
0.206897 0.793103 0
0.206897 0.758621 0
0.206897 0.724138 0
0.206897 0.689655 0
0.206897 0.655172 0
0.206897 0.62069 0
0.206897 0.586207 0
0.206897 0.551724 0
0.206897 0.517241 0
0.206897 0.482759 0
0.206897 0.448276 0
0.206897 0.413793 0
0.206897 0.37931 0
0.206897 0.344828 0
0.206897 0.310345 0
0.206897 0.275862 0
0.206897 0.241379 0
0.206897 0.206897 0
0.206897 0.172414 0
0.206897 0.137931 0
0.206897 0.103448 0
0.206897 0.0689655 0
0.206897 0.0344828 0
0.241379 0.965517 0
0.241379 0.931034 0
0.241379 0.896552 0
0.241379 0.862069 0
0.241379 0.827586 0
0.241379 0.793103 0
0.241379 0.758621 0
0.241379 0.724138 0
0.241379 0.689655 0
0.241379 0.655172 0
0.241379 0.62069 0
0.241379 0.586207 0
0.241379 0.551724 0
0.241379 0.517241 0
0.241379 0.482759 0
0.241379 0.448276 0
0.241379 0.413793 0
0.241379 0.37931 0
0.241379 0.344828 0
0.241379 0.310345 0
0.241379 0.275862 0
0.241379 0.241379 0
0.241379 0.206897 0
0.241379 0.172414 0
0.241379 0.137931 0
0.241379 0.103448 0
0.241379 0.0689655 0
0.241379 0.0344828 0
0.275862 0.965517 0
0.275862 0.931034 0
0.275862 0.896552 0
0.275862 0.862069 0
0.275862 0.827586 0
0.275862 0.793103 0
0.275862 0.758621 0
0.275862 0.724138 0
0.275862 0.689655 0
0.275862 0.655172 0
0.275862 0.62069 0
0.275862 0.586207 0
0.275862 0.551724 0
0.275862 0.517241 0
0.275862 0.482759 0
0.275862 0.448276 0
0.275862 0.413793 0
0.275862 0.37931 0
0.275862 0.344828 0
0.275862 0.310345 0
0.275862 0.275862 0
0.275862 0.241379 0
0.275862 0.206897 0
0.275862 0.172414 0
0.275862 0.137931 0
0.275862 0.103448 0
0.275862 0.0689655 0
0.275862 0.0344828 0
0.310345 0.965517 0
0.310345 0.931034 0
0.310345 0.896552 0
0.310345 0.862069 0
0.310345 0.827586 0
0.310345 0.793103 0
0.310345 0.758621 0
0.310345 0.724138 0
0.310345 0.689655 0
0.310345 0.655172 0
0.310345 0.62069 0
0.310345 0.586207 0
0.310345 0.551724 0
0.310345 0.517241 0
0.310345 0.482759 0
0.310345 0.448276 0
0.310345 0.413793 0
0.310345 0.37931 0
0.310345 0.344828 0
0.310345 0.310345 0
0.310345 0.275862 0
0.310345 0.241379 0
0.310345 0.206897 0
0.310345 0.172414 0
0.310345 0.137931 0
0.310345 0.103448 0
0.310345 0.0689655 0
0.310345 0.0344828 0
0.344828 0.965517 0
0.344828 0.931034 0
0.344828 0.896552 0
0.344828 0.862069 0
0.344828 0.827586 0
0.344828 0.793103 0
0.344828 0.758621 0
0.344828 0.724138 0
0.344828 0.689655 0
0.344828 0.655172 0
0.344828 0.62069 0
0.344828 0.586207 0
0.344828 0.551724 0
0.344828 0.517241 0
0.344828 0.482759 0
0.344828 0.448276 0
0.344828 0.413793 0
0.344828 0.37931 0
0.344828 0.344828 0
0.344828 0.310345 0
0.344828 0.275862 0
0.344828 0.241379 0
0.344828 0.206897 0
0.344828 0.172414 0
0.344828 0.137931 0
0.344828 0.103448 0
0.344828 0.0689655 0
0.344828 0.0344828 0
0.37931 0.965517 0
0.37931 0.931034 0
0.37931 0.896552 0
0.37931 0.862069 0
0.37931 0.827586 0
0.37931 0.793103 0
0.37931 0.758621 0
0.37931 0.724138 0
0.37931 0.689655 0
0.37931 0.655172 0
0.37931 0.62069 0
0.37931 0.586207 0
0.37931 0.551724 0
0.37931 0.517241 0
0.37931 0.482759 0
0.37931 0.448276 0
0.37931 0.413793 0
0.37931 0.37931 0
0.37931 0.344828 0
0.37931 0.310345 0
0.37931 0.275862 0
0.37931 0.241379 0
0.37931 0.206897 0
0.37931 0.172414 0
0.37931 0.137931 0
0.37931 0.103448 0
0.37931 0.0689655 0
0.37931 0.0344828 0
0.413793 0.965517 0
0.413793 0.931034 0
0.413793 0.896552 0
0.413793 0.862069 0
0.413793 0.827586 0
0.413793 0.793103 0
0.413793 0.758621 0
0.413793 0.724138 0
0.413793 0.689655 0
0.413793 0.655172 0
0.413793 0.62069 0
0.413793 0.586207 0
0.413793 0.551724 0
0.413793 0.517241 0
0.413793 0.482759 0
0.413793 0.448276 0
0.413793 0.413793 0
0.413793 0.37931 0
0.413793 0.344828 0
0.413793 0.310345 0
0.413793 0.275862 0
0.413793 0.241379 0
0.413793 0.206897 0
0.413793 0.172414 0
0.413793 0.137931 0
0.413793 0.103448 0
0.413793 0.0689655 0
0.413793 0.0344828 0
0.448276 0.965517 0
0.448276 0.931034 0
0.448276 0.896552 0
0.448276 0.862069 0
0.448276 0.827586 0
0.448276 0.793103 0
0.448276 0.758621 0
0.448276 0.724138 0
0.448276 0.689655 0
0.448276 0.655172 0
0.448276 0.62069 0
0.448276 0.586207 0
0.448276 0.551724 0
0.448276 0.517241 0
0.448276 0.482759 0
0.448276 0.448276 0
0.448276 0.413793 0
0.448276 0.37931 0
0.448276 0.344828 0
0.448276 0.310345 0
0.448276 0.275862 0
0.448276 0.241379 0
0.448276 0.206897 0
0.448276 0.172414 0
0.448276 0.137931 0
0.448276 0.103448 0
0.448276 0.0689655 0
0.448276 0.0344828 0
0.482759 0.965517 0
0.482759 0.931034 0
0.482759 0.896552 0
0.482759 0.862069 0
0.482759 0.827586 0
0.482759 0.793103 0
0.482759 0.758621 0
0.482759 0.724138 0
0.482759 0.689655 0
0.482759 0.655172 0
0.482759 0.62069 0
0.482759 0.586207 0
0.482759 0.551724 0
0.482759 0.517241 0
0.482759 0.482759 0
0.482759 0.448276 0
0.482759 0.413793 0
0.482759 0.37931 0
0.482759 0.344828 0
0.482759 0.310345 0
0.482759 0.275862 0
0.482759 0.241379 0
0.482759 0.206897 0
0.482759 0.172414 0
0.482759 0.137931 0
0.482759 0.103448 0
0.482759 0.0689655 0
0.482759 0.0344828 0
0.517241 0.965517 0
0.517241 0.931034 0
0.517241 0.896552 0
0.517241 0.862069 0
0.517241 0.827586 0
0.517241 0.793103 0
0.517241 0.758621 0
0.517241 0.724138 0
0.517241 0.689655 0
0.517241 0.655172 0
0.517241 0.62069 0
0.517241 0.586207 0
0.517241 0.551724 0
0.517241 0.517241 0
0.517241 0.482759 0
0.517241 0.448276 0
0.517241 0.413793 0
0.517241 0.37931 0
0.517241 0.344828 0
0.517241 0.310345 0
0.517241 0.275862 0
0.517241 0.241379 0
0.517241 0.206897 0
0.517241 0.172414 0
0.517241 0.137931 0
0.517241 0.103448 0
[...]
CELL_DATA 841
SCALARS Temperatura double 1
LOOKUP_TABLE default
-0.377956
-0.272836
-0.183048
-0.11394
-0.0617539
-0.0236471
0.00500449
0.0258241
0.041659
0.0530716
0.0617135
0.0676414
0.0717698
0.0739543
0.0746629
0.0737065
0.0713091
0.0673272
0.0618971
0.0549878
0.046773
0.037392
0.0271527
0.0164095
0.00566774
-0.00448128
-0.0133112
-0.0199968
-0.0239098
-0.247087
-0.198062
-0.141923
-0.0899365
-0.0480749
-0.0149543
0.00986356
0.0290761
0.0431839
0.0540692
0.0618298
0.0675921
0.0712283
0.073349
0.073751
0.0727327
0.07011
0.0660327
0.060404
0.0533602
0.0449512
0.0354094
0.0249841
0.014084
0.00319238
-0.0070644
-0.0159682
-0.0226844
-0.0267151
-0.139662
-0.120073
-0.0881653
-0.0545903
-0.0238034
0.00123243
0.0216568
0.0371871
0.0495101
0.0585632
0.0655557
0.0703166
0.0735632
0.0750608
0.0751798
0.0736941
0.0707784
0.0662764
0.0603027
0.0528279
0.0440232
0.0340412
0.0232034
0.0118889
0.00062905
-0.00995534
-0.0191186
-0.0260437
-0.0303016
-0.0549076
-0.0486312
-0.0334023
-0.0131986
0.00639378
0.0243338
0.0389117
0.0511044
0.060391
0.0678562
0.0731761
0.077098
0.0793168
0.080251
0.0796213
0.077627
0.0740538
0.0690047
0.062378
0.0542968
0.0448241
0.0342039
0.0227142
0.0107944
-0.00103246
-0.0121027
-0.021669
-0.028896
-0.0334048
0.0129774
0.011659
0.0178056
0.0277685
0.0397035
0.0507221
0.0609073
0.0691009
0.0760723
0.0812389
0.0852842
0.0877851
0.0891711
0.0890911
0.0877597
0.0849015
0.0806128
0.0747243
0.0673213
0.0583848
0.0480905
0.03662
0.0243236
0.0116241
-0.000903498
-0.0125901
-0.0226508
-0.0302425
-0.0349968
0.0672041
0.0628571
0.0627691
0.0670389
0.0727696
0.0794602
0.0853996
0.0909717
0.0952963
0.0989204
0.101274
0.102756
0.102931
0.102012
0.0996604
0.0959644
0.0906918
0.0838979
0.0754899
0.0655853
0.0542757
0.0418287
0.028566
0.0149702
0.00161794
-0.0107756
-0.0214099
-0.029404
-0.0344019
0.112471
0.105774
0.102968
0.103012
0.105569
0.10865
0.112285
0.115329
0.11816
0.120062
0.121379
0.121588
0.120887
0.118874
0.115629
0.110861
0.104602
0.0966943
0.0872073
0.0761526
0.0637241
0.0501475
0.0358131
0.0211978
0.00692978
-0.00626125
-0.0175297
-0.0259669
-0.0312025
0.150535
0.14345
0.138532
0.13697
0.137112
0.138726
0.140435
0.142407
0.143803
0.144886
0.145062
0.144505
0.142759
0.139893
0.135567
0.129795
0.122364
0.113307
0.102567
0.0902773
0.0765767
0.0617706
0.0462364
0.0305077
0.0152227
0.00115888
-0.0108114
-0.0197276
-0.0252073
0.184515
0.17678
0.171584
0.168828
0.168495
0.169056
0.170392
0.171508
0.172543
0.172843
0.17254
0.171145
0.168709
0.164859
0.159592
0.152656
0.144057
0.133684
0.121622
0.107938
0.092866
0.0766922
0.059858
0.0429026
0.0265137
0.0114907
-0.00124348
-0.0106845
-0.0164156
0.215297
0.208024
0.202532
0.200101
0.199557
0.200498
0.201707
0.203089
0.203894
0.204174
0.203408
0.201623
0.198424
0.193796
0.187459
0.179401
0.169474
0.157727
0.144175
0.128995
0.112398
0.0947456
0.0764835
0.0582036
0.0406111
0.0245522
0.0109849
0.000976167
-0.00502327
0.244777
0.237633
0.232915
0.230878
0.231304
0.23281
0.234935
0.236743
0.238102
0.238436
0.237709
0.235513
0.231808
0.226303
0.218968
0.209635
0.198328
0.18503
0.169877
0.153027
0.13478
0.115503
0.0957039
0.0759898
0.0571109
0.0399388
0.0254819
0.0148612
0.0085794
0.273175
0.266842
0.262814
0.262069
0.263565
0.266508
0.269687
0.272639
0.274651
0.275542
0.274869
0.27254
0.268256
0.261961
0.25348
0.24282
0.229945
0.214968
0.198017
0.179352
0.159287
0.138264
0.116809
0.0955779
0.0753411
0.0570079
0.0416199
0.0303613
0.0237843
0.301213
0.295512
0.292805
0.293391
0.296625
0.301107
0.305929
0.310119
0.313224
0.314702
0.314342
0.311822
0.307036
0.299805
0.290112
0.277919
0.263324
0.246446
0.227525
0.206853
0.184831
0.161935
0.138748
0.115947
0.0943338
0.0748325
0.0585186
0.0466228
0.0397556
0.328415
0.323721
0.32235
0.324732
0.329784
0.336222
0.342756
0.348503
0.352723
0.354974
0.354866
0.352188
0.346746
0.338476
0.327344
0.313429
0.296861
0.277874
0.256766
0.233929
0.209822
0.184988
0.160044
0.135702
0.112769
0.0921788
0.0750134
0.0625379
0.0554108
0.354257
0.350591
0.350815
0.355078
0.362168
0.370605
0.378992
0.386286
0.391673
0.394611
0.394693
0.391677
0.385404
0.375835
0.363014
0.347087
0.32829
0.30695
0.283474
0.258342
0.2321
0.205347
0.178745
0.153013
0.128954
0.107479
0.0896512
0.0767352
0.069426
0.377471
0.374902
0.376828
0.382981
0.392132
0.402483
0.412664
0.421357
0.427773
0.431181
0.431225
0.427574
0.420157
0.408939
0.394084
0.375815
0.354507
0.330597
0.304623
0.277169
0.24887
0.220384
0.192397
0.165621
0.140821
0.11885
0.100705
0.087605
0.0802547
0.396236
0.394933
0.398366
0.406407
0.417241
0.42934
0.44085
0.450672
0.457622
0.461149
0.460636
0.455933
0.446856
0.433565
0.416238
0.395305
0.371231
0.344644
0.316192
0.286595
0.25656
0.226799
0.197993
0.170815
0.145946
0.124126
0.106229
0.0933591
0.0861962
0.408537
0.408155
0.413115
0.42234
0.434532
0.447468
0.459794
0.4698
0.476684
0.479427
0.477732
0.471173
0.459867
0.443887
0.423705
0.399797
0.372892
0.34372
0.313124
0.281902
0.25085
0.22068
0.192044
0.165513
0.141629
0.120949
0.104146
0.092125
0.0854909
0.411454
0.412154
0.417675
0.427601
0.43969
0.452586
0.464131
0.473307
0.478621
0.479589
0.475437
0.466192
0.451741
0.43257
0.409115
0.382212
0.352658
0.321446
0.289485
0.257707
0.2269
0.19776
0.170821
0.146503
0.125121
0.106973
0.0924334
0.0821129
0.0764739
0.40271
0.40346
0.40903
0.417622
0.428264
0.43865
0.447764
0.453711
0.455863
0.453041
0.445158
0.431822
0.413505
0.390529
0.363819
0.334198
0.302816
0.270684
0.238893
0.20833
0.179783
0.153799
0.130749
0.110788
0.0939388
0.0801367
0.0693698
0.0618316
0.0577804
0.379139
0.379731
0.382944
0.388414
0.394101
0.399454
0.4025
0.40271
0.398584
0.389985
0.376203
0.357677
0.334542
0.307778
0.278169
0.246994
0.215325
0.184399
0.155184
0.128572
0.105136
0.0852419
0.0689479
0.0560902
0.0462833
0.0390328
0.0338335
0.0303585
0.0285865
0.339713
0.337884
0.336839
0.334701
0.331906
0.327043
0.320252
0.310089
0.296638
0.278974
0.257579
0.232362
0.204339
0.174167
0.143206
0.112495
0.0833675
0.0567978
0.0337402
0.0147553
0.000200005
-0.00995393
-0.0159991
-0.0185505
-0.0184414
-0.0166878
-0.0143477
-0.0123766
-0.0111267
0.283464
0.277967
0.267739
0.253645
0.235563
0.215232
0.192094
0.167104
0.139537
0.110201
0.0788728
0.0466612
0.0140291
-0.0176447
-0.047483
-0.0741594
-0.0968293
-0.114578
-0.126967
-0.133719
-0.135002
-0.13124
-0.123242
-0.112079
-0.0991114
-0.0858866
-0.0740757
-0.0653152
-0.060341
0.214456
0.201065
0.177288
0.14323
0.103262
0.0590254
0.0135397
-0.0327959
-0.0781814
-0.122572
-0.164538
-0.203766
-0.238875
-0.269286
-0.293815
-0.311944
-0.322965
-0.32675
-0.323242
-0.312878
-0.296291
-0.27452
-0.24884
-0.22086
-0.192422
-0.165623
-0.142725
-0.126084
-0.116827
0.1397
0.115499
0.0701194
0.00886969
-0.0628431
-0.138177
-0.214018
-0.28634
-0.353957
-0.414544
-0.467641
-0.511744
-0.546617
-0.57134
-0.585928
-0.590092
-0.584256
-0.568796
-0.544617
-0.51271
-0.474456
-0.431382
-0.385327
-0.338326
-0.2927
-0.251005
-0.216069
-0.190926
-0.177105
0.0762139
0.0347118
-0.038936
-0.137665
-0.248563
-0.363504
-0.47438
-0.577411
-0.66836
-0.745932
-0.808101
-0.854798
-0.885351
-0.900426
-0.900326
-0.886261
-0.859266
-0.820955
-0.77287
-0.716908
-0.654963
-0.589172
-0.521752
-0.45516
-0.392046
-0.335371
-0.288412
-0.254839
-0.236547
0.0476799
-0.017045
-0.129322
-0.272428
-0.430009
-0.58744
-0.736515
-0.869758
-0.984016
-1.07601
-1.14535
-1.19128
-1.21502
-1.21741
-1.20057
-1.1663
-1.11712
-1.05528
-0.983381
-0.903833
-0.819192
-0.731927
-0.644648
-0.560034
-0.481012
-0.410791
-0.353023
-0.31189
-0.289675
0.0861175
-0.0177617
-0.177192
-0.370394
-0.573225
-0.771521
-0.953586
-1.11353
-1.24604
-1.34962
-1.42287
-1.46697
-1.483
-1.47368
-1.44147
-1.38973
-1.32146
-1.24002
-1.14844
-1.04979
-0.946907
-0.842635
-0.739726
-0.641062
-0.549676
-0.468959
-0.402782
-0.355738
-0.330565
0.202836
0.0329848
-0.182725
-0.419582
-0.658947
-0.885784
-1.09167
-1.26883
-1.41411
-1.52459
-1.60072
-1.64299
-1.65415
-1.63678
-1.59471
-1.53145
-1.45099
-1.35689
-1.25282
-1.14199
-1.0276
-0.912566
-0.799814
-0.692256
-0.593017
-0.505528
-0.433777
-0.382527
-0.355141
