# vtk DataFile Version 3.0
Malha 2D com triângulos e temperatura
ASCII
DATASET UNSTRUCTURED_GRID

POINTS 900 double
0 0 0
0.01 0 0
0.01 0.01 0
0 0.01 0
0.000344828 0 0
0.000689655 0 0
0.00103448 0 0
0.00137931 0 0
0.00172414 0 0
0.00206897 0 0
0.00241379 0 0
0.00275862 0 0
0.00310345 0 0
0.00344828 0 0
0.0037931 0 0
0.00413793 0 0
0.00448276 0 0
0.00482759 0 0
0.00517241 0 0
0.00551724 0 0
0.00586207 0 0
0.0062069 0 0
0.00655172 0 0
0.00689655 0 0
0.00724138 0 0
0.00758621 0 0
0.00793103 0 0
0.00827586 0 0
0.00862069 0 0
0.00896552 0 0
0.00931034 0 0
0.00965517 0 0
0.01 0.000344828 0
0.01 0.000689655 0
0.01 0.00103448 0
0.01 0.00137931 0
0.01 0.00172414 0
0.01 0.00206897 0
0.01 0.00241379 0
0.01 0.00275862 0
0.01 0.00310345 0
0.01 0.00344828 0
0.01 0.0037931 0
0.01 0.00413793 0
0.01 0.00448276 0
0.01 0.00482759 0
0.01 0.00517241 0
0.01 0.00551724 0
0.01 0.00586207 0
0.01 0.0062069 0
0.01 0.00655172 0
0.01 0.00689655 0
0.01 0.00724138 0
0.01 0.00758621 0
0.01 0.00793103 0
0.01 0.00827586 0
0.01 0.00862069 0
0.01 0.00896552 0
0.01 0.00931034 0
0.01 0.00965517 0
0.00965517 0.01 0
0.00931034 0.01 0
0.00896552 0.01 0
0.00862069 0.01 0
0.00827586 0.01 0
0.00793103 0.01 0
0.00758621 0.01 0
0.00724138 0.01 0
0.00689655 0.01 0
0.00655172 0.01 0
0.0062069 0.01 0
0.00586207 0.01 0
0.00551724 0.01 0
0.00517241 0.01 0
0.00482759 0.01 0
0.00448276 0.01 0
0.00413793 0.01 0
0.0037931 0.01 0
0.00344828 0.01 0
0.00310345 0.01 0
0.00275862 0.01 0
0.00241379 0.01 0
0.00206897 0.01 0
0.00172414 0.01 0
0.00137931 0.01 0
0.00103448 0.01 0
0.000689655 0.01 0
0.000344828 0.01 0
0 0.00965517 0
0 0.00931034 0
0 0.00896552 0
0 0.00862069 0
0 0.00827586 0
0 0.00793103 0
0 0.00758621 0
0 0.00724138 0
0 0.00689655 0
0 0.00655172 0
0 0.0062069 0
0 0.00586207 0
0 0.00551724 0
0 0.00517241 0
0 0.00482759 0
0 0.00448276 0
0 0.00413793 0
0 0.0037931 0
0 0.00344828 0
0 0.00310345 0
0 0.00275862 0
0 0.00241379 0
0 0.00206897 0
0 0.00172414 0
0 0.00137931 0
0 0.00103448 0
0 0.000689655 0
0 0.000344828 0
0.000344828 0.00965517 0
0.000344828 0.00931034 0
0.000344828 0.00896552 0
0.000344828 0.00862069 0
0.000344828 0.00827586 0
0.000344828 0.00793103 0
0.000344828 0.00758621 0
0.000344828 0.00724138 0
0.000344828 0.00689655 0
0.000344828 0.00655172 0
0.000344828 0.0062069 0
0.000344828 0.00586207 0
0.000344828 0.00551724 0
0.000344828 0.00517241 0
0.000344828 0.00482759 0
0.000344828 0.00448276 0
0.000344828 0.00413793 0
0.000344828 0.0037931 0
0.000344828 0.00344828 0
0.000344828 0.00310345 0
0.000344828 0.00275862 0
0.000344828 0.00241379 0
0.000344828 0.00206897 0
0.000344828 0.00172414 0
0.000344828 0.00137931 0
0.000344828 0.00103448 0
0.000344828 0.000689655 0
0.000344828 0.000344828 0
0.000689655 0.00965517 0
0.000689655 0.00931034 0
0.000689655 0.00896552 0
0.000689655 0.00862069 0
0.000689655 0.00827586 0
0.000689655 0.00793103 0
0.000689655 0.00758621 0
0.000689655 0.00724138 0
0.000689655 0.00689655 0
0.000689655 0.00655172 0
0.000689655 0.0062069 0
0.000689655 0.00586207 0
0.000689655 0.00551724 0
0.000689655 0.00517241 0
0.000689655 0.00482759 0
0.000689655 0.00448276 0
0.000689655 0.00413793 0
0.000689655 0.0037931 0
0.000689655 0.00344828 0
0.000689655 0.00310345 0
0.000689655 0.00275862 0
0.000689655 0.00241379 0
0.000689655 0.00206897 0
0.000689655 0.00172414 0
0.000689655 0.00137931 0
0.000689655 0.00103448 0
0.000689655 0.000689655 0
0.000689655 0.000344828 0
0.00103448 0.00965517 0
0.00103448 0.00931034 0
0.00103448 0.00896552 0
0.00103448 0.00862069 0
0.00103448 0.00827586 0
0.00103448 0.00793103 0
0.00103448 0.00758621 0
0.00103448 0.00724138 0
0.00103448 0.00689655 0
0.00103448 0.00655172 0
0.00103448 0.0062069 0
0.00103448 0.00586207 0
0.00103448 0.00551724 0
0.00103448 0.00517241 0
0.00103448 0.00482759 0
0.00103448 0.00448276 0
0.00103448 0.00413793 0
0.00103448 0.0037931 0
0.00103448 0.00344828 0
0.00103448 0.00310345 0
0.00103448 0.00275862 0
0.00103448 0.00241379 0
0.00103448 0.00206897 0
0.00103448 0.00172414 0
0.00103448 0.00137931 0
0.00103448 0.00103448 0
0.00103448 0.000689655 0
0.00103448 0.000344828 0
0.00137931 0.00965517 0
0.00137931 0.00931034 0
0.00137931 0.00896552 0
0.00137931 0.00862069 0
0.00137931 0.00827586 0
0.00137931 0.00793103 0
0.00137931 0.00758621 0
0.00137931 0.00724138 0
0.00137931 0.00689655 0
0.00137931 0.00655172 0
0.00137931 0.0062069 0
0.00137931 0.00586207 0
0.00137931 0.00551724 0
0.00137931 0.00517241 0
0.00137931 0.00482759 0
0.00137931 0.00448276 0
0.00137931 0.00413793 0
0.00137931 0.0037931 0
0.00137931 0.00344828 0
0.00137931 0.00310345 0
0.00137931 0.00275862 0
0.00137931 0.00241379 0
0.00137931 0.00206897 0
0.00137931 0.00172414 0
0.00137931 0.00137931 0
0.00137931 0.00103448 0
0.00137931 0.000689655 0
0.00137931 0.000344828 0
0.00172414 0.00965517 0
0.00172414 0.00931034 0
0.00172414 0.00896552 0
0.00172414 0.00862069 0
0.00172414 0.00827586 0
0.00172414 0.00793103 0
0.00172414 0.00758621 0
0.00172414 0.00724138 0
0.00172414 0.00689655 0
0.00172414 0.00655172 0
0.00172414 0.0062069 0
0.00172414 0.00586207 0
0.00172414 0.00551724 0
0.00172414 0.00517241 0
0.00172414 0.00482759 0
0.00172414 0.00448276 0
0.00172414 0.00413793 0
0.00172414 0.0037931 0
0.00172414 0.00344828 0
0.00172414 0.00310345 0
0.00172414 0.00275862 0
0.00172414 0.00241379 0
0.00172414 0.00206897 0
0.00172414 0.00172414 0
0.00172414 0.00137931 0
0.00172414 0.00103448 0
0.00172414 0.000689655 0
0.00172414 0.000344828 0
0.00206897 0.00965517 0
0.00206897 0.00931034 0
0.00206897 0.00896552 0
0.00206897 0.00862069 0
0.00206897 0.00827586 0
0.00206897 0.00793103 0
0.00206897 0.00758621 0
0.00206897 0.00724138 0
0.00206897 0.00689655 0
0.00206897 0.00655172 0
0.00206897 0.0062069 0
0.00206897 0.00586207 0
0.00206897 0.00551724 0
0.00206897 0.00517241 0
0.00206897 0.00482759 0
0.00206897 0.00448276 0
0.00206897 0.00413793 0
0.00206897 0.0037931 0
0.00206897 0.00344828 0
0.00206897 0.00310345 0
0.00206897 0.00275862 0
0.00206897 0.00241379 0
0.00206897 0.00206897 0
0.00206897 0.00172414 0
0.00206897 0.00137931 0
0.00206897 0.00103448 0
0.00206897 0.000689655 0
0.00206897 0.000344828 0
0.00241379 0.00965517 0
0.00241379 0.00931034 0
0.00241379 0.00896552 0
0.00241379 0.00862069 0
0.00241379 0.00827586 0
0.00241379 0.00793103 0
0.00241379 0.00758621 0
0.00241379 0.00724138 0
0.00241379 0.00689655 0
0.00241379 0.00655172 0
0.00241379 0.0062069 0
0.00241379 0.00586207 0
0.00241379 0.00551724 0
0.00241379 0.00517241 0
0.00241379 0.00482759 0
0.00241379 0.00448276 0
0.00241379 0.00413793 0
0.00241379 0.0037931 0
0.00241379 0.00344828 0
0.00241379 0.00310345 0
0.00241379 0.00275862 0
0.00241379 0.00241379 0
0.00241379 0.00206897 0
0.00241379 0.00172414 0
0.00241379 0.00137931 0
0.00241379 0.00103448 0
0.00241379 0.000689655 0
0.00241379 0.000344828 0
0.00275862 0.00965517 0
0.00275862 0.00931034 0
0.00275862 0.00896552 0
0.00275862 0.00862069 0
0.00275862 0.00827586 0
0.00275862 0.00793103 0
0.00275862 0.00758621 0
0.00275862 0.00724138 0
0.00275862 0.00689655 0
0.00275862 0.00655172 0
0.00275862 0.0062069 0
0.00275862 0.00586207 0
0.00275862 0.00551724 0
0.00275862 0.00517241 0
0.00275862 0.00482759 0
0.00275862 0.00448276 0
0.00275862 0.00413793 0
0.00275862 0.0037931 0
0.00275862 0.00344828 0
0.00275862 0.00310345 0
0.00275862 0.00275862 0
0.00275862 0.00241379 0
0.00275862 0.00206897 0
0.00275862 0.00172414 0
0.00275862 0.00137931 0
0.00275862 0.00103448 0
0.00275862 0.000689655 0
0.00275862 0.000344828 0
0.00310345 0.00965517 0
0.00310345 0.00931034 0
0.00310345 0.00896552 0
0.00310345 0.00862069 0
0.00310345 0.00827586 0
0.00310345 0.00793103 0
0.00310345 0.00758621 0
0.00310345 0.00724138 0
0.00310345 0.00689655 0
0.00310345 0.00655172 0
0.00310345 0.0062069 0
0.00310345 0.00586207 0
0.00310345 0.00551724 0
0.00310345 0.00517241 0
0.00310345 0.00482759 0
0.00310345 0.00448276 0
0.00310345 0.00413793 0
0.00310345 0.0037931 0
0.00310345 0.00344828 0
0.00310345 0.00310345 0
0.00310345 0.00275862 0
0.00310345 0.00241379 0
0.00310345 0.00206897 0
0.00310345 0.00172414 0
0.00310345 0.00137931 0
0.00310345 0.00103448 0
0.00310345 0.000689655 0
0.00310345 0.000344828 0
0.00344828 0.00965517 0
0.00344828 0.00931034 0
0.00344828 0.00896552 0
0.00344828 0.00862069 0
0.00344828 0.00827586 0
0.00344828 0.00793103 0
0.00344828 0.00758621 0
0.00344828 0.00724138 0
0.00344828 0.00689655 0
0.00344828 0.00655172 0
0.00344828 0.0062069 0
0.00344828 0.00586207 0
0.00344828 0.00551724 0
0.00344828 0.00517241 0
0.00344828 0.00482759 0
0.00344828 0.00448276 0
0.00344828 0.00413793 0
0.00344828 0.0037931 0
0.00344828 0.00344828 0
0.00344828 0.00310345 0
0.00344828 0.00275862 0
0.00344828 0.00241379 0
0.00344828 0.00206897 0
0.00344828 0.00172414 0
0.00344828 0.00137931 0
0.00344828 0.00103448 0
0.00344828 0.000689655 0
0.00344828 0.000344828 0
0.0037931 0.00965517 0
0.0037931 0.00931034 0
0.0037931 0.00896552 0
0.0037931 0.00862069 0
0.0037931 0.00827586 0
0.0037931 0.00793103 0
0.0037931 0.00758621 0
0.0037931 0.00724138 0
0.0037931 0.00689655 0
0.0037931 0.00655172 0
0.0037931 0.0062069 0
0.0037931 0.00586207 0
0.0037931 0.00551724 0
0.0037931 0.00517241 0
0.0037931 0.00482759 0
0.0037931 0.00448276 0
0.0037931 0.00413793 0
0.0037931 0.0037931 0
0.0037931 0.00344828 0
0.0037931 0.00310345 0
0.0037931 0.00275862 0
0.0037931 0.00241379 0
0.0037931 0.00206897 0
0.0037931 0.00172414 0
0.0037931 0.00137931 0
0.0037931 0.00103448 0
0.0037931 0.000689655 0
0.0037931 0.000344828 0
0.00413793 0.00965517 0
0.00413793 0.00931034 0
0.00413793 0.00896552 0
0.00413793 0.00862069 0
0.00413793 0.00827586 0
0.00413793 0.00793103 0
0.00413793 0.00758621 0
0.00413793 0.00724138 0
0.00413793 0.00689655 0
0.00413793 0.00655172 0
0.00413793 0.0062069 0
0.00413793 0.00586207 0
0.00413793 0.00551724 0
0.00413793 0.00517241 0
0.00413793 0.00482759 0
0.00413793 0.00448276 0
0.00413793 0.00413793 0
0.00413793 0.0037931 0
0.00413793 0.00344828 0
0.00413793 0.00310345 0
0.00413793 0.00275862 0
0.00413793 0.00241379 0
0.00413793 0.00206897 0
0.00413793 0.00172414 0
[...]
CELL_DATA 841
SCALARS Temperatura double 1
LOOKUP_TABLE default
-0.0688622
-0.040677
-0.024999
-0.0170758
-0.0123974
-0.00937506
-0.00731986
-0.00585585
-0.0047741
-0.00395456
-0.00332354
-0.00283342
-0.00245281
-0.00216158
-0.00194779
-0.00180586
-0.00173364
-0.00172728
-0.00177848
-0.00187382
-0.00199498
-0.00212151
-0.00223744
-0.00233505
-0.00241221
-0.00246923
-0.00250793
-0.00253215
-0.00254844
-0.0365372
-0.0283208
-0.0211745
-0.0157796
-0.0119444
-0.00925095
-0.00732173
-0.00590143
-0.00483117
-0.00401022
-0.00337229
-0.00287267
-0.00248103
-0.00217736
-0.00194921
-0.00178992
-0.00169649
-0.00166561
-0.00169096
-0.00176264
-0.00186664
-0.00198558
-0.00210498
-0.00221638
-0.00231431
-0.00239492
-0.00245619
-0.00249929
-0.0025305
-0.0206943
-0.0196155
-0.0168172
-0.0135452
-0.0107476
-0.00858374
-0.00693173
-0.00566093
-0.00467375
-0.00389914
-0.00328559
-0.00279604
-0.0024042
-0.00209219
-0.00184897
-0.00166885
-0.00154959
-0.00149047
-0.00148818
-0.00153748
-0.00162933
-0.00174885
-0.00188112
-0.00201604
-0.0021452
-0.00226057
-0.00235566
-0.00242756
-0.0024801
-0.013845
-0.014183
-0.0130714
-0.0112118
-0.00929583
-0.00765295
-0.00631402
-0.0052349
-0.00436635
-0.00366485
-0.00309463
-0.00262773
-0.00224335
-0.00192696
-0.00166976
-0.00146785
-0.00132053
-0.00123
-0.00119649
-0.00122052
-0.00129975
-0.00142296
-0.00157418
-0.00174022
-0.00190898
-0.00206789
-0.00220534
-0.00231292
-0.00239029
-0.0101531
-0.010523
-0.0101831
-0.00916946
-0.00788492
-0.00666723
-0.0056113
-0.00472026
-0.00397599
-0.00335531
-0.00283545
-0.00239685
-0.00202424
-0.00170694
-0.00143884
-0.00121785
-0.00104483
-0.000923079
-0.000857093
-0.000853209
-0.000916898
-0.00104235
-0.00121342
-0.0014133
-0.00162545
-0.00183219
-0.00201616
-0.00216235
-0.00226512
-0.00776545
-0.00800238
-0.00799262
-0.00744892
-0.00659701
-0.00570625
-0.0048859
-0.00416204
-0.00353432
-0.00299276
-0.00252418
-0.00211585
-0.00175757
-0.00144253
-0.00116746
-0.000932222
-0.000738685
-0.000589425
-0.000493717
-0.000462431
-0.000508996
-0.000634325
-0.000823635
-0.00105697
-0.00131296
-0.00156854
-0.00180022
-0.00198553
-0.00211279
-0.00605053
-0.00620095
-0.00628366
-0.00600118
-0.00544848
-0.0048029
-0.00417027
-0.00358705
-0.00306189
-0.00259257
-0.00217235
-0.00179382
-0.00145109
-0.00114092
-0.00086273
-0.000618156
-0.000409554
-0.000238963
-0.000118436
-6.26567e-05
-9.25892e-05
-0.000216496
-0.000422347
-0.00068765
-0.000986363
-0.00129012
-0.00156923
-0.00179314
-0.00194339
-0.0047407
-0.00483982
-0.00492316
-0.00479132
-0.00443853
-0.00397015
-0.00348181
-0.00301217
-0.00257317
-0.00216651
-0.00178954
-0.00143871
-0.00111168
-0.000808244
-0.000530165
-0.000280487
-6.20966e-05
0.000122908
0.00026355
0.000339701
0.000323902
0.000200942
-2.07293e-05
-0.00031667
-0.000656668
-0.00100759
-0.00133371
-0.00159569
-0.0017676
-0.00369603
-0.00376289
-0.00382797
-0.00377989
-0.00355193
-0.00320693
-0.00282652
-0.00244597
-0.00207705
-0.00172291
-0.00138323
-0.00105721
-0.000745272
-0.000449654
-0.000173985
7.75318e-05
0.000301304
0.000495277
0.000651772
0.000743157
0.00073691
0.000612299
0.000374224
4.83612e-05
-0.000331882
-0.000729475
-0.00110287
-0.00140315
-0.00159603
-0.00283595
-0.00288149
-0.00292843
-0.0029198
-0.00276463
-0.00250406
-0.00220342
-0.00189174
-0.00157887
-0.00126791
-0.000959715
-0.000655336
-0.00035727
-6.95976e-05
0.000202661
0.000454356
0.000681135
0.00088076
0.00104755
0.00114823
0.00114525
0.00101425
0.000757798
0.000401939
-1.8253e-05
-0.000462993
-0.000885064
-0.001225
-0.00143917
-0.00211067
-0.00214028
-0.00216947
-0.00216897
-0.00205262
-0.00185028
-0.00160904
-0.00135081
-0.00108277
-0.000807161
-0.000525233
-0.000239219
4.69109e-05
0.000327736
0.00059721
0.000849323
0.00107864
0.00128128
0.00145065
0.00155379
0.00154683
0.0014034
0.00112573
0.00073916
0.00027846
-0.000215043
-0.000688386
-0.00107042
-0.00130728
-0.0014842
-0.00149958
-0.00150915
-0.00149626
-0.00139862
-0.00123739
-0.00104165
-0.000825972
-0.000594501
-0.000348049
-8.76988e-05
0.000183642
0.000460937
0.000737703
0.00100701
0.00126178
0.00149474
0.00169826
0.00186127
0.00195565
0.00193564
0.0017738
0.00147238
0.00105415
0.000551657
6.81894e-06
-0.000521167
-0.000948331
-0.00121029
-0.000927739
-0.000929531
-0.000917876
-0.000882709
-0.000793454
-0.000663158
-0.000504788
-0.000325083
-0.000124665
9.74711e-05
0.000340814
0.000602132
0.000875509
0.00115343
0.00142783
0.00168989
0.00192961
0.00213449
0.00228596
0.00235753
0.00231143
0.00212252
0.00179232
0.00133931
0.000792397
0.000193249
-0.000392405
-0.000867229
-0.00115706
-0.000416091
-0.000405197
-0.000373101
-0.000313684
-0.000228372
-0.000125226
-1.89478e-06
0.000144343
0.000316953
0.000518681
0.000749441
0.00100564
0.00128079
0.00156659
0.00185314
0.00212838
0.00237868
0.00258658
0.00272726
0.00277119
0.00268864
0.00246065
0.00208879
0.00158928
0.000989611
0.000331968
-0.000312372
-0.000834736
-0.00115397
7.78597e-05
0.000101208
0.000151534
0.000232372
0.000314208
0.000391183
0.000480265
0.000594486
0.000741637
0.000925992
0.00114756
0.0014022
0.00168257
0.00197869
0.00227822
0.00256708
0.00282826
0.00303895
0.00317045
0.00319041
0.00307073
0.00279625
0.00236822
0.00180337
0.00113374
0.00040878
-0.000292941
-0.000857165
-0.00120364
0.000581182
0.000617524
0.000683599
0.000780306
0.000854246
0.000902389
0.00095514
0.00103508
0.00115458
0.00132002
0.00153174
0.00178466
0.00206962
0.00237413
0.00268313
0.00298089
0.0032484
0.00345941
0.00358171
0.00358041
0.00342638
0.00310361
0.00261193
0.00196916
0.00121422
0.000411214
-0.000344763
-0.000938982
-0.0013053
0.00111223
0.00116097
0.00124028
0.00134644
0.00140413
0.00141605
0.00142614
0.00146481
0.00154835
0.0016854
0.00187764
0.00212015
0.00240266
0.00271035
0.00302472
0.00332589
0.00359337
0.00379962
0.0039094
0.00388583
0.00369708
0.00332531
0.00277003
0.00205037
0.0012103
0.000330103
-0.000471293
-0.00108194
-0.00145918
0.00168686
0.00174746
0.00183827
0.00194414
0.00197255
0.00193613
0.00189329
0.00188043
0.00191687
0.00201311
0.00217219
0.00239005
0.00265609
0.00295392
0.00326222
0.00355698
0.00381426
0.00400552
0.00409446
0.00404221
0.00381554
0.00339628
0.00278462
0.00200135
0.00109485
0.000159694
-0.000667816
-0.00128313
-0.00166526
0.00232804
0.00240323
0.0025047
0.00259209
0.00257035
0.00246774
0.00235677
0.00227844
0.00225415
0.0022957
0.00240703
0.00258457
0.00281753
0.00308829
0.00337329
0.00364492
0.00387482
0.00403327
0.0040843
0.00399032
0.00372149
0.00326109
0.00260967
0.00178872
0.000850403
-0.000100777
-0.000926252
-0.00153408
-0.00191669
0.00306269
0.00315917
0.00327166
0.00331494
0.00321404
0.00302179
0.00282329
0.00266274
0.00256237
0.00253428
0.00258249
0.00270335
0.00288552
0.00311016
0.00335159
0.00357893
0.00375921
0.00386024
0.00384832
0.00369505
0.00338088
0.00289202
0.00222677
0.00140478
0.000479612
-0.000442616
-0.00123509
-0.00181976
-0.00219471
0.00392503
0.00405518
0.00417908
0.00414403
0.00392422
0.00361166
0.00330204
0.00304015
0.00284735
0.00273456
0.00270472
0.0027532
0.0028676
0.00302765
0.0032056
0.00336757
0.00347602
0.00349491
0.00339657
0.00317118
0.00281338
0.00231252
0.00166229
0.000878309
1.15205e-05
-0.000841464
-0.00157367
-0.00211703
-0.00246952
0.00496316
0.00514737
0.00527594
0.00511428
0.00472111
0.00424931
0.00380082
0.0034167
0.00311491
0.00290328
0.00278211
0.00274473
0.00277707
0.00285732
0.00295607
0.00303721
0.00305974
0.00298531
0.00279851
0.00250625
0.00211407
0.00161513
0.00100081
0.000282255
-0.000496828
-0.00125709
-0.00191141
-0.00239689
-0.002709
0.00625512
0.00652343
0.0066162
0.00625585
0.00561944
0.00494167
0.00432303
0.00379499
0.00336863
0.00304607
0.00282312
0.00268984
0.00263001
0.00262048
0.0026311
0.0026253
0.00256219
0.00240733
0.00215595
0.00182017
0.00140971
0.000921408
0.000349553
-0.000296948
-0.00098304
-0.00164668
-0.00221644
-0.00263303
-0.00289098
0.00794382
0.00834112
0.00827018
0.00758354
0.00662213
0.00568669
0.00486482
0.00417219
0.00360827
0.0031661
0.00283482
0.00260001
0.00244291
0.00233948
0.00226016
0.00217044
0.00203412
0.00182512
0.00154078
0.00118947
0.000778609
0.000308096
-0.000222858
-0.000804146
-0.00140634
-0.00198029
-0.00246696
-0.00281187
-0.00301084
0.0102651
0.0108375
0.0103507
0.00911784
0.00772308
0.00647121
0.00541304
0.00453859
0.00382887
0.00326349
0.00282246
0.00248568
0.00223157
0.00203577
0.00187068
0.00170619
0.00151301
0.00127268
0.000978387
0.000631718
0.000235499
-0.000209156
-0.000699242
-0.00122248
-0.00175195
-0.00224665
-0.0026573
-0.00293559
-0.00307876
0.0136135
0.0142926
0.0129802
0.0108747
0.00889997
0.0072662
0.00594313
0.00487715
0.00402107
0.003336
0.00279031
0.00235719
0.00201206
0.00173072
0.00148852
0.00126112
0.00102569
0.000766915
0.000474083
0.000142559
-0.000229703
-0.000642846
-0.00109148
-0.00156115
-0.00202654
-0.00245202
-0.00279615
-0.00301763
-0.00311382
0.019265
0.0190985
0.0161607
0.0127857
0.0100771
0.00800718
0.00640806
0.00515697
0.00416718
0.00337661
0.00274028
0.00222416
0.00180076
0.00144629
0.0011394
0.000860846
0.000593312
0.000321612
3.27359e-05
-0.000282457
-0.000629668
-0.00101055
-0.00141959
-0.00184136
-0.00225053
-0.0026152
-0.00290156
-0.00307649
-0.00313778
0.0325304
0.0261783
0.0196013
0.0145341
0.0110163
0.00852707
0.00669531
0.00530382
0.00421949
0.00335678
0.00265848
0.00208448
0.0016051
0.00119739
0.00084283
0.000526369
0.000234936
-4.60729e-05
-0.000331099
-0.000632472
-0.000958904
-0.00131342
-0.00169051
-0.00207439
-0.00243997
-0.00275708
-0.00299601
-0.00313233
-0.00317019
0.0608357
0.0352499
0.0221936
0.0154014
0.0113154
0.00859818
0.00667003
0.00523427
0.00412486
0.00324257
0.00252417
0.00192707
0.00142137
0.000985635
0.00060448
0.000267024
-3.62062e-05
-0.000318162
-0.000594458
-0.000880839
-0.00118968
-0.00152628
-0.0018855
-0.0022503
-0.00259375
-0.00288408
-0.00309178
-0.00319752
-0.00321557
