# vtk DataFile Version 3.0
Malha 2D com triângulos e temperatura
ASCII
DATASET UNSTRUCTURED_GRID

POINTS 121 double
0 0 0
1 0 0
1 1 0
0 1 0
0.1 0 0
0.2 0 0
0.3 0 0
0.4 0 0
0.5 0 0
0.6 0 0
0.7 0 0
0.8 0 0
0.9 0 0
1 0.1 0
1 0.2 0
1 0.3 0
1 0.4 0
1 0.5 0
1 0.6 0
1 0.7 0
1 0.8 0
1 0.9 0
0.9 1 0
0.8 1 0
0.7 1 0
0.6 1 0
0.5 1 0
0.4 1 0
0.3 1 0
0.2 1 0
0.1 1 0
0 0.9 0
0 0.8 0
0 0.7 0
0 0.6 0
0 0.5 0
0 0.4 0
0 0.3 0
0 0.2 0
0 0.1 0
0.1 0.1 0
0.1 0.2 0
0.1 0.3 0
0.1 0.4 0
0.1 0.5 0
0.1 0.6 0
0.1 0.7 0
0.1 0.8 0
0.1 0.9 0
0.2 0.1 0
0.2 0.2 0
0.2 0.3 0
0.2 0.4 0
0.2 0.5 0
0.2 0.6 0
0.2 0.7 0
0.2 0.8 0
0.2 0.9 0
0.3 0.1 0
0.3 0.2 0
0.3 0.3 0
0.3 0.4 0
0.3 0.5 0
0.3 0.6 0
0.3 0.7 0
0.3 0.8 0
0.3 0.9 0
0.4 0.1 0
0.4 0.2 0
0.4 0.3 0
0.4 0.4 0
0.4 0.5 0
0.4 0.6 0
0.4 0.7 0
0.4 0.8 0
0.4 0.9 0
0.5 0.1 0
0.5 0.2 0
0.5 0.3 0
0.5 0.4 0
0.5 0.5 0
0.5 0.6 0
0.5 0.7 0
0.5 0.8 0
0.5 0.9 0
0.6 0.1 0
0.6 0.2 0
0.6 0.3 0
0.6 0.4 0
0.6 0.5 0
0.6 0.6 0
0.6 0.7 0
0.6 0.8 0
0.6 0.9 0
0.7 0.1 0
0.7 0.2 0
0.7 0.3 0
0.7 0.4 0
0.7 0.5 0
0.7 0.6 0
0.7 0.7 0
0.7 0.8 0
0.7 0.9 0
0.8 0.1 0
0.8 0.2 0
0.8 0.3 0
0.8 0.4 0
0.8 0.5 0
0.8 0.6 0
0.8 0.7 0
0.8 0.8 0
0.8 0.9 0
0.9 0.1 0
0.9 0.2 0
0.9 0.3 0
0.9 0.4 0
0.9 0.5 0
0.9 0.6 0
0.9 0.7 0
0.9 0.8 0
0.9 0.9 0

CELLS 200 800
3 0 4 39
3 39 4 40
3 39 40 38
3 38 40 41
3 38 41 37
3 37 41 42
3 37 42 36
3 36 42 43
3 36 43 35
3 35 43 44
3 35 44 34
3 34 44 45
3 34 45 33
3 33 45 46
3 33 46 32
3 32 46 47
3 32 47 31
3 31 47 48
3 31 48 3
3 3 48 30
3 4 5 40
3 40 5 49
3 40 49 41
3 41 49 50
3 41 50 42
3 42 50 51
3 42 51 43
3 43 51 52
3 43 52 44
3 44 52 53
3 44 53 45
3 45 53 54
3 45 54 46
3 46 54 55
3 46 55 47
3 47 55 56
3 47 56 48
3 48 56 57
3 48 57 30
3 30 57 29
3 5 6 49
3 49 6 58
3 49 58 50
3 50 58 59
3 50 59 51
3 51 59 60
3 51 60 52
3 52 60 61
3 52 61 53
3 53 61 62
3 53 62 54
3 54 62 63
3 54 63 55
3 55 63 64
3 55 64 56
3 56 64 65
3 56 65 57
3 57 65 66
3 57 66 29
3 29 66 28
3 6 7 58
3 58 7 67
3 58 67 59
3 59 67 68
3 59 68 60
3 60 68 69
3 60 69 61
3 61 69 70
3 61 70 62
3 62 70 71
3 62 71 63
3 63 71 72
3 63 72 64
3 64 72 73
3 64 73 65
3 65 73 74
3 65 74 66
3 66 74 75
3 66 75 28
3 28 75 27
3 7 8 67
3 67 8 76
3 67 76 68
3 68 76 77
3 68 77 69
3 69 77 78
3 69 78 70
3 70 78 79
3 70 79 71
3 71 79 80
3 71 80 72
3 72 80 81
3 72 81 73
3 73 81 82
3 73 82 74
3 74 82 83
3 74 83 75
3 75 83 84
3 75 84 27
3 27 84 26
3 8 9 76
3 76 9 85
3 76 85 77
3 77 85 86
3 77 86 78
3 78 86 87
3 78 87 79
3 79 87 88
3 79 88 80
3 80 88 89
3 80 89 81
3 81 89 90
3 81 90 82
3 82 90 91
3 82 91 83
3 83 91 92
3 83 92 84
3 84 92 93
3 84 93 26
3 26 93 25
3 9 10 85
3 85 10 94
3 85 94 86
3 86 94 95
3 86 95 87
3 87 95 96
3 87 96 88
3 88 96 97
3 88 97 89
3 89 97 98
3 89 98 90
3 90 98 99
3 90 99 91
3 91 99 100
3 91 100 92
3 92 100 101
3 92 101 93
3 93 101 102
3 93 102 25
3 25 102 24
3 10 11 94
3 94 11 103
3 94 103 95
3 95 103 104
3 95 104 96
3 96 104 105
3 96 105 97
3 97 105 106
3 97 106 98
3 98 106 107
3 98 107 99
3 99 107 108
3 99 108 100
3 100 108 109
3 100 109 101
3 101 109 110
3 101 110 102
3 102 110 111
3 102 111 24
3 24 111 23
3 11 12 103
3 103 12 112
3 103 112 104
3 104 112 113
3 104 113 105
3 105 113 114
3 105 114 106
3 106 114 115
3 106 115 107
3 107 115 116
3 107 116 108
3 108 116 117
3 108 117 109
3 109 117 118
3 109 118 110
3 110 118 119
3 110 119 111
3 111 119 120
3 111 120 23
3 23 120 22
3 12 1 112
3 112 1 13
3 112 13 113
3 113 13 14
3 113 14 114
3 114 14 15
3 114 15 115
3 115 15 16
3 115 16 116
3 116 16 17
3 116 17 117
3 117 17 18
3 117 18 118
3 118 18 19
3 118 19 119
3 119 19 20
3 119 20 120
3 120 20 21
3 120 21 22
3 22 21 2

CELL_TYPES 200
5
5
5
5
5
5
5
5
5
5
5
5
5
5
5
5
5
5
5
5
5
5
5
5
5
5
5
5
5
5
5
5
5
5
5
5
5
5
5
5
5
5
5
5
5
5
5
5
5
5
5
5
5
5
5
5
5
5
5
5
5
5
5
5
5
5
5
5
5
5
5
5
5
5
5
5
5
5
5
5
5
5
5
5
5
5
5
5
5
5
5
5
5
5
5
5
5
5
5
5
5
5
5
5
5
5
5
5
5
5
5
5
5
5
5
5
5
5
5
5
5
5
5
5
5
5
5
5
5
5
5
5
5
5
5
5
5
5
5
5
5
5
5
5
5
5
5
5
5
5
5
5
5
5
5
5
5
5
5
5
5
5
5
5
5
5
5
5
5
5
5
5
5
5
5
5
5
5
5
5
5
5
5
5
5
5
5
5
5
5
5
5
5
5
5
5
5
5
5
5

CELL_DATA 200
SCALARS Temperatura double 1
LOOKUP_TABLE default
0.499999
0.500002
0.823827
0.846669
0.959312
0.98565
1.00759
1.02425
1.016
1.02275
1.01083
1.0116
1.00423
1.00273
1.0002
0.998422
1.00078
0.994197
1.05369
0.905862
0.176174
0.153328
0.500012
0.499997
0.758183
0.777798
0.920206
0.943281
0.998318
1.0154
1.02248
1.03134
1.02061
1.02317
1.01086
1.01038
0.998791
0.988871
1.05413
0.952984
0.040663
0.0143598
0.241824
0.222186
0.499953
0.49996
0.733497
0.748089
0.897992
0.91724
0.988649
1.0048
1.02348
1.03332
1.02637
1.03122
1.0087
0.997137
1.0867
0.986242
-0.00759352
-0.0242231
0.0798527
0.0567468
0.266451
0.251874
0.499996
0.500021
0.718546
0.73044
0.882006
0.898795
0.979697
0.994881
1.02304
1.03504
1.01701
1.0073
1.11201
1.01464
-0.0160268
-0.0227342
0.00175312
-0.0153751
0.101956
0.0826856
0.281455
0.269586
0.500024
0.500032
0.708032
0.718201
0.869557
0.884371
0.973198
0.990116
1.00308
0.997481
1.12408
1.03695
-0.0108621
-0.0115793
-0.0224064
-0.0312981
0.0112849
-0.00489726
0.117951
0.101165
0.291987
0.281828
0.500023
0.500039
0.699857
0.708459
0.862177
0.878945
0.944638
0.941913
1.10703
1.03845
-0.00425944
-0.00271114
-0.0205382
-0.0230975
-0.0235121
-0.0333529
0.0202891
0.00503521
0.130403
0.115387
0.300009
0.291091
0.499661
0.499154
0.697237
0.708747
0.830602
0.826918
1.04427
1.00011
-0.000170226
0.00147111
-0.0111057
-0.0103497
-0.0263744
-0.0302859
-0.0223516
-0.0326131
0.0284803
0.0140348
0.140575
0.126942
0.305817
0.297126
0.504198
0.507878
0.668178
0.659715
0.928613
0.911164
0.00130303
0.00226491
-0.00306428
-0.00134725
-0.0168301
-0.0168511
-0.0298697
-0.034615
-0.0199707
-0.0304689
0.0359901
0.0219693
0.148055
0.133862
0.315334
0.310496
0.479186
0.462124
0.763828
0.774098
0.00124776
0.0015528
0.000629173
0.00367049
-0.00743216
-0.00173978
-0.0218938
-0.0178038
-0.0305387
-0.0360213
-0.013135
-0.0366675
0.0482745
-0.00115798
0.167309
0.100444
0.307715
0.191288
0.55286
0.587964
