# vtk DataFile Version 3.0
Malha 2D com triângulos e temperatura
ASCII
DATASET UNSTRUCTURED_GRID

POINTS 3013 double
0 0 0
1 0 0
1 1 0
0 1 0
0.02 0 0
0.04 0 0
0.06 0 0
0.08 0 0
0.1 0 0
0.12 0 0
0.14 0 0
0.16 0 0
0.18 0 0
0.2 0 0
0.22 0 0
0.24 0 0
0.26 0 0
0.28 0 0
0.3 0 0
0.32 0 0
0.34 0 0
0.36 0 0
0.38 0 0
0.4 0 0
0.42 0 0
0.44 0 0
0.46 0 0
0.48 0 0
0.5 0 0
0.52 0 0
0.54 0 0
0.56 0 0
0.58 0 0
0.6 0 0
0.62 0 0
0.64 0 0
0.66 0 0
0.68 0 0
0.7 0 0
0.72 0 0
0.74 0 0
0.76 0 0
0.78 0 0
0.8 0 0
0.82 0 0
0.84 0 0
0.86 0 0
0.88 0 0
0.9 0 0
0.92 0 0
0.94 0 0
0.96 0 0
0.98 0 0
1 0.02 0
1 0.04 0
1 0.06 0
1 0.08 0
1 0.1 0
1 0.12 0
1 0.14 0
1 0.16 0
1 0.18 0
1 0.2 0
1 0.22 0
1 0.24 0
1 0.26 0
1 0.28 0
1 0.3 0
1 0.32 0
1 0.34 0
1 0.36 0
1 0.38 0
1 0.4 0
1 0.42 0
1 0.44 0
1 0.46 0
1 0.48 0
1 0.5 0
1 0.52 0
1 0.54 0
1 0.56 0
1 0.58 0
1 0.6 0
1 0.62 0
1 0.64 0
1 0.66 0
1 0.68 0
1 0.7 0
1 0.72 0
1 0.74 0
1 0.76 0
1 0.78 0
1 0.8 0
1 0.82 0
1 0.84 0
1 0.86 0
1 0.88 0
1 0.9 0
1 0.92 0
1 0.94 0
1 0.96 0
1 0.98 0
0.98 1 0
0.96 1 0
0.94 1 0
0.92 1 0
0.9 1 0
0.88 1 0
0.86 1 0
0.84 1 0
0.82 1 0
0.8 1 0
0.78 1 0
0.76 1 0
0.74 1 0
0.72 1 0
0.7 1 0
0.68 1 0
0.66 1 0
0.64 1 0
0.62 1 0
0.6 1 0
0.58 1 0
0.56 1 0
0.54 1 0
0.52 1 0
0.5 1 0
0.48 1 0
0.46 1 0
0.44 1 0
0.42 1 0
0.4 1 0
0.38 1 0
0.36 1 0
0.34 1 0
0.32 1 0
0.3 1 0
0.28 1 0
0.26 1 0
0.24 1 0
0.22 1 0
0.2 1 0
0.18 1 0
0.16 1 0
0.14 1 0
0.12 1 0
0.1 1 0
0.08 1 0
0.06 1 0
0.04 1 0
0.02 1 0
0 0.98 0
0 0.96 0
0 0.94 0
0 0.92 0
0 0.9 0
0 0.88 0
0 0.86 0
0 0.84 0
0 0.82 0
0 0.8 0
0 0.78 0
0 0.76 0
0 0.74 0
0 0.72 0
0 0.7 0
0 0.68 0
0 0.66 0
0 0.64 0
0 0.62 0
0 0.6 0
0 0.58 0
0 0.56 0
0 0.54 0
0 0.52 0
0 0.5 0
0 0.48 0
0 0.46 0
0 0.44 0
0 0.42 0
0 0.4 0
0 0.38 0
0 0.36 0
0 0.34 0
0 0.32 0
0 0.3 0
0 0.28 0
0 0.26 0
0 0.24 0
0 0.22 0
0 0.2 0
0 0.18 0
0 0.16 0
0 0.14 0
0 0.12 0
0 0.1 0
0 0.08 0
0 0.06 0
0 0.04 0
0 0.02 0
0.49 0.982679 0
0.0169507 0.489851 0
0.51 0.0173205 0
0.980976 0.512354 0
0.0173205 0.61 0
0.61 0.982679 0
0.39 0.0173205 0
0.982022 0.388684 0
0.37 0.982679 0
0.982329 0.629863 0
0.0175637 0.369699 0
0.62978 0.016354 0
0.71 0.982679 0
0.0184056 0.710809 0
0.986382 0.289481 0
0.29 0.0173205 0
0.27 0.982679 0
0.983098 0.73 0
0.0190891 0.271333 0
0.72978 0.016354 0
0.980991 0.207028 0
0.21 0.0173205 0
0.79 0.982679 0
0.0191002 0.791174 0
0.19 0.982679 0
0.986403 0.80938 0
0.0173205 0.19 0
0.81 0.0173205 0
0.0173205 0.87 0
0.87 0.982679 0
0.12978 0.016354 0
0.98204 0.132065 0
0.43 0.982679 0
0.13 0.982679 0
0.0180275 0.432022 0
0.985231 0.869701 0
0.981684 0.571283 0
0.0193318 0.132583 0
0.57 0.0173205 0
0.869692 0.0171428 0
0.982126 0.451217 0
0.44978 0.0163534 0
0.55 0.982679 0
0.0174684 0.549963 0
0.0173205 0.07 0
0.93 0.0173205 0
0.93 0.982679 0
0.0173205 0.93 0
0.0681376 0.980915 0
0.982229 0.930184 0
0.982229 0.069816 0
0.0679833 0.0179599 0
0.33 0.982679 0
0.0173205 0.33 0
0.982053 0.769017 0
0.984068 0.66883 0
0.23 0.982679 0
0.67 0.0173205 0
0.77 0.0173205 0
0.0173205 0.23 0
0.34978 0.016354 0
0.985126 0.349731 0
0.0190602 0.651766 0
0.65 0.982679 0
0.25 0.0173205 0
0.982065 0.249138 0
0.982389 0.16951 0
0.17 0.0173205 0
0.75 0.982679 0
0.83 0.982679 0
0.0173205 0.75 0
0.0190706 0.828393 0
0.0168739 0.0307735 0
0.969226 0.0168739 0
0.969226 0.983126 0
0.0318365 0.981886 0
0.51 0.982679 0
0.5 0.965359 0
0.48 0.965359 0
0.49 0.948038 0
0.47 0.948038 0
0.48 0.930718 0
0.46 0.930718 0
0.47 0.913397 0
0.49 0.913397 0
0.48 0.896077 0
0.46 0.896077 0
0.47 0.878756 0
0.45 0.878756 0
0.46 0.861436 0
0.44 0.861436 0
0.45 0.844115 0
0.47 0.844115 0
0.46 0.826795 0
0.48 0.826795 0
0.47 0.809474 0
0.49 0.809474 0
0.48 0.792154 0
0.5 0.792154 0
0.49 0.774833 0
0.51 0.774833 0
0.5 0.757513 0
0.48 0.757513 0
0.49 0.740192 0
0.51 0.740192 0
0.5 0.722872 0
0.52 0.722872 0
0.51 0.705551 0
0.49 0.705551 0
0.5 0.688231 0
0.48 0.688231 0
0.49 0.67091 0
0.51 0.67091 0
0.5 0.65359 0
0.52 0.65359 0
0.51 0.636269 0
0.49 0.636269 0
0.5 0.618949 0
0.52 0.618949 0
0.51 0.601628 0
0.49 0.601628 0
0.5 0.584308 0
0.48 0.584308 0
0.49 0.566987 0
0.51 0.566987 0
0.5 0.549667 0
0.52 0.549667 0
0.51 0.532346 0
0.49 0.532346 0
0.5 0.515026 0
0.48 0.515026 0
0.52 0.515026 0
0.49 0.497705 0
0.47 0.497705 0
0.48 0.480385 0
0.46 0.480385 0
0.47 0.463064 0
0.45 0.463064 0
0.43 0.844115 0
0.46 0.445744 0
0.44 0.445744 0
0.43 0.463064 0
0.42 0.445744 0
0.41 0.463064 0
0.43 0.428423 0
0.41 0.428423 0
0.42 0.411103 0
0.4 0.411103 0
0.41 0.393782 0
0.39 0.393782 0
0.48 0.445744 0
0.4 0.376462 0
0.38 0.376462 0
0.37 0.393782 0
0.36 0.376462 0
0.35 0.393782 0
0.34 0.376462 0
0.37 0.359141 0
0.33 0.393782 0
0.32 0.376462 0
0.31 0.393782 0
0.3 0.376462 0
0.29 0.393782 0
0.28 0.376462 0
0.29 0.359141 0
0.27 0.393782 0
0.28 0.411103 0
0.27 0.359141 0
0.28 0.341821 0
0.26 0.411103 0
0.27 0.428423 0
0.26 0.341821 0
0.27 0.3245 0
0.42 0.376462 0
0.52 0.792154 0
0.25 0.428423 0
0.26 0.445744 0
0.25 0.3245 0
0.26 0.30718 0
0.24 0.30718 0
0.25 0.289859 0
0.24 0.445744 0
0.25 0.463064 0
0.23 0.463064 0
0.24 0.480385 0
0.23 0.289859 0
0.24 0.272539 0
0.26 0.272539 0
0.25 0.255218 0
0.27 0.255218 0
0.23 0.255218 0
0.23 0.3245 0
0.26 0.237898 0
0.28 0.237898 0
0.22 0.445744 0
0.22 0.480385 0
0.23 0.497705 0
0.25 0.497705 0
0.24 0.515026 0
0.26 0.515026 0
0.25 0.532346 0
0.23 0.532346 0
0.24 0.549667 0
0.26 0.549667 0
0.25 0.566987 0
0.27 0.566987 0
0.26 0.584308 0
0.24 0.584308 0
0.25 0.601628 0
0.27 0.601628 0
0.26 0.618949 0
0.24 0.618949 0
0.25 0.636269 0
0.23 0.636269 0
0.24 0.65359 0
0.26 0.65359 0
0.25 0.67091 0
0.27 0.67091 0
0.26 0.688231 0
0.24 0.688231 0
0.25 0.705551 0
0.23 0.705551 0
0.24 0.722872 0
0.22 0.722872 0
0.23 0.740192 0
0.28 0.688231 0
0.21 0.740192 0
0.22 0.757513 0
0.24 0.757513 0
0.23 0.774833 0
0.21 0.774833 0
0.27 0.220577 0
0.29 0.220577 0
0.2 0.722872 0
0.25 0.774833 0
0.24 0.792154 0
0.28 0.203257 0
0.3 0.203257 0
0.26 0.203257 0
0.26 0.792154 0
0.31 0.220577 0
0.32 0.203257 0
0.33 0.220577 0
0.34 0.203257 0
0.35 0.220577 0
0.36 0.203257 0
0.37 0.220577 0
0.38 0.203257 0
0.39 0.220577 0
0.4 0.203257 0
0.41 0.220577 0
0.42 0.203257 0
0.43 0.220577 0
0.44 0.203257 0
0.45 0.220577 0
0.46 0.203257 0
0.47 0.220577 0
0.48 0.203257 0
0.49 0.220577 0
0.5 0.203257 0
0.51 0.220577 0
0.52 0.203257 0
0.53 0.220577 0
0.54 0.203257 0
0.55 0.220577 0
0.56 0.203257 0
0.57 0.220577 0
0.58 0.203257 0
0.59 0.220577 0
0.58 0.237898 0
0.6 0.237898 0
0.61 0.220577 0
0.62 0.237898 0
0.61 0.255218 0
0.63 0.255218 0
0.64 0.237898 0
0.65 0.255218 0
0.64 0.272539 0
0.66 0.272539 0
0.67 0.255218 0
0.68 0.272539 0
0.67 0.289859 0
0.69 0.289859 0
0.68 0.30718 0
0.69 0.255218 0
0.7 0.30718 0
0.69 0.3245 0
0.71 0.3245 0
0.7 0.341821 0
0.72 0.341821 0
0.71 0.359141 0
0.73 0.359141 0
0.72 0.376462 0
0.73 0.3245 0
0.74 0.376462 0
0.73 0.393782 0
0.75 0.393782 0
0.74 0.411103 0
0.76 0.411103 0
0.75 0.428423 0
0.77 0.428423 0
0.76 0.445744 0
0.74 0.445744 0
0.75 0.463064 0
0.7 0.376462 0
0.77 0.393782 0
0.77 0.463064 0
0.76 0.480385 0
0.74 0.480385 0
0.75 0.497705 0
0.77 0.497705 0
0.76 0.515026 0
0.74 0.515026 0
0.75 0.532346 0
0.73 0.532346 0
0.74 0.549667 0
0.76 0.549667 0
0.75 0.566987 0
0.77 0.566987 0
0.76 0.584308 0
0.74 0.584308 0
0.75 0.601628 0
0.77 0.601628 0
0.76 0.618949 0
0.74 0.618949 0
0.75 0.636269 0
0.73 0.636269 0
0.74 0.65359 0
0.76 0.65359 0
0.75 0.67091 0
0.77 0.67091 0
0.76 0.688231 0
0.74 0.688231 0
0.75 0.705551 0
0.73 0.705551 0
0.74 0.722872 0
0.76 0.722872 0
0.75 0.740192 0
0.77 0.740192 0
0.76 0.757513 0
0.74 0.757513 0
0.78 0.757513 0
0.77 0.774833 0
0.79 0.774833 0
0.52 0.237898 0
0.67 0.3245 0
0.8 0.757513 0
0.78 0.792154 0
0.8 0.792154 0
0.25 0.809474 0
0.79 0.809474 0
0.77 0.809474 0
0.81 0.809474 0
0.53 0.185936 0
0.47 0.185936 0
0.41 0.185936 0
0.31 0.185936 0
0.27 0.809474 0
0.28 0.792154 0
0.42 0.861436 0
0.29 0.67091 0
0.3 0.688231 0
0.31 0.67091 0
0.32 0.688231 0
0.33 0.67091 0
0.34 0.688231 0
0.46 0.515026 0
0.26 0.826795 0
0.24 0.826795 0
0.8 0.826795 0
0.82 0.826795 0
0.83 0.809474 0
0.84 0.826795 0
0.35 0.67091 0
0.46 0.237898 0
0.28 0.826795 0
0.5 0.896077 0
0.85 0.809474 0
0.25 0.844115 0
0.23 0.844115 0
0.81 0.844115 0
0.41 0.844115 0
0.4 0.861436 0
0.28 0.445744 0
0.36 0.688231 0
0.35 0.705551 0
0.86 0.826795 0
0.37 0.67091 0
0.36 0.65359 0
0.4 0.237898 0
0.34 0.237898 0
0.24 0.861436 0
0.22 0.861436 0
0.37 0.705551 0
0.36 0.722872 0
0.87 0.809474 0
0.38 0.65359 0
0.37 0.636269 0
0.39 0.844115 0
0.38 0.861436 0
0.4 0.826795 0
0.88 0.826795 0
0.87 0.844115 0
0.29 0.3245 0
0.39 0.878756 0
0.37 0.878756 0
0.38 0.722872 0
0.38 0.826795 0
0.23 0.878756 0
0.21 0.878756 0
0.2 0.861436 0
0.19 0.878756 0
0.18 0.861436 0
0.17 0.878756 0
0.16 0.861436 0
0.15 0.878756 0
0.25 0.878756 0
0.14 0.861436 0
0.13 0.878756 0
0.15 0.844115 0
0.13 0.844115 0
0.14 0.826795 0
0.12 0.826795 0
0.13 0.809474 0
0.39 0.636269 0
0.38 0.618949 0
0.34 0.411103 0
0.86 0.792154 0
0.88 0.792154 0
0.87 0.774833 0
0.89 0.774833 0
0.88 0.757513 0
0.89 0.844115 0
0.88 0.861436 0
0.11 0.809474 0
0.12 0.792154 0
0.36 0.618949 0
0.37 0.601628 0
0.39 0.601628 0
0.38 0.584308 0
0.36 0.584308 0
0.37 0.566987 0
0.16 0.896077 0
0.1 0.792154 0
0.11 0.774833 0
0.1 0.826795 0
0.9 0.757513 0
0.89 0.740192 0
0.9 0.861436 0
0.89 0.878756 0
0.87 0.878756 0
0.24 0.896077 0
0.26 0.896077 0
0.4 0.584308 0
0.4 0.65359 0
0.13 0.774833 0
0.12 0.757513 0
0.1 0.757513 0
0.11 0.740192 0
0.38 0.896077 0
0.36 0.896077 0
0.79 0.844115 0
0.8 0.861436 0
0.78 0.861436 0
0.79 0.878756 0
0.77 0.878756 0
0.35 0.566987 0
0.36 0.549667 0
0.76 0.861436 0
0.75 0.878756 0
0.74 0.861436 0
0.73 0.878756 0
0.72 0.861436 0
0.71 0.878756 0
0.7 0.861436 0
0.69 0.878756 0
0.68 0.861436 0
0.67 0.878756 0
0.66 0.861436 0
0.67 0.844115 0
0.65 0.844115 0
0.64 0.861436 0
0.66 0.826795 0
0.64 0.826795 0
0.65 0.809474 0
0.63 0.809474 0
0.64 0.792154 0
0.62 0.792154 0
0.63 0.774833 0
0.61 0.809474 0
0.61 0.774833 0
0.62 0.757513 0
0.64 0.757513 0
0.63 0.740192 0
0.61 0.740192 0
0.62 0.722872 0
0.64 0.722872 0
0.63 0.705551 0
0.61 0.705551 0
0.62 0.688231 0
0.64 0.688231 0
[...]
CELL_DATA 5824
SCALARS Temperatura double 1
LOOKUP_TABLE default
0.585155
1.21259
0.0910287
0.0908068
0.424336
0.0528815
0.0275538
0.0118249
0.0467545
0.105665
0.105571
0.0375144
0.647112
0.174237
0.0651014
0.065249
0.315161
0.36498
0.369181
0.0191377
0.0288629
0.0296408
0.0520674
0.21354
0.534282
0.208471
0.108777
0.162131
0.162831
0.757986
0.225074
0.20394
0.202417
1.25403
0.212231
0.0184549
0.0830047
0.0834092
0.0207847
0.969309
0.014091
0.625346
0.30372
0.369561
0.0174682
0.580479
0.0437981
1.291
0.0266119
0.54269
0.00803888
0.459094
0.463694
0.0237808
0.0399737
0.146994
0.0371964
0.0378846
0.119266
0.118112
0.0459676
0.000679312
0.000703287
0.191256
0.060072
0.531679
0.543388
0.626803
1.47504
0.0264177
0.262002
0.258494
0.0117951
0.148712
0.123332
0.231176
0.0466662
0.0746221
0.0047567
0.849962
0.00711362
0.0419855
0.0400784
0.00977587
0.540206
0.0129296
0.137789
0.0900242
0.177903
0.000897848
0.000923308
0.356188
0.0291193
0.0171158
0.353476
0.239653
0.020609
0.00859207
0.818839
0.659047
0.219629
0.0140124
0.188555
0.213176
0.103224
0.103182
0.0656968
0.0212543
0.0125032
0.0169688
0.0135381
0.399264
0.0227583
0.0319974
0.0329988
0.630531
0.0818312
0.0343601
0.0581796
0.888557
0.414417
0.4172
0.0165928
0.0351628
0.0367906
0.395195
0.385531
0.0331613
0.0183443
2.17154
0.171036
0.0309862
0.254432
0.0984316
0.0988943
0.190767
0.377988
0.0725094
0.0728801
0.045333
0.280128
0.262792
0.521992
0.530494
1.77663
0.0441722
0.0449529
0.233726
0.0475558
0.620188
0.16002
0.160522
0.0813402
0.08141
0.299245
1.41203
0.112817
0.113016
0.370946
1.94995
1.46451
0.0266846
1.0864
0.031829
0.0440539
1.73461
2.02508
1.4493
0.0514936
0.0383751
0.0671787
2.09354
0.0213507
0.0528883
0.0449909
0.0664022
0.0419364
0.0343476
0.018112
0.0403944
0.0880632
0.0285561
0.00415827
0.0111211
0.0127763
0.0127137
0.0113909
0.0107588
0.167177
1.99095
1.05604
1.79594
1.39248
1.88406
0.604814
0.00448908
0.00425006
1.82948
0.281885
1.28684
0.0125237
1.24608
2.64121
2.7272
3.83431
8.32319
9.32205
7.99712
3.15596
8.95993
8.70013
8.95977
9.05861
8.46146
4.15864
4.54587
7.18209
6.88973
6.66009
6.38613
6.16472
5.14245
7.69578
9.45191
5.55629
9.81325
5.32751
5.61944
4.75231
6.27306
5.28101
10.0469
2.76643
4.36655
4.17199
4.03394
3.50707
3.62975
5.71898
6.41333
2.33532
1.92666
1.99961
1.55359
4.51049
9.65664
9.30288
9.1679
7.3052
0.416461
0.350514
0.377537
5.88196
2.25245
1.06962
5.90855
7.57263
0.378766
0.780435
0.434579
2.45751
0.927303
0.421524
1.77377
1.56687
8.12369
1.79827
0.892068
0.868439
0.429885
2.62156
2.67565
0.345518
9.39596
1.85304
1.04161
0.487978
6.80254
2.10782
0.71078
1.78501
8.65565
1.71007
0.882757
1.08724
4.77892
8.01929
5.05403
4.9969
7.48168
3.42595
7.34638
10.4818
1.82759
5.80348
3.85188
9.83771
1.22099
2.10706
0.670053
0.536734
3.80416
3.34487
9.24096
3.30132
0.60845
1.55195
5.38991
0.471766
0.387845
1.55565
2.8858
1.28204
2.49375
0.446471
1.3336
0.46844
0.392927
7.94603
0.391186
0.340712
6.91954
0.404552
10.902
1.13289
0.475115
7.42001
5.4564
0.814712
0.495046
2.73239
1.24821
9.65543
2.37563
0.649451
4.71892
1.02055
5.86632
2.01994
2.76656
1.49879
1.70437
2.57849
2.40975
4.84734
0.777645
1.10456
1.47204
1.52792
2.13962
1.64138
1.36342
7.7791
1.25992
0.948236
2.71706
3.10083
1.1616
1.06849
0.816647
0.980387
2.84927
1.79769
0.435824
0.467626
5.28628
1.82694
0.427106
0.433478
0.604346
2.1784
0.457392
4.67137
0.220666
2.50105
2.54342
10.3357
0.6455
9.92167
2.80413
2.95385
0.370041
0.406865
0.452009
0.368113
3.69117
3.70973
2.76228
0.400212
0.521492
0.487405
3.78545
5.51332
3.14672
0.809951
3.0886
0.733256
3.96716
0.714628
5.06423
2.95366
4.50961
4.58347
0.581056
0.345483
4.03654
0.499654
3.82025
0.774085
3.55269
0.356681
3.28047
0.543797
1.44266
1.375
2.90713
3.26969
1.35654
4.79498
0.407095
0.270347
1.23122
0.178333
0.0435445
1.04123
6.49401
1.46541
1.92649
8.63848
1.59317
0.196372
0.930481
7.59776
3.4427
2.37738
2.67438
1.40822
3.53851
1.94395
1.13864
1.97871
0.0332484
2.28434
1.64324
3.1497
0.393058
4.24251
1.36941
1.77228
0.31659
1.55345
1.62346
3.9941
9.32205
0.242584
0.815709
0.455889
0.959877
2.69922
1.81478
2.24318
6.52404
2.30083
1.70401
2.35071
2.26438
4.88431
0.351746
10.2102
3.29291
2.35091
5.56908
3.34966
4.30852
4.04251
4.44228
0.0667319
1.45369
2.64066
1.28267
2.03561
5.50164
5.72223
10.2104
2.2978
2.54536
0.595071
0.426971
5.16012
3.1375
0.397919
0.84785
1.30648
2.10846
5.34767
0.613951
3.58699
1.99928
3.2968
4.93575
0.356797
1.34166
2.89402
0.746984
1.14786
0.188776
0.85358
0.461085
3.54639
0.279641
0.317949
0.0493275
0.0894701
0.97274
0.897452
0.0537106
0.408469
7.33539
0.396124
3.59388
0.443916
0.0916712
11.3124
0.284379
0.0266602
0.0271603
3.24837
4.6412
0.0446507
1.07225
0.0419156
0.0977646
0.296751
0.302036
0.550869
0.162718
6.14027
0.530029
1.09366
0.365236
0.123555
2.36026
1.00206
0.886901
0.0332445
0.031802
0.0613808
11.0985
0.94403
0.177549
0.654627
3.92802
0.76015
4.18355
0.433294
1.00154
0.0397744
0.193984
5.89777
3.2133
0.751835
4.64237
0.349993
1.58564
1.02233
2.94658
0.697419
0.363623
2.85491
2.14505
0.351366
0.858458
0.458208
0.623168
5.69151
0.44845
2.79197
0.484448
0.0835021
0.975132
2.18295
11.2678
0.183507
2.29885
2.18385
9.68258
0.325283
3.16336
3.71266
3.65796
0.0404965
0.0669995
0.191694
2.67831
0.376336
10.3193
0.0234013
0.474498
0.181398
0.0884212
4.43593
0.165714
0.0742428
2.33521
0.338151
2.21851
5.76091
1.30641
0.053203
0.408053
0.0348486
5.69891
0.0313724
0.0904791
2.10696
0.114529
0.0133762
0.360581
4.24397
5.74359
4.04473
3.23756
0.314113
0.255428
3.06053
3.37862
1.22954
3.09531
0.407032
0.296746
0.151126
10.6707
0.417517
2.04008
5.57144
1.58598
0.0603908
1.14448
4.25042
1.4196
0.308164
1.16164
0.101281
0.862821
1.21667
3.72543
1.31577
0.626221
1.4113
0.953989
0.104351
0.0350695
1.12241
0.31427
0.124457
0.900457
1.033
1.10729
0.262124
0.365186
4.23411
0.102753
0.104474
4.62323
0.0115475
0.205883
1.64117
2.89156
0.178319
0.360806
4.41959
0.948366
0.175433
3.4428
3.1883
1.08029
0.744825
8.55174
0.0333173
5.34896
0.105626
0.253042
0.00671743
0.113802
3.57674
0.111661
0.134338
0.0464559
11.0455
3.57777
3.2228
5.05189
0.634014
0.210745
4.62274
0.021885
6.03884
1.11021
0.0616498
0.159745
4.0865
0.063141
2.21252
8.22234
1.96628
0.288525
4.7965
0.387826
0.692417
1.22366
0.255252
0.0134583
0.0132599
0.273673
11.1787
0.00615399
0.0767044
2.71776
0.984939
0.107633
1.09066
0.0723183
5.28416
0.156973
0.95394
0.51883
4.21289
0.114322
0.0262585
1.53628
0.51195
8.26718
0.244089
5.03323
0.985061
0.0526798
0.0589711
0.110591
4.78585
1.87255
0.480332
0.335092
0.242129
3.38804
0.0889792
0.0535724
0.479423
0.181118
1.67502
0.449222
7.89108
5.13729
4.52213
5.98231
3.83428
10.75
5.43674
1.44935
4.93239
0.139158
0.193724
0.0945409
0.416214
0.76497
1.12519
0.149702
5.57117
0.574094
0.139281
1.95593
2.05948
0.357644
0.447113
1.77471
0.157766
0.214625
0.0424596
0.170283
5.81248
0.00337998
4.6436
1.60578
0.158174
0.439537
0.254052
4.76246
3.52558
0.230307
0.00308529
0.00168103
0.237639
4.23005
1.47148
0.783741
2.3601
0.0535369
0.026844
0.00269108
3.43049
5.71039
2.62918
0.789058
1.72786
0.447318
0.418508
0.231061
0.224777
0.00526713
4.47294
0.109149
0.212966
1.7773
0.228385
4.49535
10.1487
2.22105
1.87009
0.652372
1.12459
0.0471915
0.119931
0.221782
0.0930928
0.133019
0.610341
0.0400256
0.00343101
2.9424
10.649
1.64295
0.57165
0.114885
1.62518
0.24238
3.15802
0.535484
0.0557712
0.53503
0.294819
0.173645
0.230528
0.0426799
1.05225
0.203694
1.69549
1.69371
1.80642
2.1512
0.218082
0.11883
3.32294
0.00169759
0.176333
1.0801
0.144375
1.51768
1.26359
0.641972
0.184074
0.152302
0.00317307
0.00658885
0.161129
0.0294655
0.165397
2.65513
1.58348
6.78665
0.415689
0.0174818
0.170882
0.173834
1.73588
0.460604
0.476547
0.394454
0.224521
1.87626
0.115859
0.109419
0.115286
6.49415
8.94309
0.224333
2.76079
10.5555
4.02915
3.21815
1.27616
0.388372
0.210733
0.0604854
0.672562
1.34252
0.17137
0.223891
0.0681023
0.79907
0.00422159
1.5281
1.84634
0.227199
0.00533988
1.06799
0.207467
1.49376
0.202473
1.06321
0.277546
0.755099
3.59939
0.0269261
0.447372
0.0297907
1.06302
0.315675
0.687881
0.959388
1.51597
3.73694
0.00757052
0.244271
10.0424
0.722262
0.156316
0.00663696
0.243157
0.0379996
0.245213
3.0837
4.04822
1.8673
0.289609
1.00242
4.72677
4.16307
0.293221
0.186873
1.62542
3.83937
1.14494
1.60279
0.0838904
3.49102
0.00498212
0.621357
0.0939613
1.70213
4.72633
3.9213
0.479012
2.10275
0.749243
4.18652
0.310849
5.73483
0.0103098
0.040667
0.00506897
0.215666
2.67561
1.94381
0.206655
3.80109
0.310233
6.11591
0.0507127
9.36101
0.0341622
0.204907
0.202586
0.00439757
0.927331
0.223806
0.478656
2.94163
3.22443
0.000617435
0.257434
0.0277867
1.6216
0.0609254
0.727358
0.188391
0.36878
0.211043
2.33737
2.14286
0.571478
2.13214
2.04493
1.52983
6.16564
4.34395
0.175624
1.92735
10.4569
0.523422
0.151829
0.24571
0.176285
1.06805
1.47652
4.84519
2.81046
5.13866
1.39568
0.808149
2.51241
2.48184
9.35111
8.12323
2.94734
3.38253
0.142841
0.00258189
0.00699584
1.22725
0.107972
3.72553
1.00576
0.189542
0.127697
0.855723
3.02658
0.0454367
5.21795
1.28466
1.63883
0.0335747
5.57852
0.115567
8.80569
4.16586
0.0218923
6.38759
0.210804
0.0638912
3.65241
0.985014
0.909748
1.57401
3.01207
2.87951
0.0205306
0.23838
0.646755
1.0488
0.164583
0.024599
2.39368
2.5509
3.28441
2.80994
0.270492
2.20863
2.43259
0.245213
2.90344
3.16183
1.19164
3.14043
0.178259
0.667998
2.26374
0.000626044
1.2311
6.2325
2.60274
2.5109
3.14771
2.7733
2.73841
0.348069
0.927172
0.610418
1.01149
0.0701588
0.358788
0.384945
2.85355
0.202085
0.01133
3.9131
0.230373
0.0107083
1.40215
8.97909
0.00255672
2.35439
2.02823
0.278542
5.45533
3.69674
4.49564
2.54039
0.174728
2.71235
0.167423
8.31726
0.444219
0.190024
0.97981
0.00575155
2.00085
4.43505
0.0206098
0.384646
0.80728
3.30217
0.188666
0.327368
0.787916
0.00667805
5.01376
8.18262
0.760815
4.71822
0.16541
2.78243
3.1669
0.004686
0.467999
2.20713
3.75672
0.0344407
9.72586
0.0243431
7.67804
1.15022
0.219112
1.3659
0.0168123
0.798462
0.0355316
0.124801
4.42053
1.0328
0.285396
0.0163643
2.14534
0.0118474
4.92717
3.29787
1.90206
0.112703
9.00556
0.051693
0.0333443
0.346886
0.395785
0.00651529
0.00863788
1.946
1.53781
0.248818
1.50772
0.00355043
0.00106508
0.207873
3.08485
2.19336
0.275518
4.6245
1.40887
0.245397
0.964792
0.484347
5.03968
4.05239
0.352525
0.267969
0.351527
0.0092464
0.707009
0.060805
0.0974846
0.0677276
3.14941
0.885692
5.15763
10.3873
2.43336
6.11908
0.185988
0.984676
0.353865
0.00153819
0.165427
3.4126
0.0358374
5.34747
4.08123
2.50294
0.00875957
2.09533
0.53539
0.541914
1.45978
0.83997
3.54772
5.73635
5.13882
0.0378965
4.60527
0.0605832
1.18686
3.84247
0.00106309
0.346318
0.199941
0.278272
0.025181
6.79729
0.0370954
0.149465
0.289741
0.237307
0.109387
0.390989
0.0337013
2.11304
1.23514
6.36197
0.683849
9.74199
4.93348
0.344224
0.372208
0.338397
0.474154
0.00744106
3.44296
0.253754
0.0931797
0.364737
0.0281087
0.090146
0.978565
0.221369
1.15231
0.116709
0.739678
0.0408925
2.07574
0.317861
0.889132
0.00512449
0.0296972
0.0033803
2.55041
5.13817
0.0150217
3.0304
0.102105
0.0249084
0.0535834
8.29963
0.329959
0.0919112
0.153904
2.50487
2.28375
4.00902
0.00350452
1.81989
2.54942
3.00328
4.26893
0.618657
1.31484
1.59411
0.0820431
4.37956
7.48492
1.95724
0.736542
1.7072
1.14145
8.73358
0.162208
0.857435
0.00419252
6.51582
0.68822
0.076625
0.156346
5.46695
0.143941
0.109914
0.318002
0.988274
0.754341
1.66371
0.0400591
3.66059
0.139797
0.845645
4.83707
5.22029
0.00148951
0.0531093
0.546635
4.45183
0.424445
0.130859
10.8687
1.06909
0.388339
0.165923
0.185062
4.61701
0.577951
1.35747
2.30527
0.391672
2.42995
0.228484
5.91644
5.24168
1.38025
0.354653
0.00221222
5.40272
0.287203
2.47046
0.206549
0.670678
0.269495
0.457489
0.057628
0.336169
2.08174
1.19351
0.303668
1.87073
0.147843
0.243434
6.46415
0.701754
0.860362
0.0120605
8.48989
5.13252
0.114296
0.027256
0.0512452
0.0121177
0.283906
0.0969414
2.70304
0.837909
0.99194
10.0845
0.225767
0.333457
1.61333
1.35486
1.51519
2.50927
4.26641
1.30832
0.130969
0.645183
0.148327
0.0292008
0.850924
0.0491724
1.41725
0.943834
2.62802
0.168632
0.0330952
3.73531
0.196793
0.838412
0.0353635
0.0950278
0.865169
1.59623
1.69184
2.51909
4.72706
0.52085
0.070184
8.73582
0.00267269
0.439002
0.0458252
1.10522
5.9914
0.773614
0.611241
0.889069
2.66816
0.110116
3.20304
0.149721
0.445621
0.0554138
1.59304
0.49426
0.224753
0.234535
0.784339
0.0663806
4.92146
6.78672
0.193861
0.337953
0.0849328
0.331019
1.27738
5.29053
0.634798
0.811999
0.214303
0.332547
8.5812
0.0139001
0.160143
0.0854104
1.11003
0.878081
4.2106
1.92637
0.328022
0.0121581
0.83174
3.82315
0.733476
0.365357
0.88355
0.133801
0.186052
3.54452
1.56459
0.154319
0.117956
0.901357
4.623
0.0410145
0.00725536
0.134459
0.0304565
1.26434
5.63222
0.0238224
0.559513
1.50264
0.360842
1.10617
0.0457563
0.189296
0.0768363
0.104582
9.45209
0.449488
0.310907
2.43117
5.95354
7.65595
1.26683
0.00507381
0.785331
0.366855
0.0546082
0.881672
3.69631
3.30031
7.07356
0.0410141
0.0386864
0.821241
0.635524
0.529437
1.77097
0.833051
1.65636
4.26884
0.404863
2.53198
0.65163
0.228641
2.46521
0.0508826
0.20679
3.91865
0.00797061
0.132494
4.28404
0.7392
5.21997
1.04788
0.446777
1.10926
2.30486
0.578837
0.193514
3.66574
0.0506469
0.191915
0.0567444
2.77025
0.354895
0.897614
0.186425
3.22604
0.0590245
6.52285
0.395113
0.221276
6.79887
1.58243
0.0946957
8.87532
8.91369
0.118102
4.49738
0.154327
0.100865
0.973224
0.75902
0.259558
0.236635
1.62459
0.0942395
0.0575824
0.394445
0.00652127
1.64209
4.05258
0.940568
4.54463
0.925349
0.0485374
0.273554
3.36111
0.292464
0.255504
0.226515
0.0132566
0.968443
8.32317
0.0854614
4.72847
1.27989
0.0323405
7.99019
8.51905
0.214013
0.00585563
0.904726
0.536111
6.78859
0.383826
0.786276
1.31547
1.59011
1.67182
0.325726
5.60976
5.74313
0.102317
0.165609
0.00301161
0.715492
0.503599
0.923778
0.936076
6.46626
1.06797
1.28312
0.122714
4.55511
0.0666833
0.029888
0.074416
0.947548
7.35053
0.173588
8.71866
0.22954
1.83845
3.32427
0.969979
8.91068
0.523033
3.97332
0.156691
0.0330513
3.15271
1.05144
9.27782
0.00380925
0.578609
5.07546
0.0801866
0.77212
5.69109
1.13988
4.44963
0.278412
4.83977
1.21587
1.35388
1.70906
0.0865074
0.220921
2.91765
3.34413
0.147231
3.47487
0.939422
0.0278426
0.936469
9.00732
0.356543
0.340793
4.44411
9.37097
0.0773692
0.0098127
0.347553
0.00928141
0.082024
0.0601065
0.421858
1.14408
0.565745
3.59777
1.41753
0.904654
0.160404
0.284696
2.41303
0.00203343
0.929907
11.3124
0.344433
0.361725
0.960776
9.54751
0.108159
1.28251
1.19652
0.380604
0.66826
0.671668
8.8756
2.51584
0.0120058
7.94384
3.07316
1.69539
0.164047
0.775617
3.03203
0.00583803
4.61886
1.60928
0.396496
1.2935
0.295219
4.59522
0.0957572
0.508143
1.37565
8.66703
2.41332
1.35316
0.0843464
0.0655355
0.392786
0.0226088
5.07764
0.0337657
1.47638
0.0472672
1.50745
0.00415212
0.097219
0.319764
0.00447869
0.0612743
0.0938577
0.711953
7.99707
2.18937
0.0872806
0.36936
1.22596
7.67431
0.418178
1.43828
0.0662876
0.193185
8.27101
0.109982
0.133435
0.27972
1.89569
0.359723
0.0523166
0.814195
0.303991
0.943938
5.69782
0.159129
4.00629
4.33232
1.3077
5.40391
0.343884
1.87554
0.150874
0.643509
0.655136
2.78431
0.598521
6.78847
4.41939
0.00558515
1.09145
1.02379
2.46923
0.328583
0.174101
0.319074
5.01444
0.455343
0.108829
0.00341035
1.69447
0.180236
1.18943
1.17246
0.0408607
0.150599
3.22454
8.56977
2.63836
3.44435
0.109216
0.297799
0.0497361
1.5698
0.34531
0.383149
0.420545
1.972
0.00183779
4.37748
0.579787
1.84966
4.43751
0.00479826
2.5531
2.79465
0.145
0.871202
2.08421
0.634799
0.00282784
0.040334
5.58744
0.141272
0.596256
0.977438
0.0130921
0.506354
0.314591
0.00466105
3.6885
4.26774
0.205363
0.56162
0.932299
4.21885
3.35253
2.31375
0.321458
3.47765
0.621771
1.45864
1.82275
5.06052
0.16189
3.14368
0.604544
0.0947314
0.273412
0.660363
8.80538
0.340363
3.52653
0.393422
2.42897
5.98185
0.849522
0.882734
1.0995
0.69473
0.815227
0.0998122
1.10221
0.930769
1.01264
0.0616184
0.349268
0.647871
0.133916
0.651766
0.259069
6.38768
0.991553
6.9897
1.04982
0.706166
10.4569
1.14287
0.418782
2.42401
0.555441
1.33451
0.157051
2.54508
1.34709
0.34583
3.87383
0.878459
0.201445
3.26176
0.732079
0.29716
0.294976
9.85719
0.367737
0.00587035
0.396294
3.25294
0.450575
1.44719
0.781493
5.71137
2.55505
1.68967
0.269521
0.142036
0.0723681
2.30904
0.117593
0.0648295
0.133871
0.369131
6.13679
0.0490294
7.2378
6.25053
0.275113
2.93245
4.83824
0.500423
0.0668316
0.0779877
0.455132
0.133272
0.0076758
0.8963
1.39275
0.340873
2.67249
0.868469
2.31228
1.24077
6.25756
0.156131
1.34185
6.2094
5.99629
0.759968
0.0353077
0.139293
1.5009
6.13999
0.756721
0.131385
0.5666
0.302263
2.20253
1.17267
1.60669
0.951146
0.338057
0.183816
0.0242619
0.0856691
0.18558
2.54788
0.109404
2.79284
0.132198
0.126537
4.35217
0.253242
0.00672068
1.41953
0.979688
0.461743
1.39081
0.36991
1.30948
0.122507
1.23274
1.47141
0.142076
0.0730625
0.893143
1.05375
0.571706
0.643176
0.788828
1.79222
1.07872
0.320862
1.52979
0.117437
0.110279
0.274009
0.271094
0.241888
3.08992
0.894347
0.0611249
0.41665
1.04882
1.08732
1.04382
0.400783
0.394622
2.07477
0.67903
0.125896
0.872018
0.258369
8.71862
1.2458
0.0793707
0.251085
5.47755
1.51306
0.0788532
3.14648
2.24346
1.1118
0.247637
0.47268
1.84159
0.0249236
0.116546
0.430708
0.285384
0.492888
0.0690993
0.150687
3.62893
0.193901
1.87297
2.02506
0.0515307
0.207189
8.18217
1.80943
0.425459
0.239452
3.03893
5.24258
0.587765
0.551665
3.57979
0.44634
0.0848107
0.178808
0.113125
0.393242
0.158529
0.213663
1.0144
1.20467
10.0506
0.142279
4.24889
1.69197
0.102058
0.0441618
0.351346
0.83195
0.133763
0.498556
0.0691685
0.419856
0.271065
0.353141
1.24031
0.0857598
0.680976
1.63059
0.927961
0.0723467
0.279101
0.543075
0.186234
2.08376
0.532209
0.108087
8.91064
0.419767
0.00744841
0.727947
0.461363
0.109711
2.19297
1.56535
0.0802136
0.047927
4.2446
0.251315
1.16763
0.263695
2.11332
3.75605
0.467511
0.33171
0.0832417
1.03472
3.07488
4.42264
0.404535
2.20337
1.85822
0.379282
0.187131
0.73979
0.801178
0.889524
4.24865
1.39604
0.110942
0.794762
1.35547
0.383585
0.420896
0.810956
4.22778
1.72265
0.065117
5.13404
0.0934605
1.45974
0.888846
0.625201
0.124313
0.0864891
0.407679
5.87906
0.0884191
0.470528
1.75176
3.5791
4.10501
0.141951
2.56175
1.44612
0.5915
2.53542
8.65344
0.0384427
1.37277
0.547042
0.0830881
0.188638
0.116995
1.03474
0.814499
0.238773
0.337295
0.0940467
0.351
2.61592
2.87634
3.851
0.19109
0.128639
2.90374
0.0627543
0.334079
0.130615
0.572161
4.80251
0.398799
0.0251379
3.22614
2.67405
0.27479
0.136042
0.107123
4.09074
0.655685
2.84899
1.47243
0.695088
0.883779
0.15671
0.16724
0.141063
8.38825
0.0835203
9.17327
2.78332
0.487063
0.555243
1.02529
0.387975
2.09199
3.55569
0.422658
0.75352
0.819986
0.0806259
0.0881939
0.255091
1.68073
1.27303
0.14276
0.723652
0.0951862
1.42148
0.259785
1.05856
0.545073
0.639027
0.722447
0.658513
8.23875
1.41444
4.3601
0.422352
0.491173
0.39653
0.989968
0.12276
0.199165
0.180961
0.0594852
0.294723
3.71827
0.481749
3.71054
3.57316
0.536993
1.446
1.05239
1.61422
0.0300279
0.861856
0.0521131
0.249593
0.193859
0.57604
8.32106
0.443423
3.30085
3.87337
3.75391
3.80338
1.24287
0.295908
2.89836
3.42064
0.693422
0.297299
0.396982
0.433937
0.28751
0.898133
1.9408
2.45296
0.0440305
3.93108
0.710809
0.837315
0.648748
5.28045
0.378029
6.20051
0.13345
0.0822966
0.0799973
0.322234
0.837982
8.56121
1.38014
0.162238
0.814825
0.511695
0.484289
0.0618959
0.134308
3.03421
0.865896
1.53193
0.13964
0.60454
0.613456
3.93399
1.30787
1.61962
0.495609
1.99278
1.48898
0.131325
0.318638
0.187783
3.4427
0.102541
1.02121
2.3785
0.932538
3.05912
0.0909949
0.480402
1.57796
2.28537
1.61435
2.95241
0.352415
0.106654
1.76849
1.33939
0.217065
4.07863
1.87173
0.0714108
0.110836
5.34714
0.86713
0.133076
0.81673
0.0995826
0.169532
0.396249
2.64734
2.33497
3.16693
0.0779043
1.51844
2.93938
0.146725
0.244063
0.274387
1.48004
1.38044
0.753304
0.0803057
0.520329
0.1732
0.333157
0.108448
0.278688
1.23848
0.223655
1.24311
0.0525749
1.55655
3.80802
2.06027
0.331838
0.693586
0.728794
0.132619
1.41367
2.93023
0.247497
0.819805
0.976012
4.44744
0.52968
0.060812
0.383672
4.37078
0.800281
0.905348
0.102253
0.115153
2.13237
0.433336
0.907254