# vtk DataFile Version 3.0
Malha 2D com triângulos e temperatura
ASCII
DATASET UNSTRUCTURED_GRID

POINTS 49 double
0 0 0
1 0 0
1 1 0
0 1 0
0.166667 0 0
0.333333 0 0
0.5 0 0
0.666667 0 0
0.833333 0 0
1 0.166667 0
1 0.333333 0
1 0.5 0
1 0.666667 0
1 0.833333 0
0.833333 1 0
0.666667 1 0
0.5 1 0
0.333333 1 0
0.166667 1 0
0 0.833333 0
0 0.666667 0
0 0.5 0
0 0.333333 0
0 0.166667 0
0.166667 0.166667 0
0.166667 0.333333 0
0.166667 0.5 0
0.166667 0.666667 0
0.166667 0.833333 0
0.333333 0.166667 0
0.333333 0.333333 0
0.333333 0.5 0
0.333333 0.666667 0
0.333333 0.833333 0
0.5 0.166667 0
0.5 0.333333 0
0.5 0.5 0
0.5 0.666667 0
0.5 0.833333 0
0.666667 0.166667 0
0.666667 0.333333 0
0.666667 0.5 0
0.666667 0.666667 0
0.666667 0.833333 0
0.833333 0.166667 0
0.833333 0.333333 0
0.833333 0.5 0
0.833333 0.666667 0
0.833333 0.833333 0

CELLS 72 288
3 0 4 23
3 23 4 24
3 23 24 22
3 22 24 25
3 22 25 21
3 21 25 26
3 21 26 20
3 20 26 27
3 20 27 19
3 19 27 28
3 19 28 3
3 3 28 18
3 4 5 24
3 24 5 29
3 24 29 25
3 25 29 30
3 25 30 26
3 26 30 31
3 26 31 27
3 27 31 32
3 27 32 28
3 28 32 33
3 28 33 18
3 18 33 17
3 5 6 29
3 29 6 34
3 29 34 30
3 30 34 35
3 30 35 31
3 31 35 36
3 31 36 32
3 32 36 37
3 32 37 33
3 33 37 38
3 33 38 17
3 17 38 16
3 6 7 34
3 34 7 39
3 34 39 35
3 35 39 40
3 35 40 36
3 36 40 41
3 36 41 37
3 37 41 42
3 37 42 38
3 38 42 43
3 38 43 16
3 16 43 15
3 7 8 39
3 39 8 44
3 39 44 40
3 40 44 45
3 40 45 41
3 41 45 46
3 41 46 42
3 42 46 47
3 42 47 43
3 43 47 48
3 43 48 15
3 15 48 14
3 8 1 44
3 44 1 9
3 44 9 45
3 45 9 10
3 45 10 46
3 46 10 11
3 46 11 47
3 47 11 12
3 47 12 48
3 48 12 13
3 48 13 14
3 14 13 2

CELL_TYPES 72
5
5
5
5
5
5
5
5
5
5
5
5
5
5
5
5
5
5
5
5
5
5
5
5
5
5
5
5
5
5
5
5
5
5
5
5
5
5
5
5
5
5
5
5
5
5
5
5
5
5
5
5
5
5
5
5
5
5
5
5
5
5
5
5
5
5
5
5
5
5
5
5

CELL_DATA 72
SCALARS Temperatura double 1
LOOKUP_TABLE default
0.222739
0.582484
0.770761
1.43847
1.18752
1.99236
1.35156
2.11694
1.20548
1.73232
0.663175
0.663175
0.770761
1.43847
2.49329
3.23948
3.62557
4.26657
3.95902
4.34905
3.37505
3.37505
1.73232
1.20548
1.18752
1.99236
3.62557
4.26657
5.05022
5.40521
5.31437
5.31437
4.34905
3.95902
2.11694
1.35156
1.35156
2.11694
3.95902
4.34905
5.31437
5.31437
5.40521
5.05022
4.26657
3.62557
1.99236
1.18752
1.20548
1.73232
3.37505
3.37505
4.34905
3.95902
4.26657
3.62557
3.23948
2.49329
1.43847
0.770761
0.663175
0.663175
1.73232
1.20548
2.11694
1.35156
1.99236
1.18752
1.43847
0.770761
0.582484
0.222739
