# vtk DataFile Version 3.0
Malha 2D com triângulos e temperatura
ASCII
DATASET UNSTRUCTURED_GRID

POINTS 625 double
0 0 0
1 0 0
1 1 0
0 1 0
0.0416667 0 0
0.0833333 0 0
0.125 0 0
0.166667 0 0
0.208333 0 0
0.25 0 0
0.291667 0 0
0.333333 0 0
0.375 0 0
0.416667 0 0
0.458333 0 0
0.5 0 0
0.541667 0 0
0.583333 0 0
0.625 0 0
0.666667 0 0
0.708333 0 0
0.75 0 0
0.791667 0 0
0.833333 0 0
0.875 0 0
0.916667 0 0
0.958333 0 0
1 0.0416667 0
1 0.0833333 0
1 0.125 0
1 0.166667 0
1 0.208333 0
1 0.25 0
1 0.291667 0
1 0.333333 0
1 0.375 0
1 0.416667 0
1 0.458333 0
1 0.5 0
1 0.541667 0
1 0.583333 0
1 0.625 0
1 0.666667 0
1 0.708333 0
1 0.75 0
1 0.791667 0
1 0.833333 0
1 0.875 0
1 0.916667 0
1 0.958333 0
0.958333 1 0
0.916667 1 0
0.875 1 0
0.833333 1 0
0.791667 1 0
0.75 1 0
0.708333 1 0
0.666667 1 0
0.625 1 0
0.583333 1 0
0.541667 1 0
0.5 1 0
0.458333 1 0
0.416667 1 0
0.375 1 0
0.333333 1 0
0.291667 1 0
0.25 1 0
0.208333 1 0
0.166667 1 0
0.125 1 0
0.0833333 1 0
0.0416667 1 0
0 0.958333 0
0 0.916667 0
0 0.875 0
0 0.833333 0
0 0.791667 0
0 0.75 0
0 0.708333 0
0 0.666667 0
0 0.625 0
0 0.583333 0
0 0.541667 0
0 0.5 0
0 0.458333 0
0 0.416667 0
0 0.375 0
0 0.333333 0
0 0.291667 0
0 0.25 0
0 0.208333 0
0 0.166667 0
0 0.125 0
0 0.0833333 0
0 0.0416667 0
0.0416667 0.0416667 0
0.0416667 0.0833333 0
0.0416667 0.125 0
0.0416667 0.166667 0
0.0416667 0.208333 0
0.0416667 0.25 0
0.0416667 0.291667 0
0.0416667 0.333333 0
0.0416667 0.375 0
0.0416667 0.416667 0
0.0416667 0.458333 0
0.0416667 0.5 0
0.0416667 0.541667 0
0.0416667 0.583333 0
0.0416667 0.625 0
0.0416667 0.666667 0
0.0416667 0.708333 0
0.0416667 0.75 0
0.0416667 0.791667 0
0.0416667 0.833333 0
0.0416667 0.875 0
0.0416667 0.916667 0
0.0416667 0.958333 0
0.0833333 0.0416667 0
0.0833333 0.0833333 0
0.0833333 0.125 0
0.0833333 0.166667 0
0.0833333 0.208333 0
0.0833333 0.25 0
0.0833333 0.291667 0
0.0833333 0.333333 0
0.0833333 0.375 0
0.0833333 0.416667 0
0.0833333 0.458333 0
0.0833333 0.5 0
0.0833333 0.541667 0
0.0833333 0.583333 0
0.0833333 0.625 0
0.0833333 0.666667 0
0.0833333 0.708333 0
0.0833333 0.75 0
0.0833333 0.791667 0
0.0833333 0.833333 0
0.0833333 0.875 0
0.0833333 0.916667 0
0.0833333 0.958333 0
0.125 0.0416667 0
0.125 0.0833333 0
0.125 0.125 0
0.125 0.166667 0
0.125 0.208333 0
0.125 0.25 0
0.125 0.291667 0
0.125 0.333333 0
0.125 0.375 0
0.125 0.416667 0
0.125 0.458333 0
0.125 0.5 0
0.125 0.541667 0
0.125 0.583333 0
0.125 0.625 0
0.125 0.666667 0
0.125 0.708333 0
0.125 0.75 0
0.125 0.791667 0
0.125 0.833333 0
0.125 0.875 0
0.125 0.916667 0
0.125 0.958333 0
0.166667 0.0416667 0
0.166667 0.0833333 0
0.166667 0.125 0
0.166667 0.166667 0
0.166667 0.208333 0
0.166667 0.25 0
0.166667 0.291667 0
0.166667 0.333333 0
0.166667 0.375 0
0.166667 0.416667 0
0.166667 0.458333 0
0.166667 0.5 0
0.166667 0.541667 0
0.166667 0.583333 0
0.166667 0.625 0
0.166667 0.666667 0
0.166667 0.708333 0
0.166667 0.75 0
0.166667 0.791667 0
0.166667 0.833333 0
0.166667 0.875 0
0.166667 0.916667 0
0.166667 0.958333 0
0.208333 0.0416667 0
0.208333 0.0833333 0
0.208333 0.125 0
0.208333 0.166667 0
0.208333 0.208333 0
0.208333 0.25 0
0.208333 0.291667 0
0.208333 0.333333 0
0.208333 0.375 0
0.208333 0.416667 0
0.208333 0.458333 0
0.208333 0.5 0
0.208333 0.541667 0
0.208333 0.583333 0
0.208333 0.625 0
0.208333 0.666667 0
0.208333 0.708333 0
0.208333 0.75 0
0.208333 0.791667 0
0.208333 0.833333 0
0.208333 0.875 0
0.208333 0.916667 0
0.208333 0.958333 0
0.25 0.0416667 0
0.25 0.0833333 0
0.25 0.125 0
0.25 0.166667 0
0.25 0.208333 0
0.25 0.25 0
0.25 0.291667 0
0.25 0.333333 0
0.25 0.375 0
0.25 0.416667 0
0.25 0.458333 0
0.25 0.5 0
0.25 0.541667 0
0.25 0.583333 0
0.25 0.625 0
0.25 0.666667 0
0.25 0.708333 0
0.25 0.75 0
0.25 0.791667 0
0.25 0.833333 0
0.25 0.875 0
0.25 0.916667 0
0.25 0.958333 0
0.291667 0.0416667 0
0.291667 0.0833333 0
0.291667 0.125 0
0.291667 0.166667 0
0.291667 0.208333 0
0.291667 0.25 0
0.291667 0.291667 0
0.291667 0.333333 0
0.291667 0.375 0
0.291667 0.416667 0
0.291667 0.458333 0
0.291667 0.5 0
0.291667 0.541667 0
0.291667 0.583333 0
0.291667 0.625 0
0.291667 0.666667 0
0.291667 0.708333 0
0.291667 0.75 0
0.291667 0.791667 0
0.291667 0.833333 0
0.291667 0.875 0
0.291667 0.916667 0
0.291667 0.958333 0
0.333333 0.0416667 0
0.333333 0.0833333 0
0.333333 0.125 0
0.333333 0.166667 0
0.333333 0.208333 0
0.333333 0.25 0
0.333333 0.291667 0
0.333333 0.333333 0
0.333333 0.375 0
0.333333 0.416667 0
0.333333 0.458333 0
0.333333 0.5 0
0.333333 0.541667 0
0.333333 0.583333 0
0.333333 0.625 0
0.333333 0.666667 0
0.333333 0.708333 0
0.333333 0.75 0
0.333333 0.791667 0
0.333333 0.833333 0
0.333333 0.875 0
0.333333 0.916667 0
0.333333 0.958333 0
0.375 0.0416667 0
0.375 0.0833333 0
0.375 0.125 0
0.375 0.166667 0
0.375 0.208333 0
0.375 0.25 0
0.375 0.291667 0
0.375 0.333333 0
0.375 0.375 0
0.375 0.416667 0
0.375 0.458333 0
0.375 0.5 0
0.375 0.541667 0
0.375 0.583333 0
0.375 0.625 0
0.375 0.666667 0
0.375 0.708333 0
0.375 0.75 0
0.375 0.791667 0
0.375 0.833333 0
0.375 0.875 0
0.375 0.916667 0
0.375 0.958333 0
0.416667 0.0416667 0
0.416667 0.0833333 0
0.416667 0.125 0
0.416667 0.166667 0
0.416667 0.208333 0
0.416667 0.25 0
0.416667 0.291667 0
0.416667 0.333333 0
0.416667 0.375 0
0.416667 0.416667 0
0.416667 0.458333 0
0.416667 0.5 0
0.416667 0.541667 0
0.416667 0.583333 0
0.416667 0.625 0
0.416667 0.666667 0
0.416667 0.708333 0
0.416667 0.75 0
0.416667 0.791667 0
0.416667 0.833333 0
0.416667 0.875 0
0.416667 0.916667 0
0.416667 0.958333 0
0.458333 0.0416667 0
0.458333 0.0833333 0
0.458333 0.125 0
0.458333 0.166667 0
0.458333 0.208333 0
0.458333 0.25 0
0.458333 0.291667 0
0.458333 0.333333 0
0.458333 0.375 0
0.458333 0.416667 0
0.458333 0.458333 0
0.458333 0.5 0
0.458333 0.541667 0
0.458333 0.583333 0
0.458333 0.625 0
0.458333 0.666667 0
0.458333 0.708333 0
0.458333 0.75 0
0.458333 0.791667 0
0.458333 0.833333 0
0.458333 0.875 0
0.458333 0.916667 0
0.458333 0.958333 0
0.5 0.0416667 0
0.5 0.0833333 0
0.5 0.125 0
0.5 0.166667 0
0.5 0.208333 0
0.5 0.25 0
0.5 0.291667 0
0.5 0.333333 0
0.5 0.375 0
0.5 0.416667 0
0.5 0.458333 0
0.5 0.5 0
0.5 0.541667 0
0.5 0.583333 0
0.5 0.625 0
0.5 0.666667 0
0.5 0.708333 0
0.5 0.75 0
0.5 0.791667 0
0.5 0.833333 0
0.5 0.875 0
0.5 0.916667 0
0.5 0.958333 0
0.541667 0.0416667 0
0.541667 0.0833333 0
0.541667 0.125 0
0.541667 0.166667 0
0.541667 0.208333 0
0.541667 0.25 0
0.541667 0.291667 0
0.541667 0.333333 0
0.541667 0.375 0
0.541667 0.416667 0
0.541667 0.458333 0
0.541667 0.5 0
0.541667 0.541667 0
0.541667 0.583333 0
0.541667 0.625 0
0.541667 0.666667 0
0.541667 0.708333 0
0.541667 0.75 0
0.541667 0.791667 0
0.541667 0.833333 0
0.541667 0.875 0
0.541667 0.916667 0
0.541667 0.958333 0
0.583333 0.0416667 0
0.583333 0.0833333 0
0.583333 0.125 0
0.583333 0.166667 0
0.583333 0.208333 0
0.583333 0.25 0
0.583333 0.291667 0
0.583333 0.333333 0
0.583333 0.375 0
0.583333 0.416667 0
0.583333 0.458333 0
0.583333 0.5 0
0.583333 0.541667 0
0.583333 0.583333 0
0.583333 0.625 0
0.583333 0.666667 0
0.583333 0.708333 0
0.583333 0.75 0
0.583333 0.791667 0
0.583333 0.833333 0
0.583333 0.875 0
0.583333 0.916667 0
0.583333 0.958333 0
0.625 0.0416667 0
0.625 0.0833333 0
0.625 0.125 0
0.625 0.166667 0
0.625 0.208333 0
0.625 0.25 0
0.625 0.291667 0
0.625 0.333333 0
0.625 0.375 0
0.625 0.416667 0
0.625 0.458333 0
0.625 0.5 0
0.625 0.541667 0
0.625 0.583333 0
0.625 0.625 0
0.625 0.666667 0
0.625 0.708333 0
0.625 0.75 0
0.625 0.791667 0
0.625 0.833333 0
0.625 0.875 0
0.625 0.916667 0
0.625 0.958333 0
0.666667 0.0416667 0
0.666667 0.0833333 0
0.666667 0.125 0
0.666667 0.166667 0
0.666667 0.208333 0
0.666667 0.25 0
0.666667 0.291667 0
0.666667 0.333333 0
0.666667 0.375 0
0.666667 0.416667 0
0.666667 0.458333 0
0.666667 0.5 0
0.666667 0.541667 0
0.666667 0.583333 0
0.666667 0.625 0
0.666667 0.666667 0
0.666667 0.708333 0
0.666667 0.75 0
0.666667 0.791667 0
0.666667 0.833333 0
0.666667 0.875 0
0.666667 0.916667 0
0.666667 0.958333 0
0.708333 0.0416667 0
0.708333 0.0833333 0
0.708333 0.125 0
0.708333 0.166667 0
0.708333 0.208333 0
0.708333 0.25 0
0.708333 0.291667 0
0.708333 0.333333 0
0.708333 0.375 0
0.708333 0.416667 0
0.708333 0.458333 0
0.708333 0.5 0
0.708333 0.541667 0
0.708333 0.583333 0
0.708333 0.625 0
0.708333 0.666667 0
0.708333 0.708333 0
0.708333 0.75 0
0.708333 0.791667 0
0.708333 0.833333 0
0.708333 0.875 0
0.708333 0.916667 0
0.708333 0.958333 0
0.75 0.0416667 0
0.75 0.0833333 0
0.75 0.125 0
0.75 0.166667 0
0.75 0.208333 0
0.75 0.25 0
0.75 0.291667 0
0.75 0.333333 0
0.75 0.375 0
0.75 0.416667 0
0.75 0.458333 0
0.75 0.5 0
0.75 0.541667 0
0.75 0.583333 0
0.75 0.625 0
0.75 0.666667 0
0.75 0.708333 0
0.75 0.75 0
0.75 0.791667 0
0.75 0.833333 0
0.75 0.875 0
0.75 0.916667 0
0.75 0.958333 0
0.791667 0.0416667 0
0.791667 0.0833333 0
0.791667 0.125 0
0.791667 0.166667 0
0.791667 0.208333 0
0.791667 0.25 0
0.791667 0.291667 0
0.791667 0.333333 0
0.791667 0.375 0
0.791667 0.416667 0
0.791667 0.458333 0
0.791667 0.5 0
0.791667 0.541667 0
0.791667 0.583333 0
0.791667 0.625 0
0.791667 0.666667 0
0.791667 0.708333 0
0.791667 0.75 0
0.791667 0.791667 0
0.791667 0.833333 0
0.791667 0.875 0
0.791667 0.916667 0
0.791667 0.958333 0
0.833333 0.0416667 0
0.833333 0.0833333 0
0.833333 0.125 0
0.833333 0.166667 0
0.833333 0.208333 0
0.833333 0.25 0
0.833333 0.291667 0
0.833333 0.333333 0
0.833333 0.375 0
0.833333 0.416667 0
0.833333 0.458333 0
0.833333 0.5 0
0.833333 0.541667 0
0.833333 0.583333 0
0.833333 0.625 0
0.833333 0.666667 0
0.833333 0.708333 0
0.833333 0.75 0
0.833333 0.791667 0
0.833333 0.833333 0
0.833333 0.875 0
0.833333 0.916667 0
0.833333 0.958333 0
0.875 0.0416667 0
0.875 0.0833333 0
0.875 0.125 0
0.875 0.166667 0
0.875 0.208333 0
0.875 0.25 0
0.875 0.291667 0
0.875 0.333333 0
0.875 0.375 0
0.875 0.416667 0
0.875 0.458333 0
0.875 0.5 0
0.875 0.541667 0
0.875 0.583333 0
0.875 0.625 0
0.875 0.666667 0
0.875 0.708333 0
0.875 0.75 0
0.875 0.791667 0
0.875 0.833333 0
0.875 0.875 0
0.875 0.916667 0
0.875 0.958333 0
0.916667 0.0416667 0
0.916667 0.0833333 0
0.916667 0.125 0
0.916667 0.166667 0
0.916667 0.208333 0
[...]
CELL_DATA 1152
SCALARS Temperatura double 1
LOOKUP_TABLE default
0.0130742
0.0625178
0.0644574
0.16539
0.114141
0.2589
0.159037
0.343033
0.199134
0.417773
0.234424
0.483111
0.264904
0.539042
0.290573
0.585563
0.311429
0.622671
0.327471
0.650365
0.338699
0.668644
0.345111
0.677506
0.346708
0.676952
0.343489
0.666981
0.335455
0.647594
0.322606
0.61879
0.304941
0.580572
0.282462
0.532938
0.255168
0.475889
0.223058
0.40942
0.186125
0.33351
0.144334
0.248064
0.0975323
0.152637
0.0449273
0.0449273
0.0644574
0.16539
0.26591
0.409287
0.452157
0.630821
0.620235
0.829974
0.77012
1.00672
0.901792
1.16105
1.01524
1.29294
1.11046
1.40238
1.18745
1.48939
1.24619
1.55394
1.2867
1.59603
1.30896
1.61567
1.31298
1.61285
1.29876
1.58758
1.26629
1.53985
1.21558
1.46966
1.14662
1.37703
1.05943
1.26194
0.953998
1.1244
0.830323
0.964404
0.688397
0.781948
0.528181
0.577
0.349561
0.349561
0.152637
0.0975323
0.114141
0.2589
0.452157
0.630821
0.762619
0.968562
1.0427
1.27211
1.29238
1.54144
1.51163
1.77652
1.70043
1.97734
1.85877
2.14389
1.98664
2.27617
2.08404
2.37415
2.15097
2.43786
2.18742
2.46727
2.19339
2.46239
2.16887
2.42321
2.11388
2.34975
2.0284
2.242
1.91246
2.09996
1.76603
1.92364
1.58914
1.71304
1.38178
1.46818
1.14397
1.18905
0.875694
0.875694
0.577
0.528181
0.248064
0.144334
0.159037
0.343033
0.620235
0.829974
1.0427
1.27211
1.42378
1.66943
1.76342
2.02191
2.06162
2.32953
2.31834
2.59226
2.53358
2.8101
2.70733
2.98303
2.83957
3.11105
2.93031
3.19415
2.97954
3.23232
2.98725
3.22558
2.95345
3.17391
2.87814
3.07733
2.76132
2.93582
2.603
2.7494
2.40317
2.51807
2.16185
2.24185
1.87904
1.92074
1.55477
1.55477
1.18905
1.14397
0.781948
0.688397
0.33351
0.186125
0.199134
0.417773
0.77012
1.00672
1.29238
1.54144
1.76342
2.02191
2.18322
2.44813
2.55174
2.82006
2.86897
3.13768
3.13489
3.40098
3.34949
3.60995
3.51276
3.76459
3.6247
3.86488
3.68531
3.91082
3.69457
3.90242
3.65249
3.83966
3.55907
3.72256
3.41431
3.55111
3.21822
3.32533
2.97081
3.04521
2.67208
2.71078
2.32205
2.32205
1.92074
1.87904
1.46818
1.38178
0.964404
0.830323
0.40942
0.223058
0.234424
0.483111
0.901792
1.16105
1.51163
1.77652
2.06162
2.32953
2.55174
2.82006
2.98196
3.24807
3.35228
3.61357
3.66266
3.91652
3.9131
4.15692
4.1036
4.33477
4.23413
4.45004
4.3047
4.50275
4.31531
4.49288
4.26596
4.42044
4.15663
4.28543
3.98735
4.08785
3.75812
3.82772
3.46894
3.50504
3.11982
3.11982
2.71078
2.67208
2.24185
2.16185
1.71304
1.58914
1.1244
0.953998
0.475889
0.255168
0.264904
0.539042
1.01524
1.29294
1.70043
1.97734
2.31834
2.59226
2.86897
3.13768
3.35228
3.61357
3.76826
4.01991
4.11689
4.3567
4.39816
4.62392
4.61206
4.82156
4.75858
4.94961
4.83772
5.00808
4.84947
4.99695
4.79384
4.91623
4.67082
4.76592
4.48043
4.54603
4.22266
4.25656
3.89753
3.89753
3.50504
3.46894
3.04521
2.97081
2.51807
2.40317
1.92364
1.76603
1.26194
1.05943
0.532938
0.282462
0.290573
0.585563
1.11046
1.40238
1.85877
2.14389
2.53358
2.8101
3.13489
3.40098
3.66266
3.91652
4.11689
4.3567
4.49755
4.72151
4.80463
5.01093
5.03813
5.22496
5.19803
5.36358
5.28433
5.4268
5.29703
5.41462
5.23613
5.32702
5.10162
5.16402
4.89352
4.92562
4.61183
4.61183
4.25656
4.22266
3.82772
3.75812
3.32533
3.21822
2.7494
2.603
2.09996
1.91246
1.37703
1.14662
0.580572
0.304941
0.311429
0.622671
1.18745
1.48939
1.98664
2.27617
2.70733
2.98303
3.34949
3.60995
3.9131
4.15692
4.39816
4.62392
4.80463
5.01093
5.13251
5.31794
5.38179
5.54495
5.55247
5.69194
5.64453
5.75891
5.65798
5.74587
5.5928
5.6528
5.44902
5.47972
5.22662
5.22662
4.92562
4.89352
4.54603
4.48043
4.08785
3.98735
3.55111
3.41431
2.93582
2.76132
2.242
2.0284
1.46966
1.21558
0.61879
0.322606
0.327471
0.650365
1.24619
1.55394
2.08404
2.37415
2.83957
3.11105
3.51276
3.76459
4.1036
4.33477
4.61206
4.82156
5.03813
5.22496
5.38179
5.54495
5.64305
5.78152
5.82189
5.93468
5.91831
6.0044
5.9323
5.9907
5.86386
5.89356
5.713
5.713
5.47972
5.44902
5.16402
5.10162
4.76592
4.67082
4.28543
4.15663
3.72256
3.55907
3.07733
2.87814
2.34975
2.11388
1.53985
1.26629
0.647594
0.335455
0.338699
0.668644
1.2867
1.59603
2.15097
2.43786
2.93031
3.19415
3.6247
3.86488
4.23413
4.45004
4.75858
4.94961
5.19803
5.36358
5.55247
5.69194
5.82189
5.93468
6.00629
6.09178
6.10566
6.16325
6.11999
6.14909
6.04929
6.04929
5.89356
5.86386
5.6528
5.5928
5.32702
5.23613
4.91623
4.79384
4.42044
4.26596
3.83966
3.65249
3.17391
2.95345
2.42321
2.16887
1.58758
1.29876
0.666981
0.343489
0.345111
0.677506
1.30896
1.61567
2.18742
2.46727
2.97954
3.23232
3.68531
3.91082
4.3047
4.50275
4.83772
5.00808
5.28433
5.4268
5.64453
5.75891
5.91831
6.0044
6.10566
6.16325
6.20657
6.23547
6.22105
6.22105
6.14909
6.11999
5.9907
5.9323
5.74587
5.65798
5.41462
5.29703
4.99695
4.84947
4.49288
4.31531
3.90242
3.69457
3.22558
2.98725
2.46239
2.19339
1.61285
1.31298
0.676952
0.346708
0.346708
0.676952
1.31298
1.61285
2.19339
2.46239
2.98725
3.22558
3.69457
3.90242
4.31531
4.49288
4.84947
4.99695
5.29703
5.41462
5.65798
5.74587
5.9323
5.9907
6.11999
6.14909
6.22105
6.22105
6.23547
6.20657
6.16325
6.10566
6.0044
5.91831
5.75891
5.64453
5.4268
5.28433
5.00808
4.83772
4.50275
4.3047
3.91082
3.68531
3.23232
2.97954
2.46727
2.18742
1.61567
1.30896
0.677506
0.345111
0.343489
0.666981
1.29876
1.58758
2.16887
2.42321
2.95345
3.17391
3.65249
3.83966
4.26596
4.42044
4.79384
4.91623
5.23613
5.32702
5.5928
5.6528
5.86386
5.89356
6.04929
6.04929
6.14909
6.11999
6.16325
6.10566
6.09178
6.00629
5.93468
5.82189
5.69194
5.55247
5.36358
5.19803
4.94961
4.75858
4.45004
4.23413
3.86488
3.6247
3.19415
2.93031
2.43786
2.15097
1.59603
1.2867
0.668644
0.338699
0.335455
0.647594
1.26629
1.53985
2.11388
2.34975
2.87814
3.07733
3.55907
3.72256
4.15663
4.28543
4.67082
4.76592
5.10162
5.16402
5.44902
5.47972
5.713
5.713
5.89356
5.86386
5.9907
5.9323
6.0044
5.91831
5.93468
5.82189
5.78152
5.64305
5.54495
5.38179
5.22496
5.03813
4.82156
4.61206
4.33477
4.1036
3.76459
3.51276
3.11105
2.83957
2.37415
2.08404
1.55394
1.24619
0.650365
0.327471
0.322606
0.61879
1.21558
1.46966
2.0284
2.242
2.76132
2.93582
3.41431
3.55111
3.98735
4.08785
4.48043
4.54603
4.89352
4.92562
5.22662
5.22662
5.47972
5.44902
5.6528
5.5928
5.74587
5.65798
5.75891
5.64453
5.69194
5.55247
5.54495
5.38179
5.31794
5.13251
5.01093
4.80463
4.62392
4.39816
4.15692
3.9131
3.60995
3.34949
2.98303
2.70733
2.27617
1.98664
1.48939
1.18745
0.622671
0.311429
0.304941
0.580572
1.14662
1.37703
1.91246
2.09996
2.603
2.7494
3.21822
3.32533
3.75812
3.82772
4.22266
4.25656
4.61183
4.61183
4.92562
4.89352
5.16402
5.10162
5.32702
5.23613
5.41462
5.29703
5.4268
5.28433
5.36358
5.19803
5.22496
5.03813
5.01093
4.80463
4.72151
4.49755
4.3567
4.11689
3.91652
3.66266
3.40098
3.13489
2.8101
2.53358
2.14389
1.85877
1.40238
1.11046
0.585563
0.290573
0.282462
0.532938
1.05943
1.26194
1.76603
1.92364
2.40317
2.51807
2.97081
3.04521
3.46894
3.50504
3.89753
3.89753
4.25656
4.22266
4.54603
4.48043
4.76592
4.67082
4.91623
4.79384
4.99695
4.84947
5.00808
4.83772
4.94961
4.75858
4.82156
4.61206
4.62392
4.39816
4.3567
4.11689
4.01991
3.76826
3.61357
3.35228
3.13768
2.86897
2.59226
2.31834
1.97734
1.70043
1.29294
1.01524
0.539042
0.264904
0.255168
0.475889
0.953998
1.1244
1.58914
1.71304
2.16185
2.24185
2.67208
2.71078
3.11982
3.11982
3.50504
3.46894
3.82772
3.75812
4.08785
3.98735
4.28543
4.15663
4.42044
4.26596
4.49288
4.31531
4.50275
4.3047
4.45004
4.23413
4.33477
4.1036
4.15692
3.9131
3.91652
3.66266
3.61357
3.35228
3.24807
2.98196
2.82006
2.55174
2.32953
2.06162
1.77652
1.51163
1.16105
0.901792
0.483111
0.234424
0.223058
0.40942
0.830323
0.964404
1.38178
1.46818
1.87904
1.92074
2.32205
2.32205
2.71078
2.67208
3.04521
2.97081
3.32533
3.21822
3.55111
3.41431
3.72256
3.55907
3.83966
3.65249
3.90242
3.69457
3.91082
3.68531
3.86488
3.6247
3.76459
3.51276
3.60995
3.34949
3.40098
3.13489
3.13768
2.86897
2.82006
2.55174
2.44813
2.18322
2.02191
1.76342
1.54144
1.29238
1.00672
0.77012
0.417773
0.199134
0.186125
0.33351
0.688397
0.781948
1.14397
1.18905
1.55477
1.55477
1.92074
1.87904
2.24185
2.16185
2.51807
2.40317
2.7494
2.603
2.93582
2.76132
3.07733
2.87814
3.17391
2.95345
3.22558
2.98725
3.23232
2.97954
3.19415
2.93031
3.11105
2.83957
2.98303
2.70733
2.8101
2.53358
2.59226
2.31834
2.32953
2.06162
2.02191
1.76342
1.66943
1.42378
1.27211
1.0427
0.829974
0.620235
0.343033
0.159037
0.144334
0.248064
0.528181
0.577
0.875694
0.875694
1.18905
1.14397
1.46818
1.38178
1.71304
1.58914
1.92364
1.76603
2.09996
1.91246
2.242
2.0284
2.34975
2.11388
2.42321
2.16887
2.46239
2.19339
2.46727
2.18742
2.43786
2.15097
2.37415
2.08404
2.27617
1.98664
2.14389
1.85877
1.97734
1.70043
1.77652
1.51163
1.54144
1.29238
1.27211
1.0427
0.968562
0.762619
0.630821
0.452157
0.2589
0.114141
0.0975323
0.152637
0.349561
0.349561
0.577
0.528181
0.781948
0.688397
0.964404
0.830323
1.1244
0.953998
1.26194
1.05943
1.37703
1.14662
1.46966
1.21558
1.53985
1.26629
1.58758
1.29876
1.61285
1.31298
1.61567
1.30896
1.59603
1.2867
1.55394
1.24619
1.48939
1.18745
1.40238
1.11046
1.29294
1.01524
1.16105
0.901792
1.00672
0.77012
0.829974
0.620235
0.630821
0.452157
0.409287
0.26591
0.16539
0.0644574
0.0449273
0.0449273
0.152637
0.0975323
0.248064
0.144334
0.33351
0.186125
0.40942
0.223058
0.475889
0.255168
0.532938
0.282462
0.580572
0.304941
0.61879
0.322606
0.647594
0.335455
0.666981
0.343489
0.676952
0.346708
0.677506
0.345111
0.668644
0.338699
0.650365
0.327471
0.622671
0.311429
0.585563
0.290573
0.539042
0.264904
0.483111
0.234424
0.417773
0.199134
0.343033
0.159037
0.2589
0.114141
0.16539
0.0644574
0.0625178
0.0130742
