# vtk DataFile Version 3.0
Malha 2D com triângulos e temperatura
ASCII
DATASET UNSTRUCTURED_GRID

POINTS 441 double
0 0 0
1 0 0
1 1 0
0 1 0
0.05 0 0
0.1 0 0
0.15 0 0
0.2 0 0
0.25 0 0
0.3 0 0
0.35 0 0
0.4 0 0
0.45 0 0
0.5 0 0
0.55 0 0
0.6 0 0
0.65 0 0
0.7 0 0
0.75 0 0
0.8 0 0
0.85 0 0
0.9 0 0
0.95 0 0
1 0.05 0
1 0.1 0
1 0.15 0
1 0.2 0
1 0.25 0
1 0.3 0
1 0.35 0
1 0.4 0
1 0.45 0
1 0.5 0
1 0.55 0
1 0.6 0
1 0.65 0
1 0.7 0
1 0.75 0
1 0.8 0
1 0.85 0
1 0.9 0
1 0.95 0
0.95 1 0
0.9 1 0
0.85 1 0
0.8 1 0
0.75 1 0
0.7 1 0
0.65 1 0
0.6 1 0
0.55 1 0
0.5 1 0
0.45 1 0
0.4 1 0
0.35 1 0
0.3 1 0
0.25 1 0
0.2 1 0
0.15 1 0
0.1 1 0
0.05 1 0
0 0.95 0
0 0.9 0
0 0.85 0
0 0.8 0
0 0.75 0
0 0.7 0
0 0.65 0
0 0.6 0
0 0.55 0
0 0.5 0
0 0.45 0
0 0.4 0
0 0.35 0
0 0.3 0
0 0.25 0
0 0.2 0
0 0.15 0
0 0.1 0
0 0.05 0
0.05 0.05 0
0.05 0.1 0
0.05 0.15 0
0.05 0.2 0
0.05 0.25 0
0.05 0.3 0
0.05 0.35 0
0.05 0.4 0
0.05 0.45 0
0.05 0.5 0
0.05 0.55 0
0.05 0.6 0
0.05 0.65 0
0.05 0.7 0
0.05 0.75 0
0.05 0.8 0
0.05 0.85 0
0.05 0.9 0
0.05 0.95 0
0.1 0.05 0
0.1 0.1 0
0.1 0.15 0
0.1 0.2 0
0.1 0.25 0
0.1 0.3 0
0.1 0.35 0
0.1 0.4 0
0.1 0.45 0
0.1 0.5 0
0.1 0.55 0
0.1 0.6 0
0.1 0.65 0
0.1 0.7 0
0.1 0.75 0
0.1 0.8 0
0.1 0.85 0
0.1 0.9 0
0.1 0.95 0
0.15 0.05 0
0.15 0.1 0
0.15 0.15 0
0.15 0.2 0
0.15 0.25 0
0.15 0.3 0
0.15 0.35 0
0.15 0.4 0
0.15 0.45 0
0.15 0.5 0
0.15 0.55 0
0.15 0.6 0
0.15 0.65 0
0.15 0.7 0
0.15 0.75 0
0.15 0.8 0
0.15 0.85 0
0.15 0.9 0
0.15 0.95 0
0.2 0.05 0
0.2 0.1 0
0.2 0.15 0
0.2 0.2 0
0.2 0.25 0
0.2 0.3 0
0.2 0.35 0
0.2 0.4 0
0.2 0.45 0
0.2 0.5 0
0.2 0.55 0
0.2 0.6 0
0.2 0.65 0
0.2 0.7 0
0.2 0.75 0
0.2 0.8 0
0.2 0.85 0
0.2 0.9 0
0.2 0.95 0
0.25 0.05 0
0.25 0.1 0
0.25 0.15 0
0.25 0.2 0
0.25 0.25 0
0.25 0.3 0
0.25 0.35 0
0.25 0.4 0
0.25 0.45 0
0.25 0.5 0
0.25 0.55 0
0.25 0.6 0
0.25 0.65 0
0.25 0.7 0
0.25 0.75 0
0.25 0.8 0
0.25 0.85 0
0.25 0.9 0
0.25 0.95 0
0.3 0.05 0
0.3 0.1 0
0.3 0.15 0
0.3 0.2 0
0.3 0.25 0
0.3 0.3 0
0.3 0.35 0
0.3 0.4 0
0.3 0.45 0
0.3 0.5 0
0.3 0.55 0
0.3 0.6 0
0.3 0.65 0
0.3 0.7 0
0.3 0.75 0
0.3 0.8 0
0.3 0.85 0
0.3 0.9 0
0.3 0.95 0
0.35 0.05 0
0.35 0.1 0
0.35 0.15 0
0.35 0.2 0
0.35 0.25 0
0.35 0.3 0
0.35 0.35 0
0.35 0.4 0
0.35 0.45 0
0.35 0.5 0
0.35 0.55 0
0.35 0.6 0
0.35 0.65 0
0.35 0.7 0
0.35 0.75 0
0.35 0.8 0
0.35 0.85 0
0.35 0.9 0
0.35 0.95 0
0.4 0.05 0
0.4 0.1 0
0.4 0.15 0
0.4 0.2 0
0.4 0.25 0
0.4 0.3 0
0.4 0.35 0
0.4 0.4 0
0.4 0.45 0
0.4 0.5 0
0.4 0.55 0
0.4 0.6 0
0.4 0.65 0
0.4 0.7 0
0.4 0.75 0
0.4 0.8 0
0.4 0.85 0
0.4 0.9 0
0.4 0.95 0
0.45 0.05 0
0.45 0.1 0
0.45 0.15 0
0.45 0.2 0
0.45 0.25 0
0.45 0.3 0
0.45 0.35 0
0.45 0.4 0
0.45 0.45 0
0.45 0.5 0
0.45 0.55 0
0.45 0.6 0
0.45 0.65 0
0.45 0.7 0
0.45 0.75 0
0.45 0.8 0
0.45 0.85 0
0.45 0.9 0
0.45 0.95 0
0.5 0.05 0
0.5 0.1 0
0.5 0.15 0
0.5 0.2 0
0.5 0.25 0
0.5 0.3 0
0.5 0.35 0
0.5 0.4 0
0.5 0.45 0
0.5 0.5 0
0.5 0.55 0
0.5 0.6 0
0.5 0.65 0
0.5 0.7 0
0.5 0.75 0
0.5 0.8 0
0.5 0.85 0
0.5 0.9 0
0.5 0.95 0
0.55 0.05 0
0.55 0.1 0
0.55 0.15 0
0.55 0.2 0
0.55 0.25 0
0.55 0.3 0
0.55 0.35 0
0.55 0.4 0
0.55 0.45 0
0.55 0.5 0
0.55 0.55 0
0.55 0.6 0
0.55 0.65 0
0.55 0.7 0
0.55 0.75 0
0.55 0.8 0
0.55 0.85 0
0.55 0.9 0
0.55 0.95 0
0.6 0.05 0
0.6 0.1 0
0.6 0.15 0
0.6 0.2 0
0.6 0.25 0
0.6 0.3 0
0.6 0.35 0
0.6 0.4 0
0.6 0.45 0
0.6 0.5 0
0.6 0.55 0
0.6 0.6 0
0.6 0.65 0
0.6 0.7 0
0.6 0.75 0
0.6 0.8 0
0.6 0.85 0
0.6 0.9 0
0.6 0.95 0
0.65 0.05 0
0.65 0.1 0
0.65 0.15 0
0.65 0.2 0
0.65 0.25 0
0.65 0.3 0
0.65 0.35 0
0.65 0.4 0
0.65 0.45 0
0.65 0.5 0
0.65 0.55 0
0.65 0.6 0
0.65 0.65 0
0.65 0.7 0
0.65 0.75 0
0.65 0.8 0
0.65 0.85 0
0.65 0.9 0
0.65 0.95 0
0.7 0.05 0
0.7 0.1 0
0.7 0.15 0
0.7 0.2 0
0.7 0.25 0
0.7 0.3 0
0.7 0.35 0
0.7 0.4 0
0.7 0.45 0
0.7 0.5 0
0.7 0.55 0
0.7 0.6 0
0.7 0.65 0
0.7 0.7 0
0.7 0.75 0
0.7 0.8 0
0.7 0.85 0
0.7 0.9 0
0.7 0.95 0
0.75 0.05 0
0.75 0.1 0
0.75 0.15 0
0.75 0.2 0
0.75 0.25 0
0.75 0.3 0
0.75 0.35 0
0.75 0.4 0
0.75 0.45 0
0.75 0.5 0
0.75 0.55 0
0.75 0.6 0
0.75 0.65 0
0.75 0.7 0
0.75 0.75 0
0.75 0.8 0
0.75 0.85 0
0.75 0.9 0
0.75 0.95 0
0.8 0.05 0
0.8 0.1 0
0.8 0.15 0
0.8 0.2 0
0.8 0.25 0
0.8 0.3 0
0.8 0.35 0
0.8 0.4 0
0.8 0.45 0
0.8 0.5 0
0.8 0.55 0
0.8 0.6 0
0.8 0.65 0
0.8 0.7 0
0.8 0.75 0
0.8 0.8 0
0.8 0.85 0
0.8 0.9 0
0.8 0.95 0
0.85 0.05 0
0.85 0.1 0
0.85 0.15 0
0.85 0.2 0
0.85 0.25 0
0.85 0.3 0
0.85 0.35 0
0.85 0.4 0
0.85 0.45 0
0.85 0.5 0
0.85 0.55 0
0.85 0.6 0
0.85 0.65 0
0.85 0.7 0
0.85 0.75 0
0.85 0.8 0
0.85 0.85 0
0.85 0.9 0
0.85 0.95 0
0.9 0.05 0
0.9 0.1 0
0.9 0.15 0
0.9 0.2 0
0.9 0.25 0
0.9 0.3 0
0.9 0.35 0
0.9 0.4 0
0.9 0.45 0
0.9 0.5 0
0.9 0.55 0
0.9 0.6 0
0.9 0.65 0
0.9 0.7 0
0.9 0.75 0
0.9 0.8 0
0.9 0.85 0
0.9 0.9 0
0.9 0.95 0
0.95 0.05 0
0.95 0.1 0
0.95 0.15 0
0.95 0.2 0
0.95 0.25 0
0.95 0.3 0
0.95 0.35 0
0.95 0.4 0
0.95 0.45 0
0.95 0.5 0
0.95 0.55 0
0.95 0.6 0
0.95 0.65 0
0.95 0.7 0
0.95 0.75 0
0.95 0.8 0
0.95 0.85 0
0.95 0.9 0
0.95 0.95 0

CELLS 800 3200
3 0 4 79
3 79 4 80
3 79 80 78
3 78 80 81
3 78 81 77
3 77 81 82
3 77 82 76
3 76 82 83
3 76 83 75
3 75 83 84
3 75 84 74
3 74 84 85
3 74 85 73
3 73 85 86
3 73 86 72
3 72 86 87
3 72 87 71
3 71 87 88
3 71 88 70
3 70 88 89
3 70 89 69
3 69 89 90
3 69 90 68
3 68 90 91
3 68 91 67
3 67 91 92
3 67 92 66
3 66 92 93
3 66 93 65
3 65 93 94
3 65 94 64
3 64 94 95
3 64 95 63
3 63 95 96
3 63 96 62
3 62 96 97
3 62 97 61
3 61 97 98
3 61 98 3
3 3 98 60
3 4 5 80
3 80 5 99
3 80 99 81
3 81 99 100
3 81 100 82
3 82 100 101
3 82 101 83
3 83 101 102
3 83 102 84
3 84 102 103
3 84 103 85
3 85 103 104
3 85 104 86
3 86 104 105
3 86 105 87
3 87 105 106
3 87 106 88
3 88 106 107
3 88 107 89
3 89 107 108
3 89 108 90
3 90 108 109
3 90 109 91
3 91 109 110
3 91 110 92
3 92 110 111
3 92 111 93
3 93 111 112
3 93 112 94
3 94 112 113
3 94 113 95
3 95 113 114
3 95 114 96
3 96 114 115
3 96 115 97
3 97 115 116
3 97 116 98
3 98 116 117
3 98 117 60
3 60 117 59
3 5 6 99
3 99 6 118
3 99 118 100
3 100 118 119
3 100 119 101
3 101 119 120
3 101 120 102
3 102 120 121
3 102 121 103
3 103 121 122
3 103 122 104
3 104 122 123
3 104 123 105
3 105 123 124
3 105 124 106
3 106 124 125
3 106 125 107
3 107 125 126
3 107 126 108
3 108 126 127
3 108 127 109
3 109 127 128
3 109 128 110
3 110 128 129
3 110 129 111
3 111 129 130
3 111 130 112
3 112 130 131
3 112 131 113
3 113 131 132
3 113 132 114
3 114 132 133
3 114 133 115
3 115 133 134
3 115 134 116
3 116 134 135
3 116 135 117
3 117 135 136
3 117 136 59
3 59 136 58
3 6 7 118
3 118 7 137
3 118 137 119
3 119 137 138
3 119 138 120
3 120 138 139
3 120 139 121
3 121 139 140
3 121 140 122
3 122 140 141
3 122 141 123
3 123 141 142
3 123 142 124
3 124 142 143
3 124 143 125
3 125 143 144
3 125 144 126
3 126 144 145
3 126 145 127
3 127 145 146
3 127 146 128
3 128 146 147
3 128 147 129
3 129 147 148
3 129 148 130
3 130 148 149
3 130 149 131
3 131 149 150
3 131 150 132
3 132 150 151
3 132 151 133
3 133 151 152
3 133 152 134
3 134 152 153
3 134 153 135
3 135 153 154
3 135 154 136
3 136 154 155
3 136 155 58
3 58 155 57
3 7 8 137
3 137 8 156
3 137 156 138
3 138 156 157
3 138 157 139
3 139 157 158
3 139 158 140
3 140 158 159
3 140 159 141
3 141 159 160
3 141 160 142
3 142 160 161
3 142 161 143
3 143 161 162
3 143 162 144
3 144 162 163
3 144 163 145
3 145 163 164
3 145 164 146
3 146 164 165
3 146 165 147
3 147 165 166
3 147 166 148
3 148 166 167
3 148 167 149
3 149 167 168
3 149 168 150
3 150 168 169
3 150 169 151
3 151 169 170
3 151 170 152
3 152 170 171
3 152 171 153
3 153 171 172
3 153 172 154
3 154 172 173
3 154 173 155
3 155 173 174
3 155 174 57
3 57 174 56
3 8 9 156
3 156 9 175
3 156 175 157
3 157 175 176
3 157 176 158
3 158 176 177
3 158 177 159
3 159 177 178
3 159 178 160
3 160 178 179
3 160 179 161
3 161 179 180
3 161 180 162
3 162 180 181
3 162 181 163
3 163 181 182
3 163 182 164
3 164 182 183
3 164 183 165
3 165 183 184
3 165 184 166
3 166 184 185
3 166 185 167
3 167 185 186
3 167 186 168
3 168 186 187
3 168 187 169
3 169 187 188
3 169 188 170
3 170 188 189
3 170 189 171
3 171 189 190
3 171 190 172
3 172 190 191
3 172 191 173
3 173 191 192
3 173 192 174
3 174 192 193
3 174 193 56
3 56 193 55
3 9 10 175
3 175 10 194
3 175 194 176
3 176 194 195
3 176 195 177
3 177 195 196
3 177 196 178
3 178 196 197
3 178 197 179
3 179 197 198
3 179 198 180
3 180 198 199
3 180 199 181
3 181 199 200
3 181 200 182
3 182 200 201
3 182 201 183
3 183 201 202
3 183 202 184
3 184 202 203
3 184 203 185
3 185 203 204
3 185 204 186
3 186 204 205
3 186 205 187
3 187 205 206
3 187 206 188
3 188 206 207
3 188 207 189
3 189 207 208
3 189 208 190
3 190 208 209
3 190 209 191
3 191 209 210
3 191 210 192
3 192 210 211
3 192 211 193
3 193 211 212
3 193 212 55
3 55 212 54
3 10 11 194
3 194 11 213
3 194 213 195
3 195 213 214
3 195 214 196
3 196 214 215
3 196 215 197
3 197 215 216
3 197 216 198
3 198 216 217
3 198 217 199
3 199 217 218
3 199 218 200
3 200 218 219
3 200 219 201
3 201 219 220
3 201 220 202
3 202 220 221
3 202 221 203
3 203 221 222
3 203 222 204
3 204 222 223
3 204 223 205
3 205 223 224
3 205 224 206
3 206 224 225
3 206 225 207
3 207 225 226
3 207 226 208
3 208 226 227
3 208 227 209
3 209 227 228
3 209 228 210
3 210 228 229
3 210 229 211
3 211 229 230
3 211 230 212
3 212 230 231
3 212 231 54
3 54 231 53
3 11 12 213
3 213 12 232
3 213 232 214
3 214 232 233
3 214 233 215
3 215 233 234
3 215 234 216
3 216 234 235
3 216 235 217
3 217 235 236
3 217 236 218
3 218 236 237
3 218 237 219
3 219 237 238
3 219 238 220
3 220 238 239
3 220 239 221
3 221 239 240
3 221 240 222
3 222 240 241
3 222 241 223
3 223 241 242
3 223 242 224
3 224 242 243
3 224 243 225
3 225 243 244
3 225 244 226
3 226 244 245
3 226 245 227
3 227 245 246
3 227 246 228
3 228 246 247
3 228 247 229
3 229 247 248
3 229 248 230
3 230 248 249
3 230 249 231
3 231 249 250
3 231 250 53
3 53 250 52
3 12 13 232
3 232 13 251
3 232 251 233
3 233 251 252
3 233 252 234
3 234 252 253
3 234 253 235
3 235 253 254
3 235 254 236
3 236 254 255
3 236 255 237
3 237 255 256
3 237 256 238
3 238 256 257
3 238 257 239
3 239 257 258
3 239 258 240
3 240 258 259
3 240 259 241
3 241 259 260
3 241 260 242
3 242 260 261
3 242 261 243
3 243 261 262
3 243 262 244
3 244 262 263
3 244 263 245
3 245 263 264
3 245 264 246
3 246 264 265
3 246 265 247
3 247 265 266
3 247 266 248
3 248 266 267
3 248 267 249
3 249 267 268
3 249 268 250
3 250 268 269
3 250 269 52
3 52 269 51
3 13 14 251
3 251 14 270
3 251 270 252
3 252 270 271
3 252 271 253
3 253 271 272
3 253 272 254
3 254 272 273
3 254 273 255
3 255 273 274
3 255 274 256
3 256 274 275
3 256 275 257
3 257 275 276
3 257 276 258
3 258 276 277
3 258 277 259
3 259 277 278
3 259 278 260
3 260 278 279
3 260 279 261
3 261 279 280
3 261 280 262
3 262 280 281
3 262 281 263
3 263 281 282
3 263 282 264
3 264 282 283
3 264 283 265
3 265 283 284
3 265 284 266
3 266 284 285
3 266 285 267
3 267 285 286
3 267 286 268
3 268 286 287
3 268 287 269
3 269 287 288
3 269 288 51
3 51 288 50
3 14 15 270
3 270 15 289
3 270 289 271
3 271 289 290
3 271 290 272
3 272 290 291
3 272 291 273
3 273 291 292
3 273 292 274
3 274 292 293
3 274 293 275
3 275 293 294
3 275 294 276
3 276 294 295
3 276 295 277
3 277 295 296
3 277 296 278
3 278 296 297
3 278 297 279
3 279 297 298
3 279 298 280
3 280 298 299
3 280 299 281
3 281 299 300
3 281 300 282
3 282 300 301
3 282 301 283
3 283 301 302
3 283 302 284
3 284 302 303
3 284 303 285
3 285 303 304
3 285 304 286
3 286 304 305
3 286 305 287
3 287 305 306
3 287 306 288
3 288 306 307
3 288 307 50
3 50 307 49
3 15 16 289
3 289 16 308
3 289 308 290
3 290 308 309
3 290 309 291
3 291 309 310
3 291 310 292
3 292 310 311
3 292 311 293
3 293 311 312
3 293 312 294
3 294 312 313
3 294 313 295
3 295 313 314
3 295 314 296
3 296 314 315
3 296 315 297
3 297 315 316
3 297 316 298
3 298 316 317
3 298 317 299
3 299 317 318
3 299 318 300
3 300 318 319
3 300 319 301
3 301 319 320
3 301 320 302
3 302 320 321
3 302 321 303
3 303 321 322
3 303 322 304
3 304 322 323
3 304 323 305
3 305 323 324
3 305 324 306
3 306 324 325
3 306 325 307
3 307 325 326
3 307 326 49
3 49 326 48
3 16 17 308
3 308 17 327
3 308 327 309
3 309 327 328
3 309 328 310
3 310 328 329
3 310 329 311
3 311 329 330
3 311 330 312
3 312 330 331
3 312 331 313
3 313 331 332
3 313 332 314
3 314 332 333
3 314 333 315
3 315 333 334
3 315 334 316
3 316 334 335
3 316 335 317
3 317 335 336
3 317 336 318
3 318 336 337
3 318 337 319
3 319 337 338
3 319 338 320
3 320 338 339
3 320 339 321
3 321 339 340
3 321 340 322
3 322 340 341
3 322 341 323
3 323 341 342
3 323 342 324
3 324 342 343
3 324 343 325
3 325 343 344
3 325 344 326
3 326 344 345
3 326 345 48
3 48 345 47
3 17 18 327
3 327 18 346
3 327 346 328
3 328 346 347
3 328 347 329
3 329 347 348
3 329 348 330
3 330 348 349
3 330 349 331
3 331 349 350
3 331 350 332
3 332 350 351
3 332 351 333
3 333 351 352
3 333 352 334
3 334 352 353
3 334 353 335
3 335 353 354
3 335 354 336
3 336 354 355
3 336 355 337
3 337 355 356
3 337 356 338
3 338 356 357
3 338 357 339
3 339 357 358
3 339 358 340
3 340 358 359
3 340 359 341
3 341 359 360
3 341 360 342
3 342 360 361
3 342 361 343
3 343 361 362
3 343 362 344
3 344 362 363
3 344 363 345
3 345 363 364
3 345 364 47
3 47 364 46
3 18 19 346
3 346 19 365
3 346 365 347
3 347 365 366
3 347 366 348
3 348 366 367
3 348 367 349
3 349 367 368
3 349 368 350
3 350 368 369
3 350 369 351
3 351 369 370
3 351 370 352
3 352 370 371
3 352 371 353
3 353 371 372
3 353 372 354
3 354 372 373
3 354 373 355
3 355 373 374
3 355 374 356
3 356 374 375
3 356 375 357
3 357 375 376
3 357 376 358
3 358 376 377
3 358 377 359
3 359 377 378
3 359 378 360
3 360 378 379
3 360 379 361
3 361 379 380
3 361 380 362
3 362 380 381
3 362 381 363
3 363 381 382
3 363 382 364
3 364 382 383
3 364 383 46
3 46 383 45
3 19 20 365
3 365 20 384
3 365 384 366
3 366 384 385
3 366 385 367
3 367 385 386
3 367 386 368
3 368 386 387
3 368 387 369
3 369 387 388
3 369 388 370
3 370 388 389
3 370 389 371
3 371 389 390
3 371 390 372
3 372 390 391
3 372 391 373
3 373 391 392
3 373 392 374
3 374 392 393
3 374 393 375
3 375 393 394
3 375 394 376
3 376 394 395
3 376 395 377
3 377 395 396
3 377 396 378
3 378 396 397
3 378 397 379
3 379 397 398
3 379 398 380
3 380 398 399
3 380 399 381
3 381 399 400
3 381 400 382
3 382 400 401
3 382 401 383
3 383 401 402
3 383 402 45
3 45 402 44
3 20 21 384
3 384 21 403
3 384 403 385
3 385 403 404
3 385 404 386
3 386 404 405
3 386 405 387
3 387 405 406
3 387 406 388
3 388 406 407
3 388 407 389
3 389 407 408
3 389 408 390
3 390 408 409
3 390 409 391
3 391 409 410
3 391 410 392
3 392 410 411
3 392 411 393
3 393 411 412
3 393 412 394
3 394 412 413
3 394 413 395
3 395 413 414
3 395 414 396
3 396 414 415
3 396 415 397
3 397 415 416
3 397 416 398
3 398 416 417
3 398 417 399
3 399 417 418
3 399 418 400
3 400 418 419
3 400 419 401
3 401 419 420
3 401 420 402
3 402 420 421
3 402 421 44
3 44 421 43
3 21 22 403
3 403 22 422
3 403 422 404
3 404 422 423
3 404 423 405
3 405 423 424
3 405 424 406
3 406 424 425
3 406 425 407
3 407 425 426
3 407 426 408
3 408 426 427
3 408 427 409
3 409 427 428
3 409 428 410
3 410 428 429
3 410 429 411
3 411 429 430
3 411 430 412
3 412 430 431
3 412 431 413
3 413 431 432
3 413 432 414
3 414 432 433
3 414 433 415
3 415 433 434
3 415 434 416
3 416 434 435
3 416 435 417
3 417 435 436
3 417 436 418
3 418 436 437
3 418 437 419
3 419 437 438
3 419 438 420
3 420 438 439
3 420 439 421
3 421 439 440
3 421 440 43
3 43 440 42
3 22 1 422
3 422 1 23
3 422 23 423
3 423 23 24
3 423 24 424
3 424 24 25
3 424 25 425
3 425 25 26
3 425 26 426
3 426 26 27
3 426 27 427
3 427 27 28
3 427 28 428
3 428 28 29
3 428 29 429
3 429 29 30
3 429 30 430
3 430 30 31
3 430 31 431
3 431 31 32
3 431 32 432
3 432 32 33
3 432 33 433
3 433 33 34
3 433 34 434
3 434 34 35
3 434 35 435
3 435 35 36
3 435 36 436
3 436 36 37
3 436 37 437
3 437 37 38
3 437 38 438
3 438 38 39
3 438 39 439
3 439 39 40
3 439 40 440
3 440 40 41
3 440 41 42
3 42 41 2

CELL_TYPES 800
5
5
5
5
5
5
5
5
5
5
5
5
5
5
5
5
5
5
5
5
5
5
5
5
5
5
5
5
5
5
5
5
5
5
5
5
5
5
5
5
5
5
5
5
5
5
5
5
5
5
5
5
5
5
5
5
5
5
5
5
5
5
5
5
5
5
5
5
5
5
5
5
5
5
5
5
5
5
5
5
5
5
5
5
5
5
5
5
5
5
5
5
5
5
5
5
5
5
5
5
5
5
5
5
5
5
5
5
5
5
5
5
5
5
5
5
5
5
5
5
5
5
5
5
5
5
5
5
5
5
5
5
5
5
5
5
5
5
5
5
5
5
5
5
5
5
5
5
5
5
5
5
5
5
5
5
5
5
5
5
5
5
5
5
5
5
5
5
5
5
5
5
5
5
5
5
5
5
5
5
5
5
5
5
5
5
5
5
5
5
5
5
5
5
5
5
5
5
5
5
5
5
5
5
5
5
5
5
5
5
5
5
5
5
5
5
5
5
5
5
5
5
5
5
5
5
5
5
5
5
5
5
5
5
5
5
5
5
5
5
5
5
5
5
5
5
5
5
5
5
5
5
5
5
5
5
5
5
5
5
5
5
5
5
5
5
5
5
5
5
5
5
5
5
5
5
5
5
5
5
5
5
5
5
5
5
5
5
5
5
5
5
5
5
5
5
5
5
5
5
5
5
5
5
5
5
5
5
5
5
5
5
5
5
5
5
5
5
5
5
5
5
5
5
5
5
5
5
5
5
5
5
5
5
5
5
5
5
5
5
5
5
5
5
5
5
5
5
5
5
5
5
5
5
5
5
5
5
5
5
5
5
5
5
5
5
5
5
5
5
5
5
5
5
5
5
5
5
5
5
5
5
5
5
5
5
5
5
5
5
5
5
5
5
5
5
5
5
5
5
5
5
5
5
5
5
5
5
5
5
5
5
5
5
5
5
5
5
5
5
5
5
5
5
5
5
5
5
5
5
5
5
5
5
5
5
5
5
5
5
5
5
5
5
5
5
5
5
5
5
5
5
5
5
5
5
5
5
5
5
5
5
5
5
5
5
5
5
5
5
5
5
5
5
5
5
5
5
5
5
5
5
5
5
5
5
5
5
5
5
5
5
5
5
5
5
5
5
5
5
5
5
5
5
5
5
5
5
5
5
5
5
5
5
5
5
5
5
5
5
5
5
5
5
5
5
5
5
5
5
5
5
5
5
5
5
5
5
5
5
5
5
5
5
5
5
5
5
5
5
5
5
5
5
5
5
5
5
5
5
5
5
5
5
5
5
5
5
5
5
5
5
5
5
5
5
5
5
5
5
5
5
5
5
5
5
5
5
5
5
5
5
5
5
5
5
5
5
5
5
5
5
5
5
5
5
5
5
5
5
5
5
5
5
5
5
5
5
5
5
5
5
5
5
5
5
5
5
5
5
5
5
5
5
5
5
5
5
5
5
5
5
5
5
5
5
5
5
5
5
5
5
5
5
5
5
5
5
5
5
5
5
5
5
5
5
5
5
5
5
5
5
5
5
5
5
5
5
5
5
5
5
5
5
5
5
5
5
5
5
5
5
5
5
5
5
5
5
5
5
5
5
5
5
5
5
5
5
5
5
5
5
5
5
5
5
5
5
5
5
5
5
5
5
5
5
5
5
5
5
5
5
5
5
5
5
5
5
5
5
5
5
5
5
5
5
5
5
5
5
5
5
5
5
5
5
5
5
5
5
5
5
5
5
5
5
5
5
5
5
5
5
5
5
5
5
5
5
5
5
5
5
5
5
5
5
5
5
5
5
5
5
5
5
5
5
5
5
5
5

CELL_DATA 800
SCALARS Temperatura double 1
LOOKUP_TABLE default
0.0188742
0.0894545
0.0918826
0.233892
0.161044
0.362252
0.221944
0.4745
0.274556
0.570604
0.31887
0.650546
0.354877
0.714316
0.382574
0.761907
0.401958
0.793315
0.413028
0.808537
0.415782
0.807573
0.410221
0.79042
0.396343
0.757081
0.37415
0.707556
0.343642
0.641844
0.304817
0.559942
0.257666
0.461823
0.202144
0.347355
0.138033
0.215908
0.064206
0.064206
0.0918826
0.233892
0.374398
0.572494
0.630105
0.873063
0.854806
1.13556
1.04844
1.35993
1.21099
1.54613
1.34241
1.69415
1.4427
1.80397
1.51185
1.87558
1.54985
1.90898
1.5567
1.90415
1.53239
1.86111
1.47694
1.77985
1.39033
1.66038
1.27257
1.50269
1.12367
1.30679
0.943611
1.07268
0.732347
0.800318
0.489729
0.489729
0.215908
0.138033
0.161044
0.362252
0.630105
0.873063
1.05179
1.32634
1.42216
1.72205
1.74113
2.06013
2.00867
2.34053
2.22475
2.56323
2.38933
2.7282
2.50242
2.83543
2.56399
2.88491
2.57404
2.87664
2.53257
2.81062
2.43958
2.68685
2.29508
2.50533
2.09908
2.26608
1.85158
1.96911
1.5526
1.61446
1.20216
1.20216
0.800318
0.732347
0.347355
0.202144
0.221944
0.4745
0.854806
1.13556
1.42216
1.72205
1.92033
2.23395
2.34927
2.67119
2.70893
3.03374
2.99926
3.32155
3.22024
3.53461
3.37185
3.67289
3.45408
3.73638
3.46692
3.72508
3.41037
3.63899
3.28443
3.47811
3.08912
3.24246
2.82443
2.93205
2.49041
2.5469
2.08706
2.08706
1.61446
1.5526
1.07268
0.943611
0.461823
0.257666
0.274556
0.570604
1.04844
1.35993
1.74113
2.06013
2.34927
2.67119
2.87282
3.19307
3.3117
3.62571
3.6659
3.96908
3.93538
4.22316
4.12011
4.38791
4.22009
4.46333
4.2353
4.44942
4.16575
4.34618
4.01144
4.1536
3.77238
3.87171
3.44858
3.50052
3.04007
3.04007
2.5469
2.49041
1.96911
1.85158
1.30679
1.12367
0.559942
0.304817
0.31887
0.650546
1.21099
1.54613
2.00867
2.34053
2.70893
3.03374
3.3117
3.62571
3.81695
4.1164
4.22462
4.50578
4.5347
4.7938
4.74715
4.98046
4.86197
5.06573
4.87914
5.04962
4.79867
4.93213
4.62056
4.71326
4.34481
4.39303
3.97146
3.97146
3.50052
3.44858
2.93205
2.82443
2.26608
2.09908
1.50269
1.27257
0.641844
0.343642
0.354877
0.714316
1.34241
1.69415
2.22475
2.56323
2.99926
3.32155
3.6659
3.96908
4.22462
4.50578
4.67539
4.93159
5.01817
5.2465
5.25294
5.45049
5.37969
5.54354
5.39841
5.52566
5.30909
5.39683
5.11175
5.15707
4.80639
4.80639
4.39303
4.34481
3.87171
3.77238
3.24246
3.08912
2.50533
2.29508
1.66038
1.39033
0.707556
0.37415
0.382574
0.761907
1.4427
1.80397
2.38933
2.7282
3.22024
3.53461
3.93538
4.22316
4.5347
4.7938
5.01817
5.2465
5.38576
5.58124
5.63745
5.79799
5.77322
5.89674
5.79307
5.87749
5.69698
5.74023
5.48498
5.48498
5.15707
5.11175
4.71326
4.62056
4.1536
4.01144
3.47811
3.28443
2.68685
2.43958
1.77985
1.47694
0.757081
0.396343
0.401958
0.793315
1.51185
1.87558
2.50242
2.83543
3.37185
3.67289
4.12011
4.38791
4.74715
4.98046
5.25294
5.45049
5.63745
5.79799
5.90066
6.02293
6.04254
6.12531
6.0631
6.1051
5.96233
5.96233
5.74023
5.69698
5.39683
5.30909
4.93213
4.79867
4.34618
4.16575
3.63899
3.41037
2.81062
2.53257
1.86111
1.53239
0.79042
0.410221
0.413028
0.808537
1.54985
1.90898
2.56399
2.88491
3.45408
3.73638
4.22009
4.46333
4.86197
5.06573
5.37969
5.54354
5.77322
5.89674
6.04254
6.12531
6.18763
6.22922
6.20849
6.20849
6.1051
6.0631
5.87749
5.79307
5.52566
5.39841
5.04962
4.87914
4.44942
4.2353
3.72508
3.46692
2.87664
2.57404
1.90415
1.5567
0.807573
0.415782
0.415782
0.807573
1.5567
1.90415
2.57404
2.87664
3.46692
3.72508
4.2353
4.44942
4.87914
5.04962
5.39841
5.52566
5.79307
5.87749
6.0631
6.1051
6.20849
6.20849
6.22922
6.18763
6.12531
6.04254
5.89674
5.77322
5.54354
5.37969
5.06573
4.86197
4.46333
4.22009
3.73638
3.45408
2.88491
2.56399
1.90898
1.54985
0.808537
0.413028
0.410221
0.79042
1.53239
1.86111
2.53257
2.81062
3.41037
3.63899
4.16575
4.34618
4.79867
4.93213
5.30909
5.39683
5.69698
5.74023
5.96233
5.96233
6.1051
6.0631
6.12531
6.04254
6.02293
5.90066
5.79799
5.63745
5.45049
5.25294
4.98046
4.74715
4.38791
4.12011
3.67289
3.37185
2.83543
2.50242
1.87558
1.51185
0.793315
0.401958
0.396343
0.757081
1.47694
1.77985
2.43958
2.68685
3.28443
3.47811
4.01144
4.1536
4.62056
4.71326
5.11175
5.15707
5.48498
5.48498
5.74023
5.69698
5.87749
5.79307
5.89674
5.77322
5.79799
5.63745
5.58124
5.38576
5.2465
5.01817
4.7938
4.5347
4.22316
3.93538
3.53461
3.22024
2.7282
2.38933
1.80397
1.4427
0.761907
0.382574
0.37415
0.707556
1.39033
1.66038
2.29508
2.50533
3.08912
3.24246
3.77238
3.87171
4.34481
4.39303
4.80639
4.80639
5.15707
5.11175
5.39683
5.30909
5.52566
5.39841
5.54354
5.37969
5.45049
5.25294
5.2465
5.01817
4.93159
4.67539
4.50578
4.22462
3.96908
3.6659
3.32155
2.99926
2.56323
2.22475
1.69415
1.34241
0.714316
0.354877
0.343642
0.641844
1.27257
1.50269
2.09908
2.26608
2.82443
2.93205
3.44858
3.50052
3.97146
3.97146
4.39303
4.34481
4.71326
4.62056
4.93213
4.79867
5.04962
4.87914
5.06573
4.86197
4.98046
4.74715
4.7938
4.5347
4.50578
4.22462
4.1164
3.81695
3.62571
3.3117
3.03374
2.70893
2.34053
2.00867
1.54613
1.21099
0.650546
0.31887
0.304817
0.559942
1.12367
1.30679
1.85158
1.96911
2.49041
2.5469
3.04007
3.04007
3.50052
3.44858
3.87171
3.77238
4.1536
4.01144
4.34618
4.16575
4.44942
4.2353
4.46333
4.22009
4.38791
4.12011
4.22316
3.93538
3.96908
3.6659
3.62571
3.3117
3.19307
2.87282
2.67119
2.34927
2.06013
1.74113
1.35993
1.04844
0.570604
0.274556
0.257666
0.461823
0.943611
1.07268
1.5526
1.61446
2.08706
2.08706
2.5469
2.49041
2.93205
2.82443
3.24246
3.08912
3.47811
3.28443
3.63899
3.41037
3.72508
3.46692
3.73638
3.45408
3.67289
3.37185
3.53461
3.22024
3.32155
2.99926
3.03374
2.70893
2.67119
2.34927
2.23395
1.92033
1.72205
1.42216
1.13556
0.854806
0.4745
0.221944
0.202144
0.347355
0.732347
0.800318
1.20216
1.20216
1.61446
1.5526
1.96911
1.85158
2.26608
2.09908
2.50533
2.29508
2.68685
2.43958
2.81062
2.53257
2.87664
2.57404
2.88491
2.56399
2.83543
2.50242
2.7282
2.38933
2.56323
2.22475
2.34053
2.00867
2.06013
1.74113
1.72205
1.42216
1.32634
1.05179
0.873063
0.630105
0.362252
0.161044
0.138033
0.215908
0.489729
0.489729
0.800318
0.732347
1.07268
0.943611
1.30679
1.12367
1.50269
1.27257
1.66038
1.39033
1.77985
1.47694
1.86111
1.53239
1.90415
1.5567
1.90898
1.54985
1.87558
1.51185
1.80397
1.4427
1.69415
1.34241
1.54613
1.21099
1.35993
1.04844
1.13556
0.854806
0.873063
0.630105
0.572494
0.374398
0.233892
0.0918826
0.064206
0.064206
0.215908
0.138033
0.347355
0.202144
0.461823
0.257666
0.559942
0.304817
0.641844
0.343642
0.707556
0.37415
0.757081
0.396343
0.79042
0.410221
0.807573
0.415782
0.808537
0.413028
0.793315
0.401958
0.761907
0.382574
0.714316
0.354877
0.650546
0.31887
0.570604
0.274556
0.4745
0.221944
0.362252
0.161044
0.233892
0.0918826
0.0894545
0.0188742
