# vtk DataFile Version 3.0
Malha 2D com triângulos e temperatura
ASCII
DATASET UNSTRUCTURED_GRID

POINTS 10000 double
0 0 0
1 0 0
1 1 0
0 1 0
0.010101 0 0
0.020202 0 0
0.030303 0 0
0.040404 0 0
0.0505051 0 0
0.0606061 0 0
0.0707071 0 0
0.0808081 0 0
0.0909091 0 0
0.10101 0 0
0.111111 0 0
0.121212 0 0
0.131313 0 0
0.141414 0 0
0.151515 0 0
0.161616 0 0
0.171717 0 0
0.181818 0 0
0.191919 0 0
0.20202 0 0
0.212121 0 0
0.222222 0 0
0.232323 0 0
0.242424 0 0
0.252525 0 0
0.262626 0 0
0.272727 0 0
0.282828 0 0
0.292929 0 0
0.30303 0 0
0.313131 0 0
0.323232 0 0
0.333333 0 0
0.343434 0 0
0.353535 0 0
0.363636 0 0
0.373737 0 0
0.383838 0 0
0.393939 0 0
0.40404 0 0
0.414141 0 0
0.424242 0 0
0.434343 0 0
0.444444 0 0
0.454545 0 0
0.464646 0 0
0.474747 0 0
0.484848 0 0
0.494949 0 0
0.505051 0 0
0.515152 0 0
0.525253 0 0
0.535354 0 0
0.545455 0 0
0.555556 0 0
0.565657 0 0
0.575758 0 0
0.585859 0 0
0.59596 0 0
0.606061 0 0
0.616162 0 0
0.626263 0 0
0.636364 0 0
0.646465 0 0
0.656566 0 0
0.666667 0 0
0.676768 0 0
0.686869 0 0
0.69697 0 0
0.707071 0 0
0.717172 0 0
0.727273 0 0
0.737374 0 0
0.747475 0 0
0.757576 0 0
0.767677 0 0
0.777778 0 0
0.787879 0 0
0.79798 0 0
0.808081 0 0
0.818182 0 0
0.828283 0 0
0.838384 0 0
0.848485 0 0
0.858586 0 0
0.868687 0 0
0.878788 0 0
0.888889 0 0
0.89899 0 0
0.909091 0 0
0.919192 0 0
0.929293 0 0
0.939394 0 0
0.949495 0 0
0.959596 0 0
0.969697 0 0
0.979798 0 0
0.989899 0 0
1 0.010101 0
1 0.020202 0
1 0.030303 0
1 0.040404 0
1 0.0505051 0
1 0.0606061 0
1 0.0707071 0
1 0.0808081 0
1 0.0909091 0
1 0.10101 0
1 0.111111 0
1 0.121212 0
1 0.131313 0
1 0.141414 0
1 0.151515 0
1 0.161616 0
1 0.171717 0
1 0.181818 0
1 0.191919 0
1 0.20202 0
1 0.212121 0
1 0.222222 0
1 0.232323 0
1 0.242424 0
1 0.252525 0
1 0.262626 0
1 0.272727 0
1 0.282828 0
1 0.292929 0
1 0.30303 0
1 0.313131 0
1 0.323232 0
1 0.333333 0
1 0.343434 0
1 0.353535 0
1 0.363636 0
1 0.373737 0
1 0.383838 0
1 0.393939 0
1 0.40404 0
1 0.414141 0
1 0.424242 0
1 0.434343 0
1 0.444444 0
1 0.454545 0
1 0.464646 0
1 0.474747 0
1 0.484848 0
1 0.494949 0
1 0.505051 0
1 0.515152 0
1 0.525253 0
1 0.535354 0
1 0.545455 0
1 0.555556 0
1 0.565657 0
1 0.575758 0
1 0.585859 0
1 0.59596 0
1 0.606061 0
1 0.616162 0
1 0.626263 0
1 0.636364 0
1 0.646465 0
1 0.656566 0
1 0.666667 0
1 0.676768 0
1 0.686869 0
1 0.69697 0
1 0.707071 0
1 0.717172 0
1 0.727273 0
1 0.737374 0
1 0.747475 0
1 0.757576 0
1 0.767677 0
1 0.777778 0
1 0.787879 0
1 0.79798 0
1 0.808081 0
1 0.818182 0
1 0.828283 0
1 0.838384 0
1 0.848485 0
1 0.858586 0
1 0.868687 0
1 0.878788 0
1 0.888889 0
1 0.89899 0
1 0.909091 0
1 0.919192 0
1 0.929293 0
1 0.939394 0
1 0.949495 0
1 0.959596 0
1 0.969697 0
1 0.979798 0
1 0.989899 0
0.989899 1 0
0.979798 1 0
0.969697 1 0
0.959596 1 0
0.949495 1 0
0.939394 1 0
0.929293 1 0
0.919192 1 0
0.909091 1 0
0.89899 1 0
0.888889 1 0
0.878788 1 0
0.868687 1 0
0.858586 1 0
0.848485 1 0
0.838384 1 0
0.828283 1 0
0.818182 1 0
0.808081 1 0
0.79798 1 0
0.787879 1 0
0.777778 1 0
0.767677 1 0
0.757576 1 0
0.747475 1 0
0.737374 1 0
0.727273 1 0
0.717172 1 0
0.707071 1 0
0.69697 1 0
0.686869 1 0
0.676768 1 0
0.666667 1 0
0.656566 1 0
0.646465 1 0
0.636364 1 0
0.626263 1 0
0.616162 1 0
0.606061 1 0
0.59596 1 0
0.585859 1 0
0.575758 1 0
0.565657 1 0
0.555556 1 0
0.545455 1 0
0.535354 1 0
0.525253 1 0
0.515152 1 0
0.505051 1 0
0.494949 1 0
0.484848 1 0
0.474747 1 0
0.464646 1 0
0.454545 1 0
0.444444 1 0
0.434343 1 0
0.424242 1 0
0.414141 1 0
0.40404 1 0
0.393939 1 0
0.383838 1 0
0.373737 1 0
0.363636 1 0
0.353535 1 0
0.343434 1 0
0.333333 1 0
0.323232 1 0
0.313131 1 0
0.30303 1 0
0.292929 1 0
0.282828 1 0
0.272727 1 0
0.262626 1 0
0.252525 1 0
0.242424 1 0
0.232323 1 0
0.222222 1 0
0.212121 1 0
0.20202 1 0
0.191919 1 0
0.181818 1 0
0.171717 1 0
0.161616 1 0
0.151515 1 0
0.141414 1 0
0.131313 1 0
0.121212 1 0
0.111111 1 0
0.10101 1 0
0.0909091 1 0
0.0808081 1 0
0.0707071 1 0
0.0606061 1 0
0.0505051 1 0
0.040404 1 0
0.030303 1 0
0.020202 1 0
0.010101 1 0
0 0.989899 0
0 0.979798 0
0 0.969697 0
0 0.959596 0
0 0.949495 0
0 0.939394 0
0 0.929293 0
0 0.919192 0
0 0.909091 0
0 0.89899 0
0 0.888889 0
0 0.878788 0
0 0.868687 0
0 0.858586 0
0 0.848485 0
0 0.838384 0
0 0.828283 0
0 0.818182 0
0 0.808081 0
0 0.79798 0
0 0.787879 0
0 0.777778 0
0 0.767677 0
0 0.757576 0
0 0.747475 0
0 0.737374 0
0 0.727273 0
0 0.717172 0
0 0.707071 0
0 0.69697 0
0 0.686869 0
0 0.676768 0
0 0.666667 0
0 0.656566 0
0 0.646465 0
0 0.636364 0
0 0.626263 0
0 0.616162 0
0 0.606061 0
0 0.59596 0
0 0.585859 0
0 0.575758 0
0 0.565657 0
0 0.555556 0
0 0.545455 0
0 0.535354 0
0 0.525253 0
0 0.515152 0
0 0.505051 0
0 0.494949 0
0 0.484848 0
0 0.474747 0
0 0.464646 0
0 0.454545 0
0 0.444444 0
0 0.434343 0
0 0.424242 0
0 0.414141 0
0 0.40404 0
0 0.393939 0
0 0.383838 0
0 0.373737 0
0 0.363636 0
0 0.353535 0
0 0.343434 0
0 0.333333 0
0 0.323232 0
0 0.313131 0
0 0.30303 0
0 0.292929 0
0 0.282828 0
0 0.272727 0
0 0.262626 0
0 0.252525 0
0 0.242424 0
0 0.232323 0
0 0.222222 0
0 0.212121 0
0 0.20202 0
0 0.191919 0
0 0.181818 0
0 0.171717 0
0 0.161616 0
0 0.151515 0
0 0.141414 0
0 0.131313 0
0 0.121212 0
0 0.111111 0
0 0.10101 0
0 0.0909091 0
0 0.0808081 0
0 0.0707071 0
0 0.0606061 0
0 0.0505051 0
0 0.040404 0
0 0.030303 0
0 0.020202 0
0 0.010101 0
0.010101 0.010101 0
0.010101 0.020202 0
0.010101 0.030303 0
0.010101 0.040404 0
0.010101 0.0505051 0
0.010101 0.0606061 0
0.010101 0.0707071 0
0.010101 0.0808081 0
0.010101 0.0909091 0
0.010101 0.10101 0
0.010101 0.111111 0
0.010101 0.121212 0
0.010101 0.131313 0
0.010101 0.141414 0
0.010101 0.151515 0
0.010101 0.161616 0
0.010101 0.171717 0
0.010101 0.181818 0
0.010101 0.191919 0
0.010101 0.20202 0
0.010101 0.212121 0
0.010101 0.222222 0
0.010101 0.232323 0
0.010101 0.242424 0
0.010101 0.252525 0
0.010101 0.262626 0
0.010101 0.272727 0
0.010101 0.282828 0
0.010101 0.292929 0
0.010101 0.30303 0
0.010101 0.313131 0
0.010101 0.323232 0
0.010101 0.333333 0
0.010101 0.343434 0
0.010101 0.353535 0
0.010101 0.363636 0
0.010101 0.373737 0
0.010101 0.383838 0
0.010101 0.393939 0
0.010101 0.40404 0
0.010101 0.414141 0
0.010101 0.424242 0
0.010101 0.434343 0
0.010101 0.444444 0
0.010101 0.454545 0
0.010101 0.464646 0
0.010101 0.474747 0
0.010101 0.484848 0
0.010101 0.494949 0
0.010101 0.505051 0
0.010101 0.515152 0
0.010101 0.525253 0
0.010101 0.535354 0
0.010101 0.545455 0
0.010101 0.555556 0
0.010101 0.565657 0
0.010101 0.575758 0
0.010101 0.585859 0
0.010101 0.59596 0
0.010101 0.606061 0
0.010101 0.616162 0
0.010101 0.626263 0
0.010101 0.636364 0
0.010101 0.646465 0
0.010101 0.656566 0
0.010101 0.666667 0
0.010101 0.676768 0
0.010101 0.686869 0
0.010101 0.69697 0
0.010101 0.707071 0
0.010101 0.717172 0
0.010101 0.727273 0
0.010101 0.737374 0
0.010101 0.747475 0
0.010101 0.757576 0
0.010101 0.767677 0
0.010101 0.777778 0
0.010101 0.787879 0
0.010101 0.79798 0
0.010101 0.808081 0
0.010101 0.818182 0
0.010101 0.828283 0
0.010101 0.838384 0
0.010101 0.848485 0
0.010101 0.858586 0
0.010101 0.868687 0
0.010101 0.878788 0
0.010101 0.888889 0
0.010101 0.89899 0
0.010101 0.909091 0
0.010101 0.919192 0
0.010101 0.929293 0
0.010101 0.939394 0
0.010101 0.949495 0
0.010101 0.959596 0
0.010101 0.969697 0
0.010101 0.979798 0
0.010101 0.989899 0
0.020202 0.010101 0
0.020202 0.020202 0
0.020202 0.030303 0
0.020202 0.040404 0
0.020202 0.0505051 0
0.020202 0.0606061 0
0.020202 0.0707071 0
0.020202 0.0808081 0
0.020202 0.0909091 0
0.020202 0.10101 0
0.020202 0.111111 0
0.020202 0.121212 0
0.020202 0.131313 0
0.020202 0.141414 0
0.020202 0.151515 0
0.020202 0.161616 0
0.020202 0.171717 0
0.020202 0.181818 0
0.020202 0.191919 0
0.020202 0.20202 0
0.020202 0.212121 0
0.020202 0.222222 0
0.020202 0.232323 0
0.020202 0.242424 0
0.020202 0.252525 0
0.020202 0.262626 0
0.020202 0.272727 0
0.020202 0.282828 0
0.020202 0.292929 0
0.020202 0.30303 0
0.020202 0.313131 0
0.020202 0.323232 0
0.020202 0.333333 0
0.020202 0.343434 0
0.020202 0.353535 0
0.020202 0.363636 0
0.020202 0.373737 0
0.020202 0.383838 0
0.020202 0.393939 0
0.020202 0.40404 0
0.020202 0.414141 0
0.020202 0.424242 0
0.020202 0.434343 0
0.020202 0.444444 0
0.020202 0.454545 0
0.020202 0.464646 0
0.020202 0.474747 0
0.020202 0.484848 0
0.020202 0.494949 0
0.020202 0.505051 0
0.020202 0.515152 0
0.020202 0.525253 0
0.020202 0.535354 0
0.020202 0.545455 0
0.020202 0.555556 0
0.020202 0.565657 0
0.020202 0.575758 0
0.020202 0.585859 0
0.020202 0.59596 0
0.020202 0.606061 0
0.020202 0.616162 0
0.020202 0.626263 0
0.020202 0.636364 0
0.020202 0.646465 0
0.020202 0.656566 0
0.020202 0.666667 0
0.020202 0.676768 0
0.020202 0.686869 0
0.020202 0.69697 0
0.020202 0.707071 0
0.020202 0.717172 0
0.020202 0.727273 0
0.020202 0.737374 0
0.020202 0.747475 0
0.020202 0.757576 0
0.020202 0.767677 0
0.020202 0.777778 0
0.020202 0.787879 0
0.020202 0.79798 0
0.020202 0.808081 0
0.020202 0.818182 0
0.020202 0.828283 0
0.020202 0.838384 0
0.020202 0.848485 0
0.020202 0.858586 0
0.020202 0.868687 0
0.020202 0.878788 0
0.020202 0.888889 0
0.020202 0.89899 0
0.020202 0.909091 0
0.020202 0.919192 0
0.020202 0.929293 0
0.020202 0.939394 0
0.020202 0.949495 0
0.020202 0.959596 0
0.020202 0.969697 0
0.020202 0.979798 0
0.020202 0.989899 0
0.030303 0.010101 0
0.030303 0.020202 0
0.030303 0.030303 0
0.030303 0.040404 0
0.030303 0.0505051 0
0.030303 0.0606061 0
0.030303 0.0707071 0
0.030303 0.0808081 0
0.030303 0.0909091 0
0.030303 0.10101 0
0.030303 0.111111 0
0.030303 0.121212 0
0.030303 0.131313 0
0.030303 0.141414 0
0.030303 0.151515 0
0.030303 0.161616 0
0.030303 0.171717 0
0.030303 0.181818 0
0.030303 0.191919 0
0.030303 0.20202 0
0.030303 0.212121 0
0.030303 0.222222 0
0.030303 0.232323 0
0.030303 0.242424 0
0.030303 0.252525 0
0.030303 0.262626 0
0.030303 0.272727 0
0.030303 0.282828 0
0.030303 0.292929 0
0.030303 0.30303 0
0.030303 0.313131 0
0.030303 0.323232 0
0.030303 0.333333 0
0.030303 0.343434 0
0.030303 0.353535 0
0.030303 0.363636 0
0.030303 0.373737 0
0.030303 0.383838 0
0.030303 0.393939 0
0.030303 0.40404 0
0.030303 0.414141 0
0.030303 0.424242 0
[...]
CELL_DATA 9801
SCALARS Temperatura double 1
LOOKUP_TABLE default
0.501048
0.774592
0.867686
0.908114
0.92973
0.943109
0.95222
0.958833
0.963854
0.967794
0.970967
0.973574
0.975753
0.977599
0.979182
0.980552
0.981748
0.9828
0.983732
0.984561
0.985303
0.98597
0.986571
0.987115
0.987609
0.988058
0.988467
0.988841
0.989182
0.989495
0.989781
0.990044
0.990284
0.990504
0.990705
0.990889
0.991057
0.991209
0.991347
0.991471
0.991583
0.991682
0.991769
0.991845
0.99191
0.991965
0.992009
0.992042
0.992066
0.992079
0.992083
0.992076
0.99206
0.992033
0.991996
0.991948
0.991889
0.991819
0.991737
0.991642
0.991535
0.991415
0.99128
0.99113
0.990964
0.99078
0.990578
0.990355
0.990111
0.989843
0.989548
0.989225
0.98887
0.988479
0.988049
0.987574
0.987049
0.986467
0.98582
0.985098
0.984288
0.983377
0.982345
0.981169
0.97982
0.978258
0.976433
0.974276
0.97169
0.96854
0.964622
0.959625
0.953036
0.943951
0.930602
0.909021
0.868639
0.775586
0.501794
0.228173
0.502777
0.654668
0.74235
0.796785
0.833059
0.858701
0.877696
0.892292
0.903836
0.913182
0.920892
0.927354
0.932841
0.937553
0.941637
0.945208
0.948352
0.951137
0.953618
0.955839
0.957835
0.959636
0.961267
0.962747
0.964093
0.965321
0.966442
0.967468
0.968406
0.969266
0.970054
0.970775
0.971436
0.972041
0.972593
0.973096
0.973553
0.973968
0.974341
0.974676
0.974974
0.975237
0.975465
0.97566
0.975824
0.975956
0.976057
0.976128
0.976168
0.976179
0.976159
0.976109
0.976028
0.975916
0.975772
0.975595
0.975384
0.975138
0.974855
0.974534
0.974171
0.973766
0.973316
0.972817
0.972265
0.971658
0.97099
0.970256
0.969451
0.968567
0.967596
0.96653
0.965359
0.964068
0.962645
0.961072
0.959328
0.95739
0.955227
0.952805
0.95008
0.946996
0.943486
0.939463
0.934813
0.929388
0.922989
0.915342
0.90606
0.894578
0.880045
0.86111
0.835524
0.799296
0.74488
0.657138
0.504949
0.229314
0.134974
0.351762
0.504167
0.608424
0.680824
0.732638
0.770963
0.800197
0.823103
0.841466
0.856477
0.86895
0.87946
0.888422
0.896144
0.902856
0.908736
0.913923
0.918525
0.92263
0.926308
0.929617
0.932606
0.935313
0.937771
0.94001
0.942051
0.943917
0.945623
0.947186
0.948618
0.94993
0.951133
0.952234
0.953241
0.954162
0.955001
0.955764
0.956455
0.957078
0.957637
0.958134
0.958572
0.958953
0.959279
0.959552
0.959772
0.959941
0.960059
0.960127
0.960144
0.960111
0.960028
0.959893
0.959706
0.959466
0.959171
0.958819
0.958408
0.957936
0.9574
0.956796
0.95612
0.955369
0.954537
0.953618
0.952605
0.951492
0.95027
0.948929
0.947457
0.945842
0.944069
0.94212
0.939975
0.93761
0.934998
0.932104
0.92889
0.925309
0.921301
0.916796
0.911708
0.905926
0.899313
0.89169
0.882826
0.872414
0.860037
0.845119
0.826843
0.804017
0.77485
0.736565
0.684743
0.61224
0.507682
0.354565
0.136239
0.0944049
0.26426
0.400755
0.50532
0.584496
0.644849
0.691548
0.728331
0.757826
0.781875
0.801783
0.818484
0.832662
0.844823
0.85535
0.864535
0.872608
0.879746
0.886094
0.891767
0.896859
0.901446
0.905593
0.909353
0.912772
0.915886
0.918729
0.921328
0.923708
0.925887
0.927885
0.929717
0.931396
0.932934
0.934342
0.935629
0.936802
0.937869
0.938835
0.939707
0.940489
0.941184
0.941797
0.94233
0.942787
0.943168
0.943477
0.943713
0.943878
0.943973
0.943998
0.943952
0.943836
0.943647
0.943386
0.943049
0.942636
0.942144
0.941569
0.940909
0.940159
0.939314
0.93837
0.93732
0.936156
0.934872
0.933458
0.931904
0.930198
0.928326
0.926273
0.924021
0.92155
0.918836
0.915851
0.912563
0.908933
0.904917
0.900462
0.895503
0.889962
0.883747
0.876741
0.868801
0.859746
0.849349
0.837315
0.82326
0.806676
0.786875
0.762919
0.733495
0.696748
0.650027
0.589556
0.510096
0.40496
0.267406
0.0957125
0.0726662
0.209751
0.328643
0.426879
0.506257
0.57001
0.621388
0.663138
0.697424
0.725897
0.749803
0.770083
0.787451
0.802454
0.815517
0.826969
0.837072
0.846037
0.854031
0.861192
0.867631
0.873444
0.878706
0.883485
0.887834
0.8918
0.895424
0.89874
0.901777
0.904561
0.907115
0.909458
0.911606
0.913575
0.915378
0.917026
0.918529
0.919896
0.921135
0.922253
0.923256
0.924148
0.924934
0.925618
0.926204
0.926694
0.927089
0.927393
0.927605
0.927727
0.927759
0.9277
0.927551
0.927309
0.926974
0.926542
0.926013
0.925381
0.924644
0.923798
0.922836
0.921753
0.920543
0.919198
0.917708
0.916064
0.914254
0.912265
0.910083
0.90769
0.905068
0.902193
0.89904
0.89558
0.891778
0.887593
0.88298
0.877883
0.872236
0.865962
0.858966
0.851136
0.842334
0.832391
0.821096
0.808186
0.793329
0.776097
0.755941
0.73214
0.703744
0.669494
0.627719
0.576225
0.512212
0.432355
0.333301
0.213089
0.0739885
0.0591757
0.173299
0.276817
0.366804
0.443092
0.506984
0.560302
0.604877
0.642329
0.674006
0.700996
0.724166
0.7442
0.761645
0.776931
0.790406
0.802348
0.812985
0.822501
0.831049
0.838756
0.845726
0.852049
0.857799
0.863039
0.867825
0.872202
0.876211
0.879887
0.883259
0.886354
0.889195
0.891802
0.894193
0.896383
0.898385
0.900212
0.901875
0.903382
0.904742
0.905962
0.907048
0.908005
0.908838
0.909552
0.910148
0.91063
0.911
0.911259
0.911408
0.911447
0.911375
0.911193
0.910899
0.910491
0.909966
0.909321
0.908553
0.907656
0.906626
0.905456
0.90414
0.902668
0.901033
0.899222
0.897226
0.895028
0.892615
0.889969
0.887069
0.883892
0.880413
0.8766
0.87242
0.867832
0.862788
0.857236
0.85111
0.844336
0.836824
0.828469
0.819144
0.808694
0.796934
0.783635
0.768516
0.751227
0.731331
0.708278
0.681373
0.649738
0.612267
0.567587
0.514039
0.449738
0.372785
0.281775
0.176747
0.0605001
0.0499567
0.147429
0.238314
0.320092
0.391918
0.454089
0.507503
0.553286
0.592567
0.626375
0.655599
0.68099
0.703165
0.722633
0.739813
0.755046
0.768615
0.780752
0.79165
0.801471
0.810348
0.818397
0.825714
0.83238
0.838466
0.844031
0.849128
0.853801
0.858091
0.862029
0.865647
0.868971
0.872023
0.874823
0.877389
0.879737
0.88188
0.883831
0.885601
0.887198
0.888631
0.889907
0.891032
0.892012
0.89285
0.893552
0.894119
0.894554
0.894858
0.895034
0.89508
0.894996
0.894783
0.894437
0.893957
0.89334
0.892583
0.89168
0.890627
0.889417
0.888044
0.886499
0.884772
0.882854
0.880732
0.878391
0.875818
0.872993
0.869897
0.866507
0.862796
0.858736
0.854291
0.849422
0.844085
0.838227
0.831787
0.824696
0.81687
0.808213
0.79861
0.787924
0.775993
0.762622
0.747576
0.730569
0.711255
0.689209
0.663916
0.634743
0.600928
0.561559
0.515578
0.461815
0.399092
0.326437
0.24347
0.150939
0.0512766
0.043237
0.128181
0.208803
0.283107
0.350101
0.409605
0.461965
0.507814
0.547893
0.582947
0.613667
0.64067
0.664488
0.685576
0.704318
0.72104
0.736014
0.749469
0.761598
0.772565
0.78251
0.79155
0.799786
0.807305
0.814182
0.820481
0.826259
0.831563
0.836437
0.840917
0.845037
0.848824
0.852304
0.8555
0.85843
0.861112
0.863562
0.865794
0.867818
0.869646
0.871286
0.872747
0.874036
0.875159
0.87612
0.876924
0.877574
0.878073
0.878422
0.878624
0.878677
0.878582
0.878337
0.877941
0.877392
0.876686
0.875818
0.874785
0.873579
0.872195
0.870624
0.868856
0.866882
0.86469
0.862265
0.859594
0.856657
0.853436
0.849908
0.846047
0.841826
0.837211
0.832165
0.826645
0.820603
0.813981
0.806714
0.798729
0.789936
0.780233
0.769502
0.757602
0.744366
0.729599
0.713068
0.694495
0.673551
0.649844
0.622907
0.592196
0.557075
0.516831
0.470687
0.417862
0.357674
0.289712
0.214089
0.131723
0.0445486
0.0381111
0.113316
0.185558
0.253283
0.315556
0.371994
0.422637
0.467792
0.507916
0.54352
0.575122
0.603209
0.628222
0.650553
0.670543
0.68849
0.704648
0.719236
0.732441
0.744424
0.755325
0.765261
0.774337
0.782642
0.790252
0.797235
0.80365
0.809548
0.814973
0.819967
0.824563
0.828792
0.832682
0.836256
0.839536
0.84254
0.845286
0.847787
0.850058
0.852109
0.85395
0.855591
0.857039
0.8583
0.859381
0.860285
0.861016
0.861577
0.86197
0.862197
0.862257
0.86215
0.861876
0.861432
0.860815
0.860022
0.859048
0.857888
0.856535
0.854981
0.853219
0.851237
0.849024
0.846568
0.843853
0.840862
0.837578
0.833978
0.830038
0.82573
0.821025
0.815887
0.810275
0.804145
0.797444
0.790114
0.782086
0.773282
0.763611
0.75297
0.741237
0.728272
0.71391
0.697962
0.680202
0.660372
0.638167
0.613237
0.585178
0.553534
0.517798
0.477429
0.431884
0.380669
0.323429
0.260073
0.190926
0.11687
0.0394118
0.034066
0.101493
0.166812
0.228817
0.286683
0.33997
0.388552
0.432535
0.472174
0.507806
0.5398
0.568529
0.594348
0.617583
0.638532
0.657455
0.674585
0.690124
0.70425
0.717118
0.728862
0.739599
0.749431
0.758449
0.76673
0.774343
0.781349
0.787799
0.793742
0.799217
0.804263
0.80891
0.813188
0.817123
0.820736
0.824048
0.827077
0.829837
0.832345
0.834611
0.836646
0.83846
0.840061
0.841457
0.842652
0.843653
0.844462
0.845084
0.845519
0.845771
0.845838
0.84572
0.845417
0.844926
0.844245
0.843368
0.842291
0.841009
0.839514
0.837798
0.835852
0.833664
0.831223
0.828514
0.825521
0.822227
0.818612
0.814652
0.810322
0.805593
0.800433
0.794804
0.788665
0.781969
0.774661
0.766682
0.75796
0.748417
0.737962
0.726491
0.713884
0.700003
0.684691
0.667767
0.649022
0.628217
0.605083
0.579314
0.550569
0.518477
0.482648
0.442684
0.398221
0.348968
0.294779
0.235734
0.172229
0.105044
0.0353542
0.0307888
0.0918611
0.151391
0.208429
0.262275
0.312489
0.358869
0.4014
0.4402
0.475475
0.507482
0.536496
0.562793
0.586639
0.608285
0.627956
0.64586
0.662179
0.677077
0.690699
0.703174
0.714613
0.725118
0.734776
0.743664
0.751851
0.759398
0.766359
0.77278
0.778705
0.784171
0.789211
0.793855
0.79813
0.802059
0.805663
0.80896
0.811969
0.814702
0.817173
0.819394
0.821374
0.823123
0.824647
0.825953
0.827047
0.827932
0.828611
0.829088
0.829363
0.829437
0.82931
0.82898
0.828444
0.8277
0.826743
0.825568
0.824169
0.822538
0.820667
0.818545
0.816161
0.813502
0.810553
0.807297
0.803715
0.799787
0.795489
0.790793
0.78567
0.780086
0.774002
0.767376
0.76016
0.752299
0.74373
0.734386
0.724185
0.713039
0.700846
0.687489
0.672838
0.656743
0.639037
0.619528
0.598005
0.574231
0.547945
0.518869
0.486708
0.451167
0.411967
0.368873
0.321735
0.270532
0.21543
0.15683
0.0953996
0.0320631
0.0280769
0.0838597
0.138486
0.191201
0.241414
0.288717
0.332877
0.373809
0.411544
0.446195
0.477929
0.506943
0.533448
0.557657
0.579772
0.599988
0.618483
0.635421
0.65095
0.665202
0.678299
0.690346
0.701439
0.711662
0.721093
0.729797
0.737835
0.745261
0.752123
0.758462
0.764318
0.769724
0.77471
0.779304
0.783529
0.787409
0.790961
0.794203
0.797151
0.799817
0.802215
0.804353
0.806243
0.80789
0.809302
0.810485
0.811442
0.812178
0.812694
0.812993
0.813073
0.812936
0.81258
0.812002
0.811198
0.810165
0.808897
0.807386
0.805626
0.803607
0.801319
0.798749
0.795884
0.792708
0.789204
0.785353
0.781132
0.776517
0.77148
0.765991
0.760015
0.753513
0.746442
0.738754
0.730393
0.721298
0.711401
0.700623
0.688878
0.676067
0.662081
0.646797
0.630076
0.611765
0.591693
0.569674
0.545506
0.518972
0.489845
0.457901
0.42292
0.384714
0.343143
0.298149
0.249784
0.198252
0.143928
0.087378
0.0293364
0.0257935
0.077103
0.127528
0.176461
0.223404
0.267991
0.309983
0.349261
0.385797
0.41964
0.450892
0.479689
0.506186
0.530547
0.552938
0.573519
0.592444
0.609854
0.625881
0.640648
0.654262
0.666823
0.678422
0.68914
0.699048
0.708212
0.716692
0.724538
0.7318
0.738519
0.744732
0.750476
0.755779
0.760669
0.765172
0.769309
0.7731
0.776563
0.779713
0.782564
0.785128
0.787417
0.789439
0.791204
0.792717
0.793984
0.795011
0.7958
0.796354
0.796675
0.796762
0.796616
0.796235
0.795617
0.794757
0.793652
0.792295
0.790679
0.788797
0.786639
0.784193
0.781448
0.77839
0.775001
0.771265
0.767162
0.762669
0.75776
0.752409
0.746584
0.740249
0.733367
0.725893
0.71778
0.708974
0.699414
0.689033
0.677757
0.665502
0.652175
0.637674
0.621883
0.604679
0.585922
0.565463
0.54314
0.518784
0.492216
0.463259
0.431741
0.397507
0.360434
0.320451
0.277558
0.231849
0.183535
0.132959
0.0805951
0.0270376
0.0238428
0.0713176
0.118105
0.163709
0.207711
0.249784
0.289702
0.327324
0.362593
0.395511
0.426133
0.454547
0.480863
0.505207
0.52771
0.548502
0.567712
0.585463
0.60187
0.617041
0.631076
0.644064
0.656091
0.667231
0.677554
0.687123
0.695992
0.704215
0.711836
0.718898
0.725438
0.731491
0.737085
0.74225
0.747009
0.751386
0.755399
0.759067
0.762406
0.765431
0.768152
0.770582
0.772731
0.774606
0.776214
0.777562
0.778654
0.779494
0.780084
0.780426
0.78052
0.780366
0.779962
0.779306
0.778393
0.77722
0.77578
0.774065
0.772069
0.76978
0.767187
0.764278
0.761039
0.757453
0.753502
0.749165
0.744421
0.739243
0.733604
0.727472
0.720812
0.713587
0.705754
0.697264
0.688066
0.678101
0.667304
0.655605
0.642925
0.629176
0.614264
0.598085
0.580525
0.561463
0.540768
0.518304
0.493929
0.4675
0.438878
0.407937
0.374571
0.338707
0.30032
0.259445
0.216198
0.170785
0.123512
0.0747792
0.0250709
0.0221556
0.0663048
0.109913
0.152569
0.19392
0.233678
0.271631
0.307635
0.341611
0.373535
0.403425
0.431334
0.457337
0.481528
0.504006
0.524878
0.544249
0.562224
0.578903
0.594379
0.608743
0.622077
0.634456
0.645952
0.65663
0.666547
0.675758
0.684312
0.692254
0.699623
0.706457
0.712789
0.718649
0.724065
0.72906
0.733657
0.737876
0.741736
0.745251
0.748436
0.751305
0.753867
0.756134
0.758112
0.759811
0.761234
0.762388
0.763276
0.7639
0.764262
0.764362
0.764201
0.763776
0.763084
0.762122
0.760886
0.759367
0.757561
0.755457
0.753046
0.750317
0.747257
0.74385
0.740081
0.735932
0.731381
0.726407
0.720984
0.715084
0.708675
0.701725
0.694195
0.686043
0.677224
0.667686
0.657374
0.646226
0.634176
0.621149
0.607066
0.59184
0.575377
0.557577
0.538332
0.517532
0.495061
0.470803
0.444645
0.416483
0.386225
0.353802
0.319177
0.282355
0.243396
0.202423
0.15963
0.115286
0.0697321
0.0233672
0.0206807
0.0619163
0.102721
0.142752
0.181707
0.219336
0.255441
0.289884
0.322573
0.353467
0.382559
0.409876
0.435466
0.459394
0.481737
0.502578
0.522004
0.540101
0.556955
0.572649
0.587259
0.600861
0.613524
0.625313
0.636286
0.6465
0.656005
0.664847
0.67307
0.680711
0.687808
0.694391
0.70049
0.706133
0.711342
0.716141
0.72055
0.724584
0.728262
0.731597
0.734601
0.737287
0.739663
0.741739
0.743521
0.745015
0.746227
0.747159
0.747816
0.748197
0.748304
0.748136
0.747691
0.746967
0.745959
0.744664
0.743073
0.741181
0.738979
0.736455
0.7336
0.7304
0.72684
0.722904
0.718573
0.713828
0.708646
0.703001
0.696866
0.690212
0.683004
0.675205
0.666776
0.657672
0.647845
0.637241
0.625804
0.613469
0.600171
0.585834
0.570381
0.553728
0.535787
0.516465
0.495668
0.473301
0.449269
0.423486
0.395873
0.366366
0.334925
0.30154
0.266235
0.229082
0.190205
0.149784
0.108054
0.0653066
0.0218755
0.0193793
0.0580398
0.0963535
0.134032
0.170816
0.206485
0.240861
0.27381
0.305238
0.335091
0.363347
0.390011
0.415112
0.438694
0.460812
0.481532
0.500922
0.519053
0.535998
0.551828
0.566611
0.580412
0.593294
0.605315
0.61653
0.62699
0.636743
0.645832
0.654298
0.662177
0.669504
0.67631
0.682623
0.688469
0.693873
0.698854
0.703434
0.707629
0.711456
0.714928
0.718058
0.720857
0.723334
0.7255
0.727359
0.72892
0.730185
0.73116
0.731846
0.732246
0.732359
0.732185
0.731722
0.730968
0.729918
0.728568
0.726912
0.724941
0.722648
0.720021
0.717051
0.713723
0.710023
0.705935
0.701441
0.69652
0.691151
0.685309
0.678967
0.672095
0.664662
0.656631
0.647964
0.638619
0.62855
0.617707
0.606037
0.593481
0.579977
0.56546
0.549858
0.533098
0.515103
0.495793
0.475091
0.452917
0.429198
0.403865
0.376863
0.348151
0.317709
0.285543
0.251693
0.216236
0.179291
0.141023
0.10164
0.0613906
0.0205571
0.0182217
0.0545881
0.0906734
0.126232
0.161041
0.194906
0.227666
0.259194
0.289398
0.318216
0.345617
0.37159
0.396149
0.41932
0.441142
0.461665
0.480943
0.499034
0.515997
0.531893
0.54678
0.560717
0.573758
0.585957
0.597363
0.608023
0.61798
0.627276
0.635948
0.644031
0.651559
0.658559
0.665061
0.671088
0.676664
0.68181
0.686544
0.690885
0.694846
0.698443
0.701687
0.70459
0.707161
0.709409
0.71134
0.712961
0.714276
0.71529
0.716004
0.716421
0.71654
0.71636
0.715882
0.7151
0.714012
0.712613
0.710896
0.708854
0.706477
0.703758
0.700682
0.697239
0.693413
0.689189
0.684548
0.679471
0.673937
0.667921
0.661397
0.654337
0.646709
0.638481
0.629614
0.620069
0.609803
0.598771
0.586921
0.5742
0.560554
0.54592
0.530239
0.513444
0.495469
0.476248
0.455715
0.433806
0.410464
0.385638
0.35929
0.331395
0.301949
0.270971
0.238508
0.204639
0.169478
0.133172
0.0959075
0.0578975
0.0193821
0.0171844
0.0514928
0.085572
0.119211
0.152217
0.184417
0.215668
0.245851
0.274875
0.302677
0.329217
0.354477
0.378456
0.401168
0.422639
0.442906
0.462008
0.479994
0.496912
0.512812
0.527745
0.541761
0.554908
0.567234
0.578783
0.589598
0.599719
0.609184
0.618028
0.626283
0.633981
0.64115
0.647815
0.654001
0.659729
0.66502
0.669893
0.674363
0.678445
0.682155
0.685502
0.688499
0.691155
0.693478
0.695475
0.697152
0.698513
0.699562
0.700302
0.700734
0.700859
0.700676
0.700182
0.699376
0.698254
0.69681
0.695038
0.692931
0.690481
0.687676
0.684507
0.680961
0.677023
0.672677
0.667907
0.662693
0.657013
0.650846
0.644166
0.636945
0.629154
0.62076
0.611729
0.602024
0.591604
0.580426
0.568445
0.555613
0.541878
0.527188
0.511487
0.49472
0.476829
0.457759
0.437456
0.415869
0.392954
0.368675
0.343006
0.315937
0.287473
0.257643
0.226498
0.194115
0.160602
0.126093
0.0907496
0.0547592
0.0183273
0.0162489
0.0486996
0.0809623
0.112855
0.144208
0.174871
0.204712
0.233622
0.261516
0.288327
0.314014
0.338549
0.361923
0.384142
0.40522
0.425181
0.444058
0.461885
0.478703
0.494554
0.50948
0.523524
0.536729
0.549136
0.560785
0.571714
0.581961
0.591559
0.600542
0.608939
0.616779
0.62409
0.630895
0.637217
0.643078
0.648496
0.65349
0.658074
0.662265
0.666074
0.669515
0.672597
0.675329
0.67772
0.679776
0.681503
0.682906
0.683988
0.684752
0.685198
0.685329
0.685142
0.684636
0.683808
0.682655
0.681171
0.67935
0.677185
0.674668
0.671789
0.668537
0.664899
0.660862
0.65641
0.651527
0.646194
0.64039
0.634094
0.627281
0.619926
0.611999
0.603472
0.594311
0.584482
0.573946
0.562666
0.550599
0.537701
0.523928
0.509232
0.493565
0.476879
0.459126
0.440259
0.420235
0.399014
0.376563
0.352857
0.327881
0.301635
0.274132
0.245406
0.215509
0.184518
0.152531
0.119671
0.0860798
0.0519217
0.0173743
0.0154005
0.0461646
0.076774
0.10707
0.136904
0.166142
0.194666
0.222375
0.249187
0.275039
0.299885
0.323694
0.346451
0.368152
0.388805
0.408423
0.427032
0.444656
0.461329
0.477084
0.491957
0.505985
0.519204
0.53165
0.543359
0.554366
0.564702
0.574401
0.583491
0.592001
0.599958
0.607385
0.614307
0.620745
0.626719
0.632246
0.637345
0.64203
0.646315
0.650213
0.653735
0.656892
0.659692
0.662144
0.664253
0.666026
0.667466
0.668578
0.669363
0.669824
0.669959
0.669769
0.669252
0.668405
0.667225
0.665706
0.663842
0.661626
0.659051
0.656106
0.652781
0.649063
0.64494
0.640397
0.635417
0.629982
0.624073
0.61767
0.610748
0.603283
0.595249
0.586617
0.577358
0.567438
0.556824
0.545479
0.533366
0.520446
0.506678
0.492021
0.476434
0.459875
0.442304
0.423682
0.403976
0.383154
0.361193
0.338076
0.313798
0.288364
0.261796
0.234127
0.205413
0.175726
0.145156
0.113814
0.0818284
0.0493413
0.0165081
0.0146268
0.0438521
0.0729495
0.10178
0.130213
0.158129
0.18542
0.211994
0.237776
0.262702
0.286725
0.309814
0.331947
0.353116
0.373319
0.392567
0.410873
0.428259
0.444748
0.460368
0.475148
0.48912
0.502314
0.514762
0.526496
0.537545
0.547939
0.557707
0.566876
0.575472
0.583519
0.59104
0.598057
0.60459
0.610658
0.616278
0.621466
0.626237
0.630603
0.634578
0.638172
0.641395
0.644255
0.646761
0.648917
0.65073
0.652204
0.653342
0.654147
0.65462
0.65476
0.654568
0.654042
0.653178
0.651974
0.650424
0.648523
0.646263
0.643637
0.640636
0.637248
0.633462
0.629266
0.624645
0.619584
0.614064
0.608069
0.601578
0.594569
0.587019
0.578903
0.570194
0.560866
0.550887
0.540226
0.528852
0.51673
0.503824
0.490101
0.475522
0.460054
0.443661
0.426308
0.407967
0.388608
0.36821
0.346756
0.324237
0.300654
0.276019
0.250354
0.223697
0.196102
0.167637
0.138386
0.108448
0.0779382
0.0469824
0.0157166
0.0139181
0.0417326
0.0694414
0.0969219
0.124058
0.150743
0.17688
0.202383
0.227182
0.251217
0.274441
0.29682
0.318329
0.338956
0.358695
0.377549
0.395528
0.412645
0.428918
0.444369
0.459023
0.472905
0.48604
0.498457
0.510182
0.521243
0.531665
0.541474
0.550694
0.55935
0.567464
0.575056
0.582148
0.588757
0.594901
0.600597
0.60586
0.610703
0.615138
0.619179
0.622834
0.626114
0.629026
0.631578
0.633776
0.635624
0.637128
0.63829
0.639112
0.639595
0.639741
0.639547
0.639013
0.638136
0.636911