# vtk DataFile Version 3.0
Malha 2D com triângulos e temperatura
ASCII
DATASET UNSTRUCTURED_GRID

POINTS 961 double
0 0 0
1 0 0
1 1 0
0 1 0
0.0333333 0 0
0.0666667 0 0
0.1 0 0
0.133333 0 0
0.166667 0 0
0.2 0 0
0.233333 0 0
0.266667 0 0
0.3 0 0
0.333333 0 0
0.366667 0 0
0.4 0 0
0.433333 0 0
0.466667 0 0
0.5 0 0
0.533333 0 0
0.566667 0 0
0.6 0 0
0.633333 0 0
0.666667 0 0
0.7 0 0
0.733333 0 0
0.766667 0 0
0.8 0 0
0.833333 0 0
0.866667 0 0
0.9 0 0
0.933333 0 0
0.966667 0 0
1 0.0333333 0
1 0.0666667 0
1 0.1 0
1 0.133333 0
1 0.166667 0
1 0.2 0
1 0.233333 0
1 0.266667 0
1 0.3 0
1 0.333333 0
1 0.366667 0
1 0.4 0
1 0.433333 0
1 0.466667 0
1 0.5 0
1 0.533333 0
1 0.566667 0
1 0.6 0
1 0.633333 0
1 0.666667 0
1 0.7 0
1 0.733333 0
1 0.766667 0
1 0.8 0
1 0.833333 0
1 0.866667 0
1 0.9 0
1 0.933333 0
1 0.966667 0
0.966667 1 0
0.933333 1 0
0.9 1 0
0.866667 1 0
0.833333 1 0
0.8 1 0
0.766667 1 0
0.733333 1 0
0.7 1 0
0.666667 1 0
0.633333 1 0
0.6 1 0
0.566667 1 0
0.533333 1 0
0.5 1 0
0.466667 1 0
0.433333 1 0
0.4 1 0
0.366667 1 0
0.333333 1 0
0.3 1 0
0.266667 1 0
0.233333 1 0
0.2 1 0
0.166667 1 0
0.133333 1 0
0.1 1 0
0.0666667 1 0
0.0333333 1 0
0 0.966667 0
0 0.933333 0
0 0.9 0
0 0.866667 0
0 0.833333 0
0 0.8 0
0 0.766667 0
0 0.733333 0
0 0.7 0
0 0.666667 0
0 0.633333 0
0 0.6 0
0 0.566667 0
0 0.533333 0
0 0.5 0
0 0.466667 0
0 0.433333 0
0 0.4 0
0 0.366667 0
0 0.333333 0
0 0.3 0
0 0.266667 0
0 0.233333 0
0 0.2 0
0 0.166667 0
0 0.133333 0
0 0.1 0
0 0.0666667 0
0 0.0333333 0
0.0333333 0.0333333 0
0.0333333 0.0666667 0
0.0333333 0.1 0
0.0333333 0.133333 0
0.0333333 0.166667 0
0.0333333 0.2 0
0.0333333 0.233333 0
0.0333333 0.266667 0
0.0333333 0.3 0
0.0333333 0.333333 0
0.0333333 0.366667 0
0.0333333 0.4 0
0.0333333 0.433333 0
0.0333333 0.466667 0
0.0333333 0.5 0
0.0333333 0.533333 0
0.0333333 0.566667 0
0.0333333 0.6 0
0.0333333 0.633333 0
0.0333333 0.666667 0
0.0333333 0.7 0
0.0333333 0.733333 0
0.0333333 0.766667 0
0.0333333 0.8 0
0.0333333 0.833333 0
0.0333333 0.866667 0
0.0333333 0.9 0
0.0333333 0.933333 0
0.0333333 0.966667 0
0.0666667 0.0333333 0
0.0666667 0.0666667 0
0.0666667 0.1 0
0.0666667 0.133333 0
0.0666667 0.166667 0
0.0666667 0.2 0
0.0666667 0.233333 0
0.0666667 0.266667 0
0.0666667 0.3 0
0.0666667 0.333333 0
0.0666667 0.366667 0
0.0666667 0.4 0
0.0666667 0.433333 0
0.0666667 0.466667 0
0.0666667 0.5 0
0.0666667 0.533333 0
0.0666667 0.566667 0
0.0666667 0.6 0
0.0666667 0.633333 0
0.0666667 0.666667 0
0.0666667 0.7 0
0.0666667 0.733333 0
0.0666667 0.766667 0
0.0666667 0.8 0
0.0666667 0.833333 0
0.0666667 0.866667 0
0.0666667 0.9 0
0.0666667 0.933333 0
0.0666667 0.966667 0
0.1 0.0333333 0
0.1 0.0666667 0
0.1 0.1 0
0.1 0.133333 0
0.1 0.166667 0
0.1 0.2 0
0.1 0.233333 0
0.1 0.266667 0
0.1 0.3 0
0.1 0.333333 0
0.1 0.366667 0
0.1 0.4 0
0.1 0.433333 0
0.1 0.466667 0
0.1 0.5 0
0.1 0.533333 0
0.1 0.566667 0
0.1 0.6 0
0.1 0.633333 0
0.1 0.666667 0
0.1 0.7 0
0.1 0.733333 0
0.1 0.766667 0
0.1 0.8 0
0.1 0.833333 0
0.1 0.866667 0
0.1 0.9 0
0.1 0.933333 0
0.1 0.966667 0
0.133333 0.0333333 0
0.133333 0.0666667 0
0.133333 0.1 0
0.133333 0.133333 0
0.133333 0.166667 0
0.133333 0.2 0
0.133333 0.233333 0
0.133333 0.266667 0
0.133333 0.3 0
0.133333 0.333333 0
0.133333 0.366667 0
0.133333 0.4 0
0.133333 0.433333 0
0.133333 0.466667 0
0.133333 0.5 0
0.133333 0.533333 0
0.133333 0.566667 0
0.133333 0.6 0
0.133333 0.633333 0
0.133333 0.666667 0
0.133333 0.7 0
0.133333 0.733333 0
0.133333 0.766667 0
0.133333 0.8 0
0.133333 0.833333 0
0.133333 0.866667 0
0.133333 0.9 0
0.133333 0.933333 0
0.133333 0.966667 0
0.166667 0.0333333 0
0.166667 0.0666667 0
0.166667 0.1 0
0.166667 0.133333 0
0.166667 0.166667 0
0.166667 0.2 0
0.166667 0.233333 0
0.166667 0.266667 0
0.166667 0.3 0
0.166667 0.333333 0
0.166667 0.366667 0
0.166667 0.4 0
0.166667 0.433333 0
0.166667 0.466667 0
0.166667 0.5 0
0.166667 0.533333 0
0.166667 0.566667 0
0.166667 0.6 0
0.166667 0.633333 0
0.166667 0.666667 0
0.166667 0.7 0
0.166667 0.733333 0
0.166667 0.766667 0
0.166667 0.8 0
0.166667 0.833333 0
0.166667 0.866667 0
0.166667 0.9 0
0.166667 0.933333 0
0.166667 0.966667 0
0.2 0.0333333 0
0.2 0.0666667 0
0.2 0.1 0
0.2 0.133333 0
0.2 0.166667 0
0.2 0.2 0
0.2 0.233333 0
0.2 0.266667 0
0.2 0.3 0
0.2 0.333333 0
0.2 0.366667 0
0.2 0.4 0
0.2 0.433333 0
0.2 0.466667 0
0.2 0.5 0
0.2 0.533333 0
0.2 0.566667 0
0.2 0.6 0
0.2 0.633333 0
0.2 0.666667 0
0.2 0.7 0
0.2 0.733333 0
0.2 0.766667 0
0.2 0.8 0
0.2 0.833333 0
0.2 0.866667 0
0.2 0.9 0
0.2 0.933333 0
0.2 0.966667 0
0.233333 0.0333333 0
0.233333 0.0666667 0
0.233333 0.1 0
0.233333 0.133333 0
0.233333 0.166667 0
0.233333 0.2 0
0.233333 0.233333 0
0.233333 0.266667 0
0.233333 0.3 0
0.233333 0.333333 0
0.233333 0.366667 0
0.233333 0.4 0
0.233333 0.433333 0
0.233333 0.466667 0
0.233333 0.5 0
0.233333 0.533333 0
0.233333 0.566667 0
0.233333 0.6 0
0.233333 0.633333 0
0.233333 0.666667 0
0.233333 0.7 0
0.233333 0.733333 0
0.233333 0.766667 0
0.233333 0.8 0
0.233333 0.833333 0
0.233333 0.866667 0
0.233333 0.9 0
0.233333 0.933333 0
0.233333 0.966667 0
0.266667 0.0333333 0
0.266667 0.0666667 0
0.266667 0.1 0
0.266667 0.133333 0
0.266667 0.166667 0
0.266667 0.2 0
0.266667 0.233333 0
0.266667 0.266667 0
0.266667 0.3 0
0.266667 0.333333 0
0.266667 0.366667 0
0.266667 0.4 0
0.266667 0.433333 0
0.266667 0.466667 0
0.266667 0.5 0
0.266667 0.533333 0
0.266667 0.566667 0
0.266667 0.6 0
0.266667 0.633333 0
0.266667 0.666667 0
0.266667 0.7 0
0.266667 0.733333 0
0.266667 0.766667 0
0.266667 0.8 0
0.266667 0.833333 0
0.266667 0.866667 0
0.266667 0.9 0
0.266667 0.933333 0
0.266667 0.966667 0
0.3 0.0333333 0
0.3 0.0666667 0
0.3 0.1 0
0.3 0.133333 0
0.3 0.166667 0
0.3 0.2 0
0.3 0.233333 0
0.3 0.266667 0
0.3 0.3 0
0.3 0.333333 0
0.3 0.366667 0
0.3 0.4 0
0.3 0.433333 0
0.3 0.466667 0
0.3 0.5 0
0.3 0.533333 0
0.3 0.566667 0
0.3 0.6 0
0.3 0.633333 0
0.3 0.666667 0
0.3 0.7 0
0.3 0.733333 0
0.3 0.766667 0
0.3 0.8 0
0.3 0.833333 0
0.3 0.866667 0
0.3 0.9 0
0.3 0.933333 0
0.3 0.966667 0
0.333333 0.0333333 0
0.333333 0.0666667 0
0.333333 0.1 0
0.333333 0.133333 0
0.333333 0.166667 0
0.333333 0.2 0
0.333333 0.233333 0
0.333333 0.266667 0
0.333333 0.3 0
0.333333 0.333333 0
0.333333 0.366667 0
0.333333 0.4 0
0.333333 0.433333 0
0.333333 0.466667 0
0.333333 0.5 0
0.333333 0.533333 0
0.333333 0.566667 0
0.333333 0.6 0
0.333333 0.633333 0
0.333333 0.666667 0
0.333333 0.7 0
0.333333 0.733333 0
0.333333 0.766667 0
0.333333 0.8 0
0.333333 0.833333 0
0.333333 0.866667 0
0.333333 0.9 0
0.333333 0.933333 0
0.333333 0.966667 0
0.366667 0.0333333 0
0.366667 0.0666667 0
0.366667 0.1 0
0.366667 0.133333 0
0.366667 0.166667 0
0.366667 0.2 0
0.366667 0.233333 0
0.366667 0.266667 0
0.366667 0.3 0
0.366667 0.333333 0
0.366667 0.366667 0
0.366667 0.4 0
0.366667 0.433333 0
0.366667 0.466667 0
0.366667 0.5 0
0.366667 0.533333 0
0.366667 0.566667 0
0.366667 0.6 0
0.366667 0.633333 0
0.366667 0.666667 0
0.366667 0.7 0
0.366667 0.733333 0
0.366667 0.766667 0
0.366667 0.8 0
0.366667 0.833333 0
0.366667 0.866667 0
0.366667 0.9 0
0.366667 0.933333 0
0.366667 0.966667 0
0.4 0.0333333 0
0.4 0.0666667 0
0.4 0.1 0
0.4 0.133333 0
0.4 0.166667 0
0.4 0.2 0
0.4 0.233333 0
0.4 0.266667 0
0.4 0.3 0
0.4 0.333333 0
0.4 0.366667 0
0.4 0.4 0
0.4 0.433333 0
0.4 0.466667 0
0.4 0.5 0
0.4 0.533333 0
0.4 0.566667 0
0.4 0.6 0
0.4 0.633333 0
0.4 0.666667 0
0.4 0.7 0
0.4 0.733333 0
0.4 0.766667 0
0.4 0.8 0
0.4 0.833333 0
0.4 0.866667 0
0.4 0.9 0
0.4 0.933333 0
0.4 0.966667 0
0.433333 0.0333333 0
0.433333 0.0666667 0
0.433333 0.1 0
0.433333 0.133333 0
0.433333 0.166667 0
0.433333 0.2 0
0.433333 0.233333 0
0.433333 0.266667 0
0.433333 0.3 0
0.433333 0.333333 0
0.433333 0.366667 0
0.433333 0.4 0
0.433333 0.433333 0
0.433333 0.466667 0
0.433333 0.5 0
0.433333 0.533333 0
0.433333 0.566667 0
0.433333 0.6 0
0.433333 0.633333 0
0.433333 0.666667 0
0.433333 0.7 0
0.433333 0.733333 0
0.433333 0.766667 0
0.433333 0.8 0
0.433333 0.833333 0
0.433333 0.866667 0
0.433333 0.9 0
0.433333 0.933333 0
0.433333 0.966667 0
0.466667 0.0333333 0
0.466667 0.0666667 0
0.466667 0.1 0
0.466667 0.133333 0
0.466667 0.166667 0
0.466667 0.2 0
0.466667 0.233333 0
0.466667 0.266667 0
0.466667 0.3 0
0.466667 0.333333 0
0.466667 0.366667 0
0.466667 0.4 0
0.466667 0.433333 0
0.466667 0.466667 0
0.466667 0.5 0
0.466667 0.533333 0
0.466667 0.566667 0
0.466667 0.6 0
0.466667 0.633333 0
0.466667 0.666667 0
0.466667 0.7 0
0.466667 0.733333 0
0.466667 0.766667 0
0.466667 0.8 0
0.466667 0.833333 0
0.466667 0.866667 0
0.466667 0.9 0
0.466667 0.933333 0
0.466667 0.966667 0
0.5 0.0333333 0
0.5 0.0666667 0
0.5 0.1 0
0.5 0.133333 0
0.5 0.166667 0
0.5 0.2 0
0.5 0.233333 0
0.5 0.266667 0
0.5 0.3 0
0.5 0.333333 0
0.5 0.366667 0
0.5 0.4 0
0.5 0.433333 0
0.5 0.466667 0
0.5 0.5 0
0.5 0.533333 0
0.5 0.566667 0
0.5 0.6 0
0.5 0.633333 0
0.5 0.666667 0
0.5 0.7 0
0.5 0.733333 0
0.5 0.766667 0
0.5 0.8 0
0.5 0.833333 0
0.5 0.866667 0
0.5 0.9 0
0.5 0.933333 0
0.5 0.966667 0
0.533333 0.0333333 0
0.533333 0.0666667 0
0.533333 0.1 0
0.533333 0.133333 0
0.533333 0.166667 0
0.533333 0.2 0
0.533333 0.233333 0
0.533333 0.266667 0
0.533333 0.3 0
0.533333 0.333333 0
0.533333 0.366667 0
0.533333 0.4 0
0.533333 0.433333 0
0.533333 0.466667 0
0.533333 0.5 0
0.533333 0.533333 0
0.533333 0.566667 0
0.533333 0.6 0
0.533333 0.633333 0
0.533333 0.666667 0
0.533333 0.7 0
0.533333 0.733333 0
0.533333 0.766667 0
0.533333 0.8 0
0.533333 0.833333 0
0.533333 0.866667 0
0.533333 0.9 0
0.533333 0.933333 0
0.533333 0.966667 0
0.566667 0.0333333 0
0.566667 0.0666667 0
0.566667 0.1 0
0.566667 0.133333 0
0.566667 0.166667 0
0.566667 0.2 0
0.566667 0.233333 0
0.566667 0.266667 0
0.566667 0.3 0
0.566667 0.333333 0
0.566667 0.366667 0
0.566667 0.4 0
0.566667 0.433333 0
0.566667 0.466667 0
0.566667 0.5 0
0.566667 0.533333 0
0.566667 0.566667 0
0.566667 0.6 0
0.566667 0.633333 0
0.566667 0.666667 0
0.566667 0.7 0
0.566667 0.733333 0
0.566667 0.766667 0
0.566667 0.8 0
0.566667 0.833333 0
0.566667 0.866667 0
0.566667 0.9 0
0.566667 0.933333 0
0.566667 0.966667 0
0.6 0.0333333 0
0.6 0.0666667 0
0.6 0.1 0
0.6 0.133333 0
[...]
CELL_DATA 900
SCALARS Temperatura double 1
LOOKUP_TABLE default
0.5
0.750002
0.875001
0.9375
0.96875
0.984374
0.992187
0.996093
0.998047
0.999023
0.999512
0.999756
0.999878
0.999939
0.999969
0.999985
0.999992
0.999996
0.999998
0.999999
1
1
1
1
1
1
1
1
1
1
0.249998
0.5
0.6875
0.812499
0.890623
0.937498
0.964842
0.980467
0.989257
0.99414
0.996826
0.998291
0.999084
0.999512
0.99974
0.999863
0.999927
0.999962
0.99998
0.99999
0.999995
0.999997
0.999999
0.999999
1
1
1
1
1
1
0.124999
0.3125
0.5
0.656249
0.773435
0.855466
0.910153
0.94531
0.967283
0.980711
0.988768
0.993529
0.996307
0.997909
0.998825
0.999344
0.999636
0.999799
0.999889
0.999939
0.999967
0.999982
0.99999
0.999995
0.999997
0.999998
0.999999
1
1
1
0.0625
0.187501
0.343751
0.5
0.636717
0.746091
0.828121
0.886715
0.926998
0.953854
0.971311
0.98242
0.989363
0.993636
0.99623
0.997787
0.998711
0.999255
0.999572
0.999756
0.999861
0.999922
0.999956
0.999975
0.999986
0.999992
0.999996
0.999998
0.999999
0.999999
0.0312505
0.109377
0.226565
0.363283
0.5
0.623045
0.725583
0.806148
0.866573
0.910213
0.940762
0.96159
0.975477
0.984556
0.990393
0.99409
0.996401
0.997828
0.9987
0.999228
0.999545
0.999733
0.999845
0.99991
0.999948
0.99997
0.999983
0.99999
0.999995
0.999997
0.0156256
0.0625021
0.144534
0.253909
0.376955
0.5
0.612791
0.709469
0.788021
0.849116
0.894939
0.928264
0.95187
0.968213
0.979303
0.986696
0.991548
0.994688
0.996694
0.997961
0.998753
0.999243
0.999544
0.999727
0.999837
0.999904
0.999943
0.999967
0.999981
0.999989
0.00781303
0.0351582
0.089847
0.171879
0.274417
0.387209
0.5
0.604734
0.696377
0.772746
0.833842
0.881053
0.916461
0.942337
0.96082
0.973758
0.982653
0.98867
0.992682
0.995321
0.997037
0.99814
0.998842
0.999284
0.999561
0.999732
0.999838
0.999902
0.999942
0.999965
0.00390666
0.0195328
0.0546904
0.113285
0.193852
0.290531
0.395266
0.5
0.598188
0.685467
0.759654
0.820353
0.868407
0.905371
0.933095
0.953426
0.968039
0.978355
0.985518
0.99042
0.993728
0.995934
0.997388
0.998336
0.998948
0.99934
0.999589
0.999746
0.999844
0.999904
0.00195342
0.0107434
0.0327173
0.0730018
0.133427
0.211979
0.303623
0.401812
0.5
0.592733
0.676194
0.748273
0.80834
0.856855
0.894975
0.9242
0.94612
0.962237
0.973877
0.982149
0.987938
0.991936
0.994662
0.996499
0.997724
0.998532
0.999061
0.999403
0.999623
0.999764
0.00097676
0.00586022
0.019289
0.0461458
0.089787
0.150884
0.227254
0.314533
0.407267
0.5
0.588097
0.668185
0.738262
0.797558
0.846266
0.885233
0.915676
0.938956
0.956417
0.969282
0.97861
0.985273
0.989967
0.993233
0.995478
0.997005
0.998033
0.998718
0.999171
0.999467
0.000488409
0.00317442
0.0112319
0.0286891
0.0592385
0.105061
0.166158
0.240346
0.323806
0.411903
0.5
0.584092
0.661177
0.729367
0.787816
0.836524
0.8761
0.907528
0.931972
0.950627
0.964619
0.974946
0.982457
0.987845
0.991662
0.994333
0.996183
0.997451
0.998311
0.998889
0.000244221
0.00170938
0.00647077
0.0175802
0.0384096
0.0717359
0.118947
0.179647
0.251727
0.331815
0.415908
0.5
0.580588
0.654978
0.721397
0.77896
0.82753
0.867529
0.89975
0.925188
0.944903
0.959924
0.97119
0.979517
0.985589
0.989961
0.993072
0.995261
0.996786
0.997837
0.00012212
0.000915784
0.00369336
0.0106369
0.0245235
0.04813
0.083539
0.131593
0.19166
0.261738
0.338823
0.419412
0.5
0.577489
0.649443
0.714201
0.770865
0.819197
0.859473
0.892331
0.918617
0.93927
0.95523
0.967374
0.976482
0.983221
0.988147
0.991704
0.994245
0.996041
6.10649e-05
0.000488445
0.00209095
0.00636403
0.0154439
0.0317872
0.0576633
0.0946286
0.143145
0.202442
0.270633
0.345022
0.422511
0.5
0.574721
0.644461
0.707663
0.76343
0.811451
0.851891
0.885254
0.912262
0.933746
0.95056
0.96352
0.973371
0.980759
0.986231
0.990238
0.99314
3.05352e-05
0.000259502
0.00117526
0.00376971
0.00960692
0.0206972
0.0391805
0.0669048
0.105025
0.153734
0.212184
0.278603
0.350557
0.425279
0.5
0.572231
0.639947
0.701688
0.756569
0.80423
0.844742
0.878501
0.906124
0.928341
0.945931
0.959651
0.970205
0.978218
0.984228
0.988684
1.52691e-05
0.000137392
0.000656344
0.00221307
0.00591007
0.0133038
0.0262423
0.0465738
0.0757997
0.114767
0.163476
0.22104
0.285799
0.355539
0.427769
0.5
0.569973
0.635831
0.6962
0.750215
0.797478
0.83799
0.872056
0.900199
0.923065
0.941358
0.955781
0.966999
0.975614
0.982149
7.63535e-06
7.25177e-05
0.000364442
0.00128878
0.00359948
0.0084517
0.0173471
0.0319606
0.0538804
0.0843239
0.1239
0.17247
0.229135
0.292337
0.360053
0.430027
0.5
0.567915
0.632057
0.691136
0.744307
0.791148
0.831602
0.8659
0.894482
0.91792
0.93685
0.951925
0.963769
0.97296
3.8181e-06
3.81701e-05
0.000201313
0.000745064
0.0021723
0.00531206
0.0113297
0.0216453
0.037763
0.0610437
0.0924721
0.132471
0.180803
0.23657
0.298312
0.364169
0.432085
0.5
0.566029
0.628582
0.686444
0.738796
0.785199
0.825549
0.860016
0.888968
0.912909
0.932417
0.948093
0.960527
1.90928e-06
2.00409e-05
0.000110681
0.000427883
0.00130012
0.00330613
0.00731798
0.0144817
0.0261225
0.0435833
0.0680279
0.10025
0.140527
0.188549
0.243431
0.3038
0.367943
0.433971
0.5
0.564291
0.625368
0.682082
0.73364
0.779595
0.819805
0.854386
0.883647
0.908032
0.928062
0.944296
9.54762e-07
1.04985e-05
6.05921e-05
0.000244244
0.000772194
0.00203919
0.00467863
0.00958026
0.0178515
0.0307175
0.0493729
0.0748115
0.107669
0.148109
0.19577
0.249785
0.308864
0.371418
0.435709
0.5
0.562684
0.622383
0.678011
0.728803
0.774304
0.814345
0.848996
0.878514
0.903288
0.923794
4.77445e-07
5.48835e-06
3.30416e-05
0.000138647
0.000455429
0.00124733
0.00296301
0.00627169
0.0120617
0.0213897
0.0353814
0.0550967
0.0813832
0.114746
0.155258
0.202522
0.255693
0.313556
0.374632
0.437316
0.5
0.561191
0.619601
0.674202
0.724253
0.769299
0.809147
0.84383
0.873559
0.898679
2.38757e-07
2.86376e-06
1.79535e-05
7.83023e-05
0.000266871
0.000757112
0.00186009
0.00406593
0.00806386
0.0147269
0.0250543
0.0400756
0.0607296
0.0877382
0.121499
0.16201
0.208852
0.261204
0.317918
0.377617
0.438809
0.5
0.559801
0.617001
0.670627
0.719963
0.764555
0.804192
0.838875
0.868781
1.19396e-07
1.49169e-06
9.72302e-06
4.4014e-05
0.000155446
0.000456287
0.0011582
0.00261209
0.00533802
0.0100325
0.0175435
0.0288097
0.0447697
0.0662541
0.0938765
0.127944
0.168398
0.214801
0.26636
0.321989
0.380399
0.440199
0.5
0.558501
0.614564
0.667263
0.715909
0.76005
0.799463
0.834126
5.97075e-08
7.75761e-07
5.24964e-06
2.46327e-05
9.00417e-05
0.000273169
0.000715695
0.00166391
0.00350099
0.0067668
0.0121552
0.0204825
0.0326262
0.0494403
0.0716586
0.0998013
0.1341
0.174451
0.220405
0.271197
0.325798
0.382999
0.441499
0.5
0.557282
0.612272
0.66409
0.71207
0.755766
0.794952
2.98587e-08
4.02843e-07
2.82639e-06
1.373e-05
5.18872e-05
0.000162531
0.00043912
0.00105153
0.00227628
0.00452157
0.00833844
0.0144106
0.0235185
0.0364795
0.0540692
0.0769354
0.105518
0.139984
0.180195
0.225696
0.275747
0.329373
0.385436
0.442718
0.5
0.556136
0.610113
0.661092
0.708429
0.751697
1.49319e-08
2.08906e-07
1.51773e-06
7.62415e-06
2.97565e-05
9.61459e-05
0.000267637
0.000659591
0.00146795
0.00299479
0.00566665
0.0100387
0.0167786
0.0266292
0.0403493
0.0586425
0.0820803
0.111032
0.145614
0.185655
0.230701
0.280037
0.332737
0.387728
0.443864
0.5
0.555057
0.608074
0.658251
0.704982
7.4673e-09
1.08196e-07
8.13007e-07
4.21874e-06
1.69881e-05
5.65682e-05
0.000162105
0.000410854
0.000939413
0.00196712
0.00381691
0.00692783
0.0118533
0.0192413
0.0297954
0.0442191
0.0631498
0.0870913
0.116353
0.151004
0.190853
0.235445
0.284091
0.33591
0.389887
0.444943
0.5
0.554037
0.606144
0.655573
3.73435e-09
5.59706e-08
4.34514e-07
2.32672e-06
9.65769e-06
3.31137e-05
9.76114e-05
0.000254236
0.000596832
0.00128199
0.00254947
0.00473868
0.00829603
0.0137687
0.0217821
0.0330007
0.0480754
0.0675835
0.0919683
0.121486
0.15617
0.195808
0.23995
0.28793
0.338908
0.391926
0.445963
0.5
0.553072
0.604334
1.86754e-09
2.89219e-08
2.31732e-07
1.27928e-06
5.46866e-06
1.92917e-05
5.84526e-05
0.000156347
0.000376594
0.000829299
0.0016894
0.00321406
0.00575508
0.00976195
0.0157721
0.0243865
0.036231
0.0519074
0.0719379
0.0967123
0.126441
0.161125
0.200537
0.244234
0.291571
0.341749
0.393856
0.446928
0.5
0.552179
9.33937e-10
1.49291e-08
1.23336e-07
7.01323e-07
3.08502e-06
1.11884e-05
3.48204e-05
9.55828e-05
0.000236086
0.000532685
0.00111102
0.0021625
0.00395872
0.0068602
0.0113159
0.0178508
0.0270403
0.0394729
0.055704
0.0762063
0.101321
0.131219
0.165874
0.205048
0.248303
0.295018
0.344427
0.395666
0.447821
0.5
