# vtk DataFile Version 3.0
Malha 2D com triângulos e temperatura
ASCII
DATASET UNSTRUCTURED_GRID

POINTS 75 double
0 0 0
1 0 0
1 1 0
0 1 0
0.142857 0 0
0.285714 0 0
0.428571 0 0
0.571429 0 0
0.714286 0 0
0.857143 0 0
1 0.142857 0
1 0.285714 0
1 0.428571 0
1 0.571429 0
1 0.714286 0
1 0.857143 0
0.857143 1 0
0.714286 1 0
0.571429 1 0
0.428571 1 0
0.285714 1 0
0.142857 1 0
0 0.857143 0
0 0.714286 0
0 0.571429 0
0 0.428571 0
0 0.285714 0
0 0.142857 0
0.135888 0.505066 0
0.87343 0.501948 0
0.48642 0.13837 0
0.5 0.876282 0
0.785714 0.876282 0
0.219811 0.879472 0
0.120528 0.219811 0
0.780189 0.120528 0
0.358064 0.876814 0
0.428725 0.752653 0
0.571429 0.752564 0
0.502201 0.630117 0
0.357535 0.629073 0
0.429004 0.505378 0
0.574043 0.506638 0
0.506139 0.384955 0
0.642857 0.38141 0
0.361944 0.367736 0
0.721858 0.505668 0
0.785714 0.38141 0
0.796364 0.631742 0
0.57582 0.258848 0
0.653042 0.632694 0
0.28688 0.753237 0
0.217428 0.631321 0
0.132056 0.767677 0
0.122608 0.354394 0
0.247436 0.285714 0
0.232773 0.131441 0
0.358012 0.216026 0
0.640405 0.12753 0
0.713859 0.251311 0
0.86834 0.234917 0
0.64645 0.875554 0
0.288933 0.506677 0
0.720954 0.756248 0
0.872724 0.768653 0
0.903195 0.358017 0
0.0956961 0.642857 0
0.357732 0.0964468 0
0.231799 0.401488 0
0.911614 0.642857 0
0.104579 0.895421 0
0.895421 0.895421 0
0.104579 0.104579 0
0.895421 0.104579 0
0.459965 0.275153 0

CELLS 120 480
3 22 23 53
3 4 5 56
3 10 11 60
3 61 38 63
3 52 28 62
3 22 53 70
3 4 56 72
3 10 60 73
3 45 55 57
3 46 29 48
3 29 46 47
3 39 42 50
3 38 50 63
3 47 59 60
3 47 44 59
3 49 30 58
3 38 39 50
3 42 46 50
3 45 57 74
3 32 61 63
3 63 48 64
3 44 49 59
3 49 58 59
3 14 15 64
3 57 30 74
3 62 28 68
3 46 48 50
3 30 49 74
3 30 57 67
3 28 52 66
3 51 33 53
3 40 37 51
3 37 36 51
3 19 20 36
3 25 26 54
3 40 51 52
3 31 19 36
3 31 36 37
3 28 25 54
3 7 8 58
3 20 33 36
3 36 33 51
3 30 7 58
3 52 51 53
3 26 34 54
3 58 35 59
3 31 37 38
3 20 21 33
3 54 34 55
3 59 35 60
3 55 34 56
3 8 35 58
3 55 56 57
3 12 13 29
3 26 27 34
3 8 9 35
3 18 19 31
3 24 25 28
3 6 7 30
3 38 37 39
3 46 44 47
3 42 44 46
3 39 37 40
3 39 41 42
3 39 40 41
3 42 41 43
3 42 43 44
3 44 43 49
3 43 41 45
3 40 52 62
3 18 31 61
3 31 38 61
3 41 40 62
3 17 18 61
3 16 17 32
3 45 41 62
3 32 17 61
3 64 48 69
3 50 48 63
3 29 47 65
3 48 29 69
3 32 63 64
3 6 30 67
3 24 28 66
3 12 29 65
3 28 54 68
3 29 13 69
3 53 33 70
3 3 22 70
3 0 4 72
3 27 0 72
3 1 10 73
3 9 1 73
3 21 3 70
3 56 34 72
3 2 16 71
3 60 35 73
3 15 2 71
3 43 45 74
3 64 15 71
3 47 60 65
3 60 11 65
3 53 23 66
3 56 5 67
3 55 45 68
3 45 62 68
3 11 12 65
3 14 64 69
3 23 24 66
3 5 6 67
3 52 53 66
3 57 56 67
3 54 55 68
3 32 64 71
3 13 14 69
3 33 21 70
3 34 27 72
3 35 9 73
3 16 32 71
3 49 43 74

CELL_TYPES 120
5
5
5
5
5
5
5
5
5
5
5
5
5
5
5
5
5
5
5
5
5
5
5
5
5
5
5
5
5
5
5
5
5
5
5
5
5
5
5
5
5
5
5
5
5
5
5
5
5
5
5
5
5
5
5
5
5
5
5
5
5
5
5
5
5
5
5
5
5
5
5
5
5
5
5
5
5
5
5
5
5
5
5
5
5
5
5
5
5
5
5
5
5
5
5
5
5
5
5
5
5
5
5
5
5
5
5
5
5
5
5
5
5
5
5
5
5
5
5
5

CELL_DATA 120
SCALARS Temperatura double 1
LOOKUP_TABLE default
0.719534
0.706649
0.722555
3.72478
4.13706
0.970141
0.956352
0.986095
4.39468
4.02843
4.05445
5.85863
4.62452
3.40413
4.51827
3.51422
5.36039
5.6157
4.78078
2.73968
3.29071
4.73605
3.80711
0.686768
4.01092
4.176
4.83003
4.28066
3.01516
3.01395
2.69499
4.65774
3.71325
0.912522
0.905944
4.46652
1.85429
3.3385
1.91874
0.967694
1.52739
2.77254
1.98951
3.34435
1.4899
2.83727
4.05516
0.649202
2.72111
2.73518
2.64186
1.56922
3.2431
0.981493
0.639773
0.658684
1.0017
1.08809
1.12116
5.07021
4.91833
5.63386
5.35906
6.12956
5.86918
6.14343
5.89452
5.42276
5.89783
4.89417
1.87264
3.33258
5.62733
0.92288
0.664988
5.64137
1.52728
2.64951
4.39387
2.96011
2.89658
2.64328
1.74417
1.76975
1.74191
3.27194
1.71564
1.63728
0.256029
0.252684
0.24816
0.258342
0.253782
0.251394
1.61271
0.249809
1.66252
0.253185
5.45045
0.94916
2.79068
1.47598
1.47219
1.45128
4.47165
4.99638
0.694399
1.44297
0.689779
0.690796
2.75933
2.68817
3.50812
1.61191
0.625422
0.893796
0.880907
0.903558
0.878927
5.22784
