# vtk DataFile Version 3.0
Malha 2D com triângulos e temperatura
ASCII
DATASET UNSTRUCTURED_GRID

POINTS 556 double
0 0 0
1 0 0
1 1 0
0 1 0
0.047619 0 0
0.0952381 0 0
0.142857 0 0
0.190476 0 0
0.238095 0 0
0.285714 0 0
0.333333 0 0
0.380952 0 0
0.428571 0 0
0.47619 0 0
0.52381 0 0
0.571429 0 0
0.619048 0 0
0.666667 0 0
0.714286 0 0
0.761905 0 0
0.809524 0 0
0.857143 0 0
0.904762 0 0
0.952381 0 0
1 0.047619 0
1 0.0952381 0
1 0.142857 0
1 0.190476 0
1 0.238095 0
1 0.285714 0
1 0.333333 0
1 0.380952 0
1 0.428571 0
1 0.47619 0
1 0.52381 0
1 0.571429 0
1 0.619048 0
1 0.666667 0
1 0.714286 0
1 0.761905 0
1 0.809524 0
1 0.857143 0
1 0.904762 0
1 0.952381 0
0.952381 1 0
0.904762 1 0
0.857143 1 0
0.809524 1 0
0.761905 1 0
0.714286 1 0
0.666667 1 0
0.619048 1 0
0.571429 1 0
0.52381 1 0
0.47619 1 0
0.428571 1 0
0.380952 1 0
0.333333 1 0
0.285714 1 0
0.238095 1 0
0.190476 1 0
0.142857 1 0
0.0952381 1 0
0.047619 1 0
0 0.952381 0
0 0.904762 0
0 0.857143 0
0 0.809524 0
0 0.761905 0
0 0.714286 0
0 0.666667 0
0 0.619048 0
0 0.571429 0
0 0.52381 0
0 0.47619 0
0 0.428571 0
0 0.380952 0
0 0.333333 0
0 0.285714 0
0 0.238095 0
0 0.190476 0
0 0.142857 0
0 0.0952381 0
0 0.047619 0
0.502877 0.0453975 0
0.502795 0.954523 0
0.0424911 0.499879 0
0.958761 0.5 0
0.0422174 0.690476 0
0.690476 0.958761 0
0.311451 0.0438227 0
0.958761 0.309524 0
0.958761 0.690476 0
0.310663 0.957443 0
0.690476 0.0412393 0
0.0427511 0.30836 0
0.833793 0.95422 0
0.170871 0.0453815 0
0.958761 0.166667 0
0.0412393 0.833333 0
0.167489 0.959442 0
0.044661 0.165388 0
0.83415 0.0426838 0
0.958761 0.833333 0
0.0453121 0.4069 0
0.404762 0.958761 0
0.404762 0.0402432 0
0.958761 0.404762 0
0.958761 0.595238 0
0.591411 0.0454062 0
0.591411 0.954594 0
0.0463656 0.595238 0
0.930144 0.95915 0
0.0714286 0.0412393 0
0.0386783 0.928943 0
0.959824 0.0732702 0
0.958761 0.738095 0
0.917521 0.714286 0
0.917521 0.666667 0
0.876282 0.690476 0
0.876282 0.642857 0
0.835043 0.666667 0
0.835043 0.619048 0
0.793803 0.642857 0
0.793803 0.595238 0
0.752564 0.619048 0
0.752564 0.571429 0
0.711325 0.595238 0
0.711325 0.547619 0
0.670086 0.571429 0
0.670086 0.52381 0
0.628846 0.547619 0
0.628846 0.5 0
0.587607 0.52381 0
0.587607 0.47619 0
0.546368 0.5 0
0.546368 0.452381 0
0.505128 0.47619 0
0.505128 0.52381 0
0.628846 0.452381 0
0.463889 0.5 0
0.463889 0.452381 0
0.463889 0.547619 0
0.42265 0.52381 0
0.42265 0.571429 0
0.628846 0.595238 0
0.38141 0.547619 0
0.38141 0.595238 0
0.42265 0.619048 0
0.38141 0.642857 0
0.42265 0.666667 0
0.752564 0.666667 0
0.340171 0.619048 0
0.340171 0.666667 0
0.298932 0.642857 0
0.298932 0.690476 0
0.752564 0.52381 0
0.257693 0.666667 0
0.257693 0.619048 0
0.257693 0.714286 0
0.298932 0.738095 0
0.257693 0.761905 0
0.38141 0.5 0
0.835043 0.714286 0
0.216453 0.738095 0
0.216453 0.642857 0
0.216453 0.595238 0
0.298932 0.785714 0
0.216453 0.785714 0
0.463889 0.642857 0
0.463889 0.690476 0
0.175214 0.761905 0
0.175591 0.80887 0
0.216532 0.832206 0
0.835043 0.571429 0
0.340171 0.761905 0
0.340171 0.809524 0
0.38141 0.785714 0
0.505128 0.666667 0
0.505128 0.714286 0
0.257693 0.571429 0
0.216453 0.547619 0
0.546368 0.690476 0
0.546368 0.738095 0
0.587607 0.714286 0
0.587607 0.761905 0
0.546368 0.785714 0
0.587607 0.809524 0
0.628846 0.785714 0
0.257693 0.52381 0
0.216152 0.5 0
0.257642 0.47619 0
0.216094 0.452381 0
0.257624 0.428571 0
0.216873 0.404762 0
0.257751 0.380952 0
0.217024 0.357143 0
0.257797 0.333333 0
0.216566 0.309524 0
0.257729 0.285714 0
0.298955 0.309524 0
0.298942 0.261905 0
0.340177 0.285714 0
0.216478 0.261905 0
0.340174 0.238095 0
0.381412 0.261905 0
0.298934 0.214286 0
0.381411 0.214286 0
0.42265 0.238095 0
0.340176 0.333333 0
0.42265 0.285714 0
0.463889 0.261905 0
0.463889 0.214286 0
0.505128 0.238095 0
0.505128 0.285714 0
0.546368 0.261905 0
0.546368 0.214286 0
0.587607 0.238095 0
0.587607 0.285714 0
0.628846 0.261905 0
0.628846 0.214286 0
0.670086 0.238095 0
0.670086 0.285714 0
0.711325 0.261905 0
0.711325 0.309524 0
0.752564 0.285714 0
0.752564 0.238095 0
0.752564 0.333333 0
0.793803 0.261905 0
0.793803 0.214286 0
0.752564 0.190476 0
0.835043 0.238095 0
0.835043 0.285714 0
0.835043 0.190476 0
0.628846 0.833333 0
0.670086 0.809524 0
0.175214 0.619048 0
0.173888 0.522411 0
0.173754 0.426172 0
0.177283 0.333403 0
0.546368 0.833333 0
0.38141 0.833333 0
0.505128 0.809524 0
0.670086 0.761905 0
0.711325 0.785714 0
0.711325 0.833333 0
0.752564 0.809524 0
0.752564 0.857143 0
0.793803 0.833333 0
0.670086 0.333333 0
0.133029 0.787053 0
0.135598 0.835435 0
0.133817 0.738318 0
0.340171 0.857143 0
0.505128 0.857143 0
0.876282 0.214286 0
0.876282 0.166667 0
0.835043 0.142857 0
0.876282 0.119048 0
0.463889 0.738095 0
0.298912 0.452381 0
0.670086 0.190476 0
0.628846 0.166667 0
0.670086 0.142857 0
0.505128 0.571429 0
0.546368 0.642857 0
0.917521 0.761905 0
0.752564 0.761905 0
0.0915425 0.763612 0
0.546368 0.880952 0
0.793803 0.880952 0
0.835043 0.857143 0
0.835043 0.809524 0
0.628197 0.120173 0
0.587499 0.143045 0
0.753058 0.903907 0
0.463889 0.833333 0
0.464586 0.879745 0
0.38141 0.738095 0
0.298932 0.547619 0
0.175214 0.666667 0
0.132435 0.642857 0
0.133634 0.595093 0
0.876282 0.833333 0
0.875485 0.879571 0
0.381334 0.880107 0
0.336416 0.911469 0
0.297258 0.879038 0
0.0927353 0.714286 0
0.668882 0.0884705 0
0.711325 0.119048 0
0.0897004 0.61903 0
0.0914355 0.57128 0
0.587465 0.0962133 0
0.546326 0.119241 0
0.546804 0.0722089 0
0.505611 0.0961453 0
0.505202 0.143041 0
0.464844 0.118624 0
0.834894 0.0944156 0
0.793779 0.118911 0
0.876282 0.0714286 0
0.793803 0.0714286 0
0.792809 0.927231 0
0.0463319 0.73838 0
0.0468189 0.547561 0
0.0878023 0.522062 0
0.082843 0.475484 0
0.128863 0.498019 0
0.121762 0.445221 0
0.0862476 0.666665 0
0.0463555 0.786985 0
0.0909216 0.811911 0
0.0916507 0.86627 0
0.141146 0.879699 0
0.107527 0.916127 0
0.0405556 0.88346 0
0.747203 0.953793 0
0.0431872 0.642856 0
0.132282 0.546725 0
0.17341 0.47619 0
0.135191 0.397246 0
0.0916056 0.405452 0
0.102704 0.363499 0
0.0408778 0.45465 0
0.917521 0.190476 0
0.917521 0.238095 0
0.917699 0.095545 0
0.922434 0.0438574 0
0.958761 0.214286 0
0.753054 0.09607 0
0.747304 0.0460679 0
0.422753 0.856801 0
0.424977 0.911285 0
0.340172 0.190476 0
0.298932 0.166667 0
0.340171 0.142857 0
0.257693 0.190476 0
0.257693 0.142857 0
0.216453 0.166667 0
0.216453 0.119048 0
0.175214 0.142857 0
0.175214 0.190476 0
0.132568 0.16638 0
0.13374 0.214238 0
0.132905 0.119335 0
0.256979 0.0964733 0
0.215249 0.0725897 0
0.0912967 0.190193 0
0.0908814 0.237963 0
0.133627 0.261875 0
0.0927353 0.285714 0
0.25949 0.046215 0
0.0467232 0.214029 0
0.0902435 0.140623 0
0.0903639 0.0859824 0
0.0431297 0.116919 0
0.0455152 0.261646 0
0.381411 0.166667 0
0.38141 0.119048 0
0.337816 0.0887652 0
0.42265 0.190476 0
0.422667 0.809467 0
0.917521 0.619048 0
0.262095 0.95935 0
0.752642 0.142973 0
0.29892 0.5 0
0.670086 0.857143 0
0.628197 0.879827 0
0.668882 0.91153 0
0.711325 0.642857 0
0.711325 0.690476 0
0.670086 0.666667 0
0.257706 0.809336 0
0.546368 0.309524 0
0.505128 0.333333 0
0.587607 0.333333 0
0.463889 0.309524 0
0.463889 0.357143 0
0.505128 0.380952 0
0.42265 0.333333 0
0.42265 0.380952 0
0.643368 0.0419369 0
0.958761 0.642857 0
0.917521 0.571429 0
0.793803 0.785714 0
0.505553 0.90371 0
0.546892 0.927797 0
0.587607 0.904762 0
0.958967 0.119406 0
0.958761 0.452381 0
0.917521 0.428571 0
0.917521 0.380952 0
0.876282 0.404762 0
0.876282 0.452381 0
0.835043 0.428571 0
0.835043 0.47619 0
0.793803 0.452381 0
0.835043 0.380952 0
0.876282 0.5 0
0.793803 0.5 0
0.752564 0.47619 0
0.752564 0.428571 0
0.711325 0.452381 0
0.711325 0.404762 0
0.670086 0.428571 0
0.711325 0.5 0
0.643368 0.958063 0
0.357143 0.958761 0
0.175188 0.714323 0
0.670086 0.47619 0
0.628846 0.404762 0
0.587607 0.428571 0
0.88581 0.956403 0
0.0397655 0.355888 0
0.546368 0.547619 0
0.793803 0.547619 0
0.835043 0.52381 0
0.711338 0.166686 0
0.917521 0.47619 0
0.118086 0.0417648 0
0.357143 0.0412393 0
0.451602 0.0410397 0
0.426006 0.0864667 0
0.958985 0.880563 0
0.122444 0.959548 0
0.505128 0.761905 0
0.451319 0.957967 0
0.214454 0.958973 0
0.238608 0.921625 0
0.193125 0.921229 0
0.463889 0.595238 0
0.711325 0.880952 0
0.38141 0.690476 0
0.793812 0.166663 0
0.587499 0.856955 0
0.546368 0.357143 0
0.958761 0.547619 0
0.958761 0.357143 0
0.917521 0.333333 0
0.876282 0.357143 0
0.876282 0.309524 0
0.175524 0.285721 0
0.381411 0.357143 0
0.381411 0.404762 0
0.340172 0.380952 0
0.793803 0.690476 0
0.298964 0.357143 0
0.876282 0.738095 0
0.42265 0.428571 0
0.340171 0.714286 0
0.42265 0.714286 0
0.793803 0.404762 0
0.793803 0.357143 0
0.216449 0.690482 0
0.587607 0.571429 0
0.340166 0.47619 0
0.505128 0.619048 0
0.175173 0.238083 0
0.917521 0.52381 0
0.381412 0.309524 0
0.833738 0.903234 0
0.876282 0.547619 0
0.546368 0.595238 0
0.587607 0.619048 0
0.463892 0.785705 0
0.422653 0.761894 0
0.298932 0.595238 0
0.257705 0.238095 0
0.628846 0.309524 0
0.876282 0.595238 0
0.670086 0.619048 0
0.340168 0.52381 0
0.129303 0.316369 0
0.258222 0.85424 0
0.587607 0.666667 0
0.711327 0.214289 0
0.340171 0.571429 0
0.587589 0.190507 0
0.298932 0.119048 0
0.958761 0.785714 0
0.628846 0.690476 0
0.628846 0.642857 0
0.216453 0.214284 0
0.628846 0.738095 0
0.174654 0.571022 0
0.175214 0.0952381 0
0.917585 0.142968 0
0.132606 0.690519 0
0.298743 0.832499 0
0.670086 0.714286 0
0.546352 0.166766 0
0.711325 0.738095 0
0.298932 0.404762 0
0.505138 0.190523 0
0.423368 0.141325 0
0.42265 0.47619 0
0.463889 0.404762 0
0.340167 0.428571 0
0.381409 0.452381 0
0.752564 0.714286 0
0.505128 0.428571 0
0.464098 0.166461 0
0.917521 0.809524 0
0.917426 0.856848 0
0.546368 0.404762 0
0.793803 0.738095 0
0.914208 0.911294 0
0.835043 0.761905 0
0.587607 0.380952 0
0.876282 0.785714 0
0.628846 0.357143 0
0.835043 0.333333 0
0.793803 0.309524 0
0.958761 0.261905 0
0.752564 0.380952 0
0.876282 0.261905 0
0.711325 0.357143 0
0.917521 0.285714 0
0.670086 0.380952 0
0.215205 0.879171 0
0.96104 0.928126 0
0.0740188 0.954296 0
0.177437 0.37983 0
0.177479 0.85322 0
0.285714 0.922377 0
0.0801454 0.329725 0
[...]
CELL_DATA 1026
SCALARS Temperatura double 1
LOOKUP_TABLE default
0.593724
0.592033
0.438659
2.45382
0.637894
0.648478
0.375688
1.20801
1.19404
0.913394
1.32234
1.21812
1.21936
1.38588
2.11161
3.24201
0.339041
1.53749
0.136966
2.51705
0.451816
1.05301
1.05014
0.263125
0.303042
0.512642
1.62335
0.265868
2.4888
1.14228
1.00102
0.441275
0.293963
0.2961
1.30424
1.39855
1.63525
1.63043
1.30325
1.60023
0.389356
2.24471
3.01522
3.04538
1.25866
0.0968814
1.66955
1.6704
0.937146
1.49799
1.49861
0.15016
0.674006
0.491216
1.57969
3.02266
2.02865
1.62131
0.5866
1.41947
1.37053
0.295652
0.32542
0.213166
1.15007
0.570155
0.43559
0.862153
0.423921
0.83573
0.508951
1.26921
1.13585
0.128362
0.940595
1.35467
0.51229
1.52366
0.686793
0.690633
2.08656
1.95045
3.27864
1.01618
1.38615
1.38805
0.761258
1.82981
0.957141
0.990521
0.653239
2.51356
1.18048
1.18006
0.887933
1.89791
0.366595
1.51783
1.45021
1.45062
1.3836
1.18717
1.18704
1.70469
2.51226
2.22155
1.64709
1.64225
1.70423
0.912087
3.9794
1.26039
0.691215
1.3058
0.62519
0.335371
3.00667
3.74716
3.77491
0.853141
0.295844
0.559391
1.6695
1.20571
0.613343
0.657857
3.2787
2.50301
0.340176
2.36763
2.45662
1.26228
0.664116
0.680137
0.545226
1.40509
1.07531
2.24446
0.990401
3.2589
0.415057
0.803279
0.231024
0.416688
0.447013
5.58483
2.0007
0.890732
5.35432
4.47759
1.20005
5.41379
5.62138
5.26054
1.68394
0.142541
2.53493
5.26048
4.82378
4.2028
1.20976
3.02058
0.945368
2.44822
3.66608
0.328481
2.03808
0.670421
2.44463
2.49377
0.637176
4.12947
3.40251
0.228885
0.912755
2.68626
2.6502
4.97181
5.79361
3.45588
3.56558
1.99956
2.79852
5.40322
3.82929
4.28025
0.315153
1.15853
3.63772
3.61948
3.33809
2.40042
1.47323
5.3544
5.43196
2.15119
3.46837
1.24067
2.95987
1.27623
4.43723
4.05499
4.72326
2.15753
3.80806
5.23382
5.24499
3.6679
2.51486
5.32736
5.0317
5.041
2.24514
4.05255
5.93365
4.46905
5.24103
5.69345
3.08771
2.17713
0.224086
1.22916
0.946389
3.30763
3.83202
3.82975
5.03774
3.03493
2.83497
0.265547
0.543879
4.31751
4.62125
2.31135
2.17823
0.608196
5.15144
2.50349
5.47107
2.74738
0.145067
0.634819
0.223864
1.68551
5.0376
4.72988
2.34475
0.150348
2.00213
5.90046
3.08111
3.54722
5.08345
5.32904
5.02523
5.22299
1.79183
5.43191
0.255624
4.70172
5.62132
5.90054
6.17416
4.51343
1.91552
1.45412
1.46908
5.53497
2.40011
3.87809
4.97173
0.190374
6.15864
5.14367
3.01935
2.40519
3.22818
2.15219
0.598248
1.54617
2.17916
3.53829
3.09522
4.8818
5.6358
6.13796
6.05155
6.08795
5.5242
4.8246
4.12543
3.46939
2.04173
0.843096
5.8618
1.46798
3.80446
1.58947
3.21109
3.87821
6.0264
0.207852
6.23096
6.2102
6.09687
5.29128
5.02002
4.87212
3.02816
1.3477
1.36277
2.63619
5.29729
6.21081
4.19326
3.18218
4.51247
4.2002
5.05635
3.25281
2.68947
5.33491
2.4025
3.66694
0.365787
0.293365
0.402936
1.60405
1.06431
1.27606
5.72516
5.45917
3.57956
5.94314
5.87089
4.52503
4.78998
4.68359
5.15263
4.83091
5.12134
1.20643
2.53561
5.72888
5.72397
2.09816
3.80767
4.7012
0.32079
0.679799
0.298207
0.330713
0.634981
0.293523
0.209075
0.342968
0.627781
0.298472
0.305523
1.54587
5.96874
3.67323
2.90633
3.92782
3.19619
4.36159
3.25931
2.0483
3.2572
1.89195
2.71487
3.0947
3.53775
0.190013
0.764783
1.30103
3.14051
3.56444
4.53849
4.87166
4.82129
5.33333
4.72601
5.17704
4.96374
5.17723
5.48925
3.63747
4.88153
0.0872536
0.348462
0.0876745
0.340081
0.671431
0.330775
0.216666
0.298772
0.350583
0.711932
1.47373
3.18435
2.46992
4.31511
4.2235
3.60185
4.4801
1.7861
2.91728
2.1104
6.00594
2.90598
0.314631
6.04604
5.80401
4.72559
3.92623
2.45162
2.24292
2.47251
3.01457
1.19878
1.96677
1.58832
1.14262
2.95975
3.67078
4.78007
0.652745
0.0848979
0.473396
0.66127
4.04782
3.81535
4.64954
4.74659
4.773
3.6808
2.55167
1.90626
5.07434
3.40501
3.88143
4.40448
3.65559
3.00753
3.46682
2.47272
1.58961
2.15735
2.44453
0.595738
0.597856
2.71616
2.57101
2.555
4.19729
3.54919
2.94125
3.29448
2.16435
2.82336
3.00963
2.65408
2.09595
1.46671
2.82194
1.49003
3.0319
3.15298
2.32733
1.93168
1.52814
1.55082
5.80445
0.0805608
1.37228
1.22884
3.66766
4.31592
6.13819
4.86326
4.13443
5.08094
3.15427
5.7223
4.83098
4.03949
4.91092
3.68398
3.12573
4.18146
3.64382
3.73272
3.13966
4.20147
2.49776
1.8624
4.51685
4.47755
6.08704
5.60896
1.34631
2.7301
4.68774
0.708911
0.32839
0.354951
0.369245
6.23621
5.63989
5.48373
5.22493
4.5043
2.89792
2.92206
5.7266
5.05221
3.59634
3.28581
4.16853
2.4009
2.16794
5.41902
2.6321
1.08056
2.15836
1.90825
0.671403
0.5908
0.185103
0.305655
1.15802
6.07646
5.83256
5.61578
5.82174
3.79401
3.25701
3.46677
4.5274
4.37618
4.14486
4.23427
4.65928
2.84002
3.07873
2.32705
3.05869
4.74013
2.91627
1.01659
0.55788
2.81983
0.313322
0.626569
0.342036
0.679886
0.311826
1.29969
1.24179
1.86255
4.67273
3.8393
3.33826
3.9291
4.51515
3.27007
4.20152
3.81421
3.84003
3.08141
3.25541
1.51197
1.02179
1.3142
4.85875
1.20748
2.16925
2.54666
2.06831
2.55713
1.22901
2.5341
4.437
5.46646
0.140542
0.365793
0.378228
0.328667
0.655931
0.376535
0.306176
0.209662
4.42582
4.16648
4.82025
2.90455
3.02237
1.56175
5.33164
1.52168
4.68882
0.488914
6.20018
4.49748
3.545
2.24023
3.80223
4.75986
4.864
4.51883
4.6873
3.62148
2.58274
1.50546
1.51542
2.10763
1.8543
2.58847
5.16507
5.50005
0.143461
5.67009
5.63056
4.43163
4.40135
4.29415
5.53227
5.33104
4.82262
3.97334
4.11915
4.29678
4.57222
4.38276
5.07563
4.2964
3.80102
2.8228
3.64549
6.00459
2.5368
2.58717
4.65523
2.20269
2.47978
3.39801
4.12735
5.52563
5.8631
4.28013
4.20243
1.03111
6.17921
5.94172
5.53035
4.194
3.90474
3.89631
4.21164
4.37
3.80301
2.11371
2.2486
2.11271
5.53554
5.80827
3.50546
2.63843
3.37254
5.16525
4.22648
3.76112
3.31202
4.07017
2.90137
3.40486
1.86361
1.77473
2.90227
5.47048
5.63455
5.05035
0.328203
0.60755
0.659201
2.74727
3.45706
4.11371
3.82917
4.81988
5.22233
4.46856
3.8026
3.54607
3.05649
3.13811
3.33779
2.58724
2.25002
5.62136
3.18194
5.25857
0.327325
0.326054
3.127
4.32114
3.19798
2.60758
2.09856
0.377515
0.549842
0.190184
4.78026
5.20789
5.72513
5.93343
5.98771
5.77086
5.57942
5.41378
5.26869
4.3592
3.90322
4.39828
3.73646
4.63414
3.80644
4.0392
2.63568
2.34306
1.40738
6.01116
5.88528
0.598504
2.00023
6.19985
5.90899
5.77655
5.14756
3.87514
2.91108
4.74339
4.63413
2.63144
1.90878
2.25552
0.187911
0.340052
0.659289
0.315258
1.29975
4.43165
4.97467
4.1309
5.02444
5.12109
4.30664
2.62335
5.6097
0.488434
0.343173
2.42412
2.23334
3.46475
2.47459
1.83111
2.87767
1.54178
6.00933
4.82069
5.58483
5.7934
6.10664
4.72728
3.68123
2.82464
1.77137
5.80356
1.36077
0.892981
1.86151
5.97113
0.23123
5.10257
6.17491
4.86262
4.16933
3.11563
2.74586
1.89715
2.73556
2.95023
6.05119
3.29704
4.95776
3.84022
2.04277
4.74458
5.87334
5.91224
6.07828
6.0483
3.04304
3.47012
4.30773
6.02451
3.53358
3.65629
1.59937
1.3963
5.4857
2.5897
5.46953
3.83135
2.26587
3.73454
6.15945
3.83065
4.36239
5.23253
3.33183
4.62199
3.63618
4.20136
1.21442
3.05799
3.13903
4.18263
4.2031
3.80526
4.11937
5.24161
1.08203
5.49113
5.83651
2.79918
4.96952
3.02913
3.05182
3.47098
5.77842
6.09858
5.27842
5.67526
2.42245
5.82497
0.415399
6.13294
1.78086
6.18023
5.42449
5.64408
3.84117
4.11285
3.11827
3.3716
2.31192
4.12664
2.48641
3.17633
4.43089
5.88591
0.636627
4.68814
3.5037
2.63735
4.04712
1.83532
4.07154
0.80429
0.265334
6.02703
2.4781
2.1678
2.48422
0.89187
5.25873
5.77122
2.84229
5.10241
4.64911
1.77868
2.15635
2.82561
0.670335
2.94934
3.1745
5.50043
0.909156
5.20769
2.15375
4.31542
4.43075
0.549467
4.96333
1.37151
5.57967
1.06355
4.97428
2.17507
1.99134
1.13335
0.103343
0.0816637
0.437908
0.617874
3.52947
3.68452
0.462561
0.744258
1.55233
1.86777
1.18462
0.89631
1.76305
1.83097
1.83357
1.33775
1.33294
1.50686
1.39718
1.31033
1.65811
0.222962
0.248198
2.85634
3.81439
0.701462
2.00701
2.00785
2.13858
1.3387
1.82994
1.30291
0.302375
0.395708
0.639457
0.627373
0.627307
0.640098
0.873407
0.633837
1.2451
1.24379
0.231781
0.0274919
0.0303973
0.0299864
0.0297532
0.0274887
0.0285952
0.628664
2.03576
0.721579
0.74149
1.61437
0.0277287
0.0275333
2.12828
1.96896
1.97698
2.1292
1.01133
1.26173
0.84317
0.224729
1.9807
0.372418
1.76017
1.76374
1.16039
1.16776
0.382211
0.396292
2.15265
0.861662
2.10762
0.974352
3.18307
0.223059
0.440771
0.4439
1.11046
0.0846253
2.11709
2.11715
2.20492
0.176064
0.17068
2.62391
2.21833
1.78884
1.58154
0.107056
0.450965
0.174946
0.254535
0.254543
1.08229
3.04491
0.834677
0.847681
1.57516
0.205882
0.107889
0.124177
0.386609
1.14743
0.110692
0.117898
0.10621
0.109309
1.53549
1.95381
2.15346
1.52706
1.14787
0.204592
0.217155
1.19324
1.42188
1.65868
1.84481
0.107777
1.48048
