# vtk DataFile Version 3.0
Malha 2D com triângulos e temperatura
ASCII
DATASET UNSTRUCTURED_GRID

POINTS 556 double
0 0 0
1 0 0
1 1 0
0 1 0
0.047619 0 0
0.0952381 0 0
0.142857 0 0
0.190476 0 0
0.238095 0 0
0.285714 0 0
0.333333 0 0
0.380952 0 0
0.428571 0 0
0.47619 0 0
0.52381 0 0
0.571429 0 0
0.619048 0 0
0.666667 0 0
0.714286 0 0
0.761905 0 0
0.809524 0 0
0.857143 0 0
0.904762 0 0
0.952381 0 0
1 0.047619 0
1 0.0952381 0
1 0.142857 0
1 0.190476 0
1 0.238095 0
1 0.285714 0
1 0.333333 0
1 0.380952 0
1 0.428571 0
1 0.47619 0
1 0.52381 0
1 0.571429 0
1 0.619048 0
1 0.666667 0
1 0.714286 0
1 0.761905 0
1 0.809524 0
1 0.857143 0
1 0.904762 0
1 0.952381 0
0.952381 1 0
0.904762 1 0
0.857143 1 0
0.809524 1 0
0.761905 1 0
0.714286 1 0
0.666667 1 0
0.619048 1 0
0.571429 1 0
0.52381 1 0
0.47619 1 0
0.428571 1 0
0.380952 1 0
0.333333 1 0
0.285714 1 0
0.238095 1 0
0.190476 1 0
0.142857 1 0
0.0952381 1 0
0.047619 1 0
0 0.952381 0
0 0.904762 0
0 0.857143 0
0 0.809524 0
0 0.761905 0
0 0.714286 0
0 0.666667 0
0 0.619048 0
0 0.571429 0
0 0.52381 0
0 0.47619 0
0 0.428571 0
0 0.380952 0
0 0.333333 0
0 0.285714 0
0 0.238095 0
0 0.190476 0
0 0.142857 0
0 0.0952381 0
0 0.047619 0
0.502877 0.0453975 0
0.502795 0.954523 0
0.0424911 0.499879 0
0.958761 0.5 0
0.0422174 0.690476 0
0.690476 0.958761 0
0.311451 0.0438227 0
0.958761 0.309524 0
0.958761 0.690476 0
0.310663 0.957443 0
0.690476 0.0412393 0
0.0427511 0.30836 0
0.833793 0.95422 0
0.170871 0.0453815 0
0.958761 0.166667 0
0.0412393 0.833333 0
0.167489 0.959442 0
0.044661 0.165388 0
0.83415 0.0426838 0
0.958761 0.833333 0
0.0453121 0.4069 0
0.404762 0.958761 0
0.404762 0.0402432 0
0.958761 0.404762 0
0.958761 0.595238 0
0.591411 0.0454062 0
0.591411 0.954594 0
0.0463656 0.595238 0
0.930144 0.95915 0
0.0714286 0.0412393 0
0.0386783 0.928943 0
0.959824 0.0732702 0
0.958761 0.738095 0
0.917521 0.714286 0
0.917521 0.666667 0
0.876282 0.690476 0
0.876282 0.642857 0
0.835043 0.666667 0
0.835043 0.619048 0
0.793803 0.642857 0
0.793803 0.595238 0
0.752564 0.619048 0
0.752564 0.571429 0
0.711325 0.595238 0
0.711325 0.547619 0
0.670086 0.571429 0
0.670086 0.52381 0
0.628846 0.547619 0
0.628846 0.5 0
0.587607 0.52381 0
0.587607 0.47619 0
0.546368 0.5 0
0.546368 0.452381 0
0.505128 0.47619 0
0.505128 0.52381 0
0.628846 0.452381 0
0.463889 0.5 0
0.463889 0.452381 0
0.463889 0.547619 0
0.42265 0.52381 0
0.42265 0.571429 0
0.628846 0.595238 0
0.38141 0.547619 0
0.38141 0.595238 0
0.42265 0.619048 0
0.38141 0.642857 0
0.42265 0.666667 0
0.752564 0.666667 0
0.340171 0.619048 0
0.340171 0.666667 0
0.298932 0.642857 0
0.298932 0.690476 0
0.752564 0.52381 0
0.257693 0.666667 0
0.257693 0.619048 0
0.257693 0.714286 0
0.298932 0.738095 0
0.257693 0.761905 0
0.38141 0.5 0
0.835043 0.714286 0
0.216453 0.738095 0
0.216453 0.642857 0
0.216453 0.595238 0
0.298932 0.785714 0
0.216453 0.785714 0
0.463889 0.642857 0
0.463889 0.690476 0
0.175214 0.761905 0
0.175591 0.80887 0
0.216532 0.832206 0
0.835043 0.571429 0
0.340171 0.761905 0
0.340171 0.809524 0
0.38141 0.785714 0
0.505128 0.666667 0
0.505128 0.714286 0
0.257693 0.571429 0
0.216453 0.547619 0
0.546368 0.690476 0
0.546368 0.738095 0
0.587607 0.714286 0
0.587607 0.761905 0
0.546368 0.785714 0
0.587607 0.809524 0
0.628846 0.785714 0
0.257693 0.52381 0
0.216152 0.5 0
0.257642 0.47619 0
0.216094 0.452381 0
0.257624 0.428571 0
0.216873 0.404762 0
0.257751 0.380952 0
0.217024 0.357143 0
0.257797 0.333333 0
0.216566 0.309524 0
0.257729 0.285714 0
0.298955 0.309524 0
0.298942 0.261905 0
0.340177 0.285714 0
0.216478 0.261905 0
0.340174 0.238095 0
0.381412 0.261905 0
0.298934 0.214286 0
0.381411 0.214286 0
0.42265 0.238095 0
0.340176 0.333333 0
0.42265 0.285714 0
0.463889 0.261905 0
0.463889 0.214286 0
0.505128 0.238095 0
0.505128 0.285714 0
0.546368 0.261905 0
0.546368 0.214286 0
0.587607 0.238095 0
0.587607 0.285714 0
0.628846 0.261905 0
0.628846 0.214286 0
0.670086 0.238095 0
0.670086 0.285714 0
0.711325 0.261905 0
0.711325 0.309524 0
0.752564 0.285714 0
0.752564 0.238095 0
0.752564 0.333333 0
0.793803 0.261905 0
0.793803 0.214286 0
0.752564 0.190476 0
0.835043 0.238095 0
0.835043 0.285714 0
0.835043 0.190476 0
0.628846 0.833333 0
0.670086 0.809524 0
0.175214 0.619048 0
0.173888 0.522411 0
0.173754 0.426172 0
0.177283 0.333403 0
0.546368 0.833333 0
0.38141 0.833333 0
0.505128 0.809524 0
0.670086 0.761905 0
0.711325 0.785714 0
0.711325 0.833333 0
0.752564 0.809524 0
0.752564 0.857143 0
0.793803 0.833333 0
0.670086 0.333333 0
0.133029 0.787053 0
0.135598 0.835435 0
0.133817 0.738318 0
0.340171 0.857143 0
0.505128 0.857143 0
0.876282 0.214286 0
0.876282 0.166667 0
0.835043 0.142857 0
0.876282 0.119048 0
0.463889 0.738095 0
0.298912 0.452381 0
0.670086 0.190476 0
0.628846 0.166667 0
0.670086 0.142857 0
0.505128 0.571429 0
0.546368 0.642857 0
0.917521 0.761905 0
0.752564 0.761905 0
0.0915425 0.763612 0
0.546368 0.880952 0
0.793803 0.880952 0
0.835043 0.857143 0
0.835043 0.809524 0
0.628197 0.120173 0
0.587499 0.143045 0
0.753058 0.903907 0
0.463889 0.833333 0
0.464586 0.879745 0
0.38141 0.738095 0
0.298932 0.547619 0
0.175214 0.666667 0
0.132435 0.642857 0
0.133634 0.595093 0
0.876282 0.833333 0
0.875485 0.879571 0
0.381334 0.880107 0
0.336416 0.911469 0
0.297258 0.879038 0
0.0927353 0.714286 0
0.668882 0.0884705 0
0.711325 0.119048 0
0.0897004 0.61903 0
0.0914355 0.57128 0
0.587465 0.0962133 0
0.546326 0.119241 0
0.546804 0.0722089 0
0.505611 0.0961453 0
0.505202 0.143041 0
0.464844 0.118624 0
0.834894 0.0944156 0
0.793779 0.118911 0
0.876282 0.0714286 0
0.793803 0.0714286 0
0.792809 0.927231 0
0.0463319 0.73838 0
0.0468189 0.547561 0
0.0878023 0.522062 0
0.082843 0.475484 0
0.128863 0.498019 0
0.121762 0.445221 0
0.0862476 0.666665 0
0.0463555 0.786985 0
0.0909216 0.811911 0
0.0916507 0.86627 0
0.141146 0.879699 0
0.107527 0.916127 0
0.0405556 0.88346 0
0.747203 0.953793 0
0.0431872 0.642856 0
0.132282 0.546725 0
0.17341 0.47619 0
0.135191 0.397246 0
0.0916056 0.405452 0
0.102704 0.363499 0
0.0408778 0.45465 0
0.917521 0.190476 0
0.917521 0.238095 0
0.917699 0.095545 0
0.922434 0.0438574 0
0.958761 0.214286 0
0.753054 0.09607 0
0.747304 0.0460679 0
0.422753 0.856801 0
0.424977 0.911285 0
0.340172 0.190476 0
0.298932 0.166667 0
0.340171 0.142857 0
0.257693 0.190476 0
0.257693 0.142857 0
0.216453 0.166667 0
0.216453 0.119048 0
0.175214 0.142857 0
0.175214 0.190476 0
0.132568 0.16638 0
0.13374 0.214238 0
0.132905 0.119335 0
0.256979 0.0964733 0
0.215249 0.0725897 0
0.0912967 0.190193 0
0.0908814 0.237963 0
0.133627 0.261875 0
0.0927353 0.285714 0
0.25949 0.046215 0
0.0467232 0.214029 0
0.0902435 0.140623 0
0.0903639 0.0859824 0
0.0431297 0.116919 0
0.0455152 0.261646 0
0.381411 0.166667 0
0.38141 0.119048 0
0.337816 0.0887652 0
0.42265 0.190476 0
0.422667 0.809467 0
0.917521 0.619048 0
0.262095 0.95935 0
0.752642 0.142973 0
0.29892 0.5 0
0.670086 0.857143 0
0.628197 0.879827 0
0.668882 0.91153 0
0.711325 0.642857 0
0.711325 0.690476 0
0.670086 0.666667 0
0.257706 0.809336 0
0.546368 0.309524 0
0.505128 0.333333 0
0.587607 0.333333 0
0.463889 0.309524 0
0.463889 0.357143 0
0.505128 0.380952 0
0.42265 0.333333 0
0.42265 0.380952 0
0.643368 0.0419369 0
0.958761 0.642857 0
0.917521 0.571429 0
0.793803 0.785714 0
0.505553 0.90371 0
0.546892 0.927797 0
0.587607 0.904762 0
0.958967 0.119406 0
0.958761 0.452381 0
0.917521 0.428571 0
0.917521 0.380952 0
0.876282 0.404762 0
0.876282 0.452381 0
0.835043 0.428571 0
0.835043 0.47619 0
0.793803 0.452381 0
0.835043 0.380952 0
0.876282 0.5 0
0.793803 0.5 0
0.752564 0.47619 0
0.752564 0.428571 0
0.711325 0.452381 0
0.711325 0.404762 0
0.670086 0.428571 0
0.711325 0.5 0
0.643368 0.958063 0
0.357143 0.958761 0
0.175188 0.714323 0
0.670086 0.47619 0
0.628846 0.404762 0
0.587607 0.428571 0
0.88581 0.956403 0
0.0397655 0.355888 0
0.546368 0.547619 0
0.793803 0.547619 0
0.835043 0.52381 0
0.711338 0.166686 0
0.917521 0.47619 0
0.118086 0.0417648 0
0.357143 0.0412393 0
0.451602 0.0410397 0
0.426006 0.0864667 0
0.958985 0.880563 0
0.122444 0.959548 0
0.505128 0.761905 0
0.451319 0.957967 0
0.214454 0.958973 0
0.238608 0.921625 0
0.193125 0.921229 0
0.463889 0.595238 0
0.711325 0.880952 0
0.38141 0.690476 0
0.793812 0.166663 0
0.587499 0.856955 0
0.546368 0.357143 0
0.958761 0.547619 0
0.958761 0.357143 0
0.917521 0.333333 0
0.876282 0.357143 0
0.876282 0.309524 0
0.175524 0.285721 0
0.381411 0.357143 0
0.381411 0.404762 0
0.340172 0.380952 0
0.793803 0.690476 0
0.298964 0.357143 0
0.876282 0.738095 0
0.42265 0.428571 0
0.340171 0.714286 0
0.42265 0.714286 0
0.793803 0.404762 0
0.793803 0.357143 0
0.216449 0.690482 0
0.587607 0.571429 0
0.340166 0.47619 0
0.505128 0.619048 0
0.175173 0.238083 0
0.917521 0.52381 0
0.381412 0.309524 0
0.833738 0.903234 0
0.876282 0.547619 0
0.546368 0.595238 0
0.587607 0.619048 0
0.463892 0.785705 0
0.422653 0.761894 0
0.298932 0.595238 0
0.257705 0.238095 0
0.628846 0.309524 0
0.876282 0.595238 0
0.670086 0.619048 0
0.340168 0.52381 0
0.129303 0.316369 0
0.258222 0.85424 0
0.587607 0.666667 0
0.711327 0.214289 0
0.340171 0.571429 0
0.587589 0.190507 0
0.298932 0.119048 0
0.958761 0.785714 0
0.628846 0.690476 0
0.628846 0.642857 0
0.216453 0.214284 0
0.628846 0.738095 0
0.174654 0.571022 0
0.175214 0.0952381 0
0.917585 0.142968 0
0.132606 0.690519 0
0.298743 0.832499 0
0.670086 0.714286 0
0.546352 0.166766 0
0.711325 0.738095 0
0.298932 0.404762 0
0.505138 0.190523 0
0.423368 0.141325 0
0.42265 0.47619 0
0.463889 0.404762 0
0.340167 0.428571 0
0.381409 0.452381 0
0.752564 0.714286 0
0.505128 0.428571 0
0.464098 0.166461 0
0.917521 0.809524 0
0.917426 0.856848 0
0.546368 0.404762 0
0.793803 0.738095 0
0.914208 0.911294 0
0.835043 0.761905 0
0.587607 0.380952 0
0.876282 0.785714 0
0.628846 0.357143 0
0.835043 0.333333 0
0.793803 0.309524 0
0.958761 0.261905 0
0.752564 0.380952 0
0.876282 0.261905 0
0.711325 0.357143 0
0.917521 0.285714 0
0.670086 0.380952 0
0.215205 0.879171 0
0.96104 0.928126 0
0.0740188 0.954296 0
0.177437 0.37983 0
0.177479 0.85322 0
0.285714 0.922377 0
0.0801454 0.329725 0
[...]
CELL_DATA 1026
SCALARS Temperatura double 1
LOOKUP_TABLE default
0.57712
0.576041
0.447275
2.47792
0.648039
0.656502
0.384464
1.22036
1.20954
0.945788
1.32688
1.20029
1.20028
1.38863
2.07978
3.26419
0.347509
1.57395
0.140324
2.51803
0.454489
1.05427
1.05319
0.259237
0.298079
0.54501
1.68972
0.261686
2.48005
1.15983
1.00476
0.45241
0.290727
0.291768
1.32707
1.41243
1.62079
1.61369
1.36447
1.60953
0.386154
2.29771
3.02538
3.09174
1.27476
0.0996072
1.65615
1.65761
0.963953
1.48631
1.48501
0.149312
0.67772
0.487863
1.6144
3.00246
2.03235
1.65314
0.598793
1.46406
1.41612
0.296503
0.325389
0.220956
1.16223
0.589341
0.456632
0.880539
0.43801
0.834584
0.543273
1.29621
1.17966
0.127424
0.95465
1.38809
0.520124
1.55704
0.740186
0.725064
2.1176
1.98881
3.33597
1.04102
1.37425
1.37438
0.761768
1.84148
0.951256
0.98293
0.65578
2.56505
1.16651
1.16648
0.896284
1.93746
0.379095
1.54248
1.46992
1.47367
1.42725
1.18089
1.18037
1.70436
2.49486
2.2482
1.63366
1.6255
1.69778
0.91574
4.01757
1.28775
0.704006
1.30847
0.627795
0.330285
3.06807
3.77503
3.8113
0.859799
0.292872
0.586574
1.7285
1.20252
0.618945
0.686939
3.33417
2.56999
0.336996
2.32198
2.46603
1.29231
0.678014
0.688823
0.547314
1.3595
1.09018
2.30625
1.00771
3.26188
0.415265
0.803586
0.23108
0.412405
0.449555
5.58956
2.00056
0.891418
5.35819
4.47958
1.20068
5.41802
5.62634
5.26405
1.68374
0.143522
2.55312
5.26406
4.82632
4.20402
1.20976
3.04178
0.945355
2.44258
3.68675
0.329323
2.02787
0.673536
2.44505
2.48883
0.63787
4.14235
3.41965
0.230444
0.91395
2.68159
2.64688
4.97459
5.79957
3.45628
3.58601
1.99977
2.79902
5.40722
3.82957
4.28188
0.31518
1.15803
3.6386
3.61807
3.36051
2.40058
1.47337
5.35817
5.43606
2.1304
3.47295
1.24059
2.96048
1.27626
4.43894
4.07068
4.74524
2.15777
3.80888
5.24998
5.25739
3.68655
2.56065
5.33662
5.04823
5.05241
2.23492
4.07091
5.94043
4.47128
5.25734
5.71636
3.10574
2.17753
0.232886
1.22897
0.945236
3.3303
3.85071
3.82861
5.05235
3.05866
2.88641
0.265311
0.554492
4.33663
4.62268
2.31171
2.17836
0.602009
5.16685
2.52173
5.49653
2.7645
0.145403
0.634894
0.22997
1.68359
5.06794
4.74531
2.33767
0.149191
2.00043
5.90692
3.10591
3.54299
5.09303
5.33669
5.02985
5.22787
1.78412
5.43611
0.261628
4.70326
5.62631
5.90693
6.18559
4.51743
1.90403
1.45335
1.46626
5.5455
2.40061
3.87944
4.9746
0.190637
6.17453
5.16683
3.01694
2.39796
3.27426
2.13855
0.59828
1.54609
2.17828
3.53866
3.09537
4.88414
5.6407
6.14704
6.05953
6.09758
5.53316
4.8327
4.12598
3.46913
2.02733
0.845623
5.87179
1.45923
3.81833
1.58976
3.21192
3.87943
6.0353
0.2106
6.2422
6.22419
6.11107
5.31179
5.04819
4.89766
3.02022
1.34552
1.36185
2.62856
5.31181
6.2242
4.22618
3.18278
4.51732
4.20476
5.08391
3.25044
2.68104
5.35994
2.46489
3.66786
0.363601
0.293372
0.411345
1.60431
1.06346
1.27627
5.7305
5.48301
3.61592
5.96188
5.88482
4.54043
4.80738
4.69942
5.16641
4.83328
5.1251
1.20021
2.55898
5.73918
5.73285
2.09853
3.80892
4.70332
0.322675
0.67125
0.292405
0.330758
0.63488
0.293357
0.210597
0.351869
0.634744
0.302939
0.304445
1.54612
5.98819
3.69827
2.90664
3.94
3.21455
4.36193
3.25421
2.0395
3.25442
1.88124
2.73277
3.09541
3.53871
0.190522
0.784782
1.29642
3.13892
3.58588
4.56607
4.88722
4.82736
5.34259
4.72889
5.18035
4.96585
5.18029
5.50126
3.63862
4.88418
0.0912973
0.349005
0.0900684
0.340101
0.671505
0.330752
0.231221
0.292437
0.346471
0.711297
1.47333
3.21421
2.49895
4.33834
4.23661
3.6164
4.49135
1.78453
2.90871
2.12897
6.01582
2.90667
0.311995
6.06231
5.82383
4.72879
3.94816
2.44191
2.23501
2.50724
3.02059
1.19105
1.98009
1.61807
1.18701
2.96049
3.67192
4.78256
0.649607
0.0891863
0.48398
0.655054
4.04829
3.81471
4.6512
4.7757
4.80721
3.70256
2.58287
1.93727
5.08167
3.39933
3.89904
4.4208
3.65249
3.00447
3.46375
2.49255
1.58975
2.15779
2.44506
0.616708
0.600046
2.73697
2.61544
2.57987
4.21825
3.56552
2.96274
3.31455
2.16322
2.82066
3.00426
2.64667
2.14964
1.46649
2.82078
1.48073
3.05491
3.17694
2.3604
1.93972
1.53648
1.58581
5.81189
0.0854913
1.37146
1.229
3.6678
4.31704
6.14705
4.88718
4.17817
5.09296
3.17681
5.7328
4.83319
4.03791
4.94276
3.70276
3.14416
4.18135
3.64194
3.73201
3.13414
4.20946
2.4884
1.90189
4.52742
4.49136
6.09755
5.61592
1.33611
2.7474
4.68879
0.702808
0.320102
0.353653
0.363748
6.24908
5.66456
5.50911
5.24999
4.53992
2.93152
2.96163
5.73914
5.08419
3.60226
3.29932
4.16808
2.39821
2.15958
5.44678
2.62775
1.08059
2.17074
1.93442
0.671508
0.607766
0.188102
0.300567
1.15808
6.09366
5.85355
5.63685
5.83787
3.82274
3.29768
3.51757
4.56816
4.4173
4.16059
4.25092
4.67334
2.83928
3.07541
2.36211
3.06399
4.7556
2.90885
1.04364
0.558933
2.84826
0.315088
0.627349
0.33829
0.671245
0.315119
1.29991
1.24048
1.86141
4.69934
3.84017
3.33245
3.94222
4.53042
3.28462
4.21836
3.81481
3.84875
3.07519
3.25026
1.51165
1.02078
1.37075
4.87836
1.20685
2.16015
2.56252
2.08009
2.57995
1.23201
2.52487
4.43896
5.48299
0.143291
0.363601
0.377921
0.330656
0.664963
0.371981
0.3043
0.205768
4.44435
4.18227
4.8223
2.93464
3.01674
1.54846
5.36003
1.53536
4.68982
0.488388
6.21045
4.53003
3.59091
2.27512
3.79913
4.77581
4.87843
4.52747
4.68889
3.61791
2.56813
1.48909
1.51134
2.10149
1.87602
2.61606
5.16838
5.50552
0.142912
5.69378
5.64763
4.43193
4.44298
4.33861
5.54545
5.34253
4.83261
4.02222
4.11893
4.29635
4.60835
4.41541
5.08175
4.29647
3.79926
2.82148
3.6418
6.01579
2.53088
2.57547
4.67331
2.26243
2.49737
3.40889
4.14263
5.53322
5.87183
4.2819
4.20405
1.04384
6.19242
5.96189
5.54989
4.23409
3.94148
3.93724
4.2266
4.38613
3.80172
2.10146
2.28045
2.14178
5.54991
5.82383
3.50326
2.63744
3.3721
5.16834
4.25079
3.81062
3.32998
4.07027
2.95771
3.40021
1.90747
1.82716
2.92013
5.47673
5.64765
5.06795
0.320101
0.601998
0.659304
2.74573
3.45618
4.11388
3.85056
4.82727
5.22779
4.47118
3.80092
3.54311
3.05025
3.13427
3.33277
2.5844
2.27852
5.63685
3.1828
5.26267
0.329074
0.327483
3.14744
4.33668
3.25683
2.63259
2.0985
0.377255
0.549424
0.190564
4.78254
5.21105
5.73048
5.94041
5.99478
5.77732
5.58479
5.41797
5.29733
4.386
3.9546
4.4207
3.78639
4.6358
3.82299
4.03819
2.62683
2.33775
1.42004
6.02246
5.89316
0.598256
1.99971
6.21044
5.9264
5.79914
5.16637
3.89884
2.9316
4.75563
4.6359
2.6375
1.90399
2.27011
0.196483
0.340104
0.659296
0.315171
1.29991
4.43232
4.97693
4.16038
5.02977
5.12501
4.30711
2.6437
5.61598
0.48845
0.343218
2.42207
2.27483
3.4639
2.47289
1.8301
2.89479
1.53706
6.02244
4.8222
5.58953
5.79954
6.11497
4.76394
3.69854
2.8525
1.82869
5.81184
1.35584
0.918893
1.8615
5.98818
0.231038
5.10546
6.18561
4.89827
4.16796
3.11411
2.74585
1.88131
2.78176
2.94969
6.05952
3.31752
4.99193
3.84103
2.03982
4.76376
5.88485
5.92641
6.09366
6.06232
3.10012
3.47322
4.307
6.04297
3.56524
3.65219
1.60837
1.39682
5.50122
2.58419
5.47666
3.82847
2.27602
3.73186
6.17453
3.82945
4.36182
5.26272
3.3512
4.62258
3.68884
4.20508
1.21038
3.05321
3.13904
4.18123
4.20974
3.81719
4.11921
5.26258
1.0804
5.50907
5.85354
2.79896
4.99153
3.0221
3.05472
3.47107
5.79913
6.11108
5.29726
5.69374
2.42221
5.8379
0.415159
6.14941
1.77812
6.19243
5.44667
5.66452
3.84808
4.11396
3.11392
3.37219
2.31166
4.12587
2.48349
3.17401
4.4324
5.8932
0.638285
4.68991
3.5034
2.63753
4.04836
1.82978
4.07015
0.803384
0.265336
6.03533
2.47264
2.16296
2.48367
0.892013
5.26274
5.77736
2.8391
5.10554
4.65125
1.77831
2.15285
2.82128
0.675666
2.94976
3.17415
5.50558
0.914241
5.21109
2.15306
4.31709
4.43202
0.549462
4.96592
1.37153
5.58484
1.06353
4.97699
2.19232
2.01832
1.14089
0.10276
0.0864691
0.445596
0.631963
3.53813
3.6934
0.462266
0.754875
1.58164
1.89984
1.18651
0.902639
1.77334
1.81471
1.81479
1.31316
1.31206
1.51429
1.42324
1.30611
1.67037
0.225503
0.248966
2.8458
3.82345
0.704199
1.99382
1.99259
2.14897
1.34909
1.85013
1.29287
0.295607
0.39656
0.628573
0.618469
0.618475
0.629211
0.87541
0.63559
1.23238
1.23096
0.236369
0.0329665
0.0337384
0.03385
0.0334066
0.0330234
0.033165
0.635229
2.05715
0.724717
0.750666
1.60167
0.0327496
0.0326155
2.1552
1.98587
1.9938
2.11865
1.03821
1.25412
0.849647
0.230361
2.00766
0.371698
1.75012
1.75029
1.16925
1.18269
0.376467
0.39579
2.13364
0.876121
2.10013
0.988082
3.18093
0.221607
0.453623
0.458002
1.11504
0.0876947
2.10362
2.09613
2.19851
0.181421
0.177899
2.59721
2.21509
1.7949
1.5813
0.111683
0.442367
0.181225
0.261812
0.261813
1.07781
3.03485
0.822744
0.835095
1.53954
0.217437
0.11621
0.126998
0.399503
1.15686
0.118139
0.119586
0.11674
0.115664
1.55213
1.89604
2.16545
1.5403
1.1704
0.216823
0.226951
1.22299
1.45312
1.69367
1.85658
0.115552
1.51224
