# vtk DataFile Version 3.0
Malha 2D com triângulos e temperatura
ASCII
DATASET UNSTRUCTURED_GRID

POINTS 16 double
0 0 0
1 0 0
1 1 0
0 1 0
0.333333 0 0
0.666667 0 0
1 0.333333 0
1 0.666667 0
0.666667 1 0
0.333333 1 0
0 0.666667 0
0 0.333333 0
0.333333 0.333333 0
0.333333 0.666667 0
0.666667 0.333333 0
0.666667 0.666667 0

CELLS 9 36
3 0 4 12
3 11 12 13
3 10 13 9
3 4 5 14
3 12 14 15
3 13 15 8
3 5 1 6
3 14 6 7
3 15 7 2

CELL_TYPES 9
5
5
5
5
5
5
5
5
5

CELL_DATA 9
SCALARS Temperatura double 1
LOOKUP_TABLE default
2.84108
4.36237
2.05522
6.83112
-3.80737
2.33058
-0.600851
-105.249
-0.583502
