# vtk DataFile Version 3.0
Malha 2D com triângulos e temperatura
ASCII
DATASET UNSTRUCTURED_GRID

POINTS 303 double
0 0 0
1 0 0
1 1 0
0 1 0
0.0666667 0 0
0.133333 0 0
0.2 0 0
0.266667 0 0
0.333333 0 0
0.4 0 0
0.466667 0 0
0.533333 0 0
0.6 0 0
0.666667 0 0
0.733333 0 0
0.8 0 0
0.866667 0 0
0.933333 0 0
1 0.0666667 0
1 0.133333 0
1 0.2 0
1 0.266667 0
1 0.333333 0
1 0.4 0
1 0.466667 0
1 0.533333 0
1 0.6 0
1 0.666667 0
1 0.733333 0
1 0.8 0
1 0.866667 0
1 0.933333 0
0.933333 1 0
0.866667 1 0
0.8 1 0
0.733333 1 0
0.666667 1 0
0.6 1 0
0.533333 1 0
0.466667 1 0
0.4 1 0
0.333333 1 0
0.266667 1 0
0.2 1 0
0.133333 1 0
0.0666667 1 0
0 0.933333 0
0 0.866667 0
0 0.8 0
0 0.733333 0
0 0.666667 0
0 0.6 0
0 0.533333 0
0 0.466667 0
0 0.4 0
0 0.333333 0
0 0.266667 0
0 0.2 0
0 0.133333 0
0 0.0666667 0
0.5 0.942265 0
0.50197 0.0575731 0
0.0587336 0.499687 0
0.942265 0.5 0
0.0606557 0.302601 0
0.69807 0.0584788 0
0.943481 0.697894 0
0.3 0.942265 0
0.301379 0.0582283 0
0.936333 0.303914 0
0.0594905 0.696019 0
0.7 0.942265 0
0.065281 0.1772 0
0.833333 0.0559003 0
0.166667 0.942265 0
0.939932 0.83966 0
0.0597531 0.839115 0
0.832788 0.94258 0
0.170538 0.0554772 0
0.941933 0.166455 0
0.433333 0.942265 0
0.466667 0.88453 0
0.533333 0.88453 0
0.5 0.826795 0
0.433333 0.826795 0
0.466667 0.76906 0
0.533333 0.76906 0
0.5 0.711325 0
0.433333 0.711325 0
0.466667 0.65359 0
0.533333 0.65359 0
0.5 0.595855 0
0.433333 0.595855 0
0.466667 0.53812 0
0.533333 0.53812 0
0.5 0.480385 0
0.433333 0.480385 0
0.566667 0.480385 0
0.533333 0.42265 0
0.6 0.42265 0
0.633333 0.480385 0
0.566667 0.364915 0
0.633333 0.364915 0
0.5 0.364915 0
0.6 0.30718 0
0.666667 0.30718 0
0.7 0.364915 0
0.733333 0.30718 0
0.766667 0.364915 0
0.633333 0.249445 0
0.566667 0.249445 0
0.6 0.19171 0
0.533333 0.19171 0
0.666667 0.19171 0
0.8 0.30718 0
0.833333 0.364915 0
0.8 0.42265 0
0.5 0.249445 0
0.466667 0.19171 0
0.433333 0.249445 0
0.4 0.19171 0
0.366667 0.249445 0
0.333333 0.19171 0
0.3 0.249445 0
0.333333 0.30718 0
0.266667 0.30718 0
0.3 0.364915 0
0.233333 0.364915 0
0.266667 0.42265 0
0.233408 0.249488 0
0.2 0.42265 0
0.233333 0.480385 0
0.3 0.480385 0
0.266667 0.53812 0
0.2 0.53812 0
0.233333 0.595855 0
0.166667 0.595855 0
0.2 0.65359 0
0.266667 0.65359 0
0.233333 0.711325 0
0.366667 0.364915 0
0.766667 0.249445 0
0.3 0.711325 0
0.266667 0.76906 0
0.2 0.76906 0
0.233333 0.826795 0
0.3 0.826795 0
0.831643 0.250421 0
0.799718 0.191872 0
0.166667 0.364915 0
0.333333 0.65359 0
0.333333 0.53812 0
0.1686 0.825678 0
0.134909 0.42174 0
0.865091 0.42174 0
0.83363 0.479901 0
0.766716 0.480304 0
0.803035 0.537228 0
0.733847 0.537958 0
0.767258 0.595679 0
0.700184 0.595799 0
0.733463 0.653551 0
0.833333 0.595855 0
0.666719 0.653574 0
0.70003 0.711316 0
0.766693 0.711317 0
0.733333 0.76906 0
0.800004 0.769059 0
0.666672 0.769058 0
0.766667 0.826795 0
0.633361 0.595846 0
0.8314 0.825678 0
0.833755 0.712298 0
0.568919 0.135275 0
0.368919 0.135275 0
0.135927 0.768413 0
0.122671 0.658357 0
0.106198 0.59794 0
0.304379 0.128317 0
0.875944 0.194975 0
0.101115 0.364292 0
0.132757 0.305801 0
0.101216 0.244944 0
0.898383 0.364511 0
0.833414 0.135671 0
0.766658 0.135757 0
0.0640956 0.427712 0
0.935975 0.427787 0
0.433709 0.137523 0
0.4 0.0762396 0
0.502587 0.127722 0
0.168505 0.479324 0
0.366667 0.942265 0
0.533333 0.30718 0
0.631457 0.135491 0
0.600045 0.0830138 0
0.633348 0.71132 0
0.600003 0.769059 0
0.633335 0.826795 0
0.100282 0.943549 0
0.942421 0.903256 0
0.057735 0.1 0
0.113307 0.130313 0
0.733342 0.422636 0
0.700095 0.480342 0
0.666804 0.538075 0
0.766583 0.0559857 0
0.899225 0.0501279 0
0.943647 0.566667 0
0.87918 0.535501 0
0.566667 0.942265 0
0.566671 0.595853 0
0.166667 0.711325 0
0.864925 0.307707 0
0.803172 0.655895 0
0.94408 0.632982 0
0.879505 0.661458 0
0.466667 0.42265 0
0.234208 0.0541096 0
0.201296 0.114905 0
0.941131 0.231823 0
0.932901 0.768677 0
0.0682468 0.767804 0
0.666684 0.42264 0
0.333333 0.42265 0
0.766576 0.942317 0
0.233333 0.942265 0
0.4 0.30718 0
0.633333 0.942265 0
0.3 0.595855 0
0.4 0.88453 0
0.600028 0.538111 0
0.700001 0.826795 0
0.600017 0.653585 0
0.866667 0.76906 0
0.4 0.76906 0
0.269661 0.192074 0
0.202655 0.184709 0
0.123279 0.535001 0
0.7 0.249445 0
0.199991 0.307 0
0.433333 0.364915 0
0.466667 0.30718 0
0.4 0.53812 0
0.366667 0.480385 0
0.733285 0.192034 0
0.697518 0.127624 0
0.4 0.42265 0
0.6 0.88453 0
0.366667 0.595855 0
0.566672 0.711323 0
0.566667 0.826795 0
0.4 0.65359 0
0.12325 0.878852 0
0.366667 0.711325 0
0.333333 0.76906 0
0.666667 0.88453 0
0.733319 0.884539 0
0.79957 0.884406 0
0.366667 0.826795 0
0.333333 0.88453 0
0.875891 0.879976 0
0.266667 0.88453 0
0.198642 0.883398 0
0.167115 0.249703 0
0.106239 0.0626291 0
0.935983 0.0988071 0
0.899339 0.945592 0
0.0554909 0.900579 0
0.136965 0.194286 0
0.0563771 0.632124 0
0.895949 0.598492 0
0.890788 0.13774 0
0.0562793 0.564293 0
0.109904 0.472693 0
0.891228 0.472986 0
0.889995 0.257768 0
0.0458041 0.233333 0
0.1106 0.720384 0
0.0444598 0.366667 0
0.95554 0.366667 0
0.111155 0.815972 0
0.888397 0.820096 0
0.891423 0.721539 0
0.247909 0.14245 0
0.547696 0.0870588 0
0.348269 0.0871614 0
0.446999 0.0471298 0
0.652391 0.0872051 0
0.0488034 0.0488034 0
0.0488034 0.951197 0
0.951197 0.0488034 0
0.951197 0.951197 0
0.163299 0.150733 0
0.799998 0.0953272 0
0.736569 0.0955372 0
0.461762 0.0926611 0
0.631959 0.0411453 0
0.356596 0.0443259 0
0.260358 0.0984249 0
0.567578 0.0403169 0
0.866667 0.0927948 0
0.153289 0.103811 0

CELLS 544 2176
3 72 269 182
3 162 216 214
3 200 261 75
3 253 268 76
3 261 282 75
3 76 281 253
3 70 270 176
3 79 220 179
3 182 277 72
3 157 209 162
3 238 273 62
3 176 278 70
3 155 209 157
3 162 271 216
3 214 216 172
3 53 186 62
3 63 187 24
3 220 276 179
3 202 269 72
3 64 181 180
3 183 213 69
3 62 274 238
3 54 186 53
3 24 187 23
3 177 273 238
3 51 273 270
3 64 182 181
3 209 271 162
3 176 270 177
3 201 265 202
3 199 268 253
3 175 281 222
3 221 282 234
3 200 267 261
3 179 272 79
3 186 274 62
3 63 275 187
3 222 278 175
3 270 273 177
3 180 279 64
3 69 280 183
3 265 302 202
3 213 276 69
3 68 286 178
3 219 284 237
3 61 285 190
3 9 287 189
3 246 288 65
3 266 301 207
3 234 283 221
3 272 301 266
3 222 281 76
3 75 282 221
3 182 264 181
3 253 263 74
3 152 263 253
3 90 250 87
3 211 233 90
3 170 231 205
3 170 205 160
3 134 191 131
3 80 81 60
3 118 190 112
3 239 245 141
3 160 205 158
3 188 190 118
3 204 205 100
3 39 80 60
3 170 233 211
3 110 193 117
3 112 190 173
3 131 191 130
3 94 211 91
3 165 214 172
3 233 250 90
3 95 98 97
3 98 101 99
3 121 227 124
3 25 208 63
3 116 203 108
3 120 188 118
3 144 212 139
3 208 209 63
3 201 202 72
3 103 193 101
3 158 204 156
3 158 205 204
3 211 231 170
3 40 192 80
3 93 94 91
3 93 95 94
3 100 223 204
3 128 224 132
3 133 229 135
3 145 152 144
3 40 80 39
3 104 193 110
3 163 170 160
3 16 207 73
3 20 220 79
3 41 192 40
3 58 201 72
3 91 211 90
3 98 217 103
3 102 223 99
3 205 231 100
3 126 224 128
3 143 146 145
3 168 197 196
3 198 251 197
3 67 192 41
3 45 199 44
3 101 193 104
3 115 154 116
3 119 227 121
3 165 172 167
3 20 79 19
3 27 215 26
3 28 221 66
3 30 200 75
3 42 226 67
3 44 199 74
3 95 97 94
3 98 99 97
3 105 107 106
3 113 245 239
3 130 191 153
3 132 133 131
3 135 138 137
3 176 177 136
3 137 212 176
3 161 164 163
3 168 196 164
3 168 198 197
3 25 63 24
3 48 76 47
3 218 219 78
3 105 106 102
3 241 242 103
3 115 116 108
3 115 183 154
3 124 140 126
3 133 134 131
3 138 150 142
3 157 159 158
3 172 234 167
3 14 65 13
3 16 73 15
3 73 206 15
3 26 215 208
3 56 64 55
3 58 72 57
3 82 210 60
3 85 86 83
3 147 213 114
3 117 119 118
3 174 188 120
3 126 128 127
3 151 229 133
3 155 157 156
3 159 160 158
3 159 161 160
3 168 232 198
3 6 218 78
3 8 68 7
3 39 60 38
3 59 201 58
3 86 250 197
3 92 93 91
3 106 223 102
3 104 109 105
3 110 112 111
3 112 173 111
3 117 118 112
3 194 246 113
3 155 156 116
3 122 174 120
3 128 131 130
3 133 135 134
3 138 142 139
3 138 229 150
3 6 78 5
3 22 69 21
3 34 77 33
3 71 225 35
3 89 90 87
3 97 231 94
3 95 217 98
3 98 103 101
3 115 213 183
3 154 155 116
3 124 126 125
3 124 227 140
3 175 212 144
3 161 165 164
3 163 233 170
3 174 189 188
3 15 206 14
3 75 221 29
3 74 226 43
3 50 70 49
3 81 230 84
3 93 96 95
3 96 217 95
3 203 223 106
3 126 127 125
3 140 224 126
3 135 229 138
3 142 143 139
3 148 185 184
3 157 158 156
3 157 162 159
3 173 195 194
3 7 218 6
3 14 206 65
3 37 228 36
3 210 228 37
3 48 222 76
3 81 83 82
3 85 88 87
3 88 89 87
3 89 91 90
3 99 100 97
3 103 242 193
3 110 111 109
3 119 120 118
3 119 121 120
3 121 124 123
3 124 125 123
3 128 130 127
3 134 238 191
3 254 255 142
3 169 232 166
3 28 66 27
3 29 221 28
3 30 75 29
3 31 200 30
3 42 67 41
3 43 226 42
3 44 74 43
3 53 62 52
3 84 235 85
3 87 250 86
3 173 194 111
3 141 147 114
3 121 122 120
3 135 136 134
3 139 212 137
3 143 144 139
3 183 187 154
3 161 163 160
3 204 223 203
3 69 220 21
3 26 208 25
3 36 71 35
3 70 222 49
3 66 216 215
3 80 230 81
3 100 231 97
3 107 141 114
3 111 113 109
3 117 242 119
3 122 178 174
3 125 129 123
3 125 240 129
3 130 149 127
3 130 153 149
3 141 148 147
3 11 61 10
3 34 225 77
3 132 244 151
3 141 245 148
3 143 145 144
3 165 167 166
3 167 169 166
3 227 242 241
3 17 207 16
3 81 82 60
3 192 230 80
3 84 85 83
3 197 251 86
3 101 102 99
3 107 108 106
3 108 203 106
3 111 194 113
3 119 242 227
3 129 237 236
3 136 238 134
3 135 137 136
3 152 175 144
3 243 249 151
3 197 250 196
3 248 251 198
3 217 247 241
3 21 220 20
3 92 249 243
3 93 243 96
3 99 223 100
3 114 115 108
3 110 117 112
3 121 123 122
3 132 151 133
3 153 180 149
3 180 181 149
3 153 186 180
3 166 232 168
3 68 218 7
3 85 235 88
3 104 110 109
3 128 132 131
3 137 176 136
3 66 215 27
3 38 210 37
3 101 104 102
3 148 179 147
3 167 171 169
3 224 247 244
3 60 210 38
3 49 222 48
3 113 246 245
3 114 213 115
3 127 240 125
3 138 139 137
3 241 247 140
3 156 204 203
3 36 228 71
3 244 247 96
3 104 105 102
3 105 239 107
3 82 248 210
3 243 244 96
3 113 239 109
3 156 203 116
3 123 236 122
3 129 236 123
3 81 84 83
3 88 254 252
3 109 239 105
3 107 239 141
3 122 236 178
3 151 244 243
3 165 166 164
3 107 114 108
3 166 168 164
3 232 257 256
3 85 87 86
3 92 243 93
3 193 242 117
3 224 244 132
3 177 238 136
3 140 247 224
3 227 241 140
3 159 214 161
3 164 196 163
3 35 225 34
3 199 253 74
3 86 251 83
3 89 92 91
3 149 240 127
3 148 184 179
3 196 250 233
3 248 256 228
3 226 262 67
3 161 214 165
3 235 255 254
3 88 252 89
3 217 241 103
3 181 240 149
3 96 247 217
3 148 245 185
3 229 249 150
3 167 234 171
3 232 256 198
3 210 248 228
3 151 249 229
3 94 231 211
3 249 252 150
3 196 233 163
3 162 214 159
3 198 256 248
3 67 260 192
3 83 251 82
3 74 263 226
3 89 252 92
3 252 254 150
3 245 246 185
3 256 257 71
3 82 251 248
3 142 255 143
3 235 254 88
3 226 263 262
3 92 252 249
3 84 259 235
3 150 254 142
3 171 258 169
3 71 257 225
3 257 258 225
3 235 259 255
3 143 255 146
3 169 257 232
3 228 256 71
3 169 258 257
3 225 258 77
3 230 259 84
3 67 262 260
3 255 259 146
3 230 260 259
3 192 260 230
3 146 262 145
3 259 260 146
3 262 263 145
3 145 263 152
3 258 261 77
3 171 261 258
3 260 262 146
3 65 295 246
3 190 296 61
3 178 299 68
3 189 298 9
3 129 264 237
3 181 264 240
3 240 264 129
3 237 293 219
3 70 278 222
3 33 267 32
3 47 268 46
3 19 266 18
3 5 265 4
3 261 267 77
3 51 270 50
3 64 277 182
3 155 275 209
3 208 271 209
3 216 271 215
3 69 276 220
3 52 273 51
3 79 266 19
3 78 265 5
3 77 267 33
3 76 268 47
3 264 269 237
3 238 274 191
3 153 274 186
3 187 275 154
3 179 276 147
3 182 269 264
3 56 277 64
3 72 277 57
3 212 278 176
3 64 279 55
3 22 280 69
3 171 282 261
3 253 281 152
3 221 283 66
3 190 285 173
3 10 287 9
3 237 284 236
3 178 286 174
3 194 288 246
3 32 292 2
3 0 289 59
3 1 291 17
3 2 292 31
3 4 289 0
3 18 291 1
3 46 290 3
3 3 290 45
3 50 270 70
3 189 296 188
3 11 300 61
3 65 297 13
3 8 298 68
3 218 299 219
3 184 272 179
3 54 279 186
3 187 280 23
3 215 271 208
3 62 273 52
3 78 302 265
3 216 283 172
3 209 275 63
3 186 279 180
3 183 280 187
3 191 274 153
3 154 275 155
3 79 272 266
3 172 283 234
3 147 276 213
3 57 277 56
3 61 300 285
3 68 298 286
3 219 299 284
3 287 296 189
3 288 297 65
3 175 278 212
3 55 279 54
3 23 280 22
3 152 281 175
3 234 282 171
3 66 283 216
3 173 285 195
3 174 286 189
3 236 284 178
3 61 287 10
3 195 288 194
3 266 291 18
3 268 290 46
3 265 289 4
3 267 292 32
3 31 292 200
3 45 290 199
3 17 291 207
3 59 289 201
3 294 301 184
3 195 300 297
3 185 295 294
3 294 295 206
3 73 294 206
3 246 295 185
3 206 295 65
3 185 294 184
3 13 297 12
3 188 296 190
3 297 300 12
3 9 298 8
3 12 300 11
3 68 299 218
3 73 301 294
3 207 301 73
3 219 302 78
3 199 290 268
3 201 289 265
3 207 291 266
3 200 292 267
3 269 293 237
3 202 293 269
3 184 301 272
3 284 299 178
3 286 298 189
3 285 300 195
3 61 296 287
3 195 297 288
3 293 302 219
3 202 302 293

CELL_TYPES 544
5
5
5
5
5
5
5
5
5
5
5
5
5
5
5
5
5
5
5
5
5
5
5
5
5
5
5
5
5
5
5
5
5
5
5
5
5
5
5
5
5
5
5
5
5
5
5
5
5
5
5
5
5
5
5
5
5
5
5
5
5
5
5
5
5
5
5
5
5
5
5
5
5
5
5
5
5
5
5
5
5
5
5
5
5
5
5
5
5
5
5
5
5
5
5
5
5
5
5
5
5
5
5
5
5
5
5
5
5
5
5
5
5
5
5
5
5
5
5
5
5
5
5
5
5
5
5
5
5
5
5
5
5
5
5
5
5
5
5
5
5
5
5
5
5
5
5
5
5
5
5
5
5
5
5
5
5
5
5
5
5
5
5
5
5
5
5
5
5
5
5
5
5
5
5
5
5
5
5
5
5
5
5
5
5
5
5
5
5
5
5
5
5
5
5
5
5
5
5
5
5
5
5
5
5
5
5
5
5
5
5
5
5
5
5
5
5
5
5
5
5
5
5
5
5
5
5
5
5
5
5
5
5
5
5
5
5
5
5
5
5
5
5
5
5
5
5
5
5
5
5
5
5
5
5
5
5
5
5
5
5
5
5
5
5
5
5
5
5
5
5
5
5
5
5
5
5
5
5
5
5
5
5
5
5
5
5
5
5
5
5
5
5
5
5
5
5
5
5
5
5
5
5
5
5
5
5
5
5
5
5
5
5
5
5
5
5
5
5
5
5
5
5
5
5
5
5
5
5
5
5
5
5
5
5
5
5
5
5
5
5
5
5
5
5
5
5
5
5
5
5
5
5
5
5
5
5
5
5
5
5
5
5
5
5
5
5
5
5
5
5
5
5
5
5
5
5
5
5
5
5
5
5
5
5
5
5
5
5
5
5
5
5
5
5
5
5
5
5
5
5
5
5
5
5
5
5
5
5
5
5
5
5
5
5
5
5
5
5
5
5
5
5
5
5
5
5
5
5
5
5
5
5
5
5
5
5
5
5
5
5
5
5
5
5
5
5
5
5
5
5
5
5
5
5
5
5
5
5
5
5
5
5
5
5
5
5
5
5
5
5
5
5
5
5
5
5
5
5
5
5
5
5
5
5
5
5
5
5
5
5
5
5
5
5
5
5
5
5
5
5
5
5
5
5
5
5
5
5
5
5
5
5
5
5
5
5
5
5
5
5
5
5
5
5
5
5
5
5
5
5
5
5
5
5
5
5
5
5
5
5
5
5
5

CELL_DATA 544
SCALARS Temperatura double 1
LOOKUP_TABLE default
1.48982
3.13743
0.822703
0.820764
1.16754
1.17374
1.64755
1.18117
1.1258
3.357
1.83203
1.88511
3.39333
2.68355
2.97204
0.989005
0.980763
1.56492
1.32229
1.95016
1.98756
2.20694
0.523644
0.523058
2.128
0.878368
1.81589
2.78162
2.01902
0.747607
0.710734
1.60256
1.57856
0.703612
1.21906
1.78855
1.77303
1.75687
1.63337
1.45185
1.47617
0.974063
1.91131
1.80784
2.14587
2.07187
0.968971
1.80354
0.671244
1.72403
0.90067
1.14453
1.13489
2.27553
1.22422
1.62875
5.31637
5.70847
5.74188
5.43693
4.02069
1.7781
3.54838
3.47838
5.19103
3.22644
5.56785
0.931481
5.69511
4.90316
3.21203
3.99585
6.08936
3.39819
5.41836
6.19824
5.92332
4.77424
0.920668
4.31743
3.53487
3.16043
1.80745
0.860501
5.64297
4.89867
5.25279
5.87207
0.89829
6.18124
6.25459
5.5347
5.19186
4.78623
2.50572
0.472133
5.04788
5.27332
0.3988
0.604949
0.446501
0.470782
5.90582
6.03039
5.6021
5.81003
5.067
3.04929
4.36779
3.74091
0.831913
0.170543
5.412
3.36101
4.72828
3.15605
0.268345
0.432561
0.785254
0.431201
0.732364
0.429231
6.23574
6.06936
4.62947
3.50814
3.45377
4.9014
4.16069
2.71166
3.01111
4.63446
4.38625
3.8872
0.480724
0.273301
1.12486
5.03925
5.64297
3.79675
2.76105
5.03935
4.47796
4.63499
4.4086
2.61097
0.409654
0.258868
0.581915
0.874367
0.425359
0.308073
1.7781
4.18429
2.8768
4.42343
3.1531
4.63881
5.19359
3.99468
4.78163
4.63897
3.46421
0.574055
0.407377
0.480677
0.17578
4.61822
6.08938
5.27001
4.77423
4.09951
3.52247
4.17335
2.87551
3.98569
3.33583
4.42402
4.42537
4.17876
4.88305
0.25963
0.44635
0.266065
0.732066
5.5163
6.1435
6.17908
5.90152
2.64272
3.44245
4.62962
5.11861
2.62726
4.17825
5.39876
2.48128
0.333785
0.648519
0.599664
0.417496
2.87275
6.23575
6.19825
5.06674
4.43572
5.27017
4.64201
3.86094
2.09862
4.46268
3.9002
2.50682
0.323063
0.727183
0.446496
0.898283
0.653959
2.92466
4.91179
5.31638
5.81168
5.97716
5.5098
4.26595
4.09916
4.26576
4.37868
4.31827
4.31768
3.43677
4.38636
3.04923
0.395919
0.398408
0.274012
0.171141
0.403784
0.343994
0.267214
0.489033
4.11003
4.91179
3.13998
3.16345
3.87713
3.91734
3.4205
3.36632
2.18452
4.882
5.19127
0.776213
0.460832
0.403782
0.811918
1.60745
2.14647
6.01326
3.67954
3.87728
4.9031
2.88119
3.85463
3.67977
3.79697
3.36124
2.85631
0.479247
0.598199
5.56858
2.99056
2.99617
3.36619
2.99611
5.412
0.151847
2.18525
1.71468
3.87927
4.11002
5.69104
4.43553
4.63858
3.33662
5.04784
2.98243
3.38757
3.79921
2.34888
5.7423
4.73661
3.13763
5.92335
0.350204
5.8722
6.14356
5.7402
3.6306
4.42357
3.95047
5.25524
2.75822
2.62488
2.18167
3.51588
0.713695
4.61824
4.72836
4.87198
3.17263
0.811723
0.472131
5.44173
2.3068
2.50569
5.74032
0.931479
0.405893
2.98822
3.07356
3.94462
3.94954
5.69108
4.87115
0.831902
5.97721
5.11856
4.3181
2.14646
6.01337
3.95046
4.42351
3.51461
3.48769
3.25365
5.12678
4.37861
3.85398
2.99996
5.81044
3.86076
3.94476
3.95043
2.45736
4.7017
6.07151
5.13906
5.53512
2.8095
5.60222
5.44176
4.14165
4.74735
0.343744
0.829424
3.87926
5.90583
3.63053
1.98204
5.12672
2.03013
1.39763
3.93225
4.36785
5.41839
5.90153
3.05943
6.0694
2.5731
5.27395
2.33814
2.90563
1.71467
5.43783
6.07145
5.39898
5.12446
3.77827
2.71696
1.58785
3.25364
1.14789
5.70852
5.12461
2.53584
1.83622
2.87273
3.95053
4.73665
1.56906
5.69521
3.74093
4.74757
2.10454
1.39736
1.56601
3.88724
3.51594
2.55768
1.58782
2.09549
1.1444
3.13765
1.8363
3.46426
2.717
2.03015
2.55777
2.90567
2.09636
2.10296
1.22104
1.6291
2.45744
1.75773
2.1107
1.77504
0.925212
2.84075
2.85584
3.15734
1.96328
1.45466
0.164573
0.166688
0.192408
0.193592
0.820523
0.436427
1.25
2.87352
2.09548
1.9853
1.39825
0.460544
0.458792
0.456841
0.420933
0.425192
2.33888
2.90883
2.28779
2.28012
2.09045
2.07676
0.676882
0.592104
2.4515
0.763707
0.785509
1.5555
1.56629
1.41651
2.56923
0.387039
2.62068
2.32724
2.32177
0.0661407
0.0671455
0.0659849
0.0661932
0.0677446
0.0670753
0.0662305
0.0663798
0.837052
2.25795
0.793566
0.725038
0.739826
1.45821
1.534
0.843776
0.843238
1.61333
0.927747
0.846968
2.41981
2.17577
1.55021
1.55337
2.9571
2.93762
0.832022
2.29834
2.36195
0.273815
1.44251
1.32422
1.89363
1.64882
1.31515
2.32737
0.343797
0.343749
1.89479
1.87508
1.83703
2.24575
2.10502
2.6079
0.847026
2.14728
0.238146
0.224126
0.245157
0.223482
0.224629
0.22682
0.21641
0.230485
1.34158
1.25026
1.73526
1.35229
1.03318
2.06538
1.27677
1.72357
0.318227
2.62158
0.640878
0.34112
0.329384
1.27893
1.04221
0.718557
1.20136
0.413909
0.440688
0.415833
0.408733
2.03701
1.58846
1.26719
2.1376
1.50312
1.60486
1.53624
1.53712
1.54922
1.37844
