# vtk DataFile Version 3.0
Malha 2D com triângulos e temperatura
ASCII
DATASET UNSTRUCTURED_GRID

POINTS 1052 double
0 0 0
1 0 0
1 1 0
0 1 0
0.0344828 0 0
0.0689655 0 0
0.103448 0 0
0.137931 0 0
0.172414 0 0
0.206897 0 0
0.241379 0 0
0.275862 0 0
0.310345 0 0
0.344828 0 0
0.37931 0 0
0.413793 0 0
0.448276 0 0
0.482759 0 0
0.517241 0 0
0.551724 0 0
0.586207 0 0
0.62069 0 0
0.655172 0 0
0.689655 0 0
0.724138 0 0
0.758621 0 0
0.793103 0 0
0.827586 0 0
0.862069 0 0
0.896552 0 0
0.931034 0 0
0.965517 0 0
1 0.0344828 0
1 0.0689655 0
1 0.103448 0
1 0.137931 0
1 0.172414 0
1 0.206897 0
1 0.241379 0
1 0.275862 0
1 0.310345 0
1 0.344828 0
1 0.37931 0
1 0.413793 0
1 0.448276 0
1 0.482759 0
1 0.517241 0
1 0.551724 0
1 0.586207 0
1 0.62069 0
1 0.655172 0
1 0.689655 0
1 0.724138 0
1 0.758621 0
1 0.793103 0
1 0.827586 0
1 0.862069 0
1 0.896552 0
1 0.931034 0
1 0.965517 0
0.965517 1 0
0.931034 1 0
0.896552 1 0
0.862069 1 0
0.827586 1 0
0.793103 1 0
0.758621 1 0
0.724138 1 0
0.689655 1 0
0.655172 1 0
0.62069 1 0
0.586207 1 0
0.551724 1 0
0.517241 1 0
0.482759 1 0
0.448276 1 0
0.413793 1 0
0.37931 1 0
0.344828 1 0
0.310345 1 0
0.275862 1 0
0.241379 1 0
0.206897 1 0
0.172414 1 0
0.137931 1 0
0.103448 1 0
0.0689655 1 0
0.0344828 1 0
0 0.965517 0
0 0.931034 0
0 0.896552 0
0 0.862069 0
0 0.827586 0
0 0.793103 0
0 0.758621 0
0 0.724138 0
0 0.689655 0
0 0.655172 0
0 0.62069 0
0 0.586207 0
0 0.551724 0
0 0.517241 0
0 0.482759 0
0 0.448276 0
0 0.413793 0
0 0.37931 0
0 0.344828 0
0 0.310345 0
0 0.275862 0
0 0.241379 0
0 0.206897 0
0 0.172414 0
0 0.137931 0
0 0.103448 0
0 0.0689655 0
0 0.0344828 0
0.0309637 0.501904 0
0.970137 0.5 0
0.5 0.970137 0
0.500944 0.029318 0
0.362069 0.970137 0
0.0293207 0.361454 0
0.967069 0.639955 0
0.637931 0.0298629 0
0.969139 0.361152 0
0.362069 0.0298629 0
0.637931 0.970137 0
0.0329314 0.639955 0
0.224138 0.970137 0
0.970137 0.775862 0
0.034589 0.223633 0
0.775616 0.0290556 0
0.775862 0.970137 0
0.0287414 0.776419 0
0.969349 0.223933 0
0.224384 0.0290589 0
0.87931 0.970137 0
0.030909 0.879902 0
0.0298629 0.12069 0
0.87931 0.0298629 0
0.12069 0.970137 0
0.96939 0.880048 0
0.972428 0.120056 0
0.120444 0.0290589 0
0.431034 0.970137 0
0.0274691 0.429018 0
0.970137 0.568966 0
0.568966 0.0298629 0
0.293103 0.970137 0
0.96712 0.704125 0
0.0291531 0.293103 0
0.706897 0.0285717 0
0.971116 0.433127 0
0.967227 0.288577 0
0.293103 0.0298629 0
0.431034 0.0298629 0
0.568966 0.970137 0
0.706897 0.970137 0
0.0298629 0.568966 0
0.0316931 0.704881 0
0.0285864 0.0519287 0
0.948276 0.0298629 0
0.948276 0.970137 0
0.0530578 0.970907 0
0.844828 0.970137 0
0.861817 0.940419 0
0.827544 0.940298 0
0.844527 0.910585 0
0.810288 0.910444 0
0.827527 0.880583 0
0.793084 0.880559 0
0.810332 0.850693 0
0.775857 0.850688 0
0.7931 0.820824 0
0.758619 0.820823 0
0.775861 0.79096 0
0.741379 0.79096 0
0.758621 0.761097 0
0.724138 0.761096 0
0.741379 0.731234 0
0.706897 0.731234 0
0.724138 0.701371 0
0.689655 0.701371 0
0.706897 0.671508 0
0.672414 0.671508 0
0.689655 0.641645 0
0.655172 0.641645 0
0.672414 0.611782 0
0.637931 0.611782 0
0.655172 0.581919 0
0.62069 0.581919 0
0.637931 0.552056 0
0.603448 0.552056 0
0.586207 0.581919 0
0.568966 0.552056 0
0.551724 0.581919 0
0.534483 0.552056 0
0.517241 0.581919 0
0.5 0.552056 0
0.517241 0.522193 0
0.482759 0.522193 0
0.482759 0.581919 0
0.5 0.49233 0
0.465517 0.49233 0
0.482759 0.462467 0
0.448276 0.462467 0
0.465517 0.432604 0
0.431034 0.432604 0
0.413793 0.462467 0
0.396552 0.432604 0
0.5 0.432604 0
0.448276 0.402741 0
0.37931 0.462467 0
0.5 0.611782 0
0.465517 0.611782 0
0.362069 0.432604 0
0.344828 0.462467 0
0.482759 0.641645 0
0.448276 0.641645 0
0.672414 0.552056 0
0.327586 0.432604 0
0.344828 0.402741 0
0.672414 0.731233 0
0.465517 0.671508 0
0.431034 0.671508 0
0.310345 0.462467 0
0.310345 0.402741 0
0.327586 0.372878 0
0.655172 0.522193 0
0.689655 0.522193 0
0.672414 0.49233 0
0.293103 0.372878 0
0.310345 0.343015 0
0.706897 0.49233 0
0.689655 0.462467 0
0.448276 0.701371 0
0.413793 0.701371 0
0.396552 0.671508 0
0.37931 0.701371 0
0.362069 0.671508 0
0.344828 0.701371 0
0.327586 0.671508 0
0.310345 0.701371 0
0.293103 0.671508 0
0.724138 0.462467 0
0.706897 0.432604 0
0.275862 0.701371 0
0.724138 0.641645 0
0.275862 0.343015 0
0.293103 0.313152 0
0.327586 0.313152 0
0.310345 0.283289 0
0.344828 0.283289 0
0.275862 0.283289 0
0.741379 0.49233 0
0.258621 0.671508 0
0.741379 0.432604 0
0.724138 0.402741 0
0.327586 0.731233 0
0.258621 0.372878 0
0.431034 0.731233 0
0.465517 0.731233 0
0.689655 0.402741 0
0.706897 0.372878 0
0.672414 0.372878 0
0.689655 0.343015 0
0.655172 0.343015 0
0.672414 0.313152 0
0.637931 0.313152 0
0.706897 0.313152 0
0.655172 0.283289 0
0.62069 0.283289 0
0.327586 0.253426 0
0.362069 0.253426 0
0.241379 0.701371 0
0.758621 0.402741 0
0.637931 0.253426 0
0.603448 0.253426 0
0.448276 0.761096 0
0.482759 0.761096 0
0.775862 0.731234 0
0.224138 0.671508 0
0.241379 0.641645 0
0.344828 0.223563 0
0.37931 0.223563 0
0.62069 0.223563 0
0.655172 0.223563 0
0.586207 0.223563 0
0.568966 0.253426 0
0.206897 0.701371 0
0.224138 0.731233 0
0.206897 0.641645 0
0.224138 0.611782 0
0.724138 0.820823 0
0.396552 0.253426 0
0.413793 0.223563 0
0.465517 0.790959 0
0.5 0.790959 0
0.327586 0.49233 0
0.431034 0.790959 0
0.396552 0.1937 0
0.431034 0.1937 0
0.603448 0.1937 0
0.189655 0.731233 0
0.206897 0.761096 0
0.189655 0.611782 0
0.206897 0.581919 0
0.517241 0.761096 0
0.534483 0.790959 0
0.172414 0.581919 0
0.189655 0.552056 0
0.172414 0.761096 0
0.189655 0.790959 0
0.224138 0.790959 0
0.827583 0.820824 0
0.448276 0.581919 0
0.775862 0.432604 0
0.793103 0.402741 0
0.810345 0.432604 0
0.827586 0.402741 0
0.810345 0.372878 0
0.517241 0.641645 0
0.310345 0.223563 0
0.603448 0.313152 0
0.310345 0.641645 0
0.241379 0.343015 0
0.224138 0.372878 0
0.206897 0.343015 0
0.189655 0.372878 0
0.172414 0.343015 0
0.206897 0.402741 0
0.327586 0.1937 0
0.293103 0.1937 0
0.637931 0.671508 0
0.172414 0.641645 0
0.655172 0.402741 0
0.189655 0.313152 0
0.586207 0.522193 0
0.568966 0.1937 0
0.431034 0.253426 0
0.482759 0.820822 0
0.206897 0.820822 0
0.241379 0.820822 0
0.172414 0.820822 0
0.172414 0.402741 0
0.844828 0.432604 0
0.827586 0.462467 0
0.155172 0.552056 0
0.310345 0.163838 0
0.275862 0.163838 0
0.258621 0.1937 0
0.241379 0.163838 0
0.224138 0.1937 0
0.206897 0.163838 0
0.189655 0.1937 0
0.172414 0.163838 0
0.586207 0.163838 0
0.62069 0.163838 0
0.551724 0.163838 0
0.413793 0.163838 0
0.844828 0.372878 0
0.827586 0.343015 0
0.155172 0.1937 0
0.155172 0.313152 0
0.155172 0.731233 0
0.241379 0.581919 0
0.362069 0.313152 0
0.551724 0.761096 0
0.568966 0.790959 0
0.551724 0.820822 0
0.586207 0.820822 0
0.189655 0.850685 0
0.155172 0.850685 0
0.137931 0.581919 0
0.172414 0.522193 0
0.206897 0.522193 0
0.568966 0.850685 0
0.603448 0.850685 0
0.862069 0.343015 0
0.844828 0.313152 0
0.137931 0.820822 0
0.137931 0.163838 0
0.861782 0.881346 0
0.862069 0.462467 0
0.844828 0.49233 0
0.137931 0.522193 0
0.137931 0.343015 0
0.155172 0.133975 0
0.258621 0.133975 0
0.603448 0.133975 0
0.637931 0.133975 0
0.396552 0.49233 0
0.706897 0.552056 0
0.810345 0.313152 0
0.827586 0.283289 0
0.862069 0.283289 0
0.844828 0.253426 0
0.810345 0.253426 0
0.827586 0.223563 0
0.793103 0.223563 0
0.810345 0.1937 0
0.775862 0.1937 0
0.844828 0.1937 0
0.827586 0.163838 0
0.86279 0.163395 0
0.844592 0.134106 0
0.810306 0.133997 0
0.37931 0.641645 0
0.758617 0.880551 0
0.62069 0.820822 0
0.637931 0.850685 0
0.758621 0.223563 0
0.448276 0.163838 0
0.534483 0.1937 0
0.741379 0.1937 0
0.172414 0.880548 0
0.137931 0.880548 0
0.206897 0.880548 0
0.431034 0.133975 0
0.396552 0.133975 0
0.465517 0.133975 0
0.87931 0.372878 0
0.827185 0.104343 0
0.12069 0.1937 0
0.880567 0.19291 0
0.878814 0.492617 0
0.861986 0.522241 0
0.827572 0.522201 0
0.844811 0.552065 0
0.810344 0.552057 0
0.827583 0.58192 0
0.862066 0.581921 0
0.844827 0.611782 0
0.87931 0.611782 0
0.862069 0.641645 0
0.827586 0.641645 0
0.844828 0.671508 0
0.87931 0.671508 0
0.862069 0.701371 0
0.12069 0.313152 0
0.12069 0.133975 0
0.87897 0.132501 0
0.189655 0.49233 0
0.534483 0.731233 0
0.568966 0.731233 0
0.62069 0.880548 0
0.655172 0.880548 0
0.224138 0.49233 0
0.793103 0.581919 0
0.206897 0.223563 0
0.258621 0.790959 0
0.275862 0.820822 0
0.137931 0.223563 0
0.79303 0.104154 0
0.896552 0.522193 0
0.896552 0.343015 0
0.894395 0.463359 0
0.103448 0.223563 0
0.0871936 0.19427 0
0.101908 0.343317 0
0.448276 0.104112 0
0.482759 0.105403 0
0.137931 0.104112 0
0.172414 0.104112 0
0.103448 0.104112 0
0.62069 0.104112 0
0.655172 0.104112 0
0.672414 0.133975 0
0.688711 0.104657 0
0.586207 0.104112 0
0.896552 0.701371 0
0.87931 0.731233 0
0.844828 0.731233 0
0.551724 0.701371 0
0.137931 0.761096 0
0.120835 0.73115 0
0.103874 0.761147 0
0.137955 0.701357 0
0.103622 0.701271 0
0.706739 0.134065 0
0.120723 0.671489 0
0.362069 0.372878 0
0.534483 0.850685 0
0.551724 0.880548 0
0.517241 0.880548 0
0.448276 0.522193 0
0.568966 0.611782 0
0.87931 0.253426 0
0.896552 0.283289 0
0.534483 0.49233 0
0.120433 0.372928 0
0.896552 0.940274 0
0.775862 0.552056 0
0.413793 0.283289 0
0.448276 0.283289 0
0.431034 0.313152 0
0.465517 0.313152 0
0.465517 0.253426 0
0.655172 0.462467 0
0.896551 0.581919 0
0.241379 0.522193 0
0.655172 0.820822 0
0.637931 0.790959 0
0.758621 0.581919 0
0.775862 0.611782 0
0.258621 0.850685 0
0.293103 0.850685 0
0.310345 0.820822 0
0.327586 0.850685 0
0.344828 0.820822 0
0.362069 0.850685 0
0.344828 0.880548 0
0.37931 0.880548 0
0.275862 0.880548 0
0.724138 0.223563 0
0.741379 0.253426 0
0.810345 0.671508 0
0.862069 0.761096 0
0.896552 0.761096 0
0.87931 0.790959 0
0.396552 0.850685 0
0.413793 0.880548 0
0.465517 0.1937 0
0.172414 0.283289 0
0.206897 0.283289 0
0.775843 0.133985 0
0.723981 0.0987959 0
0.689629 0.163853 0
0.155172 0.910411 0
0.534483 0.910411 0
0.5 0.910411 0
0.482759 0.880548 0
0.568966 0.910411 0
0.465517 0.910411 0
0.396552 0.910411 0
0.12069 0.910411 0
0.103448 0.880548 0
0.0862069 0.910411 0
0.0862413 0.671488 0
0.103459 0.641638 0
[...]
CELL_DATA 1986
SCALARS Temperatura double 1
LOOKUP_TABLE default
0.38117
0.864475
0.337467
0.333283
0.55534
0.506905
1.85578
0.977904
0.950918
0.939814
0.936576
0.712625
0.717122
0.890761
0.357054
1.68381
0.360458
0.889028
1.7286
0.677648
0.603767
0.593464
0.16742
0.16656
1.17572
1.88756
1.01906
1.01947
0.245433
1.11352
1.1118
0.712375
0.666769
0.299396
0.322328
0.329423
0.311691
1.47516
1.4193
0.0514959
0.36456
1.09484
1.09055
1.52702
0.895802
1.08505
0.362777
1.48694
0.492613
0.460865
0.486259
1.00631
0.0681393
1.2445
1.0293
1.35441
0.451633
0.78568
0.999806
0.80849
0.841299
1.08275
0.533689
0.527562
1.38028
0.739694
0.739663
0.660917
1.45979
0.83935
0.489677
1.35416
1.1107
1.11476
0.706306
1.13263
0.330074
0.800184
1.16142
0.930327
1.07696
2.00367
0.858402
0.761236
0.764222
0.212697
1.28705
1.25816
1.17469
0.235877
1.14379
1.13814
0.294501
0.555826
1.02892
1.01026
0.798896
0.589627
1.18356
0.0494049
0.450026
1.00433
0.220974
0.549309
0.876631
1.66113
1.42201
1.57507
0.274778
0.622781
0.478255
1.2952
0.931149
1.12771
0.297468
0.742692
1.09786
0.990608
0.192984
0.809446
0.66137
0.507315
1.82543
2.8332
2.57424
2.85879
2.8888
2.55968
2.88715
2.20305
3.38691
3.1759
1.30262
3.16051
1.57363
3.42198
1.46601
1.60042
2.51349
1.54013
1.59147
4.02585
4.08892
2.09189
1.8118
0.951598
2.58757
1.45098
2.31921
1.92228
4.19827
2.43103
4.57194
0.240024
0.288813
2.8166
2.08267
1.4661
3.88654
1.12511
4.48721
5.23302
2.93254
2.91656
3.53476
1.05996
0.102573
0.474618
1.84063
0.52075
0.461317
4.15522
3.75342
0.102217
0.43004
3.62042
3.97319
0.469616
4.3798
3.07116
1.16785
1.64446
3.29707
1.42744
1.81544
4.1808
2.56019
5.9568
2.45598
1.94027
4.5752
1.95067
0.470245
0.23239
0.490538
5.95161
2.23594
3.09674
1.98302
3.06697
0.957017
0.460452
0.349569
0.883227
2.1675
2.32519
5.97766
5.36195
2.34605
0.22314
2.4818
3.05245
1.09466
2.11933
0.226772
5.84305
5.23182
1.96469
4.30356
2.51963
4.79017
0.682666
0.464997
4.92439
2.10386
3.0998
5.76117
1.5594
5.78438
4.43385
5.33332
3.18945
0.126779
2.00019
5.90343
1.85876
5.7074
0.236676
0.456456
0.227937
0.449075
0.21626
4.7497
5.9146
2.31315
0.612552
5.07895
0.185604
1.97495
0.796215
0.176306
5.94451
5.86515
0.872006
2.23783
1.09385
2.67113
3.90543
2.10097
0.119896
0.407772
2.8336
0.44799
0.862597
0.455006
0.760959
0.75384
0.799615
5.82412
0.427703
5.84962
5.88401
1.38466
1.30247
1.22322
0.235861
5.90623
0.401031
4.62322
2.23608
1.01277
5.73341
4.31337
2.99627
5.82308
5.11395
5.22132
0.121934
0.313698
2.76106
2.15177
3.72611
2.88238
0.687403
3.18165
5.43838
5.88144
5.1719
0.802167
0.475891
0.238664
0.103166
3.45393
5.70906
3.10586
5.88049
3.00803
0.231024
5.64898
0.200098
4.56253
0.119849
2.47887
0.0446684
1.75492
2.44233
0.272032
0.408262
1.97397
2.61884
5.60338
5.43984
0.230594
4.47546
0.71038
0.100614
5.11502
1.01399
5.13894
0.839923
0.22287
0.177552
1.16277
2.78045
1.80137
5.22217
2.21871
3.6958
5.42183
0.399268
0.177737
2.70847
3.08739
0.864374
0.430146
2.67088
3.92718
5.88575
2.20562
0.366428
4.16938
2.95844
0.838756
1.73587
0.436335
0.423989
0.23857
0.853076
2.29039
3.04872
0.0456735
1.91154
0.337977
0.223108
5.33782
0.86401
0.127362
0.241145
0.733381
1.41459
1.68049
1.31233
1.92119
0.25752
1.8646
0.215685
0.273185
1.77264
2.13917
0.90511
5.82189
0.372816
0.184293
4.48607
2.17942
1.11654
0.70442
1.94035
3.38117
2.25223
3.24215
2.25916
2.22138
5.44516
5.53272
2.23143
1.52058
0.953437
2.66478
0.343811
3.35949
2.13748
2.22953
1.95096
1.5824
0.380934
3.95748
1.1016
1.88938
2.12741
3.7011
2.72969
4.82522
0.200397
1.65233
2.58086
5.45066
5.38569
1.37758
0.246408
1.96051
2.993
0.22505
2.51662
2.14505
0.148561
1.93482
2.37497
3.95671
5.38502
3.59352
4.27109
2.55811
3.13744
0.102075
2.14414
1.74726
0.374161
5.46666
2.15118
0.193343
0.466683
4.34871
0.354613
2.39168
2.57101
4.53685
5.94258
4.74679
0.419346
1.17237
3.93912
4.7951
0.0773589
4.19151
3.84658
0.222186
4.48651
4.87985
1.27571
4.52788
5.56737
2.26926
1.27951
0.270633
2.13425
1.6715
0.217802
3.04876
1.7556
0.231019
0.106342
0.130292
0.0472968
0.168542
0.212894
4.92411
5.43467
0.0750828
5.96812
1.39637
3.45202
5.55683
2.2248
5.57467
2.65066
3.5491
1.53374
2.73253
5.51807
3.08562
2.05755
4.25664
3.37156
3.08949
2.60815
2.77126
4.23374
2.97002
2.31821
1.97132
4.73231
3.07701
0.171158
3.32968
4.11991
0.204968
3.63056
5.95417
2.94546
3.10759
1.22881
4.83835
3.10839
3.49507
4.61418
1.76016
2.81404
0.189647
2.15342
0.33516
3.37947
3.04586
4.81917
4.12052
3.75814
3.55881
5.70714
3.46336
1.75333
1.86745
4.61824
3.81194
0.926695
5.84716
5.60161
2.49161
3.03437
2.7441
5.30239
3.7677
3.14073
3.26806
5.75448
1.43677
0.193266
4.00255
2.21248
4.97558
4.08061
5.05685
3.80613
0.654548
1.96151
2.94869
2.33603
2.49608
3.45668
0.199917
4.83192
5.96004
4.28413
3.45057
4.62332
3.48317
4.07541
3.38877
2.88975
5.67727
0.149146
2.75328
2.60779
5.49524
2.62703
5.70206
3.06444
2.37396
3.44524
0.0761539
4.23654
2.97003
2.60007
4.73586
4.70018
5.97098
2.72544
1.49676
4.54521
3.30263
4.87605
3.44778
4.10859
5.70107
0.20412
2.63854
5.76263
3.15964
2.84129
2.81205
2.60894
3.28579
4.70288
0.172075
0.158267
1.73514
3.63247
3.93197
1.86406
1.68174
1.31731
5.08291
2.08575
5.08452
4.5736
3.84341
2.35458
5.58373
2.93335
1.8581
0.186403
3.26159
2.66875
1.7277
4.39595
4.85303
4.58738
1.20305
2.82638
2.47019
5.76059
3.82077
5.89553
2.36609
0.162749
4.65469
0.968081
3.56486
2.45704
5.76578
4.83117
2.97993
2.84395
3.74582
0.046328
2.39929
3.34498
1.89904
5.16612
2.04253
3.60578
3.24962
1.74228
2.60667
5.41154
1.91587
5.16261
5.77287
2.1853
4.81432
5.59811
3.15973
5.7384
4.05426
5.20291
2.57863
5.71341
5.7164
5.27319
3.07884
5.83819
4.03083
4.261
2.68555
4.61354
1.59896
4.06303
5.64657
3.69504
5.16734
2.867
5.42804
3.64741
4.09074
3.89913
5.65057
5.52616
5.12738
5.98877
0.751755
2.25769
5.89282
4.75466
4.79204
5.54251
5.78933
3.58105
3.27111
3.85411
1.57424
5.67247
2.90588
3.83801
4.73963
3.42059
5.60186
4.48542
3.39163
4.17912
5.53036
4.99546
5.49832
0.815138
2.87929
4.35529
2.68912
5.65626
3.9311
3.96635
3.42466
3.2006
3.37142
4.94743
3.16423
1.8821
3.40601
2.84381
5.72264
2.21368
4.62669
1.44077
3.0311
4.43988
4.31942
3.62593
3.87366
2.44537
2.19666
4.46856
3.11934
5.49981
4.48453
2.76573
4.07722
5.24393
3.53247
5.3814
3.3023
3.26755
2.92767
3.58413
3.73512
4.62083
5.05979
5.92061
2.30421
1.69075
1.08321
5.52503
5.32899
2.21709
6.00926
1.42004
5.12828
4.42029
1.84318
5.58516
5.29242
5.86024
5.81605
2.79332
5.57117
2.09989
5.73283
3.28347
1.44011
3.93778
5.19687
0.900207
5.355
4.79647
4.36517
5.31278
4.91997
5.65581
5.84214
4.97579
4.93783
2.25079
5.64671
2.86254
4.94996
4.79352
5.41007
3.8428
3.46854
4.3557
6.00728
3.7096
0.913805
5.75431
5.07242
5.3644
4.57957
1.83637
4.18692
3.59342
5.12134
5.89518
5.04165
5.27924
4.72711
4.38619
3.55037
0.134009
2.51956
5.55073
1.15993
5.35339
2.99763
4.15105
2.18232
2.7771
3.13726
3.14578
3.89592
3.85914
2.42555
5.78822
1.65782
3.51317
4.54305
3.69998
5.55218
5.08462
5.6046
4.82548
5.96672
4.63804
4.20816
2.0286
5.97047
5.86284
3.68363
3.19972
2.13409
5.37958
4.25314
3.59515
5.53891
2.29501
4.45999
3.39481
3.47619
2.81265
5.56753
3.47304
4.2718
6.01515
3.33597
2.63266
2.26324
5.45306
2.62229
2.44343
2.34696
4.56712
3.87657
1.81877
3.14491
4.58353
1.4433
3.47855
4.10536
4.49249
5.70547
5.74152
5.94326
3.80157
3.72991
3.46234
4.73998
5.58774
4.94484
0.899259
3.78042
4.81772
3.02831
5.4978
3.95879
1.75676
4.23774
1.84369
2.82871
4.57754
5.07772
1.79655
4.81357
4.32263
4.0484
2.29215
1.78693
4.5378
0.0928826
0.0663064
4.75948
2.96502
4.11225
3.91453
5.11088
4.3681
2.71352
5.49465
4.04068
3.19913
2.11634
4.20447
5.28628
3.27112
5.57641
0.531047
4.26461
5.29413
4.48039
2.94352
5.07843
5.82716
5.15741
5.14503
2.07938
5.99119
5.91331
2.50162
4.87507
6.01875
4.03518
2.05642
3.14401
3.85391
5.29324
2.87668
4.01037
3.40729
4.92364
1.5359
4.9926
2.52876
4.6263
3.58468
4.81997
5.65392
4.62063
2.07193
5.16025
4.67294
5.97423
2.64433
3.37857
4.89053
4.97429
2.52918
4.98354
4.01447
2.65163
4.36054
2.71321
4.18542
4.50613
1.84739
4.57576
3.80493
4.93915
5.76305
3.57594
2.22426
5.99661
2.85181
0.0672019
4.11154
4.1794
2.94887
5.54698
5.18221
5.86814
1.05843
3.02858
4.17884
5.9466
5.92046
5.7999
2.82226
0.312627
3.70345
3.68972
3.15333
5.86371
3.46058
1.91284
5.11968
3.93449
6.0107
5.35885
2.72181
4.44401
3.40068
4.92922
3.79634
2.4596
3.41117
2.79062
5.11976
0.743908
5.00904
5.30659
4.59041
4.42351
4.89748
4.56599
3.93478
4.65389
4.28864
3.42079
1.44318
4.24593
3.73332
4.44568
2.82473
4.8084
5.40477
5.77698
3.38255
5.16408
1.86387
5.1208
3.65129
3.16267
4.64716
4.71019
4.53622
4.82531
4.61828
3.9624
3.64197
4.89802
1.80967
3.75507
4.78874
4.23374
3.8508
4.85872
5.44187
4.78259
6.01677
4.25187
4.62257
3.16548
3.05838
3.50205
5.15567
2.58168
3.59541
3.93205
2.5053
5.2165
4.8693
4.95589
5.237
4.17617
4.7425
4.48103
3.32643
3.08139
5.882
4.10065
5.37566
4.89022
5.88865
4.22686
0.0931978
4.18785
5.98035
1.95685
5.29652
4.85299
2.70383
4.03286
5.5831
5.60939
1.54466
4.46714
4.4509
5.03264
4.08264
2.90107
5.27084
2.71005
4.46017
4.13943
2.00742
4.77856
3.68299
4.60585
5.86724
5.44863
5.15347
4.63123
4.8387
3.30149
3.03132
1.67175
3.26361
2.36778
5.32943
2.92399
4.18864
4.16383
4.48932
4.74071
4.78913
3.21488
2.72238
5.75125
4.94378
5.63576
1.10218
4.47145
5.78318
5.17376
3.09903
4.06288
2.87508
3.40402
5.0762
5.38562
2.33763
5.36311
4.53835
2.54303
3.16655
2.09652
2.83276
3.80977
3.0449
4.85554
5.80377
4.41494
2.5529
4.82259
3.07931
4.24197
3.16243
3.62428
4.15786
3.09909
1.90505
2.86826
2.70239
3.8611
1.09937
4.85247
3.91496
3.17946
1.86263
5.64349
1.92606
0.23395
1.85697
2.47395
2.53719
4.10621
3.97283
4.19809
2.77611
2.56489
3.88451
4.58215
3.2101
5.54191
5.13388
3.96257
5.74477
3.62677
5.3361
2.12936
2.37904
5.74015
4.37597
3.39439
5.6313
3.705
3.31357
2.93113
2.6241
2.25967
4.92398
1.26962
0.23785
4.37005
2.87872
4.42292
3.46856
3.41797
1.67789
1.81893
2.60046
0.218207
1.99748
0.221172
2.57878
3.54351
2.84369
4.53174
3.5233
4.61648
4.41933
5.29338
2.19832
3.05751
0.166499
4.64853
2.51477
3.73942
1.6701
3.67713
5.04508
1.98653
5.26698
2.30245
1.85347
0.847262
5.04425
1.37433
5.17766
3.43044
2.53127
4.33093
2.6835
1.89227
3.71562
2.10479
2.69726
1.53605
1.90833
3.8862
1.18141
3.79343
3.05607
5.00071
0.864355
3.73922
3.84939
2.56389
5.09844
4.19539
3.97037
1.54246
4.17542
2.5221
1.78406
2.5437
3.72022
2.75247
0.233951
2.16592
1.30838
4.16419
5.33446
1.66623
2.1469
1.9905
4.38561
2.63968
0.564645
0.27385
4.31197
2.40101
2.61145
2.85124
2.92229
5.07358
2.25953
2.82537
2.85026
0.156274
1.52968
4.53146
4.17867
4.24255
4.36262
2.48388
1.01633
3.09716
0.178087
2.17206
5.36661
0.603394
0.193647
2.42059
1.45471
2.59377
2.26045
5.05296
2.0947
4.74989
3.87003
0.206497
0.21686
5.36553
2.62072
1.73002
0.229428
0.442298
1.68019
4.78696
3.71379
4.11778
1.95829
3.94209
5.27604
0.164215
3.90874
2.67274
2.61522
3.03739
1.74898
1.64075
2.97147
1.48118
2.35857
2.48812
1.36924
2.39047
3.97021
1.85106
2.32472
3.76752
2.55116
2.40879
4.46795
2.27086
3.56561
1.04273
0.707176
1.24293
0.168048
3.48356
2.33609
2.16633
4.20012
0.438286
2.59053
0.438051
4.16523
0.764322
1.96328
3.58447
5.12526
2.16253
3.17674
3.2303
1.75188
2.86387
1.72978
1.81453
3.15729
2.10379
0.160306
1.99373
2.54399
2.7276
3.45804
0.224865
5.6731
0.826309
2.40486
0.486502
1.24933
3.74707
2.26422
1.33385
1.36681
2.91468
5.22216
3.17078
0.163747
5.66818
1.965
0.200015
2.01783
2.1161
3.52064
3.35729
5.49785
3.45949
5.60169
2.89515
5.23548
0.990609
0.212498
3.36835
4.11213
2.16002
4.50323
0.610465
3.04603
1.24208
0.678852
0.452929
0.331901
0.480035
5.71872
1.78451
0.230589
0.457414
0.222823
0.366975
5.40651
2.72353
1.58025
1.68758
4.98209
3.02547
3.29763
0.394831
0.247518
1.38542
2.1339
3.3086
2.98212
1.74633
0.417607
2.38124
5.38056
1.41287
0.121014
1.30209
3.37096
3.54591
4.3151
1.35813
1.49794
5.44075
2.37609
4.42871
0.218919
5.56296
2.13812
3.39383
4.2366
1.56317
2.34578
4.82712
2.36495
0.43565
3.77032
1.40877
1.54707
4.0967
3.20975
3.25229
5.54633
4.05514
1.90558
4.03953
2.97965
5.51455
3.68452
3.55633
5.05238
1.12379
5.10479
3.1536
3.31152
1.91605
0.23953
3.40416
3.0446
0.680818
1.54122
3.46826
4.63208
2.21399
2.09777
3.54117
3.88533
4.4325
0.449139
3.61545
3.20051
4.18443
4.34804
4.53624
1.78893
3.75674
3.61538
4.71987
4.59807
4.98995
0.348688
4.00121
0.185184
1.60671
3.27962
5.3236
5.41953
3.32491
5.44619
0.236533
0.489271
0.23724
4.35812
0.380139
4.35964
3.80177
3.94942
3.73496
5.10546
5.37984
2.59035
3.53953
2.26064
0.475973
5.75137
5.05371
2.34786
1.9734
0.458185
4.39552
2.696
4.71739
2.68729
2.10573
3.80787
2.14681
3.399
4.12949
3.85999
3.70827
1.77297
5.60486
4.35052
0.0765829
3.14323
4.42527
3.47151
5.26568
3.75956
4.26446
0.241648
1.01125
5.1607
4.96422
2.12754
3.6278
3.44233
2.10959
0.478204
2.70759
1.20961
5.14103
1.10063
4.86197
3.70339
2.284
3.37942
4.76956
2.71097
5.60097
1.48796
2.44552
3.84497
2.2212
2.31497
2.45942
3.84118
0.992515
4.38841
2.95655
5.52177
0.794969
2.1464
5.37716
1.93073
1.79068
3.1103
2.49115
3.58563
3.7466
2.69348
4.99218
4.17031
3.2519
5.06987
3.23078
1.85384
3.88997
3.73589
5.14888
3.63305
0.462566
4.93487
5.24233
0.873849
2.89574
2.16937
1.09801
3.96919
1.43393
2.96967
2.72678
1.60449
4.97013
4.48669
5.42495
5.32409
3.68486
3.05632
4.73699
4.44266
3.22598
4.97239
2.54816
4.83097
3.14014
5.00761
2.53376
4.80686
2.71679
2.44538
4.67091
3.6859
3.97959
2.57321
3.53954
3.97185
4.09387
0.46919
0.742302
0.407136
2.24385
1.43278
0.429571
4.00599
4.18646
2.29948
2.69227
2.65706
4.3177
2.41647
5.2891
1.75661
1.89142
4.07945
3.33221
1.7219
1.73385
0.88115
1.66146
0.710011
2.53134
1.77432
1.50443
2.07101
1.20631
0.447539
4.71696
1.45112
0.212591
0.461037
1.14154
0.474599
0.917872
1.95304
1.46123
1.38442
1.72338
1.4529
0.230841
1.77264
1.06137
0.240265
0.470074
2.18232
0.347492
1.38658
1.17238
1.20926
1.50316
0.445158
1.30535
0.972231
1.52352
0.364384
0.491638
1.24856
0.533511
1.0983
0.240007
0.852772
1.42333
0.830778
0.673645
0.666214
0.606676
0.926857
0.500718
0.461303
1.30634
1.5628
1.65024
1.59646
0.90087
1.1259
1.67343
1.09902
1.81686
1.14194
1.02146
0.874877
0.918346
1.7394
1.9611
2.08286
2.04491
1.57046
1.86184
1.14722
0.22346
0.301657
1.48321
0.976139
1.75994
1.60199
1.00538
1.4338
1.2744
1.26033
1.03385
0.667494
0.0403793
0.0519175
0.611552
0.875792
1.83911
0.233326
1.06373
1.26883
1.10874
0.710643
0.447961
2.26989
0.960921
0.894939
0.62169
0.84797
0.90977
1.01519
1.40026
0.774631
1.07709
0.763413
1.12123
0.889263
0.884404
1.37491
0.529285
0.287608
0.111921
0.124859
0.680997
0.218422
0.332484
0.388443
1.09417
1.46324
1.20832
1.49457
1.4921
1.58238
0.113712
0.13824
0.120619
0.135835
2.19282
1.7675
0.855686
1.601
0.35239
0.329363
0.961124
0.163973
1.30942
0.961225
0.389307
0.411445
0.409621
0.389253
0.430082
1.60319
0.751569
0.811253
0.935696
1.99638
1.07298
0.85579
0.685978
0.811756
0.685169
1.31374
0.25807
0.292267
0.161683
0.0156338
0.0160355
0.0146918
0.0144841
0.0159186
0.0162036
0.016045
0.016393
0.123547
1.58385
0.806268
0.894442
1.51126
1.51844
0.0667051
1.13958
0.402743
0.401246
1.53312
2.25887
0.427292
0.225562
0.794942
0.750021
0.767829
1.0454
1.02123
0.879653
0.87302
0.212289
0.210185
1.35551
1.06703
0.783735
1.95183
0.119258
0.244419
0.245778
0.15441
1.52325
1.55324
1.29935
1.1397
1.43608
0.480549
1.12183
0.591761
0.588325
1.23992
1.65819
1.16854
0.0963349
0.0952934
1.53851
1.51007
1.50944
1.63067
1.62491
1.9685
0.19199
1.41981
0.28038
0.219995
0.277827
1.70928
1.09765
1.19784
0.138427
0.117197
0.0572374
0.243492
1.06773
0.159854
0.159404
0.524818
1.63268
0.47386
0.469856
0.434527
1.377
0.731825
1.25222
1.99076
0.736521
0.972025
1.29316
1.00626
1.58549
1.62909
1.53629
1.47225
1.39264
1.29583
1.33778
1.18107
1.38474
1.29608
1.23458
1.34629
1.57924
1.1585
1.06713
0.768639
1.53143
0.584029
0.303803
0.609079
0.825395
0.671423
0.896876
0.722341
0.956026
0.763979
0.821358
1.00378
0.796977
1.04041
0.797924
1.04075
0.821646
1.47437
1.07096
0.838423
0.57053
1.06654
0.956838
0.962784
0.121476
2.20912
1.04274
0.737152
0.619777
1.04155
0.741569
0.835309
0.840526
1.44396
0.0552588
0.0648519
0.103889
0.0523422
1.34537
0.0598114
0.0572144
0.0613208
0.0624909
0.580177
0.409892
0.234698
1.05188
0.295569
0.707006
0.766164
1.68214
0.107987
0.11752
1.40527
0.432243
1.67727
1.0291
1.43367
1.62068
0.36818
1.17218
0.536678
0.533198
1.4043
1.44265
0.734899
0.403088
0.332101
0.444894
0.769825
0.481769
1.01466
