# vtk DataFile Version 3.0
Malha 2D com triângulos e temperatura
ASCII
DATASET UNSTRUCTURED_GRID

POINTS 961 double
0 0 0
1 0 0
1 1 0
0 1 0
0.0333333 0 0
0.0666667 0 0
0.1 0 0
0.133333 0 0
0.166667 0 0
0.2 0 0
0.233333 0 0
0.266667 0 0
0.3 0 0
0.333333 0 0
0.366667 0 0
0.4 0 0
0.433333 0 0
0.466667 0 0
0.5 0 0
0.533333 0 0
0.566667 0 0
0.6 0 0
0.633333 0 0
0.666667 0 0
0.7 0 0
0.733333 0 0
0.766667 0 0
0.8 0 0
0.833333 0 0
0.866667 0 0
0.9 0 0
0.933333 0 0
0.966667 0 0
1 0.0333333 0
1 0.0666667 0
1 0.1 0
1 0.133333 0
1 0.166667 0
1 0.2 0
1 0.233333 0
1 0.266667 0
1 0.3 0
1 0.333333 0
1 0.366667 0
1 0.4 0
1 0.433333 0
1 0.466667 0
1 0.5 0
1 0.533333 0
1 0.566667 0
1 0.6 0
1 0.633333 0
1 0.666667 0
1 0.7 0
1 0.733333 0
1 0.766667 0
1 0.8 0
1 0.833333 0
1 0.866667 0
1 0.9 0
1 0.933333 0
1 0.966667 0
0.966667 1 0
0.933333 1 0
0.9 1 0
0.866667 1 0
0.833333 1 0
0.8 1 0
0.766667 1 0
0.733333 1 0
0.7 1 0
0.666667 1 0
0.633333 1 0
0.6 1 0
0.566667 1 0
0.533333 1 0
0.5 1 0
0.466667 1 0
0.433333 1 0
0.4 1 0
0.366667 1 0
0.333333 1 0
0.3 1 0
0.266667 1 0
0.233333 1 0
0.2 1 0
0.166667 1 0
0.133333 1 0
0.1 1 0
0.0666667 1 0
0.0333333 1 0
0 0.966667 0
0 0.933333 0
0 0.9 0
0 0.866667 0
0 0.833333 0
0 0.8 0
0 0.766667 0
0 0.733333 0
0 0.7 0
0 0.666667 0
0 0.633333 0
0 0.6 0
0 0.566667 0
0 0.533333 0
0 0.5 0
0 0.466667 0
0 0.433333 0
0 0.4 0
0 0.366667 0
0 0.333333 0
0 0.3 0
0 0.266667 0
0 0.233333 0
0 0.2 0
0 0.166667 0
0 0.133333 0
0 0.1 0
0 0.0666667 0
0 0.0333333 0
0.0333333 0.0333333 0
0.0333333 0.0666667 0
0.0333333 0.1 0
0.0333333 0.133333 0
0.0333333 0.166667 0
0.0333333 0.2 0
0.0333333 0.233333 0
0.0333333 0.266667 0
0.0333333 0.3 0
0.0333333 0.333333 0
0.0333333 0.366667 0
0.0333333 0.4 0
0.0333333 0.433333 0
0.0333333 0.466667 0
0.0333333 0.5 0
0.0333333 0.533333 0
0.0333333 0.566667 0
0.0333333 0.6 0
0.0333333 0.633333 0
0.0333333 0.666667 0
0.0333333 0.7 0
0.0333333 0.733333 0
0.0333333 0.766667 0
0.0333333 0.8 0
0.0333333 0.833333 0
0.0333333 0.866667 0
0.0333333 0.9 0
0.0333333 0.933333 0
0.0333333 0.966667 0
0.0666667 0.0333333 0
0.0666667 0.0666667 0
0.0666667 0.1 0
0.0666667 0.133333 0
0.0666667 0.166667 0
0.0666667 0.2 0
0.0666667 0.233333 0
0.0666667 0.266667 0
0.0666667 0.3 0
0.0666667 0.333333 0
0.0666667 0.366667 0
0.0666667 0.4 0
0.0666667 0.433333 0
0.0666667 0.466667 0
0.0666667 0.5 0
0.0666667 0.533333 0
0.0666667 0.566667 0
0.0666667 0.6 0
0.0666667 0.633333 0
0.0666667 0.666667 0
0.0666667 0.7 0
0.0666667 0.733333 0
0.0666667 0.766667 0
0.0666667 0.8 0
0.0666667 0.833333 0
0.0666667 0.866667 0
0.0666667 0.9 0
0.0666667 0.933333 0
0.0666667 0.966667 0
0.1 0.0333333 0
0.1 0.0666667 0
0.1 0.1 0
0.1 0.133333 0
0.1 0.166667 0
0.1 0.2 0
0.1 0.233333 0
0.1 0.266667 0
0.1 0.3 0
0.1 0.333333 0
0.1 0.366667 0
0.1 0.4 0
0.1 0.433333 0
0.1 0.466667 0
0.1 0.5 0
0.1 0.533333 0
0.1 0.566667 0
0.1 0.6 0
0.1 0.633333 0
0.1 0.666667 0
0.1 0.7 0
0.1 0.733333 0
0.1 0.766667 0
0.1 0.8 0
0.1 0.833333 0
0.1 0.866667 0
0.1 0.9 0
0.1 0.933333 0
0.1 0.966667 0
0.133333 0.0333333 0
0.133333 0.0666667 0
0.133333 0.1 0
0.133333 0.133333 0
0.133333 0.166667 0
0.133333 0.2 0
0.133333 0.233333 0
0.133333 0.266667 0
0.133333 0.3 0
0.133333 0.333333 0
0.133333 0.366667 0
0.133333 0.4 0
0.133333 0.433333 0
0.133333 0.466667 0
0.133333 0.5 0
0.133333 0.533333 0
0.133333 0.566667 0
0.133333 0.6 0
0.133333 0.633333 0
0.133333 0.666667 0
0.133333 0.7 0
0.133333 0.733333 0
0.133333 0.766667 0
0.133333 0.8 0
0.133333 0.833333 0
0.133333 0.866667 0
0.133333 0.9 0
0.133333 0.933333 0
0.133333 0.966667 0
0.166667 0.0333333 0
0.166667 0.0666667 0
0.166667 0.1 0
0.166667 0.133333 0
0.166667 0.166667 0
0.166667 0.2 0
0.166667 0.233333 0
0.166667 0.266667 0
0.166667 0.3 0
0.166667 0.333333 0
0.166667 0.366667 0
0.166667 0.4 0
0.166667 0.433333 0
0.166667 0.466667 0
0.166667 0.5 0
0.166667 0.533333 0
0.166667 0.566667 0
0.166667 0.6 0
0.166667 0.633333 0
0.166667 0.666667 0
0.166667 0.7 0
0.166667 0.733333 0
0.166667 0.766667 0
0.166667 0.8 0
0.166667 0.833333 0
0.166667 0.866667 0
0.166667 0.9 0
0.166667 0.933333 0
0.166667 0.966667 0
0.2 0.0333333 0
0.2 0.0666667 0
0.2 0.1 0
0.2 0.133333 0
0.2 0.166667 0
0.2 0.2 0
0.2 0.233333 0
0.2 0.266667 0
0.2 0.3 0
0.2 0.333333 0
0.2 0.366667 0
0.2 0.4 0
0.2 0.433333 0
0.2 0.466667 0
0.2 0.5 0
0.2 0.533333 0
0.2 0.566667 0
0.2 0.6 0
0.2 0.633333 0
0.2 0.666667 0
0.2 0.7 0
0.2 0.733333 0
0.2 0.766667 0
0.2 0.8 0
0.2 0.833333 0
0.2 0.866667 0
0.2 0.9 0
0.2 0.933333 0
0.2 0.966667 0
0.233333 0.0333333 0
0.233333 0.0666667 0
0.233333 0.1 0
0.233333 0.133333 0
0.233333 0.166667 0
0.233333 0.2 0
0.233333 0.233333 0
0.233333 0.266667 0
0.233333 0.3 0
0.233333 0.333333 0
0.233333 0.366667 0
0.233333 0.4 0
0.233333 0.433333 0
0.233333 0.466667 0
0.233333 0.5 0
0.233333 0.533333 0
0.233333 0.566667 0
0.233333 0.6 0
0.233333 0.633333 0
0.233333 0.666667 0
0.233333 0.7 0
0.233333 0.733333 0
0.233333 0.766667 0
0.233333 0.8 0
0.233333 0.833333 0
0.233333 0.866667 0
0.233333 0.9 0
0.233333 0.933333 0
0.233333 0.966667 0
0.266667 0.0333333 0
0.266667 0.0666667 0
0.266667 0.1 0
0.266667 0.133333 0
0.266667 0.166667 0
0.266667 0.2 0
0.266667 0.233333 0
0.266667 0.266667 0
0.266667 0.3 0
0.266667 0.333333 0
0.266667 0.366667 0
0.266667 0.4 0
0.266667 0.433333 0
0.266667 0.466667 0
0.266667 0.5 0
0.266667 0.533333 0
0.266667 0.566667 0
0.266667 0.6 0
0.266667 0.633333 0
0.266667 0.666667 0
0.266667 0.7 0
0.266667 0.733333 0
0.266667 0.766667 0
0.266667 0.8 0
0.266667 0.833333 0
0.266667 0.866667 0
0.266667 0.9 0
0.266667 0.933333 0
0.266667 0.966667 0
0.3 0.0333333 0
0.3 0.0666667 0
0.3 0.1 0
0.3 0.133333 0
0.3 0.166667 0
0.3 0.2 0
0.3 0.233333 0
0.3 0.266667 0
0.3 0.3 0
0.3 0.333333 0
0.3 0.366667 0
0.3 0.4 0
0.3 0.433333 0
0.3 0.466667 0
0.3 0.5 0
0.3 0.533333 0
0.3 0.566667 0
0.3 0.6 0
0.3 0.633333 0
0.3 0.666667 0
0.3 0.7 0
0.3 0.733333 0
0.3 0.766667 0
0.3 0.8 0
0.3 0.833333 0
0.3 0.866667 0
0.3 0.9 0
0.3 0.933333 0
0.3 0.966667 0
0.333333 0.0333333 0
0.333333 0.0666667 0
0.333333 0.1 0
0.333333 0.133333 0
0.333333 0.166667 0
0.333333 0.2 0
0.333333 0.233333 0
0.333333 0.266667 0
0.333333 0.3 0
0.333333 0.333333 0
0.333333 0.366667 0
0.333333 0.4 0
0.333333 0.433333 0
0.333333 0.466667 0
0.333333 0.5 0
0.333333 0.533333 0
0.333333 0.566667 0
0.333333 0.6 0
0.333333 0.633333 0
0.333333 0.666667 0
0.333333 0.7 0
0.333333 0.733333 0
0.333333 0.766667 0
0.333333 0.8 0
0.333333 0.833333 0
0.333333 0.866667 0
0.333333 0.9 0
0.333333 0.933333 0
0.333333 0.966667 0
0.366667 0.0333333 0
0.366667 0.0666667 0
0.366667 0.1 0
0.366667 0.133333 0
0.366667 0.166667 0
0.366667 0.2 0
0.366667 0.233333 0
0.366667 0.266667 0
0.366667 0.3 0
0.366667 0.333333 0
0.366667 0.366667 0
0.366667 0.4 0
0.366667 0.433333 0
0.366667 0.466667 0
0.366667 0.5 0
0.366667 0.533333 0
0.366667 0.566667 0
0.366667 0.6 0
0.366667 0.633333 0
0.366667 0.666667 0
0.366667 0.7 0
0.366667 0.733333 0
0.366667 0.766667 0
0.366667 0.8 0
0.366667 0.833333 0
0.366667 0.866667 0
0.366667 0.9 0
0.366667 0.933333 0
0.366667 0.966667 0
0.4 0.0333333 0
0.4 0.0666667 0
0.4 0.1 0
0.4 0.133333 0
0.4 0.166667 0
0.4 0.2 0
0.4 0.233333 0
0.4 0.266667 0
0.4 0.3 0
0.4 0.333333 0
0.4 0.366667 0
0.4 0.4 0
0.4 0.433333 0
0.4 0.466667 0
0.4 0.5 0
0.4 0.533333 0
0.4 0.566667 0
0.4 0.6 0
0.4 0.633333 0
0.4 0.666667 0
0.4 0.7 0
0.4 0.733333 0
0.4 0.766667 0
0.4 0.8 0
0.4 0.833333 0
0.4 0.866667 0
0.4 0.9 0
0.4 0.933333 0
0.4 0.966667 0
0.433333 0.0333333 0
0.433333 0.0666667 0
0.433333 0.1 0
0.433333 0.133333 0
0.433333 0.166667 0
0.433333 0.2 0
0.433333 0.233333 0
0.433333 0.266667 0
0.433333 0.3 0
0.433333 0.333333 0
0.433333 0.366667 0
0.433333 0.4 0
0.433333 0.433333 0
0.433333 0.466667 0
0.433333 0.5 0
0.433333 0.533333 0
0.433333 0.566667 0
0.433333 0.6 0
0.433333 0.633333 0
0.433333 0.666667 0
0.433333 0.7 0
0.433333 0.733333 0
0.433333 0.766667 0
0.433333 0.8 0
0.433333 0.833333 0
0.433333 0.866667 0
0.433333 0.9 0
0.433333 0.933333 0
0.433333 0.966667 0
0.466667 0.0333333 0
0.466667 0.0666667 0
0.466667 0.1 0
0.466667 0.133333 0
0.466667 0.166667 0
0.466667 0.2 0
0.466667 0.233333 0
0.466667 0.266667 0
0.466667 0.3 0
0.466667 0.333333 0
0.466667 0.366667 0
0.466667 0.4 0
0.466667 0.433333 0
0.466667 0.466667 0
0.466667 0.5 0
0.466667 0.533333 0
0.466667 0.566667 0
0.466667 0.6 0
0.466667 0.633333 0
0.466667 0.666667 0
0.466667 0.7 0
0.466667 0.733333 0
0.466667 0.766667 0
0.466667 0.8 0
0.466667 0.833333 0
0.466667 0.866667 0
0.466667 0.9 0
0.466667 0.933333 0
0.466667 0.966667 0
0.5 0.0333333 0
0.5 0.0666667 0
0.5 0.1 0
0.5 0.133333 0
0.5 0.166667 0
0.5 0.2 0
0.5 0.233333 0
0.5 0.266667 0
0.5 0.3 0
0.5 0.333333 0
0.5 0.366667 0
0.5 0.4 0
0.5 0.433333 0
0.5 0.466667 0
0.5 0.5 0
0.5 0.533333 0
0.5 0.566667 0
0.5 0.6 0
0.5 0.633333 0
0.5 0.666667 0
0.5 0.7 0
0.5 0.733333 0
0.5 0.766667 0
0.5 0.8 0
0.5 0.833333 0
0.5 0.866667 0
0.5 0.9 0
0.5 0.933333 0
0.5 0.966667 0
0.533333 0.0333333 0
0.533333 0.0666667 0
0.533333 0.1 0
0.533333 0.133333 0
0.533333 0.166667 0
0.533333 0.2 0
0.533333 0.233333 0
0.533333 0.266667 0
0.533333 0.3 0
0.533333 0.333333 0
0.533333 0.366667 0
0.533333 0.4 0
0.533333 0.433333 0
0.533333 0.466667 0
0.533333 0.5 0
0.533333 0.533333 0
0.533333 0.566667 0
0.533333 0.6 0
0.533333 0.633333 0
0.533333 0.666667 0
0.533333 0.7 0
0.533333 0.733333 0
0.533333 0.766667 0
0.533333 0.8 0
0.533333 0.833333 0
0.533333 0.866667 0
0.533333 0.9 0
0.533333 0.933333 0
0.533333 0.966667 0
0.566667 0.0333333 0
0.566667 0.0666667 0
0.566667 0.1 0
0.566667 0.133333 0
0.566667 0.166667 0
0.566667 0.2 0
0.566667 0.233333 0
0.566667 0.266667 0
0.566667 0.3 0
0.566667 0.333333 0
0.566667 0.366667 0
0.566667 0.4 0
0.566667 0.433333 0
0.566667 0.466667 0
0.566667 0.5 0
0.566667 0.533333 0
0.566667 0.566667 0
0.566667 0.6 0
0.566667 0.633333 0
0.566667 0.666667 0
0.566667 0.7 0
0.566667 0.733333 0
0.566667 0.766667 0
0.566667 0.8 0
0.566667 0.833333 0
0.566667 0.866667 0
0.566667 0.9 0
0.566667 0.933333 0
0.566667 0.966667 0
0.6 0.0333333 0
0.6 0.0666667 0
0.6 0.1 0
0.6 0.133333 0
[...]
CELL_DATA 900
SCALARS Temperatura double 1
LOOKUP_TABLE default
0.5
0.750186
0.875093
0.937499
0.968703
0.984316
0.992135
0.996053
0.998017
0.999004
0.999499
0.999748
0.999873
0.999936
0.999968
0.999984
0.999992
0.999996
0.999998
0.999999
0.999999
1
1
1
1
1
1
1
1
1
0.249814
0.5
0.687453
0.812359
0.890426
0.937289
0.964653
0.980313
0.98914
0.994055
0.996767
0.998251
0.999059
0.999495
0.99973
0.999856
0.999924
0.999959
0.999979
0.999989
0.999994
0.999997
0.999998
0.999999
1
1
1
1
1
1
0.124907
0.312547
0.5
0.656121
0.773192
0.855159
0.909836
0.94502
0.967039
0.980519
0.988624
0.993425
0.996234
0.997859
0.998792
0.999322
0.999622
0.99979
0.999884
0.999936
0.999965
0.999981
0.99999
0.999994
0.999997
0.999998
0.999999
1
1
1
0.0625007
0.187641
0.343879
0.5
0.636555
0.745796
0.82775
0.886325
0.926632
0.953536
0.971051
0.982217
0.989211
0.993525
0.996152
0.997733
0.998675
0.999231
0.999556
0.999745
0.999855
0.999918
0.999953
0.999974
0.999985
0.999992
0.999995
0.999997
0.999999
0.999999
0.0312973
0.109574
0.226808
0.363445
0.5
0.622867
0.72526
0.805738
0.866133
0.909789
0.940383
0.961271
0.975219
0.984356
0.990243
0.99398
0.996322
0.997773
0.998662
0.999202
0.999528
0.999722
0.999837
0.999905
0.999945
0.999968
0.999982
0.99999
0.999994
0.999997
0.0156838
0.062711
0.144841
0.254204
0.377133
0.5
0.612606
0.709133
0.787587
0.848643
0.894471
0.927836
0.951499
0.967905
0.979058
0.986507
0.991406
0.994583
0.996619
0.997908
0.998716
0.999218
0.999527
0.999716
0.99983
0.999899
0.99994
0.999965
0.999979
0.999988
0.00786538
0.0353467
0.0901642
0.17225
0.27474
0.387394
0.5
0.604547
0.696035
0.7723
0.833345
0.880552
0.915992
0.941921
0.960467
0.97347
0.982425
0.988495
0.99255
0.995224
0.996967
0.99809
0.998807
0.99926
0.999544
0.999721
0.99983
0.999898
0.999938
0.999963
0.00394739
0.0196866
0.0549803
0.113675
0.194262
0.290867
0.395453
0.5
0.598001
0.685123
0.7592
0.81984
0.867882
0.90487
0.932642
0.953034
0.967712
0.97809
0.98531
0.990259
0.993608
0.995845
0.997323
0.99829
0.998916
0.999318
0.999574
0.999735
0.999836
0.9999
0.00198253
0.0108603
0.0329606
0.0733682
0.133867
0.212413
0.303965
0.401999
0.5
0.592547
0.67585
0.747815
0.807816
0.856312
0.894448
0.923716
0.945692
0.961874
0.973578
0.981908
0.98775
0.991791
0.994553
0.996418
0.997665
0.99849
0.999031
0.999382
0.999609
0.999755
0.000996435
0.00594455
0.0194808
0.0464637
0.0902111
0.151357
0.2277
0.314877
0.407453
0.5
0.587913
0.667843
0.737803
0.797028
0.845709
0.884685
0.915164
0.938498
0.956021
0.96895
0.978339
0.985057
0.989798
0.993104
0.995381
0.996933
0.99798
0.99868
0.999143
0.99945
0.000501181
0.00323282
0.0113759
0.028949
0.0596175
0.105529
0.166655
0.2408
0.32415
0.412087
0.5
0.583911
0.660839
0.72891
0.787283
0.835957
0.875535
0.906993
0.931487
0.950201
0.964256
0.974645
0.982213
0.987651
0.991511
0.994218
0.996096
0.997386
0.998263
0.998858
0.000252264
0.00174855
0.00657479
0.0177828
0.0387293
0.0721644
0.119448
0.18016
0.252185
0.332157
0.416089
0.5
0.58041
0.654643
0.720942
0.778425
0.826955
0.86695
0.899196
0.924679
0.944451
0.959534
0.970862
0.979248
0.985372
0.98979
0.992939
0.995159
0.996709
0.997788
0.000127065
0.000941381
0.00376616
0.0107889
0.0247809
0.0485012
0.0840076
0.132118
0.192184
0.262197
0.339161
0.41959
0.5
0.577313
0.649113
0.71375
0.77033
0.818617
0.858884
0.891761
0.918087
0.938794
0.954814
0.967019
0.976186
0.982981
0.987954
0.991552
0.994127
0.995965
6.40486e-05
0.00050481
0.00214057
0.00647453
0.0156435
0.0320946
0.0580787
0.0951295
0.143688
0.202972
0.27109
0.345357
0.422687
0.5
0.574549
0.644136
0.707215
0.762896
0.810868
0.851293
0.88467
0.911713
0.933247
0.950119
0.963141
0.973051
0.980495
0.986018
0.990068
0.993031
3.23072e-05
0.000269774
0.00120833
0.0038479
0.00975685
0.0209424
0.0395327
0.0673577
0.105552
0.154291
0.212717
0.279058
0.350887
0.425451
0.5
0.572061
0.639626
0.701244
0.756037
0.803645
0.844137
0.877906
0.905559
0.927823
0.945469
0.959248
0.969862
0.977932
0.983994
0.988537
1.63077e-05
0.000143739
0.000677961
0.00226714
0.00601967
0.0134932
0.0265301
0.0469658
0.0762845
0.115315
0.164043
0.221575
0.28625
0.355864
0.427939
0.5
0.569807
0.635514
0.695761
0.749685
0.796892
0.83738
0.871451
0.89962
0.922529
0.940875
0.955357
0.966635
0.975306
0.981962
8.23736e-06
7.6386e-05
0.000378338
0.00132542
0.00367773
0.00859414
0.0175751
0.0322879
0.0543076
0.0848357
0.124465
0.173045
0.22967
0.292785
0.360374
0.430193
0.5
0.567752
0.631746
0.690702
0.743781
0.790563
0.830989
0.865287
0.893892
0.917368
0.936349
0.951481
0.963384
0.972736
4.16372e-06
4.05e-05
0.000210115
0.000769462
0.00222704
0.00541665
0.0115053
0.0219101
0.0381263
0.0615019
0.0930066
0.13305
0.181383
0.237104
0.298756
0.364486
0.432248
0.5
0.565868
0.628275
0.686015
0.738273
0.784614
0.824934
0.859396
0.888366
0.912343
0.931899
0.94763
0.960278
2.10605e-06
2.14296e-05
0.000116184
0.000443877
0.0013377
0.00338133
0.00745017
0.0146903
0.0264221
0.0439793
0.0685133
0.100804
0.141116
0.189132
0.243963
0.304239
0.368254
0.434132
0.5
0.564133
0.625065
0.681657
0.733121
0.779012
0.819187
0.853761
0.883037
0.907454
0.92753
0.94404
1.06598e-06
1.13186e-05
6.39934e-05
0.000254584
0.000797594
0.00209227
0.00477604
0.00974063
0.018092
0.0310497
0.0497986
0.0753208
0.108239
0.148707
0.196355
0.250315
0.309298
0.371725
0.435867
0.5
0.562528
0.622084
0.677591
0.728288
0.773723
0.813726
0.848366
0.877895
0.902699
0.923561
5.39902e-07
5.96861e-06
3.51219e-05
0.000145248
0.000472344
0.00128417
0.00303345
0.00639245
0.0122503
0.021661
0.0357439
0.0555492
0.0819134
0.11533
0.155863
0.203108
0.256219
0.313985
0.374935
0.437472
0.5
0.561038
0.619307
0.673787
0.723742
0.76872
0.808528
0.843197
0.872934
0.898507
2.73631e-07
3.14293e-06
1.92139e-05
8.24698e-05
0.000277989
0.000782305
0.00191016
0.00415516
0.00820865
0.0149433
0.0253549
0.0404661
0.0612063
0.0882866
0.122094
0.16262
0.209437
0.261727
0.318343
0.377916
0.438962
0.5
0.55965
0.616711
0.670216
0.719456
0.763979
0.803574
0.838241
0.868715
1.3877e-07
1.65288e-06
1.04803e-05
4.66181e-05
0.000162666
0.00047328
0.00119326
0.00267691
0.0054471
0.0102016
0.0177871
0.0291381
0.0451862
0.0667526
0.094441
0.128549
0.169011
0.215386
0.266879
0.322409
0.380693
0.44035
0.5
0.558352
0.614277
0.666857
0.715407
0.759477
0.798847
0.834218
7.04211e-08
8.68259e-07
5.70111e-06
2.62447e-05
9.46798e-05
0.00028449
0.000739902
0.00171027
0.00358178
0.00689643
0.0123485
0.0207524
0.0329809
0.0498806
0.0721766
0.10038
0.134713
0.175066
0.220988
0.271712
0.326213
0.383289
0.441648
0.5
0.557135
0.61199
0.663689
0.711573
0.755199
0.795257
3.57587e-08
4.5563e-07
3.09363e-06
1.47195e-05
5.48371e-05
0.000169987
0.00045562
0.00108421
0.00233518
0.00461927
0.00848904
0.0146279
0.0238137
0.0368588
0.0545314
0.0774709
0.106108
0.140604
0.180813
0.226277
0.276258
0.329784
0.385723
0.442865
0.5
0.555992
0.609834
0.660695
0.707938
0.752269
1.81689e-08
2.38877e-07
1.6749e-06
8.22672e-06
3.16156e-05
0.000101006
0.000278753
0.000682339
0.00151028
0.00306727
0.00578197
0.0102104
0.0170195
0.0269486
0.0407516
0.0591248
0.0826316
0.111634
0.146239
0.186274
0.23128
0.280544
0.333143
0.38801
0.444008
0.5
0.554914
0.607799
0.657863
0.705872
9.23717e-09
1.25134e-07
9.04895e-07
4.58305e-06
1.81498e-05
5.97052e-05
0.000169513
0.000426496
0.000969432
0.00202012
0.00390384
0.00706125
0.0120461
0.019505
0.0301379
0.0446429
0.0636505
0.0876568
0.116963
0.151634
0.191472
0.236021
0.284593
0.336311
0.390166
0.445086
0.5
0.553897
0.605877
0.656825
4.69904e-09
6.55016e-08
4.87939e-07
2.54551e-06
1.0378e-05
3.51206e-05
0.000102499
0.000264874
0.000617864
0.00132023
0.00261405
0.00484073
0.00844785
0.0139825
0.022068
0.0333652
0.0485193
0.0681011
0.0925464
0.122105
0.156803
0.196426
0.240523
0.288427
0.339305
0.392201
0.446103
0.5
0.552938
0.605983
2.39185e-09
3.42637e-08
2.62635e-07
1.40986e-06
5.912e-06
2.05649e-05
6.16469e-05
0.000163506
0.000391163
0.000856557
0.00173674
0.00329098
0.00587274
0.00993226
0.0160063
0.0246936
0.0366161
0.0523697
0.0724705
0.0973011
0.127066
0.161759
0.201153
0.244801
0.292062
0.342137
0.394123
0.447062
0.5
0.554244
1.21538e-09
1.78699e-08
1.40782e-07
7.76841e-07
3.34729e-06
1.19574e-05
3.67868e-05
0.000100064
0.000245336
0.000550185
0.00114165
0.00221242
0.0040349
0.00696946
0.0114634
0.0180384
0.0272643
0.0397225
0.0559597
0.0764392
0.101493
0.131285
0.165782
0.204743
0.247731
0.294128
0.343175
0.394017
0.445756
0.5
