# vtk DataFile Version 3.0
Malha 2D com triângulos e temperatura
ASCII
DATASET UNSTRUCTURED_GRID

POINTS 556 double
0 0 0
1 0 0
1 1 0
0 1 0
0.047619 0 0
0.0952381 0 0
0.142857 0 0
0.190476 0 0
0.238095 0 0
0.285714 0 0
0.333333 0 0
0.380952 0 0
0.428571 0 0
0.47619 0 0
0.52381 0 0
0.571429 0 0
0.619048 0 0
0.666667 0 0
0.714286 0 0
0.761905 0 0
0.809524 0 0
0.857143 0 0
0.904762 0 0
0.952381 0 0
1 0.047619 0
1 0.0952381 0
1 0.142857 0
1 0.190476 0
1 0.238095 0
1 0.285714 0
1 0.333333 0
1 0.380952 0
1 0.428571 0
1 0.47619 0
1 0.52381 0
1 0.571429 0
1 0.619048 0
1 0.666667 0
1 0.714286 0
1 0.761905 0
1 0.809524 0
1 0.857143 0
1 0.904762 0
1 0.952381 0
0.952381 1 0
0.904762 1 0
0.857143 1 0
0.809524 1 0
0.761905 1 0
0.714286 1 0
0.666667 1 0
0.619048 1 0
0.571429 1 0
0.52381 1 0
0.47619 1 0
0.428571 1 0
0.380952 1 0
0.333333 1 0
0.285714 1 0
0.238095 1 0
0.190476 1 0
0.142857 1 0
0.0952381 1 0
0.047619 1 0
0 0.952381 0
0 0.904762 0
0 0.857143 0
0 0.809524 0
0 0.761905 0
0 0.714286 0
0 0.666667 0
0 0.619048 0
0 0.571429 0
0 0.52381 0
0 0.47619 0
0 0.428571 0
0 0.380952 0
0 0.333333 0
0 0.285714 0
0 0.238095 0
0 0.190476 0
0 0.142857 0
0 0.0952381 0
0 0.047619 0
0.502877 0.0453975 0
0.502795 0.954523 0
0.0424911 0.499879 0
0.958761 0.5 0
0.0422174 0.690476 0
0.690476 0.958761 0
0.311451 0.0438227 0
0.958761 0.309524 0
0.958761 0.690476 0
0.310663 0.957443 0
0.690476 0.0412393 0
0.0427511 0.30836 0
0.833793 0.95422 0
0.170871 0.0453815 0
0.958761 0.166667 0
0.0412393 0.833333 0
0.167489 0.959442 0
0.044661 0.165388 0
0.83415 0.0426838 0
0.958761 0.833333 0
0.0453121 0.4069 0
0.404762 0.958761 0
0.404762 0.0402432 0
0.958761 0.404762 0
0.958761 0.595238 0
0.591411 0.0454062 0
0.591411 0.954594 0
0.0463656 0.595238 0
0.930144 0.95915 0
0.0714286 0.0412393 0
0.0386783 0.928943 0
0.959824 0.0732702 0
0.958761 0.738095 0
0.917521 0.714286 0
0.917521 0.666667 0
0.876282 0.690476 0
0.876282 0.642857 0
0.835043 0.666667 0
0.835043 0.619048 0
0.793803 0.642857 0
0.793803 0.595238 0
0.752564 0.619048 0
0.752564 0.571429 0
0.711325 0.595238 0
0.711325 0.547619 0
0.670086 0.571429 0
0.670086 0.52381 0
0.628846 0.547619 0
0.628846 0.5 0
0.587607 0.52381 0
0.587607 0.47619 0
0.546368 0.5 0
0.546368 0.452381 0
0.505128 0.47619 0
0.505128 0.52381 0
0.628846 0.452381 0
0.463889 0.5 0
0.463889 0.452381 0
0.463889 0.547619 0
0.42265 0.52381 0
0.42265 0.571429 0
0.628846 0.595238 0
0.38141 0.547619 0
0.38141 0.595238 0
0.42265 0.619048 0
0.38141 0.642857 0
0.42265 0.666667 0
0.752564 0.666667 0
0.340171 0.619048 0
0.340171 0.666667 0
0.298932 0.642857 0
0.298932 0.690476 0
0.752564 0.52381 0
0.257693 0.666667 0
0.257693 0.619048 0
0.257693 0.714286 0
0.298932 0.738095 0
0.257693 0.761905 0
0.38141 0.5 0
0.835043 0.714286 0
0.216453 0.738095 0
0.216453 0.642857 0
0.216453 0.595238 0
0.298932 0.785714 0
0.216453 0.785714 0
0.463889 0.642857 0
0.463889 0.690476 0
0.175214 0.761905 0
0.175591 0.80887 0
0.216532 0.832206 0
0.835043 0.571429 0
0.340171 0.761905 0
0.340171 0.809524 0
0.38141 0.785714 0
0.505128 0.666667 0
0.505128 0.714286 0
0.257693 0.571429 0
0.216453 0.547619 0
0.546368 0.690476 0
0.546368 0.738095 0
0.587607 0.714286 0
0.587607 0.761905 0
0.546368 0.785714 0
0.587607 0.809524 0
0.628846 0.785714 0
0.257693 0.52381 0
0.216152 0.5 0
0.257642 0.47619 0
0.216094 0.452381 0
0.257624 0.428571 0
0.216873 0.404762 0
0.257751 0.380952 0
0.217024 0.357143 0
0.257797 0.333333 0
0.216566 0.309524 0
0.257729 0.285714 0
0.298955 0.309524 0
0.298942 0.261905 0
0.340177 0.285714 0
0.216478 0.261905 0
0.340174 0.238095 0
0.381412 0.261905 0
0.298934 0.214286 0
0.381411 0.214286 0
0.42265 0.238095 0
0.340176 0.333333 0
0.42265 0.285714 0
0.463889 0.261905 0
0.463889 0.214286 0
0.505128 0.238095 0
0.505128 0.285714 0
0.546368 0.261905 0
0.546368 0.214286 0
0.587607 0.238095 0
0.587607 0.285714 0
0.628846 0.261905 0
0.628846 0.214286 0
0.670086 0.238095 0
0.670086 0.285714 0
0.711325 0.261905 0
0.711325 0.309524 0
0.752564 0.285714 0
0.752564 0.238095 0
0.752564 0.333333 0
0.793803 0.261905 0
0.793803 0.214286 0
0.752564 0.190476 0
0.835043 0.238095 0
0.835043 0.285714 0
0.835043 0.190476 0
0.628846 0.833333 0
0.670086 0.809524 0
0.175214 0.619048 0
0.173888 0.522411 0
0.173754 0.426172 0
0.177283 0.333403 0
0.546368 0.833333 0
0.38141 0.833333 0
0.505128 0.809524 0
0.670086 0.761905 0
0.711325 0.785714 0
0.711325 0.833333 0
0.752564 0.809524 0
0.752564 0.857143 0
0.793803 0.833333 0
0.670086 0.333333 0
0.133029 0.787053 0
0.135598 0.835435 0
0.133817 0.738318 0
0.340171 0.857143 0
0.505128 0.857143 0
0.876282 0.214286 0
0.876282 0.166667 0
0.835043 0.142857 0
0.876282 0.119048 0
0.463889 0.738095 0
0.298912 0.452381 0
0.670086 0.190476 0
0.628846 0.166667 0
0.670086 0.142857 0
0.505128 0.571429 0
0.546368 0.642857 0
0.917521 0.761905 0
0.752564 0.761905 0
0.0915425 0.763612 0
0.546368 0.880952 0
0.793803 0.880952 0
0.835043 0.857143 0
0.835043 0.809524 0
0.628197 0.120173 0
0.587499 0.143045 0
0.753058 0.903907 0
0.463889 0.833333 0
0.464586 0.879745 0
0.38141 0.738095 0
0.298932 0.547619 0
0.175214 0.666667 0
0.132435 0.642857 0
0.133634 0.595093 0
0.876282 0.833333 0
0.875485 0.879571 0
0.381334 0.880107 0
0.336416 0.911469 0
0.297258 0.879038 0
0.0927353 0.714286 0
0.668882 0.0884705 0
0.711325 0.119048 0
0.0897004 0.61903 0
0.0914355 0.57128 0
0.587465 0.0962133 0
0.546326 0.119241 0
0.546804 0.0722089 0
0.505611 0.0961453 0
0.505202 0.143041 0
0.464844 0.118624 0
0.834894 0.0944156 0
0.793779 0.118911 0
0.876282 0.0714286 0
0.793803 0.0714286 0
0.792809 0.927231 0
0.0463319 0.73838 0
0.0468189 0.547561 0
0.0878023 0.522062 0
0.082843 0.475484 0
0.128863 0.498019 0
0.121762 0.445221 0
0.0862476 0.666665 0
0.0463555 0.786985 0
0.0909216 0.811911 0
0.0916507 0.86627 0
0.141146 0.879699 0
0.107527 0.916127 0
0.0405556 0.88346 0
0.747203 0.953793 0
0.0431872 0.642856 0
0.132282 0.546725 0
0.17341 0.47619 0
0.135191 0.397246 0
0.0916056 0.405452 0
0.102704 0.363499 0
0.0408778 0.45465 0
0.917521 0.190476 0
0.917521 0.238095 0
0.917699 0.095545 0
0.922434 0.0438574 0
0.958761 0.214286 0
0.753054 0.09607 0
0.747304 0.0460679 0
0.422753 0.856801 0
0.424977 0.911285 0
0.340172 0.190476 0
0.298932 0.166667 0
0.340171 0.142857 0
0.257693 0.190476 0
0.257693 0.142857 0
0.216453 0.166667 0
0.216453 0.119048 0
0.175214 0.142857 0
0.175214 0.190476 0
0.132568 0.16638 0
0.13374 0.214238 0
0.132905 0.119335 0
0.256979 0.0964733 0
0.215249 0.0725897 0
0.0912967 0.190193 0
0.0908814 0.237963 0
0.133627 0.261875 0
0.0927353 0.285714 0
0.25949 0.046215 0
0.0467232 0.214029 0
0.0902435 0.140623 0
0.0903639 0.0859824 0
0.0431297 0.116919 0
0.0455152 0.261646 0
0.381411 0.166667 0
0.38141 0.119048 0
0.337816 0.0887652 0
0.42265 0.190476 0
0.422667 0.809467 0
0.917521 0.619048 0
0.262095 0.95935 0
0.752642 0.142973 0
0.29892 0.5 0
0.670086 0.857143 0
0.628197 0.879827 0
0.668882 0.91153 0
0.711325 0.642857 0
0.711325 0.690476 0
0.670086 0.666667 0
0.257706 0.809336 0
0.546368 0.309524 0
0.505128 0.333333 0
0.587607 0.333333 0
0.463889 0.309524 0
0.463889 0.357143 0
0.505128 0.380952 0
0.42265 0.333333 0
0.42265 0.380952 0
0.643368 0.0419369 0
0.958761 0.642857 0
0.917521 0.571429 0
0.793803 0.785714 0
0.505553 0.90371 0
0.546892 0.927797 0
0.587607 0.904762 0
0.958967 0.119406 0
0.958761 0.452381 0
0.917521 0.428571 0
0.917521 0.380952 0
0.876282 0.404762 0
0.876282 0.452381 0
0.835043 0.428571 0
0.835043 0.47619 0
0.793803 0.452381 0
0.835043 0.380952 0
0.876282 0.5 0
0.793803 0.5 0
0.752564 0.47619 0
0.752564 0.428571 0
0.711325 0.452381 0
0.711325 0.404762 0
0.670086 0.428571 0
0.711325 0.5 0
0.643368 0.958063 0
0.357143 0.958761 0
0.175188 0.714323 0
0.670086 0.47619 0
0.628846 0.404762 0
0.587607 0.428571 0
0.88581 0.956403 0
0.0397655 0.355888 0
0.546368 0.547619 0
0.793803 0.547619 0
0.835043 0.52381 0
0.711338 0.166686 0
0.917521 0.47619 0
0.118086 0.0417648 0
0.357143 0.0412393 0
0.451602 0.0410397 0
0.426006 0.0864667 0
0.958985 0.880563 0
0.122444 0.959548 0
0.505128 0.761905 0
0.451319 0.957967 0
0.214454 0.958973 0
0.238608 0.921625 0
0.193125 0.921229 0
0.463889 0.595238 0
0.711325 0.880952 0
0.38141 0.690476 0
0.793812 0.166663 0
0.587499 0.856955 0
0.546368 0.357143 0
0.958761 0.547619 0
0.958761 0.357143 0
0.917521 0.333333 0
0.876282 0.357143 0
0.876282 0.309524 0
0.175524 0.285721 0
0.381411 0.357143 0
0.381411 0.404762 0
0.340172 0.380952 0
0.793803 0.690476 0
0.298964 0.357143 0
0.876282 0.738095 0
0.42265 0.428571 0
0.340171 0.714286 0
0.42265 0.714286 0
0.793803 0.404762 0
0.793803 0.357143 0
0.216449 0.690482 0
0.587607 0.571429 0
0.340166 0.47619 0
0.505128 0.619048 0
0.175173 0.238083 0
0.917521 0.52381 0
0.381412 0.309524 0
0.833738 0.903234 0
0.876282 0.547619 0
0.546368 0.595238 0
0.587607 0.619048 0
0.463892 0.785705 0
0.422653 0.761894 0
0.298932 0.595238 0
0.257705 0.238095 0
0.628846 0.309524 0
0.876282 0.595238 0
0.670086 0.619048 0
0.340168 0.52381 0
0.129303 0.316369 0
0.258222 0.85424 0
0.587607 0.666667 0
0.711327 0.214289 0
0.340171 0.571429 0
0.587589 0.190507 0
0.298932 0.119048 0
0.958761 0.785714 0
0.628846 0.690476 0
0.628846 0.642857 0
0.216453 0.214284 0
0.628846 0.738095 0
0.174654 0.571022 0
0.175214 0.0952381 0
0.917585 0.142968 0
0.132606 0.690519 0
0.298743 0.832499 0
0.670086 0.714286 0
0.546352 0.166766 0
0.711325 0.738095 0
0.298932 0.404762 0
0.505138 0.190523 0
0.423368 0.141325 0
0.42265 0.47619 0
0.463889 0.404762 0
0.340167 0.428571 0
0.381409 0.452381 0
0.752564 0.714286 0
0.505128 0.428571 0
0.464098 0.166461 0
0.917521 0.809524 0
0.917426 0.856848 0
0.546368 0.404762 0
0.793803 0.738095 0
0.914208 0.911294 0
0.835043 0.761905 0
0.587607 0.380952 0
0.876282 0.785714 0
0.628846 0.357143 0
0.835043 0.333333 0
0.793803 0.309524 0
0.958761 0.261905 0
0.752564 0.380952 0
0.876282 0.261905 0
0.711325 0.357143 0
0.917521 0.285714 0
0.670086 0.380952 0
0.215205 0.879171 0
0.96104 0.928126 0
0.0740188 0.954296 0
0.177437 0.37983 0
0.177479 0.85322 0
0.285714 0.922377 0
0.0801454 0.329725 0
[...]
CELL_DATA 1026
SCALARS Temperatura double 1
LOOKUP_TABLE default
0.579441
0.578495
0.448661
2.48117
0.649579
0.658552
0.385798
1.22189
1.211
0.948566
1.32828
1.20257
1.20254
1.39059
2.08777
3.27113
0.348301
1.5782
0.140726
2.52115
0.455746
1.05746
1.05641
0.259543
0.298215
0.546859
1.69402
0.261896
2.48839
1.16107
1.0066
0.453654
0.294132
0.295027
1.32966
1.41424
1.62295
1.61582
1.36809
1.61121
0.386389
2.30343
3.03249
3.09909
1.27745
0.100606
1.65824
1.65979
0.966339
1.4886
1.48726
0.149755
0.678965
0.488751
1.61858
3.00812
2.03445
1.65545
0.599675
1.46634
1.41951
0.297149
0.325948
0.221674
1.16434
0.589761
0.457838
0.882548
0.438696
0.836809
0.544943
1.29912
1.1836
0.128897
0.956746
1.39085
0.521595
1.55975
0.742864
0.726198
2.12236
1.99479
3.34434
1.04327
1.37746
1.37758
0.763248
1.8445
0.953718
0.985491
0.657424
2.57049
1.16825
1.16819
0.898469
1.94518
0.380345
1.54425
1.47164
1.4754
1.42819
1.18251
1.18197
1.70646
2.49994
2.25223
1.63589
1.62769
1.69975
0.917586
4.0252
1.29141
0.705628
1.30997
0.629774
0.330376
3.07443
3.78271
3.81903
0.861791
0.292923
0.587024
1.73208
1.20333
0.619316
0.688041
3.34112
2.57565
0.33757
2.32779
2.46932
1.29612
0.678914
0.689687
0.549148
1.36268
1.09192
2.3115
1.01056
3.2686
0.415787
0.804591
0.231343
0.413861
0.450734
5.59406
2.0024
0.89267
5.36247
4.48307
1.20256
5.42253
5.63093
5.26823
1.68538
0.143839
2.55645
5.26824
4.83011
4.20735
1.21143
3.04562
0.946342
2.4461
3.69121
0.329879
2.03137
0.67488
2.44694
2.49208
0.638928
4.14689
3.42379
0.231125
0.91567
2.68502
2.65
4.97851
5.80436
3.45921
3.5904
2.00142
2.80128
5.41152
3.83292
4.28522
0.315441
1.15904
3.64144
3.62166
3.36468
2.40247
1.47459
5.36246
5.44053
2.13315
3.47688
1.2418
2.96278
1.27726
4.44243
4.07528
4.75065
2.15945
3.81189
5.25596
5.2627
3.69091
2.56623
5.3416
5.05435
5.0575
2.23841
4.07558
5.94535
4.47559
5.26267
5.72274
3.11053
2.17921
0.233538
1.22997
0.946261
3.33544
3.8554
3.83237
5.05746
3.06304
2.89218
0.265579
0.555019
4.34157
4.62672
2.31358
2.18021
0.60325
5.17261
2.52604
5.50308
2.76923
0.145812
0.635406
0.230284
1.68529
5.07412
4.7507
2.341
0.149973
2.00232
5.91177
3.11111
3.54685
5.09801
5.34164
5.03447
5.23255
1.78669
5.44056
0.261915
4.70712
5.63091
5.91178
6.19104
4.52183
1.90708
1.45558
1.46799
5.55076
2.40249
3.88245
4.97852
0.190913
6.18038
5.17255
3.0202
2.40094
3.28008
2.14114
0.598789
1.54733
2.18016
3.5415
3.09785
4.88805
5.64523
6.15226
6.06464
6.1029
5.53819
4.83744
4.12959
3.47297
2.0309
0.847536
5.87701
1.4617
3.82266
1.59099
3.2144
3.88244
6.04047
0.211503
6.24767
6.2299
6.1167
5.31741
5.05419
4.90455
3.02369
1.34791
1.36442
2.63154
5.31745
6.2299
4.232
3.18526
4.5218
4.20908
5.09073
3.25391
2.68456
5.36658
2.47063
3.67083
0.364886
0.293632
0.411955
1.60554
1.06447
1.27727
5.73513
5.48899
3.6216
5.96804
5.89031
4.54685
4.81387
4.70517
5.17183
4.83765
5.12964
1.20365
2.5657
5.7445
5.73803
2.10019
3.81191
4.70715
0.323
0.672605
0.29329
0.331019
0.635397
0.293622
0.211039
0.352537
0.635458
0.303285
0.304022
1.54734
5.99422
3.70355
2.90893
3.94651
3.21973
4.36599
3.25793
2.04237
3.25807
1.88456
2.73714
3.09787
3.54152
0.190709
0.786422
1.29769
3.14173
3.59041
4.57317
4.89287
4.83199
5.34766
4.73331
5.18471
4.97004
5.18467
5.50665
3.64145
4.88807
0.0917723
0.349949
0.0906262
0.340365
0.672022
0.331016
0.232263
0.293285
0.346912
0.712289
1.47456
3.21956
2.50394
4.34545
4.24319
3.62236
4.49606
1.78692
2.91224
2.13275
6.02117
2.90895
0.31246
6.06809
5.82973
4.73327
3.95544
2.4455
2.23846
2.51066
3.02442
1.1946
1.9835
1.62153
1.1901
2.96278
3.67476
4.78633
0.650268
0.0898516
0.484604
0.654761
4.05161
3.81799
4.65496
4.78159
4.81348
3.7075
2.58797
1.94189
5.08646
3.40307
3.90409
4.42601
3.65631
3.00811
3.46711
2.49682
1.59099
2.15946
2.44694
0.617766
0.598619
2.74206
2.62082
2.58482
4.22327
3.57106
2.96845
3.31901
2.16561
2.82424
3.00797
2.64991
2.15511
1.46814
2.82427
1.484
3.05907
3.18103
2.36361
1.94295
1.53908
1.58944
5.81693
0.0859843
1.37269
1.22999
3.6708
4.32051
6.15226
4.8928
4.18453
5.09798
3.18109
5.738
4.83761
4.042
4.94967
3.7075
3.14861
4.18526
3.64571
3.73554
3.13787
4.21387
2.49175
1.90651
4.53208
4.49611
6.10288
5.62083
1.33895
2.75149
4.69307
0.703793
0.320732
0.353914
0.363922
6.25472
5.67087
5.51526
5.2559
4.54607
2.93683
2.96709
5.74447
5.09095
3.60901
3.30545
4.1721
2.40107
2.16226
5.45323
2.63072
1.0818
2.1743
1.93832
0.672024
0.608563
0.188284
0.30059
1.15907
6.09956
5.85959
5.64272
5.8435
3.82822
3.30333
3.52372
4.57506
4.42449
4.16628
4.25621
4.67838
2.84201
3.07894
2.36558
3.0677
4.76059
2.91226
1.04661
0.56068
2.85196
0.315458
0.62801
0.338724
0.672576
0.315483
1.30091
1.24173
1.86309
4.70504
3.84422
3.33618
3.94838
4.53657
3.29134
4.22329
3.81805
3.85298
3.07879
3.25381
1.5135
1.02296
1.37467
4.88368
1.20895
2.1627
2.56653
2.08337
2.58462
1.23414
2.52809
4.44244
5.48903
0.143566
0.364877
0.378833
0.331011
0.665688
0.372168
0.303957
0.206079
4.45123
4.18907
4.82652
2.93847
3.02009
1.55143
5.36663
1.53834
4.69385
0.488917
6.21583
4.53599
3.59691
2.28008
3.80307
4.78182
4.88371
4.53207
4.69311
3.62158
2.57128
1.49244
1.51331
2.10465
1.87964
2.62182
5.17252
5.51027
0.143296
5.69995
5.65321
4.43574
4.44951
4.34537
5.55074
5.34763
4.83741
4.02964
4.1231
4.30055
4.6155
4.4227
5.08649
4.30059
3.80312
2.82435
3.64563
6.02115
2.53392
2.57847
4.6784
2.26779
2.50115
3.41298
4.14723
5.53822
5.87703
4.28523
4.20737
1.04588
6.19802
5.96803
5.55559
4.24027
3.94732
3.94325
4.23261
4.39171
3.80561
2.10474
2.28536
2.14796
5.55563
5.82976
3.50651
2.63972
3.37493
5.1725
4.25614
3.81697
3.33477
4.07395
2.96381
3.40383
1.91191
1.83177
2.92382
5.48159
5.65324
5.07429
0.320742
0.603265
0.659818
2.74819
3.45915
4.11732
3.8554
4.83196
5.23252
4.47556
3.80492
3.5469
3.05375
3.13792
3.3364
2.58799
2.28304
5.64275
3.18527
5.26726
0.329616
0.327523
3.15235
4.34154
3.26315
2.6365
2.10017
0.378179
0.549946
0.19084
4.78632
5.2153
5.73512
5.94534
5.99973
5.78219
5.58951
5.4225
5.30359
4.39157
3.96141
4.42597
3.7935
4.64017
3.82844
4.0422
2.63
2.34103
1.42273
6.02796
5.8982
0.598774
2.00139
6.21583
5.93217
5.80543
5.1718
3.90404
2.93679
4.76058
4.64021
2.6407
1.90686
2.27319
0.197078
0.340367
0.659814
0.315435
1.30091
4.43603
4.98104
4.16601
5.03444
5.1296
4.311
2.64778
5.62086
0.48896
0.343482
2.42435
2.2799
3.4672
2.4756
1.83232
2.90183
1.53977
6.02794
4.82647
5.59405
5.80435
6.12011
4.7704
3.70364
2.85639
1.83339
5.8169
1.35882
0.9201
1.86315
5.99424
0.231311
5.10988
6.19105
4.90502
4.17205
3.11726
2.74826
1.88471
2.78757
2.95216
6.06463
3.32228
4.99848
3.84499
2.04254
4.77047
5.89033
5.9322
6.09957
6.0681
3.1062
3.47704
4.31094
6.04906
3.57075
3.65609
1.61125
1.39933
5.50662
2.58784
5.48156
3.8323
2.27943
3.73546
6.18039
3.83286
4.36594
5.26915
3.35527
4.62667
3.69535
4.20933
1.21218
3.05657
3.1418
4.1852
4.21408
3.82148
4.12329
5.26913
1.08168
5.51529
5.85961
2.80124
4.99825
3.02543
3.05828
3.47479
5.80544
6.11671
5.30364
5.69997
2.42444
5.84352
0.4157
6.15535
1.78003
6.19803
5.45319
5.67088
3.85224
4.11737
3.11715
3.37497
2.31355
4.12953
2.48596
3.17697
4.43607
5.89822
0.639348
4.6939
3.50659
2.63977
4.05164
1.83213
4.07389
0.804436
0.265596
6.04048
2.47546
2.16546
2.48606
0.893332
5.2673
5.78221
2.84191
5.10992
4.65498
1.78015
2.15515
2.82423
0.677
2.9522
3.17705
5.5103
0.916064
5.21532
2.15528
4.32054
4.43578
0.549971
4.97007
1.37274
5.58954
1.06451
4.98107
2.19677
2.02201
1.14043
0.103296
0.0869306
0.446602
0.633674
3.54505
3.70036
0.463127
0.756545
1.58596
1.90456
1.18857
0.904641
1.77567
1.81811
1.81821
1.31693
1.31584
1.51573
1.42618
1.30763
1.67382
0.226061
0.249627
2.85334
3.83035
0.705201
1.99656
1.99535
2.15169
1.35126
1.8529
1.29431
0.296787
0.397472
0.629715
0.619697
0.61969
0.63035
0.877385
0.636777
1.23429
1.23282
0.23814
0.0342402
0.0350426
0.0349521
0.0347049
0.0342608
0.0344038
0.636578
2.05938
0.727127
0.753011
1.60443
0.0339051
0.0337882
2.15997
1.98802
1.99614
2.12083
1.03946
1.25588
0.851026
0.231071
2.0122
0.372869
1.75366
1.75385
1.1705
1.18404
0.378125
0.396979
2.13738
0.878135
2.10332
0.990675
3.18805
0.222285
0.456363
0.460668
1.11732
0.0881988
2.10629
2.0988
2.20094
0.182575
0.179266
2.60424
2.21777
1.79777
1.58293
0.111878
0.443963
0.181507
0.262082
0.262079
1.0802
3.04181
0.826372
0.838524
1.54233
0.218582
0.117447
0.128186
0.400726
1.15773
0.119264
0.120893
0.118152
0.11689
1.55492
1.90145
2.16949
1.54223
1.17378
0.218135
0.228524
1.22672
1.45697
1.69808
1.85992
0.116695
1.51689
