# vtk DataFile Version 3.0
Malha 2D com triângulos e temperatura
ASCII
DATASET UNSTRUCTURED_GRID

POINTS 556 double
0 0 0
1 0 0
1 1 0
0 1 0
0.047619 0 0
0.0952381 0 0
0.142857 0 0
0.190476 0 0
0.238095 0 0
0.285714 0 0
0.333333 0 0
0.380952 0 0
0.428571 0 0
0.47619 0 0
0.52381 0 0
0.571429 0 0
0.619048 0 0
0.666667 0 0
0.714286 0 0
0.761905 0 0
0.809524 0 0
0.857143 0 0
0.904762 0 0
0.952381 0 0
1 0.047619 0
1 0.0952381 0
1 0.142857 0
1 0.190476 0
1 0.238095 0
1 0.285714 0
1 0.333333 0
1 0.380952 0
1 0.428571 0
1 0.47619 0
1 0.52381 0
1 0.571429 0
1 0.619048 0
1 0.666667 0
1 0.714286 0
1 0.761905 0
1 0.809524 0
1 0.857143 0
1 0.904762 0
1 0.952381 0
0.952381 1 0
0.904762 1 0
0.857143 1 0
0.809524 1 0
0.761905 1 0
0.714286 1 0
0.666667 1 0
0.619048 1 0
0.571429 1 0
0.52381 1 0
0.47619 1 0
0.428571 1 0
0.380952 1 0
0.333333 1 0
0.285714 1 0
0.238095 1 0
0.190476 1 0
0.142857 1 0
0.0952381 1 0
0.047619 1 0
0 0.952381 0
0 0.904762 0
0 0.857143 0
0 0.809524 0
0 0.761905 0
0 0.714286 0
0 0.666667 0
0 0.619048 0
0 0.571429 0
0 0.52381 0
0 0.47619 0
0 0.428571 0
0 0.380952 0
0 0.333333 0
0 0.285714 0
0 0.238095 0
0 0.190476 0
0 0.142857 0
0 0.0952381 0
0 0.047619 0
0.502877 0.0453975 0
0.502795 0.954523 0
0.0424911 0.499879 0
0.958761 0.5 0
0.0422174 0.690476 0
0.690476 0.958761 0
0.311451 0.0438227 0
0.958761 0.309524 0
0.958761 0.690476 0
0.310663 0.957443 0
0.690476 0.0412393 0
0.0427511 0.30836 0
0.833793 0.95422 0
0.170871 0.0453815 0
0.958761 0.166667 0
0.0412393 0.833333 0
0.167489 0.959442 0
0.044661 0.165388 0
0.83415 0.0426838 0
0.958761 0.833333 0
0.0453121 0.4069 0
0.404762 0.958761 0
0.404762 0.0402432 0
0.958761 0.404762 0
0.958761 0.595238 0
0.591411 0.0454062 0
0.591411 0.954594 0
0.0463656 0.595238 0
0.930144 0.95915 0
0.0714286 0.0412393 0
0.0386783 0.928943 0
0.959824 0.0732702 0
0.958761 0.738095 0
0.917521 0.714286 0
0.917521 0.666667 0
0.876282 0.690476 0
0.876282 0.642857 0
0.835043 0.666667 0
0.835043 0.619048 0
0.793803 0.642857 0
0.793803 0.595238 0
0.752564 0.619048 0
0.752564 0.571429 0
0.711325 0.595238 0
0.711325 0.547619 0
0.670086 0.571429 0
0.670086 0.52381 0
0.628846 0.547619 0
0.628846 0.5 0
0.587607 0.52381 0
0.587607 0.47619 0
0.546368 0.5 0
0.546368 0.452381 0
0.505128 0.47619 0
0.505128 0.52381 0
0.628846 0.452381 0
0.463889 0.5 0
0.463889 0.452381 0
0.463889 0.547619 0
0.42265 0.52381 0
0.42265 0.571429 0
0.628846 0.595238 0
0.38141 0.547619 0
0.38141 0.595238 0
0.42265 0.619048 0
0.38141 0.642857 0
0.42265 0.666667 0
0.752564 0.666667 0
0.340171 0.619048 0
0.340171 0.666667 0
0.298932 0.642857 0
0.298932 0.690476 0
0.752564 0.52381 0
0.257693 0.666667 0
0.257693 0.619048 0
0.257693 0.714286 0
0.298932 0.738095 0
0.257693 0.761905 0
0.38141 0.5 0
0.835043 0.714286 0
0.216453 0.738095 0
0.216453 0.642857 0
0.216453 0.595238 0
0.298932 0.785714 0
0.216453 0.785714 0
0.463889 0.642857 0
0.463889 0.690476 0
0.175214 0.761905 0
0.175591 0.80887 0
0.216532 0.832206 0
0.835043 0.571429 0
0.340171 0.761905 0
0.340171 0.809524 0
0.38141 0.785714 0
0.505128 0.666667 0
0.505128 0.714286 0
0.257693 0.571429 0
0.216453 0.547619 0
0.546368 0.690476 0
0.546368 0.738095 0
0.587607 0.714286 0
0.587607 0.761905 0
0.546368 0.785714 0
0.587607 0.809524 0
0.628846 0.785714 0
0.257693 0.52381 0
0.216152 0.5 0
0.257642 0.47619 0
0.216094 0.452381 0
0.257624 0.428571 0
0.216873 0.404762 0
0.257751 0.380952 0
0.217024 0.357143 0
0.257797 0.333333 0
0.216566 0.309524 0
0.257729 0.285714 0
0.298955 0.309524 0
0.298942 0.261905 0
0.340177 0.285714 0
0.216478 0.261905 0
0.340174 0.238095 0
0.381412 0.261905 0
0.298934 0.214286 0
0.381411 0.214286 0
0.42265 0.238095 0
0.340176 0.333333 0
0.42265 0.285714 0
0.463889 0.261905 0
0.463889 0.214286 0
0.505128 0.238095 0
0.505128 0.285714 0
0.546368 0.261905 0
0.546368 0.214286 0
0.587607 0.238095 0
0.587607 0.285714 0
0.628846 0.261905 0
0.628846 0.214286 0
0.670086 0.238095 0
0.670086 0.285714 0
0.711325 0.261905 0
0.711325 0.309524 0
0.752564 0.285714 0
0.752564 0.238095 0
0.752564 0.333333 0
0.793803 0.261905 0
0.793803 0.214286 0
0.752564 0.190476 0
0.835043 0.238095 0
0.835043 0.285714 0
0.835043 0.190476 0
0.628846 0.833333 0
0.670086 0.809524 0
0.175214 0.619048 0
0.173888 0.522411 0
0.173754 0.426172 0
0.177283 0.333403 0
0.546368 0.833333 0
0.38141 0.833333 0
0.505128 0.809524 0
0.670086 0.761905 0
0.711325 0.785714 0
0.711325 0.833333 0
0.752564 0.809524 0
0.752564 0.857143 0
0.793803 0.833333 0
0.670086 0.333333 0
0.133029 0.787053 0
0.135598 0.835435 0
0.133817 0.738318 0
0.340171 0.857143 0
0.505128 0.857143 0
0.876282 0.214286 0
0.876282 0.166667 0
0.835043 0.142857 0
0.876282 0.119048 0
0.463889 0.738095 0
0.298912 0.452381 0
0.670086 0.190476 0
0.628846 0.166667 0
0.670086 0.142857 0
0.505128 0.571429 0
0.546368 0.642857 0
0.917521 0.761905 0
0.752564 0.761905 0
0.0915425 0.763612 0
0.546368 0.880952 0
0.793803 0.880952 0
0.835043 0.857143 0
0.835043 0.809524 0
0.628197 0.120173 0
0.587499 0.143045 0
0.753058 0.903907 0
0.463889 0.833333 0
0.464586 0.879745 0
0.38141 0.738095 0
0.298932 0.547619 0
0.175214 0.666667 0
0.132435 0.642857 0
0.133634 0.595093 0
0.876282 0.833333 0
0.875485 0.879571 0
0.381334 0.880107 0
0.336416 0.911469 0
0.297258 0.879038 0
0.0927353 0.714286 0
0.668882 0.0884705 0
0.711325 0.119048 0
0.0897004 0.61903 0
0.0914355 0.57128 0
0.587465 0.0962133 0
0.546326 0.119241 0
0.546804 0.0722089 0
0.505611 0.0961453 0
0.505202 0.143041 0
0.464844 0.118624 0
0.834894 0.0944156 0
0.793779 0.118911 0
0.876282 0.0714286 0
0.793803 0.0714286 0
0.792809 0.927231 0
0.0463319 0.73838 0
0.0468189 0.547561 0
0.0878023 0.522062 0
0.082843 0.475484 0
0.128863 0.498019 0
0.121762 0.445221 0
0.0862476 0.666665 0
0.0463555 0.786985 0
0.0909216 0.811911 0
0.0916507 0.86627 0
0.141146 0.879699 0
0.107527 0.916127 0
0.0405556 0.88346 0
0.747203 0.953793 0
0.0431872 0.642856 0
0.132282 0.546725 0
0.17341 0.47619 0
0.135191 0.397246 0
0.0916056 0.405452 0
0.102704 0.363499 0
0.0408778 0.45465 0
0.917521 0.190476 0
0.917521 0.238095 0
0.917699 0.095545 0
0.922434 0.0438574 0
0.958761 0.214286 0
0.753054 0.09607 0
0.747304 0.0460679 0
0.422753 0.856801 0
0.424977 0.911285 0
0.340172 0.190476 0
0.298932 0.166667 0
0.340171 0.142857 0
0.257693 0.190476 0
0.257693 0.142857 0
0.216453 0.166667 0
0.216453 0.119048 0
0.175214 0.142857 0
0.175214 0.190476 0
0.132568 0.16638 0
0.13374 0.214238 0
0.132905 0.119335 0
0.256979 0.0964733 0
0.215249 0.0725897 0
0.0912967 0.190193 0
0.0908814 0.237963 0
0.133627 0.261875 0
0.0927353 0.285714 0
0.25949 0.046215 0
0.0467232 0.214029 0
0.0902435 0.140623 0
0.0903639 0.0859824 0
0.0431297 0.116919 0
0.0455152 0.261646 0
0.381411 0.166667 0
0.38141 0.119048 0
0.337816 0.0887652 0
0.42265 0.190476 0
0.422667 0.809467 0
0.917521 0.619048 0
0.262095 0.95935 0
0.752642 0.142973 0
0.29892 0.5 0
0.670086 0.857143 0
0.628197 0.879827 0
0.668882 0.91153 0
0.711325 0.642857 0
0.711325 0.690476 0
0.670086 0.666667 0
0.257706 0.809336 0
0.546368 0.309524 0
0.505128 0.333333 0
0.587607 0.333333 0
0.463889 0.309524 0
0.463889 0.357143 0
0.505128 0.380952 0
0.42265 0.333333 0
0.42265 0.380952 0
0.643368 0.0419369 0
0.958761 0.642857 0
0.917521 0.571429 0
0.793803 0.785714 0
0.505553 0.90371 0
0.546892 0.927797 0
0.587607 0.904762 0
0.958967 0.119406 0
0.958761 0.452381 0
0.917521 0.428571 0
0.917521 0.380952 0
0.876282 0.404762 0
0.876282 0.452381 0
0.835043 0.428571 0
0.835043 0.47619 0
0.793803 0.452381 0
0.835043 0.380952 0
0.876282 0.5 0
0.793803 0.5 0
0.752564 0.47619 0
0.752564 0.428571 0
0.711325 0.452381 0
0.711325 0.404762 0
0.670086 0.428571 0
0.711325 0.5 0
0.643368 0.958063 0
0.357143 0.958761 0
0.175188 0.714323 0
0.670086 0.47619 0
0.628846 0.404762 0
0.587607 0.428571 0
0.88581 0.956403 0
0.0397655 0.355888 0
0.546368 0.547619 0
0.793803 0.547619 0
0.835043 0.52381 0
0.711338 0.166686 0
0.917521 0.47619 0
0.118086 0.0417648 0
0.357143 0.0412393 0
0.451602 0.0410397 0
0.426006 0.0864667 0
0.958985 0.880563 0
0.122444 0.959548 0
0.505128 0.761905 0
0.451319 0.957967 0
0.214454 0.958973 0
0.238608 0.921625 0
0.193125 0.921229 0
0.463889 0.595238 0
0.711325 0.880952 0
0.38141 0.690476 0
0.793812 0.166663 0
0.587499 0.856955 0
0.546368 0.357143 0
0.958761 0.547619 0
0.958761 0.357143 0
0.917521 0.333333 0
0.876282 0.357143 0
0.876282 0.309524 0
0.175524 0.285721 0
0.381411 0.357143 0
0.381411 0.404762 0
0.340172 0.380952 0
0.793803 0.690476 0
0.298964 0.357143 0
0.876282 0.738095 0
0.42265 0.428571 0
0.340171 0.714286 0
0.42265 0.714286 0
0.793803 0.404762 0
0.793803 0.357143 0
0.216449 0.690482 0
0.587607 0.571429 0
0.340166 0.47619 0
0.505128 0.619048 0
0.175173 0.238083 0
0.917521 0.52381 0
0.381412 0.309524 0
0.833738 0.903234 0
0.876282 0.547619 0
0.546368 0.595238 0
0.587607 0.619048 0
0.463892 0.785705 0
0.422653 0.761894 0
0.298932 0.595238 0
0.257705 0.238095 0
0.628846 0.309524 0
0.876282 0.595238 0
0.670086 0.619048 0
0.340168 0.52381 0
0.129303 0.316369 0
0.258222 0.85424 0
0.587607 0.666667 0
0.711327 0.214289 0
0.340171 0.571429 0
0.587589 0.190507 0
0.298932 0.119048 0
0.958761 0.785714 0
0.628846 0.690476 0
0.628846 0.642857 0
0.216453 0.214284 0
0.628846 0.738095 0
0.174654 0.571022 0
0.175214 0.0952381 0
0.917585 0.142968 0
0.132606 0.690519 0
0.298743 0.832499 0
0.670086 0.714286 0
0.546352 0.166766 0
0.711325 0.738095 0
0.298932 0.404762 0
0.505138 0.190523 0
0.423368 0.141325 0
0.42265 0.47619 0
0.463889 0.404762 0
0.340167 0.428571 0
0.381409 0.452381 0
0.752564 0.714286 0
0.505128 0.428571 0
0.464098 0.166461 0
0.917521 0.809524 0
0.917426 0.856848 0
0.546368 0.404762 0
0.793803 0.738095 0
0.914208 0.911294 0
0.835043 0.761905 0
0.587607 0.380952 0
0.876282 0.785714 0
0.628846 0.357143 0
0.835043 0.333333 0
0.793803 0.309524 0
0.958761 0.261905 0
0.752564 0.380952 0
0.876282 0.261905 0
0.711325 0.357143 0
0.917521 0.285714 0
0.670086 0.380952 0
0.215205 0.879171 0
0.96104 0.928126 0
0.0740188 0.954296 0
0.177437 0.37983 0
0.177479 0.85322 0
0.285714 0.922377 0
0.0801454 0.329725 0
[...]
CELL_DATA 1026
SCALARS Temperatura double 1
LOOKUP_TABLE default
0.979934
0.00483549
0.671779
0.0884001
0.658594
0.899299
0.439346
0.0536463
0.985648
0.890981
0.966479
0.0126811
0.890313
0.965655
0.77571
0.771511
0.793499
0.875648
0.896592
0.0798475
0.584195
0.878068
0.00997858
0.881298
0.880369
0.877414
0.858569
0.853869
0.753734
0.808996
0.169031
0.290424
0.00221378
1.04673
0.866347
0.0765838
0.0236606
0.881313
0.770585
0.93258
0.876634
0.852624
0.795711
0.808854
0.504898
0.000766894
0.030356
0.903634
0.677449
0.0177092
0.859954
0.829815
0.690026
0.98862
0.880639
0.773473
0.0719334
0.852952
0.033086
0.868976
0.861468
0.0193327
0.895251
0.90782
0.873515
0.879184
0.817169
0.745373
0.883507
0.00785891
0.833399
0.597402
0.878292
0.00108027
0.483645
0.860593
0.95551
0.864644
0.870161
0.872751
0.854642
0.860425
0.790259
0.782107
0.0146494
0.842384
0.101284
0.92623
0.00875871
0.747406
0.282567
0.828633
0.0162178
0.945371
0.717057
0.766465
0.534111
0.946635
0.0582649
0.959061
0.80418
0.951685
0.0181011
0.907315
0.797766
0.834852
0.0227299
0.869032
0.0342126
0.204935
0.739735
0.891763
0.580636
0.860254
0.770859
0.882825
0.82045
0.741392
0.7654
0.883919
0.863201
0.849576
0.854636
0.871943
0.879766
0.874368
0.804919
0.836188
0.883778
0.794217
0.821098
0.903155
0.875627
0.871181
0.00456227
0.83285
0.0664835
0.840406
0.921905
0.73913
0.00895846
0.0153361
0.00618446
0.00434204
0.00542413
0.267753
0.0518408
0.0148624
0.249791
0.232453
0.0166514
0.215444
0.257303
0.299879
0.0401125
0.0024395
0.851056
0.259488
0.250501
0.276343
0.0189263
0.807893
0.0223157
0.0351215
0.787274
0.00567784
0.0253742
0.00894609
0.153085
0.0379642
0.00973064
0.184837
0.788455
0.00314532
0.0113784
0.0416924
0.0439665
0.280562
0.275884
0.101527
0.206003
0.069637
0.100493
0.290547
0.104014
0.239819
0.0153225
0.144714
0.225811
0.0777506
0.801973
0.178643
0.0548314
0.332031
0.395574
0.833449
0.756223
0.031525
0.1767
0.108552
0.269222
0.203788
0.733213
0.150634
0.255014
0.448119
0.299382
0.185604
0.850611
0.598584
0.48105
0.257106
0.723235
0.757956
0.309749
0.137246
0.665734
0.595435
0.392633
0.127958
0.142184
0.125765
0.192898
0.829926
0.254306
0.084919
0.672461
0.839957
0.840145
0.0605448
1.05691
0.748458
0.136846
0.0865381
0.0681136
0.998603
0.400626
0.874449
0.624065
0.85991
0.0558139
0.0302423
1.09473
0.264627
0.718838
0.338228
0.737245
1.00143
0.269906
0.364445
0.840319
0.626872
0.236027
0.230657
0.180004
0.192828
0.469661
0.226284
1.09387
0.361523
0.386403
0.320197
0.472603
0.150017
0.566922
0.0194206
0.307499
0.289618
0.106953
0.187776
0.241767
0.00409124
0.515705
0.70285
0.0564628
0.484494
0.828278
0.0374888
0.0236918
0.138727
0.236011
0.259964
0.23539
0.320454
0.310042
0.412623
0.330788
0.342131
0.565384
0.198631
0.11361
0.740815
0.677621
0.00930614
0.523611
0.490228
0.754751
0.0843327
0.174132
0.220548
0.457093
0.0373263
0.427293
0.489622
0.533008
0.681642
0.720835
0.647781
0.749096
0.0160992
0.567935
0.0592832
0.370859
0.443374
0.784042
0.203848
0.65187
0.686695
0.650231
0.0619466
0.586662
0.620415
0.844521
0.127957
0.00386402
0.0117983
1.06023
0.101148
0.166397
0.0641695
0.300089
0.671514
0.816339
0.529043
0.573896
0.555803
0.562214
0.420368
0.324989
0.14956
0.17779
0.793275
0.674151
0.302731
0.280726
0.0873486
0.15682
0.168638
0.00774452
0.00697169
0.00243698
0.0193033
0.073808
0.0523812
1.02411
0.918089
1.04849
1.09349
0.873382
0.0688592
0.578184
0.810203
0.205725
0.587786
0.457704
0.113826
0.58393
0.504519
0.0595794
0.0230928
0.373782
0.12018
0.134204
0.89045
1.00578
0.0329732
0.335802
0.800976
0.678805
0.387739
0.181941
0.250313
0.150056
0.186289
0.417041
0.438917
0.313266
0.162843
0.204312
0.10281
0.0890652
0.00119951
0.0337312
0.0542787
0.0393526
0.869806
1.05721
1.08392
1.03221
0.159892
0.834985
0.864962
0.677612
0.592748
0.528911
0.201308
0.0267152
0.714006
0.399476
0.330825
0.123968
0.013769
0.558202
0.616815
0.596993
0.709302
0.641561
0.0308064
0.861632
0.0983362
0.0116295
0.318562
0.60051
0.732841
0.149431
0.193443
0.213304
0.0144776
0.952133
1.05963
0.870008
0.314559
0.35509
0.328773
0.744992
0.74029
0.804027
0.858453
0.876975
0.607419
0.704869
0.33676
0.322568
0.0800109
0.0514515
0.437976
0.419204
0.119254
0.106837
0.129181
0.0240948
0.864814
0.857858
0.851273
0.867598
0.764827
0.470643
0.566074
0.261505
0.0399969
0.698473
0.631278
0.511922
0.859098
0.0284744
0.0477913
0.0158127
0.207858
0.185718
0.118893
0.209856
0.179234
0.669538
0.272508
0.909255
0.183542
0.0517026
0.291345
0.307467
0.366804
0.72877
0.78133
0.651983
0.829286
0.557534
0.540643
0.627516
0.683418
0.281667
0.292003
0.104506
0.0758908
0.0860056
0.649531
0.704614
0.564164
0.867845
0.692758
0.711111
0.480825
0.508813
0.0142296
0.269476
0.519246
0.012438
1.06312
0.882345
0.876536
0.452311
0.633953
0.668273
0.699425
0.76264
0.844846
0.842036
0.580661
0.684751
0.627193
0.572674
0.103314
0.0397371
0.843392
0.660289
0.0652592
0.0223661
0.278457
0.53613
0.0455803
1.05391
1.09379
0.885147
0.0405237
0.551893
0.612085
0.64806
0.597815
0.805629
0.82882
0.814946
0.737982
0.738607
0.443355
0.353432
0.264475
0.0629861
0.0544453
0.883958
0.794866
0.702189
0.0524654
0.875976
0.00543995
0.14164
0.0100747
0.0180062
0.00637665
1.00502
1.09035
0.0778338
0.211349
0.230508
0.747661
0.702175
0.688272
0.53714
0.506986
0.624627
0.272587
0.111735
0.738846
0.563106
0.517582
0.0261144
0.0107877
0.872079
0.714362
0.440544
0.0411288
0.304036
0.183143
0.491784
0.115039
0.765477
0.19721
0.458394
0.112561
1.06781
1.07889
1.08696
1.04229
0.877444
0.882157
0.846526
0.639524
0.636567
0.148537
0.835549
0.493883
0.601794
0.657717
0.435476
0.426511
0.113656
0.390067
0.763752
0.814204
0.865281
0.584888
0.471068
0.310259
0.183577
0.137606
0.501716
0.779256
0.704265
0.36391
0.0281784
0.454419
0.615032
0.220175
0.486295
1.0909
0.637642
0.62963
0.404339
0.760923
0.761563
0.613093
0.620316
0.660727
0.762992
0.646476
0.589358
0.711103
0.711247
0.195799
0.112699
0.0828924
0.0572085
0.564647
0.515866
0.0433109
0.0473458
0.720856
0.847007
0.208974
0.13051
0.741723
0.243964
0.293133
0.204856
0.17162
0.98317
0.497433
0.572651
0.652549
0.781062
0.799754
0.799118
0.497623
0.407226
0.0985238
0.59298
0.611801
0.719463
0.383392
0.438394
0.399351
0.270328
0.296288
0.341066
0.774509
0.799157
0.353484
0.104825
0.831238
0.0762827
0.667337
0.719335
0.125935
0.225507
0.35601
0.527715
0.00296607
0.00556126
0.0375555
0.306235
0.330203
0.347529
0.790342
0.640722
0.552029
0.632379
0.684828
0.0731366
0.763699
0.056317
0.0695392
0.0384281
0.545119
0.428014
0.146194
0.495529
0.168282
1.05875
0.838289
0.247751
0.817662
0.184954
0.174943
0.00568083
0.0978629
0.0864804
0.289021
0.374105
0.343227
0.399097
0.354679
0.442871
0.451821
0.429658
0.692174
0.770225
0.782489
0.758176
0.784538
0.576358
0.430147
0.101333
0.809063
0.0337413
0.337596
0.354495
0.465692
0.0850076
0.201259
0.43637
0.592075
0.600096
0.686622
0.796735
0.503752
0.241696
0.137728
0.820843
0.025462
0.133803
0.0013799
0.0237135
0.0636558
0.0454893
0.0926267
0.370061
0.383097
0.786344
0.58627
0.530234
0.114181
0.867455
0.237942
0.0130373
0.0285266
0.308058
0.861733
0.078542
0.0449902
0.0304718
0.672306
0.018087
0.540043
0.48357
0.352701
0.408304
0.376785
0.739636
0.371243
0.846349
0.866511
0.500342
0.682593
1.00465
0.0538526
0.489287
0.0710819
0.473527
0.379916
0.713634
0.569081
0.0632246
0.0748835
0.65789
0.841182
0.269172
0.42179
0.827572
0.714385
0.108114
0.0300653
0.605552
0.342772
0.410211
0.461129
0.420579
0.829366
0.104286
0.472578
0.535834
0.81869
0.645343
0.288895
0.207796
0.635427
0.660119
0.542982
0.523682
0.891062
0.461855
0.469861
0.390377
0.531232
0.690166
0.144706
0.461709
0.800696
0.136103
0.366879
0.0714427
0.0839881
0.509871
0.149375
0.147805
0.110823
0.577328
0.246761
0.502907
0.480855
0.236712
0.609712
0.0649798
0.0894021
0.0947414
0.558039
0.39429
0.535066
0.510898
0.0603877
0.368145
0.135141
0.50836
0.310643
0.404573
0.582571
0.551933
0.134071
0.132563
0.450042
0.107816
0.206069
0.4138
0.348718
0.373072
0.144361
0.284256
0.283002
0.146888
0.0858851
0.0792302
0.140446
0.410227
0.450236
0.228609
0.00875031
0.3199
0.434527
0.400692
0.056063
0.297092
0.189689
0.264773
0.380589
0.175264
0.177766
0.0378292
0.352836
0.4228
0.386662
0.0963259
0.0778567
0.220481
0.465786
0.210178
0.0441143
0.163777
0.135289
0.0179482
0.172301
0.0423589
0.23211
0.0307124
0.182437
0.889042
0.903583
0.835966
1.08067
0.163367
0.388915
0.912827
0.669739
0.708787
0.0391414
0.925958
0.900052
0.884812
0.980488
0.357884
0.811324
0.0215657
0.763537
0.800868
0.0131296
0.0461099
0.94473
0.95941
0.929818
0.226634
1.04971
0.708739
0.671253
0.976091
0.0272021
0.796298
0.878663
0.104952
0.113044
0.0260607
0.00219765
0.0522291
0.00885356
0.00745021
1.0181
1.02928
0.57329
1.00286
0.0144876
0.913236
0.00226463
0.288653
0.00030531
1.04468
0.000371922
0.830431
0.942339
0.176778
0.902904
0.00608064
0.849494
0.839962
0.200567
0.703952
0.880391
0.0830467
0.910376
0.0561036
1.00035
0.856132
0.0842692
0.747289
0.893189
0.948711
0.0202424
0.741589
0.0375554
0.986273
0.00279929
0.958874
0.822001
0.983307
0.830156
0.941524
0.703444
0.00171109
0.00349909
0.98049
0.304376
0.794603
0.0311631
0.801819
0.0526923
1.04283
0.00126461
0.764219
0.864432
0.134313
0.038086
0.000794806
0.00384822
0.0181543
0.00321756
1.06754
0.608716
0.737839
0.00702414
0.862348
0.838362
0.449747
0.346044
1.02588
0.920373
0.850647
0.255175
0.00130976
0.762427
0.936686
0.945319
0.814784
0.898204
0.850468
0.949937
0.543897
0.968579
0.933737
0.932872
0.911222
0.921703
0.646445
0.912399
