# vtk DataFile Version 3.0
Malha 2D com triângulos e temperatura
ASCII
DATASET UNSTRUCTURED_GRID

POINTS 625 double
0 0 0
1 0 0
1 1 0
0 1 0
0.0416667 0 0
0.0833333 0 0
0.125 0 0
0.166667 0 0
0.208333 0 0
0.25 0 0
0.291667 0 0
0.333333 0 0
0.375 0 0
0.416667 0 0
0.458333 0 0
0.5 0 0
0.541667 0 0
0.583333 0 0
0.625 0 0
0.666667 0 0
0.708333 0 0
0.75 0 0
0.791667 0 0
0.833333 0 0
0.875 0 0
0.916667 0 0
0.958333 0 0
1 0.0416667 0
1 0.0833333 0
1 0.125 0
1 0.166667 0
1 0.208333 0
1 0.25 0
1 0.291667 0
1 0.333333 0
1 0.375 0
1 0.416667 0
1 0.458333 0
1 0.5 0
1 0.541667 0
1 0.583333 0
1 0.625 0
1 0.666667 0
1 0.708333 0
1 0.75 0
1 0.791667 0
1 0.833333 0
1 0.875 0
1 0.916667 0
1 0.958333 0
0.958333 1 0
0.916667 1 0
0.875 1 0
0.833333 1 0
0.791667 1 0
0.75 1 0
0.708333 1 0
0.666667 1 0
0.625 1 0
0.583333 1 0
0.541667 1 0
0.5 1 0
0.458333 1 0
0.416667 1 0
0.375 1 0
0.333333 1 0
0.291667 1 0
0.25 1 0
0.208333 1 0
0.166667 1 0
0.125 1 0
0.0833333 1 0
0.0416667 1 0
0 0.958333 0
0 0.916667 0
0 0.875 0
0 0.833333 0
0 0.791667 0
0 0.75 0
0 0.708333 0
0 0.666667 0
0 0.625 0
0 0.583333 0
0 0.541667 0
0 0.5 0
0 0.458333 0
0 0.416667 0
0 0.375 0
0 0.333333 0
0 0.291667 0
0 0.25 0
0 0.208333 0
0 0.166667 0
0 0.125 0
0 0.0833333 0
0 0.0416667 0
0.0416667 0.0416667 0
0.0416667 0.0833333 0
0.0416667 0.125 0
0.0416667 0.166667 0
0.0416667 0.208333 0
0.0416667 0.25 0
0.0416667 0.291667 0
0.0416667 0.333333 0
0.0416667 0.375 0
0.0416667 0.416667 0
0.0416667 0.458333 0
0.0416667 0.5 0
0.0416667 0.541667 0
0.0416667 0.583333 0
0.0416667 0.625 0
0.0416667 0.666667 0
0.0416667 0.708333 0
0.0416667 0.75 0
0.0416667 0.791667 0
0.0416667 0.833333 0
0.0416667 0.875 0
0.0416667 0.916667 0
0.0416667 0.958333 0
0.0833333 0.0416667 0
0.0833333 0.0833333 0
0.0833333 0.125 0
0.0833333 0.166667 0
0.0833333 0.208333 0
0.0833333 0.25 0
0.0833333 0.291667 0
0.0833333 0.333333 0
0.0833333 0.375 0
0.0833333 0.416667 0
0.0833333 0.458333 0
0.0833333 0.5 0
0.0833333 0.541667 0
0.0833333 0.583333 0
0.0833333 0.625 0
0.0833333 0.666667 0
0.0833333 0.708333 0
0.0833333 0.75 0
0.0833333 0.791667 0
0.0833333 0.833333 0
0.0833333 0.875 0
0.0833333 0.916667 0
0.0833333 0.958333 0
0.125 0.0416667 0
0.125 0.0833333 0
0.125 0.125 0
0.125 0.166667 0
0.125 0.208333 0
0.125 0.25 0
0.125 0.291667 0
0.125 0.333333 0
0.125 0.375 0
0.125 0.416667 0
0.125 0.458333 0
0.125 0.5 0
0.125 0.541667 0
0.125 0.583333 0
0.125 0.625 0
0.125 0.666667 0
0.125 0.708333 0
0.125 0.75 0
0.125 0.791667 0
0.125 0.833333 0
0.125 0.875 0
0.125 0.916667 0
0.125 0.958333 0
0.166667 0.0416667 0
0.166667 0.0833333 0
0.166667 0.125 0
0.166667 0.166667 0
0.166667 0.208333 0
0.166667 0.25 0
0.166667 0.291667 0
0.166667 0.333333 0
0.166667 0.375 0
0.166667 0.416667 0
0.166667 0.458333 0
0.166667 0.5 0
0.166667 0.541667 0
0.166667 0.583333 0
0.166667 0.625 0
0.166667 0.666667 0
0.166667 0.708333 0
0.166667 0.75 0
0.166667 0.791667 0
0.166667 0.833333 0
0.166667 0.875 0
0.166667 0.916667 0
0.166667 0.958333 0
0.208333 0.0416667 0
0.208333 0.0833333 0
0.208333 0.125 0
0.208333 0.166667 0
0.208333 0.208333 0
0.208333 0.25 0
0.208333 0.291667 0
0.208333 0.333333 0
0.208333 0.375 0
0.208333 0.416667 0
0.208333 0.458333 0
0.208333 0.5 0
0.208333 0.541667 0
0.208333 0.583333 0
0.208333 0.625 0
0.208333 0.666667 0
0.208333 0.708333 0
0.208333 0.75 0
0.208333 0.791667 0
0.208333 0.833333 0
0.208333 0.875 0
0.208333 0.916667 0
0.208333 0.958333 0
0.25 0.0416667 0
0.25 0.0833333 0
0.25 0.125 0
0.25 0.166667 0
0.25 0.208333 0
0.25 0.25 0
0.25 0.291667 0
0.25 0.333333 0
0.25 0.375 0
0.25 0.416667 0
0.25 0.458333 0
0.25 0.5 0
0.25 0.541667 0
0.25 0.583333 0
0.25 0.625 0
0.25 0.666667 0
0.25 0.708333 0
0.25 0.75 0
0.25 0.791667 0
0.25 0.833333 0
0.25 0.875 0
0.25 0.916667 0
0.25 0.958333 0
0.291667 0.0416667 0
0.291667 0.0833333 0
0.291667 0.125 0
0.291667 0.166667 0
0.291667 0.208333 0
0.291667 0.25 0
0.291667 0.291667 0
0.291667 0.333333 0
0.291667 0.375 0
0.291667 0.416667 0
0.291667 0.458333 0
0.291667 0.5 0
0.291667 0.541667 0
0.291667 0.583333 0
0.291667 0.625 0
0.291667 0.666667 0
0.291667 0.708333 0
0.291667 0.75 0
0.291667 0.791667 0
0.291667 0.833333 0
0.291667 0.875 0
0.291667 0.916667 0
0.291667 0.958333 0
0.333333 0.0416667 0
0.333333 0.0833333 0
0.333333 0.125 0
0.333333 0.166667 0
0.333333 0.208333 0
0.333333 0.25 0
0.333333 0.291667 0
0.333333 0.333333 0
0.333333 0.375 0
0.333333 0.416667 0
0.333333 0.458333 0
0.333333 0.5 0
0.333333 0.541667 0
0.333333 0.583333 0
0.333333 0.625 0
0.333333 0.666667 0
0.333333 0.708333 0
0.333333 0.75 0
0.333333 0.791667 0
0.333333 0.833333 0
0.333333 0.875 0
0.333333 0.916667 0
0.333333 0.958333 0
0.375 0.0416667 0
0.375 0.0833333 0
0.375 0.125 0
0.375 0.166667 0
0.375 0.208333 0
0.375 0.25 0
0.375 0.291667 0
0.375 0.333333 0
0.375 0.375 0
0.375 0.416667 0
0.375 0.458333 0
0.375 0.5 0
0.375 0.541667 0
0.375 0.583333 0
0.375 0.625 0
0.375 0.666667 0
0.375 0.708333 0
0.375 0.75 0
0.375 0.791667 0
0.375 0.833333 0
0.375 0.875 0
0.375 0.916667 0
0.375 0.958333 0
0.416667 0.0416667 0
0.416667 0.0833333 0
0.416667 0.125 0
0.416667 0.166667 0
0.416667 0.208333 0
0.416667 0.25 0
0.416667 0.291667 0
0.416667 0.333333 0
0.416667 0.375 0
0.416667 0.416667 0
0.416667 0.458333 0
0.416667 0.5 0
0.416667 0.541667 0
0.416667 0.583333 0
0.416667 0.625 0
0.416667 0.666667 0
0.416667 0.708333 0
0.416667 0.75 0
0.416667 0.791667 0
0.416667 0.833333 0
0.416667 0.875 0
0.416667 0.916667 0
0.416667 0.958333 0
0.458333 0.0416667 0
0.458333 0.0833333 0
0.458333 0.125 0
0.458333 0.166667 0
0.458333 0.208333 0
0.458333 0.25 0
0.458333 0.291667 0
0.458333 0.333333 0
0.458333 0.375 0
0.458333 0.416667 0
0.458333 0.458333 0
0.458333 0.5 0
0.458333 0.541667 0
0.458333 0.583333 0
0.458333 0.625 0
0.458333 0.666667 0
0.458333 0.708333 0
0.458333 0.75 0
0.458333 0.791667 0
0.458333 0.833333 0
0.458333 0.875 0
0.458333 0.916667 0
0.458333 0.958333 0
0.5 0.0416667 0
0.5 0.0833333 0
0.5 0.125 0
0.5 0.166667 0
0.5 0.208333 0
0.5 0.25 0
0.5 0.291667 0
0.5 0.333333 0
0.5 0.375 0
0.5 0.416667 0
0.5 0.458333 0
0.5 0.5 0
0.5 0.541667 0
0.5 0.583333 0
0.5 0.625 0
0.5 0.666667 0
0.5 0.708333 0
0.5 0.75 0
0.5 0.791667 0
0.5 0.833333 0
0.5 0.875 0
0.5 0.916667 0
0.5 0.958333 0
0.541667 0.0416667 0
0.541667 0.0833333 0
0.541667 0.125 0
0.541667 0.166667 0
0.541667 0.208333 0
0.541667 0.25 0
0.541667 0.291667 0
0.541667 0.333333 0
0.541667 0.375 0
0.541667 0.416667 0
0.541667 0.458333 0
0.541667 0.5 0
0.541667 0.541667 0
0.541667 0.583333 0
0.541667 0.625 0
0.541667 0.666667 0
0.541667 0.708333 0
0.541667 0.75 0
0.541667 0.791667 0
0.541667 0.833333 0
0.541667 0.875 0
0.541667 0.916667 0
0.541667 0.958333 0
0.583333 0.0416667 0
0.583333 0.0833333 0
0.583333 0.125 0
0.583333 0.166667 0
0.583333 0.208333 0
0.583333 0.25 0
0.583333 0.291667 0
0.583333 0.333333 0
0.583333 0.375 0
0.583333 0.416667 0
0.583333 0.458333 0
0.583333 0.5 0
0.583333 0.541667 0
0.583333 0.583333 0
0.583333 0.625 0
0.583333 0.666667 0
0.583333 0.708333 0
0.583333 0.75 0
0.583333 0.791667 0
0.583333 0.833333 0
0.583333 0.875 0
0.583333 0.916667 0
0.583333 0.958333 0
0.625 0.0416667 0
0.625 0.0833333 0
0.625 0.125 0
0.625 0.166667 0
0.625 0.208333 0
0.625 0.25 0
0.625 0.291667 0
0.625 0.333333 0
0.625 0.375 0
0.625 0.416667 0
0.625 0.458333 0
0.625 0.5 0
0.625 0.541667 0
0.625 0.583333 0
0.625 0.625 0
0.625 0.666667 0
0.625 0.708333 0
0.625 0.75 0
0.625 0.791667 0
0.625 0.833333 0
0.625 0.875 0
0.625 0.916667 0
0.625 0.958333 0
0.666667 0.0416667 0
0.666667 0.0833333 0
0.666667 0.125 0
0.666667 0.166667 0
0.666667 0.208333 0
0.666667 0.25 0
0.666667 0.291667 0
0.666667 0.333333 0
0.666667 0.375 0
0.666667 0.416667 0
0.666667 0.458333 0
0.666667 0.5 0
0.666667 0.541667 0
0.666667 0.583333 0
0.666667 0.625 0
0.666667 0.666667 0
0.666667 0.708333 0
0.666667 0.75 0
0.666667 0.791667 0
0.666667 0.833333 0
0.666667 0.875 0
0.666667 0.916667 0
0.666667 0.958333 0
0.708333 0.0416667 0
0.708333 0.0833333 0
0.708333 0.125 0
0.708333 0.166667 0
0.708333 0.208333 0
0.708333 0.25 0
0.708333 0.291667 0
0.708333 0.333333 0
0.708333 0.375 0
0.708333 0.416667 0
0.708333 0.458333 0
0.708333 0.5 0
0.708333 0.541667 0
0.708333 0.583333 0
0.708333 0.625 0
0.708333 0.666667 0
0.708333 0.708333 0
0.708333 0.75 0
0.708333 0.791667 0
0.708333 0.833333 0
0.708333 0.875 0
0.708333 0.916667 0
0.708333 0.958333 0
0.75 0.0416667 0
0.75 0.0833333 0
0.75 0.125 0
0.75 0.166667 0
0.75 0.208333 0
0.75 0.25 0
0.75 0.291667 0
0.75 0.333333 0
0.75 0.375 0
0.75 0.416667 0
0.75 0.458333 0
0.75 0.5 0
0.75 0.541667 0
0.75 0.583333 0
0.75 0.625 0
0.75 0.666667 0
0.75 0.708333 0
0.75 0.75 0
0.75 0.791667 0
0.75 0.833333 0
0.75 0.875 0
0.75 0.916667 0
0.75 0.958333 0
0.791667 0.0416667 0
0.791667 0.0833333 0
0.791667 0.125 0
0.791667 0.166667 0
0.791667 0.208333 0
0.791667 0.25 0
0.791667 0.291667 0
0.791667 0.333333 0
0.791667 0.375 0
0.791667 0.416667 0
0.791667 0.458333 0
0.791667 0.5 0
0.791667 0.541667 0
0.791667 0.583333 0
0.791667 0.625 0
0.791667 0.666667 0
0.791667 0.708333 0
0.791667 0.75 0
0.791667 0.791667 0
0.791667 0.833333 0
0.791667 0.875 0
0.791667 0.916667 0
0.791667 0.958333 0
0.833333 0.0416667 0
0.833333 0.0833333 0
0.833333 0.125 0
0.833333 0.166667 0
0.833333 0.208333 0
0.833333 0.25 0
0.833333 0.291667 0
0.833333 0.333333 0
0.833333 0.375 0
0.833333 0.416667 0
0.833333 0.458333 0
0.833333 0.5 0
0.833333 0.541667 0
0.833333 0.583333 0
0.833333 0.625 0
0.833333 0.666667 0
0.833333 0.708333 0
0.833333 0.75 0
0.833333 0.791667 0
0.833333 0.833333 0
0.833333 0.875 0
0.833333 0.916667 0
0.833333 0.958333 0
0.875 0.0416667 0
0.875 0.0833333 0
0.875 0.125 0
0.875 0.166667 0
0.875 0.208333 0
0.875 0.25 0
0.875 0.291667 0
0.875 0.333333 0
0.875 0.375 0
0.875 0.416667 0
0.875 0.458333 0
0.875 0.5 0
0.875 0.541667 0
0.875 0.583333 0
0.875 0.625 0
0.875 0.666667 0
0.875 0.708333 0
0.875 0.75 0
0.875 0.791667 0
0.875 0.833333 0
0.875 0.875 0
0.875 0.916667 0
0.875 0.958333 0
0.916667 0.0416667 0
0.916667 0.0833333 0
0.916667 0.125 0
0.916667 0.166667 0
0.916667 0.208333 0
[...]
CELL_DATA 1152
SCALARS Temperatura double 1
LOOKUP_TABLE default
0.00701113
0.0211145
0.0309431
0.0672152
0.0612783
0.12061
0.0939917
0.176495
0.127044
0.232095
0.159173
0.285585
0.189515
0.335671
0.217441
0.381395
0.242479
0.422024
0.26426
0.456984
0.282492
0.485814
0.296937
0.508133
0.307394
0.523617
0.313687
0.531974
0.315649
0.532923
0.313112
0.526171
0.305888
0.511378
0.293747
0.488115
0.276375
0.455787
0.253314
0.413495
0.223813
0.359736
0.186486
0.291636
0.138169
0.202336
0.0688432
0.0688432
0.0309431
0.0672152
0.128572
0.191109
0.240364
0.326739
0.357357
0.465631
0.473948
0.60221
0.58634
0.732569
0.691808
0.853842
0.788318
0.963861
0.874309
1.06094
0.948553
1.14374
1.01007
1.21119
1.05803
1.26237
1.09176
1.29651
1.11063
1.31288
1.11403
1.31077
1.10134
1.28943
1.07186
1.24794
1.02467
1.18516
0.958534
1.09943
0.871626
0.988293
0.760977
0.847688
0.621339
0.670374
0.442406
0.442406
0.202336
0.138169
0.0612783
0.12061
0.240364
0.326739
0.433739
0.543221
0.630931
0.760378
0.824636
0.971267
1.00957
1.17076
1.18178
1.35496
1.33826
1.52087
1.47663
1.66609
1.59502
1.78874
1.6919
1.88723
1.76599
1.96025
1.81618
2.00663
1.84147
2.02528
1.84087
2.01512
1.81331
1.97494
1.75758
1.90331
1.67209
1.79836
1.55471
1.65752
1.40232
1.47698
1.2101
1.25094
0.970304
0.970304
0.670374
0.621339
0.291636
0.186486
0.0939917
0.176495
0.357357
0.465631
0.630931
0.760378
0.904078
1.05091
1.16885
1.32976
1.4192
1.59118
1.65049
1.83069
1.85905
2.04477
2.042
2.23057
2.197
2.3858
2.32213
2.50855
2.41575
2.59718
2.47646
2.65025
2.50293
2.66638
2.49384
2.64416
2.44777
2.58204
2.36305
2.47815
2.23758
2.3301
2.06851
2.13468
1.8519
1.88742
1.58206
1.58206
1.25094
1.2101
0.847688
0.760977
0.359736
0.223813
0.127044
0.232095
0.473948
0.60221
0.824636
0.971267
1.16885
1.32976
1.49856
1.67017
1.80745
1.98655
2.09055
2.27416
2.34387
2.52921
2.5642
2.74859
2.74893
2.9298
2.89588
3.07071
3.00322
3.16949
3.06929
3.22451
3.09256
3.2342
3.07148
3.19693
3.00437
3.11092
2.88927
2.97405
2.72372
2.78366
2.50457
2.53634
2.22763
2.22763
1.88742
1.8519
1.47698
1.40232
0.988293
0.871626
0.413495
0.253314
0.159173
0.285585
0.58634
0.732569
1.00957
1.17076
1.4192
1.59118
1.80745
1.98655
2.16805
2.35099
2.49595
2.67973
2.78705
2.96892
3.03804
3.21538
3.24618
3.41651
3.40918
3.57011
3.52508
3.67428
3.59214
3.72729
3.6087
3.72748
3.5731
3.67316
3.48351
3.56244
3.33788
3.39316
3.13367
3.16267
2.86778
2.86778
2.53634
2.50457
2.13468
2.06851
1.65752
1.55471
1.09943
0.958534
0.455787
0.276375
0.189515
0.335671
0.691808
0.853842
1.18178
1.35496
1.65049
1.83069
2.09055
2.27416
2.49595
2.67973
2.86176
3.0428
3.18397
3.35959
3.45928
3.62701
3.68499
3.8425
3.85881
4.0039
3.9788
4.10934
4.04319
4.15711
4.05033
4.14559
3.99855
4.07311
3.88608
3.93787
3.71091
3.73785
3.47069
3.47069
3.16267
3.13367
2.78366
2.72372
2.3301
2.23758
1.79836
1.67209
1.18516
1.02467
0.488115
0.293747
0.217441
0.381395
0.788318
0.963861
1.33826
1.52087
1.85905
2.04477
2.34387
2.52921
2.78705
2.96892
3.18397
3.35959
3.5308
3.69768
3.82444
3.98029
4.06231
4.20501
4.24224
4.36984
4.3624
4.47302
4.42114
4.513
4.4169
4.48829
4.34815
4.39737
4.21327
4.23868
4.01049
4.01049
3.73785
3.71091
3.39316
3.33788
2.97405
2.88927
2.47815
2.36305
1.90331
1.75758
1.24794
1.07186
0.511378
0.305888
0.242479
0.422024
0.874309
1.06094
1.47663
1.66609
2.042
2.23057
2.5642
2.74859
3.03804
3.21538
3.45928
3.62701
3.82444
3.98029
4.13068
4.2726
4.37566
4.50182
4.55747
4.66617
4.67445
4.76415
4.72516
4.7944
4.70826
4.75568
4.62244
4.64675
4.46638
4.46638
4.23868
4.21327
3.93787
3.88608
3.56244
3.48351
3.11092
3.00437
2.58204
2.44777
1.97494
1.81331
1.28943
1.10134
0.526171
0.313112
0.26426
0.456984
0.948553
1.14374
1.59502
1.78874
2.197
2.3858
2.74893
2.9298
3.24618
3.41651
3.68499
3.8425
4.06231
4.20501
4.37566
4.50182
4.62308
4.73115
4.80293
4.89157
4.91387
4.98187
4.95474
5.00101
4.92449
4.94806
4.82215
4.82215
4.64675
4.62244
4.39737
4.34815
4.07311
3.99855
3.67316
3.5731
3.19693
3.07148
2.64416
2.49384
2.01512
1.84087
1.31077
1.11403
0.532923
0.315649
0.282492
0.485814
1.01007
1.21119
1.6919
1.88723
2.32213
2.50855
2.89588
3.07071
3.40918
3.57011
3.85881
4.0039
4.24224
4.36984
4.55747
4.66617
4.80293
4.89157
4.9774
5.04499
5.07989
5.1256
5.10961
5.13274
5.06586
5.06586
4.94806
4.92449
4.75568
4.70826
4.48829
4.4169
4.14559
4.05033
3.72748
3.6087
3.2342
3.09256
2.66638
2.50293
2.02528
1.84147
1.31288
1.11063
0.531974
0.313687
0.296937
0.508133
1.05803
1.26237
1.76599
1.96025
2.41575
2.59718
3.00322
3.16949
3.52508
3.67428
3.9788
4.10934
4.3624
4.47302
4.67445
4.76415
4.91387
4.98187
5.07989
5.1256
5.17196
5.19495
5.18967
5.18967
5.13274
5.10961
5.00101
4.95474
4.7944
4.72516
4.513
4.42114
4.15711
4.04319
3.72729
3.59214
3.22451
3.06929
2.65025
2.47646
2.00663
1.81618
1.29651
1.09176
0.523617
0.307394
0.307394
0.523617
1.09176
1.29651
1.81618
2.00663
2.47646
2.65025
3.06929
3.22451
3.59214
3.72729
4.04319
4.15711
4.42114
4.513
4.72516
4.7944
4.95474
5.00101
5.10961
5.13274
5.18967
5.18967
5.19495
5.17196
5.1256
5.07989
4.98187
4.91387
4.76415
4.67445
4.47302
4.3624
4.10934
3.9788
3.67428
3.52508
3.16949
3.00322
2.59718
2.41575
1.96025
1.76599
1.26237
1.05803
0.508133
0.296937
0.313687
0.531974
1.11063
1.31288
1.84147
2.02528
2.50293
2.66638
3.09256
3.2342
3.6087
3.72748
4.05033
4.14559
4.4169
4.48829
4.70826
4.75568
4.92449
4.94806
5.06586
5.06586
5.13274
5.10961
5.1256
5.07989
5.04499
4.9774
4.89157
4.80293
4.66617
4.55747
4.36984
4.24224
4.0039
3.85881
3.57011
3.40918
3.07071
2.89588
2.50855
2.32213
1.88723
1.6919
1.21119
1.01007
0.485814
0.282492
0.315649
0.532923
1.11403
1.31077
1.84087
2.01512
2.49384
2.64416
3.07148
3.19693
3.5731
3.67316
3.99855
4.07311
4.34815
4.39737
4.62244
4.64675
4.82215
4.82215
4.94806
4.92449
5.00101
4.95474
4.98187
4.91387
4.89157
4.80293
4.73115
4.62308
4.50182
4.37566
4.20501
4.06231
3.8425
3.68499
3.41651
3.24618
2.9298
2.74893
2.3858
2.197
1.78874
1.59502
1.14374
0.948553
0.456984
0.26426
0.313112
0.526171
1.10134
1.28943
1.81331
1.97494
2.44777
2.58204
3.00437
3.11092
3.48351
3.56244
3.88608
3.93787
4.21327
4.23868
4.46638
4.46638
4.64675
4.62244
4.75568
4.70826
4.7944
4.72516
4.76415
4.67445
4.66617
4.55747
4.50182
4.37566
4.2726
4.13068
3.98029
3.82444
3.62701
3.45928
3.21538
3.03804
2.74859
2.5642
2.23057
2.042
1.66609
1.47663
1.06094
0.874309
0.422024
0.242479
0.305888
0.511378
1.07186
1.24794
1.75758
1.90331
2.36305
2.47815
2.88927
2.97405
3.33788
3.39316
3.71091
3.73785
4.01049
4.01049
4.23868
4.21327
4.39737
4.34815
4.48829
4.4169
4.513
4.42114
4.47302
4.3624
4.36984
4.24224
4.20501
4.06231
3.98029
3.82444
3.69768
3.5308
3.35959
3.18397
2.96892
2.78705
2.52921
2.34387
2.04477
1.85905
1.52087
1.33826
0.963861
0.788318
0.381395
0.217441
0.293747
0.488115
1.02467
1.18516
1.67209
1.79836
2.23758
2.3301
2.72372
2.78366
3.13367
3.16267
3.47069
3.47069
3.73785
3.71091
3.93787
3.88608
4.07311
3.99855
4.14559
4.05033
4.15711
4.04319
4.10934
3.9788
4.0039
3.85881
3.8425
3.68499
3.62701
3.45928
3.35959
3.18397
3.0428
2.86176
2.67973
2.49595
2.27416
2.09055
1.83069
1.65049
1.35496
1.18178
0.853842
0.691808
0.335671
0.189515
0.276375
0.455787
0.958534
1.09943
1.55471
1.65752
2.06851
2.13468
2.50457
2.53634
2.86778
2.86778
3.16267
3.13367
3.39316
3.33788
3.56244
3.48351
3.67316
3.5731
3.72748
3.6087
3.72729
3.59214
3.67428
3.52508
3.57011
3.40918
3.41651
3.24618
3.21538
3.03804
2.96892
2.78705
2.67973
2.49595
2.35099
2.16805
1.98655
1.80745
1.59118
1.4192
1.17076
1.00957
0.732569
0.58634
0.285585
0.159173
0.253314
0.413495
0.871626
0.988293
1.40232
1.47698
1.8519
1.88742
2.22763
2.22763
2.53634
2.50457
2.78366
2.72372
2.97405
2.88927
3.11092
3.00437
3.19693
3.07148
3.2342
3.09256
3.22451
3.06929
3.16949
3.00322
3.07071
2.89588
2.9298
2.74893
2.74859
2.5642
2.52921
2.34387
2.27416
2.09055
1.98655
1.80745
1.67017
1.49856
1.32976
1.16885
0.971267
0.824636
0.60221
0.473948
0.232095
0.127044
0.223813
0.359736
0.760977
0.847688
1.2101
1.25094
1.58206
1.58206
1.88742
1.8519
2.13468
2.06851
2.3301
2.23758
2.47815
2.36305
2.58204
2.44777
2.64416
2.49384
2.66638
2.50293
2.65025
2.47646
2.59718
2.41575
2.50855
2.32213
2.3858
2.197
2.23057
2.042
2.04477
1.85905
1.83069
1.65049
1.59118
1.4192
1.32976
1.16885
1.05091
0.904078
0.760378
0.630931
0.465631
0.357357
0.176495
0.0939917
0.186486
0.291636
0.621339
0.670374
0.970304
0.970304
1.25094
1.2101
1.47698
1.40232
1.65752
1.55471
1.79836
1.67209
1.90331
1.75758
1.97494
1.81331
2.01512
1.84087
2.02528
1.84147
2.00663
1.81618
1.96025
1.76599
1.88723
1.6919
1.78874
1.59502
1.66609
1.47663
1.52087
1.33826
1.35496
1.18178
1.17076
1.00957
0.971267
0.824636
0.760378
0.630931
0.543221
0.433739
0.326739
0.240364
0.12061
0.0612783
0.138169
0.202336
0.442406
0.442406
0.670374
0.621339
0.847688
0.760977
0.988293
0.871626
1.09943
0.958534
1.18516
1.02467
1.24794
1.07186
1.28943
1.10134
1.31077
1.11403
1.31288
1.11063
1.29651
1.09176
1.26237
1.05803
1.21119
1.01007
1.14374
0.948553
1.06094
0.874309
0.963861
0.788318
0.853842
0.691808
0.732569
0.58634
0.60221
0.473948
0.465631
0.357357
0.326739
0.240364
0.191109
0.128572
0.0672152
0.0309431
0.0688432
0.0688432
0.202336
0.138169
0.291636
0.186486
0.359736
0.223813
0.413495
0.253314
0.455787
0.276375
0.488115
0.293747
0.511378
0.305888
0.526171
0.313112
0.532923
0.315649
0.531974
0.313687
0.523617
0.307394
0.508133
0.296937
0.485814
0.282492
0.456984
0.26426
0.422024
0.242479
0.381395
0.217441
0.335671
0.189515
0.285585
0.159173
0.232095
0.127044
0.176495
0.0939917
0.12061
0.0612783
0.0672152
0.0309431
0.0211145
0.00701113
