# vtk DataFile Version 3.0
Malha 2D com triângulos e temperatura
ASCII
DATASET UNSTRUCTURED_GRID

POINTS 36 double
0 0 0
1 0 0
1 1 0
0 1 0
0.2 0 0
0.4 0 0
0.6 0 0
0.8 0 0
1 0.2 0
1 0.4 0
1 0.6 0
1 0.8 0
0.8 1 0
0.6 1 0
0.4 1 0
0.2 1 0
0 0.8 0
0 0.6 0
0 0.4 0
0 0.2 0
0.2 0.2 0
0.2 0.4 0
0.2 0.6 0
0.2 0.8 0
0.4 0.2 0
0.4 0.4 0
0.4 0.6 0
0.4 0.8 0
0.6 0.2 0
0.6 0.4 0
0.6 0.6 0
0.6 0.8 0
0.8 0.2 0
0.8 0.4 0
0.8 0.6 0
0.8 0.8 0

CELLS 25 125
4 0 4 20 19
4 19 20 21 18
4 18 21 22 17
4 17 22 23 16
4 16 23 15 3
4 4 5 24 20
4 20 24 25 21
4 21 25 26 22
4 22 26 27 23
4 23 27 14 15
4 5 6 28 24
4 24 28 29 25
4 25 29 30 26
4 26 30 31 27
4 27 31 13 14
4 6 7 32 28
4 28 32 33 29
4 29 33 34 30
4 30 34 35 31
4 31 35 12 13
4 7 1 8 32
4 32 8 9 33
4 33 9 10 34
4 34 10 11 35
4 35 11 2 12

CELL_TYPES 25
9
9
9
9
9
9
9
9
9
9
9
9
9
9
9
9
9
9
9
9
9
9
9
9
9

CELL_DATA 25
VECTORS velocity double
-0.00692292 0.00714329 0.0
-0.0103225 0.0221827 0.0
-0.0121811 0.0435135 0.0
-7.69045e-07 0.0707886 0.0
0.176655 0.0304832 0.0
-0.0167185 0.00527469 0.0
-0.0247785 0.0149855 0.0
-0.0339839 0.0260508 0.0
-0.0387942 0.0354719 0.0
0.104765 0.0055939 0.0
-0.0224891 0.000118974 0.0
-0.0366291 0.000690973 0.0
-0.0514225 0.00139681 0.0
-0.0512186 0.00462912 0.0
0.130026 -0.000947333 0.0
-0.0171121 -0.00499211 0.0
-0.026213 -0.0140215 0.0
-0.0355489 -0.0253798 0.0
-0.0560645 -0.0323654 0.0
0.119326 -0.0149973 0.0
-0.00708489 -0.00642009 0.0
-0.0108687 -0.0194523 0.0
-0.0112576 -0.0351606 0.0
-0.0533319 -0.0678884 0.0
0.156954 -0.0435735 0.0
