# vtk DataFile Version 3.0
Malha 2D com triângulos e temperatura
ASCII
DATASET UNSTRUCTURED_GRID

POINTS 2500 double
0 0 0
1 0 0
1 1 0
0 1 0
0.0204082 0 0
0.0408163 0 0
0.0612245 0 0
0.0816327 0 0
0.102041 0 0
0.122449 0 0
0.142857 0 0
0.163265 0 0
0.183673 0 0
0.204082 0 0
0.22449 0 0
0.244898 0 0
0.265306 0 0
0.285714 0 0
0.306122 0 0
0.326531 0 0
0.346939 0 0
0.367347 0 0
0.387755 0 0
0.408163 0 0
0.428571 0 0
0.44898 0 0
0.469388 0 0
0.489796 0 0
0.510204 0 0
0.530612 0 0
0.55102 0 0
0.571429 0 0
0.591837 0 0
0.612245 0 0
0.632653 0 0
0.653061 0 0
0.673469 0 0
0.693878 0 0
0.714286 0 0
0.734694 0 0
0.755102 0 0
0.77551 0 0
0.795918 0 0
0.816327 0 0
0.836735 0 0
0.857143 0 0
0.877551 0 0
0.897959 0 0
0.918367 0 0
0.938776 0 0
0.959184 0 0
0.979592 0 0
1 0.0204082 0
1 0.0408163 0
1 0.0612245 0
1 0.0816327 0
1 0.102041 0
1 0.122449 0
1 0.142857 0
1 0.163265 0
1 0.183673 0
1 0.204082 0
1 0.22449 0
1 0.244898 0
1 0.265306 0
1 0.285714 0
1 0.306122 0
1 0.326531 0
1 0.346939 0
1 0.367347 0
1 0.387755 0
1 0.408163 0
1 0.428571 0
1 0.44898 0
1 0.469388 0
1 0.489796 0
1 0.510204 0
1 0.530612 0
1 0.55102 0
1 0.571429 0
1 0.591837 0
1 0.612245 0
1 0.632653 0
1 0.653061 0
1 0.673469 0
1 0.693878 0
1 0.714286 0
1 0.734694 0
1 0.755102 0
1 0.77551 0
1 0.795918 0
1 0.816327 0
1 0.836735 0
1 0.857143 0
1 0.877551 0
1 0.897959 0
1 0.918367 0
1 0.938776 0
1 0.959184 0
1 0.979592 0
0.979592 1 0
0.959184 1 0
0.938776 1 0
0.918367 1 0
0.897959 1 0
0.877551 1 0
0.857143 1 0
0.836735 1 0
0.816327 1 0
0.795918 1 0
0.77551 1 0
0.755102 1 0
0.734694 1 0
0.714286 1 0
0.693878 1 0
0.673469 1 0
0.653061 1 0
0.632653 1 0
0.612245 1 0
0.591837 1 0
0.571429 1 0
0.55102 1 0
0.530612 1 0
0.510204 1 0
0.489796 1 0
0.469388 1 0
0.44898 1 0
0.428571 1 0
0.408163 1 0
0.387755 1 0
0.367347 1 0
0.346939 1 0
0.326531 1 0
0.306122 1 0
0.285714 1 0
0.265306 1 0
0.244898 1 0
0.22449 1 0
0.204082 1 0
0.183673 1 0
0.163265 1 0
0.142857 1 0
0.122449 1 0
0.102041 1 0
0.0816327 1 0
0.0612245 1 0
0.0408163 1 0
0.0204082 1 0
0 0.979592 0
0 0.959184 0
0 0.938776 0
0 0.918367 0
0 0.897959 0
0 0.877551 0
0 0.857143 0
0 0.836735 0
0 0.816327 0
0 0.795918 0
0 0.77551 0
0 0.755102 0
0 0.734694 0
0 0.714286 0
0 0.693878 0
0 0.673469 0
0 0.653061 0
0 0.632653 0
0 0.612245 0
0 0.591837 0
0 0.571429 0
0 0.55102 0
0 0.530612 0
0 0.510204 0
0 0.489796 0
0 0.469388 0
0 0.44898 0
0 0.428571 0
0 0.408163 0
0 0.387755 0
0 0.367347 0
0 0.346939 0
0 0.326531 0
0 0.306122 0
0 0.285714 0
0 0.265306 0
0 0.244898 0
0 0.22449 0
0 0.204082 0
0 0.183673 0
0 0.163265 0
0 0.142857 0
0 0.122449 0
0 0.102041 0
0 0.0816327 0
0 0.0612245 0
0 0.0408163 0
0 0.0204082 0
0.0204082 0.979592 0
0.0204082 0.959184 0
0.0204082 0.938776 0
0.0204082 0.918367 0
0.0204082 0.897959 0
0.0204082 0.877551 0
0.0204082 0.857143 0
0.0204082 0.836735 0
0.0204082 0.816327 0
0.0204082 0.795918 0
0.0204082 0.77551 0
0.0204082 0.755102 0
0.0204082 0.734694 0
0.0204082 0.714286 0
0.0204082 0.693878 0
0.0204082 0.673469 0
0.0204082 0.653061 0
0.0204082 0.632653 0
0.0204082 0.612245 0
0.0204082 0.591837 0
0.0204082 0.571429 0
0.0204082 0.55102 0
0.0204082 0.530612 0
0.0204082 0.510204 0
0.0204082 0.489796 0
0.0204082 0.469388 0
0.0204082 0.44898 0
0.0204082 0.428571 0
0.0204082 0.408163 0
0.0204082 0.387755 0
0.0204082 0.367347 0
0.0204082 0.346939 0
0.0204082 0.326531 0
0.0204082 0.306122 0
0.0204082 0.285714 0
0.0204082 0.265306 0
0.0204082 0.244898 0
0.0204082 0.22449 0
0.0204082 0.204082 0
0.0204082 0.183673 0
0.0204082 0.163265 0
0.0204082 0.142857 0
0.0204082 0.122449 0
0.0204082 0.102041 0
0.0204082 0.0816327 0
0.0204082 0.0612245 0
0.0204082 0.0408163 0
0.0204082 0.0204082 0
0.0408163 0.979592 0
0.0408163 0.959184 0
0.0408163 0.938776 0
0.0408163 0.918367 0
0.0408163 0.897959 0
0.0408163 0.877551 0
0.0408163 0.857143 0
0.0408163 0.836735 0
0.0408163 0.816327 0
0.0408163 0.795918 0
0.0408163 0.77551 0
0.0408163 0.755102 0
0.0408163 0.734694 0
0.0408163 0.714286 0
0.0408163 0.693878 0
0.0408163 0.673469 0
0.0408163 0.653061 0
0.0408163 0.632653 0
0.0408163 0.612245 0
0.0408163 0.591837 0
0.0408163 0.571429 0
0.0408163 0.55102 0
0.0408163 0.530612 0
0.0408163 0.510204 0
0.0408163 0.489796 0
0.0408163 0.469388 0
0.0408163 0.44898 0
0.0408163 0.428571 0
0.0408163 0.408163 0
0.0408163 0.387755 0
0.0408163 0.367347 0
0.0408163 0.346939 0
0.0408163 0.326531 0
0.0408163 0.306122 0
0.0408163 0.285714 0
0.0408163 0.265306 0
0.0408163 0.244898 0
0.0408163 0.22449 0
0.0408163 0.204082 0
0.0408163 0.183673 0
0.0408163 0.163265 0
0.0408163 0.142857 0
0.0408163 0.122449 0
0.0408163 0.102041 0
0.0408163 0.0816327 0
0.0408163 0.0612245 0
0.0408163 0.0408163 0
0.0408163 0.0204082 0
0.0612245 0.979592 0
0.0612245 0.959184 0
0.0612245 0.938776 0
0.0612245 0.918367 0
0.0612245 0.897959 0
0.0612245 0.877551 0
0.0612245 0.857143 0
0.0612245 0.836735 0
0.0612245 0.816327 0
0.0612245 0.795918 0
0.0612245 0.77551 0
0.0612245 0.755102 0
0.0612245 0.734694 0
0.0612245 0.714286 0
0.0612245 0.693878 0
0.0612245 0.673469 0
0.0612245 0.653061 0
0.0612245 0.632653 0
0.0612245 0.612245 0
0.0612245 0.591837 0
0.0612245 0.571429 0
0.0612245 0.55102 0
0.0612245 0.530612 0
0.0612245 0.510204 0
0.0612245 0.489796 0
0.0612245 0.469388 0
0.0612245 0.44898 0
0.0612245 0.428571 0
0.0612245 0.408163 0
0.0612245 0.387755 0
0.0612245 0.367347 0
0.0612245 0.346939 0
0.0612245 0.326531 0
0.0612245 0.306122 0
0.0612245 0.285714 0
0.0612245 0.265306 0
0.0612245 0.244898 0
0.0612245 0.22449 0
0.0612245 0.204082 0
0.0612245 0.183673 0
0.0612245 0.163265 0
0.0612245 0.142857 0
0.0612245 0.122449 0
0.0612245 0.102041 0
0.0612245 0.0816327 0
0.0612245 0.0612245 0
0.0612245 0.0408163 0
0.0612245 0.0204082 0
0.0816327 0.979592 0
0.0816327 0.959184 0
0.0816327 0.938776 0
0.0816327 0.918367 0
0.0816327 0.897959 0
0.0816327 0.877551 0
0.0816327 0.857143 0
0.0816327 0.836735 0
0.0816327 0.816327 0
0.0816327 0.795918 0
0.0816327 0.77551 0
0.0816327 0.755102 0
0.0816327 0.734694 0
0.0816327 0.714286 0
0.0816327 0.693878 0
0.0816327 0.673469 0
0.0816327 0.653061 0
0.0816327 0.632653 0
0.0816327 0.612245 0
0.0816327 0.591837 0
0.0816327 0.571429 0
0.0816327 0.55102 0
0.0816327 0.530612 0
0.0816327 0.510204 0
0.0816327 0.489796 0
0.0816327 0.469388 0
0.0816327 0.44898 0
0.0816327 0.428571 0
0.0816327 0.408163 0
0.0816327 0.387755 0
0.0816327 0.367347 0
0.0816327 0.346939 0
0.0816327 0.326531 0
0.0816327 0.306122 0
0.0816327 0.285714 0
0.0816327 0.265306 0
0.0816327 0.244898 0
0.0816327 0.22449 0
0.0816327 0.204082 0
0.0816327 0.183673 0
0.0816327 0.163265 0
0.0816327 0.142857 0
0.0816327 0.122449 0
0.0816327 0.102041 0
0.0816327 0.0816327 0
0.0816327 0.0612245 0
0.0816327 0.0408163 0
0.0816327 0.0204082 0
0.102041 0.979592 0
0.102041 0.959184 0
0.102041 0.938776 0
0.102041 0.918367 0
0.102041 0.897959 0
0.102041 0.877551 0
0.102041 0.857143 0
0.102041 0.836735 0
0.102041 0.816327 0
0.102041 0.795918 0
0.102041 0.77551 0
0.102041 0.755102 0
0.102041 0.734694 0
0.102041 0.714286 0
0.102041 0.693878 0
0.102041 0.673469 0
0.102041 0.653061 0
0.102041 0.632653 0
0.102041 0.612245 0
0.102041 0.591837 0
0.102041 0.571429 0
0.102041 0.55102 0
0.102041 0.530612 0
0.102041 0.510204 0
0.102041 0.489796 0
0.102041 0.469388 0
0.102041 0.44898 0
0.102041 0.428571 0
0.102041 0.408163 0
0.102041 0.387755 0
0.102041 0.367347 0
0.102041 0.346939 0
0.102041 0.326531 0
0.102041 0.306122 0
0.102041 0.285714 0
0.102041 0.265306 0
0.102041 0.244898 0
0.102041 0.22449 0
0.102041 0.204082 0
0.102041 0.183673 0
0.102041 0.163265 0
0.102041 0.142857 0
0.102041 0.122449 0
0.102041 0.102041 0
0.102041 0.0816327 0
0.102041 0.0612245 0
0.102041 0.0408163 0
0.102041 0.0204082 0
0.122449 0.979592 0
0.122449 0.959184 0
0.122449 0.938776 0
0.122449 0.918367 0
0.122449 0.897959 0
0.122449 0.877551 0
0.122449 0.857143 0
0.122449 0.836735 0
0.122449 0.816327 0
0.122449 0.795918 0
0.122449 0.77551 0
0.122449 0.755102 0
0.122449 0.734694 0
0.122449 0.714286 0
0.122449 0.693878 0
0.122449 0.673469 0
0.122449 0.653061 0
0.122449 0.632653 0
0.122449 0.612245 0
0.122449 0.591837 0
0.122449 0.571429 0
0.122449 0.55102 0
0.122449 0.530612 0
0.122449 0.510204 0
0.122449 0.489796 0
0.122449 0.469388 0
0.122449 0.44898 0
0.122449 0.428571 0
0.122449 0.408163 0
0.122449 0.387755 0
0.122449 0.367347 0
0.122449 0.346939 0
0.122449 0.326531 0
0.122449 0.306122 0
0.122449 0.285714 0
0.122449 0.265306 0
0.122449 0.244898 0
0.122449 0.22449 0
0.122449 0.204082 0
0.122449 0.183673 0
0.122449 0.163265 0
0.122449 0.142857 0
0.122449 0.122449 0
0.122449 0.102041 0
0.122449 0.0816327 0
0.122449 0.0612245 0
0.122449 0.0408163 0
0.122449 0.0204082 0
0.142857 0.979592 0
0.142857 0.959184 0
0.142857 0.938776 0
0.142857 0.918367 0
0.142857 0.897959 0
0.142857 0.877551 0
0.142857 0.857143 0
0.142857 0.836735 0
0.142857 0.816327 0
0.142857 0.795918 0
0.142857 0.77551 0
0.142857 0.755102 0
0.142857 0.734694 0
0.142857 0.714286 0
0.142857 0.693878 0
0.142857 0.673469 0
0.142857 0.653061 0
0.142857 0.632653 0
0.142857 0.612245 0
0.142857 0.591837 0
0.142857 0.571429 0
0.142857 0.55102 0
0.142857 0.530612 0
0.142857 0.510204 0
0.142857 0.489796 0
0.142857 0.469388 0
0.142857 0.44898 0
0.142857 0.428571 0
0.142857 0.408163 0
0.142857 0.387755 0
0.142857 0.367347 0
0.142857 0.346939 0
0.142857 0.326531 0
0.142857 0.306122 0
0.142857 0.285714 0
0.142857 0.265306 0
0.142857 0.244898 0
0.142857 0.22449 0
0.142857 0.204082 0
0.142857 0.183673 0
0.142857 0.163265 0
0.142857 0.142857 0
0.142857 0.122449 0
0.142857 0.102041 0
0.142857 0.0816327 0
0.142857 0.0612245 0
0.142857 0.0408163 0
0.142857 0.0204082 0
0.163265 0.979592 0
0.163265 0.959184 0
0.163265 0.938776 0
0.163265 0.918367 0
0.163265 0.897959 0
0.163265 0.877551 0
0.163265 0.857143 0
0.163265 0.836735 0
0.163265 0.816327 0
0.163265 0.795918 0
0.163265 0.77551 0
0.163265 0.755102 0
0.163265 0.734694 0
0.163265 0.714286 0
0.163265 0.693878 0
0.163265 0.673469 0
0.163265 0.653061 0
0.163265 0.632653 0
0.163265 0.612245 0
0.163265 0.591837 0
0.163265 0.571429 0
0.163265 0.55102 0
[...]
CELL_DATA 2401
VECTORS velocity double
0.282726 0.0728829 0.0
0.0285125 0.153991 0.0
-0.013765 0.121912 0.0
-0.0172317 0.0925982 0.0
-0.0143123 0.0718698 0.0
-0.011235 0.0581118 0.0
-0.0089131 0.0489292 0.0
-0.00726167 0.042616 0.0
-0.00608249 0.0381127 0.0
-0.00522042 0.0347797 0.0
-0.00457189 0.0322266 0.0
-0.00407018 0.0302098 0.0
-0.00367215 0.0285724 0.0
-0.00334939 0.0272099 0.0
-0.0030827 0.0260507 0.0
-0.00285879 0.0250442 0.0
-0.00266825 0.0241533 0.0
-0.00250422 0.0233503 0.0
-0.00236162 0.0226135 0.0
-0.00223661 0.0219259 0.0
-0.00212623 0.021273 0.0
-0.00202816 0.0206427 0.0
-0.00194055 0.0200241 0.0
-0.00186189 0.0194069 0.0
-0.00179095 0.0187817 0.0
-0.00172667 0.018139 0.0
-0.00166816 0.0174695 0.0
-0.00161459 0.016764 0.0
-0.00156524 0.0160131 0.0
-0.00151936 0.0152079 0.0
-0.00147625 0.01434 0.0
-0.00143509 0.0134016 0.0
-0.00139501 0.0123866 0.0
-0.00135495 0.0112906 0.0
-0.00131362 0.0101124 0.0
-0.0012694 0.00885416 0.0
-0.00122027 0.00752321 0.0
-0.00116365 0.00613283 0.0
-0.00109638 0.00470365 0.0
-0.00101459 0.00326487 0.0
-0.000913761 0.00185524 0.0
-0.000788823 0.000523628 0.0
-0.000634458 -0.000671264 0.0
-0.00044557 -0.00166223 0.0
-0.000217844 -0.00237611 0.0
5.19973e-05 -0.00273696 0.0
0.000367238 -0.00266518 0.0
0.000734769 -0.00219712 0.0
0.000969414 -0.000628442 0.0
0.276651 0.0352201 0.0
0.00329185 0.0962889 0.0
-0.0442629 0.104595 0.0
-0.0437462 0.0979636 0.0
-0.0349485 0.0880146 0.0
-0.0269564 0.0791817 0.0
-0.0210803 0.0722675 0.0
-0.016962 0.0670234 0.0
-0.014072 0.0630327 0.0
-0.0120042 0.0599393 0.0
-0.010486 0.057481 0.0
-0.0093412 0.0554728 0.0
-0.00845571 0.0537855 0.0
-0.00775475 0.0523285 0.0
-0.00718823 0.0510375 0.0
-0.00672182 0.0498661 0.0
-0.00633154 0.0487805 0.0
-0.00600025 0.0477555 0.0
-0.00571553 0.0467722 0.0
-0.00546817 0.0458155 0.0
-0.0052513 0.0448738 0.0
-0.00505968 0.0439369 0.0
-0.00488927 0.042996 0.0
-0.0047369 0.0420428 0.0
-0.00460005 0.0410693 0.0
-0.00447664 0.040067 0.0
-0.00436491 0.0390274 0.0
-0.00426328 0.0379412 0.0
-0.00417028 0.0367986 0.0
-0.0040844 0.0355895 0.0
-0.00400403 0.0343034 0.0
-0.00392726 0.03293 0.0
-0.0038518 0.0314593 0.0
-0.00377474 0.0298825 0.0
-0.00369236 0.028192 0.0
-0.00359983 0.0263828 0.0
-0.00349095 0.0244529 0.0
-0.00335783 0.0224043 0.0
-0.0031906 0.0202439 0.0
-0.0029773 0.0179843 0.0
-0.00270385 0.015645 0.0
-0.00235452 0.0132536 0.0
-0.00191268 0.0108463 0.0
-0.00136213 0.00846996 0.0
-0.000688427 0.00618397 0.0
0.000120774 0.00406486 0.0
0.00107885 0.00221746 0.0
0.00221037 0.000584976 0.0
0.00276903 0.000389467 0.0
0.303947 0.0133824 0.0
0.0154272 0.0449785 0.0
-0.0478824 0.0636025 0.0
-0.0539136 0.0715002 0.0
-0.046534 0.0727753 0.0
-0.0378843 0.0712429 0.0
-0.0307755 0.0688899 0.0
-0.0254308 0.0665439 0.0
-0.0214944 0.0644795 0.0
-0.0185809 0.0627432 0.0
-0.0163917 0.0612997 0.0
-0.0147154 0.0600927 0.0
-0.0134067 0.0590669 0.0
-0.0123656 0.0581749 0.0
-0.0115228 0.0573786 0.0
-0.0108292 0.0566477 0.0
-0.01025 0.0559589 0.0
-0.00975966 0.0552938 0.0
-0.00933947 0.0546381 0.0
-0.00897542 0.0539808 0.0
-0.00865696 0.0533126 0.0
-0.00837602 0.0526261 0.0
-0.0081264 0.0519146 0.0
-0.00790328 0.0511718 0.0
-0.00770284 0.0503916 0.0
-0.00752204 0.0495674 0.0
-0.00735837 0.0486923 0.0
-0.0072097 0.0477585 0.0
-0.00707412 0.0467574 0.0
-0.00694978 0.0456797 0.0
-0.00683474 0.0445154 0.0
-0.0067268 0.0432535 0.0
-0.00662329 0.0418828 0.0
-0.00652083 0.0403917 0.0
-0.00641497 0.0387685 0.0
-0.00629988 0.0370019 0.0
-0.00616784 0.0350808 0.0
-0.00600872 0.032995 0.0
-0.00580949 0.0307354 0.0
-0.00555361 0.0282946 0.0
-0.00522068 0.0256673 0.0
-0.00478622 0.022852 0.0
-0.00422185 0.0198533 0.0
-0.00349572 0.016686 0.0
-0.00257313 0.0133813 0.0
-0.00141647 0.0099967 0.0
1.67034e-05 0.00663208 0.0
0.00177892 0.00322102 0.0
0.0029443 0.00126299 0.0
0.320749 0.00526493 0.0
0.0307054 0.0204551 0.0
-0.0395609 0.0353831 0.0
-0.0519057 0.0465436 0.0
-0.0484948 0.0529744 0.0
-0.0417736 0.0560152 0.0
-0.0353612 0.0571078 0.0
-0.0300951 0.0572267 0.0
-0.0259727 0.0569229 0.0
-0.0227856 0.0564767 0.0
-0.0203151 0.0560179 0.0
-0.0183823 0.0555984 0.0
-0.0168519 0.0552321 0.0
-0.015624 0.0549158 0.0
-0.0146258 0.0546393 0.0
-0.0138038 0.0543902 0.0
-0.0131184 0.0541562 0.0
-0.0125402 0.0539262 0.0
-0.012047 0.0536906 0.0
-0.011622 0.0534407 0.0
-0.0112522 0.0531693 0.0
-0.0109279 0.0528697 0.0
-0.0106413 0.0525358 0.0
-0.0103864 0.0521617 0.0
-0.0101587 0.0517415 0.0
-0.00995451 0.0512689 0.0
-0.00977084 0.050737 0.0
-0.00960535 0.0501384 0.0
-0.00945605 0.0494645 0.0
-0.00932112 0.0487061 0.0
-0.00919881 0.0478528 0.0
-0.0090872 0.0468932 0.0
-0.008984 0.045815 0.0
-0.00888628 0.0446046 0.0
-0.00879008 0.0432475 0.0
-0.00868999 0.0417279 0.0
-0.00857855 0.0400288 0.0
-0.00844552 0.0381315 0.0
-0.00827699 0.036016 0.0
-0.00805433 0.0336607 0.0
-0.00775306 0.031043 0.0
-0.0073416 0.0281414 0.0
-0.00678011 0.024938 0.0
-0.0060195 0.0214246 0.0
-0.00500071 0.0176111 0.0
-0.0036545 0.0135391 0.0
-0.0019023 0.00930205 0.0
0.000340248 0.00482529 0.0
0.00221614 0.00180466 0.0
0.326337 0.00181877 0.0
0.0410908 0.00875175 0.0
-0.0294569 0.0188123 0.0
-0.0451574 0.028754 0.0
-0.0453322 0.0363322 0.0
-0.0412372 0.0413496 0.0
-0.036434 0.0444104 0.0
-0.0320426 0.0461888 0.0
-0.028341 0.0471965 0.0
-0.025318 0.0477674 0.0
-0.0228763 0.0481029 0.0
-0.0209063 0.048318 0.0
-0.0193104 0.0484755 0.0
-0.0180088 0.0486076 0.0
-0.0169386 0.0487291 0.0
-0.0160508 0.0488449 0.0
-0.0153076 0.0489551 0.0
-0.0146798 0.0490566 0.0
-0.0141446 0.0491451 0.0
-0.0136845 0.049216 0.0
-0.0132857 0.049264 0.0
-0.0129376 0.049284 0.0
-0.0126316 0.0492707 0.0
-0.0123613 0.0492185 0.0
-0.0121215 0.0491215 0.0
-0.0119081 0.0489733 0.0
-0.0117182 0.048767 0.0
-0.0115493 0.0484946 0.0
-0.0113994 0.0481476 0.0
-0.0112671 0.0477163 0.0
-0.0111511 0.0471897 0.0
-0.01105 0.046556 0.0
-0.0109625 0.0458018 0.0
-0.0108867 0.0449123 0.0
-0.0108201 0.043871 0.0
-0.0107587 0.0426592 0.0
-0.0106968 0.0412559 0.0
-0.0106255 0.0396372 0.0
-0.0105319 0.0377756 0.0
-0.0103971 0.0356404 0.0
-0.0101944 0.0331975 0.0
-0.00988625 0.0304114 0.0
-0.0094217 0.0272487 0.0
-0.00873337 0.0236843 0.0
-0.00773507 0.0197118 0.0
-0.00632124 0.0153591 0.0
-0.00437023 0.0107124 0.0
-0.00175451 0.00568836 0.0
0.000909944 0.00210473 0.0
0.326667 0.000217583 0.0
0.0467495 0.00296512 0.0
-0.0213481 0.00945571 0.0
-0.0379775 0.0172359 0.0
-0.0403768 0.0241898 0.0
-0.0384622 0.0295716 0.0
-0.0353323 0.0334358 0.0
-0.0320811 0.0361131 0.0
-0.0291028 0.0379529 0.0
-0.0265154 0.0392345 0.0
-0.0243234 0.0401566 0.0
-0.0224879 0.0408519 0.0
-0.0209573 0.0414056 0.0
-0.0196806 0.041871 0.0
-0.0186126 0.0422803 0.0
-0.017715 0.0426523 0.0
-0.0169564 0.0429975 0.0
-0.0163112 0.0433207 0.0
-0.0157589 0.0436238 0.0
-0.015283 0.0439061 0.0
-0.0148703 0.0441657 0.0
-0.0145105 0.0443996 0.0
-0.0141951 0.044604 0.0
-0.0139177 0.0447744 0.0
-0.0136729 0.0449056 0.0
-0.0134569 0.0449917 0.0
-0.0132666 0.0450258 0.0
-0.0130997 0.0450002 0.0
-0.0129547 0.0449063 0.0
-0.0128305 0.0447343 0.0
-0.0127264 0.0444731 0.0
-0.0126421 0.0441105 0.0
-0.0125775 0.0436329 0.0
-0.0125321 0.0430246 0.0
-0.0125053 0.0422683 0.0
-0.0124955 0.0413438 0.0
-0.0124992 0.040228 0.0
-0.0125102 0.0388939 0.0
-0.0125176 0.0373102 0.0
-0.0125037 0.0354404 0.0
-0.0124405 0.0332436 0.0
-0.0122856 0.0306754 0.0
-0.0119775 0.0276919 0.0
-0.0114302 0.0242558 0.0
-0.0105291 0.0203483 0.0
-0.00912948 0.0159857 0.0
-0.00706144 0.0112459 0.0
-0.00414587 0.00603616 0.0
-0.000670863 0.00223407 0.0
0.324583 -0.000548969 0.0
0.0493476 3.5026e-05 0.0
-0.0155102 0.00418502 0.0
-0.0318389 0.0100147 0.0
-0.0353617 0.0158197 0.0
-0.0349356 0.0207924 0.0
-0.0331649 0.0247388 0.0
-0.0309859 0.0277524 0.0
-0.0287904 0.0300213 0.0
-0.0267485 0.0317352 0.0
-0.0249255 0.0330515 0.0
-0.0233342 0.0340896 0.0
-0.0219623 0.0349353 0.0
-0.020787 0.0356482 0.0
-0.0197824 0.0362689 0.0
-0.0189232 0.0368244 0.0
-0.0181868 0.0373323 0.0
-0.0175534 0.0378038 0.0
-0.0170065 0.0382454 0.0
-0.0165321 0.0386606 0.0
-0.0161187 0.0390508 0.0
-0.0157571 0.0394155 0.0
-0.0154396 0.0397528 0.0
-0.0151604 0.0400599 0.0
-0.0149145 0.0403328 0.0
-0.0146985 0.0405664 0.0
-0.0145096 0.0407549 0.0
-0.014346 0.040891 0.0
-0.0142066 0.0409666 0.0
-0.0140911 0.0409724 0.0
-0.0139995 0.0408977 0.0
-0.0139327 0.0407307 0.0
-0.0138919 0.0404577 0.0
-0.0138785 0.0400634 0.0
-0.0138939 0.0395305 0.0
-0.0139393 0.0388385 0.0
-0.0140141 0.0379639 0.0
-0.0141152 0.0368788 0.0
-0.0142346 0.0355503 0.0
-0.0143564 0.0339395 0.0
-0.0144523 0.032002 0.0
-0.014476 0.0296887 0.0
-0.014356 0.0269491 0.0
-0.0139882 0.0237381 0.0
-0.0132292 0.0200274 0.0
-0.0118938 0.0158233 0.0
-0.00976111 0.011195 0.0
-0.00659578 0.00604012 0.0
-0.00232664 0.00224699 0.0
0.32156 -0.000903725 0.0
0.0503515 -0.0014265 0.0
-0.0113772 0.00122299 0.0
-0.0269353 0.00552748 0.0
-0.0309185 0.0101778 0.0
-0.0314139 0.0144648 0.0
-0.0306274 0.0181219 0.0
-0.0293215 0.0211162 0.0
-0.0278336 0.0235201 0.0
-0.0263362 0.0254409 0.0
-0.0249189 0.0269853 0.0
-0.0236238 0.0282449 0.0
-0.0224655 0.0292927 0.0
-0.0214429 0.0301842 0.0
-0.0205467 0.0309602 0.0
-0.0197644 0.0316503 0.0
-0.0190821 0.0322757 0.0
-0.0184868 0.032851 0.0
-0.0179664 0.0333861 0.0
-0.0175103 0.0338875 0.0
-0.0171094 0.0343591 0.0
-0.0167563 0.0348026 0.0
-0.0164446 0.0352182 0.0
-0.0161692 0.0356046 0.0
-0.0159263 0.0359592 0.0
-0.0157128 0.0362783 0.0
-0.0155268 0.036557 0.0
-0.0153669 0.0367891 0.0
-0.0152329 0.0369674 0.0
-0.015125 0.0370833 0.0
-0.0150446 0.0371271 0.0
-0.0149934 0.0370876 0.0
-0.0149743 0.0369521 0.0
-0.0149907 0.0367062 0.0
-0.0150462 0.0363331 0.0
-0.0151448 0.0358135 0.0
-0.015289 0.0351245 0.0
-0.0154793 0.0342389 0.0
-0.0157108 0.0331242 0.0
-0.0159701 0.0317417 0.0
-0.0162291 0.0300461 0.0
-0.0164384 0.0279868 0.0
-0.0165175 0.02551 0.0
-0.0163448 0.0225659 0.0
-0.0157488 0.0191198 0.0
-0.0145038 0.0151697 0.0
-0.0123374 0.0107755 0.0
-0.00895627 0.0058266 0.0
-0.00393318 0.00218402 0.0
0.318268 -0.00104821 0.0
0.050525 -0.00211824 0.0
-0.00847201 -0.000432245 0.0
-0.0231101 0.00274245 0.0
-0.0271897 0.00640481 0.0
-0.0282157 0.00997343 0.0
-0.0280966 0.0131907 0.0
-0.0274479 0.0159711 0.0
-0.0265415 0.018319 0.0
-0.0255285 0.0202815 0.0
-0.0244999 0.0219205 0.0
-0.0235095 0.0232979 0.0
-0.0225863 0.0244685 0.0
-0.0217435 0.0254776 0.0
-0.0209841 0.0263614 0.0
-0.0203054 0.0271479 0.0
-0.0197018 0.0278582 0.0
-0.0191659 0.0285081 0.0
-0.0186904 0.0291089 0.0
-0.0182682 0.0296689 0.0
-0.0178929 0.0301935 0.0
-0.0175589 0.0306861 0.0
-0.0172615 0.0311483 0.0
-0.0169969 0.0315802 0.0
-0.0167621 0.0319805 0.0
-0.016555 0.0323466 0.0
-0.0163744 0.0326746 0.0
-0.0162198 0.0329596 0.0
-0.0160915 0.0331952 0.0
-0.015991 0.033374 0.0
-0.0159204 0.0334873 0.0
-0.015883 0.033525 0.0
-0.0158831 0.0334756 0.0
-0.0159258 0.0333258 0.0
-0.0160174 0.0330604 0.0
-0.0161645 0.0326616 0.0
-0.0163729 0.0321082 0.0
-0.0166464 0.0313747 0.0
-0.0169836 0.0304305 0.0
-0.0173738 0.0292386 0.0
-0.0177898 0.0277552 0.0
-0.0181795 0.02593 0.0
-0.0184542 0.0237092 0.0
-0.0184763 0.0210407 0.0
-0.0180472 0.0178855 0.0
-0.0169021 0.0142354 0.0
-0.0147177 0.0101412 0.0
-0.0111437 0.00548554 0.0
-0.00541976 0.00207448 0.0
0.314972 -0.0010833 0.0
0.0502341 -0.00240133 0.0
-0.00640804 -0.00133669 0.0
-0.0201367 0.00101902 0.0
-0.0241321 0.00388923 0.0
-0.0254397 0.00680796 0.0
-0.0257526 0.00955567 0.0
-0.0255745 0.0120353 0.0
-0.0251184 0.0142177 0.0
-0.0245075 0.016112 0.0
-0.0238225 0.0177469 0.0
-0.0231174 0.0191587 0.0
-0.0224269 0.0203841 0.0
-0.0217714 0.0214569 0.0
-0.0211617 0.0224056 0.0
-0.0206022 0.0232541 0.0
-0.020093 0.0240214 0.0
-0.0196321 0.0247223 0.0
-0.0192159 0.0253684 0.0
-0.0188407 0.0259681 0.0
-0.0185025 0.0265278 0.0
-0.0181977 0.0270516 0.0
-0.0179233 0.027542 0.0
-0.0176767 0.0280001 0.0
-0.0174561 0.0284254 0.0
-0.0172603 0.0288162 0.0
-0.0170889 0.0291697 0.0
-0.0169422 0.0294818 0.0
-0.0168217 0.0297472 0.0
-0.0167294 0.0299594 0.0
-0.0166687 0.0301107 0.0
-0.0166441 0.0301924 0.0
-0.0166613 0.0301941 0.0
-0.0167276 0.0301041 0.0
-0.0168512 0.0299089 0.0
-0.0170414 0.0295924 0.0
-0.0173073 0.0291357 0.0
-0.017656 0.0285158 0.0
-0.0180895 0.0277047 0.0
-0.0185996 0.0266682 0.0
-0.0191605 0.0253653 0.0
-0.0197181 0.023748 0.0
-0.0201764 0.021764 0.0
-0.0203828 0.0193611 0.0
-0.0201136 0.0164985 0.0
-0.0190667 0.0131628 0.0
-0.0168701 0.00939685 0.0
-0.0131187 0.00507849 0.0
-0.00675218 0.00193879 0.0
0.311835 -0.00105792 0.0
0.0497219 -0.00245562 0.0
-0.00489827 -0.00179603 0.0
-0.0177981 -3.85958e-05 0.0
-0.0216415 0.00221307 0.0
-0.0230833 0.00458372 0.0
-0.0236647 0.00689149 0.0
-0.0238114 0.0090484 0.0
-0.0236906 0.011013 0.0
-0.0233983 0.0127738 0.0
-0.0230014 0.0143375 0.0
-0.0225482 0.0157216 0.0
-0.0220728 0.0169476 0.0
-0.0215984 0.0180379 0.0
-0.0211394 0.0190134 0.0
-0.0207045 0.0198925 0.0
-0.0202979 0.020691 0.0
-0.0199212 0.0214216 0.0
-0.0195742 0.0220949 0.0
-0.0192555 0.0227189 0.0
-0.0189635 0.0232998 0.0
-0.0186964 0.023842 0.0
-0.0184526 0.0243483 0.0
-0.018231 0.0248203 0.0
-0.0180306 0.0252582 0.0
-0.0178513 0.0256608 0.0
-0.0176936 0.026026 0.0
-0.0175586 0.0263504 0.0
-0.0174485 0.0266295 0.0
-0.0173664 0.0268578 0.0
-0.0173168 0.0270286 0.0
-0.0173051 0.0271341 0.0
-0.0173388 0.0271653 0.0
-0.0174266 0.027112 0.0
-0.017579 0.0269622 0.0
-0.0178077 0.026702 0.0
-0.0181246 0.0263148 0.0
-0.0185401 0.0257802 0.0
-0.0190593 0.0250733 0.0
-0.0196769 0.0241633 0.0
-0.0203682 0.0230128 0.0
-0.0210775 0.0215771 0.0
-0.0217027 0.0198066 0.0
-0.0220775 0.017651 0.0
-0.0219547 0.0150687 0.0
-0.0209976 0.0120434 0.0
-0.0187884 0.00861039 0.0
-0.0148701 0.00464555 0.0
-0.00791999 0.00179061 0.0
0.308933 -0.000998608 0.0
0.0491125 -0.00237827 0.0
-0.00381293 -0.00198503 0.0
-0.0159603 -0.000669475 0.0
-0.0195932 0.00109797 0.0
-0.0210988 0.00302149 0.0
-0.0218437 0.00494416 0.0
-0.0222086 0.00679169 0.0
-0.0223301 0.00852302 0.0
-0.0222824 0.0101175 0.0
-0.0221184 0.0115693 0.0
-0.0218785 0.012883 0.0
-0.0215932 0.0140689 0.0
-0.0212849 0.0151398 0.0
-0.0209694 0.0161097 0.0
-0.0206572 0.0169918 0.0
-0.0203548 0.0177978 0.0
-0.0200663 0.0185384 0.0
-0.0197936 0.019222 0.0
-0.0195374 0.0198559 0.0
-0.0192979 0.0204455 0.0
-0.0190748 0.0209952 0.0
-0.0188679 0.0215076 0.0
-0.0186769 0.0219845 0.0
-0.0185021 0.0224262 0.0
-0.0183442 0.0228321 0.0
-0.0182045 0.0232003 0.0
-0.0180849 0.0235282 0.0
-0.0179885 0.0238118 0.0
-0.0179192 0.0240463 0.0
-0.0178824 0.0242258 0.0
-0.0178848 0.0243435 0.0
-0.017935 0.0243916 0.0
-0.0180434 0.0243612 0.0
-0.0182223 0.0242419 0.0
-0.0184857 0.0240217 0.0
-0.0188481 0.0236861 0.0
-0.0193227 0.0232175 0.0
-0.0199177 0.0225942 0.0
-0.0206303 0.0217888 0.0
-0.0214371 0.0207677 0.0
-0.0222812 0.0194904 0.0
-0.0230549 0.0179107 0.0
-0.0235796 0.0159811 0.0
-0.0235868 0.013661 0.0
-0.0227076 0.0109319 0.0
-0.020482 0.00782325 0.0
-0.0164044 0.00421129 0.0
-0.00892723 0.00163857 0.0
0.306304 -0.000921606 0.0
0.0484914 -0.00222848 0.0
-0.0030106 -0.00200794 0.0
-0.0145213 -0.0010183 0.0
-0.0179231 0.000367213 0.0
-0.0194269 0.00192566 0.0
-0.0202719 0.003523 0.0
-0.0207812 0.00509102 0.0
-0.0210742 0.00659477 0.0
-0.0212099 0.00801186 0.0
-0.0212293 0.00933053 0.0
-0.0211648 0.0105473 0.0
-0.021042 0.0116647 0.0
-0.020881 0.0126887 0.0
-0.0206967 0.0136272 0.0
-0.0205001 0.0144889 0.0
-0.0202988 0.015282 0.0
-0.0200979 0.0160143 0.0
-0.019901 0.0166927 0.0
-0.0197101 0.0173229 0.0
-0.0195266 0.0179096 0.0
-0.0193515 0.0184565 0.0
-0.0191855 0.018966 0.0
-0.0190294 0.0194397 0.0
-0.0188844 0.019878 0.0
-0.0187519 0.0202805 0.0
-0.0186339 0.0206456 0.0
-0.0185332 0.020971 0.0
-0.0184535 0.0212531 0.0
-0.0183996 0.0214877 0.0
-0.0183776 0.0216697 0.0
-0.0183955 0.0217931 0.0
-0.0184629 0.0218511 0.0
-0.0185916 0.0218358 0.0
-0.0187956 0.0217384 0.0
-0.0190908 0.0215484 0.0
-0.0194941 0.0212535 0.0
-0.0200213 0.0208385 0.0
-0.0206833 0.0202847 0.0
-0.0214795 0.019568 0.0
-0.0223879 0.0186588 0.0
-0.0233505 0.0175206 0.0
-0.0242545 0.0161114 0.0
-0.0249104 0.0143871 0.0
-0.0250302 0.012309 0.0
-0.0242159 0.00985792 0.0
-0.0219684 0.00705839 0.0
-0.0177377 0.00378944 0.0
-0.0097859 0.00148779 0.0
0.303957 -0.000836169 0.0
0.0479028 -0.00204035 0.0
-0.00240342 -0.00193013 0.0
-0.0133876 -0.00118064 0.0
-0.0165557 -9.50028e-05 0.0
-0.0180117 0.00116251 0.0
-0.0189214 0.00248712 0.0
-0.0195263 0.00381145 0.0
-0.0199391 0.00510421 0.0
-0.02021 0.00634617 0.0
-0.0203711 0.00752372 0.0
-0.0204477 0.00862926 0.0
-0.0204607 0.00966026 0.0
-0.0204267 0.0106179 0.0
-0.0203591 0.0115056 0.0
-0.020268 0.0123283 0.0
-0.0201612 0.0130912 0.0
-0.0200444 0.0137997 0.0
-0.0199216 0.0144588 0.0
-0.0197958 0.0150729 0.0
-0.0196694 0.0156456 0.0
-0.019544 0.01618 0.0
-0.0194212 0.016678 0.0
-0.0193027 0.017141 0.0
-0.0191903 0.0175693 0.0
-0.019086 0.0179625 0.0
-0.0189925 0.0183191 0.0
-0.0189134 0.018637 0.0
-0.0188529 0.0189132 0.0
-0.0188166 0.0191439 0.0
-0.0188115 0.0193244 0.0
-0.0188462 0.0194496 0.0
-0.0189316 0.0195133 0.0
-0.0190806 0.0195088 0.0
-0.0193088 0.0194283 0.0
-0.0196338 0.019263 0.0
-0.0200744 0.0190023 0.0
-0.0206488 0.0186332 0.0
-0.0213702 0.0181395 0.0
-0.0222401 0.0175004 0.0
-0.0232376 0.0166899 0.0
-0.0243038 0.0156756 0.0
-0.0253214 0.0144198 0.0
-0.0260907 0.0128821 0.0
-0.0263065 0.0110266 0.0
-0.0255439 0.00883454 0.0
-0.0232686 0.00632651 0.0
-0.0188901 0.00338655 0.0
-0.0105117 0.00134099 0.0
0.301888 -0.000747703 0.0
0.04737 -0.00183404 0.0
-0.00193175 -0.00179223 0.0
-0.0124848 -0.00121949 0.0
-0.0154564 -0.000367029 0.0
-0.016825 0.000641733 0.0
-0.0177492 0.00173339 0.0
-0.0184302 0.00284854 0.0
-0.0189286 0.00395233 0.0
-0.0192982 0.00502909 0.0
-0.0195673 0.00606627 0.0
-0.0197559 0.00705476 0.0
-0.0198802 0.00798929 0.0
-0.0199537 0.0088679 0.0
-0.0199874 0.009691 0.0
-0.0199904 0.0104606 0.0
-0.0199698 0.0111796 0.0
-0.0199311 0.0118512 0.0
-0.0198786 0.0124789 0.0
-0.0198158 0.0130658 0.0
-0.0197453 0.0136145 0.0
-0.0196696 0.0141273 0.0
-0.0195907 0.0146058 0.0
-0.0195108 0.0150509 0.0
-0.0194322 0.0154628 0.0
-0.0193578 0.0158409 0.0
-0.0192906 0.0161841 0.0
-0.0192348 0.0164902 0.0
-0.0191953 0.0167566 0.0
-0.0191783 0.0169798 0.0
-0.0191914 0.0171558 0.0
-0.0192441 0.0172799 0.0
-0.0193482 0.0173467 0.0
-0.0195177 0.0173504 0.0
-0.0197693 0.0172841 0.0
-0.0201224 0.0171404 0.0
-0.0205975 0.01691 0.0
-0.0212147 0.016582 0.0
-0.0219893 0.0161422 0.0
-0.0229245 0.015573 0.0
-0.0240003 0.0148514 0.0
-0.025157 0.0139492 0.0
-0.0262731 0.0128326 0.0
-0.0271399 0.0114656 0.0
-0.0274361 0.00981546 0.0
-0.0267129 0.00786456 0.0
-0.0244041 0.00563064 0.0
-0.0198828 0.00300461 0.0
-0.0111213 0.00119929 0.0
0.300084 -0.000659312 0.0
0.046903 -0.00162134 0.0
-0.00155703 -0.0016198 0.0
-0.0117573 -0.00117855 0.0
-0.0145661 -0.000506383 0.0
-0.0158526 0.0003006 0.0
-0.0167591 0.00119224 0.0
-0.0174793 0.00212479 0.0
-0.0180405 0.00306209 0.0
-0.0184823 0.00398692 0.0
-0.0188331 0.00488946 0.0
-0.0191094 0.00576072 0.0
-0.0193238 0.0065943 0.0
-0.0194867 0.00738646 0.0
-0.0196071 0.00813564 0.0
-0.0196923 0.00884189 0.0
-0.0197485 0.00950629 0.0
-0.0197808 0.0101306 0.0
-0.0197933 0.0107168 0.0
-0.0197895 0.0112668 0.0
-0.0197724 0.0117827 0.0
-0.0197446 0.0122658 0.0
-0.0197086 0.0127172 0.0
-0.019667 0.0131376 0.0
-0.0196225 0.0135269 0.0
-0.0195783 0.0138846 0.0
-0.0195382 0.0142094 0.0
-0.0195065 0.0144995 0.0
-0.0194889 0.0147524 0.0
-0.019492 0.014965 0.0
-0.0195242 0.0151337 0.0
-0.0195956 0.0152543 0.0
-0.0197187 0.0153222 0.0
-0.0199086 0.0153321 0.0
-0.0201832 0.0152783 0.0
-0.020563 0.015154 0.0
-0.0210702 0.0149516 0.0
-0.0217265 0.0146615 0.0
-0.0225491 0.0142717 0.0
-0.0235425 0.0137668 0.0
-0.0246876 0.013127 0.0
-0.0259234 0.0123276 0.0
-0.0271249 0.0113392 0.0
-0.0280747 0.0101297 0.0
-0.0284375 0.0086702 0.0
-0.0277425 0.00694479 0.0
-0.0253952 0.00496926 0.0
-0.0207361 0.00264293 0.0
-0.0116306 0.00106286 0.0
0.298529 -0.000572684 0.0
0.0465032 -0.00140893 0.0
-0.00125529 -0.00142835 0.0
-0.0111682 -0.00108602 0.0
-0.0138439 -0.000554686 0.0
-0.0150575 8.99574e-05 0.0