# vtk DataFile Version 3.0
Malha 2D com triângulos e temperatura
ASCII
DATASET UNSTRUCTURED_GRID

POINTS 3600 double
0 0 0
0.01 0 0
0.01 0.01 0
0 0.01 0
0.000169492 0 0
0.000338983 0 0
0.000508475 0 0
0.000677966 0 0
0.000847458 0 0
0.00101695 0 0
0.00118644 0 0
0.00135593 0 0
0.00152542 0 0
0.00169492 0 0
0.00186441 0 0
0.0020339 0 0
0.00220339 0 0
0.00237288 0 0
0.00254237 0 0
0.00271186 0 0
0.00288136 0 0
0.00305085 0 0
0.00322034 0 0
0.00338983 0 0
0.00355932 0 0
0.00372881 0 0
0.00389831 0 0
0.0040678 0 0
0.00423729 0 0
0.00440678 0 0
0.00457627 0 0
0.00474576 0 0
0.00491525 0 0
0.00508475 0 0
0.00525424 0 0
0.00542373 0 0
0.00559322 0 0
0.00576271 0 0
0.0059322 0 0
0.00610169 0 0
0.00627119 0 0
0.00644068 0 0
0.00661017 0 0
0.00677966 0 0
0.00694915 0 0
0.00711864 0 0
0.00728814 0 0
0.00745763 0 0
0.00762712 0 0
0.00779661 0 0
0.0079661 0 0
0.00813559 0 0
0.00830508 0 0
0.00847458 0 0
0.00864407 0 0
0.00881356 0 0
0.00898305 0 0
0.00915254 0 0
0.00932203 0 0
0.00949153 0 0
0.00966102 0 0
0.00983051 0 0
0.01 0.000169492 0
0.01 0.000338983 0
0.01 0.000508475 0
0.01 0.000677966 0
0.01 0.000847458 0
0.01 0.00101695 0
0.01 0.00118644 0
0.01 0.00135593 0
0.01 0.00152542 0
0.01 0.00169492 0
0.01 0.00186441 0
0.01 0.0020339 0
0.01 0.00220339 0
0.01 0.00237288 0
0.01 0.00254237 0
0.01 0.00271186 0
0.01 0.00288136 0
0.01 0.00305085 0
0.01 0.00322034 0
0.01 0.00338983 0
0.01 0.00355932 0
0.01 0.00372881 0
0.01 0.00389831 0
0.01 0.0040678 0
0.01 0.00423729 0
0.01 0.00440678 0
0.01 0.00457627 0
0.01 0.00474576 0
0.01 0.00491525 0
0.01 0.00508475 0
0.01 0.00525424 0
0.01 0.00542373 0
0.01 0.00559322 0
0.01 0.00576271 0
0.01 0.0059322 0
0.01 0.00610169 0
0.01 0.00627119 0
0.01 0.00644068 0
0.01 0.00661017 0
0.01 0.00677966 0
0.01 0.00694915 0
0.01 0.00711864 0
0.01 0.00728814 0
0.01 0.00745763 0
0.01 0.00762712 0
0.01 0.00779661 0
0.01 0.0079661 0
0.01 0.00813559 0
0.01 0.00830508 0
0.01 0.00847458 0
0.01 0.00864407 0
0.01 0.00881356 0
0.01 0.00898305 0
0.01 0.00915254 0
0.01 0.00932203 0
0.01 0.00949153 0
0.01 0.00966102 0
0.01 0.00983051 0
0.00983051 0.01 0
0.00966102 0.01 0
0.00949153 0.01 0
0.00932203 0.01 0
0.00915254 0.01 0
0.00898305 0.01 0
0.00881356 0.01 0
0.00864407 0.01 0
0.00847458 0.01 0
0.00830508 0.01 0
0.00813559 0.01 0
0.0079661 0.01 0
0.00779661 0.01 0
0.00762712 0.01 0
0.00745763 0.01 0
0.00728814 0.01 0
0.00711864 0.01 0
0.00694915 0.01 0
0.00677966 0.01 0
0.00661017 0.01 0
0.00644068 0.01 0
0.00627119 0.01 0
0.00610169 0.01 0
0.0059322 0.01 0
0.00576271 0.01 0
0.00559322 0.01 0
0.00542373 0.01 0
0.00525424 0.01 0
0.00508475 0.01 0
0.00491525 0.01 0
0.00474576 0.01 0
0.00457627 0.01 0
0.00440678 0.01 0
0.00423729 0.01 0
0.0040678 0.01 0
0.00389831 0.01 0
0.00372881 0.01 0
0.00355932 0.01 0
0.00338983 0.01 0
0.00322034 0.01 0
0.00305085 0.01 0
0.00288136 0.01 0
0.00271186 0.01 0
0.00254237 0.01 0
0.00237288 0.01 0
0.00220339 0.01 0
0.0020339 0.01 0
0.00186441 0.01 0
0.00169492 0.01 0
0.00152542 0.01 0
0.00135593 0.01 0
0.00118644 0.01 0
0.00101695 0.01 0
0.000847458 0.01 0
0.000677966 0.01 0
0.000508475 0.01 0
0.000338983 0.01 0
0.000169492 0.01 0
0 0.00983051 0
0 0.00966102 0
0 0.00949153 0
0 0.00932203 0
0 0.00915254 0
0 0.00898305 0
0 0.00881356 0
0 0.00864407 0
0 0.00847458 0
0 0.00830508 0
0 0.00813559 0
0 0.0079661 0
0 0.00779661 0
0 0.00762712 0
0 0.00745763 0
0 0.00728814 0
0 0.00711864 0
0 0.00694915 0
0 0.00677966 0
0 0.00661017 0
0 0.00644068 0
0 0.00627119 0
0 0.00610169 0
0 0.0059322 0
0 0.00576271 0
0 0.00559322 0
0 0.00542373 0
0 0.00525424 0
0 0.00508475 0
0 0.00491525 0
0 0.00474576 0
0 0.00457627 0
0 0.00440678 0
0 0.00423729 0
0 0.0040678 0
0 0.00389831 0
0 0.00372881 0
0 0.00355932 0
0 0.00338983 0
0 0.00322034 0
0 0.00305085 0
0 0.00288136 0
0 0.00271186 0
0 0.00254237 0
0 0.00237288 0
0 0.00220339 0
0 0.0020339 0
0 0.00186441 0
0 0.00169492 0
0 0.00152542 0
0 0.00135593 0
0 0.00118644 0
0 0.00101695 0
0 0.000847458 0
0 0.000677966 0
0 0.000508475 0
0 0.000338983 0
0 0.000169492 0
0.000169492 0.00983051 0
0.000169492 0.00966102 0
0.000169492 0.00949153 0
0.000169492 0.00932203 0
0.000169492 0.00915254 0
0.000169492 0.00898305 0
0.000169492 0.00881356 0
0.000169492 0.00864407 0
0.000169492 0.00847458 0
0.000169492 0.00830508 0
0.000169492 0.00813559 0
0.000169492 0.0079661 0
0.000169492 0.00779661 0
0.000169492 0.00762712 0
0.000169492 0.00745763 0
0.000169492 0.00728814 0
0.000169492 0.00711864 0
0.000169492 0.00694915 0
0.000169492 0.00677966 0
0.000169492 0.00661017 0
0.000169492 0.00644068 0
0.000169492 0.00627119 0
0.000169492 0.00610169 0
0.000169492 0.0059322 0
0.000169492 0.00576271 0
0.000169492 0.00559322 0
0.000169492 0.00542373 0
0.000169492 0.00525424 0
0.000169492 0.00508475 0
0.000169492 0.00491525 0
0.000169492 0.00474576 0
0.000169492 0.00457627 0
0.000169492 0.00440678 0
0.000169492 0.00423729 0
0.000169492 0.0040678 0
0.000169492 0.00389831 0
0.000169492 0.00372881 0
0.000169492 0.00355932 0
0.000169492 0.00338983 0
0.000169492 0.00322034 0
0.000169492 0.00305085 0
0.000169492 0.00288136 0
0.000169492 0.00271186 0
0.000169492 0.00254237 0
0.000169492 0.00237288 0
0.000169492 0.00220339 0
0.000169492 0.0020339 0
0.000169492 0.00186441 0
0.000169492 0.00169492 0
0.000169492 0.00152542 0
0.000169492 0.00135593 0
0.000169492 0.00118644 0
0.000169492 0.00101695 0
0.000169492 0.000847458 0
0.000169492 0.000677966 0
0.000169492 0.000508475 0
0.000169492 0.000338983 0
0.000169492 0.000169492 0
0.000338983 0.00983051 0
0.000338983 0.00966102 0
0.000338983 0.00949153 0
0.000338983 0.00932203 0
0.000338983 0.00915254 0
0.000338983 0.00898305 0
0.000338983 0.00881356 0
0.000338983 0.00864407 0
0.000338983 0.00847458 0
0.000338983 0.00830508 0
0.000338983 0.00813559 0
0.000338983 0.0079661 0
0.000338983 0.00779661 0
0.000338983 0.00762712 0
0.000338983 0.00745763 0
0.000338983 0.00728814 0
0.000338983 0.00711864 0
0.000338983 0.00694915 0
0.000338983 0.00677966 0
0.000338983 0.00661017 0
0.000338983 0.00644068 0
0.000338983 0.00627119 0
0.000338983 0.00610169 0
0.000338983 0.0059322 0
0.000338983 0.00576271 0
0.000338983 0.00559322 0
0.000338983 0.00542373 0
0.000338983 0.00525424 0
0.000338983 0.00508475 0
0.000338983 0.00491525 0
0.000338983 0.00474576 0
0.000338983 0.00457627 0
0.000338983 0.00440678 0
0.000338983 0.00423729 0
0.000338983 0.0040678 0
0.000338983 0.00389831 0
0.000338983 0.00372881 0
0.000338983 0.00355932 0
0.000338983 0.00338983 0
0.000338983 0.00322034 0
0.000338983 0.00305085 0
0.000338983 0.00288136 0
0.000338983 0.00271186 0
0.000338983 0.00254237 0
0.000338983 0.00237288 0
0.000338983 0.00220339 0
0.000338983 0.0020339 0
0.000338983 0.00186441 0
0.000338983 0.00169492 0
0.000338983 0.00152542 0
0.000338983 0.00135593 0
0.000338983 0.00118644 0
0.000338983 0.00101695 0
0.000338983 0.000847458 0
0.000338983 0.000677966 0
0.000338983 0.000508475 0
0.000338983 0.000338983 0
0.000338983 0.000169492 0
0.000508475 0.00983051 0
0.000508475 0.00966102 0
0.000508475 0.00949153 0
0.000508475 0.00932203 0
0.000508475 0.00915254 0
0.000508475 0.00898305 0
0.000508475 0.00881356 0
0.000508475 0.00864407 0
0.000508475 0.00847458 0
0.000508475 0.00830508 0
0.000508475 0.00813559 0
0.000508475 0.0079661 0
0.000508475 0.00779661 0
0.000508475 0.00762712 0
0.000508475 0.00745763 0
0.000508475 0.00728814 0
0.000508475 0.00711864 0
0.000508475 0.00694915 0
0.000508475 0.00677966 0
0.000508475 0.00661017 0
0.000508475 0.00644068 0
0.000508475 0.00627119 0
0.000508475 0.00610169 0
0.000508475 0.0059322 0
0.000508475 0.00576271 0
0.000508475 0.00559322 0
0.000508475 0.00542373 0
0.000508475 0.00525424 0
0.000508475 0.00508475 0
0.000508475 0.00491525 0
0.000508475 0.00474576 0
0.000508475 0.00457627 0
0.000508475 0.00440678 0
0.000508475 0.00423729 0
0.000508475 0.0040678 0
0.000508475 0.00389831 0
0.000508475 0.00372881 0
0.000508475 0.00355932 0
0.000508475 0.00338983 0
0.000508475 0.00322034 0
0.000508475 0.00305085 0
0.000508475 0.00288136 0
0.000508475 0.00271186 0
0.000508475 0.00254237 0
0.000508475 0.00237288 0
0.000508475 0.00220339 0
0.000508475 0.0020339 0
0.000508475 0.00186441 0
0.000508475 0.00169492 0
0.000508475 0.00152542 0
0.000508475 0.00135593 0
0.000508475 0.00118644 0
0.000508475 0.00101695 0
0.000508475 0.000847458 0
0.000508475 0.000677966 0
0.000508475 0.000508475 0
0.000508475 0.000338983 0
0.000508475 0.000169492 0
0.000677966 0.00983051 0
0.000677966 0.00966102 0
0.000677966 0.00949153 0
0.000677966 0.00932203 0
0.000677966 0.00915254 0
0.000677966 0.00898305 0
0.000677966 0.00881356 0
0.000677966 0.00864407 0
0.000677966 0.00847458 0
0.000677966 0.00830508 0
0.000677966 0.00813559 0
0.000677966 0.0079661 0
0.000677966 0.00779661 0
0.000677966 0.00762712 0
0.000677966 0.00745763 0
0.000677966 0.00728814 0
0.000677966 0.00711864 0
0.000677966 0.00694915 0
0.000677966 0.00677966 0
0.000677966 0.00661017 0
0.000677966 0.00644068 0
0.000677966 0.00627119 0
0.000677966 0.00610169 0
0.000677966 0.0059322 0
0.000677966 0.00576271 0
0.000677966 0.00559322 0
0.000677966 0.00542373 0
0.000677966 0.00525424 0
0.000677966 0.00508475 0
0.000677966 0.00491525 0
0.000677966 0.00474576 0
0.000677966 0.00457627 0
0.000677966 0.00440678 0
0.000677966 0.00423729 0
0.000677966 0.0040678 0
0.000677966 0.00389831 0
0.000677966 0.00372881 0
0.000677966 0.00355932 0
0.000677966 0.00338983 0
0.000677966 0.00322034 0
0.000677966 0.00305085 0
0.000677966 0.00288136 0
0.000677966 0.00271186 0
0.000677966 0.00254237 0
0.000677966 0.00237288 0
0.000677966 0.00220339 0
0.000677966 0.0020339 0
0.000677966 0.00186441 0
0.000677966 0.00169492 0
0.000677966 0.00152542 0
0.000677966 0.00135593 0
0.000677966 0.00118644 0
0.000677966 0.00101695 0
0.000677966 0.000847458 0
0.000677966 0.000677966 0
0.000677966 0.000508475 0
0.000677966 0.000338983 0
0.000677966 0.000169492 0
0.000847458 0.00983051 0
0.000847458 0.00966102 0
0.000847458 0.00949153 0
0.000847458 0.00932203 0
0.000847458 0.00915254 0
0.000847458 0.00898305 0
0.000847458 0.00881356 0
0.000847458 0.00864407 0
[...]
CELL_DATA 3481
VECTORS velocity double
0.00278848 0.00102933 0.0
8.1248e-05 0.00208499 0.0
-0.000250698 0.00163724 0.0
-0.000202352 0.00115319 0.0
-0.000127715 0.000831621 0.0
-7.57943e-05 0.000629025 0.0
-4.44562e-05 0.00050106 0.0
-2.62886e-05 0.000419369 0.0
-1.58791e-05 0.000367058 0.0
-1.00381e-05 0.000334108 0.0
-7.05518e-06 0.000314283 0.0
-6.07725e-06 0.000303292 0.0
-6.68855e-06 0.000297771 0.0
-8.60204e-06 0.000294714 0.0
-1.1494e-05 0.000291813 0.0
-1.49576e-05 0.000287553 0.0
-1.87332e-05 0.000280625 0.0
-2.25346e-05 0.000270262 0.0
-2.61864e-05 0.000256311 0.0
-2.96443e-05 0.000239035 0.0
-3.29035e-05 0.000218776 0.0
-3.59572e-05 0.000195945 0.0
-3.88874e-05 0.000171287 0.0
-4.17795e-05 0.000145727 0.0
-4.4597e-05 0.000120373 0.0
-4.71935e-05 9.65444e-05 0.0
-4.9363e-05 7.56275e-05 0.0
-5.0892e-05 5.89018e-05 0.0
-5.16076e-05 4.73555e-05 0.0
-5.14195e-05 4.15214e-05 0.0
-5.03438e-05 4.1361e-05 0.0
-4.84995e-05 4.62223e-05 0.0
-4.60766e-05 5.48928e-05 0.0
-4.32857e-05 6.57419e-05 0.0
-4.03087e-05 7.69235e-05 0.0
-3.72692e-05 8.6597e-05 0.0
-3.42263e-05 9.31223e-05 0.0
-3.11724e-05 9.52014e-05 0.0
-2.80208e-05 9.19901e-05 0.0
-2.46007e-05 8.3203e-05 0.0
-2.06945e-05 6.91825e-05 0.0
-1.6131e-05 5.08537e-05 0.0
-1.08639e-05 2.95726e-05 0.0
-5.02112e-06 6.9718e-06 0.0
8.88456e-07 -1.53898e-05 0.0
5.92389e-06 -3.66392e-05 0.0
9.40166e-06 -5.6576e-05 0.0
1.12458e-05 -7.52264e-05 0.0
1.16096e-05 -9.25998e-05 0.0
1.07084e-05 -0.000108484 0.0
8.73277e-06 -0.000122413 0.0
5.87329e-06 -0.000133776 0.0
2.44119e-06 -0.0001419 0.0
-9.85614e-07 -0.000145936 0.0
-3.44171e-06 -0.000144667 0.0
-3.40771e-06 -0.000136601 0.0
1.28626e-06 -0.000118475 0.0
1.41492e-05 -9.2736e-05 0.0
3.34958e-05 -2.06634e-05 0.0
0.00308725 0.000636303 0.0
-0.000105642 0.00173354 0.0
-0.000603331 0.00177023 0.0
-0.00050478 0.00152753 0.0
-0.000346438 0.00126238 0.0
-0.000225809 0.00103794 0.0
-0.000145853 0.000861806 0.0
-9.49611e-05 0.000725846 0.0
-6.29713e-05 0.000620004 0.0
-4.31828e-05 0.000536131 0.0
-3.16495e-05 0.000468428 0.0
-2.62259e-05 0.000413011 0.0
-2.57978e-05 0.000367421 0.0
-2.96272e-05 0.000330268 0.0
-3.67751e-05 0.000301177 0.0
-4.57689e-05 0.000280372 0.0
-5.56774e-05 0.000267981 0.0
-6.56307e-05 0.000262866 0.0
-7.50089e-05 0.000263507 0.0
-8.35282e-05 0.000267962 0.0
-9.11235e-05 0.000273995 0.0
-9.77981e-05 0.000279272 0.0
-0.000103587 0.000281687 0.0
-0.000108483 0.000279753 0.0
-0.000112316 0.000272868 0.0
-0.000114741 0.000261389 0.0
-0.000115367 0.000246505 0.0
-0.000113916 0.00022995 0.0
-0.000110363 0.000213675 0.0
-0.000105003 0.000199491 0.0
-9.84429e-05 0.000188738 0.0
-9.14936e-05 0.000182018 0.0
-8.49962e-05 0.00017907 0.0
-7.96487e-05 0.000178826 0.0
-7.58803e-05 0.000179646 0.0
-7.3808e-05 0.000179652 0.0
-7.32696e-05 0.000177092 0.0
-7.38476e-05 0.000170604 0.0
-7.48302e-05 0.00015941 0.0
-7.51924e-05 0.000143448 0.0
-7.37441e-05 0.00012343 0.0
-6.95068e-05 0.000100705 0.0
-6.19498e-05 7.70269e-05 0.0
-5.10325e-05 5.46317e-05 0.0
-3.80632e-05 3.61033e-05 0.0
-2.59003e-05 2.37229e-05 0.0
-1.65658e-05 1.96816e-05 0.0
-1.01029e-05 2.51597e-05 0.0
-5.75014e-06 3.95987e-05 0.0
-2.86807e-06 6.10577e-05 0.0
-1.22971e-06 8.67849e-05 0.0
-9.07897e-07 0.000113506 0.0
-1.8532e-06 0.000137494 0.0
-3.36105e-06 0.00015466 0.0
-3.50264e-06 0.000160591 0.0
1.52207e-06 0.000150563 0.0
1.79283e-05 0.000121294 0.0
5.52766e-05 6.30654e-05 0.0
9.58698e-05 4.33294e-05 0.0
0.00385145 0.000251859 0.0
0.000425533 0.000975962 0.0
-0.000542227 0.00128317 0.0
-0.000621751 0.00128781 0.0
-0.000498733 0.00117743 0.0
-0.000366489 0.00103535 0.0
-0.000264026 0.000897608 0.0
-0.000191637 0.000775193 0.0
-0.000142322 0.000668851 0.0
-0.000109531 0.000576396 0.0
-8.85834e-05 0.000495497 0.0
-7.6486e-05 0.000424549 0.0
-7.14045e-05 0.000362878 0.0
-7.20768e-05 0.000310721 0.0
-7.71217e-05 0.00026952 0.0
-8.43296e-05 0.000241476 0.0
-9.2819e-05 0.00022773 0.0
-0.000102062 0.00022695 0.0
-0.000111658 0.000236918 0.0
-0.000121476 0.000254737 0.0
-0.000131547 0.000277078 0.0
-0.000141915 0.000300477 0.0
-0.000152508 0.000321633 0.0
-0.000162995 0.000337709 0.0
-0.000172665 0.000346666 0.0
-0.000180432 0.000347561 0.0
-0.000185073 0.000340669 0.0
-0.000185619 0.000327353 0.0
-0.000181706 0.00030978 0.0
-0.000173781 0.000290493 0.0
-0.000163073 0.0002719 0.0
-0.000151323 0.000255763 0.0
-0.000140369 0.00024285 0.0
-0.000131749 0.000232856 0.0
-0.000126413 0.000224599 0.0
-0.00012464 0.000216431 0.0
-0.000126113 0.000206715 0.0
-0.000129991 0.000194188 0.0
-0.000134836 0.000178222 0.0
-0.000138558 0.00015903 0.0
-0.000138712 0.000137766 0.0
-0.00013343 0.000116113 0.0
-0.0001217 9.57117e-05 0.0
-0.000103081 7.86195e-05 0.0
-7.92982e-05 6.7399e-05 0.0
-5.5042e-05 6.48088e-05 0.0
-3.45789e-05 7.36013e-05 0.0
-1.89034e-05 9.48072e-05 0.0
-7.23079e-06 0.000126701 0.0
1.37153e-06 0.000165733 0.0
7.24471e-06 0.000207818 0.0
1.0099e-05 0.000248937 0.0
9.40877e-06 0.000285091 0.0
5.1211e-06 0.000311852 0.0
-1.29239e-06 0.000323585 0.0
-5.23601e-06 0.000312355 0.0
2.96111e-06 0.000268025 0.0
3.88959e-05 0.000167224 0.0
8.74074e-05 8.31589e-05 0.0
0.00430578 8.92093e-05 0.0
0.000988347 0.000477575 0.0
-0.000277349 0.000840757 0.0
-0.000576736 0.000964525 0.0
-0.000546356 0.000961413 0.0
-0.000443063 0.000896366 0.0
-0.000343808 0.000809505 0.0
-0.000265703 0.000719693 0.0
-0.000208588 0.000633867 0.0
-0.00016844 0.000554019 0.0
-0.000141289 0.000480545 0.0
-0.000124136 0.000413636 0.0
-0.000114923 0.00035383 0.0
-0.000112145 0.000302245 0.0
-0.000114208 0.000261121 0.0
-0.000118511 0.000233628 0.0
-0.000124403 0.000221331 0.0
-0.000131858 0.000222752 0.0
-0.000140679 0.000235565 0.0
-0.000150788 0.000256974 0.0
-0.000162201 0.000283828 0.0
-0.000174901 0.000312804 0.0
-0.000188684 0.000340531 0.0
-0.000202956 0.000363754 0.0
-0.000216554 0.000379647 0.0
-0.000227734 0.000386296 0.0
-0.000234497 0.000383122 0.0
-0.000235227 0.000371013 0.0
-0.000229338 0.000352124 0.0
-0.000217633 0.00032942 0.0
-0.000202205 0.00030599 0.0
-0.000185928 0.000284318 0.0
-0.000171739 0.000265757 0.0
-0.000161992 0.000250353 0.0
-0.000158053 0.000237054 0.0
-0.000160221 0.000224198 0.0
-0.000167901 0.000210105 0.0
-0.000179694 0.000193522 0.0
-0.000193196 0.000173949 0.0
-0.000204835 0.000151977 0.0
-0.000210408 0.000129539 0.0
-0.000207112 0.000108541 0.0
-0.000194311 9.02005e-05 0.0
-0.00017112 7.62062e-05 0.0
-0.00013869 6.91916e-05 0.0
-0.000102937 7.21874e-05 0.0
-7.09578e-05 8.75458e-05 0.0
-4.52602e-05 0.00011531 0.0
-2.5096e-05 0.000152431 0.0
-8.97422e-06 0.00019417 0.0
4.02128e-06 0.000236229 0.0
1.36501e-05 0.000275368 0.0
1.87851e-05 0.000309185 0.0
1.81919e-05 0.000335213 0.0
1.18824e-05 0.000349467 0.0
3.10518e-06 0.000344651 0.0
8.95575e-07 0.000308735 0.0
2.17319e-05 0.000206119 0.0
5.8969e-05 0.000101515 0.0
0.00450475 2.85574e-05 0.0
0.00137098 0.000222093 0.0
2.40466e-05 0.000528445 0.0
-0.000447794 0.000692569 0.0
-0.000518459 0.000747479 0.0
-0.00046147 0.000735094 0.0
-0.000380661 0.000689595 0.0
-0.000308313 0.000630922 0.0
-0.000251566 0.000568478 0.0
-0.000209716 0.00050642 0.0
-0.000180216 0.000446744 0.0
-0.00016062 0.000390721 0.0
-0.000149039 0.000339579 0.0
-0.000144023 0.000294862 0.0
-0.00014403 0.000259123 0.0
-0.000146404 0.000235931 0.0
-0.000150657 0.000227039 0.0
-0.000157172 0.000230861 0.0
-0.000165816 0.000245196 0.0
-0.000176453 0.000267671 0.0
-0.000189017 0.000295638 0.0
-0.000203438 0.000326209 0.0
-0.000219437 0.000356237 0.0
-0.000236251 0.000382364 0.0
-0.00025237 0.000401303 0.0
-0.000265503 0.000410419 0.0
-0.000272988 0.000408424 0.0
-0.000272663 0.000395793 0.0
-0.000263827 0.000374693 0.0
-0.000247772 0.00034846 0.0
-0.000227588 0.00032073 0.0
-0.000207355 0.000294496 0.0
-0.000191098 0.000271418 0.0
-0.000181909 0.000251611 0.0
-0.00018144 0.000233917 0.0
-0.000189892 0.000216536 0.0
-0.000206317 0.000197725 0.0
-0.000228649 0.000176307 0.0
-0.00025324 0.000152069 0.0
-0.00027443 0.000126322 0.0
-0.000285396 0.000102137 0.0
-0.000284046 8.11295e-05 0.0
-0.000270572 6.37765e-05 0.0
-0.000243482 5.1748e-05 0.0
-0.000202847 4.82627e-05 0.0
-0.000155943 5.63323e-05 0.0
-0.000113002 7.72315e-05 0.0
-7.77947e-05 0.000110192 0.0
-4.94807e-05 0.000151359 0.0
-2.59062e-05 0.000194287 0.0
-5.45036e-06 0.000234387 0.0
1.20662e-05 0.000269086 0.0
2.52549e-05 0.000297377 0.0
3.19824e-05 0.000318813 0.0
3.08024e-05 0.000331652 0.0
2.27691e-05 0.000330441 0.0
1.33873e-05 0.000304011 0.0
1.38022e-05 0.000212169 0.0
2.62978e-05 0.000108656 0.0
0.00459848 6.20477e-06 0.0
0.00161198 9.94074e-05 0.0
0.000290535 0.000319379 0.0
-0.000287974 0.000487113 0.0
-0.000447023 0.000569276 0.0
-0.000440055 0.000589764 0.0
-0.000384618 0.000574064 0.0
-0.000324493 0.000540218 0.0
-0.000273309 0.000498114 0.0
-0.000233702 0.000452844 0.0
-0.00020479 0.000407222 0.0
-0.00018494 0.00036311 0.0
-0.000172674 0.000322115 0.0
-0.00016679 0.000286 0.0
-0.000166014 0.000257446 0.0
-0.000167934 0.000240191 0.0
-0.00017205 0.000236082 0.0
-0.000178942 0.000243439 0.0
-0.000188374 0.00026021 0.0
-0.000200068 0.000284451 0.0
-0.000213877 0.000313971 0.0
-0.000229726 0.00034624 0.0
-0.000247341 0.000378267 0.0
-0.000265859 0.000406594 0.0
-0.000283467 0.000427565 0.0
-0.000297381 0.000437949 0.0
-0.000304373 0.000435836 0.0
-0.000301877 0.000421334 0.0
-0.000289232 0.000396683 0.0
-0.000268367 0.000365662 0.0
-0.000243494 0.000332489 0.0
-0.000219955 0.000300623 0.0
-0.000202839 0.0002719 0.0
-0.000195858 0.00024632 0.0
-0.000200769 0.000222489 0.0
-0.000217526 0.000198489 0.0
-0.000244722 0.000172684 0.0
-0.000279434 0.000144227 0.0
-0.000316303 0.000113545 0.0
-0.000346792 8.32668e-05 0.0
-0.000361061 5.74109e-05 0.0
-0.000360419 3.64773e-05 0.0
-0.000345206 2.02101e-05 0.0
-0.000313038 1.09085e-05 0.0
-0.000263699 1.23925e-05 0.0
-0.000206671 2.67499e-05 0.0
-0.000154578 5.39631e-05 0.0
-0.000111524 9.30647e-05 0.0
-7.6442e-05 0.000139971 0.0
-4.66071e-05 0.00018681 0.0
-1.96666e-05 0.0002277 0.0
5.25632e-06 0.000260351 0.0
2.69355e-05 0.000284498 0.0
4.27219e-05 0.000301056 0.0
4.99235e-05 0.000310124 0.0
4.72065e-05 0.000308258 0.0
3.54e-05 0.000285996 0.0
1.69226e-05 0.000203031 0.0
-1.79462e-06 0.000109388 0.0
0.00464711 -2.4196e-06 0.0
0.00176416 3.97598e-05 0.0
0.000501126 0.000185183 0.0
-0.000123964 0.000338225 0.0
-0.000352574 0.000429954 0.0
-0.000393295 0.000469774 0.0
-0.000365661 0.000474516 0.0
-0.000321074 0.00045918 0.0
-0.000278512 0.000433177 0.0
-0.000243679 0.000401859 0.0
-0.000217369 0.000368422 0.0
-0.000198859 0.00033505 0.0
-0.000187189 0.000303576 0.0
-0.000181513 0.000275921 0.0
-0.000180953 0.000254861 0.0
-0.000183603 0.000244255 0.0
-0.000188813 0.000246065 0.0
-0.000197146 0.0002585 0.0
-0.000208118 0.000279592 0.0
-0.000221283 0.000307722 0.0
-0.000236464 0.000340999 0.0
-0.000253683 0.000377047 0.0
-0.000272789 0.000412811 0.0
-0.000292898 0.000444531 0.0
-0.000311909 0.000468058 0.0
-0.00032648 0.000479554 0.0
-0.000332757 0.000476516 0.0
-0.000327785 0.000458737 0.0
-0.00031104 0.000428614 0.0
-0.000285236 0.000390513 0.0
-0.000255865 0.00034939 0.0
-0.000229658 0.000309248 0.0
-0.000212782 0.000272067 0.0
-0.000209403 0.000237632 0.0
-0.000221129 0.00020431 0.0
-0.000247478 0.000170278 0.0
-0.000286423 0.000134372 0.0
-0.000333837 9.65075e-05 0.0
-0.000382005 5.82507e-05 0.0
-0.000418625 2.40219e-05 0.0
-0.000433456 -2.2559e-06 0.0
-0.000431091 -2.20747e-05 0.0
-0.000411513 -3.56801e-05 0.0
-0.000371371 -3.98609e-05 0.0
-0.000312865 -3.13566e-05 0.0
-0.000248341 -9.82608e-06 0.0
-0.000189753 2.45419e-05 0.0
-0.000141049 7.08724e-05 0.0
-0.000101181 0.000124784 0.0
-6.70753e-05 0.00017778 0.0
-3.56033e-05 0.00022254 0.0
-4.95404e-06 0.000256443 0.0
2.41569e-05 0.000279232 0.0
4.88769e-05 0.000292372 0.0
6.54761e-05 0.000297133 0.0
7.0316e-05 0.000291778 0.0
5.9464e-05 0.000268938 0.0
2.5864e-05 0.000190324 0.0
-2.34495e-05 0.000106517 0.0
0.00467359 -5.89646e-06 0.0
0.00186292 9.81643e-06 0.0
0.000662156 0.000104012 0.0
3.21236e-05 0.000233012 0.0
-0.000247347 0.000324207 0.0
-0.000330777 0.000374405 0.0
-0.000331037 0.000392728 0.0
-0.000303536 0.000390768 0.0
-0.000271362 0.000376975 0.0
-0.000242907 0.000356626 0.0
-0.000220549 0.000333079 0.0
-0.000204482 0.000308708 0.0
-0.000194291 0.000285525 0.0
-0.000189524 0.000265623 0.0
-0.000189757 0.000251899 0.0
-0.000193778 0.000248392 0.0
-0.000200772 0.00025729 0.0
-0.000211111 0.000276676 0.0
-0.000223964 0.000304578 0.0
-0.000238725 0.000339573 0.0
-0.000255289 0.000379889 0.0
-0.00027394 0.000423056 0.0
-0.000294835 0.000465624 0.0
-0.000317222 0.000503164 0.0
-0.00033874 0.00053069 0.0
-0.000355348 0.000543546 0.0
-0.000362275 0.000538619 0.0
-0.000355895 0.000515508 0.0
-0.000335704 0.000476972 0.0
-0.000305299 0.000428223 0.0
-0.000271697 0.000375217 0.0
-0.000243281 0.00032267 0.0
-0.000227365 0.000272751 0.0
-0.000228347 0.000225041 0.0
-0.000247365 0.000177902 0.0
-0.000283273 0.000130054 0.0
-0.000333145 8.12931e-05 0.0
-0.000391211 3.27776e-05 0.0
-0.000446914 -1.23898e-05 0.0
-0.000484055 -4.80593e-05 0.0
-0.000496075 -7.23342e-05 0.0
-0.00048875 -8.86295e-05 0.0
-0.000461647 -9.66207e-05 0.0
-0.000411834 -9.31083e-05 0.0
-0.00034556 -7.71373e-05 0.0
-0.000276888 -4.92582e-05 0.0
-0.000214807 -8.08145e-06 0.0
-0.000162698 4.58033e-05 0.0
-0.000120044 0.0001072 0.0
-8.37986e-05 0.000166851 0.0
-5.01193e-05 0.000217322 0.0
-1.60505e-05 0.000255126 0.0
1.84479e-05 0.00027933 0.0
5.06097e-05 0.000291188 0.0
7.58878e-05 0.000292429 0.0
8.85512e-05 0.000282547 0.0
8.03346e-05 0.000256242 0.0
3.55661e-05 0.000178342 0.0
-3.96585e-05 0.000102026 0.0
0.00468772 -7.42572e-06 0.0
0.0019292 -6.20252e-06 0.0
0.000785192 5.46246e-05 0.0
0.000173435 0.0001576 0.0
-0.000138718 0.00024397 0.0
-0.000258566 0.000299314 0.0
-0.00028561 0.000326673 0.0
-0.000275815 0.000334336 0.0
-0.000255078 0.000329659 0.0
-0.000234045 0.000317729 0.0
-0.000216545 0.000301986 0.0
-0.000203648 0.000284968 0.0
-0.000195479 0.000268875 0.0
-0.000191969 0.000256026 0.0
-0.000193141 0.000249506 0.0
-0.000198569 0.000253647 0.0
-0.0002074 0.000271035 0.0
-0.000219717 0.000299659 0.0
-0.000234272 0.000337462 0.0
-0.000250337 0.000383091 0.0
-0.000268036 0.000434693 0.0
-0.000288162 0.000489393 0.0
-0.000311471 0.000542925 0.0
-0.000337592 0.000589657 0.0
-0.00036401 0.000623217 0.0
-0.000385807 0.000637723 0.0
-0.000396791 0.000629333 0.0
-0.000392012 0.000597653 0.0
-0.000370499 0.000546223 0.0
-0.000336635 0.000481576 0.0
-0.000299258 0.000411081 0.0
-0.000268808 0.000340446 0.0
-0.000253851 0.000272165 0.0
-0.000258748 0.000205884 0.0
-0.000283879 0.000140512 0.0
-0.000327175 7.59051e-05 0.0
-0.000384447 1.32689e-05 0.0
-0.000447934 -4.46842e-05 0.0
-0.000504413 -9.33314e-05 0.0
-0.000535343 -0.000125655 0.0
-0.000540163 -0.000143941 0.0
-0.000524072 -0.000152544 0.0
-0.000485901 -0.00015127 0.0
-0.000427923 -0.000140149 0.0
-0.000359856 -0.000120059 0.0
-0.000291315 -8.87424e-05 0.0
-0.000228594 -4.25485e-05 0.0
-0.000175026 1.79149e-05 0.0
-0.000131194 8.58232e-05 0.0
-9.47068e-05 0.000151594 0.0
-6.09124e-05 0.000208261 0.0
-2.57915e-05 0.000251444 0.0
1.1619e-05 0.00027921 0.0
4.89398e-05 0.000292001 0.0
8.10924e-05 0.000291327 0.0
0.000100558 0.000277371 0.0
9.53934e-05 0.000246655 0.0
4.2937e-05 0.000167597 0.0
-5.18238e-05 9.71366e-05 0.0
0.00469392 -8.18061e-06 0.0
0.00197437 -1.54104e-05 0.0
0.000879526 2.35273e-05 0.0
0.000296101 0.00010248 0.0
-3.08239e-05 0.000182298 0.0
-0.000180254 0.000239777 0.0
-0.000232454 0.000273225 0.0
-0.000240579 0.000287888 0.0
-0.000231985 0.000290031 0.0
-0.000219102 0.000284526 0.0
-0.000207068 0.00027491 0.0
-0.000197786 0.000263909 0.0
-0.000191889 0.000253967 0.0
-0.000189666 0.000247716 0.0
-0.000191512 0.000248514 0.0
-0.000197802 0.000261188 0.0
-0.000207837 0.000288775 0.0
-0.000221423 0.000329407 0.0
-0.00023688 0.000380848 0.0
-0.000253428 0.000441655 0.0
-0.000271628 0.000509621 0.0
-0.000293131 0.000581057 0.0
-0.000319705 0.000650315 0.0
-0.000351721 0.000709907 0.0
-0.000386688 0.000751467 0.0
-0.000418632 0.000767442 0.0
-0.000439301 0.000753102 0.0
-0.000441466 0.000708274 0.0
-0.000422802 0.000637821 0.0
-0.000388048 0.000550283 0.0
-0.000347996 0.000455051 0.0
-0.00031549 0.000359281 0.0
-0.000300417 0.000266196 0.0
-0.000306956 0.000176202 0.0
-0.000334573 8.95655e-05 0.0
-0.000380051 7.77241e-06 0.0
-0.000437703 -6.64044e-05 0.0
-0.000497783 -0.000128828 0.0
-0.000545338 -0.0001739 0.0
-0.000563022 -0.000196072 0.0
-0.000555977 -0.000202902 0.0
-0.000527746 -0.000199762 0.0
-0.000481327 -0.000190138 0.0
-0.000423057 -0.000176738 0.0
-0.000358783 -0.000157499 0.0
-0.000293766 -0.000126203 0.0
-0.000232302 -7.71224e-05 0.0
-0.000178451 -1.20148e-05 0.0
-0.000134817 6.01527e-05 0.0
-9.94143e-05 0.000130527 0.0
-6.69797e-05 0.000192513 0.0
-3.27311e-05 0.000241246 0.0
5.24922e-06 0.000273798 0.0
4.52281e-05 0.000289422 0.0
8.19532e-05 0.000288821 0.0
0.000106538 0.00027228 0.0
0.000104133 0.000237737 0.0
4.69671e-05 0.000157206 0.0
-6.05737e-05 9.20137e-05 0.0
0.00469454 -8.57337e-06 0.0
0.002005 -2.09455e-05 0.0
0.000952327 3.26772e-06 0.0
0.0004006 6.26043e-05 0.0
7.41629e-05 0.000134257 0.0
-9.80216e-05 0.000191702 0.0
-0.000173502 0.000229159 0.0
-0.000199581 0.000248992 0.0
-0.000203678 0.000256313 0.0
-0.000199509 0.00025577 0.0
-0.000193356 0.000251024 0.0
-0.000187905 0.000245055 0.0
-0.000184274 0.00024064 0.0
-0.000183061 0.000240833 0.0
-0.000184948 0.000249423 0.0
-0.000190972 0.000271834 0.0
-0.000200916 0.0003117 0.0
-0.000214313 0.000367475 0.0
-0.00022919 0.000436774 0.0
-0.000244811 0.000517715 0.0
-0.000262456 0.000607288 0.0
-0.000285081 0.000700342 0.0
-0.000315966 0.000789109 0.0
-0.000356622 0.000863571 0.0
-0.000404755 0.000913062 0.0
-0.000453161 0.0009285 0.0
-0.000490881 0.000904493 0.0
-0.000507412 0.000841285 0.0
-0.000498014 0.000745345 0.0
-0.000467009 0.000627655 0.0
-0.000426813 0.000500221 0.0
-0.000392534 0.000372327 0.0
-0.000375235 0.000248885 0.0
-0.00037898 0.000132257 0.0
-0.000402479 2.48213e-05 0.0
-0.000441367 -7.0181e-05 0.0
-0.000488702 -0.000148816 0.0
-0.000533317 -0.000206204 0.0
-0.000560147 -0.000237119 0.0
-0.000558161 -0.000242128 0.0
-0.000536062 -0.000234012 0.0
-0.000500753 -0.000222124 0.0
-0.000456028 -0.000211545 0.0
-0.000404442 -0.000202213 0.0
-0.00034792 -0.000188059 0.0
-0.000288273 -0.000159247 0.0
-0.000228609 -0.000108815 0.0
-0.000175539 -4.19732e-05 0.0
-0.000133071 3.15823e-05 0.0
-9.92312e-05 0.000103992 0.0
-6.87663e-05 0.000169322 0.0
-3.64979e-05 0.000222656 0.0
3.08297e-07 0.000260258 0.0
4.07202e-05 0.00028006 0.0
7.9694e-05 0.000281519 0.0
0.000107513 0.000264435 0.0
0.000107288 0.000227638 0.0
4.80607e-05 0.000146404 0.0
-6.57913e-05 8.66644e-05 0.0
0.00469102 -8.7502e-06 0.0
0.00202519 -2.43081e-05 0.0
0.00100893 -1.0454e-05 0.0
0.000489494 3.34406e-05 0.0
0.000174579 9.56006e-05 0.0
-1.35816e-05 0.000151238 0.0
-0.000110126 0.000191262 0.0
-0.000154007 0.000215052 0.0
-0.000171247 0.000226448 0.0
-0.000176251 0.000229852 0.0
-0.000176257 0.000229089 0.0
-0.000174671 0.000227477 0.0
-0.000173062 0.00022823 0.0
-0.000172298 0.000234952 0.0
-0.000173264 0.000252066 0.0
-0.000177405 0.000285563 0.0
-0.000185301 0.000339987 0.0
-0.00019635 0.0004141 0.0
-0.000208556 0.000505338 0.0
-0.000221415 0.00061072 0.0
-0.000237277 0.000725536 0.0
-0.000260883 0.000842048 0.0
-0.000297481 0.000949399 0.0
-0.000349739 0.00103448 0.0
-0.00041522 0.00108512 0.0
-0.000485445 0.00109303 0.0
-0.000546885 0.00105397 0.0
-0.000585552 0.000968836 0.0
-0.00059354 0.00084489 0.0
-0.000573573 0.00069454 0.0
-0.00053832 0.000532008 0.0
-0.000503906 0.000369349 0.0
-0.000482075 0.000214783 0.0
-0.000477123 7.40837e-05 0.0
-0.000487553 -4.78623e-05 0.0
-0.000508377 -0.000146468 0.0
-0.00053233 -0.000217785 0.0
-0.000547725 -0.00025764 0.0
-0.000543304 -0.000265412 0.0
-0.000522082 -0.000253485 0.0
-0.000492713 -0.000236996 0.0
-0.000459122 -0.000224649 0.0
-0.000422107 -0.00021941 0.0
-0.000380912 -0.000218091 0.0
-0.000333759 -0.000211204 0.0
-0.000279355 -0.000185276 0.0